/*--------------------------------*- C++ -*----------------------------------*\
| =========                 |                                                 |
| \\      /  F ield         | OpenFOAM: The Open Source CFD Toolbox           |
|  \\    /   O peration     | Version:  v1912                                 |
|   \\  /    A nd           | Website:  www.openfoam.com                      |
|    \\/     M anipulation  |                                                 |
\*---------------------------------------------------------------------------*/
FoamFile
{
    version     2.0;
    format      ascii;
    class       volScalarField;
    location    "100";
    object      p;
}
// * * * * * * * * * * * * * * * * * * * * * * * * * * * * * * * * * * * * * //

dimensions      [1 -1 -2 0 0 0 0];


internalField   nonuniform List<scalar> 
14268
(
40841.1
40814.9
40789.3
40762.5
40730.7
40691.9
40646.8
40588.2
40739.7
40713.6
40688
40661.1
40629.3
40590.5
40545.4
40486.8
40638.4
40612.2
40586.6
40559.8
40527.9
40489.2
40444
40385.4
40537
40510.8
40485.2
40458.4
40426.6
40387.8
40342.7
40284.1
40435.6
40409.5
40383.9
40357
40325.2
40286.4
40241.3
40182.7
40334.3
40308.1
40282.5
40255.7
40223.8
40185
40139.9
40081.4
40232.9
40206.7
40181.1
40154.3
40122.5
40083.7
40038.5
39980
40131.5
40105.4
40079.8
40052.9
40021.1
39982.3
39937.1
39878.6
40030.2
40004
39978.4
39951.6
39919.7
39880.9
39835.8
39777.3
39928.8
39902.6
39877
39850.2
39818.3
39779.5
39734.4
39675.9
39827.4
39801.3
39775.7
39748.8
39717
39678.2
39633
39574.6
39726
39699.9
39674.3
39647.5
39615.6
39576.8
39531.6
39473.2
39624.6
39598.5
39572.9
39546.1
39514.2
39475.4
39430.2
39371.8
39523.3
39497.1
39471.6
39444.7
39412.9
39374.1
39328.9
39270.5
39151.8
39154.9
39158.6
39161
39158.5
39149
39133.3
39104.3
38509.7
38571.3
38633.5
38694.4
38750.3
38799.2
38841.8
38871.1
37867.6
37987.8
38108.4
38227.8
38342.1
38449.4
38550.3
38637.9
37225.5
37404.1
37583.3
37761.1
37933.9
38099.6
38258.8
38404.7
36583.3
36820.5
37058.2
37294.5
37525.7
37749.7
37967.2
38171.5
35941
36236.8
36533
36827.9
37117.5
37399.9
37675.7
37938.2
35298.7
35653.1
36007.8
36361
36709.1
37050
37384.1
37704.9
33593.2
33978.2
34363.4
34745.9
35124.2
35495.4
35859.8
36212
30817.5
31204.6
31592
31977.4
32357.7
32730.5
33096
33449.8
28041.3
28430.6
28820
29207
29588.9
29963.1
30329.4
30684.6
25264.5
25656.3
26048.1
26437.2
26821.1
27196.8
27564.1
27920.6
22486.8
22881.2
23275.4
23666.9
24052.9
24430.4
24798.5
25156.2
19708.5
20105.6
20502.6
20896.7
21285
21664.3
22033.3
22392
16929.5
17329.6
17729.5
18126.4
18517
18898.3
19268.2
19627.9
14149.8
14553
14956.1
15355.9
15749.1
16132.4
16503.3
16863.9
11369
11775.6
12182
12585.2
12981.4
13367
13738.9
14100.3
8586.76
8996.79
9406.89
9813.83
10213.2
10601.1
10974.1
11336.1
5806.07
6219.31
6632.83
7043.49
7446.01
7835.95
8209.69
8571.11
3063.41
3454.47
3859.93
4272.64
4679.65
5072.11
5447.01
5808.4
924.988
1153.97
1425
1741.77
2080.46
2418.44
2751.38
3081.68
74.5278
120.393
194.831
308.973
451.335
604.084
766.213
941.614
5.52708
6.53222
8.45974
12.3089
19.1438
30.2245
48.1889
75.4182
0.0692073
-0.261657
-0.567641
-0.695659
-0.479907
-0.171427
0.193733
1.04204
-3.19958
-3.55915
-3.98627
-4.29246
-4.49432
-4.73084
-4.91096
-4.95067
-6.64533
-6.97492
-7.32158
-7.59177
-7.72851
-7.89291
-8.18566
-8.43968
-9.96685
-10.3126
-10.6598
-10.953
-11.1661
-11.3949
-11.5915
-11.7634
-13.3291
-13.6582
-13.9786
-14.2434
-14.417
-14.5993
-14.8535
-15.0989
-16.6871
-17.0093
-17.3221
-17.5928
-17.8091
-18.0221
-18.2241
-18.4108
-20.0425
-20.3522
-20.6502
-20.9058
-21.1067
-21.3086
-21.5354
-21.7426
-23.4008
-23.7027
-23.9921
-24.2461
-24.4609
-24.6669
-24.8698
-25.0626
-26.7583
-27.0512
-27.3304
-27.5776
-27.7902
-27.9948
-28.1998
-28.3916
-30.1168
-30.4015
-30.6723
-30.9151
-31.129
-31.3315
-31.5311
-31.7176
-33.4757
-33.7526
-34.0155
-34.2534
-34.4667
-34.6674
-34.8631
-35.0466
-36.8355
-37.1048
-37.3604
-37.5936
-37.8052
-38.0036
-38.1955
-38.375
-40.1964
-40.4582
-40.7069
-40.9355
-41.1446
-41.3402
-41.5284
-41.7043
-43.5583
-43.813
-44.055
-44.2791
-44.4852
-44.6777
-44.8622
-45.0346
-46.9213
-47.1692
-47.4049
-47.6243
-47.8271
-48.0164
-48.1973
-48.3663
-50.285
-50.5264
-50.7563
-50.9709
-51.1701
-51.3563
-51.5333
-51.6989
-53.6498
-53.8849
-54.1091
-54.3189
-54.5143
-54.6973
-54.8705
-55.0327
-57.0154
-57.2445
-57.4632
-57.6682
-57.8598
-58.0394
-58.2089
-58.3677
-60.3817
-60.605
-60.8182
-61.0186
-61.2063
-61.3823
-61.5483
-61.7035
-63.7491
-63.9665
-64.1744
-64.3702
-64.5539
-64.7262
-64.8888
-65.0404
-67.1172
-67.3291
-67.5317
-67.7228
-67.9025
-68.0709
-68.2301
-68.3783
-70.4861
-70.6924
-70.8899
-71.0763
-71.2519
-71.4166
-71.5723
-71.717
-73.8557
-74.0566
-74.2489
-74.4307
-74.6023
-74.7632
-74.9153
-75.0567
-77.2261
-77.4216
-77.6089
-77.7861
-77.9536
-78.1106
-78.2591
-78.3971
-80.5973
-80.7874
-80.9697
-81.1423
-81.3057
-81.4588
-81.6038
-81.7384
-83.9691
-84.154
-84.3313
-84.4994
-84.6586
-84.8078
-84.9492
-85.0804
-87.3416
-87.5213
-87.6937
-87.8572
-88.0123
-88.1576
-88.2954
-88.4232
-90.7147
-90.8893
-91.0569
-91.2158
-91.3668
-91.5081
-91.6423
-91.7667
-94.0884
-94.258
-94.4207
-94.5751
-94.722
-94.8594
-94.99
-95.1109
-97.4627
-97.6273
-97.7852
-97.9352
-98.0779
-98.2114
-98.3383
-98.4558
-100.838
-100.997
-101.15
-101.296
-101.434
-101.564
-101.687
-101.801
-104.213
-104.368
-104.516
-104.657
-104.792
-104.918
-105.037
-105.148
-107.589
-107.739
-107.883
-108.019
-108.149
-108.272
-108.387
-108.495
-110.965
-111.111
-111.25
-111.382
-111.508
-111.627
-111.738
-111.843
-114.342
-114.483
-114.617
-114.745
-114.867
-114.982
-115.09
-115.191
-117.719
-117.856
-117.985
-118.109
-118.227
-118.338
-118.442
-118.54
-121.097
-121.229
-121.354
-121.473
-121.587
-121.694
-121.795
-121.889
-124.476
-124.602
-124.723
-124.838
-124.947
-125.051
-125.148
-125.239
-127.854
-127.976
-128.092
-128.204
-128.309
-128.408
-128.502
-128.59
-131.234
-131.351
-131.462
-131.569
-131.671
-131.766
-131.857
-131.941
-134.613
-134.726
-134.833
-134.935
-135.033
-135.125
-135.211
-135.292
-144.594
-144.695
-144.795
-144.888
-144.979
-145.063
-145.143
-145.218
-161.183
-161.271
-161.357
-161.439
-161.518
-161.593
-161.664
-161.73
-177.777
-177.853
-177.926
-177.997
-178.065
-178.131
-178.192
-178.25
-194.375
-194.439
-194.501
-194.561
-194.62
-194.676
-194.729
-194.779
-210.976
-211.028
-211.08
-211.131
-211.179
-211.226
-211.271
-211.313
-227.579
-227.621
-227.663
-227.704
-227.743
-227.782
-227.818
-227.853
-244.184
-244.216
-244.248
-244.28
-244.311
-244.341
-244.369
-244.397
-260.789
-260.813
-260.836
-260.859
-260.881
-260.902
-260.923
-260.943
-277.396
-277.41
-277.425
-277.439
-277.453
-277.466
-277.48
-277.492
-294.004
-294.009
-294.015
-294.02
-294.026
-294.032
-294.037
-294.043
40786.7
41193.9
41584.8
41958.9
42319.7
42665.8
42996.4
43311
43608.7
43886.9
44144.2
44376.3
44584.3
44765.7
44923.8
45062.4
45187.7
45309.5
45439.5
45590.7
45779.2
46020
46326.7
46710.7
47179.9
47737.8
48381.6
49101.7
49878.5
50694
51516.1
52318.3
53065.7
53728.2
54270.6
54649.5
54816.3
54778.5
54470
53851
52896.1
51591.5
49967
48135.9
46240.1
44419
42830.6
41524.9
40511.3
39764.7
39242.1
38899.2
38697.1
38603.6
38588.4
38628.2
38708.2
38815.2
38939.6
39073.7
39212.1
39350.4
39485.9
39616.6
39740.8
39857.4
39965.7
40065.6
40157.1
40240.2
40315.1
40382.7
40444.1
40501.3
40557.2
40614.9
40677.6
40748.4
40830.7
40927.1
41040.7
41173.6
41328.6
41508.4
41715.3
41951.4
42218.4
42517.9
42850.6
43220.5
43630
44079.8
44572.2
45107.2
45682.8
46292.9
46929.1
47582.6
48245.4
48910.3
49568.6
50207.5
50807.2
51344.2
51785
52088.3
52213
52111.6
51798.2
51249
50482.1
49550.1
48517.5
47446.1
46380.7
45351
44376.6
43469.6
42637
41882.1
41205.9
40607.8
40086.1
39639.2
39265
38961.5
38726.6
38559.1
38458.2
38423.4
38456.7
38553.4
38713.1
38934.6
39217
39559.3
39960.9
40421.4
40939.7
41514.3
42142.7
42819.7
43540.4
44310.2
45103.6
45907.3
46707.6
47485.3
48219.3
48887.6
49470.3
49948.7
50304.2
50522.3
50591.7
50501.7
40685.1
41092.3
41483.2
41857.3
42218.1
42564.2
42894.8
43209.4
43507.1
43785.3
44042.6
44274.7
44482.7
44664.1
44822.2
44960.8
45086.1
45207.9
45337.8
45489
45677.5
45918.3
46225.1
46609
47078.3
47636.2
48280
49000.1
49776.9
50592.4
51414.5
52216.7
52964.1
53626.6
54169.1
54547.9
54714.7
54677
54368.5
53749.4
52794.5
51489.9
49865.4
48034.3
46138.5
44317.4
42728.9
41423.3
40409.7
39663.1
39140.4
38797.6
38595.5
38502
38486.8
38526.6
38606.6
38713.6
38838
38972.1
39110.5
39248.8
39384.3
39515
39639.2
39755.8
39864.1
39964
40055.5
40138.6
40213.5
40281.1
40342.5
40399.7
40455.6
40513.3
40576
40646.8
40729.1
40825.5
40939.1
41072
41227
41406.7
41613.7
41849.8
42116.8
42416.2
42749
43118.9
43528.4
43978.2
44470.6
45005.6
45581.2
46191.3
46827.5
47481
48143.8
48808.7
49467
50105.9
50705.6
51242.6
51683.4
51986.7
52111.4
52010
51696.7
51147.5
50380.5
49448.5
48415.9
47344.5
46279.1
45249.4
44275
43368
42535.4
41780.5
41104.3
40506.2
39984.5
39537.5
39163.4
38859.9
38625
38457.5
38356.6
38321.8
38355.1
38451.8
38611.4
38833
39115.3
39457.7
39859.3
40319.8
40838.1
41412.7
42041.1
42718.1
43438.8
44208.5
45002
45805.7
46606
47383.6
48117.7
48786
49368.8
49847.1
50202.6
50420.8
50490.1
50400.1
40583.5
40990.7
41381.6
41755.7
42116.5
42462.6
42793.2
43107.8
43405.5
43683.7
43941
44173.1
44381.1
44562.5
44720.6
44859.2
44984.5
45106.3
45236.2
45387.4
45575.9
45816.7
46123.5
46507.4
46976.7
47534.6
48178.3
48898.4
49675.3
50490.8
51312.9
52115.1
52862.5
53525
54067.5
54446.4
54613.2
54575.4
54266.9
53647.9
52693
51388.3
49763.8
47932.6
46036.8
44215.7
42627.3
41321.6
40308
39561.4
39038.8
38696
38493.9
38400.4
38385.2
38425
38505
38612
38736.3
38870.5
39008.9
39147.2
39282.7
39413.4
39537.6
39654.2
39762.5
39862.4
39953.9
40037
40111.9
40179.5
40240.9
40298
40354
40411.7
40474.4
40545.2
40627.5
40723.9
40837.4
40970.3
41125.4
41305.1
41512.1
41748.2
42015.2
42314.6
42647.4
43017.3
43426.7
43876.6
44369
44904
45479.6
46089.7
46725.9
47379.4
48042.2
48707.1
49365.4
50004.3
50604.1
51141.1
51581.9
51885.1
52009.8
51908.4
51595.1
51045.9
50279
49346.9
48314.3
47242.9
46177.5
45147.8
44173.3
43266.3
42433.8
41678.9
41002.7
40404.5
39882.9
39435.9
39061.8
38758.3
38523.4
38355.8
38255
38220.2
38253.5
38350.1
38509.8
38731.4
39013.7
39356
39757.7
40218.1
40736.5
41311.1
41939.5
42616.5
43337.2
44106.9
44900.4
45704.1
46504.4
47282
48016.1
48684.4
49267.2
49745.5
50101
50319.2
50388.5
50298.5
40482
40889.1
41280
41654.1
42014.9
42361
42691.6
43006.2
43303.9
43582.1
43839.4
44071.5
44279.5
44460.9
44619
44757.6
44882.9
45004.7
45134.6
45285.8
45474.3
45715.1
46021.9
46405.8
46875.1
47433
48076.7
48796.8
49573.7
50389.2
51211.3
52013.5
52761
53423.4
53965.9
54344.8
54511.6
54473.9
54165.4
53546.4
52591.5
51286.8
49662.2
47831
45935.2
44114
42525.5
41219.9
40206.4
39459.7
38937.1
38594.3
38392.3
38298.8
38283.6
38323.4
38403.4
38510.4
38634.7
38768.9
38907.3
39045.6
39181.1
39311.8
39436
39552.6
39660.9
39760.8
39852.3
39935.4
40010.3
40077.9
40139.3
40196.4
40252.4
40310.1
40372.8
40443.6
40525.9
40622.3
40735.8
40868.7
41023.8
41203.5
41410.4
41646.6
41913.6
42213
42545.8
42915.7
43325.1
43774.9
44267.4
44802.4
45377.9
45988.1
46624.3
47277.8
47940.6
48605.4
49263.8
49902.7
50502.5
51039.5
51480.3
51783.6
51908.3
51806.9
51493.6
50944.3
50177.4
49245.4
48212.7
47141.3
46075.9
45046.1
44071.7
43164.7
42332.1
41577.2
40901
40302.9
39781.2
39334.3
38960.2
38656.7
38421.8
38254.2
38153.3
38118.6
38151.9
38248.5
38408.2
38629.7
38912.1
39254.4
39656
40116.5
40634.9
41209.4
41837.9
42514.9
43235.6
44005.3
44798.7
45602.5
46402.7
47180.4
47914.5
48582.8
49165.6
49643.9
49999.5
50217.6
50286.9
50197
40380.4
40787.5
41178.4
41552.5
41913.3
42259.4
42590
42904.6
43202.3
43480.5
43737.8
43969.9
44178
44359.3
44517.4
44656
44781.3
44903.1
45033
45184.2
45372.7
45613.5
45920.2
46304.1
46773.4
47331.3
47975.1
48695.2
49472.1
50287.6
51109.7
51911.9
52659.4
53321.9
53864.4
54243.3
54410.1
54372.4
54063.9
53444.9
52490
51185.3
49560.6
47729.4
45833.5
44012.3
42423.8
41118.1
40104.6
39358
38835.4
38492.6
38290.6
38197.1
38182
38221.8
38301.8
38408.8
38533.1
38667.3
38805.7
38944
39079.5
39210.2
39334.4
39451
39559.3
39659.2
39750.7
39833.8
39908.7
39976.3
40037.7
40094.8
40150.8
40208.5
40271.2
40342
40424.3
40520.7
40634.2
40767.1
40922.1
41101.9
41308.8
41545
41812
42111.4
42444.2
42814
43223.5
43673.3
44165.7
44700.7
45276.3
45886.4
46522.7
47176.2
47838.9
48503.8
49162.2
49801.1
50400.9
50937.9
51378.8
51682
51806.8
51705.4
51392.1
50842.8
50075.9
49143.8
48111.1
47039.7
45974.2
44944.5
43970
43063.1
42230.5
41475.6
40799.4
40201.3
39679.6
39232.7
38858.5
38555
38320.2
38152.6
38051.7
38016.9
38050.3
38146.9
38306.6
38528.1
38810.5
39152.8
39554.4
40014.9
40533.2
41107.8
41736.2
42413.3
43133.9
43903.7
44697.1
45500.8
46301.1
47078.8
47812.9
48481.2
49064
49542.4
49897.9
50116.1
50185.4
50095.4
40278.8
40685.9
41076.8
41450.9
41811.7
42157.8
42488.4
42803
43100.7
43378.9
43636.2
43868.3
44076.4
44257.7
44415.8
44554.4
44679.7
44801.5
44931.4
45082.6
45271.1
45511.8
45818.6
46202.5
46671.8
47229.7
47873.4
48593.5
49370.4
50185.9
51008.1
51810.3
52557.8
53220.3
53762.9
54141.8
54308.7
54270.9
53962.5
53343.4
52388.5
51083.8
49459.1
47627.8
45731.8
43910.5
42322
41016.3
40002.9
39256.3
38733.7
38391
38188.9
38095.5
38080.3
38120.1
38200.2
38307.2
38431.5
38565.7
38704
38842.4
38977.9
39108.6
39232.8
39349.4
39457.7
39557.6
39649.1
39732.2
39807.1
39874.7
39936.1
39993.2
40049.2
40106.9
40169.6
40240.4
40322.7
40419.1
40532.6
40665.5
40820.5
41000.3
41207.2
41443.3
41710.4
42009.8
42342.5
42712.4
43121.9
43571.7
44064.1
44599.1
45174.7
45784.8
46421
47074.6
47737.3
48402.2
49060.6
49699.5
50299.3
50836.4
51277.2
51580.5
51705.3
51603.9
51290.6
50741.3
49974.3
49042.2
48009.5
46938
45872.6
44842.8
43868.4
42961.4
42128.8
41373.9
40697.7
40099.6
39578
39131
38756.9
38453.4
38218.5
38050.9
37950.1
37915.3
37948.6
38045.3
38204.9
38426.5
38708.8
39051.2
39452.8
39913.2
40431.6
41006.2
41634.6
42311.6
43032.3
43802
44595.5
45399.2
46199.5
46977.3
47711.3
48379.7
48962.5
49440.8
49796.4
50014.6
50083.9
49993.9
40177.2
40584.3
40975.2
41349.3
41710.1
42056.2
42386.8
42701.4
42999.1
43277.3
43534.6
43766.8
43974.8
44156.1
44314.2
44452.8
44578.1
44699.9
44829.8
44980.9
45169.4
45410.2
45716.9
46100.8
46570.1
47128
47771.8
48491.9
49268.8
50084.3
50906.5
51708.8
52456.3
53118.8
53661.4
54040.3
54207.2
54169.5
53861
53242
52287.1
50982.3
49357.5
47526.1
45630.1
43808.8
42220.2
40914.5
39901.1
39154.5
38632
38289.3
38087.3
37993.8
37978.7
38018.5
38098.6
38205.6
38329.9
38464
38602.4
38740.8
38876.3
39007
39131.2
39247.8
39356.1
39456
39547.5
39630.6
39705.5
39773.1
39834.5
39891.6
39947.6
40005.3
40068
40138.8
40221
40317.5
40431
40563.9
40718.9
40898.7
41105.6
41341.7
41608.7
41908.1
42240.9
42610.8
43020.2
43470
43962.5
44497.5
45073.1
45683.2
46319.4
46972.9
47635.7
48300.6
48959
49597.9
50197.7
50734.8
51175.7
51479
51603.8
51502.5
51189.1
50639.8
49872.8
48940.6
47907.9
46836.4
45770.9
44741.2
43766.7
42859.7
42027.1
41272.2
40596.1
39998
39476.3
39029.4
38655.2
38351.7
38116.9
37949.3
37848.4
37813.6
37847
37943.6
38103.3
38324.8
38607.2
38949.5
39351.1
39811.6
40329.9
40904.5
41533
42210
42930.7
43700.4
44493.9
45297.6
46097.9
46875.7
47609.7
48278.1
48860.9
49339.3
49694.9
49913.1
49982.4
49892.4
40075.6
40482.7
40873.6
41247.7
41608.5
41954.6
42285.2
42599.8
42897.5
43175.7
43433
43665.2
43873.2
44054.5
44212.6
44351.2
44476.5
44598.3
44728.2
44879.3
45067.8
45308.5
45615.3
45999.2
46468.4
47026.3
47670.1
48390.2
49167.1
49982.7
50804.8
51607.2
52354.7
53017.3
53559.9
53938.9
54105.8
54068.1
53759.7
53140.6
52185.7
50880.8
49256
47424.5
45528.3
43706.9
42118.3
40812.7
39799.3
39052.8
38530.3
38187.5
37985.6
37892.2
37877
37916.9
37996.9
38104
38228.3
38362.4
38500.8
38639.2
38774.7
38905.4
39029.6
39146.2
39254.5
39354.4
39445.9
39529
39603.9
39671.5
39732.9
39790
39846
39903.7
39966.4
40037.2
40119.4
40215.8
40329.4
40462.3
40617.3
40797
41004
41240.1
41507.1
41806.5
42139.3
42509.1
42918.6
43368.4
43860.8
44395.8
44971.4
45581.5
46217.8
46871.3
47534.1
48199
48857.3
49496.3
50096.2
50633.3
51074.2
51377.6
51502.4
51401
51087.7
50538.4
49771.3
48839
47806.3
46734.7
45669.2
44639.5
43665
42758
41925.5
41170.6
40494.4
39896.3
39374.6
38927.7
38553.6
38250.1
38015.2
37847.6
37746.8
37712
37745.3
37842
38001.6
38223.2
38505.5
38847.9
39249.5
39709.9
40228.3
40802.9
41431.3
42108.3
42829
43598.8
44392.2
45196
45996.3
46774.1
47508.2
48176.6
48759.4
49237.8
49593.3
49811.6
49880.9
49790.9
39974
40381.1
40772
41146.1
41506.9
41853
42183.6
42498.2
42796
43074.2
43331.4
43563.6
43771.6
43952.9
44111.1
44249.6
44374.9
44496.6
44626.5
44777.7
44966.1
45206.9
45513.6
45897.5
46366.7
46924.6
47568.4
48288.5
49065.5
49881.1
50703.2
51505.6
52253.2
52915.8
53458.4
53837.5
54004.4
53966.7
53658.3
53039.3
52084.3
50779.4
49154.4
47322.8
45426.6
43605.1
42016.4
40710.8
39697.4
38951
38428.5
38085.8
37883.9
37790.5
37775.4
37815.2
37895.3
38002.4
38126.7
38260.8
38399.2
38537.6
38673.1
38803.8
38928
39044.6
39152.9
39252.8
39344.3
39427.4
39502.3
39569.9
39631.3
39688.4
39744.4
39802.1
39864.7
39935.6
40017.8
40114.2
40227.8
40360.6
40515.7
40695.4
40902.3
41138.5
41405.5
41704.9
42037.6
42407.5
42816.9
43266.8
43759.2
44294.2
44869.8
45479.9
46116.1
46769.7
47432.5
48097.4
48755.7
49394.7
49994.6
50531.7
50972.7
51276.1
51400.9
51299.6
50986.3
50436.9
49669.8
48737.5
47704.6
46633.1
45567.6
44537.8
43563.3
42656.3
41823.8
41068.9
40392.7
39794.6
39273
38826
38451.9
38148.4
37913.6
37746
37645.1
37610.3
37643.7
37740.3
37900
38121.5
38403.9
38746.2
39147.8
39608.3
40126.6
40701.2
41329.6
42006.7
42727.3
43497.1
44290.6
45094.4
45894.7
46672.5
47406.6
48075
48657.9
49136.3
49491.9
49710.1
49779.4
49689.4
39872.5
40279.5
40670.4
41044.5
41405.3
41751.4
42082
42396.6
42694.4
42972.6
43229.9
43462
43670
43851.3
44009.5
44148
44273.3
44395
44524.9
44676
44864.5
45105.2
45411.9
45795.8
46265
46822.9
47466.7
48186.9
48963.8
49779.4
50601.6
51404
52151.6
52814.3
53356.9
53736
53903
53865.4
53557
52937.9
51982.9
50678
49052.9
47221.1
45324.8
43503.2
41914.5
40608.9
39595.5
38849.1
38326.7
37984.1
37782.2
37688.8
37673.7
37713.6
37793.7
37900.7
38025.1
38159.2
38297.6
38436
38571.5
38702.2
38826.4
38943
39051.3
39151.2
39242.7
39325.8
39400.7
39468.3
39529.7
39586.8
39642.8
39700.5
39763.1
39834
39916.2
40012.6
40126.1
40259
40414
40593.8
40800.7
41036.8
41303.8
41603.2
41936
42305.9
42715.3
43165.1
43657.5
44192.5
44768.1
45378.3
46014.5
46668.1
47330.8
47995.8
48654.1
49293.1
49893
50430.2
50871.2
51174.7
51299.5
51198.3
50884.9
50335.5
49568.3
48635.9
47603
46531.4
45465.9
44436.1
43461.6
42554.6
41722.1
40967.2
40291
39692.9
39171.3
38724.3
38350.2
38046.7
37811.9
37644.3
37543.4
37508.7
37542
37638.6
37798.3
38019.9
38302.2
38644.5
39046.1
39506.6
40025
40599.5
41228
41905
42625.7
43395.5
44188.9
44992.7
45793.1
46570.9
47305
47973.5
48556.3
49034.8
49390.4
49608.6
49678
49588
39770.9
40177.9
40568.8
40942.9
41303.7
41649.8
41980.4
42295
42592.8
42871
43128.3
43360.4
43568.5
43749.8
43907.9
44046.4
44171.7
44293.4
44423.3
44574.4
44762.8
45003.5
45310.2
45694.1
46163.3
46721.2
47365
48085.2
48862.2
49677.8
50500
51302.5
52050.1
52712.8
53255.5
53634.7
53801.6
53764
53455.7
52836.6
51881.6
50576.6
48951.4
47119.5
45223
43401.2
41812.5
40506.9
39493.6
38747.3
38224.9
37882.3
37680.5
37587.1
37572.1
37611.9
37692
37799.1
37923.5
38057.6
38196
38334.4
38469.9
38600.6
38724.8
38841.4
38949.7
39049.6
39141.2
39224.2
39299.1
39366.7
39428.1
39485.2
39541.2
39598.8
39661.5
39732.3
39814.6
39911
40024.5
40157.4
40312.4
40492.1
40699.1
40935.2
41202.2
41501.6
41834.3
42204.2
42613.6
43063.4
43555.9
44090.8
44666.5
45276.6
45912.9
46566.4
47229.2
47894.2
48552.5
49191.6
49791.5
50328.7
50769.7
51073.2
51198.2
51096.9
50783.5
50234.1
49466.8
48534.4
47501.4
46429.8
45364.2
44334.4
43359.9
42452.9
41620.3
40865.5
40189.3
39591.2
39069.6
38622.7
38248.6
37945.1
37710.2
37542.6
37441.8
37407
37440.3
37537
37696.7
37918.2
38200.5
38542.9
38944.5
39404.9
39923.3
40497.9
41126.3
41803.3
42524
43293.8
44087.3
44891.1
45691.5
46469.3
47203.5
47871.9
48454.8
48933.3
49288.9
49507.2
49576.5
49486.5
39669.3
40076.3
40467.2
40841.3
41202.1
41548.2
41878.8
42193.5
42491.2
42769.4
43026.7
43258.9
43466.9
43648.2
43806.3
43944.8
44070.1
44191.8
44321.7
44472.8
44661.1
44901.8
45208.5
45592.4
46061.6
46619.5
47263.3
47983.5
48760.5
49576.1
50398.4
51200.9
51948.6
52611.3
53154.1
53533.3
53700.3
53662.7
53354.4
52735.4
51780.3
50475.2
48849.9
47017.8
45121.2
43299.3
41710.5
40404.9
39391.7
38645.4
38123.1
37780.5
37578.7
37485.4
37470.4
37510.3
37590.4
37697.5
37821.8
37956
38094.4
38232.8
38368.3
38499
38623.2
38739.8
38848.1
38948
39039.6
39122.6
39197.5
39265.1
39326.5
39383.6
39439.6
39497.2
39559.9
39630.7
39713
39809.4
39922.9
40055.8
40210.8
40390.5
40597.4
40833.5
41100.5
41399.9
41732.7
42102.5
42512
42961.8
43454.2
43989.2
44564.8
45175
45811.2
46464.8
47127.6
47792.5
48450.9
49090
49690
50227.2
50668.3
50971.8
51096.8
50995.6
50682.2
50132.7
49365.4
48432.8
47399.8
46328.1
45262.5
44232.6
43258.2
42351.2
41518.6
40763.7
40087.6
39489.5
38967.9
38521
38146.9
37843.4
37608.5
37440.9
37340.1
37305.3
37338.6
37435.3
37595
37816.5
38098.9
38441.2
38842.8
39303.3
39821.6
40396.2
41024.6
41701.6
42422.3
43192.1
43985.6
44789.5
45589.9
46367.7
47101.9
47770.4
48353.3
48831.8
49187.5
49405.7
49475.1
49385.1
39567.7
39974.7
40365.7
40739.7
41100.5
41446.6
41777.2
42091.9
42389.6
42667.8
42925.1
43157.3
43365.3
43546.6
43704.7
43843.2
43968.5
44090.2
44220
44371.1
44559.5
44800.2
45106.8
45490.7
45959.9
46517.8
47161.6
47881.8
48658.8
49474.5
50296.8
51099.4
51847.1
52509.9
53052.7
53431.9
53599
53561.5
53253.2
52634.1
51679
50373.8
48748.4
46916.1
45019.3
43197.3
41608.5
40302.9
39289.7
38543.5
38021.3
37678.8
37477
37383.7
37368.7
37408.6
37488.8
37595.9
37720.2
37854.4
37992.8
38131.2
38266.7
38397.4
38521.6
38638.2
38746.5
38846.4
38938
39021
39095.9
39163.5
39224.9
39282
39338
39395.6
39458.3
39529.1
39611.3
39707.7
39821.2
39954.1
40109.1
40288.9
40495.8
40731.9
40998.9
41298.3
41631
42000.9
42410.3
42860.1
43352.5
43887.5
44463.1
45073.3
45709.6
46363.2
47026
47690.9
48349.3
48988.4
49588.4
50125.7
50566.9
50870.5
50995.5
50894.3
50580.9
50031.4
49263.9
48331.3
47298.2
46226.4
45160.8
44130.9
43156.4
42249.4
41416.9
40662
39985.8
39387.8
38866.2
38419.2
38045.2
37741.7
37506.8
37339.3
37238.4
37203.6
37237
37333.6
37493.3
37714.8
37997.2
38339.5
38741.1
39201.6
39719.9
40294.5
40922.9
41599.9
42320.7
43090.5
43884
44687.8
45488.2
46266.1
47000.3
47668.9
48251.8
48730.4
49086
49304.3
49373.7
49283.7
39466.2
39873.1
40264.1
40638.1
40998.9
41345.1
41675.6
41990.3
42288
42566.3
42823.5
43055.7
43263.7
43445
43603.1
43741.6
43866.9
43988.6
44118.4
44269.4
44457.8
44698.5
45005.1
45388.9
45858.1
46416
47059.8
47780.1
48557.1
49372.8
50195.2
50997.8
51745.6
52408.4
52951.3
53330.6
53497.7
53460.2
53152
52532.9
51577.8
50272.5
48646.9
46814.4
44917.5
43095.3
41506.4
40200.9
39187.7
38441.5
37919.4
37577
37375.2
37282
37267
37307
37387.1
37494.2
37618.6
37752.8
37891.2
38029.6
38165.1
38295.8
38420
38536.6
38644.9
38744.9
38836.4
38919.4
38994.3
39061.9
39123.3
39180.4
39236.4
39294
39356.7
39427.5
39509.7
39606.1
39719.6
39852.5
40007.5
40187.2
40394.1
40630.2
40897.2
41196.6
41529.4
41899.2
42308.6
42758.4
43250.9
43785.8
44361.5
44971.6
45607.9
46261.5
46924.3
47589.3
48247.7
48886.8
49486.9
50024.2
50465.4
50769.1
50894.2
50793
50479.6
49930
49162.5
48229.8
47196.5
46124.7
45059
44029.2
43054.7
42147.7
41315.1
40560.3
39884.1
39286
38764.4
38317.5
37943.5
37640
37405.1
37237.6
37136.7
37101.9
37135.3
37231.9
37391.6
37613.1
37895.5
38237.8
38639.4
39099.9
39618.2
40192.8
40821.2
41498.2
42219
42988.8
43782.3
44586.2
45386.6
46164.5
46898.8
47567.3
48150.3
48628.9
48984.6
49202.9
49272.3
49182.3
39313.8
39720.7
40111.7
40485.8
40846.5
41192.7
41523.3
41837.9
42135.7
42413.9
42671.2
42903.4
43111.4
43292.7
43450.8
43589.3
43714.5
43836.2
43965.9
44117
44305.3
44545.9
44852.5
45236.3
45705.5
46263.4
46907.2
47627.5
48404.6
49220.4
50042.8
50845.5
51593.3
52256.3
52799.2
53178.6
53345.8
53308.4
53000.2
52381.2
51426
50120.5
48494.6
46661.9
44764.7
42942.2
41353.2
40047.7
39034.7
38288.6
37766.6
37424.2
37222.6
37129.4
37114.5
37154.5
37234.6
37341.8
37466.2
37600.4
37738.8
37877.2
38012.7
38143.4
38267.6
38384.2
38492.6
38592.5
38684
38767
38841.9
38909.5
38970.9
39028
39083.9
39141.6
39204.3
39275.1
39357.3
39453.7
39567.2
39700
39855
40034.8
40241.6
40477.8
40744.8
41044.1
41376.9
41746.7
42156.1
42605.9
43098.3
43633.3
44208.9
44819.1
45455.4
46109
46771.9
47436.9
48095.3
48734.5
49334.6
49872
50313.3
50617.1
50742.2
50641.1
50327.7
49778.1
49010.4
48077.5
47044.1
45972.2
44906.4
43876.5
42902
41995
41162.5
40407.6
39731.5
39133.4
38611.8
38164.9
37790.9
37487.4
37252.6
37085
36984.1
36949.4
36982.7
37079.4
37239.1
37460.6
37742.9
38085.3
38486.8
38947.3
39465.7
40040.2
40668.7
41345.7
42066.4
42836.3
43629.8
44433.7
45234.2
46012.1
46746.5
47415.1
47998.1
48476.8
48832.5
49050.8
49120.2
49030.2
39110.7
39517.6
39908.5
40282.6
40643.3
40989.5
41320.1
41634.7
41932.5
42210.7
42468.1
42700.2
42908.3
43089.6
43247.6
43386.1
43511.3
43632.9
43762.7
43913.6
44101.9
44342.5
44649
45032.8
45502
46059.9
46703.7
47424
48201.2
49017
49839.6
50642.4
51390.4
52053.4
52596.6
52976.1
53143.4
53106.1
52798
52178.9
51223.7
49918
48291.7
46458.5
44560.8
42738
41148.9
39843.4
38830.5
38084.6
37562.7
37220.5
37019
36926
36911.1
36951.1
37031.3
37138.5
37262.9
37397.1
37535.6
37674
37809.5
37940.2
38064.4
38181
38289.4
38389.3
38480.8
38563.8
38638.7
38706.3
38767.7
38824.8
38880.7
38938.4
39001
39071.8
39154
39250.4
39363.9
39496.7
39651.7
39831.4
40038.3
40274.4
40541.4
40840.8
41173.5
41543.3
41952.8
42402.5
42894.9
43429.9
44005.6
44615.8
45252.1
45905.7
46568.6
47233.6
47892.1
48531.3
49131.5
49669.1
50110.5
50414.5
50539.8
50438.7
50125.3
49575.5
48807.6
47874.4
46840.9
45768.8
44702.9
43673
42698.5
41791.4
40958.9
40204.1
39527.9
38929.9
38408.3
37961.5
37587.4
37284
37049.1
36881.6
36780.7
36745.9
36779.3
36875.9
37035.6
37257.2
37539.5
37881.8
38283.4
38743.9
39262.2
39836.8
40465.2
41142.3
41863
42632.9
43426.5
44230.4
45031
45809
46543.4
47212.1
47795.2
48273.9
48629.7
48848.1
48917.5
48827.5
38907.6
39314.4
39705.3
40079.4
40440.1
40786.3
41116.9
41431.6
41729.4
42007.6
42264.9
42497.1
42705.1
42886.4
43044.5
43182.9
43308.1
43429.7
43559.4
43710.3
43898.5
44139
44445.5
44829.3
45298.4
45856.3
46500.2
47220.5
47997.7
48813.7
49636.4
50439.3
51187.4
51850.7
52393.9
52773.7
52941.1
52903.9
52595.8
51976.8
51021.4
49715.5
48088.8
46255
44356.9
42533.6
40944.3
39638.9
38626.2
37880.5
37358.8
37016.8
36815.4
36722.5
36707.7
36747.8
36828
36935.2
37059.7
37193.9
37332.4
37470.8
37606.3
37737
37861.2
37977.8
38086.2
38186.1
38277.6
38360.7
38435.5
38503.1
38564.5
38621.6
38677.5
38735.1
38797.8
38868.6
38950.7
39047.1
39160.6
39293.5
39448.4
39628.1
39835
40071.1
40338.1
40637.4
40970.2
41340
41749.4
42199.1
42691.5
43226.5
43802.2
44412.4
45048.8
45702.4
46365.3
47030.4
47688.9
48328.2
48928.5
49466.2
49907.8
50211.9
50337.4
50236.3
49922.9
49373
48604.8
47671.4
46637.6
45565.4
44499.4
43469.4
42494.8
41587.8
40755.3
40000.5
39324.4
38726.4
38204.8
37758
37383.9
37080.5
36845.6
36678.1
36577.2
36542.5
36575.8
36672.5
36832.2
37053.7
37336.1
37678.4
38080
38540.4
39058.7
39633.3
40261.8
40938.8
41659.6
42429.5
43223.1
44027.1
44827.7
45605.8
46340.3
47009.1
47592.4
48071.2
48427
48645.5
48714.9
48624.9
38704.4
39111.2
39502.1
39876.2
40237
40583.1
40913.7
41228.4
41526.2
41804.5
42061.8
42294
42502
42683.3
42841.4
42979.8
43104.9
43226.4
43356.1
43506.9
43695
43935.5
44242
44625.7
45094.8
45652.7
46296.6
47017
47794.3
48610.4
49433.2
50236.2
50984.5
51647.9
52191.4
52571.3
52738.9
52701.9
52393.9
51774.9
50819.4
49513.2
47885.9
46051.6
44152.9
42329.1
40739.7
39434.3
38421.7
37676.3
37154.8
36812.9
36611.7
36518.9
36504.2
36544.4
36624.7
36731.9
36856.4
36990.7
37129.2
37267.6
37403.1
37533.8
37658.1
37774.7
37883
37982.9
38074.5
38157.5
38232.4
38299.9
38361.3
38418.4
38474.3
38531.9
38594.5
38665.3
38747.5
38843.8
38957.3
39090.1
39245.1
39424.8
39631.7
39867.7
40134.7
40434.1
40766.8
41136.6
41546
41995.7
42488.1
43023.1
43598.7
44209
44845.4
45499.1
46162
46827.1
47485.7
48125.1
48725.5
49263.4
49705.2
50009.5
50135.1
50034.1
49720.7
49170.6
48402.1
47468.4
46434.3
45361.9
44295.8
43265.7
42291.2
41384.1
40551.6
39796.8
39120.7
38522.8
38001.2
37554.4
37180.4
36877
36642.1
36474.6
36373.8
36339
36372.3
36469
36628.7
36850.2
37132.6
37474.9
37876.5
38336.9
38855.2
39429.8
40058.3
40735.3
41456.1
42226
43019.7
43823.8
44624.5
45402.6
46137.3
46806.2
47389.5
47868.4
48224.4
48442.9
48512.4
48422.3
38501.3
38908
39298.9
39673
40033.8
40379.9
40710.6
41025.3
41323.1
41601.4
41858.7
42090.9
42298.9
42480.2
42638.3
42776.6
42901.7
43023.2
43152.8
43303.5
43491.6
43732
44038.4
44422
44891.1
45449
46092.9
46813.4
47590.8
48407
49229.9
50033.2
50781.7
51445.3
51988.9
52369
52536.7
52499.9
52192
51573
50617.4
49310.9
47683.1
45848.1
43948.8
42124.5
40534.9
39229.5
38217.2
37472
36950.7
36609.1
36408
36315.3
36300.7
36341
36421.4
36528.7
36653.2
36787.4
36926
37064.4
37200
37330.7
37454.9
37571.5
37679.9
37779.8
37871.3
37954.3
38029.2
38096.8
38158.1
38215.2
38271.1
38328.7
38391.3
38462
38544.2
38640.5
38754
38886.8
39041.8
39221.5
39428.3
39664.4
39931.3
40230.7
40563.4
40933.1
41342.5
41792.2
42284.6
42819.6
43395.3
44005.6
44642
45295.8
45958.7
46623.8
47282.5
47922
48522.5
49060.5
49502.5
49807.1
49932.9
49832
49518.6
48968.3
48199.5
47265.4
46231
45158.4
44092.2
43062.1
42087.4
41180.4
40347.9
39593.1
38917.1
38319.1
37797.6
37350.8
36976.8
36673.4
36438.6
36271.1
36170.2
36135.5
36168.8
36265.5
36425.2
36646.7
36929.1
37271.4
37673
38133.4
38651.7
39226.3
39854.7
40531.8
41252.6
42022.6
42816.3
43620.4
44421.2
45199.5
45934.2
46603.2
47186.7
47665.7
48021.8
48240.4
48309.9
48219.8
38298.2
38704.9
39095.8
39469.9
39830.6
40176.8
40507.4
40822.1
41120
41398.3
41655.6
41887.8
42095.9
42277.1
42435.2
42573.5