/*--------------------------------*- C++ -*----------------------------------*\
| =========                 |                                                 |
| \\      /  F ield         | OpenFOAM: The Open Source CFD Toolbox           |
|  \\    /   O peration     | Version:  v1912                                 |
|   \\  /    A nd           | Website:  www.openfoam.com                      |
|    \\/     M anipulation  |                                                 |
\*---------------------------------------------------------------------------*/
FoamFile
{
    version     2.0;
    format      ascii;
    class       volScalarField;
    location    "30";
    object      p_rgh;
}
// * * * * * * * * * * * * * * * * * * * * * * * * * * * * * * * * * * * * * //

dimensions      [1 -1 -2 0 0 0 0];


internalField   nonuniform List<scalar> 
14268
(
0.00188225
0.00177334
0.00167071
0.00157342
0.00148157
0.00139467
0.0013126
0.00123502
0.00116177
0.00109258
0.00102726
0.000965603
0.000907423
0.000852525
0.00080075
0.000751922
0.000705892
0.000662506
0.000621624
0.000583111
0.000546838
0.000512685
0.000480535
0.000450279
0.000421813
0.000395037
0.000369859
0.000346188
0.000323941
0.000303038
0.000283402
0.000264963
0.000247651
0.000231403
0.000216157
0.000201856
0.000188444
0.000175871
0.000164086
0.000153044
0.000142702
0.000133017
0.00012395
0.000115465
0.000107527
0.000100102
9.31598e-05
8.66708e-05
8.06075e-05
7.49435e-05
6.96544e-05
6.47168e-05
6.0109e-05
5.58103e-05
5.18013e-05
4.80637e-05
4.45803e-05
4.1335e-05
3.83125e-05
3.54985e-05
3.28796e-05
3.0443e-05
2.81769e-05
2.60701e-05
2.41121e-05
2.22932e-05
2.06039e-05
1.90358e-05
1.75806e-05
1.62307e-05
1.4979e-05
1.38189e-05
1.27439e-05
1.17484e-05
1.08267e-05
9.9738e-06
9.18482e-06
8.4553e-06
7.78104e-06
7.15812e-06
6.58287e-06
6.0519e-06
5.56199e-06
5.11019e-06
4.69371e-06
4.30997e-06
3.95657e-06
3.63125e-06
3.33193e-06
3.05668e-06
2.80367e-06
2.57124e-06
2.35781e-06
2.16195e-06
1.9823e-06
1.81761e-06
1.66672e-06
1.52857e-06
1.40216e-06
1.28655e-06
1.18092e-06
1.08445e-06
9.96432e-07
9.16188e-07
8.43098e-07
7.76591e-07
7.16141e-07
6.61264e-07
6.11518e-07
5.66496e-07
5.25825e-07
4.89168e-07
4.56215e-07
4.26688e-07
4.00331e-07
3.76923e-07
3.56252e-07
3.38164e-07
3.22446e-07
3.09111e-07
2.97708e-07
2.88837e-07
2.81171e-07
2.76723e-07
2.72374e-07
2.72368e-07
2.71152e-07
2.7585e-07
2.77591e-07
2.87533e-07
2.92089e-07
3.08026e-07
3.15293e-07
3.38122e-07
3.47981e-07
3.78453e-07
3.90815e-07
4.29031e-07
4.43852e-07
4.88439e-07
5.05688e-07
5.53503e-07
5.72723e-07
6.20646e-07
6.41049e-07
6.84032e-07
7.0411e-07
7.4041e-07
7.58965e-07
7.88414e-07
8.04678e-07
8.27951e-07
8.41588e-07
8.59716e-07
8.70657e-07
8.84774e-07
8.93063e-07
9.04266e-07
9.09881e-07
9.19254e-07
9.21805e-07
9.30522e-07
9.27587e-07
9.36954e-07
0.00188201
0.00177312
0.00167051
0.00157322
0.00148139
0.00139449
0.00131243
0.00123486
0.00116162
0.00109244
0.00102713
0.000965477
0.000907304
0.000852413
0.000800644
0.000751823
0.000705798
0.000662417
0.00062154
0.000583032
0.000546764
0.000512615
0.000480469
0.000450217
0.000421754
0.000394982
0.000369807
0.000346139
0.000323895
0.000302995
0.000283362
0.000264924
0.000247615
0.000231369
0.000216125
0.000201826
0.000188416
0.000175844
0.000164061
0.000153021
0.00014268
0.000132996
0.000123931
0.000115447
0.000107509
0.000100086
9.31446e-05
8.66566e-05
8.0594e-05
7.49309e-05
6.96425e-05
6.47057e-05
6.00985e-05
5.58004e-05
5.1792e-05
4.80549e-05
4.45721e-05
4.13273e-05
3.83052e-05
3.54917e-05
3.28731e-05
3.04369e-05
2.81711e-05
2.60646e-05
2.4107e-05
2.22883e-05
2.05993e-05
1.90314e-05
1.75764e-05
1.62268e-05
1.49753e-05
1.38153e-05
1.27406e-05
1.17452e-05
1.08236e-05
9.97085e-06
9.182e-06
8.4526e-06
7.77845e-06
7.15563e-06
6.58049e-06
6.0496e-06
5.55978e-06
5.10805e-06
4.69164e-06
4.30797e-06
3.95462e-06
3.62936e-06
3.3301e-06
3.05489e-06
2.80193e-06
2.56954e-06
2.35615e-06
2.16032e-06
1.9807e-06
1.81605e-06
1.66519e-06
1.52706e-06
1.40067e-06
1.28509e-06
1.17947e-06
1.08303e-06
9.95023e-07
9.14795e-07
8.41719e-07
7.75225e-07
7.14787e-07
6.59922e-07
6.10186e-07
5.65173e-07
5.24511e-07
4.87862e-07
4.54917e-07
4.25395e-07
3.99045e-07
3.75643e-07
3.54977e-07
3.36894e-07
3.21181e-07
3.07852e-07
2.96453e-07
2.87585e-07
2.79924e-07
2.75479e-07
2.71135e-07
2.71133e-07
2.69921e-07
2.74622e-07
2.76369e-07
2.86314e-07
2.90876e-07
3.06816e-07
3.14089e-07
3.36921e-07
3.46787e-07
3.77263e-07
3.89632e-07
4.27851e-07
4.42678e-07
4.87268e-07
5.04521e-07
5.52334e-07
5.71558e-07
6.19483e-07
6.39881e-07
6.82864e-07
7.02935e-07
7.39234e-07
7.57781e-07
7.87229e-07
8.03486e-07
8.26756e-07
8.40387e-07
8.58514e-07
8.6945e-07
8.83564e-07
8.91849e-07
9.0305e-07
9.08663e-07
9.18034e-07
9.20583e-07
9.29295e-07
9.26361e-07
9.35722e-07
0.00188177
0.00177289
0.00167029
0.00157302
0.00148119
0.00139431
0.00131226
0.0012347
0.00116147
0.00109229
0.00102699
0.000965345
0.000907179
0.000852295
0.000800532
0.000751717
0.000705698
0.000662322
0.00062145
0.000582947
0.000546683
0.000512539
0.000480397
0.000450149
0.00042169
0.000394921
0.000369749
0.000346084
0.000323843
0.000302945
0.000283315
0.00026488
0.000247573
0.000231329
0.000216087
0.00020179
0.000188382
0.000175812
0.000164031
0.000152992
0.000142652
0.00013297
0.000123906
0.000115423
0.000107487
0.000100064
9.31239e-05
8.66368e-05
8.05752e-05
7.49128e-05
6.96252e-05
6.46891e-05
6.00826e-05
5.57851e-05
5.17773e-05
4.80408e-05
4.45585e-05
4.13141e-05
3.82926e-05
3.54794e-05
3.28612e-05
3.04254e-05
2.816e-05
2.60538e-05
2.40965e-05
2.22781e-05
2.05894e-05
1.90217e-05
1.7567e-05
1.62175e-05
1.49662e-05
1.38064e-05
1.27319e-05
1.17366e-05
1.08153e-05
9.96261e-06
9.17389e-06
8.44461e-06
7.77057e-06
7.14786e-06
6.57281e-06
6.04201e-06
5.55228e-06
5.10063e-06
4.68429e-06
4.30069e-06
3.9474e-06
3.6222e-06
3.32299e-06
3.04783e-06
2.79492e-06
2.56257e-06
2.34922e-06
2.15342e-06
1.97384e-06
1.80921e-06
1.65838e-06
1.52028e-06
1.39391e-06
1.27835e-06
1.17276e-06
1.07633e-06
9.88344e-07
9.08132e-07
8.3507e-07
7.6859e-07
7.08164e-07
6.53311e-07
6.03585e-07
5.58582e-07
5.1793e-07
4.81289e-07
4.48351e-07
4.18837e-07
3.92493e-07
3.69097e-07
3.48437e-07
3.3036e-07
3.14652e-07
3.01327e-07
2.89932e-07
2.81069e-07
2.73412e-07
2.68971e-07
2.64631e-07
2.64632e-07
2.63425e-07
2.68129e-07
2.6988e-07
2.79829e-07
2.84396e-07
3.00339e-07
3.07619e-07
3.30454e-07
3.40327e-07
3.70806e-07
3.83183e-07
4.21406e-07
4.36238e-07
4.80835e-07
4.98087e-07
5.45913e-07
5.65129e-07
6.13057e-07
6.33449e-07
6.76432e-07
6.96496e-07
7.32794e-07
7.51334e-07
7.80779e-07
7.9703e-07
8.20297e-07
8.33923e-07
8.52046e-07
8.62979e-07
8.7709e-07
8.85373e-07
8.9657e-07
9.02181e-07
9.11549e-07
9.14097e-07
9.22803e-07
9.19859e-07
9.29189e-07
0.00188152
0.00177265
0.00167006
0.0015728
0.00148099
0.00139412
0.00131207
0.00123452
0.0011613
0.00109213
0.00102684
0.000965202
0.000907043
0.000852166
0.00080041
0.0007516
0.000705587
0.000662217
0.00062135
0.000582852
0.000546593
0.000512453
0.000480315
0.000450071
0.000421615
0.00039485
0.000369681
0.00034602
0.000323782
0.000302887
0.000283259
0.000264827
0.000247522
0.00023128
0.00021604
0.000201745
0.000188339
0.00017577
0.000163991
0.000152953
0.000142615
0.000132934
0.000123871
0.00011539
0.000107455
0.000100033
9.30938e-05
8.66077e-05
8.05469e-05
7.48854e-05
6.95985e-05
6.46631e-05
6.00573e-05
5.57605e-05
5.17533e-05
4.80173e-05
4.45355e-05
4.12917e-05
3.82706e-05
3.54578e-05
3.28401e-05
3.04046e-05
2.81395e-05
2.60337e-05
2.40767e-05
2.22585e-05
2.05701e-05
1.90027e-05
1.75482e-05
1.6199e-05
1.49479e-05
1.37883e-05
1.27139e-05
1.17188e-05
1.07976e-05
9.94508e-06
9.1565e-06
8.42734e-06
7.75342e-06
7.13081e-06
6.55586e-06
6.02515e-06
5.5355e-06
5.08393e-06
4.66767e-06
4.28413e-06
3.93091e-06
3.60576e-06
3.30661e-06
3.0315e-06
2.77863e-06
2.54632e-06
2.33301e-06
2.13726e-06
1.9577e-06
1.79311e-06
1.64231e-06
1.50423e-06
1.37789e-06
1.26235e-06
1.15678e-06
1.06037e-06
9.72401e-07
8.92204e-07
8.19158e-07
7.52691e-07
6.92278e-07
6.37435e-07
5.87721e-07
5.42727e-07
5.02083e-07
4.65451e-07
4.32521e-07
4.03014e-07
3.76676e-07
3.53286e-07
3.32632e-07
3.1456e-07
2.98857e-07
2.85536e-07
2.74147e-07
2.65287e-07
2.57634e-07
2.53198e-07
2.48861e-07
2.48867e-07
2.47663e-07
2.52371e-07
2.54128e-07
2.64079e-07
2.68652e-07
2.84599e-07
2.91885e-07
3.14723e-07
3.24603e-07
3.55086e-07
3.67469e-07
4.05696e-07
4.20534e-07
4.65133e-07
4.8239e-07
5.30211e-07
5.49435e-07
5.97365e-07
6.17753e-07
6.60737e-07
6.80794e-07
7.17091e-07
7.35623e-07
7.65067e-07
7.8131e-07
8.04576e-07
8.18196e-07
8.36316e-07
8.47244e-07
8.61353e-07
8.69632e-07
8.80827e-07
8.86435e-07
8.958e-07
8.98348e-07
9.07049e-07
9.04106e-07
9.13381e-07
0.00188126
0.0017724
0.00166982
0.00157258
0.00148077
0.00139391
0.00131188
0.00123434
0.00116113
0.00109196
0.00102668
0.00096505
0.000906899
0.000852028
0.000800279
0.000751475
0.000705468
0.000662103
0.000621242
0.000582748
0.000546494
0.000512358
0.000480225
0.000449985
0.000421533
0.000394771
0.000369606
0.000345947
0.000323712
0.00030282
0.000283195
0.000264765
0.000247463
0.000231223
0.000215985
0.000201692
0.000188288
0.000175721
0.000163943
0.000152907
0.000142571
0.000132891
0.000123829
0.000115349
0.000107415
9.99945e-05
9.30563e-05
8.65711e-05
8.05113e-05
7.48506e-05
6.95645e-05
6.46298e-05
6.00247e-05
5.57285e-05
5.17219e-05
4.79866e-05
4.45053e-05
4.1262e-05
3.82413e-05
3.5429e-05
3.28117e-05
3.03766e-05
2.81119e-05
2.60064e-05
2.40496e-05
2.22318e-05
2.05436e-05
1.89765e-05
1.75222e-05
1.61732e-05
1.49224e-05
1.37629e-05
1.26887e-05
1.16938e-05
1.07727e-05
9.92037e-06
9.13192e-06
8.40289e-06
7.72908e-06
7.10658e-06
6.53173e-06
6.00112e-06
5.51155e-06
5.06006e-06
4.64387e-06
4.2604e-06
3.90725e-06
3.58216e-06
3.28306e-06
3.008e-06
2.75518e-06
2.52291e-06
2.30964e-06
2.11392e-06
1.9344e-06
1.76984e-06
1.61907e-06
1.48102e-06
1.3547e-06
1.23919e-06
1.13363e-06
1.03724e-06
9.49292e-07
8.69111e-07
7.9608e-07
7.29627e-07
6.69226e-07
6.14396e-07
5.64692e-07
5.19708e-07
4.79074e-07
4.4245e-07
4.09527e-07
3.80027e-07
3.53697e-07
3.30313e-07
3.09664e-07
2.91597e-07
2.75899e-07
2.62584e-07
2.51199e-07
2.42344e-07
2.34694e-07
2.30262e-07
2.2593e-07
2.25939e-07
2.24739e-07
2.29451e-07
2.31212e-07
2.41167e-07
2.45745e-07
2.61695e-07
2.68988e-07
2.91829e-07
3.01716e-07
3.32202e-07
3.44592e-07
3.82824e-07
3.97666e-07
4.42273e-07
4.59529e-07
5.07364e-07
5.26578e-07
5.74515e-07
5.94895e-07
6.37882e-07
6.5793e-07
6.94228e-07
7.12752e-07
7.42193e-07
7.5843e-07
7.81693e-07
7.95307e-07
8.13425e-07
8.24348e-07
8.38454e-07
8.4673e-07
8.57923e-07
8.63528e-07
8.72891e-07
8.75437e-07
8.84134e-07
8.81199e-07
8.9043e-07
0.00188099
0.00177215
0.00166958
0.00157235
0.00148055
0.0013937
0.00131168
0.00123415
0.00116095
0.00109179
0.00102652
0.000964896
0.000906752
0.000851888
0.000800145
0.000751348
0.000705346
0.000661987
0.000621131
0.000582643
0.000546393
0.000512262
0.000480133
0.000449896
0.000421448
0.00039469
0.000369528
0.000345873
0.000323641
0.000302751
0.000283129
0.000264702
0.000247402
0.000231165
0.000215929
0.000201637
0.000188235
0.00017567
0.000163894
0.00015286
0.000142524
0.000132846
0.000123786
0.000115307
0.000107374
9.99546e-05
9.30175e-05
8.65332e-05
8.04742e-05
7.48144e-05
6.95291e-05
6.45952e-05
5.99908e-05
5.56953e-05
5.16893e-05
4.79545e-05
4.44738e-05
4.12309e-05
3.82107e-05
3.53989e-05
3.27819e-05
3.03472e-05
2.80829e-05
2.59777e-05
2.40213e-05
2.22038e-05
2.05159e-05
1.8949e-05
1.7495e-05
1.61462e-05
1.48955e-05
1.37363e-05
1.26623e-05
1.16675e-05
1.07466e-05
9.89441e-06
9.10609e-06
8.37718e-06
7.70349e-06
7.0811e-06
6.50636e-06
5.97584e-06
5.48636e-06
5.03495e-06
4.61883e-06
4.23543e-06
3.88234e-06
3.55731e-06
3.25827e-06
2.98326e-06
2.73049e-06
2.49826e-06
2.28504e-06
2.08935e-06
1.90987e-06
1.74533e-06
1.59459e-06
1.45657e-06
1.33028e-06
1.21479e-06
1.10925e-06
1.01288e-06
9.24952e-07
8.44788e-07
7.71772e-07
7.05333e-07
6.44945e-07
5.90126e-07
5.40433e-07
4.9546e-07
4.54834e-07
4.18219e-07
3.85304e-07
3.55811e-07
3.29488e-07
3.0611e-07
2.85467e-07
2.67405e-07
2.51712e-07
2.38402e-07
2.27021e-07
2.18171e-07
2.10525e-07
2.06097e-07
2.01768e-07
2.01782e-07
2.00586e-07
2.05301e-07
2.07067e-07
2.17026e-07
2.21609e-07
2.37563e-07
2.4486e-07
2.67706e-07
2.77599e-07
3.08089e-07
3.20486e-07
3.58722e-07
3.7357e-07
4.1818e-07
4.35441e-07
4.83271e-07
5.02494e-07
5.50433e-07
5.7081e-07
6.13798e-07
6.3384e-07
6.70137e-07
6.88653e-07
7.18093e-07
7.34322e-07
7.57584e-07
7.71191e-07
7.89307e-07
8.00224e-07
8.14328e-07
8.226e-07
8.3379e-07
8.39393e-07
8.48753e-07
8.51299e-07
8.59992e-07
8.57086e-07
8.66309e-07
0.00188072
0.00177189
0.00166934
0.00157212
0.00148034
0.0013935
0.00131149
0.00123397
0.00116077
0.00109163
0.00102636
0.000964744
0.000906608
0.000851751
0.000800015
0.000751224
0.000705228
0.000661875
0.000621024
0.000582541
0.000546296
0.000512169
0.000480044
0.000449812
0.000421368
0.000394613
0.000369455
0.000345803
0.000323574
0.000302687
0.000283067
0.000264643
0.000247345
0.00023111
0.000215877
0.000201587
0.000188187
0.000175624
0.000163849
0.000152817
0.000142483
0.000132806
0.000123747
0.000115269
0.000107337
9.9919e-05
9.29829e-05
8.64996e-05
8.04416e-05
7.47826e-05
6.94981e-05
6.4565e-05
5.99612e-05
5.56664e-05
5.1661e-05
4.79268e-05
4.44466e-05
4.12043e-05
3.81846e-05
3.53732e-05
3.27567e-05
3.03223e-05
2.80584e-05
2.59536e-05
2.39975e-05
2.21802e-05
2.04926e-05
1.8926e-05
1.74722e-05
1.61236e-05
1.48732e-05
1.37142e-05
1.26403e-05
1.16457e-05
1.0725e-05
9.87292e-06
9.08474e-06
8.35596e-06
7.68239e-06
7.06011e-06
6.48547e-06
5.95504e-06
5.46565e-06
5.01432e-06
4.59829e-06
4.21496e-06
3.86193e-06
3.53697e-06
3.23798e-06
2.96302e-06
2.71029e-06
2.47812e-06
2.26493e-06
2.06928e-06
1.88983e-06
1.72533e-06
1.57462e-06
1.43663e-06
1.31036e-06
1.19489e-06
1.08938e-06
9.9303e-07
9.05117e-07
8.2497e-07
7.51969e-07
6.85545e-07
6.2517e-07
5.70364e-07
5.20682e-07
4.75718e-07
4.35102e-07
3.98495e-07
3.65589e-07
3.36104e-07
3.09787e-07
2.86415e-07
2.65778e-07
2.47722e-07
2.32034e-07
2.18729e-07
2.07352e-07
1.98507e-07
1.90865e-07
1.86442e-07
1.82116e-07
1.82134e-07
1.80942e-07
1.85661e-07
1.87431e-07
1.97393e-07
2.01982e-07
2.17938e-07
2.25243e-07
2.48091e-07
2.57991e-07
2.88485e-07
3.00888e-07
3.3913e-07
3.53981e-07
3.98601e-07
4.15859e-07
4.63705e-07
4.82916e-07
5.30867e-07
5.51234e-07
5.94226e-07
6.14258e-07
6.50557e-07
6.69064e-07
6.98503e-07
7.14726e-07
7.37984e-07
7.51586e-07
7.69699e-07
7.80611e-07
7.94713e-07
8.0298e-07
8.14169e-07
8.19768e-07
8.29126e-07
8.31671e-07
8.40359e-07
8.37491e-07
8.46735e-07
0.00188046
0.00177165
0.00166911
0.0015719
0.00148013
0.0013933
0.0013113
0.00123379
0.0011606
0.00109146
0.00102621
0.000964598
0.000906469
0.000851619
0.00079989
0.000751105
0.000705116
0.000661768
0.000620923
0.000582444
0.000546204
0.000512082
0.000479962
0.000449733
0.000421293
0.000394542
0.000369387
0.000345738
0.000323512
0.000302628
0.000283012
0.000264589
0.000247294
0.000231062
0.00021583
0.000201543
0.000188144
0.000175583
0.00016381
0.000152779
0.000142447
0.000132771
0.000123714
0.000115237
0.000107307
9.98896e-05
9.29546e-05
8.64722e-05
8.04151e-05
7.4757e-05
6.94733e-05
6.45409e-05
5.99379e-05
5.56438e-05
5.1639e-05
4.79054e-05
4.44258e-05
4.11839e-05
3.81647e-05
3.53538e-05
3.27377e-05
3.03038e-05
2.80402e-05
2.59357e-05
2.39799e-05
2.2163e-05
2.04757e-05
1.89093e-05
1.74557e-05
1.61074e-05
1.48572e-05
1.36984e-05
1.26247e-05
1.16303e-05
1.07097e-05
9.85779e-06
9.06975e-06
8.3411e-06
7.66765e-06
7.04549e-06
6.47095e-06
5.94062e-06
5.45132e-06
5.00007e-06
4.58411e-06
4.20086e-06
3.8479e-06
3.52299e-06
3.22406e-06
2.94916e-06
2.69648e-06
2.46435e-06
2.2512e-06
2.05559e-06
1.87618e-06
1.71171e-06
1.56103e-06
1.42307e-06
1.29682e-06
1.18138e-06
1.07589e-06
9.79558e-07
8.91664e-07
8.11534e-07
7.38549e-07
6.72138e-07
6.11777e-07
5.56982e-07
5.07311e-07
4.62359e-07
4.21752e-07
3.85154e-07
3.52255e-07
3.22778e-07
2.96467e-07
2.73102e-07
2.52471e-07
2.34421e-07
2.18738e-07
2.05437e-07
1.94065e-07
1.85224e-07
1.77586e-07
1.73168e-07
1.68845e-07
1.68868e-07
1.67679e-07
1.72402e-07
1.74177e-07
1.84143e-07
1.88736e-07
2.04697e-07
2.12006e-07
2.34859e-07
2.44765e-07
2.75264e-07
2.87672e-07
3.25919e-07
3.40776e-07
3.85399e-07
4.02663e-07
4.50504e-07
4.69725e-07
5.17678e-07
5.38043e-07
5.81037e-07
6.01062e-07
6.3736e-07
6.5586e-07
6.85298e-07
7.01512e-07
7.24769e-07
7.38363e-07
7.56475e-07
7.67381e-07
7.81481e-07
7.89744e-07
8.0093e-07
8.06527e-07
8.15882e-07
8.18427e-07
8.27112e-07
8.24299e-07
8.3357e-07
0.00188021
0.0017714
0.00166888
0.00157168
0.00147992
0.0013931
0.00131111
0.00123361
0.00116043
0.0010913
0.00102606
0.000964456
0.000906334
0.000851492
0.000799769
0.000750991
0.000705008
0.000661666
0.000620826
0.000582352
0.000546118
0.000512
0.000479884
0.00044966
0.000421223
0.000394476
0.000369324
0.000345679
0.000323456
0.000302575
0.000282961
0.000264542
0.000247249
0.000231018
0.000215789
0.000201504
0.000188107
0.000175548
0.000163777
0.000152748
0.000142417
0.000132743
0.000123686
0.000115211
0.000107282
9.98658e-05
9.29318e-05
8.64504e-05
8.03942e-05
7.4737e-05
6.94542e-05
6.45225e-05
5.99203e-05
5.56268e-05
5.16226e-05
4.78896e-05
4.44106e-05
4.11693e-05
3.81505e-05
3.534e-05
3.27244e-05
3.02908e-05
2.80276e-05
2.59235e-05
2.39681e-05
2.21514e-05
2.04644e-05
1.88983e-05
1.7445e-05
1.60969e-05
1.48469e-05
1.36883e-05
1.26148e-05
1.16206e-05
1.07001e-05
9.84836e-06
9.06047e-06
8.33195e-06
7.65862e-06
7.03657e-06
6.46213e-06
5.9319e-06
5.44269e-06
4.99153e-06
4.57565e-06
4.19246e-06
3.83957e-06
3.51473e-06
3.21586e-06
2.94101e-06
2.68838e-06
2.45629e-06
2.24319e-06
2.04762e-06
1.86824e-06
1.70381e-06
1.55316e-06
1.41522e-06
1.289e-06
1.17359e-06
1.06811e-06
9.71806e-07
8.8393e-07
8.03818e-07
7.30849e-07
6.64454e-07
6.04106e-07
5.49324e-07
4.99665e-07
4.54723e-07
4.14126e-07
3.77537e-07
3.44647e-07
3.15177e-07
2.88874e-07
2.65516e-07
2.44891e-07
2.26846e-07
2.11168e-07
1.97873e-07
1.86505e-07
1.77669e-07
1.70034e-07
1.65621e-07
1.61302e-07
1.61329e-07
1.60143e-07
1.64871e-07
1.66648e-07
1.76619e-07
1.81216e-07
1.9718e-07
2.04496e-07
2.27351e-07
2.37264e-07
2.67767e-07
2.80181e-07
3.18436e-07
3.33294e-07
3.7793e-07
3.95189e-07
4.43052e-07
4.62257e-07
5.10224e-07
5.30578e-07
5.73577e-07
5.93593e-07
6.29892e-07
6.48383e-07
6.7782e-07
6.94027e-07
7.17281e-07
7.3087e-07
7.48978e-07
7.5988e-07
7.73977e-07
7.82235e-07
7.9342e-07
7.99013e-07
8.08366e-07
8.10909e-07
8.1959e-07
8.16841e-07
8.26128e-07
0.00187995
0.00177116
0.00166865
0.00157146
0.00147971
0.00139291
0.00131093
0.00123343
0.00116027
0.00109115
0.00102591
0.000964316
0.000906202
0.000851367
0.000799651
0.000750879
0.000704902
0.000661566
0.000620732
0.000582263
0.000546034
0.000511921
0.000479809
0.000449589
0.000421156
0.000394413
0.000369265
0.000345623
0.000323403
0.000302525
0.000282914
0.000264497
0.000247207
0.000230979
0.000215752
0.000201468
0.000188074
0.000175516
0.000163747
0.000152719
0.00014239
0.000132717
0.000123662
0.000115188
0.00010726
9.98454e-05
9.29125e-05
8.64322e-05
8.03769e-05
7.47206e-05
6.94386e-05
6.45077e-05
5.99062e-05
5.56133e-05
5.16099e-05
4.78775e-05
4.4399e-05
4.11582e-05
3.814e-05
3.53299e-05
3.27147e-05
3.02816e-05
2.80187e-05
2.5915e-05
2.39599e-05
2.21435e-05
2.04568e-05
1.88909e-05
1.74379e-05
1.60901e-05
1.48403e-05
1.36818e-05
1.26085e-05
1.16145e-05
1.06942e-05
9.84263e-06
9.05487e-06
8.32649e-06
7.65328e-06
7.03134e-06
6.45702e-06
5.92688e-06
5.43777e-06
4.98669e-06
4.57089e-06
4.18778e-06
3.83495e-06
3.51018e-06
3.21136e-06
2.93656e-06
2.68399e-06
2.45195e-06
2.23889e-06
2.04336e-06
1.86402e-06
1.69962e-06
1.549e-06
1.41109e-06
1.2849e-06
1.1695e-06
1.06406e-06
9.67768e-07
8.79912e-07
7.99817e-07
7.26864e-07
6.60483e-07
6.00149e-07
5.4538e-07
4.95732e-07
4.50801e-07
4.10214e-07
3.73634e-07
3.40752e-07
3.11289e-07
2.84993e-07
2.61641e-07
2.41022e-07
2.22983e-07
2.07311e-07
1.94021e-07
1.82657e-07
1.73826e-07
1.66195e-07
1.61787e-07
1.5747e-07
1.57502e-07
1.5632e-07
1.61052e-07
1.62834e-07
1.72807e-07
1.7741e-07
1.93378e-07
2.00697e-07
2.2356e-07
2.33476e-07
2.63985e-07
2.76404e-07
3.14664e-07
3.29529e-07
3.74168e-07
3.91434e-07
4.39289e-07
4.58508e-07
5.06476e-07
5.26829e-07
5.6983e-07
5.8984e-07
6.26139e-07
6.44622e-07
6.74058e-07
6.90256e-07
7.1351e-07
7.2709e-07
7.45197e-07
7.56093e-07
7.70187e-07
7.78442e-07
7.89623e-07
7.95214e-07
8.04564e-07
8.07108e-07
8.15785e-07
8.13097e-07
8.22385e-07
0.00187969
0.00177092
0.00166842
0.00157124
0.00147951
0.00139271
0.00131074
0.00123326
0.0011601
0.00109099
0.00102576
0.000964177
0.000906071
0.000851243
0.000799534
0.000750769
0.000704798
0.000661467
0.000620639
0.000582176
0.000545951
0.000511843
0.000479735
0.000449519
0.000421091
0.000394351
0.000369207
0.000345568
0.000323351
0.000302477
0.000282868
0.000264454
0.000247166
0.00023094
0.000215716
0.000201434
0.000188042
0.000175486
0.000163719
0.000152693
0.000142365
0.000132694
0.00012364
0.000115168
0.000107241
9.9827e-05
9.28952e-05
8.64159e-05
8.03616e-05
7.47061e-05
6.94249e-05
6.44949e-05
5.98941e-05
5.5602e-05
5.15991e-05
4.78673e-05
4.43894e-05
4.11492e-05
3.81314e-05
3.53219e-05
3.27071e-05
3.02744e-05
2.80119e-05
2.59085e-05
2.39537e-05
2.21377e-05
2.04513e-05
1.88857e-05
1.74329e-05
1.60853e-05
1.48357e-05
1.36775e-05
1.26044e-05
1.16106e-05
1.06905e-05
9.83901e-06
9.0514e-06
8.32315e-06
7.65007e-06
7.02825e-06
6.45403e-06
5.924e-06
5.43497e-06
4.98398e-06
4.56826e-06
4.18523e-06
3.83247e-06
3.50776e-06
3.209e-06
2.93426e-06
2.68173e-06
2.44974e-06
2.23672e-06
2.04123e-06
1.86193e-06
1.69756e-06
1.54698e-06
1.4091e-06
1.28293e-06
1.16756e-06
1.06214e-06
9.65873e-07
8.78036e-07
7.97959e-07
7.25023e-07
6.58658e-07
5.98338e-07
5.43581e-07
4.93946e-07
4.49025e-07
4.08448e-07
3.71877e-07
3.39004e-07
3.0955e-07
2.83261e-07
2.59916e-07
2.39303e-07
2.2127e-07
2.05603e-07
1.92318e-07
1.80958e-07
1.72133e-07
1.64505e-07
1.60102e-07
1.55788e-07
1.55825e-07
1.54646e-07
1.59382e-07
1.61167e-07
1.71145e-07
1.75752e-07
1.91723e-07
1.99049e-07
2.21913e-07
2.31837e-07
2.62349e-07
2.74775e-07
3.13042e-07
3.27909e-07
3.72561e-07
3.89823e-07
4.37699e-07
4.56905e-07
5.04885e-07
5.25229e-07
5.68235e-07
5.88236e-07
6.24536e-07
6.43011e-07
6.72445e-07
6.88637e-07
7.11886e-07
7.25462e-07
7.43565e-07
7.54456e-07
7.68548e-07
7.76798e-07
7.87977e-07
7.93565e-07
8.02912e-07
8.05455e-07
8.14128e-07
8.11499e-07
8.20782e-07
0.00187943
0.00177067
0.00166818
0.00157102
0.0014793
0.00139252
0.00131056
0.00123308
0.00115994
0.00109084
0.00102561
0.000964038
0.000905939
0.000851119
0.000799416
0.000750658
0.000704693
0.000661369
0.000620546
0.000582088
0.000545868
0.000511765
0.000479662
0.00044945
0.000421026
0.00039429
0.000369149
0.000345514
0.0003233
0.000302428
0.000282823
0.000264411
0.000247126
0.000230903
0.000215681
0.000201401
0.000188011
0.000175457
0.000163691
0.000152667
0.000142341
0.000132671
0.000123619
0.000115148
0.000107222
9.98094e-05
9.28786e-05
8.64004e-05
8.0347e-05
7.46925e-05
6.94122e-05
6.44829e-05
5.98828e-05
5.55914e-05
5.15892e-05
4.78581e-05
4.43807e-05
4.1141e-05
3.81238e-05
3.53147e-05
3.27004e-05
3.02681e-05
2.8006e-05
2.5903e-05
2.39485e-05
2.21328e-05
2.04467e-05
1.88814e-05
1.74289e-05
1.60815e-05
1.48322e-05
1.36741e-05
1.26012e-05
1.16076e-05
1.06876e-05
9.83634e-06
9.04887e-06
8.32076e-06
7.64781e-06
7.02611e-06
6.452e-06
5.92207e-06
5.43314e-06
4.98224e-06
4.5666e-06
4.18363e-06
3.83095e-06
3.5063e-06
3.2076e-06
2.93292e-06
2.68044e-06
2.4485e-06
2.23552e-06
2.04008e-06
1.86081e-06
1.69648e-06
1.54592e-06
1.40807e-06
1.28194e-06
1.16659e-06
1.06119e-06
9.64946e-07
8.77128e-07
7.9707e-07
7.2415e-07
6.578e-07
5.97494e-07
5.4275e-07
4.93126e-07
4.48216e-07
4.0765e-07
3.71088e-07
3.38223e-07
3.08776e-07
2.82495e-07
2.59156e-07
2.3855e-07
2.20523e-07
2.0486e-07
1.91581e-07
1.80225e-07
1.71405e-07
1.63781e-07
1.59383e-07
1.55072e-07
1.55114e-07
1.53938e-07
1.58678e-07
1.60468e-07
1.70449e-07
1.75061e-07
1.91036e-07
1.98367e-07
2.21235e-07
2.31164e-07
2.61682e-07
2.74113e-07
3.12385e-07
3.27258e-07
3.71915e-07
3.89182e-07
4.37055e-07
4.5627e-07
5.04257e-07
5.24598e-07
5.67606e-07
5.87601e-07
6.23901e-07
6.42369e-07
6.71801e-07
6.87985e-07
7.11233e-07
7.24801e-07
7.42902e-07
7.53787e-07
7.67876e-07
7.76122e-07
7.87298e-07
7.92884e-07
8.02229e-07
8.04773e-07
8.13442e-07
8.10878e-07
8.20166e-07
0.00187917
0.00177043
0.00166795
0.0015708
0.00147909
0.00139232
0.00131037
0.00123291
0.00115977
0.00109068
0.00102546
0.000963897
0.000905806
0.000850993
0.000799298
0.000750546
0.000704588
0.00066127
0.000620452
0.000582
0.000545785
0.000511686
0.000479588
0.000449381
0.00042096
0.000394228
0.000369091
0.000345459
0.000323249
0.00030238
0.000282777
0.000264369
0.000247086
0.000230865
0.000215645
0.000201368
0.00018798
0.000175428
0.000163664
0.000152641
0.000142317
0.000132648
0.000123598
0.000115128
0.000107204
9.9792e-05
9.28623e-05
8.63851e-05
8.03327e-05
7.46791e-05
6.93997e-05
6.44712e-05
5.98719e-05
5.55812e-05
5.15797e-05
4.78491e-05
4.43724e-05
4.11332e-05
3.81165e-05
3.53079e-05
3.2694e-05
3.02622e-05
2.80005e-05
2.58978e-05
2.39437e-05
2.21284e-05
2.04425e-05
1.88775e-05
1.74252e-05
1.60781e-05
1.4829e-05
1.36712e-05
1.25985e-05
1.1605e-05
1.06852e-05
9.83409e-06
9.04678e-06
8.3188e-06
7.64598e-06
7.0244e-06
6.4504e-06
5.92057e-06
5.43174e-06
4.98093e-06
4.56537e-06
4.18249e-06
3.82987e-06
3.50529e-06
3.20665e-06
2.93202e-06
2.6796e-06
2.4477e-06
2.23478e-06
2.03937e-06
1.86014e-06
1.69585e-06
1.54532e-06
1.4075e-06
1.28139e-06
1.16608e-06
1.0607e-06
9.64474e-07
8.76677e-07
7.96637e-07
7.23734e-07
6.574e-07
5.97108e-07
5.42378e-07
4.92767e-07
4.47868e-07
4.07312e-07
3.7076e-07
3.37904e-07
3.08465e-07
2.82191e-07
2.5886e-07
2.3826e-07
2.20238e-07
2.04582e-07
1.91308e-07
1.79956e-07
1.71142e-07
1.63521e-07
1.59128e-07
1.5482e-07
1.54866e-07
1.53694e-07
1.58438e-07
1.60231e-07
1.70216e-07
1.74832e-07
1.9081e-07
1.98147e-07
2.21018e-07
2.30954e-07
2.61476e-07
2.73913e-07
3.12193e-07
3.27068e-07
3.71737e-07
3.89002e-07
4.36894e-07
4.56099e-07
5.04097e-07
5.24431e-07
5.67444e-07
5.8743e-07
6.23731e-07
6.4219e-07
6.71621e-07
6.87798e-07
7.11042e-07
7.24605e-07
7.42703e-07
7.53583e-07
7.67669e-07
7.7591e-07
7.87085e-07
7.92667e-07
8.02008e-07
8.04551e-07
8.13217e-07
8.10705e-07
8.20039e-07
0.00187891
0.00177018
0.00166771
0.00157058
0.00147888
0.00139212
0.00131018
0.00123273
0.0011596
0.00109052
0.00102531
0.000963755
0.000905672
0.000850867
0.000799179
0.000750434
0.000704482
0.000661169
0.000620358
0.000581911
0.000545701
0.000511607
0.000479514
0.000449311
0.000420895
0.000394166
0.000369033
0.000345404
0.000323197
0.000302332
0.000282732
0.000264326
0.000247046
0.000230827
0.00021561
0.000201335
0.000187948
0.000175398
0.000163636
0.000152615
0.000142292
0.000132626
0.000123577
0.000115108
0.000107185
9.97746e-05
9.2846e-05
8.63699e-05
8.03185e-05
7.46658e-05
6.93872e-05
6.44596e-05
5.9861e-05
5.5571e-05
5.15702e-05
4.78403e-05
4.43641e-05
4.11255e-05
3.81093e-05
3.53012e-05
3.26878e-05
3.02563e-05
2.79951e-05
2.58928e-05
2.3939e-05
2.2124e-05
2.04384e-05
1.88737e-05
1.74217e-05
1.60748e-05
1.48259e-05
1.36683e-05
1.25958e-05
1.16025e-05
1.0683e-05
9.83198e-06
9.04481e-06
8.31698e-06
7.64429e-06
7.02282e-06
6.44894e-06
5.91922e-06
5.43048e-06
4.97976e-06
4.56429e-06
4.18148e-06
3.82894e-06
3.50442e-06
3.20585e-06
2.93128e-06
2.6789e-06
2.44706e-06
2.23417e-06
2.03881e-06
1.85962e-06
1.69536e-06
1.54487e-06
1.40708e-06
1.281e-06
1.16571e-06
1.06035e-06
9.64149e-07
8.76372e-07
7.9635e-07
7.23465e-07
6.57146e-07
5.96869e-07
5.42152e-07
4.92552e-07
4.47665e-07
4.07119e-07
3.70576e-07
3.37728e-07
3.08298e-07
2.82031e-07
2.58707e-07
2.38113e-07
2.20097e-07
2.04446e-07
1.91178e-07
1.79831e-07
1.71021e-07
1.63403e-07
1.59016e-07
1.54711e-07
1.54762e-07
1.53593e-07
1.58341e-07
1.60139e-07
1.70126e-07
1.74748e-07
1.9073e-07
1.98072e-07
2.20946e-07
2.30888e-07
2.61415e-07
2.73858e-07
3.12143e-07
3.27024e-07
3.717e-07
3.88968e-07
4.3686e-07
4.56071e-07
5.04079e-07
5.24408e-07
5.67426e-07
5.87405e-07
6.23707e-07
6.42159e-07
6.71588e-07
6.87757e-07
7.11e-07
7.24555e-07
7.4265e-07
7.53524e-07
7.67607e-07
7.75844e-07
7.87015e-07
7.92595e-07
8.01934e-07
8.04479e-07
8.13141e-07
8.10691e-07
8.20078e-07
0.00187851
0.0017698
0.00166736
0.00157024
0.00147856
0.00139182
0.00130989
0.00123246
0.00115935
0.00109028
0.00102509
0.00096354
0.000905469
0.000850675
0.000798998
0.000750263
0.000704321
0.000661018
0.000620215
0.000581776
0.000545574
0.000511488
0.000479401
0.000449205
0.000420795
0.000394072
0.000368944
0.000345321
0.000323119
0.000302258
0.000282663
0.000264261
0.000246985
0.00023077
0.000215556
0.000201284
0.000187901
0.000175354
0.000163594
0.000152576
0.000142256
0.000132591
0.000123544
0.000115078
0.000107157
9.97482e-05
9.28213e-05
8.63468e-05
8.02969e-05
7.46456e-05
6.93683e-05
6.44419e-05
5.98446e-05
5.55557e-05
5.15559e-05
4.78269e-05
4.43516e-05
4.11139e-05
3.80985e-05
3.52911e-05
3.26784e-05
3.02476e-05
2.79869e-05
2.58852e-05
2.3932e-05
2.21174e-05
2.04323e-05
1.8868e-05
1.74164e-05
1.60699e-05
1.48214e-05
1.36641e-05
1.25919e-05
1.15989e-05
1.06796e-05
9.82886e-06
9.04192e-06
8.3143e-06
7.64181e-06
7.02053e-06
6.44682e-06
5.91726e-06
5.42867e-06
4.97808e-06
4.56274e-06
4.18005e-06
3.82762e-06
3.5032e-06
3.20472e-06
2.93024e-06
2.67795e-06
2.44617e-06
2.23336e-06
2.03806e-06
1.85893e-06
1.69472e-06
1.54428e-06
1.40654e-06
1.2805e-06
1.16525e-06
1.05993e-06
9.63763e-07
8.76017e-07
7.96023e-07
7.23164e-07
6.56869e-07
5.96614e-07
5.41918e-07
4.92337e-07
4.47467e-07
4.06937e-07
3.70409e-07
3.37576e-07
3.08158e-07
2.81902e-07
2.58588e-07
2.38004e-07
2.19998e-07
2.04355e-07
1.91095e-07
1.79755e-07
1.70953e-07
1.63341e-07
1.58961e-07
1.5466e-07
1.54718e-07
1.53554e-07
1.58309e-07
1.60111e-07
1.70104e-07
1.74732e-07
1.90718e-07
1.98069e-07
2.20948e-07
2.30899e-07
2.61433e-07
2.73884e-07
3.12182e-07
3.27066e-07
3.71761e-07
3.89027e-07
4.36945e-07
4.56146e-07
5.0417e-07
5.24489e-07
5.67514e-07
5.87481e-07
6.23784e-07
6.42224e-07
6.71651e-07
6.8781e-07
7.11047e-07
7.24594e-07
7.42683e-07
7.5355e-07
7.67628e-07
7.75859e-07
7.87026e-07
7.92601e-07
8.01935e-07
8.04479e-07
8.13135e-07
8.10759e-07
8.20183e-07
0.00187797
0.00176929
0.00166687
0.00156978