/*--------------------------------*- C++ -*----------------------------------*\
| =========                 |                                                 |
| \\      /  F ield         | OpenFOAM: The Open Source CFD Toolbox           |
|  \\    /   O peration     | Version:  v1912                                 |
|   \\  /    A nd           | Website:  www.openfoam.com                      |
|    \\/     M anipulation  |                                                 |
\*---------------------------------------------------------------------------*/
FoamFile
{
    version     2.0;
    format      ascii;
    class       volVectorField;
    location    "30";
    object      U;
}
// * * * * * * * * * * * * * * * * * * * * * * * * * * * * * * * * * * * * * //

dimensions      [0 1 -1 0 0 0 0];


internalField   nonuniform List<vector> 
14268
(
(0.120953 0.0121415 0)
(0.116618 0.0117061 0)
(0.112451 0.0112877 0)
(0.108444 0.0108853 0)
(0.104588 0.0104982 0)
(0.100877 0.0101256 0)
(0.0973033 0.00976686 0)
(0.0938608 0.00942126 0)
(0.0905435 0.00908824 0)
(0.0873458 0.00876725 0)
(0.0842626 0.00845776 0)
(0.081289 0.00815928 0)
(0.0784205 0.00787135 0)
(0.0756527 0.00759354 0)
(0.0729817 0.00732544 0)
(0.0704035 0.00706667 0)
(0.0679147 0.00681687 0)
(0.0655117 0.0065757 0)
(0.0631914 0.00634283 0)
(0.0609508 0.00611794 0)
(0.0587868 0.00590076 0)
(0.0566967 0.005691 0)
(0.054678 0.00548839 0)
(0.0527279 0.00529269 0)
(0.0508443 0.00510364 0)
(0.0490247 0.00492103 0)
(0.0472669 0.00474462 0)
(0.0455689 0.00457421 0)
(0.0439287 0.00440959 0)
(0.0423441 0.00425057 0)
(0.0408135 0.00409696 0)
(0.039335 0.00394857 0)
(0.0379069 0.00380525 0)
(0.0365275 0.00366681 0)
(0.0351952 0.0035331 0)
(0.0339085 0.00340396 0)
(0.0326659 0.00327925 0)
(0.0314658 0.00315881 0)
(0.0303071 0.00304251 0)
(0.0291882 0.00293022 0)
(0.0281079 0.00282179 0)
(0.027065 0.00271712 0)
(0.0260582 0.00261607 0)
(0.0250863 0.00251853 0)
(0.0241482 0.00242437 0)
(0.0232429 0.00233351 0)
(0.0223693 0.00224582 0)
(0.0215262 0.0021612 0)
(0.0207128 0.00207956 0)
(0.019928 0.00200079 0)
(0.0191709 0.00192479 0)
(0.0184406 0.00185149 0)
(0.0177362 0.00178079 0)
(0.0170569 0.00171261 0)
(0.0164019 0.00164685 0)
(0.0157703 0.00158345 0)
(0.0151613 0.00152232 0)
(0.0145742 0.0014634 0)
(0.0140084 0.00140659 0)
(0.013463 0.00135185 0)
(0.0129374 0.00129908 0)
(0.0124309 0.00124824 0)
(0.0119429 0.00119925 0)
(0.0114727 0.00115205 0)
(0.0110198 0.00110659 0)
(0.0105836 0.0010628 0)
(0.0101635 0.00102062 0)
(0.0097589 0.000980003 0)
(0.00936934 0.000940894 0)
(0.00899429 0.000903241 0)
(0.00863324 0.000866994 0)
(0.00828572 0.000832104 0)
(0.00795125 0.000798524 0)
(0.00762938 0.000766209 0)
(0.00731967 0.000735114 0)
(0.0070217 0.000705197 0)
(0.00673505 0.000676418 0)
(0.00645933 0.000648734 0)
(0.00619416 0.00062211 0)
(0.00593914 0.000596505 0)
(0.00569395 0.000571886 0)
(0.0054582 0.000548215 0)
(0.00523159 0.00052546 0)
(0.00501376 0.000503588 0)
(0.00480442 0.000482568 0)
(0.00460324 0.000462367 0)
(0.00440995 0.000442958 0)
(0.00422424 0.00042431 0)
(0.00404586 0.000406397 0)
(0.00387452 0.000389191 0)
(0.00370997 0.000372667 0)
(0.00355197 0.000356801 0)
(0.00340026 0.000341565 0)
(0.00325463 0.000326941 0)
(0.00311482 0.0003129 0)
(0.00298067 0.000299428 0)
(0.0028519 0.000286496 0)
(0.00272837 0.00027409 0)
(0.00260984 0.000262186 0)
(0.00249614 0.000250767 0)
(0.0023871 0.000239816 0)
(0.00228249 0.00022931 0)
(0.00218224 0.000219241 0)
(0.00208606 0.000209581 0)
(0.00199392 0.000200326 0)
(0.00190555 0.00019145 0)
(0.0018209 0.000182948 0)
(0.00173977 0.000174798 0)
(0.00166201 0.000166989 0)
(0.00158758 0.000159511 0)
(0.0015162 0.000152342 0)
(0.00144793 0.000145484 0)
(0.00138246 0.000138909 0)
(0.00131987 0.000132619 0)
(0.00125987 0.000126594 0)
(0.0012025 0.000120828 0)
(0.00114755 0.000115311 0)
(0.00109499 0.000110028 0)
(0.0010447 0.000104979 0)
(0.000996575 0.000100142 0)
(0.000950579 9.55235e-05 0)
(0.000906545 9.1098e-05 0)
(0.000864495 8.68744e-05 0)
(0.000824229 8.28288e-05 0)
(0.000785807 7.89681e-05 0)
(0.00074901 7.52726e-05 0)
(0.000713923 7.17451e-05 0)
(0.000680321 6.8372e-05 0)
(0.000648292 6.515e-05 0)
(0.000617629 6.20733e-05 0)
(0.000588399 5.91313e-05 0)
(0.000560434 5.63264e-05 0)
(0.000533777 5.36424e-05 0)
(0.000508298 5.10877e-05 0)
(0.000484003 4.8641e-05 0)
(0.000460809 4.63156e-05 0)
(0.000438671 4.40865e-05 0)
(0.000417575 4.19707e-05 0)
(0.000397416 3.99417e-05 0)
(0.000378236 3.80168e-05 0)
(0.000359897 3.61725e-05 0)
(0.000342462 3.44212e-05 0)
(0.000325798 3.27466e-05 0)
(0.000309953 3.11538e-05 0)
(0.000294821 2.9634e-05 0)
(0.000280428 2.81864e-05 0)
(0.000266683 2.68062e-05 0)
(0.000253609 2.54915e-05 0)
(0.000241056 2.42306e-05 0)
(0.000229307 2.30468e-05 0)
(0.120781 0.0122153 0)
(0.116452 0.0117771 0)
(0.112291 0.0113559 0)
(0.108289 0.0109509 0)
(0.104439 0.0105613 0)
(0.100733 0.0101864 0)
(0.0971645 0.00982534 0)
(0.0937268 0.0094776 0)
(0.0904141 0.00914254 0)
(0.0872209 0.0088196 0)
(0.084142 0.00850824 0)
(0.0811726 0.00820798 0)
(0.078308 0.00791834 0)
(0.0755441 0.00763889 0)
(0.0728768 0.00736922 0)
(0.0703023 0.00710894 0)
(0.0678169 0.00685769 0)
(0.0654173 0.00661512 0)
(0.0631003 0.0063809 0)
(0.0608628 0.00615473 0)
(0.0587018 0.0059363 0)
(0.0566147 0.00572533 0)
(0.0545988 0.00552157 0)
(0.0526515 0.00532475 0)
(0.0507705 0.00513462 0)
(0.0489534 0.00495097 0)
(0.0471982 0.00477355 0)
(0.0455026 0.00460217 0)
(0.0438646 0.00443661 0)
(0.0422823 0.00427668 0)
(0.0407539 0.0041222 0)
(0.0392775 0.00397296 0)
(0.0378514 0.00382882 0)
(0.036474 0.00368959 0)
(0.0351436 0.00355511 0)
(0.0338587 0.00342523 0)
(0.0326178 0.00329979 0)
(0.0314195 0.00317866 0)
(0.0302624 0.00306169 0)
(0.0291451 0.00294874 0)
(0.0280664 0.00283969 0)
(0.027025 0.00273441 0)
(0.0260196 0.00263277 0)
(0.0250492 0.00253465 0)
(0.0241124 0.00243995 0)
(0.0232084 0.00234854 0)
(0.022336 0.00226034 0)
(0.0214942 0.00217522 0)
(0.020682 0.00209309 0)
(0.0198983 0.00201385 0)
(0.0191423 0.0019374 0)
(0.0184131 0.00186366 0)
(0.0177097 0.00179253 0)
(0.0170314 0.00172393 0)
(0.0163773 0.00165778 0)
(0.0157466 0.001594 0)
(0.0151386 0.0015325 0)
(0.0145524 0.00147321 0)
(0.0139873 0.00141605 0)
(0.0134427 0.00136097 0)
(0.0129179 0.00130788 0)
(0.0124121 0.00125672 0)
(0.0119249 0.00120743 0)
(0.0114554 0.00115993 0)
(0.0110032 0.00111418 0)
(0.0105676 0.00107012 0)
(0.0101481 0.00102767 0)
(0.00974409 0.000986799 0)
(0.00935511 0.000947441 0)
(0.00898061 0.000909548 0)
(0.0086201 0.000873068 0)
(0.00827309 0.000837954 0)
(0.00793912 0.000804157 0)
(0.00761772 0.000771632 0)
(0.00730847 0.000740335 0)
(0.00701095 0.000710224 0)
(0.00672472 0.000681255 0)
(0.00644941 0.00065339 0)
(0.00618463 0.000626589 0)
(0.00593 0.000600815 0)
(0.00568517 0.000576032 0)
(0.00544978 0.000552203 0)
(0.0052235 0.000529297 0)
(0.005006 0.000507277 0)
(0.00479697 0.000486115 0)
(0.00459609 0.000465777 0)
(0.00440309 0.000446236 0)
(0.00421766 0.000427461 0)
(0.00403955 0.000409426 0)
(0.00386846 0.000392102 0)
(0.00370416 0.000375464 0)
(0.0035464 0.000359487 0)
(0.00339491 0.000344146 0)
(0.00324951 0.00032942 0)
(0.0031099 0.000315281 0)
(0.00297596 0.000301714 0)
(0.00284738 0.00028869 0)
(0.00272404 0.000276196 0)
(0.00260568 0.000264208 0)
(0.00249215 0.000252707 0)
(0.00238328 0.000241677 0)
(0.00227883 0.000231096 0)
(0.00217873 0.000220954 0)
(0.0020827 0.000211224 0)
(0.0019907 0.000201903 0)
(0.00190246 0.000192962 0)
(0.00181793 0.000184397 0)
(0.00173693 0.000176187 0)
(0.00165928 0.00016832 0)
(0.00158497 0.000160787 0)
(0.00151369 0.000153566 0)
(0.00144553 0.000146654 0)
(0.00138016 0.000140032 0)
(0.00131766 0.000133693 0)
(0.00125775 0.000127625 0)
(0.00120047 0.000121812 0)
(0.0011456 0.000116256 0)
(0.00109312 0.000110929 0)
(0.00104291 0.000105844 0)
(0.000994862 0.000100967 0)
(0.000948936 9.63149e-05 0)
(0.000904969 9.18535e-05 0)
(0.000862983 8.75976e-05 0)
(0.000822778 8.35204e-05 0)
(0.000784415 7.96281e-05 0)
(0.000747674 7.59054e-05 0)
(0.000712641 7.23468e-05 0)
(0.00067909 6.89507e-05 0)
(0.00064711 6.56983e-05 0)
(0.000616494 6.26022e-05 0)
(0.000587309 5.96309e-05 0)
(0.000559387 5.68092e-05 0)
(0.000532771 5.40975e-05 0)
(0.000507331 5.15275e-05 0)
(0.000483073 4.90555e-05 0)
(0.000459914 4.67153e-05 0)
(0.00043781 4.44639e-05 0)
(0.000416747 4.23332e-05 0)
(0.000396618 4.02853e-05 0)
(0.000377468 3.83451e-05 0)
(0.000359158 3.6485e-05 0)
(0.000341749 3.47181e-05 0)
(0.000325111 3.30304e-05 0)
(0.000309291 3.14224e-05 0)
(0.000294182 2.98912e-05 0)
(0.000279811 2.84295e-05 0)
(0.000266087 2.70391e-05 0)
(0.000253033 2.57123e-05 0)
(0.0002405 2.44411e-05 0)
(0.000228769 2.3242e-05 0)
(0.120677 0.0122968 0)
(0.116352 0.0118553 0)
(0.112194 0.011431 0)
(0.108196 0.0110232 0)
(0.10435 0.0106308 0)
(0.100647 0.0102533 0)
(0.0970814 0.00988976 0)
(0.0936467 0.00953966 0)
(0.090337 0.00920234 0)
(0.0871466 0.00887724 0)
(0.0840704 0.00856382 0)
(0.0811036 0.00826158 0)
(0.0782415 0.00797004 0)
(0.07548 0.00768878 0)
(0.072815 0.00741737 0)
(0.0702427 0.00715541 0)
(0.0677594 0.00690255 0)
(0.0653619 0.00665844 0)
(0.0630468 0.00642273 0)
(0.0608112 0.00619512 0)
(0.0586521 0.00597531 0)
(0.0565668 0.00576302 0)
(0.0545525 0.00555797 0)
(0.0526069 0.00535991 0)
(0.0507275 0.00516859 0)
(0.048912 0.00498378 0)
(0.0471582 0.00480525 0)
(0.045464 0.0046328 0)
(0.0438274 0.0044662 0)
(0.0422465 0.00430527 0)
(0.0407193 0.00414981 0)
(0.0392442 0.00399964 0)
(0.0378193 0.00385458 0)
(0.036443 0.00371447 0)
(0.0351137 0.00357915 0)
(0.0338299 0.00344845 0)
(0.0325901 0.00332222 0)
(0.0313928 0.00320032 0)
(0.0302366 0.0030826 0)
(0.0291203 0.00296894 0)
(0.0280425 0.00285919 0)
(0.0270019 0.00275323 0)
(0.0259974 0.00265094 0)
(0.0250277 0.00255219 0)
(0.0240918 0.00245688 0)
(0.0231885 0.00236488 0)
(0.0223168 0.00227611 0)
(0.0214757 0.00219044 0)
(0.0206641 0.00210777 0)
(0.0198811 0.00202801 0)
(0.0191258 0.00195107 0)
(0.0183972 0.00187684 0)
(0.0176944 0.00180524 0)
(0.0170167 0.00173619 0)
(0.0163631 0.0016696 0)
(0.0157329 0.00160539 0)
(0.0151254 0.00154348 0)
(0.0145396 0.0014838 0)
(0.0139751 0.00142626 0)
(0.0134309 0.00137081 0)
(0.0129065 0.00131736 0)
(0.0124012 0.00126586 0)
(0.0119143 0.00121623 0)
(0.0114453 0.00116841 0)
(0.0109934 0.00112235 0)
(0.0105582 0.00107798 0)
(0.010139 0.00103524 0)
(0.00973539 0.000994088 0)
(0.00934673 0.000954459 0)
(0.00897255 0.000916303 0)
(0.00861233 0.00087957 0)
(0.00826561 0.00084421 0)
(0.00793192 0.000810177 0)
(0.00761079 0.000777423 0)
(0.0073018 0.000745906 0)
(0.00700452 0.000715581 0)
(0.00671854 0.000686407 0)
(0.00644346 0.000658344 0)
(0.0061789 0.000631352 0)
(0.00592448 0.000605393 0)
(0.00567986 0.000580432 0)
(0.00544466 0.000556432 0)
(0.00521858 0.00053336 0)
(0.00500125 0.000511181 0)
(0.0047924 0.000489865 0)
(0.00459169 0.000469378 0)
(0.00439885 0.000449695 0)
(0.00421358 0.000430781 0)
(0.00403561 0.000412613 0)
(0.00386468 0.000395161 0)
(0.00370051 0.0003784 0)
(0.00354288 0.000362304 0)
(0.00339152 0.000346849 0)
(0.00324624 0.000332012 0)
(0.00310675 0.000317767 0)
(0.00297292 0.000304098 0)
(0.00284445 0.000290976 0)
(0.00272121 0.000278387 0)
(0.00260296 0.000266307 0)
(0.00248953 0.000254719 0)
(0.00238074 0.000243605 0)
(0.00227639 0.000232942 0)
(0.00217637 0.000222722 0)
(0.00208042 0.000212917 0)
(0.00198849 0.000203523 0)
(0.00190033 0.000194512 0)
(0.00181588 0.00018588 0)
(0.00173494 0.000177606 0)
(0.00165736 0.000169678 0)
(0.00158311 0.000162085 0)
(0.0015119 0.000154807 0)
(0.0014438 0.000147841 0)
(0.00137848 0.000141165 0)
(0.00131603 0.000134776 0)
(0.00125617 0.000128659 0)
(0.00119894 0.0001228 0)
(0.00114412 0.000117199 0)
(0.00109169 0.00011183 0)
(0.00104152 0.000106703 0)
(0.000993508 0.000101786 0)
(0.000947621 9.70953e-05 0)
(0.000903692 9.2598e-05 0)
(0.000861742 8.83064e-05 0)
(0.000821572 8.41963e-05 0)
(0.000783242 8.02709e-05 0)
(0.000746532 7.6518e-05 0)
(0.000711529 7.29288e-05 0)
(0.000678007 6.95052e-05 0)
(0.000646055 6.62248e-05 0)
(0.000615465 6.31036e-05 0)
(0.000586305 6.01067e-05 0)
(0.000558407 5.72615e-05 0)
(0.000531814 5.45268e-05 0)
(0.000506396 5.19343e-05 0)
(0.000482159 4.94422e-05 0)
(0.00045902 4.70803e-05 0)
(0.000436936 4.48114e-05 0)
(0.000415891 4.266e-05 0)
(0.000395779 4.05967e-05 0)
(0.000376646 3.8637e-05 0)
(0.000358351 3.6763e-05 0)
(0.000340958 3.49784e-05 0)
(0.000324334 3.32776e-05 0)
(0.000308528 3.16538e-05 0)
(0.000293432 3.01103e-05 0)
(0.000279074 2.8635e-05 0)
(0.000265361 2.7233e-05 0)
(0.000252319 2.58946e-05 0)
(0.000239797 2.46118e-05 0)
(0.000228076 2.3398e-05 0)
(0.120613 0.0123815 0)
(0.116291 0.0119367 0)
(0.112136 0.0115093 0)
(0.10814 0.0110985 0)
(0.104295 0.0107033 0)
(0.100595 0.0103231 0)
(0.0970311 0.00995697 0)
(0.0935983 0.00960442 0)
(0.0902903 0.00926476 0)
(0.0871017 0.00893742 0)
(0.0840271 0.00862185 0)
(0.0810619 0.00831756 0)
(0.0782013 0.00802406 0)
(0.0754413 0.0077409 0)
(0.0727776 0.00746768 0)
(0.0702067 0.00720398 0)
(0.0677247 0.00694945 0)
(0.0653284 0.00670371 0)
(0.0630146 0.00646646 0)
(0.0607801 0.00623735 0)
(0.0586221 0.0060161 0)
(0.0565378 0.00580242 0)
(0.0545246 0.00559603 0)
(0.05258 0.00539667 0)
(0.0507015 0.00520411 0)
(0.0488869 0.00501809 0)
(0.047134 0.0048384 0)
(0.0454407 0.00466481 0)
(0.0438049 0.00449713 0)
(0.0422248 0.00433515 0)
(0.0406984 0.00417867 0)
(0.0392239 0.00402752 0)
(0.0377997 0.00388151 0)
(0.0364241 0.00374048 0)
(0.0350955 0.00360427 0)
(0.0338123 0.00347271 0)
(0.0325731 0.00334565 0)
(0.0313764 0.00322294 0)
(0.0302208 0.00310444 0)
(0.029105 0.00299003 0)
(0.0280277 0.00287955 0)
(0.0269877 0.00277288 0)
(0.0259836 0.00266991 0)
(0.0250145 0.0025705 0)
(0.024079 0.00247455 0)
(0.0231762 0.00238193 0)
(0.0223049 0.00229256 0)
(0.0214642 0.00220631 0)
(0.020653 0.00212308 0)
(0.0198704 0.00204278 0)
(0.0191154 0.00196531 0)
(0.0183872 0.00189057 0)
(0.0176847 0.00181849 0)
(0.0170073 0.00174896 0)
(0.0163541 0.00168191 0)
(0.0157242 0.00161726 0)
(0.0151169 0.00155492 0)
(0.0145315 0.00149482 0)
(0.0139672 0.00143688 0)
(0.0134234 0.00138104 0)
(0.0128992 0.00132722 0)
(0.0123941 0.00127535 0)
(0.0119075 0.00122537 0)
(0.0114387 0.00117721 0)
(0.010987 0.00113082 0)
(0.010552 0.00108614 0)
(0.0101331 0.0010431 0)
(0.00972961 0.00100165 0)
(0.00934114 0.000961733 0)
(0.00896714 0.000923302 0)
(0.00860711 0.000886303 0)
(0.00826056 0.000850686 0)
(0.00792702 0.000816405 0)
(0.00760606 0.000783413 0)
(0.00729722 0.000751665 0)
(0.00700008 0.000721117 0)
(0.00671424 0.000691729 0)
(0.0064393 0.000663458 0)
(0.00617487 0.000636266 0)
(0.00592057 0.000610114 0)
(0.00567607 0.000584967 0)
(0.00544099 0.000560787 0)
(0.00521501 0.000537542 0)
(0.0049978 0.000515196 0)
(0.00478905 0.000493719 0)
(0.00458844 0.000473077 0)
(0.00439569 0.000453244 0)
(0.00421051 0.000434187 0)
(0.00403263 0.00041588 0)
(0.00386178 0.000398294 0)
(0.0036977 0.000381404 0)
(0.00354015 0.000365184 0)
(0.00338886 0.000349609 0)
(0.00324365 0.000334658 0)
(0.00310423 0.000320302 0)
(0.00297047 0.000306526 0)
(0.00284206 0.000293301 0)
(0.00271888 0.000280614 0)
(0.00260069 0.000268439 0)
(0.00248731 0.000256759 0)
(0.00237858 0.000245557 0)
(0.00227428 0.000234809 0)
(0.00217431 0.000224508 0)
(0.00207841 0.000214624 0)
(0.00198653 0.000205155 0)
(0.00189841 0.000196072 0)
(0.001814 0.000187371 0)
(0.0017331 0.00017903 0)
(0.00165557 0.000171037 0)
(0.00158135 0.000163382 0)
(0.00151017 0.000156044 0)
(0.0014421 0.000149021 0)
(0.00137682 0.000142291 0)
(0.00131441 0.000135849 0)
(0.00125458 0.000129681 0)
(0.00119737 0.000123775 0)
(0.00114258 0.000118126 0)
(0.00109017 0.000112713 0)
(0.00104003 0.000107542 0)
(0.000992046 0.000102586 0)
(0.000946182 9.78541e-05 0)
(0.000902275 9.33202e-05 0)
(0.000860346 8.8991e-05 0)
(0.000820197 8.48472e-05 0)
(0.000781886 8.08875e-05 0)
(0.000745195 7.71034e-05 0)
(0.00071021 7.34829e-05 0)
(0.000676705 7.00303e-05 0)
(0.00064477 6.67214e-05 0)
(0.000614195 6.35731e-05 0)
(0.000585051 6.05506e-05 0)
(0.000557167 5.76801e-05 0)
(0.000530587 5.49224e-05 0)
(0.000505182 5.23062e-05 0)
(0.000480958 4.97935e-05 0)
(0.000457831 4.74094e-05 0)
(0.000435758 4.51221e-05 0)
(0.000414724 4.29501e-05 0)
(0.000394623 4.08702e-05 0)
(0.0003755 3.88915e-05 0)
(0.000357214 3.70024e-05 0)
(0.00033983 3.52005e-05 0)
(0.000323215 3.34858e-05 0)
(0.000307417 3.18464e-05 0)
(0.000292329 3.029e-05 0)
(0.000277978 2.88007e-05 0)
(0.000264273 2.73868e-05 0)
(0.000251238 2.60365e-05 0)
(0.000238722 2.47419e-05 0)
(0.000227008 2.3513e-05 0)
(0.120571 0.0124685 0)
(0.11625 0.0120203 0)
(0.112096 0.0115897 0)
(0.108102 0.0111758 0)
(0.104259 0.0107777 0)
(0.10056 0.0103947 0)
(0.0969975 0.010026 0)
(0.0935659 0.00967091 0)
(0.0902592 0.00932884 0)
(0.0870716 0.0089992 0)
(0.0839982 0.00868143 0)
(0.0810339 0.00837503 0)
(0.0781744 0.0080795 0)
(0.0754153 0.00779441 0)
(0.0727526 0.00751932 0)
(0.0701825 0.00725383 0)
(0.0677014 0.00699757 0)
(0.0653059 0.00675019 0)
(0.0629928 0.00651133 0)
(0.0607591 0.00628069 0)
(0.0586018 0.00605795 0)
(0.0565182 0.00584284 0)
(0.0545057 0.00563507 0)
(0.0525617 0.00543439 0)
(0.0506838 0.00524054 0)
(0.0488698 0.00505328 0)
(0.0471175 0.00487239 0)
(0.0454247 0.00469765 0)
(0.0437895 0.00452885 0)
(0.0422098 0.00436579 0)
(0.0406839 0.00420826 0)
(0.03921 0.0040561 0)
(0.0377862 0.00390912 0)
(0.0364111 0.00376715 0)
(0.0350829 0.00363002 0)
(0.0338001 0.00349757 0)
(0.0325613 0.00336966 0)
(0.031365 0.00324612 0)
(0.0302097 0.00312683 0)
(0.0290943 0.00301163 0)
(0.0280173 0.0029004 0)
(0.0269776 0.00279302 0)
(0.0259739 0.00268934 0)
(0.025005 0.00258925 0)
(0.0240698 0.00249264 0)
(0.0231673 0.00239939 0)
(0.0222963 0.0023094 0)
(0.0214559 0.00222256 0)
(0.020645 0.00213876 0)
(0.0198626 0.0020579 0)
(0.0191078 0.00197989 0)
(0.0183798 0.00190463 0)
(0.0176776 0.00183204 0)
(0.0170004 0.00176203 0)
(0.0163474 0.00169451 0)
(0.0157177 0.0016294 0)
(0.0151106 0.00156662 0)
(0.0145254 0.00150609 0)
(0.0139613 0.00144774 0)
(0.0134176 0.0013915 0)
(0.0128936 0.00133729 0)
(0.0123887 0.00128505 0)
(0.0119022 0.00123472 0)
(0.0114335 0.00118621 0)
(0.010982 0.00113949 0)
(0.0105471 0.00109448 0)
(0.0101283 0.00105112 0)
(0.00972499 0.00100937 0)
(0.00933664 0.000969165 0)
(0.00896276 0.000930452 0)
(0.00860284 0.00089318 0)
(0.0082564 0.000857301 0)
(0.00792297 0.000822766 0)
(0.00760211 0.000789528 0)
(0.00729337 0.000757544 0)
(0.00699633 0.000726768 0)
(0.00671058 0.000697159 0)
(0.00643572 0.000668675 0)
(0.00617137 0.000641278 0)
(0.00591716 0.000614929 0)
(0.00567273 0.000589591 0)
(0.00543773 0.000565227 0)
(0.00521183 0.000541804 0)
(0.00499468 0.000519287 0)
(0.004786 0.000497645 0)
(0.00458545 0.000476845 0)
(0.00439277 0.000456858 0)
(0.00420765 0.000437653 0)
(0.00402983 0.000419204 0)
(0.00385903 0.000401481 0)
(0.003695 0.000384459 0)
(0.0035375 0.000368112 0)
(0.00338626 0.000352414 0)
(0.0032411 0.000337345 0)
(0.00310173 0.000322875 0)
(0.00296801 0.00030899 0)
(0.00283964 0.00029566 0)
(0.00271651 0.000282871 0)
(0.00259835 0.000270598 0)
(0.00248501 0.000258825 0)
(0.00237632 0.000247532 0)
(0.00227205 0.000236698 0)
(0.00217211 0.000226313 0)
(0.00207624 0.000216348 0)
(0.00198439 0.000206802 0)
(0.00189631 0.000197645 0)
(0.00181192 0.000188872 0)
(0.00173105 0.000180462 0)
(0.00165354 0.000172403 0)
(0.00157935 0.000164685 0)
(0.00150819 0.000157286 0)
(0.00144015 0.000150205 0)
(0.00137488 0.000143418 0)
(0.0013125 0.000136922 0)
(0.00125269 0.000130702 0)
(0.0011955 0.000124746 0)
(0.00114073 0.000119048 0)
(0.00108834 0.000113591 0)
(0.00103821 0.000108374 0)
(0.000990242 0.000103377 0)
(0.000944394 9.86033e-05 0)
(0.000900502 9.40315e-05 0)
(0.000858587 8.96637e-05 0)
(0.000818451 8.5485e-05 0)
(0.000780154 8.14898e-05 0)
(0.000743476 7.76736e-05 0)
(0.000708502 7.40206e-05 0)
(0.000675009 7.05382e-05 0)
(0.000643084 6.71998e-05 0)
(0.000612521 6.4024e-05 0)
(0.000583386 6.09747e-05 0)
(0.000555512 5.80784e-05 0)
(0.000528942 5.52966e-05 0)
(0.000503545 5.26561e-05 0)
(0.000479329 5.01218e-05 0)
(0.000456211 4.77149e-05 0)
(0.000434146 4.54084e-05 0)
(0.000413119 4.32149e-05 0)
(0.000393025 4.11178e-05 0)
(0.000373908 3.91192e-05 0)
(0.000355629 3.72144e-05 0)
(0.000338251 3.53942e-05 0)
(0.000321642 3.36651e-05 0)
(0.000305849 3.20092e-05 0)
(0.000290766 3.04394e-05 0)
(0.000276421 2.89355e-05 0)
(0.00026272 2.75091e-05 0)
(0.00024969 2.61464e-05 0)
(0.000237178 2.48394e-05 0)
(0.00022547 2.35949e-05 0)
(0.120539 0.0125567 0)
(0.116219 0.0121051 0)
(0.112067 0.0116712 0)
(0.108074 0.0112542 0)
(0.104232 0.0108531 0)
(0.100534 0.0104673 0)
(0.0969723 0.0100959 0)
(0.0935417 0.00973828 0)
(0.0902358 0.00939377 0)
(0.0870491 0.0090618 0)
(0.0839764 0.0087418 0)
(0.081013 0.00843325 0)
(0.0781541 0.00813568 0)
(0.0753957 0.00784861 0)
(0.0727337 0.00757163 0)
(0.0701642 0.00730433 0)
(0.0676837 0.00704632 0)
(0.0652888 0.00679725 0)
(0.0629763 0.00655678 0)
(0.0607431 0.00632458 0)
(0.0585863 0.00610034 0)
(0.0565032 0.00588378 0)
(0.0544912 0.00567461 0)
(0.0525476 0.00547258 0)
(0.0506702 0.00527743 0)
(0.0488566 0.00508891 0)
(0.0471047 0.00490681 0)
(0.0454123 0.0047309 0)
(0.0437775 0.00456096 0)
(0.0421982 0.0043968 0)
(0.0406727 0.00423822 0)
(0.039199 0.00408503 0)
(0.0377756 0.00393706 0)
(0.0364008 0.00379413 0)
(0.0350729 0.00365607 0)
(0.0337904 0.00352273 0)
(0.0325519 0.00339395 0)
(0.0313558 0.00326958 0)
(0.0302009 0.00314947 0)
(0.0290857 0.00303349 0)
(0.028009 0.0029215 0)
(0.0269695 0.00281338 0)
(0.025966 0.00270899 0)
(0.0249974 0.00260822 0)
(0.0240624 0.00251094 0)
(0.02316 0.00241704 0)
(0.0222893 0.00232643 0)
(0.021449 0.00223898 0)
(0.0206383 0.0021546 0)
(0.0198561 0.00207318 0)
(0.0191015 0.00199462 0)
(0.0183736 0.00191884 0)
(0.0176716 0.00184574 0)
(0.0169946 0.00177523 0)
(0.0163417 0.00170723 0)
(0.0157122 0.00164166 0)
(0.0151052 0.00157843 0)
(0.0145201 0.00151748 0)
(0.0139561 0.00145871 0)
(0.0134125 0.00140206 0)
(0.0128887 0.00134747 0)
(0.0123839 0.00129485 0)
(0.0118975 0.00124415 0)
(0.0114289 0.00119529 0)
(0.0109775 0.00114823 0)
(0.0105428 0.00110289 0)
(0.010124 0.00105922 0)
(0.00972082 0.00101716 0)
(0.00933257 0.000976657 0)
(0.00895877 0.000937658 0)
(0.00859893 0.00090011 0)
(0.00825257 0.000863964 0)
(0.00791922 0.000829172 0)
(0.00759844 0.000795686 0)
(0.00728977 0.000763462 0)
(0.0069928 0.000732455 0)
(0.00670711 0.000702622 0)
(0.00643232 0.000673923 0)
(0.00616804 0.000646319 0)
(0.00591389 0.000619769 0)
(0.00566952 0.000594238 0)
(0.00543457 0.000569687 0)
(0.00520872 0.000546085 0)
(0.00499163 0.000523394 0)
(0.00478299 0.000501585 0)
(0.0045825 0.000480624 0)
(0.00438986 0.000460482 0)
(0.00420479 0.000441127 0)
(0.00402701 0.000422534 0)
(0.00385625 0.000404672 0)
(0.00369226 0.000387516 0)
(0.0035348 0.00037104 0)
(0.0033836 0.000355218 0)
(0.00323847 0.000340029 0)
(0.00309913 0.000325444 0)
(0.00296544 0.000311448 0)
(0.00283711 0.000298011 0)
(0.002714 0.00028512 0)
(0.00259588 0.000272748 0)
(0.00248257 0.000260879 0)
(0.0023739 0.000249495 0)
(0.00226965 0.000238573 0)
(0.00216975 0.000228103 0)
(0.0020739 0.000218057 0)
(0.00198207 0.000208433 0)
(0.00189401 0.0001992 0)
(0.00180964 0.000190355 0)
(0.00172879 0.000181875 0)
(0.0016513 0.000173749 0)
(0.00157713 0.000165967 0)
(0.00150599 0.000158506 0)
(0.00143796 0.000151365 0)
(0.00137272 0.000144521 0)
(0.00131034 0.000137971 0)
(0.00125055 0.000131698 0)
(0.00119338 0.000125692 0)
(0.00113862 0.000119945 0)
(0.00108624 0.000114441 0)
(0.00103613 0.000109179 0)
(0.000988171 0.00010414 0)
(0.000942335 9.93241e-05 0)
(0.000898454 9.47139e-05 0)
(0.000856551 9.03071e-05 0)
(0.000816425 8.60931e-05 0)
(0.000778137 8.2062e-05 0)
(0.000741469 7.82132e-05 0)
(0.000706505 7.45274e-05 0)
(0.00067302 7.10148e-05 0)
(0.000641104 6.76465e-05 0)
(0.000610548 6.44425e-05 0)
(0.000581421 6.13663e-05 0)
(0.000553554 5.84437e-05 0)
(0.000526991 5.56376e-05 0)
(0.000501602 5.29724e-05 0)
(0.000477392 5.04165e-05 0)
(0.00045428 4.79864e-05 0)
(0.000432221 4.56606e-05 0)
(0.000411199 4.34454e-05 0)
(0.000391111 4.1331e-05 0)
(0.000371999 3.93123e-05 0)
(0.000353725 3.73918e-05 0)
(0.000336352 3.55532e-05 0)
(0.000319747 3.38096e-05 0)
(0.000303959 3.21371e-05 0)
(0.00028888 3.05538e-05 0)
(0.000274539 2.90352e-05 0)
(0.000260842 2.75962e-05 0)
(0.000247815 2.6221e-05 0)
(0.000235306 2.49014e-05 0)
(0.000223602 2.36412e-05 0)
(0.120513 0.0126455 0)
(0.116194 0.0121904 0)
(0.112043 0.0117532 0)
(0.108051 0.0113331 0)
(0.10421 0.0109291 0)
(0.100512 0.0105404 0)
(0.0969516 0.0101663 0)
(0.0935217 0.00980615 0)
(0.0902165 0.00945918 0)
(0.0870304 0.00912486 0)
(0.0839584 0.00880261 0)
(0.0809955 0.00849191 0)
(0.0781373 0.00819227 0)
(0.0753794 0.00790322 0)
(0.0727179 0.00762434 0)
(0.0701489 0.0073552 0)
(0.0676689 0.00709544 0)
(0.0652745 0.00684467 0)
(0.0629624 0.00660257 0)
(0.0607297 0.0063688 0)
(0.0585733 0.00614305 0)
(0.0564906 0.00592502 0)
(0.0544789 0.00571445 0)
(0.0525358 0.00551106 0)
(0.0506587 0.00531459 0)
(0.0488455 0.00512482 0)
(0.0470939 0.00494149 0)
(0.0454018 0.00476439 0)
(0.0437673 0.00459332 0)
(0.0421883 0.00442805 0)
(0.040663 0.00426841 0)
(0.0391897 0.00411419 0)
(0.0377666 0.00396522 0)
(0.036392 0.00382132 0)
(0.0350643 0.00368233 0)
(0.0337821 0.00354809 0)
(0.0325438 0.00341843 0)
(0.0313479 0.00329322 0)
(0.0301932 0.00317229 0)
(0.0290782 0.00305552 0)
(0.0280017 0.00294277 0)
(0.0269624 0.00283391 0)
(0.0259591 0.0027288 0)
(0.0249907 0.00262734 0)
(0.0240559 0.00252939 0)
(0.0231537 0.00243485 0)
(0.0222831 0.0023436 0)
(0.021443 0.00225555 0)
(0.0206324 0.00217058 0)
(0.0198503 0.00208859 0)
(0.0190959 0.00200948 0)
(0.0183682 0.00193317 0)
(0.0176663 0.00185956 0)
(0.0169894 0.00178855 0)
(0.0163366 0.00172007 0)
(0.0157072 0.00165404 0)
(0.0151004 0.00159036 0)
(0.0145154 0.00152897 0)
(0.0139515 0.00146978 0)
(0.013408 0.00141273 0)
(0.0128843 0.00135774 0)
(0.0123796 0.00130474 0)
(0.0118933 0.00125368 0)
(0.0114248 0.00120447 0)
(0.0109735 0.00115706 0)
(0.0105388 0.00111139 0)
(0.0101201 0.0010674 0)
(0.009717 0.00102503 0)
(0.00932883 0.000984231 0)
(0.0089551 0.000944944 0)
(0.00859534 0.000907118 0)
(0.00824904 0.000870704 0)
(0.00791576 0.000835653 0)
(0.00759503 0.000801917 0)
(0.00728643 0.000769451 0)
(0.00698951 0.000738211 0)
(0.00670389 0.000708154 0)
(0.00642915 0.000679238 0)
(0.00616492 0.000651424 0)
(0.00591082 0.000624672 0)
(0.0056665 0.000598946 0)
(0.00543159 0.000574208 0)
(0.00520579 0.000550425 0)
(0.00498874 0.000527559 0)
(0.00478015 0.000505582 0)
(0.00457969 0.000484458 0)
(0.0043871 0.00046416 0)
(0.00420206 0.000444654 0)
(0.00402432 0.000425916 0)
(0.00385359 0.000407914 0)
(0.00368964 0.000390623 0)
(0.00353221 0.000374017 0)
(0.00338104 0.00035807 0)
(0.00323594 0.00034276 0)
(0.00309663 0.000328059 0)
(0.00296297 0.000313951 0)
(0.00283466 0.000300407 0)
(0.00271158 0.000287412 0)
(0.00259348 0.00027494 0)
(0.00248019 0.000262975 0)
(0.00237155 0.000251499 0)
(0.00226732 0.000240488 0)
(0.00216744 0.000229933 0)
(0.00207161 0.000219804 0)
(0.0019798 0.000210101 0)
(0.00189176 0.000200791 0)
(0.00180741 0.000191873 0)
(0.00172658 0.000183323 0)
(0.0016491 0.00017513 0)
(0.00157494 0.000167282 0)
(0.00150382 0.000159759 0)
(0.00143581 0.000152558 0)
(0.00137058 0.000145656 0)
(0.00130822 0.000139051 0)
(0.00124844 0.000132724 0)
(0.00119128 0.000126667 0)
(0.00113653 0.000120871 0)
(0.00108416 0.000115321 0)
(0.00103406 0.000110013 0)
(0.000986117 0.000104931 0)
(0.00094029 0.000100072 0)
(0.00089642 9.54227e-05 0)
(0.000854525 9.09763e-05 0)
(0.000814409 8.67263e-05 0)
(0.00077613 8.26589e-05 0)
(0.00073947 7.87769e-05 0)
(0.000704513 7.50578e-05 0)
(0.000671036 7.15146e-05 0)
(0.000639127 6.8116e-05 0)
(0.000608578 6.48835e-05 0)
(0.000579458 6.17798e-05 0)
(0.000551597 5.88305e-05 0)
(0.000525041 5.59996e-05 0)
(0.000499657 5.33093e-05 0)
(0.000475453 5.07312e-05 0)
(0.000452346 4.82775e-05 0)
(0.000430292 4.59318e-05 0)
(0.000409275 4.36946e-05 0)
(0.000389192 4.15623e-05 0)
(0.000370084 3.95231e-05 0)
(0.000351815 3.75863e-05 0)
(0.000334445 3.5729e-05 0)
(0.000317845 3.39704e-05 0)
(0.00030206 3.2281e-05 0)
(0.000286985 3.06836e-05 0)
(0.000272647 2.91499e-05 0)
(0.000258953 2.7698e-05 0)
(0.000245929 2.631e-05 0)
(0.000233424 2.49775e-05 0)
(0.000221723 2.37011e-05 0)
(0.12049 0.0127346 0)
(0.116172 0.012276 0)
(0.112022 0.0118356 0)
(0.10803 0.0114123 0)
(0.10419 0.0110053 0)
(0.100493 0.0106138 0)
(0.0969333 0.010237 0)
(0.093504 0.00987422 0)
(0.0901994 0.00952479 0)
(0.0870139 0.00918811 0)
(0.0839425 0.0088636 0)
(0.0809801 0.00855074 0)
(0.0781224 0.00824903 0)
(0.075365 0.00795799 0)
(0.072704 0.00767719 0)
(0.0701354 0.00740622 0)
(0.0676559 0.00714469 0)
(0.0652618 0.00689223 0)
(0.0629502 0.00664849 0)
(0.0607178 0.00641314 0)
(0.0585618 0.00618587 0)
(0.0564794 0.00596639 0)
(0.0544681 0.0057544 0)
(0.0525252 0.00554965 0)
(0.0506485 0.00535187 0)
(0.0488356 0.00516082 0)
(0.0470843 0.00497627 0)
(0.0453925 0.00479799 0)
(0.0437582 0.00462577 0)
(0.0421795 0.00445939 0)
(0.0406545 0.00429868 0)
(0.0391814 0.00414343 0)
(0.0377585 0.00399346 0)
(0.0363841 0.00384859 0)
(0.0350567 0.00370867 0)
(0.0337747 0.00357352 0)
(0.0325366 0.00344299 0)
(0.0313409 0.00331693 0)
(0.0301864 0.00319519 0)
(0.0290716 0.00307762 0)
(0.0279953 0.0029641 0)
(0.0269561 0.0028545 0)
(0.025953 0.00274868 0)
(0.0249847 0.00264652 0)
(0.0240501 0.0025479 0)
(0.023148 0.0024527 0)
(0.0222776 0.00236083 0)
(0.0214376 0.00227217 0)
(0.0206272 0.00218661 0)
(0.0198453 0.00210405 0)
(0.0190909 0.0020244 0)
(0.0183633 0.00194755 0)
(0.0176616 0.00187342 0)
(0.0169848 0.00180192 0)
(0.0163321 0.00173296 0)
(0.0157028 0.00166646 0)
(0.0150961 0.00160233 0)
(0.0145112 0.0015405 0)
(0.0139474 0.00148089 0)
(0.013404 0.00142344 0)
(0.0128804 0.00136805 0)
(0.0123757 0.00131468 0)
(0.0118895 0.00126324 0)
(0.0114211 0.00121368 0)
(0.0109699 0.00116593 0)
(0.0105353 0.00111993 0)
(0.0101167 0.00107562 0)
(0.00971365 0.00103294 0)
(0.00932554 0.00099184 0)
(0.00895188 0.000952265 0)
(0.00859218 0.000914161 0)
(0.00824595 0.000877478 0)
(0.00791272 0.000842167 0)
(0.00759206 0.000808181 0)