/*--------------------------------*- C++ -*----------------------------------*\
| =========                 |                                                 |
| \\      /  F ield         | OpenFOAM: The Open Source CFD Toolbox           |
|  \\    /   O peration     | Version:  v1912                                 |
|   \\  /    A nd           | Website:  www.openfoam.com                      |
|    \\/     M anipulation  |                                                 |
\*---------------------------------------------------------------------------*/
FoamFile
{
    version     2.0;
    format      ascii;
    class       volScalarField;
    location    "70";
    object      omega;
}
// * * * * * * * * * * * * * * * * * * * * * * * * * * * * * * * * * * * * * //

dimensions      [0 0 -1 0 0 0 0];


internalField   nonuniform List<scalar> 
14268
(
0.0101565
0.0101194
0.01004
0.00992254
0.00981251
0.00972276
0.00965473
0.00960271
0.00956326
0.00953516
0.00951659
0.00950542
0.00949946
0.00949692
0.00949628
0.00949697
0.00949826
0.00949987
0.00950148
0.00950282
0.0095038
0.00950457
0.00950563
0.0095074
0.00950993
0.00951271
0.00951647
0.00952228
0.00953122
0.0095438
0.00955972
0.0095779
0.00959677
0.00961463
0.00963019
0.00964381
0.00965592
0.0096661
0.00967403
0.00967938
0.00968411
0.0096888
0.00969357
0.00969843
0.00970313
0.00970726
0.00971038
0.00971215
0.00971248
0.00971149
0.00970944
0.00970673
0.00970373
0.0097006
0.00969738
0.00969425
0.00969133
0.00968863
0.0096862
0.00968412
0.00968254
0.00968155
0.00968115
0.00968084
0.00967967
0.00967701
0.00967337
0.0096699
0.00966629
0.00966191
0.00965709
0.00965235
0.00964807
0.00964453
0.00964182
0.00963986
0.00963855
0.00963777
0.00963729
0.00963684
0.00963613
0.00963486
0.00963407
0.00963601
0.00964063
0.00964781
0.00965742
0.00966933
0.0096834
0.00969953
0.00971765
0.00973773
0.00975976
0.00978363
0.00980918
0.00983565
0.00986237
0.00988837
0.00991249
0.0099335
0.00995032
0.00996215
0.00996861
0.00996983
0.00996633
0.00995904
0.00995158
0.0099443
0.00993712
0.00993019
0.00992368
0.00991771
0.00991231
0.00990752
0.00990335
0.00989936
0.00989506
0.00989081
0.00988701
0.00988332
0.0098797
0.00987627
0.00987304
0.00986996
0.00986697
0.00986391
0.00986059
0.00985802
0.00985888
0.0098626
0.00986863
0.00987621
0.00988458
0.00989322
0.00990164
0.00991075
0.00991995
0.00992915
0.0099384
0.00994774
0.00995664
0.00996457
0.00997123
0.00997618
0.00997923
0.00998039
0.00997974
0.00997725
0.00997288
0.00996657
0.00995917
0.0099518
0.00994452
0.0099374
0.00993055
0.00992413
0.00991831
0.00991329
0.00990913
0.0099054
0.00990179
0.00989711
0.0098927
0.00989054
0.854924
0.389593
0.255684
0.203324
0.1833
0.1759
0.173576
0.173026
0.172924
0.172981
0.17311
0.173261
0.173421
0.173599
0.173807
0.17404
0.174261
0.174463
0.174647
0.17482
0.174983
0.175123
0.175206
0.175145
0.174852
0.174294
0.173486
0.172402
0.171075
0.169606
0.168047
0.166418
0.164746
0.163065
0.161403
0.15975
0.158057
0.156348
0.154695
0.153166
0.151652
0.150137
0.148637
0.147166
0.145731
0.144345
0.143027
0.141795
0.140668
0.139655
0.13876
0.137972
0.137272
0.136658
0.136115
0.135604
0.135112
0.134663
0.134259
0.133917
0.133667
0.133554
0.133613
0.133892
0.134423
0.135224
0.13629
0.137582
0.139072
0.140737
0.142484
0.144242
0.145944
0.147539
0.148987
0.150258
0.151331
0.152192
0.152831
0.153245
0.153441
0.153417
0.15321
0.152882
0.152423
0.151837
0.151128
0.150301
0.14936
0.148304
0.147134
0.14585
0.144457
0.142954
0.141344
0.139659
0.137912
0.136121
0.134336
0.13262
0.131043
0.129674
0.128577
0.127795
0.127338
0.127202
0.127404
0.127942
0.128751
0.129764
0.130934
0.13222
0.133579
0.134977
0.136417
0.13794
0.139446
0.140955
0.142432
0.143848
0.14515
0.146306
0.147272
0.148013
0.148502
0.14873
0.148699
0.148435
0.148048
0.147553
0.146969
0.146319
0.145628
0.144917
0.144204
0.14347
0.142715
0.141951
0.141181
0.140398
0.139623
0.138857
0.1381
0.137368
0.136678
0.136053
0.135507
0.135047
0.134675
0.134385
0.134175
0.134055
0.134005
0.134004
0.134046
0.134123
0.134235
0.134378
0.134567
0.134802
0.135101
0.135435
0.135863
0.136332
0.90547
0.408328
0.285496
0.236557
0.217317
0.2104
0.208231
0.207882
0.208028
0.208482
0.209071
0.20967
0.210275
0.210865
0.211436
0.211984
0.212504
0.212989
0.213434
0.21384
0.214207
0.21453
0.214786
0.214941
0.214985
0.214881
0.214631
0.214224
0.213688
0.213077
0.212461
0.211838
0.211212
0.210595
0.209996
0.20941
0.20884
0.208326
0.207831
0.207304
0.206768
0.206231
0.20568
0.205118
0.204549
0.203982
0.203428
0.202896
0.202396
0.201933
0.201509
0.201118
0.200755
0.200403
0.200057
0.199727
0.199424
0.199152
0.198907
0.198686
0.198485
0.198303
0.198136
0.197983
0.197841
0.197701
0.197557
0.1974
0.197246
0.197115
0.196994
0.196883
0.196779
0.196679
0.196578
0.196477
0.196371
0.196257
0.196136
0.196005
0.195865
0.195704
0.195491
0.195258
0.195005
0.194732
0.19444
0.194126
0.19379
0.193427
0.193035
0.19261
0.192145
0.191644
0.191107
0.190525
0.189908
0.18927
0.188621
0.187978
0.187367
0.186811
0.186332
0.185945
0.18566
0.185404
0.185209
0.185081
0.185012
0.184989
0.185003
0.185046
0.185117
0.185202
0.185287
0.185406
0.185572
0.185742
0.185861
0.185971
0.186076
0.18616
0.18622
0.186249
0.186242
0.1862
0.186092
0.185913
0.185704
0.185472
0.185216
0.184947
0.18467
0.184386
0.184096
0.183794
0.183495
0.183196
0.182899
0.182602
0.182282
0.18195
0.181618
0.181288
0.180969
0.18067
0.180396
0.18015
0.179934
0.179732
0.179547
0.179389
0.179253
0.179131
0.179018
0.178919
0.178837
0.178777
0.178724
0.178707
0.178692
0.178724
0.178736
0.178748
0.927027
0.420773
0.297484
0.249235
0.230212
0.223138
0.220518
0.219395
0.218707
0.218185
0.217786
0.217476
0.217236
0.217047
0.216892
0.216751
0.216612
0.216465
0.216301
0.216117
0.215914
0.215691
0.215448
0.215173
0.214851
0.214468
0.213998
0.213443
0.212835
0.212221
0.211625
0.211046
0.210484
0.209942
0.209422
0.208922
0.208434
0.20798
0.207549
0.207098
0.206645
0.206197
0.205745
0.205289
0.20483
0.204372
0.20392
0.20348
0.203054
0.202645
0.202255
0.201879
0.201514
0.201152
0.200796
0.200455
0.200137
0.199849
0.199584
0.199331
0.199081
0.198827
0.198561
0.19828
0.197981
0.197662
0.197327
0.196983
0.196645
0.196323
0.196021
0.195742
0.195491
0.195268
0.195072
0.19489
0.19471
0.194534
0.194369
0.194218
0.194084
0.193969
0.193867
0.19377
0.19367
0.193562
0.193445
0.193319
0.193186
0.193047
0.192903
0.192753
0.192582
0.192388
0.192168
0.19191
0.191618
0.191299
0.190958
0.190611
0.190274
0.189966
0.189702
0.189498
0.189353
0.189226
0.189101
0.188986
0.188886
0.188803
0.188736
0.188687
0.188655
0.188634
0.188617
0.188624
0.18865
0.188662
0.188695
0.188715
0.18871
0.188692
0.188662
0.188623
0.18858
0.188535
0.18849
0.188447
0.188393
0.188322
0.188238
0.188144
0.188043
0.187938
0.187835
0.18774
0.187636
0.187524
0.187404
0.187278
0.187169
0.187067
0.186965
0.186865
0.186769
0.18668
0.186597
0.186522
0.186456
0.186399
0.18635
0.18631
0.186274
0.18624
0.186208
0.186178
0.186153
0.18613
0.186108
0.18608
0.186047
0.186005
0.186023
0.186067
0.939434
0.424011
0.29841
0.249709
0.230567
0.223207
0.220202
0.218622
0.217503
0.216556
0.215727
0.214997
0.214356
0.213788
0.213277
0.212803
0.212349
0.211902
0.211448
0.210984
0.210511
0.210037
0.209573
0.209138
0.208748
0.208417
0.208107
0.207807
0.207517
0.207241
0.20698
0.20673
0.206486
0.206246
0.206008
0.205768
0.205524
0.205283
0.205051
0.204799
0.204537
0.204274
0.204001
0.203718
0.203423
0.203119
0.202814
0.202513
0.202222
0.201944
0.201682
0.201436
0.201202
0.200975
0.200748
0.200532
0.200328
0.200138
0.199961
0.199786
0.199607
0.199415
0.199203
0.198967
0.198704
0.198418
0.19811
0.197789
0.197468
0.197158
0.196867
0.196601
0.196363
0.196154
0.195973
0.195818
0.195687
0.195576
0.195482
0.195403
0.19533
0.195247
0.195161
0.19508
0.195005
0.194933
0.194862
0.19479
0.194715
0.194635
0.194544
0.19444
0.194316
0.194174
0.194016
0.193831
0.193622
0.193397
0.193161
0.192924
0.192699
0.192499
0.192336
0.19222
0.192147
0.192049
0.191914
0.191754
0.191578
0.191397
0.191214
0.191037
0.190872
0.190713
0.190553
0.190409
0.190313
0.190228
0.190119
0.190022
0.189947
0.189883
0.189834
0.189798
0.189772
0.189735
0.189687
0.189629
0.189572
0.189515
0.189458
0.189402
0.189345
0.189288
0.189227
0.189156
0.189088
0.189024
0.188969
0.188919
0.18885
0.188774
0.188702
0.188634
0.188573
0.188517
0.188467
0.188424
0.188383
0.188338
0.188288
0.188237
0.188186
0.188132
0.188077
0.188028
0.18798
0.187932
0.187878
0.18783
0.187781
0.187747
0.187695
0.187641
0.943357
0.421101
0.293344
0.243819
0.224351
0.21674
0.213448
0.211629
0.210374
0.209356
0.208478
0.207718
0.207065
0.206503
0.206015
0.205579
0.205176
0.20479
0.204411
0.204036
0.203669
0.203317
0.20299
0.202699
0.202453
0.202245
0.202062
0.201905
0.201771
0.201658
0.201561
0.201476
0.201399
0.201325
0.201252
0.201175
0.201092
0.201007
0.200925
0.200833
0.200734
0.200636
0.200534
0.200428
0.200317
0.200203
0.200083
0.199959
0.199832
0.199707
0.199586
0.199468
0.199352
0.199233
0.19911
0.198985
0.198855
0.198721
0.198582
0.198437
0.198281
0.198106
0.197903
0.197667
0.197394
0.197087
0.196748
0.196388
0.196019
0.195651
0.195298
0.194965
0.19466
0.19439
0.194156
0.193957
0.19379
0.193637
0.1935
0.193381
0.193283
0.193206
0.193148
0.193102
0.193067
0.193039
0.193017
0.192999
0.192982
0.192964
0.19294
0.192907
0.19286
0.192798
0.192721
0.192618
0.192493
0.192352
0.192196
0.192033
0.191872
0.191724
0.191598
0.191501
0.191425
0.191318
0.19117
0.190991
0.190793
0.190588
0.190381
0.190181
0.189994
0.189818
0.189647
0.189495
0.189395
0.189309
0.189212
0.189134
0.189063
0.188987
0.188907
0.18883
0.188761
0.188704
0.18866
0.188632
0.188609
0.188586
0.188556
0.188519
0.18848
0.188437
0.188393
0.188354
0.188315
0.18827
0.188216
0.188159
0.188114
0.188069
0.188029
0.187991
0.18796
0.187933
0.187908
0.187883
0.187856
0.187833
0.187811
0.18779
0.187769
0.187747
0.187725
0.187706
0.187688
0.18767
0.187648
0.187622
0.1876
0.187564
0.187569
0.187584
0.946678
0.416761
0.286229
0.23543
0.21546
0.207842
0.204766
0.203282
0.202407
0.201775
0.201265
0.200832
0.20046
0.200149
0.199885
0.199652
0.199434
0.199224
0.199014
0.198806
0.198601
0.198406
0.198231
0.198082
0.197955
0.197849
0.197764
0.197704
0.197665
0.197646
0.197642
0.197648
0.197658
0.197668
0.197673
0.197671
0.197659
0.19764
0.197615
0.197583
0.197541
0.197496
0.197444
0.197386
0.197324
0.19726
0.197194
0.197129
0.197064
0.197002
0.196942
0.196884
0.196825
0.196759
0.196689
0.19662
0.196551
0.196479
0.1964
0.19631
0.196204
0.196073
0.195909
0.195706
0.195462
0.19518
0.194869
0.194539
0.194207
0.193886
0.193592
0.193332
0.193109
0.19292
0.192766
0.192644
0.19255
0.192467
0.192392
0.192325
0.19227
0.192227
0.192197
0.192178
0.192168
0.192166
0.192169
0.192175
0.192181
0.192186
0.192186
0.192177
0.192157
0.192127
0.192083
0.192013
0.191918
0.191804
0.191675
0.191536
0.191397
0.191271
0.191165
0.191089
0.191027
0.190922
0.190775
0.190598
0.190403
0.190204
0.190006
0.189817
0.189643
0.189482
0.189327
0.18919
0.189102
0.189028
0.188941
0.18887
0.188825
0.188798
0.188776
0.188747
0.188715
0.188679
0.188645
0.188615
0.188586
0.18856
0.188535
0.188508
0.18848
0.188449
0.188415
0.188372
0.188326
0.188286
0.188254
0.188227
0.188181
0.188133
0.188093
0.188059
0.188033
0.188012
0.187998
0.187987
0.187971
0.187955
0.187935
0.187916
0.187898
0.187881
0.187867
0.187856
0.187846
0.187836
0.18782
0.187803
0.187778
0.18777
0.187784
0.187783
0.951482
0.41628
0.282731
0.230556
0.209794
0.20196
0.199019
0.197806
0.197214
0.196844
0.196561
0.196329
0.19614
0.195991
0.195868
0.195761
0.195661
0.195562
0.19546
0.195354
0.195251
0.195157
0.195077
0.195003
0.194938
0.194889
0.194858
0.194848
0.19486
0.194893
0.194943
0.195002
0.195065
0.195124
0.195177
0.19522
0.195252
0.195273
0.195283
0.195286
0.195278
0.195264
0.195242
0.195213
0.195177
0.195135
0.195091
0.195044
0.194996
0.194949
0.194902
0.194856
0.194807
0.194751
0.194694
0.194642
0.194593
0.194548
0.194502
0.19445
0.194383
0.194293
0.194173
0.194016
0.193823
0.193601
0.193356
0.193097
0.192837
0.192591
0.192371
0.192183
0.192029
0.191908
0.191818
0.191743
0.191667
0.191596
0.191532
0.191479
0.191438
0.191412
0.1914
0.1914
0.191409
0.191425
0.191444
0.191464
0.191482
0.191496
0.191504
0.1915
0.19148
0.191449
0.191403
0.191333
0.191241
0.191134
0.191014
0.190887
0.190763
0.190651
0.190562
0.190502
0.190438
0.190332
0.190188
0.190016
0.18983
0.189644
0.189463
0.189295
0.189144
0.18901
0.188884
0.188779
0.188722
0.188681
0.188634
0.188604
0.188589
0.188561
0.188518
0.188467
0.188417
0.188371
0.188333
0.188309
0.188287
0.18827
0.188253
0.188229
0.1882
0.188167
0.188132
0.188097
0.188055
0.18802
0.187976
0.187932
0.187889
0.187845
0.18781
0.187782
0.187763
0.187748
0.187732
0.187715
0.187697
0.187684
0.187674
0.187665
0.187658
0.187654
0.187654
0.187658
0.187663
0.187668
0.187666
0.18766
0.187654
0.18765
0.187684
0.187705
0.957088
0.417595
0.282226
0.228558
0.206951
0.198733
0.195702
0.19456
0.194088
0.19385
0.193691
0.193574
0.19349
0.193429
0.193381
0.19334
0.193301
0.193262
0.19322
0.193175
0.193133
0.193097
0.19306
0.193022
0.192987
0.192964
0.192958
0.192971
0.193004
0.193058
0.193131
0.193216
0.193306
0.193394
0.193474
0.193544
0.193602
0.193649
0.193681
0.193705
0.193718
0.193725
0.193723
0.193718
0.193706
0.193689
0.19367
0.19365
0.193629
0.193607
0.193585
0.193562
0.193531
0.193493
0.193456
0.193424
0.193396
0.193373
0.193349
0.193319
0.193276
0.193213
0.193119
0.192991
0.192828
0.192641
0.192437
0.192225
0.192014
0.191818
0.191652
0.191519
0.191422
0.191358
0.191313
0.191262
0.191208
0.191157
0.191113
0.191077
0.191054
0.191043
0.191047
0.191062
0.191086
0.191116
0.19115
0.191183
0.191212
0.191235
0.191248
0.191248
0.191229
0.191193
0.191142
0.191065
0.190967
0.190855
0.190731
0.190603
0.190482
0.190377
0.190297
0.190249
0.190182
0.190075
0.189935
0.189773
0.189603
0.189438
0.189282
0.189142
0.18902
0.188913
0.188814
0.188733
0.188696
0.188671
0.188638
0.18862
0.188622
0.188612
0.188588
0.188556
0.188518
0.188477
0.188439
0.188412
0.188388
0.188366
0.188345
0.188324
0.188299
0.188271
0.188239
0.1882
0.188153
0.188106
0.188067
0.188028
0.187978
0.187928
0.187888
0.187857
0.187837
0.187827
0.187818
0.187805
0.187791
0.187781
0.187774
0.18777
0.187769
0.187772
0.18778
0.187791
0.187805
0.187819
0.187826
0.187831
0.187834
0.187848
0.187895
0.187918
0.962993
0.419968
0.282874
0.228356
0.205853
0.197134
0.193905
0.192745
0.192329
0.192165
0.192083
0.19204
0.192025
0.192016
0.19201
0.192007
0.192003
0.191999
0.191993
0.191988
0.191986
0.191978
0.191961
0.191937
0.191913
0.191895
0.19189
0.191906
0.191941
0.191995
0.192067
0.192155
0.192252
0.192351
0.192443
0.192528
0.192598
0.192657
0.192703
0.192739
0.192761
0.192775
0.192782
0.192784
0.192781
0.192776
0.192772
0.192767
0.192763
0.192759
0.192755
0.192745
0.192726
0.192703
0.192685
0.192671
0.192658
0.192649
0.19264
0.192625
0.192597
0.192548
0.19247
0.19236
0.19222
0.192053
0.191876
0.191705
0.191538
0.191393
0.191277
0.191198
0.191155
0.191139
0.191116
0.191081
0.191041
0.191002
0.190968
0.190941
0.190924
0.190919
0.190929
0.190948
0.190976
0.191012
0.191052
0.19109
0.191124
0.191151
0.191166
0.191167
0.191147
0.191109
0.191054
0.190974
0.190872
0.190755
0.190628
0.1905
0.190381
0.190282
0.190213
0.190166
0.190086
0.189971
0.189827
0.189665
0.189502
0.189348
0.189208
0.189085
0.188981
0.188892
0.18881
0.188744
0.188723
0.188717
0.188708
0.188718
0.18873
0.188723
0.1887
0.188664
0.188621
0.188574
0.188532
0.188503
0.188482
0.188462
0.188444
0.188423
0.188395
0.18836
0.188324
0.188286
0.188238
0.188189
0.188138
0.188086
0.188035
0.187984
0.187941
0.18791
0.187888
0.187867
0.187847
0.187827
0.187809
0.187797
0.187792
0.187792
0.187797
0.187808
0.187823
0.187843
0.187866
0.18789
0.187907
0.187921
0.187938
0.187963
0.188021
0.188051
0.969137
0.423246
0.284589
0.228906
0.205832
0.196687
0.1932
0.191952
0.191531
0.191405
0.191371
0.191368
0.191397
0.191422
0.191441
0.191461
0.191479
0.191497
0.191515
0.191536
0.191558
0.191566
0.191558
0.191537
0.191509
0.191482
0.191464
0.191467
0.191492
0.191535
0.191594
0.191671
0.191763
0.191864
0.191958
0.192055
0.192132
0.192198
0.192257
0.192303
0.192333
0.192351
0.192359
0.192364
0.19237
0.192377
0.192385
0.192394
0.192406
0.192419
0.192426
0.192423
0.192414
0.192403
0.192399
0.192399
0.192401
0.192406
0.192408
0.192401
0.192379
0.192334
0.192262
0.192159
0.192026
0.191873
0.191716
0.191568
0.191431
0.191316
0.191232
0.191185
0.191174
0.191171
0.191152
0.19112
0.191081
0.191042
0.191007
0.19098
0.190963
0.190959
0.190969
0.190988
0.191014
0.191053
0.191096
0.191138
0.191175
0.191203
0.191219
0.191219
0.191198
0.191161
0.191109
0.19103
0.190929
0.190813
0.190687
0.190562
0.19045
0.19036
0.190304
0.190245
0.190145
0.190012
0.189856
0.189686
0.189518
0.189366
0.189233
0.189121
0.189034
0.188965
0.188909
0.188873
0.188883
0.188912
0.188943
0.188997
0.189044
0.189073
0.189081
0.189069
0.189041
0.188998
0.188948
0.188903
0.188867
0.188833
0.188802
0.188775
0.188741
0.188701
0.188658
0.188612
0.188555
0.188493
0.188432
0.18837
0.188304
0.188242
0.188187
0.188145
0.188109
0.188077
0.188048
0.188022
0.188
0.187986
0.187984
0.187989
0.188004
0.188025
0.188052
0.188085
0.188121
0.188156
0.188186
0.188215
0.188249
0.188296
0.188375
0.18842
0.975587
0.427255
0.287308
0.230331
0.206339
0.196812
0.193191
0.191879
0.191432
0.191294
0.191258
0.191268
0.191298
0.191324
0.191356
0.191393
0.191425
0.191455
0.191487
0.191523
0.191558
0.191574
0.191568
0.191542
0.191502
0.191458
0.191423
0.191405
0.191414
0.191442
0.191486
0.191549
0.191631
0.191727
0.191819
0.191921
0.192007
0.192079
0.192147
0.192203
0.192239
0.19226
0.192269
0.192276
0.192287
0.192304
0.192326
0.192351
0.192381
0.1924
0.192404
0.192398
0.192389
0.192382
0.192383
0.19239
0.192402
0.192416
0.192424
0.192423
0.192405
0.19236
0.192287
0.192181
0.192045
0.191888
0.191733
0.191589
0.191464
0.191365
0.191306
0.191291
0.191312
0.191321
0.191313
0.191293
0.191266
0.191239
0.191216
0.191201
0.191195
0.191213
0.191234
0.191265
0.191301
0.191344
0.191389
0.191434
0.191472
0.191498
0.191508
0.191498
0.191465
0.19141
0.191334
0.191239
0.191126
0.191
0.190866
0.190737
0.190625
0.190542
0.190486
0.190401
0.190279
0.190127
0.189957
0.189779
0.189612
0.189467
0.189351
0.189265
0.189209
0.189178
0.189163
0.189171
0.189225
0.189302
0.189388
0.189494
0.189584
0.189646
0.189679
0.189683
0.189664
0.189622
0.189571
0.189518
0.189467
0.189411
0.189358
0.189311
0.189259
0.189202
0.189142
0.189084
0.189022
0.188952
0.188879
0.188803
0.188725
0.188654
0.188591
0.188529
0.188472
0.188418
0.188373
0.188335
0.188306
0.18829
0.188289
0.1883
0.188325
0.188359
0.1884
0.188446
0.188496
0.188543
0.188583
0.188622
0.188671
0.188733
0.188825
0.188874
0.982371
0.431878
0.290841
0.23258
0.207526
0.197391
0.193509
0.1921
0.191614
0.191464
0.191427
0.191451
0.191483
0.191511
0.191549
0.1916
0.191646
0.191691
0.191742
0.191804
0.191871
0.191916
0.191934
0.191921
0.191883
0.191826
0.191767
0.191719
0.191692
0.191687
0.191707
0.191753
0.191806
0.191859
0.191917
0.191989
0.192075
0.192158
0.192241
0.192311
0.192357
0.192382
0.192389
0.192393
0.192405
0.19243
0.192461
0.192497
0.192522
0.192529
0.192523
0.192509
0.192496
0.192495
0.192502
0.192518
0.192546
0.192568
0.192583
0.192591
0.192575
0.192526
0.192441
0.192326
0.192184
0.192026
0.191873
0.191741
0.191638
0.191575
0.191558
0.191597
0.191652
0.191693
0.19172
0.191739
0.19175
0.191759
0.191767
0.191779
0.191794
0.191825
0.191857
0.191894
0.19193
0.191966
0.192001
0.192034
0.192058
0.192069
0.19206
0.192029
0.191972
0.191893
0.191794
0.191669
0.191526
0.191376
0.191226
0.191087
0.190974
0.190898
0.190814
0.190694
0.190541
0.190366
0.190178
0.189991
0.189827
0.189695
0.189604
0.189554
0.189541
0.189557
0.189592
0.18965
0.189754
0.189883
0.190027
0.190183
0.190312
0.190407
0.190465
0.190489
0.190479
0.190439
0.190384
0.190325
0.19027
0.19021
0.190142
0.190068
0.18998
0.189895
0.189814
0.189744
0.189676
0.189595
0.189507
0.189417
0.189324
0.189237
0.189153
0.189066
0.188982
0.188905
0.188842
0.188792
0.188755
0.188735
0.188737
0.188757
0.188793
0.188841
0.188899
0.18896
0.189025
0.189083
0.189133
0.189184
0.18925
0.189332
0.189441
0.189502
0.989551
0.437083
0.295091
0.235557
0.209378
0.198529
0.194288
0.192715
0.192175
0.192021
0.191998
0.192054
0.192107
0.19215
0.192204
0.192279
0.192357
0.192436
0.192526
0.192637
0.192765
0.192873
0.192948
0.192985
0.192986
0.192944
0.192869
0.192779
0.192689
0.19261
0.19255
0.192515
0.192486
0.192455
0.192435
0.192436
0.192466
0.192526
0.192614
0.192693
0.192746
0.192773
0.192781
0.192783
0.192796
0.192828
0.192876
0.192913
0.192926
0.192922
0.192904
0.192881
0.192862
0.192864
0.192878
0.192916
0.192957
0.192981
0.19299
0.192991
0.192972
0.192915
0.19282
0.192697
0.192546
0.192384
0.192235
0.192116
0.192043
0.192027
0.192071
0.192176
0.192288
0.19239
0.192478
0.192562
0.192635
0.1927
0.192761
0.192819
0.192876
0.192935
0.192992
0.193038
0.193071
0.193091
0.193102
0.193103
0.193092
0.193063
0.193011
0.192933
0.192828
0.1927
0.192557
0.192391
0.192205
0.192014
0.191832
0.191674
0.191554
0.191449
0.191319
0.191157
0.190968
0.190764
0.190556
0.190363
0.190203
0.190088
0.190025
0.190014
0.190045
0.190111
0.190198
0.190305
0.190457
0.190633
0.190825
0.191028
0.191205
0.191346
0.191445
0.191498
0.191506
0.191476
0.191425
0.191358
0.191283
0.191192
0.191099
0.191004
0.190891
0.190776
0.190667
0.19058
0.190501
0.190407
0.1903
0.190194
0.190085
0.189979
0.189871
0.189757
0.189647
0.189546
0.189459
0.189391
0.189342
0.189319
0.189321
0.189347
0.189393
0.189458
0.189532
0.189612
0.189693
0.189765
0.189827
0.189893
0.189979
0.190087
0.190213
0.190281
0.994576
0.440781
0.298182
0.237793
0.210845
0.199504
0.19501
0.193327
0.192756
0.192612
0.192618
0.192712
0.192794
0.192855
0.192925
0.193021
0.19312
0.193227
0.193354
0.193514
0.193702
0.193875
0.194015
0.194112
0.19416
0.194135
0.194056
0.193957
0.193838
0.193712
0.193591
0.193485
0.193376
0.193261
0.193156
0.193076
0.193035
0.193043
0.193098
0.193166
0.193209
0.193225
0.19322
0.193209
0.19321
0.193234
0.193274
0.193297
0.193298
0.193284
0.193258
0.19323
0.19321
0.193215
0.193242
0.1933
0.193342
0.193365
0.193362
0.193347
0.193322
0.193257
0.193156
0.193025
0.192867
0.192703
0.192555
0.192447
0.192399
0.192422
0.192518
0.192681
0.19285
0.19302
0.19319
0.19337
0.193551
0.193728
0.193902
0.194066
0.19421
0.194327
0.194418
0.194475
0.194498
0.194487
0.194451
0.194396
0.19432
0.194218
0.194089
0.19393
0.193744
0.193539
0.193324
0.193094
0.19285
0.192606
0.19238
0.192189
0.19204
0.19189
0.19172
0.191524
0.191307
0.19108
0.19086
0.190661
0.190506
0.190405
0.190361
0.190375
0.190438
0.190539
0.19066
0.190802
0.190987
0.191199
0.191433
0.191683
0.191913
0.192115
0.192279
0.192397
0.192458
0.192464
0.192419
0.192338
0.192236
0.192114
0.191984
0.19185
0.191699
0.19155
0.191414
0.191303
0.191205
0.191085
0.190954
0.190825
0.190691
0.190561
0.190427
0.190288
0.190156
0.190035
0.18993
0.189846
0.189788
0.189761
0.189763
0.189793
0.189847
0.189923
0.190011
0.190103
0.190197
0.19028
0.190351
0.19043
0.190533
0.190661
0.190807
0.19089
0.997286
0.442842
0.299963
0.239143
0.211801
0.200215
0.1956
0.193874
0.1933
0.193174
0.193212
0.193333
0.193436
0.19351
0.193588
0.193692
0.193799
0.193922
0.194077
0.194272
0.194505
0.19472
0.194899
0.19503
0.195101
0.195088
0.195009
0.194889
0.194732
0.194558
0.194388
0.194234
0.194069
0.1939
0.193744
0.193616
0.19353
0.193499
0.193526
0.193579
0.193608
0.193609
0.193589
0.19356
0.193547
0.193562
0.193591
0.193597
0.193585
0.193558
0.193524
0.193493
0.193476
0.193486
0.193531
0.193598
0.193635
0.193654
0.19364
0.19361
0.193579
0.193505
0.193397
0.193258
0.193094
0.192928
0.192783
0.192684
0.192655
0.192709
0.19285
0.193067
0.193299
0.193551
0.19382
0.19411
0.194399
0.194672
0.19492
0.195141
0.195333
0.195496
0.195621
0.195691
0.195699
0.195649
0.19556
0.195445
0.195301
0.195124
0.194913
0.194672
0.194406
0.19413
0.193853
0.193573
0.193288
0.19301
0.192759
0.192545
0.192366
0.192178
0.191974
0.191751
0.191514
0.191275
0.191049
0.19085
0.190699
0.190607
0.190574
0.190603
0.190684
0.190804
0.190946
0.19111
0.191321
0.191564
0.191844
0.192146
0.19244
0.192718
0.192962
0.193149
0.193261
0.193295
0.19325
0.193152
0.193021
0.192858
0.192687
0.192511
0.19232
0.192135
0.191969
0.191833
0.191715
0.191574
0.191423
0.191272
0.191116
0.190962
0.190801
0.190638
0.190485
0.190345
0.190224
0.190127
0.190061
0.190031
0.190033
0.190067
0.190127
0.19021
0.190306
0.190407
0.190509
0.1906
0.19068
0.190769
0.190886
0.191031
0.191195
0.191293
1.00005
0.445019
0.301898
0.240672
0.212956
0.201138
0.196414
0.194656
0.194082
0.193971
0.194035
0.194173
0.194294
0.194378
0.194459
0.194568
0.194686
0.19483
0.195016
0.195252
0.19553
0.195791
0.196013
0.196183
0.196286
0.196303
0.196241
0.196102
0.195884
0.195621
0.195352
0.195104
0.194854
0.194611
0.194395
0.194217
0.194089
0.194021
0.19402
0.194058
0.194079
0.19407
0.194035
0.19399
0.19396
0.19396
0.193971
0.193965
0.193942
0.193908
0.193869
0.193838
0.193822
0.19384
0.193899
0.193966
0.193996
0.194004
0.193974
0.193929
0.193888
0.193805
0.19369
0.193544
0.193375
0.19321
0.193072
0.192989
0.192989
0.193089
0.193297
0.1936
0.193942
0.194332
0.194755
0.195194
0.195614
0.195993
0.196325
0.196619
0.196881
0.197108
0.19728
0.197365
0.197344
0.197231
0.197058
0.196844
0.196592
0.196298
0.195964
0.195595
0.195208
0.194822
0.194456
0.194106
0.193764
0.193443
0.193159
0.192922
0.192713
0.192492
0.192258
0.19201
0.191753
0.191503
0.19127
0.191071
0.190924
0.190842
0.190823
0.190868
0.19097
0.191113
0.191283
0.191481
0.191734
0.192033
0.192383
0.192774
0.193171
0.193555
0.193894
0.194153
0.194308
0.194356
0.194297
0.194158
0.193962
0.193729
0.193492
0.193253
0.193008
0.192778
0.192575
0.192408
0.192266
0.192106
0.191938
0.191769
0.191594
0.191418
0.191231
0.191043
0.190868
0.19071
0.190572
0.19046
0.190386
0.190352
0.190353
0.19039
0.190457
0.190548
0.190654
0.190764
0.190877
0.190978
0.191069
0.19117
0.191301
0.191462
0.191642
0.191749
1.00288
0.447337
0.304018
0.242414
0.214338
0.202297
0.197462
0.195664
0.195084
0.194986
0.195074
0.195234
0.195385
0.195488
0.195582
0.195701
0.195837
0.196011
0.196247
0.196548
0.196907
0.197261
0.197584
0.197863
0.198071
0.198172
0.198148
0.19798
0.19766
0.197245
0.196806
0.196397
0.196001
0.195635
0.19532
0.195066
0.194875
0.194755
0.194713
0.194726
0.194727
0.194697
0.194636
0.194563
0.194503
0.194475
0.194457
0.194428
0.194388
0.194342
0.194297
0.194263
0.194251
0.19428
0.194351
0.194417
0.194436
0.194433
0.194386
0.194322
0.194265
0.194171
0.194046
0.193893
0.193721
0.193562
0.193439
0.193382
0.193425
0.193596
0.19391
0.194351
0.194863
0.195453
0.196095
0.19675
0.197379
0.197948
0.198447
0.198887
0.199278
0.199613
0.199859
0.199971
0.19991
0.199696
0.199379
0.198997
0.198561
0.198071
0.197527
0.196944
0.19635
0.19578
0.195263
0.194798
0.194372
0.193984
0.193646
0.193371
0.193115
0.192852
0.192582
0.192304
0.192024
0.191758
0.191519
0.19132
0.191179
0.19111
0.191107
0.191176
0.191305
0.191482
0.191692
0.191944
0.192266
0.192655
0.193117
0.19364
0.194183
0.194721
0.195215
0.195625
0.195906
0.196029
0.195965
0.195744
0.195416
0.195035
0.194655
0.194284
0.193929
0.193611
0.193343
0.193125
0.19294
0.192747
0.19255
0.192353
0.192152
0.191948
0.191729
0.191512
0.191312
0.191131
0.190975
0.190847
0.190762
0.190725
0.190726
0.190768
0.190843
0.190943
0.191059
0.191179
0.191302
0.191414
0.191515
0.191626
0.191767
0.191939
0.192133
0.19225
1.00581
0.44983
0.306353
0.244389
0.215957
0.203688
0.198733
0.196892
0.196314
0.196244
0.19638
0.196596
0.196805
0.196954
0.197078
0.197221
0.197389
0.197619
0.19794
0.198351
0.198843
0.199347
0.199836
0.200298
0.200687
0.200941
0.201017
0.200824
0.20033
0.199638
0.198891
0.198193
0.197547
0.196981
0.196517
0.196156
0.195889
0.19571
0.195624
0.195608
0.195584
0.195526
0.195433
0.195321
0.195217
0.195148
0.195087
0.195022
0.194956
0.194891
0.194836
0.194798
0.194793
0.194836
0.19492
0.194985
0.194996
0.194977
0.194911
0.194822
0.194743
0.194633
0.194495
0.194333
0.194162
0.194014
0.193915
0.1939
0.194015
0.194296
0.194771
0.19542
0.196187
0.197075
0.198059
0.199089
0.200098
0.20101
0.201779
0.202419
0.202971
0.203445
0.203795
0.203939
0.203805
0.203422
0.202867
0.202206
0.20147
0.200661
0.199781
0.198854
0.197927
0.197057
0.196291
0.195639
0.195079
0.194601
0.194198
0.193871
0.193561
0.193251
0.192942
0.19263
0.192325
0.192043
0.191796
0.191599
0.191468
0.191417
0.191439
0.191541
0.191711
0.191938
0.192212
0.192547
0.192975
0.193501
0.194135
0.194861
0.195647
0.196473
0.197287
0.198016
0.198548
0.198806
0.198727
0.19835
0.19777
0.197093
0.196428
0.195805
0.195239
0.194756
0.194363
0.19405
0.193791
0.193542
0.1933
0.193063
0.192821
0.192577
0.192316
0.192062
0.19183
0.191622
0.191443
0.191296
0.1912
0.191158
0.191159
0.191207
0.19129
0.191401
0.191526
0.191656
0.191788
0.19191
0.192019
0.192139
0.19229
0.192477
0.192688
0.192822
1.00885
0.452512
0.308904
0.246589
0.217807
0.205314
0.200254
0.198393
0.197852
0.197847
0.198077
0.198405
0.198737
0.198987
0.199182
0.199374
0.199599
0.199924
0.20039
0.200993
0.201719
0.202504
0.203329
0.204179
0.204969
0.205562
0.205854
0.205632
0.204817
0.203603
0.202267
0.201011
0.199892
0.198956
0.198219
0.197669
0.197272
0.197005
0.196859
0.196801
0.196741
0.196643
0.196504
0.196336
0.196172
0.19604
0.195917
0.1958
0.195694
0.195603
0.195532
0.195491
0.195498
0.195559
0.195656
0.195723
0.195731
0.195692
0.195605
0.195484
0.195375
0.19524
0.195083
0.19491
0.194741
0.194612
0.194553
0.194606
0.194833
0.195287
0.196006
0.19697
0.198135
0.19951
0.201083
0.202792
0.204504
0.206049
0.207293
0.208244
0.209018
0.209669
0.210144
0.210301
0.210003
0.209304
0.208336
0.207206
0.205976
0.204656
0.203242
0.201767
0.2003
0.198935
0.197752
0.196781
0.195993
0.195358
0.194852
0.194447
0.194065
0.193698
0.193342
0.192991
0.192659
0.192359
0.192108
0.191917
0.191801
0.191776
0.191837
0.19199
0.192223
0.192527
0.192901
0.193362
0.193954
0.194692
0.195603
0.196688
0.197935
0.199324
0.200767
0.202107
0.203118
0.203627
0.203505
0.202826