/*--------------------------------*- C++ -*----------------------------------*\
| =========                 |                                                 |
| \\      /  F ield         | OpenFOAM: The Open Source CFD Toolbox           |
|  \\    /   O peration     | Version:  v1912                                 |
|   \\  /    A nd           | Website:  www.openfoam.com                      |
|    \\/     M anipulation  |                                                 |
\*---------------------------------------------------------------------------*/
FoamFile
{
    version     2.0;
    format      ascii;
    class       volScalarField;
    location    "40";
    object      k;
}
// * * * * * * * * * * * * * * * * * * * * * * * * * * * * * * * * * * * * * //

dimensions      [0 2 -2 0 0 0 0];


internalField   nonuniform List<scalar> 
14268
(
2.41353e-09
2.40261e-09
2.39288e-09
2.3838e-09
2.37548e-09
2.36614e-09
2.35561e-09
2.34399e-09
2.32879e-09
2.31251e-09
2.29747e-09
2.28552e-09
2.27737e-09
2.27214e-09
2.26772e-09
2.26151e-09
2.25544e-09
2.2489e-09
2.24259e-09
2.23731e-09
2.23456e-09
2.23592e-09
2.25735e-09
2.3107e-09
2.40217e-09
2.53761e-09
2.73609e-09
3.03408e-09
3.51242e-09
4.2896e-09
5.4567e-09
7.13626e-09
9.26744e-09
1.14246e-08
1.34551e-08
1.36983e-08
1.13362e-08
7.99394e-09
5.37665e-09
3.8771e-09
2.89272e-09
2.37227e-09
1.93919e-09
1.17041e-09
4.91781e-08
4.90217e-08
4.88987e-08
4.88083e-08
4.87499e-08
4.86912e-08
4.86196e-08
4.85298e-08
4.83806e-08
4.82035e-08
4.80366e-08
4.79155e-08
4.78607e-08
4.78627e-08
4.78851e-08
4.78769e-08
4.78651e-08
4.78303e-08
4.77836e-08
4.77458e-08
4.77599e-08
4.78638e-08
4.81079e-08
4.85256e-08
4.91922e-08
5.01454e-08
5.15098e-08
5.34056e-08
5.60879e-08
5.96619e-08
6.43225e-08
7.0103e-08
7.67267e-08
8.31622e-08
8.94204e-08
9.30091e-08
9.06836e-08
8.09288e-08
6.75442e-08
5.48861e-08
4.50871e-08
4.07804e-08
3.51032e-08
2.43746e-08
9.40221e-08
9.39255e-08
9.38523e-08
9.38018e-08
9.37731e-08
9.37473e-08
9.37149e-08
9.36722e-08
9.35958e-08
9.35023e-08
9.34134e-08
9.335e-08
9.33267e-08
9.33373e-08
9.3363e-08
9.33679e-08
9.33704e-08
9.33528e-08
9.33254e-08
9.32962e-08
9.33028e-08
9.33647e-08
9.35055e-08
9.37198e-08
9.4065e-08
9.45355e-08
9.52181e-08
9.61266e-08
9.74073e-08
9.90643e-08
1.01286e-07
1.04189e-07
1.07903e-07
1.11877e-07
1.16157e-07
1.18986e-07
1.18151e-07
1.12727e-07
1.05047e-07
9.76629e-08
9.07164e-08
8.79791e-08
8.27548e-08
7.10899e-08
1.05527e-07
1.05495e-07
1.05471e-07
1.05455e-07
1.05446e-07
1.05439e-07
1.0543e-07
1.05419e-07
1.05396e-07
1.05368e-07
1.05343e-07
1.05326e-07
1.05322e-07
1.05328e-07
1.0534e-07
1.05343e-07
1.05347e-07
1.0534e-07
1.05332e-07
1.05317e-07
1.05319e-07
1.05335e-07
1.05381e-07
1.05438e-07
1.05544e-07
1.05675e-07
1.0589e-07
1.06169e-07
1.06623e-07
1.07292e-07
1.08373e-07
1.10098e-07
1.12655e-07
1.15689e-07
1.19264e-07
1.21737e-07
1.21162e-07
1.17398e-07
1.12799e-07
1.08792e-07
1.0559e-07
1.03551e-07
1.01773e-07
9.65519e-08
1.0752e-07
1.07512e-07
1.07508e-07
1.07506e-07
1.07505e-07
1.07505e-07
1.07503e-07
1.07502e-07
1.07498e-07
1.07491e-07
1.07485e-07
1.07481e-07
1.07481e-07
1.07484e-07
1.07489e-07
1.0749e-07
1.07493e-07
1.07489e-07
1.07487e-07
1.07478e-07
1.07477e-07
1.07475e-07
1.07486e-07
1.07492e-07
1.0752e-07
1.07543e-07
1.07617e-07
1.07715e-07
1.07952e-07
1.08391e-07
1.09235e-07
1.10727e-07
1.13112e-07
1.16028e-07
1.19489e-07
1.21967e-07
1.21502e-07
1.17985e-07
1.13721e-07
1.11136e-07
1.08586e-07
1.08165e-07
1.06833e-07
1.06569e-07
1.07723e-07
1.0772e-07
1.07719e-07
1.07718e-07
1.07717e-07
1.07716e-07
1.07716e-07
1.07715e-07
1.07713e-07
1.07708e-07
1.07705e-07
1.07702e-07
1.07702e-07
1.07703e-07
1.07706e-07
1.07703e-07
1.07704e-07
1.07699e-07
1.07698e-07
1.07688e-07
1.07686e-07
1.07682e-07
1.07688e-07
1.07687e-07
1.07703e-07
1.07712e-07
1.07767e-07
1.07842e-07
1.08057e-07
1.08474e-07
1.09287e-07
1.1075e-07
1.13119e-07
1.16024e-07
1.195e-07
1.22025e-07
1.21535e-07
1.18069e-07
1.14065e-07
1.11163e-07
1.09751e-07
1.08462e-07
1.0839e-07
1.08637e-07
1.07787e-07
1.07785e-07
1.07784e-07
1.07784e-07
1.07785e-07
1.07785e-07
1.07784e-07
1.07784e-07
1.07783e-07
1.07781e-07
1.07781e-07
1.07782e-07
1.07784e-07
1.07785e-07
1.07789e-07
1.07788e-07
1.0779e-07
1.07786e-07
1.07784e-07
1.07777e-07
1.07777e-07
1.0777e-07
1.07773e-07
1.07769e-07
1.07782e-07
1.07786e-07
1.07832e-07
1.07896e-07
1.08096e-07
1.085e-07
1.09297e-07
1.10762e-07
1.13113e-07
1.16049e-07
1.19566e-07
1.22032e-07
1.21502e-07
1.18045e-07
1.14018e-07
1.11554e-07
1.09393e-07
1.09017e-07
1.08285e-07
1.09833e-07
1.0776e-07
1.07758e-07
1.07758e-07
1.07758e-07
1.07757e-07
1.07757e-07
1.07757e-07
1.07757e-07
1.07755e-07
1.07751e-07
1.07748e-07
1.07746e-07
1.07747e-07
1.07747e-07
1.07749e-07
1.07747e-07
1.07748e-07
1.07744e-07
1.07743e-07
1.07734e-07
1.07732e-07
1.07726e-07
1.07729e-07
1.07725e-07
1.07738e-07
1.07742e-07
1.0779e-07
1.07859e-07
1.08066e-07
1.08475e-07
1.09286e-07
1.10749e-07
1.1312e-07
1.16043e-07
1.19514e-07
1.21992e-07
1.21526e-07
1.18064e-07
1.14094e-07
1.11377e-07
1.0985e-07
1.08664e-07
1.08717e-07
1.09493e-07
1.07787e-07
1.07785e-07
1.07785e-07
1.07785e-07
1.07785e-07
1.07786e-07
1.07785e-07
1.07786e-07
1.07785e-07
1.07782e-07
1.07781e-07
1.07781e-07
1.07782e-07
1.07783e-07
1.07786e-07
1.07785e-07
1.07787e-07
1.07784e-07
1.07782e-07
1.07774e-07
1.07773e-07
1.07767e-07
1.07771e-07
1.07767e-07
1.07779e-07
1.07782e-07
1.07828e-07
1.07893e-07
1.08092e-07
1.08496e-07
1.09296e-07
1.10758e-07
1.13131e-07
1.16042e-07
1.19527e-07
1.22024e-07
1.21534e-07
1.18097e-07
1.14056e-07
1.11485e-07
1.09494e-07
1.09055e-07
1.08453e-07
1.09977e-07
1.07763e-07
1.07762e-07
1.07761e-07
1.07761e-07
1.07761e-07
1.0776e-07
1.07761e-07
1.07761e-07
1.07759e-07
1.07756e-07
1.07754e-07
1.07753e-07
1.07754e-07
1.07754e-07
1.07757e-07
1.07754e-07
1.07756e-07
1.07751e-07
1.0775e-07
1.07741e-07
1.07739e-07
1.07733e-07
1.07736e-07
1.07731e-07
1.07744e-07
1.07748e-07
1.07795e-07
1.07863e-07
1.08067e-07
1.08476e-07
1.09283e-07
1.10749e-07
1.13115e-07
1.16029e-07
1.19511e-07
1.22006e-07
1.21516e-07
1.18058e-07
1.14052e-07
1.11411e-07
1.09827e-07
1.08664e-07
1.08761e-07
1.0971e-07
1.07785e-07
1.07783e-07
1.07782e-07
1.07782e-07
1.07782e-07
1.07782e-07
1.07782e-07
1.07782e-07
1.07781e-07
1.07778e-07
1.07777e-07
1.07776e-07
1.07778e-07
1.07779e-07
1.07782e-07
1.07781e-07
1.07783e-07
1.07779e-07
1.07778e-07
1.0777e-07
1.07768e-07
1.07762e-07
1.07766e-07
1.07762e-07
1.07774e-07
1.07777e-07
1.07823e-07
1.07888e-07
1.08087e-07
1.08491e-07
1.09296e-07
1.10761e-07
1.13121e-07
1.16065e-07
1.19555e-07
1.22056e-07
1.21562e-07
1.18092e-07
1.14079e-07
1.11527e-07
1.09611e-07
1.09043e-07
1.08524e-07
1.09959e-07
1.07768e-07
1.07766e-07
1.07766e-07
1.07766e-07
1.07765e-07
1.07765e-07
1.07765e-07
1.07765e-07
1.07764e-07
1.07761e-07
1.07759e-07
1.07758e-07
1.07759e-07
1.0776e-07
1.07763e-07
1.0776e-07
1.07762e-07
1.07758e-07
1.07756e-07
1.07747e-07
1.07746e-07
1.0774e-07
1.07744e-07
1.07739e-07
1.0775e-07
1.07754e-07
1.078e-07
1.07867e-07
1.08072e-07
1.08483e-07
1.09294e-07
1.10752e-07
1.13118e-07
1.16044e-07
1.19527e-07
1.22026e-07
1.21543e-07
1.18101e-07
1.14098e-07
1.11407e-07
1.09779e-07
1.08665e-07
1.08762e-07
1.0977e-07
1.07782e-07
1.0778e-07
1.07779e-07
1.07779e-07
1.07779e-07
1.07779e-07
1.07779e-07
1.0778e-07
1.07778e-07
1.07775e-07
1.07774e-07
1.07773e-07
1.07774e-07
1.07775e-07
1.07779e-07
1.07778e-07
1.07779e-07
1.07775e-07
1.07774e-07
1.07766e-07
1.07764e-07
1.07757e-07
1.07757e-07
1.07756e-07
1.0777e-07
1.07774e-07
1.07823e-07
1.0789e-07
1.08091e-07
1.08496e-07
1.09296e-07
1.10754e-07
1.13114e-07
1.1598e-07
1.1947e-07
1.21988e-07
1.21531e-07
1.18098e-07
1.14069e-07
1.115e-07
1.09631e-07
1.08965e-07
1.08593e-07
1.09959e-07
1.07777e-07
1.07775e-07
1.07775e-07
1.07775e-07
1.07775e-07
1.07775e-07
1.07776e-07
1.07776e-07
1.07774e-07
1.07771e-07
1.0777e-07
1.07769e-07
1.0777e-07
1.07771e-07
1.07774e-07
1.07773e-07
1.07774e-07
1.07771e-07
1.0777e-07
1.07762e-07
1.07761e-07
1.07758e-07
1.07766e-07
1.07761e-07
1.0777e-07
1.07773e-07
1.07819e-07
1.07883e-07
1.08085e-07
1.08489e-07
1.09288e-07
1.10744e-07
1.13085e-07
1.16016e-07
1.19508e-07
1.21947e-07
1.21525e-07
1.18067e-07
1.1406e-07
1.11474e-07
1.09815e-07
1.08672e-07
1.08741e-07
1.09744e-07
1.07789e-07
1.07787e-07
1.07787e-07
1.07788e-07
1.07788e-07
1.07788e-07
1.07788e-07
1.07789e-07
1.07787e-07
1.07785e-07
1.07784e-07
1.07783e-07
1.07785e-07
1.07786e-07
1.0779e-07
1.07788e-07
1.0779e-07
1.07787e-07
1.07785e-07
1.07777e-07
1.07774e-07
1.07765e-07
1.07765e-07
1.07762e-07
1.07776e-07
1.0778e-07
1.07827e-07
1.07893e-07
1.08094e-07
1.08496e-07
1.09296e-07
1.10751e-07
1.13137e-07
1.16114e-07
1.19655e-07
1.2208e-07
1.21537e-07
1.18089e-07
1.14101e-07
1.11378e-07
1.09723e-07
1.08865e-07
1.08777e-07
1.09766e-07
1.07781e-07
1.07779e-07
1.07779e-07
1.07779e-07
1.07779e-07
1.07779e-07
1.07779e-07
1.0778e-07
1.07778e-07
1.07776e-07
1.07775e-07
1.07774e-07
1.07776e-07
1.07777e-07
1.0778e-07
1.07779e-07
1.07781e-07
1.07779e-07
1.07778e-07
1.07771e-07
1.07772e-07
1.0777e-07
1.07776e-07
1.07772e-07
1.07783e-07
1.07785e-07
1.07828e-07
1.07889e-07
1.08087e-07
1.08488e-07
1.09289e-07
1.10742e-07
1.13102e-07
1.15987e-07
1.19472e-07
1.22078e-07
1.21653e-07
1.18166e-07
1.14106e-07
1.11526e-07
1.09781e-07
1.08599e-07
1.08577e-07
1.09404e-07
1.07791e-07
1.0779e-07
1.07791e-07
1.07792e-07
1.07793e-07
1.07794e-07
1.07793e-07
1.07794e-07
1.07793e-07
1.07788e-07
1.07785e-07
1.07783e-07
1.07784e-07
1.07785e-07
1.07789e-07
1.07787e-07
1.07789e-07
1.07782e-07
1.07781e-07
1.07773e-07
1.07768e-07
1.07758e-07
1.07758e-07
1.07752e-07
1.07765e-07
1.07769e-07
1.07818e-07
1.07886e-07
1.08089e-07
1.0849e-07
1.093e-07
1.10767e-07
1.13106e-07
1.16001e-07
1.19489e-07
1.21969e-07
1.21457e-07
1.1807e-07
1.1414e-07
1.11402e-07
1.09763e-07
1.08865e-07
1.08859e-07
1.09524e-07
1.07789e-07
1.07788e-07
1.07786e-07
1.07785e-07
1.07783e-07
1.07782e-07
1.07783e-07
1.07785e-07
1.07785e-07
1.07786e-07
1.07788e-07
1.07787e-07
1.07788e-07
1.07791e-07
1.07794e-07
1.07794e-07
1.07797e-07
1.07797e-07
1.07796e-07
1.07788e-07
1.07789e-07
1.07786e-07
1.07792e-07
1.0779e-07
1.07801e-07
1.078e-07
1.0784e-07
1.07894e-07
1.08084e-07
1.08475e-07
1.09267e-07
1.10744e-07
1.13159e-07
1.16149e-07
1.19693e-07
1.22244e-07
1.21576e-07
1.18092e-07
1.14149e-07
1.11486e-07
1.09787e-07
1.08582e-07
1.08479e-07
1.09283e-07
1.07778e-07
1.07776e-07
1.07777e-07
1.07779e-07
1.07781e-07
1.07783e-07
1.07781e-07
1.07779e-07
1.07774e-07
1.07768e-07
1.07763e-07
1.07762e-07
1.07762e-07
1.07762e-07
1.07766e-07
1.07762e-07
1.07763e-07
1.07757e-07
1.07755e-07
1.07746e-07
1.07742e-07
1.07734e-07
1.07735e-07
1.07726e-07
1.07738e-07
1.07745e-07
1.07796e-07
1.07867e-07
1.08074e-07
1.08486e-07
1.09263e-07
1.10743e-07
1.13116e-07
1.16028e-07
1.19451e-07
1.21978e-07
1.2158e-07
1.18078e-07
1.14034e-07
1.11364e-07
1.09981e-07
1.0898e-07
1.08919e-07
1.0937e-07
1.07804e-07
1.07803e-07
1.07802e-07
1.07801e-07
1.078e-07
1.078e-07
1.07803e-07
1.07808e-07
1.07812e-07
1.07813e-07
1.07815e-07
1.07814e-07
1.07816e-07
1.07818e-07
1.07821e-07
1.07824e-07
1.07827e-07
1.07826e-07
1.07826e-07
1.07819e-07
1.0782e-07
1.07814e-07
1.07817e-07
1.07814e-07
1.07823e-07
1.0782e-07
1.07855e-07
1.07905e-07
1.0809e-07
1.08483e-07
1.09338e-07
1.10917e-07
1.13261e-07
1.16085e-07
1.19659e-07
1.22145e-07
1.21335e-07
1.18022e-07
1.14145e-07
1.11592e-07
1.09672e-07
1.08388e-07
1.08354e-07
1.09197e-07
1.07753e-07
1.07751e-07
1.07752e-07
1.07754e-07
1.07756e-07
1.07756e-07
1.07752e-07
1.07746e-07
1.07738e-07
1.07729e-07
1.07724e-07
1.07722e-07
1.07723e-07
1.07723e-07
1.07727e-07
1.07721e-07
1.07721e-07
1.07715e-07
1.07712e-07
1.07703e-07
1.07701e-07
1.07695e-07
1.07696e-07
1.07686e-07
1.07696e-07
1.07703e-07
1.07756e-07
1.07833e-07
1.08047e-07
1.08453e-07
1.09312e-07
1.10758e-07
1.13058e-07
1.1598e-07
1.1961e-07
1.22241e-07
1.21551e-07
1.17872e-07
1.13993e-07
1.11254e-07
1.09852e-07
1.09146e-07
1.08938e-07
1.09259e-07
1.07801e-07
1.07799e-07
1.07799e-07
1.07798e-07
1.07798e-07
1.07798e-07
1.078e-07
1.07803e-07
1.07805e-07
1.07805e-07
1.07806e-07
1.07804e-07
1.07805e-07
1.07806e-07
1.0781e-07
1.0781e-07
1.07812e-07
1.07809e-07
1.07808e-07
1.07798e-07
1.07794e-07
1.07785e-07
1.07787e-07
1.07782e-07
1.07793e-07
1.07794e-07
1.07833e-07
1.07888e-07
1.08076e-07
1.08458e-07
1.09229e-07
1.10621e-07
1.12961e-07
1.15953e-07
1.19512e-07
1.22185e-07
1.2176e-07
1.1831e-07
1.14233e-07
1.11533e-07
1.09536e-07
1.08575e-07
1.08464e-07
1.09084e-07
1.07781e-07
1.07779e-07
1.0778e-07
1.0778e-07
1.07781e-07
1.07782e-07
1.07781e-07
1.07778e-07
1.07773e-07
1.07767e-07
1.07764e-07
1.07762e-07
1.07762e-07
1.07762e-07
1.07767e-07
1.07763e-07
1.07765e-07
1.07761e-07
1.07759e-07
1.07748e-07
1.07746e-07
1.07739e-07
1.07739e-07
1.07729e-07
1.07735e-07
1.07733e-07
1.07771e-07
1.07825e-07
1.0801e-07
1.08392e-07
1.09198e-07
1.10726e-07
1.13151e-07
1.16206e-07
1.20012e-07
1.22925e-07
1.22653e-07
1.18901e-07
1.144e-07
1.11658e-07
1.09681e-07
1.09542e-07
1.08837e-07
1.08826e-07
1.0782e-07
1.07817e-07
1.07816e-07
1.07813e-07
1.07812e-07
1.07811e-07
1.07815e-07
1.07824e-07
1.07831e-07
1.07832e-07
1.07831e-07
1.07829e-07
1.07827e-07
1.07827e-07
1.07831e-07
1.07836e-07
1.07839e-07
1.07837e-07
1.07836e-07
1.07827e-07
1.0782e-07
1.07807e-07
1.07804e-07
1.07795e-07
1.07802e-07
1.07794e-07
1.07818e-07
1.07848e-07
1.08006e-07
1.08347e-07
1.09108e-07
1.10557e-07
1.13029e-07
1.1637e-07
1.20394e-07
1.2408e-07
1.23116e-07
1.1938e-07
1.14677e-07
1.12301e-07
1.09433e-07
1.08661e-07
1.08343e-07
1.08717e-07
1.07754e-07
1.07752e-07
1.07752e-07
1.07753e-07
1.07752e-07
1.07752e-07
1.07749e-07
1.07744e-07
1.07736e-07
1.07729e-07
1.07728e-07
1.07723e-07
1.07722e-07
1.0772e-07
1.07723e-07
1.07718e-07
1.0772e-07
1.07717e-07
1.07714e-07
1.07701e-07
1.07697e-07
1.07689e-07
1.07686e-07
1.07674e-07
1.07673e-07
1.07666e-07
1.07696e-07
1.07742e-07
1.07915e-07
1.08294e-07
1.09102e-07
1.10728e-07
1.13358e-07
1.1683e-07
1.213e-07
1.26081e-07
1.25772e-07
1.21122e-07
1.15337e-07
1.11883e-07
1.09815e-07
1.09753e-07
1.09266e-07
1.08654e-07
1.0784e-07
1.07837e-07
1.07835e-07
1.07832e-07
1.07829e-07
1.07829e-07
1.07833e-07
1.07845e-07
1.07855e-07
1.07855e-07
1.0785e-07
1.07847e-07
1.07843e-07
1.07841e-07
1.07845e-07
1.07854e-07
1.07859e-07
1.07858e-07
1.07856e-07
1.07844e-07
1.07834e-07
1.0782e-07
1.07812e-07
1.07799e-07
1.07802e-07
1.07788e-07
1.07797e-07
1.07807e-07
1.07943e-07
1.08266e-07
1.09048e-07
1.10695e-07
1.134e-07
1.17013e-07
1.23362e-07
1.33236e-07
1.30761e-07
1.24185e-07
1.16572e-07
1.12569e-07
1.0953e-07
1.08695e-07
1.0848e-07
1.08752e-07
1.07724e-07
1.07721e-07
1.07721e-07
1.0772e-07
1.07718e-07
1.07716e-07
1.07714e-07
1.07709e-07
1.07699e-07
1.07694e-07
1.07694e-07
1.07689e-07
1.07686e-07
1.07682e-07
1.07684e-07
1.07678e-07
1.07679e-07
1.07677e-07
1.07676e-07
1.07663e-07
1.07655e-07
1.07643e-07
1.07639e-07
1.07622e-07
1.07617e-07
1.07609e-07
1.07638e-07
1.0768e-07
1.07851e-07
1.08208e-07
1.09102e-07
1.10848e-07
1.13462e-07
1.17179e-07
1.33687e-07
1.72713e-07
1.65017e-07
1.44144e-07
1.23063e-07
1.15321e-07
1.10512e-07
1.09923e-07
1.09365e-07
1.08865e-07
1.07851e-07
1.07848e-07
1.07845e-07
1.0784e-07
1.07835e-07
1.07834e-07
1.07841e-07
1.07856e-07
1.07869e-07
1.07865e-07
1.07855e-07
1.07849e-07
1.07842e-07
1.07838e-07
1.07843e-07
1.07856e-07
1.07863e-07
1.07863e-07
1.07863e-07
1.07851e-07
1.07844e-07
1.07829e-07
1.07816e-07
1.07799e-07
1.07799e-07
1.07772e-07
1.07759e-07
1.07745e-07
1.07852e-07
1.08119e-07
1.0902e-07
1.10651e-07
1.11701e-07
1.20898e-07
1.98726e-07
3.67352e-07
3.25477e-07
2.3183e-07
1.55125e-07
1.28645e-07
1.15896e-07
1.11545e-07
1.09457e-07
1.09176e-07
1.07675e-07
1.07668e-07
1.07665e-07
1.07664e-07
1.07659e-07
1.07652e-07
1.07651e-07
1.07646e-07
1.07638e-07
1.07641e-07
1.07645e-07
1.07642e-07
1.07638e-07
1.07632e-07
1.07634e-07
1.07624e-07
1.07624e-07
1.0762e-07
1.07618e-07
1.07599e-07
1.07583e-07
1.07569e-07
1.07565e-07
1.07548e-07
1.07543e-07
1.0754e-07
1.07577e-07
1.07622e-07
1.0781e-07
1.08177e-07
1.0891e-07
1.08771e-07
1.10376e-07
1.65944e-07
4.95544e-07
9.60389e-07
8.1831e-07
4.76569e-07
2.4592e-07
1.66494e-07
1.32958e-07
1.20793e-07
1.12964e-07
1.10366e-07
1.07867e-07
1.07866e-07
1.0787e-07
1.07871e-07
1.07866e-07
1.0786e-07
1.07864e-07
1.0788e-07
1.07884e-07
1.07871e-07
1.07854e-07
1.07842e-07
1.07828e-07
1.07818e-07
1.07824e-07
1.07848e-07
1.07855e-07
1.07859e-07
1.07863e-07
1.07853e-07
1.07845e-07
1.07831e-07
1.07812e-07
1.07793e-07
1.07787e-07
1.07741e-07
1.07688e-07
1.07614e-07
1.07542e-07
1.07378e-07
1.06604e-07
1.0346e-07
1.26044e-07
4.02823e-07
1.11661e-06
1.51819e-06
1.41779e-06
9.06993e-07
4.22455e-07
2.46163e-07
1.74344e-07
1.46822e-07
1.27014e-07
1.15959e-07
1.07512e-07
1.07511e-07
1.07512e-07
1.07517e-07
1.07515e-07
1.07504e-07
1.07509e-07
1.07515e-07
1.07523e-07
1.07537e-07
1.07544e-07
1.07544e-07
1.07537e-07
1.07526e-07
1.07522e-07
1.07515e-07
1.07514e-07
1.07494e-07
1.07471e-07
1.07452e-07
1.07443e-07
1.07426e-07
1.07409e-07
1.07351e-07
1.07267e-07
1.07127e-07
1.0696e-07
1.06628e-07
1.06027e-07
1.04276e-07
9.80379e-08
1.03698e-07
2.48359e-07
8.9457e-07
1.52057e-06
1.67904e-06
1.59096e-06
1.19964e-06
5.91619e-07
3.50918e-07
2.61169e-07
2.10938e-07
1.67441e-07
1.34709e-07
1.06781e-07
1.06761e-07
1.06751e-07
1.06749e-07
1.06734e-07
1.0672e-07
1.06704e-07
1.06691e-07
1.06702e-07
1.06742e-07
1.06782e-07
1.06788e-07
1.06756e-07
1.06692e-07
1.06663e-07
1.06678e-07
1.06691e-07
1.06665e-07
1.06627e-07
1.06587e-07
1.06539e-07
1.06465e-07
1.06356e-07
1.06095e-07
1.05569e-07
1.04626e-07
1.03364e-07
1.01448e-07
9.79337e-08
9.03672e-08
8.86192e-08
1.51394e-07
5.84346e-07
1.15623e-06
1.36859e-06
1.37307e-06
1.49531e-06
1.27136e-06
7.94005e-07
5.6848e-07
6.57761e-07
6.96098e-07
5.71592e-07
3.21924e-07
9.78259e-08
9.80228e-08
9.8114e-08
9.81869e-08
9.82192e-08
9.8279e-08
9.8319e-08
9.81566e-08
9.81855e-08
9.85671e-08
9.89522e-08
9.91247e-08
9.9017e-08
9.86468e-08
9.82652e-08
9.8006e-08
9.76133e-08
9.70326e-08
9.66911e-08
9.66969e-08
9.67496e-08
9.65868e-08
9.61524e-08
9.50163e-08
9.20818e-08
8.75328e-08
8.28585e-08
7.75551e-08
7.116e-08
6.90066e-08
1.01095e-07
3.48803e-07
7.57497e-07
9.31664e-07
9.403e-07
1.19905e-06
1.64002e-06
1.87576e-06
1.9416e-06
2.21627e-06
2.90636e-06
3.33512e-06
3.48667e-06
3.48401e-06
6.06635e-08
6.10479e-08
6.11321e-08
6.11214e-08
6.10496e-08
6.09412e-08
6.01969e-08
5.78427e-08
5.64911e-08
5.71355e-08
5.82186e-08
5.89395e-08
5.89714e-08
5.8228e-08
5.68963e-08
5.47384e-08
5.1508e-08
4.89233e-08
4.80958e-08
4.86795e-08
4.95318e-08
4.9739e-08
4.99221e-08
5.09006e-08
4.97749e-08
4.79355e-08
4.768e-08
4.80226e-08
4.93463e-08
6.44461e-08
1.93223e-07
4.82217e-07
6.19083e-07
6.27572e-07
6.23692e-07
6.44341e-07
7.55546e-07
1.07035e-06
1.34758e-06
1.59447e-06
1.91371e-06
2.60609e-06
4.11984e-06
5.27421e-06
2.96044e-08
3.03964e-08
3.15566e-08
3.2253e-08
3.22366e-08
3.07302e-08
2.65514e-08
2.14219e-08
1.9454e-08
2.01471e-08
2.14018e-08
2.2403e-08
2.27238e-08
2.22801e-08
2.09594e-08
1.8219e-08
1.48888e-08
1.30243e-08
1.27085e-08
1.333e-08
1.4113e-08
1.46076e-08
1.59814e-08
2.1294e-08
2.64612e-08
3.13132e-08
3.87194e-08
4.42467e-08
4.89408e-08
8.41183e-08
2.56519e-07
4.65035e-07
5.56872e-07
5.89187e-07
5.87967e-07
5.34343e-07
5.02476e-07
6.95097e-07
1.08117e-06
1.46993e-06
1.73943e-06
1.85434e-06
1.88624e-06
1.97936e-06
9.50716e-09
1.09746e-08
1.31412e-08
1.39582e-08
1.31868e-08
1.05562e-08
6.86413e-09
4.84816e-09
4.44779e-09
4.87278e-09
5.4064e-09
5.85802e-09
6.05405e-09
5.94263e-09
5.40278e-09
4.42008e-09
3.61874e-09
3.33617e-09
3.50273e-09
4.3315e-09
5.77534e-09
9.00138e-09
1.60147e-08
2.71114e-08
3.78996e-08
5.07672e-08
7.11936e-08
8.75972e-08
9.00672e-08
9.13951e-08
1.23724e-07
2.59231e-07
5.86316e-07
1.00261e-06
1.22204e-06
1.12287e-06
5.32401e-07
4.32857e-07
4.89448e-07
6.88935e-07
8.64182e-07
1.02146e-06
1.10102e-06
1.04278e-06
6.24317e-09
7.10045e-09
7.72382e-09
7.35322e-09
5.19364e-09
3.34064e-09
2.01665e-09
1.46167e-09
1.38779e-09
1.56719e-09
1.77353e-09
1.93531e-09
1.97138e-09
1.85983e-09
1.58753e-09
1.39288e-09
1.39395e-09
1.95914e-09
3.75231e-09
7.74657e-09
1.70383e-08
3.30714e-08
5.19993e-08
6.61865e-08
6.98411e-08
6.49265e-08
5.4998e-08
3.88287e-08
2.92653e-08
2.58372e-08
2.99304e-08
6.3647e-08
1.81159e-07
5.51053e-07
9.68938e-07
1.31139e-06
1.6333e-06
2.38555e-06
2.15697e-06
1.66001e-06
1.66001e-06
1.86932e-06
1.58944e-06
1.15033e-06
3.82732e-08
3.51424e-08
2.90695e-08
1.85481e-08
1.0571e-08
8.85875e-09
1.4892e-08
2.13067e-08
2.28559e-08
2.07101e-08
1.93934e-08
1.95551e-08
2.22286e-08
2.64307e-08
2.96218e-08
3.12029e-08
3.09486e-08
3.00279e-08
2.99746e-08
2.65152e-08
1.68455e-08
7.68928e-09
3.37529e-10
3.06519e-10
1.12132e-09
2.67466e-09
4.813e-09
6.65947e-09
8.28369e-09
1.09067e-08
1.49842e-08
1.9647e-08
2.22158e-08
1.95756e-07
6.65794e-07
1.00183e-06
2.71672e-07
4.02081e-07
1.00972e-06
1.25508e-06
8.91213e-07
4.66561e-07
1.38912e-07
1.67628e-07
7.74861e-08
7.67432e-08
7.38864e-08
6.44028e-08
4.94101e-08
4.2676e-08
5.79146e-08
8.24675e-08
9.10583e-08
9.10367e-08
8.80297e-08
8.73984e-08
8.98617e-08
9.7773e-08
1.09871e-07
1.19375e-07
1.23796e-07
1.25812e-07
1.28672e-07
1.32274e-07
1.3306e-07
1.32762e-07
1.31184e-07
1.22621e-07
1.14762e-07
1.17319e-07
1.25594e-07
1.38357e-07
1.54465e-07
1.70302e-07
1.78493e-07
1.79787e-07
1.66493e-07
1.46707e-07
1.30361e-07
1.25912e-07
1.32675e-07
1.04915e-07
1.12032e-07
1.47334e-07
9.33851e-08
1.04384e-07
1.48878e-07
4.61499e-07
1.02743e-07
1.01773e-07
1.00524e-07
9.82326e-08
9.4666e-08
9.39674e-08
1.02333e-07
1.1057e-07
1.14446e-07
1.17171e-07
1.19609e-07
1.22456e-07
1.24438e-07
1.25997e-07
1.3003e-07
1.36384e-07
1.42951e-07
1.49953e-07
1.60223e-07
1.73173e-07
1.82193e-07
1.84833e-07
1.8591e-07
1.84253e-07
1.79098e-07
1.73945e-07
1.72147e-07
1.71711e-07
1.7231e-07
1.68833e-07
1.57595e-07
1.45025e-07
1.36342e-07
1.32073e-07
1.30285e-07
1.29776e-07
1.22544e-07
1.09571e-07
1.11556e-07
1.18291e-07
1.25806e-07
1.36406e-07
1.40304e-07
1.66136e-07
1.07001e-07
1.06942e-07
1.0676e-07
1.06288e-07
1.05266e-07
1.04257e-07
1.04734e-07
1.06414e-07
1.08263e-07
1.10171e-07
1.11288e-07
1.1198e-07
1.12069e-07
1.11937e-07
1.12731e-07
1.15139e-07
1.18517e-07
1.22742e-07
1.28873e-07
1.36459e-07
1.42218e-07
1.43489e-07
1.42678e-07
1.40664e-07
1.36454e-07
1.31483e-07
1.27598e-07
1.2477e-07
1.21505e-07
1.17423e-07
1.14293e-07
1.12479e-07
1.1162e-07
1.11892e-07
1.13174e-07
1.10684e-07
1.09143e-07
1.12541e-07
1.13867e-07
1.14853e-07
1.18328e-07
1.32096e-07
1.40889e-07
1.66053e-07
1.07516e-07
1.07463e-07
1.07423e-07
1.07523e-07
1.07568e-07
1.0726e-07
1.06923e-07
1.06791e-07
1.07074e-07
1.07212e-07
1.07072e-07
1.06923e-07
1.06813e-07
1.06699e-07
1.06799e-07
1.07061e-07
1.0752e-07
1.08218e-07
1.09308e-07
1.107e-07
1.11882e-07
1.12179e-07
1.12032e-07
1.11786e-07
1.11197e-07
1.10252e-07
1.09443e-07
1.08887e-07
1.08451e-07
1.08044e-07
1.07588e-07
1.07216e-07
1.06909e-07
1.07313e-07
1.08506e-07
1.14443e-07
1.156e-07
1.09921e-07
1.11638e-07
1.16493e-07
1.21206e-07
1.29674e-07
1.3551e-07
1.42891e-07
1.07543e-07
1.07562e-07
1.0756e-07
1.07561e-07
1.0755e-07
1.07465e-07
1.07171e-07
1.06854e-07
1.0693e-07
1.07198e-07
1.07395e-07
1.07428e-07
1.07351e-07
1.07217e-07
1.07249e-07
1.07425e-07
1.07603e-07
1.07754e-07
1.07954e-07
1.08132e-07
1.08007e-07
1.07613e-07
1.07441e-07
1.07594e-07
1.07797e-07
1.07986e-07
1.08167e-07
1.08333e-07
1.08467e-07
1.08653e-07
1.08921e-07
1.09224e-07
1.09697e-07
1.10082e-07
1.10695e-07
1.08805e-07
1.0952e-07
1.12052e-07
1.13411e-07
1.15308e-07
1.17543e-07
1.25318e-07
1.35341e-07
1.4277e-07
1.07756e-07
1.0775e-07
1.07741e-07
1.07799e-07
1.07886e-07
1.07741e-07
1.07415e-07
1.07194e-07
1.0718e-07
1.07159e-07
1.07038e-07
1.06832e-07
1.06694e-07
1.06603e-07
1.06602e-07
1.06604e-07
1.06661e-07
1.06752e-07
1.06887e-07
1.07046e-07
1.07201e-07
1.0727e-07
1.07328e-07
1.07422e-07
1.07496e-07
1.07527e-07
1.07484e-07
1.07525e-07
1.07638e-07
1.07629e-07
1.07506e-07
1.07379e-07
1.0728e-07
1.07681e-07
1.0863e-07
1.12676e-07
1.1413e-07
1.10803e-07
1.11656e-07
1.14959e-07
1.17889e-07
1.23375e-07
1.30862e-07
1.33316e-07
1.07517e-07
1.07522e-07
1.07523e-07
1.07513e-07
1.07428e-07
1.07321e-07
1.0709e-07
1.06823e-07
1.06825e-07
1.07002e-07
1.07181e-07
1.07294e-07
1.07279e-07
1.07234e-07
1.07247e-07
1.07415e-07
1.07587e-07
1.07713e-07
1.07782e-07
1.07803e-07
1.07738e-07
1.07553e-07
1.07471e-07
1.07516e-07
1.07647e-07
1.07769e-07
1.07928e-07
1.08083e-07
1.08233e-07
1.08498e-07
1.08843e-07
1.09197e-07
1.0962e-07
1.09926e-07
1.10232e-07
1.09308e-07
1.09879e-07
1.11471e-07
1.12794e-07
1.15132e-07
1.1689e-07
1.21046e-07
1.2855e-07
1.33682e-07
1.07768e-07
1.07765e-07
1.07745e-07
1.07771e-07
1.07836e-07
1.07785e-07
1.07633e-07
1.07489e-07
1.07459e-07
1.07437e-07
1.07315e-07
1.07153e-07
1.07018e-07
1.0693e-07
1.06894e-07
1.06869e-07
1.0687e-07
1.06885e-07
1.06952e-07
1.07061e-07
1.07203e-07
1.07284e-07
1.07378e-07
1.07517e-07
1.07649e-07
1.07779e-07
1.07847e-07
1.07938e-07
1.08065e-07
1.08098e-07
1.07939e-07
1.07825e-07
1.07791e-07
1.08019e-07
1.08733e-07
1.11232e-07
1.12508e-07
1.1114e-07
1.11534e-07
1.1374e-07
1.15669e-07
1.19323e-07
1.23299e-07
1.27594e-07
1.0762e-07
1.07599e-07
1.07603e-07
1.07589e-07
1.07482e-07
1.07344e-07
1.07138e-07
1.06921e-07
1.06892e-07
1.06971e-07
1.07084e-07
1.07177e-07
1.07193e-07
1.072e-07
1.07222e-07
1.07379e-07
1.07573e-07
1.07739e-07
1.07847e-07
1.07939e-07
1.07923e-07
1.07837e-07
1.07783e-07
1.07794e-07
1.07875e-07
1.07943e-07
1.07958e-07
1.08012e-07
1.08125e-07
1.08373e-07
1.08727e-07
1.09024e-07
1.09344e-07
1.0961e-07
1.09789e-07
1.0964e-07
1.09958e-07
1.10724e-07
1.12011e-07
1.14468e-07
1.15942e-07
1.19175e-07
1.23807e-07
1.25802e-07
1.0773e-07
1.07749e-07
1.07724e-07
1.07738e-07
1.07783e-07
1.07761e-07
1.07684e-07
1.0761e-07
1.07589e-07
1.07567e-07
1.07499e-07
1.07404e-07
1.07293e-07
1.07211e-07
1.07177e-07
1.07164e-07
1.07145e-07
1.07103e-07
1.07144e-07
1.07213e-07
1.0726e-07
1.07305e-07
1.07409e-07
1.07555e-07
1.07683e-07
1.078e-07
1.07936e-07
1.08112e-07
1.08254e-07
1.08314e-07
1.08178e-07
1.08038e-07
1.08045e-07
1.08174e-07
1.08627e-07
1.10072e-07
1.11122e-07
1.11234e-07
1.11324e-07
1.12936e-07
1.14171e-07
1.16613e-07
1.19733e-07
1.2253e-07
1.07714e-07
1.07676e-07
1.0767e-07
1.07652e-07
1.07553e-07
1.07431e-07
1.07284e-07
1.07107e-07
1.07047e-07
1.07066e-07
1.07095e-07
1.07116e-07
1.0713e-07
1.07173e-07
1.07207e-07
1.07341e-07
1.07527e-07
1.07685e-07
1.07824e-07
1.079e-07
1.07963e-07
1.07994e-07
1.07977e-07
1.07973e-07
1.08014e-07
1.08079e-07
1.08122e-07
1.08148e-07
1.08203e-07
1.08314e-07
1.08504e-07
1.08679e-07
1.08882e-07
1.09131e-07
1.09337e-07
1.09814e-07
1.09916e-07
1.10353e-07
1.11403e-07
1.13468e-07
1.14907e-07
1.17192e-07
1.2011e-07
1.20623e-07
1.07685e-07
1.0772e-07
1.07703e-07
1.07712e-07
1.07738e-07
1.07714e-07
1.07663e-07
1.07628e-07
1.07632e-07
1.07618e-07
1.07569e-07
1.07524e-07
1.0748e-07
1.07433e-07
1.07403e-07
1.0738e-07
1.0735e-07
1.07316e-07
1.07325e-07
1.07342e-07
1.07356e-07
1.07376e-07
1.07432e-07
1.07546e-07
1.07677e-07
1.07794e-07
1.07904e-07
1.08034e-07
1.08111e-07
1.08176e-07
1.08119e-07
1.08064e-07
1.08072e-07
1.08182e-07
1.08474e-07
1.09353e-07
1.10208e-07
1.10884e-07
1.11094e-07
1.12282e-07
1.13163e-07
1.14802e-07
1.17207e-07
1.18777e-07
1.07808e-07
1.07762e-07
1.07736e-07
1.07707e-07
1.07626e-07
1.07514e-07
1.07402e-07
1.07268e-07
1.07199e-07
1.07167e-07
1.07173e-07
1.07175e-07
1.07169e-07
1.0717e-07
1.07195e-07
1.07296e-07
1.07453e-07
1.07601e-07
1.07724e-07
1.07807e-07
1.07889e-07
1.07959e-07
1.08015e-07
1.08062e-07
1.08078e-07
1.08102e-07
1.08107e-07
1.08111e-07
1.08112e-07
1.08132e-07
1.08231e-07
1.08362e-07
1.08542e-07
1.08807e-07
1.09009e-07
1.09715e-07
1.09742e-07
1.10082e-07
1.10728e-07
1.12443e-07
1.1377e-07
1.15401e-07
1.17164e-07
1.17338e-07
1.07608e-07
1.07648e-07
1.07649e-07
1.07652e-07
1.07652e-07
1.07645e-07
1.07617e-07
1.07604e-07
1.07619e-07
1.07632e-07
1.07604e-07
1.07573e-07
1.07543e-07
1.07527e-07
1.07511e-07
1.0751e-07
1.07509e-07
1.07467e-07
1.07455e-07
1.07465e-07
1.07482e-07
1.0751e-07
1.07554e-07
1.0762e-07
1.07702e-07
1.07755e-07
1.07798e-07
1.07861e-07
1.0792e-07
1.07965e-07
1.07993e-07
1.08001e-07
1.08036e-07
1.08207e-07
1.08386e-07
1.09092e-07
1.09585e-07
1.10424e-07
1.10798e-07
1.11637e-07
1.12277e-07
1.13399e-07
1.15108e-07
1.15915e-07
1.0789e-07
1.07837e-07
1.07792e-07
1.07747e-07
1.07695e-07
1.07583e-07
1.0749e-07
1.07391e-07
1.07332e-07
1.07268e-07
1.07249e-07
1.07234e-07
1.07234e-07
1.07235e-07
1.07259e-07
1.0732e-07
1.07431e-07
1.0753e-07
1.07649e-07
1.07737e-07
1.07819e-07
1.07884e-07
1.07923e-07
1.0794e-07
1.07942e-07
1.07937e-07
1.07929e-07
1.07928e-07
1.07938e-07
1.07965e-07
1.08031e-07
1.08161e-07
1.08343e-07
1.08685e-07
1.08815e-07
1.09472e-07
1.09615e-07
1.09886e-07
1.10337e-07
1.11387e-07
1.12588e-07
1.13828e-07
1.15015e-07
1.15109e-07
1.0753e-07
1.07561e-07
1.07579e-07
1.07597e-07
1.07587e-07
1.07595e-07
1.07573e-07
1.07568e-07
1.07586e-07
1.07623e-07
1.07617e-07
1.07604e-07
1.07588e-07
1.07585e-07
1.07582e-07
1.07592e-07
1.07608e-07
1.07616e-07
1.07598e-07
1.07598e-07
1.07612e-07
1.07638e-07
1.07646e-07
1.07644e-07
1.0765e-07
1.07666e-07
1.07686e-07
1.07723e-07
1.07778e-07
1.07847e-07
1.0796e-07
1.08009e-07
1.08027e-07
1.08236e-07
1.08307e-07
1.08929e-07
1.09252e-07
1.10035e-07
1.10445e-07
1.11181e-07
1.11593e-07
1.12244e-07
1.1345e-07
1.14256e-07
1.07918e-07
1.07879e-07
1.07839e-07
1.07788e-07
1.07738e-07
1.07665e-07
1.07581e-07
1.07493e-07
1.07451e-07
1.07393e-07
1.07357e-07
1.07323e-07
1.07319e-07
1.07314e-07
1.07335e-07
1.07374e-07
1.07458e-07
1.07508e-07
1.07592e-07
1.07663e-07
1.07728e-07
1.07756e-07
1.07771e-07
1.07768e-07
1.07752e-07
1.07741e-07
1.07745e-07
1.07762e-07
1.07771e-07
1.07792e-07
1.07851e-07
1.08021e-07
1.08197e-07
1.08593e-07
1.08673e-07
1.09241e-07
1.09384e-07
1.09618e-07
1.09957e-07
1.10666e-07
1.11449e-07
1.12504e-07
1.13394e-07
1.13629e-07
1.07497e-07
1.07507e-07
1.07516e-07
1.07537e-07
1.07543e-07
1.07536e-07
1.07535e-07
1.07536e-07
1.07547e-07
1.07592e-07
1.07611e-07
1.07625e-07
1.07622e-07
1.07628e-07
1.07642e-07
1.07672e-07
1.07685e-07
1.07701e-07
1.07712e-07
1.07719e-07
1.07707e-07
1.07681e-07
1.07637e-07
1.07631e-07
1.07632e-07
1.07649e-07
1.07685e-07
1.07739e-07