/*--------------------------------*- C++ -*----------------------------------*\
| =========                 |                                                 |
| \\      /  F ield         | OpenFOAM: The Open Source CFD Toolbox           |
|  \\    /   O peration     | Version:  v1912                                 |
|   \\  /    A nd           | Website:  www.openfoam.com                      |
|    \\/     M anipulation  |                                                 |
\*---------------------------------------------------------------------------*/
FoamFile
{
    version     2.0;
    format      ascii;
    class       surfaceScalarField;
    location    "40";
    object      phi;
}
// * * * * * * * * * * * * * * * * * * * * * * * * * * * * * * * * * * * * * //

dimensions      [0 3 -1 0 0 0 0];
oriented        oriented;


internalField   nonuniform List<scalar> 
28285
(
-1.07379e-05
9.19388e-06
-1.91232e-05
8.38532e-06
-2.63911e-05
7.26794e-06
-3.24527e-05
6.06159e-06
-3.74345e-05
4.98181e-06
-4.16457e-05
4.21118e-06
-4.54849e-05
3.83916e-06
-4.93038e-05
3.81898e-06
-5.32826e-05
3.97878e-06
-5.73617e-05
4.07912e-06
-6.12957e-05
3.93396e-06
-6.4751e-05
3.45529e-06
-6.74694e-05
2.71845e-06
-6.94635e-05
1.99406e-06
-7.1091e-05
1.62747e-06
-7.29709e-05
1.87993e-06
-7.57497e-05
2.7788e-06
-7.9731e-05
3.98134e-06
-8.45202e-05
4.78911e-06
-8.90003e-05
4.48018e-06
-9.15211e-05
2.52073e-06
-9.04971e-05
-1.02399e-06
-8.49409e-05
-5.55622e-06
-7.48023e-05
-1.01385e-05
-6.07927e-05
-1.40096e-05
-4.39959e-05
-1.67968e-05
-2.50577e-05
-1.89382e-05
-3.60059e-06
-2.14571e-05
2.16941e-05
-2.52947e-05
5.27227e-05
-3.10286e-05
9.11395e-05
-3.84168e-05
0.000138113
-4.69734e-05
0.000191433
-5.33196e-05
0.000246796
-5.53636e-05
0.00029642
-4.96242e-05
0.000327998
-3.15777e-05
0.000322718
5.28045e-06
0.000288617
3.4101e-05
0.000252649
3.59677e-05
0.000226999
2.56501e-05
0.000209326
1.76723e-05
0.000198531
1.07959e-05
0.000182829
1.57018e-05
1.21244e-05
0.000170704
-1.07525e-05
1.83856e-05
-1.91375e-05
1.67703e-05
-2.64054e-05
1.45359e-05
-3.24669e-05
1.21231e-05
-3.74489e-05
9.96374e-06
-4.16599e-05
8.42222e-06
-4.54991e-05
7.67834e-06
-4.93181e-05
7.63797e-06
-5.32968e-05
7.95752e-06
-5.7376e-05
8.15826e-06
-6.13099e-05
7.86786e-06
-6.4765e-05
6.91048e-06
-6.74835e-05
5.43687e-06
-6.94775e-05
3.98808e-06
-7.1105e-05
3.25502e-06
-7.2985e-05
3.7599e-06
-7.57638e-05
5.5576e-06
-7.97452e-05
7.96272e-06
-8.45342e-05
9.57814e-06
-8.90144e-05
8.96037e-06
-9.15353e-05
5.04158e-06
-9.05113e-05
-2.04792e-06
-8.49551e-05
-1.11125e-05
-7.48166e-05
-2.0277e-05
-6.08074e-05
-2.80188e-05
-4.40107e-05
-3.35935e-05
-2.50724e-05
-3.78765e-05
-3.61536e-06
-4.29142e-05
2.16793e-05
-5.05893e-05
5.27082e-05
-6.20575e-05
9.11254e-05
-7.6834e-05
0.000138096
-9.39444e-05
0.000191418
-0.000106641
0.000246786
-0.000110732
0.000296412
-9.92501e-05
0.000327991
-6.31567e-05
0.00032271
1.0561e-05
0.000288609
6.82027e-05
0.000252637
7.19391e-05
0.000226995
5.12927e-05
0.000209308
3.53586e-05
0.000198519
2.15851e-05
0.000183107
3.11136e-05
2.4359e-05
0.000170873
-1.07663e-05
2.7577e-05
-1.91513e-05
2.51553e-05
-2.64193e-05
2.18039e-05
-3.24808e-05
1.81847e-05
-3.74626e-05
1.49455e-05
-4.16735e-05
1.26332e-05
-4.55126e-05
1.15174e-05
-4.93316e-05
1.14569e-05
-5.33104e-05
1.19363e-05
-5.73896e-05
1.22375e-05
-6.13236e-05
1.18018e-05
-6.47788e-05
1.03657e-05
-6.74972e-05
8.15524e-06
-6.94911e-05
5.98201e-06
-7.11186e-05
4.88249e-06
-7.29984e-05
5.63975e-06
-7.57771e-05
8.33634e-06
-7.97586e-05
1.19442e-05
-8.45479e-05
1.43674e-05
-8.90284e-05
1.34409e-05
-9.15495e-05
7.56267e-06
-9.05256e-05
-3.0718e-06
-8.49692e-05
-1.66689e-05
-7.48306e-05
-3.04156e-05
-6.08213e-05
-4.2028e-05
-4.40242e-05
-5.03906e-05
-2.50855e-05
-5.68152e-05
-3.62832e-06
-6.43714e-05
2.1666e-05
-7.58836e-05
5.26959e-05
-9.30874e-05
9.1114e-05
-0.000115252
0.000138087
-0.000140918
0.000191411
-0.000159965
0.000246783
-0.000166103
0.000296413
-0.00014888
0.000327993
-9.47367e-05
0.00032271
1.5844e-05
0.000288605
0.000102308
0.000252626
0.000107918
0.000226986
7.69323e-05
0.000209297
5.30481e-05
0.000198504
3.23779e-05
0.000183171
4.64466e-05
3.64829e-05
0.000171047
-1.07723e-05
3.67684e-05
-1.91574e-05
3.35404e-05
-2.64255e-05
2.9072e-05
-3.2487e-05
2.42462e-05
-3.74686e-05
1.99272e-05
-4.16795e-05
1.6844e-05
-4.55186e-05
1.53565e-05
-4.93374e-05
1.52758e-05
-5.33162e-05
1.59151e-05
-5.73955e-05
1.63168e-05
-6.13296e-05
1.57359e-05
-6.47849e-05
1.3821e-05
-6.75032e-05
1.08736e-05
-6.9497e-05
7.97582e-06
-7.11243e-05
6.5098e-06
-7.3004e-05
7.51945e-06
-7.57827e-05
1.1115e-05
-7.97643e-05
1.59258e-05
-8.45539e-05
1.9157e-05
-8.90348e-05
1.79218e-05
-9.15564e-05
1.00842e-05
-9.05327e-05
-4.09545e-06
-8.49763e-05
-2.22253e-05
-7.48374e-05
-4.05545e-05
-6.08277e-05
-5.60377e-05
-4.40302e-05
-6.71881e-05
-2.50914e-05
-7.5754e-05
-3.63438e-06
-8.58284e-05
2.16587e-05
-0.000101177
5.26892e-05
-0.000124118
9.11079e-05
-0.000153671
0.000138085
-0.000187895
0.000191412
-0.000213292
0.000246784
-0.000221476
0.000296419
-0.000198515
0.000328003
-0.000126321
0.000322717
2.11303e-05
0.000288609
0.000136415
0.000252622
0.000143906
0.000226986
0.000102568
0.000209285
7.07494e-05
0.000198497
4.31657e-05
0.000183393
6.15504e-05
4.86476e-05
0.000171228
-1.07744e-05
4.596e-05
-1.91597e-05
4.19256e-05
-2.64277e-05
3.63401e-05
-3.24892e-05
3.03077e-05
-3.74707e-05
2.49087e-05
-4.16814e-05
2.10547e-05
-4.55204e-05
1.91955e-05
-4.93392e-05
1.90946e-05
-5.33181e-05
1.9894e-05
-5.73975e-05
2.03962e-05
-6.13317e-05
1.96701e-05
-6.4787e-05
1.72763e-05
-6.75053e-05
1.35919e-05
-6.9499e-05
9.96947e-06
-7.11261e-05
8.13686e-06
-7.30055e-05
9.3989e-06
-7.57841e-05
1.38936e-05
-7.97659e-05
1.99076e-05
-8.45559e-05
2.3947e-05
-8.90375e-05
2.24034e-05
-9.15597e-05
1.26064e-05
-9.05364e-05
-5.1187e-06
-8.49801e-05
-2.77817e-05
-7.48408e-05
-5.06938e-05
-6.08304e-05
-7.00481e-05
-4.40326e-05
-8.39859e-05
-2.50939e-05
-9.46927e-05
-3.6373e-06
-0.000107285
2.16546e-05
-0.000126469
5.26853e-05
-0.000155149
9.11039e-05
-0.000192089
0.000138082
-0.000234873
0.000191411
-0.00026662
0.000246788
-0.000276853
0.000296428
-0.000248155
0.000328016
-0.000157908
0.000322724
2.64215e-05
0.000288613
0.000170527
0.000252622
0.000179897
0.000226985
0.000128206
0.000209278
8.84566e-05
0.00019849
5.39531e-05
0.000183507
7.65334e-05
6.07247e-05
0.00017143
-1.07752e-05
5.51519e-05
-1.91606e-05
5.03111e-05
-2.64288e-05
4.36082e-05
-3.24902e-05
3.63691e-05
-3.74715e-05
2.98901e-05
-4.1682e-05
2.52652e-05
-4.55208e-05
2.30343e-05
-4.93395e-05
2.29133e-05
-5.33184e-05
2.38729e-05
-5.7398e-05
2.44757e-05
-6.13324e-05
2.36045e-05
-6.47878e-05
2.07318e-05
-6.75061e-05
1.63102e-05
-6.94996e-05
1.19629e-05
-7.11263e-05
9.76362e-06
-7.30056e-05
1.12781e-05
-7.57842e-05
1.66722e-05
-7.97662e-05
2.38896e-05
-8.45566e-05
2.87374e-05
-8.9039e-05
2.68858e-05
-9.1562e-05
1.51293e-05
-9.05392e-05
-6.14145e-06
-8.49829e-05
-3.3338e-05
-7.48432e-05
-6.08334e-05
-6.08321e-05
-8.40592e-05
-4.40341e-05
-0.000100784
-2.50957e-05
-0.000113631
-3.63964e-06
-0.000128741
2.16515e-05
-0.00015176
5.26812e-05
-0.000186178
9.10998e-05
-0.000230508
0.000138079
-0.000281853
0.000191411
-0.000319952
0.000246793
-0.000332234
0.00029644
-0.000297803
0.000328033
-0.000189502
0.000322735
3.17195e-05
0.000288613
0.000204649
0.000252616
0.000215894
0.000226984
0.000153837
0.000209269
0.000106172
0.000198488
6.47338e-05
0.000183707
9.13146e-05
7.28228e-05
0.000171609
-1.07758e-05
6.4344e-05
-1.91614e-05
5.86967e-05
-2.64295e-05
5.08763e-05
-3.24909e-05
4.24304e-05
-3.74721e-05
3.48713e-05
-4.16823e-05
2.94755e-05
-4.55209e-05
2.68728e-05
-4.93395e-05
2.67319e-05
-5.33185e-05
2.78519e-05
-5.73982e-05
2.85554e-05
-6.13328e-05
2.7539e-05
-6.47883e-05
2.41874e-05
-6.75066e-05
1.90285e-05
-6.94998e-05
1.39561e-05
-7.11262e-05
1.139e-05
-7.30051e-05
1.31571e-05
-7.57836e-05
1.94507e-05
-7.97659e-05
2.7872e-05
-8.4557e-05
3.35285e-05
-8.90404e-05
3.13692e-05
-9.15643e-05
1.76532e-05
-9.05421e-05
-7.16362e-06
-8.49858e-05
-3.88943e-05
-7.48456e-05
-7.09736e-05
-6.0834e-05
-9.80709e-05
-4.40356e-05
-0.000117582
-2.50975e-05
-0.000132569
-3.64216e-06
-0.000150196
2.16478e-05
-0.00017705
5.26765e-05
-0.000217207
9.10947e-05
-0.000268926
0.000138075
-0.000328833
0.00019141
-0.000373287
0.000246798
-0.000387622
0.000296454
-0.000347459
0.000328055
-0.000221102
0.00032275
3.70239e-05
0.000288615
0.000238784
0.000252609
0.0002519
0.000226983
0.000179464
0.000209261
0.000123893
0.000198483
7.55125e-05
0.000183847
0.00010595
8.48497e-05
0.00017182
-1.07763e-05
7.35366e-05
-1.91622e-05
6.70825e-05
-2.64304e-05
5.81445e-05
-3.24916e-05
4.84916e-05
-3.74726e-05
3.98523e-05
-4.16826e-05
3.36855e-05
-4.5521e-05
3.07112e-05
-4.93395e-05
3.05504e-05
-5.33185e-05
3.18309e-05
-5.73984e-05
3.26354e-05
-6.13332e-05
3.14738e-05
-6.47889e-05
2.76431e-05
-6.75071e-05
2.17467e-05
-6.95e-05
1.59491e-05
-7.1126e-05
1.3016e-05
-7.30044e-05
1.50355e-05
-7.57826e-05
2.22289e-05
-7.97653e-05
3.18546e-05
-8.45572e-05
3.83204e-05
-8.90418e-05
3.58538e-05
-9.15668e-05
2.01782e-05
-9.05453e-05
-8.18509e-06
-8.49891e-05
-4.44506e-05
-7.48484e-05
-8.11142e-05
-6.08361e-05
-0.000112083
-4.40374e-05
-0.000134381
-2.50996e-05
-0.000151507
-3.64503e-06
-0.000171651
2.16437e-05
-0.000202338
5.26708e-05
-0.000248234
9.10889e-05
-0.000307344
0.000138071
-0.000375815
0.000191409
-0.000426625
0.000246804
-0.000443017
0.00029647
-0.000397125
0.00032808
-0.000252712
0.000322768
4.23359e-05
0.000288622
0.00027293
0.000252604
0.000287918
0.000226981
0.000205087
0.000209253
0.000141621
0.00019848
8.62854e-05
0.00018403
0.000120401
9.68798e-05
0.000172
-1.0777e-05
8.27295e-05
-1.91631e-05
7.54686e-05
-2.64314e-05
6.54128e-05
-3.24925e-05
5.45528e-05
-3.74732e-05
4.4833e-05
-4.1683e-05
3.78953e-05
-4.55211e-05
3.45493e-05
-4.93394e-05
3.43687e-05
-5.33185e-05
3.58099e-05
-5.73986e-05
3.67155e-05
-6.13336e-05
3.54089e-05
-6.47895e-05
3.10989e-05
-6.75076e-05
2.44649e-05
-6.95003e-05
1.79417e-05
-7.11257e-05
1.46414e-05
-7.30036e-05
1.69134e-05
-7.57817e-05
2.5007e-05
-7.97647e-05
3.58376e-05
-8.45576e-05
4.31134e-05
-8.90435e-05
4.03396e-05
-9.15698e-05
2.27045e-05
-9.05491e-05
-9.2058e-06
-8.49928e-05
-5.00068e-05
-7.48516e-05
-9.12555e-05
-6.08385e-05
-0.000126096
-4.40394e-05
-0.00015118
-2.51019e-05
-0.000170444
-3.64837e-06
-0.000193105
2.16388e-05
-0.000227626
5.26646e-05
-0.00027926
9.10823e-05
-0.000345762
0.000138066
-0.000422799
0.000191409
-0.000479968
0.000246812
-0.00049842
0.000296489
-0.000446802
0.000328106
-0.000284328
0.000322785
4.76565e-05
0.000288627
0.000307088
0.000252598
0.000323946
0.000226977
0.000230709
0.000209245
0.000159353
0.000198475
9.70557e-05
0.000184176
0.0001347
0.000108858
0.000172198
-1.07777e-05
9.19229e-05
-1.91641e-05
8.3855e-05
-2.64325e-05
7.26812e-05
-3.24935e-05
6.06137e-05
-3.74739e-05
4.98135e-05
-4.16833e-05
4.21046e-05
-4.55211e-05
3.83871e-05
-4.93393e-05
3.8187e-05
-5.33184e-05
3.9789e-05
-5.73988e-05
4.07958e-05
-6.13341e-05
3.93442e-05
-6.47902e-05
3.4555e-05
-6.75083e-05
2.7183e-05
-6.95005e-05
1.99339e-05
-7.11254e-05
1.62663e-05
-7.30028e-05
1.87907e-05
-7.57806e-05
2.77848e-05
-7.9764e-05
3.9821e-05
-8.45581e-05
4.79074e-05
-8.90454e-05
4.4827e-05
-9.15732e-05
2.52322e-05
-9.05532e-05
-1.02257e-05
-8.4997e-05
-5.55631e-05
-7.48551e-05
-0.000101397
-6.08412e-05
-0.00014011
-4.40417e-05
-0.00016798
-2.51046e-05
-0.000189382
-3.6521e-06
-0.000214557
2.16332e-05
-0.000252911
5.26576e-05
-0.000310284
9.10751e-05
-0.00038418
0.00013806
-0.000469784
0.000191408
-0.000533315
0.00024682
-0.000553832
0.00029651
-0.000496493
0.000328137
-0.000315956
0.000322805
5.29887e-05
0.000288628
0.000341265
0.00025259
0.000359984
0.000226973
0.000256326
0.000209236
0.00017709
0.000198471
0.00010782
0.000184346
0.000148825
0.000120837
0.000172366
-1.07786e-05
0.000101117
-1.91653e-05
9.22417e-05
-2.64337e-05
7.99496e-05
-3.24945e-05
6.66746e-05
-3.74747e-05
5.47936e-05
-4.16837e-05
4.63136e-05
-4.55211e-05
4.22245e-05
-4.93392e-05
4.2005e-05
-5.33184e-05
4.37682e-05
-5.7399e-05
4.48764e-05
-6.13347e-05
4.32798e-05
-6.47909e-05
3.80113e-05
-6.7509e-05
2.99011e-05
-6.95009e-05
2.19258e-05
-7.11251e-05
1.78905e-05
-7.30018e-05
2.06675e-05
-7.57794e-05
3.05624e-05
-7.97633e-05
4.38049e-05
-8.45586e-05
5.27027e-05
-8.90476e-05
4.9316e-05
-9.15769e-05
2.77616e-05
-9.05579e-05
-1.12447e-05
-8.50017e-05
-6.11193e-05
-7.48591e-05
-0.00011154
-6.08441e-05
-0.000154125
-4.40442e-05
-0.00018478
-2.51075e-05
-0.000208318
-3.65629e-06
-0.000236008
2.16278e-05
-0.000278195
5.26497e-05
-0.000341306
9.10667e-05
-0.000422597
0.000138054
-0.000516772
0.000191407
-0.000586668
0.000246829
-0.000609254
0.000296533
-0.000546197
0.000328173
-0.000347596
0.00032283
5.83314e-05
0.000288638
0.000375458
0.000252583
0.000396038
0.000226968
0.000281941
0.000209227
0.000194831
0.000198467
0.000118581
0.000184495
0.000162797
0.00013278
0.000172552
-1.07795e-05
0.000110311
-1.91666e-05
0.000100629
-2.64351e-05
8.72181e-05
-3.24957e-05
7.27352e-05
-3.74756e-05
5.97735e-05
-4.16841e-05
5.05221e-05
-4.55212e-05
4.60616e-05
-4.93391e-05
4.58229e-05
-5.33183e-05
4.77475e-05
-5.73992e-05
4.89573e-05
-6.13353e-05
4.72158e-05
-6.47918e-05
4.14678e-05
-6.75098e-05
3.26191e-05
-6.95012e-05
2.39172e-05
-7.11247e-05
1.9514e-05
-7.30008e-05
2.25435e-05
-7.57782e-05
3.33398e-05
-7.97626e-05
4.77893e-05
-8.45591e-05
5.74993e-05
-8.905e-05
5.38068e-05
-9.1581e-05
3.02926e-05
-9.0563e-05
-1.22627e-05
-8.50069e-05
-6.66754e-05
-7.48635e-05
-0.000121683
-6.08473e-05
-0.000168141
-4.40469e-05
-0.00020158
-2.51108e-05
-0.000227254
-3.66095e-06
-0.000257458
2.16219e-05
-0.000303478
5.26409e-05
-0.000372325
9.10575e-05
-0.000461013
0.000138047
-0.000563761
0.000191405
-0.000640026
0.000246839
-0.000664688
0.000296558
-0.000595917
0.000328209
-0.000379247
0.000322854
6.36867e-05
0.000288646
0.000409666
0.000252578
0.000432106
0.000226962
0.000307558
0.000209218
0.000212575
0.000198463
0.000129335
0.000184658
0.000176603
0.000144713
0.000172725
-1.07805e-05
0.000119506
-1.91679e-05
0.000109016
-2.64366e-05
9.44867e-05
-3.24971e-05
7.87957e-05
-3.74765e-05
6.47529e-05
-4.16846e-05
5.47302e-05
-4.55212e-05
4.98983e-05
-4.93389e-05
4.96406e-05
-5.33182e-05
5.17268e-05
-5.73995e-05
5.30386e-05
-6.13359e-05
5.11523e-05
-6.47927e-05
4.49246e-05
-6.75107e-05
3.5337e-05
-6.95016e-05
2.59081e-05
-7.11243e-05
2.11367e-05
-7.29996e-05
2.44188e-05
-7.57768e-05
3.61169e-05
-7.97617e-05
5.17743e-05
-8.45597e-05
6.22973e-05
-8.90526e-05
5.82996e-05
-9.15855e-05
3.28255e-05
-9.05687e-05
-1.32796e-05
-8.50126e-05
-7.22314e-05
-7.48682e-05
-0.000131828
-6.08509e-05
-0.000182159
-4.40499e-05
-0.000218381
-2.51143e-05
-0.00024619
-3.6661e-06
-0.000278906
2.16151e-05
-0.000328759
5.26313e-05
-0.000403341
9.10475e-05
-0.000499429
0.00013804
-0.000610753
0.000191404
-0.000693391
0.00024685
-0.000720133
0.000296587
-0.000645653
0.000328252
-0.000410912
0.000322882
6.90565e-05
0.000288653
0.000443895
0.00025257
0.00046819
0.000226955
0.000333173
0.000209208
0.000230322
0.000198458
0.000140085
0.000184804
0.000190257
0.000156609
0.000172908
-1.07815e-05
0.000128702
-1.91693e-05
0.000117404
-2.64381e-05
0.000101755
-3.24984e-05
8.48561e-05
-3.74775e-05
6.9732e-05
-4.16851e-05
5.89378e-05
-4.55214e-05
5.37346e-05
-4.93389e-05
5.34581e-05
-5.33183e-05
5.57062e-05
-5.73999e-05
5.71201e-05
-6.13367e-05
5.50891e-05
-6.47937e-05
4.83817e-05
-6.75116e-05
3.80549e-05
-6.9502e-05
2.78985e-05
-7.11239e-05
2.27586e-05
-7.29984e-05
2.62933e-05
-7.57753e-05
3.88938e-05
-7.97609e-05
5.57599e-05
-8.45603e-05
6.70967e-05
-8.90552e-05
6.27945e-05
-9.15903e-05
3.53607e-05
-9.0575e-05
-1.42948e-05
-8.50193e-05
-7.77871e-05
-7.48738e-05
-0.000141973
-6.08539e-05
-0.000196179
-4.4052e-05
-0.000235183
-2.51172e-05
-0.000265125
-3.67127e-06
-0.000300352
2.1607e-05
-0.000354037
5.26194e-05
-0.000434354
9.10346e-05
-0.000537845
0.000138037
-0.000657756
0.000191416
-0.000746769
0.000246876
-0.000775593
0.000296632
-0.00069541
0.000328302
-0.000442582
0.000322914
7.44447e-05
0.000288674
0.000478135
0.000252569
0.000504294
0.000226941
0.000358801
0.0002092
0.000248063
0.000198451
0.000150834
0.000184961
0.000203747
0.000168489
0.000173081
-2.15666e-05
0.000147096
-3.83438e-05
0.000134181
-5.28817e-05
0.000116293
-6.50018e-05
9.69761e-05
-7.49583e-05
7.96884e-05
-8.33713e-05
6.73508e-05
-9.10421e-05
6.14054e-05
-9.86763e-05
6.10923e-05
-0.000106635
6.36653e-05
-0.0001148
6.52844e-05
-0.000122675
6.29649e-05
-0.000129591
5.52976e-05
-0.000135027
4.34908e-05
-0.000139006
3.18776e-05
-0.000142246
2.59985e-05
-0.000145992
3.00389e-05
-0.000151544
4.44465e-05
-0.000159517
6.3733e-05
-0.000169123
7.67022e-05
-0.000178121
7.17927e-05
-0.000183198
4.04374e-05
-0.000181171
-1.6322e-05
-0.000170059
-8.88987e-05
-0.000149765
-0.000162268
-0.000121721
-0.000224223
-8.81149e-05
-0.000268788
-5.02471e-05
-0.000302993
-7.36014e-06
-0.000343239
4.31879e-05
-0.000404585
0.000105205
-0.000496371
0.000182036
-0.000614675
0.000276043
-0.000751764
0.000382812
-0.000853538
0.000493771
-0.000886552
0.000593346
-0.000794984
0.000656745
-0.000505981
0.000645918
8.52715e-05
0.000577347
0.000546706
0.000505093
0.000576547
0.000453865
0.00041003
0.000418363
0.000283565
0.000396893
0.000172304
0.00037031
0.00023033
0.000192161
0.000346637
-2.1572e-05
0.000165493
-3.83514e-05
0.000150961
-5.28899e-05
0.000130832
-6.50091e-05
0.000109095
-7.49634e-05
8.96427e-05
-8.33736e-05
7.5761e-05
-9.10422e-05
6.9074e-05
-9.86754e-05
6.87255e-05
-0.000106635
7.16248e-05
-0.000114801
7.34503e-05
-0.000122679
7.08429e-05
-0.000129596
6.22152e-05
-0.000135032
4.89263e-05
-0.000139009
3.58542e-05
-0.000142244
2.92341e-05
-0.000145986
3.37803e-05
-0.000151537
4.99975e-05
-0.000159513
7.17091e-05
-0.000169126
8.63158e-05
-0.000178136
8.08019e-05
-0.000183222
4.55242e-05
-0.000181201
-1.83433e-05
-0.000170089
-0.00010001
-0.00014979
-0.000182567
-0.000121741
-0.000252272
-8.8132e-05
-0.000302397
-5.02668e-05
-0.000340858
-7.38746e-06
-0.000386118
4.31449e-05
-0.000455118
0.000105156
-0.000558383
0.000181984
-0.000691503
0.000275992
-0.000845771
0.000382779
-0.000960325
0.000493794
-0.000997567
0.000593457
-0.000894648
0.000656944
-0.000569467
0.000646054
9.6161e-05
0.000577366
0.000615394
0.000505039
0.000648874
0.000453817
0.000461252
0.00041832
0.000319062
0.000396882
0.000193742
0.000370844
0.000256368
0.000215761
0.000347244
-2.15779e-05
0.000183894
-3.83596e-05
0.000167742
-5.28987e-05
0.000145371
-6.50169e-05
0.000121214
-7.49689e-05
9.95947e-05
-8.33763e-05
8.41684e-05
-9.10424e-05
7.67401e-05
-9.86744e-05
7.63575e-05
-0.000106634
7.95847e-05
-0.000114802
8.16182e-05
-0.000122683
7.87235e-05
-0.000129602
6.91345e-05
-0.000135037
5.43614e-05
-0.000139011
3.98278e-05
-0.000142242
3.24651e-05
-0.000145979
3.75171e-05
-0.000151528
5.5547e-05
-0.000159508
7.96886e-05
-0.00016913
9.5938e-05
-0.000178151
8.98231e-05
-0.000183249
5.06221e-05
-0.000181234
-2.03579e-05
-0.000170123
-0.000111122
-0.000149819
-0.000202871
-0.000121762
-0.000280329
-8.81499e-05
-0.000336009
-5.02878e-05
-0.00037872
-7.4174e-06
-0.000428989
4.31022e-05
-0.000505637
0.000105099
-0.000620379
0.000181924
-0.000768328
0.00027594
-0.000939787
0.000382754
-0.00106714
0.000493832
-0.00110865
0.000593589
-0.000994404
0.000657163
-0.000633041
0.000646201
0.000107122
0.000577396
0.000684199
0.000504987
0.000721283
0.000453758
0.000512481
0.00041827
0.00035455
0.000396858
0.000215154
0.000371289
0.000281938
0.000239278
0.000347772
-2.15845e-05
0.000202299
-3.83689e-05
0.000184527
-5.29087e-05
0.000159911
-6.50257e-05
0.000133331
-7.49752e-05
0.000109544
-8.33793e-05
9.25725e-05
-9.10427e-05
8.44036e-05
-9.86735e-05
8.39883e-05
-0.000106634
8.75453e-05
-0.000114804
8.97881e-05
-0.000122687
8.66068e-05
-0.000129608
7.60557e-05
-0.000135043
5.97961e-05
-0.000139014
4.37983e-05
-0.000142239
3.56909e-05
-0.000145971
4.1249e-05
-0.000151519
6.10947e-05
-0.000159502
8.76718e-05
-0.000169134
0.00010557
-0.000178169
9.88576e-05
-0.000183279
5.57328e-05
-0.000181272
-2.23653e-05
-0.000170161
-0.000122233
-0.00014985
-0.000223181
-0.000121786
-0.000308394
-8.81699e-05
-0.000369625
-5.03116e-05
-0.000416578
-7.45116e-06
-0.000471849
4.30568e-05
-0.000556145
0.000105034
-0.000682357
0.000181853
-0.000845147
0.000275864
-0.0010338
0.000382699
-0.00117397
0.000493842
-0.00121979
0.000593709
-0.00109427
0.000657389
-0.000696721
0.000646355
0.000118157
0.000577422
0.000753132
0.000504924
0.000793782
0.000453697
0.000563707
0.000418209
0.000390039
0.000396841
0.000236522
0.000371723
0.000307056
0.000262715
0.000348285
-2.15917e-05
0.000220709
-3.83789e-05
0.000201314
-5.29195e-05
0.000174451
-6.50354e-05
0.000145446
-7.4982e-05
0.000119491
-8.33826e-05
0.000100973
-9.10431e-05
9.2064e-05
-9.86724e-05
9.16176e-05
-0.000106633
9.55063e-05
-0.000114806
9.79603e-05
-0.000122692
9.44931e-05
-0.000129615
8.29788e-05
-0.000135049
6.52303e-05
-0.000139016
4.77653e-05
-0.000142236
3.8911e-05
-0.000145963
4.49753e-05
-0.000151508
6.66403e-05
-0.000159496
9.56591e-05
-0.000169138
0.000115212
-0.000178187
0.000107907
-0.000183312
6.08572e-05
-0.000181313
-2.43642e-05
-0.000170202
-0.000133344
-0.000149885
-0.000243498
-0.000121812
-0.000336467
-8.81921e-05
-0.000403245
-5.03374e-05
-0.000454433
-7.48789e-06
-0.000514699
4.29985e-05
-0.000606632
0.000104963
-0.000744321
0.000181776
-0.00092196
0.000275787
-0.00112781
0.000382646
-0.00128083
0.000493872
-0.00133102
0.000593864
-0.00119426
0.000657641
-0.000760498
0.00064652
0.000129278
0.000577457
0.000822195
0.000504855
0.000866384
0.000453629
0.000614933
0.000418135
0.000425532
0.000396807
0.00025785
0.000372094
0.000331769
0.00028609
0.000348718
-2.15997e-05
0.000239124
-3.839e-05
0.000218104
-5.29315e-05
0.000188993
-6.50459e-05
0.000157561
-7.49894e-05
0.000129434
-8.33863e-05
0.00010937
-9.10435e-05
9.97211e-05
-9.86713e-05
9.92455e-05
-0.000106633
0.000103468
-0.000114808
0.000106135
-0.000122697
0.000102383
-0.000129623
8.99042e-05
-0.000135056
7.0664e-05
-0.00013902
5.17285e-05
-0.000142233
4.21249e-05
-0.000145954
4.86956e-05
-0.000151497
7.21839e-05
-0.000159489
0.000103651
-0.000169143
0.000124866
-0.000178208
0.000116972
-0.000183348
6.59969e-05
-0.000181358
-2.63545e-05
-0.000170247
-0.000144454
-0.000149923
-0.000263822
-0.00012184
-0.00036455
-8.82159e-05
-0.000436869
-5.03657e-05
-0.000492283
-7.52861e-06
-0.000557536
4.29421e-05
-0.000657102
0.000104883
-0.000806261
0.000181678
-0.000998756
0.000275695
-0.00122183
0.000382609
-0.00138775
0.000493948
-0.00144235
0.000594086
-0.0012944
0.000657972
-0.000824384
0.000646726
0.000140525
0.000577514
0.000891406
0.000504796
0.000939102
0.000453545
0.000666184
0.000418065
0.000461013
0.000396775
0.00027914
0.000372472
0.000356071
0.000309387
0.000349175
-2.16081e-05
0.000257544
-3.84014e-05
0.000234898
-5.29438e-05
0.000203535
-6.50569e-05
0.000169674
-7.49974e-05
0.000139375
-8.3391e-05
0.000117764
-9.10447e-05
0.000107375
-9.86708e-05
0.000106872
-0.000106633
0.000111431
-0.000114811
0.000114313
-0.000122703
0.000110275
-0.00012963
9.68312e-05
-0.000135063
7.60969e-05
-0.000139022
5.56875e-05
-0.00014223
4.53326e-05
-0.000145944
5.24101e-05
-0.000151486
7.77255e-05
-0.000159483
0.000111648
-0.000169148
0.000134531
-0.000178229
0.000126054
-0.000183386
7.11533e-05
-0.000181407
-2.8333e-05
-0.000170299
-0.000155562
-0.000149967
-0.000284154
-0.000121868
-0.000392649
-8.82373e-05
-0.0004705
-5.03932e-05
-0.000530127
-7.5719e-06
-0.000600357
4.28776e-05
-0.000707552
0.0001048
-0.000868184
0.000181595
-0.00107555
0.000275665
-0.0013159
0.000382661
-0.00149474
0.000494111
-0.0015538
0.000594396
-0.00139469
0.000658362
-0.00088835
0.000646988
0.000151899
0.000577623
0.000960771
0.00050477
0.00101195
0.000453427
0.000717527
0.000417964
0.000496476
0.000396666
0.000300438
0.000372832
0.000379906
0.000332596
0.000349623
-0.000295444
0.000509182
-0.000524684
0.000464138
-0.000722982
0.000401834
-0.00088792
0.000334611
-0.00102304
0.000274498
-0.00113699
0.000231709
-0.00124093
0.000211318
-0.0013447
0.00021064
-0.0014533
0.000220032
-0.00156504
0.00022605
-0.00167298
0.000218219
-0.00176766
0.000191504
-0.00184165
0.000150096
-0.00189518
0.000109215
-0.00193817
8.83158e-05
-0.00198807
0.000102312
-0.00206334
0.000152998
-0.00217286
0.000221163
-0.00230597
0.000267645
-0.00243166
0.000251742
-0.00250372
0.000143221
-0.00247774
-5.43147e-05
-0.00232631
-0.000306993
-0.00204836
-0.000562109
-0.00166437
-0.000776636
-0.00120552
-0.000929356
-0.000690254
-0.00104539
-0.000108084
-0.00118253
0.000577422
-0.00139306
0.00142035
-0.00171111
0.00246809
-0.00212329
0.0037515
-0.0025993
0.00521356
-0.00295681
0.00674363
-0.00308387
0.00812782
-0.00277887
0.00901387
-0.0017744
0.00884582
0.00031995
0.00787997
0.00192662
0.00687494
0.00201698
0.00617442
0.00141805
0.00569636
0.000974534
0.00541262
0.00058418
0.0051165
0.000676025
0.000639535
0.00480956
-0.000298873
0.00076296
-0.00052949
0.000694754
-0.000728188
0.000600532
-0.000892519
0.000498942
-0.00102622
0.000408195
-0.00113839
0.000343887
-0.00124083
0.000313754
-0.00134387
0.000313679
-0.00145276
0.000328921
-0.00156569
0.00033898
-0.0016752
0.000327731
-0.0017709
0.000287201
-0.00184464
0.000223835
-0.00189644
0.000161014
-0.00193669
0.00012857
-0.00198402
0.000149641
-0.00205832
0.000227295
-0.00216971
0.000332552
-0.00230777
0.000405709
-0.0024403
0.00038427
-0.0025188
0.000221723
-0.00249676
-7.63567e-05
-0.00234562
-0.000458133
-0.00206469
-0.000843035
-0.00167669
-0.00116464
-0.001216
-0.00139004
-0.000702707
-0.00155869
-0.00012595
-0.00175928
0.000551261
-0.00207027
0.00138425
-0.0025441
0.00242888
-0.00316792
0.00372237
-0.0038928
0.00520944
-0.00444388
0.00678276
-0.00465719
0.00822361
-0.00421972
0.00915453
-0.00270532
0.00895269
0.000521792
0.0079114
0.00296791
0.00684947
0.0030789
0.00612207
0.00214546
0.0056539
0.0014427
0.00539964
0.000838439
0.00517994
0.000895728
0.000907812
0.00491166
-0.000304082
0.0010199
-0.000536574
0.000927246
-0.00073573
0.000799689
-0.000899178
0.00066239
-0.00103099
0.000540006
-0.00114089
0.000453793
-0.00124142
0.000414277
-0.00134354
0.0004158
-0.00145282
0.000438206
-0.00156726
0.000453412
-0.0016787
0.000439179
-0.00177574
0.000384237
-0.00184918
0.00029728
-0.0018986
0.000210429
-0.00193485
0.000164817
-0.00197815
0.000192947
-0.00205102
0.000300167
-0.00216534
0.000446872
-0.002311
0.000551367
-0.0024541
0.000527369
-0.00254258
0.000310202
-0.00252623
-9.27089e-05
-0.00237499
-0.000609373
-0.00208895
-0.00112907
-0.0016943
-0.00155929
-0.00123016
-0.00185418
-0.000719284
-0.00206956
-0.000150361
-0.00232821
0.000515198
-0.00273583
0.00133641
-0.0033653
0.00238034
-0.00421185
0.00368556
-0.00519802
0.00520113
-0.00595945
0.00683605
-0.00629211
0.00837679
-0.00576047
0.0093754
-0.00370393
0.00909859
0.000798596
0.00793668
0.00412983
0.00680449
0.00421109
0.0060785
0.00287145
0.00564612
0.00187508
0.00539527
0.00108929
0.00517632
0.00111468
0.00116588
0.00491825
-0.000311093
0.00128124
-0.000546421
0.00116257
-0.00074642
0.000999688
-0.00090862
0.00082459
-0.00103743
0.00066882
-0.00114357
0.000559932
-0.00124088
0.000511581
-0.00134146
0.000516384
-0.00145141
0.000548153
-0.00156844
0.000570442
-0.00168328
0.00055402
-0.00178256
0.000483518
-0.00185557
0.000370292
-0.00190142
0.000256272
-0.00193188
0.000195281
-0.00196965
0.000230723
-0.00204024
0.000370751
-0.00215823
0.000564866
-0.0023141
0.00070723
-0.00247151
0.000684779
-0.00257341
0.000412108
-0.00256516
-0.000100956
-0.00241428
-0.000760255
-0.0021217
-0.00142166
-0.00171848
-0.00196251
-0.00125044
-0.00232222
-0.000743607
-0.00257639
-0.000186166
-0.00288565
0.000462748
-0.00338474
0.00126621
-0.00416876
0.00230615
-0.0052518
0.00362886
-0.00652073
0.00518893
-0.00751953
0.00691182
-0.008015
0.00858097
-0.00742961
0.00967697
-0.00479993
0.00934274
0.00113283
0.00800678
0.00546579
0.00675759
0.00546027
0.00597417
0.00365487
0.00555238
0.00229687
0.00537268
0.001269
0.00523627
0.00125108
0.001373
0.00502915
-0.000320218
0.00154789
-0.000558663
0.00140102
-0.000759346
0.00120037
-0.000919923
0.000985168
-0.00104544
0.000794336
-0.00114766
0.000662154
-0.00124165
0.000605571
-0.00134061
0.000615339
-0.00145122
0.000658762
-0.00157092
0.000690149
-0.00168925
0.000672345
-0.00179099
0.000585257
-0.00186364
0.000442946
-0.0019054
0.00029803
-0.00192869
0.000218572
-0.00195912
0.000261149
-0.00202676
0.00043839
-0.0021495
0.000687608
-0.0023185
0.000876227
-0.00249437
0.000860658
-0.00261406
0.000531789
-0.00261572
-9.92954e-05
-0.00246446
-0.000911508
-0.00216222
-0.0017239
-0.00174656
-0.00237817
-0.00127174
-0.00279704
-0.000768883
-0.00307925
-0.000225752
-0.00342878
0.000402559
-0.00401305
0.00118452
-0.00495072
0.0022173
-0.00628458
0.00355584
-0.00785926
0.00516846
-0.00913214
0.00700394
-0.00985048
0.00885868
-0.00928435
0.0100383
-0.00597953
0.00959868
0.00157243
0.00806235
0.00700211
0.00667022
0.0068524
0.00588817
0.00443692
0.00554096
0.00264407
0.00536031
0.00144965
0.00520579
0.0014056
0.00159773
0.00498107
-0.000331245
0.00182141
-0.00057413
0.0016439
-0.000776154
0.00140239
-0.00093476
0.00114377
-0.00105546
0.000915034
-0.00115155
0.000758247
-0.00124023
0.00069425
-0.00133668
0.000711792
-0.00144847
0.000770551
-0.00157253
0.000814209
-0.00169654
0.00079636
-0.00180215
0.000690866
-0.00187432
0.000515114
-0.00191036
0.000334069
-0.00192401
0.000232225
-0.00194505
0.000282184
-0.0020085
0.000501839
-0.00213674
0.000815849
-0.00232208
0.00106157
-0.0025211
0.00105967
-0.00266243
0.000673117
-0.00267714
-8.45827e-05
-0.00252574
-0.00106291
-0.00221194
-0.00203769
-0.00178161
-0.0028085
-0.00129984
-0.00327881
-0.000803104
-0.00357599
-0.000278718
-0.00395316
0.000322102
-0.00461387
0.00107802
-0.00570664
0.00210435
-0.00731091
0.00346218
-0.0092171
0.00512885
-0.0107988
0.00704213
-0.0117638
0.00899921
-0.0112414
0.0102101
-0.00719043
0.00970436
0.00207818
0.00803674
0.00866973
0.00657406
0.00831508
0.00574683
0.00526415
0.00542837
0.00296254
0.00535604
0.00152199
0.0052977
0.00146393
0.00176926
0.00512617
-0.000345106
0.00210263
-0.000592385
0.00189118
-0.000795172
0.00160518
-0.000951159