/*--------------------------------*- C++ -*----------------------------------*\
| =========                 |                                                 |
| \\      /  F ield         | OpenFOAM: The Open Source CFD Toolbox           |
|  \\    /   O peration     | Version:  v1912                                 |
|   \\  /    A nd           | Website:  www.openfoam.com                      |
|    \\/     M anipulation  |                                                 |
\*---------------------------------------------------------------------------*/
FoamFile
{
    version     2.0;
    format      ascii;
    class       volScalarField;
    location    "40";
    object      alpha.water;
}
// * * * * * * * * * * * * * * * * * * * * * * * * * * * * * * * * * * * * * //

dimensions      [0 0 0 0 0 0 0];


internalField   nonuniform List<scalar> 
14268
(
1
1
1
1
1
1
1
1
1
1
1
1
1
1
1
1
1
1
1
1
1
1
1
1
1
1
1
1
1
1
1
1
1
1
1
1
1
1
1
1
1
1
1
1
1
1
1
1
1
1
1
1
1
1
1
1
1
1
1
1
1
1
1
1
1
1
1
1
1
1
1
1
1
1
1
1
1
1
1
1
1
1
1
1
1
1
1
1
1
1
1
1
1
1
1
1
1
1
1
1
1
1
1
1
1
1
1
1
1
1
1
1
1
1
1
1
1
1
1
1
1
1
1
1
1
1
1
1
1
1
1
1
1
1
1
1
1
1
1
1
1
1
1
1
1
1
1
1
1
1
1
1
1
1
1
1
1
1
1
1
1
1
1
1
1
1
1
1
1
1
1
1
1
1
1
1
1
1
1
1
1
1
1
1
1
1
1
1
1
1
1
1
1
1
1
1
1
1
1
1
1
1
1
1
1
1
1
1
1
1
1
1
1
1
1
1
1
1
1
1
1
1
1
1
1
1
1
1
1
1
1
1
1
1
1
1
1
1
1
1
1
1
1
1
1
1
1
1
1
1
1
1
1
1
1
1
1
1
1
1
1
1
1
1
1
1
1
1
1
1
1
1
1
1
1
1
1
1
1
1
1
1
1
1
1
1
1
1
1
1
1
1
1
1
1
1
1
1
1
1
1
1
1
1
1
1
1
1
1
1
1
1
1
1
1
1
1
1
1
1
1
1
1
1
1
1
1
1
1
1
1
1
1
1
1
1
1
1
1
1
1
1
1
1
1
1
1
1
1
1
1
1
1
1
1
1
1
1
1
1
1
1
1
1
1
1
1
1
1
1
1
1
1
1
1
1
1
1
1
1
1
1
1
1
1
1
1
1
1
1
1
1
1
1
1
1
1
1
1
1
1
1
1
1
1
1
1
1
1
1
1
1
1
1
1
1
1
1
1
1
1
1
1
1
1
1
1
1
1
1
1
1
1
1
1
1
1
1
1
1
1
1
1
1
1
1
1
1
1
1
1
1
1
1
1
1
1
1
1
1
1
1
1
1
1
1
1
1
1
1
1
1
1
1
1
1
1
1
1
1
1
1
1
1
1
1
1
1
1
1
1
1
1
1
1
1
1
1
1
1
1
1
1
1
1
1
1
1
1
1
1
1
1
1
1
1
1
1
1
1
1
1
1
1
1
1
1
1
1
1
1
1
1
1
1
1
1
1
1
1
1
1
1
1
1
1
1
1
1
1
1
1
1
1
1
1
1
1
1
1
1
1
1
1
1
1
1
1
1
1
1
1
1
1
1
1
1
1
1
1
1
1
1
1
1
1
1
1
1
1
1
1
1
1
1
1
1
1
1
1
1
1
1
1
1
1
1
1
1
1
1
1
1
1
1
1
1
1
1
1
1
1
1
1
1
1
1
1
1
1
1
1
1
1
1
1
1
1
1
1
1
1
1
1
1
1
1
1
1
1
1
1
1
1
1
1
1
1
1
1
1
1
1
1
1
1
1
1
1
1
1
1
1
1
1
1
1
1
1
1
1
1
1
1
1
1
1
1
1
1
1
1
1
1
1
1
1
1
1
1
1
1
1
1
1
1
1
1
1
1
1
1
1
1
1
1
1
1
1
1
1
1
1
1
1
1
1
1
1
1
1
1
1
1
1
1
1
1
1
1
1
1
1
1
1
1
1
1
1
1
1
1
1
1
1
1
1
1
1
1
1
1
1
1
1
1
1
1
1
1
1
1
1
1
1
1
1
1
1
1
1
1
1
1
1
1
1
1
1
1
1
1
1
1
1
1
1
1
1
1
1
1
1
1
1
1
1
1
1
1
1
1
1
1
1
1
1
1
1
1
1
1
1
1
1
1
1
1
1
1
1
1
1
1
1
1
1
1
1
1
1
1
1
1
1
1
1
1
1
1
1
1
1
1
1
1
1
1
1
1
1
1
1
1
1
1
1
1
1
1
1
1
1
1
1
1
1
1
1
1
1
1
1
1
1
1
1
1
1
1
1
1
1
1
1
1
1
1
1
1
1
1
1
1
1
1
1
1
1
1
1
1
1
1
1
1
1
1
1
1
1
1
1
1
1
1
1
1
1
1
1
1
1
1
1
1
1
1
1
1
1
1
1
1
1
1
1
1
1
1
1
1
1
1
1
1
1
1
1
1
1
1
1
1
1
1
1
1
1
1
1
1
1
1
1
1
1
1
1
1
1
1
1
1
1
1
1
1
1
1
1
1
1
1
1
1
1
1
1
1
1
1
1
1
1
1
1
1
1
1
1
1
1
1
1
1
1
1
1
1
1
1
1
1
1
1
1
1
1
1
1
1
1
1
1
1
1
1
1
1
1
1
1
1
1
1
1
1
1
1
1
1
1
1
1
1
1
1
1
1
1
1
1
1
1
1
1
1
1
1
1
1
1
1
1
1
1
1
1
1
1
1
1
1
1
1
1
1
1
1
1
1
1
1
1
1
1
1
1
1
1
1
1
1
1
1
1
1
1
1
1
1
1
1
1
1
1
1
1
1
1
1
1
1
1
1
1
1
1
1
1
1
1
1
1
1
1
1
1
1
1
1
1
1
1
1
1
1
1
1
1
1
1
1
1
1
1
1
1
1
1
1
1
1
1
1
1
1
1
1
1
1
1
1
1
1
1
1
1
1
1
1
1
1
1
1
1
1
1
1
1
1
1
1
1
1
1
1
1
1
1
1
1
1
1
1
1
1
1
1
1
1
1
1
1
1
1
1
1
1
1
1
1
1
1
1
1
1
1
1
1
1
1
1
1
1
1
1
1
1
1
1
1
1
1
1
1
1
1
1
1
1
1
1
1
1
1
1
1
1
1
1
1
1
1
1
1
1
1
1
1
1
1
1
1
1
1
1
1
1
1
1
1
1
1
1
1
1
1
1
1
1
1
1
1
1
1
1
1
1
1
1
1
1
1
1
1
1
1
1
1
1
1
1
1
1
1
1
1
1
1
1
1
1
1
1
1
1
1
1
1
1
1
1
1
1
1
1
1
1
1
1
1
1
1
1
1
1
1
1
1
1
1
1
1
1
1
1
1
1
1
1
1
1
1
1
1
1
1
1
1
1
1
1
1
1
1
1
1
1
1
1
1
1
1
1
1
1
1
1
1
1
1
1
1
1
1
1
1
1
1
1
1
1
1
1
1
1
1
1
1
1
1
1
1
1
1
1
1
1
1
1
1
1
1
1
1
1
1
1
1
1
1
1
1
1
1
1
1
1
1
1
1
1
1
1
1
1
1
1
1
1
1
1
1
1
1
1
1
1
1
1
1
1
1
1
1
1
1
1
1
1
1
1
1
1
1
1
1
1
1
1
1
1
1
1
1
1
1
1
1
1
1
1
1
1
1
1
1
1
1
1
1
1
1
1
1
1
1
1
1
1
1
1
1
1
1
1
1
1
1
1
1
1
1
1
1
1
1
1
1
1
1
1
1
1
1
1
1
1
1
1
1
1
1
1
1
1
1
1
1
1
1
1
1
1
1
1
1
1
1
1
1
1
1
1
1
1
1
1
1
1
1
1
1
1
1
1
1
1
1
1
1
1
1
1
1
1
1
1
1
1
1
1
1
1
1
1
1
1
1
1
1
1
1
1
1
1
1
1
1
1
1
1
1
1
1
1
1
1
1
1
1
1
1
1
1
1
1
1
1
1
1
1
1
1
1
1
1
1
1
1
1
1
1
1
1
1
1
1
1
1
1
1
1
1
1
1
1
1
1
1
1
1
1
1
1
1
1
1
1
1
1
1
1
1
1
1
1
1
1
1
1
1
1
1
1
1
1
1
1
1
1
1
1
1
1
1
1
1
1
1
1
1
1
1
1
1
1
1
1
1
1
1
1
1
1
1
1
1
1
1
1
1
1
1
1
1
1
1
1
1
1
1
1
1
1
1
1
1
1
1
1
1
1
1
1
1
1
1
1
1
1
1
1
1
1
1
1
1
1
1
1
1
1
1
1
1
1
1
1
1
1
1
1
1
1
1
1
1
1
1
1
1
1
1
1
1
1
1
1
1
1
1
1
1
1
1
1
1
1
1
1
1
1
1
1
1
1
1
1
1
1
1
1
1
1
1
1
1
1
1
1
1
1
1
1
1
1
1
1
1
1
1
1
1
1
1
1
1
1
1
1
1
1
1
1
1
1
1
1
1
1
1
1
1
1
1
1
1
1
1
1
1
1
1
1
1
1
1
1
1
1
1
1
1
1
1
1
1
1
1
1
1
1
1
1
1
1
1
1
1
1
1
1
1
1
1
1
1
1
1
1
1
1
1
1
1
1
1
1
1
1
1
1
1
1
1
1
1
1
1
1
1
1
1
1
1
1
1
1
1
1
1
1
1
1
1
1
1
1
1
1
1
1
1
1
1
1
1
1
1
1
1
1
1
1
1
1
1
1
1
1
1
1
1
1
1
1
1
1
1
1
1
1
1
1
1
1
1
1
1
1
1
1
1
1
1
1
1
1
1
1
1
1
1
1
1
1
1
1
1
1
1
1
1
1
1
1
1
1
1
1
1
1
1
1
1
1
1
1
1
1
1
1
1
1
1
1
1
1
1
1
1
1
1
1
1
1
1
1
1
1
1
1
1
1
1
1
1
1
1
1
1
1
1
1
1
1
1
1
1
1
1
1
1
1
1
1
1
1
1
1
1
1
1
1
1
1
1
1
1
1
1
1
1
1
1
1
1
1
1
1
1
1
1
1
1
1
1
1
1
1
1
1
1
1
1
1
1
1
1
1
1
1
1
1
1
1
1
1
1
1
1
1
1
1
1
1
1
1
1
1
1
1
1
1
1
1
1
1
1
1
1
1
1
1
1
1
1
1
1
1
1
1
1
1
1
1
1
1
1
1
1
1
1
1
1
1
1
1
1
1
1
1
1
1
1
1
1
1
1
1
1
1
1
1
1
1
1
1
1
1
1
1
1
1
1
1
1
1
1
1
1
1
1
1
1
1
1
1
1
1
1
1
1
1
1
1
1
1
1
1
1
1
1
1
1
1
1
1
1
1
1
1
1
1
1
1
1
1
1
1
1
1
1
1
1
1
1
1
1
1
1
1
1
1
1
1
1
1
1
1
1
1
1
1
1
1
1
1
1
1
1
1
1
1
1
1
1
1
1
1
1
1
1
1
1
1
1
1
1
1
1
1
1
1
1
1
1
1
1
1
1
1
1
1
1
1
1
1
1
1
1
1
1
1
1
1
1
1
1
1
1
1
1
1
1
1
1
1
1
1
1
1
1
1
1
1
1
1
1
1
1
1
1
1
1
1
1
1
1
1
1
1
1
1
1
1
1
1
1
1
1
1
1
1
1
1
1
1
1
1
1
1
1
1
1
1
1
1
1
1
1
1
1
1
1
1
1
1
1
1
1
1
1
1
1
1
1
1
1
1
1
1
1
1
1
1
1
1
1
1
1
1
1
1
1
1
1
1
1
1
1
1
1
1
1
1
1
1
1
1
1
1
1
1
1
1
1
1
1
1
1
1
1
1
1
1
1
1
1
1
1
1
1
1
1
1
1
1
1
1
1
1
1
1
1
1
1
1
1
1
1
1
1
1
1
1
1
1
1
1
1
1
1
1
1
1
1
1
1
1
1
1
1
1
1
1
1
1
1
1
1
1
1
1
1
1
1
1
1
1
1
1
1
1
1
1
1
1
1
1
1
1
1
1
1
1
1
1
1
1
1
1
1
1
1
1
1
1
1
1
1
1
1
1
1
1
1
1
1
1
1
1
1
1
1
1
1
1
1
1
1
1
1
1
1
1
1
1
1
1
1
1
1
1
1
1
1
1
1
1
1
1
1
1
1
1
1
1
1
1
1
1
1
1
1
1
1
1
1
1
1
1
1
1
1
1
1
1
1
1
1
1
1
1
1
1
1
1
1
1
1
1
1
1
1
1
1
1
1
1
1
1
1
1
1
1
1
1
1
1
1
1
1
1
1
1
1
1
1
1
1
1
1
1
1
1
1
1
1
1
1
1
1
1
1
1
1
1
1
1
1
1
1
1
1
1
1
1
1
1
1
1
1
1
1
1
1
1
1
1
1
1
1
1
1
1
1
1
1
1
1
1
1
1
1
1
1
1
1
1
1
1
1
1
1
1
1
1
1
1
1
1
1
1
1
1
1
1
1
1
1
1
1
1
1
1
1
1
1
1
1
1
1
1
1
1
1
1
1
1
1
1
1
1
1
1
1
1
1
1
1
1
1
1
1
1
1
1
1
1
1
1
1
1
1
1
1
1
1
1
1
1
1
1
1
1
1
1
1
1
1
1
1
1
1
1
1
1
1
1
1
1
1
1
1
1
1
1
1
1
1
1
1
0.999948
0.960671
0.9668
0.998927
1
1
1
1
1
1
1
1
1
1
1
1
1
1
1
1
1
1
1
1
1
1
1
1
1
1
1
1
1
1
1
1
1
1
0.962069
0.695594
0.775045
0.993693
1
1
1
1
1
1
1
1
1
1
1
1
1
1
1
1
1
1
1
1
1
1
1
1
1
1
1
1
1
1
1
1
1
1
1
1
1
1
1
1
1
1
1
1
1
1
1
1
1
1
1
1
1
1
1
1
1
1
1
1
1
1
1
1
1
1
1
1
1
1
1
1
1
1
1
1
1
1
1
1
1
1
1
1
1
1
1
1
1
1
1
1
1
1
1
1
1
1
1
1
1
1
1
1
1
1
1
1
1
1
1
1
1
1
1
1
1
1
1
1
1
0.845122
0.284822
0.00440062
0.0146562
0.334353
0.869041
0.999976
1
1
1
1
1
1
1
1
1
1
1
1
1
1
1
1
1
1
1
1
1
1
1
1
1
1
1
1
1
1
1
0.899698
0.177851
0.00178902
0.00150375
0.397395
0.983976
1
1
1
1
1
1
1
1
1
1
1
1
1
1
1
1
1
1
1
1
1
1
1
1
1
1
1
1
1
1
1
1
1
1
1
1
1
1
1
1
1
1
1
1
1
1
1
1
1
1
1
1
1
1
1
1
1
1
1
1
1
1
1
1
1
1
1
1
1
1
1
1
1
1
1
1
1
1
1
1
1
1
1
1
1
1
1
1
1
1
1
1
1
1
1
1
1
1
1
1
1
1
1
1
1
1
1
1
1
1
1
1
1
1
1
1
1
1
0.999998
0.76782
0.0563608
6.11709e-05
5.78176e-23
-1.61151e-26
1.09074e-22
0.0635208
0.749382
0.999971
1
1
1
1
1
1
1
1
1
1
1
1
1
1
1
1
1
1
1
1
1
1
1
1
1
1
1
1
1
0.969042
0.208513
-2.43725e-21
2.3123e-23
3.35645e-17
0.00173673
0.471969
0.999165
1
1
1
1
1
1
1
1
1
1
1
1
1
1
1
1
1
1
1
1
1
1
1
1
1
1
1
1
1
1
1
1
1
1
1
1
1
1
1
1
1
1
1
1
1
1
1
1
1
1
1
1
1
1
1
1
1
1
1
1
1
1
1
1
1
1
1
1
1
1
1
1
1
1
1
1
1
1
1
1
1
1
1
1
1
1
1
1
1
1
1
1
1
1
1
1
1
1
1
1
1
1
1
1
1
1
1
1
1
1
1
1
1
1
1
1
1
0.834585
0.0605977
2.50414e-13
9.03751e-17
5.6848e-36
1.39811e-53
1.53195e-40
7.55989e-23
0.0388518
0.762675
1
1
1
1
1
1
1
1
1
1
1
1
1
1
1
1
1
1
1
1
1
1
1
1
1
1
1
1
0.999094
0.463931
3.563e-05
-2.45803e-25
-1.19891e-25
1.81917e-37
1.24046e-12
0.0108408
0.741992
1
1
1
1
1
1
1
1
1
1
1
1
1
1
1
1
1
1
1
1
1
1
1
1
1
1
1
1
1
1
1
1
1
1
1
1
0.998934
0.961513
0.956604
0.984344
0.994281
1
1
1
1
1
1
1
1
1
1
1
1
1
1
1
1
1
1
1
1
1
1
1
1
1
1
1
1
1
1
1
1
1
1
1
1
1
1
1
1
1
1
1
1
1
1
1
1
0.999999
0.99999
0.999909
1
1
1
1
1
1
1
1
1
1
1
1
1
1
1
1
1
1
1
1
1
1
1
1
0.923736
0.135905
6.43403e-06
1.12223e-17
2.1586e-21
6.78208e-40
8.83445e-59
-2.22808e-49
9.9065e-35
5.99829e-19
0.0683776
0.836842
1
1
1
1
1
1
1
1
1
1
1
1
1
1
1
1
1
1
1
1
1
1
1
1
1
1
0.999987
0.774442
0.0130401
1.05107e-08
-6.20383e-29
-7.13715e-28
-2.67611e-30
3.58645e-23
2.84867e-07
0.126651
0.946
1
1
1
1
1
1
1
1
1
1
1
1
1
1
1
1
1
1
1
1
1
1
1
1
1
1
1
1
1
1
1
1
0.999998
0.974448
0.610516
0.211908
0.0171052
0.00577079
0.188909
0.571694
0.943471
0.9993
1
1
1
1
1
1
1
1
1
1
1
1
1
1
1
1
1
1
1
1
1
1
1
1
1
1
1
1
1
1
1
1
1
1
1
1
1
1
1
1
1
1
1
0.999999
0.999996
0.999985
0.999921
0.999447
0.994584
1
1
1
1
1
1
1
1
1
1
1
1
1
1
1
1
1
1
1
1
1
1
1
0.984378
0.262184
7.07886e-07
-7.93473e-25
2.66919e-37
2.87948e-34
1.74498e-36
3.82375e-57
-1.41226e-46
-3.91328e-49
-1.01116e-51
1.49683e-12
0.13683
0.928333
1
1
1
1
1
1
1
1
1
1
1
1
1
1
1
1
1
1
1
1
1
1
1
1
1
0.957765
0.146211
8.65992e-22
-2.34993e-28
-1.8036e-31
-2.54243e-30
-1.12931e-32
-4.09247e-35
7.0009e-18
0.000747417
0.401167
0.998671
1
1
1
1
1
1
1
1
1
1
1
1
1
1
1
1
1
1
1
1
1
1
1
1
1
1
1
1
1
1
0.999009
0.770154
0.197073
0.0140961
-4.69267e-21
5.40854e-15
1.47983e-11
6.19208e-08
0.000817343
0.158098
0.712217
0.97828
1
1
1
1
1
1
1
1
1
0.999875
0.997321
0.997156
1
1
1
1
1
1
1
1
1
1
1
1
1
1
1
1
1
1
1
1
1
1
1
1
1
1
0.999999
0.999997
0.999991
0.999976
0.999945
0.999862
0.999564
0.997963
0.983901
0.843074
1
1
1
1
1
1
1
1
1
1
1
1
1
1
1
1
1
1
1
1
1
1
0.999934
0.430618
0.000115765
1.88986e-24
1.10682e-42
-3.12049e-32
-9.21072e-35
-1.40117e-37
-1.55095e-40
-1.30992e-43
-1.16734e-46
-1.42591e-49
-1.82837e-52
7.05579e-06
0.291133
0.992417
1
1
1
1
1
1
1
1
1
1
1
1
1
1
1
1
1
1
1
1
1
1
1
0.999643
0.412344
0.000139241
-3.82531e-24
-1.55233e-26
-2.6569e-29
-3.82749e-32
-7.73615e-35
-2.5964e-37
1.23355e-27
8.40313e-13
0.00725869
0.714569
1
1
1
1
1
1
1
1
1
1
1
1
1
1
1
1
1
1
1
1
1
1
1
1
1
1
1
1
0.999994
0.949197
0.453267
0.0356406
1.43867e-17
3.51406e-19
3.32797e-27
3.21251e-20
1.06341e-16
2.25251e-13
5.76998e-10
2.7967e-06
0.0136369
0.379815
0.882188
0.983985
0.999741
1
1
1
1
0.998458
0.889462
0.703197
0.61288
0.649163
0.806427
0.943488
0.988452
1
1
1
1
1
1
1
1
1
1
1
1
1
1
1
1
1
1
1
1
1
0.999996
0.999986
0.999957
0.999823
0.999539
0.999102
0.998391
0.996603
0.989354
0.944543
0.669349
0.208289
1
1
1
1
1
1
1
1
1
1
1
1
1
1
1
1
1
1
1
1
1
0.999992
0.561606
0.000923119
-1.47938e-24
-6.08823e-27
-1.51008e-30
-4.34329e-33
-5.15301e-36
-3.85416e-39
-2.59657e-42
-1.91321e-45
-1.77326e-48
-2.06647e-51
2.36623e-53
2.3627e-72
0.000178455
0.539448
1
1
1
1
1
1
1
1
1
1
1
1
1
1
1
1
1
1
1
1
1
1
0.99999
0.656214
0.00491812
5.0098e-20
3.28179e-32
-5.36042e-29
-1.03803e-31
-1.58891e-34
-4.57347e-37
-1.77425e-39
1.67649e-36
1.69237e-36
1.24734e-08
0.0919782
0.895494
1
1
1
1
1
1
1
1
1
1
1
1
1
1
1
1
1
1
1
1
1
1
1
1
1
1
0.990986
0.662109
0.149639
0.00932006
4.71769e-21
-1.06834e-37
2.34837e-29
3.32334e-27
8.63187e-26
5.10509e-22
2.16772e-18
3.76134e-15
6.03432e-12
1.69569e-08
0.000103001
0.0623776
0.422224
0.723844
0.871538
0.855464
0.6961
0.453223
0.175237
0.0159767
0.00166002
3.29989e-05
0.000594057
0.0149193
0.19295
0.578178
0.916603
0.998293
1
1
1
1
1
1
1
1
1
1
1
1
1
1
1
1
1
0.999999
0.99996
0.999167
0.988693
0.938519
0.864898
0.853747
0.887209
0.897588
0.846101
0.679933
0.380249
0.0947886
2.76205e-06
1
1
1
1
1
1
1
1
1
1
1
1
1
1
1
1
1
1
1
1
0.999853
0.547554
0.00669717
5.19728e-21
-2.14111e-40
-5.06311e-30
-2.42049e-32
-3.52242e-35
-2.75542e-38
-1.75335e-41
-1.19468e-44
-9.87063e-48
-1.00585e-50
-1.15229e-53
-1.27515e-56
-1.2644e-59
3.65632e-26
0.0225188
0.79661
1
1
1
1
1
1
1
1
1
1
1
1
1
1
1
1
1
1
1
1
1
0.740407
0.041773
5.79744e-19
8.61509e-33
1.18915e-29
-5.44669e-32
-1.24307e-34
-6.77973e-37
-3.21105e-39
-1.14116e-41
-3.22378e-44
9.31722e-33
7.74582e-20
4.51392e-06
0.202159
0.938581
1
1
1
1
1
1
1
1
1
1
1
1
1
1
1
1
1
1
1
1
1
1
1
0.996265
0.727056
0.239535
0.0224034
2.17156e-26
6.41428e-26
-6.67054e-24
-2.40473e-25
-1.90577e-27
8.82041e-29
6.18944e-31
2.32846e-28
1.26622e-24
3.1631e-21
5.10717e-18
5.28283e-15
3.49469e-12
1.63837e-09
3.37454e-07
5.12242e-06
8.4638e-06
0.00106566
0.0078029
0.00483614
1.17112e-07
5.78131e-12
1.69305e-10
3.81474e-09
7.18652e-08
1.90343e-06
9.26284e-05
0.00701913
0.197642
0.706248
0.965647
1
1
1
1
1
1
1
1
1
1
1
1
1
1
1
0.999999
0.999952
0.99785
0.925541
0.542213
0.237274
0.127285
0.105998
0.116899
0.141703
0.13316
0.0822621
0.0137138
6.27779e-08
8.30855e-08
1
1
1
1
1
1
1
1
1
1
1
1
1
0.993964
0.902231
0.890603
0.97536
1
0.997331
0.789398
0.302334
0.00112677
7.42189e-22
5.69078e-40
3.00935e-41
-4.89355e-32
-1.21735e-34
-1.18604e-37
-8.19298e-41
-5.58796e-44
-4.26063e-47
-3.99667e-50
-4.20042e-53
-4.5303e-56
-4.61869e-59
-4.27773e-62
-3.5964e-65
6.32386e-15
0.150982
0.957224
1
1
1
1
1
1
1
1
1
1
1
1
1
1
1
1
1
1
0.972092
0.538737
0.036951
2.59174e-21
-6.00112e-38
8.59878e-33
1.9744e-31
4.5798e-34
-6.20345e-38
-5.33603e-39
-2.0293e-41
-5.57722e-44
-1.28773e-46
1.12525e-42
5.94634e-31
1.45005e-18
5.13974e-06
0.195361
0.848067
0.99082
0.997949
1
1
1
1
1
1
1
1
1
1
1
1
1
1
1
1
1
1
0.999939
0.843355
0.299852
0.0261638
6.20957e-20
-1.69296e-22
1.14909e-38
-1.2316e-24
-1.09304e-24
-1.59142e-26
-1.67936e-28
-1.00849e-31
-1.93746e-34
-4.93485e-35
-3.62247e-37
8.10267e-34
2.09295e-29
2.04262e-24
1.0539e-19
7.41547e-18
4.54345e-21
-3.90255e-46
7.85532e-26
9.59222e-28
4.48141e-22
2.13181e-20
1.23169e-17
1.46749e-15
6.55104e-14
2.96351e-12
7.76321e-11
2.17389e-09
8.29245e-08
3.89047e-06
0.000346687
0.0348495
0.460628
0.912621
1
1
1
1
1
1
1
1
1
1
1
1
1
1
0.999975
0.998173
0.874285
0.28571
0.0451524
2.68534e-06
1.37368e-11
4.25952e-11
1.14196e-10
2.52461e-10
4.67166e-10
7.87585e-10
1.21661e-09
1.78906e-09
2.41968e-09
1
1
1
1
1
1
1
1
1
1
1
0.995551
0.600221
0.110324
0.000729442
0.000502684
0.00727913
0.0627309
0.0373103
0.00117397
0.000136826
4.42747e-21
-1.38787e-24
-5.07291e-30
-2.3593e-32
-2.38808e-34
-3.8794e-37
-3.38942e-40
-2.45356e-43
-1.76978e-46
-1.47327e-49
-1.44426e-52
-1.45483e-55
-1.44667e-58
-1.36758e-61
-1.19033e-64
-9.29893e-68
-6.49673e-71
1.18262e-05
0.40306
0.99867
1
1
1
1
1
1
1
1
1
1
1
1
0.955538
0.693513
0.512409
0.413197
0.291262
0.075311
0.00456735
1.43566e-18
-7.30097e-38
2.02035e-41
2.55578e-33
1.19139e-34
5.77995e-37
-4.48595e-39
-3.25414e-41
-8.62941e-44
-1.84236e-46
-3.39617e-49
-4.13683e-52
6.73155e-42
3.13813e-31
3.62278e-20
1.66724e-09
0.0337517
0.35357
0.627936
0.813568
0.963961
0.989789
0.999995
1
1
1
1
1
1
1
1
1
1
1
1
1
0.997268
0.607297
0.062686
0.00100928
8.76595e-19
1.3268e-35
-6.27247e-24
-2.89918e-26
-2.55743e-25
-4.25948e-26
-8.23587e-28
-1.08873e-29
-9.88902e-32
-8.70954e-34
-6.8318e-36
-4.40601e-38
-2.41905e-40
-1.08553e-42
2.12569e-40
-6.83879e-41
1.67487e-34
-1.0956e-34
-4.28585e-33
2.22059e-33
9.59088e-28
2.96414e-25
5.54511e-23
6.13343e-21
4.20689e-19
4.12938e-17
2.30909e-15
9.58453e-14
3.99438e-12
1.63317e-10
7.12181e-09
4.43053e-07
3.72637e-05
0.00557753
0.25741
0.825212
0.996428
1
1
1
1
1
1
1
1
1
1
1
0.99999
0.999092
0.898969
0.225665
0.00236983
2.27412e-14
1.11519e-13
4.11971e-13
1.18309e-12
2.87099e-12
7.10634e-12
1.46312e-11
2.4926e-11
3.98546e-11
6.65785e-11
9.20344e-11
1
1
1
1
1
1
1
1
1
1
0.989237
0.3802
0.000598169
-1.88903e-22
-5.50001e-26
4.39739e-44
-3.14048e-47
-6.24328e-65
-1.23459e-68
1.54902e-65
-6.08502e-63
-1.87918e-71
-3.64861e-29
-2.80389e-31
-7.86691e-34
-1.60331e-36
-1.75901e-39
-1.28925e-42
-7.95812e-46
-5.59913e-49
-4.85802e-52
-4.64352e-55
-4.34896e-58
-4.00782e-61
-3.55218e-64
-2.91032e-67
-2.13208e-70
-1.38663e-73
-9.44834e-86
0.00241373
0.68278
0.999932
1
1
1
1
1
1
1
1
1
0.992518
0.579652
0.0730428
0.00352462
0.00175851
0.00109108
0.00026292
-3.8236e-22
-7.6355e-42
3.10998e-39
3.06883e-38
2.65638e-41
8.2969e-36
6.73005e-38
2.12994e-39
-1.22987e-41
-8.3765e-44
-1.5437e-46
-2.56341e-49
-3.88221e-52
-5.0678e-55
3.78242e-53
1.14529e-43
1.71091e-34
4.18643e-26
2.9542e-19
6.04392e-14
1.06663e-09
1.49203e-05
0.0497525
0.356329
0.816231
0.993179
1
1
1
1
1
1
1
1
1
1
1
0.990379
0.462679
0.0214415
-7.67053e-21
-1.36485e-23
1.08169e-39
-4.57778e-25
-2.33508e-25
-2.20244e-27
-2.61527e-26
-1.85822e-27
-4.18177e-29
-5.78527e-31
-5.87411e-33
-5.1948e-35
-3.56945e-37
-2.15474e-39
-1.16513e-41
-5.89524e-44
-1.6885e-44
-1.34839e-40
-1.01291e-37
-1.10003e-35
3.02652e-53
2.23592e-32
3.12652e-31
1.42461e-28
3.47359e-26
5.57411e-24
4.79232e-22
2.65222e-20
2.27642e-18
1.45944e-16
6.94208e-15
3.78355e-13
1.81601e-11
1.06855e-09
7.43497e-08
7.07207e-06
0.00112578
0.117771
0.692338
0.975462
1
1
1
1
1
1
1
1
1
0.999996
0.99963
0.945033
0.28018
0.000435289
2.46543e-16
1.91916e-15
1.26666e-14
5.2096e-14
1.88825e-13
6.08912e-13
1.70994e-12
4.41297e-12
8.6079e-12
1.27356e-11
1.57191e-11
1.63923e-11
1
1
1
1
1
1
1
1
1
1
0.442107
0.00027678
3.54301e-22
-1.19952e-25
-8.31581e-29
-2.0828e-32
-4.19646e-36
-5.94885e-40
-4.9612e-44
-2.50842e-48
-1.84709e-52
-2.74926e-56
-1.11942e-30
-5.09274e-33
-9.85546e-36
-1.13777e-38
-8.25624e-42
-4.24476e-45
-2.21908e-48
-1.67346e-51
-1.48025e-54
-1.33084e-57
-1.16038e-60
-1.00585e-63
-8.45179e-67
-6.61503e-70
-4.72462e-73
-3.11655e-76
2.66146e-67
-7.72196e-41
0.0691855
0.869507
1
1
1
1
1
1
1
1
0.952672
0.314613
0.00392294
1.19172e-19
7.67788e-21
1.23911e-26
1.99995e-26
3.75503e-22
-3.15136e-24
-8.6288e-43
2.45116e-40
2.29327e-40
6.27334e-43
5.19468e-60
1.2328e-57
1.36863e-40
2.27321e-42
-8.18922e-62
-1.51664e-74
-2.95446e-59
-1.49596e-60
-4.27886e-62
-7.86494e-64
-8.39822e-66
-1.83567e-64
2.42434e-61
2.41095e-40
-2.0281e-40
-1.62562e-37
-1.77999e-34
-3.43018e-31
3.01186e-10
0.025124
0.556742
0.984672
1
1
1
1
1
1
1
1
1
0.991959
0.431332
0.0123964
1.64033e-18
-3.80225e-38
-6.05191e-26
-6.93346e-29
-1.75931e-26
-8.83226e-27
-1.22994e-28
-1.7727e-27
-8.54908e-29
-1.90335e-30
-2.58541e-32
-2.58957e-34
-2.24206e-36
-1.45369e-38
-8.42569e-41
-4.4952e-43
-2.28376e-45
-1.06103e-46
-1.76019e-42
-2.20078e-39
-3.47821e-37
-2.95904e-37
1.01091e-33
4.5567e-35
4.80345e-32
2.11631e-29
4.47154e-27
6.26507e-25
5.15392e-23
2.92315e-21
1.82755e-19
1.53497e-17
8.4728e-16
4.97903e-14
2.92751e-12
1.98912e-10
1.66025e-08
1.81951e-06
0.000282657
0.0492753
0.548771
0.937852
1
1
1
1
1
1
1
0.999998
0.999821
0.972652
0.404404
0.00600351
6.72451e-19
1.33953e-17
5.87537e-17
2.60472e-16
1.21134e-15
5.33598e-15
2.0278e-14
6.1366e-14
2.12409e-13
6.50566e-13
9.45038e-13
1.23637e-12
1.31957e-12
1
1
1
1
1
1
1
1
1
0.645345
0.000855826
1.06157e-22
-2.20369e-41
-1.52315e-28
-1.22669e-31
-4.62001e-35
-1.22384e-38
-2.26494e-42
-2.65074e-46
-2.11235e-50
-2.27565e-54
-4.90187e-58
-1.43554e-32
-4.56503e-35
-6.29102e-38
-4.94916e-41
-2.43136e-44
-9.48309e-48
-5.52114e-51
-4.80785e-54
-4.12375e-57
-3.46232e-60
-2.85933e-63
-2.38051e-66
-1.95963e-69
-1.56941e-72
-1.22488e-75
-9.25914e-79
-1.01752e-74
-2.02817e-39
-1.2712e-36
0.181348
0.945569
1
1
1
1
1
1
0.918837
0.2154
0.000738831
1.69476e-20
1.64065e-37
1.32436e-38
1.2786e-43
1.59739e-44
-5.82392e-42
-2.10644e-26
-7.21926e-44
-5.9873e-59
5.24967e-43
8.21688e-45
1.08097e-64
-7.85389e-52
-1.33066e-59
4.58405e-44
4.26811e-46
1.01853e-53
1.2074e-72
-1.32619e-62
-7.84366e-64
-2.13859e-65
-3.10006e-67
-2.19679e-69
2.33555e-85
1.09474e-65
8.8119e-51
5.27629e-49
2.65846e-48
5.81006e-33
6.76349e-24
4.08555e-14
0.000507785
0.424006
0.976626
1
1
1
1
1
1
1
0.996308
0.463667
0.0116991
1.86764e-32
1.60785e-35
-2.77707e-26
-1.21018e-27
-2.04921e-29
-4.47159e-28
-3.32307e-28
-5.86564e-30
-9.03062e-29
-3.56534e-30
-7.60647e-32
-1.00505e-33
-9.80418e-36
-8.28231e-38
-5.19189e-40
-2.93753e-42
-1.567e-44
-8.05066e-47
-6.10922e-49
-8.74395e-45
-1.53238e-41
-4.14897e-39
-2.09227e-37
-4.40177e-60
6.65881e-39
8.12343e-36
6.14906e-33
2.76013e-30
4.86201e-28
6.51648e-26
5.94686e-24
3.22475e-22
1.82048e-20
1.88511e-18
1.22278e-16
8.31322e-15
4.92088e-13
4.02619e-11
3.89266e-09
4.75904e-07
7.53256e-05
0.0170927
0.393053
0.878708
0.999375
1
1
1
1
0.999996
0.999842
0.981547
0.530064
0.0281927
3.48465e-17
6.72167e-19
1.89521e-19
8.44646e-19
4.35253e-18
2.06089e-17
9.77965e-17
4.40855e-16
1.57308e-15
4.37246e-15
1.08295e-14
1.12156e-13
1.4917e-13
1.11062e-13
0.999996
1
1
1
1
1
1
1
0.854443
0.0496232
-1.8235e-21
-1.28507e-25
-8.363e-31
-2.03359e-31
-1.79659e-34
-8.08238e-38
-2.5184e-41
-5.63025e-45
-8.79202e-49
-1.04088e-52
-1.57513e-56
-1.05209e-59
-1.00581e-34
-2.32016e-37
-2.27311e-40
-1.23229e-43
-4.26245e-47
-1.70163e-50
-1.42477e-53
-1.30905e-56
-1.05648e-59
-8.43712e-63
-6.81134e-66
-5.73895e-69
-5.07591e-72
-4.66497e-75
-4.24583e-78
-3.52988e-81
-2.42201e-74
-2.57467e-38
-1.58131e-35
7.91363e-15
0.244998
0.945145
0.999755
1
1
1
0.848082
0.153202
2.50755e-21
5.71667e-21
8.19833e-25
1.46731e-53
4.70939e-66
-8.70223e-43
-2.78887e-37
-6.66786e-33
-1.13582e-28
-1.49816e-41
-5.87685e-44
2.04121e-61
3.62085e-46
3.49109e-48
3.59149e-67
-2.1891e-54
4.20395e-63
2.68876e-48
1.76549e-50
-1.93574e-71
-3.83294e-64
-2.41943e-65
-6.88527e-67
-1.0227e-68
-7.3578e-71
-3.96631e-73
-1.4732e-70
-2.40324e-68
-2.54316e-75
6.01683e-55
3.37732e-45
5.61726e-36
2.72049e-26
5.25201e-16
8.01237e-05
0.370248
0.967491
1
1
1
1
1
0.996984
0.49344
0.0153855
1.45317e-19
7.18739e-47
-1.89684e-29
-6.58561e-27
-1.85685e-28
-3.22253e-30
-1.48314e-29
-1.21082e-29
-2.55701e-31
-3.72517e-30
-1.31632e-31
-2.71299e-33
-3.50824e-35
-3.35666e-37
-2.78554e-39
-1.72306e-41
-9.68903e-44
-5.21915e-46
-2.70398e-48
-1.23252e-50
-1.6364e-47
-3.65794e-44
-1.24194e-41
-7.81427e-40
-2.19996e-41
6.96073e-61
7.91763e-40
6.37557e-37
3.5216e-34
1.54836e-31
3.02301e-29
4.14966e-27
4.0452e-25
2.7712e-23
1.7245e-21
1.55815e-19
1.47976e-17
1.01863e-15
7.54438e-14
6.84093e-12
7.52764e-10
1.02167e-07
1.70816e-05
0.00403159
0.215838
0.737113
0.958771
0.999999
0.999996
0.999976
0.999518
0.970535
0.572833
0.0645718
2.11013e-21
7.79856e-21
1.23389e-19
9.99955e-21
5.31806e-20
2.96033e-19
1.43123e-18
6.92037e-18
3.31385e-17
1.24171e-16
3.46045e-16
9.11701e-16
1.46514e-14
1.71874e-14
8.41758e-15
0.734773
1
1
1
1
1
1
0.971934
0.197129
-9.08123e-21
-2.28394e-24
-5.74607e-30
-1.69711e-32
-2.83564e-34
-2.64085e-37
-1.32014e-40
-4.53189e-44
-1.17855e-47
-2.37355e-51
-3.94334e-55
-8.07106e-59
-6.11856e-61
-4.22366e-37
-7.05689e-40
-4.82313e-43
-1.78109e-46
-5.12086e-50
-3.47165e-53
-3.75777e-56
-3.32665e-59
-2.56534e-62
-2.03666e-65
-1.72696e-68
-1.63753e-71
-1.70415e-74
-1.79145e-77
-1.7189e-80
-1.38655e-83
-3.92164e-74
-1.17079e-40
-1.62103e-37
-4.31115e-35
1.11463e-15
0.159347
0.70766
0.990898
0.939902
0.545071
0.0582841
1.10762e-18
-1.1919e-22
2.61703e-38
1.77256e-43
-7.73221e-41
-4.27965e-43
-2.49003e-43
-2.11991e-38
-5.14604e-35
-4.96134e-31
-5.50778e-40
-8.5835e-43
-1.77375e-45
-9.07542e-65
1.19722e-49
5.55042e-52
5.95242e-72
-6.04619e-57
-1.22444e-67
-8.69959e-62
-5.94925e-63
-2.04339e-64
-4.57025e-66
-6.98526e-68
-6.79862e-70
-3.6533e-72
-1.58716e-72
-1.5267e-69
-4.30311e-67
-9.85975e-65
-2.28533e-62
4.16952e-69
1.00309e-47
8.05557e-38
8.80623e-28
4.99453e-17
1.88541e-05
0.293577
0.923992
0.995812
1
1
0.978284
0.439849
0.0172609
-2.10984e-22
-7.58553e-38
-1.46935e-31
-9.23645e-30
-7.77445e-28
-1.83532e-29
-3.52945e-31
-8.65386e-31
-4.27533e-31
-1.10508e-32
-1.31267e-31
-4.38305e-33
-8.85839e-35
-1.1331e-36
-1.07582e-38
-8.87287e-41
-5.51433e-43
-3.11866e-45
-1.69876e-47
-8.80163e-50
-3.87218e-52
-9.44535e-51
-2.59697e-47
-1.10488e-44
-8.93721e-43
-4.60167e-43
-1.82055e-45
1.12794e-44
1.01551e-41
3.76486e-39
1.63073e-36
6.2416e-34
2.49965e-31
4.94115e-29
6.7101e-27
7.74697e-25
6.43889e-23
4.98569e-21
5.9062e-19
6.1016e-17
5.46244e-15
5.85945e-13
8.07925e-11
1.23761e-08
2.25541e-06
0.000470363
0.0590462
0.438107
0.839308
0.990564
0.978136
0.830729
0.450623
0.0788001
6.41893e-20
8.69665e-22
2.54445e-22
2.91707e-26
8.75095e-34
2.91216e-33
2.51596e-33
1.35364e-33
7.2906e-31
1.19862e-27
1.98342e-21
2.94847e-20
8.30089e-20
6.72537e-20
2.96479e-20
5.52679e-20
0.0901887
0.886805
1
1
1
1
0.999572
0.385536
3.35136e-05
-2.08711e-25
-2.1117e-30
-8.06494e-32
-1.23121e-34
-4.64633e-37
-4.33456e-40
-2.1819e-43
-7.85109e-47
-2.31153e-50
-5.73009e-54
-1.26812e-57
-3.421e-61
-3.76992e-62
-1.09836e-39
-1.30272e-42
-6.04277e-46
-1.54932e-49
-6.56856e-53
-8.52919e-56
-9.49822e-59
-8.10345e-62
-6.32807e-65
-5.46711e-68
-5.42371e-71
-6.08627e-74
-7.00705e-77
-7.44792e-80
-6.76662e-83
-4.96419e-86
-3.2431e-74
-3.63473e-40
-1.31901e-36
-5.20735e-34
-4.66333e-32
7.35071e-30
1.57042e-10
0.0185293
0.011507
0.0022611
3.80375e-19
-5.99062e-37
-4.16705e-24
-5.398e-37
-3.0964e-39
-2.13017e-41
-8.27901e-44
-3.60031e-44
-1.38051e-39
-1.12771e-36
-1.7661e-33
-7.49291e-39
-8.11701e-43
-3.90086e-46
-4.82647e-49
-2.40484e-68
7.61365e-54
-5.27013e-57
-7.41539e-58
-1.17162e-59
-1.65633e-61
-2.31217e-63
-3.12354e-65
-3.84772e-67
-3.95294e-69
-2.93892e-71
-1.32025e-73
-6.95912e-72
-1.00496e-68
-3.46272e-66
-9.42551e-64
-2.7682e-61
-1.23199e-58
-1.94682e-55
-2.14814e-61
2.79581e-41
9.25242e-31
1.11441e-19
6.4691e-08
0.119221
0.563862
0.778765
0.640815
0.219931
0.010628
7.73194e-21
-2.04754e-22
-5.05248e-30
-8.68263e-32
-2.23923e-30
-6.14089e-29
-1.30604e-30
-3.19536e-32
-5.75975e-32
-1.4929e-32
-5.1909e-34
-4.12831e-33
-1.35252e-34
-2.71872e-36
-3.48069e-38
-3.32322e-40
-2.75941e-42
-1.74526e-44
-9.9595e-47
-5.44276e-49
-2.7818e-51
-1.19213e-53
-7.67966e-55
-2.53033e-51
-1.38877e-48
-1.64132e-46
-2.70171e-45
-6.32926e-47
1.76237e-65
1.46017e-46
2.17691e-43
7.55866e-41
1.68779e-38
3.3906e-36
7.6919e-34
1.98747e-31
4.66952e-29
6.69645e-27
6.51552e-25
5.37104e-23
4.25326e-21
3.36779e-19
2.40342e-17
2.75857e-15
5.01246e-13
7.31832e-11
7.53568e-09
1.41767e-06
0.000329583
0.0286868
0.155431
0.227704
0.155361
0.0399443
1.13221e-06
9.36883e-26
8.29216e-22
2.87626e-23
1.05252e-39
1.05764e-39
6.70168e-41
3.77835e-49
8.02514e-34
4.01117e-31
3.86904e-28
4.79305e-22
6.88507e-21
1.99509e-20
1.44271e-20
9.11869e-21
1.98619e-20
-7.90364e-116
0.166982
0.9043
0.999946
1
0.998214
0.46157
0.000340042
9.1667e-23
6.45014e-33
-7.96236e-32
-5.91849e-34
-8.42377e-37
-1.2261e-39
-8.50049e-43
-3.84086e-46
-1.40001e-49
-4.44446e-53
-1.28605e-56
-3.65827e-60
-1.27213e-63
-1.84673e-63
-1.77322e-42
-1.45065e-45
-4.40218e-49
-9.7334e-53
-1.34865e-55
-2.13679e-58
-2.3346e-61
-2.06083e-64
-1.81226e-67
-1.87844e-70
-2.18643e-73
-2.62213e-76
-2.95311e-79
-2.91503e-82
-2.39859e-85
-1.57083e-88
-3.12352e-86
-1.94094e-60
-1.62557e-56
-2.19133e-53
-1.0988e-50
-1.08064e-49
-1.65371e-45
-2.00462e-43
4.50316e-57
4.50573e-41
-1.16717e-37
-4.57836e-29
-5.40919e-26
-1.07898e-37
-4.5855e-40
-2.31425e-42
-7.51486e-45
-3.51342e-45
-6.93019e-41
-4.38384e-38
-5.23273e-36
-1.0395e-40
-1.95474e-44
-1.62549e-47
-2.54565e-50
-3.9354e-53
-4.49339e-56
-2.27549e-57
-5.05115e-59
-7.42172e-61
-9.2411e-63
-1.15753e-64
-1.39748e-66
-1.53359e-68
-1.40723e-70
-9.44288e-73
-3.9017e-75
-2.09096e-71
-5.22993e-68
-2.24195e-65
-7.46216e-63
-2.79927e-60
-1.76311e-57
-2.91609e-54
-5.38497e-51
5.34792e-65
2.33493e-44
3.86725e-29
4.50636e-27
1.45281e-27
1.9303e-08
0.000209014
0.00966012
4.33949e-05
-1.76291e-22
9.18377e-39
-4.86033e-24
-1.67027e-30
-2.18285e-32
-3.61034e-31
-3.70599e-30
-7.46651e-32
-2.60414e-33
-3.53904e-33
-5.28159e-34
-2.78457e-35
-1.20471e-34
-3.97666e-36
-8.04482e-38
-1.04312e-39
-1.01422e-41
-8.55893e-44
-5.52792e-46
-3.16138e-48
-1.71039e-50
-8.5103e-53
-3.51712e-55
-1.12956e-57
-1.33309e-57
-1.46185e-53
-1.57966e-50
-3.59357e-48
-4.71963e-49
-1.46265e-50
4.97088e-67
1.8405e-64
-1.67848e-52
-5.88172e-50
-1.59013e-47
-2.94017e-45
-3.9505e-43
-4.09507e-41
-3.24364e-39
-1.98884e-37
-1.00874e-35
-4.21213e-34
-1.30691e-32
-2.49429e-31
-3.34049e-30
-3.65984e-29
-2.13604e-28
-1.66439e-27
-9.65429e-27
-4.50322e-26
-5.85131e-26
-5.93609e-26
-8.61008e-28
-4.43631e-26
1.28142e-22
1.66563e-20
-3.28208e-25
2.26429e-22
1.3463e-24
2.06138e-30
5.5884e-43
-1.54473e-37
-1.75179e-37
8.00883e-34
2.89637e-31
8.36906e-29
2.384e-23
3.625e-22
1.34921e-21
1.04852e-21
2.20577e-21
7.77317e-21
-8.7739e-114
-6.94663e-39
0.0950455
0.522536
0.616173
0.254677
0.00030256
1.17477e-21
4.94558e-40
8.32267e-40
-1.23987e-33
-4.11035e-36
-5.0458e-39
-3.69046e-42
-1.82166e-45
-7.42749e-49
-2.62375e-52
-8.4347e-56
-2.76e-59
-9.80741e-63
-4.27453e-66
-7.25515e-65
-1.75437e-45
-9.54784e-49
-1.6151e-52
-1.08658e-55
-3.36651e-58
-5.33276e-61
-6.20746e-64
-6.34153e-67
-6.77614e-70
-8.06964e-73
-9.72879e-76
-1.11453e-78
-1.14981e-81
-1.02217e-84
-7.52976e-88
-4.39671e-91
-4.21553e-86
-3.29769e-59
-3.12194e-55
-5.45376e-52
-4.64213e-49
-2.38798e-46
-9.66543e-44
-3.28831e-41
-1.02065e-38
-3.72687e-36
-1.87334e-33
-1.39991e-30
-8.14925e-28
-1.1668e-38
-3.64638e-41
-1.54982e-43
-4.387e-46
-2.59856e-46
-2.914e-42
-1.40875e-39
-1.39678e-38
-8.40761e-43
-3.66746e-46
-4.43897e-49
-7.65436e-52
-1.46424e-54
-7.11401e-57
-1.47292e-58
-2.63296e-60
-3.64097e-62
-4.2362e-64
-4.91663e-66
-5.42884e-68
-5.40191e-70
-4.48415e-72
-2.7393e-74
-1.04688e-76
-3.12471e-71
-2.01668e-67
-1.09712e-64
-4.58697e-62
-2.26626e-59
-1.93681e-56
-3.2768e-53
-5.48591e-50
-1.35087e-47
4.13415e-60
1.07113e-39
2.34266e-30
5.1937e-29
4.10764e-40
2.93943e-21
6.24175e-19
6.03067e-21
-1.10972e-23
-3.05887e-24
-1.82819e-25
-2.646e-31
-4.29555e-33
-4.37259e-32
-1.86314e-31
-3.71222e-33
-1.97065e-34
-1.96624e-34
-1.92695e-35
-1.64245e-36
-3.3818e-36
-1.14392e-37
-2.35084e-39
-3.1193e-41
-3.11411e-43
-2.67443e-45
-1.75235e-47
-9.91531e-50
-5.23699e-52
-2.50937e-54
-9.93703e-57
-3.05963e-59
-6.27642e-62
-5.42626e-59
-1.25671e-55
-6.67518e-53
-1.94487e-52
-2.87889e-53
-7.05611e-55
-2.40436e-55
-8.83798e-53
-3.13982e-50
-8.57297e-48
-1.60422e-45
-2.1932e-43
-2.31922e-41
-1.87384e-39
-1.17819e-37
-6.13671e-36
-2.68411e-34
-9.13066e-33
-1.94555e-31
-2.91757e-30
-3.61186e-29
-3.77392e-28
-3.08881e-27
-1.8271e-26
-7.25119e-26
-1.82896e-25
-3.20415e-25
-4.22207e-25
-4.8064e-25
7.67308e-38
-4.41156e-39
-5.17014e-25
1.78783e-25
9.77877e-29
1.72036e-30
2.95278e-47
-5.60733e-37
-5.76359e-37
7.93624e-34
2.36686e-31
1.80991e-29
5.20899e-26
5.98211e-24