/*--------------------------------*- C++ -*----------------------------------*\
| =========                 |                                                 |
| \\      /  F ield         | OpenFOAM: The Open Source CFD Toolbox           |
|  \\    /   O peration     | Version:  v1912                                 |
|   \\  /    A nd           | Website:  www.openfoam.com                      |
|    \\/     M anipulation  |                                                 |
\*---------------------------------------------------------------------------*/
FoamFile
{
    version     2.0;
    format      ascii;
    class       volScalarField;
    location    "40";
    object      nut;
}
// * * * * * * * * * * * * * * * * * * * * * * * * * * * * * * * * * * * * * //

dimensions      [0 2 -1 0 0 0 0];


internalField   nonuniform List<scalar> 
14268
(
7.24271e-05
7.2661e-05
7.33287e-05
7.42829e-05
7.4879e-05
7.50544e-05
7.50546e-05
7.49826e-05
7.48623e-05
7.47545e-05
7.46671e-05
7.45911e-05
7.45224e-05
7.44583e-05
7.43971e-05
7.43381e-05
7.42828e-05
7.42342e-05
7.41957e-05
7.4165e-05
7.41489e-05
7.41496e-05
7.41639e-05
7.41828e-05
7.41944e-05
7.41904e-05
7.41651e-05
7.41178e-05
7.40514e-05
7.39751e-05
7.39106e-05
7.39113e-05
7.39717e-05
7.40776e-05
7.42176e-05
7.43834e-05
7.4586e-05
7.4825e-05
7.50928e-05
7.53807e-05
7.5677e-05
7.59648e-05
7.62242e-05
7.64356e-05
7.65827e-05
7.66562e-05
7.66576e-05
7.66095e-05
7.65489e-05
7.64863e-05
7.64228e-05
7.6358e-05
7.62937e-05
7.62338e-05
7.61786e-05
7.61289e-05
7.60889e-05
7.6056e-05
7.60387e-05
7.60381e-05
7.60579e-05
7.61007e-05
7.6153e-05
7.62012e-05
7.6236e-05
7.62516e-05
7.62451e-05
7.62224e-05
7.62118e-05
7.6285e-05
7.64232e-05
7.6605e-05
7.68131e-05
7.70318e-05
7.72609e-05
7.74925e-05
7.77169e-05
7.79291e-05
7.81286e-05
7.83213e-05
7.85147e-05
7.87159e-05
7.893e-05
7.91552e-05
7.93829e-05
7.95973e-05
7.97769e-05
7.98921e-05
7.99186e-05
7.98499e-05
7.97268e-05
7.95841e-05
7.94206e-05
7.92517e-05
7.90925e-05
7.89481e-05
7.88188e-05
7.87004e-05
7.85882e-05
7.84774e-05
7.83663e-05
7.82561e-05
7.81465e-05
7.80383e-05
7.79265e-05
7.78108e-05
7.76917e-05
7.75681e-05
7.744e-05
7.73095e-05
7.71796e-05
7.70668e-05
7.69964e-05
7.69588e-05
7.69427e-05
7.69369e-05
7.69286e-05
7.69065e-05
7.68634e-05
7.67952e-05
7.67011e-05
7.65841e-05
7.64503e-05
7.63068e-05
7.61616e-05
7.60225e-05
7.58978e-05
7.57943e-05
7.57159e-05
7.56644e-05
7.56412e-05
7.56496e-05
7.56885e-05
7.5753e-05
7.58378e-05
7.5941e-05
7.6058e-05
7.61794e-05
7.62935e-05
7.63883e-05
7.6452e-05
7.64741e-05
7.64445e-05
7.63567e-05
7.62462e-05
7.61344e-05
7.6013e-05
7.58902e-05
7.57763e-05
7.56681e-05
7.55637e-05
7.54654e-05
7.53755e-05
7.52933e-05
7.52144e-05
7.51351e-05
7.50548e-05
7.4972e-05
7.48876e-05
7.48061e-05
7.47325e-05
7.46661e-05
7.45978e-05
7.45247e-05
1.17535e-07
2.14551e-07
5.66448e-07
1.26231e-06
1.85913e-06
2.1169e-06
2.17236e-06
2.14415e-06
2.0681e-06
1.97797e-06
1.89424e-06
1.82081e-06
1.75945e-06
1.71028e-06
1.67188e-06
1.64128e-06
1.61478e-06
1.58822e-06
1.55812e-06
1.52242e-06
1.47994e-06
1.43116e-06
1.37792e-06
1.32306e-06
1.26985e-06
1.22144e-06
1.18055e-06
1.14925e-06
1.12925e-06
1.12075e-06
1.12467e-06
1.13551e-06
1.15345e-06
1.17877e-06
1.21169e-06
1.2524e-06
1.30093e-06
1.35704e-06
1.42e-06
1.48875e-06
1.56166e-06
1.63593e-06
1.70739e-06
1.77116e-06
1.8224e-06
1.85719e-06
1.87369e-06
1.87166e-06
1.84949e-06
1.81239e-06
1.76719e-06
1.71953e-06
1.67353e-06
1.63104e-06
1.59202e-06
1.55516e-06
1.51818e-06
1.47816e-06
1.43315e-06
1.38211e-06
1.32534e-06
1.26473e-06
1.20387e-06
1.14665e-06
1.09673e-06
1.05735e-06
1.03116e-06
1.01936e-06
1.02216e-06
1.03313e-06
1.05167e-06
1.07713e-06
1.10851e-06
1.14434e-06
1.18299e-06
1.22288e-06
1.26263e-06
1.30136e-06
1.33924e-06
1.37691e-06
1.41533e-06
1.45576e-06
1.4993e-06
1.54619e-06
1.59554e-06
1.64497e-06
1.69138e-06
1.73114e-06
1.76032e-06
1.77547e-06
1.77098e-06
1.74338e-06
1.69546e-06
1.6335e-06
1.56358e-06
1.49099e-06
1.4198e-06
1.35284e-06
1.29158e-06
1.23639e-06
1.18697e-06
1.14245e-06
1.10223e-06
1.06585e-06
1.03338e-06
1.00531e-06
9.82349e-07
9.65316e-07
9.54918e-07
9.51545e-07
9.55789e-07
9.6599e-07
9.78955e-07
9.94327e-07
1.01152e-06
1.02972e-06
1.04803e-06
1.06557e-06
1.0816e-06
1.09563e-06
1.10746e-06
1.11721e-06
1.12543e-06
1.13296e-06
1.14095e-06
1.15044e-06
1.16238e-06
1.17745e-06
1.19608e-06
1.21875e-06
1.24578e-06
1.27744e-06
1.31382e-06
1.35497e-06
1.4008e-06
1.45127e-06
1.50596e-06
1.56364e-06
1.62233e-06
1.67938e-06
1.73168e-06
1.77577e-06
1.8081e-06
1.82587e-06
1.82538e-06
1.80427e-06
1.76363e-06
1.70886e-06
1.6458e-06
1.58016e-06
1.51699e-06
1.46012e-06
1.4121e-06
1.374e-06
1.34527e-06
1.32492e-06
1.31086e-06
1.30066e-06
1.29148e-06
1.28062e-06
1.26653e-06
1.24902e-06
1.22899e-06
1.20765e-06
3.924e-08
6.81616e-08
1.72797e-07
3.81678e-07
5.63447e-07
6.44035e-07
6.65237e-07
6.61724e-07
6.46074e-07
6.26399e-07
6.08022e-07
5.92083e-07
5.78872e-07
5.68356e-07
5.60155e-07
5.53596e-07
5.47888e-07
5.42176e-07
5.35747e-07
5.28189e-07
5.19347e-07
5.0943e-07
4.98913e-07
4.88436e-07
4.78643e-07
4.70102e-07
4.63211e-07
4.58197e-07
4.55169e-07
4.54053e-07
4.54945e-07
4.56939e-07
4.60154e-07
4.64661e-07
4.7053e-07
4.7783e-07
4.86605e-07
4.96848e-07
5.08446e-07
5.21195e-07
5.34745e-07
5.4863e-07
5.62019e-07
5.73956e-07
5.83505e-07
5.89934e-07
5.92948e-07
5.92368e-07
5.87476e-07
5.79498e-07
5.69942e-07
5.59975e-07
5.50411e-07
5.41614e-07
5.33588e-07
5.26045e-07
5.1851e-07
5.10452e-07
5.01506e-07
4.91568e-07
4.80827e-07
4.69776e-07
4.59094e-07
4.49498e-07
4.41542e-07
4.35558e-07
4.31738e-07
4.30053e-07
4.30424e-07
4.31942e-07
4.34601e-07
4.3834e-07
4.43062e-07
4.48587e-07
4.54664e-07
4.61031e-07
4.67454e-07
4.73777e-07
4.79985e-07
4.86205e-07
4.92613e-07
4.99417e-07
5.06792e-07
5.14774e-07
5.23199e-07
5.31637e-07
5.39547e-07
5.46369e-07
5.5147e-07
5.54268e-07
5.53406e-07
5.48e-07
5.3864e-07
5.26674e-07
5.13403e-07
4.99925e-07
4.87043e-07
4.75255e-07
4.64807e-07
4.55724e-07
4.4794e-07
4.41252e-07
4.35489e-07
4.30519e-07
4.26304e-07
4.22865e-07
4.20249e-07
4.1851e-07
4.17665e-07
4.17773e-07
4.18847e-07
4.20685e-07
4.22922e-07
4.25527e-07
4.28419e-07
4.31486e-07
4.34599e-07
4.3763e-07
4.40467e-07
4.43029e-07
4.45267e-07
4.47187e-07
4.48868e-07
4.50451e-07
4.52142e-07
4.54123e-07
4.56557e-07
4.59555e-07
4.63188e-07
4.67547e-07
4.72709e-07
4.78738e-07
4.8566e-07
4.93479e-07
5.02178e-07
5.11805e-07
5.22331e-07
5.33534e-07
5.45035e-07
5.56296e-07
5.66716e-07
5.75624e-07
5.82327e-07
5.86312e-07
5.86605e-07
5.82611e-07
5.74492e-07
5.63458e-07
5.50807e-07
5.37778e-07
5.25424e-07
5.14519e-07
5.05574e-07
4.98744e-07
4.93789e-07
4.90404e-07
4.88231e-07
4.86754e-07
4.85413e-07
4.83658e-07
4.81274e-07
4.78325e-07
4.74965e-07
4.71211e-07
2.38022e-08
4.07616e-08
1.03195e-07
2.3254e-07
3.51483e-07
4.06618e-07
4.22905e-07
4.24638e-07
4.20443e-07
4.14054e-07
4.08e-07
4.0285e-07
3.98669e-07
3.95385e-07
3.9284e-07
3.90793e-07
3.88999e-07
3.87218e-07
3.85249e-07
3.82982e-07
3.80422e-07
3.77709e-07
3.75011e-07
3.72519e-07
3.70396e-07
3.68745e-07
3.67595e-07
3.66912e-07
3.66621e-07
3.66677e-07
3.6701e-07
3.67439e-07
3.68105e-07
3.69038e-07
3.70281e-07
3.71884e-07
3.73895e-07
3.7635e-07
3.79251e-07
3.82569e-07
3.8624e-07
3.90189e-07
3.94135e-07
3.97727e-07
4.00619e-07
4.02533e-07
4.0338e-07
4.03138e-07
4.01594e-07
3.99163e-07
3.96306e-07
3.93373e-07
3.90593e-07
3.88073e-07
3.85813e-07
3.83724e-07
3.8167e-07
3.7952e-07
3.77189e-07
3.74687e-07
3.72156e-07
3.6977e-07
3.6771e-07
3.66113e-07
3.6504e-07
3.64435e-07
3.6419e-07
3.642e-07
3.64357e-07
3.64535e-07
3.64855e-07
3.65329e-07
3.65985e-07
3.66825e-07
3.67829e-07
3.68958e-07
3.70165e-07
3.71408e-07
3.72682e-07
3.74052e-07
3.75548e-07
3.77216e-07
3.79101e-07
3.81212e-07
3.83495e-07
3.85817e-07
3.88001e-07
3.89846e-07
3.91151e-07
3.91791e-07
3.91441e-07
3.89848e-07
3.87222e-07
3.83973e-07
3.80487e-07
3.77073e-07
3.73929e-07
3.71164e-07
3.68809e-07
3.66838e-07
3.65229e-07
3.63954e-07
3.62955e-07
3.62192e-07
3.61639e-07
3.61277e-07
3.61086e-07
3.61041e-07
3.61118e-07
3.61293e-07
3.6155e-07
3.61851e-07
3.62193e-07
3.62596e-07
3.63048e-07
3.6353e-07
3.64026e-07
3.64516e-07
3.64988e-07
3.65433e-07
3.65821e-07
3.66143e-07
3.66414e-07
3.66672e-07
3.66975e-07
3.67351e-07
3.6782e-07
3.68419e-07
3.69165e-07
3.70092e-07
3.71237e-07
3.72625e-07
3.74269e-07
3.76172e-07
3.78372e-07
3.80924e-07
3.83841e-07
3.87066e-07
3.90476e-07
3.93895e-07
3.97105e-07
3.99864e-07
4.01907e-07
4.03066e-07
4.03098e-07
4.01806e-07
3.99266e-07
3.95871e-07
3.92042e-07
3.88167e-07
3.84543e-07
3.81418e-07
3.78947e-07
3.7713e-07
3.75857e-07
3.75015e-07
3.74509e-07
3.74179e-07
3.73793e-07
3.73254e-07
3.72614e-07
3.71934e-07
3.71236e-07
3.70291e-07
2.01907e-08
3.39948e-08
8.52701e-08
1.93665e-07
2.97644e-07
3.47477e-07
3.63964e-07
3.67306e-07
3.6679e-07
3.64687e-07
3.62431e-07
3.6057e-07
3.59074e-07
3.57925e-07
3.57026e-07
3.56278e-07
3.55597e-07
3.54916e-07
3.54184e-07
3.53375e-07
3.52519e-07
3.51732e-07
3.51092e-07
3.50667e-07
3.50485e-07
3.50557e-07
3.50833e-07
3.51225e-07
3.51643e-07
3.52012e-07
3.52278e-07
3.52385e-07
3.52487e-07
3.52618e-07
3.52804e-07
3.53074e-07
3.53473e-07
3.54034e-07
3.54777e-07
3.55705e-07
3.56815e-07
3.58138e-07
3.59551e-07
3.6087e-07
3.61922e-07
3.62578e-07
3.62864e-07
3.62785e-07
3.62275e-07
3.61476e-07
3.60532e-07
3.59584e-07
3.58699e-07
3.57905e-07
3.57203e-07
3.56564e-07
3.55947e-07
3.5532e-07
3.54666e-07
3.54004e-07
3.53448e-07
3.53094e-07
3.53003e-07
3.53208e-07
3.53662e-07
3.54249e-07
3.54821e-07
3.55246e-07
3.55438e-07
3.55387e-07
3.55263e-07
3.55086e-07
3.54911e-07
3.5477e-07
3.54689e-07
3.54682e-07
3.54749e-07
3.54875e-07
3.55053e-07
3.55334e-07
3.55725e-07
3.56238e-07
3.56884e-07
3.57661e-07
3.58537e-07
3.59433e-07
3.60247e-07
3.60871e-07
3.61205e-07
3.61252e-07
3.60972e-07
3.60296e-07
3.59317e-07
3.58175e-07
3.57004e-07
3.55904e-07
3.54925e-07
3.54084e-07
3.5339e-07
3.52829e-07
3.5241e-07
3.52141e-07
3.52001e-07
3.51972e-07
3.52045e-07
3.52207e-07
3.52431e-07
3.52674e-07
3.52894e-07
3.53059e-07
3.53146e-07
3.53146e-07
3.53102e-07
3.5306e-07
3.53019e-07
3.52975e-07
3.52927e-07
3.52879e-07
3.52842e-07
3.52817e-07
3.52785e-07
3.52743e-07
3.52687e-07
3.52636e-07
3.52616e-07
3.52616e-07
3.52618e-07
3.52637e-07
3.52694e-07
3.52796e-07
3.52963e-07
3.53205e-07
3.5353e-07
3.53943e-07
3.54475e-07
3.55172e-07
3.56053e-07
3.57101e-07
3.58256e-07
3.59438e-07
3.60562e-07
3.61505e-07
3.62131e-07
3.62407e-07
3.62285e-07
3.61689e-07
3.60669e-07
3.59363e-07
3.57954e-07
3.56561e-07
3.55251e-07
3.54151e-07
3.53355e-07
3.52842e-07
3.52501e-07
3.52314e-07
3.52249e-07
3.52161e-07
3.52008e-07
3.51813e-07
3.51642e-07
3.51548e-07
3.51506e-07
3.51329e-07
1.90951e-08
3.15846e-08
7.84587e-08
1.79402e-07
2.80372e-07
3.30225e-07
3.47803e-07
3.52323e-07
3.52849e-07
3.5214e-07
3.51099e-07
3.50285e-07
3.49631e-07
3.49122e-07
3.48713e-07
3.48325e-07
3.47947e-07
3.47558e-07
3.47148e-07
3.4671e-07
3.46273e-07
3.45943e-07
3.45788e-07
3.45851e-07
3.46136e-07
3.46619e-07
3.47236e-07
3.47893e-07
3.48502e-07
3.48991e-07
3.49304e-07
3.49395e-07
3.49387e-07
3.49364e-07
3.49341e-07
3.49347e-07
3.49405e-07
3.49537e-07
3.49761e-07
3.50092e-07
3.50525e-07
3.51111e-07
3.51807e-07
3.52487e-07
3.53018e-07
3.53327e-07
3.53468e-07
3.53428e-07
3.53218e-07
3.52892e-07
3.52518e-07
3.52134e-07
3.51781e-07
3.51466e-07
3.5119e-07
3.50932e-07
3.50679e-07
3.50428e-07
3.5018e-07
3.49944e-07
3.49819e-07
3.499e-07
3.50238e-07
3.50835e-07
3.5163e-07
3.52504e-07
3.53306e-07
3.53894e-07
3.54175e-07
3.54127e-07
3.53949e-07
3.5366e-07
3.53323e-07
3.52976e-07
3.52647e-07
3.52367e-07
3.52156e-07
3.5201e-07
3.51921e-07
3.51939e-07
3.52075e-07
3.52326e-07
3.52694e-07
3.53165e-07
3.5371e-07
3.54263e-07
3.5473e-07
3.55023e-07
3.55074e-07
3.54937e-07
3.54629e-07
3.54146e-07
3.5353e-07
3.52855e-07
3.5219e-07
3.51578e-07
3.51038e-07
3.50575e-07
3.5019e-07
3.49874e-07
3.4965e-07
3.49534e-07
3.49514e-07
3.4958e-07
3.49727e-07
3.49949e-07
3.50226e-07
3.50513e-07
3.5076e-07
3.50925e-07
3.50992e-07
3.50946e-07
3.50824e-07
3.50688e-07
3.50546e-07
3.50395e-07
3.5024e-07
3.50084e-07
3.49938e-07
3.49807e-07
3.49681e-07
3.4956e-07
3.49441e-07
3.49343e-07
3.49279e-07
3.4922e-07
3.49148e-07
3.49059e-07
3.48966e-07
3.48885e-07
3.48829e-07
3.48802e-07
3.48812e-07
3.48871e-07
3.49001e-07
3.4923e-07
3.49573e-07
3.50023e-07
3.50545e-07
3.51095e-07
3.51607e-07
3.51993e-07
3.52162e-07
3.52164e-07
3.51983e-07
3.51578e-07
3.50981e-07
3.50264e-07
3.49533e-07
3.48814e-07
3.48132e-07
3.47575e-07
3.47216e-07
3.47039e-07
3.46934e-07
3.46881e-07
3.46868e-07
3.46766e-07
3.46631e-07
3.46524e-07
3.46481e-07
3.46502e-07
3.46619e-07
3.46628e-07
1.85473e-08
3.00933e-08
7.40256e-08
1.70671e-07
2.71966e-07
3.23532e-07
3.42131e-07
3.47239e-07
3.48109e-07
3.47853e-07
3.47256e-07
3.46739e-07
3.46345e-07
3.4609e-07
3.45864e-07
3.45561e-07
3.4523e-07
3.44881e-07
3.44505e-07
3.44125e-07
3.43751e-07
3.4348e-07
3.43408e-07
3.43573e-07
3.4398e-07
3.44597e-07
3.45352e-07
3.46141e-07
3.46879e-07
3.47493e-07
3.4793e-07
3.4814e-07
3.48146e-07
3.48114e-07
3.48069e-07
3.48042e-07
3.48059e-07
3.48143e-07
3.48307e-07
3.4856e-07
3.48891e-07
3.49281e-07
3.49718e-07
3.50106e-07
3.50389e-07
3.50572e-07
3.50649e-07
3.50632e-07
3.50514e-07
3.5036e-07
3.50132e-07
3.4993e-07
3.49718e-07
3.49552e-07
3.49375e-07
3.49207e-07
3.4902e-07
3.48825e-07
3.48631e-07
3.48442e-07
3.48345e-07
3.48475e-07
3.48893e-07
3.49607e-07
3.50558e-07
3.51613e-07
3.52611e-07
3.53395e-07
3.5385e-07
3.53921e-07
3.53773e-07
3.53464e-07
3.53078e-07
3.52659e-07
3.52248e-07
3.51889e-07
3.51595e-07
3.5137e-07
3.51204e-07
3.51142e-07
3.51216e-07
3.51421e-07
3.51748e-07
3.52175e-07
3.52652e-07
3.5312e-07
3.53485e-07
3.53653e-07
3.53573e-07
3.53338e-07
3.52979e-07
3.52494e-07
3.51906e-07
3.51277e-07
3.50664e-07
3.50099e-07
3.49596e-07
3.49164e-07
3.48802e-07
3.48499e-07
3.4828e-07
3.48158e-07
3.48124e-07
3.48174e-07
3.48304e-07
3.4851e-07
3.48779e-07
3.49075e-07
3.49342e-07
3.49529e-07
3.49617e-07
3.49586e-07
3.49453e-07
3.49295e-07
3.49127e-07
3.48952e-07
3.48772e-07
3.48592e-07
3.48414e-07
3.48244e-07
3.4808e-07
3.47926e-07
3.47789e-07
3.47697e-07
3.47654e-07
3.47625e-07
3.47589e-07
3.47529e-07
3.47444e-07
3.47343e-07
3.4725e-07
3.47178e-07
3.47134e-07
3.47138e-07
3.47191e-07
3.47313e-07
3.47512e-07
3.47788e-07
3.48123e-07
3.48486e-07
3.48792e-07
3.48958e-07
3.48947e-07
3.48837e-07
3.48599e-07
3.48202e-07
3.47662e-07
3.47059e-07
3.46474e-07
3.45887e-07
3.45301e-07
3.4484e-07
3.44573e-07
3.44439e-07
3.44425e-07
3.44429e-07
3.44413e-07
3.44332e-07
3.44254e-07
3.44167e-07
3.44117e-07
3.44133e-07
3.44298e-07
3.4433e-07
1.80921e-08
2.87289e-08
6.98293e-08
1.62631e-07
2.65163e-07
3.19275e-07
3.39181e-07
3.44877e-07
3.4599e-07
3.45917e-07
3.45484e-07
3.4505e-07
3.44766e-07
3.44631e-07
3.44484e-07
3.44245e-07
3.43911e-07
3.43544e-07
3.43136e-07
3.4269e-07
3.42239e-07
3.4184e-07
3.41657e-07
3.41747e-07
3.42118e-07
3.42736e-07
3.43545e-07
3.4446e-07
3.45389e-07
3.46248e-07
3.46945e-07
3.47401e-07
3.47588e-07
3.47591e-07
3.47558e-07
3.47528e-07
3.47533e-07
3.47582e-07
3.47701e-07
3.479e-07
3.48181e-07
3.48529e-07
3.48884e-07
3.49197e-07
3.49429e-07
3.49564e-07
3.49608e-07
3.49586e-07
3.49477e-07
3.49366e-07
3.49152e-07
3.48987e-07
3.48814e-07
3.48698e-07
3.48547e-07
3.48402e-07
3.48237e-07
3.48047e-07
3.47839e-07
3.47623e-07
3.47444e-07
3.47483e-07
3.47838e-07
3.48537e-07
3.49532e-07
3.50701e-07
3.5188e-07
3.52896e-07
3.53597e-07
3.53907e-07
3.53842e-07
3.53586e-07
3.53205e-07
3.52749e-07
3.52267e-07
3.51815e-07
3.51432e-07
3.5113e-07
3.50909e-07
3.50793e-07
3.50841e-07
3.51046e-07
3.51391e-07
3.51831e-07
3.52308e-07
3.52738e-07
3.53036e-07
3.53115e-07
3.5295e-07
3.52631e-07
3.5219e-07
3.51637e-07
3.50994e-07
3.50308e-07
3.49648e-07
3.49043e-07
3.48505e-07
3.48047e-07
3.47651e-07
3.47306e-07
3.47041e-07
3.46868e-07
3.46778e-07
3.46773e-07
3.46852e-07
3.47013e-07
3.47247e-07
3.47523e-07
3.47789e-07
3.47993e-07
3.48107e-07
3.48097e-07
3.47965e-07
3.47791e-07
3.47605e-07
3.47413e-07
3.47218e-07
3.47022e-07
3.46819e-07
3.46616e-07
3.46418e-07
3.46227e-07
3.46057e-07
3.45943e-07
3.45903e-07
3.45903e-07
3.45913e-07
3.45917e-07
3.45913e-07
3.45904e-07
3.45885e-07
3.45869e-07
3.45878e-07
3.45923e-07
3.45994e-07
3.46107e-07
3.46281e-07
3.46534e-07
3.46854e-07
3.47168e-07
3.47388e-07
3.47445e-07
3.47386e-07
3.47226e-07
3.46958e-07
3.46533e-07
3.45948e-07
3.45292e-07
3.44655e-07
3.4402e-07
3.43447e-07
3.42968e-07
3.42726e-07
3.42629e-07
3.42635e-07
3.42673e-07
3.4266e-07
3.42574e-07
3.42475e-07
3.42364e-07
3.42242e-07
3.42189e-07
3.42338e-07
3.4233e-07
1.76367e-08
2.7349e-08
6.53945e-08
1.5403e-07
2.57916e-07
3.14936e-07
3.36653e-07
3.43044e-07
3.44331e-07
3.44229e-07
3.43768e-07
3.43316e-07
3.43047e-07
3.4295e-07
3.42844e-07
3.42651e-07
3.423e-07
3.41892e-07
3.41432e-07
3.40927e-07
3.40399e-07
3.39837e-07
3.39451e-07
3.39367e-07
3.39621e-07
3.40206e-07
3.41069e-07
3.42104e-07
3.43189e-07
3.44226e-07
3.45138e-07
3.45868e-07
3.46377e-07
3.46659e-07
3.46839e-07
3.46953e-07
3.47001e-07
3.47042e-07
3.47163e-07
3.47387e-07
3.47672e-07
3.4798e-07
3.48258e-07
3.48471e-07
3.48617e-07
3.48685e-07
3.48675e-07
3.48624e-07
3.4849e-07
3.48345e-07
3.48113e-07
3.47905e-07
3.47743e-07
3.47633e-07
3.47488e-07
3.47348e-07
3.47177e-07
3.46953e-07
3.46678e-07
3.46364e-07
3.4604e-07
3.45903e-07
3.46106e-07
3.46701e-07
3.47671e-07
3.48905e-07
3.50255e-07
3.51523e-07
3.5253e-07
3.53141e-07
3.53303e-07
3.53228e-07
3.52993e-07
3.52612e-07
3.52141e-07
3.51658e-07
3.51232e-07
3.50888e-07
3.5063e-07
3.50471e-07
3.50496e-07
3.5071e-07
3.51083e-07
3.51547e-07
3.52038e-07
3.52463e-07
3.52724e-07
3.52725e-07
3.52495e-07
3.52093e-07
3.51565e-07
3.50925e-07
3.5019e-07
3.49429e-07
3.48684e-07
3.47985e-07
3.4736e-07
3.46813e-07
3.46331e-07
3.45895e-07
3.45553e-07
3.45291e-07
3.45109e-07
3.45009e-07
3.45001e-07
3.45094e-07
3.45286e-07
3.45547e-07
3.45821e-07
3.4605e-07
3.46179e-07
3.4619e-07
3.46077e-07
3.45889e-07
3.45683e-07
3.45469e-07
3.45247e-07
3.45011e-07
3.4476e-07
3.44499e-07
3.44233e-07
3.43991e-07
3.43785e-07
3.43671e-07
3.43642e-07
3.43681e-07
3.43738e-07
3.43806e-07
3.43891e-07
3.43992e-07
3.44109e-07
3.4425e-07
3.44409e-07
3.44578e-07
3.44744e-07
3.44925e-07
3.45145e-07
3.45419e-07
3.45721e-07
3.45967e-07
3.46079e-07
3.4607e-07
3.45967e-07
3.45748e-07
3.45414e-07
3.44887e-07
3.4417e-07
3.43402e-07
3.4266e-07
3.4192e-07
3.41257e-07
3.40736e-07
3.4049e-07
3.40462e-07
3.40523e-07
3.40608e-07
3.4062e-07
3.40564e-07
3.40393e-07
3.40204e-07
3.39982e-07
3.3978e-07
3.39831e-07
3.3972e-07
1.71585e-08
2.59314e-08
6.0671e-08
1.446e-07
2.49614e-07
3.09831e-07
3.33522e-07
3.40686e-07
3.42258e-07
3.42068e-07
3.41468e-07
3.40922e-07
3.40663e-07
3.40611e-07
3.40518e-07
3.40364e-07
3.39978e-07
3.39487e-07
3.38908e-07
3.38223e-07
3.37434e-07
3.36619e-07
3.35916e-07
3.35555e-07
3.35601e-07
3.36061e-07
3.3688e-07
3.37941e-07
3.39097e-07
3.40226e-07
3.41262e-07
3.42193e-07
3.43029e-07
3.43768e-07
3.44394e-07
3.45045e-07
3.45663e-07
3.46172e-07
3.46499e-07
3.46744e-07
3.46984e-07
3.4723e-07
3.47435e-07
3.4756e-07
3.47626e-07
3.47612e-07
3.47506e-07
3.47383e-07
3.47144e-07
3.46885e-07
3.46598e-07
3.46331e-07
3.4615e-07
3.46006e-07
3.45824e-07
3.45645e-07
3.45429e-07
3.45126e-07
3.44731e-07
3.44273e-07
3.43781e-07
3.43288e-07
3.43176e-07
3.43529e-07
3.44377e-07
3.45657e-07
3.47209e-07
3.48787e-07
3.5013e-07
3.51087e-07
3.51619e-07
3.51837e-07
3.51905e-07
3.51752e-07
3.51424e-07
3.51014e-07
3.50629e-07
3.50328e-07
3.50122e-07
3.50002e-07
3.50056e-07
3.50303e-07
3.50725e-07
3.51253e-07
3.51773e-07
3.52174e-07
3.52367e-07
3.52284e-07
3.51999e-07
3.51534e-07
3.50919e-07
3.50164e-07
3.49313e-07
3.48439e-07
3.47573e-07
3.46751e-07
3.46004e-07
3.45338e-07
3.44737e-07
3.44193e-07
3.43748e-07
3.43364e-07
3.43063e-07
3.42835e-07
3.42704e-07
3.4269e-07
3.428e-07
3.42999e-07
3.43233e-07
3.43449e-07
3.43599e-07
3.43654e-07
3.43559e-07
3.43352e-07
3.43132e-07
3.42905e-07
3.42666e-07
3.42399e-07
3.42093e-07
3.41763e-07
3.41428e-07
3.41099e-07
3.40773e-07
3.40578e-07
3.40494e-07
3.40502e-07
3.40577e-07
3.40693e-07
3.40879e-07
3.4111e-07
3.41381e-07
3.4167e-07
3.4198e-07
3.42302e-07
3.42628e-07
3.42952e-07
3.43288e-07
3.43645e-07
3.4399e-07
3.44234e-07
3.44341e-07
3.44328e-07
3.44186e-07
3.43897e-07
3.43456e-07
3.42781e-07
3.41886e-07
3.40948e-07
3.39995e-07
3.39033e-07
3.38122e-07
3.37374e-07
3.36991e-07
3.36969e-07
3.37172e-07
3.37392e-07
3.37524e-07
3.37507e-07
3.37285e-07
3.36917e-07
3.36446e-07
3.35906e-07
3.35665e-07
3.35341e-07
1.66407e-08
2.44665e-08
5.56768e-08
1.34275e-07
2.39771e-07
3.03579e-07
3.29406e-07
3.37311e-07
3.38901e-07
3.38441e-07
3.37601e-07
3.36868e-07
3.36529e-07
3.36421e-07
3.36346e-07
3.3619e-07
3.35787e-07
3.35278e-07
3.34668e-07
3.339e-07
3.32945e-07
3.31838e-07
3.30712e-07
3.29933e-07
3.29619e-07
3.2976e-07
3.30277e-07
3.31026e-07
3.31869e-07
3.32737e-07
3.33638e-07
3.34688e-07
3.35917e-07
3.37232e-07
3.38523e-07
3.39881e-07
3.41363e-07
3.4282e-07
3.44082e-07
3.45107e-07
3.45847e-07
3.46228e-07
3.46323e-07
3.46194e-07
3.46108e-07
3.46003e-07
3.458e-07
3.45546e-07
3.45165e-07
3.4474e-07
3.44316e-07
3.43948e-07
3.43711e-07
3.43532e-07
3.43265e-07
3.43034e-07
3.4276e-07
3.42311e-07
3.41698e-07
3.40923e-07
3.40021e-07
3.39151e-07
3.38647e-07
3.38723e-07
3.39441e-07
3.40722e-07
3.42383e-07
3.44175e-07
3.45847e-07
3.47261e-07
3.48296e-07
3.48938e-07
3.49428e-07
3.49672e-07
3.49669e-07
3.49494e-07
3.49267e-07
3.49075e-07
3.48968e-07
3.4897e-07
3.49177e-07
3.4961e-07
3.50181e-07
3.50817e-07
3.51409e-07
3.51832e-07
3.51969e-07
3.51811e-07
3.51459e-07
3.5092e-07
3.50195e-07
3.49302e-07
3.48291e-07
3.47254e-07
3.46226e-07
3.45246e-07
3.44335e-07
3.43507e-07
3.42732e-07
3.42017e-07
3.41396e-07
3.40832e-07
3.40322e-07
3.39876e-07
3.39525e-07
3.39297e-07
3.39215e-07
3.39261e-07
3.39394e-07
3.3956e-07
3.39691e-07
3.39732e-07
3.39651e-07
3.39465e-07
3.39294e-07
3.39119e-07
3.38909e-07
3.38633e-07
3.38274e-07
3.37854e-07
3.37394e-07
3.36899e-07
3.36414e-07
3.36034e-07
3.35786e-07
3.3564e-07
3.35663e-07
3.35834e-07
3.36172e-07
3.36653e-07
3.37219e-07
3.378e-07
3.38366e-07
3.38905e-07
3.39414e-07
3.39906e-07
3.40399e-07
3.40899e-07
3.41354e-07
3.41699e-07
3.41901e-07
3.41928e-07
3.41758e-07
3.41369e-07
3.4077e-07
3.39892e-07
3.3875e-07
3.37509e-07
3.36188e-07
3.3483e-07
3.33514e-07
3.32424e-07
3.31852e-07
3.31744e-07
3.31929e-07
3.3218e-07
3.32399e-07
3.32423e-07
3.32174e-07
3.31668e-07
3.31008e-07
3.30187e-07
3.29572e-07
3.28918e-07
1.60793e-08
2.29704e-08
5.05033e-08
1.23138e-07
2.28032e-07
2.9576e-07
3.2396e-07
3.32477e-07
3.33914e-07
3.33052e-07
3.31661e-07
3.30548e-07
3.30034e-07
3.29837e-07
3.29719e-07
3.29487e-07
3.29029e-07
3.28526e-07
3.27925e-07
3.27042e-07
3.25759e-07
3.24061e-07
3.22066e-07
3.20209e-07
3.18632e-07
3.17392e-07
3.16438e-07
3.15693e-07
3.15102e-07
3.14754e-07
3.14948e-07
3.16397e-07
3.19126e-07
3.22514e-07
3.25952e-07
3.29175e-07
3.32235e-07
3.35157e-07
3.37944e-07
3.40377e-07
3.42226e-07
3.43401e-07
3.44039e-07
3.44362e-07
3.4437e-07
3.44101e-07
3.43618e-07
3.43064e-07
3.42446e-07
3.41764e-07
3.41093e-07
3.40494e-07
3.40079e-07
3.39708e-07
3.39126e-07
3.38363e-07
3.37633e-07
3.3692e-07
3.36132e-07
3.35158e-07
3.33863e-07
3.32405e-07
3.31255e-07
3.30666e-07
3.30676e-07
3.31161e-07
3.32204e-07
3.3373e-07
3.35658e-07
3.38081e-07
3.4058e-07
3.42689e-07
3.44393e-07
3.45579e-07
3.46298e-07
3.4666e-07
3.46798e-07
3.46843e-07
3.46907e-07
3.47059e-07
3.4746e-07
3.48224e-07
3.49149e-07
3.50055e-07
3.50826e-07
3.51327e-07
3.51444e-07
3.51255e-07
3.5083e-07
3.50183e-07
3.49323e-07
3.48257e-07
3.47041e-07
3.45792e-07
3.44544e-07
3.43337e-07
3.42173e-07
3.41068e-07
3.40001e-07
3.38985e-07
3.38031e-07
3.37091e-07
3.36147e-07
3.35227e-07
3.34377e-07
3.33635e-07
3.33054e-07
3.32663e-07
3.3246e-07
3.32398e-07
3.32397e-07
3.32435e-07
3.32485e-07
3.3252e-07
3.32643e-07
3.32755e-07
3.32752e-07
3.32564e-07
3.32187e-07
3.31654e-07
3.30994e-07
3.30225e-07
3.294e-07
3.28574e-07
3.27889e-07
3.27368e-07
3.27164e-07
3.27345e-07
3.27997e-07
3.28977e-07
3.30141e-07
3.31331e-07
3.32453e-07
3.33475e-07
3.34398e-07
3.3524e-07
3.36028e-07
3.36777e-07
3.37471e-07
3.38047e-07
3.38411e-07
3.38512e-07
3.38309e-07
3.37783e-07
3.36954e-07
3.35779e-07
3.34228e-07
3.32434e-07
3.30471e-07
3.28415e-07
3.26448e-07
3.24826e-07
3.23811e-07
3.2346e-07
3.23621e-07
3.24041e-07
3.24493e-07
3.24707e-07
3.24466e-07
3.23868e-07
3.22938e-07
3.2167e-07
3.2033e-07
3.18928e-07
1.54775e-08
2.14644e-08
4.52776e-08
1.11341e-07
2.14196e-07
2.85872e-07
3.16614e-07
3.25584e-07
3.26614e-07
3.24954e-07
3.22546e-07
3.20715e-07
3.1968e-07
3.18997e-07
3.18265e-07
3.17233e-07
3.1609e-07
3.15289e-07
3.14578e-07
3.13376e-07
3.1123e-07
3.07871e-07
3.03284e-07
2.97907e-07
2.92006e-07
2.85804e-07
2.79555e-07
2.73544e-07
2.68132e-07
2.63978e-07
2.62187e-07
2.65335e-07
2.73029e-07
2.83277e-07
2.94014e-07
3.03891e-07
3.1256e-07
3.19941e-07
3.25961e-07
3.3071e-07
3.34379e-07
3.36946e-07
3.385e-07
3.39346e-07
3.39704e-07
3.39535e-07
3.3882e-07
3.37755e-07
3.36517e-07
3.35176e-07
3.33745e-07
3.32357e-07
3.3122e-07
3.30137e-07
3.28478e-07
3.26829e-07
3.25899e-07
3.25397e-07
3.24805e-07
3.23425e-07
3.20698e-07
3.1758e-07
3.14515e-07
3.11524e-07
3.08138e-07
3.05013e-07
3.0342e-07
3.03874e-07
3.06569e-07
3.12069e-07
3.19207e-07
3.26108e-07
3.31707e-07
3.35821e-07
3.38609e-07
3.40434e-07
3.41603e-07
3.42382e-07
3.42986e-07
3.43612e-07
3.44472e-07
3.45732e-07
3.47255e-07
3.48665e-07
3.49795e-07
3.50488e-07
3.50656e-07
3.50463e-07
3.49969e-07
3.49212e-07
3.48189e-07
3.46908e-07
3.45419e-07
3.43862e-07
3.42252e-07
3.40625e-07
3.38974e-07
3.3729e-07
3.35559e-07
3.33824e-07
3.32017e-07
3.29993e-07
3.27755e-07
3.25436e-07
3.23143e-07
3.2093e-07
3.18897e-07
3.17185e-07
3.15927e-07
3.15184e-07
3.14891e-07
3.15251e-07
3.1623e-07
3.17503e-07
3.18935e-07
3.20227e-07
3.21122e-07
3.2148e-07
3.21319e-07
3.20736e-07
3.19806e-07
3.18531e-07
3.16948e-07
3.1529e-07
3.13783e-07
3.12606e-07
3.11954e-07
3.12111e-07
3.13257e-07
3.15163e-07
3.17442e-07
3.19781e-07
3.21987e-07
3.23965e-07
3.25702e-07
3.27224e-07
3.28583e-07
3.29875e-07
3.31106e-07
3.32175e-07
3.32927e-07
3.33258e-07
3.33098e-07
3.32407e-07
3.31244e-07
3.29582e-07
3.2731e-07
3.24512e-07
3.21354e-07
3.17984e-07
3.14722e-07
3.11979e-07
3.09996e-07
3.09027e-07
3.09101e-07
3.09899e-07
3.10921e-07
3.1158e-07
3.11548e-07
3.10802e-07
3.09315e-07
3.06911e-07
3.03903e-07
3.00707e-07
1.48474e-08
1.99788e-08
4.01527e-08
9.91356e-08
1.98138e-07
2.73219e-07
3.06222e-07
3.1516e-07
3.14986e-07
3.11297e-07
3.06393e-07
3.02352e-07
2.99416e-07
2.96812e-07
2.93429e-07
2.88736e-07
2.84603e-07
2.8256e-07
2.81455e-07
2.79406e-07
2.74932e-07
2.67019e-07
2.55448e-07
2.40656e-07
2.23435e-07
2.0508e-07
1.87041e-07
1.70662e-07
1.57064e-07
1.47623e-07
1.43631e-07
1.4965e-07
1.65168e-07
1.88046e-07
2.14749e-07
2.41125e-07
2.64831e-07
2.85052e-07
3.01091e-07
3.12712e-07
3.20474e-07
3.25269e-07
3.28036e-07
3.29406e-07
3.2988e-07
3.29672e-07
3.28634e-07
3.26794e-07
3.24304e-07
3.21148e-07
3.17417e-07
3.13607e-07
3.10313e-07
3.06487e-07
2.99618e-07
2.94819e-07
2.93738e-07
2.9455e-07
2.95001e-07
2.91748e-07
2.8334e-07
2.74953e-07
2.66371e-07
2.55883e-07
2.41288e-07
2.2827e-07
2.21626e-07
2.2199e-07
2.27584e-07
2.41207e-07
2.61478e-07
2.82362e-07
2.99883e-07
3.12805e-07
3.21509e-07
3.27226e-07
3.30964e-07
3.33519e-07
3.35451e-07
3.37222e-07
3.39189e-07
3.41543e-07
3.43993e-07
3.4627e-07
3.48019e-07
3.48991e-07
3.49246e-07
3.49038e-07
3.48465e-07
3.47616e-07
3.46441e-07
3.44899e-07
3.43012e-07
3.40887e-07
3.38515e-07
3.35908e-07
3.33003e-07
3.29708e-07
3.26039e-07
3.22074e-07
3.17533e-07
3.11941e-07
3.05427e-07
2.98639e-07
2.91882e-07
2.85108e-07
2.78463e-07
2.72509e-07
2.67891e-07
2.64998e-07
2.64102e-07
2.6694e-07
2.72634e-07
2.79405e-07
2.86135e-07
2.92011e-07
2.96357e-07
2.98923e-07
2.99919e-07
2.99604e-07
2.98192e-07
2.95799e-07
2.92694e-07
2.89265e-07
2.85928e-07
2.83098e-07
2.81469e-07
2.81704e-07
2.84051e-07
2.88085e-07
2.93043e-07
2.98178e-07
3.03017e-07
3.07315e-07
3.10995e-07
3.14077e-07
3.16669e-07
3.18967e-07
3.21063e-07
3.22888e-07
3.2422e-07
3.24882e-07
3.24799e-07
3.23905e-07
3.22264e-07
3.19803e-07
3.16274e-07
3.11656e-07
3.06224e-07
3.00386e-07
2.9453e-07
2.89112e-07
2.84628e-07
2.81761e-07
2.81118e-07
2.82357e-07
2.84266e-07
2.85766e-07
2.86229e-07
2.85211e-07
2.8253e-07
2.77849e-07
2.71316e-07
2.6383e-07
1.44161e-08
1.90068e-08
3.6856e-08
9.10674e-08
1.86809e-07
2.63867e-07
2.98195e-07
3.06859e-07
3.05645e-07
3.00022e-07
2.92877e-07
2.86754e-07
2.81972e-07
2.77503e-07
2.71607e-07
2.63625e-07
2.57011e-07
2.5409e-07
2.52788e-07
2.50144e-07
2.43851e-07
2.32343e-07
2.15239e-07
1.9287e-07
1.65945e-07
1.35919e-07
1.05018e-07
7.68961e-08
5.55352e-08
4.31126e-08
4.01777e-08
4.43127e-08
5.59205e-08
7.75431e-08
1.10412e-07
1.50797e-07
1.9139e-07
2.29186e-07
2.61195e-07
2.854e-07
3.01845e-07
3.1182e-07
3.17297e-07
3.20086e-07
3.21162e-07
3.2112e-07
3.19907e-07
3.1741e-07
3.13726e-07
3.08874e-07
3.03017e-07
2.9698e-07
2.91731e-07
2.85353e-07
2.7378e-07
2.66432e-07
2.65359e-07
2.67359e-07
2.68725e-07
2.63815e-07
2.506e-07
2.37429e-07
2.22915e-07
2.02116e-07
1.69958e-07
1.38405e-07
1.15708e-07
1.0684e-07
1.12716e-07
1.32799e-07
1.6782e-07
2.08359e-07
2.45204e-07
2.73774e-07
2.93334e-07
3.06108e-07
3.14457e-07
3.20104e-07
3.24221e-07
3.27821e-07
3.31637e-07
3.35881e-07
3.39929e-07
3.43379e-07
3.46073e-07
3.47586e-07
3.48058e-07
3.47857e-07
3.47201e-07
3.46278e-07
3.44993e-07
3.43247e-07
3.41035e-07
3.38408e-07
3.35334e-07
3.31799e-07
3.27662e-07
3.22739e-07
3.17074e-07
3.1074e-07
3.0321e-07
2.93598e-07
2.81992e-07
2.69151e-07
2.55129e-07
2.39092e-07
2.20583e-07
2.01155e-07
1.83709e-07
1.7152e-07
1.68072e-07
1.76689e-07
1.92328e-07
2.105e-07
2.27938e-07
2.42841e-07
2.54044e-07
2.6117e-07
2.64757e-07
2.65552e-07
2.64031e-07
2.6052e-07
2.55328e-07
2.49034e-07
2.42791e-07
2.37851e-07
2.35127e-07
2.35692e-07
2.40012e-07
2.4744e-07
2.56772e-07
2.66686e-07
2.76235e-07
2.84845e-07
2.92257e-07
2.98414e-07
3.03482e-07
3.07768e-07
3.11469e-07
3.14557e-07
3.16777e-07
3.17939e-07
3.18043e-07
3.17044e-07
3.15029e-07
3.11922e-07
3.07358e-07
3.0123e-07
2.93904e-07
2.85961e-07
2.77779e-07
2.6978e-07
2.62672e-07
2.5757e-07
2.55643e-07