/*--------------------------------*- C++ -*----------------------------------*\
| =========                 |                                                 |
| \\      /  F ield         | OpenFOAM: The Open Source CFD Toolbox           |
|  \\    /   O peration     | Version:  v1912                                 |
|   \\  /    A nd           | Website:  www.openfoam.com                      |
|    \\/     M anipulation  |                                                 |
\*---------------------------------------------------------------------------*/
FoamFile
{
    version     2.0;
    format      ascii;
    class       surfaceScalarField;
    location    "40";
    object      phi;
}
// * * * * * * * * * * * * * * * * * * * * * * * * * * * * * * * * * * * * * //

dimensions      [0 3 -1 0 0 0 0];
oriented        oriented;


internalField   nonuniform List<scalar> 
28285
(
0.0933768
-0.0103612
0.101662
-0.00828483
0.107369
-0.00570715
0.110167
-0.0027983
0.109739
0.000428226
0.106314
0.00342516
0.100227
0.00608669
0.092031
0.00819602
0.082387
0.00964395
0.0719752
0.0104118
0.0614162
0.010559
0.0512041
0.0102121
0.0416592
0.00954496
0.0329055
0.00875368
0.0248784
0.00802714
0.0173583
0.00752003
0.0100259
0.00733243
0.00250548
0.00752043
-0.0054816
0.00798708
-0.0142391
0.0087575
-0.0238256
0.00958647
-0.0341598
0.0103342
-0.0449966
0.0108368
-0.0559466
0.01095
-0.0665157
0.0105691
-0.0761545
0.00963882
-0.0843089
0.00815434
-0.0904587
0.00614984
-0.0941645
0.00370581
-0.0951425
0.000978007
-0.0931455
-0.00199701
-0.0883003
-0.00484519
-0.0807488
-0.00755157
-0.0707407
-0.0100081
-0.0586149
-0.0121258
-0.0447842
-0.0138308
-0.0297242
-0.0150599
-0.0139781
-0.0157462
0.00186858
-0.0158466
0.0173586
-0.01549
0.0318751
-0.0145165
0.0448759
-0.0130008
0.0558834
-0.0110074
0.0645187
-0.00863533
0.0705356
-0.00601686
0.0738392
-0.00330366
0.0744984
-0.000659206
0.0727112
0.00178727
0.0688686
0.00384251
0.0633754
0.00549321
0.0567264
0.00664904
0.0494059
0.0073205
0.0417476
0.00765826
0.033934
0.00781359
0.0260007
0.00793339
0.0178534
0.00814729
0.00930403
0.00854934
0.000114747
0.00918928
-0.00970508
0.00981983
-0.0203689
0.0106638
-0.031739
0.0113701
-0.0434754
0.0117364
-0.055006
0.0115307
-0.0656924
0.0106863
-0.0748423
0.00914987
-0.0817835
0.00694122
-0.0859578
0.00417432
-0.0870524
0.00109457
-0.0848705
-0.0021819
-0.0795993
-0.0052712
-0.0716334
-0.00796588
-0.0615488
-0.0100846
-0.0500252
-0.0115236
-0.0377518
-0.0122734
-0.0253442
-0.0124076
-0.0132843
-0.0120599
-0.00184759
-0.0114367
0.00892737
-0.010775
0.019085
-0.0101577
0.0287603
-0.00967523
0.0381123
-0.00935205
0.0472589
-0.00914662
0.0562142
-0.00895522
0.0648529
-0.00863877
0.0729154
-0.00806252
0.0800366
-0.0071212
0.0857977
-0.00576103
0.0897899
-0.0039922
0.091677
-0.00188718
0.0912299
0.000447188
0.0884471
0.00278277
0.0834108
0.00503627
0.0763798
0.00703105
0.0677193
0.0086605
0.0578488
0.0098705
0.0471919
0.0106569
0.0361402
0.0110517
0.0250283
0.0111119
0.0140781
0.0109503
0.0034244
0.0106537
-0.00690063
0.010325
-0.0168023
0.00990162
-0.0262054
0.00940318
-0.0350136
0.0088082
-0.043093
0.00807941
-0.0502701
0.00717704
-0.0563493
0.00607918
-0.0611387
0.00478949
-0.0644815
0.0033428
-0.0662956
0.00181408
-0.0665696
0.00027395
-0.0653961
-0.00117344
-0.062989
-0.00240711
-0.0596381
-0.00335088
-0.0556941
-0.00394403
-0.051537
-0.00415712
-0.0475178
-0.00401917
-0.0439177
-0.00360017
-0.0409222
-0.00299549
-0.0386064
-0.00231576
-0.0369328
-0.00167361
-0.035763
-0.00116984
-0.0348798
-0.000883117
-0.0340032
-0.000876621
-0.0328258
-0.00117747
-0.031081
-0.00174475
-0.0285306
-0.00255043
-0.024991
-0.00353956
-0.0203459
-0.00464509
-0.014557
-0.00578894
-0.00765769
-0.00689929
0.000233403
-0.0078911
0.00899733
-0.00876393
0.0184131
-0.00941581
0.0282355
-0.00982236
0.0381955
-0.00996003
0.0479924
-0.00979683
0.0573022
-0.00930988
0.0657851
-0.00848285
0.0730933
-0.00730822
0.0788951
-0.00580183
0.0828899
-0.00399473
0.084828
-0.00193816
0.084523
0.000305024
0.0820973
0.00242566
0.0775302
0.00456714
0.0710524
0.00647779
0.0630107
0.00804169
0.0538331
0.00917758
0.04399
0.00984312
0.0339459
0.0100441
0.0241201
0.00982578
0.0148531
0.00926703
0.00637625
0.00847684
-0.0012214
0.00759765
-0.00796614
0.00674473
-0.0140108
0.00604468
-0.0195804
0.00556957
-0.0249419
0.00536148
-0.0303192
0.00537737
-0.035838
0.00551872
-0.0414907
0.00565269
-0.0471202
0.00562955
0.00532617
0.0935088
-0.0205945
0.101662
-0.0164379
0.107222
-0.0112674
0.109883
-0.00545961
0.109424
0.000887316
0.106043
0.00680662
0.100039
0.012091
0.0919175
0.0163171
0.0823158
0.0192457
0.0719141
0.0208135
0.0613473
0.0211258
0.0511256
0.0204338
0.0415808
0.0190898
0.0328423
0.0174921
0.0248445
0.016025
0.0173616
0.0150029
0.0100676
0.0146264
0.00258134
0.0150067
-0.00536984
0.0159383
-0.0141214
0.0175091
-0.0237183
0.0191833
-0.0340753
0.0206912
-0.0449381
0.0216996
-0.055903
0.021915
-0.066458
0.021124
-0.0760356
0.0192164
-0.0840749
0.0161936
-0.0900842
0.0121591
-0.093813
0.00743464
-0.0947223
0.00188728
-0.092769
-0.0039503
-0.0879849
-0.00962928
-0.0804904
-0.0150461
-0.0705296
-0.0199689
-0.0584464
-0.0242089
-0.0446645
-0.0276127
-0.0296643
-0.0300601
-0.0139567
-0.0314538
0.00191979
-0.0317232
0.0174466
-0.0310168
0.0320003
-0.0290702
0.0450326
-0.0260331
0.0560615
-0.0220364
0.0647037
-0.0172775
0.070711
-0.0120241
0.0739904
-0.00658309
0.0746205
-0.00128928
0.0726735
0.00373429
0.0687066
0.00780936
0.0632015
0.0109983
0.056617
0.0132336
0.0493432
0.0145943
0.0417097
0.0152917
0.0339148
0.0156085
0.0260031
0.0158451
0.0178825
0.0162679
0.00936824
0.0170636
0.000241773
0.0183158
-0.00957733
0.0196389
-0.0202278
0.0213143
-0.0315753
0.0227175
-0.0433101
0.0234713
-0.0549376
0.0231581
-0.0657245
0.0214732
-0.0749682
0.0183936
-0.0819923
0.0139653
-0.0862263
0.00840832
-0.0873649
0.0022332
-0.0851698
-0.00437697
-0.0798604
-0.0105807
-0.0718342
-0.015992
-0.0616779
-0.0202409
-0.0500853
-0.0231162
-0.0377554
-0.0246034
-0.0252997
-0.0248634
-0.013207
-0.0241526
-0.0017588
-0.0228849
0.00898076
-0.0215145
0.0190959
-0.0202728
0.0287103
-0.0192896
0.038006
-0.0186478
0.047138
-0.0182786
0.0561194
-0.0179366
0.0648018
-0.0173212
0.0729178
-0.0161786
0.0800984
-0.0143017
0.0859176
-0.0115803
0.0899592
-0.00803374
0.0918819
-0.00380987
0.0914366
0.000892472
0.0886499
0.00556941
0.0835882
0.010098
0.0765193
0.0140999
0.0678166
0.0173632
0.0579055
0.0197817
0.0472146
0.0213478
0.0361469
0.0221193
0.0250213
0.0222376
0.0140573
0.0219142
0.00338998
0.021321
-0.00693417
0.0206492
-0.0168321
0.0197995
-0.0262358
0.0188069
-0.035053
0.0176254
-0.0431506
0.016177
-0.050352
0.0143785
-0.0564581
0.0121853
-0.0612722
0.0096036
-0.0646314
0.006702
-0.0664624
0.00364512
-0.0667267
0.000538156
-0.0655324
-0.00236774
-0.0630947
-0.00484475
-0.059709
-0.00673665
-0.0557304
-0.00792263
-0.0515326
-0.00835485
-0.0474762
-0.00807556
-0.04385
-0.00722641
-0.0408428
-0.00600264
-0.0385301
-0.00462846
-0.036872
-0.00333175
-0.035725
-0.00231687
-0.0348646
-0.0017435
-0.0340161
-0.00172515
-0.0328818
-0.00231167
-0.0311761
-0.00345053
-0.0286563
-0.00507017
-0.0251376
-0.00705825
-0.0205027
-0.00928006
-0.0147129
-0.0115787
-0.00780295
-0.0138093
0.000115539
-0.0158096
0.00889424
-0.0175426
0.0183284
-0.01885
0.0281862
-0.0196801
0.0381854
-0.0199593
0.0480238
-0.0196352
0.0573774
-0.0186635
0.065905
-0.0170105
0.073257
-0.0146602
0.0790985
-0.0116434
0.0831255
-0.00802177
0.0850865
-0.00389909
0.0847845
0.000607047
0.0823571
0.00485299
0.0777724
0.00915183
0.0712633
0.0129869
0.0631782
0.0161268
0.0539482
0.0184076
0.0440481
0.0197431
0.0339483
0.020144
0.0240742
0.0196999
0.014772
0.0185693
0.00627516
0.0169737
-0.00132003
0.0151928
-0.00803381
0.0134585
-0.0140425
0.0120533
-0.019586
0.0111131
-0.0249223
0.0106978
-0.0302847
0.0107398
-0.0358076
0.0110417
-0.0414847
0.0113297
-0.0471571
0.011302
0.0107106
0.0940649
-0.0309356
0.102319
-0.0246918
0.107957
-0.016905
0.110628
-0.008131
0.110128
0.00138703
0.106655
0.0102803
0.100512
0.0182337
0.0922299
0.024599
0.0824654
0.0290101
0.0719159
0.031363
0.0612317
0.0318101
0.0509354
0.0307301
0.041366
0.0286592
0.0326526
0.0262055
0.0247212
0.0239564
0.0173309
0.0223932
0.0101407
0.0218166
0.00273534
0.0224121
-0.00515053
0.0238241
-0.0138809
0.0262395
-0.0234996
0.028802
-0.0339214
0.031113
-0.0448841
0.0326623
-0.0559719
0.0330027
-0.0666595
0.0318117
-0.0763691
0.028926
-0.0845327
0.0243572
-0.0906491
0.0182756
-0.0943928
0.0111783
-0.0953038
0.00279828
-0.0933265
-0.00592754
-0.0884985
-0.0144573
-0.0809538
-0.0225908
-0.0709398
-0.029983
-0.058795
-0.0363537
-0.044933
-0.0414747
-0.0298255
-0.0451676
-0.0139888
-0.0472905
0.00203212
-0.0477441
0.0176994
-0.0466841
0.0323866
-0.0437575
0.0455341
-0.0391806
0.0566493
-0.0331516
0.0653377
-0.0259659
0.0713389
-0.0180253
0.0745508
-0.00979493
0.0750898
-0.00182833
0.0729926
0.00583147
0.0689866
0.0118154
0.0634122
0.0165727
0.0567362
0.0199095
0.0493923
0.0219382
0.0417223
0.0229617
0.0339273
0.0234036
0.026049
0.0237234
0.0179857
0.0243313
0.00953822
0.025511
0.000480132
0.0273738
-0.00932902
0.0294481
-0.0199998
0.0319851
-0.0314064
0.0341241
-0.0432323
0.0352972
-0.0549956
0.0349214
-0.0660262
0.0325039
-0.0754845
0.0278518
-0.082684
0.0211648
-0.0870609
0.0127852
-0.0882344
0.00340671
-0.0860046
-0.00660678
-0.0805898
-0.0159954
-0.0724041
-0.0241777
-0.0620571
-0.0305879
-0.0502703
-0.0349029
-0.0377634
-0.0371103
-0.0251822
-0.0374445
-0.0130221
-0.0363127
-0.00156609
-0.0343409
0.00913123
-0.0322118
0.019148
-0.0302896
0.0286624
-0.028804
0.0379074
-0.0278928
0.047021
-0.0273922
0.0560379
-0.0269535
0.0648385
-0.0261217
0.0730961
-0.0244362
0.0804143
-0.02162
0.0863614
-0.0175273
0.0905064
-0.0121787
0.0924952
-0.00579874
0.0920609
0.00132679
0.0892466
0.00838368
0.0841128
0.0152318
0.0769398
0.021273
0.0681136
0.0261894
0.0580718
0.0298234
0.047278
0.0321417
0.0361465
0.0332507
0.0249757
0.0334084
0.0139815
0.0329085
0.00329562
0.0320068
-0.00704113
0.0309859
-0.0169484
0.0297068
-0.0263698
0.0282282
-0.0352212
0.0264768
-0.0433689
0.0243246
-0.050629
0.0216386
-0.0567945
0.0183508
-0.0616589
0.014468
-0.0650479
0.0100911
-0.0668981
0.00549529
-0.0671303
0.000770384
-0.0658798
-0.00361825
-0.0633603
-0.00736429
-0.0598738
-0.0102231
-0.0557883
-0.0120081
-0.0514922
-0.012651
-0.0473561
-0.0122117
-0.043677
-0.0109055
-0.0406486
-0.00903105
-0.038347
-0.00693007
-0.036729
-0.0049497
-0.0356448
-0.00340111
-0.0348615
-0.00252681
-0.0340956
-0.00249105
-0.0330427
-0.00336452
-0.031409
-0.00508421
-0.0289452
-0.00753402
-0.0254621
-0.0105413
-0.0208404
-0.0139017
-0.0150422
-0.0173769
-0.0081037
-0.0207478
-0.000112105
-0.0238012
0.00869888
-0.0263536
0.0182006
-0.0283517
0.0281371
-0.0296166
0.0382234
-0.0300456
0.0481552
-0.029567
0.0576071
-0.0281153
0.0662347
-0.0256381
0.0736835
-0.0221089
0.0796113
-0.0175712
0.0837063
-0.0121168
0.0857075
-0.00590034
0.0854155
0.000899102
0.0829625
0.00730596
0.0783176
0.0137968
0.0717152
0.0195893
0.0635115
0.0243304
0.054149
0.0277702
0.044115
0.0297771
0.0338923
0.0303666
0.0239182
0.0296739
0.0145483
0.0279392
0.00602193
0.0255
-0.00155986
0.0227746
-0.00822595
0.0201246
-0.0141669
0.0179943
-0.0196418
0.016588
-0.0249218
0.0159778
-0.0302549
0.0160729
-0.0357807
0.0165674
-0.0415012
0.0170503
-0.0472567
0.0170575
0.0162076
0.0949435
-0.041506
0.103396
-0.0331447
0.109171
-0.0226793
0.11188
-0.0108403
0.111326
0.00194055
0.107711
0.0138957
0.101348
0.0245964
0.0927996
0.0331476
0.0827572
0.0390526
0.0719527
0.0421675
0.0610659
0.0426969
0.0506405
0.0411555
0.0410254
0.0382742
0.0323475
0.0348834
0.0245188
0.0317851
0.0172778
0.0296342
0.0102471
0.0288472
0.002969
0.0296902
-0.00482176
0.0316149
-0.0135166
0.0349343
-0.0231689
0.0384543
-0.0336947
0.0416389
-0.0448215
0.0437891
-0.0561152
0.0442965
-0.0670293
0.0427257
-0.0769644
0.0388611
-0.0853337
0.0327265
-0.0916266
0.0245684
-0.0954651
0.0150168
-0.096431
0.00376423
-0.0944502
-0.00790839
-0.089568
-0.0193394
-0.0819259
-0.0302328
-0.0717792
-0.0401297
-0.0594734
-0.0486595
-0.0454271
-0.0555211
-0.0301142
-0.0604805
-0.014055
-0.0633497
0.00220123
-0.0640003
0.0180949
-0.0625778
0.0329908
-0.0586533
0.0463075
-0.0524974
0.057532
-0.0443761
0.0662533
-0.0346873
0.072219
-0.023991
0.0753757
-0.0129516
0.0758294
-0.002282
0.0737406
0.00792027
0.0695832
0.0159728
0.0638273
0.0223287
0.0569796
0.0267572
0.0495048
0.029413
0.0417619
0.0307046
0.0339569
0.0312086
0.026125
0.0315553
0.0181469
0.0323093
0.00979846
0.0338595
0.000828494
0.0363438
-0.00896092
0.0392375
-0.0196756
0.0426998
-0.0312007
0.0456492
-0.0432133
0.0473098
-0.0551943
0.0469024
-0.0664975
0.0438071
-0.0763068
0.0376612
-0.083783
0.0286409
-0.0883783
0.0173806
-0.0895987
0.00462707
-0.0873101
-0.00889538
-0.0817295
-0.021576
-0.0732941
-0.0326132
-0.0626477
-0.0412342
-0.0505554
-0.0469952
-0.037775
-0.0498908
-0.0249998
-0.0502197
-0.0127346
-0.0485779
-0.00126912
-0.0458064
0.00938253
-0.0428635
0.0193102
-0.0402173
0.0287476
-0.0382414
0.0379266
-0.0370718
0.0470155
-0.0364811
0.0560572
-0.0359951
0.064939
-0.0350035
0.0733869
-0.0328841
0.08092
-0.0291531
0.0870627
-0.0236701
0.0913635
-0.0164795
0.0934486
-0.00788382
0.0930328
0.00174263
0.09017
0.0112464
0.0849192
0.0204827
0.0775748
0.0286173
0.0685414
0.0352228
0.0583119
0.0400529
0.047385
0.0430685
0.0361467
0.044489
0.0249007
0.0446544
0.0138604
0.0439488
0.00315193
0.0427153
-0.00717471
0.0413126
-0.0170696
0.0396017
-0.0265239
0.0376825
-0.035452
0.0354049
-0.0436917
0.0325643
-0.0510481
0.0289951
-0.0573074
0.02461
-0.0622504
0.019411
-0.065687
0.0135276
-0.0675646
0.00737285
-0.0677471
0.000952906
-0.0664113
-0.00495402
-0.0637666
-0.010009
-0.0601238
-0.0138659
-0.0558726
-0.0162593
-0.0514258
-0.0170978
-0.0471688
-0.0164687
-0.0434102
-0.0146641
-0.0403501
-0.0120911
-0.0380657
-0.00921452
-0.0365087
-0.00650665
-0.0355199
-0.00438996
-0.0348542
-0.00319246
-0.0342137
-0.00313163
-0.0332838
-0.00429435
-0.0317583
-0.0066097
-0.0293777
-0.00991463
-0.0259474
-0.0139717
-0.0213446
-0.0185045
-0.0155333
-0.0231883
-0.00855463
-0.0277264
-0.000508577
-0.0318472
0.00840605
-0.0352682
0.0180125
-0.0379582
0.0280662
-0.0396703
0.038281
-0.0402604
0.0483506
-0.0396366
0.0579473
-0.037712
0.0667224
-0.0344132
0.0743132
-0.0296998
0.0803674
-0.0236254
0.0845614
-0.0163107
0.0866247
-0.00796371
0.0863437
0.00118013
0.0838563
0.00979333
0.0791257
0.0185274
0.0723882
0.0263268
0.0640109
0.0327077
0.0544526
0.0373285
0.044219
0.0400108
0.0338116
0.040774
0.0236858
0.0397997
0.0142124
0.0374127
0.00564022
0.0340722
-0.00192192
0.0303368
-0.00851504
0.0267177
-0.0143478
0.023827
-0.0197154
0.0219556
-0.0249148
0.0211772
-0.0301975
0.0213556
-0.0357261
0.022096
-0.0415136
0.0228378
-0.0473942
0.0229381
0.0218712
0.0961325
-0.0524121
0.104873
-0.0418855
0.110842
-0.0286481
0.113615
-0.0136135
0.112991
0.0025654
0.109183
0.0177032
0.102519
0.0312602
0.0936022
0.0420646
0.0831727
0.0494821
0.0720114
0.0533288
0.0608403
0.053868
0.0502333
0.0517625
0.0405534
0.0479541
0.0319241
0.0435127
0.0242383
0.039471
0.0172142
0.0366583
0.0103892
0.0356723
0.00328752
0.0367919
-0.00437705
0.0392795
-0.0130195
0.0435767
-0.0227169
0.0481517
-0.0333866
0.0523086
-0.0447414
0.0551439
-0.0563226
0.0558777
-0.0675531
0.0539563
-0.0778023
0.0491103
-0.0864553
0.0413795
-0.0929855
0.0310986
-0.096972
0.0190033
-0.0980178
0.00481003
-0.0960327
-0.00989347
-0.0910756
-0.0242966
-0.0832972
-0.0380112
-0.0729633
-0.0504636
-0.0604295
-0.0611933
-0.0461222
-0.0698283
-0.0305219
-0.0760808
-0.0141542
-0.0797174
0.00242428
-0.0805788
0.0185965
-0.07875
0.0337208
-0.0737776
0.0472427
-0.0660193
0.0586575
-0.0557909
0.0675398
-0.0435696
0.0736107
-0.0300619
0.0767645
-0.0161054
0.0770958
-0.00261331
0.0748422
0.0101739
0.0704447
0.0203702
0.0644231
0.0283503
0.057331
0.0338493
0.0496691
0.0370748
0.04182
0.0385538
0.0339971
0.0390315
0.0262268
0.0393256
0.018365
0.0401711
0.0101508
0.0420736
0.00129198
0.0452026
-0.00846561
0.0489951
-0.0192443
0.0534785
-0.0309413
0.0573462
-0.0432289
0.0595974
-0.0555573
0.0592308
-0.0672159
0.0554656
-0.0774359
0.0478813
-0.0853209
0.0365259
-0.0901827
0.0222423
-0.0914713
0.00591572
-0.0891004
-0.0112663
-0.0832923
-0.027384
-0.0745139
-0.0413916
-0.0634554
-0.0522927
-0.050942
-0.0595086
-0.0377937
-0.0630391
-0.0247498
-0.0632636
-0.012338
-0.0609897
-0.000861475
-0.0572829
0.0097439
-0.0534689
0.0195678
-0.0500412
0.0288876
-0.0475612
0.0379793
-0.0461635
0.047047
-0.0455488
0.0561495
-0.0450976
0.0651655
-0.0440196
0.0738066
-0.0415252
0.0816228
-0.0369693
0.0880319
-0.0300792
0.0925426
-0.0209903
0.0947541
-0.0100952
0.0943676
0.00212906
0.091428
0.014186
0.0860022
0.0259084
0.0784047
0.0362148
0.0691184
0.0445091
0.0586772
0.0504942
0.0475522
0.0541935
0.0361543
0.0558869
0.0247979
0.0560108
0.0136919
0.0550549
0.00295158
0.0534555
-0.00737002
0.0516342
-0.0172841
0.0495158
-0.0267603
0.0471587
-0.0357348
0.0443794
-0.0440887
0.0409182
-0.0516038
0.0365102
-0.0580042
0.0310105
-0.0630607
0.0244675
-0.0665719
0.0170389
-0.0684675
0.00926838
-0.0685877
0.00107311
-0.0671368
-0.00640492
-0.064321
-0.0128248
-0.0604632
-0.0177237
-0.0559854
-0.0207371
-0.0513319
-0.0217513
-0.0469097
-0.0208909
-0.0430426
-0.0185312
-0.0399397
-0.015194
-0.0376791
-0.0114751
-0.0362062
-0.00797957
-0.0353489
-0.00524733
-0.0348452
-0.00369607
-0.0343782
-0.0035987
-0.033615
-0.00505755
-0.0322344
-0.0079903
-0.0299645
-0.0121845
-0.0266035
-0.0173327
-0.0220247
-0.0230833
-0.0161948
-0.0290181
-0.00916076
-0.0347605
-0.00102671
-0.0399813
0.00801507
-0.04431
0.0177654
-0.0477085
0.0279778
-0.0498827
0.0383651
-0.0506477
0.04862
-0.0498915
0.0584119
-0.0475039
0.0673865
-0.0433878
0.0751698
-0.037483
0.0813931
-0.0298487
0.0857171
-0.0206347
0.0878585
-0.0101051
0.0875938
0.00144482
0.0850632
0.012324
0.0802172
0.0233734
0.0732944
0.0332496
0.064678
0.0413241
0.0548507
0.0471558
0.0443439
0.0505176
0.0336852
0.0514327
0.0233545
0.0501304
0.0137423
0.0470249
0.0051107
0.0427038
-0.0024218
0.0378693
-0.00891691
0.0332128
-0.0146074
0.0295175
-0.0198298
0.027178
-0.0248996
0.0262469
-0.0301076
0.0265636
-0.0356417
0.0276301
-0.0415209
0.028717
-0.0475729
0.0289901
0.027764
0.0976341
-0.0637609
0.106754
-0.0510053
0.112979
-0.0348733
0.115843
-0.0164771
0.115127
0.00328093
0.111074
0.0217564
0.104023
0.0383108
0.0946314
0.0514564
0.0837018
0.0604116
0.0720789
0.0649518
0.0605399
0.065407
0.0496984
0.0626041
0.0399359
0.0577166
0.031372
0.0520766
0.0238759
0.0469671
0.0171288
0.0434053
0.0105669
0.0422342
0.00369826
0.0436605
-0.00380707
0.0467848
-0.0123758
0.0521455
-0.0221296
0.0579054
-0.0329844
0.0631634
-0.0446338
0.0667934
-0.0565865
0.0678303
-0.0682255
0.0655953
-0.0788791
0.0597639
-0.0878952
0.0503956
-0.0947248
0.0379282
-0.0989085
0.023187
-0.100055
0.00595626
-0.0980627
-0.0118855
-0.0930081
-0.0293511
-0.0850541
-0.0459653
-0.0744799
-0.0610378
-0.0616538
-0.0740193
-0.047013
-0.0844691
-0.0310463
-0.0920476
-0.0142873
-0.0964764
0.00269695
-0.097563
0.0192072
-0.0952602
0.0347114
-0.0892818
0.0485972
-0.0799051
0.0603054
-0.0674991
0.069382
-0.0526462
0.0755272
-0.036207
0.0786253
-0.0192036
0.0787834
-0.00277139
0.0762824
0.0126749
0.0715567
0.0250959
0.0651865
0.0347206
0.0577759
0.0412599
0.0498702
0.0449805
0.0418822
0.0465418
0.0340359
0.0468777
0.0263462
0.0470153
0.0186367
0.0478807
0.0105981
0.0501123
0.00188097
0.0539197
-0.00783031
0.0587064
-0.0186893
0.0643374
-0.030609
0.0692659
-0.0432563
0.0722447
-0.0560465
0.0720211
-0.0682085
0.0676276
-0.0789133
0.0585861
-0.0873248
0.0449374
-0.0924842
0.0274017
-0.0938696
0.00730109
-0.0913928
-0.0137431
-0.0852931
-0.0334836
-0.0760737
-0.0506111
-0.0644826
-0.0638838
-0.051426
-0.0725653
-0.0378064
-0.0766587
-0.0244169
-0.0766531
-0.0118169
-0.0735897
-0.000340525
-0.0687593
0.0102238
-0.0640332
0.0199059
-0.0597233
0.0290689
-0.0567242
0.0380468
-0.0551414
0.0470886
-0.0545906
0.0562756
-0.0542845
0.065481
-0.053225
0.0743828
-0.050427
0.082516
-0.0451025
0.089267
-0.0368301
0.0940436
-0.0257668
0.0964113
-0.012463
0.0960558
0.00248457
0.0929978
0.0172441
0.0873352
0.031571
0.0794671
0.0440829
0.0699009
0.0540754
0.0591629
0.0612322
0.0477701
0.0655863
0.0361615
0.0674955
0.0246612
0.0675111
0.0134713
0.0662448
0.00269519
0.0642316
-0.00765785
0.0619872
-0.0176025
0.0594604
-0.0271304
0.0566866
-0.0361828
0.0534318
-0.0446324
0.0493678
-0.0522895
0.0441673
-0.058883
0.037604
-0.0640937
0.0296782
-0.0677066
0.0206517
-0.0696138
0.0111756
-0.0696604
0.00111978
-0.068062
-0.0080034
-0.0650273
-0.0158595
-0.0608927
-0.0218582
-0.0561251
-0.0255047
-0.0512065
-0.0266699
-0.0465724
-0.025525
-0.0425664
-0.0225371
-0.0394089
-0.0183515
-0.0371794
-0.0137046
-0.0358144
-0.00934453
-0.035127
-0.00593475
-0.0348312
-0.00399179
-0.0345866
-0.00384336
-0.0340365
-0.00560759
-0.0328397
-0.00918711
-0.0307093
-0.0143149
-0.027435
-0.0206071
-0.022885
-0.0276333
-0.0170311
-0.034872
-0.0099246
-0.041867
-0.00167235
-0.0482335
0.00752505
-0.0535074
0.0174569
-0.0576404
0.0278684
-0.0602942
0.0384713
-0.0612506
0.0489581
-0.0603783
0.0589948
-0.0575407
0.068218
-0.052611
0.076236
-0.045501
0.0826575
-0.0362702
0.0871303
-0.0251076
0.089371
-0.0123458
0.089134
0.0016818
0.0865722
0.0148858
0.0815925
0.028353
0.0744388
0.0404033
0.0655191
0.0502438
0.0553489
0.057326
0.0444929
0.0613736
0.0335125
0.0624132
0.0229193
0.0607235
0.0131297
0.0568145
0.00442352
0.0514099
-0.00306708
0.0453599
-0.0094336
0.0395793
-0.0149392
0.0350231
-0.0199577
0.0321965
-0.0248622
0.0311514
-0.0299747
0.0316761
-0.035514
0.0331694
-0.0415095
0.0347125
-0.047781
0.0352616
0.0339514
0.0994553
-0.0756651
0.109051
-0.0606005
0.115599
-0.0414223
0.118582
-0.0194597
0.117755
0.00410769
0.113398
0.0261137
0.105868
0.0458412
0.0958866
0.0614373
0.0843363
0.0719619
0.0721404
0.0771477
0.0601457
0.0774017
0.0490152
0.0737346
0.0391542
0.0675775
0.030678
0.0605529
0.0234423
0.0542027
0.0170162
0.0498315
0.0107824
0.048468
0.00421136
0.0502316
-0.00310008
0.0540962
-0.011567
0.0606123
-0.0213883
0.0677268
-0.0324722
0.0742473
-0.0444869
0.0788081
-0.0569
0.0802434
-0.0690442
0.0777396
-0.0801965
0.0709162
-0.0896589
0.0598581
-0.096853
0.0451223
-0.101282
0.027616
-0.102548
0.00722243
-0.100545
-0.0138886
-0.0953692
-0.0345271
-0.0871986
-0.0541359
-0.0763299
-0.0719065
-0.0631472
-0.087202
-0.0481005
-0.0995159
-0.0316883
-0.10846
-0.0144552
-0.11371
0.00301123
-0.115029
0.0200117
-0.112261
0.0360012
-0.105271
0.0503185
-0.0942224
0.0623744
-0.0795551
0.0716811
-0.0619528
0.0779118
-0.0424377
0.0809342
-0.0222259
0.0808772
-0.00271448
0.0780544
0.0154977
0.0729141
0.0302362
0.0661082
0.0415265
0.0583005
0.0490677
0.0500913
0.0531897
0.0419312
0.0547019
0.0340581
0.0547508
0.0264729
0.0546005
0.0189584
0.0553952
0.0111447
0.057926
0.00260844
0.062456
-0.0070379
0.0683527
-0.0179895
0.075289
-0.0301822
0.0814586
-0.0432758
0.0853383
-0.0566437
0.085389
-0.0694426
0.0804265
-0.0807647
0.0699082
-0.0897956
0.0539683
-0.0953078
0.0329139
-0.0968201
0.00881344
-0.0942139
-0.0163494
-0.0877552
-0.0399423
-0.0779889
-0.0603774
-0.0657333
-0.0761394
-0.052001
-0.0862976
-0.0377952
-0.0908645
-0.0239804
-0.0904678
-0.0111481
-0.0864221
0.000404017
-0.0803114
0.0108342
-0.0744634
0.0203227
-0.0692117
0.0292828
-0.0656843
0.038114
-0.0639726
0.0471209
-0.0635975
0.0564136
-0.0635772
0.0658596
-0.062671
0.0750939
-0.0596613
0.0835811
-0.0535897
0.0907152
-0.0439642
0.0958338
-0.0308855
0.098396
-0.0150251
0.0980704
0.00281019
0.0948888
0.0204257
0.0890065
0.0374532
0.0808232
0.0522662
0.0708771
0.0640215
0.0597571
0.0723521
0.0480281
0.0773153
0.0361588
0.0793649
0.024483
0.0791869
0.0131937
0.0775341
0.00237582
0.0750495
-0.00801069
0.0723737
-0.0179896
0.0694393
-0.0275821
0.0662792
-0.0367421
0.0625918
-0.0453367
0.0579624
-0.0531587
0.0519892
-0.0599539
0.0443993
-0.0653613
0.0350856
-0.0690976
0.024388
-0.0710164
0.0130945
-0.0709749
0.00107828
-0.0691958
-0.00978248
-0.0658912
-0.0191642
-0.0614155
-0.0263339
-0.056291
-0.0306292
-0.051044
-0.0319168
-0.0461479
-0.0304211
-0.0419706
-0.0267145
-0.0387464
-0.0215757
-0.0365564
-0.0158947
-0.0353262
-0.0105747
-0.0348474
-0.00641351
-0.0348111
-0.00402815
-0.0348408
-0.0038137
-0.0345526
-0.00589573
-0.0335808
-0.0101589
-0.03162
-0.0162757
-0.0284502
-0.0237769
-0.0239334
-0.03215
-0.0180504
-0.0407551
-0.0108517
-0.0490657
-0.00245224
-0.056633
0.00693245
-0.0628921
0.0170841
-0.067792
0.027735
-0.0709451
0.0385974
-0.072113
0.0493624
-0.0711434
0.0596901
-0.0678683
0.0692005
-0.0621213
0.077483
-0.0537835
0.0841421
-0.0429294
0.0888228
-0.0297883
0.0912159
-0.0147388
0.0910243
0.00187344
0.0883895
0.0175205
0.0832591
0.0334835
0.0758296
0.0478328
0.0665381
0.0595353
0.0559457
0.0679184
0.0446593
0.07266
0.0332822
0.0737903
0.0223659
0.0716398
0.0123581
0.0668223
0.00356229
0.0602058
-0.00387129
0.0527935
-0.010075
0.0457831
-0.015345
0.0402931
-0.020099
0.0369506
-0.0247953
0.0358477
-0.0297865
0.0366673
-0.0353291
0.038712
-0.0414671
0.0408504
-0.0480105
0.041805
0.0405048
0.101607
-0.0882474
0.111783
-0.0707765
0.118729
-0.0483684
0.121861
-0.0225922
0.120903
0.0050658
0.116177
0.03084
0.108065
0.0539529
0.0973704
0.0721322
0.085068
0.0842642
0.0721787
0.090037
0.0596339
0.0899466
0.0481576
0.0852108
0.0381847
0.0775504
0.0298292
0.0689084
0.0229254
0.0611065
0.0168661
0.0558907
0.0110397
0.0542944
0.00484034
0.0564309
-0.00224289
0.0611795
-0.0105692
0.0689387
-0.02047
0.0776276
-0.0318302
0.0856075
-0.0442864
0.0912643
-0.0572553
0.0932122
-0.0700084
0.0904927
-0.08176
0.0826678
-0.0917567
0.0698547
-0.0993839
0.0527495
-0.104107
0.032339
-0.105512
0.00862773
-0.103492
-0.0159083
-0.0981692
-0.0398503
-0.089739
-0.0625661
-0.0785195
-0.083126
-0.0649143
-0.100807
-0.0493883
-0.115042
-0.0324509
-0.125397
-0.0146584
-0.131502
0.00336843
-0.133056
0.0209854
-0.129878
0.0375508
-0.121837
0.0523825
-0.109054
0.0648537
-0.0920262
0.0744359
-0.071535
0.0807703
-0.0487722
0.0837039
-0.0251596
0.0833797
-0.00239027
0.0801603
0.0187171
0.0745159
0.0358807
0.0671799
0.0488624
0.0588896
0.057358
0.0503125
0.0617668
0.0419456
0.0630687
0.0340447
0.0626518
0.0265936
0.0620516
0.0193257
0.0626631
0.0117955
0.0654561
0.00349005
0.0707614
-0.0060663
0.0779091
-0.0171188
0.0863415
-0.0296346
0.0939744
-0.0432659
0.0989695
-0.057335
0.0994581
-0.0709141
0.0940056
-0.0829866
0.0819807
-0.0927042
0.0636858
-0.0986834
0.0388931
-0.100358
0.0104876
-0.0975989
-0.019108
-0.0907091
-0.0468321
-0.0802787
-0.0708078
-0.0672098
-0.0892084
-0.0526528
-0.100854
-0.037737
-0.10578
-0.0234142
-0.104791
-0.0103108
-0.0995255
0.00131443
-0.0919366
0.0115811
-0.0847301
0.020821
-0.0784517
0.0295202
-0.0743835
0.0381637
-0.072616
0.0471222
-0.0725561
0.0565415
-0.0729965
0.0662847
-0.0724142
0.0759459
-0.0693225
0.084915
-0.0625588
0.0924856
-0.0515347
0.0979687
-0.0363686
0.100778
-0.0178349
0.100541
0.00304725
0.0972283
0.0237387
0.0910544
0.0436271
0.0824562
0.0608644
0.0720362
0.0744415
0.0604491
0.0839392
0.0483138
0.0894506
0.0361335
0.0915453
0.0242522
0.0910681
0.01285
0.0889363
0.00198294
0.0859166
-0.0084257
0.0827824
-0.0184377
0.0794513
-0.0281035
0.075945
-0.037393
0.0718813
-0.0461693
0.0667387
-0.0542055
0.0600254
-0.0612355
0.0514293
-0.066876
0.0407261
-0.0707513
0.0282633
-0.072691
0.0150341
-0.0725459
0.000933272
-0.07055
-0.0117784
-0.0669194
-0.0227947
-0.0620369
-0.0312163
-0.0564818
-0.0361844
-0.0508365
-0.0375622
-0.0456242
-0.0356334
-0.041241
-0.0310977
-0.0379379
-0.0248788
-0.0357977
-0.0180349
-0.0347256
-0.0116468
-0.0345053
-0.00663376
-0.0347809
-0.00375256
-0.0351374
-0.00345726
-0.0351681
-0.00586499
-0.0344653
-0.0108618
-0.0327055
-0.0180355
-0.0296587
-0.0268237
-0.0251793
-0.0366295
-0.0192604
-0.046674
-0.0119484
-0.0563776
-0.00337418
-0.0652072
0.00623296
-0.0724993
0.0166429
-0.078202
0.0275736
-0.0818758
0.0387389
-0.0832782
0.0498259
-0.0822304
0.0604866
-0.078529
0.0703375
-0.0719722
0.0789631
-0.0624091
0.0859488
-0.0499151
0.0909002
-0.0347397
0.0934685
-0.0173072
0.0933292
0.0020128
0.0905775
0.0202722
0.0852321
0.0388289
0.0774793
0.0555856
0.0677435
0.0692711
0.0566437
0.0790182
0.0448392
0.0844644
0.0329839
0.0856456
0.021678
0.0829457
0.0114072
0.0770932
0.0025048
0.0691081
-0.00485006
0.0601483
-0.0108507
0.0517838
-0.0158219
0.0452643
-0.0202517
0.0413804
-0.024684
0.04028
-0.0295252
0.0415085
-0.0350672
0.044254
-0.0413749
0.0471582
-0.0482473
0.0486773
0.0475029
0.104102
-0.101643
0.114975
-0.0816496
0.1224
-0.055793
0.125716
-0.0259086
0.124608
0.00617416
0.119439
0.0360084
0.110633
0.0627588
0.0990867
0.083679
0.0858878
0.0974632
0.0721731
0.103752
0.058976
0.103144
0.047094
0.0970929
0.0369979
0.0876464
0.0288207
0.0770857
0.0222677
0.0676595
0.0166657
0.0614927
0.0113442
0.0596159
0.00560343
0.0621717
-0.00122492
0.0680078
-0.00935295
0.0770667
-0.0193463
0.0876209
-0.0310345
0.0972957
-0.0440156
0.104245
-0.0576443
0.106841
-0.0711184
0.103967
-0.0835774
0.0951268
-0.0942024
0.0804797
-0.102335
0.0608825
-0.107402
0.0374055
-0.108965
0.0101913
-0.106922
-0.0179518
-0.101423
-0.0453493
-0.092687
-0.071302
-0.0810579
-0.0947552
-0.0669623
-0.114903
-0.0508821
-0.131122
-0.0333383
-0.142941
-0.0148977
-0.149943
0.00380535
-0.151759
0.0221226
-0.148195
0.0393591
-0.139073
0.0547945
-0.124489
0.0677547
-0.104986
0.0776634
-0.0814438
0.0841232
-0.0552319
0.0869577
-0.0279941
0.0863059
-0.00173848
0.0826095
0.0224135
0.0763634
0.0421268
0.0683933
0.0568325
0.0595259
0.0662254
0.0505101
0.0707826
0.0418998
0.0716789
0.0339724
0.0705792
0.0266923
0.0693318
0.0197331
0.0696223
0.0125576
0.0726316
0.00454486
0.0787742
-0.00488902
0.0873429
-0.0160449
0.0974974
-0.0289347
0.106864
-0.0432014
0.113236
-0.0581056
0.114362
-0.0726204
0.10852
-0.0855978
0.0949581
-0.0960873
0.0741754
-0.102648
0.0454541
-0.104526
0.0123655
-0.101594
-0.0220406
-0.0941931
-0.0542325
-0.0829644
-0.0820366
-0.0689118
-0.103261
-0.0533625
-0.116404
-0.0376034
-0.121539
-0.0226859
-0.119708
-0.00927728
-0.112934
0.00239796
-0.103612
0.0124755
-0.0948076
0.0214016
-0.0873778
0.0297701
-0.082752
0.0381755
-0.0810215
0.0470666
-0.0814472
0.056633
-0.0825629