/*--------------------------------*- C++ -*----------------------------------*\
| =========                 |                                                 |
| \\      /  F ield         | OpenFOAM: The Open Source CFD Toolbox           |
|  \\    /   O peration     | Version:  v1912                                 |
|   \\  /    A nd           | Website:  www.openfoam.com                      |
|    \\/     M anipulation  |                                                 |
\*---------------------------------------------------------------------------*/
FoamFile
{
    version     2.0;
    format      ascii;
    class       surfaceScalarField;
    location    "80";
    object      alphaPhi0.water;
}
// * * * * * * * * * * * * * * * * * * * * * * * * * * * * * * * * * * * * * //

dimensions      [0 3 -1 0 0 0 0];
oriented        oriented;


internalField   nonuniform List<scalar> 
28285
(
-0.0494721
-0.0112982
-0.0371658
-0.0123063
-0.0239549
-0.0132109
-0.00998689
-0.013968
0.00453025
-0.0145171
0.0193623
-0.014832
0.0341274
-0.0147651
0.0484395
-0.0143121
0.0619218
-0.0134824
0.07422
-0.0122981
0.0850337
-0.0108137
0.0941398
-0.00910611
0.101399
-0.00725937
0.106746
-0.00534697
0.110165
-0.00341892
0.111659
-0.00149367
0.111214
0.000444331
0.108806
0.00240849
0.104334
0.00447167
0.0976689
0.00666538
0.0886696
0.00899932
0.0772257
0.0114439
0.0633072
0.0139184
0.0470435
0.0162638
0.0287609
0.0182825
0.00898107
0.0197799
-0.0116409
0.020622
-0.0323244
0.0206835
-0.0521576
0.0198332
-0.0702852
0.0181276
-0.0859549
0.0156697
-0.0985634
0.0126085
-0.10771
0.00914614
-0.113225
0.00551542
-0.115188
0.00196277
-0.113795
-0.00139244
-0.10945
-0.00434566
-0.102637
-0.00681307
-0.0939079
-0.00872866
-0.0838368
-0.0100711
-0.07294
-0.0108968
-0.0616257
-0.0113143
-0.0502168
-0.0114089
-0.038964
-0.0112528
-0.0280544
-0.0109096
-0.0176176
-0.0104368
-0.00772667
-0.00989088
0.00160406
-0.00933073
0.010473
-0.00886891
0.018927
-0.00845399
0.0271555
-0.00822859
0.0354008
-0.0082453
0.0439145
-0.00851363
0.0529268
-0.00901228
0.0626011
-0.00967431
0.0729847
-0.0103836
0.0839642
-0.0109795
0.0952266
-0.0112623
0.106217
-0.0109906
0.116157
-0.00993948
0.124261
-0.00810449
0.129733
-0.0054723
0.131833
-0.00209994
0.129886
0.00194709
0.123613
0.0062734
0.112884
0.0107292
0.0979301
0.0149537
0.0792812
0.0186489
0.0577182
0.0215629
0.0342018
0.0235164
0.00977567
0.0244261
-0.0144906
0.0242663
-0.0377463
0.0232556
-0.0592352
0.021489
-0.0784363
0.019201
-0.0950553
0.016619
-0.109004
0.0139486
-0.120348
0.0113443
-0.129246
0.00889733
-0.135878
0.00663264
-0.140394
0.00451597
-0.142866
0.00247201
-0.1433
0.000434283
-0.141507
-0.00179356
-0.137357
-0.00415023
-0.130679
-0.00667781
-0.121354
-0.00932484
-0.109367
-0.0119868
-0.0948491
-0.0145181
-0.078107
-0.0167422
-0.0596289
-0.018478
-0.0400683
-0.0195606
-0.0201956
-0.0198728
-0.000785113
-0.0194105
0.0175368
-0.0183219
0.0341289
-0.0165921
0.0485669
-0.014438
0.060612
-0.0120452
0.0702208
-0.00960873
0.0775267
-0.00730591
0.082796
-0.00526926
0.0863808
-0.00358481
0.0886674
-0.00228663
0.0900281
-0.00136068
0.0907831
-0.000755077
0.0911784
-0.000395237
0.0913762
-0.000197805
0.0914575
-8.13078e-05
0.0914315
2.60376e-05
0.0912515
0.000179933
0.0908229
0.00042859
0.0900174
0.000805536
0.0886771
0.00134025
0.0866164
0.00206076
0.083624
0.00299241
0.0794713
0.00415269
0.0739285
0.00554275
0.0667907
0.00713787
0.0579116
0.00887904
0.0472416
0.01067
0.0348629
0.0123787
0.0210108
0.0138521
0.00607848
0.0149323
-0.00946167
0.0155402
-0.0249844
0.0155228
-0.0397485
0.0147641
-0.0531534
0.0134049
-0.06468
0.0115266
-0.0739702
0.00929013
-0.0808545
0.00688434
-0.0854026
0.00454811
-0.087943
0.0025404
-0.0890056
0.00106263
-0.0891977
0.000192103
-0.0891073
-9.04014e-05
-0.0892442
0.000136824
-0.0899086
0.000664425
-0.0911817
0.00127313
-0.0928911
0.00170943
-0.0945876
0.00169644
-0.0957856
0.00119806
-0.0958146
2.89323e-05
-0.0941569
-0.00165766
-0.0903434
-0.00381349
-0.0840782
-0.0062652
-0.0753392
-0.00873903
-0.064417
-0.0109222
-0.0518071
-0.0126099
-0.038108
-0.0136991
-0.0239641
-0.0141439
-0.00989737
-0.0140667
0.00370621
-0.0136036
0.0166732
-0.012967
0.0289318
-0.0122587
0.0405289
-0.0115971
0.0515863
-0.0110574
0.0622488
-0.0106625
0.0725947
-0.0103459
0.0826114
-0.0100167
0.0921773
-0.00956587
0.101078
-0.00890036
0.109014
-0.00793675
0.115682
-0.00666754
-0.0050345
-0.049553
-0.0226182
-0.037238
-0.0246213
-0.0240247
-0.0264242
-0.0100556
-0.0279372
0.00446234
-0.0290351
0.0192465
-0.0296162
0.0339808
-0.0294994
0.0482943
-0.0286256
0.0617933
-0.0269814
0.0741138
-0.0246186
0.0849504
-0.0216504
0.0940763
-0.0182319
0.10135
-0.0145332
0.106706
-0.0107026
0.110128
-0.0068416
0.111623
-0.00298803
0.111167
0.00090038
0.10875
0.00482549
0.104259
0.00896274
0.0975643
0.0133597
0.0885329
0.0180307
0.0770739
0.0229029
0.0631931
0.0277992
0.0470185
0.0324384
0.0288355
0.0364655
0.00912366
0.0394917
-0.0114036
0.0411493
-0.0320237
0.0413036
-0.0518824
0.039692
-0.0701002
0.0363453
-0.0858535
0.031423
-0.0985153
0.0252703
-0.107677
0.0183082
-0.113156
0.010994
-0.115091
0.00389786
-0.113565
-0.00291901
-0.109134
-0.00877629
-0.102329
-0.0136184
-0.0936899
-0.0173673
-0.0837191
-0.0200419
-0.0728804
-0.0217355
-0.0615887
-0.022606
-0.0501819
-0.0228156
-0.0389215
-0.0225133
-0.0280007
-0.0218303
-0.017553
-0.0208845
-0.00765482
-0.0197891
0.00167112
-0.0186567
0.0105013
-0.0176991
0.0189295
-0.0168822
0.0271381
-0.0164373
0.0353569
-0.016464
0.04384
-0.0169968
0.0528227
-0.017995
0.0624704
-0.019322
0.0728261
-0.0207393
0.0837645
-0.0219179
0.0949685
-0.0224663
0.105946
-0.0219683
0.116029
-0.020022
0.124286
-0.0163616
0.129897
-0.0110833
0.132119
-0.00432216
0.13021
0.00385561
0.123972
0.0125117
0.113237
0.0214643
0.0982441
0.0299467
0.0795286
0.0373644
0.057881
0.0432105
0.0342725
0.047125
0.00976292
0.0489357
-0.0145902
0.0486194
-0.0379006
0.0465661
-0.0594211
0.0430095
-0.0786314
0.0384113
-0.0952411
0.0332287
-0.109169
0.0278766
-0.120488
0.022663
-0.129361
0.0177709
-0.135977
0.0132479
-0.140482
0.00902181
-0.142989
0.00497824
-0.143439
0.000884392
-0.141678
-0.00355433
-0.137567
-0.00826101
-0.130928
-0.0133175
-0.121631
-0.0186213
-0.109655
-0.0239631
-0.095121
-0.0290519
-0.0783323
-0.0335309
-0.05978
-0.0370303
-0.0401328
-0.0392078
-0.020143
-0.0398625
-0.000639288
-0.0389142
0.0177576
-0.0367188
0.0343955
-0.03323
0.0488499
-0.0288924
0.0608875
-0.0240827
0.0704675
-0.0191888
0.07773
-0.0145684
0.0829476
-0.0104868
0.0864787
-0.00711599
0.0887142
-0.00452208
0.0900279
-0.00267438
0.0907425
-0.00146968
0.0911099
-0.000762593
0.0912968
-0.000384757
0.0913839
-0.000168355
0.0913728
3.71275e-05
0.0912112
0.000341478
0.0908036
0.00083626
0.090022
0.00158705
0.0887095
0.00265275
0.0866804
0.00408994
0.0837227
0.00595011
0.079606
0.00826939
0.0740973
0.0110514
0.0669874
0.0142478
0.0581255
0.017741
0.0474569
0.0213386
0.0350601
0.0247755
0.0211695
0.0277426
0.00617823
0.0299236
-0.00938334
0.0311017
-0.0249636
0.031103
-0.039839
0.0296394
-0.0533313
0.0268972
-0.0649262
0.0231215
-0.0742585
0.0186224
-0.0811477
0.0137736
-0.0856598
0.00906022
-0.0881346
0.0050152
-0.0891204
0.00204841
-0.0892349
0.000306551
-0.0890817
-0.000243618
-0.0891663
0.000221507
-0.0898022
0.00130028
-0.0910741
0.00254501
-0.0928381
0.00347347
-0.094624
0.00348234
-0.0959018
0.00247588
-0.0960343
0.000161381
-0.0944512
-0.00324073
-0.0906875
-0.00757722
-0.0844309
-0.0125217
-0.0756549
-0.0175151
-0.064665
-0.0219121
-0.0519728
-0.0253021
-0.0381906
-0.0274813
-0.0239776
-0.0283569
-0.00985978
-0.0281845
0.00377151
-0.0272349
0.0167443
-0.0259398
0.0289896
-0.0245039
0.0405612
-0.0231687
0.0516064
-0.0221027
0.0622613
-0.0213174
0.0726087
-0.0206932
0.0826402
-0.0200482
0.0922348
-0.0191605
0.101175
-0.017841
0.10916
-0.0159208
0.115877
-0.0133847
-0.0101182
-0.0498091
-0.0339652
-0.0374667
-0.0369636
-0.0242209
-0.0396701
-0.0102072
-0.0419509
0.00437204
-0.0436143
0.019234
-0.0444781
0.0340592
-0.0443246
0.0484629
-0.0430293
0.0620469
-0.0405654
0.0744396
-0.0370112
0.0853294
-0.0325402
0.0944873
-0.0273899
0.101775
-0.0218205
0.107131
-0.0160591
0.110551
-0.0102614
0.112048
-0.00448469
0.111596
0.00135221
0.109207
0.00721469
0.104754
0.0134154
0.098103
0.0200107
0.0891087
0.027025
0.0776635
0.0343481
0.0637521
0.0417106
0.0474991
0.0486914
0.0292088
0.0547558
0.00937176
0.0593288
-0.0113267
0.0618477
-0.0320925
0.0620694
-0.052038
0.0596374
-0.0702947
0.054602
-0.0860945
0.0472228
-0.0988171
0.0379929
-0.108045
0.0275359
-0.113573
0.0165227
-0.115527
0.00585175
-0.114036
-0.00441059
-0.10958
-0.0132317
-0.102699
-0.0205002
-0.0939516
-0.0261144
-0.0838751
-0.0301184
-0.0729498
-0.0326608
-0.0615883
-0.0339676
-0.0501255
-0.0342785
-0.038821
-0.0338177
-0.0278677
-0.0327836
-0.0173996
-0.0313527
-0.00749493
-0.0296938
0.00181782
-0.0279694
0.010607
-0.0264882
0.0189819
-0.0252571
0.0271249
-0.0245803
0.0352715
-0.0246106
0.0436857
-0.025411
0.0526155
-0.0269248
0.0622398
-0.0289463
0.0726124
-0.0311119
0.0836137
-0.0329192
0.0949227
-0.0337754
0.106025
-0.0330707
0.116259
-0.0302557
0.12481
-0.0249124
0.130712
-0.0169856
0.13312
-0.00673062
0.131305
0.00567053
0.125107
0.0187104
0.114321
0.0322504
0.099191
0.0450762
0.080268
0.0562874
0.0583633
0.0651152
0.0344742
0.0710141
0.00972302
0.0736869
-0.0148649
0.0732073
-0.0383609
0.070062
-0.0600058
0.0646544
-0.0792799
0.0576854
-0.0959008
0.0498496
-0.109802
0.0417781
-0.121073
0.0339337
-0.129894
0.0265922
-0.136469
0.0198223
-0.140953
0.0135063
-0.143493
0.00751822
-0.143977
0.00136794
-0.142273
-0.00525747
-0.138227
-0.0123074
-0.131641
-0.0199036
-0.12237
-0.027892
-0.110377
-0.0359564
-0.0957708
-0.0436581
-0.0788466
-0.0504551
-0.0601012
-0.0557757
-0.0402277
-0.0590813
-0.0200006
-0.0600895
-0.000341169
-0.0585737
0.0182616
-0.0553215
0.0350169
-0.0499853
0.0495304
-0.0434059
0.0615709
-0.0361233
0.0711041
-0.028722
0.0782818
-0.0217461
0.0833907
-0.0155957
0.086803
-0.0105283
0.0889197
-0.0066388
0.0901245
-0.00387918
0.0907554
-0.00210058
0.0910765
-0.00108364
0.0912491
-0.000557382
0.0913431
-0.000262319
0.0913554
2.48249e-05
0.0912305
0.000466344
0.0908689
0.00119781
0.090139
0.00231704
0.0888844
0.00390725
0.08692
0.00605441
0.0840319
0.00883822
0.0799851
0.0123161
0.0745397
0.0164968
0.0674763
0.0213112
0.0586334
0.0265839
0.0479469
0.0320251
0.0354883
0.0372341
0.0214915
0.0417394
0.00635469
0.0450605
-0.00936474
0.0468211
-0.0250938
0.0468321
-0.0401732
0.0447188
-0.053839
0.0405631
-0.0655575
0.0348399
-0.0749512
0.0280162
-0.0818253
0.0206476
-0.0862442
0.0134792
-0.0885709
0.00734183
-0.0893746
0.00285212
-0.08931
0.000241934
-0.0889946
-0.000558982
-0.0889817
0.000208626
-0.0896013
0.00191988
-0.0909218
0.00386548
-0.0928044
0.00535612
-0.0947649
0.00544283
-0.0962188
0.00392974
-0.0965392
0.000481798
-0.0950933
-0.00468659
-0.09141
-0.0112606
-0.0851533
-0.0187784
-0.0762926
-0.0263758
-0.0651558
-0.0330489
-0.0522816
-0.0381763
-0.0383254
-0.0414374
-0.0239662
-0.0427161
-0.00974192
-0.0424088
0.00394822
-0.040925
0.0169362
-0.0389278
0.0291639
-0.0367316
0.0406994
-0.0347042
0.0517075
-0.0331107
0.0623404
-0.0319504
0.0726923
-0.0310451
0.0827601
-0.030116
0.0924211
-0.0288214
0.101451
-0.0268713
0.109536
-0.0240059
0.116357
-0.020205
-0.0152943
-0.0502149
-0.0453509
-0.0378308
-0.0493477
-0.0245312
-0.0529698
-0.0104408
-0.0560412
0.00424648
-0.0583016
0.0192419
-0.0594735
0.0342188
-0.0593016
0.0487783
-0.0575888
0.0625081
-0.0542952
0.075023
-0.0495261
0.0860023
-0.0435195
0.0952142
-0.0366018
0.102524
-0.0291304
0.107882
-0.0214174
0.111297
-0.013676
0.112796
-0.00598412
0.112356
0.00179251
0.11001
0.00956106
0.105616
0.0178089
0.0990295
0.0265974
0.0900858
0.0359687
0.078655
0.0457789
0.0646994
0.0556662
0.0483282
0.0650627
0.029841
0.0732429
0.00974276
0.079427
-0.0112689
0.0828593
-0.0323717
0.0831722
-0.0526508
0.0799165
-0.0712091
0.0731604
-0.0872435
0.0632571
-0.100119
0.0508682
-0.109414
0.0368316
-0.114972
0.0220804
-0.116835
0.00771453
-0.115165
-0.00608054
-0.11051
-0.0178867
-0.103416
-0.0275941
-0.0944571
-0.0350732
-0.0841874
-0.0403881
-0.0731002
-0.0437479
-0.0616097
-0.0454581
-0.0500473
-0.0458409
-0.0386683
-0.0451968
-0.0276625
-0.0437894
-0.0171633
-0.0418519
-0.0072503
-0.0396067
0.00204244
-0.0372622
0.0107785
-0.0352243
0.0190732
-0.0335518
0.0271142
-0.0326213
0.0351487
-0.0326451
0.0434575
-0.0337197
0.0523096
-0.035777
0.0619063
-0.038543
0.0723203
-0.0415259
0.0834436
-0.0440425
0.0949549
-0.0452867
0.106319
-0.0444349
0.116827
-0.0407637
0.12571
-0.0337954
0.132024
-0.0232993
0.134697
-0.00940347
0.133029
0.00733817
0.126884
0.0248559
0.116012
0.0431225
0.100662
0.0604258
0.0814032
0.0755461
0.0590775
0.0874409
0.0347876
0.095304
0.0096599
0.0988146
-0.0152981
0.0981653
-0.0390862
0.0938502
-0.0609236
0.0864918
-0.0802952
0.0770571
-0.0969343
0.0664887
-0.110797
0.0556409
-0.121996
0.0451323
-0.130737
0.0353335
-0.137249
0.0263343
-0.141709
0.0179659
-0.144275
0.0100845
-0.144817
0.00190968
-0.143201
-0.00687306
-0.139252
-0.0162569
-0.132745
-0.0264104
-0.12351
-0.0371267
-0.111487
-0.0479798
-0.0967656
-0.058379
-0.0796303
-0.0675904
-0.0605852
-0.0748208
-0.0403617
-0.0793049
-0.0197743
-0.080677
0.0002111
-0.0785591
0.0190356
-0.074146
0.0359641
-0.0669138
0.0505693
-0.0580111
0.0626161
-0.0481701
0.0720791
-0.0381849
0.0791277
-0.0287948
0.0840694
-0.0205373
0.0872951
-0.013754
0.0892233
-0.00856697
0.0902685
-0.00492436
0.0908017
-0.00263381
0.0910722
-0.00135413
0.0912237
-0.000708933
0.0913219
-0.000360517
0.091357
-1.02554e-05
0.0912713
0.000552032
0.0909694
0.00149977
0.0903165
0.00296989
0.0891493
0.0050745
0.0872814
0.00792228
0.084497
0.0116227
0.0805547
0.0162584
0.0752036
0.0218479
0.06821
0.0283048
0.059396
0.0353978
0.048683
0.0427382
0.0361317
0.0497854
0.0219745
0.0558966
0.00661826
0.0604167
-0.00935276
0.0627922
-0.0253259
0.0628053
-0.0406552
0.060048
-0.0546017
0.0545096
-0.0665133
0.0467515
-0.0760018
0.0375047
-0.0828522
0.027498
-0.0871287
0.0177557
-0.0892371
0.00945024
-0.0897518
0.00336674
-0.0894048
-0.000105057
-0.0888647
-0.00109902
-0.0887034
4.7295e-05
-0.0892902
0.00250673
-0.0906792
0.00525441
-0.0927281
0.00740504
-0.0949528
0.00766756
-0.096673
0.00564987
-0.0972868
0.00109564
-0.0960598
-0.00591364
-0.0925032
-0.0148171
-0.0862468
-0.0250349
-0.0772508
-0.0353717
-0.0658855
-0.0444142
-0.0527336
-0.0513283
-0.0385161
-0.0556549
-0.0239384
-0.0572939
-0.00955695
-0.0567902
0.00421943
-0.0547014
0.0172282
-0.0519365
0.0294277
-0.0489311
0.0409041
-0.0461805
0.0518522
-0.0440589
0.0624479
-0.0425461
0.0728012
-0.0413984
0.0829171
-0.040232
0.0926713
-0.0385756
0.10183
-0.0360302
0.110062
-0.032238
0.117034
-0.0271763
-0.0206094
-0.0507662
-0.0567872
-0.0383285
-0.0617854
-0.024957
-0.0663413
-0.0107608
-0.0702374
0.0040781
-0.0731405
0.0192587
-0.0746541
0.0344466
-0.0744894
0.0492243
-0.0723665
0.0631581
-0.068229
0.075844
-0.062212
0.0869482
-0.0546237
0.0962352
-0.0458887
0.103576
-0.0364713
0.108936
-0.0267769
0.112342
-0.017082
0.113843
-0.00748528
0.113422
0.00221342
0.111132
0.0118507
0.106819
0.0221224
0.100319
0.0330976
0.0914419
0.0448454
0.0800277
0.0571931
0.0660093
0.0696846
0.0494746
0.0815974
0.0307155
0.0920021
0.0102444
0.0998981
-0.0112114
0.104315
-0.0327937
0.104755
-0.0535471
0.10067
-0.072532
0.0921453
-0.0889059
0.0796309
-0.102009
0.0639715
-0.111408
0.0462304
-0.117019
0.0276917
-0.118698
0.00939299
-0.116782
-0.00799624
-0.111838
-0.0228302
-0.104437
-0.0349951
-0.0951782
-0.0443325
-0.084637
-0.0509293
-0.0733213
-0.0550635
-0.0616485
-0.0571309
-0.049946
-0.0575434
-0.0384629
-0.0566798
-0.0273845
-0.0548678
-0.0168426
-0.0523938
-0.00691856
-0.0495308
0.00234815
-0.0465289
0.0110151
-0.0438913
0.019203
-0.0417397
0.0271061
-0.0405244
0.0349877
-0.0405266
0.0431526
-0.0418846
0.0518998
-0.0445242
0.0614613
-0.0481045
0.0719372
-0.0520017
0.0832361
-0.0553414
0.0950377
-0.0570883
0.106787
-0.0561845
0.117722
-0.0516985
0.126962
-0.0430349
0.133666
-0.0300039
0.136767
-0.0125045
0.135328
0.00877779
0.129261
0.030923
0.118261
0.0541216
0.102583
0.0761042
0.0828614
0.0952678
0.060052
0.11025
0.0352406
0.120115
0.00957426
0.124481
-0.0158927
0.123632
-0.0400635
0.118021
-0.0621358
0.108564
-0.0816246
0.0965458
-0.0982935
0.0831577
-0.112117
0.0694641
-0.123228
0.0562436
-0.131867
0.0439729
-0.138299
0.0327662
-0.142737
0.0224035
-0.145324
0.0126713
-0.145951
0.00253721
-0.144461
-0.00836361
-0.140647
-0.0200705
-0.13425
-0.0328075
-0.125064
-0.0463126
-0.112998
-0.060046
-0.0981189
-0.0732582
-0.0806943
-0.085015
-0.0612407
-0.0942744
-0.0405435
-0.100002
-0.0194726
-0.101748
0.000973563
-0.0990053
0.0200874
-0.0932598
0.0372495
-0.0840759
0.0519815
-0.0727432
0.0640379
-0.0602265
0.0734057
-0.0475528
0.080278
-0.0356671
0.084988
-0.0252474
0.0879521
-0.0167181
0.0896324
-0.0102473
0.0905017
-0.00579369
0.0909137
-0.00304583
0.0911072
-0.00154756
0.0912236
-0.00082539
0.0913264
-0.000463315
0.0913966
-8.03889e-05
0.0913633
0.000585354
0.0911302
0.00173279
0.0905677
0.00353242
0.0895145
0.0061277
0.087775
0.00966175
0.0851288
0.0142689
0.0813264
0.0200608
0.0761027
0.0270715
0.0692035
0.0352041
0.0604289
0.0441724
0.0496802
0.0534869
0.0370032
0.0624624
0.0226274
0.0702724
0.00697053
0.0760736
-0.00934969
0.0791124
-0.0256873
0.0791429
-0.0413343
0.075695
-0.0556468
0.0688221
-0.0678257
0.0589305
-0.0774352
0.0471141
-0.0842474
0.0343102
-0.0883382
0.0218466
-0.090132
0.011244
-0.0902587
0.00349339
-0.0895187
-0.000845079
-0.0886966
-0.00192106
-0.0883147
-0.000334667
-0.0888618
0.00305386
-0.0903529
0.00674554
-0.0926343
0.00968636
-0.0952135
0.0102468
-0.0973089
0.00774529
-0.0982951
0.00208184
-0.097368
-0.00684069
-0.093977
-0.0182081
-0.0877119
-0.0313
-0.0785325
-0.0445512
-0.0668774
-0.0560693
-0.0533554
-0.0648502
-0.0387701
-0.0702402
-0.0238901
-0.0721738
-0.00929288
-0.0713875
0.00460074
-0.068595
0.0176352
-0.064971
0.029795
-0.0610909
0.0411911
-0.0575767
0.0520532
-0.054921
0.0625953
-0.0530882
0.0729502
-0.0517532
0.0831336
-0.0504153
0.0930176
-0.0484597
0.102354
-0.0453668
0.110788
-0.040672
0.117966
-0.0343542
-0.0261112
-0.0514617
-0.0682865
-0.0389616
-0.0742855
-0.0255032
-0.0797997
-0.0111735
-0.084567
0.00386015
-0.0881742
0.0192775
-0.0900715
0.0347374
-0.0899493
0.049797
-0.0874261
0.0639945
-0.0824265
0.0769007
-0.0751183
0.0881651
-0.0658881
0.0975469
-0.0552705
0.104925
-0.0438493
0.110283
-0.0321347
0.113674
-0.0204731
0.115173
-0.00898443
0.11478
0.00260636
0.112561
0.0140696
0.10835
0.0263331
0.101963
0.0394853
0.093174
0.053634
0.0817834
0.0685837
0.0676864
0.0837815
0.0509436
0.0983402
0.0318367
0.111109
0.0108864
0.120848
-0.0111445
0.126346
-0.0333476
0.126958
-0.0547145
0.122037
-0.07425
0.111681
-0.0910625
0.0964434
-0.104461
0.0773703
-0.114009
0.0557783
-0.119657
0.0333395
-0.121084
0.0108204
-0.11886
-0.0102203
-0.113545
-0.0281458
-0.105746
-0.0427935
-0.0960996
-0.0539792
-0.0852101
-0.0618188
-0.0736022
-0.0666714
-0.0616968
-0.0690364
-0.049816
-0.0694242
-0.0382008
-0.068295
-0.0270301
-0.0660385
-0.0164338
-0.0629902
-0.00649533
-0.0594692
0.00273996
-0.0557642
0.0113216
-0.0524729
0.0193749
-0.049793
0.0271022
-0.0482517
0.0347872
-0.0482116
0.042766
-0.0498635
0.0513763
-0.0531345
0.0608909
-0.0576191
0.071445
-0.0625558
0.0829696
-0.0668659
0.0951464
-0.0692651
0.1074
-0.0684386
0.118927
-0.0632247
0.12875
-0.0528585
0.135892
-0.0371453
0.139378
-0.0159913
0.138189
0.00996677
0.132155
0.036957
0.12102
0.065257
0.105027
0.0920968
0.0848295
0.115466
0.0613745
0.133705
0.035837
0.145653
0.00946038
0.150858
-0.0165602
0.149653
-0.0410964
0.142557
-0.0634508
0.130919
-0.0831166
0.116212
-0.0998605
0.0999016
-0.113664
0.0832679
-0.124687
0.0672658
-0.133208
0.0524948
-0.139549
0.0391063
-0.143971
0.0268259
-0.146595
0.0152951
-0.147349
0.00329188
-0.146036
-0.0096771
-0.142409
-0.0236974
-0.136161
-0.0390558
-0.127043
-0.0554302
-0.114925
-0.0721643
-0.0998445
-0.0883385
-0.0820499
-0.10281
-0.0620739
-0.11425
-0.0407744
-0.121302
-0.0190996
-0.123423
0.00189096
-0.119996
0.0214245
-0.112793
0.0388861
-0.101537
0.0537805
-0.0876375
0.0658473
-0.0722933
0.075091
-0.0567965
0.0817332
-0.0423092
0.0861391
-0.0296533
0.0887719
-0.0193509
0.0901782
-0.0116536
0.090828
-0.00644348
0.0910764
-0.00329426
0.0911672
-0.00163831
0.0912381
-0.000896324
0.0913467
-0.000571935
0.0914619
-0.000195548
0.0914991
0.000548103
0.0913509
0.00188097
0.0908928
0.00399052
0.0899697
0.00705085
0.088389
0.0112425
0.0859171
0.0167408
0.0822925
0.0236854
0.0772325
0.0321316
0.0704566
0.04198
0.0617361
0.0528929
0.0509469
0.0642761
0.0381138
0.0752956
0.0234614
0.0849248
0.00742091
0.092114
-0.00935008
0.0958834
-0.0261662
0.0959591
-0.0422508
0.0917796
-0.0569969
0.0835683
-0.0695245
0.071458
-0.0792638
0.0568535
-0.0860185
0.0410649
-0.0898991
0.0257271
-0.0912454
0.0125903
-0.0908946
0.00314265
-0.0896588
-0.00208086
-0.0884263
-0.00315359
-0.0878089
-0.000952079
-0.0883
0.00354495
-0.0899215
0.00836708
-0.0924983
0.0122631
-0.0955179
0.0132664
-0.0981143
0.0103417
-0.0995683
0.00353587
-0.0990406
-0.00736838
-0.0958605
-0.0213882
-0.089565
-0.0375955
-0.0801636
-0.0539526
-0.0681353
-0.0680977
-0.0541496
-0.0788359
-0.0390785
-0.0853114
-0.0238076
-0.0874447
-0.008936
-0.0862591
0.00510415
-0.0826352
0.0181653
-0.0780321
0.0302674
-0.073193
0.0415545
-0.0688638
0.0522995
-0.065666
0.0627665
-0.0635552
0.0731179
-0.0621046
0.0833831
-0.0606805
0.0934296
-0.0585062
0.10299
-0.0549276
0.111681
-0.0493622
0.119119
-0.0417923
-0.0318499
-0.0523013
-0.0798615
-0.0397338
-0.086853
-0.0261764
-0.0933571
-0.0116875
-0.0990559
0.00358429
-0.103446
0.0192923
-0.105779
0.0350881
-0.105745
0.0504966
-0.102835
0.0650201
-0.09695
0.0781979
-0.0882962
0.0896578
-0.077348
0.099153
-0.0647657
0.106572
-0.051268
0.111921
-0.0374841
0.115287
-0.0238393
0.116778
-0.0104752
0.11642
0.00296394
0.114287
0.016203
0.110205
0.0304152
0.103961
0.0457295
0.095287
0.0623077
0.0839321
0.0799385
0.0697449
0.0979688
0.0527509
0.115334
0.0332195
0.13064
0.0116822
0.142386
-0.0110598
0.149088
-0.0340298
0.149928
-0.056155
0.144162
-0.0763704
0.131896
-0.0937229
0.113796
-0.107482
0.0911298
-0.117237
0.0655329
-0.122875
0.0389774
-0.124003
0.011949
-0.1214
-0.012824
-0.115624
-0.0339216
-0.107334
-0.0510831
-0.0972106
-0.0641031
-0.085895
-0.0731344
-0.073932
-0.0786345
-0.0617456
-0.0812228
-0.0496503
-0.0815194
-0.0378762
-0.0800692
-0.026594
-0.0773207
-0.0159313
-0.0736529
-0.00597469
-0.0694257
0.00322474
-0.0649636
0.0117049
-0.0609531
0.0195946
-0.0576826
0.0271053
-0.0557624
0.0345455
-0.0556518
0.0422906
-0.0576086
0.0507265
-0.0615705
0.0601769
-0.0670695
0.0708217
-0.0732006
0.0826201
-0.0786643
0.0952571
-0.0819021
0.108133
-0.0813149
0.120394
-0.0754858
0.130984
-0.0634483
0.138809
-0.0449703
0.142858
-0.0200396
0.142076
0.010748
0.136049
0.0429847
0.124715
0.0765906
0.108247
0.108565
0.0873422
0.13637
0.0630262
0.158021
0.0365646
0.172115
0.00929635
0.178126
-0.0174676
0.176417
-0.0426457
0.167735
-0.0654226
0.153696
-0.0853037
0.136093
-0.102098
0.116696
-0.115815
0.0969849
-0.126656
0.0781068
-0.134959
0.0607978
-0.141109
0.0452559
-0.145426
0.0311428
-0.148046
0.0179152
-0.148952
0.00419787
-0.147904
-0.0107253
-0.144535
-0.0270656
-0.138486
-0.0451052
-0.129463
-0.064453
-0.117287
-0.0843408
-0.101962
-0.103664
-0.0837122
-0.121059
-0.063094
-0.134869
-0.0410594
-0.143336
-0.0186536
-0.145828
0.00299813
-0.141648
0.0230643
-0.132859
0.0408926
-0.119366
0.055986
-0.102731
0.0680616
-0.0843689
0.0771476
-0.0658825
0.0834989
-0.0486606
0.0875249
-0.0336793
0.0897826
-0.0216086
0.0908578
-0.0127288
0.0912303
-0.0068159
0.0912796
-0.00334359
0.0912366
-0.0015953
0.0912552
-0.000914977
0.0913745
-0.000691206
0.091544
-0.000365009
0.0916669
0.000425145
0.0916248
0.0019231
0.0912861
0.00432923
0.0905054
0.00783157
0.0890974
0.0126504
0.0868335
0.0190047
0.0834322
0.0270868
0.0785798
0.036984
0.0719641
0.0485957
0.0633208
0.0615362
0.0524928
0.075104
0.0394768
0.0883116
0.0244899
0.0999117
0.00797963
0.108624
-0.00934969
0.113213
-0.0267601
0.11337
-0.0434081
0.108428
-0.0586909
0.0988511
-0.0716217
0.0843888
-0.0815137
0.0667455
-0.0881953
0.0477465
-0.0918122
0.0293441
-0.0925992
0.0133773
-0.0916556
0.00219909
-0.0898072
-0.00392929
-0.0880757
-0.00488508
-0.0871441
-0.00188371
-0.0875752
0.00397609
-0.0893648
0.0101567
-0.0923096
0.0152079
-0.0958671
0.0168239
-0.0991044
0.0135789
-0.101114
0.00554501
-0.101101
-0.00738101
-0.0981808
-0.0243083
-0.0918472
-0.0439291
-0.0821679
-0.0636319
-0.0696655
-0.0806
-0.0551046
-0.0933967
-0.0394393
-0.100977
-0.0236802
-0.103204
-0.00847032
-0.101469
0.00574709
-0.0968526
0.0188311
-0.0911162
0.0308518
-0.0852137
0.0419973
-0.0800093
0.0525894
-0.0762581
0.0629563
-0.0739222
0.0732994
-0.0724477
0.0836645
-0.0710456
0.0939126
-0.0687543
0.103752
-0.0647666
0.11276
-0.0583703
0.12052
-0.0495523
-0.0378814
-0.0532851
-0.0915251
-0.0406506
-0.0994874
-0.0269861
-0.107022
-0.012313
-0.113729
0.00324045
-0.118999
0.0192952
-0.121834
0.0354958
-0.121946
0.0513248
-0.118664
0.0662408
-0.111866
0.0797441
-0.101799
0.0914357
-0.0890396
0.101061
-0.0743913
0.108521
-0.0587273
0.113851
-0.042814
0.117177
-0.0271661
0.11865
-0.0119482
0.118333
0.00328098
0.116302
0.0182343
0.112378
0.0343391
0.106314
0.0517934
0.0977895
0.0708325
0.0864896
0.0912384
0.0722052
0.112253
0.0549188
0.132621
0.0348847
0.150675
0.0126486
0.164622
-0.0109476
0.172684
-0.0348394
0.173819
-0.0578765
0.167199
-0.0789091
0.152929
-0.0969087
0.131796
-0.111094
0.105316
-0.121111
0.0755492
-0.12669
0.0445568
-0.127471
0.0127298
-0.124408
-0.0158867
-0.118077
-0.0402527
-0.109197
-0.0599637
-0.0985013
-0.0747985
-0.0866796
-0.0849561
-0.0742987
-0.0910154
-0.0617846
-0.0937368
-0.0494407
-0.0938633
-0.0374822
-0.0920277
-0.0260698
-0.0887331
-0.0153283
-0.0843944
-0.00534938
-0.0794047
0.00381123
-0.0741242
0.0121746
-0.0693164
0.0198694
-0.0653775
0.027119
-0.063012
0.0342608
-0.0627937
0.0417179
-0.0650656
0.0499345
-0.0697871
0.059297
-0.0764319
0.0700405
-0.0839441
0.0821596
-0.0907834
0.0953438
-0.0950863
0.108965
-0.0949361
0.122109
-0.0886302
0.133631
-0.0749698
0.142304
-0.0536433
0.147032
-0.0247681
0.146816
0.0109642
0.14075
0.0490508
0.129189
0.0881517
0.112138
0.125616
0.0903678
0.15814
0.065
0.183389
0.0374143
0.1997
0.00906248
0.206478
-0.0186501
0.204129
-0.0445765
0.193662
-0.0678504
0.176969
-0.0879851
0.156227
-0.104847
0.133558
-0.118465
0.110603
-0.12909
0.0887324
-0.137131
0.0688381
-0.143052
0.0511769
-0.147231
0.035322
-0.149829
0.0205137
-0.150867
0.00523503
-0.150069
-0.0115229
-0.147032
-0.0301029
-0.141241
-0.0508956
-0.132349
-0.0733457
-0.12011
-0.0965791
-0.104495
-0.119279
-0.0856996
-0.139854
-0.0643131
-0.156255
-0.0414052
-0.166244
-0.0181304
-0.169103
0.00431764
-0.164096
0.0250305
-0.153572
0.0432927
-0.137628
0.0586234
-0.118062
0.0707028
-0.0964483
0.0795914
-0.0747711
0.0855824
-0.0546516
0.0891607
-0.0372576
0.0909847
-0.0234325
0.0916511
-0.0133952
0.0917063
-0.00687115
0.0914978
-0.00313509
0.0913029
-0.00140037
0.0912692
-0.000881274
0.0914056
-0.000827675
0.0916448
-0.000604175
0.0918708
0.000199156
0.0919642
0.00182975
0.0917727
0.00452067
0.0911654
0.00843886
0.0899508
0.013865
0.0878998
0.0210556
0.0847285
0.0302581
0.0801066
0.0416058
0.0736845
0.0550178
0.0651616
0.0700591
0.054321
0.0859446
0.0411066
0.101526
0.0257296
0.115289
0.00866003
0.125694
-0.0093426
0.131215
-0.0274711
0.131498
-0.0448072
0.125764
-0.0607185
0.114762
-0.0741215
0.0977918
-0.0842171
0.0768411
-0.0908489
0.0543782
-0.0940658
0.032561
-0.0942455
0.013557
-0.0925395
0.000493045
-0.0899443
-0.00652447
-0.0876039
-0.00722546
-0.0863008
-0.00318685
-0.0866577
0.00433298
-0.088655
0.012154
-0.0920471
0.0186
-0.0962566
0.0210334
-0.100287
0.0176091
-0.102953
0.0082108
-0.103555
-0.00677818
-0.100979
-0.0268844
-0.0945983
-0.05031
-0.0845718
-0.0736584
-0.0714812
-0.0936906
-0.0562086
-0.108669
-0.0398358
-0.117349
-0.0234869
-0.119553
-0.00787286
-0.117083
0.00655246
-0.111278
0.0196501
-0.104214
0.0315551
-0.0971187
0.0425193
-0.0909735
0.0529163
-0.0866551
0.0631501
-0.084156
0.0734755
-0.082773
0.0839568
-0.081527
0.0944461
-0.0792436
0.104619
-0.0749397
0.114011
-0.067762
0.122156
-0.0576971
-0.0442635
-0.054414
-0.103291
-0.0417193
-0.112182
-0.0279441
-0.120797
-0.0130632
-0.12861
0.00281539
-0.134878
0.0192775
-0.138296
0.0359575
-0.138626
0.0522849
-0.134991
0.0676651
-0.127246
0.0815511
-0.115685
0.0935116
-0.101
0.103283
-0.0841626
0.110779
-0.0662232
0.116072
-0.0481077
0.11934
-0.0304333
0.120781
-0.0133897
0.120508
0.00355437
0.118597
0.0201455
0.114865
0.0380703
0.109027
0.0576323
0.100694
0.0791654
0.0894762
0.102456
0.0750934
0.126636
0.0574754
0.150239
0.0368583
0.171292
0.0138056
0.187674
-0.010797
0.197287
-0.0357762
0.198799
-0.0598906
0.191314
-0.0818887
0.174927
-0.10065
0.150557
-0.115333
0.119998
-0.125656
0.0858723
-0.131111
0.0500117
-0.131521
0.0131402
-0.1279
-0.019508
-0.12091
-0.0472433
-0.111329
-0.0695443
-0.099961
-0.0861665
-0.0875499
-0.0973671
-0.0746884
-0.103877
-0.061802
-0.106623
-0.0491775
-0.106488
-0.037011
-0.104194
-0.0254499
-0.100294
-0.0146169
-0.0952274
-0.00461086
-0.0894107
0.00451036
-0.0832454
0.0127423
-0.0775484
0.0202087
-0.0728439
0.0271483
-0.0699515
0.0339317
-0.0695771
0.0410378
-0.0721717
0.0489811
-0.0777304
0.0582241
-0.0856749
0.0690692
-0.0947892
0.0815547
-0.103269
0.0953766
-0.108908
0.109873
-0.109433
0.12406
-0.102817
0.136689
-0.0875988
0.14639
-0.0633436
0.151946
-0.0303249
0.152377
0.0105332
0.146275
0.0551534
0.134461
0.0999656
0.116718
0.143359
0.0939192
0.180939
0.0673001
0.210008
0.0383783
0.228622
0.00873922
0.236117
-0.0200988
0.232967
-0.0468999
0.220463
-0.0707448
0.200814
-0.0911592
0.176642
-0.108091
0.15049
-0.12158
0.124092
-0.131936
0.0990879
-0.139647
0.0765489
-0.145287
0.0568173
-0.149308
0.0393427
-0.151905
0.0231112
-0.153098
0.00642771
-0.15259
-0.0120304
-0.149914
-0.0327798
-0.144448
-0.0563609
-0.13573
-0.0820643
-0.123428
-0.10888
-0.107473
-0.135234
-0.0880337
-0.159294
-0.0657475
-0.178541
-0.0418194
-0.190172
-0.0175238
-0.193399
0.00587059
-0.18749