/*--------------------------------*- C++ -*----------------------------------*\
| =========                 |                                                 |
| \\      /  F ield         | OpenFOAM: The Open Source CFD Toolbox           |
|  \\    /   O peration     | Version:  v1912                                 |
|   \\  /    A nd           | Website:  www.openfoam.com                      |
|    \\/     M anipulation  |                                                 |
\*---------------------------------------------------------------------------*/
FoamFile
{
    version     2.0;
    format      ascii;
    class       volScalarField;
    location    "80";
    object      omega;
}
// * * * * * * * * * * * * * * * * * * * * * * * * * * * * * * * * * * * * * //

dimensions      [0 0 -1 0 0 0 0];


internalField   nonuniform List<scalar> 
14268
(
0.00642798
0.00644518
0.00651326
0.00665133
0.00687136
0.00717145
0.0075289
0.00782597
0.00801474
0.00812962
0.0081945
0.00823005
0.00824794
0.00825663
0.00825939
0.00825724
0.00825193
0.00824713
0.00824299
0.00823814
0.0082329
0.0082277
0.00822308
0.00821993
0.00821924
0.00822197
0.00822879
0.00823963
0.0082535
0.0082687
0.0082832
0.00829417
0.00829782
0.0082948
0.00828791
0.00828005
0.00827593
0.00827461
0.00827478
0.0082757
0.00827667
0.00827731
0.00827789
0.0082788
0.00828004
0.00828025
0.00828296
0.00828527
0.00828737
0.00828958
0.00829216
0.00829535
0.00829944
0.00830479
0.00831185
0.00832098
0.00833249
0.00834637
0.00836221
0.0083794
0.00839688
0.00841241
0.00842357
0.00843037
0.00843466
0.0084326
0.00842512
0.00841719
0.00841128
0.00840937
0.00841342
0.00842354
0.00843838
0.00845599
0.00847428
0.00849161
0.00850541
0.00851372
0.0085181
0.00851988
0.0085199
0.00851874
0.00851721
0.00851691
0.00852036
0.00852668
0.00853556
0.00854591
0.00855674
0.00856795
0.00858189
0.00859851
0.00861747
0.00863805
0.00865883
0.00867804
0.00869469
0.00870772
0.00871654
0.00872108
0.00872136
0.0087174
0.00870909
0.00869686
0.00868154
0.00866401
0.008645
0.00862502
0.00860707
0.0085906
0.00857499
0.00855935
0.00854381
0.00853185
0.00852049
0.00850862
0.00849728
0.00848599
0.00847548
0.00846593
0.00845754
0.00845147
0.00844808
0.00844705
0.00844876
0.00845274
0.00845821
0.0084641
0.00846878
0.00847041
0.00846972
0.0084677
0.00846506
0.00846218
0.0084591
0.00845462
0.00844464
0.00843481
0.00842504
0.0084155
0.00840623
0.00839722
0.00838995
0.00838626
0.00838641
0.00838985
0.00839523
0.00840133
0.0084088
0.00841815
0.00842863
0.00843907
0.00844834
0.00845703
0.0084658
0.00847546
0.00848663
0.00849951
0.00851423
0.00853036
0.00854818
0.00856578
0.0085819
0.00859709
1.5105
1.1653
0.794465
0.519529
0.350147
0.245287
0.179171
0.138015
0.113383
0.0991694
0.0909617
0.086002
0.0828467
0.0807995
0.0795073
0.0787619
0.0784204
0.0784008
0.0787014
0.0793779
0.0804826
0.0820764
0.0842034
0.0868815
0.0900859
0.0937384
0.0977
0.101739
0.105608
0.109123
0.112133
0.114535
0.116271
0.117318
0.117723
0.117493
0.116849
0.115853
0.114577
0.113096
0.111482
0.109796
0.108088
0.106397
0.104757
0.103195
0.101733
0.100383
0.0991438
0.0980095
0.0969504
0.095914
0.094839
0.0936495
0.092267
0.0906255
0.0886872
0.086452
0.0839735
0.0813875
0.0789297
0.0768597
0.0754419
0.0748573
0.0751526
0.0764947
0.0788717
0.0821352
0.0861101
0.0905838
0.0953221
0.100037
0.104419
0.108314
0.111647
0.114394
0.116578
0.118253
0.119488
0.120354
0.120905
0.121181
0.121201
0.120964
0.120527
0.119835
0.11885
0.117538
0.115874
0.113853
0.111499
0.108857
0.106009
0.103071
0.100182
0.0974465
0.094973
0.0928702
0.0912124
0.0900172
0.0892467
0.0888239
0.0886554
0.0886446
0.0887083
0.0887752
0.0887917
0.0887543
0.0886649
0.0885284
0.0883701
0.0882169
0.0880968
0.0880495
0.0881231
0.0883844
0.0888914
0.0896978
0.0908676
0.0924449
0.0944246
0.0968005
0.0994968
0.102387
0.105313
0.108087
0.11057
0.112656
0.114269
0.115378
0.115992
0.116177
0.116015
0.115663
0.115246
0.114835
0.114507
0.114382
0.114473
0.114707
0.114964
0.115137
0.115135
0.114899
0.114335
0.113401
0.112087
0.110447
0.108567
0.106556
0.104513
0.102503
0.100559
0.098693
0.0969037
0.0951362
0.0933409
0.0914812
0.0895357
0.0875059
0.0854312
0.0834045
0.0815113
0.0799023
1.5139
1.20116
0.869292
0.613164
0.445159
0.33336
0.258139
0.209052
0.178823
0.16129
0.151611
0.146346
0.143377
0.141628
0.14061
0.14007
0.13983
0.139827
0.140051
0.14053
0.141294
0.142376
0.143788
0.145518
0.147526
0.149741
0.152055
0.154238
0.156155
0.157747
0.158996
0.159912
0.160527
0.160876
0.161001
0.160916
0.160688
0.160266
0.159683
0.15898
0.158195
0.157361
0.156506
0.155653
0.154821
0.154024
0.153276
0.152584
0.151949
0.15137
0.150836
0.150312
0.149757
0.149128
0.148378
0.147462
0.146351
0.145035
0.143538
0.141931
0.140361
0.139017
0.138072
0.137599
0.13772
0.138555
0.140093
0.142181
0.14465
0.147325
0.150036
0.152574
0.154695
0.15638
0.157665
0.158611
0.15928
0.159734
0.160025
0.160195
0.160271
0.160266
0.160188
0.160041
0.159823
0.159479
0.158991
0.158346
0.157536
0.156557
0.155417
0.154139
0.15276
0.151337
0.149938
0.148618
0.147419
0.146394
0.145598
0.145054
0.144747
0.144638
0.144669
0.14479
0.144947
0.145091
0.1452
0.145264
0.145281
0.145262
0.145221
0.145166
0.145116
0.145094
0.145132
0.145268
0.145537
0.145968
0.146597
0.147443
0.148494
0.14973
0.15111
0.152513
0.15383
0.154977
0.155906
0.156609
0.157088
0.157363
0.157466
0.157421
0.157275
0.157088
0.156893
0.156715
0.156593
0.156586
0.156657
0.156772
0.15689
0.156976
0.157006
0.156958
0.156755
0.156368
0.15579
0.155044
0.154169
0.153222
0.152258
0.151305
0.150371
0.149471
0.148607
0.14772
0.146771
0.14574
0.144617
0.143407
0.14213
0.140845
0.139604
0.138549
1.51462
1.21166
0.889816
0.638937
0.473217
0.361565
0.285086
0.23428
0.202569
0.184154
0.174139
0.168932
0.166257
0.164853
0.164112
0.163734
0.163564
0.163547
0.16366
0.163905
0.164291
0.164832
0.165532
0.166388
0.167389
0.16851
0.169703
0.170778
0.171646
0.172301
0.172761
0.173062
0.173246
0.173346
0.173388
0.173382
0.173356
0.173222
0.172978
0.172652
0.172272
0.171862
0.17144
0.171021
0.170616
0.170235
0.169886
0.169571
0.169292
0.16905
0.168841
0.168637
0.16841
0.168139
0.167797
0.167361
0.166811
0.166139
0.165354
0.164494
0.163644
0.162926
0.162418
0.162101
0.162064
0.162345
0.162968
0.163855
0.164931
0.166122
0.167355
0.168523
0.169405
0.170012
0.170396
0.170614
0.170714
0.170736
0.170704
0.17064
0.170552
0.170444
0.170319
0.170179
0.17003
0.169813
0.16951
0.169123
0.168659
0.168126
0.167533
0.166898
0.16624
0.165587
0.164966
0.164389
0.163848
0.163377
0.163018
0.162789
0.162691
0.162707
0.162817
0.162992
0.163195
0.163398
0.163584
0.163745
0.163878
0.163985
0.164069
0.164134
0.164185
0.16423
0.164283
0.16436
0.164478
0.164651
0.164898
0.165231
0.165648
0.16614
0.166707
0.167292
0.167797
0.168186
0.168437
0.168564
0.168597
0.168557
0.168459
0.168329
0.168196
0.168087
0.167984
0.167893
0.167834
0.167866
0.16793
0.167996
0.168052
0.168095
0.16812
0.168144
0.168118
0.167992
0.167776
0.167478
0.167113
0.166719
0.166329
0.165954
0.165596
0.165266
0.16495
0.164591
0.164175
0.163688
0.163124
0.162491
0.161806
0.161109
0.16042
0.15986
1.51625
1.22169
0.906975
0.657642
0.492202
0.379826
0.301713
0.248813
0.215163
0.195385
0.184602
0.179084
0.176348
0.175003
0.174335
0.173991
0.173819
0.173761
0.173788
0.173892
0.174064
0.174307
0.174635
0.175062
0.175604
0.17627
0.177043
0.177728
0.178246
0.178599
0.178808
0.178913
0.178957
0.178972
0.178978
0.178983
0.178992
0.178958
0.178809
0.17858
0.178304
0.17801
0.177714
0.177427
0.177161
0.176921
0.176712
0.176535
0.176389
0.176274
0.17619
0.176114
0.176013
0.175871
0.175673
0.175407
0.175067
0.174652
0.174176
0.173667
0.173181
0.172794
0.172496
0.172241
0.172083
0.172044
0.172133
0.172367
0.172734
0.173224
0.17382
0.174444
0.174866
0.175097
0.175187
0.175177
0.175108
0.175006
0.174887
0.174754
0.174618
0.174467
0.174313
0.174156
0.173988
0.173788
0.173501
0.17313
0.172692
0.172207
0.171695
0.171183
0.170701
0.170274
0.169911
0.169612
0.169351
0.169128
0.16897
0.168891
0.168892
0.168971
0.169124
0.169335
0.169588
0.169864
0.170136
0.170389
0.17062
0.170826
0.171007
0.171164
0.171296
0.171403
0.171491
0.171567
0.171634
0.171702
0.171784
0.171893
0.172035
0.172222
0.172467
0.172728
0.17292
0.173023
0.173015
0.172917
0.172774
0.172602
0.172414
0.172232
0.172076
0.171962
0.171854
0.17176
0.171702
0.171732
0.171801
0.17186
0.171904
0.171942
0.17197
0.172008
0.172052
0.172033
0.171945
0.171797
0.171608
0.17141
0.171227
0.17107
0.170935
0.170832
0.170752
0.170634
0.170462
0.170229
0.169929
0.169574
0.169174
0.168767
0.168349
0.168042
1.51864
1.23399
0.926963
0.677567
0.511456
0.397854
0.317682
0.262179
0.226042
0.204294
0.192218
0.185926
0.182806
0.181271
0.180494
0.180085
0.179877
0.179777
0.179736
0.179734
0.17977
0.179867
0.180053
0.180353
0.1808
0.181418
0.182185
0.18287
0.183382
0.183718
0.183897
0.183967
0.183973
0.183948
0.18392
0.183896
0.183859
0.183805
0.183631
0.183359
0.183044
0.182722
0.182411
0.182123
0.181867
0.181638
0.181442
0.181284
0.181162
0.181078
0.181026
0.180989
0.180913
0.180779
0.180574
0.180288
0.179925
0.179498
0.179037
0.178585
0.178199
0.177912
0.177629
0.177328
0.177039
0.176784
0.176611
0.176555
0.176646
0.176928
0.177406
0.17796
0.178317
0.178499
0.178563
0.178546
0.17848
0.17839
0.178284
0.17815
0.178021
0.177858
0.177692
0.177515
0.177301
0.177039
0.176709
0.176267
0.17573
0.175128
0.174493
0.173859
0.173267
0.172745
0.172313
0.171978
0.171738
0.171564
0.171453
0.171414
0.171446
0.171554
0.17173
0.171972
0.172274
0.172621
0.172985
0.173329
0.173649
0.17394
0.174204
0.174441
0.174649
0.174825
0.174966
0.175074
0.175154
0.175213
0.175261
0.175308
0.175373
0.175485
0.175673
0.175903
0.176059
0.176113
0.176062
0.175929
0.175753
0.17554
0.175309
0.175075
0.174874
0.174712
0.174544
0.174389
0.174288
0.174264
0.174315
0.174373
0.174422
0.174467
0.1745
0.174529
0.174561
0.174588
0.174522
0.174377
0.174202
0.17403
0.173884
0.173774
0.173701
0.173659
0.173651
0.173616
0.173525
0.173376
0.173169
0.172915
0.172619
0.172321
0.172013
0.171794
1.52168
1.24851
0.951262
0.70187
0.53452
0.419089
0.336221
0.277421
0.238066
0.21376
0.199916
0.192562
0.188847
0.186994
0.186032
0.185537
0.185297
0.185173
0.185093
0.185025
0.184981
0.185011
0.18516
0.185465
0.185965
0.1867
0.187672
0.188606
0.189385
0.189982
0.190404
0.190679
0.19084
0.190913
0.190913
0.190823
0.190596
0.190263
0.189798
0.189196
0.188566
0.187979
0.187473
0.187052
0.186708
0.186411
0.186162
0.185971
0.185832
0.185743
0.185696
0.18567
0.185593
0.185431
0.185169
0.184797
0.184319
0.183763
0.183178
0.182624
0.182168
0.181789
0.181397
0.180989
0.180583
0.18021
0.179925
0.179791
0.179857
0.180173
0.180743
0.181406
0.181869
0.182182
0.182403
0.182571
0.182707
0.182815
0.182879
0.18289
0.182882
0.182794
0.182672
0.182488
0.182203
0.181791
0.18125
0.180586
0.179764
0.178824
0.17783
0.176847
0.175943
0.17516
0.174512
0.174001
0.173641
0.173411
0.173267
0.1732
0.173205
0.173286
0.173453
0.173706
0.174045
0.174453
0.174897
0.175334
0.175745
0.176126
0.176478
0.176803
0.177101
0.177366
0.17759
0.177773
0.177921
0.178037
0.178126
0.178203
0.178295
0.178444
0.178687
0.178995
0.179219
0.179323
0.179321
0.179218
0.179042
0.1788
0.178525
0.178245
0.178
0.177801
0.177585
0.177366
0.177184
0.177075
0.177065
0.177115
0.177171
0.177221
0.177248
0.177254
0.177233
0.1772
0.177108
0.176901
0.176665
0.176445
0.176261
0.176128
0.176049
0.175999
0.17599
0.17598
0.175906
0.175763
0.175549
0.175282
0.174974
0.17467
0.174378
0.174161
1.52511
1.26524
0.980311
0.731581
0.563015
0.445599
0.359582
0.296723
0.2532
0.225385
0.209045
0.200135
0.195491
0.19318
0.192014
0.191413
0.191142
0.191009
0.190908
0.190801
0.190719
0.190753
0.190976
0.191464
0.192307
0.193602
0.195356
0.197186
0.198946
0.200539
0.201899
0.202984
0.203766
0.204244
0.204437
0.204219
0.203483
0.202354
0.200969
0.199396
0.197832
0.196417
0.195234
0.194269
0.19349
0.192852
0.192332
0.19193
0.191633
0.191428
0.1913
0.191224
0.191105
0.190875
0.190506
0.189983
0.189313
0.188542
0.18774
0.186993
0.186373
0.18579
0.185216
0.184644
0.184096
0.183612
0.183252
0.183103
0.18324
0.183756
0.184681
0.185781
0.18674
0.187598
0.188389
0.189138
0.189842
0.190481
0.191021
0.191443
0.19174
0.191897
0.191907
0.191705
0.191265
0.190557
0.189581
0.188356
0.186922
0.185294
0.183532
0.181777
0.180163
0.17877
0.177617
0.176694
0.175999
0.175513
0.175201
0.175029
0.17497
0.175006
0.175147
0.175407
0.175778
0.176244
0.176764
0.177296
0.177804
0.178281
0.178728
0.179147
0.179542
0.179906
0.180228
0.180507
0.180747
0.180955
0.181133
0.181296
0.181492
0.181788
0.182239
0.182817
0.18332
0.183683
0.183914
0.184003
0.183913
0.183675
0.183327
0.182946
0.182572
0.182245
0.181886
0.181524
0.181233
0.181071
0.18107
0.18116
0.181269
0.181335
0.181341
0.181264
0.18111
0.180894
0.180653
0.180254
0.179805
0.179384
0.179035
0.178774
0.178606
0.178499
0.178443
0.178426
0.178348
0.178181
0.177931
0.177612
0.177242
0.176872
0.176537
0.176293
1.52875
1.28404
1.0141
0.766937
0.597227
0.47786
0.388711
0.321485
0.273076
0.240839
0.221167
0.210049
0.20406
0.200919
0.199325
0.198552
0.198256
0.198177
0.198153
0.198123
0.198144
0.198375
0.198958
0.200034
0.201793
0.204436
0.207986
0.211958
0.216101
0.220122
0.223767
0.226866
0.229323
0.231089
0.232054
0.23176
0.229775
0.226585
0.222779
0.218859
0.215196
0.211921
0.208996
0.206491
0.204421
0.20277
0.201502
0.200548
0.199839
0.199334
0.198994
0.198772
0.19854
0.198167
0.197602
0.196821
0.195835
0.194701
0.19352
0.192419
0.191402
0.190434
0.189541
0.188724
0.187992
0.187389
0.186999
0.186942
0.187373
0.188453
0.19023
0.192288
0.194289
0.196227
0.198103
0.199907
0.201601
0.203148
0.204508
0.205644
0.206516
0.207082
0.207329
0.207127
0.20645
0.20527
0.203596
0.201445
0.19886
0.195933
0.192775
0.189612
0.186695
0.184175
0.182097
0.180451
0.179196
0.178283
0.177664
0.177281
0.177085
0.177041
0.177135
0.177387
0.17779
0.178318
0.178925
0.179569
0.180201
0.180798
0.181361
0.181896
0.182411
0.182901
0.183355
0.183769
0.184148
0.184501
0.184842
0.185213
0.185692
0.186375
0.187336
0.188526
0.189666
0.190651
0.191432
0.191948
0.192132
0.191942
0.191392
0.19067
0.189941
0.189281
0.188579
0.187889
0.187374
0.187124
0.187214
0.18747
0.187648
0.187705
0.187622
0.187366
0.186971
0.186453
0.185875
0.185217
0.184427
0.183655
0.182967
0.182408
0.182011
0.181729
0.181544
0.181443
0.181329
0.181102
0.18076
0.180329
0.179834
0.179346
0.17892
0.178605
1.53253
1.30443
1.05148
0.807043
0.636795
0.51625
0.424445
0.35284
0.299029
0.261518
0.237608
0.223525
0.215673
0.211371
0.2091
0.208069
0.207783
0.20788
0.208156
0.208472
0.208924
0.209763
0.211229
0.213604
0.217285
0.222687
0.229963
0.238524
0.247865
0.25725
0.266082
0.274003
0.280776
0.286096
0.289265
0.289065
0.284246
0.27639
0.267029
0.25767
0.249188
0.241592
0.234678
0.22862
0.22353
0.219511
0.216461
0.214224
0.212589
0.211411
0.210579
0.209991
0.209466
0.208779
0.207846
0.206623
0.20511
0.203376
0.201563
0.199808
0.19805
0.196375
0.194872
0.193619
0.192626
0.191933
0.191655
0.191947
0.19309
0.195296
0.198632
0.202467
0.20641
0.210359
0.214229
0.217947
0.221444
0.224635
0.227442
0.229807
0.231657
0.232897
0.233503
0.233405
0.232504
0.230414
0.227349
0.223414
0.218711
0.213377
0.207718
0.202059
0.196865
0.192423
0.188815
0.185986
0.183829
0.182238
0.181119
0.180381
0.179951
0.179777
0.179808
0.180046
0.180492
0.181106
0.181841
0.182642
0.183457
0.184232
0.184968
0.185676
0.186368
0.18705
0.187713
0.18835
0.188961
0.189561
0.1902
0.190972
0.192004
0.193407
0.195276
0.197546
0.199818
0.201878
0.203551
0.204657
0.205061
0.204687
0.203689
0.202374
0.201009
0.19975
0.1985
0.197336
0.19647
0.19603
0.196089
0.196395
0.19654
0.196579
0.196398
0.195935
0.195193
0.194211
0.193111
0.192018
0.190796
0.189583
0.188454
0.187479
0.186729
0.186162
0.185769
0.185506
0.185289
0.184951
0.184453
0.183839
0.183159
0.182495
0.181954
0.181491
1.53637
1.32536
1.09187
0.85213
0.681747
0.560795
0.467311
0.391806
0.332436
0.288999
0.259946
0.242065
0.231723
0.225908
0.222801
0.221466
0.221265
0.22177
0.222731
0.223877
0.225347
0.227492
0.230709
0.235562
0.242852
0.253438
0.26775
0.284955
0.304008
0.323464
0.342307
0.359964
0.37592
0.389136
0.397231
0.397423
0.387537
0.371576
0.352081
0.332482
0.314443
0.298114
0.283515
0.270531
0.259317
0.250191
0.243182
0.238047
0.234265
0.231459
0.229382
0.227847
0.22655
0.225158
0.223504
0.22146
0.218976
0.216133
0.213162
0.21027
0.207408
0.204722
0.202338
0.200406
0.199004
0.198201
0.198115
0.199045
0.201542
0.205873
0.21209
0.219341
0.227163
0.235282
0.243434
0.251375
0.258843
0.265516
0.271169
0.275697
0.278996
0.280992
0.28187
0.282426
0.282116
0.277753
0.270885
0.262423
0.252952
0.242828
0.232522
0.222473
0.213283
0.205472
0.199208
0.194377
0.190754
0.188097
0.186216
0.184937
0.184147
0.183755
0.18369
0.18391
0.184431
0.185197
0.186143
0.187188
0.188271
0.189331
0.190348
0.191344
0.192345
0.193366
0.194405
0.195439
0.196459
0.19751
0.198707
0.200225
0.202246
0.204913
0.208388
0.212637
0.217053
0.221194
0.22461
0.226841
0.227563
0.226587
0.224426
0.22165
0.218785
0.216125
0.213641
0.211502
0.209955
0.209096
0.208858
0.209164
0.209534
0.209716
0.209586
0.208913
0.20761
0.205768
0.203674
0.201642
0.1996
0.19764
0.195891
0.194391
0.193179
0.192238
0.191563
0.191076
0.190668
0.190126
0.18937
0.188465
0.187507
0.186582
0.185843
0.185136
1.54
1.3466
1.13455
0.902907
0.73234
0.611592
0.517628
0.439299
0.374749
0.32504
0.29012
0.267657
0.25414
0.246379
0.24228
0.240696
0.240761
0.242094
0.244316
0.247039
0.250422
0.254899
0.261101
0.27009
0.283378
0.302557
0.328303
0.359075
0.392959
0.42794
0.462998
0.497598
0.530593
0.558949
0.576342
0.578196
0.560946
0.533104
0.497887
0.462159
0.429988
0.400222
0.372935
0.348121
0.326166
0.30747
0.292504
0.281194
0.272633
0.266033
0.260891
0.256884
0.253688
0.250727
0.247624
0.244052
0.239841
0.235108
0.230219
0.225301
0.220546
0.216239
0.212544
0.209672
0.207743
0.2069
0.207308
0.20973
0.214953
0.223435
0.23544
0.250084
0.266818
0.285145
0.304258
0.323142
0.340636
0.355483
0.366911
0.374673
0.378712
0.379395
0.381435
0.388687
0.394946
0.383984
0.363259
0.339308
0.315133
0.292817
0.273093
0.255181
0.239312
0.226033
0.215519
0.207473
0.201465
0.197074
0.193955
0.191806
0.190443
0.189724
0.189534
0.189764
0.190441
0.191498
0.192824
0.194295
0.195835
0.197378
0.198878
0.200379
0.201945
0.203625
0.205393
0.20718
0.208974
0.210897
0.213225
0.21625
0.220187
0.225272
0.231959
0.240415
0.24965
0.258642
0.266154
0.270949
0.272117
0.269332
0.263944
0.257326
0.250606
0.244512
0.239178
0.234811
0.23167
0.22984
0.229161
0.229804
0.230709
0.231429
0.23161
0.230743
0.228353
0.224641
0.22043
0.216425
0.212739
0.209375
0.20648
0.204089
0.202156
0.200693
0.199613
0.198784
0.198048
0.197156
0.195978
0.194616
0.193239
0.191933
0.190815
0.189776
1.54307
1.36815
1.17839
0.959983
0.789657
0.669609
0.576227
0.496362
0.427343
0.37142
0.330436
0.302952
0.285666
0.275466
0.270218
0.268512
0.269177
0.271925
0.276108
0.281282
0.287608
0.295564
0.306149
0.321224
0.343278
0.374601
0.415867
0.464173
0.515934
0.568143
0.619536
0.669317
0.712653
0.74553
0.76423
0.769824
0.758595
0.737491
0.705904
0.664796
0.616736
0.567572
0.521836
0.480311
0.442081
0.408028
0.379631
0.357504
0.34028
0.326617
0.315574
0.306682
0.299762
0.293929
0.288107
0.28148
0.27361
0.264858
0.256137
0.24766
0.23974
0.232791
0.227025
0.22272
0.220105
0.219408
0.221069
0.226768
0.237809
0.255276
0.280039
0.311892
0.351403
0.397464
0.44766
0.498152
0.544426
0.58126
0.605352
0.616462
0.612618
0.610311
0.62833
0.678253
0.713239
0.685833
0.614692
0.533175
0.453023
0.387355
0.342259
0.307337
0.279437
0.257133
0.240033
0.227281
0.21787
0.21093
0.205938
0.202413
0.200125
0.198935
0.198614
0.198956
0.199996
0.201638
0.20369
0.205983
0.208393
0.210822
0.21321
0.215651
0.218318
0.221324
0.224553
0.227804
0.231093
0.234851
0.239711
0.246106
0.254107
0.26423
0.278061
0.296658
0.318149
0.339851
0.358194
0.36978
0.371949
0.364094
0.349802
0.332572
0.314934
0.299319
0.286612
0.277012
0.270503
0.267026
0.266116
0.267838
0.270502
0.273053
0.274657
0.274109
0.269335
0.260795
0.250963
0.241827
0.234075
0.227602
0.222347
0.218251
0.215084
0.212763
0.211044
0.20966
0.208364
0.206853
0.204964
0.202863
0.200863
0.198959
0.197277
0.195761
1.54587
1.39008
1.22388
1.02423
0.8565
0.737822
0.645361
0.564513
0.491033
0.428927
0.382231
0.350061
0.329088
0.316448
0.310272
0.308843
0.310642
0.315392
0.322107
0.330443
0.340542
0.352848
0.368946
0.391881
0.425193
0.471731
0.531703
0.598955
0.666744
0.729901
0.785394
0.831086
0.867535
0.894512
0.910818
0.917196
0.911258
0.898968
0.8832
0.864633
0.839509
0.801541
0.752083
0.694645
0.634866
0.577522
0.527784
0.487765
0.456116
0.430659
0.409568
0.392127
0.37899
0.36884
0.358796
0.346581
0.330908
0.312949
0.295828
0.280759
0.267734
0.256965
0.248412
0.242154
0.238661
0.238514
0.243068
0.25567
0.278986
0.315236
0.367361
0.438694
0.531402
0.64292
0.766841
0.891431
1.00297
1.08548
1.1283
1.13004
1.11417
1.13404
1.27231
1.47941
1.58947
1.53245
1.34799
1.10507
0.841073
0.617471
0.485037
0.397937
0.3427
0.303799
0.275526
0.255422
0.241355
0.231322
0.224043
0.218859
0.215394
0.213677
0.213332
0.214038
0.215877
0.218679
0.222156
0.226072
0.230203
0.234375
0.238501
0.242799
0.247702
0.253388
0.259451
0.265417
0.271575
0.279194
0.289774
0.303502
0.319841
0.34042
0.370251
0.41276
0.463535
0.515559
0.560264
0.58998
0.599517
0.585265
0.552531
0.508406
0.460737
0.419135
0.387445
0.366737
0.354077
0.347331
0.346028
0.351635
0.360136
0.369587
0.377301
0.380267
0.3691
0.346527
0.319866
0.295273
0.275393
0.260254
0.248934
0.240773
0.235029
0.230966
0.227965
0.225481
0.223107
0.220437
0.217298
0.213991
0.210988
0.208166
0.205664
0.203509
1.54947
1.40828
1.25822
1.07455
0.912736
0.796584
0.704946
0.622779
0.544976
0.477134
0.42501
0.388327
0.363886
0.349026
0.342026
0.340823
0.343625
0.349951
0.358539
0.369181
0.382012
0.397423
0.417475
0.446166
0.487737
0.545361
0.618646
0.69829
0.775317
0.844396
0.904745
0.957804
1.00413
1.03643
1.0498
1.03774
1.01419
0.993303
0.976449
0.962975
0.951105
0.933573
0.910715
0.878824
0.833048
0.773663
0.706949
0.646274
0.5971
0.558343
0.526053
0.49892
0.479208
0.465338
0.451461
0.432531
0.405326
0.372129
0.340566
0.314703
0.294006
0.278156
0.266327
0.258038
0.253757
0.254076
0.261276
0.280038
0.314339
0.367323
0.44414
0.551822
0.693139
0.863853
1.05156
1.23538
1.39124
1.49414
1.53318
1.52455
1.54907
1.7363
2.19065
2.52735
2.66459
2.62862
2.43916
2.05859
1.567
1.09396
0.762289
0.533403
0.417124
0.35416
0.312249
0.283108
0.26303
0.2491
0.239264
0.232413
0.227918
0.225801
0.225516
0.226658
0.22931
0.233187
0.237946
0.243309
0.248969
0.254685
0.260352
0.266306
0.273219
0.281309
0.289866
0.29815
0.306798
0.317864
0.333556
0.353889
0.377575
0.407378
0.451735
0.516243
0.593865
0.673298
0.741532
0.788631
0.80911
0.802862
0.780391
0.738065
0.679578
0.606368
0.537463
0.49165
0.462955
0.448233
0.448539
0.465991
0.494977
0.531875
0.565181
0.580794
0.553287
0.502324
0.442065
0.386054
0.340965
0.307774
0.284449
0.268958
0.258918
0.252118
0.247125
0.242931
0.238883
0.234474
0.229591
0.22468
0.220276
0.216217
0.212701
0.209799
1.55791
1.42919
1.28718
1.10804
0.949471
0.834499
0.742817
0.659652
0.57977
0.50908
0.453862
0.41419
0.387171
0.370512
0.362737
0.361582
0.365041
0.372334
0.381977
0.3939
0.408222
0.425288
0.447496
0.479435
0.525698
0.589595
0.670023
0.755898
0.8411
0.934659
1.06875
1.24007
1.35832
1.43054
1.41644
1.31057
1.16093
1.08342
1.03795
1.01077
0.992775
0.975975
0.957289
0.935885
0.906351
0.864283
0.811825
0.755959
0.702897
0.655612
0.615792
0.5824
0.559077
0.544218
0.529467
0.506987
0.471015
0.424028
0.378376
0.342266
0.314434
0.293764
0.278879
0.268832
0.26389
0.264562
0.273706
0.296998
0.339424
0.404697
0.499989
0.635297
0.812661
1.02494
1.24931
1.45489
1.60815
1.68986
1.72102
1.73563
1.82989
2.1509
2.60947
2.873
3.0423
3.18585
3.14783
2.62109
2.11008
1.6818
1.16325
0.707859
0.483005
0.39017
0.337917
0.303106
0.279117
0.262272
0.250297
0.241925
0.236567
0.234144
0.233942
0.235485
0.238782
0.243447
0.249136
0.25557
0.262372
0.269233
0.276029
0.283216
0.291642
0.301528
0.31189
0.321799
0.332198
0.345839
0.365399
0.390491
0.419435
0.456033
0.511263
0.592539
0.690571
0.790865
0.876774
0.914667
0.902986
0.881447
0.859461
0.829429
0.791677
0.748484
0.692302
0.628594
0.58163
0.557496
0.560181
0.590157
0.641861
0.710283
0.773767
0.808562
0.751786
0.666688
0.571728
0.482872
0.409966
0.355471
0.317887
0.293762
0.278835
0.269197
0.262282
0.256504
0.250974
0.245082
0.238813
0.232589
0.22701
0.22193
0.21757
0.214021
1.57809
1.47393
1.33955
1.15578
0.994997
0.878156
0.784044
0.698264
0.615356
0.541649
0.483857
0.441974
0.413014
0.394917
0.386576
0.385621
0.38988
0.398196
0.408874
0.42205
0.43783
0.456474
0.480769
0.516041
0.56716
0.637581
0.725524
0.822794
0.945091
1.1466
1.3248
1.34027
2.09949
11.1416
21.5307
3.06385
1.57459
1.28935
1.16452
1.09464
1.04878
1.02014
0.998872
0.979637
0.959609
0.932061
0.894391
0.849887
0.803139
0.756632
0.711569
0.672625
0.646867
0.632461
0.618614
0.594138
0.549653
0.486683
0.42261
0.373497
0.337456
0.311681
0.293588
0.281647
0.275953
0.277054
0.288651
0.317684
0.370322
0.450918
0.569474
0.740051
0.962116
1.22354
1.49355
1.78864
1.97504
1.9442
1.91045
2.0054
2.4047
2.98063
4.17146
8.19553
39.3699
43.7587
8.75166
4.02183
2.77962
2.4325
1.84555
1.04152
0.588814
0.433802
0.365311
0.323732
0.296124
0.27688
0.263031
0.253245
0.247031
0.244323
0.244265
0.246336
0.250436
0.256073
0.262919
0.270691
0.278931
0.287245
0.295487
0.304243
0.314598
0.326749
0.339347
0.351224
0.363781
0.380625
0.405129
0.436146
0.471535
0.516502
0.585699
0.688751
0.812893
0.929493
0.982362
0.977123
0.958686
0.951238
0.947483
0.921048
0.889766
0.861243
0.833824
0.78242
0.73127
0.704734
0.716882
0.769414
0.866258
0.996989
1.11374
1.16515
1.03629
0.879419
0.739281
0.610737
0.503475
0.422059
0.364332
0.327386
0.304656
0.290409
0.280486
0.272328
0.264694
0.256875
0.24891
0.241171
0.234275
0.228075
0.222838
0.21866
1.62354
1.57749
1.45027
1.23767
1.06149
0.935661
0.835808
0.745498
0.657838
0.579506
0.517987
0.47328
0.442142
0.422538
0.413664
0.412994
0.418174
0.427522
0.439145
0.453464
0.470585
0.490644
0.516893
0.555489
0.611643
0.689216
0.789214
0.921699
1.14526
1.31559
1.25032
1.83685
26.051
35.4814
52.4131
253.953
4.87626
1.7715
1.409
1.25808
1.1573
1.08996
1.04651
1.02048
1.00437
0.986905
0.962544
0.930402
0.894025
0.856637
0.82017
0.786046
0.760416
0.748878
0.73898
0.714662
0.661206
0.57759
0.485679
0.415548
0.366588
0.333308
0.310868
0.296529
0.289981
0.291638
0.306277
0.342334
0.40737
0.506433
0.653378
0.869153
1.14723
1.50022
1.77118
2.19767
2.80836
3.93449
6.95214
23.5271
25.6285
24.0434
19.511
21.3609
29.0148
48.4961
142.497
30.7774
4.83641
3.34462
2.76817
1.72612
0.796873
0.500552
0.401533
0.349809
0.316834
0.294254
0.278092
0.266651
0.259462
0.256467
0.256621
0.259377
0.264469
0.271289
0.279545
0.288955
0.298956
0.309057
0.319079
0.329767
0.342485
0.357391
0.372686
0.386853
0.401958
0.422718
0.453138
0.491302
0.534311
0.589233
0.675703
0.8046
0.946682
1.03653
1.06162
1.05186
1.08008
1.12982
1.13434
1.08886
1.03021
0.980906
0.95468
0.920085
0.889022
0.883303
0.929411
1.05407
1.29983
1.66589
2.01753
2.10633
1.68252
1.22456
0.985561
0.798827
0.642991
0.52451
0.437497
0.380602
0.345253
0.323135
0.307923
0.295585
0.28429
0.273194
0.262426
0.252281
0.24345
0.235635
0.229083
0.223953
1.71165
1.79151
1.68444
1.39603
1.16992
1.01368
0.897395
0.798731
0.704991
0.62143
0.555878
0.50823
0.474869
0.453719
0.444329
0.444021
0.450243
0.460593
0.473014
0.488305
0.506583
0.527823
0.555877
0.597851
0.659614
0.747985
0.87801
1.08943
1.3038
1.25991
1.14972
18.3694
17.9211
19.9904
27.0029
50.4411
192.991
5.07592
1.85746
1.53588
1.37189
1.24033
1.13399
1.07175
1.04994
1.03921
1.02596
1.00438
0.977805
0.950182
0.923146
0.898197
0.880464
0.878199
0.879125
0.860029
0.800474
0.696322
0.56985
0.470023
0.402928
0.35941
0.331385
0.314007
0.306314
0.308653
0.326964
0.37146
0.451393
0.572574
0.75527
1.03706
1.39845
1.63535
1.88032
3.56914
21.6773
11.8798
15.1534
13.3796
11.8815
11.2421
12.1954
14.0568
17.5359
25.1474
45.2881
145.327
22.0576
4.77466
3.56192
2.7178
1.21321
0.607061
0.446127
0.379731
0.340743
0.314565
0.295805
0.28246
0.274164
0.270881
0.271353
0.275004
0.281335
0.289598
0.29955
0.31093
0.323056
0.335314
0.347485
0.3605
0.376072
0.39428
0.412728
0.429478
0.447546
0.472989
0.510444
0.556827
0.608425
0.675014
0.781008
0.931453
1.06698
1.15129
1.22829
1.44016
1.90651
2.32326
1.9029
1.51749
1.32439
1.2416
1.15999
1.11868
1.11334
1.15086
1.29665
1.67995
2.49364
3.87135
6.14305
6.56311
4.00213
1.97055
1.33378
1.05127
0.834932
0.668597
0.544364
0.459111
0.405071
0.370821
0.347224
0.328193
0.311106
0.29499
0.279766
0.265948
0.254418
0.244603
0.236495
0.230198
1.84466
1.99912
1.9633
1.71321
1.37682
1.14213
0.980494
0.862971
0.75968
0.669107
0.598487
0.547462
0.511728
0.488964
0.479057
0.479189
0.486572
0.497865
0.510886
0.526943
0.546167
0.568344
0.598051
0.643734
0.712967
0.823546
1.01953
1.30915
1.28735
1.04281
1.54531
15.0114
12.4259
13.8306
17.3905
25.8716
48.6844
192.225
4.22828
1.90066
1.6836
1.54266
1.33179
1.17324
1.11987
1.10631
1.09929
1.08339
1.0641
1.04664
1.03199
1.02016
1.01907
1.03667
1.05929
1.04674
0.977887
0.851233
0.684166
0.54245
0.449261
0.391209
0.35563
0.334465
0.325354
0.328436
0.351142
0.40579
0.50358
0.651869
0.886262
1.27313
1.60782
1.57937
2.24715
12.6992
15.4836
11.2172
8.69054
7.55885
7.83815
8.78168
9.95002
11.234
13.3194
17.6768
27.0722
55.2773
104.277
10.1499
4.34914
3.43509
2.02328
0.803596
0.509815
0.416455
0.369076
0.338488
0.316676
0.301108
0.291565
0.288027
0.288992
0.293853
0.301758
0.311773
0.323732
0.337449
0.352098
0.366916
0.381623
0.397395
0.416353
0.4384
0.460388
0.479998
0.501481
0.532447
0.577998
0.633414
0.694283
0.773389
0.897845
1.05797
1.19896
1.36419
1.71396
2.81691
7.18323
20.6862
12.8559
3.92964
1.73862
1.54792
1.53667
1.50809
1.62042
1.88114
2.1755
2.74087
3.70038
8.92825
31.2115
38.6972
16.4217
4.70706
1.95308
1.3976
1.09831
0.871837
0.70116
0.577802
0.497164
0.444746
0.408138
0.378333
0.351598
0.327033