/*--------------------------------*- C++ -*----------------------------------*\
| =========                 |                                                 |
| \\      /  F ield         | OpenFOAM: The Open Source CFD Toolbox           |
|  \\    /   O peration     | Version:  v1912                                 |
|   \\  /    A nd           | Website:  www.openfoam.com                      |
|    \\/     M anipulation  |                                                 |
\*---------------------------------------------------------------------------*/
FoamFile
{
    version     2.0;
    format      ascii;
    class       volScalarField;
    location    "80";
    object      p_rgh;
}
// * * * * * * * * * * * * * * * * * * * * * * * * * * * * * * * * * * * * * //

dimensions      [1 -1 -2 0 0 0 0];


internalField   nonuniform List<scalar> 
14268
(
-7658.59
-6048.04
-4324.53
-2520.82
-718.941
1121.26
3073.35
4945.5
6696.57
8294.23
9714.74
10943.9
11971.3
12788.5
13390.8
13770.9
13913.9
13810.7
13439.5
12772.6
11797.3
10513.3
8927.94
7036.67
4856.62
2437.59
-154.908
-2836.1
-5484.57
-7987.53
-10245.8
-12161.6
-13648.6
-14654.1
-15148.1
-15172.1
-14790.9
-14043.1
-12998.2
-11714.4
-10263.9
-8735.08
-7187.19
-5659.45
-4177.24
-2756.21
-1406.62
-153.422
935.056
2272.91
3570.11
4863.87
6188.11
7556.6
8962.46
10377.4
11756
13046.3
14206.6
15206.6
15965.1
16406.1
16467.5
16075.7
15238.8
13982.4
12307.7
10238.6
7809.67
5086.57
2152.37
-892.656
-3875.13
-6811.92
-9583.79
-12119.4
-14365.3
-16283
-17853.4
-19070.6
-19931.5
-20425.8
-20559.3
-20296.7
-19653.9
-18602.3
-17140.6
-15285.4
-13073.1
-10572.1
-7884.89
-5124.8
-2392.37
207.269
2186.76
4276.13
6074.91
7629.57
8935.51
10008.4
10867.4
11539.8
12054.2
12438.6
12718.1
12914
13042.6
13114.5
13133.5
13097.6
13002.5
12837.8
12589.1
12239.3
11768.8
11156.3
10380.9
9423.13
8268.17
6906.82
5338.04
3574.87
1653.49
-404.453
-2494.21
-4548.01
-6491.56
-8252.23
-9764.96
-10980.3
-11889.2
-12522.4
-12939.6
-13210.8
-13398.4
-13542
-13676.6
-13823.4
-13971.8
-14086.8
-14110.1
-13969.5
-13584.9
-12918.7
-11937.4
-10647.9
-9093.22
-7347.62
-5478.38
-3542.71
-1617.6
253.14
1998.38
3713
5352.55
6930.65
8434.5
9874.12
11250.5
12553.5
13766.4
14862.5
15823.7
16592.9
-8314.41
-6744.59
-5063.06
-3295.39
-1517.55
346.751
2305.56
4193.44
5983.76
7640.34
9135.62
10452.7
11578.8
12503
13217.9
13714.3
13977.1
14003.1
13759.9
13215.4
12352
11160
9637.47
7790.25
5645.54
3253.25
652.682
-2078.7
-4777.94
-7358.28
-9724.56
-11765.8
-13385.2
-14524.1
-15144.2
-15268.4
-14962.3
-14264.3
-13257.8
-12017.2
-10614.3
-9120.42
-7591.32
-6068.45
-4580.73
-3147.41
-1782.04
-512.99
616.125
1954.81
3252.06
4547.38
5870.24
7236.01
8642.18
10066.2
11467.8
12795.3
13993.6
15015.1
15819.8
16334.2
16489.9
16194.8
15465
14312
12728.9
10732.8
8353.28
5653.52
2717.17
-339.085
-3372.67
-6368
-9205.32
-11808.1
-14119
-16096.6
-17721.2
-18987.8
-19895.3
-20433.7
-20612.8
-20396.2
-19800.4
-18796.4
-17379.9
-15563.8
-13380.7
-10896.3
-8212.98
-5446.28
-2699.5
-72.3229
1915.08
4048.42
5890.73
7485.61
8828.53
9933.7
10818.9
11511
12039.3
12432.5
12717
12915.7
13046.1
13119.8
13141.5
13109.2
13018.9
12860.3
12619.3
12278.8
11819.1
11218.9
10456.8
9512.59
8370.5
7020.14
5459.06
3698.98
1774.98
-292.712
-2405.45
-4476.35
-6443.32
-8228.24
-9762.75
-10993.6
-11910
-12543.4
-12956.4
-13220.5
-13400.6
-13538.5
-13669.8
-13817.9
-13973.5
-14098.1
-14131.6
-14005.6
-13634.9
-12979.8
-12003.8
-10713.5
-9154.02
-7401.4
-5523.59
-3580.19
-1647.98
228.096
1978.83
3696.49
5338.03
6917.11
8422.03
9863.4
11242.5
12549.6
13768.1
14870.8
15839.8
16616.7
-8727.7
-7182.53
-5527.25
-3781.12
-2016.52
-141.859
1830.15
3740.7
5563.89
7262.74
8808.24
10182.3
11371.2
12363.3
13150.4
13721.8
14061.5
14173.3
14012.2
13543.6
12746.9
11608.5
10122.9
8294.71
6150.45
3743.25
1122.15
-1681.27
-4455.6
-7115.53
-9557.14
-11672.6
-13362.2
-14563.2
-15246.3
-15402.2
-15114.7
-14437
-13446.7
-12219.6
-10829.9
-9346.21
-7822.32
-6299.53
-4807.77
-3367.9
-1995.47
-722.925
435.129
1769.35
3062.12
4354.18
5674.58
7040.69
8453.09
9892.43
11320.5
12685.3
13928.2
14991.9
15826.7
16384.2
16593.2
16347.1
15667.7
14560.5
13012
11036
8660.39
5948.75
2987.42
-90.2875
-3172.08
-6213.67
-9095.65
-11739.2
-14085.4
-16092.2
-17741.2
-19029.6
-19958.9
-20521.7
-20723.3
-20533.4
-19965.4
-18988.5
-17594.9
-15793.8
-13614.2
-11120.1
-8416.27
-5623.65
-2844.17
-165.389
1778.42
3965.15
5841.55
7460.89
8822.58
9941.26
10834.7
11530.6
12059.2
12450.3
12731.8
12927.8
13057.4
13132.5
13157.3
13128
13042.5
12890
12656
12323.7
11873
11282.4
10529.6
9593.71
8457.79
7110.44
5547.96
3781.25
1844.77
-240.422
-2385.8
-4483.79
-6475.92
-8284.34
-9836.35
-11074.2
-11985.9
-12604.9
-13000.3
-13243.9
-13406.8
-13533.2
-13660.6
-13813.3
-13981.8
-14123.6
-14178.5
-14072.8
-13720.2
-13078.4
-12105.5
-10808.2
-9235.48
-7466.38
-5570.19
-3611.34
-1666.42
217.986
1975.95
3696.3
5338.15
6916.71
8421.57
9864.19
11246.7
12559.8
13786.7
14899.8
15880.7
16669.5
-9076.47
-7552.98
-5921.31
-4193
-2437.1
-556.854
1435.03
3373.89
5232.74
6973.37
8565.68
9990.77
11234.6
12285.2
13134.3
13770.7
14177.2
14364
14274.2
13870.9
13130.2
12035.2
10577
8757.81
6603.49
4168.1
1511.47
-1374.06
-4231.79
-6979.21
-9507.25
-11704.7
-13465.6
-14719
-15444.1
-15605.7
-15321.2
-14644.1
-13652.1
-12422.6
-11031.4
-9546.23
-8019.53
-6492.12
-4994.25
-3547.84
-2170.11
-898.706
285.361
1612.48
2897.44
4182.37
5497.61
6863.28
8283.37
9741.35
11200.3
12607.6
13901.6
15019.6
15903.5
16504.2
16755.3
16555.4
15913.9
14839.3
13309.5
11335.7
8944.97
6201.37
3203.1
89.5716
-3051.98
-6146.53
-9075.97
-11759.6
-14137.9
-16168.2
-17834.8
-19138.4
-20084
-20670.4
-20890.6
-20727.2
-20187.5
-19237.9
-17865.9
-16075.2
-13890.3
-11373
-8632.4
-5799.05
-2972.14
-194.87
1631.34
3914.35
5829.7
7474.15
8853.19
9982.37
10879.8
11574.4
12097.7
12481.2
12754.7
12946.3
13075.5
13152.9
13181.9
13157.2
13077.6
12932.7
12708
12386.5
11947.8
11369.6
10628.8
9703.25
8574.61
7230
5663.98
3886.33
1930.69
-181.063
-2371.03
-4512.54
-6540.93
-8382.42
-9958.42
-11204.2
-12106.1
-12701.1
-13064.5
-13285.9
-13416.4
-13523.4
-13645.6
-13805.6
-13993.9
-14163.5
-14251.1
-14175.5
-13853
-13230.2
-12260.3
-10950.3
-9356.04
-7561.74
-5637.89
-3656.29
-1692.74
203.735
1972.05
3696.13
5337.92
6915.17
8419.65
9863.89
11251.4
12573.5
13813.4
14942.4
15942
16749.4
-9403.68
-7902.74
-6295.7
-4583.84
-2832.32
-949.337
1069.76
3043.72
4943.76
6729.92
8370.93
9847.12
11144.2
12250.6
13158.4
13856.4
14327.8
14583.6
14560.9
14218.8
13529.9
12473.6
11037.5
9220.66
7047.57
4573.45
1867.6
-1112.9
-4067.67
-6916.57
-9544.78
-11835.7
-13674.9
-14981.8
-15722.3
-15881.4
-15587.6
-14896.1
-13887.3
-12641.4
-11236.3
-9739.11
-8201.56
-6663.88
-5156.32
-3701.52
-2318.18
-1050.36
157.352
1475.58
2750.03
4024.36
5331.36
6694.91
8122.85
9601.54
11095.1
12549.7
13900.8
15081.5
16028.6
16683.2
16976
16824.4
16208
15156.2
13631.8
11643
9216.83
6427.91
3380.46
210.678
-3004.51
-6160.3
-9141.91
-11867.1
-14275.7
-16324.7
-18002.2
-19314.2
-20270.4
-20876.8
-21114
-20976.2
-20465.4
-19543.4
-18191.3
-16406.4
-14207.1
-11652.4
-8858.04
-5969.03
-3085.95
-278.046
1605.06
3912.35
5864.62
7533.66
8927.74
10063.2
10958.9
11645.5
12156.1
12524.5
12787.6
12973.9
13101.6
13180.7
13213.9
13195.5
13122.9
12987.4
12773.3
12464.4
12039.5
11475.5
10748.1
9833.56
8711.72
7367.94
5794.65
4000.35
2017.87
-129.07
-2374.37
-4572.54
-6651.83
-8532.67
-10136.2
-11388.4
-12275
-12835.5
-13147.7
-13319.9
-13424.6
-13508.8
-13623.8
-13793.5
-14008.5
-14217.1
-14348.7
-14312.9
-14029
-13430.2
-12463.4
-11135.9
-9514.94
-7685.57
-5721.71
-3708.06
-1718.7
194.069
1975.68
3704.09
5344.89
6919.55
8422.78
9868.39
11261.8
12595.2
13851.7
15001.4
16024.9
16856.4
-9725.16
-8250.68
-6671.93
-4976.63
-3224.55
-1341.99
712.194
2728.92
4677
6514.28
8208.11
9738.07
11089.6
12251.9
13217.9
13977
14514.3
14835.9
14878.9
14596.9
13958.8
12939.4
11522.7
9703.39
7504.06
4980.86
2212.83
-876.636
-3944.35
-6911.65
-9656.59
-12055.7
-13983.8
-15349.1
-16082.8
-16231.9
-15917.8
-15198.6
-14158.9
-12883.6
-11453.2
-9934.68
-8378.8
-6825.18
-5303.9
-3838.12
-2447.89
-1184.93
44.2119
1352.03
2613.3
3873.36
5168.59
6527.55
7962.67
9463.53
10995.2
12502.4
13917.7
15169.2
16188.6
16907.6
17259.7
17163.2
16556.8
15519.4
13987.1
11969.8
9499.13
6651.77
3537.4
287.551
-3015.65
-6239.56
-9280.51
-12053
-14493.6
-16557.6
-18239.7
-19553.9
-20516
-21137.9
-21393.6
-21282.6
-20803.5
-19911.3
-18579.9
-16797.8
-14575.9
-11969.6
-9104.18
-6144.49
-3194.44
-355.288
1621
3950.41
5940.9
7635.06
9042.85
10181.2
11069.8
11741.2
12230.7
12581.2
12831.8
13011.1
13135.7
13216
13252.5
13242.1
13178.6
13054.1
12852.9
12558.5
12149.6
11602.1
10890.1
9987.93
8873.23
7529.21
5945.67
4129.47
2112.62
-78.5056
-2390.78
-4658.31
-6806.18
-8735.62
-10368.6
-11626.4
-12494.9
-13002.3
-13258.3
-13378.7
-13433.9
-13484.8
-13592.1
-13774.3
-14023.3
-14283.5
-14471.5
-14489.6
-14254.6
-13685.6
-12720.5
-11371.4
-9714
-7840.13
-5824.67
-3769.2
-1746.89
186.238
1984.05
3717.28
5356.05
6926.39
8427.25
9873.8
11274.2
12621.5
13898.8
15074.6
16128.7
16990.9
-10047.3
-8606.54
-7062.22
-5384.72
-3626.02
-1748.12
349.878
2417.79
4421.65
6316.77
8068.96
9656.83
11065.6
12285.3
13310.2
14131
14734.8
15122.2
15231.1
15010.1
14423.4
13441.1
12042.5
10217.6
7985.55
5403
2559.73
-653.09
-3851.4
-6956.33
-9837.04
-12362.2
-14393.1
-15815.5
-16528.7
-16661.5
-16315.6
-15555.1
-14470.3
-13152.8
-11686.5
-10137.7
-8556.32
-6981.16
-5441.96
-3962.21
-2563.18
-1305.52
-57.2624
1238.82
2484.18
3726
5005.35
6356.54
7797.42
9321.35
10894.4
12459.9
13947
15278.7
16380.9
17176.4
17597.7
17572.4
16954.5
15936.1
14390.3
12334.7
9805.21
6882.97
3683.43
334.302
-3062.86
-6372.95
-9488.16
-12318.2
-14794
-16868.6
-18547.6
-19857.2
-20820.7
-21455.1
-21732
-21649.1
-21205.6
-20347
-19038.4
-17257.1
-15004.5
-12332
-9377.48
-6331.58
-3301.47
-419.606
1664.11
4023.85
6057.23
7777.64
9198.26
10336
11211.4
11859
12322.7
12652.1
12888.5
13057.9
13177.5
13257.8
13298.3
13296.4
13245.1
13131.7
12945.8
12668.8
12278.1
11749.3
11055.1
10167
9060.07
7715.02
6118.46
4275.08
2216.13
-28.3944
-2419.67
-4770.02
-7003.78
-8993.75
-10657.6
-11923.1
-12768.1
-13200.1
-13396.1
-13446.8
-13441
-13451.4
-13547.2
-13744.7
-14035.6
-14360.8
-14619.3
-14701.4
-14534.9
-13998.8
-13033.6
-11658.2
-9953.65
-8023.89
-5947.35
-3838.56
-1775.25
182.69
1999.77
3738.04
5373.65
6937.41
8434.27
9880.94
11288.8
12652.4
13954.5
15161.7
16252.5
17151.9
-10371.9
-8976.49
-7475.21
-5818.01
-4044.97
-2177.13
-25.6392
2102.62
4170.75
6131.39
7948.52
9599.59
11069.2
12348.7
13434.1
14317.5
14987.9
15442.7
15619.1
15460.8
14927.3
13983.6
12603.5
10770.9
8500.83
5849.06
2916.8
-433.697
-3781.85
-7046.05
-10083.8
-12755.9
-14907.7
-16379.5
-17059.1
-17175.6
-16785.3
-15968.7
-14823.8
-13450.8
-11938.4
-10350.7
-8736.8
-7134.56
-5573.18
-4076.29
-2666.03
-1413.42
-148.507
1134.62
2361.18
3580.36
4839.13
6178.58
7623.04
9170.33
10787.8
12417.2
13984.4
15406.7
16603.5
17489
17986.1
18023.3
17424
16409.9
14845.3
12741.7
10140.3
7126.95
3824.22
359.397
-3148.5
-6561
-9764.89
-12663
-15176.6
-17255.9
-18922.3
-20219.1
-21179.1
-21826.2
-22132.2
-22087.1
-21679.2
-20857.1
-19574.2
-17792.6
-15501
-12746.7
-9684.36
-6535.96
-3410.67
-470.281
1728.27
4128.86
6212.97
7961.22
9394.06
10527.3
11382.4
11998.8
12433
12739
12958
13113.2
13226.2
13305.4
13350.8
13358.8
13319.1
13220.9
13050.3
12794.1
12425
11918.1
11244.3
10372
9273.74
7927.31
6315.44
4439.6
2330.52
22.9876
-2459.83
-4907.78
-7245.39
-9308.15
-11011
-12286
-13089.2
-13447.6
-13568.4
-13524.4
-13443.6
-13404.2
-13485.3
-13700.7
-14042
-14446.9
-14793.7
-14962.9
-14864.2
-14375.8
-13408
-12000
-10236.9
-8238.39
-6088.37
-3915.69
-1802.93
184.219
2023.57
3766.57
5397.84
6951.98
8442.48
9887.99
11303.7
12685.9
14017
15261.4
16395.9
17339.9
-10698.5
-9365.3
-7918.19
-6284.59
-4488.83
-2636.22
-420.762
1777.54
3919.12
5953.82
7843.54
9564.11
11099.1
12441.4
13589.1
14536.4
15273.2
15797.4
16043.1
15950
15472.6
14569.9
13209.8
11369.2
9056.89
6326.84
3290.68
-211.311
-3730.41
-7178.17
-10396.3
-13239.3
-15534.6
-17036.5
-17700.1
-17783
-17332
-16442.4
-15220.7
-13778.4
-12209.7
-10574.9
-8921.55
-7286.77
-5698.98
-4181.68
-2757.41
-1508.81
-229.814
1039.18
2243.87
3435.48
4668.19
5990.94
7435.92
9006.28
10670.9
12369.6
14025.4
15549.6
16854.5
17844.3
18426.8
18515.7
17967.7
16945.3
15354.9
13193.7
10507.4
7387.11
3963.12
364.58
-3273.14
-6805.08
-10113.1
-13091.2
-15644.7
-17720.2
-19362.2
-20636.7
-21586.9
-22245.5
-22589
-22596.8
-22234.2
-21450.1
-20196.4
-18413.3
-16073.5
-13220.5
-10031.7
-6763.45
-3525.82
-508.264
1808.91
4265.45
6408.46
8186.22
9630.81
10755.1
11581.3
12162.2
12562.8
12844.1
13037.6
13176.3
13281.5
13358.8
13409.4
13429.8
13399.4
13319.8
13167.5
12932.9
12588.4
12106.9
11457.2
10603.9
9516.85
8169.53
6539.52
4625.73
2458.06
77.3302
-2510.09
-5072.12
-7531.53
-9686.7
-11437
-12725.7
-13460.8
-13748.9
-13765.1
-13607.9
-13437.7
-13338.4
-13401.2
-13637.7
-14038.5
-14539.4
-14997.1
-15278.4
-15243.7
-14826.1
-13850.2
-12401.6
-10566.9
-8485.24
-6247.08
-3999.67
-1828.12
192.796
2057.41
3804.29
5430.11
6970.8
8451.55
9894.1
11317.6
12720.5
14084.7
15372.3
16557.7
17554
-11025.2
-9777.53
-8399.34
-6791.66
-4965.08
-3131.79
-840.436
1437.59
3662.35
5780.6
7751.68
9549.17
11154.9
12563.5
13775.7
14787.8
15591.1
16185.8
16502.7
16477.7
16059.8
15201.6
13864.3
12017
9659.77
6843.77
3687.33
20.9289
-3692.36
-7351.26
-10775.2
-13816.8
-16278.7
-17800.3
-18467
-18490.5
-17961.3
-16979.2
-15661.8
-14135.4
-12500.7
-10810.5
-9111
-7438.35
-5819.99
-4279.09
-2837.75
-1591.14
-300.582
952.835
2132.51
3290.99
4491.34
5791.39
7232.73
8825.2
10538.8
12312.2
14065.1
15703.3
17130.6
18240.3
18924
19083.5
18575.2
17541.1
15920.4
13692.9
10908.9
7665.73
4102.22
349.979
-3438.54
-7107.81
-10536.8
-13607.8
-16202.4
-18262.4
-19865.7
-21107.5
-22040.3
-22707.6
-23092.6
-23181.4
-22876.3
-22136
-20916
-19129.6
-16731
-13760.9
-10427.8
-7020.63
-3650.99
-537.84
1907.29
4436.18
6641.3
8453.31
9909.48
11018.8
11809.3
12348.8
12718.6
12962.1
13127.1
13246.8
13341.4
13417.2
13473.3
13501.5
13487.8
13425.6
13299.7
13084
12767.8
12315.3
11693.7
10862.2
9788.92
8442.82
6795.24
4837.42
2601.46
136.497
-2569.15
-5263.82
-7863.74
-10137.9
-11945.6
-13256.9
-13895.2
-14098.2
-13977
-13696.4
-13419.7
-13249.6
-13289.1
-13550
-14020.6
-14634.9
-15228.2
-15637.3
-15687
-15360.5
-14368.3
-12869.2
-10947.2
-8766.21
-6423.56
-4089.51
-1848.67
210.325
2103.35
3852.39
5471.55
6994.23
8460.35
9897.6
11328.3
12754
14155.8
15492.9
16736.9
17794.2
-11350.1
-10218.1
-8926.34
-7349.05
-5484.84
-3665.88
-1288.98
1078.06
3396.26
5608.59
7671.19
9554.27
11237.1
12715.9
13994.7
15072.8
15942.9
16607.2
16996.9
17043.3
16688.8
15879.4
14569
12717.8
10314.8
7407.31
4112.94
270.355
-3663.07
-7565
-11221.7
-14494.6
-17147.2
-18701.7
-19353.3
-19308
-18680.3
-17581.9
-16147
-14520.9
-12811.3
-11057.4
-9304.98
-7589.21
-5936.34
-4368.87
-2907.29
-1659.16
-359.847
877.017
2028.03
3147.01
4307.99
5578.07
7010.26
8622.97
10386.8
12239.4
14098
15862.8
17427.6
18674.2
19478.1
19729.2
19276.7
18191
16541.9
14240.5
11346.1
7964.32
4243.03
314.694
-3647.73
-7473.03
-11041.4
-14218
-16853.7
-18883.2
-20431.2
-21628.6
-22534.5
-23210.3
-23658
-23822.3
-23607.9
-22926.6
-21746.1
-19953
-17483
-14375.7
-10882.5
-7315.3
-3790.1
-559.954
2024.16
4640.01
6910.41
8763.48
10231.3
11318.5
12065.2
12571.8
12891.5
13092.5
13227.2
13323.2
13405
13479.6
13541.3
13578.5
13584.2
13539.7
13440.4
13253.9
12961.6
12543.3
11954.5
11147.9
10090.9
8747.75
7082.99
5079.46
2764.61
202.641
-2635.5
-5483.81
-8246.34
-10670.1
-12547.7
-13868.4
-14421.6
-14504.9
-14217.4
-13787.1
-13384.6
-13131.6
-13142
-13431.3
-13984
-14729.7
-15488.4
-16052.2
-16217.3
-15983.2
-14971.4
-13410
-11382.1
-9083.26
-6618.11
-4183.99
-1861.69
239.08
2162.67
3913.92
5523.8
7023.12
8468.19
9896.8
11333.7
12783.9
14227.6
15621.1
16932.1
18059.7
-11672.6
-10692.5
-9507.81
-7966.51
-6067.22
-4233.6
-1770.15
693.987
3116.41
5434.64
7600.64
9579.5
11346.9
12900.4
14247.8
15392.5
16330.7
17059.9
17523.9
17645.3
17358.6
16602.9
15324.7
13474.5
11026.8
8024.43
4575.4
545.398
-3637.46
-7820.42
-11737
-15281.4
-18159.1
-19753.2
-20378.2
-20251.5
-19497.8
-18252.6
-16675.3
-14932.8
-13141
-11315
-9502.78
-7738.84
-6047.75
-4451.23
-2966.47
-1711.54
-405.012
813.834
1930.89
3004.19
4117.91
5348.94
6764.99
8395.06
10209.3
12145.1
14117.7
16022
17740.2
19141.4
20085.2
20447
20066.4
18891.1
17218.3
14837.3
11820
8283.86
4386.83
257.09
-3905.15
-7905.69
-11633.9
-14926.4
-17601.6
-19581
-21056.4
-22196.8
-23063.6
-23749.9
-24274.4
-24512.3
-24441.7
-23836
-22703.4
-20896.3
-18340.4
-15073.2
-11405.5
-7652.37
-3947.08
-575.698
2159.61
4879.66
7212.78
9117.95
10598.2
11650.8
12370.2
12816.8
13079.3
13238.3
13336.9
13408.5
13470.9
13545.2
13612.8
13662.1
13686.9
13662.2
13587.5
13436.9
13179.5
12789.5
12240.4
11461.8
10423.8
9085.96
7404.55
5352.95
2952.82
278.545
-2707.08
-5732.96
-8685.36
-11293
-13262.5
-14568.2
-15055.1
-14974.9
-14492.4
-13878.8
-13327.5
-12979
-12951.7
-13273.8
-13924.1
-14819.1
-15772.6
-16524.6
-16945.2
-16692
-15672.6
-14032.5
-11876.7
-9438.64
-6831.21
-4281.61
-1863.3
279.625
2239.25
3993.44
5586.58
7057.89
8474.16
9889.18
11330.9
12807.3
14297.6
15754.6
17141.5
18349.7
-11996
-11207.2
-10153.7
-8653.43
-6752.43
-4809.93
-2288.41
279.581
2817.73
5255.26
7538.87
9625.49
11486.3
13119.6
14537.7
15748.5
16756.9
17540.7
18082
18282.4
18067.3
17370.7
16131.1
14289.2
11799.5
8700.41
5086.58
856.266
-3609.44
-8120.6
-12321.5
-16188.5
-19347.8
-20982.2
-21567.1
-21345.3
-20424.3
-18992.4
-17244.2
-15368
-13489.6
-11582.1
-9703.18
-7886.22
-6153.62
-4526.34
-3015.89
-1745.98
-433.208
764.724
1842.14
2863.83
3921.51
5101.42
6493.31
8136.91
10000.4
12022.3
14116.5
16173.2
18061.3
19636.2
20739.5
21231.3
20947.8
19629.2
17949.6
15483.6
12330.7
8624.84
4535.51
175.296
-4217.08
-8411.66
-12323.7
-15734.1
-18451.5
-20356.6
-21737.7
-22809.1
-23617.9
-24313.5
-24914.9
-25299.4
-25365.4
-24883.5
-23809.5
-21972
-19315.1
-15863.3
-12001.1
-8035.03
-4126.32
-586.965
2314.79
5143.22
7561.56
9515.17
11011.9
12044
12703.4
13078.2
13290.4
13398.8
13455
13496.6
13536.5
13613.1
13687
13749.8
13791.9
13792.2
13745.1
13626.5
13415
13068.3
12553.5
11803.5
10789.5
9458.73
7762.08
5659.81
3169.04
366.642
-2782.04
-6012.63
-9187.47
-12019.7
-14120.3
-15382.8
-15790.1
-15516.4
-14798.6
-13967
-13240.8
-12784.5
-12707.4
-13069
-13831.4
-14895.8
-16085.4
-17069.7
-17645.3
-17506.8
-16487.5
-14746.8
-12436.4
-9834.33
-7063.95
-4380.61
-1847.4
332.689
2337.53
4093.58
5660.1
7099.02
8477.97
9871.64
11316.3
12820.5
14362.1
15890.7
17363.4
18663.7
-12330.4
-11770.7
-10877.9
-9418.46
-7497.22
-5461.85
-2857.8
-176.347
2490.7
5063.66
7482.27
9691.85
11657.6
13376.9
14867.8
16142
17219.9
18041.2
18670.9
18953.5
18811.8
18178.3
16983.2
15158.6
12630
9437.78
5650.91
1207.23
-3578.7
-8478.31
-12976.5
-17230.4
-20686.8
-22511.8
-22959.4
-22625.4
-21471.3
-19799.6
-17850.3
-15822.7
-13858.5
-11858.6
-9905.76
-8031.25
-6254.26
-4595.68
-3053.03
-1765.66
-442.219
730.607
1764.21
2728.2
3721.23
4839.59
6194.46
7843.35
9752.28
11861.8
14084.1
16306
18380.7
20149.4
21432.7
22041.4
21861.5
20480.8
18735.1
16175.8
12873.4
8981.91
4686.85
56.1947
-4589.87
-9001.14
-13126.6
-16636.9
-19427.6
-21220.8
-22474
-23462.7
-24183.3
-24882.2
-25576.4
-26166.3
-26387.7
-26104.1
-25086.2
-23191.8
-20421.7
-16759.1
-12674.4
-8466.35
-4331.11
-597.291
2482.21
5431.57
7958.44
9982.49
11477.5
12467.1
13054.6
13377.8
13525.5
13575
13581.6
13588.9
13618.6
13681.7
13761.9
13839.8
13900.8
13928.8
13911.6
13828.5
13660.1
13370.7
12899.4
12196.6
11182.6
9867.5
8157.54
6003.7
3420.4
474.761
-2852.52
-6320.23
-9761.48
-12858.7
-15090.1
-16366
-16653.1
-16117.2
-15141.4
-14052.4
-13120.5
-12534.7
-12407.7
-12806.4
-13692.7
-14956.1
-16414.3
-17662.7
-18451.8
-18443.9
-17434.4
-15566.1
-13070.8
-10274.7
-7318.23
-4479.22
-1803.92
396.202
2463.02
4215.75
5749.78
7148.81
8480.92
9843
11286.9
12820.2
14417.9
16026.1
17594.8
18999.7
-12568.1
-12194.5
-11435.1
-9998.43
-8056.46
-5952.32
-3283.05
-516.384
2248.09
4924.45
7446.65
9750.17
11794.4
13575.6
15117.2
16432
17546.8
18388.4
19101.6
19447
19339.5
18748.5
17581.5
15768.3
13202.1
9949.06
6031.78
1425.95
-3600.18
-8810.8
-13489.4
-18050.1
-21704.5
-23904.9
-24031.5
-23629.7
-22255
-20378.9
-18278.4
-16136.6
-14122.3
-12050.5
-10043.6
-8127.73
-6319.13
-4641.02
-3079.72
-1759.61
-436.522
715.996
1715.62
2633.82
3575.36
4644.57
5959.75
7613.87
9552.59
11723.9
14038.8
16382.9
18596.6
20511.7
21933.2
22649.1
22508.2
21146.2
19287.3
16640
13213.3
9176.23
4729.81
-102.525
-4923.83
-9494.42
-13774.2
-17319
-20203.4
-21869.8
-23009.6
-23923.2
-24554.9
-25254.8
-26034.9
-26742
-27232.8
-27092.7
-26142.8
-24120.5
-21271.8
-17447.4
-13181.3
-8787.1
-4486.5
-604.417
2605.79
5646.9
8251.86
10334.5
11817.2
12772.5
13323.9
13598.4
13696
13699
13668.6
13650.1
13666.3
13727.4
13813.6
13903.6
13980.3
14027.3
14030
13973.5
13836.7
13583.2
13152
12486.8
11499.9
10158.1
8443.42
6247.62
3599.32
542.794
-2921.51
-6570.33
-10212.6
-13519.1
-15862.9
-17189.4
-17330.5
-16588
-15393.6
-14098.1
-13003.5
-12317.4
-12161
-12581.3
-13563.7
-14979.3
-16655.7
-18155.6
-19127.3
-19214.3
-18182.5
-16200.6
-13551.9
-10599
-7500.85
-4545.6
-1783.54
479.223
2569.49
4315.78
5824.25
7184.63
8479.25
9813.52
11251.1
12806.1
14445.7
16114.1
17756.1
19241.6
-12692.6
-12422.4
-11735.4
-10310.6
-8354.55
-6213.5
-3508.23
-695.548
2121.33
4853.28
7431.15
9785.03
11871
13684.6
15252.8
16588.2
17717.7
18582.4
19326.7
19703.8
19634.1
19050.4
17901.1
16097
13512.1
10231.3
6246.48
1553.11
-3604.19
-8993.11
-13761.7
-18500.2
-22264.4
-24695.6
-24499.7
-24145.7
-22676.5
-20686.1
-18504.4
-16299.8
-14261.9
-12149.8
-10113.9
-8176.04
-6350.75
-4663.12
-3091.23
-1752.96
-430.312
710.966
1691.61
2584.54
3498.37
4539.29
5833.38
7488.62
9442.78
11647
14011.4
16421.3
18709.8
20703.9
22200.3
22974.8
22860.4
21509.3
19582.3
16890.5
13398.9
9285.18
4759.19
-183.672
-5101.65
-9762.04
-14129.3
-17691.5
-20642.3
-22216.5
-23294.6
-24156.1
-24738.9
-25445.8
-26280.6
-27089.1
-27370.9
-26871.9
-26121.9
-24621.6
-21733.2
-17824.5
-13458
-8962.76
-4572.36
-607.259
2674.45
5765.14
8411.89
10521.6
12003
12940.3
13469.2
13716.8
13787
13764.6
13714.1
13681.6
13690.8
13751.1
13840.7
13937.3
14022.4
14080.5
14092.9
14050.6
13930.8
13697
13287.4
12639.7
11670.2
10324.8
8594.65
6385.36
3695.99
583.801
-2955.07
-6703.94
-10459.2
-13883.4
-16282.3
-17633.9
-17705.3
-16844.4
-15529.2
-14119.1
-12934.5
-12194.7
-12019.9
-12453.9
-13488.3
-14989.5
-16784.8
-18403.1
-19479
-19615.9
-18595.8
-16548.3
-13814.4
-10774.2
-7599.48
-4580.05
-1770.88
527.664
2629.87
4372.23
5865.84
7203.73
8477.42
9796.05
11229.3
12795.9
14458
16159.2
17841.1
19370.7
-12815.8
-12656.5
-12043.6
-10630.8
-8658.53
-6480.03
-3736.99
-877.018
1993.85
4783.22
7418.74
9824.81
11953.7
13800
15394.6
16756.7
17883.5
18789.3
19549.7
19954.6
19934.2
19375.5
18225.1
16436.8
13844.2
10531.8
6485.75
1703.38
-3591
-9178.63
-14038
-18526.3
-8318.2
1898.47
-805.579
-13668.4
-22888.3
-20996.7
-18734.2
-16462
-14403.7
-12247.9
-10182
-8221.97
-6379.82
-4683.54
-3099.61
-1742.8
-420.417
709.283
1670.1
2537.17
3423.01
4432.48
5704.87
7357.99
9327.01
11564.3
13978.8
16456.1
18821.2
20896.8
22471
23307.2
23226
21892.1
19886.1
17154.5
13600.8
9411.64
4806.51
-253.202
-5283.85
-10024.8
-14499.9
-18083.7
-21083.9
-22595.1
-23575.6
-22909.6
-19790
-15556.9
-10141.5
-4541.47
-821.551
-1286.47
-8295.47
-20054.2
-22205.5
-18220.2
-13748
-9148.12
-4664.08
-609.883
2747.33
5889.08
8579.23
10714.3
12195.9
13115.2
13620.6
13839.5
13880.8
13831.8
13760
13712.9
13714.9
13774.3
13867.9
13971.3
14064.8
14136.2
14156.4
14129.1
14026.6
13813
13425.9
12797
11839.6
10502.9
8757.15
6534.12
3800.79
634.089
-2980.65
-6836.07
-10715.3
-14260.1
-16745.8
-18142.5
-18104.9
-17112.7
-15669.9
-14138.3
-12859.2
-12064.4
-11871.9
-12314.8
-13404.4
-14996.2
-16912.3
-18698.4
-19881.4
-20097.8
-19032.1
-16914
-14089
-10956.1
-7702.3
-4613.95
-1755.79
581.444
2695.42
4433.31
5910.38
7223.82
8475.04
9776.75
11204.5
12782.7
14468.1
16203.2
17926.7
19502.3
-12935.3
-12899.2
-12365.7
-10962.6
-8972.89
-6756.96
-3974.51
-1065.77
1861.24
4710.72
7406.85
9867.97
12041.7
13921.5
15542.9
16934
18051.2
18997.6
19776.4
20208.9
20223.4
19709.9
18574
16773
14191.3
10840.6
6734.73
1862.91
-3573.44
-9387.34
-14328.5
-4424.6
3666.33
2879.19
2054.73
1308.68
-7698.4
-20767.8
-18969.8
-16625.5
-14549.4
-12346
-10249.5
-8266.85
-6407.58
-4703.66
-3105.59
-1730.26
-407.53
710.279
1650.66
2491.12
3347.84
4323.24
5570.67
7221.14
9203.76
11474
13939.1
16485.4
18929.1
21088.8
22744.6
23646.5
23603.9
22294.6
20191.4
17422.5
13805.3
9538.78
4854.43
-330.407
-5483.79
-10288.7
-14884.4
-18465.8
-14972.6
-5911.37
-1048.85
629.981
557.25
457.649
306.124
151.387
-14.5621
-222.066
-379.995
-1946.74
-16843
-18635.3
-14051.7
-9341.17
-4761.04
-613.674
2822.57
6016.69
8751.93
10913
12394.9
13297
13777.5
13966.4
13977.9
13900.5
13806.2
13743.8
13738.3
13797.1
13895.2
14005.6
14107.4
14187.3
14220.6
14208.6
14124
13931
13567.4
12958.8
12015
10681.2
8933.48
6684.2
3912.05
687.075
-3005.26
-6972.62
-10979.9
-14672.5
-17191
-18587.1
-18506.6
-17397.2
-15815.4
-14155.9
-12775.4
-11924.2
-11705.5
-12167
-13310.2
-14998.6
-17055.8
-18941.9
-20212.4
-20206.6
-19495.3
-17302.9
-14375.5
-11143.3
-7808.37
-4647.14
-1738.18
640.366
2766.11
4498.92
5957.15
7245.42
8471.85
9755.27
11176
12766
14475.6
16245.7
18012.5
19636.1
-13048.9
-13151.2
-12702.4
-11306.3
-9297.82
-7044.82
-4221.33
-1262.35
1723.07
4635.52
7395.4
9914.64
12135.4
14049.5
15706.2
17101.8
18229.6
19208.1
20006.9
20467
20514.9
20032.6
18936.9
17126
14541.7
11162.2
6994.46
2032.48
-3553.02
-9604.1
-7290.95
4731.51
3692.48
2863.01
2047.5
1309.24
572.93
-7058.35
-18833.5
-16792.5
-14702.1
-12443.7
-10316.1
-8310.54
-6433.9
-4723.64
-3108.75
-1715.54
-391.564
713.985
1633.61
2446.22
3272.79
4211.53
5430.82
7077.66
9072.53
11375.7
13891.7
16508.5
19032.6
21279.4
23020.4
23992.2
23992.6
22716
20497.4
17693.4
14011.5
9665.69
4902.89
-416.193
-5688.18
-10568
-15220.3
-6971.46
1423.47
1450.4
1250.83
1008.7
750.842
540.525
328.686
157.09
-10.7742
-213.32
-376.704
-524.118
-2557.14
-16777.7
-14359.5
-9542.42
-4863.83
-619.073
2900.25
6147.9
8930.1
11117.9
12600
13485.5
13940.3
14097.6
14077.1
13970.5
13852.7
13774.2
13761.3
13819.5
13922.6
14039.9
14150.1
14238.7
14285.5
14289.2
14222.8
14051.4
13711.6
13124.7
12196.2
10864.9
9114.36
6839.87
4029.29
743.113
-3028.61
-7112.07
-11262.8
-15047.5
-17629.7
-18894.3
-18901
-17603.6
-15976.5
-14166.7
-12685.8
-11777.2
-11541.2
-12002.7
-13208.5
-14994.3
-17126
-17819.7
-12832.3
-10773.3
-14633.2
-17082.4
-14678.7
-11336.8
-7918.15
-4679.65
-1717.91
704.606
2842.22
4569.16
6006.43
7268.76
8467.37
9731.09
11143.8
12745.5
14480.1
16286.6
18098.4
19772
-13154
-13412.9
-13055
-11662
-9633.5
-7344.16
-4478.03
-1467.38
1578.83
4557.3
7384.25
9964.96
12235.1
14184.4
15884.7
17264.2
18414.2
19420.7
20241
20728.4
20808.3
20359.6
19290.5
17499.7
14898.3
11496.9
7266.24
2212.35
-3527.09
-9297.38
3804.09
4777.57
3679.63
2846.32
2040.76
1307.64
586.707
-136.784
-7766.03
-16740.7
-14864.3
-12544.2
-10381.6
-8352.92
-6458.64
-4743.69
-3108.74
-1698.83
-372.436
720.416
1619.21
2402.58
3198.1
4097.36
5285.23
6927.17
8932.78
11268.7
13835.8
16524.7
19130.9
21467.5
23297.6
24344.1
24390.7
23154.5
20805.4
17966.8
14219.3
9792.24
4952.92
-508.566
-5897.03
-10884.9
-6849.46
1965.71
1800.39
1485.89
1243.95
996.873
745.824
537.429
328.568
155.894
-11.6551
-208.981
-369.854
-508.005
-750.696
-5862.18
-14589.5
-9754.87
-4973.04
-626.575
2980.36
6282.5
9113.55
11329.3
12811.4
13680.8
14108.9
14233.2
14178.8
14041.8
13899.3
13803.9
13783.5
13841.4
13950
14074.3
14192.9
14290.7
14351.2
14370.6
14322.9
14173.8
13858.4
13294.7
12383.1
11054.6
9298.4
7003.61
4152.27
802.843
-3048.92
-7264.64
-11554.8
-14727.9
-8264.33
-2228.9
-3347.68
-10697.4
-15436.2
-14187.8
-12581.7
-11614.9
-11340.3
-11831.8
-13093.7
-14823.1
-13506.6
-3767.54
-492.153
-463.569
-2047.11
-9285.39
-14446.3
-11537.4
-8032.53
-4711.34
-1694.78
774.386
2924.01
4644.21
6058.92
7293.28
8461.4
9704.35
11107.6
12720.7
14481.3
16325.4
18184.2
19910
-13247.3
-13685.4
-13424.7
-12029.9
-9979.69
-7655.06
-4744.71
-1681.07
1428.43
4476.08
7373.49
10019.3
12341.1
14325.9
16068
17435
18602.7
19635.7
20478.5
20992.5
21103.9
20690.7
19649.9
17878.1
15265.9
11845.5
7552.14
2402.92
-3473.07
-2203.01
5705.34
4722.57
3663.07
2829.39
2033.05
1304.8
592.165
-106.715
-753.53
-8168.1
-14821.7
-12646.9
-10449.6
-8393.67
-6481.52
-4763.98
-3105.12
-1680.25
-349.993
729.658
1607.74
2360.22
3124.08
3980.81
5133.64
6769.39
8784.04
11152.7
13770.8
16533.4
19223.1
21652.3
23575.5
24701.4
24796.9
23610.7
21114.8
18242.8
14428.9
9918.82
5006.53
-606.796
-6102.78
-8048.59
2050.85
2087.15
1779.48
1472.99
1233.12
990.582
743.922
536.525
330.367
157.22
-10.7517
-203.404
-364.388
-508.387
-687.593
-1074.05
-10759.5
-9967.46
-5089.65
-636.652
3063.2
6420.51
9302.26
11547.4
13029.6
13883.1
14283.5
14373.3
14283.3
14114.4
13945.9
13832.8
13805
13862.7
13977.1
14108.6
14235.8
14343.3
14417.2
14452.8
14424.1
14298.1
14007.7
13468.6
12575.2
11250.7
9488.32
7173.2
4281.34
866.98
-3069.75
-7424.56
-11523.3
-5609.14
-134.5
197.163
160.97
-333.199
-5368.9
-12730.1
-12486.9
-11458.5
-11164.2
-11641.7
-12722.1
-10643.5
-1934.09
24.4217
15.8229
-7.30015
-70.7162
-928.288
-8156.39
-11695.7
-8151.88
-4741.58
-1668.66
850.074
3011.84
4724.44
6114.83
7318.91
8453.93
9674.95
11067.4
12691.3
14478.9
16361.9
18269.6
20049.9
-12906.5
-13979.3
-13829.6
-12423.7
-10349.2
-7989.6
-5031.93
-1912.14
1265.66
4388.38
7362.55
10079.8
12457.9
14490.4
16251
17621.3
18802
19861.1
20727.4
21267.9
21412.5
21037.1
20027.6
18276.5
15656.5
12221.3
7863.28
2617.42
-2990.91
5628.27
5608.82
4665.11
3642.38
2811.4
2024.54
1302.13
598.779
-88.9641
-704.129
-1307.41
-7644.88
-12496.3
-10522.9
-8438.54
-6503.05
-4785.59
-3097.28
-1659.27
-323.238
742.187
1599.22
2317.48
3048.5
3857.75
4970.24
6598.12
8620.07
11022.4
13693.2
16533.5
19311.2
21838.9
23862.8
25076.3
25225
24103.9
21434.5