/*--------------------------------*- C++ -*----------------------------------*\
| =========                 |                                                 |
| \\      /  F ield         | OpenFOAM: The Open Source CFD Toolbox           |
|  \\    /   O peration     | Version:  v1912                                 |
|   \\  /    A nd           | Website:  www.openfoam.com                      |
|    \\/     M anipulation  |                                                 |
\*---------------------------------------------------------------------------*/
FoamFile
{
    version     2.0;
    format      ascii;
    class       volVectorField;
    location    "20";
    object      U;
}
// * * * * * * * * * * * * * * * * * * * * * * * * * * * * * * * * * * * * * //

dimensions      [0 1 -1 0 0 0 0];


internalField   nonuniform List<vector> 
114144
(
(-1.12767 -0.064958 0)
(-1.19875 -0.0549844 0)
(-1.36044 -0.0458337 0)
(-1.50924 -0.0387854 0)
(-1.64294 -0.0333226 0)
(-1.76199 -0.0285304 0)
(-1.86588 -0.0241658 0)
(-1.95358 -0.019953 0)
(-2.02346 -0.0156072 0)
(-2.07329 -0.0108582 0)
(-2.10016 -0.00547834 0)
(-2.10087 0.000785684 0)
(-2.07186 0.0076781 0)
(-2.00978 0.0150945 0)
(-1.9121 0.0227859 0)
(-1.77758 0.0303883 0)
(-1.60661 0.0374802 0)
(-1.40134 0.0436455 0)
(-1.16569 0.0485357 0)
(-0.905027 0.0519213 0)
(-0.625701 0.05372 0)
(-0.333633 0.0539725 0)
(-0.0394493 0.0514056 0)
(0.253354 0.0503527 0)
(0.541979 0.0472364 0)
(0.818058 0.0436537 0)
(1.07944 0.0398377 0)
(1.32347 0.0359414 0)
(1.54785 0.0320052 0)
(1.75032 0.0279799 0)
(1.92833 0.0237607 0)
(2.07894 0.0192338 0)
(2.19888 0.0143225 0)
(2.28477 0.00902374 0)
(2.33351 0.00342564 0)
(2.34278 -0.00229264 0)
(2.31158 -0.00782164 0)
(2.24033 -0.0129274 0)
(2.13117 -0.0173336 0)
(1.98789 -0.0208198 0)
(1.81565 -0.023257 0)
(1.62052 -0.0246365 0)
(1.40887 -0.0250992 0)
(1.18686 -0.0249977 0)
(0.959367 -0.0251903 0)
(0.729169 -0.025164 0)
(0.50093 -0.0223042 0)
(0.278366 -0.0208672 0)
(0.0742387 -0.0202984 0)
(-0.133994 -0.0218192 0)
(-0.349387 -0.0209395 0)
(-0.548413 -0.0203291 0)
(-0.740715 -0.0195498 0)
(-0.923611 -0.0185521 0)
(-1.0951 -0.017248 0)
(-1.25262 -0.0156011 0)
(-1.39351 -0.0136238 0)
(-1.51534 -0.0113729 0)
(-1.61611 -0.00893489 0)
(-1.69443 -0.00640691 0)
(-1.74953 -0.00387659 0)
(-1.78123 -0.00140491 0)
(-1.78972 0.0010793 0)
(-1.77536 0.00318262 0)
(-1.73873 0.0053385 0)
(-1.68029 0.00743771 0)
(-1.60062 0.00949306 0)
(-1.5004 0.0114945 0)
(-1.38065 0.0134014 0)
(-1.24287 0.0151438 0)
(-1.08929 0.0166364 0)
(-0.922877 0.017814 0)
(-0.747029 0.018713 0)
(-0.56412 0.0190994 0)
(-0.381272 0.0163705 0)
(-0.20643 0.0153077 0)
(-0.0544112 0.0133255 0)
(0.0956605 0.0135086 0)
(0.243031 0.0111325 0)
(0.364191 0.00924457 0)
(0.470919 0.00740058 0)
(0.562233 0.00586676 0)
(0.640789 0.00468115 0)
(0.709005 0.00386847 0)
(0.769484 0.00339731 0)
(0.824516 0.00319693 0)
(0.875831 0.00316868 0)
(0.924426 0.00320404 0)
(0.970523 0.00320379 0)
(1.01364 0.00309357 0)
(1.05278 0.00283223 0)
(1.08659 0.00241146 0)
(1.11364 0.00184912 0)
(1.13254 0.00117965 0)
(1.14213 0.000443858 0)
(1.14142 -0.00031905 0)
(1.12983 -0.00107765 0)
(1.10688 -0.0018145 0)
(1.07222 -0.0025217 0)
(1.02565 -0.00320099 0)
(0.966987 -0.00385853 0)
(0.896132 -0.00449918 0)
(0.813055 -0.00512241 0)
(0.717869 -0.00571984 0)
(0.610936 -0.00627337 0)
(0.492854 -0.00676353 0)
(0.36495 -0.00714234 0)
(0.226961 -0.00748877 0)
(0.0868954 -0.00751742 0)
(-0.0582009 -0.00742102 0)
(-0.208386 -0.00720678 0)
(-0.353843 -0.00679438 0)
(-0.494999 -0.00617183 0)
(-0.626767 -0.00540009 0)
(-0.746404 -0.00447926 0)
(-0.850338 -0.00344722 0)
(-0.935652 -0.00233458 0)
(-0.999719 -0.00117665 0)
(-1.04061 -2.13704e-05 0)
(-1.05711 0.00114837 0)
(-1.04895 0.00210073 0)
(-1.01669 0.00295968 0)
(-0.961898 0.0036264 0)
(-0.887474 0.00408497 0)
(-0.797084 0.00432496 0)
(-0.695443 0.00447747 0)
(-0.584499 0.00431815 0)
(-0.472612 0.00265584 0)
(-0.369601 0.00199043 0)
(-0.277262 0.00110212 0)
(-0.198492 0.000261979 0)
(-0.135361 -0.000516757 0)
(-0.0886304 -0.00116407 0)
(-0.0576929 -0.00164477 0)
(-0.0407092 -0.00193421 0)
(-0.0350174 -0.00206713 0)
(-0.0368198 -0.00200096 0)
(-0.0424783 -0.00172544 0)
(-0.0495669 -0.00156898 0)
(-0.0545601 -0.000658493 0)
(-0.0536856 -0.00040069 0)
(-0.0456054 -0.0001275 0)
(-0.0296314 3.21909e-05 0)
(-0.00673639 -6.78467e-06 0)
(0.0218997 -8.17569e-05 0)
(0.0550358 -0.000240202 0)
(0.0899708 -0.000492773 0)
(0.12496 -0.000744213 0)
(0.158267 -0.000959664 0)
(0.188763 -0.00111747 0)
(0.215719 -0.00120202 0)
(0.238898 -0.00121395 0)
(0.258379 -0.00116426 0)
(0.274432 -0.0010716 0)
(0.287372 -0.000956249 0)
(0.297445 -0.000835269 0)
(0.304799 -0.000720915 0)
(0.309505 -0.000617482 0)
(0.311544 -0.000538375 0)
(0.311125 -0.000456624 0)
(0.308594 -0.000334773 0)
(0.304435 -0.000202899 0)
(0.299315 -0.000159154 0)
(0.294132 0.00011016 0)
(0.290505 0.000189416 0)
(0.289403 0.000270397 0)
(0.291326 0.000298548 0)
(0.296688 2.95396e-05 0)
(0.305023 -0.000370123 0)
(0.315707 -0.000840604 0)
(0.327477 -0.00131738 0)
(0.338646 -0.00170337 0)
(0.347257 -0.00187859 0)
(0.351237 -0.00174999 0)
(0.348877 -0.0013392 0)
(0.338582 -0.000443861 0)
(0.319182 0.000850037 0)
(0.290148 0.00245842 0)
(0.251315 0.004274 0)
(0.203206 0.00620771 0)
(0.147055 0.00808677 0)
(0.0840642 0.00978814 0)
(0.014954 0.011251 0)
(-0.0590884 0.0124188 0)
(-0.136405 0.0132755 0)
(-0.215479 0.0138047 0)
(-0.294625 0.0139712 0)
(-0.372047 0.013745 0)
(-0.445855 0.0131212 0)
(-0.514164 0.0121004 0)
(-0.57518 0.0107233 0)
(-0.627472 0.00903884 0)
(-0.669816 0.0071172 0)
(-0.701209 0.0050399 0)
(-0.721114 0.00290306 0)
(-0.729741 0.000649307 0)
(-0.726567 -0.00155177 0)
(-0.71197 -0.00371443 0)
(-0.686196 -0.00580992 0)
(-0.649596 -0.00782008 0)
(-0.602663 -0.00971944 0)
(-0.546022 -0.0114852 0)
(-0.480549 -0.0130727 0)
(-0.407224 -0.014451 0)
(-0.327275 -0.0155693 0)
(-0.242201 -0.0163883 0)
(-0.153841 -0.0168683 0)
(-0.0640046 -0.0169682 0)
(0.02589 -0.0166705 0)
(0.112995 -0.0159569 0)
(0.195136 -0.0148422 0)
(0.270178 -0.0133659 0)
(0.336427 -0.0115868 0)
(0.392573 -0.00957936 0)
(0.437658 -0.0074271 0)
(0.471183 -0.00522467 0)
(0.49307 -0.00305384 0)
(0.503699 -0.000995881 0)
(0.503982 0.000874899 0)
(0.495042 0.0025263 0)
(0.477941 0.00392498 0)
(0.454276 0.00502886 0)
(0.425545 0.0058474 0)
(0.393203 0.00639774 0)
(0.358617 0.00670532 0)
(0.322974 0.00680206 0)
(0.287299 0.00672247 0)
(0.252435 0.00650153 0)
(0.219042 0.00617294 0)
(0.187609 0.00576755 0)
(0.158458 0.00531227 0)
(0.131779 0.00483019 0)
(0.107657 0.00434054 0)
(0.086093 0.003859 0)
(0.0670141 0.00339713 0)
(0.0502929 0.00296332 0)
(0.0357665 0.00256302 0)
(0.0232468 0.00219923 0)
(0.0125359 0.00187295 0)
(0.00345112 0.00158345 0)
(-0.00419136 0.0013318 0)
(-0.0105927 0.00111154 0)
(-0.0159279 0.000921577 0)
(-0.0203403 0.000758646 0)
(-0.0239649 0.000618984 0)
(-0.026905 0.000499457 0)
(-0.0292849 0.00039317 0)
(-0.0310837 0.000302467 0)
(-0.0326009 0.000173934 0)
(-0.0330054 9.04978e-05 0)
(-1.08649 0.0437545 0)
(-1.19624 0.0537432 0)
(-1.35956 0.0592354 0)
(-1.51006 0.0611461 0)
(-1.64477 0.0586732 0)
(-1.76434 0.0532423 0)
(-1.86863 0.0460255 0)
(-1.95666 0.0375047 0)
(-2.02687 0.0277683 0)
(-2.07703 0.0167267 0)
(-2.10422 0.00426056 0)
(-2.10527 -0.00916447 0)
(-2.07663 -0.0244338 0)
(-2.01477 -0.0410677 0)
(-1.91712 -0.0585376 0)
(-1.78239 -0.0761835 0)
(-1.61095 -0.0932423 0)
(-1.40494 -0.108918 0)
(-1.16832 -0.122469 0)
(-0.906514 -0.133296 0)
(-0.625956 -0.141013 0)
(-0.3332 -0.145563 0)
(-0.0374439 -0.14943 0)
(0.256881 -0.14575 0)
(0.545858 -0.142038 0)
(0.822637 -0.136242 0)
(1.08459 -0.12876 0)
(1.3291 -0.119825 0)
(1.55395 -0.109543 0)
(1.75688 -0.0978884 0)
(1.9354 -0.0847483 0)
(2.08654 -0.0699902 0)
(2.20699 -0.0535441 0)
(2.29329 -0.0354812 0)
(2.34227 -0.0160714 0)
(2.35153 0.00420914 0)
(2.32 0.024792 0)
(2.24806 0.0448245 0)
(2.13785 0.0634624 0)
(1.99324 0.0799663 0)
(1.81949 0.0937558 0)
(1.62274 0.10448 0)
(1.40947 0.112027 0)
(1.18571 0.116453 0)
(0.956777 0.117794 0)
(0.72677 0.117339 0)
(0.498541 0.118884 0)
(0.274884 0.119426 0)
(0.069626 0.117305 0)
(-0.138481 0.108947 0)
(-0.353127 0.106414 0)
(-0.55245 0.102717 0)
(-0.745057 0.0983752 0)
(-0.928374 0.0929836 0)
(-1.10033 0.0863544 0)
(-1.2583 0.0783926 0)
(-1.39957 0.0691359 0)
(-1.52165 0.0587461 0)
(-1.62252 0.0474779 0)
(-1.70078 0.035631 0)
(-1.75567 0.0234969 0)
(-1.78704 0.0113432 0)
(-1.79524 -0.000606964 0)
(-1.78056 -0.0125725 0)
(-1.7435 -0.0241876 0)
(-1.68468 -0.0355289 0)
(-1.60459 -0.0465408 0)
(-1.50389 -0.0570955 0)
(-1.38352 -0.0669669 0)
(-1.24497 -0.0758282 0)
(-1.09043 -0.0832672 0)
(-0.922843 -0.0888233 0)
(-0.745728 -0.0920086 0)
(-0.562537 -0.0929324 0)
(-0.37867 -0.0953298 0)
(-0.202149 -0.0927545 0)
(-0.0486448 -0.0883971 0)
(0.101899 -0.0765803 0)
(0.248609 -0.0694411 0)
(0.369684 -0.0609528 0)
(0.475882 -0.0531074 0)
(0.566527 -0.0460241 0)
(0.644316 -0.0400979 0)
(0.711783 -0.0354442 0)
(0.771617 -0.0320032 0)
(0.826171 -0.0295519 0)
(0.877206 -0.0277618 0)
(0.92572 -0.0262585 0)
(0.971908 -0.0246782 0)
(1.01525 -0.0227121 0)
(1.05467 -0.0201367 0)
(1.08879 -0.0168278 0)
(1.11612 -0.0127599 0)
(1.13524 -0.00798783 0)
(1.14496 -0.00261876 0)
(1.1443 0.00322618 0)
(1.13269 0.0093903 0)
(1.10967 0.0158245 0)
(1.07491 0.0224377 0)
(1.02821 0.0291895 0)
(0.969401 0.0360489 0)
(0.898369 0.0429771 0)
(0.815068 0.0499085 0)
(0.71959 0.0567358 0)
(0.612274 0.0633039 0)
(0.493706 0.0693982 0)
(0.365166 0.0748093 0)
(0.226479 0.0790884 0)
(0.0856318 0.0825037 0)
(-0.0604208 0.0841815 0)
(-0.21159 0.084173 0)
(-0.358013 0.0822574 0)
(-0.500122 0.0784368 0)
(-0.632789 0.0725571 0)
(-0.753215 0.0646999 0)
(-0.857789 0.0549585 0)
(-0.943549 0.0435355 0)
(-1.00782 0.0307166 0)
(-1.04862 0.0169112 0)
(-1.06478 0.00263266 0)
(-1.05595 -0.0117322 0)
(-1.02263 -0.0254611 0)
(-0.966486 -0.0378917 0)
(-0.890433 -0.0483875 0)
(-0.798176 -0.0563546 0)
(-0.694607 -0.0612224 0)
(-0.582302 -0.0628652 0)
(-0.468765 -0.0636271 0)
(-0.363936 -0.0595801 0)
(-0.270646 -0.0529158 0)
(-0.191374 -0.0442097 0)
(-0.128283 -0.0343059 0)
(-0.0821216 -0.0241105 0)
(-0.0522186 -0.0145076 0)
(-0.0366331 -0.00630029 0)
(-0.0325126 -0.000364234 0)
(-0.035869 0.00363932 0)
(-0.0430037 0.0048447 0)
(-0.0510323 0.00358636 0)
(-0.0567086 0.0013485 0)
(-0.0563257 -0.00272787 0)
(-0.0480579 -0.00745103 0)
(-0.0316005 -0.0121158 0)
(-0.00794021 -0.0163224 0)
(0.0216189 -0.0193739 0)
(0.0556187 -0.0211773 0)
(0.0913023 -0.0217693 0)
(0.126862 -0.0212137 0)
(0.160505 -0.0197603 0)
(0.191111 -0.0177299 0)
(0.217994 -0.0154213 0)
(0.240977 -0.0130832 0)
(0.260212 -0.0108734 0)
(0.276022 -0.00885598 0)
(0.288758 -0.00701509 0)
(0.298672 -0.00528989 0)
(0.305891 -0.00361524 0)
(0.310444 -0.00195816 0)
(0.31228 -0.00036337 0)
(0.311608 0.00114125 0)
(0.308737 0.00227785 0)
(0.304146 0.00298331 0)
(0.298684 0.00296268 0)
(0.293235 0.00251602 0)
(0.289431 0.0012273 0)
(0.288448 -0.000418424 0)
(0.290618 -0.00232085 0)
(0.296397 -0.00438806 0)
(0.305327 -0.00605345 0)
(0.316599 -0.00691639 0)
(0.328808 -0.00671736 0)
(0.340154 -0.00529537 0)
(0.348611 -0.00265281 0)
(0.352061 0.00108886 0)
(0.348944 0.00579774 0)
(0.337751 0.0110633 0)
(0.317443 0.0166145 0)
(0.287654 0.0221073 0)
(0.248335 0.027251 0)
(0.200016 0.0318801 0)
(0.143912 0.0358488 0)
(0.0811957 0.0391545 0)
(0.0124963 0.0417728 0)
(-0.0610716 0.0436976 0)
(-0.137924 0.0448511 0)
(-0.216608 0.0451414 0)
(-0.29547 0.0444988 0)
(-0.372731 0.0428535 0)
(-0.446503 0.0401799 0)
(-0.514877 0.0365238 0)
(-0.576027 0.0319896 0)
(-0.628489 0.0267237 0)
(-0.671006 0.0208908 0)
(-0.702549 0.0146779 0)
(-0.722577 0.00829504 0)
(-0.731288 0.00157706 0)
(-0.728154 -0.00505266 0)
(-0.713561 -0.0115072 0)
(-0.68775 -0.017783 0)
(-0.651081 -0.023811 0)
(-0.604053 -0.0295097 0)
(-0.547293 -0.034796 0)
(-0.481674 -0.0395554 0)
(-0.40817 -0.043679 0)
(-0.32801 -0.0470353 0)
(-0.242692 -0.049492 0)
(-0.15406 -0.0509202 0)
(-0.0639287 -0.0512196 0)
(0.0262762 -0.0503175 0)
(0.113687 -0.0481673 0)
(0.196117 -0.0448094 0)
(0.271411 -0.0403658 0)
(0.337862 -0.035011 0)
(0.39415 -0.0289718 0)
(0.43931 -0.0225056 0)
(0.472842 -0.0158742 0)
(0.494675 -0.00934499 0)
(0.505196 -0.00315946 0)
(0.505332 0.00241076 0)
(0.496198 0.00736112 0)
(0.478886 0.0115674 0)
(0.455009 0.0149003 0)
(0.426072 0.0173837 0)
(0.393537 0.0190653 0)
(0.35878 0.0200178 0)
(0.322989 0.0203348 0)
(0.287191 0.0201181 0)
(0.252231 0.0194719 0)
(0.218766 0.0184975 0)
(0.187283 0.0172886 0)
(0.158102 0.015927 0)
(0.131409 0.0144831 0)
(0.107287 0.0130158 0)
(0.0857333 0.0115727 0)
(0.0666724 0.010189 0)
(0.0499742 0.00888983 0)
(0.0354742 0.00769126 0)
(0.0229824 0.00660205 0)
(0.0122996 0.00562529 0)
(0.0032429 0.00475865 0)
(-0.00437344 0.00400487 0)
(-0.0107515 0.00334538 0)
(-0.0160651 0.0027766 0)
(-0.0204584 0.00228851 0)
(-0.0240666 0.00187035 0)
(-0.026994 0.00151258 0)
(-0.0293635 0.0011962 0)
(-0.0311689 0.000924277 0)
(-0.0326733 0.000583952 0)
(-0.0333432 0.00039218 0)
(-1.05537 0.0805932 0)
(-1.19485 0.0857166 0)
(-1.35967 0.0861534 0)
(-1.51145 0.0851246 0)
(-1.64783 0.0806246 0)
(-1.7685 0.0728551 0)
(-1.87335 0.0628193 0)
(-1.96174 0.05103 0)
(-2.03227 0.0376029 0)
(-2.08277 0.0224537 0)
(-2.11016 0.00548427 0)
(-2.11147 -0.0125679 0)
(-2.08318 -0.0331602 0)
(-2.02139 -0.0553989 0)
(-1.92354 -0.0785262 0)
(-1.78831 -0.10164 0)
(-1.61606 -0.123722 0)
(-1.40899 -0.143737 0)
(-1.1711 -0.160751 0)
(-0.907915 -0.174045 0)
(-0.625995 -0.183213 0)
(-0.332327 -0.188282 0)
(-0.0350155 -0.190719 0)
(0.260641 -0.186269 0)
(0.549926 -0.180488 0)
(0.827258 -0.172214 0)
(1.08961 -0.161931 0)
(1.33444 -0.149963 0)
(1.55954 -0.136461 0)
(1.76274 -0.121407 0)
(1.94152 -0.104672 0)
(2.09292 -0.0861067 0)
(2.21359 -0.0656448 0)
(2.30003 -0.0433966 0)
(2.34899 -0.0197162 0)
(2.35807 0.00476565 0)
(2.32614 0.0294907 0)
(2.25354 0.0533307 0)
(2.14248 0.0753253 0)
(1.99686 0.0946363 0)
(1.82203 0.110629 0)
(1.62422 0.122958 0)
(1.40997 0.131597 0)
(1.18547 0.13686 0)
(0.956072 0.139549 0)
(0.725912 0.14047 0)
(0.498049 0.141017 0)
(0.274104 0.142451 0)
(0.0666867 0.141706 0)
(-0.141644 0.131817 0)
(-0.355129 0.128997 0)
(-0.554741 0.124768 0)
(-0.74755 0.119726 0)
(-0.931142 0.113385 0)
(-1.10339 0.105522 0)
(-1.26164 0.0960218 0)
(-1.40316 0.0849253 0)
(-1.52541 0.0724147 0)
(-1.62638 0.0587826 0)
(-1.70465 0.0443777 0)
(-1.75948 0.0295435 0)
(-1.79072 0.0145964 0)
(-1.79875 -0.000319508 0)
(-1.78388 -0.0149128 0)
(-1.74662 -0.0293306 0)
(-1.68757 -0.0434391 0)
(-1.60721 -0.0571452 0)
(-1.50619 -0.0702783 0)
(-1.38545 -0.0825566 0)
(-1.24643 -0.0935842 0)
(-1.09134 -0.102876 0)
(-0.923116 -0.109924 0)
(-0.745395 -0.11432 0)
(-0.562113 -0.116153 0)
(-0.377974 -0.117515 0)
(-0.200638 -0.115914 0)
(-0.0453439 -0.110959 0)
(0.105564 -0.0963069 0)
(0.251345 -0.0876609 0)
(0.37251 -0.077301 0)
(0.478443 -0.0677092 0)
(0.5688 -0.0589929 0)
(0.646244 -0.0516358 0)
(0.71337 -0.0457893 0)
(0.772904 -0.0413943 0)
(0.827231 -0.0381912 0)
(0.878128 -0.0357867 0)
(0.926589 -0.0337276 0)
(0.972802 -0.0315717 0)
(1.01622 -0.0289438 0)
(1.05576 -0.0255727 0)
(1.09001 -0.0213075 0)
(1.11746 -0.016114 0)
(1.13668 -0.0100552 0)
(1.14646 -0.00325576 0)
(1.14583 0.00413207 0)
(1.13423 0.0119307 0)
(1.11118 0.0200775 0)
(1.07638 0.028458 0)
(1.02961 0.0370187 0)
(0.97073 0.0457163 0)
(0.899601 0.0544974 0)
(0.81618 0.0632757 0)
(0.720548 0.0719142 0)
(0.613037 0.0802175 0)
(0.494231 0.0879179 0)
(0.365383 0.0947541 0)
(0.226414 0.100199 0)
(0.0851989 0.104483 0)
(-0.0613044 0.106564 0)
(-0.212877 0.106685 0)
(-0.359723 0.104321 0)
(-0.502232 0.0995899 0)
(-0.635283 0.0922679 0)
(-0.756039 0.0824649 0)
(-0.860881 0.0702916 0)
(-0.946827 0.0559989 0)
(-1.01119 0.039937 0)
(-1.05199 0.0226354 0)
(-1.06798 0.00459486 0)
(-1.05887 -0.0132558 0)
(-1.0252 -0.0306055 0)
(-0.968551 -0.046338 0)
(-0.89189 -0.0596987 0)
(-0.79895 -0.0699238 0)
(-0.694648 -0.0764281 0)
(-0.582021 -0.0785852 0)
(-0.468028 -0.0800485 0)
(-0.362404 -0.0755686 0)
(-0.268654 -0.0676651 0)
(-0.189105 -0.0570734 0)
(-0.125946 -0.0448923 0)
(-0.0798842 -0.0322333 0)
(-0.0502226 -0.0202162 0)
(-0.0350734 -0.00977168 0)
(-0.0313055 -0.00186368 0)
(-0.0350891 0.00253915 0)
(-0.0427863 0.00435343 0)
(-0.051103 0.00326595 0)
(-0.0569592 0.000655989 0)
(-0.0567609 -0.00387244 0)
(-0.0485923 -0.00966355 0)
(-0.0321111 -0.015426 0)
(-0.0083362 -0.0207518 0)
(0.0214181 -0.024655 0)
(0.0556058 -0.0271226 0)
(0.0914769 -0.0280431 0)
(0.127207 -0.0275353 0)
(0.160978 -0.0258669 0)
(0.191664 -0.0234282 0)
(0.218582 -0.0205845 0)
(0.241561 -0.0176511 0)
(0.260763 -0.0148359 0)
(0.276525 -0.012234 0)
(0.289208 -0.00984007 0)
(0.299073 -0.00758689 0)
(0.306253 -0.00539757 0)
(0.310778 -0.00322578 0)
(0.312622 -0.00107792 0)
(0.311919 0.000769117 0)
(0.308999 0.00236314 0)
(0.304382 0.00346061 0)
(0.298866 0.00375318 0)
(0.29333 0.00337597 0)
(0.289417 0.00193429 0)
(0.28827 6.12387e-06 0)
(0.290209 -0.0025766 0)
(0.29577 -0.00542235 0)
(0.304521 -0.00799427 0)
(0.315689 -0.00976766 0)
(0.327896 -0.010305 0)
(0.339353 -0.0092564 0)
(0.348043 -0.00645834 0)
(0.351959 -0.0018469 0)
(0.349308 0.00426179 0)
(0.338525 0.0117176 0)
(0.318663 0.0201232 0)
(0.289214 0.0289667 0)
(0.250102 0.0377665 0)
(0.201905 0.0460917 0)
(0.145812 0.0536662 0)
(0.0829613 0.0602344 0)
(0.0140287 0.0656416 0)
(-0.0598653 0.0697877 0)
(-0.137124 0.0725284 0)
(-0.216286 0.0737624 0)
(-0.295694 0.073344 0)
(-0.373541 0.0711384 0)
(-0.447892 0.0671087 0)
(-0.516803 0.0612987 0)
(-0.578416 0.0538957 0)
(-0.631245 0.0451512 0)
(-0.674027 0.0353818 0)
(-0.705741 0.024915 0)
(-0.725866 0.0141617 0)
(-0.734619 0.00288437 0)
(-0.731453 -0.00819979 0)
(-0.71678 -0.0189997 0)
(-0.690862 -0.0294824 0)
(-0.654047 -0.0395476 0)
(-0.606833 -0.0490642 0)
(-0.549836 -0.0578991 0)
(-0.483925 -0.065856 0)
(-0.410066 -0.0727573 0)
(-0.329486 -0.0783774 0)
(-0.243678 -0.0824966 0)
(-0.154499 -0.0849015 0)
(-0.0637805 -0.0854151 0)
(0.0270486 -0.0839201 0)
(0.115073 -0.0803354 0)
(0.198083 -0.0747279 0)
(0.273883 -0.0673001 0)
(0.340739 -0.0583456 0)
(0.39731 -0.0482441 0)
(0.442621 -0.0374265 0)
(0.476172 -0.0263398 0)
(0.49789 -0.0154218 0)
(0.508177 -0.0050839 0)
(0.50801 0.00422054 0)
(0.498503 0.0124865 0)
(0.480773 0.01949 0)
(0.456469 0.0250287 0)
(0.427118 0.0291442 0)
(0.394199 0.0319188 0)
(0.359098 0.0334771 0)
(0.323013 0.0339773 0)
(0.286973 0.0335907 0)
(0.251822 0.032492 0)
(0.218216 0.0308503 0)
(0.186636 0.0288213 0)
(0.157395 0.0265412 0)
(0.130676 0.0241267 0)
(0.106554 0.0216753 0)
(0.0850207 0.0192661 0)
(0.0659959 0.0169572 0)
(0.0493444 0.0147902 0)
(0.0348973 0.0127918 0)
(0.0224615 0.0109763 0)
(0.0118349 0.0093487 0)
(0.00283452 0.00790554 0)
(-0.00472947 0.00664927 0)
(-0.0110606 0.0055518 0)
(-0.0163309 0.00460529 0)
(-0.0206861 0.0037935 0)
(-0.0242614 0.00309846 0)
(-0.0271627 0.00250421 0)
(-0.0295108 0.00198215 0)
(-0.0313164 0.00153284 0)
(-0.0328182 0.0010266 0)
(-0.0336689 0.000673906 0)
(-1.04155 0.121326 0)
(-1.19544 0.119539 0)
(-1.36117 0.114574 0)
(-1.51353 0.108647 0)
(-1.65074 0.101138 0)
(-1.77229 0.0914898 0)
(-1.87793 0.0795729 0)
(-1.96705 0.0654186 0)
(-2.0383 0.0489197 0)
(-2.08955 0.0298817 0)
(-2.11756 0.008707 0)
(-2.11968 -0.0159744 0)
(-2.09231 -0.0439857 0)
(-2.03106 -0.0746318 0)
(-1.93338 -0.106975 0)
(-1.79789 -0.139766 0)
(-1.62492 -0.17154 0)
(-1.41667 -0.200767 0)
(-1.17723 -0.226031 0)
(-0.912219 -0.246208 0)
(-0.628382 -0.260604 0)
(-0.332968 -0.269073 0)
(-0.0335925 -0.272249 0)
(0.26383 -0.26848 0)
(0.554147 -0.261096 0)
(0.832498 -0.250065 0)
(1.09568 -0.236062 0)
(1.34121 -0.219549 0)
(1.567 -0.200706 0)
(1.77091 -0.179445 0)
(1.95049 -0.155497 0)
(2.10274 -0.128554 0)
(2.22426 -0.0984388 0)
(2.31143 -0.0652538 0)
(2.36088 -0.0295007 0)
(2.37016 0.00785779 0)
(2.338 0.0459172 0)
(2.26463 0.0828975 0)
(2.15235 0.117258 0)
(2.00514 0.147616 0)
(1.82847 0.172906 0)
(1.62871 0.192522 0)
(1.4126 0.206387 0)
(1.18647 0.214944 0)
(0.955827 0.219113 0)
(0.724967 0.220196 0)
(0.496899 0.219749 0)
(0.272745 0.218909 0)
(0.0632679 0.217477 0)
(-0.1456 0.206161 0)
(-0.357969 0.201557 0)
(-0.558073 0.195312 0)
(-0.751398 0.18772 0)
(-0.935685 0.178063 0)
(-1.10872 0.165927 0)
(-1.26776 0.151103 0)
(-1.40999 0.133649 0)
(-1.53283 0.113872 0)
(-1.63419 0.092266 0)
(-1.71266 0.069419 0)
(-1.76751 0.0459045 0)
(-1.79864 0.022242 0)
(-1.80643 -0.0013414 0)
(-1.79131 -0.0244432 0)
(-1.75381 -0.0472454 0)
(-1.69446 -0.0696135 0)
(-1.61376 -0.0914324 0)
(-1.51228 -0.112447 0)
(-1.39089 -0.13221 0)
(-1.25101 -0.150077 0)
(-1.09479 -0.165256 0)
(-0.925203 -0.176922 0)
(-0.746014 -0.184398 0)
(-0.561594 -0.187518 0)
(-0.376396 -0.187481 0)
(-0.197479 -0.184028 0)
(-0.0391596 -0.17507 0)
(0.112678 -0.154303 0)
(0.257522 -0.139447 0)
(0.378793 -0.122609 0)
(0.48419 -0.106852 0)
(0.573824 -0.0926586 0)
(0.650383 -0.0807784 0)
(0.716609 -0.0714709 0)
(0.775349 -0.0646261 0)
(0.82908 -0.0597979 0)
(0.879629 -0.0563113 0)
(0.928004 -0.0533889 0)
(0.974364 -0.0502737 0)
(1.01811 -0.0463291 0)
(1.05809 -0.0411037 0)
(1.09282 -0.0343568 0)
(1.12072 -0.0260496 0)
(1.14032 -0.0163061 0)
(1.1504 -0.00535074 0)
(1.14996 0.00655602 0)
(1.13847 0.0191062 0)
(1.11548 0.0322014 0)
(1.08069 0.0456596 0)
(1.03391 0.0594047 0)
(0.974977 0.0733803 0)
(0.903765 0.0875125 0)
(0.820198 0.101671 0)
(0.724327 0.115639 0)
(0.616449 0.129098 0)
(0.497128 0.141617 0)
(0.367558 0.152742 0)
(0.227747 0.161713 0)
(0.0855128 0.168592 0)
(-0.0621988 0.171989 0)
(-0.21507 0.172256 0)
(-0.3633 0.16846 0)
(-0.507189 0.160762 0)
(-0.641617 0.148856 0)
(-0.763652 0.132889 0)
(-0.869634 0.113052 0)
(-0.95651 0.0897468 0)
(-1.02153 0.0635468 0)
(-1.06265 0.0353075 0)
(-1.07853 0.00595015 0)
(-1.06892 -0.0233703 0)
(-1.03434 -0.0516701 0)
(-0.976242 -0.0773251 0)
(-0.897711 -0.0990782 0)
(-0.802542 -0.115699 0)
(-0.695711 -0.126268 0)
(-0.581341 -0.12983 0)
(-0.465276 -0.130326 0)
(-0.356961 -0.122626 0)
(-0.261546 -0.109112 0)
(-0.180939 -0.0913309 0)
(-0.11741 -0.0710235 0)
(-0.0716817 -0.0500832 0)
(-0.0429787 -0.0302626 0)
(-0.0292782 -0.01327 0)
(-0.0276977 -0.000762136 0)
(-0.0335278 0.0068414 0)
(-0.0428005 0.00962834 0)
(-0.0525012 0.0075178 0)
(-0.0593745 0.00204154 0)
(-0.0600467 -0.00582984 0)
(-0.0520461 -0.0156291 0)
(-0.0351936 -0.0253132 0)
(-0.0106281 -0.0340415 0)
(0.0201813 -0.0403965 0)
(0.0554166 -0.0442973 0)
(0.0922818 -0.045541 0)
(0.128819 -0.044421 0)
(0.163141 -0.0414242 0)
(0.194106 -0.0372185 0)
(0.221067 -0.0324279 0)
(0.243921 -0.0275735 0)
(0.26291 -0.022987 0)
(0.278446 -0.0188032 0)
(0.290941 -0.014987 0)
(0.300671 -0.0114052 0)
(0.307755 -0.00791434 0)
(0.312187 -0.00443779 0)
(0.313807 -0.00102371 0)
(0.312847 0.00204877 0)
(0.309618 0.0045881 0)
(0.304502 0.00620633 0)
(0.298484 0.00649877 0)
(0.292442 0.00555768 0)
(0.288139 0.00297778 0)
(0.286829 -0.000492538 0)
(0.28877 -0.00478359 0)
(0.294646 -0.00922833 0)
(0.303981 -0.0129575 0)
(0.315893 -0.0151449 0)
(0.328877 -0.0151601 0)
(0.341025 -0.0125899 0)
(0.350219 -0.00732715 0)
(0.354249 0.000434567 0)
(0.351458 0.010317 0)
(0.340413 0.0218067 0)
(0.320089 0.0342072 0)
(0.290127 0.0467538 0)
(0.250553 0.0587902 0)
(0.201992 0.0698307 0)
(0.145683 0.0795925 0)
(0.0827836 0.0879035 0)
(0.0138944 0.0946449 0)
(-0.0599741 0.0997872 0)
(-0.137319 0.103092 0)
(-0.216714 0.10438 0)
(-0.296523 0.103436 0)
(-0.374916 0.100061 0)
(-0.449915 0.0941743 0)
(-0.519506 0.0858634 0)
(-0.581767 0.0753757 0)
(-0.635162 0.0630863 0)
(-0.678396 0.0494016 0)
(-0.710424 0.0347471 0)
(-0.730736 0.0196764 0)
(-0.739557 0.00387289 0)
(-0.73637 -0.0116486 0)
(-0.721614 -0.0267866 0)
(-0.695541 -0.0414893 0)
(-0.658507 -0.0556061 0)
(-0.611013 -0.0689558 0)
(-0.553663 -0.0813558 0)
(-0.487314 -0.0925302 0)
(-0.412923 -0.102232 0)
(-0.331706 -0.11014 0)
(-0.245166 -0.115945 0)
(-0.155164 -0.119342 0)
(-0.0635552 -0.120079 0)
(0.0282113 -0.117988 0)
(0.117163 -0.112953 0)
(0.201049 -0.105062 0)
(0.277613 -0.0946029 0)
(0.345082 -0.0819889 0)
(0.402083 -0.0677587 0)
(0.447621 -0.0525199 0)
(0.481192 -0.0369045 0)
(0.50274 -0.0215368 0)
(0.512691 -0.00698949 0)
(0.512068 0.00610477 0)
(0.501974 0.0177453 0)
(0.483605 0.0275712 0)
(0.458656 0.0353286 0)
(0.428679 0.0410797 0)
(0.39518 0.0449433 0)
(0.359563 0.0470971 0)
(0.323035 0.0477654 0)
(0.28663 0.04719 0)
(0.251194 0.0456179 0)
(0.217377 0.0432872 0)
(0.185652 0.0404174 0)
(0.156324 0.0371994 0)
(0.129566 0.0337973 0)
(0.105446 0.0303482 0)
(0.0839456 0.0269623 0)
(0.0649764 0.0237205 0)
(0.0483959 0.0206806 0)
(0.0340291 0.0178793 0)
(0.0216779 0.0153362 0)
(0.0111363 0.0130579 0)
(0.00222042 0.01104 0)
(-0.00526482 0.00928199 0)
(-0.0115253 0.00774888 0)
(-0.0167306 0.0064271 0)
(-0.0210286 0.00529405 0)
(-0.0245543 0.00432492 0)
(-0.0274159 0.00349714 0)
(-0.0297311 0.00277446 0)
(-0.0315281 0.00215304 0)
(-0.0330076 0.0015002 0)
(-0.0339723 0.00102472 0)
(-1.03567 0.178834 0)
(-1.19812 0.171145 0)
(-1.36455 0.160765 0)
(-1.51729 0.14935 0)
(-1.65505 0.136756 0)
(-1.77733 0.122514 0)
(-1.88379 0.106272 0)
(-1.97379 0.0876719 0)
(-2.04603 0.0662401 0)
(-2.09816 0.0414584 0)
(-2.12752 0.0139893 0)
(-2.13124 -0.019194 0)
(-2.10503 -0.0565791 0)
(-2.04466 -0.0976089 0)
(-1.94738 -0.141067 0)
(-1.81168 -0.185241 0)
(-1.63781 -0.2281 0)
(-1.42801 -0.267518 0)
(-1.18644 -0.30153 0)
(-0.918912 -0.328582 0)
(-0.632373 -0.347709 0)
(-0.334317 -0.358631 0)
(-0.032307 -0.361707 0)
(0.267367 -0.357128 0)
(0.559342 -0.346852 0)
(0.839081 -0.331791 0)
(1.10337 -0.312921 0)
(1.34986 -0.290883 0)
(1.57657 -0.265906 0)
(1.7815 -0.237827 0)
(1.96222 -0.206221 0)
(2.11574 -0.170607 0)
(2.23853 -0.130687 0)
(2.32684 -0.0865593 0)
(2.3771 -0.0388822 0)
(2.38676 0.0110513 0)
(2.35437 0.0618658 0)
(2.28002 0.111218 0)
(2.16611 0.156999 0)
(2.01673 0.197309 0)
(1.83754 0.2307 0)
(1.63514 0.256371 0)
(1.4165 0.27426 0)
(1.18819 0.285024 0)
(0.955862 0.289927 0)
(0.723904 0.290586 0)
(0.49529 0.288716 0)
(0.270967 0.285735 0)
(0.0596728 0.282745 0)
(-0.149833 0.270598 0)
(-0.36126 0.264191 0)
(-0.561949 0.256061 0)
(-0.755984 0.246133 0)
(-0.941223 0.233492 0)
(-1.11534 0.217552 0)
(-1.27549 0.198026 0)
(-1.41873 0.174999 0)
(-1.54238 0.148902 0)
(-1.64429 0.120421 0)
(-1.72304 0.0903641 0)
(-1.77794 0.0595125 0)
(-1.80893 0.0285647 0)
(-1.81647 -0.00215976 0)
(-1.80104 -0.0322576 0)
(-1.76325 -0.0618748 0)
(-1.70358 -0.0909106 0)
(-1.62249 -0.119249 0)
(-1.52047 -0.146576 0)
(-1.39832 -0.172317 0)
(-1.25737 -0.195628 0)
(-1.09975 -0.21547 0)
(-0.928455 -0.230763 0)
(-0.747372 -0.240606 0)
(-0.561137 -0.244573 0)
(-0.374433 -0.243035 0)
(-0.193684 -0.237549 0)
(-0.0319286 -0.225053 0)
(0.121133 -0.199906 0)
(0.265186 -0.179783 0)
(0.386526 -0.157702 0)
(0.491264 -0.136953 0)
(0.579969 -0.118376 0)
(0.655394 -0.102914 0)
(0.720471 -0.0909029 0)
(0.778196 -0.0821792 0)
(0.831169 -0.0761355 0)
(0.881284 -0.0718617 0)
(0.929562 -0.0683159 0)
(0.976124 -0.0644905 0)
(1.0203 -0.0595467 0)
(1.06085 -0.052901 0)
(1.09619 -0.0442555 0)
(1.12467 -0.0335811 0)
(1.14476 -0.0210616 0)
(1.1552 -0.00700822 0)
(1.15502 0.00822808 0)
(1.14368 0.0242407 0)
(1.12077 0.0409021 0)
(1.08601 0.0579835 0)
(1.03923 0.0753965 0)
(0.980276 0.0930798 0)
(0.908999 0.11095 0)
(0.825296 0.12885 0)
(0.72918 0.146507 0)
(0.620904 0.163518 0)
(0.501007 0.179337 0)
(0.370626 0.193371 0)
(0.229875 0.204724 0)
(0.0864205 0.21332 0)
(-0.0626907 0.217448 0)
(-0.217023 0.217747 0)
(-0.366873 0.212857 0)
(-0.512368 0.20302 0)
(-0.648395 0.18789 0)
(-0.771926 0.16765 0)
(-0.879245 0.142559 0)
(-0.967227 0.113127 0)
(-1.03304 0.0800839 0)
(-1.0746 0.0445156 0)
(-1.09046 0.00753568 0)
(-1.08038 -0.0292622 0)
(-1.04485 -0.0648468 0)
(-0.98523 -0.0970628 0)
(-0.904711 -0.124365 0)
(-0.807174 -0.145227 0)
(-0.697685 -0.158554 0)
(-0.581044 -0.163373 0)
(-0.462736 -0.162342 0)
(-0.351829 -0.153019 0)
(-0.254438 -0.135972 0)
(-0.172597 -0.113615 0)
(-0.1086 -0.0881316 0)
(-0.0631255 -0.0618687 0)
(-0.0353741 -0.0371216 0)
(-0.0233593 -0.0157689 0)
(-0.0234535 -0.00043896 0)
(-0.0311259 0.0096594 0)
(-0.0426006 0.0130432 0)
(-0.0540643 0.0104176 0)
(-0.0620037 0.0029127 0)
(-0.0632758 -0.00705684 0)
(-0.0555774 -0.0192389 0)
(-0.0384422 -0.031294 0)
(-0.0131721 -0.0420671 0)
(0.0186149 -0.0499494 0)
(0.0548716 -0.0547668 0)
(0.0927178 -0.0562273 0)
(0.130056 -0.0547577 0)
(0.16494 -0.0509792 0)
(0.196205 -0.0457286 0)
(0.223239 -0.0397885 0)
(0.245999 -0.0338063 0)
(0.264807 -0.0281902 0)
(0.280145 -0.0230996 0)
(0.292479 -0.0184795 0)
(0.302107 -0.0141505 0)
(0.309137 -0.00992054 0)
(0.313523 -0.00567655 0)
(0.315123 -0.00146414 0)
(0.314012 0.00237239 0)
(0.310453 0.00549443 0)
(0.30495 0.00762853 0)
(0.298463 0.00820465 0)
(0.291895 0.00714552 0)
(0.28711 0.00413472 0)
(0.285398 -0.000209707 0)
(0.287067 -0.00556306 0)
(0.292921 -0.0111937 0)
(0.302489 -0.0161053 0)
(0.314889 -0.0192829 0)
(0.328571 -0.0199054 0)
(0.341538 -0.0173721 0)
(0.351557 -0.0114795 0)
(0.356572 -0.00224196 0)
(0.354582 0.00978022 0)
(0.344024 0.0239629 0)
(0.324062 0.0396361 0)
(0.294227 0.0558047 0)
(0.254557 0.0716037 0)
(0.205756 0.0863197 0)
(0.149077 0.0995505 0)
(0.0856697 0.110927 0)
(0.0162073 0.120252 0)
(-0.0583162 0.127439 0)
(-0.13641 0.132177 0)
(-0.216649 0.134268 0)
(-0.297416 0.133418 0)
(-0.376848 0.129342 0)
(-0.4529 0.121949 0)
(-0.523496 0.111312 0)
(-0.586634 0.0978011 0)
(-0.640736 0.0818649 0)
(-0.684495 0.0640734 0)
(-0.716868 0.0450565 0)
(-0.73737 0.0255466 0)
(-0.746249 0.00511016 0)
(-0.742991 -0.0149309 0)
(-0.728085 -0.034449 0)
(-0.701795 -0.0533976 0)
(-0.664471 -0.0715962 0)
(-0.616603 -0.0888159 0)
(-0.558786 -0.104819 0)
(-0.491855 -0.119258 0)
(-0.416756 -0.131806 0)
(-0.334696 -0.142055 0)
(-0.247174 -0.149597 0)
(-0.15607 -0.154027 0)
(-0.063271 -0.15502 0)
(0.0297574 -0.152345 0)
(0.119955 -0.145854 0)
(0.20502 -0.135652 0)
(0.282612 -0.122113 0)
(0.350904 -0.105773 0)
(0.40848 -0.0873335 0)
(0.454322 -0.0675934 0)
(0.487922 -0.0473686 0)
(0.509236 -0.0274745 0)
(0.518724 -0.00865909 0)
(0.517486 0.0082324 0)
(0.50661 0.0232794 0)
(0.487385 0.0359299 0)
(0.461567 0.045899 0)
(0.430751 0.0532681 0)
(0.396474 0.0581946 0)
(0.360167 0.060912 0)
(0.323047 0.0617137 0)