/*--------------------------------*- C++ -*----------------------------------*\
| =========                 |                                                 |
| \\      /  F ield         | OpenFOAM: The Open Source CFD Toolbox           |
|  \\    /   O peration     | Version:  v1912                                 |
|   \\  /    A nd           | Website:  www.openfoam.com                      |
|    \\/     M anipulation  |                                                 |
\*---------------------------------------------------------------------------*/
FoamFile
{
    version     2.0;
    format      ascii;
    class       volScalarField;
    location    "70";
    object      p;
}
// * * * * * * * * * * * * * * * * * * * * * * * * * * * * * * * * * * * * * //

dimensions      [1 -1 -2 0 0 0 0];


internalField   nonuniform List<scalar> 
14268
(
390902
495354
552817
583433
595389
595856
592485
570797
523742
486452
449454
414179
382062
354173
330984
312323
297451
285228
274315
263324
250898
235810
217142
194485
168101
138978
108361
78194.8
50246.9
26083.8
6836.69
-6923.63
-15219.4
-18642.1
-18578.4
-17416.7
-14400.2
-9815.75
1799.18
10243.4
17773.7
25261.7
33198.3
41969.7
51858.6
62982.8
75253.7
88373.4
101877
115212
127843
139369
149513
158189
165650
172320
178602
185003
192029
200058
209301
219743
231121
242955
254603
265346
274470
281369
285518
286938
284897
280074
272561
262762
251119
238105
224184
209784
195289
181022
167266
154295
142142
131078
121149
112409
104872
98530.1
93360.6
89336.8
86446.6
84685.1
84119.7
84702.9
86448
89801.2
94496
100520
107823
116226
125486
135288
145265
155041
164251
172588
179809
185777
190436
193830
196063
197273
197620
197226
196281
195015
193276
190641
187460
183963
180195
176158
172029
167928
164018
160439
157340
154742
152755
151344
150474
150074
150058
150344
150867
151499
152219
153024
153931
154794
156093
157101
158219
159298
160345
161323
162204
162966
163595
164079
164438
164661
164767
164767
164677
164507
164267
163960
163585
163165
162699
162202
161624
161049
332804
418441
469036
497395
510249
512981
511895
497126
459336
429872
400640
372618
346830
324024
304499
288089
274241
262150
250900
239554
227205
213040
196452
177171
155389
131803
107450
83541.7
61437.4
42259.8
26808.9
15476
8216.56
4562.05
3632.63
4219.26
5662.36
8489.72
18064.6
25048.2
31591.1
38265.2
45393.4
53196.1
61820.1
71305.5
81562.4
92370.8
103409
114306
124707
134318
143013
150833
157864
164365
170593
176897
183552
190784
198703
207281
216334
225532
234431
242528
249317
254363
257267
258096
256162
252059
245814
237724
228115
217349
205789
193782
181643
169643
158023
146971
136700
127256
118753
111245
104761
99308.5
94884.7
91482.6
89104
87748.8
87476.9
88216.4
89971.4
93123.6
97395
102745
109121
116356
124251
132548
140958
149185
156941
163985
170133
175260
179311
182308
184319
185437
185783
185454
184573
183415
181820
179363
176431
173239
169853
166266
162642
159075
155699
152625
149945
147748
146041
144821
144060
143703
143681
143928
144394
144983
145648
146404
147263
148085
149308
150260
151301
152297
153253
154141
154937
155623
156185
156623
156939
157136
157223
157212
157115
156940
156696
156386
156010
155589
155125
154631
154061
153495
287693
352466
394886
420468
433763
438545
438272
429504
401252
378633
356066
334211
313788
295316
278994
264702
252068
240560
229574
218491
206712
193698
179046
162577
144413
124933
105119
85741.3
67690.2
51789.9
38659.3
28631.5
21719
17612.5
15697.4
15261.1
15938.2
17409.4
25335.2
31147.8
36846.5
42794.8
49218.3
56252.2
63981.2
72415.8
81475.5
90986.6
100701
110333
119610
128321
136345
143677
150424
156719
162817
168949
175342
182171
189522
197369
205557
213805
221734
228913
234900
239318
241811
242437
240577
236749
230977
223516
214659
204727
194048
182938
171686
160544
149740
139474
129855
121029
113071
106038
99958.2
94845.8
90702.9
87527.7
85325.6
84098.8
83904.1
84665.3
86393.8
89434.7
93527.5
98622.3
104667
111505
118948
126759
134667
142405
149701
156345
162142
166989
170827
173676
175591
176660
176987
176666
175801
174664
173117
170719
167880
164782
161509
158050
154564
151142
147912
144975
142441
140327
138706
137552
136835
136504
136495
136743
137200
137786
138442
139187
140032
140849
142040
142983
144007
144985
145922
146791
147568
148236
148784
149202
149511
149700
149780
149765
149664
149486
149241
148930
148552
148130
147665
147169
146598
146031
248994
294278
327512
349263
361902
367700
368411
363891
345156
329696
313866
298079
282838
268514
255271
243072
231724
220940
210389
199721
188589
176668
163700
149560
134314
118229
101993
86154.9
71365
58221.4
47181.2
38499.3
32200.7
28083.9
25763.2
24814.5
25050.1
25909.6
32296.4
37102.7
42101.2
47440.2
53254.4
59604.1
66516.3
73970.7
81889.5
90136.5
98528.9
106864
114952
122644
129868
136631
143000
149050
154948
160855
166910
173216
179817
186680
193680
200602
207153
213001
217804
221265
223101
223357
221526
218022
212865
206263
198452
189701
180286
170480
160533
150666
141082
131958
123409
115546
108451
102177
96756.8
92209.9
88546.3
85772.2
83898.2
82928.4
82913.3
83766.1
85502
88415.9
92254.6
96954
102459
108625
115282
122227
129230
136066
142509
148382
153519
157831
161264
163827
165560
166528
166814
166499
165656
164554
163087
160794
158121
155208
152170
148986
145806
142711
139810
137188
134933
133069
131641
130627
130001
129719
129725
129967
130397
130969
131599
132316
133130
133926
135058
135968
136941
137866
138746
139557
140277
140893
141395
141779
142056
142222
142286
142258
142149
141965
141715
141401
141021
140596
140131
139635
139068
138504
219487
250444
276093
294631
306701
313406
315512
313808
302094
291252
279780
268005
256284
244877
233905
223366
213167
203173
193227
183157
172777
161904
150384
138137
125196
111656
98219.6
85159.8
72937.5
61981.6
52627.2
45069.8
39345.1
35334.7
32804
31505
31326.3
31962.7
37018.9
40970.6
45346.7
50130.6
55385.8
61119.2
67319.8
73948.4
80932.1
88163.1
95506.1
102816
109961
116840
123407
129665
135664
141450
147109
152760
158485
164340
170345
176464
182596
188567
194147
199066
203049
205851
207242
207242
205450
202186
197477
191495
184442
176549
168056
159204
150214
141288
132608
124345
116568
109421
102967
97258.1
92328.3
88199.6
84886.5
82399.5
80752.5
79951.2
80041.3
80935.9
82648.8
85446.7
89084.7
93494.6
98621
104327
110459
116834
123246
129498
135384
140766
145465
149420
152572
154930
156523
157406
157650
157327
156494
155404
153989
151766
149206
146408
143511
140487
137484
134576
131862
129423
127345
125615
124309
123389
122832
122593
122624
122874
123300
123865
124491
125195
125991
126780
127873
128770
129719
130621
131475
132259
132953
133544
134022
134382
134645
134797
134849
134813
134698
134510
134256
133939
133556
133130
132661
132162
131592
131025
198199
219836
239241
254343
264936
271424
274190
273569
266628
259017
250619
241730
232609
223428
214266
205127
195980
186786
177507
168097
158490
148603
138355
127702
116655
105144
93945.7
83111.9
72967.1
63812.7
55887.9
49337.8
44200.5
40414.2
37848
36369.8
35937.2
36356.5
40410.7
43657.8
47499.8
51798.9
56558.9
61746
67319.3
73225.7
79396.3
85745.3
92174.7
98585.2
104891
111031
116982
122755
128404
133873
139261
144633
150016
155425
160855
166269
171584
176665
181332
185375
188578
190747
191699
191431
189650
186588
182280
176870
170527
163448
155841
147913
139863
131866
124088
116684
109703
103289
97500.4
92384
87973
84291.7
81357.9
79185.9
77791.9
77183.4
77400.1
78355.6
80059.2
82754
86195.5
90314.2
95052
100280
105860
111628
117406
123023
128300
133138
137346
140893
143723
145839
147263
148038
148222
147877
147047
145961
144595
142443
140007
137339
134604
131771
128979
126297
123816
121603
119735
118184
117035
116235
115765
115583
115644
115906
116328
116884
117505
118192
118968
119744
120791
121668
122582
123450
124265
125008
125662
126216
126659
126978
127227
127357
127392
127344
127219
127024
126765
126444
126058
125628
125157
124654
124084
123516
180708
196238
210885
222928
231850
237679
240571
240819
236726
231371
225168
218392
211225
203773
196074
188130
179939
171524
162928
154197
145353
136384
127264
117975
108516
98647.7
89260
80231
71784.3
64124.5
57415.3
51759.6
47192.7
43689.3
41187.2
39631.5
39030.7
39264.9
42532.2
45210.3
48591.7
52463
56780.2
61479
66497
71771.5
77237.6
82827.3
88471.2
94105.6
99680.1
105166
110558
115876
121194
126317
131417
136499
141546
146536
151447
156242
160853
165176
169073
172380
174929
176565
177147
176652
174873
171978
168007
163081
157343
150963
144120
136997
129766
122585
115605
108977
102688
96929.3
91736.9
87153.2
83209.4
79930.5
77336.5
75444.4
74272.2
73828.9
74149
75151.5
76835.1
79433.5
82697.3
86561.9
90965.8
95789.1
100904
106165
111412
116500
121263
125652
129439
132634
135180
137079
138346
139017
139138
138766
137932
136842
135514
133422
131088
128522
125915
123230
120601
118096
115795
113763
112069
110661
109645
108951
108561
108436
108532
108812
109238
109790
110412
111089
111851
112620
113632
114497
115388
116233
117023
117741
118367
118894
119314
119640
119837
119947
119968
119908
119775
119574
119310
118985
118596
118162
117686
117178
116603
116029
165439
176816
187903
197398
204728
209744
212453
213515
210971
207166
202547
197342
191672
185591
179101
172188
164864
157189
149263
141202
133089
124970
116855
108746
100648
92144.5
84231.6
76679.4
69637.3
63232.8
57569.4
52713.9
48694.5
45507.4
43134.9
41574.4
40873.1
40985.6
43547.1
45812.5
48805.1
52302.9
56227.5
60492
65018.2
69736.9
74587.3
79515.3
84474.2
89427.6
94354
99249.3
104128
109017
113980
118770
123572
128360
133076
137668
142099
146333
150315
153968
157185
159845
161817
162981
163229
162528
160735
157975
154291
149785
144581
138824
132669
126274
119794
113365
107125
101247
95586.9
90448.6
85826.5
81754.9
78262.6
75374.6
73111.8
71493.2
70538.1
70257.4
70680
71732.5
73399.1
75912.8
79013.4
82644
86739.5
91187.3
95869.7
100656
105405
109991
114267
118223
121602
124449
126710
128385
129487
130043
130092
129682
128838
127737
126435
124397
122157
119688
117202
114659
112189
109857
107736
105888
104369
103110
102237
101658
101358
101297
101434
101737
102172
102721
103346
104015
104762
105525
106503
107355
108222
109043
109806
110493
111090
111586
111976
112262
112449
112537
112540
112467
112323
112115
111845
111516
111123
110684
110203
109689
109108
108529
151652
160095
168506
175932
181849
186043
188433
190153
188380
185615
182144
178121
173617
168641
163162
157149
150612
143630
136348
128930
121509
114170
106951
99869.7
92951.7
85660.1
78910.4
72575.3
66706.4
61366.8
56610.6
52473.6
48973.6
46117.5
43914.8
42397.6
41643.1
41689.6
43606.6
45584.9
48252
51424.6
55001.5
58879.6
62969.5
67197.8
71507.4
75855.8
80213.7
84566.3
88914.6
93275.3
97679
102161
106775
111228
115728
120222
124617
128832
132823
136551
139976
143040
145665
147761
149231
149983
149937
149057
147234
144582
141141
136999
132261
127052
121509
115768
109964
104217
98649.9
93412.5
88384.4
83828.9
79741.1
76150.3
73082.9
70563
68611.8
67249.8
66497.3
66367
66883
67981.5
69629.2
72066.1
75018.2
78438.5
82258.2
86371.2
90668.8
95032.6
99337.4
103474
107317
110870
113878
116401
118393
119854
120793
121233
121205
120752
119891
118777
117492
115501
113340
110953
108568
106147
103811
101630
99666.1
97983.5
96639.5
95506.4
94766.5
94300.3
94090.2
94094.8
94277.4
94606.8
95054.9
95605.7
96233
96898.1
97634.7
98392.6
99343.3
100186
101035
101839
102582
103246
103818
104288
104652
104919
105077
105144
105131
105044
104891
104675
104401
104067
103670
103226
102738
102216
101627
101038
138933
145237
151614
157372
162075
165507
167559
169665
168226
166151
163511
160387
156801
152729
148109
142887
137063
130727
124054
117246
110474
103852
97432.2
91244.2
85331.5
79136.4
73330.2
68006.5
63127.2
58699.5
54736.6
51247.4
48237.3
45715.8
43707.5
42266.5
41490
41476.7
42887.4
44639.5
47033.3
49922.7
53192
56726.6
60428.9
64223.2
68056.2
71894.4
75722
79541
83370.8
87246.8
91217.2
95352.2
99579
103687
107880
112084
116170
120032
123614
126887
129816
132360
134466
136069
137099
137488
137179
136146
134276
131708
128471
124641
120311
115588
110590
105439
100250
95127.8
90175.2
85477.5
81095.4
77093.5
73511.6
70377.6
67715.2
65546.9
63893.6
62776.5
62216.9
62229.5
62834.2
63978
65608.4
67977
70794.7
74025.2
77596.1
81407.1
85356.7
89337.2
93236.5
96961
100399
103584
106237
108449
110179
111428
112202
112522
112412
111908
111025
109893
108615
106664
104571
102255
99959.1
97644.3
95430.6
93385.9
91567.8
90045.9
88918.1
87865
87259.2
86910.3
86795.4
86872.1
87104.7
87465.4
87930.1
88485.3
89115.5
89779
90506.9
91261.7
92188.1
93023.4
93857.4
94645.6
95368.9
96011.7
96558.5
97002.4
97339
97576.6
97714.4
97758.3
97726.1
97624.6
97460.4
97236.9
96956.7
96618.2
96216.7
95766.6
95271.3
94740.2
94141.8
93544.1
127026
131728
136538
140954
144628
147385
149252
151196
149958
148351
146317
143877
141022
137696
133813
129292
124116
118380
112280
106047
99882.6
93915.9
88211.4
82798.5
77707.7
72544.8
67503.2
63037.1
59002.4
55362.8
52099
49196.6
46647.4
44458
42659.1
41316.7
40540.4
40456.4
41510.1
43070.7
45232.8
47874.9
50871.9
54100.5
57458
60867.5
64279.1
67666.6
71024.5
74367.6
77729.6
81162
84730.9
88594.5
92381.3
96140
100026
103944
107733
111266
114475
117333
119823
121910
123561
124733
125378
125448
124904
123742
121804
119300
116232
112670
108695
104400
99890.4
95270.4
90641.3
86090.8
81706.6
77558.5
73732.5
70250.1
67146.4
64445.7
62168.5
60334.9
58964.9
58080.4
57703
57850.1
58537.6
59724.7
61339.3
63646.4
66343.2
69403.4
72751.7
76292.6
79930.5
83566.5
87099.5
90448.4
93514.4
96360.9
98679.3
100598
102075
103114
103724
103921
103726
103167
102256
101105
99824.4
97908.7
95869.3
93614.1
91390.9
89166.7
87057.3
85132.7
83444.5
82064
80962.1
80181.2
79706.8
79477.2
79460.3
79612.8
79899.2
80294.3
80778.1
81340.1
81973
82637.1
83358.5
84112.1
85018.9
85849.9
86673.2
87450.1
88159.1
88783.8
89309.2
89728.6
90039.9
90251.1
90362.5
90384.4
90333.3
90216.8
90041.6
89810.6
89525
89181.9
88775.8
88319.3
87815.3
87273.4
86662.5
86052.6
115760
119239
122825
126155
128958
131115
132854
134338
133205
131907
130307
128388
126114
123410
120165
116270
111687
106506
100945
95255.1
89657.5
84293
79229
74490.2
70080.1
65678.5
61433.6
57716.6
54411.5
51459
48815.8
46447.6
44332.3
42469.4
40889.3
39662.5
38903.9
38734
39566.6
40959
42922.6
45347.5
48102.2
51057.6
54107.5
57175.1
60213.5
63202.3
66143.2
69060.5
71999.1
75025.5
78226.2
81761.2
85164.6
88581.8
92159.9
95794.7
99296.1
102525
105398
107885
109982
111669
112923
113719
114026
113816
113061
111793
109766
107306
104375
101041
97373.6
93456.5
89382.3
85241.8
81122.7
77098.3
73241.8
69614.8
66302.3
63308.9
60658.7
58370.4
56460.9
54947.2
53847.7
53184.5
52979.9
53253.9
54018.8
55247.1
56849.4
59100.3
61688.8
64596.9
67746.9
71046.8
74406.1
77732.5
80934.1
83939.8
86661.1
89193.5
91197
92833.6
94065.7
94899
95343.6
95414.7
95129.1
94510.9
93567.9
92395.8
91105.6
89218.1
87219.9
85015
82850.7
80701.8
78681.3
76862.3
75292.7
74050.9
73098.6
72460.9
72115.5
72009.6
72095.6
72329
72673.5
73106.6
73612.2
74182.8
74818.6
75484.6
76201.1
76954.9
77846.1
78675.2
79491.3
80260.1
80957.6
81566.5
82071.8
82467.3
82752.7
82934.4
83019.7
83018.9
82947.3
82814.6
82627.9
82389.2
82098.4
81750.9
81340.2
80877
80363.3
79809.5
79184.3
78560.4
105016
107542
110161
112606
114670
116281
117848
118793
117701
116584
115283
113753
111941
109757
107066
103734
99696.3
95036
89981.6
84805.7
79740.7
74930.9
70442.4
66293
62464.3
58715.2
55149.2
52087.1
49417.3
47068.2
44979.7
43100.7
41395.2
39852.5
38497.8
37400.6
36676
36409.9
37127.3
38373
40164.7
42397.1
44934.9
47645
50419.6
53182.9
55890.8
58526.7
61097.1
63633
66188.2
68839.4
71651.5
74883.4
77930.8
81008.8
84274.9
87624.1
90848.1
93800.4
96372.9
98536.6
100283
101619
102528
102997
103010
102551
101608
100254
98114.4
95680.5
92858.6
89714.8
86313.1
82727.5
79041.9
75334.8
71681.8
68142.7
64777.6
61641.2
58809.4
56277.8
54058.5
52163.8
50606
49398.5
48557.4
48105.1
48064
48457.6
49294.2
50561.6
52155.6
54354.2
56846.5
59619.4
62593.7
65680.1
68791.8
71841.4
74744
77436.2
79842.8
82074.8
83784.8
85151.9
86145
86774.4
87053
86995.9
86617.1
85935.8
84956.4
83763.7
82456.9
80590.8
78621.3
76456.6
74337
72247.6
70300.3
68571.8
67107.8
66002.9
65184.3
64695.2
64485
64507.5
64701.2
65020.2
65426.6
65900.3
66429.2
67009.6
67647.8
68316.3
69029.5
69785.1
70664.8
71494.8
72308.2
73073
73763
74359.1
74846.4
75218.6
75479.5
75631.3
75687.4
75663.3
75570.1
75420.7
75222.4
74976.3
74680.7
74329.4
73914.1
73443.6
72919.1
72351.5
71709.3
71068.7
94709
96483
98328.2
100047
101477
102584
103905
104298
103229
102198
101087
99836.2
98386.2
96633.6
94428.5
91606.9
88075.2
83905.5
79334.5
74649.9
70089
65792.7
61822.6
58188.8
54858.3
51670.2
48679.3
46184.8
44069.3
42253.2
40663.8
39235.5
37918.8
36691
35568.1
34614.4
33940.7
33580.8
34251.3
35374.3
37014.7
39073.4
41413.8
43900.9
46427.5
48919.5
51335
53659.4
55902.1
58097.9
60310.2
62639.1
65265.8
68020.2
70685.8
73420.4
76364.1
79410.5
82342.9
85064.5
87382.9
89266.2
90713.8
91743.9
92357.7
92545.6
92303.2
91627.4
90518
89088.6
86815.8
84391.8
81650.6
78662.5
75486.3
72189.3
68849.4
65533.5
62307
59216.7
56310.2
53635.3
51256.7
49162.8
47354.1
45835.8
44615.5
43702.1
43108.3
42857.3
42970.9
43477.2
44378.8
45680.7
47272.8
49420.3
51826.8
54480.1
57299.9
60199
63092.9
65897.5
68532.7
70938.5
73051.4
74993.5
76440.2
77549.2
78308.9
78735.5
78846.6
78657.9
78182.4
77434.6
76415.7
75202.7
73874.6
72023.3
70071.4
67937.7
65848.8
63802.6
61912
60258.1
58885.5
57917.8
57227.8
56883.6
56816
56972.8
57280
57690.1
58162.7
58680
59233.8
59824.8
60464.7
61135.8
61846.6
62605.3
63477.1
64310.9
65125.8
65890.5
66576.7
67163
67633.9
67983.5
68218.9
68340.3
68366.2
68316.4
68199.8
68032.8
67822.5
67569.3
67269.7
66915.2
66495.8
66017.8
65481.6
64898.8
64237
63577.4
87968.2
89334.1
90757
92068.7
93128.7
93916.8
95015.7
95057.9
93990.1
92981.5
91946.4
90830.1
89573.5
88069.2
86156.7
83650.4
80434.4
76572.9
72308.8
67938.6
63699.6
59723.3
56069.9
52744.2
49704.7
46836
44181
42027.5
40247.6
38757.6
37478.1
36334.5
35268.4
34248.2
33281.9
32429.6
31796.2
31381.7
32041.3
33098.3
34649.2
36603.1
38823.3
41174.7
43550.7
45878.7
48117.9
50254.1
52297
54282.8
56276.7
58395.4
60903.5
63338.4
65762.6
68268.5
70986.1
73791.9
76501.3
79129.9
81322.9
83047.5
84327.7
85170.9
85612.1
85634
85239.7
84433.5
83225.5
81741.9
79369.1
76942.2
74238.9
71335.6
68288.8
65161.8
62031
58955.4
55994.9
53187.5
50572.9
48194
46106.2
44295.4
42753.7
41480.7
40480.9
39759.7
39327
39206.7
39419.6
39997.7
40941.2
42264.1
43859.4
45974.1
48329.9
50912.1
53640.3
56427.8
59191.2
61847.5
64319.2
66545.6
68454.3
70225.4
71508
72447.1
73051.4
73341.4
73338.6
73059.9
72517.8
71723.8
70676.9
69450.2
68104
66257.4
64309.7
62190
60112
58084
56221.2
54608.1
53297.6
52407.4
51810.3
51566.4
51600.3
51852.9
52241.5
52717.2
53236.8
53784.7
54355.7
54953.5
55593.7
56265.8
56975.7
57737.3
58606.3
59445
60264
61031.7
61718.1
62299.6
62760.5
63096.7
63311
63412.6
63416.8
63347.9
63214.3
63034.9
62816.5
62559
62257.3
61901.3
61479.3
60996
60451.1
59856.5
59179.3
58504.8
84480.2
85648.5
86866.1
87978.3
88854
89478.7
90450.5
90317.1
89245.9
88244.6
87241.5
86187.1
85023.6
83642.3
81877.7
79531.3
76476
72771.8
68664.7
64456.3
60382.3
56568.6
53075
49903.6
47008.3
44296
41807.4
39825.4
38214.1
36888.6
35766.3
34767.8
33830.6
32917.8
32033.5
31235.1
30623.7
30183.5
30840
31865.2
33371.4
35272.5
37432.1
39715
42015.4
44261.2
46412
48453.8
50396.3
52275.8
54159
56166.1
58583.8
60884
63185
65572
68170.4
70828.4
73390.4
76016.3
78158.2
79806
81002.1
81755.9
82108.4
82047.7
81577.2
80705.3
79448.4
77934.9
75508.3
73078.3
70391.7
67529.2
64546.1
61503.7
58478.2
55524.1
52699
50036.1
47571.3
45344.3
43406
41740.9
40336.8
39190.4
38304.3
37682.3
37332.4
37279.3
37542.9
38157.6
39122.2
40455.6
42053.3
44150.9
46481.6
49028.7
51711.5
54443.8
57142.4
59724.6
62114.1
64249.7
66033.6
67737.9
68936
69787
70310.3
70528.9
70466.3
70140.3
69563.1
68744.8
67683.4
66449.2
65093.1
63248.1
61301.4
59187.7
57113.6
55093
53242.5
51649.1
50370.8
49518.3
48971.3
48780.5
48868.3
49172.2
49604.2
50114.9
50659.5
51223.7
51803.6
52404.8
53045
53717.4
54426.9
55190.3
56058.3
56900
57721.8
58491.6
59178.6
59758
60213.8
60543.2
60745.8
60837.1
60829.7
60750.6
60607.9
60421.8
60199.3
59939.5
59636.9
59280.3
58857.1
58371
57821.3
57220.4
56534.7
55852.1
81030.3
82015.1
83041.7
83966.7
84666.5
85131.2
85964.5
85662.7
84584.9
83585.8
82606.2
81604.6
80525.4
79260.3
77637.5
75446.4
72549
68999.8
65048.7
61001.2
57090
53435
50095.8
47071.5
44311.4
41747.9
39414.2
37595.6
36145.1
34977.4
34006.9
33149.7
32339.4
31533.8
30732.3
29989.7
29402
28940.4
29596.3
30592.1
32054.7
33904.2
36004.5
38220.7
40448
42614.9
44681.5
46633.4
48480.1
50258
52035
53929.7
56253.6
58425.9
60605.6
62874
65351.4
67844.2
70301.7
72885.6
74993.7
76571.8
77688.2
78361.7
78628.4
78489.6
77946.9
77012.3
75709
74164.6
71682.4
69247.4
66574.2
63748.6
60825.1
57862.7
54938.3
52101.6
49408.2
46886.3
44568.2
42490.4
40698.9
39177.2
37908.7
36886.9
36113.1
35589
35320.5
35333.3
35646.5
36296.7
37281.4
38624.6
40225.2
42305.6
44612.3
47126
49766.1
52446.3
55083.8
57596
59907.3
61956.2
63606.7
65257.7
66372.1
67135.9
67578.4
67725.5
67602.8
67228.9
66616.3
65773.2
64697.2
63455.8
62089.4
60245.6
58298.9
56190.2
54118.1
52102.6
50262.1
48686.1
47438.1
46623.3
46126.1
45988.8
46131.8
46487.8
46964.1
47510.6
48080.9
48661.5
49250.4
49855
50494.9
51167.4
51876.5
52641.8
53509.2
54354.3
55179.6
55952.2
56640.2
57217.9
57669.1
57991.8
58182.4
58263.2
58244.1
58154.3
58002.2
57809.3
57582.6
57320.8
57017.5
56660.4
56236.2
55747.2
55192.8
54585.2
53890.7
53199.6
77617.8
78432.3
79281.3
80030.7
80562.8
80870.7
81553.9
81090.3
80003.4
79001.1
78036.7
77078.9
76075.6
74920.7
73432.5
71393.1
68650.9
65255
61459.1
57572
53821.3
50322
47131.5
44247.2
41613.8
39188.8
37004.7
35339.6
34042.7
33026.7
32203.4
31484.3
30799.2
30100.5
29382.7
28697.8
28135
27656.5
28314.1
29282
30702.1
32500.9
34543
36694.1
38850.7
40941.9
42928
44794.2
46549.4
48229.8
49903.9
51687.3
53912.6
55964.2
58024.5
60174.9
62531
64870.9
67186
69739.5
71829.5
73345.1
74388.1
74986.2
75171.5
74959.3
74348.2
73353.9
72006.9
70430
67891.1
65449.1
62785.9
59993.4
57125.2
54238.2
51410.8
48687.3
46122
43737.8
41563.6
39632.1
37985.2
36604.7
35470
34571.4
33908.6
33481.3
33293.1
33371.1
33732.7
34417.6
35421.8
36774
38378.3
40441.2
42725
45206.9
47806.6
50437.6
53017.3
55462.7
57699.2
59665.9
61284.3
62786
63816
64493.1
64855.2
64930.7
64747.5
64325.3
63677
62809.1
61718.5
60469.8
59092.7
57249.4
55301.6
53196.6
51124.6
49112
47279.2
45718.5
44499.2
43721.9
43274.5
43191.5
43390.8
43800.2
44321.7
44905
45501.2
46098.6
46696.4
47304.2
47943.6
48615.9
49324.7
50091.9
50959.2
51808.2
52637.5
53413.5
54103.3
54679.7
55126.3
55442.3
55620.8
55690.8
55659.7
55558.9
55397.2
55197.4
54966.5
54702.8
54398.9
54041.6
53616.4
53124.6
52565.2
51950.8
51247.1
50547
74240.6
74897
75580.8
76165.4
76537.3
76691.4
77212.9
76594.8
75496.6
74484.8
73527.6
72605.3
71671.7
70618.7
69259.5
67368.6
64779.2
61535
57894.2
54167.3
50574.3
47228.9
44181.7
41430.5
38915
36618.6
34579.5
33058.1
31907.9
31037.9
30357.4
29773.3
29211.9
28620.1
27986.8
27361.5
26824.4
26334.8
26995.9
27936.9
29315.2
31064
33048.8
35136.2
37224.2
39242.7
41152
42936.6
44604.5
46191.7
47766.7
49440
51565.3
53499.5
55442
57474.9
59709.8
61882.6
64124.1
66519.4
68664.8
70125.4
71100.7
71629.2
71737.2
71455.9
70780.1
69728.8
68340.6
66729
64132.7
61681.8
59025.1
56261.8
53445
50629
47894.5
45280.3
42839.7
40590.1
38557.1
36769.5
35264.7
34023.6
33021.1
32244.1
31691.1
31359.5
31250.6
31392.8
31801.7
32520.5
33543.3
34903.8
36512.4
38557.5
40819.4
43271.2
45832.7
48417.4
50942.5
53324.6
55489.7
57378
58950.9
60322.2
61267.6
61858.6
62140.4
62144.1
61900.1
61429.2
60744.8
59851.8
58746.8
57490.7
56102.6
54259.3
52309.3
50206.9
48133.1
46121
44293.6
42746.1
41554
40813.8
40416.4
40388.4
40645.2
41109.1
41677
42297.8
42920.6
43534.9
44141.7
44752.5
45391.1
46062.9
46771.3
47540.7
48408.1
49261.5
50095.6
50875.6
51567.7
52143.1
52585.4
52894.9
53060.9
53120
53076.5
52964.4
52792.8
52586
52351
52085.5
51781.2
51423.8
50997.9
50503.3
49938.7
49317.2
48603.8
47894.3
70897.1
71406.6
71936.7
72366.4
72585.2
72588.7
72936.7
72172.9
71060.2
70031.1
69073.6
68179.5
67310.1
66350.4
65115.8
63369.9
60931
57837.7
54352.2
50785.8
47349.3
44155.4
41245.9
38621
36214.8
34039.6
32136.3
30752.1
29741.9
29012.3
28470.6
28018.5
27579.5
27094.5
26546.7
25983
25472
24978.1
25644.3
26558.9
27895.7
29594.9
31523
33547.8
35569.4
37518.1
39354.2
41061.3
42646
44144.2
45624.1
47189.5
49213.7
51032.3
52858.2
54774.5
56889.9
58937.8
61061.1
63317.9
65499.4
66912.2
67825.7
68290.7
68324.8
67978.8
67241.9
66136
64709.2
63060.5
60406.3
57944.6
55290.9
52553
49783.5
47034
44388.8
41879.8
39560.8
37443.1
35548.4
33902.6
32537.7
31434.1
30562.2
29905.4
29461
29224.4
29193.5
29399.2
29854.3
30606
31646.7
33014.7
34628.2
36655.1
38896.2
41319.5
43845
46386.1
48859.8
51182.1
53279
55092.1
56609.4
57865.6
58726.8
59232.3
59433.9
59365.6
59060.3
58540.2
57819.4
56901.2
55782
54518.2
53118.8
51275.2
49322.1
47221
45143.5
43129.6
41305
39768.5
38602.1
37898.6
37551.5
37579.4
37895.2
38414.9
39030.1
39689.5
40339.2
40970.7
41586.4
42200
42837.5
43508.3
44216.4
44988.1
45856.1
46714.4
47553.8
48338.5
49033.5
49608.5
50046.7
50349.6
50502.8
50550.8
50494.7
50370.7
50189.1
49975.1
49735.9
49468.8
49164.3
48807.1
48380.5
47883.3
47313.1
46684.3
45961
45241.6
67585.2
67958.3
68345.4
68629.5
68701.6
68557.8
68720.6
67821.9
66689.3
65634.2
64669.6
63798.5
62985
62112.4
60997.6
59393.8
57103.5
54160.6
50831.5
47426.5
44147.4
41100.8
38323.5
35818.3
33513.1
31451.8
29675.8
28422.1
27545.6
26951.3
26544.4
26221.5
25903.6
25525.6
25064.3
24564.3
24079.2
23589.7
24261.9
25149.8
26445.1
28094.9
29966.6
31929.9
33886.9
35768.6
37535
39168.5
40674.2
42087.5
43477.2
44936.9
46859.8
48563.1
50273.4
52074.1
54071.6
55994.7
58017.2
60103.5
62332.9
63705.4
64562.5
64967.8
64937.3
64527.1
63732.7
62574.4
61111.2
59423.2
56710.7
54236.2
51581.7
48865.6
46139.6
43452.1
40892.6
38485.2
36284.8
34296.2
32537.4
31031.1
29804.2
28836.4
28093.7
27555.6
27218.9
27076.2
27122.4
27390.8
27890.9
28674.8
29732.4
31107.1
32725.9
34734.2
36955.5
39351.7
41843.5
44343.8
46769.3
49035.1
51067.1
52807.8
54264.2
55416.1
56193.5
56614
56735.4
56594.8
56227.8
55657.9
54900.5
53956.8
52823.8
51552.2
50141.2
48296.9
46339.9
44238.8
42155.6
40137.5
38313.3
36785.4
35643.3
34976
34679.6
34764.4
35140.7
35717.6
36381.2
37080.1
37757.3
38406.2
39030.7
39646.8
40282.8
40952.2
41659.9
42434
43302.9
44166.6
45012.2
45802.2
46500.7
47075.7
47510
47806.5
47946.6
47983.2
47914
47777.9
47585.8
47364.6
47121.3
46852.7
46548.3
46191.5
45764.4
45264.6
44688.7
44052.3
43318.6
42588.7
64188.1
64429.9
64679.4
64821.7
64748.3
64455.2
64414.7
63390
62226.8
61135.6
60156.8
59305.1
58540.3
57752.3
56756.8
55296.9
53159.1
50372.4
47207.2
43971
40855.5
37957.9
35311.8
32923.5
30714.3
28763.4
27111.2
25985.8
25241.5
24781.8
24510.8
24318.8
24125.3
23858.3
23487.6
23056.1
22596.5
22123.1
22801.5
23660.8
24913
26511.5
28324.8
30225.1
32117
33932.2
35630.1
37191.5
38619.6
39949.2
41250.9
42612.6
44422.3
46005.2
47596.8
49278.6
51156.1
52963.4
54878.4
56869.6
59052.1
60391.7
61196.3
61543
61455.9
60979.8
60129.1
58919.4
57419.7
55688.8
52915.9
50426.2
47766.8
45069.2
42384.5
39756.4
37282.2
34976
32895.7
31038.2
29417.6
28053.8
26967.6
26138.8
25528.5
25112
24885.5
24839.5
24964.2
25296.9
25842.4
26658.6
27733
29113.8
30738
32726.8
34928.4
37298.2
39757.2
42218.2
44597.2
46808.1
48776.2
50444.6
51835.5
52887.2
53578.8
53911.6
53950
53734.1
53302.8
52680.8
51885.1
50914.8
49768
48488
47064.8
45219.7
43257.8
41155.5
39064.3
37039.3
35212.6
33691
32572.7
31942.3
31699.1
31843.9
32284.4
32922
33636.9
34377.9
35084.1
35751.1
36384.5
37003
37637.1
38304.4
39011.7
39788.4
40658.7
41528.4
42381.1
43177.5
43880.3
44455.6
44886.1
45176.2
45302.2
45326.8
45243.7
45094.4
44891.3
44662.5
44414.9
44145
43841
43485
43057.5
42555.1
41973
41328.3
40583.5
39842.3
60708.7
60825.5
60943.4
60948.4
60730.9
60287.3
60024.3
58886.8
57674.9
56537.1
55538.3
54697.9
53976
53269.1
52391.7
51077.7
49096.4
46473
43480.4
40421.5
37475.8
34728.7
32212.3
29937.1
27817.9
25972.9
24440.4
23440.6
22826.2
22500.4
22366.2
22306.5
22240.7
22089
21813.3
21455.5
21019.7
20579.2
21261.8
22090
23297
24842
26594.6
28430.3
30256.9
32006.2
33637.1
35128.4
36480.6
37728.3
38945.4
40211.3
41902
43358.8
44828.5
46388.5
48143.8
49836.9
51645.2
53522
55647.7
56971.3
57728.5
58021.1
57880
57339.9
56434.9
55175.6
53637.9
51860.6
49025.9
46518.1
43849
41166.1
38519.7
35947.7
33558
31352.1
29393.2
27668.6
26188.4
24969.9
24027.1
23340.5
22865.7
22573.4
22460
22513.2
22717.8
23116.4
23707.5
24556.3
25646.7
27033.4
28662.8
30631.2
32813.4
35157.3
37584.9
40008.2
42342.7
44500.5
46406.2
48002.4
49325.5
50279.7
50883.5
51126.1
51078.6
50784.5
50286
49609.4
48773.8
47776
46615.6
45326.3
43890.4
42044.4
40076.6
37971.7
35869.8
33834.6
32002.3
30484.2
29389.1
28795.9
28608.5
28816.7
29325.8
30027.9
30797.2
31582.9
32319.6
33005.5
33648.2
34268.6
34900.2
35564.8
36271.4
37051
37923.1
38799.7
39660.7
40464.4
41172.4
41748.7
42175.4
42458.9
42569.6
42582
42483.9
42320.4
42105.6
41868.7
41616.9
41345.8
41042.5
40687.5
40259.9
39754.9
39166.4
38512.5
37756
37002.4
57260.6
57262.4
57259
57135.3
56779.6
56189.5
55693.5
54460
53180.7
51988.3
50961.5
50122.7
49438.4
48806.3
48041.9
46871.2
45046.3
42588.4
39772.6
36894.9
34119.7
31519.9
29126.8
26957.1
24918.6
23171.7
21751.2
20870
20379.3
20182.1
20181.3
20251
20312.4
20276.5
20097.1
19816.1
19390.3
19023.8
19694.6
20490.2
21651.2
23141.8
24833.2
26604.6
28367.4
30053.7
31621.5
33047.1
34327.8
35497.5
36636.9
37853.8
39382.5
40711
42059.6
43499.1
45134.1
46718.4
48422.7
50197.4
52225.2
53556.7
54273.2
54517.4
54329.2
53727.3
52771.7
51466.9
49889.2
48063.8
45169
42640.4
39956.4
37283.9
34671.9
32150.3
29842
27731.8
25891.9
24297.7
22955.6
21880.7
21079.2
20533.4
20193
20023.5
20022.3
20174.1
20457.3
20921.4
21556.5
22437.3
23542.5