/*--------------------------------*- C++ -*----------------------------------*\
| =========                 |                                                 |
| \\      /  F ield         | OpenFOAM: The Open Source CFD Toolbox           |
|  \\    /   O peration     | Version:  v1912                                 |
|   \\  /    A nd           | Website:  www.openfoam.com                      |
|    \\/     M anipulation  |                                                 |
\*---------------------------------------------------------------------------*/
FoamFile
{
    version     2.0;
    format      ascii;
    class       volScalarField;
    location    "70";
    object      p;
}
// * * * * * * * * * * * * * * * * * * * * * * * * * * * * * * * * * * * * * //

dimensions      [1 -1 -2 0 0 0 0];


internalField   nonuniform List<scalar> 
14268
(
-147.181
-147.774
-148.366
-148.959
-149.552
-150.144
-150.736
-151.328
-151.92
-152.512
-153.104
-153.695
-154.286
-154.878
-155.469
-156.06
-156.651
-157.241
-157.832
-158.422
-159.013
-159.603
-160.193
-160.784
-161.374
-161.964
-162.554
-163.143
-163.733
-164.323
-164.912
-165.502
-166.092
-166.681
-167.27
-167.86
-168.449
-169.038
-169.628
-170.217
-170.806
-171.395
-171.984
-172.573
-173.162
-173.751
-174.34
-174.929
-175.518
-176.107
-176.696
-177.285
-177.874
-178.463
-179.051
-179.64
-180.229
-180.818
-181.406
-181.995
-182.584
-183.173
-183.761
-184.35
-184.939
-185.528
-186.116
-186.705
-187.294
-187.882
-188.471
-189.06
-189.648
-190.237
-190.826
-191.414
-192.003
-192.592
-193.18
-193.769
-194.357
-194.946
-195.535
-196.123
-196.712
-197.301
-197.889
-198.478
-199.066
-199.655
-200.244
-200.832
-201.421
-202.01
-202.598
-203.187
-203.775
-204.364
-204.953
-205.541
-206.13
-206.718
-207.307
-207.896
-208.484
-209.073
-209.661
-210.25
-210.839
-211.427
-212.016
-212.604
-213.193
-213.782
-214.37
-214.959
-215.547
-216.136
-216.725
-217.313
-217.902
-218.49
-219.079
-219.668
-220.256
-220.845
-221.433
-222.022
-222.611
-223.199
-223.788
-224.376
-224.965
-225.554
-226.142
-226.731
-227.319
-227.908
-228.497
-229.085
-229.674
-230.262
-230.851
-231.44
-232.028
-232.617
-233.205
-233.794
-234.383
-234.971
-235.56
-236.148
-236.737
-237.326
-237.914
-238.503
-239.091
-239.68
-240.269
-240.857
-241.446
-242.034
-242.623
-243.212
-147.302
-147.896
-148.488
-149.081
-149.674
-150.266
-150.858
-151.45
-152.042
-152.634
-153.226
-153.817
-154.408
-155
-155.591
-156.182
-156.773
-157.363
-157.954
-158.544
-159.135
-159.725
-160.315
-160.906
-161.496
-162.086
-162.675
-163.265
-163.855
-164.445
-165.034
-165.624
-166.213
-166.803
-167.392
-167.982
-168.571
-169.16
-169.75
-170.339
-170.928
-171.517
-172.106
-172.695
-173.284
-173.873
-174.462
-175.051
-175.64
-176.229
-176.818
-177.407
-177.996
-178.584
-179.173
-179.762
-180.351
-180.94
-181.528
-182.117
-182.706
-183.295
-183.883
-184.472
-185.061
-185.65
-186.238
-186.827
-187.416
-188.004
-188.593
-189.182
-189.77
-190.359
-190.948
-191.536
-192.125
-192.713
-193.302
-193.891
-194.479
-195.068
-195.657
-196.245
-196.834
-197.423
-198.011
-198.6
-199.188
-199.777
-200.366
-200.954
-201.543
-202.131
-202.72
-203.309
-203.897
-204.486
-205.074
-205.663
-206.252
-206.84
-207.429
-208.018
-208.606
-209.195
-209.783
-210.372
-210.961
-211.549
-212.138
-212.726
-213.315
-213.904
-214.492
-215.081
-215.669
-216.258
-216.847
-217.435
-218.024
-218.612
-219.201
-219.79
-220.378
-220.967
-221.555
-222.144
-222.733
-223.321
-223.91
-224.498
-225.087
-225.676
-226.264
-226.853
-227.441
-228.03
-228.619
-229.207
-229.796
-230.384
-230.973
-231.562
-232.15
-232.739
-233.327
-233.916
-234.505
-235.093
-235.682
-236.27
-236.859
-237.448
-238.036
-238.625
-239.213
-239.802
-240.391
-240.979
-241.568
-242.156
-242.745
-243.334
-147.424
-148.017
-148.61
-149.203
-149.796
-150.388
-150.98
-151.572
-152.164
-152.756
-153.348
-153.939
-154.53
-155.122
-155.713
-156.304
-156.894
-157.485
-158.076
-158.666
-159.257
-159.847
-160.437
-161.027
-161.618
-162.207
-162.797
-163.387
-163.977
-164.567
-165.156
-165.746
-166.335
-166.925
-167.514
-168.104
-168.693
-169.282
-169.871
-170.461
-171.05
-171.639
-172.228
-172.817
-173.406
-173.995
-174.584
-175.173
-175.762
-176.351
-176.94
-177.529
-178.118
-178.706
-179.295
-179.884
-180.473
-181.062
-181.65
-182.239
-182.828
-183.417
-184.005
-184.594
-185.183
-185.771
-186.36
-186.949
-187.537
-188.126
-188.715
-189.304
-189.892
-190.481
-191.069
-191.658
-192.247
-192.835
-193.424
-194.013
-194.601
-195.19
-195.779
-196.367
-196.956
-197.544
-198.133
-198.722
-199.31
-199.899
-200.488
-201.076
-201.665
-202.253
-202.842
-203.431
-204.019
-204.608
-205.196
-205.785
-206.374
-206.962
-207.551
-208.139
-208.728
-209.317
-209.905
-210.494
-211.082
-211.671
-212.26
-212.848
-213.437
-214.025
-214.614
-215.203
-215.791
-216.38
-216.968
-217.557
-218.146
-218.734
-219.323
-219.911
-220.5
-221.089
-221.677
-222.266
-222.854
-223.443
-224.032
-224.62
-225.209
-225.797
-226.386
-226.975
-227.563
-228.152
-228.74
-229.329
-229.918
-230.506
-231.095
-231.683
-232.272
-232.861
-233.449
-234.038
-234.626
-235.215
-235.804
-236.392
-236.981
-237.569
-238.158
-238.747
-239.335
-239.924
-240.512
-241.101
-241.69
-242.278
-242.867
-243.455
-147.546
-148.139
-148.732
-149.325
-149.918
-150.51
-151.102
-151.694
-152.286
-152.878
-153.469
-154.061
-154.652
-155.243
-155.835
-156.426
-157.016
-157.607
-158.198
-158.788
-159.379
-159.969
-160.559
-161.149
-161.739
-162.329
-162.919
-163.509
-164.099
-164.689
-165.278
-165.868
-166.457
-167.047
-167.636
-168.226
-168.815
-169.404
-169.993
-170.583
-171.172
-171.761
-172.35
-172.939
-173.528
-174.117
-174.706
-175.295
-175.884
-176.473
-177.062
-177.651
-178.239
-178.828
-179.417
-180.006
-180.595
-181.184
-181.772
-182.361
-182.95
-183.539
-184.127
-184.716
-185.305
-185.893
-186.482
-187.071
-187.659
-188.248
-188.837
-189.425
-190.014
-190.603
-191.191
-191.78
-192.369
-192.957
-193.546
-194.135
-194.723
-195.312
-195.9
-196.489
-197.078
-197.666
-198.255
-198.844
-199.432
-200.021
-200.609
-201.198
-201.787
-202.375
-202.964
-203.553
-204.141
-204.73
-205.318
-205.907
-206.496
-207.084
-207.673
-208.261
-208.85
-209.439
-210.027
-210.616
-211.204
-211.793
-212.382
-212.97
-213.559
-214.147
-214.736
-215.325
-215.913
-216.502
-217.09
-217.679
-218.268
-218.856
-219.445
-220.033
-220.622
-221.211
-221.799
-222.388
-222.976
-223.565
-224.154
-224.742
-225.331
-225.919
-226.508
-227.097
-227.685
-228.274
-228.862
-229.451
-230.04
-230.628
-231.217
-231.805
-232.394
-232.983
-233.571
-234.16
-234.748
-235.337
-235.926
-236.514
-237.103
-237.691
-238.28
-238.869
-239.457
-240.046
-240.634
-241.223
-241.812
-242.4
-242.989
-243.577
-147.668
-148.261
-148.854
-149.447
-150.039
-150.632
-151.224
-151.816
-152.408
-153
-153.591
-154.183
-154.774
-155.365
-155.956
-156.547
-157.138
-157.729
-158.32
-158.91
-159.501
-160.091
-160.681
-161.271
-161.861
-162.451
-163.041
-163.631
-164.221
-164.811
-165.4
-165.99
-166.579
-167.169
-167.758
-168.347
-168.937
-169.526
-170.115
-170.705
-171.294
-171.883
-172.472
-173.061
-173.65
-174.239
-174.828
-175.417
-176.006
-176.595
-177.184
-177.773
-178.361
-178.95
-179.539
-180.128
-180.717
-181.305
-181.894
-182.483
-183.072
-183.66
-184.249
-184.838
-185.427
-186.015
-186.604
-187.193
-187.781
-188.37
-188.959
-189.547
-190.136
-190.725
-191.313
-191.902
-192.491
-193.079
-193.668
-194.257
-194.845
-195.434
-196.022
-196.611
-197.2
-197.788
-198.377
-198.966
-199.554
-200.143
-200.731
-201.32
-201.909
-202.497
-203.086
-203.674
-204.263
-204.852
-205.44
-206.029
-206.617
-207.206
-207.795
-208.383
-208.972
-209.56
-210.149
-210.738
-211.326
-211.915
-212.503
-213.092
-213.681
-214.269
-214.858
-215.447
-216.035
-216.624
-217.212
-217.801
-218.39
-218.978
-219.567
-220.155
-220.744
-221.333
-221.921
-222.51
-223.098
-223.687
-224.276
-224.864
-225.453
-226.041
-226.63
-227.219
-227.807
-228.396
-228.984
-229.573
-230.162
-230.75
-231.339
-231.927
-232.516
-233.105
-233.693
-234.282
-234.87
-235.459
-236.048
-236.636
-237.225
-237.813
-238.402
-238.991
-239.579
-240.168
-240.756
-241.345
-241.934
-242.522
-243.111
-243.699
-147.79
-148.383
-148.976
-149.569
-150.161
-150.754
-151.346
-151.938
-152.53
-153.122
-153.713
-154.305
-154.896
-155.487
-156.078
-156.669
-157.26
-157.851
-158.442
-159.032
-159.623
-160.213
-160.803
-161.393
-161.983
-162.573
-163.163
-163.753
-164.343
-164.932
-165.522
-166.112
-166.701
-167.291
-167.88
-168.469
-169.059
-169.648
-170.237
-170.826
-171.416
-172.005
-172.594
-173.183
-173.772
-174.361
-174.95
-175.539
-176.128
-176.717
-177.306
-177.894
-178.483
-179.072
-179.661
-180.25
-180.839
-181.427
-182.016
-182.605
-183.194
-183.782
-184.371
-184.96
-185.549
-186.137
-186.726
-187.315
-187.903
-188.492
-189.081
-189.669
-190.258
-190.847
-191.435
-192.024
-192.613
-193.201
-193.79
-194.378
-194.967
-195.556
-196.144
-196.733
-197.322
-197.91
-198.499
-199.087
-199.676
-200.265
-200.853
-201.442
-202.031
-202.619
-203.208
-203.796
-204.385
-204.974
-205.562
-206.151
-206.739
-207.328
-207.917
-208.505
-209.094
-209.682
-210.271
-210.86
-211.448
-212.037
-212.625
-213.214
-213.803
-214.391
-214.98
-215.568
-216.157
-216.746
-217.334
-217.923
-218.511
-219.1
-219.689
-220.277
-220.866
-221.454
-222.043
-222.632
-223.22
-223.809
-224.397
-224.986
-225.575
-226.163
-226.752
-227.34
-227.929
-228.518
-229.106
-229.695
-230.283
-230.872
-231.461
-232.049
-232.638
-233.226
-233.815
-234.404
-234.992
-235.581
-236.169
-236.758
-237.347
-237.935
-238.524
-239.112
-239.701
-240.29
-240.878
-241.467
-242.055
-242.644
-243.233
-243.821
-147.912
-148.505
-149.098
-149.691
-150.283
-150.876
-151.468
-152.06
-152.652
-153.244
-153.835
-154.427
-155.018
-155.609
-156.2
-156.791
-157.382
-157.973
-158.564
-159.154
-159.744
-160.335
-160.925
-161.515
-162.105
-162.695
-163.285
-163.875
-164.465
-165.054
-165.644
-166.234
-166.823
-167.413
-168.002
-168.591
-169.181
-169.77
-170.359
-170.948
-171.538
-172.127
-172.716
-173.305
-173.894
-174.483
-175.072
-175.661
-176.25
-176.839
-177.428
-178.016
-178.605
-179.194
-179.783
-180.372
-180.961
-181.549
-182.138
-182.727
-183.316
-183.904
-184.493
-185.082
-185.67
-186.259
-186.848
-187.437
-188.025
-188.614
-189.203
-189.791
-190.38
-190.969
-191.557
-192.146
-192.734
-193.323
-193.912
-194.5
-195.089
-195.678
-196.266
-196.855
-197.444
-198.032
-198.621
-199.209
-199.798
-200.387
-200.975
-201.564
-202.152
-202.741
-203.33
-203.918
-204.507
-205.095
-205.684
-206.273
-206.861
-207.45
-208.039
-208.627
-209.216
-209.804
-210.393
-210.982
-211.57
-212.159
-212.747
-213.336
-213.925
-214.513
-215.102
-215.69
-216.279
-216.868
-217.456
-218.045
-218.633
-219.222
-219.811
-220.399
-220.988
-221.576
-222.165
-222.754
-223.342
-223.931
-224.519
-225.108
-225.697
-226.285
-226.874
-227.462
-228.051
-228.64
-229.228
-229.817
-230.405
-230.994
-231.583
-232.171
-232.76
-233.348
-233.937
-234.526
-235.114
-235.703
-236.291
-236.88
-237.469
-238.057
-238.646
-239.234
-239.823
-240.412
-241
-241.589
-242.177
-242.766
-243.355
-243.943
-148.034
-148.627
-149.22
-149.813
-150.405
-150.998
-151.59
-152.182
-152.774
-153.366
-153.957
-154.549
-155.14
-155.731
-156.322
-156.913
-157.504
-158.095
-158.685
-159.276
-159.866
-160.457
-161.047
-161.637
-162.227
-162.817
-163.407
-163.997
-164.587
-165.176
-165.766
-166.356
-166.945
-167.534
-168.124
-168.713
-169.303
-169.892
-170.481
-171.07
-171.659
-172.249
-172.838
-173.427
-174.016
-174.605
-175.194
-175.783
-176.372
-176.961
-177.549
-178.138
-178.727
-179.316
-179.905
-180.494
-181.082
-181.671
-182.26
-182.849
-183.437
-184.026
-184.615
-185.204
-185.792
-186.381
-186.97
-187.558
-188.147
-188.736
-189.324
-189.913
-190.502
-191.09
-191.679
-192.268
-192.856
-193.445
-194.034
-194.622
-195.211
-195.8
-196.388
-196.977
-197.565
-198.154
-198.743
-199.331
-199.92
-200.509
-201.097
-201.686
-202.274
-202.863
-203.452
-204.04
-204.629
-205.217
-205.806
-206.395
-206.983
-207.572
-208.16
-208.749
-209.338
-209.926
-210.515
-211.103
-211.692
-212.281
-212.869
-213.458
-214.046
-214.635
-215.224
-215.812
-216.401
-216.989
-217.578
-218.167
-218.755
-219.344
-219.932
-220.521
-221.11
-221.698
-222.287
-222.875
-223.464
-224.053
-224.641
-225.23
-225.818
-226.407
-226.996
-227.584
-228.173
-228.761
-229.35
-229.939
-230.527
-231.116
-231.704
-232.293
-232.882
-233.47
-234.059
-234.647
-235.236
-235.825
-236.413
-237.002
-237.59
-238.179
-238.768
-239.356
-239.945
-240.533
-241.122
-241.711
-242.299
-242.888
-243.476
-244.065
-148.156
-148.749
-149.342
-149.935
-150.527
-151.12
-151.712
-152.304
-152.896
-153.487
-154.079
-154.671
-155.262
-155.853
-156.444
-157.035
-157.626
-158.217
-158.807
-159.398
-159.988
-160.579
-161.169
-161.759
-162.349
-162.939
-163.529
-164.119
-164.709
-165.298
-165.888
-166.477
-167.067
-167.656
-168.246
-168.835
-169.425
-170.014
-170.603
-171.192
-171.781
-172.371
-172.96
-173.549
-174.138
-174.727
-175.316
-175.905
-176.494
-177.082
-177.671
-178.26
-178.849
-179.438
-180.027
-180.616
-181.204
-181.793
-182.382
-182.971
-183.559
-184.148
-184.737
-185.326
-185.914
-186.503
-187.092
-187.68
-188.269
-188.858
-189.446
-190.035
-190.624
-191.212
-191.801
-192.39
-192.978
-193.567
-194.156
-194.744
-195.333
-195.921
-196.51
-197.099
-197.687
-198.276
-198.865
-199.453
-200.042
-200.63
-201.219
-201.808
-202.396
-202.985
-203.574
-204.162
-204.751
-205.339
-205.928
-206.517
-207.105
-207.694
-208.282
-208.871
-209.46
-210.048
-210.637
-211.225
-211.814
-212.403
-212.991
-213.58
-214.168
-214.757
-215.346
-215.934
-216.523
-217.111
-217.7
-218.289
-218.877
-219.466
-220.054
-220.643
-221.232
-221.82
-222.409
-222.997
-223.586
-224.175
-224.763
-225.352
-225.94
-226.529
-227.118
-227.706
-228.295
-228.883
-229.472
-230.061
-230.649
-231.238
-231.826
-232.415
-233.004
-233.592
-234.181
-234.769
-235.358
-235.947
-236.535
-237.124
-237.712
-238.301
-238.89
-239.478
-240.067
-240.655
-241.244
-241.833
-242.421
-243.01
-243.598
-244.187
-148.278
-148.871
-149.464
-150.057
-150.649
-151.241
-151.834
-152.426
-153.018
-153.609
-154.201
-154.793
-155.384
-155.975
-156.566
-157.157
-157.748
-158.339
-158.929
-159.52
-160.11
-160.701
-161.291
-161.881
-162.471
-163.061
-163.651
-164.241
-164.83
-165.42
-166.01
-166.599
-167.189
-167.778
-168.368
-168.957
-169.546
-170.136
-170.725
-171.314
-171.903
-172.492
-173.082
-173.671
-174.26
-174.849
-175.438
-176.027
-176.615
-177.204
-177.793
-178.382
-178.971
-179.56
-180.149
-180.737
-181.326
-181.915
-182.504
-183.093
-183.681
-184.27
-184.859
-185.447
-186.036
-186.625
-187.214
-187.802
-188.391
-188.98
-189.568
-190.157
-190.746
-191.334
-191.923
-192.512
-193.1
-193.689
-194.278
-194.866
-195.455
-196.043
-196.632
-197.221
-197.809
-198.398
-198.987
-199.575
-200.164
-200.752
-201.341
-201.93
-202.518
-203.107
-203.695
-204.284
-204.873
-205.461
-206.05
-206.638
-207.227
-207.816
-208.404
-208.993
-209.582
-210.17
-210.759
-211.347
-211.936
-212.525
-213.113
-213.702
-214.29
-214.879
-215.468
-216.056
-216.645
-217.233
-217.822
-218.411
-218.999
-219.588
-220.176
-220.765
-221.354
-221.942
-222.531
-223.119
-223.708
-224.297
-224.885
-225.474
-226.062
-226.651
-227.24
-227.828
-228.417
-229.005
-229.594
-230.183
-230.771
-231.36
-231.948
-232.537
-233.126
-233.714
-234.303
-234.891
-235.48
-236.069
-236.657
-237.246
-237.834
-238.423
-239.012
-239.6
-240.189
-240.777
-241.366
-241.955
-242.543
-243.132
-243.72
-244.309
-148.4
-148.993
-149.586
-150.179
-150.771
-151.363
-151.956
-152.548
-153.14
-153.731
-154.323
-154.914
-155.506
-156.097
-156.688
-157.279
-157.87
-158.461
-159.051
-159.642
-160.232
-160.822
-161.413
-162.003
-162.593
-163.183
-163.773
-164.363
-164.952
-165.542
-166.132
-166.721
-167.311
-167.9
-168.49
-169.079
-169.668
-170.258
-170.847
-171.436
-172.025
-172.614
-173.203
-173.793
-174.382
-174.971
-175.56
-176.148
-176.737
-177.326
-177.915
-178.504
-179.093
-179.682
-180.271
-180.859
-181.448
-182.037
-182.626
-183.215
-183.803
-184.392
-184.981
-185.569
-186.158
-186.747
-187.336
-187.924
-188.513
-189.102
-189.69
-190.279
-190.868
-191.456
-192.045
-192.634
-193.222
-193.811
-194.399
-194.988
-195.577
-196.165
-196.754
-197.343
-197.931
-198.52
-199.108
-199.697
-200.286
-200.874
-201.463
-202.052
-202.64
-203.229
-203.817
-204.406
-204.995
-205.583
-206.172
-206.76
-207.349
-207.938
-208.526
-209.115
-209.703
-210.292
-210.881
-211.469
-212.058
-212.646
-213.235
-213.824
-214.412
-215.001
-215.589
-216.178
-216.767
-217.355
-217.944
-218.532
-219.121
-219.71
-220.298
-220.887
-221.475
-222.064
-222.653
-223.241
-223.83
-224.418
-225.007
-225.596
-226.184
-226.773
-227.361
-227.95
-228.539
-229.127
-229.716
-230.304
-230.893
-231.482
-232.07
-232.659
-233.247
-233.836
-234.425
-235.013
-235.602
-236.19
-236.779
-237.368
-237.956
-238.545
-239.133
-239.722
-240.311
-240.899
-241.488
-242.076
-242.665
-243.254
-243.842
-244.431
-148.522
-149.115
-149.708
-150.3
-150.893
-151.485
-152.078
-152.67
-153.262
-153.853
-154.445
-155.036
-155.628
-156.219
-156.81
-157.401
-157.992
-158.583
-159.173
-159.764
-160.354
-160.944
-161.535
-162.125
-162.715
-163.305
-163.895
-164.485
-165.074
-165.664
-166.254
-166.843
-167.433
-168.022
-168.612
-169.201
-169.79
-170.38
-170.969
-171.558
-172.147
-172.736
-173.325
-173.914
-174.503
-175.092
-175.681
-176.27
-176.859
-177.448
-178.037
-178.626
-179.215
-179.804
-180.393
-180.981
-181.57
-182.159
-182.748
-183.336
-183.925
-184.514
-185.103
-185.691
-186.28
-186.869
-187.457
-188.046
-188.635
-189.223
-189.812
-190.401
-190.989
-191.578
-192.167
-192.755
-193.344
-193.933
-194.521
-195.11
-195.699
-196.287
-196.876
-197.465
-198.053
-198.642
-199.23
-199.819
-200.408
-200.996
-201.585
-202.173
-202.762
-203.351
-203.939
-204.528
-205.117
-205.705
-206.294
-206.882
-207.471
-208.06
-208.648
-209.237
-209.825
-210.414
-211.003
-211.591
-212.18
-212.768
-213.357
-213.946
-214.534
-215.123
-215.711
-216.3
-216.889
-217.477
-218.066
-218.654
-219.243
-219.832
-220.42
-221.009
-221.597
-222.186
-222.775
-223.363
-223.952
-224.54
-225.129
-225.718
-226.306
-226.895
-227.483
-228.072
-228.661
-229.249
-229.838
-230.426
-231.015
-231.604
-232.192
-232.781
-233.369
-233.958
-234.547
-235.135
-235.724
-236.312
-236.901
-237.49
-238.078
-238.667
-239.255
-239.844
-240.433
-241.021
-241.61
-242.198
-242.787
-243.376
-243.964
-244.553
-148.644
-149.237
-149.83
-150.422
-151.015
-151.607
-152.199
-152.792
-153.383
-153.975
-154.567
-155.158
-155.75
-156.341
-156.932
-157.523
-158.114
-158.704
-159.295
-159.886
-160.476
-161.066
-161.657
-162.247
-162.837
-163.427
-164.017
-164.606
-165.196
-165.786
-166.376
-166.965
-167.555
-168.144
-168.734
-169.323
-169.912
-170.501
-171.091
-171.68
-172.269
-172.858
-173.447
-174.036
-174.625
-175.214
-175.803
-176.392
-176.981
-177.57
-178.159
-178.748
-179.337
-179.926
-180.514
-181.103
-181.692
-182.281
-182.87
-183.458
-184.047
-184.636
-185.225
-185.813
-186.402
-186.991
-187.579
-188.168
-188.757
-189.345
-189.934
-190.523
-191.111
-191.7
-192.289
-192.877
-193.466
-194.055
-194.643
-195.232
-195.821
-196.409
-196.998
-197.586
-198.175
-198.764
-199.352
-199.941
-200.53
-201.118
-201.707
-202.295
-202.884
-203.473
-204.061
-204.65
-205.238
-205.827
-206.416
-207.004
-207.593
-208.181
-208.77
-209.359
-209.947
-210.536
-211.124
-211.713
-212.302
-212.89
-213.479
-214.067
-214.656
-215.245
-215.833
-216.422
-217.011
-217.599
-218.188
-218.776
-219.365
-219.954
-220.542
-221.131
-221.719
-222.308
-222.897
-223.485
-224.074
-224.662
-225.251
-225.84
-226.428
-227.017
-227.605
-228.194
-228.783
-229.371
-229.96
-230.548
-231.137
-231.726
-232.314
-232.903
-233.491
-234.08
-234.669
-235.257
-235.846
-236.434
-237.023
-237.612
-238.2
-238.789
-239.377
-239.966
-240.555
-241.143
-241.732
-242.32
-242.909
-243.498
-244.086
-244.675
-148.766
-149.359
-149.952
-150.544
-151.137
-151.729
-152.321
-152.913
-153.505
-154.097
-154.689
-155.28
-155.872
-156.463
-157.054
-157.645
-158.236
-158.826
-159.417
-160.008
-160.598
-161.188
-161.779
-162.369
-162.959
-163.549
-164.139
-164.728
-165.318
-165.908
-166.498
-167.087
-167.677
-168.266
-168.855
-169.445
-170.034
-170.623
-171.213
-171.802
-172.391
-172.98
-173.569
-174.158
-174.747
-175.336
-175.925
-176.514
-177.103
-177.692
-178.281
-178.87
-179.459
-180.048
-180.636
-181.225
-181.814
-182.403
-182.992
-183.58
-184.169
-184.758
-185.346
-185.935
-186.524
-187.113
-187.701
-188.29
-188.879
-189.467
-190.056
-190.645
-191.233
-191.822
-192.411
-192.999
-193.588
-194.177
-194.765
-195.354
-195.942
-196.531
-197.12
-197.708
-198.297
-198.886
-199.474
-200.063
-200.651
-201.24
-201.829
-202.417
-203.006
-203.595
-204.183
-204.772
-205.36
-205.949
-206.538
-207.126
-207.715
-208.303
-208.892
-209.481
-210.069
-210.658
-211.246
-211.835
-212.424
-213.012
-213.601
-214.189
-214.778
-215.367
-215.955
-216.544
-217.132
-217.721
-218.31
-218.898
-219.487
-220.075
-220.664
-221.253
-221.841
-222.43
-223.018
-223.607
-224.196
-224.784
-225.373
-225.961
-226.55
-227.139
-227.727
-228.316
-228.904
-229.493
-230.082
-230.67
-231.259
-231.847
-232.436
-233.025
-233.613
-234.202
-234.79
-235.379
-235.968
-236.556
-237.145
-237.733
-238.322
-238.911
-239.499
-240.088
-240.676
-241.265
-241.854
-242.442
-243.031
-243.619
-244.208
-244.797
-148.949
-149.542
-150.134
-150.727
-151.32
-151.912
-152.504
-153.096
-153.688
-154.28
-154.872
-155.463
-156.054
-156.646
-157.237
-157.828
-158.419
-159.009
-159.6
-160.19
-160.781
-161.371
-161.961
-162.552
-163.142
-163.732
-164.321
-164.911
-165.501
-166.091
-166.68
-167.27
-167.859
-168.449
-169.038
-169.628
-170.217
-170.806
-171.396
-171.985
-172.574
-173.163
-173.752
-174.341
-174.93
-175.519
-176.108
-176.697
-177.286
-177.875
-178.464
-179.053
-179.642
-180.23
-180.819
-181.408
-181.997
-182.586
-183.174
-183.763
-184.352
-184.941
-185.529
-186.118
-186.707
-187.295
-187.884
-188.473
-189.062
-189.65
-190.239
-190.828
-191.416
-192.005
-192.594
-193.182
-193.771
-194.359
-194.948
-195.537
-196.125
-196.714
-197.303
-197.891
-198.48
-199.068
-199.657
-200.246
-200.834
-201.423
-202.012
-202.6
-203.189
-203.777
-204.366
-204.955
-205.543
-206.132
-206.72
-207.309
-207.898
-208.486
-209.075
-209.663
-210.252
-210.841
-211.429
-212.018
-212.606
-213.195
-213.784
-214.372
-214.961
-215.55
-216.138
-216.727
-217.315
-217.904
-218.493
-219.081
-219.67
-220.258
-220.847
-221.436
-222.024
-222.613
-223.201
-223.79
-224.379
-224.967
-225.556
-226.144
-226.733
-227.322
-227.91
-228.499
-229.087
-229.676
-230.265
-230.853
-231.442
-232.03
-232.619
-233.208
-233.796
-234.385
-234.973
-235.562
-236.151
-236.739
-237.328
-237.916
-238.505
-239.094
-239.682
-240.271
-240.859
-241.448
-242.037
-242.625
-243.214
-243.802
-244.391
-244.98
-149.192
-149.785
-150.378
-150.971
-151.564
-152.156
-152.748
-153.34
-153.932
-154.524
-155.116
-155.707
-156.298
-156.89
-157.481
-158.072
-158.662
-159.253
-159.844
-160.434
-161.025
-161.615
-162.205
-162.795
-163.385
-163.975
-164.565
-165.155
-165.745
-166.335
-166.924
-167.514
-168.103
-168.693
-169.282
-169.872
-170.461
-171.05
-171.639
-172.229
-172.818
-173.407
-173.996
-174.585
-175.174
-175.763
-176.352
-176.941
-177.53
-178.119
-178.708
-179.297
-179.885
-180.474
-181.063
-181.652
-182.241
-182.829
-183.418
-184.007
-184.596
-185.184
-185.773
-186.362
-186.951
-187.539
-188.128
-188.717
-189.305
-189.894
-190.483
-191.071
-191.66
-192.249
-192.837
-193.426
-194.015
-194.603
-195.192
-195.781
-196.369
-196.958
-197.546
-198.135
-198.724
-199.312
-199.901
-200.49
-201.078
-201.667
-202.255
-202.844
-203.433
-204.021
-204.61
-205.198
-205.787
-206.376
-206.964
-207.553
-208.142
-208.73
-209.319
-209.907
-210.496
-211.085
-211.673
-212.262
-212.85
-213.439
-214.028
-214.616
-215.205
-215.793
-216.382
-216.971
-217.559
-218.148
-218.736
-219.325
-219.914
-220.502
-221.091
-221.679
-222.268
-222.857
-223.445
-224.034
-224.622
-225.211
-225.8
-226.388
-226.977
-227.565
-228.154
-228.743
-229.331
-229.92
-230.508
-231.097
-231.686
-232.274
-232.863
-233.451
-234.04
-234.629
-235.217
-235.806
-236.394
-236.983
-237.572
-238.16
-238.749
-239.337
-239.926
-240.515
-241.103
-241.692
-242.28
-242.869
-243.458
-244.046
-244.635
-245.223
-149.436
-150.029
-150.622
-151.215
-151.807
-152.4
-152.992
-153.584
-154.176
-154.768
-155.359
-155.951
-156.542
-157.133
-157.724
-158.315
-158.906
-159.497
-160.088
-160.678
-161.269
-161.859
-162.449
-163.039
-163.629
-164.219
-164.809
-165.399
-165.989
-166.578
-167.168
-167.758
-168.347
-168.937
-169.526
-170.115
-170.705
-171.294
-171.883
-172.472
-173.062
-173.651
-174.24
-174.829
-175.418
-176.007
-176.596
-177.185
-177.774
-178.363
-178.952
-179.54
-180.129
-180.718
-181.307
-181.896
-182.485
-183.073
-183.662
-184.251
-184.84
-185.428
-186.017
-186.606
-187.194
-187.783
-188.372
-188.961
-189.549
-190.138
-190.727
-191.315
-191.904
-192.493
-193.081
-193.67
-194.259
-194.847
-195.436
-196.024
-196.613
-197.202
-197.79
-198.379
-198.968
-199.556
-200.145
-200.733
-201.322
-201.911
-202.499
-203.088
-203.676
-204.265
-204.854
-205.442
-206.031
-206.62
-207.208
-207.797
-208.385
-208.974
-209.563
-210.151
-210.74
-211.328
-211.917
-212.506
-213.094
-213.683
-214.271
-214.86
-215.449
-216.037
-216.626
-217.214
-217.803
-218.392
-218.98
-219.569
-220.157
-220.746
-221.335
-221.923
-222.512
-223.1
-223.689
-224.278
-224.866
-225.455
-226.043
-226.632
-227.221
-227.809
-228.398
-228.986
-229.575
-230.164
-230.752
-231.341
-231.929
-232.518
-233.107
-233.695
-234.284
-234.872
-235.461
-236.05
-236.638
-237.227
-237.815
-238.404
-238.993
-239.581
-240.17
-240.758
-241.347
-241.936
-242.524
-243.113
-243.701
-244.29
-244.879
-245.467
-149.68
-150.273
-150.866
-151.459
-152.051
-152.644
-153.236
-153.828
-154.42
-155.012
-155.603
-156.195
-156.786
-157.377
-157.968
-158.559
-159.15
-159.741
-160.331
-160.922
-161.512
-162.103
-162.693
-163.283
-163.873
-164.463
-165.053
-165.643
-166.233
-166.822
-167.412
-168.002
-168.591
-169.181
-169.77
-170.359
-170.949
-171.538
-172.127
-172.716
-173.305
-173.895
-174.484
-175.073
-175.662
-176.251
-176.84
-177.429
-178.018
-178.607
-179.195
-179.784
-180.373
-180.962
-181.551
-182.14
-182.728
-183.317
-183.906
-184.495
-185.083
-185.672
-186.261
-186.85
-187.438
-188.027
-188.616
-189.204
-189.793
-190.382
-190.97
-191.559
-192.148
-192.736
-193.325
-193.914
-194.502
-195.091
-195.68
-196.268
-196.857
-197.446
-198.034
-198.623
-199.211
-199.8
-200.389
-200.977
-201.566
-202.155
-202.743
-203.332
-203.92
-204.509
-205.098
-205.686
-206.275
-206.863
-207.452
-208.041
-208.629
-209.218
-209.806
-210.395
-210.984
-211.572
-212.161
-212.749
-213.338
-213.927
-214.515
-215.104
-215.692
-216.281
-216.87
-217.458
-218.047
-218.635
-219.224
-219.813
-220.401
-220.99
-221.578
-222.167
-222.756
-223.344
-223.933
-224.521
-225.11
-225.699
-226.287
-226.876
-227.464
-228.053
-228.642
-229.23
-229.819
-230.407
-230.996
-231.585
-232.173
-232.762
-233.35
-233.939
-234.528
-235.116
-235.705
-236.293
-236.882
-237.471
-238.059
-238.648
-239.236
-239.825
-240.414
-241.002
-241.591
-242.179
-242.768
-243.357
-243.945
-244.534
-245.122
-245.711
-149.924
-150.517
-151.11
-151.703
-152.295
-152.888
-153.48
-154.072
-154.664
-155.256
-155.847
-156.439
-157.03
-157.621
-158.212
-158.803
-159.394
-159.985
-160.575
-161.166
-161.756
-162.347
-162.937
-163.527
-164.117
-164.707
-165.297
-165.887
-166.476
-167.066
-167.656
-168.245
-168.835
-169.424
-170.014
-170.603
-171.192
-171.782
-172.371
-172.96
-173.549
-174.138
-174.728
-175.317
-175.906
-176.495
-177.084
-177.673
-178.261
-178.85
-179.439
-180.028
-180.617
-181.206
-181.795
-182.383
-182.972
-183.561
-184.15
-184.739
-185.327
-185.916
-186.505
-187.093
-187.682
-188.271
-188.86
-189.448
-190.037
-190.626
-191.214
-191.803
-192.392
-192.98
-193.569
-194.158
-194.746
-195.335
-195.923
-196.512
-197.101
-197.689
-198.278
-198.867
-199.455
-200.044
-200.633
-201.221
-201.81
-202.398
-202.987
-203.576
-204.164
-204.753
-205.341
-205.93
-206.519
-207.107
-207.696
-208.284
-208.873
-209.462
-210.05
-210.639
-211.227
-211.816
-212.405
-212.993
-213.582
-214.17
-214.759
-215.348
-215.936
-216.525
-217.114
-217.702
-218.291
-218.879
-219.468
-220.057
-220.645
-221.234
-221.822
-222.411
-223
-223.588
-224.177
-224.765
-225.354
-225.943
-226.531
-227.12
-227.708
-228.297
-228.886
-229.474
-230.063
-230.651
-231.24
-231.829
-232.417
-233.006
-233.594
-234.183
-234.772
-235.36
-235.949
-236.537
-237.126
-237.715
-238.303
-238.892
-239.48
-240.069
-240.658
-241.246
-241.835
-242.423
-243.012
-243.601
-244.189
-244.778
-245.366
-245.955
-150.168
-150.761
-151.354
-151.947
-152.539
-153.131
-153.724
-154.316
-154.908
-155.499
-156.091
-156.682
-157.274
-157.865
-158.456
-159.047
-159.638
-160.229
-160.819
-161.41
-162
-162.59
-163.181
-163.771
-164.361
-164.951
-165.541
-166.131
-166.72
-167.31
-167.9
-168.489
-169.079
-169.668
-170.258
-170.847
-171.436
-172.026
-172.615
-173.204
-173.793
-174.382
-174.971
-175.56
-176.149
-176.738
-177.327
-177.916
-178.505
-179.094
-179.683
-180.272
-180.861
-181.45
-182.039
-182.627
-183.216
-183.805
-184.394
-184.982
-185.571
-186.16
-186.749
-187.337
-187.926
-188.515
-189.103
-189.692
-190.281
-190.869
-191.458
-192.047
-192.635
-193.224
-193.813
-194.401
-194.99
-195.579
-196.167
-196.756
-197.345
-197.933
-198.522
-199.11
-199.699
-200.288
-200.876
-201.465
-202.054
-202.642
-203.231
-203.819
-204.408
-204.997
-205.585
-206.174
-206.762
-207.351
-207.94
-208.528
-209.117
-209.706
-210.294
-210.883
-211.471
-212.06
-212.649
-213.237
-213.826
-214.414
-215.003
-215.592
-216.18
-216.769
-217.357
-217.946
-218.535
-219.123
-219.712
-220.3
-220.889
-221.478
-222.066
-222.655
-223.243
-223.832
-224.421
-225.009
-225.598
-226.186
-226.775
-227.364
-227.952
-228.541
-229.129
-229.718
-230.307
-230.895
-231.484
-232.072
-232.661
-233.25
-233.838
-234.427
-235.015
-235.604
-236.193
-236.781
-237.37
-237.958
-238.547
-239.136
-239.724
-240.313
-240.901
-241.49
-242.079
-242.667
-243.256
-243.844
-244.433