/*--------------------------------*- C++ -*----------------------------------*\
| =========                 |                                                 |
| \\      /  F ield         | OpenFOAM: The Open Source CFD Toolbox           |
|  \\    /   O peration     | Version:  v1912                                 |
|   \\  /    A nd           | Website:  www.openfoam.com                      |
|    \\/     M anipulation  |                                                 |
\*---------------------------------------------------------------------------*/
FoamFile
{
    version     2.0;
    format      ascii;
    class       volVectorField;
    location    "50";
    object      U;
}
// * * * * * * * * * * * * * * * * * * * * * * * * * * * * * * * * * * * * * //

dimensions      [0 1 -1 0 0 0 0];


internalField   nonuniform List<vector> 
114144
(
(0.926392 0.0293402 0)
(0.968288 0.0159397 0)
(0.974305 0.00643476 0)
(0.969086 -0.00193293 0)
(0.951511 -0.00970332 0)
(0.920151 -0.0175752 0)
(0.873836 -0.025831 0)
(0.811586 -0.0345143 0)
(0.732739 -0.0434291 0)
(0.63715 -0.0522014 0)
(0.52548 -0.0603326 0)
(0.399328 -0.0672343 0)
(0.261052 -0.0723337 0)
(0.112584 -0.0752469 0)
(-0.0342731 -0.0744794 0)
(-0.179593 -0.0724558 0)
(-0.324523 -0.0673488 0)
(-0.457367 -0.0600162 0)
(-0.575726 -0.0510043 0)
(-0.676663 -0.0409727 0)
(-0.758308 -0.0305952 0)
(-0.819851 -0.0204943 0)
(-0.861602 -0.011042 0)
(-0.884743 -0.00268616 0)
(-0.890596 0.00406014 0)
(-0.881025 0.00994605 0)
(-0.858101 0.0147137 0)
(-0.823209 0.0186125 0)
(-0.777486 0.0218932 0)
(-0.721726 0.024938 0)
(-0.65646 0.027927 0)
(-0.582021 0.0309249 0)
(-0.498746 0.0338808 0)
(-0.407155 0.0366469 0)
(-0.308098 0.0390101 0)
(-0.202519 0.0407319 0)
(-0.0914474 0.0415856 0)
(0.0165098 0.0406682 0)
(0.12392 0.0399276 0)
(0.232171 0.0374254 0)
(0.33182 0.0338742 0)
(0.421894 0.0293426 0)
(0.499656 0.0240351 0)
(0.562929 0.0181536 0)
(0.609957 0.011932 0)
(0.63949 0.00560351 0)
(0.65103 -0.000401774 0)
(0.644487 -0.00659391 0)
(0.620413 -0.0120247 0)
(0.580112 -0.01675 0)
(0.525333 -0.0206146 0)
(0.458385 -0.0235049 0)
(0.381991 -0.0253729 0)
(0.299146 -0.0262768 0)
(0.210601 -0.0265264 0)
(0.120353 -0.0227531 0)
(0.0467014 -0.0199663 0)
(-0.0264729 -0.0183677 0)
(-0.104016 -0.015993 0)
(-0.167126 -0.0131446 0)
(-0.222337 -0.0103929 0)
(-0.26864 -0.00804797 0)
(-0.307072 -0.0062652 0)
(-0.338339 -0.00498428 0)
(-0.363102 -0.00391922 0)
(-0.381712 -0.00294601 0)
(-0.394175 -0.0019155 0)
(-0.400153 -0.000768601 0)
(-0.398887 0.000817725 0)
(-0.389415 0.00266576 0)
(-0.370953 0.0047856 0)
(-0.342954 0.0070585 0)
(-0.305394 0.00930825 0)
(-0.258911 0.011328 0)
(-0.204783 0.0129236 0)
(-0.145159 0.0139434 0)
(-0.0807107 0.0145549 0)
(-0.0178975 0.013171 0)
(0.0432954 0.0129446 0)
(0.103643 0.0114627 0)
(0.157794 0.00989423 0)
(0.206921 0.00834823 0)
(0.250828 0.00706068 0)
(0.290341 0.00617382 0)
(0.326534 0.00574523 0)
(0.360562 0.00572402 0)
(0.393298 0.00595698 0)
(0.425057 0.00622261 0)
(0.455439 0.00628703 0)
(0.48335 0.00595416 0)
(0.507139 0.00509724 0)
(0.524884 0.003676 0)
(0.534561 0.0017208 0)
(0.534525 -0.000516087 0)
(0.52369 -0.00305259 0)
(0.50132 -0.00556168 0)
(0.467535 -0.00785999 0)
(0.423029 -0.00979748 0)
(0.369002 -0.0112907 0)
(0.306925 -0.0123299 0)
(0.238297 -0.0129727 0)
(0.164552 -0.0133252 0)
(0.0865874 -0.013513 0)
(0.0056402 -0.0137 0)
(-0.0780665 -0.0138505 0)
(-0.16452 -0.0141188 0)
(-0.252767 -0.0144057 0)
(-0.342385 -0.0146265 0)
(-0.432324 -0.0146598 0)
(-0.521165 -0.0143796 0)
(-0.607024 -0.0136815 0)
(-0.6877 -0.0125024 0)
(-0.76074 -0.0108345 0)
(-0.823723 -0.00872498 0)
(-0.874352 -0.00626715 0)
(-0.910688 -0.00358598 0)
(-0.931355 -0.000839706 0)
(-0.935571 0.00186298 0)
(-0.922342 0.00444118 0)
(-0.892074 0.00678364 0)
(-0.84509 0.00887031 0)
(-0.782167 0.010697 0)
(-0.7042 0.0122779 0)
(-0.612424 0.0136257 0)
(-0.507904 0.0147614 0)
(-0.392857 0.0156323 0)
(-0.267197 0.0163941 0)
(-0.134182 0.0164373 0)
(0.000126344 0.0162364 0)
(0.137236 0.0159943 0)
(0.275547 0.015022 0)
(0.408527 0.0136389 0)
(0.533912 0.0118431 0)
(0.648724 0.00970562 0)
(0.75016 0.00733245 0)
(0.836087 0.00484871 0)
(0.904949 0.00238516 0)
(0.9559 5.19783e-05 0)
(0.989023 -0.0020398 0)
(1.00403 -0.00432556 0)
(1.00268 -0.00486817 0)
(0.987164 -0.00578789 0)
(0.95773 -0.006278 0)
(0.916487 -0.00645691 0)
(0.865048 -0.00639177 0)
(0.804891 -0.00613037 0)
(0.737501 -0.00578727 0)
(0.66367 -0.00553861 0)
(0.582701 -0.00496843 0)
(0.496785 -0.00418785 0)
(0.40869 -0.00380761 0)
(0.318416 -0.00331111 0)
(0.224786 -0.00279502 0)
(0.130441 -0.00219025 0)
(0.0352183 -0.00132221 0)
(-0.0651282 -0.000889111 0)
(-0.167051 9.07931e-05 0)
(-0.266956 0.00109469 0)
(-0.364824 0.00219173 0)
(-0.459285 0.00337226 0)
(-0.549401 0.00455646 0)
(-0.632227 0.00576281 0)
(-0.708973 0.00677935 0)
(-0.771792 0.00779557 0)
(-0.825769 0.00818817 0)
(-0.869991 0.00857883 0)
(-0.894809 0.00832869 0)
(-0.907429 0.00750367 0)
(-0.902042 0.00652419 0)
(-0.882555 0.00484122 0)
(-0.847825 0.00290336 0)
(-0.800127 0.000808784 0)
(-0.740262 -0.00139751 0)
(-0.67071 -0.00365847 0)
(-0.594279 -0.00567702 0)
(-0.513227 -0.00742553 0)
(-0.428938 -0.00907097 0)
(-0.34286 -0.0105309 0)
(-0.255994 -0.0117525 0)
(-0.16943 -0.0127515 0)
(-0.0842018 -0.0135477 0)
(0.00133103 -0.0141476 0)
(0.0860368 -0.0145487 0)
(0.1687 -0.0147387 0)
(0.249025 -0.0146726 0)
(0.326119 -0.0143017 0)
(0.39872 -0.0135469 0)
(0.465342 -0.01236 0)
(0.524031 -0.0107546 0)
(0.572662 -0.00878306 0)
(0.609725 -0.00647993 0)
(0.634354 -0.00393084 0)
(0.646061 -0.00129865 0)
(0.644936 0.00117562 0)
(0.631612 0.00351674 0)
(0.607101 0.00559199 0)
(0.573599 0.00719069 0)
(0.533247 0.00830905 0)
(0.488369 0.00897281 0)
(0.441188 0.009238 0)
(0.393512 0.00917089 0)
(0.346946 0.00884598 0)
(0.302594 0.00832564 0)
(0.261353 0.00767247 0)
(0.223683 0.00693795 0)
(0.189888 0.00619294 0)
(0.159949 0.00543809 0)
(0.133631 0.00481194 0)
(0.110456 0.00429873 0)
(0.0896891 0.00393148 0)
(0.0704574 0.00375754 0)
(0.0516589 0.00378838 0)
(0.0321994 0.004031 0)
(0.0109638 0.00448593 0)
(-0.0131346 0.00510913 0)
(-0.0409717 0.0058794 0)
(-0.0731335 0.00672871 0)
(-0.109854 0.00758308 0)
(-0.151008 0.00837684 0)
(-0.19605 0.00902637 0)
(-0.244063 0.00946646 0)
(-0.293747 0.00963065 0)
(-0.343535 0.0094804 0)
(-0.391664 0.00898366 0)
(-0.436186 0.00814194 0)
(-0.47537 0.0069769 0)
(-0.507532 0.00551218 0)
(-0.531341 0.00382945 0)
(-0.545807 0.0019786 0)
(-0.550125 -3.34318e-05 0)
(-0.543675 -0.00201691 0)
(-0.526839 -0.00395612 0)
(-0.500035 -0.00578271 0)
(-0.46399 -0.00744945 0)
(-0.419678 -0.00891723 0)
(-0.368251 -0.0101647 0)
(-0.31087 -0.0111833 0)
(-0.248746 -0.0119745 0)
(-0.183079 -0.0125432 0)
(-0.115086 -0.012893 0)
(-0.0457967 -0.013022 0)
(0.024077 -0.0129324 0)
(0.0928339 -0.0125906 0)
(0.158936 -0.0119999 0)
(0.221077 -0.0111462 0)
(0.277897 -0.0100158 0)
(0.328056 -0.0085123 0)
(0.369533 -0.00663385 0)
(0.402915 -0.00423309 0)
(0.420482 -0.00497298 0)
(0.913103 0.0102085 0)
(0.967081 0.00371637 0)
(0.974879 0.0041435 0)
(0.9703 0.0083253 0)
(0.953064 0.0143523 0)
(0.921799 0.0214574 0)
(0.875481 0.0292796 0)
(0.813161 0.0375807 0)
(0.734167 0.0462281 0)
(0.63832 0.0548958 0)
(0.526258 0.0630896 0)
(0.399578 0.0703081 0)
(0.26061 0.0760285 0)
(0.111752 0.0797377 0)
(-0.0360389 0.0834582 0)
(-0.182511 0.0810605 0)
(-0.32795 0.0773923 0)
(-0.461369 0.0713942 0)
(-0.580138 0.0633886 0)
(-0.68129 0.0538261 0)
(-0.762946 0.0432434 0)
(-0.824268 0.0321727 0)
(-0.865646 0.0208841 0)
(-0.8885 0.0101581 0)
(-0.893892 0.00093599 0)
(-0.883748 -0.00790156 0)
(-0.860464 -0.0161115 0)
(-0.825293 -0.0234254 0)
(-0.779323 -0.0298497 0)
(-0.723321 -0.0357833 0)
(-0.657842 -0.0413773 0)
(-0.583187 -0.0466811 0)
(-0.499655 -0.0516447 0)
(-0.407734 -0.0561245 0)
(-0.308248 -0.0599024 0)
(-0.202132 -0.0627087 0)
(-0.0906923 -0.0645911 0)
(0.0182035 -0.0660014 0)
(0.126661 -0.0635201 0)
(0.235471 -0.0605038 0)
(0.335869 -0.0557305 0)
(0.426592 -0.0494023 0)
(0.504893 -0.0416569 0)
(0.568553 -0.0327245 0)
(0.615796 -0.0228913 0)
(0.645433 -0.0124803 0)
(0.656689 -0.00172886 0)
(0.649661 0.00862175 0)
(0.625102 0.0185859 0)
(0.584032 0.0277106 0)
(0.528307 0.0356351 0)
(0.460262 0.0420453 0)
(0.382646 0.0466628 0)
(0.298431 0.0492507 0)
(0.209758 0.0494448 0)
(0.119022 0.0520894 0)
(0.0432457 0.0515108 0)
(-0.0309463 0.0458269 0)
(-0.108394 0.0406812 0)
(-0.171317 0.0356492 0)
(-0.226319 0.0307397 0)
(-0.272359 0.0259665 0)
(-0.310486 0.0214618 0)
(-0.341391 0.0172699 0)
(-0.36584 0.0134088 0)
(-0.384314 0.00967588 0)
(-0.396851 0.00582401 0)
(-0.402992 0.00158181 0)
(-0.401945 -0.00310319 0)
(-0.392707 -0.00837723 0)
(-0.374304 -0.0141052 0)
(-0.346121 -0.0200291 0)
(-0.30808 -0.025772 0)
(-0.260819 -0.0308975 0)
(-0.205666 -0.034969 0)
(-0.144782 -0.0376775 0)
(-0.079558 -0.0384416 0)
(-0.0155765 -0.0398282 0)
(0.0467195 -0.0367677 0)
(0.107184 -0.0343675 0)
(0.1614 -0.0311917 0)
(0.210223 -0.0280196 0)
(0.253599 -0.0251776 0)
(0.292477 -0.0229392 0)
(0.328081 -0.0213789 0)
(0.36169 -0.0203924 0)
(0.394268 -0.0197277 0)
(0.426173 -0.0190352 0)
(0.456997 -0.0179182 0)
(0.485578 -0.0159957 0)
(0.51015 -0.0129769 0)
(0.528638 -0.00872864 0)
(0.538928 -0.00329666 0)
(0.539188 0.00310161 0)
(0.528271 0.0100432 0)
(0.505516 0.0171956 0)
(0.471043 0.0240989 0)
(0.42565 0.0303961 0)
(0.370659 0.0358516 0)
(0.307657 0.0403722 0)
(0.238239 0.0439981 0)
(0.163892 0.0468713 0)
(0.0855035 0.0491922 0)
(0.0043074 0.0510583 0)
(-0.079579 0.0528374 0)
(-0.166259 0.0542866 0)
(-0.254818 0.0554474 0)
(-0.344922 0.0561212 0)
(-0.435545 0.0560462 0)
(-0.525249 0.0549306 0)
(-0.61209 0.0525058 0)
(-0.693774 0.0485743 0)
(-0.767737 0.0430518 0)
(-0.831455 0.035977 0)
(-0.882549 0.0275092 0)
(-0.919027 0.0179011 0)
(-0.939531 0.00764164 0)
(-0.943275 -0.00331983 0)
(-0.929309 -0.0143152 0)
(-0.898147 -0.0251703 0)
(-0.850152 -0.0356652 0)
(-0.786152 -0.0456368 0)
(-0.707067 -0.0549621 0)
(-0.614131 -0.0635286 0)
(-0.508401 -0.0711795 0)
(-0.392009 -0.0778583 0)
(-0.265038 -0.083035 0)
(-0.130618 -0.0873961 0)
(0.00550859 -0.0899651 0)
(0.144272 -0.089832 0)
(0.284092 -0.0881148 0)
(0.418528 -0.0841748 0)
(0.545099 -0.0781154 0)
(0.660747 -0.0701193 0)
(0.762592 -0.060453 0)
(0.848437 -0.0495337 0)
(0.916734 -0.0378145 0)
(0.966675 -0.0258057 0)
(0.998221 -0.0138923 0)
(1.01187 -0.00272606 0)
(1.00903 0.00774498 0)
(0.991413 0.0169948 0)
(0.960285 0.0252524 0)
(0.917503 0.0323092 0)
(0.864727 0.0382847 0)
(0.803461 0.0432858 0)
(0.735114 0.047537 0)
(0.660599 0.0509611 0)
(0.579191 0.0542327 0)
(0.492625 0.0575988 0)
(0.403828 0.0600634 0)
(0.31299 0.0621869 0)
(0.218747 0.0638979 0)
(0.123823 0.0651928 0)
(0.0277881 0.0662512 0)
(-0.0732601 0.0657569 0)
(-0.175662 0.0652933 0)
(-0.276114 0.0638719 0)
(-0.374339 0.061534 0)
(-0.468957 0.0582142 0)
(-0.558928 0.0537642 0)
(-0.64131 0.0481794 0)
(-0.717185 0.0414883 0)
(-0.778847 0.0338852 0)
(-0.831266 0.024609 0)
(-0.873676 0.0157133 0)
(-0.896606 0.00579933 0)
(-0.907183 -0.0041561 0)
(-0.899812 -0.0141907 0)
(-0.878723 -0.0229967 0)
(-0.842584 -0.0308917 0)
(-0.793883 -0.0375547 0)
(-0.733472 -0.0429123 0)
(-0.663718 -0.047085 0)
(-0.587384 -0.0499607 0)
(-0.506758 -0.0516802 0)
(-0.423221 -0.0523211 0)
(-0.338107 -0.0521491 0)
(-0.252302 -0.0514656 0)
(-0.166788 -0.050459 0)
(-0.0825265 -0.0493004 0)
(0.00217671 -0.0480463 0)
(0.0862328 -0.0467304 0)
(0.168435 -0.0452602 0)
(0.248508 -0.0435324 0)
(0.32554 -0.0413048 0)
(0.398232 -0.0383958 0)
(0.465079 -0.0346342 0)
(0.524077 -0.0298523 0)
(0.573029 -0.0241296 0)
(0.610408 -0.017562 0)
(0.635298 -0.0103867 0)
(0.647152 -0.00297754 0)
(0.646093 0.0040727 0)
(0.632767 0.0106577 0)
(0.60814 0.0163951 0)
(0.574424 0.0209361 0)
(0.533822 0.0241992 0)
(0.48869 0.026172 0)
(0.441267 0.0269971 0)
(0.393379 0.026837 0)
(0.34664 0.0258971 0)
(0.302162 0.0243716 0)
(0.260842 0.0224417 0)
(0.223135 0.0203055 0)
(0.189318 0.0180782 0)
(0.159427 0.015975 0)
(0.133198 0.0140109 0)
(0.11012 0.0124064 0)
(0.0894791 0.0112592 0)
(0.0703935 0.0106742 0)
(0.0517542 0.010714 0)
(0.0324559 0.0114011 0)
(0.0113641 0.0127288 0)
(-0.0126128 0.0145595 0)
(-0.0403637 0.0168393 0)
(-0.0724912 0.0193585 0)
(-0.109232 0.0219118 0)
(-0.15046 0.0242816 0)
(-0.195633 0.0262376 0)
(-0.243826 0.0275812 0)
(-0.293732 0.0281087 0)
(-0.343769 0.0277151 0)
(-0.392159 0.0262813 0)
(-0.436939 0.0238091 0)
(-0.476363 0.0203588 0)
(-0.508729 0.0159945 0)
(-0.532697 0.0109479 0)
(-0.547265 0.00538696 0)
(-0.551631 -0.000680752 0)
(-0.545171 -0.00667155 0)
(-0.528274 -0.0125101 0)
(-0.501365 -0.0180034 0)
(-0.465185 -0.0230093 0)
(-0.420712 -0.0274079 0)
(-0.369116 -0.0311465 0)
(-0.311561 -0.0342007 0)
(-0.249266 -0.0365766 0)
(-0.18343 -0.0382861 0)
(-0.11527 -0.0393371 0)
(-0.0458135 -0.0397235 0)
(0.0242388 -0.0394363 0)
(0.0931848 -0.03842 0)
(0.159482 -0.0366422 0)
(0.221827 -0.0340791 0)
(0.278855 -0.030702 0)
(0.329308 -0.0265065 0)
(0.371692 -0.0218061 0)
(0.406844 -0.0155881 0)
(0.427027 -0.00733083 0)
(0.90613 0.00751227 0)
(0.96621 0.00420196 0)
(0.976085 0.00610264 0)
(0.972693 0.0135812 0)
(0.955856 0.0233128 0)
(0.924751 0.0344956 0)
(0.878426 0.0466223 0)
(0.815996 0.059264 0)
(0.736786 0.0717433 0)
(0.640541 0.0834867 0)
(0.527881 0.0940041 0)
(0.400427 0.102664 0)
(0.260561 0.10886 0)
(0.111175 0.112407 0)
(-0.0379845 0.114763 0)
(-0.185991 0.109782 0)
(-0.332007 0.103088 0)
(-0.466118 0.0936171 0)
(-0.585368 0.0819135 0)
(-0.686767 0.0686396 0)
(-0.768445 0.0545178 0)
(-0.829718 0.0402159 0)
(-0.870825 0.0261101 0)
(-0.892707 0.0130016 0)
(-0.897407 0.00192993 0)
(-0.887065 -0.00867119 0)
(-0.863204 -0.0182074 0)
(-0.827303 -0.0265803 0)
(-0.78074 -0.0338402 0)
(-0.724362 -0.0403999 0)
(-0.65856 -0.0464243 0)
(-0.583596 -0.0519691 0)
(-0.499737 -0.0569868 0)
(-0.407454 -0.0613381 0)
(-0.307561 -0.0648182 0)
(-0.201115 -0.0671915 0)
(-0.0894254 -0.0687006 0)
(0.0201794 -0.0694083 0)
(0.129196 -0.0661862 0)
(0.238134 -0.062485 0)
(0.338785 -0.0570988 0)
(0.429653 -0.0502632 0)
(0.508 -0.0421409 0)
(0.571602 -0.0329924 0)
(0.618686 -0.0231148 0)
(0.648033 -0.0128378 0)
(0.659005 -0.00258938 0)
(0.651627 0.00753058 0)
(0.626581 0.016965 0)
(0.585041 0.0254838 0)
(0.528836 0.0327843 0)
(0.46032 0.0386144 0)
(0.382259 0.0427781 0)
(0.297623 0.0451729 0)
(0.209043 0.0457954 0)
(0.118559 0.0469519 0)
(0.041882 0.0479495 0)
(-0.0328412 0.0417615 0)
(-0.109874 0.0375135 0)
(-0.172648 0.0329728 0)
(-0.227524 0.0286025 0)
(-0.273456 0.0243012 0)
(-0.311471 0.0202545 0)
(-0.342312 0.0164559 0)
(-0.366724 0.0127877 0)
(-0.385145 0.00913965 0)
(-0.397593 0.00537232 0)
(-0.40364 0.00138652 0)
(-0.402477 -0.00298977 0)
(-0.393077 -0.00769501 0)
(-0.374511 -0.0126654 0)
(-0.346165 -0.0177176 0)
(-0.307972 -0.0225855 0)
(-0.260576 -0.0269586 0)
(-0.205321 -0.0305175 0)
(-0.14433 -0.0330521 0)
(-0.0793402 -0.0342018 0)
(-0.0151515 -0.0357561 0)
(0.0473798 -0.0335695 0)
(0.107591 -0.0321362 0)
(0.161863 -0.0298918 0)
(0.210706 -0.0275361 0)
(0.254139 -0.0252682 0)
(0.293089 -0.0233046 0)
(0.328775 -0.0217133 0)
(0.362458 -0.0204361 0)
(0.395081 -0.0193077 0)
(0.426989 -0.0180912 0)
(0.457767 -0.0165111 0)
(0.486258 -0.014295 0)
(0.510706 -0.0112236 0)
(0.529058 -0.00718879 0)
(0.539164 -0.00217454 0)
(0.539277 0.00348003 0)
(0.528275 0.00976119 0)
(0.505426 0.0162829 0)
(0.470888 0.0227053 0)
(0.425448 0.0287305 0)
(0.370413 0.0341436 0)
(0.307362 0.0388303 0)
(0.237875 0.0427757 0)
(0.163433 0.0460482 0)
(0.0849042 0.0487622 0)
(0.00357379 0.0509621 0)
(-0.0804617 0.0529304 0)
(-0.167313 0.0544507 0)
(-0.255993 0.055563 0)
(-0.346175 0.0561179 0)
(-0.436822 0.0559128 0)
(-0.526492 0.0547161 0)
(-0.613245 0.0523068 0)
(-0.694798 0.048512 0)
(-0.768603 0.0432435 0)
(-0.83215 0.0365098 0)
(-0.883073 0.0284198 0)
(-0.919392 0.0191678 0)
(-0.939735 0.00919078 0)
(-0.943334 -0.00161833 0)
(-0.929237 -0.0126299 0)
(-0.897916 -0.0236637 0)
(-0.849746 -0.0344836 0)
(-0.78555 -0.0448941 0)
(-0.706251 -0.0547326 0)
(-0.613092 -0.0638515 0)
(-0.507158 -0.0720525 0)
(-0.390558 -0.0793084 0)
(-0.263493 -0.0850195 0)
(-0.129087 -0.0899517 0)
(0.00719057 -0.0931116 0)
(0.145933 -0.0934517 0)
(0.285544 -0.09227 0)
(0.4198 -0.088891 0)
(0.546143 -0.0833722 0)
(0.661547 -0.0758931 0)
(0.763151 -0.0666701 0)
(0.848775 -0.0560781 0)
(0.916885 -0.0445267 0)
(0.966697 -0.0324856 0)
(0.998263 -0.0203111 0)
(1.01161 -0.0083268 0)
(1.00864 0.00223693 0)
(0.99122 0.0125499 0)
(0.96004 0.0219984 0)
(0.917181 0.0303637 0)
(0.864307 0.0377002 0)
(0.802904 0.0440972 0)
(0.73437 0.0496745 0)
(0.659674 0.054385 0)
(0.578225 0.0587714 0)
(0.491573 0.0633989 0)
(0.402643 0.0670144 0)
(0.311764 0.0702501 0)
(0.217537 0.073005 0)
(0.122757 0.0753967 0)
(0.0267761 0.0775624 0)
(-0.0740831 0.0781131 0)
(-0.176119 0.0788276 0)
(-0.276289 0.078619 0)
(-0.374187 0.0774756 0)
(-0.468505 0.0753132 0)
(-0.558213 0.0718584 0)
(-0.640454 0.0671101 0)
(-0.716283 0.0608269 0)
(-0.778084 0.0533795 0)
(-0.830788 0.0433656 0)
(-0.873512 0.0334518 0)
(-0.896799 0.0215023 0)
(-0.908018 0.00844056 0)
(-0.901114 -0.00468908 0)
(-0.88004 -0.0175679 0)
(-0.844082 -0.029869 0)
(-0.795401 -0.041049 0)
(-0.734948 -0.0508369 0)
(-0.665125 -0.0591712 0)
(-0.58867 -0.0658082 0)
(-0.507925 -0.0707818 0)
(-0.424263 -0.0743363 0)
(-0.338988 -0.0766737 0)
(-0.253026 -0.0780589 0)
(-0.167372 -0.0787172 0)
(-0.082978 -0.0788541 0)
(0.00188127 -0.0785372 0)
(0.086135 -0.0777926 0)
(0.1686 -0.0764731 0)
(0.249008 -0.0743871 0)
(0.326475 -0.0711803 0)
(0.399698 -0.066522 0)
(0.467102 -0.0601522 0)
(0.526605 -0.0519173 0)
(0.576003 -0.0419894 0)
(0.613742 -0.0305911 0)
(0.638843 -0.0182314 0)
(0.65072 -0.00553823 0)
(0.649479 0.00650524 0)
(0.635763 0.0177864 0)
(0.610626 0.0275549 0)
(0.57634 0.0352451 0)
(0.535128 0.0407474 0)
(0.489399 0.0440559 0)
(0.441444 0.0454165 0)
(0.393112 0.0451211 0)
(0.346026 0.0435236 0)
(0.301297 0.0409452 0)
(0.259816 0.0376976 0)
(0.222033 0.0340908 0)
(0.188243 0.0303473 0)
(0.158394 0.0266909 0)
(0.132281 0.0234535 0)
(0.109414 0.0208017 0)
(0.0890369 0.0188933 0)
(0.0702539 0.0179351 0)
(0.0519369 0.0180147 0)
(0.0329627 0.0191732 0)
(0.0121598 0.0213989 0)
(-0.0115757 0.0244949 0)
(-0.0391513 0.0283252 0)
(-0.0712072 0.0325684 0)
(-0.107984 0.0368676 0)
(-0.149362 0.0408656 0)
(-0.194794 0.0441717 0)
(-0.243348 0.0464456 0)
(-0.293694 0.0473522 0)
(-0.34423 0.046704 0)
(-0.393147 0.0443134 0)
(-0.438445 0.0401799 0)
(-0.478348 0.0344074 0)
(-0.511123 0.0271029 0)
(-0.535405 0.0186621 0)
(-0.55019 0.00936247 0)
(-0.554657 -0.000780879 0)
(-0.548169 -0.0107867 0)
(-0.531144 -0.0205434 0)
(-0.504023 -0.0297208 0)
(-0.467564 -0.0380827 0)
(-0.422771 -0.0454293 0)
(-0.370834 -0.0516675 0)
(-0.312936 -0.0567597 0)
(-0.250302 -0.0607179 0)
(-0.184128 -0.0635657 0)
(-0.115635 -0.0653194 0)
(-0.0458371 -0.0659715 0)
(0.024571 -0.0655038 0)
(0.0938895 -0.0638166 0)
(0.16058 -0.0608624 0)
(0.223329 -0.0565959 0)
(0.280757 -0.0509808 0)
(0.331577 -0.0440364 0)
(0.374184 -0.0359384 0)
(0.408494 -0.0258446 0)
(0.431243 -0.0162441 0)
(0.904225 0.000242762 0)
(0.966597 0.00196581 0)
(0.978332 0.00759887 0)
(0.976484 0.0173711 0)
(0.960327 0.0297756 0)
(0.929598 0.0437531 0)
(0.883428 0.0587696 0)
(0.820822 0.0743581 0)
(0.741068 0.0897643 0)
(0.644079 0.104298 0)
(0.530496 0.117325 0)
(0.401892 0.128058 0)
(0.260784 0.135767 0)
(0.110351 0.140257 0)
(-0.0406454 0.142263 0)
(-0.190446 0.136539 0)
(-0.337337 0.128125 0)
(-0.472332 0.116245 0)
(-0.592153 0.10157 0)
(-0.69379 0.084941 0)
(-0.775384 0.0672745 0)
(-0.836247 0.049455 0)
(-0.876743 0.0323736 0)
(-0.898051 0.0164436 0)
(-0.902124 0.00162744 0)
(-0.89108 -0.0113168 0)
(-0.866655 -0.0231794 0)
(-0.830353 -0.0339661 0)
(-0.783449 -0.0439558 0)
(-0.726748 -0.0532397 0)
(-0.660665 -0.0619808 0)
(-0.585422 -0.070235 0)
(-0.501247 -0.0779254 0)
(-0.408576 -0.0848457 0)
(-0.308205 -0.0906933 0)
(-0.201243 -0.0951336 0)
(-0.0891164 -0.0981209 0)
(0.021557 -0.0998251 0)
(0.131627 -0.0965852 0)
(0.241114 -0.0920429 0)
(0.34251 -0.0849092 0)
(0.434027 -0.0754122 0)
(0.512912 -0.0637533 0)
(0.576907 -0.0502753 0)
(0.62422 -0.0354014 0)
(0.653621 -0.0196163 0)
(0.664433 -0.00342779 0)
(0.656725 0.0124396 0)
(0.631205 0.0276967 0)
(0.589004 0.0417172 0)
(0.531986 0.0539629 0)
(0.462535 0.0639736 0)
(0.383465 0.0713872 0)
(0.297823 0.0760096 0)
(0.20864 0.0779324 0)
(0.118055 0.0786333 0)
(0.0396016 0.0794607 0)
(-0.0364838 0.0702808 0)
(-0.113114 0.0636451 0)
(-0.175921 0.0560487 0)
(-0.23067 0.0485705 0)
(-0.276437 0.0412222 0)
(-0.314233 0.0342912 0)
(-0.344864 0.0278201 0)
(-0.369128 0.0216984 0)
(-0.387504 0.0156645 0)
(-0.400024 0.00938532 0)
(-0.406225 0.00254744 0)
(-0.405257 -0.00507727 0)
(-0.396032 -0.0135448 0)
(-0.377535 -0.0226952 0)
(-0.349085 -0.0321526 0)
(-0.310572 -0.0413634 0)
(-0.26263 -0.049678 0)
(-0.206639 -0.0564451 0)
(-0.144755 -0.0611823 0)
(-0.0791092 -0.0634378 0)
(-0.0138985 -0.064499 0)
(0.049489 -0.0612847 0)
(0.10987 -0.057825 0)
(0.164339 -0.053152 0)
(0.213073 -0.0483086 0)
(0.256221 -0.0438374 0)
(0.294785 -0.0401874 0)
(0.330094 -0.0375165 0)
(0.363506 -0.0356967 0)
(0.39604 -0.0343448 0)
(0.428083 -0.0328987 0)
(0.459224 -0.0307145 0)
(0.488266 -0.027178 0)
(0.513372 -0.0218205 0)
(0.532391 -0.0144242 0)
(0.543038 -0.00501 0)
(0.543495 0.00585972 0)
(0.532603 0.01785 0)
(0.509581 0.0302623 0)
(0.474618 0.0423592 0)
(0.428566 0.0535331 0)
(0.37282 0.0633666 0)
(0.30905 0.0716696 0)
(0.238913 0.0784716 0)
(0.16394 0.083982 0)
(0.0850032 0.0884936 0)
(0.00339161 0.092261 0)
(-0.0808744 0.0956231 0)
(-0.16799 0.0984549 0)
(-0.257006 0.100689 0)
(-0.347668 0.102003 0)
(-0.438965 0.101944 0)
(-0.529454 0.100007 0)
(-0.617152 0.0957216 0)
(-0.699709 0.0887336 0)
(-0.774488 0.0788776 0)
(-0.838892 0.066198 0)
(-0.890479 0.0509485 0)
(-0.927207 0.0335517 0)
(-0.94771 0.0148852 0)
(-0.951199 -0.0052155 0)
(-0.936725 -0.0255077 0)
(-0.904855 -0.0456776 0)
(-0.85599 -0.0653044 0)
(-0.790993 -0.0840663 0)
(-0.710812 -0.101711 0)
(-0.616689 -0.118006 0)
(-0.509723 -0.132649 0)
(-0.391926 -0.145508 0)
(-0.263677 -0.155753 0)
(-0.127999 -0.164083 0)
(0.0100726 -0.169147 0)
(0.150495 -0.169653 0)
(0.29164 -0.166839 0)
(0.427471 -0.159944 0)
(0.555206 -0.149033 0)
(0.671728 -0.134454 0)
(0.774105 -0.11667 0)
(0.860082 -0.096438 0)
(0.92811 -0.0745908 0)
(0.977417 -0.0520439 0)
(1.00803 -0.0295525 0)
(1.02025 -0.00804181 0)
(1.01609 0.0115918 0)
(0.997178 0.0296937 0)
(0.964562 0.0459178 0)
(0.920367 0.0599679 0)
(0.866294 0.0720236 0)
(0.803863 0.0823071 0)
(0.734426 0.091133 0)
(0.659042 0.0985835 0)
(0.577216 0.105319 0)
(0.49001 0.112092 0)
(0.400375 0.117589 0)
(0.308935 0.122371 0)
(0.214143 0.126318 0)
(0.118834 0.129519 0)
(0.0220237 0.132007 0)
(-0.0795419 0.132163 0)
(-0.182064 0.1319 0)
(-0.282893 0.129961 0)
(-0.381346 0.126242 0)
(-0.47614 0.120618 0)
(-0.566154 0.11275 0)
(-0.648559 0.102599 0)
(-0.724228 0.0901103 0)
(-0.785749 0.0756044 0)
(-0.837799 0.0575916 0)
(-0.879531 0.0398882 0)
(-0.901924 0.0197608 0)
(-0.911524 -0.00140439 0)
(-0.903015 -0.0221023 0)
(-0.880775 -0.0414821 0)
(-0.843462 -0.0592199 0)
(-0.793626 -0.0746597 0)
(-0.732295 -0.0875108 0)
(-0.661813 -0.0978204 0)
(-0.584933 -0.105379 0)
(-0.50408 -0.11037 0)
(-0.4206 -0.113181 0)
(-0.335749 -0.114275 0)
(-0.25037 -0.114168 0)
(-0.165373 -0.11325 0)
(-0.081618 -0.111881 0)
(0.00270428 -0.110185 0)
(0.0865809 -0.108207 0)
(0.168889 -0.105715 0)
(0.249414 -0.102453 0)
(0.327265 -0.0978536 0)
(0.401095 -0.0914349 0)
(0.469298 -0.0827775 0)
(0.5297 -0.0715512 0)
(0.579926 -0.0579218 0)
(0.618335 -0.0421542 0)
(0.643853 -0.0249827 0)
(0.655812 -0.00730213 0)
(0.654388 0.00950201 0)
(0.640215 0.0252867 0)
(0.614353 0.0390045 0)
(0.579181 0.0497751 0)
(0.537028 0.0574313 0)
(0.490401 0.0619948 0)
(0.44165 0.063825 0)
(0.392654 0.063331 0)
(0.345053 0.061011 0)
(0.299952 0.0573257 0)
(0.258239 0.0527078 0)
(0.220348 0.0475996 0)
(0.18655 0.0423137 0)
(0.156869 0.0372996 0)
(0.130962 0.0326676 0)
(0.108385 0.028871 0)
(0.0883926 0.026148 0)
(0.0700603 0.0247683 0)
(0.0522256 0.0248591 0)
(0.0337429 0.0264837 0)
(0.0133825 0.0296135 0)
(-0.00998439 0.0340121 0)
(-0.0373036 0.0394196 0)
(-0.0692544 0.0454214 0)
(-0.106088 0.0515135 0)
(-0.147695 0.0571821 0)
(-0.193523 0.0618697 0)
(-0.242626 0.0651051 0)
(-0.293641 0.066403 0)
(-0.34493 0.0655149 0)
(-0.39464 0.0621619 0)
(-0.440716 0.0563543 0)
(-0.481341 0.0482346 0)
(-0.51473 0.0379509 0)
(-0.539487 0.0260649 0)
(-0.554585 0.0129735 0)
(-0.559196 -0.00131222 0)
(-0.552671 -0.015399 0)
(-0.535459 -0.0291239 0)
(-0.508021 -0.0420231 0)
(-0.471145 -0.0537673 0)
(-0.425871 -0.0640699 0)
(-0.373419 -0.0728107 0)
(-0.314999 -0.079937 0)
(-0.25185 -0.0854734 0)
(-0.185175 -0.0894528 0)
(-0.116182 -0.0919078 0)
(-0.0458807 -0.0928242 0)
(0.0250619 -0.0921707 0)
(0.0949444 -0.0898197 0)
(0.162225 -0.0856925 0)
(0.225582 -0.0797214 0)
(0.283629 -0.0718587 0)
(0.33504 -0.0621576 0)
(0.378406 -0.0509476 0)
(0.413811 -0.0377763 0)
(0.437753 -0.0222918 0)
(0.905899 -0.0101397 0)
(0.968933 -0.00255253 0)
(0.981732 0.00741601 0)
(0.980714 0.0194783 0)
(0.965217 0.0337178 0)
(0.934806 0.0494544 0)
(0.888774 0.0662995 0)
(0.826166 0.083867 0)
(0.746234 0.101747 0)
(0.648783 0.119225 0)
(0.534412 0.135328 0)
(0.404722 0.149054 0)
(0.262327 0.159465 0)
(0.110679 0.165988 0)
(-0.0423392 0.169085 0)
(-0.194224 0.164042 0)
(-0.342384 0.154999 0)
(-0.478624 0.141513 0)
(-0.59937 0.124344 0)
(-0.701559 0.104492 0)
(-0.783322 0.0830825 0)
(-0.844003 0.061224 0)
(-0.88404 0.0399086 0)
(-0.904725 0.0198617 0)
(-0.907984 0.00147301 0)
(-0.896243 -0.0147245 0)
(-0.871313 -0.0298606 0)
(-0.834469 -0.0435638 0)
(-0.787124 -0.0561424 0)
(-0.730072 -0.0678913 0)
(-0.663693 -0.0790349 0)
(-0.588153 -0.089644 0)
(-0.503626 -0.0996078 0)
(-0.410497 -0.108643 0)
(-0.309541 -0.116337 0)
(-0.201913 -0.122237 0)
(-0.0891199 -0.126111 0)
(0.022848 -0.127927 0)
(0.134203 -0.124289 0)
(0.244509 -0.118435 0)
(0.34689 -0.109247 0)
(0.439274 -0.0969773 0)
(0.518885 -0.0819132 0)
(0.583421 -0.0645086 0)
(0.631065 -0.0453184 0)
(0.660574 -0.0249743 0)
(0.671231 -0.00414425 0)
(0.663161 0.0162649 0)
(0.637089 0.0358701 0)
(0.594101 0.0538573 0)
(0.53611 0.0695408 0)
(0.465542 0.0823434 0)
(0.385273 0.0918269 0)
(0.298448 0.097775 0)
(0.208317 0.100319 0)
(0.117385 0.100345 0)
(0.0370536 0.0998689 0)
(-0.0404417 0.088809 0)
(-0.116684 0.0806066 0)
(-0.179626 0.0708744 0)
(-0.234243 0.0612325 0)
(-0.279809 0.0518244 0)
(-0.317337 0.0430245 0)
(-0.347726 0.034884 0)
(-0.371832 0.0272287 0)
(-0.390171 0.01971 0)
(-0.402779 0.0118875 0)
(-0.409172 0.00335889 0)
(-0.408444 -0.00619832 0)
(-0.399424 -0.0168297 0)
(-0.381018 -0.028334 0)
(-0.352473 -0.0402279 0)
(-0.31363 -0.0518063 0)
(-0.265111 -0.0622463 0)
(-0.208338 -0.0707327 0)
(-0.145523 -0.0766432 0)
(-0.0790657 -0.0795258 0)
(-0.0128084 -0.0801003 0)
(0.0514129 -0.0765931 0)
(0.112085 -0.0720534 0)
(0.166785 -0.0661241 0)
(0.215444 -0.0599617 0)
(0.258325 -0.0542929 0)
(0.296511 -0.0496838 0)
(0.331441 -0.0463426 0)
(0.36458 -0.044109 0)
(0.397028 -0.0424901 0)
(0.429211 -0.0407611 0)
(0.46072 -0.0381008 0)
(0.490318 -0.0337399 0)
(0.516086 -0.0271046 0)
(0.535778 -0.01794 0)
(0.546944 -0.00626488 0)
(0.547753 0.00708303 0)
(0.537023 0.0218608 0)
(0.513864 0.0371157 0)
(0.478526 0.0519487 0)
(0.431912 0.0656112 0)
(0.375504 0.077594 0)
(0.311055 0.0876696 0)
(0.240296 0.0958817 0)
(0.164805 0.102499 0)
(0.0854592 0.107881 0)
(0.00355475 0.112401 0)
(-0.0809573 0.116347 0)
(-0.168345 0.119712 0)
(-0.257689 0.122354 0)
(-0.3488 0.123885 0)
(-0.440694 0.123754 0)
(-0.531921 0.121352 0)
(-0.620468 0.116115 0)
(-0.703925 0.107622 0)
(-0.779582 0.0956836 0)
(-0.844768 0.080363 0)
(-0.896973 0.0619741 0)
(-0.934114 0.041037 0)
(-0.954792 0.0186013 0)
(-0.958243 -0.00548351 0)
(-0.943534 -0.029798 0)
(-0.911252 -0.0539261 0)
(-0.861845 -0.0773731 0)
(-0.796211 -0.0997574 0)
(-0.715318 -0.120785 0)
(-0.620411 -0.140181 0)
(-0.512605 -0.157608 0)
(-0.393841 -0.1729 0)
(-0.264628 -0.185165 0)
(-0.127938 -0.194968 0)
(0.0115574 -0.2009 0)
(0.153319 -0.201698 0)
(0.295664 -0.198379 0)
(0.432734 -0.190289 0)
(0.561572 -0.177458 0)
(0.678998 -0.160323 0)
(0.782032 -0.139441 0)
(0.868365 -0.115693 0)
(0.936438 -0.0900523 0)
(0.985513 -0.0635831 0)
(1.01562 -0.0371405 0)
(1.02706 -0.0115867 0)
(1.02214 0.0107772 0)
(1.00238 0.0322895 0)
(0.968839 0.0515212 0)
(0.923736 0.0682556 0)
(0.868818 0.0826805 0)
(0.805632 0.0950617 0)
(0.735519 0.105732 0)
(0.659564 0.114869 0)
(0.577414 0.123015 0)
(0.489872 0.131023 0)
(0.399796 0.137855 0)
(0.307994 0.143825 0)
(0.212894 0.148833 0)
(0.117364 0.153027 0)
(0.0201255 0.156313 0)
(-0.0817533 0.157273 0)
(-0.184413 0.157589 0)
(-0.285544 0.156109 0)
(-0.384278 0.152634 0)
(-0.479393 0.147015 0)
(-0.569724 0.138815 0)
(-0.652537 0.127971 0)
(-0.728569 0.11429 0)
(-0.790574 0.0981395 0)
(-0.843077 0.0777302 0)
(-0.885077 0.0572347 0)
(-0.907615 0.033496 0)
(-0.91765 0.008112 0)
(-0.909196 -0.0171858 0)
(-0.886245 -0.0413693 0)
(-0.848385 -0.0640106 0)
(-0.7978 -0.0841833 0)
(-0.735691 -0.101386 0)
(-0.664452 -0.115588 0)
(-0.586826 -0.12655 0)
(-0.50529 -0.134424 0)
(-0.421255 -0.139638 0)
(-0.33598 -0.142657 0)
(-0.250306 -0.144056 0)
(-0.165114 -0.144284 0)
(-0.0812003 -0.143745 0)
(0.00328474 -0.142582 0)
(0.0873882 -0.140824 0)
(0.17004 -0.138187 0)
(0.251074 -0.134312 0)
(0.32964 -0.128505 0)
(0.404376 -0.120144 0)
(0.473596 -0.108723 0)
(0.535011 -0.0939037 0)
(0.58614 -0.0759497 0)
(0.625276 -0.0552369 0)
(0.651211 -0.032741 0)
(0.663189 -0.00962211 0)
(0.661399 0.0122968 0)
(0.646457 0.0329058 0)
(0.619527 0.0507271 0)
(0.583108 0.0646512 0)
(0.539655 0.0745278 0)
(0.491795 0.0803671 0)
(0.441961 0.0826484 0)
(0.392068 0.0819217 0)
(0.343776 0.0788413 0)
(0.298179 0.0740051 0)
(0.256157 0.0679802 0)
(0.218112 0.0613391 0)
(0.184312 0.0544672 0)
(0.154695 0.0477871 0)
(0.129108 0.0418049 0)
(0.106952 0.0368938 0)
(0.0874872 0.0333542 0)
(0.0697672 0.0315563 0)
(0.0525886 0.0316687 0)
(0.0347672 0.0337734 0)
(0.0150117 0.0378404 0)
(-0.00785535 0.0435809 0)
(-0.0348248 0.0506306 0)
(-0.0666215 0.0584713 0)
(-0.103526 0.0664396 0)
(-0.145437 0.0738609 0)