/*--------------------------------*- C++ -*----------------------------------*\
| =========                 |                                                 |
| \\      /  F ield         | OpenFOAM: The Open Source CFD Toolbox           |
|  \\    /   O peration     | Version:  v1912                                 |
|   \\  /    A nd           | Website:  www.openfoam.com                      |
|    \\/     M anipulation  |                                                 |
\*---------------------------------------------------------------------------*/
FoamFile
{
    version     2.0;
    format      ascii;
    class       volScalarField;
    location    "90";
    object      p;
}
// * * * * * * * * * * * * * * * * * * * * * * * * * * * * * * * * * * * * * //

dimensions      [1 -1 -2 0 0 0 0];


internalField   nonuniform List<scalar> 
14268
(
146981
146679
146320
145885
145351
144690
143877
142896
141739
140412
138936
137342
135666
133950
132240
130557
128916
127332
125826
124415
123119
121964
120977
120183
119596
119218
119048
119071
119259
119596
120061
120636
121305
122060
122892
123802
124791
125868
127040
128317
129707
131215
132840
134570
136404
138341
140319
142305
144253
146113
147827
149347
150620
151603
152255
152545
152441
151985
151159
149981
148487
146727
144758
142653
140474
138284
136132
134063
132123
130346
128749
127350
126159
125184
124428
123888
123568
123468
123575
123888
124404
125119
126028
127125
128390
129809
139548
139247
138890
138460
137930
137273
136462
135481
134322
132991
131509
129909
128227
126505
124791
123105
121461
119874
118366
116952
115653
114496
113506
112712
112124
111747
111580
111605
111796
112135
112603
113179
113850
114606
115438
116347
117335
118410
119581
120856
122245
123752
125377
127108
128944
130884
132867
134859
136814
138682
140406
141934
143216
144207
144864
145157
145056
144597
143767
142581
141078
139308
137328
135214
133026
130828
128670
126597
124652
122873
121275
119876
118685
117710
116954
116415
116095
115997
116103
116416
116933
117649
118558
119656
120924
122344
132119
131821
131469
131046
130524
129872
129065
128083
126919
125580
124087
122475
120781
119050
117328
115636
113988
112397
110885
109465
108161
106999
106006
105209
104621
104245
104086
104114
104311
104656
105128
105708
106382
107139
107971
108879
109865
110937
112104
113376
114762
116267
117892
119624
121464
123412
125405
127408
129378
131263
133004
134551
135850
136855
137524
137823
137720
137258
136417
135216
133694
131904
129904
127770
125565
123352
121182
119101
117150
115367
113767
112367
111176
110202
109448
108910
108592
108494
108602
108916
109433
110148
111059
112159
113431
114858
124697
124403
124060
123647
123136
122495
121692
120710
119539
118186
116676
115045
113334
111587
109854
108154
106499
104903
103383
101956
100644
99474.6
98475.8
97676.2
97088
96713.2
96566.7
96599.6
96804
97157.1
97636.7
98223
98901.1
99659.9
100492
101398
102381
103448
104609
105876
107258
108760
110385
112119
113965
115924
117931
119953
121944
123854
125622
127197
128522
129550
130236
130545
130443
129974
129117
127893
126342
124520
122488
120325
118093
115859
113671
111577
109617
107829
106225
104824
103634
102662
101910
101374
101058
100962
101071
101385
101903
102619
103530
104633
105912
107348
117279
116989
116658
116261
115766
115137
114342
113358
112177
110808
109275
107618
105883
104116
102368
100657
98994.5
97390.6
95861.5
94424.1
93101.5
91921.6
90915
90111.4
89523.4
89152.5
89015.6
89059
89275.3
89639.4
90128.9
90723.2
91407.1
92168.9
93001.5
93904.5
94882.1
95942.5
97097
98356.9
99732.6
101231
102855
104592
106446
108419
110445
112491
114511
116455
118260
119872
121232
122291
122999
123321
123220
122743
121865
120609
119019
117154
115080
112877
110611
108347
106135
104025
102053
100257
98649.7
97247.8
96058.4
95087.6
94339.3
93806.4
93492.7
93398.9
93509.5
93824.8
94342.9
95059.6
95972
97079.1
98365.5
99813.1
109864
109582
109266
108889
108415
107802
107016
106030
104838
103446
101883
100193
98427.9
96636.3
94869.6
93146
91473.6
89860.5
88320
86869.3
85532.9
84340
83323.4
82514.8
81927.8
81564.4
81436
81494.4
81725
82103.1
82605.2
83209.8
83900.9
84666.4
85499
86398.5
87369.9
88422
89567.2
90818
92186
93679.5
95302.6
97042.9
98904.9
100897
102946
105022
107079
109066
110916
112575
113980
115078
115816
116155
116054
115566
114661
113365
111726
109807
107679
105426
103116
100815
98573.7
96442.6
94456
92651.4
91039.4
89636.6
88448.4
87480.3
86736.2
86206.9
85896.8
85806.5
85918.6
86235
86753.5
87470.6
88384.2
89495.5
90790.5
92251
102452
102178
101881
101530
101082
100490
99714.5
98727.3
97520.7
96101.7
94501.1
92770.9
90967.6
89146
87357.6
85619.3
83936.1
82312.5
80758.6
79291.4
77937.7
76728.5
75699.4
74884.5
74298.8
73943.8
73825.1
73903.6
74152.6
74547.9
75065.4
75682.5
76382.6
77152.7
77985.4
78880.5
79844.1
80885.9
82019.5
83258.9
84617.4
86104.3
87725.6
89469.3
91341.6
93356.5
95433.5
97545.6
99646.6
101684
103590
105306
106766
107912
108687
109046
108946
108445
107508
106162
104462
102477
100283
97969.7
95606.9
93262.3
90985.2
88829.6
86825.9
85011.2
83393.8
81990.4
80803.9
79839
79100.4
78575.5
78269.7
78182.9
78297.5
78615.1
79134
79851.3
80765.7
81881.3
83185.8
84661.2
95038.5
94775.8
94503.5
94183.7
93767.8
93201.5
92440.1
91451.2
90227.6
88775.4
87129.3
85349.4
83500.9
81643.9
79830.8
78076.5
76382
74746.9
73177.4
71690.6
70315.8
69086.5
68042.4
67219.9
66635.6
66292.9
66195.4
66289
66558.4
66974.4
67510.4
68142.6
68853.1
69628.5
70461.2
71351.1
72305.4
73334.7
74454.3
75679.9
77026.6
78505.4
80123.7
81871
83754.2
85796.6
87905.1
90059.2
92211.9
94310
96281
98065.7
99591
100794
101613
101998
101898
101382
100405
99000.5
97227.3
95163.6
92892.1
90506.8
88082.4
85686.7
83367.5
81184
79161.2
77335.3
75712.3
74308.6
73124.5
72163.7
71431.7
70912.1
70611.8
70529.6
70646.8
70965.6
71484.6
72201.6
73116.4
74236
75550.6
77041.9
87622.7
87374.2
87129.9
86851.9
86474.6
85938.3
85194.3
84203.7
82960.1
81468.2
79767.5
77928.2
76025.8
74128.6
72288.2
70517.2
68811.3
67163.8
65576.7
64066.5
62666.2
61412.6
60350.5
59518.7
58935.3
58609.4
58528.7
58647.3
58942.1
59382.2
59939.8
60589.7
61312.7
62094.5
62927.2
63810.9
64754
65768.6
66871.5
68080.4
69413
70881.8
72495.4
74246.3
76140.8
78216
80359.3
82561.1
84773.3
86941
88987.9
90852
92454
93724.8
94596
95011
94912.9
94378.7
93354.4
91880.5
90021.4
87865.3
85503.2
83035
80539.9
78086.6
75718.6
73503.9
71460.6
69622.6
67993.9
66590.4
65409.6
64453.9
63730
63216.5
62923
62845.8
62966
63286.1
63805
64521
65435.4
66558.2
67883.2
69391.5
80201
79970
79763
79535.7
79200
78701.3
77979.2
76986.7
75719.9
74181.1
72415.9
70506.1
68540.6
66597.5
64727.5
62940
61223.5
59563.5
57956.9
56419.3
54988.5
53705.5
52622.1
51779
51196.3
50893.5
50834.7
50980
51303.7
51772.3
52355.3
53025.6
53762.9
54551.6
55384.2
56260.7
57190.7
58188
59271.2
60460.5
61776.1
63232.7
64839.4
66593.9
68498.5
70613.7
72793.8
75049
77328.8
79575.7
81709.5
83664.7
85355.3
86705
87637.3
88087.9
87991.7
87436.6
86357.5
84802.6
82843.8
80580.5
78114.4
75551.6
72976.6
70459.9
68035.3
65787.4
63722.4
61871.6
60237.6
58835
57658.6
56709.4
55994.9
55488.5
55203.4
55131.7
55255.3
55576.8
56095.2
56809.4
57722.2
58846.9
60182.2
61708.6
72769.6
72561.3
72399.1
72230
71955.2
71491.2
70796.2
69802.8
68509
66915.6
65074.3
63081.5
61042.4
59048.4
57147.6
55345
53619.8
51947.1
50318.6
48749
47281.4
45963.6
44855
43999.3
43415.8
43145.3
43108.8
43285.6
43643
44144.3
44756.3
45449.9
46203.2
46999.8
47832.3
48700.6
49615.5
50592.9
51653.3
52819.7
54115.3
55557.3
57154.2
58912.5
60824
62989.1
65205.6
67520.2
69875.9
72211.8
74443.7
76502.5
78294.8
79735.8
80739.4
81233
81139.6
80559.2
79417.2
77768.3
75694.3
73307.8
70723.1
68053.5
65389
62805.2
60313.3
58032.4
55945
54080.9
52442.5
51041.5
49870.7
48929.9
48226
47727.6
47453.1
47387.8
47515.2
47837.9
48355.2
49066.6
49976.1
51100.6
52445
53991.4
65324.6
65143.9
65030.2
64929.5
64738.2
64323.7
63648.3
62655.7
61330
59673.4
57743
55652.6
53528.1
51477.8
49545
47730.1
45998.7
44314.8
42662.3
41055.8
39543.9
38184.4
37045.7
36175.1
35588.9
35361.8
35347.7
35562.9
35959.6
36498.4
37142.7
37861.5
38632.7
39438.7
40271.6
41130.6
42028.2
42982.8
44017
45156.6
46428.8
47854.2
49439.2
51198.9
53111.6
55342.2
57590.8
59971.4
62411.6
64846.5
67188.7
69364.1
71271.8
72817.5
73903.4
74446.5
74355.4
73746.5
72533
70776.2
68570.4
66043.5
63325.3
60536.7
57772.7
55103.7
52565.3
50236.7
48126.2
46248
44607
43208.3
42044.9
41114.9
40423
39933.7
39672.8
39617.1
39745.2
40068.5
40584
41291.1
42195.6
43318
44669.1
46238.2
57861.2
57712.8
57662.3
57639.6
57535.1
57206.3
56534.6
55543.5
54184.8
52455.9
50420.4
48216.5
45994.5
43880
41917.8
40095.4
38362.9
36668.2
34988.8
33340.2
31774.7
30366.6
29192.3
28305.7
27730.7
27531.9
27555.6
27811.5
28253.1
28833.4
29514.5
30266.9
31059.5
31875.9
32708.2
33556.1
34433.2
35358.7
36362.2
37470.8
38715.8
40119.6
41694.5
43454.8
45406.2
47622.2
49944
52399.3
54932.8
57477.2
59941.9
62247.4
64285.8
65951.6
67133
67735
67650
67006
65711.1
63830.3
61474.2
58787.2
55918.7
52997.9
50124.2
47366.5
44773.1
42395.6
40263.3
38370.5
36730.2
35334
34180.5
33263.8
32584.9
32106.1
31861.5
31806.3
31942.6
32267.6
32781.1
33482.2
34379.2
35497.4
36849.9
38446.8
50374.2
50261.5
50284.4
50362
50354.1
50123.8
49486.2
48480.1
47079.2
45264.3
43108.7
40771.4
38436.8
36252.4
34261.7
32440
30712.4
29010.2
27301.4
25601.4
23970.5
22503.8
21288.1
20379.4
19836.3
19646.5
19719.9
20031.4
20526.3
21156.5
21880.9
22667.3
23484.3
24312.2
25143.7
25978.9
26832.4
27726.3
28693.8
29764.6
30977.7
32352.7
33917.8
35676.1
37652.4
39876.3
42263.1
44799
47434.9
50099.4
52700.4
55150.8
57335.6
59137.7
60429.2
61100.2
61023.6
60338.5
58950.7
56926.6
54397.5
51530.4
48494.5
45430.2
42437.7
39587.3
36930.6
34506.6
32354.9
30447.1
28812
27418.2
26277.2
25377.7
24712.7
24247.2
24023.8
23976.8
24114.9
24440.7
24951.7
25644.6
26529.5
27641.7
28984.6
30615.3
45284.7
45200.8
45283.6
45439.6
45511.6
45345.7
44760.8
43721
42291.3
40414
38157.3
35714.6
33293.3
31060.3
29054.9
27240.3
25521.5
23816.5
22085.7
20349.6
18665.5
17152.5
15904.6
14976.3
14464.2
14283.3
14395.9
14747.3
15280.6
15947.9
16703.9
17515.5
18350.7
19187.5
20018.6
20844.1
21679.9
22550.3
23490.9
24536.6
25719.5
27075.8
28626.4
30384.7
32372.2
34609.6
37038.7
39632.6
42343.6
45096.5
47798.8
50358
52654.4
54561.2
55938.2
56663.3
56591.5
55873.6
54414.6
52279.2
49619.8
46615.8
43454.4
40282.6
37202.9
34285.3
31586.2
29133.6
26967.7
25050
23423.6
22030.8
20905.2
20017.5
19361.6
18910.9
18695.4
18655.3
18796.7
19123.3
19632.2
20318.1
21196.1
22298.5
23624
25280.6
42618.2
42548.4
42665.1
42867.3
42984.1
42853.2
42301.1
41241.1
39792.9
37881.4
35568.6
33067.6
30598.3
28339.4
26327.1
24519.6
22808.3
21102.6
19358.3
17599.1
15885.4
14346.1
13081.3
12141.9
11647.7
11469.5
11606.6
11979.9
12534.7
13222
13995.1
14821.1
15666.2
16507.7
17338.4
18158.6
18984.8
19841.8
20767.6
21799.4
22967.3
24312.3
25854
27612.1
29605.2
31850.6
34301.7
36926.7
39678.1
42478.6
45235.9
47853.6
50210.4
52174.5
53598.7
54354
54286.4
53549.8
52052.1
49855.8
47124.7
44045.5
40815
37584.6
34457.6
31505.4
28785.1
26317.3
24145.1
22222.3
20601.2
19210.3
18091.3
17209.3
16559
16119.2
15903.5
15868.4
16012.2
16339.2
16846.9
17528.8
18402.3
19502
20813.1
22485.2
39947.5
39893.9
40047
40295.2
40459.8
40365.3
39849.8
38768.7
37300.2
35352.3
32982.6
30418.7
27899.6
25613.5
23596.2
21796.7
20092.6
18385.2
16628.1
14846.4
13100.9
11537.2
10254.5
9302.6
8827.58
8654.31
8813.21
9209.4
9786.77
10494.7
11285.5
12126.1
12981.4
13827.8
14658.2
15472.8
16289.2
17132.1
18042.5
19058.2
20212
21547.1
23076.5
24834.5
26832.6
29086.9
31559.7
34216.1
37009
39858.4
42672.6
45351.3
47770.5
49794.4
51268.1
52055.4
51992.7
51236.3
49698.9
47437.9
44630.8
41472.6
38170.4
34881.3
31707.4
28720.9
25979.3
23494
21318.3
19388.3
17777.5
16384
15269.6
14395.9
13752.1
13326
13107.2
13079.6
13225.1
13552.5
14058.9
14736.2
15602.9
16702
17994.8
19683.7
37268.3
37234.9
37421.3
37724.1
37938.6
37882.8
37399.7
36309.2
34811.9
32826.6
30398.2
27768.5
25196.1
22881.6
20860.9
19068.5
17373.6
15668.2
13898
12091.8
10316
8721.62
7417.88
6466.75
5994.99
5834.1
6016.24
6440.43
7038.23
7766.46
8575.14
9430.7
10296.7
11148.1
11978
12786.9
13593
14421.3
15315.3
16314.4
17453.5
18777.8
20293.6
22051.3
24054.5
26318.3
28812.9
31501.3
34336.5
37236
40108.5
42850.1
45334.5
47420.9
48946.8
49767.8
49710.9
48933.1
47354.7
45026.1
42139.4
38898.1
35522.6
32175.1
28953.9
25930.4
23166.2
20663.5
18483.2
16554.9
14949.2
13550.6
12449.2
11580.2
10941.8
10527.9
10312.5
10287.6
10435.8
10763
11268.9
11938.8
12799.3
13898
15173.9
16873
34581.8
34575.5
34800.3
35153.9
35423.4
35406.8
34950.7
33869.2
32333.4
30308.4
27815.8
25115.8
22486.3
20142.6
18120.4
16340.2
14659.2
12954.5
11165.4
9338.64
7526.78
5903.36
4594.55
3671.36
3209.22
3073.4
3279.78
3686.17
4290.35
5038.53
5864.43
6734.79
7611.94
8468.7
9298.11
10101
10896.6
11709.7
12586.6
13569.5
14692.7
16002.1
17510.4
19261.7
21270.2
23544.1
26060.5
28781.6
31660.5
34611.5
37544.3
40350.4
42902.1
45053.7
46634.6
47491.4
47441.3
46640.3
45019.6
42619.1
39647.6
36322.5
32872.7
29464.9
26193.9
23132.9
20347.3
17826.5
15641.2
13719.9
12106.9
10711.2
9619.16
8758.16
8128.14
7719.15
7517.18
7493.66
7645.62
7973.07
8473.3
9142.63
9994.42
11089.5
12348.7
14061
31887.8
31909.2
32174.4
32582.8
32909
32935.9
32507.7
31436.2
29858
27792.6
25231.5
22456.8
19769.2
17397.2
15377.5
13610.3
11941.1
10234.1
8434.74
6587
4738.67
3125.57
1941.77
1295.43
989.365
906.563
1017.55
1290.76
1767.97
2424.41
3184.24
4037.62
4926.62
5789
6618.36
7415.08
8199.71
8998.05
9856.71
10823.3
11928.7
13222.9
14725.2
16467.8
18480.9
20765
23302.6
26056.6
28979.9
31983.6
34978.8
37852.1
40473.7
42693.2
44331.7
45226.3
45183.3
44356.5
42691.7
40215.1
37158.2
33748.2
30221
26748.1
23426.6
20329.6
17521.5
14983.4
12798.4
10872.7
9257.94
7878.92
6786.44
5952.24
5332
4911.69
4722.39
4710.11
4852.39
5182.31
5673.04
6349.76
7186.31
8273.39
9518.68
11242.7
29188.2
29236.5
29551.8
30017.2
30401
30472.9
30075.7
29014.3
27388.5
25278.8
22648.7
19794.2
17044.5
14645.5
12627.8
10872
9217.85
7522.09
5712.51
3841.31
2096.47
973.486
377.626
192.883
121.69
100
120.275
183.949
340.734
622.101
1025.79
1613.21
2365.19
3142.92
3938.55
4728.91
5503.09
6287.21
7126.44
8074.02
9162.17
10441
11933.2
13673.5
15686.4
17981.6
20540.2
23327.2
26295.6
29352.8
32411.8
35354.1
38048.1
40338.7
42038
42972.5
42940
42084.7
40375.4
37821.8
34676.1
31171.4
27559.8
24023.7
20653.1
17518.9
14687.4
12137.7
9946.49
8022.42
6415.52
5055.3
3968.33
3174.3
2594.61
2235.11
2087.52
2078.48
2217.8
2512.24
2947.94
3570.41
4369.8
5451.38
6684.58
8407.8
26383.8
26464.5
26822.3
27326.7
27807.9
27928.9
27564.5
26517.7
24837.9
22680.1
19976.4
17035.3
14216.4
11786.7
9772.96
8037.36
6411.01
4727.85
2951.67
1438.14
451.609
127.332
37.8316
33.3058
31.8713
31.6433
32.022
33.8857
40.4448
61.2501
123.534
291.507
606.855
1000.21
1503.16
2130.21
2794.21
3501.47
4299.91
5228.17
6295.48
7558.19
9039.09
10777.1
12789.3
15094.1
17674.7
20496.6
23512.7
26626.6
29753.5
32769.2
35540.3
37907.3
39672.7
40651
40630.7
39743.4
37987.8
35348.1
32100
28494.5
24797.4
21199.4
17776
14602.1
11749.9
9187.05
6991.17
5080.23
3495.32
2245.53
1455.05
968.519
669.039
514.584
459.378
455.972
509.957
633.82
839.778
1176.77
1740.4
2649.04
3758.66
5463.97
23476.6
23598.2
24004.5
24589.3
25130.1
25307.2
24977.5
23951
22213.7
20000.7
17215.3
14174.5
11281.7
8821.98
6822.12
5117.08
3535.38
2011.71
834.035
213.894
35.4347
25.9108
26.2956
26.4987
25.8638
25.5929
25.1903
24.7589
24.6264
24.9378
26.2846
31.9361
50.1473
101.748
226.844
463.145
757.14
1133.4
1674.73
2431.79
3360.98
4570.28
6046.3
7778.53
9791.09
12103.1
14705.2
17563.3
20629.7
23803.4
27002.7
30097
32950.8
35400.2
37237.7
38263.6
38257
37331.4
35525
32789.3
29433.3
25728.6
21943.6
18273.6
14791.4
11579.8
8709.81
6136.57
3953.28
2173.28
1088.06
452.586
216.812
114.321
66.6875
49.6062
45.0895
44.3792
47.3406
56.383
78.9724
136.719
290.758
642.693
1224.45
2558.67
20556.3
20704.4
21176.5
21843.3
22459.4
22694.4
22402.9
21390.7
19609.3
17325.7
14446.6
11305.7
8338.75
5855.91
3879.69
2296.57
1169.69
378.821
80.5111
21.8721
22.3105
21.5473
22.6091
22.6668
22.1931
21.9626
21.5721
21.0721
20.6533
20.2579
19.8428
19.7969
20.1827
21.6319
25.8592
36.6204
63.1489
126.152
276.547
571.683
1027.8
1845.66
3100.49
4771
6790.73
9111.24
11731.9
14624.5
17741.6
20975.7
24249.4
27424.6
30363.7
32899.4
34813
35889.3
35901.5
34931.4
33073.8
30240.2
26777.1
22965.4
19080.1
15335.4
11800.6
8555.33
5669.92
3118.98
1362.39
419.326
131.646
32.9824
26.5743
25.5309
25.1538
25.0861
24.8832
24.5423
24.3245
24.2877
24.8575
26.8644
31.7514
52.4299
141.002
598.987
17627.7
17814.5
18349.7
19096.8
19790.4
20090.3
19833.2
18826.3
17018.5
14646.4
11676
8434.38
5386.73
2921.52
1357.36
490.939
146.489
19.2951
15.8031
17.3877
19.0286
18.0577
18.9175
19.0531
18.6283
18.387
18.0293
17.5596
17.1249
16.7451
16.2953
15.9891
15.6925
15.4953
15.5906
16.149
17.5764
20.4397
26.9686
43.4952
101.131
327.551
876.135
1992.69
3786.38
6110.72
8757.34
11682.7
14848.9
18144
21493.6
24752
27778.9
30404.5
32398.4
33527.7
33564.7
32544.3
30637
27701.1
24121.5
20189.1
16201.2
12391.2
8807.72
5527.86
2696.16
860.681
188.632
28.6165
22.8848
22.0564
22.2518
21.3598
21.0234
20.9305
20.6244
20.2592
19.9039
19.5343
19.3616
19.5161
19.4513
19.5556
23.5473
45.6404
14684
14903.6
15510.5
16350.5
17130.3
17495.1
17275.8
16268.9
14444.2
11981
8919.16
5558.12
2510.51
777.221
184.296
26.7673
14.814
13.7613
12.5966
13.8222
15.1128
14.6256
15.3058
15.4512
15.1005
14.8702
14.516
14.0633
13.6544
13.2702
12.8298
12.4489
12.1355
11.9155
11.8204
11.9016
12.1912
12.753
13.8459
14.6629
17.02
25.7543
73.3449
380.123
1269.23
3156.78
5770.59
8738.71
11953.8
15308.2
18735.2
22078.8
25196
27915.2
29994
31179
31245.7
30166.7
28209.6
25163
21455.3
17400.6
13317.4
9444.9
5810.72
2583.85
645.359
80.6419
19.9888
20.506
19.1492
18.4409
18.455
17.6515
17.3453
17.2797
16.9864
16.6851
16.3391
15.9547
15.6857
15.6091
15.2094
14.5827
15.9836
16.9845
11729.8
11995.9
12672.5
13603.6
14450.8
14909.3
14733.2
13734.5
11884.4
9332.19
6161
2741.89
579.017
60.2987
12.283
12.5536
10.9718
10.2726
9.30643
10.2818
11.4562
11.1577
11.7305
11.8508
11.5661
11.3225
11.0023
10.566
10.1622
9.78438
9.37093
9.03163
8.73327
8.49277
8.36664
8.36227
8.62795
9.10849
9.82191
10.0127
10.334
10.894
13.2989
24.9048
143.345
913.888
2868.78
5780.58
9056.05
12469.8
15973.8
19404.1
22614.4
25430.7
27599.1
28842.5
28945.6
27797
25788.3
22625
18783.6
14609.6
10432.1
6494.68
2870.53
603.679
44.3896
14.1307
16.179
16.6298
15.4297
14.7681
14.7487
14.0995
13.8067
13.7083
13.4176
13.0427
12.7588
12.3857
12.1194
12.0274
11.693
10.9747
11.9115
12.4263
8760.21
9061.73
9818.92
10857.9
11835
12337.5
12198.9
11212.4
9342.26
6680.75
3425.27
738.763
31.567
5.56678
8.54457
8.70306
7.34907
6.71616
5.98384
6.75652
7.82462
7.66189
8.14618
8.26395
8.02873
7.78747
7.47755
7.06877
6.67509
6.30128
5.89518
5.55273
5.27378
5.05268
4.9474
4.9707
5.2297
5.68252
6.28055
6.36549
6.55916
6.81978
7.35498
7.37592
10.2506
74.6709
766.366
2905.5
6141.35
9631.93
13209
16726.8
20032.5
22949.7
25212.6
26516.7
26666.5
25435.2
23374.8
20090.7
16110.8
11817.4
7540.34
3564.74
769.344
39.6763
10.9138
10.7781
12.2788
12.7512
11.7202
11.219
11.1075
10.5404
10.269
10.1451
9.88435
9.58658
9.26085
8.90472
8.62838
8.48856
8.1736
7.54471
8.40396
8.62779
5775.75
6126.82
6971.07
8108.52
9183.14
9771.91
9677.33
8700
6806.32
4048.4
1196.27
56.424
3.47846
2.32716
4.65156
4.89183
3.70476
3.21743
2.62731
3.22778
4.19651
4.14665
4.57551
4.68291
4.47718
4.24233
3.94449
3.56127
3.18122
2.81735
2.43243
2.09794
1.82275
1.60678
1.4958
1.52384
1.77795
2.21534
2.7693
2.91184
3.11959
3.22209
3.44064
3.07219
1.996
5.80423
53.5915
807.802
3268.15
6783.15
10445.2
14045.3
17445.7
20472.5
22833.6
24200.1
24409.4
23080.7
20969
17558.5
13435.2
9021.46
4649
1199.5
62.7168
9.80689
7.57496
7.21998
8.42345
8.94229
8.07781
7.62908
7.50544
6.98999
6.72438
6.581
6.33221
6.00968
5.71855
5.38816
5.12062
4.95629
4.68145
4.11923
4.76408
4.89933
2826.02
3203.47
4102.71
5362.51
6571.17
7234.96
7181.38
6212.54
4268.82
1700.49
147.117
-3.68326
-0.142834
-1.19876
0.794941
1.13243
0.0891036
-0.343118
-0.746021
-0.291406
0.590031
0.62401
1.00686
1.09819
0.923511
0.702641
0.413399
0.0466016
-0.319193
-0.672382
-1.04211
-1.36573
-1.63126
-1.83508
-1.9404
-1.91326
-1.6705
-1.2597
-0.769247
-0.611168
-0.399395
-0.267972
-0.0961534
-0.688499
-1.77163
-0.237229
0.914646
54.4633
1012.23
3928.56
7681.38
11370.1
14851.8
17990.5
20461.6
21890.7
22125.6
20780
18569.5
15024.8
10757.2
6224.85
1974.66
146.987
3.7293
6.08004
3.8991
3.60184
4.63778
5.15122
4.45916
4.03837
3.90597
3.43517
3.17191
3.02617
2.77407
2.47781
2.1802
1.85737
1.6008
1.40921
1.1577
0.663963
1.13118
1.18023
637.803
848.37
1488.89
2652.9
3915.38
4667.41
4668.48
3740.51
1951.85
301.843
-18.7629
-7.81323
-4.35482
-4.8755
-3.04623
-2.62116
-3.51065
-3.87292
-4.16631
-3.80302
-2.9989
-2.90759
-2.56824
-2.48094
-2.63197
-2.8433
-3.11762
-3.469
-3.82184
-4.16495
-4.5185
-4.83266
-5.09075
-5.28575
-5.38553
-5.35755
-5.1269
-4.74182
-4.2943
-4.12572
-3.92575
-3.83144
-3.70465
-4.18255
-5.14555
-4.24662
-5.11783
-5.03493
92.9982
1466.81
4900.61
8697.75
12273.1
15493.8
18091.2
19589.3
19808.2
18536.3
16176.1
12491.9
8080.34
3466.24
364.305
-2.47233
-0.585589
1.87257
0.169603
-0.0234869
0.87148
1.37812
0.835006
0.44408
0.301859
-0.130036
-0.384911
-0.531751
-0.785234
-1.06335
-1.36075
-1.67375
-1.92308
-2.13687
-2.38501
-2.82738
-2.50251
-2.53291
-13.9469
0.904612
151.114
693.913
1537.29
2217.07
2287.06
1628.15
452.924
-16.1363
-22.3718
-11.7557
-8.55135
-8.53849
-6.85643
-6.3517
-7.10591
-7.40767
-7.60943
-7.30677
-6.58348
-6.44424
-6.14084
-6.05537
-6.18671
-6.38696
-6.64915
-6.98448
-7.32461
-7.65923
-7.99792
-8.3013
-8.55195
-8.7391
-8.83435
-8.80722
-8.59021
-8.2335
-7.82682
-7.65483
-7.46113
-7.37502
-7.29665
-7.73806
-8.5371
-7.99576
-9.05106
-10.7778
-8.50102
224.928
2297.59
5999.97
9729.97
12997.2
15701.7
17300.1
17500.8
16306.4
13790.9
9955.21
5408.91
1253.34
23.7874
-5.24247
-4.32991
-2.38468
-3.52117
-3.64019
-2.85673
-2.37483
-2.80026
-3.1549
-3.30437
-3.69789
-3.94007
-4.08949
-4.34686
-4.59866
-4.90835
-5.2064
-5.45061
-5.68302
-5.9335
-6.33735
-6.13486
-6.23876
-21.1455
-22.4274
-25.3074
-3.9659
175.694
557.42
634.073
296.138
-3.17062
-26.2313
-24.9962
-15.3655
-12.6066
-12.1871
-10.6321
-10.0694
-10.6974
-10.9431
-11.0676
-10.8136
-10.1594
-9.98301
-9.71103
-9.62478
-9.74009
-9.92943
-10.1812
-10.5015
-10.8291
-11.153
-11.4805
-11.7725
-12.0151
-12.1949
-12.2868
-12.2613
-12.0588
-11.7311
-11.3626
-11.1942
-11.0123
-10.9439
-10.9033
-11.2872
-11.9875
-11.7113
-12.7473
-14.6149
-16.2076
-8.19287
587.147
3334.53
7156.18
10559
13286.6
15000.4
15198.5
14097.3
11407.3
7410.73
2849.83
175.372
-9.45211
-8.47924
-8.00267
-6.55793
-7.22729
-7.26785
-6.56942
-6.11336
-6.44198
-6.75616
-6.90866
-7.26125
-7.49284
-7.65042
-7.89951
-8.14172
-8.44436
-8.74341
-8.97994
-9.22882
-9.48714
-9.86248
-9.76555
-9.93391
-24.9022
-26.5244
-30.5522
-33.1627
-36.2831
-9.4072
6.92767
-28.2158
-27.0784
-29.5818
-27.712
-19.0315
-16.5462
-15.8455
-14.3805
-13.7749
-14.2844
-14.4799
-14.5429
-14.3208
-13.7272
-13.5226
-13.278
-13.1898
-13.2915
-13.4704
-13.7114
-14.0181
-14.3342
-14.6481
-14.9652
-15.2455
-15.4805
-15.6531
-15.7425
-15.7186
-15.5318
-15.2319
-14.8998
-14.738
-14.5709
-14.5228
-14.5173
-14.878
-15.4981
-15.3945
-16.4124
-18.3292
-20.1085
-23.6699
16.9463
1174.96
4527.58
8125.05
10974.7
12621.4
12923.4
11905.8
8991.39
4927.21
974.164
-13.7569
-14.7202
-12.2888
-11.8438
-10.6082
-10.9649
-10.908
-10.275
-9.84207
-10.081
-10.3569
-10.5126
-10.8164
-11.043
-11.2105
-11.4397
-11.6943
-11.974
-12.275
-12.5152
-12.7693
-13.0414
-13.3982
-13.3946
-13.6312
-28.6479
-30.0472
-33.9284
-36.5984
-39.3866
-40.6685
-39.7271
-35.4214
-30.6739
-32.8785
-30.5543
-22.6512
-20.354
-19.4898
-18.1057
-17.4751
-17.8675
-18.0158
-18.0301
-17.8285
-17.2904
-17.0635
-16.8408
-16.7511
-16.8411
-17.0094
-17.2399
-17.5322
-17.8376
-18.1424
-18.4496
-18.7191
-18.9481
-19.1132
-19.201
-19.1783
-19.0074
-18.734
-18.4381
-18.2841
-18.1358
-18.1075
-18.1333
-18.4817
-19.053
-19.1134
-20.0899
-21.9029
-24.1375
-27.7504
-31.8017
168.96
2138.87
5584.69
8698.58
10378.3
10501.5
9735.75
6616.55
2593.4
125.927
-29.415
-19.0573
-16.3279
-15.7147
-14.6046
-14.6991
-14.5601
-13.9702
-13.5581
-13.7219
-13.9517
-14.1088
-14.3718
-14.5919
-14.7664
-14.9841
-15.2383
-15.5088
-15.7973
-16.0544
-16.3085
-16.5948
-16.9397
-17.0176
-17.3253
-32.4729
-33.8187
-37.2025
-39.6794
-42.3042
-44.0307
-42.6805
-38.5715
-34.4197
-35.9516
-33.4365
-26.2835
-24.1094
-23.126
-21.8165
-21.1635
-21.4522
-21.5541
-21.5266
-21.3375
-20.8489
-20.6054
-20.3999
-20.3081
-20.3882
-20.5469
-20.7683
-21.0458
-21.3405
-21.6358
-21.9332
-22.1926
-22.4159
-22.5749
-22.6615
-22.6406
-22.4851
-22.2373
-21.9751
-21.8304
-21.7046
-21.6957
-21.751
-22.0949
-22.6367
-22.8376
-23.8258
-25.5404
-27.8361
-31.4715
-37.4862
-31.6746
565.604
3073.61
6302.3
8213.66
8149.09
7530.28
4306.42
895.289
-36.0477
-33.0509
-23.3142
-20.5288
-19.5702
-18.5512
-18.4318
-18.2217
-17.6559
-17.2579
-17.3607
-17.5435
-17.6974
-17.9307
-18.1416
-18.3199
-18.5278
-18.7842
-19.0418
-19.323
-19.5923
-19.8471
-20.1495
-20.4845
-20.6243
-21.0018
-36.2044
-37.4474
-40.6092
-42.9244
-45.2146
-46.5242
-45.4571
-41.7084
-37.9743
-39.0099
-36.3318
-29.9556
-27.8336
-26.7611
-25.5141
-24.8344
-25.0331
-25.0932
-25.0323
-24.8489
-24.3995
-24.146
-23.9554
-23.8624
-23.9335
-24.0825
-24.2936
-24.5596
-24.8435
-25.1286
-25.4172
-25.6665
-25.8848
-26.0379
-26.1242
-26.1051
-25.9657
-25.741
-25.5095
-25.3771
-25.275
-25.2843
-25.3685
-25.7142
-26.2414
-26.5604
-27.571
-29.2597
-31.5526
-35.2196
-40.8686
-49.9314
2.46639
1121.45
3849.9
5906.3
5993.84
5214.97
2194.27
101.943
-50.0998
-36.7978
-27.8035
-24.7126
-23.4765
-22.4502
-22.1729
-21.8842
-21.3339
-20.9434
-20.9922
-21.1374
-21.282
-21.4913
-21.6917
-21.8721
-22.0715
-22.3264
-22.578
-22.8492
-23.1298
-23.3842
-23.7018
-24.0315
-24.2268
-24.6506
-40.0331
-41.1401
-43.9237
-46.1008
-48.1807
-49.456
-48.2911
-44.8197
-41.4907
-42.0844
-39.3089
-33.6194
-31.5263
-30.3909
-29.195
-28.4982
-28.6093
-28.6324
-28.5425
-28.3606
-27.946
-27.6867
-27.5072
-27.4152
-27.4777
-27.617
-27.8192
-28.0726
-28.346
-28.6218
-28.9013
-29.1411
-29.3549
-29.5009
-29.5882
-29.571
-29.4481
-29.2449
-29.0426
-28.9212
-28.8434
-28.8727
-28.9862
-29.3366
-29.8604
-30.2805
-31.3191
-33.0008
-35.343
-38.9584
-44.7699
-53.6652
-63.3465
160.557
1627.15
3569.38
3796.16
2993.03
725.605
-64.7591
-53.5181
-40.3854
-32.3969
-28.8416
-27.3868
-26.3252
-25.9119
-25.5474
-25.0046
-24.6188
-24.6194
-24.7328
-24.8643
-25.0531
-25.2423
-25.4227
-25.6167
-25.8656
-26.1199
-26.3777
-26.6686
-26.9216
-27.2492
-27.582
-27.8306
-28.2931
-43.7535
-44.779
-47.3187
-49.3153
-51.1559
-52.1641
-51.1355
-47.9411
-44.9598
-45.1484
-42.3581
-37.2691
-35.1936
-34.0136
-32.8607
-32.1549
-32.1873
-32.1727
-32.0559
-31.8733
-31.4886
-31.2276
-31.0568
-30.966
-31.0201
-31.1506
-31.3446
-31.5836
-31.8482
-32.1152
-32.3854
-32.6161
-32.8261
-32.9649
-33.0536
-33.0383
-32.9306
-32.747
-32.5711
-32.4642
-32.4098
-32.456
-32.6008
-32.9629
-33.4882
-33.9966
-35.0678
-36.753
-39.1486
-42.7507
-48.6318
-57.4164
-70.4158
-64.2014
354.404
1447.87
1799.2
1181.22
71.2459
-76.7083
-57.4448
-44.4307
-36.7961
-32.9587
-31.294
-30.1929
-29.6391
-29.2115
-28.6683
-28.2862
-28.2445
-28.3284
-28.4451
-28.616
-28.7945
-28.9723
-29.163
-29.4038
-29.6626
-29.9084
-30.2098
-30.4604
-30.7998
-31.1343
-31.4249
-31.9429
-47.5513
-48.4214
-50.671
-52.5265
-54.1647
-55.2073
-54.0224
-51.0817
-48.3712
-48.2438
-45.4617
-40.8993
-38.8403
-37.6294
-36.5139
-35.8014
-35.7647
-35.7128
-35.5727
-35.3883
-35.0286
-34.7689
-34.6055
-34.5142
-34.561
-34.683
-34.8681
-35.0946
-35.3501
-35.6091
-35.8697
-36.0919
-36.2983
-36.4299
-36.5207
-36.5074
-36.4143
-36.2492
-36.0967
-36.004
-35.9706
-36.0364
-36.2084
-36.5877
-37.1256
-37.7049
-38.8154
-40.5161
-42.96
-46.5623
-52.4079
-61.3951
-74.0165
-87.1004
-61.7522
227.518
386.114
170.904
-70.1449
-79.9262
-60.8826
-48.822
-41.1239
-37.0687
-35.196
-34.0372
-33.3645
-32.8771
-32.3292
-31.9458
-31.8674
-31.9237
-32.0247
-32.1796
-32.3469
-32.5216
-32.7089
-32.9463
-33.2031
-33.4368
-33.7508
-33.9971
-34.3494
-34.6893
-35.0119
-35.56
-51.2752
-52.0472
-54.059
-55.751
-57.1945
-58.0483
-56.9419
-54.2283
-51.7578
-51.3654
-48.6157
-44.5066
-42.4689
-41.2376
-40.1551
-39.4376
-39.3389
-39.2525
-39.093
-38.905
-38.5665
-38.3094
-38.1504
-38.0607
-38.1004
-38.2146
-38.39
-38.6068
-38.8514
-39.1033
-39.3557
-39.5677
-39.7715
-39.8961
-39.9893
-39.9781
-39.899
-39.7516
-39.6206
-39.5426
-39.5286
-39.6119
-39.8112
-40.2056
-40.7655
-41.4112
-42.5497
-44.2863
-46.7775
-50.3782
-56.1925
-65.0378
-77.684
-91.8056
-103.795
-86.6566
-68.0827
-85.2495
-105.232
-84.6316
-64.7373
-52.8771
-45.3393
-41.1469
-39.0885
-37.8458
-37.0885
-36.5438
-35.9864
-35.598
-35.4879
-35.5184
-35.6035
-35.7441
-35.8999
-36.0713
-36.2554
-36.4838
-36.7454
-36.9683
-37.2929
-37.5341
-37.8973
-38.2484
-38.603
-39.1775
-55.0265
-55.6552
-57.4325
-58.9826
-60.2502
-60.9964
-59.9007
-57.3937
-55.122
-54.5118
-51.8128
-48.0921
-46.0817
-44.8385
-43.7852
-43.0647
-42.9104
-42.7923
-42.616
-42.4226
-42.1023
-41.8499
-41.6925
-41.6052
-41.6377
-41.7447
-41.9116
-42.1181
-42.3522
-42.5975
-42.8425
-43.0438
-43.2458
-43.3635
-43.4594
-43.4505
-43.384
-43.2535
-43.1428
-43.0797
-43.0845
-43.1849
-43.4072
-43.817
-44.4
-45.1126
-46.2662
-48.0417
-50.5917
-54.2025
-59.9421
-68.6379
-80.8579
-95.1945
-109.354
-117.319
-119.761
-118.201
-112.877
-88.0244
-68.9263
-56.9686
-49.4942
-45.1917
-42.9752
-41.6422
-40.8066
-40.2079
-39.6391
-39.2456
-39.1068
-39.1132
-39.1821
-39.3085
-39.4541
-39.6203
-39.8021
-40.0255
-40.2845
-40.5009
-40.8355
-41.0717
-41.4438
-41.8084
-42.1917
-42.7962
-58.7363
-59.258
-60.8205
-62.2225
-63.3294
-63.9605
-62.8898
-60.5725
-58.4638
-57.6798
-55.0462
-51.6557
-49.6819
-48.4317
-47.4048
-46.6832
-46.4794
-46.332
-46.1405
-45.9418
-45.6363
-45.39