/*--------------------------------*- C++ -*----------------------------------*\
| =========                 |                                                 |
| \\      /  F ield         | OpenFOAM: The Open Source CFD Toolbox           |
|  \\    /   O peration     | Version:  v1912                                 |
|   \\  /    A nd           | Website:  www.openfoam.com                      |
|    \\/     M anipulation  |                                                 |
\*---------------------------------------------------------------------------*/
FoamFile
{
    version     2.0;
    format      ascii;
    class       volScalarField;
    location    "50";
    object      nut;
}
// * * * * * * * * * * * * * * * * * * * * * * * * * * * * * * * * * * * * * //

dimensions      [0 2 -1 0 0 0 0];


internalField   nonuniform List<scalar> 
14268
(
6.90769e-05
6.9296e-05
6.96303e-05
7.00846e-05
7.07601e-05
7.15937e-05
7.23791e-05
7.29705e-05
7.33806e-05
7.36373e-05
7.37737e-05
7.38266e-05
7.38355e-05
7.38159e-05
7.37484e-05
7.36558e-05
7.35666e-05
7.34721e-05
7.33798e-05
7.32892e-05
7.31999e-05
7.31116e-05
7.30239e-05
7.29364e-05
7.28488e-05
7.27609e-05
7.26725e-05
7.25835e-05
7.24935e-05
7.24028e-05
7.23124e-05
7.22288e-05
7.21516e-05
7.20795e-05
7.20117e-05
7.19475e-05
7.18866e-05
7.18293e-05
7.17758e-05
7.17269e-05
7.16835e-05
7.16467e-05
7.16174e-05
7.15963e-05
7.15837e-05
7.15791e-05
7.15828e-05
7.15929e-05
7.16074e-05
7.1624e-05
7.16409e-05
7.16567e-05
7.16696e-05
7.16781e-05
7.16809e-05
7.16762e-05
7.16629e-05
7.16406e-05
7.16086e-05
7.15661e-05
7.1512e-05
7.14452e-05
7.13643e-05
7.12703e-05
7.11749e-05
7.10798e-05
7.0985e-05
7.08904e-05
7.07968e-05
7.07055e-05
7.0617e-05
7.05311e-05
7.0448e-05
7.03674e-05
7.02875e-05
7.02082e-05
7.013e-05
7.0053e-05
6.99776e-05
6.99041e-05
6.98324e-05
6.97628e-05
6.96955e-05
6.96304e-05
6.95677e-05
6.95073e-05
6.94492e-05
6.93937e-05
6.9341e-05
6.92994e-05
6.92709e-05
6.92543e-05
6.92475e-05
6.9251e-05
6.92637e-05
6.92844e-05
6.9313e-05
6.93524e-05
6.94028e-05
6.94621e-05
6.95295e-05
6.96057e-05
6.96912e-05
6.97848e-05
6.98849e-05
6.99873e-05
7.00931e-05
7.01975e-05
7.02996e-05
7.0401e-05
7.0502e-05
7.06024e-05
7.07024e-05
7.08053e-05
7.09129e-05
7.10266e-05
7.11471e-05
7.12749e-05
7.14113e-05
7.15572e-05
7.17138e-05
7.18825e-05
7.20644e-05
7.22584e-05
7.24635e-05
7.26799e-05
7.29077e-05
7.31455e-05
7.33909e-05
7.36412e-05
7.38923e-05
7.41393e-05
7.43787e-05
7.46066e-05
7.48216e-05
7.50208e-05
7.52037e-05
7.53701e-05
7.55199e-05
7.56538e-05
7.5773e-05
7.58784e-05
7.59709e-05
7.60513e-05
7.61193e-05
7.61745e-05
7.62169e-05
7.62465e-05
7.62642e-05
7.62713e-05
7.62764e-05
7.62816e-05
7.62867e-05
7.62917e-05
7.62954e-05
7.62971e-05
7.62968e-05
7.62939e-05
7.62876e-05
7.62772e-05
7.62624e-05
7.62414e-05
7.62151e-05
7.61858e-05
2.61176e-07
6.12826e-07
6.89608e-07
7.25634e-07
7.8322e-07
8.8446e-07
1.01365e-06
1.12761e-06
1.21252e-06
1.26391e-06
1.28654e-06
1.28579e-06
1.26845e-06
1.24149e-06
1.2085e-06
1.17405e-06
1.14019e-06
1.1083e-06
1.07894e-06
1.05251e-06
1.02924e-06
1.00924e-06
9.92557e-07
9.79133e-07
9.68859e-07
9.61559e-07
9.57004e-07
9.54867e-07
9.54969e-07
9.57081e-07
9.60624e-07
9.64634e-07
9.69074e-07
9.73846e-07
9.78875e-07
9.84113e-07
9.89549e-07
9.95193e-07
1.00109e-06
1.0073e-06
1.01391e-06
1.02101e-06
1.02872e-06
1.03711e-06
1.04624e-06
1.05615e-06
1.06682e-06
1.07819e-06
1.09018e-06
1.10263e-06
1.11539e-06
1.12826e-06
1.14108e-06
1.15367e-06
1.16586e-06
1.17753e-06
1.18853e-06
1.19876e-06
1.20811e-06
1.21645e-06
1.2236e-06
1.22939e-06
1.23363e-06
1.23607e-06
1.23524e-06
1.23097e-06
1.22347e-06
1.21311e-06
1.20042e-06
1.18602e-06
1.17059e-06
1.15479e-06
1.13914e-06
1.12396e-06
1.10946e-06
1.09579e-06
1.08302e-06
1.07113e-06
1.06007e-06
1.04977e-06
1.04026e-06
1.03161e-06
1.02394e-06
1.01747e-06
1.01242e-06
1.00902e-06
1.00737e-06
1.00772e-06
1.01007e-06
1.01356e-06
1.01795e-06
1.02319e-06
1.0292e-06
1.03597e-06
1.04345e-06
1.05165e-06
1.06062e-06
1.07049e-06
1.08134e-06
1.09324e-06
1.10623e-06
1.12037e-06
1.13568e-06
1.15213e-06
1.16959e-06
1.18792e-06
1.20691e-06
1.22639e-06
1.24621e-06
1.26633e-06
1.28674e-06
1.30756e-06
1.32892e-06
1.35097e-06
1.37391e-06
1.39792e-06
1.42327e-06
1.4502e-06
1.47899e-06
1.50993e-06
1.54332e-06
1.57954e-06
1.619e-06
1.66212e-06
1.70939e-06
1.76148e-06
1.819e-06
1.88245e-06
1.95224e-06
2.02857e-06
2.11141e-06
2.20043e-06
2.29492e-06
2.394e-06
2.49679e-06
2.60236e-06
2.71017e-06
2.81963e-06
2.93021e-06
3.04136e-06
3.15226e-06
3.26212e-06
3.36998e-06
3.47427e-06
3.57257e-06
3.66245e-06
3.74157e-06
3.80685e-06
3.85529e-06
3.8861e-06
3.9014e-06
3.90204e-06
3.88777e-06
3.85822e-06
3.81781e-06
3.76983e-06
3.71646e-06
3.65947e-06
3.59989e-06
3.54079e-06
3.48192e-06
3.42549e-06
3.36913e-06
3.31571e-06
5.81511e-08
1.22093e-07
1.41202e-07
1.58728e-07
1.85207e-07
2.29599e-07
2.86019e-07
3.37947e-07
3.79505e-07
4.09104e-07
4.27455e-07
4.36752e-07
4.4003e-07
4.39421e-07
4.36362e-07
4.32118e-07
4.27595e-07
4.23189e-07
4.19094e-07
4.15429e-07
4.12252e-07
4.09574e-07
4.07388e-07
4.05677e-07
4.04412e-07
4.03558e-07
4.03073e-07
4.02893e-07
4.03025e-07
4.03406e-07
4.03972e-07
4.04604e-07
4.05303e-07
4.06054e-07
4.0685e-07
4.07682e-07
4.08552e-07
4.09459e-07
4.10413e-07
4.11423e-07
4.12505e-07
4.13676e-07
4.14955e-07
4.16359e-07
4.179e-07
4.19586e-07
4.21419e-07
4.2339e-07
4.25485e-07
4.27678e-07
4.29942e-07
4.32242e-07
4.34545e-07
4.36818e-07
4.3903e-07
4.41155e-07
4.43169e-07
4.45049e-07
4.46772e-07
4.48311e-07
4.49636e-07
4.50714e-07
4.51506e-07
4.51958e-07
4.5182e-07
4.51055e-07
4.49711e-07
4.47861e-07
4.45606e-07
4.4307e-07
4.40376e-07
4.37646e-07
4.34969e-07
4.3241e-07
4.30003e-07
4.27765e-07
4.25701e-07
4.23805e-07
4.22062e-07
4.20464e-07
4.19009e-07
4.17706e-07
4.16573e-07
4.15637e-07
4.1493e-07
4.14476e-07
4.14303e-07
4.14442e-07
4.1488e-07
4.15502e-07
4.16284e-07
4.17222e-07
4.18303e-07
4.19524e-07
4.20878e-07
4.2237e-07
4.24008e-07
4.25815e-07
4.27809e-07
4.30002e-07
4.32412e-07
4.35049e-07
4.37921e-07
4.41024e-07
4.44337e-07
4.47829e-07
4.51468e-07
4.55222e-07
4.59064e-07
4.62983e-07
4.66979e-07
4.7107e-07
4.75281e-07
4.79643e-07
4.84192e-07
4.8897e-07
4.94028e-07
4.99414e-07
5.05185e-07
5.114e-07
5.18124e-07
5.25432e-07
5.3344e-07
5.42269e-07
5.52029e-07
5.62833e-07
5.74797e-07
5.88027e-07
6.026e-07
6.18553e-07
6.35863e-07
6.54444e-07
6.74142e-07
6.94766e-07
7.16116e-07
7.37991e-07
7.60245e-07
7.82761e-07
8.05421e-07
8.28112e-07
8.50671e-07
8.72937e-07
8.94737e-07
9.15763e-07
9.35557e-07
9.53671e-07
9.69673e-07
9.82981e-07
9.93026e-07
9.99693e-07
1.00301e-06
1.00302e-06
9.99572e-07
9.92623e-07
9.83188e-07
9.72042e-07
9.59722e-07
9.46759e-07
9.33252e-07
9.19782e-07
9.06097e-07
8.92768e-07
8.80033e-07
8.67374e-07
2.82888e-08
6.10699e-08
7.48374e-08
8.97275e-08
1.11416e-07
1.46608e-07
1.91207e-07
2.33163e-07
2.68117e-07
2.9469e-07
3.1311e-07
3.24856e-07
3.31749e-07
3.35447e-07
3.37161e-07
3.37771e-07
3.3781e-07
3.37562e-07
3.37219e-07
3.36882e-07
3.36588e-07
3.36345e-07
3.36147e-07
3.36001e-07
3.35895e-07
3.35822e-07
3.35773e-07
3.35739e-07
3.35718e-07
3.35704e-07
3.35693e-07
3.35685e-07
3.35681e-07
3.3568e-07
3.35689e-07
3.35699e-07
3.35716e-07
3.3574e-07
3.35773e-07
3.35818e-07
3.3588e-07
3.35961e-07
3.36065e-07
3.36196e-07
3.36356e-07
3.36546e-07
3.36771e-07
3.37031e-07
3.37326e-07
3.37651e-07
3.38003e-07
3.38376e-07
3.38763e-07
3.39155e-07
3.39546e-07
3.39927e-07
3.40292e-07
3.40634e-07
3.40946e-07
3.4122e-07
3.41447e-07
3.41618e-07
3.41723e-07
3.41747e-07
3.41636e-07
3.41399e-07
3.41051e-07
3.40612e-07
3.4011e-07
3.39574e-07
3.39032e-07
3.38506e-07
3.38011e-07
3.37556e-07
3.37143e-07
3.36771e-07
3.3644e-07
3.36149e-07
3.35896e-07
3.35679e-07
3.35498e-07
3.35352e-07
3.35244e-07
3.35172e-07
3.35135e-07
3.3513e-07
3.35155e-07
3.35206e-07
3.3528e-07
3.35367e-07
3.35481e-07
3.35622e-07
3.35791e-07
3.35988e-07
3.36214e-07
3.3647e-07
3.36759e-07
3.37082e-07
3.37443e-07
3.37847e-07
3.383e-07
3.38805e-07
3.39368e-07
3.3999e-07
3.40669e-07
3.41401e-07
3.42181e-07
3.43003e-07
3.43863e-07
3.44758e-07
3.45688e-07
3.46658e-07
3.47674e-07
3.48742e-07
3.49872e-07
3.51079e-07
3.52377e-07
3.53778e-07
3.55303e-07
3.56971e-07
3.58808e-07
3.60837e-07
3.63086e-07
3.65587e-07
3.68394e-07
3.71579e-07
3.75189e-07
3.79269e-07
3.83855e-07
3.88969e-07
3.94612e-07
4.00759e-07
4.07363e-07
4.14358e-07
4.21674e-07
4.29234e-07
4.36976e-07
4.4485e-07
4.52811e-07
4.60816e-07
4.688e-07
4.76704e-07
4.84467e-07
4.91969e-07
4.99036e-07
5.05494e-07
5.11175e-07
5.15853e-07
5.19294e-07
5.21489e-07
5.22455e-07
5.22213e-07
5.20614e-07
5.17738e-07
5.13973e-07
5.09637e-07
5.04952e-07
5.00103e-07
4.95029e-07
4.90018e-07
4.84861e-07
4.79904e-07
4.75226e-07
4.70401e-07
2.30092e-08
5.05761e-08
6.34484e-08
7.76391e-08
9.8075e-08
1.30889e-07
1.72725e-07
2.12526e-07
2.46227e-07
2.72426e-07
2.91181e-07
3.0374e-07
3.11703e-07
3.16565e-07
3.1946e-07
3.21176e-07
3.22219e-07
3.22899e-07
3.23394e-07
3.23795e-07
3.24135e-07
3.2442e-07
3.24651e-07
3.24837e-07
3.24971e-07
3.25063e-07
3.251e-07
3.25084e-07
3.25021e-07
3.24915e-07
3.24771e-07
3.24614e-07
3.24447e-07
3.24272e-07
3.24091e-07
3.23905e-07
3.23716e-07
3.23523e-07
3.23332e-07
3.23145e-07
3.22963e-07
3.22787e-07
3.22614e-07
3.22444e-07
3.22277e-07
3.22112e-07
3.21952e-07
3.218e-07
3.21659e-07
3.2153e-07
3.21416e-07
3.21316e-07
3.21231e-07
3.21159e-07
3.211e-07
3.21049e-07
3.21006e-07
3.20967e-07
3.20929e-07
3.20888e-07
3.20841e-07
3.20785e-07
3.20717e-07
3.20633e-07
3.20522e-07
3.20408e-07
3.20302e-07
3.20211e-07
3.20143e-07
3.20103e-07
3.20093e-07
3.20111e-07
3.20151e-07
3.20208e-07
3.20276e-07
3.20348e-07
3.20424e-07
3.20506e-07
3.20595e-07
3.20695e-07
3.20807e-07
3.2093e-07
3.21062e-07
3.21194e-07
3.21318e-07
3.21423e-07
3.21501e-07
3.21543e-07
3.21545e-07
3.21515e-07
3.2148e-07
3.21443e-07
3.21407e-07
3.21371e-07
3.21338e-07
3.21309e-07
3.21283e-07
3.21258e-07
3.21236e-07
3.21215e-07
3.21199e-07
3.21188e-07
3.21185e-07
3.21193e-07
3.21213e-07
3.21249e-07
3.21303e-07
3.21375e-07
3.21465e-07
3.21574e-07
3.21704e-07
3.21855e-07
3.22028e-07
3.22223e-07
3.22442e-07
3.2269e-07
3.22971e-07
3.2329e-07
3.23655e-07
3.24072e-07
3.24552e-07
3.25102e-07
3.25733e-07
3.26461e-07
3.27334e-07
3.28386e-07
3.29641e-07
3.31124e-07
3.32857e-07
3.34854e-07
3.37117e-07
3.39639e-07
3.424e-07
3.45372e-07
3.4852e-07
3.51805e-07
3.55193e-07
3.58655e-07
3.62168e-07
3.65709e-07
3.69247e-07
3.72755e-07
3.76205e-07
3.79539e-07
3.82672e-07
3.85517e-07
3.87984e-07
3.8996e-07
3.91329e-07
3.92102e-07
3.92362e-07
3.92124e-07
3.91274e-07
3.89903e-07
3.8819e-07
3.86289e-07
3.8428e-07
3.82257e-07
3.80148e-07
3.78082e-07
3.75928e-07
3.73886e-07
3.71897e-07
3.69723e-07
2.18878e-08
4.83891e-08
6.1031e-08
7.48972e-08
9.47766e-08
1.26601e-07
1.67617e-07
2.06961e-07
2.40532e-07
2.66872e-07
2.85946e-07
2.98916e-07
3.07313e-07
3.1259e-07
3.15858e-07
3.17901e-07
3.19233e-07
3.20173e-07
3.20905e-07
3.21513e-07
3.22028e-07
3.22456e-07
3.22807e-07
3.2309e-07
3.23302e-07
3.23443e-07
3.23511e-07
3.23507e-07
3.2344e-07
3.23319e-07
3.23144e-07
3.22955e-07
3.22747e-07
3.22526e-07
3.22292e-07
3.22046e-07
3.21792e-07
3.21533e-07
3.21276e-07
3.21022e-07
3.20774e-07
3.2053e-07
3.20285e-07
3.20037e-07
3.19783e-07
3.19525e-07
3.19265e-07
3.19005e-07
3.18751e-07
3.18505e-07
3.18272e-07
3.18053e-07
3.17851e-07
3.17664e-07
3.17493e-07
3.17337e-07
3.17194e-07
3.17063e-07
3.16941e-07
3.16825e-07
3.16713e-07
3.166e-07
3.16488e-07
3.16375e-07
3.16261e-07
3.16174e-07
3.16129e-07
3.16131e-07
3.16182e-07
3.1628e-07
3.16416e-07
3.16582e-07
3.16766e-07
3.16959e-07
3.17152e-07
3.17338e-07
3.17517e-07
3.17691e-07
3.17864e-07
3.18041e-07
3.18227e-07
3.1842e-07
3.18617e-07
3.18809e-07
3.18984e-07
3.19129e-07
3.19232e-07
3.19284e-07
3.19281e-07
3.1923e-07
3.19169e-07
3.19098e-07
3.19023e-07
3.18943e-07
3.1886e-07
3.18777e-07
3.18691e-07
3.186e-07
3.18503e-07
3.18399e-07
3.18286e-07
3.18165e-07
3.18038e-07
3.17906e-07
3.17772e-07
3.17642e-07
3.1752e-07
3.17407e-07
3.17305e-07
3.17217e-07
3.17143e-07
3.17084e-07
3.17038e-07
3.17005e-07
3.16982e-07
3.16974e-07
3.16983e-07
3.17011e-07
3.17061e-07
3.17138e-07
3.17246e-07
3.17388e-07
3.17567e-07
3.17789e-07
3.1809e-07
3.18498e-07
3.19031e-07
3.19708e-07
3.20541e-07
3.2154e-07
3.22707e-07
3.24037e-07
3.25516e-07
3.27127e-07
3.28847e-07
3.30649e-07
3.32509e-07
3.34408e-07
3.36333e-07
3.3827e-07
3.40201e-07
3.42109e-07
3.4398e-07
3.4578e-07
3.4746e-07
3.48965e-07
3.50236e-07
3.51207e-07
3.51784e-07
3.52028e-07
3.52041e-07
3.51805e-07
3.51259e-07
3.50481e-07
3.4956e-07
3.48602e-07
3.47629e-07
3.46689e-07
3.45705e-07
3.44692e-07
3.43628e-07
3.42632e-07
3.41632e-07
3.40462e-07
2.15271e-08
4.77245e-08
6.02631e-08
7.38855e-08
9.33477e-08
1.24446e-07
1.6504e-07
2.04305e-07
2.38e-07
2.64613e-07
2.84023e-07
2.97313e-07
3.05975e-07
3.11461e-07
3.149e-07
3.17091e-07
3.18541e-07
3.19583e-07
3.20405e-07
3.21093e-07
3.21678e-07
3.2217e-07
3.22578e-07
3.22909e-07
3.23163e-07
3.2333e-07
3.2342e-07
3.23435e-07
3.23372e-07
3.2325e-07
3.23065e-07
3.22855e-07
3.22621e-07
3.22367e-07
3.22094e-07
3.2181e-07
3.21515e-07
3.2122e-07
3.2093e-07
3.20647e-07
3.20372e-07
3.20101e-07
3.1983e-07
3.19553e-07
3.19271e-07
3.18983e-07
3.18691e-07
3.184e-07
3.18115e-07
3.1784e-07
3.17579e-07
3.17335e-07
3.1711e-07
3.16903e-07
3.16713e-07
3.1654e-07
3.1638e-07
3.16233e-07
3.16097e-07
3.15967e-07
3.15841e-07
3.15714e-07
3.15588e-07
3.15463e-07
3.15344e-07
3.15251e-07
3.15212e-07
3.15232e-07
3.1531e-07
3.15441e-07
3.15613e-07
3.15814e-07
3.1603e-07
3.1625e-07
3.16466e-07
3.16672e-07
3.16866e-07
3.17051e-07
3.17234e-07
3.1742e-07
3.17614e-07
3.17817e-07
3.18025e-07
3.18229e-07
3.18418e-07
3.18575e-07
3.18689e-07
3.1875e-07
3.18752e-07
3.18701e-07
3.18637e-07
3.18565e-07
3.18489e-07
3.18408e-07
3.18328e-07
3.18246e-07
3.18162e-07
3.18074e-07
3.1798e-07
3.17877e-07
3.17763e-07
3.17637e-07
3.175e-07
3.17353e-07
3.17198e-07
3.17042e-07
3.16889e-07
3.16741e-07
3.16601e-07
3.16472e-07
3.16355e-07
3.16249e-07
3.16156e-07
3.16071e-07
3.15993e-07
3.15926e-07
3.15869e-07
3.15828e-07
3.15802e-07
3.15796e-07
3.1581e-07
3.15847e-07
3.15907e-07
3.15993e-07
3.16142e-07
3.16375e-07
3.16706e-07
3.17148e-07
3.17712e-07
3.18402e-07
3.19221e-07
3.20161e-07
3.21208e-07
3.22349e-07
3.23567e-07
3.24839e-07
3.26144e-07
3.27468e-07
3.28801e-07
3.30136e-07
3.31462e-07
3.32771e-07
3.34051e-07
3.35276e-07
3.36409e-07
3.37407e-07
3.38228e-07
3.38812e-07
3.39082e-07
3.39132e-07
3.3906e-07
3.38826e-07
3.38416e-07
3.37891e-07
3.37295e-07
3.367e-07
3.36154e-07
3.35667e-07
3.35146e-07
3.34554e-07
3.33914e-07
3.3329e-07
3.32644e-07
3.31852e-07
2.13072e-08
4.73523e-08
5.9815e-08
7.31975e-08
9.22444e-08
1.22616e-07
1.62819e-07
2.02082e-07
2.35956e-07
2.62875e-07
2.82637e-07
2.96262e-07
3.05207e-07
3.10914e-07
3.14522e-07
3.16823e-07
3.18372e-07
3.19503e-07
3.20407e-07
3.21179e-07
3.2185e-07
3.22428e-07
3.22919e-07
3.23324e-07
3.2363e-07
3.23824e-07
3.23912e-07
3.23912e-07
3.23817e-07
3.23642e-07
3.23391e-07
3.23107e-07
3.22799e-07
3.22478e-07
3.22133e-07
3.21784e-07
3.21427e-07
3.21082e-07
3.20749e-07
3.20429e-07
3.20122e-07
3.19821e-07
3.1952e-07
3.19214e-07
3.18904e-07
3.18591e-07
3.18279e-07
3.17972e-07
3.17678e-07
3.17401e-07
3.17145e-07
3.16914e-07
3.16707e-07
3.16523e-07
3.16357e-07
3.16206e-07
3.16065e-07
3.15932e-07
3.15808e-07
3.15688e-07
3.15567e-07
3.15443e-07
3.15315e-07
3.15185e-07
3.1506e-07
3.14953e-07
3.14902e-07
3.14915e-07
3.14992e-07
3.15124e-07
3.15298e-07
3.15498e-07
3.15709e-07
3.1592e-07
3.16124e-07
3.16318e-07
3.16499e-07
3.1667e-07
3.16839e-07
3.17011e-07
3.17193e-07
3.17386e-07
3.17587e-07
3.17786e-07
3.17971e-07
3.18127e-07
3.1824e-07
3.18299e-07
3.18299e-07
3.18246e-07
3.18182e-07
3.18116e-07
3.18052e-07
3.1799e-07
3.17932e-07
3.17877e-07
3.17822e-07
3.17765e-07
3.17703e-07
3.17634e-07
3.17553e-07
3.17461e-07
3.17357e-07
3.17244e-07
3.17122e-07
3.16996e-07
3.16868e-07
3.16739e-07
3.16611e-07
3.16488e-07
3.16371e-07
3.1626e-07
3.16156e-07
3.16059e-07
3.15965e-07
3.1588e-07
3.15802e-07
3.15737e-07
3.15686e-07
3.15652e-07
3.15639e-07
3.15649e-07
3.15685e-07
3.15749e-07
3.15875e-07
3.16083e-07
3.16383e-07
3.16785e-07
3.17297e-07
3.17923e-07
3.18659e-07
3.19498e-07
3.20422e-07
3.21416e-07
3.2246e-07
3.23533e-07
3.24623e-07
3.25718e-07
3.2681e-07
3.27897e-07
3.28974e-07
3.30038e-07
3.31079e-07
3.32072e-07
3.32983e-07
3.33773e-07
3.34403e-07
3.34815e-07
3.34949e-07
3.3492e-07
3.34811e-07
3.34573e-07
3.34222e-07
3.33794e-07
3.33317e-07
3.32878e-07
3.32517e-07
3.32184e-07
3.31826e-07
3.3138e-07
3.30882e-07
3.30375e-07
3.29838e-07
3.29159e-07
2.11031e-08
4.70235e-08
5.9416e-08
7.25427e-08
9.11474e-08
1.20744e-07
1.60514e-07
1.99774e-07
2.33836e-07
2.61078e-07
2.81215e-07
2.95201e-07
3.04457e-07
3.10424e-07
3.1424e-07
3.16708e-07
3.18378e-07
3.19596e-07
3.20555e-07
3.21363e-07
3.22057e-07
3.22648e-07
3.23144e-07
3.23548e-07
3.23844e-07
3.2401e-07
3.24048e-07
3.23987e-07
3.23809e-07
3.23549e-07
3.23205e-07
3.2282e-07
3.22394e-07
3.21955e-07
3.21479e-07
3.21013e-07
3.20559e-07
3.20133e-07
3.19734e-07
3.1936e-07
3.19006e-07
3.18662e-07
3.18316e-07
3.17962e-07
3.17601e-07
3.17243e-07
3.169e-07
3.16583e-07
3.16302e-07
3.1606e-07
3.15869e-07
3.15726e-07
3.15625e-07
3.15557e-07
3.15505e-07
3.15451e-07
3.15387e-07
3.15316e-07
3.1524e-07
3.15157e-07
3.15067e-07
3.14967e-07
3.14854e-07
3.14732e-07
3.14607e-07
3.14491e-07
3.14424e-07
3.1442e-07
3.14478e-07
3.14588e-07
3.14736e-07
3.14902e-07
3.15069e-07
3.15226e-07
3.1537e-07
3.15498e-07
3.15611e-07
3.15713e-07
3.15811e-07
3.15911e-07
3.16018e-07
3.16133e-07
3.16254e-07
3.16373e-07
3.16478e-07
3.16556e-07
3.16597e-07
3.16597e-07
3.16554e-07
3.16477e-07
3.16405e-07
3.16357e-07
3.16331e-07
3.16331e-07
3.16349e-07
3.16381e-07
3.16418e-07
3.16458e-07
3.16496e-07
3.16526e-07
3.16546e-07
3.16555e-07
3.16555e-07
3.16543e-07
3.16521e-07
3.16491e-07
3.16454e-07
3.16407e-07
3.16352e-07
3.16293e-07
3.16231e-07
3.1617e-07
3.16114e-07
3.16062e-07
3.16018e-07
3.15984e-07
3.15957e-07
3.15942e-07
3.15937e-07
3.15945e-07
3.15967e-07
3.16005e-07
3.16062e-07
3.16142e-07
3.1628e-07
3.16482e-07
3.16759e-07
3.17128e-07
3.17599e-07
3.18175e-07
3.18856e-07
3.19634e-07
3.20495e-07
3.21427e-07
3.22408e-07
3.23416e-07
3.24429e-07
3.25436e-07
3.26431e-07
3.27417e-07
3.2839e-07
3.29352e-07
3.30294e-07
3.31192e-07
3.32011e-07
3.32714e-07
3.33261e-07
3.33592e-07
3.33658e-07
3.33595e-07
3.33464e-07
3.33216e-07
3.32879e-07
3.32477e-07
3.3205e-07
3.3169e-07
3.31393e-07
3.31104e-07
3.30792e-07
3.30388e-07
3.29936e-07
3.29474e-07
3.28978e-07
3.28344e-07
2.08858e-08
4.66806e-08
5.90077e-08
7.18625e-08
8.99886e-08
1.18725e-07
1.57958e-07
1.97192e-07
2.31439e-07
2.59015e-07
2.79548e-07
2.93916e-07
3.03494e-07
3.09695e-07
3.13642e-07
3.1619e-07
3.17902e-07
3.19134e-07
3.201e-07
3.20902e-07
3.21583e-07
3.22154e-07
3.22622e-07
3.22986e-07
3.23228e-07
3.23328e-07
3.23239e-07
3.23003e-07
3.22607e-07
3.22073e-07
3.21401e-07
3.20647e-07
3.19797e-07
3.18949e-07
3.18084e-07
3.17299e-07
3.16593e-07
3.15968e-07
3.15412e-07
3.14911e-07
3.14449e-07
3.14011e-07
3.13571e-07
3.13118e-07
3.12663e-07
3.1224e-07
3.11876e-07
3.11595e-07
3.11407e-07
3.1134e-07
3.11408e-07
3.11594e-07
3.1187e-07
3.12215e-07
3.12586e-07
3.12883e-07
3.13093e-07
3.13234e-07
3.13336e-07
3.13383e-07
3.13394e-07
3.13389e-07
3.1335e-07
3.13267e-07
3.13161e-07
3.13037e-07
3.12935e-07
3.12862e-07
3.12832e-07
3.12829e-07
3.12844e-07
3.12853e-07
3.12842e-07
3.12802e-07
3.12733e-07
3.12642e-07
3.12538e-07
3.12429e-07
3.12313e-07
3.12189e-07
3.12058e-07
3.11917e-07
3.11763e-07
3.11592e-07
3.114e-07
3.11189e-07
3.10972e-07
3.10763e-07
3.10565e-07
3.10409e-07
3.10321e-07
3.10318e-07
3.10406e-07
3.10571e-07
3.10796e-07
3.11063e-07
3.11356e-07
3.11664e-07
3.11976e-07
3.12287e-07
3.12596e-07
3.12908e-07
3.13227e-07
3.1355e-07
3.13871e-07
3.14182e-07
3.14471e-07
3.14718e-07
3.14915e-07
3.15063e-07
3.15169e-07
3.15244e-07
3.15302e-07
3.15347e-07
3.15388e-07
3.15431e-07
3.1548e-07
3.15538e-07
3.15608e-07
3.15693e-07
3.15796e-07
3.15919e-07
3.16067e-07
3.16252e-07
3.16501e-07
3.16818e-07
3.17204e-07
3.17665e-07
3.18206e-07
3.18828e-07
3.19528e-07
3.20299e-07
3.21126e-07
3.22003e-07
3.22913e-07
3.23839e-07
3.24769e-07
3.25691e-07
3.26602e-07
3.27505e-07
3.28405e-07
3.29302e-07
3.3019e-07
3.31044e-07
3.31823e-07
3.32493e-07
3.33003e-07
3.33293e-07
3.33323e-07
3.33245e-07
3.33097e-07
3.32835e-07
3.32492e-07
3.32089e-07
3.31685e-07
3.31352e-07
3.31068e-07
3.30778e-07
3.30466e-07
3.30061e-07
3.29609e-07
3.29147e-07
3.28655e-07
3.28035e-07
2.06486e-08
4.63082e-08
5.85678e-08
7.11198e-08
8.87089e-08
1.16471e-07
1.54994e-07
1.94124e-07
2.2849e-07
2.5635e-07
2.7723e-07
2.91923e-07
3.01747e-07
3.08099e-07
3.12117e-07
3.1466e-07
3.163e-07
3.17406e-07
3.182e-07
3.18794e-07
3.19236e-07
3.19537e-07
3.197e-07
3.19726e-07
3.19621e-07
3.19286e-07
3.18689e-07
3.17813e-07
3.16664e-07
3.15279e-07
3.13661e-07
3.11831e-07
3.09861e-07
3.07987e-07
3.06254e-07
3.04758e-07
3.03496e-07
3.02444e-07
3.01568e-07
3.00826e-07
3.00169e-07
2.99552e-07
2.98949e-07
2.98346e-07
2.97767e-07
2.97275e-07
2.96947e-07
2.96823e-07
2.96926e-07
2.97359e-07
2.98132e-07
2.99229e-07
3.00592e-07
3.02123e-07
3.03658e-07
3.04983e-07
3.05998e-07
3.06764e-07
3.07349e-07
3.07789e-07
3.08127e-07
3.08391e-07
3.08554e-07
3.08604e-07
3.08556e-07
3.08414e-07
3.08186e-07
3.07899e-07
3.0758e-07
3.07202e-07
3.06695e-07
3.0618e-07
3.05569e-07
3.04883e-07
3.04148e-07
3.03398e-07
3.0266e-07
3.01942e-07
3.01241e-07
3.00542e-07
2.99804e-07
2.9901e-07
2.98153e-07
2.97236e-07
2.96297e-07
2.95371e-07
2.94514e-07
2.9378e-07
2.93218e-07
2.92903e-07
2.92871e-07
2.93084e-07
2.93522e-07
2.94143e-07
2.94911e-07
2.95787e-07
2.96739e-07
2.97734e-07
2.98741e-07
2.99752e-07
3.00783e-07
3.01853e-07
3.02977e-07
3.04159e-07
3.05384e-07
3.06623e-07
3.07828e-07
3.08935e-07
3.09891e-07
3.10684e-07
3.11327e-07
3.11849e-07
3.12283e-07
3.12657e-07
3.12994e-07
3.13309e-07
3.13611e-07
3.13904e-07
3.14192e-07
3.14478e-07
3.14765e-07
3.15056e-07
3.15357e-07
3.1569e-07
3.16086e-07
3.16549e-07
3.17081e-07
3.17686e-07
3.18365e-07
3.19105e-07
3.19899e-07
3.20733e-07
3.21593e-07
3.22478e-07
3.23378e-07
3.2428e-07
3.25175e-07
3.26056e-07
3.26919e-07
3.27771e-07
3.28617e-07
3.29464e-07
3.3031e-07
3.3113e-07
3.31881e-07
3.32528e-07
3.33011e-07
3.3327e-07
3.33276e-07
3.33192e-07
3.33031e-07
3.32753e-07
3.32397e-07
3.31984e-07
3.31576e-07
3.31235e-07
3.30934e-07
3.30626e-07
3.30296e-07
3.29881e-07
3.29423e-07
3.28966e-07
3.28477e-07
3.27861e-07
2.03846e-08
4.58827e-08
5.80587e-08
7.02589e-08
8.72292e-08
1.13869e-07
1.51398e-07
1.90182e-07
2.24388e-07
2.52209e-07
2.73077e-07
2.87704e-07
2.97361e-07
3.03443e-07
3.07095e-07
3.09153e-07
3.10174e-07
3.10557e-07
3.10572e-07
3.1021e-07
3.09583e-07
3.08823e-07
3.07907e-07
3.06796e-07
3.05479e-07
3.03902e-07
3.01894e-07
2.99381e-07
2.96402e-07
2.93029e-07
2.89373e-07
2.85279e-07
2.81147e-07
2.77422e-07
2.74201e-07
2.71542e-07
2.6941e-07
2.6772e-07
2.66391e-07
2.65343e-07
2.64476e-07
2.63673e-07
2.62863e-07
2.621e-07
2.61459e-07
2.61038e-07
2.60923e-07
2.61223e-07
2.62045e-07
2.63533e-07
2.6575e-07
2.68693e-07
2.72292e-07
2.76412e-07
2.80588e-07
2.84275e-07
2.87223e-07
2.89498e-07
2.91279e-07
2.92699e-07
2.93855e-07
2.94785e-07
2.9545e-07
2.95811e-07
2.95873e-07
2.95604e-07
2.94979e-07
2.94015e-07
2.92729e-07
2.91121e-07
2.89164e-07
2.86975e-07
2.84519e-07
2.8186e-07
2.79126e-07
2.76467e-07
2.73962e-07
2.71655e-07
2.69539e-07
2.67562e-07
2.65615e-07
2.63597e-07
2.61453e-07
2.59194e-07
2.56865e-07
2.54609e-07
2.52605e-07
2.51004e-07
2.49935e-07
2.49573e-07
2.49972e-07
2.5102e-07
2.52555e-07
2.54469e-07
2.56674e-07
2.591e-07
2.61674e-07
2.64297e-07
2.66884e-07
2.69411e-07
2.7194e-07
2.74561e-07
2.77355e-07
2.80349e-07
2.83522e-07
2.86808e-07
2.90081e-07
2.93175e-07
2.95929e-07
2.98291e-07
3.00272e-07
3.01927e-07
3.03329e-07
3.04555e-07
3.05665e-07
3.06699e-07
3.07684e-07
3.08628e-07
3.09533e-07
3.10399e-07
3.1123e-07
3.12031e-07
3.12809e-07
3.136e-07
3.1441e-07
3.15249e-07
3.16106e-07
3.16985e-07
3.17892e-07
3.18823e-07
3.19776e-07
3.2074e-07
3.217e-07
3.22652e-07
3.23589e-07
3.24503e-07
3.25394e-07
3.2626e-07
3.27105e-07
3.27938e-07
3.28766e-07
3.29596e-07
3.30427e-07
3.31235e-07
3.31976e-07
3.32612e-07
3.3308e-07
3.33315e-07
3.33301e-07
3.33208e-07
3.33023e-07
3.32715e-07
3.32326e-07
3.31882e-07
3.31455e-07
3.31092e-07
3.30765e-07
3.3043e-07
3.30071e-07
3.29634e-07
3.29158e-07
3.28687e-07
3.28183e-07
3.2763e-07
2.00765e-08
4.53523e-08
5.7397e-08
6.91541e-08
8.53592e-08
1.10618e-07
1.46559e-07
1.8421e-07
2.17264e-07
2.43846e-07
2.63327e-07
2.76375e-07
2.84255e-07
2.88389e-07
2.90036e-07
2.90076e-07
2.88747e-07
2.8641e-07
2.83343e-07
2.79729e-07
2.7593e-07
2.72275e-07
2.68784e-07
2.65323e-07
2.61674e-07
2.57655e-07
2.53142e-07
2.48073e-07
2.42444e-07
2.36304e-07
2.29997e-07
2.23275e-07
2.16942e-07
2.11479e-07
2.06982e-07
2.03453e-07
2.00782e-07
1.988e-07
1.97385e-07
1.9643e-07
1.95689e-07
1.94998e-07
1.94332e-07
1.9374e-07
1.93359e-07
1.93366e-07
1.93935e-07
1.95199e-07
1.97173e-07
2.00169e-07
2.04302e-07
2.09633e-07
2.16192e-07
2.23918e-07
2.32092e-07
2.3957e-07
2.45843e-07
2.50854e-07
2.54871e-07
2.58168e-07
2.60872e-07
2.63017e-07
2.64527e-07
2.65308e-07
2.6527e-07
2.64313e-07
2.6236e-07
2.59376e-07
2.55389e-07
2.50456e-07
2.44656e-07
2.38149e-07
2.31063e-07
2.23694e-07
2.16467e-07
2.09732e-07
2.03703e-07
1.985e-07
1.9409e-07
1.90316e-07
1.86959e-07
1.83737e-07
1.80421e-07
1.76868e-07
1.7312e-07
1.69507e-07
1.66396e-07
1.64092e-07
1.62812e-07
1.62942e-07
1.64526e-07
1.67296e-07
1.70997e-07
1.75426e-07
1.80444e-07
1.85924e-07
1.91724e-07
1.97565e-07
2.03085e-07
2.08142e-07
2.12939e-07
2.17864e-07
2.23234e-07
2.29202e-07
2.35745e-07
2.42743e-07
2.49885e-07
2.568e-07
2.63109e-07
2.68649e-07
2.73416e-07
2.77487e-07
2.80991e-07
2.84079e-07
2.86885e-07
2.895e-07
2.92001e-07
2.94414e-07
2.96741e-07
2.98977e-07
3.01119e-07
3.03175e-07
3.05174e-07
3.07126e-07
3.09015e-07
3.10861e-07
3.12603e-07
3.14267e-07
3.15851e-07
3.17331e-07
3.18709e-07
3.19991e-07
3.21175e-07
3.22287e-07
3.23335e-07
3.24317e-07
3.25245e-07
3.26125e-07
3.26971e-07
3.27806e-07
3.2864e-07
3.29478e-07
3.30321e-07
3.31142e-07
3.31893e-07
3.32532e-07
3.32993e-07
3.33204e-07
3.33174e-07
3.3307e-07
3.32853e-07
3.32509e-07
3.32085e-07
3.31606e-07
3.31138e-07
3.30729e-07
3.30351e-07
3.29959e-07
3.29531e-07
3.29028e-07
3.28476e-07
3.2789e-07
3.27196e-07
3.26334e-07
1.96768e-08
4.45663e-08
5.63311e-08
6.74155e-08
8.24798e-08
1.05673e-07
1.38479e-07
1.72582e-07
2.0141e-07
2.23041e-07
2.36978e-07
2.4422e-07
2.45888e-07
2.43674e-07
2.38684e-07
2.32164e-07
2.24118e-07
2.14653e-07
2.0407e-07
1.93244e-07
1.83099e-07
1.74367e-07
1.67327e-07
1.61431e-07
1.55738e-07
1.49938e-07
1.44142e-07
1.38341e-07
1.32447e-07
1.26345e-07
1.204e-07
1.14439e-07
1.09018e-07
1.04502e-07
1.00955e-07
9.83655e-08
9.6877e-08
9.603e-08
9.57272e-08
9.58204e-08
9.61101e-08
9.65456e-08
9.70417e-08
9.7681e-08
9.86058e-08
1.00076e-07
1.0235e-07
1.05356e-07
1.09108e-07
1.13842e-07
1.19713e-07
1.26802e-07
1.35288e-07
1.45309e-07
1.56256e-07
1.66649e-07
1.75735e-07
1.83198e-07
1.89279e-07
1.94316e-07
1.98351e-07
2.01355e-07
2.0323e-07
2.03719e-07
2.02486e-07
1.99305e-07
1.94103e-07
1.86937e-07
1.77938e-07
1.67455e-07
1.55912e-07
1.43771e-07
1.31558e-07
1.19949e-07
1.09516e-07
1.00507e-07
9.30099e-08
8.69604e-08
8.21458e-08
7.82777e-08
7.50508e-08
7.21203e-08
6.92013e-08
6.60192e-08
6.27478e-08
5.97066e-08
5.72831e-08
5.57403e-08
5.51975e-08
5.58418e-08
5.75891e-08
6.04043e-08
6.4245e-08
6.90229e-08
7.47528e-08
8.14399e-08
8.90522e-08
9.71456e-08
1.04694e-07
1.11241e-07
1.17004e-07
1.22886e-07
1.29808e-07
1.38246e-07
1.48248e-07
1.5977e-07
1.72241e-07
1.84883e-07
1.96872e-07
2.07765e-07
2.17451e-07
2.25964e-07
2.33435e-07
2.40079e-07
2.46103e-07
2.5168e-07
2.56988e-07
2.6214e-07
2.67177e-07
2.72111e-07
2.76946e-07
2.81663e-07
2.86243e-07
2.90673e-07
2.94918e-07
2.98979e-07
3.02753e-07
3.06269e-07
3.09495e-07
3.12367e-07
3.14891e-07
3.17095e-07
3.19001e-07
3.2065e-07
3.22084e-07
3.23323e-07
3.24415e-07
3.25398e-07
3.26311e-07
3.27182e-07
3.28036e-07
3.28898e-07
3.29774e-07
3.30637e-07
3.31433e-07
3.32107e-07
3.32588e-07
3.32788e-07
3.32745e-07
3.32621e-07
3.32354e-07
3.31944e-07
3.31442e-07
3.30876e-07
3.30314e-07
3.29799e-07
3.29305e-07
3.28779e-07
3.28181e-07
3.27509e-07
3.26729e-07
3.25836e-07
3.24689e-07
3.22957e-07
1.93669e-08
4.39187e-08
5.54239e-08
6.59527e-08
8.00859e-08
1.01603e-07
1.31669e-07
1.62391e-07
1.8717e-07
2.04098e-07
2.12983e-07
2.15191e-07
2.11557e-07
2.03846e-07
1.93351e-07
1.81372e-07
1.67653e-07
1.5213e-07
1.35205e-07
1.17902e-07
1.01504e-07
8.69787e-08
7.46571e-08
6.43222e-08
5.54731e-08
4.80373e-08
4.23758e-08
3.82925e-08
3.55021e-08
3.36336e-08
3.19863e-08
3.03701e-08
2.88854e-08
2.76573e-08
2.6738e-08
2.62107e-08
2.61355e-08
2.63701e-08
2.68563e-08
2.7548e-08
2.8352e-08
2.9228e-08
3.01902e-08
3.13207e-08
3.27874e-08
3.48249e-08
3.76648e-08
4.1198e-08
4.54462e-08
5.06104e-08
5.6977e-08
6.49064e-08
7.46417e-08
8.61783e-08
9.90112e-08
1.11499e-07
1.22401e-07
1.31449e-07
1.38897e-07
1.45085e-07
1.49984e-07
1.53527e-07
1.55559e-07
1.55777e-07
1.53756e-07
1.49263e-07
1.42327e-07
1.3316e-07
1.22093e-07
1.09706e-07
9.6683e-08
8.36829e-08
7.13748e-08
6.03921e-08
5.10369e-08
4.33412e-08
3.71805e-08
3.24199e-08
2.88718e-08
2.61952e-08
2.40939e-08
2.23187e-08
2.06986e-08
1.91273e-08
1.77137e-08
1.65889e-08
1.58079e-08
1.54053e-08
1.54651e-08
1.59321e-08
1.67829e-08
1.80101e-08
1.96384e-08
2.16892e-08
2.42134e-08
2.72372e-08
3.07891e-08
3.48065e-08
3.87427e-08
4.18367e-08
4.42728e-08
4.68508e-08
5.06411e-08
5.63335e-08
6.42333e-08
7.49377e-08
8.8144e-08
1.03021e-07
1.18417e-07
1.33282e-07
1.47303e-07
1.60304e-07
1.72181e-07
1.82975e-07
1.92796e-07
2.01803e-07
2.1028e-07
2.18512e-07
2.26666e-07
2.34799e-07
2.42902e-07
2.50903e-07
2.58739e-07
2.66363e-07
2.73705e-07
2.80728e-07
2.87303e-07
2.93396e-07
2.98932e-07
3.03812e-07
3.08039e-07
3.11646e-07
3.14681e-07
3.17205e-07
3.19316e-07
3.21073e-07
3.22556e-07
3.23832e-07
3.24978e-07
3.26049e-07
3.27069e-07
3.28074e-07
3.29074e-07
3.30036e-07
3.30905e-07
3.3163e-07
3.32151e-07
3.32362e-07
3.32317e-07
3.32176e-07
3.31865e-07
3.31393e-07
3.3082e-07
3.30178e-07
3.29528e-07