/*--------------------------------*- C++ -*----------------------------------*\
| =========                 |                                                 |
| \\      /  F ield         | OpenFOAM: The Open Source CFD Toolbox           |
|  \\    /   O peration     | Version:  v1912                                 |
|   \\  /    A nd           | Website:  www.openfoam.com                      |
|    \\/     M anipulation  |                                                 |
\*---------------------------------------------------------------------------*/
FoamFile
{
    version     2.0;
    format      ascii;
    class       volSymmTensorField;
    location    "50";
    object      R;
}
// * * * * * * * * * * * * * * * * * * * * * * * * * * * * * * * * * * * * * //

dimensions      [0 2 -2 0 0 0 0];


internalField   nonuniform List<symmTensor> 
14268
(
(4.53488e-07 -6.67929e-08 0 4.29302e-07 0 4.37135e-07)
(4.54418e-07 -6.65037e-08 0 4.33327e-07 0 4.4054e-07)
(4.57112e-07 -6.68198e-08 0 4.38795e-07 0 4.45182e-07)
(4.61753e-07 -6.73031e-08 0 4.45989e-07 0 4.50847e-07)
(4.6997e-07 -6.82715e-08 0 4.54661e-07 0 4.60187e-07)
(4.78831e-07 -6.94987e-08 0 4.67937e-07 0 4.70762e-07)
(4.87761e-07 -7.07832e-08 0 4.79187e-07 0 4.81752e-07)
(4.93528e-07 -7.17755e-08 0 4.89306e-07 0 4.89563e-07)
(4.96754e-07 -7.25214e-08 0 4.9673e-07 0 4.95456e-07)
(4.97673e-07 -7.29777e-08 0 5.02596e-07 0 4.99077e-07)
(4.96876e-07 -7.32286e-08 0 5.06799e-07 0 5.01214e-07)
(4.95288e-07 -7.33234e-08 0 5.09614e-07 0 5.02139e-07)
(4.93552e-07 -7.3339e-08 0 5.11408e-07 0 5.02443e-07)
(4.90033e-07 -7.32933e-08 0 5.14081e-07 0 5.02493e-07)
(4.85862e-07 -7.31425e-08 0 5.16107e-07 0 5.01891e-07)
(4.82225e-07 -7.29516e-08 0 5.17001e-07 0 5.00872e-07)
(4.78508e-07 -7.27709e-08 0 5.1806e-07 0 4.99911e-07)
(4.75097e-07 -7.25749e-08 0 5.18718e-07 0 4.98835e-07)
(4.71881e-07 -7.23902e-08 0 5.19255e-07 0 4.97779e-07)
(4.68686e-07 -7.22154e-08 0 5.19809e-07 0 4.96754e-07)
(4.6563e-07 -7.2046e-08 0 5.20275e-07 0 4.95739e-07)
(4.62879e-07 -7.18742e-08 0 5.20501e-07 0 4.94701e-07)
(4.6028e-07 -7.17058e-08 0 5.20609e-07 0 4.93658e-07)
(4.57635e-07 -7.15368e-08 0 5.20764e-07 0 4.92627e-07)
(4.55127e-07 -7.13671e-08 0 5.20799e-07 0 4.91582e-07)
(4.53009e-07 -7.11927e-08 0 5.20483e-07 0 4.90486e-07)
(4.50888e-07 -7.10102e-08 0 5.20156e-07 0 4.89391e-07)
(4.49105e-07 -7.08286e-08 0 5.19506e-07 0 4.88258e-07)
(4.47331e-07 -7.06372e-08 0 5.18825e-07 0 4.87117e-07)
(4.45701e-07 -7.04415e-08 0 5.18001e-07 0 4.85948e-07)
(4.44104e-07 -7.0233e-08 0 5.17165e-07 0 4.84774e-07)
(4.42536e-07 -7.00348e-08 0 5.16492e-07 0 4.83687e-07)
(4.40994e-07 -6.98464e-08 0 5.15971e-07 0 4.82677e-07)
(4.39479e-07 -6.96692e-08 0 5.15568e-07 0 4.8173e-07)
(4.38007e-07 -6.95046e-08 0 5.1524e-07 0 4.80837e-07)
(4.36613e-07 -6.93532e-08 0 5.14935e-07 0 4.79987e-07)
(4.35304e-07 -6.92159e-08 0 5.1464e-07 0 4.7918e-07)
(4.34101e-07 -6.90933e-08 0 5.14336e-07 0 4.78417e-07)
(4.33011e-07 -6.89862e-08 0 5.14023e-07 0 4.77703e-07)
(4.32047e-07 -6.88952e-08 0 5.13711e-07 0 4.77046e-07)
(4.31229e-07 -6.88215e-08 0 5.13403e-07 0 4.76458e-07)
(4.30573e-07 -6.87659e-08 0 5.13114e-07 0 4.7595e-07)
(4.30101e-07 -6.87296e-08 0 5.12847e-07 0 4.75533e-07)
(4.29831e-07 -6.8713e-08 0 5.12602e-07 0 4.75215e-07)
(4.29775e-07 -6.87151e-08 0 5.12378e-07 0 4.75001e-07)
(4.29945e-07 -6.87357e-08 0 5.12151e-07 0 4.74879e-07)
(4.3034e-07 -6.87718e-08 0 5.11928e-07 0 4.74852e-07)
(4.30888e-07 -6.88158e-08 0 5.11727e-07 0 4.74906e-07)
(4.31543e-07 -6.88627e-08 0 5.11539e-07 0 4.75011e-07)
(4.32234e-07 -6.89072e-08 0 5.11375e-07 0 4.7514e-07)
(4.32882e-07 -6.89453e-08 0 5.11261e-07 0 4.75273e-07)
(4.33404e-07 -6.89741e-08 0 5.11244e-07 0 4.75392e-07)
(4.33716e-07 -6.8993e-08 0 5.11359e-07 0 4.75475e-07)
(4.33845e-07 -6.90038e-08 0 5.11538e-07 0 4.75501e-07)
(4.33976e-07 -6.90086e-08 0 5.11567e-07 0 4.7545e-07)
(4.34229e-07 -6.90056e-08 0 5.1127e-07 0 4.75304e-07)
(4.34341e-07 -6.89868e-08 0 5.1088e-07 0 4.75057e-07)
(4.34095e-07 -6.89471e-08 0 5.10595e-07 0 4.74702e-07)
(4.3377e-07 -6.88912e-08 0 5.10124e-07 0 4.74233e-07)
(4.33464e-07 -6.88178e-08 0 5.09348e-07 0 4.73634e-07)
(4.32768e-07 -6.87113e-08 0 5.08647e-07 0 4.72895e-07)
(4.31818e-07 -6.85641e-08 0 5.07857e-07 0 4.72001e-07)
(4.30559e-07 -6.83903e-08 0 5.06993e-07 0 4.70933e-07)
(4.2884e-07 -6.81976e-08 0 5.06239e-07 0 4.69711e-07)
(4.26939e-07 -6.80004e-08 0 5.05617e-07 0 4.68485e-07)
(4.2483e-07 -6.78031e-08 0 5.05198e-07 0 4.67284e-07)
(4.22462e-07 -6.7603e-08 0 5.0503e-07 0 4.66106e-07)
(4.19715e-07 -6.73978e-08 0 5.05234e-07 0 4.64952e-07)
(4.16509e-07 -6.71867e-08 0 5.05908e-07 0 4.63826e-07)
(4.13178e-07 -6.69846e-08 0 5.06764e-07 0 4.62742e-07)
(4.09794e-07 -6.67927e-08 0 5.0774e-07 0 4.61699e-07)
(4.06403e-07 -6.661e-08 0 5.08796e-07 0 4.60694e-07)
(4.03051e-07 -6.64346e-08 0 5.09888e-07 0 4.59725e-07)
(3.99918e-07 -6.6267e-08 0 5.10832e-07 0 4.58784e-07)
(3.97225e-07 -6.61097e-08 0 5.11359e-07 0 4.5785e-07)
(3.94823e-07 -6.59597e-08 0 5.11622e-07 0 4.5692e-07)
(3.92658e-07 -6.58157e-08 0 5.11683e-07 0 4.55996e-07)
(3.90681e-07 -6.56773e-08 0 5.116e-07 0 4.55083e-07)
(3.88814e-07 -6.55438e-08 0 5.11451e-07 0 4.54189e-07)
(3.87034e-07 -6.54151e-08 0 5.11265e-07 0 4.53316e-07)
(3.85351e-07 -6.52918e-08 0 5.11037e-07 0 4.52466e-07)
(3.83758e-07 -6.51743e-08 0 5.10779e-07 0 4.5164e-07)
(3.82265e-07 -6.50637e-08 0 5.10486e-07 0 4.50837e-07)
(3.80876e-07 -6.49605e-08 0 5.10157e-07 0 4.50056e-07)
(3.79606e-07 -6.4865e-08 0 5.0978e-07 0 4.49296e-07)
(3.78472e-07 -6.47771e-08 0 5.09339e-07 0 4.48556e-07)
(3.77491e-07 -6.46961e-08 0 5.08819e-07 0 4.47832e-07)
(3.76661e-07 -6.46203e-08 0 5.08226e-07 0 4.47127e-07)
(3.75982e-07 -6.45492e-08 0 5.07574e-07 0 4.46447e-07)
(3.75544e-07 -6.45017e-08 0 5.06976e-07 0 4.45895e-07)
(3.75356e-07 -6.44798e-08 0 5.06474e-07 0 4.45497e-07)
(3.75394e-07 -6.44816e-08 0 5.06059e-07 0 4.45241e-07)
(3.7568e-07 -6.45057e-08 0 5.05661e-07 0 4.45098e-07)
(3.76162e-07 -6.45518e-08 0 5.05335e-07 0 4.45075e-07)
(3.7679e-07 -6.46157e-08 0 5.05101e-07 0 4.45166e-07)
(3.77696e-07 -6.47004e-08 0 5.04806e-07 0 4.45347e-07)
(3.78905e-07 -6.4802e-08 0 5.04421e-07 0 4.45618e-07)
(3.80147e-07 -6.49275e-08 0 5.04274e-07 0 4.46029e-07)
(3.81462e-07 -6.50803e-08 0 5.04338e-07 0 4.46584e-07)
(3.83115e-07 -6.52549e-08 0 5.04298e-07 0 4.4724e-07)
(3.852e-07 -6.54497e-08 0 5.04052e-07 0 4.47985e-07)
(3.87658e-07 -6.56656e-08 0 5.03672e-07 0 4.48832e-07)
(3.90306e-07 -6.59029e-08 0 5.03342e-07 0 4.49801e-07)
(3.9317e-07 -6.61581e-08 0 5.03009e-07 0 4.50866e-07)
(3.95976e-07 -6.64232e-08 0 5.02886e-07 0 4.5204e-07)
(3.99279e-07 -6.66926e-08 0 5.02358e-07 0 4.53214e-07)
(4.02334e-07 -6.69667e-08 0 5.02133e-07 0 4.54469e-07)
(4.05678e-07 -6.72389e-08 0 5.01598e-07 0 4.55699e-07)
(4.09346e-07 -6.75073e-08 0 5.00694e-07 0 4.5689e-07)
(4.12968e-07 -6.77748e-08 0 4.99801e-07 0 4.58094e-07)
(4.16591e-07 -6.80443e-08 0 4.98884e-07 0 4.59311e-07)
(4.20349e-07 -6.83166e-08 0 4.97821e-07 0 4.60519e-07)
(4.24402e-07 -6.85926e-08 0 4.96464e-07 0 4.6172e-07)
(4.28441e-07 -6.88758e-08 0 4.95197e-07 0 4.62963e-07)
(4.32433e-07 -6.91723e-08 0 4.94093e-07 0 4.64278e-07)
(4.3655e-07 -6.94797e-08 0 4.93025e-07 0 4.65679e-07)
(4.40818e-07 -6.9804e-08 0 4.91988e-07 0 4.67175e-07)
(4.45366e-07 -7.01434e-08 0 4.90869e-07 0 4.68765e-07)
(4.50166e-07 -7.0504e-08 0 4.8974e-07 0 4.70462e-07)
(4.5537e-07 -7.08836e-08 0 4.88473e-07 0 4.72277e-07)
(4.61024e-07 -7.12828e-08 0 4.87058e-07 0 4.74225e-07)
(4.67209e-07 -7.17026e-08 0 4.85449e-07 0 4.76328e-07)
(4.73706e-07 -7.21482e-08 0 4.83892e-07 0 4.78609e-07)
(4.80459e-07 -7.26155e-08 0 4.82414e-07 0 4.81057e-07)
(4.87149e-07 -7.31078e-08 0 4.81295e-07 0 4.83671e-07)
(4.94027e-07 -7.36214e-08 0 4.80301e-07 0 4.86448e-07)
(5.01545e-07 -7.41524e-08 0 4.78992e-07 0 4.89384e-07)
(5.09264e-07 -7.47044e-08 0 4.77754e-07 0 4.92477e-07)
(5.17191e-07 -7.52646e-08 0 4.76519e-07 0 4.95702e-07)
(5.25286e-07 -7.58251e-08 0 4.75249e-07 0 4.99021e-07)
(5.3353e-07 -7.63746e-08 0 4.73858e-07 0 5.02379e-07)
(5.41317e-07 -7.69114e-08 0 4.72822e-07 0 5.05708e-07)
(5.49258e-07 -7.74125e-08 0 4.7143e-07 0 5.08959e-07)
(5.56658e-07 -7.78953e-08 0 4.70269e-07 0 5.1208e-07)
(5.64152e-07 -7.83386e-08 0 4.6865e-07 0 5.15057e-07)
(5.71024e-07 -7.87616e-08 0 4.67211e-07 0 5.17849e-07)
(5.7745e-07 -7.91547e-08 0 4.65755e-07 0 5.20454e-07)
(5.83499e-07 -7.95077e-08 0 4.64199e-07 0 5.22863e-07)
(5.88988e-07 -7.98232e-08 0 4.62736e-07 0 5.25064e-07)
(5.94067e-07 -8.01023e-08 0 4.61241e-07 0 5.2706e-07)
(5.98985e-07 -8.03435e-08 0 4.59491e-07 0 5.28865e-07)
(6.03681e-07 -8.05533e-08 0 4.57571e-07 0 5.30492e-07)
(6.07956e-07 -8.07416e-08 0 4.55709e-07 0 5.3195e-07)
(6.11661e-07 -8.09065e-08 0 4.54079e-07 0 5.33239e-07)
(6.14819e-07 -8.104e-08 0 4.52657e-07 0 5.34354e-07)
(6.17561e-07 -8.11379e-08 0 4.51294e-07 0 5.35289e-07)
(6.19941e-07 -8.11999e-08 0 4.49933e-07 0 5.36046e-07)
(6.21936e-07 -8.12219e-08 0 4.48608e-07 0 5.36621e-07)
(6.23496e-07 -8.12036e-08 0 4.47397e-07 0 5.37014e-07)
(6.24609e-07 -8.1153e-08 0 4.46361e-07 0 5.37236e-07)
(6.25451e-07 -8.10999e-08 0 4.4556e-07 0 5.37409e-07)
(6.26049e-07 -8.10447e-08 0 4.45029e-07 0 5.37558e-07)
(6.26347e-07 -8.09953e-08 0 4.44821e-07 0 5.37685e-07)
(6.26294e-07 -8.09539e-08 0 4.44978e-07 0 5.37789e-07)
(6.26066e-07 -8.09108e-08 0 4.4529e-07 0 5.37862e-07)
(6.25744e-07 -8.08736e-08 0 4.45647e-07 0 5.37897e-07)
(6.25262e-07 -8.08485e-08 0 4.4613e-07 0 5.37884e-07)
(6.24523e-07 -8.0819e-08 0 4.46807e-07 0 5.37823e-07)
(6.23392e-07 -8.07793e-08 0 4.47826e-07 0 5.37672e-07)
(6.22665e-07 -8.07385e-08 0 4.483e-07 0 5.37485e-07)
(6.2208e-07 -8.06674e-08 0 4.48485e-07 0 5.37263e-07)
(6.2086e-07 -8.05982e-08 0 4.49169e-07 0 5.36916e-07)
(6.19841e-07 -8.05517e-08 0 4.49445e-07 0 5.36552e-07)
(6.18983e-07 -8.04332e-08 0 4.4943e-07 0 5.36194e-07)
(1.44411e-07 -1.6318e-08 0 1.23279e-07 0 1.33405e-07)
(1.45543e-07 -1.62776e-08 0 1.26027e-07 0 1.35715e-07)
(1.46288e-07 -1.60875e-08 0 1.28143e-07 0 1.3719e-07)
(1.47639e-07 -1.57327e-08 0 1.3189e-07 0 1.39641e-07)
(1.51615e-07 -1.57095e-08 0 1.37546e-07 0 1.44682e-07)
(1.58801e-07 -1.58987e-08 0 1.47384e-07 0 1.52982e-07)
(1.67381e-07 -1.62964e-08 0 1.58885e-07 0 1.63248e-07)
(1.73458e-07 -1.65783e-08 0 1.68208e-07 0 1.70822e-07)
(1.76077e-07 -1.66619e-08 0 1.74692e-07 0 1.75466e-07)
(1.76062e-07 -1.65443e-08 0 1.78385e-07 0 1.77283e-07)
(1.7445e-07 -1.63116e-08 0 1.79917e-07 0 1.77275e-07)
(1.71152e-07 -1.58883e-08 0 1.80423e-07 0 1.75881e-07)
(1.66858e-07 -1.5366e-08 0 1.79765e-07 0 1.7341e-07)
(1.62019e-07 -1.47998e-08 0 1.7837e-07 0 1.70299e-07)
(1.56906e-07 -1.42113e-08 0 1.76531e-07 0 1.66832e-07)
(1.52025e-07 -1.36381e-08 0 1.74482e-07 0 1.63362e-07)
(1.47369e-07 -1.30883e-08 0 1.72399e-07 0 1.59985e-07)
(1.42992e-07 -1.25734e-08 0 1.70376e-07 0 1.56772e-07)
(1.38996e-07 -1.21054e-08 0 1.68435e-07 0 1.53789e-07)
(1.35373e-07 -1.16844e-08 0 1.66663e-07 0 1.51078e-07)
(1.32121e-07 -1.1314e-08 0 1.6512e-07 0 1.48665e-07)
(1.29283e-07 -1.10003e-08 0 1.63802e-07 0 1.46571e-07)
(1.26893e-07 -1.07473e-08 0 1.62699e-07 0 1.44811e-07)
(1.24921e-07 -1.05508e-08 0 1.61846e-07 0 1.43389e-07)
(1.2335e-07 -1.04093e-08 0 1.61251e-07 0 1.42297e-07)
(1.22188e-07 -1.03235e-08 0 1.60875e-07 0 1.41522e-07)
(1.21383e-07 -1.02838e-08 0 1.60726e-07 0 1.41042e-07)
(1.20913e-07 -1.02886e-08 0 1.60757e-07 0 1.40822e-07)
(1.20712e-07 -1.03359e-08 0 1.61001e-07 0 1.40849e-07)
(1.20804e-07 -1.0414e-08 0 1.61383e-07 0 1.41093e-07)
(1.21072e-07 -1.0515e-08 0 1.619e-07 0 1.41494e-07)
(1.21415e-07 -1.06184e-08 0 1.62435e-07 0 1.41942e-07)
(1.21815e-07 -1.07245e-08 0 1.63001e-07 0 1.42432e-07)
(1.2226e-07 -1.0833e-08 0 1.63587e-07 0 1.42954e-07)
(1.22741e-07 -1.09439e-08 0 1.64184e-07 0 1.435e-07)
(1.23254e-07 -1.10576e-08 0 1.64786e-07 0 1.44065e-07)
(1.23797e-07 -1.1175e-08 0 1.6539e-07 0 1.44645e-07)
(1.24375e-07 -1.12974e-08 0 1.65995e-07 0 1.45244e-07)
(1.24995e-07 -1.14263e-08 0 1.66601e-07 0 1.45865e-07)
(1.25665e-07 -1.15632e-08 0 1.67212e-07 0 1.46514e-07)
(1.264e-07 -1.17097e-08 0 1.6783e-07 0 1.472e-07)
(1.27212e-07 -1.18672e-08 0 1.68462e-07 0 1.47932e-07)
(1.28117e-07 -1.20363e-08 0 1.69109e-07 0 1.48718e-07)
(1.29126e-07 -1.22174e-08 0 1.69777e-07 0 1.49567e-07)
(1.30245e-07 -1.24098e-08 0 1.70465e-07 0 1.50482e-07)
(1.31479e-07 -1.26121e-08 0 1.71174e-07 0 1.51465e-07)
(1.32824e-07 -1.28223e-08 0 1.71904e-07 0 1.52515e-07)
(1.34267e-07 -1.30377e-08 0 1.72654e-07 0 1.53624e-07)
(1.35789e-07 -1.32553e-08 0 1.73421e-07 0 1.54782e-07)
(1.37368e-07 -1.34725e-08 0 1.74201e-07 0 1.55975e-07)
(1.38973e-07 -1.36863e-08 0 1.74994e-07 0 1.57188e-07)
(1.4057e-07 -1.38943e-08 0 1.75798e-07 0 1.58402e-07)
(1.42128e-07 -1.40946e-08 0 1.76612e-07 0 1.59601e-07)
(1.43625e-07 -1.42859e-08 0 1.77428e-07 0 1.6077e-07)
(1.45051e-07 -1.44676e-08 0 1.78224e-07 0 1.61893e-07)
(1.464e-07 -1.46388e-08 0 1.78983e-07 0 1.62959e-07)
(1.47645e-07 -1.47981e-08 0 1.79712e-07 0 1.63956e-07)
(1.48759e-07 -1.4944e-08 0 1.80418e-07 0 1.64877e-07)
(1.49749e-07 -1.50753e-08 0 1.81078e-07 0 1.65713e-07)
(1.50605e-07 -1.51897e-08 0 1.81678e-07 0 1.66452e-07)
(1.51281e-07 -1.52836e-08 0 1.82243e-07 0 1.67082e-07)
(1.51759e-07 -1.53547e-08 0 1.82762e-07 0 1.67589e-07)
(1.52027e-07 -1.54009e-08 0 1.83216e-07 0 1.67958e-07)
(1.52044e-07 -1.54186e-08 0 1.8361e-07 0 1.6817e-07)
(1.51681e-07 -1.53844e-08 0 1.83814e-07 0 1.68095e-07)
(1.50934e-07 -1.52977e-08 0 1.83794e-07 0 1.67713e-07)
(1.49822e-07 -1.51635e-08 0 1.83568e-07 0 1.67042e-07)
(1.48385e-07 -1.49897e-08 0 1.83152e-07 0 1.66113e-07)
(1.46684e-07 -1.47859e-08 0 1.82577e-07 0 1.64968e-07)
(1.44789e-07 -1.45631e-08 0 1.81878e-07 0 1.63663e-07)
(1.4278e-07 -1.43321e-08 0 1.81093e-07 0 1.62255e-07)
(1.40731e-07 -1.41025e-08 0 1.80263e-07 0 1.60803e-07)
(1.38701e-07 -1.38806e-08 0 1.79423e-07 0 1.59355e-07)
(1.36733e-07 -1.367e-08 0 1.78595e-07 0 1.57942e-07)
(1.34851e-07 -1.34724e-08 0 1.7779e-07 0 1.56585e-07)
(1.33073e-07 -1.32888e-08 0 1.77024e-07 0 1.55299e-07)
(1.31406e-07 -1.31189e-08 0 1.76307e-07 0 1.54093e-07)
(1.29845e-07 -1.29613e-08 0 1.75641e-07 0 1.52964e-07)
(1.28382e-07 -1.2815e-08 0 1.75026e-07 0 1.5191e-07)
(1.27012e-07 -1.26797e-08 0 1.74462e-07 0 1.50927e-07)
(1.25734e-07 -1.25568e-08 0 1.7395e-07 0 1.50016e-07)
(1.24558e-07 -1.2449e-08 0 1.735e-07 0 1.49187e-07)
(1.23501e-07 -1.23607e-08 0 1.73123e-07 0 1.48454e-07)
(1.22588e-07 -1.22966e-08 0 1.72836e-07 0 1.47839e-07)
(1.21848e-07 -1.22617e-08 0 1.72657e-07 0 1.47366e-07)
(1.2131e-07 -1.22593e-08 0 1.72605e-07 0 1.4706e-07)
(1.20976e-07 -1.22938e-08 0 1.72699e-07 0 1.46931e-07)
(1.20881e-07 -1.23688e-08 0 1.72963e-07 0 1.47009e-07)
(1.21036e-07 -1.24772e-08 0 1.73375e-07 0 1.4729e-07)
(1.21352e-07 -1.26025e-08 0 1.73848e-07 0 1.47684e-07)
(1.21804e-07 -1.27383e-08 0 1.74346e-07 0 1.48159e-07)
(1.22377e-07 -1.28837e-08 0 1.74881e-07 0 1.48713e-07)
(1.23077e-07 -1.30376e-08 0 1.75424e-07 0 1.49335e-07)
(1.23877e-07 -1.32001e-08 0 1.76005e-07 0 1.50027e-07)
(1.24777e-07 -1.33721e-08 0 1.76614e-07 0 1.50784e-07)
(1.25791e-07 -1.35553e-08 0 1.77235e-07 0 1.51602e-07)
(1.26925e-07 -1.37505e-08 0 1.7787e-07 0 1.52487e-07)
(1.2816e-07 -1.39608e-08 0 1.78572e-07 0 1.53457e-07)
(1.2952e-07 -1.41885e-08 0 1.7933e-07 0 1.54519e-07)
(1.31046e-07 -1.44332e-08 0 1.80101e-07 0 1.55668e-07)
(1.32746e-07 -1.46939e-08 0 1.80881e-07 0 1.56909e-07)
(1.34607e-07 -1.49691e-08 0 1.8169e-07 0 1.58246e-07)
(1.3662e-07 -1.52574e-08 0 1.82552e-07 0 1.59686e-07)
(1.38769e-07 -1.55564e-08 0 1.83474e-07 0 1.61224e-07)
(1.41057e-07 -1.58628e-08 0 1.84424e-07 0 1.62845e-07)
(1.43442e-07 -1.61728e-08 0 1.85415e-07 0 1.64537e-07)
(1.45931e-07 -1.64854e-08 0 1.86398e-07 0 1.66275e-07)
(1.48469e-07 -1.67983e-08 0 1.874e-07 0 1.68047e-07)
(1.51048e-07 -1.71104e-08 0 1.88402e-07 0 1.69841e-07)
(1.5366e-07 -1.74245e-08 0 1.89406e-07 0 1.7165e-07)
(1.5631e-07 -1.77438e-08 0 1.9041e-07 0 1.73476e-07)
(1.59006e-07 -1.80698e-08 0 1.91423e-07 0 1.75329e-07)
(1.61742e-07 -1.84065e-08 0 1.92477e-07 0 1.77223e-07)
(1.6455e-07 -1.87561e-08 0 1.93551e-07 0 1.79166e-07)
(1.67462e-07 -1.91216e-08 0 1.94646e-07 0 1.81172e-07)
(1.70514e-07 -1.95041e-08 0 1.95762e-07 0 1.83253e-07)
(1.73729e-07 -1.9907e-08 0 1.96911e-07 0 1.85431e-07)
(1.77131e-07 -2.03315e-08 0 1.98102e-07 0 1.87723e-07)
(1.80754e-07 -2.07803e-08 0 1.99337e-07 0 1.90147e-07)
(1.84632e-07 -2.12566e-08 0 2.00622e-07 0 1.92724e-07)
(1.88799e-07 -2.1763e-08 0 2.01965e-07 0 1.95475e-07)
(1.93288e-07 -2.2303e-08 0 2.03381e-07 0 1.98421e-07)
(1.98138e-07 -2.28792e-08 0 2.04879e-07 0 2.01587e-07)
(2.0339e-07 -2.34949e-08 0 2.06466e-07 0 2.04997e-07)
(2.09093e-07 -2.41532e-08 0 2.08142e-07 0 2.08677e-07)
(2.15288e-07 -2.4855e-08 0 2.09907e-07 0 2.12648e-07)
(2.22006e-07 -2.56007e-08 0 2.1177e-07 0 2.16927e-07)
(2.29276e-07 -2.63877e-08 0 2.13728e-07 0 2.21531e-07)
(2.37104e-07 -2.72096e-08 0 2.15782e-07 0 2.26464e-07)
(2.45468e-07 -2.80574e-08 0 2.17932e-07 0 2.31712e-07)
(2.54323e-07 -2.89204e-08 0 2.20167e-07 0 2.37242e-07)
(2.63609e-07 -2.97883e-08 0 2.22459e-07 0 2.43007e-07)
(2.73223e-07 -3.06545e-08 0 2.24779e-07 0 2.48943e-07)
(2.8305e-07 -3.15136e-08 0 2.27099e-07 0 2.54981e-07)
(2.92975e-07 -3.23595e-08 0 2.29401e-07 0 2.61057e-07)
(3.02881e-07 -3.31866e-08 0 2.31672e-07 0 2.67109e-07)
(3.12717e-07 -3.3995e-08 0 2.33892e-07 0 2.73105e-07)
(3.2243e-07 -3.47823e-08 0 2.36054e-07 0 2.79017e-07)
(3.31977e-07 -3.55472e-08 0 2.38155e-07 0 2.84816e-07)
(3.41325e-07 -3.62881e-08 0 2.40181e-07 0 2.90478e-07)
(3.50433e-07 -3.69995e-08 0 2.42113e-07 0 2.95971e-07)
(3.59255e-07 -3.7677e-08 0 2.43944e-07 0 3.0127e-07)
(3.67731e-07 -3.83133e-08 0 2.45682e-07 0 3.0635e-07)
(3.75759e-07 -3.8893e-08 0 2.47319e-07 0 3.11159e-07)
(3.83198e-07 -3.94023e-08 0 2.4883e-07 0 3.15611e-07)
(3.89907e-07 -3.98337e-08 0 2.50179e-07 0 3.19622e-07)
(3.95752e-07 -4.01776e-08 0 2.51337e-07 0 3.23119e-07)
(4.00567e-07 -4.04191e-08 0 2.52265e-07 0 3.26e-07)
(4.04182e-07 -4.05521e-08 0 2.52935e-07 0 3.28169e-07)
(4.06543e-07 -4.05866e-08 0 2.53357e-07 0 3.29591e-07)
(4.07778e-07 -4.05359e-08 0 2.53549e-07 0 3.30338e-07)
(4.07959e-07 -4.0421e-08 0 2.53523e-07 0 3.30445e-07)
(4.07101e-07 -4.02182e-08 0 2.53267e-07 0 3.29934e-07)
(4.04999e-07 -3.99469e-08 0 2.52872e-07 0 3.28751e-07)
(4.02197e-07 -3.96239e-08 0 2.52221e-07 0 3.27081e-07)
(3.99035e-07 -3.92701e-08 0 2.51301e-07 0 3.25091e-07)
(3.95155e-07 -3.89307e-08 0 2.50607e-07 0 3.22839e-07)
(3.91114e-07 -3.85764e-08 0 2.49685e-07 0 3.20389e-07)
(3.86491e-07 -3.82256e-08 0 2.48992e-07 0 3.17742e-07)
(3.82359e-07 -3.7877e-08 0 2.48014e-07 0 3.15149e-07)
(3.78547e-07 -3.75145e-08 0 2.46595e-07 0 3.12549e-07)
(3.74114e-07 -3.72028e-08 0 2.45899e-07 0 3.09979e-07)
(3.69967e-07 -3.69015e-08 0 2.44893e-07 0 3.07381e-07)
(3.65707e-07 -3.66122e-08 0 2.43461e-07 0 3.04709e-07)
(3.55431e-08 -2.36766e-09 0 3.04404e-08 0 3.29129e-08)
(3.6819e-08 -2.31719e-09 0 3.21978e-08 0 3.44973e-08)
(3.83907e-08 -2.25053e-09 0 3.43272e-08 0 3.63612e-08)
(4.11178e-08 -2.19168e-09 0 3.76108e-08 0 3.93168e-08)
(4.5219e-08 -2.23336e-09 0 4.23846e-08 0 4.38171e-08)
(5.18689e-08 -2.3837e-09 0 4.97266e-08 0 5.07456e-08)
(5.94846e-08 -2.6349e-09 0 5.83684e-08 0 5.89327e-08)
(6.55535e-08 -2.85493e-09 0 6.55359e-08 0 6.5513e-08)
(6.94615e-08 -3.0158e-09 0 7.0897e-08 0 7.01794e-08)
(7.1647e-08 -3.10517e-09 0 7.45599e-08 0 7.30945e-08)
(7.24117e-08 -3.13195e-09 0 7.68849e-08 0 7.46573e-08)
(7.22386e-08 -3.10837e-09 0 7.8167e-08 0 7.5215e-08)
(7.15671e-08 -3.05753e-09 0 7.87573e-08 0 7.51828e-08)
(7.04664e-08 -2.983e-09 0 7.90444e-08 0 7.47826e-08)
(6.9167e-08 -2.90425e-09 0 7.90673e-08 0 7.41524e-08)
(6.78177e-08 -2.83095e-09 0 7.894e-08 0 7.34206e-08)
(6.65227e-08 -2.76968e-09 0 7.8758e-08 0 7.26889e-08)
(6.53244e-08 -2.71817e-09 0 7.85656e-08 0 7.19996e-08)
(6.42438e-08 -2.67316e-09 0 7.83755e-08 0 7.13696e-08)
(6.3268e-08 -2.64329e-09 0 7.82226e-08 0 7.08106e-08)
(6.24248e-08 -2.62525e-09 0 7.80914e-08 0 7.03281e-08)
(6.17001e-08 -2.6183e-09 0 7.7998e-08 0 6.99235e-08)
(6.10754e-08 -2.62192e-09 0 7.79583e-08 0 6.95957e-08)
(6.05613e-08 -2.6353e-09 0 7.79562e-08 0 6.93421e-08)
(6.01747e-08 -2.65685e-09 0 7.79668e-08 0 6.91581e-08)
(5.98848e-08 -2.68372e-09 0 7.80116e-08 0 6.90392e-08)
(5.96667e-08 -2.71431e-09 0 7.81013e-08 0 6.89788e-08)
(5.95511e-08 -2.75326e-09 0 7.81849e-08 0 6.89665e-08)
(5.94931e-08 -2.79032e-09 0 7.83126e-08 0 6.90049e-08)
(5.95091e-08 -2.82922e-09 0 7.84469e-08 0 6.90834e-08)
(5.9572e-08 -2.86809e-09 0 7.85936e-08 0 6.91914e-08)
(5.96604e-08 -2.90423e-09 0 7.87314e-08 0 6.93076e-08)
(5.97683e-08 -2.93848e-09 0 7.88673e-08 0 6.94326e-08)
(5.98961e-08 -2.97151e-09 0 7.89972e-08 0 6.95642e-08)
(6.00356e-08 -3.00344e-09 0 7.91282e-08 0 6.97019e-08)
(6.01888e-08 -3.0353e-09 0 7.92548e-08 0 6.98442e-08)
(6.03525e-08 -3.06771e-09 0 7.93813e-08 0 6.99915e-08)
(6.05288e-08 -3.10169e-09 0 7.95055e-08 0 7.01438e-08)
(6.07192e-08 -3.1381e-09 0 7.9628e-08 0 7.03023e-08)
(6.09273e-08 -3.1778e-09 0 7.97479e-08 0 7.04681e-08)
(6.11579e-08 -3.22135e-09 0 7.98642e-08 0 7.06433e-08)
(6.14157e-08 -3.26907e-09 0 7.99767e-08 0 7.08301e-08)
(6.17062e-08 -3.3208e-09 0 8.00845e-08 0 7.10308e-08)
(6.2034e-08 -3.37607e-09 0 8.01875e-08 0 7.12476e-08)
(6.24025e-08 -3.43393e-09 0 8.0285e-08 0 7.1482e-08)
(6.28129e-08 -3.49316e-09 0 8.0378e-08 0 7.17352e-08)
(6.32645e-08 -3.55239e-09 0 8.04679e-08 0 7.20073e-08)
(6.37538e-08 -3.61015e-09 0 8.05563e-08 0 7.22976e-08)
(6.42748e-08 -3.6651e-09 0 8.06456e-08 0 7.26042e-08)
(6.48192e-08 -3.71623e-09 0 8.07383e-08 0 7.29242e-08)
(6.53778e-08 -3.76288e-09 0 8.08369e-08 0 7.32539e-08)
(6.594e-08 -3.80477e-09 0 8.09436e-08 0 7.35891e-08)
(6.64955e-08 -3.84196e-09 0 8.10596e-08 0 7.39253e-08)
(6.7035e-08 -3.87485e-09 0 8.11849e-08 0 7.4258e-08)
(6.75511e-08 -3.90387e-09 0 8.13187e-08 0 7.45831e-08)
(6.80374e-08 -3.92943e-09 0 8.14595e-08 0 7.48968e-08)
(6.8488e-08 -3.95165e-09 0 8.16066e-08 0 7.51959e-08)
(6.88974e-08 -3.97022e-09 0 8.17589e-08 0 7.54772e-08)
(6.92611e-08 -3.98447e-09 0 8.19145e-08 0 7.57376e-08)
(6.95731e-08 -3.99338e-09 0 8.20719e-08 0 7.59735e-08)
(6.98247e-08 -3.99577e-09 0 8.2232e-08 0 7.61808e-08)
(7.00075e-08 -3.99072e-09 0 8.23943e-08 0 7.63552e-08)
(7.01128e-08 -3.97783e-09 0 8.25574e-08 0 7.64915e-08)
(7.01305e-08 -3.95688e-09 0 8.27182e-08 0 7.6583e-08)
(7.00184e-08 -3.92227e-09 0 8.28444e-08 0 7.65927e-08)
(6.9775e-08 -3.8773e-09 0 8.2919e-08 0 7.6511e-08)
(6.94063e-08 -3.82422e-09 0 8.29491e-08 0 7.63447e-08)
(6.89267e-08 -3.76653e-09 0 8.29407e-08 0 7.61038e-08)
(6.83571e-08 -3.70805e-09 0 8.2902e-08 0 7.58027e-08)
(6.77232e-08 -3.65231e-09 0 8.28421e-08 0 7.5459e-08)
(6.70522e-08 -3.6022e-09 0 8.27706e-08 0 7.5091e-08)
(6.63697e-08 -3.55956e-09 0 8.26968e-08 0 7.47161e-08)
(6.56959e-08 -3.52493e-09 0 8.26278e-08 0 7.4348e-08)
(6.5046e-08 -3.49788e-09 0 8.25676e-08 0 7.39967e-08)
(6.44292e-08 -3.47721e-09 0 8.2518e-08 0 7.36677e-08)
(6.38499e-08 -3.46141e-09 0 8.248e-08 0 7.33634e-08)
(6.33093e-08 -3.44896e-09 0 8.2454e-08 0 7.30845e-08)
(6.28049e-08 -3.43886e-09 0 8.24404e-08 0 7.28295e-08)
(6.23338e-08 -3.43046e-09 0 8.24384e-08 0 7.25966e-08)
(6.18929e-08 -3.4241e-09 0 8.24481e-08 0 7.2384e-08)
(6.14819e-08 -3.42065e-09 0 8.24691e-08 0 7.21917e-08)
(6.11028e-08 -3.42161e-09 0 8.25023e-08 0 7.20209e-08)
(6.07606e-08 -3.42852e-09 0 8.25484e-08 0 7.18749e-08)
(6.04632e-08 -3.44256e-09 0 8.26086e-08 0 7.1758e-08)
(6.02192e-08 -3.46447e-09 0 8.26845e-08 0 7.16754e-08)
(6.00356e-08 -3.49419e-09 0 8.2777e-08 0 7.1631e-08)
(5.99062e-08 -3.53605e-09 0 8.29018e-08 0 7.16297e-08)
(5.98595e-08 -3.58277e-09 0 8.30406e-08 0 7.16764e-08)
(5.98847e-08 -3.63545e-09 0 8.32004e-08 0 7.17695e-08)
(5.99648e-08 -3.69001e-09 0 8.33561e-08 0 7.18878e-08)
(6.0093e-08 -3.74461e-09 0 8.35006e-08 0 7.20245e-08)
(6.02649e-08 -3.79879e-09 0 8.36373e-08 0 7.21792e-08)
(6.04788e-08 -3.85241e-09 0 8.37652e-08 0 7.23503e-08)
(6.07299e-08 -3.90601e-09 0 8.38896e-08 0 7.25383e-08)
(6.1017e-08 -3.96043e-09 0 8.40111e-08 0 7.27426e-08)
(6.13426e-08 -4.01698e-09 0 8.41287e-08 0 7.29636e-08)
(6.171e-08 -4.07675e-09 0 8.4242e-08 0 7.32025e-08)
(6.21187e-08 -4.14109e-09 0 8.43584e-08 0 7.34637e-08)
(6.25751e-08 -4.21046e-09 0 8.44758e-08 0 7.37493e-08)
(6.30887e-08 -4.28463e-09 0 8.45878e-08 0 7.40603e-08)
(6.36634e-08 -4.36275e-09 0 8.46957e-08 0 7.43995e-08)
(6.42986e-08 -4.4434e-09 0 8.48032e-08 0 7.47688e-08)
(6.49921e-08 -4.52524e-09 0 8.49171e-08 0 7.51701e-08)
(6.57408e-08 -4.60703e-09 0 8.50403e-08 0 7.56034e-08)
(6.65395e-08 -4.68732e-09 0 8.51729e-08 0 7.60662e-08)
(6.73819e-08 -4.7653e-09 0 8.5314e-08 0 7.65547e-08)
(6.82572e-08 -4.84132e-09 0 8.5467e-08 0 7.70652e-08)
(6.91575e-08 -4.91562e-09 0 8.56309e-08 0 7.75937e-08)
(7.00757e-08 -4.98899e-09 0 8.58065e-08 0 7.81366e-08)
(7.10069e-08 -5.0635e-09 0 8.59962e-08 0 7.86926e-08)
(7.19528e-08 -5.14126e-09 0 8.61993e-08 0 7.92618e-08)
(7.29174e-08 -5.22401e-09 0 8.64165e-08 0 7.98468e-08)
(7.39054e-08 -5.31305e-09 0 8.66496e-08 0 8.04509e-08)
(7.4924e-08 -5.40894e-09 0 8.68959e-08 0 8.10774e-08)
(7.59838e-08 -5.51205e-09 0 8.71557e-08 0 8.17314e-08)
(7.70999e-08 -5.62309e-09 0 8.74288e-08 0 8.24188e-08)
(7.82828e-08 -5.7431e-09 0 8.77173e-08 0 8.31464e-08)
(7.95431e-08 -5.87216e-09 0 8.80225e-08 0 8.39208e-08)
(8.08938e-08 -6.01096e-09 0 8.8348e-08 0 8.47497e-08)
(8.2348e-08 -6.16051e-09 0 8.86979e-08 0 8.56417e-08)
(8.3921e-08 -6.32177e-09 0 8.90763e-08 0 8.66061e-08)
(8.56292e-08 -6.49612e-09 0 8.94882e-08 0 8.76532e-08)
(8.74914e-08 -6.68461e-09 0 8.99372e-08 0 8.87944e-08)
(8.95283e-08 -6.88891e-09 0 9.04268e-08 0 9.00415e-08)
(9.17605e-08 -7.10992e-09 0 9.09612e-08 0 9.14073e-08)
(9.42083e-08 -7.34784e-09 0 9.15456e-08 0 9.29047e-08)
(9.68909e-08 -7.6027e-09 0 9.2186e-08 0 9.4546e-08)
(9.98237e-08 -7.87282e-09 0 9.28883e-08 0 9.6342e-08)
(1.03017e-07 -8.15481e-09 0 9.36574e-08 0 9.82996e-08)
(1.06469e-07 -8.44504e-09 0 9.44967e-08 0 1.00419e-07)
(1.10172e-07 -8.74011e-09 0 9.5404e-08 0 1.02694e-07)
(1.14103e-07 -9.03677e-09 0 9.63723e-08 0 1.05109e-07)
(1.18227e-07 -9.33359e-09 0 9.73923e-08 0 1.07642e-07)
(1.22499e-07 -9.63064e-09 0 9.84544e-08 0 1.10266e-07)
(1.26873e-07 -9.92601e-09 0 9.95479e-08 0 1.12957e-07)
(1.31306e-07 -1.02192e-08 0 1.00665e-07 0 1.15687e-07)
(1.35769e-07 -1.05123e-08 0 1.01797e-07 0 1.18441e-07)
(1.40243e-07 -1.08046e-08 0 1.02934e-07 0 1.21203e-07)
(1.44707e-07 -1.1096e-08 0 1.04067e-07 0 1.23962e-07)
(1.49143e-07 -1.13854e-08 0 1.05193e-07 0 1.26702e-07)
(1.53523e-07 -1.16697e-08 0 1.06302e-07 0 1.29406e-07)
(1.57821e-07 -1.19454e-08 0 1.07384e-07 0 1.32055e-07)
(1.6201e-07 -1.22069e-08 0 1.08431e-07 0 1.34635e-07)
(1.6604e-07 -1.24447e-08 0 1.09432e-07 0 1.37113e-07)
(1.6983e-07 -1.26508e-08 0 1.10368e-07 0 1.39443e-07)
(1.73301e-07 -1.28215e-08 0 1.11224e-07 0 1.41576e-07)
(1.76371e-07 -1.29514e-08 0 1.11984e-07 0 1.43471e-07)
(1.78945e-07 -1.30311e-08 0 1.12624e-07 0 1.45067e-07)
(1.80925e-07 -1.30578e-08 0 1.13119e-07 0 1.46306e-07)
(1.82259e-07 -1.30391e-08 0 1.13464e-07 0 1.47153e-07)
(1.82934e-07 -1.2977e-08 0 1.13635e-07 0 1.47592e-07)
(1.8297e-07 -1.28862e-08 0 1.13628e-07 0 1.47624e-07)
(1.82347e-07 -1.27377e-08 0 1.13439e-07 0 1.47247e-07)
(1.81011e-07 -1.25483e-08 0 1.13082e-07 0 1.46443e-07)
(1.7922e-07 -1.23429e-08 0 1.1257e-07 0 1.45333e-07)
(1.77137e-07 -1.21365e-08 0 1.1194e-07 0 1.44016e-07)
(1.74741e-07 -1.19285e-08 0 1.11327e-07 0 1.42545e-07)
(1.72278e-07 -1.17154e-08 0 1.1061e-07 0 1.40988e-07)
(1.69652e-07 -1.15083e-08 0 1.0992e-07 0 1.39354e-07)
(1.6705e-07 -1.13209e-08 0 1.09272e-07 0 1.37737e-07)
(1.64556e-07 -1.11354e-08 0 1.08428e-07 0 1.36093e-07)
(1.61979e-07 -1.09773e-08 0 1.07779e-07 0 1.34497e-07)
(1.59426e-07 -1.08308e-08 0 1.07214e-07 0 1.32947e-07)
(1.56936e-07 -1.06672e-08 0 1.06373e-07 0 1.31347e-07)
(1.73161e-08 -3.99947e-10 0 1.527e-08 0 1.62561e-08)
(1.87843e-08 -3.88375e-10 0 1.69201e-08 0 1.78396e-08)
(2.07434e-08 -3.86786e-10 0 1.9148e-08 0 1.99456e-08)
(2.37438e-08 -4.06157e-10 0 2.22904e-08 0 2.29826e-08)
(2.78002e-08 -4.74438e-10 0 2.66979e-08 0 2.72525e-08)
(3.39792e-08 -6.09961e-10 0 3.31513e-08 0 3.35312e-08)
(4.09595e-08 -8.10151e-10 0 4.06971e-08 0 4.08266e-08)
(4.6715e-08 -9.99269e-10 0 4.71166e-08 0 4.68918e-08)
(5.07744e-08 -1.16787e-09 0 5.21467e-08 0 5.14557e-08)
(5.34393e-08 -1.3015e-09 0 5.58416e-08 0 5.46253e-08)
(5.49145e-08 -1.40009e-09 0 5.8471e-08 0 5.66883e-08)
(5.55773e-08 -1.4678e-09 0 6.02789e-08 0 5.79203e-08)
(5.56814e-08 -1.51459e-09 0 6.15285e-08 0 5.86009e-08)
(5.54594e-08 -1.54691e-09 0 6.2409e-08 0 5.893e-08)
(5.50496e-08 -1.5706e-09 0 6.3056e-08 0 5.90496e-08)
(5.45999e-08 -1.58857e-09 0 6.35212e-08 0 5.90575e-08)
(5.4079e-08 -1.60831e-09 0 6.39508e-08 0 5.90119e-08)
(5.355e-08 -1.63272e-09 0 6.43394e-08 0 5.89414e-08)
(5.30469e-08 -1.664e-09 0 6.4695e-08 0 5.88671e-08)
(5.25884e-08 -1.7021e-09 0 6.50218e-08 0 5.88006e-08)
(5.21858e-08 -1.74226e-09 0 6.53148e-08 0 5.87452e-08)
(5.18299e-08 -1.78537e-09 0 6.55838e-08 0 5.87011e-08)
(5.15296e-08 -1.83087e-09 0 6.58199e-08 0 5.86686e-08)
(5.1283e-08 -1.87799e-09 0 6.60244e-08 0 5.86473e-08)
(5.10805e-08 -1.92507e-09 0 6.62046e-08 0 5.86361e-08)
(5.08979e-08 -1.97322e-09 0 6.63811e-08 0 5.86331e-08)
(5.07606e-08 -2.0206e-09 0 6.6525e-08 0 5.86367e-08)
(5.06806e-08 -2.06675e-09 0 6.66221e-08 0 5.86459e-08)
(5.06259e-08 -2.10632e-09 0 6.67043e-08 0 5.86603e-08)
(5.05896e-08 -2.1399e-09 0 6.67759e-08 0 5.86787e-08)
(5.059e-08 -2.17486e-09 0 6.68148e-08 0 5.86996e-08)
(5.05984e-08 -2.20232e-09 0 6.68443e-08 0 5.87196e-08)
(5.06164e-08 -2.22569e-09 0 6.68631e-08 0 5.87391e-08)
(5.06525e-08 -2.24842e-09 0 6.68624e-08 0 5.87581e-08)
(5.06888e-08 -2.26655e-09 0 6.68641e-08 0 5.87781e-08)
(5.07378e-08 -2.28551e-09 0 6.68526e-08 0 5.87978e-08)
(5.07899e-08 -2.30313e-09 0 6.68404e-08 0 5.88186e-08)
(5.08501e-08 -2.32232e-09 0 6.68216e-08 0 5.88401e-08)
(5.09173e-08 -2.3432e-09 0 6.67982e-08 0 5.88626e-08)
(5.09946e-08 -2.36699e-09 0 6.67672e-08 0 5.88864e-08)
(5.10843e-08 -2.3942e-09 0 6.67266e-08 0 5.89115e-08)
(5.11895e-08 -2.42479e-09 0 6.66736e-08 0 5.89382e-08)