/*--------------------------------*- C++ -*----------------------------------*\
| =========                 |                                                 |
| \\      /  F ield         | OpenFOAM: The Open Source CFD Toolbox           |
|  \\    /   O peration     | Version:  v1912                                 |
|   \\  /    A nd           | Website:  www.openfoam.com                      |
|    \\/     M anipulation  |                                                 |
\*---------------------------------------------------------------------------*/
FoamFile
{
    version     2.0;
    format      ascii;
    class       volScalarField;
    location    "20";
    object      k;
}
// * * * * * * * * * * * * * * * * * * * * * * * * * * * * * * * * * * * * * //

dimensions      [0 2 -2 0 0 0 0];


internalField   nonuniform List<scalar> 
14268
(
1.23178e-08
1.22613e-08
1.22075e-08
1.21385e-08
1.20647e-08
1.19674e-08
1.18909e-08
1.1823e-08
1.62148e-07
1.61463e-07
1.60704e-07
1.59637e-07
1.58441e-07
1.56837e-07
1.55576e-07
1.54435e-07
2.11509e-07
2.11337e-07
2.11163e-07
2.10896e-07
2.10627e-07
2.1023e-07
2.09929e-07
2.09635e-07
2.17127e-07
2.17111e-07
2.17114e-07
2.17056e-07
2.1701e-07
2.16869e-07
2.1679e-07
2.16729e-07
2.17848e-07
2.17837e-07
2.17849e-07
2.17843e-07
2.17882e-07
2.17903e-07
2.17947e-07
2.17971e-07
2.17628e-07
2.17638e-07
2.17671e-07
2.17651e-07
2.17651e-07
2.17566e-07
2.17551e-07
2.17554e-07
2.17873e-07
2.17863e-07
2.17878e-07
2.17875e-07
2.17919e-07
2.17949e-07
2.17985e-07
2.18005e-07
2.17641e-07
2.17652e-07
2.17685e-07
2.17663e-07
2.17662e-07
2.17565e-07
2.17566e-07
2.17576e-07
2.17866e-07
2.17857e-07
2.17871e-07
2.1787e-07
2.17917e-07
2.17943e-07
2.17968e-07
2.17986e-07
2.17673e-07
2.17679e-07
2.17709e-07
2.17682e-07
2.17682e-07
2.17593e-07
2.17611e-07
2.17623e-07
2.17839e-07
2.17831e-07
2.17843e-07
2.17858e-07
2.17911e-07
2.17928e-07
2.17948e-07
2.17967e-07
2.17803e-07
2.17822e-07
2.17859e-07
2.17827e-07
2.17799e-07
2.17711e-07
2.17738e-07
2.17723e-07
2.18005e-07
2.18032e-07
2.18064e-07
2.18084e-07
2.18174e-07
2.18209e-07
2.18135e-07
2.18018e-07
2.18119e-07
2.18226e-07
2.183e-07
2.18416e-07
2.18462e-07
2.18462e-07
2.18497e-07
2.18578e-07
2.17742e-07
2.1777e-07
2.17767e-07
2.17836e-07
2.1791e-07
2.18173e-07
2.18424e-07
2.18796e-07
2.17831e-07
2.17797e-07
2.17792e-07
2.1775e-07
2.1772e-07
2.17626e-07
2.17648e-07
2.17856e-07
2.1776e-07
2.17757e-07
2.17762e-07
2.17729e-07
2.17769e-07
2.17804e-07
2.17878e-07
2.17918e-07
2.17928e-07
2.17908e-07
2.1793e-07
2.17928e-07
2.17929e-07
2.17903e-07
2.17848e-07
2.17838e-07
2.17699e-07
2.17702e-07
2.17689e-07
2.17651e-07
2.17714e-07
2.17751e-07
2.17867e-07
2.17943e-07
2.17985e-07
2.17965e-07
2.17988e-07
2.1799e-07
2.18009e-07
2.17987e-07
2.17946e-07
2.17848e-07
2.17546e-07
2.17538e-07
2.17523e-07
2.17485e-07
2.1755e-07
2.17585e-07
2.1772e-07
2.17872e-07
2.17941e-07
2.17904e-07
2.17907e-07
2.17875e-07
2.17893e-07
2.1786e-07
2.17859e-07
2.17783e-07
2.17804e-07
2.17823e-07
2.17848e-07
2.1784e-07
2.17882e-07
2.17886e-07
2.17912e-07
2.17907e-07
2.1801e-07
2.17968e-07
2.17965e-07
2.17961e-07
2.18004e-07
2.18001e-07
2.1802e-07
2.17931e-07
2.17797e-07
2.17837e-07
2.17881e-07
2.17879e-07
2.17924e-07
2.17922e-07
2.17948e-07
2.17909e-07
2.18076e-07
2.18019e-07
2.18005e-07
2.18009e-07
2.18076e-07
2.18085e-07
2.1813e-07
2.18001e-07
2.17813e-07
2.17872e-07
2.17933e-07
2.17942e-07
2.18001e-07
2.18004e-07
2.18021e-07
2.17929e-07
2.18112e-07
2.18034e-07
2.18007e-07
2.18017e-07
2.18107e-07
2.18134e-07
2.18262e-07
2.18104e-07
2.17868e-07
2.17938e-07
2.18014e-07
2.18045e-07
2.18135e-07
2.18164e-07
2.18173e-07
2.18025e-07
2.18105e-07
2.18002e-07
2.17966e-07
2.1798e-07
2.18092e-07
2.18149e-07
2.18396e-07
2.18218e-07
2.17964e-07
2.18027e-07
2.18103e-07
2.18161e-07
2.18298e-07
2.18391e-07
2.18504e-07
2.18374e-07
2.18062e-07
2.17935e-07
2.179e-07
2.17921e-07
2.18062e-07
2.18162e-07
2.18552e-07
2.18302e-07
2.18e-07
2.18093e-07
2.18194e-07
2.18307e-07
2.18529e-07
2.18783e-07
2.19345e-07
2.19028e-07
2.14389e-07
2.16385e-07
2.17803e-07
2.18894e-07
2.19784e-07
2.20289e-07
2.20685e-07
2.19034e-07
2.25651e-07
2.24162e-07
2.22451e-07
2.15556e-07
2.04461e-07
1.85626e-07
1.64095e-07
1.38749e-07
3.35742e-06
3.87006e-06
4.53643e-06
5.38974e-06
6.54334e-06
7.88906e-06
8.83732e-06
8.95633e-06
0.000104291
0.000123925
0.000146731
0.000176839
0.000213663
0.000260028
0.000356995
0.000425247
0.575221
0.589266
0.604472
0.62048
0.637443
0.656108
0.677923
0.707241
1.92148
1.88894
1.86395
1.83798
1.81081
1.78028
1.73427
1.71428
1.32324
1.30581
1.29333
1.28216
1.27014
1.25715
1.23992
1.2205
1.28152
1.27014
1.26581
1.26347
1.25998
1.25588
1.24708
1.23652
0.997386
0.995084
0.996732
1.00028
1.00183
1.00251
0.998743
0.990747
0.832009
0.838304
0.848627
0.862152
0.871835
0.88205
0.88431
0.884038
0.636142
0.647375
0.66159
0.678732
0.69023
0.702608
0.706181
0.707072
0.461404
0.476039
0.492509
0.511451
0.523972
0.537514
0.5427
0.545927
0.302227
0.317189
0.332617
0.350052
0.361269
0.373499
0.378293
0.381395
0.169467
0.182212
0.194303
0.208164
0.216343
0.225626
0.228807
0.23058
0.0675934
0.0764342
0.0843363
0.0935711
0.0984387
0.104335
0.105592
0.105699
0.0107323
0.0137208
0.0165093
0.019767
0.0212417
0.0231214
0.0228965
0.0221129
0.00019586
0.000324066
0.000468446
0.000656268
0.000734476
0.000842324
0.000791239
0.000705922
2.60366e-07
3.31741e-07
4.49572e-07
6.60293e-07
7.50334e-07
8.9504e-07
7.88356e-07
6.509e-07
2.15748e-07
2.16243e-07
2.16425e-07
2.17078e-07
2.17596e-07
2.18141e-07
2.18903e-07
2.19664e-07
2.16368e-07
2.16591e-07
2.16571e-07
2.16671e-07
2.1647e-07
2.16284e-07
2.15758e-07
2.1555e-07
2.16967e-07
2.17434e-07
2.17677e-07
2.18275e-07
2.18701e-07
2.19316e-07
2.19787e-07
2.20352e-07
2.16627e-07
2.16765e-07
2.16731e-07
2.16713e-07
2.16527e-07
2.16372e-07
2.16107e-07
2.15982e-07
2.17807e-07
2.18236e-07
2.18505e-07
2.18997e-07
2.19271e-07
2.1984e-07
2.2014e-07
2.2069e-07
2.17024e-07
2.17093e-07
2.17024e-07
2.16956e-07
2.16804e-07
2.16692e-07
2.1648e-07
2.16364e-07
2.18253e-07
2.18621e-07
2.18873e-07
2.19293e-07
2.19508e-07
2.2006e-07
2.2033e-07
2.20896e-07
2.17451e-07
2.17467e-07
2.17375e-07
2.17274e-07
2.17113e-07
2.17016e-07
2.16823e-07
2.16704e-07
2.18545e-07
2.18863e-07
2.19076e-07
2.19452e-07
2.19637e-07
2.20165e-07
2.20404e-07
2.20953e-07
2.17824e-07
2.17814e-07
2.17689e-07
2.17586e-07
2.17415e-07
2.17329e-07
2.17116e-07
2.16996e-07
2.18738e-07
2.19006e-07
2.19177e-07
2.1953e-07
2.19706e-07
2.20191e-07
2.2036e-07
2.2088e-07
2.18139e-07
2.18106e-07
2.17967e-07
2.17882e-07
2.17697e-07
2.17638e-07
2.17391e-07
2.17281e-07
2.18844e-07
2.19074e-07
2.19223e-07
2.1955e-07
2.19704e-07
2.20146e-07
2.20276e-07
2.20765e-07
2.18388e-07
2.18365e-07
2.18225e-07
2.18156e-07
2.17976e-07
2.17932e-07
2.17663e-07
2.17577e-07
2.18891e-07
2.19088e-07
2.19225e-07
2.19529e-07
2.19659e-07
2.20058e-07
2.20161e-07
2.20608e-07
2.1857e-07
2.18575e-07
2.18467e-07
2.18419e-07
2.18235e-07
2.18201e-07
2.17934e-07
2.17863e-07
2.18908e-07
2.19073e-07
2.19188e-07
2.19461e-07
2.19574e-07
2.19935e-07
2.20022e-07
2.20428e-07
2.18716e-07
2.18739e-07
2.18667e-07
2.18648e-07
2.18473e-07
2.18449e-07
2.18194e-07
2.18141e-07
2.18916e-07
2.1904e-07
2.19124e-07
2.19361e-07
2.19458e-07
2.19785e-07
2.19862e-07
2.20233e-07
2.18826e-07
2.18867e-07
2.18817e-07
2.18829e-07
2.18683e-07
2.18669e-07
2.18432e-07
2.18396e-07
2.18936e-07
2.19013e-07
2.1906e-07
2.19251e-07
2.1933e-07
2.19621e-07
2.19693e-07
2.20025e-07
2.18895e-07
2.18952e-07
2.18946e-07
2.18974e-07
2.18862e-07
2.18865e-07
2.18654e-07
2.18623e-07
2.18958e-07
2.19005e-07
2.19016e-07
2.19152e-07
2.19207e-07
2.19458e-07
2.19528e-07
2.19827e-07
2.18923e-07
2.18978e-07
2.18986e-07
2.19044e-07
2.18968e-07
2.18988e-07
2.18811e-07
2.18786e-07
2.18951e-07
2.18991e-07
2.18994e-07
2.19073e-07
2.19079e-07
2.19277e-07
2.19335e-07
2.19602e-07
2.18916e-07
2.18962e-07
2.18968e-07
2.19034e-07
2.18983e-07
2.18996e-07
2.18814e-07
2.18751e-07
2.18931e-07
2.18969e-07
2.1897e-07
2.19034e-07
2.19024e-07
2.19123e-07
2.19097e-07
2.19209e-07
2.18939e-07
2.18975e-07
2.18979e-07
2.19013e-07
2.18995e-07
2.19028e-07
2.18988e-07
2.19016e-07
2.18895e-07
2.18916e-07
2.18929e-07
2.18957e-07
2.18967e-07
2.19003e-07
2.19009e-07
2.19049e-07
2.18865e-07
2.18887e-07
2.18899e-07
2.18913e-07
2.1892e-07
2.18925e-07
2.18916e-07
2.18913e-07
2.18835e-07
2.18854e-07
2.18867e-07
2.18883e-07
2.18893e-07
2.18908e-07
2.18916e-07
2.1893e-07
2.18815e-07
2.18833e-07
2.18845e-07
2.18857e-07
2.18864e-07
2.18869e-07
2.18867e-07
2.18863e-07
2.18907e-07
2.18905e-07
2.18902e-07
2.189e-07
2.18896e-07
2.18894e-07
2.1889e-07
2.18888e-07
2.2066e-07
2.20427e-07
2.20214e-07
2.2002e-07
2.19846e-07
2.1969e-07
2.1955e-07
2.19425e-07
2.43612e-07
2.4149e-07
2.39445e-07
2.37489e-07
2.35631e-07
2.33877e-07
2.32232e-07
2.30698e-07
4.60098e-07
4.50691e-07
4.4108e-07
4.31307e-07
4.21417e-07
4.11451e-07
4.01453e-07
3.91461e-07
1.19722e-08
1.21706e-08
1.22994e-08
1.24063e-08
1.24616e-08
1.25337e-08
1.25852e-08
1.26223e-08
1.26443e-08
1.26688e-08
1.26883e-08
1.27145e-08
1.27459e-08
1.27777e-08
1.27978e-08
1.27765e-08
1.26959e-08
1.25648e-08
1.24255e-08
1.23909e-08
1.23891e-08
1.24115e-08
1.24603e-08
1.25179e-08
1.25841e-08
1.26627e-08
1.27446e-08
1.28267e-08
1.28961e-08
1.29639e-08
1.30279e-08
1.30806e-08
1.30877e-08
1.30575e-08
1.30042e-08
1.29552e-08
1.29025e-08
1.28482e-08
1.27961e-08
1.27626e-08
1.2761e-08
1.27543e-08
1.27352e-08
1.27101e-08
1.26876e-08
1.26683e-08
1.26485e-08
1.2624e-08
1.25959e-08
1.25709e-08
1.25566e-08
1.25535e-08
1.25532e-08
1.25541e-08
1.25555e-08
1.2557e-08
1.25583e-08
1.25589e-08
1.25587e-08
1.25557e-08
1.25489e-08
1.2539e-08
1.25275e-08
1.25153e-08
1.25038e-08
1.24939e-08
1.24865e-08
1.24822e-08
1.24811e-08
1.24805e-08
1.24798e-08
1.24791e-08
1.24783e-08
1.24772e-08
1.24758e-08
1.24741e-08
1.24721e-08
1.24702e-08
1.24693e-08
1.24688e-08
1.2468e-08
1.24672e-08
1.24663e-08
1.24653e-08
1.24642e-08
1.24631e-08
1.24619e-08
1.24608e-08
1.24596e-08
1.24584e-08
1.24573e-08
1.24561e-08
1.24551e-08
1.24541e-08
1.24533e-08
1.24525e-08
1.24519e-08
1.24513e-08
1.24509e-08
1.24505e-08
1.24503e-08
1.24501e-08
1.245e-08
1.245e-08
1.24501e-08
1.24502e-08
1.24503e-08
1.24504e-08
1.24506e-08
1.24508e-08
1.2451e-08
1.24511e-08
1.24513e-08
1.24516e-08
1.24522e-08
1.24529e-08
1.24535e-08
1.24539e-08
1.24545e-08
1.24555e-08
1.24569e-08
1.24589e-08
1.24618e-08
1.24658e-08
1.24711e-08
1.24778e-08
1.24861e-08
1.24959e-08
1.25073e-08
1.25201e-08
1.25344e-08
1.25499e-08
1.25664e-08
1.25838e-08
1.2602e-08
1.26208e-08
1.26401e-08
1.26599e-08
1.26801e-08
1.27008e-08
1.27219e-08
1.27437e-08
1.27661e-08
1.27892e-08
1.28128e-08
1.28367e-08
1.28606e-08
1.28841e-08
1.29066e-08
1.29276e-08
1.29465e-08
1.29626e-08
1.29757e-08
1.29853e-08
1.29913e-08
1.29938e-08
1.55939e-07
1.59227e-07
1.61356e-07
1.63117e-07
1.63985e-07
1.64369e-07
1.64452e-07
1.64536e-07
1.64553e-07
1.64588e-07
1.64569e-07
1.64568e-07
1.64546e-07
1.64537e-07
1.64488e-07
1.64301e-07
1.63953e-07
1.63396e-07
1.62532e-07
1.6173e-07
1.61225e-07
1.61099e-07
1.61494e-07
1.62179e-07
1.62904e-07
1.63544e-07
1.64001e-07
1.64306e-07
1.64475e-07
1.64631e-07
1.64767e-07
1.64884e-07
1.64947e-07
1.64967e-07
1.64933e-07
1.64886e-07
1.6479e-07
1.64686e-07
1.64568e-07
1.64463e-07
1.64407e-07
1.64377e-07
1.6436e-07
1.64346e-07
1.64337e-07
1.64325e-07
1.64303e-07
1.64272e-07
1.64232e-07
1.64195e-07
1.64169e-07
1.64157e-07
1.64162e-07
1.64178e-07
1.64199e-07
1.64219e-07
1.64235e-07
1.64245e-07
1.64247e-07
1.64245e-07
1.64239e-07
1.6423e-07
1.6422e-07
1.64208e-07
1.64197e-07
1.64186e-07
1.64177e-07
1.64168e-07
1.64162e-07
1.64158e-07
1.64158e-07
1.64161e-07
1.64165e-07
1.6417e-07
1.64175e-07
1.64179e-07
1.64181e-07
1.64181e-07
1.64174e-07
1.64163e-07
1.64151e-07
1.64137e-07
1.64121e-07
1.64104e-07
1.64087e-07
1.64068e-07
1.64049e-07
1.6403e-07
1.64011e-07
1.63992e-07
1.63972e-07
1.63953e-07
1.63936e-07
1.63919e-07
1.63904e-07
1.63891e-07
1.6388e-07
1.6387e-07
1.63861e-07
1.63855e-07
1.63849e-07
1.63846e-07
1.63843e-07
1.63842e-07
1.63842e-07
1.63843e-07
1.63844e-07
1.63846e-07
1.63848e-07
1.63851e-07
1.63854e-07
1.63856e-07
1.63859e-07
1.63861e-07
1.63862e-07
1.63862e-07
1.63863e-07
1.63863e-07
1.63863e-07
1.63864e-07
1.63865e-07
1.63866e-07
1.63869e-07
1.63873e-07
1.63878e-07
1.63885e-07
1.63893e-07
1.63902e-07
1.63913e-07
1.63926e-07
1.6394e-07
1.63955e-07
1.63972e-07
1.6399e-07
1.64009e-07
1.64029e-07
1.6405e-07
1.64072e-07
1.64095e-07
1.64118e-07
1.64143e-07
1.64168e-07
1.64195e-07
1.64223e-07
1.64251e-07
1.64281e-07
1.64311e-07
1.64341e-07
1.64371e-07
1.644e-07
1.64427e-07
1.64452e-07
1.64475e-07
1.64495e-07
1.64512e-07
1.64526e-07
2.10045e-07
2.10848e-07
2.1132e-07
2.11728e-07
2.11868e-07
2.1199e-07
2.11985e-07
2.12027e-07
2.12014e-07
2.12035e-07
2.12024e-07
2.12036e-07
2.12022e-07
2.12024e-07
2.12008e-07
2.11963e-07
2.11885e-07
2.11778e-07
2.11574e-07
2.11383e-07
2.11258e-07
2.11192e-07
2.11282e-07
2.11441e-07
2.11625e-07
2.11786e-07
2.11891e-07
2.11957e-07
2.11992e-07
2.12026e-07
2.12052e-07
2.1208e-07
2.12091e-07
2.121e-07
2.1209e-07
2.12082e-07
2.12056e-07
2.12031e-07
2.12003e-07
2.11981e-07
2.11968e-07
2.11961e-07
2.11955e-07
2.11951e-07
2.11949e-07
2.11946e-07
2.1194e-07
2.11932e-07
2.11923e-07
2.11914e-07
2.11906e-07
2.11901e-07
2.11901e-07
2.11905e-07
2.11909e-07
2.11914e-07
2.11918e-07
2.1192e-07
2.1192e-07
2.11918e-07
2.11916e-07
2.11913e-07
2.1191e-07
2.11907e-07
2.11904e-07
2.11901e-07
2.11898e-07
2.11895e-07
2.11893e-07
2.11891e-07
2.1189e-07
2.1189e-07
2.1189e-07
2.11891e-07
2.11892e-07
2.11893e-07
2.11893e-07
2.11893e-07
2.11892e-07
2.1189e-07
2.11887e-07
2.11884e-07
2.1188e-07
2.11876e-07
2.11872e-07
2.11867e-07
2.11863e-07
2.11858e-07
2.11853e-07
2.11848e-07
2.11844e-07
2.1184e-07
2.11836e-07
2.11833e-07
2.1183e-07
2.11827e-07
2.11825e-07
2.11824e-07
2.11823e-07
2.11823e-07
2.11822e-07
2.11823e-07
2.11824e-07
2.11825e-07
2.11826e-07
2.11827e-07
2.11829e-07
2.11831e-07
2.11832e-07
2.11834e-07
2.11836e-07
2.11837e-07
2.11838e-07
2.1184e-07
2.1184e-07
2.11841e-07
2.11842e-07
2.11843e-07
2.11843e-07
2.11844e-07
2.11845e-07
2.11845e-07
2.11846e-07
2.11847e-07
2.11849e-07
2.1185e-07
2.11852e-07
2.11855e-07
2.11857e-07
2.1186e-07
2.11863e-07
2.11867e-07
2.11871e-07
2.11875e-07
2.1188e-07
2.11885e-07
2.1189e-07
2.11894e-07
2.119e-07
2.11905e-07
2.11911e-07
2.11917e-07
2.11923e-07
2.11929e-07
2.11936e-07
2.11942e-07
2.11949e-07
2.11956e-07
2.11963e-07
2.1197e-07
2.11977e-07
2.11983e-07
2.11989e-07
2.11994e-07
2.11998e-07
2.12003e-07
2.16822e-07
2.16986e-07
2.17055e-07
2.17221e-07
2.17244e-07
2.17302e-07
2.17267e-07
2.17299e-07
2.17281e-07
2.17298e-07
2.17277e-07
2.17286e-07
2.17272e-07
2.17281e-07
2.17287e-07
2.17273e-07
2.17256e-07
2.17248e-07
2.17203e-07
2.17177e-07
2.17167e-07
2.1714e-07
2.17163e-07
2.17201e-07
2.17229e-07
2.17262e-07
2.17281e-07
2.17304e-07
2.17298e-07
2.17306e-07
2.17309e-07
2.17324e-07
2.17329e-07
2.17336e-07
2.17331e-07
2.17332e-07
2.17325e-07
2.17327e-07
2.17327e-07
2.17324e-07
2.17325e-07
2.17326e-07
2.17327e-07
2.17326e-07
2.17327e-07
2.17329e-07
2.1733e-07
2.1733e-07
2.1733e-07
2.17329e-07
2.17329e-07
2.17329e-07
2.1733e-07
2.17332e-07
2.17333e-07
2.17335e-07
2.17336e-07
2.17337e-07
2.17338e-07
2.17339e-07
2.1734e-07
2.1734e-07
2.1734e-07
2.17341e-07
2.17341e-07
2.17341e-07
2.17341e-07
2.17341e-07
2.17341e-07
2.17341e-07
2.17341e-07
2.17342e-07
2.17343e-07
2.17344e-07
2.17344e-07
2.17345e-07
2.17345e-07
2.17346e-07
2.17345e-07
2.17344e-07
2.17343e-07
2.17343e-07
2.17342e-07
2.17342e-07
2.17341e-07
2.1734e-07
2.1734e-07
2.17339e-07
2.17339e-07
2.17338e-07
2.17336e-07
2.17335e-07
2.17334e-07
2.17333e-07
2.17332e-07
2.17331e-07
2.1733e-07
2.1733e-07
2.17329e-07
2.17328e-07
2.17328e-07
2.17327e-07
2.17327e-07
2.17327e-07
2.17326e-07
2.17326e-07
2.17326e-07
2.17326e-07
2.17326e-07
2.17325e-07
2.17325e-07
2.17325e-07
2.17325e-07
2.17326e-07
2.17325e-07
2.17325e-07
2.17325e-07
2.17324e-07
2.17324e-07
2.17324e-07
2.17323e-07
2.17323e-07
2.17323e-07
2.17323e-07
2.17323e-07
2.17322e-07
2.17322e-07
2.17322e-07
2.17321e-07
2.17321e-07
2.17321e-07
2.17321e-07
2.1732e-07
2.17319e-07
2.17319e-07
2.17318e-07
2.17317e-07
2.17317e-07
2.17316e-07
2.17316e-07
2.17315e-07
2.17315e-07
2.17314e-07
2.17314e-07
2.17313e-07
2.17313e-07
2.17312e-07
2.17311e-07
2.17311e-07
2.1731e-07
2.17309e-07
2.17308e-07
2.17307e-07
2.17306e-07
2.17305e-07
2.17304e-07
2.17975e-07
2.17917e-07
2.17852e-07
2.17852e-07
2.17793e-07
2.17831e-07
2.17808e-07
2.17832e-07
2.17817e-07
2.17831e-07
2.17825e-07
2.17839e-07
2.1783e-07
2.17837e-07
2.1783e-07
2.17826e-07
2.17821e-07
2.17834e-07
2.17818e-07
2.17828e-07
2.17846e-07
2.17824e-07
2.17827e-07
2.17817e-07
2.17823e-07
2.17829e-07
2.17827e-07
2.17827e-07
2.17826e-07
2.17829e-07
2.17825e-07
2.17831e-07
2.17829e-07
2.17833e-07
2.17829e-07
2.17829e-07
2.17824e-07
2.1782e-07
2.17816e-07
2.17815e-07
2.17815e-07
2.17816e-07
2.17814e-07
2.17813e-07
2.17812e-07
2.17812e-07
2.1781e-07
2.1781e-07
2.17809e-07
2.17809e-07
2.17808e-07
2.17807e-07
2.17806e-07
2.17806e-07
2.17806e-07
2.17805e-07
2.17805e-07
2.17805e-07
2.17804e-07
2.17804e-07
2.17803e-07
2.17803e-07
2.17802e-07
2.17802e-07
2.17801e-07
2.17801e-07
2.17801e-07
2.17801e-07
2.178e-07
2.178e-07
2.17799e-07
2.17799e-07
2.17799e-07
2.17798e-07
2.17798e-07
2.17798e-07
2.17797e-07
2.17797e-07
2.17798e-07
2.17798e-07
2.17799e-07
2.17799e-07
2.17799e-07
2.17799e-07
2.17799e-07
2.17799e-07
2.17799e-07
2.17799e-07
2.17799e-07
2.17799e-07
2.17799e-07
2.178e-07
2.178e-07
2.178e-07
2.17801e-07
2.17801e-07
2.17801e-07
2.17802e-07
2.17802e-07
2.17803e-07
2.17803e-07
2.17804e-07
2.17804e-07
2.17804e-07
2.17805e-07
2.17805e-07
2.17806e-07
2.17806e-07
2.17806e-07
2.17806e-07
2.17807e-07
2.17807e-07
2.17807e-07
2.17806e-07
2.17807e-07
2.17807e-07
2.17807e-07
2.17807e-07
2.17807e-07
2.17807e-07
2.17808e-07
2.17808e-07
2.17808e-07
2.17808e-07
2.17808e-07
2.17808e-07
2.17808e-07
2.17808e-07
2.17809e-07
2.17809e-07
2.17809e-07
2.17809e-07
2.1781e-07
2.17811e-07
2.17812e-07
2.17812e-07
2.17813e-07
2.17814e-07
2.17814e-07
2.17815e-07
2.17816e-07
2.17816e-07
2.17817e-07
2.17818e-07
2.17819e-07
2.1782e-07
2.17821e-07
2.17822e-07
2.17823e-07
2.17824e-07
2.17825e-07
2.17826e-07
2.17827e-07
2.17828e-07
2.17829e-07
2.1783e-07
2.17566e-07
2.17572e-07
2.17554e-07
2.17672e-07
2.17674e-07
2.17723e-07
2.17686e-07
2.17719e-07
2.17701e-07
2.17717e-07
2.17693e-07
2.17701e-07
2.17687e-07
2.17699e-07
2.17711e-07
2.17701e-07
2.17694e-07
2.17701e-07
2.17687e-07
2.17695e-07
2.17707e-07
2.17689e-07
2.177e-07
2.17712e-07
2.1771e-07
2.1772e-07
2.17723e-07
2.17741e-07
2.17728e-07
2.17733e-07
2.17732e-07
2.17745e-07
2.17749e-07
2.17756e-07
2.17755e-07
2.17757e-07
2.17751e-07
2.17754e-07
2.17757e-07
2.17756e-07
2.17759e-07
2.17761e-07
2.17763e-07
2.17762e-07
2.17763e-07
2.17766e-07
2.17767e-07
2.17769e-07
2.1777e-07
2.1777e-07
2.17771e-07
2.17772e-07
2.17773e-07
2.17774e-07
2.17775e-07
2.17776e-07
2.17777e-07
2.17778e-07
2.17779e-07
2.1778e-07
2.1778e-07
2.17781e-07
2.17782e-07
2.17783e-07
2.17783e-07
2.17783e-07
2.17784e-07
2.17784e-07
2.17785e-07
2.17786e-07
2.17786e-07
2.17787e-07
2.17787e-07
2.17788e-07
2.17789e-07
2.17789e-07
2.17789e-07
2.1779e-07
2.17789e-07
2.17789e-07
2.17788e-07
2.17788e-07
2.17789e-07
2.17789e-07
2.17789e-07
2.17789e-07
2.1779e-07
2.1779e-07
2.1779e-07
2.1779e-07
2.17789e-07
2.17789e-07
2.17788e-07
2.17787e-07
2.17787e-07
2.17786e-07
2.17786e-07
2.17785e-07
2.17785e-07
2.17784e-07
2.17784e-07
2.17783e-07
2.17783e-07
2.17782e-07
2.17781e-07
2.17781e-07
2.1778e-07
2.1778e-07
2.17779e-07
2.17779e-07
2.17778e-07
2.17778e-07
2.17778e-07
2.17778e-07
2.17777e-07
2.17777e-07
2.17776e-07
2.17776e-07
2.17775e-07
2.17774e-07
2.17774e-07
2.17773e-07
2.17773e-07
2.17772e-07
2.17772e-07
2.17771e-07
2.17771e-07
2.1777e-07
2.17769e-07
2.17769e-07
2.17768e-07
2.17768e-07
2.17766e-07
2.17764e-07
2.17763e-07
2.17761e-07
2.1776e-07
2.17759e-07
2.17758e-07
2.17756e-07
2.17755e-07
2.17754e-07
2.17752e-07
2.17751e-07
2.1775e-07
2.17749e-07
2.17747e-07
2.17746e-07
2.17744e-07
2.17742e-07
2.17741e-07
2.1774e-07
2.17738e-07
2.17736e-07
2.17734e-07
2.17733e-07
2.18006e-07
2.17953e-07
2.17889e-07
2.17884e-07
2.17822e-07
2.1786e-07
2.17836e-07
2.17859e-07
2.17843e-07
2.17857e-07
2.17854e-07
2.17869e-07
2.1786e-07
2.17867e-07
2.17857e-07
2.17855e-07
2.17852e-07
2.17867e-07
2.17849e-07
2.17859e-07
2.17878e-07
2.17857e-07
2.17858e-07
2.17845e-07
2.17852e-07
2.17857e-07
2.17854e-07
2.17851e-07
2.17852e-07
2.17854e-07
2.17849e-07
2.17855e-07
2.17852e-07
2.17855e-07
2.17849e-07
2.1785e-07
2.17847e-07
2.17845e-07
2.17841e-07
2.17841e-07
2.17841e-07
2.17842e-07
2.1784e-07
2.17839e-07
2.17838e-07
2.17837e-07
2.17836e-07
2.17836e-07
2.17835e-07
2.17835e-07
2.17834e-07
2.17833e-07
2.17832e-07
2.17832e-07
2.17831e-07
2.17831e-07
2.17831e-07
2.1783e-07
2.1783e-07
2.17829e-07
2.17829e-07
2.17828e-07
2.17828e-07
2.17827e-07
2.17827e-07
2.17827e-07
2.17827e-07
2.17826e-07
2.17826e-07
2.17825e-07
2.17825e-07
2.17824e-07
2.17824e-07
2.17824e-07
2.17824e-07
2.17823e-07
2.17823e-07
2.17823e-07
2.17824e-07
2.17824e-07
2.17825e-07
2.17825e-07
2.17824e-07
2.17824e-07
2.17824e-07
2.17824e-07
2.17824e-07
2.17824e-07
2.17824e-07
2.17824e-07
2.17825e-07
2.17825e-07
2.17825e-07
2.17826e-07
2.17826e-07
2.17826e-07
2.17827e-07
2.17827e-07
2.17828e-07
2.17828e-07
2.17829e-07
2.17829e-07
2.1783e-07
2.1783e-07
2.17831e-07
2.17831e-07
2.17831e-07
2.17832e-07
2.17832e-07
2.17832e-07
2.17833e-07
2.17833e-07
2.17833e-07
2.17832e-07
2.17833e-07
2.17833e-07
2.17833e-07
2.17833e-07
2.17834e-07
2.17834e-07
2.17834e-07
2.17834e-07
2.17834e-07
2.17834e-07
2.17834e-07
2.17834e-07
2.17834e-07
2.17835e-07
2.17835e-07
2.17835e-07
2.17835e-07
2.17835e-07
2.17836e-07
2.17837e-07
2.17838e-07
2.17839e-07
2.1784e-07
2.1784e-07
2.17841e-07
2.17841e-07
2.17842e-07
2.17843e-07
2.17843e-07
2.17844e-07
2.17845e-07
2.17845e-07
2.17846e-07
2.17847e-07
2.17848e-07
2.17849e-07
2.1785e-07
2.1785e-07
2.17851e-07
2.17852e-07
2.17853e-07
2.17854e-07
2.17578e-07
2.17564e-07
2.17537e-07
2.1766e-07
2.17666e-07
2.17715e-07
2.1768e-07
2.17715e-07
2.17698e-07
2.17714e-07
2.17685e-07
2.17692e-07
2.17678e-07
2.17692e-07
2.17709e-07
2.17697e-07
2.17689e-07
2.17697e-07
2.17685e-07
2.17696e-07
2.1771e-07
2.17692e-07
2.17702e-07
2.17714e-07
2.17709e-07
2.17718e-07
2.17722e-07
2.17742e-07
2.17728e-07
2.17733e-07
2.17732e-07
2.17746e-07
2.17751e-07
2.17759e-07
2.1776e-07
2.17762e-07
2.17754e-07
2.17755e-07
2.17757e-07
2.17756e-07
2.17759e-07
2.17761e-07
2.17763e-07
2.17762e-07
2.17763e-07
2.17766e-07
2.17767e-07
2.17769e-07
2.1777e-07
2.17771e-07
2.17771e-07
2.17773e-07
2.17774e-07
2.17775e-07
2.17776e-07
2.17777e-07
2.17778e-07
2.17779e-07
2.1778e-07
2.17781e-07
2.17782e-07
2.17782e-07
2.17783e-07
2.17784e-07
2.17785e-07
2.17785e-07
2.17785e-07
2.17786e-07
2.17787e-07
2.17787e-07
2.17788e-07
2.17789e-07
2.17789e-07
2.1779e-07
2.17791e-07
2.17791e-07
2.17791e-07
2.17792e-07
2.17791e-07
2.17791e-07
2.17791e-07
2.17791e-07
2.17791e-07
2.17792e-07
2.17792e-07
2.17793e-07
2.17793e-07
2.17793e-07
2.17794e-07
2.17794e-07
2.17793e-07
2.17792e-07
2.17791e-07
2.17791e-07
2.1779e-07
2.1779e-07
2.1779e-07
2.17789e-07
2.17789e-07
2.17788e-07
2.17788e-07
2.17787e-07
2.17787e-07
2.17786e-07
2.17785e-07
2.17785e-07
2.17784e-07
2.17784e-07
2.17783e-07
2.17783e-07
2.17782e-07
2.17782e-07
2.17781e-07
2.17782e-07
2.17781e-07
2.1778e-07
2.1778e-07
2.17779e-07
2.17778e-07
2.17777e-07
2.17777e-07
2.17776e-07
2.17775e-07
2.17775e-07
2.17775e-07
2.17774e-07
2.17774e-07
2.17773e-07
2.17772e-07
2.17771e-07
2.17771e-07
2.1777e-07
2.17769e-07
2.17766e-07
2.17765e-07
2.17763e-07
2.17761e-07
2.1776e-07
2.17759e-07
2.17758e-07
2.17756e-07
2.17755e-07
2.17754e-07
2.17753e-07
2.17751e-07
2.1775e-07
2.17749e-07
2.17747e-07
2.17746e-07
2.17744e-07
2.17743e-07
2.17741e-07
2.1774e-07
2.17738e-07
2.17736e-07
2.17735e-07
2.17989e-07
2.17949e-07
2.17893e-07
2.17886e-07
2.17824e-07
2.17863e-07
2.17838e-07
2.1786e-07
2.17844e-07
2.17858e-07
2.17858e-07
2.17874e-07
2.17865e-07
2.17871e-07
2.17858e-07
2.1786e-07
2.17857e-07
2.17872e-07
2.17852e-07
2.17859e-07
2.17875e-07
2.17852e-07
2.17854e-07
2.17842e-07
2.1785e-07
2.17856e-07
2.17854e-07
2.17848e-07
2.17851e-07
2.17853e-07
2.17849e-07
2.17855e-07
2.17852e-07
2.17855e-07
2.17846e-07
2.17847e-07
2.17845e-07
2.17845e-07
2.17843e-07
2.17842e-07
2.17842e-07
2.17842e-07
2.17841e-07
2.17839e-07
2.17839e-07
2.17838e-07
2.17837e-07
2.17836e-07
2.17836e-07
2.17835e-07
2.17834e-07
2.17833e-07
2.17832e-07
2.17832e-07
2.17832e-07
2.17831e-07
2.17831e-07
2.1783e-07
2.1783e-07
2.17829e-07
2.17829e-07
2.17829e-07
2.17828e-07
2.17827e-07
2.17827e-07
2.17827e-07
2.17827e-07
2.17826e-07
2.17826e-07
2.17825e-07
2.17824e-07
2.17824e-07
2.17824e-07
2.17823e-07
2.17823e-07
2.17823e-07
2.17822e-07
2.17822e-07
2.17823e-07
2.17823e-07
2.17823e-07
2.17823e-07
2.17823e-07
2.17823e-07
2.17822e-07
2.17822e-07
2.17822e-07
2.17822e-07
2.17822e-07
2.17822e-07
2.17822e-07
2.17823e-07
2.17823e-07
2.17824e-07
2.17824e-07
2.17824e-07
2.17825e-07
2.17825e-07
2.17826e-07
2.17826e-07
2.17826e-07
2.17827e-07
2.17827e-07
2.17828e-07
2.17828e-07
2.17828e-07
2.17829e-07
2.17829e-07
2.1783e-07
2.1783e-07
2.1783e-07
2.17831e-07
2.17831e-07
2.1783e-07
2.17831e-07
2.17831e-07
2.17831e-07
2.17831e-07
2.17832e-07
2.17832e-07
2.17833e-07
2.17833e-07
2.17833e-07
2.17833e-07
2.17832e-07
2.17833e-07
2.17833e-07
2.17833e-07
2.17834e-07
2.17834e-07
2.17834e-07
2.17834e-07
2.17835e-07
2.17837e-07
2.17838e-07
2.17839e-07
2.17839e-07
2.1784e-07
2.17841e-07
2.17841e-07
2.17842e-07
2.17843e-07
2.17843e-07
2.17844e-07
2.17844e-07
2.17845e-07
2.17846e-07
2.17847e-07
2.17847e-07
2.17848e-07
2.17849e-07
2.1785e-07
2.17851e-07
2.17851e-07
2.17852e-07
2.17853e-07
2.17612e-07
2.17571e-07
2.1753e-07
2.17654e-07
2.1766e-07
2.17709e-07
2.17675e-07
2.17713e-07
2.17696e-07
2.17712e-07
2.17678e-07
2.17684e-07
2.1767e-07
2.17685e-07
2.17706e-07
2.17691e-07
2.17684e-07
2.17692e-07
2.17683e-07
2.17697e-07
2.17714e-07
2.17697e-07
2.17704e-07
2.17715e-07
2.1771e-07
2.17718e-07
2.17722e-07
2.17745e-07
2.17729e-07
2.17733e-07
2.17733e-07
2.17747e-07
2.17751e-07
2.1776e-07
2.17763e-07
2.17765e-07
2.17756e-07
2.17755e-07
2.17756e-07
2.17755e-07
2.17759e-07
2.1776e-07
2.17762e-07
2.17761e-07
2.17762e-07
2.17765e-07
2.17767e-07
2.17768e-07
2.17769e-07
2.1777e-07
2.17771e-07
2.17772e-07
2.17774e-07
2.17775e-07
2.17776e-07
2.17777e-07
2.17778e-07
2.17779e-07
2.1778e-07
2.17781e-07
2.17781e-07
2.17782e-07
2.17783e-07
2.17784e-07
2.17785e-07
2.17785e-07
2.17786e-07
2.17786e-07
2.17787e-07
2.17788e-07
2.17789e-07
2.1779e-07
2.1779e-07
2.1779e-07
2.17791e-07
2.17792e-07
2.17792e-07
2.17793e-07
2.17792e-07
2.17792e-07
2.17792e-07
2.17793e-07
2.17793e-07
2.17794e-07
2.17794e-07
2.17795e-07
2.17795e-07
2.17796e-07
2.17797e-07
2.17797e-07
2.17795e-07
2.17795e-07
2.17794e-07
2.17793e-07
2.17793e-07
2.17793e-07
2.17792e-07
2.17792e-07
2.17792e-07
2.17792e-07
2.17791e-07
2.17791e-07
2.1779e-07
2.1779e-07
2.17789e-07
2.17789e-07
2.17788e-07
2.17787e-07
2.17787e-07
2.17786e-07
2.17786e-07
2.17785e-07
2.17785e-07
2.17785e-07
2.17784e-07
2.17784e-07
2.17783e-07
2.17782e-07
2.17781e-07
2.17781e-07
2.1778e-07
2.17779e-07
2.17779e-07
2.17778e-07
2.17778e-07
2.17777e-07
2.17777e-07
2.17776e-07
2.17775e-07
2.17775e-07
2.17774e-07
2.17774e-07
2.17772e-07
2.17769e-07
2.17767e-07
2.17765e-07
2.17763e-07
2.17762e-07
2.17761e-07
2.17759e-07
2.17758e-07
2.17756e-07
2.17755e-07
2.17754e-07
2.17753e-07
2.17752e-07
2.1775e-07
2.17749e-07
2.17747e-07
2.17746e-07
2.17745e-07
2.17743e-07
2.17742e-07
2.1774e-07
2.17738e-07
2.17737e-07
2.17971e-07
2.17942e-07
2.17894e-07
2.17886e-07
2.17825e-07
2.17864e-07
2.17839e-07
2.1786e-07
2.17844e-07
2.17859e-07
2.17862e-07
2.17878e-07
2.1787e-07
2.17875e-07
2.1786e-07
2.17865e-07
2.17862e-07
2.17876e-07
2.17855e-07
2.17857e-07
2.1787e-07
2.17845e-07
2.17848e-07
2.17836e-07
2.17846e-07
2.17853e-07
2.1785e-07
2.17844e-07
2.17849e-07
2.17852e-07
2.17847e-07
2.17854e-07
2.17852e-07
2.17854e-07
2.17845e-07
2.17845e-07
2.17844e-07
2.17845e-07
2.17844e-07
2.17842e-07
2.17842e-07
2.17843e-07
2.17841e-07
2.1784e-07
2.17839e-07
2.17839e-07
2.17837e-07
2.17837e-07
2.17836e-07
2.17836e-07
2.17834e-07
2.17834e-07
2.17832e-07
2.17832e-07
2.17831e-07
2.17831e-07
2.1783e-07
2.1783e-07
2.1783e-07
2.17829e-07
2.17829e-07
2.17829e-07
2.17828e-07
2.17827e-07
2.17827e-07
2.17827e-07
2.17826e-07
2.17826e-07
2.17825e-07
2.17824e-07
2.17824e-07
2.17823e-07
2.17823e-07
2.17823e-07
2.17823e-07
2.17822e-07
2.17822e-07
2.17821e-07
2.17822e-07
2.17822e-07
2.17822e-07
2.17822e-07
2.17821e-07
2.17821e-07
2.1782e-07
2.1782e-07
2.1782e-07
2.1782e-07
2.17819e-07
2.17819e-07
2.1782e-07
2.17821e-07
2.17821e-07
2.17822e-07
2.17822e-07
2.17822e-07
2.17823e-07
2.17823e-07
2.17823e-07
2.17823e-07
2.17824e-07
2.17824e-07
2.17824e-07
2.17824e-07
2.17825e-07
2.17825e-07
2.17826e-07
2.17826e-07
2.17827e-07
2.17827e-07
2.17827e-07
2.17828e-07
2.17828e-07
2.17827e-07
2.17828e-07
2.17828e-07
2.17828e-07
2.17829e-07
2.17829e-07
2.1783e-07
2.1783e-07
2.1783e-07
2.17831e-07
2.17831e-07
2.1783e-07
2.17831e-07
2.17831e-07
2.17831e-07
2.17832e-07
2.17832e-07
2.17832e-07
2.17832e-07
2.17833e-07
2.17835e-07
2.17836e-07
2.17838e-07
2.17838e-07
2.17839e-07
2.1784e-07
2.1784e-07
2.17841e-07
2.17842e-07
2.17842e-07
2.17843e-07
2.17844e-07
2.17844e-07
2.17845e-07
2.17846e-07
2.17847e-07
2.17848e-07
2.17848e-07
2.17849e-07
2.1785e-07
2.17851e-07
2.17851e-07
2.17852e-07
2.17662e-07
2.17587e-07
2.17529e-07
2.17651e-07
2.17656e-07
2.17705e-07
2.17672e-07
2.17711e-07
2.17694e-07
2.1771e-07
2.17671e-07
2.17676e-07
2.17662e-07
2.17678e-07
2.17702e-07
2.17685e-07
2.17678e-07
2.17688e-07
2.17681e-07
2.17699e-07
2.17719e-07
2.17703e-07
2.17708e-07
2.1772e-07
2.17713e-07
2.17721e-07
2.17725e-07
2.17749e-07
2.17731e-07
2.17735e-07
2.17734e-07
2.17747e-07
2.17751e-07
2.1776e-07
2.17764e-07
2.17767e-07
2.17757e-07
2.17756e-07
2.17755e-07
2.17755e-07
2.17759e-07
2.1776e-07
2.17762e-07
2.17761e-07
2.17762e-07
2.17765e-07
2.17766e-07
2.17768e-07
2.17769e-07
2.1777e-07
2.17771e-07
2.17772e-07
2.17774e-07
2.17775e-07
2.17776e-07
2.17777e-07
2.17778e-07
2.17779e-07
2.1778e-07
2.17781e-07
2.17782e-07
2.17782e-07