/*--------------------------------*- C++ -*----------------------------------*\
| =========                 |                                                 |
| \\      /  F ield         | OpenFOAM: The Open Source CFD Toolbox           |
|  \\    /   O peration     | Version:  v1912                                 |
|   \\  /    A nd           | Website:  www.openfoam.com                      |
|    \\/     M anipulation  |                                                 |
\*---------------------------------------------------------------------------*/
FoamFile
{
    version     2.0;
    format      ascii;
    class       volScalarField;
    location    "20";
    object      p;
}
// * * * * * * * * * * * * * * * * * * * * * * * * * * * * * * * * * * * * * //

dimensions      [1 -1 -2 0 0 0 0];


internalField   nonuniform List<scalar> 
14268
(
47413.9
46929
46444
45959.1
45474.1
44989.1
44504
44018.8
47312.3
46827.4
46342.4
45857.5
45372.5
44887.5
44402.4
43917.2
47210.7
46725.8
46240.8
45755.9
45270.9
44785.9
44300.8
43815.6
47109.1
46624.2
46139.2
45654.3
45169.3
44684.2
44199.2
43714
47007.5
46522.6
46037.6
45552.7
45067.7
44582.6
44097.5
43612.4
46905.9
46421
45936
45451.1
44966.1
44481
43995.9
43510.8
46804.3
46319.3
45834.4
45349.5
44864.5
44379.4
43894.3
43409.2
46702.7
46217.7
45732.8
45247.9
44762.9
44277.8
43792.7
43307.6
46601.1
46116.1
45631.2
45146.3
44661.3
44176.2
43691.1
43206
46499.5
46014.5
45529.6
45044.7
44559.7
44074.6
43589.5
43104.4
46397.9
45912.9
45428
44943.1
44458.1
43973
43487.9
43002.8
46296.3
45811.3
45326.4
44841.5
44356.5
43871.4
43386.3
42901.2
46194.7
45709.7
45224.8
44739.9
44254.9
43769.8
43284.7
42799.6
46093.1
45608.1
45123.2
44638.3
44153.3
43668.2
43183.1
42698
45724.2
45269
44813.8
44358.7
43903.7
43448.9
42994.4
42540.5
45080.8
44684.1
44287.5
43891
43494.6
43098.3
42702.2
42306.8
44437.4
44099.3
43761.3
43423.3
43085.4
42747.6
42410.1
42073
43793.9
43514.4
43235
42955.6
42676.3
42397
42117.9
41839.2
43150.5
42929.6
42708.7
42487.9
42267.1
42046.4
41825.8
41605.5
42507
42344.7
42182.5
42020.2
41858
41695.8
41533.6
41371.7
41863.6
41759.9
41656.2
41552.5
41448.8
41345.1
41241.5
41138
40151.5
40077.7
40003.9
39930.1
39856.3
39782.3
39708.4
39634.4
37371.9
37299.4
37227
37154.5
37082
37009.4
36936.8
36864.1
34592.2
34521.2
34450.1
34379
34307.8
34236.5
34165.2
34093.9
31812.6
31742.9
31673.2
31603.4
31533.6
31463.6
31393.6
31323.6
29033
28964.6
28896.2
28827.8
28759.3
28690.7
28622.1
28553.4
26253.3
26186.3
26119.4
26052.3
25985.1
25917.9
25850.5
25783.1
23473.7
23408
23342.4
23276.7
23210.9
23145
23078.9
23012.9
20694.1
20629.8
20565.6
20501.2
20436.8
20372.1
20307.3
20242.6
17914.4
17851.5
17788.6
17725.7
17662.5
17599.2
17535.8
17472.3
15134.7
15073.3
15011.8
14950.2
14888.4
14826.4
14764.2
14702
12355
12294.9
12234.8
12174.6
12114.2
12053.5
11992.6
11931.7
9575.37
9516.69
9457.99
9399.2
9340.14
9280.71
9221.01
9161.37
6795.63
6738.38
6681.08
6623.69
6565.98
6507.82
6449.4
6390.95
4015.98
3960.11
3904.24
3848.29
3791.97
3735.1
3677.85
3620.74
1438.85
1402.3
1366.37
1330.91
1295.54
1260.17
1224.7
1186.14
124.263
115.18
106.753
98.8391
91.2598
83.9054
76.837
66.9473
-5.24208
-5.32536
-5.41484
-5.49141
-5.55197
-5.59914
-5.63848
-5.67143
-9.31452
-9.34917
-9.40698
-9.46832
-9.51896
-9.58163
-9.59541
-9.57302
-12.6351
-12.6886
-12.7496
-12.8092
-12.8605
-12.8977
-12.9332
-12.96
-15.9603
-16.0041
-16.0644
-16.1251
-16.1779
-16.2248
-16.26
-16.2765
-19.2134
-19.2653
-19.3271
-19.3892
-19.4461
-19.4911
-19.5312
-19.5728
-22.4581
-22.5121
-22.5763
-22.6375
-22.6921
-22.7359
-22.7784
-22.8069
-25.7118
-25.7654
-25.8295
-25.8929
-25.9505
-25.9995
-26.0413
-26.0863
-28.9579
-29.0113
-29.0728
-29.1312
-29.1846
-29.227
-29.2697
-29.3047
-32.2244
-32.2748
-32.334
-32.392
-32.4443
-32.4905
-32.5299
-32.5729
-35.4926
-35.5397
-35.5933
-35.6443
-35.6918
-35.7312
-35.7708
-35.8066
-38.785
-38.8275
-38.8775
-38.9259
-38.9703
-39.0109
-39.0465
-39.0843
-42.09
-42.1276
-42.1711
-42.212
-42.2526
-42.2877
-42.3235
-42.3576
-45.4215
-45.4562
-45.4964
-45.5357
-45.5738
-45.609
-45.6419
-45.6763
-48.7526
-48.7851
-48.8219
-48.8578
-48.8937
-48.9265
-48.9601
-48.9935
-52.0867
-52.1181
-52.1533
-52.188
-52.222
-52.2541
-52.2846
-52.3159
-55.4183
-55.4478
-55.4804
-55.5128
-55.5452
-55.5759
-55.607
-55.6379
-58.751
-58.7793
-58.8102
-58.8411
-58.8716
-58.9009
-58.9294
-58.958
-62.0827
-62.1096
-62.1385
-62.1677
-62.1968
-62.225
-62.2531
-62.2815
-65.4145
-65.4401
-65.4673
-65.4948
-65.5222
-65.5487
-65.5748
-65.6006
-68.7462
-68.7705
-68.7962
-68.8222
-68.8481
-68.8736
-68.8991
-68.9247
-72.0777
-72.1007
-72.1248
-72.1491
-72.1733
-72.197
-72.2204
-72.2434
-75.4093
-75.4311
-75.4538
-75.4767
-75.4996
-75.5223
-75.545
-75.5678
-78.7406
-78.7611
-78.7822
-78.8035
-78.8247
-78.8455
-78.8661
-78.8863
-82.0721
-82.0914
-82.1112
-82.1312
-82.1511
-82.171
-82.1908
-82.2107
-85.4034
-85.4214
-85.4396
-85.458
-85.4762
-85.4942
-85.5119
-85.5294
-88.7349
-88.7517
-88.7686
-88.7857
-88.8027
-88.8197
-88.8366
-88.8537
-92.0662
-92.0816
-92.0971
-92.1126
-92.1279
-92.143
-92.1579
-92.1725
-95.3976
-95.4119
-95.4261
-95.4403
-95.4544
-95.4684
-95.4825
-95.4965
-98.729
-98.7419
-98.7546
-98.7672
-98.7797
-98.7919
-98.804
-98.8157
-102.061
-102.072
-102.084
-102.095
-102.106
-102.117
-102.128
-102.139
-105.392
-105.402
-105.412
-105.422
-105.432
-105.441
-105.45
-105.459
-108.724
-108.732
-108.741
-108.75
-108.758
-108.766
-108.774
-108.782
-112.055
-112.063
-112.07
-112.077
-112.084
-112.09
-112.096
-112.102
-115.387
-115.393
-115.399
-115.404
-115.41
-115.415
-115.42
-115.425
-118.718
-118.723
-118.728
-118.732
-118.736
-118.739
-118.743
-118.746
-122.05
-122.054
-122.057
-122.059
-122.062
-122.064
-122.066
-122.068
-125.382
-125.384
-125.386
-125.387
-125.388
-125.388
-125.389
-125.389
-128.714
-128.714
-128.714
-128.714
-128.714
-128.713
-128.712
-128.712
-132.046
-132.045
-132.044
-132.042
-132.04
-132.038
-132.035
-132.033
-135.378
-135.375
-135.373
-135.369
-135.366
-135.362
-135.359
-135.355
-145.217
-145.214
-145.211
-145.207
-145.203
-145.199
-145.194
-145.188
-161.564
-161.562
-161.559
-161.556
-161.553
-161.55
-161.548
-161.545
-177.912
-177.91
-177.908
-177.905
-177.903
-177.899
-177.896
-177.892
-194.261
-194.259
-194.258
-194.256
-194.254
-194.252
-194.25
-194.248
-210.611
-210.61
-210.608
-210.607
-210.605
-210.602
-210.6
-210.597
-226.961
-226.96
-226.959
-226.958
-226.956
-226.955
-226.953
-226.952
-243.312
-243.311
-243.31
-243.309
-243.308
-243.307
-243.305
-243.304
-259.664
-259.663
-259.662
-259.661
-259.66
-259.659
-259.658
-259.657
-276.015
-276.015
-276.014
-276.014
-276.013
-276.012
-276.011
-276.011
-292.367
-292.367
-292.366
-292.366
-292.365
-292.365
-292.365
-292.364
43776.4
43776.8
43777.2
43777.6
43778
43778.5
43778.8
43779
43779.2
43779.3
43779.5
43779.8
43780.2
43780.6
43781
43781.2
43781.9
43781.5
43782.1
43781.1
43781
43779.3
43778.1
43776.3
43774.4
43773.3
43774.1
43776.5
43777.7
43777
43774.3
43773.9
43777.2
43784.6
43793
43798.5
43799.4
43795.1
43790.4
43787.3
43787
43789.6
43793.8
43798
43801.8
43805.5
43809.2
43812.7
43816.2
43818.3
43818.9
43818
43815.9
43813.1
43810.1
43807.3
43805.3
43804.2
43804.3
43805.3
43807.3
43810
43813.2
43816.6
43820.2
43823.5
43826.4
43829
43831
43832.6
43833.8
43834.6
43835.2
43835.6
43836
43836.5
43837.2
43838.1
43839.4
43841
43843
43845.3
43847.9
43850.9
43854
43857.4
43860.8
43864.4
43867.9
43871.4
43874.8
43878
43880.9
43883.7
43886.1
43888.2
43890
43891.5
43892.6
43893.4
43893.9
43894.1
43894
43893.7
43893.2
43892.5
43891.7
43890.8
43889.8
43888.8
43887.8
43886.9
43886
43885.1
43884.3
43883.5
43882.7
43882
43881.2
43880.3
43879.2
43877.9
43876.4
43874.5
43872.2
43869.5
43866.3
43862.5
43858.3
43853.4
43848.1
43842.2
43835.9
43829
43821.7
43814
43806
43797.5
43788.6
43779.4
43769.8
43759.9
43749.6
43739
43728.1
43717
43705.8
43694.6
43683.6
43672.8
43662.5
43652.8
43643.8
43635.7
43628.5
43622.2
43674.8
43675.2
43675.6
43676
43676.4
43676.8
43677.2
43677.4
43677.6
43677.7
43677.9
43678.2
43678.5
43679
43679.4
43679.6
43680.3
43679.9
43680.5
43679.5
43679.4
43677.7
43676.5
43674.7
43672.8
43671.7
43672.5
43674.9
43676.1
43675.4
43672.7
43672.3
43675.6
43683
43691.4
43696.9
43697.8
43693.5
43688.8
43685.7
43685.4
43688
43692.2
43696.4
43700.2
43703.9
43707.6
43711.1
43714.6
43716.7
43717.3
43716.4
43714.3
43711.5
43708.5
43705.7
43703.7
43702.6
43702.7
43703.7
43705.7
43708.4
43711.6
43715
43718.5
43721.9
43724.8
43727.4
43729.4
43731
43732.2
43733
43733.6
43734
43734.4
43734.9
43735.6
43736.5
43737.8
43739.4
43741.4
43743.7
43746.3
43749.3
43752.4
43755.8
43759.2
43762.8
43766.3
43769.8
43773.2
43776.4
43779.3
43782.1
43784.5
43786.6
43788.4
43789.9
43791
43791.8
43792.3
43792.5
43792.4
43792.1
43791.6
43790.9
43790.1
43789.2
43788.2
43787.2
43786.2
43785.3
43784.3
43783.5
43782.7
43781.9
43781.1
43780.4
43779.6
43778.7
43777.6
43776.3
43774.8
43772.9
43770.6
43767.9
43764.7
43760.9
43756.7
43751.8
43746.5
43740.6
43734.3
43727.4
43720.1
43712.4
43704.3
43695.9
43687
43677.8
43668.2
43658.3
43648
43637.4
43626.5
43615.4
43604.2
43593
43582
43571.2
43560.9
43551.2
43542.2
43534.1
43526.9
43520.5
43573.2
43573.6
43573.9
43574.4
43574.8
43575.2
43575.6
43575.8
43576
43576.1
43576.3
43576.6
43576.9
43577.4
43577.8
43578
43578.7
43578.3
43578.9
43577.9
43577.8
43576
43574.9
43573.1
43571.2
43570.1
43570.9
43573.3
43574.5
43573.8
43571.1
43570.7
43574
43581.4
43589.8
43595.3
43596.1
43591.9
43587.2
43584.1
43583.8
43586.4
43590.6
43594.8
43598.6
43602.3
43606
43609.5
43613
43615.1
43615.7
43614.8
43612.7
43609.9
43606.9
43604.1
43602.1
43601
43601.1
43602.1
43604.1
43606.8
43610
43613.4
43616.9
43620.2
43623.2
43625.7
43627.8
43629.4
43630.6
43631.4
43632
43632.4
43632.8
43633.3
43634
43634.9
43636.2
43637.8
43639.8
43642.1
43644.7
43647.7
43650.8
43654.2
43657.6
43661.2
43664.7
43668.2
43671.6
43674.8
43677.7
43680.4
43682.9
43685
43686.8
43688.3
43689.4
43690.2
43690.7
43690.9
43690.8
43690.5
43690
43689.3
43688.5
43687.6
43686.6
43685.6
43684.6
43683.7
43682.7
43681.9
43681.1
43680.3
43679.5
43678.8
43678
43677.1
43676
43674.7
43673.2
43671.3
43669
43666.3
43663.1
43659.3
43655.1
43650.2
43644.9
43639
43632.6
43625.8
43618.5
43610.8
43602.7
43594.3
43585.4
43576.2
43566.6
43556.7
43546.4
43535.8
43524.9
43513.8
43502.6
43491.4
43480.4
43469.6
43459.3
43449.6
43440.6
43432.5
43425.2
43418.9
43471.6
43472
43472.3
43472.8
43473.2
43473.6
43474
43474.2
43474.4
43474.5
43474.7
43475
43475.3
43475.8
43476.2
43476.4
43477.1
43476.6
43477.3
43476.3
43476.2
43474.4
43473.3
43471.4
43469.6
43468.5
43469.3
43471.7
43472.9
43472.2
43469.5
43469.1
43472.4
43479.8
43488.2
43493.6
43494.5
43490.3
43485.6
43482.5
43482.2
43484.8
43489
43493.2
43497
43500.7
43504.4
43507.9
43511.4
43513.5
43514.1
43513.2
43511.1
43508.3
43505.3
43502.5
43500.5
43499.4
43499.5
43500.5
43502.5
43505.2
43508.4
43511.8
43515.3
43518.6
43521.6
43524.1
43526.2
43527.8
43529
43529.8
43530.3
43530.8
43531.2
43531.7
43532.4
43533.3
43534.6
43536.2
43538.2
43540.5
43543.1
43546
43549.2
43552.6
43556
43559.6
43563.1
43566.6
43570
43573.1
43576.1
43578.8
43581.3
43583.4
43585.2
43586.7
43587.8
43588.6
43589.1
43589.3
43589.2
43588.9
43588.4
43587.7
43586.9
43586
43585
43584
43583
43582.1
43581.1
43580.3
43579.5
43578.7
43577.9
43577.2
43576.4
43575.5
43574.4
43573.1
43571.6
43569.7
43567.4
43564.7
43561.5
43557.7
43553.4
43548.6
43543.3
43537.4
43531
43524.2
43516.9
43509.2
43501.1
43492.7
43483.8
43474.6
43465
43455.1
43444.8
43434.2
43423.3
43412.2
43401
43389.8
43378.8
43368
43357.7
43348
43339
43330.9
43323.6
43317.3
43370
43370.3
43370.7
43371.2
43371.6
43372
43372.4
43372.6
43372.8
43372.9
43373.1
43373.4
43373.7
43374.2
43374.6
43374.8
43375.5
43375
43375.7
43374.7
43374.6
43372.8
43371.7
43369.8
43368
43366.9
43367.7
43370.1
43371.3
43370.6
43367.9
43367.5
43370.8
43378.2
43386.6
43392
43392.9
43388.7
43384
43380.9
43380.6
43383.2
43387.4
43391.6
43395.4
43399.1
43402.7
43406.3
43409.8
43411.9
43412.5
43411.6
43409.5
43406.7
43403.7
43400.9
43398.9
43397.8
43397.8
43398.9
43400.9
43403.6
43406.8
43410.2
43413.7
43417
43420
43422.5
43424.6
43426.2
43427.4
43428.2
43428.7
43429.2
43429.6
43430.1
43430.8
43431.7
43433
43434.6
43436.6
43438.9
43441.5
43444.4
43447.6
43451
43454.4
43458
43461.5
43465
43468.3
43471.5
43474.5
43477.2
43479.7
43481.8
43483.6
43485.1
43486.2
43487
43487.5
43487.7
43487.6
43487.3
43486.8
43486.1
43485.3
43484.4
43483.4
43482.4
43481.4
43480.5
43479.5
43478.7
43477.9
43477.1
43476.3
43475.6
43474.8
43473.9
43472.8
43471.5
43470
43468.1
43465.8
43463.1
43459.9
43456.1
43451.8
43447
43441.7
43435.8
43429.4
43422.6
43415.3
43407.6
43399.5
43391.1
43382.2
43373
43363.4
43353.5
43343.2
43332.6
43321.7
43310.6
43299.4
43288.2
43277.2
43266.4
43256.1
43246.4
43237.4
43229.3
43222
43215.7
43268.4
43268.7
43269.1
43269.6
43270
43270.4
43270.8
43271
43271.2
43271.3
43271.5
43271.8
43272.1
43272.6
43273
43273.2
43273.9
43273.4
43274.1
43273.1
43272.9
43271.2
43270.1
43268.2
43266.4
43265.3
43266.1
43268.5
43269.7
43269
43266.3
43265.9
43269.2
43276.6
43285
43290.4
43291.3
43287.1
43282.4
43279.3
43279
43281.6
43285.8
43290
43293.8
43297.5
43301.1
43304.7
43308.2
43310.3
43310.9
43310
43307.9
43305.1
43302.1
43299.3
43297.3
43296.2
43296.2
43297.3
43299.3
43302
43305.2
43308.6
43312.1
43315.4
43318.4
43320.9
43323
43324.6
43325.8
43326.6
43327.1
43327.6
43328
43328.5
43329.2
43330.1
43331.4
43333
43335
43337.3
43339.9
43342.8
43346
43349.4
43352.8
43356.4
43359.9
43363.4
43366.7
43369.9
43372.9
43375.6
43378.1
43380.2
43382
43383.5
43384.6
43385.4
43385.9
43386.1
43386
43385.7
43385.2
43384.5
43383.7
43382.8
43381.8
43380.8
43379.8
43378.9
43377.9
43377.1
43376.3
43375.5
43374.7
43374
43373.2
43372.2
43371.2
43369.9
43368.4
43366.5
43364.2
43361.5
43358.3
43354.5
43350.2
43345.4
43340.1
43334.2
43327.8
43321
43313.7
43306
43297.9
43289.5
43280.6
43271.4
43261.8
43251.9
43241.6
43231
43220.1
43209
43197.8
43186.6
43175.6
43164.8
43154.5
43144.8
43135.8
43127.7
43120.4
43114.1
43166.8
43167.1
43167.5
43168
43168.4
43168.8
43169.2
43169.4
43169.6
43169.7
43169.9
43170.2
43170.5
43171
43171.4
43171.6
43172.3
43171.8
43172.5
43171.5
43171.3
43169.6
43168.5
43166.6
43164.8
43163.7
43164.5
43166.9
43168.1
43167.4
43164.7
43164.3
43167.6
43175
43183.4
43188.8
43189.7
43185.5
43180.8
43177.7
43177.4
43180
43184.1
43188.4
43192.2
43195.9
43199.5
43203.1
43206.6
43208.7
43209.3
43208.4
43206.3
43203.5
43200.5
43197.7
43195.7
43194.6
43194.6
43195.7
43197.7
43200.4
43203.6
43207
43210.5
43213.8
43216.8
43219.3
43221.4
43223
43224.2
43225
43225.5
43226
43226.4
43226.9
43227.6
43228.5
43229.8
43231.4
43233.4
43235.7
43238.3
43241.2
43244.4
43247.7
43251.2
43254.8
43258.3
43261.8
43265.1
43268.3
43271.3
43274
43276.5
43278.6
43280.4
43281.9
43283
43283.8
43284.3
43284.5
43284.4
43284.1
43283.6
43282.9
43282.1
43281.2
43280.2
43279.2
43278.2
43277.2
43276.3
43275.5
43274.6
43273.9
43273.1
43272.4
43271.5
43270.6
43269.6
43268.3
43266.8
43264.9
43262.6
43259.9
43256.7
43252.9
43248.6
43243.8
43238.5
43232.6
43226.2
43219.4
43212.1
43204.4
43196.3
43187.8
43179
43169.8
43160.2
43150.3
43140
43129.4
43118.5
43107.4
43096.2
43085
43073.9
43063.2
43052.9
43043.2
43034.2
43026.1
43018.8
43012.5
43065.2
43065.5
43065.9
43066.4
43066.8
43067.2
43067.6
43067.8
43068
43068.1
43068.3
43068.6
43068.9
43069.4
43069.8
43070
43070.7
43070.2
43070.9
43069.9
43069.7
43068
43066.9
43065
43063.1
43062.1
43062.9
43065.3
43066.5
43065.8
43063.1
43062.7
43066
43073.4
43081.8
43087.2
43088.1
43083.9
43079.2
43076.1
43075.8
43078.4
43082.5
43086.8
43090.6
43094.3
43097.9
43101.5
43105
43107.1
43107.7
43106.8
43104.7
43101.9
43098.9
43096.1
43094.1
43093
43093
43094.1
43096.1
43098.8
43102
43105.4
43108.9
43112.2
43115.2
43117.7
43119.8
43121.4
43122.6
43123.4
43123.9
43124.4
43124.8
43125.3
43126
43126.9
43128.2
43129.8
43131.8
43134.1
43136.7
43139.6
43142.8
43146.1
43149.6
43153.2
43156.7
43160.2
43163.5
43166.7
43169.7
43172.4
43174.9
43177
43178.8
43180.3
43181.4
43182.2
43182.7
43182.9
43182.8
43182.5
43182
43181.3
43180.5
43179.5
43178.6
43177.6
43176.6
43175.6
43174.7
43173.9
43173
43172.3
43171.5
43170.8
43169.9
43169
43168
43166.7
43165.2
43163.3
43161
43158.3
43155.1
43151.3
43147
43142.2
43136.9
43131
43124.6
43117.8
43110.5
43102.8
43094.7
43086.2
43077.4
43068.2
43058.6
43048.7
43038.4
43027.8
43016.9
43005.8
42994.6
42983.4
42972.3
42961.6
42951.3
42941.6
42932.6
42924.5
42917.2
42910.9
42963.6
42963.9
42964.3
42964.8
42965.2
42965.6
42966
42966.2
42966.4
42966.5
42966.7
42967
42967.3
42967.8
42968.2
42968.4
42969
42968.6
42969.3
42968.3
42968.1
42966.4
42965.3
42963.4
42961.5
42960.5
42961.3
42963.7
42964.9
42964.1
42961.5
42961
42964.4
42971.8
42980.2
42985.6
42986.5
42982.3
42977.6
42974.4
42974.2
42976.7
42980.9
42985.2
42989
42992.7
42996.3
42999.9
43003.4
43005.5
43006.1
43005.2
43003.1
43000.3
42997.2
42994.5
42992.5
42991.4
42991.4
42992.5
42994.5
42997.2
43000.4
43003.8
43007.3
43010.6
43013.6
43016.1
43018.2
43019.8
43021
43021.8
43022.3
43022.8
43023.2
43023.7
43024.4
43025.3
43026.6
43028.2
43030.2
43032.5
43035.1
43038
43041.2
43044.5
43048
43051.6
43055.1
43058.6
43061.9
43065.1
43068.1
43070.8
43073.3
43075.4
43077.2
43078.6
43079.8
43080.6
43081.1
43081.3
43081.2
43080.9
43080.4
43079.7
43078.9
43077.9
43077
43076
43075
43074
43073.1
43072.3
43071.4
43070.7
43069.9
43069.2
43068.3
43067.4
43066.4
43065.1
43063.6
43061.7
43059.4
43056.7
43053.4
43049.7
43045.4
43040.6
43035.3
43029.4
43023
43016.2
43008.9
43001.2
42993.1
42984.6
42975.8
42966.6
42957
42947.1
42936.8
42926.2
42915.3
42904.2
42893
42881.8
42870.7
42860
42849.7
42840
42831
42822.9
42815.6
42809.3
42862
42862.3
42862.7
42863.2
42863.6
42864
42864.3
42864.6
42864.8
42864.9
42865.1
42865.4
42865.7
42866.2
42866.6
42866.8
42867.4
42867
42867.7
42866.7
42866.5
42864.8
42863.7
42861.8
42859.9
42858.9
42859.7
42862.1
42863.3
42862.5
42859.9
42859.4
42862.8
42870.2
42878.6
42884
42884.9
42880.7
42876
42872.8
42872.5
42875.1
42879.3
42883.6
42887.4
42891.1
42894.7
42898.3
42901.8
42903.8
42904.5
42903.6
42901.5
42898.7
42895.6
42892.9
42890.9
42889.8
42889.8
42890.9
42892.9
42895.6
42898.8
42902.2
42905.7
42909
42912
42914.5
42916.6
42918.2
42919.4
42920.2
42920.7
42921.2
42921.6
42922.1
42922.8
42923.7
42925
42926.6
42928.6
42930.9
42933.5
42936.4
42939.6
42942.9
42946.4
42949.9
42953.5
42957
42960.3
42963.5
42966.5
42969.2
42971.7
42973.8
42975.6
42977
42978.2
42979
42979.5
42979.7
42979.6
42979.3
42978.8
42978.1
42977.3
42976.3
42975.4
42974.4
42973.4
42972.4
42971.5
42970.7
42969.8
42969.1
42968.3
42967.5
42966.7
42965.8
42964.8
42963.5
42962
42960.1
42957.8
42955.1
42951.8
42948.1
42943.8
42939
42933.7
42927.8
42921.4
42914.6
42907.3
42899.6
42891.5
42883
42874.2
42865
42855.4
42845.5
42835.2
42824.6
42813.7
42802.6
42791.4
42780.2
42769.1
42758.4
42748.1
42738.4
42729.4
42721.3
42714
42707.7
42760.4
42760.7
42761.1
42761.6
42762
42762.4
42762.7
42763
42763.2
42763.3
42763.5
42763.8
42764.1
42764.6
42765
42765.2
42765.8
42765.4
42766.1
42765.1
42764.9
42763.2
42762.1
42760.2
42758.3
42757.3
42758.1
42760.5
42761.7
42760.9
42758.3
42757.8
42761.2
42768.6
42777
42782.4
42783.3
42779.1
42774.4
42771.2
42770.9
42773.5
42777.7
42781.9
42785.8
42789.5
42793.1
42796.7
42800.2
42802.2
42802.9
42802
42799.9
42797
42794
42791.3
42789.3
42788.2
42788.2
42789.3
42791.3
42794
42797.2
42800.6
42804.1
42807.4
42810.4
42812.9
42815
42816.6
42817.7
42818.6
42819.1
42819.5
42820
42820.5
42821.1
42822.1
42823.4
42825
42827
42829.3
42831.9
42834.8
42838
42841.3
42844.8
42848.3
42851.9
42855.4
42858.7
42861.9
42864.9
42867.6
42870.1
42872.2
42874
42875.4
42876.6
42877.4
42877.9
42878.1
42878
42877.7
42877.2
42876.5
42875.6
42874.7
42873.8
42872.8
42871.8
42870.8
42869.9
42869
42868.2
42867.5
42866.7
42865.9
42865.1
42864.2
42863.2
42861.9
42860.4
42858.5
42856.2
42853.5
42850.2
42846.5
42842.2
42837.4
42832.1
42826.2
42819.8
42813
42805.7
42798
42789.9
42781.4
42772.6
42763.4
42753.8
42743.9
42733.6
42723
42712.1
42701
42689.8
42678.6
42667.5
42656.8
42646.5
42636.8
42627.8
42619.7
42612.4
42606.1
42658.8
42659.1
42659.5
42660
42660.4
42660.8
42661.1
42661.4
42661.5
42661.7
42661.9
42662.2
42662.5
42663
42663.4
42663.6
42664.2
42663.8
42664.5
42663.5
42663.3
42661.6
42660.5
42658.6
42656.7
42655.7
42656.5
42658.9
42660.1
42659.3
42656.7
42656.2
42659.6
42667
42675.4
42680.8
42681.7
42677.5
42672.7
42669.6
42669.3
42671.9
42676.1
42680.3
42684.2
42687.9
42691.5
42695.1
42698.6
42700.6
42701.3
42700.4
42698.3
42695.4
42692.4
42689.7
42687.7
42686.6
42686.6
42687.7
42689.7
42692.4
42695.5
42699
42702.5
42705.8
42708.8
42711.3
42713.4
42715
42716.1
42717
42717.5
42717.9
42718.4
42718.9
42719.5
42720.5
42721.8
42723.4
42725.3
42727.7
42730.3
42733.2
42736.4
42739.7
42743.2
42746.7
42750.3
42753.8
42757.1
42760.3
42763.3
42766
42768.5
42770.6
42772.4
42773.8
42775
42775.8
42776.3
42776.5
42776.4
42776.1
42775.5
42774.9
42774
42773.1
42772.2
42771.2
42770.2
42769.2
42768.3
42767.4
42766.6
42765.9
42765.1
42764.3
42763.5
42762.6
42761.6
42760.3
42758.8
42756.9
42754.6
42751.9
42748.6
42744.9
42740.6
42735.8
42730.5
42724.6
42718.2
42711.4
42704.1
42696.4
42688.3
42679.8
42671
42661.8
42652.2
42642.3
42632
42621.4
42610.5
42599.4
42588.2
42577
42565.9
42555.2
42544.9
42535.2
42526.2
42518
42510.8
42504.5
42557.2
42557.5
42557.9
42558.4
42558.8
42559.2
42559.5
42559.8
42559.9
42560.1
42560.3
42560.6
42560.9
42561.3
42561.8
42562
42562.6
42562.2
42562.9
42561.9
42561.7
42560
42558.9
42557
42555.1
42554.1
42554.9
42557.3
42558.5
42557.7
42555
42554.6
42557.9
42565.3
42573.8
42579.2
42580.1
42575.9
42571.1
42568
42567.7
42570.3
42574.5
42578.7
42582.6
42586.3
42589.9
42593.5
42597
42599
42599.7
42598.8
42596.7
42593.8
42590.8
42588.1
42586.1
42585
42585
42586.1
42588.1
42590.7
42593.9
42597.4
42600.9
42604.2
42607.2
42609.7
42611.8
42613.4
42614.5
42615.4
42615.9
42616.3
42616.7
42617.2
42617.9
42618.9
42620.2
42621.8
42623.7
42626.1
42628.7
42631.6
42634.8
42638.1
42641.6
42645.1
42648.7
42652.2
42655.5
42658.7
42661.7
42664.4
42666.8
42669
42670.8
42672.2
42673.4
42674.2
42674.7
42674.8
42674.8
42674.5
42673.9
42673.3
42672.4
42671.5
42670.6
42669.6
42668.6
42667.6
42666.7
42665.8
42665
42664.3
42663.5
42662.7
42661.9
42661
42660
42658.7
42657.2
42655.3
42653
42650.3
42647
42643.3
42639
42634.2
42628.9
42623
42616.6
42609.8
42602.5
42594.8
42586.7
42578.2
42569.4
42560.2
42550.6
42540.7
42530.4
42519.8
42508.9
42497.8
42486.6
42475.4
42464.3
42453.6
42443.3
42433.6
42424.6
42416.4
42409.2
42402.9
42455.6
42455.9
42456.3
42456.8
42457.2
42457.6
42457.9
42458.2
42458.3
42458.5
42458.7
42459
42459.3
42459.7
42460.1
42460.4
42461
42460.6
42461.3
42460.2
42460.1
42458.4
42457.3
42455.4
42453.5
42452.4
42453.3
42455.7
42456.9
42456.1
42453.4
42453
42456.3
42463.7
42472.2
42477.7
42478.5
42474.3
42469.5
42466.4
42466.1
42468.7
42472.9
42477.1
42481
42484.7
42488.3
42491.9
42495.4
42497.4
42498.1
42497.2
42495.1
42492.2
42489.2
42486.5
42484.4
42483.4
42483.4
42484.5
42486.5
42489.1
42492.3
42495.8
42499.3
42502.6
42505.6
42508.1
42510.2
42511.8
42512.9
42513.8
42514.3
42514.7
42515.1
42515.6
42516.3
42517.3
42518.6
42520.2
42522.1
42524.5
42527.1
42530
42533.2
42536.5
42540
42543.5
42547.1
42550.6
42553.9
42557.1
42560.1
42562.8
42565.2
42567.4
42569.2
42570.6
42571.8
42572.6
42573.1
42573.2
42573.2
42572.9
42572.3
42571.7
42570.8
42569.9
42569
42568
42567
42566
42565.1
42564.2
42563.4
42562.6
42561.9
42561.1
42560.3
42559.4
42558.4
42557.1
42555.6
42553.7
42551.4
42548.7
42545.4
42541.7
42537.4
42532.6
42527.2
42521.4
42515
42508.2
42500.9
42493.2
42485.1
42476.6
42467.8
42458.6
42449
42439.1
42428.8
42418.2
42407.3
42396.2
42385
42373.8
42362.7
42352
42341.7
42331.9
42323
42314.8
42307.6
42301.3
42303.2
42303.5
42303.9
42304.3
42304.8
42305.2
42305.5
42305.8
42305.9
42306.1
42306.3
42306.5
42306.9
42307.3
42307.7
42308
42308.6
42308.2
42308.9
42307.8
42307.7
42306
42304.9
42303
42301.1
42300
42300.9
42303.3
42304.5
42303.7
42301
42300.6
42303.9
42311.3
42319.8
42325.3
42326.2
42321.9
42317.1
42314
42313.7
42316.3
42320.5
42324.7
42328.6
42332.3
42335.9
42339.5
42343
42345
42345.7
42344.8
42342.7
42339.8
42336.8
42334.1
42332
42331
42331
42332.1
42334.1
42336.7
42339.9
42343.4
42346.9
42350.2
42353.2
42355.7
42357.8
42359.4
42360.5
42361.3
42361.9
42362.3
42362.7
42363.2
42363.9
42364.9
42366.2
42367.8
42369.7
42372
42374.7
42377.6
42380.8
42384.1
42387.6
42391.1
42394.7
42398.1
42401.5
42404.7
42407.7
42410.4
42412.8
42415
42416.8
42418.2
42419.4
42420.2
42420.6
42420.8
42420.8
42420.5
42419.9
42419.2
42418.4
42417.5
42416.6
42415.6
42414.6
42413.6
42412.7
42411.8
42411
42410.2
42409.5
42408.7
42407.9
42407
42406
42404.7
42403.2
42401.3
42399
42396.3
42393
42389.3
42385
42380.2
42374.8
42369
42362.6
42355.8
42348.5
42340.8
42332.7
42324.2
42315.4
42306.2
42296.6
42286.7
42276.4
42265.8
42254.9
42243.8
42232.6
42221.4
42210.3
42199.6
42189.2
42179.5
42170.6
42162.4
42155.2
42148.9
42100
42100.3
42100.7
42101.1
42101.6
42102
42102.3
42102.6
42102.7
42102.9
42103.1
42103.3
42103.7
42104.1
42104.5
42104.8
42105.4
42105
42105.7
42104.6
42104.5
42102.8
42101.7
42099.8
42097.9
42096.8
42097.7
42100.1
42101.3
42100.5
42097.8
42097.4
42100.7
42108.1
42116.6
42122.1
42123
42118.7
42113.9
42110.8
42110.5
42113.1
42117.3
42121.5
42125.4
42129.1
42132.7
42136.3
42139.8
42141.8
42142.5
42141.6
42139.5
42136.6
42133.6
42130.9
42128.8
42127.8
42127.8
42128.9
42130.8
42133.5
42136.7
42140.2
42143.7
42147
42150
42152.5
42154.6
42156.2
42157.3
42158.1
42158.7
42159.1
42159.5
42160
42160.7
42161.7
42162.9
42164.6
42166.5
42168.8
42171.5
42174.4
42177.6
42180.9
42184.4
42187.9
42191.5
42194.9
42198.3
42201.5
42204.5
42207.2
42209.6
42211.8
42213.6
42215
42216.1
42217
42217.4
42217.6
42217.6
42217.2
42216.7
42216
42215.2
42214.3
42213.3
42212.4
42211.4
42210.4
42209.5
42208.6
42207.8
42207
42206.3
42205.5
42204.7
42203.8
42202.8
42201.5
42199.9
42198.1
42195.8
42193
42189.8
42186.1
42181.8
42177
42171.6
42165.8
42159.4
42152.6
42145.3
42137.6
42129.5
42121
42112.2
42103
42093.4
42083.5
42073.2
42062.6
42051.7
42040.6
42029.4
42018.2
42007.1
41996.3
41986
41976.3
41967.4
41959.2
41952
41945.7
41896.8
41897.1
41897.5
41897.9
41898.4
41898.8
41899.1
41899.4
41899.5
41899.7
41899.9
41900.1
41900.5
41900.9
41901.3
41901.6
41902.2
41901.8
41902.5
41901.4
41901.3
41899.6
41898.5
41896.6
41894.7
41893.6
41894.4
41896.9
41898.1
41897.3
41894.6
41894.2
41897.5
41904.9
41913.4
41918.9
41919.8
41915.5
41910.7
41907.6
41907.3
41909.9
41914.1
41918.3
41922.2
41925.9
41929.5
41933.1
41936.6
41938.6
41939.3
41938.4
41936.3
41933.4
41930.4
41927.6
41925.6
41924.6
41924.6
41925.6
41927.6
41930.3
41933.5
41937
41940.5
41943.8
41946.8
41949.3
41951.4
41953
41954.1
41954.9
41955.5
41955.9
41956.3
41956.8
41957.5
41958.5
41959.7
41961.3
41963.3
41965.6
41968.3
41971.2
41974.4
41977.7
41981.2
41984.7
41988.3
41991.7
41995.1
41998.3
42001.3
42004
42006.4
42008.6
42010.4
42011.8
42012.9
42013.7
42014.2
42014.4
42014.4
42014
42013.5
42012.8
42012
42011.1
42010.1
42009.1
42008.2
42007.2
42006.3
42005.4
42004.6
42003.8
42003.1
42002.3
42001.5
42000.6
41999.6
41998.3
41996.7
41994.9
41992.6
41989.8
41986.6
41982.9
41978.6
41973.8
41968.4
41962.6
41956.2
41949.4
41942.1
41934.4
41926.3
41917.8
41909
41899.8
41890.2
41880.3
41870
41859.4
41848.5
41837.4
41826.2
41815
41803.9
41793.1
41782.8
41773.1
41764.1
41756
41748.8
41742.5
41693.6
41693.9
41694.3
41694.7
41695.2
41695.6
41695.9
41696.1
41696.3
41696.5
41696.7
41696.9
41697.3
41697.7
41698.1
41698.3
41699
41698.6
41699.3
41698.2
41698.1
41696.4
41695.3
41693.4
41691.5
41690.4
41691.2
41693.7
41694.9
41694.1
41691.4
41690.9
41694.3
41701.7
41710.2
41715.7
41716.6
41712.3
41707.5
41704.4
41704.1
41706.7
41710.9
41715.1
41719
41722.7
41726.3
41729.9
41733.4
41735.4
41736.1
41735.2
41733.1
41730.2
41727.2
41724.4
41722.4
41721.4
41721.4
41722.4
41724.4
41727.1
41730.3
41733.8
41737.3
41740.6
41743.6
41746.1
41748.2
41749.8
41750.9
41751.7
41752.3
41752.7
41753.1
41753.6
41754.3
41755.3
41756.5
41758.1
41760.1
41762.4
41765.1
41768
41771.1
41774.5
41778
41781.5
41785
41788.5
41791.9
41795.1
41798.1
41800.8
41803.2
41805.3
41807.1
41808.6
41809.7
41810.5
41811
41811.2
41811.1
41810.8
41810.3
41809.6
41808.8
41807.9
41806.9
41805.9
41805
41804
41803.1
41802.2
41801.4
41800.6
41799.9
41799.1
41798.3
41797.4
41796.3
41795.1
41793.5
41791.7
41789.4
41786.6
41783.4
41779.7
41775.4
41770.6
41765.2
41759.4
41753
41746.2
41738.9
41731.2
41723.1
41714.6
41705.8
41696.6
41687
41677
41666.8
41656.2
41645.3
41634.2
41623
41611.8
41600.7
41589.9
41579.6
41569.9
41560.9
41552.8
41545.6
41539.3
41490.4
41490.7
41491.1
41491.5
41492
41492.4
41492.7
41492.9
41493.1
41493.3
41493.4
41493.7
41494.1
41494.5
41494.9
41495.1
41495.8
41495.4
41496
41495
41494.9
41493.2
41492
41490.2
41488.3
41487.2
41488
41490.4
41491.7
41490.9
41488.2
41487.7
41491
41498.5
41507
41512.5
41513.4
41509.1
41504.3
41501.1
41500.8
41503.5
41507.7
41511.9
41515.8
41519.4
41523.1
41526.7
41530.2
41532.2
41532.9
41532
41529.9
41527
41524
41521.2
41519.2
41518.1
41518.2
41519.2
41521.2
41523.9
41527.1
41530.6
41534.1
41537.4
41540.3
41542.9
41545
41546.5
41547.7
41548.5
41549.1
41549.5
41549.9
41550.4
41551.1
41552.1
41553.3
41554.9
41556.9
41559.2
41561.8
41564.8
41567.9
41571.3
41574.8
41578.3
41581.8
41585.3
41588.7
41591.9
41594.9
41597.6
41600
41602.1
41603.9
41605.4
41606.5
41607.3
41607.8
41608
41607.9
41607.6
41607.1
41606.4
41605.6
41604.7
41603.7
41602.7
41601.7
41600.8
41599.9
41599
41598.2
41597.4
41596.7
41595.9
41595.1
41594.2
41593.1
41591.9
41590.3
41588.4
41586.2
41583.4
41580.2
41576.5
41572.2
41567.4
41562
41556.2
41549.8
41543
41535.7
41528
41519.9
41511.4
41502.6
41493.4
41483.8
41473.8
41463.6
41452.9
41442.1
41431
41419.8
41408.5
41397.5
41386.7
41376.4
41366.7
41357.7
41349.6
41342.4
41336
41287.1
41287.5
41287.9
41288.3
41288.8
41289.2
41289.5
41289.7
41289.9
41290.1
41290.2
41290.5
41290.9
41291.3
41291.7
41291.9
41292.6
41292.2
41292.8
41291.8
41291.7
41290
41288.8
41287
41285.1
41284