/*--------------------------------*- C++ -*----------------------------------*\
| =========                 |                                                 |
| \\      /  F ield         | OpenFOAM: The Open Source CFD Toolbox           |
|  \\    /   O peration     | Version:  v1912                                 |
|   \\  /    A nd           | Website:  www.openfoam.com                      |
|    \\/     M anipulation  |                                                 |
\*---------------------------------------------------------------------------*/
FoamFile
{
    version     2.0;
    format      ascii;
    class       volScalarField;
    location    "80";
    object      nut;
}
// * * * * * * * * * * * * * * * * * * * * * * * * * * * * * * * * * * * * * //

dimensions      [0 2 -1 0 0 0 0];


internalField   nonuniform List<scalar> 
14268
(
2.35922e-14
2.52272e-14
2.68834e-14
2.8552e-14
3.02293e-14
3.1912e-14
3.35956e-14
3.52738e-14
3.69426e-14
3.86e-14
4.02447e-14
4.18747e-14
4.34873e-14
4.50794e-14
4.66483e-14
4.81914e-14
4.97062e-14
5.11908e-14
5.26434e-14
5.40624e-14
5.54464e-14
5.67943e-14
5.81051e-14
5.9378e-14
6.06125e-14
6.1808e-14
6.29644e-14
6.40815e-14
6.51593e-14
6.6198e-14
6.71979e-14
6.81595e-14
6.90832e-14
6.99696e-14
7.08195e-14
7.16336e-14
7.24127e-14
7.31576e-14
7.38693e-14
7.45486e-14
7.51966e-14
7.58143e-14
7.64025e-14
7.69623e-14
7.74947e-14
7.80007e-14
7.84813e-14
7.89375e-14
7.93702e-14
7.97804e-14
8.01691e-14
8.05371e-14
8.08854e-14
8.12148e-14
8.15262e-14
8.18204e-14
8.20982e-14
8.23605e-14
8.26079e-14
8.28412e-14
8.3061e-14
8.32681e-14
8.34631e-14
8.36467e-14
8.38193e-14
8.39816e-14
8.41342e-14
8.42775e-14
8.44121e-14
8.45384e-14
8.4657e-14
8.47681e-14
8.48723e-14
8.49699e-14
8.50613e-14
8.51469e-14
8.5227e-14
8.5302e-14
8.5372e-14
8.54375e-14
8.54987e-14
8.55558e-14
8.56091e-14
8.56588e-14
8.57052e-14
8.57485e-14
8.57888e-14
8.58263e-14
8.58612e-14
8.58937e-14
8.5924e-14
8.59521e-14
8.59782e-14
8.60025e-14
8.6025e-14
8.60459e-14
8.60653e-14
8.60833e-14
8.61e-14
8.61154e-14
8.61297e-14
8.61429e-14
8.61551e-14
8.61664e-14
8.61769e-14
8.61865e-14
8.61954e-14
8.62036e-14
8.62111e-14
8.62181e-14
8.62245e-14
8.62304e-14
8.62358e-14
8.62407e-14
8.62453e-14
8.62494e-14
8.62532e-14
8.62567e-14
8.62599e-14
8.62628e-14
8.62653e-14
8.62678e-14
8.62698e-14
8.62718e-14
8.62734e-14
8.62751e-14
8.62762e-14
8.62777e-14
8.62783e-14
8.62797e-14
8.62798e-14
8.62813e-14
8.62809e-14
8.62826e-14
8.62817e-14
8.6284e-14
8.62828e-14
8.62858e-14
8.62844e-14
8.62884e-14
8.62872e-14
8.62913e-14
8.62906e-14
8.62943e-14
8.62939e-14
8.62968e-14
8.62963e-14
8.6298e-14
8.62974e-14
8.62983e-14
8.62976e-14
8.62981e-14
8.62974e-14
8.62977e-14
8.6297e-14
8.62972e-14
8.62967e-14
8.62969e-14
8.62966e-14
8.62968e-14
8.62982e-14
8.62986e-14
8.63591e-14
8.74829e-14
3.56779e-12
3.82951e-12
4.09612e-12
4.3662e-12
4.6391e-12
4.91424e-12
5.19083e-12
5.46774e-12
5.74413e-12
6.01967e-12
6.29425e-12
6.56758e-12
6.83919e-12
7.10851e-12
7.37495e-12
7.63801e-12
7.89721e-12
8.15213e-12
8.40242e-12
8.64774e-12
8.88779e-12
9.12231e-12
9.35108e-12
9.57389e-12
9.79059e-12
1.0001e-11
1.02051e-11
1.04028e-11
1.0594e-11
1.07786e-11
1.09568e-11
1.11285e-11
1.12938e-11
1.14527e-11
1.16053e-11
1.17518e-11
1.18922e-11
1.20267e-11
1.21554e-11
1.22783e-11
1.23958e-11
1.25079e-11
1.26149e-11
1.27167e-11
1.28137e-11
1.2906e-11
1.29938e-11
1.30771e-11
1.31562e-11
1.32313e-11
1.33025e-11
1.337e-11
1.34339e-11
1.34944e-11
1.35516e-11
1.36057e-11
1.36568e-11
1.3705e-11
1.37506e-11
1.37935e-11
1.38341e-11
1.38722e-11
1.39082e-11
1.39421e-11
1.39739e-11
1.40039e-11
1.40321e-11
1.40586e-11
1.40834e-11
1.41068e-11
1.41287e-11
1.41492e-11
1.41685e-11
1.41866e-11
1.42035e-11
1.42193e-11
1.42342e-11
1.4248e-11
1.4261e-11
1.42731e-11
1.42844e-11
1.4295e-11
1.43049e-11
1.43141e-11
1.43227e-11
1.43307e-11
1.43382e-11
1.43451e-11
1.43516e-11
1.43576e-11
1.43632e-11
1.43685e-11
1.43733e-11
1.43778e-11
1.4382e-11
1.43859e-11
1.43895e-11
1.43928e-11
1.43959e-11
1.43987e-11
1.44014e-11
1.44038e-11
1.44061e-11
1.44082e-11
1.44101e-11
1.44119e-11
1.44136e-11
1.44151e-11
1.44165e-11
1.44178e-11
1.4419e-11
1.44201e-11
1.44211e-11
1.4422e-11
1.44228e-11
1.44236e-11
1.44243e-11
1.4425e-11
1.44255e-11
1.44261e-11
1.44266e-11
1.4427e-11
1.44274e-11
1.44278e-11
1.44281e-11
1.44284e-11
1.44286e-11
1.44289e-11
1.4429e-11
1.44292e-11
1.44293e-11
1.44295e-11
1.44295e-11
1.44298e-11
1.44296e-11
1.443e-11
1.44298e-11
1.44304e-11
1.44301e-11
1.44308e-11
1.44306e-11
1.44314e-11
1.44312e-11
1.44319e-11
1.44318e-11
1.44323e-11
1.44322e-11
1.44325e-11
1.44324e-11
1.44326e-11
1.44325e-11
1.44325e-11
1.44324e-11
1.44325e-11
1.44324e-11
1.44324e-11
1.44323e-11
1.44323e-11
1.44323e-11
1.44323e-11
1.44326e-11
1.44326e-11
1.44428e-11
1.4624e-11
6.74637e-11
7.25441e-11
7.77315e-11
8.2999e-11
8.83334e-11
9.37229e-11
9.91509e-11
1.04596e-10
1.1004e-10
1.15477e-10
1.20905e-10
1.26317e-10
1.31704e-10
1.37054e-10
1.42354e-10
1.47595e-10
1.52766e-10
1.57859e-10
1.62865e-10
1.67778e-10
1.72592e-10
1.773e-10
1.81897e-10
1.86379e-10
1.90743e-10
1.94985e-10
1.99102e-10
2.03093e-10
2.06956e-10
2.1069e-10
2.14296e-10
2.17773e-10
2.21122e-10
2.24345e-10
2.27441e-10
2.30415e-10
2.33267e-10
2.35999e-10
2.38615e-10
2.41116e-10
2.43507e-10
2.45789e-10
2.47967e-10
2.50042e-10
2.52018e-10
2.539e-10
2.55689e-10
2.57389e-10
2.59003e-10
2.60536e-10
2.61989e-10
2.63366e-10
2.64671e-10
2.65906e-10
2.67075e-10
2.6818e-10
2.69224e-10
2.70211e-10
2.71142e-10
2.7202e-10
2.72849e-10
2.7363e-10
2.74365e-10
2.75058e-10
2.7571e-10
2.76323e-10
2.76899e-10
2.77441e-10
2.7795e-10
2.78428e-10
2.78876e-10
2.79297e-10
2.79691e-10
2.80061e-10
2.80407e-10
2.80732e-10
2.81035e-10
2.81319e-10
2.81585e-10
2.81833e-10
2.82065e-10
2.82282e-10
2.82484e-10
2.82673e-10
2.82849e-10
2.83013e-10
2.83166e-10
2.83308e-10
2.83441e-10
2.83564e-10
2.83679e-10
2.83786e-10
2.83885e-10
2.83977e-10
2.84062e-10
2.84142e-10
2.84215e-10
2.84284e-10
2.84347e-10
2.84406e-10
2.8446e-10
2.8451e-10
2.84557e-10
2.84599e-10
2.84639e-10
2.84676e-10
2.8471e-10
2.84741e-10
2.84769e-10
2.84796e-10
2.8482e-10
2.84842e-10
2.84863e-10
2.84882e-10
2.84899e-10
2.84915e-10
2.84929e-10
2.84943e-10
2.84955e-10
2.84966e-10
2.84976e-10
2.84985e-10
2.84993e-10
2.85e-10
2.85006e-10
2.85013e-10
2.85017e-10
2.85023e-10
2.85025e-10
2.85031e-10
2.85031e-10
2.85037e-10
2.85036e-10
2.85042e-10
2.85039e-10
2.85047e-10
2.85043e-10
2.85054e-10
2.85049e-10
2.85063e-10
2.85059e-10
2.85074e-10
2.85071e-10
2.85085e-10
2.85083e-10
2.85093e-10
2.85092e-10
2.85097e-10
2.85095e-10
2.85098e-10
2.85096e-10
2.85097e-10
2.85095e-10
2.85096e-10
2.85094e-10
2.85095e-10
2.85093e-10
2.85093e-10
2.85093e-10
2.85093e-10
2.85098e-10
2.85099e-10
2.85299e-10
2.88607e-10
4.55733e-10
4.9084e-10
5.26761e-10
5.63314e-10
6.00406e-10
6.37945e-10
6.75811e-10
7.1386e-10
7.51969e-10
7.90086e-10
8.28191e-10
8.66238e-10
9.04156e-10
9.4186e-10
9.79265e-10
1.01629e-09
1.05287e-09
1.08893e-09
1.12441e-09
1.15927e-09
1.19345e-09
1.22692e-09
1.25962e-09
1.29153e-09
1.32262e-09
1.35287e-09
1.38224e-09
1.41074e-09
1.43833e-09
1.46503e-09
1.49081e-09
1.51569e-09
1.53967e-09
1.56275e-09
1.58494e-09
1.60625e-09
1.6267e-09
1.6463e-09
1.66507e-09
1.68303e-09
1.70019e-09
1.71659e-09
1.73223e-09
1.74714e-09
1.76135e-09
1.77488e-09
1.78774e-09
1.79997e-09
1.81159e-09
1.82262e-09
1.83308e-09
1.84299e-09
1.85239e-09
1.86128e-09
1.86969e-09
1.87765e-09
1.88518e-09
1.89228e-09
1.89899e-09
1.90532e-09
1.91129e-09
1.91692e-09
1.92222e-09
1.92721e-09
1.93191e-09
1.93633e-09
1.94048e-09
1.94439e-09
1.94806e-09
1.95151e-09
1.95474e-09
1.95777e-09
1.96062e-09
1.96328e-09
1.96578e-09
1.96812e-09
1.97031e-09
1.97236e-09
1.97427e-09
1.97606e-09
1.97774e-09
1.9793e-09
1.98076e-09
1.98212e-09
1.98339e-09
1.98457e-09
1.98568e-09
1.9867e-09
1.98766e-09
1.98855e-09
1.98938e-09
1.99015e-09
1.99087e-09
1.99153e-09
1.99215e-09
1.99272e-09
1.99325e-09
1.99374e-09
1.9942e-09
1.99462e-09
1.99502e-09
1.99538e-09
1.99571e-09
1.99602e-09
1.99631e-09
1.99657e-09
1.99682e-09
1.99704e-09
1.99725e-09
1.99744e-09
1.99761e-09
1.99778e-09
1.99792e-09
1.99806e-09
1.99818e-09
1.9983e-09
1.9984e-09
1.9985e-09
1.99859e-09
1.99867e-09
1.99874e-09
1.9988e-09
1.99886e-09
1.99892e-09
1.99896e-09
1.99901e-09
1.99904e-09
1.99908e-09
1.9991e-09
1.99914e-09
1.99914e-09
1.99918e-09
1.99917e-09
1.99922e-09
1.9992e-09
1.99926e-09
1.99923e-09
1.9993e-09
1.99927e-09
1.99937e-09
1.99934e-09
1.99944e-09
1.99943e-09
1.99952e-09
1.99951e-09
1.99958e-09
1.99957e-09
1.99961e-09
1.99959e-09
1.99962e-09
1.9996e-09
1.99961e-09
1.99959e-09
1.9996e-09
1.99959e-09
1.99959e-09
1.99958e-09
1.99958e-09
1.99958e-09
1.99958e-09
1.99961e-09
1.99963e-09
2.00101e-09
2.02216e-09
1.7988e-09
1.93895e-09
2.08249e-09
2.22866e-09
2.37709e-09
2.52738e-09
2.67907e-09
2.83156e-09
2.98435e-09
3.13722e-09
3.29008e-09
3.44274e-09
3.59489e-09
3.7462e-09
3.89632e-09
4.04492e-09
4.19171e-09
4.33643e-09
4.47885e-09
4.61873e-09
4.75589e-09
4.89015e-09
5.02134e-09
5.14934e-09
5.27402e-09
5.39528e-09
5.51304e-09
5.62724e-09
5.73783e-09
5.84477e-09
5.94806e-09
6.0477e-09
6.1437e-09
6.23609e-09
6.32491e-09
6.41019e-09
6.49201e-09
6.57043e-09
6.6455e-09
6.71731e-09
6.78594e-09
6.85148e-09
6.914e-09
6.9736e-09
7.03037e-09
7.08441e-09
7.1358e-09
7.18464e-09
7.23104e-09
7.27506e-09
7.31683e-09
7.35641e-09
7.39391e-09
7.42941e-09
7.46299e-09
7.49475e-09
7.52477e-09
7.55312e-09
7.57988e-09
7.60514e-09
7.62895e-09
7.6514e-09
7.67254e-09
7.69245e-09
7.71119e-09
7.72882e-09
7.74539e-09
7.76097e-09
7.7756e-09
7.78934e-09
7.80223e-09
7.81433e-09
7.82567e-09
7.8363e-09
7.84626e-09
7.85558e-09
7.86431e-09
7.87248e-09
7.88011e-09
7.88725e-09
7.89392e-09
7.90015e-09
7.90596e-09
7.91139e-09
7.91645e-09
7.92117e-09
7.92556e-09
7.92966e-09
7.93347e-09
7.93702e-09
7.94032e-09
7.94339e-09
7.94624e-09
7.94889e-09
7.95135e-09
7.95364e-09
7.95575e-09
7.95772e-09
7.95954e-09
7.96122e-09
7.96278e-09
7.96423e-09
7.96556e-09
7.9668e-09
7.96794e-09
7.96899e-09
7.96996e-09
7.97086e-09
7.97168e-09
7.97244e-09
7.97314e-09
7.97379e-09
7.97438e-09
7.97492e-09
7.97542e-09
7.97587e-09
7.97629e-09
7.97667e-09
7.97702e-09
7.97733e-09
7.97762e-09
7.97788e-09
7.97811e-09
7.97833e-09
7.9785e-09
7.97869e-09
7.97882e-09
7.97898e-09
7.97905e-09
7.97921e-09
7.97923e-09
7.97938e-09
7.97936e-09
7.97953e-09
7.97946e-09
7.97968e-09
7.97957e-09
7.97987e-09
7.97975e-09
7.98014e-09
7.98003e-09
7.98043e-09
7.98037e-09
7.98074e-09
7.9807e-09
7.98098e-09
7.98094e-09
7.98109e-09
7.98103e-09
7.98111e-09
7.98105e-09
7.9811e-09
7.98103e-09
7.98106e-09
7.981e-09
7.98102e-09
7.98097e-09
7.98098e-09
7.98096e-09
7.98098e-09
7.9811e-09
7.98115e-09
7.98655e-09
8.06278e-09
5.14345e-09
5.54347e-09
5.95254e-09
6.36883e-09
6.79125e-09
7.21852e-09
7.64925e-09
8.08174e-09
8.51456e-09
8.94708e-09
9.37897e-09
9.80969e-09
1.02384e-08
1.06641e-08
1.10858e-08
1.15026e-08
1.19138e-08
1.23186e-08
1.27163e-08
1.31065e-08
1.34885e-08
1.38618e-08
1.42262e-08
1.45812e-08
1.49265e-08
1.5262e-08
1.55873e-08
1.59024e-08
1.62072e-08
1.65015e-08
1.67855e-08
1.70592e-08
1.73226e-08
1.75758e-08
1.7819e-08
1.80523e-08
1.82759e-08
1.849e-08
1.86948e-08
1.88905e-08
1.90774e-08
1.92558e-08
1.94258e-08
1.95878e-08
1.9742e-08
1.98887e-08
2.00281e-08
2.01605e-08
2.02862e-08
2.04055e-08
2.05185e-08
2.06256e-08
2.07271e-08
2.0823e-08
2.09138e-08
2.09996e-08
2.10807e-08
2.11572e-08
2.12294e-08
2.12976e-08
2.13618e-08
2.14223e-08
2.14794e-08
2.1533e-08
2.15835e-08
2.1631e-08
2.16757e-08
2.17176e-08
2.1757e-08
2.1794e-08
2.18287e-08
2.18613e-08
2.18918e-08
2.19204e-08
2.19472e-08
2.19723e-08
2.19957e-08
2.20177e-08
2.20382e-08
2.20574e-08
2.20754e-08
2.20921e-08
2.21078e-08
2.21224e-08
2.2136e-08
2.21486e-08
2.21605e-08
2.21715e-08
2.21817e-08
2.21913e-08
2.22001e-08
2.22084e-08
2.22161e-08
2.22232e-08
2.22298e-08
2.22359e-08
2.22416e-08
2.22469e-08
2.22518e-08
2.22563e-08
2.22605e-08
2.22644e-08
2.2268e-08
2.22713e-08
2.22744e-08
2.22772e-08
2.22798e-08
2.22822e-08
2.22844e-08
2.22865e-08
2.22884e-08
2.22901e-08
2.22917e-08
2.22931e-08
2.22945e-08
2.22957e-08
2.22968e-08
2.22978e-08
2.22988e-08
2.22996e-08
2.23004e-08
2.23011e-08
2.23017e-08
2.23023e-08
2.23028e-08
2.23033e-08
2.23036e-08
2.23041e-08
2.23042e-08
2.23047e-08
2.23047e-08
2.23051e-08
2.23051e-08
2.23055e-08
2.23053e-08
2.23059e-08
2.23056e-08
2.23065e-08
2.23061e-08
2.23072e-08
2.23069e-08
2.2308e-08
2.23078e-08
2.23088e-08
2.23087e-08
2.23094e-08
2.23093e-08
2.23097e-08
2.23096e-08
2.23098e-08
2.23096e-08
2.23098e-08
2.23096e-08
2.23096e-08
2.23095e-08
2.23095e-08
2.23094e-08
2.23095e-08
2.23094e-08
2.23094e-08
2.23098e-08
2.23099e-08
2.23244e-08
2.25139e-08
1.18631e-08
1.27695e-08
1.36933e-08
1.46315e-08
1.55807e-08
1.65378e-08
1.74996e-08
1.84624e-08
1.94228e-08
2.03796e-08
2.13318e-08
2.22784e-08
2.32174e-08
2.41467e-08
2.50644e-08
2.59685e-08
2.68575e-08
2.77299e-08
2.85845e-08
2.94201e-08
3.02359e-08
3.10309e-08
3.18046e-08
3.25563e-08
3.32855e-08
3.3992e-08
3.46755e-08
3.53359e-08
3.59731e-08
3.65872e-08
3.71783e-08
3.77466e-08
3.82926e-08
3.88163e-08
3.93184e-08
3.97992e-08
4.02591e-08
4.06988e-08
4.11187e-08
4.15193e-08
4.19014e-08
4.22654e-08
4.2612e-08
4.29417e-08
4.32552e-08
4.3553e-08
4.38358e-08
4.41041e-08
4.43585e-08
4.45997e-08
4.48281e-08
4.50443e-08
4.52489e-08
4.54423e-08
4.56251e-08
4.57978e-08
4.59608e-08
4.61147e-08
4.62598e-08
4.63966e-08
4.65255e-08
4.66469e-08
4.67612e-08
4.68687e-08
4.69699e-08
4.7065e-08
4.71543e-08
4.72383e-08
4.73171e-08
4.73911e-08
4.74605e-08
4.75255e-08
4.75865e-08
4.76437e-08
4.76972e-08
4.77473e-08
4.77941e-08
4.7838e-08
4.7879e-08
4.79173e-08
4.79531e-08
4.79865e-08
4.80177e-08
4.80468e-08
4.8074e-08
4.80993e-08
4.81228e-08
4.81448e-08
4.81652e-08
4.81843e-08
4.8202e-08
4.82184e-08
4.82337e-08
4.82479e-08
4.82611e-08
4.82733e-08
4.82847e-08
4.82952e-08
4.83049e-08
4.8314e-08
4.83223e-08
4.83301e-08
4.83372e-08
4.83438e-08
4.83499e-08
4.83556e-08
4.83608e-08
4.83656e-08
4.837e-08
4.83741e-08
4.83778e-08
4.83813e-08
4.83844e-08
4.83873e-08
4.839e-08
4.83924e-08
4.83947e-08
4.83967e-08
4.83986e-08
4.84003e-08
4.84018e-08
4.84032e-08
4.84044e-08
4.84056e-08
4.84065e-08
4.84075e-08
4.84082e-08
4.84091e-08
4.84095e-08
4.84103e-08
4.84104e-08
4.84112e-08
4.84111e-08
4.8412e-08
4.84116e-08
4.84128e-08
4.84122e-08
4.84139e-08
4.84132e-08
4.84153e-08
4.84147e-08
4.84169e-08
4.84166e-08
4.84186e-08
4.84184e-08
4.84199e-08
4.84197e-08
4.84205e-08
4.84202e-08
4.84206e-08
4.84203e-08
4.84205e-08
4.84202e-08
4.84203e-08
4.842e-08
4.84201e-08
4.84198e-08
4.84199e-08
4.84198e-08
4.84199e-08
4.84205e-08
4.84209e-08
4.845e-08
4.88064e-08
2.3416e-08
2.514e-08
2.68904e-08
2.86592e-08
3.04393e-08
3.22245e-08
3.40087e-08
3.57849e-08
3.75474e-08
3.92936e-08
4.10225e-08
4.27317e-08
4.44183e-08
4.60788e-08
4.77098e-08
4.93081e-08
5.08715e-08
5.23978e-08
5.38855e-08
5.5333e-08
5.67394e-08
5.81037e-08
5.94253e-08
6.07037e-08
6.19387e-08
6.31304e-08
6.42787e-08
6.53839e-08
6.64465e-08
6.74669e-08
6.8446e-08
6.93844e-08
7.02829e-08
7.11426e-08
7.19644e-08
7.27493e-08
7.34984e-08
7.42126e-08
7.48929e-08
7.55405e-08
7.61566e-08
7.67423e-08
7.72988e-08
7.78272e-08
7.83286e-08
7.88041e-08
7.92548e-08
7.96818e-08
8.00861e-08
8.04687e-08
8.08305e-08
8.11726e-08
8.14959e-08
8.18013e-08
8.20895e-08
8.23615e-08
8.26181e-08
8.28599e-08
8.30879e-08
8.33026e-08
8.35047e-08
8.3695e-08
8.3874e-08
8.40423e-08
8.42005e-08
8.43492e-08
8.44888e-08
8.46199e-08
8.47429e-08
8.48583e-08
8.49665e-08
8.50679e-08
8.5163e-08
8.5252e-08
8.53353e-08
8.54133e-08
8.54863e-08
8.55545e-08
8.56183e-08
8.56779e-08
8.57336e-08
8.57856e-08
8.58341e-08
8.58793e-08
8.59215e-08
8.59608e-08
8.59975e-08
8.60316e-08
8.60633e-08
8.60929e-08
8.61204e-08
8.61459e-08
8.61697e-08
8.61917e-08
8.62122e-08
8.62312e-08
8.62488e-08
8.62652e-08
8.62803e-08
8.62943e-08
8.63073e-08
8.63193e-08
8.63304e-08
8.63407e-08
8.63502e-08
8.63589e-08
8.6367e-08
8.63744e-08
8.63813e-08
8.63876e-08
8.63934e-08
8.63988e-08
8.64037e-08
8.64082e-08
8.64123e-08
8.64161e-08
8.64196e-08
8.64228e-08
8.64256e-08
8.64283e-08
8.64306e-08
8.64328e-08
8.64347e-08
8.64366e-08
8.6438e-08
8.64396e-08
8.64405e-08
8.64419e-08
8.64425e-08
8.64438e-08
8.64439e-08
8.64453e-08
8.6445e-08
8.64465e-08
8.64458e-08
8.64477e-08
8.64468e-08
8.64493e-08
8.64483e-08
8.64516e-08
8.64507e-08
8.64541e-08
8.64536e-08
8.64568e-08
8.64565e-08
8.64588e-08
8.64585e-08
8.64598e-08
8.64593e-08
8.646e-08
8.64594e-08
8.64598e-08
8.64593e-08
8.64595e-08
8.6459e-08
8.64591e-08
8.64587e-08
8.64588e-08
8.64587e-08
8.64588e-08
8.64599e-08
8.64604e-08
8.65064e-08
8.70353e-08
4.09566e-08
4.38023e-08
4.66726e-08
4.95511e-08
5.24251e-08
5.52844e-08
5.81188e-08
6.09176e-08
6.36726e-08
6.63807e-08
6.9041e-08
7.16514e-08
7.42086e-08
7.67089e-08
7.9149e-08
8.15247e-08
8.3831e-08
8.60662e-08
8.8229e-08
9.0319e-08
9.23357e-08
9.42792e-08
9.61499e-08
9.79483e-08
9.96754e-08
1.01332e-07
1.0292e-07
1.0444e-07
1.05894e-07
1.07283e-07
1.08609e-07
1.09875e-07
1.11082e-07
1.12231e-07
1.13325e-07
1.14366e-07
1.15356e-07
1.16297e-07
1.17191e-07
1.18039e-07
1.18845e-07
1.19608e-07
1.20332e-07
1.21018e-07
1.21668e-07
1.22283e-07
1.22865e-07
1.23415e-07
1.23935e-07
1.24426e-07
1.24891e-07
1.25329e-07
1.25743e-07
1.26133e-07
1.26501e-07
1.26847e-07
1.27174e-07
1.27482e-07
1.27772e-07
1.28045e-07
1.28301e-07
1.28542e-07
1.28769e-07
1.28982e-07
1.29183e-07
1.29371e-07
1.29547e-07
1.29713e-07
1.29868e-07
1.30014e-07
1.30151e-07
1.30278e-07
1.30398e-07
1.30511e-07
1.30616e-07
1.30714e-07
1.30806e-07
1.30892e-07
1.30972e-07
1.31047e-07
1.31117e-07
1.31183e-07
1.31244e-07
1.31301e-07
1.31354e-07
1.31403e-07
1.31449e-07
1.31492e-07
1.31532e-07
1.31569e-07
1.31604e-07
1.31636e-07
1.31666e-07
1.31693e-07
1.31719e-07
1.31743e-07
1.31765e-07
1.31786e-07
1.31805e-07
1.31822e-07
1.31839e-07
1.31854e-07
1.31868e-07
1.3188e-07
1.31892e-07
1.31903e-07
1.31914e-07
1.31923e-07
1.31931e-07
1.31939e-07
1.31947e-07
1.31953e-07
1.3196e-07
1.31965e-07
1.3197e-07
1.31975e-07
1.3198e-07
1.31984e-07
1.31987e-07
1.3199e-07
1.31993e-07
1.31996e-07
1.31999e-07
1.32001e-07
1.32003e-07
1.32005e-07
1.32006e-07
1.32008e-07
1.32008e-07
1.3201e-07
1.3201e-07
1.32012e-07
1.32011e-07
1.32013e-07
1.32012e-07
1.32015e-07
1.32014e-07
1.32017e-07
1.32016e-07
1.3202e-07
1.32019e-07
1.32023e-07
1.32022e-07
1.32026e-07
1.32026e-07
1.32029e-07
1.32029e-07
1.3203e-07
1.3203e-07
1.32031e-07
1.3203e-07
1.3203e-07
1.3203e-07
1.3203e-07
1.32029e-07
1.32029e-07
1.32029e-07
1.32029e-07
1.32029e-07
1.32029e-07
1.3203e-07
1.32031e-07
1.3209e-07
1.3272e-07
6.48915e-08
6.90454e-08
7.31922e-08
7.73082e-08
8.13778e-08
8.53904e-08
8.93279e-08
9.31717e-08
9.69122e-08
1.00547e-07
1.04078e-07
1.07503e-07
1.10819e-07
1.14024e-07
1.17115e-07
1.20091e-07
1.22956e-07
1.2571e-07
1.28355e-07
1.30892e-07
1.33323e-07
1.35649e-07
1.37874e-07
1.39999e-07
1.42028e-07
1.43963e-07
1.45808e-07
1.47564e-07
1.49236e-07
1.50827e-07
1.52339e-07
1.53775e-07
1.55139e-07
1.56433e-07
1.57662e-07
1.58826e-07
1.5993e-07
1.60975e-07
1.61966e-07
1.62903e-07
1.6379e-07
1.64629e-07
1.65423e-07
1.66173e-07
1.66881e-07
1.67551e-07
1.68183e-07
1.68779e-07
1.69342e-07
1.69873e-07
1.70374e-07
1.70846e-07
1.71291e-07
1.7171e-07
1.72105e-07
1.72476e-07
1.72826e-07
1.73155e-07
1.73464e-07
1.73755e-07
1.74029e-07
1.74286e-07
1.74527e-07
1.74754e-07
1.74966e-07
1.75166e-07
1.75353e-07
1.75529e-07
1.75694e-07
1.75848e-07
1.75993e-07
1.76128e-07
1.76255e-07
1.76374e-07
1.76485e-07
1.76589e-07
1.76686e-07
1.76777e-07
1.76862e-07
1.76941e-07
1.77015e-07
1.77084e-07
1.77148e-07
1.77208e-07
1.77264e-07
1.77317e-07
1.77365e-07
1.7741e-07
1.77452e-07
1.77492e-07
1.77528e-07
1.77562e-07
1.77593e-07
1.77623e-07
1.7765e-07
1.77675e-07
1.77698e-07
1.7772e-07
1.7774e-07
1.77758e-07
1.77776e-07
1.77792e-07
1.77806e-07
1.7782e-07
1.77832e-07
1.77844e-07
1.77855e-07
1.77865e-07
1.77874e-07
1.77882e-07
1.7789e-07
1.77897e-07
1.77903e-07
1.77909e-07
1.77915e-07
1.7792e-07
1.77924e-07
1.77929e-07
1.77932e-07
1.77936e-07
1.77939e-07
1.77942e-07
1.77944e-07
1.77947e-07
1.77949e-07
1.77951e-07
1.77952e-07
1.77954e-07
1.77955e-07
1.77956e-07
1.77956e-07
1.77958e-07
1.77958e-07
1.7796e-07
1.77959e-07
1.77961e-07
1.7796e-07
1.77964e-07
1.77962e-07
1.77967e-07
1.77965e-07
1.7797e-07
1.77969e-07
1.77974e-07
1.77973e-07
1.77977e-07
1.77976e-07
1.77978e-07
1.77977e-07
1.77978e-07
1.77977e-07
1.77978e-07
1.77977e-07
1.77977e-07
1.77977e-07
1.77977e-07
1.77976e-07
1.77977e-07
1.77976e-07
1.77977e-07
1.77978e-07
1.77979e-07
1.78041e-07
1.78636e-07
9.45813e-08
1.00012e-07
1.05349e-07
1.1056e-07
1.15622e-07
1.20521e-07
1.25253e-07
1.29814e-07
1.342e-07
1.38412e-07
1.42457e-07
1.46341e-07
1.50064e-07
1.53628e-07
1.57035e-07
1.6029e-07
1.63394e-07
1.66353e-07
1.69171e-07
1.71852e-07
1.74401e-07
1.76823e-07
1.79122e-07
1.81305e-07
1.83375e-07
1.85337e-07
1.87196e-07
1.88957e-07
1.90625e-07
1.92203e-07
1.93695e-07
1.95107e-07
1.96442e-07
1.97703e-07
1.98895e-07
2.00021e-07
2.01085e-07
2.02089e-07
2.03036e-07
2.03931e-07
2.04775e-07
2.05571e-07
2.06322e-07
2.0703e-07
2.07697e-07
2.08326e-07
2.08919e-07
2.09478e-07
2.10003e-07
2.10499e-07
2.10965e-07
2.11404e-07
2.11816e-07
2.12205e-07
2.1257e-07
2.12914e-07
2.13237e-07
2.1354e-07
2.13825e-07
2.14093e-07
2.14345e-07
2.14581e-07
2.14803e-07
2.15011e-07
2.15206e-07
2.15389e-07
2.1556e-07
2.15721e-07
2.15872e-07
2.16013e-07
2.16145e-07
2.16269e-07
2.16385e-07
2.16493e-07
2.16594e-07
2.16689e-07
2.16778e-07
2.16861e-07
2.16938e-07
2.1701e-07
2.17078e-07
2.1714e-07
2.17199e-07
2.17254e-07
2.17305e-07
2.17352e-07
2.17397e-07
2.17438e-07
2.17476e-07
2.17512e-07
2.17545e-07
2.17576e-07
2.17604e-07
2.17631e-07
2.17655e-07
2.17678e-07
2.177e-07
2.17719e-07
2.17738e-07
2.17754e-07
2.1777e-07
2.17784e-07
2.17798e-07
2.1781e-07
2.17822e-07
2.17832e-07
2.17842e-07
2.17851e-07
2.17859e-07
2.17867e-07
2.17874e-07
2.1788e-07
2.17886e-07
2.17891e-07
2.17896e-07
2.17901e-07
2.17905e-07
2.17909e-07
2.17912e-07
2.17916e-07
2.17918e-07
2.17921e-07
2.17923e-07
2.17926e-07
2.17927e-07
2.17929e-07
2.1793e-07
2.17932e-07
2.17933e-07
2.17934e-07
2.17934e-07
2.17936e-07
2.17935e-07
2.17937e-07
2.17936e-07
2.17939e-07
2.17938e-07
2.17941e-07
2.17939e-07
2.17944e-07
2.17942e-07
2.17947e-07
2.17946e-07
2.1795e-07
2.1795e-07
2.17953e-07
2.17952e-07
2.17954e-07
2.17953e-07
2.17954e-07
2.17954e-07
2.17954e-07
2.17953e-07
2.17954e-07
2.17953e-07
2.17953e-07
2.17953e-07
2.17953e-07
2.17952e-07
2.17953e-07
2.17954e-07
2.17955e-07
2.18012e-07
2.18403e-07
1.27962e-07
1.34218e-07
1.4027e-07
1.4609e-07
1.51668e-07
1.57e-07
1.62088e-07
1.66927e-07
1.71522e-07
1.75882e-07
1.8002e-07
1.83949e-07
1.87674e-07
1.91203e-07
1.94544e-07
1.97703e-07
2.00689e-07
2.03508e-07
2.0617e-07
2.08682e-07
2.11051e-07
2.13285e-07
2.15391e-07
2.17377e-07
2.19247e-07
2.2101e-07
2.2267e-07
2.24233e-07
2.25705e-07
2.27092e-07
2.28397e-07
2.29625e-07
2.30782e-07
2.31871e-07
2.32895e-07
2.3386e-07
2.34767e-07
2.35621e-07
2.36425e-07
2.37182e-07
2.37893e-07
2.38563e-07
2.39192e-07
2.39785e-07
2.40342e-07
2.40866e-07
2.41359e-07
2.41822e-07
2.42258e-07
2.42668e-07
2.43053e-07
2.43415e-07
2.43755e-07
2.44074e-07
2.44374e-07
2.44656e-07
2.44921e-07
2.45169e-07
2.45402e-07
2.45621e-07
2.45827e-07
2.46019e-07
2.462e-07
2.46369e-07
2.46528e-07
2.46677e-07
2.46817e-07
2.46947e-07
2.4707e-07
2.47184e-07
2.47292e-07
2.47392e-07
2.47486e-07
2.47574e-07
2.47656e-07
2.47733e-07
2.47804e-07
2.47871e-07
2.47934e-07
2.47992e-07
2.48047e-07
2.48098e-07
2.48145e-07
2.4819e-07
2.48231e-07
2.48269e-07
2.48305e-07
2.48338e-07
2.48369e-07
2.48398e-07
2.48425e-07
2.4845e-07
2.48473e-07
2.48494e-07
2.48514e-07
2.48533e-07
2.4855e-07
2.48566e-07
2.48581e-07
2.48594e-07
2.48607e-07
2.48618e-07
2.48629e-07
2.48639e-07
2.48648e-07
2.48657e-07
2.48665e-07
2.48672e-07
2.48679e-07
2.48685e-07
2.48691e-07
2.48696e-07
2.487e-07
2.48705e-07
2.48709e-07
2.48713e-07
2.48716e-07
2.48719e-07
2.48722e-07
2.48724e-07
2.48727e-07
2.48729e-07
2.48731e-07
2.48732e-07
2.48734e-07
2.48735e-07
2.48736e-07
2.48738e-07
2.48738e-07
2.48739e-07
2.48739e-07
2.48741e-07
2.4874e-07
2.48742e-07
2.48741e-07
2.48743e-07
2.48742e-07
2.48745e-07
2.48743e-07
2.48747e-07
2.48746e-07
2.4875e-07
2.48749e-07
2.48752e-07
2.48752e-07
2.48755e-07
2.48754e-07
2.48755e-07
2.48755e-07
2.48756e-07
2.48755e-07
2.48755e-07
2.48755e-07
2.48755e-07
2.48754e-07
2.48755e-07
2.48754e-07
2.48754e-07
2.48754e-07
2.48754e-07
2.48755e-07
2.48756e-07
2.48803e-07
2.48806e-07
1.61973e-07
1.68542e-07
1.74795e-07
1.80716e-07
1.86307e-07
1.91575e-07
1.96529e-07
2.01177e-07
2.05531e-07
2.09611e-07
2.13437e-07
2.17025e-07
2.2039e-07
2.23544e-07
2.26498e-07
2.29264e-07
2.31854e-07
2.34277e-07
2.36546e-07
2.38669e-07
2.40656e-07
2.42516e-07
2.44257e-07
2.45888e-07
2.47414e-07
2.48844e-07
2.50183e-07
2.51438e-07
2.52613e-07
2.53714e-07
2.54746e-07
2.55714e-07
2.56621e-07
2.57472e-07
2.58269e-07
2.59017e-07
2.59719e-07
2.60378e-07
2.60996e-07
2.61576e-07
2.6212e-07
2.6263e-07
2.6311e-07
2.6356e-07
2.63982e-07
2.64379e-07
2.64751e-07
2.651e-07
2.65428e-07
2.65736e-07
2.66025e-07
2.66297e-07
2.66551e-07
2.6679e-07
2.67014e-07
2.67225e-07
2.67422e-07
2.67607e-07
2.67781e-07
2.67943e-07
2.68096e-07
2.68239e-07
2.68373e-07
2.68499e-07
2.68617e-07
2.68727e-07
2.6883e-07
2.68927e-07
2.69017e-07
2.69102e-07
2.69181e-07
2.69256e-07
2.69325e-07
2.6939e-07
2.6945e-07
2.69507e-07
2.6956e-07
2.6961e-07
2.69656e-07
2.69699e-07
2.69739e-07
2.69777e-07
2.69812e-07
2.69844e-07
2.69875e-07
2.69903e-07
2.69929e-07
2.69954e-07
2.69977e-07
2.69998e-07
2.70018e-07
2.70036e-07
2.70053e-07
2.70069e-07
2.70084e-07
2.70097e-07
2.7011e-07
2.70122e-07
2.70132e-07
2.70143e-07
2.70152e-07
2.7016e-07
2.70168e-07
2.70176e-07
2.70183e-07
2.70189e-07
2.70195e-07
2.702e-07
2.70205e-07
2.70209e-07
2.70213e-07
2.70217e-07
2.70221e-07
2.70224e-07
2.70227e-07
2.7023e-07
2.70232e-07
2.70234e-07
2.70236e-07
2.70238e-07
2.7024e-07
2.70242e-07
2.70243e-07
2.70244e-07
2.70245e-07
2.70246e-07
2.70247e-07
2.70248e-07
2.70248e-07
2.70249e-07
2.70249e-07
2.70251e-07
2.7025e-07
2.70251e-07
2.70251e-07
2.70252e-07
2.70251e-07
2.70253e-07
2.70252e-07
2.70255e-07
2.70254e-07
2.70257e-07
2.70256e-07
2.70259e-07
2.70259e-07
2.70261e-07
2.7026e-07
2.70261e-07
2.70261e-07
2.70261e-07
2.70261e-07
2.70261e-07
2.70261e-07
2.70261e-07
2.70261e-07
2.70261e-07
2.7026e-07
2.70261e-07
2.7026e-07
2.7026e-07
2.70261e-07
2.70262e-07
2.70298e-07
2.6972e-07
1.94102e-07
2.00435e-07
2.0636e-07
2.11879e-07
2.17007e-07
2.21764e-07
2.26171e-07
2.30249e-07
2.34017e-07
2.37502e-07
2.40731e-07
2.43725e-07
2.46501e-07
2.49075e-07
2.51463e-07
2.53677e-07
2.55731e-07
2.57638e-07
2.59408e-07
2.61052e-07
2.62579e-07
2.64e-07
2.65321e-07
2.66551e-07
2.67695e-07
2.68762e-07
2.69755e-07
2.70682e-07
2.71546e-07
2.72353e-07
2.73106e-07
2.73809e-07
2.74466e-07
2.7508e-07
2.75654e-07
2.7619e-07
2.76693e-07
2.77163e-07
2.77603e-07
2.78015e-07
2.78401e-07
2.78762e-07
2.79101e-07
2.79418e-07
2.79716e-07
2.79994e-07
2.80256e-07
2.80501e-07
2.8073e-07
2.80946e-07
2.81148e-07
2.81337e-07
2.81515e-07
2.81681e-07
2.81837e-07
2.81983e-07
2.8212e-07
2.82249e-07
2.82369e-07
2.82482e-07
2.82588e-07
2.82687e-07
2.8278e-07
2.82867e-07
2.82949e-07
2.83025e-07
2.83096e-07
2.83163e-07
2.83226e-07
2.83284e-07
2.83339e-07
2.8339e-07
2.83438e-07
2.83483e-07
2.83525e-07
2.83564e-07
2.836e-07
2.83634e-07
2.83666e-07
2.83696e-07
2.83724e-07
2.8375e-07
2.83774e-07
2.83796e-07
2.83817e-07
2.83837e-07
2.83855e-07
2.83872e-07
2.83888e-07
2.83903e-07
2.83916e-07
2.83929e-07
2.83941e-07
2.83951e-07
2.83962e-07
2.83971e-07
2.8398e-07
2.83988e-07
2.83995e-07
2.84002e-07
2.84009e-07
2.84015e-07
2.8402e-07
2.84025e-07
2.8403e-07
2.84034e-07
2.84038e-07
2.84042e-07
2.84045e-07
2.84048e-07
2.84051e-07
2.84054e-07
2.84056e-07
2.84058e-07
2.84061e-07
2.84062e-07
2.84064e-07
2.84066e-07
2.84067e-07
2.84068e-07
2.8407e-07
2.84071e-07
2.84071e-07
2.84073e-07
2.84073e-07
2.84074e-07
2.84074e-07
2.84075e-07
2.84075e-07
2.84076e-07
2.84076e-07
2.84077e-07
2.84076e-07
2.84077e-07
2.84077e-07
2.84078e-07
2.84077e-07
2.84079e-07
2.84078e-07
2.8408e-07
2.84079e-07
2.84081e-07
2.84081e-07
2.84083e-07
2.84082e-07
2.84084e-07
2.84083e-07
2.84084e-07
2.84084e-07
2.84084e-07
2.84084e-07
2.84084e-07
2.84084e-07
2.84084e-07
2.84084e-07
2.84084e-07
2.84084e-07
2.84084e-07
2.84084e-07
2.84084e-07
2.84084e-07
2.84084e-07
2.84111e-07
2.82806e-07
2.36757e-07
2.41908e-07
2.46599e-07
2.50857e-07
2.54714e-07
2.58211e-07
2.61377e-07
2.64245e-07
2.66841e-07
2.69198e-07
2.71341e-07
2.73294e-07
2.75077e-07
2.76704e-07
2.78192e-07
2.79553e-07
2.80799e-07
2.81942e-07
2.82991e-07
2.83955e-07
2.84842e-07
2.85659e-07
2.86412e-07
2.87107e-07
2.87749e-07
2.88343e-07
2.88893e-07
2.89402e-07
2.89875e-07
2.90313e-07
2.90721e-07
2.91099e-07
2.91451e-07
2.91779e-07
2.92085e-07
2.92369e-07
2.92635e-07
2.92882e-07
2.93113e-07
2.93329e-07
2.93531e-07
2.93719e-07
2.93896e-07
2.94061e-07
2.94215e-07
2.94359e-07
2.94494e-07
2.94621e-07
2.94739e-07
2.9485e-07
2.94954e-07
2.95051e-07
2.95142e-07
2.95228e-07
2.95308e-07
2.95383e-07
2.95453e-07
2.95518e-07
2.9558e-07
2.95638e-07
2.95692e-07
2.95742e-07
2.9579e-07
2.95834e-07
2.95876e-07
2.95914e-07
2.95951e-07
2.95985e-07
2.96017e-07
2.96046e-07
2.96074e-07
2.961e-07
2.96125e-07
2.96147e-07
2.96169e-07
2.96189e-07
2.96207e-07
2.96225e-07
2.96241e-07
2.96256e-07
2.9627e-07
2.96283e-07
2.96296e-07
2.96307e-07
2.96318e-07
2.96328e-07
2.96337e-07
2.96346e-07
2.96354e-07
2.96361e-07
2.96368e-07
2.96375e-07
2.96381e-07
2.96386e-07
2.96391e-07
2.96396e-07
2.96401e-07
2.96405e-07
2.96408e-07
2.96412e-07
2.96415e-07
2.96418e-07
2.96421e-07
2.96424e-07
2.96426e-07
2.96428e-07
2.9643e-07
2.96432e-07
2.96434e-07
2.96436e-07
2.96437e-07
2.96438e-07
2.9644e-07
2.96441e-07
2.96442e-07
2.96443e-07
2.96444e-07
2.96444e-07
2.96445e-07
2.96446e-07
2.96446e-07
2.96447e-07
2.96447e-07
2.96448e-07
2.96448e-07
2.96449e-07
2.96449e-07
2.96449e-07
2.96449e-07
2.9645e-07
2.96449e-07
2.9645e-07
2.9645e-07
2.9645e-07
2.9645e-07
2.96451e-07
2.9645e-07
2.96451e-07
2.9645e-07
2.96452e-07
2.96451e-07
2.96453e-07
2.96452e-07
2.96453e-07
2.96452e-07
2.96454e-07
2.96453e-07
2.96454e-07
2.96453e-07
2.96454e-07
2.96453e-07
2.96454e-07
2.96453e-07
2.96454e-07
2.96453e-07