/*--------------------------------*- C++ -*----------------------------------*\
| =========                 |                                                 |
| \\      /  F ield         | OpenFOAM: The Open Source CFD Toolbox           |
|  \\    /   O peration     | Version:  v1912                                 |
|   \\  /    A nd           | Website:  www.openfoam.com                      |
|    \\/     M anipulation  |                                                 |
\*---------------------------------------------------------------------------*/
FoamFile
{
    version     2.0;
    format      ascii;
    class       volScalarField;
    location    "40";
    object      k;
}
// * * * * * * * * * * * * * * * * * * * * * * * * * * * * * * * * * * * * * //

dimensions      [0 2 -2 0 0 0 0];


internalField   nonuniform List<scalar> 
14268
(
1.96571e-09
1.84618e-09
1.71295e-09
1.55966e-09
1.39848e-09
1.16894e-09
9.2033e-10
8.73528e-10
4.27082e-08
3.9893e-08
3.68363e-08
3.34363e-08
2.99509e-08
2.4846e-08
1.91799e-08
1.8007e-08
9.01218e-08
8.80908e-08
8.55952e-08
8.24305e-08
7.86527e-08
7.17448e-08
6.14139e-08
5.82571e-08
1.04346e-07
1.0378e-07
1.03051e-07
1.02123e-07
1.00946e-07
9.83841e-08
9.39558e-08
9.26775e-08
1.0727e-07
1.07244e-07
1.07222e-07
1.07296e-07
1.07348e-07
1.07561e-07
1.07289e-07
1.06529e-07
1.07718e-07
1.07845e-07
1.08e-07
1.0823e-07
1.08675e-07
1.09974e-07
1.12055e-07
1.12524e-07
1.07758e-07
1.07878e-07
1.08088e-07
1.08594e-07
1.09255e-07
1.1072e-07
1.13578e-07
1.14121e-07
1.07818e-07
1.07974e-07
1.08163e-07
1.08474e-07
1.09124e-07
1.10846e-07
1.13975e-07
1.14757e-07
1.0775e-07
1.07893e-07
1.08164e-07
1.08561e-07
1.0918e-07
1.1092e-07
1.1434e-07
1.15452e-07
1.07857e-07
1.07991e-07
1.08155e-07
1.08655e-07
1.09235e-07
1.10886e-07
1.14296e-07
1.15191e-07
1.07658e-07
1.07812e-07
1.08079e-07
1.0847e-07
1.0925e-07
1.10883e-07
1.14171e-07
1.15362e-07
1.08021e-07
1.08127e-07
1.08251e-07
1.08604e-07
1.09256e-07
1.11046e-07
1.14468e-07
1.15363e-07
1.07707e-07
1.07784e-07
1.07991e-07
1.0842e-07
1.08984e-07
1.10725e-07
1.14086e-07
1.15178e-07
1.08269e-07
1.08322e-07
1.08463e-07
1.08735e-07
1.0937e-07
1.11029e-07
1.1442e-07
1.15448e-07
1.07819e-07
1.0801e-07
1.08348e-07
1.08805e-07
1.0991e-07
1.11188e-07
1.14461e-07
1.15079e-07
1.0794e-07
1.0805e-07
1.08309e-07
1.08761e-07
1.09845e-07
1.11889e-07
1.16545e-07
1.15458e-07
1.07668e-07
1.07836e-07
1.0802e-07
1.08409e-07
1.09104e-07
1.11153e-07
1.16637e-07
1.16141e-07
1.08026e-07
1.08168e-07
1.08422e-07
1.08833e-07
1.0953e-07
1.11336e-07
1.16542e-07
1.1723e-07
1.07504e-07
1.07616e-07
1.07806e-07
1.08199e-07
1.08795e-07
1.10455e-07
1.14798e-07
1.16387e-07
1.08074e-07
1.08241e-07
1.08511e-07
1.08928e-07
1.09602e-07
1.11189e-07
1.15276e-07
1.1668e-07
1.07459e-07
1.07506e-07
1.07671e-07
1.08043e-07
1.08564e-07
1.10155e-07
1.13942e-07
1.15563e-07
1.0823e-07
1.08137e-07
1.08214e-07
1.08562e-07
1.09132e-07
1.11053e-07
1.1425e-07
1.15618e-07
1.46033e-07
1.36258e-07
1.27136e-07
1.2029e-07
1.1482e-07
1.12402e-07
1.15261e-07
1.15592e-07
2.9963e-07
2.54544e-07
2.27664e-07
2.08045e-07
1.8984e-07
1.61106e-07
1.31318e-07
9.55733e-08
2.59975e-07
3.98861e-07
6.37369e-07
1.00425e-06
1.5532e-06
2.3549e-06
3.54557e-06
4.61495e-06
7.16281e-05
8.25633e-05
9.49621e-05
0.000105996
0.000117328
0.000129413
0.000129431
0.000119536
0.00124514
0.00140967
0.00158825
0.00174547
0.00193727
0.00201227
0.00229003
0.00213883
0.472676
0.470681
0.467051
0.461894
0.455303
0.448515
0.441526
0.434817
0.779718
0.755504
0.731128
0.707127
0.682885
0.659957
0.634504
0.611169
0.679891
0.663919
0.647339
0.630171
0.612118
0.593097
0.573117
0.551731
0.674457
0.662478
0.649319
0.635377
0.62052
0.605865
0.58937
0.571378
0.594601
0.588406
0.581207
0.573396
0.564463
0.555094
0.544114
0.531429
0.527556
0.526383
0.524269
0.521843
0.518501
0.515298
0.510716
0.504103
0.452814
0.45558
0.457643
0.45995
0.461007
0.463087
0.463059
0.461251
0.377824
0.383489
0.388903
0.39493
0.400415
0.40727
0.412155
0.414685
0.303792
0.311409
0.319105
0.327673
0.336348
0.346704
0.356527
0.363731
0.232676
0.241301
0.250302
0.26058
0.27157
0.284624
0.29758
0.308142
0.167297
0.176115
0.185396
0.196364
0.208321
0.222815
0.237944
0.251721
0.109619
0.117952
0.126694
0.137686
0.1495
0.164227
0.179619
0.194465
0.062088
0.0694391
0.0769926
0.0872472
0.0981124
0.112056
0.126244
0.140118
0.026289
0.0317947
0.0375163
0.0458202
0.054547
0.0663215
0.0780704
0.0897956
0.00557856
0.00815117
0.0111752
0.0160455
0.021662
0.0299137
0.0384017
0.0471502
0.000225658
0.0005106
0.0010078
0.00212356
0.00386675
0.00705659
0.0108828
0.0153329
3.80272e-07
1.55452e-06
6.24376e-06
2.84948e-05
9.75764e-05
0.000316972
0.000721133
0.00140357
1.07901e-07
1.08017e-07
1.08487e-07
1.14197e-07
1.62235e-07
5.83293e-07
2.58744e-06
1.08538e-05
1.07851e-07
1.07844e-07
1.07715e-07
1.07714e-07
1.07737e-07
1.09145e-07
1.19597e-07
1.95713e-07
1.08142e-07
1.08159e-07
1.08006e-07
1.07976e-07
1.07637e-07
1.07381e-07
1.07308e-07
1.08826e-07
1.08077e-07
1.08129e-07
1.08082e-07
1.08253e-07
1.08232e-07
1.08401e-07
1.08468e-07
1.0857e-07
1.08261e-07
1.0825e-07
1.08088e-07
1.08099e-07
1.07856e-07
1.07702e-07
1.07401e-07
1.0718e-07
1.08271e-07
1.08354e-07
1.08316e-07
1.0855e-07
1.08519e-07
1.08756e-07
1.08787e-07
1.08868e-07
1.08287e-07
1.08291e-07
1.08156e-07
1.0823e-07
1.07998e-07
1.07942e-07
1.07644e-07
1.07449e-07
1.08388e-07
1.08471e-07
1.08453e-07
1.08695e-07
1.08679e-07
1.08947e-07
1.08937e-07
1.09048e-07
1.08331e-07
1.08341e-07
1.08217e-07
1.08297e-07
1.08078e-07
1.08087e-07
1.07816e-07
1.0768e-07
1.08461e-07
1.08556e-07
1.0855e-07
1.08773e-07
1.08753e-07
1.09005e-07
1.08984e-07
1.09095e-07
1.08363e-07
1.08384e-07
1.08274e-07
1.08339e-07
1.08129e-07
1.08181e-07
1.07934e-07
1.07871e-07
1.08508e-07
1.08615e-07
1.08625e-07
1.08807e-07
1.08793e-07
1.09007e-07
1.0897e-07
1.09063e-07
1.08387e-07
1.08403e-07
1.08318e-07
1.08353e-07
1.08186e-07
1.08243e-07
1.08029e-07
1.08025e-07
1.08566e-07
1.08631e-07
1.08676e-07
1.088e-07
1.0881e-07
1.08981e-07
1.08915e-07
1.08995e-07
1.08412e-07
1.08405e-07
1.0835e-07
1.08352e-07
1.0823e-07
1.08288e-07
1.08104e-07
1.08152e-07
1.08591e-07
1.08632e-07
1.08709e-07
1.08784e-07
1.08807e-07
1.08938e-07
1.0885e-07
1.0892e-07
1.08437e-07
1.08412e-07
1.08372e-07
1.0836e-07
1.08258e-07
1.08318e-07
1.08159e-07
1.08245e-07
1.08617e-07
1.08653e-07
1.08714e-07
1.08773e-07
1.08788e-07
1.08895e-07
1.08793e-07
1.08855e-07
1.08467e-07
1.08432e-07
1.08393e-07
1.08373e-07
1.08283e-07
1.08338e-07
1.08198e-07
1.08298e-07
1.08645e-07
1.08673e-07
1.08716e-07
1.08764e-07
1.08768e-07
1.08855e-07
1.08746e-07
1.08803e-07
1.08497e-07
1.08463e-07
1.08418e-07
1.08395e-07
1.08312e-07
1.08357e-07
1.08231e-07
1.0833e-07
1.08666e-07
1.08692e-07
1.08717e-07
1.08755e-07
1.08749e-07
1.08819e-07
1.0871e-07
1.08763e-07
1.08521e-07
1.08491e-07
1.08449e-07
1.08419e-07
1.08347e-07
1.08381e-07
1.08267e-07
1.08355e-07
1.08679e-07
1.08699e-07
1.08719e-07
1.08743e-07
1.0873e-07
1.08783e-07
1.08682e-07
1.08726e-07
1.08543e-07
1.08512e-07
1.08475e-07
1.08441e-07
1.0838e-07
1.08403e-07
1.08302e-07
1.08379e-07
1.08687e-07
1.087e-07
1.08713e-07
1.08728e-07
1.08709e-07
1.08747e-07
1.08656e-07
1.0869e-07
1.0856e-07
1.08529e-07
1.08495e-07
1.08464e-07
1.08409e-07
1.08424e-07
1.08335e-07
1.084e-07
1.08688e-07
1.08696e-07
1.08706e-07
1.08715e-07
1.08691e-07
1.08717e-07
1.08634e-07
1.08658e-07
1.08558e-07
1.08533e-07
1.08506e-07
1.08484e-07
1.0844e-07
1.08451e-07
1.08376e-07
1.08426e-07
1.08661e-07
1.0867e-07
1.08679e-07
1.08687e-07
1.08666e-07
1.08686e-07
1.08616e-07
1.08635e-07
1.08507e-07
1.08492e-07
1.08475e-07
1.08462e-07
1.08432e-07
1.08444e-07
1.08385e-07
1.08427e-07
1.08585e-07
1.08599e-07
1.0861e-07
1.08623e-07
1.08617e-07
1.08626e-07
1.08558e-07
1.08572e-07
1.08425e-07
1.08413e-07
1.08402e-07
1.084e-07
1.08388e-07
1.08402e-07
1.08362e-07
1.0839e-07
1.0859e-07
1.08586e-07
1.08582e-07
1.08579e-07
1.08551e-07
1.08541e-07
1.08486e-07
1.0848e-07
1.08465e-07
1.08455e-07
1.08442e-07
1.08433e-07
1.08417e-07
1.08421e-07
1.08392e-07
1.084e-07
1.08504e-07
1.08507e-07
1.08501e-07
1.08495e-07
1.08476e-07
1.08462e-07
1.08428e-07
1.08418e-07
1.08405e-07
1.08399e-07
1.08389e-07
1.08383e-07
1.08371e-07
1.08368e-07
1.08352e-07
1.0835e-07
1.0843e-07
1.08433e-07
1.08429e-07
1.08424e-07
1.0841e-07
1.08399e-07
1.08377e-07
1.08363e-07
1.08386e-07
1.08377e-07
1.08366e-07
1.08357e-07
1.08346e-07
1.08339e-07
1.08326e-07
1.08319e-07
1.08585e-07
1.08538e-07
1.08496e-07
1.0846e-07
1.08426e-07
1.08398e-07
1.0837e-07
1.08347e-07
1.11172e-07
1.10609e-07
1.10123e-07
1.09713e-07
1.0937e-07
1.09091e-07
1.08867e-07
1.08691e-07
1.39719e-07
1.35445e-07
1.31432e-07
1.27709e-07
1.24307e-07
1.2124e-07
1.18528e-07
1.16172e-07
3.78442e-07
3.61807e-07
3.4435e-07
3.26102e-07
3.07142e-07
2.87506e-07
2.67305e-07
2.46574e-07
1.1853e-09
1.62966e-09
1.89903e-09
2.07649e-09
2.2404e-09
2.37057e-09
2.4843e-09
2.59944e-09
2.66714e-09
2.69363e-09
2.7043e-09
2.71342e-09
2.7292e-09
2.74088e-09
2.74627e-09
2.75218e-09
2.76464e-09
2.78549e-09
2.79279e-09
2.77468e-09
2.76215e-09
2.77243e-09
2.803e-09
2.82648e-09
2.81429e-09
2.74116e-09
2.62706e-09
2.51096e-09
2.41236e-09
2.34245e-09
2.30158e-09
2.28122e-09
2.2721e-09
2.26723e-09
2.26484e-09
2.26387e-09
2.26411e-09
2.26707e-09
2.27079e-09
2.27393e-09
2.27663e-09
2.27936e-09
2.28075e-09
2.27856e-09
2.27374e-09
2.26764e-09
2.26073e-09
2.25316e-09
2.25107e-09
2.24812e-09
2.24293e-09
2.23582e-09
2.23143e-09
2.22887e-09
2.22636e-09
2.22385e-09
2.22108e-09
2.21778e-09
2.21385e-09
2.21084e-09
2.20989e-09
2.21358e-09
2.23096e-09
2.25743e-09
2.28176e-09
2.30418e-09
2.32496e-09
2.35028e-09
2.37867e-09
2.41244e-09
2.45112e-09
2.48885e-09
2.52344e-09
2.55045e-09
2.56204e-09
2.57163e-09
2.58037e-09
2.58985e-09
2.59987e-09
2.60816e-09
2.61257e-09
2.60969e-09
2.60391e-09
2.59788e-09
2.58606e-09
2.56543e-09
2.5411e-09
2.51717e-09
2.49547e-09
2.47517e-09
2.45316e-09
2.43105e-09
2.41323e-09
2.39807e-09
2.38405e-09
2.3684e-09
2.35051e-09
2.32919e-09
2.30529e-09
2.28172e-09
2.26031e-09
2.24147e-09
2.22267e-09
2.20153e-09
2.18375e-09
2.20929e-09
2.29067e-09
2.41912e-09
2.54738e-09
2.6644e-09
2.79539e-09
2.93852e-09
3.08084e-09
3.1715e-09
3.20325e-09
3.15726e-09
3.0266e-09
2.83222e-09
2.62139e-09
2.4726e-09
2.41941e-09
2.47092e-09
2.60433e-09
2.72525e-09
2.83425e-09
2.94888e-09
3.07423e-09
3.16491e-09
3.07915e-09
3.01565e-09
2.94711e-09
2.89655e-09
3.12602e-09
3.21284e-09
2.95907e-09
2.7793e-09
2.68353e-09
2.50991e-09
2.43701e-09
2.52428e-09
2.53251e-09
2.44972e-09
2.35333e-09
2.34527e-09
2.47315e-09
2.49609e-09
2.45014e-09
2.38609e-09
2.39111e-09
2.45577e-09
2.50028e-09
2.49019e-09
2.43233e-09
2.37587e-09
2.35994e-09
2.43441e-09
2.49282e-08
3.5295e-08
4.16467e-08
4.57648e-08
4.96644e-08
5.24166e-08
5.40787e-08
5.4839e-08
5.51133e-08
5.52132e-08
5.52647e-08
5.53102e-08
5.53741e-08
5.53935e-08
5.53344e-08
5.52672e-08
5.52244e-08
5.52183e-08
5.51214e-08
5.48899e-08
5.46977e-08
5.45703e-08
5.44905e-08
5.43455e-08
5.40743e-08
5.35945e-08
5.29929e-08
5.24207e-08
5.19558e-08
5.16327e-08
5.14419e-08
5.13449e-08
5.12946e-08
5.1255e-08
5.12322e-08
5.12231e-08
5.12236e-08
5.12299e-08
5.12424e-08
5.12519e-08
5.12595e-08
5.12713e-08
5.12747e-08
5.1254e-08
5.12168e-08
5.11702e-08
5.11211e-08
5.10531e-08
5.09768e-08
5.09228e-08
5.08734e-08
5.08114e-08
5.06884e-08
5.05726e-08
5.04695e-08
5.03747e-08
5.02927e-08
5.02328e-08
5.01899e-08
5.01689e-08
5.01854e-08
5.02546e-08
5.04058e-08
5.05761e-08
5.0666e-08
5.07092e-08
5.06902e-08
5.07098e-08
5.07511e-08
5.08523e-08
5.10128e-08
5.11855e-08
5.1354e-08
5.14676e-08
5.14455e-08
5.14518e-08
5.14861e-08
5.15571e-08
5.16456e-08
5.17407e-08
5.18419e-08
5.1919e-08
5.2007e-08
5.20921e-08
5.20552e-08
5.19262e-08
5.17996e-08
5.16892e-08
5.15832e-08
5.14741e-08
5.13522e-08
5.12223e-08
5.10921e-08
5.09524e-08
5.07846e-08
5.05228e-08
5.01536e-08
4.96827e-08
4.91429e-08
4.85886e-08
4.80541e-08
4.75547e-08
4.70854e-08
4.66761e-08
4.64396e-08
4.65212e-08
4.69162e-08
4.76098e-08
4.81634e-08
4.86236e-08
4.92963e-08
5.01914e-08
5.11678e-08
5.18623e-08
5.2242e-08
5.2036e-08
5.10506e-08
4.91842e-08
4.66285e-08
4.46896e-08
4.39647e-08
4.47342e-08
4.67786e-08
4.81696e-08
4.88883e-08
4.94653e-08
5.01651e-08
5.03949e-08
4.94487e-08
4.9118e-08
4.88137e-08
4.85637e-08
5.10278e-08
5.17008e-08
4.89297e-08
4.60238e-08
4.47396e-08
4.45469e-08
4.33648e-08
4.25153e-08
4.2747e-08
4.33652e-08
4.41398e-08
4.4374e-08
4.34412e-08
4.24794e-08
4.1969e-08
4.18796e-08
4.23079e-08
4.28917e-08
4.32804e-08
4.33497e-08
4.31885e-08
4.29513e-08
4.2644e-08
4.2493e-08
7.12295e-08
8.41496e-08
8.96405e-08
9.22415e-08
9.45271e-08
9.60292e-08
9.69183e-08
9.72598e-08
9.73639e-08
9.73796e-08
9.7387e-08
9.73872e-08
9.74067e-08
9.73917e-08
9.73435e-08
9.72898e-08
9.72503e-08
9.72273e-08
9.71768e-08
9.70547e-08
9.69559e-08
9.68765e-08
9.68282e-08
9.67525e-08
9.66374e-08
9.6434e-08
9.61794e-08
9.59387e-08
9.57458e-08
9.5611e-08
9.55311e-08
9.54887e-08
9.54671e-08
9.54492e-08
9.54387e-08
9.54325e-08
9.54306e-08
9.54289e-08
9.54321e-08
9.54341e-08
9.54353e-08
9.54398e-08
9.54415e-08
9.54318e-08
9.54147e-08
9.53916e-08
9.53691e-08
9.53351e-08
9.52862e-08
9.52552e-08
9.52294e-08
9.52016e-08
9.51252e-08
9.5057e-08
9.4996e-08
9.49393e-08
9.48907e-08
9.48585e-08
9.48393e-08
9.4834e-08
9.48504e-08
9.48953e-08
9.49814e-08
9.5074e-08
9.51086e-08
9.51214e-08
9.50971e-08
9.50949e-08
9.50981e-08
9.51344e-08
9.51995e-08
9.52711e-08
9.53399e-08
9.53895e-08
9.53634e-08
9.53595e-08
9.53688e-08
9.54008e-08
9.54413e-08
9.54843e-08
9.5532e-08
9.557e-08
9.56157e-08
9.56616e-08
9.5646e-08
9.55846e-08
9.55277e-08
9.54794e-08
9.54337e-08
9.53835e-08
9.53271e-08
9.5265e-08
9.51953e-08
9.51135e-08
9.50117e-08
9.48512e-08
9.46232e-08
9.43302e-08
9.39924e-08
9.36387e-08
9.32926e-08
9.2973e-08
9.26798e-08
9.24442e-08
9.23365e-08
9.24014e-08
9.26023e-08
9.29376e-08
9.31955e-08
9.34058e-08
9.37333e-08
9.41794e-08
9.46699e-08
9.50294e-08
9.52409e-08
9.51267e-08
9.45964e-08
9.35689e-08
9.20181e-08
9.07322e-08
9.02449e-08
9.07527e-08
9.20945e-08
9.29106e-08
9.32704e-08
9.35483e-08
9.39225e-08
9.40365e-08
9.34901e-08
9.32789e-08
9.31375e-08
9.29817e-08
9.43169e-08
9.46809e-08
9.30258e-08
9.11302e-08
9.02289e-08
9.04723e-08
8.96247e-08
8.86948e-08
8.8924e-08
8.95552e-08
9.03513e-08
9.06982e-08
8.97449e-08
8.89194e-08
8.85811e-08
8.86925e-08
8.90658e-08
8.94251e-08
8.9674e-08
8.97462e-08
8.97337e-08
8.96665e-08
8.94015e-08
8.90848e-08
9.86929e-08
1.02694e-07
1.04192e-07
1.04863e-07
1.05604e-07
1.06104e-07
1.06427e-07
1.06545e-07
1.06584e-07
1.06577e-07
1.06582e-07
1.06575e-07
1.06583e-07
1.06577e-07
1.06559e-07
1.06531e-07
1.06511e-07
1.06504e-07
1.06493e-07
1.06448e-07
1.06411e-07
1.06378e-07
1.06361e-07
1.06338e-07
1.06314e-07
1.06257e-07
1.06185e-07
1.06119e-07
1.06067e-07
1.06031e-07
1.06012e-07
1.06001e-07
1.05998e-07
1.05995e-07
1.05996e-07
1.05995e-07
1.05994e-07
1.05992e-07
1.05993e-07
1.05993e-07
1.05994e-07
1.05997e-07
1.05999e-07
1.05998e-07
1.05995e-07
1.05987e-07
1.0598e-07
1.05971e-07
1.05956e-07
1.05948e-07
1.05941e-07
1.05937e-07
1.05911e-07
1.05892e-07
1.05874e-07
1.05857e-07
1.05842e-07
1.05833e-07
1.05827e-07
1.05824e-07
1.05832e-07
1.05847e-07
1.05875e-07
1.05906e-07
1.05909e-07
1.05914e-07
1.05902e-07
1.05902e-07
1.05899e-07
1.05906e-07
1.05923e-07
1.05941e-07
1.05957e-07
1.05972e-07
1.05961e-07
1.05962e-07
1.05963e-07
1.05973e-07
1.05985e-07
1.05997e-07
1.06011e-07
1.0602e-07
1.06033e-07
1.06049e-07
1.06044e-07
1.06026e-07
1.06012e-07
1.06e-07
1.0599e-07
1.05979e-07
1.05966e-07
1.0595e-07
1.05932e-07
1.05908e-07
1.05877e-07
1.05826e-07
1.05753e-07
1.0566e-07
1.05552e-07
1.05437e-07
1.05323e-07
1.05219e-07
1.05127e-07
1.05061e-07
1.05037e-07
1.05064e-07
1.05113e-07
1.05199e-07
1.05265e-07
1.05321e-07
1.05411e-07
1.05535e-07
1.05678e-07
1.05799e-07
1.05879e-07
1.05827e-07
1.05662e-07
1.05359e-07
1.04866e-07
1.0446e-07
1.04304e-07
1.0443e-07
1.04853e-07
1.05113e-07
1.05242e-07
1.05323e-07
1.05425e-07
1.05493e-07
1.05341e-07
1.05224e-07
1.05199e-07
1.05141e-07
1.05512e-07
1.05673e-07
1.05095e-07
1.04478e-07
1.04142e-07
1.04378e-07
1.04088e-07
1.03648e-07
1.03847e-07
1.04009e-07
1.04299e-07
1.04477e-07
1.04129e-07
1.03857e-07
1.03741e-07
1.03786e-07
1.03913e-07
1.04012e-07
1.04092e-07
1.0411e-07
1.04127e-07
1.04143e-07
1.04054e-07
1.03905e-07
1.0745e-07
1.07498e-07
1.07568e-07
1.07458e-07
1.07637e-07
1.07772e-07
1.07904e-07
1.07931e-07
1.07946e-07
1.07922e-07
1.07915e-07
1.07902e-07
1.07904e-07
1.07891e-07
1.0787e-07
1.07848e-07
1.07833e-07
1.07826e-07
1.07822e-07
1.07792e-07
1.0777e-07
1.07745e-07
1.07737e-07
1.07723e-07
1.07716e-07
1.07696e-07
1.07666e-07
1.07642e-07
1.07626e-07
1.07615e-07
1.07611e-07
1.07608e-07
1.07609e-07
1.0761e-07
1.07612e-07
1.07611e-07
1.0761e-07
1.07608e-07
1.07609e-07
1.07609e-07
1.07609e-07
1.0761e-07
1.07611e-07
1.07611e-07
1.07611e-07
1.07608e-07
1.07608e-07
1.07607e-07
1.07602e-07
1.076e-07
1.07598e-07
1.07601e-07
1.07593e-07
1.07592e-07
1.07589e-07
1.07586e-07
1.07583e-07
1.07581e-07
1.07581e-07
1.0758e-07
1.07581e-07
1.07582e-07
1.07588e-07
1.07599e-07
1.07594e-07
1.07595e-07
1.07592e-07
1.07595e-07
1.07591e-07
1.07594e-07
1.07597e-07
1.07602e-07
1.07604e-07
1.07613e-07
1.07606e-07
1.07609e-07
1.07608e-07
1.07613e-07
1.07618e-07
1.0762e-07
1.07624e-07
1.07626e-07
1.0763e-07
1.07635e-07
1.07636e-07
1.07632e-07
1.07628e-07
1.07625e-07
1.07625e-07
1.07622e-07
1.07619e-07
1.07615e-07
1.07611e-07
1.07605e-07
1.07598e-07
1.07585e-07
1.07569e-07
1.07549e-07
1.07528e-07
1.07505e-07
1.07483e-07
1.07467e-07
1.07453e-07
1.07447e-07
1.07443e-07
1.0745e-07
1.07447e-07
1.0745e-07
1.07456e-07
1.07464e-07
1.07483e-07
1.07506e-07
1.07549e-07
1.07595e-07
1.07627e-07
1.07588e-07
1.07531e-07
1.07452e-07
1.07323e-07
1.07226e-07
1.07226e-07
1.07236e-07
1.07337e-07
1.07387e-07
1.0741e-07
1.07427e-07
1.07443e-07
1.07493e-07
1.07463e-07
1.07374e-07
1.07389e-07
1.07394e-07
1.07463e-07
1.07557e-07
1.07389e-07
1.07233e-07
1.07102e-07
1.07276e-07
1.07226e-07
1.07026e-07
1.07072e-07
1.07066e-07
1.07177e-07
1.073e-07
1.072e-07
1.07104e-07
1.07056e-07
1.07102e-07
1.07128e-07
1.07138e-07
1.07153e-07
1.07146e-07
1.07165e-07
1.07176e-07
1.07145e-07
1.07093e-07
1.10965e-07
1.08354e-07
1.0775e-07
1.07604e-07
1.0766e-07
1.07774e-07
1.07892e-07
1.07942e-07
1.07967e-07
1.07955e-07
1.07959e-07
1.07954e-07
1.0796e-07
1.07954e-07
1.07944e-07
1.07925e-07
1.07906e-07
1.07905e-07
1.07906e-07
1.07883e-07
1.07864e-07
1.07845e-07
1.07837e-07
1.07826e-07
1.07826e-07
1.07804e-07
1.07779e-07
1.07756e-07
1.07739e-07
1.07729e-07
1.07726e-07
1.07724e-07
1.07727e-07
1.07729e-07
1.07735e-07
1.07736e-07
1.07736e-07
1.07734e-07
1.07734e-07
1.07735e-07
1.07737e-07
1.07739e-07
1.07741e-07
1.07743e-07
1.07744e-07
1.0774e-07
1.07739e-07
1.07739e-07
1.07737e-07
1.07739e-07
1.07739e-07
1.07742e-07
1.07737e-07
1.07738e-07
1.07739e-07
1.07738e-07
1.07736e-07
1.07736e-07
1.07734e-07
1.07731e-07
1.07731e-07
1.07731e-07
1.07735e-07
1.07743e-07
1.07737e-07
1.07741e-07
1.07736e-07
1.07739e-07
1.07737e-07
1.07739e-07
1.07742e-07
1.07746e-07
1.07748e-07
1.07753e-07
1.07748e-07
1.07753e-07
1.07753e-07
1.07756e-07
1.07761e-07
1.07763e-07
1.07765e-07
1.07765e-07
1.07767e-07
1.0777e-07
1.07769e-07
1.07764e-07
1.07762e-07
1.07759e-07
1.07762e-07
1.07762e-07
1.07761e-07
1.0776e-07
1.0776e-07
1.0776e-07
1.07759e-07
1.07755e-07
1.07751e-07
1.07747e-07
1.07745e-07
1.07743e-07
1.07742e-07
1.07743e-07
1.07746e-07
1.07753e-07
1.07756e-07
1.07762e-07
1.07749e-07
1.0774e-07
1.07734e-07
1.07734e-07
1.07743e-07
1.07754e-07
1.07772e-07
1.078e-07
1.07824e-07
1.0779e-07
1.07756e-07
1.07729e-07
1.07683e-07
1.0769e-07
1.07723e-07
1.0768e-07
1.07712e-07
1.0773e-07
1.07737e-07
1.07738e-07
1.0775e-07
1.07796e-07
1.07775e-07
1.07686e-07
1.0771e-07
1.07725e-07
1.07734e-07
1.07814e-07
1.07703e-07
1.0768e-07
1.07595e-07
1.07744e-07
1.07724e-07
1.07592e-07
1.07731e-07
1.0766e-07
1.07666e-07
1.07732e-07
1.07683e-07
1.07667e-07
1.07688e-07
1.07707e-07
1.07697e-07
1.07654e-07
1.0764e-07
1.0762e-07
1.07633e-07
1.07683e-07
1.07684e-07
1.07656e-07
1.11283e-07
1.08731e-07
1.08127e-07
1.07874e-07
1.07889e-07
1.07958e-07
1.0806e-07
1.08068e-07
1.0808e-07
1.08054e-07
1.08047e-07
1.08032e-07
1.08031e-07
1.08016e-07
1.07995e-07
1.07974e-07
1.07966e-07
1.07959e-07
1.07958e-07
1.07931e-07
1.07913e-07
1.0789e-07
1.07883e-07
1.07873e-07
1.0787e-07
1.07855e-07
1.07832e-07
1.07814e-07
1.07804e-07
1.07797e-07
1.07796e-07
1.07795e-07
1.07796e-07
1.07798e-07
1.07801e-07
1.078e-07
1.07799e-07
1.07798e-07
1.07798e-07
1.07798e-07
1.07798e-07
1.07799e-07
1.078e-07
1.078e-07
1.078e-07
1.07799e-07
1.078e-07
1.078e-07
1.07797e-07
1.07797e-07
1.07797e-07
1.07801e-07
1.07796e-07
1.07798e-07
1.07799e-07
1.07799e-07
1.07797e-07
1.07796e-07
1.07797e-07
1.07797e-07
1.07796e-07
1.07795e-07
1.07797e-07
1.07805e-07
1.07798e-07
1.07799e-07
1.07798e-07
1.07802e-07
1.07798e-07
1.078e-07
1.07801e-07
1.07802e-07
1.07802e-07
1.0781e-07
1.07804e-07
1.07806e-07
1.07805e-07
1.07808e-07
1.0781e-07
1.07811e-07
1.07813e-07
1.07813e-07
1.07814e-07
1.07819e-07
1.07822e-07
1.0782e-07
1.07819e-07
1.07818e-07
1.07819e-07
1.07818e-07
1.07817e-07
1.07816e-07
1.07814e-07
1.07812e-07
1.0781e-07
1.07805e-07
1.07801e-07
1.07797e-07
1.07796e-07
1.07795e-07
1.07796e-07
1.07804e-07
1.0781e-07
1.0782e-07
1.07821e-07
1.07824e-07
1.07809e-07
1.07795e-07
1.0779e-07
1.07787e-07
1.0779e-07
1.07791e-07
1.07812e-07
1.07845e-07
1.07871e-07
1.07838e-07
1.07807e-07
1.07778e-07
1.07755e-07
1.07753e-07
1.07779e-07
1.07761e-07
1.07775e-07
1.07775e-07
1.0778e-07
1.07791e-07
1.07783e-07
1.0783e-07
1.07832e-07
1.07752e-07
1.07777e-07
1.07791e-07
1.07783e-07
1.07864e-07
1.07794e-07
1.07798e-07
1.0773e-07
1.07865e-07
1.07879e-07
1.07774e-07
1.07838e-07
1.07749e-07
1.07751e-07
1.07827e-07
1.07828e-07
1.07826e-07
1.07823e-07
1.07825e-07
1.07817e-07
1.07782e-07
1.07769e-07
1.0774e-07
1.07733e-07
1.07753e-07
1.07755e-07
1.07745e-07
1.11237e-07
1.08505e-07
1.07786e-07
1.07605e-07
1.07665e-07
1.07772e-07
1.07886e-07
1.07944e-07
1.07971e-07
1.07961e-07
1.07965e-07
1.07962e-07
1.07971e-07
1.07969e-07
1.07959e-07
1.07938e-07
1.07918e-07
1.07917e-07
1.07918e-07
1.07894e-07
1.07873e-07
1.07853e-07
1.07844e-07
1.07834e-07
1.07833e-07
1.07813e-07
1.07788e-07
1.07765e-07
1.07749e-07
1.07739e-07
1.07736e-07
1.07735e-07
1.07738e-07
1.0774e-07
1.07746e-07
1.07749e-07
1.07749e-07
1.07747e-07
1.07747e-07
1.07748e-07
1.0775e-07
1.07752e-07
1.07755e-07
1.07757e-07
1.07758e-07
1.07754e-07
1.07752e-07
1.07753e-07
1.07752e-07
1.07755e-07
1.07755e-07
1.07758e-07
1.07753e-07
1.07756e-07
1.07757e-07
1.07757e-07
1.07756e-07
1.07756e-07
1.07754e-07
1.07749e-07
1.07749e-07
1.07748e-07
1.07751e-07
1.07757e-07
1.07752e-07
1.07755e-07
1.0775e-07
1.07755e-07
1.07753e-07
1.07754e-07
1.07756e-07
1.07761e-07
1.07763e-07
1.07767e-07
1.07764e-07
1.0777e-07
1.0777e-07
1.07773e-07
1.07777e-07
1.07779e-07
1.07781e-07
1.07781e-07
1.07783e-07
1.07785e-07
1.07783e-07
1.07778e-07
1.07777e-07
1.07774e-07
1.07776e-07
1.07777e-07
1.07777e-07
1.07777e-07
1.07778e-07
1.07778e-07
1.07779e-07
1.07778e-07
1.07777e-07
1.07775e-07
1.07776e-07
1.07779e-07
1.07782e-07
1.0779e-07
1.07798e-07
1.07808e-07
1.07811e-07
1.07816e-07
1.07801e-07
1.07788e-07
1.07782e-07
1.07781e-07
1.07788e-07
1.07795e-07
1.07809e-07
1.07836e-07
1.07859e-07
1.07826e-07
1.07796e-07
1.07781e-07
1.07754e-07
1.07773e-07
1.07817e-07
1.07777e-07
1.07788e-07
1.07778e-07
1.07789e-07
1.07788e-07
1.07788e-07
1.07833e-07
1.07827e-07
1.07744e-07
1.07769e-07
1.0778e-07
1.07775e-07
1.0786e-07
1.07782e-07
1.07799e-07
1.07729e-07
1.07861e-07
1.07875e-07
1.07775e-07
1.0786e-07
1.07765e-07
1.07752e-07
1.07826e-07
1.07823e-07
1.07836e-07
1.07831e-07
1.07833e-07
1.07811e-07
1.07781e-07
1.07758e-07
1.07735e-07
1.07742e-07
1.07776e-07
1.07781e-07
1.07761e-07
1.1151e-07
1.08793e-07
1.08188e-07
1.07928e-07
1.07915e-07
1.07968e-07
1.08068e-07
1.08068e-07
1.08079e-07
1.08054e-07
1.08049e-07
1.08035e-07
1.08034e-07
1.08011e-07
1.07989e-07
1.07971e-07
1.07962e-07
1.07953e-07
1.07953e-07
1.07927e-07
1.0791e-07
1.07887e-07
1.0788e-07
1.07869e-07
1.07868e-07
1.07853e-07
1.07831e-07
1.07814e-07
1.07804e-07
1.07798e-07
1.07798e-07
1.07796e-07
1.07798e-07
1.078e-07
1.07802e-07
1.07802e-07
1.07801e-07
1.07799e-07
1.078e-07
1.078e-07
1.078e-07
1.07801e-07
1.07801e-07
1.07801e-07
1.07802e-07
1.07801e-07
1.07802e-07
1.07802e-07
1.078e-07
1.078e-07
1.07799e-07
1.07803e-07
1.07798e-07
1.078e-07
1.07801e-07
1.078e-07
1.07799e-07
1.07799e-07
1.07799e-07
1.078e-07
1.07799e-07
1.07797e-07
1.07799e-07
1.07807e-07
1.07801e-07
1.07801e-07
1.07799e-07
1.07803e-07
1.07799e-07
1.078e-07
1.07801e-07
1.07803e-07
1.07801e-07
1.07811e-07
1.07804e-07
1.07805e-07
1.07804e-07
1.07808e-07
1.0781e-07
1.07811e-07
1.07812e-07
1.07813e-07
1.07814e-07
1.07818e-07
1.07822e-07
1.07821e-07
1.0782e-07
1.07819e-07
1.07821e-07
1.0782e-07
1.07819e-07
1.07818e-07
1.07816e-07
1.07814e-07
1.07812e-07
1.07806e-07
1.07802e-07
1.07799e-07
1.07799e-07
1.07798e-07
1.078e-07
1.07807e-07
1.07813e-07
1.07822e-07
1.07824e-07
1.07827e-07
1.07811e-07
1.07797e-07
1.0779e-07
1.07785e-07
1.07788e-07
1.07792e-07
1.07812e-07
1.07844e-07
1.07869e-07
1.07836e-07
1.07806e-07
1.07778e-07
1.07751e-07
1.07761e-07
1.07796e-07
1.07763e-07
1.07776e-07
1.07783e-07
1.07794e-07
1.07795e-07
1.07797e-07
1.0784e-07
1.07835e-07
1.07752e-07
1.07775e-07
1.07791e-07
1.07783e-07
1.07865e-07
1.07796e-07
1.07802e-07
1.07736e-07
1.07871e-07
1.07875e-07
1.0778e-07
1.0787e-07
1.07774e-07
1.07763e-07
1.07837e-07
1.07834e-07
1.0784e-07
1.07839e-07
1.07844e-07
1.07828e-07
1.07787e-07
1.07772e-07
1.07747e-07
1.07756e-07
1.07784e-07
1.07775e-07
1.07774e-07
1.1118e-07
1.08448e-07
1.07691e-07
1.07509e-07
1.0762e-07
1.0774e-07
1.07861e-07
1.07927e-07
1.07956e-07
1.07946e-07
1.07949e-07
1.07944e-07
1.07956e-07
1.07961e-07
1.07953e-07
1.07926e-07
1.07911e-07
1.07915e-07
1.07918e-07
1.07895e-07
1.07873e-07
1.07853e-07
1.07844e-07
1.07833e-07
1.07833e-07
1.07812e-07
1.07785e-07
1.07761e-07
1.07742e-07
1.07731e-07
1.07729e-07
1.07728e-07
1.07731e-07
1.07733e-07
1.0774e-07
1.07743e-07
1.07743e-07
1.07741e-07
1.0774e-07
1.07742e-07
1.07744e-07
1.07746e-07
1.0775e-07
1.07752e-07
1.07754e-07
1.07748e-07
1.07746e-07
1.07747e-07
1.07746e-07
1.07749e-07
1.0775e-07
1.07753e-07
1.07748e-07
1.07751e-07
1.07751e-07
1.07751e-07
1.0775e-07
1.07749e-07
1.07747e-07
1.07741e-07
1.07742e-07
1.07741e-07
1.07743e-07
1.0775e-07
1.07745e-07
1.0775e-07
1.07744e-07
1.07749e-07
1.07747e-07
1.07748e-07
1.07751e-07
1.07756e-07
1.07758e-07
1.07763e-07
1.07759e-07
1.07766e-07
1.07766e-07
1.07769e-07
1.07773e-07
1.07776e-07
1.07778e-07
1.07778e-07
1.0778e-07
1.07784e-07
1.07781e-07
1.07776e-07
1.07775e-07
1.07773e-07
1.07774e-07
1.07775e-07
1.07775e-07
1.07775e-07
1.07776e-07
1.07777e-07
1.07779e-07
1.07779e-07
1.07778e-07
1.07776e-07
1.07777e-07
1.07781e-07
1.07784e-07
1.07793e-07
1.078e-07
1.07811e-07
1.07814e-07
1.07818e-07
1.07803e-07
1.0779e-07
1.07784e-07
1.07786e-07
1.07792e-07
1.07795e-07
1.07811e-07
1.07838e-07
1.07863e-07
1.07831e-07
1.078e-07
1.07785e-07
1.07763e-07
1.07779e-07
1.07818e-07
1.07781e-07
1.07792e-07
1.07783e-07
1.07787e-07
1.07795e-07
1.07789e-07
1.07833e-07
1.07831e-07
1.07749e-07
1.07773e-07
1.07787e-07
1.07774e-07
1.07858e-07
1.07791e-07
1.07803e-07
1.07735e-07
1.07875e-07
1.07893e-07
1.07781e-07
1.07867e-07
1.07771e-07
1.07758e-07
1.07831e-07
1.07829e-07
1.07836e-07
1.07839e-07
1.07843e-07
1.07822e-07
1.07785e-07
1.07771e-07
1.07745e-07
1.07751e-07
1.07785e-07
1.07795e-07
1.07769e-07
1.11444e-07
1.08818e-07
1.08243e-07
1.07979e-07
1.07948e-07
1.07982e-07
1.08075e-07
1.08067e-07
1.08079e-07
1.08058e-07
1.08058e-07
1.08046e-07
1.08046e-07
1.0802e-07
1.07999e-07
1.07984e-07
1.07967e-07
1.07955e-07
1.07951e-07
1.07923e-07
1.07906e-07
1.07882e-07
1.07875e-07
1.07864e-07
1.07863e-07
1.07849e-07
1.07828e-07
1.07812e-07
1.07804e-07
1.07798e-07
1.07798e-07
1.07797e-07
1.07798e-07
1.078e-07
1.07803e-07
1.07802e-07
1.07802e-07
1.078e-07
1.07801e-07
1.07801e-07
1.07801e-07
1.07802e-07
1.07803e-07
1.07803e-07
1.07804e-07
1.07802e-07
1.07804e-07
1.07804e-07
1.07802e-07
1.07802e-07
1.07802e-07
1.07806e-07
1.07801e-07
1.07802e-07
1.07803e-07
1.07803e-07
1.07801e-07
1.07801e-07
1.07802e-07
1.07802e-07
1.07802e-07
1.078e-07
1.07802e-07
1.07809e-07
1.07802e-07
1.07802e-07
1.07801e-07
1.07804e-07
1.078e-07
1.07801e-07
1.07801e-07
1.07803e-07
1.07801e-07
1.07809e-07
1.07803e-07
1.07804e-07
1.07803e-07
1.07807e-07
1.07809e-07
1.0781e-07
1.07811e-07
1.07811e-07
1.07813e-07
1.07816e-07
1.0782e-07
1.07819e-07
1.07818e-07
1.07818e-07
1.0782e-07
1.0782e-07
1.07819e-07
1.07817e-07
1.07817e-07
1.07815e-07
1.07812e-07
1.07806e-07
1.07801e-07
1.07798e-07
1.07798e-07
1.07797e-07
1.07799e-07
1.07805e-07
1.07811e-07
1.07821e-07
1.07822e-07
1.07825e-07
1.07808e-07
1.07795e-07
1.07787e-07
1.07782e-07
1.07785e-07
1.07789e-07
1.0781e-07
1.07841e-07
1.07866e-07
1.07833e-07
1.07806e-07
1.07778e-07
1.07745e-07
1.07754e-07
1.07788e-07
1.07756e-07
1.07768e-07
1.07776e-07
1.07791e-07
1.07792e-07
1.07789e-07
1.07839e-07
1.07834e-07
1.07751e-07
1.07777e-07
1.07786e-07
1.07787e-07
1.07872e-07
1.07793e-07
1.07808e-07
1.07735e-07
1.07855e-07
1.07867e-07
1.07782e-07
1.07867e-07
1.07772e-07
1.07761e-07
1.07831e-07
1.0783e-07
1.07839e-07
1.0784e-07
1.07842e-07
1.07822e-07
1.07786e-07
1.07768e-07
1.07744e-07
1.07741e-07
1.07769e-07
1.0777e-07
1.0777e-07
1.11283e-07
1.0834e-07
1.07556e-07
1.07394e-07
1.07542e-07
1.07685e-07
1.07821e-07
1.07896e-07
1.07926e-07
1.07915e-07
1.07917e-07
1.07911e-07
1.07926e-07
1.07932e-07
1.07921e-07
1.07896e-07
1.07886e-07
1.07893e-07
1.079e-07
1.07878e-07
1.07859e-07
1.07843e-07
1.07834e-07
1.07822e-07
1.07824e-07
1.07802e-07
1.07777e-07
1.07751e-07
1.07732e-07
1.07721e-07
1.07719e-07
1.07718e-07
1.07721e-07
1.07723e-07
1.0773e-07
1.07733e-07
1.07734e-07
1.07731e-07
1.07731e-07
1.07732e-07
1.07735e-07
1.07737e-07
1.07741e-07
1.07743e-07
1.07744e-07
1.07739e-07
1.07737e-07
1.07737e-07
1.07736e-07
1.0774e-07
1.0774e-07
1.07744e-07
1.07738e-07
1.07742e-07
1.07742e-07
1.07742e-07
1.07741e-07
1.0774e-07
1.07737e-07
1.07731e-07
1.07731e-07
1.07731e-07
1.07734e-07
1.0774e-07
1.07736e-07
1.07741e-07
1.07735e-07
1.0774e-07
1.07738e-07
1.07739e-07
1.07743e-07