/*--------------------------------*- C++ -*----------------------------------*\
| =========                 |                                                 |
| \\      /  F ield         | OpenFOAM: The Open Source CFD Toolbox           |
|  \\    /   O peration     | Version:  v1912                                 |
|   \\  /    A nd           | Website:  www.openfoam.com                      |
|    \\/     M anipulation  |                                                 |
\*---------------------------------------------------------------------------*/
FoamFile
{
    version     2.0;
    format      ascii;
    class       volScalarField;
    location    "40";
    object      p;
}
// * * * * * * * * * * * * * * * * * * * * * * * * * * * * * * * * * * * * * //

dimensions      [1 -1 -2 0 0 0 0];


internalField   nonuniform List<scalar> 
14268
(
18175.8
17697.6
17218.7
16739.2
16259.1
15777.9
15295.8
14812.9
18074.2
17596
17117.1
16637.6
16157.5
15676.3
15194.2
14711.3
17972.6
17494.4
17015.5
16536
16055.9
15574.7
15092.6
14609.7
17871
17392.8
16913.9
16434.4
15954.3
15473.1
14991
14508.1
17769.4
17291.2
16812.3
16332.8
15852.7
15371.5
14889.4
14406.5
17667.8
17189.6
16710.7
16231.2
15751.1
15269.9
14787.8
14304.9
17566.2
17088
16609.1
16129.6
15649.5
15168.3
14686.2
14203.3
17464.6
16986.4
16507.5
16028
15547.9
15066.7
14584.6
14101.7
17363
16884.8
16405.9
15926.4
15446.3
14965.1
14483
14000.1
17261.4
16783.2
16304.3
15824.8
15344.7
14863.5
14381.4
13898.5
17159.8
16681.6
16202.7
15723.2
15243.1
14761.9
14279.8
13796.9
17058.2
16580
16101.1
15621.6
15141.5
14660.3
14178.2
13695.3
16956.6
16478.4
15999.5
15520
15039.9
14558.7
14076.6
13593.7
16855
16376.8
15897.9
15418.4
14938.3
14457.1
13975
13492.1
16486.1
16037.6
15588.4
15138.8
14688.7
14237.7
13786.2
13334.5
15842.7
15452.7
15062.2
14671.1
14279.5
13887.1
13494
13100.8
15199.3
14867.9
14535.9
14203.4
13870.4
13536.5
13201.9
12867
14555.9
14283.1
14009.7
13735.8
13461.3
13185.9
12909.8
12633.3
13912.5
13698.3
13483.4
13268.1
13052.2
12835.3
12617.6
12399.5
13269.1
13113.5
12957.2
12800.4
12643
12484.7
12325.5
12165.8
12625.7
12528.7
12431
12332.8
12233.9
12134.1
12033.3
11932
10913.8
10846.7
10778.8
10710.5
10641.5
10571.4
10500.4
10428.6
8134.42
8068.61
8002.12
7935.12
7867.44
7798.61
7728.76
7658.24
5355.11
5290.57
5225.43
5159.85
5093.6
5026.13
4957.62
4888.33
2601.59
2544.16
2487.34
2431.12
2375.39
2320.06
2267.27
2217.83
648.876
621.277
594.89
569.505
545.234
522.194
502.714
486.205
27.4914
25.3129
23.3508
21.5614
19.9609
18.5856
17.4022
16.2117
-6.86319
-6.96251
-7.07229
-7.19418
-7.32158
-7.45198
-7.57509
-7.6553
-10.4857
-10.575
-10.6729
-10.7849
-10.9015
-11.0261
-11.1408
-11.2237
-13.8503
-13.9401
-14.0396
-14.1506
-14.2687
-14.3858
-14.4969
-14.5738
-17.1939
-17.2837
-17.3822
-17.494
-17.6122
-17.7309
-17.8417
-17.9435
-20.5026
-20.5928
-20.692
-20.8024
-20.923
-21.0409
-21.1495
-21.2473
-23.8073
-23.8978
-23.9978
-24.1098
-24.2309
-24.3487
-24.4652
-24.5693
-27.1068
-27.1967
-27.2956
-27.4061
-27.5272
-27.6486
-27.765
-27.8626
-30.4064
-30.4959
-30.595
-30.7051
-30.8246
-30.9449
-31.0631
-31.1704
-33.7047
-33.7928
-33.8901
-33.9985
-34.1178
-34.2394
-34.3581
-34.4592
-37.0074
-37.0943
-37.1905
-37.2962
-37.4121
-37.5309
-37.6488
-37.7558
-40.3109
-40.396
-40.49
-40.5938
-40.7072
-40.8244
-40.9399
-41.0418
-43.6209
-43.7041
-43.7954
-43.8954
-44.0046
-44.1176
-44.2288
-44.3308
-46.9345
-47.0154
-47.1041
-47.201
-47.3056
-47.4143
-47.5196
-47.6162
-50.2542
-50.3327
-50.4179
-50.5106
-50.6101
-50.7138
-50.8143
-50.9057
-53.5811
-53.6566
-53.7382
-53.8263
-53.9201
-54.0167
-54.1095
-54.1949
-56.9143
-56.9869
-57.0647
-57.1476
-57.2354
-57.3255
-57.4121
-57.4891
-60.2493
-60.3198
-60.3947
-60.474
-60.5567
-60.6401
-60.7208
-60.7916
-63.5842
-63.6526
-63.7248
-63.8007
-63.8793
-63.9581
-64.0334
-64.1003
-66.919
-66.9853
-67.055
-67.1277
-67.2024
-67.2768
-67.3478
-67.4111
-70.2535
-70.3177
-70.3847
-70.4543
-70.5254
-70.5958
-70.6627
-70.7229
-73.5878
-73.6499
-73.7144
-73.781
-73.8486
-73.9153
-73.9784
-74.0356
-76.922
-76.9819
-77.0439
-77.1075
-77.1719
-77.2352
-77.2947
-77.3493
-80.256
-80.3138
-80.3734
-80.4342
-80.4954
-80.5553
-80.6116
-80.6634
-83.5899
-83.6456
-83.7027
-83.7607
-83.8191
-83.8759
-83.9296
-83.9783
-86.9237
-86.9772
-87.032
-87.0874
-87.1429
-87.1966
-87.2477
-87.2936
-90.2574
-90.3088
-90.3612
-90.4141
-90.4669
-90.5176
-90.5664
-90.6099
-93.591
-93.6403
-93.6905
-93.7408
-93.7911
-93.839
-93.8853
-93.9264
-96.9246
-96.9718
-97.0197
-97.0676
-97.1154
-97.1608
-97.2046
-97.2437
-100.258
-100.303
-100.349
-100.394
-100.44
-100.483
-100.524
-100.561
-103.592
-103.635
-103.678
-103.721
-103.764
-103.805
-103.844
-103.879
-106.925
-106.966
-107.007
-107.048
-107.089
-107.128
-107.164
-107.197
-110.258
-110.297
-110.337
-110.375
-110.414
-110.45
-110.485
-110.516
-113.592
-113.629
-113.666
-113.703
-113.739
-113.773
-113.806
-113.835
-116.925
-116.96
-116.995
-117.03
-117.064
-117.096
-117.127
-117.154
-120.259
-120.292
-120.325
-120.357
-120.389
-120.419
-120.448
-120.474
-123.592
-123.623
-123.654
-123.685
-123.715
-123.743
-123.769
-123.794
-126.926
-126.955
-126.984
-127.012
-127.04
-127.066
-127.091
-127.114
-130.259
-130.286
-130.313
-130.34
-130.366
-130.39
-130.413
-130.434
-133.593
-133.618
-133.643
-133.668
-133.691
-133.714
-133.735
-133.754
-136.926
-136.95
-136.973
-136.995
-137.017
-137.038
-137.057
-137.075
-140.26
-140.281
-140.302
-140.323
-140.343
-140.362
-140.379
-140.395
-143.593
-143.613
-143.632
-143.651
-143.669
-143.686
-143.702
-143.716
-146.927
-146.945
-146.962
-146.979
-146.995
-147.011
-147.025
-147.037
-150.26
-150.276
-150.292
-150.307
-150.322
-150.335
-150.347
-150.358
-153.594
-153.608
-153.622
-153.635
-153.648
-153.66
-153.67
-153.679
-156.928
-156.94
-156.952
-156.964
-156.974
-156.984
-156.993
-157.001
-160.261
-160.272
-160.282
-160.292
-160.301
-160.309
-160.316
-160.322
-163.595
-163.604
-163.612
-163.62
-163.627
-163.634
-163.639
-163.644
-166.929
-166.936
-166.942
-166.948
-166.954
-166.959
-166.962
-166.965
-170.263
-170.268
-170.273
-170.277
-170.281
-170.284
-170.286
-170.287
-180.107
-180.111
-180.114
-180.117
-180.12
-180.122
-180.123
-180.123
-196.462
-196.466
-196.468
-196.471
-196.473
-196.475
-196.475
-196.476
-212.818
-212.821
-212.823
-212.825
-212.827
-212.828
-212.829
-212.83
-229.175
-229.177
-229.179
-229.181
-229.182
-229.183
-229.184
-229.184
-245.533
-245.534
-245.536
-245.537
-245.538
-245.539
-245.539
-245.54
-261.89
-261.892
-261.893
-261.894
-261.895
-261.895
-261.896
-261.896
-278.249
-278.249
-278.25
-278.251
-278.252
-278.252
-278.252
-278.252
-294.607
-294.608
-294.608
-294.609
-294.609
-294.609
-294.609
-294.609
-310.966
-310.966
-310.966
-310.966
-310.966
-310.967
-310.967
-310.967
-327.324
-327.324
-327.324
-327.324
-327.324
-327.324
-327.324
-327.324
14572.2
14574
14575.4
14576.4
14577.2
14577.8
14578.8
14580
14581.2
14582.5
14583.9
14585.5
14587.5
14590
14592.6
14595.1
14597.2
14598.8
14600.5
14602.4
14604.5
14606.8
14609.3
14612.2
14616
14620.5
14624.5
14627.4
14629.9
14632.4
14634.7
14636.8
14638.4
14639.8
14641
14642.3
14643.7
14645.1
14646.8
14648.7
14650.7
14652.9
14655.3
14658.2
14661.9
14666.7
14672.5
14679.3
14687.1
14696
14706
14716.6
14727
14737.3
14747.4
14757.4
14766.4
14773.8
14779.1
14781.5
14780.2
14774.8
14765.1
14751.7
14735.3
14716.3
14695.1
14672.3
14648.3
14623.2
14598.1
14573.2
14549.4
14527
14506.5
14488.1
14472
14458.5
14447.6
14439.5
14434.1
14431.4
14430.9
14432.1
14434.3
14436.9
14439.3
14441
14442.1
14442.8
14444.2
14447.7
14455.1
14468.4
14489.5
14520.2
14561.9
14614.7
14677.5
14747.6
14819.9
14887.6
14942.3
14976.7
14984.4
14961.9
14911.1
14837.2
14749.1
14656.3
14571.1
14498.9
14445.8
14415.5
14407.9
14422.5
14455.9
14504
14561.1
14619.9
14670.1
14701.8
14707.6
14683.4
14631.7
14563.3
14492.3
14437.7
14415.7
14432.5
14492.1
14589.8
14710.2
14830.3
14936.9
15022.6
15085.1
15138
15196
15254.4
15304.6
15336.7
15345.9
15342
15330.9
15308.8
15271.8
15218.4
15154.2
15090.5
15042
15015.3
15010.4
15015.1
15011.1
14980.4
14470.6
14472.4
14473.8
14474.8
14475.6
14476.2
14477.2
14478.4
14479.6
14480.9
14482.3
14483.9
14485.9
14488.3
14491
14493.5
14495.6
14497.2
14498.9
14500.8
14502.9
14505.1
14507.7
14510.6
14514.4
14518.9
14522.9
14525.8
14528.3
14530.8
14533.1
14535.2
14536.8
14538.2
14539.4
14540.7
14542.1
14543.5
14545.2
14547.1
14549.1
14551.3
14553.7
14556.6
14560.3
14565.1
14570.9
14577.7
14585.5
14594.4
14604.4
14615
14625.4
14635.6
14645.8
14655.8
14664.8
14672.2
14677.5
14679.9
14678.6
14673.2
14663.5
14650.1
14633.7
14614.6
14593.5
14570.7
14546.7
14521.6
14496.5
14471.6
14447.8
14425.4
14404.9
14386.5
14370.4
14356.8
14346
14337.9
14332.5
14329.8
14329.3
14330.5
14332.7
14335.3
14337.7
14339.4
14340.5
14341.2
14342.6
14346.1
14353.5
14366.8
14387.9
14418.6
14460.3
14513.1
14575.9
14646
14718.2
14786
14840.7
14875.1
14882.8
14860.3
14809.5
14735.6
14647.5
14554.7
14469.5
14397.3
14344.2
14313.9
14306.3
14320.9
14354.3
14402.4
14459.5
14518.3
14568.5
14600.2
14606
14581.8
14530.1
14461.7
14390.7
14336.1
14314.1
14330.9
14390.5
14488.2
14608.6
14728.7
14835.3
14921
14983.5
15036.4
15094.4
15152.8
15203
15235.1
15244.3
15240.4
15229.3
15207.2
15170.2
15116.8
15052.6
14988.9
14940.4
14913.7
14908.8
14913.5
14909.5
14878.8
14369
14370.8
14372.2
14373.2
14374
14374.6
14375.6
14376.8
14378
14379.3
14380.7
14382.3
14384.3
14386.7
14389.4
14391.9
14394
14395.6
14397.3
14399.2
14401.3
14403.5
14406.1
14409
14412.8
14417.3
14421.3
14424.2
14426.7
14429.2
14431.5
14433.6
14435.2
14436.6
14437.8
14439.1
14440.5
14441.9
14443.5
14445.4
14447.5
14449.7
14452.1
14455
14458.7
14463.5
14469.3
14476.1
14483.9
14492.8
14502.8
14513.4
14523.8
14534
14544.2
14554.2
14563.2
14570.6
14575.9
14578.3
14577
14571.6
14561.9
14548.5
14532.1
14513
14491.9
14469.1
14445.1
14420
14394.9
14370
14346.2
14323.8
14303.3
14284.9
14268.8
14255.2
14244.4
14236.2
14230.9
14228.2
14227.7
14228.9
14231.1
14233.7
14236.1
14237.8
14238.9
14239.6
14241
14244.5
14251.9
14265.1
14286.3
14317
14358.7
14411.5
14474.3
14544.4
14616.6
14684.4
14739.1
14773.5
14781.2
14758.7
14707.9
14634
14545.9
14453.1
14367.9
14295.7
14242.6
14212.2
14204.7
14219.3
14252.7
14300.8
14357.9
14416.7
14466.9
14498.6
14504.4
14480.2
14428.5
14360.1
14289.1
14234.4
14212.5
14229.3
14288.9
14386.5
14507
14627.1
14733.7
14819.4
14881.9
14934.8
14992.8
15051.2
15101.4
15133.5
15142.7
15138.8
15127.7
15105.6
15068.6
15015.2
14951
14887.3
14838.8
14812.1
14807.2
14811.9
14807.9
14777.2
14267.4
14269.2
14270.6
14271.6
14272.4
14273
14274
14275.2
14276.4
14277.7
14279.1
14280.7
14282.7
14285.1
14287.8
14290.3
14292.4
14294
14295.7
14297.6
14299.7
14301.9
14304.5
14307.4
14311.2
14315.7
14319.7
14322.6
14325.1
14327.6
14329.9
14332
14333.6
14335
14336.2
14337.5
14338.9
14340.3
14341.9
14343.8
14345.9
14348.1
14350.5
14353.4
14357.1
14361.9
14367.7
14374.5
14382.3
14391.2
14401.2
14411.8
14422.2
14432.4
14442.6
14452.5
14461.6
14469
14474.3
14476.7
14475.4
14470
14460.3
14446.9
14430.5
14411.4
14390.3
14367.5
14343.4
14318.4
14293.3
14268.4
14244.6
14222.2
14201.7
14183.3
14167.2
14153.6
14142.8
14134.6
14129.3
14126.6
14126.1
14127.3
14129.5
14132.1
14134.5
14136.2
14137.3
14138
14139.4
14142.9
14150.3
14163.5
14184.7
14215.4
14257.1
14309.9
14372.7
14442.8
14515
14582.8
14637.5
14671.9
14679.6
14657.1
14606.3
14532.4
14444.3
14351.5
14266.3
14194
14141
14110.6
14103.1
14117.7
14151.1
14199.1
14256.3
14315.1
14365.3
14397
14402.8
14378.6
14326.9
14258.5
14187.5
14132.8
14110.9
14127.6
14187.3
14284.9
14405.4
14525.5
14632.1
14717.8
14780.3
14833.2
14891.2
14949.6
14999.8
15031.9
15041.1
15037.2
15026.1
15004
14967
14913.6
14849.4
14785.7
14737.2
14710.5
14705.6
14710.3
14706.3
14675.6
14165.8
14167.6
14169
14170
14170.8
14171.4
14172.4
14173.6
14174.8
14176.1
14177.5
14179.1
14181.1
14183.5
14186.2
14188.7
14190.8
14192.4
14194.1
14196
14198.1
14200.3
14202.9
14205.8
14209.6
14214.1
14218.1
14221
14223.5
14225.9
14228.3
14230.4
14232
14233.4
14234.6
14235.9
14237.3
14238.7
14240.3
14242.2
14244.3
14246.5
14248.9
14251.8
14255.5
14260.3
14266.1
14272.9
14280.7
14289.6
14299.6
14310.2
14320.6
14330.8
14341
14350.9
14360
14367.4
14372.7
14375.1
14373.8
14368.4
14358.7
14345.3
14328.9
14309.8
14288.7
14265.9
14241.8
14216.8
14191.7
14166.8
14143
14120.6
14100.1
14081.7
14065.6
14052
14041.2
14033
14027.7
14025
14024.5
14025.7
14027.9
14030.5
14032.9
14034.6
14035.7
14036.4
14037.8
14041.3
14048.7
14061.9
14083.1
14113.8
14155.4
14208.2
14271.1
14341.1
14413.4
14481.2
14535.9
14570.3
14578
14555.5
14504.7
14430.8
14342.7
14249.9
14164.7
14092.4
14039.4
14009
14001.5
14016.1
14049.5
14097.5
14154.7
14213.5
14263.7
14295.4
14301.2
14277
14225.3
14156.9
14085.9
14031.2
14009.2
14026
14085.7
14183.3
14303.8
14423.9
14530.5
14616.2
14678.7
14731.6
14789.6
14848
14898.2
14930.3
14939.5
14935.6
14924.5
14902.4
14865.4
14812
14747.8
14684.1
14635.6
14608.8
14604
14608.7
14604.7
14574
14064.2
14066
14067.4
14068.4
14069.2
14069.8
14070.8
14072
14073.2
14074.5
14075.9
14077.5
14079.5
14081.9
14084.6
14087.1
14089.1
14090.8
14092.5
14094.4
14096.5
14098.7
14101.3
14104.2
14108
14112.5
14116.5
14119.4
14121.9
14124.3
14126.7
14128.8
14130.4
14131.8
14133
14134.3
14135.7
14137.1
14138.7
14140.6
14142.7
14144.9
14147.3
14150.1
14153.9
14158.7
14164.5
14171.3
14179.1
14188
14198
14208.6
14219
14229.2
14239.4
14249.3
14258.4
14265.8
14271.1
14273.4
14272.1
14266.8
14257.1
14243.7
14227.3
14208.2
14187.1
14164.3
14140.2
14115.2
14090.1
14065.2
14041.4
14019
13998.5
13980.1
13964
13950.4
13939.5
13931.4
13926.1
13923.4
13922.9
13924.1
13926.3
13928.9
13931.3
13933
13934.1
13934.8
13936.2
13939.7
13947.1
13960.3
13981.5
14012.2
14053.8
14106.6
14169.5
14239.5
14311.8
14379.6
14434.3
14468.7
14476.4
14453.9
14403.1
14329.2
14241.1
14148.3
14063
13990.8
13937.8
13907.4
13899.9
13914.5
13947.9
13995.9
14053.1
14111.9
14162.1
14193.8
14199.7
14175.4
14123.7
14055.3
13984.3
13929.6
13907.6
13924.4
13984
14081.7
14202.2
14322.3
14428.9
14514.6
14577.1
14630
14688
14746.4
14796.6
14828.7
14837.9
14834
14822.9
14800.8
14763.8
14710.4
14646.2
14582.5
14534
14507.2
14502.4
14507.1
14503.1
14472.4
13962.6
13964.3
13965.8
13966.8
13967.6
13968.2
13969.2
13970.4
13971.6
13972.9
13974.3
13975.9
13977.9
13980.3
13983
13985.5
13987.5
13989.2
13990.9
13992.8
13994.8
13997.1
13999.7
14002.6
14006.4
14010.9
14014.9
14017.8
14020.3
14022.7
14025.1
14027.2
14028.8
14030.2
14031.4
14032.7
14034.1
14035.5
14037.1
14039
14041.1
14043.3
14045.7
14048.5
14052.3
14057.1
14062.9
14069.7
14077.5
14086.4
14096.4
14107
14117.4
14127.6
14137.8
14147.7
14156.8
14164.2
14169.5
14171.8
14170.5
14165.2
14155.5
14142.1
14125.7
14106.6
14085.5
14062.7
14038.6
14013.6
13988.5
13963.6
13939.7
13917.4
13896.9
13878.5
13862.4
13848.8
13837.9
13829.8
13824.5
13821.8
13821.3
13822.5
13824.7
13827.3
13829.7
13831.4
13832.4
13833.2
13834.6
13838.1
13845.5
13858.7
13879.8
13910.6
13952.2
14005
14067.9
14137.9
14210.2
14278
14332.7
14367.1
14374.9
14352.3
14301.6
14227.7
14139.5
14046.7
13961.4
13889.2
13836.2
13805.8
13798.3
13812.8
13846.2
13894.3
13951.5
14010.3
14060.5
14092.2
14098.1
14073.8
14022.1
13953.7
13882.7
13828
13806
13822.8
13882.4
13980.1
14100.6
14220.7
14327.3
14413
14475.5
14528.4
14586.4
14644.8
14695
14727.1
14736.3
14732.4
14721.3
14699.2
14662.2
14608.8
14544.6
14480.9
14432.4
14405.6
14400.8
14405.5
14401.5
14370.8
13861
13862.7
13864.2
13865.2
13866
13866.6
13867.6
13868.7
13870
13871.3
13872.7
13874.3
13876.3
13878.7
13881.4
13883.9
13885.9
13887.6
13889.2
13891.2
13893.2
13895.5
13898.1
13901
13904.8
13909.3
13913.3
13916.2
13918.7
13921.1
13923.5
13925.6
13927.2
13928.6
13929.8
13931.1
13932.5
13933.9
13935.5
13937.4
13939.5
13941.7
13944
13946.9
13950.7
13955.5
13961.3
13968.1
13975.9
13984.7
13994.8
14005.4
14015.8
14026
14036.2
14046.1
14055.2
14062.6
14067.9
14070.2
14068.9
14063.6
14053.9
14040.5
14024.1
14005
13983.9
13961.1
13937
13912
13886.8
13862
13838.1
13815.8
13795.3
13776.9
13760.8
13747.2
13736.3
13728.2
13722.9
13720.2
13719.7
13720.9
13723.1
13725.7
13728
13729.8
13730.8
13731.6
13733
13736.5
13743.8
13757.1
13778.2
13809
13850.6
13903.4
13966.3
14036.3
14108.6
14176.4
14231.1
14265.5
14273.3
14250.7
14200
14126.1
14037.9
13945.1
13859.8
13787.6
13734.5
13704.2
13696.6
13711.2
13744.6
13792.7
13849.9
13908.7
13959
13990.6
13996.5
13972.2
13920.5
13852.1
13781.1
13726.3
13704.3
13721.1
13780.8
13878.5
13999
14119.1
14225.7
14311.4
14373.9
14426.7
14484.8
14543.2
14593.4
14625.5
14634.7
14630.8
14619.7
14597.6
14560.6
14507.2
14443
14379.2
14330.8
14304
14299.1
14303.9
14299.9
14269.2
13759.4
13761.1
13762.6
13763.6
13764.4
13765
13766
13767.1
13768.4
13769.7
13771.1
13772.7
13774.7
13777.1
13779.8
13782.3
13784.3
13786
13787.6
13789.6
13791.6
13793.9
13796.5
13799.4
13803.2
13807.7
13811.7
13814.5
13817.1
13819.5
13821.9
13824
13825.6
13827
13828.2
13829.5
13830.9
13832.3
13833.9
13835.8
13837.9
13840.1
13842.4
13845.3
13849.1
13853.8
13859.7
13866.5
13874.3
13883.1
13893.2
13903.8
13914.2
13924.4
13934.6
13944.5
13953.6
13961
13966.3
13968.6
13967.3
13962
13952.3
13938.9
13922.5
13903.4
13882.3
13859.5
13835.4
13810.4
13785.2
13760.4
13736.5
13714.2
13693.7
13675.3
13659.2
13645.6
13634.7
13626.6
13621.3
13618.6
13618.1
13619.3
13621.5
13624.1
13626.4
13628.2
13629.2
13630
13631.4
13634.9
13642.2
13655.5
13676.6
13707.4
13749
13801.8
13864.7
13934.7
14007
14074.8
14129.6
14164
14171.7
14149.2
14098.4
14024.5
13936.3
13843.5
13758.2
13686
13632.9
13602.5
13595
13609.6
13643
13691.1
13748.3
13807.1
13857.4
13889
13894.9
13870.7
13818.9
13750.5
13679.5
13624.7
13602.7
13619.5
13679.1
13776.8
13897.4
14017.5
14124.1
14209.8
14272.3
14325.1
14383.2
14441.6
14491.8
14523.9
14533.1
14529.2
14518.2
14496.1
14459
14405.6
14341.4
14277.6
14229.1
14202.4
14197.5
14202.3
14198.3
14167.7
13657.8
13659.5
13661
13662
13662.8
13663.4
13664.4
13665.5
13666.8
13668.1
13669.5
13671.1
13673.1
13675.5
13678.2
13680.7
13682.7
13684.4
13686
13688
13690
13692.3
13694.9
13697.8
13701.6
13706.1
13710.1
13712.9
13715.5
13717.9
13720.3
13722.4
13724
13725.4
13726.6
13727.9
13729.3
13730.7
13732.3
13734.2
13736.3
13738.5
13740.8
13743.7
13747.5
13752.2
13758.1
13764.9
13772.6
13781.5
13791.6
13802.2
13812.6
13822.8
13833
13842.9
13852
13859.4
13864.7
13867
13865.7
13860.4
13850.7
13837.3
13820.9
13801.8
13780.7
13757.9
13733.8
13708.8
13683.6
13658.8
13634.9
13612.6
13592.1
13573.7
13557.6
13544
13533.1
13525
13519.7
13517
13516.5
13517.7
13519.9
13522.5
13524.8
13526.6
13527.6
13528.4
13529.8
13533.3
13540.6
13553.9
13575
13605.7
13647.4
13700.2
13763
13833.1
13905.4
13973.2
14028
14062.4
14070.1
14047.6
13996.8
13922.9
13834.7
13741.8
13656.6
13584.3
13531.3
13500.9
13493.4
13508
13541.4
13589.5
13646.7
13705.5
13755.8
13787.5
13793.3
13769.1
13717.3
13648.9
13577.8
13523.1
13501.1
13517.8
13577.5
13675.2
13795.8
13915.9
14022.5
14108.2
14170.7
14223.5
14281.6
14340
14390.2
14422.3
14431.5
14427.6
14416.6
14394.5
14357.4
14304
14239.8
14176
14127.5
14100.8
14095.9
14100.7
14096.8
14066.1
13556.2
13557.9
13559.4
13560.4
13561.2
13561.8
13562.8
13563.9
13565.2
13566.5
13567.9
13569.5
13571.5
13573.9
13576.6
13579.1
13581.1
13582.8
13584.4
13586.4
13588.4
13590.7
13593.3
13596.2
13599.9
13604.5
13608.5
13611.3
13613.9
13616.3
13618.7
13620.8
13622.4
13623.7
13625
13626.3
13627.7
13629.1
13630.7
13632.6
13634.7
13636.9
13639.2
13642.1
13645.9
13650.6
13656.5
13663.3
13671
13679.9
13689.9
13700.5
13711
13721.2
13731.4
13741.3
13750.4
13757.8
13763.1
13765.4
13764.1
13758.8
13749.1
13735.7
13719.3
13700.2
13679.1
13656.3
13632.2
13607.2
13582
13557.2
13533.3
13511
13490.5
13472.1
13456
13442.4
13431.5
13423.4
13418.1
13415.4
13414.9
13416.1
13418.3
13420.8
13423.2
13425
13426
13426.8
13428.2
13431.7
13439
13452.3
13473.4
13504.1
13545.8
13598.6
13661.4
13731.5
13803.8
13871.6
13926.4
13960.8
13968.5
13946
13895.2
13821.3
13733.1
13640.2
13555
13482.7
13429.7
13399.3
13391.8
13406.4
13439.8
13487.9
13545.1
13603.9
13654.2
13685.9
13691.8
13667.5
13615.7
13547.3
13476.2
13421.4
13399.4
13416.2
13475.9
13573.6
13694.2
13814.3
13920.9
14006.7
14069.1
14121.9
14180
14238.4
14288.7
14320.8
14329.9
14326
14315
14292.9
14255.8
14202.4
14138.2
14074.4
14025.9
13999.1
13994.3
13999.1
13995.2
13964.5
13454.6
13456.3
13457.8
13458.8
13459.6
13460.2
13461.1
13462.3
13463.6
13464.9
13466.3
13467.9
13469.9
13472.3
13475
13477.5
13479.5
13481.2
13482.8
13484.8
13486.8
13489.1
13491.6
13494.6
13498.3
13502.9
13506.9
13509.7
13512.3
13514.7
13517.1
13519.2
13520.8
13522.1
13523.4
13524.7
13526
13527.5
13529.1
13531
13533.1
13535.3
13537.6
13540.5
13544.3
13549
13554.9
13561.7
13569.4
13578.3
13588.3
13598.9
13609.4
13619.6
13629.8
13639.7
13648.8
13656.2
13661.5
13663.8
13662.5
13657.2
13647.5
13634.1
13617.7
13598.6
13577.5
13554.7
13530.6
13505.6
13480.4
13455.6
13431.7
13409.4
13388.9
13370.4
13354.4
13340.8
13329.9
13321.8
13316.5
13313.7
13313.3
13314.5
13316.7
13319.2
13321.6
13323.4
13324.4
13325.2
13326.6
13330
13337.4
13350.7
13371.8
13402.5
13444.1
13497
13559.8
13629.9
13702.2
13770
13824.8
13859.2
13867
13844.4
13793.6
13719.7
13631.5
13538.6
13453.3
13381.1
13328
13297.7
13290.1
13304.7
13338.2
13386.3
13443.5
13502.3
13552.6
13584.3
13590.2
13565.9
13514.1
13445.7
13374.6
13319.8
13297.8
13314.6
13374.2
13472
13592.5
13712.7
13819.4
13905.1
13967.5
14020.3
14078.4
14136.8
14187.1
14219.2
14228.3
14224.4
14213.4
14191.3
14154.2
14100.8
14036.6
13972.8
13924.3
13897.5
13892.7
13897.5
13893.6
13863
13353
13354.7
13356.2
13357.2
13358
13358.6
13359.5
13360.7
13362
13363.3
13364.6
13366.3
13368.3
13370.7
13373.4
13375.9
13377.9
13379.6
13381.2
13383.1
13385.2
13387.5
13390
13393
13396.7
13401.3
13405.3
13408.1
13410.6
13413.1
13415.5
13417.6
13419.2
13420.5
13421.8
13423.1
13424.4
13425.9
13427.5
13429.4
13431.5
13433.7
13436
13438.9
13442.7
13447.4
13453.3
13460.1
13467.8
13476.7
13486.7
13497.3
13507.8
13518
13528.2
13538.1
13547.2
13554.6
13559.9
13562.2
13561
13555.6
13545.9
13532.5
13516.1
13497
13475.9
13453.1
13429
13404
13378.8
13354
13330.1
13307.8
13287.3
13268.8
13252.7
13239.2
13228.3
13220.2
13214.9
13212.1
13211.7
13212.9
13215.1
13217.6
13220
13221.8
13222.8
13223.6
13225
13228.4
13235.8
13249
13270.2
13300.9
13342.5
13395.3
13458.2
13528.3
13600.6
13668.4
13723.2
13757.7
13765.4
13742.9
13692.1
13618.1
13529.9
13437
13351.7
13279.5
13226.4
13196
13188.5
13203.1
13236.5
13284.6
13341.9
13400.7
13451
13482.7
13488.6
13464.4
13412.5
13344.1
13273
13218.2
13196.1
13212.9
13272.6
13370.3
13490.9
13611.1
13717.8
13803.5
13865.9
13918.7
13976.8
14035.3
14085.5
14117.6
14126.8
14122.8
14111.8
14089.7
14052.6
13999.2
13935
13871.2
13822.6
13795.9
13791.1
13796
13792
13761.4
13251.4
13253.1
13254.6
13255.6
13256.4
13257
13257.9
13259.1
13260.4
13261.7
13263
13264.7
13266.7
13269.1
13271.8
13274.3
13276.3
13278
13279.6
13281.5
13283.6
13285.9
13288.4
13291.4
13295.1
13299.7
13303.7
13306.5
13309
13311.5
13313.9
13316
13317.6
13318.9
13320.2
13321.5
13322.8
13324.3
13325.9
13327.8
13329.9
13332.1
13334.4
13337.3
13341
13345.8
13351.7
13358.5
13366.2
13375.1
13385.1
13395.7
13406.2
13416.4
13426.6
13436.5
13445.5
13453
13458.3
13460.6
13459.4
13454
13444.3
13430.9
13414.5
13395.4
13374.3
13351.5
13327.4
13302.4
13277.2
13252.4
13228.5
13206.2
13185.7
13167.2
13151.1
13137.6
13126.7
13118.6
13113.2
13110.5
13110.1
13111.3
13113.5
13116
13118.4
13120.2
13121.2
13122
13123.4
13126.8
13134.2
13147.4
13168.6
13199.3
13240.9
13293.7
13356.6
13426.7
13499
13566.8
13621.7
13656.1
13663.9
13641.3
13590.5
13516.5
13428.3
13335.4
13250.1
13177.8
13124.8
13094.4
13086.9
13101.5
13134.9
13183
13240.3
13299.1
13349.4
13381.2
13387.1
13362.8
13311
13242.4
13171.3
13116.5
13094.5
13111.2
13170.9
13268.7
13389.3
13509.5
13616.2
13701.9
13764.3
13817.1
13875.2
13933.7
13983.9
14016
14025.2
14021.2
14010.2
13988.1
13951.1
13897.6
13833.4
13769.5
13721
13694.2
13689.5
13694.4
13690.5
13659.9
13099
13100.7
13102.2
13103.1
13104
13104.6
13105.5
13106.7
13108
13109.3
13110.6
13112.3
13114.3
13116.7
13119.3
13121.9
13123.9
13125.6
13127.2
13129.1
13131.2
13133.5
13136
13139
13142.7
13147.3
13151.3
13154.1
13156.6
13159.1
13161.5
13163.6
13165.2
13166.5
13167.8
13169.1
13170.4
13171.9
13173.5
13175.4
13177.5
13179.6
13182
13184.9
13188.6
13193.4
13199.3
13206.1
13213.8
13222.7
13232.7
13243.3
13253.8
13264
13274.2
13284.1
13293.1
13300.6
13305.9
13308.3
13307
13301.6
13291.9
13278.5
13262.1
13243
13221.9
13199.1
13175
13150
13124.8
13100
13076.1
13053.7
13033.3
13014.8
12998.7
12985.2
12974.3
12966.2
12960.8
12958.1
12957.7
12958.9
12961.1
12963.6
12966
12967.8
12968.8
12969.6
12971
12974.4
12981.8
12995
13016.1
13046.9
13088.5
13141.3
13204.2
13274.3
13346.7
13414.5
13469.3
13503.8
13511.5
13489
13438.1
13364.1
13275.9
13183
13097.7
13025.4
12972.3
12941.9
12934.4
12949
12982.5
13030.6
13087.9
13146.7
13197.1
13228.8
13234.7
13210.4
13158.6
13090
13018.9
12964
12942
12958.7
13018.4
13116.2
13236.9
13357.2
13463.8
13549.6
13612
13664.7
13722.8
13781.3
13831.5
13863.7
13872.8
13868.9
13857.8
13835.7
13798.7
13745.2
13681
13617.1
13568.5
13541.8
13537
13542
13538.1
13507.5
12895.8
12897.5
12899
12899.9
12900.8
12901.4
12902.3
12903.5
12904.8
12906
12907.4
12909
12911.1
12913.5
12916.1
12918.7
12920.7
12922.4
12924
12925.9
12928
12930.3
12932.8
12935.8
12939.5
12944.1
12948.1
12950.9
12953.4
12955.9
12958.3
12960.4
12962
12963.3
12964.6
12965.9
12967.2
12968.7
12970.3
12972.2
12974.3
12976.4
12978.8
12981.7
12985.4
12990.2
12996
13002.9
13010.6
13019.5
13029.5
13040.1
13050.6
13060.8
13070.9
13080.9
13089.9
13097.4
13102.7
13105.1
13103.8
13098.4
13088.7
13075.3
13058.9
13039.8
13018.7
12995.9
12971.8
12946.8
12921.6
12896.8
12872.9
12850.5
12830
12811.6
12795.5
12782
12771.1
12763
12757.6
12754.9
12754.4
12755.7
12757.9
12760.4
12762.8
12764.6
12765.6
12766.3
12767.7
12771.2
12778.5
12791.8
12812.9
12843.6
12885.2
12938.1
13000.9
13071.1
13143.5
13211.3
13266.2
13300.6
13308.4
13285.8
13235
13161
13072.7
12979.8
12894.4
12822.1
12769
12738.6
12731.1
12745.8
12779.2
12827.4
12884.6
12943.6
12993.9
13025.7
13031.6
13007.3
12955.4
12886.8
12815.6
12760.7
12738.6
12755.4
12815.1
12913
13033.7
13154
13260.7
13346.4
13408.8
13461.5
13519.6
13578.1
13628.4
13660.5
13669.7
13665.7
13654.6
13632.6
13595.5
13542.1
13477.8
13413.8
13365.3
13338.5
13333.8
13338.8
13335
13304.4
12692.6
12694.3
12695.7
12696.7
12697.6
12698.1
12699.1
12700.3
12701.6
12702.8
12704.2
12705.8
12707.9
12710.3
12712.9
12715.5
12717.5
12719.2
12720.8
12722.7
12724.8
12727.1
12729.6
12732.6
12736.3
12740.8
12744.9
12747.7
12750.2
12752.7
12755.1
12757.2
12758.8
12760.1
12761.4
12762.7
12764
12765.5
12767.1
12769
12771.1
12773.2
12775.6
12778.5
12782.2
12787
12792.8
12799.6
12807.4
12816.3
12826.3
12836.9
12847.4
12857.6
12867.7
12877.7
12886.7
12894.2
12899.5
12901.9
12900.6
12895.2
12885.5
12872.1
12855.7
12836.6
12815.5
12792.7
12768.6
12743.6
12718.4
12693.5
12669.7
12647.3
12626.8
12608.4
12592.3
12578.7
12567.9
12559.7
12554.4
12551.7
12551.2
12552.4
12554.7
12557.2
12559.6
12561.4
12562.4
12563.1
12564.5
12568
12575.3
12588.5
12609.6
12640.4
12682
12734.8
12797.7
12867.8
12940.3
13008.1
13063
13097.5
13105.3
13082.7
13031.9
12957.8
12869.5
12776.5
12691.1
12618.8
12565.7
12535.4
12527.8
12542.5
12576
12624.1
12681.4
12740.4
12790.8
12822.6
12828.5
12804.2
12752.3
12683.6
12612.4
12557.4
12535.3
12552
12611.8
12709.7
12830.5
12950.8
13057.6
13143.3
13205.6
13258.3
13316.3
13374.9
13425.3
13457.4
13466.5
13462.5
13451.4
13429.4
13392.4
13338.9
13274.5
13210.6
13162
13135.2
13130.6
13135.6
13131.9
13101.4
12489.4
12491.1
12492.5
12493.5
12494.3
12494.9
12495.9
12497.1
12498.3
12499.6
12501
12502.6
12504.6
12507.1
12509.7
12512.2
12514.3
12516
12517.6
12519.5
12521.6
12523.9
12526.4
12529.4
12533.1
12537.6
12541.7
12544.5
12547
12549.5
12551.9
12554
12555.6
12556.9
12558.2
12559.5
12560.8
12562.2
12563.9
12565.8
12567.9
12570
12572.4
12575.3
12579
12583.8
12589.6
12596.4
12604.2
12613.1
12623.1
12633.7
12644.2
12654.4
12664.5
12674.5
12683.5
12691
12696.3
12698.7
12697.4
12692
12682.3
12668.9
12652.5
12633.4
12612.3
12589.5
12565.4
12540.4
12515.2
12490.3
12466.5
12444.1
12423.6
12405.2
12389.1
12375.5
12364.6
12356.5
12351.2
12348.5
12348
12349.2
12351.4
12354
12356.4
12358.2
12359.2
12359.9
12361.3
12364.7
12372.1
12385.3
12406.4
12437.1
12478.7
12531.6
12594.5
12664.6
12737.1
12805
12859.9
12894.4
12902.2
12879.7
12828.8
12754.7
12666.3
12573.3
12487.9
12415.5
12362.4
12332.1
12324.5
12339.2
12372.7
12420.9
12478.2
12537.2
12587.7
12619.5
12625.4
12601.1
12549.2
12480.4
12409.1
12354.1
12331.9
12348.6
12408.4
12506.4
12627.2
12747.7
12854.4
12940.2
13002.5
13055
13113.1
13171.7
13222.1
13254.3
13263.4
13259.3
13248.3
13226.3
13189.2
13135.7
13071.3
13007.3
12958.7
12932
12927.3
12932.5
12928.8
12898.3
12286.2
12287.9
12289.3
12290.3
12291.1
12291.7
12292.7
12293.9
12295.1
12296.4
12297.8
12299.4
12301.4
12303.9
12306.5
12309
12311.1
12312.8
12314.4
12316.3
12318.4
12320.7
12323.2
12326.2
12329.9
12334.4
12338.5
12341.3
12343.8
12346.3
12348.7
12350.7
12352.4
12353.7
12355
12356.3
12357.6
12359
12360.7
12362.6
12364.7
12366.8
12369.2
12372.1
12375.8
12380.6
12386.4
12393.2
12401
12409.9
12419.9
12430.5
12441
12451.2
12461.3
12471.3
12480.3
12487.8
12493.1
12495.5
12494.2
12488.8
12479.1
12465.7
12449.3
12430.2
12409.1
12386.3
12362.2
12337.2
12312
12287.1
12263.2
12240.9
12220.4
12202
12185.9
12172.3
12161.4
12153.3
12148
12145.3
12144.8
12146
12148.2
12150.8
12153.2
12155
12156
12156.7
12158.1
12161.5
12168.8
12182.1
12203.1
12233.8
12275.5
12328.3
12391.2
12461.4
12533.9
12601.8
12656.8
12691.4
12699.2
12676.6
12625.6
12551.5
12463.1
12370.1
12284.6
12212.2
12159.1
12128.7
12121.2
12135.9
12169.4
12217.6
12275
12334.1
12384.5
12416.4
12422.4
12398
12346
12277.2
12205.8
12150.7
12128.5
12145.2
12205
12303.1
12424
12544.5
12651.3
12737
12799.3
12851.8
12909.9
12968.6
13019
13051.2
13060.2
13056.2
13045.1
13023.1
12986.1
12932.5
12868.1
12804
12755.4
12728.7
12724.1
12729.3
12725.7
12695.3
12083
12084.7
12086.1
12087.1
12087.9
12088.5