/*--------------------------------*- C++ -*----------------------------------*\
| =========                 |                                                 |
| \\      /  F ield         | OpenFOAM: The Open Source CFD Toolbox           |
|  \\    /   O peration     | Version:  v1912                                 |
|   \\  /    A nd           | Website:  www.openfoam.com                      |
|    \\/     M anipulation  |                                                 |
\*---------------------------------------------------------------------------*/
FoamFile
{
    version     2.0;
    format      ascii;
    class       volScalarField;
    location    "60";
    object      omega;
}
// * * * * * * * * * * * * * * * * * * * * * * * * * * * * * * * * * * * * * //

dimensions      [0 0 -1 0 0 0 0];


internalField   nonuniform List<scalar> 
14268
(
103.312
219.528
199.493
127.471
106.135
87.2909
164.913
209.63
198.924
184.741
108.912
157.006
240.991
275.626
255.407
228.999
200.073
205.21
217.368
199.162
86.4862
104.911
203.05
192.114
63.9193
122.372
222.424
247.805
226.024
87.33
56.0123
146.04
144.583
134.726
143.546
164.046
146.237
124.501
117.77
113.28
112.817
115.211
123.551
148.842
195.174
208.6
190.728
144.058
108.453
93.1136
96.8705
130.298
166.396
184.793
190.855
189.58
186.027
181.402
170.385
159.256
151.8
148.564
143.001
134.393
126.556
101.863
63.0478
59.8136
67.0645
73.3983
77.7185
79.33
79.4562
77.4006
75.6711
77.8631
86.7783
122.715
158.194
169.09
157.258
113.9
109.401
147.638
169.819
182.182
186.563
187.741
185.915
182.46
179.975
179.54
166.555
148.18
141.935
139.818
159.045
154.324
105.236
76.2198
96.6791
99.9044
91.2114
81.0448
51.5503
73.4707
66.4539
53.6609
45.4194
51.9446
69.2681
73.4278
77.2003
71.5104
49.0232
75.0644
89.9856
93.5061
81.343
91.0674
72.1412
72.1476
73.7479
70.9788
55.0133
57.8177
84.486
84.8231
32.3444
62.0323
90.4146
89.135
80.0172
41.3988
36.3954
57.5539
61.7768
70.5904
64.2822
58.2063
50.1747
44.2057
42.8693
42.5037
43.4474
47.2531
50.7475
57.302
75.7852
81.7233
77.5599
61.195
48.1997
41.7187
40.7315
48.8581
61.8387
69.574
72.6655
72.5985
70.1067
65.5309
59.9116
55.5086
52.7706
51.9822
51.7198
50.5315
46.8304
38.2902
31.7877
33.0401
32.7037
32.5367
32.2924
32.6352
33.8696
34.2187
33.6077
33.6217
35.5986
42.7982
53.148
58.0134
57.6736
50.9996
50.3286
60.3536
65.6524
66.9475
67.0704
66.6888
65.0929
63.4685
61.9362
61.2523
58.846
54.9065
52.8151
52.3107
58.8385
55.5944
36.1487
28.4902
34.1448
35.3515
33.6553
30.9901
48.5567
49.3685
44.363
43.7562
35.1939
40.4567
44.4762
47.2932
50.4955
49.8226
37.0023
54.4351
58.8671
61.6503
53.8902
59.3714
48.8262
47.5819
49.0881
49.0939
42.2175
42.94
58.0134
59.7063
26.6314
48.3585
59.6109
58.9714
56.7778
32.7741
33.0412
40.7354
42.1607
47.9886
43.9991
37.8436
31.8749
28.052
27.7571
28.2981
29.5847
32.0155
34.1392
39.383
50.7952
55.0232
53.3802
44.05
35.2328
30.7615
29.1391
32.0743
40.3468
45.5227
47.6743
47.8238
46.4016
43.1631
39.1058
35.9363
34.1636
34.0326
34.8786
34.9009
31.4016
26.0712
22.2539
22.6462
21.4696
20.9545
20.7372
21.1042
21.6382
21.9834
22.1184
22.5414
23.8448
27.1298
33.6196
37.6499
37.9619
35.9951
36.13
41.0065
43.5002
44.3645
44.6528
44.3308
43.3476
42.2332
40.8103
40.2118
39.7139
38.1117
36.5852
36.1081
39.5744
36.6945
23.5827
18.9112
21.4951
22.4174
21.3866
20.8258
38.4616
42.1421
39.7655
41.8031
32.5293
38.6905
36.1261
37.4353
39.0838
40.1828
33.7111
44.8101
46.0261
48.7101
43.481
44.0883
38.2731
39.265
41.5414
40.8678
39.0234
35.3046
45.8694
46.0714
26.5725
42.8197
46.9249
47.5377
47.5463
28.7106
33.2518
34.5822
34.8777
39.2885
37.1912
30.1506
25.0345
21.9748
22.0057
23.0259
24.1239
26.3612
27.8217
31.8269
39.3841
42.6177
42.4431
36.7277
30.5539
27.0411
24.7575
25.5897
30.929
34.8831
36.4386
36.5326
35.5991
33.3078
30.2207
27.9774
26.5676
26.3936
27.7185
28.4448
25.0906
21.237
18.4198
18.0576
17.0068
16.381
16.5218
16.8937
17.2016
17.4599
17.7355
18.2994
19.3739
20.7592
25.1367
29.2775
29.9393
30.2715
31.0796
33.1235
34.765
35.7405
36.0901
36.0104
35.4831
34.8957
33.9988
33.6729
33.5408
31.8605
30.3654
29.6546
31.2408
28.3942
18.8633
14.7661
15.9924
16.7563
15.9328
15.7079
33.8713
36.6733
35.4924
35.925
31.9027
36.5229
33.0512
32.2785
34.5696
35.6283
32.9923
39.864
39.7272
41.1729
37.8217
38.9358
32.5066
33.3411
36.9574
35.3166
33.6001
32.7626
39.8927
40.466
27.5805
38.9382
40.303
40.808
41.4754
27.2649
34.2626
31.0819
31.2971
34.3869
33.2759
26.3267
22.0342
19.219
19.0737
20.017
21.2563
23.3777
24.7528
27.4253
32.7209
35.2338
36.0142
32.2777
27.8381
25.4166
22.5779
22.3963
25.8193
28.8492
30.0626
30.2368
29.709
28.2089
25.5912
23.655
22.2799
21.7304
22.8731
24.2689
21.9888
19.0858
16.7514
15.9133
14.7547
13.9643
14.1954
14.5849
14.7925
15.0364
15.4454
15.858
16.1651
16.9812
20.1516
24.318
25.6748
26.5722
27.9469
29.0037
29.7982
30.65
31.1532
31.4428
31.5983
32.0023
32.0711
31.9143
31.5624
28.7511
26.9647
26.1069
26.5004
23.9549
16.5687
12.5688
12.893
13.1212
12.5705
11.8903
32.5289
33.3814
31.3105
31.8687
32.1472
33.6385
29.4688
29.6223
32.4718
32.9394
32.0165
38.4617
35.9838
35.4923
33.4937
36.1508
29.2518
28.2309
33.0583
31.4111
30.0032
30.8938
36.0191
36.651
27.3875
36.3107
36.5557
35.9554
36.6551
26.7046
32.8717
28.726
29.1067
31.819
30.9276
24.4226
20.7309
17.9356
17.2828
17.7711
19.4709
21.1315
22.0604
24.5668
28.4924
30.5366
31.7379
29.2565
26.5112
24.7371
21.3875
20.589
22.7016
25.0438
26.0551
26.2057
25.8579
25.1141
22.7665
20.9724
19.5529
18.7028
19.0548
20.472
19.9645
17.8517
15.765
14.6735
13.4518
12.5444
12.5695
12.9498
13.1652
13.4423
13.7256
14.0497
14.2227
14.6909
16.756
20.6387
23.0205
24.5431
26.1043
26.7485
26.4924
27.1998
28.2993
29.2023
29.5606
29.3588
28.5657
27.8286
28.2413
27.6351
25.0416
24.3302
23.6531
20.8541
15.1833
11.6527
11.267
11.0815
10.3553
9.7648
32.969
28.6567
30.2983
30.3341
32.5772
35.0745
28.2086
27.3791
30.957
30.723
30.2604
35.035
33.1465
31.8453
31.5923
33.7224
27.7253
26.115
30.2926
29.482
28.663
28.9236
32.4119
33.4908
28.018
34.0543
33.9263
32.25
33.3726
26.4751
30.7658
27.0967
28.2244
29.2393
28.4877
23.3806
20.3028
17.4634
16.3626
16.7882
18.0157
19.0536
20.1429
22.9269
26.2548
28.1607
29.0812
27.0852
25.6353
24.0892
20.5409
19.3853
20.8305
22.9349
23.8971
24.0477
23.6731
23.1613
20.763
19.2256
17.9431
17.0356
16.7889
17.3471
17.9703
16.9284
14.7173
13.3673
12.0235
11.1864
11.2428
11.6211
11.6558
11.8765
12.2038
12.6842
12.9089
13.0711
14.1793
17.6426
21.0236
23.1014
23.9321
24.1868
23.5679
24.7689
26.3852
27.4505
26.5861
25.3955
24.0502
23.0302
23.1815
23.5156
21.3097
21.0778
21.4122
18.9662
14.3026
11.1885
10.5015
10.0389
9.27356
8.63552
34.2202
26.5718
30.1613
29.1738
33.8468
34.6278
27.8285
25.7992
29.9632
29.4513
29.4997
32.0427
30.7135
29.5016
30.5415
30.4292
26.3414
25.2517
28.4512
27.4755
28.2894
27.5299
29.8445
30.3718
28.6849
32.7089
32.142
29.0693
31.3587
26.6044
29.1899
25.796
27.3254
27.9445
26.8411
22.8071
20.328
17.0895
15.4723
15.577
16.8127
17.4998
18.7902
21.865
24.9316
26.8646
27.2717
25.6249
25.2428
23.774
20.0901
18.55
19.5516
21.5399
22.3444
22.4984
22.3084
21.7723
19.2834
17.9915
16.8678
15.9674
15.5028
15.3961
15.5196
15.5821
13.8453
12.3895
10.7798
10.0388
10.0683
10.3642
10.4006
10.6547
11.0574
11.6783
11.9832
12.0176
12.6576
15.5021
19.3231
22.191
22.1325
21.2319
20.6656
22.3763
23.6884
24.4747
23.1718
21.8973
20.5488
19.5502
19.5307
19.7406
18.2601
17.8471
18.268
17.6486
13.6856
10.9996
10.0643
9.42477
8.66161
7.94321
35.8646
26.3623
30.4969
28.0902
33.7577
35.7452
27.0171
24.294
29.7882
28.9857
29.0565
30.2101
28.7231
28.0424
30.894
26.3652
25.0674
24.3819
27.1644
26.3197
27.9743
26.1206
28.4512
28.4937
29.4275
31.5406
30.481
27.1302
30.2093
27.0899
28.0558
24.84
26.7416
26.9476
26.1412
22.3081
20.452
16.8567
14.9503
14.6179
15.5593
16.2359
17.6524
20.6937
23.6684
25.6452
26.0174
24.6238
24.7205
23.4963
19.9281
17.9457
18.4115
20.1758
20.902
21.1147
21.0457
20.6117
18.3998
17.2384
16.2659
15.3052
14.7092
14.2886
13.9476
14.443
13.3831
11.896
9.95325
9.20045
9.18531
9.42003
9.50117
9.80022
10.2653
10.9472
11.2997
11.3208
11.7262
13.9526
17.7272
20.8698
21.1148
19.3818
19.0543
21.34
22.7146
23.367
21.3646
19.6041
18.0896
17.2085
17.0998
17.2774
16.2205
15.6496
15.4729
16.4862
13.2058
10.966
9.83464
9.02497
8.23724
7.45347
35.5283
26.8091
30.24
27.0054
34.3918
37.1442
26.3904
23.4145
29.2218
27.8458
27.6662
29.2924
27.1585
26.5201
30.1042
23.366
23.5208
23.722
26.516
25.194
27.4861
25.1089
27.5253
27.149
29.4585
30.8007
29.3353
25.8168
29.0898
27.549
27.5516
24.0756
25.9678
26.4317
25.547
22.1883
20.6882
16.9078
14.6391
13.9167
14.5101
15.0849
16.4538
19.3175
22.4503
24.5705
25.1722
24.087
24.1031
23.4296
19.8755
17.4296
17.2688
18.5777
19.1372
19.383
19.6557
19.5446
17.6581
16.7814
15.8341
14.7161
13.9864
13.4249
13.0672
13.5878
12.9754
11.4036
9.38131
8.55789
8.52783
8.73768
8.84542
9.16779
9.67216
10.3868
10.7605
10.7749
11.0408
12.8757
16.2316
19.7135
20.0718
18.3844
17.9522
20.1061
21.129
21.8028
19.7857
17.9549
16.2212
15.3644
15.239
15.3958
14.6424
14.0082
13.504
15.5348
12.8719
10.9665
9.66076
8.71737
7.92602
7.08923
35.0186
27.2093
30.0122
26.2757
34.9651
36.5873
26.969
23.1337
28.6488
27.0639
26.4821
29.3834
25.9216
25.1297
29.0401
21.2391
21.116
22.9552
26.3961
24.4939
27.1602
24.447
26.1964
25.7944
29.6098
30.3755
28.3466
24.736
28.4907
27.5931
27.7337
23.534
25.5352
25.7094
24.7519
22.1028
19.6947
16.5769
14.239
13.46
13.8496
14.3079
15.4626
17.9458
20.8945
23.3007
24.2064
23.4048
23.8843
23.219
19.9626
17.019
16.075
16.765
17.0736
17.0943
17.6736
18.2863
16.9427
16.1906
15.2151
14.0344
13.2323
12.6648
12.5302
12.8142
12.6518
11.0467
8.84314
8.03708
8.01097
8.20709
8.33932
8.67965
9.21274
9.95248
10.3389
10.3632
10.5435
12.1233
14.9658
18.5803
19.0878
17.3902
17.1766
18.1221
18.8675
19.8904
17.9456
16.2009
14.6437
13.9528
13.83
13.9657
13.4847
12.8198
12.1444
14.7073
12.5649
11.0337
9.58235
8.51033
7.69974
6.81278
34.8212
26.7251
30.045
25.4217
33.0187
32.7235
27.4531
22.7494
28.2664
26.8245
25.4232
29.6512
25.1628
23.9963
28.1816
19.6096
19.3757
21.7402
26.2753
23.9082
26.2994
23.8636
24.563
24.6177
29.8485
29.5523
27.893
23.9187
27.7563
28.092
27.4479
23.1632
25.3874
25.1232
23.7919
21.3807
19.0204
16.3743
13.8979
13.0571
13.3298
13.6613
14.7692
16.8374
19.2735
21.3884
22.646
22.7537
23.4872
23.153
20.1168
16.7352
15.0684
15.357
15.5666
15.3358
15.4733
16.2556
16.0037
15.4012
14.3753
13.2363
12.3821
11.9459
12.0122
11.9737
11.8262
10.5103
8.37298
7.6184
7.58044
7.77002
7.92197
8.28739
8.83946
9.59992
9.99575
10.0217
10.1373
11.5258
13.9318
17.4281
18.2301
16.4463
15.7508
15.3913
16.0818
17.2563
15.8595
14.4992
13.3477
12.8021
12.6719
12.7846
12.557
11.8959
11.1249
13.8065
12.3466
11.152
9.59998
8.34413
7.52638
6.59275
34.7597
26.1451
29.117
24.9383
31.4272
29.2587
28.2844
22.0742
27.8531
26.8812
25.2917
30.0911
24.2528
22.4656
25.3997
18.3697
18.1508
20.2229
25.9438
23.5334
25.4959
23.1225
22.8559
23.6216
29.5399
28.222
26.3245
23.4626
27.281
29.8416
27.6674
22.7348
25.3286
24.8187
22.7599
20.4813
18.7234
16.3374
13.6529
12.7057
12.9037
13.191
14.2016
15.9523
18.0451
20.0234
21.1396
22.0203
22.9038
22.7032
19.7846
16.3526
14.2841
14.3032
14.399
13.9235
13.6482
14.2524
14.5561
14.1475
13.0628
11.881
11.1285
11.0065
11.4206
11.4327
11.1712
9.89455
7.97924
7.27305
7.2178
7.40276
7.56751
7.96348
8.53745
9.31988
9.73088
9.74771
9.79645
11.0592
13.014
16.053
17.2304
15.547
14.0549
13.4791
14.1019
15.206
14.2022
13.1727
12.3153
11.8837
11.7564
11.8519
11.8093
11.1231
10.3397
12.8543
12.2293
11.2565
9.65189
8.15757
7.33734
6.37519
33.5809
25.6707
28.6297
24.5968
28.5211
27.1679
29.5158
21.8005
27.4459
27.2833
25.7153
30.7185
24.0678
21.6985
24.3005
17.3271
17.1519
18.9605
25.3351
23.2919
25.169
22.6905
21.3803
22.7832
28.8659
27.0249
25.1507
23.2893
26.677
31.0473
28.4923
22.3689
25.5099
24.5725
22.2794
19.9598
18.553
16.4541
13.5525
12.4708
12.5671
12.7592
13.8092
15.3406
17.2059
19.1968
20.0662
20.8719
22.216
22.4018
19.6293
15.722
13.65
13.5308
13.4861
12.7614
12.1948
12.6182
13.1105
12.8988
11.8841
10.8337
10.169
10.1046
10.9366
10.9083
10.7417
9.34511
7.64432
6.97856
6.91016
7.09266
7.26611
7.68541
8.27742
9.07067
9.48772
9.48926
9.48764
10.6776
12.2454
14.7926
16.3429
14.4648
12.6305
12.0839
12.6421
13.6654
12.9122
12.1272
11.4731
11.1121
10.9846
11.0898
11.0845
10.4056
9.69327
12.0037
12.1424
11.5246
9.66789
8.00025
7.14223
6.12952
32.2393
24.7742
28.5706
24.1468
25.5945
26.5536
27.5613
21.6179
26.9257
26.8558
27.0432
28.4606
23.1259
20.9303
21.7079
16.0622
15.9745
18.0077
23.1739
22.8532
25.1405
21.7934
19.7906
21.4373
27.1732
25.1768
22.9221
22.7175
25.8041
28.4297
27.0488
21.5785
24.5147
24.5561
21.4673
19.7717
18.175
16.7604
13.5805
12.2874
12.1499
12.2699
13.3465
14.7525
16.2181
18.1776
19.1849
19.6969
20.5207
21.1653
18.5975
14.6309
12.8635
12.5233
12.234
11.2267
10.5014
10.7245
11.3078
11.2889
10.4753
9.63064
9.10855
9.02921
9.85168
10.3651
10.0834
8.66383
7.21253
6.56427
6.48159
6.65512
6.87274
7.31221
7.91873
8.71431
9.12533
9.13281
9.11033
10.2374
11.4415
13.0793
14.3839
12.5737
11.007
10.536
11.0201
11.8729
11.3818
10.8766
10.4444
10.1626
10.0346
10.1355
10.0561
9.39089
8.86274
10.9201
12.1484
11.5666
9.41943
7.63021
6.70254
5.64688
30.8923
24.8106
27.4682
23.4251
23.2703
26.1056
26.606
21.8725
24.8965
26.4751
27.205
25.6554
20.5569
20.047
18.8736
14.7506
14.6944
16.5516
20.3461
23.1471
25.2647
20.8881
18.4016
19.993
23.5051
23.0147
20.7556
22.1447
23.9909
23.3736
25.5979
19.5335
23.1687
24.0262
21.6995
18.3149
16.3304
16.3516
13.2121
11.6863
11.6542
11.6592
12.5411
13.7449
15.0955
17.1362
18.5576
19.3622
19.4113
19.5545
16.7198
13.6701
12.1812
11.5325
10.8626
9.58821
8.90934
9.08736
9.51835
9.57731
9.06904
8.4419
8.03561
7.90836
8.46277
8.93398
9.12791
8.21851
6.81464
6.12392
6.00918
6.1719
6.45149
6.93927
7.57832
8.38773
8.80174
8.80199
8.73795
9.83698
10.8408
11.9233
12.3117
10.9151
9.54766
9.22035
9.5729
10.2053
9.96434
9.66939
9.41154
9.20231
9.07598
9.10558
8.9145
8.30438
7.94441
9.64336
12.0673
11.2156
9.1821
7.16747
6.12762
5.1265
30.0534
24.0785
23.3475
21.2255
21.8318
24.336
24.5659
20.2373
22.171
25.76
28.4509
23.2312
19.05
19.2136
16.6078
13.7626
13.6797
15.2022
18.4592
22.2957
26.5214
19.9204
17.826
18.3634
20.6678
20.1089
18.3799
21.1753
21.2932
20.4049
21.5076
17.7032
21.9737
23.3385
19.914
16.3893
14.4081
15.1147
12.386
10.8411
11.1027
11.2169
11.8727
12.7839
13.8173
16.4877
18.4638
19.4907
19.7432
18.737
15.7418
13.0878
11.5729
10.6033
9.45245
8.2489
7.8147
7.96771
8.28148
8.28582
7.92885
7.45293
7.09229
7.04623
7.54279
7.86097
7.90966
7.55507
6.36966
5.737
5.63655
5.79826
6.10995
6.64078
7.25681
8.07041
8.49533
8.48321
8.36918
9.40744
10.319
11.1391
11.3021
9.96053
8.56297
8.22191
8.39812
9.02502
8.96049
8.78707
8.63327
8.48121
8.34963
8.30936
8.07051
7.51437
7.23712
8.56964
11.1288
10.6787
8.99762
6.88982
5.74588
4.74948
27.1839
22.3732
21.3018
20.242
20.9408
22.9674
23.2201
19.1693
19.9331
25.5691
30.6522
23.1849
17.9852
18.1075
15.3872
13.143
12.7861
14.1222
16.4182
22.4611
28.4479
18.5241
17.3083
16.9645
19.3426
18.3856
17.2648
20.7239
19.2522
18.9199
17.935
16.3055
20.6922
22.4061
16.8916
14.624
12.9094
13.8585
11.5474
9.98655
10.5044
10.8037
11.3678
11.8771
12.2761
15.7321
19.3511
20.0984
18.526
17.3028
15.1322
12.9714
11.1518
9.68512
8.27221
7.29023
7.05616
7.16611
7.33133
7.2667
6.96549
6.58058
6.31266
6.32818
6.83005
7.10249
7.07904
6.87657
5.97595
5.44634
5.36755
5.53262
5.83697
6.38414
6.94478
7.73749
8.20009
8.17383
7.97881
8.9029
9.79227
10.564
10.768
9.15825
7.89907
7.45725
7.52668
8.12311
8.18137
8.08519
7.99513
7.88351
7.75261
7.6623
7.38612
6.87932
6.6748
7.71846
9.94249
9.97381
8.72267
6.6773
5.43677
4.44648
19.9928
19.3193
19.782
18.7062
20.0452
22.1453
22.0376
18.6166
17.8045
24.4399
31.8214
23.0457
16.4605
16.5988
14.8177
12.7045
12.1905
13.2081
14.8734
20.3325
30.4741
17.5453
16.6608
15.9268
18.6578
17.5964
16.247
19.6912
18.18
18.306
16.506
15.3727
18.8179
20.866
15.6006
12.9752
11.7355
12.8289
10.8351
9.22651
10.0037
10.5218
11.0129
11.1644
11.3028
13.5919
17.2891
18.2507
16.1781
15.6553
14.604
12.8988
10.7552
8.94133
7.51754
6.6856
6.51569
6.59104
6.67833
6.54198
6.23355
5.88706
5.67694
5.73545
6.21705
6.49521
6.53004
6.37519
5.65781
5.21801
5.15987
5.32808
5.61235
6.14762
6.64852
7.37758
7.84314
7.85748
7.64274
8.54677
9.38749
10.0245
10.1013
8.46634
7.40431
6.87933
6.87398
7.43974
7.57902
7.53245
7.48472
7.40478
7.277
7.15055
6.85323
6.38307
6.22873
7.05393
8.89143
9.29847
8.43062
6.53372
5.21275
4.21811
17.1774
17.3778
18.6599
17.2987
19.0895
21.8087
21.9246
18.1019
15.7138
22.7353
31.944
22.3554
15.1594
15.2432
14.4091
12.3803
11.7869
12.3933
13.8397
19.0355
30.9306
16.7748
16.0752
15.1167
18.668
17.5088
15.8549
18.268
17.2741
17.6019
15.5467
14.6687
16.9864
19.3786
16.0575
11.687
10.6972
11.9278
10.1708
8.52038
9.47655
10.3709
10.9046
10.7206
10.6365
12.1381
14.3444
15.2441
14.4451
14.2638
13.7972
12.6375
10.3973
8.36693
6.94403
6.22428
6.08378
6.13321
6.16687
5.99125
5.69197
5.37371
5.18783
5.25956
5.71996
6.00866
6.09845
5.97559
5.3898
5.03576
4.99485
5.16039
5.4297
5.94941
6.40267
7.06618
7.46245
7.53222
7.34739
8.31023
9.0662
9.4823
9.38822
8.00318
7.04916
6.4519
6.39921
6.90671
7.09275
7.07546
7.05496
6.99795
6.87344
6.71434
6.39931
5.96493
5.85252
6.51836
8.01673
8.63216
8.10725
6.3997
5.03539
4.03975
15.2059
16.1722
17.5573
16.1902
18.0987
21.4945
21.5445
17.6658
14.6811
21.7092
28.419
21.5595
14.2738
14.1323
13.8722
12.1183
11.4985
11.8378
13.034
17.7526
29.4517
15.8741
15.2463
14.21
18.626
17.232
15.866
17.5459
16.6009
17.2624
14.9035
14.1914
16.0301
17.6271
15.6038
10.9903
9.90395
11.1272
9.60619
7.94636
8.89724
10.086
10.6385
10.3783
10.1725
11.3512
12.9371
13.6319
13.5589
13.5266
13.0633
11.9898
9.93922
7.90067
6.50279
5.86842
5.75906
5.79651
5.80585
5.5945
5.30788
5.02049
4.85014
4.91922
5.32415
5.65109
5.77998
5.6755
5.17676
4.87851
4.85821
5.02255
5.2736
5.76963
6.1989
6.78486
7.12322
7.21866
7.09904
8.07967
8.82855
9.14034
8.91317
7.75505
6.80009
6.15413
6.04159
6.48611
6.69965
6.70725
6.70515
6.66729
6.54703
6.36808
6.03684
5.62768
5.53866
6.09758
7.31346
7.93812
7.69617
6.2693
4.92035
3.9163
11.415
11.0586
11.543
13.5664
15.1931
18.0122
16.2318
17.4531
13.7398
10.8866
15.7933
12.6417
11.3147
10.6426
11.4169
10.9697
10.1813
9.68909
9.56295
10.9633
19.2709
11.2992
10.7352
9.8704
11.4308
14.2117
11.4366
10.4205
12.3713
12.7495
12.4575
12.6485
15.5675
14.4141
11.8984
9.32723
6.94713
6.78888
6.59066
5.25998
5.59923
7.77831
8.71614
8.30002
8.2881
8.43824
8.58615
8.8265
9.2318
10.2259
9.82549
7.86664
6.70582
5.73669
5.04622
4.84537
4.83942
4.83366
4.76433
4.49906
4.26436
4.09782
4.0597
4.16769
4.38757
4.62051
4.63624
4.46083
4.24357
4.15934
4.26514
4.43792
4.62154
4.82066
5.20561
5.46533
5.67977
5.82107
5.99051
6.96299
8.10861
8.3741
7.9314
7.00202
5.8428
5.28639
5.11916
5.20808
5.33127
5.36532
5.36025
5.30207
5.15056
4.89587
4.57808
4.32992
4.32283
4.46855
4.71338
5.03133
5.36108
5.19763
4.47088
3.49553
16.7225
13.5957
12.52
14.0508
16.6541
15.6049
13.8335
14.2034
14.0832
11.7397
9.89783
9.90557
10.6488
9.71273
8.93829
9.88762
10.4134
10.2646
9.20694
8.56234
10.3911
8.89659
8.45383
7.87118
7.49067
9.36695
7.42321
6.02475
8.73972
10.0132
8.37725
9.3756
9.97135
9.65089
8.91578
7.67718
6.07407
5.11247
5.02324
4.30732
4.48302
5.27627
6.06077
6.09504
5.61042
5.08306
5.41956
5.91518
5.66691
5.97867
6.32448
5.46072
4.84002
4.69794
4.54521
4.38339
4.19339
4.19871
4.22254
4.05059
3.77905
3.6057
3.64103
3.77967
3.85751
3.87562
3.8893
3.88666
3.70767
3.58618
3.52197
3.51839
3.69882
3.86908
3.96711
4.35966
4.86337
5.05298
5.06931
5.12876
5.37183
5.5881
5.54578
5.24573
4.75719
4.47135
4.3205
4.26458
4.2061
4.14937
4.15822
4.17951
4.12432
3.98032
3.77398
3.5799
3.526
3.57949
3.68903
3.84336
4.01702
4.03015
3.93635
3.7706
12.1933
12.2781
12.3661
11.8757
12.419
14.5386
14.4445
13.1243
11.8812
10.2989
8.57997
7.6059
7.0804
7.06217
8.11359
12.9314
11.9601
13.159
11.6741
8.78051
8.92653
8.39483
9.52484
8.50807
6.71687
7.51209
6.5953
5.88957
6.73134
8.8532
8.10341
9.91171
8.70649
7.96997
8.25061
7.60032
6.5088
5.6188
5.03201
4.36371
4.43692
4.5493
4.56896
4.40495
4.09879
3.87939
3.97754
4.36766
4.71319
4.59964
4.59882
4.5021
4.24942
4.00808
3.89188
3.90043
3.9255
3.9792
4.06332
4.01641
3.65002
3.39157
3.45337
3.51873
3.60585
3.55884
3.38444
3.28552
3.15704
3.05619
2.99179
3.04332
3.19377
3.32176
3.35176
3.50821
3.82497
4.13298
4.22677
4.19618
4.22281
4.21129
4.11498
3.95159
3.77669
3.71307
3.65553
3.62294
3.59818
3.57022
3.51532
3.4561
3.4257
3.3595
3.24363
3.11159
3.05783
3.07765
3.13096
3.20788
3.27178
3.26282
3.26674
3.26325
10.4175
11.2101
11.2054
10.8953
10.9822
12.0554
13.0926
13.3626
12.9517
11.4882
9.43841
7.58628
6.88993
6.79978
6.85635
7.02797
7.16055
7.40206
7.90966
8.93509
8.83729
8.60672
8.87955
7.94471
6.77646
6.84206
6.30121
6.11079
6.58166
7.83822
8.54039
9.24833
9.16638
8.3601
8.02719
8.10211
7.52621
6.39966
5.4841
4.74496
4.65302
4.64808
4.5493
4.34032
3.99344
3.78137
3.86491
4.01667
4.25515
4.31437
4.23982
4.15324
3.98663
3.86551
4.11018
4.16939
3.94713
3.90937
4.01984
4.05674
3.78188
3.44503
3.47224
3.45903
3.57234
3.54046
3.49763
3.42003
3.38446
3.41441
3.45535
3.48409
3.47696
3.43444
3.35632
3.33437
3.33483
3.29972
3.25289
3.26745
3.29862
3.27009
3.20476
3.11933
3.05418
3.05036
3.04958
3.04708
3.05801
3.08596
3.08667
3.04099
2.98779
2.97081
2.94014
2.86514
2.81944
2.80569
2.82596
2.8746
2.92755
2.94931
2.94994
2.94504
8.49716
8.26991
8.17232
8.23479
8.41819
8.79003
9.62688
11.1666
12.4113
12.1784
11.0438
9.50084
8.83748
8.36096
7.8101
7.02038
6.6368
6.6653
6.83901
7.61323
8.81008
9.60546
9.48218
8.39927
7.14538
6.55408
6.15912
6.17405
6.17414
6.37928
6.74092
7.60246
7.9059
7.83707
7.9494
8.08569
7.74978
7.04435
6.14682
5.30673
5.0542
4.98246
4.85506
4.63665
4.31734
4.41338
4.69381
4.46002
4.46473
4.48816
4.34053
4.24916
4.13237
4.18235
4.27645
4.35162
4.28907
4.21232
4.30357
4.38949
4.19782
3.7226
3.55524
3.65734
3.98391
3.73228
3.57512
3.63633
3.69756
3.80042
3.87595
3.86763
3.83887
3.80269
3.71572
3.60458
3.45461
3.27512
3.12209
2.97274
2.85166
2.74211
2.63873
2.55643
2.50666
2.46357
2.42445
2.41966
2.45462
2.53992
2.66282
2.72024
2.71859
2.70687
2.69555
2.67194
2.65911
2.65693
2.63593
2.65177
2.67382
2.67138
2.68432
2.70975
8.76746
8.2621
7.71582
7.40409
7.3823
7.47152
7.73476
8.39327
9.87015
10.9492
10.7276
10.285
9.8352
9.26511
8.58574
7.84638
7.02609
6.37258
6.24461
6.46175
7.30826
8.75299
9.59051
9.33373
8.65924
7.59099
6.77371
6.21817
6.09384
6.28578
6.22161
6.26194
6.66707
6.99256
7.50929
8.17554
7.90467
7.2824
6.66503
5.97408
5.37667
5.17468
5.07899
4.91431
4.61454
4.58366
4.77247
4.81851
4.89742
4.87742
4.65525
4.48428
4.42511
4.42279
4.50867
4.63166
4.73163
4.81303
4.87984
4.96336
4.73884
4.22958
3.80413
4.14248
5.12598
4.73541
3.89708
3.87996
3.98962
4.06413
4.12388
4.09694
4.00098
3.95453
3.91262
3.8637
3.77967
3.63607
3.43138
3.17568
2.91165
2.70376
2.5381
2.39398
2.277
2.17389
2.07893
2.01441
2.00851
2.04115
2.11921
2.23415
2.38161
2.5249
2.56774
2.54923
2.51896
2.50715
2.50801
2.52143
2.54656
2.54831
2.53802
2.53873
7.32801
6.77119
6.39076
6.25722
6.2593
6.3339
6.53137
6.88867
7.54641
8.55822
9.35983
9.65403
9.65272
9.36908
8.7079
7.84853
7.05376
6.4826
6.10389
5.99356
6.12263
6.80425
8.09532
8.87375
8.81152
8.52686
8.0685
7.7678
7.66982
7.33567
6.68173
5.72688
5.41722
5.52358
5.86173
6.29585
6.86787
7.00551
6.82106
6.44474
5.90889
5.38899
5.11053
4.90493
4.6142
4.52346
4.62231
4.757
4.93839
4.93389
4.73185
4.61999
4.62759
4.67184
4.77124
4.89293
5.05425
5.28278
5.43485
5.59957
5.54561
5.13768
4.63497
4.88547
5.42218
5.17236
4.14231
3.80238
4.01227
4.12537
4.23283
4.2671
4.20343
4.08879
4.02506
3.97148
3.90708
3.81048
3.64436
3.40649
3.12239
2.83416
2.60381
2.4111
2.26083
2.12749
1.99629
1.87093
1.77637
1.74945
1.76921
1.84265
1.99073
2.20991
2.33786
2.36388
2.39562
2.43647
2.44631
2.46586
2.47326
2.45355
2.42268
2.39245
6.16191
5.83328
5.6475
5.59149
5.58398
5.63576
5.80305
6.07996
6.49034
7.04415
7.68588
8.42167
8.64727
8.51209
8.1383
7.59529
6.99322
6.45299
5.96018
5.65547
5.59795
5.71236
6.19658
7.09939
7.78272
7.94785
7.87813
7.75881
7.61064
7.36116
6.93754
6.37924
5.66987
4.98038
4.81296
4.89079
5.16613
5.74311
6.41786
6.41876
6.22833
5.86922
5.36345
4.89479
4.50858
4.32685
4.34733
4.4817
4.72832
4.81011
4.70568
4.63868
4.68299
4.80273
4.93133
5.02053
5.11403
5.27521
5.55819
5.89483
6.05188
6.04913
5.96466
6.0227
6.0596
5.84178
4.91504
4.0909
4.16213
4.28794
4.36443
4.55473
4.50859
4.47598
4.46795
4.40405
4.25414
4.07064
3.84283
3.58439
3.28481
2.96998
2.73275
2.54166
2.37835
2.22274
2.06205
1.89636
1.74704
1.63661
1.60216
1.61632
1.67953
1.79614
1.93146
2.07258
2.29095
2.49605
2.48776
2.4826
2.49519
2.48003
2.44161
2.38665
5.60576
5.43524
5.26139
5.12401
5.09826
5.15694
5.31735
5.56547
5.88793
6.28968
6.79167
7.4959
8.04195
8.05455
7.84679
7.42683
6.8654
6.24624
5.72354
5.33753
5.19513
5.2172
5.34485
5.62073
6.0695
6.54256
6.76823
6.8352
6.80749
6.7566
6.63415
6.30858
5.78442
5.15208
4.5005
4.24837
4.25653
4.45991
5.0247
5.86748
6.0628
5.9787
5.67741
5.10309
4.43483
4.03813
3.97526
4.04332
4.23663
4.40235
4.36638
4.30345
4.329
4.42217
4.55183
4.65936
4.74929
4.84303
4.94467
5.15238
5.56429
5.98227
6.11419
6.09411
6.10328
6.0077
5.60834
4.8987
4.44217
4.49051
4.58077
4.65454
4.72666
4.74744
4.74088
4.71051
4.61726
4.43111
4.15253
3.8249
3.4482
3.07876
2.80151
2.60043
2.43655
2.28512
2.13099
1.96924
1.79752
1.62614
1.51271
1.47473
1.48451
1.533
1.62789
1.78905
2.05642
2.40016
2.54268
2.56339
2.56409
2.53202
2.46408
2.37391
5.49412
5.36298
5.17649
4.96679
4.9036
4.94318
5.10159
5.396
5.79342
6.25517
6.80385
7.54961
8.17803
8.21934
7.96628
7.40539
6.58173
5.70752
5.13354
4.77643
4.67232
4.68238
4.73616
4.85863
5.04963
5.2809
5.50478
5.71467
5.98251
6.17113
6.12419
5.92536
5.57425
5.11546
4.5651
4.03113
3.8158
3.831
4.00524
4.53287
5.39503
5.80127
5.74669
5.36928
4.63576
4.05586
3.82625
3.80702
3.8572
3.94145
4.02315
4.11966
4.33688
4.69341
4.9326
4.97867
4.97358
4.91189
4.77681
4.70926
4.76666
5.01372
5.43229
5.78277
6.03317
6.09418
5.94028
5.58759
5.15729
4.83132
4.76058
4.79405
4.89562
4.97026
4.96215
4.91139
4.80767
4.64669
4.42108
4.12213
3.74178
3.29387
2.92438
2.669
2.48277
2.32996
2.18102
2.02767
1.86751
1.69653
1.52323
1.41826
1.38913
1.39933
1.44812
1.55699
1.75151
2.05088
2.4179
2.58316
2.60383
2.57441
2.5029
2.4039
5.5031
5.45306
5.32576
5.11155
5.00784
5.02655
5.19394
5.55371
6.02687
6.59539
7.28861
8.11518
8.40735
8.22454
7.65029
6.74705
5.70848
4.93972
4.41954
4.12297
4.0667
4.08743
4.15608
4.28227
4.45198
4.64966
4.85671
5.0716
5.33601
5.5589
5.57835
5.50552
5.28969
4.92133
4.4414
3.89577
3.56653
3.47635
3.5146
3.71216
4.25533
5.15847
5.54493
5.43776
4.96077
4.2473
3.92178
3.87891
3.89703
3.9503
4.05709
4.32856
4.85317
5.52956
5.82008
5.7868
5.51878
5.12685
4.7647
4.45183
4.28319
4.28027
4.39358
4.66078
5.036
5.4804
5.58253
5.49673
5.34357
5.27499
5.25863
5.23742
5.19974
5.13788
5.05346
4.95995
4.85692
4.72879
4.55959
4.31544
3.96605
3.51464
3.0465
2.72453
2.50483
2.33823
2.18884
2.04441
1.89342
1.7303
1.55491
1.40218
1.31882
1.30236
1.31721
1.37587
1.50392
1.73999
2.14105
2.48649
2.5547
2.54269
2.487
2.39461
5.57602
5.6705
5.65357
5.56071
5.45494
5.46984
5.69098
6.15958
6.77217
7.52135
8.07842
8.25902
8.12203
7.50971
6.49404
5.51112
4.82533
4.3558
4.00657
3.74387
3.65265
3.66923
3.74628
3.88151
4.05318
4.24231
4.43831
4.65614
4.93315
5.30939
5.48849
5.44575
5.23418
4.83239
4.28974
3.71914
3.34508
3.18254
3.16382
3.23044
3.4727
4.08734
5.00433
5.2544
5.09713
4.66394
4.13033
3.96186
3.99105
4.06301
4.34153
5.03742
6.27663
6.98963
6.94551
6.53054
5.78848
5.15464
4.87613
4.63451
4.38956
4.14463
4.08095
4.10399
4.20645
4.42447
4.72437
4.85998
4.91291
4.96666
5.02711
5.04442
5.03455
4.99007
4.91029
4.8207
4.74568
4.67118
4.57256
4.39101
4.10089
3.69394
3.19756
2.79921
2.5352
2.34428
2.18387
2.0316
1.87751
1.71867
1.55355
1.39692
1.28772
1.24225
1.24064
1.26807
1.34693
1.51119
1.81376
2.23025
2.45158
2.48597
2.45781
2.37999
5.27119
5.62933
5.85328
6.00508
6.1101
6.26057
6.58121
6.99442
7.40633
7.69583
7.76723
7.56071
6.88032
5.85492
5.0838
4.62616
4.30311
4.04187
3.7853
3.55944
3.46232
3.46745
3.53208
3.67073
3.86542
4.09126
4.33126
4.59932
4.92726
5.32784
5.44471
5.37567
5.11809
4.65178
4.03968
3.51091
3.1911
3.00697
2.95602
2.9703
3.07135
3.36079
4.03384
4.82286
4.93036
4.82332
4.60008
4.29858
4.14328
4.33346
5.10609
6.68512
8.23508
8.43426
7.92743
6.85558
5.65716
4.89336
4.55105
4.34974
4.20226
4.10701
4.01057
3.88713
3.83686
3.85681
3.91613
3.98932
4.06988
4.16221
4.24059
4.31677
4.40543
4.44702
4.44809
4.44882
4.45938
4.46933
4.44695
4.35622
4.14197
3.79055
3.31733
2.85448
2.55411
2.34103
2.16899
2.0129
1.85932
1.70062
1.54967
1.39712
1.27738
1.20176
1.18032
1.18745
1.22753
1.32813
1.53402
1.88906
2.25051
2.35891
2.35779
2.30918
4.4475
4.9779
5.42137
5.75533
5.99469
6.24239
6.55958
6.79287
6.94167
6.89587
6.50326
5.85333
5.08643
4.56034
4.31289
4.19187
4.0777
3.93629
3.76077
3.56092
3.45097
3.4456
3.51976
3.6783
3.89643
4.14624
4.41507
4.72285
5.11637
5.46667
5.49608
5.34323
4.94138
4.34281
3.74591
3.355
3.10811
2.94937
2.87924
2.85562
2.87961
3.00311
3.32235
3.98912
4.56441
4.67229
4.61975
4.49075
4.36855
4.65605
5.77942
6.6338
6.37769
5.67104
4.82517
4.4008
4.25493
4.19356
4.15201
4.12331
4.08061
4.03864
3.98018
3.90046
3.80672
3.72349
3.69002
3.67431
3.67699
3.69062
3.71689
3.75422
3.80837
3.88531
3.96976
4.05645
4.17459
4.30513
4.3196
4.26925
4.11338
3.8203
3.39382
2.90836
2.56607
2.31734
2.12123
1.95313
1.79033
1.63071
1.48904
1.35992
1.25161
1.16952
1.13508
1.13377
1.15181
1.21246
1.34705
1.59633
1.9653
2.19777
2.24633
2.22362
3.33167
3.86499
4.38838
4.80613
5.10952
5.35957
5.53317
5.55104
5.43507
5.11019
4.58406
4.13697
3.88416
3.78089
3.81118
3.88366
3.89258
3.88695
3.83349
3.69197
3.56999
3.56001
3.63974
3.82324
4.0866
4.3847
4.71662
5.12594
5.46315
5.52221
5.40298
5.03518
4.43585
3.82773
3.45118
3.24819
3.1214
3.00073
2.91221
2.85976
2.85914
2.89266
3.01235
3.31947
3.8961
4.31317
4.43496
4.40199
4.39539
4.5056
4.61669