/*--------------------------------*- C++ -*----------------------------------*\
| =========                 |                                                 |
| \\      /  F ield         | OpenFOAM: The Open Source CFD Toolbox           |
|  \\    /   O peration     | Version:  v1912                                 |
|   \\  /    A nd           | Website:  www.openfoam.com                      |
|    \\/     M anipulation  |                                                 |
\*---------------------------------------------------------------------------*/
FoamFile
{
    version     2.0;
    format      ascii;
    class       volSymmTensorField;
    location    "60";
    object      R;
}
// * * * * * * * * * * * * * * * * * * * * * * * * * * * * * * * * * * * * * //

dimensions      [0 2 -2 0 0 0 0];


internalField   nonuniform List<symmTensor> 
14268
(
(0.0100546 -0.00211822 0 0.0101975 0 0.00825068)
(0.024804 -0.00443464 0 0.0802223 0 0.0237029)
(0.0205292 0.00212946 0 0.0631724 0 0.0224364)
(0.0139285 0.000955786 0 0.0144671 0 0.0150229)
(0.00726915 0.00147355 0 0.0155893 0 0.00717843)
(0.00530446 0.00133012 0 0.00982083 0 0.00460273)
(0.0160527 -0.0028439 0 0.0414069 0 0.0143992)
(0.0242374 -0.00442596 0 0.0690631 0 0.0233985)
(0.0220607 -0.00275735 0 0.0619486 0 0.0214553)
(0.0212016 -0.00168575 0 0.0479625 0 0.0218552)
(0.00916927 0.0013727 0 0.0143414 0 0.00787224)
(0.021495 -0.00621159 0 0.0257919 0 0.0182453)
(0.0429647 -0.0124235 0 0.0709723 0 0.0411061)
(0.0460549 -0.0100987 0 0.107418 0 0.049628)
(0.0349689 -0.00202256 0 0.0971769 0 0.0416291)
(0.0301935 -4.54432e-05 0 0.0714712 0 0.0386329)
(0.024977 0.000781444 0 0.0520628 0 0.029926)
(0.0231148 0.00158451 0 0.0641373 0 0.0245607)
(0.0240587 0.00114803 0 0.077015 0 0.0241945)
(0.0221049 0.00710513 0 0.061506 0 0.0216869)
(0.00573601 0.00146646 0 0.00855033 0 0.00490408)
(0.0115153 -0.00151473 0 0.00704721 0 0.0105253)
(0.0315681 -0.00555232 0 0.0456024 0 0.0327972)
(0.026573 0.00141244 0 0.0439555 0 0.0279361)
(0.00461995 0.000280429 0 0.00175025 0 0.00421122)
(0.0137736 -0.00357069 0 0.013766 0 0.0114582)
(0.0318741 -0.00805625 0 0.0691676 0 0.0296713)
(0.0348833 -0.00280557 0 0.0909114 0 0.0367824)
(0.0310354 0.00644137 0 0.0679083 0 0.0361716)
(0.00915986 0.00293616 0 0.00223136 0 0.00839358)
(0.00298221 0.000507088 0 0.00234006 0 0.00252598)
(0.0130663 0.00210633 0 0.0276738 0 0.0118388)
(0.0151132 0.00692773 0 0.0228972 0 0.0133301)
(0.0135961 0.00555881 0 0.0191543 0 0.0113258)
(0.0136125 0.00182211 0 0.024957 0 0.0123918)
(0.017167 0.00107291 0 0.0341009 0 0.0167223)
(0.0137444 -0.000926141 0 0.0252742 0 0.0140526)
(0.00959941 -0.00121893 0 0.0184309 0 0.009423)
(0.00863244 -0.00202897 0 0.016468 0 0.00801797)
(0.00868273 -0.00253783 0 0.0140148 0 0.00764386)
(0.00968598 -0.00310185 0 0.0123991 0 0.0080002)
(0.0110935 -0.00369936 0 0.0118995 0 0.00857609)
(0.0135797 -0.00437864 0 0.0140395 0 0.0106271)
(0.0182275 -0.0058157 0 0.0242226 0 0.0155959)
(0.0260826 -0.0079386 0 0.0502785 0 0.0243598)
(0.0277992 -0.00638465 0 0.0599184 0 0.0273443)
(0.0237291 -0.00313374 0 0.048563 0 0.0233521)
(0.0155087 -0.00117792 0 0.0238521 0 0.0144498)
(0.00979228 -0.000173765 0 0.0111702 0 0.00886132)
(0.00745936 -4.50367e-05 0 0.00746092 0 0.00675503)
(0.00760983 6.71727e-05 0 0.00873095 0 0.00713251)
(0.011563 0.000159526 0 0.0197773 0 0.0115371)
(0.017943 -0.000464043 0 0.0343498 0 0.0186858)
(0.0216503 -0.00145889 0 0.0434113 0 0.0229645)
(0.0226434 -0.00148123 0 0.0469868 0 0.0243426)
(0.0222505 -0.00122366 0 0.0459139 0 0.0244431)
(0.0215937 -0.00202844 0 0.0435602 0 0.0239116)
(0.0206052 -0.00217172 0 0.041424 0 0.0225108)
(0.0178912 -0.00169442 0 0.0367288 0 0.0193493)
(0.0151764 -0.00152185 0 0.03251 0 0.0164013)
(0.0133131 -0.00173694 0 0.0302717 0 0.0143382)
(0.0122527 -0.00219521 0 0.0299958 0 0.013089)
(0.011624 -0.00260909 0 0.027671 0 0.0122122)
(0.010976 -0.00251356 0 0.0236623 0 0.0113135)
(0.0100478 -0.00216572 0 0.0204843 0 0.0101311)
(0.00732759 -0.00140012 0 0.0112005 0 0.00697245)
(0.00408248 -0.000530868 0 0.000876347 0 0.00345477)
(0.00405447 -0.00029849 0 3.01366e-05 0 0.00328735)
(0.00544384 -0.000321945 0 1e-15 0 0.00439096)
(0.00664348 -0.000472857 0 1e-15 0 0.00542946)
(0.00743551 -0.000718276 0 1e-15 0 0.0061439)
(0.00772009 -0.000882724 0 1e-15 0 0.00638528)
(0.00779461 -0.000854592 0 1e-15 0 0.00634621)
(0.00751215 -0.000538035 0 1e-15 0 0.00596132)
(0.00724251 -0.000453392 0 1e-15 0 0.00574082)
(0.00777527 -0.000488619 0 1e-15 0 0.00612543)
(0.00900677 -0.000960798 0 0.00186335 0 0.00700658)
(0.0125732 -0.00360483 0 0.0148893 0 0.0100402)
(0.0158352 -0.00581527 0 0.0330852 0 0.0140133)
(0.0162032 -0.0051338 0 0.0405401 0 0.0155129)
(0.01333 -0.00179125 0 0.0355077 0 0.0129818)
(0.00794179 -0.000423969 0 0.0162334 0 0.00688054)
(0.00830582 -0.00127457 0 0.0135549 0 0.00693849)
(0.014524 -0.00251826 0 0.0274617 0 0.0131623)
(0.0180605 -0.00312318 0 0.0387053 0 0.0171692)
(0.0204945 -0.00376353 0 0.0449016 0 0.0200354)
(0.0213838 -0.00424936 0 0.0472918 0 0.020883)
(0.0213869 -0.00378504 0 0.0484734 0 0.0206612)
(0.0213398 -0.0030228 0 0.0467079 0 0.0204809)
(0.0218561 -0.00285863 0 0.0427155 0 0.0204556)
(0.0226061 -0.00338527 0 0.0394085 0 0.0206389)
(0.0234997 -0.00416314 0 0.0377197 0 0.0210073)
(0.0204907 -0.0042255 0 0.0319034 0 0.0182595)
(0.0167849 -0.00409938 0 0.0239248 0 0.0148963)
(0.014946 -0.0040566 0 0.0225736 0 0.0134348)
(0.0144205 -0.00408931 0 0.0216738 0 0.0133222)
(0.0164469 -0.00360129 0 0.031101 0 0.0171717)
(0.016136 -0.00322006 0 0.0281116 0 0.0168701)
(0.00847016 -0.000461991 0 0.0102178 0 0.00833905)
(0.00405377 -0.00090685 0 0.00475393 0 0.00386047)
(0.00532623 -0.00166294 0 0.0104585 0 0.00508706)
(0.00534728 -0.000844291 0 0.0117609 0 0.00527437)
(0.00438938 -0.000287912 0 0.0092513 0 0.00429663)
(0.00381829 0.000351472 0 0.00580737 0 0.0036386)
(0.0369546 -0.00634812 0 0.0185272 0 0.02757)
(0.0441519 -0.010876 0 0.304778 0 0.0392118)
(0.032108 0.00464929 0 0.112497 0 0.0346481)
(0.0424409 -0.00346891 0 0.00363783 0 0.0439749)
(0.018453 0.00342101 0 0.0197657 0 0.0170361)
(0.0189113 0.00628262 0 0.0562598 0 0.0141764)
(0.0281208 -0.00776244 0 0.132302 0 0.0235017)
(0.0441153 -0.0132834 0 0.201736 0 0.0412096)
(0.0572451 -0.0297015 0 0.288734 0 0.0510475)
(0.0596457 -0.0158965 0 0.208945 0 0.0604768)
(0.0281849 0.00885906 0 0.055332 0 0.0221475)
(0.0691664 -0.0275182 0 0.113355 0 0.052506)
(0.123379 -0.0539322 0 0.287622 0 0.114036)
(0.11521 -0.0437004 0 0.429275 0 0.12946)
(0.0671693 -0.00869185 0 0.315657 0 0.0895079)
(0.0841579 -0.0148297 0 0.330833 0 0.124658)
(0.0656705 -0.00125497 0 0.183985 0 0.0868312)
(0.0464346 -0.00717684 0 0.214265 0 0.0487304)
(0.0457035 -0.0167807 0 0.292058 0 0.0426149)
(0.0526069 0.0220594 0 0.259744 0 0.0491403)
(0.014792 0.00162356 0 0.0427133 0 0.0100531)
(0.0498805 -0.0100227 0 1e-15 0 0.0404166)
(0.140423 -0.0422104 0 0.281624 0 0.144742)
(0.09955 0.0164188 0 0.23643 0 0.105631)
(0.019822 0.00579894 0 1e-15 0 0.0180024)
(0.0473777 -0.0148097 0 0.0562693 0 0.0359004)
(0.0916546 -0.0380506 0 0.350131 0 0.0795476)
(0.0882745 -0.0122968 0 0.417932 0 0.0957166)
(0.0850452 0.0302622 0 0.297444 0 0.106786)
(0.0388781 0.0165967 0 1e-15 0 0.0316612)
(0.0131283 0.00233476 0 0.00526717 0 0.00983999)
(0.0372024 0.00599724 0 0.121259 0 0.0310759)
(0.0499815 0.0291776 0 0.0923323 0 0.0390955)
(0.0504889 0.0276956 0 0.0879318 0 0.0375231)
(0.035117 0.00843427 0 0.0923531 0 0.0304269)
(0.0425411 0.00399723 0 0.10869 0 0.0402982)
(0.0343838 -0.00234407 0 0.0702728 0 0.0349865)
(0.0239352 -0.00259879 0 0.0550183 0 0.0231806)
(0.0217281 -0.00476096 0 0.0599461 0 0.0198403)
(0.0236909 -0.00759896 0 0.0538785 0 0.0201178)
(0.0311918 -0.0123205 0 0.0494484 0 0.0235871)
(0.0377049 -0.0157209 0 0.0504394 0 0.0258205)
(0.0466995 -0.0191645 0 0.0512378 0 0.0317249)
(0.0615135 -0.0277698 0 0.106436 0 0.0473119)
(0.0810116 -0.0382541 0 0.248358 0 0.0722737)
(0.0858405 -0.0298968 0 0.316069 0 0.0842032)
(0.0752264 -0.00969795 0 0.26368 0 0.0746606)
(0.0517693 -0.0016271 0 0.118642 0 0.046848)
(0.0331167 -0.00180994 0 0.0413404 0 0.0279987)
(0.0254731 -0.00140152 0 0.022422 0 0.0215167)
(0.0250032 -0.00127123 0 0.0254664 0 0.0220703)
(0.030632 -0.00191813 0 0.0511184 0 0.0296488)
(0.0449516 -0.00580902 0 0.101096 0 0.047302)
(0.05708 -0.0121215 0 0.165177 0 0.0620079)
(0.0577944 -0.0102749 0 0.175295 0 0.0647809)
(0.0548567 -0.00892425 0 0.157792 0 0.0638215)
(0.0531467 -0.0122966 0 0.141951 0 0.0622491)
(0.0501861 -0.0112135 0 0.132062 0 0.0576099)
(0.0429232 -0.00789446 0 0.114689 0 0.0487307)
(0.035625 -0.00645363 0 0.10542 0 0.0406862)
(0.0306069 -0.00677664 0 0.108487 0 0.035121)
(0.0277903 -0.00855048 0 0.116209 0 0.0316945)
(0.0279151 -0.0115816 0 0.117551 0 0.0307937)
(0.02951 -0.0126625 0 0.112905 0 0.0311846)
(0.0286312 -0.0112584 0 0.10187 0 0.0291525)
(0.0237 -0.00812315 0 0.0522603 0 0.0220983)
(0.0192326 -0.00332005 0 0.000613842 0 0.0153584)
(0.0206144 -0.00143691 0 1e-15 0 0.0153838)
(0.0256722 -0.00155445 0 1e-15 0 0.0191867)
(0.0299041 -0.00200537 0 1e-15 0 0.0228282)
(0.0332363 -0.00347327 0 1e-15 0 0.0259206)
(0.0343572 -0.00449609 0 0.00255928 0 0.0268977)
(0.0360554 -0.00449595 0 0.00144744 0 0.0275986)
(0.0367128 -0.00289479 0 1e-15 0 0.0271445)
(0.0354539 -0.00208951 0 1e-15 0 0.026084)
(0.0366298 -0.00187575 0 1e-15 0 0.026797)
(0.037568 -0.0023259 0 0.00166777 0 0.0268665)
(0.0390146 -0.0113997 0 0.0485472 0 0.0274844)
(0.0383213 -0.0210249 0 0.110714 0 0.0302829)
(0.0376783 -0.0218984 0 0.153743 0 0.0338804)
(0.0318778 -0.0102607 0 0.15006 0 0.0297169)
(0.0228189 -0.00341371 0 0.0826373 0 0.0177993)
(0.0245952 -0.0031088 0 0.0687564 0 0.018919)
(0.0394276 -0.00716322 0 0.128069 0 0.0343325)
(0.0469129 -0.0124932 0 0.174111 0 0.0430392)
(0.053152 -0.017925 0 0.1913 0 0.0504021)
(0.0554202 -0.0202561 0 0.19623 0 0.0521782)
(0.0541528 -0.0175761 0 0.195759 0 0.0496578)
(0.0544066 -0.0134028 0 0.180705 0 0.049245)
(0.0578436 -0.0114581 0 0.158701 0 0.0504468)
(0.0636145 -0.0132155 0 0.141942 0 0.0532994)
(0.068251 -0.0161808 0 0.134349 0 0.055612)
(0.0635079 -0.0175529 0 0.126806 0 0.0518241)
(0.0555963 -0.0179044 0 0.102929 0 0.0454792)
(0.0495983 -0.0188463 0 0.101318 0 0.0410761)
(0.0477722 -0.0199427 0 0.0978476 0 0.0409281)
(0.0478778 -0.0173637 0 0.133217 0 0.0496219)
(0.0498116 -0.0182776 0 0.114221 0 0.051078)
(0.0284426 -0.00418677 0 0.0344367 0 0.0267201)
(0.0132614 -0.00338288 0 0.0182373 0 0.0126674)
(0.0138746 -0.00564629 0 0.0401003 0 0.0132269)
(0.0141101 -0.00487494 0 0.0453447 0 0.0133636)
(0.0121199 -0.00218291 0 0.0370649 0 0.0114607)
(0.0128721 -0.00120278 0 0.0212234 0 0.011532)
(0.0642985 -0.000184888 0 1e-15 0 0.0498831)
(0.0482404 -0.010462 0 0.309873 0 0.0407536)
(0.0499718 -0.00741311 0 0.0558248 0 0.0482291)
(0.107995 -0.0136204 0 1e-15 0 0.0978104)
(0.0398976 0.00260467 0 1e-15 0 0.0357161)
(0.0253441 -0.0029101 0 0.133196 0 0.0170569)
(0.0418548 -0.00554016 0 0.114895 0 0.0347546)
(0.0595896 -0.0164021 0 0.222309 0 0.055389)
(0.0931025 -0.0701361 0 0.537711 0 0.0794843)
(0.0946226 -0.0295615 0 0.460357 0 0.0939225)
(0.0451017 0.0139882 0 0.106674 0 0.0345586)
(0.0990415 -0.034432 0 0.259733 0 0.0783642)
(0.16475 -0.0693283 0 0.469139 0 0.154674)
(0.144132 -0.0459456 0 0.551516 0 0.164141)
(0.0776448 -0.0144878 0 0.312967 0 0.102945)
(0.141954 -0.0582836 0 0.717539 0 0.205178)
(0.101978 -0.00289594 0 0.337933 0 0.138857)
(0.060439 -0.00595972 0 0.237393 0 0.064303)
(0.0528989 -0.0157894 0 0.292109 0 0.0483577)
(0.0620098 0.00912525 0 0.357471 0 0.0568072)
(0.023766 -0.00573285 0 0.118465 0 0.0142564)
(0.0944236 -0.032155 0 0.0402259 0 0.0714141)
(0.215815 -0.0794207 0 0.707276 0 0.216787)
(0.183781 0.036957 0 0.68382 0 0.188712)
(0.0419995 0.017518 0 1e-15 0 0.0360828)
(0.0813911 -0.0292196 0 0.158031 0 0.0599232)
(0.138271 -0.0562642 0 0.668652 0 0.120591)
(0.115843 -0.0164191 0 0.610412 0 0.124755)
(0.0988964 0.0240875 0 0.353192 0 0.124577)
(0.0675279 0.0289193 0 0.0123259 0 0.0510515)
(0.0236862 0.00356229 0 1e-15 0 0.017529)
(0.0536522 0.00245687 0 0.195945 0 0.0448008)
(0.0526075 0.0259314 0 0.0980208 0 0.0402883)
(0.0485119 0.017614 0 0.0868317 0 0.0360627)
(0.0529243 0.000142822 0 0.108242 0 0.0450787)
(0.0639055 -0.00131369 0 0.12142 0 0.0581179)
(0.0555938 -0.00690713 0 0.0476059 0 0.0532893)
(0.0380824 -0.00539534 0 0.0210848 0 0.0341593)
(0.03401 -0.00686928 0 0.0346772 0 0.0291607)
(0.0373702 -0.0127046 0 0.0569238 0 0.0298285)
(0.0473495 -0.0192306 0 0.075573 0 0.0348169)
(0.0545127 -0.0227048 0 0.0823593 0 0.0369916)
(0.064766 -0.0271661 0 0.081255 0 0.0431319)
(0.0895352 -0.0459833 0 0.227756 0 0.067136)
(0.122052 -0.0667618 0 0.512555 0 0.10704)
(0.127893 -0.0499235 0 0.645472 0 0.125082)
(0.114423 -0.0166219 0 0.564144 0 0.114068)
(0.082012 -0.00324172 0 0.299528 0 0.0747127)
(0.0531401 -0.00550339 0 0.10232 0 0.0438378)
(0.0419378 -0.00445922 0 0.0396968 0 0.0340354)
(0.0414121 -0.00448119 0 0.0326428 0 0.0349331)
(0.0507153 -0.0060137 0 0.060021 0 0.0474333)
(0.0731708 -0.0153296 0 0.179495 0 0.0756356)
(0.0874073 -0.0245497 0 0.317612 0 0.0943254)
(0.0892277 -0.0222847 0 0.339436 0 0.100108)
(0.0873867 -0.0227434 0 0.313663 0 0.101686)
(0.0856096 -0.0284176 0 0.278061 0 0.100015)
(0.0776365 -0.0234977 0 0.2252 0 0.0887493)
(0.0644393 -0.0140426 0 0.158751 0 0.0731218)
(0.0512898 -0.00794911 0 0.121151 0 0.0589029)
(0.0409575 -0.00688225 0 0.118189 0 0.0475296)
(0.0357849 -0.00910958 0 0.128315 0 0.0414968)
(0.0359112 -0.0154517 0 0.171057 0 0.0402373)
(0.0385923 -0.0195235 0 0.217183 0 0.0413545)
(0.0389714 -0.0207212 0 0.219347 0 0.0399214)
(0.0346335 -0.0170992 0 0.139506 0 0.0327106)
(0.028794 -0.008402 0 0.0288216 0 0.023605)
(0.029837 -0.00460724 0 0.0120025 0 0.022813)
(0.0343641 -0.00429308 0 0.0137354 0 0.0263484)
(0.0390743 -0.00483473 0 0.00928234 0 0.0306399)
(0.0421931 -0.00680842 0 0.0294374 0 0.0339341)
(0.0435546 -0.00756958 0 0.0383515 0 0.0351768)
(0.046441 -0.00811412 0 0.0346976 0 0.0364393)
(0.0485097 -0.00683396 0 0.0287469 0 0.0363807)
(0.0483257 -0.00578105 0 0.0261181 0 0.035622)
(0.0537851 -0.00585681 0 0.014082 0 0.0388954)
(0.0569294 -0.00369179 0 1e-15 0 0.0398956)
(0.054182 -0.00921273 0 0.0358743 0 0.0376071)
(0.0510237 -0.0234284 0 0.114658 0 0.0393504)
(0.0499931 -0.0287444 0 0.213634 0 0.0443356)
(0.0463376 -0.0211514 0 0.254639 0 0.0420093)
(0.035535 -0.0087777 0 0.17336 0 0.0270014)
(0.0384639 -0.00552862 0 0.150316 0 0.0290743)
(0.0571593 -0.0115112 0 0.251626 0 0.0495612)
(0.0660973 -0.0185711 0 0.313104 0 0.060572)
(0.0716712 -0.0232341 0 0.305701 0 0.0677516)
(0.0737774 -0.0248785 0 0.288302 0 0.0687871)
(0.0725371 -0.0211114 0 0.268586 0 0.0652693)
(0.073511 -0.0154887 0 0.223613 0 0.0644791)
(0.0791333 -0.0112651 0 0.177556 0 0.0666837)
(0.0889221 -0.0108824 0 0.149933 0 0.0720308)
(0.0949919 -0.0132927 0 0.142808 0 0.0752655)
(0.0887892 -0.0181585 0 0.16284 0 0.0705069)
(0.0814404 -0.0258005 0 0.168607 0 0.0642593)
(0.071925 -0.0272202 0 0.180198 0 0.0577529)
(0.0685199 -0.0296646 0 0.186889 0 0.0569684)
(0.0677421 -0.0265252 0 0.237401 0 0.0682017)
(0.0760069 -0.0349381 0 0.222918 0 0.0748592)
(0.044315 -0.00831615 0 0.0704869 0 0.0404349)
(0.0205977 -0.0038717 0 0.0160252 0 0.0193656)
(0.0205987 -0.00739432 0 0.0335364 0 0.0194357)
(0.0205105 -0.0068719 0 0.0482318 0 0.0191945)
(0.0185471 -0.00438414 0 0.0409201 0 0.0172693)
(0.0227868 -0.00472576 0 0.0126544 0 0.0195358)
(0.0785082 0.0110106 0 3.86045e-05 0 0.0756152)
(0.0458236 -0.00347451 0 0.186032 0 0.0346807)
(0.0731855 -0.0099889 0 1e-15 0 0.0635459)
(0.17687 -0.0284119 0 1e-15 0 0.160915)
(0.0690014 0.00773926 0 1e-15 0 0.0620404)
(0.0237343 -0.00199933 0 0.0624764 0 0.0134487)
(0.0522629 -0.00841525 0 0.0481612 0 0.0410102)
(0.0730343 -0.0309133 0 0.3005 0 0.0644646)
(0.0939668 -0.0730237 0 0.736091 0 0.079791)
(0.0967747 -0.0528787 0 0.697633 0 0.0920749)
(0.0534011 0.0206723 0 0.173012 0 0.0398348)
(0.102518 -0.0406209 0 0.394585 0 0.0801069)
(0.164861 -0.0638514 0 0.485536 0 0.156225)
(0.133651 -0.0400675 0 0.477503 0 0.155745)
(0.0781073 -0.0247875 0 0.221249 0 0.100978)
(0.133822 -0.0638766 0 0.946406 0 0.211763)
(0.127184 -0.0171943 0 0.617953 0 0.177327)
(0.0672287 -0.00240918 0 0.194323 0 0.0718786)
(0.0527465 -0.00782455 0 0.169197 0 0.0467142)
(0.0553188 0.00558772 0 0.260792 0 0.0492966)
(0.0229096 -0.00950792 0 0.151279 0 0.0112525)
(0.11544 -0.058248 0 0.194912 0 0.0836227)
(0.220719 -0.0882456 0 0.879827 0 0.217778)
(0.200021 0.0307968 0 1.07007 0 0.199769)
(0.0756094 0.0344501 0 1e-15 0 0.0617733)
(0.101251 -0.0463475 0 0.276776 0 0.0695034)
(0.131911 -0.0580064 0 0.741618 0 0.110732)
(0.103418 -0.0138775 0 0.517675 0 0.111012)
(0.0962754 0.0244489 0 0.231993 0 0.12073)
(0.0847741 0.037274 0 0.100489 0 0.0615128)
(0.0386952 0.00760857 0 1e-15 0 0.0281462)
(0.0629323 0.00251482 0 0.271389 0 0.0527938)
(0.0580331 0.0316824 0 0.0840067 0 0.0430318)
(0.0441965 0.00844883 0 0.0433337 0 0.031645)
(0.0671853 -0.0049545 0 0.112763 0 0.0537735)
(0.085538 -0.00502362 0 0.182416 0 0.0748685)
(0.082454 -0.01366 0 0.0652654 0 0.0750029)
(0.0581923 -0.00896772 0 1e-15 0 0.0486979)
(0.0504267 -0.00778326 0 1e-15 0 0.0406588)
(0.0512772 -0.0148232 0 0.0292536 0 0.0389733)
(0.0612346 -0.0265509 0 0.0877419 0 0.0430126)
(0.074545 -0.0378365 0 0.102446 0 0.046944)
(0.0865919 -0.0440551 0 0.115688 0 0.053388)
(0.1106 -0.0718241 0 0.365282 0 0.0777655)
(0.135593 -0.099419 0 0.743383 0 0.112095)
(0.130105 -0.0684759 0 0.893828 0 0.124434)
(0.119892 -0.0251656 0 0.794622 0 0.1186)
(0.0937147 -0.00681844 0 0.501274 0 0.0847647)
(0.0649371 -0.0126522 0 0.217621 0 0.0518774)
(0.0547055 -0.0106893 0 0.0944364 0 0.0423242)
(0.056556 -0.0095763 0 0.0793596 0 0.0459902)
(0.0682507 -0.010199 0 0.132559 0 0.06286)
(0.0867941 -0.0223971 0 0.323306 0 0.0895351)
(0.0960401 -0.0313684 0 0.469666 0 0.104847)
(0.0958881 -0.0309731 0 0.496315 0 0.110003)
(0.0950591 -0.0357043 0 0.481101 0 0.113051)
(0.0957409 -0.0461825 0 0.44526 0 0.113579)
(0.0916311 -0.0422429 0 0.373972 0 0.104936)
(0.0798113 -0.0276426 0 0.263748 0 0.0903293)
(0.0628077 -0.0127091 0 0.14948 0 0.0723515)
(0.0469929 -0.00552261 0 0.0870594 0 0.0553256)
(0.0383389 -0.00538682 0 0.0722624 0 0.0455916)
(0.0343811 -0.0118231 0 0.119786 0 0.0397714)
(0.0355708 -0.0196526 0 0.199226 0 0.0385942)
(0.0390915 -0.0263088 0 0.278554 0 0.0400085)
(0.0377362 -0.0230156 0 0.235546 0 0.0360462)
(0.0315998 -0.0105095 0 0.0907807 0 0.0269333)
(0.0320863 -0.00517647 0 0.0605836 0 0.0255748)
(0.0390564 -0.00484448 0 0.0465087 0 0.0306938)
(0.0455931 -0.00610146 0 0.0182228 0 0.0361247)
(0.0491425 -0.00811015 0 0.0406708 0 0.0397196)
(0.0514454 -0.00958959 0 0.0471366 0 0.0415065)
(0.0553884 -0.0102015 0 0.0433368 0 0.0433238)
(0.0579232 -0.00869458 0 0.040001 0 0.0434319)
(0.0581782 -0.00801097 0 0.0426645 0 0.0427312)
(0.0681291 -0.0108917 0 0.0318719 0 0.0487494)
(0.0792338 -0.00720749 0 1e-15 0 0.0541314)
(0.0733723 -0.0090407 0 0.00140441 0 0.0489385)
(0.0601267 -0.0224696 0 0.0578415 0 0.0429853)
(0.0507809 -0.028255 0 0.175146 0 0.0427577)
(0.0476549 -0.0258219 0 0.307832 0 0.041882)
(0.0384515 -0.0165994 0 0.25554 0 0.0270944)
(0.0425689 -0.00910669 0 0.221457 0 0.0303788)
(0.0595847 -0.0132411 0 0.323095 0 0.0502548)
(0.0657035 -0.0165153 0 0.314972 0 0.0591191)
(0.0718368 -0.0185676 0 0.249536 0 0.0666652)
(0.0754037 -0.0212394 0 0.217084 0 0.0680538)
(0.0775181 -0.0180909 0 0.192789 0 0.0667149)
(0.083976 -0.013504 0 0.138304 0 0.0694178)
(0.0976339 -0.0107065 0 0.0793891 0 0.0767884)
(0.118414 -0.0129003 0 0.0458618 0 0.0893346)
(0.126791 -0.0143955 0 0.0376339 0 0.0943094)
(0.111878 -0.0145833 0 0.0640932 0 0.0846017)
(0.0962745 -0.0182862 0 0.130684 0 0.074008)
(0.0831387 -0.0218469 0 0.148308 0 0.0647852)
(0.0772169 -0.0269563 0 0.176138 0 0.0622035)
(0.0698014 -0.0268679 0 0.22031 0 0.0674291)
(0.0877718 -0.0514773 0 0.30435 0 0.0816559)
(0.0557026 -0.0161007 0 0.129881 0 0.0490165)
(0.0316839 -0.00742926 0 1e-15 0 0.0281778)
(0.0302298 -0.0103686 0 1e-15 0 0.0271456)
(0.0279533 -0.00882498 0 0.0134417 0 0.0250288)
(0.0257805 -0.006312 0 0.00952376 0 0.0232679)
(0.0296687 -0.00486417 0 1e-15 0 0.0261217)
(0.109435 0.0356379 0 0.120079 0 0.11734)
(0.0533225 -0.00670844 0 0.0609797 0 0.0390164)
(0.092499 -0.0198811 0 1e-15 0 0.0825612)
(0.215134 -0.0433392 0 0.334737 0 0.221565)
(0.102518 0.0129853 0 1e-15 0 0.093271)
(0.0332018 0.00179455 0 1e-15 0 0.0197789)
(0.0739522 -0.0174744 0 0.0579981 0 0.0533715)
(0.0792383 -0.0365602 0 0.478404 0 0.0682272)
(0.0879594 -0.0630777 0 0.694876 0 0.0743181)
(0.110281 -0.0725848 0 0.844844 0 0.101292)
(0.0669521 0.0218924 0 0.277714 0 0.0498475)
(0.0979449 -0.0273057 0 0.430096 0 0.0783673)
(0.163449 -0.0409127 0 0.430325 0 0.160703)
(0.143722 -0.0405014 0 0.416907 0 0.165738)
(0.0767774 -0.0283985 0 0.1403 0 0.0961683)
(0.121188 -0.0490354 0 0.804659 0 0.204813)
(0.14926 -0.06312 0 0.957851 0 0.207156)
(0.0897758 -0.0185138 0 0.366357 0 0.0970482)
(0.067716 -0.00743807 0 0.139896 0 0.0575028)
(0.0641773 0.0150434 0 0.15708 0 0.056235)
(0.0311494 -0.0116261 0 0.118581 0 0.0171463)
(0.116362 -0.0611607 0 0.210444 0 0.0847252)
(0.244117 -0.0977395 0 0.963771 0 0.234397)
(0.213539 0.0228914 0 1.22848 0 0.206339)
(0.117376 0.0556063 0 0.0226149 0 0.0935046)
(0.119906 -0.0473479 0 0.432515 0 0.085045)
(0.137843 -0.0424832 0 0.733479 0 0.117094)
(0.113701 -0.0134001 0 0.404848 0 0.118241)
(0.120873 0.05176 0 0.192695 0 0.14131)
(0.0999964 0.0468629 0 0.208361 0 0.0696561)
(0.0607794 0.0161517 0 0.0105999 0 0.043127)
(0.0776915 -0.00208016 0 0.411004 0 0.0669819)
(0.073412 0.0433421 0 0.14062 0 0.0537008)
(0.0519189 0.00900777 0 0.0482554 0 0.0361384)
(0.0855433 -0.00473274 0 0.216257 0 0.066781)
(0.10667 -0.00930129 0 0.354753 0 0.0913385)
(0.107987 -0.0245589 0 0.184913 0 0.0949717)
(0.0815378 -0.0181506 0 0.0222393 0 0.0653395)
(0.0697163 -0.0122693 0 1e-15 0 0.0538647)
(0.065095 -0.0149466 0 0.00294969 0 0.0487552)
(0.069258 -0.025542 0 0.0735017 0 0.0489708)
(0.0843349 -0.0449923 0 0.13857 0 0.0526359)
(0.104271 -0.0596308 0 0.201106 0 0.062096)
(0.129122 -0.0931943 0 0.543845 0 0.0880585)
(0.152347 -0.119506 0 0.975768 0 0.123168)
(0.146025 -0.0807113 0 1.13713 0 0.137893)
(0.135889 -0.0333158 0 1.01914 0 0.133241)
(0.10921 -0.0106917 0 0.710201 0 0.0995828)
(0.0775815 -0.0228948 0 0.390219 0 0.0616588)
(0.0685397 -0.0214478 0 0.229227 0 0.0517517)
(0.0705528 -0.0175164 0 0.203555 0 0.0560996)
(0.0832187 -0.0160325 0 0.261239 0 0.0757673)
(0.099396 -0.030157 0 0.472832 0 0.101606)
(0.107896 -0.0406737 0 0.616203 0 0.117098)
(0.106964 -0.0411004 0 0.638124 0 0.122945)
(0.107298 -0.0487151 0 0.624328 0 0.12707)
(0.110022 -0.0641756 0 0.59241 0 0.128975)
(0.105258 -0.0626833 0 0.540518 0 0.118939)
(0.0945185 -0.0475902 0 0.443457 0 0.105448)
(0.0783263 -0.0288642 0 0.287517 0 0.0883598)
(0.0591858 -0.013436 0 0.148763 0 0.0686067)
(0.0456755 -0.00536785 0 0.0582912 0 0.0545858)
(0.0382775 -0.00681581 0 0.0524347 0 0.0450201)
(0.038244 -0.0137314 0 0.123605 0 0.0417067)
(0.039555 -0.022005 0 0.229228 0 0.040535)
(0.0393448 -0.0240606 0 0.239722 0 0.0374622)
(0.0354005 -0.0122257 0 0.0798276 0 0.0297758)
(0.0365399 -0.00577556 0 0.0432434 0 0.0290602)
(0.0451721 -0.00577795 0 0.0244752 0 0.0352371)
(0.054549 -0.00759594 0 0.00493701 0 0.0427313)
(0.0568832 -0.00831802 0 0.0153322 0 0.0456839)
(0.0598377 -0.00995014 0 0.0194799 0 0.0478741)
(0.0655173 -0.0109468 0 0.014304 0 0.0505054)
(0.068902 -0.00920705 0 0.0131027 0 0.050866)
(0.0674132 -0.00769004 0 0.0210157 0 0.0492519)
(0.0788353 -0.0128309 0 0.0204359 0 0.0565184)
(0.0957056 -0.0132134 0 1e-15 0 0.0646606)
(0.0927358 -0.0132639 0 1e-15 0 0.0598649)
(0.0753189 -0.024427 0 0.00346568 0 0.0505325)
(0.0584914 -0.0255913 0 0.116767 0 0.0470024)
(0.0513278 -0.0249575 0 0.315395 0 0.0445131)
(0.0452695 -0.0258835 0 0.351349 0 0.031522)
(0.0507816 -0.00921907 0 0.292194 0 0.0366394)
(0.0634214 -0.00892812 0 0.305078 0 0.053321)
(0.0706653 -0.0105048 0 0.21834 0 0.0633009)
(0.0808957 -0.0132781 0 0.132027 0 0.0731068)
(0.0881473 -0.0161903 0 0.10143 0 0.0765717)
(0.094647 -0.01529 0 0.0822652 0 0.0775031)
(0.10808 -0.0150332 0 0.0365292 0 0.0839001)
(0.134942 -0.0128213 0 1e-15 0 0.0993347)
(0.171338 -0.0165671 0 1e-15 0 0.122177)
(0.184594 -0.0177638 0 1e-15 0 0.130102)
(0.165013 -0.0146161 0 1e-15 0 0.116828)
(0.128394 -0.0176407 0 0.0282262 0 0.0931345)
(0.108651 -0.0213409 0 0.0402797 0 0.0804081)
(0.0955771 -0.0233145 0 0.0679843 0 0.0739848)
(0.081765 -0.0213893 0 0.111788 0 0.0745785)
(0.102948 -0.0645236 0 0.377968 0 0.0912808)
(0.0667733 -0.0267995 0 0.203984 0 0.056814)
(0.0465814 -0.014651 0 0.00884673 0 0.0395931)
(0.04537 -0.0170408 0 1e-15 0 0.0386249)
(0.0409356 -0.0143008 0 1e-15 0 0.0345557)
(0.0352092 -0.00928041 0 1e-15 0 0.0309226)
(0.0339579 -0.0063143 0 1e-15 0 0.0312104)
(0.138989 0.0611254 0 0.278723 0 0.152872)
(0.0676033 -0.00377592 0 1e-15 0 0.0485549)
(0.096903 -0.0376248 0 0.261083 0 0.0956931)
(0.223948 -0.0134551 0 0.834728 0 0.257738)
(0.128847 0.0160073 0 0.206422 0 0.117258)
(0.0359783 0.00534067 0 0.0144148 0 0.0182853)
(0.0772723 -0.0195265 0 0.261559 0 0.0538138)
(0.0737028 -0.0282452 0 0.479112 0 0.061967)
(0.08731 -0.0561791 0 0.526238 0 0.0719789)
(0.0948366 -0.0614367 0 0.730146 0 0.0848379)
(0.0608377 -0.00288053 0 0.368465 0 0.0405486)
(0.0853969 -0.0135933 0 0.283341 0 0.0679138)
(0.159324 -0.0331197 0 0.306795 0 0.158022)
(0.140582 -0.0437009 0 0.345634 0 0.160528)
(0.067987 -0.0257688 0 0.0444139 0 0.0847871)
(0.124182 -0.0420516 0 0.586787 0 0.210331)
(0.148883 -0.0775235 0 1.00796 0 0.209995)
(0.10219 -0.052654 0 0.871631 0 0.110016)
(0.0832284 -0.0284132 0 0.425963 0 0.0651929)
(0.0774227 0.0400376 0 0.125339 0 0.0683125)
(0.0372078 -0.0100743 0 0.0704003 0 0.0219413)
(0.120801 -0.0684617 0 0.17431 0 0.0870367)
(0.279462 -0.136583 0 1.16944 0 0.252698)
(0.239063 0.0609968 0 1.42819 0 0.223732)
(0.151085 0.0787103 0 0.154528 0 0.121443)
(0.122489 -0.0464339 0 0.555309 0 0.0864569)
(0.134662 -0.0334419 0 0.678737 0 0.112888)
(0.114554 -0.0168918 0 0.272732 0 0.112826)
(0.167448 0.109622 0 0.414257 0 0.176161)
(0.117883 0.0642845 0 0.328609 0 0.0801816)
(0.0777065 0.0271703 0 0.0715431 0 0.0543239)
(0.0830734 -0.00755201 0 0.565226 0 0.0717401)
(0.0859954 0.0560492 0 0.247173 0 0.0610829)
(0.0610675 0.0146333 0 0.121084 0 0.0397055)
(0.0911497 -0.00444874 0 0.364798 0 0.067377)
(0.121095 -0.0159509 0 0.509841 0 0.101369)
(0.127546 -0.0344974 0 0.286813 0 0.108699)
(0.105465 -0.0289964 0 0.0752806 0 0.081186)
(0.0976983 -0.0195854 0 0.000249894 0 0.0721555)
(0.0916143 -0.0187955 0 1e-15 0 0.0656364)
(0.0860188 -0.0277442 0 0.024589 0 0.0589721)
(0.0847596 -0.0426446 0 0.123907 0 0.0521824)
(0.105261 -0.0630539 0 0.267406 0 0.0604803)
(0.133023 -0.10211 0 0.691479 0 0.0881521)
(0.147785 -0.123185 0 1.09168 0 0.115994)
(0.138047 -0.087195 0 1.23463 0 0.127401)
(0.132609 -0.0493134 0 1.15849 0 0.126925)
(0.111886 -0.0190389 0 0.887278 0 0.101339)
(0.0822509 -0.0301565 0 0.571393 0 0.0648652)
(0.0729737 -0.0325942 0 0.397332 0 0.0526941)
(0.0795076 -0.02535 0 0.347498 0 0.0619047)
(0.0923046 -0.0205654 0 0.370745 0 0.0830747)
(0.103799 -0.0344818 0 0.563114 0 0.105253)
(0.107696 -0.043919 0 0.683918 0 0.117103)
(0.104728 -0.0441481 0 0.691499 0 0.122356)
(0.104921 -0.0531775 0 0.679817 0 0.12618)
(0.110877 -0.0745888 0 0.688006 0 0.130921)
(0.109908 -0.0793335 0 0.666471 0 0.123312)
(0.0997246 -0.0646738 0 0.578574 0 0.110265)
(0.0853118 -0.0468482 0 0.443786 0 0.094862)
(0.0669688 -0.0304205 0 0.299057 0 0.0760385)
(0.0544244 -0.0162103 0 0.14417 0 0.0639389)
(0.0446498 -0.00977727 0 0.0494942 0 0.0521126)
(0.0390329 -0.00958594 0 0.0446844 0 0.0426801)
(0.0400978 -0.016301 0 0.122486 0 0.0405852)
(0.0413865 -0.0232622 0 0.159797 0 0.0385575)
(0.0425184 -0.0163705 0 0.0414951 0 0.0344603)
(0.0441951 -0.0077222 0 0.00669798 0 0.034324)
(0.0537076 -0.00602872 0 1e-15 0 0.0411321)
(0.0653219 -0.00931253 0 1e-15 0 0.0503991)
(0.0676199 -0.00992511 0 1e-15 0 0.0534327)
(0.0717155 -0.0118583 0 1e-15 0 0.0564308)
(0.0789586 -0.0133261 0 1e-15 0 0.0597672)
(0.0836805 -0.0113111 0 1e-15 0 0.0605256)
(0.0817448 -0.00923892 0 1e-15 0 0.0584859)
(0.0952828 -0.0166982 0 0.00255759 0 0.0674193)
(0.114516 -0.0209491 0 1e-15 0 0.0763278)
(0.117595 -0.0228473 0 1e-15 0 0.0737694)
(0.102969 -0.0337995 0 1e-15 0 0.0655157)
(0.0677598 -0.0246211 0 0.0582692 0 0.0505157)
(0.0513906 -0.0211743 0 0.279618 0 0.0433959)
(0.0453323 -0.0317039 0 0.438549 0 0.0301933)
(0.0488456 -0.0106607 0 0.308666 0 0.0329967)
(0.0638725 -0.00701769 0 0.195038 0 0.0527087)
(0.0759751 -0.00973411 0 0.0942446 0 0.0659612)
(0.0965901 -0.0140968 0 0.0248315 0 0.0821916)
(0.111541 -0.0164157 0 0.00214649 0 0.0905599)
(0.124191 -0.0159285 0 1e-15 0 0.0957671)
(0.147122 -0.0171538 0 1e-15 0 0.108822)
(0.179868 -0.0199734 0 1e-15 0 0.128849)
(0.216041 -0.0284775 0 1e-15 0 0.151987)
(0.22791 -0.0328447 0 0.00439818 0 0.15895)
(0.216145 -0.0273287 0 1e-15 0 0.149734)
(0.185762 -0.0234348 0 1e-15 0 0.128323)
(0.156386 -0.0263219 0 1e-15 0 0.109661)
(0.134415 -0.0253184 0 1e-15 0 0.0978591)
(0.106252 -0.018008 0 0.0091213 0 0.0872739)
(0.106782 -0.0644859 0 0.432854 0 0.0912377)
(0.0740714 -0.0355832 0 0.270646 0 0.0611491)
(0.0592533 -0.0227921 0 0.0582906 0 0.0490979)
(0.060213 -0.0260087 0 0.0381919 0 0.049339)
(0.0524238 -0.0225954 0 0.0372442 0 0.0429347)
(0.042173 -0.0145535 0 0.033921 0 0.0366945)
(0.0373249 -0.00877527 0 0.0369799 0 0.0350819)
(0.171941 0.0860722 0 0.443524 0 0.188023)
(0.0877949 -0.0102351 0 0.00575007 0 0.0624717)
(0.106594 -0.0444362 0 0.615096 0 0.107217)
(0.232323 0.011584 0 1.06134 0 0.279592)
(0.150723 0.0178172 0 0.472836 0 0.137215)
(0.0351327 0.0124386 0 0.181446 0 0.0112302)
(0.0718797 -0.005666 0 0.359559 0 0.0501326)
(0.0770989 -0.0238047 0 0.397431 0 0.0650438)
(0.0936763 -0.050519 0 0.347116 0 0.0759451)
(0.102234 -0.0531709 0 0.565401 0 0.0895811)
(0.0643147 -0.0336704 0 0.48271 0 0.0393667)
(0.0922166 -0.00814537 0 0.124598 0 0.0748648)