/*--------------------------------*- C++ -*----------------------------------*\
| =========                 |                                                 |
| \\      /  F ield         | OpenFOAM: The Open Source CFD Toolbox           |
|  \\    /   O peration     | Version:  v1912                                 |
|   \\  /    A nd           | Website:  www.openfoam.com                      |
|    \\/     M anipulation  |                                                 |
\*---------------------------------------------------------------------------*/
FoamFile
{
    version     2.0;
    format      ascii;
    class       volScalarField;
    location    "10";
    object      alpha.water;
}
// * * * * * * * * * * * * * * * * * * * * * * * * * * * * * * * * * * * * * //

dimensions      [0 0 0 0 0 0 0];


internalField   nonuniform List<scalar> 
14268
(
1
1
1
1
1
1
1
1
1
1
1
1
1
1
1
1
1
1
1
1
1
1
1
1
1
1
1
1
1
1
1
1
1
1
1
1
1
1
1
1
1
1
1
1
1
1
1
1
1
1
1
1
1
1
1
1
1
1
1
1
1
1
1
1
1
1
1
1
1
1
1
1
1
1
1
1
1
1
1
1
1
1
1
1
1
1
1
1
1
1
1
1
1
1
1
1
1
1
1
1
1
1
1
1
1
1
1
1
1
1
1
1
1
1
1
1
1
1
1
1
1
1
1
1
1
1
1
1
1
1
1
1
1
1
1
1
1
1
1
1
1
1
1
1
1
1
1
1
1
1
1
1
1
1
1
1
1
1
1
1
1
1
1
1
1
1
1
1
1
1
1
1
1
1
1
1
1
1
1
1
1
1
1
1
1
1
1
1
1
1
1
1
1
1
1
1
1
1
1
1
1
1
1
1
1
1
1
1
1
1
1
1
1
1
1
1
1
1
1
1
1
1
1
1
1
1
1
1
1
1
1
1
1
1
1
1
1
1
1
1
1
1
1
1
1
1
1
1
1
1
1
1
1
1
1
1
1
1
1
1
1
1
1
1
1
1
1
1
1
1
1
1
1
1
1
1
1
1
1
1
1
1
1
1
1
1
1
1
1
1
1
1
1
1
1
1
1
1
1
1
1
1
1
1
1
1
1
1
1
1
1
1
1
1
1
1
1
1
1
1
1
1
1
1
1
1
1
1
1
1
1
1
1
1
1
1
1
1
1
1
1
1
1
1
1
1
1
1
1
1
1
1
1
1
1
1
1
1
1
1
1
1
1
1
1
1
1
1
1
1
1
1
1
1
1
1
1
1
1
1
1
1
1
1
1
1
1
1
1
1
1
1
1
1
1
1
1
1
1
1
1
1
1
1
1
1
1
1
1
1
1
1
1
1
1
1
1
1
1
1
1
1
1
1
1
1
1
1
1
1
1
1
1
1
1
1
1
1
1
1
1
1
1
1
1
1
1
1
1
1
1
1
1
1
1
1
1
1
1
1
1
1
1
1
1
1
1
1
1
1
1
1
1
1
1
1
1
1
1
1
1
1
1
1
1
1
1
1
1
1
1
1
1
1
1
1
1
1
1
1
1
1
1
1
1
1
1
1
1
1
1
1
1
1
1
1
1
1
1
1
1
1
1
1
1
1
1
1
1
1
1
1
1
1
1
1
1
1
1
1
1
1
1
1
1
1
1
1
1
1
1
1
1
1
1
1
1
1
1
1
1
1
1
1
1
1
1
1
1
1
1
1
1
1
1
1
1
1
1
1
1
1
1
1
1
1
1
1
1
1
1
1
1
1
1
1
1
1
1
1
1
1
1
1
1
1
1
1
1
1
1
1
1
1
1
1
1
1
1
1
1
1
1
1
1
1
1
1
1
1
1
1
1
1
1
1
1
1
1
1
1
1
1
1
1
1
1
1
1
1
1
1
1
1
1
1
1
1
1
1
1
1
1
1
1
1
1
1
1
1
1
1
1
1
1
1
1
1
1
1
1
1
1
1
1
1
1
1
1
1
1
1
1
1
1
1
1
1
1
1
1
1
1
1
1
1
1
1
1
1
1
1
1
1
1
1
1
1
1
1
1
1
1
1
1
1
1
1
1
1
1
1
1
1
1
1
1
1
1
1
1
1
1
1
1
1
1
1
1
1
1
1
1
1
1
1
1
1
1
1
1
1
1
1
1
1
1
1
1
1
1
1
1
1
1
1
1
1
1
1
1
1
1
1
1
1
1
1
1
1
1
1
1
1
1
1
1
1
1
1
1
1
1
1
1
1
1
1
1
1
1
1
1
1
1
1
1
1
1
1
1
1
1
1
1
1
1
1
1
1
1
1
1
1
1
1
1
1
1
1
1
1
1
1
1
1
1
1
1
1
1
1
1
1
1
1
1
1
1
1
1
1
1
1
1
1
1
1
1
1
1
1
1
1
1
1
1
1
1
1
1
1
1
1
1
1
1
1
1
1
1
1
1
1
1
1
1
1
1
1
1
1
1
1
1
1
1
1
1
1
1
1
1
1
1
1
1
1
1
1
1
1
1
1
1
1
1
1
1
1
1
1
1
1
1
1
1
1
1
1
1
1
1
1
1
1
1
1
1
1
1
1
1
1
1
1
1
1
1
1
1
1
1
1
1
1
1
1
1
1
1
1
1
1
1
1
1
1
1
1
1
1
1
1
1
1
1
1
1
1
1
1
1
1
1
1
1
1
1
1
1
1
1
1
1
1
1
1
1
1
1
1
1
1
1
1
1
1
1
1
1
1
1
1
1
1
1
1
1
1
1
1
1
1
1
1
1
1
1
1
1
1
1
1
1
1
1
1
1
1
1
1
1
1
1
1
1
1
1
1
1
1
1
1
1
1
1
1
1
1
1
1
1
1
1
1
1
1
1
1
1
1
1
1
1
1
1
1
1
1
1
1
1
1
1
1
1
1
1
0.999811
0.999985
0.999984
0.999984
0.999984
0.999984
0.999984
0.999984
0.999984
0.999984
0.999984
0.999984
0.999985
0.999985
0.999985
0.999985
0.999985
0.999947
0.999699
0.999245
0.998617
0.997838
0.996899
0.995754
0.994324
0.992518
0.990292
0.987604
0.984664
0.981509
0.978753
0.976576
0.975363
0.975315
0.975503
0.976338
0.976497
0.977277
0.975125
0.970761
0.960473
0.946423
0.918636
0.926101
0.929741
0.492299
0.493108
0.494161
0.495503
0.497175
0.499211
0.501623
0.504396
0.507474
0.510756
0.514099
0.517317
0.520211
0.522575
0.524223
0.525025
0.524959
0.524072
0.522476
0.520297
0.517621
0.514436
0.510597
0.505854
0.499945
0.492758
0.48425
0.475084
0.465483
0.457175
0.450669
0.447197
0.446359
0.448886
0.452647
0.457854
0.460358
0.459668
0.452043
0.446431
0.452613
0.457914
0.426783
0.422692
0.00078408
0.00108827
0.00148845
0.00200432
0.00265471
0.00345498
0.00441354
0.00552761
0.00677768
0.0081251
0.00951176
0.01086
0.0120832
0.0130886
0.0137937
0.0141293
0.014138
0.0140494
0.013898
0.0136977
0.0134577
0.0131785
0.0128503
0.0124558
0.0119796
0.0114189
0.0107844
0.0101155
0.0094499
0.00885342
0.00837708
0.00802469
0.00777973
0.00821663
0.00890318
0.0104721
0.0110669
0.0118102
0.011967
0.0120204
0.0085135
0.00726631
0.00323152
0.0105932
-9.55907e-183
-5.28562e-187
-2.10584e-188
-8.2398e-196
-2.06972e-200
-3.91758e-205
-5.81436e-210
-6.55786e-215
-5.62693e-216
-5.55426e-225
-5.95417e-226
-1.24868e-235
-2.91599e-241
-4.8891e-247
-9.41629e-249
-2.05236e-218
-2.80081e-219
-2.1002e-221
-1.12135e-223
-5.26196e-226
-2.37538e-228
-1.08801e-230
-5.25828e-233
-2.73222e-235
-1.54469e-237
-9.50374e-240
-6.23007e-242
-4.32479e-244
-3.07464e-246
-2.247e-248
-1.6745e-250
-1.29193e-252
-1.07352e-254
-9.22847e-257
-9.18523e-259
-2.56718e-262
-1.45344e-263
-6.17349e-266
-1.09005e-266
-5.98268e-268
-2.22615e-269
-8.65485e-245
-9.19134e-198
-9.53838e-35
-1.39951e-172
-1.78413e-175
-2.52935e-178
-3.92149e-181
-6.53988e-184
-1.15698e-186
-2.14924e-189
-4.16877e-192
-8.43258e-195
-1.77834e-197
-3.91131e-200
-8.96726e-203
-2.14296e-205
-5.34171e-208
-1.38743e-210
-3.73284e-213
-1.02927e-215
-2.93073e-218
-8.66104e-221
-2.66921e-223
-8.64697e-226
-2.97263e-228
-1.09548e-230
-4.36727e-233
-1.89644e-235
-9.00305e-238
-4.67135e-240
-2.63762e-242
-1.60639e-244
-1.05003e-246
-7.35e-249
-5.54412e-251
-4.52394e-253
-3.99479e-255
-3.93789e-257
-4.32496e-259
-5.33736e-261
-7.84777e-263
-1.38039e-264
-2.77407e-266
-5.76961e-268
-1.33528e-243
-3.03527e-197
-3.43416e-44
-1.60703e-174
-2.52235e-177
-4.20688e-180
-7.38212e-183
-1.35215e-185
-2.5705e-188
-5.05281e-191
-1.02553e-193
-2.14913e-196
-4.65113e-199
-1.04056e-201
-2.40577e-204
-5.74186e-207
-1.41036e-209
-3.55258e-212
-9.20737e-215
-2.47986e-217
-6.94806e-220
-2.02917e-222
-6.21028e-225
-2.00748e-227
-6.91827e-230
-2.56655e-232
-1.03368e-234
-4.54718e-237
-2.18983e-239
-1.15153e-241
-6.56194e-244
-4.01294e-246
-2.61708e-248
-1.81824e-250
-1.35164e-252
-1.08141e-254
-9.43412e-257
-9.14531e-259
-9.98209e-261
-1.21669e-262
-1.66457e-264
-2.48405e-266
-4.09432e-268
-6.6991e-270
-1.31633e-242
-5.90858e-197
-2.90032e-153
-6.48969e-177
-1.21658e-179
-2.34983e-182
-4.65357e-185
-9.41459e-188
-1.94159e-190
-4.07982e-193
-8.74445e-196
-1.91481e-198
-4.28925e-201
-9.83535e-204
-2.30718e-206
-5.52935e-209
-1.35249e-211
-3.36381e-214
-8.63167e-217
-2.2979e-219
-6.37188e-222
-1.85083e-224
-5.66565e-227
-1.84209e-229
-6.42052e-232
-2.42313e-234
-9.99254e-237
-4.52889e-239
-2.25648e-241
-1.22859e-243
-7.23492e-246
-4.55384e-248
-3.04309e-250
-2.15473e-252
-1.62629e-254
-1.31867e-256
-1.1556e-258
-1.11593e-260
-1.1886e-262
-1.41055e-264
-1.9343e-266
-3.01088e-268
-5.39751e-270
-1.00466e-271
-1.3218e-241
-1.23941e-196
-3.05046e-153
-1.87182e-179
-4.16806e-182
-9.24595e-185
-2.04433e-187
-4.5139e-190
-9.97982e-193
-2.21685e-195
-4.96506e-198
-1.1241e-200
-2.57712e-203
-5.98676e-206
-1.40723e-208
-3.33575e-211
-7.93053e-214
-1.89131e-216
-4.72643e-219
-1.23623e-221
-3.38993e-224
-9.78147e-227
-2.98826e-229
-9.74895e-232
-3.43049e-234
-1.31494e-236
-5.53173e-239
-2.56105e-241
-1.3001e-243
-7.16731e-246
-4.23679e-248
-2.65469e-250
-1.75261e-252
-1.21925e-254
-8.99195e-257
-7.08252e-259
-6.01735e-261
-5.61135e-263
-5.84068e-265
-6.71513e-267
-8.66236e-269
-1.20962e-270
-1.90166e-272
-2.89406e-274
-9.99213e-241
-2.43693e-196
-3.51902e-153
-3.71782e-182
-9.67975e-185
-2.4346e-187
-5.95104e-190
-1.42323e-192
-3.35195e-195
-7.82287e-198
-1.81916e-200
-4.23037e-203
-9.85636e-206
-2.30051e-208
-5.36377e-211
-1.24404e-213
-2.85326e-216
-6.6904e-219
-1.64475e-221
-4.2443e-224
-1.15381e-226
-3.32134e-229
-1.01882e-231
-3.35736e-234
-1.19983e-236
-4.69302e-239
-2.02102e-241
-9.58141e-244
-4.96555e-246
-2.7799e-248
-1.6597e-250
-1.04586e-252
-6.92429e-255
-4.81907e-257
-3.55011e-259
-2.79226e-261
-2.36605e-263
-2.19389e-265
-2.22668e-267
-2.48749e-269
-3.1557e-271
-4.3684e-273
-6.93051e-275
-1.15569e-276
-6.88793e-240
-4.92831e-196
-2.8872e-153
-5.83141e-185
-1.76891e-187
-5.02804e-190
-1.35419e-192
-3.49464e-195
-8.73048e-198
-2.13068e-200
-5.11642e-203
-1.21418e-205
-2.85292e-208
-6.63156e-211
-1.51821e-213
-3.39732e-216
-7.41384e-219
-1.70625e-221
-4.13922e-224
-1.05818e-226
-2.85911e-229
-8.20871e-232
-2.52305e-234
-8.3785e-237
-3.03431e-239
-1.20704e-241
-5.28637e-244
-2.53851e-246
-1.32339e-248
-7.39378e-251
-4.3723e-253
-2.71219e-255
-1.75889e-257
-1.19474e-259
-8.55899e-262
-6.51816e-264
-5.33085e-266
-4.73499e-268
-4.6356e-270
-4.95815e-272
-5.93991e-274
-7.57171e-276
-1.06638e-277
-1.48625e-279
-3.70742e-239
-9.36447e-196
-2.70389e-153
-7.08369e-188
-2.47803e-190
-7.88253e-193
-2.31749e-195
-6.39602e-198
-1.67988e-200
-4.24701e-203
-1.04239e-205
-2.49565e-208
-5.83429e-211
-1.32814e-213
-2.92121e-216
-6.12762e-219
-1.30472e-221
-2.93247e-224
-6.97082e-227
-1.75689e-229
-4.71352e-232
-1.35302e-234
-4.18289e-237
-1.40375e-239
-5.15376e-242
-2.08028e-244
-9.22598e-247
-4.46472e-249
-2.3306e-251
-1.29564e-253
-7.58755e-256
-4.64824e-258
-2.97335e-260
-1.99074e-262
-1.40513e-264
-1.05396e-266
-8.48766e-269
-7.41344e-271
-7.06778e-273
-7.32742e-275
-8.49882e-277
-1.04647e-278
-1.43269e-280
-4.07514e-282
-1.81687e-238
-1.80176e-195
-3.16335e-153
-6.98036e-191
-2.80782e-193
-9.96992e-196
-3.19179e-198
-9.3935e-201
-2.58445e-203
-6.73721e-206
-1.67975e-208
-4.02438e-211
-9.26081e-214
-2.03564e-216
-4.21946e-219
-8.31957e-222
-1.73871e-224
-3.86159e-227
-9.1107e-230
-2.28419e-232
-6.10374e-235
-1.74864e-237
-5.41323e-240
-1.82586e-242
-6.7519e-245
-2.74185e-247
-1.21769e-249
-5.86067e-252
-3.02108e-254
-1.64862e-256
-9.43567e-259
-5.63249e-261
-3.50293e-263
-2.2764e-265
-1.55656e-267
-1.12799e-269
-8.75164e-272
-7.3177e-274
-6.67853e-276
-6.55819e-278
-7.13398e-280
-8.11858e-282
-9.95275e-284
-1.1058e-281
-7.68749e-238
-3.34818e-195
-3.53965e-153
-5.49591e-194
-2.52554e-196
-9.93506e-199
-3.43403e-201
-1.06742e-203
-3.04252e-206
-8.07324e-209
-2.01344e-211
-4.73611e-214
-1.04642e-216
-2.14632e-219
-3.9842e-222
-7.69466e-225
-1.57356e-227
-3.41321e-230
-7.87225e-233
-1.93811e-235
-5.11979e-238
-1.45983e-240
-4.52114e-243
-1.52921e-245
-5.66627e-248
-2.29753e-250
-1.01339e-252
-4.81513e-255
-2.43689e-257
-1.29984e-259
-7.2503e-262
-4.21124e-264
-2.54716e-266
-1.60951e-268
-1.06995e-270
-7.53159e-273
-5.67321e-275
-4.59445e-277
-4.04211e-279
-3.82592e-281
-3.99393e-283
-4.36185e-285
-5.13953e-287
-5.94394e-281
-3.01813e-237
-6.15184e-195
-3.69913e-153
-3.51159e-197
-1.83918e-199
-7.99149e-202
-2.97086e-204
-9.70473e-207
-2.84697e-209
-7.62148e-212
-1.87778e-214
-4.2614e-217
-8.80785e-220
-1.61907e-222
-2.87071e-225
-5.38852e-228
-1.07474e-230
-2.28627e-233
-5.20208e-236
-1.26919e-238
-3.32945e-241
-9.42974e-244
-2.89813e-246
-9.71096e-249
-3.55428e-251
-1.41722e-253
-6.1129e-256
-2.82432e-258
-1.38347e-260
-7.12129e-263
-3.82775e-265
-2.14184e-267
-1.24805e-269
-7.59732e-272
-4.86234e-274
-3.29e-276
-2.37747e-278
-1.83916e-280
-1.5415e-282
-1.37392e-284
-1.33721e-286
-1.3503e-288
-1.43037e-290
-3.07362e-280
-1.06155e-236
-1.09424e-194
-3.7391e-153
-1.78569e-200
-1.06122e-202
-5.05823e-205
-2.00355e-207
-6.79371e-210
-2.01851e-212
-5.33876e-215
-1.26325e-217
-2.65786e-220
-4.83343e-223
-7.68271e-226
-1.30553e-228
-2.37893e-231
-4.64643e-234
-9.70849e-237
-2.16761e-239
-5.17793e-242
-1.32854e-244
-3.68181e-247
-1.10826e-249
-3.63574e-252
-1.29937e-254
-5.03581e-257
-2.10027e-259
-9.34087e-262
-4.39045e-264
-2.16429e-266
-1.11297e-268
-5.95523e-271
-3.31752e-273
-1.92985e-275
-1.17977e-277
-7.61289e-280
-5.23917e-282
-3.84629e-284
-3.05084e-286
-2.57987e-288
-2.37295e-290
-2.2794e-292
-2.3031e-294
-1.55886e-279
-3.56542e-236
-1.86672e-194
-3.35302e-153
-7.21021e-204
-4.85243e-206
-2.5251e-208
-1.05756e-210
-3.68137e-213
-1.09012e-215
-2.78355e-218
-6.10286e-221
-1.12336e-223
-1.64251e-226
-2.57791e-229
-4.3283e-232
-7.74165e-235
-1.47292e-237
-2.98264e-240
-6.44023e-243
-1.48777e-245
-3.69381e-248
-9.90459e-251
-2.87882e-253
-9.08011e-256
-3.10153e-258
-1.1417e-260
-4.49905e-263
-1.884e-265
-8.32443e-268
-3.8577e-270
-1.86694e-272
-9.4164e-275
-4.95215e-277
-2.72283e-279
-1.57392e-281
-9.60237e-284
-6.24184e-286
-4.31574e-288
-3.20822e-290
-2.51513e-292
-2.12432e-294
-1.86207e-296
-1.69266e-298
-7.66931e-279
-1.12095e-235
-3.07893e-194
-2.78021e-153
-2.23774e-207
-1.69847e-209
-9.56031e-212
-4.1712e-214
-1.45768e-216
-4.16393e-219
-9.77029e-222
-1.8278e-224
-2.51648e-227
-3.55408e-230
-5.32881e-233
-8.49044e-236
-1.43867e-238
-2.59495e-241
-4.98925e-244
-1.02475e-246
-2.25502e-249
-5.33314e-252
-1.35876e-254
-3.73205e-257
-1.10376e-259
-3.50479e-262
-1.18994e-264
-4.29929e-267
-1.64467e-269
-6.62882e-272
-2.80288e-274
-1.23947e-276
-5.7238e-279
-2.76192e-281
-1.39526e-283
-7.41681e-286
-4.15518e-288
-2.47542e-290
-1.56313e-292
-1.05894e-294
-7.57253e-297
-5.81216e-299
-4.67173e-301
-3.90315e-303
-3.71185e-278
-3.37242e-235
-4.84702e-194
-2.00486e-153
-5.20467e-211
-4.44236e-213
-2.67637e-215
-1.19317e-217
-4.05591e-220
-1.05922e-222
-2.08114e-225
-2.70115e-228
-3.42829e-231
-4.60574e-234
-6.55454e-237
-9.89215e-240
-1.58421e-242
-2.69307e-245
-4.86176e-248
-9.32979e-251
-1.90645e-253
-4.1571e-256
-9.69096e-259
-2.41675e-261
-6.43992e-264
-1.82816e-266
-5.50466e-269
-1.74924e-271
-5.83727e-274
-2.03665e-276
-7.40487e-279
-2.80028e-281
-1.10127e-283
-4.51149e-286
-1.93098e-288
-8.68212e-291
-4.11028e-293
-2.06565e-295
-1.09809e-297
-6.23465e-300
-3.71052e-302
-2.34257e-304
-1.54679e-306
-2.31307e-308
-1.75e-277
-9.56463e-235
-7.26797e-194
-1.29675e-153
-8.47086e-215
-8.06884e-217
-5.09056e-219
-2.22793e-221
-6.86294e-224
-1.43329e-226
-1.7049e-229
-1.86825e-232
-2.16967e-235
-2.67156e-238
-3.48769e-241
-4.82656e-244
-7.07451e-247
-1.09664e-249
-1.7942e-252
-3.09124e-255
-5.59608e-258
-1.06234e-260
-2.11134e-263
-4.38713e-266
-9.52019e-269
-2.15525e-271
-5.08433e-274
-1.24818e-276
-3.18391e-279
-8.42653e-282
-2.3114e-284
-6.56917e-287
-1.93598e-289
-5.92972e-292
-1.89296e-294
-6.33304e-297
-2.22358e-299
-8.26077e-302
-3.23296e-304
-1.34576e-306
-5.86407e-309
-2.69508e-311
-1.3106e-313
-1.16587e-307
-8.10908e-277
-2.59647e-234
-1.02642e-193
-6.96774e-154
-8.78266e-219
-9.22428e-221
-5.84735e-223
-2.30013e-225
-5.28293e-228
-4.51629e-231
-4.15979e-234
-4.08562e-237
-4.24061e-240
-4.63464e-243
-5.32613e-246
-6.42988e-249
-8.14123e-252
-1.07846e-254
-1.48998e-257
-2.13945e-260
-3.18161e-263
-4.88464e-266
-7.72096e-269
-1.25376e-271
-2.08797e-274
-3.56167e-277
-6.21713e-280
-1.10978e-282
-2.02504e-285
-3.7773e-288
-7.20675e-291
-1.40849e-293
-2.82694e-296
-5.84848e-299
-1.25234e-301
-2.79335e-304
-6.50499e-307
-1.59413e-309
-4.0968e-312
-1.11252e-314
-3.15202e-317
-9.29832e-320
-2.51973e-322
-1.00338e-306
-3.66226e-276
-6.65737e-234
-1.35864e-193
-3.1599e-154
-4.50392e-223
-4.98411e-225
-2.73054e-227
-6.21734e-230
-4.06708e-233
-2.79038e-236
-1.99943e-239
-1.48977e-242
-1.14937e-245
-9.14529e-249
-7.4747e-252
-6.25152e-255
-5.331e-258
-4.62009e-261
-4.05774e-264
-3.60345e-267
-3.23024e-270
-2.92016e-273
-2.66132e-276
-2.44571e-279
-2.26788e-282
-2.12396e-285
-2.01114e-288
-1.92735e-291
-1.87135e-294
-1.84318e-297
-1.84453e-300
-1.87963e-303
-1.95626e-306
-2.08797e-309
-2.29469e-312
-2.61351e-315
-3.09059e-318
-3.78948e-321
-0
0
0
0
0
-8.26349e-306
-1.61957e-275
-1.62749e-233
-1.66279e-193
-1.09303e-154
-3.76791e-228
-2.26403e-230
-6.15274e-234
-1.54329e-237
-3.59739e-241
-7.86537e-245
-1.62783e-248
-3.21862e-252
-6.12844e-256
-1.13197e-259
-2.0417e-263
-3.618e-267
-6.33476e-271
-1.10174e-274
-1.91274e-278
-3.32981e-282
-5.83493e-286
-1.03227e-289
-1.84715e-293
-3.34547e-297
-6.13061e-301
-1.13556e-304
-2.12751e-308
-4.15959e-312
-1.2406e-315
-1.64076e-318
-4.84184e-321
-0
0
0
0
0
0
0
0
0
0
0
0
-6.49009e-305
-6.97053e-275
-3.75356e-233
-1.86738e-193
-2.8202e-155
-1.46675e-252
-1.07606e-255
-8.46126e-259
-7.12378e-262
-6.41423e-265
-6.16722e-268
-6.32174e-271
-6.89719e-274
-7.99667e-277
-9.83796e-280
-1.28243e-282
-1.76902e-285
-2.57936e-288
-3.97181e-291
-6.45565e-294
-1.10749e-296
-2.00627e-299
-3.84175e-302
-7.787e-305
-1.67335e-307
-3.8175e-310
-9.2536e-313
-2.38348e-315
-6.51781e-318
-1.87992e-320
-0
0
0
0
0
0
0
0
0
0
0
0
0
0
-4.90852e-304
-2.92715e-274
-8.20211e-233
-1.89269e-193
-4.50873e-156
-9.27847e-257
-6.64865e-260
-5.10663e-263
-4.2005e-266
-3.69537e-269
-3.47157e-272
-3.47634e-275
-3.70522e-278
-4.19702e-281
-5.04603e-284
-6.4322e-287
-8.68527e-290
-1.24146e-292
-1.87778e-295
-3.00546e-298
-5.09203e-301
-9.1393e-304
-1.7395e-306
-3.51474e-309
-7.54557e-312
-1.72174e-314
-4.17386e-317
-1.07267e-319
-2.02567e-322
0
0
0
0
0
0
0
0
0
0
0
0
0
0
0
-3.56446e-303
-1.19314e-273
-1.68163e-232
-1.70732e-193
-3.67173e-157
-5.97903e-261
-4.17661e-264
-3.12522e-267
-2.50302e-270
-2.14347e-273
-1.96013e-276
-1.91157e-279
-1.98563e-282
-2.19445e-285
-2.57782e-288
-3.21624e-291
-4.25971e-294
-5.98726e-297
-8.93076e-300
-1.41408e-302
-2.37784e-305
-4.24881e-308
-8.07111e-311
-1.63029e-313
-3.50043e-316
-7.98059e-319
-1.82804e-321
-0
0
0
0
0
0
0
0
0
0
0
0
0
0
0
0
0
-2.49977e-302
-4.72888e-273
-3.23785e-232
-1.34033e-193
-2.4598e-159
-3.94738e-265
-2.69205e-268
-1.96673e-271
-1.53826e-274
-1.28687e-277
-1.15023e-280
-1.09714e-283
-1.11571e-286
-1.20857e-289
-1.3937e-292
-1.71034e-295
-2.23336e-298
-3.10336e-301
-4.58986e-304
-7.22742e-307
-1.21191e-309
-2.16389e-312
-4.11238e-315
-8.3104e-318
-1.77518e-320
-0
0
0
0
0
0
0
0
0
0
0
0
0
0
0
0
0
0
0
-1.69023e-301
-1.81292e-272
-5.79716e-232
-8.95018e-194
-6.82971e-162
-2.65756e-269
-1.77027e-272
-1.26323e-275
-9.65203e-279
-7.89129e-282
-6.89809e-285
-6.44214e-288
-6.42385e-291
-6.8367e-294
-7.76413e-297
-9.4087e-300
-1.21677e-302
-1.67957e-305
-2.47466e-308
-3.89108e-311
-6.52527e-314
-1.16581e-316
-2.215e-319
-3.31024e-322
0
0
0
0
0
0
0
0
0
0
0
0
0
0
0
0
0
0
0
0
-1.10478e-300
-6.73094e-272
-9.62695e-232
-4.88907e-194
-2.34516e-164
-1.82604e-273
-1.18947e-276
-8.3035e-280
-6.21081e-283
-4.97582e-286
-4.26807e-289
-3.91817e-292
-3.8488e-295
-4.04507e-298
-4.54899e-301
-5.47446e-304
-7.05052e-307
-9.71545e-310
-1.43154e-312
-2.25296e-315
-3.78075e-318
-6.67977e-321
-0
0
0
0
0
0
0
0
0
0
0
0
0
0
0
0
0
0
0
0
0
0
-6.97701e-300
-2.40816e-271
-1.46866e-231
-2.09361e-194
-7.86164e-167
-1.28012e-277
-8.16837e-281
-5.59045e-284
-4.10436e-287
-3.23251e-290
-2.73098e-293
-2.47506e-296
-2.40646e-299
-2.51043e-302
-2.8101e-305
-3.37467e-308
-4.34559e-311
-5.99412e-314
-8.84211e-317
-1.39104e-319
-1.63042e-322
0
0
0
0
0
0
0
0
0
0
0
0
0
0
0
0
0
0
0
0
0
0
0
-4.25976e-299
-8.30242e-271
-2.04664e-231
-6.5609e-195
-2.19638e-169
-9.17422e-282
-5.74918e-285
-3.86972e-288
-2.79906e-291
-2.17656e-294
-1.82008e-297
-1.63711e-300
-1.58412e-303
-1.64891e-306
-1.84554e-309
-2.21909e-312
-2.86226e-315
-3.95196e-318
-5.72128e-321
-0
0
0
0
0
0
0
0
0
0
0
0
0
0
0
0
0
0
0
0
0
0
0
0
0
-2.51362e-298
-2.74724e-270
-2.5859e-231
-1.39562e-195
-5.57237e-172
-6.74439e-286
-4.16579e-289
-2.7693e-292
-1.98301e-295
-1.53049e-298
-1.27371e-301
-1.14312e-304
-1.10609e-307
-1.15303e-310
-1.29325e-313
-1.55767e-316
-2.00917e-319
-1.92686e-322
0
0
0
0
0
0
0
0
0
0
0
0
0
0
0
0
0
0
0
0
0
0
0
0
0
0
-1.43307e-297
-8.70884e-270
-2.95609e-231
-2.00058e-196
-1.52618e-174
-5.11492e-290
-3.12863e-293
-2.06483e-296
-1.47176e-299
-1.13358e-302
-9.43544e-306
-8.48322e-309
-8.2296e-312
-8.59945e-315
-9.65667e-318
-1.15463e-320
-0
0
0
0
0
0
0
0
0
0
0
0
0
0
0
0
0
0
0
0
0
0
0
0
0
0
0
0
-7.88876e-297
-2.63611e-269
-3.08418e-231
-2.90162e-197
-8.40683e-177
-4.03315e-294
-2.45633e-297
-1.61827e-300
-1.15403e-303
-8.90808e-307
-7.43776e-310
-6.70774e-313
-6.52058e-316
-6.81371e-319
-6.66989e-322
0
0
0
0
0
0
0
0
0
0
0
0
0
0
0
0
0
0
0
0
0
0
0
0
0
0
0
0
0
-4.18942e-296
-7.59581e-269
-3.03847e-231
-6.84613e-198
-1.13143e-178
-3.33646e-298
-2.03378e-301
-1.34346e-304
-9.61598e-308
-7.45084e-311
-6.23917e-314
-5.63303e-317
-5.45745e-320
-0
0
0
0
0
0
0
0
0
0
0
0
0
0
0
0
0
0
0
0
0
0
0
0
0
0
0
0
0
0
0
-2.14401e-295
-2.07601e-268
-3.02435e-231
-1.35273e-198
-1.71749e-180
-2.91942e-302
-1.78718e-305
-1.1859e-308
-8.52027e-312
-6.61564e-315
-5.53763e-318
-4.89125e-321
-0
0
0
0
0
0
0
0
0
0
0
0
0
0
0
0
0
0
0
0
0
0
0
0
0
0
0
0
0
0
0
-0
-1.05597e-294
-5.36078e-268
-3.2432e-231
-1.11916e-199
-2.06347e-182
-2.71371e-306
-1.66887e-309
-1.11075e-312
-7.9857e-316
-6.1858e-319
-4.05134e-322
0
0
0
0
0
0
0
0
0
0
0
0
0
0
0
0
0
0
0
0
0
0
0
0
0
0
0
0
0
0
0
0
-8.94259e-322
-4.99753e-294
-1.30221e-267
-3.69228e-231
-5.37655e-201
-2.0458e-184
-2.67554e-310
-1.64807e-313
-1.09556e-316
-7.83045e-320
-0
0
0
0
0
0
0
0
0
0
0
0
0
0
0
0
0
0
0
0
0
0
0
0
0
0
0
0
0
0
0
0
0
0
-9.93072e-321
-2.26858e-293
-2.96125e-267
-4.09667e-231
-1.5232e-202
-1.81062e-186
-2.77766e-314
-1.70502e-317
-1.11856e-320
-0
0
0
0
0
0
0
0
0
0
0
0
0
0
0
0
0
0
0
0
0
0
0
0
0
0
0
0
0
0
0
0
0
0
0
-5.20399e-320
-9.85726e-293
-6.26957e-267
-4.08351e-231
-3.24567e-204
-1.48389e-188
-3.00406e-318
-1.71935e-321
0
0
0
0
0
0
0
0
0
0
0
0
0
0
0
0
0
0
0
0
0
0
0
0
0
0
0
0
0
0
0
0
0
0
0
0
-2.46825e-319
-4.09034e-292
-1.22828e-266
-3.46884e-231
-6.60534e-206
-1.14416e-190
-2.47033e-322
0
0
0
0
0
0
0
0
0
0
0
0
0
0
0
0
0
0
0
0
0
0
0
0
0
0
0
0
0
0
0
0
0
0
0
0
0
-1.11493e-318
-1.61674e-291
-2.21128e-266
-2.40854e-231
-1.27487e-207
-8.02835e-193
0
0
0
0
0
0
0
0
0
0
0
0
0
0
0
0
0
0
0
0
0
0
0
0
0
0
0
0
0
0
0
0
0
0
0
0
0
0
-4.78957e-318
-6.06932e-291
-3.63017e-266
-1.29753e-231
-2.31674e-209
-5.07166e-195
0
0
0
0
0
0
0
0
0
0
0
0
0
0
0
0
0
0
0
0
0
0
0
0
0
0
0
0
0
0
0
0
0
0
0
0
0
0
-1.95399e-317
-2.15709e-290
-5.38883e-266
-5.00428e-232
-3.97844e-211
-2.86951e-197
0
0
0
0
0
0
0
0
0
0
0
0
0
0
0
0
0
0
0
0
0
0
0
0
0
0
0
0
0
0
0
0
0
0
0
0
0
0
-7.55139e-317
-7.23234e-290
-7.1716e-266
-1.20532e-232
-5.8598e-213
-1.40508e-199
0
0
0
0
0
0
0
0
0
0
0
0
0
0
0
0
0
0
0
0
0
0
0
0
0
0
0
0
0
0
0
0
0
0
0
0
0
0
-2.75627e-316
-2.27861e-289
-8.49537e-266
-1.41191e-233
-6.7172e-215
-6.10434e-202
0
0
0
0
0
0
0
0
0
0
0
0
0
0
0
0
0
0
0
0
0
0
0
0
0
0
0
0
0
0
0
0
0
0
0
0
0
0
-9.47057e-316
-6.71691e-289
-8.94499e-266
-6.66014e-235
-5.46648e-217
-2.43678e-204
0
0
0
0
0
0
0
0
0
0
0
0
0
0
0
0
0
0
0
0
0
0
0
0
0
0
0
0
0
0
0
0
0
0
0
0
0
0
-3.05245e-315
-1.84391e-288
-8.49718e-266
-1.69715e-236
-3.49771e-219
-9.1696e-207
0
0
0
0
0
0
0
0
0
0
0
0
0
0
0
0
0
0
0
0
0
0
0
0
0
0
0
0
0
0
0
0
0
0
0
0
0
0
-9.19398e-315
-4.69008e-288
-7.65921e-266
-2.95683e-238
-1.9346e-221
-3.33981e-209
0
0
0
0
0
0
0
0
0
0
0
0
0
0
0
0
0
0
0
0
0
0
0
0
0
0
0
0
0
0
0
0
0
0
0
0
0
0
-2.57782e-314
-1.09944e-287
-7.19202e-266
-4.0115e-240
-9.77733e-224
-1.22692e-211
0
0
0
0
0
0
0
0
0
0
0
0
0
0
0
0
0
0
0
0
0
0
0
0
0
0
0
0
0
0
0
0
0
0
0
0
0
0
-6.70194e-314
-2.36246e-287
-7.55206e-266
-3.74716e-242
-4.57272e-226
-4.85576e-214
0
0
0
0
0
0
0
0
0
0
0
0
0
0
0
0
0
0
0
0
0
0
0
0
0
0
0
0
0
0
0
0
0
0
0
0
0
0
-1.60963e-313
-4.62967e-287
-8.53588e-266
-3.99779e-244
-1.92106e-228
-2.23696e-216
0
0
0
0
0
0
0
0
0
0
0
0
0
0
0
0
0
0
0
0
0
0
0
0
0
0
0
0
0
0
0
0
0
0
0
0
0
0
-3.55983e-313
-8.24018e-287
-9.47723e-266
-4.29359e-246
-7.33606e-231
-1.23897e-218
0
0
0
0
0
0
0
0
0
0
0
0
0
0
0
0
0
0
0
0
0
0
0
0
0
0
0
0
0
0
0
0
0
0
0
0
0
0
-7.23336e-313
-1.32929e-286
-9.80743e-266
-1.14059e-247
-2.81776e-233
-7.40377e-221
0
0
0
0
0
0
0
0
0
0
0
0
0
0
0
0
0
0
0
0
0
0
0
0
0
0
0
0
0
0
0
0
0
0
0
0
0
0
-1.34965e-312
-1.94641e-286
-9.44714e-266
-6.21146e-248
-2.79081e-234
-7.26796e-222
0
0
0
0
0
0
0
0
0
0
0
0
0
0
0
0
0
0
0
0
0
0
0
0
0
0
0
0
0
0
0
0
0
0
0
0
0
0
-6.19694e-312
-5.25457e-286
-5.67454e-266
-5.74752e-250
-4.90937e-237
-3.32858e-225
0
0
0
0
0
0
0
0
0
0
0
0
0
0
0
0
0
0
0
0
0
0
0
0
0
0
0
0
0
0
0
0
0
0
0
0
0
0
-2.09086e-311
-7.36491e-286
-3.97281e-267
-5.95472e-253
-2.99875e-240
-2.2912e-229
0
0
0
0
0
0
0
0
0
0
0
0
0
0
0
0
0
0
0
0
0
0
0
0
0
0
0
0
0
0
0
0
0
0
0
0
0
0
-4.46251e-311
-1.87949e-287
-1.68278e-270
-3.6755e-257
-1.31551e-244
-1.92377e-234
0
0
0
0
0
0
0
0
0
0
0
0
0
0
0
0
0
0
0
0
0
0
0
0
0
0
0
0
0
0
0
0
0
0
0
0
0
0
-4.18261e-311
-1.04568e-290
-3.82264e-275
-2.65922e-262
-4.07151e-250
-1.57632e-240
0
0
0
0
0
0
0
0
0
0
0
0
0
0
0
0
0
0
0
0
0
0
0
0
0
0
0
0
0
0
0
0
0
0
0
0
0
0
-1.0447e-314
-9.63691e-296
-3.01182e-281
-1.07682e-268
-5.35711e-257
-6.92456e-248
0
0
0
0
0
0
0
0
0
0
0
0
0
0
0
0
0
0
0
0
0
0
0
0
0
0
0
0
0
0
0
0
0
0
0
0
0
0
-7.81612e-321
-4.17647e-303
-3.81667e-289
-1.05303e-276
-1.60879e-265
-8.50434e-257
0
0
0
0
0
0
0
0
0
0
0
0
0
0
0
0
0
0
0
0
0
0
0
0
0
0
0
0
0
0
0
0
0
0
0
0
0
0
0
-4.28816e-313
-1.84813e-299
-3.11919e-287
-2.04593e-276
-5.5734e-268
0
0
0
0
0
0
0
0
0
0
0
0
0
0
0
0
0
0
0
0
0
0
0
0
0
0
0
0
0
0
0
0
0
0
0
0
0
0
0
0
-2.86391e-314
-2.19896e-302
-5.75741e-292
-1.06926e-283
0
0
0
0
0
0
0
0
0
0
0
0
0
0
0
0
0
0
0
0
0
0
0
0
0
0
0
0
0
0
0
0
0
0
0
0
0
0
0
0
0
0
-1.00973e-317
-1.77229e-309
1
1
1
1
1
1
1
1
1
1
1
1
1
1
1
1
1
1
1
1
1
1
1
1
1
1
1
1
1
1
1
1
1
1
1
1
1
1
1
1
1
1
1
1
1
1
1
1
1
1
1
1
0.999253
0.993917
0.986632
0.981311
0.979925
0.979926
0.980004
0.980346
0.980309
0.980092
0.978885
0.973921
1
1
1
1
1
1
1
1
1
1
1
1
1
1
1
1
1
1
1
1
1
1
1
1
1
1
1
1
1
1
1
1
1
1
1
1
1
1
1
1
1
1
1
1
1
1
1
1
1
1
1
0.999996
0.999075
0.996821
0.995651
0.995601
0.996327
0.997306
0.99833
0.998915
0.999043
0.999022
0.99905
0.998335
1
1
1
1
1
1
1
1
1
1
1
1
1
1
1
1
1
1
1
1
1
1
1
1
1
1
1
1
1
1
1
1
1
1
1
1
1
1
1
1
1
1
1
1
1
1
1
1
1
1
1
0.999886
0.999225
0.998976
0.999094
0.999396
0.999656
0.999828
0.999935
0.999971
0.999981
0.999988
0.999993
0.999994
1
1
1
1
1
1
1
1
1
1
1
1
1
1
1
1
1
1
1
1
1
1
1
1
1
1
1
1
1
1
1
1
1
1
1
1
1
1
1
1
1
1
1
1
1
1
1
1
1
1
0.999993
0.999822
0.999602
0.999795
0.999972
0.999996
1
1
1
1
1
1
1
1
1
1
1
1
1
1
1
1
1
1
1
1
1
1
1
1
1
1
1
1
1
1
1
1
1
1
1
1
1
1
1
1
1
1
1
1
1
1
1
1
1
1
1
1
1
1
1
1
1
1
0.99995
0.999817
0.999819
0.999963
0.999996
1
1
1
1
1
1
1
1
1
1
1
1
1
1
1
1
1
1
1
1
1
1
1
1
1
1
1
1
1
1
1
1
1
1
1
1
1
1
1
1
1
1
1
1
1
1
1
1
1
1
1
1
1
1
1
1
1
1
1
0.999967
0.999891
0.999935
0.999992
0.999999
1
1
1
1
1
1
1
1
1
1
1
1
1
1
1
1
1
1
1
1
1
1
1
1
1
1
1
1
1
1
1
1
1
1
1
1
1
1
1
1
1
1
1
1
1
1
1
1
1
1
1
1
1
1
1
1
1
1
1
0.99999
0.999974
0.999987
0.999998
1
1
1
1
1
1
1
1
1
1
1
1
1
1
1
1
1
1
1
1
1
1
1
1
1
1
1
1
1
1
1
1
1
1
1
1
1
1
1
1
1
1
1
1
1
1
1
1
1
1
1
1
1
1
1
1
1
1
1
1
0.999999
1
1
1
1
1
1
1
1
1
1
1
1
1
1
1
1
1
1
1
1
1
1
1
1
1
1
1
1
1
1
1
1
1
1
1
1
1
1
1
1
1
1
1
1
1
1
1
1
1
1
1
1
1
1
1
1
1
1
1
1
1
1
1
1
1
1
1
1
1
0.999999
0.999999
0.999999
1
1
1
1
1
1
1
1
1
1
1
1
1
1
1
1
1
1
1
1
1
1
1
1
1
1
1
1
1
1
1
1
1
1
1
1
1
1
1
1
1
1
1
1
1
1
1
1
1
1
1
1
1
1
1
1
1
1
1
1
1
0.999999
0.999999
0.999999
0.999999
0.999999
1
1
1
1
1
1
1
1
1
1
1
1
1
1
1
1
1
1
1
1
1
1
1
1
1
1
1
1
1
1
1
1
1
1
1
1
1
1
1
1
1
1
1
1
1
1
1
1
1
1
1
1
1
1
1
1
1
1
0.999999
0.999999
0.999999
0.999999
0.999999
0.999999
0.999999
1
1
1
1
1
1
1
1
1
1
1
1
1
1
1
1
1
1
1
1
1
1
1
1
1
1
1
1
1
1
1
1
1
1
1
1
1
1
1
1
1
1
1
1
1
1
1
1
1
1
1
1
1
1
1
1
1
0.999999
0.999999
1
1
1
1
1
1
1
1
1
1
1
1
1
1
1
1
1
1
1
1
1
1
1
1
1
1
1
1
1
1
1
1
1
1
1
1
1
1
1
1
1
1
1
1
1
1
1
1
1
1
1
1
1
1
1
1
1
1
1
1
1
1
1
1
1
1
1
1
1
1
1
1
1
1
1
1
1
1
1
1
1
1
1
1
1
1
1
1
1
1
1
1
1
1
1
1
1
1
1
1
1
1
1
1
1
1
1
1
1
1
1
1
1
1
1
1
1
1
1
1
1
1
1
1
1
1
1
1
1
1
1
1
1
1
1
1
1
1
1
1
1
1
1
1
1
1
1
1
1
1
1
1
1
1
1
1
1
1
1
1
1
1
1
1
1
1
1
1
1
1
1
1
1
1
1
1
1
1
1
1
1
1
1
1
0.999999
0.999999
1
1
1
0.999999
0.999998
0.999995
0.999996
0.999998
0.999999
0.999999
0.999999
0.999998
0.999997
1
1
1
1
1
1
1
1
1
1
1
1
1
1
1
1
1
1
1
1
1
1
1
1
1
1
1
1
1
1
1
1
1
1
1
1
1
1
1
1
1
1
1
1
1
1
1
1
1
0.999999
0.999998
0.999999
1
1
1
0.999985
0.999952
0.999935
0.999961
0.999986
0.999993
0.999995
0.999994
0.999986
1
1
1
1
1
1
1
1
1
1
1
1
1
1
1
1
1
1
1
1
1
1
1
1
1
1
1
1
1
1
1
1
1
1
1
1
1
1
1
1
1
1
1
1
1
1
1
1
1
0.999999
0.999994
0.999994
0.999999
1
1
0.999992
0.99992
0.999819
0.999819
0.999833
0.999897
0.999943
0.99971
0.99366
1
1
1
1
1
1
1
1
1
1
1
1
1
1
1
1
1
1
1
1
1
1
1
1
1
1
1
1
1
1
1
1
1
1
1
1
1
1
1
1
1
1
1
1
1
1
1
1
1
1
0.999995
0.999988
0.999996
0.999999
0.999996
0.999983
0.999967
0.999927
0.998899
0.992348
0.98313
0.97424
0.924278
0.852912
1
1
1
1
1
1
1
1
1
1
1
1
1
1
1
1
1
1
1
1
1
1
1
1
1
1
1
1
1
1
1
1
1
1
1
1
1
1
1
1
1
1
1
1
1
1
1
1
1
1
0.999998
0.999988
0.999981
0.999981
0.999945
0.999853
0.999835
0.999777
0.982034
0.924485
0.872555
0.813476
0.652032
0.483238
1
1
1
1
1
1
1
1
1
1
1
1
1
1
1
1
1
1
1
1
1
1
1
1
1
1
1
1
1
1
1
1
1
1
1
1
1
1
1
1
1
1
1
1
1
1
1
1
1
1
1
0.999997
0.999994
0.999988
0.998355
0.982472
0.96454
0.975806
0.888319
0.754341
0.639829
0.49697
0.315159
0.197105
1
1
1
1
1
1
1
1
1
1
1
1
1
1
1
1
1
1
1
1
1
1
1
1
1
1
1
1
1
1
1
1
1
1
1
1
1
1
1
1
1
1
1
1
1
1
1
1
1
1
1
0.999999
0.999994
0.999966
0.989692
0.914309
0.840987
0.852429
0.703588
0.527865
0.423123
0.317186
0.225679
0.155606
1
1
1
1
1
1
1
1
1
1
1
1
1
1
1
1
1
1
1
1
1
1
1
1
1
1
1
1
1
1
1
1
1
1
1
0.999903
0.995799
0.988022
0.97845
0.962932
0.946268
0.958074
0.971818
0.967634
0.951855
0.930122
0.910152
0.898174
0.898429
0.894644
0.882445
0.868289
0.83888
0.772993
0.662783
0.531987
0.422839
0.345897
0.271827
0.207406
0.165059
0.136163
0.114415
0.0986192
1
1
1
1
1
1
1
1
1
1
1
1
1
1
1
1
1
1
1
1
1
1
0.999999
0.999366
0.99627
0.995364
0.995347
0.993328
0.989831
0.984221
0.974764
0.961272
0.945125
0.926616
0.901594
0.867692
0.824714
0.773594
0.722949
0.681043
0.622736
0.538375
0.466295
0.449181
0.444946
0.421938
0.380883
0.336969
0.301383
0.274879
0.253039
0.22976
0.200693
0.156027
0.106775
0.0687996
0.0454893
0.0314625
0.0219663
0.0158279
0.0119
0.00943591
0.00764008
0.0064223
1
1
1
1
1
1
1
1
1
1
1
0.999946
0.998974
0.9977
0.997123
0.995785
0.994067
0.991974
0.988572
0.982271
0.971855
0.956844
0.936433
0.908447
0.871961
0.828339
0.781044
0.729773
0.677692
0.620947
0.558809
0.494168
0.433288
0.37947
0.327936
0.278531
0.227883
0.178741
0.139422
0.111088
0.0906885
0.0743628
0.062795
0.0576206
0.0549036
0.0512519
0.0460439
0.0406504
0.0360016
0.0319661
0.0285009
0.0244427
0.0195774
0.0141046
0.00923353
0.00572781
0.00355462
0.00229273
0.00150644
0.00105443
0.000769192
0.000597985
0.000482701
0.000399754
0.998853
0.998624
0.998781
0.99865
0.997414
0.995734
0.993128
0.989509
0.984501
0.976621
0.962791
0.939235
0.905955
0.865971
0.821996
0.770964
0.717849
0.670102
0.629646
0.586175
0.533139
0.475181
0.420447
0.367155
0.315902
0.265469
0.212701
0.167824
0.131778
0.103138
0.0803909
0.0626047
0.049089
0.0387268
0.0303912
0.0236346