/*--------------------------------*- C++ -*----------------------------------*\
| =========                 |                                                 |
| \\      /  F ield         | OpenFOAM: The Open Source CFD Toolbox           |
|  \\    /   O peration     | Version:  v1912                                 |
|   \\  /    A nd           | Website:  www.openfoam.com                      |
|    \\/     M anipulation  |                                                 |
\*---------------------------------------------------------------------------*/
FoamFile
{
    version     2.0;
    format      ascii;
    class       volScalarField;
    location    "90";
    object      k;
}
// * * * * * * * * * * * * * * * * * * * * * * * * * * * * * * * * * * * * * //

dimensions      [0 2 -2 0 0 0 0];


internalField   nonuniform List<scalar> 
14268
(
2.40993e-10
2.51162e-10
2.56868e-10
2.5503e-10
2.43123e-10
2.2766e-10
2.2185e-10
2.25689e-10
2.30575e-10
2.32907e-10
2.34958e-10
2.38739e-10
2.47013e-10
2.55987e-10
2.54167e-10
2.39561e-10
2.17398e-10
2.09783e-10
2.17074e-10
2.2049e-10
2.1896e-10
2.27577e-10
2.55557e-10
2.73671e-10
2.58481e-10
2.15261e-10
1.9159e-10
2.0287e-10
2.47092e-10
3.79744e-10
6.92612e-10
1.10946e-09
1.33545e-09
1.69826e-09
2.3961e-09
3.59077e-09
5.33525e-09
9.01185e-09
1.50503e-08
2.21268e-07
2.5406e-05
0.000125039
0.000295042
0.000451841
3.22508e-09
3.26913e-09
3.2762e-09
3.22543e-09
3.09879e-09
2.95769e-09
2.88158e-09
2.86984e-09
2.8824e-09
2.91627e-09
2.96112e-09
3.01188e-09
3.07344e-09
3.12135e-09
3.10345e-09
3.0046e-09
2.85607e-09
2.79115e-09
2.81864e-09
2.84524e-09
2.87423e-09
2.97147e-09
3.14123e-09
3.23844e-09
3.16524e-09
2.97005e-09
2.91688e-09
3.1428e-09
3.88976e-09
5.98354e-09
1.06442e-08
1.69004e-08
2.12099e-08
2.59919e-08
3.16725e-08
3.85458e-08
4.67041e-08
5.92353e-08
8.00163e-08
4.22582e-06
0.000117658
0.000462711
0.00102747
0.00160552
1.23504e-08
1.24561e-08
1.24476e-08
1.22436e-08
1.17942e-08
1.1278e-08
1.09341e-08
1.07857e-08
1.07853e-08
1.09447e-08
1.11959e-08
1.1433e-08
1.1626e-08
1.17161e-08
1.16161e-08
1.12661e-08
1.07469e-08
1.0426e-08
1.03647e-08
1.03516e-08
1.04267e-08
1.07179e-08
1.10621e-08
1.11775e-08
1.08258e-08
1.01225e-08
9.85613e-09
1.0335e-08
1.22699e-08
1.73902e-08
2.69718e-08
3.60717e-08
4.12612e-08
4.63732e-08
5.20266e-08
5.8609e-08
6.63405e-08
7.79913e-08
1.18806e-07
1.92478e-05
0.000210393
0.000726382
0.00156046
0.00248283
2.51454e-08
2.52718e-08
2.5262e-08
2.50149e-08
2.44413e-08
2.37059e-08
2.31462e-08
2.28795e-08
2.28907e-08
2.32124e-08
2.37075e-08
2.41271e-08
2.43867e-08
2.44558e-08
2.42913e-08
2.38097e-08
2.30532e-08
2.24722e-08
2.22508e-08
2.21448e-08
2.22668e-08
2.27894e-08
2.32795e-08
2.33861e-08
2.27526e-08
2.13968e-08
2.0668e-08
2.13244e-08
2.42715e-08
3.03589e-08
3.78555e-08
4.37035e-08
4.75824e-08
5.16453e-08
5.63587e-08
6.21807e-08
6.912e-08
8.05774e-08
2.63287e-07
4.36025e-05
0.000304436
0.00095545
0.00204709
0.00325838
3.47016e-08
3.47731e-08
3.47661e-08
3.46275e-08
3.42961e-08
3.38697e-08
3.35371e-08
3.33571e-08
3.3337e-08
3.35279e-08
3.38525e-08
3.41259e-08
3.42954e-08
3.4357e-08
3.42784e-08
3.39979e-08
3.35193e-08
3.31262e-08
3.29855e-08
3.29072e-08
3.29683e-08
3.33155e-08
3.35916e-08
3.36391e-08
3.32421e-08
3.23911e-08
3.19092e-08
3.23478e-08
3.42032e-08
3.7583e-08
4.17594e-08
4.58136e-08
4.89673e-08
5.25964e-08
5.69372e-08
6.2548e-08
6.92687e-08
8.1423e-08
1.12715e-06
7.63107e-05
0.000407582
0.00118076
0.002505
0.00399452
3.9768e-08
3.98151e-08
3.9837e-08
3.97964e-08
3.96547e-08
3.94274e-08
3.92393e-08
3.91687e-08
3.91901e-08
3.93199e-08
3.95016e-08
3.96394e-08
3.97059e-08
3.97198e-08
3.96875e-08
3.96002e-08
3.94207e-08
3.9214e-08
3.91402e-08
3.91121e-08
3.91572e-08
3.93742e-08
3.94721e-08
3.94617e-08
3.92765e-08
3.88989e-08
3.86392e-08
3.88404e-08
3.95418e-08
4.08033e-08
4.30859e-08
4.62413e-08
4.92186e-08
5.26394e-08
5.69693e-08
6.25165e-08
6.91757e-08
8.28384e-08
4.54192e-06
0.000118257
0.000523407
0.00141165
0.00294837
0.00469793
4.23626e-08
4.23583e-08
4.23618e-08
4.2381e-08
4.23964e-08
4.24064e-08
4.23996e-08
4.23777e-08
4.2349e-08
4.23609e-08
4.24156e-08
4.24747e-08
4.25082e-08
4.24948e-08
4.24861e-08
4.25146e-08
4.25171e-08
4.24711e-08
4.24557e-08
4.2426e-08
4.23989e-08
4.24628e-08
4.24817e-08
4.25273e-08
4.25483e-08
4.2488e-08
4.23654e-08
4.23285e-08
4.22012e-08
4.22689e-08
4.34964e-08
4.62844e-08
4.92262e-08
5.26825e-08
5.69156e-08
6.24279e-08
6.93623e-08
8.99508e-08
1.26566e-05
0.000170052
0.000653571
0.0016553
0.00338888
0.00539319
4.33546e-08
4.33505e-08
4.33755e-08
4.34468e-08
4.35447e-08
4.36277e-08
4.36959e-08
4.37694e-08
4.37992e-08
4.37801e-08
4.37414e-08
4.37047e-08
4.36637e-08
4.36704e-08
4.37157e-08
4.38249e-08
4.39564e-08
4.40155e-08
4.40478e-08
4.40294e-08
4.39656e-08
4.39845e-08
4.39955e-08
4.40364e-08
4.41435e-08
4.43401e-08
4.44329e-08
4.42901e-08
4.35684e-08
4.28051e-08
4.36385e-08
4.62849e-08
4.92169e-08
5.25836e-08
5.67962e-08
6.2352e-08
6.97355e-08
1.17072e-07
2.57136e-05
0.000232019
0.000798044
0.00191245
0.00382967
0.00607215
4.38869e-08
4.38618e-08
4.38774e-08
4.39542e-08
4.41002e-08
4.42744e-08
4.4419e-08
4.44977e-08
4.44945e-08
4.44297e-08
4.43574e-08
4.43151e-08
4.42942e-08
4.42861e-08
4.43413e-08
4.44996e-08
4.46686e-08
4.4772e-08
4.48756e-08
4.49196e-08
4.48503e-08
4.47559e-08
4.46614e-08
4.46552e-08
4.48392e-08
4.52024e-08
4.53294e-08
4.50632e-08
4.40168e-08
4.30117e-08
4.36748e-08
4.6227e-08
4.91476e-08
5.24098e-08
5.66479e-08
6.23752e-08
7.11551e-08
2.11816e-07
4.36777e-05
0.000304138
0.000955879
0.0021842
0.00427593
0.00674544
4.40918e-08
4.40758e-08
4.40944e-08
4.41801e-08
4.43308e-08
4.4508e-08
4.46591e-08
4.47685e-08
4.47865e-08
4.47384e-08
4.46414e-08
4.4535e-08
4.44587e-08
4.44426e-08
4.45105e-08
4.46928e-08
4.49167e-08
4.50414e-08
4.51263e-08
4.51531e-08
4.50895e-08
4.50503e-08
4.4949e-08
4.4961e-08
4.52271e-08
4.56535e-08
4.57802e-08
4.55485e-08
4.43533e-08
4.30902e-08
4.37104e-08
4.6241e-08
4.90809e-08
5.22963e-08
5.65859e-08
6.27622e-08
7.56357e-08
5.12454e-07
6.68475e-05
0.000385878
0.00112508
0.00246833
0.00472563
0.00740575
4.41501e-08
4.41176e-08
4.41391e-08
4.42396e-08
4.44196e-08
4.46322e-08
4.48089e-08
4.49268e-08
4.49463e-08
4.48651e-08
4.47599e-08
4.46847e-08
4.4607e-08
4.45828e-08
4.46382e-08
4.48265e-08
4.50866e-08
4.52675e-08
4.53773e-08
4.53863e-08
4.52884e-08
4.5151e-08
4.50629e-08
4.51034e-08
4.53577e-08
4.57737e-08
4.59468e-08
4.56901e-08
4.44074e-08
4.30806e-08
4.36657e-08
4.61784e-08
4.89052e-08
5.2015e-08
5.66548e-08
6.41806e-08
8.78188e-08
1.36628e-06
9.54398e-05
0.00047587
0.00130275
0.00276285
0.00517973
0.00805851
4.42069e-08
4.41889e-08
4.4206e-08
4.42924e-08
4.44605e-08
4.46661e-08
4.48399e-08
4.49491e-08
4.49504e-08
4.48537e-08
4.4725e-08
4.46336e-08
4.45839e-08
4.45779e-08
4.46379e-08
4.48271e-08
4.50717e-08
4.52226e-08
4.53403e-08
4.53946e-08
4.53209e-08
4.5237e-08
4.51202e-08
4.51357e-08
4.53949e-08
4.5912e-08
4.61679e-08
4.57924e-08
4.43894e-08
4.30684e-08
4.36653e-08
4.61654e-08
4.88507e-08
5.19653e-08
5.71714e-08
6.80107e-08
1.17679e-07
3.43364e-06
0.000129462
0.000572089
0.0014855
0.00306428
0.00563409
0.00869659
4.41708e-08
4.41456e-08
4.41658e-08
4.42684e-08
4.446e-08
4.46772e-08
4.4855e-08
4.49747e-08
4.49955e-08
4.49304e-08
4.48215e-08
4.47255e-08
4.46514e-08
4.46325e-08
4.47032e-08
4.4895e-08
4.51576e-08
4.5341e-08
4.54374e-08
4.54645e-08
4.53683e-08
4.52579e-08
4.51596e-08
4.51613e-08
4.54235e-08
4.59152e-08
4.61435e-08
4.58535e-08
4.4457e-08
4.30899e-08
4.36398e-08
4.60394e-08
4.86049e-08
5.17774e-08
5.84583e-08
7.66706e-08
1.85993e-07
7.54521e-06
0.000168541
0.000671631
0.00166975
0.00336983
0.00608794
0.00932266
4.41868e-08
4.41334e-08
4.41454e-08
4.4242e-08
4.44222e-08
4.46493e-08
4.48473e-08
4.4972e-08
4.49861e-08
4.48932e-08
4.47452e-08
4.46269e-08
4.45561e-08
4.45516e-08
4.46288e-08
4.4821e-08
4.5049e-08
4.52028e-08
4.53346e-08
4.53735e-08
4.52845e-08
4.51414e-08
4.50448e-08
4.50822e-08
4.53736e-08
4.58396e-08
4.60315e-08
4.57893e-08
4.44762e-08
4.31086e-08
4.36186e-08
4.59134e-08
4.8558e-08
5.2122e-08
6.17957e-08
9.51199e-08
3.3806e-07
1.43294e-05
0.000211702
0.000770643
0.00185162
0.00367674
0.00653709
0.0099303
4.41819e-08
4.41737e-08
4.42006e-08
4.42971e-08
4.44709e-08
4.46799e-08
4.48589e-08
4.4979e-08
4.49872e-08
4.49082e-08
4.48144e-08
4.47435e-08
4.46801e-08
4.46563e-08
4.47066e-08
4.48929e-08
4.51544e-08
4.53167e-08
4.54277e-08
4.54673e-08
4.53954e-08
4.53075e-08
4.51887e-08
4.52169e-08
4.54932e-08
4.5975e-08
4.61442e-08
4.57788e-08
4.43557e-08
4.29646e-08
4.34744e-08
4.56088e-08
4.83285e-08
5.28153e-08
7.08809e-08
1.50211e-07
8.24521e-07
2.90438e-05
0.000280399
0.000913056
0.0021147
0.004135
0.00720279
0.0108172
4.42903e-08
4.42412e-08
4.42465e-08
4.43269e-08
4.44994e-08
4.47199e-08
4.49039e-08
4.50178e-08
4.50319e-08
4.49451e-08
4.48055e-08
4.46849e-08
4.46059e-08
4.45939e-08
4.46725e-08
4.48765e-08
4.51205e-08
4.52917e-08
4.54049e-08
4.54235e-08
4.53036e-08
4.51672e-08
4.50677e-08
4.50894e-08
4.53496e-08
4.58218e-08
4.60726e-08
4.58169e-08
4.44851e-08
4.30465e-08
4.34112e-08
4.55913e-08
4.88825e-08
5.69713e-08
1.03662e-07
3.4292e-07
2.54014e-06
6.01879e-05
0.000375231
0.00109129
0.0024399
0.00472474
0.00804983
0.0119124
4.4163e-08
4.41607e-08
4.41924e-08
4.428e-08
4.44239e-08
4.46088e-08
4.47958e-08
4.49355e-08
4.49585e-08
4.48741e-08
4.47441e-08
4.46508e-08
4.45804e-08
4.45642e-08
4.46262e-08
4.48193e-08
4.50911e-08
4.52575e-08
4.53671e-08
4.54216e-08
4.53606e-08
4.5286e-08
4.51727e-08
4.51832e-08
4.54797e-08
4.60431e-08
4.62827e-08
4.59392e-08
4.45103e-08
4.29798e-08
4.32792e-08
4.57245e-08
5.07527e-08
6.95325e-08
1.95107e-07
8.94666e-07
7.03594e-06
0.000101906
0.000472676
0.00127236
0.00275799
0.00528346
0.00884101
0.0129205
4.50294e-08
4.50635e-08
4.51085e-08
4.50634e-08
4.49497e-08
4.49448e-08
4.50209e-08
4.51011e-08
4.50895e-08
4.49894e-08
4.48632e-08
4.47782e-08
4.47515e-08
4.4775e-08
4.48276e-08
4.49497e-08
4.51416e-08
4.53085e-08
4.54343e-08
4.54595e-08
4.53596e-08
4.51748e-08
4.50361e-08
4.50533e-08
4.53161e-08
4.57515e-08
4.59264e-08
4.56176e-08
4.42293e-08
4.28052e-08
4.32327e-08
4.67247e-08
5.71853e-08
1.05219e-07
4.275e-07
2.22082e-06
1.55594e-05
0.000147835
0.00058037
0.00147627
0.00308632
0.00581042
0.00955287
0.0138054
4.93583e-08
5.01281e-08
5.05305e-08
4.97143e-08
4.7595e-08
4.61779e-08
4.57533e-08
4.56958e-08
4.56257e-08
4.54946e-08
4.53427e-08
4.53074e-08
4.54281e-08
4.56724e-08
4.55596e-08
4.52442e-08
4.51646e-08
4.52328e-08
4.53466e-08
4.53884e-08
4.52851e-08
4.52359e-08
4.52137e-08
4.5233e-08
4.54159e-08
4.58871e-08
4.61151e-08
4.58358e-08
4.44733e-08
4.28012e-08
4.33172e-08
4.96498e-08
7.36627e-08
1.94685e-07
9.41208e-07
4.72923e-06
2.72395e-05
0.000194036
0.00069837
0.00168142
0.00339849
0.0062877
0.010161
0.01456
8.04178e-08
8.6833e-08
9.02857e-08
8.46266e-08
6.83605e-08
5.58071e-08
5.13656e-08
5.0132e-08
4.96763e-08
4.97043e-08
5.02131e-08
5.14336e-08
5.37702e-08
5.60386e-08
5.48139e-08
5.0215e-08
4.70129e-08
4.62544e-08
4.627e-08
4.62608e-08
4.6209e-08
4.63029e-08
4.66706e-08
4.68714e-08
4.62269e-08
4.60941e-08
4.62697e-08
4.59246e-08
4.44639e-08
4.25684e-08
4.3776e-08
5.71119e-08
1.14469e-07
4.07224e-07
1.93879e-06
8.59942e-06
4.10127e-05
0.000241155
0.00080811
0.00183809
0.00361208
0.00663986
0.0106056
0.0151945
2.87903e-07
3.24839e-07
3.42498e-07
3.09073e-07
2.11167e-07
1.212e-07
8.30884e-08
7.36061e-08
7.12918e-08
7.27602e-08
7.81928e-08
8.82819e-08
1.04992e-07
1.20293e-07
1.14117e-07
8.51095e-08
5.97259e-08
5.21054e-08
5.1517e-08
5.12733e-08
5.09124e-08
5.16946e-08
5.53703e-08
5.71985e-08
5.09563e-08
4.63263e-08
4.58482e-08
4.54959e-08
4.40509e-08
4.23769e-08
4.53141e-08
7.46897e-08
2.09432e-07
8.64043e-07
3.69448e-06
1.41217e-05
5.85404e-05
0.000297244
0.000907378
0.00194354
0.00371943
0.00684628
0.0109034
0.0158042
8.80636e-06
9.20616e-06
9.32427e-06
8.44353e-06
6.16083e-06
3.7445e-06
2.5073e-06
2.04438e-06
1.76697e-06
1.58798e-06
1.57634e-06
1.70152e-06
2.12155e-06
2.63982e-06
2.52904e-06
1.71393e-06
7.84506e-07
4.83771e-07
4.91746e-07
4.83897e-07
4.02019e-07
3.70169e-07
5.0068e-07
5.72983e-07
3.16174e-07
8.93777e-08
5.05632e-08
4.66864e-08
4.61014e-08
5.46207e-08
1.73661e-07
6.624e-07
2.41027e-06
7.98745e-06
2.57412e-05
7.77212e-05
0.000262919
0.000864394
0.0017383
0.0027306
0.00461881
0.00840963
0.013551
0.0192952
0.000198505
0.000198134
0.000196231
0.000181427
0.000145634
0.000100545
6.98599e-05
5.50716e-05
4.72684e-05
4.47425e-05
4.5958e-05
5.15282e-05
6.38988e-05
7.69565e-05
7.57826e-05
5.84303e-05
3.27112e-05
2.14828e-05
2.08518e-05
1.97129e-05
1.53025e-05
1.38284e-05
1.82911e-05
2.01459e-05
1.08311e-05
2.03715e-06
3.39206e-07
1.70507e-07
1.66029e-07
3.37509e-07
1.88678e-06
8.25958e-06
3.39328e-05
9.24552e-05
0.000186987
0.000395044
0.00113773
0.0024254
0.00326902
0.00407265
0.00597465
0.00815613
0.0103686
0.012269
0.00167017
0.00167647
0.00167873
0.00161005
0.00141031
0.00111719
0.000849978
0.000688978
0.000616665
0.000614814
0.0006606
0.000767152
0.000931975
0.00107959
0.00109442
0.000965929
0.000718258
0.000586263
0.000555219
0.000508266
0.000398648
0.000354723
0.000416859
0.000427595
0.000246274
5.30732e-05
8.90336e-06
3.73323e-06
2.94335e-06
4.30377e-06
1.95041e-05
8.84154e-05
0.000168747
0.000219246
0.000263986
0.000412382
0.000884782
0.0014618
0.00173413
0.00149273
0.00152131
0.00308649
0.0060743
0.00756023
0.00583353
0.00598533
0.00616031
0.00616391
0.00586183
0.00513809
0.00426429
0.00374956
0.00358062
0.00369407
0.0041445
0.00490148
0.00585388
0.00669691
0.00704668
0.00687321
0.00613826
0.00559356
0.00538037
0.00503389
0.00443109
0.00438114
0.00489949
0.0048878
0.00323651
0.000933487
0.000170665
6.49783e-05
4.4537e-05
4.63305e-05
8.2186e-05
0.000132468
0.00011409
0.00017749
0.000236413
0.000228594
0.000317785
0.000650309
0.00140404
0.00285379
0.00380232
0.00440546
0.00466833
0.0165968
0.00943492
0.00947938
0.00967334
0.00995735
0.0101472
0.0101852
0.00997996
0.00957053
0.0095037
0.00984738
0.0107619
0.0121089
0.0136622
0.0153159
0.0169982
0.0184522
0.0192684
0.019637
0.0201179
0.0198517
0.0199786
0.0221994
0.0258804
0.0270161
0.0226931
0.0105622
0.00292514
0.00119042
0.00081678
0.000836884
0.00120073
0.00164607
0.00117136
0.00122823
0.00308405
0.00461465
0.00443212
0.00423278
0.00493704
0.00748177
0.00834888
0.00646777
0.00406609
0.0174949
0.00994606
0.00935406
0.00890811
0.00867092
0.00874687
0.00922066
0.00949253
0.0093783
0.00943823
0.00985535
0.0109313
0.0127189
0.0147598
0.0171037
0.0200897
0.0232479
0.0265721
0.0295092
0.0314485
0.033077
0.0352286
0.0388194
0.0426
0.046707
0.0524394
0.0519192
0.0321584
0.0173968
0.0142304
0.016618
0.0238579
0.0328389
0.0390661
0.0519121
0.0672296
0.0734935
0.0748179
0.0699228
0.0614979
0.0473233
0.0269903
0.0156831
0.011411
0.0289985
0.0095186
0.0080775
0.00626222
0.00542053
0.00512908
0.0048245
0.00461885
0.0045985
0.00446454
0.00393967
0.00274208
0.00110385
0.000787892
0.00394814
0.0118932
0.0195325
0.0231559
0.0250254
0.0263115
0.02663
0.0264503
0.0263491
0.0275838
0.0328334
0.0478414
0.0796059
0.102311
0.0958062
0.0907483
0.111468
0.1512
0.199834
0.149768
0.104047
0.085951
0.0847991
0.0840085
0.0827071
0.0812138
0.0790853
0.0714443
0.0627526
0.0490719
0.0739587
0.000923201
0.000903714
0.00120046
0.00228676
0.00442828
0.00607984
0.00641692
0.00614523
0.00537544
0.00428814
0.00296538
0.00186608
0.000937345
0.000271296
0.00161954
0.0108612
0.0227647
0.0252228
0.0249742
0.0221393
0.0168563
0.0101862
0.00561314
0.00597741
0.00654624
0.0146038
0.0494761
0.0993935
0.13664
0.176865
0.322821
0.360339
0.330194
0.265135
0.214734
0.176964
0.141825
0.105486
0.0757366
0.0637985
0.0602909
0.0607156
0.06641
0.0855369
0.00395203
0.00507896
0.0077841
0.0108809
0.0107362
0.00789278
0.00626248
0.00628363
0.00734472
0.00995486
0.0136571
0.0187425
0.0255543
0.0272459
0.0291534
0.0320925
0.0294793
0.0163033
0.00924303
0.00891158
0.0106949
0.0144503
0.021204
0.0285129
0.0183066
0.00130359
0.000446241
0.0119795
0.035007
0.0301154
0.02963
0.0678867
0.11922
0.21897
0.309155
0.324431
0.31506
0.29046
0.247968
0.194994
0.163692
0.164675
0.180063
0.216102
0.192054
0.274459
0.387997
0.518751
0.646496
0.6986
0.67357
0.588843
0.467676
0.335359
0.267387
0.203082
0.110237
0.0541473
0.0312579
0.0185305
0.0105456
0.00823314
0.007863
0.00769295
0.00987179
0.0214474
0.0655333
0.155622
0.193617
0.126553
0.0226778
0.00517745
0.00504148
0.00463487
0.0226106
0.0904222
0.233705
0.357481
0.426124
0.45576
0.455269
0.445123
0.418152
0.373371
0.328915
0.327898
0.343039
0.38122
0.64062
0.995769
1.33695
1.54306
1.61196
1.58131
1.45142
1.23162
0.951546
0.62691
0.344615
0.202731
0.110807
0.0589211
0.0332552
0.0250771
0.0220929
0.0353623
0.085129
0.0982904
0.0884427
0.0616772
0.0482632
0.067209
0.133368
0.192572
0.134907
0.0662854
0.0665926
0.0843927
0.132257
0.259771
0.387626
0.455786
0.507204
0.553627
0.584609
0.591952
0.581491
0.554689
0.512177
0.503008
0.515134
0.548131
1.00701
1.51434
1.86208
2.048
2.10677
2.08638
1.9713
1.73607
1.39465
0.995082
0.618702
0.352955
0.170152
0.079323
0.0608132
0.0689183
0.0885961
0.115746
0.161578
0.211904
0.228744
0.219704
0.168672
0.0975458
0.0858161
0.0901685
0.0920795
0.118926
0.167084
0.222122
0.290436
0.369884
0.43829
0.497004
0.552445
0.608286
0.669593
0.718304
0.722007
0.711056
0.684155
0.673988
0.681948
0.702749
1.45105
1.96099
2.24074
2.3996
2.46297
2.44681
2.33315
2.08019
1.69531
1.23798
0.783353
0.436408
0.23789
0.177371
0.187266
0.240621
0.317094
0.381573
0.38424
0.383682
0.374253
0.333063
0.240979
0.140028
0.097199
0.0974777
0.123645
0.179287
0.227421
0.26912
0.320079
0.378277
0.440715
0.50972
0.582971
0.658343
0.740555
0.817474
0.846001
0.845766
0.83443
0.825434
0.827702
0.8348
1.83531
2.27773
2.49798
2.63962
2.73011
2.73355
2.63404
2.37446
1.94758
1.41952
0.879229
0.515058
0.370595
0.366001
0.42743
0.549043
0.674974
0.758163
0.760637
0.663958
0.557792
0.446536
0.281097
0.135893
0.0998254
0.111325
0.156918
0.207391
0.236883
0.267657
0.306478
0.355917
0.425829
0.51696
0.610132
0.698205
0.79191
0.881157
0.92951
0.943035
0.942215
0.940055
0.937432
0.929436
2.14203
2.51499
2.68785
2.81646
2.9291
2.95924
2.88442
2.64032
2.19291
1.59887
1.02432
0.729079
0.665233
0.693896
0.794756
0.941399
1.0622
1.12713
1.12475
1.01159
0.790537
0.575232
0.341345
0.161612
0.117847
0.136289
0.19238
0.22195
0.226129
0.233514
0.257101
0.306945
0.394522
0.515173
0.625618
0.724678
0.828018
0.920375
0.97751
1.00109
1.0083
1.00843
1.00055
0.975861
2.37703
2.68519
2.81414
2.93924
3.08281
3.15613
3.12622
2.93151
2.50139
1.8865
1.36773
1.16299
1.13256
1.16508
1.25021
1.35585
1.42434
1.45236
1.4237
1.29178
1.05833
0.749745
0.397478
0.184313
0.142104
0.167916
0.211974
0.209962
0.187721
0.182954
0.201539
0.25901
0.364203
0.508231
0.632435
0.737776
0.846988
0.937299
0.996216
1.02419
1.03369
1.03076
1.0123
0.9709
2.55706
2.81664
2.91478
3.03304
3.1966
3.31435
3.35034
3.23095
2.87238
2.33945
1.94783
1.78538
1.72775
1.71238
1.7267
1.75182
1.7581
1.74515
1.68044
1.52785
1.25232
0.856392
0.448149
0.213701
0.17112
0.199156
0.216195
0.18948
0.140289
0.130009
0.147172
0.205039
0.315912
0.473078
0.623238
0.739221
0.848436
0.935177
0.99297
1.02095
1.02725
1.01879
0.989621
0.919836
2.70081
2.91054
2.98139
3.09963
3.27989
3.44132
3.57796
3.56135
3.30525
2.91058
2.63368
2.46381
2.34548
2.25369
2.17849
2.11832
2.0631
1.99914
1.89023
1.70197
1.38776
0.906683
0.47518
0.247942
0.203087
0.220698
0.214607
0.155829
0.0935936
0.0845407
0.100661
0.153346
0.260674
0.422788
0.595582
0.726089
0.833447
0.915856
0.969827
0.994318
0.995931
0.980575
0.932438
0.798719
2.824
2.98792
3.02827
3.1403
3.32541
3.53329
3.78132
3.90816
3.75845
3.50593
3.3189
3.13311
2.94269
2.75096
2.58244
2.44551
2.32876
2.20908
2.0558
1.83538
1.4795
0.917381
0.455737
0.266019
0.23527
0.238338
0.206332
0.116668
0.0578259
0.0500604
0.0631599
0.105491
0.196945
0.356372
0.545031
0.696161
0.806368
0.883976
0.93172
0.949727
0.947374
0.92012
0.823777
0.578024
2.93479
3.05364
3.05967
3.16329
3.35336
3.6201
3.9953
4.30153
4.24446
4.09073
3.95445
3.75816
3.49453
3.20102
2.93743
2.72684
2.54872
2.37464
2.17868
1.91778
1.51424
0.90174
0.409528
0.257712
0.248922
0.243357
0.185465
0.0788078
0.0320052
0.0266545
0.0355983
0.0658724
0.136547
0.275394
0.472304
0.64238
0.765195
0.842492
0.885749
0.896378
0.883523
0.820887
0.630069
0.289784
3.04252
3.12532
3.08724
3.1769
3.37011
3.70448
4.21192
4.70328
4.73884
4.65282
4.54997
4.33697
3.99675
3.59604
3.23449
2.95572
2.72115
2.49832
2.26186
1.9574
1.49786
0.840384
0.364839
0.252795
0.258258
0.244108
0.158196
0.049643
0.0160446
0.0123038
0.0174243
0.0360796
0.084297
0.190433
0.371276
0.559208
0.697109
0.78178
0.819943
0.819851
0.7784
0.647553
0.354011
0.100108
3.16706
3.21392
3.12205
3.19053
3.40072
3.81149
4.44602
5.11921
5.24847
5.19047
5.11766
4.88066
4.45532
3.93658
3.47797
3.13367
2.84712
2.5802
2.30366
1.94999
1.42679
0.748153
0.357849
0.272387
0.272953
0.238143
0.124001
0.0303027
0.007315
0.00474242
0.0071107
0.0166988
0.0448946
0.115554
0.253085
0.437317
0.586172
0.676123
0.70789
0.691177
0.602285
0.392463
0.131224
0.0272811
3.33195
3.3435
3.17239
3.20849
3.44725
3.93534
4.67955
5.52289
5.74895
5.70755
5.66032
5.39923
4.86921
4.22027
3.6661
3.2625
2.93005
2.62164
2.30362
1.90439
1.32474
0.689219
0.387325
0.316413
0.293093
0.222462
0.088909
0.0180675
0.00320391
0.00149513
0.00227372
0.0061911
0.0196591
0.0587626
0.147166
0.287402
0.430369
0.516914
0.540498
0.496036
0.354728
0.155689
0.0370967
0.00604423
3.55385
3.5313
3.24432
3.24934
3.52081
4.07407
4.90815
5.91535
6.25034
6.16974
6.1708
5.88327
5.24637
4.44465
3.78934
3.33039
2.95977
2.61636
2.26548
1.82933
1.22441
0.693424
0.452892
0.371617
0.305374
0.192436
0.0583392
0.010543
0.00147677
0.000411612
0.000560153
0.00172345
0.0066169
0.0235889
0.0687927
0.151029
0.247965
0.315049
0.319903
0.254767
0.139887
0.046049
0.00833677
0.00112995
3.76949
3.7084
3.31762
3.30348
3.6126
4.22227
5.11815
6.29367
6.75667
6.55622
6.49852
6.23214
5.54006
4.59191
3.8195
3.30942
2.91277
2.55861
2.19662
1.74888
1.17188
0.75473
0.544799
0.423533
0.301515
0.147355
0.0371678
0.00604661
0.000730907
0.00011991
0.000116712
0.000353537
0.00157961
0.00679365
0.0233231
0.0578214
0.102953
0.136617
0.132878
0.0924634
0.0415837
0.0106738
0.00154186
0.000187332
3.84038
3.76786
3.36757
3.36193
3.71839
4.38179
5.32192
6.6759
7.30796
6.85481
6.33631
6.02272
5.54316
4.56294
3.69915
3.18834
2.79806
2.4604
2.11487
1.68494
1.17189
0.863534
0.653266
0.456965
0.271179
0.102046
0.0230038
0.0034221
0.000376995
4.34121e-05
2.52552e-05
6.17028e-05
0.000268094
0.00130548
0.00535214
0.0153727
0.0303539
0.0433075
0.0411081
0.0255783
0.009571
0.001986
0.000249008
2.86873e-05
3.63675
3.63371
3.37409
3.41261
3.82461
4.54608
5.51804
6.97547
7.8221
7.07441
5.86484
5.34638
4.94358
4.18703
3.48
3.03322
2.67239
2.35497
2.0361
1.64817
1.19231
0.866336
0.656627
0.429817
0.214805
0.0685949
0.013822
0.00188252
0.000190892
1.77687e-05
6.22816e-06
1.18652e-05
4.19053e-05
0.000184948
0.000816184
0.00271067
0.00620351
0.00998307
0.00953885
0.00544779
0.00174537
0.000314248
3.69299e-05
4.18218e-06
3.20387
3.38588
3.37136
3.4498
3.92165
4.71571
5.7068
6.84472
7.84922
7.14957
5.41607
4.55584
4.07833
3.66079
3.28291
2.91729
2.56887
2.24532
1.96335
1.61208
1.11382
0.750153
0.534162
0.337591
0.153077
0.0439848
0.00794953
0.000994294
9.34193e-05
7.53279e-06
1.68556e-06
2.57403e-06
7.61072e-06
2.7564e-05
0.000107524
0.000365219
0.000937054
0.00172677
0.00170657
0.000926867
0.000268745
4.48736e-05
5.19182e-06
6.27255e-07
2.73421
3.16746
3.39999
3.47231
3.99554
4.87326
5.77217
6.09289
6.94899
6.95512
5.18279
3.95035
3.49345
3.34214
3.13707
2.81519
2.46478
2.12095
1.82249
1.45034
0.929979
0.572391
0.366387
0.240951
0.106425
0.026985
0.00437638
0.000504008
4.4025e-05
3.19466e-06
5.02793e-07
6.03824e-07
1.5094e-06
4.69052e-06
1.58722e-05
4.98383e-05
0.000128337
0.000252496
0.000256832
0.00013611
3.72105e-05
6.00357e-06
7.37969e-07
1.34143e-07
2.26547
2.92194
3.41318
3.46272
4.03526
5.02966
5.3459
5.21258
5.81489
6.52354
5.21326
3.80839
3.33047
3.21824
3.01816
2.70084
2.34277
1.97468
1.58226
1.14566
0.700414
0.436608
0.310578
0.18909
0.0708597
0.0156955
0.0022811
0.00024153
1.96202e-05
1.32116e-06
1.77955e-07
1.70293e-07
3.31659e-07
8.48194e-07
2.48481e-06
7.20419e-06
1.78658e-05
3.48518e-05
3.52996e-05
1.82652e-05
4.81291e-06
8.01738e-07
1.42922e-07
6.71551e-08
1.73009
2.43547
3.20673
3.38218
4.03352
5.22354
4.84032
4.41491
4.89087
5.88295
5.2764
3.94633
3.37972
3.16596
2.90645
2.57121
2.20018
1.8095
1.34143
0.85356
0.557871
0.412273
0.277692
0.143768
0.0448684
0.00858968
0.0011203
0.000109174
8.25395e-06
5.37512e-07
8.44127e-08
7.28202e-08
1.01049e-07
1.84067e-07
4.19003e-07
1.06661e-06
2.49364e-06
4.66571e-06
4.58926e-06
2.32176e-06
6.2636e-07
1.43602e-07
6.56885e-08
5.76972e-08
1.26044
1.76984
2.62272
3.12281
3.96999
5.43275
4.88742
3.94214
4.17853
5.12418
5.18735
4.05365
3.42424
3.1133
2.79155
2.42595
2.03731
1.63368
1.16806
0.72374
0.527735
0.383918
0.240816
0.101777
0.0265554
0.00439246
0.000516638
4.64636e-05
3.29536e-06
2.25937e-07
5.64291e-08
5.04972e-08
5.51321e-08
6.84467e-08
1.01516e-07
1.87946e-07
3.74208e-07
6.34257e-07
6.01367e-07
3.16927e-07
1.17665e-07
6.32641e-08
5.54342e-08
5.59173e-08
1.03226
1.21031
1.8816
2.69492
3.80452
5.34478
5.08403
3.80122
3.60604
4.30196
4.8882
4.07122
3.42329
3.05385
2.66871
2.26162
1.85109
1.44311
1.01156
0.662696
0.491026
0.34652
0.191778
0.0664033
0.0144716
0.0020843
0.000222566
1.8538e-05
1.25322e-06
1.07803e-07
4.79118e-08
4.52845e-08
4.58102e-08
4.79252e-08
5.27758e-08
6.44748e-08
8.86881e-08
1.18401e-07
1.12293e-07
7.94614e-08
5.83373e-08
5.33519e-08
5.37085e-08
5.51972e-08
1.03434
1.0202
1.40814
2.2772
3.47543
4.61677
4.51245
3.26708
2.93101
3.45394
4.24078
3.92222
3.39703
2.98969
2.53375
2.07008
1.63649
1.23103
0.849633
0.589924
0.436727
0.290056
0.134986
0.0391273
0.00717232
0.000912553
8.91844e-05
6.92107e-06
4.65644e-07
6.55797e-08
4.5312e-08
4.40445e-08
4.39112e-08
4.42263e-08
4.52075e-08
4.72958e-08
5.10227e-08
5.50367e-08
5.50646e-08
5.24231e-08
5.13299e-08
5.18422e-08
5.31334e-08
5.4635e-08
1.06295
0.994575
1.27952
2.02617
3.00006
3.54043
3.39764
2.41369
2.11298
2.49117
3.1679
3.49623
3.3036
2.9141
2.37476
1.83806
1.39323
1.00727
0.693665
0.502543
0.363816
0.219904
0.0847574
0.0205924
0.00321564
0.000367678
3.31743e-05
2.42882e-06
1.82514e-07
5.13522e-08
4.4589e-08
4.38098e-08
4.35342e-08
4.36359e-08
4.40244e-08
4.48956e-08
4.61092e-08
4.74555e-08
4.84818e-08
4.9265e-08
5.0291e-08
5.13723e-08
5.27162e-08
5.40938e-08
1.06125
1.04356
1.29326
1.91859
2.60465
2.62659
2.37114
1.75494
1.48091
1.67306
2.15898
2.78286
2.85593
2.60527
2.10054
1.56945
1.14421
0.80423
0.559472
0.410401
0.281285
0.145398
0.0475076
0.00958765
0.00130484
0.000136423
1.14745e-05
8.16939e-07
8.75317e-08
4.68283e-08
4.43456e-08
4.37666e-08
4.35251e-08
4.35552e-08
4.39041e-08
4.45799e-08
4.54493e-08
4.65051e-08
4.7623e-08
4.87633e-08
4.99267e-08
5.10358e-08
5.23325e-08
5.35821e-08
1.04412
1.08495
1.32911
1.88458
2.42999
2.26491
1.88661
1.42931
1.4026
1.49218
1.70278
2.11748
2.21426
2.06642
1.71925
1.30073
0.927447
0.639428
0.446287
0.318409
0.195937
0.0857986
0.0233668
0.00395426
0.000482621
4.68184e-05
3.7178e-06
2.79798e-07
5.77083e-08
4.54254e-08
4.42751e-08
4.37867e-08
4.35658e-08
4.36201e-08
4.39458e-08
4.45514e-08
4.53606e-08
4.6327e-08
4.74113e-08
4.8552e-08
4.9674e-08
5.07387e-08
5.19736e-08
5.30541e-08
1.01661
1.11588
1.36875
1.8866
2.36479
2.2636
1.8186
1.35044
1.30817
1.3838
1.58743
1.77031
1.75205
1.61109
1.38763
1.07436
0.74872
0.506437
0.347743
0.229961
0.122914
0.04495
0.0100084
0.00146304
0.000164266
1.49612e-05
1.15038e-06
1.12924e-07
4.88881e-08
4.50056e-08
4.42699e-08
4.38439e-08
4.36467e-08
4.36993e-08
4.40082e-08
4.45853e-08
4.53429e-08
4.62542e-08
4.72837e-08
4.83836e-08
4.94326e-08
5.04533e-08
5.16258e-08
5.2553e-08
0.981099
1.13366
1.40146
1.8952
2.32565
2.20286
1.74389
1.29763
1.25277
1.33099
1.51253
1.59231
1.51499
1.36633
1.16793
0.889638
0.601447
0.395615
0.258039
0.151883
0.0688505
0.0204839
0.00376524
0.000494466
5.19846e-05
4.4992e-06
3.59228e-07
6.42932e-08
4.63982e-08
4.48891e-08
4.43002e-08
4.39129e-08
4.37393e-08
4.37975e-08
4.40927e-08
4.46314e-08
4.53436e-08
4.62084e-08
4.71646e-08
4.82256e-08
4.92291e-08
5.01867e-08
5.12845e-08
5.20559e-08
0.936515
1.13578
1.42236
1.89816
2.25234
2.08935
1.63018
1.23702
1.19142
1.26629
1.42341
1.46843
1.38419
1.22221
1.00637
0.732418
0.476071
0.299104
0.177923
0.0904108
0.03373
0.00805271
0.00127265
0.000155
1.54336e-05
1.29906e-06
1.30659e-07
5.08742e-08
4.57085e-08
4.48588e-08
4.43427e-08
4.3989e-08
4.38346e-08
4.38928e-08
4.41774e-08
4.46859e-08
4.53519e-08
4.61763e-08
4.70822e-08
4.80915e-08
4.90232e-08
4.99472e-08
5.09576e-08
5.15844e-08
0.880853
1.12306
1.43133
1.88594
2.1117
1.97129
1.51615
1.16297
1.12541
1.19762
1.33046
1.35334
1.26928
1.09686
0.863957
0.594966
0.368431
0.214519
0.111886
0.0474921
0.0141589
0.00277595
0.000396412
4.56275e-05
4.35039e-06
3.81231e-07
6.83167e-08
4.73125e-08
4.55061e-08
4.48542e-08
4.43833e-08
4.40654e-08
4.3932e-08
4.39942e-08
4.42645e-08
4.47442e-08
4.53722e-08
4.61531e-08
4.70009e-08
4.79663e-08
4.88513e-08
4.9718e-08
5.06258e-08
5.11265e-08
0.815888
1.09675
1.4294
1.86381
2.00371
1.88954
1.42098
1.08761
1.0564
1.12716
1.23766
1.24518
1.15851
0.976273
0.733289
0.473606
0.272612
0.141781
0.0625649
0.021423
0.00510238
0.000868066
0.000115989
1.2739e-05
1.191e-06
1.32484e-07
5.20966e-08
4.63628e-08
4.54305e-08
4.48594e-08
4.44273e-08
4.41425e-08
4.40265e-08
4.40949e-08
4.43549e-08
4.48061e-08
4.53986e-08
4.61366e-08
4.69401e-08
4.78515e-08
4.86948e-08
4.94999e-08
5.03097e-08
5.07309e-08
0.745461
1.06016
1.4188
1.83617
1.97177
1.84609
1.34722
1.01517
0.98684
1.05571
1.1463
1.14094
1.04752
0.858685
0.608825
0.360393
0.185823
0.0834718
0.030255
0.00820664
0.00163137
0.000253783
3.2253e-05
3.41496e-06
3.38464e-07
6.83128e-08
4.79881e-08
4.60756e-08
4.53899e-08
4.48701e-08
4.44779e-08
4.42198e-08
4.41204e-08
4.41926e-08
4.44463e-08
4.48709e-08
4.54327e-08
4.61234e-08
4.68835e-08
4.77526e-08
4.85466e-08
4.92793e-08
5.00017e-08
5.03485e-08
0.673334
1.01583
1.40009
1.80688
1.95444
1.80171
1.28091