/*--------------------------------*- C++ -*----------------------------------*\
| =========                 |                                                 |
| \\      /  F ield         | OpenFOAM: The Open Source CFD Toolbox           |
|  \\    /   O peration     | Version:  v1912                                 |
|   \\  /    A nd           | Website:  www.openfoam.com                      |
|    \\/     M anipulation  |                                                 |
\*---------------------------------------------------------------------------*/
FoamFile
{
    version     2.0;
    format      ascii;
    class       volScalarField;
    location    "90";
    object      nut;
}
// * * * * * * * * * * * * * * * * * * * * * * * * * * * * * * * * * * * * * //

dimensions      [0 2 -1 0 0 0 0];


internalField   nonuniform List<scalar> 
14268
(
8.0785e-11
8.41937e-11
8.61062e-11
8.54902e-11
8.14988e-11
7.63153e-11
7.43679e-11
7.56548e-11
7.72926e-11
7.80744e-11
7.87618e-11
8.00293e-11
8.28027e-11
8.58112e-11
8.5201e-11
8.03049e-11
7.28754e-11
7.03227e-11
7.27668e-11
7.39119e-11
7.3399e-11
7.62878e-11
8.5667e-11
9.17388e-11
8.66472e-11
7.21592e-11
6.42244e-11
6.80055e-11
8.28295e-11
1.27296e-10
2.32171e-10
3.71895e-10
4.47644e-10
5.69252e-10
8.0314e-10
1.20352e-09
1.78809e-09
3.01982e-09
5.04202e-09
7.35014e-08
4.82875e-06
1.24203e-05
1.958e-05
2.43976e-05
3.42115e-09
3.45128e-09
3.43524e-09
3.33439e-09
3.12137e-09
2.87421e-09
2.69615e-09
2.6112e-09
2.60625e-09
2.67968e-09
2.80496e-09
2.91275e-09
2.97713e-09
2.97946e-09
2.89786e-09
2.72963e-09
2.50521e-09
2.34997e-09
2.28331e-09
2.25116e-09
2.26801e-09
2.35507e-09
2.46055e-09
2.47175e-09
2.31402e-09
2.03974e-09
1.89546e-09
2.01431e-09
2.63728e-09
4.89013e-09
1.16968e-08
2.39623e-08
3.63712e-08
5.27876e-08
7.14781e-08
9.16953e-08
1.14802e-07
1.54344e-07
2.09242e-07
1.09908e-05
0.000117519
0.000188507
0.000233183
0.000267647
2.72438e-08
2.74841e-08
2.73616e-08
2.65561e-08
2.49253e-08
2.30304e-08
2.1632e-08
2.08927e-08
2.07916e-08
2.13434e-08
2.2285e-08
2.30792e-08
2.35687e-08
2.36558e-08
2.31837e-08
2.20034e-08
2.032e-08
1.90611e-08
1.84865e-08
1.82279e-08
1.84393e-08
1.92312e-08
1.98376e-08
1.9758e-08
1.84255e-08
1.62205e-08
1.5131e-08
1.60369e-08
2.15437e-08
4.15372e-08
9.32217e-08
1.55397e-07
1.98011e-07
2.36131e-07
2.69046e-07
2.99581e-07
3.30125e-07
3.70244e-07
5.22397e-07
7.74493e-05
0.00038842
0.00054982
0.000629008
0.000685617
9.38549e-08
9.45629e-08
9.43818e-08
9.25427e-08
8.85212e-08
8.34357e-08
7.93521e-08
7.71476e-08
7.70812e-08
7.93805e-08
8.30917e-08
8.61218e-08
8.77689e-08
8.79882e-08
8.68343e-08
8.38613e-08
7.92504e-08
7.52372e-08
7.30943e-08
7.22012e-08
7.32797e-08
7.65943e-08
7.85674e-08
7.8233e-08
7.38375e-08
6.60081e-08
6.16451e-08
6.47655e-08
8.38558e-08
1.36762e-07
2.0808e-07
2.57905e-07
2.86018e-07
3.09374e-07
3.30007e-07
3.50257e-07
3.71521e-07
3.98316e-07
1.26915e-06
0.000183965
0.000681618
0.000966322
0.00112383
0.00119275
1.75624e-07
1.76302e-07
1.76117e-07
1.74401e-07
1.70543e-07
1.6546e-07
1.61057e-07
1.5848e-07
1.5842e-07
1.61355e-07
1.66018e-07
1.69679e-07
1.71623e-07
1.72045e-07
1.71183e-07
1.68481e-07
1.63858e-07
1.59281e-07
1.56571e-07
1.55546e-07
1.57181e-07
1.61469e-07
1.63261e-07
1.6263e-07
1.57881e-07
1.49166e-07
1.43984e-07
1.48332e-07
1.72314e-07
2.20372e-07
2.59936e-07
2.86478e-07
3.0347e-07
3.2037e-07
3.36872e-07
3.54709e-07
3.7413e-07
3.97359e-07
5.61878e-06
0.000307997
0.000937145
0.00136234
0.00162924
0.00174397
2.30989e-07
2.31404e-07
2.31413e-07
2.3053e-07
2.28359e-07
2.25127e-07
2.22021e-07
2.20227e-07
2.20417e-07
2.22939e-07
2.26596e-07
2.29258e-07
2.30456e-07
2.3063e-07
2.3029e-07
2.2927e-07
2.27082e-07
2.24065e-07
2.21909e-07
2.21325e-07
2.23023e-07
2.26512e-07
2.27161e-07
2.26447e-07
2.23856e-07
2.18951e-07
2.15522e-07
2.1898e-07
2.36229e-07
2.60956e-07
2.76432e-07
2.92114e-07
3.06059e-07
3.21265e-07
3.37258e-07
3.5449e-07
3.7347e-07
4.07602e-07
2.26864e-05
0.000439515
0.00114836
0.00170933
0.00210628
0.00229575
2.59925e-07
2.59849e-07
2.59684e-07
2.59471e-07
2.59038e-07
2.58286e-07
2.57081e-07
2.55976e-07
2.55873e-07
2.57234e-07
2.59431e-07
2.61102e-07
2.61875e-07
2.61787e-07
2.61776e-07
2.62095e-07
2.61927e-07
2.60814e-07
2.59521e-07
2.59254e-07
2.60427e-07
2.62193e-07
2.61802e-07
2.61662e-07
2.61657e-07
2.60831e-07
2.5963e-07
2.61374e-07
2.69724e-07
2.77572e-07
2.81662e-07
2.92581e-07
3.06063e-07
3.21374e-07
3.36758e-07
3.53366e-07
3.72553e-07
4.61258e-07
6.18412e-05
0.00056911
0.00132558
0.0020055
0.00254098
0.00283415
2.71376e-07
2.71233e-07
2.7117e-07
2.71461e-07
2.71985e-07
2.72334e-07
2.72287e-07
2.72096e-07
2.72301e-07
2.73073e-07
2.74148e-07
2.74737e-07
2.74696e-07
2.74773e-07
2.7534e-07
2.76784e-07
2.78014e-07
2.78055e-07
2.77356e-07
2.77272e-07
2.78173e-07
2.79171e-07
2.78479e-07
2.78289e-07
2.7944e-07
2.81819e-07
2.8295e-07
2.83583e-07
2.85249e-07
2.8364e-07
2.83273e-07
2.92593e-07
3.0598e-07
3.20821e-07
3.35622e-07
3.51963e-07
3.72467e-07
6.25851e-07
0.000119999
0.000691037
0.00147867
0.00225691
0.0029292
0.00333934
2.76835e-07
2.76481e-07
2.76331e-07
2.76752e-07
2.77793e-07
2.79012e-07
2.79739e-07
2.79787e-07
2.79814e-07
2.80086e-07
2.80616e-07
2.81017e-07
2.81115e-07
2.81036e-07
2.81725e-07
2.83666e-07
2.85386e-07
2.8591e-07
2.85858e-07
2.86228e-07
2.87051e-07
2.87021e-07
2.85576e-07
2.85129e-07
2.87188e-07
2.91517e-07
2.93619e-07
2.9343e-07
2.91204e-07
2.8603e-07
2.83639e-07
2.92089e-07
3.05368e-07
3.19799e-07
3.34125e-07
3.51043e-07
3.83478e-07
1.16639e-06
0.000188172
0.000803358
0.00161507
0.00247416
0.0032735
0.00380598
2.78821e-07
2.78525e-07
2.78384e-07
2.7888e-07
2.80009e-07
2.81374e-07
2.82274e-07
2.82643e-07
2.82847e-07
2.83173e-07
2.83406e-07
2.83229e-07
2.82842e-07
2.82709e-07
2.83576e-07
2.8578e-07
2.88031e-07
2.88821e-07
2.88793e-07
2.89069e-07
2.90015e-07
2.90287e-07
2.88638e-07
2.88281e-07
2.91123e-07
2.96224e-07
2.98615e-07
2.98194e-07
2.94122e-07
2.86832e-07
2.83957e-07
2.92135e-07
3.04977e-07
3.19003e-07
3.32638e-07
3.52246e-07
4.20067e-07
2.85437e-06
0.000260097
0.000906578
0.00173967
0.00266539
0.00357766
0.00423193
2.79309e-07
2.78888e-07
2.78795e-07
2.79423e-07
2.808e-07
2.82455e-07
2.83539e-07
2.83981e-07
2.8417e-07
2.84243e-07
2.84405e-07
2.84463e-07
2.8404e-07
2.83843e-07
2.84614e-07
2.86911e-07
2.89479e-07
2.90627e-07
2.90735e-07
2.90949e-07
2.91702e-07
2.91206e-07
2.89623e-07
2.89467e-07
2.92305e-07
2.97704e-07
3.00595e-07
2.99992e-07
2.94964e-07
2.8686e-07
2.83483e-07
2.91521e-07
3.03805e-07
3.17335e-07
3.3164e-07
3.64371e-07
4.99244e-07
7.5079e-06
0.000331283
0.00100185
0.00185559
0.00283716
0.00384772
0.00462031
2.79799e-07
2.79485e-07
2.79342e-07
2.79855e-07
2.81136e-07
2.8276e-07
2.83851e-07
2.84254e-07
2.84322e-07
2.84247e-07
2.84211e-07
2.84116e-07
2.83903e-07
2.83849e-07
2.84649e-07
2.86974e-07
2.89525e-07
2.90549e-07
2.908e-07
2.91207e-07
2.92025e-07
2.91883e-07
2.90001e-07
2.89649e-07
2.92596e-07
2.98756e-07
3.01993e-07
3.00903e-07
2.95153e-07
2.86802e-07
2.83466e-07
2.91378e-07
3.03322e-07
3.16689e-07
3.34045e-07
3.91942e-07
6.78416e-07
1.78443e-05
0.000399105
0.00109088
0.0019647
0.00299377
0.00408806
0.00497254
2.79501e-07
2.79149e-07
2.79045e-07
2.79687e-07
2.81158e-07
2.82897e-07
2.84049e-07
2.84537e-07
2.84696e-07
2.84804e-07
2.84914e-07
2.84805e-07
2.84438e-07
2.84287e-07
2.85192e-07
2.8753e-07
2.90169e-07
2.91375e-07
2.91436e-07
2.91692e-07
2.9248e-07
2.92286e-07
2.90685e-07
2.90148e-07
2.9308e-07
2.99023e-07
3.02107e-07
3.01252e-07
2.95409e-07
2.8691e-07
2.83277e-07
2.90444e-07
3.01771e-07
3.15644e-07
3.43549e-07
4.4731e-07
1.076e-06
3.58227e-05
0.000463217
0.00117458
0.0020679
0.00313838
0.00430339
0.00529297
2.7964e-07
2.79035e-07
2.78857e-07
2.79464e-07
2.80878e-07
2.82699e-07
2.83964e-07
2.84492e-07
2.84636e-07
2.84568e-07
2.84321e-07
2.83963e-07
2.83539e-07
2.83486e-07
2.84476e-07
2.86857e-07
2.89308e-07
2.90395e-07
2.90767e-07
2.91105e-07
2.91852e-07
2.91227e-07
2.89469e-07
2.89259e-07
2.92446e-07
2.98407e-07
3.01697e-07
3.01085e-07
2.95447e-07
2.86967e-07
2.83058e-07
2.89378e-07
3.0118e-07
3.17416e-07
3.65328e-07
5.58081e-07
1.92484e-06
6.11492e-05
0.000525192
0.00125318
0.00216538
0.00327303
0.00449676
0.00558417
2.79533e-07
2.79269e-07
2.79169e-07
2.7974e-07
2.8106e-07
2.82735e-07
2.83905e-07
2.84418e-07
2.84545e-07
2.84584e-07
2.84767e-07
2.84818e-07
2.84503e-07
2.84303e-07
2.85013e-07
2.87292e-07
2.89941e-07
2.91018e-07
2.91206e-07
2.91556e-07
2.92453e-07
2.92355e-07
2.90543e-07
2.90274e-07
2.93259e-07
2.99193e-07
3.0213e-07
3.00958e-07
2.94858e-07
2.8594e-07
2.81949e-07
2.87584e-07
2.99816e-07
3.22857e-07
4.2284e-07
8.81508e-07
4.46806e-06
0.000105196
0.000614628
0.00136259
0.00230001
0.00345822
0.00475566
0.00598029
2.80193e-07
2.79615e-07
2.79371e-07
2.79835e-07
2.81135e-07
2.82831e-07
2.8397e-07
2.84441e-07
2.84629e-07
2.84674e-07
2.84573e-07
2.84233e-07
2.8378e-07
2.83652e-07
2.84594e-07
2.87024e-07
2.89544e-07
2.90679e-07
2.90854e-07
2.91088e-07
2.91722e-07
2.91273e-07
2.89563e-07
2.89281e-07
2.92281e-07
2.98144e-07
3.01525e-07
3.00865e-07
2.95159e-07
2.86233e-07
2.81418e-07
2.87047e-07
3.03047e-07
3.50133e-07
6.20648e-07
1.95582e-06
1.20368e-05
0.000180079
0.000731938
0.00150152
0.00246327
0.00367899
0.00504635
0.00642239
2.78981e-07
2.78755e-07
2.78724e-07
2.79301e-07
2.80534e-07
2.82125e-07
2.83365e-07
2.83988e-07
2.84166e-07
2.84141e-07
2.84038e-07
2.83856e-07
2.83432e-07
2.83268e-07
2.84093e-07
2.86455e-07
2.89251e-07
2.90421e-07
2.90678e-07
2.91112e-07
2.92087e-07
2.92004e-07
2.9018e-07
2.89694e-07
2.92787e-07
2.99127e-07
3.0221e-07
3.01105e-07
2.95137e-07
2.85771e-07
2.80463e-07
2.87997e-07
3.1637e-07
4.29048e-07
1.15238e-06
4.76768e-06
2.80174e-05
0.000266568
0.000851231
0.00163674
0.00261185
0.00387094
0.0052921
0.0067925
2.84282e-07
2.84171e-07
2.84187e-07
2.83939e-07
2.83598e-07
2.83964e-07
2.84424e-07
2.84687e-07
2.8471e-07
2.84624e-07
2.84608e-07
2.84566e-07
2.84478e-07
2.84556e-07
2.85279e-07
2.87167e-07
2.89387e-07
2.90505e-07
2.90771e-07
2.91093e-07
2.91891e-07
2.91121e-07
2.89138e-07
2.88774e-07
2.91827e-07
2.9763e-07
3.00771e-07
2.99945e-07
2.93986e-07
2.84661e-07
2.80098e-07
2.94971e-07
3.57741e-07
6.42237e-07
2.38921e-06
1.05271e-05
5.46972e-05
0.000358261
0.000978248
0.00177204
0.00274878
0.00403742
0.00549932
0.00709593
3.09431e-07
3.13831e-07
3.16084e-07
3.11271e-07
2.98982e-07
2.91023e-07
2.88595e-07
2.88039e-07
2.87675e-07
2.87411e-07
2.87224e-07
2.8739e-07
2.88115e-07
2.8953e-07
2.89284e-07
2.88651e-07
2.89265e-07
2.89798e-07
2.9009e-07
2.90417e-07
2.91085e-07
2.91155e-07
2.89935e-07
2.89601e-07
2.92094e-07
2.98073e-07
3.01334e-07
3.00484e-07
2.94549e-07
2.84107e-07
2.80768e-07
3.15974e-07
4.59059e-07
1.15163e-06
4.93383e-06
2.06847e-05
8.99087e-05
0.000451916
0.00110433
0.00188825
0.00286357
0.00417763
0.00566927
0.00733992
4.95729e-07
5.33797e-07
5.54439e-07
5.21041e-07
4.24017e-07
3.48644e-07
3.2169e-07
3.13987e-07
3.1147e-07
3.12594e-07
3.1718e-07
3.25823e-07
3.40676e-07
3.54713e-07
3.47645e-07
3.20171e-07
3.01045e-07
2.9623e-07
2.95687e-07
2.95803e-07
2.9701e-07
2.98167e-07
2.99424e-07
3.00145e-07
2.97224e-07
2.99026e-07
3.01582e-07
3.00439e-07
2.9423e-07
2.82531e-07
2.84535e-07
3.63391e-07
6.98959e-07
2.29361e-06
9.62602e-06
3.56951e-05
0.000131697
0.000546432
0.00120818
0.00196469
0.00293257
0.00427625
0.00579386
0.00753261
1.73254e-06
1.95108e-06
2.05663e-06
1.86243e-06
1.28342e-06
7.432e-07
5.11522e-07
4.53733e-07
4.40663e-07
4.52043e-07
4.88758e-07
5.53085e-07
6.5674e-07
7.50902e-07
7.14715e-07
5.37988e-07
3.80643e-07
3.32426e-07
3.27984e-07
3.26613e-07
3.26258e-07
3.31645e-07
3.53091e-07
3.63916e-07
3.26685e-07
3.00874e-07
2.99858e-07
2.98616e-07
2.92139e-07
2.81447e-07
2.95987e-07
4.70003e-07
1.23037e-06
4.62537e-06
1.75177e-05
5.63538e-05
0.00018368
0.000644184
0.00128883
0.00200616
0.00295806
0.00433121
0.00587854
0.00769598
4.90003e-05
5.10758e-05
5.17045e-05
4.70224e-05
3.46751e-05
2.1299e-05
1.43125e-05
1.16812e-05
1.01612e-05
9.25264e-06
9.28741e-06
1.00521e-05
1.24796e-05
1.54806e-05
1.49286e-05
1.02971e-05
4.78308e-06
2.94851e-06
2.97866e-06
2.938e-06
2.48045e-06
2.29197e-06
3.06021e-06
3.47985e-06
1.94642e-06
5.65691e-07
3.24829e-07
3.0151e-07
2.98229e-07
3.45548e-07
1.00688e-06
3.38928e-06
1.10502e-05
3.20494e-05
8.41265e-05
0.000199475
0.000512951
0.00119001
0.00178185
0.00222921
0.00309053
0.0046082
0.00644385
0.00845516
0.000890256
0.000882826
0.000873849
0.000817726
0.000676274
0.00048281
0.000341271
0.000270816
0.000234423
0.000224588
0.000232211
0.000259952
0.000319284
0.000383315
0.000383758
0.000307089
0.000177199
0.000116579
0.000112261
0.000106587
8.4371e-05
7.56388e-05
9.62074e-05
0.000103619
5.65569e-05
1.1113e-05
1.89317e-06
9.49326e-07
9.09046e-07
1.73025e-06
8.2206e-06
2.87219e-05
9.68534e-05
0.000202067
0.000330923
0.000586485
0.0012612
0.00201218
0.00228271
0.00246892
0.00317399
0.00399972
0.00478957
0.00533073
0.00424252
0.00420606
0.00419359
0.00410212
0.00381471
0.00328492
0.00265416
0.00222357
0.00202696
0.00203008
0.00216593
0.00246437
0.0029046
0.00332194
0.00344988
0.00326343
0.00263952
0.0022237
0.00212543
0.00198251
0.00162642
0.00143883
0.00160388
0.00161013
0.000983397
0.000234669
4.08699e-05
1.6989e-05
1.29054e-05
1.69252e-05
5.9889e-05
0.000203663
0.000335212
0.000414145
0.000493358
0.000685773
0.00108564
0.00126055
0.00121457
0.000962877
0.000793633
0.0015099
0.00313314
0.00367902
0.00740487
0.00741858
0.00751459
0.00757801
0.0075962
0.00728711
0.00650242
0.00594126
0.00573079
0.0058103
0.00625498
0.00704096
0.00804306
0.00899439
0.00960492
0.00996587
0.00974338
0.00936082
0.00927018
0.00900838
0.00837319
0.00818856
0.00860644
0.00854253
0.00668052
0.00265739
0.00057761
0.000221796
0.000143707
0.000127785
0.000172114
0.000211325
0.000157226
0.000264371
0.000351369
0.000322565
0.000407143
0.00072846
0.00113186
0.00147939
0.00164603
0.00173426
0.00188833
0.0044744
0.00637265
0.00614873
0.00608465
0.00626133
0.00667323
0.00733315
0.00769602
0.00756834
0.00748938
0.00749051
0.00773715
0.00825657
0.00896664
0.00984274
0.0109317
0.0121486
0.0132777
0.0140487
0.0144886
0.0143985
0.0143603
0.0149796
0.0159341
0.0163044
0.0157488
0.0105586
0.00412485
0.00189122
0.00126119
0.00104445
0.00106043
0.00109162
0.000585667
0.00053725
0.00127606
0.00191587
0.00184405
0.0016816
0.00180422
0.00234064
0.00259168
0.00236729
0.00173319
0.00429154
0.00327903
0.00290779
0.00258966
0.00243831
0.00252291
0.00298529
0.00344628
0.00347918
0.00348253
0.00358985
0.00393344
0.00452914
0.00514266
0.00603648
0.00738606
0.00880201
0.0103103
0.011566
0.0120354
0.0121113
0.0120963
0.0118376
0.0111085
0.0112249
0.013337
0.0171722
0.0149866
0.00945906
0.00748425
0.00681832
0.00705278
0.00756603
0.00759535
0.00854121
0.00995752
0.0107077
0.0109961
0.0109715
0.010524
0.00923049
0.00666059
0.00423289
0.00315689
0.00549759
0.00188698
0.00158456
0.00117887
0.000937395
0.00079417
0.000693093
0.000639171
0.000613083
0.000541715
0.000393796
0.000198399
5.17067e-05
3.73897e-05
0.00036238
0.00201085
0.00438153
0.00550427
0.00609165
0.00626023
0.00590526
0.00527343
0.00439567
0.00360816
0.00365843
0.00539661
0.0111582
0.0202704
0.0217602
0.0192551
0.0181361
0.0181141
0.0187701
0.0169668
0.0159534
0.0151942
0.0149336
0.0142789
0.013519
0.0131734
0.0129871
0.0125669
0.0122155
0.01172
0.0176505
0.000152678
0.000140763
0.000183516
0.000357594
0.000693487
0.000862717
0.00075267
0.000602444
0.000454377
0.000323471
0.000210163
0.000124209
4.80683e-05
8.34427e-06
5.94294e-05
0.000962355
0.00332209
0.00363397
0.00343628
0.00277885
0.0018819
0.000965247
0.000412707
0.000360868
0.000308716
0.000733863
0.00391619
0.0130367
0.0183088
0.0218053
0.0281861
0.029207
0.030439
0.0334396
0.0429957
0.0458704
0.0390523
0.0283918
0.0188302
0.0150579
0.0144443
0.0155521
0.0193747
0.0283693
0.00059611
0.000672225
0.000828691
0.000956266
0.000938925
0.000786267
0.000744945
0.00080457
0.00102056
0.00155408
0.00233252
0.00336528
0.00463625
0.00492291
0.00508908
0.00511755
0.00466346
0.00293193
0.00169649
0.00136197
0.0011433
0.00105885
0.00117418
0.00144074
0.00073728
2.32904e-05
3.83799e-06
0.000237697
0.00115545
0.000931044
0.000459467
0.00199619
0.00816749
0.0301086
0.067849
0.0920012
0.100189
0.0946127
0.0801346
0.0618432
0.0516702
0.0524321
0.0583315
0.0715585
0.0511669
0.0690539
0.0891629
0.112789
0.142697
0.164099
0.168765
0.148153
0.110957
0.066461
0.0404644
0.0281769
0.0162741
0.00973232
0.00632341
0.00369062
0.0018352
0.00128668
0.00132496
0.00127886
0.00143087
0.00263228
0.00622771
0.0118732
0.0135348
0.00874147
0.00144967
0.000252727
0.000198797
0.000155385
0.000774798
0.0046965
0.0265505
0.0708213
0.111628
0.135239
0.143568
0.143384
0.135256
0.120706
0.106058
0.105259
0.110199
0.122503
0.216448
0.331545
0.43115
0.482203
0.500345
0.495539
0.462763
0.391815
0.289827
0.168567
0.0749212
0.0423034
0.0239226
0.0127904
0.00728689
0.00510951
0.00378113
0.00636134
0.016228
0.0189463
0.0169534
0.0111849
0.00738565
0.00926094
0.0169742
0.0211349
0.0152013
0.00816224
0.00776143
0.00829147
0.0126445
0.0342281
0.0824071
0.121081
0.146785
0.164977
0.176673
0.180122
0.178309
0.171378
0.159522
0.156566
0.159623
0.168153
0.390285
0.579825
0.697584
0.748878
0.75507
0.734781
0.687544
0.599547
0.471026
0.316005
0.176612
0.0919271
0.0429704
0.019985
0.0152628
0.0162227
0.0183202
0.0238208
0.0352678
0.0541644
0.0613272
0.057764
0.0404678
0.018592
0.0144461
0.0147393
0.0162898
0.0247007
0.0367259
0.0481502
0.0644461
0.0949478
0.125029
0.14608
0.164429
0.181206
0.197935
0.209352
0.210297
0.20804
0.202278
0.199617
0.20096
0.203983
0.618116
0.819676
0.917161
0.957545
0.953673
0.915747
0.851457
0.748566
0.599245
0.419011
0.24293
0.126019
0.0684315
0.0524325
0.0566323
0.070411
0.0862144
0.10327
0.108851
0.115895
0.118074
0.103966
0.0690312
0.0328419
0.0188132
0.0193812
0.0295713
0.0533432
0.073561
0.0881903
0.103793
0.12115
0.136775
0.153338
0.173682
0.194098
0.214834
0.231852
0.237408
0.237245
0.234969
0.232479
0.231675
0.227962
0.8412
1.01724
1.09002
1.11654
1.10658
1.05392
0.977281
0.864811
0.697766
0.491379
0.28472
0.160937
0.116275
0.117422
0.142741
0.182844
0.218117
0.243866
0.250662
0.227735
0.190915
0.147042
0.0827959
0.0335779
0.0227372
0.0272386
0.0487762
0.0782519
0.0933175
0.103868
0.113334
0.122798
0.134334
0.154708
0.180191
0.204191
0.228129
0.248236
0.257127
0.259047
0.257807
0.255565
0.250704
0.23771
1.03174
1.17769
1.22525
1.23712
1.21995
1.15716
1.07504
0.960931
0.783063
0.552906
0.335943
0.233898
0.214878
0.231098
0.279885
0.337896
0.377556
0.397592
0.398783
0.365175
0.280682
0.190924
0.0986
0.0403321
0.0295407
0.0389272
0.0707947
0.0942896
0.0990273
0.100566
0.104017
0.112348
0.127617
0.15461
0.183928
0.210945
0.23774
0.259181
0.269767
0.272839
0.271508
0.267156
0.256316
0.232135
1.18802
1.30343
1.32786
1.32745
1.30397
1.23841
1.15935
1.05375
0.876631
0.639119
0.446997
0.378909
0.373814
0.398075
0.453249
0.508521
0.533996
0.540746
0.528615
0.480478
0.380663
0.243768
0.11053
0.0481624
0.0388626
0.0541376
0.0877279
0.0999043
0.0925107
0.0886227
0.0907119
0.102297
0.122167
0.153413
0.185023
0.213904
0.242602
0.263967
0.275143
0.277828
0.274896
0.266384
0.247362
0.212891
1.31177
1.4029
1.41043
1.39764
1.36674
1.30427
1.24012
1.153
0.991889
0.776631
0.634287
0.584739
0.578624
0.598227
0.641381
0.675867
0.68083
0.671801
0.641218
0.573516
0.446465
0.271763
0.125242
0.0590599
0.0505531
0.0698186
0.0978235
0.102278
0.0815389
0.0753599
0.0787728
0.0922014
0.1137
0.146073
0.1822
0.213133
0.241817
0.262515
0.273407
0.274873
0.269055
0.255562
0.228613
0.187295
1.40976
1.47784
1.4714
1.45006
1.41415
1.36017
1.32735
1.27004
1.13817
0.966163
0.867149
0.821062
0.804429
0.807689
0.826986
0.834286
0.816746
0.786578
0.73398
0.642397
0.4875
0.276664
0.135025
0.0718103
0.0642921
0.083741
0.107262
0.0994641
0.068238
0.0623112
0.0675376
0.0817218
0.103607
0.135338
0.17478
0.207454
0.235385
0.255017
0.264856
0.264521
0.255521
0.236587
0.203004
0.162327
1.48805
1.53356
1.51353
1.48602
1.44857
1.41217
1.41997
1.40992
1.31137
1.18687
1.11837
1.07127
1.03799
1.01392
1.00239
0.980212
0.937689
0.883644
0.807698
0.692011
0.51192
0.274624
0.130683
0.0795441
0.0782619
0.0968369
0.116104
0.0911109
0.0550187
0.0492372
0.0559559
0.0711768
0.0916755
0.121919
0.162547
0.197235
0.224087
0.241818
0.249717
0.24705
0.235342
0.211522
0.178573
0.130111
1.54979
1.57208
1.53885
1.51011
1.47789
1.46863
1.52252
1.5732
1.50862
1.42362
1.37349
1.32521
1.27116
1.21367
1.16489
1.11089
1.04191
0.96329
0.863442
0.722303
0.519131
0.269625
0.119125
0.0793289
0.0871147
0.107385
0.121636
0.0786215
0.0414133
0.0363154
0.0435567
0.0593196
0.079563
0.106442
0.146182
0.182161
0.208475
0.224282
0.229927
0.224814
0.211156
0.187469
0.147863
0.0868825
1.59754
1.59698
1.55032
1.52733
1.50664
1.53127
1.63148
1.74468
1.71718
1.66414
1.62919
1.57855
1.49972
1.402
1.31073
1.22408
1.12878
1.02636
0.902724
0.736876
0.51265
0.258035
0.11076
0.0816387
0.0961072
0.118542
0.124119
0.0652696
0.0288379
0.0237474
0.0304442
0.0459033
0.0665776
0.0902844
0.125232
0.162492
0.188748
0.20361
0.207403
0.201638
0.187103
0.157933
0.105382
0.0558205
1.63698
1.61457
1.55749
1.5422
1.54055
1.60267
1.74568
1.91726
1.93006
1.89978
1.88162
1.82913
1.72133
1.57577
1.43877
1.31922
1.19858
1.07314
0.92632
0.737572
0.496266
0.24551
0.117682
0.0949247
0.110155
0.130118
0.120245
0.0531251
0.0180773
0.012786
0.0177625
0.0313004
0.051701
0.0750062
0.101617
0.137288
0.164203
0.17916
0.182234
0.175552
0.156658
0.11785
0.0676568
0.0351556
1.67617
1.64186
1.56755
1.55701
1.58023
1.67922
1.85772
2.08043
2.13584
2.1236
2.12643
2.07503
1.93339
1.73177
1.54674
1.39579
1.25192
1.1041
0.935389
0.728881
0.47986
0.248313
0.14126
0.121562
0.130532
0.139657
0.108459
0.041568
0.0103286
0.00529318
0.00774627
0.0170819
0.0350984
0.0575475
0.0809619
0.107372
0.134343
0.149137
0.15193
0.142779
0.116074
0.0764786
0.0442788
0.0166445
1.7288
1.69227
1.58685
1.57861
1.6269
1.75752
1.96126
2.22975
2.33049
2.32064
2.35522
2.30945
2.13389
1.86706
1.63094
1.44999
1.2859
1.11822
0.932512
0.714697
0.471393
0.272785
0.182645
0.158098
0.152015
0.142296
0.0907131
0.0304799
0.00573382
0.00174953
0.00236801
0.00652704
0.0184634
0.0382075
0.0596562
0.0807591
0.0998053
0.112796
0.113558
0.10019
0.077493
0.0510848
0.0219292
0.00498369
1.77258
1.73622
1.60938
1.605
1.67755
1.83367
2.0494
2.35964
2.51104
2.47212
2.51267
2.49723
2.30916
1.97494
1.67992
1.46977
1.28935
1.11172
0.918866
0.704051
0.476993
0.318001
0.237866
0.197651
0.168679
0.132063
0.0734008
0.0209119
0.00319371
0.000568164
0.000560597
0.00163617
0.00630263
0.0187556
0.0366458
0.0540564
0.0682981
0.0771954
0.077535
0.0689341
0.0514288
0.0263066
0.00671709
0.00100612
1.75247
1.73311
1.63059
1.63405
1.72951
1.90605
2.11851
2.46645
2.6826
2.57817
2.46215
2.46033
2.37591
2.0182
1.66693
1.44496
1.26072
1.08586
0.899025
0.702017
0.498903
0.378323
0.299485
0.230337
0.171235
0.114289
0.0568418
0.0134776
0.00177178
0.000219261
0.00013084
0.000317913
0.00131565
0.00544046
0.0155963
0.0289287
0.0410788
0.049925
0.0507785
0.0423479
0.0256034
0.00838018
0.00134013
0.00016521
1.623
1.65816
1.63929
1.66115
1.77875
1.97266
2.16784
2.51055
2.82001
2.64835
2.30428
2.22231
2.17039
1.90513
1.60619
1.40057
1.22324
1.05335
0.879296
0.708952
0.523504
0.389749
0.312057
0.231221
0.154882
0.0984878
0.0414559
0.0081161
0.000942288
9.36803e-05
3.39057e-05
6.50104e-05
0.000227214
0.000953291
0.00366051
0.00963862
0.0175834
0.0246621
0.0251121
0.0180144
0.00768224
0.00167406
0.000214346
2.47288e-05
1.41803
1.5536
1.64973
1.68467
1.82139
2.03333
2.21296
2.38143
2.78883
2.66226
2.1615
1.93919
1.83813
1.71001
1.54956
1.37094
1.19172
1.01523
0.861439
0.710207
0.498135
0.344776
0.261669
0.192897
0.129575
0.0818706
0.0280037
0.00459585
0.000480507
4.11935e-05
9.54263e-06
1.47293e-05
4.36159e-05
0.000156179
0.000584537
0.00183753
0.00429982
0.00735967
0.00747316
0.00450028
0.00145696
0.000260384
3.10664e-05
3.74721e-06
1.21819
1.47575
1.67583
1.70326
1.85278
2.08158
2.2148
2.07441
2.42069
2.60084
2.10168
1.72792
1.61898
1.59986
1.50966
1.34362
1.15602
0.96701
0.80838
0.644407
0.416969
0.262681
0.181481
0.147921
0.111521
0.0639329
0.0174533
0.00245972
0.000235624
1.81506e-05
2.96015e-06
3.5882e-06
8.99439e-06
2.79772e-05
9.36737e-05
0.000286952
0.000715607
0.00136645
0.00139751
0.000766705
0.000217989
3.6117e-05
4.47877e-06
8.02965e-07
1.02618
1.38257
1.69509
1.70856
1.86926
2.11989
2.0299
1.78159
2.01322
2.46408
2.16752
1.71724
1.58986
1.57573
1.47754
1.30648
1.10891
0.906229
0.703321
0.504801
0.308715
0.196939
0.156816
0.12951
0.0970683
0.0462603
0.0100271
0.00124294
0.000109961
7.85596e-06
1.09372e-06
1.0524e-06
2.04544e-06
5.23849e-06
1.53253e-05
4.39626e-05
0.00010724
0.000205739
0.000208069
0.000108992
2.91816e-05
4.91291e-06
8.72739e-07
4.01064e-07
0.803097
1.17154
1.61076
1.68205
1.86861
2.16436
1.83759
1.53903
1.70919
2.23223
2.25466
1.84209
1.65956
1.58175
1.44608
1.25893
1.04933
0.833551
0.59484
0.368921
0.239339
0.184864
0.147572
0.117335
0.0822878
0.0304709
0.00535741
0.000593402
4.85045e-05
3.33149e-06
5.38475e-07
4.66672e-07
6.44776e-07
1.1704e-06
2.65933e-06
6.72219e-06
1.55131e-05
2.86293e-05
2.80542e-05
1.42622e-05
3.87291e-06
8.88918e-07
4.01182e-07
3.44874e-07
0.595292
0.870365
1.33425
1.56641
1.83983
2.22456
1.83694
1.4219
1.49449
1.96804
2.26578
1.9534
1.72653
1.58691
1.41182
1.20208
0.978418
0.753462
0.51485
0.308758
0.22543
0.176124
0.141677
0.108179
0.0643738
0.0181327
0.00265952
0.000265397
2.00791e-05
1.43777e-06
3.67306e-07
3.30539e-07
3.60604e-07
4.45742e-07
6.57442e-07
1.2088e-06
2.38033e-06
3.98617e-06
3.76164e-06
1.984e-06
7.36204e-07
3.92909e-07
3.38822e-07
3.3576e-07
0.50086
0.610607
0.973636
1.36653
1.75521
2.18643
1.93849
1.41554
1.33868
1.69128
2.17601
2.01648
1.77055
1.58864
1.37349
1.1359
0.896817
0.667486
0.445602
0.284853
0.214309
0.170272
0.133741
0.0974835
0.0451991
0.00971019
0.0012156
0.00010958
7.79893e-06
6.9512e-07
3.13606e-07
2.98003e-07
3.01755e-07
3.14935e-07
3.44616e-07
4.17854e-07
5.69947e-07
7.55276e-07
7.131e-07
5.03064e-07
3.66818e-07
3.31888e-07
3.29386e-07
3.33647e-07
0.532716
0.537173
0.746458
1.17263
1.60432
1.86507
1.76506
1.26259
1.13206
1.39858
1.92662
1.98813
1.79861
1.58933
1.3304
1.05889
0.80496
0.575507
0.380028
0.262111
0.202771
0.161931
0.122191
0.0802072
0.0276673
0.00465387
0.00050819
4.18957e-05
2.94099e-06
4.25564e-07
2.97297e-07
2.90123e-07
2.89049e-07
2.8957e-07
2.94005e-07
3.06002e-07
3.28779e-07
3.53257e-07
3.5201e-07
3.33343e-07
3.23624e-07
3.23528e-07
3.27405e-07
3.32147e-07
0.590822
0.550422
0.701216
1.06139
1.39183
1.42852
1.34524
0.961472
0.846689
1.04311
1.47388
1.8093
1.78436
1.58569
1.27779
0.963684
0.70169
0.482834
0.323728
0.238285
0.188556
0.14941
0.108845
0.0579303
0.0145529
0.0019965
0.000194687
1.49612e-05
1.16549e-06
3.34721e-07
2.93023e-07
2.88894e-07
2.86769e-07
2.85931e-07
2.86471e-07
2.90859e-07
2.97712e-07
3.05447e-07
3.10841e-07
3.14036e-07
3.18008e-07
3.21889e-07
3.26222e-07
3.30519e-07
0.636362
0.609298
0.735507
1.01913
1.2024
1.05959
0.946767
0.71964
0.610692
0.714806
1.02591
1.4718
1.56883
1.44413
1.15769
0.845763
0.594154
0.402461
0.279811
0.215004
0.171706
0.131546
0.0897479
0.0353073
0.00658711
0.000772732
6.88449e-05
5.107e-06
5.63947e-07
3.06213e-07
2.91976e-07
2.89034e-07
2.87085e-07
2.85664e-07
2.86206e-07
2.89371e-07
2.94003e-07
2.99949e-07
3.05981e-07
3.11539e-07
3.16657e-07
3.20889e-07
3.25055e-07
3.28941e-07
0.67496
0.669898
0.783301
1.00849
1.09532
0.877931
0.737457
0.596042
0.603795
0.666853
0.83671
1.1438
1.23855
1.16699
0.968401
0.720748
0.499842
0.340491
0.245068
0.19206
0.150818
0.113402
0.0639312
0.01772
0.00261124
0.000273142
2.27157e-05
1.77203e-06
3.74218e-07
2.97843e-07
2.91998e-07
2.89513e-07
2.877e-07
2.86536e-07
2.86934e-07
2.89646e-07
2.93968e-07
2.99284e-07
3.05143e-07
3.10776e-07
3.15801e-07
3.19938e-07
3.23929e-07
3.27296e-07
0.703768
0.724842
0.827704
1.00892
1.03607
0.845681
0.698594
0.583092
0.603589
0.664478
0.819921
0.978961
0.995833
0.924519
0.796698
0.612069
0.422685
0.292131
0.215913
0.168555
0.130951
0.0899808
0.037263
0.00742189
0.000928828
8.92918e-05
7.14139e-06
7.22742e-07
3.18378e-07
2.95714e-07
2.92378e-07
2.90181e-07
2.88516e-07
2.87406e-07
2.87777e-07
2.90334e-07
2.94309e-07
2.99261e-07
3.04807e-07
3.10228e-07
3.14924e-07
3.1896e-07
3.22822e-07
3.25732e-07
0.721221
0.765652
0.861413
1.00906
0.995638
0.806401
0.669261
0.591307
0.627733
0.691912
0.823624
0.901897
0.874083
0.795333
0.682711
0.522111
0.359832
0.252697
0.188825
0.146109
0.108988
0.0605756
0.0173196
0.00269635
0.000302934
2.73659e-05
2.26104e-06
4.14604e-07
3.03065e-07
2.95454e-07
2.9293e-07
2.90929e-07
2.89415e-07
2.88418e-07
2.88738e-07
2.91057e-07
2.94738e-07
2.99392e-07
3.04442e-07
3.0967e-07
3.14211e-07
3.18019e-07
3.21726e-07
3.24172e-07
0.725779
0.789455
0.881672
1.00199
0.942654
0.75313
0.63359
0.600272
0.6455
0.706412
0.811669
0.850064
0.808419
0.719336
0.598592
0.445622
0.307207
0.218397
0.162962
0.124025
0.0807449
0.0322914
0.0066155
0.000882657
9.20347e-05
8.03157e-06
8.31635e-07
3.29718e-07
2.99264e-07
2.9572e-07
2.93551e-07
2.91698e-07
2.90301e-07
2.8937e-07
2.89672e-07
2.9181e-07
2.95183e-07
2.99578e-07
3.04311e-07
3.09262e-07
3.13418e-07
3.17172e-07
3.20663e-07
3.22697e-07
0.716436
0.797991
0.889139
0.984166
0.8618
0.703082
0.604439
0.602996
0.65288
0.708006
0.787411
0.798241
0.748597
0.651762
0.524673
0.380208
0.262968
0.187471
0.139201
0.0968796
0.048739
0.0134493
0.00220206
0.000267488
2.6437e-05
2.3897e-06
4.3836e-07
3.07701e-07
2.98538e-07
2.96118e-07
2.94139e-07
2.92443e-07
2.91196e-07
2.90353e-07
2.90604e-07
2.92576e-07
2.95696e-07
2.99793e-07
3.04149e-07
3.08862e-07
3.12789e-07
3.16351e-07
3.19562e-07
3.21263e-07
0.695117
0.792906
0.885697
0.957928
0.79685
0.675306
0.589354
0.601281
0.649537
0.697444
0.754593
0.745365
0.689439
0.587424
0.458491
0.324322
0.223506
0.158775
0.112209
0.0640437
0.0226076
0.00465103
0.000669448
7.63271e-05
7.35404e-06
8.3976e-07
3.36123e-07
3.02357e-07
2.98592e-07
2.96537e-07
2.94717e-07
2.93177e-07
2.92047e-07
2.9132e-07
2.9155e-07
2.93341e-07
2.96221e-07
3.0004e-07
3.04114e-07
3.08503e-07
3.12213e-07
3.15588e-07
3.18535e-07
3.20018e-07
0.664214
0.77665
0.873378
0.926906
0.76948
0.672226