/*--------------------------------*- C++ -*----------------------------------*\
| =========                 |                                                 |
| \\      /  F ield         | OpenFOAM: The Open Source CFD Toolbox           |
|  \\    /   O peration     | Version:  v1912                                 |
|   \\  /    A nd           | Website:  www.openfoam.com                      |
|    \\/     M anipulation  |                                                 |
\*---------------------------------------------------------------------------*/
FoamFile
{
    version     2.0;
    format      ascii;
    class       surfaceScalarField;
    location    "70";
    object      alphaPhi0.water;
}
// * * * * * * * * * * * * * * * * * * * * * * * * * * * * * * * * * * * * * //

dimensions      [0 3 -1 0 0 0 0];
oriented        oriented;


internalField   nonuniform List<scalar> 
28285
(
-3.32758e-06
-2.7061e-06
-1.55722e-06
1.13821e-08
-3.59192e-06
2.19578e-06
-3.21063e-06
-5.42363e-07
-5.59585e-06
-4.77227e-07
-5.92522e-06
-2.85802e-06
2.12162e-07
-3.76592e-06
-2.56039e-07
8.79495e-08
-2.17819e-06
1.66316e-06
-2.03094e-06
-4.40404e-07
-4.01139e-06
5.59791e-07
-5.19345e-06
-2.35961e-07
-1.99923e-07
-4.59635e-06
1.87552e-06
-2.07541e-06
1.38101e-06
4.94477e-07
2.11345e-06
-4.03051e-09
4.6855e-07
6.69868e-07
-6.85395e-07
1.02283e-07
1.44792e-07
-8.05524e-07
1.00101e-06
-8.80882e-07
8.22339e-07
2.70144e-08
6.00188e-07
5.74027e-07
1.60446e-06
-5.60023e-07
2.30853e-06
-3.98514e-07
2.11823e-06
1.96619e-07
2.16571e-06
-5.38035e-08
9.53784e-07
7.72826e-08
2.97604e-07
1.45788e-07
2.61183e-07
-7.38777e-08
4.87919e-07
5.93414e-09
4.21319e-07
2.69608e-08
4.55189e-07
-2.66007e-08
1.49364e-07
3.05672e-07
-5.456e-08
2.04077e-07
-1.46761e-08
2.88119e-09
-1.64586e-08
2.11905e-09
-2.87075e-08
1.21046e-08
-4.90866e-08
2.07236e-08
-6.62948e-08
1.70624e-08
-8.66563e-08
2.07094e-08
-1.34218e-07
4.49199e-08
-1.74586e-07
4.15286e-08
-1.77856e-07
1.04441e-08
-1.92167e-07
2.14486e-08
-2.55477e-07
7.04148e-08
-4.69224e-07
1.17449e-07
-4.57783e-07
3.90761e-08
-4.04062e-07
-2.66809e-09
-2.5999e-07
-1.81128e-08
-1.73478e-07
-1.84823e-12
-1.40113e-07
-3.83292e-08
-8.42054e-08
-5.0936e-08
-4.35768e-08
-4.55908e-08
3.54619e-09
-4.21536e-08
-3.28064e-08
9.53119e-08
-7.99727e-08
5.39634e-08
-4.18917e-08
-2.9305e-08
-1.31206e-08
-2.65723e-09
3.76407e-09
-3.62079e-10
1.62449e-08
-1.86098e-10
2.74376e-08
-2.93364e-10
4.33883e-08
-2.53298e-10
9.7337e-08
5.49607e-09
7.25407e-08
9.39727e-08
1.28757e-08
8.69353e-08
-1.73935e-07
5.13053e-08
-3.51836e-07
1.62816e-07
-3.97263e-07
6.05121e-08
-4.25839e-07
1.34906e-08
-4.09969e-07
1.17482e-08
-3.72031e-07
-3.76035e-09
-3.55727e-07
-2.3647e-09
-3.43544e-07
-2.91514e-09
-3.39228e-07
1.21197e-08
-3.03227e-07
-3.45362e-09
-2.66884e-07
-1.23748e-09
-2.19712e-07
-4.26206e-09
-1.80843e-07
-3.49672e-09
-1.41478e-07
-3.39791e-09
-1.00474e-07
-3.6507e-09
-6.10115e-08
-3.43984e-09
-2.65953e-08
-2.91893e-09
2.92067e-09
-2.60401e-09
4.22088e-08
-2.8879e-09
8.8363e-08
-3.50086e-09
1.53832e-07
-5.83199e-09
2.43946e-07
-1.23246e-08
3.45307e-07
-2.94463e-08
4.19636e-07
-3.62585e-08
4.75188e-07
-1.60801e-08
5.56446e-07
-6.47202e-09
6.62493e-07
-4.09302e-09
7.66551e-07
-8.40672e-09
7.70974e-07
-1.44721e-08
7.77295e-07
-1.6912e-08
7.79945e-07
-1.34933e-08
7.66754e-07
3.41569e-09
5.20543e-07
9.16717e-09
4.42663e-07
2.29165e-08
4.91307e-07
1.4117e-08
4.34936e-07
4.35126e-08
4.1639e-07
3.14042e-08
4.04866e-07
2.05433e-09
-2.21966e-08
3.89008e-07
-2.09015e-06
-4.09453e-06
-1.87967e-06
1.60066e-07
-6.91511e-06
6.6959e-06
-1.25252e-05
-1.80679e-06
-1.36928e-05
-8.18828e-07
-4.46002e-06
-6.11601e-06
-7.85101e-07
-3.17769e-06
-6.89054e-07
4.32549e-09
-1.34971e-06
2.1685e-06
-1.10769e-06
-5.27108e-07
-2.00872e-06
1.73771e-06
-6.6612e-06
-1.78126e-08
-7.17338e-07
-1.05625e-05
5.36841e-07
-2.03656e-06
-7.78774e-07
1.81034e-06
1.21584e-06
-1.9236e-06
8.30054e-07
1.80628e-09
-5.76494e-07
5.3974e-07
-5.94877e-08
-1.45461e-06
8.66572e-07
-1.38322e-06
5.91745e-07
3.18603e-07
5.46103e-07
2.34717e-07
4.96714e-07
-2.33801e-07
4.61951e-07
-8.78961e-08
9.31416e-07
2.73926e-07
1.23106e-06
-5.02021e-07
3.62213e-07
1.49501e-09
1.57082e-07
2.07612e-07
3.38131e-07
-1.73497e-07
3.61296e-07
-8.96854e-08
3.17384e-07
-5.60953e-09
1.41572e-07
1.95997e-11
-8.73045e-08
5.34701e-07
-6.61284e-08
1.6655e-07
-4.70261e-08
4.81179e-10
-4.53872e-08
1.02732e-08
-4.88081e-08
7.21245e-08
-7.04537e-08
8.47469e-08
-1.10555e-07
6.96566e-08
-1.6382e-07
7.4218e-08
-2.79168e-07
1.65004e-07
-4.31213e-07
2.09469e-07
-4.59207e-07
8.43712e-08
-4.18698e-07
8.26734e-08
-3.03666e-07
1.97341e-07
-1.54829e-07
1.60052e-07
-8.43841e-08
3.85619e-08
-1.03751e-07
-6.33313e-09
-1.91935e-07
-1.42923e-08
-4.22275e-07
-8.39642e-08
-3.92296e-07
-3.18174e-07
-1.56218e-07
-3.92573e-07
-8.75383e-08
-1.79269e-07
-1.2509e-07
-1.13222e-07
-1.28514e-07
2.03572e-07
-5.6438e-08
6.95221e-10
-1.49083e-09
-5.31093e-08
-5.71532e-11
-4.33038e-10
2.74557e-11
-2.78288e-10
1.81592e-10
-3.2508e-10
4.38994e-10
-5.53885e-10
6.13672e-10
-4.11375e-10
3.8101e-08
3.24788e-09
3.58379e-08
2.12799e-07
-6.28045e-11
1.53792e-07
-9.39878e-08
3.80503e-08
-2.72109e-07
1.22537e-07
-3.00806e-07
5.06227e-08
-1.77367e-07
1.53264e-08
-7.17847e-08
5.81385e-10
-4.70891e-08
-1.2947e-15
-4.56611e-08
-6.08296e-11
-4.89498e-08
-2.01918e-10
-4.43005e-08
-2.9613e-14
-2.89146e-08
-3.64279e-10
-1.78633e-08
-2.20912e-10
-1.12868e-08
-8.06991e-10
-7.99128e-09
-9.52489e-10
-5.36391e-09
-1.08717e-09
-3.3934e-09
-1.21332e-09
-1.92901e-09
-8.29984e-10
-8.63804e-10
-7.06071e-10
-1.73479e-12
-6.20572e-10
1.11874e-09
-7.36021e-10
3.10363e-09
-6.43918e-10
8.59691e-09
-1.19565e-09
3.01545e-08
-2.00965e-09
9.7156e-08
-9.06632e-09
1.92983e-07
-3.58098e-08
2.06155e-07
-4.60491e-08
1.67163e-07
-2.30875e-08
1.6187e-07
-2.27378e-11
1.6622e-07
-1.82555e-08
1.71821e-07
-1.59989e-08
2.65873e-07
-1.03056e-08
6.31221e-07
-6.17438e-09
6.88652e-07
3.02686e-09
6.82257e-07
2.23057e-08
3.03362e-07
5.39479e-08
3.83018e-07
1.26664e-07
4.30184e-07
4.10558e-08
4.1357e-07
1.80032e-08
3.34472e-07
2.07908e-09
-1.08267e-08
2.39685e-07
-5.30683e-06
-2.2434e-06
-3.31341e-06
1.3503e-06
-1.53292e-05
1.61894e-05
-1.27801e-05
-5.18049e-06
-1.06237e-05
-2.15058e-06
-4.23532e-07
-6.47828e-06
1.07392e-07
-1.78222e-06
-1.66852e-07
9.31332e-08
-2.24905e-06
4.40602e-06
-1.31795e-06
-1.74226e-06
-5.15809e-06
3.3229e-06
-5.95969e-06
-3.91039e-06
1.39746e-07
-1.66397e-05
2.37984e-06
-1.33253e-05
6.48066e-07
3.54232e-06
1.85841e-06
-2.41337e-06
4.136e-07
3.51152e-08
-1.99621e-07
5.58972e-07
1.17935e-07
-7.28335e-07
6.16318e-07
-7.76438e-07
5.02895e-07
1.36034e-06
2.50502e-07
4.18632e-07
7.51346e-07
-1.87603e-06
4.92196e-07
-4.21673e-07
9.01174e-07
-1.58617e-10
1.07928e-06
-1.4384e-07
7.32443e-07
1.34612e-07
3.77361e-07
3.92467e-07
5.40647e-07
-5.55282e-07
2.66711e-07
-1.858e-07
2.3227e-07
2.33157e-08
1.36333e-07
6.45545e-09
1.14016e-07
1.21763e-07
-2.25589e-08
1.32052e-07
-4.90409e-08
2.89826e-08
-1.28151e-07
5.44548e-08
-1.34661e-07
1.95963e-07
-1.17119e-07
4.22454e-07
-1.46977e-07
2.03724e-07
-2.52198e-07
1.97579e-07
-5.61659e-07
4.62207e-07
-6.59081e-07
1.77774e-07
-8.1997e-07
7.01951e-08
-9.26891e-07
1.47713e-07
-1.00123e-06
3.13564e-07
-3.25727e-07
1.12435e-07
-1.9476e-07
1.29744e-07
-3.05562e-07
-1.15715e-08
-1.00064e-06
-1.13618e-07
-1.66647e-06
-2.2458e-07
-1.31808e-06
-9.71937e-07
-6.30329e-07
-7.70896e-07
-2.38738e-07
-4.66095e-07
-6.20289e-08
-3.02701e-07
-5.7717e-08
6.56564e-08
-5.77566e-08
2.93318e-08
-2.7271e-10
-5.87134e-08
-1.05682e-10
-6.003e-10
4.4503e-11
-4.14574e-10
2.14264e-10
-4.95071e-10
4.92509e-10
-8.18632e-10
6.79446e-10
-6.01339e-10
1.80068e-08
1.14191e-09
7.63201e-08
4.60326e-07
-4.80019e-09
4.2561e-07
-4.31708e-08
3.15358e-07
-1.46204e-07
2.76076e-07
-1.49656e-07
2.44796e-08
-6.85504e-08
9.50867e-09
-1.42721e-08
3.1032e-12
-5.3214e-09
2.43218e-14
-3.98819e-09
-4.06366e-11
-3.85051e-09
-4.26519e-11
-3.51869e-09
1.5069e-11
-3.08949e-09
-1.99541e-10
-2.06967e-09
-5.11138e-10
-1.96519e-09
-6.71831e-10
-2.08452e-09
-2.04233e-09
-1.5423e-09
-2.74822e-09
-7.45405e-10
-2.7144e-09
-4.15518e-10
-1.17058e-09
-1.96625e-10
-9.14258e-10
3.11157e-11
-8.59018e-10
3.13226e-10
-1.00743e-09
5.97122e-10
-9.3852e-10
1.01001e-09
-1.56847e-09
2.78599e-09
-9.36091e-10
1.91723e-08
-1.85205e-09
1.32056e-07
-1.00434e-08
2.35209e-07
-3.92253e-08
2.29409e-07
-3.69797e-08
1.86402e-07
-2.03428e-08
1.27093e-07
-4.14635e-08
9.89849e-08
-4.72193e-08
1.20565e-07
-3.19539e-08
1.16922e-07
-2.46278e-09
3.65232e-07
1.86015e-09
6.2869e-07
6.97685e-09
6.27964e-07
6.75364e-08
1.94444e-07
1.6071e-07
1.52102e-07
6.40967e-08
1.50589e-07
1.56803e-11
1.15272e-07
1.23072e-09
-1.61715e-10
7.11938e-08
-8.21486e-06
-3.53632e-06
-8.93755e-06
2.94548e-06
-8.10317e-06
1.6217e-05
-7.61605e-06
-2.41336e-06
-2.92505e-06
-1.50272e-06
-2.45316e-07
-1.37569e-06
3.40815e-08
-2.02949e-06
-1.23025e-06
2.24591e-06
-3.31011e-06
9.69736e-06
-1.17802e-06
-2.04285e-06
-6.36874e-06
6.26014e-06
-4.17872e-06
-4.29599e-06
5.79676e-09
-1.28773e-05
2.77256e-06
-1.57861e-05
6.22854e-07
4.93348e-06
1.58675e-06
-3.97874e-06
9.77451e-07
1.28402e-07
-7.34696e-08
8.09598e-07
-3.09268e-07
-4.59969e-07
4.56179e-07
-7.12377e-06
5.14051e-07
2.21886e-06
2.14295e-07
6.49473e-07
1.26309e-06
-2.66941e-06
2.88905e-07
-3.30753e-07
3.21315e-07
7.6175e-08
4.43348e-07
-1.51443e-07
5.15558e-07
2.97606e-07
3.71299e-07
5.23554e-07
5.79621e-07
-7.75343e-07
6.73619e-07
-2.93057e-07
1.81958e-07
9.80828e-08
5.73797e-08
9.39072e-08
3.54436e-09
1.89735e-07
-3.51369e-08
1.61901e-07
-1.61034e-07
6.05513e-08
-3.39837e-07
5.48028e-08
-4.23275e-07
3.55464e-07
-5.86512e-07
6.59672e-07
-5.13794e-07
4.43663e-07
-5.76269e-07
5.50133e-07
-1.94919e-07
1.74251e-07
-1.6695e-07
3.30038e-08
-2.22331e-07
4.56798e-12
-5.67712e-07
9.62854e-08
-6.1862e-07
1.8288e-07
-6.27392e-07
1.66981e-07
-6.75182e-07
3.62238e-07
-1.11782e-06
-4.49283e-08
-2.09282e-06
-1.65596e-07
-2.05616e-06
-4.59903e-07
-1.43916e-06
-1.60961e-06
-8.76684e-07
-1.3127e-06
-4.5981e-07
-5.89423e-07
-1.64098e-07
-4.03709e-07
-5.38886e-08
1.64443e-09
-3.20368e-08
2.31462e-08
-1.49156e-10
-1.6113e-08
-7.43824e-11
-6.61698e-10
3.75858e-11
-5.26569e-10
1.93987e-10
-6.37712e-10
4.41541e-10
-1.06622e-09
6.04271e-10
-7.47446e-10
6.36881e-09
2.92986e-09
7.50046e-08
3.81679e-07
-1.4424e-08
5.14589e-07
-5.21571e-08
8.42601e-07
-8.93947e-08
3.63313e-07
-5.82489e-08
1.0612e-08
-2.48856e-08
3.58009e-09
-4.30743e-09
4.23387e-10
-1.42e-09
2.90366e-13
-1.31725e-09
-8.4011e-15
-1.34551e-09
-1.50813e-11
-1.68426e-09
3.54501e-10
-3.53346e-09
-3.21693e-10
-9.19885e-09
-9.57744e-10
-1.39714e-08
-8.2274e-09
-1.37354e-08
-7.72375e-09
-1.16435e-08
-1.03491e-08
-4.55921e-09
-1.0201e-08
-1.59837e-09
-4.91831e-09
-4.73846e-10
-4.90325e-09
1.00054e-11
-4.54251e-09
4.64634e-10
-5.42501e-09
5.61198e-10
-4.14071e-09
8.13837e-10
-1.82145e-09
1.12047e-09
-1.24238e-09
2.37107e-09
-1.38337e-09
2.24824e-08
-1.35197e-09
1.94031e-07
-2.93786e-09
5.18782e-07
-1.00271e-08
5.44763e-07
-2.69693e-08
5.39974e-07
-5.60294e-08
5.04989e-07
-1.68591e-07
3.22641e-07
-4.88953e-08
2.23204e-07
-3.80919e-08
1.96562e-07
2.42925e-09
5.34552e-07
1.40103e-09
5.61157e-07
2.80681e-08
4.74717e-07
1.4053e-07
1.67725e-07
1.89506e-07
2.41254e-09
2.40096e-08
3.18611e-09
4.42581e-10
-1.26643e-10
3.16561e-09
-7.73745e-06
-1.50749e-05
-7.07705e-06
3.1933e-07
-1.96448e-06
9.86322e-06
-1.14977e-06
-1.29871e-06
-4.74101e-07
-7.19744e-07
-2.25157e-07
-1.59273e-06
2.10761e-08
-2.25933e-06
-1.30921e-06
4.10149e-06
-1.7313e-06
8.63857e-06
-2.50793e-06
-1.19964e-06
-6.02753e-06
4.16156e-06
-7.51687e-07
-7.19255e-06
4.32656e-07
-2.41203e-06
4.32964e-06
-1.49342e-05
2.88001e-06
7.35327e-06
2.1002e-08
-1.22047e-06
4.56983e-07
1.64075e-06
-1.83194e-08
2.59137e-07
-4.27217e-07
-8.36399e-08
9.57711e-07
-1.29319e-05
5.92629e-07
3.86523e-07
6.88773e-07
1.06542e-06
1.46303e-06
-3.19303e-06
1.41339e-06
-2.81828e-07
2.72008e-07
4.28456e-07
2.77108e-07
-1.58863e-07
2.6803e-07
3.03285e-07
4.88648e-07
2.91194e-07
5.68927e-07
-8.6887e-07
6.39554e-07
-3.75384e-07
9.59922e-08
2.62398e-07
6.23749e-08
9.06317e-08
2.91024e-08
2.9052e-07
-3.6618e-08
2.36454e-07
-5.38684e-08
7.08769e-08
-1.33803e-07
5.13076e-08
-3.25009e-07
1.72509e-07
-4.85682e-07
8.23949e-07
-6.38735e-07
5.93112e-07
-3.76726e-07
2.91728e-07
-1.40917e-07
1.47937e-07
-1.6819e-07
1.5386e-07
-1.52857e-07
7.78928e-08
-1.81055e-07
5.91325e-08
-1.97533e-07
6.73237e-08
-2.7259e-07
4.17491e-08
-1.00276e-06
3.52318e-08
-2.03884e-06
-3.61806e-08
-1.80385e-06
-4.28234e-07
-1.50845e-06
-9.41107e-07
-5.89602e-07
-9.84932e-07
-1.59435e-07
-1.43863e-06
-6.37933e-08
-7.10267e-07
-4.48511e-08
-4.43931e-07
-1.97119e-08
4.8414e-08
-7.38629e-09
5.89933e-09
-3.60141e-10
-4.25949e-09
-1.07282e-10
-8.41414e-10
5.1196e-11
-6.69541e-10
1.98532e-10
-7.87034e-10
4.37884e-10
-1.29013e-09
1.1761e-09
-1.48753e-09
4.2952e-09
1.80243e-09
6.90497e-08
2.91115e-07
-5.52343e-08
6.28439e-07
-2.55556e-07
1.16414e-06
-6.97777e-08
6.21551e-07
-2.13229e-08
2.40936e-09
-6.91702e-09
4.77413e-12
-1.82897e-09
2.8997e-10
-1.73794e-09
2.50576e-10
-1.72472e-09
-1.05954e-11
-3.63098e-09
-7.48318e-11
-1.14144e-08
2.48054e-09
-2.01374e-08
-7.10934e-10
-2.66103e-08
-3.16768e-09
-2.26354e-08
-9.9044e-09
-1.94677e-08
-1.31893e-08
-1.66628e-08
-1.08562e-08
-9.82617e-09
-1.93355e-08
-6.01082e-09
-6.4529e-09
-2.47923e-09
-8.83524e-09
3.571e-10
-1.20427e-08
3.10708e-09
-1.67132e-08
4.35952e-09
-2.23531e-08
3.00869e-09
-1.50723e-08
1.39528e-09
-5.4756e-09
1.50393e-09
-1.01329e-09
1.77053e-09
-1.14903e-09
9.00586e-09
-6.92868e-10
5.65926e-08
-3.02972e-10
2.15449e-07
-4.46611e-10
4.72531e-07
-1.31297e-09
6.37787e-07
-5.92715e-09
6.4204e-07
-2.15113e-08
5.92522e-07
-2.02107e-08
3.12957e-07
5.75549e-10
3.37125e-07
2.41971e-10
5.30086e-07
2.46849e-08
5.78071e-07
1.62798e-07
4.8345e-07
2.09515e-07
1.44799e-07
1.31038e-07
3.53165e-09
1.64305e-08
3.09014e-11
2.57956e-09
-5.53099e-06
-2.16968e-06
-4.12693e-06
3.31046e-07
-6.30943e-07
4.61425e-06
-6.57542e-07
-1.24318e-06
-6.0064e-07
-7.44962e-07
-2.41032e-07
-1.93636e-06
1.11442e-08
-2.47959e-06
-2.01794e-06
6.12039e-06
-3.5276e-07
8.45428e-06
-1.48158e-06
-8.68981e-07
-1.98824e-06
6.10086e-07
-1.73903e-07
-5.97522e-06
2.80358e-07
-2.86629e-06
1.54838e-06
-1.72154e-06
3.90726e-06
5.96545e-06
1.01641e-06
-1.31647e-07
6.01823e-07
4.12234e-06
-1.91301e-08
7.62787e-07
8.18157e-08
-1.4796e-06
1.7111e-06
-1.45472e-05
5.23996e-07
7.87891e-08
8.47349e-07
1.71835e-06
8.82297e-07
-8.68252e-07
1.43949e-06
-8.3145e-07
2.15989e-07
8.1516e-07
2.20734e-07
-9.43838e-08
2.95034e-07
4.93817e-07
3.51906e-07
2.21158e-07
3.52738e-07
-5.91567e-07
6.00955e-07
-6.07587e-07
1.53821e-07
3.9284e-07
1.87187e-07
8.69842e-07
-4.15791e-09
5.49207e-07
-7.80701e-08
8.17226e-07
-7.13012e-08
1.47001e-07
-8.80552e-08
2.57111e-08
-2.7113e-07
4.10971e-08
-4.29044e-07
3.72393e-07
-4.43034e-07
3.14704e-07
-1.98335e-07
8.85902e-08
-2.82948e-07
3.74353e-07
-5.32916e-07
5.46579e-07
-2.81836e-07
3.97947e-07
-8.13218e-08
1.58913e-07
-7.70444e-08
7.11648e-08
-4.51792e-08
7.02449e-09
-1.10358e-06
3.12822e-07
-1.85934e-06
-4.2766e-07
-1.58394e-06
-7.76353e-07
-2.69173e-07
-6.14013e-07
-3.37468e-07
-3.40634e-07
-1.82177e-07
-1.62904e-06
-8.79318e-08
-8.29016e-07
-8.51177e-08
-4.67511e-07
-6.58372e-09
7.15337e-08
-1.89765e-09
3.45334e-08
-1.9645e-10
-2.51934e-09
-1.27498e-10
-9.25399e-10
1.44622e-10
-2.49411e-09
3.42847e-09
-2.82488e-08
3.36599e-08
-4.29959e-07
1.10896e-09
-4.41729e-08
8.99538e-10
2.01111e-09
3.14353e-08
1.50295e-07
-6.87592e-08
7.27981e-07
-1.72269e-07
1.25722e-06
-4.02346e-08
2.44001e-07
-6.62659e-09
6.80723e-09
-1.7805e-09
5.68387e-11
-2.24951e-09
1.46227e-11
-5.61765e-09
6.73309e-10
-1.2783e-08
-2.78283e-11
-1.93497e-08
-2.25547e-11
-2.85646e-08
6.49499e-09
-2.71689e-08
-2.90159e-09
-2.3564e-08
-1.65826e-09
-1.55885e-08
-4.38714e-09
-1.03557e-08
-2.31591e-09
-6.91078e-09
-1.78935e-09
-1.05414e-08
-1.56212e-09
-7.87915e-09
-3.60632e-09
-3.936e-09
-1.11996e-08
3.31741e-10
-1.77931e-08
5.68269e-09
-2.05814e-08
1.04855e-08
-2.86387e-08
1.05705e-08
-1.50928e-08
6.21979e-09
-2.54411e-08
1.77812e-09
-5.47126e-09
1.50837e-09
-8.53987e-10
1.64736e-09
-8.23705e-10
1.65654e-09
-2.86695e-10
2.73532e-09
-2.08777e-10
5.81895e-09
-2.9132e-10
2.15119e-08
-1.05671e-09
1.15636e-07
-4.55884e-09
2.49418e-07
-1.43865e-08
2.87804e-07
2.43112e-10
2.98889e-07
2.81033e-09
3.92169e-07
3.93901e-09
5.58943e-07
8.00933e-08
5.43338e-07
1.49529e-07
4.39895e-07
4.37362e-08
1.23346e-07
7.21957e-08
2.14783e-09
2.32145e-08
-5.34203e-07
-1.60924e-07
-3.90959e-07
-1.84636e-08
-5.53071e-07
3.34611e-06
-1.01804e-06
-7.50384e-07
-8.48924e-07
-8.47953e-07
-3.7664e-07
-2.37696e-06
8.02687e-08
-2.92158e-06
-9.64836e-07
7.82913e-06
-4.14824e-07
2.147e-06
-9.49728e-07
-6.74233e-07
-5.21189e-06
6.68545e-07
-2.5268e-07
-8.6573e-06
1.78592e-07
-3.29756e-06
3.60526e-07
-1.90348e-06
4.79066e-06
2.4406e-06
1.50535e-06
-1.88536e-06
5.14344e-07
9.46338e-06
-5.90108e-07
1.98454e-06
-2.34489e-07
-7.41969e-06
1.6136e-06
-1.64092e-05
3.5477e-07
5.34515e-07
5.19046e-07
3.60436e-07
1.82614e-07
-4.98442e-07
1.15223e-06
-9.29342e-07
2.89282e-07
1.10424e-06
5.27488e-07
-2.05677e-07
4.93425e-07
6.36873e-07
3.01065e-07
1.16716e-07
1.54368e-07
-3.41599e-07
7.11653e-07
-1.77524e-07
3.30567e-07
7.56372e-07
7.50316e-07
1.30433e-06
1.64201e-09
1.30138e-06
-3.2982e-07
4.07023e-06
-1.88094e-07
6.13772e-07
-4.64106e-08
4.04255e-08
-6.17754e-08
1.16507e-07
-1.27935e-07
1.42303e-07
-1.49566e-07
5.38158e-08
-1.91778e-07
3.15712e-10
-6.72184e-07
9.87069e-07
-9.44044e-07
7.20996e-07
-6.67866e-07
3.54305e-07
-6.85809e-08
6.07016e-07
-9.01438e-08
8.47464e-08
-2.4281e-07
1.6781e-07
-1.38144e-06
4.76506e-07
-1.41128e-06
-3.42742e-07
-6.23533e-07
-6.10223e-07
-1.18845e-07
-3.02578e-07
-1.63292e-07
-2.87783e-07
-5.96914e-07
-1.1084e-06
-3.68122e-07
-1.06856e-06
-5.28758e-08
-1.36853e-06
-2.85369e-08
1.26764e-07
-8.09112e-10
9.00691e-08
-2.51584e-10
-1.95416e-09
-1.79499e-10
-9.82451e-10
-1.93156e-10
-3.2134e-10
6.27561e-08
-2.62929e-07
2.44987e-07
-1.5449e-06
3.60482e-09
-1.23694e-07
9.16847e-10
4.68214e-09
1.22224e-08
4.66952e-08
-8.20932e-08
8.11584e-07
-8.95972e-08
1.26407e-06
-2.47498e-08
1.05327e-07
-4.94592e-09
6.86922e-09
-2.63073e-09
1.43452e-09
-5.50172e-09
2.0849e-09
-2.09168e-08
3.29732e-09
-2.74806e-08
-1.14038e-13
-2.75539e-08
6.71788e-11
-2.41709e-08
3.09552e-09
-1.443e-08
-9.83695e-10
-4.18e-09
-7.60322e-10
-1.59108e-09
-1.35417e-09
-8.60945e-10
-9.84743e-10
-6.95562e-10
-9.99965e-10
-6.65513e-10
-1.57935e-09
-8.02745e-10
-1.49229e-09
-8.06009e-10
-1.4264e-09
2.23516e-10
-1.77523e-09
2.20859e-09
-1.90324e-09
7.34462e-09
-5.02482e-09
1.42594e-08
-2.21131e-08
1.85096e-08
-2.95858e-08
7.7185e-09
-2.4837e-08
1.93565e-09
-3.62541e-09
1.56945e-09
-4.32022e-10
1.61825e-09
-3.26443e-10
1.65735e-09
-2.22244e-10
1.69581e-09
-3.20262e-10
3.13464e-09
-4.26538e-10
1.84474e-08
-2.26598e-09
1.04485e-07
-7.55947e-09
2.16975e-07
-7.01615e-11
2.25026e-07
1.51135e-09
2.26504e-07
5.48535e-09
3.18843e-07
1.31947e-08
3.88507e-07
5.26752e-08
3.25149e-07
3.04617e-08
2.10237e-07
3.02806e-08
1.6708e-09
3.80683e-08
-6.89039e-07
2.70619e-07
-6.10014e-07
-9.73971e-08
-8.52905e-07
3.58906e-06
-2.12388e-06
-5.38314e-07
-2.5558e-06
-3.63572e-07
-8.15017e-07
-3.38898e-06
-3.50188e-07
-3.11834e-06
-2.87651e-07
7.10295e-06
-6.96713e-07
1.75341e-06
-3.7237e-07
-1.34065e-06
-5.82593e-06
3.55785e-07
-1.81086e-07
-1.20335e-05
7.40503e-08
-3.5527e-06
4.04409e-07
-4.34866e-06
2.2598e-06
6.79748e-07
2.6752e-06
-9.74391e-06
2.6664e-06
9.48851e-06
5.10389e-08
4.23523e-06
-7.00543e-07
-6.68204e-06
1.46293e-06
-1.85588e-05
3.88895e-08
5.89196e-07
7.67498e-08
4.38929e-08
1.28683e-07
-5.50371e-07
6.38217e-07
-4.96242e-07
4.66962e-07
1.09003e-06
3.09704e-07
-1.60921e-07
2.95657e-07
1.07825e-06
1.59916e-07
8.39387e-08
1.3528e-07
-3.12104e-07
1.52244e-07
-1.89576e-07
5.18687e-07
2.22321e-06
6.2886e-07
1.5386e-06
1.87781e-08
1.84642e-06
-6.18545e-07
4.49932e-06
-5.83311e-07
1.11539e-06
-6.94873e-08
6.3249e-08
-4.11547e-08
1.48244e-07
-4.4999e-08
1.46148e-07
-6.37832e-08
7.25999e-08
-5.21035e-07
4.30933e-08
-7.78581e-07
4.20398e-07
-9.03695e-07
8.55077e-07
-9.57215e-07
3.98858e-07
-2.43445e-07
1.76295e-07
-1.42573e-07
5.62525e-07
-3.70373e-07
3.55543e-07
-9.11889e-07
1.47504e-07
-6.66858e-07
-2.01395e-07
-2.00961e-07
-2.31706e-07
-1.33811e-07
-1.50604e-07
-1.49998e-07
-2.71937e-07
-7.54875e-07
-4.40254e-07
-4.56836e-07
-1.27549e-06
-7.50795e-08
-1.84139e-06
-8.83063e-08
3.22042e-07
-1.36616e-09
4.55367e-07
-2.03983e-10
-2.36324e-09
-6.4592e-11
-1.13687e-09
-5.36388e-10
-2.98588e-11
1.31656e-07
-8.03766e-07
3.75685e-07
-1.79798e-06
4.51842e-08
-8.72807e-08
2.38851e-09
1.99777e-08
5.27108e-09
1.37009e-10
-6.73e-08
5.25151e-07
-3.7502e-08
1.22384e-06
-1.36972e-08
3.15543e-08
-3.20406e-09
4.09934e-09
-3.94504e-09
1.02408e-09
-1.22759e-08
6.04608e-09
-1.46883e-08
3.83663e-09
-2.08728e-08
1.07144e-10
-1.68299e-08
2.0574e-10
-8.06541e-09
1.23677e-09
-2.00632e-09
-1.88794e-10
-1.03421e-09
-5.2691e-10
-9.55831e-10
-9.27728e-10
-9.1189e-10
-1.00803e-09
-7.85317e-10
-1.11518e-09
-5.87568e-10
-1.17796e-09
-3.88662e-10
-1.6945e-09
-1.8406e-10
-1.62654e-09
2.16656e-11
-1.98122e-09
2.53371e-10
-1.91669e-09
8.78974e-10
-2.42578e-09
9.18371e-09
-2.2669e-09
1.79471e-08
-2.99916e-08
2.16554e-08
-2.82916e-08
6.97023e-09
-9.02647e-09
1.74721e-09
-1.50509e-09
1.61299e-09
-1.66587e-10
1.64484e-09
-2.44578e-10
1.69574e-09
-3.45375e-10
1.74303e-09
-4.64312e-10
8.31064e-09
-1.47981e-09
6.32261e-08
-7.30397e-09
1.58439e-07
-1.02846e-09
1.66036e-07
1.86504e-10
1.28817e-07
7.06824e-09
1.10713e-07
1.06096e-08
1.25322e-07
6.54649e-09
1.13961e-07
5.283e-09
8.81845e-08
3.45196e-09
2.9179e-09
4.68566e-08
-6.23005e-07
1.54835e-06
-5.0598e-07
-2.14365e-07
-1.16706e-06
4.25012e-06
-1.70669e-06
-3.09522e-06
-1.90902e-06
-1.0978e-07
-5.43494e-07
-4.6636e-06
-3.60324e-08
-3.3882e-06
-1.64533e-07
4.71041e-06
-2.52605e-06
3.31353e-06
-1.45662e-06
-3.5129e-06
-4.57644e-06
3.15109e-06
-1.3853e-07
-4.74029e-06
9.7428e-08
-3.78866e-06
8.2558e-07
-9.98619e-06
5.61587e-07
-2.40064e-08
2.0476e-06
-4.57584e-06
3.3234e-06
8.19639e-06
2.14351e-07
7.28905e-06
4.48062e-08
-6.49857e-06
2.26353e-06
-1.54548e-05
3.8261e-07
1.7529e-06
5.61409e-08
3.70366e-07
1.12211e-07
-6.06437e-07
9.5087e-07
-5.15532e-07
2.7858e-07
1.65539e-06
1.59727e-07
-1.55396e-07
2.93405e-07
1.41209e-06
8.3116e-08
2.78432e-07
1.36642e-07
-3.60791e-07
1.65571e-07
-2.13632e-07
1.19231e-06
2.15257e-06
3.57435e-07
4.48841e-08
1.12739e-07
3.35811e-06
-5.54308e-07
5.31752e-06
-5.99464e-07
9.52374e-07
-2.17883e-07
-7.69723e-09
-3.45871e-08
5.21156e-07
-4.62378e-08
1.57798e-07
-6.44961e-08
9.08582e-08
-2.45183e-07
6.86895e-08
-6.49448e-07
2.50216e-07
-4.76984e-07
4.38012e-07
-6.18065e-07
9.41893e-08
-8.23005e-07
7.58955e-08
-2.68613e-07
1.77896e-06
-4.2425e-07
8.26677e-07
-4.21385e-07
4.36915e-07
-2.0817e-07
-9.6709e-08
-1.45574e-07
-1.0415e-07
-1.41039e-07
-1.55072e-07
-1.08702e-07
-2.94915e-07
-1.27037e-07
-4.22555e-07
-4.04821e-07
-8.05807e-07
-6.48597e-08
-2.09024e-06
-1.24632e-07
5.79421e-07
-1.40002e-09
1.06615e-06
-3.4131e-10
-2.18961e-09
-1.13244e-10
-1.34991e-09
3.34087e-09
-1.04227e-07
2.025e-07
-1.012e-06
3.97528e-07
-1.99994e-06
1.29129e-07
-8.65358e-08
1.70457e-10
9.44594e-08
1.32399e-10
3.31576e-10
-2.84238e-08
1.1634e-07
-2.06833e-09
4.80288e-07
-6.07342e-09
5.91946e-11
-2.04482e-09
2.61422e-09
-3.00585e-09
5.23422e-10
-1.43317e-08
1.13051e-08
-1.44095e-08
2.30298e-09
-7.30079e-09
8.46232e-11
-3.21447e-09
1.27962e-14
-1.43203e-09
6.42078e-14
-1.11401e-09
-1.66373e-10
-1.03942e-09
-4.70186e-10
-1.03441e-09
-9.05712e-10
-9.94446e-10
-1.03656e-09
-8.426e-10
-6.67532e-10
-6.39917e-10
-1.38396e-09
-4.07998e-10
-1.92197e-09
-1.72994e-10
-1.86268e-09
3.15038e-11
-1.96746e-09
2.56959e-10
-2.08292e-09
5.11784e-10
-2.54096e-09
7.5451e-10
-2.2017e-09
1.11152e-08
-2.55563e-09
2.43676e-08
-3.90599e-08
2.12484e-08
-1.3267e-08
4.40487e-09
-3.63476e-09
1.68579e-09
-2.55396e-10
1.65634e-09
-1.89339e-10
1.69939e-09
-3.78464e-10
1.75375e-09
-4.92877e-10
4.89876e-09
-9.32389e-10
5.78174e-08
-3.62535e-09
1.53729e-07
-1.78176e-09
1.26413e-07
4.66439e-12
3.56388e-08
3.09405e-08
1.70552e-08
1.43469e-08
1.62963e-08
2.65139e-09
1.5999e-08
5.21921e-09
1.43384e-08
-9.06835e-10
8.01593e-10
1.28628e-08
-9.5085e-07
9.30737e-06
-1.4122e-06
-7.13068e-09
-6.24907e-07
3.96545e-06
-9.82529e-07
-2.18862e-06
-4.2563e-07
2.03065e-07
-2.04109e-07
-4.89244e-06
2.57862e-07
-3.84285e-06
1.92099e-07
1.82799e-06
-3.50101e-06
3.90622e-06
-2.44547e-06
-4.53242e-07
-1.07113e-06
7.80168e-06
-2.0241e-07
-4.80253e-06
5.78348e-07
-6.21429e-06
1.62578e-06
-9.85783e-06
6.22666e-07
-6.80812e-07
1.02048e-06
-3.77286e-06
3.25014e-06
5.98305e-06
2.11129e-07
1.99631e-05
3.48252e-08
-6.33619e-06
8.72559e-07
-4.10752e-06
2.23247e-06
1.25032e-06
1.7416e-07
2.20556e-06
1.16263e-07
-5.48537e-07
1.38643e-06
-8.79903e-07
5.95356e-07
2.82257e-06
1.72753e-07
-8.56014e-07
2.10664e-07
1.68493e-06
1.04242e-07
4.7739e-07
1.42006e-07
-3.9377e-07
1.58669e-07
-2.25563e-07
1.46303e-06
1.80002e-06
6.97444e-07
6.79779e-08
2.02068e-07
4.00488e-06
-5.61579e-07
5.87042e-06
-3.83761e-07
9.2565e-07
-5.66393e-07
-6.84264e-08
-1.54167e-07
5.89009e-07
-4.74957e-08
9.28341e-07
-5.83506e-08
1.01713e-07
-1.02648e-07
1.12987e-07
-2.47649e-07
5.90245e-11
-1.54499e-07
3.14441e-08
-2.75807e-07
7.30158e-12
-7.34637e-07
6.83756e-08
-9.2989e-07
1.27379e-06
-6.87735e-07
1.56961e-06
-2.82167e-07
5.66678e-07
-1.70551e-07
-6.82297e-09
-1.6078e-07
-1.13934e-07
-1.45022e-07
-1.61545e-07
-1.08922e-07
-3.31287e-07
-8.06091e-08
-4.4946e-07
-4.28731e-07
-3.91953e-07
-2.82156e-07
-2.32793e-06
-3.89377e-07
4.18776e-07
-1.35217e-09
3.9537e-07
-6.51378e-10
-1.65314e-09
-1.11052e-09
-2.73464e-09
3.34704e-08
-5.40287e-07
2.10778e-07
-1.19775e-06
4.01075e-07
-2.19929e-06
2.25925e-07
-4.94604e-07
2.39346e-09
2.26386e-07
1.37877e-10
2.74543e-09
-3.33398e-09
1.94029e-09
2.44716e-09
1.5814e-08
-1.43263e-09
2.59096e-09
-1.48913e-09
1.38119e-09
-4.11573e-09
7.32396e-10
-9.613e-09
1.09507e-08
-5.23827e-09
4.57277e-10
-1.61526e-09
6.76347e-14
-1.24573e-09
3.97526e-14
-1.18674e-09
4.76833e-13
-1.10975e-09
-1.34495e-10
-1.1547e-09
-1.36345e-10
-1.12806e-09
-9.12065e-10
-1.58825e-09
-5.56584e-10
-3.44445e-08
-3.78486e-08
-5.18561e-08
-2.93162e-07
-2.48409e-08
-3.8709e-07
-3.20273e-10
-2.6532e-07
3.65937e-11
-2.14752e-08
2.11025e-10
-2.11838e-09
4.87933e-10
-2.49583e-09
7.28853e-10
-2.44523e-09
9.90841e-10
-2.29658e-09
1.33961e-08
-5.54229e-09
2.24127e-08
-2.97009e-08
1.74284e-08
-1.71074e-08
2.46244e-09
-2.46436e-09
1.58288e-09
-4.27902e-10
1.68229e-09
-4.51916e-10
1.74396e-09
-5.44592e-10
2.48721e-09
-1.93502e-12
2.0506e-08
-1.52894e-09
1.33279e-07
-1.15712e-09
1.15152e-07
1.64249e-09
9.47382e-08
2.98873e-08
2.2461e-08
4.69647e-08
1.42576e-08
1.27351e-08
1.19227e-08
5.67374e-09
1.6981e-08
1.02932e-08
3.69855e-09
2.01379e-08
-1.02195e-06
3.1815e-05
-1.03039e-06
-1.65506e-07
-7.98493e-07
3.65829e-06
-4.94487e-07
2.08989e-09
-8.5358e-07
9.02728e-07
-6.82119e-07
-5.05658e-06
-1.04716e-07
-5.57443e-06
2.07036e-07
1.52354e-06
-3.23647e-07
5.37122e-06
-2.22317e-06
1.81794e-06
-5.41278e-07
1.18797e-05
9.20428e-09
-3.11696e-06
1.81637e-07
-1.94884e-06
1.98422e-06
-7.33003e-06
2.18382e-06
-2.64922e-06
9.42456e-07
-2.78068e-06
2.92842e-06
3.98076e-06
4.60982e-07
3.03573e-05
1.30301e-06
-7.15794e-06
5.70227e-07
-4.36166e-06
2.77681e-06
1.39888e-06
2.31294e-07
5.8047e-06
1.48349e-07
-7.36527e-07
8.97891e-07
-5.11519e-07
1.01228e-06
2.60063e-06
7.5458e-07
-4.93875e-07
2.41651e-07
1.74323e-06
8.77314e-08
6.05995e-07
1.27927e-07
-4.29201e-07
1.54825e-07
-2.4774e-07
1.05838e-06
3.14263e-07
4.12156e-07
1.22721e-07
2.57006e-07
1.89966e-06
-4.91906e-07
6.80231e-06
-2.46074e-07
4.48745e-07
-3.19746e-07
-7.1526e-08
-3.43587e-07
6.92979e-07
-9.4073e-08
1.42811e-06
-6.33687e-08
3.46719e-07
-7.43758e-08
2.21403e-07
-7.16333e-08
3.24048e-07
-8.5792e-08
2.74155e-07
-9.60854e-08
4.67964e-08
-7.43172e-07
4.9636e-08
-8.39235e-07
5.29704e-07
-9.87212e-07
1.70492e-06
-6.48683e-07
8.05189e-07
-1.77586e-07
-1.08736e-07
-1.56247e-07
-1.27446e-07
-1.41524e-07
-1.77263e-07
-1.06726e-07
-3.76417e-07
-5.64006e-08
-4.93675e-07
-2.63471e-07
-1.90993e-07
-1.72225e-07
-1.41377e-06
-1.47745e-07
1.47955e-07
1.61156e-09
1.15275e-07
-4.50435e-10
-8.0652e-09
-5.40925e-09
-1.10092e-08
4.90569e-08
-9.92307e-07
1.73194e-07
-1.50479e-06
3.3886e-07
-2.35737e-06
5.14458e-07
-1.48521e-06
1.91686e-10
5.18542e-07
1.01733e-10
2.99415e-09
-2.15997e-11
2.07621e-09
-2.47267e-10
3.18434e-09
-4.94956e-10
2.85749e-09
-6.88573e-10
1.57972e-09
-7.22667e-09
5.61051e-09
-6.82791e-09
4.66083e-09
-2.28095e-09
3.27054e-10
-1.31767e-09
4.06617e-13
-1.31325e-09
3.25314e-11
-1.4194e-09
2.58528e-10
-1.32019e-09
-2.74843e-11
-1.03823e-09
-8.25248e-11
-1.83933e-09
-4.3285e-12
-5.64909e-08
-5.18641e-08
-2.24158e-07
-2.84251e-07
-2.19719e-07
-9.72025e-07
-1.30334e-07
-1.06204e-06
-2.76967e-08
-1.07409e-06
1.63995e-09
-4.35065e-07
2.18306e-10
-5.71994e-10
4.82006e-10
-2.60307e-09
8.29683e-10
-2.53136e-09
9.59184e-10
-2.45581e-09
2.11397e-09
-2.31782e-09
1.82468e-08
-1.412e-08
2.87424e-08
-1.81906e-08
1.62568e-08
-1.03656e-08
5.05e-09
-2.06087e-09
1.53296e-09
-1.29112e-09
1.61555e-09
-5.29628e-10
2.28369e-09
-7.21672e-10
9.22208e-09
-1.71978e-12
6.30337e-08
-5.39635e-10
1.14911e-07
5.21554e-09
1.25292e-07
3.3719e-08
8.71157e-08
6.75272e-08
5.69097e-08
4.41272e-08
5.73511e-08
4.21055e-08
7.39706e-08
2.53854e-08
9.84118e-09
7.57349e-08
-2.78281e-06
6.24635e-06
-8.81805e-07
-1.56704e-07
-1.40532e-06
4.1834e-06
-1.25981e-06
-4.3196e-08
-2.81659e-06
2.61882e-06
-3.1167e-06
-7.6615e-06
-7.48296e-07
-1.0537e-05
-7.14888e-07
1.48283e-06
-1.5896e-06
8.55036e-06
-4.39652e-06
4.61287e-06
-1.79898e-06
2.75508e-05
-4.53715e-08
-7.43287e-06
1.13656e-07
-2.10787e-06
7.64274e-07
-9.4449e-07
2.24924e-06
-2.01438e-06
8.2452e-07
-1.54907e-06
2.6077e-06
2.58254e-06
5.82053e-07
3.23792e-05
1.37242e-06
-7.17253e-06
7.01645e-07
-2.7047e-06
1.43308e-06
8.07321e-08
1.10301e-06
6.12566e-06
1.47964e-07
-4.75162e-07
2.58817e-07
-2.93843e-07
1.21201e-06
1.75499e-06
6.82606e-07
-1.82871e-07
6.33206e-07
1.99004e-06