/*--------------------------------*- C++ -*----------------------------------*\
| =========                 |                                                 |
| \\      /  F ield         | OpenFOAM: The Open Source CFD Toolbox           |
|  \\    /   O peration     | Version:  v1912                                 |
|   \\  /    A nd           | Website:  www.openfoam.com                      |
|    \\/     M anipulation  |                                                 |
\*---------------------------------------------------------------------------*/
FoamFile
{
    version     2.0;
    format      ascii;
    class       volSymmTensorField;
    location    "10";
    object      R;
}
// * * * * * * * * * * * * * * * * * * * * * * * * * * * * * * * * * * * * * //

dimensions      [0 2 -2 0 0 0 0];


internalField   nonuniform List<symmTensor> 
14268
(
(5.84083e-08 -1.20478e-09 0 5.8126e-08 0 5.82623e-08)
(5.83994e-08 -1.20743e-09 0 5.80933e-08 0 5.82412e-08)
(5.83924e-08 -1.21018e-09 0 5.80584e-08 0 5.82202e-08)
(5.83878e-08 -1.21215e-09 0 5.80104e-08 0 5.8193e-08)
(5.83832e-08 -1.2151e-09 0 5.7973e-08 0 5.81732e-08)
(5.84012e-08 -1.22185e-09 0 5.79868e-08 0 5.81874e-08)
(5.8349e-08 -1.2155e-09 0 5.7786e-08 0 5.80624e-08)
(5.82006e-08 -1.18594e-09 0 5.71682e-08 0 5.76776e-08)
(2.37395e-07 -1.42999e-08 0 2.35736e-07 0 2.36621e-07)
(2.3739e-07 -1.43123e-08 0 2.35581e-07 0 2.36541e-07)
(2.37389e-07 -1.43264e-08 0 2.35417e-07 0 2.36458e-07)
(2.37406e-07 -1.43403e-08 0 2.35218e-07 0 2.36365e-07)
(2.37406e-07 -1.43627e-08 0 2.35059e-07 0 2.3629e-07)
(2.37433e-07 -1.4401e-08 0 2.35076e-07 0 2.36306e-07)
(2.37342e-07 -1.43576e-08 0 2.34093e-07 0 2.35787e-07)
(2.37082e-07 -1.41417e-08 0 2.31056e-07 0 2.3416e-07)
(2.6064e-07 -1.7485e-08 0 2.58673e-07 0 2.59596e-07)
(2.60706e-07 -1.74782e-08 0 2.58586e-07 0 2.59584e-07)
(2.60782e-07 -1.7471e-08 0 2.5849e-07 0 2.59574e-07)
(2.60886e-07 -1.74603e-08 0 2.5837e-07 0 2.59562e-07)
(2.60943e-07 -1.74504e-08 0 2.58262e-07 0 2.59544e-07)
(2.6096e-07 -1.74542e-08 0 2.5829e-07 0 2.59556e-07)
(2.61373e-07 -1.74158e-08 0 2.57757e-07 0 2.59492e-07)
(2.62769e-07 -1.73534e-08 0 2.56095e-07 0 2.59323e-07)
(2.61874e-07 -1.78852e-08 0 2.59531e-07 0 2.60773e-07)
(2.61952e-07 -1.78769e-08 0 2.59454e-07 0 2.60773e-07)
(2.6204e-07 -1.78686e-08 0 2.59373e-07 0 2.60775e-07)
(2.62158e-07 -1.78579e-08 0 2.59266e-07 0 2.60777e-07)
(2.62231e-07 -1.78495e-08 0 2.59183e-07 0 2.60774e-07)
(2.62235e-07 -1.78542e-08 0 2.59186e-07 0 2.60774e-07)
(2.62667e-07 -1.78258e-08 0 2.58613e-07 0 2.60727e-07)
(2.642e-07 -1.78051e-08 0 2.56915e-07 0 2.60678e-07)
(2.62168e-07 -1.79376e-08 0 2.60096e-07 0 2.61059e-07)
(2.62243e-07 -1.79301e-08 0 2.60014e-07 0 2.61056e-07)
(2.62329e-07 -1.79222e-08 0 2.59923e-07 0 2.61055e-07)
(2.62445e-07 -1.7911e-08 0 2.59811e-07 0 2.61056e-07)
(2.62509e-07 -1.78985e-08 0 2.59701e-07 0 2.61044e-07)
(2.62529e-07 -1.79042e-08 0 2.59742e-07 0 2.6106e-07)
(2.63021e-07 -1.78894e-08 0 2.59279e-07 0 2.61068e-07)
(2.64669e-07 -1.78801e-08 0 2.57835e-07 0 2.61133e-07)
(2.61931e-07 -1.7925e-08 0 2.59559e-07 0 2.60824e-07)
(2.62014e-07 -1.79171e-08 0 2.5949e-07 0 2.60828e-07)
(2.62107e-07 -1.79095e-08 0 2.59417e-07 0 2.60835e-07)
(2.6223e-07 -1.78993e-08 0 2.5932e-07 0 2.60842e-07)
(2.62307e-07 -1.78897e-08 0 2.59248e-07 0 2.60843e-07)
(2.62307e-07 -1.78975e-08 0 2.59238e-07 0 2.60838e-07)
(2.62749e-07 -1.78866e-08 0 2.58672e-07 0 2.60801e-07)
(2.64318e-07 -1.78733e-08 0 2.57021e-07 0 2.60785e-07)
(2.62177e-07 -1.79423e-08 0 2.60117e-07 0 2.61067e-07)
(2.62249e-07 -1.79348e-08 0 2.60028e-07 0 2.61062e-07)
(2.62333e-07 -1.79271e-08 0 2.5993e-07 0 2.61058e-07)
(2.62446e-07 -1.79157e-08 0 2.59809e-07 0 2.61056e-07)
(2.62508e-07 -1.79022e-08 0 2.59694e-07 0 2.61042e-07)
(2.62531e-07 -1.79128e-08 0 2.59745e-07 0 2.61062e-07)
(2.63026e-07 -1.79149e-08 0 2.59283e-07 0 2.61072e-07)
(2.64661e-07 -1.79024e-08 0 2.57806e-07 0 2.61123e-07)
(2.61925e-07 -1.79262e-08 0 2.59539e-07 0 2.60818e-07)
(2.62012e-07 -1.79186e-08 0 2.59478e-07 0 2.60825e-07)
(2.62108e-07 -1.79118e-08 0 2.59414e-07 0 2.60836e-07)
(2.62237e-07 -1.7902e-08 0 2.59327e-07 0 2.60848e-07)
(2.62315e-07 -1.78911e-08 0 2.59259e-07 0 2.6085e-07)
(2.62313e-07 -1.79024e-08 0 2.59245e-07 0 2.60845e-07)
(2.62764e-07 -1.79081e-08 0 2.58686e-07 0 2.60814e-07)
(2.64353e-07 -1.78937e-08 0 2.57078e-07 0 2.60818e-07)
(2.62183e-07 -1.79445e-08 0 2.60135e-07 0 2.61073e-07)
(2.62253e-07 -1.79368e-08 0 2.60038e-07 0 2.61065e-07)
(2.62334e-07 -1.79293e-08 0 2.59932e-07 0 2.61059e-07)
(2.62444e-07 -1.79177e-08 0 2.59802e-07 0 2.61053e-07)
(2.62505e-07 -1.79033e-08 0 2.59686e-07 0 2.61039e-07)
(2.62529e-07 -1.79186e-08 0 2.59739e-07 0 2.61059e-07)
(2.63026e-07 -1.79374e-08 0 2.59275e-07 0 2.61071e-07)
(2.64643e-07 -1.79206e-08 0 2.57749e-07 0 2.61105e-07)
(2.61921e-07 -1.79276e-08 0 2.5952e-07 0 2.60813e-07)
(2.62011e-07 -1.79204e-08 0 2.59469e-07 0 2.60824e-07)
(2.62112e-07 -1.79144e-08 0 2.59415e-07 0 2.6084e-07)
(2.62249e-07 -1.79052e-08 0 2.59344e-07 0 2.6086e-07)
(2.62326e-07 -1.78926e-08 0 2.59274e-07 0 2.60861e-07)
(2.62328e-07 -1.7908e-08 0 2.59266e-07 0 2.60859e-07)
(2.62792e-07 -1.79307e-08 0 2.58718e-07 0 2.60839e-07)
(2.64406e-07 -1.79156e-08 0 2.57179e-07 0 2.60871e-07)
(2.62193e-07 -1.79512e-08 0 2.60158e-07 0 2.61081e-07)
(2.6226e-07 -1.79434e-08 0 2.60053e-07 0 2.61071e-07)
(2.62337e-07 -1.79361e-08 0 2.59937e-07 0 2.61061e-07)
(2.62442e-07 -1.79243e-08 0 2.59792e-07 0 2.6105e-07)
(2.62504e-07 -1.79088e-08 0 2.5968e-07 0 2.61037e-07)
(2.62526e-07 -1.79281e-08 0 2.59726e-07 0 2.61056e-07)
(2.63023e-07 -1.79606e-08 0 2.59257e-07 0 2.61067e-07)
(2.64617e-07 -1.79378e-08 0 2.57663e-07 0 2.61078e-07)
(2.61936e-07 -1.79985e-08 0 2.59488e-07 0 2.60814e-07)
(2.62032e-07 -1.79952e-08 0 2.59447e-07 0 2.60831e-07)
(2.62141e-07 -1.79926e-08 0 2.59406e-07 0 2.60853e-07)
(2.62288e-07 -1.79851e-08 0 2.59356e-07 0 2.60882e-07)
(2.62361e-07 -1.79691e-08 0 2.59281e-07 0 2.60881e-07)
(2.62373e-07 -1.7986e-08 0 2.59294e-07 0 2.6089e-07)
(2.62843e-07 -1.7998e-08 0 2.58768e-07 0 2.60881e-07)
(2.64489e-07 -1.79573e-08 0 2.57322e-07 0 2.60948e-07)
(2.62596e-07 -1.90403e-08 0 2.60163e-07 0 2.61267e-07)
(2.62681e-07 -1.90969e-08 0 2.60045e-07 0 2.61262e-07)
(2.62774e-07 -1.91481e-08 0 2.59914e-07 0 2.61256e-07)
(2.62885e-07 -1.91761e-08 0 2.59748e-07 0 2.61244e-07)
(2.62944e-07 -1.91534e-08 0 2.5964e-07 0 2.6123e-07)
(2.62936e-07 -1.9114e-08 0 2.59665e-07 0 2.6123e-07)
(2.63267e-07 -1.87803e-08 0 2.59177e-07 0 2.61158e-07)
(2.64645e-07 -1.82758e-08 0 2.57425e-07 0 2.61039e-07)
(2.62418e-07 -1.92965e-08 0 2.59419e-07 0 2.61038e-07)
(2.62568e-07 -1.94286e-08 0 2.59389e-07 0 2.61081e-07)
(2.62726e-07 -1.95581e-08 0 2.59353e-07 0 2.61125e-07)
(2.62953e-07 -1.9756e-08 0 2.59316e-07 0 2.61192e-07)
(2.63072e-07 -1.98815e-08 0 2.59228e-07 0 2.61207e-07)
(2.63149e-07 -2.00008e-08 0 2.59273e-07 0 2.61252e-07)
(2.63626e-07 -2.0053e-08 0 2.58751e-07 0 2.61241e-07)
(2.65894e-07 -2.12327e-08 0 2.57531e-07 0 2.61649e-07)
(2.62136e-07 -1.79727e-08 0 2.59978e-07 0 2.61026e-07)
(2.6223e-07 -1.80204e-08 0 2.59892e-07 0 2.61031e-07)
(2.62323e-07 -1.80497e-08 0 2.59803e-07 0 2.61034e-07)
(2.62481e-07 -1.81676e-08 0 2.59678e-07 0 2.61052e-07)
(2.62603e-07 -1.82797e-08 0 2.59578e-07 0 2.61065e-07)
(2.62701e-07 -1.85178e-08 0 2.59581e-07 0 2.61112e-07)
(2.63286e-07 -1.90835e-08 0 2.59171e-07 0 2.61195e-07)
(2.65904e-07 -2.16415e-08 0 2.57426e-07 0 2.6167e-07)
(2.61934e-07 -1.7802e-08 0 2.59681e-07 0 2.60863e-07)
(2.62004e-07 -1.77545e-08 0 2.59618e-07 0 2.60862e-07)
(2.62084e-07 -1.77041e-08 0 2.59555e-07 0 2.60865e-07)
(2.62192e-07 -1.76432e-08 0 2.59475e-07 0 2.60869e-07)
(2.62235e-07 -1.75706e-08 0 2.5937e-07 0 2.60847e-07)
(2.62251e-07 -1.75591e-08 0 2.59443e-07 0 2.60873e-07)
(2.62654e-07 -1.77509e-08 0 2.58965e-07 0 2.60871e-07)
(2.64606e-07 -1.82526e-08 0 2.57713e-07 0 2.61127e-07)
(2.62164e-07 -1.79151e-08 0 2.60097e-07 0 2.61059e-07)
(2.62233e-07 -1.79154e-08 0 2.6e-07 0 2.61051e-07)
(2.62308e-07 -1.79178e-08 0 2.59897e-07 0 2.61045e-07)
(2.62416e-07 -1.79172e-08 0 2.59761e-07 0 2.61037e-07)
(2.62494e-07 -1.79035e-08 0 2.59677e-07 0 2.61035e-07)
(2.62484e-07 -1.79543e-08 0 2.59658e-07 0 2.6103e-07)
(2.62922e-07 -1.8047e-08 0 2.59391e-07 0 2.61083e-07)
(2.64422e-07 -1.8134e-08 0 2.57485e-07 0 2.60983e-07)
(2.61941e-07 -1.80074e-08 0 2.59547e-07 0 2.60838e-07)
(2.62032e-07 -1.79882e-08 0 2.59501e-07 0 2.60851e-07)
(2.62133e-07 -1.79747e-08 0 2.59454e-07 0 2.60868e-07)
(2.62263e-07 -1.7951e-08 0 2.59389e-07 0 2.60886e-07)
(2.62319e-07 -1.79129e-08 0 2.59286e-07 0 2.60872e-07)
(2.62352e-07 -1.79246e-08 0 2.59393e-07 0 2.60912e-07)
(2.62684e-07 -1.80962e-08 0 2.58816e-07 0 2.60857e-07)
(2.64472e-07 -1.80207e-08 0 2.57675e-07 0 2.61053e-07)
(2.62212e-07 -1.79051e-08 0 2.60218e-07 0 2.61102e-07)
(2.62274e-07 -1.79059e-08 0 2.60108e-07 0 2.61089e-07)
(2.62346e-07 -1.79106e-08 0 2.59995e-07 0 2.61079e-07)
(2.6245e-07 -1.79131e-08 0 2.59846e-07 0 2.61066e-07)
(2.62523e-07 -1.78934e-08 0 2.59757e-07 0 2.61062e-07)
(2.62497e-07 -1.79609e-08 0 2.59718e-07 0 2.61049e-07)
(2.62975e-07 -1.80648e-08 0 2.59554e-07 0 2.61141e-07)
(2.64448e-07 -1.81783e-08 0 2.57547e-07 0 2.61006e-07)
(2.61873e-07 -1.80365e-08 0 2.59396e-07 0 2.60771e-07)
(2.6197e-07 -1.80154e-08 0 2.59365e-07 0 2.60791e-07)
(2.62077e-07 -1.80013e-08 0 2.5933e-07 0 2.60815e-07)
(2.62213e-07 -1.79736e-08 0 2.59275e-07 0 2.60837e-07)
(2.62272e-07 -1.79323e-08 0 2.59183e-07 0 2.60826e-07)
(2.62314e-07 -1.79445e-08 0 2.59319e-07 0 2.60877e-07)
(2.62602e-07 -1.81933e-08 0 2.58637e-07 0 2.60779e-07)
(2.64438e-07 -1.80948e-08 0 2.57541e-07 0 2.61012e-07)
(2.62308e-07 -1.80776e-08 0 2.6035e-07 0 2.61172e-07)
(2.62354e-07 -1.80389e-08 0 2.60231e-07 0 2.61149e-07)
(2.62413e-07 -1.8012e-08 0 2.60108e-07 0 2.6113e-07)
(2.62497e-07 -1.79604e-08 0 2.59944e-07 0 2.61104e-07)
(2.6254e-07 -1.78624e-08 0 2.59839e-07 0 2.6108e-07)
(2.62448e-07 -1.78067e-08 0 2.59776e-07 0 2.61032e-07)
(2.62994e-07 -1.807e-08 0 2.59717e-07 0 2.61175e-07)
(2.64222e-07 -1.7284e-08 0 2.57663e-07 0 2.60884e-07)
(2.62001e-07 -1.797e-08 0 2.59701e-07 0 2.60901e-07)
(2.62087e-07 -1.79548e-08 0 2.59648e-07 0 2.6091e-07)
(2.62192e-07 -1.79602e-08 0 2.59589e-07 0 2.60926e-07)
(2.62321e-07 -1.79181e-08 0 2.5949e-07 0 2.60931e-07)
(2.62372e-07 -1.7876e-08 0 2.59432e-07 0 2.60929e-07)
(2.62349e-07 -1.77844e-08 0 2.59497e-07 0 2.60935e-07)
(2.62934e-07 -1.82886e-08 0 2.58979e-07 0 2.60998e-07)
(2.6464e-07 -1.84296e-08 0 2.57434e-07 0 2.61063e-07)
(2.62183e-07 -1.79332e-08 0 2.60047e-07 0 2.61051e-07)
(2.62237e-07 -1.79266e-08 0 2.5995e-07 0 2.61039e-07)
(2.62317e-07 -1.79275e-08 0 2.59837e-07 0 2.6103e-07)
(2.62433e-07 -1.79223e-08 0 2.59695e-07 0 2.61022e-07)
(2.62511e-07 -1.78349e-08 0 2.59554e-07 0 2.61001e-07)
(2.62394e-07 -1.81822e-08 0 2.59774e-07 0 2.61051e-07)
(2.62839e-07 -1.85424e-08 0 2.59624e-07 0 2.61159e-07)
(2.64815e-07 -1.80456e-08 0 2.57483e-07 0 2.61088e-07)
(2.62001e-07 -1.81526e-08 0 2.59611e-07 0 2.6088e-07)
(2.62085e-07 -1.81428e-08 0 2.59573e-07 0 2.60894e-07)
(2.62194e-07 -1.81673e-08 0 2.59526e-07 0 2.60915e-07)
(2.62357e-07 -1.81417e-08 0 2.59409e-07 0 2.60927e-07)
(2.62292e-07 -1.80403e-08 0 2.5945e-07 0 2.60912e-07)
(2.62146e-07 -1.79516e-08 0 2.59658e-07 0 2.60926e-07)
(2.6304e-07 -1.90766e-08 0 2.58853e-07 0 2.61047e-07)
(2.65226e-07 -1.94311e-08 0 2.56914e-07 0 2.61161e-07)
(2.60607e-07 2.3402e-08 0 2.59332e-07 0 2.59866e-07)
(2.61393e-07 2.63836e-08 0 2.59441e-07 0 2.60298e-07)
(2.62326e-07 2.93303e-08 0 2.5954e-07 0 2.60796e-07)
(2.63465e-07 3.22942e-08 0 2.59583e-07 0 2.61375e-07)
(2.64784e-07 3.5684e-08 0 2.59434e-07 0 2.62079e-07)
(2.65497e-07 3.92936e-08 0 2.55824e-07 0 2.62706e-07)
(2.65449e-07 4.00879e-08 0 2.07923e-07 0 2.61953e-07)
(2.52959e-07 1.62661e-08 0 6.87335e-08 0 2.49802e-07)
(2.54794e-07 7.19732e-08 0 1e-15 0 2.29563e-07)
(2.50947e-07 7.55754e-08 0 1e-15 0 2.27396e-07)
(2.45499e-07 7.88622e-08 0 1e-15 0 2.24279e-07)
(2.39716e-07 8.22371e-08 0 1e-15 0 2.21165e-07)
(2.30754e-07 8.47692e-08 0 1e-15 0 2.16052e-07)
(2.19765e-07 8.23222e-08 0 1e-15 0 2.09871e-07)
(2.11466e-07 6.89633e-08 0 1e-15 0 2.06462e-07)
(3.49264e-07 4.46198e-08 0 1e-15 0 3.07114e-07)
(9.86314e-06 -9.61471e-07 0 1e-15 0 6.87502e-06)
(6.70527e-06 -6.45778e-07 0 1e-15 0 4.67227e-06)
(7.30782e-06 -6.94773e-07 0 1e-15 0 5.08323e-06)
(1.6779e-05 -1.58822e-06 0 1e-15 0 1.16453e-05)
(1.75759e-05 -1.67629e-06 0 1e-15 0 1.21752e-05)
(1.45914e-05 -1.40981e-06 0 1e-15 0 1.00912e-05)
(1.27715e-06 -1.21917e-07 0 1e-15 0 8.86405e-07)
(1.80545e-05 -1.61499e-06 0 1e-15 0 1.25582e-05)
(5.74631e-06 1.35233e-06 0 1e-15 0 4.89941e-06)
(5.50801e-06 1.23811e-06 0 1e-15 0 4.69292e-06)
(5.19675e-06 1.12747e-06 0 1e-15 0 4.4305e-06)
(4.87087e-06 1.02339e-06 0 1e-15 0 4.15171e-06)
(4.59752e-06 9.40958e-07 0 1e-15 0 3.91217e-06)
(3.51097e-06 7.54783e-07 0 1e-15 0 3.07919e-06)
(1.42466e-06 3.82501e-07 0 1e-15 0 1.42209e-06)
(1.44151e-06 1.88891e-07 0 1e-15 0 1.34046e-06)
(0.00322176 0.000617118 0 1e-15 0 0.00227744)
(0.0025298 0.000463853 0 1e-15 0 0.00178859)
(0.00195694 0.000345335 0 1e-15 0 0.00138426)
(0.00155667 0.000261987 0 1e-15 0 0.00109963)
(0.00121518 0.000192793 0 1e-15 0 0.000858768)
(0.000861345 0.000140044 0 1e-15 0 0.000612358)
(0.000561753 0.000110936 0 1e-15 0 0.000407874)
(0.000425353 0.000105978 0 1e-15 0 0.000314916)
(0.00180726 0.000622323 0 0.000751219 0 0.00123789)
(0.00157789 0.000545894 0 0.000654007 0 0.00108097)
(0.00137187 0.000478286 0 0.000568098 0 0.000941443)
(0.00116076 0.00041588 0 0.000486706 0 0.0008012)
(0.000889555 0.000341738 0 0.000393953 0 0.000621833)
(0.000619302 0.000259161 0 0.000301931 0 0.000444203)
(0.000492313 0.000215072 0 0.00025734 0 0.000362814)
(0.000491564 0.000192618 0 0.000230972 0 0.000353033)
(3.11075e-05 1.21646e-05 0 1.55465e-05 0 2.27568e-05)
(4.29135e-05 1.7331e-05 0 2.22852e-05 0 3.17884e-05)
(5.49229e-05 2.30134e-05 0 2.99832e-05 0 4.13262e-05)
(6.51873e-05 2.78585e-05 0 3.71457e-05 0 4.96891e-05)
(7.56193e-05 3.16606e-05 0 4.32063e-05 0 5.76027e-05)
(9.48572e-05 3.75475e-05 0 5.16765e-05 0 7.11908e-05)
(0.000138878 5.19919e-05 0 7.00423e-05 0 0.000101963)
(0.000229826 8.15349e-05 0 0.000104381 0 0.000163288)
(1.39819e-05 3.62201e-06 0 4.80821e-06 0 9.96147e-06)
(1.91171e-05 5.05276e-06 0 6.66192e-06 0 1.35958e-05)
(2.44171e-05 6.54193e-06 0 8.60139e-06 0 1.72595e-05)
(3.06841e-05 8.25584e-06 0 1.08524e-05 0 2.14741e-05)
(3.9215e-05 1.00271e-05 0 1.36756e-05 0 2.70837e-05)
(5.72186e-05 1.29833e-05 0 1.96677e-05 0 3.8865e-05)
(9.77359e-05 1.89127e-05 0 3.24497e-05 0 6.54589e-05)
(0.000189178 3.76958e-05 0 6.15109e-05 0 0.000125726)
(5.43442e-06 1.23119e-06 0 2.70446e-06 0 4.00301e-06)
(7.57403e-06 1.8089e-06 0 3.69067e-06 0 5.48751e-06)
(1.00452e-05 2.44195e-06 0 4.74953e-06 0 7.15339e-06)
(1.35272e-05 3.24241e-06 0 5.99429e-06 0 9.41521e-06)
(1.87369e-05 4.16013e-06 0 7.61388e-06 0 1.27452e-05)
(3.03997e-05 6.21568e-06 0 1.1235e-05 0 2.03092e-05)
(5.62039e-05 1.01796e-05 0 1.96851e-05 0 3.72777e-05)
(0.000116204 1.9146e-05 0 4.01308e-05 0 7.7238e-05)
(1.94172e-06 9.32323e-08 0 4.9054e-07 0 1.39984e-06)
(2.74076e-06 1.55181e-07 0 6.39585e-07 0 1.93263e-06)
(3.68281e-06 2.42925e-07 0 8.70992e-07 0 2.54955e-06)
(5.04881e-06 4.03007e-07 0 1.24837e-06 0 3.43246e-06)
(7.32763e-06 6.14959e-07 0 1.87119e-06 0 4.89738e-06)
(1.23898e-05 9.83287e-07 0 3.2661e-06 0 8.17307e-06)
(2.26222e-05 1.99859e-06 0 6.35042e-06 0 1.50231e-05)
(4.31674e-05 4.62092e-06 0 1.29778e-05 0 2.90665e-05)
(6.22628e-07 3.87669e-08 0 3.96471e-07 0 5.09654e-07)
(8.28212e-07 6.392e-08 0 4.68039e-07 0 6.48057e-07)
(1.08739e-06 9.58507e-08 0 5.47151e-07 0 8.20644e-07)
(1.47008e-06 1.30723e-07 0 6.51258e-07 0 1.07052e-06)
(2.09582e-06 1.78974e-07 0 8.14354e-07 0 1.4822e-06)
(3.45154e-06 2.47666e-07 0 1.17816e-06 0 2.37797e-06)
(6.24648e-06 3.99311e-07 0 1.96867e-06 0 4.2635e-06)
(1.1754e-05 9.09375e-07 0 3.66298e-06 0 8.08147e-06)
(3.27465e-07 -1.47105e-08 0 2.57578e-07 0 3.02073e-07)
(3.69912e-07 -1.29444e-08 0 2.67834e-07 0 3.31105e-07)
(4.24355e-07 -9.84888e-09 0 2.84923e-07 0 3.68122e-07)
(5.0554e-07 -3.19109e-09 0 3.09753e-07 0 4.22218e-07)
(6.34155e-07 8.44054e-09 0 3.5299e-07 0 5.10464e-07)
(9.19297e-07 3.02631e-08 0 4.33284e-07 0 7.03e-07)
(1.47876e-06 7.53328e-08 0 5.87373e-07 0 1.08969e-06)
(2.55677e-06 1.94487e-07 0 9.12412e-07 0 1.86011e-06)
(2.69548e-07 -1.67539e-08 0 2.61706e-07 0 2.63872e-07)
(2.7669e-07 -1.68782e-08 0 2.62659e-07 0 2.6884e-07)
(2.84215e-07 -1.75096e-08 0 2.65806e-07 0 2.74811e-07)
(2.96634e-07 -1.77751e-08 0 2.69227e-07 0 2.834e-07)
(3.13758e-07 -1.86104e-08 0 2.77573e-07 0 2.9729e-07)
(3.56106e-07 -1.59167e-08 0 2.95126e-07 0 3.28817e-07)
(4.37542e-07 -1.04229e-08 0 3.26435e-07 0 3.90296e-07)
(5.95289e-07 1.29035e-08 0 3.87636e-07 0 5.13091e-07)
(2.61854e-07 -1.79715e-08 0 2.5069e-07 0 2.57729e-07)
(2.63396e-07 -1.87158e-08 0 2.51982e-07 0 2.59092e-07)
(2.63981e-07 -2.00465e-08 0 2.54586e-07 0 2.60372e-07)
(2.65564e-07 -2.09381e-08 0 2.57256e-07 0 2.62095e-07)
(2.64994e-07 -2.3624e-08 0 2.6169e-07 0 2.64247e-07)
(2.6645e-07 -2.34743e-08 0 2.67366e-07 0 2.68079e-07)
(2.70641e-07 -2.48707e-08 0 2.76981e-07 0 2.76121e-07)
(2.80412e-07 -1.90438e-08 0 2.96177e-07 0 2.92301e-07)
(2.6322e-07 -2.06205e-08 0 2.58765e-07 0 2.59922e-07)
(2.62057e-07 -2.16172e-08 0 2.59373e-07 0 2.59382e-07)
(2.60799e-07 -2.24908e-08 0 2.59526e-07 0 2.59305e-07)
(2.59904e-07 -2.31136e-08 0 2.60333e-07 0 2.59437e-07)
(2.5779e-07 -2.60467e-08 0 2.63477e-07 0 2.60015e-07)
(2.54497e-07 -2.54004e-08 0 2.68553e-07 0 2.60854e-07)
(2.49311e-07 -2.78574e-08 0 2.77077e-07 0 2.62832e-07)
(2.4324e-07 -2.49761e-08 0 2.88602e-07 0 2.65766e-07)
(2.6155e-07 -2.1393e-08 0 2.54557e-07 0 2.58637e-07)
(2.6199e-07 -2.23243e-08 0 2.55528e-07 0 2.5911e-07)
(2.61312e-07 -2.35906e-08 0 2.5748e-07 0 2.59518e-07)
(2.60106e-07 -2.40446e-08 0 2.59097e-07 0 2.59624e-07)
(2.57205e-07 -2.63405e-08 0 2.61818e-07 0 2.59744e-07)
(2.53363e-07 -2.61453e-08 0 2.66386e-07 0 2.60006e-07)
(2.46868e-07 -2.74361e-08 0 2.74187e-07 0 2.60829e-07)
(2.3993e-07 -2.53467e-08 0 2.83953e-07 0 2.62147e-07)
(2.63089e-07 -2.26953e-08 0 2.5849e-07 0 2.60313e-07)
(2.62868e-07 -2.33313e-08 0 2.58521e-07 0 2.60337e-07)
(2.6162e-07 -2.4812e-08 0 2.59755e-07 0 2.60432e-07)
(2.60412e-07 -2.51633e-08 0 2.61769e-07 0 2.60631e-07)
(2.57819e-07 -2.79676e-08 0 2.65007e-07 0 2.61026e-07)
(2.53841e-07 -2.69516e-08 0 2.69455e-07 0 2.61163e-07)
(2.47752e-07 -2.80321e-08 0 2.76455e-07 0 2.61811e-07)
(2.41463e-07 -2.55783e-08 0 2.84404e-07 0 2.62629e-07)
(2.62384e-07 -2.30648e-08 0 2.56928e-07 0 2.59877e-07)
(2.62542e-07 -2.38853e-08 0 2.57739e-07 0 2.60208e-07)
(2.61365e-07 -2.53078e-08 0 2.59173e-07 0 2.60363e-07)
(2.59809e-07 -2.5456e-08 0 2.60788e-07 0 2.60362e-07)
(2.57254e-07 -2.78219e-08 0 2.63622e-07 0 2.60634e-07)
(2.53634e-07 -2.72176e-08 0 2.68018e-07 0 2.60895e-07)
(2.47788e-07 -2.71351e-08 0 2.74552e-07 0 2.61339e-07)
(2.42172e-07 -2.42992e-08 0 2.81615e-07 0 2.6198e-07)
(2.63041e-07 -2.38299e-08 0 2.58945e-07 0 2.6077e-07)
(2.6289e-07 -2.44698e-08 0 2.59479e-07 0 2.60932e-07)
(2.61579e-07 -2.59308e-08 0 2.61115e-07 0 2.61108e-07)
(2.60394e-07 -2.62846e-08 0 2.6304e-07 0 2.61301e-07)
(2.5809e-07 -2.8609e-08 0 2.65659e-07 0 2.61584e-07)
(2.54188e-07 -2.75968e-08 0 2.70015e-07 0 2.61748e-07)
(2.49348e-07 -2.75536e-08 0 2.75192e-07 0 2.62067e-07)
(2.44237e-07 -2.42712e-08 0 2.80997e-07 0 2.62384e-07)
(2.62589e-07 -2.39656e-08 0 2.58194e-07 0 2.60539e-07)
(2.62611e-07 -2.46666e-08 0 2.58849e-07 0 2.60786e-07)
(2.61162e-07 -2.59421e-08 0 2.60287e-07 0 2.60866e-07)
(2.59664e-07 -2.60354e-08 0 2.61996e-07 0 2.60907e-07)
(2.57366e-07 -2.77409e-08 0 2.64549e-07 0 2.61127e-07)
(2.54295e-07 -2.73554e-08 0 2.68407e-07 0 2.61409e-07)
(2.49701e-07 -2.65916e-08 0 2.73261e-07 0 2.61623e-07)
(2.45187e-07 -2.3269e-08 0 2.78385e-07 0 2.61864e-07)
(2.63072e-07 -2.45224e-08 0 2.59792e-07 0 2.61241e-07)
(2.62909e-07 -2.51118e-08 0 2.60473e-07 0 2.61433e-07)
(2.61526e-07 -2.64208e-08 0 2.61997e-07 0 2.61558e-07)
(2.60136e-07 -2.65549e-08 0 2.63909e-07 0 2.61679e-07)
(2.58035e-07 -2.81261e-08 0 2.66015e-07 0 2.61819e-07)
(2.54825e-07 -2.72428e-08 0 2.69628e-07 0 2.61961e-07)
(2.51176e-07 -2.68063e-08 0 2.73339e-07 0 2.62107e-07)
(2.4708e-07 -2.3106e-08 0 2.77647e-07 0 2.62164e-07)
(2.62532e-07 -2.436e-08 0 2.58953e-07 0 2.60902e-07)
(2.62452e-07 -2.5008e-08 0 2.59703e-07 0 2.61147e-07)
(2.61108e-07 -2.60994e-08 0 2.61065e-07 0 2.61235e-07)
(2.59635e-07 -2.60853e-08 0 2.62807e-07 0 2.6129e-07)
(2.57514e-07 -2.71442e-08 0 2.64963e-07 0 2.61393e-07)
(2.54741e-07 -2.66093e-08 0 2.68358e-07 0 2.61608e-07)
(2.51347e-07 -2.55861e-08 0 2.71709e-07 0 2.61665e-07)
(2.47906e-07 -2.24752e-08 0 2.75477e-07 0 2.61762e-07)
(2.63009e-07 -2.47602e-08 0 2.60485e-07 0 2.61546e-07)
(2.62672e-07 -2.52786e-08 0 2.61303e-07 0 2.61728e-07)
(2.61469e-07 -2.64287e-08 0 2.62573e-07 0 2.61839e-07)
(2.60096e-07 -2.64805e-08 0 2.64321e-07 0 2.61926e-07)
(2.58154e-07 -2.73995e-08 0 2.66065e-07 0 2.61951e-07)
(2.55384e-07 -2.64635e-08 0 2.69117e-07 0 2.62033e-07)
(2.52656e-07 -2.57313e-08 0 2.71708e-07 0 2.62053e-07)
(2.49586e-07 -2.25703e-08 0 2.74878e-07 0 2.62042e-07)
(2.62359e-07 -2.44591e-08 0 2.59482e-07 0 2.61096e-07)
(2.62094e-07 -2.49481e-08 0 2.60376e-07 0 2.61321e-07)
(2.60962e-07 -2.58665e-08 0 2.61627e-07 0 2.61441e-07)
(2.5973e-07 -2.58901e-08 0 2.63259e-07 0 2.61552e-07)
(2.57771e-07 -2.64203e-08 0 2.65084e-07 0 2.61567e-07)
(2.55354e-07 -2.58125e-08 0 2.67979e-07 0 2.6172e-07)
(2.5268e-07 -2.46637e-08 0 2.70414e-07 0 2.61679e-07)
(2.50129e-07 -2.19765e-08 0 2.73136e-07 0 2.61702e-07)
(2.62869e-07 -2.47574e-08 0 2.61e-07 0 2.61724e-07)
(2.62357e-07 -2.51368e-08 0 2.61928e-07 0 2.6188e-07)
(2.61296e-07 -2.60758e-08 0 2.62959e-07 0 2.61959e-07)
(2.60122e-07 -2.61547e-08 0 2.64507e-07 0 2.62071e-07)
(2.58392e-07 -2.66847e-08 0 2.65942e-07 0 2.62041e-07)
(2.56062e-07 -2.57231e-08 0 2.6847e-07 0 2.62078e-07)
(2.53845e-07 -2.47741e-08 0 2.70351e-07 0 2.61989e-07)
(2.51577e-07 -2.21495e-08 0 2.72696e-07 0 2.61953e-07)
(2.6215e-07 -2.44093e-08 0 2.59875e-07 0 2.61201e-07)
(2.61774e-07 -2.47402e-08 0 2.60822e-07 0 2.61398e-07)
(2.60724e-07 -2.54277e-08 0 2.61989e-07 0 2.61507e-07)
(2.59711e-07 -2.54859e-08 0 2.63542e-07 0 2.61678e-07)
(2.58053e-07 -2.5695e-08 0 2.65022e-07 0 2.61668e-07)
(2.56054e-07 -2.51341e-08 0 2.67483e-07 0 2.61811e-07)
(2.5386e-07 -2.39166e-08 0 2.69285e-07 0 2.61692e-07)
(2.51963e-07 -2.17027e-08 0 2.71373e-07 0 2.61712e-07)
(2.62698e-07 -2.46227e-08 0 2.6136e-07 0 2.61818e-07)
(2.62149e-07 -2.49179e-08 0 2.62289e-07 0 2.61959e-07)
(2.61118e-07 -2.56094e-08 0 2.63184e-07 0 2.61992e-07)
(2.60032e-07 -2.55967e-08 0 2.64592e-07 0 2.62093e-07)
(2.58556e-07 -2.59133e-08 0 2.65732e-07 0 2.62042e-07)
(2.56742e-07 -2.50757e-08 0 2.67739e-07 0 2.6208e-07)
(2.54854e-07 -2.41479e-08 0 2.69162e-07 0 2.61933e-07)
(2.53055e-07 -2.16686e-08 0 2.7086e-07 0 2.61833e-07)
(2.61951e-07 -2.42433e-08 0 2.60227e-07 0 2.61276e-07)
(2.61531e-07 -2.45035e-08 0 2.61166e-07 0 2.6145e-07)
(2.60556e-07 -2.50145e-08 0 2.62177e-07 0 2.61519e-07)
(2.59613e-07 -2.49631e-08 0 2.6367e-07 0 2.61688e-07)
(2.58213e-07 -2.49896e-08 0 2.64891e-07 0 2.61675e-07)
(2.56673e-07 -2.44341e-08 0 2.66945e-07 0 2.61834e-07)
(2.54921e-07 -2.33473e-08 0 2.68308e-07 0 2.6171e-07)
(2.53574e-07 -2.15807e-08 0 2.70069e-07 0 2.61794e-07)
(2.62523e-07 -2.44116e-08 0 2.61585e-07 0 2.61855e-07)
(2.61944e-07 -2.46252e-08 0 2.62477e-07 0 2.61967e-07)
(2.60995e-07 -2.51455e-08 0 2.63223e-07 0 2.61966e-07)
(2.59991e-07 -2.50334e-08 0 2.64541e-07 0 2.62061e-07)
(2.58666e-07 -2.51381e-08 0 2.65449e-07 0 2.61975e-07)
(2.57244e-07 -2.44065e-08 0 2.67064e-07 0 2.62019e-07)
(2.55618e-07 -2.34546e-08 0 2.68126e-07 0 2.61835e-07)
(2.54276e-07 -2.14408e-08 0 2.6916e-07 0 2.61698e-07)
(2.61809e-07 -2.40346e-08 0 2.60533e-07 0 2.61342e-07)
(2.61358e-07 -2.42305e-08 0 2.61464e-07 0 2.61497e-07)
(2.60494e-07 -2.4595e-08 0 2.62304e-07 0 2.61535e-07)
(2.596e-07 -2.4519e-08 0 2.63721e-07 0 2.61692e-07)
(2.58367e-07 -2.44031e-08 0 2.64711e-07 0 2.6165e-07)
(2.57186e-07 -2.38396e-08 0 2.6644e-07 0 2.61815e-07)
(2.55856e-07 -2.29212e-08 0 2.67539e-07 0 2.61742e-07)
(2.54855e-07 -2.1383e-08 0 2.68981e-07 0 2.61822e-07)
(2.62343e-07 -2.41681e-08 0 2.61708e-07 0 2.6185e-07)
(2.61759e-07 -2.43192e-08 0 2.62549e-07 0 2.6194e-07)
(2.60882e-07 -2.46832e-08 0 2.63179e-07 0 2.61913e-07)
(2.59996e-07 -2.45413e-08 0 2.64366e-07 0 2.62002e-07)
(2.58812e-07 -2.44739e-08 0 2.65071e-07 0 2.61888e-07)
(2.57562e-07 -2.36969e-08 0 2.66392e-07 0 2.61893e-07)
(2.56292e-07 -2.28969e-08 0 2.67041e-07 0 2.61702e-07)
(2.55259e-07 -2.12403e-08 0 2.68087e-07 0 2.61657e-07)
(2.61702e-07 -2.38062e-08 0 2.60798e-07 0 2.61399e-07)
(2.61261e-07 -2.39543e-08 0 2.61695e-07 0 2.61542e-07)
(2.60478e-07 -2.42014e-08 0 2.62421e-07 0 2.61561e-07)
(2.59686e-07 -2.41195e-08 0 2.63734e-07 0 2.61715e-07)
(2.58609e-07 -2.39232e-08 0 2.64566e-07 0 2.61664e-07)
(2.57689e-07 -2.34e-08 0 2.66078e-07 0 2.61834e-07)
(2.56604e-07 -2.25208e-08 0 2.66881e-07 0 2.61735e-07)
(2.55796e-07 -2.12104e-08 0 2.67891e-07 0 2.61755e-07)
(2.62175e-07 -2.39003e-08 0 2.61775e-07 0 2.61825e-07)
(2.61609e-07 -2.39985e-08 0 2.62554e-07 0 2.61898e-07)
(2.60797e-07 -2.42461e-08 0 2.63081e-07 0 2.61852e-07)
(2.6001e-07 -2.40792e-08 0 2.64126e-07 0 2.61926e-07)
(2.58932e-07 -2.39094e-08 0 2.64728e-07 0 2.61805e-07)
(2.57942e-07 -2.32547e-08 0 2.65837e-07 0 2.61831e-07)
(2.5689e-07 -2.24018e-08 0 2.66376e-07 0 2.61666e-07)
(2.56139e-07 -2.11426e-08 0 2.67199e-07 0 2.61646e-07)
(2.61638e-07 -2.35733e-08 0 2.61022e-07 0 2.61453e-07)
(2.61213e-07 -2.3688e-08 0 2.61868e-07 0 2.61583e-07)
(2.60491e-07 -2.38521e-08 0 2.62507e-07 0 2.61588e-07)
(2.59816e-07 -2.37473e-08 0 2.63668e-07 0 2.61729e-07)
(2.58877e-07 -2.35191e-08 0 2.64387e-07 0 2.61679e-07)
(2.58095e-07 -2.29965e-08 0 2.6565e-07 0 2.61808e-07)
(2.57193e-07 -2.22004e-08 0 2.66222e-07 0 2.61697e-07)
(2.5656e-07 -2.10693e-08 0 2.67003e-07 0 2.61703e-07)
(2.62015e-07 -2.36208e-08 0 2.61804e-07 0 2.61789e-07)
(2.61491e-07 -2.36847e-08 0 2.62524e-07 0 2.61854e-07)
(2.60741e-07 -2.38401e-08 0 2.62985e-07 0 2.618e-07)
(2.60049e-07 -2.36487e-08 0 2.63912e-07 0 2.61864e-07)
(2.59098e-07 -2.34384e-08 0 2.64417e-07 0 2.61749e-07)
(2.58297e-07 -2.28537e-08 0 2.65385e-07 0 2.61785e-07)
(2.57431e-07 -2.20834e-08 0 2.65812e-07 0 2.61643e-07)
(2.56856e-07 -2.10102e-08 0 2.66476e-07 0 2.61633e-07)
(2.61597e-07 -2.33425e-08 0 2.61226e-07 0 2.61504e-07)
(2.61197e-07 -2.343e-08 0 2.62002e-07 0 2.6162e-07)
(2.60537e-07 -2.35307e-08 0 2.62562e-07 0 2.61614e-07)
(2.59945e-07 -2.34022e-08 0 2.63576e-07 0 2.61733e-07)
(2.59127e-07 -2.31665e-08 0 2.64185e-07 0 2.61683e-07)
(2.58435e-07 -2.26607e-08 0 2.65211e-07 0 2.61766e-07)
(2.5769e-07 -2.19129e-08 0 2.65633e-07 0 2.61656e-07)
(2.57192e-07 -2.09522e-08 0 2.66246e-07 0 2.61656e-07)
(2.61877e-07 -2.33481e-08 0 2.61802e-07 0 2.61749e-07)
(2.61394e-07 -2.3383e-08 0 2.6246e-07 0 2.61806e-07)
(2.60716e-07 -2.34735e-08 0 2.62877e-07 0 2.61755e-07)
(2.60101e-07 -2.32671e-08 0 2.63702e-07 0 2.6181e-07)
(2.59279e-07 -2.30234e-08 0 2.64149e-07 0 2.61711e-07)
(2.58625e-07 -2.25217e-08 0 2.64985e-07 0 2.61751e-07)
(2.57919e-07 -2.184e-08 0 2.65331e-07 0 2.61633e-07)
(2.57459e-07 -2.09062e-08 0 2.65857e-07 0 2.61618e-07)
(2.61583e-07 -2.31259e-08 0 2.61398e-07 0 2.61552e-07)
(2.61202e-07 -2.31772e-08 0 2.62105e-07 0 2.61651e-07)
(2.60602e-07 -2.32383e-08 0 2.62598e-07 0 2.61639e-07)
(2.60072e-07 -2.30894e-08 0 2.63478e-07 0 2.61735e-07)
(2.59355e-07 -2.28477e-08 0 2.63978e-07 0 2.6168e-07)
(2.58767e-07 -2.23716e-08 0 2.64801e-07 0 2.61734e-07)
(2.58135e-07 -2.17055e-08 0 2.65133e-07 0 2.61631e-07)
(2.57731e-07 -2.08454e-08 0 2.65611e-07 0 2.6162e-07)
(2.6177e-07 -2.3094e-08 0 2.61785e-07 0 2.61714e-07)
(2.61324e-07 -2.31082e-08 0 2.62385e-07 0 2.61763e-07)
(2.60712e-07 -2.31453e-08 0 2.62772e-07 0 2.61717e-07)
(2.60171e-07 -2.29372e-08 0 2.63495e-07 0 2.61764e-07)
(2.5947e-07 -2.26965e-08 0 2.63896e-07 0 2.61684e-07)
(2.58919e-07 -2.22425e-08 0 2.64621e-07 0 2.61721e-07)
(2.58346e-07 -2.16261e-08 0 2.64899e-07 0 2.61621e-07)
(2.5798e-07 -2.08339e-08 0 2.65316e-07 0 2.61607e-07)
(2.61574e-07 -2.29105e-08 0 2.61542e-07 0 2.61591e-07)
(2.61221e-07 -2.29488e-08 0 2.62176e-07 0 2.61676e-07)
(2.60674e-07 -2.29761e-08 0 2.62612e-07 0 2.61659e-07)
(2.60197e-07 -2.28064e-08 0 2.63352e-07 0 2.6173e-07)
(2.59561e-07 -2.25522e-08 0 2.63772e-07 0 2.61672e-07)
(2.59059e-07 -2.212e-08 0 2.64444e-07 0 2.61706e-07)
(2.58536e-07 -2.1531e-08 0 2.6471e-07 0 2.61618e-07)
(2.58207e-07 -2.07868e-08 0 2.65084e-07 0 2.61602e-07)
(2.61677e-07 -2.28476e-08 0 2.61773e-07 0 2.61683e-07)
(2.61271e-07 -2.28461e-08 0 2.62313e-07 0 2.61726e-07)
(2.60733e-07 -2.28581e-08 0 2.62676e-07 0 2.61691e-07)
(2.60264e-07 -2.26685e-08 0 2.63313e-07 0 2.61735e-07)
(2.59663e-07 -2.24343e-08 0 2.63685e-07 0 2.61672e-07)
(2.59192e-07 -2.19915e-08 0 2.64286e-07 0 2.61695e-07)
(2.58718e-07 -2.14629e-08 0 2.64517e-07 0 2.61612e-07)
(2.58421e-07 -2.07551e-08 0 2.64847e-07 0 2.61594e-07)
(2.61572e-07 -2.2709e-08 0 2.61654e-07 0 2.61621e-07)
(2.61232e-07 -2.27265e-08 0 2.6221e-07 0 2.61687e-07)
(2.60734e-07 -2.27191e-08 0 2.62595e-07 0 2.61667e-07)
(2.603e-07 -2.25455e-08 0 2.63217e-07 0 2.61716e-07)
(2.59754e-07 -2.23121e-08 0 2.63579e-07 0 2.61665e-07)
(2.5932e-07 -2.1891e-08 0 2.64128e-07 0 2.61683e-07)
(2.58886e-07 -2.13901e-08 0 2.64342e-07 0 2.61607e-07)
(2.58617e-07 -2.07247e-08 0 2.64637e-07 0 2.61588e-07)
(2.61613e-07 -2.26266e-08 0 2.61755e-07 0 2.6166e-07)
(2.6125e-07 -2.26236e-08 0 2.62251e-07 0 2.61702e-07)
(2.60773e-07 -2.26051e-08 0 2.62598e-07 0 2.61676e-07)
(2.60358e-07 -2.24183e-08 0 2.63146e-07 0 2.61709e-07)
(2.59846e-07 -2.21952e-08 0 2.63483e-07 0 2.6166e-07)
(2.59445e-07 -2.1796e-08 0 2.63979e-07 0 2.61673e-07)
(2.59048e-07 -2.13275e-08 0 2.64175e-07 0 2.61603e-07)
(2.58799e-07 -2.06997e-08 0 2.64439e-07 0 2.61582e-07)
(2.61568e-07 -2.25181e-08 0 2.61718e-07 0 2.61637e-07)
(2.61239e-07 -2.25156e-08 0 2.622e-07 0 2.61685e-07)