/*--------------------------------*- C++ -*----------------------------------*\
| =========                 |                                                 |
| \\      /  F ield         | OpenFOAM: The Open Source CFD Toolbox           |
|  \\    /   O peration     | Version:  v1912                                 |
|   \\  /    A nd           | Website:  www.openfoam.com                      |
|    \\/     M anipulation  |                                                 |
\*---------------------------------------------------------------------------*/
FoamFile
{
    version     2.0;
    format      ascii;
    class       volVectorField;
    location    "10";
    object      U;
}
// * * * * * * * * * * * * * * * * * * * * * * * * * * * * * * * * * * * * * //

dimensions      [0 1 -1 0 0 0 0];


internalField   nonuniform List<vector> 
14268
(
(0.0105274 0.000515287 0)
(0.00919589 0.000448076 -2.34098e-26)
(0.00806952 0.000390283 2.49268e-26)
(0.00746388 0.000358661 0)
(0.00686036 0.000330766 0)
(0.00634394 0.000305105 0)
(0.00450539 0.000222294 0)
(-0.000505505 -1.63216e-05 0)
(0.0104904 0.000563416 0)
(0.00916046 0.000495113 -3.28983e-26)
(0.00803557 0.000433356 3.63497e-26)
(0.00743105 0.000398448 0)
(0.00682815 0.000364948 0)
(0.00631181 0.000349535 0)
(0.00447346 0.000296878 0)
(-0.000536358 9.87246e-05 0)
(0.010479 0.000543246 0)
(0.00914914 0.000473517 0)
(0.00802461 0.000408524 4.19374e-26)
(0.00742034 0.000370764 0)
(0.00681758 0.000341861 0)
(0.00630107 0.00032745 0)
(0.00446112 0.000294214 0)
(-0.000550386 0.000120808 0)
(0.0104745 0.000589126 1.84608e-26)
(0.00914473 0.000518487 0)
(0.00802051 0.000449864 5.59148e-26)
(0.00741668 0.000408948 -1.18161e-26)
(0.00681408 0.000374422 0)
(0.00629695 0.000369275 0)
(0.00445483 0.000364676 0)
(-0.000556652 0.000230005 0)
(0.0104744 0.000573885 2.38043e-26)
(0.00914473 0.000501506 0)
(0.00802081 0.000429296 0)
(0.00741714 0.000385496 -3.38647e-33)
(0.00681473 0.000355437 0)
(0.00629768 0.000352294 0)
(0.00445414 0.00036801 0)
(-0.000557957 0.000260126 0)
(0.0104716 0.000614908 0)
(0.00914195 0.000541942 0)
(0.00801831 0.000466415 0)
(0.00741516 0.000419464 1.93912e-26)
(0.00681294 0.000384244 0)
(0.00629544 0.000389452 0)
(0.00445009 0.000433221 0)
(-0.000561907 0.000361381 0)
(0.0104715 0.000605283 -3.45865e-26)
(0.0091418 0.000530212 0)
(0.00801844 0.000450756 0)
(0.00741546 0.000400849 0)
(0.00681357 0.000369204 0)
(0.00629645 0.000377437 3.42062e-25)
(0.00444993 0.000442139 0)
(-0.000562935 0.000400141 0)
(0.010469 0.000640044 -3.90732e-26)
(0.00913925 0.000564788 -1.01425e-25)
(0.00801614 0.000482396 0)
(0.00741373 0.000429555 0)
(0.00681207 0.000394149 0)
(0.00629472 0.000409631 3.93883e-25)
(0.0044467 0.000501649 0)
(-0.000566339 0.000492689 0)
(0.0104685 0.000637374 0)
(0.00913874 0.000559524 -1.15805e-25)
(0.00801591 0.000472724 1.36675e-25)
(0.0074137 0.000416511 0)
(0.00681251 0.00038288 0)
(0.00629584 0.000402743 0)
(0.00444689 0.00051685 0)
(-0.000567287 0.000540063 0)
(0.0104663 0.000664444 0)
(0.00913647 0.000586989 0)
(0.00801386 0.000497828 1.51857e-25)
(0.00741223 0.000439348 0)
(0.00681132 0.000404002 0)
(0.00629464 0.000429672 0)
(0.00444452 0.000569459 0)
(-0.000570148 0.000624433 -1.75552e-25)
(0.0104655 0.000670281 0)
(0.00913557 0.000589514 0)
(0.00801325 0.000495232 0)
(0.00741188 0.000432443 0)
(0.00681157 0.000396792 0)
(0.00629581 0.000428359 0)
(0.00444501 0.000592553 0)
(-0.000571012 0.000679422 -1.93561e-25)
(0.010464 0.000687952 5.93054e-26)
(0.00913391 0.000608435 0)
(0.00801175 0.000512623 0)
(0.00741094 0.000448766 0)
(0.00681096 0.000413414 0)
(0.00629547 0.00044946 0)
(0.00444365 0.000636333 0)
(-0.000573359 0.000757137 0)
(0.0104651 0.000704379 5.82018e-34)
(0.00913504 0.000620515 0)
(0.00801333 0.000518605 0)
(0.00741299 0.000449012 0)
(0.00681368 0.000411473 0)
(0.00629929 0.000454414 0)
(0.00444626 0.000669583 0)
(-0.000573071 0.000817743 0)
(0.0105071 0.000712506 -6.93834e-26)
(0.00917857 0.000631204 0)
(0.00806058 0.000529066 0)
(0.00746802 0.000460392 0)
(0.00688078 0.000425423 0)
(0.00637863 0.000473269 0)
(0.00450405 0.00070541 0)
(-0.000564669 0.000893308 0)
(0.0105586 0.000823084 0)
(0.00923017 0.000713784 0)
(0.00810502 0.000581349 2.66515e-25)
(0.00749285 0.00048559 0)
(0.00693641 0.000440481 0)
(0.00641391 0.000499412 0)
(0.00476408 0.000805597 0)
(-8.99798e-05 0.00101502 0)
(0.0104731 0.000803906 0)
(0.00914528 0.000714998 0)
(0.00801979 0.000584623 3.26289e-25)
(0.00740605 0.000492846 0)
(0.00683885 0.000455855 5.2722e-25)
(0.00631379 0.000522407 0)
(0.00468411 0.000854078 -6.60452e-25)
(-7.89006e-05 0.00118866 0)
(0.0105057 0.00101828 8.77691e-26)
(0.00916837 0.000876176 0)
(0.00803919 0.000690419 -2.06797e-25)
(0.00742435 0.000549631 0)
(0.00686299 0.000491566 9.12657e-25)
(0.00634213 0.000569358 -5.81756e-25)
(0.00472682 0.0010005 -7.77531e-25)
(-8.77114e-05 0.00131963 2.53314e-25)
(0.0104397 0.000963386 1.84502e-25)
(0.00911079 0.000845181 0)
(0.00799062 0.000665337 -2.34179e-25)
(0.00738896 0.000536298 0)
(0.00683375 0.000489278 3.62563e-25)
(0.00632353 0.000583747 -1.34313e-24)
(0.0046881 0.00102637 0)
(-7.18747e-05 0.00149433 2.67444e-25)
(0.0105051 0.00122761 1.19938e-25)
(0.00915835 0.00105179 0)
(0.0080285 0.000811344 0)
(0.00741948 0.000622975 0)
(0.00686716 0.00055071 0)
(0.00636081 0.000645536 -7.5971e-25)
(0.00476421 0.00120452 0)
(-8.63071e-05 0.00163044 0)
(0.0104007 0.00111323 0)
(0.0090676 0.000965371 0)
(0.00795198 0.000735211 0)
(0.00736516 0.000570226 0)
(0.00682537 0.000516076 0)
(0.00633686 0.000641415 0)
(0.00469592 0.00119377 0)
(-6.23986e-05 0.00179237 0)
(0.0105097 0.00144791 0)
(0.00915034 0.00123823 0)
(0.00801901 0.000942255 0)
(0.00741683 0.000705425 0)
(0.00687572 0.000614257 0)
(0.00638676 0.000722688 0)
(0.0048167 0.00141338 0)
(-7.10966e-05 0.00195333 0)
(0.0103283 0.000941465 0)
(0.00897116 0.000778588 0)
(0.00785996 0.000481971 -1.1942e-25)
(0.00731855 0.000312686 0)
(0.00679522 0.000302379 -2.12921e-25)
(0.00642957 0.000605298 0)
(0.00458358 0.00111851 2.22253e-25)
(-0.000616655 0.00277707 -1.31224e-25)
(0.0104019 0.00260382 0)
(0.00897786 0.00230149 0)
(0.0078645 0.00180041 -1.89484e-25)
(0.00735961 0.00134583 0)
(0.00690338 0.00114847 -2.47271e-25)
(0.00650728 0.00138892 0)
(0.00506306 0.0037073 3.39504e-25)
(3.23884e-05 0.00513051 1.7808e-28)
(0.0102173 0.00173324 0)
(0.00873866 0.00147179 0)
(0.0075851 0.000917119 2.72207e-25)
(0.00713138 0.000526801 0)
(0.00680778 0.000472907 0)
(0.00715418 0.00104282 0)
(0.00564265 0.00286259 0)
(-0.000479372 0.00669771 2.70767e-25)
(0.0103343 0.00345098 0)
(0.0087396 0.00309397 0)
(0.00758749 0.0023491 3.54957e-25)
(0.00722663 0.00166117 0)
(0.00703248 0.00125411 0)
(0.00705105 0.00174647 0)
(0.00652387 0.00605106 0)
(0.00102789 0.00980044 4.29085e-25)
(-0.0476637 0.00229921 0)
(-0.0533607 0.00187604 4.16618e-25)
(-0.0585818 0.000895668 0)
(-0.0628496 0.000112577 -1.72676e-25)
(-0.0675481 -0.000120045 0)
(-0.0736139 0.000380144 0)
(-0.0820638 0.00368364 0)
(-0.0682358 0.0107878 3.81795e-25)
(-0.176821 0.00525369 0)
(-0.151462 0.00493822 2.91889e-28)
(-0.124288 0.00407142 0)
(-0.095092 0.0036305 -2.00803e-25)
(-0.0620007 0.00407462 7.03295e-25)
(-0.0294488 0.00573488 0)
(-0.00483982 0.00488308 0)
(-0.00559118 -0.0030016 0)
(4.2975 0.0180385 0)
(4.5087 0.0181134 1.22646e-26)
(4.7303 0.0175406 0)
(4.9549 0.0161652 0)
(5.17203 0.0160466 1.45e-26)
(5.43862 0.0205248 -5.33498e-24)
(5.53786 0.035164 0)
(5.48049 0.049362 -7.84714e-24)
(6.40106 -0.0609555 0)
(6.32853 -0.0670861 -1.92018e-24)
(6.24845 -0.071455 -9.91014e-26)
(6.17283 -0.0708197 0)
(6.01236 -0.0801982 9.77758e-24)
(5.98452 -0.0472308 1.32689e-24)
(6.15755 0.0227853 8.85988e-23)
(6.7555 0.034247 -3.1892e-23)
(1.19488 0.0231583 0)
(1.32963 0.0263502 0)
(1.49629 0.0317605 -1.24975e-28)
(1.71577 0.0510091 0)
(2.01507 0.0303322 2.81223e-23)
(2.49541 -0.0800828 0)
(3.19478 -0.21602 -3.57308e-26)
(4.138 -0.136257 0)
(0.572333 -0.156103 -2.12049e-24)
(0.664033 -0.173476 0)
(0.781398 -0.197179 -4.22344e-24)
(0.955711 -0.229703 0)
(1.2053 -0.295472 1.72621e-23)
(1.56631 -0.381664 -4.15125e-23)
(2.00419 -0.498006 3.80693e-26)
(2.55084 -0.462293 -2.16619e-23)
(0.279553 -0.0471185 -8.69837e-24)
(0.337822 -0.0608561 0)
(0.410315 -0.0804651 0)
(0.514099 -0.106903 0)
(0.643096 -0.193048 5.94299e-23)
(0.829576 -0.36502 -8.81646e-23)
(1.00729 -0.556408 6.50175e-23)
(1.16778 -0.479514 7.81357e-23)
(0.0312711 -0.169799 0)
(0.0696654 -0.192946 0)
(0.110568 -0.225209 0)
(0.17501 -0.266666 0)
(0.244877 -0.343933 3.09764e-23)
(0.297302 -0.457744 5.25165e-23)
(0.274142 -0.598992 -1.70333e-23)
(0.0470435 -0.539932 0)
(0.00878833 -0.0857313 0)
(0.0131 -0.106929 1.58463e-23)
(0.0193905 -0.137278 0)
(0.0278849 -0.180441 0)
(0.0409819 -0.269172 0)
(-0.015249 -0.400244 5.58098e-23)
(-0.240722 -0.496032 2.69011e-26)
(-0.566337 -0.388892 -1.76303e-22)
(-0.0245073 -0.156061 0)
(-0.0321736 -0.177033 6.43552e-24)
(-0.0431976 -0.207245 0)
(-0.0593711 -0.245018 0)
(-0.106099 -0.302163 0)
(-0.176245 -0.375516 0)
(-0.354659 -0.468099 -5.3783e-24)
(-0.663005 -0.38307 -1.66728e-22)
(-0.0165546 -0.0985514 0)
(-0.0215227 -0.11888 0)
(-0.0332918 -0.148751 0)
(-0.0525526 -0.186713 0)
(-0.0936093 -0.257424 0)
(-0.177265 -0.322601 0)
(-0.373343 -0.360861 -1.92748e-23)
(-0.664319 -0.25193 0)
(-0.0173279 -0.141244 4.44929e-24)
(-0.0225842 -0.157865 0)
(-0.0339015 -0.182246 -8.78349e-24)
(-0.0530129 -0.209403 0)
(-0.0964026 -0.252894 -1.83736e-23)
(-0.178831 -0.300208 0)
(-0.347943 -0.332291 -1.53174e-26)
(-0.585578 -0.232148 0)
(-0.0267094 -0.107568 -4.41078e-28)
(-0.0333826 -0.126004 1.04359e-23)
(-0.047419 -0.152167 -1.26907e-23)
(-0.0699733 -0.181733 -1.64129e-23)
(-0.115927 -0.223896 -1.47013e-23)
(-0.194146 -0.25293 0)
(-0.340219 -0.256611 2.54647e-23)
(-0.535117 -0.155199 -1.15252e-22)
(-0.0282333 -0.129238 -4.45145e-24)
(-0.0362352 -0.142614 -8.53868e-28)
(-0.0522099 -0.162457 7.78292e-24)
(-0.0745876 -0.182605 -1.05936e-23)
(-0.118259 -0.216593 0)
(-0.192285 -0.236435 0)
(-0.317786 -0.232433 0)
(-0.472413 -0.135398 -1.0072e-22)
(-0.035107 -0.111023 0)
(-0.0437592 -0.126222 -7.70284e-24)
(-0.0610582 -0.14714 8.6757e-24)
(-0.0869776 -0.164952 0)
(-0.13232 -0.190222 0)
(-0.201728 -0.199672 0)
(-0.309086 -0.183743 2.80335e-23)
(-0.436413 -0.0925428 0)
(-0.0364642 -0.119666 4.19267e-24)
(-0.0462933 -0.130263 5.30164e-24)
(-0.0638115 -0.146856 6.39918e-24)
(-0.0881409 -0.162393 6.95943e-24)
(-0.130408 -0.18282 -3.59363e-24)
(-0.19503 -0.185903 -4.6491e-24)
(-0.287508 -0.163988 7.14058e-27)
(-0.389119 -0.076963 -7.44723e-23)
(-0.0417872 -0.109914 -6.39545e-28)
(-0.0521435 -0.121064 5.22818e-24)
(-0.0709338 -0.135522 5.34581e-24)
(-0.0970666 -0.146088 -2.16604e-27)
(-0.13828 -0.160458 -1.2069e-24)
(-0.19732 -0.158124 -7.12035e-24)
(-0.276713 -0.132272 -2.75241e-23)
(-0.360411 -0.0523538 -6.41801e-23)
(-0.0430038 -0.112259 -3.75192e-24)
(-0.0536481 -0.12088 0)
(-0.071747 -0.134151 0)
(-0.0961291 -0.143013 -3.4101e-24)
(-0.134541 -0.153142 0)
(-0.188706 -0.146128 -8.93958e-24)
(-0.257018 -0.1167 0)
(-0.324399 -0.0412481 0)
(-0.0472982 -0.105323 0)
(-0.0586012 -0.112836 0)
(-0.0775219 -0.123297 -3.26336e-24)
(-0.102187 -0.12867 0)
(-0.138415 -0.135108 -2.13325e-24)
(-0.187136 -0.12539 -1.0137e-23)
(-0.245936 -0.0955091 2.5586e-23)
(-0.301452 -0.0267583 0)
(-0.0477267 -0.106202 0)
(-0.0588701 -0.112274 0)
(-0.0768784 -0.121662 1.34995e-27)
(-0.100128 -0.12518 0)
(-0.1338 -0.128292 -3.36519e-24)
(-0.17795 -0.115126 0)
(-0.22844 -0.0837135 3.36345e-27)
(-0.273595 -0.0193423 0)
(-0.051345 -0.0996803 -2.45002e-24)
(-0.0628595 -0.104531 -2.28119e-24)
(-0.0810997 -0.111727 3.15514e-24)
(-0.103801 -0.113059 2.6951e-25)
(-0.134983 -0.113864 0)
(-0.174492 -0.0997384 1.12969e-23)
(-0.217878 -0.0691739 -2.30149e-23)
(-0.254753 -0.0107291 3.81297e-23)
(-0.0512005 -0.100102 -2.02317e-24)
(-0.0624354 -0.103744 -1.73102e-24)
(-0.0796201 -0.109837 8.6816e-25)
(-0.101078 -0.109349 1.13446e-24)
(-0.129962 -0.107637 0)
(-0.16551 -0.0912432 1.14774e-23)
(-0.202813 -0.0605012 0)
(-0.233035 -0.00597984 3.37526e-23)
(-0.0541462 -0.0939177 0)
(-0.0654393 -0.0966071 0)
(-0.0823955 -0.101061 2.27722e-25)
(-0.102848 -0.0992894 0)
(-0.129391 -0.0961943 0)
(-0.161091 -0.0797953 0)
(-0.192982 -0.0504646 -2.02867e-23)
(-0.217317 -0.000900671 0)
(-0.0535983 -0.0940072 -6.29287e-25)
(-0.0646745 -0.0956319 -3.89365e-25)
(-0.0805129 -0.0989425 -3.26227e-25)
(-0.0998047 -0.0955244 1.20985e-24)
(-0.124265 -0.0906412 -2.97908e-24)
(-0.152694 -0.0729067 0)
(-0.180184 -0.0441257 -1.88934e-23)
(-0.200272 0.00196447 1.36183e-23)
(-0.0558845 -0.0882511 -4.58294e-25)
(-0.0667649 -0.0892343 -3.61531e-25)
(-0.0821117 -0.0913888 -4.0127e-25)
(-0.100161 -0.0873104 2.87603e-24)
(-0.122474 -0.0816562 -7.46075e-28)
(-0.147759 -0.0643869 0)
(-0.17119 -0.0372852 0)
(-0.187043 0.00460092 1.17907e-23)
(-0.055026 -0.0880434 0)
(-0.0657293 -0.0880535 9.64999e-27)
(-0.0800946 -0.0891389 -1.20587e-24)
(-0.0971189 -0.0836675 5.96581e-28)
(-0.117544 -0.0767746 3.16614e-24)
(-0.140151 -0.0588208 5.34352e-24)
(-0.160405 -0.0325823 -8.1421e-24)
(-0.17358 0.00665086 0)
(-0.0567278 -0.0828288 1.64299e-25)
(-0.0670201 -0.0824273 3.44722e-25)
(-0.080715 -0.0827594 -7.74161e-25)
(-0.0964862 -0.0770449 -3.50922e-24)
(-0.114985 -0.069801 -3.18721e-24)
(-0.134976 -0.0525301 5.84311e-28)
(-0.152134 -0.028017 -7.54669e-24)
(-0.16232 0.00752413 -9.67936e-24)
(-0.0556985 -0.0823383 3.96727e-26)
(-0.0657869 -0.0810565 3.69536e-28)
(-0.0786712 -0.0804401 9.15604e-25)
(-0.0935577 -0.0736239 -1.8579e-24)
(-0.110465 -0.0655567 -5.3608e-28)
(-0.128311 -0.0480444 -4.94112e-24)
(-0.14314 -0.0245116 6.99669e-24)
(-0.151534 0.00885263 -8.74487e-24)
(-0.0568328 -0.0777402 0)
(-0.0664067 -0.0762097 -8.89892e-25)
(-0.078531 -0.0751181 1.03226e-24)
(-0.0922139 -0.0683205 0)
(-0.107421 -0.0602038 3.14139e-24)
(-0.12311 -0.043448 0)
(-0.135655 -0.0215448 6.47444e-24)
(-0.141989 0.00896336 -7.83035e-24)
(-0.0557337 -0.0769795 -1.74318e-25)
(-0.0650887 -0.074687 -3.31896e-28)
(-0.0765144 -0.0727969 0)
(-0.089393 -0.0651925 -1.97457e-24)
(-0.103334 -0.0565499 0)
(-0.117353 -0.039855 -4.49735e-24)
(-0.128099 -0.0189508 0)
(-0.133144 0.009618 -1.41842e-23)
(-0.0563361 -0.0730147 -2.6534e-25)
(-0.0651283 -0.0705896 1.28932e-24)
(-0.0757943 -0.068401 0)
(-0.0875831 -0.0609524 -1.99737e-24)
(-0.100077 -0.052421 0)
(-0.112357 -0.036525 -3.19452e-28)
(-0.121442 -0.0170771 0)
(-0.125115 0.00931354 -6.45186e-24)
(-0.0552306 -0.0720139 0)
(-0.0637951 -0.0689708 1.44381e-24)
(-0.0738409 -0.0661414 -1.25759e-24)
(-0.0848957 -0.0581649 2.0047e-24)
(-0.0963327 -0.0493501 -2.93326e-24)
(-0.107248 -0.0336999 4.05634e-24)
(-0.115011 -0.0152302 0)
(-0.117737 0.00940027 0)
(-0.0553658 -0.0686622 4.14683e-25)
(-0.0633792 -0.0655564 7.85609e-25)
(-0.0727029 -0.062531 -1.29914e-24)
(-0.0827955 -0.0547536 1.99617e-24)
(-0.0930518 -0.0461305 -2.84294e-24)
(-0.102611 -0.0312509 0)
(-0.109154 -0.0139979 0)
(-0.110966 0.00888495 0)
(-0.0542906 -0.0674607 2.3152e-28)
(-0.062054 -0.0638873 0)
(-0.0708248 -0.0603825 0)
(-0.0802476 -0.0523207 0)
(-0.089587 -0.043583 0)
(-0.0980385 -0.0291136 0)
(-0.103603 -0.0127462 0)
(-0.104731 0.00852038 0)
(-0.0540457 -0.0646766 -5.27936e-25)
(-0.0612912 -0.0610826 0)
(-0.0694085 -0.0574336 -1.34564e-24)
(-0.0780123 -0.0495914 0)
(-0.0863887 -0.0410598 0)
(-0.0937955 -0.0272939 0)
(-0.098467 -0.0118779 4.06877e-24)
(-0.0989654 0.00783249 0)
(-0.0530053 -0.0633335 0)
(-0.0599876 -0.0594029 0)
(-0.0676024 -0.0554217 -2.38254e-28)
(-0.0755902 -0.0474814 0)
(-0.0831716 -0.0389613 -2.55044e-24)
(-0.0897042 -0.0257226 0)
(-0.0936379 -0.0110856 7.60042e-24)
(-0.0936439 0.00721104 0)
(-0.0524686 -0.0610424 0)
(-0.0589801 -0.0571183 0)
(-0.0660214 -0.0530223 1.35437e-24)
(-0.0733256 -0.0453116 0)
(-0.0801281 -0.0369878 -2.45345e-24)
(-0.0858628 -0.0243773 0)
(-0.0891269 -0.0105332 3.56003e-24)
(-0.0887102 0.00644998 0)
(-0.0514512 -0.0596233 -3.20721e-25)
(-0.0576905 -0.0554847 -4.76983e-25)
(-0.0642717 -0.0511735 0)
(-0.0710092 -0.0435037 0)
(-0.0771463 -0.0352839 0)
(-0.0822071 -0.0231982 -1.42357e-24)
(-0.0848783 -0.0101069 0)
(-0.0841413 0.00569914 -1.75165e-24)
(-0.0507002 -0.0577363 -3.33125e-25)
(-0.0565208 -0.0536137 -4.82433e-25)
(-0.0626185 -0.0492147 0)
(-0.0687798 -0.0417625 0)
(-0.0743025 -0.033736 0)
(-0.0787462 -0.0221864 -1.35005e-24)
(-0.0808915 -0.00982099 0)
(-0.0798982 0.00490373 -1.61501e-24)
(-0.0497066 -0.0563193 0)
(-0.055233 -0.052088 0)
(-0.060907 -0.0475579 6.58037e-25)
(-0.0665591 -0.0402439 -8.59403e-25)
(-0.0715742 -0.0323456 -1.06952e-24)
(-0.0754313 -0.0213539 0)
(-0.077144 -0.00963156 1.44058e-24)
(-0.0759521 0.0041059 0)
(-0.0488163 -0.0547468 3.50603e-25)
(-0.0539846 -0.0505246 0)
(-0.0592493 -0.0459364 6.46881e-25)
(-0.0644115 -0.03883 -8.28309e-25)
(-0.0689483 -0.0310929 -1.02754e-24)
(-0.0722819 -0.0206432 0)
(-0.0736229 -0.00953505 1.34365e-24)
(-0.0722744 0.00329883 0)
(-0.0478309 -0.0533974 3.56101e-25)
(-0.052675 -0.0491531 0)
(-0.0576041 -0.0444795 -6.34951e-25)
(-0.0623147 -0.0375643 7.98475e-25)
(-0.0663997 -0.0300045 0)
(-0.0692783 -0.0200476 0)
(-0.0703104 -0.00951295 0)
(-0.0688412 0.00249462 0)
(-0.0468724 -0.0520429 0)
(-0.051379 -0.0478242 -4.81883e-25)
(-0.0559835 -0.0431139 -6.23319e-25)
(-0.0602859 -0.0363948 1.54268e-24)
(-0.0639499 -0.029029 9.38357e-25)
(-0.0664297 -0.0195509 0)
(-0.0671827 -0.00955178 0)
(-0.0656319 0.00169575 -1.1851e-24)
(-0.0458775 -0.0508095 0)
(-0.0500806 -0.0466128 -9.48958e-25)
(-0.0543754 -0.0418685 6.10746e-25)
(-0.0583009 -0.0353483 5.09378e-29)
(-0.0615906 -0.0281694 1.79036e-24)
(-0.0637211 -0.0191413 -1.01385e-24)
(-0.0642385 -0.00964492 0)
(-0.0626183 0.000908844 -1.10089e-24)
(-0.0448776 -0.0496224 -1.82254e-25)
(-0.048815 -0.0454538 -4.66996e-25)
(-0.052786 -0.0407177 5.95761e-25)
(-0.0563723 -0.0343916 -7.19434e-25)
(-0.0593211 -0.0274087 8.53818e-25)
(-0.0611437 -0.0188061 -9.57976e-25)
(-0.061459 -0.00978172 0)
(-0.0597956 0.000137034 0)
(-0.043844 -0.0485266 -1.82402e-25)
(-0.0475496 -0.0443859 0)
(-0.0512207 -0.039666 2.89767e-25)
(-0.0544978 -0.0335263 0)
(-0.0571376 -0.0267408 -4.07095e-25)
(-0.0586895 -0.018538 0)
(-0.0588305 -0.00995624 4.81029e-25)
(-0.0571424 -0.000621553 0)
(-0.0428151 -0.047483 0)
(-0.0462916 -0.0433835 0)
(-0.0496867 -0.0386951 2.81715e-25)
(-0.05268 -0.0327365 0)
(-0.0550385 -0.0261504 -7.76352e-25)
(-0.0563516 -0.0183248 4.2817e-25)
(-0.0563435 -0.0101583 -1.18221e-29)
(-0.0546436 -0.0013655 0)
(-0.0417821 -0.0465105 1.7982e-25)
(-0.0450404 -0.0424532 0)
(-0.0481809 -0.0378106 0)
(-0.0509149 -0.0320279 0)
(-0.0530195 -0.025639 -3.70144e-25)
(-0.054124 -0.0181665 8.10206e-25)
(-0.0539892 -0.0103889 1.21093e-29)
(-0.0522894 -0.00209261 4.17117e-25)
(-0.0407565 -0.0455921 2.67201e-25)
(-0.0438068 -0.0415787 0)
(-0.0467101 -0.0369871 1.3275e-25)
(-0.0492039 -0.031373 0)
(-0.0510767 -0.0251817 1.76472e-25)
(-0.0519962 -0.0180431 3.83447e-25)
(-0.0517536 -0.0106323 5.97541e-25)
(-0.0500621 -0.0027948 3.90127e-25)
(-0.0397216 -0.0447436 8.81265e-26)
(-0.0425795 -0.0407783 0)
(-0.0452654 -0.0362512 8.66858e-30)
(-0.0475429 -0.0308027 0)
(-0.0492098 -0.0248007 1.68312e-25)
(-0.0499674 -0.0179725 0)
(-0.0496343 -0.0109022 1.87418e-25)
(-0.0479593 -0.00348574 0)
(-0.0386347 -0.0439215 0)
(-0.0413209 -0.0400075 0)
(-0.0438152 -0.0355465 -1.87364e-25)
(-0.045901 -0.0302557 0)
(-0.0473879 -0.0244462 -8.03094e-26)
(-0.0480089 -0.0179127 0)
(-0.0476042 -0.0111659 8.82787e-26)
(-0.0459533 -0.00413967 0)
(-0.0374659 -0.0431428 0)
(-0.0399855 -0.0392801 0)
(-0.0423039 -0.0348891 -6.04959e-26)
(-0.0442262 -0.0297551 0)
(-0.0455679 -0.0241322 -7.65159e-26)
(-0.0460864 -0.0178833 0)
(-0.0456384 -0.0114449 8.30214e-26)
(-0.0440256 -0.0047896 0)
(-0.0347198 -0.0411997 0)
(-0.0367413 -0.0375155 0)
(-0.038524 -0.0333826 0)
(-0.0399127 -0.0286899 0)
(-0.0407756 -0.0235962 0)
(-0.040943 -0.0180722 0)
(-0.0403204 -0.0124218 0)
(-0.0387837 -0.00667835 0)
(-0.0300346 -0.0386144 0)
(-0.031487 -0.0352065 0)
(-0.0327036 -0.0314624 0)
(-0.0335839 -0.0273681 0)
(-0.034034 -0.0230153 0)
(-0.0339495 -0.0184421 0)
(-0.0332688 -0.013819 0)
(-0.0319314 -0.0092185 0)
(-0.0256633 -0.0368547 0)
(-0.0266967 -0.0337189 0)
(-0.027515 -0.0303379 0)
(-0.0280476 -0.0267296 0)
(-0.0282374 -0.0229527 0)
(-0.0280221 -0.0190565 0)
(-0.0273618 -0.0151549 0)
(-0.0262278 -0.0113206 0)
(-0.0215934 -0.035523 0)
(-0.0223288 -0.0326291 0)
(-0.0228813 -0.0295634 0)
(-0.0231993 -0.0263521 0)
(-0.023253 -0.0230353 0)
(-0.0229927 -0.0196685 0)
(-0.022401 -0.0163245 0)
(-0.0214602 -0.0130666 0)
(-0.0178023 -0.0345664 0)
(-0.0183229 -0.0318801 0)
(-0.0186901 -0.0290729 0)
(-0.018876 -0.0261667 0)
(-0.018852 -0.0232019 0)
(-0.0185935 -0.0202222 0)
(-0.0180878 -0.0172792 0)
(-0.0173285 -0.0144275 0)
(-0.0142441 -0.0338815 0)
(-0.0146087 -0.0313674 0)
(-0.014853 -0.0287665 0)
(-0.0149565 -0.0261036 0)
(-0.0149002 -0.0234093 0)
(-0.0146705 -0.0207202 0)
(-0.0142591 -0.0180778 0)
(-0.0136641 -0.0155244 0)
(-0.0108815 -0.0333908 0)
(-0.0111323 -0.0310108 0)
(-0.0112918 -0.0285686 0)
(-0.0113472 -0.0260862 0)
(-0.0112864 -0.0235909 0)
(-0.0111007 -0.0211128 0)
(-0.0107857 -0.018685 0)
(-0.0103416 -0.0163423 0)
(-0.00763983 -0.0330601 0)
(-0.00780536 -0.0307796 0)
(-0.00790794 -0.0284522 0)
(-0.00793968 -0.0260985 0)
(-0.00789313 -0.0237425 0)
(-0.00776323 -0.0214107 0)
(-0.00754682 -0.0191316 0)
(-0.00724437 -0.0169344 0)
(-0.00457609 -0.0328443 0)
(-0.00467134 -0.0306275 0)
(-0.00472957 -0.0283729 0)
(-0.00474545 -0.0261001 0)
(-0.00471528 -0.0238317 0)
(-0.00463623 -0.0215916 0)
(-0.0045075 -0.0194051 0)
(-0.00433012 -0.0172975 0)
(-0.00159907 -0.0327339 0)
(-0.00161913 -0.0305488 0)
(-0.0016276 -0.028331 0)
(-0.00162319 -0.0260995 0)
(-0.00160487 -0.0238754 0)
(-0.00157215 -0.0216814 0)
(-0.00152496 -0.0195413 0)
(-0.00146386 -0.0174787 0)
(-0.00855871 7.08361e-06 0)
(-0.0128563 -1.34903e-05 0)
(-0.0115975 -3.08522e-05 0)
(-0.00996766 -3.04573e-05 0)
(-0.00825333 -2.87537e-05 0)
(-0.00691581 -2.5237e-05 0)
(-0.00608066 -2.2425e-05 0)
(-0.00551705 -2.03362e-05 0)
(-0.00528003 -1.9015e-05 0)
(-0.00515363 -1.89294e-05 0)
(-0.0050531 -1.91372e-05 0)
(-0.00485751 -1.92322e-05 0)
(-0.0046502 -1.84346e-05 0)
(-0.00455639 -1.68639e-05 0)
(-0.00463968 -1.66183e-05 0)
(-0.00488178 -1.58899e-05 0)
(-0.00521846 -1.55697e-05 0)
(-0.00555494 -1.48051e-05 0)
(-0.00581556 -1.47204e-05 0)
(-0.00594151 -1.46314e-05 0)
(-0.00590078 -1.65044e-05 0)
(-0.00567549 -1.72268e-05 0)
(-0.00527373 -1.77078e-05 0)
(-0.00472863 -1.79203e-05 0)
(-0.00409816 -1.77905e-05 0)
(-0.00343364 -1.73419e-05 0)
(-0.00280375 -1.65759e-05 0)
(-0.00219341 -1.5931e-05 0)
(-0.00161029 -1.54477e-05 0)
(-0.00112194 -1.53335e-05 0)
(-0.000545107 -1.61954e-05 0)
(0.000327439 -1.59512e-05 0)
(0.000976268 -1.23349e-05 0)
(0.000654794 -8.65449e-06 0)
(-0.00112658 -6.17415e-07 0)
(-0.00463739 4.59604e-06 0)
(-0.00821037 4.01769e-07 0)
(-0.00889145 -1.04244e-05 0)
(-0.00818224 -1.07137e-05 0)
(-0.00919523 -7.16865e-06 0)
(-0.00974531 -1.76171e-05 0)
(-0.00641415 -3.70973e-05 0)
(-4.35513e-05 -4.09099e-05 0)
(0.00482952 -2.74176e-05 0)
(0.00651908 -1.34022e-05 0)
(0.0065942 -7.88182e-06 0)
(0.0059611 -5.52087e-06 0)
(0.00510983 -4.59414e-06 0)
(0.00423764 -4.35251e-06 0)
(0.00343848 -4.42623e-06 0)
(0.00274881 -4.62489e-06 0)
(0.00217819 -4.82743e-06 0)
(0.00172016 -4.9877e-06 0)
(0.00136008 -5.0808e-06 0)
(0.00108107 -5.10981e-06 0)
(0.000866888 -5.08129e-06 0)
(0.000703288 -5.00737e-06 0)
(0.00057846 -4.90234e-06 0)
(0.000482991 -4.7747e-06 0)
(0.000409574 -4.63673e-06 0)
(0.000352647 -4.49281e-06 0)
(0.000308044 -4.3499e-06 0)
(0.000272665 -4.211e-06 0)
(0.000244224 -4.07772e-06 0)
(0.000221034 -3.9523e-06 0)
(0.000201855 -3.8346e-06 0)
(0.000185772 -3.72502e-06 0)
(0.000172109 -3.62289e-06 0)
(0.000160361 -3.52798e-06 0)
(0.000150149 -3.44051e-06 0)
(0.000141186 -3.35775e-06 0)
(0.000133252 -3.28167e-06 0)
(0.000126176 -3.21039e-06 0)
(0.000119825 -3.14288e-06 0)
(0.000114089 -3.08077e-06 0)
(0.000108886 -3.02044e-06 0)
(0.000104143 -2.96582e-06 0)
(9.98049e-05 -2.91105e-06 0)
(9.58252e-05 -2.86262e-06 0)
(9.21621e-05 -2.81254e-06 0)
(8.87832e-05 -2.76917e-06 0)
(8.56591e-05 -2.7229e-06 0)
(8.27655e-05 -2.68366e-06 0)
(8.00824e-05 -2.64046e-06 0)
(7.75897e-05 -2.60481e-06 0)
(7.52739e-05 -2.56387e-06 0)
(7.31181e-05 -2.53173e-06 0)
(7.11122e-05 -2.49187e-06 0)
(6.92428e-05 -2.46349e-06 0)
(6.75021e-05 -2.42452e-06 0)
(6.58832e-05 -2.39677e-06 0)
(6.43722e-05 -2.36342e-06 0)
(6.29712e-05 -2.33158e-06 0)
(6.16615e-05 -2.30377e-06 0)
(6.04465e-05 -2.26954e-06 0)
(5.93221e-05 -2.24464e-06 0)
(5.82749e-05 -2.21496e-06 0)
(5.73128e-05 -2.18199e-06 0)
(5.64202e-05 -2.16318e-06 0)
(5.56045e-05 -2.12124e-06 0)
(5.48549e-05 -2.10798e-06 0)
(5.41735e-05 -2.06173e-06 0)
(5.35584e-05 -2.04808e-06 0)
(5.29989e-05 -2.00478e-06 0)
(5.25131e-05 -1.97546e-06 0)
(5.20697e-05 -1.95537e-06 0)
(5.16981e-05 -1.89363e-06 0)
(5.13744e-05 -1.89278e-06 0)
(5.11148e-05 -1.80723e-06 0)
(5.0911e-05 -1.8124e-06 0)
(5.07495e-05 -1.72363e-06 0)
(5.06974e-05 -1.6932e-06 0)
(5.06964e-05 -1.69029e-06 0)
(5.07177e-05 -1.69379e-06 0)
(5.07718e-05 -1.71041e-06 0)
(5.08572e-05 -1.73983e-06 0)
(5.09816e-05 -1.77787e-06 0)
(5.11527e-05 -1.81909e-06 0)
(5.1376e-05 -1.86019e-06 0)
(5.1655e-05 -1.8997e-06 0)
(5.19917e-05 -1.93646e-06 0)
(5.2387e-05 -1.97131e-06 0)
(5.28426e-05 -2.00522e-06 0)
(5.33612e-05 -2.03913e-06 0)
(5.39457e-05 -2.07237e-06 0)
(5.45986e-05 -2.10508e-06 0)
(5.5323e-05 -2.13749e-06 0)
(5.61223e-05 -2.16979e-06 0)
(5.70002e-05 -2.20211e-06 0)
(5.79605e-05 -2.23455e-06 0)
(5.90065e-05 -2.26716e-06 0)
(6.01412e-05 -2.3003e-06 0)
(6.13661e-05 -2.33378e-06 0)
(6.26798e-05 -2.36685e-06 0)
(6.40764e-05 -2.39883e-06 0)
(6.5541e-05 -2.42853e-06 0)
(6.70458e-05 -2.45384e-06 0)
(6.85422e-05 -2.471e-06 0)
(6.99454e-05 -2.47217e-06 0)
(7.10993e-05 -2.43756e-06 0)
(7.17904e-05 -2.3047e-06 0)
(7.1912e-05 -2.0676e-06 0)
(7.08649e-05 -2.16991e-06 0)
(6.78505e-05 -2.28963e-06 0)
(6.20657e-05 -2.45787e-06 0)
(5.20199e-05 -2.6531e-06 0)
(3.58416e-05 -2.80819e-06 0)
(1.05579e-05 -2.95599e-06 0)
(-2.78096e-05 -3.08429e-06 0)
(-8.45037e-05 -3.21182e-06 0)
(-0.00016708 -3.35953e-06 0)
(-0.00028551 -3.48002e-06 0)
(-0.000452887 -3.5307e-06 0)
(-0.000686056 -3.45702e-06 0)
(-0.0010063 -3.30843e-06 0)
(-0.00143964 -3.00467e-06 0)
(-0.00857977 0.000122026 0)
(-0.0128788 4.51029e-05 0)
(-0.01162 -2.97457e-07 0)
(-0.00998995 -6.09332e-06 0)
(-0.00827559 -4.47201e-06 0)
(-0.00693807 2.25046e-06 0)
(-0.00610293 7.27721e-06 0)
(-0.00553934 1.17712e-05 0)
(-0.00530235 1.50167e-05 0)
(-0.00517596 1.66455e-05 0)
(-0.00507544 1.61725e-05 0)
(-0.00487984 1.48328e-05 0)
(-0.00467251 1.46594e-05 0)
(-0.00457871 1.65405e-05 0)
(-0.004662 1.96272e-05 0)
(-0.00490409 2.15254e-05 0)
(-0.00524078 2.21877e-05 0)
(-0.00557725 2.07014e-05 0)
(-0.00583788 1.85698e-05 0)
(-0.00596385 1.55544e-05 0)
(-0.00592313 1.3598e-05 0)
(-0.00569782 1.03977e-05 0)
(-0.00529606 7.42444e-06 0)
(-0.00475095 5.22024e-06 0)
(-0.00412047 3.80156e-06 0)
(-0.00345594 3.15338e-06 0)
(-0.00282604 3.22342e-06 0)
(-0.00221571 3.19597e-06 0)
(-0.00163259 3.56684e-06 0)
(-0.00114425 3.8687e-06 0)
(-0.000567405 8.4525e-07 0)
(0.000305195 -8.52662e-08 0)
(0.000954063 8.4785e-06 0)
(0.000632636 2.96686e-05 0)
(-0.00114872 5.32806e-05 0)
(-0.00465966 6.57983e-05 0)
(-0.00823281 4.83724e-05 0)
(-0.00891385 9.9933e-06 0)
(-0.00820449 8.73018e-06 0)
(-0.00921759 2.11322e-05 0)
(-0.00976789 -6.37644e-06 0)
(-0.00643671 -6.47413e-05 0)
(-6.57929e-05 -7.8915e-05 0)
(0.00480748 -4.30982e-05 0)
(0.00649693 -4.93915e-06 0)
(0.00657192 1.35763e-05 0)
(0.00593877 2.05367e-05 0)
(0.00508748 2.20453e-05 0)
(0.00421528 2.1244e-05 0)
(0.00341611 1.94077e-05 0)
(0.00272644 1.72099e-05 0)
(0.00215582 1.50265e-05 0)
(0.00169779 1.30426e-05 0)
(0.00133771 1.13236e-05 0)
(0.0010587 9.88381e-06 0)
(0.000844517 8.69976e-06 0)
(0.000680917 7.73644e-06 0)
(0.00055609 6.95765e-06 0)
(0.000460621 6.3253e-06 0)
(0.000387204 5.81197e-06 0)
(0.000330277 5.38993e-06 0)
(0.000285674 5.04105e-06 0)
(0.000250294 4.74925e-06 0)
(0.000221854 4.50195e-06 0)
(0.000198664 4.29091e-06 0)
(0.000179484 4.10832e-06 0)
(0.000163401 3.94901e-06 0)
(0.000149737 3.80829e-06 0)
(0.000137989 3.68308e-06 0)
(0.000127777 3.57145e-06 0)
(0.000118814 3.46923e-06 0)
(0.00011088 3.37721e-06 0)
(0.000103804 3.29277e-06 0)
(9.74525e-05 3.21425e-06 0)
(9.1717e-05 3.14285e-06 0)
(8.65132e-05 3.0746e-06 0)
(8.17706e-05 3.01316e-06 0)
(7.74325e-05 2.95249e-06 0)
(7.34527e-05 2.89889e-06 0)
(6.97896e-05 2.84431e-06 0)
(6.64106e-05 2.79694e-06 0)
(6.32865e-05 2.74715e-06 0)
(6.03928e-05 2.70475e-06 0)
(5.77097e-05 2.65873e-06 0)
(5.5217e-05 2.62056e-06 0)
(5.29011e-05 2.57731e-06 0)
(5.07452e-05 2.54316e-06 0)
(4.87393e-05 2.50136e-06 0)
(4.68699e-05 2.47142e-06 0)
(4.51291e-05 2.43076e-06 0)
(4.35102e-05 2.40174e-06 0)
(4.19993e-05 2.36701e-06 0)
(4.05982e-05 2.33404e-06 0)
(3.92885e-05 2.30523e-06 0)
(3.80735e-05 2.26993e-06 0)
(3.69491e-05 2.24369e-06 0)
(3.59019e-05 2.21256e-06 0)
(3.49397e-05 2.17747e-06 0)
(3.40472e-05 2.15787e-06 0)
(3.32314e-05 2.11361e-06 0)
(3.24819e-05 2.0998e-06 0)
(3.18005e-05 2.0514e-06 0)
(3.11854e-05 2.03703e-06 0)
(3.0626e-05 1.99226e-06 0)
(3.014e-05 1.96126e-06 0)
(2.96969e-05 1.94102e-06 0)
(2.93251e-05 1.87668e-06 0)
(2.90016e-05 1.8759e-06 0)
(2.87419e-05 1.78846e-06 0)
(2.85382e-05 1.79252e-06 0)
(2.83771e-05 1.70306e-06 0)
(2.8324e-05 1.66971e-06 0)
(2.83227e-05 1.66657e-06 0)
(2.83438e-05 1.66937e-06 0)
(2.83977e-05 1.68539e-06 0)
(2.84828e-05 1.71413e-06 0)
(2.86071e-05 1.75128e-06 0)
(2.87781e-05 1.79147e-06 0)
(2.90014e-05 1.83145e-06 0)
(2.92805e-05 1.8698e-06 0)
(2.96172e-05 1.90536e-06 0)
(3.00126e-05 1.93899e-06 0)
(3.04682e-05 1.97163e-06 0)
(3.09868e-05 2.00423e-06 0)
(3.15713e-05 2.03608e-06 0)
(3.22242e-05 2.06735e-06 0)
(3.29486e-05 2.09825e-06 0)
(3.3748e-05 2.12897e-06 0)
(3.46259e-05 2.15963e-06 0)
(3.55862e-05 2.19033e-06 0)
(3.66322e-05 2.22113e-06 0)
(3.77669e-05 2.25192e-06 0)
(3.89918e-05 2.28262e-06 0)
(4.03055e-05 2.31304e-06 0)
(4.17021e-05 2.34267e-06 0)
(4.31668e-05 2.37061e-06 0)
(4.46718e-05 2.39524e-06 0)