/*--------------------------------*- C++ -*----------------------------------*\
| =========                 |                                                 |
| \\      /  F ield         | OpenFOAM: The Open Source CFD Toolbox           |
|  \\    /   O peration     | Version:  v1912                                 |
|   \\  /    A nd           | Website:  www.openfoam.com                      |
|    \\/     M anipulation  |                                                 |
\*---------------------------------------------------------------------------*/
FoamFile
{
    version     2.0;
    format      ascii;
    class       volScalarField;
    location    "10";
    object      p;
}
// * * * * * * * * * * * * * * * * * * * * * * * * * * * * * * * * * * * * * //

dimensions      [1 -1 -2 0 0 0 0];


internalField   nonuniform List<scalar> 
14268
(
231.151
198.237
161.832
122.4
136.26
153.519
173.451
173.61
155.226
130.474
129.769
166.223
191.314
188.047
138.088
130.973
102.19
77.0367
73.2687
62.2247
53.0152
63.0276
54.2428
58.3449
58.4091
63.6246
50.7892
33.6147
24.4461
22.2452
18.7234
22.0719
29.2536
37.1011
45.6364
45.6654
57.2663
63.7921
39.5882
30.557
21.0286
12.053
7.20498
25.3896
40.6358
19.5607
-7.77132
-18.6742
-18.8161
-15.8923
-12.06
-8.33351
-5.07699
-7.06114
-8.64878
-6.96891
2.92816
7.71974
-5.71834
-23.0235
-27.0826
-26.6479
-26.9538
-27.5385
-28.2963
-29.9804
-31.6844
-33.0357
-34.0736
-35.2477
-36.5268
-37.3389
-37.7606
-38.1559
-38.5154
-38.8606
-39.1987
-39.5322
-39.8622
-40.1894
-40.5143
-40.8372
-41.1584
-41.4781
-41.7965
-42.1136
-42.4295
-42.7444
-43.0584
-43.3715
-43.6838
-43.9953
-44.3061
-44.6163
-44.9258
-45.2347
-45.5431
-45.851
-46.1585
-46.4654
-46.7719
-47.0781
-47.3838
-47.6892
217.026
187.834
146.065
106.032
124.172
142.705
161
158.289
145.608
123.08
110.012
142.356
165.291
166.224
118.976
114.02
87.0626
64.3974
66.7747
58.2951
48.7444
59.3821
49.791
53.327
52.9857
57.98
44.9788
28.1101
21.7985
19.8363
15.9379
16.5129
21.786
28.7364
37.9079
39.6707
49.5505
56.0061
33.3311
25.0737
16.8337
7.9599
4.98363
19.4247
31.6908
12.6001
-11.7033
-20.5987
-21.1389
-18.3334
-15.0578
-12.2254
-9.40254
-9.18334
-10.1125
-9.92292
-0.0938817
4.42707
-9.07879
-25.2567
-29.1037
-28.1597
-28.4965
-29.1882
-30.277
-31.7545
-33.2988
-34.3743
-35.1279
-35.9206
-36.7952
-37.4694
-37.8838
-38.2783
-38.6376
-38.9827
-39.3208
-39.6543
-39.9842
-40.3114
-40.6363
-40.9593
-41.2805
-41.6002
-41.9185
-42.2356
-42.5515
-42.8664
-43.1804
-43.4935
-43.8058
-44.1173
-44.4281
-44.7382
-45.0478
-45.3567
-45.6651
-45.973
-46.2804
-46.5874
-46.8939
-47.2
-47.5058
-47.8112
215.069
168.916
127.098
100.96
117.149
133.506
153.523
149.883
136.812
115.283
107.498
140.799
150.937
159.122
104.66
88.1883
72.1631
64.8019
65.5642
56.198
48.1616
57.1561
45.7423
49.0094
49.9859
56.2457
44.4748
26.277
20.1618
18.0266
14.338
12.0769
12.5923
19.8935
30.569
35.4479
44.7671
54.4446
28.9737
22.193
13.5184
5.43346
3.84334
10.8359
18.6554
3.02706
-13.1656
-21.8248
-22.4482
-19.5107
-16.2631
-12.9281
-10.0279
-10.2554
-11.3284
-10.6093
-0.303734
4.15961
-9.06693
-25.8278
-30.1812
-29.6229
-29.776
-30.1731
-31.453
-33.1546
-34.6211
-35.5321
-35.9037
-36.3415
-37.092
-37.6149
-38.0078
-38.4008
-38.7598
-39.1049
-39.443
-39.7764
-40.1063
-40.4335
-40.7584
-41.0813
-41.4025
-41.7222
-42.0405
-42.3576
-42.6735
-42.9885
-43.3024
-43.6155
-43.9278
-44.2393
-44.5501
-44.8602
-45.1698
-45.4787
-45.7871
-46.095
-46.4024
-46.7094
-47.0159
-47.322
-47.6278
-47.9331
202.484
148.271
119.511
88.7565
110.66
121.857
138.613
140.728
125.075
105.481
75.0479
103.195
147.576
146.518
99.1352
77.9375
50.4397
52.2761
61.8436
53.2985
44.3914
54.1663
42.4559
44.5821
45.2949
53.0178
40.6908
25.3076
17.8869
16.3864
12.4477
1.89833
9.18508
17.6419
23.632
28.1288
44.2322
50.6209
26.8363
18.8412
9.54716
2.32791
-1.16098
-1.85991
14.0029
-8.03194
-21.5959
-23.8487
-23.7636
-22.5369
-20.9353
-19.1706
-15.9295
-12.0785
-12.2383
-12.4763
-7.91891
-3.2276
-13.0223
-27.3836
-31.2932
-31.271
-32.4573
-33.1475
-33.4932
-34.487
-35.8454
-36.5623
-36.6737
-36.7176
-37.3472
-37.7778
-38.1327
-38.5235
-38.8821
-39.227
-39.5651
-39.8985
-40.2284
-40.5556
-40.8804
-41.2034
-41.5246
-41.8442
-42.1625
-42.4796
-42.7956
-43.1105
-43.4244
-43.7375
-44.0498
-44.3613
-44.6721
-44.9822
-45.2917
-45.6007
-45.9091
-46.217
-46.5244
-46.8313
-47.1379
-47.444
-47.7497
-48.0551
174.3
151.875
115.776
85.9499
103.483
103.952
121.276
135.477
109.888
90.9319
50.407
70.2287
125.838
140.915
96.4931
81.2468
34.9786
35.0402
60.3474
51.3032
43.8965
53.0481
39.3908
40.2971
41.329
49.9331
38.9848
23.6763
16.0407
14.7637
10.8251
4.66079
15.5266
23.7143
28.7728
25.9336
41.5317
48.2534
25.6161
16.3253
6.33554
0.683671
-6.34739
-0.265902
16.7362
-2.04635
-26.3911
-24.9537
-24.409
-24.3956
-23.6571
-22.6032
-21.4643
-13.558
-13.0677
-13.332
-20.828
-23.297
-19.6821
-28.1739
-31.567
-31.5674
-32.7786
-36.5366
-38.8914
-38.9527
-39.4344
-38.946
-37.637
-37.057
-37.571
-37.9433
-38.2578
-38.6463
-39.0044
-39.3492
-39.6872
-40.0206
-40.3505
-40.6776
-41.0025
-41.3254
-41.6466
-41.9663
-42.2846
-42.6016
-42.9176
-43.2325
-43.5464
-43.8595
-44.1718
-44.4833
-44.7941
-45.1042
-45.4137
-45.7227
-46.0311
-46.339
-46.6464
-46.9533
-47.2598
-47.566
-47.8717
-48.1771
100.186
145.239
105.811
82.0921
98.6595
116.043
133.588
129.407
82.0963
45.5112
58.2548
75.5488
60.2492
114.697
83.6797
77.4013
51.8792
27.7936
52.6347
48.8924
40.3781
50.4271
36.9038
37.2527
37.1413
47.6205
34.8993
20.1121
12.0508
12.854
8.10683
4.42535
11.7984
17.9891
26.6516
25.0438
31.4539
42.2864
20.4848
13.1862
2.33941
-1.71261
-7.95676
5.74886
19.8879
3.40391
-19.8187
-27.1871
-25.1541
-24.3574
-22.8672
-21.6981
-21.8663
-16.0747
-14.2332
-16.2301
-37.1291
-56.1682
-35.2459
-29.4368
-32.5176
-32.4226
-33.0024
-35.8347
-40.2237
-42.5348
-41.3025
-39.5904
-37.8758
-37.2719
-37.7482
-38.0855
-38.3829
-38.7692
-39.1267
-39.4714
-39.8094
-40.1427
-40.4726
-40.7997
-41.1246
-41.4475
-41.7686
-42.0883
-42.4066
-42.7237
-43.0396
-43.3545
-43.6685
-43.9815
-44.2938
-44.6053
-44.9161
-45.2262
-45.5357
-45.8447
-46.1531
-46.4609
-46.7684
-47.0753
-47.3818
-47.6879
-47.9937
-48.299
112.811
137.143
103.272
79.9979
103.037
117.569
135.36
125.25
86.0385
51.5261
74.5281
87.8072
61.3459
67.0404
69.3669
75.002
56.6299
37.6482
33.2349
38.1057
32.5058
45.1429
34.7912
35.0469
35.3705
43.403
34.706
18.8566
11.4198
10.7047
7.42491
5.2632
9.7866
16.9066
24.6596
23.9935
12.7145
25.1121
17.0371
9.97877
-1.44589
-3.8134
0.0300417
9.13363
20.3911
4.125
-17.1405
-25.7839
-25.4675
-24.406
-22.4197
-20.438
-19.8465
-18.0008
-15.3806
-18.8635
-49.9931
-65.356
-48.4848
-30.056
-32.9944
-33.1252
-33.2308
-34.6192
-37.8078
-38.8473
-37.8332
-37.2955
-37.2307
-37.4387
-37.8941
-38.2126
-38.5082
-38.8923
-39.2491
-39.5936
-39.9315
-40.2648
-40.5947
-40.9218
-41.2466
-41.5695
-41.8907
-42.2104
-42.5286
-42.8457
-43.1616
-43.4765
-43.7905
-44.1035
-44.4158
-44.7273
-45.0381
-45.3482
-45.6577
-45.9667
-46.2751
-46.5829
-46.8903
-47.1973
-47.5038
-47.8099
-48.1156
-48.421
127.286
118.032
99.5773
77.6328
97.9249
110.825
127.01
118.189
93.1991
67.8938
71.4606
94.0405
71.1525
65.3058
43.8599
48.7518
19.1174
-2.97597
7.73934
6.33592
10.7609
25.1458
33.3342
33.3145
32.4066
17.8683
29.0602
17.1659
10.8696
8.13581
2.85761
1.9304
3.33751
10.7514
13.8667
14.1578
-30.9534
-20.9044
4.40669
7.7383
-4.65526
-5.39219
-1.48304
9.07929
11.7983
-4.24483
-19.5481
-25.8145
-26.2338
-26.2595
-24.4953
-21.8778
-19.305
-19.003
-18.769
-28.4661
-56.2335
-58.1784
-61.7194
-32.9145
-33.5956
-33.6322
-33.7738
-34.3762
-35.8127
-36.7488
-37.0208
-37.1829
-37.3181
-37.6179
-38.0405
-38.3374
-38.6337
-39.0154
-39.3715
-39.7159
-40.0537
-40.387
-40.7168
-41.0439
-41.3687
-41.6916
-42.0128
-42.3324
-42.6507
-42.9677
-43.2836
-43.5985
-43.9125
-44.2255
-44.5378
-44.8493
-45.1601
-45.4702
-45.7797
-46.0886
-46.397
-46.7049
-47.0123
-47.3193
-47.6258
-47.9319
-48.2376
-48.543
149.841
77.7341
96.3751
76.261
95.2098
108.681
118.49
100.007
93.2748
74.2022
64.4504
95.1245
85.3232
89.4975
39.1659
23.7203
-6.85367
-73.6937
-64.1835
-27.0777
6.25047
16.9172
28.8181
30.6276
27.9254
-9.66962
4.1228
15.1247
10.2447
6.19721
-9.17712
-0.128858
-3.10376
-8.85494
-1.17863
-3.90607
-54.2593
-47.2125
-13.6495
5.81771
-6.68319
-6.00781
-2.96569
5.79385
-0.568143
-20.4472
-22.4776
-26.1784
-26.6739
-26.6854
-25.7099
-24.6567
-20.4142
-17.7774
-21.1278
-39.337
-51.896
-52.7454
-72.8028
-39.8516
-34.0686
-34.2342
-34.4341
-34.8516
-35.6189
-36.4554
-36.9794
-37.2822
-37.4798
-37.7879
-38.1903
-38.4635
-38.7593
-39.1386
-39.4939
-39.8381
-40.1759
-40.5091
-40.8389
-41.166
-41.4908
-41.8137
-42.1348
-42.4544
-42.7727
-43.0898
-43.4057
-43.7206
-44.0345
-44.3476
-44.6598
-44.9713
-45.2821
-45.5922
-45.9017
-46.2106
-46.519
-46.8269
-47.1343
-47.4412
-47.7478
-48.0539
-48.3596
-48.665
173.144
70.1233
91.6671
75.1934
92.9776
105.41
122.418
69.3731
89.1034
72.3036
56.3127
79.1857
101.512
107.696
55.0201
37.3082
19.5867
-68.4051
-116.327
-44.6344
31.0335
38.8598
20.0725
28.6894
11.6712
-8.50447
-32.1473
5.22176
7.25566
0.10787
-15.0574
-5.85447
-22.2106
-45.0591
-15.9084
-27.293
-43.4452
-44.2198
-17.0129
5.86922
-8.24441
-7.36941
-4.64126
-2.02458
-1.74491
-23.3513
-29.0221
-27.2694
-27.6293
-28.7505
-30.2285
-30.8576
-25.9034
-18.9227
-19.8238
-38.9171
-44.0477
-47.9251
-74.3552
-56.3679
-35.2181
-34.7216
-34.9129
-35.3803
-36.0461
-36.649
-37.1124
-37.395
-37.615
-37.9444
-38.3377
-38.5907
-38.8849
-39.2618
-39.6163
-39.9604
-40.2981
-40.6313
-40.961
-41.2881
-41.6129
-41.9357
-42.2569
-42.5765
-42.8948
-43.2118
-43.5277
-43.8426
-44.1565
-44.4696
-44.7818
-45.0933
-45.4041
-45.7142
-46.0237
-46.3326
-46.641
-46.9489
-47.2563
-47.5632
-47.8697
-48.1759
-48.4816
-48.7869
173.99
83.882
80.5894
73.4786
91.7392
103.801
121.805
68.222
85.1164
66.5584
35.9872
53.03
94.4501
105.935
55.3042
50.001
36.3031
4.6234
-81.1109
8.20667
29.0903
39.5843
19.0067
23.758
-10.6531
-3.84614
-28.2928
-15.0417
4.39555
-8.49522
-12.3666
-8.44939
-37.4031
-43.2028
-19.2062
-4.93555
-26.8043
-37.6798
-31.5716
0.023386
-9.98022
-9.16094
-5.35588
-11.0881
0.0455822
-12.8359
-27.4281
-27.6931
-28.39
-36.3214
-39.7493
-30.9185
-28.1983
-21.7023
-20.0551
-23.1242
-30.568
-42.3416
-63.2876
-66.7139
-40.1234
-35.5814
-35.6944
-35.9688
-36.389
-36.8414
-37.2558
-37.5349
-37.7564
-38.0896
-38.4737
-38.7167
-39.0105
-39.385
-39.7388
-40.0827
-40.4203
-40.7534
-41.0832
-41.4102
-41.735
-42.0578
-42.3789
-42.6986
-43.0168
-43.3338
-43.6497
-43.9646
-44.2785
-44.5916
-44.9038
-45.2153
-45.5261
-45.8362
-46.1457
-46.4546
-46.763
-47.0709
-47.3783
-47.6852
-47.9917
-48.2978
-48.6036
-48.9089
168.447
98.6999
69.8536
71.7624
88.4124
94.6901
115.17
83.9956
81.7422
62.9406
16.3725
47.272
90.5526
100.194
50.115
46.1824
34.1662
16.4518
-15.068
16.3943
12.485
30.8684
18.2967
-0.863033
-43.2568
4.60698
2.62023
-23.1779
0.605157
-3.61062
-9.63293
-8.59512
-24.2837
-37.0317
-22.2995
1.59224
-0.221789
-27.7145
-60.2498
-14.3495
-11.9081
-10.6288
-7.26603
-2.83422
-0.958578
-10.6401
-22.2868
-27.8647
-28.1175
-32.3439
-36.765
-28.8495
-27.7211
-25.6012
-25.0144
-24.3604
-25.4049
-35.2337
-50.1889
-47.074
-43.1426
-38.9891
-38.4951
-37.5318
-36.9476
-37.0574
-37.3957
-37.6579
-37.8892
-38.2271
-38.6011
-38.8409
-39.1361
-39.5083
-39.8613
-40.205
-40.5425
-40.8756
-41.2053
-41.5323
-41.8571
-42.1799
-42.501
-42.8206
-43.1389
-43.4559
-43.7718
-44.0866
-44.4006
-44.7136
-45.0258
-45.3373
-45.6481
-45.9582
-46.2677
-46.5766
-46.885
-47.1929
-47.5003
-47.8072
-48.1137
-48.4198
-48.7255
-49.0309
165.406
102.071
72.7914
70.1201
63.7132
9.24763
85.0066
103.423
79.2015
60.0459
15.9625
53.8925
90.1469
96.4583
47.2259
43.6692
28.9111
14.6686
10.9334
15.5719
-20.2037
11.1617
21.0175
11.1994
-27.6796
19.839
19.9162
-2.51514
-5.5743
0.133748
-6.69587
-5.3837
-5.99987
-25.4484
-21.3686
3.02814
10.8487
-17.8233
-65.4632
-30.09
-12.8776
-11.9765
-18.9723
-3.0163
-7.90704
-17.4078
-23.6982
-28.374
-28.3641
-29.4515
-30.9825
-27.1142
-26.4433
-29.989
-37.7696
-30.6968
-24.9445
-28.2633
-34.6244
-36.0157
-36.9344
-37.0832
-37.2734
-37.8035
-37.5205
-37.2221
-37.5182
-37.7895
-38.0239
-38.3594
-38.7238
-38.9643
-39.2617
-39.6316
-39.9837
-40.3273
-40.6647
-40.9978
-41.3274
-41.6544
-41.9792
-42.302
-42.6231
-42.9427
-43.2609
-43.5779
-43.8938
-44.2087
-44.5226
-44.8356
-45.1479
-45.4593
-45.7701
-46.0802
-46.3897
-46.6986
-47.007
-47.3149
-47.6223
-47.9292
-48.2357
-48.5418
-48.8475
-49.1529
148.597
99.6413
72.365
68.7499
23.3507
-102.457
-33.5481
100.64
68.5061
42.1989
15.3754
63.3634
85.3261
91.5596
43.5159
37.9302
20.9435
10.1312
11.0396
5.20884
-28.1514
-14.8778
17.2727
17.2857
-5.35514
20.2753
20.0979
4.74623
-7.28266
-0.891376
-7.34806
-6.80638
-2.85574
-12.7761
-16.3321
3.00696
12.7031
-2.97611
-39.8727
-58.937
-14.981
-18.139
-50.3184
-25.4683
-12.3395
-32.0748
-29.4565
-29.2458
-29.0498
-29.2163
-29.469
-27.436
-26.0547
-30.7276
-37.464
-30.4798
-25.1223
-27.4804
-33.0458
-35.444
-35.6654
-35.8158
-36.1936
-36.7626
-37.0577
-37.2687
-37.6337
-37.9088
-38.1516
-38.4867
-38.8446
-39.0877
-39.3872
-39.7549
-40.1063
-40.4496
-40.787
-41.1199
-41.4496
-41.7766
-42.1013
-42.4241
-42.7452
-43.0647
-43.383
-43.7
-44.0159
-44.3307
-44.6446
-44.9576
-45.2699
-45.5813
-45.8921
-46.2022
-46.5117
-46.8206
-47.129
-47.4369
-47.7442
-48.0512
-48.3577
-48.6638
-48.9695
-49.2748
60.1289
94.4208
69.2623
66.1275
-23.8778
-100.38
-157.86
84.8555
35.8913
13.6963
21.5317
53.2009
67.7643
83.0301
39.752
21.326
16.5308
11.148
7.20782
-3.15458
-16.7692
-25.6866
7.37022
11.0554
5.44916
18.1979
13.692
5.38704
-5.7022
-5.39119
-10.402
-9.00304
-4.26949
-5.98989
-8.65574
2.36448
11.8167
8.27191
-9.3024
-20.0367
-23.3937
-34.0116
-91.2603
-56.671
-14.1154
-30.73
-36.4366
-29.9854
-29.7568
-29.2978
-29.1889
-28.0511
-26.5715
-26.2478
-29.6871
-26.5173
-25.9003
-28.5282
-33.2402
-35.2191
-35.5367
-35.6405
-36.0464
-36.4605
-36.8476
-37.3598
-37.809
-38.1003
-38.3415
-38.6722
-39.0251
-39.2729
-39.5755
-39.9397
-40.29
-40.6331
-40.9703
-41.3032
-41.6328
-41.9597
-42.2844
-42.6072
-42.9283
-43.2478
-43.5661
-43.883
-44.1989
-44.5138
-44.8277
-45.1407
-45.4529
-45.7644
-46.0751
-46.3852
-46.6947
-47.0036
-47.312
-47.6198
-47.9272
-48.2342
-48.5407
-48.8467
-49.1525
-49.4578
-35.4328
70.0584
64.7548
43.3674
-26.1955
-63.0782
-131.894
54.4901
56.1325
15.822
1.27678
-22.8866
-12.8008
35.5237
9.8604
13.8628
16.3537
0.265936
-1.19057
7.06592
-6.55935
-34.7444
-22.2924
-14.9501
-0.0996158
16.6172
13.7479
3.52638
-0.734172
-9.57174
-16.8418
-12.3793
-6.52531
-6.91939
-6.30307
-0.900885
5.38711
3.18615
-11.0346
-14.8493
-34.37
-66.1919
-96.3919
-52.6451
-19.2647
-25.1681
-37.5402
-31.5459
-30.7435
-30.3793
-30.1457
-29.0324
-27.8867
-25.6257
-26.1174
-25.072
-27.8425
-30.4691
-33.7758
-35.3785
-35.7309
-35.91
-36.3234
-36.7602
-37.2168
-37.6507
-38.0569
-38.3453
-38.5903
-38.9172
-39.2662
-39.5199
-39.8262
-40.1859
-40.5351
-40.8779
-41.2148
-41.5476
-41.8771
-42.204
-42.5287
-42.8514
-43.1724
-43.492
-43.8102
-44.1271
-44.443
-44.7578
-45.0717
-45.3847
-45.6969
-46.0084
-46.3191
-46.6292
-46.9387
-47.2476
-47.556
-47.8638
-48.1712
-48.4781
-48.7846
-49.0907
-49.3964
-49.7018
-17.187
42.6679
53.394
27.3121
44.8351
-20.9351
-124.352
7.84043
47.8328
20.2225
-9.46936
-75.5842
-89.1138
-17.5802
23.4209
27.6723
8.00981
-17.3418
-14.3513
-0.414842
3.176
-28.0219
-81.8343
-82.455
-24.097
-2.10758
5.39547
0.127842
-3.98787
-9.03103
-18.9814
-13.7488
-9.05278
-7.58539
-7.37356
-6.22004
-1.80943
-4.30895
-27.4505
-40.1607
-51.5838
-85.2089
-59.3911
-43.5052
-20.8938
-26.236
-32.9723
-33.5719
-31.3847
-30.7346
-30.7793
-29.9802
-28.739
-26.5636
-25.3074
-25.508
-28.5951
-32.04
-34.8576
-35.9063
-36.0197
-36.2381
-36.7184
-37.0981
-37.4708
-37.89
-38.304
-38.5907
-38.837
-39.1623
-39.5078
-39.7675
-40.0763
-40.4321
-40.7803
-41.1226
-41.4594
-41.7921
-42.1215
-42.4483
-42.7729
-43.0956
-43.4166
-43.7361
-44.0543
-44.3713
-44.6871
-45.0019
-45.3158
-45.6288
-45.941
-46.2524
-46.5632
-46.8733
-47.1827
-47.4916
-47.8
-48.1078
-48.4152
-48.7221
-49.0286
-49.3347
-49.6404
-49.9457
38.8605
69.0518
43.7218
37.4408
57.2973
49.7277
-102.035
-24.5099
45.1007
24.7378
-6.9361
-69.8942
-87.2739
-56.4891
29.8668
17.8413
-5.1219
-14.2997
-22.0659
-15.5641
-7.55058
-18.1438
-68.0336
-69.2102
-41.1819
-29.1125
-14.4303
-4.17953
-7.46638
-8.67009
-19.1606
-15.7436
-12.4851
-10.4704
-14.8682
-21.3581
-26.0563
-26.0014
-46.5678
-67.7398
-102.478
-47.16
-28.4516
-29.4793
-23.6142
-28.0834
-32.3018
-36.1587
-32.2022
-31.5246
-31.8996
-31.2441
-29.9631
-27.8233
-27.0651
-26.7058
-30.092
-33.3229
-35.4775
-36.0754
-36.2435
-36.5207
-37.0502
-37.4418
-37.8064
-38.1663
-38.5495
-38.835
-39.0826
-39.4082
-39.75
-40.0154
-40.3255
-40.6784
-41.0256
-41.3675
-41.704
-42.0365
-42.3659
-42.6926
-43.0172
-43.3398
-43.6608
-43.9803
-44.2985
-44.6154
-44.9312
-45.246
-45.5599
-45.8729
-46.185
-46.4965
-46.8072
-47.1173
-47.4267
-47.7356
-48.044
-48.3518
-48.6592
-48.9661
-49.2726
-49.5787
-49.8844
-50.1897
51.3854
64.7652
48.6664
47.7449
54.2963
55.3925
-65.4452
-54.3729
46.8661
20.9835
4.10522
-37.6634
-66.2943
-44.9522
19.5826
14.4898
-1.94229
-5.16857
-12.8297
-13.155
-12.8361
-8.54396
-50.7015
-47.5165
-35.9966
-46.5812
-47.42
-15.7148
-10.1465
-10.6472
-20.8498
-18.2449
-18.6694
-13.3748
-19.7659
-38.2667
-63.0418
-65.2637
-57.161
-60.513
-94.584
-37.7935
-25.8091
-25.4777
-26.2757
-29.4273
-31.8486
-37.129
-32.9835
-31.7016
-32.4549
-32.2048
-31.0702
-28.783
-28.0049
-28.0378
-31.1141
-34.0482
-36.0511
-36.5441
-36.4823
-36.6998
-37.2913
-37.7167
-38.0524
-38.399
-38.785
-39.076
-39.3279
-39.6542
-39.9927
-40.2635
-40.5743
-40.9246
-41.2709
-41.6123
-41.9486
-42.281
-42.6103
-42.937
-43.2615
-43.5841
-43.905
-44.2245
-44.5426
-44.8595
-45.1753
-45.4901
-45.804
-46.1169
-46.4291
-46.7405
-47.0512
-47.3613
-47.6708
-47.9796
-48.288
-48.5958
-48.9032
-49.2101
-49.5166
-49.8226
-50.1283
-50.4337
25.4929
47.9188
46.2665
48.4708
44.1831
2.67002
-87.6752
-73.2325
36.53
14.1592
-1.10586
-4.0036
-52.5366
-29.1692
1.75727
-4.6295
2.1125
-5.37946
-7.78656
-7.11045
-7.92494
-4.32736
-27.7585
-20.7144
-21.5368
-41.6778
-63.925
-34.7477
-20.2603
-13.4636
-22.5497
-20.9834
-24.0933
-17.7334
-19.2799
-34.1238
-56.6868
-70.7332
-44.1624
-42.2601
-63.1143
-29.7611
-25.9603
-25.668
-28.3259
-30.3639
-32.0076
-37.1736
-34.3494
-32.2981
-32.7665
-33.2769
-32.826
-30.2589
-29.7736
-29.4587
-32.1944
-34.6985
-36.3784
-36.728
-36.7318
-36.9906
-37.5061
-37.9196
-38.2833
-38.6407
-39.0241
-39.3159
-39.5737
-39.9003
-40.2358
-40.5114
-40.8228
-41.1709
-41.5163
-41.8573
-42.1933
-42.5255
-42.8547
-43.1813
-43.5058
-43.8283
-44.1492
-44.4687
-44.7868
-45.1037
-45.4195
-45.7342
-46.048
-46.361
-46.6732
-46.9846
-47.2953
-47.6053
-47.9148
-48.2237
-48.532
-48.8398
-49.1472
-49.4541
-49.7605
-50.0666
-50.3723
-50.6776
17.5443
28.5294
40.9505
41.8399
21.5419
-8.94874
-95.8614
-82.0559
27.0401
9.22784
-4.42949
9.13931
-32.2457
-26.0164
-6.39058
-16.5345
0.219396
-7.69547
-10.182
-7.69398
-8.74325
-2.68297
-20.7806
-14.6639
-14.6883
-36.8814
-62.4124
-39.0651
-30.044
-16.1594
-23.6779
-22.7297
-22.7832
-20.0978
-18.5177
-27.9691
-51.3766
-61.2679
-32.3823
-29.6224
-42.9472
-26.8902
-26.2539
-26.9175
-29.4606
-31.0706
-32.431
-36.742
-35.0219
-32.6405
-32.8853
-33.4383
-33.5075
-32.0247
-31.9983
-31.2766
-33.3719
-35.2814
-36.8149
-37.1357
-37.0045
-37.1451
-37.6791
-38.0914
-38.4763
-38.8554
-39.2546
-39.5549
-39.8198
-40.1463
-40.4793
-40.7592
-41.0711
-41.4173
-41.7617
-42.1022
-42.438
-42.7701
-43.0991
-43.4257
-43.7501
-44.0726
-44.3935
-44.7129
-45.031
-45.3478
-45.6636
-45.9783
-46.2921
-46.6051
-46.9172
-47.2286
-47.5393
-47.8494
-48.1588
-48.4677
-48.776
-49.0838
-49.3912
-49.6981
-50.0045
-50.3106
-50.6163
-50.9216
44.95
27.2073
19.2238
23.8241
-7.13487
6.22963
10.2566
-11.6117
-15.6999
-11.5175
-14.3706
-15.4314
-6.23432
-0.201439
-9.93604
-32.1807
-15.1078
-15.4569
-16.7242
-20.8958
-23.9335
-23.9453
-18.7029
-21.7307
-22.0966
-22.2091
-21.602
-25.6538
-28.2722
-28.8587
-28.9361
-27.4052
-25.4838
-25.6226
-29.5693
-28.3169
-28.155
-29.1697
-26.4349
-25.1178
-23.4769
-29.4221
-30.9884
-31.9019
-32.4828
-33.6927
-34.3268
-35.2294
-35.2569
-34.9703
-34.8182
-35.3166
-34.6197
-35.5714
-36.1544
-35.6564
-36.2864
-37.1188
-37.9194
-38.0142
-38.2806
-38.9694
-39.2237
-39.4893
-39.8165
-40.178
-40.5196
-40.8284
-41.1216
-41.4432
-41.762
-42.0597
-42.3714
-42.7055
-43.0428
-43.3781
-43.7099
-44.0385
-44.3643
-44.6878
-45.0093
-45.329
-45.647
-45.9636
-46.2789
-46.593
-46.9061
-47.2181
-47.5292
-47.8394
-48.1489
-48.4576
-48.7656
-49.073
-49.3797
-49.6859
-49.9916
-50.2967
-50.6014
-50.9056
-51.2095
-51.5129
-51.8159
-52.1186
-16.3265
-15.4873
-10.9888
-19.1795
-23.8199
-19.2189
-15.8677
-19.4673
-23.8881
-26.2028
-26.1606
-25.9542
-26.275
-27.9713
-27.8092
-30.7133
-33.8347
-30.2186
-29.3564
-30.492
-29.5377
-29.524
-31.4863
-31.2597
-30.5036
-30.1494
-33.7601
-35.5621
-36.0781
-35.8026
-36.0877
-35.0529
-34.7436
-34.4708
-34.269
-34.6615
-34.4577
-35.1914
-36.601
-38.0936
-38.8357
-36.3114
-36.4297
-37.3423
-37.8269
-37.9405
-38.0117
-37.5555
-37.4413
-37.4421
-37.434
-37.848
-38.6504
-38.7375
-38.9889
-39.1843
-39.4649
-40.3803
-40.5225
-40.4376
-40.606
-40.9245
-41.2139
-41.5758
-42.0187
-42.4321
-42.8209
-43.158
-43.4721
-43.7871
-44.0987
-44.4036
-44.7143
-45.0364
-45.3623
-45.6879
-46.0115
-46.3329
-46.6522
-46.9695
-47.2849
-47.5987
-47.911
-48.2219
-48.5316
-48.8402
-49.1477
-49.4542
-49.7599
-50.0647
-50.3687
-50.672
-50.9746
-51.2766
-51.578
-51.8788
-52.1791
-52.4789
-52.7783
-53.0772
-53.3757
-53.6737
-53.9714
-54.2688
-26.0471
-26.39
-26.2867
-27.0862
-28.4205
-27.2068
-26.9081
-27.6858
-28.0648
-27.5271
-28.5189
-30.1486
-31.5683
-34.1782
-37.8072
-39.1959
-37.983
-35.0036
-33.7607
-33.985
-35.4325
-36.6754
-36.3139
-36.2938
-37.6437
-40.3349
-41.9515
-39.8376
-39.1882
-40.3013
-40.5581
-41.2244
-40.6964
-40.1946
-40.0902
-39.9905
-39.952
-39.6443
-39.0563
-37.5245
-37.703
-39.2032
-39.911
-40.3919
-40.6012
-40.6369
-40.6878
-40.6771
-40.4876
-40.2984
-40.5678
-41.1441
-41.9146
-42.4242
-42.4526
-42.4881
-42.5946
-43.0168
-43.4128
-43.3147
-43.3694
-43.6744
-44.0349
-44.2983
-44.5752
-44.8858
-45.2041
-45.5168
-45.8259
-46.135
-46.4413
-46.7456
-47.0529
-47.3661
-47.6826
-47.9994
-48.315
-48.6292
-48.9417
-49.2525
-49.5618
-49.8696
-50.176
-50.4812
-50.7852
-51.0881
-51.39
-51.691
-51.9911
-52.2904
-52.589
-52.8868
-53.184
-53.4806
-53.7766
-54.0721
-54.367
-54.6614
-54.9554
-55.249
-55.5421
-55.8348
-56.1272
-56.4192
-30.1245
-30.3491
-30.4924
-31.0527
-31.4835
-31.0427
-29.7076
-29.7051
-30.6254
-31.9512
-32.9537
-33.6995
-34.7316
-36.2461
-37.6066
-38.2928
-38.8742
-38.4694
-38.0305
-38.5137
-39.1439
-39.3307
-39.4579
-39.762
-40.8362
-42.1377
-42.7739
-42.5223
-42.4647
-43.3057
-43.5599
-43.2805
-42.6506
-41.9953
-41.6314
-41.4951
-41.2391
-41.3483
-41.6988
-42.0751
-42.3764
-42.2121
-42.2888
-42.5766
-42.7567
-42.8316
-42.8827
-42.7225
-42.6527
-42.8024
-43.1118
-43.4621
-43.6601
-43.9023
-44.0798
-44.7529
-45.1594
-45.3159
-45.4414
-45.4974
-45.6498
-45.8626
-46.1689
-46.5221
-46.8783
-47.2256
-47.5585
-47.8742
-48.1808
-48.4845
-48.786
-49.0867
-49.3892
-49.6951
-50.0032
-50.3118
-50.6198
-50.9267
-51.2324
-51.5367
-51.8397
-52.1414
-52.4419
-52.7412
-53.0395
-53.3367
-53.6329
-53.9283
-54.2229
-54.5167
-54.8097
-55.1021
-55.3939
-55.685
-55.9756
-56.2656
-56.5551
-56.8442
-57.1328
-57.421
-57.7088
-57.9962
-58.2832
-58.5699
-33.362
-33.6559
-33.8188
-33.9187
-34.001
-33.831
-33.7104
-34.0126
-34.3675
-34.6454
-35.1913
-36.2103
-37.4178
-38.715
-40.0336
-41.0184
-41.4922
-41.5789
-41.572
-41.5874
-42.1155
-42.5806
-43.0097
-43.8157
-44.5028
-45.4008
-46.2293
-46.3552
-45.9919
-46.1649
-46.4812
-46.4473
-45.4765
-44.8859
-44.8855
-45.0339
-44.9358
-44.7005
-44.422
-44.0825
-43.8695
-44.3406
-44.7551
-44.9638
-45.1634
-45.2883
-45.2127
-45.154
-45.2737
-45.4618
-45.8681
-46.3257
-46.7203
-46.9281
-47.0907
-47.2257
-47.56
-47.9661
-48.1298
-48.1901
-48.3255
-48.5629
-48.809
-49.0623
-49.3385
-49.6339
-49.9367
-50.2389
-50.5385
-50.836
-51.132
-51.4278
-51.7247
-52.0237
-52.324
-52.6249
-52.9254
-53.2253
-53.5242
-53.822
-54.1186
-54.4142
-54.7086
-55.002
-55.2944
-55.5859
-55.8765
-56.1662
-56.4552
-56.7434
-57.0309
-57.3178
-57.6041
-57.8897
-58.1749
-58.4595
-58.7436
-59.0273
-59.3105
-59.5933
-59.8757
-60.1577
-60.4394
-60.7207
-35.6141
-35.6966
-35.8666
-35.9986
-36.0282
-36.1159
-36.1725
-36.0267
-36.3634
-37.2209
-38.0325
-38.948
-40.0127
-41.1474
-42.2833
-43.1978
-43.8917
-44.347
-44.6692
-45.0954
-45.765
-46.3606
-46.808
-47.3831
-48.0038
-48.3928
-48.7347
-48.661
-48.341
-48.2877
-48.1709
-47.5298
-46.8694
-46.6095
-46.7153
-46.9417
-46.9403
-46.8481
-46.7749
-46.8573
-47.0278
-47.1331
-47.2527
-47.3578
-47.4484
-47.4569
-47.3883
-47.4336
-47.6038
-47.8765
-48.2216
-48.5536
-48.7764
-48.9325
-49.1715
-49.4183
-49.6949
-49.9884
-50.2199
-50.4156
-50.6194
-50.8604
-51.1372
-51.4289
-51.7235
-52.0199
-52.3146
-52.6074
-52.8988
-53.1893
-53.4791
-53.7691
-54.0599
-54.352
-54.645
-54.9385
-55.2318
-55.5247
-55.8168
-56.1081
-56.3984
-56.6877
-56.9761
-57.2635
-57.5501
-57.8357
-58.1206
-58.4046
-58.688
-58.9706
-59.2526
-59.5339
-59.8146
-60.0948
-60.3745
-60.6536
-60.9323
-61.2106
-61.4884
-61.7658
-62.0428
-62.3195
-62.5958
-62.8718
-39.1086
-39.2882
-39.1803
-39.0404
-39.072
-39.2681
-39.409
-39.6126
-39.8504
-40.2269
-40.8553
-41.707
-42.6912
-43.7214
-44.7579
-45.7203
-46.5897
-47.2832
-47.806
-48.483
-49.3411
-49.8871
-50.3922
-51.2455
-51.8088
-51.8107
-51.9262
-51.7362
-51.1626
-50.7355
-50.4206
-50.0588
-49.6812
-49.4674
-49.5444
-49.7488
-49.8353
-49.6667
-49.498
-49.4604
-49.488
-49.5489
-49.6443
-49.7949
-49.8868
-49.8302
-49.718
-49.7945
-50.0193
-50.306
-50.725
-51.17
-51.5164
-51.756
-51.9165
-52.0845
-52.329
-52.5809
-52.7705
-52.9445
-53.1308
-53.3546
-53.6032
-53.862
-54.1319
-54.4106
-54.6933
-54.9769
-55.2604
-55.5437
-55.827
-56.1106
-56.3949
-56.6802
-56.9662
-57.2525
-57.5388
-57.8248
-58.1102
-58.3949
-58.6789
-58.962
-59.2442
-59.5257
-59.8063
-60.0861
-60.3652
-60.6435
-60.9212
-61.1982
-61.4746
-61.7503
-62.0256
-62.3002
-62.5744
-62.8481
-63.1213
-63.3941
-63.6665
-63.9385
-64.2102
-64.4814
-64.7524
-65.023
-41.1415
-41.1973
-41.05
-40.9418
-40.9618
-41.1435
-41.3514
-41.5228
-42.0087
-42.5878
-43.3226
-44.2701
-45.281
-46.3313
-47.3909
-48.4792
-49.4529
-50.2273
-50.9593
-52.2334
-53.0753
-53.9595
-54.9795
-55.5382
-56.0182
-55.5189
-55.0721
-54.7088
-53.9509
-53.2262
-52.6508
-52.0588
-51.6255
-51.4044
-51.4314
-51.5888
-51.6452
-51.7862
-51.9144
-51.9846
-52.1614
-52.3179
-52.2637
-52.2797
-52.2939
-52.1812
-52.1349
-52.2136
-52.3714
-52.6231
-52.9678
-53.3355
-53.6534
-53.9112
-54.1414
-54.367
-54.6166
-54.8676
-55.0943
-55.3065
-55.5202
-55.7521
-56.0018
-56.2615
-56.5279
-56.7985
-57.0721
-57.3471
-57.6228
-57.8989
-58.1754
-58.4524
-58.7301
-59.0085
-59.2875
-59.5669
-59.8463
-60.1254
-60.4042
-60.6824
-60.96
-61.2368
-61.513
-61.7884
-62.0631
-62.337
-62.6103
-62.8829
-63.1549
-63.4262
-63.697
-63.9672
-64.2368
-64.506
-64.7746
-65.0428
-65.3106
-65.578
-65.8449
-66.1115
-66.3777
-66.6436
-66.9091
-67.1744
-43.9514
-44.1859
-44.2403
-44.2262
-44.2406
-44.3959
-44.5376
-44.7634
-45.1155
-45.597
-46.2379
-47.1003
-48.07
-49.0963
-50.1897
-51.3059
-52.332
-53.2785
-54.4345
-55.655
-56.825
-57.95
-59.0581
-59.5017
-59.8991
-59.3837
-58.4856
-57.7104
-56.753
-55.8289
-55.0826
-54.4673
-54.0283
-53.7557
-53.7347
-53.7428
-53.9092
-54.1878
-54.4364
-54.5516
-54.7305
-54.896
-54.8617
-54.7835
-54.7097
-54.5861
-54.5415
-54.6375
-54.8507
-55.1621
-55.5526
-55.9285
-56.2382
-56.4664
-56.6635
-56.8641
-57.0804
-57.2984
-57.5125
-57.727
-57.9459
-58.176
-58.4173
-58.6671
-58.924
-59.1858
-59.4507
-59.7175
-59.9856
-60.2544
-60.524
-60.7943
-61.0652
-61.3369
-61.609
-61.8815
-62.1541
-62.4265
-62.6987
-62.9704
-63.2416
-63.5123
-63.7823
-64.0516
-64.3203
-64.5884
-64.8559
-65.1227
-65.3889
-65.6546
-65.9197
-66.1843
-66.4484
-66.712
-66.9751
-67.2379
-67.5001
-67.762
-68.0235
-68.2847
-68.5455
-68.8059
-69.0661
-69.3259
-45.9657
-46.1193
-46.1947
-46.2399
-46.3114
-46.4628
-46.7099
-47.0521
-47.5468
-48.1864
-48.9472
-49.8316
-50.8254
-51.8925
-53.0215
-54.1673
-55.2648
-56.4337
-57.8802
-59.1626
-60.6037
-61.858
-62.7284
-63.5115
-63.3733
-62.89
-61.9269
-60.6703
-59.526
-58.4567
-57.616
-56.9338
-56.3396
-56.0424
-55.9166
-55.7791
-56.0945
-56.6116
-56.9349
-57.1624
-57.3384
-57.5483
-57.5046
-57.3369
-57.1901
-57.074
-57.0526
-57.1385
-57.3063
-57.559
-57.8813
-58.2155
-58.5266
-58.7972
-59.0358
-59.2624
-59.4865
-59.709
-59.9257
-60.1417
-60.3612
-60.5887
-60.8253
-61.0689
-61.3182
-61.572
-61.8288
-62.0879
-62.3485
-62.6102
-62.8728
-63.1363
-63.4005
-63.6653
-63.9307
-64.1964
-64.4622
-64.728
-64.9936
-65.2589
-65.5238
-65.7881
-66.052
-66.3153
-66.578
-66.8402
-67.1018
-67.3629
-67.6234
-67.8833
-68.1428
-68.4018
-68.6603
-68.9183
-69.1759
-69.4331
-69.6899
-69.9463
-70.2024
-70.4581
-70.7134
-70.9685
-71.2232
-71.4776
-48.8403
-49.0651
-49.217
-49.3352
-49.4687
-49.598
-49.8068
-50.1115
-50.5348
-51.1231
-51.8696
-52.7313
-53.6973
-54.7879
-55.9404
-57.1539
-58.3685
-59.6424
-61.1986
-62.9315
-64.1945
-65.4137
-66.5562
-67.0566
-66.4584
-65.996
-64.8844
-63.4514
-62.2157
-61.1145
-60.1863
-59.3369
-58.6669
-58.3234
-58.0222
-57.9525
-58.5233
-59.0459
-59.4066
-59.8231
-60.1495
-60.2722
-60.1739
-59.9281
-59.7216
-59.608
-59.6011
-59.693
-59.8778
-60.1415
-60.448
-60.7427
-61.0033
-61.246
-61.4666
-61.6855
-61.9043
-62.1227
-62.3386
-62.5547
-62.774
-62.9991
-63.2309
-63.4684
-63.7108
-63.9571
-64.2064
-64.458
-64.7113
-64.966
-65.2217
-65.4783
-65.7357
-65.9938
-66.2524
-66.5114
-66.7706
-67.0298
-67.2889
-67.5477
-67.8063
-68.0644
-68.3221
-68.5794
-68.8361
-69.0924
-69.3481
-69.6034
-69.8581
-70.1124
-70.3662
-70.6195
-70.8724
-71.1249
-71.3769
-71.6286
-71.8799
-72.1308
-72.3814
-72.6316
-72.8816
-73.1312
-73.3805
-73.6295
-51.1884
-51.3771
-51.519
-51.6477
-51.8274
-52.0412
-52.3374
-52.7339
-53.2452
-53.8821
-54.6609
-55.5571
-56.5491
-57.644
-58.812
-60.0195
-61.2835
-62.7053