/*--------------------------------*- C++ -*----------------------------------*\
| =========                 |                                                 |
| \\      /  F ield         | OpenFOAM: The Open Source CFD Toolbox           |
|  \\    /   O peration     | Version:  v1912                                 |
|   \\  /    A nd           | Website:  www.openfoam.com                      |
|    \\/     M anipulation  |                                                 |
\*---------------------------------------------------------------------------*/
FoamFile
{
    version     2.0;
    format      ascii;
    class       volScalarField;
    location    "60";
    object      k;
}
// * * * * * * * * * * * * * * * * * * * * * * * * * * * * * * * * * * * * * //

dimensions      [0 2 -2 0 0 0 0];


internalField   nonuniform List<scalar> 
14268
(
2.34485e-09
2.33759e-09
2.32883e-09
2.31203e-09
2.32477e-09
2.2708e-09
2.44566e-09
2.56681e-09
2.46632e-08
2.44957e-08
2.43118e-08
2.40722e-08
2.40183e-08
2.34927e-08
2.4459e-08
2.55724e-08
5.2671e-08
5.24907e-08
5.22967e-08
5.2016e-08
5.20332e-08
5.12055e-08
5.24649e-08
5.27552e-08
6.47301e-08
6.46312e-08
6.45296e-08
6.43819e-08
6.43194e-08
6.40612e-08
6.43506e-08
6.55144e-08
6.79756e-08
6.79084e-08
6.78488e-08
6.77441e-08
6.79411e-08
6.73494e-08
6.85252e-08
6.80085e-08
6.89908e-08
6.89372e-08
6.89063e-08
6.88464e-08
6.88088e-08
6.88331e-08
6.86302e-08
6.97003e-08
6.90667e-08
6.90386e-08
6.90762e-08
6.88728e-08
6.92422e-08
6.84564e-08
6.97545e-08
6.87014e-08
6.9188e-08
6.91381e-08
6.91041e-08
6.91286e-08
6.90347e-08
6.91825e-08
6.90397e-08
6.99178e-08
6.91051e-08
6.90702e-08
6.91015e-08
6.89753e-08
6.93448e-08
6.86491e-08
6.99313e-08
6.9523e-08
6.92126e-08
6.92244e-08
6.92603e-08
6.9342e-08
6.93895e-08
6.96535e-08
6.98786e-08
7.29609e-08
6.97985e-08
6.99041e-08
7.01774e-08
7.02985e-08
7.13916e-08
7.15029e-08
7.49425e-08
8.03912e-08
7.03143e-08
7.06388e-08
7.11411e-08
7.18009e-08
7.3184e-08
7.48593e-08
7.86241e-08
8.02254e-08
6.94932e-08
6.96411e-08
6.98986e-08
7.02306e-08
7.10813e-08
7.22501e-08
7.35061e-08
7.30924e-08
6.92912e-08
6.92771e-08
6.93139e-08
6.93277e-08
6.95427e-08
6.93049e-08
7.03537e-08
7.05498e-08
6.94586e-08
6.95029e-08
6.95929e-08
6.96682e-08
7.01579e-08
7.06173e-08
7.21433e-08
7.29126e-08
6.89784e-08
6.89529e-08
6.89595e-08
6.88746e-08
6.90463e-08
6.87693e-08
6.93891e-08
6.88563e-08
6.92823e-08
6.92684e-08
6.92815e-08
6.92143e-08
6.93742e-08
6.91799e-08
6.97022e-08
6.98033e-08
6.91646e-08
6.91263e-08
6.90987e-08
6.90108e-08
6.91972e-08
6.88433e-08
6.918e-08
6.88903e-08
6.92336e-08
6.9168e-08
6.91151e-08
6.90078e-08
6.90679e-08
6.86715e-08
6.88561e-08
6.88785e-08
6.92785e-08
6.92523e-08
6.92399e-08
6.91894e-08
6.93854e-08
6.9164e-08
6.96444e-08
6.94053e-08
6.90176e-08
6.89899e-08
6.89885e-08
6.89335e-08
6.91743e-08
6.88381e-08
6.90133e-08
6.91216e-08
6.91391e-08
6.90933e-08
6.90775e-08
6.90054e-08
6.90512e-08
6.88298e-08
6.91125e-08
6.90902e-08
6.92973e-08
6.92806e-08
6.92717e-08
6.92395e-08
6.92564e-08
6.90839e-08
6.9163e-08
6.92292e-08
6.91142e-08
6.90766e-08
6.90298e-08
6.89894e-08
6.89912e-08
6.89719e-08
6.89738e-08
6.9141e-08
6.9283e-08
6.92597e-08
6.92346e-08
6.92266e-08
6.91458e-08
6.91623e-08
6.89496e-08
6.92438e-08
6.92266e-08
6.92085e-08
6.9162e-08
6.91453e-08
6.90683e-08
6.91221e-08
6.89325e-08
6.91814e-08
6.93071e-08
6.92973e-08
6.92714e-08
6.92994e-08
6.91827e-08
6.93091e-08
6.90405e-08
6.92548e-08
6.93654e-08
6.93093e-08
6.92437e-08
6.92398e-08
6.91353e-08
6.92373e-08
6.89709e-08
6.92209e-08
7.03548e-08
7.01777e-08
6.99875e-08
6.98724e-08
6.96413e-08
6.96345e-08
6.9387e-08
6.94258e-08
7.49869e-08
7.42267e-08
7.35265e-08
7.28684e-08
7.22506e-08
7.1798e-08
7.13226e-08
7.10542e-08
1.00909e-07
9.70926e-08
9.3324e-08
8.96165e-08
8.6417e-08
8.33476e-08
8.14955e-08
7.92957e-08
2.2941e-07
2.13211e-07
1.9642e-07
1.79273e-07
1.63961e-07
1.48631e-07
1.392e-07
1.27633e-07
7.3844e-07
6.86297e-07
6.28561e-07
5.66383e-07
5.07371e-07
4.48004e-07
4.07328e-07
3.58391e-07
2.37857e-06
2.23484e-06
2.07633e-06
1.90109e-06
1.7273e-06
1.54977e-06
1.41277e-06
1.24934e-06
7.66078e-06
7.08862e-06
6.42677e-06
5.97554e-06
5.54755e-06
5.12636e-06
4.75602e-06
4.31244e-06
2.14829e-05
2.2664e-05
2.23905e-05
2.08004e-05
1.9431e-05
1.83929e-05
1.76846e-05
1.57995e-05
1.27292e-05
2.22542e-05
3.692e-05
5.20392e-05
6.20498e-05
6.59958e-05
6.504e-05
7.61526e-05
0.000984419
0.000817542
0.000619284
0.000430369
0.000266364
0.000137513
6.35021e-05
0.000103293
0.0132119
0.0127962
0.0118182
0.0104772
0.00890019
0.00700616
0.00457958
0.00190164
0.0425565
0.0443669
0.0454073
0.0459474
0.0458113
0.0447884
0.0409135
0.0318807
0.0552923
0.0594129
0.0633906
0.067323
0.0710374
0.0747904
0.0760473
0.0755396
0.0557721
0.0605948
0.0654195
0.0702789
0.075182
0.0803387
0.0842226
0.0883304
0.051151
0.0562023
0.0613218
0.0665121
0.0717981
0.0773617
0.082303
0.0871905
0.0466443
0.0517659
0.0569971
0.0623235
0.0677326
0.0733526
0.0784217
0.0834362
0.0421507
0.0473716
0.0527408
0.058244
0.0638521
0.069668
0.0751709
0.0806357
0.0370045
0.0423081
0.047792
0.0534516
0.0592441
0.0652564
0.0710615
0.0769275
0.0309639
0.036311
0.0418498
0.0475887
0.053488
0.0596406
0.0657464
0.0719897
0.0240369
0.0293141
0.034836
0.0405875
0.0465446
0.0528129
0.0591347
0.0656392
0.0169612
0.0217181
0.0269314
0.0325525
0.038463
0.0447415
0.0511623
0.0578515
0.0105376
0.0144287
0.0189214
0.0239855
0.0295354
0.0356765
0.0420881
0.0488469
0.00549571
0.00822177
0.0116525
0.0158098
0.0206201
0.0261671
0.0321906
0.0388268
0.00230824
0.00383202
0.0059932
0.00891071
0.0126028
0.0171829
0.0224402
0.0284729
0.000760701
0.00139895
0.00243794
0.00404884
0.0063709
0.00959699
0.0136498
0.0186594
0.000201801
0.00040131
0.000768161
0.00142359
0.00252499
0.00430032
0.00685223
0.0104034
4.48572e-05
9.34681e-05
0.00019038
0.000383778
0.000757383
0.00146083
0.00265569
0.0046141
8.73342e-06
1.8582e-05
3.9069e-05
8.28524e-05
0.000175813
0.000373129
0.00076591
0.00153485
1.5626e-06
3.28057e-06
6.92215e-06
1.50344e-05
3.31883e-05
7.45051e-05
0.000166659
0.000375382
3.06006e-07
5.75348e-07
1.14536e-06
2.43036e-06
5.35598e-06
1.22929e-05
2.88952e-05
6.9996e-05
1.04594e-07
1.44216e-07
2.2656e-07
4.09444e-07
8.22794e-07
1.81035e-06
4.23716e-06
1.05303e-05
7.42406e-08
7.96993e-08
9.09976e-08
1.15952e-07
1.71025e-07
2.98955e-07
6.08999e-07
1.41794e-06
7.00554e-08
7.07484e-08
7.21725e-08
7.53657e-08
8.23318e-08
9.84285e-08
1.3662e-07
2.3369e-07
6.95341e-08
6.96181e-08
6.97823e-08
7.01804e-08
7.09882e-08
7.29038e-08
7.73957e-08
8.87289e-08
6.94726e-08
6.94955e-08
6.95212e-08
6.95897e-08
6.96685e-08
6.99144e-08
7.04438e-08
7.17025e-08
6.94687e-08
6.94805e-08
6.94925e-08
6.95303e-08
6.95346e-08
6.9609e-08
6.97165e-08
6.99084e-08
6.94634e-08
6.94842e-08
6.95e-08
6.95326e-08
6.95243e-08
6.95775e-08
6.96431e-08
6.97481e-08
6.94639e-08
6.9486e-08
6.95132e-08
6.95532e-08
6.95476e-08
6.95878e-08
6.96393e-08
6.97292e-08
6.94583e-08
6.94865e-08
6.95225e-08
6.95759e-08
6.9588e-08
6.96232e-08
6.9647e-08
6.97229e-08
6.94491e-08
6.94786e-08
6.95233e-08
6.95858e-08
6.96186e-08
6.96722e-08
6.96753e-08
6.97231e-08
6.94425e-08
6.94743e-08
6.95225e-08
6.95873e-08
6.96323e-08
6.96993e-08
6.97155e-08
6.97416e-08
6.94408e-08
6.94735e-08
6.952e-08
6.95859e-08
6.96368e-08
6.97091e-08
6.97383e-08
6.97683e-08
6.94411e-08
6.94733e-08
6.95145e-08
6.95726e-08
6.96288e-08
6.97062e-08
6.9744e-08
6.97804e-08
6.94178e-08
6.94435e-08
6.94738e-08
6.95205e-08
6.95751e-08
6.96537e-08
6.97116e-08
6.97672e-08
6.93552e-08
6.93799e-08
6.94096e-08
6.94494e-08
6.94901e-08
6.95515e-08
6.96078e-08
6.96769e-08
6.93042e-08
6.93283e-08
6.93563e-08
6.93923e-08
6.94255e-08
6.94725e-08
6.9514e-08
6.95693e-08
6.92765e-08
6.92994e-08
6.93248e-08
6.93565e-08
6.93844e-08
6.94233e-08
6.94572e-08
6.95025e-08
6.92836e-08
6.93036e-08
6.93256e-08
6.93541e-08
6.93796e-08
6.94137e-08
6.94431e-08
6.94822e-08
6.93144e-08
6.93337e-08
6.9354e-08
6.93801e-08
6.94029e-08
6.94333e-08
6.94603e-08
6.94948e-08
6.9329e-08
6.93504e-08
6.93704e-08
6.93971e-08
6.94199e-08
6.94486e-08
6.94735e-08
6.95044e-08
6.94286e-08
6.94481e-08
6.94657e-08
6.94856e-08
6.95016e-08
6.95213e-08
6.95373e-08
6.95555e-08
7.01749e-08
7.01637e-08
7.01442e-08
7.01208e-08
7.00913e-08
7.00612e-08
7.0029e-08
6.99989e-08
7.24433e-08
7.23479e-08
7.22338e-08
7.21034e-08
7.19601e-08
7.18073e-08
7.16505e-08
7.14927e-08
7.96098e-08
7.93966e-08
7.91202e-08
7.87865e-08
7.83989e-08
7.79652e-08
7.74889e-08
7.69759e-08
9.67692e-08
9.64618e-08
9.60259e-08
9.54649e-08
9.47922e-08
9.40181e-08
9.31625e-08
9.22395e-08
1.3097e-07
1.30981e-07
1.30783e-07
1.30375e-07
1.29756e-07
1.28934e-07
1.27906e-07
1.26681e-07
1.89079e-07
1.89882e-07
1.90449e-07
1.90771e-07
1.90848e-07
1.90684e-07
1.90276e-07
1.89602e-07
3.09566e-07
3.11256e-07
3.12562e-07
3.13487e-07
3.1404e-07
3.14233e-07
3.14072e-07
3.13543e-07
6.61826e-07
6.65952e-07
6.6925e-07
6.71733e-07
6.73413e-07
6.74301e-07
6.74403e-07
6.73715e-07
2.27506e-09
2.04193e-09
1.8175e-09
1.64879e-09
1.5191e-09
1.40457e-09
1.3232e-09
1.29685e-09
1.30519e-09
1.33417e-09
1.38419e-09
1.44512e-09
1.48867e-09
1.50764e-09
1.51086e-09
1.49704e-09
1.46235e-09
1.4115e-09
1.34893e-09
1.27871e-09
1.20195e-09
1.11745e-09
1.02387e-09
9.23298e-10
8.28669e-10
7.51152e-10
6.9538e-10
6.63946e-10
6.57602e-10
6.67994e-10
6.84349e-10
7.02924e-10
7.24016e-10
7.46608e-10
7.67635e-10
7.88711e-10
8.09729e-10
8.31229e-10
8.53852e-10
8.78169e-10
9.03823e-10
9.28855e-10
9.51646e-10
9.72694e-10
9.91059e-10
1.0054e-09
1.01713e-09
1.02688e-09
1.03259e-09
1.03408e-09
1.03614e-09
1.04151e-09
1.05028e-09
1.0665e-09
1.0827e-09
1.09751e-09
1.11186e-09
1.12585e-09
1.13903e-09
1.15271e-09
1.16545e-09
1.17408e-09
1.17932e-09
1.18149e-09
1.1876e-09
1.19181e-09
1.19045e-09
1.18356e-09
1.17351e-09
1.16068e-09
1.14511e-09
1.12532e-09
1.10011e-09
1.07023e-09
1.03586e-09
9.9791e-10
9.59112e-10
9.21609e-10
8.86011e-10
8.50201e-10
8.42491e-10
8.3688e-10
8.27057e-10
8.14118e-10
8.01016e-10
7.86994e-10
7.73121e-10
7.67455e-10
7.72852e-10
7.81294e-10
7.86284e-10
7.91053e-10
7.97245e-10
8.00707e-10
8.00302e-10
7.98397e-10
7.95748e-10
7.93162e-10
7.93544e-10
7.95696e-10
7.9932e-10
8.03363e-10
8.07002e-10
8.10349e-10
8.13374e-10
8.15794e-10
8.17611e-10
8.18589e-10
8.19013e-10
8.20891e-10
8.24537e-10
8.28854e-10
8.32946e-10
8.3633e-10
8.38966e-10
8.41026e-10
8.43065e-10
8.45113e-10
8.46793e-10
8.48144e-10
8.48729e-10
8.48159e-10
8.46675e-10
8.48361e-10
8.52721e-10
8.56625e-10
8.59297e-10
8.61027e-10
8.62094e-10
8.62644e-10
8.62204e-10
8.60188e-10
8.56473e-10
8.51501e-10
8.45969e-10
8.40987e-10
8.37466e-10
8.36877e-10
8.35819e-10
8.33158e-10
8.29368e-10
8.25888e-10
8.23328e-10
8.20643e-10
8.17701e-10
8.14376e-10
8.10556e-10
8.07023e-10
8.04252e-10
8.02182e-10
8.01539e-10
8.01572e-10
8.01078e-10
7.99384e-10
7.96733e-10
7.94164e-10
2.37328e-08
2.17863e-08
1.98748e-08
1.81367e-08
1.66317e-08
1.53829e-08
1.45575e-08
1.43726e-08
1.44445e-08
1.47194e-08
1.52388e-08
1.59049e-08
1.63195e-08
1.64676e-08
1.64914e-08
1.63905e-08
1.61217e-08
1.57205e-08
1.52383e-08
1.47204e-08
1.41857e-08
1.36179e-08
1.29901e-08
1.2294e-08
1.16079e-08
1.10654e-08
1.07131e-08
1.05466e-08
1.05407e-08
1.06738e-08
1.09234e-08
1.12721e-08
1.17272e-08
1.22777e-08
1.28827e-08
1.35241e-08
1.41981e-08
1.49037e-08
1.56348e-08
1.63758e-08
1.70902e-08
1.773e-08
1.82727e-08
1.87343e-08
1.9119e-08
1.94262e-08
1.96834e-08
1.99026e-08
2.00619e-08
2.01557e-08
2.02205e-08
2.02819e-08
2.03273e-08
2.03756e-08
2.04253e-08
2.04729e-08
2.05242e-08
2.05758e-08
2.06194e-08
2.06662e-08
2.07111e-08
2.07282e-08
2.07255e-08
2.0695e-08
2.06759e-08
2.06334e-08
2.05505e-08
2.04328e-08
2.03139e-08
2.01979e-08
2.00813e-08
1.99497e-08
1.97942e-08
1.96212e-08
1.94288e-08
1.92143e-08
1.89956e-08
1.87782e-08
1.85888e-08
1.83542e-08
1.82912e-08
1.82402e-08
1.81547e-08
1.80597e-08
1.79964e-08
1.79404e-08
1.78826e-08
1.78627e-08
1.78949e-08
1.79394e-08
1.7947e-08
1.79588e-08
1.80016e-08
1.80178e-08
1.80011e-08
1.79753e-08
1.79655e-08
1.79828e-08
1.80245e-08
1.80819e-08
1.81479e-08
1.82217e-08
1.83005e-08
1.83842e-08
1.84697e-08
1.85501e-08
1.86262e-08
1.86916e-08
1.87538e-08
1.88143e-08
1.88696e-08
1.8916e-08
1.89501e-08
1.89752e-08
1.90003e-08
1.90337e-08
1.90842e-08
1.91491e-08
1.92174e-08
1.92864e-08
1.93481e-08
1.93949e-08
1.94306e-08
1.94693e-08
1.95129e-08
1.95516e-08
1.95822e-08
1.96051e-08
1.96164e-08
1.96148e-08
1.95992e-08
1.95709e-08
1.95351e-08
1.94987e-08
1.94651e-08
1.94393e-08
1.94216e-08
1.94141e-08
1.9405e-08
1.9389e-08
1.93658e-08
1.93399e-08
1.93115e-08
1.92762e-08
1.92358e-08
1.91955e-08
1.91584e-08
1.91316e-08
1.91144e-08
1.91036e-08
1.91024e-08
1.91027e-08
1.90935e-08
1.90699e-08
1.90329e-08
1.89899e-08
5.07198e-08
4.9067e-08
4.72361e-08
4.54199e-08
4.35851e-08
4.19061e-08
4.08186e-08
4.0663e-08
4.0826e-08
4.12761e-08
4.20452e-08
4.28542e-08
4.33241e-08
4.35128e-08
4.35228e-08
4.33427e-08
4.29265e-08
4.23253e-08
4.15963e-08
4.0789e-08
3.99082e-08
3.89199e-08
3.777e-08
3.64201e-08
3.4916e-08
3.35306e-08
3.24729e-08
3.18227e-08
3.15852e-08
3.16763e-08
3.20939e-08
3.28615e-08
3.3967e-08
3.5344e-08
3.68705e-08
3.84701e-08
4.01034e-08
4.17444e-08
4.33536e-08
4.48792e-08
4.62588e-08
4.74355e-08
4.83958e-08
4.91809e-08
4.98197e-08
5.03309e-08
5.07531e-08
5.11053e-08
5.13719e-08
5.15523e-08
5.16803e-08
5.17759e-08
5.18244e-08
5.18352e-08
5.18486e-08
5.1867e-08
5.18941e-08
5.19232e-08
5.19457e-08
5.19711e-08
5.20002e-08
5.20099e-08
5.20073e-08
5.19652e-08
5.19078e-08
5.18098e-08
5.16742e-08
5.15182e-08
5.13741e-08
5.12422e-08
5.1125e-08
5.10048e-08
5.08786e-08
5.07538e-08
5.06261e-08
5.04863e-08
5.0352e-08
5.02161e-08
5.01402e-08
4.99875e-08
4.99098e-08
4.98286e-08
4.9706e-08
4.95895e-08
4.95215e-08
4.94609e-08
4.93929e-08
4.93396e-08
4.93022e-08
4.92538e-08
4.91823e-08
4.91176e-08
4.91127e-08
4.90901e-08
4.90522e-08
4.90221e-08
4.90423e-08
4.91026e-08
4.91941e-08
4.92889e-08
4.93826e-08
4.9485e-08
4.95964e-08
4.9718e-08
4.98426e-08
4.9959e-08
5.00673e-08
5.01641e-08
5.02631e-08
5.0347e-08
5.04098e-08
5.0455e-08
5.04831e-08
5.05034e-08
5.05303e-08
5.05756e-08
5.06494e-08
5.07471e-08
5.08557e-08
5.09715e-08
5.10848e-08
5.11869e-08
5.12795e-08
5.13559e-08
5.14171e-08
5.1465e-08
5.14996e-08
5.15203e-08
5.15223e-08
5.15068e-08
5.14788e-08
5.14473e-08
5.1421e-08
5.14068e-08
5.14021e-08
5.14052e-08
5.14068e-08
5.13994e-08
5.13888e-08
5.13759e-08
5.13601e-08
5.13392e-08
5.13103e-08
5.12752e-08
5.12368e-08
5.12026e-08
5.11781e-08
5.1168e-08
5.11664e-08
5.11697e-08
5.11768e-08
5.11783e-08
5.11649e-08
5.11326e-08
5.10825e-08
5.10215e-08
6.51485e-08
6.41818e-08
6.28985e-08
6.16869e-08
6.06642e-08
5.97023e-08
5.88669e-08
5.86358e-08
5.87166e-08
5.89948e-08
5.93955e-08
5.98091e-08
6.00439e-08
6.01079e-08
6.01171e-08
6.00472e-08
5.98602e-08
5.9578e-08
5.92287e-08
5.88439e-08
5.84259e-08
5.7951e-08
5.73847e-08
5.66969e-08
5.58908e-08
5.50865e-08
5.44516e-08
5.40416e-08
5.38794e-08
5.39399e-08
5.42483e-08
5.48117e-08
5.5579e-08
5.64925e-08
5.7449e-08
5.83948e-08
5.93102e-08
6.01868e-08
6.10023e-08
6.17369e-08
6.23715e-08
6.28989e-08
6.33239e-08
6.36709e-08
6.39523e-08
6.41784e-08
6.43639e-08
6.45148e-08
6.4626e-08
6.47026e-08
6.47563e-08
6.47958e-08
6.48146e-08
6.48136e-08
6.4815e-08
6.48183e-08
6.48258e-08
6.48361e-08
6.48434e-08
6.48513e-08
6.48661e-08
6.48731e-08
6.48773e-08
6.48625e-08
6.48408e-08
6.47913e-08
6.47206e-08
6.4652e-08
6.46008e-08
6.45491e-08
6.45015e-08
6.44516e-08
6.44009e-08
6.43524e-08
6.43057e-08
6.42583e-08
6.42378e-08
6.42105e-08
6.42146e-08
6.41627e-08
6.41375e-08
6.41078e-08
6.40614e-08
6.40208e-08
6.40003e-08
6.39803e-08
6.39543e-08
6.39316e-08
6.39113e-08
6.38821e-08
6.38453e-08
6.38116e-08
6.38049e-08
6.37899e-08
6.37712e-08
6.37598e-08
6.37722e-08
6.38009e-08
6.38413e-08
6.38796e-08
6.39141e-08
6.39521e-08
6.39935e-08
6.40366e-08
6.40815e-08
6.41262e-08
6.41754e-08
6.42137e-08
6.42556e-08
6.429e-08
6.43145e-08
6.43317e-08
6.43408e-08
6.43471e-08
6.43562e-08
6.43729e-08
6.44022e-08
6.44425e-08
6.44873e-08
6.45332e-08
6.45805e-08
6.46228e-08
6.46599e-08
6.46907e-08
6.4715e-08
6.47332e-08
6.47465e-08
6.47542e-08
6.47543e-08
6.47476e-08
6.47355e-08
6.47231e-08
6.47132e-08
6.47088e-08
6.47081e-08
6.47103e-08
6.47113e-08
6.47081e-08
6.47033e-08
6.46996e-08
6.46953e-08
6.46887e-08
6.46781e-08
6.4664e-08
6.46485e-08
6.46348e-08
6.46255e-08
6.4623e-08
6.46245e-08
6.46271e-08
6.46314e-08
6.46317e-08
6.46257e-08
6.46105e-08
6.45891e-08
6.45642e-08
6.60163e-08
6.61991e-08
6.63256e-08
6.61482e-08
6.57672e-08
6.55156e-08
6.547e-08
6.55491e-08
6.56854e-08
6.58532e-08
6.60895e-08
6.63085e-08
6.64044e-08
6.6423e-08
6.64204e-08
6.63875e-08
6.63239e-08
6.62396e-08
6.61384e-08
6.60356e-08
6.59407e-08
6.58433e-08
6.57362e-08
6.56073e-08
6.54402e-08
6.52471e-08
6.50938e-08
6.50074e-08
6.49894e-08
6.50429e-08
6.51672e-08
6.53571e-08
6.55933e-08
6.58553e-08
6.61069e-08
6.63504e-08
6.65642e-08
6.6766e-08
6.69512e-08
6.712e-08
6.72717e-08
6.74087e-08
6.75271e-08
6.76301e-08
6.77142e-08
6.77829e-08
6.78389e-08
6.78856e-08
6.79237e-08
6.79512e-08
6.79721e-08
6.79878e-08
6.79937e-08
6.79928e-08
6.79927e-08
6.79915e-08
6.7991e-08
6.79933e-08
6.79964e-08
6.79979e-08
6.80013e-08
6.80007e-08
6.79989e-08
6.7991e-08
6.79841e-08
6.79736e-08
6.79675e-08
6.79581e-08
6.79429e-08
6.79187e-08
6.78895e-08
6.78724e-08
6.78666e-08
6.78663e-08
6.78612e-08
6.78499e-08
6.78548e-08
6.78471e-08
6.78646e-08
6.78394e-08
6.78359e-08
6.78317e-08
6.78205e-08
6.78094e-08
6.78051e-08
6.77958e-08
6.77852e-08
6.77818e-08
6.77773e-08
6.77664e-08
6.77508e-08
6.77395e-08
6.77354e-08
6.77242e-08
6.7712e-08
6.77075e-08
6.77132e-08
6.77229e-08
6.7738e-08
6.77503e-08
6.77589e-08
6.7768e-08
6.77789e-08
6.77946e-08
6.78093e-08
6.78213e-08
6.7836e-08
6.78412e-08
6.78507e-08
6.7861e-08
6.7867e-08
6.78706e-08
6.78723e-08
6.78734e-08
6.78753e-08
6.78812e-08
6.78905e-08
6.79031e-08
6.79172e-08
6.79336e-08
6.7949e-08
6.7962e-08
6.79735e-08
6.79831e-08
6.79905e-08
6.79956e-08
6.79989e-08
6.79995e-08
6.79991e-08
6.79968e-08
6.79939e-08
6.7991e-08
6.79888e-08
6.79885e-08
6.79886e-08
6.79896e-08
6.79901e-08
6.79895e-08
6.79879e-08
6.7987e-08
6.79867e-08
6.79853e-08
6.79825e-08
6.79785e-08
6.79741e-08
6.79708e-08
6.79687e-08
6.79688e-08
6.79697e-08
6.79716e-08
6.79713e-08
6.79746e-08
6.79739e-08
6.79685e-08
6.7961e-08
6.79515e-08
7.0073e-08
6.97943e-08
6.93886e-08
6.86816e-08
6.8377e-08
6.83313e-08
6.83437e-08
6.83334e-08
6.83348e-08
6.83528e-08
6.83443e-08
6.82971e-08
6.82832e-08
6.82807e-08
6.82898e-08
6.8292e-08
6.83014e-08
6.8328e-08
6.83643e-08
6.84165e-08
6.84901e-08
6.85903e-08
6.87215e-08
6.88855e-08
6.90637e-08
6.92167e-08
6.93272e-08
6.93812e-08
6.9391e-08
6.93706e-08
6.93167e-08
6.92295e-08
6.91205e-08
6.90101e-08
6.8892e-08
6.87838e-08
6.86968e-08
6.86324e-08
6.85852e-08
6.85595e-08
6.85402e-08
6.85402e-08
6.85455e-08
6.85542e-08
6.85652e-08
6.85756e-08
6.85858e-08
6.85942e-08
6.85968e-08
6.86e-08
6.86037e-08
6.86091e-08
6.86168e-08
6.86197e-08
6.86246e-08
6.86277e-08
6.86287e-08
6.86307e-08
6.863e-08
6.86265e-08
6.86277e-08
6.86253e-08
6.86292e-08
6.86223e-08
6.86288e-08
6.86185e-08
6.86065e-08
6.86058e-08
6.86074e-08
6.86002e-08
6.85904e-08
6.8589e-08
6.8593e-08
6.85985e-08
6.85946e-08
6.85875e-08
6.8586e-08
6.85792e-08
6.85977e-08
6.85789e-08
6.85811e-08
6.85845e-08
6.85867e-08
6.85909e-08
6.8596e-08
6.85946e-08
6.85871e-08
6.85848e-08
6.85859e-08
6.85846e-08
6.85826e-08
6.8583e-08
6.85849e-08
6.85816e-08
6.85766e-08
6.85725e-08
6.85745e-08
6.85768e-08
6.85807e-08
6.85809e-08
6.85783e-08
6.85762e-08
6.85757e-08
6.85801e-08
6.85817e-08
6.85809e-08
6.85773e-08
6.85724e-08
6.85724e-08
6.85742e-08
6.85752e-08
6.85753e-08
6.85754e-08
6.85759e-08
6.85768e-08
6.85784e-08
6.85805e-08
6.85834e-08
6.85863e-08
6.85902e-08
6.85934e-08
6.85946e-08
6.85956e-08
6.85976e-08
6.85998e-08
6.86011e-08
6.86018e-08
6.86021e-08
6.86003e-08
6.85998e-08
6.85997e-08
6.85996e-08
6.85999e-08
6.85995e-08
6.8598e-08
6.85968e-08
6.85951e-08
6.85946e-08
6.85942e-08
6.85942e-08
6.85936e-08
6.85934e-08
6.85922e-08
6.85915e-08
6.85903e-08
6.85879e-08
6.85874e-08
6.85864e-08
6.8585e-08
6.85824e-08
6.85856e-08
6.85829e-08
6.85821e-08
6.85796e-08
6.85772e-08
6.85762e-08
6.74909e-08
6.77528e-08
6.80501e-08
6.81498e-08
6.8223e-08
6.83322e-08
6.85891e-08
6.88044e-08
6.88045e-08
6.87735e-08
6.87309e-08
6.87087e-08
6.86685e-08
6.8639e-08
6.86442e-08
6.86778e-08
6.87163e-08
6.87729e-08
6.88516e-08
6.89557e-08
6.90863e-08
6.92534e-08
6.94688e-08
6.97391e-08
7.00518e-08
7.03482e-08
7.05793e-08
7.07292e-08
7.08035e-08
7.08149e-08
7.07542e-08
7.06128e-08
7.04064e-08
7.01632e-08
6.99103e-08
6.96654e-08
6.94322e-08
6.92297e-08
6.90622e-08
6.89228e-08
6.882e-08
6.87519e-08
6.87124e-08
6.86939e-08
6.86874e-08
6.869e-08
6.86941e-08
6.86971e-08
6.86999e-08
6.87032e-08
6.87067e-08
6.87122e-08
6.87147e-08
6.87201e-08
6.87206e-08
6.87168e-08
6.87136e-08
6.87142e-08
6.87158e-08
6.87155e-08
6.87217e-08
6.87216e-08
6.87298e-08
6.87247e-08
6.87241e-08
6.87137e-08
6.87093e-08
6.87116e-08
6.87173e-08
6.87126e-08
6.87072e-08
6.86989e-08
6.86909e-08
6.86852e-08
6.86788e-08
6.86744e-08
6.86895e-08
6.87006e-08
6.873e-08
6.87173e-08
6.8724e-08
6.87302e-08
6.87351e-08
6.8743e-08
6.8752e-08
6.87547e-08
6.87545e-08
6.87557e-08
6.87591e-08
6.87583e-08
6.87592e-08
6.87608e-08
6.87619e-08
6.87594e-08
6.87583e-08
6.87585e-08
6.87599e-08
6.87584e-08
6.87576e-08
6.87545e-08
6.8749e-08
6.87428e-08
6.87362e-08
6.8727e-08
6.87181e-08
6.87121e-08
6.87127e-08
6.87093e-08
6.87083e-08
6.87073e-08
6.87069e-08
6.87068e-08
6.8706e-08
6.87057e-08
6.87052e-08
6.8704e-08
6.87031e-08
6.87032e-08
6.87041e-08
6.87029e-08
6.87041e-08
6.87038e-08
6.87014e-08
6.87008e-08
6.87013e-08
6.87023e-08
6.87026e-08
6.8702e-08
6.8702e-08
6.87017e-08
6.87007e-08
6.87e-08
6.87001e-08
6.87001e-08
6.86998e-08
6.86996e-08
6.86991e-08
6.86994e-08
6.86984e-08
6.86978e-08
6.86972e-08
6.86953e-08
6.86962e-08
6.86936e-08
6.8693e-08
6.86932e-08
6.8691e-08
6.8689e-08
6.86895e-08
6.86913e-08
6.86868e-08
6.86912e-08
6.86913e-08
6.86878e-08
6.86831e-08
6.86785e-08
7.03365e-08
7.06246e-08
7.04884e-08
6.98934e-08
6.9472e-08
6.92572e-08
6.92565e-08
6.9319e-08
6.93e-08
6.92325e-08
6.91333e-08
6.9092e-08
6.90935e-08
6.90553e-08
6.90544e-08
6.90548e-08
6.91205e-08
6.91841e-08
6.92659e-08
6.93861e-08
6.95384e-08
6.97251e-08
6.99629e-08
7.02661e-08
7.06253e-08
7.09893e-08
7.1289e-08
7.14872e-08
7.15758e-08
7.15749e-08
7.14726e-08
7.12635e-08
7.09706e-08
7.06301e-08
7.02793e-08
6.99385e-08
6.9629e-08
6.93621e-08
6.91459e-08
6.89802e-08
6.8861e-08
6.8785e-08
6.87389e-08
6.8715e-08
6.87025e-08
6.86944e-08
6.86902e-08
6.86887e-08
6.86901e-08
6.86919e-08
6.86952e-08
6.86956e-08
6.86986e-08
6.8701e-08
6.87055e-08
6.87086e-08
6.87082e-08
6.87094e-08
6.87105e-08
6.87092e-08
6.87111e-08
6.87088e-08
6.87118e-08
6.87053e-08
6.87072e-08
6.87061e-08
6.8708e-08
6.87152e-08
6.8717e-08
6.87095e-08
6.86976e-08
6.86943e-08
6.87001e-08
6.87128e-08
6.87175e-08
6.87163e-08
6.8725e-08
6.87225e-08
6.87432e-08
6.87283e-08
6.87325e-08
6.87395e-08
6.87427e-08
6.87469e-08
6.87501e-08
6.8748e-08
6.87439e-08
6.87461e-08
6.87535e-08
6.87553e-08
6.87546e-08
6.87583e-08
6.87593e-08
6.8754e-08
6.87488e-08
6.87476e-08
6.8748e-08
6.87462e-08
6.87472e-08
6.87457e-08
6.87414e-08
6.87361e-08
6.87311e-08
6.87293e-08
6.87262e-08
6.87224e-08
6.87199e-08
6.87135e-08
6.87105e-08
6.87098e-08
6.87089e-08
6.87082e-08
6.87083e-08
6.87077e-08
6.87067e-08
6.8707e-08
6.87074e-08
6.87079e-08
6.87078e-08
6.87084e-08
6.87089e-08
6.8708e-08
6.87066e-08
6.87074e-08
6.87084e-08
6.87079e-08
6.87068e-08
6.87053e-08
6.87046e-08
6.87045e-08
6.87049e-08
6.87053e-08
6.87045e-08
6.87044e-08
6.87026e-08
6.87012e-08
6.87002e-08
6.86994e-08
6.86985e-08
6.86981e-08
6.86983e-08
6.87e-08
6.86973e-08
6.87004e-08
6.87002e-08
6.86995e-08
6.86999e-08
6.87006e-08
6.86989e-08
6.86944e-08
6.86995e-08
6.86974e-08
6.86967e-08
6.86958e-08
6.86956e-08
6.86961e-08
6.85477e-08
6.9533e-08
7.07622e-08
7.10706e-08
7.09053e-08
7.04742e-08
6.97832e-08
6.93646e-08
6.92656e-08
6.92161e-08
6.916e-08
6.90731e-08
6.90738e-08
6.90672e-08
6.9038e-08
6.90667e-08
6.91052e-08
6.92074e-08
6.93248e-08
6.94498e-08
6.96083e-08
6.98149e-08
7.00821e-08
7.04167e-08
7.08068e-08
7.11937e-08
7.15072e-08
7.172e-08
7.18252e-08
7.18315e-08
7.17227e-08
7.14871e-08
7.11518e-08
7.07581e-08
7.03624e-08
6.99913e-08
6.96655e-08
6.93923e-08
6.91727e-08
6.9006e-08
6.88843e-08
6.88062e-08
6.87601e-08
6.87341e-08
6.87207e-08
6.87164e-08
6.87167e-08
6.87169e-08
6.87141e-08
6.87141e-08
6.87149e-08
6.87201e-08
6.87247e-08
6.87306e-08
6.87329e-08
6.87316e-08
6.87301e-08
6.87312e-08
6.87316e-08
6.87288e-08
6.87322e-08
6.87305e-08
6.8736e-08
6.87334e-08
6.87368e-08
6.873e-08
6.8722e-08
6.87248e-08
6.87315e-08
6.87281e-08
6.87225e-08
6.87196e-08
6.87212e-08
6.87237e-08
6.87206e-08
6.8714e-08
6.87254e-08
6.87279e-08
6.87515e-08
6.87358e-08
6.87408e-08
6.87478e-08
6.87532e-08
6.876e-08
6.87653e-08
6.87654e-08
6.87592e-08
6.87636e-08
6.87672e-08
6.87665e-08
6.87664e-08
6.87684e-08
6.87703e-08
6.87675e-08
6.87645e-08
6.87603e-08
6.8762e-08
6.87618e-08
6.8762e-08
6.87601e-08
6.87556e-08
6.87505e-08
6.87453e-08
6.87417e-08
6.87378e-08
6.87334e-08
6.87301e-08
6.87241e-08
6.87212e-08
6.87202e-08
6.87188e-08
6.87183e-08
6.87179e-08
6.87169e-08
6.87169e-08
6.87167e-08
6.87161e-08
6.87163e-08
6.87164e-08
6.87167e-08
6.87173e-08
6.87162e-08
6.87145e-08
6.87144e-08
6.8715e-08
6.87146e-08
6.87153e-08
6.87154e-08
6.87141e-08
6.87139e-08
6.87141e-08
6.87147e-08
6.87151e-08
6.87146e-08
6.87141e-08
6.87132e-08
6.87114e-08
6.8712e-08
6.87113e-08
6.87108e-08
6.87095e-08
6.87065e-08
6.87088e-08
6.87042e-08
6.87041e-08
6.87034e-08
6.87016e-08
6.86987e-08
6.86983e-08
6.87023e-08
6.86964e-08
6.8699e-08
6.86996e-08
6.86966e-08
6.8693e-08
6.86896e-08
7.16009e-08
7.29323e-08
7.66856e-08
8.09427e-08
8.11314e-08
7.80444e-08
7.38351e-08
7.12478e-08
7.01254e-08
6.95672e-08
6.92577e-08
6.90882e-08
6.90345e-08
6.90553e-08
6.91123e-08
6.91367e-08
6.91619e-08
6.92305e-08
6.93439e-08
6.94876e-08
6.96518e-08
6.9862e-08
7.01383e-08
7.0493e-08
7.09125e-08
7.13236e-08
7.16611e-08
7.18848e-08
7.1979e-08
7.19541e-08
7.18e-08
7.15248e-08
7.116e-08
7.07565e-08
7.03695e-08
6.9996e-08
6.96732e-08
6.93983e-08
6.91761e-08
6.9006e-08
6.88819e-08
6.88014e-08
6.8753e-08
6.87278e-08
6.87126e-08
6.87052e-08
6.87007e-08
6.8699e-08
6.87021e-08
6.87021e-08
6.87034e-08
6.87102e-08
6.87144e-08
6.8714e-08
6.87181e-08
6.87207e-08
6.87198e-08
6.87205e-08
6.87224e-08
6.87209e-08
6.87252e-08
6.87232e-08
6.87286e-08
6.87218e-08
6.87226e-08
6.87204e-08
6.87214e-08
6.87286e-08
6.87318e-08
6.87243e-08
6.87129e-08
6.87103e-08
6.87135e-08
6.8719e-08
6.87181e-08
6.87159e-08
6.87262e-08
6.87268e-08
6.87484e-08
6.87332e-08
6.87379e-08
6.87438e-08
6.87485e-08
6.87556e-08
6.8762e-08
6.87617e-08
6.8759e-08
6.87605e-08
6.87657e-08
6.87667e-08
6.8767e-08
6.87705e-08
6.8773e-08
6.87697e-08
6.8764e-08
6.87641e-08
6.8765e-08
6.87637e-08
6.87643e-08
6.87613e-08
6.87557e-08
6.87499e-08
6.87442e-08
6.87402e-08
6.87353e-08
6.873e-08
6.87273e-08
6.87204e-08
6.8718e-08
6.87172e-08
6.87165e-08
6.87158e-08
6.87136e-08
6.87151e-08
6.87152e-08
6.87146e-08
6.87143e-08
6.87144e-08
6.87143e-08
6.87139e-08
6.87143e-08
6.87129e-08
6.87111e-08
6.87115e-08
6.87123e-08
6.87123e-08
6.87116e-08
6.87102e-08
6.871e-08
6.871e-08
6.871e-08
6.87099e-08
6.871e-08
6.87096e-08
6.87078e-08
6.87068e-08
6.87067e-08
6.87059e-08
6.87051e-08
6.8705e-08
6.87058e-08
6.87077e-08
6.87053e-08
6.87101e-08
6.8709e-08
6.87086e-08
6.87093e-08
6.87108e-08
6.87082e-08
6.87026e-08
6.87073e-08
6.87069e-08
6.87064e-08
6.8705e-08
6.87039e-08
6.87039e-08
7.28905e-08
7.13303e-08
7.58334e-08
8.429e-08
8.89485e-08
8.78412e-08
8.27011e-08
7.59015e-08
7.16494e-08
7.00089e-08
6.94616e-08
6.91621e-08
6.89941e-08
6.89432e-08
6.898e-08
6.90367e-08
6.91033e-08
6.91668e-08
6.92621e-08
6.94083e-08
6.95964e-08
6.98168e-08
7.00801e-08
7.03996e-08
7.07708e-08
7.11466e-08
7.14523e-08
7.16609e-08
7.17662e-08
7.17793e-08
7.16788e-08
7.14519e-08
7.11263e-08
7.07472e-08
7.03706e-08
7.00064e-08
6.96825e-08
6.94013e-08
6.91777e-08
6.90072e-08
6.88833e-08
6.88031e-08
6.87554e-08
6.87279e-08
6.87169e-08
6.87145e-08
6.87152e-08
6.87149e-08
6.87121e-08
6.8714e-08
6.87187e-08
6.87181e-08
6.87213e-08
6.87293e-08
6.87312e-08
6.87286e-08
6.87272e-08
6.87285e-08
6.87274e-08
6.87259e-08
6.87293e-08
6.87284e-08
6.87345e-08
6.87301e-08
6.87343e-08
6.87282e-08
6.87232e-08
6.87258e-08
6.87323e-08
6.87272e-08
6.87191e-08
6.87153e-08
6.87174e-08
6.87211e-08
6.87192e-08
6.87154e-08
6.8726e-08
6.87276e-08
6.87503e-08
6.87356e-08
6.87402e-08
6.87471e-08
6.8752e-08
6.87586e-08
6.87647e-08
6.8765e-08
6.87614e-08
6.8763e-08
6.8769e-08
6.87709e-08
6.87708e-08
6.87726e-08
6.8774e-08
6.87705e-08
6.87656e-08
6.87659e-08
6.87663e-08
6.87646e-08
6.87636e-08
6.87619e-08
6.87574e-08
6.87515e-08
6.87459e-08
6.87419e-08
6.87371e-08
6.87324e-08
6.87297e-08
6.87236e-08
6.87205e-08
6.87199e-08
6.87192e-08
6.87185e-08
6.87173e-08
6.87173e-08
6.87174e-08
6.87167e-08
6.87165e-08
6.87168e-08
6.87165e-08
6.87166e-08
6.87171e-08
6.8716e-08
6.8714e-08
6.87134e-08
6.87143e-08
6.87158e-08
6.8715e-08
6.87144e-08
6.87137e-08
6.87136e-08
6.87134e-08
6.87138e-08
6.87137e-08
6.87142e-08
6.87129e-08
6.8711e-08
6.87087e-08
6.8709e-08
6.87081e-08
6.87071e-08
6.87054e-08
6.87027e-08
6.87029e-08
6.8696e-08
6.86966e-08
6.8696e-08
6.86935e-08
6.86901e-08
6.86922e-08
6.86955e-08
6.86917e-08
6.86928e-08
6.8693e-08
6.86904e-08
6.8687e-08
6.86841e-08
8.00491e-08
7.46563e-08
7.56568e-08
8.19604e-08
8.90095e-08
9.04848e-08
8.76741e-08
8.18225e-08
7.56286e-08
7.1662e-08
6.99573e-08
6.941e-08
6.91809e-08
6.90197e-08
6.89373e-08
6.89735e-08
6.90619e-08
6.91525e-08
6.92573e-08
6.93885e-08
6.95636e-08
6.97967e-08
7.01013e-08
7.04812e-08
7.09135e-08
7.13317e-08
7.1667e-08
7.18903e-08
7.19911e-08
7.198e-08
7.18461e-08
7.15854e-08
7.12237e-08
7.081e-08
7.04021e-08
7.00188e-08
6.96821e-08
6.94012e-08
6.9177e-08
6.90077e-08
6.88834e-08
6.88043e-08
6.87568e-08
6.87316e-08
6.87169e-08
6.87075e-08
6.87019e-08
6.86998e-08
6.8703e-08
6.87039e-08
6.87053e-08
6.87108e-08
6.87127e-08
6.87138e-08
6.87192e-08
6.87233e-08
6.87242e-08
6.87258e-08
6.87284e-08
6.87257e-08