/*--------------------------------*- C++ -*----------------------------------*\
| =========                 |                                                 |
| \\      /  F ield         | OpenFOAM: The Open Source CFD Toolbox           |
|  \\    /   O peration     | Version:  v1912                                 |
|   \\  /    A nd           | Website:  www.openfoam.com                      |
|    \\/     M anipulation  |                                                 |
\*---------------------------------------------------------------------------*/
FoamFile
{
    version     2.0;
    format      ascii;
    class       volScalarField;
    location    "60";
    object      p_rgh;
}
// * * * * * * * * * * * * * * * * * * * * * * * * * * * * * * * * * * * * * //

dimensions      [1 -1 -2 0 0 0 0];


internalField   nonuniform List<scalar> 
14268
(
-2845.2
-2538.18
-2221.82
-1897.27
-1565.23
-1227.6
-882.051
-533.69
-2845.05
-2538.02
-2221.66
-1897.1
-1565.06
-1227.42
-881.873
-533.501
-2844.89
-2537.86
-2221.49
-1896.93
-1564.88
-1227.25
-881.692
-533.321
-2844.74
-2537.7
-2221.33
-1896.76
-1564.71
-1227.07
-881.519
-533.132
-2844.59
-2537.54
-2221.17
-1896.6
-1564.54
-1226.9
-881.339
-532.958
-2844.44
-2537.39
-2221
-1896.43
-1564.37
-1226.73
-881.169
-532.771
-2844.29
-2537.23
-2220.85
-1896.27
-1564.2
-1226.56
-880.992
-532.6
-2844.14
-2537.08
-2220.69
-1896.1
-1564.04
-1226.39
-880.824
-532.418
-2844
-2536.93
-2220.53
-1895.94
-1563.87
-1226.22
-880.65
-532.247
-2843.85
-2536.78
-2220.37
-1895.78
-1563.71
-1226.05
-880.484
-532.073
-2843.71
-2536.63
-2220.22
-1895.62
-1563.54
-1225.88
-880.315
-531.9
-2843.57
-2536.48
-2220.06
-1895.46
-1563.38
-1225.72
-880.148
-531.735
-2843.43
-2536.34
-2219.91
-1895.31
-1563.22
-1225.55
-879.986
-531.562
-2843.29
-2536.19
-2219.76
-1895.15
-1563.06
-1225.39
-879.821
-531.4
-2845.09
-2538.32
-2222.28
-1898.15
-1566.66
-1229.8
-885.325
-538.632
-2844.32
-2537.56
-2221.56
-1897.49
-1566.06
-1229.26
-884.875
-538.265
-2843.57
-2536.83
-2220.85
-1896.81
-1565.45
-1228.72
-884.419
-537.896
-2842.88
-2536.13
-2220.17
-1896.17
-1564.86
-1228.2
-883.99
-537.543
-2842.25
-2535.48
-2219.52
-1895.55
-1564.29
-1227.69
-883.565
-537.195
-2841.71
-2534.9
-2218.92
-1894.97
-1563.75
-1227.19
-883.151
-536.859
-2841.3
-2534.43
-2218.43
-1894.48
-1563.29
-1226.78
-882.827
-536.529
-2838.16
-2530.7
-2214.13
-1889.57
-1557.78
-1220.46
-875.633
-527.009
-2837.24
-2529.09
-2211.94
-1886.94
-1554.86
-1217.28
-872.759
-524.183
-2837.57
-2528.72
-2210.97
-1885.51
-1553.11
-1215.21
-870.905
-522.398
-2839.03
-2529.32
-2210.83
-1884.84
-1552.08
-1213.84
-869.84
-521.398
-2841.62
-2530.94
-2211.62
-1885.02
-1551.87
-1213.3
-869.498
-521.273
-2845.26
-2533.51
-2213.27
-1886
-1552.39
-1213.44
-869.848
-521.826
-2849.92
-2536.99
-2215.78
-1887.78
-1553.71
-1214.38
-870.898
-523.048
-2855.65
-2541.43
-2219.11
-1890.27
-1555.69
-1215.93
-872.519
-524.785
-2862.46
-2546.83
-2223.33
-1893.57
-1558.42
-1218.15
-874.777
-527.031
-2870.24
-2553.11
-2228.35
-1897.63
-1561.92
-1221.16
-877.799
-529.954
-2879.19
-2560.42
-2234.25
-1902.43
-1566.03
-1224.62
-881.213
-533.062
-2889.35
-2568.87
-2241.22
-1908.24
-1571.14
-1229.06
-885.579
-536.81
-2896.28
-2577.86
-2248.53
-1914.34
-1576.48
-1233.74
-890.256
-540.763
-1626.41
-1568.85
-1449.76
-1299.33
-1121.94
-918.335
-688.132
-428.609
32.798
53.4733
84.298
126.273
181.193
251.364
339.794
452.198
16.0877
21.3301
29.2123
40.9539
58.5169
84.3604
122.966
180.605
4.13867
4.32836
4.69216
5.303
6.266
7.65281
9.96527
14.1445
3.2995
3.14962
3.01525
2.91131
2.83385
2.78487
2.8259
3.12055
3.22917
3.0785
2.93801
2.81457
2.70173
2.58405
2.46999
2.34435
3.17885
3.02284
2.87497
2.74072
2.61669
2.49826
2.39931
2.28058
3.15
2.99854
2.85454
2.72129
2.59564
2.47071
2.3556
2.22883
3.11891
2.96887
2.82635
2.69337
2.56781
2.4455
2.33453
2.21914
3.09132
2.94317
2.80238
2.66982
2.54398
2.42171
2.30617
2.18785
3.06488
2.91902
2.78024
2.64886
2.52401
2.40376
2.2911
2.17937
3.03752
2.89371
2.75675
2.62665
2.50266
2.38364
2.27018
2.15819
3.01047
2.86883
2.73367
2.60503
2.48211
2.36444
2.25192
2.14222
2.98305
2.84363
2.71031
2.58329
2.46161
2.34544
2.23388
2.12582
2.95493
2.81793
2.68663
2.56135
2.44093
2.32612
2.21553
2.10887
2.92596
2.79156
2.66248
2.53912
2.42015
2.3069
2.1976
2.09233
2.89561
2.76377
2.63705
2.51583
2.39856
2.28695
2.17898
2.07508
2.86384
2.73481
2.61048
2.49154
2.37629
2.26649
2.16008
2.05765
2.83043
2.70391
2.58227
2.46552
2.35231
2.24437
2.13968
2.03895
2.79615
2.67175
2.55256
2.43818
2.32696
2.22094
2.11819
2.01927
2.76136
2.639
2.5216
2.40932
2.29993
2.19566
2.09481
1.99766
2.7262
2.60602
2.49044
2.37967
2.27195
2.16915
2.07001
1.97434
2.69052
2.57253
2.45889
2.34975
2.2435
2.14206
2.04416
1.94951
2.65452
2.53857
2.42683
2.31938
2.21469
2.11473
2.01788
1.92402
2.61819
2.50443
2.39432
2.28859
2.18557
2.08691
1.99114
1.89827
2.58148
2.46978
2.36169
2.25764
2.15619
2.05871
1.96405
1.87221
2.54441
2.43469
2.32889
2.22637
2.12646
2.03033
1.93672
1.84583
2.50698
2.39944
2.29574
2.19483
2.09646
2.00159
1.90908
1.81921
2.46923
2.36398
2.26229
2.163
2.06617
1.97258
1.88119
1.79231
2.43119
2.32833
2.22854
2.13089
2.03562
1.94332
1.85306
1.76518
2.39286
2.2925
2.19452
2.09852
2.00482
1.91379
1.82469
1.73781
2.35451
2.25624
2.16023
2.06589
1.97377
1.88403
1.79612
1.71025
2.3161
2.21955
2.12573
2.03303
1.94248
1.85405
1.76734
1.68248
2.27729
2.18282
2.09101
1.99996
1.91099
1.82387
1.73837
1.65455
2.23835
2.14609
2.05609
1.9667
1.8793
1.7935
1.70923
1.62647
2.19946
2.10923
2.02098
1.93326
1.84743
1.76297
1.67993
1.59824
2.16039
2.07221
1.98567
1.89967
1.81538
1.73228
1.65048
1.56987
2.12117
2.03501
1.95021
1.86592
1.78317
1.70144
1.62089
1.54139
2.08183
1.99768
1.91462
1.83204
1.75082
1.67047
1.59119
1.5128
2.04238
1.96021
1.87889
1.79803
1.71834
1.63939
1.56139
1.48413
2.00284
1.92265
1.84307
1.76393
1.68575
1.60823
1.53151
1.4554
1.96324
1.88499
1.80718
1.72975
1.6531
1.577
1.50157
1.42664
1.92358
1.84726
1.77123
1.69549
1.62036
1.5457
1.47158
1.39784
1.80625
1.73551
1.66468
1.59386
1.52325
1.45281
1.38256
1.31237
1.61045
1.54857
1.48611
1.42323
1.3601
1.29672
1.23311
1.16916
1.41532
1.36184
1.30745
1.25233
1.19664
1.1404
1.08363
1.02626
1.22124
1.17571
1.12909
1.08156
1.03325
0.984213
0.934472
0.883977
1.02884
0.990843
0.951686
0.911543
0.870532
0.82872
0.786127
0.742726
0.838071
0.807221
0.775256
0.742326
0.708538
0.673959
0.638619
0.602506
0.648962
0.624938
0.599926
0.57405
0.547404
0.520051
0.492022
0.46332
0.461111
0.443659
0.425413
0.406472
0.386911
0.366784
0.346124
0.324941
0.274168
0.263104
0.251489
0.239392
0.226869
0.213963
0.200704
0.187111
0.0875588
0.0827857
0.0777302
0.0724321
0.0669269
0.0612463
0.0554182
0.0494669
-161.817
189.252
549.3
906.493
1263.98
1621.84
1980.93
2342.72
2709.07
3082.34
3465.59
3862.54
4277.61
4715.72
5182.12
5681.67
6219.43
6798.05
7418.07
8078.1
8770.13
9482.03
10194.9
10884.2
11524.1
12084.9
12534.3
12845.4
12992.8
12948.4
12740
12348.6
11773.6
11033.9
10155.6
9173.66
8131.87
7073.47
6036.21
5051.65
4143.55
3327.48
2611.86
1998.75
1484.78
1074.54
740.649
481.151
284.765
141.015
39.8042
-28.0766
-70.4577
-93.8729
-104.927
-107.555
-104.951
-99.1733
-91.334
-81.6869
-69.635
-54.0435
-32.7981
-3.77963
36.082
88.1831
152.61
229.41
317.589
415.891
522.995
637.251
757.035
879.867
1002.53
1121.76
1234.69
1339.31
1435.03
1522.29
1602.91
1678.49
1750.81
1820.96
1889.19
1955.29
2018.77
2078.51
2133.01
2180.53
2218.33
2243.34
2252.38
2242.6
2212.26
2160.98
2089.88
2001.42
1898.9
1786.09
1666.87
1545.03
1423.96
1306.6
1195.27
1091.63
996.527
910.028
831.671
760.646
695.978
636.577
581.157
528.265
476.354
423.855
369.314
311.578
250.096
185.138
117.81
49.8301
-16.0456
-76.6733
-129.14
-171.215
-201.835
-221.468
-231.581
-234.722
-234.506
-234.041
-235.291
-238.487
-242.897
-246.037
-245.45
-239.191
-226.859
-209.134
-188.265
-167.151
-148.098
-132.382
-119.959
-110.105
-101.694
-93.4585
-84.7275
-74.9436
-63.3097
-48.6647
-29.7683
-6.18259
20.69
47.9369
-161.812
189.259
549.304
906.495
1263.98
1621.85
1980.93
2342.72
2709.07
3082.34
3465.59
3862.54
4277.6
4715.71
5182.11
5681.66
6219.43
6798.05
7418.06
8078.09
8770.13
9482.03
10194.9
10884.2
11524.2
12084.9
12534.3
12845.4
12992.8
12948.4
12740
12348.7
11773.6
11033.9
10155.7
9173.67
8131.87
7073.46
6036.2
5051.64
4143.54
3327.47
2611.85
1998.74
1484.77
1074.53
740.64
481.144
284.759
141.01
39.8006
-28.0794
-70.4597
-93.8743
-104.928
-107.555
-104.952
-99.1737
-91.3343
-81.6873
-69.6356
-54.0443
-32.7992
-3.7809
36.0806
88.1815
152.608
229.409
317.588
415.89
522.994
637.25
757.035
879.867
1002.53
1121.76
1234.69
1339.31
1435.03
1522.29
1602.91
1678.49
1750.81
1820.96
1889.19
1955.29
2018.77
2078.51
2133.01
2180.53
2218.33
2243.34
2252.38
2242.6
2212.26
2160.98
2089.88
2001.42
1898.9
1786.09
1666.87
1545.03
1423.96
1306.6
1195.27
1091.63
996.526
910.027
831.67
760.645
695.977
636.576
581.157
528.265
476.354
423.855
369.314
311.579
250.096
185.138
117.81
49.8299
-16.0461
-76.6742
-129.141
-171.216
-201.836
-221.469
-231.582
-234.722
-234.506
-234.041
-235.291
-238.487
-242.897
-246.037
-245.45
-239.192
-226.859
-209.134
-188.265
-167.15
-148.098
-132.382
-119.958
-110.105
-101.694
-93.4586
-84.7277
-74.9438
-63.3101
-48.6652
-29.7688
-6.18292
20.69
47.9374
-161.826
189.248
549.294
906.489
1263.98
1621.84
1980.93
2342.72
2709.07
3082.34
3465.58
3862.53
4277.6
4715.7
5182.1
5681.65
6219.42
6798.03
7418.05
8078.08
8770.12
9482.03
10194.9
10884.3
11524.2
12084.9
12534.3
12845.4
12992.8
12948.4
12740.1
12348.7
11773.6
11033.9
10155.7
9173.66
8131.85
7073.44
6036.17
5051.61
4143.51
3327.44
2611.82
1998.71
1484.75
1074.51
740.623
481.129
284.747
141.001
39.7932
-28.085
-70.4637
-93.8771
-104.93
-107.557
-104.953
-99.1743
-91.335
-81.6881
-69.6367
-54.0459
-32.8013
-3.78344
36.0777
88.1785
152.605
229.406
317.585
415.888
522.992
637.249
757.034
879.867
1002.53
1121.76
1234.69
1339.31
1435.03
1522.29
1602.91
1678.49
1750.81
1820.96
1889.19
1955.29
2018.78
2078.51
2133.01
2180.53
2218.33
2243.34
2252.38
2242.6
2212.26
2160.98
2089.89
2001.42
1898.91
1786.09
1666.88
1545.02
1423.96
1306.6
1195.27
1091.63
996.524
910.025
831.668
760.644
695.976
636.575
581.156
528.264
476.354
423.855
369.315
311.58
250.097
185.139
117.81
49.8294
-16.0473
-76.676
-129.144
-171.218
-201.839
-221.471
-231.584
-234.723
-234.506
-234.04
-235.291
-238.486
-242.898
-246.038
-245.451
-239.193
-226.861
-209.135
-188.265
-167.15
-148.097
-132.381
-119.958
-110.104
-101.694
-93.4587
-84.7279
-74.9443
-63.3107
-48.6661
-29.7698
-6.18357
20.69
47.9384
-161.812
189.263
549.302
906.491
1263.98
1621.84
1980.93
2342.72
2709.06
3082.33
3465.58
3862.53
4277.58
4715.69
5182.09
5681.63
6219.4
6798.02
7418.03
8078.06
8770.11
9482.02
10194.9
10884.3
11524.2
12084.9
12534.4
12845.5
12992.9
12948.5
12740.1
12348.7
11773.7
11034
10155.7
9173.67
8131.85
7073.42
6036.15
5051.58
4143.47
3327.4
2611.79
1998.68
1484.72
1074.48
740.597
481.108
284.73
140.987
39.7822
-28.0933
-70.4698
-93.8813
-104.932
-107.558
-104.954
-99.1753
-91.3359
-81.6893
-69.6384
-54.0483
-32.8044
-3.78721
36.0734
88.1741
152.601
229.402
317.582
415.885
522.99
637.247
757.033
879.867
1002.53
1121.76
1234.69
1339.31
1435.03
1522.3
1602.91
1678.49
1750.81
1820.96
1889.19
1955.29
2018.78
2078.51
2133.02
2180.54
2218.33
2243.35
2252.39
2242.61
2212.27
2160.99
2089.89
2001.43
1898.91
1786.09
1666.88
1545.02
1423.95
1306.59
1195.27
1091.63
996.521
910.022
831.666
760.642
695.974
636.574
581.155
528.264
476.354
423.856
369.316
311.581
250.098
185.139
117.81
49.8286
-16.049
-76.6786
-129.147
-171.222
-201.842
-221.474
-231.586
-234.724
-234.507
-234.04
-235.29
-238.486
-242.898
-246.039
-245.453
-239.195
-226.862
-209.136
-188.266
-167.149
-148.096
-132.38
-119.957
-110.104
-101.694
-93.4588
-84.7283
-74.9449
-63.3117
-48.6675
-29.7712
-6.18454
20.6901
47.9399
-161.837
189.253
549.291
906.486
1263.97
1621.83
1980.92
2342.71
2709.06
3082.32
3465.57
3862.52
4277.57
4715.68
5182.07
5681.61
6219.38
6797.99
7418.01
8078.04
8770.09
9482.01
10194.9
10884.3
11524.2
12085
12534.4
12845.5
12992.9
12948.6
12740.2
12348.8
11773.7
11034
10155.7
9173.67
8131.84
7073.4
6036.11
5051.53
4143.42
3327.35
2611.73
1998.63
1484.68
1074.44
740.564
481.079
284.706
140.968
39.7675
-28.1043
-70.4778
-93.8869
-104.936
-107.561
-104.956
-99.1765
-91.3372
-81.6909
-69.6406
-54.0514
-32.8085
-3.79224
36.0677
88.1682
152.595
229.397
317.577
415.881
522.986
637.245
757.032
879.867
1002.53
1121.76
1234.7
1339.32
1435.04
1522.3
1602.91
1678.49
1750.81
1820.96
1889.19
1955.29
2018.78
2078.51
2133.02
2180.54
2218.34
2243.36
2252.4
2242.62
2212.28
2161
2089.9
2001.43
1898.91
1786.09
1666.88
1545.02
1423.95
1306.59
1195.26
1091.62
996.517
910.019
831.662
760.639
695.972
636.572
581.154
528.263
476.354
423.856
369.317
311.582
250.099
185.14
117.81
49.8276
-16.0512
-76.682
-129.151
-171.227
-201.847
-221.478
-231.589
-234.725
-234.507
-234.04
-235.289
-238.486
-242.899
-246.041
-245.455
-239.198
-226.864
-209.137
-188.266
-167.149
-148.095
-132.379
-119.956
-110.103
-101.693
-93.459
-84.7287
-74.9457
-63.313
-48.6693
-29.7731
-6.18581
20.6902
47.942
-161.821
189.269
549.295
906.484
1263.97
1621.83
1980.92
2342.71
2709.05
3082.32
3465.56
3862.5
4277.56
4715.66
5182.05
5681.59
6219.35
6797.96
7417.98
8078.02
8770.07
9482
10194.9
10884.3
11524.3
12085
12534.5
12845.6
12993
12948.7
12740.3
12348.9
11773.8
11034.1
10155.7
9173.68
8131.81
7073.35
6036.05
5051.47
4143.35
3327.28
2611.67
1998.57
1484.62
1074.39
740.521
481.044
284.677
140.944
39.7492
-28.1182
-70.4878
-93.8939
-104.941
-107.564
-104.958
-99.1781
-91.3387
-81.6928
-69.6434
-54.0553
-32.8136
-3.79853
36.0606
88.1607
152.588
229.391
317.572
415.876
522.982
637.242
757.03
879.867
1002.53
1121.77
1234.7
1339.32
1435.04
1522.3
1602.92
1678.5
1750.81
1820.96
1889.19
1955.29
2018.78
2078.52
2133.02
2180.55
2218.35
2243.37
2252.41
2242.63
2212.29
2161.01
2089.91
2001.44
1898.92
1786.1
1666.88
1545.02
1423.95
1306.59
1195.26
1091.62
996.512
910.014
831.658
760.635
695.969
636.57
581.152
528.262
476.354
423.857
369.319
311.584
250.101
185.142
117.81
49.8264
-16.0541
-76.6864
-129.157
-171.233
-201.853
-221.483
-231.592
-234.727
-234.507
-234.039
-235.289
-238.486
-242.9
-246.043
-245.458
-239.201
-226.867
-209.139
-188.266
-167.148
-148.094
-132.377
-119.955
-110.103
-101.693
-93.4592
-84.7293
-74.9467
-63.3147
-48.6715
-29.7755
-6.1874
20.6904
47.9446
-161.847
189.263
549.291
906.483
1263.97
1621.83
1980.91
2342.7
2709.04
3082.31
3465.54
3862.49
4277.54
4715.63
5182.02
5681.56
6219.32
6797.93
7417.94
8077.99
8770.04
9481.98
10194.9
10884.3
11524.3
12085.1
12534.6
12845.7
12993.2
12948.8
12740.4
12349
11773.9
11034.1
10155.8
9173.68
8131.79
7073.31
6035.99
5051.4
4143.27
3327.2
2611.59
1998.49
1484.56
1074.33
740.47
481.001
284.642
140.916
39.7272
-28.1348
-70.4998
-93.9023
-104.946
-107.568
-104.96
-99.18
-91.3406
-81.6952
-69.6467
-54.0599
-32.8198
-3.80608
36.0521
88.1518
152.58
229.383
317.565
415.87
522.977
637.238
757.028
879.867
1002.53
1121.77
1234.7
1339.33
1435.05
1522.31
1602.92
1678.5
1750.81
1820.96
1889.19
1955.3
2018.78
2078.52
2133.03
2180.55
2218.35
2243.38
2252.42
2242.64
2212.3
2161.02
2089.92
2001.45
1898.93
1786.1
1666.88
1545.02
1423.95
1306.58
1195.26
1091.61
996.506
910.009
831.653
760.63
695.965
636.567
581.15
528.262
476.354
423.858
369.321
311.586
250.103
185.143
117.81
49.8249
-16.0575
-76.6916
-129.163
-171.24
-201.86
-221.489
-231.596
-234.729
-234.508
-234.038
-235.287
-238.485
-242.9
-246.045
-245.462
-239.205
-226.87
-209.14
-188.266
-167.146
-148.092
-132.375
-119.953
-110.102
-101.693
-93.4595
-84.73
-74.948
-63.3167
-48.6742
-29.7784
-6.18931
20.6906
47.9477
-161.837
189.284
549.296
906.483
1263.96
1621.82
1980.91
2342.69
2709.04
3082.29
3465.53
3862.47
4277.51
4715.61
5181.99
5681.52
6219.28
6797.89
7417.9
8077.95
8770.01
9481.96
10194.9
10884.3
11524.3
12085.1
12534.7
12845.8
12993.3
12948.9
12740.5
12349.1
11774
11034.2
10155.8
9173.68
8131.76
7073.26
6035.92
5051.31
4143.18
3327.11
2611.5
1998.41
1484.48
1074.25
740.411
480.951
284.6
140.883
39.7015
-28.1542
-70.5138
-93.9121
-104.953
-107.572
-104.963
-99.1822
-91.3428
-81.6979
-69.6506
-54.0654
-32.8271
-3.81488
36.0421
88.1414
152.569
229.373
317.556
415.863
522.972
637.234
757.026
879.866
1002.53
1121.77
1234.71
1339.33
1435.05
1522.31
1602.92
1678.5
1750.81
1820.96
1889.19
1955.3
2018.79
2078.52
2133.03
2180.56
2218.36
2243.39
2252.43
2242.66
2212.32
2161.04
2089.93
2001.46
1898.93
1786.11
1666.88
1545.02
1423.95
1306.58
1195.25
1091.61
996.5
910.002
831.647
760.625
695.96
636.563
581.148
528.26
476.354
423.86
369.323
311.589
250.105
185.145
117.811
49.8232
-16.0614
-76.6976
-129.171
-171.249
-201.868
-221.496
-231.601
-234.732
-234.508
-234.037
-235.286
-238.485
-242.901
-246.048
-245.466
-239.209
-226.874
-209.143
-188.266
-167.145
-148.089
-132.373
-119.951
-110.101
-101.693
-93.4598
-84.7308
-74.9494
-63.319
-48.6774
-29.7818
-6.19153
20.6908
47.9513
-161.863
189.271
549.279
906.471
1263.96
1621.82
1980.9
2342.68
2709.02
3082.28
3465.51
3862.45
4277.49
4715.58
5181.96
5681.48
6219.23
6797.84
7417.85
8077.91
8769.98
9481.95
10194.9
10884.4
11524.4
12085.2
12534.8
12846
12993.4
12949.1
12740.7
12349.3
11774.1
11034.3
10155.8
9173.69
8131.73
7073.2
6035.83
5051.21
4143.08
3327
2611.4
1998.31
1484.4
1074.17
740.343
480.894
284.554
140.845
39.6722
-28.1763
-70.5298
-93.9233
-104.961
-107.577
-104.966
-99.1847
-91.3453
-81.7011
-69.655
-54.0716
-32.8353
-3.82494
36.0307
88.1295
152.558
229.363
317.547
415.855
522.965
637.229
757.023
879.866
1002.54
1121.78
1234.72
1339.34
1435.06
1522.32
1602.93
1678.5
1750.81
1820.97
1889.19
1955.3
2018.79
2078.53
2133.04
2180.57
2218.38
2243.4
2252.45
2242.67
2212.34
2161.05
2089.95
2001.47
1898.94
1786.11
1666.88
1545.02
1423.94
1306.57
1195.24
1091.6
996.492
909.994
831.64
760.619
695.955
636.559
581.145
528.259
476.355
423.861
369.325
311.592
250.108
185.147
117.811
49.8212
-16.0659
-76.7046
-129.18
-171.258
-201.877
-221.504
-231.607
-234.735
-234.508
-234.036
-235.285
-238.484
-242.903
-246.051
-245.47
-239.214
-226.878
-209.145
-188.267
-167.143
-148.087
-132.37
-119.949
-110.1
-101.693
-93.4602
-84.7317
-74.9511
-63.3216
-48.681
-29.7856
-6.19408
20.691
47.9555
-161.859
189.295
549.293
906.479
1263.96
1621.81
1980.89
2342.67
2709.01
3082.26
3465.49
3862.42
4277.46
4715.54
5181.91
5681.43
6219.18
6797.79
7417.8
8077.86
8769.94
9481.93
10194.9
10884.4
11524.5
12085.3
12534.9
12846.1
12993.6
12949.3
12740.9
12349.4
11774.2
11034.4
10155.9
9173.7
8131.7
7073.13
6035.74
5051.1
4142.96
3326.88
2611.28
1998.2
1484.3
1074.08
740.266
480.83
284.501
140.803
39.6392
-28.2012
-70.5478
-93.9359
-104.969
-107.582
-104.97
-99.1875
-91.3481
-81.7046
-69.66
-54.0787
-32.8446
-3.83626
36.0179
88.116
152.545
229.351
317.537
415.846
522.958
637.224
757.02
879.866
1002.54
1121.79
1234.72
1339.35
1435.07
1522.32
1602.93
1678.5
1750.82
1820.97
1889.19
1955.3
2018.79
2078.53
2133.05
2180.58
2218.39
2243.42
2252.47
2242.69
2212.36
2161.07
2089.97
2001.48
1898.95
1786.12
1666.89
1545.02
1423.94
1306.57
1195.24
1091.59
996.483
909.986
831.632
760.612
695.95
636.555
581.142
528.258
476.355
423.863
369.328
311.595
250.111
185.149
117.811
49.819
-16.071
-76.7124
-129.19
-171.269
-201.888
-221.513
-231.613
-234.738
-234.509
-234.035
-235.283
-238.483
-242.904
-246.054
-245.475
-239.22
-226.883
-209.148
-188.267
-167.142
-148.084
-132.367
-119.947
-110.099
-101.692
-93.4606
-84.7327
-74.9529
-63.3246
-48.685
-29.7899
-6.19694
20.6913
47.9601
-161.887
189.29
549.275
906.458
1263.94
1621.8
1980.88
2342.66
2709
3082.25
3465.47
3862.4
4277.43
4715.5
5181.87
5681.38
6219.13
6797.73
7417.74
8077.81
8769.9
9481.9
10194.9
10884.4
11524.5
12085.4
12535.1
12846.3
12993.8
12949.5
12741.1
12349.6
11774.4
11034.5
10156
9173.71
8131.66
7073.05
6035.64
5050.98
4142.83
3326.74
2611.15
1998.08
1484.19
1073.98
740.181
480.758
284.442
140.756
39.6026
-28.2289
-70.5678
-93.9499
-104.978
-107.588
-104.974
-99.1907
-91.3512
-81.7086
-69.6656
-54.0865
-32.8549
-3.84883
36.0036
88.1012
152.531
229.338
317.525
415.836
522.95
637.217
757.016
879.866
1002.54
1121.79
1234.73
1339.36
1435.08
1522.33
1602.94
1678.51
1750.82
1820.97
1889.2
1955.31
2018.8
2078.54
2133.05
2180.59
2218.4
2243.43
2252.49
2242.72
2212.38
2161.09
2089.98
2001.5
1898.96
1786.12
1666.89
1545.02
1423.93
1306.56
1195.23
1091.58
996.473
909.977
831.624
760.605
695.944
636.55
581.139
528.256
476.355
423.865
369.331
311.599
250.115
185.151
117.811
49.8165
-16.0767
-76.721
-129.2
-171.281
-201.9
-221.522
-231.62
-234.742
-234.51
-234.033
-235.281
-238.483
-242.905
-246.058
-245.481
-239.226
-226.889
-209.151
-188.267
-167.14
-148.08
-132.363
-119.944
-110.097
-101.692
-93.4611
-84.7339
-74.955
-63.3279
-48.6895
-29.7947
-6.20012
20.6916
47.9653
-161.881
189.316
549.283
906.462
1263.94
1621.79
1980.87
2342.65
2708.98
3082.23
3465.45
3862.37
4277.39
4715.46
5181.82
5681.32
6219.07
6797.67
7417.68
8077.75
8769.86
9481.88
10194.9
10884.5
11524.6
12085.6
12535.2
12846.5
12994
12949.7
12741.3
12349.8
11774.5
11034.6
10156
9173.71
8131.62
7072.97
6035.52
5050.85
4142.68
3326.6
2611.01
1997.95
1484.08
1073.87
740.088
480.68
284.377
140.704
39.5622
-28.2593
-70.5898
-93.9653
-104.989
-107.595
-104.979
-99.1942
-91.3546
-81.7129
-69.6717
-54.095
-32.8663
-3.86267
35.988
88.0848
152.515
229.323
317.512
415.825
522.941
637.211
757.013
879.865
1002.55
1121.8
1234.74
1339.37
1435.08
1522.34
1602.94
1678.51
1750.82
1820.97
1889.2
1955.31
2018.8
2078.54
2133.06
2180.6
2218.42
2243.45
2252.51
2242.74
2212.4
2161.12
2090
2001.51
1898.97
1786.13
1666.89
1545.02
1423.93
1306.55
1195.22
1091.57
996.463
909.966
831.614
760.597
695.937
636.545
581.136
528.254
476.355
423.866
369.334
311.603
250.119
185.154
117.812
49.8138
-16.0829
-76.7306
-129.213
-171.294
-201.912
-221.533
-231.628
-234.746
-234.51
-234.032
-235.279
-238.482
-242.907
-246.063
-245.487
-239.233
-226.895
-209.155
-188.268
-167.137
-148.077
-132.36
-119.941
-110.096
-101.692
-93.4616
-84.7351
-74.9573
-63.3315
-48.6945
-29.8
-6.20362
20.692
47.971
-161.91
189.301
549.263
906.451
1263.93
1621.78
1980.86
2342.64
2708.97
3082.21
3465.42
3862.33
4277.35
4715.41
5181.77
5681.26
6219
6797.6
7417.61
8077.69
8769.81
9481.85
10194.9
10884.5
11524.7
12085.7
12535.4
12846.7
12994.2
12949.9
12741.5
12350
11774.7
11034.7
10156.1
9173.72
8131.58
7072.88
6035.4
5050.7
4142.52
3326.43
2610.85
1997.8
1483.95
1073.75
739.986
480.594
284.307
140.648
39.5182
-28.2925
-70.6138
-93.9821
-105
-107.603
-104.984
-99.1979
-91.3584
-81.7176
-69.6783
-54.1044
-32.8787
-3.87776
35.9709
88.0669
152.497
229.307
317.498
415.813
522.931
637.203
757.009
879.865
1002.55
1121.81
1234.75
1339.38
1435.09
1522.34
1602.95
1678.51
1750.82
1820.97
1889.2
1955.31
2018.81
2078.55
2133.07
2180.61
2218.43
2243.47
2252.53
2242.77
2212.43
2161.14
2090.03
2001.53
1898.99
1786.14
1666.89
1545.02
1423.93
1306.55
1195.21
1091.56
996.451
909.955
831.604
760.588
695.929
636.539
581.132
528.253
476.355
423.869
369.338
311.607
250.123
185.157
117.812
49.8108
-16.0896
-76.741
-129.226
-171.309
-201.926
-221.545
-231.636
-234.75
-234.511
-234.03
-235.277
-238.481
-242.909
-246.067
-245.494
-239.241
-226.901
-209.158
-188.268
-167.135
-148.073
-132.356
-119.938
-110.094
-101.692
-93.4622
-84.7365
-74.9598
-63.3354
-48.6999
-29.8058
-6.20744
20.6923
47.9772
-161.909
189.32
549.272
906.453
1263.92
1621.78
1980.85
2342.62
2708.95
3082.18
3465.39
3862.3
4277.3
4715.36
5181.71
5681.19
6218.93
6797.52
7417.53
8077.62
8769.75
9481.82
10194.9
10884.5
11524.8
12085.8
12535.6
12846.9
12994.5
12950.2
12741.7
12350.2
11774.9
11034.9
10156.2
9173.73
8131.53
7072.78
6035.27
5050.54
4142.35
3326.26
2610.68
1997.65
1483.81
1073.62
739.876
480.501
284.231
140.587
39.4706
-28.3285
-70.6398
-94.0003
-105.012
-107.611
-104.989
-99.202
-91.3624
-81.7228
-69.6855
-54.1145
-32.8921
-3.89411
35.9523
88.0475
152.479
229.29
317.483
415.8
522.92
637.195
757.004
879.865
1002.55
1121.81
1234.76
1339.39
1435.1
1522.35
1602.95
1678.52
1750.82
1820.98
1889.2
1955.32
2018.81
2078.56
2133.08
2180.63
2218.45
2243.5
2252.56
2242.8
2212.46
2161.17
2090.05
2001.55
1899
1786.15
1666.9
1545.02
1423.92
1306.54
1195.2
1091.55
996.438
909.943
831.593
760.578
695.921
636.533
581.127
528.251
476.356
423.871
369.342
311.612
250.128
185.16
117.813
49.8076
-16.097
-76.7523
-129.24
-171.324
-201.942
-221.558
-231.646
-234.755
-234.512
-234.028
-235.275
-238.48
-242.91
-246.072
-245.502
-239.249
-226.908
-209.162
-188.269
-167.132
-148.068
-132.351
-119.935
-110.092
-101.691
-93.4627
-84.7379
-74.9624
-63.3397
-48.7057
-29.812
-6.21157
20.6927
47.984
-161.935
189.312
549.245
906.426
1263.9
1621.76
1980.83
2342.6
2708.92
3082.15
3465.34
3862.24
4277.23
4715.28
5181.61
5681.08
6218.81
6797.4
7417.41
8077.51
8769.67
9481.77
10194.9
10884.6
11524.9
12086
12535.9
12847.3
12994.9
12950.6
12742.2
12350.6
11775.2
11035.1
10156.3
9173.75
8131.45
7072.63
6035.05
5050.28
4142.07
3325.98
2610.41
1997.39
1483.58
1073.41
739.697
480.352
284.107
140.488
39.3936
-28.3866
-70.6818
-94.0297
-105.032
-107.624
-104.998
-99.2086
-91.369
-81.731
-69.6972
-54.1309
-32.9138
-3.92052
35.9224
88.0163
152.448
229.262
317.458
415.779
522.903
637.183
756.997
879.864
1002.56
1121.83
1234.78
1339.41
1435.12
1522.37
1602.96
1678.52
1750.83
1820.98
1889.21
1955.32
2018.82
2078.57
2133.1
2180.65
2218.48
2243.53
2252.6
2242.84
2212.51
2161.21
2090.09
2001.58
1899.02
1786.16
1666.9
1545.01
1423.91
1306.52
1195.18
1091.53
996.418
909.923
831.575
760.562
695.908
636.523
581.121
528.247
476.356
423.875
369.348
311.62
250.135
185.165
117.813
49.8024
-16.1088
-76.7705
-129.263
-171.35
-201.966
-221.579
-231.66
-234.762
-234.513
-234.025
-235.271
-238.478
-242.913
-246.08
-245.514
-239.263
-226.919
-209.169
-188.27
-167.128
-148.061
-132.344
-119.929
-110.09
-101.691
-93.4639
-84.7405
-74.9668
-63.3466
-48.7152
-29.8221
-6.21827
20.6934
47.9948
-161.944
189.324
549.244
906.419
1263.89
1621.73
1980.8
2342.57
2708.88
3082.1
3465.28
3862.16
4277.13
4715.16
5181.47
5680.92
6218.62
6797.21
7417.22
8077.34
8769.53
9481.69
10194.9
10884.7
11525.1
12086.4
12536.3
12847.8
12995.5
12951.2
12742.8
12351.2
11775.7
11035.4
10156.5
9173.78
8131.33
7072.39
6034.72
5049.89
4141.65
3325.55
2609.99
1997.01
1483.24
1073.09
739.426
480.123
283.92
140.337
39.2763
-28.4752
-70.7458
-94.0744
-105.062
-107.643
-105.011
-99.2187
-91.3789
-81.7436
-69.7149
-54.1559
-32.9469
-3.96077
35.8768
87.9686
152.402
229.22
317.421
415.747
522.877
637.163
756.986
879.864
1002.57
1121.85
1234.81
1339.44
1435.15
1522.39
1602.98
1678.53
1750.84
1820.98
1889.21
1955.33
2018.83
2078.59
2133.12
2180.68
2218.52
2243.59
2252.66
2242.91
2212.58
2161.28
2090.15
2001.63
1899.06
1786.18
1666.91
1545.01
1423.9
1306.5
1195.15
1091.5
996.387
909.893
831.547
760.538
695.888
636.507
581.11
528.242
476.356
423.88
369.358
311.632
250.146
185.172
117.814
49.7945
-16.1269
-76.7982
-129.298
-171.388
-202.004
-221.611
-231.683
-234.774
-234.515
-234.021
-235.265
-238.476
-242.918
-246.093
-245.532
-239.283
-226.937
-209.179
-188.271
-167.122
-148.051
-132.333
-119.921
-110.084
-101.689
-93.465
-84.7439
-74.9733
-63.3571
-48.7296
-29.8374
-6.22845
20.6943
48.0114
-161.957
189.319
549.223
906.396
1263.86
1621.7
1980.77
2342.52
2708.83
3082.03
3465.2
3862.06
4277.01
4715.02
5181.31
5680.74
6218.43
6796.99
7417.01
8077.15
8769.38
9481.61
10194.9
10884.8
11525.4
12086.8
12536.9
12848.4
12996.2
12951.9
12743.5
12351.8
11776.2
11035.8
10156.7
9173.8
8131.2
7072.12
6034.35
5049.45
4141.18
3325.07
2609.53
1996.57
1482.85
1072.72
739.12
479.866
283.708
140.168
39.1443
-28.5748
-70.8178
-94.1248
-105.096
-107.665
-105.026
-99.23
-91.3901
-81.7578
-69.7349
-54.184
-32.984
-4.00605
35.8255
87.915
152.35
229.172
317.379
415.711
522.847
637.141
756.973
879.863
1002.58
1121.87
1234.84
1339.47
1435.18
1522.41
1603
1678.54
1750.84
1820.99
1889.22
1955.34
2018.85
2078.61
2133.15
2180.72
2218.57
2243.65
2252.74
2242.99
2212.66
2161.36
2090.22
2001.68
1899.1
1786.21
1666.92
1545.01
1423.88
1306.48
1195.12
1091.46
996.352
909.86
831.517
760.511
695.866
636.49
581.098
528.237
476.357
423.887
369.369
311.645
250.159
185.181
117.816
49.7856
-16.1472
-76.8295
-129.337
-171.432
-202.046
-221.647
-231.708
-234.787
-234.517
-234.016
-235.258
-238.473
-242.923
-246.107
-245.553
-239.306
-226.956
-209.19
-188.272
-167.115
-148.039
-132.321
-119.912
-110.08
-101.689
-93.4671
-84.7483
-74.9809
-63.369
-48.7459
-29.8548
-6.23995
20.6954
48.0301
-161.966
189.316
549.216
906.382
1263.84
1621.67
1980.74
2342.48
2708.77
3081.96
3465.11
3861.95
4276.88
4714.86
5181.13
5680.53
6218.22
6796.77
7416.78
8076.95
8769.21
9481.51
10194.9
10885
11525.7
12087.2
12537.4
12849.1
12996.9
12952.7
12744.2
12352.5
11776.8
11036.2
10156.9
9173.83
8131.05
7071.82
6033.93
5048.96
4140.65
3324.53
2609.01
1996.09
1482.42
1072.32
738.78
479.581
283.474
139.979
38.9977
-28.6855
-70.8978
-94.1807
-105.133
-107.69
-105.042
-99.2426
-91.4026
-81.7735
-69.757
-54.2152
-33.0254
-4.05637
35.7685
87.8554
152.293
229.119
317.332
415.671
522.815
637.117
756.96
879.862
1002.6
1121.89
1234.87
1339.5
1435.21
1522.44
1603.01
1678.56
1750.85
1821
1889.23
1955.35
2018.86
2078.63
2133.18
2180.76
2218.63
2243.72
2252.82
2243.08
2212.75
2161.44
2090.29
2001.74
1899.14
1786.23
1666.93
1545
1423.87
1306.45
1195.09
1091.42
996.313
909.822
831.482
760.481
695.841
636.471
581.085
528.23
476.358
423.894
369.382
311.66
250.173
185.191
117.817
49.7757
-16.1698
-76.8641
-129.381
-171.48
-202.092
-221.686
-231.736
-234.802
-234.519
-234.01
-235.251
-238.47
-242.929
-246.122
-245.576
-239.331
-226.978
-209.203
-188.274
-167.107
-148.026
-132.307
-119.901
-110.074
-101.687
-93.4684
-84.7525
-74.989
-63.3821
-48.7639
-29.874
-6.25269
20.6967
48.0508
-161.974
189.298
549.188
906.35
1263.8
1621.64
1980.7
2342.43
2708.71
3081.88
3465.02
3861.84
4276.74
4714.69
5180.93
5680.3
6217.97
6796.52
7416.53
8076.72
8769.03
9481.41
10194.9
10885.1
11526
12087.7
12538
12849.9
12997.8
12953.5
12745.1
12353.3
11777.4
11036.7
10157.1
9173.87
8130.89
7071.49
6033.48
5048.43
4140.07
3323.94
2608.43
1995.55
1481.95