/*--------------------------------*- C++ -*----------------------------------*\
| =========                 |                                                 |
| \\      /  F ield         | OpenFOAM: The Open Source CFD Toolbox           |
|  \\    /   O peration     | Version:  v1912                                 |
|   \\  /    A nd           | Website:  www.openfoam.com                      |
|    \\/     M anipulation  |                                                 |
\*---------------------------------------------------------------------------*/
FoamFile
{
    version     2.0;
    format      ascii;
    class       volScalarField;
    location    "90";
    object      p;
}
// * * * * * * * * * * * * * * * * * * * * * * * * * * * * * * * * * * * * * //

dimensions      [1 -1 -2 0 0 0 0];


internalField   nonuniform List<scalar> 
14268
(
48387
48693.1
48932.9
49082.1
49122.1
49042.6
48833.3
48480.9
48285.8
48591.9
48831.7
48980.8
49020.8
48941.2
48731.9
48379.6
48184.6
48490.7
48730.4
48879.5
48919.4
48839.8
48630.4
48278.1
48083.4
48389.5
48629.2
48778.2
48818.1
48738.4
48528.9
48176.8
47982.3
48288.3
48528
48676.9
48716.8
48637
48427.5
48075.4
47881.1
48187.1
48426.8
48575.7
48615.5
48535.7
48326.1
47974.1
47779.9
48085.9
48325.5
48474.4
48514.2
48434.3
48224.7
47872.7
47678.8
47984.7
48224.3
48373.2
48412.9
48333
48123.3
47771.4
47577.6
47883.5
48123.1
48272
48311.6
48231.7
48021.9
47670.1
47476.4
47782.4
48021.9
48170.7
48210.4
48130.4
47920.6
47568.8
47375.2
47681.2
47920.8
48069.5
48109.1
48029.1
47819.2
47467.5
47274.1
47580
47819.6
47968.3
48007.9
47927.8
47717.9
47366.3
47172.9
47478.8
47718.4
47867.1
47906.6
47826.5
47616.6
47265
47071.7
47377.7
47617.2
47765.9
47805.4
47725.2
47515.3
47163.7
46698.3
47033.7
47302.7
47481.3
47551.2
47501.9
47323.7
47005.6
46057.7
46451.5
46779
47015.9
47143.9
47152.7
47032.7
46772.9
45417.1
45869.4
46255.2
46550.4
46736.6
46803.6
46741.7
46540.1
44776.6
45287.4
45731.7
46085.2
46329.6
46454.6
46450.9
46307.5
44136.1
44705.5
45208.3
45620.1
45922.7
46105.8
46160.1
46074.9
43495.7
44123.8
44685.1
45155.2
45515.9
45757.2
45869.5
45842.4
42855.2
43541.8
44161.7
44690.2
45109.2
45408.7
45579.1
45610
41157.4
41874.2
42524.6
43083.4
43532
43860.5
44058.9
44116.8
38392.5
39115.4
39770.9
40333.6
40784.8
41115.3
41314.6
41375.5
35627.4
36357
37019.6
37588.9
38045.2
38379.9
38582.8
38646.7
32863.6
33601.6
34273.3
34850.8
35314
35654.2
35861.3
35928.3
30100.7
30848.5
31531.1
32118.9
32590.5
32938
33151.1
33223.9
27338.6
28097.8
28793.1
29393.4
29875.2
30231.4
30451.2
30529.6
24577.4
25349.2
26059.1
26673.8
27167.5
27533.8
27761.5
27848.2
21816.5
22602.7
23328.5
23959.4
24467.1
24845.5
25081.9
25178.2
19055.8
19857.9
20601.8
21251.6
21774.5
22165.9
22411.9
22518.4
16295.2
17114.5
17878
18551
19090.5
19495.3
19752.1
19871.7
13534.3
14371.9
15156.5
15854.4
16412.5
16832.4
17100.4
17233.4
10773.6
11630.2
12436.9
13161.9
13741.4
14175.8
14454.6
14605.2
8014.12
8889.68
9718.16
10472.9
11074.6
11525.8
11816.6
11976.9
5255.1
6150.87
6999.75
7783.81
8410.58
8869.36
9169.69
9340.92
2571.87
3418.29
4279.02
5093.83
5741.33
6203.4
6523.81
6680.89
687.79
1138.24
1758.49
2480.33
3088.87
3518.41
3820.02
3996.87
29.1241
108.253
322.123
650.286
973.049
1239.44
1438.63
1580.42
-6.08148
-6.16944
-2.01799
17.5312
62.7637
120.565
171.543
222.591
-11.1039
-12.2442
-13.9098
-15.1577
-15.6587
-15.7512
-15.0492
-14.0556
-14.0177
-15.4592
-17.2614
-18.9134
-20.1466
-21.1545
-22.0945
-23.6933
-17.5837
-18.7906
-20.434
-22.0043
-23.2078
-24.2804
-25.2574
-26.5844
-20.8993
-22.1131
-23.6207
-25.0709
-26.2757
-27.3179
-28.1563
-29.5294
-24.2616
-25.422
-26.8322
-28.1703
-29.2929
-30.3277
-31.1853
-32.3091
-27.6127
-28.7164
-30.0363
-31.2891
-32.3493
-33.3106
-34.1231
-35.1599
-30.9558
-32.0072
-33.2433
-34.4089
-35.4179
-36.3151
-37.0934
-37.9346
-34.2967
-35.2893
-36.4566
-37.5438
-38.4995
-39.3367
-40.0506
-40.8269
-37.6269
-38.5679
-39.6751
-40.6877
-41.5857
-42.3848
-43.038
-43.7078
-40.9543
-41.8489
-42.8974
-43.8432
-44.6878
-45.4266
-46.0334
-46.641
-44.2785
-45.1359
-46.1155
-47.0066
-47.8001
-48.4994
-49.0528
-49.5784
-47.6007
-48.4225
-49.3395
-50.1792
-50.9254
-51.5754
-52.0884
-52.5525
-50.9226
-51.7083
-52.5692
-53.3593
-54.0617
-54.6729
-55.142
-55.5324
-54.2437
-54.9938
-55.8044
-56.5483
-57.2081
-57.7816
-58.2172
-58.5494
-57.5639
-58.28
-59.0446
-59.7448
-60.3655
-60.9042
-61.3059
-61.5916
-60.8845
-61.5673
-62.2897
-62.9492
-63.5332
-64.0388
-64.4125
-64.6591
-64.2056
-64.8558
-65.5394
-66.161
-66.7105
-67.1847
-67.5328
-67.7483
-67.5263
-68.1462
-68.7931
-69.3799
-69.8976
-70.3402
-70.6688
-70.8573
-70.8476
-71.4391
-72.0508
-72.6049
-73.0942
-73.5058
-73.8179
-73.9834
-74.1696
-74.7346
-75.3121
-75.8358
-76.3001
-76.6824
-76.9786
-77.1243
-77.4927
-78.0335
-78.5764
-79.0728
-79.5123
-79.8716
-80.1465
-80.2839
-80.8166
-81.3332
-81.8456
-82.3161
-82.7305
-83.0713
-83.3236
-83.4595
-84.1415
-84.6346
-85.1193
-85.5652
-85.956
-86.2789
-86.5129
-86.6427
-87.4673
-87.9377
-88.3968
-88.8198
-89.1888
-89.4938
-89.7128
-89.8357
-90.794
-91.2429
-91.6782
-92.0794
-92.4281
-92.716
-92.9217
-93.0382
-94.1219
-94.5503
-94.9632
-95.3438
-95.6736
-95.9452
-96.1389
-96.2487
-97.4509
-97.8597
-98.2516
-98.6127
-98.9249
-99.1812
-99.3638
-99.4673
-100.781
-101.171
-101.543
-101.886
-102.182
-102.423
-102.596
-102.694
-104.113
-104.484
-104.838
-105.163
-105.443
-105.671
-105.834
-105.927
-107.446
-107.8
-108.136
-108.445
-108.71
-108.925
-109.079
-109.167
-110.78
-111.117
-111.437
-111.729
-111.981
-112.184
-112.329
-112.413
-114.115
-114.437
-114.74
-115.018
-115.256
-115.449
-115.585
-115.664
-117.451
-117.758
-118.046
-118.31
-118.535
-118.718
-118.846
-118.921
-120.789
-121.081
-121.355
-121.605
-121.818
-121.991
-122.112
-122.183
-124.128
-124.406
-124.666
-124.903
-125.105
-125.268
-125.383
-125.449
-127.468
-127.732
-127.979
-128.204
-128.395
-128.549
-128.658
-128.72
-130.809
-131.06
-131.295
-131.508
-131.689
-131.834
-131.937
-131.995
-134.15
-134.389
-134.612
-134.813
-134.986
-135.122
-135.22
-135.274
-144.02
-144.228
-144.421
-144.594
-144.743
-144.861
-144.947
-144.995
-160.448
-160.616
-160.772
-160.91
-161.029
-161.124
-161.194
-161.236
-176.891
-177.026
-177.15
-177.262
-177.357
-177.434
-177.491
-177.527
-193.352
-193.459
-193.559
-193.647
-193.723
-193.785
-193.832
-193.862
-209.824
-209.908
-209.986
-210.056
-210.116
-210.166
-210.203
-210.228
-226.307
-226.371
-226.431
-226.485
-226.532
-226.57
-226.599
-226.619
-242.796
-242.844
-242.888
-242.928
-242.963
-242.991
-243.013
-243.028
-259.29
-259.323
-259.354
-259.382
-259.405
-259.425
-259.44
-259.451
-275.788
-275.808
-275.826
-275.842
-275.856
-275.868
-275.877
-275.883
-292.288
-292.295
-292.301
-292.306
-292.311
-292.315
-292.318
-292.32
48202.3
48055.5
47711.4
47168.8
46448
45575.8
44609.4
43576.6
42568.3
41651.2
40843.9
40189.7
39679.8
39343.9
39167.7
39133.2
39208.6
39341.8
39518
39734.1
39971.4
40229
40475.1
40712.3
40932.5
41115.9
41326
41563.1
41774
42095.2
42429.8
42778.3
43098.1
43391.9
43659.5
43899.5
44071.8
44248.5
44420.2
44573.3
44691.5
44778.4
44834.6
44871
44891.5
44899.8
44906.7
44922
44953.8
45000.6
45048.8
45074.6
45045.1
44928.2
44694.1
44322.1
43795.5
43129.1
42374.4
41643.4
41041.8
40623.7
40390.5
40316.2
40352
40469.4
40628.1
40790.4
40933.7
41052.4
41156.9
41260
41370.5
41495.5
41641.3
41818.9
42021.3
42201.3
42325
42378.3
42384.4
42377
42382.5
42412.3
42471.3
42559.5
42673.6
42803.5
42929.5
43043.7
43141.5
43233.1
43335
43472
43649.1
43878.2
44165
44508.6
44893.7
45290.9
45671.7
46025.7
46349.5
46650
46956.3
47288.3
47659
48072.7
48515
48954.7
49353
49672.5
49884.9
49970
49914.3
49731.4
49425.1
49011.7
48515
47962.2
47380.7
46794.4
46222.2
45680
45185.2
44751.9
44406.8
44159.5
44014.7
43953.6
43933.9
43926.5
43916.9
43900.7
43877.3
43848.3
43816.2
43785
43759.7
43745.7
43746.7
43764.3
43798.5
43846.8
43907.6
43981.8
44074.3
44190.2
44333.2
44505.5
44705.1
44924.6
45157.3
45396.3
45624.5
45831.4
48101.1
47953.9
47609.8
47067.2
46346.4
45474.2
44507.8
43475
42466.7
41549.5
40742.2
40088
39578.2
39242.2
39066.1
39031.6
39107
39240.2
39416.4
39632.5
39869.8
40127.4
40373.5
40610.7
40830.9
41014.3
41224.4
41461.5
41672.3
41993.6
42328.2
42676.7
42996.5
43290.3
43557.9
43797.9
43970.2
44146.9
44318.6
44471.7
44589.9
44676.8
44733
44769.4
44789.9
44798.2
44805
44820.4
44852.2
44899
44947.2
44973
44943.5
44826.6
44592.6
44220.5
43693.9
43027.5
42272.8
41541.8
40940.2
40522.1
40288.8
40214.6
40250.4
40367.8
40526.5
40688.8
40832.1
40950.8
41055.3
41158.4
41268.9
41393.9
41539.7
41717.3
41919.6
42099.7
42223.4
42276.7
42282.8
42275.4
42280.9
42310.7
42369.7
42457.9
42572
42701.9
42827.9
42942.1
43039.9
43131.5
43233.4
43370.4
43547.5
43776.6
44063.4
44407
44792.1
45189.3
45570.1
45924.1
46247.9
46548.4
46854.7
47186.7
47557.4
47971.1
48413.4
48853.1
49251.4
49570.9
49783.3
49868.4
49812.7
49629.8
49323.6
48910.1
48413.4
47860.6
47279.1
46692.8
46120.5
45578.4
45083.6
44650.3
44305.2
44057.9
43913.1
43852
43832.3
43824.8
43815.3
43799.1
43775.7
43746.7
43714.6
43683.4
43658.1
43644.1
43645.1
43662.7
43696.9
43745.2
43806
43880.2
43972.7
44088.6
44231.6
44403.9
44603.4
44823
45055.7
45294.7
45522.9
45729.8
47999.5
47852.4
47508.2
46965.7
46244.9
45372.6
44406.2
43373.4
42365
41447.9
40640.6
39986.4
39476.6
39140.6
38964.5
38930
39005.4
39138.6
39314.8
39530.9
39768.2
40025.7
40271.9
40509.1
40729.3
40912.7
41122.8
41359.9
41570.7
41892
42226.6
42575.1
42894.9
43188.7
43456.3
43696.3
43868.6
44045.3
44217
44370.1
44488.3
44575.2
44631.4
44667.8
44688.3
44696.6
44703.4
44718.8
44750.5
44797.4
44845.6
44871.4
44841.9
44725
44491
44118.9
43592.4
42925.9
42171.2
41440.2
40838.5
40420.4
40187.2
40113
40148.8
40266.2
40424.9
40587.2
40730.5
40849.2
40953.7
41056.8
41167.3
41292.3
41438.1
41615.7
41818
41998.2
42121.8
42175.1
42181.2
42173.8
42179.3
42209.1
42268.1
42356.2
42470.4
42600.3
42726.3
42840.5
42938.3
43029.9
43131.8
43268.8
43445.9
43675
43961.8
44305.4
44690.5
45087.7
45468.5
45822.5
46146.3
46446.8
46753.1
47085.1
47455.8
47869.5
48311.8
48751.5
49149.8
49469.3
49681.7
49766.8
49711.1
49528.2
49222
48808.5
48311.8
47759
47177.5
46591.2
46018.9
45476.7
44981.9
44548.7
44203.6
43956.3
43811.5
43750.4
43730.7
43723.2
43713.7
43697.5
43674.1
43645.1
43613
43581.8
43556.5
43542.5
43543.5
43561.1
43595.2
43643.6
43704.4
43778.6
43871.1
43987
44130
44302.3
44501.8
44721.4
44954.1
45193.1
45421.3
45628.2
47898.2
47750.8
47406.6
46864.1
46143.3
45271.1
44304.6
43271.7
42263.4
41346.3
40539
39884.7
39374.9
39038.9
38862.8
38828.4
38903.8
39037
39213.2
39429.3
39666.6
39924.1
40170.3
40407.5
40627.7
40811.1
41021.2
41258.3
41469.1
41790.3
42125
42473.5
42793.3
43087.2
43354.7
43594.7
43767
43943.7
44115.4
44268.5
44386.7
44473.6
44529.8
44566.2
44586.7
44595
44601.8
44617.2
44648.9
44695.8
44744
44769.8
44740.3
44623.4
44389.4
44017.3
43490.8
42824.3
42069.6
41338.5
40736.9
40318.7
40085.5
40011.3
40047.2
40164.6
40323.3
40485.6
40628.9
40747.6
40852.1
40955.1
41065.7
41190.6
41336.5
41514.1
41716.4
41896.6
42020.2
42073.5
42079.6
42072.2
42077.7
42107.5
42166.5
42254.6
42368.8
42498.7
42624.7
42738.9
42836.7
42928.3
43030.2
43167.2
43344.3
43573.4
43860.1
44203.8
44588.9
44986.1
45366.9
45720.9
46044.7
46345.2
46651.5
46983.4
47354.1
47767.9
48210.2
48649.9
49048.2
49367.8
49580.2
49665.2
49609.6
49426.7
49120.4
48706.9
48210.2
47657.4
47075.9
46489.6
45917.3
45375.1
44880.3
44447
44101.9
43854.6
43709.9
43648.8
43629.1
43621.6
43612.1
43595.9
43572.5
43543.5
43511.4
43480.1
43454.9
43440.9
43441.9
43459.5
43493.6
43542
43602.7
43677
43769.4
43885.3
44028.4
44200.6
44400.2
44619.8
44852.5
45091.5
45319.7
45526.6
47796.7
47649.3
47305.1
46762.6
46041.7
45169.5
44203
43170.1
42161.7
41244.6
40437.3
39783.1
39273.2
38937.3
38761.2
38726.7
38802.1
38935.3
39111.6
39327.6
39565
39822.5
40068.7
40305.9
40526.1
40709.5
40919.6
41156.7
41367.5
41688.7
42023.4
42371.9
42691.7
42985.6
43253.1
43493.1
43665.5
43842.1
44013.8
44167
44285.1
44372
44428.2
44464.6
44485.1
44493.4
44500.2
44515.6
44547.3
44594.2
44642.4
44668.2
44638.7
44521.9
44287.9
43915.8
43389.2
42722.7
41968
41236.8
40635.2
40217.1
39983.9
39909.7
39945.5
40062.9
40221.7
40384
40527.3
40646
40750.5
40853.5
40964.1
41089
41234.8
41412.5
41614.9
41795
41918.6
41971.9
41978
41970.6
41976.1
42005.9
42064.9
42153
42267.2
42397.1
42523.1
42637.3
42735.1
42826.7
42928.6
43065.5
43242.7
43471.7
43758.5
44102.1
44487.3
44884.5
45265.3
45619.3
45943.1
46243.6
46549.9
46881.8
47252.5
47666.3
48108.6
48548.3
48946.7
49266.2
49478.6
49563.7
49508
49325.1
49018.8
48605.4
48108.6
47555.8
46974.3
46388
45815.7
45273.5
44778.7
44345.4
44000.3
43753
43608.2
43547.1
43527.4
43520
43510.5
43494.3
43470.9
43441.9
43409.8
43378.5
43353.3
43339.3
43340.3
43357.9
43392
43440.4
43501.1
43575.3
43667.8
43783.7
43926.8
44099
44298.6
44518.2
44750.9
44989.9
45218.1
45425
47695.5
47547.8
47203.6
46661
45940.2
45067.9
44101.4
43068.5
42060.1
41142.9
40335.6
39681.4
39171.6
38835.6
38659.5
38625.1
38700.5
38833.7
39009.9
39226
39463.4
39720.9
39967.1
40204.3
40424.5
40607.8
40818
41055
41265.9
41587.1
41921.8
42270.4
42590.1
42884
43151.5
43391.6
43563.9
43740.5
43912.2
44065.4
44183.6
44270.4
44326.7
44363
44383.5
44391.8
44398.6
44414
44445.7
44492.6
44540.8
44566.6
44537.2
44420.3
44186.3
43814.3
43287.7
42621.1
41866.4
41135.2
40533.5
40115.4
39882.2
39808
39843.9
39961.3
40120.1
40282.4
40425.7
40544.4
40648.9
40751.9
40862.5
40987.4
41133.2
41310.8
41513.3
41693.4
41817.1
41870.4
41876.4
41869
41874.5
41904.3
41963.2
42051.4
42165.6
42295.5
42421.5
42535.7
42633.5
42725.1
42827
42963.9
43141
43370.1
43656.9
44000.5
44385.7
44782.9
45163.7
45517.7
45841.5
46142
46448.2
46780.2
47150.9
47564.6
48006.9
48446.7
48845.1
49164.6
49377.1
49462.2
49406.5
49223.6
48917.3
48503.8
48007
47454.2
46872.7
46286.3
45714.1
45171.9
44677
44243.7
43898.6
43651.3
43506.6
43445.5
43425.8
43418.4
43408.9
43392.7
43369.3
43340.3
43308.2
43276.9
43251.7
43237.7
43238.6
43256.3
43290.4
43338.8
43399.5
43473.7
43566.2
43682.1
43825.1
43997.4
44197
44416.6
44649.3
44888.3
45116.5
45323.4
47594
47446.3
47102.1
46559.5
45838.6
44966.3
43999.8
42966.8
41958.4
41041.3
40233.9
39579.7
39069.8
38733.9
38557.8
38523.4
38598.9
38732.1
38908.3
39124.4
39361.8
39619.3
39865.5
40102.7
40322.9
40506.2
40716.4
40953.4
41164.2
41485.5
41820.2
42168.8
42488.6
42782.4
43049.9
43290
43462.3
43638.9
43810.6
43963.8
44082
44168.9
44225.1
44261.4
44281.9
44290.2
44297
44312.4
44344.1
44391
44439.2
44465.1
44435.6
44318.8
44084.8
43712.8
43186.2
42519.6
41764.7
41033.5
40431.8
40013.6
39780.5
39706.3
39742.2
39859.7
40018.5
40180.9
40324.1
40442.8
40547.3
40650.3
40760.8
40885.8
41031.6
41209.2
41411.7
41591.8
41715.5
41768.8
41774.8
41767.3
41772.9
41802.7
41861.6
41949.8
42063.9
42193.8
42319.9
42434.1
42531.9
42623.5
42725.4
42862.3
43039.4
43268.5
43555.2
43898.9
44284
44681.3
45062.1
45416.1
45739.9
46040.3
46346.6
46678.5
47049.2
47463
47905.3
48345.2
48743.5
49063.1
49275.6
49360.6
49305
49122.1
48815.7
48402.2
47905.5
47352.6
46771.1
46184.7
45612.4
45070.2
44575.4
44142.1
43796.9
43549.7
43404.9
43343.9
43324.2
43316.8
43307.3
43291.1
43267.7
43238.7
43206.6
43175.3
43150.1
43136.1
43137
43154.6
43188.8
43237.2
43297.9
43372.1
43464.6
43580.5
43723.5
43895.8
44095.4
44314.9
44547.7
44786.7
45014.9
45221.8
47492.8
47344.8
47000.6
46458
45737.1
44864.8
43898.2
42865.2
41856.7
40939.5
40132.2
39477.9
38968.1
38632.1
38456.1
38421.7
38497.2
38630.4
38806.7
39022.8
39260.2
39517.7
39763.9
40001.1
40221.3
40404.6
40614.8
40851.8
41062.6
41383.8
41718.6
42067.2
42387
42680.8
42948.3
43188.4
43360.7
43537.3
43709
43862.2
43980.4
44067.3
44123.5
44159.8
44180.3
44188.6
44195.4
44210.7
44242.5
44289.4
44337.7
44363.5
44334.1
44217.3
43983.3
43611.3
43084.7
42418
41663.1
40931.8
40330
39911.9
39678.8
39604.6
39640.5
39758
39916.8
40079.3
40222.5
40341.2
40445.7
40548.7
40659.2
40784.2
40930
41107.6
41310.1
41490.3
41613.9
41667.2
41673.2
41665.7
41671.2
41701
41760
41848.2
41962.3
42092.2
42218.3
42332.5
42430.3
42521.9
42623.7
42760.6
42937.8
43166.8
43453.6
43797.2
44182.4
44579.7
44960.5
45314.6
45638.3
45938.7
46245
46576.9
46947.6
47361.4
47803.7
48243.6
48642
48961.6
49174
49259.1
49203.5
49020.5
48714.2
48300.7
47803.9
47251
46669.5
46083.1
45510.8
44968.6
44473.7
44040.4
43695.3
43448
43303.3
43242.2
43222.6
43215.2
43205.7
43189.5
43166.1
43137.1
43105
43073.7
43048.5
43034.5
43035.4
43053
43087.2
43135.5
43196.3
43270.5
43363
43478.9
43621.9
43794.2
43993.8
44213.3
44446.1
44685.1
44913.3
45120.2
47391.4
47243.3
46899.1
46356.5
45635.6
44763.2
43796.6
42763.5
41755
40837.8
40030.5
39376.2
38866.4
38530.4
38354.4
38320
38395.5
38528.8
38705.1
38921.1
39158.5
39416.1
39662.3
39899.6
40119.7
40303
40513.1
40750.2
40960.9
41282.2
41616.9
41965.6
42285.4
42579.2
42846.8
43086.8
43259.1
43435.7
43607.4
43760.6
43878.8
43965.7
44021.9
44058.2
44078.7
44087
44093.8
44109.1
44140.9
44187.8
44236.1
44261.9
44232.6
44115.8
43881.8
43509.8
42983.2
42316.5
41561.5
40830.1
40228.2
39810.1
39577
39502.9
39538.9
39656.4
39815.2
39977.7
40121
40239.6
40344.1
40447.1
40557.6
40682.6
40828.3
41006
41208.5
41388.7
41512.4
41565.7
41571.6
41564.1
41569.6
41599.4
41658.4
41746.5
41860.7
41990.6
42116.7
42230.9
42328.7
42420.3
42522.1
42659
42836.1
43065.2
43351.9
43695.6
44080.8
44478.1
44858.9
45213
45536.7
45837.1
46143.4
46475.3
46846
47259.7
47702.1
48142
48540.4
48860.1
49072.6
49157.6
49102
48919
48612.7
48199.1
47702.3
47149.4
46567.9
45981.5
45409.2
44866.9
44372.1
43938.7
43593.6
43346.3
43201.6
43140.6
43121
43113.6
43104.1
43087.9
43064.5
43035.5
43003.4
42972.1
42946.9
42932.9
42933.8
42951.4
42985.6
43033.9
43094.7
43168.9
43261.3
43377.2
43520.3
43692.5
43892.1
44111.7
44344.5
44583.5
44811.7
45018.7
47290.2
47141.9
46797.7
46255.1
45534.1
44661.6
43695
42661.9
41653.3
40736.1
39928.7
39274.4
38764.6
38428.6
38252.6
38218.3
38293.9
38427.1
38603.4
38819.5
39056.9
39314.5
39560.7
39798
40018.1
40201.4
40411.5
40648.6
40859.3
41180.5
41515.3
41864
42183.8
42477.7
42745.2
42985.3
43157.5
43334
43505.8
43659
43777.2
43864.1
43920.3
43956.7
43977.1
43985.4
43992.2
44007.5
44039.3
44086.2
44134.5
44160.4
44131
44014.3
43780.4
43408.3
42881.7
42214.9
41459.9
40728.4
40126.5
39708.4
39475.3
39401.2
39437.2
39554.7
39713.6
39876.1
40019.4
40138
40242.5
40345.5
40456
40580.9
40726.7
40904.3
41106.9
41287.2
41410.8
41464.1
41470.1
41462.5
41468
41497.8
41556.7
41644.9
41759.1
41889
42015.1
42129.3
42227.1
42318.6
42420.5
42557.4
42734.5
42963.5
43250.3
43593.9
43979.1
44376.5
44757.3
45111.4
45435.1
45735.5
46041.7
46373.6
46744.3
47158.1
47600.5
48040.4
48438.9
48758.6
48971.1
49056.2
49000.5
48817.6
48511.2
48097.6
47600.8
47047.8
46466.3
45879.8
45307.5
44765.2
44270.4
43837
43491.9
43244.6
43099.9
43039
43019.4
43012
43002.5
42986.4
42962.9
42933.9
42901.8
42870.5
42845.2
42831.2
42832.2
42849.8
42884
42932.3
42993.1
43067.3
43159.7
43275.6
43418.6
43590.9
43790.5
44010.1
44242.9
44481.9
44710.1
44917.1
47188.9
47040.4
46696.2
46153.6
45432.6
44560.1
43593.4
42560.2
41551.6
40634.4
39827
39172.7
38662.8
38326.8
38150.9
38116.6
38192.2
38325.5
38501.8
38717.9
38955.3
39212.9
39459.1
39696.4
39916.5
40099.8
40309.9
40546.9
40757.6
41078.9
41413.7
41762.4
42082.2
42376.1
42643.6
42883.7
43055.9
43232.4
43404.3
43557.5
43675.7
43762.5
43818.7
43855.1
43875.5
43883.8
43890.6
43905.9
43937.6
43984.6
44032.9
44058.8
44029.5
43912.8
43678.9
43306.9
42780.2
42113.4
41358.2
40626.6
40024.7
39606.6
39373.5
39299.5
39335.5
39453.1
39612
39774.5
39917.8
40036.4
40140.9
40243.9
40354.4
40479.3
40625.1
40802.7
41005.3
41185.6
41309.3
41362.5
41368.5
41360.9
41366.4
41396.1
41455.1
41543.3
41657.5
41787.4
41913.5
42027.7
42125.5
42217
42318.8
42455.7
42632.8
42861.8
43148.6
43492.3
43877.5
44274.9
44655.7
45009.8
45333.5
45633.9
45940.1
46272
46642.7
47056.4
47498.9
47938.8
48337.4
48657.1
48869.6
48954.7
48899
48716.1
48409.7
47996.1
47499.2
46946.2
46364.6
45778.2
45205.9
44663.6
44168.7
43735.3
43390.2
43142.9
42998.2
42937.3
42917.7
42910.4
42900.9
42884.8
42861.3
42832.3
42800.2
42768.9
42743.6
42729.6
42730.6
42748.2
42782.3
42830.7
42891.4
42965.6
43058.1
43174
43317
43489.3
43688.9
43908.5
44141.3
44380.3
44608.6
44815.5
47087.6
46939
46594.8
46052.1
45331.1
44458.5
43491.7
42458.5
41449.9
40532.6
39725.2
39070.9
38561
38225
38049.1
38014.8
38090.5
38223.8
38400.1
38616.2
38853.7
39111.3
39357.5
39594.8
39814.9
39998.2
40208.3
40445.3
40656
40977.2
41312.1
41660.8
41980.7
42274.5
42542
42782.2
42954.3
43130.8
43302.7
43455.9
43574.1
43661
43717.2
43753.5
43773.9
43782.2
43789
43804.3
43836
43883
43931.3
43957.3
43928
43811.3
43577.4
43205.4
42678.7
42011.9
41256.6
40524.9
39922.8
39504.7
39271.8
39197.7
39233.8
39351.4
39510.4
39672.9
39816.2
39934.8
40039.3
40142.3
40252.8
40377.7
40523.5
40701.1
40903.7
41084.1
41207.8
41261
41266.9
41259.3
41264.7
41294.5
41353.5
41441.6
41555.8
41685.8
41811.9
41926.1
42023.9
42115.4
42217.2
42354.1
42531.1
42760.2
43046.9
43390.6
43775.9
44173.3
44554.1
44908.2
45231.9
45532.3
45838.4
46170.3
46541
46954.8
47397.3
47837.3
48235.8
48555.6
48768.1
48853.3
48797.6
48614.6
48308.2
47894.6
47397.7
46844.6
46263
45676.6
45104.2
44561.9
44067
43633.6
43288.4
43041.2
42896.5
42835.6
42816.1
42808.8
42799.4
42783.2
42759.7
42730.7
42698.6
42667.3
42642
42628
42628.9
42646.5
42680.7
42729.1
42789.8
42864
42956.5
43072.3
43215.4
43387.6
43587.2
43806.9
44039.6
44278.7
44507
44713.9
46986.4
46837.6
46493.4
45950.7
45229.6
44357
43390.1
42356.9
41348.2
40430.8
39623.4
38969.1
38459.2
38123.2
37947.3
37913.1
37988.8
38122.2
38298.5
38514.6
38752
39009.7
39255.9
39493.2
39713.4
39896.6
40106.7
40343.7
40554.3
40875.6
41210.5
41559.3
41879.1
42172.9
42440.5
42680.6
42852.8
43029.2
43201.1
43354.3
43472.5
43559.4
43615.6
43651.9
43672.3
43680.6
43687.3
43702.6
43734.4
43781.4
43829.8
43855.8
43826.5
43709.9
43476
43104
42577.3
41910.3
41154.9
40423.1
39821
39402.9
39170
39096
39132.1
39249.8
39408.8
39571.3
39714.6
39833.2
39937.7
40040.7
40151.1
40276.1
40421.8
40599.5
40802.1
40982.5
41106.3
41159.5
41165.3
41157.7
41163.1
41192.9
41251.8
41340
41454.2
41584.2
41710.3
41824.5
41922.3
42013.8
42115.6
42252.4
42429.5
42658.5
42945.2
43288.9
43674.2
44071.7
44452.5
44806.6
45130.3
45430.7
45736.8
46068.6
46439.3
46853.1
47295.6
47735.7
48134.3
48454.1
48666.7
48751.8
48696.2
48513.2
48206.7
47793.1
47296.1
46743
46161.4
45574.9
45002.5
44460.2
43965.3
43531.9
43186.7
42939.4
42794.8
42734
42714.5
42707.2
42697.8
42681.6
42658.1
42629.1
42597
42565.7
42540.4
42526.4
42527.3
42544.9
42579.1
42627.5
42688.2
42762.4
42854.8
42970.7
43113.7
43286
43485.6
43705.2
43938
44177.1
44405.4
44612.4
46885.3
46736.3
46392
45849.3
45128.1
44255.4
43288.5
42255.2
41246.4
40329.1
39521.6
38867.2
38357.4
38021.4
37845.5
37811.3
37887.1
38020.5
38196.9
38413
38650.4
38908.1
39154.3
39391.6
39611.8
39795
40005
40242
40452.6
40773.9
41108.9
41457.7
41777.5
42071.4
42338.9
42579
42751.2
42927.6
43099.5
43252.8
43371
43457.8
43514
43550.3
43570.7
43579
43585.7
43601
43632.8
43679.8
43728.2
43754.2
43725
43608.4
43374.6
43002.6
42475.8
41808.8
41053.3
40321.3
39719.1
39301
39068.1
38994.2
39030.4
39148.1
39307.2
39469.7
39613.1
39731.7
39836.1
39939
40049.5
40174.4
40320.2
40497.8
40700.5
40881
41004.8
41057.9
41063.7
41056.1
41061.5
41091.2
41150.2
41238.4
41352.6
41482.6
41608.8
41722.9
41820.7
41912.2
42013.9
42150.7
42327.8
42556.8
42843.5
43187.3
43572.6
43970
44351
44705
45028.7
45329
45635.2
45967
46337.7
46751.5
47194
47634.1
48032.8
48352.6
48565.3
48650.4
48594.8
48411.7
48105.3
47691.5
47194.6
46641.5
46059.8
45473.3
44900.9
44358.5
43863.6
43430.1
43085
42837.7
42693.1
42632.3
42612.9
42605.6
42596.2
42580
42556.5
42527.5
42495.4
42464.1
42438.8
42424.8
42425.7
42443.3
42477.5
42525.8
42586.6
42660.8
42753.2
42869.1
43012.1
43184.4
43384
43603.6
43836.4
44075.5
44303.8
44510.8
46733.6
46584.2
46240
45697.2
44975.9
44103.1
43136.1
42102.6
41093.8
40176.4
39368.8
38714.4
38204.6
37868.6
37692.8
37658.7
37734.5
37868
38044.4
38260.5
38498
38755.7
39001.9
39239.2
39459.4
39642.5
39852.6
40089.6
40300.1
40621.4
40956.4
41305.3
41625.2
41919
42186.6
42426.7
42598.9
42775.2
42947.2
43100.4
43218.7
43305.5
43361.7
43398
43418.4
43426.6
43433.3
43448.6
43480.4
43527.4
43575.8
43601.9
43572.8
43456.3
43222.5
42850.5
42323.7
41656.6
40900.8
40168.6
39566.3
39148.2
38915.4
38841.5
38877.8
38995.6
39154.7
39317.4
39460.7
39579.3
39683.7
39786.6
39897.1
40022
40167.7
40345.4
40548.1
40728.7
40852.5
40905.6
40911.4
40903.6
40909
40938.7
40997.7
41085.9
41200.2
41330.2
41456.4
41570.6
41668.3
41759.7
41861.4
41998.2
42175.3
42404.3
42691
43034.7
43420.1
43817.6
44198.6
44552.7
44876.3
45176.6
45482.7
45814.5
46185.1
46599
47041.6
47481.8
47880.6
48200.5
48413.1
48498.3
48442.6
48259.6
47953.1
47539.3
47042.2
46489.1
45907.4
45320.8
44748.4
44206
43711
43277.5
42932.3
42685.1
42540.5
42479.8
42460.4
42453.2
42443.8
42427.6
42404.1
42375.1
42342.9
42311.6
42286.3
42272.3
42273.2
42290.8
42325
42373.4
42434.1
42508.3
42600.7
42716.6
42859.6
43031.9
43231.5
43451.2
43684
43923.1
44151.4
44358.5
46531.2
46381.6
46037.3
45494.5
44773.1
43900.1
42932.9
41899.2
40890.2
39972.7
39165.1
38510.7
38000.8
37664.8
37489.1
37455.1
37531.1
37664.6
37841.1
38057.2
38294.7
38552.5
38798.8
39036.1
39256.2
39439.3
39649.3
39886.3
40096.7
40418
40753.2
41102.2
41422.1
41715.9
41983.5
42223.7
42395.7
42572
42744
42897.3
43015.6
43102.4
43158.5
43194.8
43215.2
43223.4
43230.1
43245.3
43277.1
43324.2
43372.7
43398.9
43369.9
43253.4
43019.7
42647.8
42120.9
41453.6
40697.5
39965
39362.5
38944.4
38711.7
38637.9
38674.3
38792.2
38951.5
39114.2
39257.6
39376.1
39480.5
39583.4
39693.8
39818.7
39964.4
40142.1
40345
40525.7
40649.5
40702.6
40708.2
40700.4
40705.7
40735.4
40794.4
40882.6
40996.9
41127
41253.2
41367.4
41465.1
41556.5
41658.1
41794.9
41971.9
42200.8
42487.6
42831.4
43216.8
43614.4
43995.4
44349.5
44673.1
44973.4
45279.4
45611.1
45981.8
46395.7
46838.4
47278.7
47677.6
47997.6
48210.4
48295.6
48239.9
48056.8
47750.2
47336.3
46839.2
46285.9
45704.1
45117.5
44545
44002.6
43507.5
43074
42728.8
42481.5
42337
42276.4
42257.2
42250
42240.6
42224.4
42200.9
42171.9
42139.7
42108.4
42083.1
42069.1
42070
42087.6
42121.8
42170.1
42230.9
42305
42397.4
42513.3
42656.3
42828.6
43028.2
43247.9
43480.8
43720
43948.3
44155.3
46329
46179
45834.7
45291.8
44570.2
43697.1
42729.7
41695.8
40686.6
39769
38961.4
38306.8
37796.9
37461
37285.3
37251.5
37327.6
37461.2
37637.7
37853.9
38091.4
38349.3
38595.6
38832.9
39053.1
39236.1
39446.1
39683
39893.4
40214.7
40549.9
40899.1
41219
41512.8
41780.4
42020.6
42192.6
42368.8
42540.9
42694.2
42812.5
42899.3
42955.4
42991.7
43012
43020.2
43026.8
43042.1
43073.8
43121
43169.6
43195.9
43167
43050.7
42817
42445.1
41918.2
41250.6
40494.2
39761.3
39158.6
38740.4
38507.9
38434.3
38470.8
38588.8
38748.3
38911.1
39054.5
39173
39277.3
39380.2
39490.6
39615.4
39761.1
39938.8
40141.8
40322.7
40446.6
40499.5
40505.1
40497.2
40502.4
40532.1
40591.1
40679.3
40793.6
40923.8
41050
41164.2
41261.9
41353.2
41454.8
41591.5
41768.5
41997.4
42284.1
42628
43013.5
43411.2
43792.2
44146.4
44470
44770.1
45076
45407.7
45778.4
46192.3
46635.1
47075.6
47474.6
47794.8
48007.6
48092.9
48037.2
47854.1
47547.4
47133.4
46636.1
46082.8
45500.9
44914.2
44341.6
43799.1
43304
42870.4
42525.2
42277.9
42133.5
42073.1
42053.9
42046.8
42037.4
42021.2
41997.8
41968.7
41936.5
41905.2
41879.8
41865.8
41866.7
41884.3
41918.5
41966.9
42027.6
42101.8
42194.2
42310
42453
42625.3
42824.9
43044.6
43277.6
43516.8
43745.2
43952.2
46126.8
45976.5
45632.2
45089.1
44367.5
43494.1
42526.4
41492.3
40483
39565.2
38757.5
38102.9
37593
37257.1
37081.5
37047.8
37124.1
37257.8
37434.4
37650.6
37888.1
38146.1
38392.4
38629.8
38849.9
39032.9
39242.8
39479.7
39689.9
40011.3
40346.7
40695.9
41015.9
41309.8
41577.3
41817.6
41989.5
42165.6
42337.8
42491.1
42609.4
42696.2
42752.3
42788.5
42808.9
42817
42823.6
42838.8
42870.6
42917.8
42966.5
42992.9
42964.2
42847.9
42614.4
42242.5
41715.5
41047.7
40290.8
39557.5
38954.6
38536.4
38304.1
38230.6
38267.2
38385.4
38545
38707.9
38851.4
38969.8
39074.1
39176.9
39287.3
39412.1
39557.8
39735.5
39938.7
40119.7
40243.6
40296.5
40301.9
40293.9
40299.1
40328.8
40387.8
40476
40590.3
40720.6
40846.9
40961.1
41058.8
41150
41251.5
41388.1
41565.1
41793.9
42080.7
42424.5
42810.1
43207.9
43589.1
43943.2
44266.8
44566.9
44872.7
45204.3
45574.9
45988.9
46431.8
46872.5
47271.7
47592
47804.9
47890.3
47834.6
47651.4
47344.6
46930.5
46433.1
45879.6
45297.7
44710.9
44138.2
43595.7
43100.5
42666.8
42321.5
42074.3
41930
41869.7
41850.6
41843.6
41834.2
41818
41794.6
41765.5
41733.3
41701.9
41676.6
41662.5
41663.4
41681
41715.2
41763.6
41824.4
41898.5
41990.8
42106.7
42249.7
42421.9
42621.6
42841.4
43074.3
43313.6
43542
43749.1
45924.7
45774
45429.7
44886.6
44164.7
43291.1
42323.2
41288.8
40279.3
39361.4
38553.6
37899
37389
37053.1
36877.6
36844.1
36920.5
37054.4
37231
37447.2
37684.8
37942.9
38189.2
38426.6
38646.8
38829.6
39039.5
39276.4
39486.5
39807.9
40143.4
40492.8
40812.8
41106.7
41374.3
41614.5
41786.3
41962.4
42134.7
42288.1
42406.3
42493.1
42549.2
42585.4
42605.7
42613.8
42620.3
42635.5
42667.3
42714.6
42763.4
42790
42761.4
42645.3
42411.8
42040
41512.8
40844.8
40087.5
39353.7
38750.5
38332.4
38100.1
38026.8
38063.6
38182
38341.8
38504.8
38648.3
38766.7
38870.9
38973.7
39084
39208.8
39354.4
39532.1
39735.5
39916.8
40040.7
40093.5
40098.8
40090.7
40095.8
40125.4
40184.4
40272.7
40387.1
40517.4
40643.7
40757.9
40855.6
40946.7
41048.1
41184.7
41361.6
41590.4
41877.2
42221.1
42606.8
43004.7
43385.9
43740.1
44063.6
44363.6
44669.3
45000.9
45371.5
45785.6
46228.6
46669.4
47068.8
47389.3
47602.3
47687.7
47632
47448.7
47141.9
46727.7
46230.1
45676.5
45094.4
44507.5
43934.8
43392.2
42897
42463.2
42117.8
41870.6
41726.4
41666.2
41647.3
41640.4
41631
41614.9
41591.4
41562.3
41530.1
41498.7
41473.3
41459.2
41460.1
41477.8
41512
41560.4
41621.1
41695.2
41787.5
41903.3
42046.3
42218.6
42418.3
42638.1
42871.1
43110.4
43338.9
43546.1
45722.6
45571.6
45227.3
44684.1
43962
43088.1
42120
41085.3
40075.6
39157.5