/*--------------------------------*- C++ -*----------------------------------*\
| =========                 |                                                 |
| \\      /  F ield         | OpenFOAM: The Open Source CFD Toolbox           |
|  \\    /   O peration     | Version:  v1912                                 |
|   \\  /    A nd           | Website:  www.openfoam.com                      |
|    \\/     M anipulation  |                                                 |
\*---------------------------------------------------------------------------*/
FoamFile
{
    version     2.0;
    format      ascii;
    class       volScalarField;
    location    "20";
    object      p;
}
// * * * * * * * * * * * * * * * * * * * * * * * * * * * * * * * * * * * * * //

dimensions      [1 -1 -2 0 0 0 0];


internalField   nonuniform List<scalar> 
14268
(
99484.6
99028.3
98571.1
98112.8
97653.7
97193.8
96733
96271.4
95809.2
95346.2
94882.5
94418.2
93953.3
93487.8
93021.8
92555.3
92088.3
91620.9
91153
90684.8
90216.1
89747.2
89277.9
88808.2
88338.3
87868.2
87397.7
86927.1
86456.2
85985.1
85513.7
85042.2
84570.6
84098.7
83626.7
83154.5
82682.2
82209.7
81737.1
81264.3
80791.4
80318.3
79845.1
79371.8
78898.3
78424.8
77951
77477.2
77003.3
76529.2
76055
75580.8
75106.4
74632
74157.5
73682.9
73208.4
72733.7
72259.1
71784.5
71309.9
70835.3
70360.7
69886.2
69411.8
68937.4
68463.1
67988.8
67514.6
67040.5
66566.4
66092.3
65618.2
65144.1
64670.1
64196
63721.8
63247.6
62773.4
62299.1
61824.8
61350.4
60876
60401.6
59927.2
59452.9
58978.5
58504.3
58030.1
57556
57081.9
56607.8
56133.8
55659.8
55185.8
54711.7
54237.5
53763.3
53289
52814.6
52340.2
51865.8
51391.4
50917.1
50442.8
49968.6
49494.5
49020.4
48546.3
48072.2
47598.1
47123.9
46649.6
46175.3
45701.1
45226.9
44752.7
44278.6
43804.5
43330.4
42856.2
42382.1
41908
41433.8
40959.9
40485.9
40012.3
39538.3
39064.9
38590.9
38117.9
37644
37171.5
36698.5
94761.6
94339.8
93917.2
93493.5
93069
92643.6
92217.5
91790.5
91362.8
90934.4
90505.3
90075.6
89645.3
89214.5
88783.1
88351.1
87918.8
87485.9
87052.7
86619
86185
85750.6
85316
84880.9
84445.7
84010.1
83574.3
83138.2
82701.9
82265.4
81828.8
81391.9
80954.8
80517.6
80080.2
79642.6
79204.9
78767
78329
77890.9
77452.6
77014.1
76575.6
76136.8
75698
75259
74820
74380.7
73941.4
73502
73062.4
72622.8
72183
71743.2
71303.4
70863.4
70423.5
69983.5
69543.5
69103.5
68663.5
68223.5
67783.6
67343.7
66903.9
66464.1
66024.4
65584.8
65145.2
64705.7
64266.2
63826.7
63387.3
62947.8
62508.4
62068.9
61629.4
61189.8
60750.2
60310.5
59870.8
59431.1
58991.3
58551.5
58111.7
57672
57232.3
56792.7
56353.1
55913.6
55474.1
55034.7
54595.3
54155.9
53716.5
53277
52837.5
52397.9
51958.2
51518.5
51078.7
50638.9
50199.1
49759.4
49319.7
48880.2
48440.6
48001.2
47561.7
47122.2
46682.7
46243.1
45803.5
45363.8
44924.2
44484.6
44045.1
43605.6
43166.1
42726.6
42287.1
41847.5
41408
40968.5
40529.2
40089.7
39650.7
39211.3
38772.5
38333.1
37894.6
37455.3
37017.3
36578.7
90038.7
89651.6
89263.5
88874.4
88484.5
88093.7
87702.1
87309.7
86916.6
86522.8
86128.3
85733.2
85337.5
84941.2
84544.4
84147.1
83749.3
83351.1
82952.4
82553.4
82154
81754.2
81354.1
80953.7
80553
80152.1
79750.9
79349.4
78947.8
78545.9
78143.8
77741.5
77339.1
76936.5
76533.7
76130.7
75727.6
75324.4
74921
74517.4
74113.8
73710
73306
72901.9
72497.7
72093.3
71688.9
71284.3
70879.6
70474.7
70069.8
69664.8
69259.7
68854.5
68449.2
68043.9
67638.6
67233.2
66827.8
66422.4
66017.1
65611.7
65206.4
64801.2
64396
63990.8
63585.7
63180.7
62775.8
62370.9
61966
61561.2
61156.3
60751.5
60346.7
59941.8
59536.9
59132
58727
58321.9
57916.8
57511.7
57106.6
56701.4
56296.3
55891.1
55486.1
55081.1
54676.1
54271.2
53866.4
53461.6
53056.8
52652
52247.2
51842.4
51437.5
51032.5
50627.4
50222.3
49817.2
49412
49006.8
48601.7
48196.7
47791.7
47386.8
46982
46577.1
46172.3
45767.4
45362.4
44957.4
44552.4
44147.3
43742.4
43337.4
42932.5
42527.7
42122.8
41717.9
41312.9
40908
40503.1
40098.4
39693.6
39289.2
38884.3
38480.2
38075.3
37671.4
37266.6
36863.1
36459
85316.1
84963.5
84610
84255.5
83900.1
83543.9
83186.9
82829.1
82470.5
82111.3
81751.4
81390.8
81029.7
80668
80305.8
79943.1
79579.9
79216.3
78852.2
78487.8
78122.9
77757.8
77392.3
77026.5
76660.4
76294.1
75927.5
75560.7
75193.6
74826.3
74458.9
74091.2
73723.4
73355.4
72987.2
72618.9
72250.4
71881.7
71513
71144.1
70775
70405.8
70036.5
69667
69297.4
68927.7
68557.8
68187.8
67817.7
67447.5
67077.2
66706.8
66336.3
65965.7
65595.1
65224.4
64853.7
64482.9
64112.2
63741.4
63370.6
62999.9
62629.2
62258.6
61888
61517.5
61147.1
60776.7
60406.3
60036.1
59665.8
59295.6
58925.4
58555.2
58185
57814.8
57444.5
57074.2
56703.8
56333.4
55962.9
55592.4
55221.8
54851.3
54480.8
54110.3
53739.8
53369.4
52999.1
52628.8
52258.6
51888.5
51518.3
51148.2
50778
50407.8
50037.5
49667.1
49296.7
48926.2
48555.6
48185.1
47814.5
47444
47073.6
46703.3
46333
45962.8
45592.6
45222.3
44852
44481.7
44111.3
43740.9
43370.5
43000.1
42629.8
42259.5
41889.3
41519
41148.7
40778.4
40408.1
40037.8
39667.7
39297.4
38927.6
38557.4
38187.8
37817.5
37448.2
37077.9
36708.9
36339.2
80593.7
80275.7
79956.7
79636.8
79315.9
78994.3
78671.8
78348.6
78024.6
77699.9
77374.6
77048.6
76722.1
76395
76067.3
75739.2
75410.6
75081.5
74752.1
74422.2
74092
73761.4
73430.5
73099.4
72767.9
72436.1
72104.1
71771.9
71439.5
71106.8
70773.9
70440.9
70107.7
69774.3
69440.7
69107
68773.2
68439.1
68105
67770.7
67436.2
67101.7
66766.9
66432.1
66097.1
65762
65426.8
65091.4
64755.9
64420.3
64084.6
63748.8
63413
63077
62741
62404.9
62068.8
61732.7
61396.5
61060.4
60724.2
60388.1
60052.1
59716.1
59380.1
59044.2
58708.4
58372.6
58036.9
57701.2
57365.6
57030
56694.5
56358.9
56023.3
55687.7
55352
55016.3
54680.6
54344.8
54008.9
53673
53337.1
53001.2
52665.3
52329.4
51993.6
51657.8
51322.1
50986.5
50650.9
50315.3
49979.8
49644.3
49308.7
48973.1
48637.5
48301.7
47965.9
47630
47294.1
46958.1
46622.2
46286.3
45950.5
45614.8
45279.2
44943.6
44608
44272.4
43936.7
43601
43265.2
42929.4
42593.6
42257.8
41922.1
41586.5
41250.8
40915.2
40579.5
40243.8
39908.1
39572.4
39236.9
38901.3
38566.1
38230.4
37895.4
37559.7
37225
36889.2
36554.7
36219.5
75871.6
75588.1
75303.6
75018.2
74732
74444.8
74156.9
73868.2
73578.8
73288.7
72997.9
72706.5
72414.5
72122
71828.9
71535.4
71241.3
70946.9
70652
70356.7
70061.1
69765.1
69468.8
69172.2
68875.4
68578.2
68280.8
67983.2
67685.4
67387.3
67089.1
66790.6
66492
66193.2
65894.3
65595.2
65295.9
64996.5
64697
64397.3
64097.5
63797.5
63497.4
63197.2
62896.8
62596.3
62295.7
61995
61694.1
61393.1
61092
60790.9
60489.6
60188.3
59886.9
59585.4
59283.9
58982.4
58680.9
58379.3
58077.8
57776.3
57474.9
57173.5
56872.2
56570.9
56269.7
55968.5
55667.5
55366.4
55065.4
54764.5
54463.5
54162.6
53861.6
53560.6
53259.6
52958.5
52657.4
52356.2
52055
51753.7
51452.4
51151.1
50849.8
50548.6
50247.4
49946.2
49645.1
49344.1
49043.1
48742.2
48441.3
48140.4
47839.5
47538.5
47237.4
46936.3
46635.1
46333.8
46032.5
45731.2
45429.9
45128.7
44827.5
44526.4
44225.4
43924.4
43623.4
43322.4
43021.4
42720.2
42419.1
42117.9
41816.7
41515.6
41214.5
40913.5
40612.4
40311.4
40010.3
39709.2
39408.1
39107
38806.1
38505.1
38204.5
37903.5
37603
37301.9
37001.7
36700.5
36400.5
36099.7
71149.7
70900.7
70650.8
70399.9
70148.1
69895.6
69642.2
69388
69133.1
68877.6
68621.4
68364.5
68107.1
67849.1
67590.6
67331.6
67072.2
66812.3
66552
66291.3
66030.3
65768.9
65507.2
65245.2
64982.9
64720.4
64457.6
64194.5
63931.3
63667.9
63404.2
63140.4
62876.4
62612.2
62347.9
62083.4
61818.8
61554
61289
61024
60758.8
60493.4
60227.9
59962.3
59696.6
59430.7
59164.7
58898.5
58632.3
58365.9
58099.5
57832.9
57566.3
57299.5
57032.8
56765.9
56499
56232.1
55965.2
55698.3
55431.4
55164.5
54897.7
54630.9
54364.2
54097.6
53831
53564.5
53298
53031.6
52765.3
52498.9
52232.6
51966.3
51699.9
51433.6
51167.2
50900.7
50634.2
50367.6
50101
49834.4
49567.7
49301
49034.3
48767.7
48501.1
48234.6
47968.1
47701.7
47435.4
47169.1
46902.8
46636.5
46370.2
46103.9
45837.4
45570.9
45304.3
45037.7
44771
44504.3
44237.6
43971
43704.4
43437.9
43171.5
42905.2
42638.8
42372.4
42106
41839.5
41573
41306.4
41039.8
40773.3
40506.9
40240.4
39974
39707.6
39441.1
39174.6
38908.2
38641.7
38375.4
38109
37843
37576.5
37310.7
37044.1
36778.5
36511.8
36246.3
35980
66428
66213.5
65998.1
65781.7
65564.5
65346.4
65127.6
64908
64687.6
64466.6
64244.9
64022.6
63799.8
63576.4
63352.4
63128
62903.1
62677.8
62452.1
62226
61999.5
61772.7
61545.6
61318.2
61090.5
60862.5
60634.3
60405.9
60177.3
59948.4
59719.4
59490.2
59260.8
59031.2
58801.5
58571.6
58341.6
58111.4
57881.1
57650.6
57420
57189.3
56958.5
56727.4
56496.3
56265.1
56033.7
55802.1
55570.5
55338.8
55106.9
54875
54642.9
54410.8
54178.7
53946.4
53714.2
53481.9
53249.6
53017.3
52785
52552.7
52320.5
52088.4
51856.3
51624.3
51392.3
51160.4
50928.6
50696.8
50465.1
50233.4
50001.7
49770
49538.3
49306.5
49074.7
48842.9
48611
48379.1
48147.1
47915
47683
47450.9
47218.9
46986.8
46754.9
46523
46291.1
46059.3
45827.6
45595.9
45364.3
45132.6
44901
44669.2
44437.4
44205.5
43973.6
43741.5
43509.5
43277.4
43045.3
42813.3
42581.4
42349.5
42117.7
41886
41654.2
41422.5
41190.7
40958.8
40726.9
40494.9
40263
40031.1
39799.2
39567.4
39335.6
39103.8
38872
38640.1
38408.2
38176.3
37944.6
37712.8
37481.4
37249.6
37018.3
36786.3
36555.3
36323.1
36092.2
35860.2
61706.6
61526.6
61345.6
61163.8
60981.1
60797.5
60613.2
60428.1
60242.3
60055.8
59868.6
59680.9
59492.6
59303.7
59114.3
58924.4
58734.1
58543.4
58352.2
58160.7
57968.8
57776.5
57584
57391.2
57198.1
57004.7
56811.1
56617.3
56423.3
56229
56034.6
55840
55645.2
55450.2
55255.1
55059.8
54864.4
54668.9
54473.2
54277.3
54081.4
53885.2
53689
53492.6
53296.1
53099.4
52902.7
52705.8
52508.7
52311.6
52114.4
51917
51719.6
51522.1
51324.5
51126.9
50929.3
50731.6
50533.9
50336.2
50138.6
49940.9
49743.3
49545.8
49348.3
49150.9
48953.6
48756.3
48559.1
48362
48164.9
47967.8
47770.7
47573.7
47376.6
47179.5
46982.3
46785.1
46587.8
46390.5
46193.1
45995.7
45798.2
45600.8
45403.4
45206
45008.6
44811.3
44614.1
44417
44219.9
44022.8
43825.8
43628.8
43431.7
43234.6
43037.4
42840.1
42642.8
42445.4
42247.9
42050.4
41853
41655.6
41458.3
41261.1
41063.9
40866.8
40669.7
40472.5
40275.3
40078.1
39880.8
39683.4
39486.1
39288.8
39091.6
38894.4
38697.2
38500
38302.8
38105.5
37908.2
37711
37513.9
37316.7
37119.9
36922.6
36725.9
36528.5
36332
36134.4
35938
35740.5
56985.3
56839.8
56693.4
56546
56397.8
56248.7
56098.9
55948.3
55797
55645
55492.4
55339.2
55185.4
55031.1
54876.3
54721
54565.2
54409
54252.4
54095.4
53938.1
53780.5
53622.5
53464.3
53305.7
53147
52988
52828.7
52669.3
52509.6
52349.8
52189.8
52029.6
51869.2
51708.7
51548.1
51387.3
51226.3
51065.3
50904
50742.7
50581.2
50419.5
50257.8
50095.9
49933.8
49771.7
49609.4
49447
49284.4
49121.8
48959.1
48796.3
48633.4
48470.4
48307.4
48144.4
47981.3
47818.3
47655.2
47492.1
47329.1
47166.1
47003.2
46840.4
46677.6
46514.9
46352.3
46189.7
46027.2
45864.7
45702.2
45539.8
45377.4
45214.9
45052.4
44889.9
44727.3
44564.6
44401.9
44239.2
44076.4
43913.5
43750.7
43587.9
43425.1
43262.4
43099.7
42937.1
42774.6
42612.1
42449.7
42287.3
42124.9
41962.5
41800
41637.4
41474.7
41312
41149.2
40986.4
40823.5
40660.7
40497.9
40335.2
40172.6
40010.1
39847.6
39685.1
39522.6
39360
39197.3
39034.6
38871.9
38709.2
38546.5
38383.9
38221.4
38058.8
37896.2
37733.6
37570.9
37408.3
37245.6
37083.1
36920.5
36758.3
36595.7
36433.6
36270.7
36108.8
35945.7
35783.8
35620.7
52264.3
52153.3
52041.3
51928.4
51814.7
51700.1
51584.8
51468.7
51351.9
51234.5
51116.4
50997.7
50878.4
50758.6
50638.3
50517.6
50396.3
50274.7
50152.7
50030.2
49907.5
49784.4
49661
49537.4
49413.4
49289.2
49164.8
49040.2
48915.3
48790.3
48665
48539.6
48414
48288.3
48162.4
48036.4
47910.2
47783.8
47657.4
47530.8
47404
47277.1
47150.1
47022.9
46895.7
46768.2
46640.7
46513
46385.2
46257.3
46129.3
46001.2
45873
45744.7
45616.4
45488
45359.5
45231.1
45102.6
44974.1
44845.7
44717.3
44589
44460.7
44332.4
44204.3
44076.2
43948.2
43820.2
43692.3
43564.5
43436.7
43308.9
43181.1
43053.2
42925.4
42797.5
42669.5
42541.4
42413.4
42285.2
42157
42028.8
41900.6
41772.4
41644.2
41516.1
41388.1
41260.1
41132.2
41004.4
40876.6
40748.8
40621
40493.2
40365.3
40237.4
40109.4
39981.2
39853.1
39724.8
39596.6
39468.4
39340.2
39212.1
39084.2
38956.2
38828.4
38700.5
38572.6
38444.7
38316.6
38188.5
38060.4
37932.3
37804.3
37676.3
37548.3
37420.4
37292.4
37164.4
37036.4
36908.3
36780.3
36652.4
36524.4
36396.8
36268.7
36141.2
36012.9
35885.6
35757.1
35629.6
35500.9
47543.5
47466.9
47389.4
47311
47231.8
47151.7
47070.8
46989.2
46906.9
46824
46740.4
46656.2
46571.5
46486.2
46400.5
46314.2
46227.6
46140.5
46053
45965.1
45876.9
45788.4
45699.6
45610.5
45521.2
45431.6
45341.7
45251.7
45161.4
45070.9
44980.3
44889.5
44798.5
44707.4
44616.1
44524.7
44433.1
44341.4
44249.5
44157.5
44065.4
43973.1
43880.7
43788.1
43695.5
43602.7
43509.7
43416.7
43323.5
43230.2
43136.8
43043.3
42949.7
42856
42762.3
42668.5
42574.7
42480.8
42386.9
42293.1
42199.3
42105.5
42011.8
41918.1
41824.5
41730.9
41637.5
41544.1
41450.8
41357.5
41264.3
41171.1
41077.9
40984.8
40891.6
40798.3
40705
40611.7
40518.3
40424.8
40331.3
40237.7
40144.1
40050.5
39956.9
39863.4
39769.9
39676.4
39583.1
39489.8
39396.6
39303.4
39210.3
39117.1
39024
38930.7
38837.4
38744
38650.5
38556.9
38463.3
38369.7
38276.1
38182.5
38089.1
37995.7
37902.4
37809.2
37715.9
37622.7
37529.3
37435.9
37342.4
37248.9
37155.5
37062
36968.7
36875.3
36782
36688.6
36595.2
36501.8
36408.4
36314.9
36221.6
36128.2
36035.2
35941.7
35848.8
35755.1
35662.3
35568.4
35475.4
35381.2
42823
42780.8
42737.8
42693.8
42649
42603.4
42557
42509.9
42462.1
42413.7
42364.6
42314.9
42264.7
42213.9
42162.7
42111
42058.9
42006.3
41953.4
41900.1
41846.4
41792.5
41738.2
41683.7
41628.9
41573.9
41518.6
41463.2
41407.5
41351.6
41295.6
41239.4
41183
41126.5
41069.8
41013
40956
40898.9
40841.6
40784.2
40726.7
40669.1
40611.3
40553.3
40495.3
40437.1
40378.8
40320.3
40261.7
40203
40144.3
40085.4
40026.4
39967.3
39908.2
39849
39789.8
39730.5
39671.3
39612.1
39552.8
39493.7
39434.5
39375.5
39316.5
39257.6
39198.8
39140
39081.3
39022.7
38964.1
38905.5
38847
38788.4
38729.9
38671.3
38612.6
38553.9
38495.1
38436.2
38377.3
38318.4
38259.4
38200.4
38141.4
38082.5
38023.6
37964.8
37906.1
37847.4
37788.8
37730.3
37671.8
37613.3
37554.7
37496.1
37437.4
37378.6
37319.7
37260.8
37201.8
37142.7
37083.8
37024.8
36966
36907.3
36848.6
36790
36731.4
36672.7
36614
36555.2
36496.3
36437.5
36378.6
36319.8
36261
36202.3
36143.6
36084.8
36026
35967.2
35908.4
35849.5
35790.9
35732.1
35673.7
35614.8
35556.5
35497.4
35439.1
35379.7
35321.2
35261.4
38102.6
38094.9
38086.3
38076.8
38066.4
38055.3
38043.4
38030.7
38017.4
38003.4
37988.9
37973.7
37958
37941.7
37925
37907.8
37890.2
37872.2
37853.8
37835.1
37816
37796.6
37776.9
37756.9
37736.7
37716.3
37695.6
37674.7
37653.6
37632.4
37610.9
37589.3
37567.5
37545.6
37523.5
37501.3
37478.9
37456.4
37433.8
37411
37388.1
37365.1
37341.9
37318.6
37295.1
37271.5
37247.8
37224
37200
37175.9
37151.7
37127.5
37103.1
37078.6
37054.1
37029.5
37004.9
36980.3
36955.6
36931
36906.4
36881.8
36857.3
36832.9
36808.5
36784.2
36760
36735.9
36711.8
36687.8
36663.9
36640
36616.1
36592.1
36568.2
36544.2
36520.2
36496.1
36471.9
36447.7
36423.4
36399
36374.7
36350.3
36325.9
36301.6
36277.3
36253.2
36229.1
36205
36181.1
36157.2
36133.3
36109.4
36085.5
36061.5
36037.4
36013.2
35988.9
35964.6
35940.2
35915.8
35891.5
35867.2
35842.9
35818.8
35794.8
35770.8
35746.8
35722.8
35698.6
35674.5
35650.2
35626
35601.7
35577.5
35553.4
35529.3
35505.2
35481
35456.9
35432.6
35408.4
35384.2
35360.1
35336
35312.1
35287.8
35264.1
35239.6
35215.9
35191
35167
35141.7
34463.8
34473.8
34482.8
34490.9
34498.2
34504.7
34510.5
34515.5
34519.9
34523.6
34526.7
34529.2
34531.2
34532.7
34533.6
34534.2
34534.3
34534
34533.3
34532.3
34530.9
34529.3
34527.3
34525.1
34522.6
34519.9
34517
34513.9
34510.6
34507.1
34503.4
34499.5
34495.5
34491.4
34487.1
34482.6
34478
34473.3
34468.5
34463.5
34458.3
34453.1
34447.7
34442.1
34436.5
34430.7
34424.7
34418.7
34412.5
34406.2
34399.8
34393.3
34386.7
34380
34373.2
34366.4
34359.6
34352.7
34345.9
34339
34332.2
34325.4
34318.7
34312
34305.5
34299
34292.5
34286.2
34279.9
34273.7
34267.6
34261.5
34255.4
34249.3
34243.1
34236.9
34230.7
34224.4
34218
34211.5
34205
34198.5
34191.9
34185.3
34178.7
34172.1
34165.7
34159.3
34153
34146.7
34140.6
34134.5
34128.4
34122.3
34116.2
34110
34103.7
34097.3
34090.8
34084.3
34077.6
34071
34064.4
34057.9
34051.5
34045.2
34038.9
34032.7
34026.5
34020.3
34014
34007.6
34001.1
33994.6
33988.2
33981.7
33975.4
33969.1
33962.8
33956.4
33950
33943.6
33937.2
33930.7
33924.4
33918
33912
33905.4
33899.5
33892.7
33886.8
33879.6
33873.4
33865.6
31906.4
31917.2
31927.1
31936.1
31944.3
31951.6
31958.3
31964.2
31969.4
31974
31978
31981.4
31984.3
31986.6
31988.5
31989.9
31990.9
31991.5
31991.8
31991.7
31991.2
31990.5
31989.5
31988.2
31986.6
31984.9
31982.9
31980.7
31978.3
31975.7
31973
31970.1
31967
31963.8
31960.4
31956.9
31953.3
31949.5
31945.6
31941.6
31937.4
31933.1
31928.7
31924.1
31919.4
31914.5
31909.5
31904.4
31899.2
31893.8
31888.4
31882.8
31877.2
31871.4
31865.6
31859.7
31853.8
31847.9
31842
31836.1
31830.2
31824.4
31818.6
31812.9
31807.3
31801.7
31796.3
31790.9
31785.6
31780.4
31775.2
31770.1
31764.9
31759.8
31754.6
31749.4
31744.1
31738.8
31733.4
31727.9
31722.3
31716.7
31711
31705.4
31699.7
31694.1
31688.6
31683.2
31677.8
31672.6
31667.4
31662.2
31657.1
31652
31646.9
31641.6
31636.3
31630.9
31625.3
31619.7
31614.1
31608.4
31602.7
31597.2
31591.7
31586.3
31581.1
31575.8
31570.6
31565.3
31560
31554.5
31549
31543.5
31538
31532.5
31527.1
31521.8
31516.4
31511
31505.6
31500.1
31494.6
31489.1
31483.8
31478.4
31473.3
31467.7
31462.7
31456.9
31452
31445.7
31440.5
31433.7
29349.1
29360.7
29371.4
29381.3
29390.3
29398.6
29406.1
29412.9
29419
29424.4
29429.3
29433.6
29437.4
29440.6
29443.4
29445.7
29447.6
29449.1
29450.3
29451.1
29451.6
29451.7
29451.6
29451.3
29450.7
29449.8
29448.8
29447.5
29446
29444.4
29442.6
29440.6
29438.5
29436.2
29433.8
29431.3
29428.6
29425.8
29422.8
29419.8
29416.5
29413.2
29409.7
29406.1
29402.3
29398.4
29394.4
29390.2
29385.9
29381.5
29377
29372.4
29367.6
29362.8
29358
29353.1
29348.1
29343.1
29338.1
29333.2
29328.3
29323.4
29318.5
29313.8
29309.1
29304.5
29300
29295.6
29291.3
29287.1
29282.9
29278.7
29274.5
29270.4
29266.2
29261.9
29257.6
29253.2
29248.7
29244.2
29239.6
29234.9
29230.2
29225.5
29220.8
29216.1
29211.6
29207.1
29202.7
29198.4
29194.2
29190
29185.9
29181.7
29177.6
29173.3
29168.9
29164.5
29159.9
29155.2
29150.5
29145.7
29141
29136.4
29131.9
29127.5
29123.2
29119
29114.7
29110.4
29106
29101.5
29096.9
29092.3
29087.8
29083.3
29078.9
29074.5
29070.1
29065.7
29061.2
29056.7
29052.1
29047.6
29043.2
29038.7
29034.6
29030
29026
29021.1
29017.2
29011.9
29007.7
29001.8
26791.8
26804.3
26815.9
26826.6
26836.5
26845.6
26854
26861.6
26868.6
26874.9
26880.7
26885.9
26890.5
26894.6
26898.3
26901.5
26904.3
26906.8
26908.8
26910.5
26911.9
26913
26913.8
26914.4
26914.7
26914.8
26914.6
26914.3
26913.8
26913.1
26912.2
26911.2
26910
26908.7
26907.2
26905.6
26903.9
26902
26900
26897.9
26895.6
26893.2
26890.7
26888
26885.2
26882.3
26879.2
26876
26872.6
26869.2
26865.6
26861.9
26858.1
26854.3
26850.4
26846.4
26842.4
26838.3
26834.3
26830.3
26826.3
26822.3
26818.5
26814.7
26810.9
26807.3
26803.8
26800.3
26797
26793.7
26790.5
26787.3
26784.1
26780.9
26777.7
26774.4
26771.1
26767.6
26764.1
26760.5
26756.8
26753.1
26749.3
26745.6
26741.8
26738.1
26734.5
26731
26727.5
26724.2
26721
26717.8
26714.6
26711.5
26708.3
26705
26701.6
26698
26694.4
26690.7
26686.9
26683.1
26679.3
26675.6
26672.1
26668.7
26665.3
26662.1
26658.8
26655.5
26652
26648.5
26644.9
26641.2
26637.6
26634
26630.6
26627.2
26623.8
26620.3
26616.8
26613.2
26609.6
26606
26602.6
26599.1
26596
26592.3
26589.3
26585.3
26582.4
26578.1
26574.9
26569.8
24234.6
24247.9
24260.3
24271.9
24282.7
24292.6
24301.9
24310.4
24318.2
24325.5
24332.1
24338.2
24343.7
24348.7
24353.3
24357.4
24361.1
24364.4
24367.4
24370
24372.3
24374.3
24376
24377.5
24378.7
24379.7
24380.5
24381.1
24381.5
24381.8
24381.9
24381.8
24381.5
24381.2
24380.6
24380
24379.2
24378.3
24377.2
24376.1
24374.8
24373.3
24371.7
24370
24368.1
24366.1
24364
24361.7
24359.3
24356.8
24354.2
24351.5
24348.6
24345.7
24342.7
24339.7
24336.6
24333.5
24330.4
24327.3
24324.3
24321.3
24318.4
24315.5
24312.8
24310.1
24307.5
24305.1
24302.7
24300.4
24298.1
24295.9
24293.7
24291.5
24289.2
24286.9
24284.5
24282.1
24279.5
24276.8
24274.1
24271.3
24268.5
24265.7
24262.9
24260.1
24257.4
24254.8
24252.4
24250
24247.8
24245.6
24243.4
24241.2
24239
24236.6
24234.2
24231.6
24228.9
24226.2
24223.3
24220.4
24217.6
24214.9
24212.3
24209.8
24207.5
24205.2
24202.9
24200.6
24198.1
24195.5
24192.8
24190.1
24187.4
24184.8
24182.3
24179.9
24177.5
24175
24172.4
24169.7
24167.1
24164.4
24162
24159.5
24157.3
24154.6
24152.5
24149.6
24147.6
24144.2
24142.1
24138
21677.4
21691.6
21704.9
21717.3
21728.9
21739.7
21749.8
21759.2
21767.9
21776
21783.5
21790.5
21796.9
21802.8
21808.2
21813.3
21817.9
21822.1
21825.9
21829.5
21832.7
21835.6
21838.2
21840.6
21842.8
21844.7
21846.5
21848
21849.3
21850.5
21851.5
21852.4
21853.1
21853.6
21854.1
21854.4
21854.5
21854.6
21854.5
21854.3
21853.9
21853.4
21852.8
21852
21851.1
21850
21848.8
21847.5
21846.1
21844.5
21842.8
21841
21839.1
21837.2
21835.1
21833
21830.9
21828.7
21826.6
21824.4
21822.3
21820.3
21818.3
21816.4
21814.6
21812.9
21811.3
21809.7
21808.3
21807
21805.7
21804.5
21803.3
21802
21800.7
21799.4
21798
21796.5
21794.9
21793.2
21791.4
21789.5
21787.7
21785.8
21783.9
21782.1
21780.3
21778.7
21777.2
21775.8
21774.5
21773.3
21772.1
21770.9
21769.7
21768.3
21766.9
21765.2
21763.5
21761.6
21759.7
21757.8
21755.9
21754.1
21752.4
21751
21749.6
21748.3
21747
21745.6
21744.1
21742.5
21740.7
21738.9
21737.2
21735.6
21734
21732.6
21731.1
21729.6
21728
21726.3
21724.6
21722.9
21721.4
21719.8
21718.6
21716.9
21715.8
21713.8
21712.8
21710.4
21709.4
21706.1
19120.3
19135.3
19149.5
19162.8
19175.2
19186.9
19197.8
19208.1
19217.7
19226.7
19235
19242.8
19250.1
19256.9
19263.3
19269.2
19274.7
19279.8
19284.5
19289
19293.1
19296.9
19300.5
19303.8
19306.9
19309.7
19312.4
19314.8
19317.1
19319.2
19321.2
19323
19324.6
19326.1
19327.5
19328.7
19329.8
19330.8
19331.7
19332.4
19333
19333.5
19333.8
19334
19334
19333.9
19333.7
19333.3
19332.8
19332.2
19331.5
19330.6
19329.7
19328.6
19327.5
19326.3
19325.1
19323.9
19322.7
19321.5
19320.3
19319.2
19318.2
19317.2
19316.4
19315.6
19315
19314.4
19314
19313.6
19313.3
19313.1
19312.8
19312.6
19312.3
19311.9
19311.5
19310.9
19310.3
19309.5
19308.7
19307.8
19306.8
19305.8
19304.9
19304
19303.3
19302.6
19302.1
19301.6
19301.3
19301.1
19300.9
19300.7
19300.4
19300
19299.5
19298.9
19298.1
19297.1
19296.1
19295.1
19294.1
19293.3
19292.6
19292.1
19291.7
19291.4
19291.1
19290.7
19290.2
19289.5
19288.6
19287.8
19287
19286.3
19285.8
19285.3
19284.8
19284.3
19283.6
19282.8
19282
19281.3
19280.8
19280.2
19280
19279.2
19279.1
19278
19278.1
19276.6
19276.7
19274.2
16432.9
16448.3
16462.8
16476.5
16489.3
16501.3
16512.7
16523.3
16533.3
16542.6
16551.4
16559.6
16567.3
16574.4
16581.2
16587.5
16593.4
16598.9
16604.1
16608.9
16613.5
16617.8
16621.8
16625.5
16629
16632.3
16635.4
16638.3
16641
16643.6
16646
16648.3
16650.4
16652.3
16654.2
16655.9
16657.5
16658.9
16660.3
16661.5
16662.5
16663.5
16664.3
16664.9
16665.4
16665.8
16666
16666.1
16666.1
16665.9
16665.7
16665.3
16664.8
16664.2
16663.6
16662.8
16662.1
16661.3
16660.6
16659.8
16659.1
16658.5
16657.9
16657.4
16657
16656.8
16656.6
16656.5
16656.6
16656.7
16656.9
16657.2
16657.4
16657.7
16657.9
16658
16658.1
16658
16657.8
16657.5
16657.2
16656.7
16656.2
16655.7
16655.2
16654.8
16654.5
16654.3
16654.2
16654.3
16654.5
16654.8
16655.1
16655.4
16655.6
16655.7
16655.7
16655.5
16655.2
16654.7
16654.1
16653.6
16653
16652.7
16652.4
16652.4
16652.6
16652.8
16653
16653.1
16653.1
16652.8
16652.4
16652
16651.7
16651.5
16651.4
16651.5
16651.5
16651.4
16651.2
16650.9
16650.6
16650.3
16650.3
16650.1
16650.5
16650.2
16650.6
16650
16650.6
16649.6
16650.4
16648.2
13615.3
13630.6
13644.9
13658.4
13671.1
13683.1
13694.3
13704.8
13714.7
13723.9
13732.6
13740.7
13748.3
13755.4
13762
13768.3
13774.1
13779.5
13784.6
13789.4
13793.9
13798.1
13802.1
13805.8
13809.2
13812.5
13815.6
13818.4
13821.1
13823.7
13826
13828.3
13830.4
13832.3
13834.1
13835.8
13837.4
13838.9
13840.2
13841.4
13842.4
13843.4
13844.1
13844.8
13845.3
13845.7
13845.9
13846
13845.9
13845.8
13845.5
13845.1
13844.5
13843.9
13843.3
13842.5
13841.8
13841
13840.2
13839.4
13838.7
13838
13837.4
13836.9
13836.5
13836.3
13836.1
13836.1
13836.1
13836.3
13836.5
13836.8
13837.1
13837.4
13837.6
13837.7
13837.8
13837.7
13837.5
13837.2
13836.8
13836.4
13835.8
13835.3
13834.8
13834.3
13834
13833.8
13833.7
13833.8
13834.1
13834.4
13834.7
13835.1
13835.3
13835.5
13835.5
13835.3
13834.9
13834.4
13833.8
13833.1
13832.6
13832.2
13832
13832
13832.1
13832.4
13832.7
13832.9
13832.8
13832.5
13832.1
13831.6
13831.2
13831
13831
13831.1
13831.2
13831.1
13830.9
13830.5
13830.2
13829.8
13829.8
13829.7
13830.1
13829.9
13830.3
13829.6
13830.3
13829.4
13830.5
13828
10797.7
10812.8
10827.1
10840.4
10853
10864.8
10875.9
10886.3
10896.1
10905.2
10913.8
10921.8
10929.3
10936.3
10942.9
10949
10954.8
10960.2
10965.2
10969.9
10974.4
10978.5
10982.4
10986.1
10989.5
10992.7
10995.7
10998.6
11001.2
11003.7
11006.1
11008.3
11010.4
11012.3
11014.1
11015.8
11017.3
11018.8
11020.1
11021.3
11022.3
11023.3
11024
11024.7
11025.2
11025.6
11025.8
11025.9
11025.8
11025.6
11025.3
11024.9
11024.3
11023.7
11023
11022.2
11021.4
11020.6
11019.8
11019
11018.2
11017.5
11016.9
11016.4
11016
11015.7
11015.6
11015.6
11015.6
11015.8
11016.1
11016.4
11016.7
11017
11017.3
11017.4
11017.5
11017.5
11017.3
11017
11016.5
11016
11015.5
11014.9
11014.3
11013.9
11013.5
11013.3
11013.3
11013.4
11013.6
11014
11014.4
11014.7
11015
11015.2
11015.2
11015
11014.6
11014.1
11013.4
11012.7
11012.1
11011.7
11011.4
11011.5
11011.7
11012.1
11012.4
11012.6
11012.5
11012.2
11011.7
11011.2
11010.8
11010.6
11010.6
11010.7
11010.8
11010.8
11010.6
11010.2
11009.7
11009.4
11009.4
11009.3
11009.8
11009.5
11009.9
11009.2
11010
11009
11010.7
11007.7
7980.28
7995.26
8009.35
8022.6
8035.05
8046.73
8057.7
8067.98
8077.62
8086.65
8095.1
8103.01
8110.42
8117.34
8123.82
8129.88
8135.55
8140.86
8145.83
8150.49
8154.85
8158.94
8162.78
8166.38
8169.76
8172.94
8175.92
8178.72
8181.34
8183.8
8186.12
8188.31
8190.36
8192.29
8194.1
8195.77
8197.3
8198.77
8200.07
8201.24
8202.29
8203.21
8203.99
8204.65
8205.13
8205.47
8205.67
8205.74
8205.66
8205.45
8205.11
8204.66
8204.09
8203.44
8202.7
8201.91
8201.07
8200.22
8199.36
8198.53
8197.76
8197.04
8196.42
8195.9
8195.5
8195.21
8195.03
8195.05
8195.16
8195.37
8195.66
8196
8196.36
8196.69
8196.97
8197.17
8197.25
8197.2
8197.01
8196.69
8196.24
8195.69
8195.09
8194.47
8193.89
8193.39
8193.01
8192.79
8192.73
8192.87
8193.15
8193.54
8193.99
8194.43
8194.78
8194.98
8195
8194.79
8194.37
8193.77
8193.04
8192.29
8191.63
8191.14
8190.91
8190.97
8191.27
8191.71
8192.12
8192.33
8192.27
8191.91
8191.35
8190.75
8190.29
8190.07
8190.12
8190.33
8190.52
8190.53
8190.27
8189.79
8189.29
8188.88
8188.92
8188.9
8189.42
8189.16
8189.62
8188.88
8189.77
8188.86
8190.93
8187.83
5162.72
5177.56
5191.52
5204.64
5216.97
5228.53
5239.38
5249.55
5259.08
5268
5276.35
5284.17
5291.48
5298.31
5304.71
5310.69
5316.28
5321.51
5326.41
5331
5335.3
5339.33
5343.12
5346.67
5350.01
5353.15
5356.09
5358.85
5361.44
5363.88
5366.17
5368.34
5370.37
5372.29
5374.08
5375.75
5377.23
5378.67
5379.98
5381.16
5382.2
5383.11
5383.87
5384.46
5385.04
5385.37
5385.57
5385.61
5385.52
5385.29
5384.94
5384.46
5383.87
5383.19
5382.42
5381.6
5380.73
5379.84
5378.95
5378.1
5377.29
5376.56
5375.91
5375.38
5374.97
5374.7
5374.55
5374.54
5374.67
5374.91
5375.23
5375.6
5376
5376.37
5376.68
5376.9
5376.99
5376.96
5376.76
5376.42
5375.94
5375.36
5374.72
5374.05
5373.43
5372.9
5372.51
5372.28
5372.22
5372.37
5372.69
5373.13
5373.64
5374.12
5374.52
5374.75
5374.79
5374.57
5374.12
5373.46
5372.67
5371.85
5371.13
5370.6
5370.37
5370.45
5370.82
5371.35
5371.84
5372.09
5372.04
5371.64
5371
5370.32
5369.81
5369.6
5369.68
5369.97
5370.23
5370.27
5369.97
5369.42
5368.85
5368.41
5368.45
5368.48
5369.09
5368.84
5369.31
5368.5
5369.49
5368.49
5371.37
5367.29
2380.24
2392.25
2403.56
2414.19
2424.17
2433.55
2442.34
2450.58
2458.3
2465.53
2472.3
2478.63
2484.55
2490.09
2495.27
2500.11
2504.64
2508.89
2512.87
2516.6
2520.1
2523.4
2526.52
2529.46
2532.26
2534.92
2537.46
2539.89
2542.22
2544.45
2546.59
2548.65
2550.62
2552.5
2554.27
2555.94
2557.48
2558.89
2560.2
2561.38
2562.42
2563.34
2564.11
2564.75
2565.26
2565.6
2565.79
2565.85
2565.78
2565.58
2565.26
2564.83
2564.3
2563.69
2563.01
2562.28
2561.51
2560.73
2559.95
2559.2
2558.5
2557.86
2557.3
2556.84
2556.49
2556.25
2556.12
2556.16
2556.33
2556.6
2556.97
2557.4
2557.84
2558.26
2558.6
2558.85
2558.96
2558.93
2558.76
2558.45
2558.02
2557.51
2556.93
2556.34
2555.79
2555.32
2554.97
2554.76
2554.72
2554.9
2555.25
2555.75
2556.31
2556.86
2557.3
2557.57
2557.62
2557.44
2557.05
2556.47
2555.76
2555.02
2554.38
2553.92
2553.73
2553.85
2554.3
2554.94
2555.52
2555.84
2555.81
2555.42
2554.81
2554.14
2553.64
2553.41
2553.48
2553.8
2554.06
2554.06
2553.68
2553.04
2552.31
2551.77
2551.54
2551.58
2551.74
2551.56
2551.18
2550.53
2550.45
2550.15
2552.08
2548.18
502.448
507.088
511.455
515.562
519.421
523.043
526.441
529.626
532.609
535.401
538.014
540.457
542.742
544.879
546.876
548.745
550.494
552.134
553.674
555.124
556.495
557.798
559.046
560.251
561.428
562.586
563.734
564.875
566.012
567.146
568.275
569.39
570.483
571.545
572.564
573.532
574.442
575.281
576.049
576.743
577.362
577.902
578.361
578.735
579.023
579.231
579.36
579.415
579.398
579.316
579.176
578.983
578.745
578.469
578.165
577.839
577.499
577.156
576.816
576.491
576.187
575.912
575.675
575.481
575.336
575.242
575.203
575.239
575.358
575.547
575.79
576.065
576.351
576.62
576.847
577.009
577.086
577.068
576.986
576.849
576.663
576.437
576.187
575.933
575.693
575.489
575.337
575.252
575.245
575.354
575.582
575.898
576.257
576.607
576.895
577.072
577.111
577.047
576.887
576.643
576.343
576.032
575.757
575.568
575.504
575.606
575.924
576.362
576.767
576.99
576.975