/*--------------------------------*- C++ -*----------------------------------*\
| =========                 |                                                 |
| \\      /  F ield         | OpenFOAM: The Open Source CFD Toolbox           |
|  \\    /   O peration     | Version:  v1912                                 |
|   \\  /    A nd           | Website:  www.openfoam.com                      |
|    \\/     M anipulation  |                                                 |
\*---------------------------------------------------------------------------*/
FoamFile
{
    version     2.0;
    format      ascii;
    class       volSymmTensorField;
    location    "20";
    object      R;
}
// * * * * * * * * * * * * * * * * * * * * * * * * * * * * * * * * * * * * * //

dimensions      [0 2 -2 0 0 0 0];


internalField   nonuniform List<symmTensor> 
14268
(
(7.69539e-07 -1.26857e-07 0 7.70951e-07 0 7.70252e-07)
(7.6947e-07 -1.26808e-07 0 7.70788e-07 0 7.70135e-07)
(7.6939e-07 -1.26758e-07 0 7.7062e-07 0 7.70011e-07)
(7.69299e-07 -1.26706e-07 0 7.70446e-07 0 7.69878e-07)
(7.69199e-07 -1.26652e-07 0 7.70267e-07 0 7.69737e-07)
(7.69089e-07 -1.26597e-07 0 7.70081e-07 0 7.69589e-07)
(7.68969e-07 -1.2654e-07 0 7.6989e-07 0 7.69433e-07)
(7.6884e-07 -1.26481e-07 0 7.69694e-07 0 7.6927e-07)
(7.68702e-07 -1.26421e-07 0 7.69492e-07 0 7.691e-07)
(7.68555e-07 -1.26359e-07 0 7.69284e-07 0 7.68922e-07)
(7.68399e-07 -1.26296e-07 0 7.6907e-07 0 7.68737e-07)
(7.68235e-07 -1.26231e-07 0 7.68852e-07 0 7.68545e-07)
(7.68062e-07 -1.26165e-07 0 7.68627e-07 0 7.68346e-07)
(7.67881e-07 -1.26097e-07 0 7.68397e-07 0 7.6814e-07)
(7.67691e-07 -1.26028e-07 0 7.68162e-07 0 7.67927e-07)
(7.67494e-07 -1.25957e-07 0 7.6792e-07 0 7.67707e-07)
(7.67289e-07 -1.25884e-07 0 7.67673e-07 0 7.67481e-07)
(7.67075e-07 -1.2581e-07 0 7.67421e-07 0 7.67248e-07)
(7.66854e-07 -1.25734e-07 0 7.67162e-07 0 7.67008e-07)
(7.66626e-07 -1.25656e-07 0 7.66898e-07 0 7.66761e-07)
(7.6639e-07 -1.25577e-07 0 7.66628e-07 0 7.66508e-07)
(7.66146e-07 -1.25496e-07 0 7.66351e-07 0 7.66247e-07)
(7.65894e-07 -1.25414e-07 0 7.66069e-07 0 7.6598e-07)
(7.65634e-07 -1.25329e-07 0 7.65779e-07 0 7.65705e-07)
(7.65367e-07 -1.25243e-07 0 7.65483e-07 0 7.65423e-07)
(7.6509e-07 -1.25155e-07 0 7.65181e-07 0 7.65133e-07)
(7.64805e-07 -1.25065e-07 0 7.64871e-07 0 7.64836e-07)
(7.64511e-07 -1.24973e-07 0 7.64554e-07 0 7.6453e-07)
(7.64208e-07 -1.24879e-07 0 7.64229e-07 0 7.64216e-07)
(7.63896e-07 -1.24782e-07 0 7.63896e-07 0 7.63894e-07)
(7.63576e-07 -1.24684e-07 0 7.63556e-07 0 7.63563e-07)
(7.63247e-07 -1.24583e-07 0 7.63208e-07 0 7.63224e-07)
(7.62909e-07 -1.2448e-07 0 7.62852e-07 0 7.62878e-07)
(7.62564e-07 -1.24376e-07 0 7.62489e-07 0 7.62523e-07)
(7.6221e-07 -1.24269e-07 0 7.62119e-07 0 7.62161e-07)
(7.61847e-07 -1.2416e-07 0 7.6174e-07 0 7.6179e-07)
(7.61477e-07 -1.24048e-07 0 7.61355e-07 0 7.61412e-07)
(7.61098e-07 -1.23935e-07 0 7.60963e-07 0 7.61026e-07)
(7.6071e-07 -1.23819e-07 0 7.60562e-07 0 7.60632e-07)
(7.60314e-07 -1.23702e-07 0 7.60155e-07 0 7.6023e-07)
(7.59909e-07 -1.23582e-07 0 7.59739e-07 0 7.5982e-07)
(7.59496e-07 -1.23459e-07 0 7.59316e-07 0 7.59401e-07)
(7.59073e-07 -1.23334e-07 0 7.58884e-07 0 7.58974e-07)
(7.5864e-07 -1.23207e-07 0 7.58444e-07 0 7.58538e-07)
(7.58198e-07 -1.23077e-07 0 7.57995e-07 0 7.58092e-07)
(7.57745e-07 -1.22944e-07 0 7.57536e-07 0 7.57636e-07)
(7.57282e-07 -1.22809e-07 0 7.57069e-07 0 7.57171e-07)
(7.56808e-07 -1.2267e-07 0 7.56591e-07 0 7.56695e-07)
(7.56322e-07 -1.22529e-07 0 7.56103e-07 0 7.56208e-07)
(7.55824e-07 -1.22384e-07 0 7.55605e-07 0 7.5571e-07)
(7.55314e-07 -1.22236e-07 0 7.55095e-07 0 7.552e-07)
(7.54791e-07 -1.22085e-07 0 7.54574e-07 0 7.54678e-07)
(7.54255e-07 -1.2193e-07 0 7.54041e-07 0 7.54143e-07)
(7.53705e-07 -1.21772e-07 0 7.53496e-07 0 7.53595e-07)
(7.53141e-07 -1.2161e-07 0 7.52938e-07 0 7.53034e-07)
(7.52562e-07 -1.21444e-07 0 7.52366e-07 0 7.52459e-07)
(7.51969e-07 -1.21275e-07 0 7.51781e-07 0 7.5187e-07)
(7.51361e-07 -1.21101e-07 0 7.51181e-07 0 7.51266e-07)
(7.50738e-07 -1.20923e-07 0 7.50566e-07 0 7.50647e-07)
(7.50099e-07 -1.2074e-07 0 7.49936e-07 0 7.50012e-07)
(7.49445e-07 -1.20553e-07 0 7.49289e-07 0 7.49361e-07)
(7.48774e-07 -1.20361e-07 0 7.48626e-07 0 7.48695e-07)
(7.48087e-07 -1.20165e-07 0 7.47946e-07 0 7.48011e-07)
(7.47383e-07 -1.19963e-07 0 7.47247e-07 0 7.4731e-07)
(7.46662e-07 -1.19757e-07 0 7.4653e-07 0 7.4659e-07)
(7.45923e-07 -1.19545e-07 0 7.45793e-07 0 7.45852e-07)
(7.45165e-07 -1.19327e-07 0 7.45036e-07 0 7.45095e-07)
(7.44388e-07 -1.19104e-07 0 7.44258e-07 0 7.44317e-07)
(7.43589e-07 -1.18875e-07 0 7.43458e-07 0 7.43517e-07)
(7.42769e-07 -1.18639e-07 0 7.42635e-07 0 7.42696e-07)
(7.41925e-07 -1.18397e-07 0 7.41788e-07 0 7.4185e-07)
(7.41056e-07 -1.18148e-07 0 7.40916e-07 0 7.40979e-07)
(7.40161e-07 -1.17891e-07 0 7.40018e-07 0 7.40082e-07)
(7.39239e-07 -1.17627e-07 0 7.39092e-07 0 7.39158e-07)
(7.38287e-07 -1.17355e-07 0 7.38137e-07 0 7.38205e-07)
(7.37306e-07 -1.17074e-07 0 7.37152e-07 0 7.37222e-07)
(7.36291e-07 -1.16784e-07 0 7.36135e-07 0 7.36206e-07)
(7.35241e-07 -1.16485e-07 0 7.35084e-07 0 7.35155e-07)
(7.34155e-07 -1.16176e-07 0 7.33997e-07 0 7.34068e-07)
(7.33031e-07 -1.15857e-07 0 7.32872e-07 0 7.32943e-07)
(7.31865e-07 -1.15526e-07 0 7.31708e-07 0 7.31779e-07)
(7.30658e-07 -1.15185e-07 0 7.30503e-07 0 7.30572e-07)
(7.29406e-07 -1.14831e-07 0 7.29256e-07 0 7.29323e-07)
(7.28108e-07 -1.14465e-07 0 7.27963e-07 0 7.28027e-07)
(7.26762e-07 -1.14086e-07 0 7.26623e-07 0 7.26683e-07)
(7.25366e-07 -1.13693e-07 0 7.25231e-07 0 7.2529e-07)
(7.23917e-07 -1.13285e-07 0 7.23787e-07 0 7.23843e-07)
(7.22414e-07 -1.12863e-07 0 7.22285e-07 0 7.2234e-07)
(7.20852e-07 -1.12424e-07 0 7.20724e-07 0 7.20779e-07)
(7.19227e-07 -1.11968e-07 0 7.19099e-07 0 7.19154e-07)
(7.17536e-07 -1.11494e-07 0 7.17406e-07 0 7.17461e-07)
(7.15774e-07 -1.11001e-07 0 7.1564e-07 0 7.15697e-07)
(7.13934e-07 -1.10486e-07 0 7.13797e-07 0 7.13855e-07)
(7.1201e-07 -1.0995e-07 0 7.11871e-07 0 7.1193e-07)
(7.09997e-07 -1.0939e-07 0 7.09855e-07 0 7.09915e-07)
(7.07887e-07 -1.08803e-07 0 7.07743e-07 0 7.07803e-07)
(7.05672e-07 -1.0819e-07 0 7.05527e-07 0 7.05588e-07)
(7.03343e-07 -1.07546e-07 0 7.03201e-07 0 7.0326e-07)
(7.00891e-07 -1.06871e-07 0 7.00755e-07 0 7.00811e-07)
(6.98307e-07 -1.06161e-07 0 6.98181e-07 0 6.98231e-07)
(6.95581e-07 -1.05415e-07 0 6.95469e-07 0 6.95512e-07)
(6.92703e-07 -1.04629e-07 0 6.92605e-07 0 6.92641e-07)
(6.8966e-07 -1.03802e-07 0 6.89578e-07 0 6.89605e-07)
(6.8644e-07 -1.02928e-07 0 6.86371e-07 0 6.86392e-07)
(6.83027e-07 -1.02004e-07 0 6.82969e-07 0 6.82983e-07)
(6.79401e-07 -1.01024e-07 0 6.79351e-07 0 6.79361e-07)
(6.7554e-07 -9.99856e-08 0 6.75497e-07 0 6.75503e-07)
(6.71419e-07 -9.88811e-08 0 6.71382e-07 0 6.71385e-07)
(6.67008e-07 -9.77033e-08 0 6.66976e-07 0 6.66976e-07)
(6.62271e-07 -9.64451e-08 0 6.62248e-07 0 6.62243e-07)
(6.57171e-07 -9.50964e-08 0 6.57157e-07 0 6.57147e-07)
(6.51661e-07 -9.36476e-08 0 6.51661e-07 0 6.51644e-07)
(6.45693e-07 -9.20874e-08 0 6.45708e-07 0 6.45683e-07)
(6.39206e-07 -9.04022e-08 0 6.39238e-07 0 6.39204e-07)
(6.32131e-07 -8.85778e-08 0 6.32176e-07 0 6.32136e-07)
(6.24382e-07 -8.65919e-08 0 6.24437e-07 0 6.24391e-07)
(6.15858e-07 -8.443e-08 0 6.15915e-07 0 6.15869e-07)
(6.06426e-07 -8.20559e-08 0 6.06483e-07 0 6.06436e-07)
(5.95934e-07 -7.945e-08 0 5.95982e-07 0 5.95941e-07)
(5.84178e-07 -7.65588e-08 0 5.8422e-07 0 5.84181e-07)
(5.70921e-07 -7.33565e-08 0 5.70955e-07 0 5.70923e-07)
(5.55846e-07 -6.97777e-08 0 5.55885e-07 0 5.55851e-07)
(5.38597e-07 -6.57776e-08 0 5.38625e-07 0 5.38596e-07)
(5.18595e-07 -6.12759e-08 0 5.18665e-07 0 5.18622e-07)
(4.95342e-07 -5.61853e-08 0 4.95382e-07 0 4.95341e-07)
(4.6772e-07 -5.04194e-08 0 4.67869e-07 0 4.67798e-07)
(4.35003e-07 -4.38966e-08 0 4.35164e-07 0 4.35053e-07)
(3.95321e-07 -3.6571e-08 0 3.95698e-07 0 3.95525e-07)
(3.4742e-07 -2.84963e-08 0 3.48153e-07 0 3.47749e-07)
(2.89473e-07 -1.99589e-08 0 2.90478e-07 0 2.89994e-07)
(2.20584e-07 -1.16617e-08 0 2.22576e-07 0 2.21548e-07)
(1.44411e-07 -4.82853e-09 0 1.46088e-07 0 1.45252e-07)
(7.08272e-08 -9.8144e-10 0 7.24225e-08 0 7.16166e-08)
(2.0898e-08 -6.39499e-11 0 2.13985e-08 0 2.11475e-08)
(1.45569e-07 -6.39804e-09 0 1.4602e-07 0 1.45794e-07)
(1.45589e-07 -6.39627e-09 0 1.46009e-07 0 1.45798e-07)
(1.45607e-07 -6.39463e-09 0 1.45999e-07 0 1.45802e-07)
(1.45625e-07 -6.39311e-09 0 1.45989e-07 0 1.45806e-07)
(1.45643e-07 -6.3917e-09 0 1.4598e-07 0 1.4581e-07)
(1.45659e-07 -6.39041e-09 0 1.45972e-07 0 1.45814e-07)
(1.45675e-07 -6.38922e-09 0 1.45964e-07 0 1.45819e-07)
(1.45691e-07 -6.38813e-09 0 1.45958e-07 0 1.45823e-07)
(1.45706e-07 -6.38715e-09 0 1.45952e-07 0 1.45828e-07)
(1.4572e-07 -6.38626e-09 0 1.45946e-07 0 1.45832e-07)
(1.45734e-07 -6.38546e-09 0 1.45941e-07 0 1.45837e-07)
(1.45747e-07 -6.38476e-09 0 1.45937e-07 0 1.45841e-07)
(1.4576e-07 -6.38414e-09 0 1.45934e-07 0 1.45846e-07)
(1.45773e-07 -6.38361e-09 0 1.45931e-07 0 1.45851e-07)
(1.45785e-07 -6.38316e-09 0 1.45928e-07 0 1.45856e-07)
(1.45797e-07 -6.38279e-09 0 1.45926e-07 0 1.45861e-07)
(1.45809e-07 -6.3825e-09 0 1.45925e-07 0 1.45866e-07)
(1.4582e-07 -6.38229e-09 0 1.45924e-07 0 1.45871e-07)
(1.45832e-07 -6.38216e-09 0 1.45923e-07 0 1.45876e-07)
(1.45843e-07 -6.38212e-09 0 1.45923e-07 0 1.45882e-07)
(1.45854e-07 -6.38217e-09 0 1.45924e-07 0 1.45888e-07)
(1.45865e-07 -6.38233e-09 0 1.45925e-07 0 1.45894e-07)
(1.45877e-07 -6.38263e-09 0 1.45927e-07 0 1.45901e-07)
(1.45889e-07 -6.38307e-09 0 1.4593e-07 0 1.45909e-07)
(1.45902e-07 -6.38371e-09 0 1.45935e-07 0 1.45917e-07)
(1.45915e-07 -6.38457e-09 0 1.4594e-07 0 1.45926e-07)
(1.4593e-07 -6.38568e-09 0 1.45947e-07 0 1.45937e-07)
(1.45945e-07 -6.38704e-09 0 1.45955e-07 0 1.45949e-07)
(1.45962e-07 -6.38868e-09 0 1.45965e-07 0 1.45963e-07)
(1.45981e-07 -6.39056e-09 0 1.45976e-07 0 1.45977e-07)
(1.46e-07 -6.39265e-09 0 1.45989e-07 0 1.45993e-07)
(1.46019e-07 -6.39493e-09 0 1.46003e-07 0 1.4601e-07)
(1.4604e-07 -6.39735e-09 0 1.46017e-07 0 1.46027e-07)
(1.46061e-07 -6.39986e-09 0 1.46032e-07 0 1.46045e-07)
(1.46081e-07 -6.40243e-09 0 1.46048e-07 0 1.46064e-07)
(1.46102e-07 -6.40501e-09 0 1.46064e-07 0 1.46082e-07)
(1.46122e-07 -6.40755e-09 0 1.46079e-07 0 1.461e-07)
(1.46142e-07 -6.41003e-09 0 1.46095e-07 0 1.46117e-07)
(1.46161e-07 -6.41242e-09 0 1.4611e-07 0 1.46135e-07)
(1.4618e-07 -6.41469e-09 0 1.46124e-07 0 1.46151e-07)
(1.46197e-07 -6.41683e-09 0 1.46138e-07 0 1.46167e-07)
(1.46214e-07 -6.41884e-09 0 1.46152e-07 0 1.46182e-07)
(1.4623e-07 -6.4207e-09 0 1.46165e-07 0 1.46196e-07)
(1.46245e-07 -6.42242e-09 0 1.46177e-07 0 1.4621e-07)
(1.46259e-07 -6.42401e-09 0 1.46189e-07 0 1.46223e-07)
(1.46272e-07 -6.42547e-09 0 1.462e-07 0 1.46235e-07)
(1.46284e-07 -6.42682e-09 0 1.46211e-07 0 1.46247e-07)
(1.46295e-07 -6.42808e-09 0 1.46222e-07 0 1.46258e-07)
(1.46306e-07 -6.42927e-09 0 1.46232e-07 0 1.46268e-07)
(1.46317e-07 -6.43041e-09 0 1.46242e-07 0 1.46278e-07)
(1.46327e-07 -6.43152e-09 0 1.46252e-07 0 1.46288e-07)
(1.46336e-07 -6.43262e-09 0 1.46262e-07 0 1.46298e-07)
(1.46346e-07 -6.43373e-09 0 1.46273e-07 0 1.46308e-07)
(1.46355e-07 -6.43487e-09 0 1.46283e-07 0 1.46318e-07)
(1.46365e-07 -6.43604e-09 0 1.46294e-07 0 1.46329e-07)
(1.46375e-07 -6.43727e-09 0 1.46305e-07 0 1.46339e-07)
(1.46385e-07 -6.43856e-09 0 1.46317e-07 0 1.4635e-07)
(1.46395e-07 -6.43992e-09 0 1.46329e-07 0 1.46361e-07)
(1.46406e-07 -6.44135e-09 0 1.46342e-07 0 1.46373e-07)
(1.46417e-07 -6.44286e-09 0 1.46355e-07 0 1.46385e-07)
(1.46429e-07 -6.44444e-09 0 1.46368e-07 0 1.46398e-07)
(1.46441e-07 -6.44607e-09 0 1.46382e-07 0 1.46411e-07)
(1.46454e-07 -6.44776e-09 0 1.46396e-07 0 1.46424e-07)
(1.46467e-07 -6.44952e-09 0 1.4641e-07 0 1.46438e-07)
(1.46481e-07 -6.45133e-09 0 1.46425e-07 0 1.46453e-07)
(1.46496e-07 -6.45318e-09 0 1.4644e-07 0 1.46467e-07)
(1.46511e-07 -6.45508e-09 0 1.46456e-07 0 1.46483e-07)
(1.46527e-07 -6.45704e-09 0 1.46472e-07 0 1.46499e-07)
(1.46544e-07 -6.45901e-09 0 1.46488e-07 0 1.46515e-07)
(1.46562e-07 -6.46104e-09 0 1.46504e-07 0 1.46532e-07)
(1.4658e-07 -6.46318e-09 0 1.46522e-07 0 1.4655e-07)
(1.466e-07 -6.46541e-09 0 1.4654e-07 0 1.46569e-07)
(1.4662e-07 -6.4677e-09 0 1.46558e-07 0 1.46588e-07)
(1.4664e-07 -6.47e-09 0 1.46577e-07 0 1.46608e-07)
(1.4666e-07 -6.47225e-09 0 1.46596e-07 0 1.46628e-07)
(1.46681e-07 -6.47449e-09 0 1.46616e-07 0 1.46648e-07)
(1.46702e-07 -6.47685e-09 0 1.46636e-07 0 1.46669e-07)
(1.46724e-07 -6.4793e-09 0 1.46657e-07 0 1.4669e-07)
(1.46747e-07 -6.48192e-09 0 1.4668e-07 0 1.46713e-07)
(1.4677e-07 -6.48471e-09 0 1.46703e-07 0 1.46736e-07)
(1.46794e-07 -6.48758e-09 0 1.46728e-07 0 1.4676e-07)
(1.46819e-07 -6.49056e-09 0 1.46753e-07 0 1.46786e-07)
(1.46844e-07 -6.49368e-09 0 1.4678e-07 0 1.46812e-07)
(1.46871e-07 -6.49693e-09 0 1.46807e-07 0 1.46839e-07)
(1.46898e-07 -6.50033e-09 0 1.46836e-07 0 1.46867e-07)
(1.46927e-07 -6.50383e-09 0 1.46866e-07 0 1.46896e-07)
(1.46957e-07 -6.50742e-09 0 1.46896e-07 0 1.46926e-07)
(1.46988e-07 -6.51116e-09 0 1.46928e-07 0 1.46958e-07)
(1.47021e-07 -6.51503e-09 0 1.4696e-07 0 1.46991e-07)
(1.47056e-07 -6.51906e-09 0 1.46994e-07 0 1.47025e-07)
(1.47092e-07 -6.52319e-09 0 1.47029e-07 0 1.4706e-07)
(1.4713e-07 -6.52738e-09 0 1.47065e-07 0 1.47097e-07)
(1.47169e-07 -6.53174e-09 0 1.47102e-07 0 1.47136e-07)
(1.47211e-07 -6.53626e-09 0 1.47142e-07 0 1.47177e-07)
(1.47254e-07 -6.54097e-09 0 1.47183e-07 0 1.47219e-07)
(1.47299e-07 -6.54592e-09 0 1.47226e-07 0 1.47263e-07)
(1.47346e-07 -6.55109e-09 0 1.47272e-07 0 1.47309e-07)
(1.47394e-07 -6.55651e-09 0 1.47321e-07 0 1.47358e-07)
(1.47445e-07 -6.5622e-09 0 1.47372e-07 0 1.47409e-07)
(1.47498e-07 -6.56816e-09 0 1.47426e-07 0 1.47462e-07)
(1.47553e-07 -6.57443e-09 0 1.47483e-07 0 1.47519e-07)
(1.47611e-07 -6.58099e-09 0 1.47543e-07 0 1.47578e-07)
(1.47673e-07 -6.58785e-09 0 1.47606e-07 0 1.47641e-07)
(1.47738e-07 -6.59509e-09 0 1.47673e-07 0 1.47707e-07)
(1.47808e-07 -6.60273e-09 0 1.47742e-07 0 1.47776e-07)
(1.47882e-07 -6.61066e-09 0 1.47816e-07 0 1.4785e-07)
(1.4796e-07 -6.61882e-09 0 1.47893e-07 0 1.47928e-07)
(1.48044e-07 -6.62737e-09 0 1.47976e-07 0 1.48012e-07)
(1.48133e-07 -6.63628e-09 0 1.48063e-07 0 1.481e-07)
(1.48228e-07 -6.64568e-09 0 1.48156e-07 0 1.48194e-07)
(1.48328e-07 -6.65557e-09 0 1.48255e-07 0 1.48294e-07)
(1.48435e-07 -6.66594e-09 0 1.48362e-07 0 1.48401e-07)
(1.48549e-07 -6.67681e-09 0 1.48475e-07 0 1.48515e-07)
(1.48671e-07 -6.68819e-09 0 1.48597e-07 0 1.48637e-07)
(1.48802e-07 -6.70011e-09 0 1.48727e-07 0 1.48768e-07)
(1.48944e-07 -6.7124e-09 0 1.48866e-07 0 1.48909e-07)
(1.49096e-07 -6.72504e-09 0 1.49014e-07 0 1.49059e-07)
(1.4926e-07 -6.7381e-09 0 1.49174e-07 0 1.49221e-07)
(1.49437e-07 -6.75139e-09 0 1.49343e-07 0 1.49395e-07)
(1.49627e-07 -6.76476e-09 0 1.49526e-07 0 1.49582e-07)
(1.49829e-07 -6.77787e-09 0 1.49719e-07 0 1.49781e-07)
(1.50045e-07 -6.7904e-09 0 1.49928e-07 0 1.49993e-07)
(1.50277e-07 -6.80146e-09 0 1.50145e-07 0 1.50218e-07)
(1.50508e-07 -6.81103e-09 0 1.50371e-07 0 1.50449e-07)
(1.50767e-07 -6.81629e-09 0 1.50602e-07 0 1.50691e-07)
(1.50975e-07 -6.81694e-09 0 1.50819e-07 0 1.50912e-07)
(1.51212e-07 -6.80784e-09 0 1.5103e-07 0 1.51127e-07)
(1.51281e-07 -6.78516e-09 0 1.5114e-07 0 1.51235e-07)
(1.5124e-07 -6.74217e-09 0 1.51213e-07 0 1.51233e-07)
(1.50757e-07 -6.65858e-09 0 1.50862e-07 0 1.50846e-07)
(1.49381e-07 -6.52988e-09 0 1.50248e-07 0 1.49829e-07)
(1.46563e-07 -6.26884e-09 0 1.47817e-07 0 1.47234e-07)
(1.39555e-07 -5.79318e-09 0 1.42682e-07 0 1.41151e-07)
(1.24171e-07 -4.69147e-09 0 1.27917e-07 0 1.26073e-07)
(1.44985e-07 -6.32225e-09 0 1.45432e-07 0 1.45207e-07)
(1.45e-07 -6.31961e-09 0 1.45416e-07 0 1.45206e-07)
(1.45014e-07 -6.31711e-09 0 1.45402e-07 0 1.45206e-07)
(1.45027e-07 -6.31473e-09 0 1.45388e-07 0 1.45206e-07)
(1.4504e-07 -6.31247e-09 0 1.45375e-07 0 1.45206e-07)
(1.45052e-07 -6.31034e-09 0 1.45362e-07 0 1.45205e-07)
(1.45064e-07 -6.30831e-09 0 1.4535e-07 0 1.45205e-07)
(1.45075e-07 -6.3064e-09 0 1.45339e-07 0 1.45205e-07)
(1.45085e-07 -6.3046e-09 0 1.45329e-07 0 1.45205e-07)
(1.45094e-07 -6.3029e-09 0 1.45319e-07 0 1.45205e-07)
(1.45104e-07 -6.30129e-09 0 1.45309e-07 0 1.45205e-07)
(1.45112e-07 -6.29978e-09 0 1.453e-07 0 1.45205e-07)
(1.4512e-07 -6.29835e-09 0 1.45292e-07 0 1.45204e-07)
(1.45128e-07 -6.29701e-09 0 1.45284e-07 0 1.45204e-07)
(1.45135e-07 -6.29575e-09 0 1.45276e-07 0 1.45204e-07)
(1.45142e-07 -6.29457e-09 0 1.45269e-07 0 1.45204e-07)
(1.45149e-07 -6.29346e-09 0 1.45263e-07 0 1.45204e-07)
(1.45155e-07 -6.29242e-09 0 1.45256e-07 0 1.45204e-07)
(1.4516e-07 -6.29145e-09 0 1.45251e-07 0 1.45204e-07)
(1.45166e-07 -6.29053e-09 0 1.45245e-07 0 1.45204e-07)
(1.45171e-07 -6.28968e-09 0 1.4524e-07 0 1.45204e-07)
(1.45176e-07 -6.28888e-09 0 1.45235e-07 0 1.45204e-07)
(1.45181e-07 -6.28813e-09 0 1.4523e-07 0 1.45204e-07)
(1.45185e-07 -6.28744e-09 0 1.45225e-07 0 1.45204e-07)
(1.45189e-07 -6.28678e-09 0 1.45221e-07 0 1.45203e-07)
(1.45193e-07 -6.28616e-09 0 1.45217e-07 0 1.45203e-07)
(1.45197e-07 -6.28558e-09 0 1.45213e-07 0 1.45203e-07)
(1.45201e-07 -6.28503e-09 0 1.45209e-07 0 1.45203e-07)
(1.45204e-07 -6.2845e-09 0 1.45206e-07 0 1.45203e-07)
(1.45207e-07 -6.28401e-09 0 1.45202e-07 0 1.45203e-07)
(1.45211e-07 -6.28354e-09 0 1.45199e-07 0 1.45203e-07)
(1.45214e-07 -6.2831e-09 0 1.45196e-07 0 1.45203e-07)
(1.45217e-07 -6.28267e-09 0 1.45193e-07 0 1.45203e-07)
(1.45219e-07 -6.28227e-09 0 1.45191e-07 0 1.45203e-07)
(1.45222e-07 -6.28188e-09 0 1.45188e-07 0 1.45203e-07)
(1.45224e-07 -6.28151e-09 0 1.45186e-07 0 1.45203e-07)
(1.45227e-07 -6.28116e-09 0 1.45183e-07 0 1.45203e-07)
(1.45229e-07 -6.28083e-09 0 1.45181e-07 0 1.45203e-07)
(1.45231e-07 -6.28051e-09 0 1.45179e-07 0 1.45203e-07)
(1.45233e-07 -6.28021e-09 0 1.45177e-07 0 1.45203e-07)
(1.45235e-07 -6.27992e-09 0 1.45176e-07 0 1.45203e-07)
(1.45236e-07 -6.27965e-09 0 1.45174e-07 0 1.45203e-07)
(1.45238e-07 -6.27939e-09 0 1.45173e-07 0 1.45203e-07)
(1.45239e-07 -6.27916e-09 0 1.45172e-07 0 1.45203e-07)
(1.4524e-07 -6.27894e-09 0 1.45171e-07 0 1.45204e-07)
(1.45241e-07 -6.27875e-09 0 1.4517e-07 0 1.45204e-07)
(1.45241e-07 -6.27857e-09 0 1.45169e-07 0 1.45204e-07)
(1.45242e-07 -6.27842e-09 0 1.45169e-07 0 1.45204e-07)
(1.45242e-07 -6.27829e-09 0 1.45169e-07 0 1.45204e-07)
(1.45242e-07 -6.27818e-09 0 1.45169e-07 0 1.45204e-07)
(1.45242e-07 -6.2781e-09 0 1.45169e-07 0 1.45204e-07)
(1.45242e-07 -6.27805e-09 0 1.45169e-07 0 1.45204e-07)
(1.45242e-07 -6.27803e-09 0 1.45169e-07 0 1.45204e-07)
(1.45241e-07 -6.27804e-09 0 1.4517e-07 0 1.45204e-07)
(1.45241e-07 -6.27809e-09 0 1.45171e-07 0 1.45204e-07)
(1.4524e-07 -6.27817e-09 0 1.45171e-07 0 1.45204e-07)
(1.45239e-07 -6.27828e-09 0 1.45172e-07 0 1.45204e-07)
(1.45238e-07 -6.27841e-09 0 1.45173e-07 0 1.45204e-07)
(1.45237e-07 -6.27857e-09 0 1.45174e-07 0 1.45204e-07)
(1.45237e-07 -6.27874e-09 0 1.45175e-07 0 1.45204e-07)
(1.45236e-07 -6.27894e-09 0 1.45176e-07 0 1.45204e-07)
(1.45235e-07 -6.27915e-09 0 1.45177e-07 0 1.45204e-07)
(1.45235e-07 -6.27938e-09 0 1.45178e-07 0 1.45204e-07)
(1.45234e-07 -6.27961e-09 0 1.45178e-07 0 1.45204e-07)
(1.45234e-07 -6.27984e-09 0 1.45179e-07 0 1.45204e-07)
(1.45234e-07 -6.28006e-09 0 1.45179e-07 0 1.45204e-07)
(1.45234e-07 -6.28027e-09 0 1.45179e-07 0 1.45204e-07)
(1.45234e-07 -6.28045e-09 0 1.45179e-07 0 1.45204e-07)
(1.45234e-07 -6.28062e-09 0 1.45179e-07 0 1.45204e-07)
(1.45235e-07 -6.28077e-09 0 1.45179e-07 0 1.45204e-07)
(1.45235e-07 -6.28088e-09 0 1.45178e-07 0 1.45204e-07)
(1.45236e-07 -6.28097e-09 0 1.45178e-07 0 1.45204e-07)
(1.45237e-07 -6.28101e-09 0 1.45177e-07 0 1.45205e-07)
(1.45238e-07 -6.28103e-09 0 1.45176e-07 0 1.45205e-07)
(1.45238e-07 -6.28105e-09 0 1.45176e-07 0 1.45205e-07)
(1.45239e-07 -6.28106e-09 0 1.45175e-07 0 1.45205e-07)
(1.4524e-07 -6.28105e-09 0 1.45175e-07 0 1.45205e-07)
(1.4524e-07 -6.28108e-09 0 1.45175e-07 0 1.45205e-07)
(1.4524e-07 -6.28111e-09 0 1.45175e-07 0 1.45205e-07)
(1.4524e-07 -6.28115e-09 0 1.45175e-07 0 1.45205e-07)
(1.4524e-07 -6.28126e-09 0 1.45175e-07 0 1.45205e-07)
(1.4524e-07 -6.28144e-09 0 1.45176e-07 0 1.45205e-07)
(1.45239e-07 -6.28165e-09 0 1.45177e-07 0 1.45205e-07)
(1.45239e-07 -6.2819e-09 0 1.45177e-07 0 1.45205e-07)
(1.45239e-07 -6.28218e-09 0 1.45178e-07 0 1.45206e-07)
(1.45238e-07 -6.28252e-09 0 1.45179e-07 0 1.45206e-07)
(1.45238e-07 -6.28291e-09 0 1.45179e-07 0 1.45206e-07)
(1.45238e-07 -6.28328e-09 0 1.4518e-07 0 1.45206e-07)
(1.45239e-07 -6.28363e-09 0 1.4518e-07 0 1.45206e-07)
(1.45239e-07 -6.28393e-09 0 1.4518e-07 0 1.45206e-07)
(1.4524e-07 -6.28422e-09 0 1.45179e-07 0 1.45206e-07)
(1.45241e-07 -6.28455e-09 0 1.45179e-07 0 1.45207e-07)
(1.45242e-07 -6.28482e-09 0 1.45178e-07 0 1.45207e-07)
(1.45244e-07 -6.28508e-09 0 1.45177e-07 0 1.45207e-07)
(1.45245e-07 -6.28531e-09 0 1.45176e-07 0 1.45207e-07)
(1.45246e-07 -6.28553e-09 0 1.45176e-07 0 1.45207e-07)
(1.45247e-07 -6.28577e-09 0 1.45176e-07 0 1.45207e-07)
(1.45247e-07 -6.28609e-09 0 1.45176e-07 0 1.45208e-07)
(1.45247e-07 -6.28649e-09 0 1.45177e-07 0 1.45208e-07)
(1.45247e-07 -6.28702e-09 0 1.45178e-07 0 1.45208e-07)
(1.45247e-07 -6.28765e-09 0 1.45179e-07 0 1.45209e-07)
(1.45246e-07 -6.28841e-09 0 1.45181e-07 0 1.45209e-07)
(1.45246e-07 -6.2893e-09 0 1.45182e-07 0 1.4521e-07)
(1.45246e-07 -6.2902e-09 0 1.45183e-07 0 1.4521e-07)
(1.45246e-07 -6.29109e-09 0 1.45184e-07 0 1.4521e-07)
(1.45247e-07 -6.29202e-09 0 1.45185e-07 0 1.45211e-07)
(1.45249e-07 -6.29306e-09 0 1.45185e-07 0 1.45212e-07)
(1.4525e-07 -6.29409e-09 0 1.45185e-07 0 1.45212e-07)
(1.45252e-07 -6.29518e-09 0 1.45185e-07 0 1.45213e-07)
(1.45254e-07 -6.29631e-09 0 1.45185e-07 0 1.45214e-07)
(1.45255e-07 -6.29757e-09 0 1.45186e-07 0 1.45215e-07)
(1.45257e-07 -6.29905e-09 0 1.45187e-07 0 1.45216e-07)
(1.45259e-07 -6.3008e-09 0 1.45189e-07 0 1.45217e-07)
(1.4526e-07 -6.30282e-09 0 1.4519e-07 0 1.45218e-07)
(1.45263e-07 -6.30504e-09 0 1.45191e-07 0 1.45219e-07)
(1.45266e-07 -6.30759e-09 0 1.45193e-07 0 1.45221e-07)
(1.4527e-07 -6.31039e-09 0 1.45193e-07 0 1.45223e-07)
(1.45276e-07 -6.31337e-09 0 1.45193e-07 0 1.45225e-07)
(1.45282e-07 -6.31663e-09 0 1.45192e-07 0 1.45228e-07)
(1.4529e-07 -6.32037e-09 0 1.45193e-07 0 1.45231e-07)
(1.45298e-07 -6.32469e-09 0 1.45193e-07 0 1.45234e-07)
(1.45308e-07 -6.32995e-09 0 1.45195e-07 0 1.45239e-07)
(1.45323e-07 -6.33587e-09 0 1.45195e-07 0 1.45245e-07)
(1.45329e-07 -6.34319e-09 0 1.45198e-07 0 1.4525e-07)
(1.4536e-07 -6.35066e-09 0 1.45202e-07 0 1.45263e-07)
(1.45355e-07 -6.36094e-09 0 1.45205e-07 0 1.45267e-07)
(1.45405e-07 -6.37174e-09 0 1.45231e-07 0 1.45292e-07)
(1.45374e-07 -6.38602e-09 0 1.45241e-07 0 1.45294e-07)
(1.45389e-07 -6.40701e-09 0 1.45369e-07 0 1.4534e-07)
(1.45305e-07 -6.42838e-09 0 1.45414e-07 0 1.45342e-07)
(1.45026e-07 -6.48118e-09 0 1.45894e-07 0 1.45405e-07)
(1.44778e-07 -6.5239e-09 0 1.4603e-07 0 1.45369e-07)
(1.43661e-07 -6.62151e-09 0 1.46883e-07 0 1.45211e-07)
(1.41963e-07 -6.63709e-09 0 1.46061e-07 0 1.43957e-07)
(1.44986e-07 -6.32873e-09 0 1.45429e-07 0 1.45206e-07)
(1.45001e-07 -6.32563e-09 0 1.45413e-07 0 1.45206e-07)
(1.45015e-07 -6.3227e-09 0 1.45399e-07 0 1.45206e-07)
(1.45028e-07 -6.31991e-09 0 1.45385e-07 0 1.45205e-07)
(1.45041e-07 -6.31727e-09 0 1.45372e-07 0 1.45205e-07)
(1.45053e-07 -6.31477e-09 0 1.45359e-07 0 1.45205e-07)
(1.45064e-07 -6.31239e-09 0 1.45347e-07 0 1.45205e-07)
(1.45075e-07 -6.31015e-09 0 1.45336e-07 0 1.45205e-07)
(1.45085e-07 -6.30802e-09 0 1.45326e-07 0 1.45204e-07)
(1.45095e-07 -6.30602e-09 0 1.45316e-07 0 1.45204e-07)
(1.45104e-07 -6.30413e-09 0 1.45307e-07 0 1.45204e-07)
(1.45112e-07 -6.30235e-09 0 1.45298e-07 0 1.45204e-07)
(1.4512e-07 -6.30067e-09 0 1.45289e-07 0 1.45204e-07)
(1.45128e-07 -6.29909e-09 0 1.45282e-07 0 1.45204e-07)
(1.45135e-07 -6.29761e-09 0 1.45274e-07 0 1.45204e-07)
(1.45142e-07 -6.29621e-09 0 1.45267e-07 0 1.45203e-07)
(1.45148e-07 -6.29491e-09 0 1.45261e-07 0 1.45203e-07)
(1.45154e-07 -6.29368e-09 0 1.45254e-07 0 1.45203e-07)
(1.4516e-07 -6.29253e-09 0 1.45249e-07 0 1.45203e-07)
(1.45166e-07 -6.29145e-09 0 1.45243e-07 0 1.45203e-07)
(1.45171e-07 -6.29045e-09 0 1.45238e-07 0 1.45203e-07)
(1.45175e-07 -6.28951e-09 0 1.45233e-07 0 1.45203e-07)
(1.4518e-07 -6.28863e-09 0 1.45228e-07 0 1.45203e-07)
(1.45184e-07 -6.28781e-09 0 1.45224e-07 0 1.45203e-07)
(1.45189e-07 -6.28704e-09 0 1.45219e-07 0 1.45203e-07)
(1.45193e-07 -6.28633e-09 0 1.45215e-07 0 1.45203e-07)
(1.45196e-07 -6.28565e-09 0 1.45211e-07 0 1.45203e-07)
(1.452e-07 -6.28501e-09 0 1.45208e-07 0 1.45203e-07)
(1.45203e-07 -6.28439e-09 0 1.45204e-07 0 1.45203e-07)
(1.45207e-07 -6.2838e-09 0 1.45201e-07 0 1.45203e-07)
(1.4521e-07 -6.28323e-09 0 1.45197e-07 0 1.45202e-07)
(1.45213e-07 -6.28268e-09 0 1.45194e-07 0 1.45202e-07)
(1.45216e-07 -6.28216e-09 0 1.45191e-07 0 1.45202e-07)
(1.45218e-07 -6.28166e-09 0 1.45188e-07 0 1.45202e-07)
(1.45221e-07 -6.28118e-09 0 1.45186e-07 0 1.45202e-07)
(1.45223e-07 -6.28071e-09 0 1.45183e-07 0 1.45202e-07)
(1.45225e-07 -6.28027e-09 0 1.45181e-07 0 1.45202e-07)
(1.45228e-07 -6.27984e-09 0 1.45178e-07 0 1.45202e-07)
(1.45229e-07 -6.27942e-09 0 1.45176e-07 0 1.45202e-07)
(1.45231e-07 -6.27902e-09 0 1.45174e-07 0 1.45202e-07)
(1.45233e-07 -6.27863e-09 0 1.45173e-07 0 1.45202e-07)
(1.45234e-07 -6.27825e-09 0 1.45171e-07 0 1.45202e-07)
(1.45236e-07 -6.27789e-09 0 1.4517e-07 0 1.45202e-07)
(1.45237e-07 -6.27755e-09 0 1.45168e-07 0 1.45202e-07)
(1.45238e-07 -6.27722e-09 0 1.45167e-07 0 1.45202e-07)
(1.45239e-07 -6.27691e-09 0 1.45166e-07 0 1.45202e-07)
(1.45239e-07 -6.27661e-09 0 1.45166e-07 0 1.45202e-07)
(1.4524e-07 -6.27635e-09 0 1.45165e-07 0 1.45202e-07)
(1.4524e-07 -6.27611e-09 0 1.45165e-07 0 1.45201e-07)
(1.4524e-07 -6.27589e-09 0 1.45164e-07 0 1.45201e-07)
(1.4524e-07 -6.27571e-09 0 1.45164e-07 0 1.45201e-07)
(1.4524e-07 -6.27557e-09 0 1.45165e-07 0 1.45201e-07)
(1.45239e-07 -6.27545e-09 0 1.45165e-07 0 1.45201e-07)
(1.45239e-07 -6.27537e-09 0 1.45165e-07 0 1.45201e-07)
(1.45238e-07 -6.27532e-09 0 1.45166e-07 0 1.45201e-07)
(1.45237e-07 -6.2753e-09 0 1.45167e-07 0 1.45201e-07)
(1.45236e-07 -6.27532e-09 0 1.45168e-07 0 1.45201e-07)
(1.45235e-07 -6.27537e-09 0 1.45168e-07 0 1.45201e-07)
(1.45234e-07 -6.27547e-09 0 1.45169e-07 0 1.45201e-07)
(1.45233e-07 -6.27559e-09 0 1.4517e-07 0 1.45201e-07)
(1.45232e-07 -6.27574e-09 0 1.45171e-07 0 1.45201e-07)
(1.45232e-07 -6.27591e-09 0 1.45171e-07 0 1.45201e-07)
(1.45231e-07 -6.27607e-09 0 1.45172e-07 0 1.45201e-07)
(1.4523e-07 -6.27625e-09 0 1.45172e-07 0 1.45201e-07)
(1.4523e-07 -6.27644e-09 0 1.45173e-07 0 1.45201e-07)
(1.4523e-07 -6.2766e-09 0 1.45173e-07 0 1.45201e-07)
(1.4523e-07 -6.27675e-09 0 1.45173e-07 0 1.45201e-07)
(1.4523e-07 -6.27688e-09 0 1.45172e-07 0 1.45201e-07)
(1.4523e-07 -6.27696e-09 0 1.45172e-07 0 1.45201e-07)
(1.4523e-07 -6.27701e-09 0 1.45171e-07 0 1.45201e-07)
(1.45231e-07 -6.27701e-09 0 1.45171e-07 0 1.452e-07)
(1.45231e-07 -6.27697e-09 0 1.4517e-07 0 1.452e-07)
(1.45232e-07 -6.27691e-09 0 1.45169e-07 0 1.452e-07)
(1.45233e-07 -6.27681e-09 0 1.45168e-07 0 1.452e-07)
(1.45233e-07 -6.27666e-09 0 1.45167e-07 0 1.452e-07)
(1.45234e-07 -6.27649e-09 0 1.45167e-07 0 1.452e-07)
(1.45234e-07 -6.27632e-09 0 1.45166e-07 0 1.452e-07)
(1.45234e-07 -6.27613e-09 0 1.45166e-07 0 1.452e-07)
(1.45234e-07 -6.27597e-09 0 1.45165e-07 0 1.452e-07)
(1.45234e-07 -6.27587e-09 0 1.45165e-07 0 1.452e-07)
(1.45234e-07 -6.27576e-09 0 1.45165e-07 0 1.452e-07)
(1.45233e-07 -6.27569e-09 0 1.45165e-07 0 1.45199e-07)
(1.45233e-07 -6.27567e-09 0 1.45166e-07 0 1.45199e-07)
(1.45232e-07 -6.2757e-09 0 1.45166e-07 0 1.45199e-07)
(1.45231e-07 -6.27578e-09 0 1.45166e-07 0 1.45199e-07)
(1.45231e-07 -6.27587e-09 0 1.45167e-07 0 1.45199e-07)
(1.4523e-07 -6.27595e-09 0 1.45167e-07 0 1.45199e-07)
(1.4523e-07 -6.27605e-09 0 1.45166e-07 0 1.45199e-07)
(1.4523e-07 -6.27616e-09 0 1.45166e-07 0 1.45198e-07)
(1.4523e-07 -6.27625e-09 0 1.45165e-07 0 1.45198e-07)
(1.45231e-07 -6.27628e-09 0 1.45164e-07 0 1.45198e-07)
(1.45231e-07 -6.27618e-09 0 1.45163e-07 0 1.45198e-07)
(1.45232e-07 -6.27604e-09 0 1.45161e-07 0 1.45198e-07)
(1.45233e-07 -6.27584e-09 0 1.4516e-07 0 1.45197e-07)
(1.45234e-07 -6.2756e-09 0 1.45159e-07 0 1.45197e-07)
(1.45234e-07 -6.27536e-09 0 1.45157e-07 0 1.45197e-07)
(1.45234e-07 -6.27511e-09 0 1.45157e-07 0 1.45197e-07)
(1.45234e-07 -6.27488e-09 0 1.45156e-07 0 1.45196e-07)
(1.45234e-07 -6.27468e-09 0 1.45156e-07 0 1.45196e-07)
(1.45233e-07 -6.2745e-09 0 1.45156e-07 0 1.45196e-07)
(1.45231e-07 -6.2744e-09 0 1.45156e-07 0 1.45195e-07)
(1.4523e-07 -6.27434e-09 0 1.45156e-07 0 1.45195e-07)
(1.45229e-07 -6.27431e-09 0 1.45156e-07 0 1.45195e-07)
(1.45228e-07 -6.27436e-09 0 1.45156e-07 0 1.45194e-07)
(1.45227e-07 -6.27445e-09 0 1.45155e-07 0 1.45194e-07)
(1.45227e-07 -6.27446e-09 0 1.45154e-07 0 1.45193e-07)
(1.45227e-07 -6.27429e-09 0 1.45152e-07 0 1.45193e-07)
(1.45227e-07 -6.27404e-09 0 1.4515e-07 0 1.45192e-07)
(1.45228e-07 -6.27367e-09 0 1.45148e-07 0 1.45191e-07)
(1.45228e-07 -6.27326e-09 0 1.45146e-07 0 1.45191e-07)
(1.45228e-07 -6.27283e-09 0 1.45144e-07 0 1.4519e-07)
(1.45227e-07 -6.27239e-09 0 1.45142e-07 0 1.45189e-07)
(1.45226e-07 -6.27194e-09 0 1.4514e-07 0 1.45188e-07)
(1.45225e-07 -6.27148e-09 0 1.45138e-07 0 1.45187e-07)
(1.45225e-07 -6.27101e-09 0 1.45135e-07 0 1.45186e-07)
(1.45225e-07 -6.27037e-09 0 1.45131e-07 0 1.45184e-07)
(1.45225e-07 -6.26949e-09 0 1.45126e-07 0 1.45183e-07)
(1.45226e-07 -6.26849e-09 0 1.45121e-07 0 1.45181e-07)
(1.45227e-07 -6.26721e-09 0 1.45114e-07 0 1.45179e-07)
(1.4523e-07 -6.26568e-09 0 1.45108e-07 0 1.45178e-07)
(1.45231e-07 -6.2637e-09 0 1.45098e-07 0 1.45174e-07)
(1.45232e-07 -6.26143e-09 0 1.4509e-07 0 1.45172e-07)
(1.45237e-07 -6.25826e-09 0 1.45077e-07 0 1.45169e-07)
(1.45231e-07 -6.25507e-09 0 1.45065e-07 0 1.45163e-07)
(1.45248e-07 -6.24988e-09 0 1.45052e-07 0 1.45163e-07)
(1.45224e-07 -6.2443e-09 0 1.45032e-07 0 1.45149e-07)
(1.45252e-07 -6.23588e-09 0 1.45031e-07 0 1.45155e-07)
(1.45188e-07 -6.22409e-09 0 1.45001e-07 0 1.45127e-07)
(1.45165e-07 -6.21305e-09 0 1.45083e-07 0 1.45141e-07)
(1.45023e-07 -6.18927e-09 0 1.45064e-07 0 1.45091e-07)
(1.44693e-07 -6.18387e-09 0 1.4547e-07 0 1.4511e-07)
(1.44408e-07 -6.15941e-09 0 1.4558e-07 0 1.45052e-07)