/*--------------------------------*- C++ -*----------------------------------*\
| =========                 |                                                 |
| \\      /  F ield         | OpenFOAM: The Open Source CFD Toolbox           |
|  \\    /   O peration     | Version:  v1912                                 |
|   \\  /    A nd           | Website:  www.openfoam.com                      |
|    \\/     M anipulation  |                                                 |
\*---------------------------------------------------------------------------*/
FoamFile
{
    version     2.0;
    format      ascii;
    class       volScalarField;
    location    "60";
    object      p_rgh;
}
// * * * * * * * * * * * * * * * * * * * * * * * * * * * * * * * * * * * * * //

dimensions      [1 -1 -2 0 0 0 0];


internalField   nonuniform List<scalar> 
114144
(
2175.75
3364.69
5817.32
9331.7
13586.8
18277.3
23127.1
27926.1
32541.8
36884
40920.6
44660.5
48113.6
51281.2
54145
56660.6
58756.5
60339.3
61304.4
61556
61046.6
60043.5
56849
53475.4
49383.7
44676.5
39498.6
34015.9
28395.9
22792.8
17335.7
12123.3
7222.43
2669.31
-1511.85
-5306.69
-8691.49
-11681.1
-14289
-16525.2
-18395.5
-19902.5
-21049.1
-21841.2
-22290.7
-22418.3
-22257.3
-21866.5
-21358.4
-20793.7
-20111
-19337.1
-18500.9
-17623.7
-16722.1
-15791.2
-14852.5
-13208.8
-12171.1
-11303.1
-10500.1
-9701.32
-8865.92
-7959.32
-6953.5
-5829.38
-4579.8
-3211.37
-1745
-214.486
1336.95
2861.19
4310.95
5644.5
6825.49
7828.87
8641.94
9261.03
9689
9932.27
9998.47
9894.72
9627.92
9210.43
8724.31
7993.07
6922.6
5852.68
4687.63
3472.6
2245.02
1049.49
-71.5227
-1079.62
-1948.13
-2649.23
-3184.44
-3561.17
-3796.38
-3911.49
-3928.9
-3868.8
-3747.36
-3576.2
-3362.66
-3119.91
-2853.91
-2563.79
-2118.2
-1738.8
-1322.34
-922.818
-538.998
-184.142
133.095
407.261
637.197
825.592
977.914
1100.96
1201.34
1284.12
1352.47
1406.4
1444.35
1463.34
1460.13
1432.43
1379.14
1311.08
1230.11
1134.96
1032.46
931.594
842.237
773.249
733.711
729.064
763.217
837.38
950.742
1103.25
1284.47
1485.81
1707.61
1942.78
2182.07
2414.66
2628.45
2810.59
2948.72
3030.23
3048.5
2995.3
2866.56
2661.98
2385.75
2042
1642.08
1202.94
734.63
247.585
-265.584
-772.214
-1272.07
-1754.24
-2216.47
-2650.85
-3054.26
-3421.1
-3746.79
-4026.1
-4254.18
-4426.61
-4539.62
-4590.26
-4576.92
-4499.88
-4360.5
-4161.77
-3908.54
-3607.42
-3265.13
-2888.79
-2486.5
-2066.97
-1639.42
-1213.56
-799.514
-406.987
-40.891
283.564
558.9
779.472
941.305
1041.19
1077.46
1051.28
964.021
819.166
621.073
375.341
88.7506
-232.334
-581.094
-946.353
-1315.68
-1676.73
-2016.4
-2322.18
-2583.63
-2792.62
-2943.03
-3031.97
-3059.79
-3032.19
-2955.59
-2838.68
-2690.8
-2520.78
-2335.64
-2140.35
-1937.99
-1728.91
-1510.9
-1279.67
-1029.47
-753.906
-446.789
-103.191
281.314
709.987
1181.08
1692.18
2238.58
2813.35
3407.64
4010.99
4611.53
5196.4
5752.14
6265.5
6723.98
7115.93
7431.06
7660.8
7798.96
7840.44
7790.6
7650.32
8586.89
9451.06
10833.5
12789.4
15249.3
18129.2
21083.4
24074.8
27015.5
29852.1
32550.3
35071.8
37386.5
39465.3
41275.3
42777.7
43927.7
44676.3
44976
44790.6
44117.4
43102.2
40521.3
37939.8
34929.6
31539.3
27848.2
23950
19941.9
15916.4
11954.4
8122.04
4469.23
1028.57
-2171.87
-5119.45
-7730.16
-10038.1
-12044.5
-13754.4
-15172.8
-16305.4
-17159.3
-17744.5
-18076.2
-18176.3
-18074.8
-17812
-17433.2
-16974.2
-16471.3
-15946.5
-15367.4
-14737.8
-14063.1
-13331.6
-12553.2
-11052.9
-10091.9
-9257.73
-8464.8
-7665.89
-6834.47
-5950.91
-5001.39
-3978.41
-2882.01
-1720.43
-510.236
724.529
1954.54
3147.82
4273.24
5303.37
6212.5
6981.91
7600.66
8063.05
8367.5
8515.2
8509.32
8354.61
8058.51
7635.19
7152.97
6474.1
5499.62
4552.68
3546
2517.53
1495.9
514.136
-397.723
-1213.1
-1917.36
-2481.02
-2914.01
-3220.71
-3413.43
-3507.11
-3517.08
-3457.2
-3339.03
-3171.78
-2962.77
-2722.22
-2464.54
-2187.45
-1765.54
-1417.77
-1041.49
-686.754
-350.108
-41.0885
234.859
474.738
678.632
849.155
990.519
1107.46
1204.17
1283.05
1347.22
1394.17
1422.95
1431.46
1417.8
1381.2
1322.52
1252.2
1172.93
1084.06
991.667
903.681
828.824
774.707
749.622
758.224
803.972
887.806
1008.99
1167.16
1351.4
1554.58
1775.86
2008.16
2242.23
2467.33
2671.62
2842.68
2968.67
3038.16
3043.81
2979.53
2841.13
2628.78
2346.79
1999.81
1597.97
1158.68
691.63
206.545
-303.243
-806.727
-1303.25
-1782.16
-2241.31
-2672.89
-3073.77
-3438.36
-3762.07
-4039.65
-4266.23
-4437.36
-4549.19
-4598.99
-4584.45
-4506.55
-4366.36
-4166.88
-3912.94
-3611.12
-3268.1
-2890.97
-2487.82
-2067.33
-1638.74
-1211.76
-796.59
-403.039
-35.0609
290.311
566.508
787.813
950.144
1050.27
1086.9
1060.09
972.303
826.775
627.864
381.169
93.4697
-228.921
-579.176
-946.053
-1317.12
-1679.95
-2021.33
-2328.63
-2591.27
-2801.05
-2951.79
-3040.56
-3067.76
-3039.24
-2961.46
-2843.28
-2694.18
-2523.11
-2337.22
-2141.51
-1939.1
-1730.31
-1512.9
-1282.47
-1033.18
-758.522
-452.202
-109.219
274.913
703.542
1174.88
1686.56
2233.83
2809.75
3405.46
4010.44
4612.8
5199.61
5757.34
6272.68
6733.02
7126.62
7443.11
7673.83
7812.51
7854.01
7802.99
7655.76
10236
11076.6
12206.7
13679.7
15494
17746
19957.7
22189.3
24407.8
26569.7
28638.8
30577.3
32348.8
33917.9
35249.5
36308.2
37058.6
37467.5
37505.8
37155
36418.3
35392.4
33121.1
30884.7
28336.7
25506.9
22450
19232
15922.7
12589.9
9294.11
6086.9
3009.17
89.7825
-2642.96
-5168.35
-7443.91
-9425.61
-11141.4
-12598.4
-13801.6
-14757.2
-15473.2
-15960.4
-16234.1
-16314.5
-16227.5
-16004.8
-15680.1
-15280.3
-14821.4
-14333.3
-13838.5
-13305.9
-12729.5
-12093.5
-11399.2
-9998.45
-9090.98
-8285.14
-7510.3
-6725.89
-5910.98
-5051.38
-4138.24
-3168.17
-2143.72
-1073.72
26.8363
1137.45
2233.83
3289.96
4280.67
5183.78
5977.89
6646.9
7180.91
7573.94
7823.16
7928.15
7890.62
7714.41
7406.73
6981.36
6497.28
5838.61
4909.14
4011.32
3067.12
2111.05
1168.93
269.737
-560.843
-1300.34
-1936.12
-2447.24
-2836.21
-3110.4
-3281.06
-3361.21
-3363.91
-3300.83
-3181.81
-3015.01
-2807.41
-2568.14
-2313.48
-2042.38
-1623.1
-1288.68
-927.832
-588.847
-268.836
23.7926
284.504
511.127
704.262
866.672
1002.35
1115.5
1209.77
1287.12
1348.81
1393.41
1419.46
1424.87
1408.04
1368.5
1307.71
1235.92
1155.6
1066.99
976.112
890.679
819.14
768.557
747.487
759.964
809.343
896.426
1020.51
1181.12
1366.87
1571.98
1794.85
2028.37
2263.27
2488.8
2693.06
2863.62
2988.53
3055.93
3060.08
2993.3
2851.94
2636.4
2351.02
2000.68
1596.01
1153.79
684.222
196.832
-314.167
-818.828
-1316.15
-1795.64
-2255.27
-2687.33
-3088.76
-3453.98
-3778.39
-4056.69
-4283.9
-4455.48
-4567.46
-4617.15
-4602.64
-4524.02
-4382.83
-4182.03
-3926.55
-3623
-3277.99
-2898.69
-2493.19
-2070.19
-1638.95
-1209.25
-791.468
-395.797
-23.4594
303.675
581.702
804.508
967.835
1068.38
1104.36
1077.44
988.696
841.837
641.289
392.665
102.734
-222.23
-575.492
-945.608
-1320.16
-1686.56
-2031.35
-2341.67
-2606.68
-2818.05
-2969.43
-3057.84
-3083.85
-3053.4
-2973.25
-2852.51
-2700.95
-2527.79
-2340.36
-2143.81
-1941.29
-1733.1
-1516.88
-1288.09
-1040.63
-767.805
-463.099
-121.355
262.027
690.572
1162.41
1675.23
2224.26
2802.51
3401.06
4009.32
4615.31
5206
5767.73
6287.02
6751.09
7148
7467.21
7699.91
7839.66
7881.03
7828.99
7680.06
10777.2
11605.1
12632.7
13904.2
15512.7
17336.5
19083.6
20827.4
22558.1
24244.4
25855.4
27355.7
28708.7
29878.6
30831
31534.1
31960
32085.6
31894.2
31378.6
30547.9
29502.3
27384.3
25360.3
23115.5
20669.1
18060.7
15337.9
12550.9
9749.16
6977.05
4273.28
1669.82
-809.855
-3140.85
-5307.25
-7282.51
-8962.36
-10407
-11624.1
-12619.2
-13399.4
-13973.5
-14353.5
-14554.7
-14596.2
-14500.2
-14291.9
-13996.1
-13634.5
-13223.1
-12776.4
-12309.4
-11842.3
-11346.9
-10797.1
-10183
-8887.48
-8035.59
-7258
-6500.65
-5730.01
-4930.87
-4094.57
-3217.49
-2300.55
-1349.27
-373.507
612.862
1592.51
2546.03
3453.37
4295.86
5056.53
5719.31
6271.35
6704.4
7012.67
7192.42
7241.8
7161.17
6953.49
6625.73
6191.46
5701.98
5059.93
4180.12
3337.66
2466.14
1596.19
750.498
-46.7641
-775.288
-1417.92
-1965.94
-2408.04
-2736.95
-2965.75
-3104.54
-3164.1
-3154.64
-3085
-2962.73
-2794.51
-2586.84
-2347.84
-2095.79
-1836.64
-1410.23
-1098.32
-759.365
-442.804
-146.944
121.494
359.427
566.023
742.779
892.783
1019.73
1127.1
1217.51
1292.64
1350.45
1390.94
1412.08
1411.94
1389.43
1344.74
1280.39
1205.91
1124.26
1036.84
949.506
869.584
804.986
762.02
748.987
769.325
826.022
919.586
1049.45
1214.46
1403.3
1611.5
1836.41
2070.87
2305.52
2529.58
2731.15
2897.84
3017.86
3080.18
3077.04
3003.6
2855.35
2633.11
2341.44
1985.83
1576.42
1130.37
657.963
168.513
-342.75
-847.618
-1344.57
-1823.45
-2282.34
-2713.76
-3114.71
-3479.71
-3804.11
-4082.57
-4310.02
-4481.76
-4593.88
-4643.39
-4627.74
-4548.17
-4405.62
-4203.09
-3945.56
-3639.67
-3291.97
-2909.68
-2500.88
-2074.29
-1639.2
-1205.47
-783.727
-385.089
-5.91564
323.673
604.543
829.643
994.485
1095.72
1131.99
1103.75
1013.46
864.56
661.535
410.006
116.71
-212.115
-569.907
-944.906
-1324.71
-1696.48
-2046.44
-2361.32
-2629.92
-2843.67
-2996.03
-3083.85
-3108
-3074.7
-2990.95
-2866.3
-2710.99
-2534.65
-2344.9
-2147.08
-1944.41
-1737.15
-1522.76
-1296.43
-1051.76
-781.707
-479.45
-139.59
242.643
671.047
1143.62
1658.15
2209.82
2791.56
3394.37
4007.56
4619.02
5215.56
5783.33
6308.58
6778.27
7180.19
7503.53
7739.23
7880.65
7922.31
7868.55
7715.06
10980.3
11795.8
12768.1
13954.2
15416.1
16940.1
18365.4
19774.4
21164.8
22513.1
23793.2
24972.8
26017
26891.4
27563.4
28004.6
28192.3
28110.3
27749.9
27111.1
26209.9
25146.4
23113.7
21228.7
19187.4
17002.5
14704.4
12329
9914.22
7496.66
5109.36
2781.33
537.058
-1605.44
-3626.32
-5516.78
-7253.6
-8687.73
-9913.64
-10936.6
-11762.4
-12398.4
-12854.2
-13142.1
-13277.2
-13277.2
-13161.7
-12951.6
-12667.2
-12326.1
-11942.1
-11526.8
-11089.1
-10639.4
-10189.4
-9702.33
-9153.66
-7955.83
-7158.4
-6410.79
-5674.34
-4921.47
-4141.33
-3329.25
-2485.26
-1613.31
-721.013
181.014
1079.54
1959.3
2804.16
3598.14
4326.88
4977.87
5538.36
5998.28
6350.9
6590.94
6714.31
6718.36
6602.5
6369.01
6024.41
5581.78
5086.58
4454.04
3612.2
2809.65
1990.71
1183.14
407.674
-314.707
-967.409
-1537.31
-2020.18
-2406.44
-2686.13
-2876.48
-2986.9
-3026.97
-3005.03
-2927.91
-2801.44
-2631.02
-2422.52
-2183.51
-1932.5
-1680.14
-1248.67
-950.911
-627.426
-326.129
-47.0208
204.207
425.389
616.673
780.325
919.892
1039.11
1141
1227.72
1299.56
1355.4
1393.55
1411.77
1408.25
1382.03
1333.63
1266.12
1188.63
1104.32
1015.63
928.625
850.534
789.313
749.49
741.063
766.166
827.586
925.629
1059.79
1228.38
1420.28
1632.07
1860.42
2098.1
2335.69
2562.25
2765.74
2933.61
3053.79
3115.03
3110.21
3033.5
2880.76
2653.17
2355.43
1993.53
1578.15
1126.11
648.286
153.956
-360.414
-868.036
-1367.01
-1847.44
-2307.6
-2740.28
-3142.57
-3509.06
-3835.1
-4115.22
-4344.17
-4517.06
-4629.67
-4679.53
-4663.77
-4582.97
-4438.5
-4233.46
-3972.93
-3663.59
-3312
-2925.41
-2511.95
-2080.34
-1639.92
-1200.65
-773.327
-368.819
15.4457
350.19
635.092
863.296
1030.17
1132.27
1168.01
1138.87
1046.55
894.931
688.601
433.202
135.429
-198.527
-562.382
-943.929
-1330.79
-1709.81
-2066.75
-2387.78
-2661.24
-2878.22
-3031.89
-3118.9
-3140.57
-3103.3
-3014.66
-2884.72
-2724.33
-2543.67
-2350.79
-2151.24
-1948.37
-1742.37
-1530.47
-1307.51
-1066.65
-800.374
-501.449
-164.132
216.533
644.744
1118.29
1635.12
2190.33
2776.74
3385.26
4005.05
4623.85
5228.23
5804.08
6337.34
6814.58
7223.23
7552.12
7791.88
7935.54
7977.32
7921.72
7764.74
11066.5
11875.3
12825.5
13976.1
15263.5
16570.6
17755.8
18919.9
20060.6
21158.3
22190.4
23127.3
23936.5
24585
25042.4
25283.1
25288.3
25046.9
24555.6
23820.4
22863.5
21777.8
19787.2
17994
16092.3
14091
12014.9
9892.73
7753.82
5626.04
3533.89
1498.77
-461.258
-2333.2
-4102.04
-5764.58
-7300.07
-8531.72
-9573.81
-10431.5
-11111.3
-11621.3
-11971.5
-12174.3
-12244.7
-12199.3
-12055.8
-11832.3
-11546
-11212
-10842.2
-10446
-10030.1
-9599.49
-9164.7
-8719.57
-8223.76
-7116.91
-6372.38
-5655.09
-4940.66
-4206.76
-3446.22
-2657.63
-1843.95
-1011.62
-169.972
669.547
1494
2289.5
3042.25
3739.39
4369.92
4925.07
5394.9
5771.9
6050.99
6227.65
6297.83
6258.39
6108.07
5848.5
5485.73
5032.36
4529.88
3901.08
3090.38
2320.21
1545.07
790.464
75.7489
-580.605
-1165.16
-1668.22
-2090.27
-2424.15
-2654.51
-2805.32
-2885.56
-2904
-2867.43
-2780.93
-2648.6
-2474.54
-2263.86
-2023.64
-1771.7
-1518.65
-1094.35
-802.875
-492.652
-205.126
58.3047
292.9
497.393
672.963
822.785
951.061
1061.67
1157.39
1239.88
1308.49
1361.79
1398.08
1413.36
1406.37
1376.23
1323.76
1252.55
1171.18
1083.33
992.597
905.308
828.73
770.611
734.633
731.166
761.728
828.666
932.023
1071.29
1244.16
1440.09
1656.37
1889.02
2130.73
2371.97
2601.6
2807.37
2976.51
3096.73
3157.17
3148.76
3067.77
2909.25
2674.75
2369.33
1999.56
1576.47
1117.1
632.751
132.816
-385.093
-895.693
-1396.69
-1878.57
-2339.83
-2773.62
-3177.14
-3545.13
-3872.91
-4154.9
-4385.65
-4560.08
-4673.9
-4723.91
-4707.23
-4625.24
-4478.7
-4270.81
-4006.78
-3693.33
-3337.03
-2945.19
-2525.98
-2088.13
-1641.02
-1194.76
-760.275
-348.168
41.9483
383.337
673.48
905.634
1075.07
1178.28
1213.82
1183.02
1088.09
933.038
722.565
462.336
158.966
-181.354
-552.816
-942.595
-1338.37
-1726.55
-2092.33
-2421.19
-2700.81
-2921.89
-3077.23
-3163.12
-3181.6
-3139.3
-3044.37
-2907.66
-2740.77
-2554.61
-2357.72
-2155.99
-1952.9
-1748.55
-1539.86
-1321.21
-1085.21
-823.752
-529.099
-195.019
183.617
611.55
1086.29
1605.99
2165.63
2757.92
3373.61
4001.7
4629.7
5243.96
5830
6373.36
6860.15
7277.31
7613.23
7858.14
8004.73
8047.09
7989.41
7827.84
11121.4
11933
12876
13949.6
15086.7
16231.6
17227.8
18207.3
19158.6
20065.4
20907.2
21657.1
22284.1
22757.1
23047.4
23131.9
22994.7
22628.4
22034
21222.1
20220.4
19108.6
17132.9
15399.8
13594.4
11723.6
9808.76
7874.25
5943.84
4039.05
2177.91
375.662
-1355.09
-3005.66
-4564.7
-6030.88
-7374.76
-8460.91
-9349.11
-10065.2
-10618.5
-11017.7
-11273.2
-11397.6
-11405.6
-11313.2
-11136.7
-10892.4
-10595.5
-10259.2
-9893.94
-9507.83
-9106.13
-8691.94
-8268.39
-7845.45
-7390.15
-6366.03
-5672.3
-4985.67
-4294.3
-3580.41
-2839.9
-2073.96
-1287.89
-490.108
308.59
1095.97
1859.09
2584.9
3261.19
3877.34
4424.85
4898.27
5289.71
5594.08
5807.96
5927.79
5949.77
5870.55
5688.31
5404.11
5023.44
4558.45
4047.5
3418.11
2631.17
1885.35
1144.19
431.591
-233.859
-835.469
-1362.23
-1807.19
-2175.48
-2462.03
-2645.93
-2758.54
-2808.78
-2805.09
-2753.14
-2656.44
-2517.55
-2339.22
-2125.67
-1883.45
-1629.17
-1371.79
-958.209
-668.265
-367.661
-90.8018
159.82
380.193
569.81
730.823
867.388
984.523
1086.5
1175.82
1254.17
1320.22
1371.04
1405.91
1419.05
1409.41
1375.95
1319.63
1244.38
1158.38
1065.9
971.637
882.308
805.425
748.22
714.682
715.034
750.032
821.699
929.843
1073.97
1251.11
1451.53
1672.99
1911.1
2158.49
2405.47
2640.67
2851.5
3024.76
3147.38
3209.71
3200.45
3116.48
2952.76
2711.29
2397.38
2018.32
1585.93
1117.27
624.313
116.72
-406.637
-921.811
-1426.26
-1910.84
-2374.36
-2810.38
-3216.24
-3586.86
-3917.48
-4202.37
-4435.81
-4612.35
-4727.43
-4778.28
-4761.44
-4677.69
-4528.41
-4316.88
-4048.41
-3729.82
-3367.7
-2969.45
-2543.22
-2097.79
-1642.59
-1187.83
-744.632
-323.415
73.9742
423.254
719.854
956.809
1129.34
1233.87
1268.89
1236.29
1138.17
978.961
763.506
497.495
187.433
-160.499
-541.122
-940.857
-1347.47
-1746.83
-2123.42
-2461.84
-2749.03
-2975.14
-3132.55
-3216.94
-3231.5
-3182.93
-3080.25
-2935.18
-2760.28
-2567.34
-2365.54
-2161.13
-1957.78
-1755.48
-1550.79
-1337.49
-1107.5
-852.003
-562.642
-232.507
143.619
571.159
1047.32
1570.5
2135.49
2734.87
3359.21
3997.32
4636.46
5262.65
5861.04
6416.65
6915.04
7342.56
7687.04
7938.25
8088.43
8131.4
8071.51
7904.96
11177.7
11987.8
12899.5
13888.6
14900.5
15916.1
16763.8
17602.7
18407.9
19166.3
19859.6
20462.9
20946.9
21281.7
21440.4
21401.4
21151.3
20685.3
20008
19133.7
18094.7
16953.2
14974
13278.2
11537.7
9758.6
7960.93
6166.52
4395.53
2664.93
987.692
-626.066
-2168.47
-3634.4
-5015.02
-6309.99
-7482.9
-8455.95
-9211.81
-9805.17
-10247.4
-10547.9
-10717.5
-10769
-10716.8
-10576.6
-10363.8
-10093.5
-9779.52
-9433.89
-9066.11
-8683.12
-8289.27
-7886.51
-7475.49
-7064.02
-6638.51
-5688.48
-5042.91
-4386.9
-3719.15
-3025.84
-2305.35
-1560.96
-799.839
-32.0229
730.392
1474.34
2186.65
2854.61
3467.01
4014.78
4491.32
4893.98
5216.52
5456.13
5611.11
5679.01
5656.5
5540.17
5327.8
5019.8
4621.11
4143.43
3622.65
2988.8
2218.91
1490.45
774.95
95.2997
-530.127
-1085.77
-1562.49
-1955.36
-2274.4
-2516.43
-2655.83
-2730.5
-2750.2
-2723.45
-2655.1
-2547.33
-2401.12
-2217.86
-2000.7
-1755.59
-1497.75
-1233.92
-831.415
-540.304
-246.387
22.1633
261.975
469.601
645.227
791.994
915.138
1020.79
1113.89
1196.24
1270.23
1333.68
1383.1
1416.47
1427.93
1416.08
1379.53
1319.26
1239.46
1147.93
1049.73
950.703
858.109
779.868
722.316
691.006
694.745
734.053
810.493
923.597
1072.86
1254.69
1460.32
1687.73
1932.3
2186.56
2440.67
2682.94
2900.35
3079.18
3205.68
3270.74
3260.68
3173.8
3004.5
2755.14
2431.48
2041.54
1598.09
1118.48
615.385
98.8508
-431.003
-951.495
-1459.89
-1947.51
-2413.55
-2852.07
-3260.6
-3634.26
-3968.25
-4256.65
-4493.43
-4672.79
-4789.96
-4841.55
-4824.01
-4738.64
-4586.44
-4370.84
-4097.32
-3772.79
-3403.92
-2998.17
-2563.75
-2109.43
-1644.71
-1179.94
-726.443
-294.583
111.657
470.153
774.438
1017.06
1193.25
1299.31
1333.86
1298.86
1196.93
1032.8
811.52
538.785
220.946
-135.81
-527.159
-938.609
-1358.05
-1770.69
-2160.16
-2510.02
-2806.23
-3038.36
-3198.3
-3280.63
-3290.54
-3234.39
-3122.35
-2967.2
-2782.65
-2581.56
-2373.86
-2166.27
-1962.68
-1762.9
-1563.05
-1356.22
-1133.48
-885.149
-602.2
-276.765
96.3715
523.264
1001.1
1528.37
2099.64
2707.34
3341.85
3991.73
4643.96
5284.22
5897.16
6467.26
6979.39
7419.19
7773.85
8032.54
8187.05
8230.95
8168.6
7996.36
11220.1
12021.8
12894.1
13806
14712.7
15602
16354.3
17085.3
17776.1
18417.3
18993.2
19480.4
19850.8
20075.9
20129.8
19992.3
19651.5
19105
18359.6
17433
16361.5
15187.3
13192.1
11516.1
9816.29
8099.32
6385.22
4694.87
3046.28
1453.09
-75.7565
-1534.55
-2919.76
-4229.25
-5456.12
-6603.33
-7631.96
-8504.27
-9142.65
-9628.23
-9972.13
-10184
-10275.1
-10258.3
-10148.1
-9959.89
-9708.53
-9408.49
-9072.83
-8712.68
-8336.82
-7951.56
-7560.56
-7165.06
-6764.8
-6362.95
-5959.12
-5074.94
-4474.34
-3848.74
-3205.01
-2532.63
-1832
-1108
-369.252
372.821
1104.95
1813.18
2483.82
3104.15
3663.42
4153.56
4569.33
4910.48
5172.08
5353.55
5454.97
5475.15
5411.39
5260.41
5019.6
4688.74
4272.09
3780.91
3248.94
2607.47
1848.33
1130.76
433.231
-221.802
-815.648
-1333.28
-1767.1
-2112.31
-2385.99
-2583.44
-2682.44
-2719.47
-2708.16
-2657.62
-2572.2
-2452.84
-2298.96
-2110.44
-1889.26
-1640.62
-1378.34
-1106.84
-713.68
-419.505
-129.441
133.202
364.253
560.635
723.166
856.003
965.666
1059.63
1142.63
1218.11
1287.79
1348.81
1397.86
1429.1
1440.34
1426.85
1387.56
1323.28
1238.34
1140.34
1035.23
930.015
832.725
751.877
692.648
662.418
669.001
712.205
793.177
911.245
1065.67
1252.44
1463.82
1697.95
1950.06
2212.64
2475.68
2727.1
2953.35
3139.96
3272.64
3342.22
3332.95
3243.64
3068.77
2810.89
2476.22
2073.7
1617.33
1124.77
609.599
82.3695
-455.496
-982.471
-1495.76
-1987.21
-2456.49
-2898.22
-3310.22
-3687.76
-4026.02
-4318.84
-4559.75
-4742.46
-4861.96
-4914.87
-4897.01
-4809.52
-4653.78
-4433.38
-4153.93
-3822.51
-3445.86
-3031.5
-2587.67
-2123.14
-1647.47
-1171.16
-705.765
-261.687
155.148
524.274
837.402
1086.64
1267.05
1374.83
1408.66
1370.9
1264.5
1094.67
866.714
586.336
259.653
-107.123
-510.768
-935.743
-1370.11
-1798.25
-2202.8
-2566.09
-2872.91
-3112.1
-3275.17
-3354.63
-3359.17
-3293.99
-3170.81
-3003.71
-2807.74
-2597
-2382.35
-2171.05
-1967.21
-1770.47
-1576.41
-1377.29
-1163.17
-923.335
-647.951
-328.156
41.9164
467.109
947.26
1479.24
2057.76
2675.04
3321.25
3984.69
4652.03
5308.53
5938.32
6525.22
7053.32
7507.44
7873.96
8141.4
8300.99
8345.97
8281
8102.35
11239.5
12030.7
12865
13711.5
14530.8
15292.5
15994.3
16641.7
17241.5
17789.3
18271.2
18665.3
18944.9
19082.2
19052.1
18835.5
18421.5
17809.1
17006.7
16035
14933.9
13724.3
11704.6
10034.5
8355.65
6676.93
5019.62
3404.96
1849.89
365.641
-1042.13
-2371.67
-3623.75
-4799.34
-5890.5
-6909.87
-7814.84
-8592.65
-9126.98
-9517.58
-9773.84
-9905.62
-9924.38
-9843.3
-9677.08
-9440.9
-9149.52
-8817.02
-8456.06
-8077.31
-7689.07
-7297.23
-6905.08
-6513.34
-6121.05
-5728.89
-5344.15
-4515.9
-3958.09
-3362.76
-2743.32
-2092.19
-1411.22
-706.461
12.3344
732.599
1439.93
2119.37
2756.49
3338.17
3853.64
4295.39
4659.07
4946.48
5153.72
5282.45
5334.63
5310.48
5208.15
5024.58
4756.83
4403.97
3969.49
3464.11
2919.51
2267.8
1513.55
800.825
114.143
-523.973
-1093.94
-1580.61
-1976.89
-2279.47
-2509.87
-2661.19
-2724.13
-2723.28
-2680.27
-2605.13
-2501.99
-2370.66
-2208.96
-2015.09
-1789.67
-1537.08
-1269.63
-989.54
-603.087
-304.286
-15.4286
243.602
467.801
654.25
804.356
923.303
1019.09
1100.17
1175.77
1241.35
1306.65
1365.42
1413.24
1444.27
1456.27
1441.59
1399.9
1331.5
1240.75
1135.24
1021.94
909.099
805.66
720.614
658.915
629.16
638.154
685.061
770.556
893.732
1053.44
1245.52
1463.25
1704.84
1965.49
2237.73
2511.34
2773.8
3010.87
3207.07
3348.5
3423.45
3415.87
3324.34
3143.77
2876.53
2529.47
2112.59
1641.37
1133.84
604.768
65.2771
-481.857
-1016.19
-1534.97
-2030.64
-2503.51
-2948.83
-3364.76
-3746.81
-4090.08
-4388.14
-4634.04
-4820.92
-4943.53
-4997.86
-4979.45
-4889.83
-4730.23
-4504.45
-4218.34
-3879.11
-3493.66
-3069.58
-2615.13
-2139.06
-1650.99
-1161.57
-682.635
-224.643
204.594
585.796
909.018
1165.85
1351.07
1460.77
1493.8
1452.63
1341.03
1164.68
929.205
640.288
303.742
-74.2692
-491.737
-932.111
-1383.61
-1829.62
-2251.62
-2630.5
-2949.65
-3196.98
-3363.2
-3440.2
-3437.94
-3362.03
-3225.77
-3044.66
-2835.3
-2613.28
-2390.54
-2174.95
-1970.91
-1777.81
-1590.6
-1400.55
-1196.57
-966.728
-700.062
-386.99
-20.7417
402.88
885.444
1422.73
2009.46
2637.62
3297.1
3975.94
4660.45
5335.44
5984.46
6590.58
7137
7607.57
7987.74
8265.28
8430.75
8477.05
8409.17
8223.32
11234.5
12016.1
12818.4
13612.2
14362.4
15039.4
15683.1
16262.7
16789.4
17261.7
17667.5
17986.2
18192.4
18259
18161.5
17881.3
17408.1
16741.3
15890.6
14878.6
13748.7
12501.8
10452.6
8776.54
7101.67
5441.04
3818.16
2255.98
771.177
-626.763
-1934.89
-3155.03
-4292.5
-5350.36
-6322.02
-7227.84
-8022.91
-8705.35
-9153.55
-9460.7
-9638.5
-9697.34
-9649.03
-9507.15
-9286.67
-9002.81
-8670.3
-8303.21
-7914.15
-7513.51
-7109.4
-6707.49
-6310.87
-5919.95
-5533.07
-5149.81
-4790.55
-3998.31
-3487.17
-2922.04
-2327.16
-1697.64
-1036.24
-349.71
351.411
1053.56
1741.21
2398.25
3009.27
3560.36
4040.34
4441.78
4760.91
5001.17
5159.48
5239.84
5246.22
5180.44
5041.67
4827.22
4533.89
4159.89
3707.81
3187.69
2629
1964.91
1210.12
496.509
-186.066
-814.576
-1367.9
-1829.99
-2193.39
-2457.91
-2646.52
-2752.84
-2779.95
-2740.32
-2664.61
-2563.98
-2442.56
-2299.07
-2129.66
-1930.65
-1701.08
-1444.37
-1171.1
-881.68
-498.898
-193.932
96.3001
354.019
573.236
750.967
889.185
994.256
1075.78
1144.22
1205.83
1266.07
1326.35
1382.95
1430.3
1462.41
1475.6
1460.54
1416.75
1344.09
1246.79
1132.63
1009.75
887.696
776.565
685.287
620.657
590.611
601.697
652.148
742.108
870.487
1035.71
1233.43
1458.04
1707.8
1978.02
2261.33
2547.3
2822.89
3073
3280.88
3433.45
3515.69
3511.15
3417.42
3231.07
2953.56
2592.55
2159.34
1671.16
1146.4
601.412
47.9397
-509.834
-1052.47
-1577.38
-2077.77
-2554.67
-3004.09
-3424.57
-3811.89
-4161.04
-4465.28
-4717.03
-4908.74
-5035.03
-5091.25
-5072.4
-4980.23
-4816.21
-4584.36
-4290.73
-3942.76
-3547.5
-3112.58
-2646.29
-2157.37
-1655.42
-1151.29
-657.124
-183.38
260.116
654.962
989.528
1255.05
1445.67
1557.46
1589.45
1544.27
1426.69
1242.96
999.113
700.767
353.437
-37.0087
-469.822
-927.533
-1398.51
-1864.92
-2306.93
-2703.72
-3037.05
-3293.68
-3463.09
-3538.08
-3527.36
-3438.9
-3287.38
-3090
-2865.11
-2630
-2397.91
-2177.39
-1973.26
-1784.47
-1605.28
-1425.85
-1233.69
-1015.54
-758.88
-453.622
-91.9781
330.038
815.181
1358.39
1954.33
2594.69
3269.06
3965.17
4668.97
5364.77
6035.49
6663.37
7230.59
7719.87
8115.61
8404.66
8576.85
8624.66
8553.62
8359.69
11206.8
11981.8
12759.6
13513
14210.8
14828.2
15417.9
15941.8
16409.2
16819.8
17163
17419.8
17566.1
17575.6
17424
17092.8
16571.7
15860.1
14968
13919.1
12759.2
11473.3
9392.7
7700.54
6014.11
4353.77
2745.76
1216.37
-217.518
-1547.63
-2773.24
-3899.47
-4935.43
-5887.74
-6755.19
-7557.12
-8250.4
-8833.27
-9214.62
-9448.31
-9555.54
-9547.61
-9436.71
-9236.98
-8963.85
-8632.62
-8258.07
-7854.61
-7435.1
-7009.89
-6586.94
-6171.98
-5768.11
-5375.5
-4991.83
-4615.39
-4265.27
-3539.93
-3056.78
-2520.67
-1950.69
-1343.34
-701.633
-32.5151
653.026
1340.56
2013.37
2654.02
3245.85
3773.78
4225.8
4594.19
4875.35
5074.12
5187.95
5223.38
5186.58
5081.16
4907.56
4663.63
4345.93
3951.69
3482.36
2947.11
2372.83
1694.76
934.374
214.347
-470.588
-1096.61
-1640.31
-2084.04
-2419.06
-2647.95
-2796.61
-2859.01
-2848.83
-2769.08
-2659.38
-2532.22
-2391.97
-2236.28
-2059.54
-1855.9
-1622.57
-1361.88
-1082.22
-782.759
-400.535
-87.7336
206.485
465.253
681.367
851.528
978.228
1069.32
1135.1
1190
1241.02
1288.52
1346.41
1401.31
1449.63
1482.74
1498.29
1483.88
1438.28
1361.19
1256.52
1132.48
998.448
865.486
744.981
645.824
577.457
546.591
559.48
613.394
708.01
841.738
1012.64
1216.32
1448.32
1706.91
1987.69
2283.45
2583.57
2874.44
3139.8
3362.13
3527.77
3618.89
3618.76
3522.89
3330.74
3041.98
2665.34
2213.72
1706.28
1161.88
598.886
29.6863
-540.039
-1091.79
-1623.32
-2128.71
-2609.88
-3063.72
-3489.25
-3882.53
-4238.45
-4549.88
-4808.51
-5006.05
-5136.65
-5195.03
-5175.72
-5080.85
-4911.94
-4673.33
-4371.35
-4013.68
-3607.54
-3160.66
-2681.32
-2178.2
-1660.88
-1140.43
-629.278
-137.823
321.873
732.067
1079.24
1354.67
1551.3
1665.32
1696.14
1646.07
1521.65
1329.62
1076.55
767.924
408.944
4.89101
-444.663
-921.787
-1414.75
-1904.31
-2369.09
-2786.37
-3135.95
-3403.2
-3576.33
-3648.64
-3628.1
-3525.04
-3355.86
-3139.66
-2896.81
-2646.61
-2403.77
-2177.81
-1973.51
-1789.85
-1620.11
-1453.01
-1274.55
-1069.77
-824.846
-528.476
-172.222
248.047
735.935
1285.71
1891.89
2545.8
3236.7
3952.01
4677.3
5396.33
6091.33
6743.63
7334.28
7844.71
8258.08
8560.18
8739.98
8789.62
8714.93
8511.95
11159.4
11931.7
12692.7
13417.4
14077.2
14651.9
15196.2
15674.7
16093.6
16452.9
16743.4
16948.2
17044.9
17008.1
16813.4
16441.9
15882.5
15134.2
14206.3
13122.7
11930.1
10603.6
8492.72
6775.2
5062.3
3386.07
1774.95
261.094
-1138.55
-2416.41
-3573.5
-4618.2
-5563.08
-6418.93
-7190.96
-7896.73
-8495.76
-8984.49
-9305.57
-9473.55
-9516.96
-9447.59
-9277.86
-9022.76
-8698.45
-8320.12
-7902.69
-7461.22
-7009.26
-6557.15
-6112.8
-5682.17
-5268.61
-4872.24
-4490.07
-4118.85
-3773.18
-3122
-2661.08
-2153.34
-1608.97
-1024.66
-403.055
249.227
921.099
1597.36
2260.02
2890.04
3469.24
3981.01
4412.04
4753.99
5003.03
5165.17
5238.09
5231.21
5153.08
5009.35
4802
4529.65
4188.7
3775.17
3289.12
2738.5
2147.06
1453.87
683.256
-48.642
-742.219
-1372.82
-1913.93
-2345.36
-2655.59
-2851.02
-2960.88
-2979.48
-2929.28
-2808.1
-2662.84
-2507.98
-2348.35
-2180.6
-1997.21
-1789.82
-1553.45
-1289.18
-1002.58
-692.348
-307.619
14.923
315.855
578.13
793.028
956.701
1072.25
1148.68
1197.34
1237.72
1277.1
1321.26
1366.97
1419.88
1469.8
1509.07
1524.39
1511.74
1464.76
1383.07
1270.15
1134.84
987.897
842.102
709.973
601.856
528.779
496.583
511.122
568.578
668.032
807.311
984.119
1194.05
1433.9
1701.95
1994.25
2303.88
2620.04
2928.42
3211.28
3451.54
3632.04
3734
3739.93
3641.52
3443.56
3142.33
2748.13
2275.87
1746.53
1179.89
596.683
9.9484
-573.026
-1134.63
-1673.12
-2183.69
-2669.32
-3127.89
-3559
-3959
-4322.66
-4642.36
-4908.89
-5113.25
-5248.87
-5309.82
-5290.08
-5192.13
-5017.75
-4771.62
-4460.41
-4092.05
-3674
-3214.02
-2720.44
-2201.8
-1667.62
-1129.18
-599.257
-87.8727
390.029
817.378
1178.44
1465.15
1668.41
1784.72
1814.11
1758.32
1626.09
1424.8
1161.64
841.91
470.523
51.5941
-415.719
-914.605
-1432.22
-1947.88
-2438.47
-2879.06
-3247.21
-3526.65
-3703.78
-3772.84
-3740.86
-3620.91
-3431.36
-3193.55
-2930.17
-2662.75
-2407.78
-2175.31
-1971.02
-1793.37
-1634.63
-1481.87
-1319.13
-1129.73
-898.361
-612.153
-262.057
156.311
646.975
1204.08
1821.59
2490.46
3199.59
3936.08
4685.09
5429.85
6151.81
6831.33
7448.22
7982.4
8415.58
8732.35
8920.71
8971.81
8893.61
8680.57
11094.9
11868.6
12620.7
13327.4
13962.2
14508.6
15016.5
15458.8
15837.8
16153.3
16398
16557.8
16612.6
16538
16309.5
15906.9
15318
14540.3
13581.5
12465
11236.7
9866.66
7729.66
5978.34
4223.71
2516.58
884.617
-629.393
-2009.94
-3249.51
-4350
-5323.54
-6185.65
-6948.91
-7633.16
-8247.55
-8759.19
-9161.33
-9422.34
-9531.09
-9516.54
-9390.4
-9164.97
-8856.49
-8482.35
-8057.18
-7595.89
-7114.76
-6628.59
-6147.52
-5679.39
-5230.66
-4805.22
-4403.29
-4021.3
-3654.35
-3311.84
-2733.36
-2294.02
-1814.93
-1297.4
-737.517
-136.973
498.616
1158.44
1826.62
2483.68
3108.68
3681.67
4184.06
4600.77
4922.51
5144.72
5274.55
5309.45
5262.13
5143.81
4962.45
4721.87
4421.77
4058.6
3626.85
3124.87
2558.93
1948.93
1240.12
455.128
-294.077
-1002.48
-1644.98
-2190.89
-2616.7
-2905.16
-3069.48
-3141.44
-3114.67
-3018.88
-2856.13
-2673.49
-2489.49
-2309.81
-2130.15
-1941.06
-1731.2
-1493.04
-1225.93
-932.116
-610.499
-220.418
114.043
424.675
693.203
909.001
1067.27
1172.53
1233.34
1268.32
1294.74
1315.94
1345.04
1385.87
1437.54
1489.95
1532.75
1553.66
1544.4
1496.51
1410.12
1288.02
1139.89
977.957
817.007
670.965
552.87
474.144
440.269
456.277
517.511
621.928
767.15
950.079
1166.53
1414.63
1692.65
1997.33
2322.23
2656.34
2984.53
3287.7
3548.95
3746.59
3861.31
3875.41
3773.71
3570.43
3255.55
2841.77
2346.55
1792.33
1200.64
594.793
-11.4478
-609.044
-1181.16
-1726.87
-2242.69
-2732.84
-3196.33
-3633.48
-4040.96
-4413.33
-4742.51
-5018.22
-5230.62
-5371.98
-5435.94
-5415.65
-5314.36
-5133.93
-4879.51
-4558.17
-4178.14
-3747.08
-3272.88
-2763.86
-2228.38
-1675.82
-1117.68
-567.193
-33.4054
464.794
910.913
1287.92
1587.06
1797.65
1916.25
1944.23
1881.39
1740.23
1528.64
1254.52
922.881
538.495
102.918
-381.979
-905.717
-1450.87
-1995.86
-2515.55
-2982.53
-3371.8
-3665.17
-3846.43
-3911.99
-3866.55
-3727.17
-3514.27
-3251.71
-2964.77
-2677.57
-2408.53
-2168.99
-1964.95
-1794.38
-1648.34
-1512.07
-1367.34
-1195.67
-979.699
-705.15
-362.075
54.6233
547.231
1112.91
1742.86
2428.13
3157.22
3916.93
4692
5465.09
6216.84
6926.56
7572.69
8133.44
8588.83
8922.07
9120.01
9173.48
9090.73
8866.36
11043.6
11821.2
12572
13272.5
13896.7