/*--------------------------------*- C++ -*----------------------------------*\
| =========                 |                                                 |
| \\      /  F ield         | OpenFOAM: The Open Source CFD Toolbox           |
|  \\    /   O peration     | Version:  v1912                                 |
|   \\  /    A nd           | Website:  www.openfoam.com                      |
|    \\/     M anipulation  |                                                 |
\*---------------------------------------------------------------------------*/
FoamFile
{
    version     2.0;
    format      ascii;
    class       volScalarField;
    location    "90";
    object      nut;
}
// * * * * * * * * * * * * * * * * * * * * * * * * * * * * * * * * * * * * * //

dimensions      [0 2 -1 0 0 0 0];


internalField   nonuniform List<scalar> 
14268
(
6.42877e-05
6.44649e-05
6.46476e-05
6.48362e-05
6.50306e-05
6.52308e-05
6.54364e-05
6.56462e-05
6.58496e-05
6.60413e-05
6.62172e-05
6.63768e-05
6.65245e-05
6.66624e-05
6.67885e-05
6.69001e-05
6.69966e-05
6.70801e-05
6.71502e-05
6.72056e-05
6.72431e-05
6.7259e-05
6.72559e-05
6.7227e-05
6.71584e-05
6.70459e-05
6.68876e-05
6.6696e-05
6.65722e-05
6.65292e-05
6.65271e-05
6.6542e-05
6.65837e-05
6.66536e-05
6.67086e-05
6.67241e-05
6.67195e-05
6.66906e-05
6.66255e-05
6.65555e-05
6.65377e-05
6.65438e-05
6.65768e-05
6.66571e-05
6.68015e-05
6.70176e-05
6.73018e-05
6.76393e-05
6.79747e-05
6.82474e-05
6.84672e-05
6.86417e-05
6.87756e-05
6.8874e-05
6.89507e-05
6.90225e-05
6.90948e-05
6.91613e-05
6.92078e-05
6.9224e-05
6.92097e-05
6.91604e-05
6.90904e-05
6.90203e-05
6.89596e-05
6.89132e-05
6.88733e-05
6.8832e-05
6.87895e-05
6.87567e-05
6.87376e-05
6.87289e-05
6.87317e-05
6.87624e-05
6.88414e-05
6.89896e-05
6.92623e-05
6.97242e-05
7.00999e-05
7.02473e-05
7.02152e-05
6.97723e-05
6.89575e-05
6.84706e-05
6.8344e-05
6.87896e-05
2.74484e-06
2.81348e-06
2.88676e-06
2.9652e-06
3.04902e-06
3.13831e-06
3.2328e-06
3.33187e-06
3.43358e-06
3.53619e-06
3.63863e-06
3.73989e-06
3.83966e-06
3.93832e-06
4.03696e-06
4.13739e-06
4.24153e-06
4.35083e-06
4.46575e-06
4.58348e-06
4.69609e-06
4.7959e-06
4.87561e-06
4.92805e-06
4.95174e-06
4.9486e-06
4.91309e-06
4.83794e-06
4.76668e-06
4.74986e-06
4.75583e-06
4.78328e-06
4.84303e-06
4.93858e-06
5.06097e-06
5.15861e-06
5.21664e-06
5.24372e-06
5.24893e-06
5.23727e-06
5.20008e-06
5.14288e-06
5.09617e-06
5.06173e-06
5.04672e-06
5.06095e-06
5.10326e-06
5.17048e-06
5.25894e-06
5.35069e-06
5.43548e-06
5.51173e-06
5.57776e-06
5.62826e-06
5.6594e-06
5.66769e-06
5.64483e-06
5.57785e-06
5.46068e-06
5.29223e-06
5.07784e-06
4.82577e-06
4.54263e-06
4.23642e-06
3.91942e-06
3.6076e-06
3.31256e-06
3.04271e-06
2.8059e-06
2.61002e-06
2.45486e-06
2.32972e-06
2.22401e-06
2.13922e-06
2.07742e-06
2.0399e-06
2.03032e-06
2.07697e-06
2.16938e-06
2.20856e-06
2.18108e-06
2.02629e-06
1.86265e-06
1.81703e-06
1.89663e-06
2.24768e-06
7.84796e-07
8.01714e-07
8.19811e-07
8.39175e-07
8.59816e-07
8.81718e-07
9.04787e-07
9.28819e-07
9.53484e-07
9.7822e-07
1.00267e-06
1.02674e-06
1.05042e-06
1.07379e-06
1.0969e-06
1.12028e-06
1.14431e-06
1.16939e-06
1.19574e-06
1.22266e-06
1.24782e-06
1.26946e-06
1.28594e-06
1.29574e-06
1.29891e-06
1.29636e-06
1.28511e-06
1.2631e-06
1.24247e-06
1.23678e-06
1.23757e-06
1.24301e-06
1.25569e-06
1.27647e-06
1.3032e-06
1.32332e-06
1.33383e-06
1.33741e-06
1.3368e-06
1.33132e-06
1.31934e-06
1.30172e-06
1.28594e-06
1.27777e-06
1.27545e-06
1.27729e-06
1.28488e-06
1.29914e-06
1.31898e-06
1.34016e-06
1.3588e-06
1.37547e-06
1.39008e-06
1.40167e-06
1.40918e-06
1.41112e-06
1.40545e-06
1.38897e-06
1.36029e-06
1.31899e-06
1.26651e-06
1.20507e-06
1.13637e-06
1.06246e-06
9.8648e-07
9.12702e-07
8.43685e-07
7.81359e-07
7.27645e-07
6.84097e-07
6.50334e-07
6.23746e-07
6.02109e-07
5.85385e-07
5.73317e-07
5.65249e-07
5.61135e-07
5.64492e-07
5.78516e-07
5.86244e-07
5.84045e-07
5.65624e-07
5.40521e-07
5.33178e-07
5.49605e-07
6.14669e-07
4.09688e-07
4.15848e-07
4.22504e-07
4.2968e-07
4.37368e-07
4.45566e-07
4.54246e-07
4.63337e-07
4.72714e-07
4.8213e-07
4.91372e-07
5.00454e-07
5.09399e-07
5.18277e-07
5.27131e-07
5.36135e-07
5.45439e-07
5.55206e-07
5.65531e-07
5.76235e-07
5.86293e-07
5.94976e-07
6.01648e-07
6.05668e-07
6.06992e-07
6.06144e-07
6.01885e-07
5.93346e-07
5.85008e-07
5.8258e-07
5.828e-07
5.84761e-07
5.8951e-07
5.97405e-07
6.07543e-07
6.15031e-07
6.18736e-07
6.19773e-07
6.19204e-07
6.16395e-07
6.1087e-07
6.03458e-07
5.9615e-07
5.92105e-07
5.9098e-07
5.91367e-07
5.93633e-07
5.98529e-07
6.057e-07
6.13563e-07
6.20391e-07
6.2643e-07
6.31684e-07
6.35808e-07
6.38403e-07
6.38893e-07
6.36409e-07
6.29684e-07
6.1811e-07
6.01533e-07
5.80649e-07
5.56497e-07
5.29921e-07
5.01877e-07
4.73828e-07
4.47341e-07
4.23204e-07
4.02042e-07
3.84356e-07
3.70428e-07
3.59933e-07
3.51935e-07
3.45648e-07
3.4097e-07
3.37756e-07
3.35652e-07
3.34471e-07
3.34757e-07
3.37024e-07
3.37955e-07
3.3689e-07
3.31895e-07
3.26407e-07
3.25137e-07
3.31146e-07
3.48268e-07
3.04524e-07
3.06985e-07
3.09715e-07
3.12724e-07
3.1599e-07
3.1948e-07
3.23161e-07
3.27016e-07
3.31027e-07
3.35146e-07
3.39304e-07
3.43425e-07
3.47498e-07
3.51546e-07
3.55592e-07
3.59716e-07
3.63991e-07
3.68501e-07
3.73292e-07
3.78312e-07
3.83084e-07
3.87221e-07
3.90418e-07
3.92377e-07
3.93069e-07
3.92754e-07
3.90818e-07
3.86881e-07
3.82826e-07
3.81488e-07
3.81516e-07
3.82271e-07
3.84213e-07
3.87514e-07
3.91803e-07
3.94931e-07
3.96417e-07
3.96767e-07
3.96407e-07
3.94937e-07
3.92172e-07
3.88533e-07
3.85e-07
3.83016e-07
3.82416e-07
3.82535e-07
3.83459e-07
3.85594e-07
3.88827e-07
3.92481e-07
3.95703e-07
3.98532e-07
4.0097e-07
4.02849e-07
4.04009e-07
4.04236e-07
4.03152e-07
4.00168e-07
3.95007e-07
3.87606e-07
3.78325e-07
3.67718e-07
3.56229e-07
3.44426e-07
3.32958e-07
3.2247e-07
3.13291e-07
3.05562e-07
2.99361e-07
2.94683e-07
2.91332e-07
2.88994e-07
2.87362e-07
2.86304e-07
2.85624e-07
2.85218e-07
2.85143e-07
2.85715e-07
2.86916e-07
2.87584e-07
2.87567e-07
2.86554e-07
2.85101e-07
2.84771e-07
2.87134e-07
2.91092e-07
2.72298e-07
2.73315e-07
2.74511e-07
2.75877e-07
2.77367e-07
2.78944e-07
2.80605e-07
2.82365e-07
2.8423e-07
2.86195e-07
2.88234e-07
2.9029e-07
2.9233e-07
2.94366e-07
2.96401e-07
2.98482e-07
3.00646e-07
3.02935e-07
3.05376e-07
3.07954e-07
3.10454e-07
3.12637e-07
3.14339e-07
3.15396e-07
3.15799e-07
3.15679e-07
3.14732e-07
3.12775e-07
3.10594e-07
3.09771e-07
3.09731e-07
3.10013e-07
3.10844e-07
3.12376e-07
3.14474e-07
3.16176e-07
3.17004e-07
3.17216e-07
3.17011e-07
3.16277e-07
3.1493e-07
3.13175e-07
3.11552e-07
3.10667e-07
3.10417e-07
3.10507e-07
3.11048e-07
3.12244e-07
3.14016e-07
3.15983e-07
3.17693e-07
3.19187e-07
3.20458e-07
3.21405e-07
3.21982e-07
3.22115e-07
3.21632e-07
3.20238e-07
3.17779e-07
3.14213e-07
3.09754e-07
3.04753e-07
2.99472e-07
2.94171e-07
2.89213e-07
2.84844e-07
2.81255e-07
2.78402e-07
2.76213e-07
2.74652e-07
2.73745e-07
2.73238e-07
2.73053e-07
2.72996e-07
2.73132e-07
2.73342e-07
2.73538e-07
2.7382e-07
2.74076e-07
2.74076e-07
2.73715e-07
2.73201e-07
2.7266e-07
2.7349e-07
2.7503e-07
2.76288e-07
2.61928e-07
2.62403e-07
2.63015e-07
2.63721e-07
2.64463e-07
2.65237e-07
2.66075e-07
2.67007e-07
2.6804e-07
2.69162e-07
2.7033e-07
2.71506e-07
2.72676e-07
2.73845e-07
2.75013e-07
2.76209e-07
2.77454e-07
2.78766e-07
2.80154e-07
2.81628e-07
2.83097e-07
2.84404e-07
2.85433e-07
2.86089e-07
2.86368e-07
2.86346e-07
2.85844e-07
2.84763e-07
2.8345e-07
2.82843e-07
2.82757e-07
2.82866e-07
2.83213e-07
2.83894e-07
2.84875e-07
2.85717e-07
2.86142e-07
2.86253e-07
2.86153e-07
2.8576e-07
2.85009e-07
2.83971e-07
2.83164e-07
2.82817e-07
2.82756e-07
2.82917e-07
2.83434e-07
2.8436e-07
2.85604e-07
2.86909e-07
2.88083e-07
2.89122e-07
2.89994e-07
2.90653e-07
2.91054e-07
2.91202e-07
2.91025e-07
2.90358e-07
2.89088e-07
2.87213e-07
2.84852e-07
2.82226e-07
2.79562e-07
2.77028e-07
2.7473e-07
2.72728e-07
2.71086e-07
2.69901e-07
2.68994e-07
2.68444e-07
2.68264e-07
2.68279e-07
2.68569e-07
2.68953e-07
2.69426e-07
2.69953e-07
2.7074e-07
2.71573e-07
2.72127e-07
2.72445e-07
2.72527e-07
2.72351e-07
2.72104e-07
2.73094e-07
2.73948e-07
2.74417e-07
2.58399e-07
2.58733e-07
2.59169e-07
2.59662e-07
2.60151e-07
2.60648e-07
2.61189e-07
2.61801e-07
2.62502e-07
2.63284e-07
2.64096e-07
2.64901e-07
2.65693e-07
2.66481e-07
2.67279e-07
2.6808e-07
2.68905e-07
2.69759e-07
2.70648e-07
2.71586e-07
2.72551e-07
2.73435e-07
2.74156e-07
2.7463e-07
2.74859e-07
2.74877e-07
2.74563e-07
2.73886e-07
2.72992e-07
2.72505e-07
2.72354e-07
2.72359e-07
2.72498e-07
2.72882e-07
2.73493e-07
2.74192e-07
2.74629e-07
2.74792e-07
2.74722e-07
2.74503e-07
2.74136e-07
2.73614e-07
2.73211e-07
2.73049e-07
2.73026e-07
2.73161e-07
2.73569e-07
2.74315e-07
2.75348e-07
2.76411e-07
2.77308e-07
2.78065e-07
2.78664e-07
2.7905e-07
2.79246e-07
2.79322e-07
2.79232e-07
2.78874e-07
2.78164e-07
2.77057e-07
2.75604e-07
2.73933e-07
2.72195e-07
2.70515e-07
2.691e-07
2.68029e-07
2.67379e-07
2.66799e-07
2.66447e-07
2.66257e-07
2.66395e-07
2.66637e-07
2.6707e-07
2.67566e-07
2.68058e-07
2.68539e-07
2.68936e-07
2.69402e-07
2.6979e-07
2.69887e-07
2.69668e-07
2.69478e-07
2.69093e-07
2.70275e-07
2.71418e-07
2.72226e-07
2.56361e-07
2.5673e-07
2.57186e-07
2.57691e-07
2.58177e-07
2.58658e-07
2.59171e-07
2.59736e-07
2.60368e-07
2.61061e-07
2.61756e-07
2.62422e-07
2.63073e-07
2.63715e-07
2.64354e-07
2.64982e-07
2.65614e-07
2.66256e-07
2.66921e-07
2.67627e-07
2.68368e-07
2.69075e-07
2.69664e-07
2.70073e-07
2.70289e-07
2.70349e-07
2.70161e-07
2.69685e-07
2.6902e-07
2.68595e-07
2.68433e-07
2.68419e-07
2.68474e-07
2.68654e-07
2.68961e-07
2.69218e-07
2.69349e-07
2.6936e-07
2.69281e-07
2.69053e-07
2.68682e-07
2.68333e-07
2.68071e-07
2.67882e-07
2.67885e-07
2.68173e-07
2.68759e-07
2.69588e-07
2.7057e-07
2.71525e-07
2.72386e-07
2.73125e-07
2.7369e-07
2.74077e-07
2.7433e-07
2.74483e-07
2.74513e-07
2.74344e-07
2.73876e-07
2.73005e-07
2.71776e-07
2.70405e-07
2.68958e-07
2.67615e-07
2.66634e-07
2.65818e-07
2.65221e-07
2.64713e-07
2.64406e-07
2.64326e-07
2.64555e-07
2.64877e-07
2.65349e-07
2.65816e-07
2.6638e-07
2.67018e-07
2.67959e-07
2.68779e-07
2.69347e-07
2.69764e-07
2.69604e-07
2.69408e-07
2.68869e-07
2.6995e-07
2.71307e-07
2.71986e-07
2.54067e-07
2.54584e-07
2.55172e-07
2.55801e-07
2.56406e-07
2.57002e-07
2.57623e-07
2.58281e-07
2.58981e-07
2.59721e-07
2.60409e-07
2.61058e-07
2.61696e-07
2.62308e-07
2.62877e-07
2.63418e-07
2.63955e-07
2.64495e-07
2.6507e-07
2.65688e-07
2.66349e-07
2.66991e-07
2.67548e-07
2.67952e-07
2.6818e-07
2.68268e-07
2.68123e-07
2.67741e-07
2.67168e-07
2.66786e-07
2.66612e-07
2.66558e-07
2.66599e-07
2.66813e-07
2.67208e-07
2.67712e-07
2.68076e-07
2.68226e-07
2.68187e-07
2.68025e-07
2.67747e-07
2.67419e-07
2.67199e-07
2.67033e-07
2.66991e-07
2.67213e-07
2.67754e-07
2.68576e-07
2.6952e-07
2.70337e-07
2.71073e-07
2.71703e-07
2.7215e-07
2.72395e-07
2.72451e-07
2.72447e-07
2.72422e-07
2.72208e-07
2.71715e-07
2.70946e-07
2.69926e-07
2.68671e-07
2.67413e-07
2.6619e-07
2.65047e-07
2.64269e-07
2.63686e-07
2.63201e-07
2.62965e-07
2.62926e-07
2.63168e-07
2.63428e-07
2.63821e-07
2.64331e-07
2.64784e-07
2.65277e-07
2.65759e-07
2.66192e-07
2.66606e-07
2.66822e-07
2.66564e-07
2.66381e-07
2.66039e-07
2.68306e-07
2.72235e-07
2.74561e-07
2.49945e-07
2.50836e-07
2.51786e-07
2.52766e-07
2.53692e-07
2.54582e-07
2.55471e-07
2.56353e-07
2.57212e-07
2.58083e-07
2.58825e-07
2.59541e-07
2.60243e-07
2.60872e-07
2.61404e-07
2.61899e-07
2.6238e-07
2.62879e-07
2.63422e-07
2.64023e-07
2.6468e-07
2.65346e-07
2.65923e-07
2.66368e-07
2.66637e-07
2.66778e-07
2.66716e-07
2.66406e-07
2.65929e-07
2.65587e-07
2.65425e-07
2.65374e-07
2.65396e-07
2.65504e-07
2.65727e-07
2.66015e-07
2.66219e-07
2.66279e-07
2.6622e-07
2.65996e-07
2.65632e-07
2.65253e-07
2.64837e-07
2.64512e-07
2.64473e-07
2.64782e-07
2.65419e-07
2.66325e-07
2.67347e-07
2.68277e-07
2.69138e-07
2.69904e-07
2.70493e-07
2.7088e-07
2.71034e-07
2.71034e-07
2.71031e-07
2.70955e-07
2.70619e-07
2.69846e-07
2.68586e-07
2.67263e-07
2.65995e-07
2.64725e-07
2.63602e-07
2.62603e-07
2.61898e-07
2.61356e-07
2.60941e-07
2.60657e-07
2.60671e-07
2.60875e-07
2.61278e-07
2.61657e-07
2.62189e-07
2.62831e-07
2.63639e-07
2.64441e-07
2.65175e-07
2.65744e-07
2.65889e-07
2.66412e-07
2.68788e-07
2.791e-07
2.99954e-07
3.19835e-07
2.42126e-07
2.43777e-07
2.45472e-07
2.47164e-07
2.48752e-07
2.50245e-07
2.51678e-07
2.53017e-07
2.54226e-07
2.55391e-07
2.56288e-07
2.57165e-07
2.57994e-07
2.58651e-07
2.59168e-07
2.59646e-07
2.60123e-07
2.60607e-07
2.61146e-07
2.6175e-07
2.62429e-07
2.63145e-07
2.63797e-07
2.64322e-07
2.64686e-07
2.64883e-07
2.64838e-07
2.64596e-07
2.64194e-07
2.63846e-07
2.63655e-07
2.63619e-07
2.6372e-07
2.63986e-07
2.64411e-07
2.64909e-07
2.65446e-07
2.65739e-07
2.65695e-07
2.65447e-07
2.64988e-07
2.64479e-07
2.6403e-07
2.63654e-07
2.63606e-07
2.63995e-07
2.64751e-07
2.65718e-07
2.6663e-07
2.67471e-07
2.68274e-07
2.6893e-07
2.69341e-07
2.69563e-07
2.69635e-07
2.69685e-07
2.69727e-07
2.69573e-07
2.69102e-07
2.68361e-07
2.67347e-07
2.6604e-07
2.64456e-07
2.62784e-07
2.61362e-07
2.60266e-07
2.59167e-07
2.58201e-07
2.57452e-07
2.56966e-07
2.56827e-07
2.56807e-07
2.56987e-07
2.5753e-07
2.58108e-07
2.5872e-07
2.59268e-07
2.59879e-07
2.61007e-07
2.6257e-07
2.65012e-07
2.72352e-07
2.95809e-07
3.61095e-07
4.93089e-07
6.70974e-07
2.2805e-07
2.31036e-07
2.34065e-07
2.37036e-07
2.3983e-07
2.42436e-07
2.44876e-07
2.47034e-07
2.48925e-07
2.50585e-07
2.51818e-07
2.52968e-07
2.53969e-07
2.54702e-07
2.55267e-07
2.55779e-07
2.5629e-07
2.568e-07
2.57373e-07
2.58035e-07
2.58804e-07
2.59649e-07
2.60455e-07
2.61123e-07
2.61613e-07
2.6191e-07
2.61981e-07
2.61783e-07
2.61404e-07
2.61125e-07
2.6108e-07
2.61183e-07
2.6139e-07
2.61767e-07
2.62331e-07
2.62882e-07
2.63249e-07
2.63318e-07
2.63241e-07
2.62882e-07
2.62162e-07
2.61348e-07
2.60502e-07
2.59914e-07
2.59895e-07
2.60444e-07
2.61426e-07
2.62639e-07
2.63831e-07
2.64966e-07
2.66024e-07
2.6699e-07
2.67692e-07
2.68129e-07
2.68264e-07
2.68213e-07
2.68151e-07
2.68136e-07
2.67972e-07
2.67465e-07
2.66453e-07
2.64834e-07
2.62819e-07
2.60904e-07
2.59046e-07
2.5693e-07
2.55325e-07
2.53758e-07
2.52191e-07
2.50966e-07
2.50147e-07
2.4962e-07
2.49612e-07
2.50094e-07
2.50755e-07
2.51322e-07
2.51995e-07
2.53136e-07
2.56362e-07
2.62894e-07
2.78007e-07
3.20525e-07
4.3995e-07
7.47397e-07
1.39229e-06
2.44894e-06
2.03933e-07
2.0904e-07
2.14216e-07
2.19344e-07
2.24216e-07
2.28759e-07
2.32889e-07
2.36495e-07
2.39557e-07
2.42102e-07
2.4404e-07
2.45734e-07
2.47111e-07
2.48097e-07
2.48839e-07
2.4948e-07
2.50091e-07
2.50671e-07
2.51333e-07
2.5211e-07
2.53028e-07
2.54049e-07
2.55043e-07
2.55913e-07
2.56561e-07
2.56933e-07
2.57031e-07
2.56903e-07
2.56675e-07
2.56441e-07
2.56236e-07
2.56347e-07
2.56819e-07
2.57531e-07
2.58299e-07
2.59064e-07
2.59822e-07
2.60047e-07
2.59898e-07
2.59359e-07
2.58352e-07
2.57196e-07
2.56041e-07
2.55476e-07
2.55669e-07
2.56478e-07
2.57702e-07
2.5922e-07
2.60878e-07
2.62468e-07
2.63913e-07
2.65151e-07
2.66099e-07
2.66734e-07
2.67044e-07
2.67211e-07
2.67278e-07
2.67215e-07
2.66847e-07
2.66078e-07
2.64789e-07
2.62932e-07
2.60666e-07
2.58282e-07
2.55668e-07
2.52817e-07
2.50047e-07
2.47228e-07
2.44649e-07
2.42237e-07
2.40462e-07
2.39017e-07
2.38063e-07
2.37583e-07
2.37688e-07
2.37613e-07
2.37924e-07
2.40658e-07
2.49932e-07
2.71344e-07
3.24202e-07
4.70364e-07
8.55466e-07
1.80892e-06
3.89476e-06
7.77551e-06
1.77541e-07
1.84568e-07
1.91754e-07
1.99046e-07
2.06091e-07
2.12641e-07
2.18589e-07
2.23781e-07
2.2818e-07
2.31875e-07
2.34714e-07
2.37126e-07
2.39049e-07
2.40428e-07
2.41449e-07
2.42318e-07
2.43127e-07
2.43889e-07
2.44754e-07
2.45778e-07
2.46997e-07
2.48341e-07
2.49666e-07
2.50826e-07
2.51671e-07
2.52151e-07
2.52373e-07
2.5232e-07
2.52157e-07
2.51983e-07
2.5209e-07
2.52536e-07
2.532e-07
2.54239e-07
2.55315e-07
2.56345e-07
2.56917e-07
2.57159e-07
2.56965e-07
2.56259e-07
2.54956e-07
2.53322e-07
2.51925e-07
2.51237e-07
2.51272e-07
2.52033e-07
2.53469e-07
2.55529e-07
2.57956e-07
2.60112e-07
2.61957e-07
2.63664e-07
2.65076e-07
2.66019e-07
2.6648e-07
2.66617e-07
2.66605e-07
2.66421e-07
2.65924e-07
2.64997e-07
2.63593e-07
2.61756e-07
2.59338e-07
2.56256e-07
2.53012e-07
2.49741e-07
2.4616e-07
2.42364e-07
2.39139e-07
2.35987e-07
2.33671e-07
2.32132e-07
2.31302e-07
2.312e-07
2.31427e-07
2.31933e-07
2.33006e-07
2.38299e-07
2.54304e-07
2.9039e-07
3.79774e-07
6.32486e-07
1.31664e-06
3.01632e-06
6.91866e-06
1.46063e-05
1.60539e-07
1.68573e-07
1.76844e-07
1.85386e-07
1.93792e-07
2.01629e-07
2.08761e-07
2.14923e-07
2.2015e-07
2.24529e-07
2.27904e-07
2.30728e-07
2.32984e-07
2.34625e-07
2.35834e-07
2.36848e-07
2.37777e-07
2.38641e-07
2.39616e-07
2.40786e-07
2.42191e-07
2.43767e-07
2.4531e-07
2.46706e-07
2.47699e-07
2.48297e-07
2.48557e-07
2.48575e-07
2.48485e-07
2.48508e-07
2.48682e-07
2.49101e-07
2.49894e-07
2.51147e-07
2.52439e-07
2.53643e-07
2.5439e-07
2.54622e-07
2.54328e-07
2.53357e-07
2.51591e-07
2.49408e-07
2.4779e-07
2.47083e-07
2.4712e-07
2.47981e-07
2.49743e-07
2.52295e-07
2.55211e-07
2.57726e-07
2.59874e-07
2.61788e-07
2.63427e-07
2.64636e-07
2.65331e-07
2.65559e-07
2.6557e-07
2.65538e-07
2.65449e-07
2.64894e-07
2.63577e-07
2.61492e-07
2.58566e-07
2.55058e-07
2.51554e-07
2.47918e-07
2.43881e-07
2.3954e-07
2.35925e-07
2.32952e-07
2.31392e-07
2.31574e-07
2.33243e-07
2.36017e-07
2.38972e-07
2.4159e-07
2.45724e-07
2.54294e-07
2.75371e-07
3.25175e-07
4.47259e-07
7.92272e-07
1.68765e-06
3.77784e-06
8.66282e-06
1.91447e-05
1.42347e-07
1.51456e-07
1.60811e-07
1.70522e-07
1.80368e-07
1.89723e-07
1.98269e-07
2.0562e-07
2.11768e-07
2.16874e-07
2.2079e-07
2.24011e-07
2.2658e-07
2.28475e-07
2.29885e-07
2.31067e-07
2.32142e-07
2.3314e-07
2.34252e-07
2.35577e-07
2.37169e-07
2.38905e-07
2.40657e-07
2.42209e-07
2.43399e-07
2.44079e-07
2.44422e-07
2.44424e-07
2.44471e-07
2.44587e-07
2.44894e-07
2.4554e-07
2.46601e-07
2.48052e-07
2.49533e-07
2.50857e-07
2.51815e-07
2.52241e-07
2.52081e-07
2.51261e-07
2.49556e-07
2.4707e-07
2.45092e-07
2.44192e-07
2.44089e-07
2.44973e-07
2.47002e-07
2.50037e-07
2.53365e-07
2.5624e-07
2.58711e-07
2.60927e-07
2.62893e-07
2.64244e-07
2.64921e-07
2.65247e-07
2.65277e-07
2.6511e-07
2.64858e-07
2.64104e-07
2.62662e-07
2.60334e-07
2.57438e-07
2.53913e-07
2.50085e-07
2.45932e-07
2.41538e-07
2.36961e-07
2.33575e-07
2.32365e-07
2.34001e-07
2.38987e-07
2.45946e-07
2.5291e-07
2.59268e-07
2.65742e-07
2.74586e-07
2.88609e-07
3.16917e-07
3.72685e-07
4.9012e-07
7.89084e-07
1.55457e-06
3.29498e-06
7.23684e-06
1.62312e-05
1.20171e-07
1.30656e-07
1.41395e-07
1.52441e-07
1.63757e-07
1.74722e-07
1.84903e-07
1.93769e-07
2.01152e-07
2.07238e-07
2.11856e-07
2.15557e-07
2.18485e-07
2.20657e-07
2.22281e-07
2.23648e-07
2.24901e-07
2.26061e-07
2.27376e-07
2.28949e-07
2.30811e-07
2.32863e-07
2.34875e-07
2.36747e-07
2.38066e-07
2.38894e-07
2.39321e-07
2.3944e-07
2.39414e-07
2.39704e-07
2.40213e-07
2.4098e-07
2.42157e-07
2.43894e-07
2.45728e-07
2.47149e-07
2.47966e-07
2.48225e-07
2.47915e-07
2.46797e-07
2.44558e-07
2.41393e-07
2.38982e-07
2.37915e-07
2.37822e-07
2.39009e-07
2.4168e-07
2.45675e-07
2.49683e-07
2.5312e-07
2.56013e-07
2.5866e-07
2.61003e-07
2.62907e-07
2.64021e-07
2.6439e-07
2.64459e-07
2.64308e-07
2.63981e-07
2.63179e-07
2.61778e-07
2.59519e-07
2.56707e-07
2.5303e-07
2.48829e-07
2.44101e-07
2.39535e-07
2.35693e-07
2.34352e-07
2.38142e-07
2.46732e-07
2.58705e-07
2.70351e-07
2.77464e-07
2.78218e-07
2.77917e-07
2.76962e-07
2.80952e-07
2.93173e-07
3.21713e-07
3.90645e-07
5.7938e-07
1.09304e-06
2.33204e-06
5.06857e-06
1.13143e-05
9.71986e-08
1.07623e-07
1.19276e-07
1.32007e-07
1.45259e-07
1.58055e-07
1.69956e-07
1.80493e-07
1.89294e-07
1.96563e-07
2.0208e-07
2.06377e-07
2.09697e-07
2.12124e-07
2.13912e-07
2.15412e-07
2.16786e-07
2.18073e-07
2.19563e-07
2.21353e-07
2.2349e-07
2.25788e-07
2.28132e-07
2.30213e-07
2.31832e-07
2.32763e-07
2.33269e-07
2.33342e-07
2.33631e-07
2.34023e-07
2.34606e-07
2.35497e-07
2.36866e-07
2.38923e-07
2.41198e-07
2.42909e-07
2.43953e-07
2.44336e-07
2.44092e-07
2.42964e-07
2.40587e-07
2.37105e-07
2.34375e-07
2.33143e-07
2.33068e-07
2.34539e-07
2.37829e-07
2.42541e-07
2.47104e-07
2.51095e-07
2.5449e-07
2.57391e-07
2.59815e-07
2.61715e-07
2.62843e-07
2.63369e-07
2.63562e-07
2.63502e-07
2.6328e-07
2.6261e-07
2.61312e-07
2.59073e-07
2.56058e-07
2.52195e-07
2.47747e-07
2.42806e-07
2.38803e-07
2.37733e-07
2.4206e-07
2.55074e-07
2.72689e-07
2.83086e-07
2.67154e-07
2.42605e-07
2.27662e-07
2.21306e-07
2.1943e-07
2.20635e-07
2.25344e-07
2.38589e-07
2.7968e-07
3.87973e-07
6.73272e-07
1.39796e-06
3.08291e-06
7.06436e-06
7.72567e-08
8.65177e-08
9.71305e-08
1.09267e-07
1.22845e-07
1.37555e-07
1.51798e-07
1.64299e-07
1.74728e-07
1.83408e-07
1.90105e-07
1.95279e-07
1.99236e-07
2.0211e-07
2.04189e-07
2.059e-07
2.07456e-07
2.08903e-07
2.10581e-07
2.1261e-07
2.15015e-07
2.17654e-07
2.20247e-07
2.22685e-07
2.24384e-07
2.25455e-07
2.25974e-07
2.26282e-07
2.26604e-07
2.27136e-07
2.27893e-07
2.29099e-07
2.30971e-07
2.33463e-07
2.36068e-07
2.3796e-07
2.39102e-07
2.39422e-07
2.38996e-07
2.37546e-07
2.34655e-07
2.30686e-07
2.27608e-07
2.26141e-07
2.26199e-07
2.28266e-07
2.32514e-07
2.38404e-07
2.43897e-07
2.48603e-07
2.52556e-07
2.55932e-07
2.58776e-07
2.60848e-07
2.62128e-07
2.62793e-07
2.63043e-07
2.62869e-07
2.62624e-07
2.62019e-07
2.60765e-07
2.58492e-07
2.55403e-07
2.51556e-07
2.47242e-07
2.43047e-07
2.41151e-07
2.46202e-07
2.60981e-07
2.84684e-07
2.82071e-07
2.40779e-07
2.02183e-07
1.76002e-07
1.59325e-07
1.48951e-07
1.41827e-07
1.3911e-07
1.36178e-07
1.3069e-07
1.45153e-07
1.8249e-07
2.84052e-07
5.56225e-07
1.22692e-06
2.84407e-06
6.10688e-08
6.93783e-08
7.89187e-08
8.98797e-08
1.02183e-07
1.15784e-07
1.30598e-07
1.45583e-07
1.58089e-07
1.683e-07
1.76211e-07
1.8232e-07
1.8701e-07
1.90462e-07
1.92963e-07
1.94991e-07
1.96829e-07
1.98528e-07
2.00481e-07
2.02802e-07
2.05534e-07
2.0841e-07
2.11345e-07
2.13947e-07
2.15946e-07
2.17039e-07
2.17671e-07
2.17982e-07
2.18534e-07
2.19191e-07
2.20148e-07
2.21542e-07
2.2355e-07
2.2636e-07
2.2941e-07
2.31531e-07
2.32826e-07
2.33382e-07
2.33065e-07
2.3159e-07
2.28482e-07
2.2401e-07
2.20397e-07
2.18755e-07
2.19078e-07
2.21846e-07
2.27049e-07
2.33789e-07
2.39836e-07
2.4529e-07
2.49867e-07
2.53759e-07
2.57036e-07
2.59494e-07
2.60993e-07
2.61781e-07
2.62175e-07
2.62035e-07
2.61817e-07
2.61304e-07
2.60199e-07
2.58113e-07
2.55227e-07
2.51699e-07
2.48204e-07
2.45893e-07
2.48908e-07
2.64777e-07
2.92409e-07
2.78307e-07
2.21202e-07
1.73068e-07
1.36383e-07
1.10196e-07
9.28322e-08
7.99531e-08
7.10274e-08
6.229e-08
4.77873e-08
3.82973e-08
5.2518e-08
7.21274e-08
1.03264e-07
1.85449e-07
4.03155e-07
9.50522e-07
4.69117e-08
5.50188e-08
6.39811e-08
7.38043e-08
8.45521e-08
9.63076e-08
1.09154e-07
1.23145e-07
1.37549e-07
1.50149e-07
1.59663e-07
1.66848e-07
1.72336e-07
1.7643e-07
1.79442e-07
1.8189e-07
1.84117e-07
1.86183e-07
1.88499e-07
1.91224e-07
1.94341e-07
1.97648e-07
2.00868e-07
2.03876e-07
2.05925e-07
2.07177e-07
2.07746e-07
2.08307e-07
2.08856e-07
2.09648e-07
2.10796e-07
2.1258e-07
2.15118e-07
2.18389e-07
2.21956e-07
2.24485e-07
2.25811e-07
2.26149e-07
2.25701e-07
2.23938e-07
2.20363e-07
2.15826e-07
2.12073e-07
2.10228e-07
2.10942e-07
2.14664e-07
2.21103e-07
2.29061e-07
2.36061e-07
2.42442e-07
2.47636e-07
2.5197e-07
2.55503e-07
2.58122e-07
2.59732e-07
2.60735e-07
2.61304e-07
2.61271e-07
2.61215e-07
2.60929e-07
2.60015e-07
2.5824e-07
2.5575e-07
2.53084e-07
2.51296e-07
2.53392e-07
2.66448e-07
2.95197e-07
2.76855e-07
2.07369e-07
1.4511e-07
9.54029e-08
6.38221e-08
4.62508e-08
3.97563e-08
3.45419e-08
2.84706e-08
2.02129e-08
9.01197e-09
5.35699e-09
1.13916e-08
2.2889e-08
3.38559e-08
5.55031e-08
1.17762e-07
3.00114e-07
3.39791e-08
4.2624e-08
5.15901e-08
6.0695e-08
7.01857e-08
8.02368e-08
9.08879e-08
1.02343e-07
1.14633e-07
1.27631e-07
1.3969e-07
1.48653e-07
1.55236e-07
1.60087e-07
1.63664e-07
1.66564e-07
1.69219e-07
1.71727e-07
1.74498e-07
1.77709e-07
1.81331e-07
1.84984e-07
1.88641e-07
1.91851e-07
1.9425e-07
1.95541e-07
1.96251e-07
1.96785e-07
1.97471e-07
1.98388e-07
1.99781e-07
2.01788e-07
2.04592e-07
2.08247e-07
2.12204e-07
2.1507e-07
2.16752e-07
2.17396e-07
2.16938e-07
2.14912e-07
2.10706e-07
2.05813e-07
2.01662e-07
1.99728e-07
2.01014e-07
2.05788e-07
2.13646e-07
2.22619e-07
2.30803e-07
2.38292e-07
2.44408e-07
2.49589e-07
2.53804e-07
2.56841e-07
2.58739e-07
2.59997e-07
2.60759e-07
2.60868e-07
2.6096e-07
2.60816e-07
2.6009e-07
2.58798e-07
2.57177e-07
2.56196e-07
2.58186e-07
2.69041e-07
2.9422e-07
2.81246e-07
2.04119e-07
1.29137e-07
6.89634e-08
3.29896e-08
1.79095e-08
1.23271e-08
9.14361e-09
6.08832e-09
6.05546e-09
4.95171e-09
1.204e-09
4.75645e-10
1.28201e-09
4.19408e-09
8.29119e-09
1.38493e-08
3.26716e-08
1.06301e-07
2.31975e-08
3.20436e-08
4.08538e-08
4.94947e-08
5.83251e-08
6.73788e-08
7.6535e-08
8.57637e-08
9.52538e-08
1.05294e-07
1.16033e-07
1.26725e-07
1.35471e-07
1.41656e-07
1.46087e-07
1.49578e-07
1.52724e-07
1.55737e-07
1.58989e-07
1.62705e-07
1.66805e-07
1.70974e-07
1.74979e-07
1.78614e-07
1.81091e-07
1.82529e-07
1.83201e-07
1.83816e-07
1.84522e-07
1.85566e-07
1.8716e-07
1.8953e-07
1.92853e-07
1.97069e-07
2.01543e-07
2.04547e-07
2.06225e-07
2.06753e-07
2.06236e-07
2.03952e-07
1.99242e-07
1.93905e-07
1.89296e-07
1.87313e-07
1.89284e-07
1.95256e-07
2.04395e-07
2.14447e-07
2.2402e-07
2.32815e-07
2.40046e-07
2.46149e-07
2.51216e-07
2.54997e-07
2.57447e-07
2.59087e-07
2.60186e-07
2.60619e-07
2.60828e-07
2.60833e-07
2.605e-07
2.60095e-07
2.60098e-07
2.6231e-07
2.71289e-07
2.93025e-07
2.93274e-07
2.10643e-07
1.28739e-07
5.89195e-08
2.33472e-08
1.14297e-08
7.17451e-09
4.76321e-09
3.44001e-09
2.17338e-09
1.63642e-09
4.78993e-10
3.56522e-11
7.11724e-12
1.45416e-11
5.4788e-11
2.86295e-10
1.07723e-09
1.01278e-08
6.05658e-08
1.58064e-08
2.35763e-08
3.1394e-08
3.9201e-08
4.72425e-08
5.57047e-08
6.43071e-08
7.25219e-08
8.00666e-08
8.72916e-08
9.47849e-08
1.02754e-07
1.11328e-07
1.19672e-07
1.25911e-07
1.30516e-07
1.34431e-07
1.38189e-07
1.42117e-07
1.46434e-07
1.51054e-07
1.5556e-07
1.59949e-07
1.63746e-07
1.66484e-07
1.67971e-07
1.68675e-07
1.69281e-07
1.70036e-07
1.71207e-07
1.72975e-07
1.75604e-07
1.79273e-07
1.83802e-07
1.88615e-07
1.92106e-07
1.9413e-07
1.94664e-07
1.94e-07
1.91225e-07
1.8603e-07
1.80964e-07
1.76181e-07
1.74468e-07
1.77317e-07
1.84508e-07
1.9461e-07
2.05204e-07
2.16005e-07
2.26314e-07
2.3485e-07
2.42136e-07
2.48185e-07
2.52851e-07
2.56066e-07
2.58177e-07
2.59642e-07
2.60494e-07
2.60926e-07
2.61335e-07
2.61757e-07
2.62802e-07
2.65532e-07
2.73243e-07
2.91764e-07
3.09573e-07
2.31668e-07
1.36854e-07
6.09717e-08
2.22518e-08
1.15345e-08
7.01172e-09
4.84746e-09
8.38771e-10
5.77456e-10
5.34431e-10
3.48085e-10
1.19697e-10
7.97563e-11
1.67626e-10
6.20987e-12
1.13919e-12
5.88379e-12
2.62384e-11
1.00891e-08
3.10037e-07
1.20088e-08
1.81113e-08
2.52466e-08
3.19374e-08
3.84733e-08
4.53682e-08
5.26448e-08
6.00644e-08
6.70722e-08
7.30467e-08
7.80965e-08
8.29119e-08
8.82243e-08
9.44403e-08
1.01424e-07
1.08078e-07
1.13558e-07
1.18549e-07
1.23548e-07
1.28764e-07
1.33981e-07
1.39022e-07
1.43784e-07
1.47895e-07
1.50704e-07
1.52258e-07
1.52926e-07
1.53482e-07
1.54215e-07
1.5537e-07
1.57284e-07
1.60178e-07
1.64189e-07
1.69252e-07
1.74348e-07
1.7808e-07
1.80068e-07
1.80538e-07
1.7982e-07
1.76978e-07
1.72346e-07
1.67585e-07
1.62779e-07
1.61636e-07
1.65457e-07
1.73544e-07
1.8399e-07
1.94782e-07
2.06755e-07
2.18673e-07
2.287e-07
2.37464e-07
2.44879e-07
2.50634e-07
2.54723e-07
2.57549e-07
2.59559e-07
2.60815e-07
2.61635e-07
2.62758e-07
2.64367e-07
2.67626e-07
2.74648e-07
2.90182e-07
3.16528e-07
2.70916e-07
1.61599e-07
7.02578e-08
2.727e-08
1.37152e-08
8.81955e-09
3.40688e-09
1.26516e-09
2.6094e-10
3.00621e-10
4.24967e-10
3.73747e-10
2.81949e-10
5.34829e-10
8.78817e-10
4.39105e-10
2.69687e-10
7.38639e-10
1.82476e-09
7.49896e-09
3.88133e-07
1.17127e-08
1.79548e-08
2.45712e-08
2.98765e-08
3.44784e-08
3.92332e-08
4.42458e-08
4.94284e-08
5.46665e-08
5.98823e-08
6.43514e-08
6.75049e-08
7.00214e-08
7.29455e-08
7.69867e-08
8.23644e-08
8.87933e-08
9.57393e-08
1.02585e-07
1.09233e-07
1.15372e-07
1.20973e-07
1.26175e-07
1.30467e-07
1.33458e-07
1.3513e-07
1.35793e-07
1.36367e-07
1.37036e-07
1.38239e-07
1.40188e-07
1.43158e-07
1.47362e-07
1.52693e-07
1.58024e-07
1.62203e-07
1.64534e-07
1.65111e-07
1.64416e-07
1.6186e-07
1.58155e-07
1.53568e-07
1.49254e-07
1.48942e-07
1.53514e-07
1.62005e-07
1.7253e-07
1.8366e-07
1.96649e-07
2.10193e-07
2.21941e-07
2.32367e-07
2.41284e-07
2.48432e-07
2.5368e-07
2.57303e-07
2.59948e-07
2.61776e-07
2.63241e-07
2.65453e-07
2.68854e-07
2.75374e-07
2.88375e-07
3.12161e-07
3.08628e-07
2.08973e-07
9.56383e-08
3.39169e-08
1.78579e-08
1.13782e-08
4.66038e-09
1.24151e-09
6.5887e-10
4.2991e-10
6.00634e-10
8.36969e-10
8.88372e-10
1.00273e-09
1.24036e-09
1.4291e-09
1.3577e-09
1.45767e-09
3.33805e-09
6.66877e-09
1.19761e-08
1.89418e-07
1.79497e-08
2.736e-08
3.34001e-08
3.57827e-08
3.72886e-08
3.90171e-08
4.11895e-08
4.36439e-08
4.62626e-08
4.88695e-08
5.14853e-08
5.41039e-08
5.58405e-08
5.65256e-08
5.77089e-08
6.03584e-08
6.4714e-08
7.06945e-08
7.82991e-08
8.68749e-08
9.4689e-08
1.01375e-07
1.07258e-07
1.11982e-07
1.15183e-07
1.16939e-07
1.17678e-07
1.18103e-07
1.18695e-07
1.19747e-07
1.21636e-07
1.24625e-07
1.28856e-07
1.3437e-07
1.40223e-07
1.44726e-07
1.47234e-07
1.48033e-07
1.4765e-07
1.45953e-07
1.42857e-07
1.38908e-07
1.35452e-07
1.36045e-07
1.41425e-07
1.50633e-07
1.61189e-07
1.72494e-07
1.86627e-07
2.02254e-07
2.16056e-07
2.28063e-07
2.38552e-07
2.4686e-07
2.53062e-07
2.57621e-07
2.61163e-07
2.63786e-07
2.66215e-07
2.6996e-07
2.75906e-07
2.86757e-07
3.06311e-07
3.2709e-07
2.59976e-07
1.47189e-07
5.25184e-08
2.2112e-08
1.57038e-08
6.87487e-09
1.9985e-09
9.3783e-10
1.16865e-09
1.5251e-09
2.12611e-09
2.50738e-09
2.75191e-09
3.16828e-09
3.30015e-09
2.76994e-09
2.2793e-09
3.0529e-09
1.12286e-08
3.08709e-08
2.11633e-08
5.75211e-08
3.86802e-08
5.74636e-08
6.27142e-08
5.99091e-08
5.37435e-08
4.77986e-08
4.40913e-08
4.29675e-08
4.37562e-08
4.38337e-08
4.28726e-08
4.25377e-08
4.30328e-08
4.35894e-08
4.34162e-08
4.37171e-08
4.58963e-08
4.97641e-08
5.53297e-08
6.25448e-08
7.10393e-08
7.92711e-08
8.6141e-08
9.14872e-08
9.50826e-08
9.70633e-08
9.78197e-08
9.83117e-08
9.88041e-08
9.97901e-08
1.01595e-07
1.04463e-07
1.08573e-07
1.14034e-07
1.20202e-07
1.25054e-07
1.27914e-07
1.29173e-07
1.29519e-07
1.28573e-07
1.26293e-07