/*--------------------------------*- C++ -*----------------------------------*\
| =========                 |                                                 |
| \\      /  F ield         | OpenFOAM: The Open Source CFD Toolbox           |
|  \\    /   O peration     | Version:  v1912                                 |
|   \\  /    A nd           | Website:  www.openfoam.com                      |
|    \\/     M anipulation  |                                                 |
\*---------------------------------------------------------------------------*/
FoamFile
{
    version     2.0;
    format      ascii;
    class       volScalarField;
    location    "100";
    object      k;
}
// * * * * * * * * * * * * * * * * * * * * * * * * * * * * * * * * * * * * * //

dimensions      [0 2 -2 0 0 0 0];


internalField   nonuniform List<scalar> 
14268
(
5.93596e-08
1.74487e-07
6.42926e-07
2.74315e-06
1.1641e-05
4.02677e-05
0.000100801
0.000192239
0.000282702
0.000355838
0.00041591
0.000469875
0.000522872
0.000579485
0.000646297
0.000713531
0.000764389
0.000790698
0.00079488
0.00077214
0.000688443
0.000554079
0.000460347
0.000417709
0.000408435
0.000415286
0.000444824
0.000496457
0.000566782
0.000641585
0.000718082
0.000798281
0.000884105
0.000969311
0.00105741
0.00114379
0.00122108
0.0012755
0.00129494
0.0012744
0.00120491
0.00115217
0.00112436
0.00111783
0.00113011
0.00118116
0.00127463
0.00139555
0.00151804
0.00157131
0.00137164
0.000960733
0.000729277
0.000707977
0.000866813
0.00139648
0.00319481
0.00618996
0.00777231
0.00748278
0.00750903
0.00868135
0.0113201
0.0144072
0.0159438
0.0166964
0.0175353
0.0186736
0.0194186
0.0191785
0.0178037
0.0191727
0.0236167
0.0286906
0.0295114
0.0272997
0.0293244
0.0380239
0.0389421
0.028016
0.0144297
0.00746977
0.00943337
0.0372858
0.0568301
0.0582304
0.0573537
0.0569035
0.0555853
0.0584536
0.0593312
0.0580907
0.0571816
0.0534399
0.0418532
0.0401247
0.0566595
0.0900117
0.0480047
0.0590223
0.0720109
0.0765866
0.0867701
0.0847121
4.02609e-07
1.3147e-06
5.2746e-06
2.25248e-05
8.26136e-05
0.000216748
0.000419432
0.000674143
0.000919419
0.00112424
0.00129755
0.00145628
0.00161348
0.00178057
0.00197628
0.00217927
0.00233868
0.00242786
0.00244973
0.0024047
0.00219259
0.00180153
0.00150986
0.00136878
0.00133226
0.00134401
0.00142166
0.00156791
0.0017658
0.00197257
0.00218715
0.00241391
0.00264923
0.00288283
0.00312195
0.00336421
0.00359551
0.00377888
0.00387048
0.00386639
0.00370974
0.0035803
0.0034979
0.0034629
0.00347195
0.00359668
0.00384899
0.00417164
0.00450279
0.00469996
0.00426264
0.00310557
0.00247741
0.00245729
0.00297667
0.004615
0.0105641
0.020186
0.0253879
0.0243623
0.0242929
0.0278951
0.0360654
0.0457066
0.0504052
0.052869
0.0555703
0.0591152
0.060131
0.0582238
0.053705
0.0580423
0.0713331
0.0865876
0.0887247
0.0835156
0.0946593
0.12182
0.128536
0.0900196
0.045275
0.0267734
0.0414655
0.130447
0.142571
0.130622
0.124127
0.114341
0.110496
0.116536
0.123183
0.131567
0.140695
0.133759
0.101979
0.0841172
0.113296
0.224233
0.171813
0.144626
0.189242
0.179653
0.205077
0.19247
1.19222e-06
4.48268e-06
1.88075e-05
7.21552e-05
0.000201198
0.000401592
0.00066535
0.000997287
0.00133762
0.00163238
0.00188741
0.00212183
0.00235276
0.00259419
0.00287139
0.00316509
0.00340207
0.00354018
0.0035769
0.00352204
0.00324571
0.00269683
0.00226556
0.00204989
0.0019899
0.00200074
0.00209795
0.00229562
0.00256861
0.00285157
0.00314835
0.00345845
0.00377239
0.00408482
0.00440194
0.00473061
0.00506854
0.0053584
0.0055309
0.00555813
0.00537213
0.00519338
0.00506195
0.00499492
0.00499176
0.00513769
0.0054509
0.00587061
0.00631555
0.00668379
0.00623008
0.00479082
0.00393337
0.00389523
0.00463827
0.00701037
0.0160986
0.0304961
0.0381987
0.0367644
0.0371382
0.0428501
0.0557799
0.0710877
0.0783725
0.0818247
0.0843539
0.0877716
0.0873377
0.0825383
0.0755681
0.0837637
0.107102
0.137786
0.140003
0.12897
0.147495
0.195328
0.221285
0.145863
0.0709967
0.046936
0.0863081
0.175315
0.178063
0.172961
0.162918
0.141951
0.13351
0.143373
0.156211
0.17394
0.202574
0.187426
0.134822
0.0929443
0.116826
0.235115
0.305129
0.290411
0.540941
0.597182
0.498882
0.356517
2.95471e-06
1.2368e-05
4.9829e-05
0.000153336
0.000326407
0.000557113
0.000858215
0.00123933
0.00164737
0.00201161
0.00233313
0.00262975
0.00291963
0.00321701
0.00355384
0.00391756
0.00421947
0.00440577
0.00446348
0.00441371
0.00410594
0.00344255
0.00289281
0.00260606
0.00251706
0.00252014
0.00262279
0.00285183
0.00317321
0.00350307
0.00385135
0.00420847
0.00456211
0.00491275
0.00527123
0.0056515
0.00607842
0.00647983
0.00675461
0.00683976
0.00666997
0.0064664
0.00629271
0.0061828
0.0061412
0.00624499
0.00653521
0.00694799
0.00741416
0.00795972
0.0076861
0.00617891
0.00518277
0.00504227
0.00594619
0.00888274
0.0205284
0.0380085
0.0476664
0.0472611
0.0507562
0.0594399
0.0775571
0.0985313
0.108865
0.114454
0.117276
0.116054
0.113606
0.108025
0.102742
0.121748
0.155337
0.208411
0.214982
0.193936
0.216171
0.287424
0.341693
0.215821
0.0930814
0.0723501
0.123985
0.197854
0.239523
0.256517
0.243371
0.206722
0.179071
0.184945
0.20519
0.239264
0.300254
0.285549
0.181779
0.0961894
0.106852
0.218495
0.378665
0.600221
1.02414
1.12749
1.10502
0.852944
7.76992e-06
3.2215e-05
0.000109287
0.000256088
0.000452286
0.000703817
0.00103237
0.00144851
0.00190578
0.00232457
0.00270178
0.00305361
0.00339761
0.00374796
0.00414141
0.00457126
0.00493591
0.0051698
0.00524862
0.0052027
0.00486878
0.00410878
0.00345165
0.00309933
0.00298245
0.0029791
0.00308208
0.00333548
0.00369607
0.00406458
0.00445504
0.00484925
0.00523625
0.00561958
0.00601136
0.00643628
0.00694346
0.00745021
0.00782469
0.0079636
0.0078089
0.00757388
0.00735124
0.00719637
0.00712038
0.00718254
0.00743582
0.00781522
0.00831189
0.0089903
0.0088607
0.00744039
0.00641355
0.00615459
0.00710803
0.0106348
0.0250497
0.0455135
0.0565996
0.0562708
0.0624641
0.0792684
0.106676
0.135506
0.148782
0.160722
0.166482
0.165264
0.161501
0.154665
0.154809
0.187031
0.224669
0.26408
0.296835
0.319055
0.348409
0.426766
0.470422
0.325755
0.130345
0.114543
0.155752
0.25812
0.357032
0.390353
0.37562
0.330259
0.289572
0.293014
0.320313
0.355932
0.412377
0.432128
0.287378
0.128107
0.117238
0.194928
0.281161
0.672881
0.979025
1.00591
1.14651
0.942503
2.03506e-05
7.44635e-05
0.000196371
0.000369854
0.000581501
0.000849456
0.00119914
0.00164093
0.00213302
0.00259213
0.00301229
0.00340852
0.00379701
0.00419226
0.00463386
0.00512147
0.0055442
0.00582554
0.00592845
0.00589167
0.00554466
0.00471105
0.00396087
0.00354767
0.00340041
0.00338816
0.00348735
0.00375585
0.00414324
0.00453576
0.00495234
0.00536607
0.00576804
0.00616533
0.00657717
0.00703587
0.00760929
0.00822483
0.00870621
0.00890895
0.00878257
0.00852441
0.00825356
0.00805181
0.00793182
0.00793657
0.00811922
0.00843668
0.00896072
0.00982015
0.00994262
0.00833834
0.00743982
0.00730839
0.00826378
0.0125475
0.0298541
0.0525044
0.0657229
0.0644525
0.0692358
0.0882426
0.118356
0.147091
0.157963
0.173201
0.193271
0.224652
0.223251
0.215086
0.200699
0.213516
0.235363
0.256972
0.297754
0.35838
0.420276
0.438565
0.462135
0.409073
0.214727
0.207851
0.218294
0.304405
0.392694
0.411753
0.392186
0.351868
0.33525
0.346235
0.356645
0.363247
0.397081
0.464564
0.382868
0.195551
0.179665
0.192274
0.208192
0.574779
0.90628
0.910928
1.03351
0.881753
4.85991e-05
0.000144176
0.000300297
0.000490945
0.000715484
0.000997462
0.00136447
0.00182624
0.00234456
0.00283593
0.00329207
0.00372686
0.00415498
0.00459199
0.00507823
0.00562001
0.00609939
0.00642859
0.00655652
0.00652775
0.00616884
0.00527145
0.00443603
0.003967
0.00379235
0.0037721
0.00386724
0.00414712
0.00455675
0.00496891
0.00540389
0.00583121
0.00624513
0.00665451
0.00707976
0.00756792
0.00820101
0.00891903
0.00950599
0.00977515
0.00967732
0.00939499
0.00906864
0.00881189
0.0086455
0.00859873
0.00871975
0.0089946
0.0096701
0.0108451
0.011028
0.00919691
0.00835121
0.00854396
0.00984924
0.0154364
0.0358266
0.0615237
0.0812319
0.0798077
0.0840796
0.0972601
0.118654
0.142163
0.149503
0.163952
0.192228
0.23956
0.241943
0.233018
0.206725
0.203782
0.218589
0.239964
0.277834
0.338478
0.408975
0.410894
0.427678
0.435672
0.33695
0.328779
0.323819
0.352177
0.395919
0.397955
0.375563
0.337742
0.333624
0.3414
0.338076
0.334992
0.364456
0.442547
0.401082
0.280129
0.292644
0.274207
0.209934
0.571551
0.833533
0.833177
0.94139
0.89109
9.98206e-05
0.000235106
0.000413771
0.000618082
0.000854416
0.00114898
0.0015306
0.00200797
0.00254466
0.00305972
0.00354331
0.00400834
0.00446837
0.0049407
0.00546445
0.00605348
0.00658616
0.00696325
0.00711828
0.00709948
0.00673552
0.00578946
0.00487947
0.0043594
0.00415723
0.00412699
0.00421732
0.00450255
0.00492681
0.00534975
0.00579089
0.00621971
0.00663305
0.00704263
0.00747457
0.00798625
0.00867221
0.0094844
0.0101724
0.0105116
0.0104492
0.0101465
0.00975691
0.00943408
0.00921038
0.00910781
0.00917417
0.00953525
0.0107466
0.0124114
0.0123417
0.00996813
0.00902114
0.00951003
0.0113026
0.0179108
0.0408411
0.0753971
0.106353
0.104795
0.108428
0.11703
0.123184
0.1337
0.138603
0.151897
0.179713
0.224692
0.227688
0.217898
0.191801
0.186965
0.200669
0.220031
0.253085
0.30748
0.372697
0.370999
0.384855
0.411927
0.432682
0.424475
0.418416
0.440371
0.45503
0.420714
0.393999
0.359175
0.33858
0.320429
0.305211
0.296882
0.320442
0.401063
0.388667
0.294049
0.309796
0.42584
0.444317
0.710926
0.752012
0.739212
0.855228
0.868986
0.000173845
0.000338669
0.000533903
0.000750426
0.000998019
0.00130443
0.00169905
0.00218918
0.00273954
0.00327304
0.00377939
0.00427042
0.00475857
0.00526297
0.00582001
0.00645117
0.00703489
0.00746074
0.00764479
0.00763539
0.00726776
0.00628077
0.00530145
0.00473358
0.00450579
0.00446633
0.00455248
0.00484005
0.00527461
0.00570339
0.00614487
0.00656979
0.00697699
0.00738144
0.00781617
0.00834605
0.00907641
0.0099768
0.0107635
0.011177
0.0111525
0.0108312
0.0103743
0.00998935
0.0097137
0.00956698
0.00966867
0.0104739
0.0125176
0.0144593
0.0142595
0.0107613
0.00969818
0.0102021
0.0120735
0.0191948
0.0467787
0.0988547
0.134073
0.131455
0.127836
0.12537
0.124134
0.126133
0.130496
0.142912
0.169238
0.211107
0.215013
0.206026
0.181808
0.177613
0.191765
0.209155
0.235582
0.28041
0.339029
0.335901
0.3465
0.378003
0.475315
0.516717
0.504383
0.534486
0.482278
0.415553
0.389377
0.359145
0.326576
0.294533
0.274279
0.261634
0.28116
0.359804
0.373897
0.266052
0.270169
0.484184
0.869168
0.993899
0.707958
0.662153
0.811485
0.798206
0.000264129
0.000450368
0.000659377
0.000887266
0.00114577
0.00146355
0.00186998
0.00237037
0.00292932
0.0034753
0.00399839
0.00450938
0.00501992
0.00555081
0.00613463
0.00680016
0.00743092
0.00790596
0.00812228
0.00812353
0.00775737
0.00674142
0.0057007
0.00508863
0.00483492
0.00478487
0.00486654
0.00515161
0.00559027
0.00601779
0.00644909
0.00685979
0.00725223
0.00764399
0.00807168
0.00861325
0.00938113
0.0103554
0.011234
0.0117256
0.0117446
0.0114111
0.010885
0.0104367
0.0101115
0.00996743
0.0102364
0.0113884
0.0135848
0.0158307
0.0163716
0.011556
0.0103411
0.0107221
0.0125149
0.0205658
0.058506
0.121008
0.150498
0.144347
0.129758
0.118457
0.116404
0.117687
0.121717
0.133293
0.157958
0.197545
0.207545
0.201051
0.179581
0.174732
0.18371
0.197101
0.218517
0.255214
0.305778
0.29872
0.306843
0.33452
0.447448
0.542687
0.575945
0.561749
0.449952
0.378536
0.357034
0.329135
0.295916
0.262679
0.241048
0.221054
0.235565
0.313484
0.336827
0.219429
0.219046
0.469124
1.05997
1.20724
0.692437
0.62274
0.862014
0.757314
0.000364879
0.000568188
0.000789305
0.00102792
0.00129707
0.00162595
0.00204346
0.00255241
0.00311682
0.00367143
0.00420769
0.00473508
0.00526508
0.00581906
0.00642503
0.00711749
0.00779055
0.00831457
0.00856763
0.00858145
0.00822049
0.00718234
0.00608367
0.0054288
0.00515074
0.00509195
0.00516809
0.00544886
0.00588702
0.00630744
0.0067232
0.00711439
0.00748623
0.0078589
0.00827641
0.00882389
0.00962034
0.0106591
0.0116208
0.012192
0.0122589
0.0119217
0.0113284
0.0108241
0.0104794
0.0104091
0.0107574
0.0118212
0.0136371
0.016317
0.0182404
0.0125829
0.0109905
0.0112766
0.0129214
0.023897
0.0735057
0.129772
0.152948
0.143048
0.123023
0.111502
0.109867
0.110928
0.114727
0.12576
0.148828
0.185686
0.199867
0.195391
0.17596
0.169815
0.173529
0.183136
0.204403
0.235465
0.278228
0.265101
0.269872
0.294413
0.402346
0.504238
0.56492
0.52645
0.404718
0.341615
0.325089
0.299205
0.266302
0.233148
0.209386
0.178435
0.188232
0.266694
0.29694
0.189349
0.219066
0.446881
1.09206
1.18265
0.681536
0.675909
1.02415
0.849413
0.00047315
0.000691023
0.000923022
0.0011718
0.00145132
0.001791
0.00221887
0.00273465
0.00330094
0.0038598
0.00440455
0.00494336
0.00548826
0.00605972
0.00668096
0.00738996
0.0080977
0.00866802
0.00896383
0.00899531
0.00864693
0.00759731
0.00644672
0.00575153
0.00544975
0.00538254
0.00545083
0.00572408
0.00615596
0.00656236
0.00695492
0.00731855
0.0076622
0.00800851
0.0084086
0.00895656
0.00977459
0.0108612
0.0118916
0.0125361
0.0126547
0.0123247
0.0116683
0.0111167
0.0107556
0.0107105
0.010978
0.0118272
0.0134344
0.0163433
0.0194847
0.0139833
0.0116197
0.0118107
0.0134659
0.0303456
0.0843757
0.127374
0.147636
0.135773
0.114954
0.104103
0.102741
0.103578
0.10726
0.117672
0.139216
0.172343
0.185735
0.181871
0.164585
0.156747
0.159209
0.167256
0.187084
0.216957
0.252538
0.230989
0.231311
0.249714
0.348187
0.444501
0.507973
0.465733
0.354211
0.304922
0.294333
0.267872
0.235628
0.20248
0.173614
0.12924
0.140874
0.2132
0.259396
0.225175
0.427954
0.450344
0.984052
1.00273
0.651552
0.812143
1.18025
0.901798
0.000587409
0.000818028
0.00105991
0.00131829
0.00160784
0.00195804
0.00239566
0.00291685
0.00348262
0.00404274
0.00459291
0.00514009
0.00569668
0.00628082
0.00691121
0.00762616
0.00835915
0.00897123
0.00931615
0.00937161
0.00904351
0.00799279
0.00679506
0.00606119
0.00573675
0.00566171
0.00572079
0.00598515
0.00640584
0.0067928
0.00715752
0.00748867
0.00779923
0.00811515
0.00849639
0.00904259
0.00987621
0.0109986
0.0120822
0.0127871
0.0129533
0.0126412
0.0119327
0.0113458
0.0109566
0.0108756
0.0110732
0.0117703
0.0132479
0.0163722
0.0201926
0.0155229
0.0122521
0.0123426
0.0147201
0.0364265
0.0863796
0.121023
0.141266
0.128409
0.108282
0.098145
0.0967476
0.0973518
0.100839
0.110845
0.131051
0.161057
0.17332
0.169196
0.153204
0.145342
0.146086
0.152627
0.171698
0.20059
0.230602
0.209267
0.214586
0.207847
0.298894
0.381941
0.44031
0.405755
0.3233
0.285113
0.275082
0.243157
0.207735
0.169705
0.134003
0.0955063
0.149807
0.165037
0.229948
0.364264
0.783474
0.510761
0.879992
0.891623
0.637432
0.997814
1.24709
0.853762
0.000706661
0.000948503
0.00119941
0.00146678
0.00176594
0.00212626
0.00257288
0.00309783
0.00366042
0.00421844
0.00477007
0.00532125
0.00588411
0.0064732
0.00710313
0.00781148
0.00855625
0.0092036
0.00960513
0.00969496
0.00939805
0.0083613
0.00712494
0.00635599
0.00600858
0.00592372
0.00597272
0.00622524
0.00662868
0.00699098
0.00732167
0.00761393
0.00788496
0.0081667
0.00852751
0.00907044
0.00991372
0.0110549
0.0121718
0.0129179
0.0131215
0.012833
0.0120818
0.0114675
0.0110468
0.0109247
0.0110444
0.0115967
0.0129597
0.0162928
0.0206219
0.0169416
0.0128815
0.0128759
0.0162264
0.0382799
0.0820451
0.11403
0.134217
0.121953
0.103021
0.0930979
0.091277
0.0912525
0.0944248
0.103973
0.122853
0.149497
0.160231
0.156062
0.141613
0.133043
0.132891
0.137933
0.15517
0.182518
0.208041
0.21147
0.277664
0.173466
0.248602
0.320006
0.370807
0.360416
0.327671
0.287798
0.253897
0.215088
0.175691
0.131432
0.0952008
0.131055
0.346012
0.153446
0.201099
0.447744
0.991069
0.666043
0.770499
0.759667
0.616467
1.15636
1.23547
0.789689
0.000891958
0.00114852
0.00141171
0.00169158
0.0020044
0.00237914
0.00283801
0.00336623
0.00392076
0.00447185
0.00502075
0.00557204
0.00613542
0.00671876
0.00733164
0.00801114
0.00875241
0.00944177
0.00993413
0.010098
0.00987011
0.00888021
0.00759841
0.00678053
0.00639843
0.00629673
0.006329
0.0065616
0.00692939
0.00724672
0.00751925
0.00774564
0.00795575
0.00819123
0.0085263
0.00906241
0.0099109
0.011061
0.012201
0.0129818
0.0132217
0.0129675
0.0121663
0.0115306
0.0110817
0.0109095
0.0109274
0.0112692
0.0124699
0.0161256
0.0211353
0.0189091
0.0138274
0.0136727
0.017639
0.0372722
0.0745188
0.10365
0.124274
0.11542
0.0983609
0.0885325
0.0855403
0.0841556
0.0864668
0.0957019
0.113092
0.1356
0.144143
0.139944
0.12698
0.117978
0.115518
0.117326
0.132776
0.158441
0.181334
0.294037
0.529317
0.161554
0.187324
0.230639
0.266887
0.333789
0.375133
0.295872
0.215182
0.170141
0.125149
0.0714331
0.0723985
0.338479
0.725731
0.251522
0.169636
0.449786
1.04874
0.929617
0.640847
0.573401
0.631033
1.27487
1.17756
0.669426
0.00115069
0.00142214
0.00169871
0.00199237
0.00232092
0.0027121
0.00318258
0.00370665
0.00424012
0.004769
0.00529655
0.00582391
0.00635519
0.00689254
0.00744703
0.00805999
0.00875967
0.00947555
0.0100663
0.0103594
0.0102826
0.00944384
0.00815251
0.00728734
0.00685809
0.00672383
0.00673079
0.00692378
0.00722388
0.00746327
0.00764069
0.00776723
0.00787876
0.00804049
0.00832739
0.00882986
0.00963466
0.0107215
0.0118325
0.0126214
0.0128884
0.0126689
0.0117985
0.0111583
0.0106894
0.0104512
0.0103234
0.010318
0.0111572
0.0151237
0.0210595
0.0205117
0.0148889
0.0144982
0.0178981
0.0336521
0.0648448
0.0914683
0.110938
0.105189
0.0893236
0.0793527
0.0748745
0.0721888
0.0739142
0.0825846
0.0984818
0.118213
0.125164
0.121623
0.110943
0.0998367
0.0897164
0.085331
0.100237
0.126101
0.170315
0.49179
0.835836
0.242743
0.115811
0.129215
0.226955
0.440682
0.378367
0.239419
0.152645
0.101677
0.0655151
0.0504228
0.118005
0.689945
1.01418
0.515699
0.151622
0.406811
0.822218
0.907833
0.703306
0.541803
0.905821
1.27522
1.02004
0.50181
0.00141288
0.00169572
0.00198245
0.00228656
0.00262751
0.00303092
0.00350623
0.00401328
0.00451523
0.00501059
0.00550152
0.00598544
0.00646265
0.00693786
0.00742408
0.00796243
0.00859206
0.00929857
0.00995622
0.0103845
0.0104601
0.00985577
0.0086194
0.00772853
0.00726022
0.00708746
0.0070674
0.00720736
0.00742278
0.00757011
0.00765129
0.00766527
0.00767379
0.00775483
0.00795671
0.00836152
0.00902569
0.00994671
0.0109746
0.0117738
0.0120876
0.0119135
0.0109651
0.0103193
0.00981985
0.0095088
0.00920339
0.00875004
0.00910266
0.0133611
0.0203378
0.0210207
0.0154718
0.0149013
0.0176606
0.0301882
0.0576032
0.0814503
0.0980502
0.0932054
0.0779529
0.067581
0.0618309
0.0577485
0.0592858
0.0677471
0.0828383
0.101061
0.106691
0.103389
0.0936479
0.0800363
0.0617282
0.0552806
0.0685406
0.0960876
0.164198
0.477093
0.932257
0.312783
0.120538
0.215128
0.472768
0.678775
0.334984
0.170564
0.100691
0.0810468
0.0569546
0.0402273
0.344698
0.771643
0.95994
0.674765
0.260611
0.415132
0.677591
0.686224
0.790991
0.850433
1.22043
1.20808
0.861658
0.346563
0.001671
0.00196156
0.00225536
0.00256669
0.00291629
0.00332682
0.00379764
0.00427378
0.00473667
0.00518898
0.00563121
0.00605769
0.00646902
0.00687172
0.00728199
0.00774173
0.00828856
0.00894165
0.00962965
0.0101532
0.0103615
0.0100419
0.00895558
0.00807557
0.00758502
0.00736851
0.00731003
0.00737742
0.00749391
0.00753487
0.00750952
0.00739577
0.00727406
0.00721511
0.00723227
0.00740932
0.00778425
0.00841229
0.00931791
0.0101979
0.0106633
0.0106035
0.00958956
0.00891604
0.00831631
0.00786044
0.00727593
0.00618163
0.00600816
0.0104405
0.0186569
0.0209213
0.0164139
0.0146593
0.0169901
0.027827
0.0513568
0.0708276
0.0839949
0.0799857
0.0651568
0.0541121
0.0463515
0.0410685
0.0422198
0.0503151
0.0639331
0.0786638
0.0812296
0.0782998
0.0697325
0.0535067
0.03907
0.0375217
0.0421553
0.0628847
0.128076
0.39638
0.838906
0.345907
0.256451
0.585928
0.86009
0.819615
0.269863
0.115602
0.0999435
0.0785414
0.0511879
0.119183
0.423062
0.642866
0.811776
0.659446
0.464247
0.456721
0.530111
0.479887
0.617159
0.835256
1.23006
1.09081
0.714805
0.237221
0.00191799
0.00221319
0.00251159
0.00282785
0.00318297
0.00359603
0.00404886
0.00448702
0.00490562
0.00530933
0.00569646
0.00605978
0.00639783
0.00672367
0.0070573
0.00743586
0.00789229
0.00845898
0.00914161
0.00972285
0.0100236
0.00996107
0.00912821
0.00829901
0.00781134
0.00755862
0.00744682
0.00742114
0.0074196
0.00732872
0.00716802
0.00690218
0.00652108
0.00614921
0.00581556
0.00562144
0.00560627
0.0059043
0.00662957
0.00765874
0.0084216
0.00861372
0.00772809
0.00703426
0.00624627
0.00556408
0.0046495
0.00314471
0.00274155
0.00691967
0.0162965
0.0204379
0.017974
0.0155575
0.0175929
0.026372
0.043243
0.0574522
0.0696388
0.0670672
0.0521256
0.0392055
0.0280971
0.0215376
0.0229436
0.0304058
0.0420411
0.0529788
0.0524979
0.0505687
0.0446381
0.0361685
0.0328828
0.0336472
0.0333664
0.0454369
0.0805591
0.316359
0.729097
0.378493
0.403591
0.908217
1.13533
0.814429
0.210974
0.111943
0.0973192
0.0741874
0.064128
0.166183
0.290789
0.469416
0.664821
0.605533
0.49596
0.419042
0.396002
0.358031
0.464388
0.736846
1.07031
0.957225
0.613634
0.196674
0.00214917
0.00244716
0.00274898
0.00306943
0.00342762
0.00383658
0.00425852
0.00465392
0.00502295
0.00537025
0.00569417
0.00598529
0.00624292
0.00648617
0.00673999
0.00703403
0.00739343
0.00785141
0.00848406
0.00909182
0.00946436
0.00954085
0.00902988
0.00829953
0.00785377
0.00758436
0.00739798
0.00722607
0.0070072
0.00666793
0.00622878
0.00560679
0.00478583
0.00399633
0.00335449
0.00293845
0.00277086
0.00281144
0.00320052
0.00401829
0.00488056
0.00538542
0.00517671
0.00453141
0.00361714
0.00284704
0.00195625
0.00101876
0.000896187
0.00366042
0.0128754
0.0183702
0.0176566
0.0158984
0.0170202
0.0219127
0.031915
0.0424292
0.0540633
0.0522129
0.0354876
0.0213458
0.0105705
0.00655711
0.00918288
0.0147625
0.0207401
0.0253997
0.0248685
0.0284843
0.0319463
0.030675
0.0286647
0.0327067
0.029729
0.0389014
0.0583928
0.238862
0.62541
0.399007
0.394636
1.00575
1.1253
0.73098
0.163118
0.10612
0.0918746
0.0738483
0.0691598
0.101279
0.144376
0.278651
0.515569
0.542706
0.424695
0.344771
0.295546
0.372009
0.445341
0.639069
0.905466
0.816875
0.524375
0.217422
0.00236411
0.00266291
0.00296751
0.00329252
0.00364996
0.00404164
0.00442161
0.00476641
0.0050745
0.00535102
0.00560077
0.00581655
0.00598719
0.00613993
0.00630519
0.00650914
0.00676588
0.00710722
0.00764767
0.00826642
0.0087034
0.00886138
0.00860628
0.0080094
0.00761859
0.00730119
0.0069371
0.0064035
0.00572095
0.0049595
0.00418895
0.00336992
0.00257004
0.00190965
0.00141963
0.00111005
0.000949852
0.00090015
0.000982771
0.00126617
0.00169259
0.00215146
0.00243353
0.00205213
0.00141233
0.000989194
0.000676924
0.000468055
0.00045897
0.00157121
0.00738696
0.0134735
0.0143383
0.012808
0.0119391
0.0133622
0.0186229
0.0258405
0.0368435
0.0354524
0.0190527
0.00825107
0.00241785
0.00175122
0.0038553
0.00786356
0.0121003
0.0138516
0.0143896
0.0201779
0.02606
0.0253369
0.0261094
0.0322877
0.028077
0.0336847
0.0537008
0.188837
0.533492
0.390565
0.352511
0.899237
0.987639
0.631556
0.136334
0.0990773
0.0837001
0.0726387
0.0691131
0.049431
0.0689551
0.147068
0.404813
0.463567
0.340158
0.27851
0.209836
0.343312
0.410695
0.578216
0.767146
0.688017
0.446861
0.220495
0.00354726
0.00383364
0.0041547
0.00450549
0.00478905
0.00494242
0.00497624
0.00492582
0.0047482
0.00444087
0.00421182
0.00405105
0.00388442
0.00376414
0.00369147
0.00365105
0.00363243
0.00364324
0.00379376
0.00412036
0.00445901
0.00466888
0.00474846
0.00473704
0.00457995
0.00413617
0.00331394
0.00233285
0.00159628
0.0011152
0.000803732
0.000594697
0.000450295
0.000345555
0.000268897
0.000215321
0.000178236
0.0001516
0.000132944
0.000122074
0.000116107
0.000119092
0.00016119
0.000232057
0.000287993
0.000346884
0.000401178
0.000391477
0.000292321
0.000260019
0.000442371
0.0011092
0.00136919
0.00112609
0.0008473
0.000978783
0.00200862
0.00374841
0.00530956
0.00309233
0.00117185
0.000362051
8.42627e-05
0.000109084
0.000860375
0.00180534
0.00161226
0.000721219
0.000523357
0.00122337
0.00315672
0.00972941
0.0156734
0.0213661
0.0187294
0.013192
0.0461999
0.0905378
0.255425
0.276128
0.159856
0.295268
0.365176
0.214173
0.0654665
0.061811
0.0468223
0.0387259
0.0375097
0.0416794
0.0512862
0.0672625
0.0803382
0.104332
0.0892506
0.063914
0.0654549
0.174471
0.237692
0.240855
0.225197
0.171687
0.166751
0.139162
0.00264064
0.00254735
0.00243788
0.0023081
0.00214637
0.00193214
0.00164928
0.00134263
0.00108977
0.000899042
0.000760844
0.000659509
0.000577346
0.000499876
0.000418156
0.000319713
0.000229062
0.000165755
0.000126228
0.000100466
8.0556e-05
6.17067e-05
4.21681e-05
2.31554e-05
8.94351e-06
2.33556e-06
8.67784e-07
7.64277e-07
9.07435e-07
1.09369e-06
1.27447e-06
1.66829e-06
2.30401e-06
3.26398e-06
4.53931e-06
5.75159e-06
6.94096e-06
7.67354e-06
9.58045e-06
1.03145e-05
1.18175e-05
1.28448e-05
1.17987e-05
1.5872e-05
4.33678e-05
0.000105088
0.000138874
0.000142826
0.000125067
8.70325e-05
5.62425e-05
3.21038e-05
1.00584e-05
2.63137e-06
3.29491e-06
8.12158e-06
1.50795e-05
2.12092e-05
3.54819e-05
5.2218e-05
8.67343e-05
0.000139757
0.000196792
0.000197844
0.000184221
0.000179935
0.000184867
0.000230828
0.000230493
0.000152457
9.9383e-05
0.000111563
6.8269e-05
0.000489388
0.00799461
0.0195652
0.0226337
0.0264136
0.0664164
0.136604
0.140982
0.104506
0.106529
0.135728
0.0486875
0.00256871
0.000313208
0.000173412
0.000413374
0.00504301
0.0173006
0.0336719
0.0575625
0.0848443
0.0833998
0.0547865
0.0265992
0.0321381
0.0483489
0.0693706
0.0931915
0.130118
0.235676
0.216964
0.000100195
6.12092e-05
3.56492e-05
2.12616e-05
1.48019e-05
1.03048e-05
6.20729e-06
3.01209e-06
9.6883e-07
4.58298e-07
1.06794e-06
2.6069e-06
4.90031e-06
6.05035e-06
6.07103e-06
5.12911e-06
4.10905e-06
3.5134e-06
3.4748e-06
4.33754e-06
5.99577e-06
8.21037e-06
1.04688e-05
1.30539e-05
1.63247e-05
2.14127e-05
2.82954e-05
3.77975e-05
5.07834e-05
6.85799e-05
9.29924e-05
0.00012688
0.000174079
0.0002351
0.000319286
0.000421131
0.000552208
0.000703963
0.000866571
0.00107491
0.00122153
0.00141299
0.00154415
0.00150794
0.00136068
0.00114817
0.000914925
0.000701276
0.000515962
0.000362599
0.00024291
0.000174366
0.000233922
0.000515075
0.00103987
0.0018148
0.00260259
0.0036623
0.00385941
0.00418371
0.00501861
0.00650214
0.00837124
0.0106601
0.0128248
0.0155092
0.018832
0.0235629
0.0298523
0.0287715
0.0265807
0.0239974
0.0212548
0.0183611
0.0140152
0.0124439
0.0124072
0.0147317
0.0112363
0.00832635
0.00926414
0.00962131
0.0117079
0.0180777
0.0177037
0.0172315
0.0184671
0.0225355
0.0239679
0.0200606
0.0402158
0.0791728
0.0719517
0.0569484
0.0368557
0.022736
0.0183449
0.0181479
0.0225511
0.055705
0.279926
0.309575
0.206575
0.119376
2.55525e-05
2.91352e-05
3.30428e-05
3.32331e-05
3.13102e-05
2.9759e-05
2.88104e-05
2.86835e-05
2.97738e-05
3.26188e-05
3.74476e-05
4.43012e-05
5.36396e-05
6.65987e-05
8.49871e-05
0.000111851
0.000151141
0.000207491
0.00028386
0.000381895
0.000505511
0.000660509
0.000833071
0.00103435
0.00128967
0.00161881
0.00205563
0.00264751
0.00345151
0.00454281
0.00601889
0.00801797
0.0107177
0.0143037
0.0189502
0.024804
0.0319587
0.0403865
0.0500976
0.0607386
0.0718996
0.0827332
0.093251
0.0974798
0.0992602
0.0982536
0.0964855
0.0942324
0.0917564
0.0909908
0.0916939
0.0948566
0.101663
0.114312
0.132987
0.157076
0.184485
0.214735
0.236065
0.258438
0.285601
0.319295
0.358333
0.400327
0.443976
0.489515
0.536116
0.590404
0.628057
0.620319
0.59126
0.554459
0.504249
0.414029
0.276322
0.255807
0.294625
0.355706
0.333721
0.295188
0.278445
0.277142
0.299481
0.351866
0.3808
0.409016
0.436439
0.444764
0.429102
0.358879
0.262885
0.154356
0.0870195
0.0600363
0.0470098
0.0375917
0.0271223
0.0206743
0.0304101
0.0801419
0.14737
0.118415
0.0573775
0.0207573
0.000624791
0.000830123
0.00107403
0.00136672
0.00145999
0.00155076
0.00162505
0.00171524
0.00185262
0.00206336
0.00238039
0.00284921
0.00352222
0.00445711
0.00573883
0.00750542
0.00994505
0.0132837
0.0176708
0.0232014
0.0298761
0.0375414
0.04623
0.0560795
0.0677274
0.0814318
0.0975025
0.116337
0.138404
0.164253
0.194245
0.228751
0.267875
0.311353
0.358097
0.406868
0.456214
0.505096
0.549248
0.5888
0.618435
0.642747
0.659072
0.66224
0.660285
0.655235
0.647228
0.636973
0.624697
0.622884
0.628907
0.642335
0.66456
0.698109
0.739262
0.782561
0.824126
0.850055
0.856189
0.863213
0.881159
0.910903
0.94681
0.987263
1.02524
1.05126
1.08219
1.10892
1.10848
1.0991
1.07508
1.0305
0.949229
0.802163
0.674999
0.72704
0.862482
1.00144
1.01153
1.01586
1.04277
1.09075
1.16919
1.20655
1.19942
1.17903
1.12702
1.04233
0.907882
0.687573
0.382055
0.177252
0.103375
0.0746848
0.0476046
0.0197453
0.0115351
0.0159746
0.0163816
0.0222809
0.0224597
0.0143872
0.00683908
0.00504745
0.0214246
0.0295869
0.0390014
0.0497296
0.0550553
0.0586113
0.0614912
0.064853
0.0690885
0.0748835
0.083035
0.0943236
0.110184
0.131092
0.156607
0.186244
0.219648
0.256453
0.295886
0.337031
0.378707
0.420246
0.460397
0.499127
0.536156
0.571404
0.60648
0.641964
0.678334
0.71622
0.755523
0.795296
0.835307
0.874206
0.910176
0.943618
0.97316
1.00217
1.02463
1.0449
1.05914
1.07324
1.08196
1.09179
1.09983
1.10816
1.11552
1.1194
1.12321
1.12837
1.13671
1.14734
1.16113
1.17672
1.18993
1.19916
1.19809
1.19257
1.18184
1.17829
1.17299
1.16462
1.1547
1.14852
1.14313
1.14252
1.14495
1.14441
1.13242
1.10765
1.08312
1.05821
1.02133
0.998907
1.02655
1.10621
1.19871
1.23032
1.23991
1.24864
1.26632
1.28138
1.29025
1.27339
1.24352
1.18731
1.11159
1.02291
0.900417
0.710263
0.419563
0.22843
0.145461
0.0811927
0.036835
0.0119618
0.00662879
0.0126578
0.038008
0.0481097
0.0397624
0.0283672
0.0254098
0.0268007
0.307699
0.362051
0.412382
0.439874
0.439537
0.433842
0.427327
0.428414
0.436689
0.456063
0.487179
0.527738
0.573711
0.61861
0.656814
0.691733
0.725831
0.759575
0.792227
0.822858
0.850924
0.875208
0.89639
0.916734
0.936949
0.957441
0.978988
1.00166
1.02411
1.04297
1.05832
1.06864
1.07614
1.07851
1.07789
1.0751
1.07144
1.06696
1.06248
1.05809
1.05447
1.05049
1.04554
1.038
1.02835
1.01882
1.00945
1.00403
0.999471
0.998797
0.999538
1.00187
1.00511
1.0076
1.0102
1.00934
1.00534
0.998408
0.989527
0.980884
0.974061
0.97318
0.971012
0.966908
0.960379
0.951332
0.944549
0.93672
0.925976
0.914425
0.908648
0.903477
0.897441
0.902614
0.933912
0.98574
1.04416
1.0647
1.07936
1.10365
1.13207
1.14063
1.1412
1.12618
1.09856
1.028
0.948783
0.874254
0.78585
0.651927
0.439968
0.297699
0.192228
0.0935858
0.034664
0.0105692
0.00362093