/*--------------------------------*- C++ -*----------------------------------*\
| =========                 |                                                 |
| \\      /  F ield         | OpenFOAM: The Open Source CFD Toolbox           |
|  \\    /   O peration     | Version:  v1912                                 |
|   \\  /    A nd           | Website:  www.openfoam.com                      |
|    \\/     M anipulation  |                                                 |
\*---------------------------------------------------------------------------*/
FoamFile
{
    version     2.0;
    format      ascii;
    class       volScalarField;
    location    "100";
    object      omega;
}
// * * * * * * * * * * * * * * * * * * * * * * * * * * * * * * * * * * * * * //

dimensions      [0 0 -1 0 0 0 0];


internalField   nonuniform List<scalar> 
14268
(
3.02027
3.03439
3.09113
3.33363
4.20938
6.2458
9.17151
12.343
14.8315
16.5726
17.8759
18.9701
19.9862
21.0171
22.1718
23.277
24.08
24.4858
24.5502
24.2036
22.8788
20.5687
18.7873
17.9175
17.7222
17.8651
18.471
19.4861
20.7897
22.0927
23.3502
24.5996
25.87
27.0724
28.2619
29.3816
30.3488
31.0118
31.2455
30.9993
30.1505
29.49
29.1358
29.0524
29.2102
29.856
31.0035
32.4279
33.8101
34.3937
32.1543
26.9638
23.5361
23.1928
25.6184
32.4234
48.9118
68.0334
76.2381
74.8144
74.948
80.5779
91.9985
103.779
109.177
111.722
114.491
118.141
120.473
119.724
115.366
119.727
132.88
146.435
148.498
142.828
148.043
168.566
170.566
144.687
103.872
74.7507
84.0079
166.888
206.065
208.594
207.021
206.187
203.809
209.012
210.572
208.369
206.753
199.858
176.828
173.248
205.985
259.223
189.111
210.326
231.956
239.367
254.434
251.537
0.585411
0.575263
0.572596
0.596784
0.738419
1.14269
1.87758
2.88236
3.87029
4.68531
5.32894
5.85069
6.29877
6.70861
7.09152
7.41783
7.64903
7.77677
7.8184
7.77336
7.45483
6.76675
6.20949
5.8977
5.77652
5.7622
5.88116
6.19135
6.6143
7.08113
7.56051
8.02856
8.47439
8.89422
9.30013
9.68761
10.021
10.2603
10.3771
10.3797
10.1915
10.077
10.0571
10.1199
10.2742
10.5664
11.0057
11.5722
12.0191
12.1102
11.9062
11.8665
11.3319
11.1315
11.1969
12.3714
16.135
21.7669
25.5909
26.0566
26.5592
28.5191
32.2073
36.3103
38.7622
39.8247
40.7256
41.7795
42.5477
42.4658
42.1099
43.7481
47.8074
52.1511
53.1695
52.9142
55.0602
60.6742
62.5231
58.107
47.5668
35.2968
38.0759
58.5744
68.6747
70.3924
69.6549
67.8331
67.0068
68.3573
69.9041
71.0907
72.2369
70.9217
65.5324
61.0621
66.4399
77.5377
82.8755
99.9567
98.0849
101.685
95.5309
93.0391
0.245352
0.245776
0.253681
0.287263
0.379811
0.57107
0.901006
1.37851
1.93308
2.43626
2.86263
3.22404
3.5386
3.81995
4.06978
4.27417
4.42001
4.50908
4.54923
4.54825
4.41978
4.05892
3.73082
3.53216
3.43913
3.41593
3.46118
3.63241
3.8817
4.16693
4.4789
4.78412
5.06831
5.33127
5.5804
5.81713
6.02482
6.1879
6.29273
6.33318
6.26749
6.2239
6.23452
6.28501
6.39141
6.5762
6.85472
7.25886
7.55641
7.64543
7.70741
7.96318
7.89759
7.91394
7.9266
8.47701
10.2117
13.3559
15.833
16.4776
17.0566
18.3513
20.6681
23.3565
25.1418
25.852
26.2433
26.7194
27.1056
27.0831
27.2748
28.6411
31.4919
34.2508
35.2632
35.3547
36.5422
40.5503
42.1862
39.6784
33.7487
25.7241
27.8835
37.9593
43.7861
45.1389
44.5182
42.7098
41.8277
42.5278
44.1262
46.0944
47.6972
46.7128
43.1291
39.4911
41.5514
46.3402
53.2649
68.2821
63.8348
63.0583
64.664
66.6725
0.185396
0.189013
0.201112
0.234982
0.303483
0.424218
0.623415
0.914757
1.27882
1.63375
1.94818
2.22581
2.4748
2.70022
2.89969
3.06268
3.18057
3.25491
3.29175
3.29731
3.22649
2.98823
2.74993
2.60314
2.53207
2.51295
2.54005
2.662
2.84595
3.0581
3.3005
3.54091
3.76434
3.97018
4.16106
4.3398
4.49884
4.63022
4.72519
4.76904
4.73747
4.70548
4.71226
4.74757
4.83184
4.98143
5.20711
5.51985
5.759
5.88949
6.01949
6.28092
6.30356
6.39279
6.44691
6.81888
7.90274
10.079
11.9674
12.6668
13.2979
14.3079
16.0245
18.0686
19.4997
20.0524
20.2004
20.5037
20.7732
20.7815
21.15
22.4423
24.6374
26.1987
27.4176
28.1249
29.0775
31.8617
32.7336
31.7935
27.7268
21.8353
23.9295
30.0814
33.3725
34.1488
33.6692
32.2475
31.5904
32.1575
33.489
35.2407
36.2457
35.6431
33.6485
30.4085
31.3719
35.272
42.8405
54.1912
44.8196
43.3547
43.0164
46.2309
0.174838
0.181187
0.197887
0.230917
0.284023
0.371146
0.511467
0.717281
0.981447
1.25378
1.50187
1.72796
1.93555
2.12619
2.29632
2.43715
2.54114
2.60833
2.64298
2.65089
2.60498
2.42749
2.23639
2.118
2.05998
2.04403
2.06482
2.16281
2.31231
2.48342
2.68479
2.88627
3.07349
3.2461
3.40468
3.55218
3.68711
3.80769
3.90238
3.9506
3.93797
3.91079
3.91107
3.93338
3.99929
4.12295
4.31415
4.5794
4.79692
4.96379
5.13319
5.36913
5.43667
5.51786
5.57674
5.89415
6.76255
8.43452
9.93654
10.6491
11.3573
12.2571
13.6723
15.3666
16.5801
17.0163
16.9892
17.0865
17.2835
17.353
17.8126
19.122
21.0013
22.3691
23.4463
23.5806
24.1466
26.7967
27.6643
26.987
24.2254
19.965
21.7514
25.4542
27.5138
28.0487
27.6325
26.4361
25.6856
26.0199
27.1426
29.0516
30.4057
29.2985
28.0866
25.9798
26.4227
29.9477
39.4654
46.0545
39.6322
39.2441
36.4168
39.0745
0.175925
0.187196
0.209027
0.239905
0.283323
0.35137
0.459318
0.617758
0.82352
1.04587
1.25401
1.4479
1.62914
1.79786
1.95027
2.07852
2.17513
2.23836
2.27058
2.27795
2.24156
2.09468
1.93047
1.82941
1.7809
1.76811
1.78679
1.87275
2.00324
2.15098
2.32798
2.50588
2.67107
2.82273
2.96188
3.09312
3.2182
3.33562
3.43186
3.48235
3.47766
3.44968
3.44231
3.45475
3.5089
3.61746
3.79031
4.02324
4.23276
4.43794
4.63663
4.80768
4.8636
4.92381
5.00433
5.29466
6.05938
7.42755
8.67863
9.38733
10.1416
10.9928
12.2193
13.7013
14.7705
15.1784
15.0607
14.9429
15.0943
15.2309
15.8561
17.2719
18.8798
20.0596
21.1374
21.1157
21.2719
23.9421
24.8819
23.9997
22.0277
18.8406
20.3042
22.6783
24.3696
24.9067
24.5993
23.531
22.5646
22.6799
23.7367
25.7132
27.2046
25.9689
24.6002
23.0953
23.7862
26.8586
35.6313
43.055
36.5346
36.4097
34.2808
36.4387
0.18211
0.19976
0.224353
0.25309
0.290666
0.347082
0.435083
0.564239
0.733074
0.922334
1.10425
1.27623
1.43916
1.59256
1.73294
1.85314
1.94566
2.00699
2.03749
2.04403
2.0118
1.8824
1.73501
1.64447
1.60135
1.5903
1.60781
1.68655
1.80476
1.93674
2.097
2.25765
2.40656
2.54336
2.67022
2.79177
2.91261
3.03287
3.13455
3.18854
3.18782
3.15748
3.14166
3.14485
3.18739
3.28332
3.44274
3.6596
3.87799
4.13299
4.35523
4.4568
4.48459
4.53221
4.60732
4.90573
5.63495
6.78819
7.85537
8.55101
9.31032
10.083
11.1706
12.5071
13.4452
13.852
13.7746
13.7213
13.8625
14.0319
14.6403
16.0087
17.3143
18.269
19.3825
19.49
19.6332
21.9584
22.8578
22.2154
20.5983
18.2542
19.335
20.7497
22.3072
22.7676
22.4867
21.5357
20.5691
20.6518
21.6104
23.4037
24.799
23.8122
22.7139
21.6046
22.3085
24.6851
32.7803
39.4421
34.1565
34.1721
32.4859
33.6999
0.192726
0.215353
0.24057
0.267919
0.302042
0.351134
0.426034
0.535694
0.67949
0.84484
1.0082
1.16496
1.31532
1.45837
1.59078
1.70604
1.79658
1.85726
1.88683
1.8927
1.8621
1.74237
1.60524
1.52112
1.48129
1.47122
1.48885
1.56329
1.67356
1.79516
1.9439
2.09208
2.22929
2.35575
2.47489
2.59098
2.7109
2.83569
2.94281
3.00035
3.00196
2.96769
2.94351
2.94178
2.97843
3.06725
3.21699
3.42509
3.66213
3.9544
4.19098
4.22359
4.21016
4.2515
4.33135
4.62555
5.34223
6.3479
7.28869
7.97239
8.71027
9.35251
10.2747
11.4542
12.2402
12.6566
12.7384
12.8464
13.0161
13.21
13.7201
14.9103
15.8206
16.5484
17.6905
18.1169
18.4573
20.2557
21.0693
21.1585
19.5848
17.9027
18.5557
19.0936
20.5377
21.0065
20.6767
19.8112
18.9509
19.0517
19.8414
21.2506
22.4771
22.1704
21.4625
20.5695
21.2087
23.1807
30.141
36.1075
32.3621
32.1734
30.7667
30.481
0.207012
0.231685
0.256864
0.283529
0.315678
0.360113
0.426283
0.52244
0.648814
0.796264
0.946302
1.09241
1.23413
1.37018
1.49734
1.60965
1.69953
1.76044
1.78948
1.79449
1.76361
1.64849
1.51731
1.43717
1.39978
1.39059
1.40821
1.47971
1.58453
1.69888
1.83914
1.97772
2.10618
2.22572
2.34054
2.45489
2.57822
2.71052
2.82342
2.88468
2.88756
2.84791
2.8149
2.80706
2.83799
2.92143
3.06573
3.27569
3.54699
3.87965
4.10432
4.08606
4.03375
4.04617
4.11991
4.43061
5.15346
6.06237
6.90768
7.58198
8.3102
8.86317
9.62728
10.6078
11.245
11.6636
11.8746
12.1179
12.2953
12.499
12.8998
13.9238
14.5451
15.1221
16.2722
16.9179
17.424
18.9429
19.6912
20.1738
18.9091
17.5193
17.9504
17.918
19.0874
19.5358
19.1831
18.4135
17.688
17.8212
18.4373
19.5401
20.6262
20.8252
20.4706
19.7744
20.6924
22.4845
27.9478
33.1263
30.5667
30.462
29.1032
28.6776
0.222867
0.247992
0.273138
0.299602
0.330713
0.372229
0.432535
0.519166
0.632836
0.766572
0.906262
1.04441
1.17969
1.31049
1.43373
1.54405
1.63397
1.69579
1.72476
1.729
1.69717
1.58425
1.45673
1.37916
1.34334
1.33469
1.35308
1.42261
1.52369
1.63302
1.76675
1.89772
2.0196
2.13429
2.24593
2.35995
2.48758
2.62667
2.74534
2.81051
2.81482
2.76874
2.7264
2.7149
2.7443
2.82798
2.97379
3.19365
3.49733
3.85929
4.06447
3.99731
3.90764
3.89418
3.96159
4.28144
5.01224
5.85902
6.63759
7.30124
8.00975
8.49815
9.10631
9.8588
10.3637
10.7801
11.0951
11.4445
11.6191
11.8259
12.1468
13.029
13.4021
13.8419
14.963
15.826
16.4566
17.784
18.5172
19.3241
18.5463
17.1571
17.5365
17.1036
18.1262
18.4055
18.018
17.349
16.7334
16.7655
17.1658
18.0048
18.9796
19.6579
19.668
19.2261
20.7756
22.3061
27.4253
31.5168
29.1558
28.9798
27.1049
27.0736
0.238861
0.264185
0.289447
0.316015
0.34671
0.386491
0.442937
0.522903
0.627257
0.750651
0.882167
1.01454
1.14519
1.27215
1.3925
1.50141
1.59173
1.65488
1.68432
1.68794
1.65473
1.54214
1.41625
1.34005
1.30552
1.2977
1.31717
1.38572
1.48436
1.59038
1.71934
1.84457
1.96184
2.07359
2.18384
2.29889
2.43136
2.57737
2.70151
2.77051
2.77621
2.72281
2.671
2.65866
2.68982
2.77455
2.92375
3.15633
3.49241
3.88851
4.07515
3.94746
3.8278
3.79149
3.83842
4.18396
4.9202
5.72092
6.4287
7.0758
7.75369
8.18722
8.6772
9.24953
9.64463
10.0453
10.4244
10.8477
11.0448
11.256
11.5181
12.287
12.4799
12.8442
13.9015
14.8506
15.5581
16.8853
17.6276
18.4948
17.9674
16.8868
17.2245
16.5983
17.4021
17.4274
16.9808
16.4464
15.9587
15.8741
16.1165
16.7707
17.6608
18.649
18.8814
18.8806
21.3118
22.3472
27.541
30.8893
28.1711
27.4415
24.6606
25.1002
0.254855
0.280382
0.305875
0.332747
0.363438
0.402308
0.456309
0.531642
0.629108
0.744566
0.86939
0.997332
1.12439
1.24818
1.36598
1.47354
1.5642
1.62882
1.65947
1.6629
1.6286
1.5156
1.39014
1.31461
1.28106
1.2741
1.29461
1.36267
1.45962
1.56346
1.68854
1.80915
1.92301
2.03292
2.14282
2.26042
2.39894
2.55122
2.67991
2.75177
2.75861
2.69694
2.63503
2.62385
2.66097
2.75134
2.90662
3.15269
3.52591
3.95994
4.12303
3.92399
3.77748
3.71786
3.75237
4.11472
4.85622
5.61584
6.25592
6.87857
7.50877
7.88518
8.27819
8.70841
9.01704
9.39467
9.81817
10.3022
10.5464
10.7661
10.9894
11.6532
11.6848
11.9798
12.9565
13.9555
14.723
16.1186
16.8762
17.7626
17.4837
16.5678
16.9148
16.1972
16.6646
16.4736
16.0073
15.5899
15.2196
15.061
15.1738
15.7335
16.5661
17.7874
18.1425
18.5769
22.5014
22.6267
27.5526
30.8179
27.6476
25.5448
22.6094
23.2229
0.270873
0.296674
0.322499
0.349805
0.380774
0.419324
0.471928
0.544162
0.63666
0.746127
0.865706
0.990337
1.11468
1.23582
1.35126
1.45735
1.54801
1.61406
1.64664
1.65044
1.61552
1.5018
1.37582
1.30037
1.2677
1.26169
1.28329
1.35147
1.44744
1.55014
1.6724
1.78971
1.90161
2.01115
2.1228
2.24502
2.39058
2.5489
2.68103
2.75416
2.76082
2.6895
2.61729
2.61022
2.65838
2.75823
2.92338
3.18981
3.60777
4.08093
4.21518
3.93126
3.75224
3.6727
3.69385
4.07605
4.81862
5.53445
6.10644
6.69952
7.2869
7.61783
7.94939
8.27586
8.51418
8.85973
9.30069
9.81567
10.098
10.3192
10.5072
11.0724
11.0217
11.2687
12.1819
13.1695
13.9732
15.4961
16.3272
17.061
16.9171
16.2761
16.6481
15.8367
15.9229
15.5595
15.1206
14.8056
14.5626
14.3933
14.3759
14.7559
15.5429
17.057
17.4449
18.3737
23.3367
23.1736
27.1473
29.7979
26.9993
23.8023
21.253
22.1859
0.286995
0.313152
0.339395
0.36722
0.398654
0.437314
0.489292
0.559574
0.648529
0.753478
0.868946
0.990862
1.1128
1.23132
1.34413
1.44819
1.53821
1.60547
1.64088
1.64595
1.61142
1.49743
1.37061
1.29504
1.26298
1.25766
1.28038
1.34901
1.44452
1.54695
1.66706
1.782
1.893
2.00352
2.11878
2.2479
2.40293
2.56717
2.70126
2.77304
2.77688
2.69278
2.60904
2.60845
2.67138
2.78387
2.96131
3.25076
3.71794
4.22534
4.33188
3.96119
3.74606
3.65004
3.66404
4.05973
4.79709
5.46136
5.97041
6.53224
7.07655
7.36526
7.65534
7.90334
8.08207
8.39101
8.83388
9.36254
9.6711
9.89326
10.0606
10.528
10.4184
10.6267
11.4656
12.4512
13.2986
15.1408
15.9707
16.4729
16.4386
16.0752
16.4215
15.4438
15.1238
14.647
14.2922
14.045
13.94
13.8426
13.7161
13.8075
14.6732
16.4623
16.8983
18.1578
23.2504
24.0189
26.869
29.0482
26.2586
22.0657
20.415
21.2933
0.311475
0.338271
0.365242
0.393924
0.426251
0.465549
0.517473
0.586179
0.671563
0.771597
0.882481
1.00126
1.11977
1.23404
1.34225
1.44262
1.53091
1.59966
1.63985
1.64866
1.61674
1.50349
1.37509
1.29905
1.26769
1.26334
1.28796
1.35838
1.45427
1.55789
1.67603
1.78899
1.90064
2.01641
2.14234
2.28749
2.45968
2.63271
2.76733
2.83323
2.82734
2.71723
2.61234
2.62659
2.71888
2.85702
3.06133
3.39426
3.94346
4.49117
4.54995
4.04246
3.76452
3.6494
3.6465
4.06875
4.78378
5.37838
5.78942
6.30555
6.80311
7.05339
7.3343
7.50915
7.60001
7.83624
8.25344
8.76207
9.08607
9.29908
9.43935
9.7688
9.66575
9.8723
10.602
11.4954
12.3178
14.4615
15.6354
15.9138
15.5144
15.9077
16.1404
14.8713
14.1466
13.5894
13.2026
12.9842
13.0675
13.1756
12.9604
12.9748
14.0555
15.7818
16.2105
18.04
22.6413
24.5913
26.307
28.0783
25.2274
20.1385
19.4218
20.0026
0.345201
0.37312
0.401274
0.43122
0.465033
0.50598
0.559353
0.62837
0.712154
0.808906
0.916221
1.03116
1.14375
1.25052
1.3507
1.44449
1.52971
1.60001
1.6464
1.66304
1.64131
1.53533
1.40618
1.33002
1.29926
1.29569
1.32393
1.39965
1.50114
1.61139
1.73036
1.84483
1.96372
2.09836
2.25324
2.4356
2.63642
2.81904
2.94747
2.99883
2.96251
2.79155
2.63959
2.68102
2.82692
3.01267
3.26687
3.67135
4.32188
4.86875
4.86435
4.22651
3.85222
3.71667
3.72395
4.13874
4.80949
5.31663
5.59917
6.07622
6.53379
6.76184
7.09985
7.23435
7.20073
7.31696
7.67324
8.12686
8.44488
8.65148
8.79095
8.97802
8.86536
9.07936
9.70049
10.4814
11.3775
13.8159
15.3648
15.7769
14.5521
16.3307
15.7742
14.2206
13.3543
12.7507
12.047
11.8065
12.1498
12.8238
12.3039
12.4636
13.8578
14.715
15.8168
17.6024
22.2603
22.9517
25.1441
26.357
22.4035
18.7235
18.5778
18.6531
0.380362
0.409634
0.43912
0.470384
0.505791
0.5488
0.604469
0.67519
0.759324
0.855008
0.960543
1.07146
1.17781
1.27714
1.37001
1.45844
1.54169
1.6134
1.66418
1.68711
1.67803
1.58589
1.45893
1.38413
1.35515
1.3537
1.38962
1.47865
1.59772
1.72378
1.85132
1.97531
2.11467
2.2863
2.49221
2.73175
2.9616
3.14594
3.25691
3.28752
3.19593
2.9253
2.69628
2.76656
2.97954
3.22331
3.54446
4.02828
4.77283
5.26832
5.19644
4.48647
4.00745
3.84992
3.89031
4.28899
4.91366
5.30441
5.47767
5.92136
6.37201
6.64205
7.16897
7.28145
7.08382
7.05512
7.32752
7.71302
8.00406
8.17025
8.28809
8.39684
8.35259
8.69109
9.24542
9.79271
10.8085
13.3557
15.3726
15.7438
13.9928
15.6525
15.7173
13.8065
12.7956
12.1149
11.1563
11.0043
11.7369
12.0703
11.7343
12.0874
13.7972
14.003
15.7928
17.4418
20.6981
21.7796
22.2855
22.813
19.737
17.7663
17.7261
17.6986
0.417377
0.448183
0.479131
0.51176
0.548797
0.594112
0.652613
0.726044
0.812068
0.908378
1.01334
1.12017
1.22079
1.31367
1.40079
1.48568
1.5688
1.6427
1.69622
1.72208
1.72191
1.64899
1.53027
1.4608
1.43624
1.44096
1.49518
1.61615
1.77697
1.93503
2.08564
2.23355
2.40833
2.63755
2.93096
3.2474
3.50207
3.66838
3.74225
3.7442
3.56315
3.13823
2.78846
2.88123
3.16579
3.45987
3.83542
4.38799
5.1948
5.58229
5.46449
4.76608
4.21723
4.05445
4.13527
4.52592
5.08382
5.3595
5.40016
5.8282
6.28944
6.6447
7.55147
7.74432
7.20738
6.93012
7.10873
7.42833
7.68028
7.81268
7.93554
7.95678
8.03719
8.67835
9.12675
9.19204
10.1528
12.7247
15.5608
15.274
13.698
15.2342
15.6747
13.4343
12.4007
11.6285
10.6774
10.5692
11.0443
10.839
11.3239
11.906
13.5734
13.5749
14.8703
17.127
19.2893
20.4052
20.9312
21.0325
18.5397
17.1242
17.0262
16.8159
0.456911
0.489463
0.522048
0.556162
0.59494
0.64286
0.704806
0.782125
0.871686
0.970489
1.07587
1.17937
1.27548
1.36379
1.44753
1.53097
1.61736
1.69599
1.75194
1.77843
1.7809
1.72578
1.62228
1.56403
1.54811
1.57381
1.67484
1.87181
2.11866
2.34292
2.54452
2.73691
2.95523
3.26144
3.71197
4.14865
4.43384
4.55673
4.55318
4.48001
4.13426
3.48046
2.96838
3.07358
3.42811
3.75092
4.14232
4.76724
5.5982
5.82935
5.67921
4.99897
4.46478
4.31355
4.44976
4.88756
5.37532
5.49163
5.40858
5.83706
6.3518
6.95093
8.78923
9.19849
7.88389
7.09669
7.12964
7.37326
7.56264
7.59816
7.71158
7.73047
8.09646
8.66596
9.34157
8.8978
9.81257
12.2547
15.4255
14.7052
13.6005
15.2306
15.7664
13.257
12.3596
11.3754
10.656
10.4555
10.3498
10.4203
11.1066
11.5816
13.1977
13.0469
14.3624
16.6428
17.944
18.7413
19.9678
20.0493
17.9561
16.5553
16.4049
15.9267
0.500104
0.534711
0.569198
0.605015
0.645798
0.696794
0.763086
0.845782
0.940761
1.04367
1.14929
1.25018
1.34284
1.42839
1.51101
1.59537
1.69032
1.77869
1.83873
1.86417
1.86474
1.81811
1.73509
1.69532
1.69874
1.78371
2.00405
2.37433
2.78393
3.13007
3.40908
3.64512
3.89147
4.30995
5.07699
5.70782
6.02281
6.08763
5.88685
5.63481
4.9823
3.99382
3.30202
3.38113
3.77135
4.04745
4.36216
5.0755
6.03527
5.97591
5.81691
5.24029
4.778
4.63444
4.90068
5.4967
5.92117
5.79615
5.50177
5.95691
6.58438
7.86994
12.4207
13.6344
9.83301
7.61854
7.40031
7.63991
7.90749
7.67774
7.74108
7.78369
8.54236
8.70379
9.1283
8.87505
9.5876
12.0345
15.417
14.3501
13.6356
14.8726
15.8392
13.2023
12.5828
11.4358
11.4098
11.2698
10.5695
10.2451
10.6363
11.3147
12.9727
12.663
13.9362
16.3896
16.6719
16.1103
17.2978
18.7389
17.2276
16.0612
15.7926
15.1266
0.548674
0.58559
0.622175
0.659939
0.703097
0.757853
0.829762
0.919735
1.02182
1.12928
1.23502
1.33375
1.42386
1.50805
1.59096
1.68004
1.79115
1.89818
1.96753
1.99427
1.9931
1.94835
1.88652
1.86903
1.92537
2.1689
2.69318
3.41587
4.07566
4.58015
4.93395
5.19026
5.43258
5.92665
6.77339
7.34721
7.60708
7.68055
7.51399
7.27258
6.34093
4.99076
4.02088
3.91898
4.27185
4.43562
4.69274
5.78529
6.80571
6.46508
5.98413
5.60617
5.285
5.22043
5.88441
6.76106
6.98261
6.34649
5.79099
6.32116
7.20291
10.3704
20.3634
21.3833
13.0625
8.84338
8.40542
9.15186
9.76081
8.56696
8.21398
8.18504
9.33371
9.20215
8.8835
9.1351
9.48507
11.8757
15.5068
14.3165
13.7653
14.5261
15.691
13.1468
13.0524
12.0093
13.5641
13.6453
12.0181
10.3552
10.1995
10.9592
12.4079
12.2687
13.6539
16.3296
15.2571
14.6175
15.4465
17.3001
16.5376
15.5137
15.4175
14.5787
0.880566
0.931539
0.980374
1.03003
1.08913
1.17032
1.28286
1.4275
1.57413
1.70074
1.80326
1.88536
1.95818
2.03056
2.12002
2.26704
2.53078
2.81248
2.98601
3.0609
3.0787
3.0816
3.12521
3.34301
4.19519
6.91339
11.1499
14.1194
15.4264
16.0545
16.3694
16.3593
15.4637
14.5835
14.1722
14.0736
14.2959
15.0286
16.164
17.2677
18.1353
19.4457
14.9206
10.3582
8.28849
7.2805
7.77973
9.50453
10.098
9.45318
10.1327
11.6198
12.0048
13.7951
18.7355
20.0664
15.7734
11.214
8.34668
9.69699
13.359
18.1954
37.1969
36.7993
20.499
16.5897
17.468
24.438
28.1
20.0976
15.2821
13.0493
17.428
15.6407
11.5823
12.518
10.1222
12.5366
15.6718
15.8331
12.8777
12.7343
13.3144
12.645
15.3365
16.2009
32.8394
38.2567
27.4228
14.9236
9.53563
9.04162
9.85643
10.1763
12.0594
13.9836
12.641
12.0544
12.4205
13.114
13.4959
13.3979
13.1613
12.6468
2.41403
2.51265
2.61531
2.75184
2.94428
3.20522
3.54088
3.83358
3.99178
4.02935
3.9346
3.89615
4.01284
4.38087
5.11558
6.43986
8.34541
10.1379
11.8885
13.5703
15.1248
16.8468
19.6351
25.8697
44.2307
75.8048
82.6257
58.9217
42.99
38.8491
39.3311
39.5502
38.1367
35.7731
34.3112
34.6806
37.3528
43.427
46.5145
54.8964
56.0148
59.308
59.5265
46.2423
25.615
17.4775
15.6051
14.8305
15.0639
16.4297
17.1519
24.7775
51.2872
134.399
141.715
116.539
90.6085
77.6614
55.3543
36.4836
27.8693
24.4744
23.4292
24.7164
28.4386
33.681
40.5037
49.5417
55.2014
57.8624
54.2137
54.2815
90.1567
82.1006
45.2399
27.5876
22.1229
22.2407
24.4304
25.8741
24.4745
21.2756
18.1011
19.3217
47.9724
92.2495
123.444
195.186
172.196
71.5398
23.2116
13.5207
11.7066
11.6359
11.3309
11.316
12.7711
13.2818
13.0498
12.8865
13.062
14.0363
17.0934
16.4991
10.7926
16.015
25.704
37.0508
44.5785
49.2088
52.6543
55.1287
55.6272
41.3686
24.0734
16.9584
16.0762
15.8931
15.64
15.4633
17.8937
25.8507
40.077
49.9358
54.2052
56.014
57.0688
57.8193
58.4067
57.737
57.2287
57.1292
57.6595
58.1311
58.4789
58.3983
57.9333
57.9909
57.1478
56.6241
55.7341
54.6529
53.3923
51.6922
49.6861
47.3961
44.511
42.5563
41.1012
40.5284
40.7395
41.5213
43.1845
46.0965
50.7777
57.8311
64.9473
63.3491
60.2948
56.6685
53.1171
49.3341
48.1028
47.2546
46.3252
45.1262
43.9747
42.7552
41.4062
40.1582
38.7184
36.7513
34.3621
33.0462
31.7611
30.6396
30.4271
30.2589
31.5324
29.879
30.8037
31.9079
34.06
34.4144
33.8205
33.131
33.1829
32.9078
33.4834
35.0198
36.0326
35.4025
34.2694
33.3611
31.7929
25.6398
18.176
16.2515
15.4351
13.934
12.9317
12.4514
12.8794
15.1265
22.0035
20.1047
15.7299
14.9021
15.9263
19.2628
22.904
26.5189
29.3892
31.9086
34.4592
36.8479
39.2515
41.5204
43.561
45.569
47.5379
49.1599
50.443
51.2414
51.7344
52.2034
52.1742
51.8796
51.1768
50.0164
48.4966
46.737
44.8106
42.8118
40.7608
38.6502
36.4207
34.1207
31.906
29.8508
27.8983
26.1243
24.4887
23.0104
21.6757
20.5097
19.4717
18.5092
17.7276
17.0335
16.5877
16.3627
16.3003
16.2779
16.2798
16.3047
16.3334
16.3113
16.1966
15.9461
15.674
15.4192
15.2017
15.0342
14.9022
14.7828
14.7067
14.6923
14.6836
14.6701
14.6725
14.6961
14.7583
14.8865
14.9908
15.1358
15.0949
14.9366
14.7946
14.7736
14.7523
15.2752
17.1404
17.1585
16.61
16.1636
16.2447
16.6948
17.4853
17.9373
17.3966
16.6214
15.7929
14.9808
14.8736
15.0993
15.9711
20.2204
28.4373
25.9818
20.1968
17.4326
17.0884
17.5099
17.5456
16.3546
16.4421
16.5194
17.8867
20.5787
23.5329
27.9535
30.0357
30.7044
30.827
30.594
30.1493
29.5995
29.0087
28.3369
27.5495
26.6448
25.7299
24.8071
23.8687
22.9254
21.985
21.0395
20.0795
19.1123
18.1618
17.2787
16.4812
15.77
15.1476
14.5795
14.1017
13.7176
13.4326
13.2155
13.0489
12.9274
12.8435
12.7805
12.7307
12.6934
12.6673
12.6512
12.6429
12.6473
12.6484
12.6586
12.6661
12.6636
12.6607
12.6458
12.6162
12.5746
12.5284
12.4737
12.3993
12.3502
12.3084
12.2546
12.2337
12.2524
12.2932
12.3061
12.2675
12.1739
12.0359
11.8917
11.7872
11.7447
11.7253
11.7329
11.7089
11.6624
11.6259
11.5498
11.4396
11.3352
11.2552
11.1523
10.903
10.8227
11.225
11.7504
12.5019
12.7382
12.7233
12.7263
12.7779
12.7941
12.6244
12.1625
11.7518
11.289
11.1824
11.3428
12.3828
16.9235
24.4815
24.094
21.7653
20.705
19.9133
17.1195
15.4201
14.8979
13.7424
15.5418
20.0623
27.3604
31.2652
29.9016
17.818
17.0499
16.3088
15.5807
14.8605
14.1322
13.403
12.8662
12.4901
12.2226
12.0283
11.8696
11.7315
11.6149
11.5285
11.4626
11.4035
11.3907
11.3991
11.4286
11.4768
11.5347
11.5987
11.6413
11.6605
11.679
11.7036
11.7154
11.7194
11.7105
11.6817
11.6303
11.5639
11.4851
11.4088
11.335
11.2791
11.2327
11.1833
11.131
11.0765
11.0277
10.9751
10.9425
10.9066
10.8669
10.8168
10.7565
10.685
10.6321
10.5734
10.5028
10.4443
10.3711
10.2584
10.1099
9.93672
9.76213
9.57618
9.4559
9.31018
9.13924
8.96921
8.83051
8.68655
8.56927
8.49443
8.40531
8.27985
8.12943
8.08234
8.04061
8.04612
8.22524
8.76049
9.34072
9.38058
9.2519
9.15661
9.09132
9.01115
8.8647
8.69277
8.44909
8.43895
8.38291
8.3977
8.58905
9.53903
13.1161
19.6668
22.4443
23.0896
22.4019
19.8964
16.9977
17.053
19.198
19.1894
16.0495
15.4571
17.4073
18.6855
17.5946
11.7974
11.7739
11.742
11.704
11.6559
11.637
11.6619
11.7438
11.8701
11.9532
11.9545
11.8944
11.7531
11.5426
11.2943
11.1013
10.9837
10.9113
10.8571
10.8054
10.7458
10.6719
10.5844
10.49
10.3895
10.2811
10.168
10.0497
9.92253
9.78417
9.63608
9.47959
9.31923
9.15337
8.99026
8.82388
8.67412
8.52293
8.39431
8.27144
8.17648
8.0902
8.0203
7.94477
7.86468
7.79047
7.72533
7.67666
7.62327
7.58478
7.53539
7.48322
7.42117
7.34811
7.25864
7.15658
7.04555
6.93353
6.82039
6.71798
6.61291
6.52296
6.43238
6.33689
6.23179
6.11859
6.03574
5.94559
5.83426
5.75412
5.74577
5.75425
5.79363
5.9309
6.24023
6.47779
6.49063
6.44064
6.40416
6.43275
6.48178
6.54515
6.67957
6.91095
7.3209
7.54733
7.66946
7.84333
8.51448
10.8475
15.3596
20.1025
22.36
22.013
19.5095
18.0314
18.6171
19.763
20.0683
19.529
17.3529
14.5128
13.1296
11.8225
11.8853
11.6784
11.5337
11.4741
11.4912
11.5391
11.5618
11.5408
11.4395
11.2097
10.8412
10.4165
10.0675
9.77323
9.51561
9.27986
9.06008
8.85324
8.65321
8.45977
8.27501
8.10457
7.949
7.80294
7.66451
7.53519
7.41047
7.29107
7.17524
7.06276
6.95171
6.84088
6.7293
6.61351
6.49772
6.38018
6.27547
6.17038
6.07975
5.98854
5.91244
5.83678
5.77158
5.71187
5.65683
5.60868
5.57577
5.55243
5.52856
5.51146
5.48709
5.4628
5.42947
5.39042
5.34083
5.28526
5.22425
5.16127
5.10289
5.04846
4.9907
4.92736
4.86279
4.799
4.7354
4.67672
4.63695
4.59568
4.54319
4.50566
4.50328
4.50594
4.53372
4.62055
4.7753
4.90474
4.96041
5.00257
5.06899
5.18485
5.36021
5.61789
6.00787
6.54726
7.20734
7.64593
7.7891
7.89091
8.3518
9.65433
12.284
16.4225
20.0569
20.5622
19.2216
18.8929
19.1263
18.9889
18.3334
17.5372
16.6529
15.5138
14.1289
12.5223
9.63382
9.44521
9.30018
9.18415
9.03843
8.8061
8.5181
8.20397
7.90998
7.63347
7.37942
7.15981
6.97189
6.80769
6.65915
6.52097
6.3925
6.27196
6.15697
6.04524
5.93522
5.82748
5.72406
5.62323
5.52706
5.43689
5.35165
5.27139
5.19559
5.12282
5.05057
4.97834
4.9052
4.82941
4.7564
4.68407
4.62259
4.56168
4.51214
4.46211
4.42102
4.38296
4.34921
4.31487
4.28393
4.25572
4.23062
4.21016
4.19167
4.17786
4.161
4.1461
4.12503
4.10222
4.07255
4.03836
4.00184
3.96288
3.92242
3.88071
3.8379
3.79688
3.75657
3.71529
3.67259
3.6327
3.60424
3.5737
3.53972
3.52823
3.53284
3.54922
3.59112
3.6728
3.79144
3.90075
3.98743
4.0763
4.20209
4.40179
4.68841
5.06843
5.57818
6.20714
6.88697
7.43392
7.85865
8.21416
8.72161
9.69949
11.3531
13.8448
17.1279
18.6105
18.4565
18.5178
18.3726
17.6379
16.0688
13.8555
12.437
11.4138
10.7046
10.3202
6.45232
6.2823
6.1278
5.99543
5.86568
5.72079
5.5801
5.43889
5.30604
5.17833
5.06321
4.96226
4.87225
4.79129
4.71715
4.64821
4.58295
4.52012
4.45844
4.39705
4.33528
4.27362
4.21345
4.15491
4.10009
4.0483
3.99801
3.94873
3.90101
3.85479
3.80913
3.76393
3.71814
3.67088
3.62567
3.58142
3.54323
3.50608
3.47525
3.44437
3.41574
3.39047
3.36755
3.34541
3.32432
3.30715
3.2932
3.28167
3.27154
3.26352
3.25374
3.24461
3.23129
3.21756
3.19908
3.17848
3.15532
3.13019
3.10521
3.08021
3.05473
3.02989
3.00567
2.98138
2.95978
2.94396
2.93765
2.93264
2.92933
2.9339
2.94881
2.97665
3.02536
3.10159
3.19777
3.30075
3.41489
3.55108
3.73102
3.97918
4.30499
4.71465
5.20884
5.72444
6.20009
6.77843
7.59934
8.50773
9.15106
9.85408
10.8697
12.3398
14.278
16.3935
17.1121
16.9862
16.3859
15.2047
13.5007
11.8517
10.8433
10.1853
9.81821
9.66677
4.25411
4.17154
4.1075
4.06043
4.01456
3.96021
3.90018
3.83193
3.76358
3.69865
3.641
3.58906
3.54235
3.49951
3.45984
3.42173
3.38565
3.35034
3.31507
3.27942
3.24307
3.20642
3.16988
3.13395
3.10072
3.0691
3.03822
3.00804
2.97897
2.95066
2.92247
2.89426
2.86541
2.83596
2.80777
2.78076
2.75683
2.73433
2.7151
2.69745
2.67988
2.66583
2.65265
2.64026
2.62963
2.62038
2.61232
2.60542
2.59944
2.59441
2.58852
2.58321
2.57499
2.56698
2.55537
2.54282
2.52909
2.51377
2.49853
2.48331
2.46805
2.4548
2.44338
2.43324
2.42555
2.4211
2.42159
2.4243
2.4314
2.44676
2.47216
2.51139
2.57144
2.65617
2.76144
2.88093
3.01657
3.17761
3.38039
3.63838
3.94796
4.29832
4.67416
5.02721
5.38169
5.84754
6.66882
7.93251
9.4238
10.4214
11.2307
12.1075
13.1254
14.7639
15.599
15.3503
14.5309
13.2396
11.588
10.3059
9.64679
9.38958
9.32895
9.29371
2.9608
2.9214
2.88951
2.86318
2.83694
2.80732
2.77785
2.74806
2.7195
2.69099
2.66447
2.63962
2.61665
2.59575
2.575
2.55507
2.53639
2.51734
2.49779
2.47782
2.45742
2.4369
2.4165
2.39664
2.37846
2.36142
2.34507
2.3289
2.3129
2.29694
2.28075
2.26439
2.24748
2.23037
2.21374
2.19786
2.18331
2.16965
2.1578
2.14661
2.13603
2.12708
2.11866
2.11176
2.10582
2.10105
2.09765
2.09538
2.0938
2.09259
2.0908
2.08913
2.08537
2.08225
2.07635
2.07048
2.06368
2.05607
2.04961
2.04366
2.03885
2.03605
2.03458
2.03486
2.03811
2.04542
2.05777
2.07435
2.09559
2.12386
2.16179
2.21333
2.28267
2.37218
2.48028
2.60802
2.76039
2.94004
3.15453
3.40729
3.68978
3.99102
4.29475
4.57672
4.86409
5.2283
5.82249
6.78319
8.18307
9.72283
10.7949
11.6645
12.6597
13.9473
14.1179
13.603
12.5622
11.1472
9.92892
9.24633
8.95973
8.91293
8.95404
9.0302
2.10833
2.09354
2.08202
2.07253
2.06291
2.05196
2.04065
2.0282
2.01555
2.00259
1.99017
1.97838
1.96754
1.95776
1.9479
1.93845
1.92939
1.92021
1.91033
1.89986
1.88916
1.87844
1.86775
1.85735
1.84779
1.83861
1.82979
1.82097
1.81198
1.80271
1.79318
1.78339
1.77319
1.76302
1.75294
1.74352
1.73481
1.72712
1.72027
1.71444
1.70923
1.70472
1.70137
1.69876
1.69702
1.69614
1.69616
1.69681
1.69786
1.69906
1.69987
1.70086
1.70028
1.70052
1.69867
1.6978
1.69637
1.69482
1.69472
1.69533
1.69722
1.70116
1.70707
1.71503
1.72557
1.73898
1.75634
1.77811
1.80558
1.8406
1.88561
1.94528
2.02395
2.12282
2.24104
2.37763
2.53392
2.71185
2.91435
3.14206
3.38986
3.65194
3.9198
4.183
4.45546
4.77936
5.22904
5.83162
6.62417
7.63853
8.64221
9.69822
11.0185
11.9111
11.7741
11.0759
10.0917
9.19192
8.68245
8.47369
8.45197
8.5275
8.72558
8.83104
1.54005
1.5335
1.52844
1.52406
1.5193
1.51422
1.51015
1.50625
1.50249
1.49859
1.49485
1.49129
1.48812
1.48528
1.48213
1.47893
1.47585
1.47239
1.46834
1.46385
1.45911
1.45435
1.44965
1.44503
1.44074
1.43662
1.43263
1.42851
1.42423
1.41976
1.41505
1.41018
1.40507
1.40006
1.39512
1.3907
1.38661
1.38309
1.38011
1.37771
1.37576
1.37456
1.37396
1.374
1.37477
1.3763
1.37859
1.38151
1.38481
1.38824
1.39154
1.39495
1.39749
1.40081
1.4027
1.40573
1.40877
1.41227
1.41718
1.42325
1.43076
1.44011
1.45112
1.46433
1.48055
1.50018
1.52413
1.55312
1.58844
1.63169
1.68533
1.75264
1.83567
1.93568
2.0532
2.18874
2.34214
2.51238
2.70023
2.90519
3.12515
3.35818
3.60054
3.8528
4.12612
4.45331
4.85271
5.30539
5.79835
6.32984
6.89056
7.54222
8.3987
8.89938
8.85637
8.63319
8.34468
8.123
8.05105
8.06544
8.15689
8.35741
8.62426
8.67177
1.1295
1.12874
1.12873
1.12901
1.1291
1.12932
1.13018
1.13132
1.13239
1.13317
1.13372
1.13411
1.13452
1.13506
1.13521
1.13535
1.13547
1.13516
1.13438
1.13333
1.13209
1.13086
1.12958
1.12828
1.12709
1.12591
1.12471
1.12336