/*--------------------------------*- C++ -*----------------------------------*\
| =========                 |                                                 |
| \\      /  F ield         | OpenFOAM: The Open Source CFD Toolbox           |
|  \\    /   O peration     | Version:  v1912                                 |
|   \\  /    A nd           | Website:  www.openfoam.com                      |
|    \\/     M anipulation  |                                                 |
\*---------------------------------------------------------------------------*/
FoamFile
{
    version     2.0;
    format      ascii;
    class       volVectorField;
    location    "100";
    object      U;
}
// * * * * * * * * * * * * * * * * * * * * * * * * * * * * * * * * * * * * * //

dimensions      [0 1 -1 0 0 0 0];


internalField   nonuniform List<vector> 
14268
(
(-1.18278 -0.117869 0)
(-1.19668 -0.119322 0)
(-1.20817 -0.120532 0)
(-1.21766 -0.121549 0)
(-1.22563 -0.12245 0)
(-1.23235 -0.123328 0)
(-1.23766 -0.124191 0)
(-1.24149 -0.125012 0)
(-1.24323 -0.125867 0)
(-1.24198 -0.126968 0)
(-1.23713 -0.127769 0)
(-1.22764 -0.128092 0)
(-1.2136 -0.127875 0)
(-1.19507 -0.127194 0)
(-1.17226 -0.125949 0)
(-1.14492 -0.124238 0)
(-1.11238 -0.121747 0)
(-1.07543 -0.118393 0)
(-1.04046 -0.114699 0)
(-1.01167 -0.111069 0)
(-0.992347 -0.107798 0)
(-0.982649 -0.10517 0)
(-0.978957 -0.103358 0)
(-0.976448 -0.102284 0)
(-0.970746 -0.102238 0)
(-0.957318 -0.102217 0)
(-0.936488 -0.100516 0)
(-0.914758 -0.0992335 0)
(-0.887273 -0.0973812 0)
(-0.854684 -0.0949061 0)
(-0.817379 -0.0923387 0)
(-0.777037 -0.0895077 0)
(-0.732389 -0.0863871 0)
(-0.682581 -0.0825302 0)
(-0.628126 -0.0779696 0)
(-0.57159 -0.0728135 0)
(-0.514301 -0.067258 0)
(-0.457621 -0.0623464 0)
(-0.404443 -0.0570275 0)
(-0.359204 -0.0519067 0)
(-0.325453 -0.0472174 0)
(-0.304135 -0.0437108 0)
(-0.293246 -0.0419934 0)
(-0.287295 -0.041095 0)
(-0.282297 -0.0413351 0)
(-0.277124 -0.0417773 0)
(-0.269043 -0.0425249 0)
(-0.257571 -0.0434407 0)
(-0.234244 -0.0431828 0)
(-0.206589 -0.0430513 0)
(-0.166806 -0.0351066 0)
(-0.209121 -0.0404538 0)
(-0.275225 -0.0430643 0)
(-0.331175 -0.0461597 0)
(-0.352001 -0.0451414 0)
(-0.352189 -0.0503587 0)
(-0.287048 -0.0581007 0)
(-0.164787 -0.0578851 0)
(-0.103408 -0.0578463 0)
(-0.0969775 -0.0651778 0)
(-0.0843234 -0.0740146 0)
(-0.0696078 -0.0730439 0)
(-0.0244186 -0.0811715 0)
(0.0603682 -0.0930143 0)
(0.14963 -0.0899 0)
(0.231398 -0.0949512 0)
(0.29945 -0.0877511 0)
(0.347621 -0.0709697 0)
(0.381356 -0.0682539 0)
(0.412688 -0.0630967 0)
(0.426492 -0.0583654 0)
(0.42186 -0.0793258 0)
(0.451502 -0.08851 0)
(0.582672 -0.0886833 0)
(0.771724 -0.108427 0)
(0.829939 -0.101368 0)
(0.737612 -0.0995701 0)
(0.789659 -0.141031 0)
(1.05153 -0.133731 0)
(1.17409 -0.0513252 0)
(0.941264 -0.040524 0)
(0.724752 0.017742 0)
(0.649894 0.0240042 0)
(0.46575 -0.0616016 0)
(0.551834 -0.0496571 0)
(0.654131 -0.0556674 0)
(0.76438 -0.0469147 0)
(0.822863 -0.0446415 0)
(0.87591 -0.0432178 0)
(0.91817 -0.0529259 0)
(0.977604 -0.0658562 0)
(1.06587 -0.0756713 0)
(1.27052 -0.079261 0)
(1.56135 -0.0296712 0)
(1.4533 -0.0310808 0)
(1.52004 -0.0202678 0)
(1.82538 0.00433419 0)
(2.31337 0.134657 0)
(2.12429 0.177595 0)
(1.14082 -0.00656758 0)
(1.01161 0.0374265 0)
(1.6495 0.0802436 0)
(2.0897 0.211627 0)
(2.01111 0.181648 0)
(-1.17706 -0.116848 0)
(-1.19084 -0.11838 0)
(-1.20225 -0.119638 0)
(-1.21197 -0.120699 0)
(-1.22056 -0.121579 0)
(-1.22805 -0.122264 0)
(-1.23396 -0.122673 0)
(-1.23815 -0.12277 0)
(-1.2401 -0.122522 0)
(-1.23913 -0.121492 0)
(-1.23458 -0.120203 0)
(-1.22546 -0.118471 0)
(-1.21191 -0.116368 0)
(-1.19402 -0.113845 0)
(-1.172 -0.111026 0)
(-1.14554 -0.107861 0)
(-1.11388 -0.104369 0)
(-1.07787 -0.100559 0)
(-1.04404 -0.0969935 0)
(-1.01638 -0.0942405 0)
(-0.997656 -0.0927741 0)
(-0.987625 -0.092624 0)
(-0.982942 -0.093178 0)
(-0.979307 -0.0937376 0)
(-0.972705 -0.0931493 0)
(-0.958905 -0.0911083 0)
(-0.938278 -0.0890677 0)
(-0.916789 -0.0863383 0)
(-0.889308 -0.0832515 0)
(-0.856818 -0.0796787 0)
(-0.819648 -0.0752269 0)
(-0.779595 -0.0703516 0)
(-0.7352 -0.0650799 0)
(-0.685585 -0.0594545 0)
(-0.63146 -0.0535437 0)
(-0.575471 -0.0476082 0)
(-0.519065 -0.0418154 0)
(-0.463838 -0.0353587 0)
(-0.412505 -0.0296803 0)
(-0.369122 -0.0250224 0)
(-0.336517 -0.0219855 0)
(-0.315424 -0.0200154 0)
(-0.303964 -0.0188356 0)
(-0.29646 -0.0180365 0)
(-0.288922 -0.0164906 0)
(-0.280679 -0.0149074 0)
(-0.27045 -0.0127047 0)
(-0.258593 -0.0101684 0)
(-0.237241 -0.00705646 0)
(-0.21415 -0.00258376 0)
(-0.179693 0.00032911 0)
(-0.226878 0.000541635 0)
(-0.29409 -0.00966709 0)
(-0.346904 -0.0191753 0)
(-0.358906 -0.0255894 0)
(-0.338546 -0.021979 0)
(-0.247832 -0.00530877 0)
(-0.144008 0.0160905 0)
(-0.0964631 0.0329805 0)
(-0.101708 0.0425556 0)
(-0.0946059 0.0533152 0)
(-0.0767366 0.0537404 0)
(-0.0285442 0.0667917 0)
(0.053117 0.0920195 0)
(0.137358 0.106428 0)
(0.21856 0.12882 0)
(0.281616 0.136183 0)
(0.31625 0.128972 0)
(0.338166 0.132224 0)
(0.363553 0.133583 0)
(0.378351 0.133315 0)
(0.381195 0.153572 0)
(0.420408 0.163099 0)
(0.550293 0.178259 0)
(0.718449 0.238378 0)
(0.776217 0.254802 0)
(0.727013 0.241818 0)
(0.773033 0.272002 0)
(1.02531 0.309599 0)
(1.08246 0.277482 0)
(0.804634 0.227017 0)
(0.554428 0.11813 0)
(0.525414 0.100331 0)
(0.48532 0.149983 0)
(0.541975 0.135245 0)
(0.577878 0.152271 0)
(0.640904 0.163276 0)
(0.67508 0.170455 0)
(0.724746 0.181264 0)
(0.796519 0.20138 0)
(0.893719 0.228073 0)
(1.0177 0.256735 0)
(1.22837 0.28752 0)
(1.46238 0.309927 0)
(1.33299 0.302685 0)
(1.38814 0.277393 0)
(1.58832 0.279577 0)
(1.81845 0.239542 0)
(1.8427 0.242074 0)
(1.14573 0.254798 0)
(1.00193 0.103341 0)
(1.36897 0.135715 0)
(1.5316 0.100133 0)
(1.52468 0.142349 0)
(-1.17721 -0.116046 0)
(-1.19095 -0.117697 0)
(-1.20258 -0.119084 0)
(-1.21281 -0.120307 0)
(-1.22188 -0.121383 0)
(-1.22943 -0.122398 0)
(-1.23477 -0.123369 0)
(-1.23761 -0.124143 0)
(-1.23793 -0.125255 0)
(-1.23431 -0.126142 0)
(-1.22753 -0.126933 0)
(-1.21657 -0.127298 0)
(-1.20179 -0.127215 0)
(-1.18337 -0.126736 0)
(-1.16116 -0.125754 0)
(-1.1345 -0.124358 0)
(-1.10273 -0.122194 0)
(-1.06652 -0.118963 0)
(-1.03251 -0.115108 0)
(-1.00502 -0.11118 0)
(-0.987072 -0.107624 0)
(-0.978355 -0.104827 0)
(-0.975167 -0.10299 0)
(-0.973007 -0.102038 0)
(-0.967677 -0.102305 0)
(-0.954864 -0.102733 0)
(-0.934392 -0.101292 0)
(-0.912145 -0.10012 0)
(-0.883836 -0.098474 0)
(-0.85019 -0.0961025 0)
(-0.811734 -0.0935918 0)
(-0.77065 -0.0908056 0)
(-0.725317 -0.08782 0)
(-0.674929 -0.0840996 0)
(-0.620195 -0.0796337 0)
(-0.563477 -0.074433 0)
(-0.506288 -0.0687649 0)
(-0.450266 -0.0637449 0)
(-0.398472 -0.0581862 0)
(-0.355004 -0.0527255 0)
(-0.322771 -0.0476508 0)
(-0.302006 -0.0436433 0)
(-0.29049 -0.0416228 0)
(-0.282667 -0.0404873 0)
(-0.274998 -0.0404714 0)
(-0.267583 -0.0406595 0)
(-0.259466 -0.0413341 0)
(-0.25002 -0.0425313 0)
(-0.228997 -0.0426873 0)
(-0.207249 -0.0433636 0)
(-0.172749 -0.0345723 0)
(-0.216851 -0.0342644 0)
(-0.281696 -0.036931 0)
(-0.336352 -0.0426599 0)
(-0.3513 -0.0448644 0)
(-0.335441 -0.0514081 0)
(-0.256167 -0.0583196 0)
(-0.155576 -0.0561122 0)
(-0.108077 -0.0551073 0)
(-0.109485 -0.0633194 0)
(-0.0936127 -0.0723979 0)
(-0.0719117 -0.0706448 0)
(-0.0228294 -0.0775287 0)
(0.0592765 -0.0883525 0)
(0.146238 -0.0848627 0)
(0.228072 -0.0896068 0)
(0.297097 -0.0815904 0)
(0.345126 -0.0636673 0)
(0.374804 -0.0609504 0)
(0.403017 -0.0558505 0)
(0.417726 -0.0515982 0)
(0.419517 -0.0714216 0)
(0.445954 -0.0812235 0)
(0.567015 -0.0788872 0)
(0.757088 -0.099016 0)
(0.831111 -0.088775 0)
(0.772106 -0.0807339 0)
(0.780649 -0.129374 0)
(1.03071 -0.120589 0)
(1.14149 -0.0270936 0)
(0.899151 -0.00423711 0)
(0.610785 0.024803 0)
(0.535098 0.0242404 0)
(0.439683 -0.049814 0)
(0.504259 -0.0330226 0)
(0.598813 -0.0375304 0)
(0.717531 -0.0285986 0)
(0.79115 -0.0246233 0)
(0.850031 -0.0242415 0)
(0.902735 -0.0330188 0)
(0.975919 -0.045602 0)
(1.08392 -0.0557811 0)
(1.26683 -0.0611238 0)
(1.53223 -0.012578 0)
(1.47726 -0.0035059 0)
(1.52437 -0.00367454 0)
(1.72439 0.0182523 0)
(1.94312 0.12368 0)
(1.84478 0.230794 0)
(0.988989 0.0816164 0)
(0.879606 0.114198 0)
(1.65211 0.201183 0)
(2.23758 0.275868 0)
(2.03295 0.221304 0)
(-1.17732 -0.115614 0)
(-1.19115 -0.11735 0)
(-1.20307 -0.118816 0)
(-1.21365 -0.120101 0)
(-1.22283 -0.121149 0)
(-1.23015 -0.122002 0)
(-1.23511 -0.122593 0)
(-1.2376 -0.122764 0)
(-1.23674 -0.122461 0)
(-1.23206 -0.121537 0)
(-1.22419 -0.120459 0)
(-1.2123 -0.118953 0)
(-1.19697 -0.117169 0)
(-1.17836 -0.115047 0)
(-1.15604 -0.112713 0)
(-1.12939 -0.110113 0)
(-1.09782 -0.107167 0)
(-1.06177 -0.103497 0)
(-1.02783 -0.0994667 0)
(-1.00055 -0.0958594 0)
(-0.983128 -0.093404 0)
(-0.975215 -0.092496 0)
(-0.97286 -0.0927689 0)
(-0.971406 -0.0936443 0)
(-0.966568 -0.0938711 0)
(-0.954176 -0.0927645 0)
(-0.933874 -0.0912553 0)
(-0.911206 -0.0888886 0)
(-0.882414 -0.0863439 0)
(-0.848156 -0.083235 0)
(-0.809184 -0.0790799 0)
(-0.767644 -0.0744995 0)
(-0.721933 -0.0697225 0)
(-0.671221 -0.0646226 0)
(-0.616423 -0.0590574 0)
(-0.559641 -0.0532829 0)
(-0.502529 -0.0475133 0)
(-0.446964 -0.0407352 0)
(-0.395734 -0.0344185 0)
(-0.352881 -0.0287326 0)
(-0.321084 -0.0244892 0)
(-0.300254 -0.0212248 0)
(-0.288227 -0.0192256 0)
(-0.279418 -0.0179859 0)
(-0.270599 -0.0163386 0)
(-0.26257 -0.0149452 0)
(-0.254959 -0.0133202 0)
(-0.246922 -0.0120352 0)
(-0.226995 -0.0101502 0)
(-0.206191 -0.00645123 0)
(-0.177093 0.000211778 0)
(-0.225061 0.00243117 0)
(-0.288742 -0.00678475 0)
(-0.339413 -0.0174973 0)
(-0.350655 -0.0253424 0)
(-0.324993 -0.0265263 0)
(-0.236717 -0.0170159 0)
(-0.145199 0.00219599 0)
(-0.100394 0.0253655 0)
(-0.103471 0.0384882 0)
(-0.0973108 0.0473405 0)
(-0.0775611 0.044061 0)
(-0.0286684 0.0509344 0)
(0.0515842 0.0712223 0)
(0.130906 0.0843053 0)
(0.204349 0.107436 0)
(0.274717 0.118697 0)
(0.315124 0.115416 0)
(0.335594 0.120108 0)
(0.362189 0.123204 0)
(0.373556 0.125184 0)
(0.372298 0.143459 0)
(0.410096 0.139283 0)
(0.543318 0.139954 0)
(0.708778 0.205363 0)
(0.745352 0.238557 0)
(0.662056 0.225341 0)
(0.68907 0.225559 0)
(1.04139 0.264948 0)
(1.10917 0.266896 0)
(0.812905 0.226069 0)
(0.54009 0.12021 0)
(0.494087 0.0897106 0)
(0.454931 0.140246 0)
(0.524134 0.116383 0)
(0.582873 0.126947 0)
(0.648714 0.141023 0)
(0.697161 0.152684 0)
(0.760961 0.164342 0)
(0.832938 0.181953 0)
(0.918118 0.201195 0)
(1.01819 0.22086 0)
(1.20746 0.236338 0)
(1.45305 0.285638 0)
(1.33368 0.287749 0)
(1.40405 0.244953 0)
(1.62168 0.243789 0)
(1.84074 0.223061 0)
(1.78443 0.230141 0)
(1.16474 0.328775 0)
(1.3658 0.10495 0)
(1.22483 0.0454365 0)
(1.3442 0.159112 0)
(1.61427 0.25861 0)
(-1.17751 -0.114819 0)
(-1.19154 -0.116696 0)
(-1.2038 -0.118292 0)
(-1.21466 -0.119684 0)
(-1.22398 -0.12088 0)
(-1.23132 -0.122015 0)
(-1.23624 -0.123098 0)
(-1.23865 -0.123974 0)
(-1.23724 -0.125246 0)
(-1.23173 -0.125978 0)
(-1.22279 -0.126666 0)
(-1.2098 -0.126946 0)
(-1.19348 -0.126807 0)
(-1.17404 -0.126341 0)
(-1.15112 -0.125452 0)
(-1.12408 -0.124227 0)
(-1.09237 -0.122308 0)
(-1.05636 -0.119152 0)
(-1.0223 -0.115019 0)
(-0.994863 -0.110628 0)
(-0.977457 -0.106664 0)
(-0.96989 -0.10372 0)
(-0.968152 -0.102014 0)
(-0.967519 -0.101352 0)
(-0.963676 -0.102027 0)
(-0.952017 -0.103007 0)
(-0.932053 -0.101952 0)
(-0.908999 -0.100878 0)
(-0.879872 -0.0994317 0)
(-0.844963 -0.0970918 0)
(-0.805117 -0.0946195 0)
(-0.762646 -0.0917772 0)
(-0.716057 -0.0887934 0)
(-0.664563 -0.0850603 0)
(-0.609347 -0.0806913 0)
(-0.552274 -0.0754006 0)
(-0.495051 -0.0695092 0)
(-0.439507 -0.0644187 0)
(-0.38851 -0.0585163 0)
(-0.345984 -0.0525989 0)
(-0.314686 -0.0470697 0)
(-0.294254 -0.0426355 0)
(-0.282103 -0.0403377 0)
(-0.272855 -0.0390205 0)
(-0.263273 -0.0387184 0)
(-0.254654 -0.0385889 0)
(-0.246998 -0.039086 0)
(-0.2395 -0.0405729 0)
(-0.220463 -0.0410242 0)
(-0.202134 -0.0421637 0)
(-0.171793 -0.0326907 0)
(-0.218526 -0.026365 0)
(-0.283851 -0.029495 0)
(-0.335557 -0.0378212 0)
(-0.345414 -0.0444119 0)
(-0.31684 -0.051892 0)
(-0.235257 -0.0581272 0)
(-0.149633 -0.0533689 0)
(-0.108366 -0.050834 0)
(-0.109428 -0.0602175 0)
(-0.0921889 -0.0688706 0)
(-0.0676098 -0.066192 0)
(-0.014521 -0.0712473 0)
(0.0681347 -0.0792402 0)
(0.15383 -0.0741471 0)
(0.235737 -0.0786464 0)
(0.286909 -0.073372 0)
(0.307154 -0.0575239 0)
(0.337581 -0.0550129 0)
(0.36421 -0.0516514 0)
(0.387371 -0.0481745 0)
(0.407181 -0.0648849 0)
(0.440675 -0.0686395 0)
(0.562384 -0.0747821 0)
(0.737491 -0.0868528 0)
(0.819785 -0.0629841 0)
(0.724386 -0.0572314 0)
(0.832398 -0.0945805 0)
(1.07546 -0.0933412 0)
(1.13106 0.00769896 0)
(0.849541 0.0436339 0)
(0.542296 0.0422866 0)
(0.48767 0.0394231 0)
(0.419396 -0.039041 0)
(0.533331 -0.0191168 0)
(0.631282 -0.0154205 0)
(0.72146 -0.0100959 0)
(0.780896 -0.00942538 0)
(0.835279 -0.00750595 0)
(0.878688 -0.0145899 0)
(0.952077 -0.0230013 0)
(1.0814 -0.0333054 0)
(1.31026 -0.044268 0)
(1.48335 -0.000852865 0)
(1.38489 0.0106557 0)
(1.46449 -0.00220587 0)
(1.71228 0.0156121 0)
(1.86846 0.124347 0)
(1.69341 0.206893 0)
(1.71342 0.0507422 0)
(1.45416 -0.000234795 0)
(1.07167 -0.104876 0)
(1.06831 -0.0755997 0)
(1.35193 -0.0853415 0)
(-1.17783 -0.114381 0)
(-1.19218 -0.116366 0)
(-1.20475 -0.118046 0)
(-1.21583 -0.119488 0)
(-1.22527 -0.120721 0)
(-1.23267 -0.121797 0)
(-1.2376 -0.122651 0)
(-1.24002 -0.123124 0)
(-1.23836 -0.123177 0)
(-1.23246 -0.122638 0)
(-1.22304 -0.121918 0)
(-1.20958 -0.12073 0)
(-1.19291 -0.119252 0)
(-1.17323 -0.117452 0)
(-1.1502 -0.115521 0)
(-1.12317 -0.113404 0)
(-1.0916 -0.110946 0)
(-1.05572 -0.10743 0)
(-1.02164 -0.10296 0)
(-0.994097 -0.0984511 0)
(-0.976664 -0.0948592 0)
(-0.969254 -0.0929958 0)
(-0.967829 -0.092806 0)
(-0.96748 -0.0938454 0)
(-0.963973 -0.0948571 0)
(-0.952604 -0.094711 0)
(-0.932556 -0.0937829 0)
(-0.90925 -0.0919006 0)
(-0.879862 -0.0899823 0)
(-0.844581 -0.087493 0)
(-0.804538 -0.0836327 0)
(-0.761809 -0.0793894 0)
(-0.71487 -0.0751731 0)
(-0.663121 -0.0706178 0)
(-0.607962 -0.0652779 0)
(-0.551056 -0.0597068 0)
(-0.494147 -0.054067 0)
(-0.439267 -0.0469066 0)
(-0.38855 -0.0400381 0)
(-0.346218 -0.0334072 0)
(-0.314969 -0.0280202 0)
(-0.294473 -0.023657 0)
(-0.281854 -0.0209366 0)
(-0.271741 -0.0193737 0)
(-0.260823 -0.0175854 0)
(-0.251201 -0.0160738 0)
(-0.243648 -0.0146255 0)
(-0.237308 -0.0143765 0)
(-0.219763 -0.0137314 0)
(-0.202308 -0.0108937 0)
(-0.176094 -0.000180391 0)
(-0.221432 0.00369611 0)
(-0.284129 -0.004959 0)
(-0.335643 -0.0171554 0)
(-0.34601 -0.0263369 0)
(-0.31031 -0.0316658 0)
(-0.226565 -0.0282604 0)
(-0.148274 -0.0107197 0)
(-0.11076 0.0167121 0)
(-0.111766 0.0336422 0)
(-0.0972381 0.0414589 0)
(-0.0706211 0.0335272 0)
(-0.0203274 0.0325374 0)
(0.0642537 0.046091 0)
(0.142813 0.0572325 0)
(0.213241 0.0807363 0)
(0.27024 0.0970434 0)
(0.313614 0.0998338 0)
(0.342657 0.105577 0)
(0.380304 0.112205 0)
(0.401559 0.115923 0)
(0.396581 0.12836 0)
(0.428598 0.105146 0)
(0.555459 0.108121 0)
(0.710259 0.160511 0)
(0.746472 0.193661 0)
(0.778388 0.197732 0)
(0.841124 0.151643 0)
(0.975001 0.178385 0)
(1.00526 0.237067 0)
(0.740595 0.223137 0)
(0.455679 0.12752 0)
(0.46181 0.0822253 0)
(0.482086 0.117733 0)
(0.572286 0.0752822 0)
(0.643289 0.0801637 0)
(0.696451 0.097668 0)
(0.711873 0.11108 0)
(0.743949 0.120109 0)
(0.81716 0.132957 0)
(0.94393 0.142768 0)
(1.08809 0.154642 0)
(1.28154 0.168388 0)
(1.3899 0.236439 0)
(1.21032 0.250388 0)
(1.30698 0.196099 0)
(1.61335 0.209489 0)
(1.88636 0.225037 0)
(1.61441 0.304779 0)
(1.68992 0.386925 0)
(1.53118 0.245779 0)
(1.21412 0.212866 0)
(1.27003 0.191304 0)
(1.25851 0.283423 0)
(-1.17842 -0.113645 0)
(-1.1931 -0.11577 0)
(-1.20592 -0.117543 0)
(-1.21716 -0.11908 0)
(-1.22673 -0.120446 0)
(-1.23427 -0.121758 0)
(-1.2393 -0.123016 0)
(-1.24172 -0.124091 0)
(-1.23996 -0.125545 0)
(-1.23377 -0.126316 0)
(-1.22398 -0.127067 0)
(-1.21013 -0.127391 0)
(-1.19301 -0.12729 0)
(-1.17287 -0.126879 0)
(-1.14954 -0.126128 0)
(-1.12234 -0.125124 0)
(-1.09082 -0.123507 0)
(-1.05517 -0.120467 0)
(-1.02109 -0.116025 0)
(-0.993398 -0.111048 0)
(-0.975778 -0.106481 0)
(-0.968256 -0.103201 0)
(-0.966732 -0.101484 0)
(-0.966364 -0.101006 0)
(-0.962971 -0.101997 0)
(-0.952061 -0.103534 0)
(-0.932029 -0.102906 0)
(-0.90858 -0.102055 0)
(-0.879053 -0.100905 0)
(-0.843537 -0.0987165 0)
(-0.802873 -0.0963834 0)
(-0.759542 -0.093545 0)
(-0.711905 -0.0905139 0)
(-0.659648 -0.0867781 0)
(-0.604319 -0.0826816 0)
(-0.547653 -0.0774261 0)
(-0.491395 -0.071447 0)
(-0.43692 -0.0663541 0)
(-0.387138 -0.060049 0)
(-0.345014 -0.0534528 0)
(-0.313645 -0.0472094 0)
(-0.29308 -0.0421918 0)
(-0.280004 -0.0395488 0)
(-0.269241 -0.0380358 0)
(-0.257255 -0.0373537 0)
(-0.247027 -0.0368058 0)
(-0.239242 -0.0369591 0)
(-0.233344 -0.0385979 0)
(-0.217201 -0.0393127 0)
(-0.203778 -0.0410312 0)
(-0.178458 -0.0312383 0)
(-0.218017 -0.0177885 0)
(-0.278552 -0.0206612 0)
(-0.330205 -0.0322889 0)
(-0.339617 -0.044023 0)
(-0.298326 -0.0535683 0)
(-0.223811 -0.059577 0)
(-0.157375 -0.0517667 0)
(-0.127921 -0.0479641 0)
(-0.127342 -0.0587949 0)
(-0.0988203 -0.065807 0)
(-0.0572541 -0.0575896 0)
(0.00765629 -0.0579356 0)
(0.0900872 -0.0612395 0)
(0.176438 -0.0533829 0)
(0.25774 -0.0568118 0)
(0.318871 -0.0564823 0)
(0.339614 -0.0562899 0)
(0.333686 -0.0558637 0)
(0.355476 -0.0532879 0)
(0.386019 -0.0406475 0)
(0.416333 -0.0484294 0)
(0.460391 -0.0401397 0)
(0.596602 -0.0495866 0)
(0.788863 -0.0476964 0)
(0.866145 -0.0257509 0)
(0.843381 -0.0243722 0)
(0.82975 -0.0350968 0)
(1.03483 -0.0375235 0)
(1.07498 0.0249415 0)
(0.673925 0.0514134 0)
(0.404401 0.0242481 0)
(0.420297 0.0392373 0)
(0.482502 -0.0146955 0)
(0.557805 0.014309 0)
(0.613116 0.0234563 0)
(0.688261 0.027124 0)
(0.756674 0.0250192 0)
(0.850212 0.0264278 0)
(0.917535 0.0193744 0)
(0.994308 0.0181888 0)
(1.11498 0.0164184 0)
(1.31994 0.0129508 0)
(1.49621 0.0388404 0)
(1.32432 0.0204612 0)
(1.30529 -0.00782102 0)
(1.51381 -0.00444572 0)
(1.83561 0.12944 0)
(1.58747 0.193664 0)
(1.42699 0.157823 0)
(1.48739 0.0510469 0)
(1.21847 -0.0270166 0)
(1.19246 0.0233898 0)
(1.3799 0.00811795 0)
(-1.17924 -0.113211 0)
(-1.19422 -0.11543 0)
(-1.20724 -0.117287 0)
(-1.2186 -0.1189 0)
(-1.2283 -0.120324 0)
(-1.23595 -0.121635 0)
(-1.24108 -0.122768 0)
(-1.24354 -0.123573 0)
(-1.24183 -0.124179 0)
(-1.23558 -0.124101 0)
(-1.22571 -0.123824 0)
(-1.21177 -0.123042 0)
(-1.19457 -0.121897 0)
(-1.1744 -0.120416 0)
(-1.15114 -0.118863 0)
(-1.12414 -0.117179 0)
(-1.09298 -0.115165 0)
(-1.05768 -0.111832 0)
(-1.02362 -0.107017 0)
(-0.995727 -0.101701 0)
(-0.977813 -0.0970227 0)
(-0.970109 -0.0941735 0)
(-0.968593 -0.0934234 0)
(-0.968195 -0.0944574 0)
(-0.964686 -0.0960743 0)
(-0.953856 -0.0968718 0)
(-0.933528 -0.0964821 0)
(-0.909884 -0.0950523 0)
(-0.880173 -0.093718 0)
(-0.844302 -0.0917435 0)
(-0.803509 -0.0882997 0)
(-0.759969 -0.0844477 0)
(-0.712141 -0.080756 0)
(-0.659806 -0.0766368 0)
(-0.604687 -0.071437 0)
(-0.548402 -0.065976 0)
(-0.49279 -0.0603227 0)
(-0.439734 -0.0531604 0)
(-0.390871 -0.0460113 0)
(-0.34903 -0.0386643 0)
(-0.317211 -0.0322142 0)
(-0.296131 -0.0268883 0)
(-0.282358 -0.0235543 0)
(-0.270555 -0.0217673 0)
(-0.257671 -0.0199005 0)
(-0.246616 -0.0181679 0)
(-0.239059 -0.0167117 0)
(-0.233849 -0.0172686 0)
(-0.218536 -0.0176841 0)
(-0.208375 -0.0162394 0)
(-0.188871 -0.00223138 0)
(-0.223882 0.0038815 0)
(-0.277684 -0.00315864 0)
(-0.326156 -0.016211 0)
(-0.334909 -0.0277507 0)
(-0.290226 -0.0366418 0)
(-0.221757 -0.0371003 0)
(-0.157609 -0.0214254 0)
(-0.125982 0.00742555 0)
(-0.12986 0.0259149 0)
(-0.109428 0.0300603 0)
(-0.0769702 0.0169553 0)
(-0.0140328 0.013264 0)
(0.0760121 0.0226448 0)
(0.162399 0.0328749 0)
(0.244371 0.0595268 0)
(0.316701 0.0878378 0)
(0.355765 0.112379 0)
(0.380607 0.113893 0)
(0.405727 0.117834 0)
(0.418115 0.111802 0)
(0.410447 0.115172 0)
(0.440783 0.0760544 0)
(0.574612 0.0684943 0)
(0.756304 0.123955 0)
(0.820829 0.18681 0)
(0.769259 0.196845 0)
(0.828818 0.112802 0)
(1.04498 0.144903 0)
(1.05407 0.245576 0)
(0.719906 0.254716 0)
(0.324019 0.12588 0)
(0.399726 0.0558084 0)
(0.396178 0.0924469 0)
(0.570491 0.0817436 0)
(0.675368 0.0794484 0)
(0.745278 0.0946012 0)
(0.79907 0.11093 0)
(0.84945 0.114298 0)
(0.89339 0.117356 0)
(0.978109 0.117138 0)
(1.11359 0.110703 0)
(1.32675 0.113443 0)
(1.46009 0.233292 0)
(1.30882 0.273094 0)
(1.3063 0.14714 0)
(1.42542 0.114568 0)
(1.71171 0.192417 0)
(1.61709 0.342004 0)
(1.63584 0.340291 0)
(1.45847 0.228571 0)
(1.22183 0.172589 0)
(1.11127 0.139566 0)
(1.68232 0.181889 0)
(-1.18031 -0.112531 0)
(-1.19553 -0.114869 0)
(-1.2087 -0.11682 0)
(-1.22016 -0.118515 0)
(-1.22998 -0.120048 0)
(-1.2378 -0.121557 0)
(-1.24305 -0.123021 0)
(-1.24553 -0.124317 0)
(-1.24391 -0.125961 0)
(-1.23762 -0.126892 0)
(-1.22765 -0.127802 0)
(-1.21356 -0.128262 0)
(-1.1962 -0.128281 0)
(-1.17588 -0.128 0)
(-1.15264 -0.127449 0)
(-1.12576 -0.126729 0)
(-1.0949 -0.125476 0)
(-1.05998 -0.122614 0)
(-1.02603 -0.117888 0)
(-0.998052 -0.112277 0)
(-0.979873 -0.106981 0)
(-0.971759 -0.103216 0)
(-0.9697 -0.101384 0)
(-0.968822 -0.101046 0)
(-0.965174 -0.102291 0)
(-0.954457 -0.10434 0)
(-0.934017 -0.104176 0)
(-0.910263 -0.103594 0)
(-0.880509 -0.102851 0)
(-0.844563 -0.101053 0)
(-0.803452 -0.0987878 0)
(-0.759642 -0.0960152 0)
(-0.711399 -0.0932164 0)
(-0.658943 -0.0896969 0)
(-0.60399 -0.0856751 0)
(-0.548297 -0.0805592 0)
(-0.493732 -0.0747586 0)
(-0.441618 -0.0693398 0)
(-0.393575 -0.062676 0)
(-0.35186 -0.0553792 0)
(-0.319499 -0.048258 0)
(-0.297964 -0.042464 0)
(-0.283437 -0.0393596 0)
(-0.27071 -0.0375834 0)
(-0.257003 -0.0365613 0)
(-0.24531 -0.0355405 0)
(-0.23673 -0.0352167 0)
(-0.229568 -0.0368108 0)
(-0.216595 -0.0380556 0)
(-0.211904 -0.0404207 0)
(-0.197763 -0.0312032 0)
(-0.226061 -0.0116943 0)
(-0.275319 -0.012894 0)
(-0.32045 -0.026387 0)
(-0.326309 -0.0426837 0)
(-0.280533 -0.0532227 0)
(-0.219461 -0.0596544 0)
(-0.147393 -0.0505548 0)
(-0.126062 -0.0441436 0)
(-0.136456 -0.0561416 0)
(-0.10949 -0.0635944 0)
(-0.0795212 -0.0593891 0)
(-0.0180467 -0.0599703 0)
(0.0755506 -0.0573917 0)
(0.169289 -0.0472405 0)
(0.252525 -0.0506639 0)
(0.315742 -0.0525975 0)
(0.343567 -0.0563787 0)
(0.362275 -0.0495821 0)
(0.390185 -0.0463022 0)
(0.41366 -0.0330748 0)
(0.418808 -0.0384244 0)
(0.448059 -0.0327124 0)
(0.577668 -0.0455101 0)
(0.764416 -0.0404984 0)
(0.83593 -0.0229564 0)
(0.808308 -0.0245292 0)
(0.845497 -0.0326969 0)
(1.04534 -0.037918 0)
(1.0714 0.0680327 0)
(0.844906 0.0920767 0)
(0.430608 0.0709691 0)
(0.318023 0.0452348 0)
(0.441185 -0.0178578 0)
(0.575443 -0.0536754 0)
(0.631994 -0.0279786 0)
(0.710521 -0.0135973 0)
(0.76731 -0.0119759 0)
(0.814152 0.00339702 0)
(0.87622 0.0174992 0)
(0.982471 0.0176688 0)
(1.12713 0.0189239 0)
(1.33733 0.0223697 0)
(1.48419 0.0439078 0)
(1.366 0.0371595 0)
(1.35416 0.0285993 0)
(1.47528 0.0259284 0)
(1.77893 0.0978176 0)
(1.57355 0.1338 0)
(1.82666 0.186525 0)
(1.53179 0.09158 0)
(1.14067 -0.00250947 0)
(1.24126 0.0179261 0)
(1.64478 0.0437639 0)
(-1.18153 -0.11207 0)
(-1.19696 -0.114512 0)
(-1.21026 -0.116559 0)
(-1.22181 -0.118334 0)
(-1.23175 -0.11994 0)
(-1.23972 -0.121487 0)
(-1.2451 -0.122902 0)
(-1.24763 -0.124045 0)
(-1.24621 -0.125251 0)
(-1.23997 -0.12564 0)
(-1.23006 -0.125825 0)
(-1.21603 -0.125466 0)
(-1.19875 -0.124684 0)
(-1.1786 -0.123542 0)
(-1.15561 -0.122375 0)
(-1.12914 -0.121128 0)
(-1.09894 -0.119581 0)
(-1.06467 -0.116496 0)
(-1.0307 -0.111398 0)
(-1.00238 -0.105337 0)
(-0.983724 -0.0996295 0)
(-0.975217 -0.0958113 0)
(-0.972968 -0.0944611 0)
(-0.971891 -0.0953802 0)
(-0.96792 -0.0974823 0)
(-0.956938 -0.099152 0)
(-0.93629 -0.099286 0)
(-0.912304 -0.0983046 0)
(-0.88241 -0.0975106 0)
(-0.846263 -0.095977 0)
(-0.805138 -0.092992 0)
(-0.761229 -0.0895337 0)
(-0.712876 -0.0861416 0)
(-0.660567 -0.0822947 0)
(-0.606143 -0.0775603 0)
(-0.551343 -0.0722272 0)
(-0.497959 -0.0665101 0)
(-0.447419 -0.0596416 0)
(-0.400615 -0.0523426 0)
(-0.359061 -0.0444366 0)
(-0.325665 -0.0369411 0)
(-0.303058 -0.0306723 0)
(-0.287545 -0.0267974 0)
(-0.27368 -0.0248062 0)
(-0.258905 -0.0228348 0)
(-0.245849 -0.0207839 0)
(-0.23623 -0.01913 0)
(-0.229212 -0.0200034 0)
(-0.216338 -0.0205109 0)
(-0.212802 -0.0199142 0)
(-0.209459 -0.0052728 0)
(-0.236769 0.00329047 0)
(-0.27797 -0.00211593 0)
(-0.317743 -0.0156002 0)
(-0.321265 -0.0295128 0)
(-0.277826 -0.0409568 0)
(-0.209846 -0.0463384 0)
(-0.134885 -0.0295299 0)
(-0.115661 0.00326804 0)
(-0.124546 0.0208862 0)
(-0.107631 0.0228171 0)
(-0.069732 0.0147114 0)
(0.000487874 0.00422484 0)
(0.0863106 0.00494137 0)
(0.168194 0.0139869 0)
(0.247314 0.0411449 0)
(0.310568 0.0721096 0)
(0.340007 0.0979246 0)
(0.365133 0.0984472 0)
(0.396205 0.102967 0)
(0.405946 0.100823 0)
(0.398835 0.100482 0)
(0.430853 0.0520822 0)
(0.56506 0.0362407 0)
(0.749486 0.093271 0)
(0.8256 0.177163 0)
(0.786618 0.187043 0)
(0.842373 0.088549 0)
(1.02693 0.121937 0)
(1.07741 0.232479 0)
(0.813264 0.267124 0)
(0.552361 0.123166 0)
(0.371341 0.0531074 0)
(0.460581 0.0688237 0)
(0.552421 0.108873 0)
(0.64689 0.108856 0)
(0.739088 0.122161 0)
(0.795311 0.135331 0)
(0.846392 0.123771 0)
(0.899879 0.103111 0)
(0.990867 0.0944566 0)
(1.13548 0.082768 0)
(1.3428 0.0799835 0)
(1.47977 0.221355 0)
(1.34733 0.260312 0)
(1.34338 0.141368 0)
(1.51577 0.101238 0)
(1.71198 0.200505 0)
(1.66055 0.352654 0)
(1.79023 0.398196 0)
(1.43694 0.233393 0)
(1.05212 0.174009 0)
(1.30669 0.143378 0)
(1.6178 0.207467 0)
(-1.1829 -0.111421 0)
(-1.19849 -0.113986 0)
(-1.2119 -0.116122 0)
(-1.22355 -0.117972 0)
(-1.23364 -0.119672 0)
(-1.24178 -0.121391 0)
(-1.2473 -0.123083 0)
(-1.24987 -0.12461 0)
(-1.24865 -0.126491 0)
(-1.24245 -0.127665 0)
(-1.23256 -0.128786 0)
(-1.2185 -0.129433 0)
(-1.20122 -0.129608 0)
(-1.18115 -0.129496 0)
(-1.15843 -0.129181 0)
(-1.13239 -0.128781 0)
(-1.1029 -0.127951 0)
(-1.06951 -0.125381 0)
(-1.03551 -0.120404 0)
(-1.00683 -0.114125 0)
(-0.98764 -0.108007 0)
(-0.97858 -0.103648 0)
(-0.975704 -0.101631 0)
(-0.974014 -0.101418 0)
(-0.969563 -0.102895 0)
(-0.958074 -0.105374 0)
(-0.937757 -0.105757 0)
(-0.913421 -0.105402 0)
(-0.883578 -0.10512 0)
(-0.84737 -0.103773 0)
(-0.805989 -0.101687 0)
(-0.761882 -0.0990739 0)
(-0.713288 -0.0965806 0)
(-0.661166 -0.0933584 0)
(-0.607259 -0.0893099 0)
(-0.553331 -0.0843095 0)
(-0.501222 -0.0786745 0)
(-0.452043 -0.073 0)
(-0.40651 -0.066127 0)
(-0.365368 -0.0582648 0)
(-0.331145 -0.0502095 0)
(-0.307362 -0.0434511 0)
(-0.290573 -0.0397422 0)
(-0.275389 -0.0376335 0)
(-0.259332 -0.0362254 0)
(-0.245259 -0.0346949 0)
(-0.235083 -0.0337843 0)
(-0.227943 -0.0351303 0)
(-0.215683 -0.0360102 0)
(-0.213792 -0.0381239 0)
(-0.214602 -0.0302294 0)
(-0.243884 -0.0084867 0)
(-0.281193 -0.00811418 0)
(-0.316734 -0.0222264 0)
(-0.322231 -0.0423878 0)
(-0.26994 -0.0557143 0)
(-0.192432 -0.0619853 0)
(-0.132194 -0.0480618 0)
(-0.115585 -0.038397 0)
(-0.117675 -0.0489611 0)
(-0.0954953 -0.0565264 0)
(-0.0582197 -0.0568274 0)
(-0.00346811 -0.0576059 0)
(0.0822937 -0.0536769 0)
(0.168547 -0.043543 0)
(0.24819 -0.0453645 0)
(0.310759 -0.0464816 0)
(0.345366 -0.0485356 0)
(0.372572 -0.0424985 0)
(0.395506 -0.0392126 0)
(0.409931 -0.0280052 0)
(0.410447 -0.0300021 0)
(0.43723 -0.0277431 0)
(0.565678 -0.0464163 0)
(0.744036 -0.0369096 0)
(0.823515 -0.0172231 0)
(0.812023 -0.0138119 0)
(0.861405 -0.0272876 0)
(1.01302 -0.0377854 0)
(1.10357 0.0974691 0)
(0.850027 0.162006 0)
(0.568751 0.115694 0)
(0.480537 0.03715 0)
(0.41808 -0.0193304 0)
(0.552033 -0.0552462 0)
(0.669128 -0.0343593 0)
(0.749832 -0.0209614 0)
(0.807202 -0.0139099 0)
(0.860114 0.00744282 0)
(0.912031 0.0232615 0)
(1.00196 0.0204354 0)
(1.15123 0.0209621 0)
(1.34793 0.0285265 0)
(1.46334 0.0533829 0)
(1.34327 0.0673585 0)
(1.33464 0.0251641 0)
(1.6683 0.049111 0)
(1.74809 0.111251 0)
(1.92223 0.185914 0)
(1.7374 0.113146 0)
(1.28525 0.0981864 0)
(0.983478 -0.0031155 0)
(1.46468 -0.00926702 0)
(1.67525 0.0573029 0)
(-1.18438 -0.110942 0)
(-1.20009 -0.113614 0)
(-1.21359 -0.115846 0)
(-1.22536 -0.117781 0)
(-1.2356 -0.119567 0)
(-1.24392 -0.121346 0)
(-1.2496 -0.123048 0)
(-1.25225 -0.124525 0)
(-1.25126 -0.126291 0)
(-1.24514 -0.127136 0)
(-1.23535 -0.127778 0)
(-1.22141 -0.127842 0)
(-1.2043 -0.127431 0)
(-1.18459 -0.126645 0)
(-1.16237 -0.125882 0)
(-1.13707 -0.125092 0)
(-1.10866 -0.124064 0)
(-1.07672 -0.12142 0)
(-1.04255 -0.116106 0)
(-1.01308 -0.109286 0)
(-0.992984 -0.102548 0)
(-0.983284 -0.0977895 0)
(-0.980093 -0.0958589 0)
(-0.978096 -0.0966149 0)
(-0.973013 -0.0990776 0)
(-0.960919 -0.101462 0)
(-0.940722 -0.102171 0)
(-0.915988 -0.101608 0)
(-0.88602 -0.101321 0)
(-0.849641 -0.100216 0)
(-0.808271 -0.0976227 0)
(-0.764137 -0.0945215 0)
(-0.71559 -0.0914921 0)
(-0.663879 -0.087933 0)
(-0.610667 -0.0835477 0)
(-0.557753 -0.0783532 0)
(-0.506972 -0.072635 0)
(-0.4595 -0.0660472 0)
(-0.415526 -0.0587937 0)
(-0.374983 -0.0505942 0)
(-0.339775 -0.042178 0)
(-0.31421 -0.0348965 0)
(-0.295796 -0.0304446 0)
(-0.279009 -0.0281778 0)
(-0.261599 -0.0260234 0)
(-0.24673 -0.0235872 0)
(-0.23663 -0.02172 0)
(-0.230109 -0.022893 0)
(-0.21742 -0.0233946 0)
(-0.215617 -0.0224676 0)
(-0.221571 -0.00690987 0)
(-0.255015 0.00202166 0)
(-0.287049 -0.00129285 0)
(-0.317702 -0.0156849 0)
(-0.32266 -0.0330152 0)
(-0.25486 -0.0476189 0)
(-0.184712 -0.0510189 0)
(-0.136252 -0.0331962 0)
(-0.109861 0.00116169 0)
(-0.110376 0.0174225 0)
(-0.0953078 0.0144885 0)
(-0.0634532 0.00258309 0)
(-0.00557938 -0.0114363 0)
(0.0811854 -0.0126224 0)
(0.166769 -0.00214817 0)
(0.244443 0.024512 0)
(0.307564 0.0580122 0)
(0.343332 0.0862722 0)
(0.37352 0.0899613 0)
(0.407809 0.0957497 0)
(0.41371 0.0965837 0)
(0.402782 0.0906727 0)
(0.433227 0.0385843 0)
(0.565275 0.0167339 0)
(0.744259 0.0685329 0)
(0.819039 0.164134 0)
(0.793707 0.176299 0)
(0.84435 0.0681657 0)
(0.988546 0.0942679 0)
(1.08307 0.221391 0)
(0.843193 0.27025 0)
(0.555822 0.161165 0)
(0.469811 0.0931899 0)
(0.456473 0.075272 0)
(0.574171 0.079612 0)
(0.667045 0.0852444 0)
(0.74105 0.105091 0)
(0.79161 0.115183 0)
(0.846883 0.104876 0)
(0.903852 0.088788 0)
(0.996999 0.0758374 0)
(1.13461 0.0638637 0)
(1.32209 0.0549978 0)
(1.45051 0.208778 0)
(1.32644 0.242795 0)
(1.21706 0.113181 0)
(1.72723 0.0776869 0)
(1.87342 0.19376 0)
(2.01643 0.308763 0)
(1.71692 0.338667 0)