/*--------------------------------*- C++ -*----------------------------------*\
| =========                 |                                                 |
| \\      /  F ield         | OpenFOAM: The Open Source CFD Toolbox           |
|  \\    /   O peration     | Version:  v1912                                 |
|   \\  /    A nd           | Website:  www.openfoam.com                      |
|    \\/     M anipulation  |                                                 |
\*---------------------------------------------------------------------------*/
FoamFile
{
    version     2.0;
    format      ascii;
    class       surfaceScalarField;
    location    "20";
    object      alphaPhi0.water;
}
// * * * * * * * * * * * * * * * * * * * * * * * * * * * * * * * * * * * * * //

dimensions      [0 3 -1 0 0 0 0];
oriented        oriented;


internalField   nonuniform List<scalar> 
28285
(
-0.0382197
0.0104298
-0.04801
0.00979027
-0.0571028
0.00909279
-0.0654497
0.00834687
-0.0730005
0.00755085
-0.0796874
0.00668692
-0.0854081
0.00572067
-0.0900137
0.00460565
-0.093308
0.00329426
-0.0951961
0.00188807
-0.0949889
-0.000207136
-0.0927153
-0.00227361
-0.0881611
-0.00455424
-0.081263
-0.00689803
-0.0721141
-0.00914892
-0.0609768
-0.0111373
-0.0482777
-0.0126991
-0.0345823
-0.0136954
-0.0205589
-0.0140234
-0.00691082
-0.0136481
0.00577875
-0.0126896
0.0170953
-0.0113166
0.0266822
-0.00958686
0.0344123
-0.0077301
0.0403823
-0.00597004
0.0449261
-0.00454371
0.0484628
-0.00353672
0.0514138
-0.00295098
0.05414
-0.00272626
0.056882
-0.002742
0.0597167
-0.00283473
0.0625452
-0.00282846
0.0651182
-0.00257297
0.067114
-0.00199583
0.0680296
-0.000915622
0.0673927
0.000636944
0.0651016
0.00229109
0.0610863
0.00401534
0.0555011
0.00558511
0.0487108
0.00679037
0.0412202
0.00749056
0.033581
0.00763924
0.026315
0.00726601
0.0198457
0.00646925
0.0144432
0.00540255
0.0101923
0.00425085
0.00699201
0.0032003
0.00458522
0.00240679
0.00261666
0.00196856
0.000701656
0.001915
-0.00151052
0.00221218
-0.00431441
0.00280388
-0.00784729
0.00353288
-0.0121179
0.00427063
-0.0170143
0.00489637
-0.0223368
0.0053225
-0.0278406
0.00550378
-0.0332793
0.00543871
-0.0384433
0.00516405
-0.0431888
0.00474546
-0.0474521
0.00426328
-0.0512329
0.00378082
-0.054562
0.00332913
-0.0574619
0.00289993
-0.0599081
0.00244621
-0.0618028
0.00189465
-0.0629816
0.00117882
-0.0632309
0.000249323
-0.0622601
-0.000970808
-0.0598382
-0.00242188
-0.0557576
-0.00408067
-0.0499
-0.00585761
-0.0422699
-0.0076301
-0.0330126
-0.0092573
-0.0224138
-0.0105987
-0.0108815
-0.0115324
0.00108702
-0.0119685
0.0129645
-0.0118775
0.0242096
-0.0112451
0.0343409
-0.0101313
0.0429647
-0.00862384
0.0498011
-0.00683641
0.0546955
-0.00489437
0.0576158
-0.00292035
0.058639
-0.00102317
0.0579221
0.000716907
0.0557066
0.00221545
0.0522489
0.00345772
0.0478257
0.00442323
0.0427087
0.00511701
0.0371548
0.00555391
0.0314279
0.00572687
0.0257571
0.00567078
0.020327
0.00543015
0.0152927
0.00503428
0.0107816
0.00451111
0.00688898
0.00389259
0.00367219
0.00321679
0.00114659
0.0025256
-0.000719844
0.00186644
-0.00203153
0.00131168
-0.00288523
0.000853702
-0.00343179
0.000546555
-0.00384017
0.000408385
-0.00427914
0.000438969
-0.00487637
0.000597229
-0.00570837
0.000831999
-0.00678374
0.00107537
-0.00803862
0.00125488
-0.009337
0.00129838
-0.0104851
0.00114812
-0.0113
0.00081492
-0.0116116
0.000311559
-0.0113026
-0.000308962
-0.0103625
-0.000940127
-0.00888413
-0.00147838
-0.00707419
-0.00180995
-0.00524704
-0.00182715
-0.00379648
-0.00145056
-0.00309114
-0.000705332
-0.00350211
0.000410964
-0.00527703
0.00177492
-0.00854049
0.00326347
-0.0132427
0.00470216
-0.019152
0.00590934
-0.0258804
0.00672842
-0.0328559
0.00697549
-0.0394656
0.00660966
-0.045101
0.00563544
-0.0491976
0.00409662
-0.0513177
0.00212008
-0.0511055
-0.000212151
-0.0484297
-0.00267579
-0.0433062
-0.00512356
-0.0359011
-0.00740512
-0.026509
-0.00939207
-0.0155165
-0.0109925
-0.00335744
-0.0121591
0.00952099
-0.0128784
0.0226636
-0.0131426
0.0356598
-0.0129962
0.0481107
-0.0124509
0.0596379
-0.0115272
0.0698805
-0.0102426
0.0784911
-0.00861052
0.0851465
-0.00665544
0.0895497
-0.00440319
0.0914357
-0.00188604
0.0905851
0.000850609
0.0870168
0.00356831
0.080647
0.00636983
0.0715868
0.00906014
0.0600661
0.0115208
0.0464223
0.0136438
0.0310887
0.0153336
0.014556
0.0165327
-0.00265008
0.017206
-0.0200265
0.0173764
-0.0369952
0.0169686
-0.0529282
0.015933
-0.067198
0.0142697
-0.0793587
0.0121607
-0.0889614
0.0096027
0.0067447
-0.038288
0.0207909
-0.0480308
0.019533
-0.0570862
0.0181482
-0.0654003
0.0166609
-0.0729188
0.0150694
-0.0795705
0.0133386
-0.0852489
0.0113991
-0.0897999
0.00915658
-0.0930189
0.00651328
-0.0946864
0.00355555
-0.0944769
-0.000416606
-0.0922137
-0.0045368
-0.0877079
-0.00906005
-0.0808822
-0.0137238
-0.0718074
-0.0182236
-0.0607308
-0.022214
-0.0480805
-0.0253495
-0.0344344
-0.0273414
-0.0204501
-0.0280077
-0.00678654
-0.0273117
0.00593918
-0.0254153
0.0172306
-0.022608
0.026743
-0.0190993
0.0343976
-0.0153847
0.0403691
-0.0119414
0.0449259
-0.00910051
0.0484563
-0.00706716
0.0513885
-0.00588314
0.0540971
-0.00543489
0.0568326
-0.00547754
0.0596747
-0.0056768
0.0625192
-0.00567299
0.065135
-0.00518875
0.0671028
-0.00396365
0.0679028
-0.0017156
0.067255
0.00128473
0.0649654
0.00458066
0.0609765
0.00800427
0.0554393
0.0111224
0.0486862
0.0135434
0.0411951
0.0149816
0.0335238
0.0153106
0.0262147
0.0145751
0.0197108
0.0129732
0.0142943
0.0108191
0.0100548
0.00849026
0.0068888
0.00636634
0.00453083
0.00476476
0.00261451
0.00388488
0.00074715
0.00378236
-0.00142736
0.00438669
-0.004213
0.00558953
-0.00774836
0.00706824
-0.0120373
0.00855957
-0.0169584
0.00981744
-0.0222999
0.010664
-0.0278056
0.0110094
-0.0332243
0.0108575
-0.0383539
0.0102936
-0.0430643
0.00945589
-0.0472964
0.00849533
-0.051049
0.00753344
-0.0543518
0.00663192
-0.0572305
0.0057786
-0.059676
0.0048917
-0.061625
0.00384366
-0.0629557
0.00250957
-0.063245
0.000538579
-0.0623223
-0.00189349
-0.0599431
-0.00480112
-0.0558949
-0.00812887
-0.0500545
-0.0116979
-0.0424236
-0.0152611
-0.0331468
-0.018534
-0.0225122
-0.0212333
-0.0109316
-0.023113
0.00109423
-0.0239943
0.0130257
-0.0238089
0.0243206
-0.02254
0.0344917
-0.0203024
0.0431423
-0.0172744
0.049991
-0.0136851
0.0548838
-0.00978719
0.0577909
-0.00582747
0.0587933
-0.00202556
0.0580413
0.00146891
0.0557946
0.00446212
0.0523038
0.0069486
0.0478462
0.0088808
0.042695
0.0102682
0.0371346
0.0111143
0.0314112
0.0114502
0.025733
0.011349
0.0202877
0.0108754
0.0152361
0.0100859
0.0107091
0.00903813
0.00680448
0.00779721
0.00358144
0.00643983
0.00105728
0.00504976
-0.000801193
0.00372491
-0.00209199
0.00260248
-0.002921
0.00168271
-0.00344374
0.0010693
-0.00383502
0.000799665
-0.00425765
0.000861593
-0.00484456
0.00118414
-0.00567503
0.00166247
-0.00675791
0.00215825
-0.00802636
0.00252334
-0.00934431
0.00261633
-0.0105203
0.00232407
-0.0113615
0.00165611
-0.011691
0.000641116
-0.0113849
-0.000615076
-0.0104339
-0.00189114
-0.00892964
-0.00298262
-0.00708278
-0.00365681
-0.00520709
-0.00370284
-0.00369835
-0.0029593
-0.00294006
-0.00146362
-0.00331517
0.000786071
-0.00507335
0.0035331
-0.00834388
0.006534
-0.0130775
0.0094358
-0.0190373
0.0118692
-0.0258164
0.0135075
-0.0328705
0.0140296
-0.0395641
0.0133033
-0.0452771
0.0113484
-0.0494383
0.00825778
-0.0516108
0.00429267
-0.0514238
-0.000399183
-0.0487519
-0.0053477
-0.0436122
-0.0102633
-0.0361732
-0.0148441
-0.0267344
-0.0188309
-0.0156879
-0.022039
-0.00347229
-0.0243747
0.00944521
-0.0257959
0.0226447
-0.0263421
0.0356925
-0.026044
0.048191
-0.0249494
0.0597636
-0.0230998
0.0700497
-0.0205287
0.0786988
-0.0172597
0.0853814
-0.013338
0.0897933
-0.0088151
0.091678
-0.00377075
0.0907966
0.00173196
0.087245
0.00711997
0.0809018
0.012713
0.0718708
0.0180911
0.0603467
0.0230449
0.0466718
0.0273186
0.0312887
0.0307167
0.0146935
0.0331279
-0.00258392
0.0344835
-0.0200274
0.03482
-0.0370419
0.0339832
-0.0530565
0.0319476
-0.0674269
0.0286401
-0.0796678
0.0244017
-0.0893272
0.019262
0.0135264
-0.0384719
0.0311469
-0.0482092
0.0292704
-0.057259
0.027198
-0.0655692
0.0249711
-0.0730896
0.0225898
-0.0797533
0.0200023
-0.085458
0.0171038
-0.0900515
0.01375
-0.0933272
0.00978898
-0.0950578
0.00528623
-0.0949126
-0.000561898
-0.0926912
-0.00675811
-0.0881939
-0.0135574
-0.0813402
-0.0205774
-0.0722049
-0.027359
-0.0610401
-0.0333787
-0.0482744
-0.0381152
-0.0344833
-0.0411325
-0.0203362
-0.0421548
-0.0065222
-0.0411257
0.00632389
-0.0382614
0.0176601
-0.0339442
0.0271737
-0.028613
0.0348209
-0.0230319
0.0407179
-0.0178384
0.0451671
-0.0135497
0.0485847
-0.0104848
0.0514192
-0.00871766
0.0540635
-0.00807925
0.0567806
-0.00819457
0.059653
-0.0085492
0.0625678
-0.00858785
0.0653038
-0.00792476
0.0673463
-0.00600617
0.0682527
-0.002622
0.0676696
0.00186789
0.0653965
0.00685372
0.0613682
0.0120326
0.0557387
0.0167518
0.0488581
0.0204241
0.0412247
0.022615
0.0334141
0.0231212
0.0259878
0.0220014
0.0194067
0.0195543
0.013965
0.0162608
0.00975415
0.0127011
0.00666249
0.009458
0.00440816
0.0070191
0.00260395
0.00568909
0.000839749
0.00554656
-0.00126129
0.00648773
-0.00400234
0.00833058
-0.00753577
0.0106017
-0.0118587
0.0128825
-0.0168375
0.0147963
-0.0222464
0.0160729
-0.0278161
0.0165791
-0.0332863
0.0163277
-0.0384482
0.0154556
-0.0431689
0.0141766
-0.0473935
0.01272
-0.0511297
0.0112696
-0.054417
0.00991918
-0.0572886
0.00865023
-0.0597364
0.00733953
-0.0617075
0.00581476
-0.063037
0.00383901
-0.0634278
0.000929404
-0.0626247
-0.00269662
-0.0603365
-0.00708931
-0.0563428
-0.0121225
-0.0505171
-0.0175236
-0.0428577
-0.0229205
-0.0335102
-0.0278815
-0.0227684
-0.0319751
-0.0110542
-0.0348273
0.00111912
-0.0361676
0.0131962
-0.0358861
0.0246231
-0.0339669
0.0349011
-0.0305804
0.0436264
-0.0259997
0.0505144
-0.0205731
0.0554123
-0.014685
0.0582943
-0.00870946
0.0592487
-0.00298004
0.0584236
0.002294
0.0560982
0.00678753
0.0525178
0.0105291
0.0479632
0.0134354
0.0427503
0.0154811
0.0371506
0.016714
0.0313856
0.0172152
0.0256653
0.0170694
0.0201795
0.0163612
0.0150917
0.0151737
0.0105358
0.013594
0.00661242
0.0117206
0.0033831
0.00966916
0.000869684
0.00756317
-0.000972612
0.0055672
-0.00222507
0.00385494
-0.00300707
0.0024647
-0.00348061
0.00154285
-0.00382599
0.00114504
-0.00421147
0.00124708
-0.0047763
0.00174897
-0.00560433
0.0024905
-0.00670548
0.0032594
-0.00801041
0.00382827
-0.00937975
0.00398566
-0.0106133
0.00355766
-0.0115085
0.00255125
-0.0118686
0.00100119
-0.0115685
-0.000915133
-0.010591
-0.00286865
-0.00902643
-0.00454717
-0.00709052
-0.00559272
-0.00510465
-0.0056887
-0.00347975
-0.0045842
-0.00261943
-0.00232394
-0.00291959
0.00108623
-0.00464177
0.00525528
-0.00792611
0.00981834
-0.0127267
0.0142363
-0.0188005
0.017943
-0.0257285
0.0204355
-0.0329603
0.0212614
-0.0398343
0.0201773
-0.0457133
0.0172274
-0.0500104
0.0125549
-0.0522833
0.00656553
-0.052142
-0.00054042
-0.0494679
-0.00802188
-0.0442816
-0.0154495
-0.0367586
-0.0223672
-0.027209
-0.0283805
-0.0160369
-0.0332111
-0.00369143
-0.0367201
0.00935084
-0.0388382
0.0226724
-0.0396637
0.0358356
-0.0392072
0.0484432
-0.0375571
0.06012
-0.0347765
0.0705033
-0.030912
0.0792367
-0.0259931
0.0859847
-0.020086
0.090453
-0.0132834
0.0923896
-0.00570734
0.0915489
0.00257268
0.0880013
0.0106675
0.0816293
0.0190851
0.0725512
0.0271692
0.0609627
0.0346334
0.0471777
0.0411036
0.0316573
0.0462371
0.014907
0.0498783
-0.00253469
0.0519251
-0.0201483
0.0524335
-0.0373271
0.051162
-0.0535134
0.0481339
-0.0680431
0.0431698
-0.0804155
0.0367741
-0.0901676
0.0290141
0.0203524
-0.0387507
0.0415234
-0.0485012
0.0390208
-0.0575595
0.0362563
-0.0658787
0.0332904
-0.0734159
0.030127
-0.0801121
0.0266985
-0.0858713
0.0228629
-0.0905436
0.0184224
-0.0939186
0.013164
-0.0957538
0.00712142
-0.0957144
-0.000601277
-0.0935747
-0.00889788
-0.0891125
-0.0180195
-0.0822321
-0.0274579
-0.0729989
-0.0365922
-0.0616649
-0.0447127
-0.0486696
-0.0511105
-0.0346101
-0.055192
-0.0201853
-0.0565796
-0.00611898
-0.055192
0.00692656
-0.0513069
0.0183688
-0.0453864
0.027934
-0.0381781
0.0355323
-0.0306302
0.0413026
-0.0236088
0.045578
-0.0178251
0.0488113
-0.013718
0.0514864
-0.0113928
0.0540266
-0.0106194
0.0567145
-0.0108824
0.0596371
-0.0114719
0.0626732
-0.0116239
0.0655609
-0.0108124
0.0677713
-0.00821658
0.0688411
-0.00369184
0.0683598
0.00234928
0.0661099
0.00910358
0.0620166
0.0161258
0.0562402
0.0225283
0.0491532
0.0275111
0.0412866
0.0304815
0.0332506
0.0311573
0.025639
0.0296129
0.0189387
0.0262545
0.0134592
0.0217404
0.00929319
0.0168671
0.0063159
0.0124353
0.0042205
0.0091145
0.00258794
0.00732165
0.000981856
0.00715265
-0.00101128
0.00848086
-0.00368171
0.011001
-0.00721131
0.0141313
-0.0115861
0.0172573
-0.0166554
0.0198655
-0.0221723
0.0215898
-0.0278469
0.0222537
-0.0334017
0.0218825
-0.0386173
0.0206711
-0.043358
0.0189174
-0.0475758
0.0169377
-0.0512917
0.0149855
-0.0545615
0.0131889
-0.0574332
0.011522
-0.0599075
0.00981382
-0.0619289
0.00783612
-0.0633127
0.00522279
-0.0637994
0.00141609
-0.0631084
-0.00338753
-0.0609584
-0.00923936
-0.0570488
-0.0160321
-0.0512425
-0.02333
-0.0435352
-0.0306278
-0.0340749
-0.0373418
-0.0231645
-0.0428855
-0.0112417
-0.04675
0.00115901
-0.0485684
0.0134627
-0.0481898
0.0250938
-0.0455979
0.035537
-0.0410236
0.0443774
-0.0348402
0.0513258
-0.0275215
0.0562309
-0.0195901
0.0590731
-0.0115517
0.0599506
-0.0038575
0.05901
0.00323463
0.0565407
0.00925676
0.0528113
0.0142585
0.0481661
0.0180805
0.0428783
0.020769
0.0371961
0.0223962
0.0313531
0.0230582
0.0255618
0.0228606
0.0200124
0.0219105
0.0148701
0.0203161
0.0102716
0.0181925
0.00632111
0.0156711
0.00308342
0.0129069
0.000589224
0.0100574
-0.00122909
0.00738552
-0.0024258
0.00505165
-0.00313804
0.00317695
-0.00353702
0.00194182
-0.00381151
0.00141952
-0.00414011
0.00157568
-0.00467127
0.00228012
-0.00549565
0.00331488
-0.00662497
0.00438872
-0.0079864
0.00518971
-0.00943374
0.005433
-0.0107567
0.00488067
-0.0117301
0.00352462
-0.0121387
0.00140981
-0.0118485
-0.00120538
-0.0108312
-0.00388589
-0.00917558
-0.00620284
-0.0071043
-0.007664
-0.00495301
-0.00783999
-0.00315188
-0.00638533
-0.00213979
-0.00333603
-0.00232642
0.00127286
-0.00399299
0.00692184
-0.00729685
0.0131222
-0.0121975
0.019137
-0.0184429
0.0241884
-0.0255973
0.0275899
-0.0330954
0.0287594
-0.0402401
0.027322
-0.0463678
0.0233551
-0.0508687
0.0170558
-0.0532875
0.00898437
-0.0532158
-0.000612095
-0.0505368
-0.010701
-0.0452794
-0.0207068
-0.0376289
-0.0300177
-0.0279118
-0.0380976
-0.0165509
-0.044572
-0.00401141
-0.0492595
0.00921936
-0.052069
0.0227192
-0.0531635
0.0360511
-0.0525391
0.0488172
-0.0503231
0.0606418
-0.0466011
0.0711548
-0.0414251
0.08
-0.0348382
0.0868557
-0.0269417
0.0914293
-0.017857
0.0934658
-0.00774388
0.0926891
0.0033494
0.0891461
0.0142105
0.0827332
0.0254979
0.0735649
0.0363375
0.0618701
0.0463282
0.0479291
0.0550447
0.0322103
0.0619558
0.0152352
0.0668534
-0.00244696
0.0696073
-0.0203077
0.0702943
-0.037734
0.0685883
-0.0541644
0.0645644
-0.0689474
0.0579528
-0.0815216
0.0493482
-0.0914095
0.038902
0.0272437
-0.0391219
0.0519383
-0.048899
0.0487979
-0.0579759
0.0453332
-0.0663131
0.0416276
-0.0738781
0.037692
-0.0806231
0.0334435
-0.0864608
0.0287006
-0.0912448
0.0232064
-0.0947611
0.0166802
-0.0967418
0.00910212
-0.0968456
-0.000497506
-0.0948203
-0.0109231
-0.0904081
-0.0224317
-0.0834909
-0.0343752
-0.074121
-0.045962
-0.0625506
-0.0562832
-0.0492345
-0.0644265
-0.0348005
-0.0696261
-0.0199892
-0.0713909
-0.00557087
-0.0696103
0.0077512
-0.064629
0.0193689
-0.0570041
0.0289907
-0.0478
0.036518
-0.0381575
0.0421133
-0.0292041
0.0461489
-0.0218606
0.0491264
-0.0166956
0.0515799
-0.0138463
0.0539752
-0.0130148
0.0566228
-0.01353
0.0596154
-0.0144644
0.0628174
-0.014826
0.0659122
-0.0139072
0.0683666
-0.010671
0.0696603
-0.00498553
0.0693182
0.00269135
0.0670993
0.0113226
0.0629167
0.0203084
0.0569385
0.0285065
0.0495669
0.0348827
0.0413772
0.0386712
0.0330287
0.0395058
0.0251614
0.0374803
0.0182977
0.0331181
0.0127674
0.0272708
0.00866375
0.0209707
0.00584361
0.0152554
0.00396664
0.0109915
0.00257191
0.00871638
0.00117993
0.00854464
-0.000673452
0.0103342
-0.00324339
0.0135709
-0.00676802
0.0176559
-0.0112147
0.021704
-0.0164095
0.0250603
-0.0220768
0.0272571
-0.0278974
0.0280743
-0.0335696
0.0275548
-0.0388593
0.0259608
-0.0436283
0.0236864
-0.0478378
0.0211472
-0.0515272
0.0186749
-0.0547747
0.0164364
-0.0576494
0.0143967
-0.0601664
0.0123309
-0.0622644
0.00993415
-0.0637724
0.00673078
-0.0644118
0.00205549
-0.0638564
-0.00394295
-0.0618229
-0.0112729
-0.058022
-0.019833
-0.052241
-0.029111
-0.0444667
-0.0384021
-0.0348504
-0.0469581
-0.0237082
-0.0540276
-0.0114994
-0.0589588
0.0012134
-0.0612812
0.0138273
-0.0608037
0.0257374
-0.057508
0.0364057
-0.051692
0.0454026
-0.043837
0.0524322
-0.034551
0.0573451
-0.024503
0.0601292
-0.0143359
0.0608915
-0.00461978
0.0597675
0.00435864
0.057121
0.0119032
0.0532768
0.0181028
0.0485034
0.0228539
0.0430817
0.0261907
0.0372735
0.0282044
0.0313166
0.0290151
0.0254242
0.028753
0.0197863
0.0275484
0.0145694
0.0255329
0.00991357
0.0228484
0.00592689
0.0196577
0.00267849
0.0161553
0.000216166
0.0125197
-0.00157419
0.00917588
-0.00269702
0.00617448
-0.00331527
0.00379519
-0.00361237
0.00223893
-0.00378977
0.00159693
-0.00404031
0.00182622
-0.00452533
0.00276515
-0.00534485
0.00413439
-0.00651317
0.00555704
-0.00795303
0.00662956
-0.00950934
0.00698931
-0.0109534
0.00632476
-0.0120299
0.00460113
-0.0125089
0.00188878
-0.0122335
-0.0014808
-0.011163
-0.00495643
-0.00938335
-0.00798246
-0.00712705
-0.0099203
-0.00475197
-0.0102151
-0.00270979
-0.0084275
-0.00149222
-0.0045536
-0.0015247
0.00130534
-0.00311322
0.00851036
-0.00644157
0.0164505
-0.0114774
0.0241729
-0.0179567
0.0306676
-0.0254193
0.0350526
-0.0332769
0.0366169
-0.0407928
0.0348379
-0.047259
0.0298213
-0.0520404
0.0218373
-0.0546456
0.0115896
-0.0546698
-0.000587947
-0.051982
-0.0133887
-0.0466256
-0.0260633
-0.0388
-0.0378433
-0.0288544
-0.0480432
-0.0172367
-0.0561897
-0.00443433
-0.0620619
0.00905472
-0.065558
0.0227958
-0.0669046
0.0363528
-0.0660961
0.0493289
-0.0632992
0.0613458
-0.058618
0.0720385
-0.0521178
0.0810614
-0.043861
0.0880903
-0.0339706
0.092818
-0.0225847
0.0949734
-0.00989937
0.0942688
0.00405402
0.0907281
0.0177513
0.0842601
0.0319659
0.0749672
0.0456304
0.0630924
0.058203
0.0489348
0.0692023
0.0329416
0.0779491
0.0156582
0.0841367
-0.00235031
0.0876158
-0.0205473
0.0884912
-0.0383094
0.0863504
-0.0550835
0.0813384
-0.0701867
0.0730561
-0.083019
0.0621805
-0.0930936
0.0489766
0.0342258
-0.0395868
0.0624071
-0.0494016
0.0586127
-0.0585045
0.0544361
-0.0668659
0.049989
-0.074467
0.0452931
-0.0812747
0.0402512
-0.0872133
0.0346392
-0.0921408
0.0281339
-0.0958389
0.0203783
-0.0980107
0.011274
-0.0982985
-0.000209758
-0.0964239
-0.0127977
-0.0920776
-0.026778
-0.0851147
-0.041338
-0.0755706
-0.0555062
-0.0636967
-0.068157
-0.0499678
-0.0781554
-0.0350509
-0.0845429
-0.019741
-0.0867008
-0.00486799
-0.0844833
0.00880275
-0.0782997
0.0206612
-0.0688626
0.0303523
-0.057491
0.0377857
-0.0455909
0.0431533
-0.0345717
0.0468774
-0.0255848
0.0495225
-0.0193406
0.0516877
-0.0160115
0.0538944
-0.0152215
0.0564896
-0.0161252
0.059573
-0.0175478
0.0629872
-0.0182403
0.0663574
-0.0172774
0.0691305
-0.0134441
0.0707133
-0.00656834
0.0705543
0.00285037
0.0683746
0.0135022
0.0640778
0.0246052
0.0578397
0.0347446
0.0501008
0.0426216
0.0414931
0.0472789
0.0327402
0.0482587
0.0245425
0.0456779
0.0174689
0.0401918
0.0118747
0.0328649
0.00785344
0.024992
0.00523745
0.0178714
0.00364435
0.0125846
0.00256964
0.00979109
0.00144361
0.00967067
-0.000246552
0.0120244
-0.00267647
0.0160009
-0.00619574
0.0211752
-0.0107373
0.0262455
-0.0160963
0.0304193
-0.0219598
0.0331206
-0.0279702
0.0340847
-0.0337941
0.0333786
-0.0391783
0.0313451
-0.0439819
0.02849
-0.0481785
0.0253439
-0.0518316
0.022328
-0.0550485
0.0196533
-0.0579259
0.017274
-0.0604983
0.0149033
-0.0626997
0.0121356
-0.064374
0.00840512
-0.0652194
0.00290085
-0.0648617
-0.00430064
-0.0629817
-0.0131529
-0.0592758
-0.0235389
-0.0535233
-0.0348636
-0.0456624
-0.046263
-0.035846
-0.0567745
-0.0244068
-0.0654668
-0.0118318
-0.0715339
0.00128193
-0.0743949
0.0142927
-0.0738144
0.0265589
-0.0697743
0.0375136
-0.0626467
0.0467076
-0.0530311
0.0538362
-0.0416795
0.0587486
-0.0294154
0.0614342
-0.0170215
0.0620284
-0.0052139
0.0607438
0.00564322
0.0579435
0.0147034
0.0539135
0.0221328
0.0489515
0.0278159
0.0433503
0.031792
0.0373777
0.034177
0.0312735
0.0351193
0.0252508
0.0347757
0.0194997
0.0332995
0.0141881
0.0308446
0.00945931
0.0275771
0.00542622
0.0236908
0.00216393
0.0194175
-0.000286436
0.0149701
-0.00201265
0.0109021
-0.00304149
0.00720332
-0.00353985
0.00429354
-0.00370576
0.00240484
-0.00375802
0.00164919
-0.00390762
0.00197583
-0.00433285
0.00319037
-0.00514587
0.00494741
-0.00636451
0.00677568
-0.00790633
0.00817139
-0.00960256
0.00868554
-0.0112009
0.00792315
-0.0124137
0.00581391
-0.0129863
0.00246132
-0.0127327
-0.0017344
-0.0115958
-0.00609327
-0.00965838
-0.0099199
-0.00716464
-0.012414
-0.00450254
-0.0128772
-0.00215056
-0.0107795
-0.000672766
-0.0060314
-0.000510106
0.00114268
-0.00199155
0.00999181
-0.0053463
0.0198053
-0.0105532
0.0293798
-0.017331
0.0374454
-0.025187
0.0429085
-0.0334804
0.0449104
-0.0414891
0.0428466
-0.0483887
0.0367209
-0.0535298
0.0269783
-0.0563683
0.014428
-0.0565122
-0.000444015
-0.0538121
-0.0160889
-0.0483268
-0.0315485
-0.0402758
-0.0458943
-0.0300376
-0.0582813
-0.0180931
-0.0681343
-0.00495771
-0.0751973
0.00885975
-0.0793755
0.0229029
-0.0809477
0.0367376
-0.0799308
0.0499704
-0.0765321
0.0622311
-0.0708787
0.0731635
-0.0630501
0.0824201
-0.0531177
0.0896688
-0.0412193
0.0945869
-0.0275028
0.0968899
-0.0122024
0.0962749
0.00466898
0.0927306
0.0212956
0.0861951
0.0385014
0.0767498
0.0550757
0.0646429
0.0703099
0.0502046
0.0836405
0.0338646
0.0942891
0.0161933
0.101808
-0.00222697
0.106036
-0.020849
0.107113
-0.0390405
0.104542
-0.0562553
0.0985533
-0.0717519
0.0885526
-0.0848989
0.0753275
-0.0952113
0.059289
0.0413284
-0.0401476
0.0729445
-0.0500099
0.068475
-0.0591444
0.0635706
-0.0675335
0.0583781
-0.0751761
0.0529358
-0.0820581
0.0471332
-0.0881186
0.0406996
-0.0932212
0.0332365
-0.0971408
0.0242979
-0.0995484
0.0136816
-0.100079
0.000321294
-0.0983924
-0.0144847
-0.0941306
-0.0310398
-0.0871156
-0.048353
-0.0773601
-0.0652617
-0.0651141
-0.0804031
-0.0508761
-0.0923934
-0.0353615
-0.100058
-0.0194335
-0.102629
-0.0039977
-0.0999192
0.0101222
-0.0924196
0.0222671
-0.0810075
0.0320377
-0.0672615
0.0393509
-0.0529041
0.0444317
-0.0396525
0.0477647
-0.0289178
0.049992
-0.021568
0.0517945
-0.017814
0.0537644
-0.0171914
0.0562947
-0.0186555
0.0594917
-0.0207448
0.0631711
-0.0219198
0.0668925
-0.0209988
0.070065
-0.0166165
0.0720108
-0.00851423
0.0720813
0.00277994
0.0699535
0.01563
0.0655174
0.0290412
0.0589566
0.0413054
0.0507603
0.050818
0.0416315
0.0564077
0.0323746
0.0575156
0.0237657
0.0542868
0.016432
0.0475255
0.0107614
0.0385356
0.00684585
0.0289075
0.00448632
0.020231
0.00324814
0.0138227
0.00256488
0.0104743
0.0017861
0.0104494
0.000349426
0.0134611
-0.00196689
0.0183172
-0.0054809
0.0246892
-0.0101441
0.0309087
-0.0157113
0.0359865
-0.0218219
0.0392312
-0.0280698
0.0403326
-0.0340817
0.0393905
-0.039581
0.0368444
-0.0444237
0.0333327
-0.0485996
0.0295198
-0.0522024
0.0259307
-0.0553763
0.0228273
-0.0582528
0.0201505
-0.0608911
0.0175415
-0.0632252
0.0144697
-0.0651053
0.0102853
-0.0662053
0.00400086
-0.0661044
-0.00440159
-0.064434
-0.0148233
-0.0608442
-0.0271287
-0.0551085
-0.0405992
-0.0471389
-0.0542326
-0.0370756
-0.0668378
-0.0252706
-0.0772718
-0.0122449
-0.0845596
0.00136384
-0.0880036
0.0148631
-0.0873137
0.0275659
-0.0824771
0.0388693
-0.0739501
0.0482986
-0.0624603
0.0555319
-0.0489129
0.0604086
-0.0342921
0.0629753
-0.0195882
0.0634231
-0.0056617
0.0619827
0.0070836
0.0589697
0.0177164
0.0546995
0.026403
0.0495011
0.0330143
0.0436786
0.0376145
0.0375049
0.0403507
0.0312211
0.0414032
0.0250397
0.0409571
0.0191505
0.0391887
0.0137232
0.0362719
0.00890528
0.032395
0.00481515
0.027781
0.00153656
0.0226961
-0.000912489
0.0174191
-0.00254969
0.0125393
-0.00346253
0.00811617
-0.00381301
0.00464402
-0.0038163
0.00240813
-0.00371279
0.00154567
-0.00373628
0.00199931
-0.00408646
0.00354056
-0.00489076
0.00575171
-0.00617165
0.00805657
-0.00784108
0.00984082
-0.00970809
0.0105526
-0.0115011
0.00971611
-0.012888
0.00720083
-0.0135808
0.00315411
-0.0133585
-0.0019567
-0.0121428
-0.00730892
-0.010012
-0.0120508
-0.00722449
-0.0152015
-0.00420311
-0.0158986
-0.00147022
-0.0135124
0.000347123
-0.00784874
0.000782617
0.000707181
-0.000617832
0.0113923
-0.00399201
0.0231795
-0.00940708
0.0347949
-0.0165531
0.0445914
-0.0248958
0.0512512
-0.0337363
0.0537509
-0.0423293
0.0514396
-0.0497663
0.0441578
-0.0553502
0.0325623
-0.0584775
0.0175553
-0.0587625
-0.000159081
-0.0560443
-0.0188071
-0.0503973
-0.0371954
-0.0420662
-0.0542254
-0.0314673
-0.0688803
-0.0191222
-0.0804793
-0.00558087
-0.0887387
0.00863759
-0.093594
0.0230454
-0.0953555
0.0372126
-0.094098
0.0507568
-0.0900763
0.0633193
-0.0834413
0.0745456
-0.0742764
0.0840878
-0.0626599
0.0915998
-0.0487313
0.0967451
-0.032648
0.0992237
-0.014681
0.0987219
0.00517078
0.0951677
0.0248498
0.0885515
0.0451176
0.0789222
0.064705
0.0665321
0.0827
0.0517426
0.09843
0.03498
0.111052
0.0168368
0.119951
-0.00208343
0.124956
-0.0212225
0.126252
-0.0399383
0.123258
-0.0576789
0.116294
-0.0736493
0.104523
-0.0871953
0.0888735
-0.0977883
0.069882
0.0485904
-0.0408078
0.0835651
-0.0507263
0.0783934
-0.0598954
0.0727398
-0.0683127
0.0667954
-0.0759993
0.0606224
-0.0829648
0.0540987
-0.0891672
0.046902
-0.0944771
0.0385464
-0.0986601
0.0284809
-0.10132
0.016341
-0.102229
0.00123028
-0.10074
-0.0159731
-0.0965834
-0.0351966
-0.0895129
-0.0554235
-0.0795094
-0.0752652
-0.0668196
-0.0930928
-0.0519704
-0.107243
-0.0357344
-0.116294
-0.0190584
-0.119305
-0.00296907
-0.116009
0.0117298
-0.107118
0.0242137
-0.0934914
0.0340726
-0.0771204
0.0412352
-0.0600667
0.0459619
-0.0443792
0.0488134
-0.0317693
0.0505265
-0.023281
0.0518824
-0.0191699
0.0535611
-0.01887
0.0560126
-0.021107
0.0593486
-0.0240807
0.0633553
-0.0259265
0.0675132
-0.0251567
0.071175
-0.0202783
0.0735672
-0.0109065
0.0739201
0.00242707
0.0718639
0.0176862
0.0672596
0.0336456
0.0603066
0.0482584
0.0515532
0.0595713
0.0417895
0.0661715
0.0319185
0.0673867
0.0228097
0.0633955
0.0151616
0.0551736
0.00940215
0.044295
0.00562063
0.0326891
0.00357697
0.0222746
0.00277338
0.0146263
0.0025682
0.0106795
0.00221923
0.0107984
0.00112816
0.0145521
-0.00110473
0.0205501
-0.00460691
0.0281914
-0.00942291
0.0357247
-0.0152488
0.0418124
-0.021664
0.0456464
-0.0282024
0.046871
-0.0344418
0.0456299
-0.0400771
0.0424798
-0.0449611
0.0382167
-0.0491041
0.0336628
-0.0526374
0.029464
-0.0557511
0.0259409
-0.0586195
0.0230189
-0.0613321
0.0202542
-0.0638307
0.0169682
-0.0659577
0.0124123
-0.0673695
0.00541266
-0.0675787
-0.00419235
-0.0661738
-0.0162281
-0.0627458
-0.0305567
-0.0570221
-0.0463229
-0.0489181
-0.0623366
-0.0385572
-0.0771987
-0.0263125
-0.0895166
-0.012746
-0.0981261
0.00145348
-0.102203
0.0155427
-0.101403
0.0287658
-0.0957001
0.0404782
-0.0856625
0.0501666
-0.0721487
0.0574998
-0.0562461
0.0623914
-0.0391837
0.0648917
-0.0220884
0.065157
-0.00592708
0.0634816
0.00875907
0.0601893
0.0210086
0.0556276
0.0309647
0.0501466
0.0384952
0.0440618
0.0436993
0.0376512
0.0467614
0.0311559
0.0478984
0.0247877
0.0473253
0.0187356
0.0452408
0.0131711
0.0418364
0.00824707
0.0373191
0.00408836
0.0319397
0.000793987
0.0259905
-0.00164531
0.0198584
-0.00319014
0.0140841
-0.00396434
0.00889036
-0.00413659
0.00481628
-0.0039429
0.00221444
-0.00364981
0.00125258
-0.00351908
0.00186858
-0.00377693
0.00379841
-0.00456947
0.00654425
-0.00592513
0.00941223
-0.00774995
0.0116656
-0.00982605
0.0126287
-0.0118573
0.0117473
-0.0134606
0.00880415
-0.0143046
0.0039981
-0.0141264
-0.00213486
-0.0128202
-0.00861512
-0.0104585
-0.0144125
-0.00731643
-0.0183435
-0.00385675
-0.0193582
-0.000665419
-0.0167037
0.00161106
-0.0101252
0.0023614
-4.31664e-05
0.00109611
0.0126576
-0.00235704
0.0266326
-0.00801616
0.040454
-0.0156059
0.0521811
-0.024536
0.0601813
-0.0340435
0.0632584
-0.0432834
0.0606796
-0.0513986
0.052273
-0.0575189
0.0386827
-0.0609945
0.0210309
-0.061443
0.000289377
-0.058699
-0.021551
-0.0528535
-0.0430409
-0.0441824
-0.0628965
-0.033149
-0.0799136
-0.0203252
-0.0933032
-0.00630157
-0.102762
0.00839218
-0.108288
0.0232274
-0.110191
0.0377862
-0.108657
0.0516959
-0.103986
0.0646107
-0.096356
0.0761831
-0.0858488
0.0860579
-0.0725348
0.093878
-0.0565514
0.0992916
-0.0380616
0.101978
-0.0173674
0.101624
0.00552459
0.0980486
0.0284253
0.0913405
0.0518257
0.0814962
0.0745493
0.0687731
0.0954231
0.0535607
0.113643
0.036299
0.128313
0.0175977
0.138653
-0.0019145
0.144469
-0.0216648
0.146003
-0.0410046
0.142598
-0.0593561
0.134645
-0.0758948
0.121062
-0.0899179
0.102897
-0.100845
0.0808094
0.0560525
-0.0415721
0.094284
-0.0515543
0.0883756
-0.0607587
0.0819442
-0.0692011
0.0752377
-0.0769301
0.0683514
-0.0839855
0.0611542
-0.0903488
0.0532652
-0.0958996
0.0440973
-0.100393
0.0329743
-0.103402
0.0193502
-0.104681
0.00250875
-0.103475
-0.0171787
-0.0994564
-0.0392153
-0.0923316
-0.0625483
-0.0820442
-0.0855525
-0.0688355
-0.106302
-0.0532656
-0.122813
-0.0361737
-0.133385
-0.0185977
-0.136881
-0.001688
-0.132918
0.013657
-0.122464
0.0265354
-0.10637
0.0364898
-0.0870748
0.043466
-0.0670429
0.0477608
-0.048674
0.0500277
-0.0340362
0.0511161
-0.0243693
0.05193
-0.0199839
0.0532552
-0.0201952
0.0556122
-0.023464
0.0591154
-0.0275839
0.0635214
-0.0303325
0.0682157
-0.029851
0.0724678
-0.0245303
0.0754005
-0.0138391
0.0761018
0.0017257
0.07414
0.019648
0.0693349
0.0384507
0.0619118
0.0556815
0.0524901
0.068993
0.0419638
0.0766977
0.0313557
0.0779948
0.0216482
0.073103
0.0136258
0.063196
0.00776649
0.0501543
0.0041535
0.0363021
0.00249314
0.023935
0.00221477
0.0149047
0.00258553
0.0103088
0.00275725
0.0106267
0.0020531
0.0152563
-0.000100162
0.0227033
-0.00355378
0.031645
-0.00855868
0.0407296
-0.014702
0.0479557
-0.0214877
0.0524322
-0.0283764
0.0537597
-0.0348862
0.0521397
-0.0406787
0.0482722
-0.0456035
0.0431415
-0.0496965