/*--------------------------------*- C++ -*----------------------------------*\
| =========                 |                                                 |
| \\      /  F ield         | OpenFOAM: The Open Source CFD Toolbox           |
|  \\    /   O peration     | Version:  v1912                                 |
|   \\  /    A nd           | Website:  www.openfoam.com                      |
|    \\/     M anipulation  |                                                 |
\*---------------------------------------------------------------------------*/
FoamFile
{
    version     2.0;
    format      ascii;
    class       volScalarField;
    location    "20";
    object      nut;
}
// * * * * * * * * * * * * * * * * * * * * * * * * * * * * * * * * * * * * * //

dimensions      [0 2 -1 0 0 0 0];


internalField   nonuniform List<scalar> 
14268
(
8.51877e-05
8.53441e-05
8.54244e-05
8.54252e-05
8.53637e-05
8.53015e-05
8.52323e-05
8.51596e-05
8.50839e-05
8.50063e-05
8.49298e-05
8.48926e-05
8.49357e-05
8.50579e-05
8.52554e-05
8.55223e-05
8.58487e-05
8.62242e-05
8.66498e-05
8.7107e-05
8.7567e-05
8.8001e-05
8.83785e-05
8.86753e-05
8.88794e-05
8.89895e-05
8.90179e-05
8.89935e-05
8.89462e-05
8.89055e-05
8.88849e-05
8.88846e-05
8.88933e-05
8.88934e-05
8.88658e-05
8.87812e-05
8.86657e-05
8.85331e-05
8.84027e-05
8.82797e-05
8.81649e-05
8.80617e-05
8.79674e-05
8.78769e-05
8.77855e-05
8.76855e-05
8.75777e-05
8.74669e-05
8.7357e-05
8.72505e-05
8.71487e-05
8.70536e-05
8.69669e-05
8.68899e-05
8.68225e-05
8.67635e-05
8.67103e-05
8.666e-05
8.66103e-05
8.65595e-05
8.65072e-05
8.64533e-05
8.63979e-05
8.63415e-05
8.62847e-05
8.62279e-05
8.61711e-05
8.61158e-05
8.60738e-05
8.60812e-05
8.61489e-05
8.62819e-05
8.64815e-05
8.67444e-05
8.70661e-05
8.74511e-05
8.78897e-05
8.83626e-05
8.88449e-05
8.93074e-05
8.97202e-05
9.0056e-05
9.02951e-05
9.04262e-05
9.04486e-05
9.03785e-05
9.02752e-05
9.01571e-05
9.00299e-05
8.98996e-05
8.97695e-05
8.964e-05
8.9513e-05
8.93902e-05
8.92697e-05
8.91503e-05
8.90296e-05
8.89039e-05
8.87706e-05
8.86188e-05
8.84386e-05
8.82377e-05
8.80267e-05
8.7808e-05
8.75854e-05
8.73594e-05
8.71308e-05
8.69006e-05
8.66696e-05
8.64388e-05
8.62081e-05
8.59768e-05
8.57451e-05
8.55184e-05
8.53214e-05
8.51552e-05
8.50129e-05
8.48841e-05
8.4753e-05
8.46034e-05
8.4421e-05
8.42297e-05
8.40449e-05
8.38704e-05
8.37089e-05
8.35622e-05
8.34246e-05
8.32904e-05
8.31546e-05
8.30137e-05
8.28679e-05
8.2721e-05
8.26209e-05
8.25957e-05
8.26399e-05
8.27386e-05
8.28843e-05
8.30745e-05
8.33001e-05
8.35523e-05
8.38205e-05
8.4092e-05
8.4356e-05
8.46001e-05
8.48082e-05
8.49618e-05
8.5041e-05
8.50399e-05
8.49629e-05
8.48613e-05
8.47493e-05
8.46184e-05
8.44669e-05
8.43183e-05
8.41857e-05
8.40764e-05
8.39927e-05
8.3933e-05
8.38988e-05
8.38935e-05
8.39041e-05
8.39202e-05
8.3915e-05
8.38574e-05
3.94568e-07
5.72751e-07
6.20882e-07
6.25694e-07
6.15652e-07
6.03531e-07
5.92747e-07
5.84075e-07
5.77862e-07
5.74375e-07
5.74523e-07
5.7709e-07
5.80343e-07
5.84584e-07
5.89994e-07
5.9672e-07
6.04837e-07
6.14273e-07
6.24757e-07
6.35853e-07
6.46982e-07
6.57537e-07
6.66992e-07
6.75088e-07
6.81777e-07
6.87922e-07
6.94448e-07
7.02141e-07
7.11331e-07
7.22069e-07
7.3439e-07
7.48273e-07
7.63457e-07
7.79368e-07
7.94956e-07
8.08504e-07
8.15569e-07
8.13984e-07
8.03033e-07
7.84208e-07
7.60675e-07
7.35753e-07
7.1242e-07
6.92906e-07
6.78658e-07
6.702e-07
6.67188e-07
6.685e-07
6.72586e-07
6.77528e-07
6.81406e-07
6.82735e-07
6.80512e-07
6.74537e-07
6.65289e-07
6.5373e-07
6.41028e-07
6.2835e-07
6.16622e-07
6.06456e-07
5.98082e-07
5.91373e-07
5.86012e-07
5.81641e-07
5.78029e-07
5.75212e-07
5.73495e-07
5.73486e-07
5.75344e-07
5.77726e-07
5.80852e-07
5.84914e-07
5.90105e-07
5.96572e-07
6.0439e-07
6.13562e-07
6.23985e-07
6.35406e-07
6.47547e-07
6.59957e-07
6.71971e-07
6.82906e-07
6.92155e-07
6.99295e-07
7.04132e-07
7.06314e-07
7.02884e-07
6.93873e-07
6.80873e-07
6.6535e-07
6.48614e-07
6.31728e-07
6.15553e-07
6.00741e-07
5.87786e-07
5.77061e-07
5.689e-07
5.63523e-07
5.61151e-07
5.62492e-07
5.67708e-07
5.76067e-07
5.86417e-07
5.97939e-07
6.09794e-07
6.21314e-07
6.31966e-07
6.41447e-07
6.49798e-07
6.57409e-07
6.6509e-07
6.73735e-07
6.84214e-07
6.97019e-07
7.11052e-07
7.26183e-07
7.4244e-07
7.5952e-07
7.76974e-07
7.9414e-07
8.09899e-07
8.20805e-07
8.24973e-07
8.21959e-07
8.12519e-07
7.98236e-07
7.81446e-07
7.64785e-07
7.50367e-07
7.40156e-07
7.35623e-07
7.38224e-07
7.45663e-07
7.55936e-07
7.69291e-07
7.85913e-07
8.0599e-07
8.29598e-07
8.56701e-07
8.87043e-07
9.20313e-07
9.56391e-07
9.94638e-07
1.03412e-06
1.07343e-06
1.11068e-06
1.14368e-06
1.1699e-06
1.18727e-06
1.19158e-06
1.18116e-06
1.15523e-06
1.1161e-06
1.06667e-06
1.0103e-06
9.50505e-07
8.90123e-07
8.31551e-07
7.77227e-07
7.28575e-07
6.8707e-07
6.53113e-07
6.27002e-07
6.08895e-07
2.424e-07
3.67939e-07
4.09867e-07
4.22754e-07
4.25409e-07
4.25597e-07
4.25357e-07
4.25156e-07
4.25063e-07
4.25098e-07
4.25266e-07
4.25433e-07
4.25585e-07
4.2575e-07
4.25947e-07
4.26208e-07
4.2656e-07
4.27036e-07
4.27652e-07
4.2839e-07
4.29214e-07
4.30057e-07
4.3087e-07
4.31641e-07
4.32307e-07
4.32926e-07
4.33587e-07
4.34385e-07
4.35371e-07
4.36559e-07
4.37958e-07
4.39569e-07
4.41352e-07
4.43217e-07
4.45015e-07
4.46572e-07
4.47308e-07
4.46933e-07
4.45366e-07
4.42876e-07
4.39931e-07
4.36987e-07
4.34386e-07
4.32333e-07
4.30908e-07
4.30103e-07
4.2983e-07
4.29942e-07
4.30294e-07
4.30728e-07
4.31061e-07
4.31144e-07
4.30881e-07
4.30272e-07
4.29414e-07
4.28431e-07
4.27447e-07
4.2656e-07
4.25827e-07
4.25262e-07
4.24849e-07
4.24554e-07
4.24345e-07
4.24197e-07
4.241e-07
4.24055e-07
4.24076e-07
4.24201e-07
4.24416e-07
4.24595e-07
4.24785e-07
4.24995e-07
4.25238e-07
4.25538e-07
4.25917e-07
4.26402e-07
4.27009e-07
4.2774e-07
4.2858e-07
4.29564e-07
4.30628e-07
4.31654e-07
4.32532e-07
4.33179e-07
4.3355e-07
4.33644e-07
4.33169e-07
4.32158e-07
4.30809e-07
4.29298e-07
4.27782e-07
4.26366e-07
4.25113e-07
4.24066e-07
4.23234e-07
4.22626e-07
4.22254e-07
4.22101e-07
4.22145e-07
4.22424e-07
4.22967e-07
4.23713e-07
4.24593e-07
4.25578e-07
4.26622e-07
4.27677e-07
4.28706e-07
4.29683e-07
4.30596e-07
4.31475e-07
4.32393e-07
4.33429e-07
4.34654e-07
4.36124e-07
4.37738e-07
4.39493e-07
4.41414e-07
4.43471e-07
4.4563e-07
4.47818e-07
4.49886e-07
4.51341e-07
4.51877e-07
4.51419e-07
4.50135e-07
4.48321e-07
4.46356e-07
4.44578e-07
4.432e-07
4.42385e-07
4.42229e-07
4.42792e-07
4.43751e-07
4.44994e-07
4.46608e-07
4.48629e-07
4.51111e-07
4.54134e-07
4.57753e-07
4.61934e-07
4.66626e-07
4.719e-07
4.77719e-07
4.8392e-07
4.9025e-07
4.96346e-07
5.01772e-07
5.06029e-07
5.08819e-07
5.09292e-07
5.07022e-07
5.01922e-07
4.94534e-07
4.8551e-07
4.75632e-07
4.6568e-07
4.56225e-07
4.4777e-07
4.40802e-07
4.35484e-07
4.31728e-07
4.29236e-07
4.27791e-07
4.2701e-07
2.32638e-07
3.54762e-07
3.97062e-07
4.11162e-07
4.15011e-07
4.1619e-07
4.16767e-07
4.1719e-07
4.1755e-07
4.17831e-07
4.17999e-07
4.18017e-07
4.17927e-07
4.1778e-07
4.17579e-07
4.17336e-07
4.17079e-07
4.16837e-07
4.1664e-07
4.16514e-07
4.16462e-07
4.16475e-07
4.1654e-07
4.16653e-07
4.16781e-07
4.16902e-07
4.17024e-07
4.17166e-07
4.17347e-07
4.1758e-07
4.1787e-07
4.18209e-07
4.18566e-07
4.18886e-07
4.19121e-07
4.19269e-07
4.1926e-07
4.19031e-07
4.18597e-07
4.18033e-07
4.17438e-07
4.16895e-07
4.16448e-07
4.16116e-07
4.15892e-07
4.15768e-07
4.15712e-07
4.15677e-07
4.15645e-07
4.15623e-07
4.15595e-07
4.15546e-07
4.15471e-07
4.15379e-07
4.15305e-07
4.15293e-07
4.15352e-07
4.15478e-07
4.15651e-07
4.15847e-07
4.16043e-07
4.16224e-07
4.1639e-07
4.16546e-07
4.16703e-07
4.16867e-07
4.1704e-07
4.17216e-07
4.17374e-07
4.17468e-07
4.17505e-07
4.17497e-07
4.17441e-07
4.17347e-07
4.17231e-07
4.17115e-07
4.1702e-07
4.16963e-07
4.16964e-07
4.17082e-07
4.1729e-07
4.17523e-07
4.17709e-07
4.17794e-07
4.17755e-07
4.1764e-07
4.17439e-07
4.17173e-07
4.16871e-07
4.16565e-07
4.16274e-07
4.16016e-07
4.15797e-07
4.15618e-07
4.15473e-07
4.15359e-07
4.1529e-07
4.15259e-07
4.15251e-07
4.15261e-07
4.15293e-07
4.15326e-07
4.15338e-07
4.1534e-07
4.15345e-07
4.15343e-07
4.15335e-07
4.1533e-07
4.15329e-07
4.15341e-07
4.15384e-07
4.15464e-07
4.15575e-07
4.15712e-07
4.15856e-07
4.15984e-07
4.16118e-07
4.16264e-07
4.16428e-07
4.16601e-07
4.1675e-07
4.16802e-07
4.16703e-07
4.16453e-07
4.16098e-07
4.15766e-07
4.15563e-07
4.1554e-07
4.15661e-07
4.15914e-07
4.16234e-07
4.16547e-07
4.16721e-07
4.16785e-07
4.16853e-07
4.16949e-07
4.17079e-07
4.17289e-07
4.17659e-07
4.1821e-07
4.18956e-07
4.1997e-07
4.21257e-07
4.22784e-07
4.24477e-07
4.26114e-07
4.27487e-07
4.28427e-07
4.28934e-07
4.28867e-07
4.28072e-07
4.26588e-07
4.24609e-07
4.2234e-07
4.20008e-07
4.17847e-07
4.15994e-07
4.14527e-07
4.1374e-07
4.13581e-07
4.13955e-07
4.1462e-07
4.15359e-07
4.16047e-07
2.3111e-07
3.52684e-07
3.95429e-07
4.09973e-07
4.14061e-07
4.15371e-07
4.16038e-07
4.16536e-07
4.1696e-07
4.17298e-07
4.17509e-07
4.17558e-07
4.17456e-07
4.17289e-07
4.17062e-07
4.16785e-07
4.16483e-07
4.16183e-07
4.15914e-07
4.15709e-07
4.15562e-07
4.15475e-07
4.15429e-07
4.15423e-07
4.15435e-07
4.15445e-07
4.15463e-07
4.15518e-07
4.1562e-07
4.15767e-07
4.15958e-07
4.16178e-07
4.16381e-07
4.16517e-07
4.16557e-07
4.16531e-07
4.16411e-07
4.16191e-07
4.15892e-07
4.15558e-07
4.15233e-07
4.14954e-07
4.1474e-07
4.14589e-07
4.14492e-07
4.14455e-07
4.14438e-07
4.14405e-07
4.14336e-07
4.14265e-07
4.14196e-07
4.14128e-07
4.14068e-07
4.14026e-07
4.14024e-07
4.14107e-07
4.14273e-07
4.14506e-07
4.14777e-07
4.15053e-07
4.15311e-07
4.15539e-07
4.15739e-07
4.15924e-07
4.16108e-07
4.16303e-07
4.16512e-07
4.16724e-07
4.16917e-07
4.17052e-07
4.17104e-07
4.17104e-07
4.1705e-07
4.16948e-07
4.16813e-07
4.16664e-07
4.16524e-07
4.16409e-07
4.16333e-07
4.1635e-07
4.16435e-07
4.16533e-07
4.16585e-07
4.16546e-07
4.16418e-07
4.16249e-07
4.16045e-07
4.15823e-07
4.15598e-07
4.15381e-07
4.15178e-07
4.14997e-07
4.1484e-07
4.14708e-07
4.14599e-07
4.14513e-07
4.14464e-07
4.14441e-07
4.14428e-07
4.14421e-07
4.14406e-07
4.14364e-07
4.14284e-07
4.14178e-07
4.14061e-07
4.13936e-07
4.138e-07
4.1367e-07
4.13552e-07
4.13453e-07
4.13388e-07
4.13356e-07
4.13347e-07
4.13336e-07
4.13312e-07
4.13249e-07
4.13158e-07
4.1305e-07
4.12933e-07
4.12806e-07
4.12653e-07
4.12466e-07
4.12248e-07
4.1202e-07
4.1181e-07
4.11722e-07
4.11817e-07
4.12117e-07
4.12537e-07
4.13024e-07
4.13497e-07
4.13874e-07
4.14025e-07
4.13966e-07
4.13829e-07
4.13654e-07
4.13441e-07
4.13225e-07
4.13059e-07
4.12987e-07
4.12991e-07
4.13155e-07
4.13505e-07
4.14034e-07
4.1466e-07
4.15244e-07
4.15658e-07
4.15818e-07
4.1582e-07
4.1563e-07
4.15181e-07
4.14517e-07
4.13736e-07
4.12901e-07
4.12058e-07
4.11368e-07
4.10881e-07
4.10615e-07
4.10758e-07
4.11304e-07
4.12235e-07
4.13329e-07
4.14335e-07
4.15213e-07
2.2994e-07
3.51055e-07
3.94356e-07
4.09418e-07
4.13741e-07
4.15135e-07
4.15844e-07
4.16395e-07
4.1688e-07
4.17252e-07
4.17489e-07
4.17587e-07
4.17506e-07
4.17332e-07
4.17095e-07
4.16804e-07
4.16481e-07
4.16152e-07
4.15848e-07
4.15595e-07
4.15409e-07
4.15285e-07
4.15205e-07
4.15142e-07
4.15085e-07
4.15013e-07
4.14956e-07
4.14969e-07
4.15057e-07
4.15214e-07
4.15427e-07
4.15666e-07
4.15879e-07
4.16007e-07
4.16025e-07
4.15968e-07
4.15818e-07
4.15584e-07
4.15283e-07
4.14956e-07
4.14653e-07
4.1439e-07
4.14193e-07
4.14062e-07
4.13995e-07
4.13996e-07
4.14012e-07
4.14002e-07
4.1394e-07
4.13864e-07
4.13788e-07
4.13716e-07
4.13654e-07
4.13618e-07
4.13624e-07
4.13723e-07
4.13926e-07
4.14204e-07
4.14514e-07
4.14826e-07
4.1511e-07
4.15355e-07
4.15564e-07
4.15753e-07
4.15943e-07
4.16156e-07
4.16401e-07
4.16664e-07
4.16921e-07
4.17126e-07
4.17237e-07
4.17269e-07
4.1724e-07
4.17149e-07
4.17016e-07
4.16854e-07
4.16682e-07
4.16535e-07
4.16413e-07
4.16358e-07
4.16364e-07
4.16379e-07
4.16346e-07
4.16227e-07
4.16052e-07
4.15843e-07
4.15608e-07
4.15361e-07
4.15119e-07
4.14888e-07
4.14675e-07
4.14485e-07
4.14319e-07
4.14176e-07
4.14058e-07
4.1397e-07
4.13925e-07
4.13906e-07
4.13899e-07
4.13902e-07
4.13882e-07
4.13826e-07
4.13729e-07
4.13599e-07
4.13454e-07
4.13298e-07
4.13128e-07
4.12953e-07
4.12789e-07
4.12658e-07
4.12564e-07
4.12513e-07
4.12498e-07
4.12493e-07
4.12475e-07
4.12422e-07
4.12319e-07
4.12188e-07
4.1204e-07
4.11871e-07
4.11678e-07
4.11451e-07
4.11203e-07
4.10951e-07
4.10731e-07
4.1064e-07
4.10767e-07
4.11135e-07
4.1167e-07
4.12269e-07
4.12854e-07
4.13355e-07
4.13635e-07
4.13651e-07
4.13502e-07
4.13301e-07
4.13068e-07
4.12834e-07
4.12608e-07
4.12444e-07
4.12347e-07
4.12403e-07
4.12621e-07
4.12965e-07
4.13352e-07
4.13689e-07
4.13853e-07
4.13814e-07
4.13682e-07
4.13421e-07
4.1301e-07
4.12478e-07
4.11899e-07
4.11267e-07
4.10654e-07
4.10206e-07
4.09943e-07
4.09812e-07
4.10004e-07
4.10604e-07
4.11601e-07
4.12801e-07
4.13937e-07
4.14913e-07
2.28533e-07
3.49067e-07
3.93031e-07
4.08708e-07
4.13297e-07
4.14772e-07
4.15507e-07
4.16091e-07
4.1659e-07
4.16951e-07
4.17195e-07
4.17377e-07
4.17386e-07
4.17237e-07
4.17012e-07
4.16723e-07
4.16391e-07
4.16048e-07
4.15724e-07
4.15444e-07
4.15223e-07
4.15064e-07
4.14958e-07
4.14884e-07
4.1478e-07
4.14635e-07
4.14496e-07
4.14459e-07
4.14534e-07
4.1471e-07
4.14962e-07
4.15244e-07
4.15492e-07
4.15635e-07
4.15653e-07
4.15584e-07
4.15409e-07
4.15145e-07
4.14817e-07
4.1447e-07
4.14148e-07
4.13886e-07
4.13688e-07
4.1356e-07
4.13521e-07
4.1356e-07
4.13611e-07
4.13628e-07
4.13576e-07
4.13502e-07
4.13423e-07
4.13348e-07
4.13283e-07
4.13244e-07
4.13251e-07
4.13375e-07
4.136e-07
4.1391e-07
4.14257e-07
4.14597e-07
4.149e-07
4.15152e-07
4.15358e-07
4.15539e-07
4.15729e-07
4.15951e-07
4.16218e-07
4.16519e-07
4.16831e-07
4.17115e-07
4.17316e-07
4.17398e-07
4.1741e-07
4.17348e-07
4.17236e-07
4.17083e-07
4.16894e-07
4.16702e-07
4.16532e-07
4.16417e-07
4.16354e-07
4.16287e-07
4.16163e-07
4.15975e-07
4.15754e-07
4.15501e-07
4.15226e-07
4.14946e-07
4.14675e-07
4.14419e-07
4.14186e-07
4.13977e-07
4.13792e-07
4.13632e-07
4.13497e-07
4.13401e-07
4.13353e-07
4.13336e-07
4.13333e-07
4.13343e-07
4.13323e-07
4.1326e-07
4.13154e-07
4.13003e-07
4.12834e-07
4.12652e-07
4.12455e-07
4.12247e-07
4.12049e-07
4.11896e-07
4.11795e-07
4.11749e-07
4.11752e-07
4.11784e-07
4.11802e-07
4.11781e-07
4.11702e-07
4.1159e-07
4.11459e-07
4.11304e-07
4.11116e-07
4.10889e-07
4.10642e-07
4.10379e-07
4.1016e-07
4.10055e-07
4.10206e-07
4.10617e-07
4.11267e-07
4.12026e-07
4.12767e-07
4.13421e-07
4.13882e-07
4.14058e-07
4.13997e-07
4.13835e-07
4.13641e-07
4.13411e-07
4.13166e-07
4.12947e-07
4.12791e-07
4.12766e-07
4.12883e-07
4.13097e-07
4.13358e-07
4.13567e-07
4.13602e-07
4.13505e-07
4.13316e-07
4.13007e-07
4.12565e-07
4.12014e-07
4.1143e-07
4.10789e-07
4.10192e-07
4.09768e-07
4.09522e-07
4.09364e-07
4.09544e-07
4.10153e-07
4.11186e-07
4.12456e-07
4.13701e-07
4.14778e-07
2.26778e-07
3.46541e-07
3.91281e-07
4.07707e-07
4.12625e-07
4.14192e-07
4.14939e-07
4.15507e-07
4.15962e-07
4.16329e-07
4.1667e-07
4.16947e-07
4.17061e-07
4.16964e-07
4.16764e-07
4.16492e-07
4.16165e-07
4.15814e-07
4.15471e-07
4.15164e-07
4.14911e-07
4.14715e-07
4.14568e-07
4.14461e-07
4.1435e-07
4.14194e-07
4.13985e-07
4.13887e-07
4.13948e-07
4.14148e-07
4.1445e-07
4.14789e-07
4.15084e-07
4.15251e-07
4.15274e-07
4.15196e-07
4.14995e-07
4.14691e-07
4.14326e-07
4.1394e-07
4.13588e-07
4.1331e-07
4.13114e-07
4.1299e-07
4.1299e-07
4.13075e-07
4.13165e-07
4.13213e-07
4.13173e-07
4.131e-07
4.13017e-07
4.12936e-07
4.12865e-07
4.12825e-07
4.12848e-07
4.12975e-07
4.1323e-07
4.13575e-07
4.13955e-07
4.14318e-07
4.14629e-07
4.14875e-07
4.15069e-07
4.15241e-07
4.15424e-07
4.1565e-07
4.15941e-07
4.16287e-07
4.16669e-07
4.17051e-07
4.17353e-07
4.17526e-07
4.17578e-07
4.17546e-07
4.17426e-07
4.17259e-07
4.17071e-07
4.16872e-07
4.16675e-07
4.16496e-07
4.1635e-07
4.16191e-07
4.15979e-07
4.15734e-07
4.15462e-07
4.15161e-07
4.14845e-07
4.14527e-07
4.14221e-07
4.13936e-07
4.13676e-07
4.13442e-07
4.13233e-07
4.13051e-07
4.12894e-07
4.12785e-07
4.12729e-07
4.1271e-07
4.12711e-07
4.12722e-07
4.12699e-07
4.1263e-07
4.12511e-07
4.1234e-07
4.12141e-07
4.11924e-07
4.11691e-07
4.11446e-07
4.11205e-07
4.11015e-07
4.10899e-07
4.10855e-07
4.10871e-07
4.10935e-07
4.10991e-07
4.11008e-07
4.10947e-07
4.10854e-07
4.10734e-07
4.10587e-07
4.10391e-07
4.10154e-07
4.09893e-07
4.09608e-07
4.09352e-07
4.09205e-07
4.09337e-07
4.09754e-07
4.10457e-07
4.11333e-07
4.12222e-07
4.1303e-07
4.13711e-07
4.14081e-07
4.14177e-07
4.14085e-07
4.13932e-07
4.13734e-07
4.13528e-07
4.13333e-07
4.1319e-07
4.13131e-07
4.13191e-07
4.13327e-07
4.1349e-07
4.13584e-07
4.13529e-07
4.13394e-07
4.13145e-07
4.12785e-07
4.12296e-07
4.117e-07
4.11068e-07
4.10375e-07
4.09749e-07
4.09294e-07
4.09003e-07
4.0877e-07
4.08917e-07
4.09511e-07
4.10571e-07
4.11921e-07
4.13249e-07
4.14445e-07
2.24608e-07
3.43374e-07
3.89021e-07
4.06353e-07
4.11674e-07
4.1336e-07
4.14141e-07
4.14717e-07
4.15173e-07
4.15565e-07
4.15959e-07
4.16341e-07
4.16604e-07
4.16654e-07
4.16503e-07
4.16267e-07
4.15958e-07
4.15606e-07
4.15244e-07
4.14903e-07
4.14602e-07
4.14354e-07
4.14154e-07
4.13976e-07
4.13798e-07
4.13603e-07
4.13377e-07
4.13223e-07
4.13274e-07
4.13509e-07
4.13874e-07
4.14285e-07
4.1464e-07
4.14838e-07
4.1487e-07
4.14782e-07
4.14553e-07
4.14204e-07
4.13783e-07
4.13352e-07
4.1296e-07
4.12654e-07
4.12449e-07
4.12336e-07
4.12385e-07
4.12529e-07
4.1267e-07
4.1275e-07
4.12725e-07
4.12652e-07
4.12562e-07
4.1247e-07
4.12392e-07
4.12363e-07
4.12379e-07
4.12519e-07
4.12802e-07
4.13178e-07
4.13576e-07
4.1394e-07
4.14236e-07
4.14467e-07
4.14645e-07
4.148e-07
4.14974e-07
4.15204e-07
4.15512e-07
4.15914e-07
4.16387e-07
4.16877e-07
4.17299e-07
4.1759e-07
4.17699e-07
4.17677e-07
4.17594e-07
4.17443e-07
4.17242e-07
4.17016e-07
4.16782e-07
4.16552e-07
4.16323e-07
4.16079e-07
4.15804e-07
4.15499e-07
4.15172e-07
4.14819e-07
4.14455e-07
4.14095e-07
4.13752e-07
4.13432e-07
4.13141e-07
4.12876e-07
4.12639e-07
4.12428e-07
4.12246e-07
4.12121e-07
4.12053e-07
4.12027e-07
4.12034e-07
4.12041e-07
4.12012e-07
4.11932e-07
4.1179e-07
4.11596e-07
4.11366e-07
4.11109e-07
4.10832e-07
4.10538e-07
4.10245e-07
4.10005e-07
4.0986e-07
4.09815e-07
4.09848e-07
4.09938e-07
4.10035e-07
4.10087e-07
4.1005e-07
4.0997e-07
4.09841e-07
4.09676e-07
4.09439e-07
4.09157e-07
4.0885e-07
4.08515e-07
4.0819e-07
4.0797e-07
4.08063e-07
4.08491e-07
4.09256e-07
4.10275e-07
4.11364e-07
4.12394e-07
4.13307e-07
4.13877e-07
4.14167e-07
4.14185e-07
4.14057e-07
4.1391e-07
4.1377e-07
4.13613e-07
4.135e-07
4.1342e-07
4.13427e-07
4.13499e-07
4.13575e-07
4.13571e-07
4.13484e-07
4.1331e-07
4.13008e-07
4.12595e-07
4.12039e-07
4.11377e-07
4.10672e-07
4.09908e-07
4.09209e-07
4.08679e-07
4.08328e-07
4.08016e-07
4.08135e-07
4.08716e-07
4.09797e-07
4.11188e-07
4.12622e-07
4.13989e-07
2.21959e-07
3.3946e-07
3.86186e-07
4.04618e-07
4.10452e-07
4.12307e-07
4.13157e-07
4.1377e-07
4.14221e-07
4.14631e-07
4.151e-07
4.15609e-07
4.16036e-07
4.16266e-07
4.1621e-07
4.15999e-07
4.15709e-07
4.1536e-07
4.14981e-07
4.14603e-07
4.1425e-07
4.13935e-07
4.13655e-07
4.13398e-07
4.13147e-07
4.12887e-07
4.12633e-07
4.12445e-07
4.12495e-07
4.12782e-07
4.1323e-07
4.13733e-07
4.14165e-07
4.14401e-07
4.14444e-07
4.14347e-07
4.14085e-07
4.13687e-07
4.13199e-07
4.12701e-07
4.12264e-07
4.11922e-07
4.11699e-07
4.11596e-07
4.117e-07
4.11919e-07
4.12124e-07
4.12243e-07
4.12233e-07
4.12158e-07
4.12057e-07
4.11949e-07
4.11867e-07
4.11831e-07
4.11839e-07
4.11982e-07
4.12271e-07
4.12644e-07
4.13013e-07
4.1336e-07
4.13651e-07
4.1387e-07
4.14027e-07
4.14161e-07
4.14322e-07
4.14556e-07
4.14897e-07
4.15366e-07
4.15955e-07
4.1655e-07
4.17095e-07
4.17557e-07
4.17859e-07
4.17938e-07
4.17852e-07
4.17679e-07
4.17444e-07
4.17173e-07
4.16886e-07
4.16594e-07
4.163e-07
4.15988e-07
4.15644e-07
4.15273e-07
4.14884e-07
4.14472e-07
4.14056e-07
4.1365e-07
4.13264e-07
4.12905e-07
4.12577e-07
4.12278e-07
4.12007e-07
4.11762e-07
4.11547e-07
4.11399e-07
4.1132e-07
4.11288e-07
4.11291e-07
4.1129e-07
4.11254e-07
4.1116e-07
4.1099e-07
4.10761e-07
4.10495e-07
4.10193e-07
4.09865e-07
4.09512e-07
4.09156e-07
4.08857e-07
4.08673e-07
4.08619e-07
4.08674e-07
4.08798e-07
4.08948e-07
4.09046e-07
4.09037e-07
4.08949e-07
4.08801e-07
4.08595e-07
4.08304e-07
4.0794e-07
4.07535e-07
4.07124e-07
4.06717e-07
4.06393e-07
4.06434e-07
4.06887e-07
4.07742e-07
4.08945e-07
4.10311e-07
4.11662e-07
4.12765e-07
4.13575e-07
4.14033e-07
4.14188e-07
4.14089e-07
4.13957e-07
4.13853e-07
4.13725e-07
4.13651e-07
4.13604e-07
4.1357e-07
4.1355e-07
4.13534e-07
4.13491e-07
4.1338e-07
4.13159e-07
4.12804e-07
4.1232e-07
4.11688e-07
4.10953e-07
4.10167e-07
4.0931e-07
4.08512e-07
4.0789e-07
4.07464e-07
4.07062e-07
4.07119e-07
4.07667e-07
4.08799e-07
4.103e-07
4.11873e-07
4.13406e-07
2.18732e-07
3.3465e-07
3.82657e-07
4.02418e-07
4.08909e-07
4.10999e-07
4.11936e-07
4.12575e-07
4.1305e-07
4.13484e-07
4.14042e-07
4.14735e-07
4.15404e-07
4.15864e-07
4.15997e-07
4.15768e-07
4.15459e-07
4.1509e-07
4.14674e-07
4.1424e-07
4.13816e-07
4.13419e-07
4.13053e-07
4.12708e-07
4.12386e-07
4.12056e-07
4.11752e-07
4.11536e-07
4.11596e-07
4.11957e-07
4.12513e-07
4.13133e-07
4.13661e-07
4.13946e-07
4.14002e-07
4.13894e-07
4.13592e-07
4.13136e-07
4.1258e-07
4.12005e-07
4.11494e-07
4.1111e-07
4.10865e-07
4.10778e-07
4.10942e-07
4.11243e-07
4.11526e-07
4.1169e-07
4.11693e-07
4.11611e-07
4.11491e-07
4.11361e-07
4.11272e-07
4.11209e-07
4.11204e-07
4.11329e-07
4.11609e-07
4.1196e-07
4.12326e-07
4.12691e-07
4.12988e-07
4.13192e-07
4.13313e-07
4.13401e-07
4.13518e-07
4.13741e-07
4.14128e-07
4.14684e-07
4.15339e-07
4.16095e-07
4.16891e-07
4.17577e-07
4.18053e-07
4.18277e-07
4.18239e-07
4.18049e-07
4.1777e-07
4.17435e-07
4.17072e-07
4.16698e-07
4.1632e-07
4.15926e-07
4.15501e-07
4.15054e-07
4.14597e-07
4.1412e-07
4.13646e-07
4.13187e-07
4.12754e-07
4.12351e-07
4.1198e-07
4.1164e-07
4.11328e-07
4.1104e-07
4.10786e-07
4.10608e-07
4.10512e-07
4.1047e-07
4.10466e-07
4.10452e-07
4.10407e-07
4.103e-07
4.10099e-07
4.09823e-07
4.09513e-07
4.09156e-07
4.08764e-07
4.08341e-07
4.0791e-07
4.0754e-07
4.07313e-07
4.07247e-07
4.0733e-07
4.07507e-07
4.07728e-07
4.07892e-07
4.07914e-07
4.07815e-07
4.07646e-07
4.07379e-07
4.0701e-07
4.06557e-07
4.06031e-07
4.05489e-07
4.04955e-07
4.0454e-07
4.0451e-07
4.0498e-07
4.05961e-07
4.07395e-07
4.09104e-07
4.10809e-07
4.12342e-07
4.13447e-07
4.14129e-07
4.14435e-07
4.14391e-07
4.14193e-07
4.13971e-07
4.13803e-07
4.13687e-07
4.13614e-07
4.13587e-07
4.13552e-07
4.13496e-07
4.13402e-07
4.13234e-07
4.12957e-07
4.12539e-07
4.11972e-07
4.11258e-07
4.10435e-07
4.09558e-07
4.08598e-07
4.07697e-07
4.06976e-07
4.06475e-07
4.05977e-07
4.05975e-07
4.06478e-07
4.07618e-07
4.09139e-07
4.10755e-07
4.1242e-07
2.14825e-07
3.28746e-07
3.78173e-07
3.99479e-07
4.06764e-07
4.09152e-07
4.10123e-07
4.10674e-07
4.1108e-07
4.11455e-07
4.11995e-07
4.12838e-07
4.13868e-07
4.14875e-07
4.15624e-07
4.15815e-07
4.15398e-07
4.14881e-07
4.14388e-07
4.13865e-07
4.1334e-07
4.12834e-07
4.12351e-07
4.11894e-07
4.11465e-07
4.11062e-07
4.10711e-07
4.1047e-07
4.10554e-07
4.11021e-07
4.11725e-07
4.12498e-07
4.13149e-07
4.13494e-07
4.13565e-07
4.1344e-07
4.1309e-07
4.12561e-07
4.11924e-07
4.11264e-07
4.10677e-07
4.1023e-07
4.09947e-07
4.09865e-07
4.10098e-07
4.105e-07
4.10872e-07
4.1108e-07
4.11093e-07
4.11012e-07
4.10874e-07
4.10722e-07
4.10608e-07
4.1051e-07
4.10472e-07
4.10561e-07
4.10819e-07
4.11165e-07
4.11578e-07
4.11978e-07
4.12289e-07
4.12478e-07
4.1256e-07
4.12596e-07
4.12665e-07
4.12857e-07
4.13237e-07
4.13829e-07
4.1465e-07
4.15633e-07
4.16663e-07
4.17593e-07
4.18297e-07
4.18689e-07
4.18771e-07
4.18563e-07
4.18223e-07
4.17811e-07
4.17356e-07
4.16881e-07
4.16402e-07
4.15906e-07
4.15386e-07
4.1485e-07
4.14313e-07
4.13762e-07
4.1322e-07
4.127e-07
4.12211e-07
4.11757e-07
4.11334e-07
4.10944e-07
4.10581e-07
4.10243e-07
4.09942e-07
4.09728e-07
4.09604e-07
4.0955e-07
4.09531e-07
4.0951e-07
4.09452e-07
4.09325e-07
4.09091e-07
4.08766e-07
4.08397e-07
4.07974e-07
4.07506e-07
4.07005e-07
4.0649e-07
4.0604e-07
4.05766e-07
4.05698e-07
4.05833e-07
4.06101e-07
4.0642e-07
4.06668e-07
4.06732e-07
4.06625e-07
4.06457e-07
4.0614e-07
4.05688e-07
4.05114e-07
4.04409e-07
4.03616e-07
4.02769e-07
4.01952e-07
4.01589e-07
4.01962e-07
4.03024e-07
4.04651e-07
4.06642e-07
4.08659e-07
4.10527e-07
4.1205e-07
4.1318e-07
4.13915e-07
4.14239e-07
4.1422e-07
4.14085e-07
4.13924e-07
4.13792e-07
4.13696e-07
4.13628e-07
4.13569e-07
4.13485e-07
4.13347e-07
4.13119e-07
4.12774e-07
4.12281e-07
4.1162e-07
4.10817e-07
4.09894e-07
4.08912e-07
4.07827e-07
4.06798e-07
4.05946e-07
4.05332e-07
4.04695e-07
4.04546e-07
4.04887e-07
4.05917e-07
4.07407e-07
4.09045e-07
4.10724e-07
2.10114e-07
3.21354e-07
3.72051e-07
3.94828e-07
4.0255e-07
4.0476e-07
4.04965e-07
4.04744e-07
4.0454e-07
4.0451e-07
4.04805e-07
4.05694e-07
4.07569e-07
4.09977e-07
4.12307e-07
4.14156e-07
4.15175e-07
4.14927e-07
4.14211e-07
4.13539e-07
4.12868e-07
4.12211e-07
4.1158e-07
4.10975e-07
4.10371e-07
4.09836e-07
4.09426e-07
4.09149e-07
4.09265e-07
4.09865e-07
4.10764e-07
4.11747e-07
4.12573e-07
4.13015e-07
4.13107e-07
4.12961e-07
4.1255e-07
4.11926e-07
4.11172e-07
4.10402e-07
4.09733e-07
4.09221e-07
4.08888e-07
4.08834e-07
4.09163e-07
4.09677e-07
4.10128e-07
4.10379e-07
4.10391e-07
4.10294e-07
4.10129e-07
4.09937e-07
4.09767e-07
4.09608e-07
4.09503e-07
4.09541e-07
4.09791e-07
4.10171e-07
4.10643e-07
4.11085e-07
4.11409e-07
4.11567e-07
4.1156e-07
4.11458e-07
4.11356e-07
4.11369e-07
4.11598e-07
4.12106e-07
4.12904e-07
4.14031e-07
4.15483e-07
4.1704e-07
4.18429e-07
4.19304e-07
4.19511e-07
4.19289e-07
4.18848e-07
4.18326e-07
4.17753e-07
4.17147e-07
4.16536e-07
4.15913e-07
4.15275e-07
4.14634e-07
4.14004e-07
4.1337e-07
4.12752e-07
4.12165e-07
4.11614e-07
4.11105e-07
4.10628e-07
4.10184e-07
4.09765e-07
4.09371e-07
4.09017e-07
4.08748e-07
4.08588e-07
4.08507e-07
4.08467e-07
4.08435e-07
4.08364e-07
4.08211e-07
4.07936e-07
4.07555e-07
4.07114e-07
4.06611e-07
4.0603e-07
4.05382e-07
4.04678e-07
4.0401e-07
4.03565e-07
4.03415e-07
4.03543e-07
4.03835e-07
4.04173e-07
4.04413e-07
4.04429e-07
4.04268e-07
4.04116e-07
4.03855e-07
4.03378e-07
4.02604e-07
4.01551e-07
4.00303e-07
3.98869e-07
3.97321e-07
3.96212e-07
3.96051e-07
3.96795e-07
3.98256e-07
4.00172e-07
4.02224e-07
4.04323e-07
4.06576e-07
4.08701e-07
4.10457e-07
4.11715e-07
4.12483e-07
4.12963e-07
4.132e-07
4.13304e-07
4.13335e-07
4.1333e-07
4.13322e-07
4.1329e-07
4.13183e-07
4.12951e-07
4.12559e-07
4.1199e-07
4.11215e-07
4.10288e-07
4.09208e-07
4.08049e-07
4.06775e-07
4.05584e-07
4.04529e-07
4.0368e-07
4.02726e-07
4.02157e-07
4.01928e-07
4.02145e-07
4.02238e-07
4.01897e-07
4.02335e-07
2.04007e-07
3.10508e-07
3.60575e-07
3.82693e-07
3.88751e-07
3.87527e-07
3.8228e-07
3.77477e-07
3.73533e-07
3.70874e-07
3.69675e-07
3.70105e-07
3.75541e-07
3.84258e-07
3.93532e-07
4.02552e-07
4.10593e-07
4.13968e-07
4.14234e-07
4.13342e-07
4.12399e-07
4.11545e-07
4.10747e-07
4.09956e-07
4.09167e-07
4.08483e-07
4.08015e-07
4.07683e-07
4.0775e-07
4.08448e-07
4.09571e-07
4.10841e-07
4.11931e-07
4.12557e-07
4.127e-07
4.12556e-07
4.12091e-07
4.11374e-07
4.10514e-07
4.09633e-07
4.08831e-07
4.082e-07
4.07788e-07
4.07665e-07
4.07957e-07
4.08472e-07
4.08978e-07
4.0931e-07
4.09354e-07
4.09233e-07
4.09065e-07
4.08821e-07
4.08544e-07
4.08234e-07
4.07909e-07
4.07656e-07
4.07671e-07
4.0793e-07
4.08338e-07
4.0874e-07
4.09004e-07
4.09007e-07
4.08652e-07
4.07997e-07
4.07166e-07
4.06241e-07
4.05387e-07
4.04667e-07
4.04284e-07
4.04654e-07
4.06887e-07
4.10197e-07
4.144e-07
4.1796e-07
4.20005e-07
4.20382e-07
4.19811e-07
4.19111e-07
4.18387e-07
4.17627e-07
4.1686e-07
4.16088e-07
4.15312e-07
4.14549e-07
4.13809e-07
4.13076e-07
4.12368e-07
4.11703e-07
4.11081e-07
4.10502e-07
4.09959e-07
4.09444e-07
4.08961e-07
4.08512e-07
4.08087e-07
4.07761e-07
4.07541e-07
4.07396e-07
4.07292e-07
4.07212e-07
4.07122e-07
4.06963e-07
4.06653e-07
4.06176e-07
4.05584e-07
4.04873e-07
4.0401e-07
4.03019e-07
4.01887e-07
4.00732e-07
3.99857e-07
3.9939e-07
3.99259e-07
3.993e-07
3.99439e-07
3.99589e-07
3.99587e-07
3.99425e-07
3.99362e-07
3.99224e-07
3.98732e-07
3.97652e-07
3.95862e-07
3.93273e-07
3.89763e-07
3.85449e-07
3.81265e-07
3.78091e-07
3.76186e-07
3.75136e-07
3.74696e-07
3.74998e-07
3.76738e-07
3.82376e-07
3.89878e-07
3.97094e-07
4.02742e-07
4.06442e-07
4.08745e-07
4.10207e-07
4.11233e-07
4.11876e-07
4.12246e-07
4.12433e-07
4.12486e-07
4.12428e-07
4.12222e-07
4.11813e-07
4.11185e-07
4.10296e-07
4.09208e-07
4.07914e-07
4.06513e-07
4.04966e-07
4.03384e-07
4.0176e-07
4.00019e-07
3.97521e-07
3.94411e-07
3.90019e-07
3.83874e-07
3.75171e-07
3.65394e-07
3.57267e-07
1.99102e-07
3.00344e-07
3.4661e-07
3.6387e-07
3.63401e-07
3.49182e-07
3.28111e-07
3.07954e-07
2.90017e-07
2.76004e-07
2.67475e-07
2.66194e-07
2.78703e-07
2.99781e-07
3.23731e-07
3.52209e-07
3.88922e-07
4.08175e-07
4.13064e-07
4.13502e-07
4.12351e-07
4.11152e-07
4.10157e-07
4.09189e-07
4.08296e-07
4.07568e-07
4.07089e-07
4.06725e-07
4.06879e-07
4.07769e-07
4.09107e-07
4.10553e-07
4.1175e-07
4.12406e-07
4.12539e-07
4.1236e-07
4.11838e-07
4.1105e-07
4.10101e-07
4.0909e-07
4.08179e-07
4.07464e-07
4.06963e-07
4.06734e-07
4.06972e-07
4.07477e-07
4.08006e-07
4.0833e-07
4.08348e-07
4.08234e-07
4.08063e-07
4.07764e-07
4.07349e-07
4.06801e-07
4.06055e-07
4.05183e-07
4.04542e-07
4.04227e-07
4.04046e-07
4.03862e-07
4.03466e-07
4.0249e-07
4.00382e-07
3.97129e-07
3.92942e-07
3.87373e-07
3.80608e-07
3.72643e-07
3.65231e-07
3.6166e-07
3.66219e-07
3.75531e-07
3.91618e-07
4.06956e-07
4.16583e-07
4.20471e-07
4.20846e-07
4.19827e-07
4.1889e-07
4.18002e-07
4.17103e-07
4.16213e-07
4.15338e-07
4.14486e-07
4.13668e-07
4.12858e-07
4.12087e-07
4.11372e-07
4.10704e-07
4.10081e-07
4.09491e-07
4.08927e-07
4.08396e-07
4.07892e-07
4.07401e-07
4.06981e-07
4.06634e-07
4.06342e-07
4.06069e-07
4.05848e-07
4.05721e-07
4.05598e-07
4.05284e-07
4.04714e-07
4.03947e-07
4.0298e-07
4.0174e-07
4.00253e-07
3.98458e-07
3.96429e-07
3.9456e-07
3.93066e-07
3.91792e-07
3.90838e-07
3.90631e-07
3.91297e-07
3.9225e-07
3.93043e-07
3.93864e-07
3.94391e-07
3.94161e-07
3.92858e-07
3.9027e-07
3.86142e-07
3.80078e-07
3.71825e-07
3.61897e-07
3.50597e-07
3.37089e-07
3.20658e-07
3.04624e-07
2.94894e-07
2.95015e-07
3.09547e-07
3.32422e-07
3.56634e-07
3.76836e-07
3.90746e-07
3.99371e-07
4.04389e-07
4.07321e-07
4.09116e-07
4.10303e-07
4.111e-07
4.11547e-07
4.11649e-07
4.1147e-07
4.11052e-07
4.10392e-07
4.09421e-07
4.08208e-07
4.0675e-07
4.05157e-07
4.03355e-07
4.01398e-07
3.99192e-07
3.96451e-07
3.92101e-07