/*--------------------------------*- C++ -*----------------------------------*\
| =========                 |                                                 |
| \\      /  F ield         | OpenFOAM: The Open Source CFD Toolbox           |
|  \\    /   O peration     | Version:  v1912                                 |
|   \\  /    A nd           | Website:  www.openfoam.com                      |
|    \\/     M anipulation  |                                                 |
\*---------------------------------------------------------------------------*/
FoamFile
{
    version     2.0;
    format      ascii;
    class       volScalarField;
    location    "20";
    object      p;
}
// * * * * * * * * * * * * * * * * * * * * * * * * * * * * * * * * * * * * * //

dimensions      [1 -1 -2 0 0 0 0];


internalField   nonuniform List<scalar> 
14268
(
122162
120591
119103
117699
116389
115198
114163
113331
112749
112462
112495
112825
113531
114612
116024
117691
119513
121388
123250
125033
126348
127264
128364
129396
130354
131179
132015
133023
134252
135645
137063
138333
139303
139884
140069
139978
139720
139283
138689
137963
137186
136508
136074
135979
136233
136738
137294
137658
137654
137292
136526
134962
133635
132434
131375
130439
129596
128820
128093
127412
126791
126237
125755
125350
125031
124817
124743
124847
125183
125759
126595
127691
129017
130523
132134
133765
135337
136706
137949
138953
139714
140236
140536
140634
140558
140327
139981
139541
139024
138446
137821
137154
136486
135862
135308
134839
134468
134203
134037
134042
134007
133879
133732
133591
133430
133222
132979
132734
132521
132356
132221
132150
132174
132295
132486
132713
132927
133078
133161
133075
132731
132181
131472
130678
129854
129054
128289
127577
127025
126705
126674
126970
127577
128492
129676
131077
132639
134271
135968
137613
139203
140682
142012
143158
144094
144793
145232
145395
145251
144816
144090
143073
141775
140209
138403
136398
134257
131917
129650
127455
125412
123595
122088
120941
116530
114931
113363
111834
110356
108951
107655
106516
105591
104947
104660
104699
105119
105917
107058
108488
110132
111903
113706
115434
116836
118070
119393
120572
121605
122597
123646
124840
126212
127715
129235
130618
131734
132456
132779
132852
132718
132390
131895
131279
130612
130002
129573
129419
129570
129949
130379
130638
130568
130194
129466
127932
126662
125519
124502
123580
122725
121918
121154
120439
119777
119174
118633
118161
117774
117498
117352
117373
117599
118046
118743
119695
120886
122275
123798
125379
126937
128345
129657
130763
131650
132313
132760
133001
133056
132939
132692
132327
131863
131317
130700
130041
129378
128745
128168
127665
127254
126946
126738
126706
126627
126478
126321
126179
126018
125814
125577
125335
125121
124950
124808
124723
124727
124830
125003
125220
125434
125594
125692
125639
125329
124819
124146
123378
122569
121767
120993
120259
119672
119307
119227
119474
120038
120915
122070
123452
125004
126634
128337
129993
131599
133099
134454
135628
136591
137320
137787
137978
137861
137445
136736
135733
134444
132883
131075
129063
126912
124552
122264
120044
117981
116141
114616
113456
110101
108496
106894
105302
103728
102194
100736
99405
98265.2
97396.7
96891.4
96723.6
96962.2
97606
98623.6
99962
101544
103276
105059
106784
108254
109663
111051
112259
113362
114448
115607
116912
118389
119990
121602
123079
124298
125082
125506
125655
125585
125309
124855
124276
123643
123057
122630
122455
122564
122891
123266
123472
123365
122987
122292
120749
119496
118372
117368
116448
115583
114760
113978
113243
112559
111927
111349
110832
110390
110055
109860
109851
110029
110409
111034
111917
113047
114388
115880
117448
119013
120457
121815
122980
123936
124673
125193
125504
125621
125555
125351
125016
124570
124027
123413
122761
122102
121465
120875
120354
119921
119590
119360
119313
119205
119050
118893
118754
118596
118395
118158
117914
117694
117515
117368
117272
117268
117362
117530
117747
117969
118144
118257
118227
117941
117452
116793
116030
115217
114399
113603
112846
112227
111829
111717
111937
112481
113345
114496
115879
117438
119078
120794
122467
124092
125612
126988
128182
129167
129916
130402
130609
130506
130097
129394
128392
127099
125529
123709
121680
119510
117120
114809
112557
110472
108610
107069
105897
103434
101827
100204
98567.8
96922.3
95285.4
93693
92199.8
90876.5
89814.7
89113.1
88762
88847
89368
90295.3
91574.8
93125.5
94847.7
96638.1
98388.5
99931
101459
102871
104117
105274
106426
107663
109057
110627
112324
114028
115592
116889
117754
118262
118471
118448
118204
117773
117210
116590
116010
115580
115390
115473
115769
116110
116279
116142
115767
115104
113547
112296
111181
110182
109259
108384
107548
106751
106000
105297
104642
104031
103471
102977
102580
102322
102256
102394
102739
103312
104143
105227
106536
108011
109579
111161
112648
114053
115276
116295
117097
117680
118050
118219
118197
118020
117704
117261
116724
116118
115472
114814
114171
113569
113030
112576
112222
111974
111911
111774
111617
111463
111330
111176
110978
110741
110493
110264
110074
109919
109811
109798
109882
110046
110268
110503
110700
110833
110831
110577
110114
109470
108709
107885
107041
106214
105423
104763
104320
104164
104349
104870
105720
106868
108257
109828
111484
113218
114916
116566
118114
119519
120743
121758
122535
123048
123276
123193
122795
122103
121105
119807
118226
116388
114335
112137
109701
107351
105051
102930
101033
99465.3
98276.7
96664.2
95056.3
93418.3
91746.3
90039.7
88311.2
86594.9
84948
83449.2
82197.9
81303.5
80773.1
80714.1
81124.7
81976.8
83214.9
84754.2
86488.4
88308.8
90105.6
91735.3
93343.8
94789.3
96076.6
97278.2
98481.9
99781.3
101250
102907
104696
106489
108134
109501
110458
111046
111308
111323
111102
110683
110121
109498
108911
108469
108261
108325
108602
108922
109062
108896
108532
107898
106339
105078
103964
102966
102037
101150
100299
99488
98722.4
98003.4
97326.6
96687
96087
95542.6
95084.5
94758.1
94624.1
94707.7
95014.5
95562.9
96359.1
97414.7
98706.2
100179
101762
103371
104909
106366
107647
108726
109586
110224
110642
110850
110863
110693
110381
109947
109416
108815
108169
107506
106854
106237
105681
105206
104831
104569
104488
104329
104173
104028
103903
103757
103563
103325
103071
102831
102628
102462
102343
102316
102392
102555
102785
103040
103264
103422
103451
103232
102797
102165
101399
100556
99677
98805.8
97971.9
97260.6
96766.3
96564.4
96713.9
97215.3
98057.4
99210
100615
102207
103888
105648
107378
109060
110641
112080
113339
114386
115193
115733
115984
115918
115530
114846
113847
112541
110938
109073
106988
104753
102260
99863
97502.7
95332.2
93395.3
91797.6
90588.8
89845
88235.5
86585.9
84884.5
83123.4
81308.9
79471.7
77671.2
75993.3
74544.7
73444.2
72734.6
72534.4
72838.7
73623.1
74831.3
76374.1
78138.2
80008
81871.2
83605.2
85277.1
86774.1
88106
89348.6
90594.7
91944.2
93476.9
95214.7
97094.7
98974.3
100696
102132
103187
103856
104170
104218
104017
103601
103031
102393
101787
101324
101094
101139
101401
101707
101824
101630
101284
100665
99141.8
97855
96737.6
95736.1
94797.3
93895.8
93028.3
92201.6
91421.7
90687.8
89991.8
89324.9
88686.8
88092.4
87573.7
87174
86965.7
86987.8
87244.4
87764.2
88545.4
89585.9
90873.1
92357.2
93965.5
95613.4
97213.5
98729.5
100071
101210
102127
102815
103273
103512
103536
103374
103071
102643
102115
101512
100861
100189
99523
98889.8
98314
97818
97422.1
97152.9
97043.8
96871.7
96720.3
96586.6
96474.3
96337.9
96149.1
95909.7
95648.9
95397.7
95179.3
94999.2
94865.2
94823.3
94890
95054.5
95296.8
95574.8
95832.1
96022.6
96086.5
95910
95504.3
94883.6
94107.9
93238
92315.4
91386.7
90500.2
89727.5
89172.1
88917
89029.6
89509.3
90347.1
91511.4
92939.6
94562.1
96276.3
98068.4
99837.7
101558
103179
104658
105956
107041
107882
108452
108732
108688
108306
107632
106632
105314
103686
101785
99658.4
97377
94811.6
92355.2
89917.5
87685.8
85703.2
84066.6
82831.4
83003.2
81391.5
79733.2
78007.7
76197.4
74300
72341.6
70383
68516.9
66856.3
65392.6
64630.3
64291.3
64487.8
65207.2
66393.1
67952.1
69762.2
71699.2
73648.6
75500
77247.8
78809.5
80191.5
81473.9
82755.7
84145.6
85734.1
87547.7
89515.2
91475.9
93269.6
94775.1
95931.4
96689.4
97058.7
97144.5
96957.6
96539.4
95954.3
95290.9
94655.5
94161
93901.9
93924
94172.4
94467.7
94564.6
94350.4
94010.3
93377
91982.8
90636.6
89511
88502.8
87550.4
86630.4
85743.3
84898.9
84104
83355.8
82641.9
81949.3
81274.4
80630.4
80050
79574.7
79285.2
79236.9
79437
79918.7
80687
81726
83021.2
84528.1
86174.4
87871.9
89545.5
91128.3
92536.2
93737.4
94710.4
95444.6
95933.3
96183.8
96215.8
96075.5
95780.3
95354.6
94824.4
94214.9
93552.8
92866.2
92182.7
91529.2
90931.4
90412.8
89995.4
89726.8
89575.6
89400.8
89258.2
89139.3
89042.4
88919.6
88737.9
88497.4
88229.3
87964.8
87729
87531.4
87378.9
87319
87375.8
87542.2
87799.9
88106.5
88403
88634.1
88738.2
88604.6
88241.8
87629.3
86838.6
85935.2
84959.4
83961.5
83005.6
82162.4
81535.4
81219.6
81287.6
81749.7
82587.6
83771
85231.7
86893.8
88649.6
90481.3
92297.9
94064.5
95731.1
97255.8
98597.7
99723.1
100603
101209
101519
101502
101122
100459
99454.6
98120.6
96462.7
94517.1
92339.4
90002.2
87351.1
84823.6
82293.3
79992.1
77952.1
76270.5
75001.5
76154.1
74539.7
72876
71131.8
69277.4
67299.6
65218
63094.4
61028.4
59147
57471.8
56467.6
55975.1
56056.6
56709.3
57877.8
59464.1
61335.5
63356.5
65412.4
67398.4
69248.1
70887.3
72328.2
73651.4
74964
76385
78020.4
79903.7
81954.6
83988.8
85849.9
87423.2
88684.5
89543
89974.1
90105.6
89931.7
89508.2
88900.7
88203.7
87528.1
86991.1
86692.3
86685.4
86916.9
87200.4
87279.3
87055.4
86710.6
86058.2
84838.2
83431.6
82292.6
81274
80303.6
79360.1
78449
77583.9
76772.5
76009.8
75279.2
74562.4
73852
73159.2
72516.2
71964.5
71583.3
71457.4
71592.8
72030.1
72778.6
73823.7
75137.9
76679.1
78375.4
80135
81894.8
83553.6
85034.2
86301.2
87328.9
88097.2
88607.9
88876.7
88932.1
88804.4
88512.9
88085.4
87548.1
86926.5
86248
85541.5
84835.3
84157.5
83534.9
82991.8
82551.5
82281.4
82089.7
81916.2
81785.9
81685.5
81607.6
81501.9
81329.6
81088.9
80813.4
80533.8
80277.9
80058.5
79883.8
79803
79847.4
80016.6
80292.5
80632.7
80974.9
81255.3
81403.2
81321.1
80998.1
80410.2
79595.3
78651.3
77613.1
76534
75489.1
74565.7
73854.4
73469
73464.9
73931.8
74774.6
75984.9
77487.5
79199.3
81005.6
82884.7
84756.4
86575
88293.7
89869.8
91260.8
92432.6
93356.2
94001.9
94346.8
94364.8
93974.6
93328.1
92318
90964.1
89272.1
87272.4
85034.6
82631.8
79880.4
77268.2
74633.5
72246.4
70137.9
68402.6
67095.7
69307.2
67689.8
66024.7
64268.5
62376
60319.9
58112.5
55815.9
53536.1
51410.3
49517.4
48257.5
47581.3
47532.7
48112.4
49265.5
50889
52836.9
54957.3
57124.6
59305.5
61271.7
63002.4
64516.9
65884.3
67224
68665.7
70337.5
72283
74411.6
76508
78432.1
80071.5
81437.4
82412.2
82920.4
83103.5
82945.3
82515.1
81880.8
81142
80415.3
79823.2
79471.6
79426.7
79634
79899.1
79959.7
79741.1
79384.1
78726.3
77671
76253.3
75090.1
74056.7
73062.9
72089.7
71149
70258.9
69428.6
68650.7
67904.1
67164.9
66421.3
65681
64975.1
64347.5
63863.3
63651.5
63710.2
64095.7
64819.7
65870.2
67213
68799.6
70557.9
72392.5
74254.9
75997.7
77557.5
78890.4
79966
80773.9
81315.7
81606.1
81683.8
81563.2
81271.4
80837.6
80288.1
79648.9
78948.3
78216.3
77482.5
76776.3
76125.6
75555.2
75090.2
74813.1
74586.5
74416.9
74302.7
74224.5
74169.7
74085
73924.8
73685.1
73402.8
73106.4
72826.6
72580.7
72380
72273.9
72303.9
72475.4
72772.2
73151.1
73545.9
73884.8
74083.7
74059.9
73777.1
73221.8
72382.2
71390.5
70280.6
69107.6
67956.9
66932.4
66126
65664.2
65621.4
66053.6
66903.5
68149.4
69704.3
71476.6
73343
75278.7
77212.1
79089.2
80866
82499.7
83945.2
85168.8
86141.2
86831.4
87213.5
87268.1
86878.8
86241
85222.5
83844.2
82113.6
80051.8
77743.8
75265.7
72399.6
69688.3
66937
64445.5
62256.2
60457.2
59110.8
62468.5
60847.8
59187
57427.5
55504.1
53372.1
51035.7
48558
46050.1
43659.4
41510.2
39989.2
39104.3
38905
39400.3
40536.8
42205.7
44246.7
46485.4
48767.5
51208.8
53308.1
55155.4
56762.1
58180
59545
60995.5
62688.7
64687.2
66885.4
69028.3
71011
72720.6
74183.2
75291.2
75898.8
76145.1
76003.3
75568.6
74904.9
74117.1
73327.5
72665.6
72245
72150
72321.4
72553.4
72593.5
72400.7
72031.3
71387.3
70432.7
69145.6
67912.6
66858.1
65834.1
64823.6
63846.1
62925.5
62072.4
61277.6
60515.5
59756.1
58982.9
58198.1
57429.6
56727.7
56131.9
55818.4
55785.6
56111.8
56805.8
57859.8
59237.4
60879.7
62712
64633.6
66617.4
68452.7
70095.1
71498.2
72631
73483.9
74060.1
74377.9
74472.7
74354.2
74058.1
73613.4
73046.2
72383.7
71655.2
70892
70125.5
69386.5
68704.2
68103.7
67623.3
67308.1
67065.3
66901.7
66807.4
66755.5
66725.9
66668.6
66523.9
66287.4
65999.2
65684.1
65376.3
65098.3
64867.2
64731
64743.6
64916.2
65236.1
65659.2
66114.2
66519.8
66783.5
66820.3
66584.5
66051.3
65212
64157.4
62966.2
61686
60412.4
59261.7
58345.4
57798.3
57708.3
58107.1
58968.7
60260.2
61878.9
63723.4
65660.2
67663.1
69664
71606.1
73447
75144.2
76650.2
77931
78957.3
79696.8
80119.4
80205.1
79840.1
79198.8
78169.7
76762.3
74988.2
72857.3
70468.1
67904.6
64909.2
62083.1
59200.4
56584.8
54301.1
52428.2
51038.5
55640.3
54017.2
52369
50617.7
48672.1
46467
43998
41331.7
38582.3
35908.5
33467.9
31668.1
30539.3
30162.2
30555.8
31671.5
33391.4
35542.7
37926.3
40338.3
43079.8
45351.4
47353
49064.5
50555.6
51936.2
53382.3
55081.5
57117.8
59375
61543.3
63579.8
65372.8
66919.7
68173.1
69026.6
69237.6
69111
68677.9
67985.3
67141.8
66276.7
65527.3
65017.1
64857.7
64976.4
65149.3
65171.4
65015.9
64655
64047.6
63183.1
62050.6
60770.5
59685.3
58623.4
57566.2
56543
55584.2
54702.7
53888
53110.8
52334.3
51537.1
50712.4
49882.9
49104.9
48393
47956.6
47822.3
48075.2
48730.7
49785.7
51202
52909.8
54829.6
56851.9
58968
60910.2
62646.3
64128.9
65326.5
66229.6
66842.7
67190.1
67301.7
67179.7
66875.3
66414.7
65824.2
65132.3
64369.7
63569.5
62764.9
61988.6
61270.9
60636.1
60134.3
59779.8
59525
59369.3
59298.5
59277.1
59289.3
59252.9
59127.3
58897
58604.6
58269.2
57928.6
57611.3
57344.3
57173.5
57163.7
57335.8
57680.9
58153.8
58677.3
59160.5
59500.9
59609.9
59422.7
58913
58076
56957.2
55674.5
54273.2
52858.4
51558.9
50505.9
49863.3
49707.9
50082.2
50963.2
52312.5
54007.8
55937.5
57955.9
60037.5
62111.5
64125.4
66035.9
67802.4
69374.9
70718.4
71803.9
72597.8
73065.2
73185.8
72849
72199.7
71160
69718.5
67895.7
65689.3
63207.5
60547.9
57410.1
54452
51421.3
48661.6
46268.2
44305.2
42863.9
48821.2
47199.4
45576.3
43848.6
41891.4
39615.2
37008.7
34148.6
31145.4
28169.4
25400.5
23299.8
21882.1
21293.7
21560
22647.9
24419.1
26696.8
29255.1
31838.6
34893.2
37397.6
39587.7
41441.5
43026.6
44413.6
45838.6
47525
49578
51878.1
54045.5
56128.4
58015.1
59655.9
61033.1
62024.4
62369
62270.8
61854.2
61136.8
60231.9
59276.8
58418.7
57792.6
57554
57606.9
57657.5
57670
57580.7
57262
56715.1
55936.5
54937.6
53687.8
52546.8
51438.2
50322.5
49242.2
48235.2
47317
46477.8
45685.7
44896.4
44083.5
43226.5
42338.3
41473.2
40651.5
40016.5
39822.7
39980.2
40587.1
41639.3
43097.3
44880.2
46902.5
49041.3
51300.7
53365
55208.1
56781.6
58053.5
59013.7
59663.4
60049.8
60165.3
60041.9
59725.4
59243.5
58623.5
57895.7
57092.7
56249.4
55401.3
54582.8
53825.7
53151.4
52619.6
52228.9
51964.2
51818.1
51774.2
51787.7
51831.1
51837.2
51735
51515.5
51221.7
50864.4
50486
50120.6
49809.3
49599.7
49561.9
49730.5
50102.5
50631.1
51232.5
51805.3
52234.9
52426.8
52294.7
51811.4
50972.5
49797.5
48411
46874
45298.2
43826.2
42606.8
41851.9
41621.9
41969.5
42879.1
44301.1
46087.2
48116.4
50228.5
52401.4
54554.3
56646.6
58631.9
60473.1
62118.4
63530
64680
65533.8
66051.2
66215.8
65904
65241.4
64194.7
62714.6
60838.2
58550.7
55964.2
53196.9
49905.5
46794.3
43597.3
40669.6
38143.4
36076.6
34586
42001.8
40395.5
38816.5
37132.4
35174.8
32827.4
30076.1
27020.7
23753.9
20457.2
17320.9
14882.1
13127
12289.5
12390.5
13443.8
15256.9
17673.4
20432.8
23254.7
26645.3
29436.9
31863.7
33909.4
35607.1
37000.5
38381.9
40027.6
42071.4
44385.6
46525.2
48646.3
50630.2
52395.4
53878.8
55022.2
55519.8
55499.9
55111.6
54378.3
53407.2
52345.2
51352
50576.9
50255.8
50125.7
50076.5
50103.7
50104.3
49870.1
49401.8
48701.5
47821.2
46660.6
45451.9
44287.3
43098.8
41946.9
40877.9
39911
39040.9
38234.4
37438.1
36621.3
35743
34801.1
33843.7
32921
32125.1
31780.6
31831.5
32367.1
33409.4
34911.2
36780.2
38923.1
41195.4
43609.5
45812.4
47777.6
49455.7
50813.4
51840.2
52537.3
52950.9
53070.6
52944.3
52611
52101.6
51445.3
50674.8
49824.6
48932
48035
47170.3
46374.3
45644.8
45074.1
44654.6
44381.2
44246.1
44234.6
44285
44370.1
44416.9
44347.8
44144.9
43853.5
43473.2
43052.2
42629.4
42262.2
42007.1
41934.7
42096.1
42496.3
43086.9
43776.4
44451.7
44984.5
45272.2
45204.1
44751.3
43905.5
42681.9
41180.4
39492.9
37734.3
36063.1
34642.4
33748.5
33437.3
33754.9
34707
36220.3
38113
40257.4
42476.6
44754.3
46992.5
49169.8
51234.9
53155.7
54879.9
56365
57584.8
58504.5
59077.8
59290.5
59007.2
58320.5
57273
55748.9
53812.3
51438.3
48734.1
45844.5
42395.8
39108.3
35725.3
32604.3
29929.7
27741
26169.6
35149.5
33613.8
32102.1
30485.6
28536.2
26113.8
23204.1
19961.2
16424.3
12793.6
9220.63
6400.47
4297.41
3143.27
3016.03
4035.99
5861.8
8423.96
11417.1
14567.9
18319.7
21460.3
24186.3
26474.4
28325.6
29712.3
31025.6
32597.5
34594.2
36884.7
38970.4
41113.4
43193.5
45107.4
46743
48024.2
48697.7
48805.6
48470.3
47734.6
46694
45504.7
44342.8
43377.5
42901.6
42533.5
42408.6
42487.1
42480.8
42392.1
42100.2
41484.7
40725.8
39673.4
38414.2
37183.3
35903.4
34661.1
33511
32478.6
31568.9
30749.2
29953.6
29149.3
28265.5
27279.2
26230.3
25186.7
24248
23709.8
23632
24059.1
25081.1
26626.7
28596.4
30881.6
33305.4
35885.3
38245.3
40350.1
42148.9
43607.3
44712.2
45476.4
45899.2
46025.1
45892.3
45536.1
44992.1
44291.5
43470.8
42566.2
41617.9
40667.3
39756.9
38911.5
38110.5
37502
37055.3
36773.5
36652.1
36682.4
36766.3
36897.6
36991.7
36970.2
36787.7
36504.2
36100.4
35632.7
35142.9
34704
34391.7
34281.2
34426.6
34855.6
35514.1
36302.7
37093.1
37744.4
38145
38159.4
37737.3
36885.8
35614.5
33994.9
32142.4
30177
28274.5
26608.4
25541.8
25138.6
25423.8
26435.1
28062.7
30080.1
32356.9
34699.4
37093.8
39425.5
41694.3
43843.8
45847.9
47656.9
49220.8
50515.6
51507.1
52142.2
52403.9
52165.6
51436.1
50397.3
48827.6
46826.5
44363.4
41529.9
38497.7
34901
31395.9
27806.6
24466.5
21601.8
19244.8
17671.7
30420.6
29065.7
27607.6
26052.6
24107.4
21622.8
18580.5
15219.7
11488.6
7629.87
3703.26
576.977
-1746.51
-3148.74
-3486.89
-2449.68
-647.379
2024.31
5211.61
8653.06
12653.4
16063.7
19023.2
21501.7
23478.3
24834.3
26076.8
27580.9
29530.3
31787.7
33829.2
35978.7
38128.4
40156.3
41919.5
43304.5
44115.8
44312.4
44024.3
43285.8
42189
40897.6
39602.9
38503.4
37828.2
37333
37171.6
37311.9
37332.4
37283.8
37168.8
36618.5
35942.2
34948.2
33681.5
32392.4
31036.8
29722.9
28508.7
27423.6
26485.7
25660.7
24871.2
24087
23208.8
22196.8
21085.8
19943.6
18899.8
18205.6
18004.5
18377.7
19367.9
20947.3
23005.8
25407.6
27947.2
30646.2
33123.6
35333
37222.3
38755.9
39914.9
40732.1
41163.9
41283.9
41141.5
40764.3
40191.6
39455.9
38597.1
37651.4
36661.6
35673.5
34730.5
33843.1
32991.3
32359.1
31893.1
31603.4
31495.4
31521.7
31667.3
31836.7
31966.5
31979.4
31817
31543.3
31120.5
30616.8
30074.5
29577.1
29216.8
29071.2
29209.7
29659.5
30371.4
31237.9
32116.2
32862.1
33346.7
33425.2
33022.2
32162.3
30849.5
29144.1
27167.7
25045.9
22967.9
21110
19895.5
19418.8
19687.8
20762
22487.4
24601.4
26979.7
29418.8
31900.2
34301.5
36636.1
38845.7
40908.5
42778.3
44399.5
45748.9
46793.2
47474.4
47767.1
47576.9
46798.8
45767
44162.3
42108
39578.8
36647.7
33489
29826.5
26135.9
22397.1
18886.9
15870
13445.7
11859.7
27921.9
26703.7
25275.7
23752.8
21807.3
19286.9
16167.4
12749.2
8913.11
4937.11
811.026
-2485.52
-4920.75
-6456.07
-6921.47
-5857.81
-4079.29
-1346.78
1952.54
5558.07
9687.36
13244.5
16331.3
18914
20960.5
22294.1
23494.5
24959.7
26880.8
29117.5
31135
33285.8
35473
37563.2
39397.4
40839.8
41726.5
41971.5
41710.6
40971.7
39844.5
38496.3
37127.5
35949.7
35161.5
34602.2
34423.9
34601.8
34637.2
34631.6
34593.2
34078.2
33445.5
32479.4
31213.2
29892.1
28493.8
27140.2
25890.3
24775.5
23822.7
22995.6
22210.4
21439.3
20566.1
19541.5
18398
17201.6
16101.1
15318.2
15045.2
15394.8
16364.8
17963.6
20074.1
22541.1
25143.5
27906
30446.7
32712.6
34650.7
36224.7
37411
38258.7
38668.6
38809.8
38661.6
38272.5
37684.2
36929.1
36049.7
35081.7
34069.6
33061.9
32100.4
31189.4
30311.4
29666.8
29190.3
28896.2
28796
28839.8
28999.8
29189.9
29338.7
29371.4
29219.8
28951.7
28518.8
27995.5
27424.3
26894.3
26506.9
26339.3
26476.6
26937.5
27678.8
28588.3
29514.5
30312.8
30842.5
30955.7
30562.2
29699.2
28364.6
26613.1
24569.7
22362.5
20188.1
18223.3
16926.7
16409.7
16668.8
17781.4
19561.9
21728.5
24161.9
26654.5
29183.2
31622.2
33992
36233.4
38327.3
40229.5
41881.2
43259.7
44332.4
45038.6
45345
45186.2
44378.8
43350.6
41728.2
39644.9
37081.1
34098.8
30874.3
27170.9
23381.6
19564.1
15960.6
12865.2
10347.8
8763.87
25395.6
24357.8
22969.5
21474.2
19523.9
16965
13760.1
10292.4
6348.71
2260.73
-2087.32
-5557.74
-8102.69
-9778.07
-10396.9
-9286.09
-7550.83
-4755.07
-1331.25
2451.78
6710.47
10424.3
13647.3
16342.5
18464.7
19770.5
20925.6
22347
24229.7
26443.2
28433.1
30579.6
32804.6
34960.1
36871.2
38378.4
39342.5
39642.5
39415.2
38680.2
37523.1
36114.5
34664.5
33393.7
32483.9
31857.5
31664.3
31831.2
31925.3
31972.1
32016.3
31542.4
30955.1
30016.4
28756.2
27402.2
25957.1
24560
23270.6
22122.2
21153.7
20325
19545.3
18790.5
17925.5
16890.5
15715.7
14461.9
13302.5
12427.3
12074.6
12396.6
13344.2
14963.5
17131.6
19667.3
22334.6
25161.9
27768.2
30093
32082.2
33699.1
34920.8
35786.4
36204.6
36343.1
36188.6
35786.5
35181.5
34405.9
33505
32513.9
31478.6
30451.2
29469.7
28533.6
27629
26971.9
26484.2
26185.2
26093.6
26152.4
26329.3
26541.1
26709.6
26763.6
26625
26363
25920.9
25377.5
24776
24210.9
23793.3
23604.5
23737.3
24209.3
24981.1
25935.6
26911.2
27764.5
28341.8
28491.6
28108.6
27244.7
25889.4
24092
21980
19683.4
17407.1
15326.1
13938.8
13370
13628.9
14785.2
16625.4
18846.9
21337.8
23887
26464.6
28942.8
31348.5
33622.2
35747.5
37682.4
39365.3
40773.5
41875.4
42607.5
42925.2
42804.6
41964.6
40940.1
39301.9
37189.4
34591.6
31559.3
28272.1
24517.6
20625.9
16722.4
13024.5
9817.03
7279.73
5742.83
22837.2
22025.4
20695.3
19218.1
17257
14656.8
11355.9
7850.07
3795.21
-395.645
-4993.14
-8642.57
-11290.7
-13116
-13923.7
-12734.4
-11070.5
-8208.25
-4644.38
-670.651
3718.16
7600.22
10970
13787.4
15990.5
17261.8
18366.4
19738.7
21575.1
23765.5
25722.8
27861.4
30120.9
32344.8
34339
35922.6
36963.5
37325.8
37137.8
36410.6
35223.6
33750.4
32212.2
30831.6
29800.3
29094.9
28893.3
29071.8
29196.5
29304.7
29436.5
29012.2
28471.1
27560.1
26309.3
24922.4
23425.8
21981.6
20648.8
19462.6
18478.3
17648.7
16875.7
16140.6
15287.2
14244.3
13039.7
11725.6
10501.3
9532.76
9091.06
9381.26
10304
11945.3
14176.9
16785
19519
22412.2
25086.7
27473
29516.4
31178.9
32445
33314.4
33748
33883.8
33722.2
33305.8
32683.2
31885.8
30962.4
29947.1
28887.8
27840.5
26837.9
25874.1
24944.8
24274.2
23774.7
23470.4
23387.7
23461
23655.7
23890.4
24079.5
24155.9
24032.9
23777.1
23326.9
22762.8
22129.6
21527
21075.8
20858.8
20991.6
21474.7
22278.2
23279.6
24306.5
25217.5
25844.6
26032.5
25661.6
24798.2
23422.5
21577.7
19395.3
17005.8
14622.6
12416.8
10939.6
10325.3
10567.5
11772.9
13677.4
15956.4
18507
21116.1
23744.3
26263.1
28705.4
31011.8
33168.8
35136.8
36851.6
38290.2
39422.1
40181.3
40503.7
40436
39555.6
38534.1
36881
34737.6
32105.2
29022.3
25674
21858.7
17865.8
13883.2
10082.9
6808.76
4210.63
2487.32
20244.9
19706.2
18462.3
16986.9
15007.2
12363.3
8952.66
5424.23
1252.23
-3027.79
-7841.57
-11251.6
-14081.7
-16433.9
-17440.5
-16203.2
-14644.5
-11710.3
-7986.7
-3810.46
708.594
4771.92
8299.69
11249.3
13536.4
14765.2
15812.9
17137
18920.3
21085.3
23003.5
25129.1
27419.6
29715.1
31798.6
33469.8
34588.9
35021.9
34879.7
34164.7
32948.2
31405.8
29771.6
28262.3
27114.5
26312.7
26109.8
26291
26448.9
26627.2
26850.2
26488.1
25994.1
25112.1
23872.7
22454
20900.4
19405.1
18024.7
16796.1
15795.6
14967.9
14201.4
13489.6
12651.4
11603.4
10371.3
8993.85
7697.22
6635.21
6093.95
6347.19
7242.24
8908.06
11210.1
13894.1
16696.2
19656.7
22401.7
24852.5
26953.2
28663.9
29976.8
30850.5
31298
31432.4
31262.7
30830.7
30189.3
29368.5
28421.8
27381.4
26297.4
25229.6
24204.6
23211.6
22258.5
21573.7
21061.6
20751.9
20677.9
20765.2
20978.8
21237.4
21448.6
21538.7
21443.8
21193.9
20737.2
20151.9
19485.5
18842.7
18354.5
18115.7
18239.2
18733.2
19569.4
20620
21699.8
22671.4
23350.6
23577.4
23221.7
22359.9
20964.3
19071
16816.4
14329.9
11835.2
9494.92
7903.35
7214.26
7475.21
8747.03
10718.6
13056.8
15669.1
18341.6
21022.1
23583.2
26062.8
28402.4
30591.3
32592.7
34340
35809.6
36972.4
37760
38075.2
38061.1
37169.2
36132.5
34465.8
32289.6
29622.3
26488.8
23079.4
19197.9
15106.1
11032.6
7121.18
3796.89
1328.68
611.37
17618.2
17401.6
16280.3
14781.3
12774.7
10085.4
6547.67
3017.64
-1113.19
-4756.22
-8890.2
-12234.1
-14931
-18261.8
-21122.2
-19617.1
-18287
-15265
-11357.5
-6969.08
-2320.37
1938.75
5636.44
8728.85
11099.8
12275.7
13302.8
14826.7
16271.4
18403.8
20273.8
22378.3
24698.2
27068.5
29247.9
31017.1
32218.1
32731.9
32642
31944.4
30699
29082.5
27344.4
25689.6
24423.6
23512.2
23313
23485.5
23680.7
23937.2
24249.6
23969.4
23524.5
22673.9
21446.9
19998.4
18381.5
16830.7
15398
14124.1
13103.4
12282.3
11522.7
10837.8
10018.9
8968.37
7711.81
6267.69
4893.37
3737.12
3081.65
3278.28
4167.27
5850
8231.29
10994.2
13865.7
16895
19712.8
22231.1
24392.8
26153.4
27516.6
28395.9
28855.6
28989
28810.4
28361.2
27699.8
26854.1
25883.2
24816.7
23707.7
22618.2
21569.8
20546.2
19569.7
18870.4
18344.9
18029.7
17963.7
18064.5
18298.1
18582.1
18817
18931.4
18857.9
18613.7
18152
17545.1
16844.1
16158.3
15629.5
15364.3
15479.6
15984.4
16854.6
17956.4
19090.7
20126.1
20858.4
21127
20789.6
19930.2
18515.3
16572.2
14243.9
11656.9
9044.78
6558.05
4901.69
4165.03
4394.75
5673.6
7743.45
10147.5
12823.9
15563.5
18298.1
20903.1
23420.6
25793.8
28014.8
30049.9
31830.6
33331.5
34526.2
35344
35698.5
35675.6
34806.5
33736
32056
29845.4
27142.8
23959.2
20489.1
16535.8
12335.1
8153.2
4215.57
1107.21
260.536
141.46
14957.9
15113.6
14163.8
12599.8
10560
7824.4
4245.13
1353.31
-2162.54
-5360.73
-8779.64
-12121.7
-14872.9
-18315
-21660.1
-23090.5
-21973
-18874.5
-14755.2
-10147.7
-5370.93
-899.674
2980.56
6226.92
8676.5
9798.12
11222.5
12409.3
13632.5
15722.3
17533.1
19607.7
21954
24402.3
26684.5
28561.5
29850.2
30456.1
30426.8
29752.2
28478.8
26783
24932.2
23116.2
21725.4
20693.5
20504.2
20650.9
20889.6
21232.2
21610.3
21454.1
21061.8
20249.6
19033.3
17557.8
15869.6
14258.7
12768.8
11446.8
10401.4
9590.57
8840.48
8185.03
7389.63
6339.84
5062.72
3548.61
2090.08
824.03
57.0343
218.313
1086.76
2765.29
5239.79
8085.42
11027.3
14126.8
17019.6
19608.4
21835.1
23658
25053.5
25951.4
26421.8
26554.1
26365.6
25897.3
25215
24342.7
23346.8
22253.1
21119
20005.8
18933.3
17878.2
16878.3
16164.4
15624.5
15303.8
15244.8
15358.9
15613.4
15924.3
16184.8
16325.7
16275
16036.9
15571.2
14942.8
14205.9
13474.2
12901
12605.2
12711.9
13227.8
14133
15288.4
16479
17581.1
18367.3
18681.1
18366.1
17509.5
16076
14081.6
11678.6
8986.11
6248.35
3617.86
1727.3
1103.44
1268.64
2762.33
4749.43
7223.9
9970.39
12782
15572.3
18223
20779
23186.2
25439.4
27508.3
29323.1
30855.8
32083.4
32932.9
33331.1
33299.8
32452.1
31344.1
29651.7
27404.9
24666.6
21433.3
17903.3
13869.6
9546.57
5332.06
1493.88
222.816
129.894
114.573
12171.2
12763
12062.3
10322.6
8511.08
6293.06
3300.42
760.114
-2182.11
-5428.66
-8771.67
-12026.3
-14797.1
-18116.1
-21320.3
-24292.9
-25644.3
-22710.9
-18300
-13461.4
-8554.87
-3844.47
238.851
3657.09
6180.63
7251.44
8814.36
9925.88
10918.1
12948.1
14683
16716.1
19085.5
21618.1
24014.3
26013.5
27401.2
28115.2
28159.1
27514.7
26214.1
24429.9
22453.4
20451.8
18923.6
17757.5
17581
17680.4
17973.6
18411.8
18788.2
18848.3
18521.9
17756.2
16551
15049.6
13277
11598.8
10044.4
8667.07
7594.85
6799.24
6060.97
5438.03
4672.33
3629.68
2336.44
901.379
-117.739
-1032.3
-1795.47
-2191.01
-1984.91
-305.166
2127.14
5064.26
8079.79
11253.7
14226.3
16891.8
19190.8
21090.6
22499.4
23431.8
23912
24042.6
23842.8
23352.8
22647.6
21745.6
20723.3
19600.1
18440.4
17300
16202
15113.8
14089.3
13360.3
12804.3
12477.4
12424.6
12552.1
12829.5
13169.7
13459.1
13629.1
13604.1
13373
12904.2
12254
11478.5
10696.2
10072.9
9741.23
9838.09
10365.1
11308
12522.1
13771.3
14946.1
15789.2
16152.9
15866.8
15013.2
13561.4
11512.1
9032.27
6222.05
3383.82
932.995
213.127
-2.70722
-102.202
232.495
1909.32
4189.09
7001.82
9898.29
12748.7
15448.4
18045
20487.7
22774.4
24878.3
26729.2
28295.1
29557.9
30441.5
30875.6
30849
30023.5
28872.2
27168
24882.3
22106.5
18823
15228.6
11107.8
6706.63
2525.69
286.283
144.322
124.418
109.547
9257.44
10292.2
10250
8942.65
7407.25
5727.63
3271.09
545.562
-2349.54
-5499.8
-8750.45
-11929.9
-14709.4
-17938.7
-21090
-24325.8
-27670.4
-26760.1
-22009
-16917
-11880.9
-6897.81
-2587.71
1023.39
3626.49
4652.85
6388.88
7407.15
8145.53
10083.7
11720.6
13696.8
16084.5
18708.5
21231.5
23369.2
24870.6
25712.3
25844.6
25239.5
23912.9
22030
19910.5
17698.3
16016.2
14704
14533.8
14562.1
14926.2
15475.1
15982.2
16149.3
15907.4
15198
14001.9
12482.1
10605.1
8852.86
7226.25
5781.3
4680.12
3909.11
3193.99
2712.15
2164.89
1425.66
568.472
-319.417
-925.551
-1475.58
-2114.55
-2687.76
-3305.63
-3374.73
-954.317
1923.69
5020.78
8274.03
11330.9
14080
16458.7
18444
19866
20838.7
21328
21456.3
21243.6
20728.5
19998.4
19063.3
18013
16857.8
15672.2
14500.1
13375.4
12253
11202
10457.7
9883.52
9549.59
9501.47
9643.03
9945.31
10317.7
10639.6
10842.6
10845.5
10623
10151.9
9480.3
8663.38
7824.54
7145.02
6770.69
6851.94
7397.15
8378.34
9656.01
10966.6
12220.4
13123.6
13541.8
13293.1
12443
10973.4
8866.12
6294.41
3403.84
875.062
161.17
45.2796
-20.9027
-128.967
-225.335
-150.155
1415.81
3931.08
6899.47
9827.82
12579.5
15218.5
17698.3
20019.9
22159.9
24048.9
25649.4
26950
27869.8
28335.1
28322.4
27522.5
26319.9
24605.5
22277.7
19462.4
16128.2
12476.3
8223.65
3849.59
423.349
150.151
139.513
119.056
104.246
6389.58
8904.92
9199.7
8538.57
7036.08
5348.45
2974.41
338.324
-2494.11
-5565.58
-8730.81
-11836.7
-14613.2
-17755.2
-20839.3
-23952.8
-27547.6
-29571.4
-25643.3
-20403.4
-15245.1
-9959.9
-5405.61
-1585.66