/*--------------------------------*- C++ -*----------------------------------*\
| =========                 |                                                 |
| \\      /  F ield         | OpenFOAM: The Open Source CFD Toolbox           |
|  \\    /   O peration     | Version:  v1912                                 |
|   \\  /    A nd           | Website:  www.openfoam.com                      |
|    \\/     M anipulation  |                                                 |
\*---------------------------------------------------------------------------*/
FoamFile
{
    version     2.0;
    format      ascii;
    class       volScalarField;
    location    "60";
    object      k;
}
// * * * * * * * * * * * * * * * * * * * * * * * * * * * * * * * * * * * * * //

dimensions      [0 2 -2 0 0 0 0];


internalField   nonuniform List<scalar> 
14268
(
1.05096e-09
7.73325e-10
6.06107e-10
5.28332e-10
5.14941e-10
5.04286e-10
4.90368e-10
3.52109e-10
1.26303e-07
4.74867e-06
3.21406e-05
7.95862e-05
0.000152705
0.000228751
0.000349663
0.000460452
0.000338185
0.000719127
0.00295124
0.00299436
0.000988765
0.000704209
0.00100437
0.000911034
0.00158117
0.00240548
0.0027469
0.00258791
0.00548571
0.0140545
0.0142771
0.00462139
0.00428705
0.0101688
0.0191515
0.020845
0.0176934
0.0164098
0.018761
0.0277152
0.0261944
0.0129982
0.00455532
0.0205029
0.0549051
0.0705148
0.0635116
0.0356488
0.0147537
0.0123835
0.0179335
0.0262733
0.0266083
0.0238179
0.0053867
0.0316895
0.0672082
0.0483665
0.00933681
0.0144689
0.0114949
0.00180289
0.00366575
0.00686639
0.028429
0.0256432
0.0178028
0.0404541
0.0390491
0.0591036
0.0716211
0.0160213
0.0320854
0.0742718
0.0540401
0.0327547
0.0199693
0.00531268
0.0191765
0.0552275
0.0596576
0.0580247
0.028805
0.0446001
0.0600795
0.0577163
0.0398074
0.0159768
0.0352664
0.0884419
0.0506245
0.014655
0.0133521
0.0350509
0.0425043
0.0361004
0.0428428
0.0601312
0.0610515
0.0203104
0.00445042
0.0142784
0.0427808
0.0381033
1.45935e-08
1.19069e-08
1.06583e-08
9.80314e-09
9.22547e-09
8.34534e-09
7.29096e-09
5.90072e-09
1.03737e-06
2.16332e-05
0.000117025
0.000287582
0.00058189
0.000873992
0.00130331
0.00176071
0.0012657
0.00217064
0.00931674
0.00964068
0.00328927
0.00249802
0.00359422
0.00329176
0.00538422
0.00758915
0.00888446
0.00981225
0.0179308
0.0467327
0.0475097
0.0149814
0.0182089
0.0354836
0.0576089
0.0518112
0.0439118
0.0419574
0.0486744
0.0715557
0.0789731
0.0382405
0.016134
0.0762071
0.208159
0.264514
0.200776
0.0994996
0.044395
0.0346815
0.0604052
0.105341
0.109341
0.104585
0.0177879
0.117881
0.229361
0.221249
0.0341653
0.0372924
0.0226602
0.00717416
0.0147191
0.0223928
0.0595009
0.0525321
0.0323229
0.0740272
0.149936
0.194573
0.257083
0.0396779
0.106145
0.242403
0.174656
0.109092
0.0708159
0.0442026
0.0493513
0.126807
0.151537
0.151527
0.0980468
0.0994921
0.126076
0.148475
0.0917243
0.0605109
0.117753
0.253474
0.13969
0.0535381
0.040407
0.098118
0.0889954
0.10027
0.129591
0.163111
0.184536
0.0784568
0.0131378
0.0371548
0.178421
0.192999
3.99755e-08
3.58748e-08
3.36735e-08
3.11804e-08
2.88186e-08
2.57364e-08
2.0829e-08
2.12947e-08
2.51083e-06
3.90989e-05
0.000187553
0.000461915
0.000965935
0.00141646
0.00207527
0.00296483
0.00200647
0.00294786
0.0135361
0.0149311
0.00632414
0.00531722
0.0069734
0.00526508
0.00783542
0.0110717
0.0127223
0.0167489
0.0285406
0.0796418
0.0809737
0.0255571
0.0384714
0.0696261
0.0792901
0.0611087
0.0501704
0.0461478
0.0570139
0.090937
0.0994893
0.0599703
0.035496
0.166587
0.39668
0.444044
0.394282
0.219892
0.0627638
0.0446487
0.086451
0.14087
0.161304
0.195877
0.05254
0.177547
0.222379
0.319253
0.0866489
0.0468824
0.0218454
0.0148248
0.0551798
0.0297037
0.0464389
0.0372513
0.0428188
0.0661789
0.086265
0.160323
0.343766
0.0595553
0.185864
0.381396
0.26316
0.155403
0.135535
0.151016
0.0888951
0.158099
0.177397
0.142872
0.0706727
0.0735789
0.13634
0.413293
0.213066
0.0802928
0.13105
0.326224
0.177777
0.0726735
0.0862488
0.189333
0.114959
0.0998562
0.131201
0.165258
0.201516
0.165941
0.0331545
0.0776168
0.461835
0.630296
5.69661e-08
5.44006e-08
5.30296e-08
5.11894e-08
4.92359e-08
4.59997e-08
3.89302e-08
4.49102e-08
4.51682e-06
5.78113e-05
0.000254512
0.000633932
0.00133871
0.00189721
0.00269953
0.00398452
0.00253838
0.00332415
0.0161754
0.017843
0.0099442
0.00915753
0.0100153
0.00796873
0.0104164
0.0139704
0.015572
0.0195549
0.0414285
0.119976
0.122208
0.0504819
0.0770448
0.107528
0.0917086
0.0638419
0.0530234
0.0489458
0.0608105
0.0989859
0.0977607
0.0865219
0.0453889
0.242407
0.421504
0.41583
0.410469
0.330126
0.131673
0.0578754
0.0846672
0.140447
0.183331
0.263019
0.193037
0.198622
0.166422
0.253055
0.143663
0.0822537
0.0517029
0.0478658
0.0879012
0.0313877
0.0299131
0.0961471
0.168778
0.15569
0.0367755
0.103568
0.230473
0.0766326
0.387346
0.417953
0.249315
0.153722
0.194947
0.296717
0.157416
0.318066
0.370295
0.183553
0.0403131
0.0490431
0.345498
0.830055
0.762598
0.132682
0.15768
0.588846
0.26957
0.0691894
0.177687
0.310678
0.190641
0.0787363
0.0845977
0.117673
0.152764
0.222101
0.142838
0.228683
0.901393
1.06532
6.45476e-08
6.31999e-08
6.24708e-08
6.13988e-08
6.02071e-08
5.80802e-08
5.20202e-08
7.41139e-08
7.09151e-06
7.88327e-05
0.000324439
0.000810248
0.00171304
0.00235375
0.00326749
0.00505188
0.00311487
0.00381749
0.0185471
0.0187432
0.0119981
0.0120503
0.0105541
0.0103599
0.012874
0.0164176
0.0180528
0.0244548
0.0610169
0.145477
0.147622
0.0810027
0.127156
0.151398
0.105029
0.0712629
0.0592317
0.0552245
0.0709295
0.11268
0.0993634
0.135234
0.0671238
0.318155
0.409881
0.402023
0.407388
0.36565
0.254649
0.125193
0.112979
0.267916
0.284651
0.311185
0.422161
0.289821
0.146712
0.193477
0.221296
0.140125
0.280367
0.104804
0.0733389
0.0307287
0.0653567
0.35362
0.592203
0.55139
0.0596327
0.0524287
0.14688
0.160147
0.698379
0.386857
0.203101
0.0969395
0.165592
0.328822
0.240457
0.798891
0.846017
0.511494
0.0835606
0.107285
0.630587
0.801741
1.09545
0.204705
0.348642
1.02703
0.624791
0.101424
0.288424
0.310559
0.217335
0.129862
0.0634048
0.0757445
0.101141
0.189206
0.316625
0.562446
1.43584
1.42824
6.72211e-08
6.67462e-08
6.66107e-08
6.6126e-08
6.5617e-08
6.46155e-08
6.06768e-08
1.15593e-07
1.03174e-05
0.000102373
0.000398815
0.000995775
0.00209492
0.00280068
0.00381059
0.0061604
0.00377487
0.0044129
0.0212999
0.0180654
0.0128835
0.0124062
0.00977516
0.0112323
0.0143942
0.018631
0.0212326
0.0356939
0.0797619
0.145573
0.147114
0.0826616
0.150418
0.174678
0.106807
0.0735514
0.0631193
0.0620067
0.0808308
0.122702
0.103638
0.158248
0.0858062
0.368684
0.369254
0.362952
0.374432
0.34116
0.31706
0.236438
0.255221
0.51635
0.487282
0.357391
0.550096
0.387437
0.224634
0.130869
0.234646
0.129889
0.578909
0.240025
0.0875953
0.0501765
0.117706
0.435686
0.750216
0.593806
0.195986
0.0322376
0.0759449
0.17219
0.825664
0.347988
0.146987
0.0490998
0.111639
0.232919
0.17348
0.986888
0.860438
0.877162
0.311115
0.213224
0.490818
0.602724
0.941683
0.150915
0.580482
1.03048
0.942945
0.271258
0.306057
0.25509
0.181066
0.243487
0.123477
0.0800865
0.0607562
0.1267
0.169083
0.961724
1.6458
1.39507
6.84022e-08
6.82337e-08
6.82444e-08
6.81863e-08
6.84989e-08
6.82928e-08
6.57041e-08
1.8102e-07
1.43444e-05
0.000129364
0.000481475
0.00119489
0.0024907
0.00324806
0.00438327
0.00749636
0.00466283
0.00615834
0.0272322
0.0176175
0.0155038
0.0109694
0.009165
0.0115601
0.0155292
0.0218874
0.0260001
0.0457677
0.0971436
0.144621
0.147592
0.077724
0.146334
0.174391
0.102858
0.0761657
0.0661474
0.0674736
0.0890761
0.13231
0.10882
0.163405
0.099341
0.399088
0.334996
0.337767
0.348501
0.31774
0.282564
0.26953
0.438069
0.628942
0.715078
0.524759
0.433148
0.357797
0.375233
0.132093
0.188432
0.135338
0.598901
0.430351
0.242685
0.107329
0.226911
0.501971
0.656181
0.454204
0.273835
0.0830685
0.133389
0.159447
0.712456
0.303144
0.10613
0.062329
0.0804019
0.153966
0.162506
0.82551
0.704183
1.11916
0.626884
0.396937
0.417061
0.484016
0.785482
0.109103
0.683306
1.03452
1.09092
0.461899
0.263602
0.240319
0.226402
0.252965
0.232956
0.160218
0.0740316
0.0640832
0.107962
1.17958
1.65583
1.27331
6.88033e-08
6.88889e-08
6.9304e-08
6.98912e-08
7.13987e-08
7.18397e-08
7.05775e-08
2.89882e-07
1.92827e-05
0.000160168
0.000573338
0.00140883
0.00290059
0.00370154
0.00525637
0.00996107
0.00615865
0.00818202
0.035278
0.0166369
0.0186122
0.00947978
0.00941796
0.0118881
0.0168442
0.0256207
0.0293881
0.0482007
0.112164
0.154759
0.160032
0.068863
0.128142
0.156705
0.0982933
0.0818269
0.064629
0.0664678
0.0909056
0.135413
0.109763
0.134736
0.0956951
0.365165
0.295493
0.30563
0.317149
0.297238
0.228431
0.219671
0.442246
0.559873
0.782276
0.745268
0.373495
0.310801
0.348753
0.193683
0.139136
0.259009
0.434681
0.679266
0.505285
0.180957
0.318377
0.607219
0.520391
0.387961
0.358367
0.402627
0.631133
0.215983
0.612151
0.272933
0.138016
0.330632
0.0493351
0.0954462
0.179672
0.649773
0.614077
1.07542
0.862593
0.597307
0.375766
0.363499
0.613852
0.0940631
0.635087
1.06799
0.994349
0.382964
0.210032
0.406419
0.457086
0.20549
0.208883
0.172269
0.103946
0.0447368
0.117861
1.30923
1.51641
1.13094
6.90399e-08
6.91863e-08
6.99349e-08
7.15227e-08
7.50141e-08
7.61733e-08
7.56879e-08
4.74719e-07
2.54702e-05
0.000195878
0.000676717
0.00164052
0.00332957
0.00417553
0.00630783
0.0140476
0.00941409
0.00914723
0.0426912
0.0157561
0.0217759
0.0108018
0.0116295
0.0124106
0.0185415
0.0284525
0.0303374
0.0481079
0.122052
0.182479
0.188038
0.0651803
0.112657
0.139306
0.100403
0.0933155
0.0652407
0.0679905
0.0961542
0.139117
0.110938
0.108531
0.0823003
0.320746
0.265799
0.27938
0.291357
0.277129
0.176961
0.161049
0.375199
0.480926
0.769365
0.95315
0.451902
0.334611
0.287797
0.15856
0.10199
0.450402
0.313809
0.788554
0.645334
0.321268
0.467819
0.734745
0.54688
0.289841
0.393234
0.701361
0.922964
0.251304
0.541779
0.375536
0.4262
0.89282
0.0633137
0.0500843
0.208892
0.515147
0.531954
0.908202
0.756261
0.641256
0.304101
0.239291
0.433345
0.106526
0.690917
1.28562
0.919431
0.31612
0.154761
0.710106
0.666511
0.147565
0.155206
0.134998
0.0824644
0.195562
0.247114
1.37295
1.32762
1.0285
6.91497e-08
6.96494e-08
7.14613e-08
7.51636e-08
8.22811e-08
8.3908e-08
8.38123e-08
7.62662e-07
3.30725e-05
0.00023712
0.000792258
0.00189117
0.00377882
0.00470234
0.00706037
0.0182789
0.0134149
0.00941983
0.0453545
0.0145746
0.0246487
0.0144708
0.0155636
0.0135749
0.0202198
0.0297417
0.0304709
0.0472229
0.123524
0.213262
0.207358
0.0606854
0.0996463
0.124596
0.106224
0.0999636
0.0689251
0.0728186
0.103608
0.141795
0.110089
0.103322
0.0684515
0.268818
0.252549
0.251379
0.267912
0.267822
0.134007
0.13996
0.288753
0.386939
0.728337
1.10517
0.677059
0.538532
0.516359
0.112444
0.0569764
0.654547
0.226316
0.622832
0.668919
0.446259
0.680281
0.910412
0.865386
0.211261
0.317138
0.867999
1.15971
0.309227
0.69075
0.918543
0.874746
1.19767
0.224406
0.0203098
0.230431
0.418914
0.401217
0.726059
0.584332
0.533261
0.234258
0.163211
0.316321
0.295501
0.914684
1.64206
1.04767
0.24185
0.142502
0.912796
0.723964
0.125589
0.102736
0.0826826
0.0463617
0.509686
0.551068
1.2604
1.17925
0.902762
6.93993e-08
7.03032e-08
7.40385e-08
8.22583e-08
9.67263e-08
9.81596e-08
9.7306e-08
1.17596e-06
4.26137e-05
0.000284953
0.000922357
0.00216334
0.00425164
0.00526372
0.00754883
0.0207419
0.0152591
0.00924716
0.0433037
0.0135403
0.0259465
0.0182064
0.0183141
0.0159757
0.0223138
0.0302453
0.0305473
0.047303
0.120673
0.241737
0.226304
0.060811
0.0914071
0.119693
0.11338
0.0999419
0.0708156
0.0811786
0.109532
0.144118
0.107094
0.132674
0.0751721
0.220904
0.26163
0.233345
0.247111
0.274069
0.154945
0.194594
0.230087
0.320685
0.649622
1.01839
0.833912
0.772161
0.849226
0.201165
0.0405429
0.866353
0.286816
0.505715
0.60423
0.556225
0.990538
1.16973
1.22601
0.248691
0.373008
1.07106
1.36238
0.553366
1.35468
1.43379
0.95154
1.06679
0.620007
0.0141519
0.230232
0.382799
0.314412
0.589979
0.443913
0.401675
0.163025
0.242671
0.29241
0.578043
1.1745
1.87814
1.39825
0.233796
0.28685
1.08769
0.768311
0.218645
0.129633
0.0869459
0.0556671
0.676863
0.702117
1.03185
1.0451
0.827612
6.97844e-08
7.19846e-08
8.09388e-08
1.00652e-07
1.29698e-07
1.29167e-07
1.24606e-07
1.7379e-06
5.45655e-05
0.000340371
0.00106859
0.00245737
0.0047469
0.00581089
0.00793866
0.0209393
0.0152053
0.00896584
0.0398964
0.0123327
0.0246613
0.0205833
0.0187507
0.0188747
0.0241207
0.0307654
0.0316245
0.0479463
0.11562
0.263099
0.267221
0.0618872
0.0844763
0.117725
0.114876
0.0948138
0.0680289
0.0867325
0.113657
0.167683
0.100192
0.152447
0.123754
0.205386
0.256229
0.21208
0.225176
0.274748
0.244184
0.26245
0.219461
0.289281
0.552284
0.917869
0.882171
0.805678
0.759975
0.678298
0.0979726
0.88729
0.55783
0.418258
0.482638
0.713346
1.41732
1.40937
1.47604
0.595461
0.502582
1.24718
1.54979
0.940674
1.78252
1.53355
0.872414
0.849374
0.839336
0.0248501
0.279168
0.487551
0.337992
0.561023
0.332917
0.320012
0.130068
0.363152
0.289806
0.492163
1.19306
2.10863
1.68308
0.39406
0.55075
1.24249
0.916606
0.390411
0.292273
0.158858
0.10556
0.545035
0.790929
0.846919
0.907816
0.709924
7.10035e-08
7.56083e-08
9.68466e-08
1.47976e-07
2.18325e-07
2.09898e-07
1.87645e-07
2.56828e-06
6.98983e-05
0.000404488
0.00123223
0.0027749
0.00526543
0.006357
0.00830896
0.0200178
0.0161435
0.0099422
0.0367163
0.0112073
0.0224475
0.0208756
0.0185795
0.021449
0.0246271
0.0314505
0.0352895
0.0567918
0.114567
0.268569
0.313767
0.0659678
0.0786432
0.115788
0.115837
0.0898355
0.0658415
0.0880516
0.129036
0.25672
0.10321
0.152213
0.189048
0.20945
0.237933
0.187077
0.211032
0.270871
0.327918
0.250879
0.219498
0.273811
0.469939
0.826476
0.866995
0.741926
0.713824
1.02224
0.520117
0.846096
0.704644
0.328766
0.378246
0.365229
1.86561
1.32068
1.66116
1.11439
0.346169
1.22926
1.70599
1.22593
2.16133
1.41502
0.774001
0.68605
0.906177
0.143278
0.371524
0.60618
0.451952
0.713722
0.32708
0.232316
0.158175
0.325561
0.300736
0.373701
1.03411
2.25167
1.82738
0.638485
0.761066
1.38829
1.09873
0.588981
0.393038
0.409674
0.178395
0.426761
0.848739
0.728696
0.789798
0.606152
7.38208e-08
8.45683e-08
1.395e-07
2.93199e-07
5.97123e-07
5.73498e-07
4.59915e-07
4.04273e-06
8.94396e-05
0.000478382
0.00141431
0.00311626
0.00580502
0.00691705
0.00867657
0.0189393
0.0197958
0.0132956
0.033508
0.0102611
0.0200658
0.0193784
0.0179413
0.0229124
0.0245015
0.0331255
0.0406157
0.0755738
0.124312
0.259735
0.333825
0.077763
0.0729123
0.115378
0.1231
0.0850289
0.0638566
0.0861405
0.159837
0.377109
0.116278
0.144821
0.253591
0.191372
0.211214
0.161912
0.202056
0.251434
0.32849
0.197241
0.179527
0.248747
0.396094
0.713767
0.832359
0.646102
0.666609
1.26826
0.894261
0.794482
0.719617
0.227444
0.282436
0.239275
2.05865
1.09013
1.82281
1.54653
0.249987
1.2022
1.67682
1.1347
2.18786
1.24414
0.652946
0.541928
1.03538
0.364211
0.436041
0.511313
0.359185
0.737222
0.52726
0.16269
0.155886
0.249782
0.32236
0.280016
1.00936
2.15458
1.78183
0.842856
0.971351
1.38481
1.18213
0.696361
0.335102
0.638599
0.349229
0.317344
0.636614
0.643716
0.670619
0.501344
8.4922e-08
1.1538e-07
3.18774e-07
1.1731e-06
3.72462e-06
4.07256e-06
3.28109e-06
9.32636e-06
0.000127015
0.000604944
0.0017167
0.00366586
0.00664708
0.00779364
0.00924797
0.0176445
0.0270369
0.0196388
0.029755
0.00997909
0.0168459
0.0167331
0.0168352
0.0234221
0.0252112
0.03999
0.0485721
0.0970842
0.150064
0.244095
0.341838
0.137539
0.0695305
0.124156
0.145474
0.0787822
0.0611625
0.0839079
0.210402
0.512522
0.17005
0.130874
0.228885
0.153824
0.171451
0.124857
0.187368
0.213849
0.26255
0.108075
0.111851
0.212776
0.306498
0.561423
0.721679
0.502091
0.563363
1.47654
1.07158
0.765542
0.806546
0.119751
0.153546
0.19445
1.90727
0.943947
1.62895
1.8999
0.149293
1.07392
1.57705
0.929585
2.01239
1.02989
0.46245
0.338017
0.848447
0.670683
0.74172
0.414893
0.293296
0.610634
0.797079
0.151575
0.146692
0.188798
0.437212
0.221694
1.12512
1.9529
1.65679
1.07881
1.09055
1.23171
1.06524
0.746862
0.229887
0.798626
0.665776
0.173484
0.473097
0.576278
0.503717
0.339458
1.26172e-07
2.41213e-07
1.11245e-06
5.20681e-06
1.66027e-05
1.84096e-05
1.48859e-05
2.60694e-05
0.000203145
0.000820581
0.00220486
0.00449564
0.00784654
0.00908938
0.010628
0.0188788
0.034834
0.024322
0.0276197
0.0112611
0.0136543
0.0137215
0.0157614
0.0229729
0.0311777
0.0583606
0.0605098
0.0949059
0.162611
0.228779
0.339278
0.293417
0.12473
0.208876
0.158588
0.071691
0.0581002
0.0799017
0.220179
0.532971
0.208704
0.107924
0.157919
0.0978644
0.116677
0.0757722
0.167493
0.1627
0.150534
0.0882309
0.135064
0.210768
0.270802
0.439552
0.565553
0.422802
0.426142
1.68943
0.94911
0.986729
1.21486
0.0892929
0.0536498
0.234983
1.38829
0.80656
1.24704
1.86539
0.156615
0.938981
1.42738
0.69879
1.75394
0.736558
0.304664
0.161402
0.5204
0.714062
0.985327
0.272535
0.261075
0.46477
0.548425
0.226396
0.0924964
0.282565
0.678147
0.505164
1.57013
1.72112
1.40805
1.25498
0.859373
0.99625
0.869157
0.999686
0.349917
0.822459
1.00541
0.0907894
0.248385
0.404359
0.304925
0.19691
2.70586e-07
7.76013e-07
4.64406e-06
1.90661e-05
4.66448e-05
4.87905e-05
3.93991e-05
5.9178e-05
0.000313488
0.00108843
0.00278252
0.00541841
0.00912313
0.0106409
0.0123385
0.0222458
0.0386651
0.0236888
0.0267371
0.0117574
0.0126072
0.0115105
0.0154264
0.0234619
0.0442106
0.0763431
0.0741045
0.088095
0.155515
0.222599
0.335574
0.433471
0.257443
0.337008
0.151471
0.0644494
0.0563272
0.0726187
0.192069
0.484035
0.23804
0.0829864
0.090809
0.083619
0.089124
0.0488131
0.141415
0.166378
0.111648
0.229578
0.208233
0.249376
0.307618
0.460076
0.395375
0.516896
0.356503
1.78369
1.04791
1.37647
1.42095
0.285885
0.0484195
0.325995
0.969082
0.632345
1.01995
1.47323
0.531647
0.745982
1.40521
0.717214
1.51118
0.479087
0.294141
0.0931358
0.287631
0.894111
0.610488
0.218561
0.486789
0.379428
0.385744
0.160985
0.069243
0.258089
0.8301
1.15526
1.74831
1.46384
1.17228
1.37313
0.751767
0.793481
0.702735
1.28841
0.83689
0.886761
1.25216
0.262265
0.111341
0.223962
0.159247
0.17923
9.75504e-07
4.25562e-06
2.12706e-05
5.80694e-05
9.95042e-05
9.78093e-05
7.83015e-05
0.000113956
0.000462768
0.00141581
0.00345635
0.00642385
0.0104701
0.0123014
0.0134156
0.0240433
0.0372139
0.0180539
0.0241991
0.0103715
0.0129084
0.00950501
0.0155282
0.0251545
0.0548093
0.0824024
0.084942
0.0906352
0.14178
0.210876
0.323499
0.562697
0.4032
0.379646
0.138077
0.0558238
0.0549041
0.0624397
0.159106
0.441108
0.28738
0.0780351
0.078755
0.127715
0.0993132
0.0465068
0.0842667
0.196085
0.238946
0.352124
0.2604
0.265262
0.217779
0.4433
0.284071
0.63603
0.358847
1.50991
1.09633
1.47353
1.21998
0.539213
0.096611
0.721054
0.610654
0.491392
0.818423
1.01648
0.793797
0.600639
1.28128
1.30644
1.27269
0.370034
0.300751
0.169534
0.132312
1.05451
0.417679
0.428245
0.730095
0.275485
0.259351
0.0892523
0.0973554
0.22145
0.673224
1.48558
1.59985
1.18635
0.898854
1.19075
0.785708
0.590469
0.50142
1.04019
1.18414
0.916749
1.29363
0.556337
0.145517
0.0965616
0.0898759
0.383782
7.32673e-06
2.6967e-05
7.58117e-05
0.000135816
0.000173019
0.000164513
0.000133216
0.000197648
0.00065581
0.00180596
0.00423307
0.00750664
0.0118696
0.0137578
0.0140754
0.0243707
0.0337854
0.00984447
0.0210102
0.00877256
0.0128135
0.00766451
0.0161198
0.0274276
0.0558198
0.078238
0.0894638
0.100486
0.136814
0.197675
0.309453
0.641343
0.533442
0.357057
0.123749
0.0500702
0.0579151
0.0545342
0.122801
0.405201
0.388835
0.0772173
0.102068
0.162172
0.10192
0.0491487
0.0509383
0.21625
0.414347
0.492929
0.314403
0.267875
0.134921
0.374202
0.328686
0.729323
0.293962
1.25176
0.894987
1.34982
1.05566
0.678496
0.410881
1.28223
0.390928
0.353955
0.592439
0.77246
0.819249
0.468115
1.12274
1.56621
1.05242
0.402298
0.254858
0.245315
0.0622148
0.507667
0.304292
0.811414
0.658193
0.181605
0.138081
0.141972
0.127908
0.243495
0.532803
1.25784
1.35312
0.904022
0.702824
1.00006
0.906266
0.395848
0.297073
0.767812
1.32338
1.01085
1.31089
0.755344
0.164006
0.111391
0.0844262
0.622396
4.92774e-05
0.00010572
0.000186699
0.000247234
0.000267075
0.000248143
0.000208252
0.00031907
0.000898162
0.00226634
0.00511337
0.00864508
0.0132412
0.0150415
0.0153378
0.0243564
0.0304628
0.00714182
0.0179345
0.00737725
0.0120154
0.00656693
0.0169625
0.0290753
0.0530825
0.0723444
0.0863053
0.10382
0.134276
0.180753
0.290317
0.619041
0.56469
0.317097
0.105784
0.0492258
0.0608837
0.0561967
0.0972739
0.371857
0.467418
0.115583
0.105489
0.150628
0.0711836
0.0338771
0.0389924
0.20834
0.379068
0.606997
0.359594
0.254404
0.106085
0.315679
0.404976
0.603961
0.19212
1.04494
0.755157
1.19288
0.942606
0.555473
0.736659
1.24343
0.320378
0.232461
0.396142
0.565315
0.7525
0.321846
0.959336
1.45565
0.829618
0.42042
0.188858
0.302454
0.149086
0.305008
0.245066
1.01648
0.567399
0.133844
0.0841878
0.202884
0.160517
0.233546
0.395577
1.0565
1.12813
0.664187
0.588231
0.8708
0.769553
0.235036
0.151659
0.525837
1.137
0.963817
1.34131
0.906967
0.122096
0.138666
0.143997
0.761209
0.000156149
0.000248557
0.000340684
0.000383243
0.000383375
0.000351433
0.000314646
0.000486166
0.00119356
0.00280283
0.00609328
0.00981845
0.0144695
0.0164018
0.0173407
0.0246032
0.0286335
0.010901
0.0160141
0.00627122
0.0112373
0.00697919
0.0174569
0.0286902
0.0488921
0.0654822
0.0779138
0.0962355
0.123347
0.162376
0.272291
0.557817
0.521522
0.279123
0.086483
0.0482686
0.063665
0.0588013
0.100721
0.338375
0.462654
0.16414
0.0942651
0.124268
0.0510357
0.0266515
0.0358892
0.187757
0.322804
0.561645
0.359861
0.207482
0.0839345
0.247983
0.371762
0.492654
0.136755
0.894956
0.650738
1.04279
0.822136
0.482194
0.807535
0.981442
0.278862
0.169506
0.286999
0.432164
0.639591
0.229111
0.817946
1.23921
0.617414
0.406309
0.155631
0.328897
0.29904
0.197557
0.280069
0.884094
0.486116
0.162296
0.152043
0.217522
0.17747
0.204551
0.322234
0.902383
0.95068
0.502084
0.490655
0.772964
0.660165
0.167167
0.109799
0.346288
0.913343
0.851207
1.29512
0.971952
0.119894
0.206825
0.208593
0.771027
0.0011699
0.00149988
0.00149135
0.00139735
0.00128748
0.00116113
0.00128381
0.00187526
0.00334778
0.00646399
0.0123375
0.0165167
0.020995
0.0249975
0.0273689
0.0267891
0.0257705
0.0256015
0.00557519
0.00433322
0.00992781
0.0133398
0.0159103
0.0185502
0.0219403
0.0243922
0.024005
0.0240168
0.0333533
0.0525414
0.130325
0.246481
0.241431
0.100966
0.0394245
0.0423176
0.0693152
0.0647597
0.140312
0.201794
0.280489
0.241336
0.132175
0.12067
0.0457731
0.0285274
0.0345678
0.0829197
0.155179
0.204769
0.157947
0.0627525
0.0331978
0.123117
0.104612
0.0939803
0.182872
0.376737
0.30569
0.363366
0.488896
0.438279
0.416741
0.316571
0.139011
0.118942
0.0930236
0.0968789
0.130068
0.0774957
0.261419
0.41027
0.170075
0.296957
0.106488
0.197088
0.372376
0.188425
0.326694
0.38244
0.201008
0.214712
0.452261
0.289001
0.167696
0.156887
0.237216
0.285602
0.344435
0.230167
0.273676
0.384553
0.332634
0.193919
0.103516
0.189044
0.330793
0.56511
0.888251
0.945157
0.573617
0.535786
0.464855
0.523628
0.00785806
0.00759119
0.00449267
0.00230009
0.00231468
0.00421818
0.00654759
0.008597
0.0104624
0.0122259
0.0138039
0.0150552
0.0155268
0.0124245
0.00782307
0.00532339
0.00437086
0.00429186
0.00229496
0.00193507
0.00206464
0.00191147
0.00159058
0.00185007
0.00357717
0.00479718
0.00360524
0.00223378
0.00251597
0.00376195
0.00985497
0.0444226
0.050759
0.0252853
0.0121463
0.0098458
0.0123171
0.0147743
0.0221271
0.0369223
0.080079
0.0927776
0.0950455
0.0803067
0.0575087
0.0390316
0.0349129
0.0387084
0.0840044
0.13671
0.115313
0.0624813
0.0363098
0.0360758
0.0297464
0.0222672
0.0278588
0.0462992
0.044923
0.0536846
0.103285
0.311641
0.27077
0.185671
0.14897
0.10169
0.113587
0.129391
0.142317
0.114726
0.0910419
0.0914715
0.134788
0.276947
0.206586
0.129344
0.113997
0.206183
0.174827
0.0723952
0.0680826
0.103604
0.24421
0.251626
0.147509
0.0802484
0.12348
0.159429
0.134032
0.117224
0.132391
0.150386
0.137918
0.129266
0.134675
0.158618
0.212334
0.268026
0.492019
0.647329
0.658652
0.63337
0.49525
0.340233
0.00478992
0.00458105
0.00418073
0.00402273
0.00403652
0.00441706
0.00472907
0.00484634
0.00470705
0.00454143
0.00401898
0.00342469
0.00213895
0.000845164
0.000446721
0.00044785
0.000703853
0.000778494
0.000538348
0.000312019
0.000298361
0.000487783
0.000819298
0.000889634
0.000966204
0.00101795
0.000817148
0.000602168
0.000591072
0.000619717
0.000731526
0.00214162
0.00220262
0.00207516
0.00213893
0.0024538
0.00243734
0.00238085
0.00251325
0.0024396
0.00616581
0.00847341
0.00980739
0.0114626
0.0130273
0.0165234
0.0221335
0.0243449
0.0293986
0.0460829
0.0649206
0.0444656
0.0144757
0.00402675
0.00129491
0.000666829
0.00214352
0.00222581
0.00342699
0.00653466
0.011631
0.0457658
0.12327
0.103241
0.0845003
0.0623869
0.0614434
0.0554172
0.0532937
0.0574464
0.0527091
0.0474269
0.0433639
0.0496873
0.0661842
0.0920184
0.122109
0.124954
0.0847894
0.0402956
0.0302859
0.0327588
0.0817625
0.165914
0.133899
0.0936324
0.0726525
0.0781561
0.0764548
0.0776922
0.0887317
0.0959647
0.0909135
0.0763227
0.0713545
0.0826928
0.0982875
0.12374
0.176339
0.233096
0.293178
0.316661
0.264027
0.216875
0.00117963
0.00124205
0.0012765
0.00108328
0.00095904
0.000890607
0.000695468
0.000558469
0.000500875
0.000468347
0.000402378
0.000362351
0.000216092
9.05399e-05
0.000113575
0.000139109
0.000157918
0.000155897
0.000157562
0.000172524
0.000202997
0.000238161
0.000249144
0.000248289
0.000242737
0.000239696
0.000277147
0.000399764
0.000628768
0.000872697
0.00103332
0.00121495
0.00192663
0.00428271
0.0105334
0.02104
0.0224062
0.0214045
0.0210603
0.0218526
0.022187
0.0221907
0.0273259
0.041618
0.0800716
0.142771
0.237139
0.204051
0.145371
0.0961279
0.0829899
0.0843745
0.0823717
0.0750827
0.0651451
0.0543812
0.0440932
0.0479279
0.0627341
0.100857
0.131769
0.134869
0.144637
0.192905
0.214112
0.187823
0.151632
0.118257
0.086171
0.0646286
0.0463634
0.0378492
0.0315433
0.0319064
0.0429589
0.0661792
0.0718073
0.0648682
0.048132
0.0346553
0.0311514
0.0268232
0.029898
0.0559223
0.0548537
0.0502646
0.0450532
0.0368552
0.0383633
0.044846
0.0535979
0.0675499
0.0769409
0.0794576
0.0782955
0.0731522
0.0685998
0.0710074
0.0847905
0.095522
0.0930356
0.086139
0.0780664
0.0692985
0.000211063
0.000269673
0.000284389
0.000279665
0.000289835
0.000307992
0.000324971
0.000341195
0.00034986
0.000348574
0.000342356
0.000332927
0.000327607
0.000339024
0.00036856
0.000400471
0.000438187
0.000505422
0.000662033
0.00102991
0.00168978
0.00237739
0.00273129
0.0025751
0.0027328
0.00345367
0.00560389
0.0101097
0.0176669
0.0274557
0.0358918
0.0469912
0.0708745
0.124456
0.217025
0.329664
0.373714
0.364557
0.365174
0.361656
0.355423
0.345017
0.383224
0.473395
0.624516
0.81539
0.92394
0.751132
0.526752
0.332588
0.199292
0.189853
0.186505
0.177555
0.162422
0.140822
0.134312
0.149908
0.208741
0.366791
0.583226
0.739682
0.865878
0.999698
0.986984
0.884759
0.705023
0.566662
0.491711
0.413296
0.368897
0.337251
0.291795
0.209912
0.116499
0.0825017
0.0712119
0.0580713
0.0431949
0.0416666
0.0471623
0.0437913
0.0379907
0.0377781
0.0390748
0.0516018
0.0836651
0.127285
0.189152
0.264219
0.29434
0.266203
0.222129
0.19525
0.174581
0.146998
0.110225
0.0813955
0.0738395
0.070612
0.066797
0.0634876
0.0603486
0.062783
0.000221861
0.000235462
0.000235417
0.000242296
0.000249293
0.000266204
0.000283931
0.0003074
0.000349334
0.000414525
0.000521774
0.0007128
0.00104274
0.00158594
0.00244134
0.00375161
0.00571051
0.0090086
0.0152023
0.0269467
0.0463359
0.064316
0.0830332
0.0900735
0.102727
0.125651
0.169414
0.236802
0.323651
0.426106
0.491087
0.566698
0.683098
0.842927
1.02706
1.14994
1.13433
1.08918
1.07071
1.04911
0.995533
0.991223
1.067
1.20024
1.30034
1.41301
1.37182
1.20465
0.995127
0.776916
0.528411
0.474625
0.455934
0.410563
0.336434
0.304893
0.326636
0.444604
0.724883
1.19174
1.47048
1.51473
1.53426
1.50579
1.42179
1.32138
1.21041
1.18768
1.17977
1.16071
1.13121
1.07842
0.95315
0.746425
0.499681
0.31161
0.229952
0.166044
0.148899
0.154366
0.172177
0.193537
0.198462
0.214314
0.26116
0.376444
0.554825
0.752814
0.898514
0.979882
0.97459
0.927823
0.834939
0.712777
0.575271
0.435708
0.294495
0.202322
0.151945
0.132195
0.134344
0.144774
0.168793
0.215026
0.000725102
0.000946476
0.00126757
0.00180395
0.00266071
0.00391785
0.00563903
0.0079063
0.010938
0.0151531
0.0212107
0.0303905
0.043657
0.0619071
0.0871991
0.121545
0.166294
0.226485
0.30874
0.417496
0.548011
0.66016
0.716603
0.733942
0.765207
0.819088
0.904605
1.01934
1.14472
1.22962
1.24581
1.27094
1.32436
1.40175
1.46503
1.4749
1.44818
1.4174
1.4017
1.38492
1.34388
1.34745
1.37768
1.42034
1.41898
1.45032
1.3924
1.28156
1.1766
1.06726
0.945894
0.863082
0.818936
0.743817
0.678868
0.707505
0.883565
1.28168
1.63186
1.71789
1.68464
1.60509
1.51912
1.45797
1.42966
1.42362
1.43768
1.47502
1.52987
1.5508
1.54264
1.49812
1.40001
1.24325
1.03338
0.788085
0.634389
0.536374
0.527731
0.541092
0.584554
0.666373
0.743245
0.832806
0.955688
1.12369
1.30389
1.39323
1.44148
1.44427
1.42075
1.36023
1.26561
1.13728
0.983794
0.812463
0.627472
0.487427
0.368596
0.338723
0.350631
0.389406
0.456337
0.557975
0.029188
0.0393831
0.0527967
0.0724595
0.100544
0.135991
0.176156
0.218895
0.264036
0.313316
0.369462
0.437035
0.51563
0.604087
0.697719
0.793317
0.886188
0.980293
1.0771
1.18138
1.25608
1.29008
1.287
1.28277
1.29462
1.32671
1.37891
1.43242
1.43136
1.41267
1.37688
1.34298
1.33468
1.33284
1.31789
1.28821
1.24393
1.21299
1.18411
1.16392
1.13008
1.13412
1.14036
1.14641
1.14039
1.15614
1.12328
1.08129
1.05021
1.00691
0.950634
0.949065
0.961524
0.983951
1.03916
1.16258
1.36045
1.49135
1.53936
1.51426
1.43729
1.33808
1.25799
1.22518
1.22292
1.24461
1.293
1.35572
1.41803
1.46781
1.49363
1.48925
1.45908
1.40427
1.31853
1.21927
1.10227
1.05221
1.06321
1.11904
1.22353
1.35518
1.42781
1.48571
1.54708
1.61025
1.66971
1.69248
1.68927
1.6667
1.61388
1.54751
1.46809
1.36319
1.2362
1.09823
0.96983
0.843986
0.733526
0.708012
0.725582
0.776537
0.851342
0.945094
0.380249
0.451248
0.530996
0.619067
0.709889
0.779421
0.829426
0.875939
0.924184
0.976475
1.03313
1.09554
1.15031
1.19346
1.23813
1.28682
1.31388
1.32095
1.32159
1.31664
1.30036
1.27427
1.23932
1.20646
1.17196
1.15618
1.14037
1.12
1.09803
1.07275
1.04558
1.02265
1.00973
1.00293
0.991856
0.975686
0.956405
0.949137
0.9413
0.935511
0.923248
0.929067
0.931505
0.931534
0.927485
0.931596
0.911912
0.889328
0.883575
0.873069