/*--------------------------------*- C++ -*----------------------------------*\
| =========                 |                                                 |
| \\      /  F ield         | OpenFOAM: The Open Source CFD Toolbox           |
|  \\    /   O peration     | Version:  v1912                                 |
|   \\  /    A nd           | Website:  www.openfoam.com                      |
|    \\/     M anipulation  |                                                 |
\*---------------------------------------------------------------------------*/
FoamFile
{
    version     2.0;
    format      ascii;
    class       volScalarField;
    location    "50";
    object      alpha.water;
}
// * * * * * * * * * * * * * * * * * * * * * * * * * * * * * * * * * * * * * //

dimensions      [0 0 0 0 0 0 0];


internalField   nonuniform List<scalar> 
14268
(
1
1
1
1
1
1
1
1
1
1
1
1
1
1
1
1
1
1
1
1
1
1
1
1
1
1
1
1
1
1
1
1
1
1
1
1
1
1
1
1
1
1
1
1
1
1
1
1
1
1
1
1
1
1
1
1
1
1
1
1
1
1
1
1
1
1
1
1
1
1
1
1
1
1
1
1
1
1
1
1
1
1
1
1
1
1
1
1
1
1
1
1
1
1
1
1
1
1
1
1
1
1
1
1
1
1
1
1
1
1
1
1
1
1
1
1
1
1
1
1
1
1
1
1
1
1
1
1
1
1
1
1
1
1
1
1
1
1
1
1
1
1
1
1
1
1
1
1
1
1
1
1
1
1
1
1
1
1
1
1
1
1
1
1
1
1
1
1
1
1
1
1
1
1
1
1
1
1
1
1
1
1
1
1
1
1
1
1
1
1
1
1
1
1
1
1
1
1
1
1
1
1
1
1
1
1
1
1
1
1
1
1
1
1
1
1
1
1
1
1
1
1
1
1
1
1
1
1
1
1
1
1
1
1
1
1
1
1
1
1
1
1
1
1
1
1
1
1
1
1
1
1
1
1
1
1
1
1
1
1
1
1
1
1
1
1
1
1
1
1
1
1
1
1
1
1
1
1
1
1
1
1
1
1
1
1
1
1
1
1
1
1
1
1
1
1
1
1
1
1
1
1
1
1
1
1
1
1
1
1
1
1
1
1
1
1
1
1
1
1
1
1
1
1
1
1
1
1
1
1
1
1
1
1
1
1
1
1
1
1
1
1
1
1
1
1
1
1
1
1
1
1
1
1
1
1
1
1
1
1
1
1
1
1
1
1
1
1
1
1
1
1
1
1
1
1
1
1
1
1
1
1
1
1
1
1
1
1
1
1
1
1
1
1
1
1
1
1
1
1
1
1
1
1
1
1
1
1
1
1
1
1
1
1
1
1
1
1
1
1
1
1
1
1
1
1
1
1
1
1
1
1
1
1
1
1
1
1
1
1
1
1
1
1
1
1
1
1
1
1
1
1
1
1
1
1
1
1
1
1
1
1
1
1
1
1
1
1
1
1
1
1
1
1
1
1
1
1
1
1
1
1
1
1
1
1
1
1
1
1
1
1
1
1
1
1
1
1
1
1
1
1
1
1
1
1
1
1
1
1
1
1
1
1
1
1
1
1
1
1
1
1
1
1
1
1
1
1
1
1
1
1
1
1
1
1
1
1
1
1
1
1
1
1
1
1
1
1
1
1
1
1
1
1
1
1
1
1
1
1
1
1
1
1
1
1
1
1
1
1
1
1
1
1
1
1
1
1
1
1
1
1
1
1
1
1
1
1
1
1
1
1
1
1
1
1
1
1
1
1
1
1
1
1
1
1
1
1
1
1
1
1
1
1
1
1
1
1
1
1
1
1
1
1
1
1
1
1
1
1
1
1
1
1
1
1
1
1
1
1
1
1
1
1
1
1
1
1
1
1
1
1
1
1
1
1
1
1
1
1
1
1
1
1
1
1
1
1
1
1
1
1
1
1
1
1
1
1
1
1
1
1
1
1
1
1
1
1
1
1
1
1
1
1
1
1
1
1
1
1
1
1
1
1
1
1
1
1
1
1
1
1
1
1
1
1
1
1
1
1
1
1
1
1
1
1
1
1
1
1
1
1
1
1
1
1
1
1
1
1
1
1
1
1
1
1
1
1
1
1
1
1
1
1
1
1
1
1
1
1
1
1
1
1
1
1
1
1
1
1
1
1
1
1
1
1
1
1
1
1
1
1
1
1
1
1
1
1
1
1
1
1
1
1
1
1
1
1
1
1
1
1
1
1
1
1
1
1
1
1
1
1
1
1
1
1
1
1
1
1
1
1
1
1
1
1
1
1
1
1
1
1
1
1
1
1
1
1
1
1
1
1
1
1
1
1
1
1
1
1
1
1
1
1
1
1
1
1
1
1
1
1
1
1
1
1
1
1
1
1
1
1
1
1
1
1
1
1
1
1
1
1
1
1
1
1
1
1
1
1
1
1
1
1
1
1
1
1
1
1
1
1
1
1
1
1
1
1
1
1
1
1
1
1
1
1
1
1
1
1
1
1
1
1
1
1
1
1
1
1
1
1
1
1
1
1
1
1
1
1
1
1
1
1
1
1
1
1
1
1
1
1
1
1
1
1
1
1
1
1
1
1
1
1
1
1
1
1
1
1
1
1
1
1
1
1
1
1
1
1
1
1
1
1
1
1
1
1
1
1
1
1
1
1
1
1
1
1
1
1
1
1
1
1
1
1
1
1
1
1
1
1
1
1
1
1
1
1
1
1
1
1
1
1
1
1
1
1
1
1
1
1
1
1
1
1
1
1
1
1
1
1
1
1
1
1
1
1
1
1
1
1
1
1
1
1
1
1
1
1
1
1
1
1
1
1
1
1
1
1
1
1
1
1
1
1
1
1
1
1
1
1
1
1
1
1
1
1
1
1
1
1
1
1
1
1
1
1
1
1
1
1
1
1
1
1
1
1
1
1
1
1
1
1
1
1
1
1
1
1
1
1
1
1
1
1
1
1
1
1
1
1
1
1
1
1
1
1
1
1
1
1
1
1
1
1
1
1
1
1
1
1
1
1
1
1
1
1
1
1
1
1
1
1
1
1
1
1
1
1
1
1
1
1
1
1
1
1
1
1
1
1
1
1
1
1
1
1
1
1
1
1
1
1
1
1
1
1
1
1
1
1
1
1
1
1
1
1
1
1
1
1
1
1
1
1
1
1
1
1
1
1
1
1
1
1
1
1
1
1
1
1
1
1
1
1
1
1
1
1
1
1
1
1
1
1
1
1
1
1
1
1
1
1
1
1
1
1
1
1
1
1
1
1
1
1
1
1
1
1
1
1
1
1
1
1
1
1
1
1
1
1
1
1
1
1
1
1
1
1
1
1
1
1
1
1
1
1
1
1
1
1
1
1
1
1
1
1
1
1
1
1
1
1
1
1
1
1
1
1
1
1
1
1
1
1
1
1
1
1
1
1
1
1
1
1
1
1
1
1
1
1
1
1
1
1
1
1
1
1
1
1
1
1
1
1
1
1
1
1
1
1
1
1
1
1
1
1
1
1
1
1
1
1
1
1
1
1
1
1
1
1
1
1
1
1
1
1
1
1
1
1
1
1
1
1
1
1
1
1
1
1
1
1
1
1
1
1
1
1
1
1
1
1
1
1
1
1
1
1
1
1
1
1
1
1
1
1
1
1
1
1
1
1
1
1
1
1
1
1
1
1
1
1
1
1
1
1
1
1
1
1
1
1
1
1
1
1
1
1
1
1
1
1
1
1
1
1
1
1
1
1
1
1
1
1
1
1
1
1
1
1
1
1
1
1
1
1
1
1
1
1
1
1
1
1
1
1
1
1
1
1
1
1
1
1
1
1
1
1
1
1
1
1
1
1
1
1
1
1
1
1
1
1
1
1
1
1
1
1
1
1
1
1
1
1
1
1
1
1
1
1
1
1
1
1
1
1
1
1
1
1
1
1
1
1
1
1
1
1
1
1
1
1
1
1
1
1
1
1
1
1
1
1
1
1
1
1
1
1
1
1
1
1
1
1
1
1
1
1
1
1
1
1
1
1
1
1
1
1
1
1
1
1
1
1
1
1
1
1
1
1
1
1
1
1
1
1
1
1
1
1
1
1
1
1
1
1
1
1
1
1
1
1
1
1
1
1
1
1
1
1
1
1
1
1
1
1
1
1
1
1
1
1
1
1
1
1
1
1
1
1
1
1
1
1
1
1
1
1
1
1
1
1
1
1
1
1
1
1
1
1
1
1
1
1
1
1
1
1
1
1
1
1
1
1
1
1
1
1
1
1
1
1
1
1
1
1
1
1
1
1
1
1
1
1
1
1
1
1
1
1
1
1
1
1
1
1
1
1
1
1
1
1
1
1
1
1
1
1
1
1
1
1
1
1
1
1
1
1
1
1
1
1
1
1
1
1
1
1
1
1
1
1
1
1
1
1
1
1
1
1
1
1
1
1
1
1
1
1
1
1
1
1
1
1
1
1
1
1
1
1
1
1
1
1
1
1
1
1
1
1
1
1
1
1
1
1
1
1
1
1
1
1
1
1
1
1
1
1
1
1
1
1
1
1
1
1
1
1
1
1
1
1
1
1
1
1
1
1
1
1
1
1
1
1
1
1
1
1
1
1
1
1
1
1
1
1
1
1
1
1
1
1
1
1
1
1
1
1
1
1
1
1
1
1
1
1
1
1
1
1
1
1
1
1
1
1
1
1
1
1
1
1
1
1
1
1
1
1
1
1
1
1
1
1
1
1
1
1
1
1
1
1
1
1
1
1
1
1
1
1
1
1
1
1
1
1
1
1
1
1
1
1
1
1
1
1
1
1
1
1
1
1
1
1
1
1
1
1
1
1
1
1
1
1
1
1
1
1
1
1
1
1
1
1
1
1
1
1
1
1
1
1
1
1
1
1
1
1
1
1
1
1
1
1
1
1
1
1
1
1
1
1
1
1
1
1
1
1
1
1
1
1
1
1
1
1
1
1
1
1
1
1
1
1
1
1
1
1
1
1
1
1
1
1
1
1
1
1
1
1
1
1
1
1
1
1
1
1
1
1
1
1
1
1
1
1
1
1
1
1
1
1
1
1
1
1
1
1
1
1
1
1
1
1
1
1
1
1
1
1
1
1
1
1
1
1
1
1
1
1
1
1
1
1
1
1
1
1
1
1
1
1
1
1
1
1
1
1
1
1
1
1
1
1
1
1
1
1
1
1
1
1
1
1
1
1
1
1
1
1
1
1
1
1
1
1
1
1
1
1
1
1
1
1
1
1
1
1
1
1
1
1
1
1
1
1
1
1
1
1
1
1
1
1
1
1
1
1
1
1
1
1
1
1
1
1
1
1
1
1
1
1
1
1
1
1
1
1
1
1
1
1
1
1
1
1
1
1
1
1
1
1
1
1
1
1
1
1
1
1
1
1
1
1
1
1
1
1
1
1
1
1
1
1
1
1
1
1
1
1
1
1
1
1
1
1
1
1
1
1
1
1
1
1
1
1
1
1
1
1
1
1
1
1
1
1
1
1
1
1
1
1
1
1
1
1
1
1
1
1
1
1
1
1
1
1
1
1
1
1
1
1
1
1
1
1
1
1
1
1
1
1
1
1
1
1
1
1
1
1
1
1
1
1
1
1
1
1
1
1
1
1
1
1
1
1
1
1
1
1
1
1
1
1
1
1
1
1
1
1
1
1
1
1
1
1
1
1
1
1
1
1
1
1
1
1
1
1
1
1
1
1
1
1
1
1
1
1
1
1
1
1
1
1
1
1
1
1
1
1
1
1
1
1
1
1
1
1
1
1
1
1
1
1
1
1
1
1
1
1
1
1
1
1
1
1
1
1
1
1
1
1
1
1
1
1
1
1
1
1
1
1
1
1
1
1
1
1
1
1
1
1
1
1
1
1
1
1
1
1
1
1
1
1
1
1
1
1
1
1
1
1
1
1
1
1
1
1
1
1
1
1
1
1
1
1
1
1
1
1
1
1
1
1
1
1
1
1
1
1
1
1
1
1
1
1
1
1
1
1
1
1
1
1
1
1
1
1
1
1
1
1
1
1
1
1
1
1
1
1
1
1
1
1
1
1
1
1
1
1
1
1
1
1
1
1
1
1
1
1
1
1
1
1
1
1
1
1
1
1
1
1
1
1
1
1
1
1
1
1
1
1
1
1
1
1
1
1
1
1
1
1
1
1
1
1
1
1
1
1
1
1
1
1
1
1
1
1
1
1
1
1
1
1
1
1
1
1
1
1
1
1
1
1
1
1
1
1
1
1
1
1
1
1
1
1
1
1
1
1
1
1
1
1
1
1
1
1
1
1
1
1
1
1
1
1
1
1
1
1
1
1
1
1
1
1
1
1
1
1
1
1
1
1
1
1
1
1
1
1
1
1
1
1
1
1
1
1
1
1
1
1
1
1
1
1
1
1
1
1
1
1
1
1
1
1
1
1
1
1
1
1
1
1
1
1
1
1
1
1
1
1
1
1
1
1
1
1
1
1
1
1
1
1
1
1
1
1
1
1
1
1
1
1
1
1
1
1
1
1
1
1
1
1
1
1
1
1
1
1
1
1
1
1
1
1
1
1
1
1
1
1
1
1
1
1
1
1
1
1
1
1
1
1
1
1
1
1
1
1
1
1
1
1
1
1
1
1
1
1
1
1
1
1
1
1
1
1
1
1
1
1
1
1
1
1
1
1
1
1
1
1
1
1
1
1
1
1
1
1
1
1
1
1
1
1
1
1
1
1
1
1
1
1
1
1
1
1
1
1
1
1
1
1
1
1
1
1
1
1
1
1
1
1
1
1
1
1
1
1
1
1
1
1
1
1
1
1
1
1
1
1
1
1
1
1
1
1
1
1
1
1
1
1
1
1
1
1
1
1
1
1
1
1
1
1
1
1
1
1
1
1
1
1
1
1
1
1
1
1
1
1
1
1
1
1
1
1
1
1
1
1
1
1
1
1
1
1
1
1
1
1
1
1
1
1
1
1
1
1
1
1
1
1
1
1
1
1
1
1
1
1
1
1
1
1
1
1
1
1
1
1
1
1
1
1
1
1
1
1
1
1
1
1
1
1
1
1
1
1
1
1
1
1
1
1
1
1
1
1
1
1
1
1
1
1
1
1
1
1
1
1
1
1
1
1
1
1
1
1
1
1
1
1
1
1
1
1
1
1
1
1
1
1
1
1
1
1
1
1
1
1
1
1
1
1
1
1
1
1
1
1
1
1
1
1
1
1
1
1
1
1
1
1
1
1
1
1
1
1
1
1
1
1
1
1
1
1
1
1
1
1
1
1
1
1
1
1
1
1
1
1
1
1
1
1
1
1
1
1
1
1
1
1
1
1
1
1
1
1
1
1
1
1
1
1
1
1
1
1
1
1
1
1
1
1
1
1
1
1
1
1
1
1
1
1
1
1
1
1
1
1
1
1
1
1
1
1
1
1
1
1
1
1
1
1
1
1
1
1
1
1
1
1
1
1
1
1
1
1
1
1
1
1
1
1
1
1
1
1
1
1
1
1
1
1
1
1
1
1
1
1
1
1
1
1
1
1
1
1
1
1
1
1
1
1
1
1
1
1
1
1
1
1
1
1
1
1
1
1
1
1
1
1
1
1
1
1
1
1
1
1
1
1
1
1
1
1
1
1
1
1
1
1
1
1
1
1
1
1
1
1
1
1
1
1
1
1
1
1
1
1
1
1
1
1
1
1
1
1
1
1
1
1
1
1
1
1
1
1
1
1
1
1
1
1
1
1
1
1
1
1
1
1
1
1
1
1
1
1
1
1
1
1
1
1
1
1
1
1
1
1
1
1
1
1
1
1
1
1
1
1
1
1
1
1
1
1
1
1
1
1
1
1
1
1
1
1
1
1
1
1
1
1
1
1
1
1
1
1
1
1
1
1
1
1
1
1
1
1
1
1
1
1
1
1
1
1
1
1
1
1
1
1
1
1
1
1
1
1
1
1
1
1
1
1
1
1
1
1
1
1
1
1
1
1
1
1
1
1
1
1
1
1
1
1
1
1
1
1
1
1
1
1
1
1
1
1
1
1
1
1
1
1
1
1
1
1
1
1
1
1
1
1
1
1
1
1
1
1
1
1
1
1
1
1
1
1
1
1
1
1
1
1
1
1
1
1
1
1
1
1
1
1
1
1
1
1
1
1
1
1
1
1
1
1
1
1
1
1
1
1
1
1
1
1
1
1
1
1
1
1
1
1
1
1
1
1
1
1
1
1
1
1
1
1
1
1
1
1
1
1
1
1
1
1
1
1
1
1
1
1
1
1
1
1
1
1
1
1
1
1
1
1
1
1
1
1
1
1
1
1
1
1
1
1
1
1
1
1
1
1
1
1
1
1
1
1
1
1
1
1
1
1
1
1
1
1
1
1
1
1
1
1
1
1
1
1
1
1
1
1
1
1
1
1
1
1
1
1
1
1
1
1
1
1
1
1
1
1
1
1
1
1
1
1
1
1
1
1
1
1
1
1
1
1
1
1
1
1
1
1
1
1
1
1
1
1
1
1
1
1
1
1
1
1
1
1
1
1
1
1
1
1
1
1
1
1
1
1
1
1
1
1
1
1
1
1
1
1
1
1
1
1
1
1
1
1
1
1
1
1
1
1
1
1
1
1
1
1
1
1
1
1
1
1
1
1
1
1
1
1
1
1
1
1
1
1
1
1
1
1
1
1
1
1
1
1
1
1
1
1
1
1
1
1
1
1
1
1
1
1
1
1
1
1
1
1
1
1
1
1
1
1
1
1
1
1
1
1
1
1
1
1
1
1
1
1
1
1
1
1
1
1
1
1
1
1
1
1
1
1
1
1
1
1
1
1
1
1
1
1
1
1
1
1
1
1
1
1
1
1
1
1
1
1
1
1
1
1
1
1
1
1
1
1
1
1
1
1
1
1
1
1
1
1
1
1
1
1
1
1
1
1
1
1
1
1
1
1
1
1
1
1
1
1
1
1
1
1
1
1
1
1
1
1
1
1
1
1
1
1
1
1
1
1
1
1
1
1
1
1
1
1
1
1
1
1
1
1
1
1
1
1
1
1
1
1
1
1
1
1
1
1
1
1
1
1
1
1
1
1
1
1
1
1
1
1
1
1
1
1
1
1
1
1
1
1
1
1
1
1
1
1
1
1
1
1
1
1
1
1
1
1
1
1
1
1
1
1
1
1
1
1
1
1
1
1
1
1
1
1
1
1
1
1
1
1
1
1
1
1
1
1
1
1
1
1
1
1
1
1
1
1
1
1
1
1
1
1
1
1
1
1
1
1
1
1
1
1
1
1
1
1
1
1
1
1
1
1
1
1
1
1
1
1
1
1
1
1
1
1
1
1
1
1
1
1
1
1
1
1
1
1
1
1
1
1
1
1
1
1
1
1
1
1
1
1
1
1
1
1
1
1
1
1
1
1
1
1
1
1
1
1
1
1
1
1
1
1
1
1
1
1
1
1
1
1
1
1
1
1
1
1
1
1
1
1
1
1
1
1
1
1
1
1
1
1
1
1
1
1
1
1
1
1
1
1
1
1
1
1
1
1
1
1
1
1
1
1
1
1
1
1
1
1
1
1
1
1
1
1
1
1
1
1
1
1
1
1
1
1
1
1
1
1
1
1
1
1
1
1
1
1
1
1
1
1
1
1
1
1
1
1
1
1
1
1
1
1
1
1
1
1
1
1
1
1
1
1
1
1
1
1
1
1
1
1
1
1
1
1
1
1
1
1
1
1
1
1
1
1
1
1
1
1
1
0.999939
0.881223
0.664197
0.857875
0.999312
1
1
1
1
1
1
1
1
1
1
1
1
1
1
1
1
1
1
1
1
1
1
1
1
1
1
1
1
1
1
1
1
1
1
1
1
1
1
1
1
1
1
1
1
1
1
1
1
1
1
1
1
1
1
1
1
1
1
1
1
1
1
1
1
1
1
1
1
1
1
1
1
1
1
1
1
1
1
1
1
1
1
1
1
1
1
1
1
1
1
1
1
1
1
1
1
1
1
1
1
1
1
1
1
1
1
1
1
1
1
1
1
1
1
1
1
1
1
1
1
1
1
1
1
1
1
1
1
1
1
1
1
1
1
1
1
1
1
1
1
1
1
1
1
1
1
1
1
1
1
1
1
1
1
1
1
1
1
0.999849
0.653875
0.0277076
0.000277499
0.0115933
0.55545
0.998925
1
1
1
1
1
1
1
1
1
1
1
1
1
1
1
1
1
1
1
1
1
1
1
1
1
1
1
1
1
1
1
1
1
1
1
1
1
1
1
1
1
1
1
1
1
1
1
1
1
1
1
1
1
1
1
1
1
1
1
1
1
1
1
1
1
1
1
1
1
1
1
1
1
1
1
1
1
1
1
1
1
1
1
1
1
1
1
1
1
1
1
1
1
1
1
1
1
1
1
1
1
1
1
1
1
1
1
1
1
1
1
1
1
1
1
1
1
1
1
1
1
1
1
1
1
1
1
1
1
1
1
1
1
1
1
1
1
1
1
1
1
1
1
1
1
1
1
1
1
1
1
1
1
1
1
1
0.999967
0.73177
0.0135103
3.35263e-20
4.35287e-22
1.29826e-21
0.000941859
0.564981
0.999823
1
1
1
1
1
1
1
1
1
1
1
1
1
1
1
1
1
1
1
1
1
1
1
1
1
1
1
1
1
1
1
1
1
1
1
1
1
1
1
1
1
1
1
1
1
1
1
1
1
1
1
1
1
1
1
1
1
1
1
1
1
1
1
1
1
1
1
1
1
1
1
1
1
1
1
1
1
1
1
1
1
1
1
1
1
1
1
1
1
1
1
1
1
1
1
1
1
1
1
1
1
1
1
1
1
1
1
1
1
1
1
1
1
1
1
1
1
1
1
1
1
1
1
1
1
1
1
1
1
1
1
1
1
1
1
1
1
1
1
1
1
1
1
1
1
1
1
1
1
1
1
1
1
1
1
0.921622
0.0916656
9.08447e-40
-9.95209e-55
1.50942e-52
-7.49609e-51
-2.83446e-32
0.0135002
0.744596
1
1
1
1
1
1
1
1
1
1
1
1
1
1
1
1
1
1
1
1
1
1
1
1
1
1
1
1
1
1
1
1
1
1
1
1
1
1
1
1
1
1
1
1
1
1
1
1
1
1
1
1
1
1
1
1
1
1
1
1
1
1
1
1
1
1
1
1
1
1
1
1
1
1
1
1
1
1
1
1
1
1
1
1
1
1
1
1
1
1
1
1
1
1
1
1
1
1
1
1
1
1
1
1
1
1
1
1
1
1
1
1
1
1
1
1
1
1
1
1
1
1
1
1
1
1
1
1
1
1
1
1
1
1
1
1
1
1
1
1
1
1
1
1
1
1
1
1
1
1
1
1
1
1
0.999675
0.369376
1.6575e-19
7.15477e-37
-1.62243e-57
8.59351e-72
-2.82345e-52
1.4975e-48
6.2452e-16
0.102276
0.920166
1
1
1
1
1
1
1
1
1
1
1
1
1
1
1
1
1
1
1
1
1
1
1
1
1
1
1
1
1
1
1
1
1
1
0.999824
0.869757
0.57385
0.624283
0.924176
0.998743
1
1
1
1
1
1
1
1
1
1
1
1
1
1
1
1
1
1
1
1
1
1
1
1
1
1
1
1
1
1
1
1
1
1
1
1
1
0.999844
0.964676
0.795102
0.787634
0.938457
0.985652
1
1
1
1
1
1
1
1
1
1
1
1
1
1
1
1
1
1
1
1
1
1
1
1
1
1
1
1
1
1
1
1
1
1
1
1
1
1
1
1
1
1
1
1
1
1
1
1
1
1
1
1
1
1
1
1
1
1
1
1
1
1
1
1
1
1
1
1
1
0.999998
0.755854
0.00323936
-7.15565e-39
2.13693e-39
1.44526e-42
-3.73257e-56
-4.52564e-54
-5.17721e-54
6.53216e-53
2.94418e-05
0.305498
0.996185
1
1
1
1
1
1
1
1
1
1
1
1
1
1
1
1
1
1
1
1
1
1
1
1
1
1
1
1
1
1
1
1
0.999636
0.693865
0.044936
0.00511541
0.0025961
0.0506493
0.527811
0.969131
0.998691
1
1
1
0.999306
0.996152
0.992787
0.997304
1
1
1
1
1
1
1
1
1
1
1
1
1
1
1
1
1
1
1
1
1
1
1
1
1
1
0.999999
0.994994
0.671212
0.134743
0.0199475
0.00137404
0.0701418
0.446321
0.88094
0.990365
1
1
1
1
1
1
1
1
1
1
1
1
1
1
1
1
1
1
1
1
1
1
1
1
1
1
1
1
1
1
1
1
1
1
1
1
1
1
1
1
1
1
1
1
1
1
1
1
1
1
1
1
1
1
1
1
1
1
1
1
1
1
1
1
1
1
1
0.982647
0.17475
7.03677e-20
1.55761e-25
9.33325e-42
-6.82386e-84
-1.55647e-57
-4.05262e-56
-9.50355e-51
-4.7188e-52
-2.66109e-54
0.000350057
0.559658
0.999817
1
1
1
1
1
1
1
1
1
1
1
1
1
1
1
1
1
1
1
1
1
1
1
1
1
1
1
1
1
1
0.999992
0.807066
0.037401
-1.09026e-20
-2.27001e-23
-3.43162e-26
-1.23324e-28
6.27758e-06
0.139817
0.594617
0.902283
0.990796
0.881831
0.663942
0.461002
0.411142
0.638192
0.965817
1
1
1
1
1
1
1
1
1
1
1
1
1
1
1
1
1
1
1
1
1
1
1
1
0.999999
0.992847
0.534325
0.0327598
8.79355e-16
4.51334e-13
1.21725e-09
7.18094e-07
0.000709807
0.0910398
0.578863
0.946702
1
1
1
1
1
1
1
1
1
1
1
1
1
1
1
1
1
1
1
1
1
1
1
1
1
1
1
1
1
1
1
1
1
1
1
1
1
1
1
0.999999
0.999991
1
1
1
1
1
1
1
1
1
1
1
1
1
1
1
1
1
1
1
1
1
1
1
1
0.999931
0.549876
5.45608e-05
3.47603e-31
7.35426e-28
3.48154e-31
-2.16016e-54
-2.15285e-55
-1.13574e-56
-1.4585e-47
-1.37395e-49
-4.61684e-52
4.1174e-23
0.0212027
0.736388
1
1
1
1
1
1
1
1
1
1
1
1
1
1
1
1
1
1
1
1
1
1
1
1
1
1
1
1
1
1
0.973859
0.168684
-2.12622e-20
-4.60174e-23
-2.23798e-25
-6.19003e-28
-3.67244e-30
2.70433e-32
6.86763e-20
1.3259e-07
0.000511838
0.00283997
6.66571e-08
-1.85475e-27
1.84631e-17
4.85643e-11
0.00069973
0.264435
0.936301
1
1
1
1
1
1
1
1
1
1
1
1
1
1
1
1
1
1
1
1
1
1
1
0.996447
0.563537
0.0211358
3.38703e-19
5.30711e-22
1.83515e-18
2.48281e-14
6.58659e-11
2.90626e-08
1.33298e-05
0.00759085
0.248281
0.76634
0.967756
1
1
1
1
1
1
1
1
1
1
1
1
1
1
1
1
1
1
1
1
1
1
1
1
1
1
1
1
1
1
1
1
1
1
1
0.999999
0.999995
0.999977
0.999849
1
1
1
1
1
1
1
1
1
1
1
1
1
1
1
1
1
1
1
1
1
1
1
1
0.866856
0.0446037
1.5822e-23
1.87997e-34
1.1384e-46
-3.42102e-33
-9.04272e-36
-1.37973e-38
-1.63859e-41
-2.09127e-44
-3.30767e-47
-5.26217e-50
8.32448e-35
4.14272e-23
0.0570524
0.762557
0.99826
1
1
1
1
1
1
1
1
1
1
1
1
1
1
1
1
1
1
1
1
1
1
1
1
1
1
1
0.999667
0.559843
0.000547372
-1.63225e-23
-4.59288e-25
-1.89274e-27
-1.37946e-29
-6.93324e-32
-2.44577e-34
-6.82422e-37
-1.4919e-39
-2.77879e-42
-5.03293e-45
-7.61962e-48
-1.04739e-50
4.76967e-29
9.48113e-21
3.88102e-12
0.000836031
0.309394
0.988313
1
1
1
1
1
1
1
1
1
1
1
1
1
1
1
1
1
1
1
1
1
0.998857
0.667855
0.0291889
6.3861e-21
1.00991e-36
1.00044e-25
1.88025e-22
3.06906e-19
1.32449e-15
3.89222e-12
1.56575e-09
5.81685e-07
0.000214002
0.0377767
0.42123
0.869142
0.987353
1
1
1
1
1
1
1
1
1
1
1
1
1
1
1
1
1
1
1
1
1
1
1
1
1
1
1
1
1
1
0.999999
0.999997
0.999991
0.999975
0.999915
0.999612
0.997555
1
1
1
1
1
1
1
1
1
1
1
1
1
1
1
1
1
1
1
1
1
1
1
0.98075
0.226082
1.71068e-20
-2.27416e-39
-3.51545e-27
-2.03642e-30
-3.84805e-33
-6.02357e-36
-6.51068e-39
-6.20555e-42
-6.62871e-45
-8.21717e-48
-1.01409e-50
5.91573e-51
6.47767e-37
4.04288e-21
0.0337229
0.547305
0.977724
0.997713
0.999483
1
1
1
1
1
1
1
1
1
1
1
1
1
1
1
1
1
1
1
1
1
1
1
1
0.93689
0.0672971
-3.81239e-21
-3.82215e-40
-1.15412e-26
-6.07109e-29
-3.60516e-31
-1.56779e-33
-5.22683e-36
-1.48751e-38
-3.66682e-41
-8.52177e-44
-2.07107e-46
-4.37878e-49
-8.81412e-52
1.4696e-38
3.35145e-28
3.17144e-19
3.72948e-10
0.0029816
0.596748
1
1
1
1
1
1
1
1
1
1
1
1
1
1
1
1
1
1
1
1
0.999753
0.765499
0.0579152
-8.99645e-21
-1.46388e-39
-6.66502e-26
1.22797e-44
3.64109e-26
3.8146e-23
3.37152e-20
5.81082e-17
1.5354e-13
1.10006e-10
2.646e-08
6.43941e-06
0.00158101
0.107964
0.588147
0.938606
1
1
1
1
1
1
1
1
1
1
1
1
1
1
1
1
1
1
1
1
1
1
1
1
1
1
0.999999
0.999995
0.999986
0.999965
0.999917
0.999794
0.999438
0.998219
0.991921
0.940692
1
1
1
1
1
1
1
1
1
1
1
1
1
1
1
1
1
1
1
1
1
1
0.995718
0.378962
6.06177e-05
6.70667e-23
-1.55083e-27
-8.91171e-30
-3.02546e-32
-6.13223e-35
-7.60747e-38
-7.26898e-41
-7.00655e-44
-7.84718e-47
-9.82359e-50
-1.16809e-52
-1.20727e-55
4.17462e-54
-1.30204e-73
-5.49864e-33
1.36607e-06
0.109591
0.430598
0.668097
0.878615
0.994084
0.997816
1
1
1
1
1
1
1
1
1
1
1
1
1
1
1
1
1
1
1
1
0.999992
0.495326
0.000615254
-1.69874e-23
-1.10085e-25
-5.30232e-28
-2.91519e-30
-1.43424e-32
-5.5009e-35
-1.70145e-37
-4.59123e-40
-1.10372e-42
-2.50091e-45
-5.79673e-48
-1.25437e-50
-3.45992e-53
9.17755e-50
2.74536e-35
1.71083e-25
3.2335e-16
6.44746e-07
0.0655837
0.917406
1
1
1
1
1
1
1
1
1
1
1
1
1
1
1
1
1
1
0.999889
0.798274
0.0915076
2.16696e-17
6.53578e-29
-2.74659e-25
-6.64125e-27
-7.02206e-29
4.11272e-30
8.62791e-27
6.2342e-24
3.66599e-21
2.50043e-18
5.33914e-15
5.78417e-12
1.54688e-09
3.03039e-07
5.62984e-05
0.010817
0.311527
0.856713
0.999943
1
1
1
1
1
1
1
1
1
1
1
1
1
1
1
1
1
0.999999
0.999995
0.999974
0.999906
0.999735
0.999395
0.998832
0.998016
0.99692
0.995465
0.993492
0.990514
0.98487
0.970405
0.922513
0.736144
0.373347
1
1
1
1
1
1
1
1
1
1
1
1
1
1
1
1
1
1
1
1
1
0.933236
0.330238
0.000743596
1.27496e-21
2.35111e-25
1.49996e-35
-8.30801e-32
-2.85315e-34
-4.57635e-37
-4.80564e-40
-4.64156e-43
-4.92923e-46
-5.78849e-49
-7.11701e-52
-7.99461e-55
-7.65605e-58
-6.29909e-61
-3.81188e-64
-1.49343e-67
-3.22864e-71
1.21346e-46
1.84463e-32
7.37492e-19
5.72897e-05
0.146292
0.519021
0.935929
0.999677
1
1
1
1
1
1
1
1
1
1
1
1
1
1
1
1
1
1
0.934041
0.0555797
-4.19528e-22
-3.67149e-24
-1.31542e-26
-6.63135e-29
-2.97336e-31
-1.22437e-33
-4.30835e-36
-1.23682e-38
-2.99772e-41
-6.13973e-44
-1.12472e-46
-2.04463e-49
-3.60349e-52
-9.20331e-55
-4.75054e-57
4.56406e-44
2.90817e-31
5.61965e-22
1.53566e-12
0.000564325
0.405171
0.999489
1
1
1
1
1
1
1
1
1
1
1
1
1
1
1
1
0.998414
0.702832
0.0913531
2.45036e-20
9.71976e-30
1.58631e-26
-1.53527e-26
-3.60903e-28
-4.37988e-30
-1.34555e-49
1.24302e-30
1.3753e-27
9.56362e-25
3.98288e-22
1.9141e-19
1.75267e-16
2.74261e-13
1.31128e-10
2.37334e-08
4.87935e-06
0.00129382
0.139101
0.759884
0.997398
1
1
1
1
1
1
1
1
1
1
1
1
1
1
0.999994
0.999863
0.997582
0.973892
0.86162
0.70078
0.577799
0.488539
0.425682
0.385668
0.367815
0.371224
0.390656
0.413092
0.416635
0.373195
0.257721
0.116754
0.0139067
0.99999
1
1
1
1
1
1
1
1
1
1
1
1
1
1
1
1
0.895134
0.713716
0.576349
0.368615
0.0623394
0.000358883
6.40678e-21
3.61453e-38
1.99563e-30
-2.02267e-32
-6.59222e-34
-1.65272e-36
-2.16307e-39
-2.24779e-42
-2.49807e-45
-2.9139e-48
-3.44591e-51
-4.02905e-54
-4.18523e-57
-3.672e-60
-2.76143e-63
-1.5753e-66
-6.21971e-70
-1.4872e-73
-2.00116e-77
-1.7306e-81
-1.82506e-85
-3.55428e-89
-1.09135e-92
1.2238e-12
0.0977869
0.7174
0.997209
1
1
1
1
1
1
1
1
1
1
1
1
1
1
1
1
1
0.500628
0.000789741
4.99477e-20
-4.02509e-39
-2.41835e-28
-1.81628e-30
-9.73357e-33
-4.11129e-35
-1.3416e-37
-3.48345e-40
-7.51047e-43
-1.37169e-45
-2.22919e-48
-3.58369e-51
-6.0222e-54
-1.68705e-56
-9.13243e-59
1.7009e-55
3.69641e-38
1.89971e-27
5.12044e-18
1.64659e-08
0.0236335
0.859662
1
1
1
1
1
1
1
1
1
1
1
1
1
0.999996
0.99775
0.837046
0.39933
0.0430614
9.99703e-21
-4.64408e-22
-2.3144e-24
-1.37082e-26
-5.72623e-28
-1.14038e-29
-1.29162e-31
-7.03264e-34
2.12771e-34
2.16727e-31
2.02204e-28
1.49988e-25
6.30217e-23
2.49027e-20
1.27402e-17
1.79533e-14
1.44694e-11
3.48649e-09
8.95776e-07
0.000301301
0.0771995
0.708567
0.996494
1
1
1
1
1
1
1
1
1
1
1
0.999999
0.999967
0.998427
0.947091
0.640659
0.318419
0.13223
0.0759217
0.0452608
0.0269965
0.0163867
0.0107803
0.00872501
0.00946311
0.0124522
0.0163902
0.0176378
0.0113914
0.000656106
4.1289e-12
8.25477e-12
0.479406
0.936369
1
1
1
1
1
1
1
1
1
1
1
1
1
0.760568
0.230938
0.00189811
0.000851088
0.000670366
0.000304402
7.5457e-09
2.43504e-21
1.01454e-32
2.62679e-51
-8.09286e-55
-3.89691e-34
-3.45301e-36
-6.38733e-39
-8.14094e-42
-1.01565e-44
-1.31156e-47
-1.57848e-50
-1.79177e-53
-1.92928e-56
-1.8213e-59
-1.46057e-62
-1.02105e-65
-5.70247e-69
-2.38292e-72
-6.6139e-76
-1.12468e-79
-1.26574e-83
-1.51813e-87
-2.92561e-91
-9.02096e-95
-1.05356e-67
-1.40805e-69
0.00993492
0.564614
0.995679
1
1
1
1
1
1
1
1
1
1
1
1
1
1
1
0.935545
0.0612835
4.92848e-20
1.4046e-21
8.49198e-35
-4.01149e-30
-3.80595e-32
-2.19691e-34
-8.93831e-37
-2.68725e-39
-6.35431e-42
-1.23074e-44
-2.0612e-47
-3.25083e-50
-6.75702e-53
-2.0738e-55
-8.247e-58
-3.93482e-60
6.1287e-60
2.45322e-46
4.03645e-33
1.49815e-23
6.72705e-14
9.71494e-05
0.316851
0.997399
1
1
1
1
1
1
1
1
1
1
0.997324
0.816092
0.508027
0.229712
0.0456689
0.00789849
1.77919e-20
-8.34928e-39
-2.41368e-23
-3.11229e-25
-2.31994e-27
-1.43977e-29
1.80241e-32
-4.63348e-34
-1.44759e-35
1.18939e-54
4.43934e-35
3.9692e-32
3.26186e-29
2.74711e-26
1.44547e-23
5.43071e-21
2.21874e-18
2.1937e-15
2.53108e-12
8.7857e-10
2.91271e-07
0.000138874
0.0633899
0.702443
0.99718
1
1
1
1
1
1
1
1
1
0.999999
0.99991
0.992372
0.767322
0.283902
0.0679075
0.00379303
8.6179e-19
1.87497e-17
9.45785e-18
6.36946e-19
5.27026e-18
5.15407e-17
3.43249e-16
2.65971e-15
1.14495e-14
3.98911e-14
1.42489e-13
4.22549e-13
1.0335e-12
2.39531e-12
7.09781e-12
0
0.133168
0.853014
1
1
1
1
1
1
1
1
1
1
0.999961
0.550335
0.00848463
1.49229e-18
1.04877e-20
7.4516e-21
6.53612e-21
2.52047e-21
6.12848e-26
3.24044e-38
4.60315e-48
-4.01769e-41
-1.19223e-42
-2.4942e-36
-1.14026e-38
-1.9648e-41
-3.23222e-44
-4.97391e-47
-6.82116e-50
-7.90457e-53
-8.25806e-56
-8.01663e-59
-6.85854e-62
-5.11907e-65
-3.48719e-68
-2.0597e-71
-9.90318e-75
-3.31976e-78
-6.94627e-82
-9.74164e-86
-1.37732e-89
-2.85334e-93
-8.62464e-97
-2.98557e-100
-1.69505e-72
-1.78878e-52
0.000552473
0.504366
0.995096
1
1
1
1
1
1
1
1
1
1
1
1
1
1
0.489225
0.000788901
5.43328e-28
1.73978e-37
-6.99453e-31
-9.82427e-32
-1.44556e-33
-1.51563e-35
-1.34126e-37
-9.96194e-40
-6.00736e-42
-3.02108e-44
-1.28874e-46
-5.01141e-49
-1.92911e-51
-6.83597e-54
-2.30476e-56
-7.94221e-59
-2.72878e-61
4.81707e-80
3.93117e-41
5.92093e-29
1.7056e-19
7.5951e-10
0.0091965
0.789056
1
1
1
1
1
1
1
1
0.999954
0.830434
0.294112
0.0335327
0.0121972
8.18098e-06
1.44819e-17
1.18326e-18
-6.10273e-23
-6.90863e-24
-1.71331e-24
-2.69785e-26
-2.44615e-28
-1.13069e-30
9.34654e-33
1.3747e-34
-7.11766e-37
-6.31559e-38
1.87186e-39
7.46697e-36
7.83167e-33
7.32793e-30
6.5432e-27
4.77358e-24
1.79809e-21
6.46046e-19
5.12891e-16
6.71282e-13
3.08045e-10
1.41713e-07
0.000103043
0.067082
0.71381
0.996751
1
1
1
1
1
1
1
0.999998
0.999823
0.977401
0.585957
0.118533
0.0017404
3.21117e-17
4.38189e-19
3.68695e-23
6.87957e-22
1.04679e-20
1.32911e-19
1.24217e-18
9.95004e-18
6.93219e-17
4.0038e-16
6.04413e-15
3.34943e-14
1.32355e-13
4.33008e-13
1.30911e-12
3.77603e-12
8.52469e-12
0
0
0.105469
0.874581
1
1
1
1
1
1
1
1
1
0.517786
0.000872052
2.92933e-20
9.51722e-36
2.97259e-38
4.53182e-38
4.32132e-38
1.00143e-38
6.15127e-43
2.09077e-55
-6.33606e-41
-7.09018e-42
-1.85217e-43
-6.95304e-39
-2.74718e-41
-6.9511e-44
-1.52973e-46
-2.54519e-49
-3.3819e-52
-3.58801e-55
-3.36997e-58
-2.94526e-61
-2.33669e-64
-1.72019e-67
-1.26306e-70
-8.80476e-74
-5.1267e-77
-2.03547e-80
-4.97833e-84
-8.15991e-88
-1.27709e-91
-2.68531e-95
-7.86436e-99
-2.59626e-102
1.29143e-94
-5.11466e-52
-2.62576e-46
0.000188321
0.498838
0.994803
1
1
1
1
1
1
1
1
1
1
1
1
0.905329
0.0497915
2.9031e-18
1.57925e-34
-3.45686e-30
-3.18239e-31
-1.11849e-32
-1.95645e-34
-2.31649e-36
-2.03502e-38
-1.37978e-40
-7.44805e-43
-3.37124e-45
-1.34572e-47
-5.04457e-50
-1.88913e-52
-6.55346e-55
-2.15554e-57
-7.15874e-60
-2.35964e-62
9.23304e-61
9.29208e-61
1.67819e-35
2.87622e-25
1.50194e-15
1.07122e-05
0.201124
0.979138
1
1
1
1
1
1
0.999235
0.641011
0.0644923
0.000849786
5.84771e-18
9.23612e-19
3.86784e-22
4.73557e-33
1.40813e-34
-3.29729e-24
-6.43472e-25
-1.07715e-25
-1.95533e-27
-2.19082e-29
-1.71136e-31
-8.20515e-34
-9.64947e-36
-3.79409e-37
-1.0239e-38
-1.9192e-40
9.96965e-40
1.14713e-36
1.9069e-33
1.97921e-30
1.94252e-27
1.66761e-24
6.79308e-22
2.36144e-19
1.55444e-16
2.16811e-13
1.46601e-10
1.01646e-07
0.00010573
0.0743246
0.708246
0.990222
1
1
1
1
1
0.999996
0.999618
0.949404
0.457249
0.0612906
1.10406e-16
8.64549e-20
1.628e-25
1.62844e-25
3.02171e-24
4.59967e-23
6.35095e-22
7.36755e-21
7.23596e-20
5.97033e-19
4.18712e-18
2.618e-17
3.32324e-15
3.15338e-14
1.469e-13
5.10696e-13
1.40598e-12
3.08712e-12
4.89144e-12
0
0
1.8733e-135
0.158073
0.930339
1
1
1
1
1
1
1
0.589667
0.00177763
7.84522e-21
1.04681e-37
3.11483e-53
2.08824e-71
-2.35851e-89
-7.51541e-93
3.61819e-76
5.97858e-60
5.0525e-64
-9.30718e-42
-6.08077e-43
-1.4153e-44
-8.07016e-42
-8.52473e-44
-3.32399e-46
-7.87293e-49
-1.26145e-51
-1.53406e-54
-1.45529e-57
-1.2296e-60
-9.96819e-64
-7.88925e-67
-6.47837e-70
-5.79221e-73
-4.90472e-76
-3.24906e-79
-1.40561e-82
-3.73639e-86
-6.71343e-90
-1.11405e-93
-2.32977e-97
-6.47332e-101
-2.00559e-104
7.97331e-95
-9.53011e-72
-2.01419e-53
2.06712e-29
0.00034178
0.498356
0.993828
1
1
1
1
1
1
1
1
1
1
0.999957
0.375148
0.00032418
1.25359e-23
3.32371e-41
-9.4914e-31
-5.63982e-32
-1.4344e-33
-2.15939e-35
-2.23999e-37
-1.72953e-39
-1.03836e-41
-5.08012e-44
-2.12681e-46
-8.13481e-49
-2.97705e-51
-1.08488e-53
-3.65619e-56
-1.16315e-58
-3.70374e-61
-1.1688e-63
-3.7055e-66
1.89757e-58
1.91153e-58
3.895e-31
9.98977e-22
4.14839e-12
0.000330435
0.565272
0.997988
1
1
1
1
0.997034
0.536801
0.0296195
6.22875e-18
3.88316e-20
4.95132e-34
6.37705e-35
5.93209e-36
9.67123e-38
-7.82214e-28
-4.29237e-25
-6.6895e-26
-6.51554e-27
-1.324e-28
-1.75106e-30
-1.82875e-32
-1.80378e-34
-2.65279e-36
-5.57696e-38
-1.06201e-39
-1.62904e-41
-1.80629e-43
1.58542e-40
2.36177e-37
4.01561e-34
5.30903e-31
5.4021e-28
4.72283e-25
2.31536e-22
8.20284e-20
4.85286e-17
7.89014e-14
8.0808e-11
8.10487e-08
0.000104393
0.0692205
0.646364
0.960576
1
1
1
0.999981
0.998306
0.883157
0.345479
0.0303902
3.16258e-20
7.94554e-34
2.11421e-22
1.49449e-24
4.98036e-27
8.94682e-26
1.41629e-24
1.99171e-23
2.48391e-22
2.59662e-21
2.29457e-20
1.65818e-19
1.02255e-18
4.44734e-16
1.15176e-14
7.21698e-14
2.67228e-13
6.46093e-13
9.24531e-13
6.10309e-13
0
0
-1.6903e-240
-2.17478e-84
0.233853
0.961501
1
1
1
1
1
0.659874
0.0115691
2.15795e-20
1.15454e-38
3.85099e-55
-2.36212e-73
2.89003e-90
-3.51889e-92
-1.01714e-94
7.52358e-95
2.68566e-77
2.26582e-81
-6.77678e-43
-3.39064e-44
-7.08271e-46
-1.56541e-44
-4.50136e-46
-1.78686e-48
-3.94037e-51
-5.72968e-54
-6.2341e-57
-5.31193e-60
-4.19201e-63
-3.44955e-66
-3.14171e-69
-3.2298e-72
-3.47137e-75
-3.21805e-78
-2.1958e-81
-9.67804e-85
-2.66426e-88
-5.03856e-92
-8.61567e-96
-1.76497e-99
-4.63496e-103
-1.34749e-106
-2.7386e-98
-1.05936e-70
-2.43303e-56
4.08171e-48
-7.60296e-49
0.000197398
0.457121
0.989199
1
1
1
1
1
1
1
1
1
0.738998
0.0121883
7.89628e-19
2.17507e-35
2.61267e-45
-1.28672e-31
-5.94372e-33
-1.24888e-34
-1.61609e-36
-1.47031e-38
-1.01265e-40
-5.53044e-43
-2.53152e-45
-1.01383e-47
-3.77086e-50
-1.34735e-52
-4.74185e-55
-1.53799e-57
-4.69706e-60
-1.42783e-62
-4.30277e-65
-1.3048e-67
4.86465e-66
2.25785e-53
2.81568e-41
1.83922e-28
2.98928e-19
8.39033e-10
0.0420743
0.768715
0.995164
1
1
0.983005
0.452584
0.021277
2.05127e-18
6.43612e-40
1.2806e-36
-4.28367e-35
1.38599e-53
9.54178e-37
5.37174e-38
-5.08884e-28
-3.51365e-26
-5.73396e-27
-3.89444e-28
-8.46965e-30
-1.23579e-31
-1.50383e-33
-1.87535e-35
-2.99203e-37
-5.46298e-39
-8.84084e-41
-1.18656e-42
-1.487e-44
4.80379e-45
1.38271e-41
3.03266e-38
4.55242e-35
8.23859e-32
8.75661e-29
8.25837e-26
5.06045e-23
1.82801e-20
1.00786e-17
1.9425e-14
3.4729e-11
4.3941e-08
5.5514e-05
0.038107
0.462246
0.879436
0.983061
0.998713
0.958913
0.657938
0.20614
0.00981108
1.25923e-17
-1.59912e-37
-1.10215e-26
-1.81647e-41
5.69166e-26
2.37641e-28
1.89231e-27
3.1848e-26
4.48492e-25
5.64213e-24
6.30232e-23
5.77122e-22
4.29326e-21
2.83192e-20
1.53074e-19
2.8905e-16
5.56956e-15
2.54351e-14
4.20633e-14
6.3019e-15
1.32612e-16
0
-1.37844e-321
-7.52202e-238
-2.98447e-81
-5.04141e-73
0.246586
0.931951
0.999902
1
1
0.607186
0.0193934
-2.17399e-21
1.25465e-39
7.14243e-44
2.11204e-52
7.17417e-55
-1.92417e-85
-1.72539e-74
-4.61601e-76
-4.40655e-78
-3.47221e-76
-2.82014e-68
-3.26198e-44
-1.38236e-45
-2.60463e-47
-2.06794e-46
-2.69258e-48
-9.2284e-51
-1.79812e-53
-2.33017e-56
-2.28859e-59
-1.8362e-62
-1.50644e-65
-1.47148e-68
-1.69391e-71
-2.05493e-74
-2.33487e-77
-2.1483e-80
-1.42906e-83
-6.21223e-87
-1.72764e-90
-3.36449e-94
-5.84406e-98
-1.16876e-101
-2.90712e-105
-7.9554e-109
-3.0275e-98
-1.76057e-70
-6.00326e-56
-9.58914e-51
-2.0191e-48
1.02557e-22
2.63384e-06
0.343677
0.952777
1
1
1
1
1
1
1
0.902857
0.112863
2.45345e-20
1.25054e-22
1.14297e-24
-5.61271e-44
-1.14799e-32
-4.39314e-34
-7.92413e-36
-9.0041e-38
-7.33753e-40
-4.62497e-42
-2.36961e-44
-1.04491e-46
-4.09141e-49
-1.4877e-51
-5.16049e-54
-1.73896e-56
-5.38622e-59
-1.57035e-61
-4.54248e-64
-1.30437e-66
-3.77922e-69
-1.12746e-71
-2.07133e-58
-1.77621e-55
2.06289e-38
7.90261e-28
1.58266e-18
7.27638e-09
0.0713721
0.613567
0.927406
0.764724
0.273725
0.0132156
9.1426e-21
-1.00694e-36
-2.05083e-30
-1.89834e-32
-1.78093e-34
-7.75102e-37
1.64323e-42
2.36781e-38
-1.63039e-28
-2.21868e-27
-3.95662e-28
-2.22261e-29
-4.98153e-31
-7.72866e-33
-1.05307e-34
-1.52934e-36
-2.58148e-38
-4.41851e-40
-6.49041e-42
-7.95255e-44
-9.2312e-46
-1.01738e-47
2.1004e-48
3.76799e-44
1.94825e-40
6.0586e-37
1.13917e-33
1.97613e-30
2.3335e-27
2.04165e-24
9.22913e-22
4.98883e-19
7.30592e-16
3.38486e-12
5.07279e-09
4.36769e-06
0.001943
0.104068
0.327743
0.36009
0.232214
0.0816831
0.000899292
-5.36335e-21
6.71494e-36
-2.1849e-25
-8.47912e-27
-3.73203e-28
1.46692e-44
-1.32035e-47
2.01305e-29
3.62131e-28
5.32075e-27
7.02742e-26
8.81896e-25
9.04754e-24
8.10139e-23
8.15034e-22
5.8949e-21
2.12431e-20
5.86702e-20
1.58926e-19
4.70025e-19
1.72654e-18
1.18736e-17
0
-2.31348e-318
-3.82343e-235
-3.68054e-78
-5.08203e-70
-3.8121e-66
0.101651
0.49824
0.588625
0.275855
0.000995544
2.33411e-19
-1.07241e-23
-3.6238e-34
-8.70301e-37
-1.40865e-39
-1.37395e-42
-7.74726e-46
-2.43575e-49
-4.05412e-53
-3.68778e-57
-2.88399e-61
-3.84291e-65
-1.16488e-45
-4.38483e-47
-7.48376e-49
-1.78807e-48
-1.47493e-50
-4.28087e-53
-7.32414e-56
-8.59813e-59
-8.06967e-62
-6.89924e-65
-6.91365e-68
-8.52003e-71
-1.12379e-73
-1.40397e-76
-1.54635e-79
-1.35365e-82
-8.59642e-86
-3.63542e-89
-1.00853e-92
-1.99671e-96
-3.49693e-100
-6.83528e-104
-1.61888e-107
-4.1912e-111
-1.68125e-98
-1.45943e-70
-5.80364e-56
-1.17699e-51
-4.38261e-49
-5.28149e-46
1.79672e-26
1.56281e-11
0.162247
0.764518
0.994828
0.99941
1
1
1
0.898914
0.191746
1.92346e-20
-2.46424e-22
-1.36716e-40
1.47835e-25
8.91668e-28
3.39807e-47
-1.95107e-35
-3.61071e-37
-3.83777e-39
-2.91665e-41
-1.74332e-43
-8.65419e-46
-3.75979e-48
-1.45216e-50
-5.14419e-53
-1.7217e-55
-5.53717e-58
-1.63674e-60
-4.55888e-63
-1.25691e-65
-3.44476e-68
-9.5634e-71
-2.7609e-73
-3.57242e-67
-1.82916e-55
-5.46839e-47
1.18292e-38
2.02341e-28
1.29059e-19
1.81135e-11
1.61927e-05
0.000188931
0.0149538
0.0007624
2.87122e-18
-1.15628e-22
-1.7056e-26
-1.6843e-30
-1.18244e-32
-8.59221e-35