/*--------------------------------*- C++ -*----------------------------------*\
| =========                 |                                                 |
| \\      /  F ield         | OpenFOAM: The Open Source CFD Toolbox           |
|  \\    /   O peration     | Version:  v1912                                 |
|   \\  /    A nd           | Website:  www.openfoam.com                      |
|    \\/     M anipulation  |                                                 |
\*---------------------------------------------------------------------------*/
FoamFile
{
    version     2.0;
    format      ascii;
    class       volScalarField;
    location    "90";
    object      alpha.water;
}
// * * * * * * * * * * * * * * * * * * * * * * * * * * * * * * * * * * * * * //

dimensions      [0 0 0 0 0 0 0];


internalField   nonuniform List<scalar> 
14268
(
0.000519195
0.000519179
0.000518742
0.000380301
0.000228816
0.000221351
0.000221354
0.000221351
0.000276147
0.000272015
0.000349593
0.000365364
0.000365368
0.000306005
0.000146391
0.000146391
0.000146391
0.000390463
0.000441595
0.000410925
0.00042221
0.000462814
0.000530038
0.000648927
0.000667227
0.000667233
0.000589566
0.000451249
0.000392222
0.000391249
0.000391271
0.000389123
0.000387096
0.000374133
0.000312492
0.000221519
0.000177973
0.000184859
0.000199937
0.000200885
0.000200895
0.000192036
0.000204303
0.000481081
0.000532941
0.000532934
0.000532935
0.000515595
0.000340706
0.000187008
8.01395e-05
2.0595e-05
1.18385e-05
1.18385e-05
1.18385e-05
1.68401e-05
3.80376e-05
4.53791e-05
4.13048e-05
4.10964e-05
4.51398e-05
5.39953e-05
5.258e-05
3.62587e-05
1.26232e-05
1.53094e-06
1.06813e-06
2.58077e-06
5.21324e-06
5.4446e-06
3.87481e-06
3.6752e-06
4.08716e-06
4.84313e-06
4.79109e-06
4.00519e-06
3.86712e-06
6.99423e-06
7.90749e-05
0.000277729
0.000312327
0.000231685
0.00010855
3.89043e-05
3.01889e-05
4.61881e-05
8.44898e-05
0.000131421
0.000165088
0.000166069
0.000166057
0.000166067
0.000166055
0.000162372
0.000122898
9.37173e-05
7.55462e-05
5.42246e-05
3.17662e-05
1.77637e-05
1.50831e-05
2.15137e-05
4.14421e-05
0.000108376
0.000247985
0.000300511
0.000300511
0.000277661
0.00015078
6.70193e-05
6.2124e-05
6.94296e-05
6.94312e-05
6.76172e-05
6.04445e-05
5.25278e-05
4.60153e-05
4.0818e-05
3.7985e-05
3.7923e-05
3.85104e-05
4.12067e-05
4.65505e-05
5.41348e-05
6.32716e-05
7.3036e-05
8.0203e-05
8.02061e-05
7.95981e-05
8.28571e-05
0.000100556
0.000125643
0.00013021
0.000130211
0.000132936
0.000160238
0.000206695
0.000209289
0.000209289
0.000209289
0.000172166
7.09313e-05
6.12154e-06
5.59617e-45
-6.02598e-29
-1.43767e-28
-1.78088e-28
-1.55759e-28
-1.0929e-28
-6.53388e-29
0.000395188
0.000452758
0.00029391
0.000319546
0.000489015
0.000602247
0.00053388
0.000498697
0.000498725
0.000455046
0.000222255
9.61143e-05
0.000214564
0.00029822
0.000318025
0.000257558
0.000152413
0.000262295
0.000182283
0.000103088
0.000103088
0.000103087
9.59909e-05
9.66887e-05
0.000143725
0.000209851
0.000189643
0.000119206
7.8095e-05
7.82266e-05
8.251e-05
8.8078e-05
9.76414e-05
0.000106029
9.39726e-05
6.37079e-05
3.97723e-05
3.92644e-05
3.92603e-05
4.36023e-05
7.03706e-05
9.02178e-05
0.000124447
0.000334137
0.000532945
0.000532941
0.000433072
0.000425548
0.000451502
0.000451561
0.000259478
5.87328e-05
1.39689e-05
1.61665e-05
4.51686e-05
0.00015031
0.00022961
0.000245081
0.000256954
0.000277387
0.000298302
0.00032922
0.000324255
0.000241744
9.64277e-05
7.46911e-06
9.71725e-07
9.71714e-07
2.0535e-06
4.57367e-06
4.58022e-06
7.00041e-06
1.87536e-05
2.42218e-05
2.46935e-05
2.18891e-05
1.0113e-05
8.9819e-06
4.43265e-05
0.000241191
0.000312347
0.00030359
0.00019527
6.46113e-05
1.61248e-05
1.61254e-05
1.67181e-05
1.89363e-05
4.02545e-05
0.000111216
0.000164983
0.000166055
0.00014786
0.000124617
0.000127002
0.000137333
0.000137875
0.000121863
6.48157e-05
1.95102e-05
1.5082e-05
1.50807e-05
1.80397e-05
2.24969e-05
4.02998e-05
0.0001223
0.000270164
0.000287098
0.000225513
8.51179e-05
4.23291e-05
4.23301e-05
4.47716e-05
4.1642e-05
3.18211e-05
2.28496e-05
1.81634e-05
1.69173e-05
1.60067e-05
1.40942e-05
1.19969e-05
1.16382e-05
1.21232e-05
1.4681e-05
1.8351e-05
1.99786e-05
1.98373e-05
1.87486e-05
1.72809e-05
1.56513e-05
1.64864e-05
2.84538e-05
4.0431e-05
3.71413e-05
2.49569e-05
2.14569e-05
2.6469e-05
4.97598e-05
0.000113634
0.000180696
0.000182855
0.000118679
2.65037e-05
3.14851e-18
-6.81508e-38
-3.59867e-28
-4.76904e-28
-3.51353e-28
-2.01569e-28
-1.02581e-28
0.00012103
0.000243808
0.000243792
0.000491992
0.000792791
0.000834819
0.000834763
0.000676362
0.000343783
0.000144402
7.29703e-05
2.33957e-05
4.75741e-05
0.000174597
0.000566471
0.000566467
0.000316041
0.000149735
0.000195484
0.000198698
0.000160512
8.32468e-05
7.60159e-05
7.60159e-05
7.60159e-05
7.60159e-05
7.6021e-05
7.60424e-05
7.60166e-05
7.60166e-05
7.60166e-05
7.60166e-05
7.60166e-05
8.30247e-05
0.000132744
0.000183808
0.00018634
0.0001596
0.000104202
5.61219e-05
5.49601e-05
5.4954e-05
7.14338e-05
0.000174672
0.00053295
0.000300483
9.19084e-05
9.91428e-05
0.000184492
0.00032066
0.00034344
0.000180822
3.64099e-05
3.74398e-05
0.000163737
0.000365671
0.000391358
0.000398149
0.000462524
0.000589693
0.000604242
0.000604242
0.000604242
0.000581201
0.000303726
7.08992e-05
2.14534e-06
1.01638e-06
1.18689e-06
1.22222e-06
3.47403e-06
1.77855e-05
3.69792e-05
3.81062e-05
3.82006e-05
3.82012e-05
2.71728e-05
1.25908e-05
2.29688e-05
0.000125279
0.000305279
0.00030979
0.000309806
0.000163615
3.13465e-05
4.39393e-06
4.39378e-06
5.67006e-06
1.59637e-05
6.1562e-05
0.000112247
0.000108603
6.82114e-05
2.49007e-05
1.86225e-05
3.63057e-05
0.000108732
0.000125969
0.000115207
5.62268e-05
1.56306e-05
1.45508e-05
1.45503e-05
1.45508e-05
1.54047e-05
3.07173e-05
0.000101598
0.000233683
0.000244981
0.00019418
7.82562e-05
1.85303e-05
1.66034e-05
1.68606e-05
1.49859e-05
1.10261e-05
7.89977e-06
6.95202e-06
6.74232e-06
6.26365e-06
5.5382e-06
5.27563e-06
5.54513e-06
7.60521e-06
1.44515e-05
1.95644e-05
2.06795e-05
1.68437e-05
1.53689e-05
1.3428e-05
6.96018e-06
5.44404e-06
5.21073e-06
4.88378e-06
4.7316e-06
4.73199e-06
5.75904e-06
1.17614e-05
3.00269e-05
7.23985e-05
0.000121929
0.000123242
6.89602e-05
8.94798e-06
1.08808e-18
-5.4913e-38
-3.6835e-28
-2.70774e-28
-1.36466e-28
-6.67987e-29
6.31439e-05
7.92272e-05
0.000275568
0.000640386
0.000718412
0.000294166
0.000183666
0.000141195
0.000121181
6.35169e-05
6.27558e-05
1.57325e-05
1.53523e-05
6.92386e-05
0.000347684
0.000566471
0.000453986
0.000149751
0.000600971
0.000617796
0.000632793
0.000463149
0.000238992
0.000109831
7.66974e-05
7.60159e-05
7.61616e-05
0.000106531
0.000164782
0.000244587
0.000286154
0.000265989
0.000267783
0.00029624
0.000367234
0.000432107
0.000455353
0.000455126
0.000409483
0.000228076
9.94526e-05
8.7984e-05
7.18395e-05
8.57781e-05
0.000272748
9.2901e-05
3.13028e-05
2.26259e-05
2.20326e-05
7.19317e-05
0.000230519
0.00018977
6.81547e-05
0.000178714
0.000259709
0.000135575
3.95112e-05
3.65437e-05
0.000100157
0.000227235
0.000266465
0.000188289
0.000120398
0.000157141
0.000213919
0.000173513
0.000124392
0.000101091
4.95294e-05
5.97272e-06
5.18733e-06
1.81848e-05
1.30518e-05
6.12853e-06
7.35734e-06
2.31404e-05
2.91902e-05
1.62592e-05
1.44825e-05
4.82781e-05
0.00014914
0.000225022
0.000234087
0.00023452
0.0001068
1.12204e-05
3.30264e-06
3.30253e-06
7.00065e-06
2.86681e-05
5.59001e-05
5.46657e-05
3.35807e-05
9.43318e-06
3.64503e-06
5.39725e-06
2.58591e-05
0.000108852
0.000129615
8.14339e-05
2.52214e-05
2.00911e-05
2.60078e-05
2.39201e-05
1.67698e-05
1.55569e-05
2.65945e-05
9.14565e-05
0.000202227
0.000203131
0.000180537
7.80648e-05
1.06062e-05
4.87774e-06
4.87791e-06
4.57126e-06
4.18731e-06
4.03405e-06
3.73605e-06
3.37146e-06
3.1099e-06
2.99411e-06
3.03912e-06
3.35234e-06
5.11689e-06
1.24482e-05
2.31852e-05
3.42332e-05
3.54852e-05
3.54866e-05
2.52442e-05
9.22808e-06
5.21011e-06
5.59753e-06
8.53857e-06
8.8388e-06
7.88175e-06
7.88179e-06
8.3582e-06
1.31814e-05
3.52757e-05
6.71552e-05
6.80062e-05
2.45827e-05
6.41571e-07
3.48062e-26
-1.12042e-27
-3.28258e-28
-8.72757e-29
-3.54953e-29
6.31439e-05
6.88193e-05
0.000390529
0.000682776
0.000438217
0.000199336
0.000163157
0.000112647
0.000103937
3.51986e-05
4.13864e-05
4.14019e-05
1.53628e-05
4.97126e-05
4.21317e-05
0.000303622
0.000392487
0.0002752
0.000338223
0.000749298
0.000749306
0.000749313
0.000657855
0.000438302
0.000193867
0.000181118
0.000185585
0.00026192
0.000351543
0.000432649
0.000432649
0.000415756
0.000430463
0.000527951
0.000606926
0.000606864
0.000610675
0.000670856
0.000671169
0.000636575
0.000536829
0.000378827
0.000125447
3.44284e-05
8.50469e-05
3.55398e-05
2.28061e-05
1.18869e-05
6.78694e-06
1.75559e-05
0.000117213
0.000192519
0.000185082
0.000202421
0.000167142
3.00498e-05
1.54804e-05
1.54775e-05
3.59914e-05
9.14603e-05
9.41475e-05
6.47592e-05
6.32198e-05
6.71942e-05
0.000153957
0.000245208
0.000361097
0.000420134
0.000273442
4.59913e-05
1.47138e-05
1.40611e-05
5.54594e-06
1.48847e-06
1.51626e-06
8.25573e-06
2.91865e-05
2.18961e-05
1.44814e-05
1.66838e-05
4.8576e-05
6.86425e-05
0.000103603
0.000150877
0.000141445
4.65627e-05
3.66713e-06
3.30264e-06
3.96977e-06
1.25554e-05
2.45681e-05
2.42438e-05
1.58125e-05
5.54706e-06
1.59836e-06
1.66564e-06
5.07086e-06
4.34975e-05
0.000139992
0.000116351
5.30517e-05
5.89858e-05
9.75394e-05
9.20874e-05
5.22962e-05
1.58412e-05
1.36159e-05
3.08226e-05
8.29133e-05
0.000109661
9.61241e-05
8.51261e-05
4.18848e-05
6.20436e-06
3.51044e-06
3.5104e-06
3.27731e-06
2.94237e-06
2.94224e-06
2.94233e-06
2.9422e-06
2.94233e-06
2.94226e-06
2.94233e-06
2.94233e-06
3.01561e-06
3.64536e-06
4.21171e-06
5.46768e-06
1.58356e-05
2.82917e-05
1.94352e-05
1.13478e-05
1.55798e-05
2.8593e-05
3.23196e-05
2.79322e-05
1.90886e-05
1.13119e-05
1.052e-05
1.20339e-05
2.55727e-05
4.02929e-05
2.99499e-05
4.50996e-06
3.85879e-19
-3.44145e-39
-9.94454e-29
-9.39867e-29
-5.22049e-29
0.000219614
0.000176387
0.000682776
0.000682695
0.000412181
0.000477832
0.000427313
0.000257434
6.58587e-05
9.48133e-06
5.50993e-06
2.38688e-05
1.17083e-05
2.564e-05
2.60582e-05
6.68448e-05
0.000178499
0.00014994
0.00014738
0.000749305
0.000749312
0.00074932
0.000749312
0.000749305
0.00034628
0.000118362
0.00018
0.000366968
0.000367017
0.000284828
0.000150367
5.28451e-05
4.84037e-05
7.95613e-05
8.55982e-05
5.2369e-05
3.60844e-05
6.97305e-05
0.000290358
0.000634179
0.000635238
0.000635239
0.000307669
2.21246e-05
1.62781e-05
1.95313e-05
1.80677e-05
5.79319e-06
4.17464e-06
5.9775e-06
5.5653e-05
0.000192462
0.000207934
0.000198738
5.87211e-05
1.79686e-05
1.79774e-05
3.55916e-05
3.37623e-05
5.13162e-05
6.85656e-05
7.86914e-05
9.0282e-05
9.64246e-05
0.000132926
0.00032188
0.000657345
0.000657361
0.000549459
0.000132476
2.2915e-05
8.26972e-06
1.83422e-06
1.34781e-06
1.34777e-06
5.56541e-06
2.71348e-05
3.07634e-05
1.6741e-05
1.13809e-05
1.53512e-05
2.64305e-05
3.60271e-05
6.2623e-05
0.000100137
8.2086e-05
2.916e-05
5.23299e-06
3.89241e-06
5.6174e-06
9.99695e-06
1.00942e-05
7.02398e-06
2.74013e-06
1.50661e-06
1.4968e-06
1.97647e-06
1.2518e-05
0.000134735
0.000212063
0.00020728
0.000205335
0.000205366
0.000148271
9.65969e-05
2.83641e-05
1.05266e-05
1.05265e-05
2.1001e-05
2.38066e-05
2.08668e-05
2.3717e-05
2.18363e-05
1.41687e-05
6.04214e-06
4.52295e-06
4.39812e-06
4.26026e-06
3.82724e-06
3.58712e-06
3.70862e-06
3.85399e-06
4.00601e-06
4.02029e-06
3.81356e-06
3.22265e-06
3.22214e-06
3.35957e-06
3.41326e-06
6.57185e-06
3.23916e-05
3.23908e-05
3.20966e-05
3.30137e-05
4.46857e-05
5.20722e-05
5.20722e-05
5.1626e-05
3.64702e-05
1.55097e-05
1.2039e-05
1.34786e-05
2.2373e-05
2.44976e-05
8.50981e-06
1.73223e-07
5.05795e-40
-2.94562e-29
-3.45781e-29
-2.27472e-29
0.000497322
0.000171665
0.000443251
0.000416706
0.000412142
0.000457398
5.21525e-05
1.11026e-05
3.77101e-06
3.77088e-06
3.7705e-06
4.97108e-06
5.01047e-06
1.22925e-05
0.000248498
0.000416006
0.000308677
0.000147377
0.000147377
0.000749293
0.000689163
0.000311637
0.000202544
0.000288245
0.000342568
0.000118445
0.000106276
0.000161948
0.000160372
0.00010588
5.15766e-05
2.13878e-05
2.13898e-05
2.30051e-05
2.30335e-05
1.66523e-05
1.55261e-05
2.33106e-05
7.41972e-05
0.000259148
0.000407334
0.000413163
0.000412755
6.85434e-05
1.54945e-05
1.54803e-05
1.43563e-05
4.18268e-06
4.17463e-06
4.17464e-06
1.5452e-05
0.000112762
0.000207943
0.000135219
3.40266e-05
2.47765e-05
5.2157e-05
8.73148e-05
8.37284e-05
8.13211e-05
8.94531e-05
0.000173671
0.000255303
0.000210034
0.000174011
0.00042996
0.000550837
0.000637778
0.000637902
0.000253958
1.76997e-05
4.7651e-06
4.94159e-06
5.63707e-06
4.76469e-06
5.53698e-06
2.04734e-05
3.68079e-05
2.56036e-05
1.13802e-05
1.25446e-05
1.85055e-05
1.79212e-05
1.95038e-05
4.66051e-05
6.74938e-05
5.98195e-05
2.60067e-05
5.38195e-06
4.15499e-06
4.15512e-06
3.98469e-06
2.92253e-06
1.71932e-06
1.49636e-06
1.49658e-06
1.4968e-06
4.65581e-06
6.22068e-05
0.000235255
0.000239294
0.000239294
0.000161022
4.61331e-05
1.52523e-05
1.58592e-05
1.09032e-05
4.96897e-06
4.13309e-06
4.18839e-06
4.18033e-06
4.18021e-06
5.18776e-06
1.00244e-05
1.14382e-05
1.1562e-05
9.90196e-06
6.18286e-06
4.28015e-06
4.31683e-06
5.05236e-06
7.18446e-06
1.08292e-05
1.45474e-05
1.55388e-05
1.44356e-05
1.4792e-05
1.69932e-05
1.66531e-05
1.82195e-05
2.52281e-05
4.37087e-05
4.37242e-05
4.3722e-05
3.15013e-05
2.41528e-05
2.64478e-05
2.87197e-05
3.19697e-05
2.96596e-05
1.51641e-05
9.17051e-06
1.25691e-05
1.61154e-05
1.34747e-05
2.19759e-06
1.60397e-39
-7.97681e-30
-1.18555e-29
-9.88165e-30
0.000712709
0.000164123
0.000164118
0.000310336
0.000485247
0.000134465
1.09749e-05
3.77107e-06
3.77089e-06
3.77052e-06
3.77036e-06
3.76962e-06
3.76974e-06
1.315e-05
0.000640096
0.000640522
0.000640947
0.000149003
0.000207295
0.000647964
0.000266414
0.000154227
6.98342e-05
8.17143e-05
0.00023982
0.000148684
0.000133351
0.000137631
9.26026e-05
4.5381e-05
3.88969e-05
3.89241e-05
3.13534e-05
1.57293e-05
1.55279e-05
1.55262e-05
1.55246e-05
1.55231e-05
2.7666e-05
6.19517e-05
0.000103529
0.000112724
0.000218111
9.26102e-05
1.6574e-05
2.06709e-05
1.30704e-05
4.17456e-06
4.17457e-06
4.17463e-06
6.3198e-06
4.26008e-05
0.000111746
6.96969e-05
2.17256e-05
4.55965e-05
7.39498e-05
8.04181e-05
0.000119028
0.000122204
0.000197233
0.000362179
0.000362169
0.000339964
0.00026866
0.000235807
0.000235827
0.000216973
0.000358685
0.000290705
3.53744e-05
3.7954e-06
6.49117e-06
7.44498e-06
7.44271e-06
4.50619e-06
8.82834e-06
3.58471e-05
3.58832e-05
1.59767e-05
9.66538e-06
1.25244e-05
9.49156e-06
6.26298e-06
1.25687e-05
3.09544e-05
2.7311e-05
1.46957e-05
9.96881e-06
5.1386e-06
1.7129e-06
1.32198e-06
1.3222e-06
1.49592e-06
1.49614e-06
1.49636e-06
1.79942e-06
2.95762e-06
2.23641e-05
0.000159143
0.000239294
0.000236807
0.000128764
2.36692e-05
1.05148e-05
9.97914e-06
9.67029e-06
4.88601e-06
4.13329e-06
4.26151e-06
5.42028e-06
4.18033e-06
4.18021e-06
5.41965e-06
1.42399e-05
1.46992e-05
1.4699e-05
1.09969e-05
5.47722e-06
4.93195e-06
6.21281e-06
9.97567e-06
1.68009e-05
2.44898e-05
2.57009e-05
2.57025e-05
2.57009e-05
2.57025e-05
2.57009e-05
1.34832e-05
1.51146e-05
3.18124e-05
4.3722e-05
3.98925e-05
2.34213e-05
8.47157e-06
6.94309e-06
7.25048e-06
1.27106e-05
2.38814e-05
1.92344e-05
7.11594e-06
7.10278e-06
8.62233e-06
7.72513e-06
3.24763e-06
1.37097e-07
-1.04465e-30
-5.45088e-30
-5.90522e-30
0.000359272
0.000540302
0.000215229
0.00042647
0.000627176
7.45532e-05
3.77161e-06
3.7714e-06
3.88439e-06
4.06872e-06
4.0688e-06
3.76982e-06
3.76903e-06
1.23477e-05
0.000613057
0.000443738
0.000763128
0.000241878
0.000706861
0.000351636
0.000130073
0.000121615
6.97442e-05
3.86585e-05
0.0001881
0.000191189
0.00026982
0.000278578
0.000109459
2.04163e-05
6.80814e-05
0.000106933
0.000113232
6.89137e-05
2.31756e-05
1.55414e-05
1.55231e-05
1.55218e-05
1.9834e-05
2.25584e-05
1.61605e-05
8.27166e-06
7.65842e-05
8.14732e-05
2.34735e-05
2.76734e-05
1.25012e-05
4.1745e-06
5.40691e-06
5.51531e-06
4.81729e-06
1.02933e-05
2.6383e-05
1.95352e-05
1.13049e-05
1.14995e-05
6.22618e-06
5.94586e-06
3.83581e-05
0.000100188
0.000137211
0.000140152
0.000191174
0.000444558
0.000456639
0.000430444
0.000293796
0.000133203
0.000213483
0.000290338
6.94131e-05
1.51806e-06
1.18869e-06
9.81331e-07
9.10493e-07
9.64959e-07
2.65409e-06
1.63422e-05
3.58936e-05
2.17286e-05
6.5348e-06
4.90024e-06
2.53025e-06
1.52784e-06
2.79852e-06
6.85257e-06
5.6424e-06
2.29325e-06
1.47345e-06
1.41955e-06
1.3206e-06
1.32085e-06
1.46603e-06
1.91178e-06
2.7689e-06
6.55752e-06
1.17161e-05
1.00521e-05
1.53025e-05
6.85365e-05
0.000185479
0.000161242
0.000103361
5.2064e-05
2.62057e-05
8.98685e-06
4.89965e-06
4.86859e-06
4.86716e-06
1.09606e-05
2.31776e-05
1.79212e-05
7.61938e-06
7.1014e-06
7.59982e-06
1.08359e-05
1.28219e-05
1.28217e-05
9.18269e-06
8.15861e-06
1.23914e-05
2.01152e-05
1.91577e-05
1.69822e-05
1.67068e-05
1.78251e-05
1.71018e-05
1.33903e-05
5.52697e-06
2.7005e-06
5.16938e-06
1.7696e-05
2.82264e-05
2.39882e-05
1.16276e-05
3.27883e-06
2.31417e-06
2.49362e-06
4.08509e-06
1.39306e-05
1.75167e-05
8.55421e-06
3.02683e-06
3.41954e-06
3.07058e-06
1.40055e-06
1.11591e-07
4.96752e-21
-2.86835e-40
-2.99174e-30
0.000359485
0.0010561
0.000647008
0.000511617
0.000555607
3.33e-05
3.77153e-06
3.77148e-06
4.06919e-06
4.06933e-06
3.77072e-06
3.76961e-06
3.76982e-06
5.0111e-06
0.000207558
3.86464e-05
0.000760394
0.00068325
0.000779019
0.000260858
6.21388e-05
7.75082e-05
5.64038e-05
2.9461e-05
0.000269742
0.000483902
0.00049145
0.000323931
5.12115e-05
8.01743e-06
2.22698e-05
0.000117787
0.000136466
0.00013648
0.000101656
6.30936e-05
3.01181e-05
1.55206e-05
1.52823e-05
1.51271e-05
7.38535e-06
2.05874e-06
2.14969e-05
0.000120961
3.72553e-05
4.60079e-05
1.1832e-05
8.67643e-06
2.46252e-05
2.70249e-05
8.78812e-06
5.48863e-06
5.48858e-06
5.48863e-06
5.48859e-06
5.48864e-06
5.48863e-06
5.48868e-06
1.24797e-05
6.47743e-05
7.87901e-05
5.37911e-05
6.15582e-05
0.000293443
0.000606785
0.000607806
0.000413177
0.000106527
0.000141016
0.000272249
0.000103161
3.41156e-06
9.10527e-07
9.10502e-07
9.10509e-07
9.10521e-07
1.12932e-06
8.37368e-06
2.85814e-05
2.49851e-05
1.17294e-05
5.15134e-06
1.60682e-06
1.14769e-06
1.14767e-06
1.16523e-06
1.31874e-06
1.31965e-06
1.31988e-06
1.32012e-06
1.32036e-06
1.82424e-06
8.88726e-06
4.50797e-05
7.1134e-05
6.19915e-05
3.79536e-05
2.00919e-05
1.20447e-05
2.51484e-05
7.26068e-05
7.02019e-05
7.0838e-05
7.09736e-05
5.97775e-05
2.36407e-05
5.05839e-06
5.13217e-06
9.68937e-06
3.84587e-05
4.74399e-05
4.7439e-05
3.74759e-05
1.7997e-05
7.5613e-06
5.02575e-06
5.02503e-06
8.81275e-06
1.28052e-05
1.95457e-05
2.44544e-05
2.4456e-05
2.38103e-05
1.79014e-05
9.53312e-06
4.49953e-06
2.62836e-06
2.43565e-06
2.39697e-06
2.39698e-06
2.70432e-06
8.52371e-06
1.30271e-05
1.08964e-05
4.95457e-06
1.81719e-06
1.65405e-06
1.65405e-06
2.28251e-06
9.29971e-06
1.78408e-05
1.20385e-05
2.6655e-06
5.82955e-07
4.54871e-07
2.04368e-07
2.43079e-08
9.08014e-11
1.39227e-41
-1.57454e-30
0.00036024
0.0010561
0.0010561
0.00102904
0.000166764
5.61314e-06
3.77148e-06
3.7711e-06
3.7709e-06
3.77062e-06
3.77009e-06
3.77021e-06
3.76953e-06
7.12269e-06
8.84823e-05
3.46871e-05
0.000343024
0.000779028
0.000779011
0.000164808
4.09252e-05
4.08559e-05
3.48318e-05
2.50193e-05
0.000187118
0.000484068
0.000452738
0.000151958
2.35975e-05
7.30941e-06
7.30742e-06
1.36012e-05
8.29247e-05
0.000150411
0.000150412
0.000150411
0.0001112
4.81509e-05
2.04677e-05
1.0287e-05
2.91804e-06
2.00582e-06
9.3975e-06
0.000137103
0.000122653
9.89372e-05
1.16611e-05
2.03684e-05
4.0695e-05
4.0694e-05
2.24582e-05
6.3398e-06
5.4886e-06
5.48858e-06
8.85921e-06
1.91739e-05
1.74224e-05
1.38564e-05
1.25056e-05
3.81908e-05
5.24764e-05
3.74811e-05
3.81246e-05
0.000137561
0.000357005
0.000342392
0.000154062
4.15561e-05
6.94997e-05
0.000245276
0.000245464
4.6924e-05
9.22385e-07
9.10507e-07
9.10484e-07
9.10509e-07
9.10507e-07
1.8861e-05
3.93689e-05
3.21681e-05
1.86074e-05
1.06939e-05
5.83698e-06
1.39226e-06
1.14769e-06
1.47146e-06
4.23074e-06
7.18699e-06
6.42014e-06
3.42115e-06
2.29148e-06
7.4726e-06
6.39725e-05
0.000272329
0.0003875
0.000282071
0.000103854
9.3464e-06
8.0911e-06
8.09092e-06
1.08516e-05
2.36644e-05
5.30379e-05
7.09737e-05
7.09736e-05
4.01795e-05
9.22697e-06
6.11127e-06
1.94243e-05
2.82248e-05
4.30432e-05
4.77158e-05
4.77158e-05
4.38961e-05
2.35338e-05
7.16775e-06
3.89246e-06
5.89486e-06
2.33846e-05
2.50281e-05
2.5028e-05
2.29443e-05
1.75786e-05
1.30208e-05
7.59322e-06
3.06498e-06
2.43654e-06
2.39701e-06
2.39698e-06
2.39694e-06
2.39698e-06
3.85809e-06
5.47431e-06
4.6866e-06
2.35046e-06
1.65405e-06
1.65405e-06
1.65405e-06
1.65405e-06
5.33914e-06
1.7834e-05
1.5898e-05
5.32703e-06
1.44155e-07
1.14546e-11
1.40773e-10
4.11548e-10
1.63033e-10
3.99094e-12
1.58671e-25
0.000649235
0.0010561
0.0010561
0.0010561
0.000104651
5.09644e-06
5.09993e-06
4.66042e-06
3.79547e-06
3.77083e-06
4.33838e-06
3.7696e-06
3.77017e-06
2.78157e-05
6.76841e-05
3.46845e-05
0.000173511
0.000779011
0.000779019
0.000117168
5.046e-05
1.99349e-05
1.50112e-05
1.39141e-05
8.14223e-05
0.000414731
0.000260801
5.1332e-05
3.02929e-05
1.83418e-05
6.65422e-06
4.80714e-06
9.81332e-06
7.5028e-05
0.000144462
0.000141561
0.00014159
0.000103744
2.68458e-05
1.56793e-05
7.86466e-06
2.00553e-06
3.19796e-06
0.000137101
0.000137103
6.62512e-05
1.16513e-05
2.26377e-05
1.45029e-05
3.92835e-05
3.31305e-05
1.41681e-05
5.48855e-06
5.4886e-06
2.06896e-05
4.2339e-05
3.73629e-05
3.31959e-05
2.78863e-05
2.76323e-05
3.19069e-05
2.28751e-05
2.28772e-05
9.12698e-05
0.000177555
0.000141131
5.3818e-05
3.98898e-05
4.90385e-05
0.00017657
0.000209397
8.40631e-05
3.58555e-06
9.105e-07
1.25369e-06
1.3991e-06
1.09714e-06
7.18525e-06
8.06957e-05
8.0645e-05
5.75588e-05
2.9119e-05
1.5058e-05
4.65934e-06
3.64962e-06
4.62219e-06
1.16622e-05
1.68321e-05
1.48603e-05
8.15193e-06
6.68292e-06
2.77972e-05
0.000206348
0.000688545
0.00101465
0.00076236
0.000267455
1.53966e-05
8.09122e-06
8.0911e-06
8.09122e-06
1.02034e-05
2.07776e-05
4.79323e-05
6.70035e-05
4.94684e-05
1.51763e-05
7.19533e-06
1.11777e-05
1.40349e-05
1.72225e-05
3.27509e-05
4.77158e-05
4.77158e-05
4.44947e-05
1.73185e-05
3.89513e-06
4.87698e-06
1.40465e-05
2.26863e-05
2.00237e-05
1.14064e-05
6.46423e-06
7.15068e-06
8.71638e-06
8.71608e-06
7.86009e-06
4.92161e-06
4.25214e-06
3.5138e-06
2.53782e-06
2.10365e-06
2.10352e-06
2.08968e-06
2.08924e-06
1.82212e-06
1.65405e-06
1.65405e-06
1.65405e-06
2.66891e-06
1.35173e-05
1.97049e-05
9.9598e-06
1.08343e-06
5.66663e-14
5.66222e-14
1.75238e-11
3.08416e-11
5.9485e-12
7.19876e-25
0.00120009
0.000959261
0.0010561
0.000720384
3.98334e-05
1.24139e-05
1.70234e-05
2.11381e-05
1.58312e-05
6.35281e-06
8.30116e-06
7.32943e-06
4.15733e-06
9.34875e-05
4.32286e-05
3.46871e-05
7.50029e-05
0.00077901
0.000553065
0.000267853
0.000149712
6.43408e-05
8.83297e-06
5.74647e-06
3.43345e-05
0.000161508
9.25591e-05
1.98849e-05
1.45969e-05
1.89425e-05
1.3494e-05
4.24409e-06
3.93597e-06
1.46379e-05
4.47873e-05
3.53092e-05
2.4443e-05
4.50829e-05
3.99195e-05
2.05281e-05
1.0496e-05
3.2831e-06
2.0029e-06
8.59458e-05
0.000137101
4.20194e-05
1.94211e-05
6.68087e-06
5.7e-06
1.18465e-05
4.30461e-05
2.90051e-05
7.36157e-06
6.17285e-06
3.50064e-05
6.82793e-05
5.7241e-05
5.2902e-05
5.75841e-05
3.89561e-05
1.52164e-05
7.44992e-06
1.01913e-05
4.72937e-05
8.4344e-05
6.42076e-05
2.60594e-05
3.98645e-05
4.38008e-05
9.80269e-05
9.87158e-05
3.66352e-05
1.96812e-06
2.02066e-06
3.80132e-06
4.96501e-06
3.26759e-06
3.97133e-06
4.48819e-05
9.46142e-05
9.46179e-05
7.04378e-05
3.55806e-05
1.43914e-05
1.10649e-05
1.31615e-05
2.39195e-05
2.88911e-05
2.64595e-05
1.64433e-05
1.49779e-05
5.90855e-05
0.000371266
0.00104469
0.00125282
0.00125281
0.000638099
9.77758e-05
8.0914e-06
8.09122e-06
8.0914e-06
8.09153e-06
8.68516e-06
1.45818e-05
4.4769e-05
4.59311e-05
2.20723e-05
9.95595e-06
6.49233e-06
6.19309e-06
6.06555e-06
9.48885e-06
2.356e-05
3.36479e-05
2.51732e-05
1.5975e-05
7.35224e-06
7.18461e-06
1.06578e-05
1.29693e-05
1.07499e-05
5.54673e-06
2.81052e-06
3.04231e-06
5.67643e-06
9.80983e-06
9.81435e-06
9.76022e-06
1.08248e-05
1.00144e-05
8.32514e-06
4.20947e-06
2.10365e-06
2.72631e-06
4.6503e-06
4.65612e-06
3.54219e-06
2.17434e-06
1.65405e-06
1.87566e-06
8.01631e-06
1.97045e-05
1.81929e-05
4.76268e-06
3.70503e-09
3.02517e-17
2.41931e-15
3.61963e-13
6.09477e-13
6.96623e-14
0.00159346
0.000394435
0.000968318
0.000103445
2.25483e-05
2.25317e-05
4.01542e-05
5.20263e-05
3.91084e-05
1.58964e-05
6.7513e-06
7.76386e-06
4.87724e-06
0.000273512
3.89723e-05
3.49966e-05
4.36856e-05
0.000778994
0.000421844
0.000384153
0.000265962
0.000124734
1.95977e-05
1.92507e-06
1.02393e-05
2.91613e-05
2.0659e-05
1.02543e-05
7.9073e-06
8.85232e-06
5.39241e-06
3.93597e-06
3.93582e-06
5.02268e-06
7.6321e-06
5.60391e-06
5.52494e-06
2.02552e-05
3.82295e-05
1.77965e-05
1.48072e-05
5.81463e-06
2.00286e-06
2.78425e-05
0.00010088
2.01717e-05
1.08251e-05
5.69507e-06
5.69756e-06
5.7e-06
5.59257e-05
5.59674e-05
1.77047e-05
1.46607e-05
0.000100103
9.4795e-05
7.32324e-05
6.97693e-05
7.75811e-05
6.6762e-05
1.50417e-05
7.44766e-06
7.88619e-06
2.37534e-05
3.93616e-05
2.99884e-05
1.46813e-05
5.77053e-05
7.41319e-05
5.85787e-05
3.39809e-05
6.4306e-06
3.73725e-07
1.01497e-06
6.57452e-06
8.5238e-06
8.02939e-06
4.2768e-06
1.3026e-05
8.3688e-05
9.46168e-05
9.46205e-05
7.13492e-05
3.77214e-05
2.24678e-05
2.51018e-05
3.63074e-05
3.98362e-05
3.97815e-05
3.19053e-05
2.72992e-05
9.17748e-05
0.000495823
0.00114072
0.00125281
0.00125284
0.000982575
0.000313838
1.3409e-05
8.0914e-06
8.09153e-06
8.23972e-06
1.41392e-05
1.41448e-05
3.22855e-05
5.56097e-05
5.35428e-05
3.7975e-05
2.02037e-05
9.21594e-06
1.64228e-06
1.0577e-06
4.30128e-06
8.9306e-06
8.97435e-06
8.52799e-06
8.48911e-06
7.40613e-06
7.105e-06
6.90059e-06
5.79826e-06
2.85052e-06
1.58239e-06
1.58244e-06
1.67218e-06
3.0101e-06
6.95458e-06
1.21475e-05
1.35637e-05
1.4287e-05
1.4287e-05
1.06762e-05
4.21285e-06
5.1865e-06
8.06895e-06
7.6225e-06
5.49876e-06
3.92285e-06
2.56406e-06
1.87742e-06
3.13263e-06
1.43152e-05
1.81904e-05
1.14188e-05
1.2751e-06
2.28025e-17
2.04778e-18
3.11116e-17
6.66264e-15
6.36668e-15
0.00167518
0.000277544
0.000309761
5.07571e-05
2.30272e-05
4.55483e-05
8.05339e-05
8.17641e-05
6.64011e-05
2.32788e-05
4.81508e-06
4.82095e-06
5.74792e-06
0.000274558
0.000105009
0.000198269
5.73748e-05
0.00044297
0.000363351
0.000384461
0.0003526
0.000184135
3.28194e-05
1.92545e-06
2.23351e-06
6.30459e-06
8.41946e-06
6.81899e-06
5.56024e-06
5.9307e-06
4.24592e-06
3.93582e-06
3.93557e-06
3.9356e-06
4.03002e-06
3.93582e-06
3.93596e-06
8.24899e-06
2.43167e-05
2.04897e-05
7.80024e-06
4.95575e-06
2.0029e-06
4.93319e-06
1.99062e-05
6.0381e-06
5.31987e-06
5.69251e-06
5.69507e-06
5.69756e-06
4.82177e-05
0.000103436
9.7001e-05
0.000106181
0.000122822
0.000109878
8.28698e-05
8.01547e-05
8.45328e-05
8.454e-05
4.78691e-05
9.98054e-06
7.88834e-06
1.35448e-05
2.04078e-05
1.65406e-05
1.32396e-05
1.39764e-05
7.41696e-05
3.31614e-05
5.33094e-06
5.96041e-07
2.635e-07
2.50268e-07
1.53477e-06
9.98811e-06
1.05317e-05
6.09912e-06
6.25598e-06
3.13079e-05
9.36912e-05
9.46194e-05
9.46205e-05
7.68484e-05
5.02676e-05
3.6286e-05
4.27224e-05
4.59369e-05
4.94352e-05
7.47291e-05
7.99349e-05
0.000158295
0.000615015
0.00118921
0.00125285
0.00125284
0.00125284
0.000742172
0.000165438
1.50488e-05
1.21563e-05
2.32155e-05
4.35595e-05
4.03566e-05
3.87207e-05
6.61279e-05
6.83597e-05
6.83609e-05
5.44096e-05
2.35623e-05
2.41137e-06
8.57605e-07
9.7069e-07
1.99113e-06
2.84196e-06
4.83276e-06
6.11045e-06
5.5415e-06
4.90071e-06
4.86852e-06
4.80912e-06
4.80846e-06
3.80218e-06
1.74054e-06
1.25103e-06
1.25094e-06
1.45427e-06
1.74048e-06
2.7461e-06
1.06492e-05
1.78541e-05
1.79663e-05
1.62417e-05
1.5564e-05
1.51819e-05
1.08361e-05
5.67261e-06
4.43859e-06
4.17207e-06
3.11917e-06
3.07636e-06
5.10937e-06
1.33198e-05
1.33206e-05
8.30016e-06
1.21416e-06
2.04961e-18
3.68405e-18
3.39611e-16
2.54804e-16
0.00136044
0.000605337
7.34874e-05
6.86283e-05
0.000114012
0.000103424
9.91461e-05
6.16447e-05
3.72283e-05
3.23361e-05
7.36713e-06
4.22508e-06
3.01387e-05
0.000223743
0.000170261
0.000469822
0.000171003
0.000112056
0.000200225
0.000138785
6.10749e-05
2.84925e-05
1.45533e-05
3.1399e-06
7.04073e-07
1.68712e-06
3.95454e-06
3.4466e-06
2.89938e-06
5.44447e-06
7.28561e-06
6.99641e-06
5.43242e-06
3.93555e-06
3.93566e-06
3.93555e-06
3.93582e-06
3.93596e-06
1.35372e-05
1.90176e-05
1.20568e-05
6.76532e-06
2.64773e-06
1.96255e-06
1.96254e-06
2.46685e-06
9.73614e-06
9.576e-06
5.69756e-06
5.7e-06
6.52694e-06
4.67322e-05
0.000128701
0.000128697
8.42276e-05
9.29108e-06
6.6213e-06
6.47822e-06
6.47241e-06
4.00152e-05
5.10565e-05
4.48495e-05
1.55062e-05
7.54589e-06
8.87926e-06
1.17327e-05
1.32387e-05
1.32396e-05
5.49073e-05
6.44812e-05
1.73158e-05
4.70324e-06
1.76662e-06
1.68726e-07
1.59671e-07
1.22407e-06
8.8345e-06
1.1139e-05
6.25355e-06
7.94822e-06
4.3356e-05
9.46231e-05
9.46193e-05
9.46205e-05
9.00284e-05
5.62864e-05
2.20372e-05
4.86196e-06
4.59645e-06
1.82871e-05
0.000236001
0.000992557
0.00125281
0.00125287
0.00125283
0.00125287
0.00125282
0.00119725
0.000483498
5.89102e-05
4.5943e-05
5.6603e-05
5.76858e-05
5.80302e-05
5.8042e-05
6.12267e-05
6.83609e-05
6.83597e-05
6.19306e-05
2.94213e-05
5.86969e-06
8.57605e-07
8.57605e-07
8.57605e-07
3.134e-06
8.06015e-06
9.05689e-06
7.50714e-06
6.12438e-06
6.74886e-06
9.89724e-06
1.09895e-05
8.82329e-06
4.35546e-06
1.38425e-06
1.24661e-06
1.24661e-06
1.24661e-06
1.24661e-06
1.24661e-06
1.8823e-06
1.24649e-05
2.29684e-05
2.42235e-05
2.258e-05
1.66289e-05
8.36309e-06
5.60908e-06
5.42901e-06
5.11181e-06
3.38843e-06
1.34314e-06
2.70221e-06
6.50594e-06
4.3104e-06
1.39788e-06
2.55879e-08
2.02343e-21
1.50935e-28
8.50389e-22
0.000328715
0.000316876
0.000102626
0.000201874
0.000298141
0.000227849
9.59491e-05
1.56817e-05
6.37336e-06
1.83727e-05
1.50858e-05
4.22508e-06
5.58956e-05
5.59635e-05
0.000270489
0.000516133
0.000324871
0.000112017
0.000121718
4.78456e-05
2.20328e-05
1.49588e-05
8.34494e-06
2.95853e-06
6.99167e-07
1.17071e-06
2.32985e-06
2.07435e-06
1.70482e-06
2.85244e-06
1.42255e-05
1.93097e-05
2.00768e-05
1.30068e-05
7.54078e-06
8.77612e-06
9.31136e-06
7.54131e-06
8.22165e-06
1.78005e-05
2.26252e-05
2.0792e-05
7.84057e-06
1.96255e-06
1.96255e-06
4.80088e-06
1.93833e-05
1.95907e-05
1.27107e-05
5.76419e-06
5.76362e-06
1.05229e-05