/*--------------------------------*- C++ -*----------------------------------*\
| =========                 |                                                 |
| \\      /  F ield         | OpenFOAM: The Open Source CFD Toolbox           |
|  \\    /   O peration     | Version:  v1912                                 |
|   \\  /    A nd           | Website:  www.openfoam.com                      |
|    \\/     M anipulation  |                                                 |
\*---------------------------------------------------------------------------*/
FoamFile
{
    version     2.0;
    format      ascii;
    class       surfaceScalarField;
    location    "90";
    object      alphaPhi0.water;
}
// * * * * * * * * * * * * * * * * * * * * * * * * * * * * * * * * * * * * * //

dimensions      [0 3 -1 0 0 0 0];
oriented        oriented;


internalField   nonuniform List<scalar> 
28285
(
-1.78648e-07
-2.47984e-08
-2.16487e-07
5.18637e-08
-2.29818e-07
2.08528e-08
-1.45173e-07
7.4109e-10
-1.10081e-07
-1.0394e-08
-7.18486e-08
-3.52747e-08
-3.70217e-08
-3.77842e-08
-3.67539e-09
-3.03889e-08
3.98688e-08
-7.22931e-08
5.41856e-08
-2.95785e-08
6.10599e-08
4.42663e-09
2.22412e-08
4.20574e-08
-1.84753e-08
3.74705e-08
-6.73569e-09
-1.04196e-08
1.493e-08
-2.10815e-08
4.66458e-08
-3.23e-08
6.19957e-08
-1.47658e-08
8.00115e-08
2.76159e-08
1.26934e-08
7.89351e-08
5.54085e-08
-1.48061e-08
1.15749e-07
-1.58204e-08
1.66974e-07
-1.52029e-08
2.28943e-07
-1.10592e-08
2.94183e-07
-1.14115e-08
2.99646e-07
-7.33206e-11
2.76688e-07
1.75688e-08
2.16159e-07
4.61639e-09
1.79829e-07
-1.0643e-08
2.03346e-07
-1.06984e-08
2.34434e-07
-1.15273e-08
2.66456e-07
-1.2457e-08
2.99978e-07
-1.57792e-08
3.43213e-07
-2.37434e-08
3.57003e-07
-2.15543e-08
2.89609e-07
-1.1213e-08
2.19031e-07
-1.18374e-08
2.33157e-07
-1.07933e-08
2.71304e-07
-6.65481e-09
2.827e-07
-2.09981e-09
2.85258e-07
5.79049e-09
2.64913e-07
1.20183e-08
2.30755e-07
1.40944e-08
1.74012e-07
2.88032e-08
6.07203e-08
8.6489e-08
-7.92211e-08
1.33916e-07
2.32813e-08
-1.01932e-07
1.28684e-07
-1.16351e-07
1.06402e-07
-1.0099e-07
1.18962e-07
-1.59146e-07
7.62487e-08
-7.6278e-08
2.78885e-08
-1.07911e-08
1.01905e-08
-2.62678e-13
8.49031e-09
1.7e-09
6.34061e-09
2.1499e-09
4.17739e-09
2.16303e-09
8.55674e-09
-2.86456e-09
2.87749e-08
-2.43839e-08
4.33333e-08
-3.83601e-08
5.07021e-08
-1.95442e-08
4.55809e-08
-4.61309e-09
5.09283e-08
5.5623e-09
5.57038e-08
4.3681e-09
5.57926e-08
-4.44784e-09
3.03897e-08
-3.04795e-09
4.59945e-09
-6.80351e-11
1.16404e-09
-2.24994e-14
1.63e-09
4.72437e-12
5.66409e-09
-1.17839e-10
8.06414e-09
-5.70943e-10
7.51348e-09
9.05853e-10
3.95559e-09
2.77308e-09
2.60674e-09
8.26641e-10
3.24343e-09
-2.24782e-10
4.0651e-09
-1.10814e-09
4.56938e-09
-1.41985e-09
4.80559e-09
-1.36314e-09
4.91807e-09
-7.24873e-10
1.51732e-08
4.85591e-10
1.75412e-07
6.30318e-09
2.24499e-07
9.84177e-09
2.09923e-07
3.23141e-08
1.19818e-07
-3.35886e-09
4.43632e-08
-3.07548e-09
2.09856e-08
-1.78755e-12
3.17004e-08
-1.19434e-09
5.9359e-08
8.36487e-10
1.01484e-07
1.82329e-09
1.55205e-07
-3.01582e-09
1.79008e-07
-7.24132e-09
1.68735e-07
-5.65001e-10
1.66354e-07
1.1353e-08
1.53268e-07
2.31869e-09
1.5446e-07
9.54168e-10
1.4684e-07
-1.07379e-08
8.83616e-08
-1.67554e-08
7.67511e-08
-2.38685e-08
6.77859e-08
-1.21408e-08
4.86277e-08
-5.73448e-09
2.56197e-08
-3.96418e-10
1.8652e-08
2.19086e-09
1.74234e-08
2.36889e-09
3.16792e-08
5.51926e-10
6.72084e-08
1.48278e-10
1.79039e-07
-2.02006e-09
3.16573e-07
-3.44708e-09
3.09685e-07
6.88755e-09
3.02384e-07
7.30179e-09
2.28258e-07
-3.1036e-10
8.48107e-08
9.47532e-09
1.93353e-08
5.90089e-09
6.0067e-08
1.4119e-09
5.85296e-08
2.9396e-09
5.35432e-08
3.58416e-09
4.86321e-08
7.2601e-10
4.25632e-08
-7.24851e-10
3.82609e-08
-1.52453e-09
3.52615e-08
-1.48179e-09
3.2329e-08
-5.16532e-10
3.12123e-08
1.86217e-10
3.06294e-08
3.7226e-10
3.10384e-08
3.51232e-10
3.37328e-08
3.42862e-10
3.86578e-08
1.14037e-10
4.51619e-08
6.66236e-11
5.34258e-08
-4.37852e-10
6.1072e-08
-2.09129e-10
6.47535e-08
-9.24336e-10
6.89011e-08
-1.39049e-09
7.62714e-08
-3.1897e-09
9.18621e-08
-3.26854e-09
1.25261e-07
-2.54132e-09
1.39746e-07
3.56975e-09
1.34572e-07
4.68043e-09
1.32587e-07
1.48643e-09
1.4337e-07
-2.25596e-09
1.93057e-07
-1.77705e-09
2.08488e-07
1.57146e-09
2.09658e-07
-1.16518e-09
2.12394e-07
-2.74112e-09
2.16811e-07
-4.41153e-09
1.26321e-07
-1.03787e-10
2.84611e-08
2.96121e-09
0
4.22151e-10
0
0
-4.99737e-32
-5.23146e-33
-1.07773e-31
-1.13954e-32
-1.24339e-31
-9.11209e-33
-1.03305e-31
-5.41411e-33
-6.91849e-32
-3.28557e-33
-1.71023e-33
-3.96451e-32
-1.54351e-07
-2.44002e-08
-9.82888e-08
1.78097e-08
-1.0888e-07
2.89013e-09
-1.98963e-07
3.53398e-09
-2.63543e-07
-3.643e-08
-1.65992e-07
-1.47271e-07
-9.41641e-08
-7.43232e-08
-6.41401e-08
-3.55825e-08
2.0267e-08
-1.2631e-07
1.3698e-07
-1.23588e-07
7.07839e-08
-1.89841e-08
3.84058e-08
-9.76981e-13
4.38466e-08
2.87835e-08
1.72737e-08
8.60137e-09
4.07195e-08
-1.07411e-07
6.11554e-08
-1.1678e-07
6.63427e-08
-1.65501e-08
6.66039e-08
5.9945e-08
1.36758e-08
1.20538e-07
1.64102e-08
-1.70496e-08
2.95499e-08
-2.84818e-08
4.36906e-08
-2.88779e-08
5.13835e-08
-1.85074e-08
6.77981e-08
-1.78131e-08
1.33653e-07
-6.64041e-09
1.56669e-07
5.83537e-09
1.16806e-07
-1.32315e-12
6.1803e-08
-2.52211e-09
5.3944e-08
-1.08347e-08
5.91891e-08
-1.79666e-08
7.16105e-08
-2.32386e-08
8.73182e-08
-2.65056e-08
1.09971e-07
-3.25512e-08
1.23625e-07
-2.84491e-08
1.00486e-07
-6.23251e-13
6.08601e-08
-4.16051e-09
5.275e-08
-1.02903e-08
5.6679e-08
-1.42888e-08
5.92443e-08
-9.60105e-10
7.0846e-08
6.41912e-09
1.11169e-07
1.38406e-08
1.25851e-07
1.92503e-08
1.39837e-07
1.29869e-08
9.17947e-08
9.39343e-08
-3.29165e-08
2.55661e-07
3.63067e-08
-1.7718e-07
1.02661e-07
-8.30017e-08
1.52787e-07
-5.88302e-08
2.09951e-07
-1.64179e-07
2.93461e-07
-1.08981e-07
1.13541e-07
-6.34357e-08
9.27139e-09
-5.94353e-09
8.44007e-09
4.76395e-09
7.89534e-09
1.18534e-08
2.61826e-08
3.10032e-08
8.54427e-08
-2.61553e-08
1.55561e-07
-7.30354e-08
2.33582e-07
-1.02969e-07
2.98282e-07
-8.25065e-08
3.38931e-07
-2.28824e-08
3.57533e-07
4.68084e-08
3.69987e-07
4.90461e-08
3.64581e-07
-7.62326e-09
2.13529e-07
-1.04552e-08
4.47578e-08
1.67257e-09
1.2398e-09
-1.27068e-09
1.23971e-09
-4.75333e-12
1.33892e-09
-2.0749e-10
4.66176e-09
1.74615e-10
6.80394e-09
7.46056e-10
4.17269e-09
4.28343e-09
6.53744e-09
7.25807e-09
1.75392e-08
-7.64634e-10
2.02446e-08
-2.32619e-09
2.2672e-08
-4.1157e-09
2.03684e-08
-8.77364e-09
9.86329e-09
-2.04694e-09
1.27965e-08
1.00545e-09
9.09156e-08
2.29851e-09
2.33757e-07
3.98515e-08
2.05587e-07
4.2747e-08
1.99219e-07
-3.00566e-08
1.03619e-07
-4.13161e-08
1.79589e-08
-9.09117e-09
1.6396e-08
-1.50167e-10
1.66452e-08
7.27989e-11
1.74293e-08
-4.30658e-15
2.22095e-08
-1.35769e-09
6.76599e-08
-5.30523e-09
1.61534e-07
-2.5993e-09
1.69598e-07
6.61281e-09
1.64887e-07
1.59383e-08
1.2876e-07
4.38922e-09
1.15993e-07
-2.23955e-09
1.26774e-07
-5.68111e-09
1.31673e-07
-1.61517e-08
1.40924e-07
-1.64765e-08
1.07226e-07
-2.07437e-08
4.23701e-08
-3.24567e-09
1.80626e-08
3.14024e-09
1.68382e-08
4.63926e-09
1.6692e-08
1.83364e-09
2.21199e-08
-1.62071e-10
3.17177e-08
-1.66683e-09
7.11142e-08
-2.67181e-09
2.17137e-07
1.13733e-09
2.91691e-07
8.70129e-09
2.95562e-07
1.41819e-08
1.57218e-07
2.22257e-08
4.36852e-08
1.692e-08
4.09555e-08
3.69998e-09
4.1781e-08
1.21653e-09
4.20524e-08
1.92275e-09
3.47314e-08
7.78516e-10
2.42577e-08
1.42416e-11
1.75418e-08
-8.53941e-10
1.54163e-08
-8.66915e-10
1.49485e-08
-2.67661e-10
1.37202e-08
3.39327e-11
1.14336e-08
3.64562e-15
9.89005e-09
3.05671e-15
9.7168e-09
1.74088e-15
1.04236e-08
6.39882e-16
1.33515e-08
3.40341e-16
1.63885e-08
-6.23939e-10
1.68525e-08
-4.38726e-10
1.69651e-08
-1.60205e-09
1.63218e-08
-2.44436e-09
1.63238e-08
-5.09634e-09
1.74272e-08
-5.70843e-09
2.10343e-08
-2.13673e-09
4.12266e-08
-1.08408e-14
4.69928e-08
3.78856e-10
3.78443e-08
5.70739e-11
2.41756e-08
-3.00385e-10
2.42675e-08
-2.8169e-10
3.48207e-08
-5.47179e-15
7.84016e-08
-4.42522e-10
1.6257e-07
-2.13764e-09
1.84486e-07
-4.46564e-09
1.82965e-07
5.65409e-09
7.38273e-08
5.24366e-09
1.38933e-20
4.63799e-09
1.42549e-32
2.23092e-21
-1.38806e-40
9.02334e-33
-2.6876e-31
-5.47427e-32
-3.32463e-31
-4.78479e-32
-2.32796e-31
-2.42301e-32
-1.27488e-31
-1.20873e-32
-5.36757e-33
-6.21879e-32
-8.11353e-08
-8.42268e-09
-9.24066e-08
1.44777e-08
-1.98622e-07
9.44532e-08
-4.45983e-07
4.98512e-08
-4.0853e-07
-2.03255e-07
-2.94198e-07
-2.11496e-07
-1.51877e-07
-1.66605e-07
1.53296e-08
-1.3379e-07
8.05043e-08
-1.62795e-07
5.34955e-08
-9.21433e-08
3.09485e-08
-2.02011e-08
9.60077e-09
2.27654e-12
5.72668e-09
4.52384e-09
1.24353e-09
6.84681e-09
7.33431e-08
-1.75668e-07
1.67322e-07
-2.06796e-07
1.07115e-07
-4.04701e-08
3.42726e-08
1.18895e-07
1.65977e-08
2.0347e-07
2.91501e-08
-6.76643e-08
3.44767e-08
-1.30544e-07
2.63286e-08
-5.27513e-08
3.11101e-08
-2.32847e-08
3.88566e-08
-2.55638e-08
4.03967e-08
-8.1763e-09
3.9109e-08
7.11882e-09
3.86967e-08
7.59976e-11
3.52025e-08
-1.47918e-13
3.81519e-08
-1.3767e-08
4.22287e-08
-2.20531e-08
4.79211e-08
-2.8914e-08
5.4392e-08
-3.29862e-08
5.97492e-08
-3.78914e-08
7.32801e-08
-2.39924e-08
1.3943e-07
-1.63084e-08
1.81016e-07
-3.34767e-08
2.05527e-07
-6.06004e-08
1.68084e-07
-5.19547e-08
9.62856e-08
-1.27628e-08
7.20803e-08
1.46091e-08
6.39494e-08
1.65735e-08
6.09323e-08
2.76653e-08
8.60641e-08
8.5216e-08
1.09088e-07
4.27677e-08
3.81163e-08
3.21497e-07
2.29005e-08
-8.75604e-08
1.71505e-08
-2.86665e-08
2.96842e-08
-1.66582e-08
1.21013e-07
-3.30006e-08
2.13368e-07
-1.05115e-07
2.61785e-07
-6.49394e-08
7.70462e-08
-4.79573e-10
2.36013e-08
1.8708e-08
1.47905e-08
4.67267e-08
9.56218e-08
6.51139e-08
2.00391e-07
-5.85164e-08
3.00339e-07
-6.98545e-08
4.49202e-07
-9.30574e-08
6.67601e-07
-1.51769e-07
7.47672e-07
-4.5965e-08
7.29088e-07
6.54382e-08
7.3256e-07
4.5529e-08
7.45675e-07
-2.06936e-08
4.76345e-07
-2.96905e-08
1.99775e-07
-7.91626e-09
2.34569e-09
-5.91949e-09
1.19424e-09
-4.99093e-09
1.28215e-09
9.4499e-14
1.66514e-09
4.0116e-14
1.86847e-09
1.1074e-09
5.66563e-09
6.87345e-09
2.29144e-08
1.11544e-08
3.56542e-08
-2.14418e-09
3.82911e-08
-4.32207e-09
4.0903e-08
-6.24213e-09
4.41058e-08
-1.24619e-08
2.40864e-08
-4.0725e-09
1.85439e-08
1.99015e-09
4.07462e-08
4.56322e-10
1.87443e-07
2.11021e-08
2.20565e-07
5.97711e-08
2.30575e-07
-2.53285e-08
2.47665e-07
-7.51035e-08
8.01949e-08
-5.63437e-08
4.57961e-09
-6.10579e-09
4.29174e-09
4.84984e-10
4.38119e-09
4.12656e-11
7.25908e-09
-6.85252e-10
2.83614e-08
-3.1921e-09
9.31443e-08
-1.44006e-09
1.16652e-07
5.44608e-09
1.01558e-07
4.9218e-09
4.62483e-08
5.4028e-10
1.88406e-08
-1.38737e-09
1.98528e-08
-1.6316e-09
6.10341e-08
-3.5061e-09
1.22449e-07
-1.66753e-08
1.51184e-07
-2.60551e-08
1.19997e-07
-1.01682e-09
3.45947e-08
1.553e-08
1.63517e-08
9.62509e-09
1.40358e-08
3.71311e-09
1.45507e-08
-2.40523e-10
1.56618e-08
-3.2144e-09
1.97391e-08
-3.27982e-13
5.36053e-08
1.88038e-09
1.73777e-07
1.19065e-09
2.40073e-07
7.50554e-09
2.38917e-07
3.68684e-08
1.33248e-07
2.51947e-08
2.96717e-08
1.0404e-08
4.47775e-09
4.32204e-09
1.63429e-08
2.449e-11
1.57492e-08
4.76387e-10
1.22038e-08
1.22854e-10
8.30955e-09
-2.40366e-10
6.25992e-09
-4.47017e-10
6.01025e-09
-1.20244e-10
5.72288e-09
1.14631e-14
5.03057e-09
1.3777e-11
4.35212e-09
1.0821e-11
4.26866e-09
4.32391e-12
4.67914e-09
3.64804e-12
7.69556e-09
1.49841e-12
1.4132e-08
-3.57422e-10
1.71849e-08
-6.26059e-10
1.4475e-08
-2.72299e-09
1.12193e-08
-1.94741e-09
1.1592e-08
-4.91199e-09
1.06293e-08
-9.80899e-09
6.37869e-09
-3.39126e-09
6.00001e-09
-2.13761e-10
5.55491e-09
2.69497e-10
5.05324e-09
-6.72258e-11
5.10252e-09
-4.9182e-12
4.88922e-09
-4.13139e-10
7.39277e-09
3.09021e-10
1.90899e-08
-1.78247e-10
4.98745e-08
-8.92757e-10
1.07912e-07
-1.20653e-09
1.24687e-07
2.63143e-09
1.2194e-07
9.52592e-09
3.66703e-08
1.55654e-08
7.97071e-21
3.8788e-09
5.47429e-32
2.87985e-21
-1.46026e-40
-4.70369e-41
-2.56328e-31
-5.37715e-32
-1.79207e-31
-2.76851e-32
-8.62242e-32
-1.22333e-32
-5.23791e-33
-4.04625e-32
-2.91367e-08
-6.73786e-09
-3.80895e-08
1.48617e-10
-2.64828e-07
1.38136e-07
-3.13265e-07
7.80845e-08
-1.19787e-07
-2.46371e-07
-5.58443e-09
-2.97448e-07
3.46746e-08
-2.18801e-07
5.21071e-08
-1.33338e-07
5.77425e-08
-1.69521e-07
4.30442e-08
-6.01998e-08
3.83238e-08
-1.40826e-08
6.73451e-09
1.25326e-08
1.88014e-09
-1.8477e-13
5.19383e-10
1.16116e-11
4.72036e-08
-4.70727e-08
1.90061e-07
-3.45812e-07
1.3559e-07
-3.28762e-07
2.75511e-08
2.12884e-07
4.19372e-08
1.74235e-07
8.55336e-08
-1.63623e-07
1.61971e-07
-3.30813e-07
1.27857e-07
-2.57847e-07
6.42064e-08
-9.84558e-08
4.03576e-08
-6.89486e-08
5.04004e-08
-9.58021e-09
4.32688e-08
1.42546e-08
3.85256e-08
2.15703e-08
6.59704e-08
-3.79674e-09
1.09813e-07
-3.31778e-08
1.70324e-07
-7.63766e-08
2.02505e-07
-8.13057e-08
2.14953e-07
-5.89188e-08
2.4747e-07
-7.26203e-08
3.1636e-07
-7.25851e-08
4.08143e-07
-4.10536e-08
4.86193e-07
-5.04971e-08
5.28599e-07
-8.6285e-08
5.70875e-07
-8.75063e-08
4.76982e-07
-6.794e-08
1.90422e-07
9.72465e-08
9.84867e-08
1.006e-07
8.08677e-08
1.16568e-07
7.66222e-08
1.45913e-07
6.10314e-08
3.19775e-08
9.83984e-08
8.80642e-08
1.20089e-08
-2.86942e-08
4.64827e-09
-1.39879e-08
5.28399e-09
-9.27212e-09
1.01836e-08
-1.22372e-08
8.12613e-08
-3.45119e-08
1.89179e-07
-1.13197e-07
1.09384e-07
-1.90643e-08
3.62641e-08
5.07601e-08
9.14799e-08
1.19086e-07
1.09996e-07
1.34579e-07
4.28665e-08
-1.70248e-08
2.82914e-08
-1.65866e-08
4.16322e-08
-2.97164e-08
1.98465e-07
-5.91328e-08
3.73968e-07
-2.72039e-08
3.63505e-07
8.24643e-09
2.05629e-07
-2.41066e-12
1.63486e-07
-5.76637e-09
2.45591e-07
-1.17315e-08
2.31481e-07
-3.52099e-09
1.73461e-07
-4.04762e-09
1.2381e-07
-1.95732e-08
1.06341e-07
-7.37356e-08
3.6299e-08
-3.51687e-08
6.11794e-09
9.63192e-09
4.50953e-09
1.55472e-08
1.67498e-08
1.48505e-08
9.51232e-09
-9.7402e-10
6.1733e-09
-1.00945e-09
9.60562e-09
-1.44603e-09
2.95832e-08
-1.00691e-08
3.40883e-08
-7.88507e-09
2.36719e-08
2.96237e-09
1.83496e-08
4.77339e-09
8.5523e-08
3.92408e-09
1.77142e-07
1.9373e-08
2.10221e-07
-1.5246e-08
1.98428e-07
-6.94707e-08
2.12347e-07
-4.49513e-08
4.64819e-08
-5.85915e-09
3.7553e-09
2.02333e-09
3.20783e-09
4.9452e-10
3.32845e-09
-7.11652e-10
1.16924e-08
-1.97431e-09
4.51471e-08
-1.09733e-09
6.03109e-08
2.16646e-09
5.33493e-08
2.37138e-09
2.13716e-08
6.75957e-10
3.75833e-09
-6.97703e-10
3.6158e-09
-7.13911e-10
7.51285e-09
-1.07863e-09
5.10599e-08
-3.92179e-09
1.57828e-07
-3.45849e-08
1.36982e-07
-2.45208e-08
5.90063e-08
2.42428e-08
1.88226e-08
2.28661e-08
1.7506e-08
1.28284e-08
2.39684e-08
-8.39661e-10
2.15795e-08
-7.86052e-09
1.86234e-08
-2.40481e-09
1.69577e-08
2.54193e-11
4.31145e-08
2.35035e-13
1.48368e-07
1.20911e-09
1.92673e-07
1.68316e-08
1.94894e-07
3.50031e-08
1.32068e-07
4.29545e-09
3.09221e-08
1.86746e-08
4.10474e-09
3.84125e-09
4.45864e-09
-3.12324e-11
4.37093e-09
5.64863e-11
3.93421e-09
-1.4052e-10
3.64685e-09
-3.5159e-10
3.52576e-09
-6.02092e-11
3.15542e-09
1.55584e-10
2.75858e-09
2.94767e-10
2.52289e-09
1.81916e-10
2.46573e-09
1.42847e-10
2.52363e-09
5.23032e-11
2.99544e-09
5.26567e-12
5.59937e-09
-1.25452e-10
1.3956e-08
-1.71109e-10
2.41894e-08
-5.6408e-10
3.16781e-08
-1.38721e-09
3.22514e-08
-4.20094e-09
3.43377e-08
-1.06161e-08
1.89673e-08
-3.89762e-10
6.71617e-09
1.35858e-09
4.81513e-09
1.61624e-09
5.16579e-09
1.55774e-09
7.99916e-09
-6.13724e-10
8.17738e-09
-9.96648e-10
7.82623e-09
6.89085e-10
8.00586e-09
-3.28438e-10
1.00855e-08
-1.13725e-13
2.07576e-08
-7.63261e-10
5.54295e-08
6.37732e-15
7.52999e-08
2.07066e-09
5.99291e-08
4.70659e-09
6.64235e-09
1.27673e-08
4.71493e-23
6.06614e-10
-7.31467e-29
4.70288e-23
-7.21084e-31
-1.95904e-31
-2.1672e-31
-4.41361e-32
-5.50279e-32
-1.03809e-32
-3.70584e-33
-2.14788e-32
-2.35485e-08
-9.17521e-09
-1.00739e-07
3.64062e-08
-3.39013e-07
1.5268e-07
-2.03411e-07
1.44006e-08
-2.93383e-08
-2.38138e-07
3.20327e-08
-5.21416e-07
4.93336e-08
-2.19289e-07
4.00635e-08
-1.0502e-07
5.3726e-08
-1.31091e-07
2.3024e-08
-1.96639e-08
2.43805e-08
-1.62027e-09
1.51937e-08
3.55479e-08
1.43961e-09
4.37731e-09
-7.56421e-10
4.63772e-09
4.32157e-09
-3.02569e-08
1.28272e-07
-1.29641e-07
1.81918e-07
-1.82443e-07
7.88019e-08
1.09814e-07
3.81967e-08
1.15663e-07
1.28724e-07
-2.60879e-07
2.28473e-07
-4.37419e-07
3.0693e-07
-3.43038e-07
2.5848e-07
-1.24487e-07
1.69924e-07
-2.79974e-07
9.37294e-08
-3.22274e-08
8.91038e-08
1.89532e-08
8.77107e-08
5.82386e-08
1.46422e-07
-5.67978e-09
2.01878e-07
-6.59949e-08
2.83074e-07
-1.57568e-07
3.21108e-07
-1.19344e-07
3.54056e-07
-6.70396e-08
4.26298e-07
-6.6783e-08
5.74439e-07
-7.8437e-08
6.37249e-07
-4.85015e-08
6.94761e-07
-5.27138e-08
7.99617e-07
-5.73567e-08
8.77259e-07
-9.93651e-08
9.06263e-07
-4.18475e-08
7.12954e-07
2.57866e-07
5.17248e-07
3.05636e-07
2.80641e-07
3.3999e-07
3.28158e-08
3.44043e-07
2.66422e-08
1.29943e-09
4.55599e-08
6.40616e-09
8.53139e-09
-7.47276e-09
3.08153e-09
-4.55139e-09
1.88421e-09
-4.94254e-09
3.1261e-09
-4.31803e-09
1.8771e-08
-1.30105e-08
8.83031e-08
-7.35914e-08
1.4914e-07
-2.60911e-08
1.15517e-07
7.65062e-08
1.18998e-07
1.66422e-07
6.26127e-08
3.66019e-08
1.33768e-08
-6.85259e-09
1.09042e-08
-1.66812e-08
1.65803e-08
-3.28252e-08
7.37243e-08
-3.4673e-08
1.34897e-07
-1.83973e-08
1.26946e-07
-3.09741e-14
8.05234e-08
5.10363e-09
7.40749e-08
-9.2546e-09
9.62963e-08
-4.16883e-12
2.4493e-07
-8.35592e-09
3.35349e-07
-5.07592e-09
4.79976e-07
-7.75341e-08
5.50292e-07
-2.99104e-07
2.56042e-07
-7.7963e-08
1.69119e-08
8.82739e-08
1.14704e-08
5.37473e-08
1.20352e-08
3.33518e-09
2.40203e-09
-3.16399e-10
1.52917e-09
-1.08638e-09
1.82266e-09
-1.21482e-09
1.90729e-08
-7.298e-09
3.36194e-08
-1.90962e-08
2.47024e-08
4.78878e-09
1.75431e-08
1.07181e-08
2.2288e-08
5.65925e-09
6.53097e-08
-4.17596e-13
8.1034e-08
-5.60515e-10
1.191e-07
-2.24002e-08
1.50661e-07
-5.25039e-08
1.16653e-07
-4.39666e-08
1.06713e-08
9.57036e-09
3.19229e-09
7.28835e-10
3.30949e-09
-9.23066e-10
5.16104e-09
-1.16335e-09
1.9276e-08
-4.96997e-10
2.58912e-08
8.73209e-10
2.35452e-08
9.33688e-10
1.08496e-08
3.64051e-10
2.06512e-09
-4.73386e-10
1.6781e-09
-8.39519e-10
2.03004e-09
-8.01976e-10
1.01867e-08
-1.64294e-09
5.16425e-08
-1.26573e-08
1.71721e-07
-2.90371e-08
1.06066e-07
4.42592e-08
5.17237e-08
6.43176e-08
5.71979e-08
5.5318e-08
9.15634e-08
-8.66969e-09
8.78188e-08
-1.47619e-08
3.48335e-08
-8.19402e-09
1.42372e-08
3.26511e-09
1.60996e-08
5.2067e-10
5.25039e-08
1.22e-11
1.09196e-07
4.18966e-09
1.15187e-07
8.07133e-09
9.4432e-08
1.81122e-09
7.24971e-08
8.2081e-09
1.86682e-08
4.48012e-09
2.94082e-09
2.78321e-09
2.4231e-09
6.13388e-10
2.32114e-09
-9.18442e-15
2.43072e-09
-3.5475e-14
2.31887e-09
-2.82654e-11
2.34213e-09
2.65929e-10
2.22929e-09
3.40486e-10
2.21248e-09
3.2016e-10
2.1243e-09
1.73605e-10
2.16066e-09
1.08297e-10
2.16405e-09
1.21506e-12
2.23308e-09
-1.33581e-10
2.55882e-09
-6.68861e-14
3.32969e-09
-4.99637e-10
4.14953e-09
-1.27634e-09
6.54076e-09
-2.74187e-09
2.36243e-08
-7.23877e-09
2.82066e-08
-3.84181e-09
1.48652e-08
3.32021e-09
1.0046e-08
6.81246e-09
1.70586e-08
6.16824e-09
2.9254e-08
-1.13475e-09
3.00047e-08
-3.40869e-09
2.28742e-08
1.35988e-09
1.3905e-08
-6.57473e-10
1.17638e-08
-2.82021e-09
1.12342e-08
-1.55137e-09
1.57885e-08
1.20183e-11
3.61047e-08
1.27307e-13
4.18545e-08
1.55962e-09
1.72897e-08
1.74537e-09
1.86777e-21
4.38701e-09
1.95904e-31
2.58918e-22
7.09322e-42
2.52583e-42
-6.5735e-32
-1.65768e-32
-5.93407e-32
-1.39596e-32
-6.80979e-33
-3.15882e-32
-7.66793e-08
-2.40575e-08
-3.00437e-07
1.07174e-07
-2.98009e-07
2.22171e-07
-1.37292e-07
-7.48469e-08
-7.9176e-08
-3.31156e-07
6.3791e-09
-5.734e-07
7.47204e-08
-1.4621e-07
7.13924e-08
-2.59195e-08
7.55846e-09
-6.56922e-09
4.17107e-09
-3.89238e-09
3.62572e-09
-4.54015e-10
9.93809e-09
1.11481e-08
1.38057e-09
6.03271e-09
8.36439e-10
1.71566e-09
2.89583e-09
-4.71555e-08
3.2584e-08
-2.31531e-07
7.88223e-08
-8.76866e-09
4.12473e-08
1.25524e-07
1.46718e-08
1.4224e-07
1.3457e-07
-3.87638e-07
2.27663e-07
-5.37246e-07
2.78054e-07
-4.00286e-07
3.45659e-07
-1.98826e-07
3.57471e-07
-2.98648e-07
1.31765e-07
-5.94257e-09
7.4999e-08
9.98452e-10
1.42796e-07
3.84682e-08
1.99928e-07
-1.91716e-08
2.37006e-07
-5.95472e-08
1.78429e-07
-1.13386e-07
8.31679e-08
-5.5042e-08
4.5451e-08
-2.1179e-08
4.99993e-08
-1.56678e-08
9.55621e-08
-2.38444e-08
1.00689e-07
-1.38318e-08
5.12579e-08
-1.51365e-08
4.99143e-08
-1.48146e-08
1.52861e-07
-3.55277e-08
6.55875e-07
-3.51975e-08
8.69278e-07
9.38496e-08
7.9004e-07
3.85155e-07
6.82821e-07
4.46927e-07
1.47672e-07
6.57365e-07
1.21612e-08
1.05028e-07
1.02462e-08
9.52491e-09
6.96386e-09
7.85187e-14
2.77269e-09
8.33078e-11
1.14823e-09
-3.51608e-09
1.68087e-09
-4.79973e-09
5.12208e-09
-5.46648e-09
7.90106e-08
-2.65939e-08
1.48665e-07
-4.51907e-08
1.48784e-07
8.37876e-08
1.09745e-07
5.79726e-08
1.93545e-08
1.50003e-11
7.45915e-09
-5.33752e-09
1.01685e-08
-2.72386e-08
3.58535e-08
-1.70549e-07
3.70422e-08
-1.05005e-07
8.97749e-08
-2.87646e-09
8.53296e-08
4.12655e-08
9.11321e-08
4.11003e-08
1.04043e-07
-1.08003e-08
1.15435e-07
-6.53062e-09
2.01529e-07
-3.42896e-10
5.2652e-07
-2.20346e-08
7.89034e-07
-3.25791e-07
8.97544e-07
-4.2187e-07
6.09589e-07
-2.84661e-07
2.52515e-08
2.67091e-07
5.59284e-09
8.18855e-08
2.81659e-09
1.41359e-09
9.82402e-10
-1.75769e-10
1.16912e-09
-1.3057e-09
1.98209e-09
-2.06023e-09
1.23549e-08
-8.45893e-09
3.50322e-08
-1.82948e-08
3.43022e-08
3.26818e-09
1.42101e-08
2.12885e-08
1.32926e-08
5.96463e-09
2.09887e-08
8.32712e-13
3.1486e-08
7.88395e-14
4.26038e-08
-8.64812e-09
7.69658e-08
-1.90325e-08
1.02627e-07
-2.75978e-08
5.65167e-08
1.34438e-09
8.51589e-09
8.19175e-09
4.96673e-09
-5.22666e-09
3.92143e-09
-1.91493e-09
7.93323e-09
-3.54977e-10
1.09187e-08
2.37889e-10
1.01789e-08
3.88857e-10
5.0042e-09
1.96902e-10
1.44725e-09
-2.41854e-10
1.40731e-09
-6.55466e-10
1.53791e-09
-7.3461e-10
2.88328e-09
-7.84081e-10
2.76622e-08
-4.99734e-09
2.18809e-07
-4.07374e-08
2.19385e-07
8.03135e-08
1.96071e-07
1.23927e-07
1.82288e-07
9.36635e-08
2.05732e-07
-8.47803e-09
1.35302e-07
-3.7097e-08
7.30693e-08
-7.9738e-09
1.13405e-08
1.44415e-09
1.19589e-08
-3.99287e-11
1.20303e-08
2.80539e-14
2.64423e-08
5.1541e-10
2.62098e-08
-4.22768e-14
2.2511e-08
4.98776e-10
2.47652e-08
2.63822e-10
1.9635e-08
2.04041e-09
7.9137e-09
1.06734e-09
3.27455e-09
1.77323e-09
3.20914e-09
-5.04865e-11
3.18552e-09
-1.8147e-10
3.03365e-09
-2.65317e-12
2.62524e-09
6.96904e-10
2.4998e-09
1.03969e-09
2.57254e-09
8.81077e-10
2.63534e-09
6.02437e-10
2.67554e-09
3.28187e-10
2.68883e-09
2.95975e-12
2.45414e-09
-3.17794e-10
2.25963e-09
-2.59332e-10
2.22165e-09
-9.15421e-10
2.48444e-09
-1.83596e-09
2.77111e-09
-3.67226e-09
1.36345e-08
-7.74744e-09
3.29506e-08
-2.24444e-08
3.15037e-08
5.46609e-09
2.99382e-08
1.21209e-08
3.02672e-08
8.43113e-09
5.17605e-08
-5.02359e-09
5.29112e-08
-4.5594e-09
5.15582e-08
2.71292e-09
4.63869e-08
-1.5988e-09
2.63308e-08
-9.92115e-09
1.13431e-08
-1.85152e-09
1.41584e-08
1.99332e-09
1.66882e-08
4.03954e-11
2.54298e-08
8.76571e-10
2.08651e-08
1.97097e-09
1.8831e-09
9.26697e-09
0
2.02851e-10
3.48682e-43
5.61088e-43
-1.94544e-32
-5.84124e-33
-2.18149e-32
-6.14575e-33
-3.55705e-33
-1.37555e-32
-6.97989e-08
-2.7718e-08
-2.08504e-07
1.46359e-07
-1.83926e-07
8.12288e-08
-1.28523e-07
-1.39269e-07
-7.79406e-08
-3.46618e-07
1.20849e-07
-5.50518e-07
1.08079e-08
-4.25386e-08
5.494e-09
-6.55172e-09
3.23868e-09
-4.01709e-09
2.80759e-09
-3.30304e-09
2.5412e-09
1.55227e-10
2.1035e-09
4.60643e-09
7.46444e-10
5.88048e-09
2.74551e-11
1.88411e-09
6.51516e-08
-3.96332e-07
1.29832e-07
-5.53876e-07
1.19359e-07
-1.49049e-07
3.95759e-08
2.05309e-07
1.39142e-08
1.67899e-07
1.1747e-07
-4.97953e-07
2.26014e-07
-6.11994e-07
1.06475e-07
-2.22561e-07
1.12674e-07
-7.25413e-08
2.12268e-07
-1.50881e-07
2.23916e-07
-1.69031e-07
6.78725e-08
8.2216e-08
5.53384e-08
2.82894e-08
1.04096e-07
-3.26851e-08
1.29902e-07
-8.30817e-08
8.05562e-08
-6.5565e-08
3.66683e-08
-2.57222e-08
2.14239e-08
-4.20255e-09
2.07921e-08
-1.6768e-08
2.54262e-08
-1.55718e-08
2.65146e-08
-6.00566e-09
1.90802e-08
-8.63618e-09
1.95081e-08
-1.36892e-08
4.4647e-08
-1.32936e-08
1.81155e-07
-1.38806e-08
4.93603e-07
1.49049e-08
5.65627e-07
1.24128e-07
4.8776e-07
1.60427e-07
3.93151e-07
3.87173e-07
2.73947e-08
3.92793e-07
3.19631e-09
4.63941e-08
5.3559e-09
1.05295e-08
2.16319e-09
1.93505e-11
8.43388e-10
-2.51625e-09
1.66052e-09
-5.60524e-09
2.52852e-09
-6.28354e-09
2.06329e-08
-1.11431e-08
1.30716e-07
-2.34349e-08
1.58459e-07
4.86443e-08
5.64255e-08
3.69182e-08
9.7982e-09
2.67796e-09
1.00305e-08
-7.84318e-09
3.68526e-08
-3.58517e-08
8.93368e-08
-1.82912e-07
9.39334e-08
-5.26881e-08
9.93166e-08
-1.3196e-08
1.08919e-07
6.73061e-08
2.39129e-07
1.22016e-07
2.86226e-07
-2.99033e-08
2.10911e-07
-8.26466e-09
2.42017e-07
-9.71105e-10
7.16226e-07
-6.96479e-08
8.65607e-07
-1.63704e-07
9.11224e-07
-3.56708e-07
9.31737e-07
-2.10819e-07
1.26204e-07
5.39484e-07
1.86211e-09
7.60024e-08
6.91856e-10
3.28409e-11
3.92796e-09
-1.60811e-10
4.8202e-09
-2.03868e-09
4.76739e-09
-2.0994e-09
8.33573e-09
-8.97481e-09
2.53448e-08
-1.04169e-08
4.51934e-08
4.25255e-09
2.51462e-08
2.33956e-08
1.24465e-08
1.92764e-08
1.53068e-08
1.17582e-09
1.84508e-08
4.8855e-10
1.69366e-08
-3.49774e-09
2.05252e-08
-6.68026e-09
5.90309e-08
-9.92607e-09
6.82608e-08
2.12896e-09
3.98644e-08
3.93451e-09
1.0833e-08
-1.01746e-08
4.30965e-09
-1.9662e-09
4.47337e-09
-6.62889e-10
4.45579e-09
1.36184e-10
3.85152e-09
2.01505e-10
2.31714e-09
3.39053e-10
1.5096e-09
-2.31874e-10
1.39569e-09
-3.45792e-10
1.59228e-09
-7.34338e-10
1.72098e-09
-7.14824e-10
9.90534e-09
-2.96608e-09
1.56213e-07
-1.62097e-08
2.84563e-07
1.49935e-08
2.6084e-07
1.47626e-07
2.45783e-07
1.08744e-07
1.28587e-07
-1.88909e-08
2.09967e-08
-1.79839e-08
1.89228e-08
-5.45474e-09
1.91145e-08
1.78838e-10
9.25915e-09
2.82623e-10
4.79235e-09
1.29166e-12
4.54207e-09
9.41809e-10
4.53747e-09
-1.79348e-11
4.32427e-09
6.07029e-10
4.32826e-09
3.64783e-10
6.07852e-09
1.52313e-09
1.28781e-08
7.54356e-10
8.49686e-09
3.89182e-09
8.53187e-09
-9.16464e-11
6.40807e-09
-9.15449e-10
3.47746e-09
-3.06732e-11
3.04902e-09
9.23179e-10
3.05582e-09
1.46317e-09
3.92956e-09
1.38893e-09
5.75451e-09
1.24791e-09
8.41003e-09
1.0116e-09
1.04288e-08
-1.15836e-11
1.05921e-08
-1.50261e-09
9.86443e-09
-1.04391e-09
1.04659e-08
-2.52046e-09
1.2491e-08
-4.41849e-09
1.32892e-08
-6.86877e-09
2.2745e-08
-2.39053e-08
3.80646e-08
-1.89862e-08
4.38183e-08
9.55616e-10
4.35735e-08
1.03499e-08
4.58922e-08
8.12819e-09
2.97173e-08
-4.45646e-09
2.72326e-08
-2.76129e-09
3.08685e-08
4.95504e-10
3.37103e-08
-4.81138e-10
3.61822e-08
-5.68994e-09
2.68969e-08
-7.97981e-09
5.106e-09
3.07483e-09
1.03044e-08
1.16236e-10
1.48106e-08
6.18028e-10
1.51044e-08
1.70175e-09
7.9214e-09
3.23216e-09
0
2.30054e-09
1.10897e-42
0
-5.26389e-33
-1.83161e-33
-7.47542e-33
-2.45273e-33
-1.8014e-33
-5.97352e-33
-8.33507e-08
-4.2709e-08
-8.1867e-08
1.40043e-07
-1.02382e-07
1.06576e-07
-1.49631e-07
-2.54855e-08
7.16652e-08
-8.81922e-07
1.87618e-08
-3.93421e-07
5.88611e-09
-1.25673e-08
3.71105e-09
-4.08499e-09
3.11023e-09
-3.25464e-09
2.69628e-09
-2.54934e-09
2.3351e-09
6.60905e-10
1.51709e-09
5.9745e-09
7.1129e-10
6.57994e-09
4.74074e-10
4.10729e-09
1.18351e-07
-8.94029e-07
1.93118e-07
-1.00826e-06
2.52975e-07
-5.88313e-07
3.40935e-08
3.94332e-07
3.15288e-08
6.07427e-07
2.27047e-07
-5.64091e-07
1.08375e-07
-3.76788e-07
8.86604e-08
-2.07038e-07
5.56493e-08
-6.80367e-08
6.86012e-08
-5.83165e-08
1.70549e-07
-1.17527e-07
6.99377e-08
1.29698e-07
6.69781e-08
8.61792e-08
8.30607e-08
-2.14174e-08
6.61436e-08
-1.40991e-07
4.52813e-08
-3.69189e-08
3.58999e-08
-3.90687e-08
3.53934e-08
-2.79938e-08
2.37703e-08
-3.79025e-08
1.55469e-08
-1.19465e-08
1.67517e-08
-5.54383e-09
1.74192e-08
-7.75067e-09
1.90296e-08
-1.38597e-08
2.08649e-08
-1.38028e-08
5.75778e-08
-1.10221e-08
1.16865e-07
-5.21279e-13
1.57114e-07
-3.08815e-12
1.54514e-07
3.35151e-09
2.45166e-07
8.49468e-08
3.13395e-08
5.03017e-07
7.92202e-09
7.19575e-08
6.38488e-09
2.72165e-08
1.83619e-09
2.24168e-10
7.95389e-10
-1.46457e-09
1.63416e-09
-6.3934e-09
2.50729e-09
-7.14504e-09
6.44446e-09
-4.31051e-09
5.37503e-08
-6.26733e-09
8.46123e-08
2.12973e-08
2.94947e-08
2.64144e-08
1.04151e-08
4.72778e-09
3.03504e-08
-1.20158e-08
6.18804e-08
-2.36867e-08
9.85385e-08
-3.21416e-08
1.80767e-07
-1.77865e-07
1.61584e-07
-7.89205e-08
4.03682e-07
2.45625e-08
4.32682e-07
8.43454e-08
4.39171e-07
-2.77219e-08
3.5709e-07
-1.35524e-08
3.10198e-07
-3.49811e-09
3.07707e-07
-8.52423e-08
3.43225e-07
-2.17256e-07
3.37408e-07
-2.27343e-07
5.72503e-07
-2.88211e-07
2.84487e-07
5.00663e-07
3.04435e-09
2.05725e-07
3.32518e-09
2.60643e-09
6.46926e-09
-2.72346e-10
7.49457e-09
-1.0279e-09
8.34134e-09
-9.16728e-10
5.78992e-09
-2.0038e-09
1.71901e-08
-3.64668e-09
4.47257e-08
2.1407e-09
4.09643e-08
3.63945e-08
8.21047e-09
4.00253e-08
1.07946e-08
1.49603e-09
1.24627e-08
1.29104e-09
7.53376e-09
-5.73336e-10
6.06325e-09
-1.42184e-09
1.85029e-08
-2.4042e-09
3.15638e-08
7.34958e-10
2.39811e-08
1.05433e-09
1.09947e-08
-1.80019e-09
8.1015e-09
-1.4438e-09
3.44443e-09
-2.40155e-10
1.45503e-09
3.54812e-10
1.35653e-09
4.92687e-10
1.23062e-09
6.57886e-10
1.19232e-09
-2.89168e-15
1.24536e-09
-2.04155e-10
1.28687e-09
-5.80084e-10
1.95812e-09
-4.97604e-10
5.10929e-09
-1.62347e-09
5.15433e-08
-1.21629e-08
2.31983e-07
9.52613e-09
2.82547e-07
9.7086e-08
2.52753e-07
3.9498e-08
7.78205e-08
-1.91383e-08
8.53824e-09
-7.03231e-09
9.18952e-09
-9.53138e-10
1.17096e-08
2.86801e-09
1.06421e-08
9.17487e-10
4.61103e-09
2.233e-09
3.76553e-09
1.61119e-09
3.83761e-09
2.21446e-09
5.07992e-09
1.25207e-09
3.93061e-09
1.40915e-09
3.88993e-09
1.66876e-09
6.33405e-09
3.96021e-09
1.19021e-08
1.21044e-09
1.17537e-08
-6.99011e-11
1.19384e-08
-9.73497e-10
6.52505e-09
-9.7508e-11
3.50635e-09
1.44341e-09
3.40228e-09
1.95688e-09
5.03816e-09
2.00706e-09
8.48428e-09
2.05578e-09
1.41069e-08
1.73158e-09
1.81201e-08
-6.99408e-11
1.92275e-08
-1.14129e-09
1.85582e-08
-1.84335e-09
2.08834e-08
-3.37692e-09
2.21397e-08
-7.14351e-09
2.45683e-08
-7.82864e-09
1.48154e-08
-5.06042e-09
1.99548e-08
-7.91659e-09
4.41e-08
6.19099e-10
4.92531e-08
7.2125e-09
3.88011e-08
3.2302e-09
1.73212e-08
-2.50185e-09
7.78825e-09
-1.06965e-09
7.64952e-09
5.26502e-15
8.38601e-09
-1.72466e-10
1.90413e-08
-2.11091e-09
2.77288e-08
-5.81e-09
1.28556e-08
3.9419e-09
7.7765e-09
4.076e-09
7.3611e-09