/*--------------------------------*- C++ -*----------------------------------*\
| =========                 |                                                 |
| \\      /  F ield         | OpenFOAM: The Open Source CFD Toolbox           |
|  \\    /   O peration     | Version:  v1912                                 |
|   \\  /    A nd           | Website:  www.openfoam.com                      |
|    \\/     M anipulation  |                                                 |
\*---------------------------------------------------------------------------*/
FoamFile
{
    version     2.0;
    format      ascii;
    class       volScalarField;
    location    "90";
    object      k;
}
// * * * * * * * * * * * * * * * * * * * * * * * * * * * * * * * * * * * * * //

dimensions      [0 2 -2 0 0 0 0];


internalField   nonuniform List<scalar> 
14268
(
0.0502929
0.0290619
0.0263969
0.0241584
0.0226851
0.0240616
0.0235679
0.019272
0.0145024
0.0121218
0.00861479
0.00683486
0.00753358
0.0156587
0.0331337
0.0379413
0.0348487
0.0180409
0.0159766
0.0227847
0.0225521
0.0203441
0.0179592
0.0146631
0.00948566
0.00892065
0.00888553
0.00840951
0.00949106
0.00971431
0.00957718
0.00916446
0.00952932
0.0113277
0.0141808
0.0177131
0.0196147
0.019266
0.018337
0.0173047
0.0146443
0.0115885
0.00523653
0.00124641
0.00321017
0.0079695
0.00874475
0.0105751
0.0195266
0.0208103
0.0180402
0.014562
0.0104219
0.00923259
0.0120571
0.0192358
0.0279326
0.0287695
0.0213918
0.0163492
0.0143713
0.0153148
0.0176664
0.0200789
0.0217479
0.0261124
0.0317405
0.0334584
0.029268
0.0140407
0.00486648
0.0093304
0.0256204
0.0382123
0.0411384
0.0387319
0.0300402
0.0176605
0.00723408
0.00262117
0.00223479
0.0029938
0.00481662
0.0067447
0.00779828
0.00892978
0.0124729
0.0194044
0.0197965
0.0154769
0.0160032
0.025737
0.0442691
0.0617483
0.0690071
0.0699046
0.0645996
0.0525505
0.0310247
0.013903
0.00865151
0.00814837
0.00838558
0.00886872
0.00789653
0.00577607
0.00297991
0.00129751
0.00157412
0.00247664
0.00195189
0.000858303
0.00043197
0.000277678
0.000267838
0.00032386
0.000446394
0.000620732
0.000846407
0.00115459
0.00159747
0.00213924
0.00270559
0.00312141
0.00336799
0.00350574
0.00386246
0.00457378
0.00558756
0.0056003
0.00477751
0.00364549
0.00403623
0.00615131
0.010149
0.0107925
0.00958586
0.00804479
0.00561354
0.00220456
0.000640345
0.000545816
0.000414005
0.000133119
2.02036e-05
2.67454e-06
3.42412e-07
4.38416e-08
5.595e-09
7.03701e-10
0.173218
0.102171
0.0974456
0.083322
0.0690203
0.070569
0.0705976
0.0587491
0.0455473
0.0395341
0.0359884
0.0319566
0.03096
0.0512985
0.0997917
0.116359
0.112786
0.0672375
0.0628676
0.0842139
0.0836229
0.0773431
0.0707552
0.0617689
0.0430693
0.0393337
0.0378826
0.0349046
0.0380833
0.038891
0.0384102
0.0369902
0.0379735
0.0437281
0.0524403
0.0625227
0.0682918
0.0677332
0.0656644
0.0632485
0.0541925
0.0442046
0.0215823
0.0075297
0.0133884
0.0271227
0.030908
0.0367427
0.0614758
0.0613238
0.0553549
0.0486767
0.037677
0.0335801
0.0414572
0.0589399
0.0819762
0.0844248
0.0636183
0.0489905
0.0434501
0.0451284
0.0513564
0.0605633
0.0697713
0.0864389
0.104885
0.109626
0.0967793
0.0483992
0.018564
0.0327318
0.0839179
0.123776
0.132937
0.124874
0.0977672
0.0586787
0.0277165
0.0109634
0.00929426
0.0106254
0.016405
0.023466
0.0279157
0.0318471
0.0439561
0.0677288
0.0697459
0.0538205
0.0540953
0.0856397
0.147167
0.20733
0.227602
0.227308
0.207955
0.167945
0.101049
0.0472824
0.0318108
0.0301211
0.0302773
0.0320941
0.0308448
0.0230939
0.0122496
0.00525088
0.00640215
0.0106981
0.00905698
0.00512524
0.00366463
0.0026827
0.0023401
0.00252386
0.00302108
0.00372205
0.00457629
0.00564969
0.00719326
0.00907308
0.0110734
0.0124999
0.0133201
0.0138754
0.0150462
0.0173563
0.0205531
0.0208042
0.0184239
0.0151275
0.0164897
0.0232829
0.0365243
0.0398427
0.0363353
0.0307903
0.021367
0.00895403
0.00279442
0.00293218
0.0028512
0.00130383
0.000268113
4.42463e-05
6.66501e-06
9.54943e-07
1.30851e-07
1.72272e-08
0.296016
0.175153
0.161856
0.122227
0.0873992
0.0926463
0.0906356
0.0778809
0.0694313
0.0628687
0.0494284
0.0464001
0.0469791
0.0811648
0.132148
0.154625
0.161595
0.119803
0.109705
0.135333
0.136478
0.132919
0.125022
0.114739
0.0840106
0.0791237
0.0753272
0.0661859
0.0691203
0.0703872
0.0692825
0.0658275
0.0668031
0.0762225
0.0856187
0.0940805
0.100474
0.101942
0.103374
0.1052
0.0931138
0.0787495
0.0416014
0.0144584
0.0200905
0.044128
0.0516274
0.0740124
0.100999
0.0900342
0.0735968
0.066463
0.058917
0.0535225
0.0576481
0.0719391
0.106526
0.111247
0.0783107
0.0499666
0.0441896
0.0467358
0.056092
0.0692298
0.0921808
0.128559
0.161851
0.168694
0.149024
0.0776872
0.0316713
0.0514834
0.12624
0.186766
0.200604
0.187752
0.146396
0.0885293
0.0469796
0.0192937
0.0152592
0.0137051
0.0174069
0.0303272
0.0426295
0.050363
0.0701156
0.107479
0.112035
0.0867009
0.0855519
0.136846
0.237285
0.337669
0.368744
0.365262
0.324821
0.256194
0.150187
0.0711819
0.0517778
0.0488419
0.047976
0.0522337
0.0556458
0.0445719
0.0247526
0.00906346
0.00611836
0.0124766
0.0145348
0.00942893
0.00561118
0.00445064
0.00420003
0.00470472
0.00572243
0.00685701
0.00816962
0.00993874
0.0124003
0.0153267
0.0184694
0.0207987
0.0220502
0.0230234
0.0249736
0.0285916
0.0332647
0.0338984
0.0310795
0.0272288
0.0291307
0.0399489
0.0605444
0.0669956
0.0632409
0.0546269
0.0391974
0.0182393
0.00536129
0.00210532
0.00326637
0.00221936
0.000630003
0.000121662
2.09367e-05
3.35068e-06
5.04002e-07
7.18234e-08
0.399913
0.252786
0.211065
0.14042
0.103985
0.135756
0.129145
0.107199
0.0886415
0.0771408
0.0588251
0.0607321
0.0679231
0.117159
0.160984
0.170039
0.181012
0.163585
0.118221
0.13841
0.137559
0.144843
0.150426
0.147641
0.115288
0.11293
0.106445
0.0876347
0.0838079
0.0802326
0.0765832
0.0732113
0.0736869
0.0843939
0.0907506
0.093214
0.0969176
0.0993206
0.105811
0.122995
0.118879
0.104292
0.0598736
0.0209337
0.0277519
0.0544363
0.0771312
0.120637
0.152138
0.132641
0.0922797
0.0740054
0.0722983
0.0580485
0.0580128
0.0864282
0.139705
0.14804
0.104172
0.059707
0.0540548
0.0614732
0.0769223
0.0864856
0.106497
0.148743
0.192368
0.200992
0.181743
0.0989336
0.0413975
0.0647633
0.158216
0.233982
0.250525
0.232351
0.180334
0.109883
0.0628113
0.0289577
0.0209205
0.0188333
0.017239
0.025725
0.0477435
0.0641807
0.0897751
0.136004
0.143604
0.115855
0.115267
0.182879
0.30912
0.434482
0.472801
0.46904
0.416725
0.320683
0.183335
0.0850221
0.0666285
0.0631721
0.0607206
0.0656546
0.0732002
0.0643582
0.0445484
0.0188132
0.00634691
0.00658827
0.0102248
0.0103846
0.00892344
0.00756065
0.00687234
0.00724851
0.00841
0.00981709
0.0114636
0.013642
0.0166497
0.0202999
0.0242833
0.0273504
0.0290099
0.0298825
0.0315809
0.0352153
0.0404928
0.0411097
0.0387211
0.0366248
0.0400264
0.0535682
0.0780625
0.0862353
0.0823346
0.0728541
0.0566686
0.0323486
0.00857085
0.00272291
0.00179236
0.00202636
0.000934943
0.00019497
3.58783e-05
6.11532e-06
9.74343e-07
1.46086e-07
0.494821
0.330705
0.247333
0.153581
0.136497
0.18278
0.166175
0.132671
0.10421
0.0922746
0.071614
0.071576
0.0854676
0.152619
0.225644
0.208579
0.202306
0.196339
0.132157
0.121088
0.116489
0.122611
0.136928
0.149407
0.130136
0.130999
0.122909
0.0921569
0.0784206
0.0667963
0.0618795
0.0597678
0.0581615
0.0650143
0.0692947
0.0731394
0.0766841
0.0740539
0.0777236
0.105579
0.111544
0.106987
0.0735959
0.0307063
0.0352025
0.0612265
0.0981076
0.157781
0.200409
0.183693
0.123677
0.0827356
0.076479
0.0557652
0.0623689
0.12036
0.189995
0.201497
0.150734
0.0876058
0.0771117
0.100889
0.123663
0.131973
0.132287
0.16009
0.199065
0.204974
0.193952
0.117479
0.0514943
0.0785278
0.190072
0.28076
0.300274
0.27739
0.211905
0.128538
0.0769851
0.0422948
0.0266708
0.0225823
0.0209936
0.024081
0.0464678
0.0733308
0.106588
0.161072
0.171903
0.14342
0.146215
0.230844
0.379958
0.528172
0.572744
0.569887
0.511567
0.390464
0.214651
0.0951293
0.079708
0.0746646
0.0664033
0.0716024
0.0848559
0.0800389
0.0629322
0.0352724
0.00920177
0.0057535
0.00521669
0.00678687
0.00985156
0.0105556
0.00954005
0.00957766
0.0107422
0.0123347
0.0142862
0.0168189
0.0202564
0.0244783
0.0291235
0.0328841
0.0353678
0.0365898
0.0383449
0.0419557
0.0477109
0.0474409
0.0437285
0.0429301
0.0480077
0.0637347
0.0910522
0.100637
0.0966627
0.0869416
0.0707127
0.0451615
0.0164188
0.00364472
0.00130283
0.00144651
0.000997915
0.00025327
4.76984e-05
8.4116e-06
1.38531e-06
2.14704e-07
0.55287
0.383739
0.255617
0.170579
0.178277
0.209928
0.184794
0.149003
0.120674
0.108703
0.0873909
0.0811129
0.0999959
0.183164
0.293628
0.271129
0.2395
0.227521
0.175501
0.100137
0.0912159
0.0875364
0.0973499
0.112274
0.124589
0.145642
0.13132
0.0794518
0.0609489
0.0534162
0.0593521
0.0656807
0.0636236
0.0658867
0.0712446
0.0821737
0.0879138
0.0768596
0.0583701
0.0667632
0.0749573
0.0761515
0.0693828
0.0415942
0.0441759
0.0718284
0.115774
0.186401
0.235731
0.223714
0.158527
0.0912041
0.0715714
0.0537977
0.0792341
0.152178
0.225388
0.237524
0.186905
0.118837
0.10596
0.13399
0.156176
0.166905
0.158466
0.161516
0.172757
0.174714
0.171491
0.122698
0.05926
0.0903784
0.217113
0.318185
0.339532
0.313706
0.237529
0.143106
0.0883898
0.05467
0.0387951
0.0348179
0.0328836
0.0341141
0.047407
0.076323
0.118598
0.181268
0.195109
0.167807
0.173966
0.273543
0.43951
0.602833
0.651422
0.648741
0.587195
0.453343
0.241533
0.093699
0.0770179
0.070851
0.058313
0.0673754
0.0886928
0.0916907
0.0775928
0.0510769
0.0200515
0.00802746
0.00658817
0.00703436
0.0101235
0.0124687
0.0115673
0.0113933
0.0126405
0.0144135
0.0166464
0.019483
0.0232572
0.0279375
0.0331367
0.0374539
0.0406356
0.0427186
0.0452692
0.0496365
0.0557514
0.0546689
0.0475375
0.0464842
0.0526723
0.0702866
0.0993958
0.109639
0.105513
0.0952617
0.0795229
0.0542224
0.0227734
0.00669093
0.00159219
0.000925156
0.000888728
0.000314352
5.65272e-05
9.72183e-06
1.59814e-06
2.51223e-07
0.578867
0.430206
0.274127
0.206682
0.217947
0.234095
0.209525
0.165674
0.135462
0.122112
0.10189
0.0924082
0.113488
0.212274
0.328197
0.308571
0.278777
0.269901
0.229448
0.0859906
0.0760266
0.0773411
0.0828678
0.0835972
0.110307
0.164983
0.148084
0.076518
0.0569942
0.0608029
0.0670158
0.0824513
0.0932292
0.0989378
0.109387
0.126787
0.13556
0.12122
0.0796148
0.0452228
0.0408272
0.0421709
0.0490448
0.0477876
0.0542429
0.0825077
0.131199
0.210743
0.265492
0.257596
0.194294
0.106302
0.0685797
0.0589702
0.10232
0.177712
0.250976
0.261123
0.211404
0.142764
0.127
0.150221
0.166803
0.184089
0.180284
0.154781
0.143908
0.141374
0.135461
0.11725
0.0692347
0.103358
0.243194
0.354778
0.378382
0.350081
0.263543
0.156369
0.0983134
0.0652745
0.0503603
0.0467833
0.0470004
0.0500933
0.0563948
0.0791646
0.125864
0.198737
0.217117
0.190314
0.200535
0.316568
0.499585
0.679154
0.731407
0.729765
0.663394
0.517895
0.276099
0.0858163
0.0643517
0.057146
0.0473237
0.0691068
0.0968823
0.102629
0.0899827
0.0647246
0.0316779
0.0151122
0.0124036
0.0120634
0.0132933
0.0140913
0.0128136
0.0123132
0.0138176
0.0160216
0.0186925
0.0218315
0.0258528
0.0307627
0.036124
0.0405888
0.0442793
0.0471076
0.0503074
0.0551646
0.0617932
0.0608591
0.0516009
0.0480749
0.0548532
0.0747468
0.107964
0.120022
0.114957
0.102954
0.0860988
0.0602161
0.0272166
0.0095677
0.00260855
0.000706708
0.000588244
0.0002634
4.96927e-05
8.73641e-06
1.48479e-06
2.43728e-07
0.573126
0.476774
0.332529
0.261474
0.252521
0.266008
0.2307
0.181049
0.146871
0.132597
0.113678
0.103862
0.126163
0.236954
0.310852
0.300762
0.278914
0.307913
0.268772
0.080431
0.0864025
0.0876643
0.0956434
0.0954104
0.105297
0.181148
0.16785
0.0913168
0.0650321
0.0662577
0.0713659
0.092803
0.113057
0.12603
0.1405
0.15951
0.169093
0.154845
0.113244
0.0610387
0.0312367
0.0292171
0.0310541
0.0485961
0.0631298
0.0916314
0.144657
0.231214
0.289603
0.284825
0.226005
0.130375
0.0740651
0.0720201
0.12255
0.195436
0.266648
0.277068
0.224743
0.156379
0.133612
0.143255
0.156684
0.180931
0.189196
0.155721
0.141431
0.134582
0.10961
0.103111
0.0779251
0.114616
0.265333
0.384859
0.409697
0.379817
0.28683
0.167752
0.105598
0.0739011
0.0601029
0.0571125
0.0593342
0.0655286
0.0702966
0.0865291
0.133282
0.213246
0.235576
0.210166
0.223567
0.354708
0.551785
0.743932
0.798194
0.796146
0.7259
0.571248
0.314768
0.081679
0.047983
0.0401056
0.0419595
0.0804518
0.111043
0.114048
0.100829
0.0762179
0.0411126
0.0207797
0.0170628
0.016755
0.0172203
0.0164213
0.0134532
0.012345
0.0141315
0.0169882
0.0204537
0.0238784
0.0280103
0.032837
0.0378374
0.0418041
0.0457772
0.0491578
0.0528246
0.0580328
0.0650205
0.0654646
0.0565234
0.0498207
0.0563313
0.0786597
0.117648
0.133143
0.127533
0.113893
0.0941126
0.0648909
0.030239
0.0120853
0.0041515
0.000997529
0.000307884
0.000128823
3.06687e-05
6.26915e-06
1.21026e-06
2.21257e-07
0.591843
0.493162
0.403523
0.309986
0.277574
0.282947
0.242513
0.192509
0.156927
0.142251
0.124224
0.114265
0.137823
0.259061
0.280011
0.297709
0.257919
0.339296
0.265305
0.0924841
0.0953106
0.0925156
0.0998163
0.105598
0.11004
0.192265
0.174274
0.0954168
0.0713448
0.0708254
0.073758
0.094279
0.120572
0.142704
0.164556
0.18574
0.196323
0.182466
0.142045
0.0888521
0.0472751
0.0350696
0.0323741
0.0501431
0.0714507
0.0992743
0.156763
0.249492
0.311183
0.309156
0.254353
0.158773
0.0939495
0.0918586
0.142147
0.21305
0.285687
0.299579
0.241642
0.167529
0.137638
0.141867
0.15363
0.163231
0.179695
0.158721
0.15976
0.166562
0.114001
0.0903861
0.0848401
0.126603
0.287984
0.416179
0.442505
0.410551
0.311372
0.181165
0.112258
0.0810793
0.0691232
0.0670582
0.0706962
0.0791999
0.085048
0.0986425
0.145742
0.230173
0.254299
0.229187
0.245733
0.393587
0.605674
0.811059
0.868215
0.866138
0.790089
0.624569
0.354928
0.0916583
0.0346729
0.027769
0.0412786
0.0903583
0.122809
0.125515
0.111293
0.0862858
0.0487516
0.0245795
0.0191463
0.0192886
0.0203201
0.0189008
0.0145611
0.0125301
0.0143391
0.0174376
0.0217738
0.0255343
0.0294967
0.0338207
0.0389523
0.0430116
0.0474047
0.0510998
0.0552961
0.0613254
0.0692811
0.0711933
0.0626622
0.0539405
0.0596481
0.0847551
0.128928
0.147452
0.141441
0.126314
0.10401
0.0705876
0.0327446
0.0141999
0.00591561
0.00175778
0.000376928
9.55101e-05
2.59599e-05
5.91095e-06
1.21291e-06
2.30243e-07
0.632786
0.458621
0.421176
0.338239
0.311913
0.293348
0.252738
0.20297
0.166532
0.15117
0.133742
0.12378
0.148538
0.279597
0.278195
0.337154
0.230899
0.329212
0.235918
0.104159
0.117059
0.100205
0.103322
0.111164
0.1097
0.178595
0.155534
0.086402
0.0766506
0.0778245
0.0797263
0.0920005
0.119708
0.146345
0.176308
0.202365
0.216802
0.204484
0.165232
0.111663
0.0647096
0.0464734
0.0344018
0.0503844
0.0781969
0.104514
0.167553
0.26511
0.327846
0.327934
0.278052
0.184812
0.118054
0.112358
0.160013
0.231356
0.30754
0.325448
0.265582
0.182282
0.151099
0.163911
0.174443
0.148789
0.148987
0.137012
0.163039
0.199523
0.132928
0.078037
0.0878462
0.137298
0.308588
0.44379
0.47091
0.436924
0.332985
0.195375
0.119098
0.0870212
0.0770772
0.0763099
0.0810045
0.090796
0.0979087
0.111405
0.159124
0.246306
0.271755
0.246867
0.265226
0.428903
0.652804
0.86598
0.9215
0.919148
0.840926
0.668166
0.389838
0.109913
0.032327
0.0266537
0.0445443
0.0950227
0.12889
0.134819
0.121267
0.0953244
0.0548221
0.0247626
0.0172781
0.0178371
0.020344
0.0202412
0.0162681
0.0135962
0.0154912
0.0181724
0.0224638
0.0258673
0.0293783
0.0335823
0.0395272
0.0448633
0.0504188
0.0548308
0.0595932
0.0662613
0.074965
0.0770576
0.0689236
0.059622
0.065342
0.0928441
0.140576
0.160704
0.154268
0.137808
0.113634
0.0769505
0.0351288
0.015581
0.00762347
0.00280679
0.000690862
0.000154852
3.56872e-05
7.50537e-06
1.46743e-06
2.70915e-07
0.67856
0.40882
0.394873
0.327239
0.344478
0.310482
0.263599
0.213094
0.175757
0.15957
0.14255
0.132703
0.158543
0.300321
0.315512
0.405337
0.231336
0.298377
0.203869
0.124488
0.142666
0.114647
0.108065
0.116225
0.109544
0.14803
0.125261
0.0858652
0.0808758
0.0851875
0.0902388
0.10087
0.124088
0.144449
0.177062
0.20629
0.227066
0.221468
0.185436
0.13169
0.0799733
0.056234
0.0406887
0.0472879
0.0776001
0.104055
0.177396
0.278042
0.340338
0.34251
0.298265
0.207872
0.140195
0.131386
0.176716
0.247398
0.326004
0.347776
0.289098
0.201101
0.170462
0.190871
0.205487
0.157599
0.123317
0.122458
0.179513
0.237295
0.161262
0.0683848
0.0792807
0.144266
0.329514
0.472048
0.499995
0.463637
0.35441
0.20878
0.125587
0.0920082
0.083577
0.0843505
0.0899831
0.101128
0.109297
0.123239
0.171798
0.261757
0.288527
0.26381
0.284223
0.464922
0.695907
0.896562
0.942508
0.950084
0.886258
0.713956
0.424197
0.130404
0.0427779
0.0352337
0.0513699
0.0986749
0.131451
0.141327
0.130328
0.103662
0.0591381
0.0235765
0.0135017
0.013585
0.0169482
0.0185331
0.0165666
0.0149004
0.0173498
0.019563
0.0220234
0.0248759
0.0283489
0.0333166
0.0404253
0.0470973
0.0540941
0.0596218
0.0648811
0.0717863
0.080446
0.0824857
0.0747669
0.0659434
0.0725196
0.102202
0.15254
0.173545
0.16653
0.14866
0.122762
0.0834985
0.0373535
0.0161875
0.00892342
0.00388374
0.00110371
0.000256827
5.41119e-05
1.05278e-05
1.92475e-06
3.36315e-07
0.698905
0.356328
0.354829
0.298223
0.362206
0.325803
0.273343
0.222262
0.184262
0.167361
0.150589
0.141049
0.167911
0.317342
0.356467
0.46082
0.27181
0.263185
0.169539
0.148231
0.164243
0.131503
0.115538
0.122032
0.117606
0.118038
0.104704
0.0920123
0.0850769
0.0907493
0.099947
0.117647
0.139718
0.148965
0.175141
0.20403
0.227353
0.228725
0.201576
0.147875
0.0920583
0.0639133
0.0474999
0.0424798
0.0706507
0.102131
0.186292
0.28888
0.352864
0.354759
0.314231
0.227132
0.158774
0.147434
0.1902
0.257969
0.339124
0.364927
0.308261
0.220856
0.191224
0.21595
0.234494
0.181182
0.125674
0.139793
0.220865
0.272989
0.190285
0.0634807
0.0637559
0.144521
0.348102
0.49701
0.525502
0.487034
0.373184
0.220776
0.12717
0.0920507
0.0858524
0.0897623
0.0970441
0.109965
0.119013
0.133304
0.182272
0.274272
0.302596
0.278893
0.300803
0.496236
0.716531
0.878405
0.900637
0.926918
0.905908
0.754542
0.454721
0.148236
0.0550406
0.0459891
0.0607131
0.104136
0.133505
0.145538
0.13811
0.111324
0.0630714
0.0245183
0.012066
0.00980144
0.0121203
0.0140826
0.0136013
0.0150257
0.0191383
0.0212502
0.0216031
0.0237484
0.0278513
0.0343079
0.0428773
0.0501558
0.0574932
0.0635474
0.0691148
0.0764285
0.0850952
0.0871856
0.0799257
0.0720308
0.0797408
0.111344
0.163552
0.185266
0.177768
0.158582
0.131105
0.0900058
0.039811
0.0160358
0.00951281
0.00479486
0.00146816
0.000348571
7.29398e-05
1.38434e-05
2.43478e-06
4.05886e-07
0.675991
0.310111
0.315985
0.30399
0.378006
0.339489
0.281289
0.22938
0.191229
0.174469
0.157815
0.148637
0.176661
0.325726
0.397338
0.510157
0.329015
0.228838
0.145799
0.159097
0.174899
0.143915
0.124659
0.128688
0.124478
0.106108
0.106131
0.0963317
0.0896588
0.0950503
0.107595
0.131532
0.1597
0.165517
0.183781
0.213117
0.236666
0.237103
0.215182
0.162065
0.103076
0.0711249
0.0542665
0.0408574
0.063213
0.104699
0.194203
0.300745
0.367938
0.369418
0.327893
0.243064
0.175822
0.162519
0.200959
0.263908
0.347793
0.377394
0.321834
0.238587
0.213036
0.24065
0.262666
0.209111
0.149184
0.176129
0.266742
0.305782
0.217689
0.0685355
0.057076
0.147223
0.367145
0.522438
0.551078
0.510151
0.391516
0.233777
0.128848
0.0872806
0.0819208
0.0900948
0.101284
0.117127
0.127129
0.14165
0.190667
0.284993
0.314944
0.29266
0.316085
0.524196
0.717534
0.828379
0.834038
0.865066
0.891236
0.78768
0.484565
0.164357
0.0650777
0.0557013
0.0721073
0.114514
0.138366
0.149711
0.144728
0.118401
0.068034
0.0273356
0.0138511
0.00905052
0.0084803
0.0096357
0.0101064
0.0143949
0.020507
0.0227477
0.0224167
0.023872
0.0287597
0.0368399
0.0464955
0.0539222
0.0608879
0.06669
0.072477
0.0801331
0.0886911
0.0909099
0.0841422
0.0775248
0.0865917
0.120133
0.174032
0.196469
0.188559
0.168104
0.139016
0.0963228
0.0429727
0.0155195
0.00900082
0.005328
0.00179836
0.000417446
8.61295e-05
1.60519e-05
2.73412e-06
4.37856e-07
0.617716
0.300546
0.286832
0.351969
0.400285
0.352055
0.285768
0.231887
0.194722
0.180018
0.164547
0.15561
0.184608
0.313578
0.434224
0.552429
0.386756
0.193306
0.13402
0.150033
0.168447
0.1461
0.132453
0.134948
0.131094
0.117675
0.112429
0.10138
0.0955303
0.0999354
0.114623
0.143336
0.176729
0.185718
0.203455
0.233171
0.256844
0.251975
0.226511
0.174194
0.112201
0.0771244
0.0602104
0.0437978
0.0592577
0.110648
0.202035
0.31322
0.382459
0.385978
0.338626
0.253976
0.190106
0.175337
0.20402
0.264752
0.352586
0.385805
0.330077
0.251044
0.233598
0.263463
0.288362
0.238218
0.179391
0.213423
0.307116
0.3321
0.238112
0.0804413
0.062707
0.156527
0.384866
0.54538
0.573628
0.530343
0.407319
0.24555
0.136341
0.0824272
0.0750071
0.0851773
0.100567
0.120861
0.132906
0.147502
0.196306
0.292933
0.324325
0.30349
0.328031
0.545798
0.699677
0.762619
0.758375
0.790165
0.841113
0.792137
0.510894
0.178346
0.073077
0.0635209
0.0817682
0.126474
0.146058
0.153438
0.147917
0.122469
0.0718833
0.0301944
0.016539
0.0110367
0.00819286
0.00802681
0.00943522
0.0146708
0.0214367
0.0239827
0.0238461
0.0254189
0.0308816
0.0398972
0.0501996
0.0578497
0.0646258
0.0701362
0.0756729
0.0829016
0.091178
0.093376
0.086985
0.0816764
0.0925402
0.127888
0.183153
0.206434
0.198326
0.176786
0.146309
0.102232
0.0467628
0.0154044
0.00771115
0.00506297
0.00205246
0.000465578
9.05259e-05
1.62528e-05
2.69566e-06
4.22571e-07
0.512939
0.325442
0.294257
0.427751
0.432805
0.368393
0.287358
0.230372
0.195154
0.186124
0.174587
0.166044
0.195
0.278789
0.477435
0.594122
0.463742
0.157578
0.124912
0.130677
0.144729
0.13933
0.14131
0.143664
0.141179
0.131196
0.120504
0.108863
0.104102
0.108185
0.125428
0.159176
0.199178
0.213313
0.234815
0.264668
0.287417
0.277893
0.245143
0.192229
0.126254
0.0860076
0.0685293
0.0516274
0.0645256
0.122653
0.214981
0.330979
0.402997
0.410321
0.353888
0.262776
0.202325
0.184698
0.199959
0.262398
0.357002
0.395274
0.339369
0.263807
0.258695
0.294312
0.32402
0.280334
0.224259
0.265962
0.362805
0.372782
0.264155
0.101389
0.0803406
0.174821
0.412465
0.580913
0.608274
0.560407
0.430226
0.262442
0.151689
0.0814686
0.0645257
0.0753282
0.0935253
0.120217
0.137462
0.153613
0.202928
0.3038
0.336652
0.314348
0.339774
0.572494
0.664412
0.660026
0.645641
0.676414
0.743075
0.754097
0.534659
0.197533
0.0833436
0.0723383
0.0913426
0.140589
0.158334
0.157449
0.148013
0.122511
0.0727922
0.0325491
0.0203185
0.0145513
0.010487
0.00947299
0.011184
0.0164824
0.0229023
0.0259643
0.0265546
0.0285645
0.0345601
0.0442944
0.0552681
0.0634878
0.0704606
0.0761652
0.0812145
0.0876179
0.0954662
0.0967643
0.0900736
0.0860443
0.0995727
0.13795
0.19571
0.220714
0.212653
0.189316
0.1566
0.110486
0.052606
0.0166279
0.00592195
0.00372505
0.00177427
0.000428807
7.8504e-05
1.30251e-05
2.02075e-06
3.05289e-07
0.356544
0.270677
0.382423
0.466672
0.454371
0.376964
0.281325
0.227643
0.196352
0.190873
0.186547
0.179821
0.202279
0.238473
0.497764
0.567906
0.519967
0.202813
0.133971
0.138634
0.140773
0.144694
0.151882
0.15449
0.151087
0.140357
0.127518
0.117314
0.113938
0.117903
0.136922
0.175423
0.222803
0.242396
0.268299
0.298716
0.320776
0.309736
0.271267
0.212249
0.143424
0.0966531
0.0778898
0.0638394
0.0775892
0.13915
0.230483
0.351043
0.426412
0.438406
0.381641
0.274283
0.19611
0.17466
0.197817
0.27323
0.373182
0.417802
0.363071
0.283104
0.278936
0.321706
0.361759
0.326797
0.273104
0.320504
0.420522
0.427264
0.295976
0.120504
0.103162
0.196646
0.444899
0.622178
0.64961
0.59618
0.455997
0.280119
0.169767
0.0953433
0.0588236
0.0625501
0.0792823
0.108192
0.130579
0.155542
0.213581
0.323382
0.35819
0.328756
0.313981
0.474669
0.534434
0.501995
0.473929
0.503351
0.576775
0.605877
0.484165
0.209312
0.0870868
0.0726588
0.0928073
0.148093
0.168498
0.162321
0.146581
0.117232
0.0655253
0.0310986
0.0232817
0.0180159
0.0135601
0.012478
0.0142294
0.0189882
0.0248402
0.0285955
0.0299931
0.032219
0.0380318
0.0478222
0.0597252
0.0695033
0.0771894
0.0835589
0.088953
0.0954992
0.10305
0.103105
0.0958426
0.090392
0.104224
0.146444
0.208238
0.236751
0.229883
0.204335
0.168523
0.119796
0.0592086
0.0203224
0.00586025
0.00205628
0.000771389
0.000201418
3.85999e-05
6.61116e-06
1.12701e-06
1.98432e-07
0.266882
0.26622
0.43303
0.48216
0.438515
0.361177
0.274779
0.234624
0.207119
0.196796
0.195957
0.192579
0.20256
0.228875
0.494433
0.51024
0.531365
0.27999
0.166829
0.168909
0.164494
0.158915
0.164797
0.165435
0.160243
0.148155
0.133779
0.124816
0.12271
0.126832
0.145288
0.186499
0.240242
0.266046
0.296903
0.328339
0.349838
0.338883
0.299118
0.232641
0.158519
0.105228
0.0861304
0.0743549
0.0905478
0.15355
0.242377
0.366959
0.446474
0.464384
0.415072
0.302995
0.198641
0.169428
0.210758
0.292463
0.391266
0.449146
0.398147
0.31367
0.300125
0.344504
0.39575
0.36803
0.315277
0.365789
0.467033
0.473025
0.331057
0.125006
0.11028
0.209727
0.476681
0.664652
0.69156
0.634004
0.483127
0.296072
0.185083
0.11112
0.0660968
0.0575318
0.0729942
0.105285
0.130037
0.160026
0.228456
0.350325
0.38787
0.354693
0.284589
0.345688
0.381572
0.348638
0.325245
0.352031
0.41696
0.444386
0.36934
0.191132
0.0875317
0.0722884
0.0977173
0.159868
0.181316
0.173038
0.150936
0.118883
0.0640404
0.0298031
0.0239023
0.0202985
0.0161404
0.0150081
0.015526
0.0189463
0.0244434
0.0288539
0.0313221
0.0337788
0.0394418
0.0493531
0.0621997
0.0734587
0.0823176
0.0901766
0.0961025
0.102623
0.108789
0.108873
0.103354
0.0970542
0.110776
0.153939
0.216156
0.247394
0.242805
0.216076
0.178334
0.127849
0.0651542
0.0239844
0.00743411
0.00194511
0.00047268
0.000111907
2.53647e-05
5.21036e-06
1.01233e-06
1.9487e-07
0.283303
0.313258
0.450887
0.46203
0.404631
0.322936
0.26796
0.24734
0.221015
0.206016
0.203307
0.204072
0.205345
0.248411
0.448335
0.443511
0.49304
0.329666
0.21238
0.211749
0.192637
0.174494
0.177338
0.175865
0.168545
0.155305
0.13984
0.131563
0.130384
0.135273
0.153273
0.193857
0.250881
0.281217
0.316564
0.348514
0.365615
0.355446
0.321545
0.250238
0.16975
0.110116
0.0919637
0.0833394
0.101231
0.164249
0.250154
0.376956
0.459202
0.483954
0.44476
0.335635
0.221301
0.182149
0.229613
0.284408
0.382071
0.462758
0.427807
0.346259
0.326034
0.371251
0.427218
0.403298
0.348634
0.396399
0.488934
0.492956
0.355926
0.120431
0.101772
0.21066
0.505304
0.702377
0.728629
0.666982
0.507829
0.310208
0.196637
0.124456
0.0784136
0.0654884
0.0805275
0.11744
0.143698
0.172412
0.244354
0.374665
0.414914
0.379616
0.28602
0.258363
0.253812
0.231514
0.226812
0.249221
0.301616
0.32806
0.265942
0.152353
0.0887863
0.0795449
0.110867
0.179841
0.201499
0.190625
0.164246
0.131256
0.0716787
0.0299012
0.0221777
0.020709
0.018169
0.0170187
0.0160019
0.0174631
0.0223784
0.0271588
0.0304027
0.0338266
0.040938
0.0508358
0.0625089
0.073794
0.0834263
0.094352
0.100961
0.106246
0.107329
0.106972
0.106427
0.104167
0.119315
0.160359
0.213536
0.243717
0.241777
0.216136
0.179649
0.132351
0.0705719
0.027266
0.00912854
0.00249822
0.000583764
0.000130556
2.84544e-05
5.85642e-06
1.13955e-06
2.21626e-07
0.30715
0.351959
0.44417
0.439155
0.376685
0.298384
0.271018
0.259403
0.233469
0.217031
0.210703
0.212897
0.216804
0.268654
0.374256
0.373955
0.434199
0.350653
0.259927
0.250177
0.21845
0.190067
0.189366
0.185878
0.17667
0.162447
0.146047
0.13799
0.137331
0.143109
0.162871
0.204001
0.262652
0.288147
0.326115
0.358027
0.360977
0.350315
0.333727
0.267615
0.183202
0.115249
0.0947661
0.0909347
0.110514
0.170193
0.254311
0.380562
0.463234
0.492428
0.466564
0.366225
0.252811
0.209295
0.236088
0.257133
0.355281
0.450733
0.449884
0.377076
0.355763
0.401009
0.458228
0.436276
0.378426
0.418125
0.487548
0.481223
0.36322
0.119344
0.0895552
0.214607
0.536899
0.741363
0.766056
0.700309
0.532899
0.325091
0.206141
0.135562
0.0907484
0.0796296
0.0952727
0.133432
0.159402
0.1877
0.262304
0.399044
0.441571
0.406223
0.307899
0.22954
0.189289
0.171767
0.173406
0.192834
0.243872
0.269291
0.217164
0.125521
0.0894889
0.0903514
0.126416
0.201247
0.224222
0.21272
0.183915
0.149018
0.0824046
0.0311098
0.019685
0.0193598
0.0192411
0.0187085
0.0176393
0.0181599
0.0218233
0.0259948
0.0295609
0.0349836
0.044187
0.0537389
0.0616385
0.0703232
0.0798762
0.0930698
0.0995319
0.101881
0.0980851
0.0975249
0.101856
0.107768
0.124658
0.156916
0.199627
0.229153
0.227455
0.199817
0.163052
0.126091
0.0741233
0.0303955
0.0106337
0.00314271
0.000758706
0.000168714
3.56927e-05
7.17685e-06
1.36876e-06
2.62631e-07
0.324186
0.371734
0.429076
0.420476
0.353034
0.297632
0.285149
0.269744
0.244173
0.228758
0.219362
0.220726
0.231752
0.282272
0.300889
0.295375
0.370166
0.343116
0.285794
0.270291
0.233524
0.20189
0.199336
0.194658
0.184148
0.169284
0.152147
0.144035
0.143707
0.150213
0.172022
0.216503
0.278607
0.297129
0.325606
0.354108
0.340047
0.327359
0.327302
0.280423
0.198342
0.123951
0.0957866
0.0968732
0.118629
0.168616
0.248018
0.373906
0.457176
0.485227
0.468947
0.38761
0.280945
0.231928
0.22163
0.22783
0.344246
0.444156
0.463515
0.403665
0.383167
0.428568
0.486058
0.465279
0.402386
0.427052
0.463574
0.44782
0.348807
0.123274
0.0882342
0.230255
0.56652
0.774543
0.797657
0.7294
0.554896
0.340017
0.214598
0.143833
0.101463
0.0933111
0.109815
0.146477
0.171309
0.200155
0.278407
0.421512
0.466058
0.43084
0.334575
0.239566
0.177877
0.144698
0.134343
0.144822
0.193667
0.22538
0.188889
0.117322
0.0920612
0.0994983
0.138826
0.217646
0.242825
0.235069
0.204914
0.166929
0.0928894
0.0334316
0.0172358
0.0168369
0.019037
0.0201401
0.0201042
0.0211031
0.0240488
0.0273374
0.0311138
0.0380365
0.0482812
0.0578176
0.0637216
0.0699384
0.0759389
0.0842654
0.0898196
0.0903423
0.0885513
0.0896281
0.0939229
0.106314
0.125056
0.150568
0.186695
0.212398
0.208241
0.174327
0.132913
0.103735
0.0712382
0.0332304
0.0120759
0.00384876
0.0009596
0.000212289
4.42828e-05
8.74967e-06
1.63653e-06
3.08609e-07
0.342334
0.383693
0.42519
0.414416
0.346832
0.306229
0.299498
0.279512
0.253811
0.240216
0.230057
0.230951
0.245723
0.287447
0.258012
0.245034
0.319156
0.316438
0.280774
0.269711
0.23665
0.209333
0.207804
0.202706
0.191351
0.176018
0.158214
0.149793
0.149623
0.156743
0.180271
0.22769
0.294958
0.314395
0.324197
0.339664
0.315968
0.301928
0.30872
0.282901
0.213089
0.136375
0.0982277
0.100476
0.124071
0.167375
0.240925
0.358677
0.443794
0.46553
0.451368
0.391813
0.298271
0.235379
0.198445
0.216625
0.361935
0.462393
0.474597
0.42615
0.408861
0.454932
0.513153
0.492919
0.423201
0.422038
0.432098
0.413959
0.32518
0.130601
0.100422
0.251547