/*--------------------------------*- C++ -*----------------------------------*\
| =========                 |                                                 |
| \\      /  F ield         | OpenFOAM: The Open Source CFD Toolbox           |
|  \\    /   O peration     | Version:  v1912                                 |
|   \\  /    A nd           | Website:  www.openfoam.com                      |
|    \\/     M anipulation  |                                                 |
\*---------------------------------------------------------------------------*/
FoamFile
{
    version     2.0;
    format      ascii;
    class       volScalarField;
    location    "90";
    object      omega;
}
// * * * * * * * * * * * * * * * * * * * * * * * * * * * * * * * * * * * * * //

dimensions      [0 0 -1 0 0 0 0];


internalField   nonuniform List<scalar> 
14268
(
196.446
150.748
144
138.685
135.553
139.345
138.021
125.87
110.386
102.056
87.5987
79.5148
82.7335
114.043
162.341
173.039
166.22
121.033
114.211
134.801
134.099
127.602
120.108
108.848
89.2562
86.8714
87.1218
85.9315
90.9309
91.8491
91.2894
89.6032
91.1284
98.3168
109.038
121.18
127.23
126.14
123.238
120.056
111.47
100.797
73.4244
44.7163
58.3924
83.4551
86.8507
94.4972
125.824
130.597
123.406
113.123
98.6564
94.0717
104.701
127.709
150.787
152.742
133.514
118.632
112.197
115.208
122.616
129.921
134.891
146.602
160.295
164.219
154.339
111.534
74.8971
94.633
145.353
174.696
180.826
175.778
156.209
123.075
84.6237
57.5252
54.4528
60.5812
72.7372
83.1342
87.8779
92.3236
105.223
127.022
127.86
114.532
116.265
144.205
186.131
218.39
230.648
232.234
223.63
202.637
158.233
110.941
91.6604
89.4927
90.1624
91.1952
85.4359
75.0074
59.4764
48.1785
52.6504
60.3892
57.1578
49.3062
45.9692
44.753
44.8841
45.5834
46.7683
48.2907
50.0857
52.336
55.3922
58.8679
62.2372
64.5224
65.7463
66.3306
68.1751
71.9674
77.0556
77.0586
72.6542
66.1413
68.244
78.9856
96.01
98.1574
92.9446
86.4989
75.2679
55.8535
45.0352
46.8448
47.7349
45.6906
44.7601
44.614
44.5945
44.592
44.5917
44.5916
72.4351
55.6517
52.4423
48.4508
46.9642
48.988
48.7478
45.0292
40.2503
39.2932
39.9336
37.1152
34.9717
40.9956
55.4355
58.3222
56.885
46.2906
43.0925
48.4391
48.3723
46.1594
43.5146
39.5371
34.2285
33.3697
32.2293
31.1741
32.4573
33.0637
33.1113
32.8319
33.0204
34.6883
38.0608
42.1397
43.8759
43.8222
43.516
43.3544
41.7135
38.0177
28.9502
28.2505
30.0092
32.6825
31.1536
33.6373
40.8026
41.8091
39.9823
37.7398
35.4001
35.9457
38.6098
42.9834
48.043
47.1552
41.6095
39.3638
39.1467
40.2219
42.0331
44.3382
46.6874
51.0943
56.2199
57.2504
53.659
41.7411
32.2228
36.9139
50.988
60.7657
62.5697
60.5721
53.8655
43.5771
31.1435
24.4478
19.9454
20.2963
24.0037
27.4688
29.1079
31.5513
36.5309
43.6436
43.721
39.6163
41.5728
51.5829
67.6272
79.5454
83.6593
83.5862
79.5772
71.0124
54.2691
39.3465
33.9281
32.243
31.0264
30.6945
28.7097
25.2899
19.4081
15.5757
17.9216
20.8261
19.2671
18.9382
20.3541
18.2528
15.1289
13.8453
13.5758
14.0609
15.0763
16.2004
17.4623
18.8678
20.0334
20.827
21.146
21.412
21.9843
23.2073
24.6317
24.5217
23.3012
22.5556
23.8883
27.0128
32.483
33.2686
31.9531
29.2301
24.4854
16.7804
13.3734
14.25
14.0353
13.0724
12.5547
11.6115
10.3633
9.68497
9.48824
9.33716
46.8109
36.4742
34.188
31.2322
30.7273
33.4756
33.4653
31.4103
28.3289
26.2827
25.2819
23.3029
21.9861
25.9942
34.9151
36.3723
35.4387
30.4008
28.6779
31.8651
32.0787
30.5641
28.9726
26.4239
22.7889
22.026
21.2338
20.5822
21.4985
22.1258
22.2079
21.7709
21.5918
22.5488
24.5061
26.8027
27.781
27.9712
27.9585
28.1239
27.5496
25.1616
19.0656
21.3848
22.489
24.2163
19.4295
20.5482
23.8802
24.2929
23.4115
22.8968
22.5442
23.4042
24.3405
25.7568
27.9276
26.9527
23.6258
23.0916
23.5452
24.3283
25.3065
27.097
29.0612
32.0456
35.3243
36.0488
33.9444
27.1117
21.6296
24.169
32.0858
38.0702
39.0954
37.7956
33.5123
27.3337
19.9234
16.3585
13.1368
12.5811
14.3466
16.6621
17.7784
19.4746
22.7769
27.0748
27.0243
24.6868
26.2676
32.9407
43.4876
51.0264
53.5161
53.4091
50.7956
44.9425
33.7503
25.0498
22.0525
20.7581
19.6529
19.2316
17.9321
15.6232
11.6045
8.98349
10.5606
13.1175
12.5422
11.434
10.5534
9.04764
7.6477
7.27386
7.40313
7.90943
8.70711
9.60768
10.5179
11.4225
12.1341
12.5946
12.7465
12.9131
13.2921
14.0584
14.8019
14.7307
14.0949
13.8025
14.6417
16.7269
20.1837
20.7034
19.9959
18.2191
14.9657
9.85787
7.71031
8.01487
8.19968
7.36714
6.29837
5.11307
4.25296
3.87077
3.75322
3.67324
35.9051
28.8144
27.1568
24.7744
25.2927
28.6919
27.6402
25.36
22.1713
19.5381
18.2766
17.2323
16.874
19.8913
26.5423
27.2666
26.7302
23.9773
23.2467
25.4556
25.7626
24.5754
23.3311
21.3486
18.4518
17.7164
17.0949
16.5743
17.2874
17.935
18.1367
17.5798
17.0406
17.6549
18.9797
20.3687
20.948
21.3361
21.7282
22.1853
22.0742
20.3188
15.4697
17.1006
19.0823
19.4982
14.6945
15.343
17.2976
17.3067
16.6479
16.7872
17.3922
18.3706
18.3236
18.4583
19.4665
18.5755
16.2995
16.1752
17.1377
17.5997
18.2502
19.7069
21.7102
24.3286
26.9013
27.3889
25.8925
21.3687
17.5569
18.9935
24.3119
28.679
29.3566
28.3591
25.1464
20.6561
15.4212
12.5129
10.3811
9.50324
10.1585
11.8156
13.139
14.6447
17.2326
20.3248
20.2404
18.6692
20.0907
25.4181
33.4873
39.0104
40.7691
40.6646
38.6979
34.2274
25.3559
19.311
17.4987
16.3819
15.185
14.6242
13.6526
11.9569
8.95825
6.65807
7.31176
9.43316
9.71793
8.74867
7.41952
6.22474
5.39284
5.22082
5.36618
5.78497
6.44399
7.20027
7.91911
8.59001
9.09514
9.41701
9.50379
9.60739
9.87165
10.4124
10.8584
10.798
10.4627
10.4126
11.0863
12.7268
15.2716
15.6825
15.2194
13.8711
11.3544
7.51299
5.4488
5.39181
5.74975
5.32599
4.2365
3.06028
2.46005
2.2106
2.1278
2.07313
29.9137
24.7942
23.5962
21.5591
22.5206
25.307
23.5749
21.2314
18.5962
16.1209
14.5761
14.1255
14.1636
16.6692
21.6505
21.9937
21.8684
20.3995
19.9692
21.8772
22.237
21.3725
20.5077
18.8374
16.1835
15.4831
14.9344
14.4735
15.0127
15.5585
15.8528
15.1309
14.2519
14.6078
15.4741
16.1723
16.4662
16.9632
17.8213
18.8778
19.1945
17.7873
13.6126
13.9089
16.6754
15.5595
12.17
12.6265
13.9257
13.7706
13.1142
13.3883
14.4847
15.1673
14.7095
14.5736
15.1075
14.3166
12.6271
12.4343
13.3743
14.0638
14.7211
15.8759
17.6598
20.0837
22.4905
22.9534
21.7728
18.2225
15.0661
16.0604
20.0464
23.5142
24.0056
23.1677
20.5572
16.9641
12.9181
10.3294
8.53405
7.57878
7.64862
8.79221
10.4402
11.9958
14.1883
16.6151
16.5328
15.4043
16.7407
21.3326
27.958
32.3141
33.7225
33.6584
32.0088
28.3163
20.8237
16.1404
15.0161
14.0537
12.8201
12.1177
11.3102
9.98722
7.66359
5.69495
5.51851
6.71039
7.67843
7.05005
5.93185
5.04693
4.39603
4.2612
4.37901
4.72963
5.29702
5.95247
6.54605
7.08005
7.47008
7.71741
7.77652
7.83704
8.01906
8.41277
8.70832
8.64974
8.47255
8.56916
9.1919
10.5666
12.5954
12.9284
12.5748
11.4898
9.45659
6.38389
4.5172
4.02176
4.23654
4.09397
3.28769
2.2258
1.72459
1.52818
1.46106
1.41797
26.2167
22.4414
21.5942
19.824
20.982
24.1992
21.9112
19.3622
16.6725
14.0849
12.4433
12.2172
12.45
14.6518
18.5581
18.4307
18.5581
18.1579
17.7349
19.2693
19.5469
19.0998
18.7545
17.337
14.8129
14.0625
13.6032
13.0954
13.4466
13.881
14.366
13.4961
11.8878
11.9339
12.5213
12.9184
13.0372
13.3306
14.2763
16.2981
17.2498
16.2813
12.5562
11.8551
14.1245
13.0166
10.5797
10.9324
11.8545
11.6586
11.0139
11.2167
12.5041
12.8321
12.2859
12.3004
12.5828
11.8733
10.5736
10.4031
11.3045
12.1791
12.7853
13.7525
15.1805
17.2998
19.6245
20.0444
19.1367
16.258
13.5847
14.1852
17.3192
20.1782
20.5343
19.7802
17.5768
14.576
11.2865
9.01247
7.26306
6.33736
6.29514
7.0487
8.59636
10.2517
12.2298
14.2114
14.1414
13.3267
14.6285
18.7584
24.4333
27.9615
29.1518
29.1123
27.687
24.4404
17.9325
14.0564
13.4907
12.6269
11.244
10.3904
9.75399
8.71879
6.87333
5.18583
4.70284
5.09826
5.42037
5.30896
4.93092
4.38035
3.82906
3.69556
3.78496
4.08797
4.59406
5.17911
5.6841
6.12551
6.43941
6.63939
6.68552
6.72567
6.85598
7.1469
7.33959
7.26237
7.15751
7.35328
7.9596
9.16182
10.8549
11.134
10.8544
9.94755
8.23862
5.68378
4.03185
3.37967
3.33897
3.28345
2.72588
1.81434
1.34777
1.17576
1.11706
1.08065
23.8615
20.8776
20.1517
18.9469
20.5096
23.8632
20.9674
17.8063
14.994
12.5395
10.98
10.8598
11.2431
13.2617
16.7376
16.3482
16.3899
16.5434
16.2854
17.3899
17.5285
17.3905
17.5356
16.1823
13.8051
13.0792
12.6836
12.057
12.1156
12.1803
12.6439
11.809
10.1618
9.99502
10.3658
10.7395
10.8554
11.0156
11.4926
13.2603
15.0711
14.7255
11.6511
10.5747
12.1022
11.3875
9.47903
9.73775
10.4356
10.2444
9.64368
9.72354
10.9038
11.142
10.7532
10.8057
10.9211
10.2843
9.24872
9.13807
10.0241
10.9657
11.5356
12.379
13.5403
15.2954
17.2383
17.5782
16.9906
14.7355
12.4148
12.8207
15.4123
17.8379
18.1015
17.4087
15.483
12.8825
10.1045
8.12092
6.50584
5.65089
5.55213
6.07298
7.32747
8.9609
10.8333
12.5222
12.4645
11.8744
13.1521
16.9637
21.9593
24.8628
25.9266
25.8977
24.649
21.7474
15.9293
12.4174
12.2063
11.427
9.91349
9.04389
8.60117
7.8095
6.31307
4.85007
4.28594
4.36283
4.46008
4.43813
4.30217
3.93086
3.4471
3.30561
3.37662
3.64765
4.10923
4.64019
5.07942
5.45542
5.71578
5.8829
5.92194
5.9548
6.05679
6.28367
6.41344
6.32613
6.23078
6.46191
7.05226
8.13998
9.60432
9.83955
9.60575
8.82871
7.36351
5.18397
3.70387
3.04886
2.8013
2.71839
2.28277
1.52873
1.1088
0.960853
0.910839
0.879676
22.2294
19.8044
19.1014
18.3828
20.7235
23.19
18.9525
15.7468
13.3508
11.3302
9.92469
9.85321
10.3357
12.1922
15.4807
14.9906
14.9574
15.4239
15.3776
16.2772
15.5186
14.9617
15.6216
15.0184
13.0665
12.4126
12.0616
11.2898
10.9249
10.6188
10.9778
10.4151
9.02505
8.85474
9.12349
9.48134
9.59558
9.71178
9.87866
10.7108
12.194
12.3944
10.668
9.6329
10.7655
10.2419
8.65756
8.83705
9.37182
9.19628
8.66325
8.65372
9.62552
9.91875
9.71036
9.71794
9.70281
9.11441
8.28825
8.24379
9.12005
10.0923
10.5851
11.3676
12.3735
13.6607
14.9553
15.1529
14.8873
13.5373
11.6326
11.8087
13.9855
16.0682
16.2551
15.6072
13.8948
11.5991
9.19864
7.45947
5.99782
5.21038
5.08805
5.48469
6.48648
7.97413
9.75375
11.2428
11.203
10.7879
12.0529
15.641
20.1291
22.524
23.4822
23.4418
22.3384
19.7254
14.4216
10.984
10.9922
10.2254
8.59833
7.97172
7.71753
7.12247
5.89133
4.60832
4.0265
3.97093
3.99883
3.99422
3.92081
3.61979
3.15905
3.00456
3.06501
3.31806
3.75197
4.24186
4.62715
4.94964
5.16546
5.30342
5.33603
5.3667
5.45105
5.63145
5.71823
5.62851
5.53721
5.77003
6.34152
7.3495
8.65589
8.85966
8.65958
7.97429
6.68718
4.79426
3.45478
2.83927
2.50876
2.25047
1.86579
1.2555
0.927857
0.815223
0.775941
0.749097
20.7799
19.1619
18.4479
18.2867
21.3646
20.9337
16.9252
14.1282
12.1191
10.423
9.14446
9.09001
9.6274
11.3778
14.383
13.8177
13.8618
14.5726
14.8417
14.9026
13.2318
12.6534
13.4147
13.6063
12.3956
11.9575
11.6755
10.838
10.0037
9.39869
9.77158
9.4017
8.20379
8.07048
8.2854
8.60416
8.71293
8.81619
8.86738
9.28118
9.95417
9.94761
9.29653
8.85847
9.8642
9.41331
8.02211
8.13166
8.55625
8.39875
7.93292
7.88806
8.67018
9.0465
8.92125
8.86483
8.74803
8.19917
7.5298
7.5441
8.36417
9.2604
9.70534
10.5209
11.4861
12.4065
13.1953
13.2317
13.0144
12.4177
10.9439
10.9803
12.8667
14.6805
14.8095
14.2037
12.6592
10.5853
8.46468
6.93545
5.62204
4.89189
4.75676
5.07672
5.90371
7.22341
8.89079
10.2332
10.2177
9.93805
11.1916
14.6133
18.7001
20.6794
21.5589
21.5036
20.5275
18.1663
13.2998
9.8055
9.61324
8.9216
7.51181
7.19733
7.05743
6.58558
5.55361
4.41777
3.83325
3.69718
3.7003
3.71409
3.66792
3.39647
2.93529
2.75822
2.81146
3.05567
3.47452
3.93212
4.27108
4.5455
4.72221
4.8331
4.86111
4.89128
4.96461
5.11362
5.17615
5.09821
5.01512
5.21981
5.75982
6.71572
7.92116
8.10918
7.93306
7.31868
6.16415
4.48118
3.25126
2.68263
2.33949
1.96628
1.49786
1.02355
0.803338
0.720401
0.686767
0.660528
19.3974
18.8365
17.9238
18.3762
22.0726
18.6318
15.2943
12.9066
11.1837
9.71141
8.53247
8.48383
9.052
10.7196
13.3104
12.6768
12.8729
13.9466
14.4386
13.3145
11.4983
11.0284
11.632
12.1524
11.7395
11.6471
11.4596
10.588
9.25229
8.52884
8.78372
8.541
7.55634
7.45749
7.64081
7.92468
8.02685
8.13027
8.14086
8.36823
8.64673
8.38776
8.05534
8.19961
9.20229
8.77771
7.50374
7.55544
7.89701
7.75688
7.35443
7.31608
7.98984
8.41787
8.31533
8.17085
7.96873
7.46034
6.90665
6.96944
7.71655
8.49892
8.90807
9.71095
10.7229
11.4262
11.9489
11.8879
11.5417
11.3996
10.4411
10.3143
11.9589
13.5462
13.6247
13.0568
11.6565
9.76221
7.8563
6.5088
5.33257
4.65301
4.50759
4.76851
5.47338
6.6494
8.20136
9.41431
9.41764
9.24766
10.4959
13.8
17.5657
19.2155
20.0363
19.9453
19.0562
16.9042
12.4145
8.90954
8.20874
7.44919
6.63183
6.59233
6.53674
6.15658
5.28054
4.26503
3.68137
3.4793
3.46036
3.49593
3.47628
3.227
2.76569
2.56021
2.60432
2.83875
3.24808
3.67847
3.9765
4.20649
4.35273
4.4444
4.47034
4.50039
4.56561
4.69105
4.73831
4.67473
4.60637
4.78904
5.29273
6.20423
7.33601
7.51703
7.36176
6.8022
5.74716
4.22399
3.08047
2.55899
2.22915
1.83575
1.30386
0.89892
0.731297
0.659509
0.625351
0.597056
18.2694
18.658
17.6327
18.6253
21.7648
16.8522
14.0585
11.9703
10.4506
9.13777
8.0377
7.9904
8.57378
10.1689
12.2724
11.7103
11.9028
13.3415
14.1573
12.1072
10.4031
9.90359
10.3208
10.9379
11.1935
11.3731
11.3318
10.3234
8.58103
7.88815
8.01385
7.71474
6.9466
6.93415
7.12377
7.39118
7.49486
7.59664
7.58722
7.71582
7.80088
7.44665
7.11893
7.66641
8.71929
8.28234
7.07188
7.08189
7.3648
7.24023
6.89024
6.87094
7.48031
7.91886
7.81901
7.61054
7.35366
6.88274
6.41345
6.49692
7.18811
7.90783
8.26605
8.92318
9.90396
10.4492
10.9142
10.8822
10.4735
10.4873
9.9763
9.74777
11.2058
12.6099
12.6512
12.1171
10.8357
9.08891
7.34564
6.14914
5.09568
4.46004
4.30893
4.52433
5.13927
6.19859
7.64135
8.74337
8.76288
8.67603
9.91751
13.133
16.647
18.1124
18.9295
18.7606
17.8652
15.865
11.7063
8.23817
7.1757
6.39985
5.97735
6.09408
6.10578
5.80107
5.05147
4.13644
3.55483
3.2783
3.21182
3.27488
3.29492
3.07855
2.6304
2.40404
2.44033
2.66089
3.05222
3.45227
3.71315
3.90913
4.03806
4.12226
4.15166
4.18343
4.24295
4.3512
4.39021
4.33946
4.28359
4.44666
4.91712
5.79149
6.86224
7.03758
6.89769
6.38385
5.41112
4.01381
2.93556
2.45036
2.14301
1.75604
1.21819
0.84059
0.685768
0.61435
0.577866
0.547285
17.3956
18.6456
17.5134
19.1277
19.6518
15.3236
13.0508
11.2135
9.84716
8.65836
7.62282
7.57508
8.16656
9.71226
11.386
10.9914
10.9952
12.7614
13.9229
11.1369
9.61902
9.0806
9.32128
9.95486
10.6577
11.1637
11.2404
9.90695
8.02544
7.38387
7.41031
7.08791
6.42204
6.45755
6.67851
6.94001
7.05195
7.1557
7.13816
7.20915
7.18351
6.77876
6.44306
7.19622
8.32338
7.85197
6.70008
6.68266
6.91175
6.80107
6.50065
6.50759
7.08231
7.52448
7.41516
7.14307
6.84706
6.41089
6.01147
6.1075
6.76027
7.442
7.7605
8.25866
9.02236
9.49546
10.0292
10.0926
9.65807
9.65759
9.4405
9.27988
10.5679
11.8148
11.8259
11.3201
10.1409
8.5221
6.91166
5.84095
4.89771
4.30468
4.14825
4.32253
4.86616
5.8303
7.17544
8.1795
8.21182
8.19057
9.42946
12.5898
15.9193
17.3151
18.154
17.8933
16.9074
14.9791
11.1127
7.71736
6.50155
5.75505
5.49758
5.66989
5.73264
5.49927
4.85784
4.0281
3.44647
3.09505
2.94466
3.01743
3.09377
2.91667
2.49779
2.27446
2.30953
2.51597
2.87697
3.24491
3.47506
3.64981
3.77058
3.85247
3.887
3.92196
3.97703
4.07024
4.10148
4.05992
4.01676
4.16946
4.61323
5.45267
6.46977
6.63962
6.51302
6.03611
5.13066
3.83696
2.81127
2.35257
2.07176
1.70003
1.16735
0.801586
0.649053
0.575954
0.537742
0.505242
16.7853
18.8247
17.5968
19.5862
17.5836
14.0575
12.2191
10.5969
9.34712
8.25334
7.27367
7.22039
7.8132
9.33458
10.6854
10.419
10.2799
12.1857
13.7473
10.4426
9.07783
8.47932
8.55517
9.14681
10.0921
11.0301
10.9922
9.41457
7.58489
6.98332
6.92896
6.59526
6.00401
6.03218
6.25663
6.51515
6.64412
6.77266
6.76904
6.79806
6.70207
6.27036
5.96365
6.76862
7.98276
7.45567
6.38175
6.3359
6.52211
6.4254
6.17231
6.20471
6.75308
7.18655
7.06906
6.74859
6.42633
6.02096
5.68152
5.78506
6.40468
7.05713
7.34363
7.72105
8.27808
8.74602
9.3515
9.47135
9.04651
8.95747
8.89416
8.84041
10.0178
11.1367
11.1278
10.6476
9.55262
8.03722
6.52259
5.55205
4.7157
4.16848
4.01062
4.15292
4.63976
5.52285
6.77895
7.69985
7.74464
7.77378
9.0102
12.1422
15.3395
16.7003
17.5264
17.2651
16.2032
14.2569
10.6223
7.29682
6.00735
5.31298
5.1356
5.31577
5.40914
5.23543
4.68909
3.9331
3.35266
2.94155
2.71636
2.73907
2.83811
2.71267
2.34667
2.15758
2.20148
2.39556
2.72264
3.05554
3.26589
3.43035
3.54706
3.62598
3.66332
3.70064
3.75243
3.83497
3.86165
3.82695
3.79433
3.9406
4.36201
5.17066
6.13913
6.30389
6.18719
5.742
4.89575
3.68782
2.70556
2.25847
2.0014
1.65266
1.1341
0.770739
0.615655
0.539629
0.49981
0.466976
16.3472
19.3609
17.7678
19.536
15.9109
13.0321
11.5228
10.0829
8.9245
7.90304
6.97506
6.91463
7.49769
9.0209
10.0981
9.9413
9.72489
11.6236
13.0209
9.92288
8.664
8.00688
7.95436
8.45415
9.49516
10.7353
10.5006
8.9154
7.21807
6.64854
6.54057
6.20239
5.66387
5.67796
5.88476
6.13209
6.26995
6.42568
6.45198
6.45233
6.31176
5.86972
5.59231
6.37437
7.66249
7.09687
6.10456
6.03058
6.18357
6.09496
5.88545
5.94439
6.47787
6.90645
6.77544
6.4044
6.06365
5.68759
5.39906
5.51255
6.10481
6.733
6.99264
7.28229
7.70677
8.17902
8.81862
8.96073
8.55015
8.37406
8.39668
8.44767
9.53693
10.5457
10.5213
10.0636
9.04109
7.61579
6.1692
5.27124
4.53815
4.04443
3.8913
4.00519
4.4444
5.25818
6.43408
7.28212
7.33836
7.40844
8.6443
11.7737
14.8699
16.1945
16.9656
16.7427
15.6702
13.6776
10.2003
6.94808
5.62721
4.97538
4.84661
5.01937
5.12668
5.00376
4.54281
3.8509
3.27117
2.81732
2.55007
2.51817
2.57191
2.472
2.17784
2.05213
2.10879
2.29355
2.59149
2.89167
3.08803
3.24779
3.36139
3.43539
3.4718
3.50887
3.55746
3.63106
3.65385
3.62496
3.602
3.74473
4.14817
4.92941
5.85554
6.01603
5.90804
5.48902
4.69347
3.55913
2.61533
2.16832
1.9266
1.60461
1.1096
0.74413
0.582611
0.503043
0.463255
0.432275
15.7483
19.5023
18.3168
17.2258
13.9113
11.803
10.6704
9.45749
8.3965
7.44615
6.58385
6.51472
7.06016
8.56732
9.38326
9.37467
9.07843
10.6973
11.4234
9.20083
8.12144
7.44228
7.25673
7.58738
8.59332
9.94438
9.58511
8.22977
6.7534
6.22142
6.06088
5.72881
5.25001
5.24734
5.42775
5.65296
5.7996
5.97941
6.03978
6.0082
5.81812
5.37396
5.15222
5.84718
7.16778
6.6253
5.74257
5.63232
5.7474
5.66988
5.5101
5.60435
6.12564
6.54273
6.36677
5.94372
5.59275
5.25694
5.03212
5.15825
5.72296
6.31662
6.54125
6.74022
7.0453
7.51479
8.16806
8.30746
7.92798
7.71161
7.80042
7.92676
8.89831
9.77093
9.7311
9.30611
8.37393
7.06292
5.7094
4.86542
4.26415
3.85658
3.72086
3.8073
4.1901
4.9102
5.97392
6.72982
6.80414
6.92691
8.16383
11.3044
14.2378
15.4916
16.1889
16.032
14.9717
13.0003
9.68796
6.50805
5.16544
4.58261
4.49455
4.65434
4.76695
4.6954
4.3415
3.73595
3.16011
2.6591
2.36173
2.27885
2.26502
2.16229
1.96425
1.91625
1.98829
2.16185
2.42518
2.68509
2.8641
3.01715
3.12563
3.1919
3.22533
3.25998
3.30304
3.36486
3.38448
3.36287
3.3515
3.49004
3.8723
4.61656
5.48511
5.64074
5.54267
5.15888
4.43282
3.39271
2.50073
2.04462
1.80298
1.51448
1.06162
0.697589
0.527325
0.447324
0.410148
0.384751
15.0228
18.0301
16.5651
14.312
12.0313
10.6314
9.8515
8.86333
7.87429
6.9686
6.16757
6.09157
6.56912
8.00076
8.67596
8.86842
8.51772
9.46012
9.68204
8.30009
7.47151
6.86069
6.61107
6.79561
7.58981
8.68227
8.44242
7.47153
6.28129
5.78987
5.59005
5.26849
4.84396
4.82812
4.98645
5.18394
5.33016
5.52131
5.61333
5.56944
5.35101
4.92159
4.75222
5.32699
6.54525
6.14472
5.35784
5.21307
5.29049
5.22779
5.10467
5.23549
5.76027
6.13995
5.90669
5.43354
5.08479
4.79845
4.632
4.77722
5.33247
5.89215
6.0813
6.21742
6.46114
6.91795
7.55716
7.65788
7.31475
7.18005
7.32578
7.41772
8.2341
8.96164
8.90101
8.50747
7.6695
6.48373
5.24798
4.41601
3.8993
3.60372
3.50385
3.57774
3.91096
4.5357
5.47744
6.13802
6.22864
6.39696
7.6446
10.8965
13.6197
14.6692
15.2533
15.1524
14.1934
12.389
9.20868
6.08522
4.72504
4.20341
4.13765
4.29323
4.40558
4.37094
4.11433
3.59474
3.0269
2.49613
2.19823
2.09136
2.0325
1.92561
1.79449
1.78768
1.8649
2.02765
2.26178
2.4846
2.64362
2.78557
2.88715
2.94516
2.97435
3.00585
3.04106
3.08687
3.10175
3.0843
3.0829
3.2185
3.58343
4.29069
5.10437
5.25589
5.16928
4.81909
4.16269
3.2193
2.38757
1.92239
1.62443
1.33929
0.943512
0.611744
0.463286
0.397931
0.365734
0.342763
14.2312
15.9382
14.0452
12.4116
10.7456
9.76304
9.1837
8.34226
7.43081
6.58525
5.8298
5.74328
6.16569
7.42043
8.16036
8.43732
8.12912
8.59395
8.49745
7.46243
6.81343
6.34955
6.13425
6.24112
6.8377
7.69521
7.54138
6.84541
5.9002
5.45382
5.2312
4.9139
4.53019
4.51095
4.64998
4.82404
4.97224
5.17219
5.28351
5.22801
4.99255
4.57549
4.45073
4.95262
6.05207
5.77305
5.05055
4.87598
4.92726
4.87948
4.78207
4.93223
5.43065
5.75899
5.51543
5.02409
4.67814
4.43192
4.31104
4.46653
5.00497
5.53658
5.7095
5.81459
6.03018
6.47501
7.09474
7.16899
6.85417
6.74703
6.94082
6.99509
7.69511
8.31453
8.24361
7.87425
7.10432
6.01354
4.87908
4.0762
3.58227
3.34862
3.28256
3.36152
3.66358
4.22223
5.0708
5.6628
5.76845
5.96007
7.13929
10.3963
12.9517
13.8085
14.2464
14.1891
13.3914
11.7776
8.779
5.76158
4.37176
3.88799
3.84351
4.0062
4.11904
4.1064
3.91891
3.46529
2.90413
2.35432
2.07158
1.95749
1.87998
1.77395
1.67562
1.68486
1.76392
1.91861
2.13134
2.32381
2.46375
2.59625
2.6951
2.74923
2.77624
2.80537
2.83484
2.87038
2.88012
2.86279
2.86702
2.99847
3.34526
4.0246
4.79749
4.94876
4.87151
4.55025
3.95142
3.08202
2.29809
1.8352
1.47701
1.13941
0.77458
0.529743
0.422882
0.370285
0.338618
0.313681
12.5782
14.0223
12.2114
11.0107
9.72555
9.04515
8.57365
7.83519
7.02914
6.26668
5.54778
5.44635
5.82124
6.8257
7.73962
8.0344
7.8194
8.05222
7.77414
6.88
6.33856
5.9615
5.76438
5.81838
6.25965
6.93811
6.83889
6.32801
5.57689
5.18069
4.95373
4.6347
4.2744
4.24866
4.37446
4.52716
4.67373
4.88011
5.01426
4.95409
4.71082
4.3105
4.2214
4.66494
5.67185
5.47256
4.79527
4.59271
4.62454
4.59097
4.51871
4.68284
5.14069
5.4247
5.19679
4.7018
4.35573
4.14344
4.0537
4.21264
4.72779
5.23331
5.3967
5.48476
5.6849
6.12183
6.73129
6.7887
6.48966
6.39274
6.58508
6.63535
7.24991
7.77803
7.69773
7.34524
6.62862
5.61758
4.57301
3.81072
3.33885
3.1289
3.09065
3.17312
3.44652
3.95583
4.7358
5.27602
5.39039
5.58777
6.62218
9.65439
12.0899
12.6843
12.8293
12.8518
12.3298
11.0007
8.32884
5.40932
4.05011
3.60931
3.59929
3.77159
3.88548
3.89607
3.76025
3.35748
2.79683
2.23271
1.96357
1.85446
1.77072
1.66634
1.58024
1.59286
1.67222
1.82139
2.01858
2.18772
2.31244
2.43405
2.52986
2.58206
2.60889
2.639
2.66418
2.68997
2.69354
2.67682
2.68847
2.8158
3.14013
3.79335
4.54525
4.69767
4.62811
4.32964
3.77647
2.96825
2.22675
1.76993
1.38031
0.992233
0.666491
0.485013
0.401603
0.352505
0.320116
0.292113
10.9077
12.1493
10.914
9.88172
8.83973
8.39272
8.00083
7.37876
6.68621
6.0048
5.31812
5.19529
5.52373
6.31711
7.34546
7.66369
7.55717
7.67005
7.30861
6.50198
6.01769
5.67313
5.47412
5.48657
5.81552
6.35669
6.29074
5.90476
5.30155
4.9538
4.73311
4.41171
4.06151
4.03094
4.14842
4.28448
4.43148
4.64524
4.79705
4.72818
4.47654
4.08678
4.02995
4.44009
5.37296
5.23024
4.57595
4.35281
4.37226
4.35407
4.30602
4.47937
4.90298
5.14587
4.93681
4.41933
4.08133
3.912
3.84521
4.0048
4.49175
4.97225
5.12968
5.20997
5.39951
5.8282
6.43036
6.48231
6.19953
6.07857
6.22071
6.30071
6.87129
7.33142
7.24784
6.90888
6.23321
5.28185
4.31021
3.59232
3.15074
2.96444
2.93928
3.02349
3.27327
3.73747
4.45556
4.95565
5.07836
5.27824
6.17656
8.75001
10.8478
11.2025
11.2484
11.3744
11.0904
9.99939
7.68547
5.02408
3.7731
3.39388
3.40664
3.58864
3.70118
3.72837
3.63219
3.2705
2.7131
2.12894
1.86036
1.76253
1.68392
1.58474
1.50407
1.51167
1.58701
1.7307
1.9157
2.07047
2.18655
2.29543
2.38244
2.43169
2.46107
2.49737
2.51965
2.53593
2.52741
2.5098
2.53385
2.66113
2.96794
3.59528
4.31928
4.47274
4.411
4.13682
3.62704
2.872
2.16763
1.71753
1.31096
0.906343
0.615852
0.462254
0.385061
0.335731
0.301916
0.272523
9.65161
10.7205
9.89063
8.93258
8.0681
7.73139
7.46418
6.97597
6.39222
5.7818
5.12623
4.98504
5.26849
5.90461
6.94913
7.30652
7.30983
7.36654
6.95719
6.22397
5.77247
5.44047
5.22482
5.20996
5.45876
5.89474
5.84962
5.55029
5.06263
4.75838
4.5438
4.22228
3.87861
3.8403
3.95037
4.07141
4.21292
4.43142
4.61101
4.53946
4.28411
3.90751
3.86943
4.25673
5.1305
5.03358
4.38379
4.14376
4.15309
4.15043
4.12605
4.30833
4.71567
4.93567
4.71794
4.1458
3.82085
3.70516
3.66906
3.82947
4.292
4.74938
4.89782
4.97177
5.15054
5.57527
6.17247
6.2253
5.95926
5.81321
5.8904
6.00976
6.55053
6.9527
6.86462
6.53276
5.89102
4.99069
4.08073
3.40711
3.00091
2.84175
2.82572
2.90379
3.12928
3.55394
4.21935
4.68411
4.81208
5.01077
5.79729
7.91359
9.49013
9.72833
9.79562
10.0105
9.96725
9.06635
7.02695
4.6441
3.52729
3.21706
3.2501
3.44195
3.55305
3.59693
3.53076
3.20038
2.64777
2.04426
1.75675
1.67641
1.60971
1.52013
1.44366
1.44597
1.514
1.65009
1.82519
1.97238
2.08244
2.17864
2.25222
2.29312
2.32159
2.36473
2.3853
2.38941
2.36423
2.34611
2.38662
2.52404
2.81967
3.4117
4.11136
4.26513
4.20927
3.9516
3.48044
2.77835
2.11546
1.67491
1.26116
0.855704
0.586495
0.442981
0.366342
0.316196
0.282397
0.254964
8.72329
9.65717
9.03212
8.15534
7.40552
7.16433
7.01092
6.63128
6.1401
5.58914
4.95992
4.80513
5.0449
5.57955
6.52422
6.92673
7.08229
7.12874
6.70852
6.02047
5.59962
5.25827
5.01455
4.98074
5.17275
5.52625
5.49327
5.25158
4.85239
4.58821
4.38218
4.06101
3.72269
3.67411
3.77259
3.8794
4.00955
4.23141
4.44481
4.37853
4.12235
3.76076
3.73387
4.10747
4.93458
4.86627
4.21314
3.96031
3.9598
3.97159
3.97178
4.16415
4.56157
4.75612
4.50279
3.87948
3.58433
3.51699
3.51813
3.68004
4.11826
4.55324
4.69375
4.76536
4.93406
5.35446
5.92856
5.97999
5.73504
5.57642
5.62184
5.75675
6.27335
6.6353
6.54573
6.21541
5.59922
4.73965
3.87801
3.24432
2.87448
2.74162
2.73177
2.80399
3.00914
3.398
4.01611
4.45188
4.58496
4.78183
5.48049
7.2379
8.40217
8.51849
8.51369
8.74213
8.90596
8.19402
6.44006
4.31829
3.32181
3.06966
3.1198
3.32152
3.43148
3.49004
3.44739
3.14256
2.59459
1.97589
1.65542
1.5864
1.54051
1.46731
1.39559
1.39435
1.45599
1.58405
1.75031
1.8911
1.99491
2.08052
2.14215
2.17246
2.19392
2.23252
2.24967
2.24309
2.20798
2.1925
2.24542
2.39857
2.6865
3.24499
3.91726
4.06866
4.01321
3.76307
3.31902
2.67214
2.05994
1.63522
1.22312
0.822142
0.562134
0.420922
0.344696
0.296806
0.266849
0.240993
6.36273
6.89538
6.6929
6.16708
5.726
5.71738
5.72537
5.58847
5.36842
5.00314
4.45586
4.25897
4.37408
4.68486
5.15477
5.60215
6.30124
6.52214
6.06554
5.51818
5.13709
4.75097
4.43347
4.36342
4.42519
4.58616
4.58172
4.48311
4.29552
4.13292
3.95852
3.64689
3.32494
3.25084
3.3001
3.35693
3.43505
3.65167
3.98316
3.98009
3.74836
3.4306
3.40875
3.76176
4.51258
4.44616
3.79182
3.51546
3.50166
3.54091
3.60085
3.83302
4.23022
4.32851
3.97122
3.26715
3.10585
3.13046
3.19569
3.36371
3.75226
4.14102
4.26266
4.33123
4.47531
4.87869
5.38841
5.44487
5.26484
5.16008
5.1474
5.28887
5.76272
6.0564
5.96671
5.63617
5.06444
4.28347
3.5118
2.95371
2.65849
2.5797
2.58256
2.63573
2.80325
3.13414
3.68411
4.07772
4.22074
4.41657
4.9976
6.29902
6.96915
6.84394
6.62467
6.85173
7.21132
6.82232
5.53058
3.8458
3.041
2.86366
2.94439
3.16369
3.27572
3.3609
3.34882
3.07444
2.53332
1.89999
1.53487
1.46068
1.45151
1.40607
1.345
1.34188
1.39864
1.51931
1.67647
1.81084
1.9088
1.98584
2.0382
2.06115
2.07399
2.10043
2.11071
2.09959
2.06921
2.06147
2.12136
2.28716
2.57234
3.11104
3.77211
3.9198
3.86019
3.6114
3.17905
2.57404
2.01445
1.60843
1.20471
0.810259
0.551412
0.408646
0.332357
0.286863
0.25824
0.234324
5.16014
5.32517
5.19816
4.92464
4.69238
4.68833
4.7484
4.72781
4.6648
4.46623
4.04396
3.77108
3.7355
3.85062
3.93771
4.02019
4.32939
4.81735
4.84983
4.64713
4.35896
4.03249
3.76677
3.70664
3.74369
3.8272
3.86873
3.86476
3.8112
3.71587
3.55961
3.26753
2.98315
2.89977
2.86495
2.81808
2.79038
2.91139
3.31453
3.4769
3.35068
3.13656
3.14516
3.44493
4.04279
3.94598
3.37861
3.04843
3.0128
3.03664
3.12132
3.37719
3.7851
3.85402
3.28535
2.74353
2.71074
2.7782
2.8775
3.04795
3.37203
3.70625
3.8237
3.90113
4.00756
4.24691
4.63027
4.73223
4.68047
4.65752
4.63898
4.77591
5.21316
5.44847
5.37084
5.06448
4.54357
3.8281
3.13473
2.6486
2.43181
2.41002
2.40739
2.43679
2.56763
2.85512
3.34062
3.70038
3.85566
4.04135
4.50426
5.42016
5.74007
5.39788
4.81017
4.84348
5.25248
5.25584
4.56823
3.40311
2.7647
2.65837
2.74924
2.9633
3.09032
3.22358
3.25718
3.00769
2.47275
1.83048
1.43058
1.32689
1.34206
1.33052
1.29196
1.29233
1.34788
1.46204
1.60895
1.73484
1.82677
1.8979
1.9445
1.96181
1.96781
1.98244
1.98649
1.97566
1.95292
1.95263
2.01812
2.19209
2.47861
3.00806
3.66334
3.81159
3.74917
3.50187
3.07706
2.49922
1.97722
1.58789
1.19227
0.802904
0.545539
0.402598
0.327061
0.282974
0.25529
0.232594
4.54597
4.60627
4.5646
4.41179
4.24784
4.17809
4.17808
4.1728
4.13654
4.03406
3.73265
3.47403
3.37758
3.31389
3.23857
3.2041
3.28865
3.47389
3.57173
3.53659
3.45267
3.32831
3.1953
3.17329
3.20516
3.2716
3.3398
3.40808
3.4117
3.3576
3.2294
2.98974
2.76874
2.69471
2.62205
2.51569
2.43373
2.46472
2.69256
2.95326
2.93885
2.8427
2.87819
3.1673
3.64734
3.5781
3.11957
2.76938
2.70389
2.70662
2.76324
2.95629
3.33255
3.33522
2.78106
2.43613
2.45872
2.55105
2.65714
2.81621
3.10213
3.40544
3.52297
3.58707
3.63695
3.67052
3.92166
4.12492
4.25033
4.27233
4.23132
4.41133
4.81753
4.94741
4.8427
4.57097
4.11513
3.46474
2.84492
2.42403
2.25279
2.25883
2.25279
2.25404
2.35769
2.63491
3.09135
3.42464
3.58033
3.75072
4.11214
4.72126
4.78544
4.42359
3.90354
3.80925
3.98439
4.03926
3.72291
3.01775
2.54357
2.49154
2.56792
2.73785
2.88768
3.07868
3.16821
2.94805
2.42296
1.76599
1.35486
1.2331
1.2412
1.25204
1.23967
1.24945
1.30726
1.41692
1.5557
1.67252
1.75808
1.8238
1.86619
1.87889
1.87912
1.88448
1.88366
1.87185
1.85238
1.85591
1.92629
2.10492
2.39225
2.91698
3.57298
3.71956
3.65076
3.40303
2.98313
2.42638
1.93585
1.56483
1.18042
0.796415
0.540051
0.396553
0.321908
0.279034
0.252406
0.230911
4.31542
4.31785
4.27932
4.17777
4.04916
3.93741
3.84525
3.80791
3.7983
3.74644
3.54092
3.30758
3.17644
3.05537
2.94914
2.86802
2.85341
2.88723
2.91506
2.90415
2.88479
2.84858
2.79748
2.7964
2.82716
2.88388
2.95431
3.04596
3.11097
3.09089
2.99433
2.79226
2.62673
2.57059
2.47521
2.3376
2.24406
2.23561
2.31018
2.47861
2.59383
2.59037
2.6641
2.95213
3.35961
3.31903
2.94175
2.59332
2.52652
2.52454
2.55464
2.65805
2.85573
2.81336
2.45223
2.24446
2.29157
2.39705
2.507
2.65136
2.89257
3.16586
3.29723
3.35631
3.37646
3.3058
3.27047
3.47075
3.77247
3.92025
3.93305
4.13755
4.45619
4.46683
4.29831
4.04746
3.69071
3.15586
2.61991
2.25403