/*--------------------------------*- C++ -*----------------------------------*\
| =========                 |                                                 |
| \\      /  F ield         | OpenFOAM: The Open Source CFD Toolbox           |
|  \\    /   O peration     | Version:  v1912                                 |
|   \\  /    A nd           | Website:  www.openfoam.com                      |
|    \\/     M anipulation  |                                                 |
\*---------------------------------------------------------------------------*/
FoamFile
{
    version     2.0;
    format      ascii;
    class       volScalarField;
    location    "20";
    object      p_rgh;
}
// * * * * * * * * * * * * * * * * * * * * * * * * * * * * * * * * * * * * * //

dimensions      [1 -1 -2 0 0 0 0];


internalField   nonuniform List<scalar> 
114144
(
641548
763835
770393
759431
715120
634838
520698
375431
201889
3743.46
-213552
-442162
-671837
-890776
-1.08647e+06
-1.24696e+06
-1.36246e+06
-1.42729e+06
-1.44383e+06
-1.43974e+06
-1.39464e+06
-1.21122e+06
-1.06738e+06
-921909
-785595
-664819
-564217
-483487
-418762
-364031
-312586
-258082
-195381
-121475
-36266.9
56952
152456
242768
320240
378487
413595
425196
424630
414228
391652
361500
329867
302436
283003
272918
270292
274132
280292
285205
286418
285123
278027
264179
244443
220227
193033
164076
134047
103044
70667.5
36217.6
-987.029
-41444.5
-84400.9
-129703
-175475
-219522
-259311
-292274
-316240
-329254
-332206
-318245
-297856
-267092
-229424
-186935
-142194
-97522.2
-54956.3
-16222.4
17986.8
46338.7
68760.1
85324.6
96351.3
102358
103840
102986
99966.6
94369.4
86522.6
76881.1
66269.5
55021.4
43614.6
35407
28547.6
23521.8
19916.4
17449.2
15681.6
14176.7
12537.6
10460.5
7785.1
4534.7
926.81
-2670.54
-5765.59
-7931.72
-8598.12
-8265.16
-6019.16
-2075.79
3223.71
9089.52
14746.3
19343.9
22374.8
23151.8
22509.4
19774.3
15148.2
8981.31
1817.84
-5774.62
-13213.6
-20004.2
-25743.4
-30156.6
-33102.3
-34535.7
-34561.6
-33181.7
-30699.9
-27235.2
-23008.5
-18208.9
-13045.1
-7704.15
-2388.69
2714.99
7434.31
11568.7
15039.3
17680.9
19444.6
20230.7
20158
19065.7
17328.1
15012.9
11849.2
8556.62
5026.36
1577.19
-1751.87
-4601.61
-7206.8
-9119.21
-10537.2
-11376.1
-11727.9
-11608.2
-11108.2
-10285.6
-9192.3
-7892.51
-6464.09
-4930.18
-3301.01
-1667.9
-21.5842
1690.04
3322.79
4861.66
6279.43
7534.86
8603.05
9459.7
10089.4
10487.8
10658.2
10631
10420.6
10053.6
9559.08
8967.07
8303.79
7591.05
6844.57
6073.9
5284.59
4479.73
3661.17
2830.82
1991.92
1149.94
311.497
-515.663
-1317.21
-2078.36
-2784.74
-3422.3
-3978.65
-4444.34
-4812.91
-5080.81
-5247.53
-5314.89
-5292.37
-5186.67
-5007.35
-4764.62
-4468.8
-4130.15
-3758.51
-3362.92
-2951.52
-2531.61
-2109.6
-1691.11
-1280.96
-883.344
-501.91
-139.271
202.48
520.92
814.403
1082.04
1323.09
1537.19
1724.29
1884.57
2018.54
2126.93
2210.71
2271.03
2309.21
2326.64
2325.17
2306.23
2272.18
2223.96
450230
552095
565036
562296
536234
478365
389783
273461
132729
-28472.5
-204888
-389510
-573689
-748079
-903123
-1.02995e+06
-1.12158e+06
-1.17458e+06
-1.19198e+06
-1.19077e+06
-1.16526e+06
-1.01596e+06
-905854
-793075
-686053
-588435
-504435
-433801
-373912
-320806
-270127
-217785
-160517
-96484.1
-25654.7
49227.4
124434
194731
254865
300580
329532
342224
343710
340712
329669
312226
292200
273610
259299
250466
245260
244634
245185
244907
243546
239696
231975
219713
203197
183185
160576
136133
110333
83308.6
54906.4
24802.2
-7290.81
-41521.7
-77619.3
-114453
-150969
-185589
-216508
-241897
-260230
-270054
-272345
-260701
-244786
-220562
-190843
-157110
-121321
-85262.9
-50538
-18477
9884.31
33849.8
53139.7
67704.1
77738.3
83628.9
85865
85741.1
84362.1
80712.2
75003.2
67569.7
59123.3
49766.7
40191
33261.1
27294.5
22735.3
19238.2
16608.5
14527.7
12693.6
10837.9
8760.73
6362.56
3670.49
846.913
-1844.9
-4052.98
-5493.26
-5758
-5388.63
-3546.5
-427.938
3691.35
8184.98
12419.2
15719
17717.8
17881.5
17072.6
14615.1
10706.7
5605.08
-258.366
-6440
-12475.7
-17973.4
-22605.2
-26143.8
-28467.1
-29527.8
-29412.7
-28085.3
-25831
-22729.2
-18974.4
-14730.7
-10184.6
-5502.9
-867.303
3556.96
7618.52
11139.5
14061.5
16234.9
17624.8
18141.2
17902.1
16755.3
15044.4
12844.8
9878.38
6821.8
3565.81
403.171
-2639.59
-5221.55
-7584.85
-9293.31
-10559.8
-11267.5
-11532.5
-11360.9
-10835.4
-10004.7
-8923.9
-7632.83
-6222.55
-4707.73
-3097.56
-1485.67
140.032
1827.51
3439.14
4957.15
6355.99
7595.1
8649.77
9495.82
10118.5
10513.3
10678.8
10648.1
10436.4
10067
9569.8
8975.24
8309.61
7594.99
6847.16
6075.67
5285.88
4480.7
3661.81
2830.96
1991.27
1148.17
308.297
-520.583
-1324.02
-2087.11
-2795.31
-3434.47
-3992.07
-4458.57
-4827.51
-5095.3
-5261.5
-5327.98
-5304.34
-5197.35
-5016.64
-4772.48
-4475.26
-4135.27
-3762.38
-3365.63
-2953.2
-2532.36
-2109.53
-1690.32
-1279.55
-881.394
-499.502
-136.477
205.59
524.286
817.96
1085.73
1326.87
1541
1728.09
1888.32
2022.19
2130.46
2214.07
2274.21
2312.18
2329.38
2327.66
2308.45
2274.02
2225.11
315289
387035
399937
398814
384450
344795
278653
188262
76758.7
-52146.2
-193561
-341485
-488356
-626891
-749892
-850840
-924819
-969669
-987556
-987630
-973099
-857100
-773251
-685878
-601629
-524382
-454951
-393453
-338520
-287871
-238906
-189135
-136519
-79873.1
-19420.3
43739.1
106331
164685
214966
254027
280176
293975
299092
298787
294421
284010
270325
256567
245178
237364
231252
228593
227415
225806
222996
218427
210861
199603
184730
166742
146293
123976
100186
75069.5
48559
20452.9
-9413.42
-41122
-74140.4
-107811
-141036
-172416
-200365
-223279
-239816
-248692
-250710
-240230
-225785
-203826
-176810
-146058
-113322
-80216.5
-48214.7
-18562.2
7927.58
30332.3
48459.2
62251.8
71872.9
77662.3
80082.2
80112.6
79006.4
75917.5
70860.2
64116.3
56365.5
47569.4
38720.8
32199.6
26565.2
22196.2
18786.3
16164.9
14053.8
12186.6
10323.1
8284.43
5982.26
3442.29
812.515
-1669.49
-3684.43
-4973.52
-5186.84
-4816.54
-3075.38
-154.042
3712.85
7885.66
11798.4
14818.1
16593.7
16660.6
15825.5
13432.2
9684.3
4820.88
-751.776
-6614.39
-12334
-17534.1
-21907.4
-25237.8
-27408.7
-28374.9
-28219.3
-26894.6
-24687.1
-21663.6
-18012.5
-13891.5
-9480.84
-4941.9
-450.987
3830.96
7758.82
11154.6
13967.5
16049.2
17365.6
17827.9
17550.4
16383
14662.6
12461.7
9511.07
6470.56
3240.37
104.643
-2905.83
-5455.64
-7782.28
-9458.44
-10671
-11356.8
-11599
-11405.1
-10862.1
-10017.2
-8927.21
-7631.86
-6216.06
-4698.73
-3087.72
-1473.27
157.459
1849.95
3469.44
4994.63
6400.36
7645.71
8706.17
9556.38
10179.6
10572.2
10738.4
10700.2
10479.4
10101.3
9595.78
8993.46
8321.66
7602.55
6851.77
6078.49
5287.69
4481.89
3662.35
2830.51
1989.28
1143.99
301.295
-530.983
-1338.16
-2105.05
-2816.86
-3459.14
-4019.15
-4487.23
-4856.83
-5124.38
-5289.49
-5354.2
-5328.3
-5218.72
-5035.22
-4788.21
-4488.18
-4145.5
-3770.1
-3371.05
-2956.54
-2533.84
-2109.37
-1688.72
-1276.71
-877.485
-494.679
-130.878
211.82
531.027
825.082
1093.12
1334.43
1548.63
1735.69
1895.81
2029.5
2137.51
2220.81
2280.57
2318.12
2334.87
2332.64
2312.89
2277.83
2228.28
210268
253247
262176
261066
252715
226573
179511
112507
28052.1
-70772.7
-181244
-295033
-407881
-514682
-610250
-689911
-750189
-789613
-809541
-814103
-810011
-722628
-661819
-596173
-530973
-468599
-410291
-356326
-306076
-258368
-211819
-165056
-116919
-66743.9
-14669
38271.2
89992.2
137893
179306
212097
235227
249250
256384
258531
257840
253402
245555
236503
228100
221407
214602
209639
206413
202935
198771
193259
185571
175152
161914
146093
128077
108254
86914.5
64209.4
40166.7
14735.7
-12084.4
-40326.3
-69339
-98473.5
-126842
-153331
-176698
-195695
-209285
-216465
-217933
-208830
-196538
-177937
-155035
-128889
-100929
-72488.1
-44803.1
-18870.4
4294.37
24108.9
40309.7
52802.9
61701.2
67277.6
69947.7
70375.8
69743.2
67642.2
63722.1
58187.1
51661.2
43857.1
36258.2
30471.9
25409.9
21359.9
18076.7
15431.4
13213.4
11227.1
9298.31
7301.08
5178.47
2958.61
760.912
-1232.42
-2777.35
-3682.99
-3724.11
-3333.13
-1824.67
631.725
3824.76
7231.87
10328.1
12612.8
13785.3
13543.8
12600
10359.1
7024.7
2789.62
-2004.69
-7008.96
-11863.6
-16249.8
-19911.8
-22665.7
-24411.2
-25108.4
-24831.9
-23509.7
-21426.9
-18620.9
-15265
-11500.5
-7492.26
-3387.84
651.281
4477.45
7960.97
10937.6
13373.1
15126.1
16173.1
16434
16019.3
14794.1
13061.8
10911.3
8076.77
5173.23
2114.8
-839.328
-3660.2
-6029.73
-8183.84
-9712.06
-10806
-11389.5
-11548.4
-11301
-10724.4
-9860.28
-8767.79
-7474.31
-6061.42
-4551.82
-2949.54
-1347.26
275.468
1954.77
3568.55
5088.73
6491.26
7734.84
8794.25
9643.49
10266.5
10657
10805
10768.1
10540
10150.3
9632.96
9019.95
8339.32
7613.69
6858.54
6082.65
5290.45
4483.79
3663.34
2830.03
1986.48
1137.86
290.871
-546.569
-1359.42
-2132.06
-2849.3
-3496.29
-4059.93
-4530.39
-4901
-5168.16
-5331.6
-5393.63
-5364.33
-5250.83
-5063.12
-4811.81
-4507.54
-4160.82
-3781.65
-3379.15
-2961.51
-2536.03
-2109.1
-1686.3
-1272.42
-871.595
-487.421
-122.456
221.187
541.158
835.784
1104.23
1345.78
1560.09
1747.11
1907.07
2040.48
2148.1
2230.92
2290.12
2327.04
2343.11
2340.12
2319.57
2283.59
2233.07
134604
157533
163428
162539
158173
141668
108941
59775.6
-4196.9
-80521.8
-168487
-258166
-346901
-430966
-506584
-570384
-619895
-654039
-673428
-679718
-678196
-616402
-571019
-521089
-470013
-419466
-370322
-322919
-277129
-232576
-188765
-145140
-101175
-56557.5
-11445.8
33528.5
76821.6
116710
151374
179388
200118
214026
222583
227086
228218
227371
223774
218313
212356
206776
199898
193326
188823
184240
179230
173264
165688
156015
144073
129937
113824
95987.8
76644.7
55942
33963.3
10744.2
-13613.5
-39244.9
-65184.6
-91018.5
-115949
-139050
-159298
-175672
-187321
-193425
-194536
-186567
-175751
-159478
-139397
-116406
-91718.5
-66483.2
-41787
-18584.7
2488.64
20470.5
35279.8
46808.6
55141.5
60504.7
63260.4
63950.5
63422.4
61881.4
58661.1
53894
48151.7
40976.9
34291.4
28998.1
24349.4
20546.1
17394.2
14788.1
12560.5
10556.1
8634.71
6695.51
4694.94
2659.87
693.645
-1051.69
-2368.22
-3095.69
-3080.15
-2683.72
-1298.43
923.235
3808.99
6819.08
9518.57
11455.2
12341.6
11987.6
10992.3
8828.7
5693.39
1761.86
-2655.93
-7239.53
-11675.6
-15659.4
-18965.8
-21426.8
-22951.6
-23506.5
-23160.3
-21829.4
-19800.6
-17094.3
-13876.2
-10278.4
-6456.98
-2552.14
1282.8
4905.66
8195.63
10988.7
13262.2
14874.2
15804.4
15975.4
15491.5
14224.6
12466.1
10303.9
7482.53
4593.59
1566.93
-1351.56
-4124.88
-6444.69
-8541.46
-10016.1
-11030.9
-11564.5
-11683.4
-11396.8
-10788.7
-9899.45
-8790.05
-7488.36
-6064.99
-4548.14
-2937.88
-1328.8
305.119
1993.25
3622.13
5156.51
6573.89
7831.74
8903.73
9761.91
10388.5
10777.1
10927.4
10872.6
10626.6
10219.4
9684.62
9055.98
8362.8
7628.16
6867.2
6087.92
5294
4486.34
3664.76
2829.58
1982.95
1129.89
277.128
-567.275
-1387.78
-2168.19
-2892.76
-3546.1
-4114.64
-4588.29
-4960.24
-5226.88
-5387.95
-5446.4
-5412.5
-5293.74
-5100.37
-4843.28
-4533.34
-4181.2
-3796.99
-3389.88
-2968.08
-2538.89
-2108.68
-1683.01
-1266.65
-863.692
-477.697
-111.186
233.718
554.704
850.087
1119.07
1360.95
1575.39
1762.36
1922.1
2055.13
2162.24
2244.42
2302.87
2338.95
2354.11
2350.11
2328.51
2291.35
2239.66
94435.2
105256
107137
106027
101776
88954.8
64168.8
26507.9
-23246.6
-83252.5
-155482
-227061
-297446
-364074
-424244
-475554
-516256
-545541
-563591
-570991
-569999
-528566
-494880
-456995
-416951
-375833
-334263
-292567
-250933
-209545
-168571
-128071
-87979.7
-48237.6
-8991.91
29368.9
65754.1
99085.9
128182
152147
170641
184045
193338
199413
202853
203774
203126
200608
196774
192270
185644
177701
172113
166584
160918
154631
147197
138192
127394
114761
100375
84378.8
66923
48148.6
28183.4
7134.68
-14795.2
-37937
-60942.7
-83599.7
-105214
-125037
-142254
-156058
-165780
-170776
-171487
-164533
-155101
-141045
-123688
-103776
-82312.1
-60261.4
-38551.1
-17926.4
829.189
16884.9
30219.5
40703.1
48394.3
53475.9
56255.5
57173.2
56797.3
55732.5
53215.8
49238.6
44300.3
37810.9
32096.1
27343.6
23144.4
19614.3
16609.6
14049
11810.2
9783.05
7866.84
5990.8
4128.1
2305.68
610.076
-843.261
-1884.39
-2392.43
-2304.07
-1892.67
-655.163
1279.64
3724
6302.14
8488.64
9976.3
10476.5
9976.79
8891.23
6820.9
3942.23
411.825
-3500.82
-7517.56
-11373
-14797.2
-17603.5
-19648.3
-20854.4
-21199.3
-20743.2
-19391.1
-17430.4
-14860.5
-11837.6
-8482.13
-4938.43
-1336.92
2180.63
5480.45
8455.11
10944.9
12945.2
14314.1
15039.7
15051
14447
13114.8
11317.8
9158.83
6389.63
3565.81
634.533
-2179.21
-4833.26
-7034.84
-9008.44
-10373.2
-11267.5
-11727.4
-11762.5
-11416.8
-10765
-9846.15
-8720.43
-7413.92
-5982.33
-4465.06
-2856.12
-1249.93
386.923
2074.33
3712.01
5256.33
6685.01
7954.7
9037.69
9904.58
10536
10924.1
11041.3
10995.8
10733
10304.2
9747.84
9099.87
8391.16
7645.43
6877.35
6094.05
5298.26
4489.56
3666.74
2829.31
1978.88
1120.24
260.187
-593.049
-1423.27
-2213.53
-2947.41
-3608.8
-4183.55
-4661.23
-5034.87
-5300.84
-5458.72
-5512.67
-5472.95
-5347.51
-5146.99
-4882.62
-4565.54
-4206.6
-3816.07
-3403.18
-2976.18
-2542.35
-2108.06
-1678.81
-1259.35
-853.735
-465.472
-97.0274
249.447
571.697
868.022
1137.68
1379.97
1594.56
1781.47
1940.93
2073.49
2179.95
2261.32
2318.82
2353.85
2367.88
2362.63
2339.71
2301.12
2248.01
68636.6
73031.1
72714.2
71246
66596.2
55522.5
35580.9
5705.1
-34016.3
-83449.9
-142875
-200495
-256751
-309900
-358026
-399434
-432899
-457814
-474142
-481958
-481554
-455113
-430380
-401741
-370365
-336895
-301686
-264998
-227199
-188876
-150704
-113218
-76698.7
-41256.4
-7014.17
25830.8
56538.7
84508.3
109024
129575
146023
158697
168282
175407
180440
183494
184414
183898
181834
178343
172231
163226
156782
150537
144422
137991
130787
122421
112642
101327
88464.2
74108.3
58360.6
41352.7
23242.6
4190.34
-15513.5
-36471.8
-56914.8
-76833.8
-95623.7
-112682
-127361
-139030
-147158
-151246
-151633
-145566
-137294
-125094
-110016
-92684.3
-73930.9
-54566
-35384.4
-16974.4
-158.529
14215.1
26246.3
35786.6
42874.9
47657.3
50391.5
51440.4
51210.7
50411.2
48433.9
45091.7
40780
34904.6
30011.2
25732.9
21930.3
18655.2
15804.8
13316.5
11102.7
9088.65
7202.64
5395.3
3650.54
1994.09
499.514
-744.323
-1592.16
-1951.39
-1821.94
-1398.1
-265.11
1476.06
3669.1
5881.94
7718.55
8894.95
9128.39
8550.49
7392.89
5385.84
2681.43
-573.158
-4136.09
-7747.67
-11205.9
-14232.2
-16679.5
-18421.1
-19391.1
-19576.6
-19032.8
-17657.7
-15736.2
-13255.1
-10362.2
-7169.04
-3810.59
-409.946
2899.98
5989.96
8762.21
11056.4
12881.7
14093.5
14684.1
14586.4
13892.7
12499.1
10656.5
8466.43
5693.06
2868.29
-42.846
-2829.48
-5438.88
-7589.81
-9501.03
-10791.1
-11614.4
-11992
-11971.4
-11571.3
-10874.6
-9920.52
-8769.12
-7448.2
-6001.62
-4472.02
-2851.68
-1234.61
418.477
2119.61
3779.99
5348.15
6801.41
8094.6
9198.28
10080.3
10719.9
11110.4
11282.7
11156.1
10864
10407.5
9823.92
9151.8
8424.02
7664.96
6888.5
6100.77
5303.1
4493.5
3669.42
2829.44
1974.5
1109.13
240.207
-623.818
-1465.92
-2268.23
-3013.49
-3684.72
-4267.03
-4749.59
-5125.26
-5390.39
-5544.15
-5592.65
-5545.83
-5412.25
-5203.04
-4929.84
-4604.11
-4236.98
-3838.84
-3419
-2985.74
-2546.35
-2107.16
-1673.63
-1250.46
-841.671
-450.698
-79.9345
268.419
592.176
889.625
1160.08
1402.85
1617.64
1804.46
1963.58
2095.57
2201.24
2281.64
2338.01
2371.75
2384.44
2377.67
2353.19
2312.92
2258.14
50744.9
51878.9
50757.2
48799
43893
33988.9
17367.1
-6954.4
-39319.5
-82096.2
-130871
-177483
-222682
-265256
-303861
-337318
-364787
-385832
-400340
-408191
-408959
-392976
-375152
-353680
-329201
-302009
-272204
-239929
-205639
-170211
-134724
-100091
-66852.6
-35228.8
-5302.12
22877.3
48845.5
72357.1
93032.1
110637
125180
136963
146498
154249
160469
165087
167807
168337
167540
164951
159483
149695
142506
135683
129256
122794
115871
108120
99267.1
89138.3
77648
64787
50614
35251.1
18878.7
1697.64
-15901.1
-34869
-53012
-70466.6
-86724.8
-101314
-113733
-123498
-130204
-133470
-133556
-128258
-121001
-110434
-97374.6
-82343.9
-66023.3
-49086.4
-32204.1
-15822.7
-767.402
12008.7
22792.5
31409.8
37884.7
42331.8
44965.1
46085
45997.5
45350.9
43827.2
41052.1
37192.1
32120.3
27888.1
24076.6
20657.3
17639.6
14951.6
12547.7
10371.2
8381.48
6533.63
4798.22
3168.91
1670.42
365.346
-686.31
-1352.6
-1572.89
-1406.35
-964.682
72.2231
1635.15
3567.17
5465.05
6935.47
7816.03
7790.66
7121.72
5887.44
3937.21
1402.01
-1578.07
-4785.05
-7972.26
-11021.4
-13626
-15686
-17096
-17803.5
-17807.4
-17156.3
-15750.8
-13860.2
-11467.9
-8710.86
-5692.37
-2537.52
638.159
3711.23
6558.12
9092.09
11153
12766.7
13786.4
14209.9
13975
13168
11697.3
9795.91
7572.08
4800.06
1986.07
-887.892
-3626.55
-6167.15
-8242.73
-10062.8
-11251
-11974.6
-12276.7
-12167.7
-11699.3
-10947.9
-9953.79
-8775.55
-7441.44
-5981.8
-4443.8
-2817.63
-1193.78
471.498
2184
3865.93
5457.88
6936.54
8255.19
9381.99
10282.1
10931.6
11319.5
11435
11334.8
11016.5
10527.4
9911.37
9210.58
8460.42
7685.98
6900.07
6107.71
5308.39
4498.21
3672.99
2830.25
1970.12
1096.83
217.388
-659.49
-1515.75
-2332.44
-3091.27
-3774.22
-4365.51
-4853.84
-5231.88
-5495.98
-5644.52
-5686.59
-5631.32
-5488.08
-5268.57
-4984.93
-4649.03
-4272.26
-3865.2
-3437.24
-2996.69
-2550.81
-2105.91
-1667.4
-1239.92
-827.437
-433.317
-59.8501
290.683
616.186
914.94
1186.32
1429.66
1644.66
1831.37
1990.09
2121.39
2226.14
2305.4
2360.44
2392.66
2403.81
2395.26
2368.95
2326.76
2270.06
37898.6
37455.5
36142.6
33747.9
28800
19889.9
5778.62
-14383.6
-41169.4
-78647.7
-119389
-157304
-193758
-227951
-258954
-285972
-308454
-326113
-338850
-346531
-349113
-339984
-327459
-311567
-292627
-270646
-245478
-217111
-186013
-153277
-120315
-88350
-58120.2
-29906.6
-3737.56
20464.8
42431.4
62200.8
79621.1
94655.7
107421
118213
127449
135502
142556
148431
152547
154279
153988
152162
147338
137124
129227
121931
115304
108903
102308
95156.2
87160.2
78108.4
67864.6
56369.4
43646.9
29809.2
15051.3
-393.696
-16075.1
-33190.2
-49276.7
-64540.3
-78562.2
-90982.6
-101428
-109536
-115004
-117554
-117380
-112750
-106373
-97217.8
-85914.6
-72892.9
-58706.7
-43910.9
-29067.1
-14492.3
-999.005
10311.6
19940.3
27686.4
33561.9
37655.5
40144.5
41278.9
41320.9
40726.5
39559.3
37257.7
33765.8
29461.8
25797.6
22422.9
19360.1
16593.3
14073.6
11769.1
9647.54
7698.31
5899.32
4237.27
2713.25
1350.92
203.572
-691.193
-1211.54
-1322.69
-1124.45
-662.174
303.261
1739.09
3487.2
5075.65
6284.65
6916.65
6696.01
5940.59
4641.33
2730.32
324.847
-2439.39
-5361.03
-8218.92
-10915.8
-13166.2
-14897.1
-16021.7
-16499.4
-16341.7
-15587.6
-14155.1
-12278
-9951.62
-7299.75
-4418.46
-1423.94
1574.77
4462.45
7119.21
9467.22
11344.4
12789.7
13655.4
13940.4
13588
12677.3
11125.9
9159.44
6879.39
4075.93
1235.42
-1643.12
-4375.69
-6886.92
-8922.57
-10683.4
-11782.8
-12434.7
-12636.5
-12456
-11918.4
-11108.8
-10069.1
-8856.99
-7501.52
-6025.41
-4470.8
-2831.19
-1191.42
494.51
2228.91
3942.54
5568.98
7083.27
8436.41
9593.8
10517.2
11179.4
11567.6
11685.2
11546.1
11193
10664.5
10009.8
9275.4
8499.41
7707.57
6911.38
6114.46
5313.98
4503.76
3677.7
2832.06
1966.1
1083.7
191.981
-699.951
-1572.8
-2406.36
-3181.1
-3877.76
-4479.53
-4974.56
-5355.29
-5618.24
-5760.09
-5794.81
-5729.65
-5575.11
-5343.62
-5047.89
-4700.24
-4312.37
-3895.07
-3457.8
-3008.9
-2555.62
-2104.21
-1660.03
-1227.64
-810.96
-413.278
-36.6921
316.3
643.779
944.019
1216.46
1460.42
1675.66
1862.24
2020.48
2151
2254.69
2332.63
2386.13
2416.59
2426
2415.4
2387
2342.63
2283.76
28535.3
27431.1
25944.7
23323.7
18522.2
10532.3
-1562.85
-18530.2
-41550
-74078.1
-108475
-139418
-168904
-196402
-221290
-243062
-261385
-276108
-287189
-294549
-299542
-294517
-285976
-274427
-259964
-242350
-221200
-196314
-168111
-137848
-107232
-77747.2
-50276.9
-25126.2
-2255.47
18532.1
37096
53692.8
68329.3
81101.2
92205.4
101946
110696
118794
126405
133264
138547
141292
141334
139983
135638
125519
116857
109154
102408
96140.9
89906.6
83339.2
76141.3
68077.2
58974
48734.2
37353.2
24932.8
11675.8
-2161.46
-16194.9
-31221.9
-45695.8
-59004.2
-71036.1
-81536.2
-90240.5
-96891.6
-101274
-103191
-102784
-98732.8
-93121
-85192.7
-75425.8
-64171.5
-51874.9
-38987.5
-25973.2
-13034.9
-942.428
9017.46
17563.4
24476.6
29759.6
33480.7
35786.5
36885.5
37005.4
36460
35538.5
33630.5
30454.8
26880.7
23714.3
20754.6
18030.4
15512
13166.2
10972.5
8917.97
7020.18
5276.98
3689.23
2264.07
1024.45
16.3175
-745.139
-1139.32
-1158.25
-926.701
-439.312
471.309
1843.59
3393.85
4746.22
5648.39
6100.95
5711.34
4864.21
3501.44
1616.95
-679.759
-3255.2
-5919.39
-8478.73
-10837.8
-12746.9
-14155
-14995.4
-15239.9
-14915
-14044.9
-12585
-10706.6
-8436.33
-5880.15
-3128
-287.392
2538.86
5243.37
7710.48
9869.87
11560.5
12830.3
13536.1
13674.8
13196.1
12172.5
10530.4
8487.67
6141.79
3296.16
420.978
-2469.25
-5199.86
-7681.6
-9674.37
-11367
-12363.9
-12916.8
-13036.3
-12759.8
-12141.3
-11264.6
-10174.1
-8925.99
-7548.57
-6058.36
-4488.53
-2838.36
-1183.08
522.136
2279.55
4026.24
5690.26
7244.34
8637.13
9830.29
10781.9
11459.5
11847.4
11949.5
11785.4
11392.9
10818.4
10118.3
9345
8539.78
7728.6
6921.63
6120.56
5319.71
4510.26
3683.86
2835.28
1962.87
1070.11
164.279
-745.064
-1637.13
-2490.21
-3283.37
-3995.88
-4609.73
-5112.4
-5496.12
-5757.95
-5891.03
-5917.71
-5841.08
-5673.51
-5428.26
-5118.71
-4757.68
-4357.22
-3928.33
-3480.56
-3022.26
-2560.67
-2101.96
-1651.41
-1213.53
-792.154
-390.509
-10.3778
345.334
675.008
976.923
1250.53
1495.2
1710.7
1897.11
2054.81
2184.44
2286.91
2363.36
2415.13
2443.64
2450.96
2438.1
2407.36
2360.56
2299.26
21628.3
20263.5
18633.8
15934.7
11391.2
4258.54
-6163.04
-20607.7
-41544.9
-69016.3
-98112.5
-123399
-147316
-169441
-189386
-206865
-221721
-233917
-243493
-250425
-258202
-255327
-249669
-241481
-230649
-216723
-199089
-177322
-151742
-123737
-95283.4
-68098.6
-43166.4
-20782.3
-828.722
17010.3
32670.1
46563.2
58801.8
69570.2
79122.9
87778.9
95903.4
103836
111778
119401
125630
129216
129518
128391
124132
114950
105345
97262.5
90458.7
84381.7
78532
72533.8
66082.9
58929.2
50875.1
41793.9
31656.9
20555.2
8695.41
-3648.7
-16173
-29217.7
-42278.3
-53836.9
-64098
-72898.8
-80071.5
-85445.3
-88877.8
-90238.1
-89628
-86076
-81127.5
-74262.1
-65835.4
-56131.4
-45503.4
-34313
-22942.3
-11473.5
-712.873
8077.6
15615
21737.8
26440.3
29776.4
31867.6
32888.7
33037.4
32539.9
31771.5
30160.2
27313.9
24373.6
21652.3
19081
16677
14402.8
12236
10165.4
8189.56
6353.59
4672.3
3158.72
1824.63
693.218
-195.581
-826.075
-1134.75
-1078.87
-810.558
-293.571
585.601
1947.74
3297
4451.38
5136.38
5382.76
4876.74
3935.5
2512.04
638.674
-1577.16
-4002.16
-6452.13
-8755.82
-10822.2
-12423.6
-13537.2
-14114
-14138.8
-13654.2
-12665.7
-11179.4
-9285.99
-7057.78
-4578.61
-1933.6
777.928
3458.84
6008.64
8315.24
10313.9
11844.7
12956.9
13521.5
13525.2
12925.7
11788.6
10047.6
7919.35
5489.89
2579.25
-354.74
-3283.39
-6037.53
-8513.1
-10484.1
-12123
-13021.9
-13481.8
-13498.7
-13133
-12428.7
-11479.3
-10332.4
-9043.11
-7638.59
-6131.64
-4542.7
-2877.92
-1200.9
529.744
2318.54
4106.07
5816.31
7418.78
8859.27
10095.2
11080.4
11776.2
12164.3
12255.1
12055.9
11617
10988.9
10236.1
9418.03
8580.07
7747.74
6929.9
6125.48
5325.43
4517.85
3691.83
2840.42
1960.98
1056.56
134.641
-794.67
-1708.78
-2584.29
-3398.58
-4129.23
-4756.86
-5268.18
-5655.04
-5914.1
-6039.45
-6055.83
-5965.9
-5783.42
-5522.55
-5197.36
-4821.27
-4406.71
-3964.86
-3505.38
-3036.65
-2565.82
-2099.02
-1641.45
-1197.49
-770.918
-364.941
19.1974
377.848
709.932
1013.72
1288.62
1534.05
1749.82
1936.04
2093.12
2221.73
2322.84
2397.61
2447.45
2473.85
2478.68
2463.37
2430.02
2380.53
2316.54
16473.5
15009.7
13281.4
10598.7
6366.48
20.3509
-8992.71
-21442.4
-40585.2
-63554.5
-87714.9
-108869
-128383
-146190
-162127
-176089
-188057
-198096
-206341
-212843
-223361
-221401
-217715
-212092
-204204
-193415
-178886
-159935
-136733
-110779
-84314.5
-59266.4
-36680.4
-16809.7
548.008
15829.4
29003.6
40592.7
50760.8
59750.6
67856.8
75416.1
82805.4
90398.1
98482.4
106683
113648
117924
118409
117338
113067
104946
94674.2
86181.8
79367.3
73524.1
68073.1
62624.7
56872
50559
43472.7
35464.2
26484.1
16612.2
6055.72
-4902.82
-16029.1
-27539.5
-39057.1
-49018.3
-57691.7
-64986.8
-70811.9
-75066.9
-77669.3
-78541.9
-77754.9
-74631.6
-70255.6
-64307.5
-57047.7
-48702.3
-39547.4
-29867.9
-19970.7
-9847.91
-399.257
7441.61
14037
19409.1
23543.2
26484.7
28334.7
29241
29376.7
28914.4
28228.5
26786.1
24376.8
21925.2
19606.2
17396.3
15296.6
13261.3
11280.6
9345.77
7460.12
5695.67
4081.89
2642.23
1392.15
355.811
-430.133
-949.632
-1188.93
-1070.24
-760.327
-208.788
665.888
2036.13
3206.08
4204.66
4697
4758.15
4161.15
3122.07
1636.72
-240.761
-2400.54
-4706.94
-6976.81
-9054.87
-10856.8
-12168.2
-13000.1
-13319.9
-13127
-12481.5
-11369.5
-9848.02
-7929.08
-5732.32
-3317.62
-766.632
1829.1
4377.84
6785.23
8943.21
10789.6
12172.1
13126.5
13556
13425.4
12703.6
11448.9
9601.26
7377.1
4851.3
1858.18
-1151.6
-4136.4
-6929.5
-9409.71
-11366.1
-12955.7
-13734.3
-14061.8
-14013.7
-13538.7
-12737
-11705.6
-10496.4
-9163.08
-7730.31
-6207.8
-4601.29
-2923.88
-1224.75
531.751
2354.97
4186.63
5948.47
7605.83
9101.46
10387.2
11412.8
12130.6
12518.3
12601.4
12360.6
11866.1
11175.5
10361.8
9492.91
8618.57
7763.51
6935.15
6128.66
5331.01
4526.76
3702.07
2848.06
1961.03
1043.6
103.477
-848.578
-1787.81
-2688.89
-3527.26
-4278.53
-4921.77
-5442.81
-5832.94
-6087.28
-6206.12
-6209.54
-6104.4
-5905.03
-5626.55
-5283.82
-4890.92
-4460.68
-4004.5
-3532.11
-3051.89
-2570.93
-2095.28
-1630
-1179.39
-747.13
-336.219
51.8729
413.908
748.62
1054.49
1330.79
1577.05
1793.09
1979.08
2135.46
2262.93
2362.52
2435.43
2483.11
2507.18
2509.28
2491.22
2455
2402.56
2335.61
12584
11073.3
9290.2
6681.59
2775.65
-2861.63
-10688.6
-21832.5
-38803.1
-57804.8
-77453.9
-95574.5
-111645
-125980
-138662
-149747
-159319
-167531
-174637
-180932
-193572
-191817
-189427
-185732
-180223
-172114
-160349
-143965
-122925
-98827.7
-74196.6
-51147.2
-30744.7
-13170.5
1864.17
14918.2
25974.2
35605.1
43987.2
51397.7
58158.4
64623.2
71191.5
78292.4
86364.3
94975.5
102449
107251
107887
106753
102429
95168.4
84920.3
75863.3
69061.5
63486.2
58438.2
53514.9
48411.6
42874.2
36681.8
29669.2
21768.1
13046.6
3709.94
-5954.3
-15771.9
-25826.3
-35996.7
-44516.5
-51766.7
-57728.3
-62369.5
-65647.2
-67526.7
-67973.5
-67036.9
-64278.1
-60393
-55232.6
-48985
-41827.6
-33972
-25637.4
-17058.5
-8167.71
89.3692
7076.73
12785.5
17442.5
21021.1
23561.8
25148.6
25908.8
25994.3
25551.2
24888.2
23575.5
21569.9
19530.3
17575.7
15702.2
13891
12089.9
10299.8
8516.6
6732.06
5047.99
3506.35
2139.68
966.094
11.4967
-688.628
-1114.51
-1288.57
-1122.13
-765.232
-171.511
747.376
2081.02
3132.69
4001.31
4340.02
4238.76
3561.16
2422.43
871.179
-1026.93
-3156.78
-5377.87
-7502.49
-9385.87
-10955.4
-11996.9
-12561.8
-12633.7
-12228.1
-11423
-10190.7
-8616.04
-6667.39
-4491.47
-2127.47
345.45
2842.95
5278.49
7562.87
9592.26
11304.1
12559.7
13358.6
13666.2
13405.9
12561.9
11185.5
9221.9
6890.86
4252.79
1157.04
-1949.2
-5013.32
-7866.04
-10369
-12327.9
-13877.5
-14533.1
-14856.6
-14597
-14001.9
-13093.8
-11972.5
-10695.3
-9313.74
-7850.13
-6310.22
-4686.69
-2994.78
-1270.04
517.74
2381.84
4263.95
6085.12
7805.58
9364.84
10708.1
11780.5
12523.3
12907
12987.1
12697.3
12139.7
11377.2
10493.8
9567.43
8653.02
7774.14
6936.16
6129.43
5336.3
4537.22
3715.11
2858.89
1963.77
1031.87
71.2897
-906.565
-1874.31
-2804.44
-3670.12
-4444.69
-5105.51
-5637.45
-6031.23
-6279.47
-6390.12
-6379.27
-6256.91
-6038.5
-5740.3
-5378.06
-4966.53
-4519.01
-4047.09
-3560.58
-3067.82
-2575.85
-2090.56
-1616.93
-1159.13
-720.686
-304.423
87.9213
453.613
791.133
1099.31
1377.1
1624.25
1840.58
2026.29
2181.88
2308.1
2405.99
2476.84
2522.14
2543.64
2542.75
2521.67
2482.3
2426.63
2356.45
9613.84
8067.97
6265.41
3762.11
172.646
-4835.69
-11657.1
-22050
-36514.2
-52080
-67724.7
-83507.9
-96780.1
-108291
-118330
-127068
-134666
-141346
-147501
-154203
-167299
-165952
-164270
-161961
-158343
-152507
-143229
-129209
-110149
-87746.9
-64827.5
-43672.5
-25320.9
-9854.09
3093.59
13907.3
23472.8
31464.7
38315.9
44331
49847.2
55231.2
60909.1
67380.5
75312.3
84170.8
91852.5
96967.4
97781.1
96510.5
92141.7
85285.7
76130.9
66294.8
59497.7
54217.6
49566
45133.5
40624.1
35794.5
30423.7
24335.4
17444.3
9805.2
1617.68
-6830.9
-15417.8
-24157.1
-33078.7
-40278.3
-46266.7
-51056.4
-54667
-57099.9
-58357.2
-58437.9
-57382.6
-54927.1
-51457.4
-46965.3
-41587.4
-35461.1
-28745.2
-21603
-14203.2
-6424.83
749.95
6952.65
11825.4
15800.6
18837.6
20973.5
22279.2
22865.4
22866.8
22413.6
21755
20516.9
18875.5
17179.6
15551.5
13987.9
12448.1
10867.8
9284.51
7672.82
6004.67
4412.85
2950.1
1656.47
552.1
-334.377
-965.253
-1313.62
-1416.97
-1213.32
-809.372
-150.935
825.135
2103.95
3071.57
3840.63
4058.5
3825.48
3072.07
1836.09
213.085
-1723.54
-3851.6
-6022.26
-8036.14
-9748.04
-11128.9
-11907.1
-12215.1
-12044.1
-11426.7
-10459.8
-9114.52
-7455.35
-5479.12
-3313.43
-988.039
1420.24
3833.76
6171.1
8347.33
10263.3
11852.3
12999.7
13641.2
13837.6
13452.2
12486.8
10986.6
8900.84
6451.93
3687.49
468.676
-2755.74
-5922.65
-8856.99
-11400.6
-13370.4
-14858.7
-15424.6
-15609.7
-15235.6
-14506.5
-13480.1
-12259
-10907
-9474.11
-7979
-6421.7
-4785.58
-3080.16
-1329.88
491.603
2400.25
4337.43
6225.03
8016.66
9648.78
11058.4
12186.7
12961.5
13352.3
13413
13071.1
12440.4
11593.7
10630.1
9639.13
8680.91
7777.72
6931.66
6127.22
5341.34
4549.75
3731.73
2873.83
1970.04
1022.07
38.5661
-968.425
-1968.36
-2931.31
-3827.79
-4628.56
-5309.11
-5853.27
-6251.16
-6491.12
-6592.44
-6565.63
-6423.81
-6184.05
-5863.87
-5480.01
-5047.96
-4581.51
-4092.42
-3590.58
-3084.25
-2580.37
-2084.72
-1602.09
-1136.54
-691.461
-269.472
127.499
497.002
837.626
1148.3
1427.67
1675.74
1892.36
2077.75
2232.46
2357.28
2453.32
2521.9
2564.56
2583.31
2579.15
2554.75
2511.95
2452.77
2379.08
8050.96
6484.64
4686.66
2264.74
-1129.22
-5767.89
-12035.5
-21922.6
-34812.6
-48440.3
-61922.4
-76220.7
-87836.4
-97727.8
-106270
-113685
-120162
-125954
-131544
-138735
-151297
-150574
-149084
-147430
-144826
-140334
-132594
-120045
-102169
-80761.6
-58894.9
-38944.4
-21898.7
-7749.87
3927.73
13454.5
22118.7
29139.6
35078.6
40242.2
44971
49637.9
54686.6
60670.9
68488.7
77449.8
85037.7
90084.2
91190.9
89811.5
85417.8
78791.8
70390.2
60334.2
53452.7
48386.8
43995
39874.5
35737.8
31353
26500.7
20998.6
14749.5
7798.51
340.971
-7334.75
-15141
-23062.4
-31214.5
-37584.4
-42809.4