/*--------------------------------*- C++ -*----------------------------------*\
| =========                 |                                                 |
| \\      /  F ield         | OpenFOAM: The Open Source CFD Toolbox           |
|  \\    /   O peration     | Version:  v1912                                 |
|   \\  /    A nd           | Website:  www.openfoam.com                      |
|    \\/     M anipulation  |                                                 |
\*---------------------------------------------------------------------------*/
FoamFile
{
    version     2.0;
    format      ascii;
    class       volScalarField;
    location    "50";
    object      nut;
}
// * * * * * * * * * * * * * * * * * * * * * * * * * * * * * * * * * * * * * //

dimensions      [0 2 -1 0 0 0 0];


internalField   nonuniform List<scalar> 
14268
(
4.9335e-10
4.74899e-10
4.54819e-10
4.34939e-10
4.15339e-10
3.95856e-10
3.82034e-10
3.70561e-10
5.06398e-08
4.87943e-08
4.67195e-08
4.4699e-08
4.27076e-08
4.07488e-08
3.90582e-08
3.89743e-08
2.31437e-07
2.27765e-07
2.23406e-07
2.18895e-07
2.14246e-07
2.09627e-07
2.04806e-07
2.04084e-07
3.19805e-07
3.18438e-07
3.16764e-07
3.14935e-07
3.12924e-07
3.10912e-07
3.08314e-07
3.08771e-07
3.37596e-07
3.37273e-07
3.36902e-07
3.36538e-07
3.36045e-07
3.35728e-07
3.35066e-07
3.34726e-07
3.40036e-07
3.39973e-07
3.39906e-07
3.39929e-07
3.39842e-07
3.40021e-07
3.39627e-07
3.40673e-07
3.40473e-07
3.40452e-07
3.40448e-07
3.40544e-07
3.40555e-07
3.40851e-07
3.40686e-07
3.40608e-07
3.40409e-07
3.40404e-07
3.40404e-07
3.40502e-07
3.40525e-07
3.40838e-07
3.40592e-07
3.40988e-07
3.4046e-07
3.40447e-07
3.40467e-07
3.40591e-07
3.40627e-07
3.40956e-07
3.40773e-07
3.41197e-07
3.40416e-07
3.40422e-07
3.4041e-07
3.40497e-07
3.40524e-07
3.40841e-07
3.40567e-07
3.40647e-07
3.40458e-07
3.40445e-07
3.40485e-07
3.4064e-07
3.40683e-07
3.41017e-07
3.40915e-07
3.41528e-07
3.40967e-07
3.41045e-07
3.41092e-07
3.41255e-07
3.41417e-07
3.41913e-07
3.42539e-07
3.45124e-07
3.41476e-07
3.4176e-07
3.42215e-07
3.42938e-07
3.43972e-07
3.45576e-07
3.49851e-07
3.56703e-07
3.411e-07
3.41346e-07
3.4176e-07
3.42393e-07
3.43368e-07
3.44916e-07
3.49106e-07
3.47863e-07
3.4051e-07
3.40429e-07
3.40434e-07
3.40546e-07
3.40455e-07
3.40859e-07
3.40055e-07
3.43476e-07
3.40559e-07
3.40568e-07
3.4053e-07
3.40558e-07
3.4063e-07
3.41023e-07
3.41414e-07
3.42251e-07
3.40458e-07
3.40382e-07
3.40384e-07
3.40508e-07
3.40613e-07
3.40829e-07
3.40704e-07
3.40556e-07
3.40742e-07
3.40731e-07
3.40745e-07
3.40811e-07
3.40831e-07
3.40993e-07
3.40932e-07
3.41619e-07
3.40285e-07
3.40252e-07
3.40266e-07
3.40393e-07
3.4047e-07
3.40728e-07
3.40647e-07
3.40689e-07
3.40757e-07
3.407e-07
3.40707e-07
3.40841e-07
3.40944e-07
3.41144e-07
3.40935e-07
3.41516e-07
3.40248e-07
3.40367e-07
3.4051e-07
3.40598e-07
3.40587e-07
3.40831e-07
3.40837e-07
3.41027e-07
3.4068e-07
3.40568e-07
3.4055e-07
3.40695e-07
3.40757e-07
3.41071e-07
3.408e-07
3.41312e-07
3.40475e-07
3.40568e-07
3.40636e-07
3.40721e-07
3.4073e-07
3.4104e-07
3.40867e-07
3.41441e-07
3.40792e-07
3.40716e-07
3.4073e-07
3.40902e-07
3.41045e-07
3.41349e-07
3.41179e-07
3.41688e-07
3.40323e-07
3.40403e-07
3.40506e-07
3.40565e-07
3.40617e-07
3.40929e-07
3.4095e-07
3.41631e-07
3.40808e-07
3.40779e-07
3.40843e-07
3.4105e-07
3.41252e-07
3.41553e-07
3.41602e-07
3.41887e-07
3.40159e-07
3.40266e-07
3.40353e-07
3.40387e-07
3.40479e-07
3.40822e-07
3.41014e-07
3.41718e-07
3.40692e-07
3.40733e-07
3.40868e-07
3.41142e-07
3.41403e-07
3.41719e-07
3.42049e-07
3.42228e-07
3.39958e-07
3.40055e-07
3.40104e-07
3.40108e-07
3.40227e-07
3.40626e-07
3.41126e-07
3.41791e-07
3.40546e-07
3.40605e-07
3.40825e-07
3.41142e-07
3.41402e-07
3.41782e-07
3.4245e-07
3.42693e-07
3.4036e-07
3.40065e-07
3.39788e-07
3.39626e-07
3.39591e-07
3.40037e-07
3.40985e-07
3.41991e-07
3.53242e-07
3.47633e-07
3.44728e-07
3.43273e-07
3.42457e-07
3.42383e-07
3.4314e-07
3.43553e-07
4.5709e-07
4.24021e-07
3.98985e-07
3.84348e-07
3.72503e-07
3.63321e-07
3.56593e-07
3.52475e-07
8.59451e-07
8.16228e-07
7.9011e-07
7.85479e-07
7.87503e-07
7.82374e-07
7.55916e-07
7.35386e-07
2.2801e-06
2.50339e-06
2.67433e-06
2.77606e-06
2.94416e-06
3.17208e-06
3.4353e-06
3.88635e-06
2.4038e-06
2.7656e-06
3.0546e-06
3.32533e-06
3.5776e-06
3.79948e-06
4.08569e-06
3.90134e-06
8.79238e-05
6.06588e-05
3.38574e-05
1.65355e-05
1.07596e-05
8.82162e-06
7.71093e-06
4.08128e-06
0.0337809
0.0330677
0.0320171
0.0306123
0.0292288
0.0280187
0.0265216
0.0239382
0.0676743
0.0658349
0.0650658
0.0646289
0.0642195
0.0639608
0.0637738
0.0621445
0.0912317
0.0916728
0.0920158
0.0923218
0.0918981
0.0914186
0.0904435
0.0890627
0.105359
0.106197
0.106717
0.106842
0.105894
0.104715
0.10311
0.100848
0.103658
0.10385
0.103361
0.102117
0.0994654
0.0964571
0.093601
0.0900816
0.0920677
0.0916553
0.090313
0.0875282
0.0832963
0.0785356
0.0744222
0.0683172
0.0691207
0.0679424
0.0653564
0.0610174
0.0550299
0.0492955
0.043576
0.0357979
0.0325926
0.0303879
0.026407
0.0215769
0.016366
0.0127226
0.00917279
0.00642532
0.00333994
0.00253453
0.00160752
0.000917622
0.000485228
0.000318189
0.000217246
0.000258409
1.4053e-05
7.27699e-06
3.27462e-06
2.66833e-06
4.09665e-06
6.82605e-06
9.64238e-06
2.07631e-05
3.27193e-07
3.39896e-07
3.6757e-07
4.50263e-07
6.10988e-07
8.81257e-07
1.16879e-06
2.36945e-06
3.22523e-07
3.24467e-07
3.27064e-07
3.32748e-07
3.44977e-07
3.67076e-07
3.93622e-07
5.10164e-07
3.23765e-07
3.24889e-07
3.25046e-07
3.24893e-07
3.25829e-07
3.28196e-07
3.31179e-07
3.40892e-07
3.24129e-07
3.2452e-07
3.24271e-07
3.23876e-07
3.23775e-07
3.24177e-07
3.255e-07
3.26606e-07
3.27167e-07
3.27921e-07
3.28192e-07
3.28566e-07
3.28819e-07
3.29554e-07
3.30267e-07
3.30223e-07
3.26425e-07
3.26809e-07
3.2679e-07
3.26877e-07
3.27105e-07
3.27801e-07
3.28772e-07
3.29148e-07
3.29804e-07
3.30439e-07
3.30715e-07
3.31245e-07
3.31759e-07
3.32563e-07
3.33123e-07
3.33281e-07
3.28804e-07
3.2912e-07
3.29269e-07
3.29643e-07
3.30216e-07
3.31052e-07
3.31898e-07
3.32447e-07
3.32064e-07
3.32545e-07
3.32875e-07
3.33474e-07
3.34154e-07
3.34969e-07
3.35376e-07
3.35689e-07
3.30938e-07
3.31237e-07
3.31497e-07
3.32028e-07
3.32847e-07
3.33706e-07
3.34415e-07
3.35131e-07
3.33893e-07
3.34365e-07
3.34652e-07
3.35288e-07
3.35964e-07
3.36779e-07
3.3706e-07
3.37455e-07
3.32806e-07
3.3316e-07
3.33392e-07
3.33964e-07
3.34834e-07
3.35699e-07
3.36363e-07
3.37091e-07
3.35469e-07
3.3597e-07
3.36129e-07
3.36629e-07
3.37278e-07
3.38054e-07
3.38317e-07
3.38741e-07
3.34443e-07
3.34873e-07
3.3501e-07
3.35515e-07
3.36285e-07
3.37155e-07
3.3781e-07
3.38478e-07
3.36731e-07
3.37215e-07
3.37266e-07
3.37766e-07
3.38268e-07
3.38925e-07
3.39198e-07
3.39623e-07
3.35852e-07
3.36314e-07
3.36302e-07
3.36872e-07
3.37463e-07
3.38217e-07
3.38847e-07
3.3941e-07
3.37791e-07
3.38222e-07
3.3819e-07
3.38656e-07
3.3904e-07
3.39594e-07
3.39815e-07
3.4026e-07
3.37078e-07
3.37545e-07
3.37404e-07
3.37978e-07
3.38391e-07
3.39065e-07
3.39506e-07
3.40068e-07
3.38751e-07
3.39014e-07
3.39013e-07
3.39382e-07
3.39647e-07
3.40114e-07
3.40305e-07
3.40764e-07
3.38213e-07
3.38466e-07
3.38391e-07
3.38886e-07
3.39199e-07
3.39748e-07
3.40017e-07
3.40592e-07
3.39525e-07
3.39715e-07
3.39691e-07
3.4003e-07
3.4012e-07
3.4058e-07
3.40733e-07
3.41173e-07
3.39166e-07
3.39207e-07
3.39284e-07
3.39652e-07
3.39775e-07
3.40297e-07
3.40441e-07
3.41002e-07
3.40175e-07
3.40311e-07
3.40222e-07
3.40575e-07
3.40589e-07
3.41013e-07
3.41076e-07
3.41472e-07
3.39862e-07
3.39901e-07
3.39966e-07
3.40223e-07
3.40248e-07
3.40803e-07
3.40821e-07
3.41317e-07
3.40664e-07
3.40764e-07
3.40726e-07
3.41006e-07
3.40964e-07
3.41381e-07
3.41363e-07
3.41664e-07
3.40339e-07
3.4043e-07
3.40421e-07
3.40645e-07
3.4073e-07
3.41097e-07
3.41115e-07
3.41521e-07
3.40981e-07
3.41084e-07
3.41063e-07
3.41284e-07
3.41249e-07
3.41593e-07
3.41421e-07
3.41735e-07
3.40691e-07
3.40786e-07
3.40755e-07
3.40971e-07
3.4096e-07
3.41314e-07
3.41252e-07
3.41593e-07
3.41229e-07
3.41324e-07
3.41278e-07
3.4146e-07
3.41403e-07
3.41644e-07
3.41523e-07
3.41701e-07
3.41019e-07
3.41109e-07
3.41042e-07
3.41226e-07
3.41187e-07
3.41462e-07
3.41382e-07
3.41621e-07
3.4165e-07
3.41754e-07
3.41636e-07
3.41764e-07
3.4161e-07
3.41766e-07
3.41562e-07
3.41741e-07
3.41403e-07
3.41536e-07
3.41439e-07
3.41611e-07
3.41503e-07
3.4169e-07
3.41549e-07
3.41729e-07
3.41623e-07
3.41714e-07
3.41623e-07
3.41729e-07
3.41605e-07
3.41735e-07
3.41584e-07
3.41726e-07
3.41476e-07
3.41578e-07
3.41513e-07
3.41626e-07
3.41545e-07
3.4167e-07
3.41566e-07
3.41686e-07
3.41583e-07
3.41649e-07
3.41584e-07
3.41665e-07
3.41586e-07
3.41679e-07
3.41584e-07
3.41678e-07
3.41585e-07
3.41642e-07
3.41598e-07
3.41665e-07
3.41607e-07
3.41679e-07
3.41606e-07
3.41679e-07
3.42368e-07
3.42332e-07
3.42229e-07
3.42208e-07
3.42107e-07
3.42102e-07
3.42009e-07
3.42019e-07
3.48706e-07
3.48159e-07
3.47653e-07
3.47171e-07
3.46717e-07
3.46302e-07
3.45916e-07
3.45597e-07
3.87921e-07
3.85356e-07
3.8305e-07
3.80615e-07
3.78468e-07
3.76237e-07
3.74344e-07
3.7257e-07
5.0148e-07
4.98022e-07
4.9446e-07
4.90315e-07
4.86114e-07
4.81256e-07
4.76554e-07
4.7192e-07
3.33871e-10
3.33515e-10
3.53196e-10
3.77203e-10
3.94957e-10
4.06257e-10
4.14303e-10
4.19413e-10
4.22958e-10
4.25052e-10
4.27036e-10
4.286e-10
4.30282e-10
4.31404e-10
4.32083e-10
4.32775e-10
4.337e-10
4.35007e-10
4.36097e-10
4.36503e-10
4.36669e-10
4.36884e-10
4.37429e-10
4.38027e-10
4.39192e-10
4.40315e-10
4.40072e-10
4.38911e-10
4.37287e-10
4.35791e-10
4.34663e-10
4.33922e-10
4.33407e-10
4.33223e-10
4.3333e-10
4.33921e-10
4.36369e-10
4.3989e-10
4.43867e-10
4.47956e-10
4.51718e-10
4.54931e-10
4.57456e-10
4.59288e-10
4.60544e-10
4.61305e-10
4.61648e-10
4.61989e-10
4.62417e-10
4.62989e-10
4.63469e-10
4.63724e-10
4.63646e-10
4.63225e-10
4.62515e-10
4.61587e-10
4.60518e-10
4.59454e-10
4.58468e-10
4.57672e-10
4.57721e-10
4.58382e-10
4.59424e-10
4.60662e-10
4.62044e-10
4.63534e-10
4.65022e-10
4.66339e-10
4.67268e-10
4.67618e-10
4.6729e-10
4.66167e-10
4.64632e-10
4.62862e-10
4.60944e-10
4.58913e-10
4.56918e-10
4.55074e-10
4.53447e-10
4.52025e-10
4.50788e-10
4.49647e-10
4.48494e-10
4.47377e-10
4.46312e-10
4.45386e-10
4.44682e-10
4.44174e-10
4.4375e-10
4.43303e-10
4.42867e-10
4.42391e-10
4.41613e-10
4.40633e-10
4.39585e-10
4.38458e-10
4.37321e-10
4.36162e-10
4.35044e-10
4.33904e-10
4.32579e-10
4.30999e-10
4.29167e-10
4.27198e-10
4.253e-10
4.23566e-10
4.21856e-10
4.20181e-10
4.19675e-10
4.20646e-10
4.22844e-10
4.25911e-10
4.29363e-10
4.32864e-10
4.36284e-10
4.39405e-10
4.42135e-10
4.44686e-10
4.47515e-10
4.51108e-10
4.55999e-10
4.62346e-10
4.70329e-10
4.78871e-10
4.88238e-10
4.98215e-10
5.07961e-10
5.15742e-10
5.20437e-10
5.23047e-10
5.22843e-10
5.2072e-10
5.17142e-10
5.1339e-10
5.09225e-10
5.05428e-10
5.02399e-10
4.99753e-10
4.9412e-10
4.88484e-10
4.85454e-10
4.83495e-10
4.85202e-10
4.89146e-10
4.94006e-10
5.02122e-10
5.13456e-10
5.27047e-10
5.41073e-10
5.5226e-10
5.59655e-10
5.61922e-10
5.57426e-10
5.51446e-10
5.45087e-10
5.36793e-10
3.39409e-08
3.39556e-08
3.66676e-08
4.03231e-08
4.31637e-08
4.49991e-08
4.62373e-08
4.69784e-08
4.74198e-08
4.75963e-08
4.76911e-08
4.7699e-08
4.77426e-08
4.77432e-08
4.76784e-08
4.76038e-08
4.75649e-08
4.76151e-08
4.77111e-08
4.77831e-08
4.78629e-08
4.79793e-08
4.81921e-08
4.84879e-08
4.89612e-08
4.9582e-08
5.0157e-08
5.06583e-08
5.11266e-08
5.15243e-08
5.1805e-08
5.20285e-08
5.22493e-08
5.25054e-08
5.2823e-08
5.31991e-08
5.35695e-08
5.39347e-08
5.42759e-08
5.46044e-08
5.48998e-08
5.51539e-08
5.5343e-08
5.54604e-08
5.5518e-08
5.55222e-08
5.54741e-08
5.53921e-08
5.52697e-08
5.51355e-08
5.5004e-08
5.48953e-08
5.48071e-08
5.47352e-08
5.46781e-08
5.46418e-08
5.46287e-08
5.46582e-08
5.47349e-08
5.48493e-08
5.49737e-08
5.50919e-08
5.5206e-08
5.53099e-08
5.54025e-08
5.54828e-08
5.55471e-08
5.55943e-08
5.56246e-08
5.56419e-08
5.56469e-08
5.56273e-08
5.55558e-08
5.54046e-08
5.51825e-08
5.48945e-08
5.45603e-08
5.41996e-08
5.38329e-08
5.34741e-08
5.31328e-08
5.28075e-08
5.24927e-08
5.22082e-08
5.19713e-08
5.17994e-08
5.1703e-08
5.16784e-08
5.17114e-08
5.17802e-08
5.1848e-08
5.18873e-08
5.18776e-08
5.18187e-08
5.17074e-08
5.15444e-08
5.13321e-08
5.10575e-08
5.07276e-08
5.03395e-08
4.98879e-08
4.93857e-08
4.88555e-08
4.8332e-08
4.78629e-08
4.7485e-08
4.72064e-08
4.70448e-08
4.69975e-08
4.70413e-08
4.71603e-08
4.73266e-08
4.74977e-08
4.76611e-08
4.78369e-08
4.80263e-08
4.82264e-08
4.84446e-08
4.8705e-08
4.90288e-08
4.9442e-08
4.99436e-08
5.05493e-08
5.11537e-08
5.18295e-08
5.25431e-08
5.3197e-08
5.3712e-08
5.40831e-08
5.4395e-08
5.45496e-08
5.45482e-08
5.42572e-08
5.38392e-08
5.32667e-08
5.26707e-08
5.20799e-08
5.15569e-08
5.07962e-08
5.01526e-08
4.99305e-08
4.98701e-08
5.00139e-08
5.01689e-08
5.04069e-08
5.0966e-08
5.15516e-08
5.19679e-08
5.24475e-08
5.30821e-08
5.39008e-08
5.45437e-08
5.45525e-08
5.3825e-08
5.25562e-08
5.1133e-08
1.90564e-07
1.92067e-07
2.00932e-07
2.11423e-07
2.188e-07
2.2333e-07
2.26256e-07
2.27935e-07
2.28959e-07
2.29362e-07
2.29637e-07
2.29699e-07
2.29834e-07
2.29872e-07
2.29788e-07
2.2966e-07
2.29599e-07
2.29697e-07
2.29901e-07
2.30047e-07
2.30219e-07
2.30451e-07
2.30866e-07
2.31405e-07
2.32248e-07
2.33358e-07
2.34392e-07
2.35278e-07
2.36089e-07
2.36747e-07
2.37172e-07
2.37493e-07
2.37803e-07
2.38168e-07
2.38634e-07
2.39196e-07
2.39741e-07
2.40271e-07
2.40758e-07
2.41231e-07
2.41653e-07
2.42015e-07
2.42279e-07
2.42435e-07
2.42504e-07
2.42493e-07
2.42407e-07
2.42275e-07
2.42082e-07
2.41873e-07
2.41665e-07
2.41491e-07
2.41341e-07
2.41207e-07
2.41089e-07
2.41e-07
2.40947e-07
2.40962e-07
2.41052e-07
2.41197e-07
2.41358e-07
2.41505e-07
2.41647e-07
2.41766e-07
2.41867e-07
2.41949e-07
2.42005e-07
2.42038e-07
2.42053e-07
2.42059e-07
2.42058e-07
2.42026e-07
2.41921e-07
2.41692e-07
2.41361e-07
2.40937e-07
2.40448e-07
2.39921e-07
2.39383e-07
2.38855e-07
2.3835e-07
2.37861e-07
2.37369e-07
2.3691e-07
2.36517e-07
2.36226e-07
2.36058e-07
2.36006e-07
2.36047e-07
2.36145e-07
2.36235e-07
2.3627e-07
2.36214e-07
2.36072e-07
2.35842e-07
2.35534e-07
2.35158e-07
2.34689e-07
2.34136e-07
2.33485e-07
2.32713e-07
2.31836e-07
2.30884e-07
2.29914e-07
2.2901e-07
2.28242e-07
2.27631e-07
2.27219e-07
2.2702e-07
2.26992e-07
2.27099e-07
2.27279e-07
2.27446e-07
2.27588e-07
2.27767e-07
2.27996e-07
2.28271e-07
2.28592e-07
2.29004e-07
2.29537e-07
2.30238e-07
2.31088e-07
2.32137e-07
2.33161e-07
2.34319e-07
2.35469e-07
2.36415e-07
2.37129e-07
2.37656e-07
2.38171e-07
2.38386e-07
2.38337e-07
2.37909e-07
2.37335e-07
2.36512e-07
2.35647e-07
2.34742e-07
2.33922e-07
2.3259e-07
2.31403e-07
2.30956e-07
2.30809e-07
2.30988e-07
2.31107e-07
2.31399e-07
2.32222e-07
2.32977e-07
2.33362e-07
2.33957e-07
2.34965e-07
2.36404e-07
2.37546e-07
2.37567e-07
2.36279e-07
2.34048e-07
2.31542e-07
3.03486e-07
3.0402e-07
3.07719e-07
3.12243e-07
3.15388e-07
3.172e-07
3.18402e-07
3.19017e-07
3.19438e-07
3.19567e-07
3.19678e-07
3.1969e-07
3.19764e-07
3.19777e-07
3.19758e-07
3.19699e-07
3.19677e-07
3.19708e-07
3.19786e-07
3.19826e-07
3.19889e-07
3.19971e-07
3.201e-07
3.20264e-07
3.2055e-07
3.20936e-07
3.21302e-07
3.21616e-07
3.21913e-07
3.22159e-07
3.22316e-07
3.22436e-07
3.22541e-07
3.22664e-07
3.22824e-07
3.23009e-07
3.2318e-07
3.23344e-07
3.23494e-07
3.23643e-07
3.23773e-07
3.23881e-07
3.23958e-07
3.24001e-07
3.24015e-07
3.24006e-07
3.23974e-07
3.23928e-07
3.23857e-07
3.23785e-07
3.2371e-07
3.23644e-07
3.23591e-07
3.23545e-07
3.23505e-07
3.23476e-07
3.23461e-07
3.23473e-07
3.2351e-07
3.23563e-07
3.23619e-07
3.23668e-07
3.23709e-07
3.23747e-07
3.23778e-07
3.23795e-07
3.23805e-07
3.23808e-07
3.2381e-07
3.23812e-07
3.23812e-07
3.238e-07
3.23766e-07
3.2369e-07
3.23582e-07
3.23443e-07
3.23284e-07
3.23109e-07
3.22928e-07
3.22748e-07
3.22579e-07
3.22417e-07
3.22252e-07
3.22095e-07
3.21961e-07
3.21864e-07
3.21811e-07
3.21798e-07
3.21817e-07
3.21855e-07
3.21889e-07
3.21905e-07
3.21888e-07
3.21841e-07
3.21762e-07
3.21655e-07
3.21524e-07
3.21358e-07
3.21165e-07
3.20936e-07
3.2066e-07
3.20346e-07
3.20005e-07
3.19662e-07
3.19337e-07
3.19055e-07
3.18827e-07
3.18667e-07
3.18594e-07
3.18583e-07
3.18617e-07
3.18668e-07
3.18707e-07
3.18729e-07
3.18767e-07
3.18828e-07
3.1891e-07
3.19002e-07
3.1913e-07
3.19308e-07
3.19553e-07
3.19839e-07
3.20211e-07
3.20556e-07
3.20948e-07
3.21337e-07
3.21621e-07
3.21849e-07
3.22014e-07
3.22201e-07
3.22253e-07
3.22233e-07
3.22099e-07
3.21916e-07
3.21574e-07
3.2124e-07
3.20929e-07
3.20648e-07
3.20177e-07
3.19737e-07
3.19568e-07
3.19533e-07
3.19611e-07
3.19653e-07
3.19745e-07
3.20023e-07
3.20251e-07
3.20312e-07
3.20495e-07
3.20864e-07
3.21399e-07
3.21806e-07
3.21777e-07
3.21268e-07
3.20417e-07
3.19457e-07
3.3109e-07
3.33107e-07
3.34932e-07
3.36208e-07
3.36961e-07
3.3729e-07
3.37522e-07
3.3764e-07
3.3773e-07
3.37748e-07
3.37772e-07
3.3776e-07
3.37756e-07
3.37742e-07
3.37739e-07
3.37725e-07
3.37723e-07
3.3772e-07
3.37737e-07
3.37742e-07
3.37765e-07
3.37788e-07
3.3784e-07
3.3789e-07
3.37952e-07
3.38026e-07
3.38117e-07
3.38194e-07
3.38267e-07
3.38334e-07
3.38373e-07
3.38402e-07
3.38425e-07
3.38448e-07
3.38482e-07
3.3852e-07
3.38554e-07
3.38585e-07
3.38614e-07
3.38644e-07
3.38669e-07
3.38689e-07
3.38702e-07
3.38709e-07
3.38711e-07
3.38708e-07
3.387e-07
3.38691e-07
3.38674e-07
3.38657e-07
3.38638e-07
3.38623e-07
3.38613e-07
3.38606e-07
3.38599e-07
3.38595e-07
3.38592e-07
3.38598e-07
3.38609e-07
3.38621e-07
3.38633e-07
3.38643e-07
3.38653e-07
3.38661e-07
3.38669e-07
3.38672e-07
3.38672e-07
3.38671e-07
3.38672e-07
3.38673e-07
3.38675e-07
3.38672e-07
3.38664e-07
3.38648e-07
3.38626e-07
3.38598e-07
3.38567e-07
3.38532e-07
3.38493e-07
3.38453e-07
3.38418e-07
3.38386e-07
3.38352e-07
3.38319e-07
3.3829e-07
3.3827e-07
3.3826e-07
3.38259e-07
3.38264e-07
3.38273e-07
3.38281e-07
3.38284e-07
3.3828e-07
3.3827e-07
3.38254e-07
3.38233e-07
3.38208e-07
3.38174e-07
3.38133e-07
3.38083e-07
3.38021e-07
3.3795e-07
3.37877e-07
3.37808e-07
3.3774e-07
3.37678e-07
3.37625e-07
3.37587e-07
3.37574e-07
3.37573e-07
3.37579e-07
3.37583e-07
3.37583e-07
3.37572e-07
3.37564e-07
3.37564e-07
3.37566e-07
3.37564e-07
3.37577e-07
3.37608e-07
3.37659e-07
3.37715e-07
3.37796e-07
3.37859e-07
3.37924e-07
3.38009e-07
3.38046e-07
3.38112e-07
3.3815e-07
3.38212e-07
3.38203e-07
3.38197e-07
3.38176e-07
3.38138e-07
3.38045e-07
3.3795e-07
3.37891e-07
3.37848e-07
3.37756e-07
3.37662e-07
3.37618e-07
3.37615e-07
3.37639e-07
3.37652e-07
3.37679e-07
3.37744e-07
3.3778e-07
3.37747e-07
3.37775e-07
3.37893e-07
3.38044e-07
3.38147e-07
3.38102e-07
3.37933e-07
3.37694e-07
3.37451e-07
3.40652e-07
3.40773e-07
3.40334e-07
3.40035e-07
3.40013e-07
3.40071e-07
3.40155e-07
3.40192e-07
3.40237e-07
3.40235e-07
3.4025e-07
3.40239e-07
3.40301e-07
3.40323e-07
3.40331e-07
3.40313e-07
3.40304e-07
3.40299e-07
3.40312e-07
3.40308e-07
3.40324e-07
3.40343e-07
3.40384e-07
3.40403e-07
3.40386e-07
3.40377e-07
3.40391e-07
3.40403e-07
3.40424e-07
3.40447e-07
3.4046e-07
3.40474e-07
3.40472e-07
3.40472e-07
3.40478e-07
3.40483e-07
3.4048e-07
3.40483e-07
3.4049e-07
3.40504e-07
3.40512e-07
3.40516e-07
3.40517e-07
3.40515e-07
3.40514e-07
3.40516e-07
3.40517e-07
3.40519e-07
3.40514e-07
3.40515e-07
3.40513e-07
3.40503e-07
3.40502e-07
3.40502e-07
3.40501e-07
3.405e-07
3.40503e-07
3.40511e-07
3.40518e-07
3.40522e-07
3.40528e-07
3.40533e-07
3.40526e-07
3.40532e-07
3.40534e-07
3.40524e-07
3.4052e-07
3.40518e-07
3.4052e-07
3.40523e-07
3.40526e-07
3.40524e-07
3.40523e-07
3.40516e-07
3.40513e-07
3.40508e-07
3.40506e-07
3.40502e-07
3.40494e-07
3.40484e-07
3.40479e-07
3.4048e-07
3.40476e-07
3.40467e-07
3.40459e-07
3.40457e-07
3.40458e-07
3.40461e-07
3.40465e-07
3.40469e-07
3.40471e-07
3.40475e-07
3.40475e-07
3.40472e-07
3.40468e-07
3.40464e-07
3.40461e-07
3.40452e-07
3.40448e-07
3.4044e-07
3.40426e-07
3.40415e-07
3.40406e-07
3.40405e-07
3.40402e-07
3.40393e-07
3.40384e-07
3.40369e-07
3.40369e-07
3.40374e-07
3.40376e-07
3.40372e-07
3.4036e-07
3.40341e-07
3.40323e-07
3.40309e-07
3.40297e-07
3.40272e-07
3.40253e-07
3.40247e-07
3.40259e-07
3.40264e-07
3.40289e-07
3.4029e-07
3.40288e-07
3.40319e-07
3.40309e-07
3.40338e-07
3.4035e-07
3.40388e-07
3.40361e-07
3.40353e-07
3.40361e-07
3.40382e-07
3.40302e-07
3.40259e-07
3.40265e-07
3.40275e-07
3.40256e-07
3.4023e-07
3.40228e-07
3.4024e-07
3.40254e-07
3.40263e-07
3.40266e-07
3.40297e-07
3.403e-07
3.40249e-07
3.40252e-07
3.40301e-07
3.40373e-07
3.40411e-07
3.40358e-07
3.40267e-07
3.40185e-07
3.40089e-07
3.3911e-07
3.4064e-07
3.40931e-07
3.40931e-07
3.40863e-07
3.40688e-07
3.4066e-07
3.40644e-07
3.40675e-07
3.40691e-07
3.40734e-07
3.40745e-07
3.40733e-07
3.40711e-07
3.40728e-07
3.40746e-07
3.40769e-07
3.40767e-07
3.40772e-07
3.40763e-07
3.4077e-07
3.40769e-07
3.40751e-07
3.4073e-07
3.40728e-07
3.40732e-07
3.40745e-07
3.40752e-07
3.40763e-07
3.4078e-07
3.40787e-07
3.40793e-07
3.40795e-07
3.40793e-07
3.40795e-07
3.40795e-07
3.40795e-07
3.40794e-07
3.40794e-07
3.40801e-07
3.40805e-07
3.40806e-07
3.40804e-07
3.40805e-07
3.40806e-07
3.40807e-07
3.40806e-07
3.40808e-07
3.40806e-07
3.40807e-07
3.40804e-07
3.40803e-07
3.40804e-07
3.40806e-07
3.40807e-07
3.40807e-07
3.40806e-07
3.4081e-07
3.40815e-07
3.40815e-07
3.40817e-07
3.40818e-07
3.4082e-07
3.40821e-07
3.40825e-07
3.40823e-07
3.40821e-07
3.40819e-07
3.4082e-07
3.40822e-07
3.40825e-07
3.40823e-07
3.40821e-07
3.40819e-07
3.40819e-07
3.40818e-07
3.40819e-07
3.40818e-07
3.40815e-07
3.40812e-07
3.40811e-07
3.40814e-07
3.40815e-07
3.40813e-07
3.40811e-07
3.4081e-07
3.40811e-07
3.40813e-07
3.40814e-07
3.40815e-07
3.40816e-07
3.40817e-07
3.40816e-07
3.40816e-07
3.40816e-07
3.40816e-07
3.40817e-07
3.40818e-07
3.40818e-07
3.40817e-07
3.40813e-07
3.4081e-07
3.40812e-07
3.40818e-07
3.40823e-07
3.40822e-07
3.40818e-07
3.40812e-07
3.40814e-07
3.40817e-07
3.40816e-07
3.40808e-07
3.40799e-07
3.40781e-07
3.40762e-07
3.40744e-07
3.40727e-07
3.40699e-07
3.4068e-07
3.40674e-07
3.40667e-07
3.40662e-07
3.4067e-07
3.40656e-07
3.40643e-07
3.40656e-07
3.40638e-07
3.4066e-07
3.40661e-07
3.40688e-07
3.40666e-07
3.40666e-07
3.40681e-07
3.40673e-07
3.40646e-07
3.4061e-07
3.40625e-07
3.40652e-07
3.40651e-07
3.40634e-07
3.4062e-07
3.40626e-07
3.40644e-07
3.40662e-07
3.40668e-07
3.40678e-07
3.40666e-07
3.40618e-07
3.40624e-07
3.40678e-07
3.40729e-07
3.40749e-07
3.40695e-07
3.40622e-07
3.40566e-07
3.40505e-07
3.4179e-07
3.4196e-07
3.41316e-07
3.4064e-07
3.40513e-07
3.40539e-07
3.4058e-07
3.40596e-07
3.40626e-07
3.40616e-07
3.40628e-07
3.40609e-07
3.40652e-07
3.40661e-07
3.40663e-07
3.40649e-07
3.40651e-07
3.40645e-07
3.40654e-07
3.40649e-07
3.40665e-07
3.4068e-07
3.40707e-07
3.40721e-07
3.40708e-07
3.40699e-07
3.40702e-07
3.40705e-07
3.40716e-07
3.40731e-07
3.40741e-07
3.4075e-07
3.40742e-07
3.40736e-07
3.40737e-07
3.40733e-07
3.40721e-07
3.40721e-07
3.40725e-07
3.40735e-07
3.4074e-07
3.4074e-07
3.40736e-07
3.40732e-07
3.4073e-07
3.40735e-07
3.40739e-07
3.40744e-07
3.4074e-07
3.40744e-07
3.40743e-07
3.40731e-07
3.40732e-07
3.40733e-07
3.40734e-07
3.40734e-07
3.40739e-07
3.40748e-07
3.40755e-07
3.40757e-07
3.40761e-07
3.40764e-07
3.40753e-07
3.40761e-07
3.40762e-07
3.40749e-07
3.40743e-07
3.40742e-07
3.40744e-07
3.40747e-07
3.40749e-07
3.40746e-07
3.40745e-07
3.40742e-07
3.40743e-07
3.40744e-07
3.40749e-07
3.40751e-07
3.40748e-07
3.40744e-07
3.40744e-07
3.4075e-07
3.40753e-07
3.40749e-07
3.40747e-07
3.4075e-07
3.40753e-07
3.40757e-07
3.40759e-07
3.40761e-07
3.40761e-07
3.40763e-07
3.40763e-07
3.40761e-07
3.40761e-07
3.40763e-07
3.40766e-07
3.40763e-07
3.40766e-07
3.40766e-07
3.40764e-07
3.40764e-07
3.40769e-07
3.40781e-07
3.40793e-07
3.40799e-07
3.40799e-07
3.40791e-07
3.40794e-07
3.40798e-07
3.40798e-07
3.40791e-07
3.40777e-07
3.40758e-07
3.40738e-07
3.40721e-07
3.40706e-07
3.40678e-07
3.40655e-07
3.4064e-07
3.40648e-07
3.40639e-07
3.40651e-07
3.40639e-07
3.40622e-07
3.4064e-07
3.40617e-07
3.4064e-07
3.40647e-07
3.40682e-07
3.40654e-07
3.40649e-07
3.40666e-07
3.40699e-07
3.40624e-07
3.40592e-07
3.40609e-07
3.4063e-07
3.40628e-07
3.40618e-07
3.40622e-07
3.40635e-07
3.40642e-07
3.40652e-07
3.40663e-07
3.40677e-07
3.40667e-07
3.40617e-07
3.40616e-07
3.40672e-07
3.40715e-07
3.40738e-07
3.40684e-07
3.40609e-07
3.40556e-07
3.40518e-07
3.39791e-07
3.41073e-07
3.41139e-07
3.40979e-07
3.4083e-07
3.40653e-07
3.40655e-07
3.40649e-07
3.40687e-07
3.40692e-07
3.40712e-07
3.40714e-07
3.40732e-07
3.40734e-07
3.40745e-07
3.40744e-07
3.40748e-07
3.40743e-07
3.40751e-07
3.40743e-07
3.40753e-07
3.40758e-07
3.40766e-07
3.4077e-07
3.40758e-07
3.40749e-07
3.40758e-07
3.40765e-07
3.40776e-07
3.40793e-07
3.40801e-07
3.40808e-07
3.40808e-07
3.40805e-07
3.40806e-07
3.40806e-07
3.40805e-07
3.40803e-07
3.40803e-07
3.40809e-07
3.40813e-07
3.40813e-07
3.40811e-07
3.40812e-07
3.40812e-07
3.40813e-07
3.40813e-07
3.40815e-07
3.40812e-07
3.40813e-07
3.40811e-07
3.4081e-07
3.4081e-07
3.40812e-07
3.40814e-07
3.40814e-07
3.40814e-07
3.40819e-07
3.40824e-07
3.40825e-07
3.40827e-07
3.40829e-07
3.4083e-07
3.40831e-07
3.40835e-07
3.40833e-07
3.40829e-07
3.40827e-07
3.40828e-07
3.4083e-07
3.40832e-07
3.40831e-07
3.4083e-07
3.40828e-07
3.40828e-07
3.40828e-07
3.4083e-07
3.4083e-07
3.40827e-07
3.40824e-07
3.40824e-07
3.40827e-07
3.40829e-07
3.40828e-07
3.40826e-07
3.40825e-07
3.40827e-07
3.40829e-07
3.40831e-07
3.40832e-07
3.40833e-07
3.40834e-07
3.40835e-07
3.40835e-07
3.40835e-07
3.40835e-07
3.40837e-07
3.40839e-07
3.40841e-07
3.4084e-07
3.40837e-07
3.40835e-07
3.40837e-07
3.40848e-07
3.40854e-07
3.40854e-07
3.40852e-07
3.40845e-07
3.40849e-07
3.40853e-07
3.40851e-07
3.40843e-07
3.40834e-07
3.40815e-07
3.40796e-07
3.40778e-07
3.4076e-07
3.40732e-07
3.40712e-07
3.407e-07
3.407e-07
3.40693e-07
3.40703e-07
3.40688e-07
3.40672e-07
3.40684e-07
3.40664e-07
3.40687e-07
3.4069e-07
3.4072e-07
3.40697e-07
3.40694e-07
3.40706e-07
3.40696e-07
3.40677e-07
3.40644e-07
3.40661e-07
3.40687e-07
3.40688e-07
3.40675e-07
3.40666e-07
3.40675e-07
3.40692e-07
3.40704e-07
3.40702e-07
3.40719e-07
3.40715e-07
3.40665e-07
3.40665e-07
3.40704e-07
3.40763e-07
3.40785e-07
3.40734e-07
3.40661e-07
3.40608e-07
3.40547e-07
3.41672e-07
3.41907e-07
3.41147e-07
3.40497e-07
3.40466e-07
3.40441e-07
3.40496e-07
3.40516e-07
3.4056e-07
3.40566e-07
3.40595e-07
3.40598e-07
3.40639e-07
3.40643e-07
3.40651e-07
3.40648e-07
3.40667e-07
3.40673e-07
3.40687e-07
3.4068e-07
3.40693e-07
3.407e-07
3.40713e-07
3.40717e-07
3.407e-07
3.4069e-07
3.40689e-07
3.40689e-07
3.407e-07
3.40716e-07
3.40728e-07
3.4074e-07
3.40734e-07
3.40727e-07
3.40727e-07
3.40722e-07
3.4071e-07
3.40709e-07
3.40714e-07
3.40725e-07
3.4073e-07
3.40731e-07
3.40727e-07
3.40723e-07
3.40722e-07
3.40727e-07
3.40731e-07
3.40738e-07
3.40735e-07
3.4074e-07
3.4074e-07
3.40726e-07
3.40727e-07
3.40728e-07
3.40729e-07
3.4073e-07
3.40736e-07
3.40747e-07
3.40754e-07
3.40757e-07
3.4076e-07
3.40763e-07
3.40751e-07
3.4076e-07
3.40761e-07
3.40747e-07
3.4074e-07
3.40739e-07
3.40741e-07
3.40745e-07
3.40747e-07
3.40742e-07
3.40741e-07
3.40739e-07
3.40742e-07
3.40745e-07
3.4075e-07
3.40753e-07
3.40751e-07
3.40747e-07
3.40747e-07
3.40752e-07
3.40756e-07
3.40753e-07
3.40751e-07
3.40755e-07
3.40758e-07
3.40762e-07
3.40764e-07
3.40765e-07
3.40764e-07
3.40767e-07
3.40768e-07
3.40767e-07
3.40768e-07
3.40772e-07
3.40775e-07
3.40772e-07
3.40775e-07
3.40775e-07
3.40772e-07
3.40771e-07
3.40779e-07
3.40791e-07
3.40807e-07
3.40816e-07
3.40817e-07
3.4081e-07
3.40814e-07
3.40818e-07
3.40819e-07
3.40812e-07
3.40799e-07
3.40779e-07
3.40759e-07
3.40742e-07
3.40728e-07
3.40697e-07
3.40674e-07
3.40664e-07
3.40659e-07
3.40655e-07
3.40667e-07
3.40653e-07
3.40635e-07
3.40652e-07
3.40631e-07
3.40655e-07
3.40661e-07
3.40692e-07
3.40665e-07
3.40661e-07
3.40681e-07
3.40717e-07
3.40639e-07
3.40609e-07
3.40625e-07
3.40649e-07
3.40652e-07
3.40638e-07
3.40636e-07
3.40648e-07
3.40659e-07
3.40672e-07
3.40679e-07
3.40691e-07
3.40682e-07
3.40631e-07
3.40634e-07
3.40681e-07
3.40731e-07
3.40754e-07
3.40699e-07
3.40626e-07
3.40575e-07
3.40527e-07
3.39585e-07
3.40969e-07
3.41148e-07
3.40917e-07
3.40685e-07
3.40616e-07
3.40641e-07
3.40635e-07
3.40672e-07
3.40677e-07
3.40697e-07
3.40693e-07
3.40716e-07
3.40715e-07
3.40725e-07
3.40725e-07
3.4073e-07
3.40728e-07
3.40735e-07
3.40727e-07
3.40738e-07
3.40744e-07
3.40753e-07
3.40758e-07
3.40748e-07
3.4074e-07
3.40747e-07
3.40751e-07
3.40763e-07
3.4078e-07
3.4079e-07
3.40798e-07
3.40798e-07
3.40794e-07
3.40795e-07
3.40795e-07
3.40793e-07
3.40792e-07
3.40792e-07
3.40798e-07
3.40802e-07
3.40803e-07
3.408e-07
3.408e-07
3.408e-07
3.40801e-07
3.40801e-07
3.40804e-07
3.40801e-07
3.40803e-07
3.408e-07
3.40797e-07
3.40797e-07
3.40799e-07
3.40801e-07
3.40801e-07
3.40803e-07
3.40808e-07
3.40813e-07
3.40815e-07
3.40818e-07
3.4082e-07
3.4082e-07
3.40823e-07
3.40826e-07
3.40821e-07
3.40817e-07
3.40814e-07
3.40815e-07
3.40818e-07
3.4082e-07
3.40819e-07
3.40818e-07
3.40816e-07
3.40816e-07
3.40817e-07
3.40819e-07
3.4082e-07
3.40817e-07
3.40814e-07
3.40814e-07
3.40818e-07
3.4082e-07
3.40819e-07
3.40817e-07
3.40817e-07
3.40819e-07
3.40822e-07
3.40823e-07
3.40825e-07
3.40826e-07
3.40828e-07
3.40829e-07
3.40829e-07
3.40829e-07
3.4083e-07
3.40832e-07
3.40834e-07
3.40837e-07
3.40837e-07
3.40834e-07
3.40831e-07
3.40834e-07
3.40845e-07
3.40852e-07
3.40853e-07
3.4085e-07
3.40844e-07
3.40847e-07
3.40851e-07
3.40849e-07
3.40841e-07
3.4083e-07
3.4081e-07
3.4079e-07
3.40767e-07
3.40748e-07
3.40722e-07
3.40703e-07
3.40694e-07
3.40698e-07
3.40689e-07
3.40699e-07
3.40682e-07
3.40666e-07
3.40681e-07
3.4066e-07
3.40682e-07
3.40686e-07
3.40717e-07
3.40694e-07
3.40688e-07
3.40697e-07
3.40692e-07
3.40671e-07
3.40641e-07
3.40658e-07
3.40684e-07
3.40682e-07
3.4067e-07
3.40665e-07
3.40671e-07
3.40686e-07
3.40697e-07
3.40702e-07
3.40716e-07
3.40708e-07
3.40661e-07
3.40658e-07
3.40706e-07
3.40757e-07
3.40782e-07
3.40731e-07
3.40658e-07
3.40604e-07
3.40552e-07
3.42441e-07
3.4191e-07
3.40848e-07
3.40322e-07
3.40371e-07
3.40319e-07
3.40372e-07
3.40428e-07
3.40495e-07
3.40512e-07
3.40545e-07
3.40555e-07
3.40598e-07
3.40602e-07
3.40609e-07
3.40603e-07
3.40623e-07
3.4064e-07
3.40659e-07
3.40653e-07
3.40667e-07
3.40677e-07
3.4069e-07
3.40693e-07
3.40674e-07
3.40663e-07
3.40662e-07
3.40664e-07
3.40677e-07
3.40694e-07
3.40706e-07
3.4072e-07
3.40714e-07
3.40706e-07
3.40706e-07
3.40701e-07
3.40688e-07
3.40686e-07
3.4069e-07
3.40701e-07
3.40707e-07
3.40707e-07
3.40705e-07
3.40704e-07
3.40702e-07
3.40706e-07
3.4071e-07
3.40718e-07
3.40716e-07
3.40721e-07
3.40723e-07