/*--------------------------------*- C++ -*----------------------------------*\
| =========                 |                                                 |
| \\      /  F ield         | OpenFOAM: The Open Source CFD Toolbox           |
|  \\    /   O peration     | Version:  v1912                                 |
|   \\  /    A nd           | Website:  www.openfoam.com                      |
|    \\/     M anipulation  |                                                 |
\*---------------------------------------------------------------------------*/
FoamFile
{
    version     2.0;
    format      ascii;
    class       volScalarField;
    location    "50";
    object      p;
}
// * * * * * * * * * * * * * * * * * * * * * * * * * * * * * * * * * * * * * //

dimensions      [1 -1 -2 0 0 0 0];


internalField   nonuniform List<scalar> 
14268
(
45499.3
45128.4
44756.9
44384.3
44010.2
43634.3
43256.4
42876
45397.7
45026.9
44655.4
44282.7
43908.6
43532.8
43154.9
42774.5
45296.2
44925.4
44553.8
44181.2
43807.1
43431.2
43053.3
42672.9
45194.6
44823.8
44452.3
44079.6
43705.5
43329.7
42951.8
42571.4
45093.1
44722.3
44350.7
43978.1
43604
43228.1
42850.2
42469.8
44991.6
44620.7
44249.2
43876.6
43502.4
43126.6
42748.7
42368.3
44890
44519.2
44147.6
43775
43400.9
43025
42647.1
42266.7
44788.5
44417.6
44046.1
43673.5
43299.3
42923.5
42545.6
42165.2
44686.9
44316.1
43944.5
43571.9
43197.8
42821.9
42444
42063.6
44585.4
44214.6
43843
43470.4
43096.3
42720.4
42342.5
41962.1
44483.8
44113
43741.5
43368.8
42994.7
42618.8
42240.9
41860.5
44382.3
44011.5
43639.9
43267.3
42893.2
42517.3
42139.4
41759
44280.8
43909.9
43538.4
43165.7
42791.6
42415.8
42037.8
41657.5
44179.2
43808.4
43436.8
43064.2
42690.1
42314.2
41936.3
41555.9
43809.7
43468.5
43126.5
42783.6
42439.3
42093.5
41745.9
41396.3
43166.7
42884
42600.6
42316.2
42030.4
41743.1
41453.9
41162.7
42523.6
42299.4
42074.6
41848.8
41621.5
41392.7
41161.9
40929.1
41880.5
41714.9
41548.7
41381.4
41212.6
41042.3
40870
40695.5
41237.5
41130.5
41022.7
40914
40803.8
40691.8
40578
40461.8
40594.4
40546
40496.8
40446.6
40394.9
40341.4
40286
40228.2
39951.3
39961.5
39970.9
39979.2
39986
39991
39994
39994.6
38241.1
38281.3
38320.6
38358.9
38395.7
38430.7
38463.6
38494.2
35463.2
35504.7
35545.5
35585.2
35623.3
35659.7
35693.8
35725.8
32685.2
32728.2
32770.4
32811.5
32851.1
32888.8
32924.3
32957.5
29907.3
29951.7
29995.4
30038
30078.9
30118.1
30154.9
30189.4
27129.3
27175.3
27220.4
27264.5
27307
27347.5
27385.6
27421.5
24351.4
24398.9
24445.5
24491.1
24535.1
24577.1
24616.6
24653.7
21573.5
21622.5
21670.7
21717.9
21763.4
21806.8
21847.8
21886.2
18795.7
18846.2
18895.9
18944.7
18991.8
19036.8
19079.1
19118.8
16017.8
16069.9
16121.2
16171.7
16220.4
16266.9
16310.6
16351.7
13240
13293.7
13346.5
13398.6
13449.1
13497.2
13542.4
13584.8
10462.1
10517.2
10571.9
10625.8
10678.1
10727.9
10774.4
10818.1
7684.84
7741.87
7798.17
7853.23
7907.15
7958.66
8006.52
8051.5
4906.37
4964.46
5021.79
5079.3
5136.05
5189.54
5238.86
5285.05
2254.53
2306.63
2358.77
2410.43
2460.45
2508.11
2551.84
2593.2
508.289
532.638
557.858
583.792
609.068
632.986
654.834
675.841
9.98681
11.8846
14.7203
18.3112
21.9857
25.1524
28.1961
31.1814
-6.86722
-7.05879
-7.24521
-7.36273
-7.42013
-7.5243
-7.82217
-7.96344
-10.2961
-10.5089
-10.7246
-10.8308
-10.824
-10.9275
-11.1702
-11.4162
-13.7206
-13.948
-14.185
-14.3836
-14.536
-14.7296
-14.9985
-15.1976
-17.0666
-17.2759
-17.4703
-17.599
-17.6851
-17.836
-18.0734
-18.2893
-20.3954
-20.6073
-20.817
-20.994
-21.139
-21.3101
-21.5082
-21.6695
-23.6752
-23.8572
-24.0279
-24.1635
-24.2839
-24.4404
-24.6396
-24.8044
-27.0008
-27.1859
-27.3646
-27.5151
-27.6455
-27.7907
-27.9449
-28.084
-30.3063
-30.4718
-30.6276
-30.7662
-30.8989
-31.0507
-31.2192
-31.3574
-33.6473
-33.81
-33.9676
-34.1087
-34.2384
-34.377
-34.5231
-34.652
-36.9747
-37.1276
-37.2754
-37.4134
-37.5469
-37.6867
-37.8264
-37.9487
-40.3128
-40.461
-40.6044
-40.7382
-40.8669
-41.0003
-41.1317
-41.2484
-43.6451
-43.7871
-43.9257
-44.0571
-44.1841
-44.3131
-44.4384
-44.5506
-46.9799
-47.1166
-47.2503
-47.378
-47.502
-47.6262
-47.7458
-47.8537
-50.3139
-50.4457
-50.5749
-50.6991
-50.82
-50.9398
-51.0546
-51.1589
-53.6482
-53.7752
-53.9001
-54.0206
-54.1379
-54.2533
-54.3637
-54.4645
-56.9824
-57.1049
-57.2256
-57.3425
-57.4564
-57.5677
-57.6741
-57.7718
-60.3166
-60.4347
-60.5513
-60.6644
-60.7747
-60.8821
-60.9847
-61.0792
-63.6509
-63.7648
-63.8774
-63.9869
-64.0936
-64.1972
-64.2962
-64.388
-66.9851
-67.0948
-67.2035
-67.3094
-67.4125
-67.5124
-67.6079
-67.6968
-70.3194
-70.4252
-70.5301
-70.6323
-70.7319
-70.8282
-70.9205
-71.0066
-73.6537
-73.7556
-73.8567
-73.9553
-74.0513
-74.1442
-74.2331
-74.3165
-76.988
-77.0862
-77.1836
-77.2787
-77.3713
-77.4607
-77.5464
-77.627
-80.3223
-80.4167
-80.5105
-80.6021
-80.6913
-80.7774
-80.8599
-80.9378
-83.6566
-83.7475
-83.8377
-83.9259
-84.0117
-84.0945
-84.1739
-84.2491
-86.9909
-87.0783
-87.165
-87.2497
-87.3323
-87.4119
-87.4881
-87.5606
-90.3253
-90.4092
-90.4925
-90.5739
-90.6532
-90.7296
-90.8028
-90.8725
-93.6597
-93.7402
-93.8201
-93.8982
-93.9742
-94.0475
-94.1177
-94.1846
-96.9941
-97.0712
-97.1478
-97.2226
-97.2955
-97.3657
-97.4329
-97.4971
-100.329
-100.402
-100.476
-100.547
-100.617
-100.684
-100.748
-100.81
-103.663
-103.734
-103.804
-103.872
-103.939
-104.003
-104.064
-104.123
-106.997
-107.065
-107.132
-107.197
-107.261
-107.322
-107.38
-107.436
-110.332
-110.396
-110.46
-110.522
-110.583
-110.641
-110.697
-110.75
-113.667
-113.728
-113.788
-113.848
-113.905
-113.96
-114.013
-114.063
-117.001
-117.059
-117.117
-117.173
-117.228
-117.28
-117.33
-117.377
-120.336
-120.391
-120.445
-120.499
-120.55
-120.6
-120.647
-120.692
-123.67
-123.723
-123.774
-123.824
-123.873
-123.92
-123.964
-124.006
-127.005
-127.054
-127.103
-127.15
-127.196
-127.24
-127.282
-127.321
-130.34
-130.386
-130.432
-130.476
-130.519
-130.56
-130.599
-130.636
-133.674
-133.718
-133.761
-133.802
-133.843
-133.881
-133.917
-133.951
-137.009
-137.05
-137.09
-137.129
-137.166
-137.202
-137.235
-137.267
-146.856
-146.893
-146.928
-146.963
-146.996
-147.027
-147.057
-147.085
-163.217
-163.248
-163.278
-163.308
-163.336
-163.362
-163.388
-163.411
-179.578
-179.604
-179.63
-179.655
-179.678
-179.701
-179.722
-179.741
-195.94
-195.962
-195.983
-196.004
-196.024
-196.042
-196.06
-196.075
-212.303
-212.321
-212.338
-212.355
-212.371
-212.386
-212.4
-212.413
-228.666
-228.681
-228.694
-228.708
-228.72
-228.732
-228.743
-228.754
-245.03
-245.041
-245.052
-245.062
-245.071
-245.08
-245.089
-245.096
-261.395
-261.402
-261.41
-261.417
-261.423
-261.429
-261.435
-261.441
-277.759
-277.764
-277.768
-277.772
-277.776
-277.78
-277.783
-277.786
-294.124
-294.126
-294.127
-294.128
-294.129
-294.13
-294.131
-294.132
42740.2
42839.4
42932.8
43020.6
43102.7
43179
43249.4
43314
43372.7
43425.6
43472.2
43512.4
43545.8
43572.2
43591.3
43603.2
43607.9
43605.9
43597.3
43582.6
43561.9
43535.2
43502.6
43464
43419.5
43369.4
43313.9
43253.7
43189.2
43121.3
43050.6
42978.1
42904.6
42831
42758.2
42687.2
42619
42554.3
42493.8
42438.2
42388
42343.6
42305.2
42273.1
42247.3
42227.6
42213.5
42204.5
42199.6
42198
42198.5
42200.2
42202.2
42203.8
42204.4
42203.5
42200.7
42195.9
42188.8
42179.3
42167.7
42154.2
42139.1
42122.9
42106.9
42091.5
42077.5
42065.9
42057.5
42053.1
42053.3
42058.8
42069.8
42086.7
42109.2
42137
42169.7
42206.7
42246.4
42288
42330.2
42371.7
42411.2
42447.6
42479.9
42507.5
42530
42547.5
42560.3
42569.4
42575.9
42581.3
42587.6
42596.9
42610.6
42630.2
42656.6
42690.2
42730.4
42776.2
42825.7
42876.6
42926.2
42971.5
43009.6
43038.4
43056.2
43062.3
43056.4
43039.7
43013.8
42980.6
42942.5
42901.7
42860
42818.3
42776.9
42734.9
42691.1
42643.9
42592
42533.8
42469.2
42398.9
42324.8
42250
42178.9
42114.9
42062.9
42026.4
42008.2
42009.1
42028.5
42064
42112.3
42168.5
42226.9
42282.5
42327.8
42360.3
42376.8
42374.3
42351.8
42309.7
42249.5
42174.1
42086.7
41992.9
41900.6
41819.5
41759.4
41727.9
41728.3
41759.4
41815.2
41886.8
42638.6
42737.8
42831.2
42919
43001.1
43077.4
43147.8
43212.4
43271.1
43324
43370.6
43410.8
43444.2
43470.6
43489.7
43501.6
43506.3
43504.3
43495.7
43481
43460.3
43433.6
43401
43362.4
43317.9
43267.8
43212.3
43152.1
43087.6
43019.7
42949
42876.5
42803
42729.4
42656.6
42585.6
42517.4
42452.6
42392.2
42336.6
42286.4
42241.9
42203.6
42171.5
42145.7
42126
42111.9
42102.9
42098
42096.4
42096.9
42098.6
42100.6
42102.2
42102.8
42101.9
42099.1
42094.3
42087.2
42077.7
42066.1
42052.6
42037.5
42021.3
42005.3
41989.9
41975.9
41964.3
41955.9
41951.5
41951.7
41957.2
41968.2
41985
42007.6
42035.4
42068.1
42105.1
42144.8
42186.4
42228.6
42270.1
42309.6
42346
42378.3
42405.9
42428.4
42445.9
42458.7
42467.8
42474.3
42479.7
42486
42495.3
42509
42528.6
42555
42588.6
42628.8
42674.6
42724.1
42775
42824.6
42869.9
42908
42936.8
42954.6
42960.7
42954.8
42938.1
42912.2
42879
42840.9
42800.1
42758.4
42716.7
42675.3
42633.3
42589.4
42542.3
42490.4
42432.2
42367.6
42297.3
42223.2
42148.4
42077.3
42013.3
41961.2
41924.8
41906.6
41907.5
41926.9
41962.4
42010.7
42066.9
42125.3
42180.9
42226.2
42258.7
42275.2
42272.7
42250.2
42208.1
42147.9
42072.5
41985.1
41891.3
41799
41717.9
41657.8
41626.3
41626.7
41657.8
41713.6
41785.2
42537
42636.2
42729.5
42817.4
42899.5
42975.8
43046.2
43110.8
43169.5
43222.4
43269
43309.2
43342.6
43369
43388.1
43400
43404.7
43402.7
43394.1
43379.4
43358.7
43332
43299.4
43260.8
43216.3
43166.2
43110.7
43050.5
42986
42918.1
42847.4
42774.9
42701.4
42627.8
42555
42484
42415.8
42351
42290.6
42235
42184.8
42140.3
42102
42069.9
42044.1
42024.3
42010.3
42001.3
41996.4
41994.7
41995.3
41997
41999
42000.6
42001.2
42000.3
41997.5
41992.7
41985.6
41976.1
41964.5
41951
41935.9
41919.7
41903.7
41888.3
41874.3
41862.7
41854.3
41849.9
41850.1
41855.6
41866.6
41883.4
41905.9
41933.8
41966.5
42003.5
42043.2
42084.8
42127
42168.5
42208
42244.4
42276.7
42304.3
42326.8
42344.3
42357.1
42366.2
42372.7
42378.1
42384.4
42393.7
42407.4
42426.9
42453.4
42487
42527.2
42572.9
42622.4
42673.4
42723
42768.3
42806.4
42835.2
42853
42859.1
42853.2
42836.5
42810.6
42777.4
42739.3
42698.5
42656.8
42615.1
42573.7
42531.7
42487.8
42440.7
42388.8
42330.6
42266
42195.7
42121.6
42046.8
41975.6
41911.7
41859.6
41823.2
41805
41805.9
41825.3
41860.8
41909.1
41965.3
42023.7
42079.3
42124.6
42157.1
42173.6
42171.1
42148.6
42106.5
42046.3
41970.9
41883.5
41789.6
41697.4
41616.3
41556.2
41524.6
41525
41556.2
41612
41683.6
42435.4
42534.6
42627.9
42715.8
42797.9
42874.2
42944.6
43009.2
43067.9
43120.8
43167.4
43207.5
43241
43267.4
43286.5
43298.4
43303.1
43301.1
43292.5
43277.8
43257.1
43230.4
43197.8
43159.2
43114.7
43064.6
43009.1
42948.9
42884.4
42816.4
42745.8
42673.3
42599.8
42526.1
42453.4
42382.4
42314.1
42249.4
42189
42133.4
42083.2
42038.7
42000.4
41968.3
41942.5
41922.7
41908.7
41899.7
41894.8
41893.1
41893.7
41895.4
41897.4
41899
41899.6
41898.7
41895.9
41891.1
41883.9
41874.5
41862.9
41849.4
41834.3
41818.1
41802.1
41786.7
41772.7
41761.1
41752.7
41748.3
41748.5
41754
41765
41781.8
41804.3
41832.2
41864.9
41901.8
41941.6
41983.2
42025.4
42066.9
42106.4
42142.8
42175.1
42202.7
42225.2
42242.7
42255.5
42264.6
42271.1
42276.5
42282.8
42292.1
42305.7
42325.3
42351.8
42385.4
42425.6
42471.3
42520.8
42571.8
42621.4
42666.7
42704.8
42733.6
42751.4
42757.5
42751.6
42734.9
42709
42675.8
42637.7
42596.9
42555.2
42513.5
42472
42430.1
42386.2
42339.1
42287.2
42229
42164.4
42094.1
42020
41945.2
41874
41810.1
41758
41721.6
41703.4
41704.3
41723.7
41759.2
41807.5
41863.7
41922.1
41977.7
42023
42055.5
42072
42069.5
42047
42004.9
41944.7
41869.3
41781.8
41688
41595.7
41514.7
41454.6
41423
41423.4
41454.6
41510.3
41582
42333.8
42433
42526.3
42614.2
42696.3
42772.6
42843
42907.6
42966.3
43019.2
43065.8
43105.9
43139.4
43165.8
43184.9
43196.8
43201.5
43199.5
43190.9
43176.2
43155.5
43128.8
43096.2
43057.6
43013.1
42963
42907.5
42847.3
42782.8
42714.8
42644.2
42571.7
42498.2
42424.5
42351.8
42280.8
42212.5
42147.8
42087.4
42031.8
41981.6
41937.1
41898.8
41866.7
41840.9
41821.1
41807.1
41798
41793.2
41791.5
41792.1
41793.8
41795.8
41797.4
41798
41797.1
41794.3
41789.5
41782.3
41772.9
41761.3
41747.7
41732.7
41716.5
41700.5
41685.1
41671.1
41659.5
41651.1
41646.7
41646.9
41652.3
41663.4
41680.2
41702.7
41730.6
41763.3
41800.2
41840
41881.6
41923.8
41965.3
42004.8
42041.2
42073.5
42101.1
42123.6
42141.1
42153.9
42163
42169.4
42174.9
42181.2
42190.5
42204.1
42223.7
42250.2
42283.7
42324
42369.7
42419.2
42470.2
42519.8
42565.1
42603.2
42632
42649.8
42655.9
42650
42633.3
42607.4
42574.2
42536.1
42495.3
42453.6
42411.9
42370.4
42328.5
42284.6
42237.5
42185.6
42127.4
42062.8
41992.5
41918.4
41843.6
41772.4
41708.5
41656.4
41620
41601.8
41602.7
41622
41657.6
41705.9
41762.1
41820.5
41876.1
41921.4
41953.9
41970.4
41967.9
41945.4
41903.3
41843.1
41767.7
41680.2
41586.4
41494.1
41413.1
41353
41321.4
41321.8
41353
41408.7
41480.4
42232.2
42331.4
42424.7
42512.6
42594.7
42671
42741.4
42806
42864.7
42917.6
42964.2
43004.3
43037.8
43064.2
43083.3
43095.2
43099.9
43097.9
43089.3
43074.6
43053.9
43027.2
42994.6
42956
42911.5
42861.4
42805.9
42745.7
42681.2
42613.2
42542.6
42470.1
42396.6
42322.9
42250.2
42179.2
42110.9
42046.2
41985.8
41930.2
41880
41835.5
41797.2
41765.1
41739.3
41719.5
41705.5
41696.4
41691.6
41689.9
41690.5
41692.2
41694.2
41695.8
41696.4
41695.5
41692.7
41687.9
41680.7
41671.3
41659.7
41646.1
41631.1
41614.9
41598.8
41583.5
41569.5
41557.9
41549.5
41545.1
41545.3
41550.7
41561.8
41578.6
41601.1
41629
41661.7
41698.6
41738.4
41779.9
41822.2
41863.6
41903.2
41939.6
41971.9
41999.5
42022
42039.5
42052.3
42061.4
42067.8
42073.3
42079.6
42088.8
42102.5
42122.1
42148.6
42182.1
42222.4
42268.1
42317.6
42368.6
42418.2
42463.5
42501.6
42530.4
42548.2
42554.3
42548.4
42531.7
42505.8
42472.6
42434.5
42393.7
42352
42310.3
42268.8
42226.9
42183
42135.9
42084
42025.8
41961.2
41890.9
41816.7
41742
41670.8
41606.9
41554.8
41518.4
41500.2
41501.1
41520.4
41555.9
41604.3
41660.5
41718.9
41774.5
41819.8
41852.3
41868.8
41866.3
41843.8
41801.7
41741.5
41666.1
41578.6
41484.8
41392.5
41311.5
41251.3
41219.8
41220.2
41251.4
41307.1
41378.8
42130.6
42229.8
42323.1
42411
42493.1
42569.4
42639.8
42704.4
42763.1
42816
42862.6
42902.7
42936.2
42962.6
42981.7
42993.6
42998.3
42996.3
42987.7
42973
42952.3
42925.6
42893
42854.4
42809.9
42759.8
42704.3
42644.1
42579.6
42511.6
42441
42368.5
42295
42221.3
42148.6
42077.6
42009.3
41944.6
41884.2
41828.6
41778.4
41733.9
41695.6
41663.5
41637.7
41617.9
41603.9
41594.8
41590
41588.3
41588.9
41590.6
41592.6
41594.2
41594.8
41593.9
41591.1
41586.3
41579.1
41569.7
41558.1
41544.5
41529.5
41513.3
41497.2
41481.9
41467.9
41456.3
41447.9
41443.5
41443.7
41449.1
41460.2
41477
41499.5
41527.4
41560.1
41597
41636.8
41678.3
41720.6
41762
41801.6
41838
41870.3
41897.9
41920.4
41937.9
41950.7
41959.8
41966.2
41971.7
41978
41987.2
42000.9
42020.5
42047
42080.5
42120.8
42166.5
42216
42267
42316.6
42361.9
42400
42428.8
42446.7
42452.7
42446.8
42430.1
42404.2
42371
42332.9
42292.1
42250.4
42208.7
42167.2
42125.3
42081.4
42034.3
41982.4
41924.2
41859.6
41789.3
41715.1
41640.4
41569.2
41505.3
41453.2
41416.8
41398.6
41399.5
41418.8
41454.3
41502.7
41558.9
41617.3
41672.9
41718.2
41750.7
41767.2
41764.7
41742.2
41700.1
41640
41564.5
41477
41383.2
41290.9
41209.9
41149.7
41118.2
41118.6
41149.8
41205.5
41277.2
42029
42128.2
42221.5
42309.4
42391.5
42467.8
42538.2
42602.8
42661.5
42714.4
42761
42801.2
42834.6
42861
42880.1
42892
42896.7
42894.7
42886.1
42871.4
42850.7
42824
42791.4
42752.8
42708.3
42658.2
42602.7
42542.5
42478
42410
42339.4
42266.9
42193.3
42119.7
42047
41976
41907.7
41843
41782.6
41727
41676.8
41632.3
41593.9
41561.9
41536.1
41516.3
41502.2
41493.2
41488.4
41486.7
41487.2
41489
41491
41492.6
41493.2
41492.3
41489.5
41484.7
41477.5
41468.1
41456.5
41442.9
41427.9
41411.7
41395.6
41380.3
41366.3
41354.7
41346.3
41341.9
41342.1
41347.5
41358.6
41375.4
41397.9
41425.8
41458.4
41495.4
41535.2
41576.7
41618.9
41660.4
41700
41736.4
41768.7
41796.3
41818.8
41836.3
41849.1
41858.2
41864.6
41870.1
41876.4
41885.6
41899.3
41918.9
41945.4
41978.9
42019.2
42064.9
42114.4
42165.4
42215
42260.3
42298.4
42327.2
42345.1
42351.1
42345.2
42328.5
42302.6
42269.4
42231.3
42190.5
42148.7
42107.1
42065.6
42023.7
41979.8
41932.7
41880.8
41822.6
41758
41687.7
41613.5
41538.8
41467.6
41403.7
41351.6
41315.2
41296.9
41297.8
41317.2
41352.7
41401.1
41457.3
41515.7
41571.3
41616.6
41649.1
41665.6
41663.1
41640.6
41598.6
41538.4
41462.9
41375.4
41281.6
41189.3
41108.2
41048.1
41016.5
41016.9
41048.2
41103.9
41175.6
41927.4
42026.6
42119.9
42207.8
42289.9
42366.2
42436.6
42501.2
42559.9
42612.8
42659.4
42699.6
42733
42759.4
42778.5
42790.4
42795.1
42793.1
42784.5
42769.8
42749.1
42722.4
42689.8
42651.2
42606.7
42556.6
42501.1
42440.9
42376.4
42308.4
42237.8
42165.3
42091.7
42018.1
41945.4
41874.4
41806.1
41741.4
41681
41625.4
41575.2
41530.7
41492.3
41460.3
41434.4
41414.7
41400.6
41391.6
41386.8
41385.1
41385.6
41387.4
41389.4
41391
41391.6
41390.7
41387.9
41383.1
41375.9
41366.5
41354.9
41341.3
41326.3
41310.1
41294
41278.6
41264.7
41253.1
41244.7
41240.3
41240.5
41245.9
41257
41273.8
41296.3
41324.2
41356.8
41393.8
41433.6
41475.1
41517.3
41558.8
41598.4
41634.8
41667.1
41694.7
41717.2
41734.7
41747.5
41756.6
41763
41768.5
41774.8
41784
41797.7
41817.3
41843.7
41877.3
41917.6
41963.3
42012.8
42063.8
42113.4
42158.7
42196.8
42225.7
42243.5
42249.5
42243.7
42226.9
42201
42167.8
42129.7
42088.9
42047.1
42005.5
41964
41922.1
41878.2
41831.1
41779.2
41721
41656.4
41586.1
41511.9
41437.2
41366
41302.1
41250
41213.6
41195.3
41196.2
41215.6
41251.1
41299.5
41355.7
41414.1
41469.7
41515
41547.5
41564
41561.6
41539
41497
41436.8
41361.3
41273.8
41180
41087.7
41006.6
40946.5
40914.9
40915.3
40946.5
41002.3
41074
41825.8
41925
42018.4
42106.2
42188.3
42264.6
42335
42399.6
42458.3
42511.2
42557.8
42598
42631.4
42657.8
42676.9
42688.8
42693.5
42691.5
42682.9
42668.2
42647.5
42620.8
42588.2
42549.6
42505.1
42455
42399.5
42339.3
42274.8
42206.8
42136.2
42063.7
41990.1
41916.5
41843.8
41772.8
41704.5
41639.8
41579.4
41523.8
41473.5
41429.1
41390.7
41358.6
41332.8
41313.1
41299
41290
41285.2
41283.5
41284
41285.8
41287.8
41289.4
41290
41289.1
41286.3
41281.5
41274.3
41264.9
41253.3
41239.7
41224.7
41208.4
41192.4
41177
41163.1
41151.5
41143.1
41138.7
41138.9
41144.3
41155.4
41172.2
41194.7
41222.6
41255.2
41292.2
41332
41373.5
41415.7
41457.2
41496.8
41533.2
41565.5
41593.1
41615.6
41633.1
41645.9
41655
41661.4
41666.9
41673.2
41682.4
41696.1
41715.7
41742.1
41775.7
41816
41861.7
41911.2
41962.2
42011.8
42057.1
42095.2
42124.1
42141.9
42147.9
42142.1
42125.3
42099.4
42066.2
42028.1
41987.3
41945.5
41903.9
41862.4
41820.5
41776.6
41729.5
41677.6
41619.4
41554.8
41484.5
41410.3
41335.6
41264.4
41200.5
41148.3
41111.9
41093.7
41094.6
41114
41149.5
41197.9
41254.1
41312.5
41368.1
41413.4
41445.9
41462.5
41460
41437.4
41395.4
41335.2
41259.7
41172.2
41078.4
40986.1
40905
40844.8
40813.3
40813.7
40844.9
40900.7
40972.4
41724.2
41823.4
41916.8
42004.6
42086.7
42163
42233.4
42298
42356.7
42409.6
42456.2
42496.4
42529.8
42556.2
42575.3
42587.2
42591.9
42589.9
42581.3
42566.6
42545.9
42519.2
42486.6
42448
42403.5
42353.4
42297.9
42237.7
42173.2
42105.2
42034.6
41962.1
41888.5
41814.9
41742.1
41671.2
41602.9
41538.2
41477.7
41422.2
41371.9
41327.5
41289.1
41257
41231.2
41211.5
41197.4
41188.4
41183.6
41181.9
41182.4
41184.2
41186.2
41187.8
41188.4
41187.5
41184.7
41179.9
41172.7
41163.3
41151.7
41138.1
41123.1
41106.8
41090.8
41075.4
41061.5
41049.9
41041.5
41037
41037.3
41042.7
41053.8
41070.6
41093.1
41120.9
41153.6
41190.6
41230.4
41271.9
41314.1
41355.6
41395.2
41431.6
41463.9
41491.5
41514
41531.5
41544.3
41553.4
41559.8
41565.3
41571.6
41580.8
41594.5
41614.1
41640.5
41674.1
41714.4
41760.1
41809.6
41860.6
41910.2
41955.5
41993.7
42022.5
42040.3
42046.3
42040.5
42023.7
41997.8
41964.6
41926.5
41885.7
41843.9
41802.3
41760.8
41718.8
41675
41627.9
41576
41517.8
41453.2
41382.9
41308.7
41234
41162.8
41098.8
41046.7
41010.3
40992.1
40993
41012.4
41047.9
41096.3
41152.5
41210.9
41266.5
41311.8
41344.3
41360.9
41358.4
41335.9
41293.8
41233.6
41158.1
41070.7
40976.8
40884.5
40803.4
40743.2
40711.6
40712
40743.3
40799
40870.8
41622.6
41721.8
41815.2
41903
41985.1
42061.4
42131.8
42196.4
42255.1
42308
42354.6
42394.8
42428.2
42454.6
42473.7
42485.6
42490.3
42488.3
42479.7
42465
42444.3
42417.6
42385
42346.4
42301.9
42251.8
42196.3
42136.1
42071.6
42003.6
41933
41860.5
41786.9
41713.3
41640.5
41569.6
41501.3
41436.6
41376.1
41320.6
41270.3
41225.9
41187.5
41155.4
41129.6
41109.9
41095.8
41086.8
41081.9
41080.3
41080.8
41082.6
41084.6
41086.2
41086.8
41085.9
41083.1
41078.3
41071.1
41061.7
41050.1
41036.5
41021.5
41005.2
40989.2
40973.8
40959.9
40948.3
40939.9
40935.4
40935.7
40941.1
40952.1
40969
40991.5
41019.3
41052
41089
41128.7
41170.3
41212.5
41254
41293.6
41330
41362.3
41389.9
41412.4
41429.9
41442.7
41451.8
41458.2
41463.7
41470
41479.2
41492.9
41512.5
41538.9
41572.5
41612.7
41658.5
41708
41759
41808.6
41853.9
41892.1
41920.9
41938.7
41944.7
41938.9
41922.1
41896.2
41863
41824.9
41784.1
41742.3
41700.7
41659.2
41617.2
41573.4
41526.3
41474.4
41416.2
41351.6
41281.3
41207.1
41132.3
41061.2
40997.2
40945.1
40908.7
40890.5
40891.4
40910.7
40946.3
40994.6
41050.9
41109.3
41164.9
41210.2
41242.8
41259.3
41256.8
41234.3
41192.2
41132
41056.6
40969.1
40875.2
40782.8
40701.7
40641.6
40610
40610.4
40641.6
40697.4
40769.2
41521
41620.2
41713.6
41801.4
41883.5
41959.8
42030.2
42094.8
42153.5
42206.4
42253
42293.2
42326.6
42353
42372.1
42384
42388.8
42386.7
42378.1
42363.4
42342.7
42316
42283.4
42244.8
42200.3
42150.2
42094.7
42034.5
41970
41902
41831.4
41758.8
41685.3
41611.7
41538.9
41468
41399.7
41335
41274.5
41218.9
41168.7
41124.3
41085.9
41053.8
41028
41008.3
40994.2
40985.2
40980.3
40978.7
40979.2
40981
40983
40984.6
40985.2
40984.3
40981.5
40976.7
40969.5
40960.1
40948.5
40934.9
40919.9
40903.6
40887.6
40872.2
40858.3
40846.7
40838.3
40833.8
40834
40839.5
40850.5
40867.4
40889.9
40917.7
40950.4
40987.4
41027.1
41068.7
41110.9
41152.4
41192
41228.4
41260.7
41288.3
41310.8
41328.3
41341.1
41350.2
41356.6
41362.1
41368.4
41377.6
41391.3
41410.9
41437.3
41470.9
41511.1
41556.9
41606.4
41657.4
41707
41752.3
41790.5
41819.3
41837.1
41843.1
41837.3
41820.5
41794.6
41761.4
41723.3
41682.5
41640.7
41599.1
41557.6
41515.6
41471.8
41424.7
41372.8
41314.6
41250
41179.7
41105.5
41030.7
40959.5
40895.6
40843.5
40807.1
40788.8
40789.7
40809.1
40844.6
40893
40949.3
41007.7
41063.3
41108.6
41141.2
41157.7
41155.2
41132.7
41090.6
41030.4
40955
40867.5
40773.6
40681.2
40600.1
40539.9
40508.4
40508.8
40540
40595.8
40667.6
41419.4
41518.6
41612
41699.8
41781.9
41858.2
41928.6
41993.2
42051.9
42104.8
42151.4
42191.6
42225
42251.4
42270.6
42282.4
42287.2
42285.1
42276.5
42261.8
42241.1
42214.4
42181.8
42143.2
42098.7
42048.6
41993.1
41932.9
41868.4
41800.4
41729.8
41657.2
41583.7
41510.1
41437.3
41366.3
41298.1
41233.4
41172.9
41117.3
41067.1
41022.6
40984.3
40952.2
40926.4
40906.7
40892.6
40883.6
40878.7
40877.1
40877.6
40879.4
40881.4
40883
40883.6
40882.7
40879.9
40875.1
40867.9
40858.5
40846.9
40833.3
40818.3
40802
40786
40770.6
40756.7
40745.1
40736.7
40732.2
40732.4
40737.9
40748.9
40765.8
40788.3
40816.1
40848.8
40885.8
40925.5
40967.1
41009.3
41050.8
41090.4
41126.8
41159.1
41186.7
41209.2
41226.7
41239.5
41248.6
41255
41260.5
41266.8
41276
41289.7
41309.2
41335.7
41369.3
41409.5
41455.3
41504.8
41555.8
41605.4
41650.7
41688.9
41717.7
41735.5
41741.6
41735.7
41719
41693
41659.8
41621.7
41580.9
41539.1
41497.5
41456
41414
41370.2
41323.1
41271.2
41213.1
41148.4
41078.1
41003.9
40929.1
40857.9
40794
40741.9
40705.4
40687.2
40688.1
40707.5
40743
40791.4
40847.6
40906.1
40961.7
41007
41039.6
41056.1
41053.7
41031.1
40989.1
40928.8
40853.4
40765.9
40672
40579.6
40498.5
40438.3
40406.7
40407.1
40438.4
40494.2
40566
41267.1
41366.2
41459.6
41547.4
41629.6
41705.8
41776.2
41840.8
41899.6
41952.4
41999
42039.2
42072.6
42099
42118.2
42130
42134.8
42132.7
42124.1
42109.4
42088.7
42062.1
42029.4
41990.8
41946.3
41896.2
41840.7
41780.5
41716
41648
41577.4
41504.8
41431.3
41357.7
41284.9
41213.9
41145.7
41080.9
41020.5
40964.9
40914.7
40870.2
40831.9
40799.8
40774
40754.2
40740.2
40731.2
40726.3
40724.7
40725.2
40726.9
40729
40730.6
40731.2
40730.3
40727.5
40722.7
40715.5
40706.1
40694.5
40680.9
40665.9
40649.6
40633.6
40618.2
40604.3
40592.7
40584.2
40579.8
40580
40585.4
40596.5
40613.3
40635.8
40663.7
40696.4
40733.4
40773.1
40814.7
40856.9
40898.4
40938
40974.4
41006.7
41034.3
41056.9
41074.3
41087.1
41096.2
41102.6
41108.1
41114.4
41123.6
41137.2
41156.8
41183.3
41216.8
41257.1
41302.9
41352.4
41403.4
41453
41498.3
41536.5
41565.3
41583.1
41589.2
41583.3
41566.6
41540.6
41507.4
41469.3
41428.5
41386.7
41345.1
41303.6
41261.6
41217.8
41170.8
41118.8
41060.7
40996
40925.7
40851.5
40776.7
40705.5
40641.5
40589.4
40553
40534.7
40535.6
40555
40590.6
40639
40695.2
40753.7
40809.3
40854.7
40887.2
40903.8
40901.3
40878.8
40836.7
40776.5
40701
40613.5
40519.6
40427.2
40346
40285.8
40254.2
40254.6
40285.9
40341.7
40413.5
41063.9
41163.1
41256.4
41344.2
41426.4
41502.6
41573
41637.6
41696.4
41749.2
41795.9
41836
41869.4
41895.8
41915
41926.8
41931.6
41929.5
41921
41906.2
41885.5
41858.9
41826.2
41787.6
41743.1
41693
41637.5
41577.3
41512.8
41444.8
41374.2
41301.6
41228.1
41154.5
41081.7
41010.7
40942.4
40877.7
40817.3
40761.7
40711.5
40667
40628.6
40596.6
40570.7
40551
40537
40527.9
40523.1
40521.5
40522
40523.7
40525.8
40527.4
40528
40527.1
40524.3
40519.5
40512.3
40502.9
40491.3
40477.7
40462.7
40446.4
40430.4
40415
40401
40389.4
40381
40376.6
40376.8
40382.2
40393.3
40410.1
40432.6
40460.5
40493.2
40530.2
40569.9
40611.5
40653.7
40695.2
40734.8
40771.2
40803.5
40831.1
40853.7
40871.1
40883.9
40893
40899.4
40904.9
40911.1
40920.3
40934
40953.6
40980
41013.6
41053.9
41099.6
41149.2
41200.2
41249.8
41295.1
41333.3
41362.1
41380
41386
41380.1
41363.4
41337.4
41304.2
41266.1
41225.3
41183.5
41141.9
41100.4
41058.4
41014.6
40967.6
40915.6
40857.5
40792.8
40722.5
40648.3
40573.5
40502.3
40438.3
40386.2
40349.7
40331.5
40332.4
40351.8
40387.3
40435.8
40492
40550.5
40606.2
40651.5
40684.1
40700.6
40698.2
40675.6
40633.5
40573.3
40497.8
40410.3
40316.4
40223.9
40142.7
40082.5
40050.9
40051.3
40082.6
40138.5
40210.3
40860.7
40959.9
41053.2
41141
41223.2
41299.4
41369.8
41434.4
41493.2
41546
41592.7
41632.8
41666.2
41692.6
41711.8
41723.7
41728.4
41726.3
41717.8
41703.1
41682.3
41655.7
41623.1
41584.5
41540
41489.8
41434.4
41374.1
41309.6
41241.6
41171
41098.4
41024.9
40951.3
40878.5
40807.5
40739.2
40674.5
40614.1
40558.5
40508.2
40463.8
40425.4
40393.3
40367.5
40347.8
40333.7
40324.7
40319.9
40318.2
40318.8
40320.5
40322.6
40324.2
40324.8
40323.9
40321.1
40316.3
40309.1
40299.7
40288.1
40274.5
40259.4
40243.2
40227.2
40211.8
40197.8
40186.2
40177.8
40173.4
40173.6
40179
40190.1
40206.9
40229.4
40257.2
40289.9
40326.9
40366.7
40408.3
40450.5
40492
40531.6
40568
40600.3
40628
40650.5
40667.9
40680.7
40689.8
40696.2
40701.7
40707.9
40717.1
40730.8
40750.4
40776.8
40810.4
40850.6
40896.4
40946
40997
41046.6
41091.9
41130.1
41159
41176.8
41182.8
41177
41160.2
41134.3
41101.1
41062.9
41022.1
40980.3
40938.6
40897.2
40855.2
40811.5
40764.4
40712.4
40654.3
40589.6
40519.3
40445.1
40370.3
40299
40235
40182.9
40146.4
40128.2
40129.1
40148.5
40184.1
40232.5
40288.8
40347.3
40403
40448.3
40480.9
40497.5
40495
40472.5
40430.4
40370.2
40294.7
40207.1
40113.1
40020.7
39939.5
39879.2
39847.6
39848
39879.3
39935.2
40007.1
40657.5
40756.7
40850
40937.9
41020
41096.3
41166.7
41231.2
41290
41342.8
41389.5
41429.6
41463.1
41489.5
41508.6
41520.5
41525.2
41523.1
41514.6
41499.9
41479.2
41452.5
41419.9
41381.3
41336.8
41286.6
41231.2
41170.9
41106.4
41038.4
40967.8
40895.2
40821.7
40748.1
40675.3
40604.3
40536
40471.3
40410.8
40355.2
40305
40260.5
40222.2
40190.1
40164.3
40144.5
40130.5
40121.5
40116.7
40115
40115.6
40117.3
40119.4
40121
40121.6
40120.7
40117.9
40113.1
40105.9
40096.5
40084.9
40071.3
40056.2
40040
40024
40008.6
39994.6
39983
39974.6
39970.1
39970.3
39975.8
39986.8
40003.6
40026.2
40054
40086.7
40123.7
40163.5
40205.1
40247.3
40288.8
40328.4
40364.8
40397.1
40424.8
40447.3
40464.7
40477.5
40486.6
40493
40498.4
40504.7
40513.9
40527.6
40547.1
40573.6
40607.1
40647.4
40693.2
40742.7
40793.8
40843.4
40888.7
40927
40955.8
40973.7
40979.7
40973.8
40957.1
40931.1
40897.9
40859.7
40818.9
40777.1
40735.4
40694
40652
40608.3
40561.2
40509.2
40451.1
40386.5
40316.1
40241.9
40167
40095.8
40031.8
39979.6
39943.2
39924.9
39925.8
39945.2
39980.8
40029.3
40085.6
40144.1
40199.8
40245.2
40277.8
40294.4
40291.9
40269.4
40227.3
40167
40091.5
40003.9
39909.9
39817.4
39736.2
39675.9
39644.2
39644.7
39676
39731.9
39803.9
40454.3
40553.5
40646.8
40734.7
40816.8
40893.1
40963.5
41028
41086.8
41139.7
41186.3
41226.5
41259.9
41286.3
41305.5
41317.3
41322.1
41320
41311.4
41296.7
41276
41249.3
41216.7
41178.1
41133.6
41083.4
41028
40967.7
40903.2
40835.3
40764.6
40692
40618.5
40544.9
40472.1
40401.1
40332.8
40268
40207.6
40152
40101.8
40057.3
40018.9
39986.9
39961
39941.3
39927.3
39918.3
39913.4
39911.8
39912.4
39914.1
39916.2
39917.8
39918.4
39917.5
39914.7
39909.9
39902.7
39893.3
39881.7
39868.1
39853
39836.8
39820.8
39805.4
39791.4
39779.8
39771.3
39766.9
39767.1
39772.5
39783.6
39800.4
39822.9
39850.8
39883.5
39920.5
39960.3
40001.9
40044.1
40085.6
40125.2
40161.6
40194
40221.6
40244.1
40261.5
40274.3
40283.4
40289.8
40295.2
40301.5
40310.7
40324.3
40343.9
40370.3
40403.9
40444.2
40490
40539.5
40590.6
40640.2
40685.6
40723.8
40752.7
40770.5
40776.5
40770.7
40753.9
40727.9
40694.7
40656.5
40615.7
40573.9
40532.2
40490.8
40448.8
40405.1
40358
40306
40247.9
40183.3
40112.9
40038.7
39963.8
39892.6
39828.5
39776.3
39739.9
39721.6
39722.5
39741.9
39777.5
39826
39882.4
39940.9
39996.7
40042
40074.7
40091.3
40088.8
40066.2
40024.1
39963.9
39888.3
39800.7
39706.7
39614.1
39532.9
39472.5
39440.9
39441.3
39472.7
39528.7
39600.7
40251.2
40350.3
40443.7
40531.5
40613.6
40689.9
40760.3
40824.9
40883.6
40936.5
40983.1
41023.3
41056.7
41083.1
41102.3
41114.1
41118.9
41116.8
41108.2
41093.5
41072.8
41046.1