/*--------------------------------*- C++ -*----------------------------------*\
| =========                 |                                                 |
| \\      /  F ield         | OpenFOAM: The Open Source CFD Toolbox           |
|  \\    /   O peration     | Version:  v1912                                 |
|   \\  /    A nd           | Website:  www.openfoam.com                      |
|    \\/     M anipulation  |                                                 |
\*---------------------------------------------------------------------------*/
FoamFile
{
    version     2.0;
    format      ascii;
    class       volSymmTensorField;
    location    "70";
    object      R;
}
// * * * * * * * * * * * * * * * * * * * * * * * * * * * * * * * * * * * * * //

dimensions      [0 2 -2 0 0 0 0];


internalField   nonuniform List<symmTensor> 
14268
(
(4.11384e-07 -5.65158e-08 0 3.71179e-07 0 3.91447e-07)
(4.06864e-07 -5.63557e-08 0 3.74903e-07 0 3.91048e-07)
(4.03053e-07 -5.62768e-08 0 3.78632e-07 0 3.90943e-07)
(3.99915e-07 -5.61993e-08 0 3.82323e-07 0 3.912e-07)
(3.96727e-07 -5.6198e-08 0 3.86355e-07 0 3.91582e-07)
(3.93633e-07 -5.62088e-08 0 3.90661e-07 0 3.92133e-07)
(3.91037e-07 -5.62185e-08 0 3.94566e-07 0 3.92752e-07)
(3.88482e-07 -5.61991e-08 0 3.98412e-07 0 3.93333e-07)
(3.86022e-07 -5.61835e-08 0 4.01958e-07 0 3.93834e-07)
(3.83763e-07 -5.62037e-08 0 4.05059e-07 0 3.94235e-07)
(3.81771e-07 -5.62414e-08 0 4.07871e-07 0 3.94606e-07)
(3.79845e-07 -5.62836e-08 0 4.10546e-07 0 3.95008e-07)
(3.78119e-07 -5.64141e-08 0 4.13096e-07 0 3.95363e-07)
(3.77139e-07 -5.66136e-08 0 4.14913e-07 0 3.95816e-07)
(3.76607e-07 -5.68379e-08 0 4.16388e-07 0 3.96295e-07)
(3.77039e-07 -5.70598e-08 0 4.17011e-07 0 3.96826e-07)
(3.78842e-07 -5.74029e-08 0 4.17053e-07 0 3.97757e-07)
(3.82235e-07 -5.77896e-08 0 4.16305e-07 0 3.99065e-07)
(3.87427e-07 -5.82619e-08 0 4.14328e-07 0 4.00713e-07)
(3.93009e-07 -5.88197e-08 0 4.12649e-07 0 4.02628e-07)
(3.99518e-07 -5.93513e-08 0 4.09998e-07 0 4.04575e-07)
(4.06195e-07 -5.98465e-08 0 4.07175e-07 0 4.06497e-07)
(4.12213e-07 -6.03804e-08 0 4.04725e-07 0 4.08333e-07)
(4.17392e-07 -6.08641e-08 0 4.02574e-07 0 4.09893e-07)
(4.21906e-07 -6.13035e-08 0 4.00443e-07 0 4.1116e-07)
(4.25918e-07 -6.16553e-08 0 3.98347e-07 0 4.12169e-07)
(4.29796e-07 -6.19086e-08 0 3.961e-07 0 4.13054e-07)
(4.33833e-07 -6.20767e-08 0 3.93784e-07 0 4.13978e-07)
(4.37978e-07 -6.21822e-08 0 3.91581e-07 0 4.15023e-07)
(4.41832e-07 -6.22294e-08 0 3.89712e-07 0 4.16089e-07)
(4.44427e-07 -6.22123e-08 0 3.8863e-07 0 4.16913e-07)
(4.45265e-07 -6.21274e-08 0 3.88354e-07 0 4.1727e-07)
(4.4457e-07 -6.19431e-08 0 3.88595e-07 0 4.17096e-07)
(4.42915e-07 -6.16216e-08 0 3.88941e-07 0 4.16471e-07)
(4.40024e-07 -6.13444e-08 0 3.90047e-07 0 4.15561e-07)
(4.36611e-07 -6.10686e-08 0 3.91765e-07 0 4.14711e-07)
(4.31693e-07 -6.07725e-08 0 3.94933e-07 0 4.13896e-07)
(4.25743e-07 -6.0539e-08 0 3.99631e-07 0 4.1328e-07)
(4.19704e-07 -6.04561e-08 0 4.05111e-07 0 4.13032e-07)
(4.13603e-07 -6.04526e-08 0 4.11458e-07 0 4.13082e-07)
(4.08148e-07 -6.06135e-08 0 4.18176e-07 0 4.13736e-07)
(4.02583e-07 -6.07942e-08 0 4.25681e-07 0 4.14635e-07)
(3.98711e-07 -6.11418e-08 0 4.32156e-07 0 4.15837e-07)
(3.95526e-07 -6.14532e-08 0 4.37937e-07 0 4.17233e-07)
(3.93449e-07 -6.17402e-08 0 4.42592e-07 0 4.1833e-07)
(3.92405e-07 -6.20316e-08 0 4.4551e-07 0 4.19377e-07)
(3.92181e-07 -6.22844e-08 0 4.47244e-07 0 4.20088e-07)
(3.9394e-07 -6.26118e-08 0 4.46841e-07 0 4.20727e-07)
(3.95357e-07 -6.27939e-08 0 4.46426e-07 0 4.21505e-07)
(3.97488e-07 -6.30694e-08 0 4.46068e-07 0 4.22068e-07)
(4.0129e-07 -6.33645e-08 0 4.44359e-07 0 4.2331e-07)
(4.03752e-07 -6.35032e-08 0 4.4419e-07 0 4.24303e-07)
(4.07488e-07 -6.38199e-08 0 4.42594e-07 0 4.25447e-07)
(4.1037e-07 -6.39523e-08 0 4.41761e-07 0 4.26546e-07)
(4.11338e-07 -6.40507e-08 0 4.42394e-07 0 4.27197e-07)
(4.1372e-07 -6.41469e-08 0 4.40752e-07 0 4.27701e-07)
(4.13781e-07 -6.40564e-08 0 4.40782e-07 0 4.27671e-07)
(4.1329e-07 -6.40074e-08 0 4.41101e-07 0 4.27594e-07)
(4.12964e-07 -6.38931e-08 0 4.41144e-07 0 4.27527e-07)
(4.10286e-07 -6.3804e-08 0 4.43881e-07 0 4.27418e-07)
(4.09621e-07 -6.37921e-08 0 4.44133e-07 0 4.27327e-07)
(4.07398e-07 -6.37706e-08 0 4.46253e-07 0 4.27168e-07)
(4.06273e-07 -6.379e-08 0 4.46801e-07 0 4.26955e-07)
(4.04879e-07 -6.38311e-08 0 4.47865e-07 0 4.26735e-07)
(4.041e-07 -6.38633e-08 0 4.48165e-07 0 4.2653e-07)
(4.04028e-07 -6.40724e-08 0 4.48759e-07 0 4.26716e-07)
(4.05148e-07 -6.43156e-08 0 4.4867e-07 0 4.27247e-07)
(4.06796e-07 -6.46357e-08 0 4.48882e-07 0 4.28106e-07)
(4.09835e-07 -6.50029e-08 0 4.48002e-07 0 4.29218e-07)
(4.13293e-07 -6.53578e-08 0 4.47208e-07 0 4.30517e-07)
(4.17214e-07 -6.5736e-08 0 4.46074e-07 0 4.31937e-07)
(4.2137e-07 -6.60876e-08 0 4.44925e-07 0 4.33435e-07)
(4.25528e-07 -6.64194e-08 0 4.43871e-07 0 4.34974e-07)
(4.29606e-07 -6.67178e-08 0 4.42816e-07 0 4.36485e-07)
(4.33673e-07 -6.69828e-08 0 4.41754e-07 0 4.37955e-07)
(4.36997e-07 -6.72523e-08 0 4.41152e-07 0 4.39337e-07)
(4.40803e-07 -6.75021e-08 0 4.40056e-07 0 4.40657e-07)
(4.44534e-07 -6.7748e-08 0 4.38884e-07 0 4.42002e-07)
(4.48059e-07 -6.80134e-08 0 4.38129e-07 0 4.43319e-07)
(4.53032e-07 -6.84868e-08 0 4.36376e-07 0 4.45028e-07)
(4.5998e-07 -6.97693e-08 0 4.341e-07 0 4.47373e-07)
(4.70848e-07 -7.25723e-08 0 4.30026e-07 0 4.50978e-07)
(4.84285e-07 -8.08456e-08 0 4.25894e-07 0 4.55913e-07)
(4.63798e-07 -8.82729e-08 0 4.53383e-07 0 4.57894e-07)
(4.34872e-07 -8.35999e-08 0 4.91727e-07 0 4.59566e-07)
(4.16129e-07 -7.60226e-08 0 5.108e-07 0 4.57832e-07)
(2.3025e-07 -2.50877e-08 0 2.04866e-07 0 2.17398e-07)
(2.23545e-07 -2.42745e-08 0 2.02916e-07 0 2.13069e-07)
(2.16965e-07 -2.3506e-08 0 2.00891e-07 0 2.08716e-07)
(2.10468e-07 -2.27925e-08 0 1.98818e-07 0 2.04434e-07)
(2.04179e-07 -2.21301e-08 0 1.96787e-07 0 2.00261e-07)
(1.98268e-07 -2.15328e-08 0 1.94834e-07 0 1.96315e-07)
(1.9285e-07 -2.09945e-08 0 1.92935e-07 0 1.92645e-07)
(1.87855e-07 -2.05057e-08 0 1.91162e-07 0 1.89242e-07)
(1.83298e-07 -2.00784e-08 0 1.8951e-07 0 1.86125e-07)
(1.79089e-07 -1.96942e-08 0 1.87989e-07 0 1.83256e-07)
(1.7537e-07 -1.9391e-08 0 1.86653e-07 0 1.80713e-07)
(1.7215e-07 -1.91498e-08 0 1.85532e-07 0 1.78557e-07)
(1.69421e-07 -1.8991e-08 0 1.84709e-07 0 1.76757e-07)
(1.6756e-07 -1.89841e-08 0 1.84265e-07 0 1.75615e-07)
(1.66397e-07 -1.90479e-08 0 1.84123e-07 0 1.74948e-07)
(1.66355e-07 -1.92937e-08 0 1.84433e-07 0 1.75079e-07)
(1.67495e-07 -1.96379e-08 0 1.85032e-07 0 1.75934e-07)
(1.69737e-07 -2.01016e-08 0 1.85881e-07 0 1.77473e-07)
(1.73076e-07 -2.06701e-08 0 1.86976e-07 0 1.7969e-07)
(1.77295e-07 -2.13267e-08 0 1.88337e-07 0 1.82449e-07)
(1.82202e-07 -2.20312e-08 0 1.8982e-07 0 1.85645e-07)
(1.87403e-07 -2.2735e-08 0 1.91382e-07 0 1.89003e-07)
(1.92691e-07 -2.34333e-08 0 1.92941e-07 0 1.92434e-07)
(1.9785e-07 -2.40908e-08 0 1.94427e-07 0 1.95755e-07)
(2.0287e-07 -2.47126e-08 0 1.95805e-07 0 1.98963e-07)
(2.07729e-07 -2.52674e-08 0 1.97061e-07 0 2.0201e-07)
(2.12493e-07 -2.5752e-08 0 1.98186e-07 0 2.04955e-07)
(2.17191e-07 -2.61517e-08 0 1.99245e-07 0 2.07836e-07)
(2.21784e-07 -2.64663e-08 0 2.00271e-07 0 2.10652e-07)
(2.26088e-07 -2.66711e-08 0 2.0125e-07 0 2.13307e-07)
(2.29634e-07 -2.67331e-08 0 2.02123e-07 0 2.15534e-07)
(2.31911e-07 -2.66252e-08 0 2.02771e-07 0 2.17017e-07)
(2.32595e-07 -2.63522e-08 0 2.03039e-07 0 2.17508e-07)
(2.31597e-07 -2.59224e-08 0 2.02872e-07 0 2.16945e-07)
(2.2866e-07 -2.53054e-08 0 2.02252e-07 0 2.15188e-07)
(2.238e-07 -2.44992e-08 0 2.00987e-07 0 2.1216e-07)
(2.17169e-07 -2.35475e-08 0 1.99135e-07 0 2.07961e-07)
(2.09187e-07 -2.25113e-08 0 1.96806e-07 0 2.02819e-07)
(2.00399e-07 -2.14467e-08 0 1.94026e-07 0 1.97067e-07)
(1.91384e-07 -2.04144e-08 0 1.91029e-07 0 1.91042e-07)
(1.82742e-07 -1.94828e-08 0 1.87842e-07 0 1.85145e-07)
(1.7467e-07 -1.86458e-08 0 1.84724e-07 0 1.79533e-07)
(1.67832e-07 -1.80189e-08 0 1.81818e-07 0 1.74637e-07)
(1.6235e-07 -1.7542e-08 0 1.7936e-07 0 1.70706e-07)
(1.58261e-07 -1.72377e-08 0 1.77427e-07 0 1.67619e-07)
(1.5562e-07 -1.71618e-08 0 1.76139e-07 0 1.65692e-07)
(1.54348e-07 -1.72502e-08 0 1.75594e-07 0 1.64736e-07)
(1.54739e-07 -1.75928e-08 0 1.75761e-07 0 1.65006e-07)
(1.56258e-07 -1.7977e-08 0 1.76537e-07 0 1.66185e-07)
(1.58928e-07 -1.85166e-08 0 1.77933e-07 0 1.68163e-07)
(1.62373e-07 -1.90098e-08 0 1.79383e-07 0 1.70672e-07)
(1.65621e-07 -1.93778e-08 0 1.80872e-07 0 1.72999e-07)
(1.69003e-07 -1.98594e-08 0 1.82308e-07 0 1.75432e-07)
(1.7223e-07 -2.0164e-08 0 1.83676e-07 0 1.77761e-07)
(1.74719e-07 -2.03701e-08 0 1.84928e-07 0 1.79599e-07)
(1.77005e-07 -2.05805e-08 0 1.86001e-07 0 1.81344e-07)
(1.78103e-07 -2.05663e-08 0 1.86878e-07 0 1.82318e-07)
(1.78219e-07 -2.05442e-08 0 1.87241e-07 0 1.82543e-07)
(1.77636e-07 -2.04121e-08 0 1.8745e-07 0 1.82414e-07)
(1.75995e-07 -2.01684e-08 0 1.87085e-07 0 1.81337e-07)
(1.74296e-07 -2.00601e-08 0 1.86769e-07 0 1.80401e-07)
(1.72422e-07 -1.98702e-08 0 1.86315e-07 0 1.79175e-07)
(1.70811e-07 -1.98439e-08 0 1.85991e-07 0 1.78241e-07)
(1.69782e-07 -1.98837e-08 0 1.85966e-07 0 1.77676e-07)
(1.69401e-07 -2.00592e-08 0 1.86217e-07 0 1.77624e-07)
(1.69759e-07 -2.03183e-08 0 1.86715e-07 0 1.78022e-07)
(1.70899e-07 -2.06574e-08 0 1.87424e-07 0 1.78963e-07)
(1.72684e-07 -2.1037e-08 0 1.88294e-07 0 1.80261e-07)
(1.75169e-07 -2.14848e-08 0 1.89391e-07 0 1.82072e-07)
(1.78153e-07 -2.1921e-08 0 1.90538e-07 0 1.84123e-07)
(1.81494e-07 -2.23856e-08 0 1.9183e-07 0 1.86452e-07)
(1.85137e-07 -2.28309e-08 0 1.93175e-07 0 1.88943e-07)
(1.88874e-07 -2.32593e-08 0 1.94537e-07 0 1.91485e-07)
(1.92592e-07 -2.36557e-08 0 1.95888e-07 0 1.94021e-07)
(1.96192e-07 -2.40206e-08 0 1.97177e-07 0 1.96451e-07)
(1.99605e-07 -2.43761e-08 0 1.98431e-07 0 1.98803e-07)
(2.02979e-07 -2.47356e-08 0 1.99611e-07 0 2.01044e-07)
(2.06305e-07 -2.51081e-08 0 2.008e-07 0 2.03345e-07)
(2.097e-07 -2.54924e-08 0 2.02063e-07 0 2.05623e-07)
(2.13604e-07 -2.59474e-08 0 2.03492e-07 0 2.08336e-07)
(2.18084e-07 -2.6623e-08 0 2.05363e-07 0 2.11469e-07)
(2.23463e-07 -2.87735e-08 0 2.07493e-07 0 2.15345e-07)
(2.26407e-07 -3.20865e-08 0 2.09965e-07 0 2.18074e-07)
(2.23913e-07 -3.39663e-08 0 2.11075e-07 0 2.17336e-07)
(2.17412e-07 -3.3195e-08 0 2.08976e-07 0 2.12922e-07)
(2.07747e-07 -2.77505e-08 0 2.04985e-07 0 2.06348e-07)
(1.02002e-07 -7.84451e-09 0 8.94759e-08 0 9.57187e-08)
(9.8311e-08 -7.43207e-09 0 8.81142e-08 0 9.31832e-08)
(9.47087e-08 -7.0687e-09 0 8.67708e-08 0 9.06788e-08)
(9.12054e-08 -6.75888e-09 0 8.54374e-08 0 8.82565e-08)
(8.78928e-08 -6.49109e-09 0 8.41539e-08 0 8.59513e-08)
(8.48484e-08 -6.26803e-09 0 8.29439e-08 0 8.38191e-08)
(8.21016e-08 -6.08131e-09 0 8.18225e-08 0 8.18841e-08)
(7.96251e-08 -5.92082e-09 0 8.08065e-08 0 8.01344e-08)
(7.74106e-08 -5.78975e-09 0 7.98877e-08 0 7.85704e-08)
(7.54047e-08 -5.67079e-09 0 7.90678e-08 0 7.7162e-08)
(7.36568e-08 -5.59227e-09 0 7.83592e-08 0 7.59325e-08)
(7.21644e-08 -5.53422e-09 0 7.77597e-08 0 7.48983e-08)
(7.09172e-08 -5.51322e-09 0 7.72994e-08 0 7.40392e-08)
(7.00638e-08 -5.56106e-09 0 7.69989e-08 0 7.34723e-08)
(6.95265e-08 -5.62806e-09 0 7.68438e-08 0 7.3125e-08)
(6.94557e-08 -5.78081e-09 0 7.68895e-08 0 7.31196e-08)
(6.98746e-08 -5.96252e-09 0 7.70866e-08 0 7.34287e-08)
(7.0741e-08 -6.18893e-09 0 7.74113e-08 0 7.40304e-08)
(7.20758e-08 -6.44655e-09 0 7.78602e-08 0 7.49318e-08)
(7.38122e-08 -6.73584e-09 0 7.84377e-08 0 7.60841e-08)
(7.58757e-08 -7.03911e-09 0 7.908e-08 0 7.74462e-08)
(7.80884e-08 -7.33276e-09 0 7.97568e-08 0 7.88896e-08)
(8.03839e-08 -7.60735e-09 0 8.04044e-08 0 8.0374e-08)
(8.2656e-08 -7.85647e-09 0 8.10189e-08 0 8.18256e-08)
(8.48935e-08 -8.09014e-09 0 8.15941e-08 0 8.32442e-08)
(8.7071e-08 -8.29034e-09 0 8.21282e-08 0 8.4603e-08)
(8.92014e-08 -8.44953e-09 0 8.26205e-08 0 8.59202e-08)
(9.1289e-08 -8.55848e-09 0 8.30923e-08 0 8.72065e-08)
(9.33229e-08 -8.62116e-09 0 8.35537e-08 0 8.84621e-08)
(9.52373e-08 -8.62176e-09 0 8.39978e-08 0 8.96493e-08)
(9.68401e-08 -8.54217e-09 0 8.43796e-08 0 9.06471e-08)
(9.7888e-08 -8.37844e-09 0 8.46285e-08 0 9.13022e-08)
(9.81947e-08 -8.1473e-09 0 8.46841e-08 0 9.14858e-08)
(9.76986e-08 -7.84563e-09 0 8.45217e-08 0 9.11602e-08)
(9.62837e-08 -7.4622e-09 0 8.40892e-08 0 9.02348e-08)
(9.38764e-08 -7.01111e-09 0 8.32686e-08 0 8.86205e-08)
(9.05958e-08 -6.50964e-09 0 8.20783e-08 0 8.63906e-08)
(8.67087e-08 -5.9983e-09 0 8.06171e-08 0 8.37125e-08)
(8.25156e-08 -5.52105e-09 0 7.89744e-08 0 8.0801e-08)
(7.8351e-08 -5.11446e-09 0 7.72912e-08 0 7.78673e-08)
(7.44581e-08 -4.80172e-09 0 7.56619e-08 0 7.51082e-08)
(7.09613e-08 -4.5575e-09 0 7.41673e-08 0 7.2604e-08)
(6.80707e-08 -4.43884e-09 0 7.29061e-08 0 7.0517e-08)
(6.58389e-08 -4.37699e-09 0 7.18963e-08 0 6.89143e-08)
(6.4191e-08 -4.38295e-09 0 7.1178e-08 0 6.77028e-08)
(6.31517e-08 -4.46359e-09 0 7.07133e-08 0 6.69697e-08)
(6.26457e-08 -4.5871e-09 0 7.05308e-08 0 6.66094e-08)
(6.27655e-08 -4.80542e-09 0 7.06077e-08 0 6.67082e-08)
(6.33467e-08 -4.98964e-09 0 7.08793e-08 0 6.71445e-08)
(6.43726e-08 -5.22211e-09 0 7.13622e-08 0 6.78841e-08)
(6.56862e-08 -5.39249e-09 0 7.18602e-08 0 6.88129e-08)
(6.69403e-08 -5.49064e-09 0 7.23585e-08 0 6.96781e-08)
(6.8224e-08 -5.65375e-09 0 7.28742e-08 0 7.05846e-08)
(6.9471e-08 -5.70657e-09 0 7.3356e-08 0 7.14645e-08)
(7.04509e-08 -5.72262e-09 0 7.37871e-08 0 7.21579e-08)
(7.13223e-08 -5.74117e-09 0 7.42033e-08 0 7.28259e-08)
(7.1759e-08 -5.65469e-09 0 7.45149e-08 0 7.31961e-08)
(7.17623e-08 -5.60517e-09 0 7.46333e-08 0 7.32475e-08)
(7.14792e-08 -5.49631e-09 0 7.465e-08 0 7.31408e-08)
(7.0756e-08 -5.37524e-09 0 7.44485e-08 0 7.26466e-08)
(6.99996e-08 -5.32885e-09 0 7.42606e-08 0 7.22033e-08)
(6.91863e-08 -5.25401e-09 0 7.40243e-08 0 7.1654e-08)
(6.84791e-08 -5.26959e-09 0 7.38546e-08 0 7.12276e-08)
(6.8027e-08 -5.3113e-09 0 7.37924e-08 0 7.09563e-08)
(6.78344e-08 -5.41112e-09 0 7.385e-08 0 7.08932e-08)
(6.79412e-08 -5.54711e-09 0 7.39851e-08 0 7.1001e-08)
(6.8353e-08 -5.70081e-09 0 7.41843e-08 0 7.13145e-08)
(6.90139e-08 -5.86474e-09 0 7.44435e-08 0 7.17624e-08)
(6.99557e-08 -6.04147e-09 0 7.47706e-08 0 7.24064e-08)
(7.10828e-08 -6.19909e-09 0 7.51343e-08 0 7.3147e-08)
(7.23672e-08 -6.36266e-09 0 7.55436e-08 0 7.40001e-08)
(7.37747e-08 -6.50739e-09 0 7.59835e-08 0 7.49256e-08)
(7.52241e-08 -6.63611e-09 0 7.64404e-08 0 7.58782e-08)
(7.66738e-08 -6.74601e-09 0 7.69009e-08 0 7.68361e-08)
(7.80717e-08 -6.84322e-09 0 7.73532e-08 0 7.77575e-08)
(7.93996e-08 -6.94044e-09 0 7.78005e-08 0 7.86542e-08)
(8.0716e-08 -7.0523e-09 0 7.82462e-08 0 7.95228e-08)
(8.20314e-08 -7.17383e-09 0 7.87124e-08 0 8.0432e-08)
(8.34051e-08 -7.31761e-09 0 7.92023e-08 0 8.13429e-08)
(8.4933e-08 -7.50103e-09 0 7.97744e-08 0 8.24117e-08)
(8.65462e-08 -7.67313e-09 0 8.04528e-08 0 8.35479e-08)
(8.81225e-08 -7.95038e-09 0 8.13205e-08 0 8.4732e-08)
(8.89483e-08 -8.04899e-09 0 8.17639e-08 0 8.53527e-08)
(8.83917e-08 -7.99847e-09 0 8.17352e-08 0 8.50266e-08)
(8.6283e-08 -7.6314e-09 0 8.12223e-08 0 8.36477e-08)
(8.41067e-08 -7.77219e-09 0 8.10544e-08 0 8.23095e-08)
(6.10164e-08 -3.4225e-09 0 5.31752e-08 0 5.70549e-08)
(5.9088e-08 -3.23065e-09 0 5.2705e-08 0 5.58532e-08)
(5.72306e-08 -3.08062e-09 0 5.22836e-08 0 5.46959e-08)
(5.54625e-08 -2.97614e-09 0 5.18727e-08 0 5.36039e-08)
(5.38074e-08 -2.90358e-09 0 5.14922e-08 0 5.25847e-08)
(5.2306e-08 -2.8583e-09 0 5.11508e-08 0 5.16624e-08)
(5.09666e-08 -2.83199e-09 0 5.08515e-08 0 5.08435e-08)
(4.97704e-08 -2.81563e-09 0 5.06018e-08 0 5.0118e-08)
(4.87118e-08 -2.8108e-09 0 5.0386e-08 0 4.94817e-08)
(4.77585e-08 -2.80314e-09 0 5.02112e-08 0 4.8919e-08)
(4.69299e-08 -2.82058e-09 0 5.00759e-08 0 4.84345e-08)
(4.62258e-08 -2.83915e-09 0 4.99632e-08 0 4.80324e-08)
(4.56325e-08 -2.88275e-09 0 4.99097e-08 0 4.77034e-08)
(4.52284e-08 -2.96371e-09 0 4.98678e-08 0 4.74863e-08)
(4.49758e-08 -3.04222e-09 0 4.98678e-08 0 4.73568e-08)
(4.49321e-08 -3.17633e-09 0 4.99026e-08 0 4.73543e-08)
(4.51221e-08 -3.31471e-09 0 4.99451e-08 0 4.74689e-08)
(4.55181e-08 -3.46935e-09 0 4.99879e-08 0 4.76904e-08)
(4.61388e-08 -3.6251e-09 0 5.00277e-08 0 4.80245e-08)
(4.69518e-08 -3.78983e-09 0 5.00924e-08 0 4.84579e-08)
(4.7936e-08 -3.9421e-09 0 5.01384e-08 0 4.8976e-08)
(4.8998e-08 -4.07512e-09 0 5.01938e-08 0 4.95314e-08)
(5.01135e-08 -4.18795e-09 0 5.02222e-08 0 5.01089e-08)
(5.12205e-08 -4.28184e-09 0 5.02551e-08 0 5.06807e-08)
(5.2318e-08 -4.3631e-09 0 5.02844e-08 0 5.12478e-08)
(5.33972e-08 -4.41932e-09 0 5.03136e-08 0 5.17997e-08)
(5.44572e-08 -4.44694e-09 0 5.03347e-08 0 5.23402e-08)
(5.54919e-08 -4.43883e-09 0 5.03637e-08 0 5.28721e-08)
(5.64936e-08 -4.39306e-09 0 5.04025e-08 0 5.33934e-08)
(5.74367e-08 -4.30052e-09 0 5.04431e-08 0 5.38887e-08)
(5.82301e-08 -4.15583e-09 0 5.04742e-08 0 5.43051e-08)
(5.87406e-08 -3.96115e-09 0 5.04912e-08 0 5.45723e-08)
(5.88774e-08 -3.74055e-09 0 5.04696e-08 0 5.4632e-08)
(5.86099e-08 -3.49234e-09 0 5.03948e-08 0 5.44652e-08)
(5.78911e-08 -3.21351e-09 0 5.02405e-08 0 5.40342e-08)
(5.6698e-08 -2.91703e-09 0 4.99669e-08 0 5.33084e-08)
(5.50975e-08 -2.62699e-09 0 4.9606e-08 0 5.23339e-08)
(5.32232e-08 -2.36534e-09 0 4.92026e-08 0 5.11958e-08)
(5.12349e-08 -2.14949e-09 0 4.87946e-08 0 5.00038e-08)
(4.92771e-08 -2.00473e-09 0 4.8445e-08 0 4.88435e-08)
(4.74891e-08 -1.93034e-09 0 4.81319e-08 0 4.77968e-08)
(4.59027e-08 -1.90963e-09 0 4.79036e-08 0 4.68856e-08)
(4.45986e-08 -1.97096e-09 0 4.77526e-08 0 4.61538e-08)
(4.36278e-08 -2.04652e-09 0 4.7628e-08 0 4.56173e-08)
(4.2885e-08 -2.15592e-09 0 4.76177e-08 0 4.52208e-08)
(4.24389e-08 -2.29744e-09 0 4.7588e-08 0 4.49929e-08)
(4.22071e-08 -2.45094e-09 0 4.763e-08 0 4.48848e-08)
(4.22576e-08 -2.63955e-09 0 4.76605e-08 0 4.4924e-08)
(4.25279e-08 -2.77117e-09 0 4.76709e-08 0 4.50702e-08)
(4.29692e-08 -2.92369e-09 0 4.77298e-08 0 4.53078e-08)
(4.35816e-08 -2.98725e-09 0 4.7693e-08 0 4.56125e-08)
(4.41288e-08 -2.99123e-09 0 4.77236e-08 0 4.58908e-08)
(4.46874e-08 -3.05355e-09 0 4.77534e-08 0 4.61873e-08)
(4.52481e-08 -3.01881e-09 0 4.77541e-08 0 4.64789e-08)
(4.5663e-08 -2.96579e-09 0 4.7808e-08 0 4.67036e-08)
(4.60364e-08 -2.90695e-09 0 4.78424e-08 0 4.69228e-08)
(4.61921e-08 -2.78606e-09 0 4.79141e-08 0 4.70361e-08)
(4.61558e-08 -2.72416e-09 0 4.79698e-08 0 4.70382e-08)
(4.59975e-08 -2.61874e-09 0 4.79822e-08 0 4.69834e-08)
(4.56331e-08 -2.54455e-09 0 4.80098e-08 0 4.67943e-08)
(4.52676e-08 -2.52141e-09 0 4.80058e-08 0 4.66277e-08)
(4.48711e-08 -2.4946e-09 0 4.80317e-08 0 4.64274e-08)
(4.45293e-08 -2.53206e-09 0 4.80535e-08 0 4.62748e-08)
(4.43008e-08 -2.58943e-09 0 4.81062e-08 0 4.61784e-08)
(4.41944e-08 -2.67658e-09 0 4.81585e-08 0 4.61544e-08)
(4.42254e-08 -2.78807e-09 0 4.82105e-08 0 4.61881e-08)
(4.44054e-08 -2.89279e-09 0 4.82188e-08 0 4.62879e-08)
(4.46987e-08 -2.99819e-09 0 4.82313e-08 0 4.64328e-08)
(4.51235e-08 -3.09325e-09 0 4.82123e-08 0 4.66414e-08)
(4.56318e-08 -3.16406e-09 0 4.81974e-08 0 4.68847e-08)
(4.62103e-08 -3.22811e-09 0 4.81762e-08 0 4.71671e-08)
(4.68434e-08 -3.27014e-09 0 4.81635e-08 0 4.74771e-08)
(4.74975e-08 -3.29474e-09 0 4.81579e-08 0 4.78003e-08)
(4.81455e-08 -3.30375e-09 0 4.81613e-08 0 4.81278e-08)
(4.87643e-08 -3.30556e-09 0 4.81807e-08 0 4.84445e-08)
(4.93438e-08 -3.30832e-09 0 4.82115e-08 0 4.87549e-08)
(4.99164e-08 -3.33259e-09 0 4.82613e-08 0 4.90575e-08)
(5.04911e-08 -3.35334e-09 0 4.83132e-08 0 4.93828e-08)
(5.10839e-08 -3.40885e-09 0 4.83974e-08 0 4.97059e-08)
(5.17345e-08 -3.46088e-09 0 4.84917e-08 0 5.0092e-08)
(5.2371e-08 -3.51644e-09 0 4.86392e-08 0 5.04768e-08)
(5.29197e-08 -3.56593e-09 0 4.8725e-08 0 5.08207e-08)
(5.31685e-08 -3.51127e-09 0 4.87491e-08 0 5.09795e-08)
(5.29913e-08 -3.46833e-09 0 4.85964e-08 0 5.08366e-08)
(5.22671e-08 -3.3399e-09 0 4.8242e-08 0 5.03228e-08)
(5.14621e-08 -2.91683e-09 0 4.76245e-08 0 4.97213e-08)
(4.74929e-08 -2.329e-09 0 4.12718e-08 0 4.43356e-08)
(4.63621e-08 -2.21604e-09 0 4.13028e-08 0 4.37825e-08)
(4.52676e-08 -2.15619e-09 0 4.13917e-08 0 4.32635e-08)
(4.4266e-08 -2.13318e-09 0 4.14594e-08 0 4.2794e-08)
(4.33202e-08 -2.14136e-09 0 4.15451e-08 0 4.23639e-08)
(4.24691e-08 -2.17093e-09 0 4.16411e-08 0 4.19868e-08)
(4.17168e-08 -2.21109e-09 0 4.17415e-08 0 4.1663e-08)
(4.10416e-08 -2.25873e-09 0 4.18583e-08 0 4.13828e-08)
(4.04507e-08 -2.30666e-09 0 4.19657e-08 0 4.11439e-08)
(3.99165e-08 -2.34366e-09 0 4.2086e-08 0 4.09391e-08)
(3.94409e-08 -2.41151e-09 0 4.22196e-08 0 4.07666e-08)
(3.905e-08 -2.45903e-09 0 4.23214e-08 0 4.06288e-08)
(3.86936e-08 -2.54341e-09 0 4.24742e-08 0 4.05219e-08)
(3.84651e-08 -2.64436e-09 0 4.25539e-08 0 4.04541e-08)
(3.83163e-08 -2.74274e-09 0 4.26432e-08 0 4.04219e-08)
(3.82894e-08 -2.88745e-09 0 4.26869e-08 0 4.04344e-08)
(3.84055e-08 -3.03059e-09 0 4.26776e-08 0 4.04881e-08)
(3.86448e-08 -3.17884e-09 0 4.26081e-08 0 4.05769e-08)
(3.90242e-08 -3.31366e-09 0 4.24684e-08 0 4.07029e-08)
(3.95104e-08 -3.44978e-09 0 4.23118e-08 0 4.08659e-08)
(4.0116e-08 -3.56069e-09 0 4.20847e-08 0 4.10595e-08)
(4.07604e-08 -3.64616e-09 0 4.18615e-08 0 4.12692e-08)
(4.14507e-08 -3.70347e-09 0 4.15952e-08 0 4.14885e-08)
(4.2132e-08 -3.74188e-09 0 4.13504e-08 0 4.17112e-08)
(4.28123e-08 -3.76619e-09 0 4.11071e-08 0 4.19366e-08)
(4.34844e-08 -3.765e-09 0 4.08844e-08 0 4.21624e-08)
(4.41481e-08 -3.73269e-09 0 4.06655e-08 0 4.23871e-08)
(4.47932e-08 -3.66454e-09 0 4.04627e-08 0 4.26109e-08)
(4.54166e-08 -3.56061e-09 0 4.02697e-08 0 4.28309e-08)
(4.59939e-08 -3.41317e-09 0 4.00998e-08 0 4.30388e-08)
(4.64588e-08 -3.21895e-09 0 3.99702e-08 0 4.32091e-08)
(4.67653e-08 -2.98315e-09 0 3.98638e-08 0 4.33148e-08)
(4.6834e-08 -2.74784e-09 0 3.98158e-08 0 4.33275e-08)
(4.66676e-08 -2.49285e-09 0 3.98029e-08 0 4.32406e-08)
(4.62488e-08 -2.23219e-09 0 3.98208e-08 0 4.30419e-08)
(4.55499e-08 -1.98484e-09 0 3.98653e-08 0 4.27168e-08)
(4.46338e-08 -1.7451e-09 0 3.99291e-08 0 4.22963e-08)
(4.35563e-08 -1.55494e-09 0 4.00549e-08 0 4.18211e-08)
(4.24272e-08 -1.41483e-09 0 4.02308e-08 0 4.13477e-08)
(4.12969e-08 -1.36346e-09 0 4.04871e-08 0 4.09065e-08)
(4.02802e-08 -1.36982e-09 0 4.07584e-08 0 4.05343e-08)
(3.93683e-08 -1.42897e-09 0 4.10686e-08 0 4.02309e-08)
(3.85984e-08 -1.56471e-09 0 4.13908e-08 0 4.00014e-08)
(3.80691e-08 -1.7033e-09 0 4.16043e-08 0 3.98499e-08)
(3.76175e-08 -1.87069e-09 0 4.18802e-08 0 3.97484e-08)
(3.73853e-08 -2.05169e-09 0 4.20109e-08 0 3.97016e-08)
(3.72473e-08 -2.24645e-09 0 4.21411e-08 0 3.96891e-08)
(3.72776e-08 -2.44721e-09 0 4.21567e-08 0 3.97132e-08)
(3.74697e-08 -2.59585e-09 0 4.20604e-08 0 3.97652e-08)
(3.7731e-08 -2.73318e-09 0 4.19634e-08 0 3.98392e-08)
(3.81396e-08 -2.77036e-09 0 4.17068e-08 0 3.99259e-08)
(3.84668e-08 -2.73626e-09 0 4.15476e-08 0 4.00058e-08)
(3.87808e-08 -2.76342e-09 0 4.14073e-08 0 4.00942e-08)
(3.91428e-08 -2.69714e-09 0 4.11951e-08 0 4.01801e-08)
(3.93682e-08 -2.60547e-09 0 4.11079e-08 0 4.02446e-08)
(3.95852e-08 -2.50826e-09 0 4.10002e-08 0 4.03089e-08)
(3.96636e-08 -2.3625e-09 0 4.09814e-08 0 4.03402e-08)
(3.95855e-08 -2.28175e-09 0 4.10692e-08 0 4.03366e-08)
(3.9519e-08 -2.1685e-09 0 4.10645e-08 0 4.03162e-08)
(3.92457e-08 -2.10049e-09 0 4.12496e-08 0 4.02542e-08)
(3.90526e-08 -2.08402e-09 0 4.13157e-08 0 4.02042e-08)
(3.87838e-08 -2.07636e-09 0 4.14933e-08 0 4.01471e-08)
(3.85868e-08 -2.12944e-09 0 4.16038e-08 0 4.01088e-08)
(3.84269e-08 -2.20807e-09 0 4.17433e-08 0 4.00915e-08)
(3.8367e-08 -2.3096e-09 0 4.18088e-08 0 4.00965e-08)
(3.83729e-08 -2.42943e-09 0 4.18667e-08 0 4.01211e-08)
(3.85036e-08 -2.5355e-09 0 4.18011e-08 0 4.01583e-08)
(3.86773e-08 -2.63711e-09 0 4.17483e-08 0 4.0212e-08)
(3.896e-08 -2.71515e-09 0 4.15878e-08 0 4.02785e-08)
(3.92736e-08 -2.76356e-09 0 4.1438e-08 0 4.03575e-08)
(3.96335e-08 -2.79904e-09 0 4.12504e-08 0 4.04469e-08)
(4.00209e-08 -2.80717e-09 0 4.10559e-08 0 4.0545e-08)
(4.04144e-08 -2.79513e-09 0 4.08718e-08 0 4.06493e-08)
(4.08049e-08 -2.76228e-09 0 4.06898e-08 0 4.07558e-08)
(4.11593e-08 -2.72871e-09 0 4.05465e-08 0 4.08601e-08)
(4.1503e-08 -2.69017e-09 0 4.04038e-08 0 4.09655e-08)
(4.17962e-08 -2.68821e-09 0 4.0329e-08 0 4.10685e-08)
(4.2149e-08 -2.66877e-09 0 4.01902e-08 0 4.1184e-08)
(4.24398e-08 -2.69151e-09 0 4.01493e-08 0 4.12979e-08)
(4.28347e-08 -2.70689e-09 0 4.00208e-08 0 4.14401e-08)
(4.31628e-08 -2.69788e-09 0 3.99693e-08 0 4.15725e-08)
(4.34457e-08 -2.63706e-09 0 3.99273e-08 0 4.16861e-08)
(4.36094e-08 -2.48301e-09 0 3.98811e-08 0 4.17369e-08)
(4.35541e-08 -2.3479e-09 0 3.98777e-08 0 4.16949e-08)
(4.32847e-08 -2.15853e-09 0 3.9881e-08 0 4.15564e-08)
(4.27441e-08 -2.09167e-09 0 4.01869e-08 0 4.13785e-08)
(4.28989e-08 -2.17649e-09 0 3.72259e-08 0 4.00105e-08)
(4.20941e-08 -2.09285e-09 0 3.74862e-08 0 3.97378e-08)
(4.1276e-08 -2.05253e-09 0 3.78315e-08 0 3.94878e-08)
(4.05927e-08 -2.06291e-09 0 3.81027e-08 0 3.92813e-08)
(3.99181e-08 -2.11096e-09 0 3.84071e-08 0 3.90962e-08)
(3.93194e-08 -2.19145e-09 0 3.86984e-08 0 3.89427e-08)
(3.88135e-08 -2.25466e-09 0 3.89575e-08 0 3.88219e-08)
(3.83221e-08 -2.34692e-09 0 3.92543e-08 0 3.8722e-08)
(3.79235e-08 -2.4266e-09 0 3.94928e-08 0 3.8644e-08)
(3.75587e-08 -2.48929e-09 0 3.97306e-08 0 3.85817e-08)
(3.71907e-08 -2.58086e-09 0 4.00034e-08 0 3.85318e-08)
(3.69476e-08 -2.65286e-09 0 4.01673e-08 0 3.84978e-08)
(3.66505e-08 -2.75425e-09 0 4.04419e-08 0 3.84806e-08)
(3.64984e-08 -2.88635e-09 0 4.05656e-08 0 3.84729e-08)
(3.63706e-08 -3.01338e-09 0 4.07295e-08 0 3.84868e-08)
(3.63635e-08 -3.17255e-09 0 4.07788e-08 0 3.8511e-08)
(3.64519e-08 -3.34408e-09 0 4.07754e-08 0 3.85528e-08)
(3.66475e-08 -3.50612e-09 0 4.06716e-08 0 3.86012e-08)
(3.69466e-08 -3.66242e-09 0 4.048e-08 0 3.86598e-08)
(3.73228e-08 -3.80149e-09 0 4.02481e-08 0 3.87303e-08)
(3.7795e-08 -3.90918e-09 0 3.99251e-08 0 3.88073e-08)
(3.82943e-08 -3.98292e-09 0 3.95959e-08 0 3.88902e-08)
(3.88493e-08 -4.03025e-09 0 3.91992e-08 0 3.89753e-08)
(3.93883e-08 -4.05377e-09 0 3.88361e-08 0 3.90658e-08)
(3.99261e-08 -4.06096e-09 0 3.84751e-08 0 3.91588e-08)
(4.04692e-08 -4.02964e-09 0 3.81308e-08 0 3.92581e-08)
(4.10088e-08 -3.976e-09 0 3.77935e-08 0 3.93611e-08)
(4.15293e-08 -3.88315e-09 0 3.74792e-08 0 3.9465e-08)
(4.20098e-08 -3.74337e-09 0 3.7194e-08 0 3.95634e-08)
(4.24547e-08 -3.54385e-09 0 3.69235e-08 0 3.96536e-08)
(4.28318e-08 -3.29535e-09 0 3.66835e-08 0 3.9726e-08)
(4.3051e-08 -3.01579e-09 0 3.65337e-08 0 3.97628e-08)
(4.30901e-08 -2.74367e-09 0 3.64707e-08 0 3.97529e-08)
(4.2946e-08 -2.46204e-09 0 3.64875e-08 0 3.9692e-08)
(4.26202e-08 -2.17905e-09 0 3.65838e-08 0 3.95799e-08)
(4.21138e-08 -1.91098e-09 0 3.67529e-08 0 3.94159e-08)
(4.1463e-08 -1.67756e-09 0 3.70014e-08 0 3.922e-08)
(4.06643e-08 -1.47615e-09 0 3.73672e-08 0 3.9005e-08)
(3.98495e-08 -1.36973e-09 0 3.77879e-08 0 3.88113e-08)
(3.90002e-08 -1.3073e-09 0 3.83033e-08 0 3.86416e-08)
(3.82561e-08 -1.35677e-09 0 3.88027e-08 0 3.85203e-08)
(3.75906e-08 -1.46575e-09 0 3.93104e-08 0 3.84402e-08)
(3.69605e-08 -1.59226e-09 0 3.98404e-08 0 3.83884e-08)
(3.65659e-08 -1.81499e-09 0 4.02014e-08 0 3.83732e-08)
(3.61819e-08 -1.99425e-09 0 4.06032e-08 0 3.83753e-08)
(3.60285e-08 -2.26051e-09 0 4.0796e-08 0 3.83954e-08)
(3.59859e-08 -2.47567e-09 0 4.09087e-08 0 3.84236e-08)
(3.59619e-08 -2.69846e-09 0 4.09959e-08 0 3.84528e-08)
(3.61801e-08 -2.90015e-09 0 4.08272e-08 0 3.84806e-08)
(3.63579e-08 -3.0343e-09 0 4.07006e-08 0 3.85038e-08)
(3.67687e-08 -3.07201e-09 0 4.03108e-08 0 3.85193e-08)
(3.70413e-08 -3.02289e-09 0 4.008e-08 0 3.8537e-08)
(3.72756e-08 -3.02538e-09 0 3.98857e-08 0 3.8558e-08)
(3.75882e-08 -2.941e-09 0 3.95901e-08 0 3.85748e-08)
(3.77634e-08 -2.82819e-09 0 3.94472e-08 0 3.85869e-08)
(3.79269e-08 -2.68343e-09 0 3.92874e-08 0 3.85963e-08)
(3.7973e-08 -2.52962e-09 0 3.92364e-08 0 3.85972e-08)
(3.78903e-08 -2.38708e-09 0 3.93152e-08 0 3.8592e-08)
(3.78307e-08 -2.29089e-09 0 3.93321e-08 0 3.85808e-08)
(3.76024e-08 -2.18922e-09 0 3.9553e-08 0 3.85676e-08)
(3.74528e-08 -2.19543e-09 0 3.9668e-08 0 3.85587e-08)
(3.72193e-08 -2.17609e-09 0 3.99144e-08 0 3.8556e-08)
(3.706e-08 -2.2671e-09 0 4.00788e-08 0 3.85625e-08)
(3.69191e-08 -2.35218e-09 0 4.02636e-08 0 3.85783e-08)
(3.68788e-08 -2.49355e-09 0 4.03461e-08 0 3.86013e-08)
(3.6872e-08 -2.61375e-09 0 4.04185e-08 0 3.86279e-08)
(3.70088e-08 -2.75828e-09 0 4.03198e-08 0 3.86515e-08)
(3.71396e-08 -2.85912e-09 0 4.02607e-08 0 3.86803e-08)
(3.74068e-08 -2.95495e-09 0 4.00299e-08 0 3.87036e-08)
(3.76599e-08 -2.99482e-09 0 3.98406e-08 0 3.87316e-08)
(3.79606e-08 -3.03034e-09 0 3.9591e-08 0 3.87601e-08)
(3.82826e-08 -3.01461e-09 0 3.93214e-08 0 3.87877e-08)
(3.85944e-08 -2.9937e-09 0 3.90776e-08 0 3.88212e-08)
(3.8919e-08 -2.94285e-09 0 3.8814e-08 0 3.88545e-08)
(3.91863e-08 -2.87257e-09 0 3.86159e-08 0 3.88877e-08)
(3.94481e-08 -2.83893e-09 0 3.84257e-08 0 3.89269e-08)
(3.9659e-08 -2.79627e-09 0 3.83042e-08 0 3.89655e-08)
(3.99138e-08 -2.78975e-09 0 3.81257e-08 0 3.9012e-08)
(4.01169e-08 -2.77631e-09 0 3.80299e-08 0 3.90566e-08)
(4.03918e-08 -2.7946e-09 0 3.78538e-08 0 3.9115e-08)
(4.06524e-08 -2.74661e-09 0 3.771e-08 0 3.91667e-08)
(4.09082e-08 -2.66169e-09 0 3.75379e-08 0 3.92083e-08)
(4.10047e-08 -2.55143e-09 0 3.74375e-08 0 3.92137e-08)
(4.09465e-08 -2.41872e-09 0 3.73907e-08 0 3.91743e-08)
(4.07017e-08 -2.23773e-09 0 3.74572e-08 0 3.90935e-08)
(4.03516e-08 -2.21643e-09 0 3.75211e-08 0 3.89794e-08)
(4.12969e-08 -2.26019e-09 0 3.58137e-08 0 3.84967e-08)
(4.05782e-08 -2.18525e-09 0 3.62147e-08 0 3.83374e-08)
(3.99088e-08 -2.12467e-09 0 3.6641e-08 0 3.8206e-08)
(3.93438e-08 -2.18245e-09 0 3.70064e-08 0 3.81056e-08)
(3.87648e-08 -2.26023e-09 0 3.74158e-08 0 3.802e-08)
(3.82443e-08 -2.3614e-09 0 3.78054e-08 0 3.79545e-08)
(3.78324e-08 -2.48842e-09 0 3.81265e-08 0 3.79129e-08)
(3.74082e-08 -2.5914e-09 0 3.84995e-08 0 3.78851e-08)
(3.70864e-08 -2.70324e-09 0 3.87921e-08 0 3.78714e-08)
(3.67828e-08 -2.81245e-09 0 3.90803e-08 0 3.78654e-08)
(3.64791e-08 -2.8814e-09 0 3.93891e-08 0 3.78647e-08)
(3.6235e-08 -3.01486e-09 0 3.96269e-08 0 3.78688e-08)
(3.59809e-08 -3.10252e-09 0 3.99351e-08 0 3.78887e-08)
(3.58641e-08 -3.29568e-09 0 4.00786e-08 0 3.7909e-08)
(3.57168e-08 -3.42317e-09 0 4.03013e-08 0 3.7942e-08)
(3.57417e-08 -3.62061e-09 0 4.03385e-08 0 3.79763e-08)
(3.58022e-08 -3.81989e-09 0 4.03683e-08 0 3.80206e-08)
(3.5996e-08 -4.00656e-09 0 4.02503e-08 0 3.80611e-08)