/*--------------------------------*- C++ -*----------------------------------*\
| =========                 |                                                 |
| \\      /  F ield         | OpenFOAM: The Open Source CFD Toolbox           |
|  \\    /   O peration     | Version:  v1912                                 |
|   \\  /    A nd           | Website:  www.openfoam.com                      |
|    \\/     M anipulation  |                                                 |
\*---------------------------------------------------------------------------*/
FoamFile
{
    version     2.0;
    format      ascii;
    class       volVectorField;
    location    "70";
    object      U;
}
// * * * * * * * * * * * * * * * * * * * * * * * * * * * * * * * * * * * * * //

dimensions      [0 1 -1 0 0 0 0];


internalField   nonuniform List<vector> 
14268
(
(0.807904 0.0281925 0)
(0.662782 0.0307366 0)
(0.507433 0.0323445 0)
(0.345587 0.0329347 0)
(0.182558 0.0325997 0)
(0.0221342 0.0314529 0)
(-0.131673 0.0296296 0)
(-0.275812 0.0273194 0)
(-0.408278 0.0246422 0)
(-0.5274 0.0216833 0)
(-0.631453 0.0184626 0)
(-0.71921 0.0150563 0)
(-0.788878 0.0113596 0)
(-0.839045 0.00753437 0)
(-0.868628 0.00352561 0)
(-0.87643 -0.000730036 0)
(-0.861883 -0.0047922 0)
(-0.825993 -0.00870969 0)
(-0.769987 -0.0123861 0)
(-0.694843 -0.0157917 0)
(-0.602541 -0.0188376 0)
(-0.494564 -0.0215643 0)
(-0.372993 -0.0238573 0)
(-0.240401 -0.0257374 0)
(-0.0987064 -0.0270288 0)
(0.0508093 -0.027668 0)
(0.20235 -0.0274998 0)
(0.350453 -0.0264391 0)
(0.490173 -0.0243678 0)
(0.615947 -0.0212551 0)
(0.722299 -0.0171455 0)
(0.804277 -0.0121562 0)
(0.858064 -0.00645651 0)
(0.880269 -0.000270875 0)
(0.870644 0.00613925 0)
(0.827847 0.0125206 0)
(0.752612 0.0184578 0)
(0.64842 0.023471 0)
(0.52025 0.0273572 0)
(0.374895 0.0298527 0)
(0.21979 0.0308596 0)
(0.0621658 0.0303128 0)
(-0.0901142 0.0282091 0)
(-0.228112 0.0248547 0)
(-0.345028 0.0204924 0)
(-0.437214 0.0155489 0)
(-0.502791 0.0103529 0)
(-0.54134 0.00541055 0)
(-0.555383 0.000920629 0)
(-0.547401 -0.00260811 0)
(-0.524111 -0.00499812 0)
(-0.491307 -0.00628088 0)
(-0.454985 -0.00637195 0)
(-0.42188 -0.00537958 0)
(-0.39633 -0.00366932 0)
(-0.381532 -0.00133978 0)
(-0.380134 0.00116214 0)
(-0.390886 0.0034098 0)
(-0.413203 0.0052199 0)
(-0.442692 0.00616972 0)
(-0.475147 0.00633829 0)
(-0.505812 0.00550254 0)
(-0.52896 0.00380853 0)
(-0.541108 0.00133269 0)
(-0.537985 -0.00170569 0)
(-0.517707 -0.00502793 0)
(-0.479656 -0.00836622 0)
(-0.424142 -0.0115248 0)
(-0.353173 -0.014198 0)
(-0.269683 -0.0163101 0)
(-0.176986 -0.0177212 0)
(-0.0789664 -0.0184226 0)
(0.0219999 -0.0184739 0)
(0.121213 -0.0179573 0)
(0.216205 -0.0170363 0)
(0.305422 -0.0158514 0)
(0.388102 -0.0145261 0)
(0.463544 -0.0131229 0)
(0.531797 -0.011772 0)
(0.592734 -0.0102773 0)
(0.64603 -0.00858415 0)
(0.691669 -0.00692899 0)
(0.728101 -0.00445134 0)
(0.755236 -0.00346359 0)
(0.776445 -0.00341059 0)
(0.779104 -0.00903783 0)
(0.810613 0.077747 0)
(0.664868 0.0853843 0)
(0.508842 0.0904471 0)
(0.346278 0.0927079 0)
(0.182571 0.0923724 0)
(0.0215329 0.0897311 0)
(-0.13279 0.085159 0)
(-0.277344 0.0791219 0)
(-0.410159 0.07194 0)
(-0.529588 0.0638255 0)
(-0.63393 0.0548007 0)
(-0.721962 0.045062 0)
(-0.791883 0.0342869 0)
(-0.842254 0.02296 0)
(-0.871977 0.010929 0)
(-0.879812 -0.00193814 0)
(-0.8652 -0.0143266 0)
(-0.829176 -0.0263292 0)
(-0.772968 -0.0376358 0)
(-0.697572 -0.0481457 0)
(-0.605007 -0.0576123 0)
(-0.496705 -0.0661567 0)
(-0.374779 -0.0734151 0)
(-0.241748 -0.0794071 0)
(-0.0995117 -0.0836469 0)
(0.0506182 -0.0858819 0)
(0.202847 -0.0856013 0)
(0.351697 -0.0825564 0)
(0.492201 -0.0764153 0)
(0.61875 -0.0671181 0)
(0.725811 -0.0548056 0)
(0.808379 -0.0398575 0)
(0.862599 -0.0228483 0)
(0.885154 -0.0044547 0)
(0.875609 0.0136731 0)
(0.832542 0.0323804 0)
(0.756852 0.0499048 0)
(0.651966 0.0651408 0)
(0.522881 0.0771293 0)
(0.376465 0.0851786 0)
(0.220213 0.0888133 0)
(0.0613964 0.0877712 0)
(-0.0919829 0.0820536 0)
(-0.230878 0.072468 0)
(-0.348452 0.0597477 0)
(-0.441005 0.0451249 0)
(-0.506629 0.0297206 0)
(-0.5449 0.0149513 0)
(-0.558393 0.0014462 0)
(-0.549669 -0.00919083 0)
(-0.525535 -0.0163596 0)
(-0.491839 -0.0202003 0)
(-0.454674 -0.0204571 0)
(-0.420859 -0.0174426 0)
(-0.394808 -0.0122408 0)
(-0.379747 -0.00524455 0)
(-0.37835 0.00216598 0)
(-0.389371 0.00888919 0)
(-0.412149 0.014324 0)
(-0.442261 0.0172374 0)
(-0.475408 0.0177309 0)
(-0.506772 0.0152434 0)
(-0.530543 0.0101461 0)
(-0.543176 0.00265821 0)
(-0.540391 -0.00665504 0)
(-0.520241 -0.0167297 0)
(-0.482127 -0.0268285 0)
(-0.426365 -0.0363604 0)
(-0.355008 -0.0444227 0)
(-0.271033 -0.0507691 0)
(-0.177806 -0.0549965 0)
(-0.0792676 -0.0571132 0)
(0.0221617 -0.0572781 0)
(0.121739 -0.0557307 0)
(0.21698 -0.0529761 0)
(0.306348 -0.0494294 0)
(0.389099 -0.0454653 0)
(0.464551 -0.0412414 0)
(0.532763 -0.0371737 0)
(0.593659 -0.0329014 0)
(0.647365 -0.0289208 0)
(0.694249 -0.0242697 0)
(0.7338 -0.0197775 0)
(0.765987 -0.0150029 0)
(0.78884 -0.00653351 0)
(0.789701 0.00499633 0)
(0.815163 0.132226 0)
(0.668016 0.144833 0)
(0.51057 0.153015 0)
(0.346614 0.156442 0)
(0.18166 0.155486 0)
(0.0195525 0.150666 0)
(-0.13563 0.142706 0)
(-0.280849 0.132348 0)
(-0.414202 0.120139 0)
(-0.534091 0.106433 0)
(-0.638866 0.0912608 0)
(-0.727327 0.0749611 0)
(-0.797656 0.0569751 0)
(-0.848348 0.0381211 0)
(-0.878297 0.0181206 0)
(-0.886179 -0.00325671 0)
(-0.871444 -0.0237761 0)
(-0.835137 -0.043641 0)
(-0.778552 -0.0623389 0)
(-0.702694 -0.0796932 0)
(-0.609631 -0.0952979 0)
(-0.500742 -0.109357 0)
(-0.378133 -0.121269 0)
(-0.244287 -0.131107 0)
(-0.101025 -0.138072 0)
(0.050318 -0.141773 0)
(0.203937 -0.14131 0)
(0.35429 -0.136243 0)
(0.496352 -0.126005 0)
(0.62443 -0.110491 0)
(0.732886 -0.0899092 0)
(0.816617 -0.064909 0)
(0.871676 -0.036399 0)
(0.894505 -0.005552 0)
(0.884921 0.0249967 0)
(0.841566 0.0562578 0)
(0.765001 0.0855655 0)
(0.658762 0.110865 0)
(0.527912 0.130764 0)
(0.379402 0.144029 0)
(0.220875 0.149956 0)
(0.0597179 0.148073 0)
(-0.0958387 0.138363 0)
(-0.236506 0.122185 0)
(-0.355367 0.100781 0)
(-0.448584 0.0762333 0)
(-0.514258 0.0502901 0)
(-0.551957 0.0254378 0)
(-0.56435 0.00275888 0)
(-0.554111 -0.0150254 0)
(-0.528254 -0.0270495 0)
(-0.492768 -0.0334634 0)
(-0.453911 -0.0338331 0)
(-0.41867 -0.0287271 0)
(-0.39163 -0.0199454 0)
(-0.376092 -0.00810086 0)
(-0.374715 0.00446346 0)
(-0.386247 0.0158467 0)
(-0.409952 0.0250402 0)
(-0.441322 0.0299645 0)
(-0.475871 0.0308308 0)
(-0.508654 0.0266691 0)
(-0.533682 0.0181099 0)
(-0.547335 0.00558746 0)
(-0.545248 -0.010006 0)
(-0.525316 -0.0268824 0)
(-0.487052 -0.0438089 0)
(-0.430779 -0.0597843 0)
(-0.358624 -0.0732875 0)
(-0.273664 -0.0839112 0)
(-0.179369 -0.0909704 0)
(-0.0797911 -0.094462 0)
(0.022566 -0.0946746 0)
(0.122873 -0.0920174 0)
(0.218615 -0.087337 0)
(0.30829 -0.0813528 0)
(0.391204 -0.0746834 0)
(0.466711 -0.0676048 0)
(0.534924 -0.0608157 0)
(0.595839 -0.053712 0)
(0.649351 -0.0468954 0)
(0.696107 -0.0397909 0)
(0.734964 -0.0318094 0)
(0.765299 -0.0240741 0)
(0.787571 -0.0133893 0)
(0.798086 -0.00434997 0)
(0.82227 0.184713 0)
(0.673033 0.202574 0)
(0.513425 0.214236 0)
(0.347302 0.219146 0)
(0.180393 0.217806 0)
(0.016631 0.211045 0)
(-0.139852 0.19995 0)
(-0.286079 0.185508 0)
(-0.420248 0.168485 0)
(-0.540847 0.149367 0)
(-0.646304 0.128176 0)
(-0.735445 0.105379 0)
(-0.80643 0.0801456 0)
(-0.857664 0.0536312 0)
(-0.887987 0.0254755 0)
(-0.895953 -0.00471067 0)
(-0.881014 -0.0336616 0)
(-0.844294 -0.0616887 0)
(-0.787129 -0.0880502 0)
(-0.710553 -0.112508 0)
(-0.616714 -0.134518 0)
(-0.506935 -0.154388 0)
(-0.383287 -0.171244 0)
(-0.248239 -0.185186 0)
(-0.103473 -0.195125 0)
(0.0496348 -0.200491 0)
(0.205306 -0.199996 0)
(0.357925 -0.193001 0)
(0.502388 -0.178688 0)
(0.632817 -0.15692 0)
(0.743427 -0.127992 0)
(0.828935 -0.0927871 0)
(0.885311 -0.0526367 0)
(0.909002 -0.00913838 0)
(0.899498 0.0342443 0)
(0.855373 0.0785734 0)
(0.777403 0.120095 0)
(0.669015 0.156001 0)
(0.535379 0.184178 0)
(0.38369 0.202942 0)
(0.221716 0.211221 0)
(0.0570103 0.20843 0)
(-0.10181 0.194576 0)
(-0.245116 0.171544 0)
(-0.365887 0.141116 0)
(-0.460141 0.106229 0)
(-0.52592 0.0695457 0)
(-0.56274 0.0343921 0)
(-0.573381 0.00232428 0)
(-0.560921 -0.022795 0)
(-0.532468 -0.0396939 0)
(-0.494248 -0.0486304 0)
(-0.452821 -0.0490288 0)
(-0.415428 -0.0416124 0)
(-0.386865 -0.028955 0)
(-0.370552 -0.0120434 0)
(-0.369187 0.0058369 0)
(-0.381544 0.0220681 0)
(-0.406683 0.0351623 0)
(-0.439972 0.0422195 0)
(-0.476644 0.0434611 0)
(-0.511568 0.0375882 0)
(-0.5385 0.0254425 0)
(-0.553626 0.0077481 0)
(-0.552577 -0.0143985 0)
(-0.53302 -0.0383124 0)
(-0.494554 -0.0622763 0)
(-0.43752 -0.0848751 0)
(-0.364157 -0.103957 0)
(-0.277708 -0.118923 0)
(-0.181788 -0.128829 0)
(-0.0806261 -0.133678 0)
(0.0231413 -0.13389 0)
(0.12455 -0.130042 0)
(0.221049 -0.123349 0)
(0.311178 -0.114858 0)
(0.394313 -0.105435 0)
(0.469872 -0.0954639 0)
(0.538082 -0.085959 0)
(0.599028 -0.0760362 0)
(0.652826 -0.0667754 0)
(0.699851 -0.0567313 0)
(0.739341 -0.0460257 0)
(0.771096 -0.0349223 0)
(0.794901 -0.020038 0)
(0.805514 -0.0010517 0)
(0.831481 0.239275 0)
(0.679449 0.262197 0)
(0.516961 0.276986 0)
(0.347956 0.282883 0)
(0.178493 0.280787 0)
(0.0126152 0.27187 0)
(-0.14554 0.257467 0)
(-0.293069 0.238833 0)
(-0.428289 0.216904 0)
(-0.549796 0.192315 0)
(-0.656132 0.165075 0)
(-0.746156 0.135819 0)
(-0.818005 0.103378 0)
(-0.869942 0.0692918 0)
(-0.900768 0.0330459 0)
(-0.908859 -0.00587931 0)
(-0.893662 -0.0431626 0)
(-0.85641 -0.079245 0)
(-0.798473 -0.113174 0)
(-0.720974 -0.144635 0)
(-0.626146 -0.172932 0)
(-0.51522 -0.198529 0)
(-0.39021 -0.220287 0)
(-0.25357 -0.238361 0)
(-0.106782 -0.251332 0)
(0.0487259 -0.258433 0)
(0.207185 -0.257954 0)
(0.362857 -0.249101 0)
(0.510516 -0.230733 0)
(0.64409 -0.202698 0)
(0.757595 -0.165299 0)
(0.845512 -0.119775 0)
(0.903648 -0.0677695 0)
(0.928213 -0.0114189 0)
(0.918787 0.0444333 0)
(0.873918 0.101842 0)
(0.794119 0.155801 0)
(0.682917 0.202471 0)
(0.545625 0.239144 0)
(0.389606 0.263577 0)
(0.222946 0.274425 0)
(0.0534428 0.27082 0)
(-0.109828 0.252802 0)
(-0.256761 0.222765 0)
(-0.380151 0.18313 0)
(-0.475755 0.137733 0)
(-0.5416 0.0898297 0)
(-0.577277 0.0437436 0)
(-0.585545 0.00210283 0)
(-0.570057 -0.0304969 0)
(-0.538044 -0.0524744 0)
(-0.496142 -0.0640185 0)
(-0.451243 -0.0643043 0)
(-0.410903 -0.0544529 0)
(-0.380304 -0.037738 0)
(-0.363037 -0.0153898 0)
(-0.361706 0.0082186 0)
(-0.375136 0.0296523 0)
(-0.402197 0.0469357 0)
(-0.438075 0.0562865 0)
(-0.477639 0.0579913 0)
(-0.515476 0.0503785 0)
(-0.545001 0.0344964 0)
(-0.562173 0.0114913 0)
(-0.562547 -0.0174821 0)
(-0.543446 -0.0486777 0)
(-0.504668 -0.0799247 0)
(-0.446569 -0.10936 0)
(-0.371558 -0.134166 0)
(-0.28308 -0.153564 0)
(-0.184965 -0.166334 0)
(-0.0816695 -0.172474 0)
(0.0239927 -0.172562 0)
(0.126884 -0.167375 0)
(0.224386 -0.158499 0)
(0.315106 -0.14737 0)
(0.398527 -0.135085 0)
(0.474148 -0.122166 0)
(0.542313 -0.109937 0)
(0.603274 -0.0972583 0)
(0.657133 -0.0853501 0)
(0.704336 -0.0727537 0)
(0.74409 -0.0590358 0)
(0.776027 -0.0447295 0)
(0.799629 -0.0272079 0)
(0.813981 -0.00836628 0)
(0.843133 0.294489 0)
(0.687503 0.32271 0)
(0.521272 0.340666 0)
(0.348616 0.347522 0)
(0.176015 0.344711 0)
(0.00753191 0.333537 0)
(-0.152688 0.315677 0)
(-0.301825 0.292757 0)
(-0.43835 0.265913 0)
(-0.560989 0.235848 0)
(-0.668435 0.202543 0)
(-0.759581 0.166776 0)
(-0.832546 0.126977 0)
(-0.885402 0.0850964 0)
(-0.91689 0.0404927 0)
(-0.925145 -0.0075097 0)
(-0.909613 -0.0534189 0)
(-0.87167 -0.0978166 0)
(-0.812749 -0.139493 0)
(-0.734056 -0.178074 0)
(-0.637977 -0.212776 0)
(-0.525603 -0.244226 0)
(-0.398918 -0.270985 0)
(-0.260325 -0.293275 0)
(-0.11105 -0.309436 0)
(0.0474203 -0.318446 0)
(0.209342 -0.318153 0)
(0.368854 -0.307536 0)
(0.520588 -0.285128 0)
(0.658177 -0.250765 0)
(0.775376 -0.204749 0)
(0.866373 -0.148601 0)
(0.926755 -0.0843639 0)
(0.952551 -0.0146679 0)
(0.94325 0.054624 0)
(0.89733 0.125608 0)
(0.815197 0.192442 0)
(0.70043 0.250269 0)
(0.5585 0.295723 0)
(0.397028 0.326028 0)
(0.224375 0.339399 0)
(0.0487773 0.334799 0)
(-0.120117 0.312254 0)
(-0.271597 0.274672 0)
(-0.398263 0.225097 0)
(-0.495613 0.168314 0)
(-0.561579 0.108768 0)
(-0.595787 0.0513683 0)
(-0.600924 -0.000233014 0)
(-0.581624 -0.0407472 0)
(-0.545136 -0.0678206 0)
(-0.498513 -0.0817755 0)
(-0.449195 -0.0818237 0)
(-0.405166 -0.0690909 0)
(-0.371931 -0.0476608 0)
(-0.353325 -0.0194457 0)
(-0.352025 0.0102459 0)
(-0.366898 0.0372621 0)
(-0.396464 0.0589778 0)
(-0.43566 0.0708276 0)
(-0.47893 0.0730138 0)
(-0.520476 0.0636075 0)
(-0.553308 0.0437882 0)
(-0.573003 0.0152545 0)
(-0.575169 -0.0208934 0)
(-0.556691 -0.0597295 0)
(-0.517527 -0.0985919 0)
(-0.458085 -0.135155 0)
(-0.380961 -0.16592 0)
(-0.2899 -0.189869 0)
(-0.188976 -0.205545 0)
(-0.0829457 -0.212916 0)
(0.0251231 -0.212753 0)
(0.129887 -0.206051 0)
(0.228647 -0.194771 0)
(0.32008 -0.180843 0)
(0.403823 -0.165558 0)
(0.479472 -0.149609 0)
(0.547545 -0.134659 0)
(0.608429 -0.119239 0)
(0.66238 -0.104867 0)
(0.709859 -0.0896111 0)
(0.750081 -0.0731524 0)
(0.782776 -0.0559675 0)
(0.80783 -0.0352338 0)
(0.823188 -0.0104023 0)
(0.857111 0.351304 0)
(0.697077 0.384796 0)
(0.526293 0.405787 0)
(0.34927 0.413619 0)
(0.172879 0.409956 0)
(0.00122859 0.396217 0)
(-0.161424 0.374588 0)
(-0.312414 0.347134 0)
(-0.450448 0.31526 0)
(-0.574402 0.279694 0)
(-0.683164 0.240329 0)
(-0.775666 0.198129 0)
(-0.850003 0.151033 0)
(-0.903995 0.101416 0)
(-0.936295 0.0485119 0)
(-0.944767 -0.0086497 0)
(-0.928825 -0.0632191 0)
(-0.890033 -0.115968 0)
(-0.829909 -0.165467 0)
(-0.749786 -0.211235 0)
(-0.652236 -0.252385 0)
(-0.538176 -0.289817 0)
(-0.409489 -0.321765 0)
(-0.268569 -0.348556 0)
(-0.116287 -0.368184 0)
(0.0457572 -0.379319 0)
(0.211914 -0.379392 0)
(0.376124 -0.367197 0)
(0.532797 -0.340763 0)
(0.675237 -0.300001 0)
(0.796924 -0.245136 0)
(0.891645 -0.178137 0)
(0.95479 -0.101314 0)
(0.982124 -0.0179208 0)
(0.972951 0.0650571 0)
(0.925799 0.150045 0)
(0.840921 0.230283 0)
(0.721838 0.299768 0)
(0.57428 0.354439 0)
(0.406159 0.390938 0)
(0.226255 0.407054 0)
(0.0431292 0.401435 0)
(-0.132718 0.374207 0)
(-0.289844 0.328755 0)
(-0.420548 0.268938 0)
(-0.519958 0.200549 0)
(-0.585941 0.12856 0)
(-0.618441 0.0587822 0)
(-0.619798 -0.0030417 0)
(-0.595735 -0.051611 0)
(-0.553618 -0.0841385 0)
(-0.501189 -0.100799 0)
(-0.446471 -0.100323 0)
(-0.397781 -0.0845243 0)
(-0.361357 -0.05828 0)
(-0.341348 -0.0235872 0)
(-0.34011 0.0128938 0)
(-0.356708 0.0460605 0)
(-0.38934 0.0727486 0)
(-0.432604 0.08738 0)
(-0.480436 0.0901891 0)
(-0.526549 0.0788969 0)
(-0.563461 0.0548718 0)
(-0.586302 0.0205251 0)
(-0.590656 -0.0232938 0)
(-0.572902 -0.0702434 0)
(-0.533221 -0.117153 0)
(-0.472095 -0.161216 0)
(-0.392359 -0.198198 0)
(-0.298095 -0.226849 0)
(-0.193723 -0.24545 0)
(-0.084346 -0.253962 0)
(0.0266713 -0.253373 0)
(0.133709 -0.244926 0)
(0.233972 -0.230977 0)
(0.326217 -0.214079 0)
(0.410311 -0.195665 0)
(0.485954 -0.176597 0)
(0.553858 -0.158902 0)
(0.614661 -0.140782 0)
(0.668727 -0.123959 0)
(0.716548 -0.106206 0)
(0.757294 -0.086879 0)
(0.790581 -0.0665818 0)
(0.816074 -0.0429895 0)
(0.832812 -0.0165131 0)
(0.873556 0.409808 0)
(0.708236 0.448713 0)
(0.532049 0.472783 0)
(0.349871 0.481541 0)
(0.168986 0.476731 0)
(-0.0063768 0.460129 0)
(-0.171825 0.434439 0)
(-0.324882 0.402233 0)
(-0.464597 0.365223 0)
(-0.590042 0.324143 0)
(-0.700333 0.278702 0)
(-0.794419 0.230033 0)
(-0.870401 0.175443 0)
(-0.925772 0.117853 0)
(-0.959064 0.0562965 0)
(-0.967831 -0.010408 0)
(-0.951383 -0.0739497 0)
(-0.911597 -0.135308 0)
(-0.850051 -0.192737 0)
(-0.768247 -0.24571 0)
(-0.668975 -0.293302 0)
(-0.552965 -0.336735 0)
(-0.421982 -0.373904 0)
(-0.278415 -0.405205 0)
(-0.122644 -0.428498 0)
(0.0436035 -0.442001 0)
(0.214734 -0.442621 0)
(0.384481 -0.42892 0)
(0.547051 -0.398507 0)
(0.695316 -0.351362 0)
(0.822398 -0.287474 0)
(0.921587 -0.209251 0)
(0.988058 -0.119421 0)
(1.01721 -0.0216899 0)
(1.0082 0.0756261 0)
(0.959572 0.17524 0)
(0.871412 0.269642 0)
(0.74729 0.351373 0)
(0.592996 0.415755 0)
(0.416957 0.458788 0)
(0.228354 0.477747 0)
(0.036333 0.471019 0)
(-0.147823 0.438625 0)
(-0.311666 0.384523 0)
(-0.447137 0.313386 0)
(-0.549094 0.232002 0)
(-0.615049 0.14702 0)
(-0.645398 0.0642891 0)
(-0.642195 -0.00848081 0)
(-0.612503 -0.0658249 0)
(-0.563679 -0.103809 0)
(-0.504229 -0.122641 0)
(-0.443 -0.121499 0)
(-0.388962 -0.102028 0)
(-0.348642 -0.0696142 0)
(-0.326659 -0.0278194 0)
(-0.325504 0.0158561 0)
(-0.344275 0.0557891 0)
(-0.380675 0.0876495 0)
(-0.428893 0.105316 0)
(-0.482269 0.108792 0)
(-0.533875 0.0955646 0)
(-0.575664 0.0670633 0)
(-0.602188 0.0265236 0)
(-0.609135 -0.0253951 0)
(-0.592274 -0.0810028 0)
(-0.551953 -0.136445 0)
(-0.488791 -0.188429 0)
(-0.405886 -0.231961 0)
(-0.307757 -0.26548 0)
(-0.199235 -0.287055 0)
(-0.0858217 -0.296586 0)
(0.0287056 -0.295335 0)
(0.13844 -0.284856 0)
(0.240456 -0.267859 0)
(0.333579 -0.24774 0)
(0.418023 -0.225964 0)
(0.493582 -0.203661 0)
(0.561231 -0.183225 0)
(0.621864 -0.162474 0)
(0.67601 -0.143321 0)
(0.724179 -0.123138 0)
(0.76552 -0.101166 0)
(0.799648 -0.0781796 0)
(0.82617 -0.0517459 0)
(0.844002 -0.0216687 0)
(0.89251 0.470381 0)
(0.720984 0.514832 0)
(0.538488 0.541999 0)
(0.350306 0.551482 0)
(0.164198 0.545208 0)
(-0.0154279 0.525376 0)
(-0.184019 0.495273 0)
(-0.33932 0.458046 0)
(-0.480835 0.415756 0)
(-0.607914 0.369136 0)
(-0.719946 0.31767 0)
(-0.815897 0.262606 0)
(-0.893844 0.200606 0)
(-0.950881 0.135027 0)
(-0.985336 0.0648903 0)
(-0.994451 -0.0115642 0)
(-0.9774 -0.0841924 0)
(-0.9364 -0.154255 0)
(-0.873165 -0.219806 0)
(-0.78939 -0.280115 0)
(-0.688168 -0.334291 0)
(-0.570003 -0.383989 0)
(-0.436447 -0.42666 0)
(-0.289906 -0.462931 0)
(-0.13016 -0.490259 0)
(0.0408918 -0.506393 0)
(0.217797 -0.507911 0)
(0.394014 -0.493012 0)
(0.563399 -0.458577 0)
(0.718347 -0.404873 0)
(0.851669 -0.331594 0)
(0.956098 -0.24183 0)
(1.02646 -0.138356 0)
(1.05779 -0.0257149 0)
(1.049 0.0868198 0)
(0.998757 0.201515 0)
(0.906974 0.31063 0)
(0.777119 0.405319 0)
(0.615073 0.480016 0)
(0.429613 0.530035 0)
(0.230863 0.55203 0)
(0.0282621 0.544028 0)
(-0.165675 0.506173 0)
(-0.337415 0.442862 0)
(-0.478491 0.359896 0)
(-0.583408 0.265276 0)
(-0.649147 0.166127 0)
(-0.677055 0.0687542 0)
(-0.668834 -0.0151096 0)
(-0.632195 -0.0813762 0)
(-0.575216 -0.125397 0)
(-0.50748 -0.147013 0)
(-0.438595 -0.14471 0)
(-0.377917 -0.121118 0)
(-0.3331 -0.0828965 0)
(-0.309377 -0.033106 0)
(-0.308324 0.0190681 0)
(-0.329667 0.0664354 0)
(-0.370499 0.104584 0)
(-0.424475 0.125735 0)
(-0.484394 0.130078 0)
(-0.542491 0.114704 0)
(-0.590079 0.081317 0)
(-0.620911 0.0341751 0)
(-0.630886 -0.026599 0)
(-0.615063 -0.0915298 0)
(-0.573914 -0.156128 0)
(-0.508296 -0.21655 0)
(-0.42161 -0.26703 0)
(-0.318886 -0.305627 0)
(-0.205454 -0.330236 0)
(-0.0872898 -0.340673 0)
(0.0313782 -0.338496 0)
(0.144252 -0.325652 0)
(0.248277 -0.305207 0)
(0.342324 -0.281659 0)
(0.427102 -0.256331 0)
(0.502466 -0.230658 0)
(0.56968 -0.20745 0)
(0.630028 -0.184126 0)
(0.684226 -0.162737 0)
(0.732854 -0.140242 0)
(0.774963 -0.115659 0)
(0.810021 -0.0896693 0)
(0.837379 -0.060267 0)
(0.85623 -0.0275763 0)
(0.914068 0.533364 0)
(0.735346 0.583514 0)
(0.545564 0.613762 0)
(0.350474 0.623725 0)
(0.158371 0.615611 0)
(-0.0260397 0.592121 0)
(-0.198121 0.557184 0)
(-0.355808 0.514631 0)
(-0.499194 0.466935 0)
(-0.627983 0.414798 0)
(-0.741969 0.357285 0)
(-0.840013 0.295852 0)
(-0.920243 0.226125 0)
(-0.979218 0.152365 0)
(-1.01504 0.0732661 0)
(-1.02462 -0.0134569 0)
(-1.00687 -0.0955951 0)
(-0.964502 -0.174757 0)
(-0.89938 -0.248537 0)
(-0.813399 -0.316241 0)
(-0.710024 -0.376876 0)
(-0.589502 -0.432773 0)
(-0.453105 -0.481026 0)
(-0.303299 -0.522213 0)
(-0.139053 -0.553936 0)
(0.0374869 -0.573099 0)
(0.220975 -0.575754 0)
(0.404587 -0.559698 0)
(0.581884 -0.521305 0)
(0.744667 -0.461117 0)
(0.885336 -0.378141 0)
(0.995916 -0.276316 0)
(1.07085 -0.158573 0)
(1.10482 -0.0303061 0)
(1.09635 0.0977491 0)
(1.04413 0.228462 0)
(0.947911 0.353565 0)
(0.81146 0.461999 0)
(0.640409 0.547823 0)
(0.444347 0.605363 0)
(0.233663 0.630641 0)
(0.0189647 0.6214 0)
(-0.186539 0.577516 0)
(-0.367502 0.503979 0)
(-0.514926 0.407825 0)
(-0.623063 0.298061 0)
(-0.688819 0.183396 0)
(-0.713347 0.0718468 0)
(-0.699496 -0.0251086 0)
(-0.654743 -0.101304 0)
(-0.588542 -0.151222 0)
(-0.511117 -0.174729 0)
(-0.433202 -0.171113 0)
(-0.365247 -0.142832 0)
(-0.315095 -0.0962223 0)
(-0.288578 -0.03749 0)
(-0.287786 0.0232313 0)
(-0.312154 0.079355 0)
(-0.358358 0.123429 0)
(-0.41929 0.148451 0)
(-0.486985 0.153653 0)
(-0.552686 0.136119 0)
(-0.606982 0.0974849 0)
(-0.642818 0.0429836 0)
(-0.656115 -0.0269015 0)
(-0.641535 -0.102162 0)
(-0.599377 -0.176578 0)
(-0.530851 -0.246046 0)
(-0.439696 -0.303933 0)
(-0.331546 -0.347829 0)
(-0.212374 -0.375421 0)
(-0.0886349 -0.386566 0)
(0.0348661 -0.38312 0)
(0.151375 -0.367483 0)
(0.257671 -0.343023 0)
(0.352578 -0.315656 0)
(0.437606 -0.286489 0)
(0.512614 -0.257246 0)
(0.579216 -0.23131 0)
(0.639134 -0.205591 0)
(0.693341 -0.182175 0)
(0.742505 -0.157584 0)
(0.785542 -0.13059 0)
(0.821741 -0.101887 0)
(0.849974 -0.0697871 0)
(0.869768 -0.034292 0)
(0.93831 0.599058 0)
(0.751342 0.655145 0)
(0.553215 0.68845 0)
(0.350232 0.698608 0)
(0.151352 0.688213 0)
(-0.038367 0.660531 0)
(-0.214272 0.620291 0)
(-0.374405 0.572093 0)
(-0.519707 0.518829 0)
(-0.650274 0.461219 0)
(-0.766444 0.397784 0)
(-0.866947 0.330003 0)
(-0.949831 0.252778 0)
(-1.01112 0.170725 0)
(-1.04853 0.0826966 0)
(-1.05869 -0.0145603 0)
(-1.0401 -0.106322 0)
(-0.996058 -0.194625 0)
(-0.928626 -0.276879 0)
(-0.840105 -0.351975 0)
(-0.734352 -0.41927 0)
(-0.611286 -0.481753 0)
(-0.471933 -0.535882 0)
(-0.318657 -0.58272 0)
(-0.149481 -0.619367 0)
(0.0330724 -0.641962 0)
(0.223979 -0.646196 0)
(0.415969 -0.629675 0)
(0.602258 -0.587427 0)
(0.773811 -0.52073 0)
(0.922795 -0.427824 0)
(1.04037 -0.313647 0)
(1.12049 -0.180979 0)
(1.15737 -0.0362125 0)
(1.14922 0.10983 0)
(1.0952 0.257 0)
(0.994512 0.39854 0)
(0.850126 0.521863 0)
(0.669005 0.619595 0)
(0.460607 0.685284 0)
(0.236583 0.714051 0)
(0.00766345 0.7032 0)
(-0.210864 0.652725 0)
(-0.40265 0.567866 0)
(-0.557309 0.457792 0)
(-0.668516 0.332695 0)
(-0.734953 0.200354 0)
(-0.755287 0.0732979 0)
(-0.734798 -0.0370357 0)
(-0.680704 -0.123506 0)
(-0.603621 -0.180172 0)
(-0.514967 -0.206402 0)
(-0.426974 -0.200618 0)
(-0.34991 -0.166784 0)
(-0.293577 -0.112939 0)
(-0.264994 -0.0442787 0)
(-0.264189 0.0275394 0)
(-0.292419 0.0923521 0)
(-0.344715 0.144975 0)
(-0.413412 0.174277 0)
(-0.490045 0.180753 0)
(-0.564513 0.160636 0)
(-0.626515 0.116198 0)
(-0.668216 0.0535918 0)
(-0.685247 -0.0261214 0)
(-0.671962 -0.112645 0)
(-0.628564 -0.197749 0)
(-0.556603 -0.276955 0)
(-0.460218 -0.342782 0)
(-0.345751 -0.392257 0)
(-0.219897 -0.42308 0)
(-0.0897465 -0.434826 0)
(0.0392062 -0.429729 0)
(0.159896 -0.410867 0)
(0.268725 -0.381834 0)
(0.364422 -0.350341 0)
(0.449549 -0.317015 0)
(0.524 -0.284035 0)
(0.589676 -0.255266 0)
(0.648986 -0.22719 0)
(0.703125 -0.201833 0)
(0.75296 -0.175156 0)
(0.797149 -0.145772 0)
(0.834573 -0.113894 0)
(0.86364 -0.0787157 0)
(0.884399 -0.0403606 0)
(0.965373 0.668192 0)
(0.768996 0.730239 0)
(0.561329 0.766515 0)
(0.349399 0.776515 0)
(0.142824 0.763229 0)
(-0.0526168 0.730706 0)
(-0.232715 0.684527 0)
(-0.395319 0.630193 0)
(-0.542444 0.571218 0)
(-0.674801 0.508093 0)
(-0.793334 0.43886 0)
(-0.896563 0.364789 0)
(-0.982469 0.279811 0)
(-1.04644 0.189339 0)
(-1.08564 0.091736 0)
(-1.09649 -0.016698 0)
(-1.07699 -0.118649 0)
(-1.03103 -0.2167 0)
(-0.961139 -0.307591 0)
(-0.86985 -0.39037 0)
(-0.76159 -0.464106 0)
(-0.635926 -0.532994 0)
(-0.493384 -0.593242 0)
(-0.336403 -0.645369 0)
(-0.161992 -0.687329 0)
(0.0272466 -0.713687 0)
(0.226407 -0.719931 0)
(0.427998 -0.702493 0)
(0.624551 -0.656055 0)
(0.806321 -0.582571 0)
(0.964965 -0.478917 0)
(1.09063 -0.351566 0)
(1.17684 -0.202797 0)
(1.2176 -0.040752 0)
(1.20995 0.122359 0)
(1.15332 0.287 0)
(1.04674 0.44717 0)
(0.893998 0.585808 0)
(0.701372 0.695979 0)
(0.479544 0.770426 0)
(0.239959 0.803205 0)
(-0.00472718 0.79096 0)
(-0.238045 0.733401 0)
(-0.442304 0.636665 0)
(-0.605864 0.509836 0)
(-0.719857 0.36855 0)
(-0.787434 0.215687 0)
(-0.803172 0.0726506 0)
(-0.774827 -0.0531243 0)
(-0.709936 -0.15093 0)
(-0.620352 -0.21419 0)
(-0.519129 -0.242187 0)
(-0.419347 -0.23438 0)
(-0.33249 -0.19438 0)
(-0.26955 -0.12936 0)
(-0.236833 -0.0491139 0)
(-0.236815 0.0331034 0)
(-0.268758 0.110062 0)
(-0.328521 0.169035 0)
(-0.40658 0.203632 0)
(-0.493662 0.211048 0)
(-0.578196 0.188441 0)
(-0.648922 0.137635 0)
(-0.697237 0.0662581 0)
(-0.718332 -0.0244031 0)
(-0.706408 -0.12323 0)
(-0.661611 -0.219938 0)
(-0.585718 -0.309651 0)
(-0.483393 -0.384067 0)
(-0.361716 -0.43933 0)
(-0.228304 -0.47303 0)
(-0.0908561 -0.484969 0)
(0.0442995 -0.47765 0)
(0.169765 -0.454885 0)
(0.281486 -0.42047 0)
(0.377921 -0.384435 0)
(0.463018 -0.346661 0)
(0.53671 -0.309745 0)
(0.601221 -0.278269 0)
(0.659699 -0.248138 0)
(0.713691 -0.221371 0)
(0.764399 -0.193349 0)
(0.810082 -0.161974 0)
(0.849199 -0.127314 0)
(0.879161 -0.0896219 0)
(0.900525 -0.0483324 0)
(0.995578 0.739974 0)
(0.788457 0.80886 0)
(0.570038 0.848134 0)
(0.347879 0.857628 0)
(0.132797 0.840922 0)
(-0.0688899 0.802876 0)
(-0.253452 0.750273 0)
(-0.418409 0.689487 0)
(-0.567245 0.624727 0)
(-0.701352 0.556421 0)
(-0.822486 0.481784 0)
(-0.928925 0.401401 0)
(-1.01831 0.308944 0)
(-1.08554 0.20953 0)
(-1.12687 0.102066 0)
(-1.1385 -0.0179838 0)
(-1.11795 -0.130257 0)
(-1.0698 -0.237782 0)
(-0.996923 -0.337525 0)
(-0.902586 -0.427617 0)
(-0.791542 -0.507934 0)
(-0.662914 -0.583613 0)
(-0.517337 -0.649874 0)
(-0.356614 -0.708855 0)
(-0.176553 -0.757079 0)
(0.0191803 -0.788438 0)
(0.227545 -0.797365 0)
(0.439768 -0.780995 0)
(0.648392 -0.731361 0)
(0.841791 -0.651617 0)
(1.01138 -0.537265 0)
(1.14641 -0.396656 0)
(1.23969 -0.231324 0)
(1.2844 -0.0510484 0)
(1.27721 0.132561 0)
(1.21926 0.315376 0)
(1.1081 0.49397 0)
(0.945372 0.650668 0)
(0.73838 0.776592 0)
(0.499822 0.861456 0)
(0.242946 0.898661 0)
(-0.0200368 0.884327 0)
(-0.26827 0.819523 0)
(-0.48916 0.705711 0)
(-0.659159 0.564652 0)
(-0.779524 0.403205 0)
(-0.845573 0.231458 0)
(-0.857164 0.0688495 0)
(-0.819941 -0.0725723 0)
(-0.742827 -0.182093 0)
(-0.638936 -0.252878 0)
(-0.5229 -0.283038 0)
(-0.409543 -0.271886 0)
(-0.311553 -0.224472 0)
(-0.240965 -0.149582 0)
(-0.205976 -0.0568841 0)
(-0.205459 0.0392922 0)
(-0.242923 0.126255 0)
(-0.310299 0.196926 0)
(-0.398609 0.236411 0)
(-0.497304 0.245804 0)
(-0.593092 0.21987 0)
(-0.673503 0.162084 0)
(-0.729503 0.0807614 0)
(-0.755297 -0.0215807 0)
(-0.744913 -0.1337 0)
(-0.698743 -0.243165 0)
(-0.618368 -0.344358 0)
(-0.509347 -0.428064 0)
(-0.379559 -0.489651 0)
(-0.237602 -0.52679 0)
(-0.0918677 -0.538899 0)
(0.0502123 -0.528953 0)
(0.180948 -0.50168 0)
(0.295773 -0.461323 0)
(0.392927 -0.419877 0)
(0.477557 -0.377217 0)
(0.550238 -0.336073 0)
(0.613404 -0.301721 0)
(0.670874 -0.269697 0)
(0.724494 -0.241416 0)
(0.775882 -0.211575 0)
(0.823334 -0.178019 0)
(0.864153 -0.13967 0)
(0.894792 -0.0983372 0)
(0.91649 -0.0539555 0)
(1.02765 0.818939 0)
(0.808631 0.893916 0)
(0.577725 0.935637 0)
(0.34432 0.943709 0)
(0.119619 0.922113 0)
(-0.0884124 0.877099 0)
(-0.277069 0.816961 0)
(-0.444535 0.748668 0)
(-0.594519 0.677809 0)
(-0.730121 0.604128 0)
(-0.853811 0.52424 0)
(-0.963571 0.437775 0)
(-1.05689 0.337435 0)
(-1.12768 0.229695 0)
(-1.17109 0.111823 0)
(-1.18328 -0.0204114 0)
(-1.16147 -0.143944 0)
(-1.11056 -0.261874 0)
(-1.03458 -0.370419 0)
(-0.936834 -0.468461 0)
(-0.822911 -0.555158 0)
(-0.691783 -0.637363 0)
(-0.543074 -0.710866 0)
(-0.37804 -0.775608 0)
(-0.192875 -0.830257 0)
(0.00960091 -0.865977 0)
(0.226319 -0.878454 0)
(0.449728 -0.861208 0)
(0.670801 -0.806845 0)
(0.876927 -0.720013 0)
(1.05853 -0.593525 0)
(1.20391 -0.438558 0)
(1.30496 -0.254444 0)
(1.35504 -0.0546313 0)
(1.34907 0.151341 0)
(1.28723 0.353668 0)
(1.16607 0.555879 0)
(0.991403 0.730623 0)
(0.774102 0.868068 0)
(0.52042 0.961625 0)
(0.24562 1.00237 0)
(-0.0356322 0.985024 0)
(-0.306099 0.907981 0)
(-0.530927 0.787635 0)
(-0.714245 0.625513 0)
(-0.843185 0.438323 0)
(-0.907811 0.245998 0)
(-0.914661 0.0631836 0)
(-0.868015 -0.0952163 0)
(-0.777698 -0.219962 0)
(-0.657903 -0.297825 0)
(-0.525333 -0.329982 0)
(-0.396823 -0.315106 0)
(-0.285851 -0.25928 0)
(-0.206848 -0.171217 0)
(-0.168115 -0.0639304 0)
(-0.169149 0.0463701 0)
(-0.211108 0.149816 0)
(-0.287392 0.228527 0)
(-0.387072 0.275009 0)
(-0.499118 0.285027 0)
(-0.607426 0.25603 0)
(-0.698894 0.190092 0)
(-0.763833 0.098705 0)
(-0.794862 -0.0172755 0)
(-0.786322 -0.1438 0)
(-0.738884 -0.267594 0)
(-0.653389 -0.381018 0)
(-0.536646 -0.474712 0)
(-0.397571 -0.542773 0)
(-0.246549 -0.582779 0)
(-0.0923924 -0.594432 0)
(0.057014 -0.581115 0)
(0.193109 -0.548769 0)
(0.311523 -0.500713 0)
(0.408834 -0.453394 0)
(0.492402 -0.405722 0)
(0.563362 -0.360145 0)
(0.624828 -0.323054 0)
(0.681456 -0.289499 0)
(0.735313 -0.260817 0)
(0.788514 -0.231034 0)
(0.838937 -0.196005 0)
(0.883065 -0.15472 0)
(0.915512 -0.110692 0)
(0.936747 -0.0628726 0)
(1.05306 0.871598 0)
(0.825412 0.950852 0)
(0.586175 0.994487 0)
(0.344746 1.00215 0)
(0.113096 0.977723 0)
(-0.100757 0.927948 0)
(-0.291961 0.863074 0)
(-0.46139 0.789874 0)
(-0.612152 0.715149 0)
(-0.748782 0.638489 0)
(-0.874563 0.555762 0)
(-0.987277 0.465308 0)
(-1.08386 0.360034 0)
(-1.15783 0.245546 0)
(-1.20321 0.119785 0)
(-1.21596 -0.0215566 0)
(-1.19289 -0.152857 0)
(-1.13948 -0.277552 0)
(-1.06034 -0.392062 0)
(-0.959833 -0.494917 0)
(-0.84363 -0.585971 0)
(-0.710369 -0.672893 0)
(-0.559983 -0.750791 0)
(-0.391412 -0.821273 0)
(-0.201894 -0.880844 0)
(0.00513882 -0.921167 0)
(0.228521 -0.936216 0)
(0.459243 -0.921063 0)
(0.689912 -0.865084 0)
(0.905704 -0.773995 0)
(1.09626 -0.63958 0)
(1.24925 -0.475124 0)
(1.35592 -0.278594 0)
(1.4096 -0.0655272 0)
(1.40391 0.155615 0)
(1.34061 0.371231 0)
(1.21649 0.586776 0)
(1.03891 0.773152 0)
(0.812544 0.923714 0)
(0.547128 1.02702 0)
(0.258699 1.07291 0)
(-0.0415775 1.0548 0)
(-0.315148 0.975988 0)
(-0.563248 0.838597 0)