/*--------------------------------*- C++ -*----------------------------------*\
| =========                 |                                                 |
| \\      /  F ield         | OpenFOAM: The Open Source CFD Toolbox           |
|  \\    /   O peration     | Version:  v1912                                 |
|   \\  /    A nd           | Website:  www.openfoam.com                      |
|    \\/     M anipulation  |                                                 |
\*---------------------------------------------------------------------------*/
FoamFile
{
    version     2.0;
    format      ascii;
    class       volSymmTensorField;
    location    "100";
    object      R;
}
// * * * * * * * * * * * * * * * * * * * * * * * * * * * * * * * * * * * * * //

dimensions      [0 2 -2 0 0 0 0];


internalField   nonuniform List<symmTensor> 
14268
(
(1.11946e-12 3.825e-15 0 1.09767e-12 0 1.10855e-12)
(1.13178e-12 3.62843e-15 0 1.11081e-12 0 1.12129e-12)
(1.14365e-12 3.43605e-15 0 1.12349e-12 0 1.13356e-12)
(1.15507e-12 3.2481e-15 0 1.1357e-12 0 1.14537e-12)
(1.16604e-12 3.06479e-15 0 1.14745e-12 0 1.15674e-12)
(1.17659e-12 2.88628e-15 0 1.15876e-12 0 1.16767e-12)
(1.18672e-12 2.71271e-15 0 1.16963e-12 0 1.17816e-12)
(1.19643e-12 2.54418e-15 0 1.18007e-12 0 1.18825e-12)
(1.20575e-12 2.38076e-15 0 1.19009e-12 0 1.19792e-12)
(1.21469e-12 2.22251e-15 0 1.19971e-12 0 1.20719e-12)
(1.22324e-12 2.06944e-15 0 1.20893e-12 0 1.21608e-12)
(1.23144e-12 1.92158e-15 0 1.21777e-12 0 1.2246e-12)
(1.23928e-12 1.77889e-15 0 1.22623e-12 0 1.23275e-12)
(1.24678e-12 1.64136e-15 0 1.23433e-12 0 1.24055e-12)
(1.25395e-12 1.5089e-15 0 1.24209e-12 0 1.24801e-12)
(1.2608e-12 1.3815e-15 0 1.2495e-12 0 1.25515e-12)
(1.26734e-12 1.25905e-15 0 1.25659e-12 0 1.26196e-12)
(1.27359e-12 1.14148e-15 0 1.26335e-12 0 1.26847e-12)
(1.27955e-12 1.02868e-15 0 1.26982e-12 0 1.27468e-12)
(1.28523e-12 9.20572e-16 0 1.27598e-12 0 1.28061e-12)
(1.29065e-12 8.17014e-16 0 1.28187e-12 0 1.28626e-12)
(1.29582e-12 7.17921e-16 0 1.28748e-12 0 1.29165e-12)
(1.30074e-12 6.23149e-16 0 1.29282e-12 0 1.29678e-12)
(1.30543e-12 5.32595e-16 0 1.29792e-12 0 1.30167e-12)
(1.30989e-12 4.46115e-16 0 1.30277e-12 0 1.30633e-12)
(1.31413e-12 3.63597e-16 0 1.30739e-12 0 1.31076e-12)
(1.31816e-12 2.84899e-16 0 1.31178e-12 0 1.31497e-12)
(1.322e-12 2.09902e-16 0 1.31596e-12 0 1.31898e-12)
(1.32564e-12 1.38467e-16 0 1.31993e-12 0 1.32279e-12)
(1.32911e-12 7.04747e-17 0 1.3237e-12 0 1.3264e-12)
(1.3324e-12 5.78931e-18 0 1.32729e-12 0 1.32984e-12)
(1.33552e-12 -5.57088e-17 0 1.33069e-12 0 1.3331e-12)
(1.33848e-12 -1.1415e-16 0 1.33393e-12 0 1.3362e-12)
(1.34129e-12 -1.6965e-16 0 1.33699e-12 0 1.33914e-12)
(1.34396e-12 -2.22337e-16 0 1.3399e-12 0 1.34193e-12)
(1.34648e-12 -2.7232e-16 0 1.34266e-12 0 1.34457e-12)
(1.34887e-12 -3.1972e-16 0 1.34527e-12 0 1.34707e-12)
(1.35114e-12 -3.64644e-16 0 1.34775e-12 0 1.34945e-12)
(1.35329e-12 -4.07204e-16 0 1.3501e-12 0 1.35169e-12)
(1.35532e-12 -4.47505e-16 0 1.35232e-12 0 1.35382e-12)
(1.35725e-12 -4.85647e-16 0 1.35442e-12 0 1.35583e-12)
(1.35907e-12 -5.21734e-16 0 1.35641e-12 0 1.35774e-12)
(1.36079e-12 -5.55856e-16 0 1.3583e-12 0 1.35954e-12)
(1.36241e-12 -5.88111e-16 0 1.36008e-12 0 1.36124e-12)
(1.36395e-12 -6.18583e-16 0 1.36176e-12 0 1.36285e-12)
(1.3654e-12 -6.47364e-16 0 1.36335e-12 0 1.36438e-12)
(1.36678e-12 -6.74531e-16 0 1.36485e-12 0 1.36581e-12)
(1.36807e-12 -7.00169e-16 0 1.36627e-12 0 1.36717e-12)
(1.36929e-12 -7.24349e-16 0 1.36761e-12 0 1.36845e-12)
(1.37045e-12 -7.4715e-16 0 1.36887e-12 0 1.36966e-12)
(1.37154e-12 -7.68637e-16 0 1.37006e-12 0 1.3708e-12)
(1.37256e-12 -7.88882e-16 0 1.37118e-12 0 1.37187e-12)
(1.37353e-12 -8.07946e-16 0 1.37224e-12 0 1.37289e-12)
(1.37444e-12 -8.25895e-16 0 1.37324e-12 0 1.37384e-12)
(1.3753e-12 -8.42783e-16 0 1.37418e-12 0 1.37474e-12)
(1.37611e-12 -8.58669e-16 0 1.37507e-12 0 1.37559e-12)
(1.37687e-12 -8.73608e-16 0 1.3759e-12 0 1.37639e-12)
(1.37759e-12 -8.87648e-16 0 1.37669e-12 0 1.37714e-12)
(1.37826e-12 -9.00842e-16 0 1.37743e-12 0 1.37784e-12)
(1.37889e-12 -9.13232e-16 0 1.37812e-12 0 1.37851e-12)
(1.37949e-12 -9.24868e-16 0 1.37877e-12 0 1.37913e-12)
(1.38005e-12 -9.35786e-16 0 1.37939e-12 0 1.37972e-12)
(1.38058e-12 -9.46031e-16 0 1.37996e-12 0 1.38027e-12)
(1.38107e-12 -9.55637e-16 0 1.38051e-12 0 1.38079e-12)
(1.38153e-12 -9.64644e-16 0 1.38102e-12 0 1.38127e-12)
(1.38197e-12 -9.73085e-16 0 1.38149e-12 0 1.38173e-12)
(1.38238e-12 -9.80992e-16 0 1.38194e-12 0 1.38216e-12)
(1.38276e-12 -9.88397e-16 0 1.38236e-12 0 1.38256e-12)
(1.38312e-12 -9.95328e-16 0 1.38276e-12 0 1.38294e-12)
(1.38346e-12 -1.00181e-15 0 1.38313e-12 0 1.38329e-12)
(1.38377e-12 -1.00788e-15 0 1.38347e-12 0 1.38362e-12)
(1.38407e-12 -1.01355e-15 0 1.3838e-12 0 1.38393e-12)
(1.38435e-12 -1.01886e-15 0 1.3841e-12 0 1.38422e-12)
(1.38461e-12 -1.02381e-15 0 1.38438e-12 0 1.38449e-12)
(1.38485e-12 -1.02844e-15 0 1.38465e-12 0 1.38475e-12)
(1.38508e-12 -1.03276e-15 0 1.3849e-12 0 1.38499e-12)
(1.38529e-12 -1.03679e-15 0 1.38513e-12 0 1.38521e-12)
(1.38549e-12 -1.04055e-15 0 1.38535e-12 0 1.38542e-12)
(1.38567e-12 -1.04406e-15 0 1.38555e-12 0 1.38561e-12)
(1.38584e-12 -1.04733e-15 0 1.38574e-12 0 1.38579e-12)
(1.386e-12 -1.05037e-15 0 1.38592e-12 0 1.38596e-12)
(1.38616e-12 -1.05321e-15 0 1.38608e-12 0 1.38612e-12)
(1.3863e-12 -1.05585e-15 0 1.38624e-12 0 1.38627e-12)
(1.38643e-12 -1.05831e-15 0 1.38638e-12 0 1.3864e-12)
(1.38655e-12 -1.0606e-15 0 1.38651e-12 0 1.38653e-12)
(1.38666e-12 -1.06272e-15 0 1.38664e-12 0 1.38665e-12)
(1.38677e-12 -1.0647e-15 0 1.38676e-12 0 1.38676e-12)
(1.38687e-12 -1.06654e-15 0 1.38686e-12 0 1.38687e-12)
(1.38696e-12 -1.06824e-15 0 1.38696e-12 0 1.38696e-12)
(1.38704e-12 -1.06983e-15 0 1.38706e-12 0 1.38705e-12)
(1.38712e-12 -1.0713e-15 0 1.38715e-12 0 1.38713e-12)
(1.3872e-12 -1.07266e-15 0 1.38723e-12 0 1.38721e-12)
(1.38726e-12 -1.07392e-15 0 1.3873e-12 0 1.38728e-12)
(1.38733e-12 -1.07509e-15 0 1.38737e-12 0 1.38735e-12)
(1.38739e-12 -1.07617e-15 0 1.38744e-12 0 1.38741e-12)
(1.38744e-12 -1.07718e-15 0 1.38749e-12 0 1.38747e-12)
(1.38749e-12 -1.07811e-15 0 1.38755e-12 0 1.38752e-12)
(1.38754e-12 -1.07896e-15 0 1.3876e-12 0 1.38757e-12)
(1.38758e-12 -1.07976e-15 0 1.38765e-12 0 1.38762e-12)
(1.38762e-12 -1.08049e-15 0 1.38769e-12 0 1.38766e-12)
(1.38766e-12 -1.08116e-15 0 1.38773e-12 0 1.3877e-12)
(1.38769e-12 -1.08179e-15 0 1.38777e-12 0 1.38773e-12)
(1.38772e-12 -1.08236e-15 0 1.38781e-12 0 1.38776e-12)
(1.38775e-12 -1.08289e-15 0 1.38784e-12 0 1.38779e-12)
(1.38778e-12 -1.08338e-15 0 1.38787e-12 0 1.38782e-12)
(1.3878e-12 -1.08382e-15 0 1.38789e-12 0 1.38785e-12)
(1.38783e-12 -1.08423e-15 0 1.38792e-12 0 1.38787e-12)
(1.38785e-12 -1.08461e-15 0 1.38794e-12 0 1.38789e-12)
(1.38786e-12 -1.08495e-15 0 1.38796e-12 0 1.38791e-12)
(1.38788e-12 -1.08527e-15 0 1.38798e-12 0 1.38793e-12)
(1.3879e-12 -1.08556e-15 0 1.38799e-12 0 1.38795e-12)
(1.38791e-12 -1.08582e-15 0 1.38801e-12 0 1.38796e-12)
(1.38792e-12 -1.08605e-15 0 1.38802e-12 0 1.38797e-12)
(1.38793e-12 -1.08627e-15 0 1.38803e-12 0 1.38798e-12)
(1.38794e-12 -1.08646e-15 0 1.38805e-12 0 1.38799e-12)
(1.38795e-12 -1.08664e-15 0 1.38805e-12 0 1.388e-12)
(1.38796e-12 -1.08679e-15 0 1.38806e-12 0 1.38801e-12)
(1.38796e-12 -1.08692e-15 0 1.38806e-12 0 1.38801e-12)
(1.38797e-12 -1.08705e-15 0 1.38807e-12 0 1.38802e-12)
(1.38796e-12 -1.08715e-15 0 1.38807e-12 0 1.38802e-12)
(1.38797e-12 -1.08724e-15 0 1.38808e-12 0 1.38803e-12)
(1.38796e-12 -1.08731e-15 0 1.38807e-12 0 1.38802e-12)
(1.38797e-12 -1.08738e-15 0 1.38808e-12 0 1.38803e-12)
(1.38796e-12 -1.08742e-15 0 1.38807e-12 0 1.38801e-12)
(1.38797e-12 -1.08747e-15 0 1.38808e-12 0 1.38803e-12)
(1.38795e-12 -1.08748e-15 0 1.38806e-12 0 1.38801e-12)
(1.38797e-12 -1.08753e-15 0 1.38807e-12 0 1.38802e-12)
(1.38795e-12 -1.08751e-15 0 1.38805e-12 0 1.388e-12)
(1.38796e-12 -1.08758e-15 0 1.38807e-12 0 1.38802e-12)
(1.38794e-12 -1.08754e-15 0 1.38805e-12 0 1.38799e-12)
(1.38797e-12 -1.08766e-15 0 1.38808e-12 0 1.38802e-12)
(1.38794e-12 -1.08761e-15 0 1.38805e-12 0 1.388e-12)
(1.38799e-12 -1.08783e-15 0 1.3881e-12 0 1.38804e-12)
(1.38796e-12 -1.0878e-15 0 1.38807e-12 0 1.38802e-12)
(1.38803e-12 -1.08814e-15 0 1.38814e-12 0 1.38808e-12)
(1.38801e-12 -1.08819e-15 0 1.38812e-12 0 1.38807e-12)
(1.38807e-12 -1.08851e-15 0 1.38819e-12 0 1.38813e-12)
(1.38806e-12 -1.0886e-15 0 1.38818e-12 0 1.38812e-12)
(1.38814e-12 -1.08936e-15 0 1.38826e-12 0 1.3882e-12)
(1.38814e-12 -1.08944e-15 0 1.38826e-12 0 1.3882e-12)
(1.38819e-12 -1.0895e-15 0 1.38831e-12 0 1.38825e-12)
(1.38818e-12 -1.08961e-15 0 1.38831e-12 0 1.38825e-12)
(1.38821e-12 -1.08971e-15 0 1.38834e-12 0 1.38827e-12)
(1.3882e-12 -1.08975e-15 0 1.38833e-12 0 1.38826e-12)
(1.38822e-12 -1.08976e-15 0 1.38834e-12 0 1.38828e-12)
(1.3882e-12 -1.08975e-15 0 1.38833e-12 0 1.38826e-12)
(1.38821e-12 -1.08971e-15 0 1.38833e-12 0 1.38827e-12)
(1.38819e-12 -1.08967e-15 0 1.38832e-12 0 1.38825e-12)
(1.38819e-12 -1.0896e-15 0 1.38832e-12 0 1.38825e-12)
(1.38818e-12 -1.08955e-15 0 1.3883e-12 0 1.38824e-12)
(1.38818e-12 -1.08949e-15 0 1.3883e-12 0 1.38824e-12)
(1.38817e-12 -1.08943e-15 0 1.38829e-12 0 1.38823e-12)
(1.38816e-12 -1.08937e-15 0 1.38829e-12 0 1.38822e-12)
(1.38815e-12 -1.08932e-15 0 1.38828e-12 0 1.38821e-12)
(1.38815e-12 -1.08928e-15 0 1.38827e-12 0 1.38821e-12)
(1.38815e-12 -1.08923e-15 0 1.38827e-12 0 1.38821e-12)
(1.38814e-12 -1.08921e-15 0 1.38826e-12 0 1.3882e-12)
(1.38814e-12 -1.08918e-15 0 1.38826e-12 0 1.3882e-12)
(1.38814e-12 -1.08919e-15 0 1.38826e-12 0 1.3882e-12)
(1.38814e-12 -1.08914e-15 0 1.38826e-12 0 1.3882e-12)
(1.38817e-12 -1.08938e-15 0 1.3883e-12 0 1.38824e-12)
(1.38818e-12 -1.08756e-15 0 1.3883e-12 0 1.38824e-12)
(1.38932e-12 -1.09251e-15 0 1.38949e-12 0 1.3894e-12)
(1.40929e-12 -9.52062e-16 0 1.40953e-12 0 1.40941e-12)
(3.32074e-11 1.79418e-13 0 3.21238e-11 0 3.2665e-11)
(3.35695e-11 1.69978e-13 0 3.25267e-11 0 3.30475e-11)
(3.39181e-11 1.60736e-13 0 3.29154e-11 0 3.34163e-11)
(3.42536e-11 1.51707e-13 0 3.32903e-11 0 3.37715e-11)
(3.4576e-11 1.42899e-13 0 3.36513e-11 0 3.41132e-11)
(3.48858e-11 1.3432e-13 0 3.39987e-11 0 3.44419e-11)
(3.51831e-11 1.25978e-13 0 3.43329e-11 0 3.47577e-11)
(3.54684e-11 1.17876e-13 0 3.46541e-11 0 3.5061e-11)
(3.5742e-11 1.10019e-13 0 3.49627e-11 0 3.53521e-11)
(3.60042e-11 1.0241e-13 0 3.52589e-11 0 3.56313e-11)
(3.62553e-11 9.50487e-14 0 3.5543e-11 0 3.58989e-11)
(3.64958e-11 8.79368e-14 0 3.58155e-11 0 3.61554e-11)
(3.67258e-11 8.10723e-14 0 3.60765e-11 0 3.6401e-11)
(3.69459e-11 7.44552e-14 0 3.63265e-11 0 3.6636e-11)
(3.71562e-11 6.80817e-14 0 3.65658e-11 0 3.68609e-11)
(3.73572e-11 6.19505e-14 0 3.67947e-11 0 3.70758e-11)
(3.75491e-11 5.60562e-14 0 3.70136e-11 0 3.72812e-11)
(3.77323e-11 5.03967e-14 0 3.72227e-11 0 3.74774e-11)
(3.79071e-11 4.49656e-14 0 3.74225e-11 0 3.76647e-11)
(3.80738e-11 3.97599e-14 0 3.76132e-11 0 3.78434e-11)
(3.82327e-11 3.47725e-14 0 3.77952e-11 0 3.80139e-11)
(3.83842e-11 2.99996e-14 0 3.79688e-11 0 3.81764e-11)
(3.85284e-11 2.54341e-14 0 3.81343e-11 0 3.83313e-11)
(3.86657e-11 2.10713e-14 0 3.82919e-11 0 3.84788e-11)
(3.87965e-11 1.69042e-14 0 3.84421e-11 0 3.86192e-11)
(3.89208e-11 1.29274e-14 0 3.85851e-11 0 3.87529e-11)
(3.90391e-11 9.13423e-15 0 3.87212e-11 0 3.88801e-11)
(3.91515e-11 5.51899e-15 0 3.88506e-11 0 3.9001e-11)
(3.92583e-11 2.07499e-15 0 3.89737e-11 0 3.9116e-11)
(3.93598e-11 -1.20347e-15 0 3.90907e-11 0 3.92252e-11)
(3.94562e-11 -4.3229e-15 0 3.92019e-11 0 3.9329e-11)
(3.95476e-11 -7.28901e-15 0 3.93075e-11 0 3.94275e-11)
(3.96344e-11 -1.0108e-14 0 3.94077e-11 0 3.9521e-11)
(3.97168e-11 -1.27856e-14 0 3.95028e-11 0 3.96098e-11)
(3.97948e-11 -1.53277e-14 0 3.95931e-11 0 3.96939e-11)
(3.98688e-11 -1.77397e-14 0 3.96787e-11 0 3.97737e-11)
(3.99389e-11 -2.00273e-14 0 3.97598e-11 0 3.98493e-11)
(4.00054e-11 -2.21958e-14 0 3.98367e-11 0 3.9921e-11)
(4.00683e-11 -2.42503e-14 0 3.99095e-11 0 3.99889e-11)
(4.01278e-11 -2.61962e-14 0 3.99785e-11 0 4.00531e-11)
(4.01842e-11 -2.80379e-14 0 4.00437e-11 0 4.01139e-11)
(4.02375e-11 -2.97807e-14 0 4.01055e-11 0 4.01715e-11)
(4.02879e-11 -3.14288e-14 0 4.0164e-11 0 4.02259e-11)
(4.03355e-11 -3.29869e-14 0 4.02192e-11 0 4.02774e-11)
(4.03805e-11 -3.44591e-14 0 4.02715e-11 0 4.0326e-11)
(4.04231e-11 -3.58498e-14 0 4.03208e-11 0 4.0372e-11)
(4.04633e-11 -3.71626e-14 0 4.03675e-11 0 4.04154e-11)
(4.05012e-11 -3.84017e-14 0 4.04115e-11 0 4.04564e-11)
(4.0537e-11 -3.95705e-14 0 4.04531e-11 0 4.04951e-11)
(4.05708e-11 -4.06728e-14 0 4.04924e-11 0 4.05316e-11)
(4.06027e-11 -4.17117e-14 0 4.05294e-11 0 4.0566e-11)
(4.06327e-11 -4.26907e-14 0 4.05643e-11 0 4.05985e-11)
(4.0661e-11 -4.36127e-14 0 4.05972e-11 0 4.06291e-11)
(4.06877e-11 -4.44809e-14 0 4.06282e-11 0 4.0658e-11)
(4.07129e-11 -4.52979e-14 0 4.06575e-11 0 4.06852e-11)
(4.07366e-11 -4.60665e-14 0 4.0685e-11 0 4.07108e-11)
(4.07588e-11 -4.67893e-14 0 4.07109e-11 0 4.07349e-11)
(4.07798e-11 -4.74688e-14 0 4.07353e-11 0 4.07576e-11)
(4.07996e-11 -4.81074e-14 0 4.07583e-11 0 4.07789e-11)
(4.08181e-11 -4.87071e-14 0 4.07799e-11 0 4.0799e-11)
(4.08356e-11 -4.92705e-14 0 4.08002e-11 0 4.08179e-11)
(4.0852e-11 -4.97991e-14 0 4.08192e-11 0 4.08356e-11)
(4.08674e-11 -5.02952e-14 0 4.08372e-11 0 4.08523e-11)
(4.08818e-11 -5.07605e-14 0 4.0854e-11 0 4.08679e-11)
(4.08954e-11 -5.11968e-14 0 4.08698e-11 0 4.08826e-11)
(4.09082e-11 -5.16057e-14 0 4.08847e-11 0 4.08964e-11)
(4.09201e-11 -5.19888e-14 0 4.08986e-11 0 4.09094e-11)
(4.09314e-11 -5.23476e-14 0 4.09117e-11 0 4.09215e-11)
(4.09419e-11 -5.26836e-14 0 4.09239e-11 0 4.09329e-11)
(4.09518e-11 -5.29979e-14 0 4.09354e-11 0 4.09436e-11)
(4.0961e-11 -5.32921e-14 0 4.09462e-11 0 4.09536e-11)
(4.09697e-11 -5.35671e-14 0 4.09563e-11 0 4.0963e-11)
(4.09778e-11 -5.38242e-14 0 4.09657e-11 0 4.09717e-11)
(4.09853e-11 -5.40644e-14 0 4.09745e-11 0 4.09799e-11)
(4.09924e-11 -5.42889e-14 0 4.09828e-11 0 4.09876e-11)
(4.09991e-11 -5.44984e-14 0 4.09905e-11 0 4.09948e-11)
(4.10053e-11 -5.46941e-14 0 4.09978e-11 0 4.10015e-11)
(4.10111e-11 -5.48765e-14 0 4.10045e-11 0 4.10078e-11)
(4.10165e-11 -5.50468e-14 0 4.10109e-11 0 4.10137e-11)
(4.10216e-11 -5.52054e-14 0 4.10167e-11 0 4.10192e-11)
(4.10263e-11 -5.53533e-14 0 4.10223e-11 0 4.10243e-11)
(4.10307e-11 -5.54911e-14 0 4.10274e-11 0 4.1029e-11)
(4.10348e-11 -5.56194e-14 0 4.10322e-11 0 4.10335e-11)
(4.10386e-11 -5.57387e-14 0 4.10366e-11 0 4.10376e-11)
(4.10422e-11 -5.58498e-14 0 4.10408e-11 0 4.10415e-11)
(4.10455e-11 -5.59531e-14 0 4.10447e-11 0 4.10451e-11)
(4.10486e-11 -5.60492e-14 0 4.10483e-11 0 4.10485e-11)
(4.10515e-11 -5.61384e-14 0 4.10517e-11 0 4.10516e-11)
(4.10542e-11 -5.62213e-14 0 4.10548e-11 0 4.10545e-11)
(4.10567e-11 -5.62983e-14 0 4.10577e-11 0 4.10572e-11)
(4.1059e-11 -5.63696e-14 0 4.10604e-11 0 4.10597e-11)
(4.10612e-11 -5.64359e-14 0 4.10629e-11 0 4.10621e-11)
(4.10632e-11 -5.64973e-14 0 4.10653e-11 0 4.10642e-11)
(4.1065e-11 -5.65542e-14 0 4.10674e-11 0 4.10662e-11)
(4.10668e-11 -5.66069e-14 0 4.10694e-11 0 4.10681e-11)
(4.10684e-11 -5.66557e-14 0 4.10713e-11 0 4.10698e-11)
(4.10698e-11 -5.67008e-14 0 4.1073e-11 0 4.10714e-11)
(4.10712e-11 -5.67426e-14 0 4.10746e-11 0 4.10729e-11)
(4.10725e-11 -5.67811e-14 0 4.10761e-11 0 4.10743e-11)
(4.10736e-11 -5.68167e-14 0 4.10775e-11 0 4.10756e-11)
(4.10747e-11 -5.68496e-14 0 4.10787e-11 0 4.10767e-11)
(4.10757e-11 -5.688e-14 0 4.10799e-11 0 4.10778e-11)
(4.10766e-11 -5.69079e-14 0 4.10809e-11 0 4.10788e-11)
(4.10775e-11 -5.69336e-14 0 4.10819e-11 0 4.10797e-11)
(4.10783e-11 -5.69573e-14 0 4.10828e-11 0 4.10805e-11)
(4.1079e-11 -5.69791e-14 0 4.10837e-11 0 4.10813e-11)
(4.10796e-11 -5.69991e-14 0 4.10844e-11 0 4.1082e-11)
(4.10802e-11 -5.70174e-14 0 4.10851e-11 0 4.10827e-11)
(4.10807e-11 -5.70341e-14 0 4.10858e-11 0 4.10833e-11)
(4.10812e-11 -5.70495e-14 0 4.10863e-11 0 4.10838e-11)
(4.10817e-11 -5.70634e-14 0 4.10868e-11 0 4.10843e-11)
(4.10821e-11 -5.70761e-14 0 4.10873e-11 0 4.10847e-11)
(4.10824e-11 -5.70877e-14 0 4.10877e-11 0 4.10851e-11)
(4.10827e-11 -5.70981e-14 0 4.1088e-11 0 4.10854e-11)
(4.1083e-11 -5.71075e-14 0 4.10884e-11 0 4.10857e-11)
(4.10832e-11 -5.71158e-14 0 4.10886e-11 0 4.10859e-11)
(4.10835e-11 -5.71234e-14 0 4.10889e-11 0 4.10862e-11)
(4.10835e-11 -5.71298e-14 0 4.1089e-11 0 4.10862e-11)
(4.10838e-11 -5.71358e-14 0 4.10893e-11 0 4.10865e-11)
(4.10836e-11 -5.71404e-14 0 4.10892e-11 0 4.10864e-11)
(4.10839e-11 -5.71451e-14 0 4.10895e-11 0 4.10867e-11)
(4.10837e-11 -5.71481e-14 0 4.10892e-11 0 4.10865e-11)
(4.1084e-11 -5.71516e-14 0 4.10896e-11 0 4.10868e-11)
(4.10836e-11 -5.71531e-14 0 4.10892e-11 0 4.10864e-11)
(4.10839e-11 -5.71557e-14 0 4.10895e-11 0 4.10867e-11)
(4.10834e-11 -5.71559e-14 0 4.1089e-11 0 4.10862e-11)
(4.10838e-11 -5.71582e-14 0 4.10894e-11 0 4.10866e-11)
(4.10831e-11 -5.71572e-14 0 4.10887e-11 0 4.10859e-11)
(4.10837e-11 -5.71603e-14 0 4.10893e-11 0 4.10865e-11)
(4.1083e-11 -5.71584e-14 0 4.10885e-11 0 4.10858e-11)
(4.10838e-11 -5.71642e-14 0 4.10894e-11 0 4.10866e-11)
(4.10831e-11 -5.71618e-14 0 4.10887e-11 0 4.10859e-11)
(4.10844e-11 -5.71729e-14 0 4.10901e-11 0 4.10872e-11)
(4.10837e-11 -5.71712e-14 0 4.10894e-11 0 4.10865e-11)
(4.10856e-11 -5.71885e-14 0 4.10914e-11 0 4.10885e-11)
(4.1085e-11 -5.71909e-14 0 4.10909e-11 0 4.1088e-11)
(4.10869e-11 -5.72076e-14 0 4.10928e-11 0 4.10898e-11)
(4.10865e-11 -5.72124e-14 0 4.10925e-11 0 4.10895e-11)
(4.10889e-11 -5.72359e-14 0 4.10951e-11 0 4.1092e-11)
(4.10888e-11 -5.72454e-14 0 4.1095e-11 0 4.10919e-11)
(4.10902e-11 -5.72585e-14 0 4.10966e-11 0 4.10934e-11)
(4.109e-11 -5.72643e-14 0 4.10964e-11 0 4.10932e-11)
(4.10908e-11 -5.72692e-14 0 4.10973e-11 0 4.1094e-11)
(4.10905e-11 -5.72716e-14 0 4.1097e-11 0 4.10937e-11)
(4.10909e-11 -5.72718e-14 0 4.10974e-11 0 4.10941e-11)
(4.10905e-11 -5.72715e-14 0 4.1097e-11 0 4.10937e-11)
(4.10907e-11 -5.72691e-14 0 4.10971e-11 0 4.10939e-11)
(4.10902e-11 -5.72672e-14 0 4.10967e-11 0 4.10935e-11)
(4.10903e-11 -5.72638e-14 0 4.10967e-11 0 4.10935e-11)
(4.10899e-11 -5.72611e-14 0 4.10963e-11 0 4.10931e-11)
(4.10898e-11 -5.72577e-14 0 4.10962e-11 0 4.1093e-11)
(4.10895e-11 -5.72548e-14 0 4.10958e-11 0 4.10927e-11)
(4.10894e-11 -5.72518e-14 0 4.10958e-11 0 4.10926e-11)
(4.10892e-11 -5.72492e-14 0 4.10955e-11 0 4.10923e-11)
(4.10891e-11 -5.72468e-14 0 4.10954e-11 0 4.10922e-11)
(4.10889e-11 -5.72447e-14 0 4.10952e-11 0 4.10921e-11)
(4.10888e-11 -5.72433e-14 0 4.10951e-11 0 4.1092e-11)
(4.10888e-11 -5.72416e-14 0 4.1095e-11 0 4.10919e-11)
(4.10888e-11 -5.72425e-14 0 4.1095e-11 0 4.10919e-11)
(4.10888e-11 -5.72399e-14 0 4.10951e-11 0 4.10919e-11)
(4.10897e-11 -5.72521e-14 0 4.10961e-11 0 4.10929e-11)
(4.10899e-11 -5.71564e-14 0 4.10963e-11 0 4.10931e-11)
(4.11231e-11 -5.74021e-14 0 4.11319e-11 0 4.11275e-11)
(4.16698e-11 -4.99639e-14 0 4.16823e-11 0 4.16761e-11)
(2.30459e-10 1.20575e-12 0 2.19764e-10 0 2.25105e-10)
(2.32837e-10 1.13195e-12 0 2.2255e-10 0 2.27688e-10)
(2.35125e-10 1.05984e-12 0 2.25238e-10 0 2.30177e-10)
(2.37324e-10 9.89517e-13 0 2.27831e-10 0 2.32573e-10)
(2.39436e-10 9.21026e-13 0 2.30327e-10 0 2.34877e-10)
(2.41464e-10 8.54425e-13 0 2.3273e-10 0 2.37093e-10)
(2.43408e-10 7.8974e-13 0 2.35042e-10 0 2.39221e-10)
(2.45273e-10 7.2701e-13 0 2.37264e-10 0 2.41265e-10)
(2.4706e-10 6.66239e-13 0 2.39397e-10 0 2.43226e-10)
(2.48771e-10 6.07449e-13 0 2.41446e-10 0 2.45106e-10)
(2.50409e-10 5.50626e-13 0 2.43412e-10 0 2.46908e-10)
(2.51977e-10 4.95778e-13 0 2.45296e-10 0 2.48634e-10)
(2.53476e-10 4.42878e-13 0 2.47102e-10 0 2.50286e-10)
(2.54908e-10 3.91922e-13 0 2.48831e-10 0 2.51868e-10)
(2.56277e-10 3.42868e-13 0 2.50486e-10 0 2.5338e-10)
(2.57585e-10 2.95709e-13 0 2.52069e-10 0 2.54825e-10)
(2.58832e-10 2.50391e-13 0 2.53583e-10 0 2.56206e-10)
(2.60023e-10 2.06899e-13 0 2.5503e-10 0 2.57525e-10)
(2.61158e-10 1.65174e-13 0 2.56412e-10 0 2.58784e-10)
(2.62241e-10 1.25195e-13 0 2.57731e-10 0 2.59985e-10)
(2.63273e-10 8.68996e-14 0 2.5899e-10 0 2.6113e-10)
(2.64255e-10 5.02599e-14 0 2.6019e-10 0 2.62222e-10)
(2.65191e-10 1.52157e-14 0 2.61335e-10 0 2.63262e-10)
(2.66081e-10 -1.82686e-14 0 2.62426e-10 0 2.64253e-10)
(2.66929e-10 -5.02506e-14 0 2.63464e-10 0 2.65196e-10)
(2.67734e-10 -8.07703e-14 0 2.64454e-10 0 2.66093e-10)
(2.685e-10 -1.09883e-13 0 2.65395e-10 0 2.66947e-10)
(2.69229e-10 -1.37632e-13 0 2.6629e-10 0 2.67759e-10)
(2.6992e-10 -1.64069e-13 0 2.67141e-10 0 2.6853e-10)
(2.70577e-10 -1.89239e-13 0 2.67951e-10 0 2.69263e-10)
(2.71201e-10 -2.13193e-13 0 2.6872e-10 0 2.6996e-10)
(2.71793e-10 -2.35973e-13 0 2.6945e-10 0 2.70621e-10)
(2.72354e-10 -2.5763e-13 0 2.70143e-10 0 2.71248e-10)
(2.72887e-10 -2.78204e-13 0 2.70801e-10 0 2.71843e-10)
(2.73391e-10 -2.97744e-13 0 2.71425e-10 0 2.72408e-10)
(2.7387e-10 -3.16289e-13 0 2.72017e-10 0 2.72943e-10)
(2.74323e-10 -3.33884e-13 0 2.72578e-10 0 2.7345e-10)
(2.74752e-10 -3.50569e-13 0 2.7311e-10 0 2.73931e-10)
(2.75159e-10 -3.66383e-13 0 2.73614e-10 0 2.74386e-10)
(2.75544e-10 -3.81367e-13 0 2.74091e-10 0 2.74817e-10)
(2.75908e-10 -3.95555e-13 0 2.74542e-10 0 2.75225e-10)
(2.76252e-10 -4.08987e-13 0 2.7497e-10 0 2.75611e-10)
(2.76578e-10 -4.21694e-13 0 2.75374e-10 0 2.75975e-10)
(2.76885e-10 -4.33714e-13 0 2.75756e-10 0 2.7632e-10)
(2.77176e-10 -4.45076e-13 0 2.76117e-10 0 2.76647e-10)
(2.77451e-10 -4.55815e-13 0 2.76459e-10 0 2.76955e-10)
(2.7771e-10 -4.65958e-13 0 2.76781e-10 0 2.77246e-10)
(2.77955e-10 -4.75537e-13 0 2.77086e-10 0 2.7752e-10)
(2.78186e-10 -4.84577e-13 0 2.77374e-10 0 2.7778e-10)
(2.78404e-10 -4.93108e-13 0 2.77645e-10 0 2.78025e-10)
(2.7861e-10 -5.01152e-13 0 2.77901e-10 0 2.78255e-10)
(2.78804e-10 -5.08738e-13 0 2.78142e-10 0 2.78473e-10)
(2.78987e-10 -5.15885e-13 0 2.7837e-10 0 2.78678e-10)
(2.79159e-10 -5.2262e-13 0 2.78585e-10 0 2.78872e-10)
(2.79321e-10 -5.28961e-13 0 2.78787e-10 0 2.79054e-10)
(2.79474e-10 -5.34931e-13 0 2.78977e-10 0 2.79226e-10)
(2.79618e-10 -5.4055e-13 0 2.79156e-10 0 2.79387e-10)
(2.79753e-10 -5.45834e-13 0 2.79325e-10 0 2.79539e-10)
(2.7988e-10 -5.50804e-13 0 2.79484e-10 0 2.79682e-10)
(2.8e-10 -5.55474e-13 0 2.79633e-10 0 2.79817e-10)
(2.80113e-10 -5.59864e-13 0 2.79774e-10 0 2.79943e-10)
(2.80219e-10 -5.63987e-13 0 2.79906e-10 0 2.80062e-10)
(2.80318e-10 -5.67858e-13 0 2.8003e-10 0 2.80174e-10)
(2.80411e-10 -5.71491e-13 0 2.80146e-10 0 2.80279e-10)
(2.80499e-10 -5.74901e-13 0 2.80256e-10 0 2.80377e-10)
(2.80581e-10 -5.78099e-13 0 2.80358e-10 0 2.8047e-10)
(2.80658e-10 -5.81097e-13 0 2.80455e-10 0 2.80556e-10)
(2.80731e-10 -5.83907e-13 0 2.80545e-10 0 2.80638e-10)
(2.80799e-10 -5.8654e-13 0 2.8063e-10 0 2.80714e-10)
(2.80862e-10 -5.89005e-13 0 2.80709e-10 0 2.80786e-10)
(2.80922e-10 -5.91314e-13 0 2.80783e-10 0 2.80853e-10)
(2.80978e-10 -5.93474e-13 0 2.80853e-10 0 2.80915e-10)
(2.8103e-10 -5.95495e-13 0 2.80918e-10 0 2.80974e-10)
(2.81079e-10 -5.97385e-13 0 2.8098e-10 0 2.81029e-10)
(2.81125e-10 -5.99152e-13 0 2.81037e-10 0 2.81081e-10)
(2.81167e-10 -6.00803e-13 0 2.8109e-10 0 2.81129e-10)
(2.81207e-10 -6.02345e-13 0 2.8114e-10 0 2.81174e-10)
(2.81245e-10 -6.03785e-13 0 2.81187e-10 0 2.81216e-10)
(2.8128e-10 -6.05129e-13 0 2.81231e-10 0 2.81255e-10)
(2.81312e-10 -6.06383e-13 0 2.81271e-10 0 2.81292e-10)
(2.81343e-10 -6.07553e-13 0 2.81309e-10 0 2.81326e-10)
(2.81371e-10 -6.08643e-13 0 2.81345e-10 0 2.81358e-10)
(2.81398e-10 -6.09659e-13 0 2.81378e-10 0 2.81388e-10)
(2.81423e-10 -6.10606e-13 0 2.81409e-10 0 2.81416e-10)
(2.81446e-10 -6.11487e-13 0 2.81438e-10 0 2.81442e-10)
(2.81467e-10 -6.12307e-13 0 2.81465e-10 0 2.81466e-10)
(2.81487e-10 -6.1307e-13 0 2.8149e-10 0 2.81488e-10)
(2.81506e-10 -6.1378e-13 0 2.81513e-10 0 2.81509e-10)
(2.81523e-10 -6.1444e-13 0 2.81534e-10 0 2.81529e-10)
(2.81539e-10 -6.15053e-13 0 2.81555e-10 0 2.81547e-10)
(2.81554e-10 -6.15622e-13 0 2.81573e-10 0 2.81564e-10)
(2.81568e-10 -6.16151e-13 0 2.81591e-10 0 2.81579e-10)
(2.81581e-10 -6.16641e-13 0 2.81607e-10 0 2.81594e-10)
(2.81593e-10 -6.17095e-13 0 2.81622e-10 0 2.81607e-10)
(2.81604e-10 -6.17517e-13 0 2.81636e-10 0 2.8162e-10)
(2.81614e-10 -6.17907e-13 0 2.81649e-10 0 2.81631e-10)
(2.81624e-10 -6.18268e-13 0 2.8166e-10 0 2.81642e-10)
(2.81632e-10 -6.18603e-13 0 2.81672e-10 0 2.81652e-10)
(2.81641e-10 -6.18912e-13 0 2.81682e-10 0 2.81661e-10)
(2.81648e-10 -6.19198e-13 0 2.81691e-10 0 2.8167e-10)
(2.81655e-10 -6.19462e-13 0 2.817e-10 0 2.81678e-10)
(2.81662e-10 -6.19705e-13 0 2.81708e-10 0 2.81685e-10)
(2.81667e-10 -6.1993e-13 0 2.81715e-10 0 2.81691e-10)
(2.81673e-10 -6.20137e-13 0 2.81722e-10 0 2.81698e-10)
(2.81678e-10 -6.20327e-13 0 2.81728e-10 0 2.81703e-10)
(2.81682e-10 -6.20502e-13 0 2.81734e-10 0 2.81708e-10)
(2.81687e-10 -6.20663e-13 0 2.81739e-10 0 2.81713e-10)
(2.8169e-10 -6.2081e-13 0 2.81744e-10 0 2.81717e-10)
(2.81694e-10 -6.20944e-13 0 2.81748e-10 0 2.81721e-10)
(2.81697e-10 -6.21067e-13 0 2.81752e-10 0 2.81725e-10)
(2.817e-10 -6.21179e-13 0 2.81756e-10 0 2.81728e-10)
(2.81702e-10 -6.21281e-13 0 2.81759e-10 0 2.81731e-10)
(2.81705e-10 -6.21373e-13 0 2.81762e-10 0 2.81734e-10)
(2.81706e-10 -6.21455e-13 0 2.81764e-10 0 2.81736e-10)
(2.81709e-10 -6.2153e-13 0 2.81767e-10 0 2.81738e-10)
(2.81709e-10 -6.21595e-13 0 2.81768e-10 0 2.81739e-10)
(2.81712e-10 -6.21654e-13 0 2.81771e-10 0 2.81741e-10)
(2.81711e-10 -6.21702e-13 0 2.81771e-10 0 2.81741e-10)
(2.81713e-10 -6.21749e-13 0 2.81773e-10 0 2.81743e-10)
(2.81712e-10 -6.21782e-13 0 2.81772e-10 0 2.81743e-10)
(2.81715e-10 -6.21817e-13 0 2.81774e-10 0 2.81745e-10)
(2.81713e-10 -6.21835e-13 0 2.81773e-10 0 2.81743e-10)
(2.81715e-10 -6.2186e-13 0 2.81775e-10 0 2.81745e-10)
(2.81712e-10 -6.21865e-13 0 2.81772e-10 0 2.81742e-10)
(2.81714e-10 -6.21883e-13 0 2.81774e-10 0 2.81744e-10)
(2.81711e-10 -6.21876e-13 0 2.81771e-10 0 2.81741e-10)
(2.81713e-10 -6.21892e-13 0 2.81773e-10 0 2.81743e-10)
(2.81709e-10 -6.21875e-13 0 2.81769e-10 0 2.81739e-10)
(2.81713e-10 -6.21899e-13 0 2.81773e-10 0 2.81743e-10)
(2.81708e-10 -6.21874e-13 0 2.81768e-10 0 2.81738e-10)
(2.81714e-10 -6.21927e-13 0 2.81774e-10 0 2.81744e-10)
(2.81709e-10 -6.21897e-13 0 2.81769e-10 0 2.81739e-10)
(2.81717e-10 -6.22006e-13 0 2.81778e-10 0 2.81748e-10)
(2.81713e-10 -6.21984e-13 0 2.81773e-10 0 2.81743e-10)
(2.81725e-10 -6.22157e-13 0 2.81787e-10 0 2.81756e-10)
(2.81721e-10 -6.2218e-13 0 2.81784e-10 0 2.81753e-10)
(2.81733e-10 -6.22348e-13 0 2.81797e-10 0 2.81765e-10)
(2.81731e-10 -6.22396e-13 0 2.81795e-10 0 2.81764e-10)
(2.81747e-10 -6.22636e-13 0 2.81813e-10 0 2.8178e-10)
(2.81746e-10 -6.22735e-13 0 2.81813e-10 0 2.81779e-10)
(2.81755e-10 -6.22867e-13 0 2.81823e-10 0 2.81789e-10)
(2.81754e-10 -6.22928e-13 0 2.81822e-10 0 2.81788e-10)
(2.81759e-10 -6.22978e-13 0 2.81828e-10 0 2.81793e-10)
(2.81757e-10 -6.23002e-13 0 2.81826e-10 0 2.81791e-10)
(2.81759e-10 -6.23004e-13 0 2.81828e-10 0 2.81794e-10)
(2.81757e-10 -6.23002e-13 0 2.81826e-10 0 2.81791e-10)
(2.81758e-10 -6.22977e-13 0 2.81827e-10 0 2.81792e-10)
(2.81755e-10 -6.22957e-13 0 2.81824e-10 0 2.8179e-10)
(2.81755e-10 -6.22922e-13 0 2.81824e-10 0 2.8179e-10)
(2.81753e-10 -6.22894e-13 0 2.81821e-10 0 2.81787e-10)
(2.81753e-10 -6.22858e-13 0 2.8182e-10 0 2.81787e-10)
(2.8175e-10 -6.22829e-13 0 2.81818e-10 0 2.81784e-10)
(2.8175e-10 -6.22798e-13 0 2.81817e-10 0 2.81784e-10)
(2.81748e-10 -6.22771e-13 0 2.81815e-10 0 2.81782e-10)
(2.81748e-10 -6.22747e-13 0 2.81815e-10 0 2.81781e-10)
(2.81747e-10 -6.22725e-13 0 2.81814e-10 0 2.8178e-10)
(2.81746e-10 -6.22711e-13 0 2.81813e-10 0 2.8178e-10)
(2.81746e-10 -6.22694e-13 0 2.81812e-10 0 2.81779e-10)
(2.81746e-10 -6.22702e-13 0 2.81813e-10 0 2.81779e-10)
(2.81746e-10 -6.22675e-13 0 2.81813e-10 0 2.81779e-10)
(2.81752e-10 -6.22801e-13 0 2.8182e-10 0 2.81786e-10)
(2.81753e-10 -6.21765e-13 0 2.81822e-10 0 2.81788e-10)
(2.81972e-10 -6.24149e-13 0 2.82064e-10 0 2.82018e-10)
(2.85319e-10 -5.42704e-13 0 2.85451e-10 0 2.85385e-10)
(7.97679e-10 3.72248e-12 0 7.52206e-10 0 7.74913e-10)
(8.05352e-10 3.44977e-12 0 7.61643e-10 0 7.8347e-10)
(8.12725e-10 3.18364e-12 0 7.70748e-10 0 7.91712e-10)
(8.19806e-10 2.92436e-12 0 7.79524e-10 0 7.99642e-10)
(8.26599e-10 2.67209e-12 0 7.87974e-10 0 8.07266e-10)
(8.33115e-10 2.427e-12 0 7.96106e-10 0 8.14591e-10)
(8.39359e-10 2.18916e-12 0 8.03925e-10 0 8.21624e-10)
(8.45341e-10 1.95868e-12 0 8.11439e-10 0 8.28374e-10)
(8.51068e-10 1.73555e-12 0 8.18654e-10 0 8.34847e-10)
(8.5655e-10 1.51982e-12 0 8.2558e-10 0 8.41052e-10)
(8.61794e-10 1.31141e-12 0 8.32223e-10 0 8.46996e-10)
(8.66808e-10 1.11036e-12 0 8.3859e-10 0 8.52688e-10)
(8.71599e-10 9.16515e-13 0 8.4469e-10 0 8.58135e-10)
(8.76176e-10 7.29873e-13 0 8.50532e-10 0 8.63345e-10)
(8.80547e-10 5.50252e-13 0 8.56121e-10 0 8.68326e-10)
(8.84718e-10 3.77621e-13 0 8.61468e-10 0 8.73086e-10)
(8.88698e-10 2.1176e-13 0 8.66578e-10 0 8.77631e-10)
(8.92493e-10 5.26224e-14 0 8.71462e-10 0 8.81971e-10)
(8.96111e-10 -1.00036e-13 0 8.76125e-10 0 8.86112e-10)
(8.99558e-10 -2.46282e-13 0 8.80577e-10 0 8.90063e-10)
(9.02842e-10 -3.86364e-13 0 8.84824e-10 0 8.93828e-10)
(9.05968e-10 -5.20377e-13 0 8.88874e-10 0 8.97417e-10)
(9.08944e-10 -6.48559e-13 0 8.92735e-10 0 9.00836e-10)
(9.11775e-10 -7.71031e-13 0 8.96413e-10 0 9.04091e-10)
(9.14468e-10 -8.88017e-13 0 8.99916e-10 0 9.07189e-10)
(9.17028e-10 -9.99658e-13 0 9.03251e-10 0 9.10137e-10)
(9.19462e-10 -1.10617e-12 0 9.06425e-10 0 9.12941e-10)
(9.21774e-10 -1.20769e-12 0 9.09443e-10 0 9.15606e-10)
(9.23969e-10 -1.30444e-12 0 9.12313e-10 0 9.18139e-10)
(9.26054e-10 -1.39656e-12 0 9.1504e-10 0 9.20545e-10)
(9.28032e-10 -1.48424e-12 0 9.17632e-10 0 9.2283e-10)
(9.2991e-10 -1.56765e-12 0 9.20093e-10 0 9.25e-10)
(9.3169e-10 -1.64696e-12 0 9.22429e-10 0 9.27058e-10)
(9.33378e-10 -1.72232e-12 0 9.24646e-10 0 9.29011e-10)
(9.34978e-10 -1.79391e-12 0 9.26749e-10 0 9.30862e-10)
(9.36495e-10 -1.86188e-12 0 9.28743e-10 0 9.32618e-10)
(9.37931e-10 -1.92638e-12 0 9.30633e-10 0 9.34281e-10)
(9.39291e-10 -1.98756e-12 0 9.32424e-10 0 9.35857e-10)
(9.40578e-10 -2.04557e-12 0 9.34121e-10 0 9.37349e-10)
(9.41797e-10 -2.10055e-12 0 9.35728e-10 0 9.38762e-10)
(9.42949e-10 -2.15263e-12 0 9.37249e-10 0 9.40098e-10)
(9.4404e-10 -2.20195e-12 0 9.38688e-10 0 9.41363e-10)
(9.4507e-10 -2.24863e-12 0 9.40049e-10 0 9.42559e-10)