/*--------------------------------*- C++ -*----------------------------------*\
| =========                 |                                                 |
| \\      /  F ield         | OpenFOAM: The Open Source CFD Toolbox           |
|  \\    /   O peration     | Version:  v1912                                 |
|   \\  /    A nd           | Website:  www.openfoam.com                      |
|    \\/     M anipulation  |                                                 |
\*---------------------------------------------------------------------------*/
FoamFile
{
    version     2.0;
    format      ascii;
    class       volVectorField;
    location    "100";
    object      U;
}
// * * * * * * * * * * * * * * * * * * * * * * * * * * * * * * * * * * * * * //

dimensions      [0 1 -1 0 0 0 0];


internalField   nonuniform List<vector> 
14268
(
(0.0647533 0.00651196 0)
(0.0613118 0.00616602 0)
(0.0580376 0.00583689 0)
(0.0549234 0.00552384 0)
(0.0519623 0.00522616 0)
(0.0491476 0.0049432 0)
(0.0464728 0.0046743 0)
(0.0439318 0.00441884 0)
(0.0415186 0.00417622 0)
(0.0392274 0.00394586 0)
(0.0370527 0.00372721 0)
(0.0349892 0.00351973 0)
(0.0330317 0.0033229 0)
(0.0311754 0.00313624 0)
(0.0294155 0.00295927 0)
(0.0277474 0.00279154 0)
(0.026167 0.00263261 0)
(0.0246699 0.00248205 0)
(0.0232521 0.00233947 0)
(0.0219099 0.00220449 0)
(0.0206396 0.00207673 0)
(0.0194376 0.00195585 0)
(0.0183007 0.0018415 0)
(0.0172255 0.00173336 0)
(0.0162091 0.00163112 0)
(0.0152484 0.00153449 0)
(0.0143407 0.00144319 0)
(0.0134833 0.00135694 0)
(0.0126736 0.00127549 0)
(0.0119092 0.00119859 0)
(0.0111878 0.00112602 0)
(0.0105071 0.00105754 0)
(0.00986502 0.000992941 0)
(0.00925953 0.000932024 0)
(0.00868871 0.000874594 0)
(0.00815074 0.000820467 0)
(0.00764386 0.000769466 0)
(0.00716642 0.000721426 0)
(0.00671684 0.000676188 0)
(0.0062936 0.0006336 0)
(0.00589529 0.000593519 0)
(0.00552055 0.000555808 0)
(0.00516809 0.000520338 0)
(0.00483667 0.000486985 0)
(0.00452514 0.000455632 0)
(0.00423238 0.000426169 0)
(0.00395736 0.000398488 0)
(0.00369907 0.000372492 0)
(0.00345657 0.000348083 0)
(0.00322896 0.000325174 0)
(0.0030154 0.000303677 0)
(0.00281508 0.000283512 0)
(0.00262724 0.000264603 0)
(0.00245115 0.000246877 0)
(0.00228614 0.000230265 0)
(0.00213155 0.000214702 0)
(0.00198678 0.000200126 0)
(0.00185124 0.00018648 0)
(0.00172439 0.000173708 0)
(0.00160571 0.000161758 0)
(0.00149471 0.000150582 0)
(0.00139093 0.000140131 0)
(0.00129393 0.000130363 0)
(0.00120331 0.000121237 0)
(0.00111866 0.000112712 0)
(0.00103962 0.000104752 0)
(0.000965851 9.73225e-05 0)
(0.000897022 9.03902e-05 0)
(0.000832825 8.39242e-05 0)
(0.000772971 7.78953e-05 0)
(0.000717185 7.2276e-05 0)
(0.00066521 6.70404e-05 0)
(0.000616804 6.21641e-05 0)
(0.000571739 5.76242e-05 0)
(0.0005298 5.3399e-05 0)
(0.000490784 4.94682e-05 0)
(0.000454503 4.58127e-05 0)
(0.000420777 4.24145e-05 0)
(0.000389438 3.92568e-05 0)
(0.000360331 3.63238e-05 0)
(0.000333305 3.36004e-05 0)
(0.000308223 3.10728e-05 0)
(0.000284955 2.87278e-05 0)
(0.000263377 2.65531e-05 0)
(0.000243376 2.45373e-05 0)
(0.000224844 2.26694e-05 0)
(0.000207681 2.09394e-05 0)
(0.000191791 1.93377e-05 0)
(0.000177088 1.78555e-05 0)
(0.000163487 1.64844e-05 0)
(0.000150913 1.52168e-05 0)
(0.000139292 1.40452e-05 0)
(0.000128558 1.29628e-05 0)
(0.000118646 1.19634e-05 0)
(0.000109498 1.1041e-05 0)
(0.000101058 1.019e-05 0)
(9.32764e-05 9.40522e-06 0)
(8.61034e-05 8.68185e-06 0)
(7.94948e-05 8.01535e-06 0)
(7.34087e-05 7.40153e-06 0)
(6.78062e-05 6.83645e-06 0)
(6.26508e-05 6.31644e-06 0)
(5.79088e-05 5.83812e-06 0)
(5.35483e-05 5.39827e-06 0)
(4.95406e-05 4.99398e-06 0)
(4.58571e-05 4.6224e-06 0)
(4.24741e-05 4.28111e-06 0)
(3.93651e-05 3.96747e-06 0)
(3.65123e-05 3.67966e-06 0)
(3.3888e-05 3.41492e-06 0)
(3.14841e-05 3.17239e-06 0)
(2.92654e-05 2.94859e-06 0)
(2.72413e-05 2.74438e-06 0)
(2.53576e-05 2.55441e-06 0)
(2.36546e-05 2.38261e-06 0)
(2.20422e-05 2.22007e-06 0)
(2.0611e-05 2.0757e-06 0)
(1.92128e-05 1.93485e-06 0)
(1.80105e-05 1.81359e-06 0)
(1.67758e-05 1.68933e-06 0)
(1.57651e-05 1.58741e-06 0)
(1.4649e-05 1.47523e-06 0)
(1.37967e-05 1.3893e-06 0)
(1.27604e-05 1.28532e-06 0)
(1.20372e-05 1.21237e-06 0)
(1.10501e-05 1.11357e-06 0)
(1.04284e-05 1.05073e-06 0)
(9.47672e-06 9.55739e-07 0)
(8.9269e-06 8.99864e-07 0)
(8.02616e-06 8.10243e-07 0)
(7.52125e-06 7.58594e-07 0)
(6.70602e-06 6.77533e-07 0)
(6.24835e-06 6.3025e-07 0)
(5.59281e-06 5.65079e-07 0)
(5.18663e-06 5.22496e-07 0)
(4.7906e-06 4.83075e-07 0)
(4.46057e-06 4.48094e-07 0)
(4.33876e-06 4.35886e-07 0)
(4.1128e-06 4.11134e-07 0)
(4.31163e-06 4.30746e-07 0)
(4.22864e-06 4.20914e-07 0)
(4.63631e-06 4.61592e-07 0)
(4.65536e-06 4.62809e-07 0)
(5.1168e-06 5.08998e-07 0)
(5.20275e-06 5.17309e-07 0)
(5.64651e-06 5.61863e-07 0)
(5.76787e-06 5.73935e-07 0)
(6.15761e-06 6.13167e-07 0)
(6.291e-06 6.26546e-07 0)
(6.61517e-06 6.59254e-07 0)
(6.74554e-06 6.72359e-07 0)
(7.0075e-06 6.98843e-07 0)
(7.1262e-06 7.10776e-07 0)
(7.33665e-06 7.3208e-07 0)
(7.43911e-06 7.4237e-07 0)
(7.61231e-06 7.59904e-07 0)
(7.69625e-06 7.68313e-07 0)
(7.85019e-06 7.83852e-07 0)
(7.91379e-06 7.90148e-07 0)
(8.08173e-06 8.07013e-07 0)
(8.12337e-06 8.10379e-07 0)
(8.4583e-06 8.43846e-07 0)
(8.49425e-06 8.22445e-07 0)
(1.36846e-05 1.34159e-06 0)
(0.0646158 0.00657104 0)
(0.0611814 0.0062223 0)
(0.0579139 0.00589048 0)
(0.0548061 0.00557486 0)
(0.0518511 0.00527472 0)
(0.0490422 0.0049894 0)
(0.046373 0.00471824 0)
(0.0438374 0.00446062 0)
(0.0414292 0.00421593 0)
(0.0391428 0.00398359 0)
(0.0369727 0.00376305 0)
(0.0349135 0.00355377 0)
(0.0329601 0.00335522 0)
(0.0311077 0.00316691 0)
(0.0293516 0.00298838 0)
(0.0276871 0.00281914 0)
(0.02611 0.00265878 0)
(0.024616 0.00250686 0)
(0.0232013 0.00236299 0)
(0.021862 0.00222677 0)
(0.0205944 0.00209783 0)
(0.019395 0.00197583 0)
(0.0182605 0.00186041 0)
(0.0171877 0.00175125 0)
(0.0161734 0.00164805 0)
(0.0152148 0.0015505 0)
(0.0143091 0.00145832 0)
(0.0134535 0.00137125 0)
(0.0126456 0.00128901 0)
(0.0118829 0.00121137 0)
(0.011163 0.00113808 0)
(0.0104838 0.00106893 0)
(0.00984309 0.00100369 0)
(0.00923892 0.000942166 0)
(0.00866935 0.000884161 0)
(0.00813255 0.000829488 0)
(0.00762678 0.000777971 0)
(0.00715038 0.000729441 0)
(0.00670178 0.000683739 0)
(0.00627948 0.000640712 0)
(0.00588204 0.000600216 0)
(0.00550812 0.000562112 0)
(0.00515643 0.00052627 0)
(0.00482574 0.000492565 0)
(0.0045149 0.00046088 0)
(0.00422279 0.000431102 0)
(0.00394837 0.000403125 0)
(0.00369065 0.000376848 0)
(0.00344868 0.000352174 0)
(0.00322158 0.000329015 0)
(0.00300849 0.000307282 0)
(0.00280861 0.000286895 0)
(0.00262119 0.000267776 0)
(0.00244549 0.000249852 0)
(0.00228085 0.000233053 0)
(0.0021266 0.000217314 0)
(0.00198215 0.000202573 0)
(0.00184692 0.000188771 0)
(0.00172035 0.000175853 0)
(0.00160194 0.000163765 0)
(0.00149118 0.000152458 0)
(0.00138763 0.000141886 0)
(0.00129085 0.000132003 0)
(0.00120042 0.000122768 0)
(0.00111596 0.000114142 0)
(0.00103711 0.000106087 0)
(0.000963501 9.85682e-05 0)
(0.000894827 9.15519e-05 0)
(0.000830774 8.50072e-05 0)
(0.000771054 7.89044e-05 0)
(0.000715393 7.32159e-05 0)
(0.000663535 6.79154e-05 0)
(0.000615238 6.29783e-05 0)
(0.000570274 5.83813e-05 0)
(0.000528429 5.41028e-05 0)
(0.000489502 5.01221e-05 0)
(0.000453302 4.64198e-05 0)
(0.000419652 4.2978e-05 0)
(0.000388385 3.97795e-05 0)
(0.000359343 3.68082e-05 0)
(0.000332378 3.40492e-05 0)
(0.000307353 3.14882e-05 0)
(0.000284138 2.91122e-05 0)
(0.000262609 2.69085e-05 0)
(0.000242653 2.48655e-05 0)
(0.000224164 2.29724e-05 0)
(0.000207039 2.12189e-05 0)
(0.000191186 1.95953e-05 0)
(0.000176516 1.80927e-05 0)
(0.000162946 1.67026e-05 0)
(0.000150401 1.54172e-05 0)
(0.000138806 1.42292e-05 0)
(0.000128096 1.31316e-05 0)
(0.000118207 1.2118e-05 0)
(0.00010908 1.11824e-05 0)
(0.00010066 1.03191e-05 0)
(9.28957e-05 9.52296e-06 0)
(8.57391e-05 8.78905e-06 0)
(7.91457e-05 8.11279e-06 0)
(7.30736e-05 7.48991e-06 0)
(6.74839e-05 6.91645e-06 0)
(6.23403e-05 6.38869e-06 0)
(5.76092e-05 5.9032e-06 0)
(5.32588e-05 5.45673e-06 0)
(4.92602e-05 5.04632e-06 0)
(4.55852e-05 4.6691e-06 0)
(4.221e-05 4.32261e-06 0)
(3.91081e-05 4.00418e-06 0)
(3.62618e-05 3.71196e-06 0)
(3.36436e-05 3.44319e-06 0)
(3.12451e-05 3.19694e-06 0)
(2.90315e-05 2.96977e-06 0)
(2.70119e-05 2.76243e-06 0)
(2.51324e-05 2.56968e-06 0)
(2.34333e-05 2.39526e-06 0)
(2.18244e-05 2.23047e-06 0)
(2.03963e-05 2.08391e-06 0)
(1.90011e-05 1.94128e-06 0)
(1.78014e-05 1.81823e-06 0)
(1.65691e-05 1.69261e-06 0)
(1.55606e-05 1.58924e-06 0)
(1.44465e-05 1.4761e-06 0)
(1.35961e-05 1.38897e-06 0)
(1.25614e-05 1.28444e-06 0)
(1.18396e-05 1.21041e-06 0)
(1.0854e-05 1.11151e-06 0)
(1.02335e-05 1.04748e-06 0)
(9.28292e-06 9.52938e-07 0)
(8.73423e-06 8.95408e-07 0)
(7.83436e-06 8.0676e-07 0)
(7.33051e-06 7.52916e-07 0)
(6.51602e-06 6.72831e-07 0)
(6.05942e-06 6.22636e-07 0)
(5.4045e-06 5.58277e-07 0)
(4.99944e-06 5.11856e-07 0)
(4.60398e-06 4.72854e-07 0)
(4.27495e-06 4.34011e-07 0)
(4.15363e-06 4.21722e-07 0)
(3.92866e-06 3.92741e-07 0)
(4.12798e-06 4.11791e-07 0)
(4.04564e-06 3.99131e-07 0)
(4.45359e-06 4.39627e-07 0)
(4.47289e-06 4.39515e-07 0)
(4.93447e-06 4.85821e-07 0)
(5.02049e-06 4.93578e-07 0)
(5.46428e-06 5.3847e-07 0)
(5.58561e-06 5.50434e-07 0)
(5.97532e-06 5.90157e-07 0)
(6.10863e-06 6.03619e-07 0)
(6.43274e-06 6.36882e-07 0)
(6.56302e-06 6.50127e-07 0)
(6.82491e-06 6.77156e-07 0)
(6.94353e-06 6.89218e-07 0)
(7.15391e-06 7.11011e-07 0)
(7.25631e-06 7.21393e-07 0)
(7.42945e-06 7.39325e-07 0)
(7.51335e-06 7.47772e-07 0)
(7.66724e-06 7.63581e-07 0)
(7.73086e-06 7.6975e-07 0)
(7.89875e-06 7.86757e-07 0)
(7.94069e-06 7.88582e-07 0)
(8.27508e-06 8.2187e-07 0)
(8.31975e-06 7.51655e-07 0)
(1.3462e-05 1.26632e-06 0)
(0.0645548 0.00663805 0)
(0.0611237 0.00628608 0)
(0.0578592 0.00595117 0)
(0.0547544 0.00563258 0)
(0.0518022 0.00532961 0)
(0.0489959 0.00504158 0)
(0.0463292 0.00476783 0)
(0.0437959 0.00450773 0)
(0.04139 0.00426068 0)
(0.0391058 0.00402608 0)
(0.0369377 0.00380338 0)
(0.0348804 0.00359204 0)
(0.0329289 0.00339152 0)
(0.0310782 0.00320135 0)
(0.0293237 0.00302102 0)
(0.0276607 0.00285009 0)
(0.0260851 0.0026881 0)
(0.0245925 0.00253464 0)
(0.0231792 0.00238929 0)
(0.0218411 0.00225167 0)
(0.0205747 0.0021214 0)
(0.0193764 0.00199813 0)
(0.018243 0.0018815 0)
(0.0171711 0.0017712 0)
(0.0161578 0.00166691 0)
(0.0152001 0.00156833 0)
(0.0142952 0.00147517 0)
(0.0134404 0.00138715 0)
(0.0126333 0.00130403 0)
(0.0118713 0.00122555 0)
(0.0111521 0.00115146 0)
(0.0104735 0.00108155 0)
(0.00983338 0.0010156 0)
(0.00922978 0.000953397 0)
(0.00866074 0.000894747 0)
(0.00812445 0.000839465 0)
(0.00761915 0.00078737 0)
(0.0071432 0.000738293 0)
(0.00669502 0.000692074 0)
(0.00627312 0.000648557 0)
(0.00587606 0.000607597 0)
(0.00550249 0.000569055 0)
(0.00515113 0.000532799 0)
(0.00482075 0.000498703 0)
(0.0045102 0.000466647 0)
(0.00421837 0.00043652 0)
(0.00394421 0.000408213 0)
(0.00368673 0.000381625 0)
(0.003445 0.000356658 0)
(0.00321811 0.000333221 0)
(0.00300522 0.000311226 0)
(0.00280554 0.000290593 0)
(0.00261829 0.000271241 0)
(0.00244276 0.000253098 0)
(0.00227827 0.000236093 0)
(0.00212418 0.00022016 0)
(0.00197987 0.000205237 0)
(0.00184476 0.000191263 0)
(0.00171831 0.000178182 0)
(0.00160001 0.000165942 0)
(0.00148937 0.000154492 0)
(0.00138592 0.000143785 0)
(0.00128923 0.000133777 0)
(0.00119889 0.000124423 0)
(0.00111451 0.000115686 0)
(0.00103573 0.000107526 0)
(0.000962197 9.99088e-05 0)
(0.000893589 9.28004e-05 0)
(0.000829598 8.61693e-05 0)
(0.000769936 7.99856e-05 0)
(0.00071433 7.42212e-05 0)
(0.000662523 6.88497e-05 0)
(0.000614273 6.3846e-05 0)
(0.000569354 5.91868e-05 0)
(0.00052755 5.48499e-05 0)
(0.00048866 5.08147e-05 0)
(0.000452496 4.70615e-05 0)
(0.00041888 4.3572e-05 0)
(0.000387643 4.03289e-05 0)
(0.00035863 3.7316e-05 0)
(0.000331693 3.45181e-05 0)
(0.000306693 3.19209e-05 0)
(0.0002835 2.9511e-05 0)
(0.000261993 2.72758e-05 0)
(0.000242057 2.52034e-05 0)
(0.000223586 2.32829e-05 0)
(0.000206478 2.15038e-05 0)
(0.000190641 1.98564e-05 0)
(0.000175986 1.83316e-05 0)
(0.00016243 1.6921e-05 0)
(0.000149897 1.56165e-05 0)
(0.000138315 1.44106e-05 0)
(0.000127615 1.32965e-05 0)
(0.000117736 1.22675e-05 0)
(0.000108618 1.13176e-05 0)
(0.000100207 1.04411e-05 0)
(9.24506e-05 9.63268e-06 0)
(8.53014e-05 8.88739e-06 0)
(7.87147e-05 8.20059e-06 0)
(7.26488e-05 7.56795e-06 0)
(6.70649e-05 6.98546e-06 0)
(6.19266e-05 6.44935e-06 0)
(5.72004e-05 5.95614e-06 0)
(5.28544e-05 5.50254e-06 0)
(4.886e-05 5.08555e-06 0)
(4.51888e-05 4.70227e-06 0)
(4.18171e-05 4.35019e-06 0)
(3.87184e-05 4.02663e-06 0)
(3.5875e-05 3.72967e-06 0)
(3.32595e-05 3.45657e-06 0)
(3.08634e-05 3.20633e-06 0)
(2.86521e-05 2.97554e-06 0)
(2.66346e-05 2.76484e-06 0)
(2.4757e-05 2.5691e-06 0)
(2.30596e-05 2.39188e-06 0)
(2.14523e-05 2.22466e-06 0)
(2.00257e-05 2.07577e-06 0)
(1.86318e-05 1.93122e-06 0)
(1.74333e-05 1.80626e-06 0)
(1.62021e-05 1.67914e-06 0)
(1.51946e-05 1.57424e-06 0)
(1.40814e-05 1.46002e-06 0)
(1.32317e-05 1.37162e-06 0)
(1.21978e-05 1.26645e-06 0)
(1.14768e-05 1.19127e-06 0)
(1.04917e-05 1.0922e-06 0)
(9.87183e-06 1.02693e-06 0)
(8.92168e-06 9.32757e-07 0)
(8.37355e-06 8.73556e-07 0)
(7.47405e-06 7.85799e-07 0)
(6.97076e-06 7.29759e-07 0)
(6.1566e-06 6.50575e-07 0)
(5.70064e-06 5.9748e-07 0)
(5.04603e-06 5.3386e-07 0)
(4.64172e-06 4.83662e-07 0)
(4.2466e-06 4.45004e-07 0)
(3.91828e-06 4.02353e-07 0)
(3.79729e-06 3.89994e-07 0)
(3.57307e-06 3.56873e-07 0)
(3.77275e-06 3.75365e-07 0)
(3.69087e-06 3.59704e-07 0)
(4.09904e-06 4.00003e-07 0)
(4.11848e-06 3.98564e-07 0)
(4.58012e-06 4.44932e-07 0)
(4.66612e-06 4.52153e-07 0)
(5.1099e-06 4.97372e-07 0)
(5.23112e-06 5.0923e-07 0)
(5.62076e-06 5.49435e-07 0)
(5.75394e-06 5.62996e-07 0)
(6.07797e-06 5.96806e-07 0)
(6.20812e-06 6.10203e-07 0)
(6.46991e-06 6.37777e-07 0)
(6.58842e-06 6.49978e-07 0)
(6.79871e-06 6.72263e-07 0)
(6.90102e-06 6.82745e-07 0)
(7.07409e-06 7.01082e-07 0)
(7.15792e-06 7.09569e-07 0)
(7.31176e-06 7.25657e-07 0)
(7.37536e-06 7.31689e-07 0)
(7.5432e-06 7.48843e-07 0)
(7.58541e-06 7.49078e-07 0)
(7.919e-06 7.82079e-07 0)
(7.97108e-06 6.6341e-07 0)
(1.30129e-05 1.16842e-06 0)
(0.0645217 0.00670751 0)
(0.0610923 0.00635219 0)
(0.0578295 0.00601407 0)
(0.0547262 0.00569241 0)
(0.0517755 0.0053865 0)
(0.0489707 0.00509566 0)
(0.0463053 0.00481922 0)
(0.0437733 0.00455656 0)
(0.0413686 0.00430705 0)
(0.0390855 0.00407011 0)
(0.0369184 0.00384517 0)
(0.0348622 0.00363169 0)
(0.0329117 0.00342914 0)
(0.0310619 0.00323701 0)
(0.0293082 0.00305483 0)
(0.0276461 0.00288213 0)
(0.0260713 0.00271846 0)
(0.0245795 0.0025634 0)
(0.0231668 0.00241652 0)
(0.0218294 0.00227745 0)
(0.0205636 0.0021458 0)
(0.019366 0.00202121 0)
(0.0182331 0.00190333 0)
(0.0171618 0.00179184 0)
(0.016149 0.00168642 0)
(0.0151917 0.00158676 0)
(0.0142873 0.00149258 0)
(0.013433 0.00140361 0)
(0.0126262 0.00131956 0)
(0.0118646 0.00124021 0)
(0.0111457 0.0011653 0)
(0.0104675 0.0010946 0)
(0.00982774 0.00102791 0)
(0.00922445 0.000964998 0)
(0.0086557 0.000905682 0)
(0.00811968 0.000849766 0)
(0.00761464 0.000797073 0)
(0.00713893 0.00074743 0)
(0.00669098 0.000700674 0)
(0.00626929 0.00065665 0)
(0.00587243 0.00061521 0)
(0.00549906 0.000576214 0)
(0.00514788 0.000539529 0)
(0.00481767 0.000505028 0)
(0.00450728 0.00047259 0)
(0.0042156 0.000442101 0)
(0.00394158 0.000413453 0)
(0.00368424 0.000386542 0)
(0.00344263 0.000361271 0)
(0.00321586 0.000337548 0)
(0.00300309 0.000315283 0)
(0.00280351 0.000294394 0)
(0.00261636 0.000274803 0)
(0.00244092 0.000256434 0)
(0.00227652 0.000239216 0)
(0.00212251 0.000223082 0)
(0.00197827 0.000207969 0)
(0.00184324 0.000193818 0)
(0.00171686 0.00018057 0)
(0.00159862 0.000168173 0)
(0.00148803 0.000156575 0)
(0.00138464 0.00014573 0)
(0.001288 0.00013559 0)
(0.00119771 0.000126114 0)
(0.00111338 0.000117262 0)
(0.00103464 0.000108994 0)
(0.000961148 0.000101275 0)
(0.000892577 9.40721e-05 0)
(0.000828622 8.73519e-05 0)
(0.000768993 8.10847e-05 0)
(0.000713417 7.52421e-05 0)
(0.000661638 6.97972e-05 0)
(0.000613415 6.4725e-05 0)
(0.00056852 6.00015e-05 0)
(0.00052674 5.56046e-05 0)
(0.000487872 5.15131e-05 0)
(0.000451728 4.77073e-05 0)
(0.000418131 4.41687e-05 0)
(0.000386912 4.08797e-05 0)
(0.000357915 3.7824e-05 0)
(0.000330993 3.49861e-05 0)
(0.000306007 3.23516e-05 0)
(0.000282827 2.99068e-05 0)
(0.000261333 2.76391e-05 0)
(0.000241408 2.55364e-05 0)
(0.000222948 2.35877e-05 0)
(0.00020585 2.17823e-05 0)
(0.000190022 2.01104e-05 0)
(0.000175375 1.85629e-05 0)
(0.000161827 1.71311e-05 0)
(0.000149302 1.58069e-05 0)
(0.000137726 1.45827e-05 0)
(0.000127033 1.34515e-05 0)
(0.00011716 1.24068e-05 0)
(0.000108047 1.14422e-05 0)
(9.9641e-05 1.05521e-05 0)
(9.18892e-05 9.73113e-06 0)
(8.47443e-05 8.97415e-06 0)
(7.81616e-05 8.27652e-06 0)
(7.20993e-05 7.63387e-06 0)
(6.65188e-05 7.04211e-06 0)
(6.13836e-05 6.49743e-06 0)
(5.66602e-05 5.9963e-06 0)
(5.23169e-05 5.53539e-06 0)
(4.83249e-05 5.11165e-06 0)
(4.4656e-05 4.72215e-06 0)
(4.12863e-05 4.36434e-06 0)
(3.81896e-05 4.03551e-06 0)
(3.53479e-05 3.7337e-06 0)
(3.2734e-05 3.45616e-06 0)
(3.03394e-05 3.20183e-06 0)
(2.81294e-05 2.96733e-06 0)
(2.61131e-05 2.75319e-06 0)
(2.42367e-05 2.55439e-06 0)
(2.25403e-05 2.37428e-06 0)
(2.09339e-05 2.20457e-06 0)
(1.95082e-05 2.0533e-06 0)
(1.81151e-05 1.90676e-06 0)
(1.69173e-05 1.77985e-06 0)
(1.56868e-05 1.6512e-06 0)
(1.46798e-05 1.54471e-06 0)
(1.35671e-05 1.42937e-06 0)
(1.2718e-05 1.33967e-06 0)
(1.16844e-05 1.23382e-06 0)
(1.09638e-05 1.15747e-06 0)
(9.97905e-06 1.05819e-06 0)
(9.35955e-06 9.91675e-07 0)
(8.40966e-06 8.97833e-07 0)
(7.86188e-06 8.36963e-07 0)
(6.96258e-06 7.50048e-07 0)
(6.45967e-06 6.91828e-07 0)
(5.6457e-06 6.13487e-07 0)
(5.19021e-06 5.57522e-07 0)
(4.5358e-06 4.94584e-07 0)
(4.13211e-06 4.40614e-07 0)
(3.73725e-06 4.02263e-07 0)
(3.40952e-06 3.55838e-07 0)
(3.28883e-06 3.43299e-07 0)
(3.06526e-06 3.06095e-07 0)
(3.26527e-06 3.23908e-07 0)
(3.1838e-06 3.05404e-07 0)
(3.59218e-06 3.45451e-07 0)
(3.61172e-06 3.42711e-07 0)
(4.07344e-06 3.8914e-07 0)
(4.1594e-06 3.9584e-07 0)
(4.60316e-06 4.41353e-07 0)
(4.72427e-06 4.53135e-07 0)
(5.11384e-06 4.938e-07 0)
(5.24688e-06 5.0747e-07 0)
(5.57082e-06 5.41813e-07 0)
(5.70083e-06 5.55371e-07 0)
(5.96253e-06 5.83475e-07 0)
(6.08092e-06 5.95821e-07 0)
(6.29113e-06 6.18587e-07 0)
(6.39334e-06 6.29172e-07 0)
(6.56634e-06 6.47905e-07 0)
(6.6501e-06 6.56432e-07 0)
(6.80389e-06 6.72794e-07 0)
(6.86748e-06 6.78692e-07 0)
(7.03527e-06 6.95987e-07 0)
(7.07773e-06 6.94659e-07 0)
(7.41024e-06 7.27281e-07 0)
(7.46837e-06 5.61323e-07 0)
(1.23473e-05 1.05044e-06 0)
(0.0644988 0.00677802 0)
(0.0610705 0.00641929 0)
(0.0578089 0.00607791 0)
(0.0547066 0.00575312 0)
(0.0517569 0.00544422 0)
(0.048953 0.00515052 0)
(0.0462886 0.00487135 0)
(0.0437574 0.00460607 0)
(0.0413535 0.00435407 0)
(0.0390712 0.00411474 0)
(0.0369049 0.00388753 0)
(0.0348493 0.00367187 0)
(0.0328995 0.00346725 0)
(0.0310503 0.00327315 0)
(0.0292973 0.00308909 0)
(0.0276357 0.0029146 0)
(0.0260614 0.00274922 0)
(0.0245701 0.00259252 0)
(0.0231579 0.0024441 0)
(0.021821 0.00230355 0)
(0.0205556 0.00217049 0)
(0.0193584 0.00204457 0)
(0.0182259 0.00192543 0)
(0.0171549 0.00181273 0)
(0.0161425 0.00170616 0)
(0.0151856 0.00160542 0)
(0.0142815 0.0015102 0)
(0.0134275 0.00142024 0)
(0.012621 0.00133527 0)
(0.0118596 0.00125503 0)
(0.011141 0.00117928 0)
(0.010463 0.00110779 0)
(0.00982348 0.00104034 0)
(0.00922039 0.00097672 0)
(0.00865185 0.000916727 0)
(0.00811601 0.000860171 0)
(0.00761116 0.000806871 0)
(0.00713562 0.000756654 0)
(0.00668783 0.000709355 0)
(0.00626629 0.000664817 0)
(0.00586958 0.000622892 0)
(0.00549634 0.000583436 0)
(0.00514528 0.000546317 0)
(0.0048152 0.000511406 0)
(0.00450492 0.00047858 0)
(0.00421334 0.000447726 0)
(0.00393943 0.000418732 0)
(0.00368218 0.000391496 0)
(0.00344066 0.000365917 0)
(0.00321398 0.000341903 0)
(0.00300128 0.000319365 0)
(0.00280177 0.000298219 0)
(0.00261469 0.000278385 0)
(0.00243932 0.000259787 0)
(0.00227498 0.000242353 0)
(0.00212103 0.000226017 0)
(0.00197685 0.000210713 0)
(0.00184187 0.000196382 0)
(0.00171554 0.000182965 0)
(0.00159734 0.000170409 0)
(0.0014868 0.000158662 0)
(0.00138345 0.000147676 0)
(0.00128685 0.000137405 0)
(0.00119659 0.000127805 0)
(0.00111229 0.000118837 0)
(0.00103358 0.00011046 0)
(0.000960118 0.000102639 0)
(0.000891575 9.53398e-05 0)
(0.000827645 8.85297e-05 0)
(0.000768039 8.21782e-05 0)
(0.000712486 7.62566e-05 0)
(0.000660728 7.07378e-05 0)
(0.000612524 6.55963e-05 0)
(0.000567648 6.08081e-05 0)
(0.000525884 5.63506e-05 0)
(0.000487032 5.22024e-05 0)
(0.000450903 4.83437e-05 0)
(0.000417319 4.47555e-05 0)
(0.000386113 4.14203e-05 0)
(0.000357129 3.83214e-05 0)
(0.000330218 3.54432e-05 0)
(0.000305242 3.2771e-05 0)
(0.000282072 3.02912e-05 0)
(0.000260587 2.79907e-05 0)
(0.000240671 2.58576e-05 0)
(0.000222218 2.38804e-05 0)
(0.000205128 2.20486e-05 0)
(0.000189306 2.03521e-05 0)
(0.000174666 1.87817e-05 0)
(0.000161124 1.73286e-05 0)
(0.000148604 1.59845e-05 0)
(0.000137033 1.4742e-05 0)
(0.000126345 1.35937e-05 0)
(0.000116476 1.25331e-05 0)
(0.000107367 1.15538e-05 0)
(9.89646e-05 1.06501e-05 0)
(9.12164e-05 9.81642e-06 0)
(8.40746e-05 9.04772e-06 0)
(7.74949e-05 8.33924e-06 0)
(7.14353e-05 7.68654e-06 0)
(6.58573e-05 7.08549e-06 0)
(6.07244e-05 6.53222e-06 0)
(5.60033e-05 6.02315e-06 0)
(5.16619e-05 5.55492e-06 0)
(4.76718e-05 5.12443e-06 0)
(4.40045e-05 4.7287e-06 0)
(4.06364e-05 4.36516e-06 0)
(3.75411e-05 4.03105e-06 0)
(3.47007e-05 3.72441e-06 0)
(3.2088e-05 3.44242e-06 0)
(2.96946e-05 3.18401e-06 0)
(2.74856e-05 2.9458e-06 0)
(2.54702e-05 2.72824e-06 0)
(2.35946e-05 2.52637e-06 0)
(2.1899e-05 2.3434e-06 0)
(2.02934e-05 2.17121e-06 0)
(1.88683e-05 2.01756e-06 0)
(1.74757e-05 1.86904e-06 0)
(1.62785e-05 1.74019e-06 0)
(1.50485e-05 1.61e-06 0)
(1.40419e-05 1.50195e-06 0)
(1.29296e-05 1.3855e-06 0)
(1.20808e-05 1.29451e-06 0)
(1.10476e-05 1.18796e-06 0)
(1.03272e-05 1.11048e-06 0)
(9.34275e-06 1.01096e-06 0)
(8.7235e-06 9.43242e-07 0)
(7.77378e-06 8.49677e-07 0)
(7.22626e-06 7.87204e-07 0)
(6.32709e-06 7.01059e-07 0)
(5.82447e-06 6.40748e-07 0)
(5.01063e-06 5.63168e-07 0)
(4.55555e-06 5.0444e-07 0)
(3.90129e-06 4.42099e-07 0)
(3.49812e-06 3.84528e-07 0)
(3.1035e-06 3.46371e-07 0)
(2.77629e-06 2.9635e-07 0)
(2.65591e-06 2.83621e-07 0)
(2.43293e-06 2.42559e-07 0)
(2.63329e-06 2.59658e-07 0)
(2.55223e-06 2.38127e-07 0)
(2.96084e-06 2.77876e-07 0)
(2.98048e-06 2.73871e-07 0)
(3.4423e-06 3.20278e-07 0)
(3.52821e-06 3.26504e-07 0)
(3.97198e-06 3.72291e-07 0)
(4.09297e-06 3.84021e-07 0)
(4.4825e-06 4.25131e-07 0)
(4.61539e-06 4.38949e-07 0)
(4.93925e-06 4.73816e-07 0)
(5.06913e-06 4.87564e-07 0)
(5.33075e-06 5.16202e-07 0)
(5.44901e-06 5.28717e-07 0)
(5.65915e-06 5.51971e-07 0)
(5.76126e-06 5.62673e-07 0)
(5.9342e-06 5.81815e-07 0)
(6.01789e-06 5.9039e-07 0)
(6.17164e-06 6.07039e-07 0)
(6.23521e-06 6.12794e-07 0)
(6.40296e-06 6.30241e-07 0)
(6.44567e-06 6.27282e-07 0)
(6.77683e-06 6.59443e-07 0)
(6.83969e-06 4.47446e-07 0)
(1.14794e-05 9.13034e-07 0)
(0.0644799 0.00684892 0)
(0.0610525 0.00648676 0)
(0.0577917 0.00614208 0)
(0.0546903 0.00581415 0)
(0.0517414 0.00550224 0)
(0.0489383 0.00520566 0)
(0.0462746 0.00492374 0)
(0.0437441 0.00465583 0)
(0.0413408 0.00440132 0)
(0.0390591 0.00415959 0)
(0.0368935 0.00393009 0)
(0.0348385 0.00371225 0)
(0.0328891 0.00350555 0)
(0.0310405 0.00330946 0)
(0.0292879 0.00312351 0)
(0.0276269 0.00294721 0)
(0.026053 0.00278011 0)
(0.0245621 0.00262178 0)
(0.0231503 0.00247179 0)
(0.0218137 0.00232976 0)
(0.0205487 0.0021953 0)
(0.0193518 0.00206803 0)
(0.0182197 0.00194761 0)
(0.017149 0.0018337 0)
(0.0161369 0.00172598 0)
(0.0151803 0.00162414 0)
(0.0142764 0.00152789 0)
(0.0134226 0.00143694 0)
(0.0126164 0.00135103 0)
(0.0118552 0.00126991 0)
(0.0111368 0.00119332 0)
(0.010459 0.00112103 0)
(0.00981968 0.00105282 0)
(0.00921678 0.000988481 0)
(0.0086484 0.000927809 0)
(0.00811273 0.00087061 0)
(0.00760802 0.000816701 0)
(0.00713263 0.000765907 0)
(0.00668497 0.000718062 0)
(0.00626356 0.000673008 0)
(0.00586696 0.000630595 0)
(0.00549384 0.000590679 0)
(0.00514289 0.000553123 0)
(0.00481291 0.0005178 0)
(0.00450272 0.000484585 0)
(0.00421124 0.000453363 0)
(0.00393741 0.000424023 0)
(0.00368024 0.000396459 0)
(0.00343879 0.000370572 0)
(0.00321218 0.000346267 0)
(0.00299955 0.000323454 0)
(0.00280011 0.000302049 0)
(0.00261309 0.000281971 0)
(0.00243777 0.000263143 0)
(0.00227349 0.000245493 0)
(0.00211958 0.000228953 0)
(0.00197545 0.000213458 0)
(0.00184051 0.000198946 0)
(0.00171422 0.00018536 0)
(0.00159606 0.000172645 0)
(0.00148556 0.000160748 0)
(0.00138224 0.000149621 0)
(0.00128567 0.000139217 0)
(0.00119544 0.000129494 0)
(0.00111117 0.000120408 0)
(0.00103249 0.000111922 0)
(0.000959051 0.000103999 0)
(0.000890531 9.6603e-05 0)
(0.000826623 8.97027e-05 0)
(0.000767038 8.32666e-05 0)
(0.000711503 7.72658e-05 0)
(0.000659763 7.16728e-05 0)
(0.000611576 6.64618e-05 0)
(0.000566715 6.16085e-05 0)
(0.000524966 5.70902e-05 0)
(0.000486128 5.28851e-05 0)
(0.000450012 4.89732e-05 0)
(0.00041644 4.53354e-05 0)
(0.000385245 4.19537e-05 0)
(0.000356271 3.88115e-05 0)
(0.000329369 3.58928e-05 0)
(0.000304403 3.31829e-05 0)
(0.000281242 3.06678e-05 0)
(0.000259764 2.83346e-05 0)
(0.000239855 2.61709e-05 0)
(0.000221409 2.41652e-05 0)
(0.000204325 2.23068e-05 0)
(0.00018851 2.05857e-05 0)
(0.000173875 1.89923e-05 0)
(0.000160338 1.75178e-05 0)
(0.000147822 1.61539e-05 0)
(0.000136256 1.48929e-05 0)
(0.000125572 1.37275e-05 0)
(0.000115707 1.26509e-05 0)
(0.000106602 1.16569e-05 0)
(9.82024e-05 1.07394e-05 0)
(9.04571e-05 9.89307e-06 0)
(8.33182e-05 9.11261e-06 0)
(7.6741e-05 8.39323e-06 0)
(7.06839e-05 7.73045e-06 0)
(6.5108e-05 7.12008e-06 0)
(5.99772e-05 6.5582e-06 0)
(5.52579e-05 6.04118e-06 0)
(5.09184e-05 5.56559e-06 0)
(4.69298e-05 5.12833e-06 0)
(4.32641e-05 4.72636e-06 0)
(3.98973e-05 4.35707e-06 0)
(3.68032e-05 4.01768e-06 0)
(3.39641e-05 3.70617e-06 0)
(3.13524e-05 3.41974e-06 0)
(2.89599e-05 3.15724e-06 0)
(2.67519e-05 2.91531e-06 0)
(2.47373e-05 2.69431e-06 0)
(2.28625e-05 2.48938e-06 0)
(2.11676e-05 2.30354e-06 0)
(1.95625e-05 2.12885e-06 0)
(1.8138e-05 1.97283e-06 0)
(1.6746e-05 1.82231e-06 0)
(1.55492e-05 1.69153e-06 0)
(1.43196e-05 1.55979e-06 0)
(1.33134e-05 1.45018e-06 0)
(1.22015e-05 1.3326e-06 0)
(1.13529e-05 1.24034e-06 0)
(1.032e-05 1.13307e-06 0)
(9.59988e-06 1.05447e-06 0)
(8.61559e-06 9.54684e-07 0)
(7.99655e-06 8.85794e-07 0)
(7.04697e-06 7.92463e-07 0)
(6.49967e-06 7.28434e-07 0)
(5.60059e-06 6.42996e-07 0)
(5.09822e-06 5.80659e-07 0)
(4.28449e-06 5.03763e-07 0)
(3.82976e-06 4.4236e-07 0)
(3.17564e-06 3.8052e-07 0)
(2.77295e-06 3.19418e-07 0)
(2.37856e-06 2.81413e-07 0)
(2.05184e-06 2.27894e-07 0)
(1.93179e-06 2.1483e-07 0)
(1.70936e-06 1.70157e-07 0)
(1.91009e-06 1.86307e-07 0)
(1.82941e-06 1.61893e-07 0)
(2.23831e-06 2.01251e-07 0)
(2.25805e-06 1.96008e-07 0)
(2.71998e-06 2.42384e-07 0)
(2.80586e-06 2.48173e-07 0)
(3.24965e-06 2.94172e-07 0)
(3.37053e-06 3.05914e-07 0)
(3.76003e-06 3.47433e-07 0)
(3.89278e-06 3.61427e-07 0)
(4.21658e-06 3.96798e-07 0)
(4.34632e-06 4.10765e-07 0)
(4.60787e-06 4.39917e-07 0)
(4.72602e-06 4.52619e-07 0)
(4.93609e-06 4.76353e-07 0)
(5.03811e-06 4.87186e-07 0)
(5.21099e-06 5.06732e-07 0)
(5.29462e-06 5.1536e-07 0)
(5.44833e-06 5.32297e-07 0)
(5.51189e-06 5.37908e-07 0)
(5.6796e-06 5.55506e-07 0)
(5.72254e-06 5.50914e-07 0)
(6.05206e-06 5.82544e-07 0)
(6.1183e-06 3.27195e-07 0)
(1.04315e-05 7.60564e-07 0)
(0.0644626 0.00691997 0)
(0.0610361 0.00655436 0)
(0.0577761 0.00620639 0)
(0.0546754 0.00587531 0)
(0.0517272 0.00556038 0)
(0.0489248 0.00526091 0)
(0.0462617 0.00497623 0)
(0.0437318 0.00470569 0)
(0.0413292 0.00444866 0)
(0.039048 0.00420453 0)
(0.0368829 0.00397273 0)
(0.0348284 0.00375271 0)
(0.0328796 0.00354391 0)
(0.0310314 0.00334584 0)
(0.0292793 0.00315798 0)
(0.0276186 0.00297987 0)
(0.0260451 0.00281105 0)
(0.0245547 0.00265108 0)
(0.0231432 0.00249954 0)
(0.021807 0.00235602 0)
(0.0205423 0.00222014 0)
(0.0193457 0.00209153 0)
(0.0182138 0.00196983 0)
(0.0171435 0.0018547 0)
(0.0161316 0.00174583 0)
(0.0151752 0.0016429 0)
(0.0142716 0.0015456 0)
(0.013418 0.00145367 0)
(0.012612 0.00136682 0)
(0.011851 0.0012848 0)
(0.0111329 0.00120737 0)
(0.0104552 0.00113428 0)
(0.00981606 0.00106532 0)
(0.00921332 0.00100026 0)
(0.0086451 0.000938906 0)
(0.00810957 0.000881062 0)
(0.007605 0.000826543 0)
(0.00712974 0.000775172 0)
(0.00668221 0.000726781 0)
(0.00626091 0.00068121 0)
(0.00586443 0.000638307 0)
(0.00549141 0.000597929 0)
(0.00514056 0.000559937 0)
(0.00481067 0.000524201 0)
(0.00450057 0.000490597 0)
(0.00420917 0.000459007 0)
(0.00393542 0.000429319 0)
(0.00367832 0.000401427 0)
(0.00343695 0.000375231 0)
(0.0032104 0.000350634 0)
(0.00299783 0.000327547 0)
(0.00279845 0.000305882 0)
(0.00261148 0.00028556 0)
(0.00243622 0.000266502 0)
(0.00227198 0.000248635 0)
(0.00211812 0.000231891 0)
(0.00197403 0.000216204 0)
(0.00183913 0.000201512 0)
(0.00171288 0.000187756 0)
(0.00159477 0.00017488 0)
(0.00148429 0.000162834 0)
(0.001381 0.000151565 0)
(0.00128447 0.000141029 0)
(0.00119427 0.000131181 0)
(0.00111002 0.000121979 0)
(0.00103137 0.000113383 0)
(0.00095795 0.000105357 0)
(0.000889452 9.78648e-05 0)
(0.000825564 9.08741e-05 0)
(0.000765998 8.43532e-05 0)
(0.000710481 7.8273e-05 0)
(0.000658758 7.26057e-05 0)
(0.000610587 6.73251e-05 0)
(0.00056574 6.24067e-05 0)
(0.000524005 5.78274e-05 0)
(0.00048518 5.35654e-05 0)
(0.000449075 4.96002e-05 0)
(0.000415515 4.59126e-05 0)
(0.00038433 4.24844e-05 0)
(0.000355366 3.92987e-05 0)
(0.000328473 3.63395e-05 0)
(0.000303515 3.35917e-05 0)
(0.000280362 3.10414e-05 0)
(0.000258891 2.86752e-05 0)
(0.00023899 2.64809e-05 0)
(0.00022055 2.44466e-05 0)
(0.000203472 2.25617e-05 0)
(0.000187662 2.08157e-05 0)
(0.000173032 1.91993e-05 0)
(0.0001595 1.77033e-05 0)
(0.000146989 1.63195e-05 0)
(0.000135427 1.504e-05 0)
(0.000124747 1.38574e-05 0)
(0.000114885 1.27648e-05 0)
(0.000105784 1.1756e-05 0)
(9.73875e-05 1.08248e-05 0)
(8.96451e-05 9.96569e-06 0)
(8.25088e-05 9.17342e-06 0)