/*--------------------------------*- C++ -*----------------------------------*\
| =========                 |                                                 |
| \\      /  F ield         | OpenFOAM: The Open Source CFD Toolbox           |
|  \\    /   O peration     | Version:  v1912                                 |
|   \\  /    A nd           | Website:  www.openfoam.com                      |
|    \\/     M anipulation  |                                                 |
\*---------------------------------------------------------------------------*/
FoamFile
{
    version     2.0;
    format      ascii;
    class       volScalarField;
    location    "100";
    object      p_rgh;
}
// * * * * * * * * * * * * * * * * * * * * * * * * * * * * * * * * * * * * * //

dimensions      [1 -1 -2 0 0 0 0];


internalField   nonuniform List<scalar> 
14268
(
14359.9
13721.3
13309.4
13092.2
13039.4
13104.5
13245
13426.4
13625.2
13826.3
14020.4
14213.7
14376.9
14543.1
14704.1
14866.9
15039
15220.6
15424
15647.5
15889.2
16148
16421
16704.2
16989.7
17269.8
17534.9
17790.2
18030.3
18256.2
18461.5
18656.2
18847.6
19038.7
19226.5
19437.1
19652.8
19883.6
20139.3
20408.3
20700.1
21002.7
21326.9
21700.2
14358.4
13719.8
13307.8
13090.6
13037.8
13102.8
13243.3
13424.6
13623.4
13824.4
14018.5
14211.6
14374.9
14541
14702
14864.7
15036.7
15218.3
15421.7
15645.2
15886.8
16145.6
16418.6
16701.9
16987.5
17267.6
17532.5
17787.5
18027.3
18253.2
18458.5
18653.3
18844.6
19035.6
19223.3
19433.7
19649.2
19880.1
20135.7
20404.6
20695.9
20997.3
21320.4
21692.7
14358.4
13719.7
13307.8
13090.6
13037.8
13102.8
13243.4
13424.8
13623.6
13824.7
14018.7
14212.1
14375.2
14541.2
14702.2
14865
15037
15218.6
15421.9
15645.3
15887
16145.8
16418.9
16702.2
16987.8
17267.9
17532.8
17787.8
18027.8
18253.7
18459
18653.7
18845.1
19036.1
19223.7
19434.2
19649.7
19880.3
20136
20404.9
20696.6
20998
21321.1
21693.2
14357.4
13718.7
13306.7
13089.5
13036.6
13101.6
13242.1
13423.5
13622.2
13823.2
14017.2
14210.2
14373.6
14539.8
14700.7
14863.3
15035.2
15216.8
15420.4
15643.8
15885.4
16144.2
16417.2
16700.6
16986.2
17266.4
17531.1
17785.8
18025.5
18251.3
18456.7
18651.5
18842.8
19033.8
19221.3
19431.5
19646.9
19878
20133.6
20402.4
20693.4
20994.1
21316.6
21688.2
14357.4
13718.7
13306.7
13089.5
13036.7
13101.7
13242.3
13423.7
13622.5
13823.7
14017.8
14211.3
14374.1
14540.1
14701.1
14863.8
15036
15217.4
15420.6
15644.1
15885.7
16144.5
16417.6
16701
16986.6
17266.8
17531.6
17786.5
18026.4
18252.4
18457.6
18652.3
18843.7
19034.7
19222.1
19432.6
19648.1
19878.4
20134.1
20403
20694.7
20995.4
21317.9
21689.1
14356.6
13717.8
13305.8
13088.6
13035.8
13100.8
13241.3
13422.7
13621.4
13822.4
14016.3
14209.2
14372.8
14538.9
14699.8
14862.4
15034.2
15215.9
15419.5
15642.8
15884.4
16143.2
16416.3
16699.7
16985.3
17265.5
17530.1
17784.7
18024.3
18250
18455.5
18650.3
18841.6
19032.5
19220
19430.1
19645.4
19876.5
20132.1
20400.9
20691.7
20991.9
21314.3
21685.3
14356.5
13717.8
13305.8
13088.6
13035.8
13100.9
13241.5
13422.9
13621.8
13822.9
14017
14210.7
14373.4
14539.3
14700.3
14863
15035.1
15216.5
15419.7
15643.1
15884.7
16143.6
16416.7
16700.2
16985.9
17266
17530.8
17785.5
18025.4
18251.4
18456.6
18651.3
18842.7
19033.7
19220.9
19431.4
19646.8
19877
20132.7
20401.6
20693.3
20993.5
21315.3
21686.1
14355.8
13717
13305
13087.8
13035
13100.1
13240.6
13422
13620.8
13821.7
14015.6
14208.4
14372.1
14538.2
14699.1
14861.6
15033.4
15215.1
15418.7
15642.1
15883.6
16142.5
16415.5
16698.9
16984.6
17264.8
17529.4
17783.9
18023.4
18249
18454.5
18649.3
18840.6
19031.4
19219
19428.9
19644.2
19875.4
20131
20399.7
20690.3
20990.3
21312.4
21682.9
14355.7
13716.8
13304.8
13087.8
13035
13100.1
13240.8
13422.2
13621.1
13822.3
14016.4
14210.3
14372.7
14538.6
14699.6
14862.2
15034.4
15215.7
15418.9
15642.3
15883.9
16142.8
16415.9
16699.5
16985.2
17265.3
17530
17784.7
18024.5
18250.5
18455.7
18650.4
18841.8
19032.8
19219.9
19430.4
19645.7
19875.8
20131.4
20400.3
20692
20991.8
21313.3
21683.7
14355
13716.1
13304.1
13087
13034.2
13099.4
13240
13421.4
13620.2
13821.2
14015
14207.6
14371.4
14537.6
14698.5
14861
15032.7
15214.4
15418
15641.4
15883
16141.8
16414.9
16698.3
16984
17264.1
17528.7
17783.1
18022.6
18248.2
18453.6
18648.5
18839.7
19030.5
19218
19427.9
19643.1
19874.4
20129.9
20398.7
20689.1
20988.8
21310.7
21680.8
14354.8
13715.9
13303.9
13086.9
13034.2
13099.4
13240.1
13421.6
13620.5
13821.7
14015.9
14209.9
14372.1
14538
14698.9
14861.5
15033.7
15215
15418.1
15641.6
15883.2
16142.1
16415.3
16698.9
16984.5
17264.7
17529.3
17783.9
18023.8
18249.8
18455
18649.7
18841
19031.9
19219
19429.5
19644.8
19874.7
20130.4
20399.2
20691
20990.4
21311.7
21681.6
14354.1
13715.1
13303.1
13086.1
13033.5
13098.7
13239.4
13420.9
13619.7
13820.6
14014.5
14207
14370.9
14537.1
14697.9
14860.4
15032
15213.8
15417.4
15640.7
15882.3
16141.2
16414.3
16697.8
16983.5
17263.6
17528.2
17782.5
18021.9
18247.4
18452.9
18647.8
18838.9
19029.7
19217.2
19427
19642.1
19873.4
20129
20397.7
20688
20987.5
21309.1
21679
14353.9
13714.9
13302.9
13085.9
13033.4
13098.7
13239.5
13421
13620
13821.2
14015.4
14209.6
14371.6
14537.5
14698.3
14860.9
15033.1
15214.3
15417.5
15640.9
15882.5
16141.4
16414.6
16698.2
16983.9
17264.1
17528.7
17783.3
18023.1
18249.1
18454.3
18649
18840.3
19031.2
19218.2
19428.7
19643.8
19873.8
20129.4
20398.2
20690
20989.1
21310.2
21679.8
14353.2
13714.1
13302.2
13085.2
13032.7
13098
13238.8
13420.4
13619.2
13820.2
14014
14206.4
14370.4
14536.6
14697.4
14859.8
15031.5
15213.2
15416.8
15640.2
15881.8
16140.6
16413.8
16697.3
16983
17263.2
17527.7
17782
18021.3
18246.8
18452.3
18647.1
18838.3
19029
19216.4
19426.2
19641.3
19872.6
20128.1
20396.8
20687
20986.3
21307.7
21677.3
14352.7
13713.6
13301.7
13084.8
13032.4
13097.9
13238.8
13420.5
13619.6
13820.9
14015.3
14210.8
14371.5
14537.2
14698
14860.6
15033.1
15214
15416.9
15640.3
15881.9
16140.9
16414.2
16697.9
16983.6
17263.8
17528.4
17783
18023
18249.4
18454.4
18648.9
18840.4
19031.3
19217.9
19428.8
19643.7
19873
20128.6
20397.5
20690
20988.7
21309.3
21678.7
14351.4
13712.1
13300.1
13083.4
13031.1
13096.7
13237.7
13419.3
13618.2
13819.1
14012.7
14203.8
14369.1
14535.5
14696.3
14858.5
15029.8
15211.8
15415.6
15639
15880.6
16139.5
16412.7
16696.2
16982
17262.1
17526.6
17780.8
18019.7
18244.7
18450.3
18645.2
18836.2
19026.9
19214.5
19423.8
19639.1
19870.8
20126.3
20394.9
20684.3
20983.2
21304.3
21674.1
14350.7
13711.3
13299.4
13082.8
13030.7
13096.5
13237.7
13419.5
13618.7
13820.1
14014.5
14210.3
14370.7
14536.3
14697
14859.6
15032.1
15212.8
15415.8
15639.2
15880.8
16139.8
16413.1
16696.8
16982.6
17262.9
17527.4
17781.9
18022
18248.4
18453.3
18647.8
18839.2
19030.1
19216.6
19427.5
19642.1
19871.4
20126.9
20395.8
20688.4
20986.5
21306.6
21676
14349.3
13709.6
13297.7
13081.3
13029.4
13095.3
13236.6
13418.4
13617.4
13818.3
14011.9
14203.1
14368.3
14534.7
14695.4
14857.6
15028.9
15210.8
15414.6
15638
15879.6
16138.6
16411.8
16695.4
16981.2
17261.4
17525.9
17780
18018.9
18243.7
18449.3
18644.2
18835.1
19025.7
19213.2
19422.4
19637.7
19869.3
20124.8
20393.4
20682.8
20981.3
21301.7
21671.7
14348.5
13708.7
13296.9
13080.6
13028.8
13095
13236.5
13418.6
13617.9
13819.3
14013.8
14209.7
14369.9
14535.5
14696.2
14858.6
15031.1
15211.7
15414.7
15638.1
15879.8
16138.8
16412.1
16695.9
16981.8
17262.1
17526.5
17781
18021
18247.5
18452.4
18646.8
18838.2
19029
19215.3
19426.3
19640.6
19869.9
20125.4
20394.3
20686.8
20984.5
21306.3
21685.3
14347
13706.9
13295.1
13079
13027.5
13093.9
13235.5
13417.6
13616.7
13817.7
14011.2
14202.6
14367.6
14533.9
14694.6
14856.7
15028
15209.8
15413.6
15637
15878.7
16137.7
16411
16694.7
16980.5
17260.8
17525.3
17779.4
18018.2
18242.9
18448.4
18643.2
18834.1
19024.6
19212
19421.2
19636.4
19867.9
20123.4
20392
20681.4
20979.5
21304.2
21720.3
14345.9
13705.7
13294
13078
13026.8
13093.4
13235.2
13417.6
13617.1
13818.7
14013.2
14209.2
14369.3
14534.8
14695.4
14857.8
15030.2
15210.8
15413.7
15637.1
15878.8
16137.8
16411.2
16695
16981
17261.4
17525.8
17780.2
18020.3
18246.7
18451.5
18645.9
18837.2
19027.9
19214.2
19425.1
19639.2
19868.5
20123.9
20392.8
20685.3
20982.8
21308.1
21772.1
14335.7
13693.7
13281.9
13067.5
13017.9
13086
13228.9
13411.1
13609
13807.2
13994.7
14158.9
14352.3
14523.6
14684.2
14844.2
15008
15197.2
15405.5
15629.2
15871.4
16130.7
16404.4
16687.5
16973.6
17253.6
17518.7
17770.3
18000.4
18213.8
18423.3
18620.3
18808.8
18996.8
19189.5
19388.4
19609.6
19853.7
20110.3
20376.1
20647.2
20950.8
21288.5
21776.1
14316.3
13665
13254.6
13046.1
13003.6
13078.8
13227.7
13415.5
13619.4
13826.6
14028
14227.8
14383
14539.2
14698.1
14860.4
15035.5
15213.2
15411.2
15633.7
15876.4
16137.3
16413
16699
16986.8
17265.6
17533.4
17791.2
18037.3
18267.3
18470.3
18664.7
18852.3
19039.1
19230.1
19440.8
19652.2
19869.3
20121.2
20394.9
20697.1
20991.3
21291.1
21698.6
14260.8
13604.5
13197.4
12997.3
12964.7
13049.4
13205.8
13397.8
13602.1
13803.6
13994.3
14170.6
14355.1
14522.2
14679.8
14837.3
15001.1
15187.3
15393.1
15617.5
15860.4
16120.6
16395.4
16681.5
16968.8
17248.4
17514.5
17766.2
17999.5
18214.7
18420.5
18615.6
18801.6
18988.8
19178.7
19370.7
19590.1
19838.9
20090.4
20359.1
20644.1
20944.7
21263.9
21577.8
14213.3
13539.9
13137
12950.3
12934.7
13035.3
13204.3
13405.8
13619
13830.5
14032.9
14224
14383.9
14539.6
14694.9
14853
15024.1
15201.5
15399.6
15621.4
15865.4
16128.5
16406.9
16695
16987.5
17272.3
17544.7
17802.8
18047.9
18271
18472.8
18663.5
18847.3
19031.4
19223.6
19433.3
19641.8
19854.1
20105
20375.4
20669.1
20970.3
21273.6
21603.2
14123.3
13441.6
13046.9
12875.7
12877.5
12994.3
13175.7
13385
13599.4
13807.4
14003
14184.5
14365.1
14527
14679.8
14833.2
14994.2
15175.4
15379.4
15604.9
15849
16111.4
16389.4
16682.2
16972.5
17255.3
17522
17781.1
18012.2
18222.4
18425.1
18617.1
18803.2
18986.1
19174.1
19360
19575.4
19824.4
20073.9
20343.8
20628.7
20942.1
21264.4
21602.5
14035.6
13333.5
12949.7
12800.9
12828.1
12968.9
13169.2
13392.9
13621
13841.5
14044.6
14232.7
14391.9
14545.3
14694.4
14846.5
15011.6
15187.6
15384.5
15606.4
15852
16117.7
16399.9
16690.9
16990.9
17276.1
17556.2
17818.8
18063.4
18282.9
18481.1
18667
18843.9
19024.9
19214.5
19421.5
19628.2
19838.4
20087.2
20356.6
20647.9
20968.2
21279.2
21634.9
13905.6
13189.2
12822.5
12699.7
12754.7
12921
13142.4
13376.1
13605
13820.7
14021.8
14206
14381.9
14536.8
14683.3
14831.4
14987.6
15163.4
15365.2
15589.5
15835.9
16101.3
16384.6
16678.5
16974.8
17272.9
17549.6
17807.5
18032.7
18243
18442.1
18629.1
18808.5
18988.2
19174.4
19352.4
19563.1
19809
20058.6
20330.9
20622.2
20938.5
21282.5
21650.2
13753.3
13011.4
12670.5
12582.9
12673.2
12871.8
13122.5
13378.9
13625.4
13857.5
14066.1
14250.3
14406.1
14553.4
14694.5
14839.9
15000.2
15180.9
15367.4
15590.4
15838.7
16106.8
16393.9
16698
17000.1
17291.8
17576.4
17843.2
18090.8
18305.3
18498.8
18675.9
18846
19022.1
19206
19408
19611.6
19820.8
20068.5
20338.3
20632.1
20955.2
21307.2
21670.7
13517.2
12759.9
12449.9
12411.3
12554.9
12800.8
13077.1
13350.2
13605.9
13836.8
14043.5
14230.4
14402.7
14552.6
14692.1
14833.4
14983.7
15152.8
15351.2
15573.6
15822.3
16092.8
16382.2
16685.6
16992.4
17288
17572.2
17836.5
18070.8
18278
18473.2
18651.6
18821
18997.5
19175.5
19349.8
19553.9
19795.3
20044.5
20319.3
20611.6
20934
21296.9
21695
12248.8
10729.9
10093.5
10157
10711.4
11462.5
12137.6
12667.5
13088.6
13447.4
13744
13982
14177.9
14348.7
14513.9
14690.8
14885
15092.8
15299.6
15543
15802.7
16076.9
16372.1
16679
16991.3
17301
17606.5
17889.8
18132.2
18345.3
18529.1
18691.5
18848.3
19020.2
19197.9
19388.4
19587.5
19799.6
20049.5
20322.5
20618.4
20948.2
21317.4
21723.8
4615.11
2695.98
2221.83
2259.59
2673.92
3455.4
4532.07
5655.62
6704.87
7669.71
8516.93
9260.87
9906.6
10468.9
10973.4
11472.7
11979.9
12510.2
13052.5
13725.1
14422.3
15083.1
15711
16260.4
16742.7
17143.1
17493.1
17795.8
18053
18276.5
18477.9
18653
18817.1
18992.2
19165.1
19340.5
19535.7
19770
20021.8
20299.4
20598
20928.2
21324.2
21746.3
261.605
29.055
48.9966
57.193
55.4524
63.8372
180.468
429.199
722.113
1015.78
1300.93
1576.8
1827.53
2022.45
2185.11
2368.81
2640.12
3066.13
3616.77
4411.22
5358.57
6476.84
7807.63
9277.12
10832.5
12324.2
13704.9
14904.2
15839.1
16522.2
17004.5
17332.2
17654.1
18041.9
18377.5
18688.7
19027.6
19389.2
19767.4
20141.5
20492.5
20840.8
21198.7
21554.3
111.533
21.0258
17.9548
11.5518
9.12174
7.43837
6.28451
5.49644
4.85219
4.38654
4.08018
3.95705
3.95393
4.0893
4.50866
4.85753
6.77882
61.2011
168.74
171.916
235.183
377.599
627.333
1014.95
1550.95
2198.02
2920.07
3682.93
4490.47
5325.65
6111.57
6730.94
7426.19
8342.34
9191.58
10091.7
11125.4
12324.5
13674.6
15106.9
16538.5
18017.3
19463.9
20783.7
25.4668
20.3815
17.0745
11.4086
9.04107
7.37076
6.0423
5.3722
4.80874
4.38487
4.14577
4.01345
3.95747
4.0136
4.15388
4.2196
4.78904
3.79436
3.02974
4.08881
4.069
3.79924
3.50244
3.2236
3.06876
2.97336
3.02843
3.38642
4.76991
36.6775
238.186
517.275
649.57
743.484
872.401
1036.9
1239.15
1542.2
2012.38
2674.72
3522.13
4775.27
7409.49
10510.1
28.8369
20.0936
16.1585
11.2525
8.94127
7.30164
6.1085
5.40479
4.82391
4.38498
4.08535
3.90227
3.83683
3.85141
4.0047
4.02208
4.65354
3.65404
1.47999
2.9716
3.50368
3.55024
3.39567
3.16656
3.02247
2.90453
2.84079
2.86134
2.91319
1.84358
-0.154893
0.15655
0.962268
1.38277
1.65869
1.87149
2.10818
2.34973
2.56964
2.86036
3.25455
4.39332
186.867
655.755
22.8361
19.1011
15.2542
11.2709
8.90324
7.23327
6.05392
5.31779
4.78032
4.37745
4.21772
4.24914
4.10144
3.90268
3.84399
3.66168
3.78668
2.804
2.07785
3.08514
3.40206
3.3638
3.25019
3.06357
2.93715
2.85317
2.84227
2.9619
3.23446
2.69094
0.428429
-0.0023705
0.891313
1.34644
1.65696
1.84347
2.04665
2.23795
2.40313
2.64171
2.8904
2.9372
0.317717
-0.199075
23.281
18.3838
14.4815
11.0093
8.65822
7.05464
5.9413
5.24681
4.73682
4.37289
4.43991
4.37204
4.26176
4.10094
3.85573
3.53333
3.64624
2.82113
1.51843
2.29755
2.8816
3.08164
3.07258
2.97526
2.87635
2.79447
2.73537
2.69977
2.63626
1.88279
0.446779
0.406272
1.18113
1.58528
1.77896
1.87009
1.9332
2.06018
2.24819
2.5062
2.79094
2.99317
0.784622
-0.718043
35.747
17.2287
13.8573
10.6555
8.44313
6.92938
5.88562
5.19727
4.68852
4.33195
4.18311
4.36226
4.35294
4.28787
4.10287
3.58653
3.44083
2.54109
1.70834
2.52793
2.87526
3.00892
3.0198
2.92293
2.82581
2.74645
2.70114
2.70329
2.70813
2.3526
1.33532
1.00082
1.4395
1.72334
1.92625
2.08695
2.24979
2.35856
2.36403
2.43112
2.45418
2.45479
1.0111
0.259943
76.9382
23.2772
13.0798
10.1366
8.07369
6.68357
5.71488
5.06579
4.58558
4.22444
3.98622
3.94573
4.05154
3.97581
3.77581
3.63197
4.24651
3.61263
2.40465
2.22614
2.48633
2.75595
2.84398
2.8055
2.74968
2.68117
2.64199
2.63144
2.54934
2.17177
1.19543
0.937646
1.37515
1.66276
1.89677
2.06555
2.18581
2.3335
2.49386
2.51402
2.34634
2.38366
1.38355
0.151906
141.144
40.5078
12.1575
9.5144
7.72265
6.49876
5.62045
5.00618
4.53047
4.15792
3.88147
3.73332
3.6851
3.61929
3.58061
3.53103
5.06221
5.67193
3.8165
2.76995
2.49543
2.73581
2.81053
2.78502
2.72836
2.65784
2.72792
2.74846
2.63849
2.23498
1.40968
1.08114
1.24159
1.44241
1.55948
1.72056
1.99288
2.20074
2.31079
2.32729
2.21872
2.13112
1.40844
0.610311
69.6016
28.9877
10.8931
8.71259
7.25824
6.21541
5.4308
4.85118
4.3993
4.03957
3.76315
3.58475
3.48366
3.41878
3.39108
3.36128
4.853
6.30677
5.35756
3.53647
2.37363
2.54976
2.67269
2.67698
2.67147
2.64037
2.77509
2.68183
2.4783
2.03182
1.38027
1.08099
1.25787
1.36457
1.44577
1.51676
1.63221
1.81102
1.93586
2.06367
2.0606
2.02313
1.55377
0.611082
10.8158
11.5081
9.21003
7.71097
6.75118
5.93124
5.25622
4.73893
4.31726
3.96108
3.68107
3.49641
3.38331
3.31132
3.29405
3.23388
3.78804
6.31051
6.26023
5.59003
3.31068
2.55939
2.66377
2.65307
2.69091
2.62979
2.57874
2.47323
2.46528
2.30544
1.83611
1.56909
1.43223
1.37302
1.39492
1.45281
1.57364
1.70789
1.81769
1.93973
1.95688
1.8753
1.56681
0.753533
-8.63874
3.04022
7.52323
6.83556
6.22565
5.61722
5.04538
4.5781
4.17708
3.83068
3.56034
3.36714
3.25177
3.16613
3.13819
3.05304
3.20048
4.57745
6.9567
6.79524
5.34943
2.93109
2.57031
2.59688
2.60127
2.53632
2.45684
2.43416
2.5414
2.29304
1.88975
1.57287
1.40963
1.34529
1.35181
1.37415
1.47882
1.58364
1.69713
1.81259
1.83857
1.77183
1.52142
0.838131
-8.15334
1.36065
5.89389
6.17394
5.72295
5.30673
4.83929
4.4211
4.05998
3.73667
3.47496
3.2759
3.15577
3.06041
3.03092
2.92463
2.91148
3.39728
5.27258
6.30431
4.82366
2.99909
2.57741
2.5806
2.5455
2.46906
2.38852
2.34831
2.48182
2.33934
1.91478
1.49868
1.36015
1.35746
1.32692
1.33838
1.44866
1.528
1.63796
1.75153
1.76885
1.69709
1.43167
0.958938
-7.66021
0.400093
4.41775
5.60314
5.27385
4.99227
4.61385
4.25279
3.91793
3.60504
3.34471
3.1426
3.02238
2.9258
2.8783
2.75297
2.64571
2.74685
3.36692
3.75266
3.37356
2.79742
2.52037
2.50355
2.46406
2.39189
2.30473
2.25436
2.22555
2.05912
1.73158
1.44308
1.37027
1.34739
1.2884
1.26083
1.37448
1.43376
1.53361
1.64072
1.66279
1.60108
1.44173
1.21665
-7.27049
-0.303818
3.30929
4.95167
4.88039
4.6792
4.3867
4.07488
3.77645
3.49071
3.24268
3.03995
2.92116
2.82106
2.76863
2.62051
2.45788
2.46765
2.45364
2.57969
2.61321
2.59708
2.52959
2.48884
2.41155
2.37658
2.37029
2.33135
2.20504
1.99526
1.72248
1.52349
1.4307
1.37007
1.28768
1.24815
1.33871
1.3827
1.47508
1.58199
1.59366
1.53025
1.4304
1.46492
-6.92586
-0.83549
2.54995
4.17386
4.54148
4.38383
4.15632
3.89061
3.63435
3.35923
3.10888
2.9045
2.78204
2.68865
2.62784
2.45188
2.30049
2.29153
2.27073
2.30591
2.42404
2.49794
2.46418
2.4384
2.34348
2.30794
2.43626
2.6346
2.5257
2.13681
1.75261
1.56393
1.45116
1.37905
1.24555
1.23433
1.22772
1.29024
1.38183
1.47854
1.49247
1.43394
1.39783
1.3898
-6.55653
-1.24608
1.94792
3.51919
4.19047
4.11613
3.92478
3.70436
3.48929
3.22733
2.99117
2.79045
2.67198
2.57549
2.55566
2.34506
2.46328
3.14079
2.86924
2.32184
2.31334
2.43705
2.41839
2.40694
2.31418
2.30244
2.95337
3.32727
2.89769
2.13216
1.77222
1.636
1.51209
1.402
1.26563
1.20929
1.21753
1.24376
1.31884
1.40735
1.40627
1.41679
1.59125
1.27831
-6.18506
-1.51471
1.57325
3.15594
3.74979
3.86636
3.70431
3.52229
3.34359
3.08986
2.85709
2.64887
2.52646
2.42193
2.4843
2.45189
3.96149
7.98742
7.00313
3.62769
2.33691
2.38749
2.38357
2.34363
2.29401
2.69363
3.48093
3.44091
2.75591
2.06838
1.8111
1.6702
1.55768
1.4095
1.26744
1.1665
1.12476
1.16262
1.23094
1.30147
1.3144
1.58022
1.59141
1.27934
-5.77975
-1.52414
1.27043
2.80034
3.31668
3.59307
3.49263
3.3528
3.19349
2.94268
2.72089
2.52464
2.40643
2.32982
2.35883
3.35203
8.87453
9.06387
9.0238
7.48995
3.32357
2.35355
2.3603
2.31552
2.27349
2.80186
3.57766
3.37232
2.5557
2.01955
1.84135
1.73562
1.62586
1.45215
1.27149
1.1481
1.11168
1.11772
1.16393
1.21193
1.32934
1.85989
1.61738
1.24645
-5.39436
-1.62773
0.946979
2.32727
2.97257
3.25636
3.28574
3.18165
3.05159
2.79087
2.57666
2.38955
2.26433
2.23048
2.20891
3.04551
7.02253
9.76864
9.75385
6.85196
3.01099
2.33616
2.33488
2.29148
2.33155
3.35586
3.53697
2.87232
2.2325
2.00738
1.86431
1.76982
1.66771
1.48332
1.26478
1.10996
1.03793
1.05819
1.07241
1.16293
1.7534
1.86901
1.53043
1.13834
-5.04861
-1.70862
0.543054
1.92638
2.67507
2.9789
3.05288
3.04375
2.88552
2.63439
2.43676
2.26157
2.24926
2.30284
2.25203
2.68384
4.08064
7.75876
7.51383
4.45227
2.52069
2.33321
2.315
2.26907
2.62178
3.74083
3.48386
2.67171
2.15896
2.02582
1.92485
1.81623
1.71619
1.52416
1.27538
1.11626
1.02608
1.00575
1.06325
1.62561
1.95107
1.79999
1.33302
1.15158
-4.54676
-1.83554
0.220627
1.61688
2.38349
2.7363
2.83902
2.85332
2.7279
2.4894
2.29273
2.2057
2.76825
3.28446
3.07874
2.45749
2.76475
3.92846
3.77077
2.85087
2.39639
2.32792
2.29037
2.24271
2.89303
3.82518
3.57661
2.62736
2.1405
2.036
1.92717
1.85615
1.75621
1.54407
1.28032
1.10713
1.04459
1.19009
1.67054
1.94776
1.97017
1.48282
1.19628
1.13948
-3.9894
-1.91013
0.0108299
1.35457
2.13338
2.51246
2.65065
2.65945
2.56464
2.34051
2.18944
2.76321
4.24217
4.26001
2.99293
2.3349
2.52443
2.68667
2.68835
2.51105
2.38781
2.32087
2.26606
2.24096
3.03081
3.93553
3.35573
2.43885
2.14916
2.05755
1.98035
1.9026
1.80473
1.57445
1.2981
1.10767
1.27435
1.87524
1.89807
1.98842
1.58928
1.21576
1.19265
1.1677
-3.99861
-2.00304
-0.166259
1.11312
1.89457
2.29497
2.45215
2.50112
2.37549
2.20516
2.43138
4.30242
4.58045
3.70448
2.48889
2.28953
2.446
2.58698
2.606
2.45661
2.3707
2.30304
2.24862
2.43495
3.47398
3.55418
2.83763
2.25978
2.14569
2.06414
1.98907
1.93495
1.82586
1.59275
1.30884
1.10726
1.13402
1.51206
1.74527
1.52942
1.20566
1.14928
1.1823
1.1503
-3.96481
-1.99
-0.297079
0.917018
1.68443
2.09142
2.28332
2.33164
2.20381
2.24473
3.9696
4.68431
4.40706
2.92096
2.19933
2.26347
2.38432
2.49598
2.5192
2.41265
2.35686
2.29381
2.3993
3.16455
3.57397
3.12372
2.43209
2.22338
2.15808
2.09047
2.03356
1.97937
1.85464
1.61312
1.32956
1.11325
1.00316
1.07088
1.15381
1.10367
1.08612
1.14222
1.18323
1.14785
-3.52201
-1.66682
-0.271782
0.772658
1.48109
1.90195
2.11191
2.19114
2.1584
3.65504
4.741
4.87
3.53621
2.34011
2.14562
2.21103
2.32295
2.41723
2.43458
2.36025
2.32753
2.29142
3.08638
3.40535
3.26894
2.60179
2.26306
2.21219
2.15357
2.09428
2.04825
1.99669
1.85827
1.6253
1.34682
1.12581
0.99467
0.920621
0.954054
1.003
1.06205
1.12994
1.1668
1.11673
-2.88876
-1.24076
0.158655
0.826534
1.32497
1.73053
1.96807
2.20898
3.81318
4.83704
4.93377
4.12114
2.63734
2.16632
2.09979
2.15645
2.26522
2.34494
2.35742
2.31061
2.28499
2.31694
2.78405
2.98478
2.65878
2.32598
2.24831
2.21487
2.16969
2.12396
2.08662
2.01872
1.86971
1.63637
1.36724
1.15059
1.01137
0.920735
0.943459
0.991733
1.05352
1.12725
1.15335
1.08962
-2.62954
-1.13096
0.159216
1.02481
1.25257
1.56455
1.83628
2.33915
3.88368
4.76448
4.25261
2.92848
2.19312
2.11812
2.05174
2.09652
2.20164
2.27027
2.28292
2.25765
2.2423
2.31668
2.42917
2.40255
2.29683
2.2544
2.23684
2.21131
2.16874
2.13095
2.09544
2.01805
1.86272
1.64083
1.38269
1.16982
1.02368
0.935096
0.94421
0.989288
1.04806
1.11504
1.12524
1.0486
-2.79209
-1.00684
0.173201
1.07648
1.37147
1.45786
1.7345
2.15424
2.72919
3.00743
2.70828
2.23173
2.10136
2.0635
2.00512
2.03741
2.14145
2.1965
2.21149
2.2039
2.21355
2.2511
2.2444
2.23123
2.23307
2.24183
2.24455
2.22046
2.18761
2.15699
2.1143
2.02169
1.86165
1.64372
1.39863
1.19519
1.04416
0.959154
0.954789
0.995063
1.04686
1.09804
1.09602
1.01159
-2.84544
-1.25034
0.195092
1.033
1.62459
1.6701
1.77877
1.86815
1.96825
2.08765
2.08529
2.06869
2.03966
2.00713
1.95466
1.97309
2.07656
2.11858
2.13881
2.14726
2.16902
2.18228
2.18447
2.19308
2.20659
2.24054
2.23936
2.21541
2.19074
2.16327
2.10999
2.00795
1.84833
1.64128
1.40935
1.20574
1.06633
0.98355
0.968761
1.00168
1.04247
1.0722
1.06136
0.970656
-2.72791
-1.49673
-0.144643
1.00631
1.57759
1.95867
1.83324
1.71152
1.82226
1.94858
1.97402
1.97705
1.96572
1.94924
1.90585
1.91213
2.00961
2.04522
2.06788
2.09238
2.11188
2.12998
2.14315
2.16158
2.20312
2.24224
2.2405
2.22454
2.20797
2.17486
2.1072
1.99554
1.83594
1.63735
1.4194
1.22799
1.08976
1.00777
0.984691
1.00727
1.03411
1.04559
1.02372
0.931093
-2.57769
-1.51676
-0.490971
0.58503
1.30923
1.55634
1.5762
1.61521
1.73509
1.85087
1.88111
1.89699
1.89613
1.88654
1.85339
1.84465
1.95075
1.95873
1.99364
2.02853
2.05255
2.08601
2.10413
2.13807
2.2107
2.23706
2.23108
2.22631
2.21206
2.17043
2.09174
1.9744
1.81771
1.62931
1.42458
1.24465
1.11096
1.0293
0.998824
1.00853
1.02023
1.01766
0.983229
0.89179
-2.44501
-1.48046
-0.603341
0.183752
0.772849
1.10743
1.3548
1.52717
1.64966
1.75656
1.79437
1.81731
1.82873
1.83221
1.80339
1.77872
1.89308
1.87853
1.91925
1.96147
1.99721
2.0414
2.068
2.13052
2.21447
2.23089
2.23399
2.23567
2.21735
2.16216
2.07255
1.95133
1.7982
1.61916
1.42798
1.25776
1.12833
1.04612
1.00826
1.00417
1.00227
0.988796
0.944876
0.854671
-2.32554
-1.44545
-0.633031
0.0475047
0.566493
0.930348
1.22561
1.43221
1.56931
1.66739
1.71212
1.7392
1.75497
1.76754
1.74736
1.7267
1.80042
1.81038
1.8432
1.89239
1.94187
1.99482
2.03539
2.14514
2.20837
2.21825
2.2347
2.23878
2.21212
2.14513
2.04753
1.92452
1.77555
1.60553
1.42602
1.26571
1.14118
1.05713
1.01183
0.995494
0.982806
0.960755
0.909156
0.819848
-2.21597
-1.41061
-0.660587
-0.0231954
0.475195
0.837235
1.13752
1.34873
1.49114
1.59036
1.63713
1.66612
1.6886
1.71251
1.6969
1.68844
1.70467
1.7439
1.76659
1.82634
1.88876
1.94896
2.01513
2.17326
2.19335
2.21173
2.23898
2.23918
2.19973
2.12162
2.01863
1.89561
1.75129
1.58952
1.42085
1.26935
1.14846
1.06249
1.01069
0.984866
0.963273
0.933282
0.877072
0.787508
-2.11875
-1.38075
-0.683897
-0.0857775
0.391145
0.749498
1.05186
1.26593
1.41439
1.51181
1.56429
1.58896
1.61251
1.64962
1.64347
1.63248
1.63272
1.67628
1.69206
1.75966
1.83561
1.90358
2.0439
2.16175
2.17291
2.20889
2.24011
2.23215
2.17966
2.09299
1.98727
1.86561
1.72604
1.57189
1.41311
1.26826
1.15013
1.06392
1.00688
0.973211
0.94419
0.90646
0.847987
0.757763
-2.02647
-1.34735
-0.701498
-0.138996
0.319084
0.673743
0.977115
1.19412
1.3455
1.44926
1.50326
1.5221
1.54997
1.59407
1.58812
1.55629
1.55699
1.61704
1.61874
1.69717
1.78165
1.87359
2.12904
2.14315
2.14911
2.20976
2.23764
2.21722
2.15283
2.06081
1.95445
1.83492
1.69998
1.55288
1.40216
1.26359
1.14907
1.06259
1.00137
0.961076
0.925625
0.881304
0.820687
0.730197
-1.94367
-1.31906
-0.717367
-0.187617
0.251387
0.60239
0.903344
1.12236
1.27603
1.38346
1.49471
1.48106
1.4931
1.52002
1.4987
1.48021
1.48115
1.54407
1.55844
1.63367
1.73217
1.94751
2.12567
2.09739
2.13708
2.2083
2.22851
2.19459
2.12089
2.02637
1.92083
1.8039
1.67357
1.53281
1.38905
1.2568
1.14555
1.05907
0.994201
0.94852
0.907505
0.857628
0.795043
0.704502
-1.86366
-1.28595
-0.726036
-0.22498
0.197451
0.543097
0.841433
1.0612
1.21664
1.325
1.4908
1.47503
1.46478
1.44176
1.40542
1.40119
1.41317
1.45703
1.49902
1.57442
1.73455
2.09311
2.08801
2.04655
2.13378
2.20319
2.21143
2.16499
2.08536
1.99052
1.88669
1.7726
1.64675
1.51184
1.37485
1.24811
1.13979
1.05343
0.985977
0.935572
0.889803
0.835367
0.770856
0.680586
-1.79027
-1.25673
-0.733254
-0.259441
0.146587
0.487485
0.779724
1.00056
1.15542
1.26417
1.40504
1.69174
1.49554
1.35405
1.3079
1.31936
1.32478
1.39151
1.44108
1.5464
2.00409
2.13527
1.98604
2.0205
2.12881
2.19235
2.18638
2.12989
2.04747
1.95378
1.85213
1.74101
1.61951
1.49096
1.35929
1.23757
1.13209
1.04587
0.976844
0.922249
0.872196
0.81467
0.747944
0.658304
-1.71692
-1.22152
-0.731587
-0.282143
0.108752
0.44244
0.729873
0.949316
1.10468
1.2111
1.32393
1.70278
1.53658
1.3005
1.21381
1.22596
1.24267
1.30626
1.39444
1.81618
2.10708
1.9909
1.90335
2.01253
2.12065
2.17372
2.15399
2.09082
2.00814
1.91645
1.81724
1.7092
1.59182
1.46859
1.34263
1.22544
1.12268
1.03684
0.966571
0.908654
0.854685
0.795143
0.726368
0.637591
-1.64857
-1.18874
-0.728855
-0.302821
0.0737283
0.400267
0.679399
0.898066
1.05379
1.16043
1.22236
1.64984
1.76864
1.56906
1.28083
1.15101
1.1705
1.23869
1.51931
2.04235
2.05041
1.81774
1.87529
2.00229
2.10836
2.14702
2.11576
2.04924
1.96792
1.87866
1.78207
1.67715
1.56384
1.44452
1.32465
1.21189
1.11178
1.02657
0.955331
0.894744
0.837786
0.776303
0.706044
0.618237
-1.57828
-1.14937
-0.717238
-0.312567
0.0491578
0.366024
0.639784
0.85507
1.01058
1.11487
1.15984
1.35099
3.69859
3.77457
2.99799
1.58349
1.29946
1.48617
2.1057
2.05046
1.74468
1.73299
1.86433
1.99201
2.0895
2.11237
2.07307
2.00605
1.92707
1.84049
1.74666
1.64493
1.53572
1.42097
1.30579
1.19713
1.09959
1.01519
0.943259
0.88049
0.821303
0.758063
0.686792
0.600023
-1.51213
-1.11207
-0.705051
-0.320549
0.0273799
0.335751
0.599864
0.81202
0.96662
1.0696
1.10756
1.15026
2.72943
4.20269
4.14434
3.91984
3.07037
3.21462
2.56303
1.73105
1.5877
1.71763
1.84854
1.97595
2.06283
2.07152
2.02758
1.96197
1.88581
1.80206
1.71107
1.61253
1.50721
1.39779
1.28604
1.18121
1.08623
1.0028
0.930451
0.866082
0.805094
0.740408
0.668557
0.582888
-1.44389
-1.06924
-0.686014
-0.320948
0.0131478
0.310365
0.56718
0.775319
0.927796
1.0265
1.06222
1.04041
1.4051
3.35597
4.23796
4.2483
4.30594
2.9912
1.8001
1.46088
1.56454
1.7011
1.83776
1.95906
2.02824
2.02567
1.9805
1.91744
1.84429
1.76343
1.67529
1.57995
1.4782
1.3736
1.26569
1.16441
1.0719
0.989536
0.917031
0.851463
0.789067
0.723276
0.651155
0.566718
-1.24525
-0.942716
-0.62553
-0.314521
-0.0214961
0.245102
0.475992
0.66691
0.807171
0.886889
0.915891
0.903995
0.930019
1.34523
2.05181
2.07535
1.7451
1.42452
1.34093
1.41238
1.53989
1.67732
1.79442
1.87478
1.89913
1.88034
1.83926
1.785
1.72083
1.64856
1.56907
1.48318
1.39251
1.29653
1.20227
1.11182
1.02651
0.947729
0.875533
0.807481
0.742107
0.674219
0.602084
0.521555
-0.961691
-0.735349
-0.49486
-0.25739
-0.0298862
0.178209
0.362184
0.513771
0.626148
0.696735
0.729241
0.732512
0.73634
0.780189
0.850995
0.931272
1.01634
1.10966
1.21703
1.32608
1.43542
1.52834
1.59435
1.6322
1.64375
1.63311
1.60573
1.5658
1.51561
1.45678
1.391
1.31954
1.24398
1.16636
1.08701
1.00905
0.934302
0.863368
0.796517
0.731314
0.666835
0.602268
0.535156
0.463183
-0.761128
-0.588925
-0.406361
-0.22279
-0.0452906
0.118961
0.264644
0.38752
0.483977
0.553388
0.601004
0.630878
0.653269
0.69686
0.765454
0.846201
0.93249
1.0219
1.1121
1.19589
1.27232
1.33336
1.37594
1.40102
1.40957
1.40325
1.38426
1.35441
1.31524
1.26851
1.21543
1.15689
1.09418
1.02942
0.964032
0.898526
0.834163
0.771706
0.711136
0.6525
0.593447
0.53321
0.471973
0.409231
-0.60214
-0.470971
-0.332191
-0.191888
-0.0549695
0.074244
0.191809
0.294728
0.38076
0.449018
0.502528
0.544586
0.58992
0.642724
0.700305
0.765572
0.835242
0.905198
0.971386
1.03212
1.08752
1.13178
1.1633
1.18309
1.19095
1.18773
1.17426
1.15195
1.12205
1.08526
1.04278
0.99623
0.946408
0.893458
0.837865
0.782215
0.72805
0.674264
0.621181
0.569098
0.51772
0.465483
0.412346
0.358081
-0.47688
-0.376514
-0.270475
-0.162764
-0.0568816
0.0441036
0.137635
0.221811
0.295454
0.35866
0.412435
0.459994
0.508401
0.557004
0.606718
0.660055
0.714528
0.767977
0.818091
0.863807
0.905204
0.938574
0.962957
0.97887
0.986053
0.984715
0.975521
0.959051
0.936027
0.907599
0.87445
0.836921
0.796249
0.753933
0.711372
0.666802
0.620303
0.574218
0.529298
0.484512
0.440223
0.396051
0.351565
0.306614
-0.368623
-0.293236
-0.21346
-0.13201
-0.0513355
0.0264986
0.0997181
0.167111
0.227905
0.282127
0.330417
0.377244
0.419963
0.459839
0.502047
0.544546
0.586247
0.62662
0.664322
0.698616
0.729707
0.755004
0.773696
0.786173
0.792236
0.791924
0.785611
0.773571
0.756714
0.735276
0.709683
0.681077
0.649815
0.616567
0.582134