/*--------------------------------*- C++ -*----------------------------------*\
| =========                 |                                                 |
| \\      /  F ield         | OpenFOAM: The Open Source CFD Toolbox           |
|  \\    /   O peration     | Version:  v1912                                 |
|   \\  /    A nd           | Website:  www.openfoam.com                      |
|    \\/     M anipulation  |                                                 |
\*---------------------------------------------------------------------------*/
FoamFile
{
    version     2.0;
    format      ascii;
    class       volSymmTensorField;
    location    "100";
    object      R;
}
// * * * * * * * * * * * * * * * * * * * * * * * * * * * * * * * * * * * * * //

dimensions      [0 2 -2 0 0 0 0];


internalField   nonuniform List<symmTensor> 
14268
(
(0.000401406 -1.10739e-06 0 0.000364397 0 0.00038516)
(0.000408511 9.70622e-08 0 0.000374844 0 0.00039403)
(0.000416721 1.06044e-06 0 0.000385607 0 0.000403451)
(0.000425062 2.36678e-06 0 0.000395781 0 0.000412798)
(0.0004348 4.08683e-06 0 0.000406988 0 0.000423332)
(0.000444616 5.86554e-06 0 0.000416878 0 0.00043326)
(0.000453961 7.50521e-06 0 0.000424318 0 0.000441725)
(0.000463765 8.96567e-06 0 0.000431682 0 0.000450352)
(0.000474804 1.02584e-05 0 0.000440421 0 0.000460297)
(0.000486038 1.08838e-05 0 0.000449459 0 0.000470494)
(0.000497558 1.12982e-05 0 0.000458021 0 0.000480569)
(0.000509695 1.15326e-05 0 0.000466804 0 0.00049108)
(0.000524814 1.14379e-05 0 0.000479754 0 0.000505065)
(0.000541062 1.033e-05 0 0.000494567 0 0.000520602)
(0.000560548 7.94982e-06 0 0.000512146 0 0.000539067)
(0.000583878 5.96783e-06 0 0.000532076 0 0.000560604)
(0.000604928 4.68399e-06 0 0.000545742 0 0.000577811)
(0.000623834 4.39167e-06 0 0.000554487 0 0.000591524)
(0.000640606 4.03378e-06 0 0.000563867 0 0.000604861)
(0.000659426 1.55496e-06 0 0.000577733 0 0.000621861)
(0.000678645 -1.62593e-06 0 0.000593697 0 0.000640302)
(0.000689018 -3.56302e-06 0 0.000598963 0 0.000649044)
(0.000689484 -3.97484e-06 0 0.000588491 0 0.000644561)
(0.000673866 -3.68558e-06 0 0.000554641 0 0.000619612)
(0.000653878 -5.54863e-06 0 0.000527341 0 0.00059525)
(0.000652614 -1.0345e-05 0 0.00052367 0 0.000592379)
(0.000707768 -1.7193e-05 0 0.00058182 0 0.000648955)
(0.000780911 -2.00452e-05 0 0.00066493 0 0.000727229)
(0.000825468 -2.07339e-05 0 0.000713789 0 0.000773552)
(0.000843858 -2.1117e-05 0 0.000727495 0 0.000789083)
(0.000848002 -2.21187e-05 0 0.000719901 0 0.000786965)
(0.000846622 -2.20772e-05 0 0.00070967 0 0.000780794)
(0.00085074 -2.44905e-05 0 0.000711768 0 0.0007837)
(0.000882468 -3.01894e-05 0 0.000742911 0 0.000815146)
(0.000930438 -3.2229e-05 0 0.000795073 0 0.00086584)
(0.000970303 -3.48233e-05 0 0.000839227 0 0.000908106)
(0.00100017 -3.59028e-05 0 0.000869918 0 0.000937877)
(0.00102704 -3.51842e-05 0 0.000888696 0 0.000959432)
(0.00105494 -3.14472e-05 0 0.000902889 0 0.000979568)
(0.00108855 -2.7719e-05 0 0.000927563 0 0.00100962)
(0.00117651 -4.22762e-05 0 0.00100672 0 0.00109885)
(0.00146969 -9.97201e-05 0 0.00130766 0 0.00141325)
(0.00169956 -0.000148453 0 0.00158327 0 0.0016871)
(0.0017515 -0.000173371 0 0.00168658 0 0.00180336)
(0.00134795 4.73338e-06 0 0.00116329 0 0.0012712)
(0.0013663 9.12195e-06 0 0.00119689 0 0.00129738)
(0.00138926 1.28257e-05 0 0.00123188 0 0.00132615)
(0.00141454 1.79033e-05 0 0.00126601 0 0.00135621)
(0.00144512 2.46241e-05 0 0.00130371 0 0.0013906)
(0.00147765 3.14777e-05 0 0.00133648 0 0.00142351)
(0.00151067 3.78884e-05 0 0.00136021 0 0.0014521)
(0.00154563 4.37756e-05 0 0.00138305 0 0.00148098)
(0.00158395 4.92791e-05 0 0.00140963 0 0.00151333)
(0.00162244 5.22652e-05 0 0.0014368 0 0.001546)
(0.00166232 5.4749e-05 0 0.00146157 0 0.00157814)
(0.00170446 5.73827e-05 0 0.00148547 0 0.0016114)
(0.00175395 5.89435e-05 0 0.00152202 0 0.00165431)
(0.00180654 5.65851e-05 0 0.00156616 0 0.00170255)
(0.0018699 4.96105e-05 0 0.00161851 0 0.0017602)
(0.00194838 4.43709e-05 0 0.00167911 0 0.00182931)
(0.00202489 4.22699e-05 0 0.00171863 0 0.00188659)
(0.00209665 4.39304e-05 0 0.00174055 0 0.00193309)
(0.0021582 4.47065e-05 0 0.00176696 0 0.00197827)
(0.00222294 3.72084e-05 0 0.00180737 0 0.00203421)
(0.0022865 2.74023e-05 0 0.00185409 0 0.00209396)
(0.00232557 2.13175e-05 0 0.00186638 0 0.00212497)
(0.00233994 2.08002e-05 0 0.00182744 0 0.00211617)
(0.00231443 2.35209e-05 0 0.00171179 0 0.00204551)
(0.00226443 1.85972e-05 0 0.00162712 0 0.00197524)
(0.00226373 5.6214e-06 0 0.00161636 0 0.00196766)
(0.00243253 -1.8451e-05 0 0.00180083 0 0.00214353)
(0.00265145 -2.76942e-05 0 0.00206778 0 0.00238619)
(0.00278826 -3.01602e-05 0 0.00222499 0 0.00253019)
(0.00285326 -3.26764e-05 0 0.00226418 0 0.00257976)
(0.00287911 -3.54417e-05 0 0.00223555 0 0.00257639)
(0.0028861 -3.44043e-05 0 0.00219778 0 0.00255944)
(0.00290115 -3.97315e-05 0 0.00220259 0 0.00256806)
(0.00299816 -5.69722e-05 0 0.00229799 0 0.00266425)
(0.00314606 -7.16725e-05 0 0.00246348 0 0.00282338)
(0.00326883 -8.18974e-05 0 0.00260751 0 0.00295781)
(0.00336478 -8.71323e-05 0 0.00270752 0 0.00305361)
(0.00346187 -8.69817e-05 0 0.0027643 0 0.00312423)
(0.00356925 -7.29366e-05 0 0.00280114 0 0.00319201)
(0.00368721 -5.33203e-05 0 0.00287186 0 0.00329117)
(0.00397463 -9.52389e-05 0 0.00312131 0 0.00358692)
(0.00487967 -0.000302822 0 0.00407935 0 0.00460063)
(0.00552517 -0.000518009 0 0.00493743 0 0.00545958)
(0.00558446 -0.000683071 0 0.00520257 0 0.00583146)
(0.00203823 9.61143e-06 0 0.00174038 0 0.00190942)
(0.0020612 1.65287e-05 0 0.00178852 0 0.00194489)
(0.00209138 2.17999e-05 0 0.00183877 0 0.00198479)
(0.0021267 2.9412e-05 0 0.00188874 0 0.00202808)
(0.00217035 3.96396e-05 0 0.00194399 0 0.0020781)
(0.00221807 5.00075e-05 0 0.00199161 0 0.00212643)
(0.0022679 5.9758e-05 0 0.0020255 0 0.00216889)
(0.00232065 6.86835e-05 0 0.0020571 0 0.00221138)
(0.00237736 7.70478e-05 0 0.00209228 0 0.00225783)
(0.00243382 8.12814e-05 0 0.00212755 0 0.00230425)
(0.00249275 8.43851e-05 0 0.00215884 0 0.00234986)
(0.00255598 8.7646e-05 0 0.00218993 0 0.00239767)
(0.00262818 8.99367e-05 0 0.00223848 0 0.00245823)
(0.00270538 8.62786e-05 0 0.00230134 0 0.00252767)
(0.00279916 7.48084e-05 0 0.00237695 0 0.00261134)
(0.00291671 6.5673e-05 0 0.00246346 0 0.00271248)
(0.00303503 6.12864e-05 0 0.0025174 0 0.00279772)
(0.0031478 6.35745e-05 0 0.00254692 0 0.00286812)
(0.00324355 6.39281e-05 0 0.00258441 0 0.00293667)
(0.00334155 5.14897e-05 0 0.00264181 0 0.00301965)
(0.00343614 3.52852e-05 0 0.00270751 0 0.0031073)
(0.00350016 2.60077e-05 0 0.00272576 0 0.00315681)
(0.00353383 2.62141e-05 0 0.00267442 0 0.00315204)
(0.00352081 3.18543e-05 0 0.00251161 0 0.00306244)
(0.00346531 2.5345e-05 0 0.00239905 0 0.00297223)
(0.00347032 6.44192e-06 0 0.00238727 0 0.00296537)
(0.00370793 -3.40835e-05 0 0.00265264 0 0.00321557)
(0.00400927 -5.13274e-05 0 0.00303176 0 0.0035568)
(0.00419998 -5.69232e-05 0 0.00325265 0 0.00375931)
(0.0043004 -6.08867e-05 0 0.0033048 0 0.00383186)
(0.00434766 -6.54234e-05 0 0.00326649 0 0.00383218)
(0.00436979 -6.37678e-05 0 0.00321257 0 0.00381265)
(0.00439479 -7.23609e-05 0 0.00321659 0 0.00382546)
(0.00452982 -9.94131e-05 0 0.00334885 0 0.00396027)
(0.00473729 -0.000122206 0 0.00358537 0 0.00418584)
(0.00491182 -0.000135794 0 0.00379767 0 0.00438026)
(0.00505236 -0.000145429 0 0.00394734 0 0.00452125)
(0.00520265 -0.000146873 0 0.00402954 0 0.00462708)
(0.00537506 -0.000127267 0 0.00408024 0 0.00473077)
(0.00555672 -9.75978e-05 0 0.00417772 0 0.00487838)
(0.00598626 -0.000162913 0 0.00454353 0 0.00532071)
(0.00729137 -0.00048206 0 0.00594677 0 0.00680825)
(0.00818971 -0.000809478 0 0.00722566 0 0.00806016)
(0.00822221 -0.00108005 0 0.00758019 0 0.00861177)
(0.00258354 1.34821e-05 0 0.00216765 0 0.00240972)
(0.00260837 2.31654e-05 0 0.00222553 0 0.00245079)
(0.0026425 3.04824e-05 0 0.00228635 0 0.00249799)
(0.00268479 4.12432e-05 0 0.00234852 0 0.00255093)
(0.00273812 5.55987e-05 0 0.00241751 0 0.0026127)
(0.00279768 7.00662e-05 0 0.00247713 0 0.00267297)
(0.00286105 8.37226e-05 0 0.00251944 0 0.00272646)
(0.00292857 9.63616e-05 0 0.00255889 0 0.00278007)
(0.00300092 0.000108353 0 0.00260292 0 0.00283836)
(0.00307288 0.000114687 0 0.00264705 0 0.00289654)
(0.00314827 0.00011937 0 0.00268589 0 0.00295373)
(0.00322946 0.000124207 0 0.00272393 0 0.00301365)
(0.00332031 0.000127397 0 0.0027825 0 0.00308824)
(0.003416 0.000122248 0 0.00285734 0 0.0031732)
(0.00353238 0.000106614 0 0.00294725 0 0.00327564)
(0.00368079 9.42033e-05 0 0.00305277 0 0.0034013)
(0.00383441 8.86069e-05 0 0.00312018 0 0.00350954)
(0.00398111 9.1861e-05 0 0.00315474 0 0.00359917)
(0.00410405 9.1722e-05 0 0.00319899 0 0.00368589)
(0.00422685 7.47599e-05 0 0.00326564 0 0.00378836)
(0.00434402 5.22127e-05 0 0.00334182 0 0.00389575)
(0.004428 3.85899e-05 0 0.00335898 0 0.00395903)
(0.00447767 3.80966e-05 0 0.00329215 0 0.00395748)
(0.00448085 4.54901e-05 0 0.0030896 0 0.00385717)
(0.00442564 3.70201e-05 0 0.00295457 0 0.00375493)
(0.00443688 1.12328e-05 0 0.00294238 0 0.00374989)
(0.00472266 -4.49772e-05 0 0.00326806 0 0.00405326)
(0.00508247 -6.91594e-05 0 0.00373535 0 0.00446649)
(0.00531459 -7.85165e-05 0 0.00401165 0 0.00471424)
(0.00544537 -8.56238e-05 0 0.00407839 0 0.0048069)
(0.00551311 -9.11539e-05 0 0.00402818 0 0.00481119)
(0.00555009 -8.74066e-05 0 0.00395985 0 0.00479135)
(0.00558583 -9.99044e-05 0 0.00396637 0 0.00480958)
(0.00574908 -0.000138705 0 0.0041316 0 0.00497378)
(0.00599885 -0.000172578 0 0.00442024 0 0.00524692)
(0.00621027 -0.000194377 0 0.00468165 0 0.00548521)
(0.00638469 -0.000208057 0 0.00486902 0 0.00566086)
(0.00657902 -0.000209624 0 0.00497287 0 0.00579539)
(0.00680596 -0.00017916 0 0.00503208 0 0.00592804)
(0.00704048 -0.000137533 0 0.00515066 0 0.00611509)
(0.00758018 -0.000230969 0 0.00559883 0 0.00667146)
(0.00918803 -0.000691265 0 0.00731378 0 0.00851807)
(0.0102713 -0.00117036 0 0.00883796 0 0.010059)
(0.0102773 -0.0015607 0 0.00916502 0 0.0107478)
(0.00306399 1.94673e-05 0 0.00255689 0 0.00284922)
(0.00308994 3.16845e-05 0 0.00262285 0 0.00289458)
(0.00312677 4.04989e-05 0 0.00269269 0 0.00294753)
(0.00317418 5.38693e-05 0 0.00276435 0 0.00300798)
(0.0032349 7.17149e-05 0 0.00284382 0 0.00307894)
(0.00330367 8.97155e-05 0 0.00291206 0 0.00314849)
(0.00337797 0.000106843 0 0.00296036 0 0.00321068)
(0.00345744 0.000122747 0 0.00300479 0 0.00327298)
(0.00354227 0.000137816 0 0.00305343 0 0.0033403)
(0.00362672 0.000145752 0 0.00310228 0 0.00340758)
(0.00371558 0.000151422 0 0.00314468 0 0.00347382)
(0.00381165 0.000157236 0 0.00318547 0 0.00354322)
(0.00391825 0.000161344 0 0.00325049 0 0.00362925)
(0.00403066 0.000155098 0 0.00333804 0 0.00372817)
(0.00416717 0.000135674 0 0.00344239 0 0.0038472)
(0.00434202 0.000120233 0 0.00356317 0 0.00399332)
(0.00452556 0.000113159 0 0.00363728 0 0.00412003)
(0.00470186 0.000117411 0 0.003675 0 0.00422608)
(0.00484898 0.000116988 0 0.00372758 0 0.00432909)
(0.00499294 9.59787e-05 0 0.00380295 0 0.00444795)
(0.00512883 6.79783e-05 0 0.00388768 0 0.00457134)
(0.0052315 5.10162e-05 0 0.00390562 0 0.00464718)
(0.00529719 5.07107e-05 0 0.00383152 0 0.0046506)
(0.0053198 6.02501e-05 0 0.00360221 0 0.00454551)
(0.00526913 4.96816e-05 0 0.00345432 0 0.00443688)
(0.00528738 1.60192e-05 0 0.00344316 0 0.00443449)
(0.00561007 -5.49252e-05 0 0.0038173 0 0.00477984)
(0.00601384 -8.5057e-05 0 0.00435122 0 0.00524896)
(0.00627768 -9.60952e-05 0 0.00466723 0 0.00553188)
(0.00643466 -0.000105554 0 0.00474354 0 0.00564152)
(0.0065238 -0.000111472 0 0.00468833 0 0.00565201)
(0.00657764 -0.000105486 0 0.00461124 0 0.00563453)
(0.00662362 -0.000121237 0 0.0046198 0 0.00565844)
(0.0068072 -0.000170392 0 0.00480583 0 0.00584458)
(0.0070884 -0.000213261 0 0.00513079 0 0.00615366)
(0.00732912 -0.000240995 0 0.00543463 0 0.0064278)
(0.00753213 -0.000259486 0 0.00565545 0 0.00663298)
(0.00776574 -0.000263298 0 0.00577879 0 0.00679292)
(0.00804365 -0.000225847 0 0.00584702 0 0.00695235)
(0.0083263 -0.000171721 0 0.00597968 0 0.00717403)
(0.00896282 -0.00028587 0 0.00650219 0 0.00783035)
(0.0108196 -0.000859067 0 0.00849458 0 0.00997885)
(0.0120652 -0.0014777 0 0.0102738 0 0.0117749)
(0.012067 -0.00200528 0 0.0105774 0 0.0125986)
(0.00349121 2.37288e-05 0 0.00288232 0 0.0032382)
(0.00351778 3.84647e-05 0 0.00295501 0 0.00328699)
(0.00355639 4.88506e-05 0 0.00303256 0 0.00334458)
(0.00360794 6.48807e-05 0 0.00311279 0 0.00341136)
(0.00367483 8.62034e-05 0 0.00320161 0 0.00349009)
(0.00375152 0.000107729 0 0.00327783 0 0.00356759)
(0.00383519 0.000128284 0 0.0033312 0 0.00363713)
(0.00392525 0.000147426 0 0.00338035 0 0.00370703)
(0.00402167 0.000165711 0 0.00343471 0 0.00378273)
(0.00411789 0.000175545 0 0.0034895 0 0.00385864)
(0.00421959 0.000182525 0 0.00353707 0 0.00393363)
(0.00433016 0.000189426 0 0.00358293 0 0.00401243)
(0.00445156 0.000194093 0 0.00365493 0 0.00410913)
(0.00457814 0.000186364 0 0.00375099 0 0.00421968)
(0.0047319 0.000162927 0 0.00386565 0 0.00435264)
(0.00493045 0.000144042 0 0.00399946 0 0.00451676)
(0.00514246 0.00013525 0 0.00408259 0 0.00466107)
(0.00534617 0.000139751 0 0.00412472 0 0.00478243)
(0.00551394 0.00013765 0 0.00418133 0 0.00489902)
(0.00567573 0.000111882 0 0.00426156 0 0.00503131)
(0.0058272 7.71175e-05 0 0.00435105 0 0.00516757)
(0.00594626 5.59019e-05 0 0.00436525 0 0.00525368)
(0.00602588 5.57544e-05 0 0.00427971 0 0.00526086)
(0.00606755 6.70257e-05 0 0.00402353 0 0.00515295)
(0.00602241 5.38764e-05 0 0.00386243 0 0.00504002)
(0.00604813 1.08165e-05 0 0.00385213 0 0.00504063)
(0.00640034 -7.32818e-05 0 0.00426739 0 0.00542031)
(0.00684075 -0.000110879 0 0.00486153 0 0.00593659)
(0.00713329 -0.000125351 0 0.005218 0 0.00625126)
(0.00731532 -0.000138046 0 0.00530655 0 0.00637761)
(0.00742468 -0.00014568 0 0.00524396 0 0.0063942)
(0.00749632 -0.000137583 0 0.00515629 0 0.00637975)
(0.00755277 -0.000157016 0 0.00516986 0 0.00641053)
(0.00775536 -0.000216228 0 0.00537982 0 0.00661714)
(0.00806396 -0.000268652 0 0.00574044 0 0.00695735)
(0.00832846 -0.000303464 0 0.00607883 0 0.00726136)
(0.00855603 -0.00032646 0 0.00632838 0 0.00749222)
(0.00882497 -0.000331198 0 0.00646783 0 0.0076748)
(0.00914999 -0.000284759 0 0.00654226 0 0.00785857)
(0.00947887 -0.000219537 0 0.00669101 0 0.00811342)
(0.0102033 -0.000363566 0 0.00727579 0 0.0088596)
(0.0122774 -0.00106494 0 0.00948535 0 0.011269)
(0.0136547 -0.00182115 0 0.0114319 0 0.0132765)
(0.0136496 -0.00247781 0 0.011647 0 0.0142158)
(0.00389194 2.91308e-05 0 0.00319991 0 0.00360261)
(0.00391938 4.64486e-05 0 0.00327923 0 0.00365477)
(0.00395926 5.83166e-05 0 0.00336335 0 0.00371637)
(0.00401411 7.68884e-05 0 0.00345053 0 0.00378847)
(0.0040861 0.000101489 0 0.00354699 0 0.00387376)
(0.00416937 0.000126402 0 0.00362935 0 0.00395784)
(0.00426119 0.00015028 0 0.00368694 0 0.00403365)
(0.00436044 0.000172571 0 0.00373945 0 0.00410991)
(0.00446675 0.000194008 0 0.00379698 0 0.00419245)
(0.00457318 0.000205769 0 0.00385539 0 0.00427561)
(0.00468611 0.000214001 0 0.00390568 0 0.00435799)
(0.00480927 0.00022195 0 0.00395302 0 0.0044445)
(0.00494403 0.000227488 0 0.00402975 0 0.00455057)
(0.00508445 0.000218818 0 0.00413599 0 0.00467254)
(0.00525473 0.000192027 0 0.00426204 0 0.00481884)
(0.00547513 0.000170359 0 0.00440744 0 0.00499925)
(0.00571285 0.000160621 0 0.00449527 0 0.00515877)
(0.00594132 0.000166351 0 0.00453884 0 0.00529358)
(0.00612887 0.000163705 0 0.00460234 0 0.00542349)
(0.00630702 0.000134303 0 0.00468806 0 0.00556798)
(0.00647233 9.41463e-05 0 0.00478186 0 0.00571546)
(0.00660683 6.93719e-05 0 0.00479495 0 0.00581143)
(0.00670192 6.96179e-05 0 0.0047024 0 0.00582362)
(0.00676362 8.34428e-05 0 0.00442886 0 0.00571599)
(0.00672597 6.93102e-05 0 0.00426037 0 0.00560138)
(0.00675916 1.8567e-05 0 0.00425165 0 0.00560519)
(0.00713502 -7.95215e-05 0 0.00470244 0 0.00601367)
(0.00760532 -0.000125103 0 0.00534558 0 0.00656958)
(0.0079219 -0.000143759 0 0.00573333 0 0.00691109)
(0.00812666 -0.000159797 0 0.00583119 0 0.00705253)
(0.00825669 -0.000167524 0 0.00576654 0 0.00707672)
(0.00834867 -0.000155893 0 0.00567096 0 0.00706684)
(0.00841443 -0.000179578 0 0.00569006 0 0.0071047)
(0.00863203 -0.000249188 0 0.00591567 0 0.00732787)
(0.00896202 -0.000310871 0 0.00630031 0 0.00769284)
(0.00924694 -0.000352528 0 0.00667018 0 0.00802311)
(0.00949684 -0.000380503 0 0.00694716 0 0.00827753)
(0.00979949 -0.000386911 0 0.00710397 0 0.0084819)
(0.0101707 -0.000331612 0 0.00718592 0 0.00868958)
(0.0105441 -0.000252741 0 0.00734677 0 0.00897569)
(0.0113494 -0.000417915 0 0.00798998 0 0.00980485)
(0.0136166 -0.00123454 0 0.0104139 0 0.0124505)
(0.0151261 -0.00214145 0 0.0125499 0 0.0146623)
(0.0151324 -0.00294775 0 0.0126751 0 0.0157197)
(0.00426219 3.4071e-05 0 0.00347712 0 0.00393805)
(0.00429041 5.36901e-05 0 0.00356214 0 0.00399327)
(0.00433146 6.69612e-05 0 0.00365316 0 0.0040587)
(0.00438926 8.79414e-05 0 0.00374724 0 0.00413567)
(0.00446571 0.000115609 0 0.00385073 0 0.00422673)
(0.0045548 0.000143721 0 0.00393876 0 0.0043166)
(0.0046537 0.00017072 0 0.00399961 0 0.00439776)
(0.00476126 0.000195966 0 0.00405508 0 0.00447966)
(0.00487694 0.000220333 0 0.00411641 0 0.00456869)
(0.00499312 0.000233736 0 0.00417918 0 0.00465881)
(0.00511695 0.000242869 0 0.00423341 0 0.00474849)
(0.00525282 0.000251561 0 0.00428478 0 0.00484305)
(0.00540067 0.000257549 0 0.00436733 0 0.00495833)
(0.00555342 0.000247475 0 0.00448088 0 0.00509032)
(0.00573861 0.000216998 0 0.00461557 0 0.00524848)
(0.00597944 0.000192255 0 0.00477117 0 0.00544387)
(0.00624235 0.000180964 0 0.00486565 0 0.00561837)
(0.00649486 0.000186868 0 0.0049135 0 0.00576659)
(0.00669977 0.000182046 0 0.00498035 0 0.00590797)
(0.00689244 0.00014846 0 0.00506882 0 0.00606298)
(0.00707016 0.000102528 0 0.00516465 0 0.00622011)
(0.00721851 7.40507e-05 0 0.00517324 0 0.00632443)
(0.00732785 7.46348e-05 0 0.00506939 0 0.00634061)
(0.00740842 9.09116e-05 0 0.00477636 0 0.00623375)
(0.00737838 7.57561e-05 0 0.00459874 0 0.0061182)
(0.00741925 1.63042e-05 0 0.00459181 0 0.00612551)
(0.00781489 -9.5588e-05 0 0.00507411 0 0.00655867)
(0.00831156 -0.000148964 0 0.00576387 0 0.00714968)
(0.00865092 -0.00017163 0 0.00618477 0 0.00751652)
(0.00887775 -0.000191191 0 0.00629406 0 0.00767305)
(0.00902727 -0.000199733 0 0.00622544 0 0.0077047)
(0.00914152 -0.000184189 0 0.00611898 0 0.00769968)
(0.00921564 -0.000211811 0 0.00614625 0 0.00774533)
(0.00944851 -0.000291512 0 0.0063915 0 0.00798505)
(0.00979883 -0.000362794 0 0.00680317 0 0.00837318)
(0.0101015 -0.000412102 0 0.00720106 0 0.00872677)
(0.0103715 -0.000445368 0 0.00750259 0 0.00900258)
(0.0107054 -0.00045326 0 0.00767369 0 0.00922696)
(0.0111209 -0.000389147 0 0.00776113 0 0.00945738)
(0.0115388 -0.000298676 0 0.00793609 0 0.00977467)
(0.0124218 -0.000491088 0 0.00863223 0 0.0106824)
(0.0148629 -0.00142695 0 0.0112302 0 0.0135402)
(0.0164835 -0.00247596 0 0.013503 0 0.0159297)
(0.0165042 -0.00343631 0 0.0134935 0 0.0170952)
(0.00461716 3.90312e-05 0 0.00375271 0 0.00425939)
(0.00464667 6.10959e-05 0 0.00384401 0 0.00431801)
(0.00468859 7.57586e-05 0 0.00394102 0 0.00438689)
(0.00474895 9.91401e-05 0 0.00404122 0 0.00446824)
(0.0048293 0.000129805 0 0.00415085 0 0.00456441)
(0.00492343 0.000161083 0 0.00424348 0 0.00465927)
(0.00502873 0.000191203 0 0.00430729 0 0.00474519)
(0.00514382 0.000219433 0 0.00436508 0 0.00483206)
(0.00526796 0.000246841 0 0.00442893 0 0.00492673)
(0.00539303 0.00026212 0 0.00449489 0 0.00502309)
(0.00552681 0.00027235 0 0.00455154 0 0.00511926)
(0.00567401 0.00028191 0 0.0046039 0 0.00522061)
(0.00583391 0.000288742 0 0.00469016 0 0.00534413)
(0.00599893 0.000277909 0 0.00481242 0 0.00548617)
(0.00619876 0.000244332 0 0.00495691 0 0.005656)
(0.00645903 0.000216748 0 0.00512216 0 0.00586546)
(0.00674531 0.000204211 0 0.00522035 0 0.00605338)
(0.00701972 0.000210776 0 0.0052691 0 0.0062134)
(0.00724154 0.000204239 0 0.00534173 0 0.00636624)
(0.00744798 0.000166582 0 0.00543383 0 0.00653116)
(0.00763723 0.000115132 0 0.00553162 0 0.00669705)
(0.00779932 8.30007e-05 0 0.00553782 0 0.00680969)
(0.00792367 8.38266e-05 0 0.00542719 0 0.00683087)
(0.00802395 0.000101735 0 0.00512238 0 0.00672695)
(0.00800268 8.49276e-05 0 0.00494013 0 0.00661208)
(0.00805121 1.71931e-05 0 0.00493521 0 0.00662296)
(0.00846345 -0.000106835 0 0.00544596 0 0.00707774)
(0.00898246 -0.000167962 0 0.00617454 0 0.00769924)
(0.00934168 -0.000195134 0 0.00662223 0 0.00808833)
(0.00958891 -0.000218462 0 0.00674112 0 0.00825889)
(0.00975985 -0.000227602 0 0.00667149 0 0.00829915)
(0.00989593 -0.000208611 0 0.00655864 0 0.0083003)
(0.00997868 -0.000240413 0 0.00659349 0 0.0083538)
(0.0102243 -0.000329986 0 0.00685173 0 0.00860747)
(0.0105908 -0.000410281 0 0.00728082 0 0.00901441)
(0.010909 -0.000466608 0 0.00770396 0 0.00938895)
(0.0111978 -0.000505193 0 0.00802967 0 0.00968499)
(0.011562 -0.000514695 0 0.0082166 0 0.009929)
(0.0120217 -0.000441376 0 0.00831101 0 0.0101822)
(0.0124833 -0.000338174 0 0.00849749 0 0.0105297)
(0.0134401 -0.000553877 0 0.00924401 0 0.011512)
(0.016044 -0.0016034 0 0.0120229 0 0.0145698)
(0.017778 -0.00280251 0 0.0144513 0 0.0171349)
(0.0178293 -0.00393226 0 0.0142969 0 0.0184163)
(0.00495147 4.39465e-05 0 0.00400002 0 0.00456107)
(0.00498226 6.82974e-05 0 0.00409679 0 0.00462294)
(0.00502497 8.42524e-05 0 0.00419985 0 0.00469515)
(0.00508753 0.000109881 0 0.00430562 0 0.00478044)
(0.00517133 0.000143362 0 0.00442079 0 0.00488116)
(0.00527002 0.000177674 0 0.00451774 0 0.00498051)
(0.0053811 0.00021079 0 0.00458401 0 0.00507066)
(0.00550319 0.000241885 0 0.00464384 0 0.00516207)
(0.0056354 0.000272204 0 0.00471031 0 0.0052621)
(0.00576899 0.000289247 0 0.00477957 0 0.00536443)
(0.00591248 0.000300395 0 0.00483937 0 0.00546705)
(0.00607126 0.000310462 0 0.00489498 0 0.00557558)
(0.00624325 0.000317586 0 0.00498649 0 0.00570749)
(0.00641951 0.000305488 0 0.00511547 0 0.00585865)
(0.00663293 0.000268778 0 0.00526773 0 0.00603917)
(0.00691172 0.000238476 0 0.00544145 0 0.00626181)
(0.00722115 0.000224803 0 0.00554476 0 0.00646308)
(0.00751737 0.000231806 0 0.00559766 0 0.00663531)
(0.00775445 0.00022307 0 0.00567356 0 0.00679836)
(0.00797344 0.000181403 0 0.00576718 0 0.00697204)
(0.00817338 0.000124641 0 0.00586536 0 0.00714571)
(0.0083481 8.89988e-05 0 0.00586624 0 0.00726556)
(0.00848636 9.04237e-05 0 0.00574501 0 0.00729084)
(0.00860512 0.000110837 0 0.00542555 0 0.00718985)
(0.0085925 9.31776e-05 0 0.00523671 0 0.00707594)
(0.00864863 1.68381e-05 0 0.00523389 0 0.00709048)
(0.00907463 -0.000120541 0 0.0057701 0 0.00756393)
(0.00961391 -0.000190098 0 0.00653679 0 0.00821314)
(0.00999233 -0.000221841 0 0.00701298 0 0.00862359)
(0.0102596 -0.000248756 0 0.00714278 0 0.00880817)
(0.0104519 -0.000258043 0 0.00706935 0 0.00885672)
(0.0106086 -0.000234979 0 0.00694996 0 0.00886428)
(0.0107005 -0.000270816 0 0.00699283 0 0.00892598)
(0.0109593 -0.000370352 0 0.00726802 0 0.00919391)
(0.0113421 -0.000460003 0 0.00771886 0 0.00961927)
(0.0116744 -0.000523999 0 0.00816589 0 0.0100131)
(0.0119805 -0.000568368 0 0.00851371 0 0.0103279)
(0.0123733 -0.00057969 0 0.00871399 0 0.0105903)
(0.012876 -0.000497064 0 0.00881368 0 0.0108655)
(0.013382 -0.000381705 0 0.00901337 0 0.0112436)
(0.0144104 -0.000622201 0 0.0098069 0 0.0122976)
(0.0171613 -0.00178612 0 0.0127357 0 0.0155372)
(0.0189969 -0.00313611 0 0.0152879 0 0.0182624)
(0.0190855 -0.00444114 0 0.0149488 0 0.019659)
(0.00527501 4.86593e-05 0 0.0042465 0 0.00485283)
(0.00530763 7.54066e-05 0 0.0043496 0 0.00491836)
(0.00535107 9.26512e-05 0 0.00445855 0 0.00499382)
(0.00541566 0.000120464 0 0.0045697 0 0.00508281)
(0.0055026 0.000156648 0 0.00468995 0 0.0051877)
(0.00560538 0.00019394 0 0.00479059 0 0.00529104)
(0.00572175 0.000229991 0 0.00485901 0 0.005385)
(0.00585038 0.000263878 0 0.0049206 0 0.00548056)
(0.00599022 0.000297099 0 0.00498924 0 0.00558556)
(0.00613189 0.000315966 0 0.00506154 0 0.00569353)
(0.0062845 0.000327991 0 0.00512378 0 0.00580213)
(0.0064538 0.000338563 0 0.00518024 0 0.00591689)
(0.00663692 0.000346239 0 0.00527473 0 0.00605628)
(0.00682443 0.000333343 0 0.00541144 0 0.00621661)
(0.00705138 0.000293753 0 0.0055725 0 0.0064078)
(0.00734811 0.000260713 0 0.00575463 0 0.00664311)
(0.00767939 0.000245686 0 0.00586106 0 0.00685662)
(0.0079955 0.00025298 0 0.00591466 0 0.00703959)
(0.0082474 0.000241781 0 0.00599547 0 0.00721276)
(0.00847863 0.000196011 0 0.00609152 0 0.00739493)
(0.00868883 0.000134086 0 0.00619015 0 0.00757589)
(0.00887632 9.49837e-05 0 0.00618765 0 0.00770308)
(0.00902922 9.69438e-05 0 0.00605975 0 0.00773335)
(0.00916695 0.000119617 0 0.00573194 0 0.00763687)
(0.00916373 0.000100949 0 0.00553985 0 0.007525)
(0.00922747 1.61993e-05 0 0.00553985 0 0.00754334)
(0.00966537 -0.000133643 0 0.00609957 0 0.00803359)
(0.0102224 -0.000211739 0 0.00689865 0 0.00870743)
(0.0106182 -0.000248457 0 0.00739898 0 0.00913723)
(0.0109047 -0.000279261 0 0.00753854 0 0.00933522)
(0.0111193 -0.000288828 0 0.00746413 0 0.0093929)
(0.0112964 -0.000261882 0 0.00734151 0 0.00940773)
(0.0113976 -0.000301652 0 0.00739223 0 0.00947777)
(0.011668 -0.000411039 0 0.00767874 0 0.00975805)
(0.0120638 -0.000509831 0 0.00814274 0 0.0101985)
(0.0124087 -0.00058133 0 0.00861098 0 0.0106099)
(0.0127314 -0.000631576 0 0.00898096 0 0.0109428)
(0.013152 -0.000644728 0 0.00919583 0 0.0112233)
(0.0136978 -0.000552597 0 0.00930217 0 0.0115207)
(0.0142479 -0.000425012 0 0.00951337 0 0.0119289)
(0.0153458 -0.000688812 0 0.010352 0 0.0130521)
(0.0182387 -0.00196447 0 0.0134417 0 0.0164672)
(0.020178 -0.00346954 0 0.0161338 0 0.019352)
(0.0203153 -0.00496033 0 0.0155938 0 0.0208684)
(0.00558329 5.33235e-05 0 0.00447212 0 0.00513005)
(0.0056176 8.23604e-05 0 0.00458054 0 0.00519901)
(0.00566158 0.000100869 0 0.00469511 0 0.00527753)
(0.00572794 0.000130746 0 0.00481123 0 0.00536989)
(0.00581769 0.000169499 0 0.00493605 0 0.00547853)
(0.00592422 0.000209701 0 0.00504001 0 0.00558551)
(0.00604548 0.000248617 0 0.00511023 0 0.00568295)
(0.00618028 0.000285239 0 0.00517316 0 0.00578235)
(0.00632743 0.000321317 0 0.00524368 0 0.00589205)
(0.00647685 0.000342006 0 0.00531872 0 0.00600542)
(0.00663834 0.000354914 0 0.00538356 0 0.0061199)
(0.00681844 0.000365937 0 0.00544267 0 0.00624127)
(0.00701303 0.000373965 0 0.00554209 0 0.00638852)
(0.00721109 0.000360112 0 0.00568514 0 0.00655739)
(0.00745081 0.000317734 0 0.00585347 0 0.00675855)
(0.00776476 0.00028208 0 0.00604293 0 0.00700583)
(0.0081177 0.000265887 0 0.00615336 0 0.00723151)
(0.0084539 0.000273446 0 0.00621107 0 0.0074258)
(0.00871943 0.000259503 0 0.00629515 0 0.00760822)
(0.00896202 0.000209602 0 0.00639195 0 0.00779804)
(0.00918192 0.000142574 0 0.00648989 0 0.00798561)
(0.00938135 0.000100092 0 0.00648159 0 0.0081193)
(0.00954803 0.000102836 0 0.0063437 0 0.00815382)
(0.00970353 0.000127931 0 0.00600508 0 0.00806169)
(0.0097096 0.000108369 0 0.00580827 0 0.00795203)
(0.00978067 1.50776e-05 0 0.00581054 0 0.00797407)
(0.0102284 -0.000147134 0 0.00639184 0 0.00847902)
(0.0108017 -0.000234048 0 0.00722261 0 0.00917538)
(0.0112143 -0.000275932 0 0.00774788 0 0.00962379)
(0.0115197 -0.000310634 0 0.00789772 0 0.0098351)
(0.0117564 -0.0003202 0 0.00782011 0 0.00990158)
(0.0119529 -0.000289232 0 0.00769393 0 0.00992382)
(0.0120638 -0.000332871 0 0.00775264 0 0.0100024)
(0.0123462 -0.000451941 0 0.00805403 0 0.0102954)
(0.0127557 -0.000559924 0 0.00853606 0 0.0107511)
(0.0131124 -0.000639276 0 0.00902534 0 0.0111792)
(0.0134504 -0.000695813 0 0.00941588 0 0.0115291)
(0.0138976 -0.000710947 0 0.00964345 0 0.0118267)
(0.0144858 -0.000609124 0 0.00975508 0 0.0121458)
(0.0150808 -0.000469382 0 0.009979 0 0.0125845)
(0.0162464 -0.000756745 0 0.0108602 0 0.0137747)
(0.0192678 -0.00214332 0 0.0140852 0 0.0173505)
(0.0213033 -0.00380623 0 0.0168979 0 0.0203849)
(0.0214982 -0.00549127 0 0.0161217 0 0.0220235)
(0.00588308 5.77023e-05 0 0.0046965 0 0.0053994)
(0.00591956 8.91404e-05 0 0.00481128 0 0.00547222)
(0.00596409 0.000108913 0 0.0049316 0 0.00555379)
(0.00603203 0.00014077 0 0.0050524 0 0.0056493)
(0.00612439 0.000181982 0 0.00518142 0 0.00576141)
(0.00623443 0.000225068 0 0.00528848 0 0.00587176)
(0.00636036 0.000266823 0 0.00536055 0 0.00597251)
(0.00650119 0.000306137 0 0.00542504 0 0.00607565)
(0.00665551 0.00034504 0 0.00549763 0 0.00618996)
(0.00681254 0.000367548 0 0.00557571 0 0.00630866)
(0.00698256 0.000381212 0 0.0056431 0 0.00642881)
(0.00717263 0.000392453 0 0.00570312 0 0.00655607)
(0.0073777 0.000400784 0 0.00580493 0 0.00671024)
(0.00758631 0.000386124 0 0.00595501 0 0.00688769)
(0.00783884 0.000341125 0 0.0061315 0 0.00709887)
(0.00816969 0.000302904 0 0.00632845 0 0.00735782)
(0.00854335 0.000285458 0 0.00644159 0 0.00759488)
(0.00889789 0.00029319 0 0.00649995 0 0.00779913)
(0.00917664 0.000276315 0 0.00658825 0 0.00799066)
(0.00943046 0.000222266 0 0.00668661 0 0.008188)
(0.00965982 0.00015034 0 0.00678389 0 0.00838184)
(0.00987138 0.000104633 0 0.00677139 0 0.00852219)
(0.0100525 0.000108277 0 0.00662663 0 0.00856169)
(0.0102259 0.000135754 0 0.0062823 0 0.00847506)
(0.0102418 0.000115341 0 0.00608303 0 0.00836834)
(0.0103202 1.34666e-05 0 0.00608861 0 0.00839426)
(0.0107765 -0.000160963 0 0.00668974 0 0.00891252)
(0.0113645 -0.000256906 0 0.0075486 0 0.00962939)
(0.011793 -0.000304201 0 0.00809643 0 0.0100952)
(0.0121168 -0.000342801 0 0.0082562 0 0.0103195)
(0.0123761 -0.000352162 0 0.00817783 0 0.0103954)
(0.0125917 -0.000317278 0 0.00805062 0 0.0104256)
(0.0127125 -0.000364832 0 0.00811737 0 0.0105129)
(0.0130056 -0.000493636 0 0.00842892 0 0.0108171)
(0.0134262 -0.000610754 0 0.00892109 0 0.0112854)
(0.0137934 -0.000697922 0 0.00942874 0 0.0117288)
(0.0141464 -0.000760903 0 0.00983999 0 0.0120951)
(0.0146196 -0.000778163 0 0.0100811 0 0.0124097)
(0.0152503 -0.000666548 0 0.0101992 0 0.0127507)
(0.0158903 -0.000514572 0 0.0104349 0 0.0132197)
(0.0171222 -0.000824654 0 0.0113571 0 0.0144749)
(0.0202693 -0.00232047 0 0.0147301 0 0.0182078)
(0.0224041 -0.00414553 0 0.0176796 0 0.0213931)
(0.0226663 -0.00603459 0 0.0166435 0 0.0231578)
(0.00617098 6.19771e-05 0 0.00490497 0 0.00565742)