/*--------------------------------*- C++ -*----------------------------------*\
| =========                 |                                                 |
| \\      /  F ield         | OpenFOAM: The Open Source CFD Toolbox           |
|  \\    /   O peration     | Version:  v1912                                 |
|   \\  /    A nd           | Website:  www.openfoam.com                      |
|    \\/     M anipulation  |                                                 |
\*---------------------------------------------------------------------------*/
FoamFile
{
    version     2.0;
    format      ascii;
    class       volVectorField;
    location    "20";
    object      U;
}
// * * * * * * * * * * * * * * * * * * * * * * * * * * * * * * * * * * * * * //

dimensions      [0 1 -1 0 0 0 0];


internalField   nonuniform List<vector> 
114144
(
(1.88887 0.00994916 0)
(1.78895 0.0103266 0)
(1.66825 0.0106461 0)
(1.54465 0.0109283 0)
(1.41842 0.0111863 0)
(1.28976 0.0114272 0)
(1.15883 0.0116505 0)
(1.02591 0.0118471 0)
(0.891382 0.0120013 0)
(0.755852 0.0120945 0)
(0.620139 0.0121119 0)
(0.485267 0.0120539 0)
(0.352447 0.0119345 0)
(0.222973 0.0116893 0)
(0.0983913 0.011312 0)
(-0.0208991 0.0108083 0)
(-0.134743 0.0102231 0)
(-0.242089 0.00967851 0)
(-0.34283 0.0091561 0)
(-0.437503 0.00867895 0)
(-0.526791 0.00826676 0)
(-0.611546 0.00793106 0)
(-0.69268 0.0076744 0)
(-0.77108 0.00749165 0)
(-0.847526 0.00737286 0)
(-0.922664 0.00730683 0)
(-0.99701 0.00728449 0)
(-1.07099 0.00730148 0)
(-1.14502 0.00735913 0)
(-1.21955 0.00746383 0)
(-1.29512 0.00762491 0)
(-1.3724 0.00785141 0)
(-1.45213 0.00814861 0)
(-1.53511 0.00851484 0)
(-1.62204 0.0089394 0)
(-1.71347 0.00940257 0)
(-1.80967 0.00987612 0)
(-1.91052 0.0103252 0)
(-2.01555 0.0107132 0)
(-2.12385 0.0110061 0)
(-2.23424 0.0111769 0)
(-2.34529 0.0112086 0)
(-2.45551 0.0110962 0)
(-2.56344 0.0108463 0)
(-2.66777 0.0104749 0)
(-2.76745 0.0100038 0)
(-2.86166 0.00945613 0)
(-2.94984 0.0088524 0)
(-3.03163 0.00820698 0)
(-3.10676 0.0075265 0)
(-3.17497 0.0068099 0)
(-3.23599 0.00605015 0)
(-3.28941 0.00523695 0)
(-3.33472 0.00436002 0)
(-3.37131 0.0034121 0)
(-3.39854 0.0023904 0)
(-3.4158 0.00129779 0)
(-3.42264 0.000160962 0)
(-3.41865 -0.00102388 0)
(-3.40352 -0.00222526 0)
(-3.37727 -0.00343216 0)
(-3.34008 -0.00462687 0)
(-3.29223 -0.00579612 0)
(-3.2341 -0.00693032 0)
(-3.16614 -0.00802252 0)
(-3.08883 -0.00906667 0)
(-3.00271 -0.0100558 0)
(-2.90835 -0.0109804 0)
(-2.80645 -0.0118277 0)
(-2.6978 -0.0125825 0)
(-2.58335 -0.0132284 0)
(-2.46419 -0.0137501 0)
(-2.34153 -0.0141361 0)
(-2.21665 -0.0143811 0)
(-2.09082 -0.0144892 0)
(-1.96522 -0.014474 0)
(-1.84083 -0.0143575 0)
(-1.7184 -0.0141687 0)
(-1.59838 -0.0139393 0)
(-1.48092 -0.0137006 0)
(-1.36592 -0.0134792 0)
(-1.25306 -0.0132947 0)
(-1.14194 -0.0131595 0)
(-1.03212 -0.0130788 0)
(-0.923286 -0.013051 0)
(-0.81526 -0.0130569 0)
(-0.708062 -0.0130434 0)
(-0.601894 -0.0129692 0)
(-0.497145 -0.0128278 0)
(-0.394338 -0.0126195 0)
(-0.294063 -0.0123374 0)
(-0.196909 -0.0119798 0)
(-0.103578 -0.0115562 0)
(-0.0146001 -0.0110522 0)
(0.0709137 -0.0104371 0)
(0.152455 -0.00993168 0)
(0.229092 -0.00941614 0)
(0.301283 -0.0089074 0)
(0.369126 -0.00840831 0)
(0.432765 -0.00792292 0)
(0.492363 -0.00745518 0)
(0.548111 -0.00701024 0)
(0.600246 -0.00659557 0)
(0.649067 -0.00622146 0)
(0.694966 -0.00590082 0)
(0.738438 -0.00564823 0)
(0.780091 -0.00547841 0)
(0.820636 -0.00540432 0)
(0.86087 -0.00543531 0)
(0.901633 -0.00557551 0)
(0.943764 -0.00582245 0)
(0.988049 -0.00616718 0)
(1.03517 -0.00659401 0)
(1.08564 -0.0070814 0)
(1.13981 -0.00760311 0)
(1.19778 -0.00812932 0)
(1.25943 -0.00863931 0)
(1.32442 -0.00907459 0)
(1.39217 -0.00943242 0)
(1.46191 -0.00968012 0)
(1.53272 -0.00979712 0)
(1.60357 -0.00976974 0)
(1.67334 -0.0095919 0)
(1.74096 -0.00926608 0)
(1.80539 -0.00880342 0)
(1.86572 -0.00822354 0)
(1.92124 -0.00755401 0)
(1.97146 -0.00682843 0)
(2.01617 -0.00608417 0)
(2.05544 -0.00535937 0)
(2.08958 -0.00468944 0)
(2.11916 -0.00410353 0)
(2.14491 -0.00362123 0)
(2.16763 -0.00325022 0)
(2.18813 -0.00298518 0)
(2.20713 -0.00280806 0)
(2.22515 -0.00268983 0)
(2.24248 -0.00259355 0)
(2.25913 -0.00247946 0)
(2.27485 -0.00231076 0)
(2.28915 -0.00205797 0)
(2.30136 -0.00170242 0)
(2.31078 -0.00123879 0)
(2.31666 -0.00067001 0)
(2.31801 5.60656e-06 0)
(2.31518 0.000639988 0)
(2.30786 0.00134871 0)
(2.29594 0.00203428 0)
(2.27964 0.00266762 0)
(2.25946 0.00322931 0)
(2.236 0.00370907 0)
(2.20984 0.00410811 0)
(2.18151 0.00443771 0)
(2.15145 0.00471669 0)
(2.11992 0.00496806 0)
(2.08702 0.00521512 0)
(2.05271 0.00547782 0)
(2.0168 0.00576997 0)
(1.97906 0.0060987 0)
(1.93917 0.0064665 0)
(1.89684 0.00688819 0)
(1.85179 0.00738378 0)
(1.80386 0.00789796 0)
(1.7531 0.00843942 0)
(1.69927 0.00896308 0)
(1.64202 0.00956977 0)
(1.58125 0.0102078 0)
(1.51669 0.0108926 0)
(1.44803 0.0116329 0)
(1.37499 0.0124328 0)
(1.29729 0.013295 0)
(1.21468 0.0142195 0)
(1.12701 0.0151988 0)
(1.03419 0.016218 0)
(0.936302 0.0172514 0)
(0.833563 0.0182649 0)
(0.726395 0.0192173 0)
(0.615389 0.0200641 0)
(0.501272 0.0207617 0)
(0.384954 0.021271 0)
(0.267478 0.0215763 0)
(0.149887 0.021657 0)
(0.0329502 0.0215059 0)
(-0.0820105 0.0211239 0)
(-0.193575 0.0205137 0)
(-0.300837 0.0196706 0)
(-0.402665 0.0186081 0)
(-0.498052 0.0173832 0)
(-0.586282 0.0160374 0)
(-0.667004 0.0146499 0)
(-0.740227 0.0132942 0)
(-0.806377 0.0120243 0)
(-0.866134 0.0108842 0)
(-0.920311 0.00989478 0)
(-0.969717 0.00905255 0)
(-1.01508 0.00833394 0)
(-1.057 0.00771168 0)
(-1.09587 0.00714588 0)
(-1.13189 0.00659821 0)
(-1.16506 0.0060401 0)
(-1.19524 0.00544672 0)
(-1.2222 0.00480577 0)
(-1.24566 0.00411039 0)
(-1.26534 0.0033611 0)
(-1.28095 0.00256601 0)
(-1.29227 0.00173842 0)
(-1.29913 0.00090768 0)
(-1.30157 -2.05753e-06 0)
(-1.29922 -0.00083842 0)
(-1.29261 -0.00163756 0)
(-1.28192 -0.0023798 0)
(-1.26751 -0.00304991 0)
(-1.2498 -0.00363554 0)
(-1.22925 -0.00412802 0)
(-1.20638 -0.00452247 0)
(-1.18171 -0.00481767 0)
(-1.15576 -0.00501546 0)
(-1.12905 -0.00512097 0)
(-1.10203 -0.00514189 0)
(-1.0751 -0.00508768 0)
(-1.04864 -0.0049681 0)
(-1.02294 -0.00479708 0)
(-0.998252 -0.00458614 0)
(-0.974756 -0.0043478 0)
(-0.952563 -0.00409408 0)
(-0.931724 -0.00383609 0)
(-0.912234 -0.00358379 0)
(-0.894039 -0.00334577 0)
(-0.877041 -0.00312909 0)
(-0.861111 -0.00293932 0)
(-0.846095 -0.00278043 0)
(-0.831823 -0.00265495 0)
(-0.818113 -0.00256396 0)
(-0.804786 -0.00250721 0)
(-0.791663 -0.00248355 0)
(-0.778578 -0.00249118 0)
(-0.765378 -0.00252703 0)
(-0.751923 -0.00258787 0)
(-0.73809 -0.00267013 0)
(-0.723775 -0.00277009 0)
(-0.708896 -0.00288417 0)
(-0.693385 -0.00300911 0)
(-0.677192 -0.00314239 0)
(-0.660283 -0.0032831 0)
(-0.642621 -0.003433 0)
(-0.624114 -0.00359878 0)
(-0.604671 -0.00380511 0)
(-0.5844 -0.00417722 0)
(-0.562356 -0.00504067 0)
(-0.532353 -0.00702913 0)
(1.8907 0.0546668 0)
(1.78932 0.0564253 0)
(1.66857 0.0579469 0)
(1.54493 0.0593037 0)
(1.41867 0.06055 0)
(1.28999 0.0617132 0)
(1.15903 0.062783 0)
(1.02607 0.0637083 0)
(0.891471 0.0644037 0)
(0.75585 0.0647645 0)
(0.620031 0.06469 0)
(0.485051 0.0641124 0)
(0.352101 0.0630097 0)
(0.222474 0.0613169 0)
(0.0977495 0.0590603 0)
(-0.0216505 0.0563534 0)
(-0.135523 0.0532744 0)
(-0.242841 0.0502234 0)
(-0.343536 0.0472854 0)
(-0.438134 0.0446027 0)
(-0.527328 0.0422839 0)
(-0.611979 0.0403885 0)
(-0.693013 0.0389257 0)
(-0.771324 0.0378626 0)
(-0.847696 0.0371404 0)
(-0.922775 0.036694 0)
(-0.997072 0.0364706 0)
(-1.07101 0.0364441 0)
(-1.14499 0.0366204 0)
(-1.21945 0.0370348 0)
(-1.29495 0.0377396 0)
(-1.37214 0.0387867 0)
(-1.45178 0.0402075 0)
(-1.53468 0.0419951 0)
(-1.62155 0.0440927 0)
(-1.71295 0.0463912 0)
(-1.80916 0.0487361 0)
(-1.91008 0.0509419 0)
(-2.0152 0.0528166 0)
(-2.12365 0.0541859 0)
(-2.2342 0.0549157 0)
(-2.34543 0.0549288 0)
(-2.45583 0.0542109 0)
(-2.56391 0.0528086 0)
(-2.66838 0.050815 0)
(-2.76816 0.0483503 0)
(-2.86244 0.045539 0)
(-2.95067 0.0424881 0)
(-3.0325 0.0392708 0)
(-3.10765 0.0359188 0)
(-3.17591 0.032424 0)
(-3.23698 0.0287475 0)
(-3.29046 0.0248351 0)
(-3.33584 0.0206343 0)
(-3.37251 0.0161099 0)
(-3.39982 0.0112533 0)
(-3.41714 0.00608993 0)
(-3.42402 0.000724372 0)
(-3.42005 -0.00484552 0)
(-3.40492 -0.0104642 0)
(-3.37865 -0.0160665 0)
(-3.34142 -0.0215731 0)
(-3.29352 -0.0269245 0)
(-3.23534 -0.03208 0)
(-3.16731 -0.0370122 0)
(-3.08993 -0.0416985 0)
(-3.00372 -0.0461114 0)
(-2.90928 -0.050211 0)
(-2.80726 -0.0539411 0)
(-2.69849 -0.0572322 0)
(-2.58389 -0.0600095 0)
(-2.46457 -0.0622035 0)
(-2.34174 -0.063763 0)
(-2.21669 -0.0646688 0)
(-2.09071 -0.0649445 0)
(-1.96497 -0.0646585 0)
(-1.84048 -0.0639198 0)
(-1.71799 -0.0628665 0)
(-1.59795 -0.06165 0)
(-1.4805 -0.0604151 0)
(-1.36553 -0.0592818 0)
(-1.25273 -0.0583318 0)
(-1.14166 -0.0576013 0)
(-1.03191 -0.0570818 0)
(-0.92311 -0.0567264 0)
(-0.815086 -0.0564515 0)
(-0.707845 -0.0561287 0)
(-0.601609 -0.0556439 0)
(-0.496785 -0.0549032 0)
(-0.393897 -0.053852 0)
(-0.293539 -0.0524823 0)
(-0.196311 -0.0508043 0)
(-0.102909 -0.0488611 0)
(-0.0138511 -0.0466694 0)
(0.0716654 -0.0441789 0)
(0.153165 -0.0418906 0)
(0.229796 -0.0395884 0)
(0.301971 -0.0373241 0)
(0.369795 -0.035115 0)
(0.43341 -0.0329769 0)
(0.49298 -0.0309248 0)
(0.548693 -0.0289788 0)
(0.600782 -0.0271687 0)
(0.649547 -0.0255367 0)
(0.695374 -0.0241356 0)
(0.738758 -0.0230254 0)
(0.780309 -0.0222658 0)
(0.820742 -0.0219089 0)
(0.860857 -0.021991 0)
(0.901502 -0.0225259 0)
(0.943524 -0.0235004 0)
(0.987715 -0.0248729 0)
(1.03476 -0.0265749 0)
(1.0852 -0.0285139 0)
(1.13935 -0.0305794 0)
(1.19735 -0.0326493 0)
(1.25906 -0.034592 0)
(1.32414 -0.0362992 0)
(1.39201 -0.0376427 0)
(1.46189 -0.0385285 0)
(1.53286 -0.0388808 0)
(1.60386 -0.0386502 0)
(1.6738 -0.0378182 0)
(1.74158 -0.0364004 0)
(1.80613 -0.034447 0)
(1.86657 -0.0320419 0)
(1.92215 -0.029299 0)
(1.9724 -0.026355 0)
(2.0171 -0.02336 0)
(2.0563 -0.020465 0)
(2.09036 -0.0178081 0)
(2.11982 -0.0155009 0)
(2.14544 -0.0136157 0)
(2.16804 -0.0121771 0)
(2.18843 -0.0111584 0)
(2.20734 -0.010484 0)
(2.22531 -0.0100367 0)
(2.24264 -0.00967129 0)
(2.25934 -0.00923353 0)
(2.27513 -0.00858227 0)
(2.28953 -0.00760643 0)
(2.30185 -0.00623836 0)
(2.31137 -0.00446258 0)
(2.31733 -0.00229951 0)
(2.31872 0.000256706 0)
(2.3159 0.00267805 0)
(2.30856 0.00531873 0)
(2.29657 0.00785214 0)
(2.28018 0.010167 0)
(2.2599 0.0121916 0)
(2.23633 0.0138921 0)
(2.21007 0.0152788 0)
(2.18167 0.0163998 0)
(2.15156 0.0173307 0)
(2.12 0.0181601 0)
(2.0871 0.0189765 0)
(2.0528 0.0198557 0)
(2.01691 0.0208505 0)
(1.97919 0.0219879 0)
(1.93934 0.0232733 0)
(1.89703 0.0247186 0)
(1.85199 0.0263544 0)
(1.80406 0.0280993 0)
(1.75327 0.0299374 0)
(1.69944 0.0317846 0)
(1.6422 0.0338324 0)
(1.58141 0.0360051 0)
(1.51684 0.0383299 0)
(1.44816 0.0408231 0)
(1.37509 0.0434794 0)
(1.29734 0.0462792 0)
(1.21466 0.049186 0)
(1.12691 0.0521414 0)
(1.03398 0.0550695 0)
(0.935982 0.0578769 0)
(0.833134 0.0604647 0)
(0.725863 0.0627346 0)
(0.614772 0.0646002 0)
(0.500589 0.0659876 0)
(0.38423 0.0668449 0)
(0.266732 0.0671279 0)
(0.149128 0.0668102 0)
(0.0321783 0.0658519 0)
(-0.0828009 0.0642757 0)
(-0.194406 0.0621014 0)
(-0.301729 0.0592974 0)
(-0.403622 0.0559162 0)
(-0.499062 0.0520623 0)
(-0.587317 0.0479277 0)
(-0.668025 0.0437059 0)
(-0.741197 0.0395892 0)
(-0.807265 0.0357544 0)
(-0.866918 0.0323306 0)
(-0.920987 0.0293717 0)
(-0.970294 0.0268689 0)
(-1.01558 0.0247507 0)
(-1.05744 0.0229235 0)
(-1.09629 0.0212682 0)
(-1.13231 0.0196667 0)
(-1.16549 0.018031 0)
(-1.1957 0.0162853 0)
(-1.2227 0.0143904 0)
(-1.24621 0.0123248 0)
(-1.26593 0.0100923 0)
(-1.28158 0.00771583 0)
(-1.29292 0.0052369 0)
(-1.29978 0.00274536 0)
(-1.30222 1.34417e-05 0)
(-1.29984 -0.00249587 0)
(-1.2932 -0.00489516 0)
(-1.28246 -0.00712416 0)
(-1.26799 -0.00913616 0)
(-1.25021 -0.0108943 0)
(-1.22959 -0.0123725 0)
(-1.20664 -0.0135559 0)
(-1.1819 -0.014441 0)
(-1.15588 -0.0150335 0)
(-1.1291 -0.0153487 0)
(-1.10202 -0.0154098 0)
(-1.07504 -0.0152451 0)
(-1.04853 -0.0148879 0)
(-1.0228 -0.0143726 0)
(-0.998085 -0.0137377 0)
(-0.974573 -0.0130207 0)
(-0.952372 -0.0122577 0)
(-0.931534 -0.0114822 0)
(-0.912052 -0.010724 0)
(-0.89387 -0.0100089 0)
(-0.87689 -0.00935819 0)
(-0.860982 -0.00878839 0)
(-0.845991 -0.00831145 0)
(-0.831744 -0.00793482 0)
(-0.81806 -0.00766182 0)
(-0.804758 -0.00749205 0)
(-0.79166 -0.00742208 0)
(-0.778598 -0.00744524 0)
(-0.765418 -0.0075532 0)
(-0.751981 -0.00773614 0)
(-0.738162 -0.00798338 0)
(-0.72386 -0.00828377 0)
(-0.708989 -0.0086265 0)
(-0.693486 -0.00900178 0)
(-0.677299 -0.00940192 0)
(-0.660394 -0.00982389 0)
(-0.642738 -0.0102719 0)
(-0.624248 -0.0107655 0)
(-0.604854 -0.0113728 0)
(-0.58465 -0.0123233 0)
(-0.562552 -0.0134157 0)
(-0.537201 -0.0131379 0)
(1.89224 0.097195 0)
(1.79013 0.100167 0)
(1.66927 0.102755 0)
(1.54557 0.105069 0)
(1.41927 0.107202 0)
(1.29054 0.109198 0)
(1.15953 0.111036 0)
(1.02646 0.112625 0)
(0.891722 0.11381 0)
(0.755897 0.114401 0)
(0.619822 0.114207 0)
(0.484553 0.113073 0)
(0.3513 0.110912 0)
(0.22138 0.107731 0)
(0.0964077 0.103625 0)
(-0.0231967 0.0988463 0)
(-0.13717 0.0934132 0)
(-0.244458 0.0879425 0)
(-0.345052 0.0826717 0)
(-0.439481 0.0778633 0)
(-0.528462 0.0737118 0)
(-0.612884 0.0703214 0)
(-0.693697 0.0677049 0)
(-0.771813 0.0657997 0)
(-0.848025 0.0644967 0)
(-0.922977 0.0636758 0)
(-0.997169 0.06324 0)
(-1.07101 0.0631408 0)
(-1.14488 0.0633888 0)
(-1.2192 0.0640483 0)
(-1.29454 0.0652153 0)
(-1.37154 0.0669861 0)
(-1.45099 0.0694202 0)
(-1.5337 0.0725085 0)
(-1.62044 0.0761515 0)
(-1.71177 0.0801541 0)
(-1.80801 0.0842383 0)
(-1.90905 0.0880756 0)
(-2.01439 0.0913248 0)
(-2.12314 0.0936779 0)
(-2.23405 0.0949007 0)
(-2.34567 0.0948612 0)
(-2.45643 0.0935408 0)
(-2.56485 0.0910277 0)
(-2.66958 0.0874925 0)
(-2.76957 0.0831524 0)
(-2.86399 0.0782303 0)
(-2.95232 0.072916 0)
(-3.03421 0.0673383 0)
(-3.10943 0.0615513 0)
(-3.17776 0.0555379 0)
(-3.23893 0.0492272 0)
(-3.29254 0.0425216 0)
(-3.33807 0.0353272 0)
(-3.37491 0.0275813 0)
(-3.40237 0.0192709 0)
(-3.41983 0.010446 0)
(-3.4268 0.00127854 0)
(-3.42289 -0.00823585 0)
(-3.40776 -0.0178191 0)
(-3.38145 -0.0273534 0)
(-3.34415 -0.0367049 0)
(-3.29615 -0.0457737 0)
(-3.23785 -0.0544932 0)
(-3.16969 -0.0628205 0)
(-3.09218 -0.070721 0)
(-3.00582 -0.0781515 0)
(-2.91119 -0.0850463 0)
(-2.80897 -0.0913108 0)
(-2.69995 -0.0968263 0)
(-2.58507 -0.101465 0)
(-2.46544 -0.105108 0)
(-2.34228 -0.107668 0)
(-2.2169 -0.10911 0)
(-2.09061 -0.109477 0)
(-1.96462 -0.108889 0)
(-1.83993 -0.107533 0)
(-1.71732 -0.10565 0)
(-1.59724 -0.103501 0)
(-1.47982 -0.101335 0)
(-1.36493 -0.0993573 0)
(-1.25223 -0.097704 0)
(-1.14127 -0.0964276 0)
(-1.03161 -0.0954971 0)
(-0.922864 -0.0948113 0)
(-0.814847 -0.094223 0)
(-0.707565 -0.0935619 0)
(-0.601233 -0.0926685 0)
(-0.496263 -0.0913897 0)
(-0.393213 -0.089604 0)
(-0.292697 -0.0872711 0)
(-0.195327 -0.0844232 0)
(-0.101804 -0.0811348 0)
(-0.0126273 -0.0774753 0)
(0.0729156 -0.0734 0)
(0.154374 -0.0695302 0)
(0.230993 -0.0656551 0)
(0.303141 -0.0618487 0)
(0.370929 -0.0581417 0)
(0.434503 -0.0545585 0)
(0.494022 -0.0511219 0)
(0.549674 -0.0478635 0)
(0.601685 -0.0448316 0)
(0.650348 -0.0420954 0)
(0.696045 -0.0397427 0)
(0.73927 -0.0378726 0)
(0.780634 -0.036585 0)
(0.820859 -0.0359664 0)
(0.860754 -0.036077 0)
(0.901179 -0.0369399 0)
(0.942995 -0.0385314 0)
(0.987009 -0.0407824 0)
(1.03392 -0.043578 0)
(1.08427 -0.0467642 0)
(1.1384 -0.0501571 0)
(1.19642 -0.0535545 0)
(1.25823 -0.0567488 0)
(1.32346 -0.0595309 0)
(1.39153 -0.06172 0)
(1.46166 -0.0631541 0)
(1.5329 -0.0637091 0)
(1.6042 -0.0633046 0)
(1.67443 -0.0619118 0)
(1.74248 -0.0595571 0)
(1.80727 -0.0563247 0)
(1.86789 -0.0523529 0)
(1.9236 -0.0478302 0)
(1.97391 -0.0429819 0)
(2.01859 -0.0380549 0)
(2.0577 -0.0332978 0)
(2.09161 -0.0289378 0)
(2.12088 -0.025158 0)
(2.14628 -0.0220768 0)
(2.16866 -0.0197341 0)
(2.18886 -0.0180852 0)
(2.20763 -0.017005 0)
(2.22552 -0.0163008 0)
(2.24285 -0.0157322 0)
(2.25961 -0.0150455 0)
(2.27553 -0.0140088 0)
(2.2901 -0.0124398 0)
(2.30261 -0.010228 0)
(2.31231 -0.00734821 0)
(2.31844 -0.0038369 0)
(2.31993 0.000314756 0)
(2.31714 0.00425139 0)
(2.30977 0.00854131 0)
(2.2977 0.0126541 0)
(2.28118 0.0164072 0)
(2.26075 0.0196838 0)
(2.23702 0.0224285 0)
(2.21061 0.0246585 0)
(2.18209 0.0264533 0)
(2.1519 0.027937 0)
(2.12031 0.0292559 0)
(2.08742 0.0305553 0)
(2.05315 0.0319595 0)
(2.01733 0.0335549 0)
(1.97967 0.0353863 0)
(1.93988 0.0374633 0)
(1.89764 0.0397839 0)
(1.85265 0.042368 0)
(1.80476 0.0451616 0)
(1.75399 0.0481066 0)
(1.70019 0.0510956 0)
(1.643 0.0543715 0)
(1.58228 0.0578565 0)
(1.51777 0.0615904 0)
(1.44916 0.0656039 0)
(1.37616 0.0698985 0)
(1.29846 0.074454 0)
(1.21583 0.0792268 0)
(1.12808 0.0841364 0)
(1.03513 0.0890714 0)
(0.937056 0.0938847 0)
(0.83409 0.0984101 0)
(0.726661 0.102472 0)
(0.615379 0.105901 0)
(0.500985 0.108544 0)
(0.384399 0.11028 0)
(0.266666 0.111038 0)
(0.148813 0.110759 0)
(0.0316062 0.109401 0)
(-0.0836302 0.106978 0)
(-0.19551 0.10348 0)
(-0.303118 0.0989098 0)
(-0.405273 0.0933344 0)
(-0.500911 0.0869701 0)
(-0.589278 0.0801049 0)
(-0.670006 0.0730503 0)
(-0.743107 0.0661403 0)
(-0.809027 0.0596894 0)
(-0.868483 0.0539322 0)
(-0.922338 0.0489704 0)
(-0.971445 0.0447824 0)
(-1.01657 0.0412497 0)
(-1.05832 0.038211 0)
(-1.09711 0.0354611 0)
(-1.13313 0.0327997 0)
(-1.16635 0.0300794 0)
(-1.19662 0.0271709 0)
(-1.22371 0.0240112 0)
(-1.2473 0.0205643 0)
(-1.2671 0.0168366 0)
(-1.28281 0.0128681 0)
(-1.2942 0.00872758 0)
(-1.30108 0.00456552 0)
(-1.30351 1.04995e-06 0)
(-1.30108 -0.0041907 0)
(-1.29437 -0.00819838 0)
(-1.28353 -0.0119208 0)
(-1.26895 -0.0152803 0)
(-1.25103 -0.0182147 0)
(-1.23026 -0.0206808 0)
(-1.20717 -0.0226539 0)
(-1.18227 -0.0241282 0)
(-1.15611 -0.0251135 0)
(-1.1292 -0.0256353 0)
(-1.10199 -0.0257329 0)
(-1.0749 -0.0254534 0)
(-1.04831 -0.0248504 0)
(-1.02251 -0.0239858 0)
(-0.997742 -0.0229217 0)
(-0.974198 -0.0217209 0)
(-0.951982 -0.0204439 0)
(-0.931145 -0.0191465 0)
(-0.911678 -0.0178787 0)
(-0.893523 -0.0166834 0)
(-0.87658 -0.0155961 0)
(-0.860716 -0.0146445 0)
(-0.845774 -0.0138483 0)
(-0.831578 -0.0132201 0)
(-0.817947 -0.0127651 0)
(-0.804696 -0.0124828 0)
(-0.791647 -0.0123668 0)
(-0.778629 -0.0124067 0)
(-0.76549 -0.0125882 0)
(-0.752088 -0.0128948 0)
(-0.738299 -0.0133087 0)
(-0.724021 -0.013811 0)
(-0.709169 -0.0143838 0)
(-0.69368 -0.0150105 0)
(-0.677504 -0.0156782 0)
(-0.660609 -0.0163815 0)
(-0.642964 -0.0171251 0)
(-0.624492 -0.0179319 0)
(-0.605228 -0.0189035 0)
(-0.585343 -0.0203633 0)
(-0.564244 -0.0220968 0)
(-0.540288 -0.0241177 0)
(1.89406 0.140699 0)
(1.79139 0.144932 0)
(1.67038 0.148619 0)
(1.54657 0.151922 0)
(1.42021 0.154976 0)
(1.29142 0.157846 0)
(1.16032 0.160503 0)
(1.02711 0.162809 0)
(0.892137 0.164536 0)
(0.75599 0.165404 0)
(0.619507 0.165123 0)
(0.483769 0.163458 0)
(0.350027 0.16027 0)
(0.219647 0.15558 0)
(0.0943019 0.149555 0)
(-0.025609 0.142579 0)
(-0.139747 0.134689 0)
(-0.246999 0.126703 0)
(-0.347433 0.119011 0)
(-0.441593 0.112002 0)
(-0.530235 0.105962 0)
(-0.614291 0.101042 0)
(-0.694753 0.0972576 0)
(-0.772561 0.0945107 0)
(-0.848524 0.0926364 0)
(-0.92328 0.0914537 0)
(-0.997311 0.090817 0)
(-1.071 0.0906533 0)
(-1.1447 0.0909792 0)
(-1.21881 0.0918919 0)
(-1.29389 0.0935375 0)
(-1.37059 0.0960625 0)
(-1.44973 0.0995603 0)
(-1.53215 0.104022 0)
(-1.61866 0.109303 0)
(-1.70989 0.115122 0)
(-1.80616 0.12107 0)
(-1.90739 0.126663 0)
(-2.01309 0.131399 0)
(-2.12232 0.134826 0)
(-2.2338 0.1366 0)
(-2.34601 0.136531 0)
(-2.45736 0.134594 0)
(-2.56629 0.130924 0)
(-2.67146 0.125775 0)
(-2.77176 0.119471 0)
(-2.8664 0.112342 0)
(-2.95487 0.104668 0)
(-3.03686 0.0966363 0)
(-3.11216 0.0883249 0)
(-3.18061 0.0797047 0)
(-3.24193 0.0706677 0)
(-3.29575 0.0610666 0)
(-3.34153 0.0507599 0)
(-3.37862 0.0396533 0)
(-3.40634 0.0277269 0)
(-3.424 0.0150562 0)
(-3.43113 0.00188842 0)
(-3.4273 -0.0117838 0)
(-3.41218 -0.0255484 0)
(-3.38581 -0.0392317 0)
(-3.34839 -0.0526405 0)
(-3.30024 -0.0656325 0)
(-3.24176 -0.0781147 0)
(-3.17341 -0.09003 0)
(-3.09569 -0.101333 0)
(-3.0091 -0.111966 0)
(-2.9142 -0.121836 0)
(-2.81166 -0.130807 0)
(-2.70226 -0.138706 0)
(-2.58695 -0.145347 0)
(-2.46683 -0.150554 0)
(-2.34315 -0.154196 0)
(-2.21726 -0.156224 0)
(-2.09049 -0.156696 0)
(-1.96409 -0.155787 0)
(-1.8391 -0.15377 0)
(-1.71631 -0.150997 0)
(-1.59616 -0.147849 0)
(-1.47878 -0.144691 0)
(-1.36402 -0.141821 0)
(-1.2515 -0.139437 0)
(-1.14072 -0.137612 0)
(-1.03119 -0.136297 0)
(-0.922528 -0.135337 0)
(-0.814513 -0.134507 0)
(-0.707151 -0.133549 0)
(-0.600672 -0.132223 0)
(-0.495498 -0.130346 0)
(-0.392201 -0.127782 0)
(-0.291433 -0.124446 0)
(-0.193838 -0.120364 0)
(-0.100128 -0.11565 0)
(-0.0107789 -0.110427 0)
(0.0748122 -0.104678 0)
(0.156224 -0.0991254 0)
(0.232824 -0.0935759 0)
(0.304929 -0.0881279 0)
(0.372664 -0.0828261 0)
(0.436174 -0.077703 0)
(0.495618 -0.0727887 0)
(0.551177 -0.0681263 0)
(0.603069 -0.063784 0)
(0.651575 -0.0598603 0)
(0.697072 -0.0564819 0)
(0.74005 -0.0537928 0)
(0.781123 -0.0519378 0)
(0.821021 -0.051043 0)
(0.86057 -0.0511963 0)
(0.90065 -0.0524321 0)
(0.942142 -0.0547171 0)
(0.985876 -0.0579516 0)
(1.03257 -0.0619702 0)
(1.08278 -0.0665509 0)
(1.13686 -0.0714292 0)
(1.19494 -0.0763141 0)
(1.2569 -0.0808986 0)
(1.32237 -0.0849052 0)
(1.39076 -0.0880533 0)
(1.46127 -0.0901164 0)
(1.53295 -0.0909165 0)
(1.6047 -0.0903387 0)
(1.67539 -0.088341 0)
(1.74386 -0.0849613 0)
(1.80904 -0.0803206 0)
(1.86996 -0.0746177 0)
(1.92587 -0.0681237 0)
(1.97627 -0.0611633 0)
(2.02092 -0.0540928 0)
(2.0599 -0.0472707 0)
(2.09356 -0.0410254 0)
(2.12252 -0.0356214 0)
(2.14758 -0.0312299 0)
(2.16961 -0.027908 0)
(2.18951 -0.0255907 0)
(2.20806 -0.0240967 0)
(2.22583 -0.0231462 0)
(2.24315 -0.0223899 0)
(2.26002 -0.0214589 0)
(2.27616 -0.0200174 0)
(2.291 -0.0178016 0)
(2.30383 -0.0146516 0)
(2.31383 -0.0105318 0)
(2.32021 -0.0055006 0)
(2.32186 0.000466 0)
(2.31913 0.00614058 0)
(2.31173 0.0122815 0)
(2.29952 0.0181748 0)
(2.2828 0.0235442 0)
(2.26211 0.028219 0)
(2.23812 0.0321205 0)
(2.21148 0.0352759 0)
(2.18278 0.0378028 0)
(2.15247 0.0398833 0)
(2.12083 0.0417307 0)
(2.08795 0.0435565 0)
(2.05374 0.0455415 0)
(2.01801 0.047811 0)
(1.98046 0.0504281 0)
(1.94077 0.0534034 0)
(1.89863 0.0567222 0)
(1.85374 0.0603923 0)
(1.80591 0.0643682 0)
(1.75517 0.0685713 0)
(1.70142 0.0728591 0)
(1.64432 0.0775251 0)
(1.58368 0.0824977 0)
(1.51926 0.0878268 0)
(1.45075 0.0935526 0)
(1.37783 0.0996729 0)
(1.30019 0.106151 0)
(1.21756 0.112912 0)
(1.12976 0.119831 0)
(1.0367 0.126738 0)
(0.938435 0.133416 0)
(0.835223 0.13963 0)
(0.727506 0.145137 0)
(0.615912 0.149718 0)
(0.501201 0.153185 0)
(0.384312 0.1554 0)
(0.266287 0.156261 0)
(0.148135 0.155707 0)
(0.0306192 0.153674 0)
(-0.084956 0.150168 0)
(-0.197215 0.14518 0)
(-0.305222 0.138697 0)
(-0.40775 0.130832 0)
(-0.503678 0.121862 0)
(-0.59222 0.112192 0)
(-0.672993 0.102242 0)
(-0.745994 0.0925076 0)
(-0.81169 0.0834371 0)
(-0.870841 0.0753543 0)
(-0.924366 0.0684029 0)
(-0.973169 0.0625634 0)
(-1.01805 0.0576559 0)
(-1.05964 0.0534398 0)
(-1.09835 0.049629 0)
(-1.13436 0.0459353 0)
(-1.16763 0.0421516 0)
(-1.19801 0.0380965 0)
(-1.22521 0.0336799 0)
(-1.24894 0.0288538 0)
(-1.26886 0.0236287 0)
(-1.28467 0.0180605 0)
(-1.29613 0.0122492 0)
(-1.30304 0.00640145 0)
(-1.30545 -8.40668e-06 0)
(-1.30295 -0.00589762 0)
(-1.29613 -0.0115266 0)
(-1.28515 -0.0167537 0)
(-1.27038 -0.0214692 0)
(-1.25226 -0.0255862 0)
(-1.23127 -0.0290438 0)
(-1.20795 -0.0318076 0)
(-1.18283 -0.0338695 0)
(-1.15645 -0.035244 0)
(-1.12934 -0.0359673 0)
(-1.10195 -0.0360944 0)
(-1.0747 -0.0356923 0)
(-1.04797 -0.0348365 0)
(-1.02207 -0.0336135 0)
(-0.997227 -0.0321112 0)
(-0.973634 -0.0304181 0)
(-0.951397 -0.0286191 0)
(-0.930562 -0.0267928 0)
(-0.911118 -0.0250092 0)
(-0.893004 -0.0233287 0)
(-0.876117 -0.021801 0)
(-0.860319 -0.0204647 0)
(-0.84545 -0.0193475 0)
(-0.831332 -0.0184668 0)
(-0.81778 -0.01783 0)
(-0.804606 -0.0174357 0)
(-0.79163 -0.0172756 0)
(-0.77868 -0.0173343 0)
(-0.765602 -0.0175918 0)
(-0.752253 -0.0180248 0)
(-0.738508 -0.018608 0)
(-0.724266 -0.019315 0)
(-0.709442 -0.0201202 0)
(-0.693974 -0.0210004 0)
(-0.677814 -0.0219369 0)
(-0.660933 -0.0229212 0)
(-0.643309 -0.0239564 0)
(-0.62488 -0.0250595 0)
(-0.605704 -0.0263392 0)
(-0.585939 -0.0280976 0)
(-0.565106 -0.0299212 0)
(-0.543004 -0.0313099 0)
(1.89627 0.184547 0)
(1.79309 0.190034 0)
(1.67188 0.19481 0)
(1.54795 0.199095 0)
(1.42149 0.203071 0)
(1.29263 0.206829 0)
(1.16142 0.210331 0)
(1.02801 0.213391 0)
(0.892726 0.215705 0)
(0.756136 0.21689 0)
(0.619088 0.216556 0)
(0.482698 0.21438 0)
(0.348276 0.210169 0)
(0.217257 0.203958 0)
(0.0913961 0.195957 0)
(-0.0289279 0.18668 0)
(-0.14329 0.176246 0)
(-0.250496 0.165664 0)
(-0.350706 0.155477 0)
(-0.44449 0.146212 0)
(-0.532658 0.13825 0)
(-0.616206 0.131788 0)
(-0.696182 0.126839 0)
(-0.773568 0.123268 0)
(-0.849189 0.120843 0)
(-0.923681 0.119315 0)
(-0.997499 0.118485 0)
(-1.07099 0.118253 0)
(-1.14446 0.118642 0)
(-1.21829 0.119787 0)
(-1.29301 0.121891 0)
(-1.3693 0.12516 0)
(-1.44799 0.129727 0)
(-1.53001 0.135589 0)
(-1.61621 0.142559 0)
(-1.70728 0.150262 0)
(-1.8036 0.158152 0)
(-1.9051 0.165581 0)
(-2.01128 0.171876 0)
(-2.12117 0.17643 0)
(-2.23344 0.178785 0)
(-2.34648 0.178687 0)
(-2.45863 0.176109 0)
(-2.56828 0.171236 0)
(-2.67402 0.164417 0)
(-2.77475 0.156088 0)
(-2.86968 0.146696 0)
(-2.95833 0.136619 0)
(-3.04045 0.126108 0)
(-3.11587 0.115262 0)
(-3.18446 0.104036 0)
(-3.246 0.0922804 0)
(-3.30009 0.0797906 0)
(-3.3462 0.0663718 0)
(-3.38366 0.0518931 0)
(-3.41172 0.0363261 0)
(-3.42968 0.0197731 0)
(-3.43702 0.00255751 0)
(-3.4333 -0.015318 0)
(-3.41819 -0.0333083 0)
(-3.39173 -0.0511781 0)
(-3.35415 -0.0686726 0)
(-3.30579 -0.0856063 0)
(-3.24707 -0.101862 0)
(-3.17846 -0.117373 0)
(-3.10045 -0.132086 0)
(-3.01355 -0.145931 0)
(-2.9183 -0.158792 0)
(-2.81533 -0.170487 0)
(-2.70542 -0.180786 0)
(-2.58951 -0.189443 0)
(-2.46872 -0.19622 0)
(-2.34434 -0.20094 0)
(-2.21774 -0.203529 0)
(-2.09032 -0.204065 0)
(-1.96336 -0.202778 0)
(-1.83796 -0.200033 0)
(-1.71492 -0.196298 0)
(-1.59469 -0.192084 0)
(-1.47739 -0.187875 0)
(-1.36281 -0.18407 0)
(-1.25053 -0.180929 0)
(-1.13999 -0.178549 0)
(-1.03067 -0.176858 0)
(-0.922113 -0.175643 0)
(-0.814096 -0.174598 0)
(-0.706618 -0.173374 0)
(-0.599926 -0.171645 0)
(-0.494472 -0.169157 0)
(-0.390854 -0.165761 0)
(-0.28975 -0.161392 0)
(-0.19185 -0.156056 0)
(-0.0978916 -0.149896 0)
(-0.0083294 -0.143093 0)
(0.0773332 -0.135683 0)
(0.158702 -0.128431 0)
(0.235274 -0.121196 0)
(0.307321 -0.1141 0)
(0.374982 -0.107201 0)
(0.438406 -0.100536 0)
(0.497751 -0.0941411 0)
(0.553188 -0.0880687 0)
(0.604921 -0.0824053 0)
(0.653219 -0.0772791 0)
(0.698448 -0.0728563 0)
(0.741093 -0.0693272 0)
(0.781772 -0.0668838 0)
(0.821229 -0.0656938 0)
(0.860309 -0.0658744 0)
(0.899919 -0.0674728 0)
(0.940972 -0.0704447 0)
(0.984324 -0.0746606 0)
(1.03072 -0.0799034 0)
(1.08075 -0.0858819 0)
(1.13477 -0.0922493 0)
(1.19291 -0.0986244 0)
(1.25506 -0.104614 0)
(1.32085 -0.109835 0)
(1.38967 -0.11394 0)
(1.4607 -0.116629 0)
(1.53296 -0.117669 0)
(1.60533 -0.116911 0)
(1.67663 -0.114301 0)
(1.7457 -0.109886 0)
(1.81138 -0.103827 0)
(1.8727 -0.0963817 0)
(1.92889 -0.0879061 0)
(1.97941 -0.0788252 0)
(2.02402 -0.0696058 0)
(2.06281 -0.060719 0)
(2.09616 -0.0525958 0)
(2.1247 -0.045584 0)
(2.14929 -0.0399082 0)
(2.17086 -0.035643 0)
(2.19035 -0.0327022 0)
(2.20859 -0.030847 0)
(2.22619 -0.0297089 0)
(2.24351 -0.0288258 0)
(2.26054 -0.0277097 0)
(2.27695 -0.0259194 0)
(2.29218 -0.0231083 0)
(2.30542 -0.0190663 0)
(2.31583 -0.0137473 0)
(2.32256 -0.0072397 0)
(2.32445 0.000510356 0)
(2.32179 0.00792608 0)
(2.31433 0.015855 0)
(2.30195 0.0234792 0)
(2.28495 0.0304111 0)
(2.26393 0.036423 0)
(2.23959 0.0414133 0)
(2.21264 0.0454203 0)
(2.18369 0.0486022 0)
(2.15323 0.0512015 0)
(2.12152 0.0535006 0)
(2.08867 0.0557793 0)
(2.05456 0.0582755 0)
(2.01896 0.0611524 0)
(1.98156 0.0644893 0)
(1.94201 0.0682958 0)
(1.90001 0.0725394 0)
(1.85524 0.077201 0)
(1.80751 0.0822489 0)
(1.75683 0.0875976 0)
(1.70316 0.0930764 0)
(1.64618 0.0990066 0)
(1.58567 0.105334 0)
(1.52141 0.112124 0)
(1.45306 0.119431 0)
(1.38029 0.127259 0)
(1.30277 0.135567 0)
(1.2202 0.144264 0)
(1.1324 0.153191 0)
(1.03923 0.162133 0)
(0.940781 0.170809 0)
(0.837286 0.178914 0)
(0.729206 0.186129 0)
(0.617192 0.192161 0)
(0.502029 0.196751 0)
(0.384667 0.199708 0)
(0.266165 0.200912 0)
(0.147529 0.200282 0)
(0.0295151 0.197769 0)
(-0.0865742 0.193357 0)
(-0.199387 0.186995 0)
(-0.307961 0.178701 0)
(-0.411004 0.168596 0)
(-0.507337 0.157063 0)
(-0.596137 0.144522 0)
(-0.676972 0.131582 0)
(-0.749836 0.118928 0)
(-0.81523 0.107158 0)
(-0.873974 0.0966995 0)
(-0.927057 0.0877388 0)
(-0.975447 0.0802436 0)
(-1.02 0.0739739 0)
(-1.06137 0.0686111 0)
(-1.09997 0.063772 0)
(-1.13598 0.0590768 0)
(-1.16934 0.0542552 0)
(-1.19985 0.0490663 0)
(-1.22722 0.0433997 0)
(-1.25113 0.0371933 0)
(-1.27122 0.0304618 0)
(-1.28716 0.0232818 0)
(-1.29871 0.0157829 0)
(-1.30566 0.0082279 0)
(-1.30804 -4.71992e-05 0)
(-1.30546 -0.00765255 0)
(-1.29848 -0.0149209 0)
(-1.28731 -0.0216686 0)
(-1.2723 -0.027753 0)
(-1.2539 -0.0330615 0)
(-1.23262 -0.0375156 0)
(-1.209 -0.0410714 0)
(-1.18358 -0.0437191 0)
(-1.15691 -0.0454775 0)
(-1.12953 -0.0463947 0)
(-1.10189 -0.046542 0)
(-1.07443 -0.0460058 0)
(-1.04752 -0.0448848 0)
(-1.02147 -0.0432907 0)
(-0.996534 -0.0413374 0)
(-0.972876 -0.0391397 0)
(-0.95061 -0.0368074 0)
(-0.929779 -0.034442 0)
(-0.910367 -0.0321339 0)
(-0.892309 -0.029961 0)
(-0.875496 -0.0279871 0)
(-0.859788 -0.0262621 0)
(-0.845017 -0.0248214 0)
(-0.831004 -0.023687 0)
(-0.817556 -0.0228684 0)
(-0.804486 -0.0223636 0)
(-0.791608 -0.0221612 0)
(-0.778749 -0.0222415 0)
(-0.765752 -0.0225782 0)
(-0.752473 -0.0231411 0)
(-0.738789 -0.0238974 0)
(-0.724594 -0.0248126 0)
(-0.709808 -0.0258536 0)
(-0.694368 -0.0269898 0)
(-0.678229 -0.0281966 0)
(-0.661366 -0.0294609 0)
(-0.643765 -0.0307825 0)
(-0.625383 -0.0321726 0)
(-0.606301 -0.0337381 0)
(-0.586694 -0.0357473 0)
(-0.566305 -0.0378739 0)
(-0.545021 -0.0401268 0)
(1.89894 0.228627 0)
(1.79524 0.235348 0)