/*--------------------------------*- C++ -*----------------------------------*\
| =========                 |                                                 |
| \\      /  F ield         | OpenFOAM: The Open Source CFD Toolbox           |
|  \\    /   O peration     | Version:  v1912                                 |
|   \\  /    A nd           | Website:  www.openfoam.com                      |
|    \\/     M anipulation  |                                                 |
\*---------------------------------------------------------------------------*/
FoamFile
{
    version     2.0;
    format      ascii;
    class       volScalarField;
    location    "100";
    object      alpha.water;
}
// * * * * * * * * * * * * * * * * * * * * * * * * * * * * * * * * * * * * * //

dimensions      [0 0 0 0 0 0 0];


internalField   nonuniform List<scalar> 
14268
(
1
1
1
1
1
1
1
1
1
1
1
1
1
1
1
1
1
1
1
1
1
1
1
1
1
1
1
1
1
1
1
1
1
1
1
1
1
1
1
1
1
1
1
1
1
1
1
1
1
1
1
1
1
1
1
1
1
1
1
1
1
1
1
1
1
1
1
1
1
1
1
1
1
1
1
1
1
1
1
1
1
1
1
1
1
1
1
1
1
1
1
1
1
1
1
1
1
1
1
1
1
1
1
1
1
1
1
1
1
1
1
1
1
1
1
1
1
1
1
1
1
1
1
1
1
1
1
1
1
1
1
1
1
1
1
1
1
1
1
1
1
1
1
1
1
1
1
1
1
1
1
1
1
1
1
1
1
1
1
1
1
1
1
1
1
1
1
1
1
1
1
1
1
1
1
1
1
1
1
1
1
1
1
1
1
1
1
1
1
1
1
1
1
1
1
1
1
1
1
1
1
1
1
1
1
1
1
1
1
1
1
1
1
1
1
1
1
1
1
1
1
1
1
1
1
1
1
1
1
1
1
1
1
1
1
1
1
1
1
1
1
1
1
1
1
1
1
1
0.802381
0.848848
0.889605
0.925093
0.954162
0.97598
0.990597
0.99847
0.170034
0.238673
0.317512
0.402853
0.491287
0.578327
0.661287
0.740592
0.00509986
0.00766961
0.0120259
0.0193248
0.0311363
0.049163
0.0753858
0.114606
0.000167509
0.000230271
0.000343688
0.000540031
0.000879083
0.00145924
0.00234818
0.00355266
6.01334e-06
8.01415e-06
1.15476e-05
1.87285e-05
3.23723e-05
5.81599e-05
0.000107491
0.000175797
8.78862e-08
1.09358e-07
1.62945e-07
2.57016e-07
4.38244e-07
7.73727e-07
1.49164e-06
2.09736e-06
2.68364e-09
1.95343e-09
2.15644e-09
4.95474e-09
1.63121e-08
5.70711e-08
2.80072e-07
5.46485e-07
2.87133e-10
2.87214e-10
5.36601e-10
4.41501e-09
1.92698e-08
5.94537e-08
3.05666e-07
2.17716e-06
3.22377e-10
3.51865e-10
1.12228e-09
1.37857e-08
6.61097e-08
1.48763e-07
4.785e-07
3.04769e-06
3.85645e-10
3.80856e-10
1.17333e-09
1.33091e-08
4.71755e-08
2.84652e-08
5.23124e-08
4.5354e-07
2.63054e-10
1.73798e-10
3.38849e-10
9.73978e-10
8.31252e-10
6.46005e-10
1.64159e-09
1.43115e-08
1.25002e-10
7.50606e-11
1.55101e-10
2.21577e-10
1.97722e-10
1.49679e-10
2.21198e-10
1.03198e-09
5.88627e-11
4.09071e-11
1.25002e-10
2.41624e-10
2.41594e-10
1.42397e-10
1.26736e-10
1.66132e-10
1.71368e-11
1.23472e-11
6.44472e-11
1.90348e-10
1.45581e-10
5.71894e-11
6.65566e-11
5.55422e-11
3.39507e-12
2.53173e-12
9.51749e-12
5.2548e-11
2.78475e-11
1.1366e-11
3.08836e-11
3.34459e-11
6.9021e-13
5.23141e-13
1.4743e-12
3.60944e-12
2.4311e-12
3.24732e-12
1.68294e-11
1.81201e-11
1.35135e-13
1.01756e-13
2.26171e-13
2.80157e-13
2.56175e-13
9.3296e-13
5.55093e-12
5.27519e-12
2.46631e-14
1.81684e-14
2.56424e-14
2.40579e-14
3.57352e-14
2.83778e-13
1.30797e-12
1.20709e-12
4.11815e-15
3.05672e-15
2.48498e-15
2.13024e-15
6.70904e-15
6.35345e-14
3.30088e-13
3.03651e-13
6.31202e-16
4.87195e-16
2.61652e-16
2.19182e-16
1.48415e-15
1.54946e-14
8.14681e-14
7.44861e-14
9.30605e-17
6.96772e-17
3.56071e-17
2.98712e-17
3.26026e-16
3.50587e-15
1.7669e-14
1.59969e-14
1.38816e-17
9.61542e-18
4.82288e-18
3.71785e-18
6.33429e-17
6.81839e-16
3.18156e-15
2.85074e-15
2.13188e-18
1.35093e-18
5.99632e-19
3.61369e-19
1.02925e-17
1.0803e-16
4.63452e-16
4.13101e-16
3.37532e-19
1.91896e-19
6.94426e-20
2.58294e-20
1.31666e-18
1.33164e-17
5.42092e-17
4.83966e-17
5.23074e-20
2.72454e-20
7.62501e-21
1.1579e-21
1.31531e-19
1.27569e-18
5.04451e-18
4.52392e-18
7.37693e-21
3.70055e-21
8.21559e-22
2.34347e-23
9.14832e-21
8.7366e-20
3.57177e-19
3.24578e-19
8.89434e-22
4.45501e-22
8.55183e-23
6.91445e-25
4.34163e-22
4.10821e-21
1.7896e-20
1.66506e-20
8.58254e-23
4.25819e-23
7.78055e-24
6.39509e-27
1.04184e-23
1.02125e-22
5.17849e-22
5.24777e-22
6.04467e-24
2.99641e-24
5.50059e-25
1.51137e-27
1.86316e-28
2.88685e-25
3.03847e-24
7.16479e-24
2.79775e-25
1.39345e-25
2.60523e-26
1.05045e-27
1.86334e-28
1.67136e-29
5.84823e-28
9.5246e-27
6.73134e-27
3.53462e-27
8.07274e-28
1.98332e-28
9.88008e-29
1.67199e-29
4.56839e-31
6.05702e-28
4.653e-29
4.01386e-29
4.16653e-29
3.44744e-29
1.4395e-29
1.14585e-30
1.02807e-31
8.8462e-30
4.13993e-30
5.5011e-30
7.63897e-30
6.13976e-30
2.22064e-30
8.43099e-32
2.76151e-33
5.00793e-31
3.28301e-31
7.54249e-31
1.22344e-30
9.67721e-31
3.45091e-31
1.29802e-32
3.53445e-34
1.66295e-31
2.49423e-32
9.96561e-32
1.72651e-31
1.34898e-31
4.85691e-32
2.14374e-33
2.3992e-35
1.18079e-34
2.22479e-33
1.13969e-32
1.99107e-32
1.55672e-32
5.90065e-33
3.82412e-34
2.87871e-36
1.0338e-37
1.72003e-34
1.00693e-33
1.77532e-33
1.42292e-33
5.98636e-34
6.73279e-35
6.34158e-37
3.6162e-38
9.46977e-36
5.85586e-35
1.13733e-34
9.89902e-35
5.03501e-35
1.00337e-35
1.34392e-37
6.00934e-39
2.72349e-37
1.75296e-36
4.56132e-36
4.90731e-36
3.42875e-36
1.08407e-36
5.05782e-38
1.22008e-39
-3.18178e-40
1.20803e-38
7.73462e-38
1.93868e-37
1.63191e-37
6.9688e-38
1.05463e-38
2.86087e-40
-4.55487e-40
-4.54121e-41
8.92649e-40
4.68456e-39
4.92965e-39
3.2199e-39
1.07842e-39
8.80889e-41
-3.69359e-40
-1.46255e-40
-4.65624e-41
3.04515e-41
1.12628e-40
1.02501e-40
5.70479e-41
1.57986e-41
-3.02903e-40
-1.2473e-40
-5.59249e-41
-2.4767e-41
-9.39669e-42
-2.27078e-42
-7.53685e-44
1.7442e-42
-2.51181e-40
-1.0632e-40
-4.89011e-41
-2.39108e-41
-1.20174e-41
-5.69163e-42
-2.09799e-42
1.41746e-43
-2.0984e-40
-9.0783e-41
-4.25227e-41
-2.10898e-41
-1.08471e-41
-5.42143e-42
-2.20124e-42
-1.35226e-43
-1.76065e-40
-7.76332e-41
-3.69296e-41
-1.8533e-41
-9.61171e-42
-4.86425e-42
-2.04566e-42
-3.03171e-43
-1.47403e-40
-6.62526e-41
-3.19733e-41
-1.62332e-41
-8.47677e-42
-4.32626e-42
-1.86375e-42
-4.24698e-43
-4.6085e-41
-2.39194e-41
-1.28274e-41
-6.99756e-42
-3.82874e-42
-2.07819e-42
-1.09407e-42
-5.34801e-43
-1.2607e-41
-7.12346e-42
-4.04936e-42
-2.29068e-42
-1.28126e-42
-7.04934e-43
-3.78816e-43
-1.9694e-43
-2.95091e-42
-1.73686e-42
-1.0147e-42
-5.84271e-43
-3.29865e-43
-1.82337e-43
-9.83183e-44
-5.14583e-44
-5.71231e-43
-3.43457e-43
-2.03667e-43
-1.18293e-43
-6.70781e-44
-3.71055e-44
-1.99871e-44
-1.04442e-44
-9.1951e-44
-5.60005e-44
-3.34983e-44
-1.9545e-44
-1.10934e-44
-6.12301e-45
-3.28465e-45
-1.70743e-45
-1.26052e-44
-7.73675e-45
-4.65051e-45
-2.71713e-45
-1.54004e-45
-8.46443e-46
-4.51307e-46
-2.32843e-46
-1.50208e-45
-9.26142e-46
-5.57918e-46
-3.25655e-46
-1.8399e-46
-1.00554e-46
-5.32253e-47
-2.72221e-47
-1.5737e-46
-9.72441e-47
-5.85978e-47
-3.41089e-47
-1.91893e-47
-1.04209e-47
-5.47478e-48
-2.7754e-48
-1.3227e-47
-8.17404e-48
-4.91866e-48
-2.8511e-48
-1.59607e-48
-8.61007e-49
-4.49102e-49
-2.25777e-49
1
1
1
1
1
1
1
1
1
1
1
1
1
1
1
1
1
1
1
1
1
1
1
1
1
1
1
1
1
1
1
1
1
1
1
1
1
1
1
1
1
1
1
1
1
1
1
1
1
1
1
1
1
1
1
1
1
1
1
1
1
1
1
1
1
1
1
1
1
1
1
1
1
1
1
1
1
1
1
1
1
1
1
1
1
1
1
1
1
1
1
1
1
1
1
1
1
1
1
1
1
1
1
1
1
1
1
1
1
1
1
1
1
1
1
1
1
1
1
1
1
1
1
1
1
1
1
1
1
1
1
1
1
1
1
1
1
1
1
1
1
1
1
1
1
1
1
1
1
1
1
1
1
1
1
1
1
1
1
1
1
1
1
1
1
1
1
1
1
1
1
1
1
1
1
1
1
1
1
1
1
1
1
1
1
1
1
1
1
1
1
1
1
1
1
1
1
1
1
1
1
1
1
1
1
1
1
1
1
1
1
1
1
1
1
1
1
1
1
1
1
1
1
1
1
1
1
1
1
1
1
1
1
1
1
1
1
1
1
1
1
1
1
1
1
1
1
1
1
1
1
1
1
1
1
1
1
1
1
1
1
1
1
1
1
1
1
1
1
1
1
1
1
1
1
1
1
1
1
1
1
1
1
1
1
1
1
1
1
1
1
1
1
1
1
1
1
1
1
1
1
1
1
1
1
1
1
1
1
1
1
1
1
1
1
1
1
1
1
1
1
1
1
1
1
1
1
1
1
1
1
1
1
1
1
1
1
1
1
1
1
1
1
1
1
1
1
1
1
1
1
1
1
1
1
1
1
1
1
1
1
1
1
1
1
1
1
1
1
1
1
1
1
1
1
1
1
1
1
1
1
1
1
1
1
1
1
1
1
1
1
1
1
1
1
1
1
1
1
1
1
1
1
1
1
1
1
1
1
1
1
1
1
1
1
1
1
1
1
1
1
1
1
1
1
1
1
1
1
1
1
1
1
1
1
1
1
1
1
1
1
1
1
1
1
1
1
1
1
1
1
1
1
1
1
1
1
1
1
1
1
1
1
1
1
1
1
1
1
1
1
1
1
1
1
1
1
1
1
1
1
1
1
1
1
1
1
1
1
1
1
1
1
1
1
1
1
1
1
1
1
1
1
1
1
1
1
1
1
1
1
1
1
1
1
1
1
1
1
1
1
1
1
1
1
1
1
1
1
1
1
1
1
1
1
1
1
1
1
1
1
1
1
1
1
1
1
1
1
1
1
1
1
1
1
1
1
1
1
1
1
1
1
1
1
1
1
1
1
1
1
1
1
1
1
1
1
1
1
1
1
1
1
1
1
1
1
1
1
1
1
1
1
1
1
1
1
1
1
1
1
1
1
1
1
1
1
1
1
1
1
1
1
1
1
1
1
1
1
1
1
1
1
1
1
1
1
1
1
1
1
1
1
1
1
1
1
1
1
1
1
1
1
1
1
1
1
1
1
1
1
1
1
1
1
1
1
1
1
1
1
1
1
1
1
1
1
1
1
1
1
1
1
1
1
1
1
1
1
1
1
1
1
1
1
1
1
1
1
1
1
1
1
1
1
1
1
1
1
1
1
1
1
1
1
1
1
1
1
1
1
1
1
1
1
1
1
1
1
1
1
1
1
1
1
1
1
1
1
1
1
1
1
1
1
1
1
1
1
1
1
1
1
1
1
1
1
1
1
1
1
1
1
1
1
1
1
1
1
1
1
1
1
1
1
1
1
1
1
1
1
1
1
1
1
1
1
1
1
1
1
1
1
1
1
1
1
1
1
1
1
1
1
1
1
1
1
1
1
1
1
1
1
1
1
1
1
1
1
1
1
1
1
1
1
1
1
1
1
1
1
1
1
1
1
1
1
1
1
1
1
1
1
1
1
1
1
1
1
1
1
1
1
1
1
1
1
1
1
1
1
1
1
1
1
1
1
1
1
1
1
1
1
1
1
1
1
1
1
1
1
1
1
1
1
1
1
1
1
1
1
1
1
1
1
1
1
1
1
1
1
1
1
1
1
1
1
1
1
1
1
1
1
1
1
1
1
1
1
1
1
1
1
1
1
1
1
1
1
1
1
1
1
1
1
1
1
1
1
1
1
1
1
1
1
1
1
1
1
1
1
1
1
1
1
1
1
1
1
1
1
1
1
1
1
1
1
1
1
1
1
1
1
1
1
1
1
1
1
1
1
1
1
1
1
1
1
1
1
1
1
1
1
1
1
1
1
1
1
1
1
1
1
1
1
1
1
1
1
1
1
1
1
1
1
1
1
1
1
1
1
1
1
1
1
1
1
1
1
1
1
1
1
1
1
1
1
1
1
1
1
1
1
1
1
1
1
1
1
1
1
1
1
1
1
1
1
1
1
1
1
1
1
1
1
1
1
1
1
1
1
1
1
1
1
1
1
1
1
1
1
1
1
1
1
1
1
1
1
1
1
1
1
1
1
1
1
1
1
1
1
1
1
1
1
1
1
1
1
1
1
1
1
1
1
1
1
1
1
1
1
1
1
1
1
1
1
1
1
1
1
1
1
1
1
1
1
1
1
1
1
1
1
1
1
1
1
1
1
1
1
1
1
1
1
1
1
1
1
1
1
1
1
1
1
1
1
1
1
1
1
1
1
1
1
1
1
1
1
1
1
1
1
1
1
1
1
1
1
1
1
1
1
1
1
1
1
1
1
1
1
1
1
1
1
1
1
1
1
1
1
1
1
1
1
1
1
1
1
1
1
1
1
1
1
1
1
1
1
1
1
1
1
1
1
1
1
1
1
1
1
1
1
1
1
1
1
1
1
1
1
1
1
1
1
1
1
1
1
1
1
1
1
1
1
1
1
1
1
1
1
1
1
1
1
1
1
1
1
1
1
1
1
1
1
1
1
1
1
1
1
1
1
1
1
1
1
1
1
1
1
1
1
1
1
1
1
1
1
1
1
1
1
1
1
1
1
1
1
1
1
1
1
1
1
1
1
1
1
1
1
1
1
1
1
1
1
1
1
1
1
1
1
1
1
1
1
1
1
1
1
1
1
1
1
1
1
1
1
1
1
1
1
1
1
1
1
1
1
1
1
1
1
1
1
1
1
1
1
1
1
1
1
1
1
1
1
1
1
1
1
1
1
1
1
1
1
1
1
1
1
1
1
1
1
1
1
1
1
1
1
1
1
1
1
1
1
1
1
1
1
1
1
1
1
1
1
1
1
1
1
1
1
1
1
1
1
1
1
1
1
1
1
1
1
1
1
1
1
1
1
1
1
1
1
1
1
1
1
1
1
1
1
1
1
1
1
1
1
1
1
1
1
1
1
1
1
1
1
1
1
1
1
1
1
1
1
1
1
1
1
1
1
1
1
1
1
1
1
1
1
1
1
1
1
1
1
1
1
1
1
1
1
1
1
1
1
1
1
1
1
1
1
1
1
1
1
1
1
1
1
1
1
1
1
1
1
1
1
1
1
1
1
1
1
1
1
1
1
1
1
1
1
1
1
1
1
1
1
1
1
1
1
1
1
1
1
1
1
1
1
1
1
1
1
1
1
1
1
1
1
1
1
1
1
1
1
1
1
1
1
1
1
1
1
1
1
1
1
1
1
1
1
1
1
1
1
1
1
1
1
1
1
1
1
1
1
1
1
1
1
1
1
1
1
1
1
1
1
1
1
1
1
1
1
1
1
1
1
1
1
1
1
1
1
1
1
1
1
1
1
1
1
1
1
1
1
1
1
1
1
1
1
1
1
1
1
1
1
1
1
1
1
1
1
1
1
1
1
1
1
1
1
1
1
1
1
1
1
1
1
1
1
1
1
1
1
1
1
1
1
1
1
1
1
1
1
1
1
1
1
1
1
1
1
1
1
1
1
1
1
1
1
1
1
1
1
1
1
1
1
1
1
1
1
1
1
1
1
1
1
1
1
1
1
1
1
1
1
1
1
1
1
1
1
1
1
1
1
1
1
1
1
1
1
1
1
1
1
1
1
1
1
1
1
1
1
1
1
1
1
1
1
1
1
1
1
1
1
1
1
1
1
1
1
1
1
1
1
1
1
1
1
1
1
1
1
1
1
1
1
1
1
1
1
1
1
1
1
1
1
1
1
1
1
1
1
1
1
1
1
1
1
1
1
1
1
1
1
1
1
1
1
1
1
1
1
1
1
1
1
1
1
1
1
1
1
1
1
1
1
1
1
1
1
1
1
1
1
1
1
1
1
1
1
1
1
1
1
1
1
1
1
1
1
1
1
1
1
1
1
1
1
1
1
1
1
1
1
1
1
1
1
1
1
1
1
1
1
1
1
1
1
1
1
1
1
1
1
1
1
1
1
1
1
1
1
1
1
1
1
1
1
1
1
1
1
1
1
1
1
1
1
1
1
1
1
1
1
1
1
1
1
1
1
1
1
1
1
1
1
1
1
1
1
1
1
1
1
1
1
1
1
1
1
1
1
1
1
1
1
1
1
1
1
1
1
1
1
1
1
1
1
1
1
1
1
1
1
1
1
1
1
1
1
1
1
1
1
1
1
1
1
1
1
1
1
1
1
1
1
1
1
1
1
1
1
1
1
1
1
1
1
1
1
1
1
1
1
1
1
1
1
1
1
1
1
1
1
1
1
1
1
1
1
1
1
1
1
1
1
1
1
1
1
1
1
1
1
1
1
1
1
1
1
1
1
1
1
1
1
1
1
1
1
1
1
1
1
1
1
1
1
1
1
1
1
1
1
1
1
1
1
1
1
1
1
1
1
1
1
1
1
1
1
1
1
1
1
1
1
1
1
1
1
1
1
1
1
1
1
1
1
1
1
1
1
1
1
1
1
1
1
1
1
1
1
1
1
1
1
1
1
1
1
1
1
1
1
1
1
1
1
1
1
1
1
1
1
1
1
1
1
1
1
1
1
1
1
1
1
1
1
1
1
1
1
1
1
1
1
1
1
1
1
1
1
1
1
1
1
1
1
1
1
1
1
1
1
1
1
1
1
1
1
1
1
1
1
1
1
1
1
1
1
1
1
1
1
1
1
1
1
1
1
1
1
1
1
1
1
1
1
1
1
1
1
1
1
1
1
1
1
1
1
1
1
1
1
1
1
1
1
1
1
1
1
1
1
1
1
1
1
1
1
1
1
1
1
1
1
1
1
1
1
1
1
1
1
1
1
1
1
1
1
1
1
1
1
1
1
1
1
1
1
1
1
1
1
1
1
1
1
1
1
1
1
1
1
1
1
1
1
1
1
1
1
1
1
1
1
1
1
1
1
1
1
1
1
1
1
1
1
1
1
1
1
1
1
1
1
1
1
1
1
1
1
1
1
1
1
1
1
1
1
1
1
1
1
1
1
1
1
1
1
1
1
1
1
1
1
1
1
1
1
1
1
1
1
1
1
1
1
1
1
1
1
1
1
1
1
1
1
1
1
1
1
1
1
1
1
1
1
1
1
1
1
1
1
1
1
1
1
1
1
1
1
1
1
1
1
1
1
1
1
1
1
1
1
1
1
1
1
1
1
1
1
1
1
1
1
1
1
1
1
1
1
1
1
1
1
1
1
1
1
1
1
1
1
1
1
1
1
1
1
1
1
1
1
1
1
1
1
1
1
1
1
1
1
1
1
1
1
1
1
1
1
1
1
1
1
1
1
1
1
1
1
1
1
1
1
1
1
1
1
1
1
1
1
1
1
1
1
1
1
1
1
1
1
1
1
1
1
1
1
1
1
1
1
1
1
1
1
1
1
1
1
1
1
1
1
1
1
1
1
1
1
1
1
1
1
1
1
1
1
1
1
1
1
1
1
1
1
1
1
1
1
1
1
1
1
1
1
1
1
1
1
1
1
1
1
1
1
1
1
1
1
1
1
1
1
1
1
1
1
1
1
1
1
1
1
1
1
1
1
1
1
1
1
1
1
1
1
1
1
1
1
1
1
1
1
1
1
1
1
1
1
1
1
1
1
1
1
1
1
1
1
1
1
1
1
1
1
1
1
1
1
1
1
1
1
1
1
1
1
1
1
1
1
1
1
1
1
1
1
1
1
1
1
1
1
1
1
1
1
1
1
1
1
1
1
1
1
1
1
1
1
1
1
1
1
1
1
1
1
1
1
1
1
1
1
1
1
1
1
1
1
1
1
1
1
1
1
1
1
1
1
1
1
1
1
1
1
1
1
1
1
1
1
1
1
1
1
1
1
1
1
1
1
1
1
1
1
1
1
1
1
1
1
1
1
1
1
1
1
1
1
1
1
1
1
1
1
1
1
1
1
1
1
1
1
1
1
1
1
1
1
1
1
1
1
1
1
1
1
1
1
1
1
1
1
1
1
1
1
1
1
1
1
1
1
1
1
1
1
1
1
1
1
1
1
1
1
1
1
1
1
1
1
1
1
1
1
1
1
1
1
1
1
1
1
1
1
1
1
1
1
1
1
1
1
1
1
1
1
1
1
1
1
1
1
1
1
1
1
1
1
1
1
1
1
1
1
1
1
1
1
1
1
1
1
1
1
1
1
1
1
1
1
1
1
1
1
1
1
1
1
1
1
1
1
1
1
1
1
1
1
1
1
1
1
1
1
1
1
1
1
1
1
1
1
1
1
1
1
1
1
1
1
1
1
1
1
1
1
1
1
1
1
1
1
1
1
1
1
1
1
1
1
1
1
1
1
1
1
1
1
1
1
1
1
1
1
1
1
1
1
1
1
1
1
1
1
1
1
1
1
1
1
1
1
1
1
1
1
1
1
1
1
1
1
1
1
1
1
1
1
1
1
1
1
1
1
1
1
1
1
1
1
1
1
1
1
1
1
1
1
1
1
1
1
1
1
1
1
1
1
1
1
1
1
1
1
1
1
1
1
1
1
1
1
1
1
1
1
1
1
1
1
1
1
1
1
1
1
1
1
1
1
1
1
1
1
1
1
1
1
1
1
1
1
1
1
1
1
1
1
1
1
1
1
1
1
1
1
1
1
1
1
1
1
1
1
1
1
1
1
1
1
1
1
1
1
1
1
1
1
1
1
1
1
1
1
1
1
1
1
1
1
1
1
1
1
1
1
1
1
1
1
1
1
1
1
1
1
1
1
1
1
1
1
1
1
1
1
1
1
1
1
1
1
1
1
1
1
1
1
1
1
1
1
1
1
1
1
1
1
1
1
1
1
1
1
1
1
1
1
1
1
1
1
1
1
1
1
1
1
1
1
1
1
1
1
1
1
1
1
1
1
1
1
1
1
1
1
1
1
1
1
1
1
1
1
1
1
1
1
1
1
1
1
1
1
1
1
1
1
1
1
1
1
1
1
1
1
1
1
1
1
1
1
1
1
1
1
1
1
1
1
1
1
1
1
1
1
1
1
1
1
1
1
1
1
1
1
1
1
1
1
1
1
1
1
1
1
1
1
1
1
1
1
1
1
1
1
1
1
1
1
1
1
1
1
1
1
1
1
1
1
1
1
1
1
1
1
1
1
1
1
1
1
1
1
1
1
1
1
1
1
1
1
1
1
1
1
1
1
1
1
1
1
1
1
1
1
1
1
1
1
1
1
1
1
1
1
1
1
1
1
1
1
1
1
1
1
1
1
1
1
1
1
1
1
1
1
1
1
1
1
1
1
1
1
1
1
1
1
1
1
1
1
1
1
1
1
1
1
1
1
1
1
1
1
1
1
1
1
1
1
1
1
1
1
1
1
1
1
1
1
1
1
1
1
1
1
1
1
1
1
1
1
1
1
1
1
1
1
1
1
1
1
1
1
1
1
1
1
1
1
1
1
1
1
1
1
1
1
1
1
1
1
1
1
1
1
1
1
1
1
1
1
1
1
1
1
1
1
1
1
1
1
1
1
1
1
1
1
1
1
1
1
1
1
1
1
1
1
1
1
1
1
1
1
1
1
1
1
1
1
1
1
1
1
1
1
1
1
1
1
1
1
1
1
1
1
1
1
1
1
1
1
1
1
1
1
1
1
1
1
1
1
1
1
1
1
1
1
1
1
1
1
1
1
1
1
1
1
1
1
1
1
1
1
1
1
1
1
1
1
1
1
1
1
1
1
1
1
1
1
1
1
1
1
1
1
1
1
1
1
1
1
1
1
1
1
1
1
1
1
1
1
1
1
1
1
1
1
1
1
1
1
1
1
1
1
1
1
1
1
1
1
1
1
1
1
1
1
1
1
1
1
1
1
1
1
1
1
1
1
1
1
1
1
1
1
1
1
1
1
1
1
1
1
1
1
1
1
1
1
1
1
1
1
1
1
1
1
1
1
1
1
1
1
1
1
1
1
1
1
1
1
1
1
1
1
1
1
1
1
1
1
1
1
1
1
1
1
1
1
1
1
1
1
1
1
1
1
1
1
1
1
1
1
1
1
1
1
1
1
1
1
1
1
1
1
1
1
1
1
1
1
1
1
1
1
1
1
1
1
1
1
1
1
1
1
1
1
1
1
1
1
1
1
1
1
1
1
1
1
1
1
1
1
1
1
1
1
1
1
1
1
1
1
1
1
1
1
1
1
1
1
1
1
1
1
1
1
1
1
1
1
1
1
1
1
1
1
1
1
1
1
1
1
1
1
1
1
1
1
1
1
1
1
1
1
1
1
1
1
1
1
1
1
1
1
1
1
1
1
1
1
1
1
1
1
1
1
1
1
1
1
1
1
1
1
1
1
1
1
1
1
1
1
1
1
1
1
1
1
1
1
1
1
1
1
1
1
1
1
1
1
1
1
1
1
1
1
1
1
1
1
1
1
1
1
1
1
1
1
1
1
1
1
1
1
1
1
1
1
1
1
1
1
1
1
1
1
1
1
1
1
1
1
1
1
1
1
1
1
1
1
1
1
1
1
1
1
1
1
1
1
1
1
1
1
1
1
1
1
1
1
1
1
1
1
1
1
1
1
1
1
1
1
1
1
1
1
1
1
1
1
1
1
1
1
1
1
1
1
1
1
1
1
1
1
1
1
1
1
1
1
1
1
1
1
1
1
1
1
1
1
1
1
1
1
1
1
1
1
1
1
1
1
1
1
1
1
1
1
1
1
1
1
1
1
1
1
1
1
1
1
1
1
1
1
1
1
1
1
1
1
1
1
1
1
1
1
1
1
1
1
1
1
1
1
1
1
1
1
1
1
1
1
1
1
1
1
1
1
1
1
1
1
1
1
1
1
1
1
1
1
1
1
1
1
1
1
1
1
1
1
1
1
1
1
1
1
1
1
1
1
1
1
1
1
1
1
1
1
1
1
1
1
1
1
1
1
1
1
1
1
1
1
1
1
1
1
1
1
1
1
1
1
1
1
1
1
1
1
1
1
1
1
1
1
1
1
1
1
1
1
1
1
1
1
1
1
1
1
1
1
1
1
1
1
1
1
1
1
1
1
1
1
1
1
1
1
1
1
1
1
1
1
1
1
1
1
1
1
1
1
1
1
1
1
1
1
1
1
1
1
1
1
1
1
1
1
1
1
1
1
1
1
1
1
1
1
1
1
1
1
1
1
1
1
1
1
1
1
1
1
1
1
1
1
1
1
1
1
1
1
1
1
1
1
1
1
1
1
1
1
1
1
1
1
1
1
1
1
1
1
1
1
1
1
1
1
1
1
1
1
1
1
1
1
1
1
1
1
1
1
1
1
1
1
1
1
1
1
1
1
1
1
1
1
1
1
1
1
1
1
1
1
1
1
1
1
1
1
1
1
1
1
1
1
1
1
1
1
1
1
1
1
1
1
1
1
1
1
1
1
1
1
1
1
1
1
1
1
1
1
1
1
1
1
1
1
1
1
1
1
1
1
1
1
1
1
1
1
1
1
1
1
1
1
1
1
1
1
1
1
1
1
1
1
1
1
1
1
1
1
1
1
1
1
1
1
1
1
1
1
1
1
1
1
1
1
1
1
1
1
1
1
1
1
1
1
1
1
1
1
1
1
1
1
1
1
1
1
1
1
1
1
1
1
1
1
1
1
1
1
1
1
1
1
1
1
1
1
1
1
1
1
1
1
1
1
1
1
1
1
1
1
1
1
1
1
1
1
1
1
1
1
1
1
1
1
1
1
1
1
1
1
1
1
1
1
1
1
1
1
1
1
1
1
1
1
1
1
1
1
1
1
1
1
1
1
1
1
1
1
1
1
1
1
1
1
1
1
1
1
1
1
1
1
1
1
1
1
1
1
1
1
1
1
1
1
1
1
1
1
1
1
1
1
1
1
1
1
1
1
1
1
1
1
1
1
1
1
1
1
1
1
1
1
1
1
1
1
1
1
1
1
1
1
1
1
1
1
1
1
1
1
1
1
1
1
1
1
1
1
1
1
1
1
1
1
1
1
1
1
1
1
1
1
1
1
1
1
1
1
1
1
1
1
1
1
1
1
1
1
1
1
1
1
1
1
1
1
1
1
1
1
1
1
1
1
1
1
1
1
1
1
1
1
1
1
1
1
1
1
1
1
1
1
1
1
1
1
1
1
1
1
1
1
1
1
1
1
1
1
1
1
1
1
1
1
1
1
1
1
1
1
1
1
1
1
1
1
1
1
1
1
1
1
1
1
1
1
1
1
1
1
1
1
1
1
1
1
1
1
1
1
1
1
1
1
1
1
1
1
1
1
1
1
1
1
1
1
1
1
1
1
1
1
1
1
1
1
1
1
1
1
1
1
1
1
1
1
1
1
1
1
1
1
1
1
1
1
1
1
1
1
1
1
1
1
1
1
1
1
1
1
1
1
1
1
1
1
1
1
1
1
1
1
1
1
1
1
1
1
1
1
1
1
1
1
1
1
1
1
1
1
1
1
1
1
1
1
1
1
1
1
1
1
1
1
1
1
1
1
1
1
1
1
1
1
1
1
1
1
1
1
1
1
1
1
1
1
1
1
1
1
1
1
1
1
1
1
1
1
1
1
1
1
1
1
1
1
1
1
1
1
1
1
1
1
1
1
1
1
1
1
1
1
1
1
1
1
1
1
1
1
1
1
1
1
1
1
1
1
1
1
1
1
1
0.999996
0.999989
0.999999
1
1
1
1
1
1
1
1
1
1
1
1
1
1
1
1
1
1
1
1
1
1
1
1
1
1
1
1
1
1
1
1
1
1
1
1
1
1
1
1
1
1
1
1
1
1
1
1
1
1
1
1
1
1
1
1
1
1
1
1
1
1
1
1
1
1
1
1
1
1
1
1
1
0.999998
0.999996
0.999995
0.999994
0.999992
0.999989
0.999988
0.999986
0.999977
0.999963
0.99996
0.999962
0.999883
0.999611
0.999428
0.999632
0.99985
1
1
1
1
1
1
1
1
1
1
1
1
1
1
1
1
1
1
1
1
1
1
1
1
1
1
1
1
1
1
1
1
1
1
1
1
1
1
1
1
1
1
1
0.814887
0.875366
0.925643
0.964432
0.988964
0.999332
1
1
1
1
1
1
0.999999
1
1
1
1
1
1
1
0.999993
0.999941
0.999935
0.999991
1
1
1
1
1
1
1
1
1
1
1
1
1
1
1
1
1
1
1
1
0.999999
0.999999
0.999998
0.999996
0.999997
0.999998
0.999999
0.999999
0.999999
1
1
1
1
1
1
1
1
1
1
1
1
1
1
1
1
1
1
1
1
1
1
1
1
1
1
1
1
1
1
1
1
1
1
1
1
1
1
1
1
0.999999
0.999994
0.999982
0.999967
0.999947
0.999923
0.999911
0.999908
0.999899
0.999885
0.999865
0.999824
0.999727
0.9996
0.999109
0.997372
0.995269
0.993322
0.991701
0.99235
0.996456
0.99927
0.999835
0.999886
1
1
1
1
1
1
1
1
1
1
1
1
1
1
1
1
1
1
1
1
1
1
1
1
1
1
1
1
1
1
1
1
1
1
1
1
1
1
1
0.179506
0.278485
0.393164
0.518298
0.643472
0.754342
0.836066
0.891308
0.93188
0.959051
0.979247
0.992707
0.999082
0.999995
0.999997
0.999999
1
1
1
1
0.999997
0.999936
0.999775
0.999822
0.999976
1
1
1
1
1
0.999999
0.999999
0.999999
1
1
1
1
0.999996
0.999964
0.999655
0.999582
0.999867
0.999997
0.999998
0.999997
0.999996
0.99999
0.999975
0.999978
0.999983
0.999982
0.999976
0.999973
0.999977
0.999981
0.999982
0.999983
0.999985
0.999988
0.99999
0.999992
0.999993
0.999993
0.999994
0.999995
0.999996
0.999995
0.999991
0.999976
0.999919
0.999727
0.999196
0.998018
0.995882
0.992854
0.989716
0.98766
0.987142
0.987702
0.989128
0.99095
0.992806
0.994174
0.995102
0.996125
0.997618
0.99698
0.996053
0.996208
0.997351
0.999056
0.99986
0.999859
0.99985
0.999842
0.999831
0.999797
0.99972
0.999583
0.999394
0.999278
0.999284
0.999324
0.999353
0.999347
0.999301
0.999071
0.998763
0.998763
0.998563
0.995827
0.982086
0.980579
0.981139
0.987765
0.993427
0.993494
0.99431
0.997344
0.999522
0.999913
0.999999
1
1
1
1
1
1
1
1
1
1
1
1
1
1
1
1
1
1
1
1
1
1
1
1
1
1
1
1
1
1
1
1
1
1
0.00514593
0.00901708
0.0172983
0.0340628
0.0653832
0.119532
0.205348
0.308578
0.407767
0.496074
0.582549
0.667783
0.744369
0.80282
0.843491
0.879305
0.915265
0.95026
0.980109
0.997847
0.999996
0.999961
0.999694
0.999403
0.99956
0.9999
1
0.999999
0.999998
0.999991
0.999963
0.999955
0.999965
0.99998
0.999979
0.99998
0.999992
0.999952
0.994886
0.96931
0.955337
0.970129
0.994631
0.999066
0.999144
0.998986
0.992984
0.964347
0.965895
0.983266
0.994634
0.999298
0.999782
0.999777
0.999787
0.999801
0.99981
0.999814
0.999818
0.999834
0.999858
0.999879
0.999893
0.999905
0.99992
0.999931
0.999919
0.99985
0.999578
0.998458
0.993881
0.976505
0.928315
0.837687
0.728295
0.643261
0.587206
0.553561
0.535388
0.529371
0.531304
0.542463
0.559092
0.576507
0.594773
0.617463
0.643847
0.670042
0.694255
0.719556
0.752215
0.799793
0.848992
0.87979
0.897793
0.917569
0.941447
0.964385
0.980458
0.989331
0.993275
0.994847
0.995506
0.99577
0.995869
0.996084
0.996366
0.99652
0.996542
0.996322
0.995752
0.993872
0.986044
0.968086
0.968225
0.978036
0.979105
0.973668
0.974895
0.984938
0.992311
0.992726
0.987464
0.964472
0.924073
0.933127
0.972383
0.992297
0.999699
0.999997
0.999997
0.999997
0.999997
0.999998
0.999999
0.999999
0.999999
0.999998
0.999998
0.999998
0.999998
0.999999
0.999999
0.999999
1
1
1
1
1
1
1
1
1
1
1
1
0.000207421
0.000276987
0.000490242
0.000896362
0.00166629
0.00329825
0.00640806
0.0111874
0.0180968
0.0284968
0.0450246
0.0709701
0.108403
0.154679
0.208753
0.275328
0.357369
0.459343
0.58301
0.720557
0.84767
0.932541
0.986717
0.998623
0.997802
0.997703
0.998284
0.999316
0.999932
0.99994
0.999765
0.999148
0.999084
0.999392
0.999565
0.999527
0.999652
0.999674
0.997056
0.98669
0.94071
0.940681
0.950141
0.974954
0.986269
0.982866
0.972228
0.965693
0.940362
0.922316
0.915743
0.895631
0.871779
0.87708
0.881996
0.86862
0.849006
0.864
0.933641
0.993359
0.998905
0.99896
0.999051
0.999166
0.999302
0.999401
0.999301
0.998641
0.995706
0.980023
0.885502
0.615735
0.359441
0.195634
0.117376
0.0767997
0.052636
0.0377172
0.0285562
0.0230036
0.0196099
0.017771
0.0172705
0.0173846
0.0182203
0.0225008
0.0313365
0.0446529
0.0627936
0.0877338
0.120754
0.163945
0.215318
0.2648
0.31133
0.363729
0.425099
0.494801
0.56555
0.626723
0.673632
0.709821
0.738989
0.767119
0.797436
0.827969
0.853197
0.867578
0.866069
0.866564
0.877153
0.89666
0.913144
0.925374
0.937689
0.953093
0.959796
0.951607
0.941727
0.948348
0.962882
0.95945
0.909002
0.708807
0.491056
0.508857
0.672398
0.801681
0.858877
0.893315
0.915399
0.938116
0.960679
0.973108
0.976346
0.974293
0.966855
0.952588
0.930154
0.903202
0.880503
0.871693
0.881136
0.904276
0.93221
0.955188
0.96973
0.978049
0.983143
0.986763
0.989607
0.991719
0.992822
0.992593
0.990527
0.985119
5.42437e-06
8.85118e-06
1.21174e-05
1.70978e-05
2.93541e-05
7.39667e-05
0.000194949
0.000326796
0.000475351
0.000687527
0.000980884
0.00144669
0.0021302
0.00304273
0.00443375
0.00710764
0.0123004
0.0225456
0.0441657
0.0935521
0.209094
0.386745
0.607738
0.803541
0.911795
0.956644
0.976582
0.989577
0.996284
0.999114
0.998981
0.996844
0.993682
0.994123
0.993886
0.987963
0.987526
0.991034
0.99
0.978799
0.967374
0.956781
0.95292
0.955452
0.95191
0.933529
0.921949
0.861056
0.747262
0.721537
0.716883
0.694673
0.611781
0.488913
0.410959
0.376016
0.336791
0.337966
0.476445
0.79957
0.961001
0.975184
0.987672
0.995123
0.996113
0.996562
0.995974
0.991354
0.963429
0.759224
0.320971
0.0774499
0.0095898
7.42091e-06
8.26608e-06
1.01648e-05
1.18039e-05
1.27184e-05
1.3038e-05
1.3025e-05
1.26606e-05
1.15009e-05
9.76745e-06
8.4919e-06
8.13838e-06
8.11794e-06
8.65966e-06
1.93448e-05
0.000182243
0.00153996
0.00506223
0.00917317
0.0133902
0.016926
0.0192891
0.0206147
0.0211852
0.0226489
0.0280071
0.0380192
0.0517547
0.0690651
0.0886943
0.109299
0.131465
0.155566
0.18049
0.200971
0.21272
0.224894
0.248158
0.28005
0.320118
0.378925
0.467225
0.588611
0.73188
0.853559
0.909306
0.919867
0.923064
0.908183
0.776259
0.395742
0.126421
0.113941
0.163661
0.353507
0.475662
0.45329
0.437934
0.480675
0.560326
0.63194
0.650621
0.625864
0.567285
0.49302
0.419548
0.362953
0.330041
0.320609
0.338277
0.393065
0.475174
0.558408
0.620292
0.659854
0.692891
0.730274
0.774267
0.816298
0.839668
0.835446
0.793016
0.706281
9.50084e-07
1.76354e-06
2.82736e-06
4.21344e-06
4.90744e-06
4.70894e-06
4.64309e-06
4.64958e-06
5.29383e-06
9.35082e-06
1.49001e-05
2.2329e-05
3.38929e-05
4.70918e-05
6.68578e-05
0.000105252
0.000190958
0.000386486
0.000885251
0.00214122
0.00572424
0.014889
0.0446681
0.139713
0.31782
0.487944
0.606612
0.712444
0.809287
0.882955
0.930761
0.955155
0.960284
0.966228
0.966299
0.938646
0.876424
0.837563
0.823876
0.826406
0.760345
0.733176
0.779878
0.837008
0.840759
0.826406
0.724885
0.477939
0.278514
0.171783
0.168368
0.159652
0.14425
0.129983
0.113597
0.092904
0.0626838
0.0525222
0.0893529
0.387742
0.761882
0.797682
0.827621
0.909407
0.973938
0.982996
0.980178
0.949017
0.717097
0.239885
0.0108105
9.67063e-08
1.03691e-07
1.202e-07
1.55688e-07
2.50075e-07
4.08033e-07
5.68438e-07
7.00554e-07
1.05549e-06
1.89874e-06
2.41286e-06
2.25961e-06
1.62877e-06
9.19578e-07
7.21566e-07
8.40741e-07
1.5199e-06
3.48442e-06
7.00341e-06
1.2831e-05
2.02489e-05
2.63136e-05
2.93102e-05
3.3387e-05
5.00599e-05
0.000101733
0.000180445
0.000253307
0.000308353
0.000364131
0.000442145
0.000550902
0.000704244
0.000943451
0.00129907
0.001814
0.00255225
0.0035321
0.00494996
0.0070337
0.00950627
0.0121864
0.0160918
0.0246021
0.0409308
0.070939
0.128693
0.233549
0.393107
0.539882
0.556996
0.49741
0.292699
0.0861033
0.0460772
0.0645018
0.13711
0.2257
0.225966
0.194673
0.180947
0.179605
0.155207
0.136229
0.116904
0.0895779
0.0621567
0.0414921
0.0287831
0.0220304
0.0195779
0.0212735
0.0286005
0.0449049
0.0714586
0.100481
0.121646
0.136258
0.154328
0.182339
0.215267
0.239901
0.23744
0.201082
0.145549
5.44696e-06
7.70009e-06
7.55134e-06
5.80423e-06
6.69594e-06
3.49035e-06
1.66831e-06
7.46825e-07
2.93039e-07
2.35794e-07
2.16075e-07
2.19194e-07
2.53809e-07
3.40036e-07
5.03913e-07
7.54254e-07
1.43625e-06
3.57655e-06
1.16528e-05
3.90478e-05
0.000104687
0.000339763
0.0012202
0.0039246
0.0104292
0.0235219
0.0473773
0.0921613
0.167805
0.289009
0.423226
0.580942
0.731265
0.807348
0.828173
0.819048
0.739203
0.642131
0.662138
0.595499
0.35231
0.201048
0.219104
0.269223
0.271125
0.230993
0.121507
0.0449375
0.0188495
0.005767
0.00259357
0.00271851
0.00311764
0.00443133
0.0060648
0.006949
0.00648542
0.00554558
0.0123824
0.10823
0.393036
0.54351
0.535138
0.577709
0.720264
0.806622
0.791998
0.604858
0.22645
0.0117489
1.40958e-08
1.41124e-08
1.75209e-08
2.33516e-08
5.1856e-08
1.06244e-07
1.10476e-07
1.1384e-07
2.0603e-07
7.4721e-07
2.42083e-06
2.97867e-06
1.8773e-06
3.87325e-07
5.1813e-08
5.91758e-08
1.16367e-07
3.37917e-07
1.17676e-06
4.59675e-06
9.23621e-06
8.9135e-06
6.1194e-06
3.62192e-06
3.64022e-06
5.06681e-06
7.11838e-06
7.19373e-06
6.20759e-06
4.40533e-06
2.98477e-06
2.09613e-06
1.51122e-06
1.09222e-06
9.27373e-07
9.32286e-07
1.00388e-06
1.34593e-06
2.03283e-06
2.92981e-06
4.88293e-06
7.84398e-06
1.1856e-05
2.44947e-05
9.13321e-05
0.000374473
0.000792392
0.00122941
0.00238377
0.00706347
0.0257685
0.0579423
0.0756565
0.0728073
0.0466256
0.0231594
0.0184
0.0196764
0.0309469
0.0465954
0.0477558
0.0433903
0.0314951
0.0186177
0.00982092
0.00465681
0.00152107
0.000323547
0.000180321
0.000121058
8.0003e-05
5.60291e-05
5.48177e-05
7.86735e-05
0.00023251
0.000868112
0.0021355
0.00281343
0.00229485
0.000915769
0.000441395
0.00057745
0.00161545
0.00158349
0.000233888
0.000202049
1.3505e-05
1.40093e-05
1.40108e-05
1.40093e-05
7.76403e-06
1.91103e-06
7.47144e-09
7.51592e-09
8.48224e-09
8.04749e-09
6.26765e-09
4.34639e-09
3.82982e-09
4.08326e-09
5.21791e-09
6.32109e-09
7.95475e-09
4.50329e-08
3.93919e-07
2.43411e-06
4.92537e-06
1.19235e-05
3.99462e-05
0.000141418
0.000368058
0.000746974
0.00138052
0.00225943
0.00355074
0.0074721
0.0172766
0.0446945
0.134904
0.292579
0.459948
0.542959
0.545028
0.527496
0.401543
0.160086
0.032699
0.00283125
0.00420185
0.00777944
0.00740836
0.00546124
0.00285687
0.000853501
0.000252986
0.000254044
0.000580775
0.000333725
0.000159094
5.98919e-05
4.48702e-05
5.18768e-05
6.76426e-05
0.000123613
0.00164213
0.0186167
0.0683138
0.11812
0.226001
0.347679
0.330319
0.237232
0.164913
0.0842622
0.0101773
1.57993e-06
7.1112e-09
7.10592e-09
1.49646e-08
2.52166e-08
3.82487e-08
4.08142e-08
4.08334e-08
1.54685e-07
1.66897e-06
6.41323e-06
6.79246e-06
6.55614e-06
2.28077e-06
7.70448e-08
1.86979e-09
5.97498e-09
5.01448e-08
4.4693e-07
1.72073e-06
2.76658e-06
2.42061e-06
9.76751e-07
1.59014e-07
1.85757e-07
6.07775e-07
1.70408e-06
2.05236e-06
1.73536e-06
9.84879e-07
4.00521e-07
1.14094e-07
1.16495e-08
7.54785e-09
6.16694e-09
7.40603e-09
7.41893e-09
8.31912e-09
3.14057e-07
1.5984e-06
1.45452e-06
6.19519e-07
4.84791e-07
4.85176e-07
7.07707e-07
1.1163e-06
9.61373e-07
7.11268e-07
1.2479e-06
5.52942e-06
3.36969e-05
0.000122056
0.000364263
0.00118533
0.0044912
0.00892124
0.00708664
0.00347545
0.00169149
0.00173211
0.00229617
0.00377859
0.0042985
0.00398346
0.00289766
0.00152852
0.000501326
4.94483e-05
3.00546e-05
2.82027e-05
2.5202e-05
1.83813e-05
1.0111e-05
7.85525e-06
1.0099e-05
2.50169e-05
8.21034e-05
0.000193789
0.000237254
0.000156632
3.09983e-05
2.83731e-06
3.01337e-06
3.02578e-06
2.31393e-06
8.58719e-07
4.56512e-07
3.21924e-06
7.97489e-06
7.36738e-06
3.13327e-06
6.84141e-07
1.45728e-09
1.47019e-09
1.51726e-09
1.31626e-09
8.29988e-10
4.29285e-10
2.65023e-10
2.47453e-10
2.47473e-10
2.47493e-10
2.47513e-10
4.15959e-09
4.74562e-06
3.38758e-06
2.28772e-06
1.24287e-06
8.8197e-07
1.98109e-06
8.46836e-06
2.40796e-05
4.54622e-05
6.66687e-05
7.74542e-05
9.2911e-05
0.000148168
0.000285356
0.000639319
0.00177856
0.00551853
0.013846
0.0231566
0.025807
0.0226132
0.0134746
0.00464932
0.000416543
5.52804e-05
6.03585e-05
0.00010048
0.00035475
0.000938379
0.00096398
0.000315226
0.000313015
0.0026618
0.00387026
0.00274777
0.000751001
3.63156e-06
2.22904e-07
4.01257e-07
7.00933e-07
1.07716e-06
4.6176e-06
4.47125e-05
0.000490127
0.00529008
0.0437089
0.0925561
0.0696446
0.0131449
0.00298888
0.00299483
0.00195551
0.000501757
1.53693e-07
7.13639e-09
1.13183e-08
6.37424e-08
1.11873e-07
5.49132e-08
5.36281e-08
2.9505e-07
2.44176e-06
5.16895e-06
5.03183e-06
3.0253e-06
7.52486e-07
8.89491e-10
6.38809e-10
1.32853e-09
8.5438e-09
9.94493e-08
4.03832e-07
3.52422e-07
8.87979e-08
5.36649e-09
1.29117e-08
1.10822e-07
3.78498e-07
4.19447e-07
3.4555e-07
1.79707e-07
4.36447e-08
1.62662e-09
1.61795e-09
1.61933e-09
1.94365e-09
1.94562e-09
2.66326e-09
9.32558e-08
1.41288e-06
8.3789e-06
1.95572e-05
2.0411e-05
1.32532e-05
4.81402e-06
6.77823e-07
8.92971e-08
8.92944e-08
8.92944e-08
8.92913e-08
1.48658e-07
1.69267e-06
2.6726e-05
0.000106459
0.000118546
0.00010551
0.000100748
9.35708e-05
0.000169278
0.000128962
0.000142254
0.00015726
0.000151338
0.00017464
0.000312031
0.000462417
0.000469194
0.0003624
0.000128865
4.31388e-06
2.10107e-08
2.77468e-08
3.81561e-08
6.03123e-08
1.27397e-07
3.89191e-07
2.02357e-06
1.15309e-05
2.90262e-05
3.96017e-05
3.48083e-05
1.48549e-05
3.0531e-06
1.98046e-06
1.97916e-06
1.36852e-06
4.3906e-07
9.21076e-08
9.20883e-08
1.5729e-07
3.13938e-07
2.0308e-07
5.48857e-08
6.08857e-10
9.87791e-10
1.71347e-09
1.6394e-09
1.03834e-09
4.35686e-10
2.39607e-10
2.46177e-10
2.47434e-10
2.47453e-10
2.47473e-10
2.79205e-10
1.03499e-05
3.63468e-05
2.55981e-05
7.88343e-06
3.08707e-07
1.74391e-08
4.78818e-08
3.25228e-07
1.20968e-06
1.71237e-06
2.00117e-06
1.94948e-06
1.60475e-06