/*--------------------------------*- C++ -*----------------------------------*\
| =========                 |                                                 |
| \\      /  F ield         | OpenFOAM: The Open Source CFD Toolbox           |
|  \\    /   O peration     | Version:  v1912                                 |
|   \\  /    A nd           | Website:  www.openfoam.com                      |
|    \\/     M anipulation  |                                                 |
\*---------------------------------------------------------------------------*/
FoamFile
{
    version     2.0;
    format      ascii;
    class       volScalarField;
    location    "50";
    object      nut;
}
// * * * * * * * * * * * * * * * * * * * * * * * * * * * * * * * * * * * * * //

dimensions      [0 2 -1 0 0 0 0];


internalField   nonuniform List<scalar> 
14268
(
4.89977e-05
4.87272e-05
4.84591e-05
4.81931e-05
4.79287e-05
4.76655e-05
4.74025e-05
4.71391e-05
4.68739e-05
4.66057e-05
4.63331e-05
4.60542e-05
4.57662e-05
4.54647e-05
4.5148e-05
4.48143e-05
4.44632e-05
4.40933e-05
4.37044e-05
4.32993e-05
4.28909e-05
4.24828e-05
4.20747e-05
4.16649e-05
4.12525e-05
4.08374e-05
4.04186e-05
3.99968e-05
3.95721e-05
3.91442e-05
3.87173e-05
3.82957e-05
3.78796e-05
3.74688e-05
3.70622e-05
3.66607e-05
3.62633e-05
3.58698e-05
3.54796e-05
3.50918e-05
3.47062e-05
3.43205e-05
3.39329e-05
3.3543e-05
3.31519e-05
3.27591e-05
3.23661e-05
3.19721e-05
3.15776e-05
3.11833e-05
3.07893e-05
3.03961e-05
3.00103e-05
2.96314e-05
2.92584e-05
2.88907e-05
2.85274e-05
2.8168e-05
2.78115e-05
2.74582e-05
2.7107e-05
2.67578e-05
2.641e-05
2.60636e-05
2.57181e-05
2.53733e-05
2.50289e-05
2.46849e-05
2.43409e-05
2.39969e-05
2.36528e-05
2.33082e-05
2.29632e-05
2.26175e-05
2.22718e-05
2.19263e-05
2.15813e-05
2.12369e-05
2.0893e-05
2.05498e-05
2.02071e-05
1.9864e-05
1.95191e-05
1.91718e-05
1.88216e-05
1.8468e-05
1.81102e-05
1.7747e-05
1.73776e-05
1.70003e-05
1.66139e-05
1.62175e-05
1.58104e-05
1.53922e-05
1.49625e-05
1.45265e-05
1.40902e-05
1.36527e-05
1.32131e-05
1.27716e-05
1.23282e-05
1.1883e-05
1.14362e-05
1.09883e-05
1.054e-05
1.00916e-05
9.64389e-06
9.1974e-06
8.75301e-06
8.31241e-06
7.87508e-06
7.43988e-06
7.00663e-06
6.57366e-06
6.14156e-06
5.70782e-06
5.27613e-06
4.84361e-06
4.41325e-06
3.98593e-06
3.56324e-06
3.14844e-06
2.73938e-06
2.34352e-06
1.95954e-06
1.59447e-06
1.27934e-06
9.98435e-07
7.37923e-07
5.06207e-07
3.13637e-07
1.74975e-07
7.81621e-08
2.16204e-08
1.47772e-06
1.51288e-06
1.55028e-06
1.58998e-06
1.63207e-06
1.67669e-06
1.72381e-06
1.77336e-06
1.82512e-06
1.87873e-06
1.93371e-06
1.98945e-06
2.04505e-06
2.09944e-06
2.1514e-06
2.19951e-06
2.24232e-06
2.27832e-06
2.30603e-06
2.32383e-06
2.32917e-06
2.32244e-06
2.30163e-06
2.26596e-06
2.21734e-06
2.15733e-06
2.08765e-06
2.01025e-06
1.92723e-06
1.84069e-06
1.75273e-06
1.66508e-06
1.5793e-06
1.49656e-06
1.41801e-06
1.34434e-06
1.27636e-06
1.21436e-06
1.15867e-06
1.109e-06
1.06527e-06
1.02721e-06
9.94645e-07
9.67233e-07
9.44702e-07
9.2657e-07
9.12759e-07
9.02878e-07
8.96703e-07
8.93996e-07
8.94623e-07
8.97864e-07
9.02198e-07
9.07339e-07
9.13373e-07
9.20224e-07
9.27855e-07
9.3629e-07
9.45451e-07
9.55418e-07
9.66091e-07
9.77528e-07
9.89704e-07
1.0027e-06
1.01648e-06
1.03104e-06
1.04647e-06
1.06282e-06
1.08009e-06
1.09836e-06
1.11768e-06
1.13805e-06
1.15962e-06
1.18247e-06
1.20673e-06
1.23245e-06
1.25984e-06
1.2891e-06
1.3203e-06
1.35371e-06
1.38941e-06
1.4278e-06
1.46911e-06
1.51353e-06
1.56123e-06
1.61225e-06
1.66648e-06
1.72357e-06
1.78288e-06
1.84351e-06
1.90398e-06
1.96224e-06
2.01573e-06
2.06149e-06
2.09607e-06
2.11393e-06
2.11178e-06
2.08905e-06
2.04404e-06
1.97465e-06
1.88514e-06
1.77983e-06
1.66328e-06
1.54045e-06
1.41611e-06
1.29473e-06
1.17987e-06
1.07412e-06
9.79255e-07
8.9593e-07
8.24341e-07
7.64009e-07
7.1455e-07
6.75129e-07
6.44412e-07
6.20958e-07
6.03801e-07
5.91926e-07
5.84562e-07
5.80575e-07
5.7667e-07
5.71476e-07
5.6394e-07
5.52292e-07
5.34823e-07
5.15384e-07
5.03927e-07
5.05468e-07
5.18589e-07
5.06974e-07
4.55926e-07
3.67914e-07
2.42736e-07
1.00002e-07
4.80541e-07
4.86596e-07
4.93086e-07
5.0003e-07
5.0746e-07
5.15414e-07
5.2391e-07
5.32917e-07
5.42411e-07
5.52336e-07
5.62596e-07
5.73066e-07
5.83604e-07
5.94001e-07
6.04017e-07
6.1339e-07
6.21861e-07
6.29147e-07
6.34975e-07
6.38968e-07
6.40335e-07
6.39075e-07
6.3482e-07
6.27413e-07
6.17106e-07
6.04404e-07
5.89755e-07
5.73643e-07
5.56593e-07
5.3909e-07
5.21623e-07
5.04594e-07
4.88339e-07
4.73091e-07
4.59042e-07
4.46312e-07
4.35015e-07
4.25146e-07
4.1666e-07
4.09434e-07
4.03361e-07
3.98315e-07
3.94188e-07
3.90866e-07
3.88249e-07
3.86251e-07
3.84813e-07
3.83854e-07
3.83334e-07
3.83226e-07
3.83488e-07
3.84031e-07
3.84663e-07
3.85368e-07
3.86177e-07
3.8708e-07
3.88096e-07
3.89206e-07
3.9041e-07
3.91729e-07
3.93146e-07
3.94673e-07
3.9632e-07
3.98091e-07
3.99992e-07
4.02039e-07
4.04228e-07
4.06573e-07
4.09089e-07
4.11782e-07
4.14671e-07
4.17765e-07
4.2109e-07
4.24659e-07
4.28512e-07
4.32682e-07
4.37186e-07
4.42054e-07
4.47332e-07
4.53057e-07
4.59346e-07
4.66266e-07
4.73865e-07
4.82218e-07
4.9138e-07
5.01402e-07
5.12283e-07
5.24027e-07
5.36557e-07
5.49715e-07
5.63254e-07
5.76834e-07
5.89968e-07
6.02053e-07
6.12369e-07
6.19306e-07
6.21299e-07
6.18368e-07
6.10253e-07
5.96612e-07
5.7759e-07
5.54682e-07
5.29533e-07
5.03592e-07
4.78197e-07
4.54483e-07
4.33242e-07
4.14916e-07
3.99649e-07
3.87288e-07
3.77564e-07
3.70091e-07
3.64587e-07
3.60696e-07
3.58032e-07
3.56291e-07
3.5529e-07
3.5485e-07
3.54892e-07
3.55352e-07
3.55853e-07
3.56362e-07
3.56597e-07
3.5664e-07
3.56134e-07
3.56812e-07
3.57431e-07
3.58468e-07
3.65237e-07
3.74394e-07
3.77466e-07
3.6337e-07
3.20694e-07
1.98077e-07
3.56684e-07
3.5786e-07
3.59162e-07
3.60589e-07
3.62181e-07
3.63962e-07
3.65946e-07
3.68127e-07
3.70501e-07
3.73055e-07
3.75766e-07
3.78607e-07
3.81517e-07
3.84438e-07
3.87306e-07
3.90027e-07
3.92514e-07
3.94663e-07
3.96378e-07
3.97539e-07
3.97908e-07
3.97511e-07
3.96242e-07
3.94063e-07
3.91115e-07
3.87543e-07
3.83501e-07
3.79152e-07
3.7467e-07
3.70207e-07
3.65898e-07
3.61845e-07
3.58138e-07
3.54842e-07
3.51963e-07
3.49472e-07
3.47437e-07
3.45804e-07
3.44545e-07
3.43608e-07
3.42928e-07
3.42461e-07
3.42163e-07
3.41997e-07
3.41926e-07
3.4192e-07
3.41973e-07
3.4205e-07
3.42146e-07
3.42254e-07
3.42364e-07
3.42474e-07
3.42552e-07
3.42605e-07
3.42675e-07
3.42737e-07
3.42807e-07
3.4288e-07
3.42958e-07
3.43049e-07
3.43151e-07
3.43263e-07
3.4339e-07
3.43532e-07
3.43697e-07
3.4388e-07
3.44088e-07
3.44328e-07
3.44597e-07
3.44905e-07
3.45252e-07
3.45645e-07
3.46086e-07
3.4659e-07
3.47152e-07
3.4778e-07
3.48498e-07
3.49319e-07
3.50251e-07
3.51313e-07
3.52524e-07
3.53943e-07
3.55599e-07
3.57512e-07
3.59723e-07
3.6225e-07
3.65119e-07
3.68331e-07
3.7187e-07
3.75727e-07
3.7983e-07
3.84044e-07
3.88216e-07
3.92141e-07
3.95559e-07
3.97879e-07
3.98644e-07
3.98004e-07
3.95898e-07
3.92117e-07
3.86901e-07
3.80807e-07
3.74313e-07
3.67859e-07
3.61833e-07
3.56534e-07
3.52142e-07
3.48628e-07
3.45962e-07
3.44016e-07
3.42648e-07
3.41733e-07
3.41207e-07
3.40944e-07
3.40893e-07
3.40944e-07
3.41116e-07
3.41314e-07
3.41589e-07
3.41911e-07
3.42179e-07
3.42522e-07
3.42756e-07
3.43394e-07
3.44275e-07
3.46434e-07
3.47601e-07
3.47852e-07
3.48326e-07
3.4958e-07
3.51589e-07
3.50061e-07
3.36518e-07
2.66817e-07
3.37976e-07
3.38139e-07
3.38343e-07
3.38597e-07
3.38907e-07
3.39313e-07
3.39822e-07
3.40437e-07
3.41156e-07
3.41983e-07
3.42894e-07
3.43883e-07
3.44924e-07
3.45991e-07
3.47042e-07
3.48035e-07
3.48928e-07
3.49674e-07
3.50237e-07
3.50551e-07
3.50603e-07
3.50418e-07
3.4995e-07
3.49204e-07
3.48237e-07
3.47098e-07
3.45833e-07
3.44512e-07
3.43191e-07
3.41918e-07
3.40711e-07
3.39671e-07
3.38723e-07
3.3792e-07
3.3725e-07
3.36686e-07
3.36303e-07
3.3612e-07
3.36069e-07
3.36166e-07
3.3634e-07
3.36568e-07
3.36842e-07
3.3713e-07
3.3741e-07
3.37679e-07
3.37926e-07
3.3814e-07
3.38318e-07
3.38457e-07
3.38554e-07
3.38611e-07
3.38615e-07
3.38583e-07
3.38538e-07
3.38483e-07
3.38417e-07
3.3834e-07
3.38255e-07
3.38164e-07
3.38066e-07
3.37962e-07
3.37853e-07
3.37742e-07
3.37631e-07
3.37522e-07
3.3741e-07
3.37302e-07
3.37193e-07
3.37089e-07
3.3699e-07
3.36899e-07
3.36819e-07
3.36749e-07
3.3669e-07
3.36652e-07
3.36636e-07
3.36634e-07
3.36657e-07
3.36717e-07
3.36867e-07
3.37117e-07
3.37476e-07
3.37961e-07
3.38583e-07
3.39369e-07
3.40315e-07
3.41445e-07
3.42759e-07
3.44234e-07
3.45844e-07
3.47553e-07
3.493e-07
3.50986e-07
3.52498e-07
3.53664e-07
3.5425e-07
3.54216e-07
3.53683e-07
3.5263e-07
3.51144e-07
3.49391e-07
3.47532e-07
3.4573e-07
3.44107e-07
3.42741e-07
3.41633e-07
3.40797e-07
3.4021e-07
3.39804e-07
3.39538e-07
3.39367e-07
3.39369e-07
3.3953e-07
3.39799e-07
3.40133e-07
3.40451e-07
3.40735e-07
3.41047e-07
3.41291e-07
3.41528e-07
3.41858e-07
3.42182e-07
3.42833e-07
3.43893e-07
3.45993e-07
3.4714e-07
3.4737e-07
3.4714e-07
3.45937e-07
3.4486e-07
3.43092e-07
3.37182e-07
3.00711e-07
3.35048e-07
3.34971e-07
3.34911e-07
3.34876e-07
3.34891e-07
3.34966e-07
3.35124e-07
3.35354e-07
3.35661e-07
3.36041e-07
3.36494e-07
3.37006e-07
3.37564e-07
3.38142e-07
3.38716e-07
3.39266e-07
3.39755e-07
3.4015e-07
3.40422e-07
3.40528e-07
3.40507e-07
3.40389e-07
3.40151e-07
3.3981e-07
3.3938e-07
3.38884e-07
3.38338e-07
3.37792e-07
3.37227e-07
3.36728e-07
3.36244e-07
3.35843e-07
3.35488e-07
3.35228e-07
3.35051e-07
3.34923e-07
3.34917e-07
3.35007e-07
3.35182e-07
3.35452e-07
3.35764e-07
3.36108e-07
3.36465e-07
3.36821e-07
3.37157e-07
3.37468e-07
3.37747e-07
3.37983e-07
3.38168e-07
3.38301e-07
3.38389e-07
3.38435e-07
3.38419e-07
3.38369e-07
3.38317e-07
3.38252e-07
3.3816e-07
3.38069e-07
3.37967e-07
3.37851e-07
3.37737e-07
3.37608e-07
3.37475e-07
3.37338e-07
3.37196e-07
3.37051e-07
3.36903e-07
3.36754e-07
3.36603e-07
3.36455e-07
3.36304e-07
3.36164e-07
3.36024e-07
3.35894e-07
3.35766e-07
3.35636e-07
3.35526e-07
3.35437e-07
3.35365e-07
3.3532e-07
3.3531e-07
3.3538e-07
3.35535e-07
3.35791e-07
3.3616e-07
3.36652e-07
3.37284e-07
3.38051e-07
3.38952e-07
3.39989e-07
3.4114e-07
3.42344e-07
3.43532e-07
3.44642e-07
3.45578e-07
3.46193e-07
3.46429e-07
3.46413e-07
3.46197e-07
3.4573e-07
3.45055e-07
3.44242e-07
3.43379e-07
3.42533e-07
3.41768e-07
3.41087e-07
3.40527e-07
3.40106e-07
3.39795e-07
3.39564e-07
3.39428e-07
3.39365e-07
3.39442e-07
3.39618e-07
3.39845e-07
3.40091e-07
3.40365e-07
3.40641e-07
3.40908e-07
3.41147e-07
3.41365e-07
3.41622e-07
3.41926e-07
3.42574e-07
3.43639e-07
3.45863e-07
3.47039e-07
3.47146e-07
3.46932e-07
3.4554e-07
3.44542e-07
3.43043e-07
3.39712e-07
3.17972e-07
3.34838e-07
3.34739e-07
3.34648e-07
3.34577e-07
3.34545e-07
3.34565e-07
3.34657e-07
3.34815e-07
3.3504e-07
3.35325e-07
3.35668e-07
3.36058e-07
3.36484e-07
3.3692e-07
3.37351e-07
3.37746e-07
3.38086e-07
3.38344e-07
3.38486e-07
3.38501e-07
3.38453e-07
3.38342e-07
3.38156e-07
3.37917e-07
3.37623e-07
3.37291e-07
3.36918e-07
3.36566e-07
3.36173e-07
3.35858e-07
3.3553e-07
3.35256e-07
3.35033e-07
3.34867e-07
3.34703e-07
3.34611e-07
3.34611e-07
3.34754e-07
3.34945e-07
3.35229e-07
3.35551e-07
3.3591e-07
3.36277e-07
3.3664e-07
3.36985e-07
3.37303e-07
3.37583e-07
3.37824e-07
3.3802e-07
3.38169e-07
3.38272e-07
3.38329e-07
3.38329e-07
3.38284e-07
3.38224e-07
3.38152e-07
3.38063e-07
3.37968e-07
3.37865e-07
3.37743e-07
3.37624e-07
3.37484e-07
3.37342e-07
3.37197e-07
3.37047e-07
3.36895e-07
3.36735e-07
3.36571e-07
3.364e-07
3.36233e-07
3.3606e-07
3.35894e-07
3.35726e-07
3.35555e-07
3.35399e-07
3.35245e-07
3.35102e-07
3.34951e-07
3.34804e-07
3.34683e-07
3.34624e-07
3.34639e-07
3.34733e-07
3.34919e-07
3.35209e-07
3.35609e-07
3.3613e-07
3.36782e-07
3.37563e-07
3.38463e-07
3.39457e-07
3.40516e-07
3.41593e-07
3.42618e-07
3.43512e-07
3.44178e-07
3.44521e-07
3.44574e-07
3.44475e-07
3.44197e-07
3.43782e-07
3.43269e-07
3.42675e-07
3.42037e-07
3.41429e-07
3.40868e-07
3.40378e-07
3.39982e-07
3.39683e-07
3.39456e-07
3.39322e-07
3.3923e-07
3.39282e-07
3.39455e-07
3.39662e-07
3.39886e-07
3.40205e-07
3.40572e-07
3.40864e-07
3.41167e-07
3.41424e-07
3.41729e-07
3.42014e-07
3.42628e-07
3.43669e-07
3.45878e-07
3.47029e-07
3.47195e-07
3.46919e-07
3.45571e-07
3.44168e-07
3.42784e-07
3.4052e-07
3.27048e-07
3.35034e-07
3.34908e-07
3.34781e-07
3.34672e-07
3.34618e-07
3.34621e-07
3.34678e-07
3.3481e-07
3.35003e-07
3.35273e-07
3.35587e-07
3.3595e-07
3.36347e-07
3.3676e-07
3.37159e-07
3.37533e-07
3.37833e-07
3.38058e-07
3.38166e-07
3.38148e-07
3.38086e-07
3.37965e-07
3.3778e-07
3.3755e-07
3.37276e-07
3.36972e-07
3.36635e-07
3.36311e-07
3.35954e-07
3.35662e-07
3.35356e-07
3.35113e-07
3.34907e-07
3.34742e-07
3.34616e-07
3.34556e-07
3.34571e-07
3.34739e-07
3.34964e-07
3.35285e-07
3.35642e-07
3.36032e-07
3.3642e-07
3.36802e-07
3.37166e-07
3.37498e-07
3.37789e-07
3.38034e-07
3.38232e-07
3.38382e-07
3.38481e-07
3.38519e-07
3.38509e-07
3.38465e-07
3.38409e-07
3.38323e-07
3.38239e-07
3.38142e-07
3.38038e-07
3.37919e-07
3.37797e-07
3.37664e-07
3.37525e-07
3.37387e-07
3.37233e-07
3.37083e-07
3.36927e-07
3.36765e-07
3.36603e-07
3.36453e-07
3.36288e-07
3.36138e-07
3.35978e-07
3.35829e-07
3.35692e-07
3.35531e-07
3.35402e-07
3.35286e-07
3.35181e-07
3.35095e-07
3.35042e-07
3.3506e-07
3.35155e-07
3.35341e-07
3.35621e-07
3.36014e-07
3.36518e-07
3.37139e-07
3.3788e-07
3.38725e-07
3.39652e-07
3.40626e-07
3.41589e-07
3.4249e-07
3.4325e-07
3.43811e-07
3.44098e-07
3.44144e-07
3.44065e-07
3.43833e-07
3.43465e-07
3.42992e-07
3.42442e-07
3.41847e-07
3.41268e-07
3.40736e-07
3.40259e-07
3.39882e-07
3.39616e-07
3.39431e-07
3.39328e-07
3.39299e-07
3.39386e-07
3.39577e-07
3.39843e-07
3.40164e-07
3.40453e-07
3.40657e-07
3.40956e-07
3.41202e-07
3.41416e-07
3.41701e-07
3.42007e-07
3.42631e-07
3.43663e-07
3.45831e-07
3.47e-07
3.47137e-07
3.46808e-07
3.4533e-07
3.4382e-07
3.42384e-07
3.4062e-07
3.32948e-07
3.3559e-07
3.35449e-07
3.35318e-07
3.35204e-07
3.35134e-07
3.35104e-07
3.35148e-07
3.35251e-07
3.35412e-07
3.35623e-07
3.35903e-07
3.36221e-07
3.36582e-07
3.36951e-07
3.37307e-07
3.37632e-07
3.37901e-07
3.38083e-07
3.3815e-07
3.38115e-07
3.38046e-07
3.37916e-07
3.37729e-07
3.37496e-07
3.3722e-07
3.36917e-07
3.36584e-07
3.36258e-07
3.35905e-07
3.35612e-07
3.35309e-07
3.35069e-07
3.34861e-07
3.34696e-07
3.34574e-07
3.34523e-07
3.34552e-07
3.3471e-07
3.34937e-07
3.35258e-07
3.35599e-07
3.35978e-07
3.36361e-07
3.36748e-07
3.37103e-07
3.37428e-07
3.3772e-07
3.37966e-07
3.38169e-07
3.38322e-07
3.38428e-07
3.38478e-07
3.38481e-07
3.38443e-07
3.38383e-07
3.38295e-07
3.38206e-07
3.3811e-07
3.37994e-07
3.37875e-07
3.37747e-07
3.37613e-07
3.37465e-07
3.37321e-07
3.37166e-07
3.37013e-07
3.36847e-07
3.36677e-07
3.36503e-07
3.36348e-07
3.36172e-07
3.36008e-07
3.35841e-07
3.35678e-07
3.35519e-07
3.35355e-07
3.35214e-07
3.35068e-07
3.34931e-07
3.34825e-07
3.34768e-07
3.34786e-07
3.34882e-07
3.35072e-07
3.35367e-07
3.35771e-07
3.36295e-07
3.36942e-07
3.37706e-07
3.3859e-07
3.39571e-07
3.40594e-07
3.41619e-07
3.42571e-07
3.4337e-07
3.43907e-07
3.44139e-07
3.44171e-07
3.44082e-07
3.43836e-07
3.4345e-07
3.42961e-07
3.42405e-07
3.41822e-07
3.41256e-07
3.40732e-07
3.40268e-07
3.39911e-07
3.39653e-07
3.39472e-07
3.39363e-07
3.39318e-07
3.39363e-07
3.39472e-07
3.39649e-07
3.39879e-07
3.40166e-07
3.40502e-07
3.40831e-07
3.41078e-07
3.41327e-07
3.41633e-07
3.41912e-07
3.42542e-07
3.43614e-07
3.45904e-07
3.47049e-07
3.47141e-07
3.46985e-07
3.45573e-07
3.4417e-07
3.42704e-07
3.41056e-07
3.36075e-07
3.35949e-07
3.35815e-07
3.35664e-07
3.35553e-07
3.35478e-07
3.35455e-07
3.35486e-07
3.35583e-07
3.35741e-07
3.35953e-07
3.3622e-07
3.36527e-07
3.36868e-07
3.37221e-07
3.3755e-07
3.37845e-07
3.38077e-07
3.3822e-07
3.38242e-07
3.38191e-07
3.38107e-07
3.37961e-07
3.37762e-07
3.37519e-07
3.3723e-07
3.36918e-07
3.36579e-07
3.36246e-07
3.35885e-07
3.35586e-07
3.35284e-07
3.35042e-07
3.34829e-07
3.34674e-07
3.34549e-07
3.34504e-07
3.34531e-07
3.34712e-07
3.34942e-07
3.35284e-07
3.35633e-07
3.3604e-07
3.36445e-07
3.36848e-07
3.37227e-07
3.37579e-07
3.37881e-07
3.38144e-07
3.38353e-07
3.38516e-07
3.38623e-07
3.3868e-07
3.3867e-07
3.3863e-07
3.38562e-07
3.38496e-07
3.38401e-07
3.3831e-07
3.38193e-07
3.38072e-07
3.37947e-07
3.37813e-07
3.37666e-07
3.37517e-07
3.37361e-07
3.372e-07
3.37044e-07
3.36872e-07
3.36702e-07
3.36536e-07
3.36361e-07
3.36203e-07
3.36046e-07
3.35876e-07
3.35722e-07
3.35573e-07
3.35436e-07
3.35293e-07
3.3516e-07
3.35046e-07
3.34994e-07
3.35005e-07
3.35093e-07
3.35263e-07
3.35525e-07
3.359e-07
3.36386e-07
3.36996e-07
3.37726e-07
3.3856e-07
3.39474e-07
3.40442e-07
3.41412e-07
3.42329e-07
3.43114e-07
3.43698e-07
3.44004e-07
3.44056e-07
3.43977e-07
3.43747e-07
3.43381e-07
3.42912e-07
3.42377e-07
3.41812e-07
3.41253e-07
3.40725e-07
3.40257e-07
3.39888e-07
3.39612e-07
3.39405e-07
3.39265e-07
3.39195e-07
3.39235e-07
3.39424e-07
3.39709e-07
3.40068e-07
3.40399e-07
3.40689e-07
3.40934e-07
3.4122e-07
3.41502e-07
3.41784e-07
3.42061e-07
3.42687e-07
3.43767e-07
3.45942e-07
3.47061e-07
3.47215e-07
3.46879e-07
3.45356e-07
3.43875e-07
3.42303e-07
3.4092e-07
3.37282e-07
3.3661e-07
3.3645e-07
3.3632e-07
3.36224e-07
3.36134e-07
3.3611e-07
3.36122e-07
3.36208e-07
3.36337e-07
3.36525e-07
3.3675e-07
3.3701e-07
3.37288e-07
3.3758e-07
3.37853e-07
3.381e-07
3.38278e-07
3.38372e-07
3.38362e-07
3.38298e-07
3.38196e-07
3.38037e-07
3.37827e-07
3.37574e-07
3.37269e-07
3.36951e-07
3.36599e-07
3.36265e-07
3.35895e-07
3.35596e-07
3.3529e-07
3.35054e-07
3.34837e-07
3.347e-07
3.34564e-07
3.3453e-07
3.34568e-07
3.34758e-07
3.34998e-07
3.35338e-07
3.35714e-07
3.36132e-07
3.36526e-07
3.36918e-07
3.37289e-07
3.37637e-07
3.37945e-07
3.38208e-07
3.38417e-07
3.3858e-07
3.38706e-07
3.38769e-07
3.38769e-07
3.38733e-07
3.38674e-07
3.38601e-07
3.3851e-07
3.38419e-07
3.38317e-07
3.38193e-07
3.3807e-07
3.3793e-07
3.37787e-07
3.37635e-07
3.37468e-07
3.37299e-07
3.37158e-07
3.36979e-07
3.36802e-07
3.36631e-07
3.36454e-07
3.36295e-07
3.36128e-07
3.35966e-07
3.35807e-07
3.35645e-07
3.35491e-07
3.35362e-07
3.35233e-07
3.35132e-07
3.35086e-07
3.35114e-07
3.35222e-07
3.3542e-07
3.3572e-07
3.36125e-07
3.36652e-07
3.37296e-07
3.38058e-07
3.38936e-07
3.39908e-07
3.40917e-07
3.41911e-07
3.42829e-07
3.43594e-07
3.44093e-07
3.44286e-07
3.44314e-07
3.44222e-07
3.43975e-07
3.43589e-07
3.43092e-07
3.42518e-07
3.41912e-07
3.41315e-07
3.40759e-07
3.4028e-07
3.39907e-07
3.39638e-07
3.3945e-07
3.3934e-07
3.39307e-07
3.39399e-07
3.39598e-07
3.39835e-07
3.40033e-07
3.40243e-07
3.40572e-07
3.40986e-07
3.4127e-07
3.41418e-07
3.41611e-07
3.41855e-07
3.42458e-07
3.43511e-07
3.45715e-07
3.46903e-07
3.47144e-07
3.4695e-07
3.45561e-07
3.44151e-07
3.42688e-07
3.41222e-07
3.382e-07
3.36947e-07
3.36743e-07
3.36585e-07
3.36485e-07
3.36376e-07
3.36364e-07
3.36383e-07
3.36463e-07
3.36598e-07
3.36775e-07
3.36998e-07
3.37256e-07
3.37538e-07
3.37816e-07
3.38088e-07
3.38323e-07
3.38499e-07
3.38565e-07
3.38539e-07
3.38472e-07
3.38358e-07
3.38187e-07
3.3796e-07
3.37686e-07
3.37359e-07
3.37023e-07
3.3664e-07
3.36294e-07
3.359e-07
3.35588e-07
3.35251e-07
3.35009e-07
3.34766e-07
3.34621e-07
3.34464e-07
3.34427e-07
3.34452e-07
3.34639e-07
3.34891e-07
3.35242e-07
3.35605e-07
3.36034e-07
3.36453e-07
3.36878e-07
3.37273e-07
3.37643e-07
3.37971e-07
3.3825e-07
3.38476e-07
3.38649e-07
3.38782e-07
3.38852e-07
3.38869e-07
3.38842e-07
3.38782e-07
3.38715e-07
3.38618e-07
3.38526e-07
3.3842e-07
3.38296e-07
3.38174e-07
3.38038e-07
3.37897e-07
3.37748e-07
3.376e-07
3.37437e-07
3.37289e-07
3.37112e-07
3.36934e-07
3.3677e-07
3.36585e-07
3.36419e-07
3.36235e-07
3.36065e-07
3.35897e-07
3.35742e-07
3.35578e-07
3.35427e-07
3.3527e-07
3.35128e-07
3.35053e-07
3.35053e-07
3.35136e-07
3.35306e-07
3.35576e-07
3.35953e-07
3.36453e-07
3.37092e-07
3.37859e-07
3.38734e-07
3.39693e-07
3.40697e-07
3.41703e-07
3.42632e-07
3.43398e-07
3.4393e-07
3.44152e-07
3.44168e-07
3.44054e-07
3.43783e-07
3.43379e-07
3.42873e-07
3.42305e-07
3.41719e-07
3.41157e-07
3.40642e-07
3.40203e-07
3.39857e-07
3.396e-07
3.39406e-07
3.39271e-07
3.39193e-07
3.39238e-07
3.39383e-07
3.39595e-07
3.39845e-07
3.40233e-07
3.40636e-07
3.40913e-07
3.41066e-07
3.41309e-07
3.41681e-07
3.41953e-07
3.42586e-07
3.43642e-07
3.46072e-07
3.47144e-07
3.4719e-07
3.46771e-07
3.45256e-07
3.43753e-07
3.42197e-07
3.41002e-07
3.38786e-07
3.37878e-07
3.3769e-07
3.37527e-07
3.37411e-07
3.37274e-07
3.37221e-07
3.3722e-07
3.37266e-07
3.37364e-07
3.3751e-07
3.37687e-07
3.37899e-07
3.38121e-07
3.38337e-07
3.38516e-07
3.38646e-07
3.38725e-07
3.38718e-07
3.38655e-07
3.38551e-07
3.38404e-07
3.38208e-07
3.37963e-07
3.37675e-07
3.37335e-07
3.36989e-07
3.36592e-07
3.36238e-07
3.35836e-07
3.35515e-07
3.35159e-07
3.34918e-07
3.3466e-07
3.34514e-07
3.34352e-07
3.34334e-07
3.34374e-07
3.34606e-07
3.34891e-07
3.35282e-07
3.35669e-07
3.36131e-07
3.36568e-07
3.37006e-07
3.37401e-07
3.37773e-07
3.38094e-07
3.38362e-07
3.3858e-07
3.38749e-07
3.38874e-07
3.38924e-07
3.38924e-07
3.38889e-07
3.3882e-07
3.38756e-07
3.38658e-07
3.38567e-07
3.38458e-07
3.38333e-07
3.3821e-07
3.38081e-07
3.37941e-07
3.37795e-07
3.37652e-07
3.37487e-07
3.37338e-07
3.37168e-07
3.36999e-07
3.36837e-07
3.36665e-07
3.36514e-07
3.36343e-07
3.36195e-07
3.36045e-07
3.35887e-07
3.35747e-07
3.35639e-07
3.35509e-07
3.3543e-07
3.35378e-07
3.35403e-07
3.35503e-07
3.35684e-07
3.35945e-07
3.36307e-07
3.36767e-07
3.37323e-07
3.37987e-07
3.38762e-07
3.39626e-07
3.40547e-07
3.41475e-07
3.42353e-07
3.43119e-07
3.43691e-07
3.43996e-07
3.44046e-07
3.43963e-07
3.43735e-07
3.43376e-07
3.42916e-07
3.42392e-07
3.41842e-07
3.41297e-07
3.40767e-07
3.40294e-07
3.39907e-07
3.39611e-07
3.39394e-07
3.39258e-07
3.39205e-07
3.39272e-07
3.39446e-07
3.3969e-07
3.39956e-07
3.40244e-07
3.4048e-07
3.40729e-07
3.41124e-07
3.41431e-07
3.41707e-07
3.4196e-07
3.4262e-07
3.4382e-07
3.46288e-07
3.47913e-07
3.47961e-07
3.47451e-07
3.45894e-07
3.44369e-07
3.42778e-07
3.41221e-07
3.38949e-07
3.38233e-07
3.38118e-07
3.37973e-07
3.37833e-07
3.37686e-07
3.37584e-07
3.3755e-07
3.3755e-07
3.3759e-07
3.37683e-07
3.37838e-07
3.38031e-07
3.38269e-07
3.38517e-07
3.38752e-07
3.38921e-07
3.38995e-07
3.38976e-07
3.38921e-07
3.38819e-07
3.3867e-07
3.38466e-07
3.38197e-07
3.37874e-07
3.37492e-07
3.3711e-07
3.36671e-07
3.36286e-07
3.35852e-07
3.35518e-07
3.35136e-07
3.34901e-07
3.34647e-07
3.34522e-07
3.34367e-07
3.34358e-07
3.34384e-07
3.34597e-07
3.34862e-07
3.35218e-07
3.35591e-07
3.36016e-07
3.36423e-07
3.36832e-07
3.37215e-07
3.3757e-07
3.3789e-07
3.3816e-07
3.38391e-07
3.38576e-07
3.3872e-07
3.38792e-07
3.38821e-07
3.38807e-07
3.38755e-07
3.38706e-07
3.38614e-07
3.38535e-07
3.3844e-07
3.38322e-07
3.38207e-07
3.38086e-07
3.37948e-07
3.37804e-07
3.37656e-07
3.37487e-07
3.3733e-07
3.37157e-07
3.3698e-07
3.36808e-07
3.36641e-07
3.36468e-07
3.36314e-07
3.36158e-07
3.35997e-07
3.3583e-07
3.35681e-07
3.35542e-07
3.35416e-07
3.35348e-07
3.35305e-07
3.35356e-07
3.35485e-07
3.35704e-07
3.36027e-07
3.36461e-07
3.37022e-07
3.37686e-07
3.38458e-07
3.39337e-07
3.40307e-07
3.41305e-07
3.42286e-07
3.43178e-07
3.43894e-07
3.4432e-07
3.44454e-07
3.44468e-07
3.44359e-07
3.441e-07
3.43709e-07
3.43207e-07
3.4262e-07
3.41984e-07
3.41348e-07
3.40759e-07
3.40249e-07
3.39834e-07
3.39531e-07
3.3932e-07
3.39185e-07
3.39128e-07
3.39226e-07
3.39424e-07
3.39631e-07
3.3991e-07
3.40188e-07
3.40495e-07
3.40928e-07
3.41319e-07
3.41523e-07
3.41685e-07
3.41877e-07
3.42454e-07
3.43572e-07
3.46075e-07
3.47592e-07
3.47703e-07
3.47235e-07
3.45735e-07
3.44338e-07
3.42908e-07
3.41713e-07
3.39964e-07
3.38099e-07
3.3821e-07
3.38254e-07
3.38316e-07
3.38327e-07
3.38357e-07
3.38369e-07
3.38409e-07
3.38494e-07
3.38615e-07
3.3875e-07
3.38895e-07
3.39017e-07
3.39111e-07
3.39173e-07
3.39196e-07
3.39162e-07
3.39072e-07
3.38951e-07
3.38803e-07
3.38629e-07
3.38401e-07
3.3812e-07
3.37801e-07
3.37426e-07
3.37056e-07
3.36631e-07
3.36256e-07
3.35837e-07
3.35513e-07
3.35141e-07
3.34911e-07
3.34646e-07
3.34506e-07
3.34338e-07
3.3431e-07
3.34315e-07
3.34494e-07
3.34722e-07
3.35037e-07
3.3538e-07
3.3577e-07
3.36156e-07
3.36552e-07
3.36917e-07
3.3726e-07
3.37566e-07
3.37831e-07
3.3806e-07
3.3824e-07
3.38381e-07
3.38463e-07
3.38508e-07
3.38515e-07
3.38489e-07
3.38466e-07
3.38404e-07
3.38355e-07
3.38283e-07
3.38195e-07
3.38104e-07
3.3801e-07
3.37904e-07
3.37784e-07
3.37657e-07
3.37528e-07
3.37384e-07
3.37236e-07
3.37064e-07
3.36899e-07
3.36731e-07
3.36567e-07
3.36406e-07
3.36242e-07
3.36082e-07
3.35923e-07
3.35774e-07
3.35608e-07
3.35475e-07
3.35338e-07
3.35279e-07
3.35294e-07
3.35388e-07
3.35563e-07
3.3584e-07
3.36245e-07
3.3677e-07
3.37417e-07
3.38181e-07
3.39041e-07
3.3998e-07
3.40954e-07
3.41911e-07
3.42799e-07
3.43533e-07
3.4402e-07
3.44211e-07
3.44215e-07
3.44084e-07
3.43797e-07
3.43379e-07
3.42857e-07
3.4227e-07
3.41663e-07
3.41082e-07
3.40566e-07
3.40132e-07
3.39798e-07
3.39561e-07
3.39403e-07
3.39327e-07
3.39312e-07
3.39433e-07
3.39651e-07
3.39931e-07
3.40217e-07
3.40494e-07
3.40742e-07
3.40966e-07
3.41135e-07
3.41353e-07
3.41629e-07
3.41853e-07
3.42483e-07
3.43596e-07
3.46116e-07
3.47237e-07
3.47422e-07
3.47154e-07
3.4575e-07
3.44213e-07
3.42589e-07
3.41174e-07
3.39568e-07
3.37083e-07
3.37529e-07
3.37842e-07
3.38081e-07
3.38264e-07
3.38429e-07
3.38547e-07
3.38639e-07
3.38734e-07
3.38859e-07
3.38992e-07
3.39164e-07
3.39349e-07
3.3952e-07
3.39639e-07
3.3968e-07
3.39665e-07
3.39605e-07
3.39481e-07
3.39283e-07
3.39046e-07
3.3877e-07
3.38442e-07
3.38075e-07
3.37648e-07
3.37235e-07
3.36768e-07
3.36344e-07
3.3589e-07
3.35534e-07
3.35123e-07
3.34847e-07
3.34544e-07
3.34345e-07
3.3411e-07
3.33976e-07
3.33898e-07
3.33959e-07
3.34081e-07
3.34276e-07
3.34515e-07
3.34789e-07
3.35055e-07
3.35327e-07
3.35612e-07
3.35895e-07
3.36154e-07
3.36393e-07
3.3663e-07
3.36847e-07
3.37031e-07
3.37165e-07
3.37291e-07
3.37388e-07
3.37466e-07
3.37542e-07
3.37602e-07
3.37661e-07
3.37692e-07
3.37701e-07
3.37689e-07
3.37666e-07
3.37629e-07
3.37554e-07
3.37473e-07
3.37387e-07
3.37268e-07
3.37149e-07
3.37002e-07
3.36864e-07
3.36717e-07
3.36575e-07
3.36413e-07
3.36264e-07
3.36103e-07
3.35937e-07
3.3579e-07
3.35665e-07
3.3554e-07
3.35452e-07
3.35417e-07
3.35446e-07
3.35554e-07
3.35738e-07
3.3601e-07
3.36383e-07
3.36854e-07
3.37457e-07
3.38179e-07
3.39014e-07
3.39932e-07
3.40902e-07
3.41856e-07
3.42742e-07
3.43481e-07
3.44009e-07
3.44236e-07
3.44263e-07
3.44162e-07
3.43912e-07
3.43539e-07
3.43071e-07
3.42532e-07
3.4195e-07
3.4136e-07
3.40819e-07
3.4034e-07
3.39952e-07
3.39662e-07
3.39451e-07
3.39333e-07
3.39281e-07
3.39331e-07
3.39486e-07
3.39709e-07
3.39951e-07
3.40231e-07
3.40546e-07
3.40874e-07
3.41164e-07
3.41381e-07
3.41539e-07
3.4179e-07
3.42365e-07
3.43648e-07
3.4646e-07
3.47878e-07
3.47645e-07
3.46896e-07
3.45268e-07
3.43636e-07
3.42344e-07
3.41189e-07
3.39988e-07
3.33851e-07
3.35227e-07
3.36258e-07
3.36996e-07
3.37566e-07
3.37972e-07
3.38297e-07
3.38563e-07
3.38777e-07
3.38918e-07
3.39021e-07
3.39128e-07
3.39232e-07
3.39329e-07
3.39389e-07
3.39441e-07
3.39427e-07
3.39376e-07
3.39282e-07
3.39117e-07
3.38905e-07
3.38639e-07
3.38308e-07
3.37926e-07
3.37479e-07
3.37063e-07
3.36593e-07
3.3617e-07
3.35716e-07
3.35356e-07
3.34936e-07
3.346e-07
3.34215e-07
3.33887e-07
3.33519e-07
3.33188e-07
3.32907e-07
3.32702e-07
3.32517e-07
3.32356e-07
3.32214e-07
3.32053e-07
3.31904e-07
3.31763e-07
3.31661e-07
3.31575e-07
3.31551e-07
3.31583e-07
3.31678e-07
3.31844e-07
3.32038e-07
3.32332e-07
3.32701e-07
3.33108e-07
3.33537e-07
3.33981e-07
3.34426e-07
3.34862e-07
3.35269e-07
3.35627e-07
3.35941e-07
3.36211e-07
3.36432e-07
3.36583e-07
3.367e-07
3.36787e-07
3.36797e-07
3.3679e-07
3.36737e-07
3.3667e-07
3.36587e-07
3.36496e-07
3.36387e-07
3.36293e-07
3.36168e-07
3.36051e-07
3.35926e-07
3.35816e-07
3.35678e-07
3.35587e-07
3.35555e-07
3.35594e-07
3.35728e-07
3.35947e-07
3.36271e-07
3.36719e-07
3.37282e-07
3.37962e-07
3.38748e-07
3.39634e-07
3.40603e-07
3.41602e-07
3.42568e-07
3.43433e-07
3.44129e-07
3.44555e-07
3.44662e-07
3.44656e-07
3.44517e-07
3.44222e-07
3.43793e-07
3.43245e-07
3.42618e-07
3.41968e-07
3.41335e-07
3.40762e-07
3.40263e-07
3.39867e-07
3.39577e-07
3.39378e-07
3.39261e-07
3.39208e-07
3.39316e-07
3.39532e-07
3.39793e-07
3.40121e-07
3.40434e-07
3.40716e-07
3.40975e-07
3.41192e-07
3.41369e-07
3.41503e-07
3.41668e-07
3.42067e-07
3.43441e-07
3.46434e-07
3.47875e-07
3.4778e-07
3.47358e-07
3.45892e-07
3.44309e-07
3.42871e-07
3.41338e-07
3.39552e-07
3.26491e-07
3.29758e-07
3.32264e-07
3.34202e-07
3.35656e-07
3.36741e-07
3.37548e-07
3.38154e-07
3.38628e-07
3.39012e-07
3.39315e-07
3.39547e-07
3.39728e-07
3.39812e-07
3.39801e-07
3.39678e-07
3.39513e-07
3.39346e-07
3.39165e-07
3.38981e-07
3.38789e-07
3.38549e-07
3.38246e-07
3.37905e-07
3.37503e-07
3.37111e-07
3.36669e-07
3.36208e-07
3.35673e-07
3.35161e-07
3.34578e-07
3.34023e-07
3.33386e-07
3.32693e-07
3.31888e-07
3.30934e-07
3.29893e-07
3.28724e-07
3.27419e-07
3.25964e-07
3.24415e-07
3.2278e-07
3.21166e-07
3.19641e-07
3.18297e-07
3.17187e-07
3.16378e-07
3.15889e-07
3.1573e-07
3.15891e-07
3.16314e-07
3.16981e-07
3.17961e-07
3.19159e-07
3.2052e-07
3.21985e-07
3.23505e-07
3.25034e-07
3.26533e-07
3.27957e-07
3.29288e-07
3.30503e-07
3.31586e-07
3.32529e-07
3.3334e-07
3.34024e-07
3.34565e-07
3.35006e-07
3.35342e-07
3.35577e-07
3.35747e-07
3.35842e-07
3.35895e-07
3.35918e-07
3.35881e-07
3.35841e-07
3.35765e-07
3.357e-07
3.3561e-07
3.35553e-07
3.35546e-07
3.35572e-07
3.35672e-07
3.35846e-07
3.36113e-07
3.36493e-07
3.36992e-07
3.37619e-07
3.38382e-07
3.39267e-07
3.40241e-07
3.41254e-07
3.42243e-07
3.43156e-07
3.43889e-07
3.4437e-07
3.44536e-07
3.44547e-07
3.44414e-07
3.44113e-07
3.43674e-07
3.43127e-07
3.42507e-07
3.41867e-07
3.41245e-07
3.40684e-07
3.40212e-07
3.39837e-07
3.39561e-07
3.3937e-07
3.39272e-07
3.39232e-07
3.39318e-07
3.39504e-07
3.39776e-07
3.4003e-07
3.40294e-07
3.4056e-07
3.4079e-07
3.40992e-07
3.41164e-07
3.41266e-07
3.41511e-07
3.41658e-07
3.43097e-07
3.46352e-07
3.47967e-07
3.47838e-07
3.47059e-07
3.45214e-07
3.43243e-07
3.41687e-07
3.39969e-07
3.38922e-07
3.10485e-07
3.1756e-07
3.23163e-07
3.2748e-07
3.3074e-07
3.33198e-07
3.35044e-07
3.36398e-07
3.37442e-07
3.38221e-07
3.38798e-07
3.39231e-07
3.39593e-07
3.39887e-07
3.40071e-07
3.40196e-07
3.40256e-07
3.40235e-07
3.401e-07
3.39845e-07
3.39533e-07
3.39189e-07
3.38788e-07
3.38322e-07
3.37775e-07
3.37203e-07
3.36555e-07
3.35876e-07
3.35144e-07
3.34372e-07
3.33472e-07
3.32438e-07
3.31167e-07
3.29579e-07
3.27597e-07
3.25087e-07
3.22041e-07
3.18369e-07
3.14157e-07