/*--------------------------------*- C++ -*----------------------------------*\
| =========                 |                                                 |
| \\      /  F ield         | OpenFOAM: The Open Source CFD Toolbox           |
|  \\    /   O peration     | Version:  v1912                                 |
|   \\  /    A nd           | Website:  www.openfoam.com                      |
|    \\/     M anipulation  |                                                 |
\*---------------------------------------------------------------------------*/
FoamFile
{
    version     2.0;
    format      ascii;
    class       volScalarField;
    location    "50";
    object      omega;
}
// * * * * * * * * * * * * * * * * * * * * * * * * * * * * * * * * * * * * * //

dimensions      [0 0 -1 0 0 0 0];


internalField   nonuniform List<scalar> 
14268
(
0.0169177
0.0170749
0.0172359
0.0174005
0.0175687
0.0177404
0.0179155
0.0180938
0.0182747
0.018458
0.018643
0.018829
0.0190149
0.0191987
0.0193797
0.0195566
0.0197293
0.0198966
0.0200583
0.0202153
0.0203734
0.0205341
0.0206973
0.0208623
0.0210287
0.0211964
0.0213649
0.0215344
0.0217051
0.0218768
0.0220518
0.0222326
0.0224196
0.0226128
0.022812
0.0230178
0.02323
0.0234486
0.0236736
0.0239046
0.0241417
0.0243834
0.0246287
0.0248775
0.0251305
0.0253877
0.0256499
0.0259169
0.0261893
0.0264678
0.0267525
0.0270443
0.0273492
0.0276673
0.0279986
0.028343
0.0287005
0.029071
0.0294544
0.0298515
0.0302619
0.0306861
0.031124
0.0315764
0.0320435
0.0325256
0.0330231
0.0335367
0.0340669
0.0346143
0.0351796
0.0357632
0.0363661
0.0369891
0.0376341
0.0383025
0.0389963
0.0397172
0.0404666
0.0412466
0.0420585
0.0429026
0.0437779
0.0446851
0.0456249
0.0465979
0.0476041
0.0486422
0.0497119
0.0508095
0.0519333
0.0530809
0.0542505
0.0554405
0.0566493
0.0578949
0.0591999
0.0605662
0.0619944
0.0634907
0.0650606
0.0667106
0.0684499
0.0702883
0.0722405
0.0743205
0.0765474
0.0789426
0.081534
0.0843601
0.0874509
0.0908369
0.0945625
0.0986674
0.103222
0.10828
0.113978
0.12041
0.127771
0.136286
0.146259
0.158125
0.172368
0.189864
0.211637
0.239408
0.276579
0.32674
0.395708
0.494608
0.644084
0.886113
1.31123
2.15849
0.195278
0.193891
0.192447
0.190951
0.189404
0.187795
0.186124
0.184397
0.182626
0.180826
0.179017
0.17722
0.175464
0.173782
0.172209
0.170781
0.169533
0.168501
0.167719
0.167226
0.167083
0.167261
0.167817
0.168787
0.170137
0.171844
0.173883
0.176226
0.178835
0.181669
0.184677
0.187813
0.191027
0.194269
0.197486
0.200637
0.203647
0.206475
0.209085
0.211469
0.213612
0.215514
0.217172
0.218592
0.219779
0.220752
0.221508
0.222067
0.222435
0.222627
0.222646
0.222526
0.222367
0.222172
0.221924
0.221631
0.221295
0.220913
0.220491
0.220027
0.219528
0.218991
0.218419
0.217812
0.217169
0.216488
0.215775
0.215024
0.214236
0.213411
0.212547
0.211648
0.210707
0.209727
0.208702
0.20763
0.206508
0.205333
0.204103
0.202814
0.201466
0.200033
0.198509
0.19689
0.195176
0.193373
0.191492
0.18955
0.187576
0.185602
0.183679
0.181868
0.180245
0.178889
0.177887
0.177391
0.177485
0.178167
0.179439
0.181388
0.183946
0.187047
0.190618
0.194565
0.198784
0.203149
0.207532
0.211819
0.215894
0.219673
0.22309
0.226108
0.228657
0.230727
0.232371
0.233645
0.234602
0.235299
0.235785
0.236143
0.236571
0.237187
0.238025
0.239265
0.241264
0.243966
0.246418
0.248159
0.253151
0.265245
0.291817
0.345175
0.457605
0.79189
0.243835
0.243483
0.24312
0.242746
0.242359
0.241941
0.241484
0.240992
0.240466
0.239911
0.239335
0.238746
0.238155
0.237575
0.237021
0.23651
0.236059
0.235687
0.235411
0.235249
0.235211
0.235281
0.235481
0.235817
0.236286
0.236869
0.237549
0.23831
0.239133
0.240002
0.240899
0.241809
0.242713
0.243598
0.244453
0.245263
0.245978
0.246589
0.247101
0.247525
0.247871
0.248148
0.248367
0.24854
0.248673
0.248775
0.24885
0.248905
0.248943
0.248969
0.248983
0.248987
0.249002
0.249008
0.249
0.248973
0.248939
0.248886
0.248816
0.248739
0.24865
0.24855
0.24844
0.248324
0.248198
0.248062
0.24792
0.247769
0.247608
0.247443
0.247269
0.247087
0.246897
0.246702
0.2465
0.246288
0.246067
0.245839
0.245603
0.245357
0.245071
0.244739
0.244358
0.243922
0.243427
0.242868
0.242248
0.241565
0.240825
0.24004
0.23923
0.238417
0.237639
0.236937
0.236363
0.236007
0.235948
0.236174
0.2366
0.237212
0.237999
0.238919
0.239916
0.240941
0.241955
0.242923
0.243818
0.244621
0.245326
0.245936
0.24646
0.246904
0.247236
0.247451
0.247588
0.247676
0.247736
0.247782
0.247818
0.247858
0.247932
0.248056
0.248277
0.248791
0.249704
0.25136
0.252245
0.252374
0.252632
0.253363
0.256878
0.267265
0.298027
0.431523
0.251448
0.251391
0.251341
0.251301
0.251251
0.251179
0.25108
0.250958
0.250811
0.250643
0.250454
0.250249
0.250035
0.249821
0.249613
0.249422
0.249258
0.249133
0.249058
0.24904
0.249074
0.249121
0.249183
0.24926
0.249352
0.249456
0.249572
0.249698
0.249834
0.249978
0.250132
0.250297
0.250472
0.250654
0.250846
0.25105
0.25121
0.251328
0.251404
0.251448
0.251467
0.251466
0.251455
0.251436
0.251416
0.251399
0.251386
0.251379
0.251381
0.251392
0.251412
0.251443
0.251485
0.251532
0.251572
0.251601
0.251622
0.251634
0.251637
0.251635
0.251628
0.251616
0.2516
0.251581
0.25156
0.251535
0.251509
0.251483
0.251455
0.25143
0.251404
0.25138
0.251358
0.25134
0.251327
0.251318
0.251314
0.251315
0.251324
0.251339
0.251355
0.25135
0.251321
0.251266
0.25118
0.251063
0.25091
0.250725
0.250512
0.250269
0.250006
0.24974
0.249484
0.249256
0.249082
0.249016
0.249084
0.249187
0.249262
0.249303
0.249303
0.249259
0.249169
0.249043
0.248897
0.248745
0.248608
0.248502
0.24844
0.248428
0.248463
0.248531
0.248564
0.248566
0.248545
0.248525
0.248496
0.24848
0.248486
0.248512
0.248576
0.248708
0.248922
0.249355
0.25011
0.251773
0.252599
0.252739
0.252642
0.252429
0.253185
0.255635
0.265326
0.321337
0.252712
0.252715
0.252731
0.252758
0.252792
0.25281
0.252811
0.252794
0.252758
0.252705
0.252637
0.252558
0.252471
0.252381
0.252295
0.252219
0.252163
0.252134
0.252136
0.252178
0.252226
0.252244
0.252239
0.252211
0.252163
0.252097
0.252021
0.25194
0.25186
0.25179
0.251738
0.251702
0.251691
0.251704
0.251744
0.251817
0.251875
0.2519
0.251904
0.251881
0.251846
0.251803
0.251755
0.251707
0.251663
0.251627
0.251599
0.251581
0.251575
0.251583
0.251604
0.251635
0.251678
0.251729
0.251774
0.25181
0.251837
0.251857
0.25187
0.251877
0.251881
0.25188
0.251877
0.251871
0.251864
0.251859
0.251852
0.251846
0.251842
0.25184
0.251842
0.251847
0.251857
0.251876
0.251904
0.25194
0.251986
0.252045
0.252121
0.252202
0.252269
0.252316
0.252344
0.252349
0.252328
0.252276
0.252192
0.252073
0.251918
0.251732
0.251523
0.2513
0.251079
0.25088
0.250728
0.250637
0.250628
0.2507
0.25074
0.250705
0.250587
0.25039
0.250133
0.249841
0.249544
0.249265
0.249019
0.248828
0.248693
0.248613
0.248588
0.248614
0.24863
0.248621
0.248603
0.248583
0.248558
0.248539
0.248549
0.248575
0.248642
0.248811
0.249046
0.249476
0.250293
0.251903
0.25274
0.252935
0.25281
0.252497
0.252539
0.253148
0.256429
0.282103
0.252944
0.252966
0.253005
0.253057
0.253106
0.253143
0.253162
0.253165
0.253152
0.253123
0.25308
0.253026
0.252965
0.252902
0.252841
0.252789
0.252753
0.252741
0.252759
0.252815
0.25287
0.252886
0.252868
0.252815
0.252732
0.252624
0.2525
0.252369
0.252239
0.252119
0.252019
0.251941
0.251895
0.251879
0.251896
0.251951
0.25199
0.252005
0.251999
0.251969
0.251929
0.251881
0.251831
0.251781
0.251737
0.251702
0.251676
0.251661
0.251658
0.251667
0.251691
0.251728
0.251778
0.251833
0.25188
0.251917
0.251943
0.251965
0.251979
0.251987
0.251992
0.251994
0.251992
0.251989
0.251983
0.251978
0.251972
0.251968
0.251966
0.251966
0.251968
0.251975
0.251984
0.252003
0.252028
0.252061
0.252104
0.252156
0.252218
0.252293
0.252374
0.252437
0.252483
0.25251
0.252514
0.252494
0.252447
0.252374
0.252276
0.252155
0.252014
0.25187
0.251735
0.251623
0.251556
0.251562
0.251652
0.251718
0.251688
0.251549
0.25131
0.250992
0.250624
0.250227
0.249836
0.249478
0.249174
0.248933
0.248759
0.248658
0.248628
0.248653
0.248663
0.248647
0.248618
0.248587
0.248559
0.248542
0.248538
0.248556
0.248613
0.248737
0.248972
0.249388
0.250178
0.251851
0.25271
0.252863
0.252789
0.252474
0.252776
0.253175
0.254441
0.266763
0.253029
0.253047
0.25308
0.253127
0.253176
0.253215
0.253237
0.253243
0.253234
0.25321
0.253173
0.253127
0.253075
0.253021
0.252972
0.252934
0.252912
0.252914
0.252947
0.253013
0.25306
0.253068
0.253039
0.252972
0.252876
0.252754
0.252613
0.252468
0.252323
0.252192
0.25208
0.251997
0.251943
0.251922
0.251943
0.251995
0.252034
0.252035
0.252023
0.251987
0.251942
0.251888
0.251831
0.251775
0.251725
0.251683
0.251651
0.25163
0.25162
0.251625
0.251644
0.251674
0.251717
0.251769
0.251815
0.251854
0.251884
0.251908
0.251924
0.251933
0.251941
0.251943
0.251944
0.251943
0.251941
0.251941
0.251939
0.251939
0.251941
0.251945
0.251955
0.251968
0.251988
0.252017
0.252055
0.252103
0.252161
0.252234
0.252326
0.252422
0.252506
0.252573
0.252623
0.252653
0.252661
0.252645
0.252603
0.252532
0.252435
0.252313
0.252173
0.252023
0.251873
0.251744
0.251654
0.251624
0.251671
0.251752
0.251738
0.251613
0.251381
0.251064
0.250684
0.250273
0.249869
0.2495
0.249182
0.248933
0.248758
0.248654
0.248618
0.248637
0.248647
0.248634
0.248608
0.248578
0.24855
0.248531
0.248531
0.248562
0.248635
0.24878
0.248999
0.249416
0.250202
0.251865
0.252698
0.252885
0.252777
0.252562
0.252759
0.252928
0.253314
0.259412
0.253109
0.253133
0.253172
0.253226
0.253272
0.253307
0.25333
0.253336
0.253328
0.253304
0.25327
0.253227
0.253178
0.253127
0.253081
0.253046
0.25303
0.253037
0.253077
0.253142
0.253181
0.25318
0.253141
0.253064
0.252957
0.252824
0.252675
0.252521
0.25237
0.252233
0.252119
0.252033
0.251977
0.251957
0.251977
0.252024
0.252062
0.25206
0.252045
0.252008
0.251963
0.251908
0.251853
0.251801
0.251754
0.251716
0.251688
0.251671
0.251668
0.251679
0.251701
0.251736
0.251786
0.251842
0.251889
0.251927
0.251957
0.251981
0.251997
0.252006
0.252012
0.252015
0.252015
0.252014
0.252008
0.252005
0.252001
0.251997
0.251997
0.251998
0.252
0.252008
0.252019
0.252038
0.252066
0.252101
0.252146
0.252199
0.252265
0.252344
0.252425
0.252489
0.252537
0.252564
0.25257
0.252551
0.252507
0.252437
0.252342
0.252224
0.252089
0.251948
0.251815
0.251704
0.251636
0.251621
0.251676
0.251754
0.251736
0.251609
0.251376
0.251056
0.250675
0.250262
0.249857
0.249488
0.249173
0.248927
0.248755
0.248655
0.248623
0.248645
0.248655
0.248645
0.248629
0.248611
0.248581
0.24855
0.248544
0.24856
0.248618
0.248753
0.249001
0.249426
0.250207
0.251846
0.2527
0.252861
0.252757
0.252448
0.252639
0.252719
0.252724
0.256065
0.2532
0.253219
0.253252
0.253299
0.253343
0.25338
0.253397
0.253402
0.253394
0.253374
0.253339
0.253298
0.253251
0.253206
0.253167
0.253138
0.253128
0.253143
0.253192
0.253254
0.253285
0.253277
0.25323
0.253145
0.253029
0.252889
0.252733
0.252571
0.252415
0.252274
0.252156
0.252067
0.252011
0.251992
0.252013
0.25206
0.252097
0.2521
0.252085
0.252046
0.252
0.251944
0.251889
0.251832
0.251782
0.251739
0.251704
0.251682
0.251671
0.251674
0.251689
0.251717
0.251761
0.251815
0.251863
0.251901
0.251932
0.251956
0.251973
0.251985
0.251992
0.251995
0.251995
0.251997
0.251995
0.251994
0.251992
0.251993
0.251993
0.252003
0.252008
0.252022
0.25204
0.252067
0.252104
0.25215
0.252206
0.252276
0.252363
0.252454
0.252534
0.252597
0.252643
0.252668
0.252671
0.25265
0.252601
0.252525
0.252424
0.252298
0.252154
0.252006
0.251864
0.251748
0.251675
0.251672
0.251752
0.251823
0.251793
0.251649
0.251397
0.251061
0.250672
0.250258
0.249854
0.249486
0.249172
0.248927
0.248756
0.24866
0.248632
0.248645
0.248647
0.248629
0.248606
0.248584
0.248559
0.248537
0.248525
0.248537
0.248598
0.248727
0.248966
0.249404
0.250201
0.251928
0.252759
0.252882
0.252829
0.252607
0.252824
0.253067
0.252798
0.254504
0.253329
0.253354
0.253395
0.253441
0.253483
0.253512
0.253528
0.253529
0.253517
0.253492
0.253456
0.253413
0.253366
0.25332
0.253283
0.253259
0.253257
0.253283
0.253343
0.253395
0.253415
0.253397
0.253337
0.25324
0.253114
0.252964
0.252799
0.252629
0.252466
0.252319
0.252197
0.252106
0.25205
0.252031
0.252054
0.252103
0.252145
0.252143
0.25213
0.252086
0.252041
0.251981
0.251922
0.251866
0.251818
0.251773
0.251742
0.251722
0.251716
0.251721
0.251741
0.251773
0.251819
0.251874
0.251923
0.251965
0.251996
0.252019
0.252033
0.252044
0.252051
0.252055
0.252053
0.252053
0.252052
0.252049
0.252046
0.252043
0.252043
0.252047
0.25205
0.252061
0.252075
0.252096
0.252129
0.252168
0.252218
0.252283
0.252363
0.252456
0.252534
0.252598
0.252645
0.252674
0.252681
0.252662
0.252618
0.252544
0.252443
0.252318
0.252176
0.252024
0.251876
0.251751
0.251668
0.251641
0.25168
0.25175
0.251727
0.251593
0.251355
0.251036
0.25066
0.250256
0.249857
0.249491
0.249178
0.248932
0.248761
0.248665
0.248637
0.248655
0.248662
0.24865
0.24863
0.248606
0.248585
0.248569
0.248562
0.248592
0.248683
0.248848
0.24909
0.249533
0.250337
0.251975
0.252783
0.252946
0.252757
0.252433
0.252605
0.252778
0.252611
0.253352
0.253462
0.253478
0.253501
0.253531
0.25357
0.253594
0.25361
0.253608
0.253597
0.253572
0.253541
0.253504
0.253468
0.253433
0.253407
0.253392
0.253396
0.253429
0.25349
0.253529
0.253538
0.253509
0.253438
0.253332
0.253196
0.253037
0.252862
0.252686
0.252517
0.252366
0.252239
0.252147
0.252092
0.252073
0.2521
0.252151
0.25219
0.252188
0.252172
0.252131
0.252083
0.25202
0.251961
0.251902
0.251852
0.251808
0.251774
0.251751
0.25174
0.251745
0.251763
0.251793
0.251835
0.251888
0.251938
0.251979
0.252012
0.252037
0.252055
0.252065
0.252073
0.252077
0.252079
0.252077
0.252074
0.252069
0.252074
0.252068
0.252069
0.252073
0.252077
0.25209
0.252103
0.252126
0.252158
0.252199
0.252251
0.252313
0.25239
0.252475
0.252549
0.252607
0.252649
0.252673
0.252676
0.252657
0.252613
0.252546
0.252454
0.252339
0.252208
0.252073
0.251946
0.251843
0.251783
0.251795
0.251895
0.251964
0.251931
0.251784
0.251528
0.251185
0.250779
0.250343
0.249916
0.249527
0.249199
0.248945
0.24877
0.248671
0.248641
0.248663
0.248675
0.248669
0.248657
0.248633
0.248601
0.248573
0.248577
0.248603
0.248644
0.24874
0.248969
0.249386
0.250164
0.251814
0.252666
0.252891
0.252815
0.252601
0.252842
0.253058
0.25274
0.25302
0.253664
0.253691
0.25373
0.253764
0.253803
0.253818
0.253827
0.253822
0.253803
0.253773
0.253729
0.253678
0.253624
0.253578
0.253544
0.253532
0.253548
0.253602
0.253667
0.253699
0.2537
0.253661
0.253575
0.253452
0.2533
0.253127
0.252939
0.252753
0.252576
0.25242
0.252291
0.252198
0.252145
0.252128
0.252164
0.252216
0.252259
0.252262
0.252244
0.252201
0.252153
0.25209
0.252028
0.251964
0.251909
0.251862
0.251826
0.2518
0.251786
0.251786
0.251798
0.251826
0.251867
0.251922
0.251977
0.25202
0.252052
0.252079
0.252099
0.252112
0.252121
0.252123
0.252125
0.252126
0.252121
0.252117
0.252118
0.252115
0.252113
0.252118
0.252123
0.252131
0.252147
0.25217
0.252202
0.252245
0.252297
0.252361
0.252444
0.252536
0.252613
0.252672
0.252713
0.252733
0.252732
0.252706
0.252654
0.252573
0.252464
0.252335
0.252192
0.252046
0.25191
0.2518
0.251736
0.251731
0.2518
0.251856
0.251808
0.251641
0.251369
0.251018
0.250616
0.250196
0.249796
0.249438
0.24914
0.248912
0.248754
0.248665
0.248637
0.248657
0.248662
0.248647
0.248637
0.248628
0.248618
0.248593
0.248561
0.248548
0.248605
0.248781
0.249031
0.249479
0.250273
0.252101
0.252858
0.252924
0.252697
0.252354
0.252547
0.252743
0.252541
0.252646
0.253875
0.253869
0.253875
0.253888
0.253917
0.25393
0.253934
0.253931
0.253918
0.253898
0.253873
0.253841
0.253807
0.253774
0.253751
0.253739
0.253749
0.253788
0.253823
0.25383
0.253811
0.253751
0.253653
0.253524
0.253367
0.25319
0.253002
0.252815
0.252636
0.25248
0.252356
0.252266
0.252222
0.252211
0.252255
0.252307
0.25235
0.252344
0.252321
0.252268
0.252217
0.252147
0.252082
0.252016
0.25196
0.251912
0.251876
0.251852
0.251841
0.251845
0.25186
0.251892
0.251935
0.25199
0.252039
0.25208
0.252113
0.252137
0.252153
0.252164
0.252171
0.252174
0.252175
0.252173
0.252172
0.252169
0.25217
0.252168
0.252169
0.252173
0.252179
0.252189
0.252201
0.252223
0.252252
0.252291
0.252339
0.252393
0.252469
0.252545
0.252622
0.252681
0.252723
0.252745
0.25275
0.252729
0.252683
0.252611
0.252512
0.252387
0.252241
0.252082
0.251928
0.251797
0.251708
0.251675
0.251706
0.251769
0.251743
0.251609
0.251372
0.251056
0.250688
0.250296
0.249911
0.249546
0.249223
0.248965
0.248781
0.248673
0.248636
0.248648
0.248645
0.248618
0.248591
0.248588
0.248567
0.248538
0.24852
0.24855
0.248637
0.248782
0.249051
0.249525
0.250417
0.252263
0.253444
0.253515
0.253201
0.252831
0.253048
0.253206
0.252803
0.252307
0.254285
0.254268
0.254264
0.254267
0.25427
0.254264
0.254246
0.254223
0.254194
0.254155
0.254104
0.254052
0.253998
0.253957
0.253942
0.253957
0.254008
0.254078
0.254118
0.254128
0.254111
0.254052
0.253947
0.253797
0.253614
0.253409
0.253197
0.252984
0.252784
0.252611
0.252472
0.252362
0.2523
0.252272
0.252301
0.252345
0.252387
0.25238
0.252358
0.25231
0.252255
0.252186
0.252122
0.252056
0.252
0.251952
0.251913
0.251887
0.251872
0.25187
0.251883
0.251912
0.25195
0.252002
0.252057
0.252101
0.252134
0.252161
0.25218
0.252192
0.252199
0.252202
0.252199
0.252196
0.252195
0.252191
0.252191
0.252189
0.252191
0.252196
0.252207
0.252217
0.252236
0.252263
0.252298
0.252342
0.252397
0.252464
0.252547
0.252623
0.252695
0.252744
0.252779
0.252794
0.252787
0.252759
0.252704
0.25263
0.252536
0.252423
0.252293
0.252163
0.252046
0.251953
0.251906
0.251939
0.252054
0.252111
0.252067
0.25191
0.251648
0.251299
0.250883
0.250427
0.249972
0.249558
0.249211
0.248943
0.248759
0.248657
0.248627
0.24865
0.248646
0.248616
0.248589
0.248568
0.24854
0.248514
0.248523
0.248593
0.248661
0.248729
0.248948
0.24938
0.250219
0.252089
0.253176
0.253298
0.253011
0.252691
0.253027
0.253297
0.253273
0.253013
0.25471
0.254639
0.254608
0.254573
0.254549
0.254516
0.254489
0.254462
0.254436
0.254413
0.254393
0.254375
0.254359
0.254331
0.254289
0.254246
0.254229
0.254232
0.254223
0.254197
0.254153
0.254071
0.25395
0.253802
0.253626
0.253428
0.253225
0.25302
0.252822
0.252646
0.252508
0.2524
0.252337
0.25231
0.252339
0.252384
0.25243
0.252434
0.252426
0.252395
0.252354
0.252303
0.252256
0.252209
0.252174
0.252145
0.252123
0.25211
0.252103
0.252102
0.252114
0.252136
0.252165
0.25221
0.252258
0.252293
0.252316
0.252334
0.252344
0.252346
0.252346
0.252344
0.252337
0.252329
0.252321
0.252313
0.252308
0.252305
0.252301
0.252302
0.252306
0.252311
0.252322
0.252341
0.252371
0.252409
0.252458
0.252523
0.252598
0.252685
0.252753
0.252805
0.252841
0.25286
0.252854
0.252819
0.252758
0.25267
0.252558
0.252429
0.252286
0.25214
0.252004
0.251892
0.251823
0.251817
0.251881
0.251926
0.251866
0.251687
0.251404
0.251039
0.250621
0.250187
0.249775
0.249413
0.249114
0.248889
0.248738
0.248653
0.248629
0.248656
0.248662
0.248646
0.248622
0.248595
0.248567
0.248549
0.248541
0.248542
0.248598
0.248737
0.248959
0.249441
0.250258
0.252128
0.252892
0.253076
0.252945
0.252729
0.25298
0.253146
0.252996
0.252565
0.255413
0.255164
0.254994
0.254881
0.254802
0.254731
0.254673
0.254618
0.254566
0.254517
0.254482
0.254455
0.254451
0.254479
0.254545
0.254633
0.254705
0.254738
0.254729
0.254669
0.254574
0.254446
0.254282
0.254091
0.253875
0.253638
0.253398
0.253155
0.252925
0.25272
0.252561
0.252445
0.252384
0.252368
0.252421
0.252504
0.252579
0.252623
0.252655
0.252671
0.252674
0.252666
0.25266
0.252653
0.252643
0.25263
0.252617
0.252607
0.252599
0.252593
0.252592
0.252601
0.252606
0.252618
0.252625
0.252627
0.252619
0.252604
0.25258
0.252555
0.25253
0.252507
0.252484
0.25246
0.252443
0.252427
0.252413
0.252405
0.252399
0.252398
0.252401
0.252408
0.252418
0.252439
0.252471
0.252512
0.252564
0.252627
0.252706
0.252784
0.252849
0.252899
0.252931
0.252946
0.252941
0.252911
0.252856
0.25277
0.252655
0.252513
0.252353
0.252185
0.25203
0.251904
0.251834
0.251828
0.251905
0.251972
0.251934
0.251784
0.251536
0.251212
0.250829
0.25041
0.249989
0.249599
0.24926
0.248991
0.248801
0.248689
0.248645
0.248655
0.248655
0.248626
0.248583
0.248545
0.248518
0.248504
0.248516
0.248556
0.248626
0.248738
0.248957
0.249482
0.250386
0.252436
0.253401
0.25334
0.25298
0.252698
0.252949
0.253063
0.252779
0.252314
0.257157
0.256472
0.255967
0.255615
0.255348
0.255171
0.255044
0.25495
0.254865
0.254788
0.254707
0.254616
0.254524
0.254452
0.254438
0.25448
0.254557
0.254604
0.254615
0.254584
0.254511
0.254392
0.254228
0.254028
0.253802
0.253562
0.253331
0.253104
0.252896
0.252719
0.252594
0.252508
0.252486
0.252521
0.252628
0.252776
0.252924
0.253061
0.2532
0.253338
0.25347
0.253606
0.253739
0.25387
0.25399
0.254101
0.254191
0.254259
0.254302
0.254318
0.254314
0.254268
0.254192
0.254101
0.253998
0.253883
0.253744
0.253603
0.253462
0.253324
0.253194
0.253075
0.252967
0.25287
0.252792
0.252724
0.252665
0.252622
0.252587
0.252565
0.252551
0.252543
0.252543
0.252555
0.252578
0.252612
0.252659
0.252715
0.252795
0.252869
0.252932
0.252979
0.253005
0.253015
0.253005
0.252968
0.25291
0.252831
0.252734
0.252621
0.252496
0.252369
0.252256
0.252169
0.252125
0.252148
0.252247
0.252285
0.252218
0.252032
0.251737
0.251347
0.250895
0.250421
0.249965
0.249552
0.249204
0.24894
0.248759
0.248656
0.248617
0.248627
0.248617
0.248588
0.248562
0.24854
0.248521
0.24851
0.248522
0.248551
0.248609
0.248727
0.248881
0.249407
0.250358
0.252428
0.253314
0.25332
0.253161
0.253041
0.253335
0.253283
0.253066
0.252529
0.261197
0.259442
0.258131
0.257158
0.256445
0.255939
0.255587
0.255347
0.255187
0.255083
0.255012
0.25497
0.254946
0.254912
0.254841
0.254748
0.254675
0.254615
0.254555
0.254508
0.254455
0.254361
0.254221
0.254056
0.25387
0.253665
0.253462
0.253253
0.253059
0.252896
0.252797
0.252758
0.252805
0.252946
0.253193
0.253551
0.253966
0.254447
0.254994
0.25561
0.256279
0.256996
0.257724
0.258435
0.25909
0.259662
0.260119
0.260444
0.260628
0.260683
0.26061
0.260407
0.260052
0.259588
0.259054
0.25848
0.257881
0.257273
0.256681
0.256116
0.255591
0.255114
0.254686
0.254308
0.253984
0.25371
0.253476
0.25329
0.253136
0.253016
0.252926
0.252859
0.252814
0.252791
0.252788
0.252805
0.252841
0.252892
0.252963
0.253026
0.253075
0.253119
0.253143
0.253151
0.253139
0.253099
0.253029
0.252926
0.252793
0.252638
0.252476
0.252319
0.252181
0.252077
0.252028
0.252051
0.252152
0.252206
0.252143
0.251952
0.251651
0.251264
0.250822
0.25036
0.249916
0.249522
0.249192
0.248939
0.248765
0.248668
0.248635
0.248651
0.248651
0.248634
0.248599
0.24856
0.248526
0.248507
0.248506
0.248529
0.248594
0.248708
0.248909
0.249347
0.250406
0.253054
0.254379
0.253916
0.25341
0.253194
0.253474
0.253387
0.252997
0.252476
0.270665
0.266497
0.263313
0.260937
0.259162
0.257873
0.256939
0.256282
0.255819
0.255505
0.255302
0.255194
0.255151
0.255177
0.255277
0.255389
0.255464
0.25549
0.255456
0.255352
0.255209
0.255045
0.254847
0.254611
0.254342
0.254038
0.253749
0.253494
0.253307
0.253195
0.253197
0.253324
0.253619
0.254106
0.254813
0.255779
0.257023
0.258588
0.260458
0.262619
0.265021
0.26761
0.270278
0.272906
0.275354
0.277486
0.279215
0.280512
0.281334
0.281714
0.28162
0.281001
0.279862
0.278349
0.276555
0.274567
0.272466
0.270346
0.268267
0.266281
0.264416
0.262697
0.261136
0.259745
0.258519
0.257456
0.256552
0.255786
0.255146
0.254621
0.254193
0.253854
0.253586
0.253387
0.253246
0.253162
0.253123
0.253123
0.253148
0.253176
0.253204
0.253229
0.253239
0.253238
0.253218
0.253181
0.253125
0.253045
0.252941
0.252814
0.252666
0.252505
0.252346
0.252212
0.25213
0.252122
0.252196
0.252247
0.252185
0.251996
0.251697
0.251312
0.250867
0.250404
0.249958
0.249558
0.249223
0.248966
0.248792
0.248694
0.24866
0.248674
0.248671
0.248643
0.248613
0.248584
0.248562
0.248554
0.248571
0.248618
0.24869
0.24879
0.248901
0.249443
0.250674
0.25458
0.256659
0.255009
0.254094
0.253939
0.254172
0.253857
0.253582
0.253084
0.291557
0.282125
0.274893
0.269442
0.265331
0.262308
0.260105
0.258526
0.257395
0.256599
0.256022
0.255629
0.255362
0.255186
0.255096
0.255079
0.255101
0.255118
0.255107
0.25505
0.25495
0.254807
0.254615
0.254402
0.254189
0.253988
0.25385
0.253766
0.25378
0.253936
0.254298
0.254929
0.255929
0.257412
0.2595
0.262352
0.266095
0.270872
0.276649
0.283336
0.290764
0.298778
0.307122
0.315467
0.323248
0.329827
0.334977
0.338905
0.341468
0.342853
0.342703
0.341123
0.338177
0.334156
0.329286
0.323775
0.317833
0.311693
0.305527
0.299488
0.293714
0.288291
0.283269
0.278686
0.274566
0.270927
0.267763
0.265045
0.262725
0.260771
0.259139
0.257797
0.256695
0.255816
0.255119
0.254583
0.254174
0.253875
0.253677
0.25355
0.253468
0.253413
0.25337
0.25333
0.253284
0.253224
0.253147
0.253056
0.252952
0.252836
0.252714
0.252604
0.252522
0.252478
0.252479
0.252545
0.25261
0.252598
0.252467
0.252215
0.251865
0.251437
0.250962
0.250475
0.250017
0.24961
0.249273
0.249017
0.248846
0.248753
0.248728
0.248755
0.248765
0.248748
0.248719
0.248686
0.248648
0.248607
0.248587
0.248612
0.24867
0.248776
0.249024
0.249915
0.253165
0.263059
0.26815
0.260632
0.255984
0.254426
0.254261
0.253915
0.253453
0.252937
0.336214
0.315649
0.299861
0.287898
0.278869
0.272159
0.267239
0.263688
0.261176
0.259424
0.258183
0.257341
0.256759
0.256339
0.256037
0.255764
0.255531
0.25536
0.255235
0.255155
0.255089
0.255008
0.254905
0.254806
0.254742
0.25472
0.254785
0.254964
0.255336
0.256025
0.257203
0.259108
0.262032
0.2663
0.272242
0.280222
0.290506
0.303386
0.31884
0.336527
0.355971
0.376908
0.399166
0.422051
0.443337
0.460051
0.471842
0.48136
0.488157
0.492713
0.493147
0.490282
0.484195
0.475429
0.46431
0.451468
0.437414
0.42257
0.407353
0.39214
0.377265
0.362968
0.349398
0.336681
0.324917
0.314209
0.304608
0.296083
0.28861
0.282137
0.276607
0.271945
0.268034
0.26481
0.262182
0.260079
0.258424
0.257137
0.256149
0.255405
0.254847
0.254433
0.254121
0.253886
0.253692
0.253531
0.253378
0.253223
0.253059
0.252879
0.252695
0.252508
0.252329
0.252178
0.25209
0.252092
0.25217
0.252236
0.252182
0.252004
0.251724
0.251363
0.250945
0.250503
0.250073
0.249684
0.24936
0.249116
0.248958
0.24888
0.248865
0.248895
0.248927
0.248933
0.248933
0.248938
0.248942
0.248943
0.248965
0.249062
0.249297
0.249628
0.250105
0.252326
0.264173
0.298617
0.312401
0.286834
0.26995
0.261828
0.259127
0.25719
0.256021
0.255296
0.434698
0.389494
0.354619
0.328253
0.308367
0.293583
0.282666
0.274666
0.268923
0.264863
0.262056
0.260189
0.258992
0.258257
0.257807
0.257504
0.257286
0.257089
0.25689
0.256698
0.256529
0.256408
0.256318
0.256286
0.256327
0.256502
0.25691
0.257697
0.259112
0.26149
0.265302
0.27124
0.280096
0.292572
0.309229
0.330564
0.356937
0.389139
0.427431
0.469992
0.515834
0.565015
0.619158
0.677285
0.729376
0.763708
0.779828
0.795171
0.809679
0.821701
0.825041
0.821878
0.812475
0.797225
0.775486
0.74974
0.721513
0.690841
0.658635
0.625598
0.592453
0.559716
0.527754
0.496905
0.467505
0.439923
0.41437
0.390958
0.369763
0.35078
0.33403
0.319411
0.306768
0.295972
0.286894
0.279388
0.273303
0.268438
0.264615
0.261668
0.259437
0.257774
0.256549
0.25565
0.254993
0.254499
0.254118
0.253814
0.253561
0.253344
0.253145
0.252971
0.252834
0.252741
0.252705
0.252744
0.252823
0.252845
0.252763
0.252555
0.252235
0.251821
0.251348
0.250872
0.250423
0.250044
0.249763
0.249597
0.249547
0.249605
0.249747
0.249955
0.250207
0.250492
0.250802
0.251112
0.25138
0.251586
0.251815
0.252256
0.253202
0.255073
0.257969
0.267065
0.315121
0.423952
0.460022
0.38543
0.328354
0.295845
0.283325
0.27582
0.271662
0.268432
0.655002
0.556074
0.478496
0.419492
0.375053
0.342281
0.318252
0.3006
0.287748
0.278335
0.271492
0.266631
0.263271
0.261027
0.259612
0.258786
0.258333
0.258082
0.257931
0.257839
0.257801
0.257811
0.257899
0.258175
0.258754
0.259812
0.261612
0.26454
0.269159
0.276281
0.287126
0.303632
0.327634
0.360065
0.40096
0.450273
0.508679
0.578253
0.659411
0.746792
0.840066
0.941294
1.06337
1.20476
1.32174
1.38284
1.38024
1.39046
1.41477
1.44443
1.46001
1.4653
1.46103
1.44454
1.40875
1.36472
1.31711
1.26311
1.20559
1.14546
1.08374
1.02104
0.957643
0.89421
0.831565
0.770688
0.712374
0.656899
0.60471
0.556051
0.511383
0.470758
0.434151
0.401512
0.372916
0.348222
0.327387
0.310129
0.296103
0.284978
0.276357
0.269843
0.265051
0.261584
0.259122
0.257379
0.256127
0.255218
0.254543
0.254042
0.253661
0.253383
0.25319
0.253084
0.253067
0.253154
0.253233
0.253222
0.253093
0.252841
0.252502
0.252111
0.251724
0.251405
0.251227
0.251246
0.251513
0.252074
0.25295
0.25415
0.255643
0.257381
0.259277
0.26123
0.263175
0.265031
0.266609
0.267773
0.268902
0.271234
0.276689
0.2865
0.300425
0.336643
0.496418
0.731833
0.734779
0.580223
0.48507
0.420699
0.386952
0.365443
0.355379
0.344403
1.11434
0.911329
0.745502
0.615914
0.517179
0.444606
0.392285
0.354746
0.328036
0.308693
0.294494
0.284104
0.276461
0.270872
0.26691
0.264221
0.262465
0.261411
0.260891
0.260774
0.260944
0.261391
0.262202
0.26359
0.265791
0.269183
0.274353
0.282166
0.293826
0.311145
0.337077
0.376665
0.433508
0.507381
0.595189
0.694682
0.807426
0.940546
1.10047
1.27507
1.46896
1.69405
1.99708
2.35133
2.6141
2.72729
2.63319
2.62218
2.65778
2.69561
2.70615
2.69959
2.68648
2.65122
2.56788
2.48006
2.39404
2.29675
2.19279
2.08915
1.98774
1.88809
1.78841
1.68627
1.58042
1.47182
1.36541
1.26202
1.16107
1.06224
0.967101
0.876216
0.790099
0.709147
0.63426
0.565991
0.505271
0.452301
0.407028
0.36934
0.338841
0.31494
0.296809
0.283478
0.273977
0.267393
0.262899
0.259843
0.257733
0.256232
0.255155
0.254376
0.253821
0.253444
0.253234
0.253196
0.253297
0.253423
0.253453
0.253427
0.25341
0.253471
0.253731
0.254345
0.255513
0.257474
0.260495
0.26478
0.270392
0.277184
0.284914
0.293266
0.301993
0.310794
0.319525
0.327955
0.334988
0.340008
0.34496
0.356467
0.383405
0.423993
0.467094
0.559152
0.861025
1.09355
0.970107
0.760954
0.670435
0.628369
0.607769
0.591767
0.58385
0.568897
1.99317
1.62572
1.30311
1.03531
0.821515
0.660073
0.543158
0.460822
0.404424
0.365254
0.337562
0.317928
0.303755
0.293229
0.28541
0.279713
0.27567
0.272969
0.271405
0.270798
0.270998
0.272035
0.274062
0.277406
0.282559
0.290316
0.301874
0.319033
0.344458
0.382201
0.438755
0.524827
0.645883
0.795196
0.959845
1.13421
1.32383
1.55201
1.83351
2.1507
2.61908
3.14232
3.7227
4.38553
5.13604
5.65399
5.93752
6.21489
6.81872
7.35329
7.57899
7.62863
7.56822