/*--------------------------------*- C++ -*----------------------------------*\
| =========                 |                                                 |
| \\      /  F ield         | OpenFOAM: The Open Source CFD Toolbox           |
|  \\    /   O peration     | Version:  v1912                                 |
|   \\  /    A nd           | Website:  www.openfoam.com                      |
|    \\/     M anipulation  |                                                 |
\*---------------------------------------------------------------------------*/
FoamFile
{
    version     2.0;
    format      ascii;
    class       surfaceScalarField;
    location    "60";
    object      alphaPhi0.water;
}
// * * * * * * * * * * * * * * * * * * * * * * * * * * * * * * * * * * * * * //

dimensions      [0 3 -1 0 0 0 0];
oriented        oriented;


internalField   nonuniform List<scalar> 
28285
(
2.70884e-07
-2.72229e-07
5.76467e-07
-2.06035e-07
6.38724e-07
-5.87406e-08
5.47055e-07
9.50676e-08
4.62685e-07
5.11926e-08
5.1512e-07
-4.29313e-08
8.01684e-07
-2.8475e-07
8.2911e-07
-2.92405e-08
5.59672e-07
2.71253e-07
2.14206e-07
2.60691e-08
1.51664e-07
3.02199e-09
1.42588e-07
-4.35273e-09
1.42298e-07
-3.47974e-09
2.07904e-07
-9.25822e-09
3.23146e-07
-1.45258e-08
5.17666e-07
-2.45371e-08
6.21127e-07
-6.38413e-08
6.83679e-07
-2.32922e-08
3.65784e-07
6.35432e-10
1.05203e-07
-2.17036e-09
1.12204e-07
-8.80223e-09
1.33584e-07
-3.14399e-08
1.37724e-07
-1.85422e-08
8.85224e-08
1.32599e-08
3.70009e-08
2.21036e-08
1.81624e-08
9.46258e-09
1.58711e-08
1.12455e-09
1.41268e-08
-7.26157e-11
1.07036e-08
-1.23693e-10
1.03174e-08
7.58598e-10
9.45012e-09
4.94892e-10
8.72163e-09
1.10085e-09
8.07923e-09
1.56517e-09
8.15033e-09
1.50951e-09
1.10813e-08
2.30504e-09
8.43911e-08
6.76735e-09
9.36314e-08
1.727e-08
1.06105e-07
-1.21637e-08
1.24929e-07
-1.91335e-08
8.02762e-08
-1.11543e-08
2.10149e-08
-7.07105e-10
6.56705e-08
9.45398e-10
6.75363e-08
4.83309e-09
6.19095e-08
-9.01719e-10
5.777e-08
-8.99873e-10
5.32032e-08
-9.74228e-11
4.84003e-08
-2.88121e-11
4.69644e-08
-2.78299e-09
5.0864e-08
-2.27982e-09
5.86005e-08
-8.09895e-10
7.33405e-08
-5.54361e-10
9.9365e-08
-5.64981e-10
1.45009e-07
-8.63607e-10
2.25083e-07
-2.96021e-09
2.6004e-07
-1.20376e-08
2.67813e-07
-7.96416e-09
2.70673e-07
-2.66858e-09
8.80624e-08
2.74761e-09
4.72691e-08
2.21227e-09
5.26509e-08
1.13919e-09
5.18684e-08
1.57775e-09
5.1749e-08
9.07918e-10
5.04633e-08
6.41446e-10
5.25284e-08
1.28412e-09
7.79203e-08
3.16997e-09
1.17711e-07
3.91493e-09
1.27341e-07
6.03936e-10
1.30631e-07
-3.67894e-09
1.35911e-07
-4.89047e-09
1.34309e-07
-1.09946e-08
1.26439e-07
-7.48538e-09
1.28556e-07
-3.32307e-09
1.353e-07
-1.76432e-09
1.54407e-07
-1.84673e-09
1.68324e-07
-1.07152e-09
1.68719e-07
5.87893e-10
1.70763e-07
-1.06594e-09
1.76183e-07
-1.44322e-09
1.91767e-07
-1.20735e-09
2.14599e-07
-3.21783e-09
2.17254e-07
-7.15373e-11
2.06422e-07
8.24865e-09
1.8919e-07
2.32866e-09
1.04523e-07
-6.21376e-09
7.65539e-09
-1.27041e-10
0
1.86121e-11
-6.84067e-36
9.50694e-35
-2.09174e-31
-1.10144e-32
-3.10493e-31
-1.18957e-32
-2.50607e-31
-7.40133e-33
-1.48848e-31
-4.0154e-33
-7.40552e-32
-1.94958e-33
-3.3244e-32
-8.71854e-34
-1.4126e-32
-3.7229e-34
-5.85002e-33
-1.55654e-34
-2.39208e-33
-6.44461e-35
-9.66757e-34
-2.6444e-35
-3.84294e-34
-1.06962e-35
-1.49375e-34
-4.23718e-36
-5.65169e-35
-1.63588e-36
-2.07509e-35
-6.13252e-37
-7.37756e-36
-2.22566e-37
-2.53506e-36
-7.7976e-38
-8.40206e-37
-2.63368e-38
-2.67995e-37
-8.55513e-39
-8.20655e-38
-2.6661e-39
-2.40672e-38
-7.95105e-40
-6.744e-39
-2.26406e-40
-1.80184e-39
-6.14487e-41
-4.58157e-40
-1.58645e-41
-1.10694e-40
-3.88913e-42
-2.53785e-41
-9.04348e-43
-5.51485e-42
-1.99312e-43
-1.13474e-42
-4.1593e-44
-2.20891e-43
-8.21409e-45
-4.0647e-44
-1.53395e-45
-7.06542e-45
-2.70631e-46
-1.15939e-45
-4.50561e-47
-1.79492e-46
-7.07384e-48
-2.62044e-47
-1.04606e-48
-3.60603e-48
-1.45655e-49
-4.67571e-49
-1.90925e-50
-5.71044e-50
-2.35695e-51
-6.56674e-51
-2.73918e-52
-7.10782e-52
-2.99694e-53
-7.23922e-53
-3.08523e-54
-6.93541e-54
-2.98763e-55
-6.24815e-55
-2.71999e-56
-5.29184e-56
-2.32708e-57
-4.21242e-57
-1.87034e-58
-3.15085e-58
-1.41158e-59
-2.21414e-59
-1.00075e-60
-1.46143e-60
-6.66117e-62
-9.05858e-62
-4.16447e-63
-5.27194e-63
-2.44348e-64
-2.88022e-64
-1.34614e-65
-1.4769e-65
-6.9574e-67
-7.10674e-67
-3.37471e-68
-3.2086e-68
-1.53527e-69
-1.35897e-69
-6.5524e-71
-5.39876e-71
-2.62229e-72
-2.01138e-72
-9.84125e-74
-7.02679e-74
-3.46257e-75
-2.3015e-75
-1.14207e-76
-7.06648e-77
-3.53078e-78
-2.03358e-78
-1.02327e-79
-5.48432e-80
-2.77963e-81
-1.3859e-81
-7.067e-83
-3.27899e-83
-1.70653e-84
-3.67375e-86
-7.2756e-85
7.4391e-08
-1.19684e-07
1.62996e-07
-5.43362e-08
2.13222e-07
-1.66002e-08
2.4952e-07
1.20398e-08
2.17304e-07
6.78143e-09
1.58031e-07
-3.59341e-09
5.60585e-07
-1.42449e-07
1.09204e-06
-2.82978e-07
1.06096e-06
2.12195e-08
4.13585e-07
-1.80156e-09
5.63327e-08
1.14877e-11
1.96557e-08
-7.49567e-14
1.14932e-08
-2.3506e-14
1.31846e-08
-4.09425e-09
2.00334e-08
-5.55144e-09
5.59805e-08
-7.75153e-09
2.23536e-07
-1.92488e-08
4.68228e-07
-3.31498e-08
4.15659e-07
6.20399e-10
2.17474e-07
-2.70292e-08
1.93403e-07
-8.24543e-09
2.62788e-07
-7.9982e-08
2.83767e-07
-6.03643e-08
1.85318e-07
5.37559e-08
5.36245e-08
7.86555e-08
3.6926e-08
3.36339e-08
5.62265e-08
8.93649e-09
6.53262e-08
-9.66212e-09
4.86471e-08
-2.41436e-09
1.99912e-08
6.04591e-09
1.0065e-08
1.72969e-09
9.37836e-09
2.18665e-09
1.53316e-08
5.64726e-09
1.82292e-08
6.31998e-09
1.33293e-08
9.96267e-09
6.60634e-08
-4.07606e-09
1.19747e-07
9.27989e-09
1.56478e-07
-2.23856e-08
1.76851e-07
-2.75312e-08
1.78163e-07
-1.50776e-08
1.44466e-07
3.01331e-09
1.1125e-07
2.86269e-09
8.26871e-08
-4.58895e-10
5.83766e-08
-4.19416e-09
4.73955e-08
-1.00093e-09
4.52645e-08
6.815e-11
4.05943e-08
9.12412e-11
2.35082e-08
8.45769e-14
7.31431e-09
7.70368e-15
2.60254e-09
-5.49025e-10
2.63929e-09
-5.91377e-10
3.18156e-09
-7.13522e-10
5.43399e-09
-7.25337e-10
1.68725e-08
-1.48995e-09
8.41999e-08
-6.08977e-09
2.47717e-07
-1.67039e-08
2.80865e-07
-2.70031e-09
1.40404e-07
3.10533e-10
3.01242e-08
7.97101e-09
1.42594e-08
7.81445e-10
1.39266e-08
1.22964e-13
1.37416e-08
3.02659e-10
1.36416e-08
1.59141e-10
1.58987e-08
7.79634e-10
2.74324e-08
8.12534e-10
5.10536e-08
7.08641e-11
8.31002e-08
-4.56902e-10
9.81125e-08
-3.77066e-09
9.9817e-08
-3.82303e-09
8.21583e-08
-6.03177e-09
5.86994e-08
-3.6951e-09
3.83118e-08
-1.59537e-09
3.30496e-08
-8.59565e-10
3.4019e-08
-1.10665e-09
4.08838e-08
-8.11302e-10
4.29444e-08
-9.3464e-15
4.03539e-08
-7.29189e-11
3.60312e-08
-1.53123e-10
3.38796e-08
-1.77574e-10
3.68062e-08
-1.38797e-09
6.96302e-08
-7.57706e-10
1.17934e-07
1.0889e-09
1.2317e-07
9.04887e-10
1.06297e-07
8.58558e-11
3.24353e-08
3.49007e-09
4.02672e-21
1.22825e-09
1.10144e-32
9.96793e-23
6.54906e-41
6.01698e-42
-4.11094e-32
-2.86694e-33
-5.53202e-32
-3.17332e-33
-4.67297e-32
-2.50314e-33
-3.20472e-32
-1.6851e-33
-1.94742e-32
-1.0215e-33
-1.08596e-32
-5.7262e-34
-5.63895e-33
-3.00219e-34
-2.74507e-33
-1.4799e-34
-1.25826e-33
-6.88738e-35
-5.45205e-34
-3.03677e-35
-2.24185e-34
-1.27264e-35
-8.7797e-35
-5.08585e-36
-3.28459e-35
-1.9427e-36
-1.17636e-35
-7.10259e-37
-4.038e-36
-2.48588e-37
-1.32883e-36
-8.33663e-38
-4.19002e-37
-2.67711e-38
-1.26458e-37
-8.22273e-39
-3.64799e-38
-2.41218e-39
-1.00432e-38
-6.74848e-40
-2.63476e-39
-1.79846e-40
-6.57686e-40
-4.55825e-41
-1.56003e-40
-1.09705e-41
-3.51208e-41
-2.50499e-42
-7.49628e-42
-5.42272e-43
-1.51551e-42
-1.11188e-43
-2.8995e-43
-2.15813e-44
-5.2455e-44
-3.96233e-45
-8.96662e-45
-6.87445e-46
-1.4473e-45
-1.12582e-46
-2.20454e-46
-1.73898e-47
-3.16726e-47
-2.53073e-48
-4.29004e-48
-3.46834e-49
-5.47631e-49
-4.47599e-50
-6.5857e-50
-5.44064e-51
-7.45859e-51
-6.22747e-52
-7.95248e-52
-6.7114e-53
-7.97997e-53
-6.80736e-54
-7.53379e-54
-6.49594e-55
-6.68984e-55
-5.82917e-56
-5.58581e-56
-4.91667e-57
-4.38453e-57
-3.89655e-58
-3.23468e-58
-2.90065e-59
-2.24244e-59
-2.02863e-60
-1.46053e-60
-1.33253e-61
-8.93539e-62
-8.22191e-63
-5.13397e-63
-4.76307e-64
-2.76979e-64
-2.59101e-65
-1.40288e-65
-1.32285e-66
-6.66956e-67
-6.33908e-68
-2.97585e-68
-2.85016e-69
-1.24591e-69
-1.20239e-70
-4.89396e-71
-4.75808e-72
-1.80328e-72
-1.76601e-73
-6.23211e-74
-6.14688e-75
-2.0198e-75
-2.00619e-76
-6.13801e-77
-6.13857e-78
-1.74872e-78
-1.76134e-79
-4.67002e-80
-4.73743e-81
-1.16887e-81
-1.1932e-82
-2.73981e-83
-2.85358e-84
-6.08985e-86
-6.02397e-85
2.43862e-08
-6.84886e-12
2.33556e-08
-5.7609e-08
2.55853e-08
-1.91689e-08
2.1732e-08
1.6232e-08
1.93404e-08
5.85529e-09
2.26828e-08
-5.99812e-09
1.63082e-07
-1.84741e-07
9.14957e-07
-3.31294e-07
1.00256e-06
2.37476e-08
3.96242e-07
2.47389e-08
5.57019e-09
6.18022e-08
3.95004e-09
4.26382e-11
3.52061e-09
4.87077e-14
4.71769e-09
-3.94852e-09
6.46318e-09
-7.18108e-09
9.76035e-09
-6.37514e-09
4.17038e-08
-1.07295e-08
2.51762e-07
-1.9517e-08
3.61382e-07
1.67469e-09
3.89465e-07
-3.87379e-08
1.08401e-07
-2.74761e-08
1.79804e-07
-1.04899e-07
2.86326e-07
-4.77872e-08
2.34864e-07
7.48392e-08
1.26052e-07
1.71485e-07
1.04571e-07
1.63464e-07
2.02849e-07
1.90082e-08
2.09739e-07
-7.99756e-10
1.35297e-07
-9.41382e-09
2.64961e-08
3.67092e-09
3.29626e-08
1.26631e-09
5.77711e-08
2.81999e-09
6.2553e-08
5.57168e-09
6.03455e-08
1.31659e-08
5.32995e-08
8.64266e-09
5.78959e-08
1.48725e-08
7.11712e-08
5.85252e-09
6.42487e-08
-1.32486e-08
6.11342e-08
-9.60678e-09
7.88176e-08
-5.37845e-09
9.54576e-08
-9.39196e-10
9.5307e-08
1.70492e-09
6.47066e-08
2.76758e-10
3.01957e-08
-1.0042e-09
1.71216e-08
-1.33535e-10
1.6686e-08
-1.81571e-16
2.44373e-08
3.34342e-10
2.29374e-08
1.26269e-09
6.11215e-09
-2.11786e-10
1.50769e-09
-5.03619e-10
1.67137e-09
-1.03314e-09
1.89415e-09
-1.58096e-09
2.06945e-09
-1.5455e-09
4.71567e-09
-6.6204e-10
2.3714e-08
-3.26198e-09
1.10913e-07
-1.0844e-08
2.16837e-07
-2.39896e-09
1.802e-07
4.67129e-09
9.99136e-08
1.49536e-09
1.23201e-08
4.29095e-09
7.03494e-09
5.51135e-10
6.78815e-09
2.27977e-10
7.03124e-09
5.07797e-10
6.51455e-09
7.85914e-10
6.61834e-09
1.50662e-09
1.22149e-08
4.56274e-14
2.44492e-08
-9.64413e-10
3.40765e-08
-3.67006e-09
3.5375e-08
-3.46257e-09
3.16113e-08
-3.28665e-09
2.35917e-08
-1.74716e-09
1.40749e-08
-5.3815e-10
9.08032e-09
-3.83401e-10
9.1918e-09
-4.64203e-10
1.12345e-08
-2.26556e-10
1.21081e-08
2.05475e-10
1.18585e-08
-2.69808e-11
1.04227e-08
-1.14302e-10
9.26186e-09
-1.5234e-10
9.61788e-09
-7.22837e-10
1.7872e-08
-6.41993e-10
4.85972e-08
1.72247e-13
8.50626e-08
6.45532e-10
8.46117e-08
3.65039e-10
3.5129e-08
1.51118e-10
8.27181e-24
3.06209e-09
6.02441e-37
3.05227e-24
1.0718e-42
6.02275e-37
-5.25615e-33
-5.2089e-34
-8.262e-33
-6.97589e-34
-8.43947e-33
-6.74601e-34
-7.04609e-33
-5.55164e-34
-5.1159e-33
-4.02556e-34
-3.3081e-33
-2.61749e-34
-1.93199e-33
-1.54361e-34
-1.03051e-33
-8.33751e-35
-5.07034e-34
-4.16518e-35
-2.32195e-34
-1.94101e-35
-9.97556e-35
-8.49902e-36
-4.04765e-35
-3.51904e-36
-1.55944e-35
-1.38431e-36
-5.72685e-36
-5.18963e-37
-2.00952e-36
-1.85673e-37
-6.74497e-37
-6.35103e-38
-2.16566e-37
-2.07673e-38
-6.64667e-38
-6.48652e-39
-1.94757e-38
-1.93279e-39
-5.44052e-39
-5.48664e-40
-1.44678e-39
-1.48215e-40
-3.6573e-40
-3.80424e-41
-8.77713e-41
-9.26346e-42
-1.99745e-41
-2.13817e-42
-4.30608e-42
-4.67491e-43
-8.78565e-43
-9.67371e-44
-1.69509e-43
-1.89348e-44
-3.09034e-44
-3.50336e-45
-5.32008e-45
-6.12118e-46
-8.64281e-46
-1.00896e-46
-1.32426e-46
-1.56766e-47
-1.9128e-47
-2.2937e-48
-2.60355e-48
-3.15878e-49
-3.33822e-49
-4.09461e-50
-4.03063e-50
-4.997e-51
-4.58155e-51
-5.74063e-52
-4.90116e-52
-6.20719e-53
-4.93298e-53
-6.315e-54
-4.67e-54
-6.04266e-55
-4.15729e-55
-5.43603e-56
-3.47919e-56
-4.59561e-57
-2.7367e-57
-3.64971e-58
-2.02289e-58
-2.72217e-59
-1.40486e-59
-1.90714e-60
-9.16502e-61
-1.2548e-61
-5.6156e-62
-7.75389e-63
-3.2311e-63
-4.49841e-64
-1.74549e-64
-2.45021e-65
-8.85186e-66
-1.25255e-66
-4.2133e-67
-6.00913e-68
-1.88201e-68
-2.70489e-69
-7.88792e-70
-1.1423e-70
-3.10159e-71
-4.525e-72
-1.14398e-72
-1.68116e-73
-3.95741e-74
-5.85719e-75
-1.28379e-75
-1.91344e-76
-3.90494e-77
-5.86015e-78
-1.11353e-78
-1.683e-79
-2.97639e-80
-4.53068e-81
-7.45628e-82
-1.1422e-82
-1.7493e-83
-2.73379e-84
-5.83973e-86
-3.84946e-85
3.07487e-08
-2.60623e-07
1.20658e-07
-2.60486e-07
8.36948e-08
-8.77119e-08
3.42065e-08
5.26971e-08
1.75669e-08
1.92249e-08
1.65384e-08
-6.35181e-09
1.34879e-07
-2.75323e-07
4.48633e-07
-2.64175e-07
7.16411e-07
-6.67573e-08
5.64874e-07
4.16352e-08
3.29846e-08
1.72456e-07
2.42864e-09
8.81864e-09
3.85212e-09
4.87793e-10
4.51273e-09
-4.62147e-09
6.37701e-09
-7.05454e-09
8.00425e-09
-7.99122e-09
1.3408e-08
-7.20441e-09
1.01291e-07
-7.5763e-09
3.40964e-07
2.63632e-09
3.9057e-07
-7.46288e-08
3.1953e-07
-2.17727e-07
1.15018e-07
-4.5243e-11
1.2728e-07
-5.18709e-08
3.42923e-07
3.51791e-08
3.03062e-07
3.84615e-07
2.96299e-07
2.46314e-07
3.20484e-07
3.80002e-08
2.00731e-07
-4.2085e-08
8.24832e-08
-3.78873e-09
2.78199e-08
1.0245e-09
2.70387e-08
7.59138e-10
4.58408e-08
1.86446e-09
5.20442e-08
5.30854e-09
4.29455e-08
5.52203e-09
3.68386e-08
5.78899e-09
3.78957e-08
1.00273e-08
3.61652e-08
2.92063e-09
2.14688e-08
-4.56923e-09
1.12723e-08
-1.60383e-09
1.22709e-08
-8.20899e-10
1.90113e-08
-4.83251e-10
2.19096e-08
-2.88423e-15
1.89455e-08
-2.65199e-15
1.11678e-08
4.30933e-13
6.41072e-09
1.67578e-11
6.24314e-09
1.15756e-11
1.29207e-08
1.94682e-10
1.53551e-08
1.34443e-09
1.29394e-08
5.15008e-09
5.02996e-09
-7.36376e-10
5.78577e-09
-1.7827e-09
7.72544e-09
-5.27069e-09
9.3547e-09
-2.33039e-09
9.18056e-09
-2.47731e-09
1.01625e-08
-6.28716e-09
4.44849e-08
-7.92519e-09
1.15222e-07
-1.20586e-09
1.3854e-07
4.76275e-09
1.3166e-07
5.80638e-09
6.02056e-08
1.65046e-09
7.0803e-09
1.96214e-09
7.16032e-09
5.88843e-10
6.4711e-09
6.40022e-10
6.51867e-09
1.57888e-09
5.77547e-09
1.58685e-09
7.19602e-09
1.09133e-09
1.21546e-08
-1.0424e-09
1.69073e-08
-2.86676e-09
2.09875e-08
-3.17232e-09
2.08941e-08
-4.43077e-09
1.27804e-08
-9.70022e-14
5.28253e-09
-1.32221e-11
4.31967e-09
-3.59798e-11
4.54226e-09
-7.87446e-10
4.76973e-09
-3.53373e-10
4.73427e-09
1.40283e-10
4.80911e-09
-1.17237e-12
4.65244e-09
-2.01588e-15
4.74834e-09
-5.6808e-11
4.86397e-09
-8.78991e-10
7.6798e-09
-2.30888e-14
2.48338e-08
1.17502e-09
5.68626e-08
9.37916e-10
6.66171e-08
1.28216e-09
3.21885e-08
1.43878e-09
3.61878e-09
6.08303e-09
0
1.53276e-10
4.80469e-33
-2.12822e-32
-5.5051e-31
-7.03092e-32
-2.08408e-31
-2.31846e-32
-6.81649e-32
-7.24096e-33
-2.69775e-32
-2.83234e-33
-1.12398e-32
-1.17942e-33
-4.48985e-33
-4.73847e-34
-1.74757e-33
-1.86247e-34
-6.89634e-34
-7.4427e-35
-2.80297e-34
-3.07146e-35
-1.15707e-34
-1.29022e-35
-4.73471e-35
-5.38093e-36
-1.88507e-35
-2.18616e-36
-7.23031e-36
-8.56156e-37
-2.6609e-36
-3.21644e-37
-9.38363e-37
-1.15651e-37
-3.16935e-37
-3.98063e-38
-1.02464e-37
-1.31061e-38
-3.16784e-38
-4.1236e-39
-9.35395e-39
-1.23819e-39
-2.63413e-39
-3.54322e-40
-7.0637e-40
-9.65195e-41
-1.80111e-40
-2.49882e-41
-4.36082e-41
-6.13863e-42
-1.00133e-41
-1.42963e-42
-2.17819e-42
-3.15399e-43
-4.48426e-43
-6.58539e-44
-8.72936e-44
-1.30052e-44
-1.60555e-44
-2.42754e-45
-2.78802e-45
-4.27833e-46
-4.5679e-46
-7.11203e-47
-7.05719e-47
-1.1142e-47
-1.02761e-47
-1.64342e-48
-1.40971e-48
-2.28102e-49
-1.82131e-49
-2.97941e-50
-2.21542e-50
-3.66298e-51
-2.53642e-51
-4.23848e-52
-2.73243e-52
-4.61512e-53
-2.769e-53
-4.72743e-54
-2.63889e-54
-4.55373e-55
-2.36449e-55
-4.12328e-56
-1.99143e-56
-3.50802e-57
-1.57621e-57
-2.80333e-58
-1.17221e-58
-2.10367e-59
-8.18954e-60
-1.48263e-60
-5.37411e-61
-9.81241e-62
-3.31186e-62
-6.0984e-63
-1.91641e-63
-3.55814e-64
-1.04107e-64
-1.94887e-65
-5.30869e-66
-1.00178e-66
-2.54057e-67
-4.83211e-68
-1.14092e-68
-2.18677e-69
-4.80718e-70
-9.28378e-71
-1.90011e-71
-3.69683e-72
-7.0445e-73
-1.38056e-73
-2.44937e-74
-4.83445e-75
-7.98585e-76
-1.5873e-76
-2.44118e-77
-4.88549e-78
-6.99552e-79
-1.41e-79
-1.87896e-80
-3.81419e-81
-4.7297e-82
-9.66231e-83
-1.11491e-83
-2.32347e-84
-4.98666e-86
-2.46493e-85
1.55382e-07
-8.68228e-07
3.10386e-07
-3.68349e-07
2.8614e-07
-1.09712e-07
1.7008e-07
1.86149e-07
8.42923e-08
1.51484e-07
1.09695e-07
-1.55906e-08
1.06761e-07
-1.77387e-07
1.68916e-07
-1.0972e-07
3.98042e-07
-8.60634e-08
3.70927e-07
2.64135e-08
1.02094e-07
8.69147e-08
4.92631e-09
2.92216e-08
2.87394e-09
2.53144e-09
4.45134e-09
-4.19178e-09
6.1074e-09
-8.71852e-09
8.19006e-09
-8.07833e-09
9.72898e-09
-8.95231e-09
2.82916e-08
-5.76351e-09
1.43493e-07
1.32307e-10
2.31732e-07
-2.59149e-08
1.956e-07
-2.38608e-07
1.44426e-07
-4.48053e-08
1.2565e-07
-4.1273e-08
2.20497e-07
4.50354e-08
4.03845e-07
2.14768e-07
3.65672e-07
2.70986e-07
2.65419e-07
1.08916e-08
1.13417e-07
-2.77466e-08
1.78289e-08
-3.49218e-09
1.43504e-08
4.26571e-09
1.41375e-08
7.21438e-10
1.96323e-08
3.06638e-11
2.00901e-08
2.57513e-10
1.39208e-08
8.76735e-14
1.24945e-08
1.91504e-10
1.46665e-08
3.08295e-09
1.21727e-08
1.28673e-09
4.83816e-09
-5.18768e-10
2.09968e-09
-2.99815e-13
2.00477e-09
-3.81054e-10
2.23644e-09
-3.71539e-10
3.59615e-09
1.17138e-11
3.86077e-09
1.92375e-15
3.40732e-09
2.31379e-15
2.49144e-09
8.10494e-12
2.46124e-09
1.71781e-11
6.1214e-09
1.10329e-10
1.08389e-08
1.23825e-09
8.87243e-09
1.24599e-09
2.60785e-09
-2.90467e-10
2.71767e-09
-3.47729e-10
1.13491e-08
-5.48287e-10
1.53159e-08
-4.31704e-09
1.71166e-08
-2.30578e-09
1.39574e-08
-4.46901e-09
1.99267e-08
-6.93586e-13
4.52714e-08
-1.47722e-10
5.32464e-08
1.12966e-09
4.93444e-08
7.80316e-10
3.96513e-08
6.68276e-10
3.88529e-08
7.20847e-10
3.08143e-08
8.26742e-10
2.81991e-08
8.67687e-10
2.20454e-08
7.70502e-09
1.56632e-08
1.06065e-08
2.55591e-09
6.78064e-10
7.82668e-09
-7.39401e-10
8.56095e-09
-1.07249e-09
1.67284e-08
-1.53541e-09
2.08757e-08
-4.27888e-09
2.08424e-08
-1.0559e-09
1.72443e-08
-6.05372e-10
1.40885e-08
-1.4268e-09
9.30255e-09
-2.78653e-09
4.8036e-09
-6.72456e-10
4.75016e-09
3.7671e-10
5.62355e-09
-8.61233e-12
8.46765e-09
-8.27552e-11
1.16048e-08
-3.84944e-10
1.21012e-08
-2.95114e-09
1.1722e-08
-1.15865e-09
1.15292e-08
1.03047e-09
3.09906e-08
4.55119e-13
4.53719e-08
1.12872e-09
4.24878e-08
1.86809e-09
1.78542e-08
2.25078e-09
0
2.46996e-09
-1.3653e-31
0
-1.34729e-30
-2.28667e-31
-9.28046e-31
-1.28012e-31
-3.30621e-31
-4.38074e-32
-8.44018e-32
-1.1073e-32
-1.96549e-32
-2.57859e-33
-5.33282e-33
-7.03762e-34
-1.83956e-33
-2.45154e-34
-7.27678e-34
-9.82016e-35
-2.98278e-34
-4.08706e-35
-1.21033e-34
-1.6876e-35
-4.769e-35
-6.77718e-36
-1.8081e-35
-2.622e-36
-6.56963e-36
-9.72718e-37
-2.28512e-36
-3.45382e-37
-7.61204e-37
-1.17305e-37
-2.4305e-37
-3.81686e-38
-7.44421e-38
-1.19054e-38
-2.1879e-38
-3.5609e-39
-6.16971e-39
-1.0211e-39
-1.66824e-39
-2.8056e-40
-4.32065e-40
-7.38131e-41
-1.07039e-40
-1.85667e-41
-2.53251e-41
-4.45705e-42
-5.71288e-42
-1.01974e-42
-1.22667e-42
-2.22064e-43
-2.50304e-43
-4.5956e-44
-4.84646e-44
-9.02694e-45
-8.89188e-45
-1.6808e-45
-1.54393e-45
-2.96197e-46
-2.5342e-46
-4.93279e-47
-3.92837e-47
-7.75379e-48
-5.74627e-48
-1.14888e-48
-7.9262e-49
-1.60335e-49
-1.03041e-49
-2.10726e-50
-1.26185e-50
-2.60822e-51
-1.45503e-51
-3.03963e-52
-1.57918e-52
-3.33443e-53
-1.6126e-53
-3.44182e-54
-1.54886e-54
-3.34129e-55
-1.39879e-55
-3.04939e-56
-1.18748e-56
-2.61503e-57
-9.4738e-58
-2.10637e-58
-7.1016e-59
-1.59324e-59
-5.00077e-60
-1.13177e-60
-3.3074e-61
-7.54931e-62
-2.05412e-62
-4.72842e-63
-1.19779e-63
-2.78012e-64
-6.55649e-65
-1.53434e-65
-3.36848e-66
-7.94634e-67
-1.62401e-67
-3.86138e-68
-7.3465e-69
-1.76025e-69
-3.11767e-70
-7.52681e-71
-1.24103e-71
-3.01844e-72
-4.63307e-73
-1.13507e-73
-1.62193e-74
-4.00196e-75
-5.32362e-76
-1.32279e-76
-1.63809e-77
-4.09819e-78
-4.7245e-79
-1.19043e-79
-1.27702e-80
-3.2406e-81
-3.23444e-82
-8.26043e-83
-7.67071e-84
-1.99834e-84
-4.31442e-86
-1.70599e-85
1.62518e-07
-9.8356e-07
3.74321e-07
-5.85213e-07
4.41437e-07
-1.3928e-07
3.98903e-07
2.28625e-07
2.90307e-07
2.60138e-07
1.36711e-07
-1.70917e-08
2.73281e-08
-3.6457e-08
4.36644e-08
-3.47767e-08
1.53345e-07
-3.63315e-08
1.71151e-07
1.1771e-08
6.50713e-08
2.42872e-08
2.39451e-09
1.78797e-08
3.28481e-09
3.66803e-09
4.23656e-09
-5.15459e-09
6.04619e-09
-8.52107e-09
8.129e-09
-1.01691e-08
9.51951e-09
-8.14266e-09
1.49702e-08
-4.11226e-09
4.38696e-08
4.69889e-14
9.52757e-08
-1.8801e-08
2.44875e-07
-2.96604e-08
3.58456e-07
-3.43326e-07
2.21021e-07
-1.02336e-07
1.39964e-07
4.55115e-08
3.419e-07
6.9363e-08
3.13143e-07
1.3652e-07
1.39927e-07
8.30494e-09
5.5252e-08
-2.52025e-08
2.03115e-08
-8.95951e-14
1.13794e-08
7.17288e-09
9.50131e-09
3.4001e-09
1.0346e-08
1.94066e-11
7.66057e-09
-4.43895e-10
4.31929e-09
6.43029e-09
2.9905e-09
4.89296e-09
1.61653e-09
3.87859e-09
1.25746e-09
1.09214e-09
9.45917e-10
-7.57646e-10
2.34323e-09
-3.60866e-09
2.36477e-09
-4.56134e-09
7.39972e-10
-9.21765e-10
7.47415e-10
6.2975e-12
7.49307e-10
8.34877e-14
7.62331e-10
4.34789e-11
7.93414e-10
3.81769e-11
9.93715e-10
2.67679e-14
2.95917e-09
5.8788e-11
5.40353e-09
8.71582e-10
4.46805e-09
5.64837e-10
1.17358e-09
-7.67719e-11
5.0284e-10
-3.61397e-10
5.50529e-10
-2.2371e-10
6.41957e-09
-4.80874e-10
2.4331e-08
-1.20636e-08
2.6539e-08
-8.39788e-09
1.41535e-08
-2.85477e-09
1.31772e-08
-1.5807e-11
1.33794e-08
7.00068e-11
1.28478e-08
-1.59423e-11
1.22114e-08
-2.20337e-11
1.34679e-08
1.09839e-14
1.98658e-08
2.03558e-14
2.55927e-08
4.44628e-10
2.99577e-08
3.98952e-09
2.39815e-08
3.35992e-09
7.58938e-09
5.92902e-10
2.64658e-09
-5.40179e-10
2.78913e-09
-6.49317e-10
6.47596e-09
-1.24178e-09
4.18876e-08
-2.73951e-09
4.8684e-08
-3.94887e-09
4.8385e-08
-4.47603e-10
4.89458e-08
-3.52205e-09
4.40284e-08
-1.05083e-08
2.34304e-08
-2.96601e-09
1.84343e-08
2.06559e-09
2.0584e-08
1.04531e-10
2.93776e-08
-4.73582e-11
3.8465e-08
-4.37642e-10
3.99433e-08
-8.07411e-09
2.63646e-08
-2.81071e-09
1.38627e-08
4.04983e-09
1.69521e-08
4.72274e-10
2.27155e-08
7.59211e-10
2.24387e-08
1.13211e-09
1.4929e-08
1.31623e-09
3.08979e-09
1.07943e-09
2.09432e-22
1.54164e-10
1.28012e-31
6.95784e-25
1.41797e-42
2.33309e-43
-7.8329e-32
-1.24348e-32
-3.24484e-32
-5.1074e-33
-9.48087e-33
-1.49289e-33
-3.42061e-33
-5.41857e-34
-1.57152e-33
-2.51395e-34
-7.54563e-34
-1.2223e-34
-3.47074e-34
-5.7083e-35
-1.50089e-34
-2.51192e-35
-6.08861e-35
-1.03855e-35
-2.31992e-35
-4.03796e-36
-8.32084e-36
-1.47873e-36
-2.81655e-36
-5.10948e-37
-9.02203e-37
-1.66871e-37
-2.7423e-37
-5.1687e-38
-7.93098e-38
-1.5223e-38
-2.18814e-38
-4.27415e-39
-5.77324e-39
-1.14673e-39
-1.45975e-39
-2.94633e-40
-3.54292e-40
-7.26399e-41
-8.26215e-41
-1.71993e-41
-1.85175e-41
-3.91112e-42
-3.98667e-42
-8.54014e-43
-8.23499e-43
-1.78909e-43
-1.62928e-43
-3.58993e-44
-3.08121e-44
-6.88733e-45
-5.55752e-45
-1.26072e-45
-9.53946e-46
-2.19629e-46
-1.55509e-46
-3.6326e-47
-2.40308e-47
-5.69218e-48
-3.51458e-48
-8.43274e-49
-4.85834e-49
-1.17939e-49
-6.34067e-50
-1.55614e-50
-7.80574e-51
-1.93622e-51
-9.05711e-52
-2.27061e-52
-9.89846e-53
-2.5082e-53
-1.01836e-53
-2.60835e-54
-9.85756e-55
-2.55196e-55
-8.97396e-56
-2.34772e-56
-7.6803e-57
-2.0297e-57
-6.17753e-58
-1.64826e-58
-4.66848e-59
-1.25691e-59
-3.31402e-60
-9.00074e-61
-2.20933e-61
-6.0518e-62
-1.38293e-62
-3.82026e-63
-8.12633e-64
-2.2635e-64
-4.48183e-65
-1.25865e-65
-2.31959e-66
-6.56671e-67
-1.12638e-67
-3.21394e-68
-5.13111e-69
-1.4754e-69
-2.19238e-70
-6.35181e-71
-8.78498e-72
-2.56414e-72
-3.30076e-73
-9.7044e-74
-1.16274e-74
-3.44291e-75
-3.83955e-76
-1.1449e-76
-1.18837e-77
-3.56786e-78
-3.44689e-79
-1.04227e-79
-9.36798e-81
-2.85284e-81
-2.38532e-82
-7.3108e-83
-5.68598e-84
-1.77761e-84
-3.85687e-86
-1.27085e-85
1.28761e-07
-4.39071e-07
4.99801e-08
-1.04297e-07
5.66398e-08
-4.06657e-08
2.22221e-07
3.39931e-08
2.02579e-07
1.01538e-07
3.63307e-08
-2.72426e-09
9.46673e-09
-7.20453e-09
1.67984e-08
-4.44968e-08
4.28472e-08
-2.31995e-08
6.04281e-08
3.0504e-09
2.77688e-08
-6.39653e-13
6.15786e-09
2.44383e-08
5.32032e-09
6.32045e-09
6.31686e-09
-7.46056e-09
6.94889e-09
-1.40256e-08
8.0038e-09
-8.9821e-09
9.36933e-09
-9.74133e-09
1.05365e-08
-3.03517e-09
2.26713e-08
2.12528e-11
4.56549e-08
-5.15161e-09
4.59811e-07
-2.14288e-07
7.12213e-07
-7.6433e-07
4.17419e-07
-4.25881e-07
1.16574e-07
1.26003e-07
1.38732e-07
2.55481e-08
1.04519e-07
3.27445e-08
7.70839e-08
1.51252e-12
6.92832e-08
-5.61229e-09
6.43604e-08
-1.95301e-09
3.03345e-08
2.759e-08
8.79024e-09
1.10651e-08
8.47231e-09
6.06523e-09
6.98949e-09
1.01909e-08
1.63589e-08
2.7482e-08
9.07055e-09
2.50268e-08
2.73161e-09
1.04266e-08
2.37723e-09
3.85216e-09
9.11691e-09
-2.3376e-09
1.78313e-08
-1.47682e-08
2.03292e-08
-1.95117e-08
9.58203e-09
-7.53005e-09
3.87097e-10
-3.62785e-11
2.93781e-10
5.91455e-11
2.97982e-10
3.93003e-11
2.95468e-10
4.06686e-11
5.08836e-10
-2.62199e-12
1.38865e-09
2.36605e-11
2.28116e-09
4.58042e-10
1.88661e-09
2.19061e-10
7.1905e-10
-1.02321e-11
2.62202e-10
-4.55673e-10
2.38616e-10
-2.29521e-10
5.19986e-10
-1.3334e-10
1.23982e-08
-1.18484e-09
3.18885e-08
-2.88412e-08
3.38546e-08
-5.91522e-09
1.23709e-08
3.97043e-10
1.08869e-08
5.3547e-09
1.04967e-08
4.17573e-09
1.16436e-08
6.05109e-10
1.11078e-08
8.06374e-11
1.13961e-08
6.51486e-11
1.40757e-08
2.31834e-10
1.57096e-08
6.84784e-10
1.23016e-08
4.04712e-10
4.37611e-09
7.16225e-13
2.3788e-09
-4.61549e-13
2.37871e-09
-6.59265e-10
3.7497e-09
-6.21438e-10
1.59013e-08
-1.18994e-09
5.42389e-08
-1.3304e-09
7.30717e-08
-1.7336e-09
7.30172e-08
-4.73893e-09
7.41823e-08
-1.0402e-08
6.43239e-08
-1.37498e-09
5.00182e-08
2.71231e-09
4.95968e-08
1.5093e-10
4.99391e-08
-2.36595e-11
5.15912e-08
-2.30957e-09
5.61642e-08
-1.24272e-08
5.41184e-08
-1.57566e-08
2.25671e-08
8.21097e-09
9.00882e-09
4.65368e-09
8.65399e-09
3.55257e-10
8.05372e-09
4.60071e-10
5.79277e-09
4.38857e-10
1.88981e-09
2.77592e-10
5.16988e-26
7.89755e-11
8.00691e-38
1.25284e-26
1.3157e-45
8.00709e-38
-3.56405e-32
-6.59172e-33
-2.316e-32
-4.25219e-33
-1.00057e-32
-1.83842e-33
-3.98998e-33
-7.37566e-34
-1.67407e-33
-3.12505e-34
-7.46199e-34
-1.4105e-34
-3.35212e-34
-6.43326e-35
-1.44993e-34
-2.83155e-35
-5.91261e-35
-1.1768e-35
-2.25945e-35
-4.58883e-36
-8.09202e-36
-1.67797e-36
-2.72176e-36
-5.76113e-37
-8.62021e-37
-1.86031e-37
-2.57776e-37
-5.66884e-38
-7.29833e-38
-1.63447e-38
-1.96197e-38
-4.47138e-39
-5.02236e-39
-1.16392e-39
-1.22784e-39
-2.89143e-40
-2.87483e-40
-6.87689e-41
-6.46244e-41
-1.56956e-41
-1.39744e-41
-3.44362e-42
-2.91016e-42
-7.27332e-43
-5.83745e-43
-1.47963e-43
-1.12696e-43
-2.89707e-44
-2.09055e-44
-5.45192e-45
-3.71785e-45
-9.83983e-46
-6.32218e-46
-1.69821e-46
-1.02522e-46
-2.79409e-47
-1.58135e-47
-4.37017e-48
-2.31476e-48
-6.47977e-49
-3.20917e-49
-9.08905e-50
-4.2071e-50
-1.20463e-50
-5.20815e-51
-1.50723e-51
-6.08151e-52
-1.77878e-52
-6.69202e-53
-1.97838e-53
-6.93405e-54
-2.07209e-54
-6.761e-55
-2.04209e-55
-6.20005e-56
-1.89242e-56
-5.34486e-57
-1.64797e-57
-4.32984e-58
-1.34786e-58
-3.29507e-59
-1.03503e-59
-2.35504e-60
-7.46243e-61
-1.58041e-61
-5.05073e-62
-9.95592e-63
-3.20872e-63
-5.88639e-64
-1.91292e-64
-3.26576e-65
-1.07003e-65
-1.69987e-66
-5.61456e-67
-8.29976e-68
-2.76299e-68
-3.80075e-69
-1.27506e-69
-1.63213e-70
-5.51696e-71
-6.57151e-72
-2.23785e-72
-2.48046e-73
-8.50846e-74
-8.77615e-75
-3.03187e-75
-2.91015e-76
-1.01244e-76
-9.04308e-78
-3.16766e-78
-2.63293e-79
-9.28878e-80
-7.18167e-81
-2.55166e-81
-1.83492e-82
-6.56161e-83
-4.38823e-84
-1.6006e-84
-3.48355e-86
-9.83835e-86
1.44626e-08
-6.29306e-08
1.93998e-08
-1.22479e-07
2.19049e-08
-2.99261e-08
2.52785e-08
2.68855e-09
3.19436e-08
1.8382e-08
1.01923e-08
-6.74332e-09
5.46462e-08
-3.02471e-07
4.66515e-08
-3.75627e-07
1.37674e-08
-1.02014e-08
1.5708e-08
5.55402e-10
1.6326e-08
2.25114e-12
1.13848e-08
2.93626e-08
1.12396e-08
6.48253e-09
1.24206e-08
-1.16284e-08
1.29838e-08
-1.68071e-08
6.45845e-09
-1.92527e-08
9.1742e-09
-1.02082e-08
9.66408e-09
-3.52747e-09
1.54516e-08
1.04689e-09
1.81873e-07
-5.23991e-08
7.06389e-07
-2.78444e-07
7.83932e-07
-8.41873e-07
8.32911e-07
-4.74861e-07
1.56918e-07
3.40915e-07
4.62191e-08
1.4048e-09
3.69014e-08
4.20622e-08
7.04765e-08
2.29182e-08
1.52017e-07
-1.79474e-08
1.52164e-07
-5.01649e-09
1.05712e-07
4.90638e-08
3.23372e-08
3.45139e-08
1.28177e-08
1.21491e-08
1.22136e-08
2.15218e-08
2.70422e-08
4.82675e-08
2.61604e-08
3.6335e-08
1.10916e-08
2.60742e-08
1.09918e-08
1.26092e-08
2.40474e-08
-6.11957e-09
3.42944e-08
-2.59804e-08
3.85618e-08
-2.28138e-08
3.59569e-08
-2.78359e-08
9.96517e-09
-2.3813e-10
2.74432e-10
9.91551e-10
2.28014e-10
8.56968e-11
3.88848e-10
1.27449e-10
4.57452e-10
1.30963e-10
5.51178e-10
7.99162e-11
6.92985e-10
2.03934e-10
7.8651e-10
4.05502e-10
7.50512e-10
1.95592e-12
3.83609e-10
-2.42009e-10
1.83741e-10
-1.36727e-10
1.75789e-10
-1.2523e-10
1.10622e-09
-1.56443e-10
4.37163e-08
-5.20843e-09
5.48029e-08
-5.92997e-08
3.38036e-08
1.30775e-09
2.35368e-08
1.81574e-08
2.68443e-08
1.66155e-08
2.81606e-08
2.50731e-09
1.23769e-08
-2.91809e-11
5.68784e-09
4.61066e-11
5.69082e-09
1.34646e-10
7.26332e-09
2.22668e-10
7.38195e-09
8.62775e-11
3.78682e-09
1.5135e-09
2.30722e-09
-1.98653e-10
2.3339e-09
-6.7591e-10
2.46794e-09
-7.65509e-10
5.67131e-09
-4.76424e-10
1.45188e-08
-3.8725e-10
2.58817e-08
-3.70034e-10
4.40967e-08
-1.31222e-09
7.20899e-08
-4.72203e-09
7.88564e-08
-8.10088e-09
7.79896e-08
3.53851e-09
7.74937e-08
6.87378e-10
5.9099e-08
2.22305e-11
5.20418e-08
-1.66253e-09
5.34832e-08
-9.39022e-09
5.72612e-08
-1.01965e-08
3.91762e-08
1.6696e-09
8.98368e-09
1.17469e-08
1.17863e-09
1.57709e-09
8.72051e-10
1.25716e-14
7.01989e-10
1.34821e-16
3.44399e-10
1.7755e-16
2.35767e-11
3.57476e-12
1.53339e-24
5.34578e-13
1.41116e-32
1.59333e-25
-6.68724e-45
7.51989e-33
-3.94517e-33
-8.27633e-34
-3.2737e-33
-6.87507e-34
-2.04619e-33
-4.32357e-34
-1.16139e-33
-2.47811e-34
-6.09318e-34
-1.31646e-34
-2.94035e-34
-6.44988e-35
-1.3042e-34
-2.91111e-35
-5.33595e-35
-1.21385e-35
-2.02373e-35
-4.69764e-36
-7.14984e-36
-1.69451e-36
-2.36348e-36
-5.71777e-37
-7.33858e-37
-1.81005e-37
-2.14786e-37
-5.39839e-38
-5.94523e-38
-1.52169e-38
-1.56138e-38
-4.06686e-39
-3.90346e-39
-1.03386e-39
-9.32063e-40
-2.50849e-40
-2.13279e-40
-5.83073e-41
-4.69164e-41
-1.30227e-41
-9.94819e-42
-2.80168e-42
-2.03713e-42
-5.81873e-43
-4.0317e-43
-1.16791e-43
-7.70806e-44
-2.26459e-44
-1.42127e-44
-4.23603e-45
-2.52095e-45
-7.62528e-46
-4.28803e-46
-1.31637e-46
-6.97155e-47
-2.17145e-47
-1.07996e-47
-3.41094e-48
-1.58955e-48
-5.0854e-49
-2.2176e-49
-7.17803e-50