/*--------------------------------*- C++ -*----------------------------------*\
| =========                 |                                                 |
| \\      /  F ield         | OpenFOAM: The Open Source CFD Toolbox           |
|  \\    /   O peration     | Version:  v1912                                 |
|   \\  /    A nd           | Website:  www.openfoam.com                      |
|    \\/     M anipulation  |                                                 |
\*---------------------------------------------------------------------------*/
FoamFile
{
    version     2.0;
    format      ascii;
    class       volScalarField;
    location    "60";
    object      nut;
}
// * * * * * * * * * * * * * * * * * * * * * * * * * * * * * * * * * * * * * //

dimensions      [0 2 -1 0 0 0 0];


internalField   nonuniform List<scalar> 
14268
(
0.000252828
0.000242967
0.000203062
0.000171074
0.000161252
0.000177019
0.000215717
0.000183937
0.00010868
8.36001e-05
9.07475e-05
0.000126798
0.000192821
0.000250255
0.000273787
0.0002695
0.000248659
0.000206589
0.000162935
0.000158356
0.00016779
0.000177273
0.000168207
0.000135249
8.81407e-05
8.8988e-05
0.000116352
0.000147017
0.000147357
0.000132093
0.000101933
5.84046e-05
4.53545e-05
5.17626e-05
5.19455e-05
3.71119e-05
4.04922e-05
5.62462e-05
5.85172e-05
5.60827e-05
4.99011e-05
3.56715e-05
2.40011e-05
2.15631e-05
2.05244e-05
1.77705e-05
1.34112e-05
1.55575e-05
3.12227e-05
7.58268e-05
0.000112886
0.000130652
0.00013926
0.000135996
0.000117286
6.11169e-05
2.61683e-05
2.83312e-05
4.05598e-05
3.26484e-05
1.71683e-05
1.49733e-05
1.84626e-05
2.58443e-05
3.4722e-05
4.39111e-05
4.59523e-05
4.61304e-05
4.30017e-05
3.32649e-05
3.29216e-05
3.88246e-05
4.75794e-05
4.94025e-05
4.84462e-05
5.35433e-05
7.06281e-05
9.27628e-05
0.000103297
0.000101436
8.42412e-05
3.67854e-05
8.70342e-06
2.35574e-06
2.19263e-06
1.58724e-06
4.95749e-07
8.62919e-08
1.41071e-08
2.29165e-09
3.70146e-10
5.9e-11
9.23103e-12
1.4186e-12
2.20516e-13
4.17583e-14
1.61392e-14
1.29457e-14
1.2901e-14
1.34434e-14
1.43629e-14
1.54139e-14
1.65259e-14
1.77333e-14
1.9071e-14
2.05433e-14
2.21397e-14
2.38501e-14
2.56674e-14
2.75868e-14
2.96046e-14
3.17176e-14
3.39228e-14
3.62171e-14
3.85962e-14
4.10554e-14
4.35908e-14
4.62e-14
4.88802e-14
5.16278e-14
5.44371e-14
5.72997e-14
6.02066e-14
6.31495e-14
6.61213e-14
6.91154e-14
7.21263e-14
7.51482e-14
7.81773e-14
8.12083e-14
8.42367e-14
8.72541e-14
9.02574e-14
9.32388e-14
9.61961e-14
9.91226e-14
1.02016e-13
1.04872e-13
1.07686e-13
1.10456e-13
1.13178e-13
1.15851e-13
1.18472e-13
1.21039e-13
1.23549e-13
1.25998e-13
1.28367e-13
1.30739e-13
1.32732e-13
1.35506e-13
0.00269467
0.00276037
0.00232153
0.00191759
0.0018059
0.0020461
0.00231609
0.0017898
0.00100075
0.000748851
0.000858744
0.00125947
0.00195549
0.00250402
0.00276434
0.0027518
0.00250417
0.00199105
0.00151333
0.00143576
0.00157592
0.00163468
0.00153561
0.00118554
0.000767584
0.000838097
0.00113746
0.00140112
0.001408
0.00125745
0.00102154
0.00064829
0.000499705
0.000544081
0.000548738
0.000396128
0.000408061
0.000525249
0.000558183
0.000531113
0.000465258
0.00037051
0.000282704
0.000261076
0.000256263
0.000239398
0.000197392
0.000214947
0.000365971
0.000825813
0.00116608
0.00132448
0.00142659
0.00143361
0.001304
0.000722766
0.000318159
0.00033395
0.000518518
0.000469489
0.000303118
0.000274561
0.000314112
0.000384042
0.000456458
0.000558065
0.000581218
0.000565082
0.000538095
0.000453637
0.000465008
0.00054344
0.000637091
0.000664528
0.000646033
0.00067635
0.000824926
0.00101816
0.00111983
0.00111961
0.000974899
0.000491443
0.000189333
7.18719e-05
9.11554e-05
8.06408e-05
3.4468e-05
7.36833e-06
1.4555e-06
2.62834e-07
4.48457e-08
7.39045e-09
1.18336e-09
1.85184e-10
2.93146e-11
5.71873e-12
2.30035e-12
1.87568e-12
1.87476e-12
1.95694e-12
2.09284e-12
2.24783e-12
2.41251e-12
2.59213e-12
2.79179e-12
3.01226e-12
3.25216e-12
3.51014e-12
3.78523e-12
4.07683e-12
4.38462e-12
4.70821e-12
5.04716e-12
5.40102e-12
5.76918e-12
6.15094e-12
6.54597e-12
6.95417e-12
7.37542e-12
7.80947e-12
8.25557e-12
8.71235e-12
9.17821e-12
9.65167e-12
1.01317e-11
1.06171e-11
1.11072e-11
1.16011e-11
1.20982e-11
1.25978e-11
1.30991e-11
1.36006e-11
1.41016e-11
1.46009e-11
1.50978e-11
1.55912e-11
1.60809e-11
1.65657e-11
1.70451e-11
1.75184e-11
1.79852e-11
1.84448e-11
1.88968e-11
1.9341e-11
1.97763e-11
2.02021e-11
2.06154e-11
2.10297e-11
2.13747e-11
2.18758e-11
0.00785641
0.00807648
0.00695047
0.00601834
0.00568076
0.00622552
0.00681184
0.00481238
0.00242301
0.001473
0.00196432
0.00331203
0.00493777
0.00627216
0.00695418
0.0069936
0.0065014
0.00521926
0.00376486
0.00330427
0.00373813
0.00406309
0.00373282
0.00278459
0.00188136
0.00203809
0.00254025
0.003169
0.00324921
0.00302713
0.0024881
0.00155521
0.00112276
0.00120709
0.00128201
0.00102181
0.000911925
0.00112608
0.00129618
0.00124141
0.00101422
0.000751953
0.000534659
0.000481441
0.00051472
0.000498411
0.000377856
0.000418324
0.000934594
0.00219609
0.00301211
0.00338832
0.00368207
0.0037924
0.00364638
0.00233809
0.000868171
0.000662666
0.00109101
0.00126355
0.000957521
0.000861764
0.000963188
0.00112989
0.00132908
0.00164452
0.0017535
0.00166775
0.00156105
0.00137703
0.00145375
0.00170874
0.00195565
0.00205305
0.00201698
0.00206129
0.00237919
0.00280285
0.00306883
0.00310661
0.00281384
0.00169708
0.000554781
0.000229646
0.000251193
0.00031085
0.000176913
4.96324e-05
1.14647e-05
2.32597e-06
4.38915e-07
7.8786e-08
1.35722e-08
2.26728e-09
3.85749e-10
8.53271e-11
4.0046e-11
3.44664e-11
3.46747e-11
3.62945e-11
3.88166e-11
4.16658e-11
4.47041e-11
4.80349e-11
5.17496e-11
5.58605e-11
6.03428e-11
6.51726e-11
7.03323e-11
7.58113e-11
8.16042e-11
8.77055e-11
9.41081e-11
1.00805e-10
1.07784e-10
1.15035e-10
1.22551e-10
1.30333e-10
1.3838e-10
1.46688e-10
1.55243e-10
1.6402e-10
1.72986e-10
1.82115e-10
1.91386e-10
2.00778e-10
2.10275e-10
2.1986e-10
2.29525e-10
2.39252e-10
2.49026e-10
2.58819e-10
2.68616e-10
2.78392e-10
2.88135e-10
2.97823e-10
3.07448e-10
3.16989e-10
3.26436e-10
3.35773e-10
3.44989e-10
3.54074e-10
3.63019e-10
3.71815e-10
3.80447e-10
3.88891e-10
3.97102e-10
4.05326e-10
4.12191e-10
4.22182e-10
0.0139709
0.0132105
0.0115442
0.0106514
0.0102102
0.0108718
0.0121277
0.00971995
0.0049128
0.00231526
0.00316869
0.00562094
0.00808196
0.0102247
0.0113492
0.0114608
0.0108892
0.00920972
0.0065854
0.00535074
0.00589294
0.00696925
0.00641677
0.00431123
0.0025424
0.0025669
0.00347674
0.00481511
0.00522371
0.00501841
0.00407112
0.00249307
0.0016579
0.00182259
0.00200525
0.00180672
0.00172901
0.00229112
0.00310159
0.00303668
0.00240393
0.00154493
0.000998777
0.00097841
0.00112035
0.0011111
0.000770381
0.000710597
0.00154163
0.00362252
0.00493903
0.0055291
0.00601393
0.00624482
0.00622065
0.00473098
0.00220732
0.00140809
0.00149904
0.00166826
0.00151606
0.00153561
0.00174029
0.00203024
0.00240817
0.00310803
0.00350117
0.00345386
0.00326395
0.00289682
0.00288311
0.00322752
0.00353022
0.00367154
0.00362634
0.00369363
0.00417676
0.00482232
0.00524458
0.00530834
0.00492837
0.00331905
0.00132983
0.000451496
0.000373359
0.000604253
0.000401064
0.000128517
3.33015e-05
7.36989e-06
1.49009e-06
2.83724e-07
5.15434e-08
9.08145e-09
1.67192e-09
4.39243e-10
2.48235e-10
2.25698e-10
2.28657e-10
2.40025e-10
2.5656e-10
2.75016e-10
2.94812e-10
3.16675e-10
3.41159e-10
3.68325e-10
3.98009e-10
4.30055e-10
4.64348e-10
5.00818e-10
5.39434e-10
5.80168e-10
6.2298e-10
6.67831e-10
7.14655e-10
7.63375e-10
8.13958e-10
8.6641e-10
9.20732e-10
9.76898e-10
1.03482e-09
1.09432e-09
1.15518e-09
1.21723e-09
1.28032e-09
1.34431e-09
1.4091e-09
1.47456e-09
1.54064e-09
1.6072e-09
1.67417e-09
1.74133e-09
1.80858e-09
1.87574e-09
1.94274e-09
2.00942e-09
2.07571e-09
2.14148e-09
2.20664e-09
2.27109e-09
2.33475e-09
2.39755e-09
2.45941e-09
2.52027e-09
2.58004e-09
2.63852e-09
2.69546e-09
2.75241e-09
2.80009e-09
2.86941e-09
0.0186264
0.0167454
0.0144748
0.0137393
0.0139932
0.0146106
0.0177371
0.0167233
0.00988001
0.0032539
0.00386385
0.00784195
0.0114121
0.0146494
0.0163977
0.016586
0.0158615
0.01382
0.0103897
0.00825664
0.00866896
0.0102472
0.00959148
0.00628191
0.00305745
0.00295982
0.0045519
0.00706654
0.00800475
0.00752415
0.00595369
0.00382346
0.00259731
0.00284469
0.00316749
0.00298245
0.00307186
0.00405459
0.00539331
0.00538558
0.00448764
0.00304358
0.00204335
0.00184734
0.00197842
0.00196074
0.00139546
0.00114878
0.00220268
0.0051447
0.00705171
0.00786703
0.00851662
0.00887499
0.0089868
0.00735636
0.00451562
0.00324488
0.00285202
0.00234782
0.00174296
0.00185184
0.00222081
0.00273349
0.00337786
0.00457979
0.00539984
0.00549097
0.00523732
0.00454199
0.00433118
0.00473649
0.00506692
0.00528294
0.00526771
0.00537496
0.00605543
0.00697028
0.00756969
0.00765116
0.00714455
0.00502345
0.002455
0.000999215
0.000595879
0.000721444
0.000582457
0.000216455
5.98765e-05
1.4145e-05
3.01582e-06
6.02109e-07
1.14507e-07
2.12396e-08
4.28846e-09
1.37426e-09
9.14927e-10
8.65235e-10
8.81348e-10
9.27527e-10
9.90504e-10
1.06e-09
1.13514e-09
1.21882e-09
1.31293e-09
1.41752e-09
1.53193e-09
1.65553e-09
1.78791e-09
1.9288e-09
2.07808e-09
2.23564e-09
2.40135e-09
2.57506e-09
2.75653e-09
2.94545e-09
3.14167e-09
3.3452e-09
3.55605e-09
3.77407e-09
3.99889e-09
4.22981e-09
4.46604e-09
4.70687e-09
4.95177e-09
5.20009e-09
5.45144e-09
5.70533e-09
5.96155e-09
6.21961e-09
6.47911e-09
6.73924e-09
6.99961e-09
7.25952e-09
7.51869e-09
7.77647e-09
8.03264e-09
8.28662e-09
8.53815e-09
8.78676e-09
9.03221e-09
9.27416e-09
9.51237e-09
9.7466e-09
9.97652e-09
1.02013e-08
1.04201e-08
1.06386e-08
1.08219e-08
1.1087e-08
0.0211872
0.0187095
0.0155657
0.0142643
0.0145583
0.0162705
0.0235397
0.0247626
0.0169684
0.0048223
0.00486075
0.0100089
0.0147301
0.0190547
0.0214209
0.0216777
0.0207902
0.0184991
0.0148891
0.0124199
0.0119988
0.0126916
0.012301
0.00857462
0.00375248
0.00354871
0.00633827
0.00997881
0.0110888
0.0100922
0.00786254
0.00529692
0.00375359
0.00403344
0.00451928
0.00446482
0.00479104
0.00609171
0.00775485
0.00777585
0.00667472
0.00470093
0.00324807
0.00285579
0.00294856
0.00291031
0.00214453
0.00173104
0.0030192
0.00675884
0.00921458
0.010255
0.0110629
0.0113986
0.0116001
0.00992202
0.00710094
0.0058787
0.00522531
0.00401755
0.00228668
0.00210377
0.00254544
0.00322508
0.00417986
0.00602711
0.00740171
0.00766553
0.00738974
0.00623819
0.00543117
0.00572746
0.00604498
0.00637718
0.00659316
0.00687731
0.00777539
0.00894816
0.00966624
0.00972226
0.0091318
0.00658322
0.00373185
0.00211119
0.00142305
0.000919245
0.000619463
0.000274804
8.47025e-05
2.1302e-05
4.76116e-06
9.87924e-07
1.94581e-07
3.77573e-08
8.44658e-09
3.2984e-09
2.48385e-09
2.40977e-09
2.46672e-09
2.60084e-09
2.77427e-09
2.96446e-09
3.17214e-09
3.40526e-09
3.66797e-09
3.95982e-09
4.27875e-09
4.62311e-09
4.99178e-09
5.38403e-09
5.79943e-09
6.23755e-09
6.69797e-09
7.18031e-09
7.68377e-09
8.20708e-09
8.75e-09
9.31251e-09
9.89435e-09
1.0495e-08
1.11133e-08
1.17473e-08
1.23947e-08
1.30533e-08
1.37217e-08
1.43982e-08
1.50817e-08
1.57706e-08
1.64644e-08
1.71616e-08
1.78612e-08
1.85609e-08
1.92596e-08
1.99555e-08
2.06478e-08
2.13348e-08
2.2016e-08
2.26897e-08
2.33554e-08
2.40119e-08
2.46585e-08
2.52945e-08
2.59193e-08
2.65323e-08
2.71328e-08
2.77185e-08
2.82879e-08
2.88544e-08
2.93305e-08
3.00132e-08
0.0241667
0.0235417
0.019343
0.0159534
0.015359
0.0192466
0.030736
0.0334118
0.0248128
0.00786922
0.00672627
0.0123033
0.0181846
0.0238753
0.0270328
0.0274042
0.0262564
0.0234515
0.0197041
0.017401
0.0149274
0.0135619
0.0137014
0.0109651
0.00552163
0.00535296
0.00929819
0.0134025
0.014166
0.0126699
0.00985501
0.00690983
0.00504805
0.00521829
0.00590573
0.00606412
0.00659041
0.00809783
0.00989011
0.00992285
0.00870581
0.00631106
0.00445539
0.00388857
0.00396172
0.00390451
0.00294778
0.00242553
0.00394925
0.00848339
0.0115453
0.0128971
0.0139625
0.0142873
0.014267
0.0122246
0.00943759
0.00847614
0.00766684
0.0058302
0.00329924
0.00284346
0.00334218
0.0040296
0.00519012
0.00763176
0.00950083
0.00991979
0.00967071
0.00819862
0.00642366
0.00610665
0.00638147
0.0067752
0.0071522
0.00777775
0.00905893
0.0106434
0.0115865
0.0116427
0.010835
0.00782875
0.00501343
0.00355783
0.00285207
0.00186436
0.000824946
0.000376861
0.000119992
3.07731e-05
6.99141e-06
1.47135e-06
2.94193e-07
5.88695e-08
1.45399e-08
6.73617e-09
5.52246e-09
5.4468e-09
5.60084e-09
5.91159e-09
6.2982e-09
6.72225e-09
7.18995e-09
7.71737e-09
8.31103e-09
8.96847e-09
9.68499e-09
1.04571e-08
1.12824e-08
1.21588e-08
1.30848e-08
1.40592e-08
1.50807e-08
1.61479e-08
1.72582e-08
1.84088e-08
1.95989e-08
2.08278e-08
2.20945e-08
2.33972e-08
2.47333e-08
2.60971e-08
2.74841e-08
2.88894e-08
3.03099e-08
3.17414e-08
3.31815e-08
3.46268e-08
3.60758e-08
3.75255e-08
3.89735e-08
4.04154e-08
4.18489e-08
4.32703e-08
4.46781e-08
4.6069e-08
4.74419e-08
4.87937e-08
5.01234e-08
5.1429e-08
5.27094e-08
5.39633e-08
5.519e-08
5.63886e-08
5.75579e-08
5.86941e-08
5.97946e-08
6.0885e-08
6.17997e-08
6.31005e-08
0.0304341
0.0327509
0.0272897
0.0214072
0.0194452
0.0250571
0.0374939
0.0411662
0.0323486
0.0114424
0.00894808
0.0145311
0.0215146
0.0285778
0.0325408
0.0330704
0.0316867
0.0283568
0.0243979
0.0218583
0.0160596
0.0132058
0.013257
0.012391
0.00780652
0.00806024
0.0126336
0.016279
0.0164421
0.0144566
0.011377
0.00840289
0.00619338
0.00604074
0.00691307
0.00743724
0.00816781
0.00974577
0.0115591
0.0116081
0.0102472
0.00764538
0.00559698
0.00491641
0.00498372
0.00491368
0.00377473
0.00318642
0.00491648
0.0102111
0.0138245
0.0154725
0.0168092
0.0173242
0.0170202
0.0139902
0.0109841
0.0104257
0.00946639
0.00708948
0.00408513
0.0037926
0.00455951
0.00531224
0.00656204
0.00939557
0.0116242
0.012174
0.0119662
0.0104112
0.00815163
0.00718681
0.00720242
0.00718756
0.00712785
0.00796774
0.00975757
0.0120574
0.0135116
0.0135787
0.0124208
0.00865772
0.00601948
0.00510537
0.00453372
0.00333123
0.00141292
0.000556683
0.000171869
4.3541e-05
9.82818e-06
2.0606e-06
4.12407e-07
8.438e-08
2.29713e-08
1.2273e-08
1.0674e-08
1.06429e-08
1.09859e-08
1.15998e-08
1.23446e-08
1.31643e-08
1.40745e-08
1.51011e-08
1.62514e-08
1.75188e-08
1.88945e-08
2.03721e-08
2.1946e-08
2.3611e-08
2.53625e-08
2.71966e-08
2.91104e-08
3.11003e-08
3.316e-08
3.5283e-08
3.74664e-08
3.97081e-08
4.20048e-08
4.43519e-08
4.67434e-08
4.9169e-08
5.16199e-08
5.40869e-08
5.65636e-08
5.90417e-08
6.15169e-08
6.3983e-08
6.64377e-08
6.88758e-08
7.12939e-08
7.36846e-08
7.60453e-08
7.83703e-08
8.06582e-08
8.29045e-08
8.5109e-08
8.72672e-08
8.93757e-08
9.14316e-08
9.34345e-08
9.53829e-08
9.72766e-08
9.91155e-08
1.00898e-07
1.02621e-07
1.04278e-07
1.05913e-07
1.07277e-07
1.09199e-07
0.0413109
0.0421314
0.0353422
0.028977
0.0261907
0.0317263
0.0415669
0.0455231
0.0383574
0.0149376
0.0111588
0.0169026
0.0251116
0.0337383
0.0385988
0.0392752
0.0375724
0.0335185
0.0290584
0.0255554
0.0188389
0.0144896
0.0122822
0.0131482
0.0104932
0.0111151
0.015823
0.0183626
0.0178932
0.0152209
0.0113011
0.00865421
0.0069463
0.00675202
0.00763545
0.00826214
0.00911609
0.0108755
0.0131765
0.0133028
0.0115582
0.0084947
0.00649546
0.0059281
0.00600288
0.00592627
0.00460761
0.00395912
0.00591219
0.0120004
0.0162367
0.0181962
0.01982
0.0206034
0.0202567
0.015428
0.0108263
0.0104891
0.00953827
0.0070627
0.00442053
0.00486264
0.00599553
0.00684773
0.00811654
0.0111768
0.0136825
0.0143902
0.0142496
0.0126992
0.0105337
0.0095779
0.00936408
0.008825
0.0078457
0.00824112
0.0104389
0.0135775
0.0158344
0.0161457
0.014535
0.00937708
0.00658745
0.00646728
0.00617309
0.00486344
0.00214897
0.00078455
0.00023368
5.83136e-05
1.30087e-05
2.69907e-06
5.37699e-07
1.12587e-07
3.39589e-08
2.04858e-08
1.85976e-08
1.86796e-08
1.93379e-08
2.04175e-08
2.17049e-08
2.31251e-08
2.47056e-08
2.64806e-08
2.84558e-08
3.06181e-08
3.29525e-08
3.54474e-08
3.8091e-08
4.08679e-08
4.37671e-08
4.67837e-08
4.99105e-08
5.31391e-08
5.6453e-08
5.98403e-08
6.32963e-08
6.68152e-08
7.03879e-08
7.40052e-08
7.76568e-08
8.13264e-08
8.50007e-08
8.86669e-08
9.23176e-08
9.59407e-08
9.9522e-08
1.03052e-07
1.06528e-07
1.09944e-07
1.13294e-07
1.16571e-07
1.19771e-07
1.22889e-07
1.25923e-07
1.28868e-07
1.31726e-07
1.34494e-07
1.37175e-07
1.39768e-07
1.42276e-07
1.44698e-07
1.47035e-07
1.4929e-07
1.5146e-07
1.53546e-07
1.55538e-07
1.57494e-07
1.59115e-07
1.61386e-07
0.05227
0.0476697
0.0400652
0.0353712
0.0325621
0.0364012
0.0426658
0.0463266
0.0410242
0.0179429
0.0132583
0.0193197
0.0287706
0.0389563
0.0447329
0.0455094
0.0434466
0.0386288
0.0333745
0.0293685
0.0251704
0.0191407
0.0118492
0.0134719
0.0127609
0.013758
0.0185927
0.020205
0.0191135
0.0155167
0.0102388
0.00731955
0.00642731
0.00739359
0.00837979
0.00875046
0.0097757
0.0122578
0.0155446
0.0157843
0.0135062
0.00935765
0.00710578
0.00683699
0.00701092
0.00693524
0.00544031
0.0047112
0.00687429
0.0137633
0.0185942
0.0208447
0.022739
0.0238008
0.0236713
0.0175653
0.00904426
0.00855353
0.00759945
0.0054505
0.00430327
0.00593912
0.00748662
0.00844811
0.00975085
0.012912
0.0155557
0.0163997
0.016375
0.0149214
0.0129731
0.0121852
0.012041
0.0114652
0.0097737
0.00941976
0.0119179
0.0156644
0.0185938
0.0191912
0.0171831
0.0103089
0.00685018
0.00743447
0.00762782
0.00624264
0.00285174
0.00100386
0.000293443
7.23979e-05
1.59728e-05
3.27992e-06
6.51168e-07
1.40675e-07
4.75467e-08
3.18863e-08
2.98877e-08
3.01705e-08
3.12985e-08
3.30327e-08
3.50697e-08
3.73154e-08
3.98084e-08
4.25881e-08
4.56547e-08
4.89861e-08
5.25581e-08
5.63497e-08
6.03315e-08
6.44709e-08
6.87564e-08
7.31745e-08
7.77089e-08
8.23417e-08
8.70474e-08
9.18089e-08
9.66203e-08
1.01475e-07
1.06346e-07
1.11211e-07
1.16053e-07
1.20846e-07
1.25571e-07
1.30208e-07
1.34746e-07
1.39172e-07
1.43491e-07
1.47698e-07
1.51792e-07
1.55769e-07
1.59627e-07
1.63361e-07
1.6697e-07
1.7045e-07
1.73807e-07
1.77037e-07
1.80145e-07
1.83131e-07
1.85998e-07
1.88749e-07
1.91387e-07
1.93914e-07
1.96334e-07
1.98651e-07
2.00865e-07
2.0298e-07
2.04985e-07
2.06943e-07
2.0855e-07
2.10798e-07
0.0632079
0.0502002
0.0413149
0.0382712
0.0376027
0.0380023
0.0433233
0.0479941
0.0412681
0.0200058
0.0153712
0.0219592
0.0326161
0.0444682
0.0511986
0.0520799
0.0495972
0.0438669
0.0377113
0.0341555
0.031659
0.0254416
0.0130859
0.014068
0.0148627
0.0165892
0.0212855
0.0228639
0.0213731
0.0170544
0.0104935
0.00634282
0.00585183
0.00843517
0.00976901
0.00980564
0.0110924
0.0145203
0.0185323
0.0188521
0.016145
0.0106965
0.00763217
0.00756343
0.00798269
0.00792224
0.00625893
0.00544312
0.00783257
0.0155579
0.0210435
0.023573
0.0257165
0.0270587
0.027131
0.0207354
0.00793025
0.00611638
0.00515681
0.00376059
0.00426436
0.00696049
0.00893296
0.0100523
0.0114819
0.0147941
0.0173589
0.0181499
0.0181614
0.0168621
0.0152544
0.0147124
0.0146829
0.0141619
0.0121737
0.0115465
0.0143449
0.0185127
0.0217936
0.0224847
0.0201337
0.0116242
0.00672768
0.00782823
0.00879546
0.0075045
0.0035229
0.00118907
0.000343301
8.39135e-05
1.82796e-05
3.70941e-06
7.35952e-07
1.66321e-07
6.37535e-08
4.68648e-08
4.4974e-08
4.55632e-08
4.73346e-08
4.99114e-08
5.28936e-08
5.61687e-08
5.97827e-08
6.37743e-08
6.81348e-08
7.28294e-08
7.78197e-08
8.30651e-08
8.84994e-08
9.408e-08
9.97974e-08
1.05638e-07
1.11567e-07
1.17533e-07
1.23492e-07
1.29412e-07
1.35274e-07
1.41056e-07
1.46751e-07
1.52354e-07
1.57846e-07
1.63206e-07
1.68417e-07
1.73467e-07
1.7835e-07
1.83061e-07
1.876e-07
1.91966e-07
1.96163e-07
2.00192e-07
2.04055e-07
2.07751e-07
2.11286e-07
2.14659e-07
2.17878e-07
2.20945e-07
2.23868e-07
2.26649e-07
2.29296e-07
2.31812e-07
2.34205e-07
2.36478e-07
2.38638e-07
2.40691e-07
2.42636e-07
2.44484e-07
2.46222e-07
2.47913e-07
2.49282e-07
2.51203e-07
0.0729041
0.0549868
0.0410766
0.0377765
0.0382793
0.0373875
0.0463591
0.0542596
0.0428103
0.0212858
0.017408
0.0245538
0.0362963
0.0497937
0.0575228
0.0585467
0.0556073
0.0488336
0.0418911
0.0385622
0.0368794
0.0306657
0.0159213
0.0140444
0.016384
0.0190267
0.0238873
0.0262798
0.024817
0.0200343
0.0123603
0.00703557
0.00660013
0.00978272
0.0115055
0.0114963
0.0131214
0.0171205
0.0215233
0.0218982
0.0189062
0.0123655
0.00816373
0.00816552
0.0089012
0.00886431
0.00704259
0.00615143
0.00875014
0.0172556
0.0232321
0.025709
0.0281118
0.0299558
0.0304718
0.0240831
0.00876495
0.00462731
0.00372902
0.00352202
0.0048222
0.00786795
0.0102921
0.0116051
0.0132159
0.0168638
0.0194569
0.0199788
0.0197188
0.018384
0.0171233
0.0169828
0.017206
0.0167926
0.0146854
0.0139789
0.017056
0.0215531
0.0250411
0.0257488
0.0231574
0.0132724
0.0062523
0.00728455
0.00906352
0.0084791
0.0041736
0.0013228
0.000376486
9.11356e-05
1.96576e-05
3.95572e-06
7.8689e-07
1.88528e-07
8.25562e-08
6.55963e-08
6.40289e-08
6.50514e-08
6.7627e-08
7.1194e-08
7.52601e-08
7.96972e-08
8.45513e-08
8.98543e-08
9.5583e-08
1.01684e-07
1.08101e-07
1.14759e-07
1.21544e-07
1.28396e-07
1.35278e-07
1.42141e-07
1.48941e-07
1.5566e-07
1.62259e-07
1.68712e-07
1.75007e-07
1.81138e-07
1.87091e-07
1.92859e-07
1.98429e-07
2.03786e-07
2.08921e-07
2.13826e-07
2.18505e-07
2.22957e-07
2.2719e-07
2.31207e-07
2.35021e-07
2.38635e-07
2.4206e-07
2.45299e-07
2.48361e-07
2.51251e-07
2.5398e-07
2.56553e-07
2.58982e-07
2.61271e-07
2.6343e-07
2.65464e-07
2.67382e-07
2.69189e-07
2.70893e-07
2.72501e-07
2.74012e-07
2.75442e-07
2.76776e-07
2.78068e-07
2.79096e-07
2.80556e-07
0.0818049
0.0655308
0.0415854
0.0364388
0.0370457
0.0363146
0.0533366
0.0635778
0.0474008
0.0226177
0.0194158
0.0271859
0.0398699
0.0550548
0.0638536
0.0650064
0.0616333
0.053667
0.0457293
0.0417828
0.040731
0.0358361
0.0199733
0.0133324
0.0160403
0.0193059
0.0262187
0.0304724
0.0291509
0.0238818
0.0150293
0.00884922
0.00817501
0.0113904
0.0133556
0.0134618
0.0153994
0.0197761
0.0244806
0.0249132
0.0216665
0.0142958
0.00880606
0.00871995
0.00974778
0.00978396
0.00778062
0.00679219
0.00963092
0.0188573
0.0249625
0.0266151
0.0292742
0.0322255
0.0336287
0.0273734
0.0106312
0.00496488
0.00398456
0.00428752
0.00572362
0.00864824
0.0115075
0.0131124
0.0149227
0.0189233
0.0218174
0.0222238
0.0214914
0.0196843
0.018518
0.0187659
0.0193469
0.0191637
0.0171308
0.0164283
0.0198204
0.0246555
0.0283357
0.0290637
0.0262254
0.0152827
0.00587857
0.00600281
0.00781415
0.00816831
0.00444326
0.00136636
0.000386064
9.27971e-05
1.98112e-05
3.9484e-06
7.92382e-07
2.05596e-07
1.03695e-07
8.79606e-08
8.6902e-08
8.84924e-08
9.19766e-08
9.65934e-08
1.0178e-07
1.07392e-07
1.13473e-07
1.2005e-07
1.27074e-07
1.34415e-07
1.4191e-07
1.49466e-07
1.57004e-07
1.64489e-07
1.71881e-07
1.79145e-07
1.8624e-07
1.93139e-07
1.99803e-07
2.06218e-07
2.12375e-07
2.18277e-07
2.23916e-07
2.29294e-07
2.34406e-07
2.39246e-07
2.43816e-07
2.48116e-07
2.52158e-07
2.55949e-07
2.59503e-07
2.62832e-07
2.6595e-07
2.68868e-07
2.71599e-07
2.74151e-07
2.76537e-07
2.78764e-07
2.80845e-07
2.82786e-07
2.84602e-07
2.86296e-07
2.8788e-07
2.8936e-07
2.90744e-07
2.92038e-07
2.93248e-07
2.94384e-07
2.95441e-07
2.96439e-07
2.97363e-07
2.98259e-07
2.98948e-07
2.99958e-07
0.0903394
0.0772522
0.0456384
0.0348458
0.0353388
0.0363992
0.0617027
0.0726476
0.0533377
0.023688
0.0212474
0.0296698
0.0430458
0.0600181
0.0700115
0.0709404
0.0671382
0.0581535
0.0488075
0.0442077
0.0450562
0.0418766
0.0247839
0.0127218
0.0145144
0.0184464
0.0285374
0.0344631
0.0332531
0.0275741
0.0176707
0.0108059
0.00984977
0.0129675
0.0150973
0.0153959
0.017636
0.0223884
0.0274074
0.0279013
0.0244053
0.0163662
0.00953607
0.00911708
0.010372
0.01066
0.00844268
0.00729238
0.010388
0.0201346
0.0256809
0.026174
0.0290592
0.0335098
0.0363666
0.0305456
0.0126813
0.00608615
0.00500072
0.00544238
0.00669829
0.00939729
0.0125685
0.0145365
0.0165438
0.0207705
0.0240015
0.0247001
0.0237216
0.0212564
0.0195014
0.019896
0.0206416
0.0207384
0.0191423
0.0187236
0.0225005
0.0276748
0.031552
0.0323079
0.0292351
0.0175015
0.00626259
0.00467354
0.00582966
0.00634362
0.00377277
0.00127619
0.000366285
8.77488e-05
1.8524e-05
3.66087e-06
7.50026e-07
2.17796e-07
1.27069e-07
1.13661e-07
1.13219e-07
1.15468e-07
1.19856e-07
1.25447e-07
1.31634e-07
1.38256e-07
1.45319e-07
1.52775e-07
1.60516e-07
1.68408e-07
1.76342e-07
1.84247e-07
1.92021e-07
1.99614e-07
2.06984e-07
2.14106e-07
2.2094e-07
2.27469e-07
2.33661e-07
2.39514e-07
2.45033e-07
2.50232e-07
2.55112e-07
2.59686e-07
2.63957e-07
2.67934e-07
2.71628e-07
2.75048e-07
2.78215e-07
2.81141e-07
2.83845e-07
2.86343e-07
2.88651e-07
2.90782e-07
2.92753e-07
2.94573e-07
2.96254e-07
2.97808e-07
2.99245e-07
3.00573e-07
3.01804e-07
3.02942e-07
3.03998e-07
3.04976e-07
3.05884e-07
3.06726e-07
3.07508e-07
3.08238e-07
3.08912e-07
3.09547e-07
3.10131e-07
3.10704e-07
3.11119e-07
3.11766e-07
0.104598
0.0955197
0.0585469
0.0341481
0.0329886
0.0394427
0.0755839
0.0861038
0.0629081
0.0249469
0.0236283
0.033
0.0479166
0.0677517
0.079447
0.0786692
0.0740495
0.0644753
0.0531585
0.048675
0.0536672
0.0512714
0.0328366
0.013897
0.0130466
0.0187946
0.0328958
0.0398422
0.0388163
0.0329137
0.0216117
0.0137322
0.0123245
0.0154458
0.0177666
0.0182833
0.0209741
0.0263414
0.0318648
0.0324581
0.0285781
0.0195934
0.0106027
0.00920799
0.0106197
0.0115386
0.00929866
0.00785954
0.0113753
0.0214607
0.0253636
0.024903
0.0281212
0.0343398
0.039714
0.0350677
0.015673
0.00784322
0.00654407
0.0071464
0.00819018
0.0105776
0.0140546
0.0164473
0.0186499
0.0230784
0.0268317
0.0283208
0.0274544
0.0243329
0.0209594
0.0209611
0.0217654
0.0221364
0.0212305
0.0216483
0.0263576
0.0321463
0.0363686
0.0372067
0.0337437
0.0207867
0.00785334
0.00350922
0.00358274
0.00359837
0.00224465
0.000971248
0.000293333
6.95954e-05
1.44069e-05
2.84131e-06
6.29855e-07
2.33996e-07
1.67313e-07
1.58356e-07
1.58864e-07
1.6216e-07
1.67664e-07
1.74323e-07
1.81431e-07
1.88802e-07
1.96433e-07
2.04237e-07
2.12083e-07
2.1985e-07
2.27456e-07
2.3482e-07
2.4185e-07
2.48509e-07
2.54778e-07
2.60645e-07
2.66099e-07
2.71145e-07
2.75793e-07
2.80063e-07
2.83978e-07
2.87556e-07
2.90826e-07
2.93809e-07
2.9653e-07
2.99e-07
3.01237e-07
3.03258e-07
3.05081e-07
3.06728e-07
3.08214e-07
3.09559e-07
3.10774e-07
3.11876e-07
3.12877e-07
3.13788e-07
3.14615e-07
3.15363e-07
3.16039e-07
3.16645e-07
3.17201e-07
3.177e-07
3.1816e-07
3.18577e-07
3.18962e-07
3.19313e-07
3.19637e-07
3.19937e-07
3.2021e-07
3.20462e-07
3.20685e-07
3.20912e-07
3.21061e-07
3.21351e-07
0.126528
0.118178
0.0780523
0.0421245
0.0347986
0.049035
0.0916798
0.100605
0.0744574
0.0278962
0.0254566
0.036111
0.0548404
0.0786273
0.090501
0.0850069
0.0791573
0.0695187
0.0592025
0.0557132
0.0627075
0.0618667
0.0414754
0.0208935
0.0158933
0.0233675
0.0359706
0.0435597
0.0447876
0.0394117
0.0258801
0.0169978
0.0151652
0.0183643
0.0209853
0.0218238
0.0250882
0.0313697
0.0375922
0.0383231
0.033918
0.0236711
0.0125412
0.00874199
0.00967245
0.0110368
0.00991504
0.00874276
0.0125234
0.0201498
0.0222223
0.0226204
0.0264324
0.0332045
0.0418941
0.0397491
0.0191006
0.00956843
0.00796838
0.00882001
0.0101355
0.0124738
0.0154033
0.0176833
0.0202372
0.0253182
0.0298416
0.0323251
0.0321897
0.0289442
0.0245382
0.0232667
0.0239069
0.0241226
0.0223876
0.0231881
0.0296126
0.036721
0.0415912
0.0426757
0.0389281
0.024469
0.0100861
0.00413546
0.00291151
0.002398
0.00146291
0.000658958
0.000198377
4.64301e-05
9.65273e-06
1.99926e-06
5.32322e-07
2.6698e-07
2.22537e-07
2.16934e-07
2.17942e-07
2.21466e-07
2.2695e-07
2.3338e-07
2.39886e-07
2.46398e-07
2.52913e-07
2.59342e-07
2.65597e-07
2.71612e-07
2.77322e-07
2.82656e-07
2.87566e-07
2.92044e-07
2.96106e-07
2.99763e-07
3.03042e-07
3.05967e-07
3.08566e-07
3.10853e-07
3.12862e-07
3.14624e-07
3.16169e-07
3.17513e-07
3.18664e-07
3.19633e-07
3.20456e-07
3.21165e-07
3.21774e-07
3.22294e-07
3.22738e-07
3.23117e-07
3.23435e-07
3.23698e-07
3.23917e-07
3.24095e-07
3.24234e-07
3.2435e-07
3.24456e-07
3.24553e-07
3.2465e-07
3.24739e-07
3.24822e-07
3.24893e-07
3.24958e-07
3.25015e-07
3.25066e-07
3.2511e-07
3.25145e-07
3.25217e-07
3.25286e-07
3.25346e-07
3.25332e-07
3.25417e-07
0.1501
0.140185
0.0977019
0.0589251
0.0470871
0.0644049
0.102791
0.10549
0.0826458
0.0324772
0.0269588
0.0400502
0.0632247
0.0908609
0.101012
0.0934661
0.0843103
0.0725519
0.0625345
0.0585964
0.064833
0.0665343
0.0469052
0.0276449
0.0214608
0.0264346
0.0346713
0.0452941
0.0517517
0.045795
0.029131
0.0197574
0.0180231
0.0214498
0.024231
0.0252201
0.0290283
0.0363086
0.0432441
0.0441216
0.0391779
0.0276336
0.0152766
0.00954768
0.00886803
0.00974515
0.00993868
0.00993839
0.0137929
0.017863
0.0192933
0.0201211
0.0245292
0.031187
0.0423759
0.0430141
0.0222416
0.0111442
0.00936166
0.0105134
0.0122863
0.0148633
0.0169321
0.0185479
0.0216948
0.028079
0.0333541
0.0360771
0.0366256
0.0336624
0.0294188
0.0279952
0.0285445
0.0285766
0.0252064
0.0231845
0.0304086
0.0394862
0.0453179
0.0470452
0.043434
0.0277138
0.0120233
0.00515457
0.00303546
0.00206523
0.00118789
0.00048465
0.000139213
3.24827e-05
6.95697e-06
1.56469e-06
5.04224e-07
3.05909e-07
2.71482e-07
2.66936e-07
2.67855e-07
2.7077e-07
2.75271e-07
2.80388e-07
2.85349e-07
2.90229e-07
2.94961e-07
2.99489e-07
3.03734e-07
3.07612e-07
3.11093e-07
3.14168e-07
3.16859e-07
3.19187e-07
3.21141e-07
3.22765e-07
3.24108e-07
3.25192e-07
3.26047e-07
3.26706e-07
3.2721e-07
3.27561e-07
3.27762e-07
3.27903e-07
3.28017e-07
3.28102e-07
3.28147e-07
3.28152e-07
3.28125e-07
3.28077e-07
3.28008e-07
3.2792e-07
3.27831e-07
3.27746e-07
3.27666e-07
3.27601e-07
3.27551e-07
3.27508e-07
3.27467e-07
3.27421e-07
3.2736e-07
3.27272e-07
3.2718e-07
3.27094e-07
3.27015e-07
3.2694e-07
3.26868e-07
3.26801e-07
3.26735e-07
3.26663e-07
3.26541e-07
3.26486e-07
3.26404e-07
3.26435e-07
0.172819
0.159822
0.113988
0.0759809
0.0629194
0.0795365
0.105507
0.102301
0.0839722
0.0371918
0.0287152
0.0450986
0.0716226
0.102882
0.113112
0.107306
0.0940048
0.0751282
0.0623998
0.0573184
0.0629071
0.0648896
0.0510523
0.0272803
0.022227
0.0239684
0.0297288
0.0474446
0.0584643
0.05055
0.0302289
0.0213109
0.0206471
0.0243005
0.0272716
0.0284041
0.0327473
0.0411182
0.048761
0.0497922
0.0442991
0.0314214
0.0180385
0.0117095
0.00948284
0.00899569
0.00961674
0.0109848
0.0134535
0.0167902
0.019511
0.0197184
0.0219291
0.0284217
0.0407241
0.0445565
0.0251928
0.012892
0.0111667
0.0126446
0.0147385
0.0173576
0.0190716
0.0202131
0.0239944
0.0319275
0.0380132
0.0399183
0.0403608
0.0378147
0.0345739
0.0336315
0.034492
0.0347238
0.0304201
0.0243449
0.0293829
0.0393045
0.0461722
0.0491082
0.046706
0.0306052
0.013524
0.00603163
0.00326358
0.001978
0.00103447
0.000386891
0.000107665