/*--------------------------------*- C++ -*----------------------------------*\
| =========                 |                                                 |
| \\      /  F ield         | OpenFOAM: The Open Source CFD Toolbox           |
|  \\    /   O peration     | Version:  v1912                                 |
|   \\  /    A nd           | Website:  www.openfoam.com                      |
|    \\/     M anipulation  |                                                 |
\*---------------------------------------------------------------------------*/
FoamFile
{
    version     2.0;
    format      ascii;
    class       volScalarField;
    location    "60";
    object      p_rgh;
}
// * * * * * * * * * * * * * * * * * * * * * * * * * * * * * * * * * * * * * //

dimensions      [1 -1 -2 0 0 0 0];


internalField   nonuniform List<scalar> 
14268
(
0.00120889
0.00113876
0.00107277
0.00101015
0.00095111
0.000895203
0.000842448
0.000792564
0.000745482
0.000701006
0.000659031
0.000619409
0.000582027
0.000546761
0.000513503
0.000482143
0.000452583
0.000424725
0.000398479
0.000373756
0.000350474
0.000328556
0.000307925
0.000288512
0.000270249
0.000253072
0.000236921
0.000221739
0.000207471
0.000194066
0.000181476
0.000169652
0.000158553
0.000148137
0.000138364
0.000129197
0.000120601
0.000112543
0.000104991
9.79159e-05
9.12892e-05
8.50844e-05
7.92763e-05
7.38413e-05
6.87568e-05
6.40019e-05
5.95565e-05
5.54017e-05
5.15197e-05
4.78939e-05
4.45084e-05
4.13482e-05
3.83994e-05
3.56487e-05
3.30836e-05
3.06925e-05
2.84642e-05
2.63884e-05
2.44553e-05
2.26557e-05
2.09811e-05
1.94231e-05
1.79744e-05
1.66276e-05
1.53761e-05
1.42135e-05
1.31339e-05
1.21318e-05
1.1202e-05
1.03395e-05
9.53989e-06
8.79878e-06
8.11218e-06
7.47634e-06
6.88775e-06
6.34312e-06
5.83938e-06
5.37365e-06
4.94325e-06
4.54567e-06
4.17857e-06
3.83977e-06
3.52723e-06
3.23904e-06
2.97343e-06
2.72876e-06
2.50348e-06
2.29615e-06
2.10546e-06
1.93014e-06
1.76907e-06
1.62115e-06
1.4854e-06
1.3609e-06
1.24677e-06
1.14224e-06
1.04657e-06
9.5907e-07
8.79114e-07
8.0612e-07
7.3955e-07
6.7891e-07
6.23743e-07
5.7363e-07
5.28186e-07
4.87059e-07
4.49927e-07
4.16494e-07
3.86503e-07
3.59696e-07
3.35893e-07
3.14837e-07
2.9649e-07
2.80454e-07
2.67046e-07
2.55401e-07
2.46642e-07
2.38979e-07
2.34692e-07
2.30653e-07
2.30966e-07
2.30263e-07
2.35506e-07
2.37934e-07
2.48656e-07
2.54098e-07
2.7098e-07
2.79381e-07
3.03134e-07
3.14504e-07
3.45607e-07
3.59984e-07
3.9826e-07
4.15655e-07
4.59721e-07
4.79948e-07
5.27092e-07
5.49405e-07
5.96862e-07
6.20112e-07
6.63585e-07
6.8617e-07
7.23526e-07
7.44319e-07
7.74987e-07
7.93335e-07
8.17648e-07
8.33325e-07
8.52081e-07
8.65147e-07
8.79303e-07
8.89974e-07
9.00452e-07
9.09014e-07
9.1662e-07
9.2335e-07
9.28742e-07
9.33979e-07
9.3751e-07
9.4165e-07
9.4344e-07
9.46802e-07
9.46273e-07
9.49026e-07
0.00120874
0.00113862
0.00107264
0.00101003
0.000950991
0.00089509
0.000842341
0.000792463
0.000745386
0.000700916
0.000658946
0.000619329
0.000581952
0.000546689
0.000513435
0.000482079
0.000452523
0.000424669
0.000398425
0.000373706
0.000350427
0.000328511
0.000307883
0.000288472
0.000270212
0.000253037
0.000236889
0.000221708
0.000207442
0.000194039
0.00018145
0.000169628
0.000158531
0.000148116
0.000138344
0.000129178
0.000120583
0.000112526
0.000104976
9.79015e-05
9.12756e-05
8.50717e-05
7.92644e-05
7.38301e-05
6.87464e-05
6.39921e-05
5.95473e-05
5.53931e-05
5.15117e-05
4.78864e-05
4.45014e-05
4.13416e-05
3.83933e-05
3.56429e-05
3.30782e-05
3.06874e-05
2.84595e-05
2.6384e-05
2.44512e-05
2.26519e-05
2.09775e-05
1.94198e-05
1.79713e-05
1.66247e-05
1.53733e-05
1.42109e-05
1.31315e-05
1.21296e-05
1.11999e-05
1.03376e-05
9.53807e-06
8.79708e-06
8.11059e-06
7.47486e-06
6.88636e-06
6.34182e-06
5.83816e-06
5.3725e-06
4.94217e-06
4.54466e-06
4.17763e-06
3.83888e-06
3.52639e-06
3.23825e-06
2.97269e-06
2.72806e-06
2.50282e-06
2.29553e-06
2.10487e-06
1.92959e-06
1.76854e-06
1.62065e-06
1.48492e-06
1.36044e-06
1.24634e-06
1.14183e-06
1.04617e-06
9.58689e-07
8.78748e-07
8.05768e-07
7.39212e-07
6.78583e-07
6.23428e-07
5.73325e-07
5.27891e-07
4.86771e-07
4.49648e-07
4.16222e-07
3.86238e-07
3.59438e-07
3.35641e-07
3.1459e-07
2.96248e-07
2.80218e-07
2.66814e-07
2.55174e-07
2.46419e-07
2.3876e-07
2.34478e-07
2.30443e-07
2.30759e-07
2.30061e-07
2.35308e-07
2.37741e-07
2.48467e-07
2.53915e-07
2.70799e-07
2.79208e-07
3.02963e-07
3.1434e-07
3.45447e-07
3.5983e-07
3.98111e-07
4.15511e-07
4.59581e-07
4.79811e-07
5.26958e-07
5.49271e-07
5.9673e-07
6.19976e-07
6.63448e-07
6.86027e-07
7.23381e-07
7.44167e-07
7.74833e-07
7.93174e-07
8.17484e-07
8.33156e-07
8.51909e-07
8.6497e-07
8.79124e-07
8.89791e-07
9.00267e-07
9.08826e-07
9.1643e-07
9.23157e-07
9.28549e-07
9.33784e-07
9.37314e-07
9.41451e-07
9.4324e-07
9.466e-07
9.46061e-07
9.48811e-07
0.00120858
0.00113848
0.0010725
0.0010099
0.000950869
0.000894975
0.000842232
0.000792361
0.000745289
0.000700824
0.000658859
0.000619247
0.000581874
0.000546616
0.000513366
0.000482014
0.000452462
0.000424611
0.000398371
0.000373654
0.000350379
0.000328465
0.00030784
0.000288432
0.000270173
0.000253001
0.000236854
0.000221676
0.000207412
0.000194011
0.000181423
0.000169603
0.000158507
0.000148093
0.000138323
0.000129158
0.000120565
0.000112509
0.000104959
9.78859e-05
9.1261e-05
8.50579e-05
7.92514e-05
7.38179e-05
6.87349e-05
6.39813e-05
5.95371e-05
5.53835e-05
5.15027e-05
4.78779e-05
4.44933e-05
4.13341e-05
3.83861e-05
3.56362e-05
3.30719e-05
3.06814e-05
2.84538e-05
2.63786e-05
2.44461e-05
2.26471e-05
2.09729e-05
1.94155e-05
1.79672e-05
1.66208e-05
1.53696e-05
1.42074e-05
1.31282e-05
1.21264e-05
1.11969e-05
1.03347e-05
9.53531e-06
8.79444e-06
8.10806e-06
7.47243e-06
6.88403e-06
6.33958e-06
5.836e-06
5.37043e-06
4.94017e-06
4.54273e-06
4.17575e-06
3.83707e-06
3.52463e-06
3.23654e-06
2.97103e-06
2.72644e-06
2.50123e-06
2.29398e-06
2.10335e-06
1.92811e-06
1.76709e-06
1.61922e-06
1.48352e-06
1.35906e-06
1.24498e-06
1.14049e-06
1.04485e-06
9.57388e-07
8.77462e-07
8.04496e-07
7.37953e-07
6.77337e-07
6.22192e-07
5.721e-07
5.26675e-07
4.85565e-07
4.48449e-07
4.15031e-07
3.85054e-07
3.5826e-07
3.3447e-07
3.13424e-07
2.95088e-07
2.79063e-07
2.65664e-07
2.54028e-07
2.45278e-07
2.37624e-07
2.33345e-07
2.29315e-07
2.29634e-07
2.28941e-07
2.34191e-07
2.3663e-07
2.47358e-07
2.52812e-07
2.697e-07
2.78115e-07
3.01874e-07
3.13258e-07
3.44368e-07
3.58759e-07
3.97043e-07
4.14449e-07
4.58523e-07
4.78756e-07
5.25905e-07
5.48219e-07
5.9568e-07
6.18922e-07
6.62394e-07
6.84967e-07
7.22318e-07
7.43098e-07
7.73761e-07
7.92097e-07
8.16403e-07
8.32069e-07
8.5082e-07
8.63877e-07
8.78027e-07
8.8869e-07
8.99165e-07
9.0772e-07
9.15323e-07
9.22048e-07
9.27437e-07
9.3267e-07
9.36199e-07
9.40335e-07
9.42123e-07
9.4548e-07
9.44933e-07
9.47673e-07
0.00120843
0.00113833
0.00107236
0.00100977
0.000950744
0.000894857
0.00084212
0.000792255
0.000745189
0.000700729
0.00065877
0.000619162
0.000581794
0.00054654
0.000513294
0.000481947
0.000452398
0.00042455
0.000398313
0.0003736
0.000350327
0.000328417
0.000307794
0.000288389
0.000270133
0.000252962
0.000236818
0.000221642
0.00020738
0.00019398
0.000181394
0.000169576
0.000158481
0.000148069
0.0001383
0.000129136
0.000120544
0.000112489
0.00010494
9.78682e-05
9.12442e-05
8.5042e-05
7.92363e-05
7.38036e-05
6.87213e-05
6.39684e-05
5.95248e-05
5.53718e-05
5.14916e-05
4.78673e-05
4.44832e-05
4.13244e-05
3.83769e-05
3.56274e-05
3.30635e-05
3.06734e-05
2.84461e-05
2.63713e-05
2.4439e-05
2.26403e-05
2.09664e-05
1.94092e-05
1.79611e-05
1.66149e-05
1.5364e-05
1.42019e-05
1.31229e-05
1.21212e-05
1.11919e-05
1.03298e-05
9.53057e-06
8.78982e-06
8.10355e-06
7.46803e-06
6.87973e-06
6.33537e-06
5.83187e-06
5.36638e-06
4.93619e-06
4.53882e-06
4.17191e-06
3.83328e-06
3.5209e-06
3.23286e-06
2.96739e-06
2.72284e-06
2.49768e-06
2.29047e-06
2.09988e-06
1.92466e-06
1.76367e-06
1.61583e-06
1.48016e-06
1.35572e-06
1.24167e-06
1.13719e-06
1.04157e-06
9.54125e-07
8.74215e-07
8.01265e-07
7.34735e-07
6.74131e-07
6.18998e-07
5.68916e-07
5.23501e-07
4.824e-07
4.45293e-07
4.11883e-07
3.81913e-07
3.55126e-07
3.31342e-07
3.10302e-07
2.91972e-07
2.75951e-07
2.62557e-07
2.50926e-07
2.4218e-07
2.3453e-07
2.30255e-07
2.26229e-07
2.26552e-07
2.25864e-07
2.31117e-07
2.33561e-07
2.44292e-07
2.49752e-07
2.66642e-07
2.75064e-07
2.98826e-07
3.10217e-07
3.41331e-07
3.55728e-07
3.94017e-07
4.11428e-07
4.55508e-07
4.75745e-07
5.22901e-07
5.45215e-07
5.92675e-07
6.15914e-07
6.59382e-07
6.8195e-07
7.19299e-07
7.40073e-07
7.70733e-07
7.89062e-07
8.13366e-07
8.29027e-07
8.47774e-07
8.60827e-07
8.74975e-07
8.85634e-07
8.96107e-07
9.04659e-07
9.1226e-07
9.18983e-07
9.24371e-07
9.29602e-07
9.3313e-07
9.37263e-07
9.39049e-07
9.42403e-07
9.4184e-07
9.4456e-07
0.00120827
0.00113818
0.00107222
0.00100963
0.000950615
0.000894735
0.000842005
0.000792145
0.000745085
0.000700631
0.000658677
0.000619074
0.00058171
0.000546461
0.00051322
0.000481876
0.000452331
0.000424487
0.000398253
0.000373543
0.000350273
0.000328366
0.000307746
0.000288343
0.000270089
0.000252921
0.000236779
0.000221605
0.000207344
0.000193947
0.000181362
0.000169546
0.000158452
0.000148042
0.000138274
0.000129112
0.000120521
0.000112467
0.000104919
9.7848e-05
9.12249e-05
8.50236e-05
7.92188e-05
7.37868e-05
6.87052e-05
6.3953e-05
5.95101e-05
5.53577e-05
5.1478e-05
4.78543e-05
4.44707e-05
4.13124e-05
3.83654e-05
3.56163e-05
3.30527e-05
3.0663e-05
2.84361e-05
2.63615e-05
2.44296e-05
2.26311e-05
2.09575e-05
1.94005e-05
1.79526e-05
1.66067e-05
1.53559e-05
1.41941e-05
1.31152e-05
1.21137e-05
1.11845e-05
1.03226e-05
9.52349e-06
8.78286e-06
8.09671e-06
7.46129e-06
6.87309e-06
6.32882e-06
5.82541e-06
5.35999e-06
4.92988e-06
4.53257e-06
4.16573e-06
3.82716e-06
3.51483e-06
3.22684e-06
2.96142e-06
2.71692e-06
2.4918e-06
2.28462e-06
2.09407e-06
1.91888e-06
1.75792e-06
1.61011e-06
1.47446e-06
1.35005e-06
1.23601e-06
1.13156e-06
1.03596e-06
9.48529e-07
8.68634e-07
7.95698e-07
7.29181e-07
6.6859e-07
6.13468e-07
5.63397e-07
5.17992e-07
4.76899e-07
4.39801e-07
4.06398e-07
3.76435e-07
3.49654e-07
3.25876e-07
3.04843e-07
2.86517e-07
2.70502e-07
2.57113e-07
2.45486e-07
2.36745e-07
2.29099e-07
2.24828e-07
2.20808e-07
2.21134e-07
2.20451e-07
2.25707e-07
2.28157e-07
2.38891e-07
2.44358e-07
2.61251e-07
2.6968e-07
2.93445e-07
3.04844e-07
3.35961e-07
3.50366e-07
3.88658e-07
4.06075e-07
4.50157e-07
4.70397e-07
5.17553e-07
5.39868e-07
5.87334e-07
6.10569e-07
6.5404e-07
6.76602e-07
7.1395e-07
7.34717e-07
7.65374e-07
7.83697e-07
8.07997e-07
8.23652e-07
8.42397e-07
8.55444e-07
8.69589e-07
8.80244e-07
8.90714e-07
8.99263e-07
9.06862e-07
9.13582e-07
9.18968e-07
9.24197e-07
9.27724e-07
9.31855e-07
9.33642e-07
9.36993e-07
9.36441e-07
9.39134e-07
0.00120811
0.00113802
0.00107207
0.00100949
0.000950483
0.00089461
0.000841886
0.000792033
0.000744978
0.00070053
0.000658581
0.000618983
0.000581624
0.00054638
0.000513142
0.000481802
0.000452261
0.00042442
0.00039819
0.000373483
0.000350217
0.000328312
0.000307695
0.000288294
0.000270043
0.000252877
0.000236737
0.000221565
0.000207307
0.000193911
0.000181328
0.000169513
0.000158422
0.000148012
0.000138246
0.000129085
0.000120495
0.000112442
0.000104896
9.78256e-05
9.12035e-05
8.5003e-05
7.9199e-05
7.37679e-05
6.86871e-05
6.39355e-05
5.94933e-05
5.53415e-05
5.14624e-05
4.78392e-05
4.44562e-05
4.12983e-05
3.83517e-05
3.5603e-05
3.30399e-05
3.06505e-05
2.84239e-05
2.63497e-05
2.44181e-05
2.26199e-05
2.09465e-05
1.93898e-05
1.79422e-05
1.65964e-05
1.53459e-05
1.41842e-05
1.31055e-05
1.21042e-05
1.11751e-05
1.03134e-05
9.51438e-06
8.77387e-06
8.08784e-06
7.45253e-06
6.86442e-06
6.32025e-06
5.81692e-06
5.35159e-06
4.92155e-06
4.52432e-06
4.15753e-06
3.81902e-06
3.50675e-06
3.21882e-06
2.95344e-06
2.70899e-06
2.4839e-06
2.27677e-06
2.08624e-06
1.91109e-06
1.75016e-06
1.60238e-06
1.46676e-06
1.34237e-06
1.22835e-06
1.12392e-06
1.02834e-06
9.40925e-07
8.61047e-07
7.88125e-07
7.21622e-07
6.61043e-07
6.05933e-07
5.55872e-07
5.10477e-07
4.69394e-07
4.32304e-07
3.98909e-07
3.68953e-07
3.42179e-07
3.18408e-07
2.9738e-07
2.7906e-07
2.6305e-07
2.49666e-07
2.38044e-07
2.29307e-07
2.21666e-07
2.17399e-07
2.13383e-07
2.13713e-07
2.13035e-07
2.18294e-07
2.2075e-07
2.31487e-07
2.3696e-07
2.53856e-07
2.62292e-07
2.8606e-07
2.97466e-07
3.28586e-07
3.42999e-07
3.81294e-07
3.98718e-07
4.42803e-07
4.63047e-07
5.10206e-07
5.32523e-07
5.79991e-07
6.03223e-07
6.46695e-07
6.69251e-07
7.06598e-07
7.27358e-07
7.58013e-07
7.76329e-07
8.00626e-07
8.16275e-07
8.35016e-07
8.48059e-07
8.62201e-07
8.72852e-07
8.83319e-07
8.91865e-07
8.99462e-07
9.06179e-07
9.11564e-07
9.1679e-07
9.20316e-07
9.24445e-07
9.26233e-07
9.29581e-07
9.29038e-07
9.31708e-07
0.00120794
0.00113787
0.00107193
0.00100935
0.000950349
0.000894482
0.000841765
0.000791918
0.00074487
0.000700426
0.000658483
0.00061889
0.000581536
0.000546296
0.000513063
0.000481727
0.000452189
0.000424353
0.000398126
0.000373422
0.000350159
0.000328257
0.000307642
0.000288244
0.000269996
0.000252832
0.000236694
0.000221524
0.000207268
0.000193874
0.000181293
0.00016948
0.000158389
0.000147982
0.000138216
0.000129057
0.000120468
0.000112417
0.000104871
9.78021e-05
9.1181e-05
8.49814e-05
7.91783e-05
7.37479e-05
6.86679e-05
6.3917e-05
5.94754e-05
5.53243e-05
5.14457e-05
4.78231e-05
4.44406e-05
4.12832e-05
3.8337e-05
3.55888e-05
3.3026e-05
3.06371e-05
2.84108e-05
2.63369e-05
2.44056e-05
2.26077e-05
2.09346e-05
1.93781e-05
1.79307e-05
1.65852e-05
1.53349e-05
1.41734e-05
1.30949e-05
1.20937e-05
1.11648e-05
1.03032e-05
9.50433e-06
8.76395e-06
8.07803e-06
7.44283e-06
6.85483e-06
6.31075e-06
5.80751e-06
5.34226e-06
4.9123e-06
4.51513e-06
4.14842e-06
3.80997e-06
3.49775e-06
3.20987e-06
2.94454e-06
2.70013e-06
2.47509e-06
2.26799e-06
2.0775e-06
1.90238e-06
1.74149e-06
1.59373e-06
1.45814e-06
1.33377e-06
1.21978e-06
1.11537e-06
1.0198e-06
9.32405e-07
8.52542e-07
7.79635e-07
7.13146e-07
6.52579e-07
5.97481e-07
5.47431e-07
5.02045e-07
4.60971e-07
4.23889e-07
3.90502e-07
3.60554e-07
3.33787e-07
3.10021e-07
2.88999e-07
2.70685e-07
2.54681e-07
2.41301e-07
2.29684e-07
2.20952e-07
2.13315e-07
2.09052e-07
2.05041e-07
2.05374e-07
2.04702e-07
2.09965e-07
2.12427e-07
2.23166e-07
2.28646e-07
2.45545e-07
2.53989e-07
2.77758e-07
2.89174e-07
3.20296e-07
3.34717e-07
3.73014e-07
3.90445e-07
4.34532e-07
4.5478e-07
5.0194e-07
5.24257e-07
5.71733e-07
5.94961e-07
6.38436e-07
6.60986e-07
6.98332e-07
7.19086e-07
7.49738e-07
7.68048e-07
7.92342e-07
8.07985e-07
8.26722e-07
8.39759e-07
8.53898e-07
8.64545e-07
8.75009e-07
8.83551e-07
8.91146e-07
8.9786e-07
9.03243e-07
9.08467e-07
9.11992e-07
9.16118e-07
9.17909e-07
9.21255e-07
9.20733e-07
9.23392e-07
0.00120777
0.00113771
0.00107177
0.00100921
0.000950213
0.000894354
0.000841643
0.000791802
0.00074476
0.000700322
0.000658384
0.000618796
0.000581447
0.000546212
0.000512983
0.000481651
0.000452117
0.000424284
0.000398061
0.000373361
0.0003501
0.000328202
0.00030759
0.000288194
0.000269948
0.000252787
0.000236651
0.000221483
0.000207229
0.000193837
0.000181258
0.000169446
0.000158357
0.000147951
0.000138187
0.000129029
0.000120442
0.000112391
0.000104847
9.77787e-05
9.11585e-05
8.49599e-05
7.91576e-05
7.3728e-05
6.86487e-05
6.38986e-05
5.94577e-05
5.53072e-05
5.14292e-05
4.78072e-05
4.44251e-05
4.12683e-05
3.83225e-05
3.55747e-05
3.30124e-05
3.06238e-05
2.83979e-05
2.63243e-05
2.43933e-05
2.25957e-05
2.09229e-05
1.93667e-05
1.79195e-05
1.65742e-05
1.5324e-05
1.41628e-05
1.30844e-05
1.20835e-05
1.11547e-05
1.02932e-05
9.4945e-06
8.75425e-06
8.06845e-06
7.43336e-06
6.84546e-06
6.30148e-06
5.79833e-06
5.33316e-06
4.90327e-06
4.50618e-06
4.13953e-06
3.80114e-06
3.48898e-06
3.20115e-06
2.93588e-06
2.69151e-06
2.46651e-06
2.25945e-06
2.069e-06
1.89391e-06
1.73305e-06
1.58532e-06
1.44975e-06
1.32541e-06
1.21144e-06
1.10705e-06
1.01151e-06
9.24126e-07
8.4428e-07
7.71388e-07
7.04912e-07
6.44359e-07
5.89272e-07
5.39233e-07
4.93857e-07
4.52792e-07
4.15719e-07
3.8234e-07
3.52399e-07
3.25639e-07
3.0188e-07
2.80864e-07
2.62555e-07
2.46557e-07
2.33182e-07
2.2157e-07
2.12842e-07
2.0521e-07
2.00951e-07
1.96945e-07
1.97282e-07
1.96614e-07
2.0188e-07
2.04348e-07
2.1509e-07
2.20577e-07
2.37477e-07
2.45929e-07
2.69701e-07
2.81125e-07
3.12249e-07
3.26678e-07
3.64979e-07
3.82416e-07
4.26506e-07
4.46759e-07
4.93921e-07
5.16241e-07
5.6372e-07
5.86946e-07
6.30422e-07
6.52967e-07
6.90312e-07
7.11059e-07
7.4171e-07
7.60012e-07
7.84303e-07
7.9994e-07
8.18674e-07
8.31706e-07
8.45842e-07
8.56484e-07
8.66946e-07
8.75484e-07
8.83077e-07
8.89787e-07
8.95169e-07
9.0039e-07
9.03915e-07
9.08039e-07
9.0983e-07
9.13174e-07
9.1267e-07
9.15331e-07
0.0012076
0.00113755
0.00107162
0.00100906
0.000950077
0.000894225
0.000841521
0.000791687
0.00074465
0.000700219
0.000658286
0.000618703
0.000581359
0.000546128
0.000512903
0.000481576
0.000452046
0.000424217
0.000397997
0.0003733
0.000350043
0.000328147
0.000307538
0.000288145
0.000269901
0.000252743
0.000236609
0.000221443
0.000207191
0.0001938
0.000181223
0.000169413
0.000158326
0.000147921
0.000138159
0.000129002
0.000120416
0.000112367
0.000104823
9.77563e-05
9.11371e-05
8.49393e-05
7.91379e-05
7.37092e-05
6.86307e-05
6.38813e-05
5.9441e-05
5.52911e-05
5.14138e-05
4.77923e-05
4.44108e-05
4.12544e-05
3.83092e-05
3.55618e-05
3.29998e-05
3.06116e-05
2.83861e-05
2.63128e-05
2.43821e-05
2.25848e-05
2.09123e-05
1.93563e-05
1.79094e-05
1.65643e-05
1.53144e-05
1.41533e-05
1.30751e-05
1.20743e-05
1.11457e-05
1.02844e-05
9.48583e-06
8.74571e-06
8.06003e-06
7.42505e-06
6.83726e-06
6.29337e-06
5.79031e-06
5.32523e-06
4.89542e-06
4.4984e-06
4.13181e-06
3.79349e-06
3.48139e-06
3.19361e-06
2.92839e-06
2.68406e-06
2.45911e-06
2.25209e-06
2.06168e-06
1.88662e-06
1.72579e-06
1.57809e-06
1.44255e-06
1.31823e-06
1.20428e-06
1.09992e-06
1.00439e-06
9.17029e-07
8.37199e-07
7.64323e-07
6.97861e-07
6.37321e-07
5.82246e-07
5.32218e-07
4.86853e-07
4.45797e-07
4.08733e-07
3.75362e-07
3.45428e-07
3.18675e-07
2.94923e-07
2.73913e-07
2.5561e-07
2.39616e-07
2.26246e-07
2.14639e-07
2.05916e-07
1.98289e-07
1.94034e-07
1.90032e-07
1.90373e-07
1.89711e-07
1.94979e-07
1.97453e-07
2.08198e-07
2.13691e-07
2.30595e-07
2.39053e-07
2.62828e-07
2.7426e-07
3.05387e-07
3.19823e-07
3.58128e-07
3.75571e-07
4.19666e-07
4.39921e-07
4.87086e-07
5.09406e-07
5.56894e-07
5.80115e-07
6.23596e-07
6.46134e-07
6.83479e-07
7.0422e-07
7.34867e-07
7.53163e-07
7.77451e-07
7.93081e-07
8.11812e-07
8.24839e-07
8.38971e-07
8.49609e-07
8.60068e-07
8.68602e-07
8.76193e-07
8.829e-07
8.88281e-07
8.93499e-07
8.97023e-07
9.01144e-07
9.02937e-07
9.06278e-07
9.05798e-07
9.08471e-07
0.00120744
0.00113739
0.00107147
0.00100892
0.000949942
0.000894097
0.000841399
0.000791572
0.000744541
0.000700115
0.000658188
0.00061861
0.000581271
0.000546045
0.000512825
0.000481501
0.000451975
0.00042415
0.000397934
0.00037324
0.000349986
0.000328093
0.000307487
0.000288097
0.000269855
0.000252699
0.000236568
0.000221404
0.000207154
0.000193765
0.00018119
0.000169381
0.000158296
0.000147893
0.000138132
0.000128976
0.000120391
0.000112343
0.000104801
9.77352e-05
9.1117e-05
8.49202e-05
7.91197e-05
7.36917e-05
6.8614e-05
6.38653e-05
5.94258e-05
5.52765e-05
5.13998e-05
4.77789e-05
4.43979e-05
4.1242e-05
3.82972e-05
3.55503e-05
3.29888e-05
3.06009e-05
2.83758e-05
2.63029e-05
2.43725e-05
2.25755e-05
2.09032e-05
1.93475e-05
1.79008e-05
1.6556e-05
1.53063e-05
1.41454e-05
1.30674e-05
1.20668e-05
1.11383e-05
1.02772e-05
9.47872e-06
8.73872e-06
8.05317e-06
7.4183e-06
6.83061e-06
6.28682e-06
5.78386e-06
5.31886e-06
4.88913e-06
4.49218e-06
4.12567e-06
3.78741e-06
3.47536e-06
3.18764e-06
2.92247e-06
2.67819e-06
2.45328e-06
2.2463e-06
2.05592e-06
1.88091e-06
1.7201e-06
1.57244e-06
1.43692e-06
1.31263e-06
1.19871e-06
1.09436e-06
9.98854e-07
9.1151e-07
8.31698e-07
7.58837e-07
6.9239e-07
6.31863e-07
5.76801e-07
5.26784e-07
4.81429e-07
4.40384e-07
4.03328e-07
3.69966e-07
3.4004e-07
3.13294e-07
2.89548e-07
2.68544e-07
2.50247e-07
2.34259e-07
2.20894e-07
2.09291e-07
2.00573e-07
1.9295e-07
1.887e-07
1.84702e-07
1.85046e-07
1.84389e-07
1.89661e-07
1.9214e-07
2.02888e-07
2.08387e-07
2.25293e-07
2.33759e-07
2.57537e-07
2.68974e-07
3.00106e-07
3.14549e-07
3.52858e-07
3.70308e-07
4.14407e-07
4.34668e-07
4.81836e-07
5.04159e-07
5.5165e-07
5.74871e-07
6.18351e-07
6.40885e-07
6.78228e-07
6.98962e-07
7.29607e-07
7.47897e-07
7.72181e-07
7.87806e-07
8.06533e-07
8.19555e-07
8.33684e-07
8.44318e-07
8.54774e-07
8.63305e-07
8.70893e-07
8.77598e-07
8.82976e-07
8.88192e-07
8.91715e-07
8.95834e-07
8.97628e-07
9.00965e-07
9.00503e-07
9.03192e-07
0.00120727
0.00113723
0.00107132
0.00100878
0.000949806
0.000893969
0.000841278
0.000791457
0.000744433
0.000700012
0.000658091
0.000618518
0.000581184
0.000545962
0.000512747
0.000481427
0.000451906
0.000424084
0.000397871
0.000373181
0.00034993
0.00032804
0.000307437
0.000288049
0.000269811
0.000252657
0.000236528
0.000221367
0.000207118
0.000193732
0.000181158
0.000169351
0.000158268
0.000147866
0.000138106
0.000128952
0.000120368
0.000112322
0.000104781
9.77156e-05
9.10984e-05
8.49025e-05
7.91029e-05
7.36758e-05
6.85988e-05
6.38509e-05
5.9412e-05
5.52634e-05
5.13873e-05
4.77669e-05
4.43865e-05
4.12312e-05
3.82868e-05
3.55403e-05
3.29792e-05
3.05918e-05
2.8367e-05
2.62944e-05
2.43644e-05
2.25677e-05
2.08956e-05
1.93402e-05
1.78938e-05
1.65492e-05
1.52997e-05
1.4139e-05
1.30612e-05
1.20607e-05
1.11325e-05
1.02715e-05
9.47315e-06
8.7333e-06
8.04786e-06
7.41311e-06
6.82553e-06
6.28184e-06
5.77897e-06
5.31405e-06
4.88441e-06
4.48753e-06
4.12109e-06
3.78289e-06
3.47091e-06
3.18324e-06
2.91812e-06
2.67389e-06
2.44903e-06
2.24209e-06
2.05175e-06
1.87677e-06
1.716e-06
1.56836e-06
1.43287e-06
1.30861e-06
1.19471e-06
1.09038e-06
9.94898e-07
9.07573e-07
8.27778e-07
7.54933e-07
6.88501e-07
6.27988e-07
5.72938e-07
5.22933e-07
4.77589e-07
4.36553e-07
3.99507e-07
3.66153e-07
3.36235e-07
3.09496e-07
2.85757e-07
2.6476e-07
2.46468e-07
2.30486e-07
2.17126e-07
2.05528e-07
1.96815e-07
1.89196e-07
1.8495e-07
1.80957e-07
1.81305e-07
1.80652e-07
1.85926e-07
1.88411e-07
1.99161e-07
2.04666e-07
2.21576e-07
2.30047e-07
2.53828e-07
2.65273e-07
2.96408e-07
3.10859e-07
3.49172e-07
3.66628e-07
4.10734e-07
4.30998e-07
4.78174e-07
5.00497e-07
5.47994e-07
5.71211e-07
6.14692e-07
6.37221e-07
6.74563e-07
6.95291e-07
7.25932e-07
7.44217e-07
7.68497e-07
7.84116e-07
8.0284e-07
8.15856e-07
8.29982e-07
8.40612e-07
8.51066e-07
8.59593e-07
8.67179e-07
8.73881e-07
8.79258e-07
8.84471e-07
8.87993e-07
8.9211e-07
8.93903e-07
8.97237e-07
8.96793e-07
8.995e-07
0.0012071
0.00113707
0.00107117
0.00100864
0.000949671
0.000893841
0.000841157
0.000791342
0.000744324
0.00069991
0.000657994
0.000618427
0.000581097
0.00054588
0.000512669
0.000481354
0.000451837
0.000424019
0.00039781
0.000373123
0.000349875
0.000327988
0.000307388
0.000288003
0.000269767
0.000252616
0.000236489
0.00022133
0.000207084
0.000193699
0.000181127
0.000169322
0.00015824
0.000147839
0.000138081
0.000128929
0.000120346
0.000112301
0.000104761
9.7697e-05
9.10808e-05
8.48859e-05
7.90872e-05
7.36609e-05
6.85848e-05
6.38376e-05
5.93995e-05
5.52515e-05
5.1376e-05
4.77562e-05
4.43763e-05
4.12215e-05
3.82777e-05
3.55316e-05
3.29709e-05
3.05839e-05
2.83594e-05
2.62872e-05
2.43575e-05
2.25611e-05
2.08894e-05
1.93342e-05
1.7888e-05
1.65437e-05
1.52944e-05
1.41339e-05
1.30563e-05
1.2056e-05
1.11279e-05
1.0267e-05
9.46889e-06
8.72916e-06
8.04385e-06
7.40922e-06
6.82174e-06
6.27816e-06
5.77538e-06
5.31055e-06
4.88099e-06
4.48419e-06
4.11781e-06
3.77968e-06
3.46776e-06
3.18015e-06
2.91508e-06
2.6709e-06
2.44608e-06
2.23918e-06
2.04888e-06
1.87394e-06
1.7132e-06
1.56559e-06
1.43014e-06
1.30589e-06
1.19202e-06
1.08772e-06
9.92254e-07
9.04948e-07
8.25171e-07
7.52342e-07
6.85925e-07
6.25426e-07
5.70389e-07
5.20395e-07
4.75063e-07
4.34037e-07
3.97e-07
3.63655e-07
3.33745e-07
3.07013e-07
2.83281e-07
2.6229e-07
2.44004e-07
2.28027e-07
2.14673e-07
2.03079e-07
1.94371e-07
1.86756e-07
1.82515e-07
1.78526e-07
1.78877e-07
1.78229e-07
1.83507e-07
1.85995e-07
1.96749e-07
2.0226e-07
2.19171e-07
2.2765e-07
2.51434e-07
2.62886e-07
2.94025e-07
3.08482e-07
3.46801e-07
3.64263e-07
4.08376e-07
4.28643e-07
4.75827e-07
4.98151e-07
5.45652e-07
5.68867e-07
6.1235e-07
6.34874e-07
6.72214e-07
6.92936e-07
7.23574e-07
7.41852e-07
7.66129e-07
7.81743e-07
8.00462e-07
8.13474e-07
8.27597e-07
8.38222e-07
8.48673e-07
8.57197e-07
8.64781e-07
8.7148e-07
8.76856e-07
8.82066e-07
8.85587e-07
8.89701e-07
8.91494e-07
8.94825e-07
8.94401e-07
8.97125e-07
0.00120693
0.00113691
0.00107102
0.00100849
0.000949535
0.000893713
0.000841036
0.000791228
0.000744216
0.000699807
0.000657897
0.000618335
0.000581011
0.000545799
0.000512592
0.000481281
0.000451768
0.000423954
0.000397748
0.000373065
0.00034982
0.000327937
0.000307339
0.000287957
0.000269724
0.000252575
0.000236451
0.000221294
0.000207049
0.000193667
0.000181097
0.000169293
0.000158213
0.000147814
0.000138058
0.000128906
0.000120325
0.000112281
0.000104742
9.76793e-05
9.10641e-05
8.48702e-05
7.90723e-05
7.36469e-05
6.85716e-05
6.38252e-05
5.93877e-05
5.52404e-05
5.13656e-05
4.77464e-05
4.43671e-05
4.12127e-05
3.82694e-05
3.55238e-05
3.29635e-05
3.05769e-05
2.83528e-05
2.6281e-05
2.43516e-05
2.25555e-05
2.0884e-05
1.93291e-05
1.78832e-05
1.65391e-05
1.529e-05
1.41297e-05
1.30523e-05
1.20522e-05
1.11243e-05
1.02636e-05
9.46556e-06
8.72597e-06
8.04079e-06
7.40627e-06
6.81891e-06
6.27542e-06
5.77274e-06
5.308e-06
4.87852e-06
4.4818e-06
4.11549e-06
3.77743e-06
3.46557e-06
3.17802e-06
2.913e-06
2.66887e-06
2.44409e-06
2.23724e-06
2.04698e-06
1.87207e-06
1.71136e-06
1.56379e-06
1.42836e-06
1.30414e-06
1.19029e-06
1.08601e-06
9.90571e-07
9.03285e-07
8.23526e-07
7.50714e-07
6.84312e-07
6.23827e-07
5.68803e-07
5.18821e-07
4.735e-07
4.32484e-07
3.95457e-07
3.6212e-07
3.32218e-07
3.05494e-07
2.81769e-07
2.60784e-07
2.42505e-07
2.26533e-07
2.13184e-07
2.01595e-07
1.92893e-07
1.85281e-07
1.81044e-07
1.77059e-07
1.77415e-07
1.7677e-07
1.82051e-07
1.84546e-07
1.95302e-07
2.00818e-07
2.17732e-07
2.26217e-07
2.50004e-07
2.61463e-07
2.92605e-07
3.07069e-07
3.45395e-07
3.62861e-07
4.06982e-07
4.27253e-07
4.74446e-07
4.9677e-07
5.44277e-07
5.67489e-07
6.10973e-07
6.33492e-07
6.70831e-07
6.91547e-07
7.22182e-07
7.40454e-07
7.64727e-07
7.80335e-07
7.99051e-07
8.12058e-07
8.26177e-07
8.36799e-07
8.47247e-07
8.55767e-07
8.63349e-07
8.70045e-07
8.75419e-07
8.80627e-07
8.84147e-07
8.88258e-07
8.90051e-07
8.93379e-07
8.92974e-07
8.95721e-07
0.00120676
0.00113675
0.00107087
0.00100835
0.000949399
0.000893584
0.000840914
0.000791112
0.000744107
0.000699704
0.000657799
0.000618243
0.000580924
0.000545717
0.000512515
0.000481208
0.000451699
0.000423889
0.000397687
0.000373007
0.000349766
0.000327885
0.000307291
0.000287912
0.000269681
0.000252534
0.000236413
0.000221258
0.000207015
0.000193635
0.000181067
0.000169265
0.000158186
0.000147789
0.000138034
0.000128884
0.000120304
0.000112261
0.000104724
9.7662e-05
9.10479e-05
8.48549e-05
7.9058e-05
7.36335e-05
6.85589e-05
6.38133e-05
5.93765e-05
5.52299e-05
5.13557e-05
4.77371e-05
4.43583e-05
4.12045e-05
3.82617e-05
3.55165e-05
3.29567e-05
3.05704e-05
2.83468e-05
2.62753e-05
2.43462e-05
2.25504e-05
2.08793e-05
1.93247e-05
1.7879e-05
1.65351e-05
1.52862e-05
1.41262e-05
1.30489e-05
1.2049e-05
1.11212e-05
1.02607e-05
9.46285e-06
8.7234e-06
8.03835e-06
7.40395e-06
6.8167e-06
6.27332e-06
5.77073e-06
5.30608e-06
4.87668e-06
4.48004e-06
4.11381e-06
3.77581e-06
3.46401e-06
3.17652e-06
2.91155e-06
2.66747e-06
2.44275e-06
2.23593e-06
2.04571e-06
1.87084e-06
1.71017e-06
1.56262e-06
1.42722e-06
1.30303e-06
1.18921e-06
1.08495e-06
9.89531e-07
9.02265e-07
8.22523e-07
7.49728e-07
6.83341e-07
6.2287e-07
5.67859e-07
5.1789e-07
4.7258e-07
4.31575e-07
3.94557e-07
3.61229e-07
3.31335e-07
3.04619e-07
2.809e-07
2.59922e-07
2.41648e-07
2.25683e-07
2.12339e-07
2.00755e-07
1.92057e-07
1.8445e-07
1.80217e-07
1.76236e-07
1.76595e-07
1.75956e-07
1.8124e-07
1.83739e-07
1.94498e-07
2.0002e-07
2.16937e-07
2.25429e-07
2.49218e-07
2.60684e-07
2.91831e-07
3.06301e-07
3.44632e-07
3.62104e-07
4.06233e-07
4.26507e-07
4.73707e-07
4.96032e-07
5.43547e-07
5.66756e-07
6.10242e-07
6.32756e-07
6.70094e-07
6.90804e-07
7.21437e-07
7.39702e-07
7.63971e-07
7.79574e-07
7.98285e-07
8.11287e-07
8.25403e-07
8.3602e-07
8.46466e-07
8.54982e-07
8.62562e-07
8.69255e-07
8.74627e-07
8.79833e-07
8.83351e-07
8.8746e-07
8.89253e-07
8.92578e-07
8.92194e-07
8.94976e-07
0.0012065
0.00113651
0.00107064
0.00100813
0.000949193
0.000893389
0.000840729
0.000790938
0.000743942
0.000699549
0.000657652
0.000618105
0.000580793
0.000545593
0.000512398
0.000481098
0.000451595
0.000423791
0.000397595
0.00037292
0.000349684
0.000327808
0.000307218
0.000287843
0.000269616
0.000252474
0.000236355
0.000221204
0.000206965
0.000193587
0.000181022
0.000169223
0.000158147
0.000147752
0.000137999
0.000128851
0.000120273
0.000112232
0.000104696
9.76364e-05
9.10238e-05
8.48323e-05
7.90368e-05
7.36136e-05
6.85403e-05
6.37958e-05
5.93601e-05
5.52146e-05
5.13413e-05
4.77236e-05
4.43457e-05
4.11926e-05
3.82505e-05
3.55061e-05
3.29469e-05
3.05613e-05
2.83382e-05
2.62672e-05
2.43387e-05
2.25434e-05
2.08726e-05
1.93185e-05
1.78732e-05
1.65296e-05
1.52811e-05
1.41214e-05
1.30444e-05
1.20448e-05
1.11173e-05
1.0257e-05
9.45934e-06
8.7201e-06
8.03524e-06
7.40103e-06
6.81394e-06
6.27072e-06
5.76828e-06
5.30377e-06
4.8745e-06
4.47797e-06
4.11185e-06
3.77395e-06
3.46225e-06
3.17484e-06
2.90996e-06
2.66596e-06
2.4413e-06
2.23455e-06
2.04439e-06
1.86957e-06
1.70895e-06
1.56146e-06
1.4261e-06
1.30195e-06
1.18817e-06
1.08395e-06
9.88556e-07
9.01319e-07
8.21605e-07
7.48835e-07
6.82472e-07
6.22023e-07
5.67032e-07
5.17082e-07
4.71788e-07
4.30799e-07
3.93795e-07
3.60481e-07
3.306e-07
3.03895e-07
2.80187e-07
2.59218e-07
2.40954e-07
2.24997e-07
2.11661e-07
2.00084e-07
1.91394e-07
1.83793e-07
1.79567e-07
1.75592e-07
1.75957e-07
1.75324e-07
1.80613e-07
1.8312e-07
1.93882e-07
1.99413e-07
2.16334e-07
2.24834e-07
2.48628e-07
2.60104e-07
2.91257e-07
3.05737e-07
3.44078e-07
3.61558e-07
4.057e-07
4.25979e-07
4.73193e-07
4.9552e-07
5.43043e-07
5.66248e-07
6.09738e-07
6.32244e-07
6.69581e-07
6.90282e-07
7.20909e-07
7.39166e-07
7.63429e-07
7.79023e-07
7.97729e-07
8.10723e-07
8.24834e-07
8.35445e-07
8.45885e-07
8.54397e-07
8.61973e-07
8.68662e-07
8.74032e-07