/*--------------------------------*- C++ -*----------------------------------*\
| =========                 |                                                 |
| \\      /  F ield         | OpenFOAM: The Open Source CFD Toolbox           |
|  \\    /   O peration     | Version:  v1912                                 |
|   \\  /    A nd           | Website:  www.openfoam.com                      |
|    \\/     M anipulation  |                                                 |
\*---------------------------------------------------------------------------*/
FoamFile
{
    version     2.0;
    format      ascii;
    class       volVectorField;
    location    "10";
    object      U;
}
// * * * * * * * * * * * * * * * * * * * * * * * * * * * * * * * * * * * * * //

dimensions      [0 1 -1 0 0 0 0];


internalField   nonuniform List<vector> 
14268
(
(-0.424632 -0.0272131 0)
(-0.433629 -0.0187772 0)
(-0.454616 -0.0133017 0)
(-0.470075 -0.00944576 0)
(-0.480817 -0.00627325 0)
(-0.486763 -0.00327507 0)
(-0.487525 -0.000151907 0)
(-0.482538 0.00324051 0)
(-0.47121 0.0069092 0)
(-0.453088 0.0107447 0)
(-0.428034 0.0145334 0)
(-0.396328 0.0180028 0)
(-0.358696 0.0208822 0)
(-0.31625 0.0229694 0)
(-0.270244 0.0241774 0)
(-0.221544 0.0243518 0)
(-0.17257 0.0222078 0)
(-0.126452 0.0198067 0)
(-0.0841656 0.0174546 0)
(-0.0458916 0.0153642 0)
(-0.0151632 0.0138492 0)
(0.0185247 0.0132623 0)
(0.0564943 0.0127739 0)
(0.0893332 0.0126169 0)
(0.121634 0.0129072 0)
(0.154131 0.0134158 0)
(0.186969 0.0138299 0)
(0.219685 0.0138602 0)
(0.251368 0.0133018 0)
(0.280824 0.0120593 0)
(0.306745 0.0101483 0)
(0.32788 0.00768134 0)
(0.343192 0.00484143 0)
(0.351961 0.00184735 0)
(0.353842 -0.00107526 0)
(0.348868 -0.0037789 0)
(0.337382 -0.00610726 0)
(0.319946 -0.00802719 0)
(0.297253 -0.00955165 0)
(0.270013 -0.0107388 0)
(0.238894 -0.0116667 0)
(0.204491 -0.0124071 0)
(0.167336 -0.0130052 0)
(0.127919 -0.0134671 0)
(0.0860708 -0.0137491 0)
(0.0433627 -0.0132367 0)
(0.00616935 -0.01248 0)
(-0.0319672 -0.0123411 0)
(-0.0717863 -0.0110044 0)
(-0.105262 -0.00936648 0)
(-0.13419 -0.00736615 0)
(-0.157353 -0.00517681 0)
(-0.174399 -0.00296077 0)
(-0.185261 -0.00093569 0)
(-0.190503 0.000628334 0)
(-0.190838 0.00231422 0)
(-0.187297 0.00332031 0)
(-0.18118 0.00373066 0)
(-0.173567 0.00370473 0)
(-0.16556 0.00336059 0)
(-0.157955 0.00274241 0)
(-0.151772 0.00153425 0)
(-0.147779 0.000330226 0)
(-0.145807 -0.000497229 0)
(-0.144956 -0.000739387 0)
(-0.144351 -0.000759905 0)
(-0.143465 -0.000482807 0)
(-0.141649 -5.43539e-05 0)
(-0.138388 0.000432161 0)
(-0.133271 0.000957683 0)
(-0.126015 0.0015005 0)
(-0.116469 0.00203512 0)
(-0.104606 0.00254116 0)
(-0.0904792 0.00300826 0)
(-0.0742069 0.00343533 0)
(-0.0558277 0.0038312 0)
(-0.0358385 0.00419064 0)
(-0.0126995 0.00457468 0)
(0.0104662 0.00464997 0)
(0.0341052 0.00523109 0)
(0.0610549 0.00545493 0)
(0.0883317 0.00562399 0)
(0.116103 0.00572488 0)
(0.143912 0.00572239 0)
(0.171209 0.00559448 0)
(0.197355 0.00532552 0)
(0.221648 0.00490544 0)
(0.243343 0.00432883 0)
(0.261667 0.00359379 0)
(0.275843 0.00270243 0)
(0.28509 0.00165404 0)
(0.288694 0.00052337 0)
(0.286001 -0.00084908 0)
(0.276432 -0.00229863 0)
(0.259536 -0.00383113 0)
(0.235053 -0.00540156 0)
(0.20298 -0.00695281 0)
(0.163616 -0.00841153 0)
(0.117639 -0.00969259 0)
(0.0660558 -0.0107046 0)
(0.0103894 -0.0113654 0)
(-0.0476706 -0.0115796 0)
(-0.106124 -0.0113202 0)
(-0.162627 -0.0105582 0)
(-0.214976 -0.00931403 0)
(-0.261007 -0.00764573 0)
(-0.298867 -0.00564877 0)
(-0.327101 -0.00343736 0)
(-0.344891 -0.00116645 0)
(-0.351627 0.00138627 0)
(-0.347821 0.00287697 0)
(-0.334475 0.00450657 0)
(-0.312493 0.00571818 0)
(-0.283615 0.00651444 0)
(-0.249537 0.00691532 0)
(-0.21221 0.00697133 0)
(-0.172223 0.007095 0)
(-0.130921 0.00574537 0)
(-0.0919979 0.00523739 0)
(-0.054985 0.00471498 0)
(-0.0232188 0.00413404 0)
(0.00856835 0.00358913 0)
(0.0411155 0.00323565 0)
(0.0687645 0.00282893 0)
(0.0947186 0.00242409 0)
(0.117464 0.00204525 0)
(0.137727 0.00165167 0)
(0.155141 0.00125097 0)
(0.16977 0.000846895 0)
(0.18159 0.000460255 0)
(0.190707 0.00011629 0)
(0.197313 -0.00016161 0)
(0.201698 -0.000352058 0)
(0.204203 -0.000472639 0)
(0.205141 -0.000498794 0)
(0.204887 -0.000351671 0)
(0.203622 -0.000274937 0)
(0.201314 -0.000207739 0)
(0.197866 -0.000195317 0)
(0.19299 -0.000264519 0)
(0.186283 -0.000425377 0)
(0.177305 -0.000669221 0)
(0.16561 -0.000972483 0)
(0.150888 -0.0012985 0)
(0.132907 -0.00160855 0)
(0.11166 -0.00186368 0)
(0.0875324 -0.00202629 0)
(0.0598642 -0.002122 0)
(0.0308884 -0.00199072 0)
(0.00115225 -0.00182026 0)
(-0.0303116 -0.00162712 0)
(-0.0618837 -0.00132581 0)
(-0.0929715 -0.000998765 0)
(-0.122806 -0.000670225 0)
(-0.151094 -0.00035403 0)
(-0.1773 -6.30064e-05 0)
(-0.201141 0.00020119 0)
(-0.222234 0.000443974 0)
(-0.240414 0.000668996 0)
(-0.255172 0.000888525 0)
(-0.266648 0.00109382 0)
(-0.273776 0.00129946 0)
(-0.277723 0.00145858 0)
(-0.275439 0.0016205 0)
(-0.41127 -0.00482915 0)
(-0.43211 0.00131229 0)
(-0.454429 0.00382562 0)
(-0.470478 0.00377056 0)
(-0.481439 0.00243703 0)
(-0.487474 0.000439613 0)
(-0.488281 -0.00202284 0)
(-0.483318 -0.00486239 0)
(-0.471981 -0.00803408 0)
(-0.453803 -0.0113887 0)
(-0.428634 -0.0147317 0)
(-0.396745 -0.0178306 0)
(-0.358858 -0.0204296 0)
(-0.316085 -0.0222792 0)
(-0.269772 -0.023214 0)
(-0.221353 -0.0235432 0)
(-0.172548 -0.0252836 0)
(-0.125965 -0.0268933 0)
(-0.0833508 -0.0269959 0)
(-0.0448774 -0.0260659 0)
(-0.013967 -0.0243551 0)
(0.0195634 -0.0215451 0)
(0.0571134 -0.0205422 0)
(0.0897649 -0.0201974 0)
(0.122039 -0.0201082 0)
(0.154574 -0.0200523 0)
(0.187505 -0.0198389 0)
(0.220376 -0.0192725 0)
(0.25227 -0.0181708 0)
(0.281968 -0.0164074 0)
(0.308127 -0.0139456 0)
(0.32946 -0.0108462 0)
(0.344899 -0.00725299 0)
(0.353713 -0.0033641 0)
(0.35554 0.000589849 0)
(0.350438 0.00452004 0)
(0.338774 0.00816794 0)
(0.321119 0.0114672 0)
(0.298196 0.0143789 0)
(0.270731 0.0169031 0)
(0.239395 0.0190583 0)
(0.204778 0.0208592 0)
(0.167399 0.0222957 0)
(0.127736 0.0233197 0)
(0.0858093 0.0238498 0)
(0.0429512 0.0249916 0)
(0.00498768 0.0250596 0)
(-0.0336146 0.0227248 0)
(-0.0735264 0.0210393 0)
(-0.107328 0.0184986 0)
(-0.136452 0.0154597 0)
(-0.159702 0.0120279 0)
(-0.176704 0.00844167 0)
(-0.187429 0.00493777 0)
(-0.192181 0.00171532 0)
(-0.191933 -0.000550201 0)
(-0.188007 -0.00235421 0)
(-0.181431 -0.00339052 0)
(-0.173369 -0.00371213 0)
(-0.165038 -0.00341585 0)
(-0.157441 -0.00278477 0)
(-0.151399 -0.00249504 0)
(-0.147398 -0.00229341 0)
(-0.145369 -0.00196623 0)
(-0.144625 -0.00136003 0)
(-0.144275 -0.00106531 0)
(-0.14364 -0.00114788 0)
(-0.142088 -0.00166253 0)
(-0.139025 -0.00256756 0)
(-0.134008 -0.00374745 0)
(-0.126766 -0.00508652 0)
(-0.117174 -0.00648864 0)
(-0.105226 -0.00788326 0)
(-0.0909966 -0.00922555 0)
(-0.0746178 -0.0104946 0)
(-0.0561408 -0.0116756 0)
(-0.0360439 -0.0128081 0)
(-0.0129005 -0.0137332 0)
(0.0104563 -0.0152006 0)
(0.0343003 -0.0155441 0)
(0.0612743 -0.0162095 0)
(0.0887345 -0.0166934 0)
(0.116718 -0.0169066 0)
(0.14476 -0.0168032 0)
(0.172309 -0.0163338 0)
(0.198717 -0.0154555 0)
(0.223275 -0.0141345 0)
(0.245228 -0.012348 0)
(0.263795 -0.0100841 0)
(0.278192 -0.00734153 0)
(0.287653 -0.00413194 0)
(0.291393 -0.000448022 0)
(0.288768 0.00356731 0)
(0.279237 0.00794326 0)
(0.262273 0.0125653 0)
(0.237602 0.0172957 0)
(0.2052 0.0219612 0)
(0.165352 0.0263548 0)
(0.118728 0.0302406 0)
(0.066342 0.0333736 0)
(0.00974835 0.0354978 0)
(-0.0493245 0.0364559 0)
(-0.10882 0.0360306 0)
(-0.166312 0.0341747 0)
(-0.219522 0.0309013 0)
(-0.266212 0.0263334 0)
(-0.304459 0.020691 0)
(-0.332774 0.0142849 0)
(-0.35019 0.00747753 0)
(-0.356567 0.000802727 0)
(-0.352108 -0.0058482 0)
(-0.337601 -0.0116383 0)
(-0.314536 -0.0164963 0)
(-0.284553 -0.0202519 0)
(-0.249447 -0.022829 0)
(-0.211112 -0.0243053 0)
(-0.170773 -0.024352 0)
(-0.129124 -0.0252395 0)
(-0.0895436 -0.0247063 0)
(-0.0524404 -0.0233548 0)
(-0.0207218 -0.0220086 0)
(0.0110306 -0.0203283 0)
(0.0434778 -0.0185874 0)
(0.0709772 -0.0169169 0)
(0.0968471 -0.0153348 0)
(0.119537 -0.0136591 0)
(0.139743 -0.0119477 0)
(0.157084 -0.0101684 0)
(0.171599 -0.00836332 0)
(0.18325 -0.00658245 0)
(0.192141 -0.00489603 0)
(0.198478 -0.00337345 0)
(0.202571 -0.0020683 0)
(0.204804 -0.00100263 0)
(0.205577 -0.000160736 0)
(0.2052 0.00054805 0)
(0.203871 0.00117496 0)
(0.201632 0.00184671 0)
(0.198326 0.00267312 0)
(0.19363 0.0037489 0)
(0.187098 0.00513451 0)
(0.178236 0.00684317 0)
(0.166558 0.0088328 0)
(0.151723 0.0110174 0)
(0.133487 0.013268 0)
(0.111857 0.0154403 0)
(0.0872315 0.0174143 0)
(0.0590485 0.0189659 0)
(0.0295401 0.0202738 0)
(-0.000759057 0.0210163 0)
(-0.0326668 0.0211663 0)
(-0.0645635 0.0209252 0)
(-0.0958901 0.0202639 0)
(-0.12586 0.0192381 0)
(-0.154198 0.0179171 0)
(-0.180387 0.0163433 0)
(-0.204162 0.014551 0)
(-0.225154 0.0125592 0)
(-0.243197 0.0103635 0)
(-0.25778 0.00796828 0)
(-0.269022 0.00535715 0)
(-0.275842 0.00257537 0)
(-0.279384 -0.000452965 0)
(-0.276602 -0.00361559 0)
(-0.402569 0.000760042 0)
(-0.430824 0.00451802 0)
(-0.454138 0.00634516 0)
(-0.47098 0.00576335 0)
(-0.482343 0.00357946 0)
(-0.488572 0.000465865 0)
(-0.489483 -0.00314817 0)
(-0.484574 -0.00759351 0)
(-0.473237 -0.0124211 0)
(-0.454975 -0.0173272 0)
(-0.429631 -0.0220119 0)
(-0.397476 -0.0261583 0)
(-0.359243 -0.0294605 0)
(-0.316087 -0.0316811 0)
(-0.269473 -0.0327607 0)
(-0.221071 -0.0330349 0)
(-0.172605 -0.0333722 0)
(-0.1259 -0.0344821 0)
(-0.0826955 -0.0346985 0)
(-0.0437926 -0.033178 0)
(-0.0124156 -0.0307522 0)
(0.0209683 -0.0268217 0)
(0.0579796 -0.0253248 0)
(0.0904809 -0.0245929 0)
(0.122691 -0.0241858 0)
(0.155248 -0.0238214 0)
(0.188273 -0.0232661 0)
(0.221291 -0.0223039 0)
(0.253358 -0.0207567 0)
(0.283222 -0.0185177 0)
(0.309507 -0.0155753 0)
(0.330902 -0.0120163 0)
(0.346327 -0.00800677 0)
(0.35504 -0.00376084 0)
(0.356746 0.000484219 0)
(0.351476 0.00464251 0)
(0.339585 0.00845697 0)
(0.321719 0.0118646 0)
(0.298596 0.0148316 0)
(0.270947 0.0173607 0)
(0.239442 0.0194718 0)
(0.204667 0.0211814 0)
(0.167133 0.0224861 0)
(0.127307 0.023359 0)
(0.0854533 0.0237781 0)
(0.0425575 0.0246482 0)
(0.00407611 0.0246129 0)
(-0.0346619 0.022068 0)
(-0.074435 0.0203215 0)
(-0.108278 0.0178131 0)
(-0.137369 0.0149135 0)
(-0.160551 0.0117149 0)
(-0.177433 0.00843382 0)
(-0.18798 0.00531487 0)
(-0.192604 0.00263548 0)
(-0.192284 0.000445572 0)
(-0.188205 -0.00118257 0)
(-0.181491 -0.0021883 0)
(-0.173373 -0.00264468 0)
(-0.165032 -0.00266722 0)
(-0.157466 -0.00246891 0)
(-0.151486 -0.0022918 0)
(-0.147512 -0.00218376 0)
(-0.145412 -0.00204284 0)
(-0.144584 -0.00175573 0)
(-0.144239 -0.00158766 0)
(-0.143638 -0.00174313 0)
(-0.142095 -0.00221638 0)
(-0.139032 -0.00296149 0)
(-0.134016 -0.00392552 0)
(-0.126772 -0.00504245 0)
(-0.117175 -0.0062456 0)
(-0.105216 -0.00747767 0)
(-0.090968 -0.00869487 0)
(-0.074563 -0.00986976 0)
(-0.0560614 -0.0109731 0)
(-0.0359073 -0.01205 0)
(-0.0128228 -0.0128559 0)
(0.0106198 -0.0143892 0)
(0.0346256 -0.0146613 0)
(0.0615641 -0.0151904 0)
(0.0890477 -0.0155743 0)
(0.117061 -0.0157201 0)
(0.14513 -0.0155738 0)
(0.172699 -0.0150893 0)
(0.19912 -0.0142262 0)
(0.223683 -0.0129521 0)
(0.245632 -0.0112439 0)
(0.264184 -0.0090892 0)
(0.278552 -0.0064881 0)
(0.287956 -0.00344982 0)
(0.291635 -1.82346e-05 0)
(0.288942 0.00375221 0)
(0.279313 0.00783954 0)
(0.26224 0.0121402 0)
(0.237449 0.0165241 0)
(0.204925 0.0208325 0)
(0.164957 0.024879 0)
(0.118227 0.0284538 0)
(0.0657545 0.0313454 0)
(0.00911294 0.0333143 0)
(-0.0499768 0.0342814 0)
(-0.109463 0.0339831 0)
(-0.166906 0.0324055 0)
(-0.22004 0.0295451 0)
(-0.266632 0.025501 0)
(-0.304774 0.0204524 0)
(-0.332982 0.0146559 0)
(-0.350378 0.00842384 0)
(-0.356562 0.00196311 0)
(-0.351953 -0.00397634 0)
(-0.337517 -0.0095842 0)
(-0.314422 -0.0144213 0)
(-0.284417 -0.0183261 0)
(-0.249293 -0.0211891 0)
(-0.210912 -0.0230529 0)
(-0.170651 -0.0237722 0)
(-0.129148 -0.0245225 0)
(-0.0894089 -0.0251186 0)
(-0.0521602 -0.0240543 0)
(-0.0203738 -0.0230896 0)
(0.0114634 -0.0214252 0)
(0.0438842 -0.0198068 0)
(0.0713574 -0.0181177 0)
(0.0971854 -0.0165707 0)
(0.119845 -0.0148824 0)
(0.140002 -0.0131683 0)
(0.157297 -0.0113814 0)
(0.17177 -0.00956715 0)
(0.183392 -0.00776471 0)
(0.192269 -0.00603283 0)
(0.198605 -0.004429 0)
(0.202715 -0.00299967 0)
(0.204964 -0.00176028 0)
(0.205706 -0.000718328 0)
(0.20532 0.000161403 0)
(0.203986 0.00102812 0)
(0.201687 0.00190956 0)
(0.198298 0.00291223 0)
(0.193502 0.00412154 0)
(0.186862 0.00559862 0)
(0.177897 0.00736608 0)
(0.166132 0.00939772 0)
(0.151236 0.0116312 0)
(0.132969 0.013956 0)
(0.111346 0.0162508 0)
(0.0867402 0.0184072 0)
(0.0586174 0.0201825 0)
(0.029188 0.0218093 0)
(-0.00107603 0.0228555 0)
(-0.032937 0.023329 0)
(-0.0647816 0.023385 0)
(-0.0960759 0.0229924 0)
(-0.126019 0.0221758 0)
(-0.154327 0.0210042 0)
(-0.180479 0.0195159 0)
(-0.204199 0.0177506 0)
(-0.225121 0.0157384 0)
(-0.243076 0.0134794 0)
(-0.257564 0.010992 0)
(-0.268709 0.00824595 0)
(-0.275441 0.00529946 0)
(-0.278958 0.00195908 0)
(-0.276182 -0.00143021 0)
(-0.39711 0.00798216 0)
(-0.43032 0.00886168 0)
(-0.454272 0.00883875 0)
(-0.471793 0.00726121 0)
(-0.483627 0.00431144 0)
(-0.490089 0.000656555 0)
(-0.49126 -0.00392743 0)
(-0.486601 -0.00951817 0)
(-0.47527 -0.0155606 0)
(-0.456869 -0.0217033 0)
(-0.431253 -0.0275856 0)
(-0.398703 -0.0328253 0)
(-0.35998 -0.0370635 0)
(-0.316298 -0.0400389 0)
(-0.269216 -0.0416835 0)
(-0.220512 -0.0422099 0)
(-0.172032 -0.0420652 0)
(-0.125425 -0.0419037 0)
(-0.0818439 -0.0417367 0)
(-0.0424128 -0.0401659 0)
(-0.0106576 -0.0374125 0)
(0.0224762 -0.0327534 0)
(0.0587694 -0.0311272 0)
(0.0909982 -0.0305041 0)
(0.123134 -0.0302951 0)
(0.155722 -0.0301466 0)
(0.188867 -0.029755 0)
(0.222081 -0.0288301 0)
(0.254403 -0.0271228 0)
(0.284547 -0.0244663 0)
(0.3111 -0.0208105 0)
(0.332711 -0.0162334 0)
(0.348271 -0.0109265 0)
(0.357029 -0.00515813 0)
(0.35868 0.000772891 0)
(0.353279 0.00662637 0)
(0.341204 0.0121583 0)
(0.323115 0.0172061 0)
(0.299757 0.021697 0)
(0.271878 0.0256166 0)
(0.240153 0.0289823 0)
(0.205162 0.031812 0)
(0.16741 0.0341008 0)
(0.12737 0.0358183 0)
(0.0854092 0.0369659 0)
(0.0423714 0.0379786 0)
(0.00313886 0.0381997 0)
(-0.0360698 0.0350319 0)
(-0.0758775 0.0324404 0)
(-0.110018 0.0286326 0)
(-0.139286 0.0240617 0)
(-0.162554 0.0188991 0)
(-0.179398 0.0134916 0)
(-0.189778 0.00822265 0)
(-0.194076 0.00348755 0)
(-0.19335 -0.000192204 0)
(-0.188922 -0.00276744 0)
(-0.181872 -0.0045717 0)
(-0.173431 -0.00538109 0)
(-0.164861 -0.00536555 0)
(-0.157205 -0.00482613 0)
(-0.151217 -0.0041183 0)
(-0.147246 -0.00337092 0)
(-0.145162 -0.00266288 0)
(-0.144413 -0.00208464 0)
(-0.144229 -0.0018961 0)
(-0.143823 -0.00226044 0)
(-0.14247 -0.00320712 0)
(-0.139559 -0.00466988 0)
(-0.134642 -0.00652921 0)
(-0.127444 -0.0086472 0)
(-0.117846 -0.0108941 0)
(-0.105854 -0.0131648 0)
(-0.0915525 -0.015386 0)
(-0.075081 -0.0175164 0)
(-0.0565179 -0.0195237 0)
(-0.0362624 -0.0214601 0)
(-0.0132393 -0.0230432 0)
(0.0103554 -0.0254216 0)
(0.0346245 -0.0263525 0)
(0.0615817 -0.0274401 0)
(0.0892091 -0.0282353 0)
(0.117405 -0.028608 0)
(0.145685 -0.0284521 0)
(0.173489 -0.0276755 0)
(0.200162 -0.0261993 0)
(0.224988 -0.0239605 0)
(0.247202 -0.0209146 0)
(0.266014 -0.0170355 0)
(0.28063 -0.0123183 0)
(0.290268 -0.00677666 0)
(0.294125 -0.000451147 0)
(0.291569 0.00652029 0)
(0.28204 0.0141237 0)
(0.264975 0.0221702 0)
(0.240086 0.0304212 0)
(0.207337 0.038577 0)
(0.167001 0.0462789 0)
(0.119754 0.0531172 0)
(0.0666087 0.0586689 0)
(0.00918162 0.0624701 0)
(-0.0507957 0.0643044 0)
(-0.111237 0.0637063 0)
(-0.16961 0.0606165 0)
(-0.223598 0.0550326 0)
(-0.270896 0.047152 0)
(-0.309535 0.0373388 0)
(-0.337989 0.0261132 0)
(-0.35532 0.0141117 0)
(-0.361257 0.00199283 0)
(-0.356147 -0.00959846 0)
(-0.340933 -0.0200923 0)
(-0.316974 -0.0289976 0)
(-0.286043 -0.0360127 0)
(-0.25002 -0.0409905 0)
(-0.210786 -0.0440213 0)
(-0.169967 -0.045138 0)
(-0.128257 -0.0453568 0)
(-0.0880011 -0.0454818 0)
(-0.0503311 -0.0432977 0)
(-0.0184607 -0.041158 0)
(0.0134803 -0.0380396 0)
(0.0458418 -0.0351029 0)
(0.0732358 -0.0320214 0)
(0.0990131 -0.0291455 0)
(0.121671 -0.0260642 0)
(0.141811 -0.0229069 0)
(0.159081 -0.0196136 0)
(0.173491 -0.0162603 0)
(0.185001 -0.0129365 0)
(0.193713 -0.00976812 0)
(0.19984 -0.00688135 0)
(0.203713 -0.00437349 0)
(0.205731 -0.0022918 0)
(0.206311 -0.000614003 0)
(0.20582 0.000807168 0)
(0.204438 0.00211237 0)
(0.20219 0.00348366 0)
(0.198931 0.00513533 0)
(0.194314 0.00724198 0)
(0.187864 0.00991886 0)
(0.179055 0.0131953 0)
(0.167371 0.017 0)
(0.152446 0.0211824 0)
(0.134026 0.0255067 0)
(0.112132 0.0297181 0)
(0.0871244 0.0335738 0)
(0.0585831 0.0367115 0)
(0.0286801 0.0393361 0)
(-0.00213603 0.0408923 0)
(-0.0344506 0.0414426 0)
(-0.0666642 0.0411558 0)
(-0.0982672 0.0400662 0)
(-0.128439 0.0382453 0)
(-0.1569 0.0358247 0)
(-0.183148 0.0328838 0)
(-0.206918 0.0294892 0)
(-0.227858 0.0256815 0)
(-0.245803 0.0214549 0)
(-0.260253 0.0168216 0)
(-0.271316 0.011745 0)
(-0.277938 0.00631888 0)
(-0.281201 0.000310827 0)
(-0.278124 -0.00587257 0)
(-0.395308 0.0161095 0)
(-0.430695 0.0139977 0)
(-0.454929 0.0117506 0)
(-0.472847 0.00885714 0)
(-0.48494 0.00517199 0)
(-0.491706 0.00100171 0)
(-0.49325 -0.00447268 0)
(-0.48878 -0.0108191 0)
(-0.477526 -0.0177398 0)
(-0.459074 -0.024919 0)
(-0.433266 -0.0319577 0)
(-0.40038 -0.0384045 0)
(-0.361201 -0.0438208 0)
(-0.316999 -0.047868 0)
(-0.269421 -0.0504008 0)
(-0.220327 -0.0515272 0)
(-0.171599 -0.0515622 0)
(-0.12489 -0.05086 0)
(-0.081172 -0.0497946 0)
(-0.0413197 -0.0485534 0)
(-0.00883607 -0.0458457 0)
(0.024075 -0.0403407 0)
(0.0595011 -0.0387516 0)
(0.0914469 -0.0381067 0)
(0.12347 -0.0380302 0)
(0.156091 -0.0380762 0)
(0.1894 -0.0378131 0)
(0.222894 -0.0368278 0)
(0.25558 -0.0347773 0)
(0.286126 -0.0314428 0)
(0.313062 -0.0267669 0)
(0.334987 -0.020863 0)
(0.350753 -0.0139932 0)
(0.359583 -0.0065216 0)
(0.361198 0.00112495 0)
(0.355655 0.00871387 0)
(0.343341 0.0158304 0)
(0.324974 0.0222971 0)
(0.301327 0.0280271 0)
(0.273166 0.0330129 0)
(0.241175 0.0372903 0)
(0.205929 0.0408969 0)
(0.167922 0.0438385 0)
(0.127625 0.0460812 0)
(0.0854727 0.0475923 0)
(0.0422097 0.0485861 0)
(0.00216355 0.0486458 0)
(-0.0376158 0.0450524 0)
(-0.0775573 0.0416341 0)
(-0.112073 0.0367197 0)
(-0.14158 0.0307856 0)
(-0.164969 0.0240906 0)
(-0.181778 0.0170832 0)
(-0.191958 0.0102656 0)
(-0.19588 0.00414594 0)
(-0.19466 -0.000647868 0)
(-0.18981 -0.00390074 0)
(-0.182388 -0.0062355 0)
(-0.173561 -0.00727791 0)
(-0.164705 -0.00723879 0)
(-0.156886 -0.00645574 0)
(-0.150842 -0.00530924 0)
(-0.146885 -0.00408871 0)
(-0.144863 -0.00301142 0)
(-0.144243 -0.00226469 0)
(-0.144256 -0.00208921 0)
(-0.144077 -0.00264019 0)
(-0.142929 -0.00391654 0)
(-0.140178 -0.00581635 0)
(-0.135367 -0.0081889 0)
(-0.128222 -0.0108649 0)
(-0.118629 -0.013685 0)
(-0.106606 -0.0165209 0)
(-0.0922504 -0.0192836 0)
(-0.0757114 -0.0219246 0)
(-0.0570849 -0.0244095 0)
(-0.0367229 -0.0267908 0)
(-0.0137517 -0.0287781 0)
(0.00997382 -0.031524 0)
(0.0345145 -0.0328461 0)
(0.0615303 -0.0341738 0)
(0.0893074 -0.0351235 0)
(0.117694 -0.0355522 0)
(0.146197 -0.0353257 0)
(0.17425 -0.0343301 0)
(0.201191 -0.0324689 0)
(0.226295 -0.0296668 0)
(0.24879 -0.025872 0)
(0.267876 -0.0210557 0)
(0.282753 -0.0152163 0)
(0.292622 -0.00837329 0)
(0.296674 -0.000632828 0)
(0.294279 0.00797506 0)
(0.284852 0.0173119 0)
(0.267802 0.0271742 0)
(0.242824 0.0372697 0)
(0.209863 0.047232 0)
(0.169177 0.0566224 0)
(0.121435 0.0649414 0)
(0.0676475 0.0716752 0)
(0.00947788 0.0762583 0)
(-0.0513396 0.0784528 0)
(-0.112687 0.0776687 0)
(-0.171942 0.0738577 0)
(-0.22674 0.0670221 0)
(-0.274713 0.0574113 0)
(-0.313839 0.0454732 0)
(-0.342554 0.0318369 0)
(-0.359925 0.0172918 0)
(-0.365587 0.0024791 0)
(-0.360005 -0.0113083 0)
(-0.344224 -0.0239885 0)
(-0.319527 -0.0347218 0)
(-0.287804 -0.0431751 0)
(-0.250999 -0.0491815 0)
(-0.211046 -0.0528404 0)
(-0.169653 -0.0543484 0)
(-0.127747 -0.0542709 0)
(-0.0871123 -0.0542732 0)
(-0.0490268 -0.0518209 0)
(-0.0169748 -0.0494399 0)
(0.0150996 -0.045345 0)
(0.0473951 -0.0420881 0)
(0.0747598 -0.0383856 0)
(0.100487 -0.0349543 0)
(0.123151 -0.0312792 0)
(0.143279 -0.0275118 0)
(0.160532 -0.0235852 0)
(0.174898 -0.0195864 0)
(0.186328 -0.0156215 0)
(0.194923 -0.0118389 0)
(0.200901 -0.00838642 0)
(0.204609 -0.00538191 0)
(0.20646 -0.00287166 0)
(0.206883 -0.000824774 0)
(0.206294 0.00077881 0)
(0.204876 0.00235281 0)
(0.202638 0.00397407 0)
(0.199441 0.00591195 0)
(0.194923 0.00836965 0)
(0.188588 0.0114832 0)
(0.179882 0.0152886 0)
(0.168263 0.0197061 0)
(0.153348 0.0245653 0)
(0.134865 0.029597 0)
(0.112842 0.0345144 0)
(0.0876223 0.0390304 0)
(0.0588532 0.0427537 0)
(0.0286871 0.0458434 0)
(-0.00245661 0.047717 0)
(-0.035054 0.0484855 0)
(-0.0675087 0.0482447 0)
(-0.0993224 0.047081 0)
(-0.129661 0.0450652 0)
(-0.158241 0.0423521 0)
(-0.184567 0.0390372 0)
(-0.208378 0.0352019 0)
(-0.229337 0.0308984 0)
(-0.247281 0.026123 0)
(-0.261728 0.0208917 0)
(-0.272775 0.0151581 0)
(-0.279369 0.00901204 0)
(-0.282673 0.00216663 0)
(-0.279631 -0.00486915 0)
(-0.396115 0.0269529 0)
(-0.43205 0.021879 0)
(-0.456285 0.0172114 0)
(-0.474328 0.0125828 0)
(-0.486615 0.00781102 0)
(-0.493706 0.00199274 0)
(-0.495646 -0.00482541 0)
(-0.491466 -0.0126076 0)
(-0.480373 -0.0211373 0)
(-0.461933 -0.0300731 0)
(-0.435955 -0.0389301 0)
(-0.402709 -0.0471342 0)
(-0.363002 -0.0541127 0)
(-0.318164 -0.0594019 0)
(-0.269927 -0.0627484 0)
(-0.22024 -0.0641666 0)
(-0.171045 -0.0639155 0)
(-0.12401 -0.0624034 0)
(-0.0802225 -0.060092 0)
(-0.0401895 -0.0579202 0)
(-0.00687346 -0.0549578 0)
(0.0257942 -0.0489333 0)
(0.0601774 -0.047205 0)
(0.0918064 -0.0465677 0)
(0.123664 -0.0467045 0)
(0.156313 -0.0470518 0)
(0.18984 -0.0470204 0)
(0.223718 -0.046043 0)
(0.256908 -0.0436565 0)
(0.288011 -0.0395726 0)
(0.315484 -0.0337226 0)
(0.337857 -0.0262637 0)
(0.353925 -0.0175468 0)
(0.362879 -0.00805301 0)
(0.364469 0.00166692 0)
(0.35876 0.0112636 0)
(0.346154 0.0202379 0)
(0.327443 0.0283645 0)
(0.303438 0.0355422 0)
(0.274934 0.0417773 0)
(0.242625 0.0471343 0)
(0.207078 0.0516785 0)
(0.16877 0.0554288 0)
(0.128158 0.0583392 0)
(0.0856994 0.0603225 0)
(0.0420951 0.0613957 0)
(0.00113816 0.0612939 0)
(-0.0393771 0.0572972 0)
(-0.0796311 0.0529163 0)
(-0.114672 0.0466678 0)
(-0.144543 0.039046 0)
(-0.168135 0.0304194 0)
(-0.184934 0.0213687 0)
(-0.194884 0.0125455 0)
(-0.198329 0.004604 0)
(-0.196442 -0.00166773 0)
(-0.191021 -0.00610833 0)
(-0.183092 -0.00886121 0)
(-0.173721 -0.0100953 0)
(-0.164446 -0.00988857 0)
(-0.156369 -0.00865205 0)
(-0.150223 -0.00687652 0)
(-0.146291 -0.00500006 0)
(-0.1444 -0.0033909 0)
(-0.144005 -0.00235087 0)
(-0.144318 -0.00214448 0)
(-0.144459 -0.00290689 0)
(-0.143602 -0.00461719 0)
(-0.141079 -0.00713308 0)
(-0.136421 -0.0102493 0)
(-0.12935 -0.0137398 0)
(-0.119767 -0.0173957 0)
(-0.107705 -0.021052 0)
(-0.093282 -0.0245987 0)
(-0.0766596 -0.0279791 0)
(-0.0579547 -0.0311616 0)
(-0.0374724 -0.034199 0)
(-0.0145422 -0.0368186 0)
(0.0093317 -0.040118 0)
(0.0341755 -0.0420041 0)
(0.0612928 -0.0437782 0)
(0.0892773 -0.0450522 0)
(0.117927 -0.0456572 0)
(0.146745 -0.0454214 0)
(0.175153 -0.0441956 0)
(0.202481 -0.0418534 0)
(0.227993 -0.0382969 0)
(0.250905 -0.033458 0)
(0.270409 -0.0272987 0)
(0.28569 -0.0198135 0)
(0.295927 -0.0110248 0)
(0.300313 -0.001058 0)
(0.29821 0.0100416 0)
(0.28899 0.0221109 0)
(0.27203 0.0348886 0)
(0.246995 0.0480002 0)
(0.213794 0.0609709 0)
(0.172659 0.0732283 0)
(0.124245 0.084116 0)
(0.0695505 0.0929534 0)
(0.0103025 0.0989932 0)
(-0.0517632 0.101914 0)
(-0.114485 0.100926 0)
(-0.1751 0.0959618 0)
(-0.231176 0.0870173 0)
(-0.280241 0.0744162 0)
(-0.320186 0.0587497 0)
(-0.349381 0.0408537 0)
(-0.366861 0.0217758 0)
(-0.372208 0.00246403 0)
(-0.365995 -0.0157065 0)
(-0.349346 -0.0322494 0)
(-0.323534 -0.0461934 0)
(-0.290604 -0.0570972 0)
(-0.252603 -0.0647682 0)
(-0.211555 -0.0693416 0)
(-0.169252 -0.0711513 0)
(-0.126928 -0.070779 0)
(-0.0857796 -0.0699595 0)
(-0.0472075 -0.0668628 0)
(-0.0147929 -0.0637166 0)
(0.0174334 -0.0581383 0)
(0.0495438 -0.0540909 0)
(0.0769357 -0.0493446 0)
(0.102619 -0.0448996 0)
(0.125322 -0.0401617 0)
(0.14547 -0.0352752 0)
(0.162735 -0.0301694 0)
(0.177062 -0.0249521 0)
(0.18839 -0.0197724 0)
(0.196808 -0.0148355 0)
(0.202544 -0.010349 0)
(0.20597 -0.0064756 0)
(0.207545 -0.00329219 0)
(0.207713 -0.000756367 0)
(0.206979 0.00127836 0)
(0.205538 0.00318193 0)
(0.203362 0.00517197 0)
(0.200344 0.00761037 0)
(0.19608 0.0107777 0)
(0.190028 0.0148586 0)
(0.181577 0.019897 0)
(0.170133 0.025778 0)
(0.155266 0.0322581 0)
(0.136682 0.0389642 0)
(0.114407 0.0455005 0)
(0.0887731 0.0514581 0)
(0.0595381 0.0563668 0)
(0.028815 0.060319 0)
(-0.00296566 0.0626528 0)
(-0.0361206 0.063548 0)
(-0.0690654 0.0630662 0)
(-0.101298 0.0613677 0)
(-0.131974 0.058557 0)
(-0.160808 0.0548398 0)
(-0.187325 0.0503476 0)
(-0.211278 0.0451835 0)
(-0.23235 0.0394076 0)
(-0.250384 0.0330098 0)
(-0.264908 0.0259968 0)
(-0.276001 0.0183168 0)
(-0.282639 0.0100801 0)
(-0.285825 0.000935345 0)
(-0.282637 -0.00846268 0)
(-0.398506 0.0394308 0)
(-0.434403 0.0315226 0)
(-0.458447 0.0244525 0)
(-0.476387 0.0179432 0)
(-0.488909 0.0113796 0)
(-0.496428 0.00362642 0)
(-0.498686 -0.00495639 0)
(-0.494829 -0.0145475 0)
(-0.483968 -0.0250623 0)
(-0.465589 -0.0361339 0)
(-0.439444 -0.0471694 0)
(-0.40578 -0.0574398 0)
(-0.365428 -0.0662029 0)
(-0.319784 -0.0728392 0)
(-0.270677 -0.0769752 0)
(-0.22017 -0.0785563 0)
(-0.170294 -0.0778481 0)
(-0.122783 -0.0753689 0)
(-0.0788055 -0.0718098 0)
(-0.0387222 -0.0681087 0)
(-0.00483652 -0.0645079 0)
(0.0275646 -0.0582679 0)
(0.0608704 -0.0562429 0)
(0.0920737 -0.0556332 0)
(0.123699 -0.0560514 0)
(0.156371 -0.0567913 0)
(0.190176 -0.0570777 0)
(0.224559 -0.0561618 0)
(0.258415 -0.0534382 0)
(0.290256 -0.0485383 0)
(0.31844 -0.041383 0)
(0.341404 -0.0321864 0)
(0.357874 -0.0214086 0)
(0.367 -0.00967088 0)
(0.368561 0.00233723 0)
(0.362637 0.0140948 0)
(0.349666 0.025045 0)
(0.330526 0.0349065 0)
(0.306082 0.0435692 0)
(0.277164 0.051064 0)
(0.244479 0.0574965 0)
(0.208584 0.0629703 0)
(0.169928 0.0675223 0)
(0.128938 0.0710908 0)
(0.0860697 0.0735264 0)
(0.0419989 0.0747013 0)
(3.86173e-05 0.0743702 0)
(-0.041363 0.0699765 0)
(-0.0821217 0.0645649 0)
(-0.117832 0.0568934 0)
(-0.148189 0.0474713 0)
(-0.172056 0.0367909 0)
(-0.188862 0.0255782 0)
(-0.198538 0.0146503 0)
(-0.201413 0.00480882 0)
(-0.198788 -0.00304 0)
(-0.19254 -0.00887061 0)
(-0.183851 -0.0118807 0)
(-0.173866 -0.0132024 0)
(-0.164051 -0.0127262 0)
(-0.155629 -0.010934 0)
(-0.149347 -0.00843968 0)
(-0.145465 -0.00584373 0)
(-0.143778 -0.00366226 0)
(-0.143705 -0.00229906 0)
(-0.144412 -0.00204442 0)
(-0.144959 -0.00301986 0)
(-0.144465 -0.0051712 0)
(-0.142223 -0.00830438 0)
(-0.137749 -0.0121547 0)
(-0.130767 -0.016437 0)
(-0.121191 -0.0208924 0)
(-0.109079 -0.0253208 0)
(-0.094573 -0.0295933 0)
(-0.0778522 -0.0336487 0)
(-0.059055 -0.0374619 0)
(-0.0384449 -0.0410857 0)
(-0.0155316 -0.0442865 0)
(0.0084954 -0.0480316 0)
(0.0336479 -0.050446 0)
(0.060912 -0.0526214 0)
(0.0891465 -0.054183 0)
(0.118113 -0.054937 0)
(0.147308 -0.0546788 0)
(0.176146 -0.053228 0)
(0.203942 -0.0504333 0)
(0.229948 -0.0461785 0)
(0.253368 -0.0403841 0)
(0.273379 -0.0330065 0)
(0.289155 -0.0240401 0)
(0.29985 -0.0135096 0)
(0.304646 -0.0015624 0)
(0.302908 0.0117319 0)
(0.293965 0.0262062 0)
(0.27714 0.0415429 0)
(0.252066 0.0572946 0)
(0.218611 0.0728919 0)
(0.176971 0.087645 0)
(0.127782 0.100761 0)
(0.0720278 0.111412 0)
(0.0115126 0.118695 0)
(-0.0520308 0.122222 0)
(-0.116387 0.121022 0)
(-0.178623 0.115022 0)
(-0.236225 0.10422 0)
(-0.2866 0.0890135 0)
(-0.327534 0.0701245 0)
(-0.357316 0.0485733 0)
(-0.374939 0.0256356 0)
(-0.379955 0.0024758 0)
(-0.373036 -0.0192868 0)
(-0.355371 -0.0390334 0)
(-0.328277 -0.0555996 0)
(-0.293957 -0.0684683 0)
(-0.254582 -0.0774353 0)
(-0.212286 -0.0826775 0)
(-0.168944 -0.0846515 0)
(-0.12599 -0.0840088 0)
(-0.0843282 -0.0822195 0)
(-0.0453594 -0.0786732 0)
(-0.0124457 -0.0747809 0)
(0.0199251 -0.0681539 0)
(0.0517996 -0.0634121 0)
(0.0792484 -0.0578678 0)
(0.104891 -0.0526302 0)
(0.127645 -0.0470766 0)
(0.147828 -0.0413273 0)
(0.165119 -0.0353113 0)
(0.179418 -0.0291504 0)
(0.190644 -0.0230279 0)
(0.198874 -0.0171949 0)
(0.204349 -0.0119065 0)
(0.207467 -0.00736533 0)
(0.208721 -0.00366177 0)
(0.208633 -0.000768645 0)
(0.207731 0.00153575 0)
(0.206224 0.00363702 0)
(0.204119 0.00584623 0)
(0.20129 0.00858635 0)
(0.197303 0.0121972 0)
(0.191565 0.0169001 0)
(0.183407 0.0227478 0)
(0.172179 0.0296025 0)
(0.1574 0.0371719 0)
(0.138751 0.045014 0)
(0.116256 0.0526596 0)
(0.090238 0.0596161 0)
(0.0605461 0.0653673 0)
(0.0292737 0.0699208 0)
(-0.00312443 0.0726054 0)
(-0.0368363 0.0736457 0)
(-0.0702779 0.0730554 0)
(-0.102931 0.0710611 0)
(-0.133948 0.0677934 0)
(-0.163036 0.0634967 0)
(-0.189742 0.0583338 0)
(-0.213833 0.0524284 0)
(-0.235017 0.0458511 0)
(-0.253148 0.0385893 0)
(-0.267773 0.0306447 0)
(-0.278952 0.0219526 0)
(-0.28566 0.0126161 0)
(-0.288968 0.00228002 0)
(-0.285864 -0.00844954 0)
(-0.402175 0.0523093 0)
(-0.437716 0.041662 0)
(-0.461392 0.0322854 0)
(-0.479222 0.0237319 0)
(-0.491964 0.014985 0)
(-0.499812 0.00550013 0)
(-0.502437 -0.00491783 0)
(-0.498978 -0.016538 0)
(-0.48843 -0.0293087 0)
(-0.470161 -0.0428131 0)
(-0.44384 -0.0563253 0)
(-0.409678 -0.0689293 0)
(-0.368528 -0.0796789 0)
(-0.321864 -0.0877713 0)
(-0.271638 -0.0927009 0)
(-0.220051 -0.0943575 0)
(-0.169267 -0.0930461 0)
(-0.12112 -0.0894274 0)
(-0.076859 -0.084414 0)
(-0.0368236 -0.079112 0)
(-0.0026101 -0.0744819 0)
(0.0294128 -0.0679658 0)
(0.0615751 -0.0656197 0)
(0.0922316 -0.0650804 0)
(0.123545 -0.0658703 0)
(0.156228 -0.0671173 0)
(0.19038 -0.0678319 0)
(0.225406 -0.0670569 0)
(0.260113 -0.0640232 0)
(0.292898 -0.0582686 0)
(0.321988 -0.0497031 0)
(0.345703 -0.0386079 0)
(0.362683 -0.0255712 0)
(0.372033 -0.0113761 0)
(0.373545 0.00314549 0)
(0.367342 0.0172078 0)
(0.35392 0.030262 0)
(0.334254 0.0419485 0)
(0.309276 0.0521526 0)
(0.279867 0.0609409 0)
(0.246746 0.0684735 0)
(0.210456 0.0749033 0)
(0.171406 0.080291 0)