/*--------------------------------*- C++ -*----------------------------------*\
| =========                 |                                                 |
| \\      /  F ield         | OpenFOAM: The Open Source CFD Toolbox           |
|  \\    /   O peration     | Version:  v1912                                 |
|   \\  /    A nd           | Website:  www.openfoam.com                      |
|    \\/     M anipulation  |                                                 |
\*---------------------------------------------------------------------------*/
FoamFile
{
    version     2.0;
    format      ascii;
    class       volScalarField;
    location    "30";
    object      alpha.water;
}
// * * * * * * * * * * * * * * * * * * * * * * * * * * * * * * * * * * * * * //

dimensions      [0 0 0 0 0 0 0];


internalField   nonuniform List<scalar> 
14268
(
1
1
1
1
1
1
1
1
1
1
1
1
1
1
1
1
1
1
1
1
1
1
1
1
1
1
1
1
1
1
1
1
1
1
1
1
1
1
1
1
1
1
1
1
1
1
1
1
1
1
1
1
1
1
1
1
1
1
1
1
1
1
1
1
1
1
1
1
1
1
1
1
1
1
1
1
1
1
1
1
1
1
1
1
1
1
1
1
1
1
1
1
1
1
1
1
1
1
1
1
1
1
1
1
1
1
1
1
1
1
1
1
1
1
1
1
1
1
1
1
1
1
1
1
1
1
1
1
1
1
1
1
1
1
1
1
1
1
1
1
1
1
1
1
1
1
1
1
1
1
1
1
1
1
1
1
1
1
1
1
1
1
1
1
1
1
1
1
1
1
1
1
1
1
1
1
1
1
1
1
1
1
1
1
1
1
1
1
1
1
1
1
1
1
1
1
1
1
1
1
1
1
1
1
1
1
1
1
1
1
1
1
1
1
1
1
1
1
1
1
1
1
1
1
1
1
1
1
1
1
1
1
1
1
1
1
1
1
1
1
1
1
1
1
1
1
1
1
1
1
1
1
1
1
1
1
1
1
1
1
1
1
1
1
1
1
1
1
1
1
1
1
1
1
1
1
1
1
1
1
1
1
1
1
1
1
1
1
1
1
1
1
1
1
1
1
1
1
1
1
1
1
1
1
1
1
1
1
1
1
1
1
1
1
1
1
1
1
1
1
1
1
1
1
1
1
1
1
1
1
1
1
1
1
1
1
1
1
1
1
1
1
1
1
1
1
1
1
1
1
1
1
1
1
1
1
1
1
1
1
1
1
1
1
1
1
1
1
1
1
1
1
1
1
1
1
1
1
1
1
1
1
1
1
1
1
1
1
1
1
1
1
1
1
1
1
1
1
1
1
1
1
1
1
1
1
1
1
1
1
1
1
1
1
1
1
1
1
1
1
1
1
1
1
1
1
1
1
1
1
1
1
1
1
1
1
1
1
1
1
1
1
1
1
1
1
1
1
1
1
1
1
1
1
1
1
1
1
1
1
1
1
1
1
1
1
1
1
1
1
1
1
1
1
1
1
1
1
1
1
1
1
1
1
1
1
1
1
1
1
1
1
1
1
1
1
1
1
1
1
1
1
1
1
1
1
1
1
1
1
1
1
1
1
1
1
1
1
1
1
1
1
1
1
1
1
1
1
1
1
1
1
1
1
1
1
1
1
1
1
1
1
1
1
1
1
1
1
1
1
1
1
1
1
1
1
1
1
1
1
1
1
1
1
1
1
1
1
1
1
1
1
1
1
1
1
1
1
1
1
1
1
1
1
1
1
1
1
1
1
1
1
1
1
1
1
1
1
1
1
1
1
1
1
1
1
1
1
1
1
1
1
1
1
1
1
1
1
1
1
1
1
1
1
1
1
1
1
1
1
1
1
1
1
1
1
1
1
1
1
1
1
1
1
1
1
1
1
1
1
1
1
1
1
1
1
1
1
1
1
1
1
1
1
1
1
1
1
1
1
1
1
1
1
1
1
1
1
1
1
1
1
1
1
1
1
1
1
1
1
1
1
1
1
1
1
1
1
1
1
1
1
1
1
1
1
1
1
1
1
1
1
1
1
1
1
1
1
1
1
1
1
1
1
1
1
1
1
1
1
1
1
1
1
1
1
1
1
1
1
1
1
1
1
1
1
1
1
1
1
1
1
1
1
1
1
1
1
1
1
1
1
1
1
1
1
1
1
1
1
1
1
1
1
1
1
1
1
1
1
1
1
1
1
1
1
1
1
1
1
1
1
1
1
1
1
1
1
1
1
1
1
1
1
1
1
1
1
1
1
1
1
1
1
1
1
1
1
1
1
1
1
1
1
1
1
1
1
1
1
1
1
1
1
1
1
1
1
1
1
1
1
1
1
1
1
1
1
1
1
1
1
1
1
1
1
1
1
1
1
1
1
1
1
1
1
1
1
1
1
1
1
1
1
1
1
1
1
1
1
1
1
1
1
1
1
1
1
1
1
1
1
1
1
1
1
1
1
1
1
1
1
1
1
1
1
1
1
1
1
1
1
1
1
1
1
1
1
1
1
1
1
1
1
1
1
1
1
1
1
1
1
1
1
1
1
1
1
1
1
1
1
1
1
1
1
1
1
1
1
1
1
1
1
1
1
1
1
1
1
1
1
1
1
1
1
1
1
1
1
1
1
1
1
1
1
1
1
1
1
1
1
1
1
1
1
1
1
1
1
1
1
1
1
1
1
1
1
1
1
1
1
1
1
1
1
1
1
1
1
1
1
1
1
1
1
1
1
1
1
1
1
1
1
1
1
1
1
1
1
1
1
1
1
1
1
1
1
1
1
1
1
1
1
1
1
1
1
1
1
1
1
1
1
1
1
1
1
1
1
1
1
1
1
1
1
1
1
1
1
1
1
1
1
1
1
1
1
1
1
1
1
1
1
1
1
1
1
1
1
1
1
1
1
1
1
1
1
1
1
1
1
1
1
1
1
1
1
1
1
1
1
1
1
1
1
1
1
1
1
1
1
1
1
1
1
1
1
1
1
1
1
1
1
1
1
1
1
1
1
1
1
1
1
1
1
1
1
1
1
1
1
1
1
1
1
1
1
1
1
1
1
1
1
1
1
1
1
1
1
1
1
1
1
1
1
1
1
1
1
1
1
1
1
1
1
1
1
1
1
1
1
1
1
1
1
1
1
1
1
1
1
1
1
1
1
1
1
1
1
1
1
1
1
1
1
1
1
1
1
1
1
1
1
1
1
1
1
1
1
1
1
1
1
1
1
1
1
1
1
1
1
1
1
1
1
1
1
1
1
1
1
1
1
1
1
1
1
1
1
1
1
1
1
1
1
1
1
1
1
1
1
1
1
1
1
1
1
1
1
1
1
1
1
1
1
1
1
1
1
1
1
1
1
1
1
1
1
1
1
1
1
1
1
1
1
1
1
1
1
1
1
1
1
1
1
1
1
1
1
1
1
1
1
1
1
1
1
1
1
1
1
1
1
1
1
1
1
1
1
1
1
1
1
1
1
1
1
1
1
1
1
1
1
1
1
1
1
1
1
1
1
1
1
1
1
1
1
1
1
1
1
1
1
1
1
1
1
1
1
1
1
1
1
1
1
1
1
1
1
1
1
1
1
1
1
1
1
1
1
1
1
1
1
1
1
1
1
1
1
1
1
1
1
1
1
1
1
1
1
1
1
1
1
1
1
1
1
1
1
1
1
1
1
1
1
1
1
1
1
1
1
1
1
1
1
1
1
1
1
1
1
1
1
1
1
1
1
1
1
1
1
1
1
1
1
1
1
1
1
1
1
1
1
1
1
1
1
1
1
1
1
1
1
1
1
1
1
1
1
1
1
1
1
1
1
1
1
1
1
1
1
1
1
1
1
1
1
1
1
1
1
1
1
1
1
1
1
1
1
1
1
1
1
1
1
1
1
1
1
1
1
1
1
1
1
1
1
1
1
1
1
1
1
1
1
1
1
1
1
1
1
1
1
1
1
1
1
1
1
1
1
1
1
1
1
1
1
1
1
1
1
1
1
1
1
1
1
1
1
1
1
1
1
1
1
1
1
1
1
1
1
1
1
1
1
1
1
1
1
1
1
1
1
1
1
1
1
1
1
1
1
1
1
1
1
1
1
1
1
1
1
1
1
1
1
1
1
1
1
1
1
1
1
1
1
1
1
1
1
1
1
1
1
1
1
1
1
1
1
1
1
1
1
1
1
1
1
1
1
1
1
1
1
1
1
1
1
1
1
1
1
1
1
1
1
1
1
1
1
1
1
1
1
1
1
1
1
1
1
1
1
1
1
1
1
1
1
1
1
1
1
1
1
1
1
1
1
1
1
1
1
1
1
1
1
1
1
1
1
1
1
1
1
1
1
1
1
1
1
1
1
1
1
1
1
1
1
1
1
1
1
1
1
1
1
1
1
1
1
1
1
1
1
1
1
1
1
1
1
1
1
1
1
1
1
1
1
1
1
1
1
1
1
1
1
1
1
1
1
1
1
1
1
1
1
1
1
1
1
1
1
1
1
1
1
1
1
1
1
1
1
1
1
1
1
1
1
1
1
1
1
1
1
1
1
1
1
1
1
1
1
1
1
1
1
1
1
1
1
1
1
1
1
1
1
1
1
1
1
1
1
1
1
1
1
1
1
1
1
1
1
1
1
1
1
1
1
1
1
1
1
1
1
1
1
1
1
1
1
1
1
1
1
1
1
1
1
1
1
1
1
1
1
1
1
1
1
1
1
1
1
1
1
1
1
1
1
1
1
1
1
1
1
1
1
1
1
1
1
1
1
1
1
1
1
1
1
1
1
1
1
1
1
1
1
1
1
1
1
1
1
1
1
1
1
1
1
1
1
1
1
1
1
1
1
1
1
1
1
1
1
1
1
1
1
1
1
1
1
1
1
1
1
1
1
1
1
1
1
1
1
1
1
1
1
1
1
1
1
1
1
1
1
1
1
1
1
1
1
1
1
1
1
1
1
1
1
1
1
1
1
1
1
1
1
1
1
1
1
1
1
1
1
1
1
1
1
1
1
1
1
1
1
1
1
1
1
1
1
1
1
1
1
1
1
1
1
1
1
1
1
1
1
1
1
1
1
1
1
1
1
1
1
1
1
1
1
1
1
1
1
1
1
1
1
1
1
1
1
1
1
1
1
1
1
1
1
1
1
1
1
1
1
1
1
1
1
1
1
1
1
1
1
1
1
1
1
1
1
1
1
1
1
1
1
1
1
1
1
1
1
1
1
1
1
1
1
1
1
1
1
1
1
1
1
1
1
1
1
1
1
1
1
1
1
1
1
1
1
1
1
1
1
1
1
1
1
1
1
1
1
1
1
1
1
1
1
1
1
1
1
1
1
1
1
1
1
1
1
1
1
1
1
1
1
1
1
1
1
1
1
1
1
1
1
1
1
1
1
1
1
1
1
1
1
1
1
1
1
1
1
1
1
1
1
1
1
1
1
1
1
1
1
1
1
1
1
1
1
1
1
1
1
1
1
1
1
1
1
1
1
1
1
1
1
1
1
1
1
1
1
1
1
1
1
1
1
1
1
1
1
1
1
1
1
1
1
1
1
1
1
1
1
1
1
1
1
1
1
1
1
1
1
1
1
1
1
1
1
1
1
1
1
1
1
1
1
1
1
1
1
1
1
1
1
1
1
1
1
1
1
1
1
1
1
1
1
1
1
1
1
1
1
1
1
1
1
1
1
1
1
1
1
1
1
1
1
1
1
1
1
1
1
1
1
1
1
1
1
1
1
1
1
1
1
1
1
1
1
1
1
1
1
1
1
1
1
1
1
1
1
1
1
1
1
1
1
1
1
1
1
1
1
1
1
1
1
1
1
1
1
1
1
1
1
1
1
1
1
1
1
1
1
1
1
1
1
1
1
1
1
1
1
1
1
1
1
1
1
1
1
1
1
1
1
1
1
1
1
1
1
1
1
1
1
1
1
1
1
1
1
1
1
1
1
1
1
1
1
1
1
1
1
1
1
1
1
1
1
1
1
1
1
1
1
1
1
1
1
1
1
1
1
1
1
1
1
1
1
1
1
1
1
1
1
1
1
1
1
1
1
1
1
1
1
1
1
1
1
1
1
1
1
1
1
1
1
1
1
1
1
1
1
1
1
1
1
1
1
1
1
1
1
1
1
1
1
1
1
1
1
1
1
1
1
1
1
1
1
1
1
1
1
1
1
1
1
1
1
1
1
1
1
1
1
1
1
1
1
1
1
1
1
1
1
1
1
1
1
1
1
1
1
1
1
1
1
1
1
1
1
1
1
1
1
1
1
1
1
1
1
1
1
1
1
1
1
1
1
1
1
1
1
1
1
1
1
1
1
1
1
1
1
1
1
1
1
1
1
1
1
1
1
1
1
1
1
1
1
1
1
1
1
1
1
1
1
1
1
1
1
1
1
1
1
1
1
1
1
1
1
1
1
1
1
1
1
1
1
1
1
1
1
1
1
1
1
1
1
1
1
1
1
1
1
1
1
1
1
1
1
1
1
1
1
1
1
1
1
1
1
1
1
1
1
1
1
1
1
1
1
1
1
1
1
1
1
1
1
1
1
1
1
1
1
1
1
1
1
1
1
1
1
1
1
1
1
1
1
1
1
1
1
1
1
1
1
1
1
1
1
1
1
1
1
1
1
1
1
1
1
1
1
1
1
1
1
1
1
1
1
1
1
1
1
1
1
1
1
1
1
1
1
1
1
1
1
1
1
1
1
1
1
1
1
1
1
1
1
1
1
1
1
1
1
1
1
1
1
1
1
1
1
1
1
1
1
1
1
1
1
1
1
1
1
1
1
1
1
1
1
1
1
1
1
1
1
1
1
1
1
1
1
1
1
1
1
1
1
1
1
1
1
1
1
1
1
1
1
1
1
1
1
1
1
1
1
1
1
1
1
1
1
1
1
1
1
1
1
1
1
1
1
1
1
1
1
1
1
1
1
1
1
1
1
1
1
1
1
1
1
1
1
1
1
1
1
1
1
1
1
1
1
1
1
1
1
1
1
1
1
1
1
1
1
1
1
1
1
1
1
1
1
1
1
1
1
1
1
1
1
1
1
1
1
1
1
1
1
1
1
1
1
1
1
1
1
1
1
1
1
1
1
1
1
1
1
1
1
1
1
1
1
1
1
1
1
1
1
1
1
1
1
1
1
1
1
0.999981
0.999807
1
1
1
1
1
1
1
1
1
1
1
1
1
1
1
1
1
1
1
1
1
1
1
1
1
1
1
1
1
1
1
1
1
1
1
1
1
1
1
1
1
1
1
0.999648
0.946124
0.97055
0.997917
1
1
1
1
1
1
1
1
1
1
1
1
1
1
1
1
1
1
1
1
1
1
1
1
1
1
1
1
1
1
1
1
1
1
1
1
1
1
1
1
1
1
1
1
1
1
1
1
1
1
1
1
1
1
1
1
1
1
1
1
1
1
1
1
1
1
1
1
1
1
1
1
1
1
1
1
1
1
1
1
1
1
1
1
1
1
1
1
1
1
1
1
1
1
1
1
1
1
1
1
1
1
1
1
1
1
1
1
1
1
1
1
0.934677
0.567443
0.323301
0.286477
0.455912
0.820098
0.999274
1
1
1
1
1
1
1
1
1
1
1
1
1
1
1
1
1
1
1
1
1
1
1
1
1
1
1
1
1
1
1
1
1
1
1
1
1
1
1
0.999906
0.787107
0.223327
4.85412e-10
0.0605662
0.577182
0.992841
1
1
1
1
1
1
1
1
1
1
1
1
1
1
1
1
1
1
1
1
1
1
1
1
1
1
1
1
1
1
1
1
1
1
1
1
1
1
1
1
1
1
1
1
1
1
1
0.999919
0.99693
0.988158
0.994487
1
1
1
1
1
1
1
1
1
1
1
1
1
1
1
1
1
1
1
1
1
1
1
1
1
1
1
1
1
1
1
1
1
1
1
1
1
1
1
1
1
1
1
1
1
1
1
1
1
1
1
1
1
1
1
1
1
1
0.999977
0.692896
0.0768455
0.000328012
4.06905e-05
-7.63167e-25
4.0325e-21
0.00437375
0.404423
0.956088
1
1
1
1
1
1
1
1
1
1
1
1
1
1
1
1
1
1
1
1
1
1
1
1
1
1
1
1
1
1
1
1
1
1
1
1
1
0.999474
0.599204
0.0232486
4.57926e-13
1.75488e-23
6.12598e-17
0.00147989
0.462018
0.995639
1
1
1
1
1
1
1
1
1
1
1
1
1
1
1
1
1
1
1
1
1
1
1
1
1
1
1
1
1
1
1
1
1
1
1
1
1
1
1
1
1
1
0.999996
0.993835
0.770768
0.425293
0.228429
0.186499
0.318442
0.592158
0.911748
0.990919
1
1
1
1
1
1
1
1
1
1
1
1
1
1
1
1
1
1
1
1
1
1
1
1
1
1
1
1
1
1
1
1
1
1
1
1
1
1
1
1
1
1
1
1
1
1
1
1
1
1
1
1
1
1
1
0.99996
0.570724
0.00594541
3.02814e-06
6.53291e-09
4.05678e-10
8.41861e-30
-1.23451e-50
-8.02833e-39
5.1304e-12
0.183647
0.882971
1
1
1
1
1
1
1
1
1
1
1
1
1
1
1
1
1
1
1
1
1
1
1
1
1
1
1
1
1
1
1
1
1
1
1
0.967376
0.409424
0.00382542
3.40219e-06
1.97725e-22
5.03567e-33
1.82391e-20
2.15681e-15
0.00257171
0.562163
0.999247
1
1
1
1
1
1
1
1
1
1
1
1
1
1
1
1
1
1
1
1
1
1
1
1
1
1
1
1
1
1
1
1
1
1
1
1
1
1
1
1
0.999693
0.864003
0.314
0.0277643
0.00572839
0.000171187
1.92796e-06
4.73178e-06
0.00140492
0.105382
0.579956
0.955421
1
1
1
1
1
1
1
1
1
1
1
1
1
1
1
1
1
1
1
1
1
1
1
1
1
1
1
1
1
1
1
1
1
1
1
1
1
1
1
1
1
1
1
1
1
1
1
1
1
1
1
1
1
0.99998
0.614925
0.00198655
6.67662e-26
-4.3317e-31
-5.48514e-33
8.14524e-47
5.52411e-50
-1.0682e-46
-4.45141e-49
-5.10588e-52
-6.71011e-23
0.112842
0.850129
1
1
1
1
1
1
1
1
1
1
1
1
1
1
1
1
1
1
1
1
1
1
1
1
1
1
0.999959
0.918043
0.757408
0.787695
0.909844
0.993933
0.920202
0.627748
0.152807
0.00155173
6.77593e-22
-8.83651e-27
7.4105e-31
5.45689e-33
-3.43144e-41
-2.30937e-41
1.00268e-12
0.0157374
0.722509
1
1
1
1
1
1
1
1
1
1
1
1
1
1
1
1
1
1
1
1
1
1
1
1
1
1
1
1
1
1
1
1
1
1
1
1
1
1
1
0.998375
0.712465
0.093037
0.00133507
-4.04248e-21
-2.79456e-23
9.05604e-19
1.05399e-14
2.67964e-11
3.02458e-08
1.537e-05
0.00846271
0.296631
0.880299
1
1
1
1
1
1
1
1
1
1
1
1
1
1
1
1
1
1
1
1
1
1
1
1
1
1
1
1
1
1
1
1
1
1
1
1
1
1
1
1
1
1
1
1
1
1
1
1
1
1
1
1
0.780695
0.0219527
2.52008e-21
2.93471e-39
-7.24025e-33
-7.05617e-35
-2.10146e-37
-4.06945e-40
-5.19801e-43
-4.77647e-46
-2.99629e-49
3.01484e-39
-1.33289e-23
0.101143
0.848577
1
1
1
1
1
1
1
1
1
1
1
1
1
1
1
1
1
1
1
1
1
1
1
1
0.983137
0.475878
0.022229
0.00342084
0.00270107
0.00323602
0.00606735
0.00532414
0.00307605
1.15308e-07
8.00071e-21
1.23748e-39
-4.65682e-29
-1.38762e-31
-3.00048e-34
-8.95237e-37
-3.92621e-39
6.85681e-25
1.444e-09
0.0745726
0.862844
1
1
1
1
1
1
1
1
1
1
1
1
1
1
1
1
1
1
1
1
1
1
1
1
1
1
1
1
1
1
1
1
1
1
1
1
1
0.998376
0.652884
0.0473824
1.15825e-17
1.13901e-20
-2.58082e-24
-2.55435e-25
4.98124e-25
3.41341e-20
4.36623e-16
1.08281e-12
1.94999e-09
1.59324e-06
0.00108541
0.145119
0.787043
0.996737
1
1
1
1
1
1
1
1
1
1
1
1
1
1
1
1
1
1
1
1
1
1
1
0.999997
0.999876
0.996759
0.97212
0.924761
0.919037
0.974388
1
1
1
1
1
1
1
1
1
1
1
1
1
1
1
1
1
1
1
0.948842
0.130457
-2.69622e-22
9.65277e-41
3.36087e-44
-5.73143e-35
-4.21259e-37
-1.06676e-39
-1.40022e-42
-1.21224e-45
-7.59993e-49
-3.27463e-52
5.23226e-57
5.551e-59
-1.07917e-78
0.102999
0.844787
1
1
1
1
1
1
1
1
1
1
1
1
1
1
1
1
1
1
1
1
1
1
0.996972
0.381722
0.00285631
1.70258e-21
-5.49364e-31
-1.84127e-32
-2.04293e-48
4.64496e-57
-1.15542e-54
2.10815e-52
-1.46208e-36
7.56777e-35
-5.10928e-31
-1.10702e-31
-3.85404e-34
-1.62637e-36
-7.26935e-39
-3.2772e-41
-1.41863e-43
9.97155e-22
6.63106e-07
0.165168
0.929666
1
1
1
1
1
1
1
1
1
1
1
1
1
1
1
1
1
1
1
1
1
1
1
1
1
1
1
1
1
1
1
1
1
1
1
0.999353
0.678788
0.0407095
7.31706e-21
-8.26762e-37
5.63616e-27
-2.13929e-25
-5.20553e-27
4.74404e-44
6.36191e-26
3.18323e-21
3.72397e-17
1.16251e-13
2.88925e-10
2.98658e-07
0.000230181
0.072253
0.678737
0.981324
1
1
1
1
1
1
1
1
1
1
1
1
1
1
1
1
1
1
1
1
1
0.999983
0.99887
0.945895
0.543512
0.176916
0.0836159
0.228483
0.533092
0.873069
0.997479
1
1
1
1
1
1
1
1
1
1
1
1
1
1
1
1
1
0.41495
1.31451e-05
1.01664e-23
-3.16497e-44
5.40656e-51
-2.78268e-37
-1.52666e-39
-2.90294e-42
-2.66104e-45
-1.57932e-48
-6.75403e-52
-2.04165e-55
-4.99289e-59
-1.61793e-62
-7.61472e-66
-4.25325e-69
0.0892427
0.796352
0.999359
1
1
1
1
1
1
1
1
1
1
1
1
1
1
1
1
1
1
1
0.999974
0.594678
0.00193154
-3.01554e-30
2.56706e-40
-5.38858e-32
-1.6033e-33
-1.57414e-35
-9.75599e-38
-4.23653e-40
-1.49276e-42
-6.07931e-38
-7.95645e-55
-2.3961e-32
-5.65861e-34
-3.30733e-36
-1.52212e-38
-5.98914e-41
-2.28343e-43
-8.5712e-46
5.76335e-35
5.3472e-20
9.02565e-06
0.215223
0.923118
0.999659
1
1
1
1
1
1
1
1
1
1
1
1
1
1
1
1
1
1
1
1
1
1
1
1
1
1
1
1
1
1
1
1
0.999925
0.753607
0.0535014
2.27543e-18
1.67005e-28
-1.19048e-28
1.72158e-27
-6.37333e-27
-1.71416e-28
-1.95136e-30
2.40884e-31
9.90444e-27
3.82183e-22
4.57745e-18
1.75312e-14
4.47416e-11
6.42699e-08
5.29226e-05
0.0298367
0.521679
0.944693
1
1
1
1
1
1
1
1
1
1
1
1
1
1
1
1
1
1
1
0.999984
0.998809
0.908816
0.318629
0.0394905
0.000118081
0.00052337
0.00232493
0.0214603
0.219073
0.71412
0.970903
1
1
1
1
1
1
1
0.999999
1
1
1
1
1
1
1
0.774615
0.00687787
1.09178e-23
1.31262e-26
9.65395e-57
2.77842e-56
-9.17321e-40
-3.71145e-42
-5.13752e-45
-3.3059e-48
-1.34119e-51
-3.97128e-55
-9.73369e-59
-2.91017e-62
-1.3298e-65
-8.10752e-69
-5.37013e-72
-2.64409e-75
0.0413544
0.609209
0.996788
0.999935
1
1
1
1
1
1
1
1
1
1
1
1
1
1
1
1
1
0.882129
0.0463281
-7.70085e-22
-4.82446e-24
-4.40213e-27
-6.26851e-30
-7.69054e-33
-8.3455e-36
-1.27219e-38
-3.36027e-41
-1.06303e-43
-1.70539e-39
-2.11451e-39
-5.2919e-34
-6.4431e-36
-3.26051e-38
-1.23244e-40
-4.06847e-43
-1.34782e-45
-4.6147e-48
-1.55269e-50
2.61308e-34
4.4792e-20
3.24953e-07
0.138304
0.714318
0.988274
0.99531
0.99717
0.997641
0.997716
0.998431
0.999999
1
1
1
1
1
1
1
1
1
1
1
1
1
1
1
1
1
1
1
1
1
1
1
1
0.999983
0.833052
0.0866209
-5.33385e-21
2.79513e-29
4.46285e-26
1.20638e-27
1.52886e-29
-2.17008e-28
-5.51941e-30
-6.75305e-32
1.84751e-51
5.24958e-32
1.04834e-27
3.2851e-23
4.28739e-19
1.84453e-15
5.00559e-12
9.45027e-09
8.09428e-06
0.00501638
0.272297
0.773604
0.956303
0.983209
0.992784
0.998552
0.999983
0.994026
0.960071
0.938535
0.949837
0.984864
0.999996
1
1
1
1
1
1
0.999986
0.99904
0.911866
0.261249
0.00471158
3.77385e-08
4.01999e-07
3.01435e-06
1.5148e-05
0.000173675
0.00323445
0.0756806
0.542822
0.91968
1
1
1
0.999999
0.999997
0.999993
0.999979
1
1
1
1
1
1
0.984345
0.182321
-4.88329e-21
-1.01945e-24
-1.05434e-28
-1.14675e-32
-3.41683e-37
-7.98366e-40
-9.41997e-43
-6.09205e-46
-2.14824e-49
-4.07426e-53
-5.88368e-57
-1.38051e-60
-2.88973e-64
-5.47483e-68
-3.87909e-71
-3.53291e-74
-2.09227e-77
-8.44892e-67
1.60084e-07
0.244201
0.726798
0.992213
0.99877
1
1
1
1
1
1
1
1
1
1
1
1
1
1
0.999979
0.325558
6.0602e-05
1.93535e-24
-2.33443e-26
-5.95869e-29
-1.03698e-31
-1.38062e-34
-1.89932e-37
-3.91234e-40
-1.16855e-42
-3.80897e-45
-3.47091e-41
-2.58159e-40
-7.36518e-36
-6.49204e-38
-2.58774e-40
-8.13813e-43
-2.34672e-45
-7.10868e-48
-2.32423e-50
-7.60238e-53
-2.01689e-55
-3.71833e-58
-1.75163e-33
4.6551e-13
0.000364088
0.145608
0.350994
0.425152
0.44467
0.484575
0.598866
0.81191
0.985034
0.995482
0.999997
1
1
1
1
1
1
1
1
0.998932
0.995827
0.997728
0.999996
1
1
1
1
1
1
1
1
0.999994
0.881122
0.134032
-2.22441e-21
4.4095e-39
-6.06875e-25
3.6968e-27
2.9482e-28
7.37104e-37
-6.98468e-30
-1.5323e-31
-1.78955e-33
-1.45813e-35
3.44915e-52
3.12257e-33
6.1002e-29
1.21761e-24
1.59354e-20
8.14114e-17
2.25132e-13
4.48717e-10
4.20868e-07
0.000153549
0.0221881
0.235378
0.432014
0.473882
0.388028
0.232047
0.080501
0.0229346
0.0749823
0.255631
0.560882
0.883781
0.984379
1
1
1
0.999999
0.999974
0.99881
0.911639
0.273759
0.00132137
1.20502e-11
1.89548e-10
1.97527e-09
1.84926e-08
1.31842e-07
1.31902e-06
2.62822e-05
0.000792303
0.0274308
0.364312
0.826901
0.983246
0.999989
0.99997
0.999927
0.999843
0.999602
1
1
1
1
1
1
0.557587
4.36808e-05
3.40846e-27
-7.69611e-28
-1.62647e-31
-4.35761e-36
-1.1292e-38
-1.4755e-41
-1.02629e-44
-3.8081e-48
-7.46379e-52
-1.07986e-55
-2.51806e-59
-5.13538e-63
-6.14475e-67
-2.9478e-70
-3.43231e-73
-2.84691e-76
-1.49473e-79
-3.93224e-83
-2.16527e-73
3.26021e-27
5.6799e-10
0.115147
0.434146
0.781197
0.99629
1
1
1
1
1
1
1
1
1
1
1
1
0.756888
0.00341881
-8.48592e-24
-5.42652e-26
-3.53479e-28
-6.9861e-31
-1.19416e-33
-1.79811e-36
-3.27953e-39
-8.62634e-42
-2.8412e-44
-9.48453e-47
-5.44742e-43
-1.53999e-41
-7.30778e-38
-5.11745e-40
-1.66865e-42
-4.56947e-45
-1.212e-47
-3.52831e-50
-1.13162e-52
-3.59354e-55
-9.11982e-58
-1.58832e-60
9.80212e-40
5.26406e-38
-7.17923e-53
1.27822e-33
-1.78029e-60
8.41228e-41
1.32019e-32
4.41653e-23
3.19413e-14
2.46763e-05
0.131061
0.483424
0.840906
0.990553
0.996725
0.999593
1
0.999329
0.847483
0.587845
0.390545
0.312197
0.389236
0.622573
0.928861
0.991469
1
1
1
1
1
1
0.999991
0.881243
0.167583
2.25124e-17
1.87391e-32
-6.03627e-24
-1.33883e-25
-5.5709e-28
1.11073e-30
5.79997e-34
-1.95783e-31
-3.98295e-33
-5.00926e-35
-5.45733e-37
-6.16178e-39
5.51168e-40
1.81093e-35
4.6886e-31
3.31017e-27
2.05083e-23
7.99345e-20
1.92563e-16
3.21375e-13
3.3965e-11
4.85073e-10
5.38201e-09
1.23449e-06
5.02203e-05
0.000432314
2.39847e-07
3.97766e-11
8.79016e-09
7.77582e-07
5.6826e-05
0.00327757
0.131242
0.568798
0.910541
0.986331
0.999976
0.999784
0.9951
0.847601
0.263789
0.00204924
1.64223e-14
1.68806e-13
1.06206e-12
1.0433e-11
9.76774e-11
7.77782e-10
9.85122e-09
1.96162e-07
6.3298e-06
0.000239177
0.00821749
0.160774
0.587881
0.880004
0.967999
0.993702
0.994002
0.986067
1
1
1
1
1
0.888277
0.0512816
4.19793e-35
3.74541e-28
-6.53997e-31
-2.24896e-35
-7.37036e-38
-1.15982e-40
-9.25471e-44
-3.79937e-47
-8.04339e-51
-1.19594e-54
-2.69121e-58
-5.43436e-62
-5.63847e-66
-1.57037e-69
-2.04746e-72
-2.03047e-75
-1.42743e-78
-6.36881e-82
-1.459e-85
-1.21327e-45
-1.55759e-40
-9.79778e-37
-7.22244e-32
-6.61248e-27
5.62923e-07
0.22174
0.781744
0.998441
1
1
1
1
1
1
1
1
1
0.991223
0.196869
1.16542e-20
4.72455e-38
-1.15088e-27
-2.78231e-30
-6.56322e-33
-1.17296e-35
-2.14076e-38
-5.09851e-41
-1.59281e-43
-5.52655e-46
-1.852e-48
-6.86247e-45
-5.9951e-43
-5.5613e-40
-3.27281e-42
-9.18197e-45
-2.30511e-47
-5.91076e-50
-1.70378e-52
-5.35503e-55
-1.62502e-57
-3.89777e-60
-6.41449e-63
-1.81323e-60
-5.60266e-57
-3.13076e-54
-1.11236e-51
-3.32804e-49
-9.17994e-47
-2.60156e-44
-7.38224e-42
-1.65761e-39
-1.1805e-50
6.6326e-30
5.24973e-13
0.0018403
0.154199
0.344073
0.399407
0.316302
0.120576
0.00877817
0.00366388
0.000833546
1.10294e-23
3.27616e-16
9.86464e-08
0.0596754
0.46688
0.90387
0.99124
0.999582
1
1
0.999704
0.772809
0.140111
2.73123e-18
5.9072e-34
3.18021e-30
-7.27421e-25
-1.40637e-26
-1.0237e-28
-3.5208e-31
-1.34552e-32
-5.59162e-33
-1.22646e-34
-1.89553e-36
-2.45255e-38
-2.86848e-40
-3.20939e-42
-3.22384e-44
2.84407e-43
4.28815e-39
1.88417e-34
3.49054e-29
5.60797e-23
3.86346e-22
-2.33443e-44
-1.73304e-43
-1.01645e-49
-7.05072e-48
-3.04574e-46
4.19258e-44
1.60509e-24
8.11537e-21
1.51767e-16
3.36657e-13
3.29719e-10
1.21208e-07
3.31495e-05
0.00490925
0.176056
0.54719
0.792864
0.773825
0.542247
0.162251
0.00138498
7.74194e-18
1.25775e-16
1.2409e-15
7.85864e-15
4.15805e-14
2.79063e-13
2.33309e-12
2.93171e-11
7.32859e-10
2.83753e-08
1.22088e-06
4.95243e-05
0.00140466
0.0262801
0.20327
0.458468
0.605736
0.628959
0.556265
1
1
1
1
0.998584
0.292399
5.49691e-06
1.06574e-37
1.7892e-34
-4.6073e-35
-2.59219e-37
-5.57423e-40
-5.48618e-43
-2.61892e-46
-6.19961e-50
-9.92356e-54
-2.27879e-57
-4.49332e-61
-4.30242e-65
-6.84594e-69
-9.3976e-72
-1.02859e-74
-8.55814e-78
-5.05337e-81
-1.90062e-84
-3.72938e-88
-4.11454e-69
-7.12885e-64
-5.17895e-60
-1.67814e-56
-2.57698e-61
-3.01191e-49
-3.00519e-33
0.0132354
0.547162
0.996312
1
1
1
1
1
1
1
1
0.621957
0.000868398
3.36064e-36
1.01372e-40
-5.41999e-30
-2.26974e-32
-5.34032e-35
-1.06813e-37
-2.50945e-40
-7.51108e-43
-2.59976e-45
-9.118e-48
-3.01833e-50
-7.13955e-47
-1.71763e-44
-3.42926e-42
-1.78365e-44
-4.63415e-47
-1.11875e-49
-2.85022e-52
-8.10865e-55
-2.44831e-57
-6.99433e-60
-1.58134e-62
-2.47707e-65
-6.6872e-68
-1.1074e-64
-8.72158e-62
-8.88009e-59
-9.52996e-56
-1.06939e-52
-1.3241e-49
-1.89047e-46
-2.97074e-43
-4.82241e-40
-4.26209e-37
-1.80242e-34
-6.57326e-32
-1.10726e-29
1.69453e-09
1.75864e-06
0.000359296
2.02236e-19
2.61985e-20
1.01274e-20
2.047e-24
-7.72419e-45
3.1982e-41
6.35512e-61
5.94068e-29
1.40504e-08
0.0489319
0.396583
0.706905
0.834167
0.729929
0.395682
0.0480129
9.48661e-18
4.1921e-42
1.24948e-50
2.58983e-30
-5.52867e-26
-9.89824e-28
-8.49223e-30
-6.10916e-32
-2.3847e-33
-2.19615e-34
-5.34081e-36
-9.09509e-38
-1.17051e-39
-1.25919e-41
-1.27159e-43
-1.19729e-45
-9.96951e-48
-7.37776e-50
-1.29724e-51
-3.84448e-49
-5.27697e-47
-2.2175e-45
-3.12828e-44
-1.74379e-43
1.42565e-52
7.28345e-49
8.47123e-46
6.46401e-44
8.98519e-42
1.4887e-37
1.48945e-37
8.93727e-20
1.81095e-16
8.13267e-14
7.50788e-11
4.09011e-08
9.35355e-06
0.000754329
0.018272
0.0670857
0.042663
0.000625957
3.36655e-19
7.29463e-20
8.45022e-19
7.5598e-18
5.53773e-17
3.6204e-16
2.3675e-15
1.56731e-14
1.38071e-13
2.49168e-12
1.0476e-10
5.5804e-09
2.95546e-07
1.14673e-05
0.000219829
0.00224884
0.0139825
0.0439368
0.0683038
0.0559225
1
1
1
1
0.584216
0.000152762
1.81555e-24
7.56099e-53
1.27841e-36
-4.07792e-37
-1.58785e-39
-2.20815e-42
-1.31361e-45
-3.62418e-49
-6.41105e-53
-1.59923e-56
-3.30754e-60
-2.98942e-64
-2.6392e-68
-3.80371e-71
-4.36574e-74
-3.99359e-77
-2.77753e-80
-1.37125e-83
-4.32134e-87
-7.19997e-91
-7.84535e-70
-4.71538e-62
-4.38937e-58
-2.17696e-54
-6.8855e-51
-2.92452e-47
-6.17412e-31
-7.25242e-27
1.19458e-06
0.433062
0.992235
1
1
1
1
1
1
0.92894
0.0889594
3.10641e-21
-2.17301e-24
-4.41377e-27
-4.71139e-30
-3.85339e-33
-4.62297e-36
-7.28603e-39
-1.39205e-41
-3.14886e-44
-7.61876e-47
-1.92566e-49
-5.14744e-52
-6.26693e-49
-3.87044e-46
-1.80258e-44
-8.73563e-47
-2.21186e-49
-5.32309e-52
-1.35599e-54
-3.75215e-57
-1.07258e-59
-2.87454e-62
-6.16328e-65
-9.2898e-68
-6.93997e-71
-6.69278e-80
-4.15278e-77
-1.6198e-74
-5.24407e-72
-1.62291e-69
-5.09496e-67
-1.61276e-64
-4.38027e-62
-6.49946e-60
2.34448e-68
7.40408e-52
6.29986e-48
4.24487e-45
7.61973e-29
4.93666e-26
3.8194e-22
1.18408e-36
9.09987e-38
1.9953e-38
5.98409e-42
4.57743e-59
-6.11658e-51
-1.16634e-43
-1.93282e-41
3.46309e-38
1.95839e-18
2.24298e-13
2.25606e-07
0.00597192
0.0151526
0.00559073
2.17747e-06
1.632e-34
-5.47623e-39
-7.71526e-39
4.78721e-31
-3.15117e-27
-5.31388e-29
-5.06243e-31
-5.90469e-33
-2.39071e-34
-1.18215e-35
-2.768e-37
-4.47649e-39
-5.29977e-41
-5.15196e-43
-4.72874e-45
-4.08287e-47
-3.14998e-49
-2.17013e-51
-2.2183e-52
-8.30547e-50
-1.08881e-47
-4.66003e-46
-6.79148e-45
-3.93189e-44
-5.78482e-52
-1.46608e-50
-3.09702e-49
-4.67106e-48
-8.8507e-58
2.19607e-37
9.69369e-35
2.54418e-34
2.13995e-55
1.04073e-32
2.94744e-26
-2.97936e-35
3.98854e-39
6.6735e-20
2.89713e-27
2.06751e-18
4.0401e-18
1.26005e-24
7.20695e-27
2.72742e-34
3.94059e-32
1.72661e-32
3.08661e-32
1.77188e-31
4.66301e-29
5.68178e-29
2.71702e-27
1.2263e-27
1.22784e-27
1.3456e-22
6.48637e-20
2.12181e-17
3.80029e-16
2.46731e-15
9.59777e-15
3.24194e-14
9.70776e-14
2.71311e-13
1
1
1
0.738804
0.0274351
-7.16116e-24
7.69259e-46
-3.40939e-33
-4.0175e-36
-4.3598e-39
-6.5461e-42
-5.10818e-45
-1.84853e-48
-4.1272e-52
-1.16991e-55
-2.94904e-59
-4.57825e-63
-7.63936e-67
-2.52285e-70
-1.949e-73
-1.79572e-76
-1.35162e-79
-7.72065e-83
-3.1297e-86
-8.12808e-90
-1.13665e-93
-4.7345e-71
-1.95186e-60
-2.16285e-56
-1.23533e-52
-4.68649e-49
-2.34438e-45
-2.25485e-41
1.44644e-46
1.42664e-25
4.79602e-09
0.39734
0.988835
1
1
1
1
0.999319
0.345505
0.000192859
1.16541e-24
-5.60284e-26
-9.41978e-29
-9.57966e-32
-1.33696e-34
-2.40202e-37
-4.99328e-40
-1.136e-42
-2.44971e-45
-4.65232e-48
-8.06114e-51
-1.41264e-53
-4.71975e-51
-7.15357e-48
-8.52044e-47
-4.05343e-49
-1.03653e-51
-2.50579e-54
-6.29598e-57
-1.6709e-59
-4.50809e-62
-1.14115e-64
-2.34505e-67
-3.42999e-70
-2.52419e-73
-7.18148e-94
-4.07362e-117
-9.94551e-115
-2.14838e-112
-4.76988e-110
-1.02678e-107
-1.42747e-111
9.55645e-93
1.05793e-76
1.26117e-74
-2.89879e-84
0
2.06681e-78
1.38562e-58
2.53901e-42
6.78106e-40
4.99652e-95
-1.84424e-80
1.2189e-65
1.53723e-59
-8.62087e-61
-1.53579e-52
-1.31656e-47
9.44429e-57
6.693e-37
7.46819e-36
4.16027e-56
9.72687e-37
3.43795e-21
2.49358e-19
-2.51363e-40
-1.43518e-41
2.15498e-53
-1.27433e-38
-1.0106e-38
1.64872e-49
-1.45132e-28
-2.35437e-30
-2.56986e-32
-4.42276e-34
-1.77389e-35
-6.65066e-37
-1.40001e-38
-2.05894e-40
-2.22518e-42
-1.97458e-44
-1.66793e-46
-1.33541e-48
-9.63345e-51
-6.22222e-53
-2.17367e-53
-8.71749e-51
-1.18997e-48
-5.38893e-47
-8.26969e-46
-5.01065e-45
-2.62357e-51
-1.09252e-49
-4.52671e-48
-1.99699e-46
-1.04953e-44
-7.38153e-43
-7.04288e-41
-9.90694e-39
-6.57039e-37
-1.41564e-35
-9.20448e-35
7.02751e-47
1.66102e-32
7.01335e-30
2.99504e-27
1.01752e-24
3.44275e-24
4.36077e-26
2.69609e-39
5.80504e-36
8.69523e-35
1.59893e-33
2.36478e-32
1.61231e-31
2.15535e-29
1.59466e-28
2.53728e-29
7.88477e-28
2.40935e-25
2.73633e-22
6.60643e-20
1.98868e-17
3.89267e-16
2.47991e-15
9.11734e-15
2.8157e-14
8.20732e-14
2.39729e-13
0.90229
0.968646
0.563676
0.038933
1.50968e-20
-9.16049e-26
-3.45439e-30
-2.64812e-34
-6.84714e-38
-3.9606e-41
-2.24378e-44
-1.24219e-47
-4.04959e-51
-1.2545e-54
-3.8042e-58
-9.51521e-62
-2.22221e-65
-3.95299e-69
-1.21528e-72
-9.92386e-76
-7.53934e-79
-4.51017e-82
-2.04003e-85
-6.57977e-89
-1.39226e-92
-1.7112e-96
-1.71722e-84
-4.13624e-59
-5.62915e-55
-3.77028e-51
-1.74457e-47
-1.08788e-43
-9.45676e-40
-1.63938e-36
-1.32515e-33
-2.40466e-31
1.4705e-10
0.335086
0.960684
0.999426
1
0.999994
0.514832
0.00320649
-6.18069e-23
-8.7044e-27
-6.85568e-28
-1.08544e-30
-1.97698e-33
-4.37175e-36
-1.0773e-38
-2.82704e-41
-6.87068e-44
-1.41211e-46
-2.42728e-49
-3.62741e-52
-5.08178e-55
-3.09145e-53
-1.11607e-49
-3.8226e-49
-1.85245e-51
-4.82159e-54
-1.15526e-56
-2.81963e-59
-7.15034e-62
-1.83499e-64
-4.44189e-67
-8.82932e-70
-1.25534e-72
-9.05129e-76
-4.58452e-91
-6.44536e-116
-2.09771e-113
-6.23331e-111
-2.02016e-108
-7.7156e-106
-3.47567e-103
-1.64988e-100
-7.35546e-98
-2.20313e-95
-4.27806e-93
-5.40551e-91
2.94475e-96
8.80553e-76
5.14143e-60
1.8267e-57
-1.2351e-84
-5.47891e-82
2.49064e-82
3.34866e-77
-5.38797e-60
-1.11161e-51
-2.16028e-46
-2.38205e-43
-4.90375e-41
-3.86057e-39
-1.32622e-37
-2.77333e-36
-2.48415e-36
4.42148e-38
-1.22057e-31
-3.8006e-38
-5.05013e-39
-1.44776e-38
-7.33399e-39
-5.33489e-40
-5.70483e-30
-9.11491e-32
-1.21757e-33
-2.80346e-35
-1.07923e-36
-3.4401e-38
-6.50808e-40
-8.73842e-42
-8.71878e-44
-7.16252e-46
-5.63474e-48
-4.2211e-50
-2.86236e-52
-1.73855e-54
-1.3266e-54
-5.62899e-52
-7.99613e-50
-3.81496e-48
-6.13949e-47
-3.88267e-46
-3.68754e-51
-1.75671e-49
-8.05106e-48
-3.75882e-46
-1.96586e-44
-1.28937e-42
-1.09203e-40
-1.11724e-38
-6.78169e-37
-1.44908e-35
-9.54911e-35
3.16686e-46
1.0448e-31
1.53119e-29
3.30625e-28
1.00531e-24
5.21131e-24
2.32389e-41
-1.34947e-57
4.3239e-37
2.47257e-35
2.6692e-34
1.31886e-32
5.72661e-32
9.1992e-31
4.2171e-29
5.22139e-30
1.67218e-29
1.8644e-25
3.64365e-22
1.08268e-19
3.43642e-17
7.59188e-16
5.22541e-15
2.15116e-14
7.05455e-14
2.07204e-13
5.89363e-13
0.00351216
0.00773897
9.49748e-05
-4.26899e-24
-2.14499e-39
-1.75844e-28
-6.72962e-33
-1.03846e-36
-5.17595e-40
-1.82594e-43
-1.23613e-46
-4.91533e-50
-1.56275e-53
-5.11275e-57
-1.52669e-60
-4.06004e-64
-6.53343e-68
-1.07279e-71
-6.90062e-75
-5.26845e-78
-3.14648e-81
-1.46222e-84
-5.13062e-88
-1.32019e-91
-2.46981e-95
-3.40569e-99
-2.99999e-86
-5.41918e-69
-1.28053e-64
-1.63382e-60
-1.73359e-56
-2.79781e-52
-6.06763e-48
-5.36231e-44
-2.45325e-40
-5.17321e-37
6.02772e-40
8.91495e-20
0.15136
0.5932
0.695648
0.340624
0.00545963
2.44821e-21
-7.59196e-25
-3.78976e-28
-6.46658e-30
-1.79337e-32
-5.1606e-35
-1.53722e-37
-4.69436e-40
-1.30979e-42
-3.06174e-45
-5.86209e-48
-9.32826e-51
-1.28413e-53
-1.625e-56
-1.78115e-55
-1.50062e-51
-1.69679e-51
-8.44431e-54
-2.20693e-56
-5.16008e-59
-1.21686e-61
-2.96836e-64
-7.33831e-67
-1.71645e-69
-3.30714e-72
-4.54228e-75
-3.17603e-78
-1.68399e-88
-9.5607e-115
-3.67746e-112
-1.26264e-109
-4.61163e-107
-1.94535e-104
-9.61635e-102
-5.13789e-99
-2.70343e-96
-1.0158e-93
-2.14079e-91
-2.13529e-89
-8.10014e-88
-1.59238e-86
-6.25694e-86
-6.58396e-85
-1.92521e-82
-6.64599e-80
-3.30893e-77
-5.77916e-74
-1.20535e-59
-3.92649e-51
-9.43291e-46
-9.28749e-43
-2.1973e-40
-2.28705e-38
-1.30935e-36
-5.06897e-35
-1.22729e-33
-1.76516e-32
-1.82502e-31
-6.11237e-38
-7.45196e-39
-1.07277e-38
-3.85341e-39
-4.24864e-40
-1.99939e-31
-3.21804e-33
-5.58368e-35
-1.5563e-36
-5.68151e-38
-1.61079e-39
-2.78279e-41
-3.45934e-43
-3.22926e-45
-2.48516e-47
-1.83515e-49
-1.29274e-51
-8.26488e-54
-4.73022e-56
-5.25271e-56
-2.3338e-53
-3.43146e-51
-1.71273e-49
-2.87598e-48
-1.88584e-47
-2.30729e-51
-1.17386e-49
-5.68446e-48
-2.77222e-46
-1.48959e-44
-9.78821e-43
-8.02627e-41
-7.45855e-39
-4.54e-37
-1.04621e-35
-7.89154e-35
3.25581e-51
1.40821e-31
4.92624e-30
4.51857e-29
4.61826e-25
3.74007e-24
-1.83024e-40
-4.22095e-41
1.37952e-39
1.48819e-36
3.00237e-36
2.39226e-33
1.34104e-33
4.84823e-35
4.04269e-36
3.62793e-34
4.6986e-30
1.02298e-25
1.77541e-22
3.15663e-20
9.50672e-18
4.18913e-16
4.38841e-15
2.21479e-14
7.93294e-14
2.38375e-13
6.40605e-13
3.39593e-46
7.06061e-22
-3.00517e-31
-3.7392e-27
-2.21557e-36
-1.56159e-31
-1.05318e-35
-5.33491e-39
-1.58902e-42
-1.18392e-45
-5.09308e-49
-1.648e-52
-5.65123e-56
-1.82992e-59
-5.35606e-63
-8.78365e-67
-1.06773e-70
-5.25721e-74
-4.00392e-77
-2.42039e-80
-1.13337e-83
-4.10042e-87
-1.14417e-90
-2.60479e-94
-5.46382e-98
-1.02341e-101
-5.06591e-88
-9.4696e-68
-3.3285e-63
-5.39239e-59
-7.03085e-55
-1.2784e-50
-2.66194e-46
-2.63659e-42
-1.61701e-38
-6.53927e-35
-1.2537e-31
-1.3565e-28
1.79279e-26
8.84223e-07
0.00084767
0.000602635
1.51902e-19
-3.66419e-25
-3.2718e-26
-1.83782e-29
-1.0872e-31
-4.32294e-34
-1.59127e-36
-5.68819e-39
-1.82428e-41
-4.87511e-44
-1.05922e-46
-1.87901e-49
-2.78545e-52
-3.59777e-55
-4.29208e-58
-9.11587e-58
-1.76616e-53
-7.57595e-54
-3.81259e-56
-9.8455e-59
-2.23441e-61
-5.1193e-64
-1.21514e-66
-2.92238e-69
-6.61885e-72
-1.22798e-74
-1.61108e-77
-1.08041e-80
-3.91067e-86
-1.17395e-113
-5.24784e-111
-2.03994e-108
-8.19878e-106
-3.71017e-103
-1.93112e-100
-1.08117e-97
-5.96775e-95
-2.4463e-92
-6.01431e-90
-7.80675e-88
-4.68048e-86
-1.64565e-84
-1.91125e-83
-2.72461e-82
-5.7877e-80
-1.41426e-77
-4.71057e-75
-3.77194e-72
-2.30213e-60
-1.75654e-51
-3.55367e-46
-3.08553e-43
-7.69733e-41
-8.89654e-39
-5.81486e-37
-2.60007e-35
-7.44838e-34
-1.30969e-32
-1.30805e-31
-5.2506e-38
-6.05884e-39
-5.83886e-39
-1.60921e-39
-1.94107e-40
-6.47007e-33
-1.06796e-34
-2.47346e-36
-7.73081e-38
-2.67979e-39
-6.92618e-41
-1.11045e-42
-1.29472e-44
-1.1424e-46
-8.30109e-49
-5.78008e-51
-3.83878e-53
-2.31758e-55
-1.25155e-57
-1.36268e-57
-6.23115e-55
-9.3928e-53
-4.87115e-51