/*--------------------------------*- C++ -*----------------------------------*\
| =========                 |                                                 |
| \\      /  F ield         | OpenFOAM: The Open Source CFD Toolbox           |
|  \\    /   O peration     | Version:  v1912                                 |
|   \\  /    A nd           | Website:  www.openfoam.com                      |
|    \\/     M anipulation  |                                                 |
\*---------------------------------------------------------------------------*/
FoamFile
{
    version     2.0;
    format      ascii;
    class       volScalarField;
    location    "30";
    object      k;
}
// * * * * * * * * * * * * * * * * * * * * * * * * * * * * * * * * * * * * * //

dimensions      [0 2 -2 0 0 0 0];


internalField   nonuniform List<scalar> 
14268
(
8.40833e-07
8.45575e-07
8.56526e-07
8.63089e-07
8.64652e-07
8.64578e-07
8.64166e-07
8.64218e-07
8.6485e-07
8.65877e-07
8.67069e-07
8.68131e-07
8.68619e-07
8.68536e-07
8.68016e-07
8.67269e-07
8.66441e-07
8.66155e-07
8.67374e-07
8.69787e-07
8.73141e-07
8.77196e-07
8.81694e-07
8.86335e-07
8.90945e-07
8.95377e-07
8.99427e-07
9.02959e-07
9.05978e-07
9.08619e-07
9.11087e-07
9.1359e-07
9.16278e-07
9.19256e-07
9.2255e-07
9.25957e-07
9.28981e-07
9.31058e-07
9.31714e-07
9.30926e-07
9.29694e-07
9.28169e-07
9.26354e-07
9.24805e-07
9.23768e-07
9.23377e-07
9.23579e-07
9.24203e-07
9.24965e-07
9.2567e-07
9.26054e-07
9.25781e-07
9.25085e-07
9.24207e-07
9.23268e-07
9.22352e-07
9.21504e-07
9.20735e-07
9.20022e-07
9.19328e-07
9.18627e-07
9.17933e-07
9.17798e-07
9.19406e-07
9.22626e-07
9.27208e-07
9.32818e-07
9.39025e-07
9.45337e-07
9.51321e-07
9.5674e-07
9.61482e-07
9.65495e-07
9.68745e-07
9.71373e-07
9.73564e-07
9.75529e-07
9.77421e-07
9.79316e-07
9.81199e-07
9.82963e-07
9.84473e-07
9.8556e-07
9.8604e-07
9.85809e-07
9.8482e-07
9.83183e-07
9.80783e-07
9.7759e-07
9.74198e-07
9.71214e-07
9.6877e-07
9.66826e-07
9.65237e-07
9.63776e-07
9.62153e-07
9.60048e-07
9.57692e-07
9.55125e-07
9.5225e-07
9.4909e-07
9.4576e-07
9.42483e-07
9.39424e-07
9.36672e-07
9.34257e-07
9.3213e-07
9.30213e-07
9.28204e-07
9.25901e-07
9.23282e-07
9.20362e-07
9.17202e-07
9.13908e-07
9.10625e-07
9.07927e-07
9.06588e-07
9.06387e-07
9.0715e-07
9.08623e-07
9.10564e-07
9.12716e-07
9.14822e-07
9.16593e-07
9.17785e-07
9.18095e-07
9.173e-07
9.15452e-07
9.128e-07
9.0962e-07
9.06164e-07
9.02656e-07
8.99279e-07
8.96208e-07
8.93532e-07
8.9122e-07
8.89119e-07
8.86963e-07
8.84459e-07
8.81399e-07
8.7779e-07
8.74215e-07
8.70771e-07
8.67506e-07
8.64476e-07
8.61692e-07
8.59134e-07
8.56742e-07
8.54331e-07
8.51839e-07
8.49301e-07
8.471e-07
8.46037e-07
8.45964e-07
8.46719e-07
8.48005e-07
8.49497e-07
8.50914e-07
8.51996e-07
8.52495e-07
8.52319e-07
8.51338e-07
8.4991e-07
8.47901e-07
2.85752e-07
3.2707e-07
3.7625e-07
3.9278e-07
3.9152e-07
3.81568e-07
3.67857e-07
3.53291e-07
3.38996e-07
3.25573e-07
3.13475e-07
3.0304e-07
2.94483e-07
2.87926e-07
2.83429e-07
2.80981e-07
2.80523e-07
2.8171e-07
2.83599e-07
2.86168e-07
2.89389e-07
2.93228e-07
2.97619e-07
3.0248e-07
3.07721e-07
3.13275e-07
3.19074e-07
3.25036e-07
3.31099e-07
3.37234e-07
3.43486e-07
3.49996e-07
3.56941e-07
3.64453e-07
3.72522e-07
3.80916e-07
3.89113e-07
3.96432e-07
4.02113e-07
4.05261e-07
4.04741e-07
3.99823e-07
3.906e-07
3.77944e-07
3.62909e-07
3.46695e-07
3.30555e-07
3.15511e-07
3.0228e-07
2.91187e-07
2.82365e-07
2.75601e-07
2.70491e-07
2.66533e-07
2.63178e-07
2.59929e-07
2.56493e-07
2.52849e-07
2.49213e-07
2.45998e-07
2.43707e-07
2.42734e-07
2.43196e-07
2.44245e-07
2.45928e-07
2.48272e-07
2.51225e-07
2.54792e-07
2.58908e-07
2.6345e-07
2.68196e-07
2.72896e-07
2.7735e-07
2.81452e-07
2.85215e-07
2.88688e-07
2.91956e-07
2.95094e-07
2.98156e-07
3.0114e-07
3.04003e-07
3.06659e-07
3.08975e-07
3.10873e-07
3.12317e-07
3.13326e-07
3.14001e-07
3.14806e-07
3.16099e-07
3.17852e-07
3.20019e-07
3.2263e-07
3.2568e-07
3.29082e-07
3.32645e-07
3.36082e-07
3.3905e-07
3.40779e-07
3.40759e-07
3.38722e-07
3.34558e-07
3.28363e-07
3.2035e-07
3.10935e-07
3.00659e-07
2.90058e-07
2.79649e-07
2.69876e-07
2.61109e-07
2.53637e-07
2.47677e-07
2.43375e-07
2.40803e-07
2.39927e-07
2.40834e-07
2.43049e-07
2.45701e-07
2.48797e-07
2.52341e-07
2.56328e-07
2.60723e-07
2.65463e-07
2.70464e-07
2.75618e-07
2.80817e-07
2.86017e-07
2.91124e-07
2.95984e-07
3.005e-07
3.04678e-07
3.08616e-07
3.12478e-07
3.16412e-07
3.20503e-07
3.24813e-07
3.29348e-07
3.34002e-07
3.38569e-07
3.42772e-07
3.46288e-07
3.48671e-07
3.49295e-07
3.48132e-07
3.45325e-07
3.41303e-07
3.36647e-07
3.31964e-07
3.27838e-07
3.24819e-07
3.23366e-07
3.23807e-07
3.26044e-07
3.29442e-07
3.33919e-07
3.39269e-07
3.4516e-07
3.51323e-07
3.57468e-07
3.63266e-07
3.68384e-07
3.72604e-07
3.75814e-07
3.77897e-07
3.78165e-07
1.11181e-07
1.36577e-07
1.73471e-07
1.89947e-07
1.92628e-07
1.90134e-07
1.85511e-07
1.80755e-07
1.76407e-07
1.72674e-07
1.69613e-07
1.67208e-07
1.654e-07
1.64119e-07
1.63296e-07
1.62873e-07
1.62807e-07
1.63023e-07
1.63336e-07
1.6375e-07
1.64275e-07
1.64919e-07
1.65685e-07
1.66575e-07
1.67592e-07
1.68735e-07
1.69994e-07
1.71357e-07
1.72829e-07
1.74401e-07
1.76076e-07
1.7788e-07
1.79853e-07
1.8203e-07
1.84416e-07
1.8696e-07
1.89525e-07
1.91892e-07
1.93812e-07
1.94943e-07
1.94739e-07
1.92886e-07
1.89504e-07
1.85079e-07
1.80163e-07
1.753e-07
1.70891e-07
1.67168e-07
1.64219e-07
1.61993e-07
1.60383e-07
1.59243e-07
1.5844e-07
1.5785e-07
1.57369e-07
1.56922e-07
1.56473e-07
1.56024e-07
1.55601e-07
1.55251e-07
1.55025e-07
1.54963e-07
1.55053e-07
1.55175e-07
1.55335e-07
1.55549e-07
1.55825e-07
1.56195e-07
1.56669e-07
1.57247e-07
1.57905e-07
1.58604e-07
1.59303e-07
1.59972e-07
1.606e-07
1.61195e-07
1.61765e-07
1.62315e-07
1.62855e-07
1.63387e-07
1.63896e-07
1.64367e-07
1.64785e-07
1.65131e-07
1.65392e-07
1.65572e-07
1.65693e-07
1.65858e-07
1.66152e-07
1.66565e-07
1.67081e-07
1.67705e-07
1.68436e-07
1.69258e-07
1.70134e-07
1.71002e-07
1.71777e-07
1.72251e-07
1.72273e-07
1.71779e-07
1.70761e-07
1.69277e-07
1.67426e-07
1.6536e-07
1.63255e-07
1.61262e-07
1.59493e-07
1.58007e-07
1.56828e-07
1.55949e-07
1.55349e-07
1.54999e-07
1.54865e-07
1.54934e-07
1.55192e-07
1.55589e-07
1.56029e-07
1.5652e-07
1.57078e-07
1.57717e-07
1.58444e-07
1.59263e-07
1.60174e-07
1.6117e-07
1.62229e-07
1.63341e-07
1.64481e-07
1.65609e-07
1.66703e-07
1.67764e-07
1.68805e-07
1.69856e-07
1.70948e-07
1.72099e-07
1.73328e-07
1.74642e-07
1.76016e-07
1.77402e-07
1.78718e-07
1.79871e-07
1.80709e-07
1.81008e-07
1.80753e-07
1.79994e-07
1.78881e-07
1.77612e-07
1.76369e-07
1.75311e-07
1.74576e-07
1.74271e-07
1.74469e-07
1.7515e-07
1.76155e-07
1.77479e-07
1.79071e-07
1.80848e-07
1.82747e-07
1.8469e-07
1.86576e-07
1.88284e-07
1.89731e-07
1.90886e-07
1.91674e-07
1.91755e-07
8.02051e-08
1.00366e-07
1.3231e-07
1.48817e-07
1.5365e-07
1.53946e-07
1.52981e-07
1.51751e-07
1.50717e-07
1.49937e-07
1.49387e-07
1.49036e-07
1.48835e-07
1.48736e-07
1.48705e-07
1.48716e-07
1.48752e-07
1.48794e-07
1.48814e-07
1.48817e-07
1.48814e-07
1.48819e-07
1.48844e-07
1.48902e-07
1.49004e-07
1.49159e-07
1.49367e-07
1.49627e-07
1.49942e-07
1.50311e-07
1.50733e-07
1.51213e-07
1.5176e-07
1.52383e-07
1.53083e-07
1.53842e-07
1.54619e-07
1.55338e-07
1.55908e-07
1.56212e-07
1.56085e-07
1.55425e-07
1.54314e-07
1.52949e-07
1.51545e-07
1.50277e-07
1.49243e-07
1.48478e-07
1.47961e-07
1.47641e-07
1.47456e-07
1.47352e-07
1.47299e-07
1.47272e-07
1.4726e-07
1.4726e-07
1.47274e-07
1.47305e-07
1.47356e-07
1.47424e-07
1.47504e-07
1.47584e-07
1.47647e-07
1.47666e-07
1.47635e-07
1.47561e-07
1.47468e-07
1.47377e-07
1.47308e-07
1.47274e-07
1.4728e-07
1.47325e-07
1.47395e-07
1.47476e-07
1.47561e-07
1.47651e-07
1.47741e-07
1.47828e-07
1.47911e-07
1.47992e-07
1.48066e-07
1.48132e-07
1.48186e-07
1.48229e-07
1.48257e-07
1.4827e-07
1.48274e-07
1.48291e-07
1.48341e-07
1.48422e-07
1.48532e-07
1.48669e-07
1.48833e-07
1.49017e-07
1.49211e-07
1.49397e-07
1.49557e-07
1.49645e-07
1.49625e-07
1.4948e-07
1.49218e-07
1.48867e-07
1.48458e-07
1.48039e-07
1.47657e-07
1.47343e-07
1.47119e-07
1.46983e-07
1.46924e-07
1.46922e-07
1.46962e-07
1.47027e-07
1.47102e-07
1.47177e-07
1.4725e-07
1.47309e-07
1.47346e-07
1.47364e-07
1.47368e-07
1.47377e-07
1.47396e-07
1.47433e-07
1.47504e-07
1.47616e-07
1.47765e-07
1.47948e-07
1.48151e-07
1.48357e-07
1.48568e-07
1.48788e-07
1.49022e-07
1.49272e-07
1.49537e-07
1.49817e-07
1.5012e-07
1.50445e-07
1.5079e-07
1.51141e-07
1.51476e-07
1.51768e-07
1.51975e-07
1.52034e-07
1.51944e-07
1.51723e-07
1.51421e-07
1.51103e-07
1.50815e-07
1.50594e-07
1.50461e-07
1.50428e-07
1.50507e-07
1.50705e-07
1.50985e-07
1.51336e-07
1.5175e-07
1.52217e-07
1.52729e-07
1.53263e-07
1.53797e-07
1.54287e-07
1.54699e-07
1.55064e-07
1.5529e-07
1.55206e-07
7.40746e-08
9.26405e-08
1.23264e-07
1.40122e-07
1.45744e-07
1.47005e-07
1.46989e-07
1.46722e-07
1.46527e-07
1.46424e-07
1.46432e-07
1.46514e-07
1.46638e-07
1.46774e-07
1.469e-07
1.46999e-07
1.47061e-07
1.47083e-07
1.47059e-07
1.46996e-07
1.46905e-07
1.46797e-07
1.46687e-07
1.46587e-07
1.4651e-07
1.46466e-07
1.46461e-07
1.46493e-07
1.46564e-07
1.46675e-07
1.46824e-07
1.47011e-07
1.47236e-07
1.47502e-07
1.47804e-07
1.48131e-07
1.48457e-07
1.48744e-07
1.48946e-07
1.49012e-07
1.4889e-07
1.48545e-07
1.48034e-07
1.47453e-07
1.46901e-07
1.4645e-07
1.46136e-07
1.45959e-07
1.45899e-07
1.45917e-07
1.45973e-07
1.46038e-07
1.461e-07
1.46157e-07
1.46213e-07
1.46276e-07
1.46357e-07
1.4646e-07
1.46584e-07
1.46719e-07
1.46852e-07
1.46964e-07
1.47038e-07
1.47059e-07
1.47014e-07
1.4691e-07
1.46773e-07
1.46621e-07
1.46473e-07
1.46345e-07
1.46248e-07
1.46184e-07
1.46149e-07
1.46131e-07
1.46127e-07
1.46134e-07
1.46146e-07
1.46158e-07
1.46169e-07
1.46176e-07
1.46178e-07
1.46175e-07
1.46166e-07
1.46152e-07
1.46133e-07
1.46112e-07
1.46091e-07
1.46077e-07
1.46079e-07
1.46099e-07
1.46137e-07
1.4619e-07
1.46252e-07
1.46318e-07
1.46382e-07
1.46434e-07
1.46466e-07
1.46465e-07
1.46422e-07
1.46331e-07
1.46202e-07
1.46052e-07
1.45899e-07
1.45763e-07
1.45667e-07
1.45621e-07
1.4563e-07
1.45691e-07
1.4579e-07
1.4591e-07
1.46037e-07
1.46159e-07
1.46264e-07
1.46344e-07
1.46398e-07
1.46417e-07
1.46402e-07
1.46353e-07
1.46279e-07
1.46189e-07
1.4609e-07
1.45993e-07
1.45911e-07
1.45853e-07
1.4582e-07
1.45812e-07
1.45819e-07
1.45828e-07
1.45848e-07
1.45885e-07
1.4594e-07
1.46012e-07
1.46094e-07
1.46179e-07
1.46267e-07
1.4636e-07
1.46456e-07
1.46549e-07
1.46631e-07
1.46694e-07
1.46728e-07
1.46716e-07
1.46658e-07
1.4657e-07
1.46472e-07
1.46402e-07
1.46365e-07
1.46365e-07
1.46395e-07
1.46447e-07
1.46527e-07
1.46636e-07
1.46752e-07
1.46861e-07
1.4697e-07
1.47088e-07
1.47229e-07
1.47381e-07
1.47534e-07
1.47675e-07
1.47811e-07
1.47899e-07
1.48014e-07
1.47939e-07
7.2551e-08
9.03844e-08
1.20684e-07
1.3803e-07
1.44079e-07
1.45635e-07
1.45843e-07
1.45799e-07
1.45795e-07
1.45842e-07
1.4597e-07
1.46142e-07
1.46332e-07
1.46519e-07
1.46681e-07
1.46806e-07
1.46883e-07
1.46911e-07
1.4689e-07
1.46826e-07
1.46726e-07
1.46605e-07
1.46475e-07
1.46347e-07
1.46235e-07
1.4615e-07
1.46097e-07
1.46077e-07
1.46094e-07
1.46152e-07
1.46247e-07
1.46378e-07
1.46544e-07
1.46741e-07
1.46963e-07
1.47197e-07
1.47421e-07
1.47607e-07
1.47718e-07
1.47722e-07
1.47586e-07
1.47302e-07
1.46916e-07
1.46499e-07
1.4612e-07
1.45826e-07
1.45643e-07
1.45571e-07
1.45592e-07
1.45669e-07
1.45765e-07
1.45857e-07
1.45935e-07
1.46001e-07
1.46062e-07
1.46129e-07
1.46215e-07
1.46328e-07
1.4647e-07
1.46628e-07
1.46786e-07
1.46923e-07
1.47018e-07
1.47056e-07
1.47025e-07
1.46929e-07
1.46791e-07
1.46632e-07
1.46472e-07
1.46329e-07
1.46214e-07
1.46131e-07
1.46074e-07
1.46035e-07
1.46011e-07
1.46e-07
1.45994e-07
1.4599e-07
1.45985e-07
1.45972e-07
1.45954e-07
1.45928e-07
1.45897e-07
1.45862e-07
1.45825e-07
1.4579e-07
1.45761e-07
1.45741e-07
1.45739e-07
1.45752e-07
1.45782e-07
1.45826e-07
1.45878e-07
1.4593e-07
1.45975e-07
1.46006e-07
1.46015e-07
1.45995e-07
1.45938e-07
1.45848e-07
1.45733e-07
1.45608e-07
1.45488e-07
1.45391e-07
1.45334e-07
1.45324e-07
1.45363e-07
1.45449e-07
1.45569e-07
1.45709e-07
1.45854e-07
1.45989e-07
1.46106e-07
1.46196e-07
1.46258e-07
1.46284e-07
1.46273e-07
1.46227e-07
1.46151e-07
1.46055e-07
1.45944e-07
1.4583e-07
1.45724e-07
1.45633e-07
1.4556e-07
1.45507e-07
1.45463e-07
1.45422e-07
1.45399e-07
1.45397e-07
1.45416e-07
1.45454e-07
1.45504e-07
1.45558e-07
1.45609e-07
1.45658e-07
1.45703e-07
1.45738e-07
1.45756e-07
1.45755e-07
1.45737e-07
1.45699e-07
1.45642e-07
1.45583e-07
1.45542e-07
1.45535e-07
1.4556e-07
1.45618e-07
1.457e-07
1.45798e-07
1.45908e-07
1.46022e-07
1.46118e-07
1.46189e-07
1.46236e-07
1.46273e-07
1.4631e-07
1.46341e-07
1.46374e-07
1.46407e-07
1.46445e-07
1.46452e-07
1.46525e-07
1.46469e-07
7.19054e-08
8.91536e-08
1.1935e-07
1.37248e-07
1.4359e-07
1.45272e-07
1.4558e-07
1.45591e-07
1.45639e-07
1.45727e-07
1.45887e-07
1.46075e-07
1.46278e-07
1.46483e-07
1.46665e-07
1.46808e-07
1.46901e-07
1.46939e-07
1.4693e-07
1.46879e-07
1.46782e-07
1.46662e-07
1.46527e-07
1.4639e-07
1.46265e-07
1.46164e-07
1.46095e-07
1.4606e-07
1.46065e-07
1.46111e-07
1.46197e-07
1.46323e-07
1.46486e-07
1.46681e-07
1.46898e-07
1.47124e-07
1.47334e-07
1.47499e-07
1.4758e-07
1.47551e-07
1.47384e-07
1.47085e-07
1.46701e-07
1.46293e-07
1.45927e-07
1.45651e-07
1.4549e-07
1.45441e-07
1.45485e-07
1.45585e-07
1.45701e-07
1.45812e-07
1.45902e-07
1.4597e-07
1.46027e-07
1.46091e-07
1.46179e-07
1.46301e-07
1.46458e-07
1.46638e-07
1.46823e-07
1.4699e-07
1.47114e-07
1.47176e-07
1.47165e-07
1.47081e-07
1.4694e-07
1.46772e-07
1.46598e-07
1.46437e-07
1.46302e-07
1.46201e-07
1.46129e-07
1.46076e-07
1.46043e-07
1.46024e-07
1.46012e-07
1.46001e-07
1.45987e-07
1.45967e-07
1.4594e-07
1.45905e-07
1.45861e-07
1.45811e-07
1.45759e-07
1.4571e-07
1.45669e-07
1.45639e-07
1.45629e-07
1.4564e-07
1.45673e-07
1.45724e-07
1.45783e-07
1.4584e-07
1.45889e-07
1.4592e-07
1.45926e-07
1.45897e-07
1.4583e-07
1.45727e-07
1.45601e-07
1.45467e-07
1.45342e-07
1.45241e-07
1.45183e-07
1.45174e-07
1.45216e-07
1.45306e-07
1.45434e-07
1.45584e-07
1.45742e-07
1.45891e-07
1.46022e-07
1.46128e-07
1.46205e-07
1.46246e-07
1.4625e-07
1.46219e-07
1.46157e-07
1.46072e-07
1.4597e-07
1.4586e-07
1.45754e-07
1.45657e-07
1.45574e-07
1.45508e-07
1.4545e-07
1.45393e-07
1.45358e-07
1.4535e-07
1.45365e-07
1.45402e-07
1.45454e-07
1.45517e-07
1.45576e-07
1.45632e-07
1.45677e-07
1.45704e-07
1.45708e-07
1.45685e-07
1.45638e-07
1.45578e-07
1.45504e-07
1.45442e-07
1.45405e-07
1.4541e-07
1.45453e-07
1.45539e-07
1.45664e-07
1.45813e-07
1.45969e-07
1.46117e-07
1.46238e-07
1.46329e-07
1.46378e-07
1.46404e-07
1.46412e-07
1.46401e-07
1.46399e-07
1.46403e-07
1.46391e-07
1.46348e-07
1.46378e-07
1.46323e-07
7.13836e-08
8.80191e-08
1.18119e-07
1.36659e-07
1.4335e-07
1.45176e-07
1.45538e-07
1.45564e-07
1.45628e-07
1.45732e-07
1.45911e-07
1.46107e-07
1.46318e-07
1.46544e-07
1.46746e-07
1.46909e-07
1.47019e-07
1.47071e-07
1.47075e-07
1.47032e-07
1.46933e-07
1.46815e-07
1.46678e-07
1.46531e-07
1.46392e-07
1.46272e-07
1.46182e-07
1.4613e-07
1.46124e-07
1.46166e-07
1.46257e-07
1.46395e-07
1.46575e-07
1.46788e-07
1.47021e-07
1.47257e-07
1.4747e-07
1.47627e-07
1.47694e-07
1.47642e-07
1.47443e-07
1.47112e-07
1.46693e-07
1.46258e-07
1.45875e-07
1.45588e-07
1.45426e-07
1.45387e-07
1.45445e-07
1.45559e-07
1.45686e-07
1.45802e-07
1.45893e-07
1.45955e-07
1.46003e-07
1.46064e-07
1.46153e-07
1.46281e-07
1.46451e-07
1.46654e-07
1.46869e-07
1.47068e-07
1.47226e-07
1.47316e-07
1.47326e-07
1.47253e-07
1.47116e-07
1.46937e-07
1.46747e-07
1.46567e-07
1.46412e-07
1.46291e-07
1.46203e-07
1.46137e-07
1.46094e-07
1.46068e-07
1.46051e-07
1.46037e-07
1.46019e-07
1.45992e-07
1.45957e-07
1.45912e-07
1.45855e-07
1.4579e-07
1.45722e-07
1.45658e-07
1.45604e-07
1.45568e-07
1.4555e-07
1.45561e-07
1.45599e-07
1.45658e-07
1.45728e-07
1.45796e-07
1.45853e-07
1.45889e-07
1.45894e-07
1.45858e-07
1.4578e-07
1.45662e-07
1.4552e-07
1.4537e-07
1.4523e-07
1.45117e-07
1.45049e-07
1.45035e-07
1.45077e-07
1.4517e-07
1.45304e-07
1.45463e-07
1.45632e-07
1.45796e-07
1.45941e-07
1.46068e-07
1.46166e-07
1.46228e-07
1.46254e-07
1.46243e-07
1.46198e-07
1.46127e-07
1.46035e-07
1.45928e-07
1.45819e-07
1.45717e-07
1.45625e-07
1.45546e-07
1.45472e-07
1.45405e-07
1.45363e-07
1.45353e-07
1.45372e-07
1.45419e-07
1.45487e-07
1.45569e-07
1.45651e-07
1.45724e-07
1.45779e-07
1.4581e-07
1.45809e-07
1.45773e-07
1.45707e-07
1.4563e-07
1.45538e-07
1.45463e-07
1.45423e-07
1.45428e-07
1.45483e-07
1.45606e-07
1.45785e-07
1.45995e-07
1.46207e-07
1.46399e-07
1.46557e-07
1.46672e-07
1.46728e-07
1.46745e-07
1.46725e-07
1.46683e-07
1.46656e-07
1.46626e-07
1.46576e-07
1.46501e-07
1.46492e-07
1.4643e-07
7.08542e-08
8.68335e-08
1.16804e-07
1.36057e-07
1.43139e-07
1.45116e-07
1.45504e-07
1.45536e-07
1.45616e-07
1.45729e-07
1.45904e-07
1.46106e-07
1.46354e-07
1.46607e-07
1.46836e-07
1.47023e-07
1.47163e-07
1.47249e-07
1.47273e-07
1.47222e-07
1.47122e-07
1.46989e-07
1.46845e-07
1.46689e-07
1.46534e-07
1.46396e-07
1.4629e-07
1.46224e-07
1.46208e-07
1.4625e-07
1.46349e-07
1.46503e-07
1.46707e-07
1.46948e-07
1.47209e-07
1.47467e-07
1.4769e-07
1.47844e-07
1.47894e-07
1.47813e-07
1.47574e-07
1.47199e-07
1.46737e-07
1.4626e-07
1.45841e-07
1.45533e-07
1.45363e-07
1.45329e-07
1.45402e-07
1.45532e-07
1.45667e-07
1.45786e-07
1.45877e-07
1.4594e-07
1.45988e-07
1.46041e-07
1.46124e-07
1.46254e-07
1.46437e-07
1.46664e-07
1.46914e-07
1.47155e-07
1.47356e-07
1.47484e-07
1.47524e-07
1.47467e-07
1.47329e-07
1.47139e-07
1.46926e-07
1.4672e-07
1.4654e-07
1.46395e-07
1.46286e-07
1.46205e-07
1.46151e-07
1.46118e-07
1.46097e-07
1.4608e-07
1.46058e-07
1.46026e-07
1.45982e-07
1.45924e-07
1.45852e-07
1.45771e-07
1.45685e-07
1.45606e-07
1.4554e-07
1.45492e-07
1.45469e-07
1.45481e-07
1.45528e-07
1.45599e-07
1.45683e-07
1.45765e-07
1.45832e-07
1.45873e-07
1.45877e-07
1.45833e-07
1.45741e-07
1.45609e-07
1.45449e-07
1.45279e-07
1.45121e-07
1.44993e-07
1.44913e-07
1.44895e-07
1.44937e-07
1.45036e-07
1.45179e-07
1.45349e-07
1.45531e-07
1.45709e-07
1.45876e-07
1.46028e-07
1.46153e-07
1.46241e-07
1.46291e-07
1.46302e-07
1.4627e-07
1.46207e-07
1.46121e-07
1.46012e-07
1.45899e-07
1.45792e-07
1.4569e-07
1.45595e-07
1.45502e-07
1.45423e-07
1.45373e-07
1.45362e-07
1.45388e-07
1.45449e-07
1.45541e-07
1.45653e-07
1.45769e-07
1.45868e-07
1.45941e-07
1.4598e-07
1.45973e-07
1.45925e-07
1.45836e-07
1.45736e-07
1.4562e-07
1.45528e-07
1.45484e-07
1.45488e-07
1.45562e-07
1.45742e-07
1.45995e-07
1.46286e-07
1.46577e-07
1.4684e-07
1.47051e-07
1.47196e-07
1.47265e-07
1.47274e-07
1.47226e-07
1.47143e-07
1.47068e-07
1.46991e-07
1.469e-07
1.46783e-07
1.46741e-07
1.46646e-07
7.02783e-08
8.5541e-08
1.15313e-07
1.3538e-07
1.429e-07
1.4503e-07
1.45436e-07
1.45494e-07
1.4559e-07
1.4572e-07
1.45905e-07
1.46123e-07
1.46393e-07
1.46664e-07
1.4691e-07
1.47119e-07
1.4729e-07
1.47413e-07
1.4748e-07
1.47482e-07
1.47411e-07
1.47268e-07
1.4709e-07
1.46903e-07
1.46721e-07
1.46558e-07
1.46426e-07
1.46338e-07
1.46308e-07
1.46346e-07
1.46454e-07
1.46629e-07
1.46863e-07
1.47141e-07
1.47441e-07
1.47732e-07
1.47977e-07
1.48136e-07
1.48173e-07
1.48057e-07
1.47763e-07
1.47325e-07
1.46796e-07
1.46259e-07
1.458e-07
1.45467e-07
1.45287e-07
1.4526e-07
1.45349e-07
1.45495e-07
1.45658e-07
1.458e-07
1.45901e-07
1.45962e-07
1.46e-07
1.46041e-07
1.46114e-07
1.46242e-07
1.46437e-07
1.46693e-07
1.46988e-07
1.47284e-07
1.47545e-07
1.47723e-07
1.47798e-07
1.47755e-07
1.47609e-07
1.47392e-07
1.47151e-07
1.46906e-07
1.46685e-07
1.4651e-07
1.46377e-07
1.46278e-07
1.46212e-07
1.46172e-07
1.46147e-07
1.46131e-07
1.46108e-07
1.46072e-07
1.46018e-07
1.45946e-07
1.45857e-07
1.45752e-07
1.45645e-07
1.45545e-07
1.45464e-07
1.45405e-07
1.45381e-07
1.45396e-07
1.45453e-07
1.4554e-07
1.45642e-07
1.4574e-07
1.45818e-07
1.45864e-07
1.45867e-07
1.45818e-07
1.45711e-07
1.45563e-07
1.45379e-07
1.45184e-07
1.45004e-07
1.44856e-07
1.44762e-07
1.44735e-07
1.44776e-07
1.44881e-07
1.45036e-07
1.45224e-07
1.45424e-07
1.45627e-07
1.45826e-07
1.46012e-07
1.4617e-07
1.46291e-07
1.46369e-07
1.46405e-07
1.46397e-07
1.46353e-07
1.46272e-07
1.46154e-07
1.4602e-07
1.45886e-07
1.45767e-07
1.45654e-07
1.45535e-07
1.4544e-07
1.45382e-07
1.45371e-07
1.45408e-07
1.45496e-07
1.45623e-07
1.45776e-07
1.45935e-07
1.46074e-07
1.46175e-07
1.46229e-07
1.46226e-07
1.46168e-07
1.46049e-07
1.45915e-07
1.45763e-07
1.45642e-07
1.45576e-07
1.45584e-07
1.45702e-07
1.45954e-07
1.46289e-07
1.46679e-07
1.47082e-07
1.47456e-07
1.47759e-07
1.47962e-07
1.48039e-07
1.48005e-07
1.47893e-07
1.47748e-07
1.47616e-07
1.47473e-07
1.47332e-07
1.47141e-07
1.47073e-07
1.46937e-07
6.96261e-08
8.41094e-08
1.13586e-07
1.34578e-07
1.42607e-07
1.44897e-07
1.45321e-07
1.45399e-07
1.45485e-07
1.45614e-07
1.45801e-07
1.46022e-07
1.46292e-07
1.46568e-07
1.4682e-07
1.47047e-07
1.47257e-07
1.47436e-07
1.47567e-07
1.4763e-07
1.47609e-07
1.4751e-07
1.47346e-07
1.47143e-07
1.46934e-07
1.4674e-07
1.46579e-07
1.46474e-07
1.46443e-07
1.46496e-07
1.46638e-07
1.46855e-07
1.47128e-07
1.47445e-07
1.47782e-07
1.48106e-07
1.48368e-07
1.48524e-07
1.48538e-07
1.48374e-07
1.48013e-07
1.47502e-07
1.46899e-07
1.46297e-07
1.45776e-07
1.45399e-07
1.45203e-07
1.45186e-07
1.45308e-07
1.45498e-07
1.45699e-07
1.4587e-07
1.4598e-07
1.4603e-07
1.46043e-07
1.46053e-07
1.46101e-07
1.46219e-07
1.46428e-07
1.46724e-07
1.47077e-07
1.47443e-07
1.47776e-07
1.4803e-07
1.48168e-07
1.48165e-07
1.4802e-07
1.47764e-07
1.47455e-07
1.47146e-07
1.46879e-07
1.46663e-07
1.46494e-07
1.46372e-07
1.46292e-07
1.46244e-07
1.46216e-07
1.46199e-07
1.46178e-07
1.46141e-07
1.46078e-07
1.45987e-07
1.45873e-07
1.45745e-07
1.45614e-07
1.45487e-07
1.45379e-07
1.45308e-07
1.45287e-07
1.45312e-07
1.45386e-07
1.45495e-07
1.45622e-07
1.45746e-07
1.45844e-07
1.459e-07
1.45901e-07
1.45841e-07
1.45709e-07
1.45528e-07
1.4531e-07
1.4508e-07
1.44869e-07
1.44697e-07
1.44587e-07
1.44551e-07
1.44595e-07
1.44708e-07
1.44876e-07
1.45079e-07
1.45294e-07
1.45517e-07
1.45739e-07
1.45951e-07
1.46134e-07
1.46278e-07
1.46379e-07
1.46438e-07
1.4646e-07
1.46451e-07
1.46403e-07
1.46312e-07
1.46182e-07
1.46028e-07
1.45867e-07
1.45723e-07
1.4558e-07
1.45462e-07
1.4539e-07
1.45378e-07
1.45429e-07
1.45544e-07
1.45708e-07
1.45908e-07
1.46111e-07
1.46274e-07
1.46381e-07
1.46437e-07
1.46427e-07
1.46338e-07
1.46169e-07
1.45979e-07
1.45776e-07
1.45598e-07
1.4549e-07
1.4549e-07
1.45633e-07
1.45927e-07
1.46343e-07
1.46836e-07
1.47357e-07
1.47862e-07
1.48315e-07
1.48674e-07
1.48881e-07
1.48912e-07
1.48767e-07
1.48516e-07
1.48278e-07
1.48035e-07
1.47833e-07
1.47612e-07
1.47527e-07
1.47359e-07
6.88867e-08
8.25352e-08
1.11594e-07
1.33601e-07
1.42198e-07
1.44674e-07
1.45125e-07
1.45179e-07
1.45219e-07
1.45314e-07
1.45471e-07
1.45654e-07
1.45865e-07
1.46076e-07
1.46261e-07
1.46439e-07
1.46702e-07
1.4701e-07
1.47304e-07
1.47511e-07
1.47599e-07
1.47561e-07
1.47436e-07
1.47249e-07
1.47037e-07
1.46829e-07
1.46653e-07
1.46536e-07
1.46501e-07
1.46566e-07
1.46748e-07
1.47043e-07
1.47419e-07
1.47842e-07
1.4827e-07
1.48647e-07
1.4893e-07
1.49079e-07
1.49058e-07
1.48825e-07
1.48372e-07
1.47758e-07
1.47048e-07
1.46338e-07
1.45727e-07
1.45292e-07
1.45069e-07
1.45055e-07
1.45202e-07
1.45432e-07
1.45674e-07
1.45868e-07
1.45977e-07
1.46007e-07
1.45977e-07
1.45936e-07
1.45934e-07
1.46026e-07
1.46234e-07
1.46554e-07
1.46953e-07
1.47381e-07
1.47782e-07
1.48117e-07
1.48339e-07
1.48421e-07
1.48343e-07
1.48124e-07
1.47802e-07
1.47446e-07
1.47116e-07
1.46845e-07
1.46633e-07
1.46485e-07
1.46394e-07
1.46343e-07
1.46319e-07
1.46309e-07
1.46294e-07
1.46253e-07
1.46179e-07
1.46066e-07
1.45922e-07
1.45764e-07
1.456e-07
1.45443e-07
1.45308e-07
1.45225e-07
1.45205e-07
1.45246e-07
1.45344e-07
1.45481e-07
1.45639e-07
1.45788e-07
1.45902e-07
1.45959e-07
1.4595e-07
1.45868e-07
1.45706e-07
1.45485e-07
1.45228e-07
1.44958e-07
1.44711e-07
1.44509e-07
1.44372e-07
1.4432e-07
1.44345e-07
1.44438e-07
1.44583e-07
1.44756e-07
1.4494e-07
1.45137e-07
1.45341e-07
1.45549e-07
1.45739e-07
1.45907e-07
1.46053e-07
1.46175e-07
1.46281e-07
1.46357e-07
1.46379e-07
1.46336e-07
1.46234e-07
1.46092e-07
1.45907e-07
1.45693e-07
1.45479e-07
1.4532e-07
1.45234e-07
1.45229e-07
1.45299e-07
1.4544e-07
1.45633e-07
1.45866e-07
1.46105e-07
1.46302e-07
1.46437e-07
1.46506e-07
1.46488e-07
1.46374e-07
1.46163e-07
1.45904e-07
1.45633e-07
1.45365e-07
1.45184e-07
1.45145e-07
1.45264e-07
1.45534e-07
1.4595e-07
1.46495e-07
1.47117e-07
1.47758e-07
1.4836e-07
1.48875e-07
1.49258e-07
1.49492e-07
1.49534e-07
1.49398e-07
1.49147e-07
1.4884e-07
1.48498e-07
1.48107e-07
1.47871e-07
1.47604e-07
6.80455e-08
8.08049e-08
1.09288e-07
1.32366e-07
1.41568e-07
1.44225e-07
1.44658e-07
1.44567e-07
1.44405e-07
1.44269e-07
1.44164e-07
1.44052e-07
1.43931e-07
1.43742e-07
1.43567e-07
1.43477e-07
1.43815e-07
1.44546e-07
1.45435e-07
1.4623e-07
1.46799e-07
1.47111e-07
1.47207e-07
1.47145e-07
1.46993e-07
1.46811e-07
1.46645e-07
1.46519e-07
1.46473e-07
1.4654e-07
1.46743e-07
1.47096e-07
1.47595e-07
1.48166e-07
1.48744e-07
1.49256e-07
1.49633e-07
1.49813e-07
1.49758e-07
1.49431e-07
1.48848e-07
1.48084e-07
1.47214e-07
1.46349e-07
1.45618e-07
1.45095e-07
1.44817e-07
1.44774e-07
1.44912e-07
1.45146e-07
1.45382e-07
1.45539e-07
1.45581e-07
1.45509e-07
1.45358e-07
1.45184e-07
1.45057e-07
1.45047e-07
1.45202e-07
1.45493e-07
1.45878e-07
1.46302e-07
1.46719e-07
1.47187e-07
1.4767e-07
1.48063e-07
1.48262e-07
1.4821e-07
1.47966e-07
1.47626e-07
1.47271e-07
1.46961e-07
1.46716e-07
1.46546e-07
1.46444e-07
1.46393e-07
1.46381e-07
1.46388e-07
1.46391e-07
1.46368e-07
1.46299e-07
1.46179e-07
1.46014e-07
1.45817e-07
1.45609e-07
1.45408e-07
1.45235e-07
1.45128e-07
1.45103e-07
1.45154e-07
1.45273e-07
1.45441e-07
1.45633e-07
1.45809e-07
1.45937e-07
1.45997e-07
1.45976e-07
1.45866e-07
1.45668e-07
1.45395e-07
1.45086e-07
1.4476e-07
1.44452e-07
1.44182e-07
1.43974e-07
1.43778e-07
1.43648e-07
1.43555e-07
1.43464e-07
1.43367e-07
1.43256e-07
1.43155e-07
1.43091e-07
1.4311e-07
1.43233e-07
1.43495e-07
1.43879e-07
1.44318e-07
1.44804e-07
1.4527e-07
1.45627e-07
1.45819e-07
1.45838e-07
1.45715e-07
1.45493e-07
1.45224e-07
1.44963e-07
1.44772e-07
1.44683e-07
1.44695e-07
1.44792e-07
1.44962e-07
1.45192e-07
1.45463e-07
1.45742e-07
1.45979e-07
1.46147e-07
1.46232e-07
1.46215e-07
1.46083e-07
1.45807e-07
1.45425e-07
1.45013e-07
1.4457e-07
1.4421e-07
1.44008e-07
1.43947e-07
1.44023e-07
1.44293e-07
1.44805e-07
1.45557e-07
1.4648e-07
1.47449e-07
1.48325e-07
1.49022e-07
1.4948e-07
1.49673e-07
1.49645e-07
1.49444e-07
1.49124e-07
1.48708e-07
1.48222e-07
1.47879e-07
1.47519e-07
6.70927e-08
7.8935e-08
1.06677e-07
1.30796e-07
1.40509e-07
1.43193e-07
1.4329e-07
1.4258e-07
1.41561e-07
1.40379e-07
1.39078e-07
1.37649e-07
1.36061e-07
1.34317e-07
1.32706e-07
1.31679e-07
1.32107e-07
1.34078e-07
1.36958e-07
1.39866e-07
1.42323e-07
1.44119e-07
1.45266e-07
1.4591e-07
1.46179e-07
1.4624e-07
1.46211e-07
1.46182e-07
1.46206e-07
1.4633e-07
1.46605e-07
1.47054e-07
1.47672e-07
1.48424e-07
1.4918e-07
1.49821e-07
1.50304e-07
1.50558e-07
1.50524e-07
1.50139e-07
1.49411e-07
1.48447e-07
1.47362e-07
1.46292e-07
1.45351e-07
1.44604e-07
1.44078e-07
1.43762e-07
1.43609e-07
1.43569e-07
1.43454e-07
1.4325e-07
1.42864e-07
1.42454e-07
1.4196e-07
1.41378e-07
1.40825e-07
1.40407e-07
1.40134e-07
1.39957e-07
1.39801e-07
1.39689e-07
1.39679e-07
1.40329e-07
1.41863e-07
1.43864e-07
1.45714e-07
1.46937e-07
1.4745e-07
1.4746e-07
1.47226e-07
1.46928e-07
1.46645e-07
1.46439e-07
1.46316e-07
1.46267e-07
1.46274e-07
1.4631e-07
1.46347e-07
1.46357e-07
1.46318e-07
1.46214e-07
1.4604e-07
1.45809e-07
1.45546e-07
1.45275e-07
1.45035e-07
1.44875e-07
1.44824e-07
1.44881e-07
1.45034e-07
1.45248e-07
1.45486e-07
1.45694e-07
1.45836e-07
1.45894e-07
1.45854e-07
1.45701e-07
1.45444e-07
1.4509e-07
1.4469e-07
1.44257e-07
1.43786e-07
1.43252e-07
1.42632e-07
1.4176e-07
1.40804e-07
1.39732e-07
1.38492e-07
1.37033e-07
1.3536e-07
1.33646e-07
1.32145e-07
1.31178e-07
1.30971e-07
1.31828e-07
1.33479e-07
1.35514e-07
1.37756e-07
1.39993e-07
1.41921e-07
1.43298e-07
1.44072e-07
1.44341e-07
1.44249e-07
1.43947e-07
1.43609e-07
1.43377e-07
1.43307e-07
1.43372e-07
1.43522e-07
1.43722e-07
1.43979e-07
1.44273e-07
1.44577e-07
1.4485e-07
1.45049e-07
1.45152e-07
1.45145e-07
1.44988e-07
1.4463e-07
1.44068e-07
1.43392e-07
1.42605e-07
1.41842e-07
1.41186e-07
1.40579e-07
1.3999e-07
1.39613e-07
1.39724e-07
1.40515e-07
1.41916e-07
1.43663e-07
1.45442e-07
1.47018e-07
1.48195e-07
1.48882e-07
1.49144e-07
1.49087e-07
1.48797e-07
1.48334e-07
1.47764e-07
1.47245e-07
1.46701e-07
6.64207e-08
7.76309e-08
1.04794e-07
1.29586e-07
1.39589e-07
1.42191e-07
1.41909e-07
1.40513e-07
1.38535e-07
1.36063e-07
1.32985e-07
1.29032e-07
1.23833e-07
1.17315e-07
1.10524e-07
1.05439e-07
1.04665e-07
1.08602e-07
1.15364e-07
1.22904e-07
1.29778e-07
1.35271e-07
1.39234e-07
1.41985e-07
1.43633e-07
1.4453e-07
1.45004e-07
1.45289e-07
1.45528e-07
1.45809e-07
1.46213e-07
1.46811e-07
1.47605e-07
1.48531e-07
1.49518e-07
1.50377e-07
1.50925e-07
1.51175e-07
1.51118e-07
1.5067e-07
1.49828e-07
1.48705e-07
1.47448e-07
1.46209e-07
1.45076e-07
1.44102e-07
1.43289e-07
1.4259e-07
1.41918e-07
1.41215e-07
1.40278e-07
1.392e-07
1.38011e-07
1.37151e-07
1.3633e-07
1.35178e-07
1.33748e-07
1.32098e-07
1.3002e-07
1.27178e-07
1.23551e-07
1.20019e-07
1.18002e-07
1.18709e-07
1.22694e-07
1.2899e-07
1.3564e-07
1.40969e-07
1.44251e-07
1.45804e-07
1.46283e-07
1.46293e-07
1.46157e-07
1.46021e-07
1.45946e-07
1.45947e-07
1.46014e-07
1.4611e-07
1.46203e-07
1.46266e-07
1.46269e-07
1.46187e-07
1.46009e-07
1.45755e-07
1.45453e-07
1.45129e-07
1.44841e-07
1.44647e-07
1.44589e-07
1.44669e-07
1.44868e-07
1.45131e-07
1.45407e-07
1.45634e-07
1.4577e-07
1.45805e-07
1.4573e-07
1.45526e-07
1.45207e-07
1.44777e-07
1.44286e-07
1.43749e-07
1.43112e-07
1.42287e-07
1.41181e-07
1.39514e-07
1.37464e-07
1.34902e-07
1.31545e-07
1.26926e-07
1.20665e-07
1.13002e-07
1.0526e-07
9.94779e-08
9.75423e-08
1.00259e-07
1.05415e-07
1.11601e-07
1.18139e-07
1.24846e-07
1.30956e-07
1.35758e-07
1.38988e-07
1.40829e-07
1.41641e-07
1.4179e-07
1.41645e-07
1.41517e-07
1.41532e-07
1.41656e-07
1.41832e-07
1.42024e-07
1.42272e-07
1.42594e-07
1.42985e-07
1.43394e-07
1.43733e-07
1.43951e-07
1.44007e-07
1.4386e-07
1.43454e-07
1.42742e-07
1.41816e-07
1.40686e-07
1.39468e-07
1.38194e-07
1.36655e-07
1.34612e-07
1.3234e-07
1.30673e-07
1.30759e-07
1.32902e-07
1.36168e-07
1.39781e-07
1.43145e-07