/*--------------------------------*- C++ -*----------------------------------*\
| =========                 |                                                 |
| \\      /  F ield         | OpenFOAM: The Open Source CFD Toolbox           |
|  \\    /   O peration     | Version:  v1912                                 |
|   \\  /    A nd           | Website:  www.openfoam.com                      |
|    \\/     M anipulation  |                                                 |
\*---------------------------------------------------------------------------*/
FoamFile
{
    version     2.0;
    format      ascii;
    class       volScalarField;
    location    "100";
    object      k;
}
// * * * * * * * * * * * * * * * * * * * * * * * * * * * * * * * * * * * * * //

dimensions      [0 2 -2 0 0 0 0];


internalField   nonuniform List<scalar> 
14268
(
6.93465e-07
8.75086e-08
1.074e-08
1.28072e-09
1.47486e-10
1.63512e-11
1.78888e-12
2.54529e-13
1.14012e-13
1.14371e-13
1.33858e-13
1.60767e-13
1.88412e-13
2.16762e-13
2.46785e-13
2.78574e-13
3.11887e-13
3.46529e-13
3.82442e-13
4.1968e-13
4.58242e-13
4.98009e-13
5.38828e-13
5.80557e-13
6.23059e-13
6.66196e-13
7.09836e-13
7.53836e-13
7.98044e-13
8.42295e-13
8.86436e-13
9.30354e-13
9.73941e-13
1.01709e-12
1.05971e-12
1.1017e-12
1.14297e-12
1.18345e-12
1.22306e-12
1.26175e-12
1.29946e-12
1.33614e-12
1.37177e-12
1.40631e-12
1.43977e-12
1.4721e-12
1.50331e-12
1.53339e-12
1.56232e-12
1.59013e-12
1.61681e-12
1.64238e-12
1.66685e-12
1.69024e-12
1.71257e-12
1.73388e-12
1.75417e-12
1.77348e-12
1.79185e-12
1.80929e-12
1.82584e-12
1.84154e-12
1.85641e-12
1.87048e-12
1.88379e-12
1.89637e-12
1.90825e-12
1.91946e-12
1.93003e-12
1.93999e-12
1.94936e-12
1.95819e-12
1.96649e-12
1.97428e-12
1.98161e-12
1.98849e-12
1.99493e-12
2.00098e-12
2.00665e-12
2.01195e-12
2.01692e-12
2.02157e-12
2.02591e-12
2.02997e-12
2.03376e-12
2.03729e-12
2.0406e-12
2.04367e-12
2.04654e-12
2.04921e-12
2.0517e-12
2.05402e-12
2.05617e-12
2.05817e-12
2.06003e-12
2.06176e-12
2.06336e-12
2.06484e-12
2.06622e-12
2.0675e-12
2.06868e-12
2.06978e-12
2.07079e-12
2.07173e-12
2.0726e-12
2.0734e-12
2.07413e-12
2.07482e-12
2.07544e-12
2.07602e-12
2.07656e-12
2.07705e-12
2.0775e-12
2.07791e-12
2.07829e-12
2.07864e-12
2.07896e-12
2.07925e-12
2.07952e-12
2.07977e-12
2.07999e-12
2.08019e-12
2.08038e-12
2.08055e-12
2.08069e-12
2.08084e-12
2.08095e-12
2.08107e-12
2.08116e-12
2.08126e-12
2.08132e-12
2.08142e-12
2.08145e-12
2.08154e-12
2.08155e-12
2.08166e-12
2.08165e-12
2.08178e-12
2.08176e-12
2.08193e-12
2.08191e-12
2.08208e-12
2.08207e-12
2.08222e-12
2.08222e-12
2.08234e-12
2.08233e-12
2.0824e-12
2.08239e-12
2.08243e-12
2.08241e-12
2.08243e-12
2.08241e-12
2.08243e-12
2.0824e-12
2.08241e-12
2.0824e-12
2.08241e-12
2.0824e-12
2.0824e-12
2.08245e-12
2.08246e-12
2.08421e-12
2.11415e-12
1.39178e-05
1.9241e-06
2.51336e-07
3.1237e-08
3.6989e-09
4.18312e-10
4.66074e-11
6.89009e-12
3.25016e-12
3.29557e-12
3.87207e-12
4.6541e-12
5.45759e-12
6.28376e-12
7.16002e-12
8.08869e-12
9.06271e-12
1.00761e-11
1.11272e-11
1.22181e-11
1.33492e-11
1.45168e-11
1.57163e-11
1.69435e-11
1.81945e-11
1.94652e-11
2.07518e-11
2.20501e-11
2.33555e-11
2.46631e-11
2.59685e-11
2.72681e-11
2.85589e-11
2.98376e-11
3.11013e-11
3.23472e-11
3.35726e-11
3.47751e-11
3.59525e-11
3.7103e-11
3.82249e-11
3.93169e-11
4.0378e-11
4.14075e-11
4.24046e-11
4.33689e-11
4.43e-11
4.51976e-11
4.60617e-11
4.68922e-11
4.76894e-11
4.84536e-11
4.91852e-11
4.98847e-11
5.05528e-11
5.11902e-11
5.17976e-11
5.23758e-11
5.29257e-11
5.34481e-11
5.3944e-11
5.44142e-11
5.48598e-11
5.52816e-11
5.56806e-11
5.60577e-11
5.64139e-11
5.675e-11
5.7067e-11
5.73657e-11
5.7647e-11
5.79118e-11
5.81607e-11
5.83948e-11
5.86146e-11
5.88209e-11
5.90145e-11
5.9196e-11
5.93661e-11
5.95254e-11
5.96745e-11
5.98139e-11
5.99443e-11
6.00662e-11
6.018e-11
6.02862e-11
6.03854e-11
6.04778e-11
6.05639e-11
6.06442e-11
6.07189e-11
6.07884e-11
6.0853e-11
6.09131e-11
6.0969e-11
6.10209e-11
6.1069e-11
6.11136e-11
6.1155e-11
6.11934e-11
6.1229e-11
6.12619e-11
6.12923e-11
6.13205e-11
6.13465e-11
6.13705e-11
6.13927e-11
6.14132e-11
6.1432e-11
6.14494e-11
6.14654e-11
6.14802e-11
6.14937e-11
6.15062e-11
6.15176e-11
6.15281e-11
6.15377e-11
6.15465e-11
6.15546e-11
6.15619e-11
6.15686e-11
6.15748e-11
6.15802e-11
6.15854e-11
6.15898e-11
6.15941e-11
6.15975e-11
6.16012e-11
6.16037e-11
6.16069e-11
6.16087e-11
6.16115e-11
6.16125e-11
6.16153e-11
6.16157e-11
6.16188e-11
6.16186e-11
6.16225e-11
6.16219e-11
6.16268e-11
6.16262e-11
6.16313e-11
6.16311e-11
6.16357e-11
6.16357e-11
6.16392e-11
6.1639e-11
6.1641e-11
6.16406e-11
6.16418e-11
6.16412e-11
6.16419e-11
6.16413e-11
6.16417e-11
6.16411e-11
6.16414e-11
6.16408e-11
6.16411e-11
6.16409e-11
6.16411e-11
6.16424e-11
6.16427e-11
6.16945e-11
6.25153e-11
4.13651e-05
6.3799e-06
9.15123e-07
1.2338e-07
1.56851e-08
1.88909e-09
2.25734e-10
3.91462e-11
2.213e-11
2.31452e-11
2.74263e-11
3.29142e-11
3.8525e-11
4.43139e-11
5.04543e-11
5.69507e-11
6.37545e-11
7.08256e-11
7.81506e-11
8.57428e-11
9.36044e-11
1.0171e-10
1.10027e-10
1.18525e-10
1.27177e-10
1.35956e-10
1.44834e-10
1.53782e-10
1.62769e-10
1.71761e-10
1.80728e-10
1.89647e-10
1.98496e-10
2.07253e-10
2.159e-10
2.24417e-10
2.32786e-10
2.40992e-10
2.4902e-10
2.56858e-10
2.64496e-10
2.71924e-10
2.79138e-10
2.86131e-10
2.929e-10
2.99443e-10
3.05756e-10
3.11838e-10
3.1769e-10
3.23312e-10
3.28706e-10
3.33874e-10
3.38819e-10
3.43545e-10
3.48058e-10
3.52361e-10
3.5646e-10
3.6036e-10
3.64069e-10
3.67591e-10
3.70933e-10
3.74102e-10
3.77103e-10
3.79944e-10
3.82631e-10
3.85169e-10
3.87566e-10
3.89828e-10
3.91961e-10
3.9397e-10
3.95862e-10
3.97642e-10
3.99316e-10
4.0089e-10
4.02367e-10
4.03754e-10
4.05055e-10
4.06274e-10
4.07417e-10
4.08487e-10
4.09489e-10
4.10426e-10
4.11301e-10
4.1212e-10
4.12884e-10
4.13598e-10
4.14263e-10
4.14884e-10
4.15462e-10
4.16001e-10
4.16502e-10
4.16969e-10
4.17403e-10
4.17807e-10
4.18181e-10
4.1853e-10
4.18853e-10
4.19152e-10
4.1943e-10
4.19688e-10
4.19926e-10
4.20147e-10
4.20351e-10
4.2054e-10
4.20715e-10
4.20876e-10
4.21025e-10
4.21163e-10
4.21289e-10
4.21406e-10
4.21513e-10
4.21612e-10
4.21703e-10
4.21787e-10
4.21863e-10
4.21934e-10
4.21998e-10
4.22057e-10
4.22111e-10
4.22161e-10
4.22206e-10
4.22247e-10
4.22284e-10
4.22318e-10
4.22348e-10
4.22377e-10
4.224e-10
4.22424e-10
4.22441e-10
4.22462e-10
4.22474e-10
4.22493e-10
4.225e-10
4.22519e-10
4.22521e-10
4.22543e-10
4.22541e-10
4.22567e-10
4.22563e-10
4.22596e-10
4.22592e-10
4.22627e-10
4.22625e-10
4.22656e-10
4.22656e-10
4.22679e-10
4.22678e-10
4.22692e-10
4.22689e-10
4.22697e-10
4.22693e-10
4.22698e-10
4.22693e-10
4.22696e-10
4.22692e-10
4.22694e-10
4.2269e-10
4.22692e-10
4.2269e-10
4.22692e-10
4.22701e-10
4.22703e-10
4.23051e-10
4.2808e-10
6.93475e-05
1.13324e-05
1.72452e-06
2.45432e-07
3.27502e-08
4.13039e-09
5.2934e-10
1.13236e-10
7.75342e-11
8.36165e-11
9.9858e-11
1.19465e-10
1.39391e-10
1.60024e-10
1.81884e-10
2.04934e-10
2.29005e-10
2.53957e-10
2.79735e-10
3.06381e-10
3.33904e-10
3.62211e-10
3.91179e-10
4.20704e-10
4.5069e-10
4.8104e-10
5.11662e-10
5.42456e-10
5.73314e-10
6.04115e-10
6.34772e-10
6.65203e-10
6.95333e-10
7.25097e-10
7.54429e-10
7.83269e-10
8.11562e-10
8.39256e-10
8.6631e-10
8.92682e-10
9.18341e-10
9.43263e-10
9.67431e-10
9.90831e-10
1.01346e-09
1.03529e-09
1.05634e-09
1.07661e-09
1.09608e-09
1.11477e-09
1.13268e-09
1.14983e-09
1.16623e-09
1.18189e-09
1.19683e-09
1.21106e-09
1.22461e-09
1.2375e-09
1.24975e-09
1.26137e-09
1.2724e-09
1.28284e-09
1.29274e-09
1.30209e-09
1.31094e-09
1.31929e-09
1.32718e-09
1.33462e-09
1.34163e-09
1.34824e-09
1.35445e-09
1.3603e-09
1.3658e-09
1.37097e-09
1.37582e-09
1.38037e-09
1.38464e-09
1.38864e-09
1.39239e-09
1.3959e-09
1.39918e-09
1.40225e-09
1.40512e-09
1.40781e-09
1.41031e-09
1.41265e-09
1.41483e-09
1.41686e-09
1.41876e-09
1.42052e-09
1.42217e-09
1.4237e-09
1.42512e-09
1.42644e-09
1.42767e-09
1.42881e-09
1.42986e-09
1.43085e-09
1.43176e-09
1.4326e-09
1.43338e-09
1.4341e-09
1.43477e-09
1.43539e-09
1.43596e-09
1.43649e-09
1.43698e-09
1.43743e-09
1.43784e-09
1.43822e-09
1.43858e-09
1.4389e-09
1.4392e-09
1.43947e-09
1.43972e-09
1.43995e-09
1.44016e-09
1.44036e-09
1.44053e-09
1.44069e-09
1.44084e-09
1.44098e-09
1.4411e-09
1.44121e-09
1.44131e-09
1.4414e-09
1.44148e-09
1.44156e-09
1.44161e-09
1.44168e-09
1.44172e-09
1.44178e-09
1.4418e-09
1.44187e-09
1.44187e-09
1.44194e-09
1.44194e-09
1.44202e-09
1.44201e-09
1.44212e-09
1.44211e-09
1.44222e-09
1.44221e-09
1.44232e-09
1.44231e-09
1.44239e-09
1.44239e-09
1.44243e-09
1.44242e-09
1.44245e-09
1.44244e-09
1.44245e-09
1.44244e-09
1.44245e-09
1.44243e-09
1.44244e-09
1.44243e-09
1.44243e-09
1.44243e-09
1.44243e-09
1.44246e-09
1.44247e-09
1.44361e-09
1.45865e-09
8.63887e-05
1.55233e-05
2.52049e-06
3.75132e-07
5.17531e-08
6.73405e-09
9.24644e-10
2.47086e-10
1.96174e-10
2.16523e-10
2.59701e-10
3.09287e-10
3.59424e-10
4.11446e-10
4.66394e-10
5.2405e-10
5.83991e-10
6.45868e-10
7.09527e-10
7.75059e-10
8.42476e-10
9.11536e-10
9.81929e-10
1.05339e-09
1.12568e-09
1.19858e-09
1.27186e-09
1.34528e-09
1.41858e-09
1.4915e-09
1.56384e-09
1.63542e-09
1.70607e-09
1.77565e-09
1.84402e-09
1.91105e-09
1.97663e-09
2.04066e-09
2.10305e-09
2.16371e-09
2.22261e-09
2.27968e-09
2.3349e-09
2.38826e-09
2.43975e-09
2.48936e-09
2.5371e-09
2.58296e-09
2.62697e-09
2.66914e-09
2.70951e-09
2.74809e-09
2.78494e-09
2.82008e-09
2.85357e-09
2.88544e-09
2.91576e-09
2.94455e-09
2.97189e-09
2.99782e-09
3.02238e-09
3.04564e-09
3.06765e-09
3.08846e-09
3.10811e-09
3.12666e-09
3.14416e-09
3.16066e-09
3.1762e-09
3.19083e-09
3.2046e-09
3.21755e-09
3.22971e-09
3.24114e-09
3.25186e-09
3.26192e-09
3.27135e-09
3.28019e-09
3.28847e-09
3.29622e-09
3.30346e-09
3.31024e-09
3.31658e-09
3.32249e-09
3.32802e-09
3.33317e-09
3.33798e-09
3.34246e-09
3.34664e-09
3.35053e-09
3.35415e-09
3.35752e-09
3.36065e-09
3.36356e-09
3.36627e-09
3.36878e-09
3.37111e-09
3.37327e-09
3.37527e-09
3.37713e-09
3.37885e-09
3.38044e-09
3.38191e-09
3.38327e-09
3.38453e-09
3.38569e-09
3.38676e-09
3.38775e-09
3.38867e-09
3.38951e-09
3.39028e-09
3.39099e-09
3.39165e-09
3.39225e-09
3.3928e-09
3.39331e-09
3.39377e-09
3.3942e-09
3.39459e-09
3.39495e-09
3.39527e-09
3.39557e-09
3.39583e-09
3.39608e-09
3.39629e-09
3.3965e-09
3.39666e-09
3.39684e-09
3.39696e-09
3.39712e-09
3.3972e-09
3.39734e-09
3.39738e-09
3.39752e-09
3.39754e-09
3.39769e-09
3.39768e-09
3.39787e-09
3.39784e-09
3.39808e-09
3.39805e-09
3.3983e-09
3.39829e-09
3.39851e-09
3.39851e-09
3.39868e-09
3.39867e-09
3.39877e-09
3.39875e-09
3.39881e-09
3.39878e-09
3.39882e-09
3.39878e-09
3.3988e-09
3.39877e-09
3.39879e-09
3.39876e-09
3.39877e-09
3.39876e-09
3.39877e-09
3.39883e-09
3.39886e-09
3.40137e-09
3.43192e-09
0.0001106
2.08609e-05
3.46105e-06
5.21345e-07
7.25475e-08
9.5707e-09
1.40678e-09
4.65436e-10
4.09719e-10
4.60051e-10
5.52364e-10
6.54145e-10
7.56642e-10
8.62989e-10
9.74767e-10
1.09132e-09
1.21179e-09
1.33546e-09
1.46198e-09
1.59152e-09
1.72407e-09
1.85914e-09
1.9961e-09
2.1344e-09
2.2736e-09
2.41326e-09
2.55296e-09
2.69224e-09
2.83065e-09
2.96775e-09
3.10317e-09
3.23658e-09
3.36773e-09
3.49637e-09
3.6223e-09
3.7453e-09
3.86521e-09
3.98188e-09
4.09518e-09
4.20501e-09
4.31129e-09
4.41399e-09
4.51308e-09
4.60858e-09
4.70048e-09
4.78882e-09
4.87361e-09
4.95489e-09
5.03273e-09
5.10716e-09
5.17826e-09
5.24611e-09
5.31078e-09
5.37237e-09
5.43096e-09
5.48664e-09
5.53952e-09
5.5897e-09
5.63726e-09
5.68232e-09
5.72497e-09
5.7653e-09
5.80343e-09
5.83944e-09
5.87342e-09
5.90548e-09
5.93569e-09
5.96415e-09
5.99095e-09
6.01615e-09
6.03986e-09
6.06213e-09
6.08305e-09
6.10269e-09
6.12112e-09
6.13839e-09
6.15458e-09
6.16975e-09
6.18395e-09
6.19724e-09
6.20966e-09
6.22128e-09
6.23213e-09
6.24226e-09
6.25172e-09
6.26055e-09
6.26878e-09
6.27645e-09
6.28359e-09
6.29025e-09
6.29644e-09
6.3022e-09
6.30755e-09
6.31253e-09
6.31715e-09
6.32144e-09
6.32543e-09
6.32912e-09
6.33254e-09
6.33572e-09
6.33865e-09
6.34137e-09
6.34389e-09
6.34621e-09
6.34836e-09
6.35035e-09
6.35218e-09
6.35387e-09
6.35543e-09
6.35687e-09
6.35819e-09
6.3594e-09
6.36052e-09
6.36155e-09
6.36249e-09
6.36336e-09
6.36415e-09
6.36488e-09
6.36554e-09
6.36615e-09
6.3667e-09
6.36721e-09
6.36766e-09
6.36808e-09
6.36844e-09
6.3688e-09
6.36908e-09
6.36938e-09
6.36959e-09
6.36985e-09
6.37e-09
6.37023e-09
6.37031e-09
6.37055e-09
6.37057e-09
6.37084e-09
6.37081e-09
6.37114e-09
6.37109e-09
6.3715e-09
6.37145e-09
6.37188e-09
6.37186e-09
6.37225e-09
6.37224e-09
6.37254e-09
6.37252e-09
6.37269e-09
6.37266e-09
6.37276e-09
6.37271e-09
6.37276e-09
6.37271e-09
6.37274e-09
6.37269e-09
6.37272e-09
6.37267e-09
6.37269e-09
6.37267e-09
6.37269e-09
6.3728e-09
6.37284e-09
6.37716e-09
6.42547e-09
0.000159582
2.88164e-05
4.65858e-06
6.8874e-07
9.45762e-08
1.24744e-08
1.97071e-09
7.96428e-10
7.52566e-10
8.5638e-10
1.02647e-09
1.20785e-09
1.38986e-09
1.57829e-09
1.77504e-09
1.97864e-09
2.18762e-09
2.40069e-09
2.61719e-09
2.83736e-09
3.06121e-09
3.28785e-09
3.51617e-09
3.74529e-09
3.97442e-09
4.20287e-09
4.43006e-09
4.65529e-09
4.87789e-09
5.09717e-09
5.31262e-09
5.52379e-09
5.73033e-09
5.93196e-09
6.12841e-09
6.31944e-09
6.50487e-09
6.68452e-09
6.8583e-09
7.02611e-09
7.18791e-09
7.34369e-09
7.4935e-09
7.6374e-09
7.77547e-09
7.90777e-09
8.03441e-09
8.15549e-09
8.27112e-09
8.38144e-09
8.48656e-09
8.58665e-09
8.68186e-09
8.77233e-09
8.85824e-09
8.93975e-09
9.01701e-09
9.09021e-09
9.15949e-09
9.22503e-09
9.28697e-09
9.34549e-09
9.40073e-09
9.45284e-09
9.50197e-09
9.54826e-09
9.59186e-09
9.63289e-09
9.67148e-09
9.70776e-09
9.74185e-09
9.77386e-09
9.8039e-09
9.83209e-09
9.85852e-09
9.88329e-09
9.90649e-09
9.92821e-09
9.94854e-09
9.96755e-09
9.98533e-09
1.00019e-08
1.00175e-08
1.00319e-08
1.00454e-08
1.00581e-08
1.00698e-08
1.00808e-08
1.0091e-08
1.01004e-08
1.01093e-08
1.01175e-08
1.01251e-08
1.01322e-08
1.01388e-08
1.01449e-08
1.01506e-08
1.01559e-08
1.01608e-08
1.01653e-08
1.01695e-08
1.01733e-08
1.01769e-08
1.01802e-08
1.01833e-08
1.01861e-08
1.01887e-08
1.01911e-08
1.01934e-08
1.01954e-08
1.01973e-08
1.0199e-08
1.02006e-08
1.02021e-08
1.02034e-08
1.02047e-08
1.02058e-08
1.02068e-08
1.02078e-08
1.02086e-08
1.02094e-08
1.02101e-08
1.02108e-08
1.02114e-08
1.02119e-08
1.02124e-08
1.02128e-08
1.02132e-08
1.02135e-08
1.02139e-08
1.02141e-08
1.02144e-08
1.02146e-08
1.02149e-08
1.02149e-08
1.02153e-08
1.02153e-08
1.02157e-08
1.02157e-08
1.02162e-08
1.02162e-08
1.02168e-08
1.02168e-08
1.02173e-08
1.02173e-08
1.02177e-08
1.02177e-08
1.0218e-08
1.02179e-08
1.0218e-08
1.0218e-08
1.02181e-08
1.0218e-08
1.0218e-08
1.0218e-08
1.0218e-08
1.02179e-08
1.0218e-08
1.02179e-08
1.02179e-08
1.02181e-08
1.02182e-08
1.02244e-08
1.02877e-08
0.000223397
3.75452e-05
5.7845e-06
8.24432e-07
1.10643e-07
1.46577e-08
2.57477e-09
1.2686e-09
1.25944e-09
1.44887e-09
1.72955e-09
2.02104e-09
2.31243e-09
2.61273e-09
2.92374e-09
3.24284e-09
3.56771e-09
3.89622e-09
4.22733e-09
4.56147e-09
4.89864e-09
5.23751e-09
5.57626e-09
5.91352e-09
6.24842e-09
6.58009e-09
6.90769e-09
7.23032e-09
7.54709e-09
7.85719e-09
8.15999e-09
8.45502e-09
8.74192e-09
9.02044e-09
9.29033e-09
9.55141e-09
9.80356e-09
1.00467e-08
1.02808e-08
1.05058e-08
1.07218e-08
1.0929e-08
1.11275e-08
1.13174e-08
1.1499e-08
1.16725e-08
1.18379e-08
1.19956e-08
1.21458e-08
1.22887e-08
1.24245e-08
1.25534e-08
1.26757e-08
1.27917e-08
1.29015e-08
1.30056e-08
1.3104e-08
1.3197e-08
1.32849e-08
1.3368e-08
1.34463e-08
1.35202e-08
1.35899e-08
1.36555e-08
1.37173e-08
1.37754e-08
1.38301e-08
1.38816e-08
1.39299e-08
1.39753e-08
1.40179e-08
1.40579e-08
1.40954e-08
1.41305e-08
1.41635e-08
1.41943e-08
1.42232e-08
1.42502e-08
1.42755e-08
1.42991e-08
1.43212e-08
1.43418e-08
1.43611e-08
1.43791e-08
1.43958e-08
1.44115e-08
1.4426e-08
1.44396e-08
1.44522e-08
1.4464e-08
1.44749e-08
1.44851e-08
1.44946e-08
1.45033e-08
1.45115e-08
1.45191e-08
1.45261e-08
1.45326e-08
1.45386e-08
1.45442e-08
1.45494e-08
1.45542e-08
1.45586e-08
1.45627e-08
1.45665e-08
1.457e-08
1.45732e-08
1.45762e-08
1.45789e-08
1.45815e-08
1.45838e-08
1.45859e-08
1.45879e-08
1.45897e-08
1.45914e-08
1.45929e-08
1.45943e-08
1.45956e-08
1.45967e-08
1.45978e-08
1.45988e-08
1.45997e-08
1.46005e-08
1.46012e-08
1.46018e-08
1.46025e-08
1.4603e-08
1.46035e-08
1.46039e-08
1.46043e-08
1.46046e-08
1.4605e-08
1.46051e-08
1.46055e-08
1.46056e-08
1.4606e-08
1.4606e-08
1.46066e-08
1.46065e-08
1.46072e-08
1.46071e-08
1.46079e-08
1.46079e-08
1.46086e-08
1.46085e-08
1.46091e-08
1.4609e-08
1.46093e-08
1.46093e-08
1.46095e-08
1.46094e-08
1.46095e-08
1.46094e-08
1.46094e-08
1.46093e-08
1.46094e-08
1.46093e-08
1.46093e-08
1.46093e-08
1.46093e-08
1.46095e-08
1.46096e-08
1.46173e-08
1.46878e-08
0.000267713
4.11269e-05
6.00262e-06
8.39101e-07
1.13881e-07
1.58192e-08
3.24836e-09
1.91674e-09
1.9654e-09
2.27793e-09
2.70329e-09
3.13577e-09
3.56593e-09
4.00633e-09
4.45804e-09
4.9171e-09
5.38016e-09
5.84388e-09
6.30677e-09
6.77019e-09
7.23387e-09
7.69556e-09
8.15313e-09
8.60505e-09
9.05025e-09
9.48769e-09
9.9164e-09
1.03354e-08
1.07438e-08
1.11408e-08
1.15257e-08
1.18983e-08
1.22583e-08
1.26057e-08
1.29403e-08
1.3262e-08
1.35708e-08
1.3867e-08
1.41506e-08
1.44218e-08
1.4681e-08
1.49283e-08
1.51642e-08
1.53889e-08
1.5603e-08
1.58067e-08
1.60004e-08
1.61844e-08
1.63591e-08
1.65249e-08
1.66819e-08
1.68306e-08
1.69713e-08
1.71042e-08
1.72298e-08
1.73485e-08
1.74604e-08
1.7566e-08
1.76656e-08
1.77594e-08
1.78478e-08
1.7931e-08
1.80093e-08
1.8083e-08
1.81522e-08
1.82173e-08
1.82784e-08
1.83358e-08
1.83897e-08
1.84403e-08
1.84877e-08
1.85321e-08
1.85737e-08
1.86127e-08
1.86492e-08
1.86834e-08
1.87154e-08
1.87453e-08
1.87732e-08
1.87993e-08
1.88237e-08
1.88465e-08
1.88677e-08
1.88875e-08
1.8906e-08
1.89232e-08
1.89393e-08
1.89542e-08
1.89681e-08
1.89811e-08
1.89931e-08
1.90043e-08
1.90147e-08
1.90243e-08
1.90333e-08
1.90416e-08
1.90494e-08
1.90565e-08
1.90631e-08
1.90693e-08
1.9075e-08
1.90802e-08
1.90851e-08
1.90896e-08
1.90937e-08
1.90976e-08
1.91011e-08
1.91044e-08
1.91074e-08
1.91102e-08
1.91127e-08
1.91151e-08
1.91172e-08
1.91192e-08
1.9121e-08
1.91227e-08
1.91242e-08
1.91256e-08
1.91269e-08
1.91281e-08
1.91292e-08
1.91301e-08
1.9131e-08
1.91318e-08
1.91325e-08
1.91332e-08
1.91337e-08
1.91343e-08
1.91347e-08
1.91352e-08
1.91355e-08
1.9136e-08
1.91361e-08
1.91366e-08
1.91366e-08
1.91371e-08
1.91371e-08
1.91377e-08
1.91376e-08
1.91384e-08
1.91383e-08
1.91392e-08
1.91391e-08
1.91399e-08
1.91399e-08
1.91405e-08
1.91404e-08
1.91408e-08
1.91407e-08
1.91409e-08
1.91408e-08
1.91409e-08
1.91408e-08
1.91409e-08
1.91408e-08
1.91408e-08
1.91407e-08
1.91408e-08
1.91407e-08
1.91408e-08
1.9141e-08
1.91411e-08
1.91496e-08
1.92155e-08
0.000233351
3.57853e-05
5.29362e-06
7.70881e-07
1.11384e-07
1.68901e-08
4.11083e-09
2.77736e-09
2.90529e-09
3.37599e-09
3.98e-09
4.58034e-09
5.17484e-09
5.77807e-09
6.38993e-09
7.00557e-09
7.61946e-09
8.22705e-09
8.82807e-09
9.42423e-09
1.00149e-08
1.05973e-08
1.11692e-08
1.17289e-08
1.22753e-08
1.28075e-08
1.33247e-08
1.3826e-08
1.43105e-08
1.47775e-08
1.52269e-08
1.56585e-08
1.60728e-08
1.647e-08
1.68505e-08
1.72146e-08
1.75617e-08
1.78922e-08
1.82066e-08
1.85054e-08
1.87892e-08
1.90584e-08
1.93137e-08
1.95556e-08
1.97848e-08
2.00018e-08
2.02071e-08
2.04012e-08
2.05845e-08
2.07577e-08
2.09212e-08
2.10756e-08
2.12213e-08
2.13588e-08
2.14884e-08
2.16106e-08
2.17257e-08
2.18341e-08
2.19361e-08
2.20322e-08
2.21225e-08
2.22074e-08
2.22872e-08
2.23622e-08
2.24327e-08
2.24988e-08
2.25609e-08
2.26191e-08
2.26737e-08
2.27249e-08
2.27729e-08
2.28179e-08
2.286e-08
2.28994e-08
2.29362e-08
2.29707e-08
2.3003e-08
2.30331e-08
2.30613e-08
2.30876e-08
2.31122e-08
2.31351e-08
2.31565e-08
2.31764e-08
2.3195e-08
2.32124e-08
2.32285e-08
2.32435e-08
2.32575e-08
2.32705e-08
2.32826e-08
2.32939e-08
2.33043e-08
2.3314e-08
2.3323e-08
2.33314e-08
2.33391e-08
2.33463e-08
2.3353e-08
2.33591e-08
2.33648e-08
2.33701e-08
2.3375e-08
2.33795e-08
2.33837e-08
2.33875e-08
2.33911e-08
2.33944e-08
2.33974e-08
2.34002e-08
2.34027e-08
2.34051e-08
2.34073e-08
2.34092e-08
2.34111e-08
2.34128e-08
2.34143e-08
2.34157e-08
2.3417e-08
2.34182e-08
2.34192e-08
2.34202e-08
2.34211e-08
2.34219e-08
2.34226e-08
2.34233e-08
2.34238e-08
2.34244e-08
2.34248e-08
2.34253e-08
2.34256e-08
2.34261e-08
2.34262e-08
2.34267e-08
2.34267e-08
2.34272e-08
2.34271e-08
2.34278e-08
2.34277e-08
2.34285e-08
2.34284e-08
2.34293e-08
2.34292e-08
2.343e-08
2.343e-08
2.34306e-08
2.34306e-08
2.34309e-08
2.34308e-08
2.3431e-08
2.34309e-08
2.3431e-08
2.34309e-08
2.3431e-08
2.34309e-08
2.34309e-08
2.34308e-08
2.34309e-08
2.34308e-08
2.34309e-08
2.34311e-08
2.34312e-08
2.34398e-08
2.34869e-08
0.000137938
2.46476e-05
4.26351e-06
7.17665e-07
1.14748e-07
1.89412e-08
5.26753e-09
3.87856e-09
4.10486e-09
4.76706e-09
5.57822e-09
6.36669e-09
7.14312e-09
7.92263e-09
8.70377e-09
9.47943e-09
1.02439e-08
1.09924e-08
1.17248e-08
1.24436e-08
1.31483e-08
1.38359e-08
1.45042e-08
1.51514e-08
1.57768e-08
1.63803e-08
1.69619e-08
1.75216e-08
1.8058e-08
1.85697e-08
1.90568e-08
1.95197e-08
1.99592e-08
2.03759e-08
2.07703e-08
2.11434e-08
2.14967e-08
2.18313e-08
2.21479e-08
2.24472e-08
2.27302e-08
2.29974e-08
2.32499e-08
2.34882e-08
2.37133e-08
2.39257e-08
2.4126e-08
2.4315e-08
2.44932e-08
2.46611e-08
2.48193e-08
2.49683e-08
2.51087e-08
2.52408e-08
2.53651e-08
2.5482e-08
2.5592e-08
2.56954e-08
2.57925e-08
2.58838e-08
2.59696e-08
2.60501e-08
2.61257e-08
2.61967e-08
2.62633e-08
2.63257e-08
2.63842e-08
2.64391e-08
2.64905e-08
2.65387e-08
2.65838e-08
2.6626e-08
2.66656e-08
2.67025e-08
2.67371e-08
2.67694e-08
2.67996e-08
2.68279e-08
2.68542e-08
2.68788e-08
2.69018e-08
2.69233e-08
2.69432e-08
2.69619e-08
2.69792e-08
2.69954e-08
2.70105e-08
2.70245e-08
2.70376e-08
2.70497e-08
2.7061e-08
2.70715e-08
2.70812e-08
2.70903e-08
2.70987e-08
2.71065e-08
2.71137e-08
2.71204e-08
2.71266e-08
2.71323e-08
2.71376e-08
2.71426e-08
2.71471e-08
2.71513e-08
2.71552e-08
2.71588e-08
2.71621e-08
2.71652e-08
2.7168e-08
2.71706e-08
2.71729e-08
2.71751e-08
2.71772e-08
2.7179e-08
2.71807e-08
2.71823e-08
2.71837e-08
2.7185e-08
2.71862e-08
2.71873e-08
2.71883e-08
2.71892e-08
2.719e-08
2.71908e-08
2.71914e-08
2.71921e-08
2.71926e-08
2.71931e-08
2.71935e-08
2.7194e-08
2.71942e-08
2.71947e-08
2.71948e-08
2.71952e-08
2.71952e-08
2.71958e-08
2.71957e-08
2.71963e-08
2.71962e-08
2.7197e-08
2.71968e-08
2.71977e-08
2.71976e-08
2.71984e-08
2.71983e-08
2.71989e-08
2.71989e-08
2.71992e-08
2.71991e-08
2.71993e-08
2.71992e-08
2.71993e-08
2.71992e-08
2.71993e-08
2.71992e-08
2.71992e-08
2.71991e-08
2.71992e-08
2.71991e-08
2.71992e-08
2.71994e-08
2.71995e-08
2.72074e-08
2.72209e-08
8.91269e-05
2.09917e-05
4.25733e-06
7.72347e-07
1.28597e-07
2.2012e-08
6.67932e-09
5.22385e-09
5.5777e-09
6.46495e-09
7.50105e-09
8.48976e-09
9.45288e-09
1.04086e-08
1.13538e-08
1.22807e-08
1.31831e-08
1.40561e-08
1.49003e-08
1.57187e-08
1.65117e-08
1.72772e-08
1.80144e-08
1.87211e-08
1.93945e-08
2.00342e-08
2.06404e-08
2.12127e-08
2.17531e-08
2.22636e-08
2.27453e-08
2.31995e-08
2.36276e-08
2.40309e-08
2.4411e-08
2.4769e-08
2.51062e-08
2.54237e-08
2.57226e-08
2.60038e-08
2.62684e-08
2.65172e-08
2.67514e-08
2.69716e-08
2.71788e-08
2.73736e-08
2.75569e-08
2.77292e-08
2.78913e-08
2.80435e-08
2.81867e-08
2.83211e-08
2.84474e-08
2.85661e-08
2.86775e-08
2.87821e-08
2.88803e-08
2.89725e-08
2.9059e-08
2.91401e-08
2.92162e-08
2.92876e-08
2.93545e-08
2.94172e-08
2.9476e-08
2.95311e-08
2.95827e-08
2.9631e-08
2.96763e-08
2.97186e-08
2.97582e-08
2.97953e-08
2.983e-08
2.98624e-08
2.98927e-08
2.9921e-08
2.99475e-08
2.99722e-08
2.99952e-08
3.00168e-08
3.00368e-08
3.00556e-08
3.0073e-08
3.00893e-08
3.01045e-08
3.01186e-08
3.01317e-08
3.0144e-08
3.01553e-08
3.01659e-08
3.01758e-08
3.01849e-08
3.01934e-08
3.02013e-08
3.02086e-08
3.02154e-08
3.02217e-08
3.02275e-08
3.02329e-08
3.02379e-08
3.02425e-08
3.02468e-08
3.02508e-08
3.02544e-08
3.02578e-08
3.02609e-08
3.02638e-08
3.02665e-08
3.02689e-08
3.02712e-08
3.02733e-08
3.02752e-08
3.02769e-08
3.02786e-08
3.028e-08
3.02814e-08
3.02826e-08
3.02838e-08
3.02848e-08
3.02858e-08
3.02866e-08
3.02874e-08
3.02881e-08
3.02888e-08
3.02894e-08
3.02899e-08
3.02904e-08
3.02908e-08
3.02911e-08
3.02916e-08
3.02918e-08
3.02922e-08
3.02923e-08
3.02927e-08
3.02927e-08
3.02931e-08
3.0293e-08
3.02936e-08
3.02935e-08
3.02942e-08
3.02941e-08
3.02948e-08
3.02947e-08
3.02954e-08
3.02954e-08
3.02959e-08
3.02958e-08
3.02961e-08
3.0296e-08
3.02962e-08
3.02961e-08
3.02962e-08
3.02961e-08
3.02962e-08
3.02961e-08
3.02961e-08
3.02961e-08
3.02961e-08
3.02961e-08
3.02961e-08
3.02963e-08
3.02963e-08
3.03032e-08
3.0268e-08
9.77954e-05
2.323e-05
4.7849e-06
8.63262e-07
1.4011e-07
2.41189e-08
8.13016e-09
6.7944e-09
7.32804e-09
8.47342e-09
9.73794e-09
1.09235e-08
1.20649e-08
1.3183e-08
1.42743e-08
1.53301e-08
1.63446e-08
1.73135e-08
1.82397e-08
1.91281e-08
1.99744e-08
2.07747e-08
2.15268e-08
2.22321e-08
2.28951e-08
2.35177e-08
2.41019e-08
2.46498e-08
2.51632e-08
2.5644e-08
2.60941e-08
2.65153e-08
2.69094e-08
2.72784e-08
2.76238e-08
2.79472e-08
2.82499e-08
2.85333e-08
2.87987e-08
2.90472e-08
2.92798e-08
2.94977e-08
2.97018e-08
2.9893e-08
3.00722e-08
3.02402e-08
3.03977e-08
3.05453e-08
3.06837e-08
3.08134e-08
3.09349e-08
3.10489e-08
3.11557e-08
3.12558e-08
3.13496e-08
3.14375e-08
3.15199e-08
3.15971e-08
3.16694e-08
3.17372e-08
3.18007e-08
3.18602e-08
3.19158e-08
3.1968e-08
3.20168e-08
3.20625e-08
3.21053e-08
3.21453e-08
3.21827e-08
3.22177e-08
3.22505e-08
3.22811e-08
3.23097e-08
3.23364e-08
3.23614e-08
3.23848e-08
3.24065e-08
3.24269e-08
3.24459e-08
3.24636e-08
3.24801e-08
3.24955e-08
3.25098e-08
3.25232e-08
3.25357e-08
3.25473e-08
3.25581e-08
3.25681e-08
3.25774e-08
3.25861e-08
3.25942e-08
3.26017e-08
3.26087e-08
3.26151e-08
3.26211e-08
3.26267e-08
3.26319e-08
3.26366e-08
3.26411e-08
3.26452e-08
3.2649e-08
3.26525e-08
3.26557e-08
3.26587e-08
3.26615e-08
3.26641e-08
3.26664e-08
3.26686e-08
3.26706e-08
3.26725e-08
3.26742e-08
3.26757e-08
3.26772e-08
3.26785e-08
3.26797e-08
3.26808e-08
3.26818e-08
3.26828e-08
3.26836e-08
3.26844e-08
3.26851e-08
3.26858e-08
3.26863e-08
3.26869e-08
3.26873e-08
3.26878e-08
3.26881e-08
3.26886e-08
3.26888e-08
3.26892e-08
3.26893e-08
3.26897e-08
3.26897e-08
3.26901e-08
3.269e-08
3.26904e-08
3.26903e-08
3.26908e-08
3.26907e-08
3.26913e-08
3.26912e-08
3.26918e-08
3.26917e-08
3.26923e-08
3.26922e-08
3.26927e-08
3.26926e-08
3.26929e-08
3.26928e-08
3.2693e-08
3.26929e-08
3.2693e-08
3.26929e-08
3.26929e-08
3.26928e-08
3.26929e-08
3.26928e-08
3.26929e-08
3.26928e-08
3.26929e-08
3.2693e-08
3.2693e-08
3.26987e-08
3.25991e-08
0.000120558
2.6538e-05
5.11293e-06
8.71682e-07
1.3674e-07
2.41957e-08
9.55047e-09
8.58604e-09
9.36694e-09
1.07945e-08
1.2269e-08
1.36336e-08
1.49333e-08
1.61883e-08
1.73937e-08
1.85412e-08
1.9627e-08
2.0649e-08
2.16044e-08
2.24939e-08
2.33246e-08
2.40984e-08
2.48175e-08
2.54856e-08
2.61062e-08
2.66827e-08
2.72182e-08
2.77154e-08
2.81769e-08
2.86051e-08
2.90025e-08
2.93712e-08
2.97136e-08
3.00317e-08
3.03275e-08
3.06026e-08
3.08585e-08
3.10967e-08
3.13185e-08
3.15251e-08
3.17176e-08
3.18971e-08
3.20646e-08
3.22209e-08
3.23669e-08
3.25032e-08
3.26307e-08
3.27498e-08
3.28611e-08
3.29652e-08
3.30626e-08
3.31536e-08
3.32388e-08
3.33185e-08
3.33931e-08
3.34628e-08
3.35281e-08
3.35892e-08
3.36463e-08
3.36998e-08
3.37499e-08
3.37967e-08
3.38405e-08
3.38815e-08
3.39199e-08
3.39558e-08
3.39893e-08
3.40207e-08
3.405e-08
3.40774e-08
3.41031e-08
3.4127e-08
3.41494e-08
3.41703e-08
3.41898e-08
3.42081e-08
3.42251e-08
3.4241e-08
3.42558e-08
3.42696e-08
3.42825e-08
3.42945e-08
3.43057e-08
3.43161e-08
3.43258e-08
3.43348e-08
3.43432e-08
3.43511e-08
3.43583e-08
3.43651e-08
3.43714e-08
3.43772e-08
3.43827e-08
3.43877e-08
3.43924e-08
3.43967e-08
3.44007e-08
3.44044e-08
3.44079e-08
3.44111e-08
3.4414e-08
3.44168e-08
3.44193e-08
3.44216e-08
3.44238e-08
3.44258e-08
3.44276e-08
3.44293e-08
3.44309e-08
3.44323e-08
3.44336e-08
3.44349e-08
3.4436e-08
3.4437e-08
3.44379e-08
3.44388e-08
3.44396e-08
3.44403e-08
3.4441e-08
3.44416e-08
3.44422e-08
3.44427e-08
3.44431e-08
3.44435e-08
3.44439e-08
3.44443e-08
3.44445e-08
3.44449e-08
3.4445e-08
3.44453e-08
3.44454e-08
3.44457e-08
3.44457e-08
3.4446e-08
3.4446e-08
3.44463e-08
3.44462e-08
3.44466e-08
3.44465e-08
3.4447e-08
3.44469e-08
3.44474e-08
3.44473e-08
3.44478e-08
3.44477e-08
3.44481e-08
3.4448e-08
3.44482e-08
3.44481e-08
3.44483e-08
3.44482e-08
3.44483e-08
3.44482e-08
3.44482e-08
3.44482e-08
3.44482e-08
3.44482e-08
3.44482e-08
3.44482e-08
3.44482e-08
3.44483e-08
3.44483e-08
3.44527e-08
3.42714e-08
0.000136927
2.60868e-05
4.47779e-06
6.91895e-07
1.02548e-07
2.11575e-08
1.18104e-08
1.17083e-08
1.29995e-08
1.48362e-08
1.6545e-08
1.81313e-08
1.96267e-08
2.1045e-08
2.23609e-08
2.35654e-08
2.4658e-08
2.56412e-08
2.65289e-08
2.73372e-08
2.80747e-08
2.87464e-08
2.93573e-08
2.99131e-08
3.04191e-08
3.08802e-08
3.13006e-08
3.16843e-08
3.20346e-08
3.23545e-08
3.2647e-08
3.29147e-08
3.31602e-08
3.33855e-08
3.35927e-08
3.37833e-08
3.3959e-08
3.41211e-08
3.42708e-08
3.44091e-08
3.45372e-08
3.46559e-08
3.4766e-08
3.48682e-08
3.49631e-08
3.50515e-08
3.51337e-08
3.52103e-08
3.52817e-08
3.53482e-08
3.54103e-08
3.54682e-08
3.55222e-08
3.55727e-08
3.56199e-08
3.56639e-08
3.57051e-08
3.57435e-08
3.57795e-08
3.58131e-08
3.58445e-08
3.58739e-08
3.59014e-08
3.5927e-08
3.59511e-08
3.59735e-08
3.59945e-08
3.60141e-08
3.60324e-08
3.60496e-08
3.60656e-08
3.60805e-08
3.60945e-08
3.61076e-08
3.61197e-08
3.61311e-08
3.61417e-08
3.61516e-08
3.61609e-08
3.61695e-08
3.61775e-08
3.6185e-08
3.6192e-08
3.61985e-08
3.62046e-08
3.62102e-08
3.62154e-08
3.62203e-08
3.62248e-08
3.62291e-08
3.6233e-08
3.62366e-08
3.624e-08
3.62431e-08
3.62461e-08
3.62488e-08
3.62513e-08
3.62536e-08
3.62557e-08
3.62577e-08
3.62596e-08
3.62613e-08
3.62628e-08
3.62643e-08
3.62656e-08
3.62669e-08
3.6268e-08
3.62691e-08
3.627e-08
3.62709e-08
3.62718e-08
3.62725e-08
3.62732e-08
3.62739e-08
3.62745e-08
3.6275e-08
3.62755e-08
3.62759e-08
3.62763e-08
3.62767e-08
3.62771e-08
3.62774e-08
3.62777e-08
3.62779e-08
3.62781e-08
3.62784e-08
3.62785e-08
3.62788e-08
3.62788e-08
3.62791e-08
3.62791e-08
3.62793e-08
3.62793e-08
3.62795e-08
3.62794e-08
3.62797e-08
3.62796e-08
3.62799e-08
3.62797e-08
3.62801e-08
3.628e-08
3.62804e-08
3.62802e-08
3.62806e-08
3.62805e-08
3.62808e-08
3.62807e-08
3.62809e-08
3.62808e-08
3.62809e-08
3.62808e-08
3.62809e-08
3.62808e-08
3.62809e-08
3.62808e-08