/*--------------------------------*- C++ -*----------------------------------*\
| =========                 |                                                 |
| \\      /  F ield         | OpenFOAM: The Open Source CFD Toolbox           |
|  \\    /   O peration     | Version:  v1912                                 |
|   \\  /    A nd           | Website:  www.openfoam.com                      |
|    \\/     M anipulation  |                                                 |
\*---------------------------------------------------------------------------*/
FoamFile
{
    version     2.0;
    format      ascii;
    class       volVectorField;
    location    "100";
    object      U;
}
// * * * * * * * * * * * * * * * * * * * * * * * * * * * * * * * * * * * * * //

dimensions      [0 1 -1 0 0 0 0];


internalField   nonuniform List<vector> 
14268
(
(0.647078 0.0654092 0)
(0.599948 0.0604228 0)
(0.56802 0.0571183 0)
(0.541843 0.0544525 0)
(0.518481 0.0520957 0)
(0.496356 0.0498738 0)
(0.474793 0.0477088 0)
(0.454 0.0456208 0)
(0.434062 0.0436185 0)
(0.414859 0.0416902 0)
(0.396328 0.0398294 0)
(0.378491 0.0380377 0)
(0.361352 0.0363164 0)
(0.344851 0.0346593 0)
(0.328973 0.0330647 0)
(0.313696 0.0315305 0)
(0.298995 0.0300541 0)
(0.284839 0.0286327 0)
(0.271182 0.0272617 0)
(0.25799 0.0259373 0)
(0.245273 0.0246604 0)
(0.233049 0.0234325 0)
(0.221311 0.0222535 0)
(0.210041 0.0211215 0)
(0.199226 0.0200351 0)
(0.188856 0.0189932 0)
(0.178921 0.0179951 0)
(0.169412 0.0170397 0)
(0.16032 0.016126 0)
(0.151634 0.0152531 0)
(0.14334 0.0144195 0)
(0.135425 0.013624 0)
(0.127877 0.0128653 0)
(0.120683 0.0121422 0)
(0.113833 0.0114536 0)
(0.107314 0.0107982 0)
(0.101117 0.0101751 0)
(0.0952286 0.00958307 0)
(0.0896383 0.00902094 0)
(0.0843344 0.00848757 0)
(0.0793052 0.00798179 0)
(0.074539 0.00750244 0)
(0.0700245 0.00704838 0)
(0.0657507 0.00661852 0)
(0.0617072 0.00621179 0)
(0.057884 0.0058272 0)
(0.0542713 0.00546376 0)
(0.0508595 0.00512052 0)
(0.0476396 0.00479656 0)
(0.0446026 0.00449098 0)
(0.0417399 0.00420293 0)
(0.0390431 0.00393155 0)
(0.0365039 0.00367602 0)
(0.0341146 0.00343556 0)
(0.0318674 0.0032094 0)
(0.0297551 0.0029968 0)
(0.0277706 0.00279705 0)
(0.0259072 0.00260947 0)
(0.0241582 0.00243342 0)
(0.0225176 0.00226825 0)
(0.0209793 0.00211339 0)
(0.0195377 0.00196825 0)
(0.0181874 0.0018323 0)
(0.0169231 0.001705 0)
(0.01574 0.00158587 0)
(0.0146334 0.00147444 0)
(0.0135987 0.00137024 0)
(0.0126318 0.00127287 0)
(0.0117287 0.00118191 0)
(0.0108854 0.00109699 0)
(0.0100985 0.00101773 0)
(0.0093644 0.000943787 0)
(0.00867995 0.000874843 0)
(0.00804204 0.000810585 0)
(0.00744779 0.000750721 0)
(0.00689445 0.000694977 0)
(0.00637943 0.000643091 0)
(0.0059003 0.000594818 0)
(0.00545475 0.000549926 0)
(0.00504061 0.000508197 0)
(0.00465584 0.000469427 0)
(0.00429853 0.00043342 0)
(0.00396685 0.000399996 0)
(0.00365912 0.000368983 0)
(0.00337373 0.00034022 0)
(0.00310918 0.000313557 0)
(0.00286406 0.00028885 0)
(0.00263705 0.000265969 0)
(0.00242691 0.000244786 0)
(0.00223248 0.000225186 0)
(0.00205267 0.000207059 0)
(0.00188645 0.000190301 0)
(0.00173288 0.000174818 0)
(0.00159106 0.000160519 0)
(0.00146015 0.000147319 0)
(0.00133938 0.000135141 0)
(0.00122801 0.00012391 0)
(0.00112537 0.000113558 0)
(0.00103081 0.000104022 0)
(0.00094375 9.52411e-05 0)
(0.000863629 8.71598e-05 0)
(0.000789934 7.97263e-05 0)
(0.000722186 7.28922e-05 0)
(0.000659936 6.66125e-05 0)
(0.00060277 6.08452e-05 0)
(0.0005503 5.55514e-05 0)
(0.000502165 5.06948e-05 0)
(0.000458033 4.62417e-05 0)
(0.000417591 4.21607e-05 0)
(0.000380552 3.8423e-05 0)
(0.000346648 3.50014e-05 0)
(0.000315631 3.1871e-05 0)
(0.000287269 2.90084e-05 0)
(0.000261352 2.63924e-05 0)
(0.000237678 2.40026e-05 0)
(0.00021607 2.18214e-05 0)
(0.00019635 1.98305e-05 0)
(0.000178374 1.80157e-05 0)
(0.000161978 1.63603e-05 0)
(0.000147056 1.48536e-05 0)
(0.000133445 1.34793e-05 0)
(0.000121083 1.2231e-05 0)
(0.000109795 1.10912e-05 0)
(9.95745e-05 1.0059e-05 0)
(9.02122e-05 9.11366e-06 0)
(8.17797e-05 8.26205e-06 0)
(7.40013e-05 7.47665e-06 0)
(6.70596e-05 6.77556e-06 0)
(6.057e-05 6.12044e-06 0)
(5.48724e-05 5.54494e-06 0)
(4.94157e-05 4.9943e-06 0)
(4.47631e-05 4.52425e-06 0)
(4.01299e-05 4.05697e-06 0)
(3.63501e-05 3.67487e-06 0)
(3.2394e-05 3.2762e-06 0)
(2.93289e-05 2.96586e-06 0)
(2.59776e-05 2.62846e-06 0)
(2.34883e-05 2.3756e-06 0)
(2.07505e-05 2.10018e-06 0)
(1.87241e-05 1.89323e-06 0)
(1.66651e-05 1.68607e-06 0)
(1.50312e-05 1.51826e-06 0)
(1.36752e-05 1.3815e-06 0)
(1.24084e-05 1.25101e-06 0)
(1.16453e-05 1.17369e-06 0)
(1.07061e-05 1.07685e-06 0)
(1.03752e-05 1.043e-06 0)
(9.70417e-06 9.74015e-07 0)
(9.61841e-06 9.64969e-07 0)
(9.14823e-06 9.16775e-07 0)
(9.18278e-06 9.19994e-07 0)
(8.85872e-06 8.86873e-07 0)
(8.93425e-06 8.94361e-07 0)
(8.71523e-06 8.71987e-07 0)
(8.79328e-06 8.79829e-07 0)
(8.65184e-06 8.65342e-07 0)
(8.71674e-06 8.71915e-07 0)
(8.63255e-06 8.63271e-07 0)
(8.67898e-06 8.67789e-07 0)
(8.66449e-06 8.66316e-07 0)
(8.69488e-06 8.68289e-07 0)
(8.85518e-06 8.84755e-07 0)
(8.8971e-06 8.63294e-07 0)
(1.38775e-05 1.36223e-06 0)
(0.644131 0.0664697 0)
(0.599005 0.0611139 0)
(0.567516 0.0576418 0)
(0.541429 0.0548976 0)
(0.518084 0.0525056 0)
(0.495964 0.050267 0)
(0.474402 0.0480872 0)
(0.453611 0.0459844 0)
(0.433674 0.0439682 0)
(0.414474 0.0420266 0)
(0.395947 0.0401534 0)
(0.378116 0.0383487 0)
(0.360983 0.0366153 0)
(0.344489 0.0349465 0)
(0.328618 0.033341 0)
(0.31335 0.0317964 0)
(0.298657 0.0303098 0)
(0.28451 0.0288791 0)
(0.270861 0.0274997 0)
(0.257679 0.0261672 0)
(0.244972 0.0248817 0)
(0.232758 0.0236452 0)
(0.221029 0.0224577 0)
(0.20977 0.0213177 0)
(0.198965 0.0202235 0)
(0.188604 0.0191739 0)
(0.178679 0.0181682 0)
(0.169181 0.0172054 0)
(0.160099 0.0162845 0)
(0.151422 0.0154046 0)
(0.143137 0.0145642 0)
(0.135231 0.0137622 0)
(0.127692 0.0129972 0)
(0.120507 0.0122679 0)
(0.113665 0.0115733 0)
(0.107155 0.0109123 0)
(0.100966 0.0102836 0)
(0.095085 0.00968617 0)
(0.0895022 0.00911887 0)
(0.0842054 0.00858054 0)
(0.0791831 0.00807 0)
(0.0744234 0.00758609 0)
(0.0699152 0.00712766 0)
(0.0656475 0.0066936 0)
(0.0616098 0.00628287 0)
(0.0577921 0.00589444 0)
(0.0541847 0.00552733 0)
(0.050778 0.00518059 0)
(0.0475629 0.00485328 0)
(0.0445304 0.00454451 0)
(0.0416721 0.00425341 0)
(0.0389793 0.00397913 0)
(0.0364441 0.00372084 0)
(0.0340584 0.00347775 0)
(0.0318148 0.0032491 0)
(0.0297058 0.00303413 0)
(0.0277244 0.00283214 0)
(0.0258639 0.00264244 0)
(0.0241178 0.00246437 0)
(0.0224798 0.00229731 0)
(0.020944 0.00214064 0)
(0.0195047 0.0019938 0)
(0.0181566 0.00185624 0)
(0.0168944 0.00172743 0)
(0.0157132 0.00160686 0)
(0.0146084 0.00149408 0)
(0.0135754 0.00138862 0)
(0.0126101 0.00129005 0)
(0.0117085 0.00119796 0)
(0.0108666 0.00111198 0)
(0.010081 0.00103172 0)
(0.00934814 0.000956843 0)
(0.00866484 0.00088702 0)
(0.008028 0.000821937 0)
(0.00743475 0.000761299 0)
(0.00688235 0.000704829 0)
(0.0063682 0.000652263 0)
(0.00588988 0.000603352 0)
(0.00544509 0.000557864 0)
(0.00503166 0.000515577 0)
(0.00464755 0.000476284 0)
(0.00429085 0.000439789 0)
(0.00395974 0.000405909 0)
(0.00365254 0.00037447 0)
(0.00336764 0.000345309 0)
(0.00310354 0.000318274 0)
(0.00285885 0.000293222 0)
(0.00263223 0.000270017 0)
(0.00242246 0.000248533 0)
(0.00222837 0.000228653 0)
(0.00204887 0.000210265 0)
(0.00188294 0.000193265 0)
(0.00172964 0.000177555 0)
(0.00158806 0.000163046 0)
(0.00145739 0.000149651 0)
(0.00133683 0.000137291 0)
(0.00122565 0.000125892 0)
(0.00112319 0.000115385 0)
(0.0010288 0.000105704 0)
(0.00094189 9.67885e-05 0)
(0.00086191 8.85828e-05 0)
(0.000788346 8.10341e-05 0)
(0.000720717 7.40934e-05 0)
(0.000658578 6.77151e-05 0)
(0.000601513 6.18566e-05 0)
(0.000549136 5.64785e-05 0)
(0.000501088 5.15441e-05 0)
(0.000457034 4.70191e-05 0)
(0.000416664 4.28719e-05 0)
(0.000379691 3.9073e-05 0)
(0.000345848 3.5595e-05 0)
(0.000314886 3.24127e-05 0)
(0.000286575 2.95024e-05 0)
(0.000260705 2.68424e-05 0)
(0.000237074 2.44123e-05 0)
(0.000215505 2.21939e-05 0)
(0.00019582 2.0169e-05 0)
(0.000177876 1.83229e-05 0)
(0.00016151 1.66389e-05 0)
(0.000146615 1.51059e-05 0)
(0.000133029 1.37077e-05 0)
(0.000120689 1.24374e-05 0)
(0.000109421 1.12775e-05 0)
(9.92193e-05 1.02271e-05 0)
(8.98739e-05 9.26508e-06 0)
(8.14566e-05 8.39826e-06 0)
(7.3692e-05 7.59916e-06 0)
(6.67628e-05 6.88549e-06 0)
(6.02846e-05 6.21916e-06 0)
(5.45973e-05 5.63325e-06 0)
(4.91499e-05 5.07356e-06 0)
(4.45057e-05 4.59484e-06 0)
(3.98802e-05 4.12036e-06 0)
(3.61073e-05 3.73074e-06 0)
(3.21574e-05 3.32655e-06 0)
(2.90981e-05 3.00917e-06 0)
(2.57517e-05 2.66769e-06 0)
(2.32674e-05 2.4075e-06 0)
(2.05337e-05 2.12916e-06 0)
(1.85116e-05 1.91409e-06 0)
(1.64559e-05 1.70468e-06 0)
(1.48258e-05 1.52844e-06 0)
(1.34725e-05 1.38959e-06 0)
(1.22088e-05 1.25181e-06 0)
(1.14477e-05 1.17266e-06 0)
(1.05108e-05 1.07023e-06 0)
(1.01816e-05 1.035e-06 0)
(9.51215e-06 9.62402e-07 0)
(9.4276e-06 9.52516e-07 0)
(8.95853e-06 9.02069e-07 0)
(8.99394e-06 9.04881e-07 0)
(8.67064e-06 8.70385e-07 0)
(8.74679e-06 8.77793e-07 0)
(8.52829e-06 8.54492e-07 0)
(8.60678e-06 8.6245e-07 0)
(8.46573e-06 8.47261e-07 0)
(8.53094e-06 8.54048e-07 0)
(8.44703e-06 8.44916e-07 0)
(8.49375e-06 8.49247e-07 0)
(8.47944e-06 8.47786e-07 0)
(8.51032e-06 8.47782e-07 0)
(8.67027e-06 8.64976e-07 0)
(8.7211e-06 7.93486e-07 0)
(1.36541e-05 1.28954e-06 0)
(0.640114 0.0671609 0)
(0.597829 0.061768 0)
(0.56695 0.0581912 0)
(0.540988 0.055377 0)
(0.517673 0.0529501 0)
(0.495564 0.0506949 0)
(0.474012 0.0484995 0)
(0.453232 0.0463806 0)
(0.433307 0.0443491 0)
(0.414119 0.042393 0)
(0.395604 0.0405061 0)
(0.377785 0.038687 0)
(0.360665 0.0369404 0)
(0.344183 0.035259 0)
(0.328325 0.0336414 0)
(0.313068 0.0320854 0)
(0.298387 0.0305878 0)
(0.284252 0.0291468 0)
(0.270614 0.0277582 0)
(0.257442 0.0264167 0)
(0.244747 0.0251218 0)
(0.232543 0.0238758 0)
(0.220825 0.0226791 0)
(0.209575 0.0215303 0)
(0.19878 0.0204274 0)
(0.188429 0.0193693 0)
(0.178512 0.0183553 0)
(0.169023 0.0173844 0)
(0.159949 0.0164556 0)
(0.15128 0.015568 0)
(0.143002 0.0147202 0)
(0.135104 0.013911 0)
(0.127572 0.0131391 0)
(0.120394 0.0124032 0)
(0.113558 0.0117021 0)
(0.107054 0.0110347 0)
(0.10087 0.0104 0)
(0.0949951 0.00979673 0)
(0.0894174 0.00922381 0)
(0.0841256 0.00868009 0)
(0.0791079 0.00816438 0)
(0.0743527 0.00767552 0)
(0.0698487 0.00721236 0)
(0.065585 0.00677378 0)
(0.0615511 0.00635872 0)
(0.057737 0.00596615 0)
(0.0541329 0.00559509 0)
(0.0507294 0.00524456 0)
(0.0475173 0.00491365 0)
(0.0444877 0.00460144 0)
(0.041632 0.00430706 0)
(0.0389418 0.00402967 0)
(0.0364089 0.00376842 0)
(0.0340255 0.00352252 0)
(0.031784 0.00329119 0)
(0.029677 0.0030737 0)
(0.0276975 0.00286931 0)
(0.0258388 0.00267734 0)
(0.0240943 0.00249712 0)
(0.0224578 0.00232802 0)
(0.0209235 0.00216944 0)
(0.0194856 0.00202078 0)
(0.0181387 0.00188151 0)
(0.0168777 0.00175108 0)
(0.0156976 0.001629 0)
(0.0145939 0.00151478 0)
(0.0135619 0.00140797 0)
(0.0125975 0.00130813 0)
(0.0116967 0.00121485 0)
(0.0108557 0.00112774 0)
(0.0100708 0.00104643 0)
(0.00933865 0.000970561 0)
(0.008656 0.000899808 0)
(0.00801978 0.000833853 0)
(0.0074271 0.000772397 0)
(0.00687522 0.00071516 0)
(0.00636158 0.000661875 0)
(0.00588372 0.000612293 0)
(0.00543936 0.000566175 0)
(0.00502633 0.0005233 0)
(0.00464259 0.000483456 0)
(0.00428623 0.000446447 0)
(0.00395545 0.000412086 0)
(0.00364854 0.000380198 0)
(0.00336392 0.000350619 0)
(0.00310009 0.000323194 0)
(0.00285563 0.000297777 0)
(0.00262924 0.000274233 0)
(0.00241967 0.000252434 0)
(0.00222577 0.000232259 0)
(0.00204645 0.000213597 0)
(0.00188068 0.000196342 0)
(0.00172753 0.000180396 0)
(0.0015861 0.000165667 0)
(0.00145555 0.000152067 0)
(0.00133511 0.000139518 0)
(0.00122405 0.000127943 0)
(0.00112169 0.000117272 0)
(0.00102739 0.000107439 0)
(0.00094057 9.83834e-05 0)
(0.000860671 9.00477e-05 0)
(0.000787181 8.23787e-05 0)
(0.000719621 7.53266e-05 0)
(0.000657545 6.88452e-05 0)
(0.000600538 6.28915e-05 0)
(0.000548214 5.74255e-05 0)
(0.000500214 5.24098e-05 0)
(0.000456206 4.78099e-05 0)
(0.000415877 4.35935e-05 0)
(0.000378943 3.97309e-05 0)
(0.000345134 3.61942e-05 0)
(0.000314204 3.29579e-05 0)
(0.000285923 2.99978e-05 0)
(0.000260079 2.72921e-05 0)
(0.000236472 2.48199e-05 0)
(0.000214926 2.25629e-05 0)
(0.000195261 2.05026e-05 0)
(0.000177337 1.8624e-05 0)
(0.000160988 1.69102e-05 0)
(0.000146108 1.53499e-05 0)
(0.000132536 1.39267e-05 0)
(0.000120209 1.26336e-05 0)
(0.000108953 1.14529e-05 0)
(9.8762e-05 1.03835e-05 0)
(8.94263e-05 9.40422e-06 0)
(8.10179e-05 8.52164e-06 0)
(7.32614e-05 7.7083e-06 0)
(6.63395e-05 6.98158e-06 0)
(5.9868e-05 6.30362e-06 0)
(5.41866e-05 5.70694e-06 0)
(4.87447e-05 5.13784e-06 0)
(4.41054e-05 4.65014e-06 0)
(3.94844e-05 4.16816e-06 0)
(3.57156e-05 3.7708e-06 0)
(3.17693e-05 3.36083e-06 0)
(2.87135e-05 3.03623e-06 0)
(2.537e-05 2.69047e-06 0)
(2.28888e-05 2.42281e-06 0)
(2.01575e-05 2.14139e-06 0)
(1.81381e-05 1.91808e-06 0)
(1.60844e-05 1.7063e-06 0)
(1.44568e-05 1.52156e-06 0)
(1.31052e-05 1.38053e-06 0)
(1.18435e-05 1.23541e-06 0)
(1.10838e-05 1.15435e-06 0)
(1.01484e-05 1.04631e-06 0)
(9.82023e-06 1.00965e-06 0)
(9.15179e-06 9.33451e-07 0)
(9.06798e-06 9.22674e-07 0)
(8.59954e-06 8.70001e-07 0)
(8.63547e-06 8.72362e-07 0)
(8.31255e-06 8.36533e-07 0)
(8.38905e-06 8.43812e-07 0)
(8.17081e-06 8.19644e-07 0)
(8.24953e-06 8.27666e-07 0)
(8.10865e-06 8.11857e-07 0)
(8.17404e-06 8.18791e-07 0)
(8.09025e-06 8.09266e-07 0)
(8.13714e-06 8.13339e-07 0)
(8.12292e-06 8.11856e-07 0)
(8.15419e-06 8.09732e-07 0)
(8.31342e-06 8.27541e-07 0)
(8.37175e-06 7.06329e-07 0)
(1.32045e-05 1.19429e-06 0)
(0.638159 0.0681584 0)
(0.597014 0.0624444 0)
(0.566461 0.0587231 0)
(0.540589 0.0558368 0)
(0.517307 0.0533768 0)
(0.495215 0.0511059 0)
(0.473677 0.0488962 0)
(0.452911 0.0467631 0)
(0.433001 0.0447182 0)
(0.413829 0.0427493 0)
(0.395328 0.0408501 0)
(0.377523 0.0390181 0)
(0.360416 0.0372596 0)
(0.343948 0.0355666 0)
(0.328101 0.033938 0)
(0.312857 0.0323714 0)
(0.298186 0.0308635 0)
(0.284062 0.0294129 0)
(0.270434 0.0280156 0)
(0.257272 0.0266656 0)
(0.244586 0.0253617 0)
(0.23239 0.0241065 0)
(0.220681 0.022901 0)
(0.20944 0.0217435 0)
(0.198652 0.0206322 0)
(0.188307 0.0195659 0)
(0.178398 0.0185438 0)
(0.168915 0.0175649 0)
(0.159847 0.0166284 0)
(0.151184 0.0157331 0)
(0.142912 0.014878 0)
(0.135019 0.0140617 0)
(0.127492 0.0132829 0)
(0.120318 0.0125403 0)
(0.113487 0.0118327 0)
(0.106987 0.0111591 0)
(0.100807 0.0105182 0)
(0.0949361 0.00990912 0)
(0.089362 0.00933056 0)
(0.0840735 0.00878139 0)
(0.079059 0.00826047 0)
(0.0743067 0.00776661 0)
(0.0698055 0.00729866 0)
(0.0655444 0.0068555 0)
(0.061513 0.00643605 0)
(0.0577012 0.00603927 0)
(0.0540993 0.00566419 0)
(0.0506979 0.00530983 0)
(0.0474878 0.00497525 0)
(0.0444601 0.00465954 0)
(0.0416061 0.00436183 0)
(0.0389175 0.00408126 0)
(0.0363862 0.003817 0)
(0.0340042 0.00356823 0)
(0.031764 0.00333418 0)
(0.0296583 0.0031141 0)
(0.02768 0.00290727 0)
(0.0258224 0.00271298 0)
(0.0240789 0.00253056 0)
(0.0224435 0.00235939 0)
(0.02091 0.00219885 0)
(0.019473 0.00204834 0)
(0.018127 0.00190732 0)
(0.0168667 0.00177524 0)
(0.0156874 0.0016516 0)
(0.0145843 0.00153592 0)
(0.0135529 0.00142773 0)
(0.0125891 0.00132659 0)
(0.0116889 0.00123209 0)
(0.0108484 0.00114383 0)
(0.010064 0.00106144 0)
(0.00933227 0.000984562 0)
(0.00865003 0.000912858 0)
(0.0080142 0.000846011 0)
(0.00742189 0.000783719 0)
(0.00687035 0.000725698 0)
(0.00635702 0.00067168 0)
(0.00587946 0.00062141 0)
(0.00543537 0.000574649 0)
(0.00502259 0.000531172 0)
(0.0046391 0.000490766 0)
(0.00428296 0.000453231 0)
(0.00395239 0.000418379 0)
(0.00364567 0.000386033 0)
(0.00336123 0.000356026 0)
(0.00309756 0.000328201 0)
(0.00285326 0.000302413 0)
(0.00262701 0.000278522 0)
(0.00241757 0.0002564 0)
(0.00222379 0.000235924 0)
(0.00204459 0.000216982 0)
(0.00187893 0.000199467 0)
(0.00172588 0.000183279 0)
(0.00158454 0.000168325 0)
(0.00145407 0.000154517 0)
(0.00133371 0.000141774 0)
(0.00122272 0.000130019 0)
(0.00112042 0.000119181 0)
(0.00102619 0.000109193 0)
(0.000939425 9.99945e-05 0)
(0.000859579 9.15261e-05 0)
(0.000786137 8.37342e-05 0)
(0.000718622 7.65684e-05 0)
(0.000656587 6.9982e-05 0)
(0.000599618 6.39312e-05 0)
(0.000547329 5.83754e-05 0)
(0.000499362 5.32769e-05 0)
(0.000455382 4.86006e-05 0)
(0.000415081 4.43138e-05 0)
(0.000378172 4.03862e-05 0)
(0.000344386 3.67896e-05 0)
(0.000313477 3.34982e-05 0)
(0.000285215 3.04874e-05 0)
(0.000259389 2.77351e-05 0)
(0.000235798 2.52201e-05 0)
(0.000214267 2.29238e-05 0)
(0.000194616 2.08273e-05 0)
(0.000176704 1.89156e-05 0)
(0.000160366 1.71715e-05 0)
(0.000145497 1.55835e-05 0)
(0.000131935 1.41349e-05 0)
(0.000119616 1.28186e-05 0)
(0.000108368 1.16167e-05 0)
(9.81844e-05 1.0528e-05 0)
(8.88553e-05 9.53113e-06 0)
(8.04528e-05 8.6325e-06 0)
(7.27018e-05 7.80469e-06 0)
(6.57848e-05 7.0647e-06 0)
(5.93177e-05 6.37491e-06 0)
(5.36404e-05 5.76726e-06 0)
(4.82022e-05 5.18859e-06 0)
(4.35662e-05 4.69177e-06 0)
(3.89482e-05 4.20216e-06 0)
(3.51821e-05 3.79693e-06 0)
(3.12383e-05 3.38107e-06 0)
(2.81849e-05 3.04916e-06 0)
(2.48434e-05 2.69903e-06 0)
(2.23643e-05 2.42382e-06 0)
(1.96346e-05 2.13924e-06 0)
(1.76173e-05 1.90765e-06 0)
(1.5565e-05 1.69343e-06 0)
(1.39393e-05 1.50014e-06 0)
(1.25889e-05 1.35687e-06 0)
(1.13288e-05 1.2044e-06 0)
(1.05701e-05 1.12139e-06 0)
(9.63593e-06 1.00772e-06 0)
(9.30854e-06 9.69576e-07 0)
(8.64081e-06 8.89766e-07 0)
(8.55755e-06 8.78058e-07 0)
(8.08953e-06 8.23139e-07 0)
(8.12582e-06 8.25015e-07 0)
(7.80313e-06 7.87825e-07 0)
(7.87987e-06 7.94953e-07 0)
(7.66174e-06 7.69881e-07 0)
(7.74063e-06 7.77953e-07 0)
(7.59982e-06 7.61474e-07 0)
(7.66532e-06 7.68561e-07 0)
(7.58156e-06 7.5858e-07 0)
(7.62858e-06 7.62422e-07 0)
(7.61437e-06 7.60942e-07 0)
(7.64597e-06 7.56775e-07 0)
(7.80414e-06 7.75085e-07 0)
(7.86861e-06 6.05357e-07 0)
(1.25384e-05 1.07898e-06 0)
(0.636547 0.0691203 0)
(0.596312 0.0631147 0)
(0.566023 0.0592621 0)
(0.540232 0.0563076 0)
(0.516984 0.0538153 0)
(0.494911 0.0515293 0)
(0.473389 0.0493053 0)
(0.452639 0.0471575 0)
(0.432746 0.0450986 0)
(0.413588 0.0431163 0)
(0.395102 0.0412044 0)
(0.377311 0.039359 0)
(0.360218 0.037588 0)
(0.343761 0.0358829 0)
(0.327926 0.0342428 0)
(0.312692 0.0326651 0)
(0.298032 0.0311465 0)
(0.283917 0.0296859 0)
(0.270298 0.0282796 0)
(0.257143 0.0269207 0)
(0.244465 0.0256074 0)
(0.232276 0.0243428 0)
(0.220574 0.023128 0)
(0.209339 0.0219616 0)
(0.198557 0.0208416 0)
(0.188218 0.0197668 0)
(0.178314 0.0187362 0)
(0.168836 0.0177491 0)
(0.159773 0.0168045 0)
(0.151114 0.0159015 0)
(0.142846 0.0150388 0)
(0.134957 0.0142152 0)
(0.127434 0.0134293 0)
(0.120264 0.0126798 0)
(0.113436 0.0119656 0)
(0.106939 0.0112855 0)
(0.100762 0.0106384 0)
(0.0948931 0.0100233 0)
(0.0893216 0.00943897 0)
(0.0840356 0.00888426 0)
(0.0790233 0.00835801 0)
(0.0742732 0.00785905 0)
(0.069774 0.00738622 0)
(0.0655148 0.00693838 0)
(0.0614851 0.00651445 0)
(0.057675 0.0061134 0)
(0.0540748 0.00573423 0)
(0.0506748 0.00537596 0)
(0.0474661 0.00503765 0)
(0.0444397 0.00471839 0)
(0.041587 0.00441729 0)
(0.0388996 0.0041335 0)
(0.0363693 0.00386617 0)
(0.0339884 0.00361449 0)
(0.0317492 0.00337768 0)
(0.0296444 0.00315498 0)
(0.027667 0.00294567 0)
(0.0258101 0.00274902 0)
(0.0240674 0.00256439 0)
(0.0224327 0.00239111 0)
(0.0208999 0.00222858 0)
(0.0194635 0.0020762 0)
(0.0181181 0.0019334 0)
(0.0168584 0.00179966 0)
(0.0156796 0.00167444 0)
(0.0145769 0.00155728 0)
(0.0135461 0.00144769 0)
(0.0125827 0.00134524 0)
(0.0116829 0.0012495 0)
(0.0108427 0.00116008 0)
(0.0100587 0.0010766 0)
(0.00932728 0.000998694 0)
(0.00864535 0.000926028 0)
(0.0080098 0.000858279 0)
(0.00741775 0.000795141 0)
(0.00686647 0.000736327 0)
(0.00635337 0.000681566 0)
(0.00587602 0.000630601 0)
(0.00543214 0.00058319 0)
(0.00501955 0.000539104 0)
(0.00463623 0.00049813 0)
(0.00428026 0.000460064 0)
(0.00394983 0.000424715 0)
(0.00364326 0.000391906 0)
(0.00335895 0.000361467 0)
(0.00309541 0.000333239 0)
(0.00285122 0.000307075 0)
(0.00262508 0.000282834 0)
(0.00241574 0.000260385 0)
(0.00222205 0.000239606 0)
(0.00204293 0.000220382 0)
(0.00187735 0.000202604 0)
(0.00172437 0.000186172 0)
(0.0015831 0.00017099 0)
(0.0014527 0.000156972 0)
(0.0013324 0.000144033 0)
(0.00122146 0.000132096 0)
(0.00111922 0.00012109 0)
(0.00102503 0.000110947 0)
(0.000938306 0.000101603 0)
(0.000858499 9.3001e-05 0)
(0.000785094 8.50852e-05 0)
(0.000717613 7.78049e-05 0)
(0.000655609 7.11125e-05 0)
(0.000598669 6.49638e-05 0)
(0.000546406 5.93176e-05 0)
(0.000498463 5.41357e-05 0)
(0.000454507 4.93823e-05 0)
(0.000414226 4.50245e-05 0)
(0.000377336 4.10315e-05 0)
(0.000343567 3.73747e-05 0)
(0.000312675 3.40278e-05 0)
(0.000284428 3.09659e-05 0)
(0.000258615 2.81667e-05 0)
(0.000235037 2.56086e-05 0)
(0.000213517 2.32727e-05 0)
(0.000193877 2.114e-05 0)
(0.000175974 1.9195e-05 0)
(0.000159645 1.74204e-05 0)
(0.000144784 1.58045e-05 0)
(0.000131229 1.43303e-05 0)
(0.000118917 1.29907e-05 0)
(0.000107676 1.17676e-05 0)
(9.74972e-05 1.06594e-05 0)
(8.81732e-05 9.64496e-06 0)
(7.97753e-05 8.73023e-06 0)
(7.20285e-05 7.88789e-06 0)
(6.51153e-05 7.13459e-06 0)
(5.86517e-05 6.43293e-06 0)
(5.29775e-05 5.81429e-06 0)
(4.75422e-05 5.22603e-06 0)
(4.29087e-05 4.72007e-06 0)
(3.82931e-05 4.2228e-06 0)
(3.45292e-05 3.80972e-06 0)
(3.05873e-05 3.38794e-06 0)
(2.75357e-05 3.04873e-06 0)
(2.41958e-05 2.6942e-06 0)
(2.17184e-05 2.41149e-06 0)
(1.899e-05 2.12372e-06 0)
(1.69744e-05 1.8839e-06 0)
(1.49232e-05 1.6672e-06 0)
(1.3299e-05 1.46547e-06 0)
(1.19498e-05 1.31994e-06 0)
(1.0691e-05 1.16022e-06 0)
(9.93323e-06 1.07524e-06 0)
(8.99998e-06 9.56063e-07 0)
(8.6733e-06 9.16423e-07 0)
(8.00614e-06 8.33111e-07 0)
(7.92337e-06 8.20454e-07 0)
(7.45566e-06 7.63398e-07 0)
(7.49227e-06 7.64764e-07 0)
(7.16973e-06 7.26321e-07 0)
(7.24666e-06 7.33258e-07 0)
(7.0286e-06 7.07396e-07 0)
(7.10761e-06 7.15467e-07 0)
(6.96682e-06 6.98441e-07 0)
(7.0324e-06 7.05613e-07 0)
(6.94864e-06 6.95303e-07 0)
(6.99577e-06 6.98847e-07 0)
(6.98155e-06 6.97359e-07 0)
(7.01347e-06 6.90968e-07 0)
(7.17031e-06 7.09703e-07 0)
(7.2396e-06 4.92677e-07 0)
(1.16699e-05 9.4432e-07 0)
(0.63517 0.0699881 0)
(0.595643 0.0637623 0)
(0.565617 0.0597979 0)
(0.53991 0.0567795 0)
(0.516698 0.0542561 0)
(0.494646 0.0519552 0)
(0.47314 0.0497169 0)
(0.452408 0.0475546 0)
(0.43253 0.0454818 0)
(0.413388 0.0434862 0)
(0.394915 0.0415618 0)
(0.377137 0.0397029 0)
(0.360056 0.0379194 0)
(0.34361 0.0362022 0)
(0.327785 0.0345505 0)
(0.312561 0.0329617 0)
(0.297909 0.0314322 0)
(0.283801 0.0299615 0)
(0.270189 0.0285461 0)
(0.257041 0.0271782 0)
(0.244369 0.0258554 0)
(0.232186 0.0245812 0)
(0.220489 0.0233571 0)
(0.209259 0.0221817 0)
(0.198482 0.0210529 0)
(0.188148 0.0199694 0)
(0.178248 0.0189303 0)
(0.168773 0.0179349 0)
(0.159714 0.0169822 0)
(0.151058 0.0160712 0)
(0.142794 0.0152009 0)
(0.134908 0.0143699 0)
(0.127387 0.0135768 0)
(0.12022 0.0128204 0)
(0.113394 0.0120994 0)
(0.1069 0.0114128 0)
(0.100725 0.0107595 0)
(0.0948586 0.0101383 0)
(0.0892891 0.00954815 0)
(0.0840049 0.00898783 0)
(0.0789944 0.0084562 0)
(0.074246 0.0079521 0)
(0.0697484 0.00747434 0)
(0.0654906 0.00702179 0)
(0.0614624 0.00659335 0)
(0.0576536 0.00618799 0)
(0.0540546 0.00580469 0)
(0.0506558 0.00544248 0)
(0.0474482 0.00510042 0)
(0.0444229 0.00477757 0)
(0.0415711 0.00447307 0)
(0.0388847 0.00418603 0)
(0.0363553 0.00391561 0)
(0.0339752 0.00366101 0)
(0.0317368 0.00342141 0)
(0.0296327 0.00319608 0)
(0.027656 0.00298426 0)
(0.0257998 0.00278526 0)
(0.0240577 0.00259838 0)
(0.0224236 0.00242299 0)
(0.0208914 0.00225846 0)
(0.0194555 0.00210419 0)
(0.0181105 0.00195961 0)
(0.0168513 0.00182418 0)
(0.0156729 0.00169739 0)
(0.0145706 0.00157873 0)
(0.0135401 0.00146774 0)
(0.0125771 0.00136396 0)
(0.0116776 0.00126698 0)
(0.0108378 0.0011764 0)
(0.010054 0.00109182 0)
(0.00932289 0.00101288 0)
(0.00864122 0.000939248 0)
(0.00800591 0.000870592 0)
(0.00741408 0.000806604 0)
(0.006863 0.000746994 0)
(0.0063501 0.000691486 0)
(0.00587293 0.000639823 0)
(0.00542922 0.000591758 0)
(0.00501679 0.000547062 0)
(0.00463361 0.000505516 0)
(0.00427778 0.000466916 0)
(0.00394748 0.000431069 0)
(0.00364103 0.000397794 0)
(0.00335683 0.000366921 0)
(0.00309339 0.000338288 0)
(0.0028493 0.000311746 0)
(0.00262325 0.000287154 0)
(0.00241399 0.000264378 0)
(0.00222038 0.000243294 0)
(0.00204133 0.000223786 0)
(0.00187582 0.000205744 0)
(0.00172291 0.000189066 0)
(0.00158169 0.000173657 0)
(0.00145134 0.000159427 0)
(0.00133109 0.000146291 0)
(0.0012202 0.000134173 0)
(0.001118 0.000122998 0)
(0.00102385 0.000112698 0)
(0.000937164 0.000103209 0)
(0.000857391 9.44723e-05 0)
(0.000784017 8.64322e-05 0)
(0.000716564 7.90369e-05 0)
(0.000654587 7.22381e-05 0)
(0.000597672 6.59912e-05 0)
(0.000545432 6.02542e-05 0)
(0.00049751 5.49885e-05 0)
(0.000453572 5.01579e-05 0)
(0.00041331 4.57288e-05 0)
(0.000376436 4.16701e-05 0)
(0.000342682 3.79528e-05 0)
(0.000311804 3.45502e-05 0)
(0.000283569 3.14371e-05 0)
(0.000257769 2.85909e-05 0)
(0.000234201 2.59895e-05 0)
(0.000212691 2.36139e-05 0)
(0.00019306 2.14447e-05 0)
(0.000175166 1.94663e-05 0)
(0.000158844 1.76611e-05 0)
(0.00014399 1.60172e-05 0)
(0.000130441 1.45175e-05 0)
(0.000118135 1.31544e-05 0)
(0.000106899 1.191e-05 0)
(9.67255e-05 1.07824e-05 0)
(8.74059e-05 9.75019e-06 0)
(7.9012e-05 8.81931e-06 0)
(7.12688e-05 7.96238e-06 0)
(6.4359e-05 7.19574e-06 0)
(5.78984e-05 6.48216e-06 0)
(5.22269e-05 5.85251e-06 0)
(4.67941e-05 5.25461e-06 0)
(4.21629e-05 4.7395e-06 0)
(3.75493e-05 4.23454e-06 0)
(3.37872e-05 3.81358e-06 0)
(2.9847e-05 3.38586e-06 0)
(2.6797e-05 3.03935e-06 0)
(2.34584e-05 2.68039e-06 0)
(2.09826e-05 2.39017e-06 0)
(1.82553e-05 2.09917e-06 0)
(1.62412e-05 1.85115e-06 0)
(1.4191e-05 1.63194e-06 0)
(1.25683e-05 1.42178e-06 0)
(1.12201e-05 1.27396e-06 0)
(9.96254e-06 1.10704e-06 0)
(9.20564e-06 1.02004e-06 0)
(8.27327e-06 8.95411e-07 0)
(7.94728e-06 8.54241e-07 0)
(7.28064e-06 7.67479e-07 0)
(7.19835e-06 7.53838e-07 0)
(6.73091e-06 6.94693e-07 0)
(6.76783e-06 6.95514e-07 0)
(6.44541e-06 6.55857e-07 0)
(6.52252e-06 6.62573e-07 0)
(6.3045e-06 6.35948e-07 0)
(6.38363e-06 6.4399e-07 0)
(6.24284e-06 6.26439e-07 0)
(6.3085e-06 6.33674e-07 0)
(6.22473e-06 6.23045e-07 0)
(6.27197e-06 6.26288e-07 0)
(6.25772e-06 6.24815e-07 0)
(6.28995e-06 6.16196e-07 0)
(6.44513e-06 6.35261e-07 0)
(6.51798e-06 3.73664e-07 0)
(1.06212e-05 7.94575e-07 0)
(0.633269 0.0707066 0)
(0.594952 0.0643753 0)
(0.565243 0.0603294 0)
(0.539622 0.0572529 0)
(0.516446 0.0546994 0)
(0.494415 0.0523837 0)
(0.472925 0.0501312 0)
(0.452208 0.0479543 0)
(0.432346 0.0458676 0)
(0.413217 0.0438587 0)
(0.394758 0.0419215 0)
(0.376991 0.0400491 0)
(0.35992 0.038253 0)
(0.343484 0.0365236 0)
(0.327668 0.0348603 0)
(0.312451 0.0332602 0)
(0.297806 0.0317198 0)
(0.283705 0.0302389 0)
(0.270099 0.0288142 0)
(0.256956 0.0274372 0)
(0.244289 0.0261048 0)
(0.232111 0.0248209 0)
(0.220418 0.0235874 0)
(0.209192 0.0224029 0)
(0.198419 0.0212652 0)
(0.188088 0.020173 0)
(0.178191 0.0191253 0)
(0.16872 0.0181215 0)
(0.159664 0.0171606 0)
(0.151011 0.0162417 0)
(0.142749 0.0153637 0)
(0.134866 0.0145252 0)
(0.127347 0.0137249 0)
(0.120182 0.0129615 0)
(0.113359 0.0122338 0)
(0.106866 0.0115407 0)
(0.100693 0.010881 0)
(0.0948284 0.0102537 0)
(0.0892606 0.00965769 0)
(0.083978 0.00909174 0)
(0.078969 0.00855471 0)
(0.074222 0.00804544 0)
(0.0697257 0.00756273 0)
(0.0654692 0.00710545 0)
(0.0614422 0.00667248 0)
(0.0576345 0.00626278 0)
(0.0540366 0.00587534 0)
(0.0506388 0.00550919 0)
(0.0474322 0.00516335 0)
(0.0444077 0.00483691 0)
(0.0415569 0.00452898 0)
(0.0388712 0.00423869 0)
(0.0363427 0.00396518 0)
(0.0339633 0.00370763 0)
(0.0317256 0.00346525 0)
(0.0296221 0.00323727 0)
(0.027646 0.00302295 0)
(0.0257904 0.00282157 0)
(0.0240489 0.00263245 0)
(0.0224152 0.00245494 0)
(0.0208835 0.0022884 0)
(0.0194481 0.00213224 0)
(0.0181035 0.00198587 0)
(0.0168447 0.00184876 0)
(0.0156667 0.00172038 0)
(0.0145648 0.00160022 0)
(0.0135346 0.00148782 0)
(0.0125719 0.00138272 0)
(0.0116727 0.0012845 0)
(0.0108331 0.00119274 0)
(0.0100496 0.00110706 0)
(0.00931878 0.00102709 0)
(0.00863733 0.000952491 0)
(0.00800224 0.000882926 0)
(0.00741061 0.000818086 0)
(0.00685972 0.000757678 0)
(0.00634699 0.000701423 0)
(0.00586999 0.000649059 0)
(0.00542642 0.00060034 0)
(0.00501414 0.000555031 0)
(0.0046311 0.000512912 0)
(0.00427539 0.000473778 0)
(0.00394521 0.000437431 0)
(0.00363887 0.00040369 0)
(0.00335477 0.000372382 0)
(0.00309142 0.000343343 0)
(0.00284742 0.000316423 0)
(0.00262145 0.000291478 0)
(0.00241227 0.000268374 0)
(0.00221873 0.000246985 0)
(0.00203975 0.000227192 0)
(0.0018743 0.000208886 0)
(0.00172144 0.000191963 0)
(0.00158028 0.000176326 0)
(0.00144998 0.000161883 0)
(0.00132977 0.000148551 0)
(0.00121892 0.00013625 0)
(0.00111676 0.000124905 0)
(0.00102265 0.000114448 0)
(0.000935997 0.000104814 0)
(0.000856255 9.59429e-05 0)
(0.00078291 8.77782e-05 0)
(0.000715484 8.02676e-05 0)
(0.000653532 7.33623e-05 0)
(0.000596639 6.70168e-05 0)
(0.00054442 6.1189e-05 0)
(0.000496517 5.58393e-05 0)
(0.000452598 5.09312e-05 0)
(0.000412352 4.64307e-05 0)
(0.000375493 4.23062e-05 0)
(0.000341754 3.85283e-05 0)
(0.000310888 3.50698e-05 0)
(0.000282665 3.19055e-05 0)
(0.000256876 2.9012e-05 0)
(0.000233318 2.63673e-05 0)
(0.000211817 2.39518e-05 0)
(0.000192194 2.17462e-05 0)
(0.000174308 1.97343e-05 0)
(0.000157994 1.78984e-05 0)
(0.000143145 1.62264e-05 0)
(0.000129603 1.4701e-05 0)
(0.000117303 1.33144e-05 0)
(0.000106071 1.20486e-05 0)
(9.5902e-05 1.09014e-05 0)
(8.65866e-05 9.85148e-06 0)
(7.81964e-05 8.9044e-06 0)
(7.04567e-05 8.03283e-06 0)
(6.35499e-05 7.25278e-06 0)
(5.70922e-05 6.52723e-06 0)
(5.14232e-05 5.88652e-06 0)
(4.59928e-05 5.27892e-06 0)
(4.13636e-05 4.75461e-06 0)
(3.67519e-05 4.24191e-06 0)
(3.29916e-05 3.81304e-06 0)
(2.90529e-05 3.37933e-06 0)
(2.60044e-05 3.02548e-06 0)
(2.26671e-05 2.66203e-06 0)
(2.01927e-05 2.36428e-06 0)
(1.74665e-05 2.07e-06 0)
(1.54538e-05 1.81373e-06 0)
(1.34046e-05 1.59195e-06 0)
(1.17832e-05 1.37331e-06 0)
(1.04361e-05 1.22314e-06 0)
(9.1797e-06 1.04896e-06 0)