/*--------------------------------*- C++ -*----------------------------------*\
| =========                 |                                                 |
| \\      /  F ield         | OpenFOAM: The Open Source CFD Toolbox           |
|  \\    /   O peration     | Version:  v1912                                 |
|   \\  /    A nd           | Website:  www.openfoam.com                      |
|    \\/     M anipulation  |                                                 |
\*---------------------------------------------------------------------------*/
FoamFile
{
    version     2.0;
    format      ascii;
    class       volScalarField;
    location    "100";
    object      nut;
}
// * * * * * * * * * * * * * * * * * * * * * * * * * * * * * * * * * * * * * //

dimensions      [0 2 -1 0 0 0 0];


internalField   nonuniform List<scalar> 
14268
(
4.52976e-05
7.07479e-05
0.000155109
0.000359279
0.00078743
0.00157955
0.00284361
0.00430074
0.0054137
0.00599114
0.00626127
0.00631457
0.00615769
0.00576673
0.00520041
0.00458004
0.00397576
0.00335335
0.00265277
0.00195563
0.00137306
0.00102884
0.000941738
0.00109262
0.00159896
0.00234648
0.00322827
0.00413849
0.00480378
0.00524967
0.00553309
0.00567645
0.00570217
0.00565532
0.00556077
0.00544269
0.00529849
0.00513055
0.00499422
0.00489566
0.00482759
0.00477699
0.00474099
0.00472441
0.00473575
0.00477727
0.00484522
0.00493406
0.00503357
0.00514441
0.00527767
0.00547118
0.00572446
0.00589936
0.00596811
0.00594516
0.00586094
0.00567769
0.00554756
0.00559516
0.00629834
0.00768371
0.00844958
0.00865793
0.0086556
0.00859111
0.00879646
0.00923039
0.00931721
0.00870182
0.00703827
0.00609019
0.0059896
0.00640401
0.00649499
0.00625441
0.00560777
0.00508045
0.00461927
0.00416867
0.00379706
0.00354607
0.0033936
0.00330169
0.00323697
0.00317716
0.00309784
0.0029963
0.00291463
0.00285073
0.00280096
0.00278813
0.00284848
0.00291436
0.00289629
0.00281033
0.00261744
0.00247376
0.00268211
0.00391356
0.00549822
0.00626833
0.00639838
0.00601485
0.00549077
0.0052024
0.00572288
0.00727095
0.00756755
0.00650563
0.00510983
0.00421174
0.00326974
0.00242537
0.00204908
0.00204695
0.00206081
0.0019416
0.00163051
0.00143039
0.00134551
0.00154062
0.00184765
0.00195172
0.00205853
0.00207074
0.00185811
0.00177575
0.00165094
0.00138592
0.0010165
0.00075713
0.000574171
0.000430598
2.65217e-05
0.000120773
0.000572506
0.00199036
0.00470392
0.00868995
0.014748
0.0236785
0.0321685
0.0377386
0.0411495
0.0424637
0.0411029
0.0371885
0.0326147
0.0288215
0.0270376
0.0274551
0.0262367
0.0232281
0.0183875
0.0134378
0.0111469
0.0108214
0.0131736
0.0179371
0.0236884
0.0296029
0.0334456
0.0360676
0.0378561
0.0386944
0.0384468
0.0371649
0.0354639
0.0339934
0.0327582
0.0318026
0.031381
0.031341
0.0314542
0.0317414
0.0321468
0.0326555
0.0334888
0.0345829
0.0357848
0.0370034
0.0380655
0.0390956
0.0403625
0.0424839
0.0446698
0.0459971
0.0465253
0.0463828
0.0459706
0.0452672
0.0442899
0.0447203
0.0506631
0.0642045
0.0714397
0.0725629
0.0710733
0.0655916
0.0660735
0.0732093
0.0789275
0.0764633
0.0598647
0.0491352
0.0495089
0.0549374
0.0571137
0.0551435
0.0482321
0.043096
0.0384466
0.0338637
0.0303618
0.0282277
0.0271277
0.026597
0.0263024
0.0259977
0.025386
0.0246947
0.0242133
0.0238682
0.0236477
0.0238306
0.0248082
0.0255087
0.0250628
0.02404
0.0220417
0.018901
0.0178048
0.0271546
0.04294
0.051882
0.0537132
0.0491847
0.0458727
0.044657
0.0529888
0.0705687
0.0715386
0.0562592
0.0439524
0.0366128
0.0283332
0.0207684
0.017885
0.0186988
0.0185912
0.017344
0.0144715
0.013059
0.0124665
0.0145328
0.0169901
0.0179931
0.0198031
0.0198941
0.0175241
0.0165829
0.0153513
0.0129811
0.0107805
0.00827166
0.0057094
0.00424022
4.90298e-05
0.000153691
0.000804405
0.00361659
0.0110774
0.0225206
0.035892
0.0531235
0.0673166
0.0764423
0.081835
0.0837741
0.0817514
0.0758521
0.068769
0.0630285
0.0605767
0.0626178
0.0610043
0.0534358
0.0427339
0.0327145
0.0274944
0.0268537
0.0315229
0.0418227
0.0530222
0.0636683
0.0705163
0.0753075
0.0785924
0.0801887
0.07988
0.0778532
0.0750922
0.0725399
0.0702758
0.068666
0.0679628
0.0679473
0.0684562
0.0693563
0.070447
0.0716364
0.073172
0.0749152
0.076688
0.0784953
0.0802438
0.082231
0.0848378
0.0888498
0.0930792
0.095748
0.0968962
0.096817
0.0962635
0.095346
0.0944022
0.096145
0.106729
0.138669
0.167068
0.175905
0.170222
0.145475
0.136381
0.144373
0.164033
0.164933
0.140276
0.119409
0.117163
0.124061
0.129365
0.125315
0.108047
0.094586
0.0827675
0.0723659
0.0648875
0.0604839
0.0582289
0.0571768
0.0565819
0.0559542
0.0548091
0.0536098
0.0527394
0.0520963
0.0517616
0.0524266
0.0549238
0.0569894
0.0561748
0.0536438
0.0496393
0.0433434
0.0412385
0.0594879
0.0920285
0.111034
0.115774
0.107295
0.103145
0.103879
0.126268
0.167533
0.167699
0.126661
0.0970452
0.0806194
0.0628754
0.0489884
0.0424123
0.042913
0.042934
0.0398917
0.0336482
0.0306678
0.0295142
0.0343859
0.0398247
0.042442
0.0485229
0.0489633
0.042292
0.0397843
0.0371677
0.0317572
0.0272953
0.0209836
0.0141264
0.0103969
0.00034916
0.000354608
0.00110844
0.00498064
0.0166873
0.0358537
0.0559959
0.0784572
0.0954004
0.106221
0.112748
0.115373
0.113823
0.108065
0.10039
0.0935796
0.0898396
0.0899439
0.0864432
0.075868
0.061821
0.0492667
0.0425619
0.0413407
0.0455288
0.0580863
0.0749881
0.091356
0.102173
0.109385
0.113788
0.115705
0.115165
0.112546
0.109035
0.105881
0.103544
0.102174
0.102034
0.102808
0.104073
0.105763
0.107587
0.109382
0.111403
0.113496
0.115586
0.117784
0.120127
0.123011
0.126889
0.132706
0.13895
0.14287
0.144497
0.144511
0.144089
0.143498
0.144054
0.148782
0.164881
0.21111
0.25431
0.266052
0.252438
0.212288
0.190359
0.199315
0.238393
0.249054
0.231793
0.199473
0.189267
0.196035
0.203879
0.197444
0.16869
0.144551
0.124282
0.108202
0.0974325
0.0912937
0.0881989
0.0867733
0.0858638
0.0847413
0.0832204
0.081799
0.080659
0.0797374
0.0793945
0.0807215
0.0848311
0.0882674
0.087318
0.0837231
0.0779905
0.069682
0.0677625
0.0954387
0.143559
0.169503
0.173657
0.161683
0.161983
0.17018
0.210011
0.270664
0.264315
0.195742
0.151694
0.127977
0.102491
0.0809019
0.0698206
0.0689304
0.0684799
0.0633288
0.0540617
0.0496566
0.0485424
0.0574998
0.0654809
0.0692658
0.0805757
0.0812581
0.0695965
0.0650515
0.0609692
0.0523476
0.046255
0.0357804
0.0235672
0.0173426
0.00224475
0.00110443
0.00175894
0.00638128
0.021049
0.0452689
0.0699701
0.0953481
0.113288
0.124895
0.132279
0.135944
0.13595
0.131923
0.125265
0.118312
0.113039
0.109848
0.103387
0.090493
0.0746904
0.0612886
0.0541517
0.0525275
0.0558263
0.0684823
0.088449
0.109876
0.124862
0.134985
0.141197
0.143966
0.143786
0.141408
0.138048
0.134929
0.132631
0.131582
0.132101
0.133765
0.136038
0.138636
0.14115
0.143442
0.145754
0.147998
0.150203
0.152597
0.155336
0.158863
0.163686
0.170786
0.178374
0.183273
0.185705
0.186685
0.187279
0.188168
0.190959
0.19903
0.22068
0.271536
0.306456
0.306981
0.276507
0.227795
0.216429
0.238016
0.296875
0.324684
0.328328
0.289465
0.273448
0.283823
0.292721
0.271268
0.227956
0.191469
0.161792
0.140402
0.127279
0.120027
0.116351
0.114612
0.113405
0.111862
0.110033
0.108433
0.107013
0.105611
0.105149
0.107118
0.112858
0.117863
0.117374
0.113482
0.106823
0.0974035
0.0967877
0.133152
0.193859
0.222375
0.221933
0.207953
0.225623
0.244587
0.303111
0.381418
0.363373
0.265442
0.203454
0.172943
0.142128
0.114456
0.0990284
0.0963272
0.0949496
0.0877211
0.0758809
0.070091
0.0693601
0.0825061
0.0934764
0.0989146
0.116692
0.118303
0.100473
0.0938044
0.0884669
0.0764403
0.06788
0.0522544
0.0340377
0.0248764
0.00843544
0.0032196
0.00317289
0.00798426
0.0243563
0.051229
0.0774723
0.1037
0.121847
0.134031
0.142379
0.147228
0.148977
0.146695
0.141287
0.134816
0.128739
0.122979
0.113938
0.100259
0.0845634
0.0712684
0.0634829
0.0613635
0.0635332
0.074651
0.0956515
0.120173
0.138796
0.151474
0.159018
0.162152
0.162047
0.159811
0.156834
0.154312
0.153049
0.153521
0.155606
0.1588
0.162346
0.165825
0.168921
0.171591
0.174047
0.176314
0.178528
0.180946
0.183827
0.18764
0.192972
0.200816
0.209453
0.215284
0.218614
0.220648
0.222375
0.225155
0.23064
0.241965
0.266781
0.320554
0.360731
0.357106
0.30958
0.238217
0.219097
0.25043
0.334154
0.392407
0.426943
0.407446
0.410098
0.437572
0.418822
0.348862
0.282838
0.232147
0.193043
0.166682
0.151968
0.144319
0.140342
0.138413
0.136952
0.135111
0.133109
0.131469
0.129784
0.127974
0.127338
0.129819
0.136942
0.143499
0.144117
0.140944
0.134354
0.125115
0.126534
0.171241
0.242532
0.269328
0.256108
0.241405
0.286496
0.321571
0.400128
0.487573
0.446975
0.324414
0.249748
0.214539
0.181903
0.149299
0.128542
0.122984
0.119928
0.110738
0.0969745
0.0900993
0.090433
0.108002
0.121178
0.127942
0.153002
0.155578
0.131543
0.122614
0.116094
0.100878
0.0902873
0.0694582
0.0448921
0.0327185
0.0202647
0.00809346
0.00572476
0.0100561
0.0268371
0.0544
0.0809866
0.106295
0.123712
0.136603
0.14633
0.152963
0.156208
0.155317
0.150989
0.145238
0.138986
0.131899
0.121932
0.108524
0.0932519
0.0802421
0.0725907
0.0701679
0.0710727
0.079611
0.0994153
0.1256
0.146418
0.160941
0.169632
0.173426
0.173725
0.172187
0.170096
0.168421
0.16819
0.170025
0.17385
0.1787
0.183364
0.187507
0.191022
0.193886
0.19631
0.198436
0.20049
0.202762
0.205569
0.209393
0.214847
0.222961
0.232301
0.239002
0.243583
0.247103
0.250446
0.255006
0.262544
0.276514
0.303176
0.35923
0.434849
0.474652
0.452502
0.316985
0.226321
0.247206
0.38687
0.486964
0.546999
0.577189
0.61969
0.659462
0.596499
0.433953
0.333973
0.270745
0.224426
0.191616
0.173787
0.165529
0.161435
0.159408
0.157738
0.15566
0.153528
0.151737
0.149445
0.146921
0.146116
0.149018
0.157483
0.165957
0.168258
0.166512
0.160914
0.152841
0.157286
0.210097
0.290713
0.312492
0.27596
0.268903
0.350739
0.399393
0.497163
0.588251
0.520018
0.372878
0.290235
0.252432
0.219666
0.184475
0.158639
0.149634
0.144584
0.133599
0.118391
0.110663
0.112671
0.1347
0.149938
0.158358
0.192112
0.196195
0.165461
0.154363
0.146822
0.128125
0.114623
0.0876308
0.0562223
0.0408116
0.0355022
0.0165562
0.00977825
0.0128569
0.0285023
0.054871
0.0803552
0.1047
0.121941
0.135541
0.146538
0.154618
0.15875
0.158458
0.154635
0.149538
0.143986
0.137012
0.127715
0.115748
0.101613
0.0890468
0.0811312
0.0780026
0.0783873
0.0851635
0.102136
0.127739
0.14956
0.164657
0.173502
0.176913
0.177019
0.175778
0.174476
0.174044
0.175482
0.179488
0.185681
0.192175
0.19777
0.202429
0.206207
0.209135
0.211434
0.213348
0.215166
0.217153
0.219675
0.22321
0.228386
0.236517
0.246325
0.253757
0.259337
0.263908
0.268874
0.274857
0.284022
0.300019
0.3293
0.386264
0.492361
0.606935
0.641029
0.447395
0.264535
0.318043
0.573771
0.666296
0.689645
0.750038
0.832256
0.832482
0.696936
0.491996
0.376557
0.30795
0.257207
0.218324
0.193264
0.181873
0.177645
0.175758
0.173994
0.171786
0.169716
0.167943
0.165054
0.161922
0.1608
0.163976
0.173592
0.184148
0.188548
0.18874
0.184815
0.179406
0.187771
0.247732
0.33788
0.353311
0.273224
0.293467
0.414569
0.472729
0.584886
0.677413
0.579898
0.40489
0.321888
0.285781
0.256142
0.219575
0.188234
0.174811
0.167929
0.155768
0.139222
0.130504
0.134614
0.161064
0.177633
0.187603
0.230858
0.236406
0.199122
0.185791
0.177332
0.155427
0.139294
0.106086
0.0677812
0.0490461
0.0504659
0.0276582
0.0155027
0.0165583
0.0295723
0.0531762
0.076589
0.100406
0.117594
0.132544
0.145102
0.154024
0.158214
0.15762
0.153803
0.149439
0.14474
0.139355
0.131728
0.121919
0.109635
0.0978843
0.0896541
0.0861226
0.0860144
0.0914239
0.105763
0.129204
0.150293
0.164837
0.172748
0.175078
0.174481
0.173202
0.172412
0.173252
0.176784
0.183354
0.192047
0.199893
0.206202
0.211131
0.214935
0.217746
0.21979
0.221374
0.222849
0.224465
0.226597
0.229684
0.23433
0.24224
0.252191
0.260298
0.266959
0.272761
0.278569
0.285484
0.295644
0.313103
0.344776
0.404298
0.516804
0.645978
0.690311
0.503419
0.354139
0.540082
0.903369
0.865699
0.79449
0.843322
0.939082
0.892838
0.695118
0.514045
0.402111
0.331889
0.27933
0.238646
0.209575
0.195086
0.19051
0.188915
0.18709
0.184737
0.182607
0.180397
0.176884
0.173318
0.171932
0.175249
0.18605
0.199064
0.205942
0.208615
0.207385
0.205221
0.218482
0.284336
0.38777
0.404595
0.28675
0.38186
0.518274
0.556367
0.672009
0.784871
0.720681
0.462482
0.348815
0.314487
0.290415
0.25425
0.217814
0.199926
0.192244
0.179607
0.161768
0.151096
0.157489
0.18833
0.205499
0.21763
0.271713
0.279032
0.235169
0.219513
0.210159
0.184805
0.165239
0.12506
0.0796396
0.0574674
0.0635846
0.0397493
0.0225286
0.0209821
0.0303413
0.0500384
0.0714441
0.0941534
0.111494
0.128066
0.142395
0.151748
0.155341
0.153575
0.148969
0.145634
0.142778
0.139229
0.134202
0.126994
0.117046
0.106154
0.0979676
0.0943049
0.0938595
0.0979202
0.109601
0.129902
0.148842
0.161876
0.168165
0.168642
0.166767
0.164304
0.16332
0.165193
0.171275
0.181393
0.192167
0.200962
0.207583
0.212453
0.216087
0.218697
0.220498
0.221793
0.222944
0.22418
0.225862
0.228364
0.232361
0.239796
0.249686
0.258249
0.265605
0.272338
0.278529
0.285542
0.295677
0.313752
0.347717
0.409662
0.51793
0.633275
0.668474
0.592051
0.633926
0.860845
1.03645
0.918817
0.820044
0.854799
0.926828
0.869746
0.677068
0.515916
0.408034
0.336103
0.282677
0.242296
0.215691
0.202708
0.198746
0.197402
0.195664
0.193318
0.191361
0.188831
0.184843
0.180898
0.179158
0.182528
0.194648
0.210163
0.219659
0.224941
0.226952
0.229911
0.249337
0.318785
0.442373
0.494328
0.458695
0.64715
0.746824
0.669661
0.768312
0.975677
1.06961
0.612336
0.37449
0.338799
0.321513
0.287814
0.246475
0.224516
0.216794
0.20321
0.184693
0.172432
0.180152
0.214974
0.231791
0.246136
0.311966
0.32101
0.27082
0.252812
0.24268
0.214129
0.191346
0.144223
0.0916024
0.0659038
0.0740262
0.0509709
0.0301813
0.0254565
0.0312362
0.0465793
0.0655709
0.0866259
0.104802
0.12314
0.138956
0.14824
0.151105
0.147203
0.140227
0.137345
0.137282
0.136743
0.134641
0.130286
0.122871
0.113299
0.105497
0.101741
0.10101
0.103923
0.11311
0.12975
0.145803
0.156379
0.1602
0.158756
0.154732
0.149141
0.14725
0.149934
0.159751
0.17408
0.186953
0.196688
0.203446
0.208033
0.211248
0.213439
0.214753
0.215528
0.21624
0.217047
0.218258
0.220132
0.223383
0.230141
0.239481
0.248532
0.256393
0.263344
0.269583
0.275969
0.28498
0.302573
0.338547
0.403794
0.506491
0.632021
0.745367
0.91028
1.1168
1.18726
0.991942
0.873775
0.801636
0.824651
0.871425
0.822316
0.653455
0.508138
0.404724
0.331669
0.276349
0.236327
0.213028
0.204323
0.202759
0.202208
0.200786
0.19839
0.196339
0.193573
0.189321
0.185161
0.183244
0.186792
0.200269
0.21829
0.230634
0.238615
0.244067
0.253371
0.280463
0.354876
0.50484
0.648036
0.825804
1.11009
1.17306
0.898358
0.941985
1.35954
1.50848
0.93772
0.451341
0.360877
0.349361
0.32041
0.274548
0.24852
0.23817
0.224296
0.206926
0.195041
0.204044
0.242133
0.257112
0.274904
0.35367
0.364431
0.308203
0.287659
0.276684
0.24479
0.218117
0.163687
0.103905
0.0745925
0.0821754
0.0605437
0.0370142
0.0296713
0.0323709
0.0431646
0.0591131
0.0791007
0.0985435
0.118658
0.134842
0.143469
0.145986
0.139617
0.127515
0.123128
0.127265
0.131625
0.132411
0.131152
0.126515
0.118513
0.111301
0.107543
0.106533
0.108241
0.114873
0.127626
0.140622
0.148066
0.149237
0.146378
0.139664
0.127551
0.121982
0.124848
0.141125
0.160068
0.175457
0.186177
0.192706
0.196619
0.199141
0.200736
0.201482
0.2017
0.201952
0.202343
0.203062
0.204272
0.20686
0.212849
0.221395
0.230321
0.238161
0.24497
0.250446
0.255338
0.262469
0.279735
0.318716
0.387893
0.48966
0.617942
0.824474
1.2733
1.55776
1.47268
0.993556
0.823576
0.76093
0.773533
0.80415
0.766234
0.622369
0.4907
0.392706
0.323619
0.271368
0.232599
0.208267
0.199572
0.200446
0.202136
0.201812
0.19952
0.197523
0.194618
0.190388
0.186218
0.184206
0.18802
0.202625
0.222808
0.237948
0.248549
0.257155
0.272724
0.309191
0.393125
0.572682
0.83965
1.23449
1.55697
1.62061
1.31875
1.29091
1.85863
1.8556
1.32601
0.620254
0.381903
0.373108
0.351629
0.301285
0.269141
0.254175
0.240859
0.227196
0.216824
0.228704
0.268738
0.28047
0.302122
0.394667
0.407062
0.345141
0.322069
0.310348
0.275317
0.244935
0.183246
0.116226
0.083226
0.0886946
0.0696946
0.0434705
0.0331138
0.0334823
0.0401064
0.0535152
0.0728605
0.0937792
0.114631
0.129868
0.137397
0.139929
0.13447
0.113577
0.104902
0.111981
0.122888
0.127913
0.128886
0.126959
0.120905
0.114401
0.110758
0.109494
0.110062
0.114157
0.123558
0.132971
0.137212
0.136064
0.132632
0.126313
0.1117
0.10242
0.102013
0.11371
0.13819
0.157805
0.169461
0.175391
0.178361
0.180023
0.180894
0.18103
0.180666
0.180458
0.180426
0.180714
0.18141
0.183508
0.188813
0.196285
0.204497
0.21202
0.218071
0.222408
0.224908
0.229212
0.247103
0.289967
0.364328
0.466358
0.581632
0.80464
1.39103
1.78809
1.60746
0.996209
0.779037
0.707994
0.711794
0.73353
0.706336
0.585243
0.465706
0.373935
0.312231
0.268799
0.233483
0.207847
0.19517
0.194837
0.198543
0.199189
0.197054
0.195306
0.192502
0.188602
0.184684
0.182536
0.186668
0.201977
0.223995
0.2421
0.255767
0.267433
0.288335
0.333872
0.42977
0.640175
1.03476
1.63505
1.92616
1.9937
1.80118
1.80958
2.29071
2.15252
1.66305
0.860861
0.418699
0.393937
0.381749
0.32652
0.287092
0.267506
0.254007
0.244191
0.237756
0.254631
0.295679
0.30239
0.329323
0.436727
0.450532
0.383361
0.357679
0.344856
0.306605
0.27197
0.202942
0.12897
0.0921472
0.0940707
0.0763435
0.0513215
0.0380521
0.0363415
0.0400501
0.0518658
0.0693574
0.0899885
0.110597
0.123976
0.13012
0.132758
0.131715
0.113954
0.100349
0.0996795
0.109755
0.120052
0.124285
0.123794
0.119291
0.113638
0.110051
0.108418
0.108152
0.110522
0.11663
0.122235
0.123406
0.120631
0.117351
0.114224
0.108174
0.100362
0.0972197
0.0989471
0.11466
0.135879
0.146476
0.151254
0.153133
0.153801
0.153807
0.153206
0.152186
0.151349
0.150814
0.150493
0.150667
0.152527
0.156994
0.163229
0.17077
0.17766
0.182691
0.185035
0.184641
0.186889
0.206567
0.253258
0.333589
0.446962
0.563334
0.747997
1.24787
1.6201
1.47
0.93868
0.71692
0.641004
0.639539
0.658054
0.640715
0.540685
0.432458
0.347162
0.291624
0.257955
0.230658
0.207955
0.193168
0.18862
0.191585
0.192559
0.190872
0.189366
0.18688
0.183633
0.180196
0.178043
0.182543
0.198303
0.221777
0.243099
0.260244
0.275058
0.300149
0.353586
0.462347
0.700112
1.2009
1.99339
2.25203
2.31281
2.17873
2.29856
2.66462
2.31196
1.95676
1.12801
0.498129
0.417929
0.411299
0.349615
0.302734
0.278923
0.264926
0.257351
0.256839
0.27949
0.322072
0.322347
0.355342
0.478766
0.496808
0.42387
0.395115
0.379366
0.337646
0.298949
0.222667
0.14167
0.10097
0.0983297
0.081334
0.0577104
0.04369
0.0405227
0.0423861
0.0522307
0.0680211
0.0878426
0.10727
0.118626
0.123509
0.126233
0.129864
0.124694
0.106616
0.0959615
0.0960844
0.110369
0.118785
0.119139
0.115405
0.110348
0.106852
0.104965
0.104158
0.104918
0.108155
0.110754
0.109638
0.105945
0.103108
0.102633
0.104734
0.103837
0.098884
0.0980105
0.104543
0.114677
0.121477
0.124456
0.125084
0.12463
0.12357
0.121968
0.120001
0.118208
0.116613
0.11537
0.115184
0.117005
0.120394
0.125355
0.131562
0.137126
0.14082
0.141128
0.138344
0.140159
0.161233
0.209925
0.293584
0.426146
0.628366
0.854621
1.13795
1.34371
1.23658
0.849637
0.636068
0.559333
0.554921
0.573153
0.564867
0.485762
0.389021
0.310729
0.259785
0.233522
0.217606
0.203283
0.191028
0.183241
0.180912
0.180416
0.179417
0.178434
0.176677
0.174361
0.171507
0.169492
0.174353
0.19057
0.21519
0.240295
0.26279
0.283565
0.315022
0.377068
0.504849
0.778182
1.40952
2.43448
2.70723
2.59901
2.53233
2.97255
3.02238
2.29894
2.28996
1.64774
0.819622
0.537071
0.475335
0.394653
0.33176
0.299216
0.285397
0.283277
0.299693
0.343783
0.399477
0.382845
0.465854
0.666682
0.724187
0.639114
0.613823
0.595888
0.546479
0.489751
0.389432
0.290593
0.245112
0.101138
0.0848878
0.0623919
0.0484749
0.0443797
0.0451323
0.0532738
0.0676411
0.0866581
0.104561
0.114085
0.117783
0.120469
0.127419
0.136825
0.117092
0.101034
0.0928472
0.102465
0.113465
0.113387
0.110113
0.105611
0.102124
0.0998288
0.0984033
0.097844
0.098883
0.0992623
0.0964992
0.0921766
0.0894479
0.0898776
0.0953233
0.0988082
0.0974358
0.0952449
0.0935828
0.0929553
0.0956905
0.0966831
0.0959457
0.0941688
0.0918708
0.0891803
0.086146
0.0830208
0.0799189
0.0771204
0.076429
0.0778598
0.0800691
0.0832707
0.0875791
0.0909681
0.0925187
0.0912834
0.0884499
0.0913369
0.111828
0.156426
0.2357
0.372415
0.662521
1.03648
1.2514
1.28748
1.16489
0.799634
0.550152
0.460759
0.452258
0.472558
0.473245
0.414825
0.33098
0.262049
0.217196
0.196681
0.18804
0.183441
0.177296
0.169905
0.162929
0.160033
0.159129
0.158541
0.157832
0.156553
0.154376
0.152829
0.158179
0.174508
0.199505
0.227971
0.256014
0.286799
0.327302
0.396817
0.536851
0.835084
1.56752
2.63916
2.77728
2.49669
2.85703
3.36617
2.86127
2.21377
2.33308
2.17393
1.47599
0.841552
0.583508
0.440408
0.354831
0.311375
0.296896
0.299493
0.336087
0.419279
0.520256
0.666735
1.13016
1.53416
1.63632
1.52133
1.4999
1.45932
1.22771
0.948167
0.775192
0.650778
0.556831
0.10323
0.0876244
0.066179
0.0527124
0.0483458
0.0483472
0.0549779
0.0680625
0.0857197
0.101464
0.108971
0.111301
0.113721
0.122738
0.138187
0.128852
0.112229
0.100742
0.103986
0.107362
0.105383
0.102293
0.098346
0.0948032
0.0919595
0.0897485
0.0879971
0.0870803
0.0855482
0.0815198
0.0766366
0.0736324
0.0736964
0.0785895
0.0835918
0.0841563
0.0799344
0.0729554
0.0675792
0.0657342
0.0640338
0.0612257
0.0564811
0.0512503
0.046426
0.0425847
0.0387603
0.0348528
0.0322668
0.0314392
0.0321
0.0333837
0.0352783
0.0376986
0.03943
0.0403274
0.0404796
0.0415174
0.0467128
0.0606396
0.0851255
0.143906
0.255416
0.537845
0.996135
1.32574
1.40868
1.21547
0.730966
0.44556
0.346548
0.334384
0.359681
0.368275
0.328921
0.26099
0.20513
0.169295
0.153981
0.148844
0.148304
0.146935
0.142186
0.136588
0.133562
0.132866
0.13314
0.133804
0.133558
0.132197
0.131524
0.137206
0.153061
0.177566
0.207158
0.239271
0.276496
0.323091
0.398895
0.546585
0.864179
1.62421
2.48937
2.53616
2.49861
2.991
3.23309
2.68365
2.21268
2.2768
2.20137
1.67405
1.01765
0.653363
0.465644
0.359512
0.306459
0.291025
0.299169
0.35572
0.485059
0.728935
1.32767
2.09419
2.32097
2.21688
2.43341
2.60455
2.84001
2.51612
1.99872
1.67197
1.48102
1.29061
0.105381
0.0905095
0.070054
0.05695
0.0521727
0.0517499
0.0572872
0.068948
0.0844609
0.0979281
0.103177
0.104011
0.105904
0.115498
0.132912
0.140959
0.125626
0.118715
0.110714
0.0994166
0.0949119
0.0916745
0.0881346
0.0844299
0.0809207
0.077751
0.0749789
0.0725066
0.0694656
0.0647259
0.0592845
0.0555518
0.054212
0.056014
0.0585867
0.0584121
0.0532595
0.0450737
0.0386293
0.0344743
0.0318
0.0293952
0.0266319
0.0235435
0.0199807
0.0160933
0.0125991
0.00999329
0.00857844
0.00794669
0.00800065
0.00853048
0.00919156
0.0101364
0.0109009
0.0118388
0.0131613
0.0159203
0.0210577
0.0299144
0.0448666
0.0659212
0.0986156
0.295595
0.745305
1.13363
1.28811
1.0885
0.583185
0.3045
0.208963
0.199773
0.227331
0.242009
0.218677
0.173796
0.138494
0.116581
0.106104
0.101996
0.102612
0.104382
0.103787
0.101569
0.100227
0.100174
0.101304
0.103129
0.104028
0.103786
0.104247
0.110257
0.125021
0.14804
0.177221
0.211185
0.251276
0.300782
0.375772
0.527573
0.85466
1.54386
2.20255
2.34758
2.4648
2.8585
2.95003
2.50654
2.16877
2.1643
2.0992
1.63361
1.0529
0.676067
0.465204
0.344481
0.284283
0.268209
0.282312
0.35771
0.519768
0.861518
1.66649
2.35928
2.33909
2.23664
2.53354
2.84393
3.45416
3.67572
3.37093
2.97877
2.61082
1.95377
0.107415
0.0932249
0.073608
0.060786
0.0557935
0.0553531
0.0601044
0.0700161
0.0829219
0.0938333
0.096572
0.0958218
0.096918
0.106091
0.124002
0.141787
0.137566
0.128036
0.105491
0.088238
0.0817025
0.0780574
0.0746252
0.070604
0.0663201
0.0621761
0.0584214
0.0548655
0.0508595
0.045917
0.0404828
0.0358346
0.0324118
0.0305221
0.0291917
0.0271553
0.0237221
0.0198497
0.0160375
0.0133672
0.0113675
0.00966285
0.00800659
0.00611514
0.00413078
0.00252473
0.00146681
0.000906526
0.000619678
0.000457015
0.000373028
0.000332836
0.000344335
0.000459025
0.000669672
0.00109461
0.0017129
0.00260817
0.00401024
0.00522966
0.0068294
0.0115912
0.0323341
0.0840945
0.359554
0.736552
0.932187
0.79467
0.338839
0.130143
0.103244
0.112005
0.123952
0.113939
0.0963023
0.0826851
0.0744222
0.0681826
0.0598249
0.0520662
0.0489248
0.0520578
0.057551
0.0596527
0.0607564
0.0619371
0.0640908
0.0663836
0.0678392
0.068554
0.0702216
0.0767601
0.0902456
0.111004
0.137942
0.1709
0.211597
0.265127
0.337545
0.482617
0.791601
1.38614
1.94503
2.17026
2.34959
2.65179
2.69341
2.3332
2.09126
2.04786
1.97188
1.55512
1.02876
0.661688
0.441531
0.312486
0.247797
0.231686
0.25139
0.34218
0.522752
0.880713
1.62648
2.2145
2.24413
2.20522
2.48582
2.82005
3.39755
3.74264
3.64387
3.38499
2.92884
2.05105
0.108743
0.0952813
0.0766156
0.0641278
0.0592236
0.0590762
0.063067
0.0706275
0.0809699
0.0889243
0.0891001
0.0867316
0.0867764
0.0949281
0.111881
0.130463
0.132917
0.118854
0.0917006
0.0732843
0.0656314
0.0613587
0.0575485
0.0529278
0.0476548
0.0423959
0.0375954
0.0333319
0.0297576
0.0263591
0.0225454
0.0178346
0.0141568
0.0121451
0.0110694
0.0101888
0.00909979
0.00748393
0.00588864
0.00473906
0.00383154
0.00291348
0.00186448
0.000949904
0.000423628
0.000184162
8.48225e-05
4.1514e-05
1.75536e-05
6.68691e-06
3.40237e-06
2.02087e-06
9.19582e-07
1.58597e-06
3.93637e-06
1.50682e-05
5.42964e-05
0.000112294
0.000185466
0.000250763
0.000256294
0.000682502
0.00365136
0.0108228
0.106577
0.267236
0.425411
0.358319
0.11355
0.0584296
0.0501991
0.0700867
0.0862217
0.0719868
0.0503637
0.039517
0.0391384
0.0387153
0.0301148
0.0208866
0.0172614
0.0187779
0.0227621
0.0249236
0.0259487
0.0272023
0.0285118
0.0294783
0.0298163
0.0298874
0.031101
0.035413
0.0470588
0.064629
0.0886799
0.117665
0.153873
0.209827
0.294075
0.427091
0.687534
1.183
1.68055
1.97191
2.18473
2.41473
2.42769
2.15954
1.97056
1.9077
1.80136
1.42511
0.947397
0.604125
0.390564
0.262765
0.198791
0.18323
0.206564
0.305501
0.488279
0.835067
1.49825
2.00216
2.09098
2.11665
2.37161
2.6835
3.18041
3.51183
3.36614
3.13803
2.83046
2.12379
0.109892
0.09718
0.0795943
0.0676621
0.0627718
0.0625692
0.0650211
0.0704607
0.0782706
0.0830262
0.0806235
0.0766452
0.0754264
0.0820909
0.0968307
0.110992
0.115287
0.0987352
0.071572
0.0545896
0.0464054
0.0407155
0.0354437
0.0299052
0.0248406
0.0210431
0.0186219
0.0174696
0.0159837
0.0143027
0.0114718
0.00820056
0.00602457
0.00518873
0.00498009
0.00502104
0.00492251
0.00442308
0.00362939
0.00301216
0.00254477
0.00197017
0.00102136
0.000237238
8.46821e-05
4.40852e-05
5.32976e-05
7.24306e-05
6.0433e-05
3.5854e-05
5.68147e-05
6.98884e-05
7.78617e-05
9.51002e-05
0.00011592
0.000107667
6.49966e-05
4.66186e-05
4.45968e-05
0.000109327
0.000103009
5.02584e-05
3.85548e-05
0.000849038
0.0366171
0.0859225
0.184437
0.159711
0.0284581
0.00807845
0.0162131
0.0444471
0.0628491
0.0517835
0.0324315
0.0239088
0.0203591
0.0139182
0.00576194
0.00252868
0.00180172
0.00209041
0.0041914
0.00655821
0.00773816
0.00849294
0.00914243
0.00953003
0.00948366
0.00947834
0.0104245
0.0130881
0.0180895
0.026878
0.0409274
0.059485
0.0807932
0.121137
0.208676
0.320064
0.526104
0.939128
1.40625
1.75356
1.99223
2.18548
2.18494
1.96503
1.81119
1.73232
1.60598
1.25188
0.810394
0.501051
0.312256
0.19836
0.142562
0.128855
0.150548
0.247685
0.411123
0.725898
1.33365
1.7904
1.91937
1.99209
2.23294
2.5218
2.93816
3.21789
3.13497
2.93894
2.62819
2.08928
0.110778
0.0987223
0.0824085
0.0710807
0.0656718
0.0646812
0.0655834
0.0693776
0.0742918
0.0754528
0.0704097
0.0648428
0.0620979
0.0664881
0.077399
0.0852569
0.0855486
0.0686814
0.0442957
0.0304134
0.0244234
0.0218064
0.0190785
0.0159644
0.0129322
0.0106977
0.00943162
0.00916816
0.00901924
0.0084946
0.00704626
0.00517066
0.00386031
0.00338457
0.00353229
0.00389538
0.00419563
0.00430405
0.00509142
0.00623049
0.00764873
0.00895517
0.00936252
0.0092945
0.00784562
0.00539062
0.00465667
0.00519901
0.00407383
0.00153674
0.000801161
0.00106569
0.00100393
0.000671755
0.0005704
0.00103353
0.00196387
0.00139913
0.00109257
0.00257025
0.00353824
0.00378655
0.00326734
0.00139682
0.00370932
0.0534851
0.181085
0.133226
0.0148454
0.00363463
0.00804434
0.0256853
0.04272
0.0385805
0.023101
0.0169979
0.0125288
0.00513761
0.00071001
8.99409e-05
2.4668e-05
1.77425e-05
7.33127e-05
0.000347446
0.00104255
0.00164019
0.00184988
0.00188704
0.00170334
0.00158249
0.0016718
0.00208189
0.00304805
0.00542961
0.0106724
0.0207118
0.0370929
0.0607244
0.0926844
0.136971
0.291546
0.638506
1.09114
1.49116
1.75507
1.92066
1.9024
1.72349
1.59026
1.50384
1.35766
1.01402
0.597952
0.329736
0.190905
0.120746
0.0873895
0.0756595
0.0820853
0.156148
0.27695
0.534679
1.11974
1.54662
1.70465
1.81189
2.05179
2.32181
2.66007
2.88616
2.85594
2.68856
2.37224
1.94309
0.110788
0.0991966
0.0838839
0.0729901
0.0669638
0.0651064
0.0651814
0.0669494
0.0684671
0.0658
0.0583401
0.0512444
0.0468187
0.0479162
0.0530742
0.053461
0.0460478
0.031623
0.0217048
0.0167792
0.0137671
0.0112989
0.00891489
0.00698963
0.00581515
0.00564157
0.00614183
0.00629834
0.00665669
0.0065789
0.00585185
0.00463084
0.00370477
0.00415548
0.0117311
0.0121093
0.0125402
0.0144476
0.0184347
0.025634
0.0368252
0.0466561
0.0525661
0.054242
0.0489689
0.0369952
0.0320856
0.0345078
0.0342827
0.0251066
0.0130586
0.00934036
0.00735883
0.00506027
0.00271666
0.0013131
0.00119345
0.00159743
0.00317618
0.0069606
0.0117676
0.0169984
0.0233315
0.0232472
0.0351207
0.020737
0.155473
0.124078
0.0602546
0.023511
0.0212549
0.0254838
0.0288537
0.0280869
0.0299112
0.0453255
0.0708663
0.103005
0.107556
0.0711783
0.0212078
0.00588147
0.00256202
0.00218524
0.0030718
0.00663789
0.00707638
0.00468255
0.00279794
0.00156595
0.000945294
0.000593407
0.000300722
0.000219481
0.000489173
0.00103087
0.0031596
0.00901628
0.0247836
0.0463936
0.0747227
0.301978
0.728091
1.17239
1.46267
1.61576
1.5848
1.41816
1.29044
1.20707
1.04617
0.683376
0.293338
0.147447
0.100841
0.0718091
0.0546795
0.0443714
0.0468409
0.0694383
0.0973787
0.247672
0.827835
1.25638
1.43528
1.57599
1.82668
2.08332
2.37381
2.56196
2.55661
2.42198
2.16423
1.835
0.11038
0.0990474
0.0843579
0.0736025
0.0670853
0.0644827
0.0634294
0.0626431
0.0605007
0.0542073
0.0449765
0.0366625
0.0308344
0.0281805
0.0268912
0.022972
0.0197352
0.016544
0.0114159
0.00730525
0.00621208
0.00435385
0.00356354
0.00317255
0.00412183
0.0048719
0.0058405
0.00642275
0.00800127
0.0121925
0.0139955
0.0164469
0.0236184
0.0408426
0.0754755