/*--------------------------------*- C++ -*----------------------------------*\
| =========                 |                                                 |
| \\      /  F ield         | OpenFOAM: The Open Source CFD Toolbox           |
|  \\    /   O peration     | Version:  v1912                                 |
|   \\  /    A nd           | Website:  www.openfoam.com                      |
|    \\/     M anipulation  |                                                 |
\*---------------------------------------------------------------------------*/
FoamFile
{
    version     2.0;
    format      ascii;
    class       volScalarField;
    location    "60";
    object      omega;
}
// * * * * * * * * * * * * * * * * * * * * * * * * * * * * * * * * * * * * * //

dimensions      [0 0 -1 0 0 0 0];


internalField   nonuniform List<scalar> 
14268
(
2.99086
2.99086
2.99086
2.99086
2.99086
2.99085
2.99088
2.99089
0.616303
0.620393
0.624755
0.629301
0.632457
0.64054
0.630898
0.628781
0.295569
0.296821
0.298195
0.299625
0.300963
0.303635
0.301925
0.297957
0.231778
0.23213
0.232549
0.232996
0.23326
0.234613
0.234107
0.234552
0.21988
0.220002
0.220162
0.220341
0.220807
0.221314
0.222952
0.22192
0.218051
0.218117
0.218207
0.218378
0.218356
0.219304
0.219711
0.220414
0.217464
0.217547
0.217719
0.21772
0.218332
0.21851
0.2202
0.219752
0.217467
0.2175
0.217558
0.217829
0.217745
0.218819
0.218942
0.220112
0.217481
0.217532
0.217686
0.217711
0.218411
0.218586
0.22
0.220014
0.218217
0.218382
0.218586
0.218912
0.218915
0.219759
0.220618
0.225441
0.219443
0.219831
0.220448
0.221023
0.222727
0.223974
0.229728
0.237622
0.220316
0.22106
0.222052
0.22338
0.225666
0.229086
0.235226
0.236999
0.218427
0.218844
0.219433
0.220258
0.221787
0.22469
0.226386
0.224925
0.217625
0.217721
0.217917
0.218154
0.218585
0.2191
0.220649
0.220874
0.217626
0.217779
0.218045
0.218374
0.219235
0.220663
0.223308
0.22507
0.217208
0.217294
0.217454
0.217609
0.21798
0.218485
0.21919
0.2191
0.21765
0.217715
0.217798
0.217832
0.21806
0.218074
0.218826
0.218692
0.217346
0.217377
0.217439
0.217458
0.217744
0.217756
0.21834
0.218099
0.2176
0.217645
0.217731
0.217786
0.217956
0.218105
0.218357
0.218238
0.217499
0.217573
0.217658
0.217705
0.21793
0.217914
0.21864
0.218207
0.217423
0.217521
0.217673
0.217766
0.218128
0.218062
0.218302
0.218232
0.217433
0.21745
0.217532
0.217559
0.217776
0.217831
0.218277
0.217985
0.217659
0.217717
0.21781
0.217875
0.218079
0.218039
0.218437
0.218197
0.217495
0.217542
0.21761
0.217684
0.217892
0.217935
0.218308
0.218255
0.217733
0.217763
0.217813
0.217902
0.218044
0.218087
0.218288
0.218415
0.217766
0.217795
0.217822
0.217919
0.218075
0.218154
0.218395
0.218442
0.218054
0.218069
0.218087
0.218201
0.218243
0.218424
0.218514
0.218643
0.218914
0.218783
0.218686
0.21868
0.218713
0.218778
0.218904
0.219033
0.223618
0.22287
0.22219
0.22164
0.221171
0.220741
0.220586
0.220396
0.241645
0.238971
0.236514
0.234224
0.23241
0.230267
0.22905
0.227914
0.30453
0.296288
0.288394
0.280722
0.274611
0.26671
0.262428
0.257588
0.470491
0.451991
0.434096
0.416131
0.400525
0.38116
0.367951
0.354764
0.808943
0.776417
0.744279
0.712182
0.683383
0.648506
0.621491
0.594994
1.35416
1.31277
1.27167
1.22911
1.18953
1.14225
1.10172
1.06337
2.12204
2.05291
1.99609
1.95076
1.90936
1.86309
1.82004
1.79147
4.15902
3.79411
3.51525
3.31294
3.14964
3.01446
2.91026
2.86987
24.7078
15.8512
11.734
9.267
7.9327
7.11776
6.65906
6.18405
14.6391
16.7226
19.523
23.4657
29.0142
36.2866
38.8278
15.6183
3.8973
4.20581
4.63745
5.22607
5.98718
7.06903
8.95051
14.6635
1.65886
1.72854
1.81647
1.92302
2.05095
2.2196
2.51073
3.11957
1.15626
1.20813
1.26941
1.33656
1.4086
1.48832
1.5823
1.71602
0.874056
0.916521
0.963602
1.01266
1.06351
1.11908
1.18245
1.27388
0.695558
0.729435
0.765289
0.801504
0.838332
0.87849
0.923193
0.983517
0.580508
0.608422
0.637116
0.665483
0.693948
0.724442
0.756987
0.798491
0.502554
0.526702
0.551051
0.574998
0.598923
0.624276
0.650888
0.682687
0.444688
0.466454
0.488094
0.509478
0.530761
0.55311
0.576039
0.602122
0.398109
0.418329
0.43821
0.457972
0.477634
0.498218
0.519133
0.542021
0.357684
0.37664
0.395315
0.414014
0.432719
0.452326
0.472062
0.49303
0.321383
0.338791
0.356323
0.374141
0.392112
0.411019
0.430008
0.449893
0.289361
0.304424
0.320291
0.337014
0.354143
0.372378
0.390806
0.409998
0.263074
0.274783
0.288011
0.30281
0.318477
0.335644
0.353299
0.371845
0.244405
0.252158
0.261643
0.273256
0.286377
0.301624
0.317806
0.335226
0.233027
0.237319
0.242855
0.250404
0.259855
0.271918
0.285469
0.300896
0.227076
0.229192
0.231847
0.235818
0.241359
0.249218
0.258956
0.271164
0.223658
0.224751
0.225951
0.227845
0.230526
0.234545
0.240274
0.248405
0.220966
0.221834
0.222589
0.223745
0.225022
0.226803
0.229657
0.234003
0.218239
0.219133
0.21992
0.220973
0.221813
0.222859
0.224315
0.226301
0.215856
0.216641
0.217438
0.218399
0.219198
0.220229
0.221255
0.222277
0.214155
0.214654
0.215236
0.216018
0.216845
0.217814
0.218696
0.219577
0.213223
0.213446
0.213774
0.214304
0.214899
0.215621
0.216437
0.217304
0.212903
0.212974
0.213095
0.213333
0.213639
0.214125
0.214706
0.215327
0.212792
0.212813
0.21287
0.213
0.213142
0.213385
0.213692
0.214025
0.212732
0.212761
0.212814
0.212905
0.212982
0.213131
0.213352
0.213541
0.212697
0.212725
0.21278
0.212867
0.212928
0.213055
0.213255
0.21345
0.212658
0.212703
0.212769
0.212856
0.212915
0.213018
0.213198
0.213403
0.21263
0.212679
0.212751
0.212843
0.212915
0.213011
0.213162
0.213349
0.212594
0.212657
0.212738
0.212839
0.212944
0.213041
0.213155
0.213288
0.212549
0.212615
0.212715
0.212844
0.212959
0.213068
0.213162
0.213255
0.212509
0.212581
0.212688
0.212842
0.212962
0.213076
0.213164
0.213236
0.21248
0.21255
0.212647
0.212803
0.212931
0.213059
0.213146
0.213214
0.212455
0.212515
0.212594
0.212717
0.212841
0.212982
0.213087
0.213164
0.212398
0.212448
0.212503
0.212606
0.212711
0.21284
0.212967
0.213068
0.212307
0.212367
0.21243
0.212521
0.212613
0.212719
0.212828
0.212926
0.21224
0.212314
0.212384
0.212471
0.212556
0.212648
0.212741
0.21282
0.212194
0.212283
0.21236
0.212442
0.212523
0.212603
0.212684
0.212751
0.212135
0.212214
0.212288
0.212368
0.212443
0.212521
0.212598
0.212662
0.212086
0.212155
0.212225
0.2123
0.212371
0.212443
0.212513
0.212574
0.212074
0.212142
0.212209
0.212275
0.212338
0.212399
0.212453
0.2125
0.212183
0.21224
0.21229
0.212335
0.212375
0.212412
0.212442
0.212468
0.213322
0.213322
0.213306
0.213278
0.213239
0.213192
0.21314
0.213085
0.21738
0.217225
0.217028
0.216794
0.216528
0.216238
0.215931
0.215623
0.229872
0.22944
0.228899
0.228256
0.227526
0.226721
0.225856
0.224951
0.26151
0.260819
0.25988
0.258705
0.257316
0.255738
0.254004
0.252139
0.327033
0.326663
0.325878
0.32468
0.323082
0.321106
0.318765
0.31607
0.441828
0.44279
0.443248
0.443189
0.442618
0.441547
0.439969
0.437837
0.660352
0.663057
0.66508
0.666425
0.667105
0.667135
0.666511
0.665193
1.22532
1.23116
1.23575
1.23912
1.24129
1.24228
1.24211
1.24076
2.9834
2.98337
2.98334
2.98332
2.9833
2.98329
2.98328
2.98328
2.98328
2.98328
2.98329
2.98329
2.9833
2.9833
2.9833
2.9833
2.9833
2.98329
2.98328
2.98327
2.98326
2.98325
2.98324
2.98323
2.98322
2.98321
2.9832
2.9832
2.9832
2.9832
2.9832
2.9832
2.98321
2.98321
2.98321
2.98321
2.98322
2.98322
2.98322
2.98322
2.98323
2.98323
2.98323
2.98324
2.98324
2.98324
2.98324
2.98324
2.98324
2.98324
2.98324
2.98324
2.98325
2.98325
2.98325
2.98325
2.98325
2.98325
2.98326
2.98326
2.98326
2.98326
2.98326
2.98326
2.98326
2.98326
2.98326
2.98326
2.98326
2.98326
2.98326
2.98325
2.98325
2.98325
2.98324
2.98324
2.98323
2.98323
2.98323
2.98322
2.98322
2.98322
2.98322
2.98322
2.98321
2.98321
2.98321
2.98321
2.98321
2.98321
2.98321
2.98321
2.98321
2.98321
2.98321
2.98321
2.98321
2.98321
2.98321
2.98321
2.98321
2.98321
2.98322
2.98322
2.98322
2.98322
2.98322
2.98322
2.98322
2.98322
2.98322
2.98322
2.98322
2.98322
2.98322
2.98322
2.98322
2.98322
2.98322
2.98322
2.98322
2.98322
2.98322
2.98322
2.98322
2.98322
2.98322
2.98322
2.98322
2.98322
2.98322
2.98322
2.98322
2.98322
2.98322
2.98322
2.98322
2.98322
2.98322
2.98322
2.98322
2.98322
2.98322
2.98322
2.98322
2.98322
2.98322
2.98322
2.98321
2.98321
2.98321
2.98321
2.98321
2.98321
2.98321
2.98321
0.65457
0.68065
0.708314
0.736491
0.766014
0.792231
0.812063
0.823743
0.829526
0.83252
0.834664
0.837579
0.842553
0.851369
0.863725
0.879392
0.897953
0.918654
0.941148
0.965272
0.99142
1.0202
1.0521
1.08712
1.12445
1.16212
1.19768
1.22933
1.25507
1.27132
1.27431
1.26221
1.2329
1.18992
1.13739
1.07861
1.01662
0.954373
0.894209
0.838201
0.788114
0.745201
0.709611
0.680422
0.656749
0.637853
0.622459
0.609768
0.599707
0.591991
0.586057
0.581801
0.579767
0.58063
0.581719
0.582536
0.582944
0.583075
0.583161
0.582976
0.582531
0.58228
0.582283
0.583258
0.585422
0.588764
0.592946
0.597492
0.60169
0.605221
0.608264
0.610953
0.613584
0.615837
0.617671
0.619105
0.619876
0.619874
0.618367
0.619074
0.620689
0.623544
0.627674
0.631927
0.634475
0.636777
0.63927
0.642336
0.646832
0.652103
0.657455
0.66237
0.665048
0.666781
0.667575
0.667001
0.664728
0.66098
0.656776
0.65323
0.650044
0.646652
0.64297
0.638991
0.634926
0.631095
0.627427
0.624001
0.620436
0.617758
0.616046
0.614977
0.614408
0.613919
0.613108
0.611568
0.609094
0.605779
0.601829
0.59734
0.592433
0.587308
0.582174
0.578189
0.575492
0.573599
0.572471
0.572128
0.572587
0.573568
0.574568
0.575032
0.5746
0.573222
0.571326
0.56944
0.568228
0.56831
0.568819
0.569315
0.569692
0.570092
0.570623
0.570998
0.571123
0.570872
0.570215
0.569272
0.568296
0.567398
0.566795
0.566663
0.567036
0.567916
0.569315
0.571126
0.309117
0.31948
0.330862
0.343406
0.358057
0.371993
0.380601
0.383493
0.383017
0.381049
0.377728
0.375334
0.37433
0.37478
0.376992
0.381327
0.387394
0.394584
0.402459
0.41075
0.419576
0.429285
0.440236
0.45256
0.465874
0.478904
0.490331
0.499275
0.505022
0.506545
0.502358
0.490631
0.47236
0.449789
0.425423
0.401103
0.37807
0.35702
0.338413
0.322586
0.309638
0.299473
0.291718
0.285788
0.281242
0.277769
0.275018
0.272804
0.271136
0.269975
0.269188
0.268706
0.268593
0.268813
0.268996
0.269082
0.26905
0.268962
0.268895
0.2688
0.268651
0.268553
0.268507
0.268689
0.269124
0.269829
0.270755
0.271826
0.27281
0.273603
0.274221
0.274801
0.275366
0.275828
0.276197
0.276519
0.276722
0.276786
0.276495
0.276643
0.276804
0.277114
0.277713
0.278341
0.278647
0.278856
0.279083
0.279377
0.279857
0.280503
0.2812
0.281844
0.28209
0.282294
0.28246
0.28243
0.282088
0.28145
0.280698
0.280057
0.279478
0.278841
0.278123
0.277327
0.276495
0.2757
0.274931
0.274232
0.273516
0.272947
0.272557
0.2723
0.272161
0.272068
0.27193
0.271671
0.271241
0.270667
0.270011
0.269295
0.268559
0.267838
0.267151
0.266611
0.266224
0.265937
0.265738
0.265623
0.26561
0.265685
0.265803
0.265898
0.265918
0.265845
0.265713
0.265566
0.265471
0.265486
0.265509
0.265503
0.265478
0.265478
0.265552
0.265673
0.265814
0.265914
0.265925
0.265841
0.265711
0.265571
0.26545
0.265404
0.265456
0.265594
0.265807
0.266076
0.240322
0.242451
0.244866
0.248115
0.253042
0.258536
0.261962
0.262653
0.262182
0.2607
0.258296
0.256189
0.255181
0.255016
0.25528
0.256196
0.257812
0.259944
0.262397
0.265002
0.267769
0.270854
0.274453
0.278693
0.283491
0.288314
0.292449
0.295568
0.297433
0.29764
0.295469
0.290368
0.282929
0.27422
0.265395
0.257079
0.249581
0.243042
0.237515
0.23302
0.229495
0.226845
0.224891
0.223432
0.222334
0.221501
0.22084
0.220304
0.219898
0.219608
0.219413
0.219296
0.219269
0.219322
0.219365
0.219384
0.219375
0.21935
0.219334
0.219318
0.219289
0.219272
0.219259
0.219301
0.219414
0.219582
0.219788
0.22003
0.220263
0.220443
0.220571
0.220688
0.220786
0.220858
0.220909
0.22094
0.220945
0.220945
0.22084
0.220869
0.220896
0.220969
0.221111
0.221253
0.221317
0.22136
0.221406
0.221474
0.22159
0.22175
0.221918
0.222064
0.222121
0.222173
0.22222
0.222232
0.22217
0.222038
0.221876
0.221734
0.221605
0.221463
0.221302
0.221119
0.22093
0.220754
0.220596
0.220445
0.220293
0.220174
0.220094
0.220046
0.220024
0.22001
0.219986
0.219932
0.219837
0.21971
0.219565
0.219407
0.219248
0.219094
0.21895
0.21884
0.218764
0.218709
0.218671
0.218649
0.218648
0.218666
0.218695
0.21872
0.218729
0.21872
0.218698
0.21867
0.218654
0.218661
0.218667
0.218665
0.218659
0.21866
0.21868
0.218713
0.218751
0.21878
0.218787
0.218773
0.218748
0.218721
0.218698
0.218692
0.218707
0.218743
0.218795
0.218858
0.226814
0.227093
0.227326
0.228296
0.230692
0.233111
0.233696
0.233495
0.232849
0.231638
0.229798
0.228026
0.227079
0.226706
0.226634
0.226767
0.22713
0.227685
0.228382
0.229146
0.229954
0.23086
0.231956
0.233317
0.234954
0.236693
0.238168
0.239269
0.23993
0.239988
0.239041
0.236895
0.233843
0.230386
0.226994
0.223901
0.221197
0.218933
0.217098
0.215668
0.214603
0.213856
0.213342
0.212981
0.212717
0.212524
0.212369
0.21224
0.212144
0.212079
0.212037
0.212012
0.212004
0.212016
0.212029
0.21204
0.212043
0.212037
0.212031
0.212029
0.212025
0.212025
0.212018
0.212026
0.21206
0.212116
0.212188
0.212258
0.212316
0.212352
0.212371
0.212394
0.212411
0.212418
0.21242
0.21241
0.212379
0.212365
0.212288
0.212279
0.21226
0.212264
0.212285
0.212308
0.212313
0.21231
0.212307
0.212323
0.21235
0.212388
0.212423
0.212453
0.212461
0.212458
0.212458
0.212461
0.212452
0.212427
0.212397
0.212371
0.212346
0.212317
0.212282
0.212247
0.212208
0.21217
0.212138
0.212098
0.212065
0.21204
0.212025
0.212018
0.212016
0.212016
0.212013
0.212003
0.211986
0.211961
0.211933
0.211903
0.211873
0.211842
0.211813
0.211791
0.211777
0.211768
0.211763
0.211761
0.211762
0.211766
0.211771
0.211775
0.211775
0.211773
0.211768
0.211763
0.211762
0.211766
0.211768
0.211768
0.211765
0.211764
0.211768
0.211777
0.211788
0.211796
0.211798
0.211795
0.21179
0.211784
0.21178
0.211779
0.211784
0.211793
0.211806
0.211819
0.224351
0.223864
0.222916
0.222724
0.223858
0.225171
0.22571
0.225724
0.225259
0.224191
0.222681
0.221436
0.220605
0.220116
0.219847
0.219774
0.219786
0.21983
0.219918
0.220025
0.220139
0.220296
0.220562
0.220977
0.22153
0.222146
0.222628
0.222953
0.223151
0.223095
0.222543
0.221451
0.219972
0.218365
0.216855
0.215514
0.214394
0.213492
0.212777
0.212242
0.211851
0.211601
0.21144
0.211331
0.211256
0.211205
0.211164
0.211121
0.21108
0.211052
0.211038
0.211031
0.21103
0.211034
0.211042
0.21105
0.211056
0.211052
0.211048
0.211051
0.211053
0.211058
0.211053
0.211063
0.211083
0.211106
0.211125
0.211151
0.211181
0.211204
0.211209
0.211206
0.211194
0.21118
0.211169
0.211154
0.211122
0.2111
0.211034
0.211023
0.210994
0.210983
0.210983
0.210987
0.210987
0.210985
0.210973
0.210972
0.210974
0.210983
0.210993
0.210996
0.210996
0.21099
0.210981
0.210981
0.210981
0.210976
0.210971
0.210967
0.210961
0.210954
0.210945
0.210939
0.21093
0.210918
0.210902
0.210889
0.210882
0.210877
0.210873
0.210872
0.210874
0.210876
0.210877
0.210875
0.210872
0.210867
0.210862
0.210858
0.210853
0.210845
0.210839
0.210834
0.210832
0.210832
0.210833
0.210835
0.210837
0.210837
0.210836
0.210835
0.210834
0.210833
0.210832
0.210832
0.210833
0.210837
0.210839
0.210839
0.210837
0.210835
0.210836
0.210839
0.210844
0.210848
0.210848
0.210847
0.210845
0.210845
0.210845
0.210846
0.210848
0.210851
0.210854
0.210857
0.223085
0.223165
0.222623
0.222316
0.22283
0.22389
0.224381
0.224317
0.223864
0.222922
0.22156
0.220276
0.219507
0.219036
0.218721
0.21852
0.21843
0.218357
0.218274
0.218157
0.218003
0.217835
0.217733
0.217715
0.217746
0.217822
0.217888
0.217897
0.217917
0.217898
0.217612
0.217024
0.216224
0.21535
0.214495
0.213709
0.213036
0.212457
0.211999
0.211648
0.211399
0.211239
0.211145
0.211087
0.211049
0.211024
0.211001
0.210973
0.210942
0.210919
0.210909
0.210906
0.210907
0.210911
0.210917
0.210923
0.210929
0.210927
0.210925
0.210929
0.210931
0.210936
0.210928
0.210935
0.210951
0.210966
0.210983
0.211004
0.211027
0.211049
0.211054
0.211054
0.211042
0.211026
0.211008
0.210985
0.210943
0.210926
0.210871
0.210857
0.210828
0.210818
0.210816
0.210815
0.210816
0.210816
0.21081
0.210808
0.210807
0.210809
0.210813
0.210811
0.210807
0.2108
0.210794
0.210795
0.210798
0.210795
0.210792
0.210789
0.210785
0.21078
0.210773
0.210759
0.210745
0.210734
0.210735
0.210731
0.210728
0.210725
0.210723
0.210724
0.210726
0.210728
0.210729
0.210729
0.210728
0.210727
0.210725
0.210723
0.210722
0.21072
0.210718
0.210716
0.210715
0.210717
0.210719
0.210722
0.210723
0.210723
0.210721
0.210719
0.210717
0.210716
0.210717
0.210718
0.210721
0.210724
0.210725
0.210725
0.210723
0.210723
0.210722
0.210725
0.210729
0.210731
0.210731
0.210732
0.21073
0.21073
0.210731
0.210729
0.210731
0.210734
0.210737
0.210739
0.223159
0.223144
0.222349
0.221709
0.222239
0.223485
0.223719
0.223526
0.223042
0.222149
0.220917
0.219722
0.218902
0.218453
0.218153
0.21802
0.217861
0.21779
0.217705
0.217562
0.217377
0.217176
0.217011
0.216902
0.216839
0.216801
0.216778
0.216774
0.21681
0.216788
0.216543
0.216068
0.215421
0.214699
0.214
0.213334
0.212744
0.212237
0.211833
0.211525
0.211307
0.211165
0.21108
0.211029
0.210995
0.210974
0.210954
0.210927
0.210903
0.210889
0.210881
0.210878
0.210876
0.210876
0.210882
0.210891
0.210897
0.210896
0.210892
0.210893
0.210893
0.210897
0.210889
0.210893
0.21091
0.210931
0.210953
0.210977
0.210999
0.211013
0.211019
0.211017
0.211003
0.210984
0.21097
0.210951
0.210919
0.210909
0.21085
0.210834
0.210806
0.210796
0.21079
0.210783
0.210774
0.210764
0.210751
0.210753
0.210754
0.210756
0.210756
0.210753
0.210746
0.210732
0.210718
0.210721
0.210725
0.210725
0.210729
0.21073
0.21073
0.210728
0.210724
0.210721
0.210716
0.210712
0.210708
0.210703
0.2107
0.210698
0.210698
0.210699
0.210701
0.210702
0.210703
0.210704
0.210705
0.210705
0.210706
0.210706
0.210706
0.210704
0.210703
0.210701
0.210701
0.210702
0.210704
0.210707
0.210708
0.210709
0.210707
0.210705
0.210704
0.210703
0.210703
0.210704
0.210705
0.210709
0.210711
0.210711
0.210709
0.210708
0.210708
0.210711
0.210715
0.210718
0.210719
0.210719
0.210716
0.210718
0.210719
0.210719
0.210719
0.210721
0.210723
0.210725
0.222928
0.224123
0.224749
0.224937
0.224652
0.224363
0.224372
0.224163
0.2234
0.222233
0.220852
0.219772
0.218954
0.218466
0.218226
0.218027
0.217935
0.217787
0.21765
0.217514
0.217339
0.21714
0.216976
0.216865
0.216781
0.216701
0.216609
0.216519
0.216485
0.216462
0.216246
0.215811
0.215209
0.214517
0.213838
0.2132
0.212647
0.212174
0.211794
0.211503
0.211293
0.211156
0.211077
0.211029
0.210999
0.21098
0.210962
0.210938
0.210911
0.210893
0.210885
0.210882
0.210883
0.210888
0.210893
0.210897
0.210901
0.210899
0.210895
0.210898
0.2109
0.210906
0.210901
0.210909
0.210928
0.210944
0.210957
0.210976
0.210999
0.211017
0.211017
0.211013
0.211
0.210989
0.210981
0.210967
0.210928
0.210909
0.210846
0.210832
0.210801
0.21079
0.210785
0.210781
0.210777
0.210771
0.210756
0.210759
0.210758
0.210758
0.210758
0.210754
0.210749
0.21074
0.210729
0.210726
0.210731
0.210732
0.210735
0.210735
0.210735
0.210733
0.210729
0.210724
0.210718
0.210712
0.210709
0.210702
0.2107
0.210698
0.210697
0.210698
0.2107
0.210701
0.210703
0.210703
0.210703
0.210703
0.210703
0.210704
0.210704
0.210702
0.210701
0.210699
0.210699
0.2107
0.210703
0.210706
0.210707
0.210707
0.210705
0.210703
0.210702
0.210701
0.210702
0.210703
0.210706
0.210709
0.21071
0.21071
0.210709
0.210709
0.210708
0.210711
0.210714
0.210716
0.210718
0.21072
0.210718
0.210718
0.210721
0.210718
0.21072
0.210723
0.210727
0.21073
0.224232
0.226064
0.228877
0.233268
0.233564
0.23074
0.227113
0.225131
0.223618
0.222128
0.220738
0.219717
0.218972
0.218409
0.21803
0.217858
0.217778
0.217679
0.217544
0.217377
0.217197
0.216997
0.216836
0.216726
0.216651
0.21659
0.216534
0.216493
0.2165
0.216442
0.216172
0.215703
0.215083
0.214411
0.213779
0.213161
0.21263
0.212166
0.211792
0.211502
0.211293
0.211157
0.21108
0.211034
0.211006
0.210988
0.210971
0.210945
0.210916
0.210897
0.210888
0.210884
0.210884
0.210886
0.210893
0.2109
0.210906
0.210906
0.210903
0.210906
0.210906
0.210911
0.210903
0.21091
0.210925
0.210944
0.21096
0.210981
0.211005
0.211024
0.211032
0.211027
0.211011
0.210993
0.210979
0.210958
0.21092
0.210906
0.210847
0.210831
0.210801
0.210788
0.210784
0.21078
0.210777
0.210772
0.210761
0.21076
0.210757
0.210758
0.21076
0.210757
0.210752
0.210742
0.210729
0.210733
0.210737
0.210736
0.210738
0.210738
0.210736
0.210733
0.210729
0.210723
0.210717
0.21071
0.210706
0.210701
0.210699
0.210697
0.210695
0.210697
0.210698
0.2107
0.210701
0.210702
0.210702
0.210702
0.210702
0.210702
0.210702
0.2107
0.210699
0.210698
0.210697
0.210699
0.210701
0.210704
0.210705
0.210705
0.210704
0.210701
0.2107
0.210699
0.2107
0.2107
0.210704
0.210705
0.210707
0.210707
0.210705
0.210706
0.210704
0.21071
0.210714
0.210718
0.21072
0.210721
0.210716
0.210716
0.21072
0.210721
0.210721
0.210722
0.210725
0.210727
0.228826
0.227348
0.229607
0.239582
0.245352
0.243713
0.237413
0.230036
0.225879
0.223116
0.221016
0.219815
0.219099
0.218615
0.218206
0.217982
0.217835
0.217746
0.217633
0.217452
0.217216
0.216973
0.216776
0.216634
0.21652
0.216396
0.216258
0.216142
0.216104
0.21609
0.215904
0.21552
0.214989
0.214375
0.213767
0.213168
0.212638
0.212168
0.211791
0.211501
0.211292
0.211157
0.21108
0.211033
0.211003
0.210983
0.210964
0.210937
0.21091
0.210893
0.210886
0.210884
0.210885
0.210888
0.210893
0.210897
0.210903
0.210901
0.210898
0.210901
0.210901
0.210905
0.210897
0.210903
0.21092
0.210941
0.210959
0.21098
0.211003
0.211019
0.211021
0.211018
0.211004
0.21099
0.210978
0.21096
0.210921
0.210906
0.210846
0.21083
0.210801
0.210789
0.210784
0.21078
0.210776
0.210771
0.210759
0.210756
0.210757
0.210761
0.210762
0.210757
0.210751
0.210741
0.210728
0.210732
0.210735
0.210733
0.210734
0.210736
0.210734
0.210731
0.210727
0.210722
0.210715
0.210709
0.210706
0.2107
0.210698
0.210696
0.210694
0.210695
0.210698
0.210699
0.210701
0.210701
0.210701
0.210701
0.210702
0.210702
0.210702
0.2107
0.210699
0.210697
0.210697
0.210698
0.210701
0.210703
0.210705
0.210704
0.210703
0.210701
0.210699
0.210699
0.210699
0.2107
0.210704
0.210706
0.210708
0.210709
0.210708
0.210709
0.210708
0.210712
0.210714
0.210717
0.210721
0.210724
0.210722
0.210722
0.210724
0.210723
0.210723
0.210727
0.210732
0.210736
0.236991
0.228775
0.230154
0.238982
0.246735
0.247279
0.243161
0.235126
0.227762
0.224078
0.221667
0.219936
0.218985
0.218553
0.218328
0.21807
0.217902
0.217773
0.217652
0.217516
0.217338
0.217127
0.216945
0.216815
0.216723
0.21664
0.216545
0.216458
0.216432
0.216391
0.216158
0.215726
0.215139
0.214471
0.213815
0.213189
0.21264
0.212168
0.211789
0.211501
0.211291
0.211156
0.211079
0.211033
0.211004
0.210986
0.210969
0.210943
0.210914
0.210896
0.210888
0.210883
0.210881
0.210883
0.210889
0.210897
0.210903
0.2109
0.210897
0.210899
0.2109
0.210905
0.210899
0.210907
0.210923
0.210943
0.21096
0.21098
0.211002
0.211018
0.21102
0.211017
0.211003
0.210987
0.210976
0.210958
0.210921
0.210905
0.210846
0.210831
0.210801
0.210789
0.210784
0.21078
0.210775
0.21077
0.210758
0.21075
0.210749
0.210752
0.210756
0.210754
0.21075
0.210741
0.210734
0.21073
0.210734
0.210735
0.210737
0.210735
0.210733
0.21073
0.210727
0.210721
0.210715
0.210709
0.210705
0.2107
0.210697
0.210695
0.210694
0.210694
0.210697
0.210698
0.210699
0.210701
0.210701
0.210701
0.210701
0.210701
0.210701
0.210699
0.210698
0.210696
0.210696
0.210697
0.210699
0.210702
0.210704
0.210703
0.210701
0.210699
0.210698
0.210697
0.210698
0.210699
0.210704
0.210707
0.210708
0.210708
0.210707
0.210708
0.210708
0.210716
0.21072
0.210723
0.210726
0.210728
0.210722
0.210721
0.210723
0.210725
0.210726
0.210727
0.21073
0.210731
0.228345
0.226405
0.227591
0.232816
0.23829
0.240194
0.239525
0.235797
0.22955
0.224605
0.221912
0.22008
0.218834
0.218244
0.217888
0.217856
0.217787
0.217646
0.2175
0.217333
0.217142
0.216931
0.216754
0.216624
0.216533
0.216469
0.216425
0.216398
0.216406
0.21635
0.216091
0.215643
0.21505
0.214384
0.213766
0.213171
0.212642
0.212177
0.211796
0.211505
0.211291
0.211156
0.211079
0.211034
0.211005
0.210986
0.210967
0.210941
0.210913
0.210895
0.210887
0.210885
0.210885
0.210889
0.210894
0.210897
0.210901
0.210899
0.210896
0.210898
0.210899
0.210903
0.210895
0.210902
0.210919
0.210941
0.210959
0.210979
0.211002
0.211019
0.211024
0.21102
0.211004
0.210988
0.210975
0.210956
0.210918
0.210903
0.210844
0.210829
0.210799
0.210788
0.210783
0.210779
0.210775
0.21077
0.210757
0.210762
0.210761
0.210759
0.21076
0.210757
0.210751
0.210741
0.210727
0.210728
0.210732
0.21073
0.210731
0.210733
0.210732
0.210729
0.210726
0.210721
0.210715
0.210708
0.210705
0.210699
0.210696
0.210694
0.210693
0.210694
0.210696
0.210698
0.210699
0.2107
0.2107
0.2107
0.210701
0.210701
0.210701
0.210698
0.210697
0.210695
0.210695
0.210696
0.210699
0.210701
0.210703
0.210703
0.210702
0.2107
0.210699
0.210699
0.2107
0.210701
0.210704
0.210706
0.210707
0.210708
0.210709
0.210711
0.210713
0.210721
0.210724
0.210726
0.21073
0.210734
0.210731
0.210729
0.210729
0.21073
0.210731
0.210735
0.21074
0.210743
0.221379
0.223273
0.227193
0.231008
0.234262
0.237052
0.236496
0.233944
0.229949
0.225418
0.222194
0.220468
0.219298
0.218543
0.218133
0.21784
0.217715
0.217614
0.217509
0.217351
0.217138
0.216913
0.216729
0.216598
0.216482
0.216344
0.216179
0.216031
0.21597
0.215961
0.215802
0.215443
0.214926
0.214335
0.213743
0.213155
0.212631
0.212165
0.211784
0.211494
0.211282
0.211149
0.211076
0.211032
0.211004
0.210986
0.210971
0.210945
0.210915
0.210896
0.210889
0.210885
0.210883
0.210885
0.21089
0.210895
0.2109
0.210898
0.210895
0.210898
0.210898
0.210902
0.210894
0.210901
0.210918
0.210938
0.210956
0.210976
0.211
0.211019
0.211024
0.21102
0.211005
0.21099
0.210977
0.210957
0.210919
0.210904
0.210842
0.210827
0.210796
0.210783
0.210778
0.210775
0.210771
0.210766
0.210753
0.210756
0.210755
0.210757
0.210756
0.210751
0.210744
0.210734
0.210721
0.210723
0.210726
0.210727
0.210732
0.210729
0.210725
0.210722
0.210719
0.210715
0.21071
0.210704
0.210701
0.210697
0.210694
0.210692
0.210691
0.210692
0.210694
0.210696
0.210697
0.210698
0.210698
0.210699
0.210699
0.210699
0.210699
0.210697
0.210696
0.210695
0.210695
0.210696
0.210698
0.2107
0.210701
0.210701
0.210699
0.210698
0.210697
0.210699
0.2107
0.210702
0.210707
0.21071
0.210711
0.210711
0.210712
0.210715
0.210719
0.210728
0.210732
0.210736
0.210738
0.210739
0.210734
0.210732
0.21073
0.210733
0.210735
0.210735
0.210736
0.210737
0.219867
0.220205
0.223253
0.228094
0.230372
0.232741
0.233268
0.232626
0.230207
0.226165
0.222286
0.220312
0.219446
0.218901
0.218484
0.218058
0.21782
0.217719
0.217598
0.217443
0.217254
0.217046
0.216865
0.216735
0.216646
0.216578
0.216511
0.216458
0.216459
0.216408
0.216159
0.215718
0.215125
0.214452
0.213802
0.21318
0.212636
0.212161
0.211777
0.21149
0.211282
0.21115
0.211078
0.211033
0.211004
0.210985
0.210966
0.210939
0.21091
0.210891
0.210883
0.210881
0.210882
0.210885
0.210889
0.210895
0.210901
0.210899
0.210896
0.210898
0.210898
0.210903
0.210897
0.210904
0.21092
0.210939
0.210956
0.210976
0.211
0.211016
0.211019
0.211015
0.211001
0.210986
0.210974
0.210955
0.210918
0.210903
0.210842
0.210827
0.210796
0.210783
0.210778
0.210774
0.210769
0.210764
0.210753
0.210748
0.210746
0.210749
0.210752
0.210749
0.210744
0.210734
0.210725
0.210727
0.21073
0.210727
0.210729
0.210731
0.210728
0.210725
0.210721
0.210716
0.21071
0.210704
0.2107
0.210696
0.210693
0.210692
0.210691
0.210692
0.210694
0.210695
0.210697
0.210697
0.210698
0.210698
0.210698
0.210699
0.210698
0.210696
0.210696
0.210695
0.210694
0.210695
0.210697
0.2107
0.210701
0.210701
0.2107
0.210699
0.210698
0.210698
0.210699
0.2107
0.210702
0.210703
0.210704
0.210704
0.210704
0.210706
0.21071
0.210713
0.210716
0.210719
0.210722
0.210723
0.210723
0.210723
0.21072
0.210719
0.21072
0.210724
0.210727
0.210729
0.219072
0.219627
0.221546
0.22396
0.225906
0.227256
0.227284
0.227104
0.226431
0.224715
0.222166
0.219977
0.218835
0.218314
0.217991
0.21797
0.217938
0.217786
0.217621
0.217443
0.217238
0.217016
0.216824
0.216685
0.216575
0.216459
0.216339
0.216233
0.216191
0.216174
0.215985
0.215587
0.215026
0.21439
0.213778
0.213179
0.212645
0.212176
0.211796
0.211507
0.211292
0.211158
0.211082
0.211035
0.211006
0.210987
0.210969
0.210942
0.210913
0.210894
0.210884
0.210881
0.21088
0.210882
0.210889
0.210898
0.210903
0.210901
0.210898
0.210899
0.210901
0.210905
0.210899
0.210907
0.210924
0.210944
0.210961
0.210981
0.211004
0.21102
0.211024
0.211021
0.211005
0.210988
0.210975
0.210956
0.210918
0.210904
0.210845
0.210829
0.2108
0.21079
0.210786
0.210782
0.210778
0.210773
0.210761
0.210759
0.210759
0.210763
0.210765
0.210762
0.210757
0.210746
0.210733
0.210732
0.210735
0.210739
0.210737
0.210733
0.210731
0.210729
0.210725
0.21072
0.210714
0.210708
0.210704
0.210698
0.210695
0.210693
0.210691
0.210692
0.210694
0.210696
0.210698
0.210698
0.210699
0.210699
0.210699
0.210699
0.210699
0.210696
0.210695
0.210696
0.210697
0.210698
0.2107
0.210703
0.210704
0.210703
0.210702
0.210701
0.210702
0.210704
0.210705
0.210708
0.21071
0.210713
0.210713
0.210713
0.210713
0.210714
0.21072
0.210719
0.210724
0.210728
0.210728
0.210726
0.210725
0.210728
0.210721
0.210723
0.210725
0.210726
0.210726
0.210726
0.218692
0.219189
0.219858
0.220653
0.222162
0.223908
0.224572
0.224618
0.224305
0.223225
0.221471
0.22002
0.218966
0.218341
0.218014
0.217834
0.217753
0.217645
0.217534
0.217371
0.217169
0.216932
0.216754
0.21664
0.216561
0.216503
0.216445
0.2164
0.216406
0.216357
0.216111
0.215681
0.215105
0.214453
0.21382
0.213209
0.212668
0.212193
0.211801
0.211502
0.211287
0.211155
0.211081
0.211035
0.211007
0.21099
0.210973
0.210946
0.210917
0.210901
0.210895
0.21089
0.210887
0.210889
0.210893
0.210899
0.210904
0.210901
0.210898
0.210898
0.210901
0.210907
0.210899
0.210907
0.210923
0.210944
0.210963
0.210983
0.211005
0.21102
0.211023
0.211019
0.211004
0.210989
0.210977
0.210958
0.210921
0.210905
0.210845
0.210828
0.210798
0.210787
0.210782
0.210777
0.21077
0.210765
0.210755
0.210759
0.210755
0.210751
0.210752
0.210748
0.210742
0.210732
0.210725
0.210727
0.21073
0.210728
0.210733
0.210734
0.21073
0.210725
0.210721
0.210716
0.210709
0.210703
0.2107
0.210697
0.210696
0.210696
0.210694
0.210694
0.210695
0.210697
0.210698
0.210699
0.210699
0.210699
0.210699