/*--------------------------------*- C++ -*----------------------------------*\
| =========                 |                                                 |
| \\      /  F ield         | OpenFOAM: The Open Source CFD Toolbox           |
|  \\    /   O peration     | Version:  v1912                                 |
|   \\  /    A nd           | Website:  www.openfoam.com                      |
|    \\/     M anipulation  |                                                 |
\*---------------------------------------------------------------------------*/
FoamFile
{
    version     2.0;
    format      ascii;
    class       volVectorField;
    location    "60";
    object      U;
}
// * * * * * * * * * * * * * * * * * * * * * * * * * * * * * * * * * * * * * //

dimensions      [0 1 -1 0 0 0 0];


internalField   nonuniform List<vector> 
14268
(
(-0.376922 -0.0190048 0)
(-0.337268 -0.0170213 -1.47941e-25)
(-0.296477 -0.0150183 1.37436e-25)
(-0.255245 -0.0128454 0)
(-0.210654 -0.0109359 0)
(-0.168664 -0.00828555 0)
(-0.117986 -0.00653162 0)
(-0.0719172 -0.0037347 0)
(-0.376099 -0.0194697 0)
(-0.33647 -0.0175118 -3.76488e-25)
(-0.295707 -0.0154615 3.42067e-25)
(-0.254494 -0.0135353 0)
(-0.209961 -0.0110222 0)
(-0.16794 -0.00948907 0)
(-0.117511 -0.00629532 0)
(-0.0718634 -0.00436719 0)
(-0.376174 -0.0197713 0)
(-0.336547 -0.0178117 0)
(-0.295782 -0.0158337 5.32404e-25)
(-0.254579 -0.0136912 0)
(-0.210015 -0.0118045 0)
(-0.168059 -0.00923943 0)
(-0.117628 -0.00748816 0)
(-0.0721021 -0.00473779 0)
(-0.376144 -0.020294 9.60803e-25)
(-0.336515 -0.018358 0)
(-0.295753 -0.0163307 7.89507e-25)
(-0.254536 -0.0144229 -7.66243e-25)
(-0.210002 -0.0119606 0)
(-0.16799 -0.0103928 0)
(-0.117732 -0.0074138 0)
(-0.072263 -0.00520957 0)
(-0.376107 -0.0205995 1.20827e-24)
(-0.336477 -0.018664 0)
(-0.29571 -0.0167101 0)
(-0.254503 -0.0146003 -6.15782e-31)
(-0.209939 -0.0127019 0)
(-0.167982 -0.0102574 0)
(-0.117758 -0.00840945 0)
(-0.0723706 -0.00581773 0)
(-0.376063 -0.0210782 0)
(-0.336431 -0.0191621 0)
(-0.295667 -0.0171616 0)
(-0.254448 -0.0152653 1.22509e-24)
(-0.20991 -0.0129 0)
(-0.16791 -0.0112484 0)
(-0.117823 -0.00856982 0)
(-0.0725174 -0.00599044 0)
(-0.37602 -0.0214517 -1.77417e-24)
(-0.336387 -0.0195407 0)
(-0.295616 -0.0176039 0)
(-0.254407 -0.0155404 0)
(-0.209844 -0.0135798 0)
(-0.167874 -0.0113085 -1.43793e-24)
(-0.117849 -0.00928925 0)
(-0.072571 -0.00693754 0)
(-0.375984 -0.0218548 -2.00064e-24)
(-0.336347 -0.0199657 -1.83233e-24)
(-0.295574 -0.0180081 0)
(-0.254353 -0.0160993 0)
(-0.209797 -0.0138617 0)
(-0.167803 -0.0120825 -1.38698e-24)
(-0.117871 -0.00974078 0)
(-0.0727187 -0.006748 0)
(-0.37598 -0.0222745 0)
(-0.336342 -0.0203783 -2.09568e-24)
(-0.295567 -0.0184442 1.87511e-24)
(-0.254347 -0.0164443 0)
(-0.209784 -0.0144347 0)
(-0.167791 -0.0123479 0)
(-0.117988 -0.0101627 0)
(-0.0731111 -0.00807175 0)
(-0.37618 -0.0226943 0)
(-0.336553 -0.0208285 0)
(-0.295795 -0.0188998 2.11675e-24)
(-0.254588 -0.0169904 0)
(-0.210076 -0.0148483 0)
(-0.168112 -0.012954 0)
(-0.118646 -0.0109292 0)
(-0.0748139 -0.0076678 -2.40544e-24)
(-0.377049 -0.0231441 0)
(-0.337515 -0.0212865 0)
(-0.296874 -0.0193841 0)
(-0.255815 -0.0174423 0)
(-0.211545 -0.015416 0)
(-0.169834 -0.013488 0)
(-0.121399 -0.0112316 0)
(-0.0793572 -0.0093195 -3.17548e-24)
(-0.379153 -0.0236298 3.18826e-24)
(-0.33991 -0.021795 0)
(-0.299641 -0.0199127 0)
(-0.259051 -0.0180354 0)
(-0.215475 -0.0160085 0)
(-0.174655 -0.0141118 0)
(-0.127964 -0.0123431 0)
(-0.0860401 -0.00934437 0)
(-0.381368 -0.024232 -5.65585e-31)
(-0.342546 -0.0224349 0)
(-0.302833 -0.020602 0)
(-0.262957 -0.018753 0)
(-0.220372 -0.0168183 0)
(-0.180936 -0.0150319 0)
(-0.135764 -0.0130291 0)
(-0.0903891 -0.0106421 0)
(-0.382965 -0.0245527 -3.68326e-24)
(-0.344453 -0.0227695 0)
(-0.305144 -0.0209491 0)
(-0.26578 -0.0191404 0)
(-0.223934 -0.0172272 0)
(-0.185375 -0.0154702 0)
(-0.141332 -0.0138397 0)
(-0.0937581 -0.010926 0)
(-0.380834 -0.0265381 0)
(-0.341955 -0.0246469 0)
(-0.302121 -0.0227204 6.02495e-25)
(-0.262091 -0.0207569 0)
(-0.219394 -0.0186191 0)
(-0.178946 -0.0165169 0)
(-0.133481 -0.0144822 0)
(-0.0837558 -0.0116496 0)
(-0.376642 -0.0279547 0)
(-0.337137 -0.0258863 0)
(-0.296487 -0.023737 1.58471e-24)
(-0.25539 -0.0215427 0)
(-0.211258 -0.0193477 3.30509e-24)
(-0.168829 -0.0171047 0)
(-0.121247 -0.0153682 -3.6701e-24)
(-0.0741771 -0.0119118 0)
(-0.376654 -0.0313036 -1.14953e-24)
(-0.337204 -0.029045 0)
(-0.296628 -0.0267061 2.50781e-24)
(-0.255601 -0.0243121 0)
(-0.211526 -0.0217581 6.40275e-24)
(-0.169092 -0.0190759 -3.63988e-24)
(-0.121643 -0.0166451 -3.02631e-24)
(-0.075257 -0.0131883 -3.45918e-24)
(-0.37634 -0.0332386 -2.38823e-24)
(-0.336892 -0.0308495 0)
(-0.296317 -0.0283539 1.94288e-24)
(-0.255302 -0.0257618 0)
(-0.211295 -0.0232015 2.87395e-24)
(-0.168939 -0.0204658 -8.31718e-24)
(-0.121776 -0.0184986 0)
(-0.0753631 -0.0142198 -3.04866e-24)
(-0.376077 -0.0363088 -9.87986e-25)
(-0.336693 -0.0337159 0)
(-0.296192 -0.0310258 0)
(-0.255237 -0.028234 0)
(-0.211325 -0.0253488 0)
(-0.169077 -0.0221193 -4.75839e-24)
(-0.122065 -0.0194214 0)
(-0.0754445 -0.0151728 0)
(-0.37503 -0.0384537 0)
(-0.335656 -0.0356548 0)
(-0.295191 -0.0327547 0)
(-0.254272 -0.029737 0)
(-0.210397 -0.0267777 0)
(-0.168199 -0.0235207 0)
(-0.121203 -0.0212472 0)
(-0.0746709 -0.0163062 0)
(-0.374003 -0.0415166 0)
(-0.334566 -0.0386553 0)
(-0.294057 -0.0356125 0)
(-0.253056 -0.032438 0)
(-0.209179 -0.0291554 0)
(-0.167046 -0.0254753 0)
(-0.120305 -0.0224645 0)
(-0.0736777 -0.0173958 0)
(-0.372703 -0.0468461 0)
(-0.333175 -0.0437915 0)
(-0.292492 -0.0406985 1.24317e-24)
(-0.251235 -0.0373818 0)
(-0.207015 -0.0347324 -1.68539e-24)
(-0.164735 -0.0311706 0)
(-0.117248 -0.0299512 1.60546e-24)
(-0.0701427 -0.024353 2.10617e-24)
(-0.372739 -0.0602116 0)
(-0.333076 -0.0577706 0)
(-0.29232 -0.055201 7.20033e-25)
(-0.25086 -0.0525243 0)
(-0.206942 -0.0494657 -1.31151e-24)
(-0.163903 -0.045723 0)
(-0.118217 -0.043883 1.31652e-24)
(-0.0708815 -0.0376614 -1.1359e-26)
(-0.371945 -0.0695856 0)
(-0.332284 -0.067281 0)
(-0.291593 -0.0649096 9.47948e-26)
(-0.250177 -0.0622058 0)
(-0.206974 -0.0604878 0)
(-0.163393 -0.0567139 0)
(-0.11911 -0.0572135 0)
(-0.0704662 -0.0511284 -5.25531e-25)
(-0.37152 -0.0823617 0)
(-0.33182 -0.0804329 0)
(-0.29112 -0.078412 8.14582e-25)
(-0.249517 -0.0761297 0)
(-0.206568 -0.0741371 0)
(-0.162357 -0.0701522 0)
(-0.11883 -0.070744 0)
(-0.0704235 -0.0644751 1.26654e-25)
(-0.370935 -0.0922975 0)
(-0.331168 -0.090559 2.21959e-24)
(-0.290399 -0.0888008 0)
(-0.248693 -0.086603 -1.01131e-24)
(-0.206189 -0.0858411 0)
(-0.161565 -0.0820105 0)
(-0.118479 -0.0835796 0)
(-0.0703394 -0.0786768 7.58537e-25)
(-0.370488 -0.104665 0)
(-0.330668 -0.10328 1.01335e-26)
(-0.289882 -0.101761 0)
(-0.248066 -0.0998489 -1.66214e-24)
(-0.20573 -0.0987535 -1.28673e-24)
(-0.160878 -0.0947441 0)
(-0.117896 -0.0966841 0)
(-0.0699286 -0.0915386 0)
(-0.369854 -0.114894 0)
(-0.329957 -0.113776 -1.01682e-26)
(-0.289123 -0.112701 0)
(-0.247228 -0.111127 0)
(-0.205159 -0.111006 -1.07978e-26)
(-0.160227 -0.107735 -1.55324e-24)
(-0.117163 -0.10986 0)
(-0.0698007 -0.106202 -1.75514e-24)
(-0.369494 -0.127018 0)
(-0.329488 -0.126082 4.50242e-24)
(-0.28863 -0.124937 3.57121e-24)
(-0.246653 -0.123448 0)
(-0.204615 -0.123031 2.44898e-24)
(-0.159635 -0.119658 -2.07611e-24)
(-0.116334 -0.121905 2.114e-24)
(-0.0693834 -0.118698 -2.17206e-24)
(-0.370088 -0.137995 0)
(-0.329706 -0.137321 0)
(-0.288552 -0.136607 1.04749e-26)
(-0.246291 -0.135494 0)
(-0.204227 -0.135654 3.04782e-24)
(-0.159197 -0.13301 0)
(-0.115514 -0.135339 1.1082e-26)
(-0.0690242 -0.133042 0)
(-0.374815 -0.14988 -7.26169e-24)
(-0.33341 -0.149471 0)
(-0.291405 -0.148986 -4.9396e-24)
(-0.248389 -0.148174 0)
(-0.205797 -0.148335 3.61226e-24)
(-0.160342 -0.146085 -3.14167e-24)
(-0.116132 -0.148278 -1.10834e-26)
(-0.0696979 -0.146755 -2.97359e-24)
(-0.388848 -0.161224 -8.23033e-24)
(-0.345613 -0.160747 0)
(-0.301859 -0.160233 0)
(-0.257231 -0.159487 0)
(-0.213396 -0.159689 4.24443e-24)
(-0.166834 -0.157968 -3.7227e-24)
(-0.121547 -0.159981 3.6828e-24)
(-0.0747042 -0.159216 -3.31027e-24)
(-0.407651 -0.175542 0)
(-0.36378 -0.175396 0)
(-0.31934 -0.175124 0)
(-0.273825 -0.174601 0)
(-0.229008 -0.174619 4.74487e-24)
(-0.181506 -0.17334 4.19781e-24)
(-0.134841 -0.174786 -4.17543e-24)
(-0.0870075 -0.174623 0)
(-0.41937 -0.18662 0)
(-0.375193 -0.186454 7.62859e-24)
(-0.330632 -0.186272 0)
(-0.285263 -0.186109 0)
(-0.240766 -0.186188 0)
(-0.193763 -0.185836 4.20626e-24)
(-0.147129 -0.187118 -1.11294e-26)
(-0.0991529 -0.187584 3.79098e-24)
(-0.421561 -0.201965 0)
(-0.375746 -0.200752 7.51915e-24)
(-0.329535 -0.1997 0)
(-0.283116 -0.199262 0)
(-0.23859 -0.198842 0)
(-0.192036 -0.199115 0)
(-0.146204 -0.200191 5.32838e-24)
(-0.0980425 -0.202391 4.29669e-24)
(-0.485906 -0.215858 0)
(-0.416919 -0.21705 0)
(-0.351999 -0.217184 0)
(-0.293036 -0.217141 0)
(-0.241166 -0.216412 0)
(-0.190768 -0.217302 0)
(-0.141964 -0.217705 6.03704e-24)
(-0.0891941 -0.219299 0)
(-0.583868 -0.232281 1.29533e-23)
(-0.58188 -0.232549 0)
(-0.557573 -0.230495 -2.22635e-24)
(-0.511253 -0.228823 0)
(-0.451473 -0.226748 -3.28072e-24)
(-0.375247 -0.226638 0)
(-0.334561 -0.227031 1.4311e-26)
(-0.30673 -0.233739 0)
(0.484374 -0.207821 -3.22478e-27)
(0.382558 -0.219361 1.52756e-23)
(0.272374 -0.229301 -8.87715e-24)
(0.147326 -0.236331 -7.20123e-24)
(0.0160962 -0.241685 -5.03149e-24)
(-0.129507 -0.238872 0)
(-0.272209 -0.234537 -2.10228e-23)
(-0.396656 -0.24917 2.39218e-23)
(0.905833 -0.179225 -1.90792e-23)
(0.913183 -0.173506 -4.24129e-27)
(0.92061 -0.17005 1.71491e-23)
(0.9274 -0.166879 -2.05593e-23)
(0.931111 -0.164103 0)
(0.924325 -0.16127 0)
(0.901531 -0.15464 0)
(0.717208 -0.144841 8.41985e-24)
(0.887144 -0.206727 0)
(0.904819 -0.2104 -2.41495e-23)
(0.927485 -0.213381 2.093e-23)
(0.953247 -0.214667 0)
(0.981888 -0.211252 0)
(1.01128 -0.196925 0)
(1.0483 -0.150612 -1.35791e-23)
(1.11295 -0.097374 0)
(0.720847 -0.197095 2.61093e-23)
(0.734438 -0.199137 2.62273e-23)
(0.751757 -0.200576 2.71591e-23)
(0.772087 -0.202337 3.00855e-23)
(0.796113 -0.203085 -3.37564e-23)
(0.827165 -0.201076 3.51667e-23)
(0.876772 -0.198415 2.90862e-27)
(0.972976 -0.187436 2.69224e-23)
(0.630229 -0.206098 -4.13492e-27)
(0.6372 -0.2099 1.80926e-23)
(0.647128 -0.212472 1.62954e-23)
(0.65928 -0.21403 -3.45133e-27)
(0.673631 -0.212995 -1.6383e-23)
(0.692595 -0.20689 1.76879e-23)
(0.722219 -0.191885 2.17107e-23)
(0.777584 -0.169532 2.04968e-23)
(0.58353 -0.205843 -1.96952e-23)
(0.588535 -0.210878 0)
(0.596186 -0.214344 0)
(0.605973 -0.217506 -1.72991e-23)
(0.617559 -0.219242 0)
(0.632919 -0.217321 1.64859e-23)
(0.653595 -0.216361 0)
(0.695838 -0.212395 0)
(0.549608 -0.207316 0)
(0.55397 -0.212439 0)
(0.560638 -0.216423 -1.54743e-23)
(0.569739 -0.21969 0)
(0.58048 -0.222034 1.47158e-23)
(0.595492 -0.220619 1.40242e-23)
(0.615487 -0.217838 -1.46078e-23)
(0.650367 -0.209717 0)
(0.519572 -0.207688 0)
(0.523985 -0.213483 0)
(0.530274 -0.217988 3.59986e-27)
(0.538958 -0.221815 0)
(0.549371 -0.224592 1.38729e-23)
(0.564133 -0.223941 0)
(0.582228 -0.225941 2.98835e-27)
(0.612863 -0.225415 0)
(0.488259 -0.211142 -1.82713e-23)
(0.492865 -0.217414 -1.68546e-23)
(0.498763 -0.222681 3.12771e-23)
(0.507003 -0.227117 -1.47234e-23)
(0.516415 -0.231477 0)
(0.530486 -0.232554 -1.32147e-23)
(0.546912 -0.236553 1.31705e-23)
(0.573181 -0.236953 -1.24855e-23)
(0.458423 -0.209519 -1.82967e-23)
(0.463633 -0.216001 -1.68217e-23)
(0.469616 -0.221624 1.55955e-23)
(0.477709 -0.226489 -1.45653e-23)
(0.487042 -0.230983 0)
(0.501129 -0.232293 -1.28336e-23)
(0.517067 -0.236678 0)
(0.540132 -0.239297 -1.0871e-23)
(0.422912 -0.214074 0)
(0.428246 -0.221024 0)
(0.434595 -0.227035 1.58109e-23)
(0.443033 -0.232355 0)
(0.451814 -0.238199 0)
(0.465226 -0.241033 0)
(0.479633 -0.247738 1.22357e-23)
(0.500418 -0.252029 0)
(0.389724 -0.212463 -9.60388e-24)
(0.394882 -0.219627 -8.75887e-24)
(0.401398 -0.226071 1.60875e-23)
(0.410277 -0.231762 -7.42902e-24)
(0.419209 -0.23771 6.97462e-24)
(0.432255 -0.241007 0)
(0.446348 -0.24765 1.22016e-23)
(0.46473 -0.253662 -5.63251e-24)
(0.353987 -0.216412 -9.98554e-24)
(0.357507 -0.224422 -1.82359e-23)
(0.363327 -0.231351 8.34669e-24)
(0.372142 -0.2375 -1.53219e-23)
(0.380811 -0.244317 -1.54775e-27)
(0.393415 -0.248646 0)
(0.406517 -0.256581 0)
(0.423388 -0.26329 -5.68414e-24)
(0.327069 -0.214428 0)
(0.32745 -0.223248 -1.91205e-23)
(0.330653 -0.230908 1.75224e-23)
(0.337828 -0.237546 1.59072e-27)
(0.346417 -0.244298 -7.38853e-24)
(0.358821 -0.249164 -6.80881e-24)
(0.371669 -0.257058 6.32199e-24)
(0.386423 -0.265197 0)
(0.305531 -0.215126 1.09902e-23)
(0.301068 -0.225051 -2.01873e-23)
(0.299718 -0.233915 9.23678e-24)
(0.302657 -0.24185 1.69716e-23)
(0.308794 -0.249717 7.80008e-24)
(0.319684 -0.255557 1.44189e-27)
(0.331645 -0.263975 6.62598e-24)
(0.34567 -0.272268 6.09175e-24)
(0.295392 -0.21211 1.14195e-23)
(0.286338 -0.22278 1.6569e-27)
(0.280794 -0.232142 -9.77492e-24)
(0.278462 -0.241388 9.00682e-24)
(0.28044 -0.250045 -1.47581e-27)
(0.287372 -0.256878 7.68907e-24)
(0.297565 -0.265547 -7.07228e-24)
(0.309771 -0.274842 6.47745e-24)
(0.290646 -0.209603 0)
(0.278336 -0.220948 2.19185e-23)
(0.269395 -0.231225 -1.02452e-23)
(0.262634 -0.241527 0)
(0.258905 -0.251574 -8.84805e-24)
(0.259328 -0.260084 0)
(0.265373 -0.269768 -7.58032e-24)
(0.274483 -0.279575 6.97895e-24)
(0.289514 -0.205182 1.18132e-23)
(0.276303 -0.21715 -1.60192e-27)
(0.265721 -0.228358 0)
(0.256664 -0.239447 9.88968e-24)
(0.249323 -0.249894 0)
(0.244031 -0.259874 8.75836e-24)
(0.244292 -0.270817 0)
(0.246966 -0.281899 1.52002e-23)
(0.285709 -0.20185 1.19642e-23)
(0.27431 -0.213659 -2.24642e-23)
(0.264509 -0.225086 0)
(0.254435 -0.236886 1.0074e-23)
(0.245531 -0.247878 0)
(0.237682 -0.25891 -1.34874e-27)
(0.233297 -0.270673 0)
(0.229224 -0.282809 8.15124e-24)
(0.280512 -0.199576 0)
(0.269199 -0.211541 -2.27992e-23)
(0.261888 -0.222114 1.07564e-23)
(0.252407 -0.234018 -1.01998e-23)
(0.244333 -0.244756 9.69064e-24)
(0.236309 -0.256457 -9.21274e-24)
(0.229499 -0.268846 0)
(0.221598 -0.281618 0)
(0.278052 -0.195644 -1.22239e-23)
(0.265672 -0.208592 -1.15119e-23)
(0.25757 -0.219864 1.09189e-23)
(0.247128 -0.232261 -1.03467e-23)
(0.239898 -0.243024 9.80315e-24)
(0.233687 -0.254344 0)
(0.22768 -0.266166 0)
(0.219032 -0.279255 0)
(0.274226 -0.192685 1.54271e-27)
(0.262511 -0.205604 0)
(0.254589 -0.216949 0)
(0.244168 -0.22947 0)
(0.23671 -0.240541 0)
(0.22798 -0.253054 0)
(0.22182 -0.264859 0)
(0.215809 -0.277298 0)
(0.27009 -0.189873 1.24706e-23)
(0.258577 -0.203046 0)
(0.251477 -0.214139 1.10713e-23)
(0.241011 -0.22692 0)
(0.233549 -0.238102 0)
(0.22525 -0.250403 0)
(0.218138 -0.262687 -9.22446e-24)
(0.210227 -0.275887 0)
(0.266543 -0.186541 0)
(0.254766 -0.200257 0)
(0.247354 -0.211817 -1.39172e-27)
(0.23701 -0.224696 0)
(0.229821 -0.235926 1.01168e-23)
(0.221725 -0.248266 0)
(0.21462 -0.26038 -1.86373e-23)
(0.206562 -0.273415 0)
(0.262003 -0.183967 0)
(0.250705 -0.197626 0)
(0.243715 -0.209107 -1.12697e-23)
(0.233576 -0.222 0)
(0.226464 -0.23342 1.02121e-23)
(0.217616 -0.246203 0)
(0.210192 -0.258461 -9.41462e-24)
(0.202109 -0.271469 0)
(0.25809 -0.180841 6.40947e-24)
(0.246619 -0.194964 6.01498e-24)
(0.23934 -0.206772 0)
(0.229067 -0.219871 0)
(0.222267 -0.23129 0)
(0.214078 -0.243775 4.93907e-24)
(0.20689 -0.255916 0)
(0.198425 -0.269058 4.58374e-24)
(0.253702 -0.178188 6.45871e-24)
(0.242564 -0.192268 6.04698e-24)
(0.235344 -0.204167 0)
(0.225212 -0.217299 0)
(0.218334 -0.229003 0)
(0.209805 -0.241764 4.98357e-24)
(0.202671 -0.253918 0)
(0.194502 -0.266845 4.62363e-24)
(0.249582 -0.175324 0)
(0.238491 -0.189641 0)
(0.231159 -0.201774 -5.78358e-24)
(0.221059 -0.21503 5.50581e-24)
(0.214307 -0.22682 5.24155e-24)
(0.206005 -0.239498 0)
(0.199117 -0.251608 -4.83033e-24)
(0.190965 -0.264504 0)
(0.245375 -0.172607 -6.49478e-24)
(0.23462 -0.186937 0)
(0.227251 -0.199258 -5.82475e-24)
(0.217308 -0.212588 5.54774e-24)
(0.210426 -0.224636 5.28256e-24)
(0.202007 -0.237459 0)
(0.195282 -0.249548 -4.86516e-24)
(0.187449 -0.262241 0)
(0.241162 -0.169947 -6.53465e-24)
(0.230804 -0.184333 0)
(0.223359 -0.196892 5.86244e-24)
(0.213695 -0.210243 -5.5866e-24)
(0.206793 -0.222446 0)
(0.198362 -0.235312 0)
(0.191548 -0.247491 0)
(0.183836 -0.260108 0)
(0.236949 -0.167379 0)
(0.22718 -0.181687 6.2192e-24)
(0.219701 -0.194478 5.89788e-24)
(0.210375 -0.207852 -1.12421e-23)
(0.203432 -0.220221 -5.3566e-24)
(0.194945 -0.233162 0)
(0.187983 -0.245413 0)
(0.180331 -0.257973 4.75565e-24)
(0.232809 -0.16491 0)
(0.223576 -0.179178 1.24598e-23)
(0.216088 -0.19218 -5.93302e-24)
(0.207155 -0.205545 5.90596e-28)
(0.20023 -0.21802 -1.07784e-23)
(0.191859 -0.230932 5.16587e-24)
(0.184654 -0.243304 0)
(0.1769 -0.25588 4.78082e-24)
(0.228963 -0.162458 3.29912e-24)
(0.220162 -0.176709 6.25573e-24)
(0.212719 -0.189874 -5.96567e-24)
(0.204162 -0.20323 5.68115e-24)
(0.197245 -0.215811 -5.42047e-24)
(0.189022 -0.228693 5.19415e-24)
(0.181756 -0.241103 0)
(0.173893 -0.253697 0)
(0.225408 -0.160128 3.31348e-24)
(0.216949 -0.17437 0)
(0.209526 -0.187696 -2.99817e-24)
(0.201279 -0.201048 0)
(0.194402 -0.213693 2.72534e-24)
(0.1864 -0.226506 0)
(0.179152 -0.238941 -2.50615e-24)
(0.171267 -0.251514 0)
(0.222166 -0.157824 0)
(0.213977 -0.172091 0)
(0.206586 -0.185551 -3.01062e-24)
(0.198608 -0.198899 0)
(0.191728 -0.211626 5.47648e-24)
(0.18392 -0.224404 -2.6228e-24)
(0.176797 -0.236811 2.67354e-28)
(0.168982 -0.249337 0)
(0.218937 -0.155581 -3.33569e-24)
(0.211036 -0.169858 0)
(0.203691 -0.183431 0)
(0.195934 -0.1968 0)
(0.189084 -0.20958 2.74979e-24)
(0.181516 -0.222304 -5.26599e-24)
(0.174476 -0.234712 -2.6338e-28)
(0.166819 -0.247153 -2.43217e-24)
(0.215311 -0.153425 -5.0168e-24)
(0.207688 -0.167718 0)
(0.200418 -0.181388 -1.51607e-24)
(0.192936 -0.194745 0)
(0.186067 -0.207602 -1.3801e-24)
(0.178682 -0.220306 -2.64156e-24)
(0.171767 -0.232688 -3.80138e-24)
(0.16427 -0.245042 -2.43847e-24)
(0.210443 -0.151236 -1.67544e-24)
(0.203079 -0.165553 0)
(0.195962 -0.179295 1.32545e-28)
(0.188706 -0.192677 0)
(0.181923 -0.205575 -1.38384e-24)
(0.174754 -0.218259 0)
(0.167901 -0.230636 -1.26993e-24)
(0.16056 -0.242911 0)
(0.204945 -0.149019 0)
(0.197686 -0.163358 0)
(0.190667 -0.177139 2.28386e-24)
(0.183532 -0.190518 0)
(0.17675 -0.203447 6.93595e-25)
(0.169638 -0.216115 0)
(0.162791 -0.228462 -6.36207e-25)
(0.155533 -0.240659 0)
(0.199947 -0.146872 0)
(0.192813 -0.161225 0)
(0.185871 -0.175046 7.63216e-25)
(0.178812 -0.18843 0)
(0.172049 -0.201373 6.95614e-25)
(0.165 -0.214009 0)
(0.158143 -0.226331 -6.37863e-25)
(0.15091 -0.23846 0)
(0.187332 -0.14133 0)
(0.180546 -0.155712 0)
(0.173862 -0.169569 0)
(0.167051 -0.182946 0)
(0.160403 -0.195898 0)
(0.153514 -0.208473 0)
(0.146732 -0.220701 0)
(0.139628 -0.232642 0)
(0.167363 -0.131764 0)
(0.161326 -0.146116 0)
(0.155255 -0.159948 0)
(0.149061 -0.173272 0)
(0.142868 -0.186155 0)
(0.136489 -0.198601 0)
(0.130072 -0.210655 0)
(0.123406 -0.222305 0)
(0.146882 -0.124156 0)
(0.141651 -0.138381 0)
(0.136321 -0.152093 0)
(0.130898 -0.165285 0)
(0.125377 -0.178028 0)
(0.11973 -0.190291 0)
(0.113946 -0.202131 0)
(0.107986 -0.213508 0)
(0.126831 -0.117316 0)
(0.12239 -0.131395 0)
(0.117835 -0.144959 0)
(0.113162 -0.158007 0)
(0.108372 -0.170576 0)
(0.103427 -0.182645 0)
(0.0983379 -0.194246 0)
(0.0930392 -0.20536 0)
(0.106574 -0.111707 0)
(0.102843 -0.125608 0)
(0.0989822 -0.139001 0)
(0.0950109 -0.151878 0)
(0.0909043 -0.164253 0)
(0.086668 -0.176112 0)
(0.0822754 -0.187472 0)
(0.077723 -0.198333 0)
(0.0867874 -0.107053 0)
(0.0838117 -0.120779 0)
(0.0807218 -0.134008 0)
(0.0775239 -0.146722 0)
(0.0742116 -0.158917 0)
(0.0707781 -0.170592 0)
(0.0672186 -0.181741 0)
(0.0635109 -0.192372 0)
(0.0668345 -0.103449 0)
(0.0645271 -0.117028 0)
(0.0621273 -0.130112 0)
(0.0596358 -0.142686 0)
(0.0570592 -0.154736 0)
(0.0543976 -0.166264 0)
(0.0516476 -0.177252 0)
(0.0488028 -0.187685 0)
(0.0472636 -0.100735 0)
(0.0456282 -0.114195 0)
(0.0439276 -0.127169 0)
(0.0421628 -0.139639 0)
(0.0403438 -0.151595 0)
(0.0384656 -0.163029 0)
(0.0365252 -0.17392 0)
(0.0345181 -0.184235 0)
(0.0279742 -0.0989271 0)
(0.0269716 -0.112313 0)
(0.0259334 -0.125222 0)
(0.0248654 -0.137633 0)
(0.0237702 -0.149531 0)
(0.0226461 -0.160897 0)
(0.0214853 -0.171709 0)
(0.0202863 -0.181932 0)
(0.0103455 -0.0979574 0)
(0.00991018 -0.111295 0)
(0.00945356 -0.124162 0)
(0.00897812 -0.136537 0)
(0.00848493 -0.148398 0)
(0.00797464 -0.159725 0)
(0.0074448 -0.170495 0)
(0.00689697 -0.180678 0)
(-0.025821 0.00180709 0)
(0.0287088 0.00188555 0)
(0.0768269 0.00173434 0)
(0.126699 0.00127536 0)
(0.179107 0.000784922 0)
(0.233039 0.000463153 0)
(0.2869 0.000322937 0)
(0.340234 0.0001474 0)
(0.393617 5.85735e-06 0)
(0.447886 -9.994e-05 0)
(0.503612 -0.000204689 0)
(0.561076 -0.000249738 0)
(0.620804 -0.000268379 0)
(0.683248 -0.000317431 0)
(0.748841 -0.000335528 0)
(0.818258 -0.000332283 0)
(0.892144 -0.000345118 0)
(0.971253 -0.000366411 0)
(1.05602 -0.000390941 0)
(1.14654 -0.000418219 0)
(1.24248 -0.000442599 0)
(1.34255 -0.000457682 0)
(1.44436 -0.000457748 0)
(1.54447 -0.000435136 0)
(1.63824 -0.000386188 0)
(1.72047 -0.000309464 0)
(1.78586 -0.000204957 0)
(1.82895 -7.62169e-05 0)
(1.84456 7.21117e-05 0)
(1.83372 0.000218004 0)
(1.79162 0.00038272 0)
(1.71711 0.000542883 0)
(1.61331 0.000681992 0)
(1.48464 0.000790579 0)
(1.33698 0.000865958 0)
(1.1778 0.000904855 0)
(1.01362 0.000912763 0)
(0.850819 0.000887036 0)
(0.694656 0.000834126 0)
(0.549012 0.000762725 0)
(0.4164 0.000680285 0)
(0.298107 0.000594976 0)
(0.194446 0.000511636 0)
(0.105032 0.000433102 0)
(0.0292704 0.000364321 0)
(-0.0338485 0.000303025 0)
(-0.0858447 0.000246472 0)
(-0.12793 0.000196096 0)
(-0.161064 0.000152175 0)
(-0.186286 0.000113092 0)
(-0.204418 7.76539e-05 0)
(-0.216023 4.52754e-05 0)
(-0.22165 1.48165e-05 0)
(-0.221679 -1.31645e-05 0)
(-0.216559 -3.84066e-05 0)
(-0.206843 -6.10315e-05 0)
(-0.193004 -8.11281e-05 0)
(-0.175498 -9.87179e-05 0)
(-0.154894 -0.000113162 0)
(-0.131832 -0.000124697 0)
(-0.106743 -0.000133232 0)
(-0.080297 -0.000138402 0)
(-0.0531148 -0.000140632 0)
(-0.0259076 -0.000140444 0)
(0.00104705 -0.000136619 0)
(0.0267857 -0.00012824 0)
(0.0514622 -0.000120371 0)
(0.0742805 -0.000110742 0)
(0.0951222 -0.000100902 0)
(0.113997 -9.14893e-05 0)
(0.131241 -8.44701e-05 0)
(0.14728 -7.86557e-05 0)
(0.162597 -7.53501e-05 0)
(0.177492 -7.43511e-05 0)
(0.192466 -7.46772e-05 0)
(0.207431 -7.451e-05 0)
(0.222578 -7.65905e-05 0)
(0.237622 -7.83854e-05 0)
(0.253295 -8.03804e-05 0)
(0.268649 -7.85912e-05 0)
(0.283963 -7.92228e-05 0)
(0.299233 -7.67873e-05 0)
(0.313611 -6.99467e-05 0)
(0.326215 -5.9787e-05 0)
(0.336669 -4.75883e-05 0)
(0.344627 -3.35416e-05 0)
(0.349736 -1.8892e-05 0)
(0.351949 -5.17225e-06 0)
(0.352127 4.7103e-06 0)
(0.35068 1.30868e-05 0)
(0.347722 1.98116e-05 0)
(0.343699 2.3983e-05 0)
(0.339165 2.52011e-05 0)
(0.334609 2.53501e-05 0)
(0.330077 2.50586e-05 0)
(0.325632 2.41504e-05 0)
(0.321397 2.28098e-05 0)
(0.317412 2.21082e-05 0)
(0.313444 2.27573e-05 0)
(0.309122 2.59497e-05 0)
(0.303937 3.17873e-05 0)
(0.297399 3.99547e-05 0)
(0.289084 4.97118e-05 0)
(0.278784 5.99697e-05 0)
(0.266497 6.99035e-05 0)
(0.252337 7.90056e-05 0)
(0.236533 8.65298e-05 0)
(0.219412 9.22508e-05 0)
(0.201384 9.57547e-05 0)
(0.182895 9.72991e-05 0)
(0.164305 9.68493e-05 0)
(0.145974 9.43884e-05 0)
(0.128272 9.00803e-05 0)
(0.111552 8.40401e-05 0)
(0.0961604 7.62609e-05 0)
(0.0824046 6.69998e-05 0)
(0.0705521 5.65181e-05 0)
(0.0607878 4.53695e-05 0)
(0.05317 3.42162e-05 0)
(0.0476046 2.39481e-05 0)
(0.0438652 1.52834e-05 0)
(0.0416075 9.06385e-06 0)
(0.0403098 5.81183e-06 0)
(0.0393475 5.70897e-06 0)
(0.0381106 8.46632e-06 0)
(0.0361281 1.31822e-05 0)
(0.0331001 1.87782e-05 0)
(0.0289979 2.38564e-05 0)
(0.0239966 2.71866e-05 0)
(0.0185188 2.77946e-05 0)
(0.0131766 2.55166e-05 0)
(0.00855307 2.09182e-05 0)
(0.00498401 1.53312e-05 0)
(0.0025106 1.01379e-05 0)
(0.000968397 6.98246e-06 0)
(-0.000234004 6.57678e-06 0)
(-0.00168507 8.79454e-06 0)
(-0.00376461 1.25916e-05 0)
(-0.00662812 1.6346e-05 0)
(-0.010097 1.82933e-05 0)
(-0.0137494 1.75759e-05 0)
(-0.0169948 1.43356e-05 0)
(-0.0194317 9.68173e-06 0)
(-0.0209243 5.09258e-06 0)
(-0.0216248 1.67203e-06 0)
(-0.0218157 2.43999e-08 0)
(-0.0218287 -7.93077e-08 0)
(-0.0219176 4.07142e-07 0)
(-0.022144 9.95581e-07 0)
(-0.0225075 1.59663e-06 0)
(-0.0230666 3.18838e-06 0)
(-0.0240324 6.25402e-06 0)
(-0.0256978 1.06881e-05 0)
(-0.0282379 1.51303e-05 0)
(-0.0315101 1.72763e-05 0)
(-0.0349275 1.49069e-05 0)
(-0.0261843 -0.00283159 0)
(0.0280091 -0.00290816 0)
(0.0760006 -0.00272519 0)
(0.125841 -0.00230486 0)
(0.178275 -0.00186127 0)
(0.232291 -0.00155597 0)
(0.286301 -0.00141862 0)
(0.33983 -0.00124629 0)
(0.393405 -0.00112162 0)
(0.447818 -0.00104453 0)
(0.503619 -0.000971715 0)
(0.5611 -0.000955323 0)
(0.620818 -0.000989046 0)
(0.683247 -0.00100388 0)
(0.748831 -0.00106222 0)
(0.818246 -0.00114241 0)
(0.892132 -0.00122725 0)
(0.971242 -0.00132101 0)
(1.05601 -0.00141173 0)
(1.14653 -0.00150321 0)
(1.24247 -0.00158034 0)
(1.34254 -0.00163039 0)
(1.44435 -0.00163474 0)
(1.54446 -0.00157851 0)
(1.63823 -0.00144842 0)
(1.72046 -0.00123449 0)
(1.78585 -0.000933279 0)
(1.82895 -0.000551898 0)
(1.84456 -0.000110618 0)
(1.83372 0.000317478 0)
(1.79161 0.000816399 0)
(1.7171 0.00130489 0)
(1.6133 0.00173772 0)
(1.48463 0.00209251 0)
(1.33697 0.0023486 0)
(1.17779 0.00249447 0)
(1.01361 0.00252465 0)
(0.850809 0.00246191 0)
(0.694646 0.00232844 0)
(0.549001 0.00214495 0)
(0.416388 0.00193379 0)
(0.298095 0.00171041 0)
(0.194434 0.00148767 0)
(0.10502 0.00127911 0)
(0.0292583 0.00107739 0)
(-0.0338605 0.000895928 0)
(-0.0858565 0.000731724 0)
(-0.127942 0.000584508 0)
(-0.161076 0.000452816 0)
(-0.186297 0.000335584 0)
(-0.20443 0.000229547 0)
(-0.216035 0.00013282 0)
(-0.221662 4.28983e-05 0)
(-0.22169 -4.11485e-05 0)
(-0.216571 -0.000116587 0)
(-0.206854 -0.000184576 0)
(-0.193016 -0.000245432 0)
(-0.175509 -0.000298283 0)
(-0.154906 -0.000342169 0)
(-0.131843 -0.000377274 0)
(-0.106754 -0.000402958 0)
(-0.080308 -0.000417772 0)
(-0.0531254 -0.00042306 0)
(-0.025919 -0.000418889 0)
(0.00103656 -0.000410169 0)
(0.0267748 -0.000397213 0)
(0.0514514 -0.000370752 0)
(0.0742697 -0.000340003 0)
(0.0951114 -0.000308689 0)
(0.113986 -0.000279449 0)
(0.131231 -0.000256462 0)
(0.14727 -0.000241934 0)
(0.162586 -0.000234945 0)
(0.177482 -0.00023406 0)
(0.192455 -0.0002353 0)
(0.207421 -0.000237693 0)
(0.222568 -0.000237592 0)
(0.237611 -0.000240059 0)
(0.253284 -0.000244299 0)
(0.268638 -0.000238117 0)
(0.283953 -0.000239925 0)
(0.299222 -0.000232509 0)
(0.313601 -0.000211871 0)
(0.326204 -0.000181293 0)
(0.336659 -0.00014427 0)
(0.344617 -0.000101033 0)
(0.349725 -5.66341e-05 0)
(0.351939 -1.59343e-05 0)
(0.352117 1.11495e-05 0)
(0.350669 3.51656e-05 0)
(0.347712 5.45105e-05 0)
(0.343688 6.58739e-05 0)
(0.339155 6.8713e-05 0)
(0.334599 6.82556e-05 0)
(0.330066 6.68426e-05 0)
(0.325621 6.39882e-05 0)
(0.321387 6.01899e-05 0)
(0.317401 5.84235e-05 0)
(0.313433 6.11601e-05 0)
(0.309111 7.12904e-05 0)
(0.303926 8.93581e-05 0)
(0.297389 0.000114432 0)
(0.289074 0.00014418 0)
(0.278773 0.000175265 0)
(0.266487 0.000205568 0)
(0.252326 0.000232999 0)
(0.236523 0.000256092 0)
(0.219401 0.000273386 0)
(0.201373 0.000284008 0)
(0.182884 0.000288548 0)
(0.164294 0.000287045 0)
(0.145964 0.00027965 0)
(0.128261 0.000266666 0)
(0.111541 0.00024842 0)
(0.0961494 0.000225264 0)
(0.0823936 0.000197621 0)
(0.0705411 0.000166505 0)
(0.0607767 0.000133495 0)
(0.0531589 0.000100777 0)
(0.0475935 7.06694e-05 0)
(0.0438541 4.52881e-05 0)
(0.0415965 2.71525e-05 0)
(0.0402989 1.75901e-05 0)
(0.0393366 1.73347e-05 0)
(0.0380997 2.54947e-05 0)
(0.0361173 3.9747e-05 0)
(0.0330892 5.66236e-05 0)
(0.028987 7.19766e-05 0)
(0.0239856 8.20114e-05 0)
(0.0185078 8.37817e-05 0)
(0.0131655 7.67784e-05 0)
(0.00854204 6.28568e-05 0)
(0.00497291 4.61598e-05 0)
(0.00249959 3.08533e-05 0)
(0.000957393 2.16822e-05 0)
(-0.00024493 2.06994e-05 0)
(-0.00169597 2.77009e-05 0)
(-0.00377548 3.91218e-05 0)
(-0.00663903 5.01468e-05 0)
(-0.010108 5.59604e-05 0)
(-0.0137603 5.38079e-05 0)
(-0.0170058 4.41336e-05 0)
(-0.0194428 3.01927e-05 0)
(-0.0209353 1.64515e-05 0)
(-0.0216358 6.33175e-06 0)
(-0.0218266 1.5667e-06 0)
(-0.0218396 1.40311e-06 0)
(-0.0219285 3.0799e-06 0)
(-0.0221548 5.02534e-06 0)
(-0.0225184 7.68987e-06 0)
(-0.0230774 1.23873e-05 0)
(-0.0240433 2.10702e-05 0)
(-0.0257086 3.41762e-05 0)
(-0.0282487 4.73112e-05 0)
(-0.031521 5.3671e-05 0)
(-0.0349385 4.65378e-05 0)
(-0.0262648 0.000643262 0)
(0.0278883 0.000726806 0)
(0.0758766 0.000626349 0)
(0.125719 0.000154653 0)
(0.17812 -0.000381989 0)
(0.232076 -0.000723799 0)
(0.286038 -0.000834122 0)
(0.339572 -0.000982737 0)
(0.393204 -0.00110826 0)
(0.447696 -0.00122636 0)
(0.503567 -0.00136381 0)
(0.561092 -0.00146369 0)
(0.620827 -0.00154494 0)
(0.683252 -0.00162593 0)
(0.748825 -0.00171435 0)
(0.81823 -0.00180506 0)
(0.892112 -0.00191519 0)
(0.971222 -0.00204871 0)
(1.05599 -0.00218688 0)
(1.14652 -0.00233061 0)
(1.24246 -0.00245368 0)
(1.34253 -0.00253267 0)
(1.44434 -0.00253899 0)
(1.54445 -0.00244371 0)
(1.63822 -0.00222346 0)
(1.72045 -0.00186199 0)
(1.78585 -0.00135532 0)
(1.82894 -0.000717344 0)
(1.84455 2.22947e-05 0)
(1.83371 0.000736311 0)
(1.79161 0.00155503 0)
(1.7171 0.00235132 0)
(1.6133 0.00304381 0)
(1.48463 0.00359088 0)
(1.33696 0.00396386 0)
(1.17778 0.00415606 0)
(1.0136 0.00419644 0)
(0.850795 0.00410535 0)
(0.694631 0.003897 0)
(0.548986 0.00360545 0)
(0.416372 0.00325787 0)
(0.298079 0.00288633 0)
(0.194419 0.00251454 0)
(0.105005 0.00214036 0)
(0.0292442 0.00179835 0)
(-0.0338744 0.00149613 0)
(-0.0858702 0.00122109 0)
(-0.127955 0.000974647 0)
(-0.161089 0.000756083 0)
(-0.18631 0.000561125 0)
(-0.204443 0.000384452 0)
(-0.216048 0.000223079 0)
(-0.221675 7.22276e-05 0)
(-0.221703 -6.79615e-05 0)
(-0.216583 -0.000193949 0)
(-0.206866 -0.000307192 0)
(-0.193028 -0.000408093 0)
(-0.175521 -0.00049619 0)
(-0.154918 -0.00056905 0)
(-0.131855 -0.000627285 0)
(-0.106766 -0.000670057 0)
(-0.0803195 -0.000694982 0)
(-0.0531368 -0.000704144 0)
(-0.0259304 -0.000699171 0)
(0.00102549 -0.000681619 0)
(0.0267642 -0.000651491 0)