/*--------------------------------*- C++ -*----------------------------------*\
| =========                 |                                                 |
| \\      /  F ield         | OpenFOAM: The Open Source CFD Toolbox           |
|  \\    /   O peration     | Version:  v1912                                 |
|   \\  /    A nd           | Website:  www.openfoam.com                      |
|    \\/     M anipulation  |                                                 |
\*---------------------------------------------------------------------------*/
FoamFile
{
    version     2.0;
    format      ascii;
    class       volScalarField;
    location    "70";
    object      p;
}
// * * * * * * * * * * * * * * * * * * * * * * * * * * * * * * * * * * * * * //

dimensions      [1 -1 -2 0 0 0 0];


internalField   nonuniform List<scalar> 
14268
(
13762.7
13488.5
13221
12961.6
12714.9
12479.7
12252.8
12031.9
11814.7
11597
11381.6
11168.3
10954.4
10735.1
10508.6
10281.1
10053.9
9828.39
9600.9
9380.25
9158.11
8909.86
8646.52
8418.9
8204.32
7994.78
7775.1
7444.36
7078.06
6844.25
6508.81
6160.51
5938.02
5792.68
5659.95
5667.3
5266.85
5091.05
4828.71
4858.14
4382.55
4117
3983.8
3583.04
3560.17
3666.99
3564.22
3111.3
2824.67
2891.3
2769.72
2589.2
2439.5
2137.82
1789.83
1620.01
1520.75
1296.33
1314.56
1420.2
1373.76
1139.24
1102.14
1001.29
1076.07
1009.42
837.706
791.324
779.401
701.546
625.396
556.023
522.189
455.03
346.414
394.145
390.377
380.546
407.546
435.946
384.341
302.051
306.932
264.505
268.448
229.15
200.785
213.259
207.956
186.327
143.587
141.234
129.828
124.043
96.3143
96.531
89.4644
75.125
66.1095
66.5092
58.8721
49.0213
41.3413
50.4187
13661
13386.8
13119.3
12860
12613.3
12378.1
12151.2
11930.4
11713.2
11495.5
11280
11066.5
10852.5
10632.7
10406.1
10178.7
9951.69
9726.14
9497.95
9277.77
9056.07
8800.6
8539.18
8315.85
8101.67
7877.35
7651.44
7314.86
6945.23
6721.08
6401.73
6052.67
5815.99
5668.17
5539.47
5546.85
5146.98
4977.01
4709.13
4712.09
4222.34
4002.72
3892.77
3503.44
3369.55
3339.23
3210.96
2901.39
2718.48
2814.07
2625.21
2411.38
2282.43
2041.13
1734.01
1569.34
1449.67
1238.61
1245.87
1328.44
1294.97
1063.35
1032.26
942.8
1020.66
964.747
802.254
765.113
747.059
675.384
608.392
523.528
492.841
437.677
334.203
370.571
362.061
347.394
369.138
398.007
348.1
284.983
289.584
249.344
253.895
215.915
187.342
195.972
192.919
172.282
135.884
136.288
124.243
118.693
87.8169
86.7722
80.6106
67.219
59.6939
58.361
51.1973
43.3528
35.7242
44.7395
13559.2
13285
13017.6
12758.3
12511.7
12276.5
12049.7
11828.9
11611.7
11394
11178.4
10965.1
10751.1
10531.5
10304.8
10077.4
9850.32
9624.69
9396.97
9176.79
8954.7
8698.9
8438.52
8215.03
8003.1
7780.93
7557.72
7222.17
6851.54
6626.05
6309.08
5961.5
5733.04
5582.23
5449.62
5455.2
5055.1
4883.28
4615.18
4612.82
4123.56
3910.58
3800.83
3435.31
3311.21
3243.03
3280.98
2905.49
2650.94
2749.58
2545.66
2366.36
2315.47
2002.16
1683.75
1520.31
1385.84
1212.72
1188.7
1268.63
1234.71
1034.52
1002.7
912.746
999.066
920.267
782.476
751.815
730.498
664.737
596.263
491.993
457.187
426.138
322.731
362.615
351.94
342.292
361.863
370.124
337.025
278.085
273.442
237.723
240.491
204.497
176.902
183.904
176.192
158.765
132.124
132.031
118.558
116.651
86.2415
83.4175
76.1338
63.7306
54.7496
54.4086
48.5645
40.011
32.1125
42.7871
13457.5
13183.3
12915.9
12656.6
12410
12174.9
11948.1
11727.4
11510.2
11292.5
11076.8
10863.4
10649.3
10429.4
10202.7
9975.2
9748.23
9522.76
9294.73
9074.71
8852.58
8591.15
8332.55
8112.13
7898.73
7673.31
7447.39
7104.73
6728.37
6500.11
6203.18
5858.69
5617.53
5475.4
5343.95
5349.74
4948.13
4772.54
4496.86
4489.77
3992.08
3809.59
3704.09
3329.47
3177.76
3172.89
3026.26
2743.96
2531.21
2653.99
2425.11
2300.3
2153.62
1848.28
1643.22
1413.16
1301.56
1175.3
1152.52
1153.43
1206.36
997.681
954.265
871.918
935.325
762.947
717.007
733.884
702.073
638.164
576.301
445.546
415.513
384.405
303.833
347.121
342.535
318.489
316.548
354.624
293.349
266.611
251.509
225.193
222.563
194.933
165.846
186.874
173.208
139.657
120.365
126.695
115.341
110.846
77.9065
61.7488
51.1932
46.9544
46.2644
52.3252
47.2576
34.4401
24.8788
31.651
13355.7
13081.5
12814.1
12554.9
12308.4
12073.3
11846.6
11625.8
11408.6
11190.9
10975.3
10762
10547.9
10328.2
10101.5
9874
9646.96
9421.36
9193.86
8973.89
8750.82
8489.98
8230.67
8009.13
7805.4
7586.91
7355.12
7008.93
6626.4
6393.12
6100.21
5754.87
5533.24
5382.28
5250.54
5254.12
4854.85
4675.17
4399.84
4408.77
3916.55
3725.36
3614.64
3233.19
3116.45
3045.21
2216.7
2569.31
2459.87
2551.12
2386.33
2233.41
1835.75
1550.58
1588.36
1416
1325.22
1121.23
1090.62
1083.38
1199.12
955.697
933.502
833.84
818.716
670.941
698.164
719.585
647.702
575.316
536.336
456.846
429.359
374.569
303.628
330.843
320.848
256.606
289.197
351.724
268.863
255.701
246.663
217.829
204.989
187.852
157.362
184.139
178.386
149.889
120.508
122.178
107.837
108.884
64.0954
41.0418
41.7169
37.0389
45.3653
51.0413
44.3594
32.219
13.295
23.1698
13254
12979.8
12712.4
12453.2
12206.7
11971.7
11745
11524.3
11307.1
11089.4
10873.7
10660.4
10446.2
10226.2
9999.44
9771.92
9544.98
9319.56
9091.79
8871.39
8647.16
8385.33
8125.76
7903.12
7706.97
7482.16
7243.48
6888.11
6491.11
6252.92
5977.84
5632.35
5407
5273.68
5144.97
5149.42
4750.44
4571.74
4291.58
4302.85
3805.71
3631.16
3518.33
3133.44
2939.59
2825.29
2066.74
1792.97
2373.85
2454.78
2283.16
1976.68
1542.9
1570.97
1530.23
1384.51
1309.49
1054.4
945.192
1060.83
1160.97
917.093
922.961
764.057
658.47
722.132
717.951
701.81
546.179
537.33
512.112
457.134
429.089
377.956
290.438
305.823
259.137
243.136
292.956
342.737
269.717
244.636
236.954
207.82
187.766
181.516
145.759
176.44
175.795
150.931
121.34
116.921
104.544
102.358
49.3486
50.779
54.5097
40.0369
45.4604
46.7213
41.3703
30.5372
10.395
-0.0458734
13152.2
12878
12610.6
12351.4
12105
11870.1
11643.4
11422.8
11205.6
10987.8
10772.1
10558.9
10344.9
10125.1
9898.28
9670.71
9443.7
9218.11
8990.79
8769.03
8542.9
8286.78
8028.06
7801.87
7614.89
7390.82
7148.72
6788.01
6371.14
6123.09
5852.53
5513.3
5315.64
5177.12
5043.92
5045.21
4653.42
4480.13
4208.33
4207.77
3712.19
3541.24
3425.14
3056.83
2863.93
2620.79
2157.05
1766.01
2324.11
2395.81
2217.8
1720.19
1636.36
1791.11
1523.24
1345.65
1292.34
1089.18
1007.83
1072.69
1136.04
883.584
910.047
746.711
710.355
797.407
713.258
657.656
494.972
558.479
530.497
457.864
432.109
374.85
279.321
261.859
231.248
270.508
301.215
331.101
267.714
232.109
230.472
196.98
190.261
176.938
141.514
172.127
168.454
150.9
119.599
101.297
95.7087
99.7908
54.9223
66.8016
64.3967
52.0388
45.1552
44.4133
38.8589
29.2931
15.7837
6.22473
13050.5
12776.2
12508.8
12249.7
12003.3
11768.4
11541.8
11321.3
11104.1
10886.2
10670.6
10457.3
10243.2
10023.2
9796.34
9568.75
9341.79
9116.41
8888.66
8664.43
8438.11
8184.19
7926.91
7701.67
7516.04
7284.23
7034.64
6667.63
6223.03
5969.91
5716.22
5363.48
5201.5
5061.99
4930.18
4934.08
4543.51
4378.69
4104.08
4082.28
3580.36
3424.62
3329.33
2982.01
2745.5
1808.45
2071
1853.88
2229.76
2328.68
2018.69
1357.15
1684.63
1781.38
1443.36
1289.71
1240.9
1066.26
1046.63
1074.5
1084.72
789.087
898.743
725.89
745.258
786.353
682.704
615.022
517.44
586.209
507.733
439.203
411.948
365.087
258.385
210.453
275.24
287.58
305.999
323.399
271.857
222.498
218.059
187.999
200.958
172.968
137.159
147.626
139.313
143.08
115.685
78.5271
52.437
85.0449
62.5314
67.1922
61.2251
49.6549
40.4327
39.759
36.1832
26.2706
18.3586
8.50627
12948.7
12674.4
12407
12147.9
11901.5
11666.7
11440.2
11219.7
11002.5
10784.6
10569
10355.9
10141.8
9921.99
9695.15
9467.42
9240.47
9014.93
8787.06
8560.03
8334.49
8084.96
7829.73
7603.17
7419.99
7188.32
6936.67
6563.72
6121.61
5818.51
5590.94
5209.18
5108.56
4955.35
4822.93
4830.76
4437.83
4284.21
4012.98
3971.74
3466.32
3316.52
3234.88
2918.22
2700.38
1789.06
2148.59
1857.39
2102.91
2191.02
1670.52
1452.66
1892.21
1711.32
1260.6
1246.75
1224.89
1022.08
1043.97
1087.63
1051.14
709.803
875.626
709.352
798.521
722.476
657.848
622.762
532.318
592.731
488.49
419.784
401.959
352.039
215.329
233.177
294.15
285.54
300.424
291.928
252.754
197.715
209.917
173.625
198.988
162.171
133.648
82.1755
101.895
142.357
113.005
84.1369
32.8989
47.2623
53.6961
62.7294
56.7378
47.3707
38.4889
28.1357
31.1716
24.2632
17.6886
13.0268
12846.9
12572.6
12305.2
12046.1
11799.8
11565
11338.6
11118.2
10901
10683
10467.4
10254.3
10040.3
9820.19
9593.29
9365.64
9138.7
8913.29
8684.64
8456.03
8231.78
7980.09
7728.75
7503.72
7320.83
7079.74
6809.87
6433.43
6007.97
5628.44
5468
5087.97
4998.07
4848.88
4720.88
4733.75
4335.62
4181.48
3907.44
3889.1
3385.12
3206.35
3137.09
2847.82
2623.55
1851.06
2053.53
1885.2
1951.92
1925.94
1238.59
1592.21
1900.94
1620.51
1180.74
1204.12
1152.59
898.368
1011.58
1065.66
944.051
718.169
766.642
700.109
811.105
642.413
609.801
634.4
545.915
576.051
475.449
387.624
382.937
338.034
213.401
252.25
293.215
270.634
288.729
195.727
177.055
142.695
200.277
159.829
186.844
140.84
128.564
80.6061
106.565
132.167
108.896
102.049
44.2017
40.219
21.2546
57.5598
54.3965
39.2818
29.8294
0.986486
10.1921
21.7714
14.1261
14.7617
12745.1
12470.8
12203.3
11944.3
11698
11463.3
11237
11016.6
10799.4
10581.4
10365.8
10152.9
9938.88
9718.99
9492.05
9264.25
9037.27
8811.78
8583.46
8354.5
8131.72
7874.7
7630.42
7404.34
7221.81
6970.86
6693.17
6312.79
5900.8
5515.07
5298.85
5011.06
4906.51
4753.55
4628.5
4643.31
4243.32
4086.59
3817.67
3819.97
3318.66
3187.98
3036.9
2731.81
2512.5
1873.64
2142.7
1966.44
1923.57
1751.19
1299.34
1803.14
1779.77
1372.69
1209.94
1180.62
1067.61
705.161
978.621
1029.81
996.818
759.689
682.994
690.345
792.316
656.383
484.474
634.85
594.834
568.304
462.096
398.26
371.19
339.131
235.34
280.541
285.257
269.03
282.309
170.338
172.44
149.134
198.826
165.167
178.474
138.728
113.496
107.296
131.588
106.087
107.541
107.576
65.3449
47.3101
35.1836
46.4968
50.008
30.7967
5.53463
-8.86436
-5.49932
19.7716
8.91703
16.5866
12643.3
12369
12101.5
11842.4
11596.2
11361.6
11135.4
10915.1
10697.8
10479.8
10264.2
10051.3
9837.36
9617.25
9390.27
9162.56
8935.57
8710.2
8481.76
8254.14
8031.95
7765.92
7527.23
7304.41
7121.01
6844.22
6558.25
6183.1
5798.67
5438.71
5115.35
4946.79
4804.03
4654.14
4533.67
4549.2
4147.8
3982.66
3718.69
3744.34
3238.57
3057.79
2938.28
2605.27
2121.38
1956.17
2134.03
2036.46
1927.53
1744.29
1385.21
1739.48
1358.1
849.575
1186.06
1154.12
887.467
553.295
940.366
990.289
1005.06
783.714
685.615
678.138
756.14
646.799
404.689
618.584
581.091
557.119
449.374
395.788
339.961
334.579
240.936
282.178
275.212
243.075
251.722
189.985
179.644
170.124
192.567
176.48
171.1
140.632
119.485
140.46
144.217
65.0202
104.385
103.602
76.2413
50.8689
38.9633
-0.218578
36.6053
33.0593
7.25406
14.8592
-2.25209
17.9073
11.5494
14.4232
12541.5
12267.1
11999.6
11740.5
11494.4
11259.9
11033.7
10813.5
10596.2
10378.2
10162.6
9949.91
9735.99
9516.07
9289
9061.15
8834.12
8608.67
8380.84
8154.84
7932.43
7661.26
7424.15
7202.2
7020.05
6728.52
6462.5
6096.2
5726.26
5401.13
5029.96
4883.16
4710.28
4557.84
4439.33
4453.49
4049.38
3879.37
3637.31
3674.18
3148.03
2890.37
2842.96
2547.92
1506.84
1947.2
1967.41
2045.94
1895.11
1769.81
1532.37
1483.14
540.532
552.611
1341.81
1129.79
537.025
443.324
808.35
951.144
907.84
757.226
698.446
672.715
709.276
632.205
510.857
602.629
522.982
546.159
434.059
389.207
320.869
333.821
237.746
274.634
268.244
193.953
195.136
197.056
180.033
185.228
183.03
145.864
129.746
146.553
122.488
145.009
145.186
47.0112
99.4905
99.788
79.1533
56.5252
35.6688
-25.3075
20.7953
35.3099
13.1993
16.0292
2.53023
15.4137
11.6064
11.5247
12439.7
12165.2
11897.7
11638.7
11392.6
11158.1
10932.1
10711.9
10494.6
10276.5
10061
9848.36
9634.5
9414.37
9187.28
8959.51
8732.46
8507.14
8279.32
8055.05
7832.13
7559.14
7320.39
7097.35
6915.2
6612.93
6362.22
6006.24
5638.45
5349.73
4992.41
4813.63
4608.37
4455.03
4342.05
4353.04
3944.25
3764.31
3543.32
3582.65
3038.06
2841.45
2746.4
2516.94
1513.55
1960.59
1893.12
1971.5
1827.99
1793.13
1770.23
1231.68
528.047
552.539
1307.14
1108.37
503.386
500.7
485.661
725.603
563.193
666.378
708.669
649.215
662.008
609.165
581.01
583.884
443.562
530.233
420.199
378.683
294.665
314.233
231.647
262.61
260.985
146.228
151.151
207.211
187.468
180.725
167.438
61.3113
47.2689
143.465
118.794
132.638
138.477
57.0565
90.0621
96.2735
78.2433
62.7885
37.0216
-20.1101
4.19987
35.9914
23.44
11.0752
6.8237
9.89384
9.72955
8.70937
12287
12012.4
11744.8
11485.8
11239.8
11005.4
10779.6
10559.6
10342.2
10124.1
9908.63
9696.27
9482.5
9262.59
9035.36
8807.37
8580.26
8354.83
8127.72
7905.33
7679.27
7413.61
7172.12
6940.85
6753.23
6477.57
6251.81
5879.3
5534.62
5278.92
4931.55
4704.12
4465.14
4305.53
4197.05
4201.4
3787.37
3598.56
3412.87
3442.48
2860.66
2881.27
2606.65
2481.44
1653.21
2050.79
1896.27
1611.46
1721.89
1851.31
1716.11
1141.13
717.929
618.851
1019.93
1035.11
606.319
724.218
743.089
275.794
599.518
553.613
736.721
574.119
694.164
574.505
554.224
520.612
472.103
492.199
402.298
372.803
299.501
219.491
210.246
253.905
251.772
140.611
158.255
222.991
183.357
173.2
99.3674
24.5115
-24.8308
112.101
106.916
113.524
132.286
83.6348
84.3437
92.3107
73.6427
63.1295
37.1967
-11.2368
-14.1638
31.7262
23.6783
11.5797
15.3065
5.9768
7.07674
5.70555
12083.3
11808.6
11540.8
11281.9
11035.9
10801.8
10576.2
10356.3
10139
9920.71
9705.33
9493.21
9279.63
9059.56
8832.08
8604.2
8377.05
8151.79
7924.84
7703.88
7466.68
7219.5
6976.3
6741.95
6540.63
6293.65
6010.28
5656.57
5354.59
5151.76
4817.36
4539.12
4262.86
4099.89
3996.41
4003.23
3586.07
3393.44
3222.31
3173.18
2608.96
2675.7
2472.03
2347.7
1858.42
2145.42
1801.56
1392.35
1569.82
1635.48
1269.48
734.491
736.825
733.322
404.018
879.352
663.596
766.02
771.708
35.8235
683.304
666.662
718.032
605.645
635.824
533.181
502.977
422.755
444.327
421.361
362.402
339.289
308.3
209.924
144.027
216.107
242.303
227.458
237.943
216.247
168.557
160.943
76.3801
86.6461
12.8959
52.5775
66.7166
74.9818
128.248
93.716
84.4921
79.4127
68.5221
57.7518
28.918
-0.532469
-20.8395
10.2433
23.0168
19.7402
15.8199
14.4052
1.34306
-5.95539
11879.6
11604.7
11336.8
11077.9
10832
10598.1
10372.7
10153.1
9935.76
9717.48
9502.35
9290.57
9077.09
8857
8629.51
8401.37
8174.02
7948.45
7722.05
7496.64
7254.39
7026.1
6780.13
6545.24
6336.88
6098.48
5783.49
5465.66
5202.47
5016.74
4682.5
4365.03
4069.29
3900.38
3801.28
3810.57
3394.85
3210.23
3050.45
2930.78
2290.15
2432.93
2270.66
2141.34
2194.96
2200.54
1759.09
1383.73
1564.64
1240.96
736.903
788.991
927.837
970.663
599.408
648.496
798.445
735.015
745.576
170.752
742.864
672.001
687.535
609.043
500.232
483.568
471.472
416.047
324.079
392.734
340.988
290.737
306.661
228.44
173.603
38.3101
228.347
214.529
225.372
198.233
152.938
135.172
94.4697
121.971
58.9778
98.7071
75.9709
69.5699
126.471
93.3749
60.1011
57.544
58.7537
50.7682
22.4577
13.8578
-12.3684
3.25467
22.5613
20.2746
12.7396
12.6404
3.22885
-16.1883
11675.8
11400.8
11132.7
10873.9
10628.1
10394.3
10169.2
9949.73
9732.35
9513.98
9299.01
9087.62
8874.43
8654.27
8426.41
8198.31
7970.86
7744.18
7514.72
7283.45
7045.15
6830.59
6580.13
6350.44
6140.26
5865.09
5530.4
5272.33
5017.21
4865.91
4531.71
4181.76
3857.22
3697.09
3603.09
3616.15
3200.01
3021.69
2842.3
2596.18
1710.2
2245.67
2175.5
2047.14
2070.24
1894.56
1654.18
1371.13
1461.1
1141.01
697.307
849.621
993.641
1070.62
887.085
832.33
817.131
666.012
668.557
280.064
689.098
635.531
661.968
573.605
364.58
408.144
435.861
455.215
275.032
338.562
339.406
310.397
283.799
228.912
184.177
-106.799
139.901
153.071
163.413
176.868
141.399
104.285
98.0918
121.647
105.008
115.284
93.5731
68.232
106.959
61.2707
-11.8085
39.7264
47.6823
43.7345
18.7159
17.7576
-3.31344
11.9884
16.8139
15.1886
9.35432
8.69267
1.40755
-18.0375
11472
11196.8
10928.5
10669.8
10424
10190.5
9965.67
9746.39
9529.18
9310.84
9096.29
8885.12
8671.95
8451.74
8223.82
7995.44
7767.77
7539.74
7307.62
7075.25
6841.48
6628.04
6382.15
6153.85
5944.73
5633.18
5335.2
5099.86
4843.94
4706.62
4376.6
3997.47
3636.55
3493.83
3406.98
3421.31
3001.61
2839.8
2650.99
1949.88
1365.06
1996.93
1940
2019.65
1946.34
1422.72
1485.44
1373.89
1360.3
1200.82
886.493
958.817
1074.29
1056.78
945.237
886.006
794.021
635.933
504.467
312.595
458.562
596.086
619.367
555.681
345.224
368.418
395.279
433.073
288.252
235.447
347.792
312.457
264.36
213.857
163.246
-68.6264
-26.7531
58.0931
25.9559
137.829
129.297
96.9285
87.1087
110.614
122.571
111.521
92.1361
70.8189
49.3131
-25.3315
-90.3903
-60.8441
30.3881
29.2659
6.4767
16.5575
8.85691
17.0047
13.0569
12.5824
6.75012
6.77363
0.0221486
-10.7894
11268.2
10992.8
10724.3
10465.6
10219.9
9986.56
9762.05
9542.92
9325.6
9107.23
8892.91
8682.36
8469.54
8249.32
8020.97
7792.45
7564.55
7336.05
7103.45
6873.61
6644.54
6420.33
6182.56
5955.66
5747.79
5399.49
5152.98
4911.07
4627.59
4515.75
4200.05
3809.1
3411.5
3287.58
3209.77
3231
2803.56
2651.57
2484.13
1938.27
1447.33
1692.26
1201.19
1975.76
1732.2
1259.65
1402.4
977.227
1238.3
1282.29
1048.94
1082.16
1020.69
990.359
879.338
816.296
748.126
579.146
418.526
318.264
246.817
470.16
520.468
522.856
383.149
370.054
248.62
383.494
286.991
171.809
314.415
253.704
242.392
198.208
112.003
-27.3593
-131.293
-13.7811
-81.335
27.3328
82.5555
94.5359
79.8515
101.706
123.84
107.3
88.238
77.1869
26.6371
-29.0877
-67.6886
-94.0383
-53.2489
-36.3961
-8.37538
14.398
13.6769
13.6884
3.75969
8.46587
2.79992
-0.766562
-1.13664
-8.65451
11064.3
10788.7
10520
10261.4
10015.6
9782.52
9558.38
9339.52
9122.53
8904.26
8690.48
8479.96
8267.1
8046.77
7818.41
7589.52
7361.39
7133.08
6902.45
6675.49
6449.08
6216.71
5982.13
5755.97
5547.25
5189.1
4997.63
4739.92
4448.44
4317.77
4003.17
3615.74
3226.04
3077.59
3012.14
3038.08
2615.68
2469.05
2358.17
2060.75
1418.22
1490.66
985.287
1904.38
1428.99
1280.11
1309.15
801.747
970.703
1225.62
1198.52
1062.49
970.797
944.96
796.784
722.095
711.463
519.349
341.374
300.682
199.456
400.632
418.263
458.039
408.309
346.206
250.473
340.74
288.059
188.807
222.765
194.081
208.218
183.398
102.23
26.0476
-154.169
-25.7083
-64.9513
-34.5657
37.1713
83.5078
76.0658
97.0182
119.801
103.396
84.2615
79.8443
40.8369
-5.78078
-38.2136
-77.2175
-86.3953
-49.8594
7.66198
10.7751
11.9923
9.80981
-5.266
1.95836
-2.4295
-6.31395
-2.45166
-7.55839
9837.85
9563.47
9295.47
9038.9
8795.64
8565.66
8345.32
8129.98
7914.49
7698.63
7488.93
7286.43
7079.23
6860.37
6632.34
6402.38
6174.94
5952.22
5731.38
5524.66
5316.96
5078.11
4829.47
4611.36
4403.94
4180.51
4012.64
3693.62
3342.59
3166.44
2879.39
2506.5
2216.11
2092.89
2082.28
2091.58
1799.43
1712.55
1624.67
1580.19
1408.7
1146.58
1467.04
1344.19
1134.17
1189.61
982.168
819.368
667.098
679.301
746.987
749.042
670.549
635.4
498.536
410.985
350.112
315.718
319.37
334.263
315.74
200.199
218.82
221.013
316.052
248.782
276.017
241.343
279.986
285.288
177.112
128.378
109.637
100.542
93.9447
100.028
-4.75388
-7.04817
8.15105
16.8968
23.5046
62.3016
58.8745
74.8963
88.3108
76.6031
64.2513
50.4302
37.7445
25.9852
26.5147
6.27218
-10.9074
-21.8499
-8.69126
-2.82368
-4.04564
-5.83079
-4.82177
-7.04388
-8.48812
-8.38736
-7.57034
-8.47871
7581.03
7306.91
7043.72
6789.8
6554.51
6334.63
6127.94
5919.06
5711.87
5505.93
5306.93
5104.8
4893.45
4683.53
4466.18
4243.02
4024.96
3816.36
3609.79
3408.05
3214.59
3013.66
2812.42
2610.65
2439.93
2304.5
2131.5
1897.81
1587.58
1392.11
1209.92
888.3
686.53
677.025
691.142
651.992
467.609
458.204
381.169
602.726
574.887
476.643
418.033
466.696
370.543
258.478
326.032
344.177
334.965
216.185
194.397
216.405
253.797
182.524
154.659
132.349
94.0495
92.1811
76.2102
73.7106
70.2862
82.0327
151.638
175.541
117.044
73.5927
70.1993
78.8367
96.8992
105.071
74.5067
45.0841
31.5013
27.0406
31.9821
25.3353
14.0353
14.1822
10.7299
1.97074
0.563315
10.8923
2.75521
-4.67724
34.6321
47.9507
40.2759
22.2084
7.34368
0.62753
-4.13581
-6.81956
-7.94555
-7.55447
-6.59687
-10.4654
-16.1545
-18.9079
-15.7376
-16.6801
-17.6426
-18.3152
-15.8249
-14.4042
5342.28
5063.87
4789.43
4538.2
4309.31
4096.73
3892.61
3696.58
3504.19
3313.65
3134.33
2949.94
2754.38
2564.89
2377.38
2199.83
2028.86
1849.2
1672.17
1504.62
1349.71
1206.37
1078.85
973.188
881.544
751.733
586.681
446.309
337.976
274.007
180.895
103.192
81.3124
137.297
163.996
88.4041
26.5291
15.7008
39.1037
75.8542
66.5453
48.1651
33.2109
30.4944
41.143
31.6096
38.3446
45.8581
55.1085
28.163
12.9259
-6.37034
12.2296
11.6002
8.10911
1.54459
-2.6644
1.26498
10.472
8.84023
5.67967
7.11882
9.39207
6.55833
11.5038
1.84574
-4.91129
9.52954
28.9841
20.0847
-0.697836
-14.0362
-19.3914
-8.78479
-3.26564
-4.81688
-7.2207
-7.6374
-7.94657
-8.43558
-8.40916
-8.99181
-14.3944
-19.6178
-8.69778
8.65911
12.1168
5.41298
-2.13414
-6.26943
-9.16947
-12.8002
-15.806
-17.3397
-18.3662
-19.284
-21.9039
-23.7955
-22.8374
-22.1947
-22.0847
-21.8424
-19.6729
-18.3738
3102.26
2843.36
2599.6
2371.3
2166.43
1986.63
1824.1
1655.63
1508.74
1400.23
1266.24
1127.38
985.297
855.88
766.872
699.508
629.066
546.78
456.773
369.284
297.706
241.79
199.934
169.194
137.903
101.307
62.629
37.8756
30.988
27.8478
21.2447
12.9881
11.9116
20.0369
12.5218
-7.84377
-19.4737
-13.4591
-3.81423
3.67165
2.68166
-4.22288
-13.3769
-15.6997
-11.9592
-7.36385
-2.74035
2.48803
1.77747
-11.9168
-25.132
-21.1991
-13.4606
-10.5184
-9.91783
-9.27411
-7.98136
-5.88262
-3.61776
-3.67144
-5.1848
-7.65709
-10.6363
-13.1648
-14.5611
-23.4379
-34.5971
-17.522
-6.28178
-6.15326
-13.2189
-19.8659
-20.2881
-17.0134
-14.545
-13.0548
-12.8941
-11.7081
-9.83341
-12.2973
-16.3092
-18.3105
-22.1474
-27.709
-28.4987
-13.1019
-2.25778
-4.98495
-9.10443
-11.7166
-13.7409
-16.6252
-19.2285
-20.3241
-20.2074
-20.6768
-22.9642
-24.4067
-23.5498
-23.492
-23.9974
-23.5132
-22.097
-20.7679
1214.76
1069.72
921.742
778.851
647.2
535.396
443.233
379.678
333.208
298.786
261.398
202.027
142.316
104.084
91.3578
86.0965
75.5392
61.8498
47.8421
34.9497
25.4513
19.3157
15.1368
11.392
7.83459
3.22485
-1.77425
-5.35869
-6.4363
-6.23101
-5.83959
-5.0462
-2.90653
0.14052
-0.983403
-4.74119
-10.6368
-13.9684
-11.3917
-7.08421
-5.47013
-7.72474
-11.6902
-14.3997
-14.5374
-12.6441
-10.0653
-7.80991
-9.19478
-11.6501
-17.7847
-17.7546
-15.1363
-13.2018
-12.2552
-12.3455
-12.3485
-11.8256
-11.2599
-10.7732
-11.0838
-12.2429
-13.1986
-15.6771
-19.4328
-23.7317
-25.1469
-21.2623
-15.1844
-13.982
-16.7395
-21.0532
-21.7112
-20.1938
-17.7576
-16.464
-16.262
-16.3694
-16.5922
-17.8359
-20.3183
-21.7816
-25.3912
-31.3191
-32.0174
-27.2051
-22.9083
-20.5625
-18.3762
-17.3949
-18.0348
-19.5812
-20.8152
-21.4261
-22.2174
-23.559
-25.4402
-26.4212
-26.6372
-26.7097
-26.8007
-26.0847
-24.8726
-23.788
195.746
156.149
124.779
97.1549
71.7677
51.3737
39.6794
33.7533
31.2399
29.255
23.1816
14.3491
7.27236
4.0082
3.34521
3.15771
2.25652
0.443373
-1.81058
-3.92145
-5.50083
-6.6679
-7.35674
-7.589
-7.80108
-8.47441
-9.4431
-10.0871
-9.89797
-8.99817
-8.04035
-7.54191
-7.4036
-7.7411
-8.35289
-9.99656
-11.4664
-11.7466
-10.9782
-10.8014
-10.9673
-12.0763
-13.4621
-14.2076
-14.1398
-13.6945
-12.8607
-12.8597
-13.6271
-14.8437
-16.7982
-17.1616
-16.2458
-15.1426
-14.5652
-14.2945
-14.0369
-13.6734
-13.9342
-14.3041
-15.0256
-15.9854
-16.8638
-18.6875
-19.8395
-21.5865
-23.4405
-21.556
-18.6923
-17.6182
-19.2372
-20.9136
-22.0065
-21.3706
-20.0117
-19.6766
-19.5994
-20.1973
-20.1519
-21.4449
-23.3707
-24.9405
-27.6536
-30.7242
-31.7085
-30.6118
-26.4622
-24.2597
-23.9787
-23.9155
-23.8898
-23.9629
-24.8013
-25.8379
-26.4173
-26.923
-27.7946
-28.3484
-28.3386
-28.2612
-28.1914
-27.8291
-26.9746
-26.3404
19.443
16.3989
12.522
7.41542
2.73456
-0.717133
-2.45575
-3.06901
-3.30679
-3.44028
-3.9188
-5.2405
-6.77853
-7.56889
-7.6685
-7.52312
-7.48625
-7.84324
-8.443
-9.11029
-9.74907
-10.1913
-10.4109
-10.5183
-10.6939
-11.0058
-11.3662
-11.6489
-11.774
-11.8452
-11.872
-12.0534
-12.0259
-12.0234
-11.7722
-12.2006
-12.865
-13.9466
-14.5396
-14.6061
-14.6089
-15.187
-15.687
-16.4157
-16.7481
-16.9307
-16.7914
-16.8246
-17.043
-17.5239
-17.9703
-18.3826
-18.2289
-17.9401
-17.8844
-17.8759
-17.8372
-17.8083
-17.9029
-17.9739
-18.4247
-19.0506
-19.6804
-20.4687
-21.3147
-22.2257
-23.3738
-22.9906
-22.2997
-21.6487
-22.1917
-22.7985
-23.5071
-23.309
-22.8309
-22.8214
-22.9824
-23.4438
-23.6609
-24.8083
-26.3286
-27.7249
-29.3289
-30.8208
-31.4502
-29.6164
-27.5828
-26.9243
-26.4755
-26.2499
-26.4777
-26.866
-27.4809
-28.2177
-28.563
-28.9912
-29.725
-30.1081
-30.1187
-30.3735
-30.409
-29.8447
-29.2445
-28.8764
-4.50868
-4.25557
-4.41039
-5.08404
-6.08444
-7.02394
-7.73661
-7.95609
-7.8429
-7.75746
-7.94445
-8.4795
-9.24388
-9.87411
-10.2242
-10.3617
-10.5849
-10.9866
-11.4906
-11.9988
-12.4737
-12.8657
-13.1657
-13.4137
-13.6566
-13.916
-14.2033
-14.4559
-14.614
-14.651
-14.5846
-14.5447
-14.5426
-14.666
-14.8594
-15.4121
-15.9045
-16.3941
-16.6006
-16.8433
-17.1378
-17.6293
-18.1712
-18.6054
-18.813
-18.9736
-18.8953
-19.0031
-19.4391
-19.8596
-20.2499
-20.5449
-20.307
-20.0195
-19.7862
-19.523
-19.5865
-19.4617
-19.8727
-20.2286
-20.7712
-21.4144
-22.03
-22.6416
-23.4559
-24.2523
-25.0462
-25.1587
-24.729
-24.5455
-24.7383
-25.246
-25.5637
-25.5906
-25.4689
-25.4437
-25.5401
-25.9457
-26.5445
-27.5306
-28.7181
-29.9119
-31.1396
-32.0485
-32.7192
-31.7752
-30.6031
-29.4907
-28.9931
-29.0626
-29.3945
-29.9648
-30.7953
-31.4826
-31.8258
-32.3042
-32.5122
-32.575
-32.5149
-32.4506
-32.1614
-31.748
-31.3836
-31.225
-8.12688
-8.27684
-8.54518
-8.9466
-9.49218
-10.0737
-10.5339
-10.8075
-11.0425
-11.3158
-11.6259
-11.9679
-12.349
-12.7292
-13.0666
-13.369
-13.6983
-14.0805
-14.489
-14.8866
-15.2599
-15.5821
-15.8316
-16.0319
-16.217
-16.4077
-16.6129
-16.8029
-16.939
-17.0444
-17.1092
-17.2827
-17.3997
-17.5189
-17.6877
-17.954
-18.2698
-18.7529
-19.1297
-19.4913
-19.7573
-20.134
-20.5046
-20.8466
-21.1195
-21.3314
-21.4926
-21.6988
-21.9348
-22.1886
-22.4157
-22.5565
-22.5455
-22.544
-22.5838
-22.7157
-22.7839
-22.9499
-23.1918
-23.2812
-23.6624
-24.1194
-24.6071
-25.0467
-25.6692
-26.2662
-26.855
-27.0789
-26.99
-27.0284
-27.2105
-27.4456
-27.7037
-27.712
-27.7067
-27.9068
-28.1585
-28.5936
-29.2111
-30.0985
-31.1035
-32.1842
-33.1887
-33.8898
-34.1283
-33.4335
-32.4344
-31.7735
-31.5404
-31.5468
-32.0363
-32.7083
-33.357
-33.821
-34.3332
-34.7285
-34.8651
-34.8174
-34.7174
-34.5147
-34.2134
-33.9006
-33.6476
-33.5825
-11.6092
-11.8914
-12.161
-12.4806
-12.8752
-13.2632
-13.6094
-13.8772
-14.0724
-14.2027
-14.3538
-14.5981
-14.9398
-15.3013
-15.6547
-15.9705
-16.2797
-16.6145
-16.9573
-17.2906
-17.6032
-17.8865
-18.1432
-18.3731
-18.5844
-18.7977
-18.9943
-19.1766
-19.3409
-19.4789
-19.5921
-19.7203
-19.8367
-19.9662
-20.2093
-20.522
-20.8612
-21.2215
-21.5424
-21.8597
-22.1683
-22.5193
-22.8646
-23.1681
-23.4217
-23.6385
-23.8107
-24.0073
-24.2061
-24.4304
-24.6094
-24.7229
-24.7296
-24.6504
-24.5599
-24.5087
-24.678
-24.7666
-25.1165
-25.4617
-25.9194
-26.3719
-26.8395
-27.249
-27.7995
-28.3391
-28.7656
-29.0857
-29.2205
-29.3541
-29.5239
-29.74
-29.8847
-30.0018
-30.0647
-30.2333
-30.5271
-30.9738
-31.5914
-32.4807
-33.3855
-34.335
-35.2306
-35.7666
-35.9065
-35.6095
-34.9889
-34.4769
-34.2572
-34.381
-34.8116
-35.3671
-35.9962
-36.5504
-36.9681
-37.2256
-37.2674
-37.1599
-36.9933
-36.7111
-36.4202
-36.1259
-35.9274
-35.8938
-14.4907
-14.7147
-14.9325
-15.1919
-15.4868
-15.7879
-16.067
-16.3127
-16.5399
-16.7687
-17.0141
-17.2745
-17.5624
-17.8758
-18.1844
-18.4899
-18.8025
-19.1333
-19.4655
-19.7856
-20.0868
-20.3592
-20.6021
-20.8203
-21.0214
-21.2174
-21.4066
-21.5873
-21.7576
-21.9162
-22.0653
-22.2472
-22.4153
-22.6151
-22.8466
-23.0952
-23.3728
-23.6873
-23.9934
-24.3133
-24.6017
-24.9156
-25.2139
-25.4882
-25.738
-25.9603
-26.1598
-26.3687
-26.5756
-26.7726
-26.9341
-27.0545
-27.1349
-27.23
-27.3792
-27.5276
-27.6627
-27.8657
-28.091
-28.2869
-28.5842
-28.9265
-29.326
-29.6796
-30.1555
-30.5974
-31.0021
-31.275
-31.4369
-31.5918
-31.7481
-31.902
-32.0512
-32.1598
-32.3156
-32.5697
-32.9127
-33.4156
-34.0478
-34.8307
-35.6297
-36.4579
-37.234
-37.7045
-37.9297
-37.7704
-37.3988
-37.1076
-36.9102
-37.0165
-37.2733
-37.7357
-38.2812
-38.7747
-39.231
-39.469
-39.4747
-39.3806
-39.2055
-38.9156
-38.6296
-38.3706
-38.2357
-38.2357
-17.1163
-17.373
-17.6325
-17.9124
-18.2066
-18.4934
-18.7581
-18.9987
-19.2118
-19.4089
-19.6227
-19.8594
-20.1307
-20.4251
-20.7215
-21.0232
-21.3231
-21.6226
-21.9197
-22.2042
-22.477
-22.7373
-22.9815
-23.2073
-23.4206
-23.6265
-23.8218
-24.0137
-24.1979
-24.3723
-24.5477
-24.7299
-24.9009
-25.0863
-25.3181
-25.571
-25.8518
-26.1487
-26.4445
-26.7392
-27.0249
-27.3124
-27.5866
-27.8448
-28.0869
-28.3054
-28.5007
-28.6875
-28.8607
-29.0273
-29.1674
-29.2753
-29.3516
-29.3928
-29.4134
-29.5237
-29.7041
-29.8914
-30.1571
-30.4704
-30.8326
-31.1924
-31.5665
-31.9198
-32.3439
-32.7532
-33.1004
-33.3957
-33.6263
-33.8113
-33.9761
-34.1379
-34.2718
-34.4346
-34.6305
-34.9061
-35.2801
-35.7715
-36.4135
-37.1237
-37.8516
-38.5936
-39.2332
-39.6961
-39.9582
-39.9061
-39.6832
-39.4574
-39.296
-39.3175
-39.5664
-40.0077
-40.5321
-41.124
-41.4985
-41.7218
-41.7639
-41.6211
-41.4381
-41.1621
-40.8797
-40.6302
-40.5197
-40.497
-19.7973
-20.0466
-20.2888
-20.5354
-20.7839
-21.029
-21.2721
-21.5079
-21.7393
-21.9726
-22.216
-22.466
-22.7309
-23.0085
-23.2917
-23.5746
-23.8614
-24.1506
-24.438
-24.7169
-24.9816
-25.2317
-25.4666
-25.6866
-25.8947
-26.0966
-26.2906
-26.482
-26.6688
-26.8515
-27.0362
-27.2295
-27.4234
-27.6392
-27.8701
-28.1098
-28.3671
-28.6333
-28.9049
-29.1802
-29.4514
-29.7205
-29.979
-30.2238
-30.4542
-30.6708
-30.8757
-31.0728
-31.2565
-31.4287
-31.577
-31.7075
-31.8271
-31.9561
-32.1146
-32.2753
-32.4493
-32.6542
-32.8859
-33.136
-33.3979
-33.6932
-34.0207
-34.3378
-34.7106
-35.0548
-35.3706
-35.6409
-35.8528
-36.0302
-36.1921
-36.3571
-36.5192
-36.7111
-36.9523
-37.267
-37.6626
-38.158
-38.7535
-39.4074
-40.053
-40.7029
-41.2376
-41.6704
-41.9185
-41.9383
-41.8076
-41.608
-41.4832
-41.5274
-41.7313
-42.1244
-42.6173
-43.1003
-43.5256
-43.8152
-43.9599
-43.824
-43.6239
-43.3755
-43.1162
-42.9047
-42.7751
-42.7796
-22.4431
-22.6909
-22.9391
-23.1897
-23.4435
-23.6946
-23.9355
-24.1695
-24.3933
-24.6157
-24.8429
-25.0808
-25.3317
-25.5933
-25.8612
-26.1308
-26.4028
-26.6727
-26.9378
-27.1968
-27.4468