/*--------------------------------*- C++ -*----------------------------------*\
| =========                 |                                                 |
| \\      /  F ield         | OpenFOAM: The Open Source CFD Toolbox           |
|  \\    /   O peration     | Version:  v1912                                 |
|   \\  /    A nd           | Website:  www.openfoam.com                      |
|    \\/     M anipulation  |                                                 |
\*---------------------------------------------------------------------------*/
FoamFile
{
    version     2.0;
    format      ascii;
    class       volScalarField;
    location    "20";
    object      nut;
}
// * * * * * * * * * * * * * * * * * * * * * * * * * * * * * * * * * * * * * //

dimensions      [0 2 -1 0 0 0 0];


internalField   nonuniform List<scalar> 
14268
(
5.79032e-05
5.74724e-05
5.70413e-05
5.661e-05
5.61785e-05
5.57468e-05
5.53148e-05
5.48826e-05
5.44503e-05
5.40178e-05
5.35851e-05
5.31522e-05
5.27192e-05
5.2286e-05
5.18527e-05
5.14192e-05
5.09857e-05
5.0552e-05
5.01182e-05
4.96842e-05
4.92502e-05
4.88161e-05
4.83818e-05
4.79475e-05
4.7513e-05
4.70785e-05
4.66438e-05
4.6209e-05
4.57741e-05
4.53391e-05
4.4904e-05
4.44688e-05
4.40335e-05
4.35981e-05
4.31627e-05
4.27273e-05
4.22917e-05
4.18562e-05
4.14206e-05
4.09849e-05
4.05492e-05
4.01134e-05
3.96777e-05
3.92418e-05
3.88059e-05
3.837e-05
3.7934e-05
3.7498e-05
3.70619e-05
3.66257e-05
3.61895e-05
3.57532e-05
3.53168e-05
3.48803e-05
3.44438e-05
3.40072e-05
3.35705e-05
3.31338e-05
3.26969e-05
3.226e-05
3.1823e-05
3.1386e-05
3.09489e-05
3.05116e-05
3.00744e-05
2.9637e-05
2.91996e-05
2.8762e-05
2.83244e-05
2.78867e-05
2.74488e-05
2.70108e-05
2.65727e-05
2.61345e-05
2.56961e-05
2.52575e-05
2.48188e-05
2.43799e-05
2.39408e-05
2.35015e-05
2.30619e-05
2.26222e-05
2.21822e-05
2.1742e-05
2.13016e-05
2.08609e-05
2.042e-05
1.99788e-05
1.95372e-05
1.90954e-05
1.86533e-05
1.82108e-05
1.77679e-05
1.73246e-05
1.68809e-05
1.64366e-05
1.59919e-05
1.55465e-05
1.51006e-05
1.4654e-05
1.42068e-05
1.37588e-05
1.33101e-05
1.28605e-05
1.24101e-05
1.19587e-05
1.15063e-05
1.10527e-05
1.05979e-05
1.01418e-05
9.68422e-06
9.22506e-06
8.76421e-06
8.30154e-06
7.83693e-06
7.37025e-06
6.90137e-06
6.43018e-06
5.9566e-06
5.4806e-06
5.0023e-06
4.52193e-06
4.04015e-06
3.55769e-06
3.07653e-06
2.59856e-06
2.12875e-06
1.67219e-06
1.23944e-06
8.43547e-07
5.03995e-07
2.43791e-07
8.18953e-08
1.4709e-08
4.1937e-07
4.19384e-07
4.19399e-07
4.19414e-07
4.19429e-07
4.19444e-07
4.19459e-07
4.19475e-07
4.19491e-07
4.19506e-07
4.19523e-07
4.19539e-07
4.19556e-07
4.19572e-07
4.1959e-07
4.19607e-07
4.19625e-07
4.19644e-07
4.19663e-07
4.19683e-07
4.19703e-07
4.19726e-07
4.1975e-07
4.19776e-07
4.19805e-07
4.19839e-07
4.19876e-07
4.19919e-07
4.19966e-07
4.20018e-07
4.20074e-07
4.20133e-07
4.20194e-07
4.20257e-07
4.20321e-07
4.20385e-07
4.20449e-07
4.20511e-07
4.20571e-07
4.2063e-07
4.20685e-07
4.20738e-07
4.20789e-07
4.20837e-07
4.20882e-07
4.20925e-07
4.20965e-07
4.21004e-07
4.21041e-07
4.21077e-07
4.21113e-07
4.21148e-07
4.21183e-07
4.21218e-07
4.21254e-07
4.21292e-07
4.2133e-07
4.21369e-07
4.2141e-07
4.21453e-07
4.21497e-07
4.21543e-07
4.2159e-07
4.21639e-07
4.2169e-07
4.21743e-07
4.21797e-07
4.21853e-07
4.21911e-07
4.21971e-07
4.22035e-07
4.22101e-07
4.22169e-07
4.22238e-07
4.22308e-07
4.22378e-07
4.22452e-07
4.22528e-07
4.22607e-07
4.2269e-07
4.22776e-07
4.22865e-07
4.22957e-07
4.23053e-07
4.23152e-07
4.23255e-07
4.23362e-07
4.23473e-07
4.23589e-07
4.2371e-07
4.23835e-07
4.23966e-07
4.24103e-07
4.24247e-07
4.24396e-07
4.24553e-07
4.24717e-07
4.24889e-07
4.2507e-07
4.2526e-07
4.2546e-07
4.2567e-07
4.25893e-07
4.26127e-07
4.26375e-07
4.26638e-07
4.26917e-07
4.27213e-07
4.27528e-07
4.27864e-07
4.28222e-07
4.28604e-07
4.29013e-07
4.29451e-07
4.29921e-07
4.30426e-07
4.30967e-07
4.31553e-07
4.32178e-07
4.32855e-07
4.33573e-07
4.34344e-07
4.3516e-07
4.3599e-07
4.36876e-07
4.37636e-07
4.38412e-07
4.38659e-07
4.38504e-07
4.36517e-07
4.31686e-07
4.19007e-07
3.8864e-07
3.12461e-07
4.17321e-07
4.17321e-07
4.1732e-07
4.1732e-07
4.1732e-07
4.17319e-07
4.17319e-07
4.17319e-07
4.17319e-07
4.17319e-07
4.17318e-07
4.17318e-07
4.17318e-07
4.17318e-07
4.17318e-07
4.17318e-07
4.17317e-07
4.17317e-07
4.17317e-07
4.17317e-07
4.17317e-07
4.17317e-07
4.17317e-07
4.17317e-07
4.17317e-07
4.17317e-07
4.17317e-07
4.17316e-07
4.17316e-07
4.17317e-07
4.17317e-07
4.17317e-07
4.17317e-07
4.17317e-07
4.17317e-07
4.17317e-07
4.17317e-07
4.17317e-07
4.17317e-07
4.17317e-07
4.17317e-07
4.17317e-07
4.17317e-07
4.17317e-07
4.17317e-07
4.17317e-07
4.17318e-07
4.17318e-07
4.17318e-07
4.17318e-07
4.17318e-07
4.17318e-07
4.17318e-07
4.17318e-07
4.17318e-07
4.17318e-07
4.17318e-07
4.17318e-07
4.17318e-07
4.17318e-07
4.17319e-07
4.17319e-07
4.17319e-07
4.17319e-07
4.17319e-07
4.17319e-07
4.17319e-07
4.17319e-07
4.1732e-07
4.1732e-07
4.1732e-07
4.1732e-07
4.1732e-07
4.1732e-07
4.1732e-07
4.1732e-07
4.17321e-07
4.17321e-07
4.17321e-07
4.17321e-07
4.17321e-07
4.17322e-07
4.17322e-07
4.17322e-07
4.17323e-07
4.17323e-07
4.17323e-07
4.17324e-07
4.17324e-07
4.17324e-07
4.17325e-07
4.17325e-07
4.17326e-07
4.17326e-07
4.17327e-07
4.17327e-07
4.17328e-07
4.17328e-07
4.17329e-07
4.1733e-07
4.17331e-07
4.17332e-07
4.17333e-07
4.17334e-07
4.17335e-07
4.17337e-07
4.17339e-07
4.1734e-07
4.17342e-07
4.17344e-07
4.17347e-07
4.17349e-07
4.17353e-07
4.17356e-07
4.1736e-07
4.17365e-07
4.1737e-07
4.17377e-07
4.17384e-07
4.17394e-07
4.17404e-07
4.17419e-07
4.17436e-07
4.17453e-07
4.17488e-07
4.17505e-07
4.17576e-07
4.17593e-07
4.17723e-07
4.17741e-07
4.1789e-07
4.1771e-07
4.16782e-07
4.10648e-07
4.17319e-07
4.17318e-07
4.17318e-07
4.17318e-07
4.17317e-07
4.17317e-07
4.17317e-07
4.17317e-07
4.17316e-07
4.17316e-07
4.17316e-07
4.17316e-07
4.17316e-07
4.17315e-07
4.17315e-07
4.17315e-07
4.17315e-07
4.17315e-07
4.17315e-07
4.17315e-07
4.17315e-07
4.17315e-07
4.17314e-07
4.17314e-07
4.17314e-07
4.17314e-07
4.17314e-07
4.17314e-07
4.17314e-07
4.17314e-07
4.17313e-07
4.17313e-07
4.17313e-07
4.17313e-07
4.17312e-07
4.17312e-07
4.17312e-07
4.17312e-07
4.17311e-07
4.17311e-07
4.17311e-07
4.1731e-07
4.1731e-07
4.1731e-07
4.1731e-07
4.17309e-07
4.17309e-07
4.17309e-07
4.17309e-07
4.17309e-07
4.17308e-07
4.17308e-07
4.17308e-07
4.17308e-07
4.17308e-07
4.17307e-07
4.17307e-07
4.17307e-07
4.17307e-07
4.17307e-07
4.17306e-07
4.17306e-07
4.17306e-07
4.17306e-07
4.17305e-07
4.17305e-07
4.17305e-07
4.17305e-07
4.17304e-07
4.17304e-07
4.17304e-07
4.17303e-07
4.17303e-07
4.17303e-07
4.17302e-07
4.17302e-07
4.17302e-07
4.17301e-07
4.17301e-07
4.173e-07
4.17299e-07
4.17299e-07
4.17298e-07
4.17298e-07
4.17297e-07
4.17296e-07
4.17296e-07
4.17295e-07
4.17294e-07
4.17293e-07
4.17292e-07
4.17291e-07
4.1729e-07
4.17289e-07
4.17288e-07
4.17287e-07
4.17286e-07
4.17284e-07
4.17283e-07
4.17281e-07
4.17279e-07
4.17277e-07
4.17276e-07
4.17274e-07
4.17272e-07
4.17269e-07
4.17266e-07
4.17263e-07
4.1726e-07
4.17257e-07
4.17253e-07
4.17249e-07
4.17244e-07
4.17239e-07
4.17233e-07
4.17227e-07
4.17219e-07
4.17213e-07
4.17202e-07
4.17195e-07
4.1718e-07
4.1717e-07
4.17157e-07
4.17125e-07
4.17133e-07
4.17054e-07
4.17102e-07
4.16939e-07
4.17043e-07
4.16762e-07
4.16888e-07
4.16584e-07
4.16643e-07
4.16436e-07
4.17322e-07
4.17322e-07
4.17321e-07
4.17321e-07
4.1732e-07
4.1732e-07
4.1732e-07
4.17319e-07
4.17319e-07
4.17319e-07
4.17319e-07
4.17318e-07
4.17318e-07
4.17318e-07
4.17318e-07
4.17318e-07
4.17317e-07
4.17317e-07
4.17317e-07
4.17317e-07
4.17317e-07
4.17317e-07
4.17317e-07
4.17317e-07
4.17316e-07
4.17316e-07
4.17316e-07
4.17316e-07
4.17316e-07
4.17316e-07
4.17316e-07
4.17316e-07
4.17316e-07
4.17316e-07
4.17316e-07
4.17316e-07
4.17316e-07
4.17316e-07
4.17316e-07
4.17316e-07
4.17316e-07
4.17316e-07
4.17316e-07
4.17316e-07
4.17316e-07
4.17316e-07
4.17316e-07
4.17316e-07
4.17316e-07
4.17316e-07
4.17316e-07
4.17316e-07
4.17316e-07
4.17316e-07
4.17316e-07
4.17316e-07
4.17316e-07
4.17316e-07
4.17316e-07
4.17317e-07
4.17317e-07
4.17317e-07
4.17317e-07
4.17317e-07
4.17317e-07
4.17317e-07
4.17317e-07
4.17317e-07
4.17317e-07
4.17317e-07
4.17318e-07
4.17318e-07
4.17318e-07
4.17318e-07
4.17318e-07
4.17318e-07
4.17318e-07
4.17318e-07
4.17318e-07
4.17318e-07
4.17318e-07
4.17319e-07
4.17319e-07
4.17319e-07
4.17319e-07
4.17319e-07
4.1732e-07
4.1732e-07
4.1732e-07
4.1732e-07
4.17321e-07
4.17321e-07
4.17321e-07
4.17321e-07
4.17321e-07
4.17322e-07
4.17322e-07
4.17322e-07
4.17323e-07
4.17323e-07
4.17324e-07
4.17324e-07
4.17325e-07
4.17325e-07
4.17326e-07
4.17327e-07
4.17328e-07
4.17328e-07
4.17329e-07
4.1733e-07
4.17331e-07
4.17332e-07
4.17334e-07
4.17335e-07
4.17337e-07
4.17339e-07
4.1734e-07
4.17343e-07
4.17344e-07
4.17348e-07
4.1735e-07
4.17354e-07
4.17359e-07
4.17359e-07
4.17373e-07
4.17363e-07
4.17397e-07
4.17367e-07
4.17432e-07
4.1738e-07
4.17476e-07
4.17412e-07
4.17473e-07
4.17452e-07
4.17321e-07
4.1732e-07
4.1732e-07
4.17319e-07
4.17319e-07
4.17318e-07
4.17318e-07
4.17318e-07
4.17317e-07
4.17317e-07
4.17317e-07
4.17317e-07
4.17316e-07
4.17316e-07
4.17316e-07
4.17316e-07
4.17316e-07
4.17316e-07
4.17315e-07
4.17315e-07
4.17315e-07
4.17315e-07
4.17315e-07
4.17315e-07
4.17315e-07
4.17315e-07
4.17315e-07
4.17314e-07
4.17314e-07
4.17314e-07
4.17314e-07
4.17314e-07
4.17314e-07
4.17314e-07
4.17313e-07
4.17313e-07
4.17313e-07
4.17313e-07
4.17312e-07
4.17312e-07
4.17312e-07
4.17311e-07
4.17311e-07
4.17311e-07
4.17311e-07
4.1731e-07
4.1731e-07
4.1731e-07
4.1731e-07
4.17309e-07
4.17309e-07
4.17309e-07
4.17309e-07
4.17308e-07
4.17308e-07
4.17308e-07
4.17308e-07
4.17308e-07
4.17308e-07
4.17307e-07
4.17307e-07
4.17307e-07
4.17307e-07
4.17307e-07
4.17306e-07
4.17306e-07
4.17306e-07
4.17306e-07
4.17305e-07
4.17305e-07
4.17305e-07
4.17305e-07
4.17304e-07
4.17304e-07
4.17303e-07
4.17303e-07
4.17303e-07
4.17302e-07
4.17302e-07
4.17301e-07
4.173e-07
4.173e-07
4.17299e-07
4.17299e-07
4.17298e-07
4.17297e-07
4.17297e-07
4.17296e-07
4.17295e-07
4.17295e-07
4.17294e-07
4.17292e-07
4.17291e-07
4.1729e-07
4.17289e-07
4.17288e-07
4.17287e-07
4.17285e-07
4.17284e-07
4.17282e-07
4.1728e-07
4.17278e-07
4.17276e-07
4.17274e-07
4.17273e-07
4.1727e-07
4.17266e-07
4.17264e-07
4.1726e-07
4.17257e-07
4.17253e-07
4.17248e-07
4.17242e-07
4.17237e-07
4.1723e-07
4.17224e-07
4.17215e-07
4.17209e-07
4.17197e-07
4.1719e-07
4.17174e-07
4.17162e-07
4.17147e-07
4.17115e-07
4.17121e-07
4.1704e-07
4.17088e-07
4.16919e-07
4.17021e-07
4.16734e-07
4.16859e-07
4.16554e-07
4.16643e-07
4.16694e-07
4.17323e-07
4.17323e-07
4.17322e-07
4.17322e-07
4.17321e-07
4.17321e-07
4.17321e-07
4.1732e-07
4.1732e-07
4.1732e-07
4.17319e-07
4.17319e-07
4.17319e-07
4.17319e-07
4.17318e-07
4.17318e-07
4.17318e-07
4.17318e-07
4.17318e-07
4.17317e-07
4.17317e-07
4.17317e-07
4.17317e-07
4.17317e-07
4.17317e-07
4.17317e-07
4.17317e-07
4.17317e-07
4.17316e-07
4.17316e-07
4.17316e-07
4.17316e-07
4.17316e-07
4.17316e-07
4.17316e-07
4.17316e-07
4.17316e-07
4.17316e-07
4.17316e-07
4.17316e-07
4.17316e-07
4.17316e-07
4.17316e-07
4.17316e-07
4.17316e-07
4.17316e-07
4.17316e-07
4.17316e-07
4.17316e-07
4.17316e-07
4.17316e-07
4.17316e-07
4.17316e-07
4.17316e-07
4.17316e-07
4.17316e-07
4.17316e-07
4.17316e-07
4.17316e-07
4.17316e-07
4.17316e-07
4.17316e-07
4.17316e-07
4.17316e-07
4.17316e-07
4.17317e-07
4.17317e-07
4.17317e-07
4.17317e-07
4.17317e-07
4.17317e-07
4.17317e-07
4.17317e-07
4.17317e-07
4.17317e-07
4.17317e-07
4.17317e-07
4.17317e-07
4.17317e-07
4.17318e-07
4.17318e-07
4.17318e-07
4.17318e-07
4.17318e-07
4.17319e-07
4.17319e-07
4.17319e-07
4.17319e-07
4.1732e-07
4.1732e-07
4.1732e-07
4.1732e-07
4.17321e-07
4.17321e-07
4.17321e-07
4.17321e-07
4.17321e-07
4.17322e-07
4.17322e-07
4.17323e-07
4.17323e-07
4.17324e-07
4.17325e-07
4.17325e-07
4.17325e-07
4.17326e-07
4.17327e-07
4.17328e-07
4.17329e-07
4.17329e-07
4.1733e-07
4.17332e-07
4.17333e-07
4.17335e-07
4.17336e-07
4.17339e-07
4.1734e-07
4.17343e-07
4.17344e-07
4.17348e-07
4.1735e-07
4.17355e-07
4.1736e-07
4.1736e-07
4.17374e-07
4.17364e-07
4.17397e-07
4.17368e-07
4.17431e-07
4.17376e-07
4.17467e-07
4.17398e-07
4.17448e-07
4.17449e-07
4.17322e-07
4.17322e-07
4.17321e-07
4.17321e-07
4.1732e-07
4.1732e-07
4.17319e-07
4.17319e-07
4.17319e-07
4.17318e-07
4.17318e-07
4.17318e-07
4.17317e-07
4.17317e-07
4.17317e-07
4.17317e-07
4.17316e-07
4.17316e-07
4.17316e-07
4.17316e-07
4.17316e-07
4.17316e-07
4.17315e-07
4.17315e-07
4.17315e-07
4.17315e-07
4.17315e-07
4.17315e-07
4.17315e-07
4.17315e-07
4.17314e-07
4.17314e-07
4.17314e-07
4.17314e-07
4.17314e-07
4.17314e-07
4.17314e-07
4.17314e-07
4.17313e-07
4.17313e-07
4.17313e-07
4.17312e-07
4.17312e-07
4.17312e-07
4.17312e-07
4.17311e-07
4.17311e-07
4.17311e-07
4.1731e-07
4.1731e-07
4.1731e-07
4.1731e-07
4.17309e-07
4.17309e-07
4.17309e-07
4.17309e-07
4.17309e-07
4.17309e-07
4.17308e-07
4.17308e-07
4.17308e-07
4.17308e-07
4.17308e-07
4.17308e-07
4.17308e-07
4.17307e-07
4.17307e-07
4.17307e-07
4.17307e-07
4.17307e-07
4.17306e-07
4.17306e-07
4.17306e-07
4.17306e-07
4.17305e-07
4.17305e-07
4.17304e-07
4.17304e-07
4.17304e-07
4.17303e-07
4.17302e-07
4.17302e-07
4.17301e-07
4.17301e-07
4.173e-07
4.17299e-07
4.17298e-07
4.17298e-07
4.17298e-07
4.17297e-07
4.17296e-07
4.17295e-07
4.17294e-07
4.17293e-07
4.17292e-07
4.17291e-07
4.1729e-07
4.17288e-07
4.17286e-07
4.17284e-07
4.17282e-07
4.1728e-07
4.17278e-07
4.17277e-07
4.17276e-07
4.17273e-07
4.17269e-07
4.17267e-07
4.17263e-07
4.17261e-07
4.17256e-07
4.17252e-07
4.17246e-07
4.17241e-07
4.17234e-07
4.17227e-07
4.17218e-07
4.17213e-07
4.17201e-07
4.17194e-07
4.17177e-07
4.17164e-07
4.17149e-07
4.17118e-07
4.17124e-07
4.17045e-07
4.17094e-07
4.16927e-07
4.17032e-07
4.16749e-07
4.16888e-07
4.16594e-07
4.167e-07
4.16735e-07
4.17325e-07
4.17324e-07
4.17324e-07
4.17323e-07
4.17323e-07
4.17322e-07
4.17322e-07
4.17321e-07
4.17321e-07
4.1732e-07
4.1732e-07
4.1732e-07
4.17319e-07
4.17319e-07
4.17319e-07
4.17319e-07
4.17318e-07
4.17318e-07
4.17318e-07
4.17318e-07
4.17318e-07
4.17317e-07
4.17317e-07
4.17317e-07
4.17317e-07
4.17317e-07
4.17317e-07
4.17317e-07
4.17317e-07
4.17317e-07
4.17316e-07
4.17316e-07
4.17316e-07
4.17316e-07
4.17316e-07
4.17316e-07
4.17316e-07
4.17316e-07
4.17316e-07
4.17316e-07
4.17316e-07
4.17316e-07
4.17316e-07
4.17316e-07
4.17315e-07
4.17315e-07
4.17315e-07
4.17315e-07
4.17315e-07
4.17315e-07
4.17315e-07
4.17315e-07
4.17315e-07
4.17315e-07
4.17315e-07
4.17315e-07
4.17315e-07
4.17315e-07
4.17315e-07
4.17315e-07
4.17315e-07
4.17315e-07
4.17315e-07
4.17315e-07
4.17315e-07
4.17316e-07
4.17316e-07
4.17316e-07
4.17316e-07
4.17316e-07
4.17316e-07
4.17316e-07
4.17316e-07
4.17316e-07
4.17316e-07
4.17316e-07
4.17316e-07
4.17316e-07
4.17316e-07
4.17317e-07
4.17317e-07
4.17317e-07
4.17317e-07
4.17317e-07
4.17318e-07
4.17318e-07
4.17318e-07
4.17318e-07
4.17318e-07
4.17319e-07
4.17319e-07
4.17319e-07
4.1732e-07
4.1732e-07
4.1732e-07
4.1732e-07
4.1732e-07
4.17321e-07
4.17321e-07
4.17322e-07
4.17323e-07
4.17323e-07
4.17324e-07
4.17324e-07
4.17324e-07
4.17325e-07
4.17326e-07
4.17327e-07
4.17328e-07
4.17328e-07
4.1733e-07
4.17331e-07
4.17332e-07
4.17334e-07
4.17335e-07
4.17338e-07
4.17339e-07
4.17341e-07
4.17343e-07
4.17347e-07
4.17349e-07
4.17354e-07
4.17359e-07
4.17358e-07
4.17373e-07
4.17362e-07
4.17394e-07
4.17363e-07
4.17425e-07
4.17366e-07
4.17451e-07
4.17378e-07
4.17421e-07
4.17438e-07
4.17324e-07
4.17323e-07
4.17323e-07
4.17322e-07
4.17322e-07
4.17321e-07
4.17321e-07
4.1732e-07
4.1732e-07
4.17319e-07
4.17319e-07
4.17319e-07
4.17318e-07
4.17318e-07
4.17318e-07
4.17317e-07
4.17317e-07
4.17317e-07
4.17317e-07
4.17316e-07
4.17316e-07
4.17316e-07
4.17316e-07
4.17316e-07
4.17316e-07
4.17316e-07
4.17315e-07
4.17315e-07
4.17315e-07
4.17315e-07
4.17315e-07
4.17315e-07
4.17315e-07
4.17314e-07
4.17314e-07
4.17314e-07
4.17314e-07
4.17314e-07
4.17314e-07
4.17314e-07
4.17313e-07
4.17313e-07
4.17313e-07
4.17312e-07
4.17312e-07
4.17312e-07
4.17311e-07
4.17311e-07
4.17311e-07
4.17311e-07
4.1731e-07
4.1731e-07
4.1731e-07
4.1731e-07
4.17309e-07
4.17309e-07
4.17309e-07
4.17309e-07
4.17309e-07
4.17309e-07
4.17309e-07
4.17309e-07
4.17308e-07
4.17308e-07
4.17308e-07
4.17308e-07
4.17308e-07
4.17308e-07
4.17308e-07
4.17307e-07
4.17307e-07
4.17307e-07
4.17307e-07
4.17307e-07
4.17306e-07
4.17306e-07
4.17305e-07
4.17305e-07
4.17305e-07
4.17304e-07
4.17303e-07
4.17303e-07
4.17302e-07
4.17302e-07
4.17301e-07
4.173e-07
4.173e-07
4.173e-07
4.17299e-07
4.17299e-07
4.17298e-07
4.17296e-07
4.17296e-07
4.17295e-07
4.17294e-07
4.17293e-07
4.17292e-07
4.1729e-07
4.17288e-07
4.17286e-07
4.17284e-07
4.17282e-07
4.17281e-07
4.1728e-07
4.17278e-07
4.17276e-07
4.17272e-07
4.1727e-07
4.17266e-07
4.17264e-07
4.17259e-07
4.17255e-07
4.17249e-07
4.17244e-07
4.17237e-07
4.17231e-07
4.17223e-07
4.17218e-07
4.17206e-07
4.17199e-07
4.17182e-07
4.1717e-07
4.17156e-07
4.17126e-07
4.17134e-07
4.17057e-07
4.1711e-07
4.16948e-07
4.17062e-07
4.16789e-07
4.16944e-07
4.16674e-07
4.16797e-07
4.16822e-07
4.17326e-07
4.17325e-07
4.17325e-07
4.17324e-07
4.17324e-07
4.17323e-07
4.17322e-07
4.17322e-07
4.17322e-07
4.17321e-07
4.17321e-07
4.1732e-07
4.1732e-07
4.1732e-07
4.17319e-07
4.17319e-07
4.17319e-07
4.17319e-07
4.17318e-07
4.17318e-07
4.17318e-07
4.17318e-07
4.17318e-07
4.17317e-07
4.17317e-07
4.17317e-07
4.17317e-07
4.17317e-07
4.17317e-07
4.17317e-07
4.17317e-07
4.17317e-07
4.17316e-07
4.17316e-07
4.17316e-07
4.17316e-07
4.17316e-07
4.17316e-07
4.17316e-07
4.17316e-07
4.17316e-07
4.17316e-07
4.17316e-07
4.17315e-07
4.17315e-07
4.17315e-07
4.17315e-07
4.17315e-07
4.17315e-07
4.17314e-07
4.17314e-07
4.17314e-07
4.17314e-07
4.17314e-07
4.17314e-07
4.17314e-07
4.17314e-07
4.17314e-07
4.17314e-07
4.17314e-07
4.17314e-07
4.17314e-07
4.17315e-07
4.17315e-07
4.17315e-07
4.17315e-07
4.17315e-07
4.17315e-07
4.17315e-07
4.17315e-07
4.17315e-07
4.17315e-07
4.17315e-07
4.17315e-07
4.17315e-07
4.17315e-07
4.17316e-07
4.17316e-07
4.17316e-07
4.17316e-07
4.17316e-07
4.17316e-07
4.17316e-07
4.17316e-07
4.17317e-07
4.17317e-07
4.17317e-07
4.17317e-07
4.17317e-07
4.17318e-07
4.17318e-07
4.17318e-07
4.17319e-07
4.17319e-07
4.17319e-07
4.17319e-07
4.17319e-07
4.1732e-07
4.1732e-07
4.17321e-07
4.17321e-07
4.17322e-07
4.17323e-07
4.17323e-07
4.17323e-07
4.17324e-07
4.17325e-07
4.17326e-07
4.17327e-07
4.17328e-07
4.17329e-07
4.1733e-07
4.17331e-07
4.17333e-07
4.17335e-07
4.17337e-07
4.17338e-07
4.1734e-07
4.17342e-07
4.17346e-07
4.17348e-07
4.17352e-07
4.17357e-07
4.17356e-07
4.1737e-07
4.17358e-07
4.17389e-07
4.17356e-07
4.17415e-07
4.17351e-07
4.17434e-07
4.17355e-07
4.17396e-07
4.1743e-07
4.17326e-07
4.17325e-07
4.17324e-07
4.17324e-07
4.17323e-07
4.17322e-07
4.17322e-07
4.17321e-07
4.17321e-07
4.1732e-07
4.1732e-07
4.17319e-07
4.17319e-07
4.17319e-07
4.17318e-07
4.17318e-07
4.17318e-07
4.17317e-07
4.17317e-07
4.17317e-07
4.17317e-07
4.17317e-07
4.17316e-07
4.17316e-07
4.17316e-07
4.17316e-07
4.17316e-07
4.17316e-07
4.17315e-07
4.17315e-07
4.17315e-07
4.17315e-07
4.17315e-07
4.17315e-07
4.17315e-07
4.17315e-07
4.17314e-07
4.17314e-07
4.17314e-07
4.17314e-07
4.17314e-07
4.17313e-07
4.17313e-07
4.17313e-07
4.17312e-07
4.17312e-07
4.17312e-07
4.17311e-07
4.17311e-07
4.17311e-07
4.17311e-07
4.1731e-07
4.1731e-07
4.1731e-07
4.17309e-07
4.17309e-07
4.17309e-07
4.17309e-07
4.17309e-07
4.17309e-07
4.17309e-07
4.17309e-07
4.17309e-07
4.17309e-07
4.17309e-07
4.17308e-07
4.17308e-07
4.17308e-07
4.17308e-07
4.17308e-07
4.17308e-07
4.17308e-07
4.17307e-07
4.17307e-07
4.17307e-07
4.17306e-07
4.17306e-07
4.17305e-07
4.17305e-07
4.17305e-07
4.17304e-07
4.17304e-07
4.17303e-07
4.17303e-07
4.17302e-07
4.17302e-07
4.17301e-07
4.17301e-07
4.173e-07
4.173e-07
4.17299e-07
4.17298e-07
4.17297e-07
4.17296e-07
4.17295e-07
4.17294e-07
4.17293e-07
4.17291e-07
4.1729e-07
4.17288e-07
4.17286e-07
4.17284e-07
4.17283e-07
4.17282e-07
4.1728e-07
4.17278e-07
4.17275e-07
4.17272e-07
4.17268e-07
4.17265e-07
4.17261e-07
4.17257e-07
4.17252e-07
4.17247e-07
4.1724e-07
4.17234e-07
4.17226e-07
4.17221e-07
4.1721e-07
4.17203e-07
4.17187e-07
4.17175e-07
4.17162e-07
4.17134e-07
4.17144e-07
4.17071e-07
4.17129e-07
4.16977e-07
4.17102e-07
4.16849e-07
4.17015e-07
4.16784e-07
4.16923e-07
4.16932e-07
4.17327e-07
4.17327e-07
4.17326e-07
4.17325e-07
4.17324e-07
4.17324e-07
4.17323e-07
4.17323e-07
4.17322e-07
4.17322e-07
4.17321e-07
4.17321e-07
4.1732e-07
4.1732e-07
4.1732e-07
4.17319e-07
4.17319e-07
4.17319e-07
4.17319e-07
4.17318e-07
4.17318e-07
4.17318e-07
4.17318e-07
4.17318e-07
4.17317e-07
4.17317e-07
4.17317e-07
4.17317e-07
4.17317e-07
4.17317e-07
4.17317e-07
4.17317e-07
4.17317e-07
4.17317e-07
4.17316e-07
4.17316e-07
4.17316e-07
4.17316e-07
4.17316e-07
4.17316e-07
4.17316e-07
4.17316e-07
4.17316e-07
4.17315e-07
4.17315e-07
4.17315e-07
4.17315e-07
4.17314e-07
4.17314e-07
4.17314e-07
4.17314e-07
4.17314e-07
4.17314e-07
4.17314e-07
4.17314e-07
4.17313e-07
4.17313e-07
4.17313e-07
4.17313e-07
4.17314e-07
4.17314e-07
4.17314e-07
4.17314e-07
4.17314e-07
4.17314e-07
4.17314e-07
4.17314e-07
4.17314e-07
4.17315e-07
4.17315e-07
4.17315e-07
4.17315e-07
4.17315e-07
4.17315e-07
4.17315e-07
4.17315e-07
4.17315e-07
4.17315e-07
4.17315e-07
4.17315e-07
4.17315e-07
4.17315e-07
4.17315e-07
4.17316e-07
4.17316e-07
4.17316e-07
4.17316e-07
4.17316e-07
4.17317e-07
4.17317e-07
4.17317e-07
4.17318e-07
4.17318e-07
4.17318e-07
4.17318e-07
4.17318e-07
4.17319e-07
4.17319e-07
4.17319e-07
4.1732e-07
4.1732e-07
4.17321e-07
4.17322e-07
4.17322e-07
4.17323e-07
4.17323e-07
4.17324e-07
4.17325e-07
4.17326e-07
4.17327e-07
4.17328e-07
4.17329e-07
4.17331e-07
4.17332e-07
4.17334e-07
4.17336e-07
4.17337e-07
4.1734e-07
4.17341e-07
4.17345e-07
4.17347e-07
4.17351e-07
4.17355e-07
4.17354e-07
4.17366e-07
4.17353e-07
4.17382e-07
4.17343e-07
4.17399e-07
4.17325e-07
4.1741e-07
4.17311e-07
4.17381e-07
4.17437e-07
4.17328e-07
4.17327e-07
4.17326e-07
4.17325e-07
4.17325e-07
4.17324e-07
4.17323e-07
4.17323e-07
4.17322e-07
4.17321e-07
4.17321e-07
4.1732e-07
4.1732e-07
4.1732e-07
4.17319e-07
4.17319e-07
4.17318e-07
4.17318e-07
4.17318e-07
4.17318e-07
4.17317e-07
4.17317e-07
4.17317e-07
4.17317e-07
4.17316e-07
4.17316e-07
4.17316e-07
4.17316e-07
4.17316e-07
4.17316e-07
4.17315e-07
4.17315e-07
4.17315e-07
4.17315e-07
4.17315e-07
4.17315e-07
4.17315e-07
4.17315e-07
4.17314e-07
4.17314e-07
4.17314e-07
4.17314e-07
4.17313e-07
4.17313e-07
4.17313e-07
4.17312e-07
4.17312e-07
4.17311e-07
4.17311e-07
4.17311e-07
4.17311e-07
4.1731e-07
4.1731e-07
4.1731e-07
4.17309e-07
4.17309e-07
4.17309e-07
4.17309e-07
4.17309e-07
4.17309e-07
4.17309e-07
4.17309e-07
4.17309e-07
4.17309e-07
4.17309e-07
4.17309e-07
4.17308e-07
4.17308e-07
4.17308e-07
4.17308e-07
4.17308e-07
4.17308e-07
4.17308e-07
4.17307e-07
4.17307e-07
4.17306e-07
4.17306e-07
4.17305e-07
4.17305e-07
4.17305e-07
4.17304e-07
4.17304e-07
4.17303e-07
4.17303e-07
4.17302e-07
4.17302e-07
4.17302e-07
4.17301e-07
4.17301e-07
4.173e-07
4.17299e-07
4.17299e-07
4.17298e-07
4.17297e-07
4.17296e-07
4.17294e-07
4.17293e-07
4.17292e-07
4.1729e-07
4.17288e-07
4.17287e-07
4.17285e-07
4.17284e-07
4.17282e-07
4.1728e-07
4.17277e-07
4.17275e-07
4.17271e-07
4.17268e-07
4.17264e-07
4.1726e-07
4.17255e-07
4.1725e-07
4.17244e-07
4.17237e-07
4.17231e-07
4.17222e-07
4.17216e-07
4.17204e-07
4.17195e-07
4.17178e-07
4.17165e-07
4.1715e-07
4.17119e-07
4.17125e-07
4.17048e-07
4.17105e-07
4.1695e-07
4.17102e-07
4.16847e-07
4.17113e-07
4.16883e-07
4.17206e-07
4.17324e-07
4.17329e-07
4.17328e-07
4.17327e-07
4.17327e-07
4.17326e-07
4.17325e-07
4.17324e-07
4.17324e-07
4.17323e-07
4.17323e-07
4.17322e-07
4.17322e-07
4.17321e-07
4.17321e-07
4.1732e-07
4.1732e-07
4.1732e-07
4.17319e-07
4.17319e-07
4.17319e-07
4.17319e-07
4.17318e-07
4.17318e-07
4.17318e-07
4.17318e-07
4.17318e-07
4.17318e-07
4.17318e-07
4.17317e-07
4.17317e-07
4.17317e-07
4.17317e-07
4.17317e-07
4.17317e-07
4.17317e-07
4.17317e-07
4.17317e-07
4.17316e-07
4.17316e-07
4.17316e-07
4.17316e-07
4.17316e-07
4.17316e-07
4.17316e-07
4.17315e-07
4.17315e-07
4.17315e-07
4.17314e-07
4.17314e-07
4.17314e-07
4.17314e-07
4.17313e-07
4.17313e-07
4.17313e-07
4.17313e-07
4.17313e-07
4.17313e-07
4.17313e-07
4.17313e-07
4.17313e-07
4.17313e-07
4.17313e-07
4.17313e-07
4.17313e-07
4.17313e-07
4.17313e-07
4.17313e-07
4.17314e-07
4.17314e-07
4.17314e-07
4.17314e-07
4.17314e-07
4.17314e-07
4.17314e-07
4.17314e-07
4.17314e-07
4.17314e-07
4.17313e-07
4.17313e-07
4.17313e-07
4.17313e-07
4.17313e-07
4.17313e-07
4.17313e-07
4.17314e-07
4.17314e-07
4.17314e-07
4.17314e-07
4.17314e-07
4.17314e-07
4.17314e-07
4.17314e-07
4.17314e-07
4.17314e-07
4.17314e-07
4.17314e-07
4.17314e-07
4.17314e-07
4.17315e-07
4.17315e-07
4.17315e-07
4.17315e-07
4.17315e-07
4.17315e-07
4.17316e-07
4.17316e-07
4.17316e-07
4.17316e-07
4.17316e-07
4.17316e-07
4.17317e-07
4.17317e-07
4.17317e-07
4.17318e-07
4.17318e-07
4.17318e-07
4.17318e-07
4.17319e-07
4.17318e-07
4.17319e-07
4.17318e-07
4.1732e-07
4.1732e-07
4.1731e-07
4.17322e-07
4.17283e-07
4.17325e-07
4.1722e-07
4.17328e-07
4.17114e-07
4.17328e-07
4.17096e-07
4.17351e-07
4.17453e-07
4.17328e-07
4.17327e-07
4.17327e-07
4.17326e-07
4.17325e-07
4.17324e-07
4.17324e-07
4.17323e-07
4.17322e-07
4.17322e-07
4.17321e-07
4.17321e-07
4.1732e-07
4.1732e-07
4.17319e-07
4.17319e-07
4.17319e-07
4.17318e-07
4.17318e-07
4.17318e-07
4.17317e-07
4.17317e-07
4.17317e-07
4.17317e-07
4.17316e-07
4.17316e-07
4.17316e-07
4.17316e-07
4.17316e-07
4.17315e-07
4.17315e-07
4.17315e-07
4.17315e-07
4.17315e-07
4.17315e-07
4.17315e-07
4.17315e-07
4.17314e-07
4.17314e-07
4.17314e-07
4.17314e-07
4.17314e-07
4.17313e-07
4.17313e-07
4.17312e-07
4.17312e-07
4.17312e-07
4.17311e-07
4.17311e-07
4.17311e-07
4.1731e-07
4.1731e-07
4.1731e-07
4.1731e-07
4.17309e-07
4.17309e-07
4.17309e-07
4.17309e-07
4.17309e-07
4.17309e-07
4.17309e-07
4.17309e-07
4.17309e-07
4.17309e-07
4.17309e-07
4.17309e-07
4.17309e-07
4.17309e-07
4.17309e-07
4.17309e-07
4.17309e-07
4.17309e-07
4.17309e-07
4.17308e-07
4.17308e-07
4.17307e-07
4.17307e-07
4.17307e-07
4.17306e-07
4.17306e-07
4.17306e-07
4.17306e-07
4.17305e-07
4.17305e-07
4.17305e-07
4.17305e-07
4.17305e-07
4.17305e-07
4.17305e-07
4.17305e-07
4.17305e-07
4.17305e-07
4.17304e-07
4.17304e-07
4.17303e-07
4.17303e-07
4.17302e-07
4.17301e-07
4.17301e-07
4.173e-07
4.173e-07
4.173e-07
4.17299e-07
4.17299e-07
4.17299e-07
4.17298e-07
4.17298e-07
4.17297e-07
4.17296e-07
4.17295e-07
4.17295e-07
4.17294e-07
4.17293e-07
4.17293e-07
4.17292e-07
4.17292e-07
4.1729e-07
4.17292e-07
4.1729e-07
4.17294e-07
4.17292e-07
4.17295e-07
4.17298e-07
4.17289e-07
4.17307e-07
4.17272e-07
4.17325e-07
4.17236e-07
4.17342e-07
4.17163e-07
4.17346e-07
4.17119e-07
4.17337e-07
4.17519e-07
4.17329e-07
4.17328e-07
4.17327e-07
4.17327e-07
4.17326e-07
4.17325e-07
4.17324e-07
4.17324e-07
4.17323e-07
4.17323e-07
4.17322e-07
4.17322e-07
4.17321e-07
4.17321e-07
4.1732e-07
4.1732e-07
4.1732e-07
4.17319e-07
4.17319e-07
4.17319e-07
4.17319e-07
4.17318e-07
4.17318e-07
4.17318e-07
4.17318e-07
4.17318e-07
4.17318e-07
4.17318e-07
4.17318e-07
4.17317e-07
4.17317e-07
4.17317e-07
4.17317e-07
4.17317e-07
4.17317e-07
4.17317e-07
4.17317e-07
4.17317e-07
4.17316e-07
4.17316e-07
4.17316e-07
4.17316e-07
4.17316e-07
4.17315e-07
4.17315e-07
4.17315e-07
4.17314e-07
4.17314e-07
4.17314e-07
4.17313e-07
4.17313e-07
4.17313e-07
4.17312e-07
4.17312e-07
4.17312e-07
4.17312e-07
4.17312e-07
4.17312e-07
4.17312e-07
4.17312e-07
4.17312e-07
4.17312e-07
4.17312e-07
4.17312e-07
4.17312e-07
4.17312e-07
4.17312e-07
4.17312e-07
4.17312e-07
4.17312e-07
4.17312e-07
4.17312e-07
4.17312e-07
4.17312e-07
4.17312e-07
4.17312e-07
4.17312e-07
4.17312e-07
4.17312e-07
4.17312e-07
4.17312e-07
4.17312e-07
4.17312e-07
4.17312e-07
4.17312e-07
4.17312e-07
4.17312e-07
4.17312e-07
4.17312e-07
4.17312e-07
4.17312e-07
4.17312e-07
4.17313e-07
4.17313e-07
4.17312e-07
4.17312e-07
4.17312e-07
4.17312e-07
4.17312e-07
4.17312e-07
4.17312e-07
4.17312e-07
4.17313e-07
4.17313e-07
4.17313e-07
4.17313e-07
4.17313e-07
4.17314e-07
4.17314e-07
4.17314e-07
4.17314e-07
4.17314e-07
4.17315e-07
4.17315e-07
4.17315e-07
4.17316e-07
4.17315e-07
4.17315e-07
4.17313e-07
4.17314e-07
4.1731e-07
4.1731e-07
4.17307e-07
4.17294e-07
4.17304e-07
4.17256e-07
4.17299e-07
4.17176e-07
4.17287e-07
4.1702e-07
4.17239e-07
4.16863e-07
4.17152e-07
4.17413e-07
4.17329e-07
4.17328e-07
4.17327e-07
4.17327e-07
4.17326e-07
4.17325e-07
4.17324e-07
4.17324e-07
4.17323e-07
4.17322e-07
4.17322e-07
4.17321e-07
4.17321e-07
4.1732e-07
4.1732e-07
4.17319e-07
4.17319e-07
4.17319e-07
4.17318e-07
4.17318e-07
4.17318e-07
4.17317e-07
4.17317e-07
4.17317e-07
4.17317e-07
4.17317e-07
4.17316e-07
4.17316e-07
4.17316e-07
4.17316e-07
4.17316e-07
4.17315e-07
4.17315e-07
4.17315e-07
4.17315e-07
4.17315e-07
4.17315e-07
4.17315e-07
4.17315e-07
4.17315e-07
4.17314e-07
4.17314e-07
4.17314e-07
4.17313e-07
4.17313e-07
4.17312e-07
4.17312e-07
4.17312e-07
4.17311e-07
4.17311e-07
4.17311e-07
4.1731e-07
4.1731e-07
4.1731e-07
4.1731e-07
4.1731e-07
4.1731e-07
4.1731e-07
4.1731e-07
4.1731e-07
4.1731e-07
4.1731e-07
4.1731e-07
4.1731e-07
4.1731e-07
4.1731e-07
4.1731e-07
4.1731e-07
4.1731e-07
4.1731e-07
4.1731e-07
4.1731e-07
4.17309e-07
4.17309e-07
4.17309e-07
4.17308e-07
4.17308e-07
4.17307e-07
4.17307e-07
4.17306e-07
4.17306e-07
4.17306e-07
4.17306e-07
4.17306e-07
4.17306e-07
4.17306e-07
4.17306e-07
4.17306e-07
4.17306e-07
4.17306e-07
4.17306e-07
4.17306e-07
4.17305e-07
4.17305e-07
4.17304e-07
4.17303e-07
4.17303e-07
4.17302e-07
4.17302e-07
4.17301e-07
4.17301e-07
4.17301e-07
4.173e-07
4.173e-07
4.173e-07
4.173e-07
4.17299e-07
4.17299e-07
4.17298e-07
4.17297e-07
4.17296e-07
4.17296e-07
4.17295e-07
4.17295e-07
4.17295e-07
4.17296e-07
4.17296e-07
4.17298e-07
4.17298e-07
4.17301e-07
4.17301e-07
4.17304e-07
4.17305e-07
4.173e-07
4.17315e-07
4.17285e-07
4.17331e-07
4.17247e-07
4.17352e-07
4.17137e-07
4.17339e-07
4.16913e-07
4.17201e-07
4.1763e-07
4.1733e-07
4.17329e-07
4.17328e-07
4.17327e-07
4.17326e-07
4.17325e-07
4.17325e-07
4.17324e-07
4.17323e-07
4.17323e-07
4.17322e-07
4.17322e-07
4.17321e-07
4.17321e-07
4.17321e-07
4.1732e-07
4.1732e-07
4.17319e-07
4.17319e-07
4.17319e-07
4.17319e-07
4.17318e-07
4.17318e-07
4.17318e-07
4.17318e-07
4.17318e-07
4.17318e-07
4.17318e-07
4.17318e-07
4.17317e-07
4.17317e-07
4.17317e-07
4.17317e-07
4.17317e-07
4.17317e-07
4.17317e-07
4.17317e-07