/*--------------------------------*- C++ -*----------------------------------*\
| =========                 |                                                 |
| \\      /  F ield         | OpenFOAM: The Open Source CFD Toolbox           |
|  \\    /   O peration     | Version:  v1912                                 |
|   \\  /    A nd           | Website:  www.openfoam.com                      |
|    \\/     M anipulation  |                                                 |
\*---------------------------------------------------------------------------*/
FoamFile
{
    version     2.0;
    format      ascii;
    class       volScalarField;
    location    "60";
    object      k;
}
// * * * * * * * * * * * * * * * * * * * * * * * * * * * * * * * * * * * * * //

dimensions      [0 2 -2 0 0 0 0];


internalField   nonuniform List<scalar> 
14268
(
7.18509e-12
7.24177e-12
7.2963e-12
7.34865e-12
7.3989e-12
7.44706e-12
7.49324e-12
7.53746e-12
7.57982e-12
7.62034e-12
7.65911e-12
7.69617e-12
7.7316e-12
7.76543e-12
7.79775e-12
7.82858e-12
7.85801e-12
7.88606e-12
7.91281e-12
7.93829e-12
7.96258e-12
7.98569e-12
8.00769e-12
8.02862e-12
8.04854e-12
8.06746e-12
8.08546e-12
8.10255e-12
8.11879e-12
8.1342e-12
8.14883e-12
8.16271e-12
8.17588e-12
8.18836e-12
8.2002e-12
8.21141e-12
8.22204e-12
8.23209e-12
8.24162e-12
8.25063e-12
8.25915e-12
8.26722e-12
8.27484e-12
8.28205e-12
8.28885e-12
8.29528e-12
8.30136e-12
8.30709e-12
8.3125e-12
8.3176e-12
8.32242e-12
8.32695e-12
8.33123e-12
8.33526e-12
8.33906e-12
8.34263e-12
8.34599e-12
8.34916e-12
8.35214e-12
8.35494e-12
8.35757e-12
8.36005e-12
8.36237e-12
8.36455e-12
8.3666e-12
8.36853e-12
8.37033e-12
8.37203e-12
8.37361e-12
8.3751e-12
8.37649e-12
8.3778e-12
8.37902e-12
8.38017e-12
8.38124e-12
8.38224e-12
8.38317e-12
8.38405e-12
8.38487e-12
8.38563e-12
8.38634e-12
8.38701e-12
8.38763e-12
8.3882e-12
8.38874e-12
8.38925e-12
8.38971e-12
8.39015e-12
8.39055e-12
8.39093e-12
8.39128e-12
8.39161e-12
8.39191e-12
8.39219e-12
8.39245e-12
8.39269e-12
8.39292e-12
8.39312e-12
8.39332e-12
8.3935e-12
8.39366e-12
8.39381e-12
8.39395e-12
8.39408e-12
8.3942e-12
8.39431e-12
8.39442e-12
8.39451e-12
8.39459e-12
8.39467e-12
8.39475e-12
8.39481e-12
8.39487e-12
8.39493e-12
8.39498e-12
8.39502e-12
8.39506e-12
8.3951e-12
8.39513e-12
8.39516e-12
8.39518e-12
8.39521e-12
8.39522e-12
8.39524e-12
8.39524e-12
8.39527e-12
8.39524e-12
8.39528e-12
8.39524e-12
8.39528e-12
8.39522e-12
8.39528e-12
8.39521e-12
8.39527e-12
8.39519e-12
8.39528e-12
8.39519e-12
8.39533e-12
8.39524e-12
8.39543e-12
8.39535e-12
8.39554e-12
8.39548e-12
8.39571e-12
8.39566e-12
8.39581e-12
8.39576e-12
8.39585e-12
8.3958e-12
8.39585e-12
8.3958e-12
8.39583e-12
8.39578e-12
8.3958e-12
8.39576e-12
8.39577e-12
8.39573e-12
8.39574e-12
8.39573e-12
8.39575e-12
8.39584e-12
8.39587e-12
8.4005e-12
8.49482e-12
2.11331e-10
2.13021e-10
2.14647e-10
2.16208e-10
2.17707e-10
2.19144e-10
2.20521e-10
2.21841e-10
2.23105e-10
2.24315e-10
2.25472e-10
2.26579e-10
2.27636e-10
2.28647e-10
2.29612e-10
2.30533e-10
2.31412e-10
2.3225e-10
2.33049e-10
2.3381e-10
2.34536e-10
2.35226e-10
2.35884e-10
2.36509e-10
2.37104e-10
2.3767e-10
2.38208e-10
2.38719e-10
2.39204e-10
2.39665e-10
2.40102e-10
2.40517e-10
2.40911e-10
2.41284e-10
2.41638e-10
2.41973e-10
2.42291e-10
2.42591e-10
2.42876e-10
2.43146e-10
2.43401e-10
2.43642e-10
2.4387e-10
2.44085e-10
2.44289e-10
2.44481e-10
2.44663e-10
2.44834e-10
2.44996e-10
2.45149e-10
2.45293e-10
2.45428e-10
2.45556e-10
2.45677e-10
2.4579e-10
2.45897e-10
2.45998e-10
2.46092e-10
2.46182e-10
2.46265e-10
2.46344e-10
2.46418e-10
2.46488e-10
2.46553e-10
2.46614e-10
2.46672e-10
2.46726e-10
2.46776e-10
2.46824e-10
2.46868e-10
2.4691e-10
2.46949e-10
2.46986e-10
2.4702e-10
2.47052e-10
2.47082e-10
2.4711e-10
2.47136e-10
2.4716e-10
2.47183e-10
2.47205e-10
2.47224e-10
2.47243e-10
2.4726e-10
2.47276e-10
2.47291e-10
2.47305e-10
2.47318e-10
2.47331e-10
2.47342e-10
2.47352e-10
2.47362e-10
2.47371e-10
2.4738e-10
2.47387e-10
2.47395e-10
2.47401e-10
2.47407e-10
2.47413e-10
2.47419e-10
2.47423e-10
2.47428e-10
2.47432e-10
2.47436e-10
2.4744e-10
2.47443e-10
2.47446e-10
2.47449e-10
2.47451e-10
2.47454e-10
2.47456e-10
2.47458e-10
2.4746e-10
2.47461e-10
2.47463e-10
2.47464e-10
2.47465e-10
2.47467e-10
2.47467e-10
2.47468e-10
2.47469e-10
2.4747e-10
2.4747e-10
2.47471e-10
2.47471e-10
2.47472e-10
2.47471e-10
2.47472e-10
2.47471e-10
2.47472e-10
2.4747e-10
2.47472e-10
2.4747e-10
2.47472e-10
2.47469e-10
2.47472e-10
2.47469e-10
2.47474e-10
2.47471e-10
2.47476e-10
2.47474e-10
2.4748e-10
2.47478e-10
2.47485e-10
2.47483e-10
2.47487e-10
2.47486e-10
2.47489e-10
2.47487e-10
2.47489e-10
2.47487e-10
2.47488e-10
2.47487e-10
2.47487e-10
2.47486e-10
2.47486e-10
2.47485e-10
2.47486e-10
2.47485e-10
2.47486e-10
2.47488e-10
2.47489e-10
2.47625e-10
2.50146e-10
1.42989e-09
1.44101e-09
1.4517e-09
1.46196e-09
1.4718e-09
1.48124e-09
1.49029e-09
1.49895e-09
1.50725e-09
1.51518e-09
1.52277e-09
1.53003e-09
1.53696e-09
1.54359e-09
1.54991e-09
1.55594e-09
1.5617e-09
1.56719e-09
1.57243e-09
1.57741e-09
1.58216e-09
1.58668e-09
1.59098e-09
1.59508e-09
1.59897e-09
1.60267e-09
1.60619e-09
1.60953e-09
1.61271e-09
1.61572e-09
1.61858e-09
1.6213e-09
1.62387e-09
1.62631e-09
1.62862e-09
1.63082e-09
1.63289e-09
1.63486e-09
1.63672e-09
1.63848e-09
1.64015e-09
1.64172e-09
1.64321e-09
1.64462e-09
1.64595e-09
1.64721e-09
1.64839e-09
1.64951e-09
1.65057e-09
1.65157e-09
1.65251e-09
1.65339e-09
1.65423e-09
1.65502e-09
1.65576e-09
1.65646e-09
1.65711e-09
1.65773e-09
1.65831e-09
1.65886e-09
1.65938e-09
1.65986e-09
1.66031e-09
1.66074e-09
1.66114e-09
1.66152e-09
1.66187e-09
1.6622e-09
1.66251e-09
1.6628e-09
1.66307e-09
1.66333e-09
1.66357e-09
1.66379e-09
1.664e-09
1.66419e-09
1.66438e-09
1.66455e-09
1.66471e-09
1.66486e-09
1.665e-09
1.66513e-09
1.66525e-09
1.66536e-09
1.66547e-09
1.66556e-09
1.66565e-09
1.66574e-09
1.66582e-09
1.66589e-09
1.66596e-09
1.66602e-09
1.66608e-09
1.66614e-09
1.66619e-09
1.66624e-09
1.66628e-09
1.66632e-09
1.66636e-09
1.66639e-09
1.66643e-09
1.66646e-09
1.66648e-09
1.66651e-09
1.66653e-09
1.66655e-09
1.66657e-09
1.66659e-09
1.66661e-09
1.66662e-09
1.66664e-09
1.66665e-09
1.66666e-09
1.66667e-09
1.66668e-09
1.66669e-09
1.6667e-09
1.66671e-09
1.66671e-09
1.66672e-09
1.66672e-09
1.66673e-09
1.66673e-09
1.66673e-09
1.66673e-09
1.66674e-09
1.66674e-09
1.66674e-09
1.66673e-09
1.66674e-09
1.66673e-09
1.66674e-09
1.66673e-09
1.66674e-09
1.66672e-09
1.66674e-09
1.66673e-09
1.66675e-09
1.66673e-09
1.66677e-09
1.66676e-09
1.66679e-09
1.66678e-09
1.66682e-09
1.66682e-09
1.66684e-09
1.66683e-09
1.66685e-09
1.66684e-09
1.66685e-09
1.66684e-09
1.66685e-09
1.66684e-09
1.66684e-09
1.66683e-09
1.66683e-09
1.66683e-09
1.66683e-09
1.66683e-09
1.66683e-09
1.66685e-09
1.66686e-09
1.66773e-09
1.68242e-09
4.74918e-09
4.78397e-09
4.81742e-09
4.84951e-09
4.88028e-09
4.90976e-09
4.938e-09
4.96502e-09
4.99089e-09
5.01562e-09
5.03927e-09
5.06187e-09
5.08346e-09
5.10406e-09
5.12373e-09
5.14249e-09
5.16039e-09
5.17744e-09
5.1937e-09
5.20918e-09
5.22392e-09
5.23795e-09
5.25131e-09
5.264e-09
5.27608e-09
5.28756e-09
5.29846e-09
5.30882e-09
5.31866e-09
5.32799e-09
5.33686e-09
5.34526e-09
5.35323e-09
5.36079e-09
5.36795e-09
5.37473e-09
5.38116e-09
5.38724e-09
5.393e-09
5.39845e-09
5.40361e-09
5.40848e-09
5.41309e-09
5.41744e-09
5.42156e-09
5.42544e-09
5.42911e-09
5.43258e-09
5.43584e-09
5.43893e-09
5.44183e-09
5.44457e-09
5.44716e-09
5.44959e-09
5.45188e-09
5.45404e-09
5.45607e-09
5.45798e-09
5.45978e-09
5.46147e-09
5.46306e-09
5.46456e-09
5.46596e-09
5.46728e-09
5.46852e-09
5.46968e-09
5.47077e-09
5.47179e-09
5.47275e-09
5.47364e-09
5.47449e-09
5.47527e-09
5.47601e-09
5.4767e-09
5.47735e-09
5.47795e-09
5.47852e-09
5.47904e-09
5.47954e-09
5.48e-09
5.48043e-09
5.48083e-09
5.4812e-09
5.48155e-09
5.48188e-09
5.48218e-09
5.48246e-09
5.48273e-09
5.48297e-09
5.4832e-09
5.48341e-09
5.48361e-09
5.48379e-09
5.48396e-09
5.48411e-09
5.48426e-09
5.4844e-09
5.48452e-09
5.48464e-09
5.48474e-09
5.48484e-09
5.48494e-09
5.48502e-09
5.4851e-09
5.48517e-09
5.48524e-09
5.4853e-09
5.48536e-09
5.48541e-09
5.48546e-09
5.4855e-09
5.48554e-09
5.48558e-09
5.48561e-09
5.48564e-09
5.48567e-09
5.48569e-09
5.48571e-09
5.48573e-09
5.48575e-09
5.48576e-09
5.48578e-09
5.48578e-09
5.4858e-09
5.4858e-09
5.48581e-09
5.4858e-09
5.48582e-09
5.4858e-09
5.48582e-09
5.48579e-09
5.48582e-09
5.48578e-09
5.48582e-09
5.48577e-09
5.48582e-09
5.48577e-09
5.48585e-09
5.4858e-09
5.48591e-09
5.48586e-09
5.48598e-09
5.48594e-09
5.48607e-09
5.48605e-09
5.48613e-09
5.4861e-09
5.48615e-09
5.48612e-09
5.48615e-09
5.48612e-09
5.48614e-09
5.48611e-09
5.48612e-09
5.4861e-09
5.4861e-09
5.48608e-09
5.48609e-09
5.48608e-09
5.48609e-09
5.48614e-09
5.48617e-09
5.48885e-09
5.52961e-09
1.07636e-08
1.0835e-08
1.09036e-08
1.09693e-08
1.10323e-08
1.10926e-08
1.11502e-08
1.12054e-08
1.12581e-08
1.13085e-08
1.13567e-08
1.14026e-08
1.14465e-08
1.14883e-08
1.15283e-08
1.15663e-08
1.16026e-08
1.16372e-08
1.16701e-08
1.17014e-08
1.17313e-08
1.17596e-08
1.17866e-08
1.18123e-08
1.18367e-08
1.18599e-08
1.18819e-08
1.19028e-08
1.19226e-08
1.19415e-08
1.19593e-08
1.19763e-08
1.19923e-08
1.20075e-08
1.2022e-08
1.20356e-08
1.20486e-08
1.20608e-08
1.20724e-08
1.20834e-08
1.20937e-08
1.21035e-08
1.21128e-08
1.21216e-08
1.21298e-08
1.21376e-08
1.2145e-08
1.2152e-08
1.21586e-08
1.21647e-08
1.21706e-08
1.21761e-08
1.21813e-08
1.21862e-08
1.21908e-08
1.21951e-08
1.21992e-08
1.2203e-08
1.22066e-08
1.221e-08
1.22132e-08
1.22162e-08
1.2219e-08
1.22217e-08
1.22242e-08
1.22265e-08
1.22287e-08
1.22308e-08
1.22327e-08
1.22345e-08
1.22362e-08
1.22377e-08
1.22392e-08
1.22406e-08
1.22419e-08
1.22431e-08
1.22443e-08
1.22453e-08
1.22463e-08
1.22472e-08
1.22481e-08
1.22489e-08
1.22497e-08
1.22504e-08
1.2251e-08
1.22516e-08
1.22522e-08
1.22527e-08
1.22532e-08
1.22537e-08
1.22541e-08
1.22545e-08
1.22548e-08
1.22552e-08
1.22555e-08
1.22558e-08
1.22561e-08
1.22563e-08
1.22566e-08
1.22568e-08
1.2257e-08
1.22572e-08
1.22573e-08
1.22575e-08
1.22576e-08
1.22578e-08
1.22579e-08
1.2258e-08
1.22581e-08
1.22582e-08
1.22583e-08
1.22584e-08
1.22584e-08
1.22585e-08
1.22586e-08
1.22586e-08
1.22587e-08
1.22587e-08
1.22587e-08
1.22588e-08
1.22588e-08
1.22588e-08
1.22589e-08
1.22589e-08
1.22589e-08
1.22589e-08
1.22589e-08
1.22589e-08
1.22589e-08
1.22589e-08
1.22589e-08
1.22589e-08
1.22588e-08
1.22589e-08
1.22588e-08
1.22589e-08
1.22588e-08
1.2259e-08
1.22589e-08
1.22591e-08
1.2259e-08
1.22592e-08
1.22592e-08
1.22594e-08
1.22594e-08
1.22595e-08
1.22595e-08
1.22596e-08
1.22595e-08
1.22596e-08
1.22595e-08
1.22596e-08
1.22595e-08
1.22595e-08
1.22595e-08
1.22595e-08
1.22595e-08
1.22595e-08
1.22595e-08
1.22595e-08
1.22596e-08
1.22596e-08
1.2265e-08
1.23402e-08
1.9208e-08
1.93187e-08
1.9425e-08
1.95266e-08
1.96239e-08
1.97168e-08
1.98057e-08
1.98905e-08
1.99715e-08
2.00489e-08
2.01227e-08
2.01931e-08
2.02602e-08
2.03242e-08
2.03852e-08
2.04432e-08
2.04986e-08
2.05512e-08
2.06013e-08
2.0649e-08
2.06944e-08
2.07375e-08
2.07785e-08
2.08174e-08
2.08544e-08
2.08895e-08
2.09229e-08
2.09546e-08
2.09846e-08
2.10131e-08
2.10401e-08
2.10657e-08
2.109e-08
2.1113e-08
2.11348e-08
2.11554e-08
2.1175e-08
2.11934e-08
2.12109e-08
2.12275e-08
2.12431e-08
2.12579e-08
2.12719e-08
2.12851e-08
2.12976e-08
2.13093e-08
2.13204e-08
2.13309e-08
2.13408e-08
2.13502e-08
2.1359e-08
2.13672e-08
2.13751e-08
2.13824e-08
2.13894e-08
2.13959e-08
2.1402e-08
2.14078e-08
2.14132e-08
2.14183e-08
2.14231e-08
2.14277e-08
2.14319e-08
2.14359e-08
2.14396e-08
2.14431e-08
2.14464e-08
2.14495e-08
2.14524e-08
2.14551e-08
2.14576e-08
2.146e-08
2.14623e-08
2.14643e-08
2.14663e-08
2.14681e-08
2.14698e-08
2.14714e-08
2.14729e-08
2.14743e-08
2.14756e-08
2.14768e-08
2.14779e-08
2.1479e-08
2.148e-08
2.14809e-08
2.14817e-08
2.14825e-08
2.14833e-08
2.1484e-08
2.14846e-08
2.14852e-08
2.14857e-08
2.14863e-08
2.14867e-08
2.14872e-08
2.14876e-08
2.1488e-08
2.14883e-08
2.14886e-08
2.14889e-08
2.14892e-08
2.14895e-08
2.14897e-08
2.14899e-08
2.14901e-08
2.14903e-08
2.14905e-08
2.14906e-08
2.14908e-08
2.14909e-08
2.1491e-08
2.14912e-08
2.14913e-08
2.14913e-08
2.14914e-08
2.14915e-08
2.14916e-08
2.14916e-08
2.14917e-08
2.14917e-08
2.14918e-08
2.14918e-08
2.14918e-08
2.14918e-08
2.14919e-08
2.14918e-08
2.14919e-08
2.14918e-08
2.14919e-08
2.14918e-08
2.14919e-08
2.14918e-08
2.14919e-08
2.14917e-08
2.14919e-08
2.14917e-08
2.1492e-08
2.14918e-08
2.14922e-08
2.1492e-08
2.14924e-08
2.14923e-08
2.14927e-08
2.14926e-08
2.14928e-08
2.14927e-08
2.14929e-08
2.14928e-08
2.14929e-08
2.14928e-08
2.14929e-08
2.14928e-08
2.14928e-08
2.14927e-08
2.14928e-08
2.14927e-08
2.14927e-08
2.14927e-08
2.14927e-08
2.14929e-08
2.1493e-08
2.1501e-08
2.16073e-08
2.9068e-08
2.92073e-08
2.93407e-08
2.94682e-08
2.959e-08
2.97062e-08
2.98171e-08
2.99228e-08
3.00237e-08
3.01198e-08
3.02114e-08
3.02986e-08
3.03817e-08
3.04608e-08
3.05361e-08
3.06077e-08
3.06759e-08
3.07407e-08
3.08023e-08
3.08609e-08
3.09165e-08
3.09694e-08
3.10197e-08
3.10673e-08
3.11126e-08
3.11556e-08
3.11963e-08
3.1235e-08
3.12717e-08
3.13064e-08
3.13394e-08
3.13706e-08
3.14002e-08
3.14282e-08
3.14547e-08
3.14798e-08
3.15036e-08
3.15261e-08
3.15473e-08
3.15674e-08
3.15864e-08
3.16044e-08
3.16214e-08
3.16374e-08
3.16525e-08
3.16668e-08
3.16803e-08
3.1693e-08
3.1705e-08
3.17163e-08
3.1727e-08
3.1737e-08
3.17465e-08
3.17554e-08
3.17638e-08
3.17717e-08
3.17792e-08
3.17862e-08
3.17928e-08
3.1799e-08
3.18048e-08
3.18102e-08
3.18154e-08
3.18202e-08
3.18247e-08
3.1829e-08
3.18329e-08
3.18367e-08
3.18402e-08
3.18435e-08
3.18465e-08
3.18494e-08
3.18521e-08
3.18546e-08
3.1857e-08
3.18592e-08
3.18613e-08
3.18632e-08
3.1865e-08
3.18667e-08
3.18683e-08
3.18697e-08
3.18711e-08
3.18724e-08
3.18736e-08
3.18747e-08
3.18757e-08
3.18767e-08
3.18776e-08
3.18784e-08
3.18792e-08
3.18799e-08
3.18806e-08
3.18812e-08
3.18818e-08
3.18823e-08
3.18828e-08
3.18832e-08
3.18837e-08
3.18841e-08
3.18844e-08
3.18848e-08
3.18851e-08
3.18854e-08
3.18856e-08
3.18859e-08
3.18861e-08
3.18863e-08
3.18865e-08
3.18867e-08
3.18868e-08
3.1887e-08
3.18871e-08
3.18872e-08
3.18873e-08
3.18874e-08
3.18875e-08
3.18876e-08
3.18877e-08
3.18878e-08
3.18878e-08
3.18879e-08
3.18879e-08
3.18879e-08
3.18879e-08
3.1888e-08
3.18879e-08
3.1888e-08
3.18879e-08
3.1888e-08
3.18879e-08
3.1888e-08
3.18878e-08
3.1888e-08
3.18878e-08
3.1888e-08
3.18878e-08
3.18881e-08
3.18879e-08
3.18883e-08
3.18882e-08
3.18886e-08
3.18885e-08
3.1889e-08
3.18889e-08
3.18892e-08
3.18891e-08
3.18892e-08
3.18891e-08
3.18892e-08
3.18891e-08
3.18892e-08
3.18891e-08
3.18891e-08
3.1889e-08
3.18891e-08
3.1889e-08
3.1889e-08
3.1889e-08
3.1889e-08
3.18892e-08
3.18893e-08
3.18991e-08
3.2023e-08
3.90265e-08
3.91736e-08
3.93142e-08
3.94482e-08
3.9576e-08
3.96977e-08
3.98137e-08
3.99241e-08
4.00293e-08
4.01295e-08
4.02248e-08
4.03155e-08
4.04019e-08
4.0484e-08
4.05621e-08
4.06363e-08
4.07069e-08
4.07739e-08
4.08377e-08
4.08982e-08
4.09557e-08
4.10103e-08
4.10621e-08
4.11113e-08
4.1158e-08
4.12022e-08
4.12442e-08
4.1284e-08
4.13217e-08
4.13575e-08
4.13914e-08
4.14235e-08
4.14539e-08
4.14826e-08
4.15099e-08
4.15356e-08
4.156e-08
4.15831e-08
4.16049e-08
4.16255e-08
4.1645e-08
4.16634e-08
4.16808e-08
4.16973e-08
4.17128e-08
4.17274e-08
4.17412e-08
4.17543e-08
4.17666e-08
4.17781e-08
4.17891e-08
4.17994e-08
4.18091e-08
4.18182e-08
4.18268e-08
4.18349e-08
4.18425e-08
4.18497e-08
4.18564e-08
4.18628e-08
4.18687e-08
4.18743e-08
4.18796e-08
4.18845e-08
4.18891e-08
4.18935e-08
4.18975e-08
4.19014e-08
4.1905e-08
4.19083e-08
4.19115e-08
4.19144e-08
4.19172e-08
4.19198e-08
4.19222e-08
4.19244e-08
4.19265e-08
4.19285e-08
4.19304e-08
4.19321e-08
4.19337e-08
4.19352e-08
4.19366e-08
4.19379e-08
4.19391e-08
4.19403e-08
4.19413e-08
4.19423e-08
4.19432e-08
4.19441e-08
4.19449e-08
4.19456e-08
4.19463e-08
4.19469e-08
4.19475e-08
4.1948e-08
4.19486e-08
4.1949e-08
4.19495e-08
4.19499e-08
4.19502e-08
4.19506e-08
4.19509e-08
4.19512e-08
4.19515e-08
4.19517e-08
4.1952e-08
4.19522e-08
4.19524e-08
4.19525e-08
4.19527e-08
4.19529e-08
4.1953e-08
4.19531e-08
4.19532e-08
4.19533e-08
4.19534e-08
4.19535e-08
4.19536e-08
4.19536e-08
4.19537e-08
4.19538e-08
4.19538e-08
4.19538e-08
4.19538e-08
4.19539e-08
4.19538e-08
4.19539e-08
4.19538e-08
4.19539e-08
4.19538e-08
4.19539e-08
4.19537e-08
4.19539e-08
4.19537e-08
4.19539e-08
4.19537e-08
4.1954e-08
4.19538e-08
4.19543e-08
4.19541e-08
4.19545e-08
4.19544e-08
4.19549e-08
4.19548e-08
4.19551e-08
4.1955e-08
4.19552e-08
4.19551e-08
4.19552e-08
4.19551e-08
4.19551e-08
4.1955e-08
4.19551e-08
4.1955e-08
4.1955e-08
4.19549e-08
4.1955e-08
4.19549e-08
4.1955e-08
4.19552e-08
4.19553e-08
4.19652e-08
4.20897e-08
4.7863e-08
4.80002e-08
4.81312e-08
4.8256e-08
4.83748e-08
4.84878e-08
4.85955e-08
4.86978e-08
4.87952e-08
4.88878e-08
4.89759e-08
4.90596e-08
4.91392e-08
4.92148e-08
4.92867e-08
4.93549e-08
4.94198e-08
4.94814e-08
4.95399e-08
4.95954e-08
4.96481e-08
4.96981e-08
4.97455e-08
4.97905e-08
4.98332e-08
4.98736e-08
4.9912e-08
4.99484e-08
4.99828e-08
5.00154e-08
5.00464e-08
5.00756e-08
5.01033e-08
5.01296e-08
5.01544e-08
5.01779e-08
5.02001e-08
5.02211e-08
5.02409e-08
5.02597e-08
5.02775e-08
5.02942e-08
5.031e-08
5.0325e-08
5.03391e-08
5.03524e-08
5.03649e-08
5.03768e-08
5.0388e-08
5.03985e-08
5.04084e-08
5.04178e-08
5.04266e-08
5.04349e-08
5.04427e-08
5.04501e-08
5.0457e-08
5.04635e-08
5.04696e-08
5.04754e-08
5.04808e-08
5.04858e-08
5.04906e-08
5.04951e-08
5.04993e-08
5.05032e-08
5.05069e-08
5.05104e-08
5.05137e-08
5.05167e-08
5.05196e-08
5.05223e-08
5.05248e-08
5.05271e-08
5.05293e-08
5.05314e-08
5.05333e-08
5.05351e-08
5.05367e-08
5.05383e-08
5.05398e-08
5.05411e-08
5.05424e-08
5.05436e-08
5.05447e-08
5.05457e-08
5.05467e-08
5.05476e-08
5.05484e-08
5.05492e-08
5.05499e-08
5.05506e-08
5.05512e-08
5.05518e-08
5.05523e-08
5.05528e-08
5.05533e-08
5.05537e-08
5.05541e-08
5.05545e-08
5.05548e-08
5.05551e-08
5.05554e-08
5.05557e-08
5.05559e-08
5.05561e-08
5.05563e-08
5.05565e-08
5.05567e-08
5.05569e-08
5.0557e-08
5.05572e-08
5.05573e-08
5.05574e-08
5.05575e-08
5.05576e-08
5.05577e-08
5.05578e-08
5.05578e-08
5.05579e-08
5.05579e-08
5.0558e-08
5.0558e-08
5.05581e-08
5.0558e-08
5.05581e-08
5.05581e-08
5.05581e-08
5.0558e-08
5.05581e-08
5.0558e-08
5.05581e-08
5.0558e-08
5.05581e-08
5.05579e-08
5.05581e-08
5.05579e-08
5.05582e-08
5.0558e-08
5.05585e-08
5.05583e-08
5.05587e-08
5.05586e-08
5.0559e-08
5.05589e-08
5.05592e-08
5.05591e-08
5.05593e-08
5.05592e-08
5.05593e-08
5.05592e-08
5.05592e-08
5.05591e-08
5.05592e-08
5.05591e-08
5.05591e-08
5.05591e-08
5.05591e-08
5.0559e-08
5.05591e-08
5.05593e-08
5.05594e-08
5.05681e-08
5.06783e-08
5.49427e-08
5.50579e-08
5.51678e-08
5.52723e-08
5.53717e-08
5.54661e-08
5.5556e-08
5.56413e-08
5.57224e-08
5.57994e-08
5.58726e-08
5.5942e-08
5.60081e-08
5.60707e-08
5.61303e-08
5.61867e-08
5.62404e-08
5.62913e-08
5.63396e-08
5.63854e-08
5.64288e-08
5.647e-08
5.65091e-08
5.65462e-08
5.65813e-08
5.66146e-08
5.66461e-08
5.6676e-08
5.67043e-08
5.67311e-08
5.67565e-08
5.67805e-08
5.68032e-08
5.68248e-08
5.68451e-08
5.68644e-08
5.68826e-08
5.68998e-08
5.69161e-08
5.69314e-08
5.6946e-08
5.69597e-08
5.69726e-08
5.69849e-08
5.69964e-08
5.70073e-08
5.70176e-08
5.70273e-08
5.70364e-08
5.7045e-08
5.70531e-08
5.70608e-08
5.7068e-08
5.70748e-08
5.70812e-08
5.70872e-08
5.70928e-08
5.70981e-08
5.71031e-08
5.71078e-08
5.71123e-08
5.71164e-08
5.71203e-08
5.7124e-08
5.71274e-08
5.71306e-08
5.71337e-08
5.71365e-08
5.71392e-08
5.71416e-08
5.7144e-08
5.71462e-08
5.71482e-08
5.71501e-08
5.71519e-08
5.71536e-08
5.71552e-08
5.71566e-08
5.7158e-08
5.71593e-08
5.71605e-08
5.71616e-08
5.71626e-08
5.71636e-08
5.71645e-08
5.71653e-08
5.71661e-08
5.71668e-08
5.71675e-08
5.71681e-08
5.71687e-08
5.71693e-08
5.71698e-08
5.71703e-08
5.71707e-08
5.71711e-08
5.71715e-08
5.71718e-08
5.71721e-08
5.71724e-08
5.71727e-08
5.7173e-08
5.71732e-08
5.71734e-08
5.71736e-08
5.71738e-08
5.7174e-08
5.71742e-08
5.71743e-08
5.71744e-08
5.71746e-08
5.71747e-08
5.71748e-08
5.71749e-08
5.71749e-08
5.7175e-08
5.71751e-08
5.71751e-08
5.71752e-08
5.71753e-08
5.71753e-08
5.71753e-08
5.71753e-08
5.71754e-08
5.71754e-08
5.71754e-08
5.71754e-08
5.71755e-08
5.71754e-08
5.71755e-08
5.71754e-08
5.71754e-08
5.71753e-08
5.71754e-08
5.71753e-08
5.71755e-08
5.71753e-08
5.71755e-08
5.71754e-08
5.71757e-08
5.71756e-08
5.71759e-08
5.71758e-08
5.71762e-08
5.71761e-08
5.71763e-08
5.71762e-08
5.71764e-08
5.71763e-08
5.71764e-08
5.71763e-08
5.71764e-08
5.71763e-08
5.71763e-08
5.71762e-08
5.71763e-08
5.71762e-08
5.71762e-08
5.71762e-08
5.71762e-08
5.71764e-08
5.71765e-08
5.71834e-08
5.7268e-08
6.01357e-08
6.02235e-08
6.03073e-08
6.03869e-08
6.04625e-08
6.05342e-08
6.06024e-08
6.06671e-08
6.07285e-08
6.07868e-08
6.08421e-08
6.08946e-08
6.09445e-08
6.09917e-08
6.10366e-08
6.10791e-08
6.11195e-08
6.11578e-08
6.11941e-08
6.12285e-08
6.12612e-08
6.12921e-08
6.13215e-08
6.13492e-08
6.13756e-08
6.14005e-08
6.14242e-08
6.14465e-08
6.14677e-08
6.14878e-08
6.15068e-08
6.15247e-08
6.15418e-08
6.15578e-08
6.15731e-08
6.15874e-08
6.16011e-08
6.16139e-08
6.16261e-08
6.16375e-08
6.16484e-08
6.16586e-08
6.16683e-08
6.16774e-08
6.16861e-08
6.16942e-08
6.17018e-08
6.17091e-08
6.17159e-08
6.17223e-08
6.17284e-08
6.17341e-08
6.17395e-08
6.17445e-08
6.17493e-08
6.17537e-08
6.1758e-08
6.17619e-08
6.17657e-08
6.17692e-08
6.17724e-08
6.17755e-08
6.17784e-08
6.17812e-08
6.17837e-08
6.17861e-08
6.17884e-08
6.17905e-08
6.17925e-08
6.17943e-08
6.17961e-08
6.17977e-08
6.17992e-08
6.18006e-08
6.1802e-08
6.18032e-08
6.18044e-08
6.18055e-08
6.18065e-08
6.18074e-08
6.18083e-08
6.18092e-08
6.18099e-08
6.18107e-08
6.18113e-08
6.1812e-08
6.18125e-08
6.18131e-08
6.18136e-08
6.1814e-08
6.18145e-08
6.18149e-08
6.18153e-08
6.18156e-08
6.18159e-08
6.18162e-08
6.18165e-08
6.18168e-08
6.1817e-08
6.18172e-08
6.18174e-08
6.18176e-08
6.18178e-08
6.1818e-08
6.18181e-08
6.18183e-08
6.18184e-08
6.18185e-08
6.18186e-08
6.18187e-08
6.18188e-08
6.18189e-08
6.1819e-08
6.1819e-08
6.18191e-08
6.18191e-08
6.18192e-08
6.18192e-08
6.18193e-08
6.18193e-08
6.18193e-08
6.18194e-08
6.18194e-08
6.18194e-08
6.18194e-08
6.18195e-08
6.18194e-08
6.18195e-08
6.18194e-08
6.18195e-08
6.18194e-08
6.18195e-08
6.18194e-08
6.18195e-08
6.18193e-08
6.18195e-08
6.18193e-08
6.18195e-08
6.18194e-08
6.18197e-08
6.18195e-08
6.18198e-08
6.18197e-08
6.182e-08
6.18199e-08
6.18201e-08
6.182e-08
6.18202e-08
6.18201e-08
6.18202e-08
6.18201e-08
6.18201e-08
6.18201e-08
6.18201e-08
6.182e-08
6.18201e-08
6.182e-08
6.182e-08
6.182e-08
6.182e-08
6.18201e-08
6.18202e-08
6.18252e-08
6.18744e-08
6.36587e-08
6.37199e-08
6.37783e-08
6.38337e-08
6.38864e-08
6.39363e-08
6.39837e-08
6.40285e-08
6.40712e-08
6.41116e-08
6.415e-08
6.41863e-08
6.42209e-08
6.42535e-08
6.42846e-08
6.4314e-08
6.43419e-08
6.43684e-08
6.43935e-08
6.44172e-08
6.44398e-08
6.44611e-08
6.44814e-08
6.45005e-08
6.45187e-08
6.45359e-08
6.45522e-08
6.45676e-08
6.45822e-08
6.4596e-08
6.46091e-08
6.46215e-08
6.46332e-08
6.46443e-08
6.46548e-08
6.46646e-08
6.4674e-08
6.46829e-08
6.46912e-08
6.46991e-08
6.47066e-08
6.47136e-08
6.47203e-08
6.47266e-08
6.47325e-08
6.47381e-08
6.47434e-08
6.47483e-08
6.4753e-08
6.47575e-08
6.47616e-08
6.47655e-08
6.47692e-08
6.47727e-08
6.4776e-08
6.47791e-08
6.4782e-08
6.47847e-08
6.47873e-08
6.47897e-08
6.47919e-08
6.4794e-08
6.4796e-08
6.47979e-08
6.47997e-08
6.48013e-08
6.48029e-08
6.48043e-08
6.48057e-08
6.4807e-08
6.48082e-08
6.48093e-08
6.48103e-08
6.48113e-08
6.48122e-08
6.48131e-08
6.48139e-08
6.48146e-08
6.48153e-08
6.4816e-08
6.48166e-08
6.48171e-08
6.48177e-08
6.48182e-08
6.48186e-08
6.48191e-08
6.48195e-08
6.48198e-08
6.48202e-08
6.48205e-08
6.48208e-08
6.48211e-08
6.48213e-08
6.48216e-08
6.48218e-08
6.4822e-08
6.48222e-08
6.48224e-08
6.48225e-08
6.48227e-08
6.48228e-08
6.48229e-08
6.48231e-08
6.48232e-08
6.48233e-08
6.48234e-08
6.48235e-08
6.48235e-08
6.48236e-08
6.48237e-08
6.48237e-08
6.48238e-08
6.48239e-08
6.48239e-08
6.48239e-08
6.4824e-08
6.4824e-08
6.4824e-08
6.48241e-08
6.48241e-08
6.48241e-08
6.48241e-08
6.48241e-08
6.48242e-08
6.48242e-08
6.48242e-08
6.48242e-08
6.48242e-08
6.48242e-08
6.48242e-08
6.48241e-08
6.48242e-08
6.48241e-08
6.48242e-08
6.48241e-08
6.48242e-08
6.48241e-08
6.48243e-08
6.48241e-08
6.48243e-08
6.48242e-08
6.48244e-08
6.48243e-08
6.48246e-08
6.48245e-08
6.48247e-08
6.48246e-08
6.48247e-08
6.48246e-08
6.48247e-08
6.48246e-08
6.48247e-08
6.48246e-08
6.48246e-08
6.48246e-08
6.48246e-08
6.48246e-08
6.48246e-08
6.48246e-08
6.48246e-08
6.48247e-08
6.48247e-08
6.48281e-08
6.48293e-08
6.58839e-08
6.59227e-08
6.59599e-08
6.59952e-08
6.60288e-08
6.60606e-08
6.60908e-08
6.61194e-08
6.61466e-08
6.61724e-08
6.61969e-08
6.622e-08
6.62421e-08
6.62629e-08
6.62827e-08
6.63015e-08
6.63193e-08
6.63362e-08
6.63522e-08
6.63674e-08
6.63818e-08
6.63954e-08
6.64084e-08
6.64206e-08
6.64322e-08
6.64432e-08
6.64536e-08
6.64635e-08
6.64728e-08
6.64816e-08
6.649e-08
6.64979e-08
6.65054e-08
6.65125e-08
6.65192e-08
6.65256e-08
6.65316e-08
6.65372e-08
6.65426e-08
6.65477e-08
6.65524e-08
6.6557e-08
6.65612e-08
6.65652e-08
6.6569e-08
6.65726e-08
6.6576e-08
6.65792e-08
6.65822e-08
6.6585e-08
6.65877e-08
6.65902e-08
6.65926e-08
6.65948e-08
6.65969e-08
6.65989e-08
6.66008e-08
6.66025e-08
6.66041e-08
6.66057e-08
6.66071e-08
6.66085e-08
6.66098e-08
6.6611e-08
6.66121e-08
6.66132e-08
6.66142e-08
6.66151e-08
6.6616e-08
6.66168e-08
6.66176e-08
6.66183e-08
6.66189e-08
6.66196e-08
6.66202e-08
6.66207e-08
6.66212e-08
6.66217e-08
6.66221e-08
6.66226e-08
6.6623e-08
6.66233e-08
6.66237e-08
6.6624e-08
6.66243e-08
6.66245e-08
6.66248e-08
6.6625e-08
6.66253e-08
6.66255e-08
6.66257e-08
6.66258e-08
6.6626e-08
6.66262e-08
6.66263e-08
6.66264e-08
6.66265e-08
6.66267e-08
6.66268e-08
6.66269e-08
6.6627e-08
6.6627e-08
6.66271e-08
6.66272e-08
6.66272e-08
6.66273e-08
6.66274e-08
6.66274e-08
6.66275e-08
6.66275e-08
6.66275e-08
6.66276e-08
6.66276e-08
6.66276e-08
6.66277e-08
6.66277e-08
6.66277e-08
6.66277e-08
6.66278e-08
6.66278e-08
6.66278e-08
6.66278e-08
6.66278e-08
6.66278e-08
6.66278e-08
6.66278e-08
6.66278e-08
6.66278e-08
6.66278e-08
6.66278e-08
6.66278e-08
6.66278e-08
6.66278e-08
6.66278e-08
6.66278e-08
6.66279e-08
6.66278e-08
6.66279e-08
6.66278e-08
6.66279e-08
6.66278e-08
6.6628e-08
6.66279e-08
6.66281e-08
6.6628e-08
6.66281e-08
6.66281e-08
6.66282e-08
6.66281e-08
6.66281e-08
6.66281e-08
6.66281e-08
6.66281e-08
6.66281e-08
6.66281e-08
6.66281e-08
6.66281e-08
6.66281e-08
6.66281e-08
6.66281e-08
6.66281e-08
6.66281e-08
6.66304e-08
6.65657e-08
6.71912e-08
6.72135e-08
6.7235e-08
6.72555e-08
6.72751e-08
6.72936e-08
6.73113e-08
6.7328e-08
6.7344e-08
6.73591e-08
6.73735e-08
6.73872e-08
6.74002e-08
6.74125e-08
6.74243e-08
6.74354e-08
6.7446e-08
6.7456e-08
6.74656e-08
6.74746e-08
6.74832e-08
6.74913e-08
6.74991e-08
6.75064e-08
6.75134e-08
6.752e-08
6.75262e-08
6.75321e-08
6.75378e-08
6.75431e-08
6.75482e-08
6.75529e-08
6.75575e-08
6.75617e-08
6.75658e-08
6.75696e-08
6.75733e-08
6.75767e-08
6.75799e-08
6.7583e-08
6.75859e-08
6.75886e-08
6.75912e-08
6.75937e-08
6.7596e-08
6.75982e-08
6.76002e-08
6.76022e-08
6.7604e-08
6.76057e-08
6.76073e-08
6.76089e-08
6.76103e-08
6.76117e-08
6.7613e-08
6.76142e-08
6.76153e-08
6.76164e-08
6.76174e-08
6.76183e-08
6.76192e-08
6.762e-08
6.76208e-08
6.76215e-08
6.76222e-08
6.76229e-08
6.76235e-08
6.76241e-08
6.76246e-08
6.76251e-08
6.76256e-08
6.7626e-08
6.76264e-08
6.76268e-08
6.76271e-08
6.76275e-08
6.76278e-08
6.76281e-08
6.76284e-08
6.76286e-08
6.76289e-08
6.76291e-08
6.76293e-08
6.76295e-08
6.76297e-08
6.76298e-08
6.763e-08
6.76301e-08
6.76303e-08
6.76304e-08
6.76305e-08
6.76306e-08
6.76307e-08
6.76308e-08
6.76309e-08
6.7631e-08
6.76311e-08
6.76311e-08
6.76312e-08
6.76312e-08
6.76313e-08
6.76314e-08
6.76314e-08
6.76314e-08
6.76315e-08
6.76315e-08
6.76316e-08
6.76316e-08
6.76316e-08
6.76316e-08
6.76317e-08
6.76317e-08
6.76317e-08
6.76317e-08
6.76317e-08
6.76318e-08
6.76318e-08
6.76318e-08
6.76318e-08
6.76318e-08
6.76318e-08
6.76318e-08
6.76318e-08
6.76318e-08
6.76318e-08
6.76318e-08
6.76318e-08
6.76318e-08
6.76318e-08
6.76318e-08
6.76318e-08
6.76318e-08
6.76318e-08
6.76318e-08
6.76318e-08
6.76319e-08
6.76318e-08
6.76319e-08
6.76318e-08
6.76319e-08
6.76318e-08
6.7632e-08
6.76319e-08
6.7632e-08
6.76319e-08
6.7632e-08
6.7632e-08
6.7632e-08
6.7632e-08
6.7632e-08
6.7632e-08
6.7632e-08
6.7632e-08
6.7632e-08
6.7632e-08
6.7632e-08
6.7632e-08
6.7632e-08
6.7632e-08
6.7632e-08
6.7632e-08
6.7632e-08
6.76334e-08
6.74779e-08
6.82338e-08
6.82405e-08
6.82472e-08
6.82537e-08
6.82602e-08
6.82663e-08
6.82723e-08
6.82779e-08
6.82835e-08
6.82887e-08
6.82938e-08
6.82987e-08
6.83034e-08
6.83079e-08
6.83122e-08
6.83163e-08
6.83203e-08
6.83241e-08
6.83277e-08
6.83312e-08
6.83345e-08
6.83376e-08
6.83407e-08
6.83435e-08
6.83463e-08
6.83489e-08
6.83514e-08
6.83538e-08
6.8356e-08
6.83582e-08
6.83602e-08
6.83622e-08
6.8364e-08
6.83658e-08
6.83675e-08
6.8369e-08
6.83706e-08
6.8372e-08
6.83733e-08
6.83746e-08
6.83758e-08
6.8377e-08
6.83781e-08
6.83791e-08
6.83801e-08
6.8381e-08
6.83819e-08
6.83827e-08
6.83835e-08
6.83842e-08
6.83849e-08
6.83855e-08
6.83862e-08
6.83867e-08
6.83873e-08
6.83878e-08
6.83883e-08
6.83888e-08
6.83892e-08
6.83896e-08
6.839e-08
6.83903e-08
6.83907e-08
6.8391e-08
6.83913e-08
6.83916e-08
6.83918e-08
6.83921e-08
6.83923e-08
6.83925e-08
6.83927e-08
6.83929e-08
6.83931e-08
6.83932e-08
6.83934e-08
6.83935e-08
6.83937e-08
6.83938e-08
6.83939e-08
6.8394e-08
6.83941e-08
6.83942e-08
6.83943e-08
6.83944e-08
6.83945e-08
6.83946e-08
6.83946e-08
6.83947e-08
6.83947e-08
6.83948e-08
6.83948e-08
6.83949e-08
6.83949e-08
6.8395e-08
6.8395e-08
6.8395e-08
6.83951e-08
6.83951e-08
6.83951e-08
6.83952e-08
6.83952e-08
6.83952e-08
6.83952e-08
6.83952e-08
6.83953e-08
6.83953e-08
6.83953e-08
6.83953e-08
6.83953e-08
6.83953e-08
6.83953e-08
6.83953e-08
6.83954e-08
6.83954e-08
6.83954e-08
6.83954e-08
6.83954e-08
6.83954e-08
6.83954e-08
6.83954e-08
6.83954e-08
6.83954e-08
6.83954e-08
6.83954e-08
6.83954e-08
6.83954e-08
6.83954e-08
6.83954e-08
6.83954e-08
6.83954e-08
6.83954e-08
6.83954e-08
6.83954e-08
6.83954e-08
6.83954e-08
6.83954e-08
6.83954e-08
6.83955e-08
6.83954e-08
6.83955e-08
6.83954e-08
6.83955e-08
6.83954e-08
6.83955e-08
6.83954e-08
6.83955e-08
6.83954e-08
6.83955e-08
6.83955e-08
6.83955e-08
6.83955e-08
6.83955e-08
6.83955e-08
6.83955e-08
6.83955e-08
6.83955e-08