/*--------------------------------*- C++ -*----------------------------------*\
| =========                 |                                                 |
| \\      /  F ield         | OpenFOAM: The Open Source CFD Toolbox           |
|  \\    /   O peration     | Version:  v1912                                 |
|   \\  /    A nd           | Website:  www.openfoam.com                      |
|    \\/     M anipulation  |                                                 |
\*---------------------------------------------------------------------------*/
FoamFile
{
    version     2.0;
    format      ascii;
    class       volScalarField;
    location    "90";
    object      alpha.water;
}
// * * * * * * * * * * * * * * * * * * * * * * * * * * * * * * * * * * * * * //

dimensions      [0 0 0 0 0 0 0];


internalField   nonuniform List<scalar> 
14268
(
1
1
1
1
1
1
1
1
1
1
1
1
1
1
1
1
1
1
1
1
1
1
1
1
1
1
1
1
1
1
1
1
1
1
1
1
1
1
1
1
1
1
1
1
1
1
1
1
1
1
1
1
1
1
1
1
1
1
1
1
1
1
1
1
1
1
1
1
1
1
1
1
1
1
0.999999
0.999991
0.999906
0.999239
0.995151
0.987419
0.987045
0.988346
0.988671
0.988677
0.985173
0.948297
0.600091
0.345547
0.345537
0.345608
0.345602
0.399921
0.592904
0.63452
0.634875
0.635236
0.647338
0.647338
0.647338
0.647338
0.511149
0.22671
0.0532706
0.0445942
1
1
1
1
1
1
1
1
1
1
1
1
1
1
1
1
1
1
1
1
1
1
1
1
1
1
1
1
1
1
1
1
1
1
1
1
1
1
1
1
1
1
1
1
1
1
1
1
1
1
1
1
1
1
1
1
1
1
1
1
1
1
1
1
1
1
1
1
1
1
1
1
1
1
0.999999
0.999993
0.999956
0.999755
0.998606
0.99194
0.968052
0.962131
0.962346
0.964402
0.953567
0.865007
0.517043
0.470869
0.556834
0.485075
0.36339
0.363009
0.568282
0.634169
0.624722
0.388705
0.430971
0.643209
0.647338
0.647338
0.647338
0.423715
0.14192
0.072619
1
1
1
1
1
1
1
1
1
1
1
1
1
1
1
1
1
1
1
1
1
1
1
1
1
1
1
1
1
1
1
1
1
1
1
1
1
1
1
1
1
1
1
1
1
1
1
1
1
1
1
1
1
1
1
1
1
1
1
1
1
1
1
1
1
1
1
1
1
1
1
1
1
1
1
0.999999
0.999995
0.999973
0.999863
0.999196
0.994569
0.957704
0.888375
0.869156
0.858479
0.768572
0.514687
0.667622
0.89323
0.894468
0.716463
0.529592
0.600419
0.618371
0.340592
0.251827
0.251847
0.536145
0.647338
0.647338
0.597057
0.529538
0.239311
0.117107
1
1
1
1
1
1
1
1
1
1
1
1
1
1
1
1
1
1
1
1
1
1
1
1
1
1
1
1
1
1
1
1
1
1
1
1
1
1
1
1
1
1
1
1
1
1
1
1
1
1
1
1
1
1
1
1
1
1
1
1
1
1
1
1
1
1
1
1
1
1
1
1
1
1
1
1
0.999998
0.999996
0.999978
0.999855
0.998974
0.993645
0.93419
0.71846
0.707483
0.648502
0.629642
0.855721
0.940091
0.940098
0.917603
0.703601
0.600442
0.621156
0.536243
0.321832
0.251827
0.453637
0.592654
0.460804
0.221008
0.110119
0.185065
0.180903
1
1
1
1
1
1
1
1
1
1
1
1
1
1
1
1
1
1
1
1
1
1
1
1
1
1
1
1
1
1
1
1
1
1
1
1
1
1
1
1
1
1
1
1
1
1
1
1
1
1
1
1
1
1
1
1
1
1
1
1
1
1
1
1
1
1
1
1
1
1
1
1
0.999999
0.999994
0.99998
0.999938
0.999839
0.999802
0.999845
0.999859
0.999694
0.998525
0.989118
0.873042
0.600363
0.592228
0.79882
0.940084
0.940087
0.940094
0.940098
0.746362
0.580564
0.620848
0.621493
0.620848
0.345866
0.37138
0.338749
0.151918
0.107543
0.107552
0.313612
0.333641
1
1
1
1
1
1
1
1
1
1
1
1
1
1
1
1
1
1
1
1
1
1
1
1
1
1
1
1
1
1
1
1
1
1
1
1
1
1
1
1
1
1
1
1
1
1
1
1
1
1
1
1
1
1
1
1
1
1
1
1
1
1
1
1
1
1
1
1
1
1
1
0.999999
0.999994
0.999961
0.999811
0.999423
0.998969
0.998839
0.999094
0.999641
0.999699
0.999454
0.996753
0.950668
0.623676
0.636046
0.899399
0.882611
0.719128
0.840591
0.940095
0.79087
0.456392
0.530094
0.620848
0.599071
0.570042
0.354214
0.129505
0.0875963
0.119729
0.30607
0.341693
0.341616
1
1
1
1
1
1
1
1
1
1
1
1
1
1
1
1
1
1
1
1
1
1
1
1
1
1
1
1
1
1
1
1
1
1
1
1
1
1
1
1
1
1
1
1
1
1
1
1
1
1
1
1
1
1
1
1
1
1
1
1
1
1
1
1
1
1
1
1
1
1
1
1
0.999996
0.999967
0.999738
0.998794
0.998221
0.998221
0.998383
0.999086
0.999648
0.999649
0.998734
0.978729
0.708588
0.802702
0.902875
0.643748
0.302513
0.444706
0.834987
0.826741
0.31399
0.240787
0.366947
0.334573
0.365629
0.22259
0.0927125
0.0875919
0.238473
0.310487
0.243885
0.235331
1
1
1
1
1
1
1
1
1
1
1
1
1
1
1
1
1
1
1
1
1
1
1
1
1
1
1
1
1
1
1
1
1
1
1
1
1
1
1
1
1
1
1
1
1
1
1
1
1
1
1
1
1
1
1
1
1
1
1
1
1
1
1
1
1
1
1
1
1
1
1
1
0.999997
0.999984
0.99994
0.999845
0.99963
0.999141
0.998652
0.998714
0.998925
0.99889
0.99881
0.991715
0.839398
0.844894
0.862343
0.309081
0.279193
0.278249
0.624583
0.814996
0.61353
0.12452
0.0916034
0.0824923
0.0909577
0.124581
0.264398
0.198554
0.183347
0.212679
0.0789468
0.0756319
1
1
1
1
1
1
1
1
1
1
1
1
1
1
1
1
1
1
1
1
1
1
1
1
1
1
1
1
1
1
1
1
1
1
1
1
1
1
1
1
1
1
1
1
1
1
1
1
1
1
1
1
1
1
1
1
1
1
1
1
1
1
1
1
1
1
0.999999
0.999999
0.999999
0.999999
0.999999
0.999999
0.999999
0.999995
0.99999
0.999985
0.999967
0.999844
0.999005
0.998013
0.997071
0.99563
0.989654
0.987799
0.960779
0.845079
0.449493
0.400591
0.583128
0.546437
0.581479
0.787663
0.743889
0.284064
0.0817294
0.0817301
0.0817294
0.223049
0.529966
0.360476
0.111682
0.0756332
0.07563
0.075633
1
1
1
1
1
1
1
1
1
1
1
1
1
1
1
1
1
1
1
1
1
1
1
1
1
1
1
1
1
1
1
1
1
1
1
1
1
1
1
1
1
1
1
1
1
1
1
1
1
1
1
1
1
1
1
1
1
1
1
1
1
1
1
1
1
1
0.999999
0.999996
0.999993
0.999993
0.999995
0.999996
0.999995
0.999985
0.99995
0.999931
0.99988
0.999344
0.996615
0.993395
0.99304
0.989556
0.959988
0.963705
0.963758
0.459921
0.369343
0.562416
0.892071
0.842559
0.604469
0.753772
0.767999
0.493294
0.0985722
0.0817294
0.130242
0.55335
0.612278
0.482796
0.151615
0.0756298
0.0756309
0.0756296
1
1
1
1
1
1
1
1
1
1
1
1
1
1
1
1
1
1
1
1
1
1
1
1
1
1
1
1
1
1
1
1
1
1
1
1
1
1
1
1
1
1
1
1
1
1
1
1
1
1
1
1
1
1
1
1
1
1
1
1
1
1
1
1
1
1
1
0.999998
0.999989
0.999986
0.999986
0.99999
0.999988
0.999957
0.999771
0.9995
0.999438
0.998506
0.991917
0.982912
0.98798
0.981372
0.91288
0.891638
0.953705
0.64841
0.367759
0.691268
0.940104
0.918013
0.648214
0.636414
0.767546
0.764452
0.459058
0.168085
0.433313
0.612278
0.612361
0.550448
0.295069
0.221302
0.267521
0.176897
1
1
1
1
1
1
1
1
1
1
1
1
1
1
1
1
1
1
1
1
1
1
1
1
1
1
1
1
1
1
1
1
1
1
1
1
1
1
1
1
1
1
1
1
1
1
1
1
1
1
1
1
1
1
1
1
1
1
1
1
1
1
1
1
1
1
1
1
0.999998
0.999988
0.999977
0.99998
0.999979
0.99993
0.999525
0.998515
0.99856
0.997872
0.986255
0.980599
0.985963
0.974154
0.86854
0.844065
0.921414
0.890943
0.732713
0.892689
0.952243
0.948056
0.724214
0.58928
0.62437
0.611131
0.462915
0.130304
0.224967
0.612361
0.534747
0.454608
0.468383
0.468311
0.468383
0.382941
1
1
1
1
1
1
1
1
1
1
1
1
1
1
1
1
1
1
1
1
1
1
1
1
1
1
1
1
1
1
1
1
1
1
1
1
1
1
1
1
1
1
1
1
1
1
1
1
1
1
1
1
1
1
1
1
1
1
1
1
1
1
1
1
1
1
1
1
1
0.999998
0.999979
0.999968
0.999969
0.999902
0.999236
0.996878
0.996807
0.996869
0.996759
0.987611
0.980812
0.97708
0.97066
0.847503
0.901977
0.95223
0.952169
0.952243
0.952274
0.952306
0.879303
0.611719
0.54348
0.435921
0.216593
0.0525663
0.0523467
0.392092
0.259822
0.324699
0.468311
0.468383
0.375431
0.382067
1
1
1
1
1
1
1
1
1
1
1
1
1
1
1
1
1
1
1
1
1
1
1
1
1
1
1
1
1
1
1
1
1
1
1
1
1
1
1
1
1
1
1
1
1
1
1
1
1
1
1
1
1
1
1
1
1
1
1
1
1
1
1
1
1
1
1
1
1
0.999999
0.999991
0.999968
0.99996
0.999892
0.998813
0.995451
0.995452
0.995483
0.997446
0.995548
0.978522
0.977756
0.977693
0.867931
0.825447
0.944844
0.95223
0.936126
0.948011
0.952338
0.944721
0.744101
0.522375
0.357461
0.0628598
0.0486583
0.0486725
0.0982623
0.0806157
0.199414
0.466663
0.312823
0.0712279
0.19235
1
1
1
1
1
1
1
1
1
1
1
1
1
1
1
1
1
1
1
1
1
1
1
1
1
1
1
1
1
1
1
1
1
1
1
1
1
1
1
1
1
1
1
1
1
1
1
1
1
1
1
1
1
1
1
1
1
1
1
1
1
1
1
1
1
0.999999
0.999999
0.999999
1
1
0.999994
0.99995
0.999915
0.999799
0.999325
0.997744
0.995618
0.99694
0.998704
0.998621
0.988084
0.976637
0.975923
0.89887
0.682285
0.685793
0.730942
0.819879
0.947034
0.952378
0.952417
0.859738
0.662305
0.546705
0.192763
0.0486702
0.0486583
0.0486725
0.049263
0.138142
0.255781
0.172798
0.0422854
0.06427
1
1
1
1
1
1
1
1
1
1
1
1
1
1
1
1
1
1
1
1
1
1
1
1
1
1
1
1
1
1
1
1
1
1
1
1
1
1
1
1
1
1
1
1
1
1
1
1
1
1
1
1
1
1
1
1
1
1
1
1
1
1
1
1
1
1
0.999999
0.999999
1
1
0.999998
0.999934
0.999764
0.999761
0.999803
0.99988
0.999895
0.99988
0.99987
0.999793
0.999241
0.992681
0.958117
0.940115
0.766654
0.600334
0.601517
0.852901
0.952378
0.952426
0.95246
0.943192
0.745972
0.651548
0.604476
0.273014
0.225207
0.184886
0.0535315
0.0550122
0.155558
0.134929
0.0329209
0.0186185
1
1
1
1
1
1
1
1
1
1
1
1
1
1
1
1
1
1
1
1
1
1
1
1
1
1
1
1
1
1
1
1
1
1
1
1
1
1
1
1
1
1
1
1
1
1
1
1
1
1
1
1
1
1
1
1
1
1
0.999999
0.999999
0.999998
0.999999
0.999999
1
1
1
1
1
1
1
1
0.999999
0.999987
0.999976
0.999982
0.999983
0.999942
0.999877
0.999836
0.999752
0.999524
0.999035
0.970493
0.872908
0.872277
0.739311
0.810257
0.946013
0.9519
0.952469
0.95251
0.952553
0.741503
0.698649
0.697744
0.688321
0.622438
0.259641
0.0509805
0.0499627
0.0955878
0.0814738
0.0157849
0.00696809
1
1
1
1
1
1
1
1
1
1
1
1
1
1
1
1
1
1
1
1
1
1
1
1
1
1
1
1
1
1
1
1
1
1
1
1
1
1
1
1
1
1
1
1
1
1
1
1
1
1
1
1
1
1
1
1
0.999999
0.999998
0.999996
0.999996
0.999996
0.999998
0.999999
1
1
1
1
1
1
1
1
1
1
1
1
0.999997
0.999933
0.999616
0.999406
0.998975
0.996417
0.99412
0.98677
0.777303
0.778924
0.913043
0.913558
0.893065
0.736861
0.824068
0.949216
0.947146
0.666361
0.59699
0.694655
0.694047
0.361475
0.088721
0.0542196
0.0607594
0.159205
0.0806834
0.0083102
0.00679127
1
1
1
1
1
1
1
1
1
1
1
1
1
1
1
1
1
1
1
1
1
1
1
1
1
1
1
1
1
1
1
1
1
1
1
1
1
1
1
1
1
1
1
1
1
1
1
1
1
1
1
1
1
1
0.999999
0.999998
0.999996
0.999993
0.999993
0.999994
0.999997
0.999999
1
1
1
1
1
1
1
1
1
1
1
1
1
0.999998
0.999982
0.999885
0.999758
0.999448
0.995099
0.970855
0.968167
0.879169
0.542168
0.703439
0.907116
0.663702
0.297793
0.389339
0.805822
0.938499
0.573127
0.324733
0.467063
0.439147
0.105354
0.0714269
0.0706891
0.238827
0.270943
0.0637346
0.00679127
0.00679127
1
1
1
1
1
1
1
1
1
1
1
1
1
1
1
1
1
1
1
1
1
1
1
1
1
1
1
1
1
1
1
1
1
1
1
1
1
1
1
1
1
1
1
1
1
1
1
1
1
1
1
1
1
1
0.999999
0.999994
0.99999
0.99999
0.999993
0.999997
1
1
1
1
1
1
1
1
1
1
1
1
1
1
1
1
0.999998
0.999988
0.999965
0.999887
0.998626
0.954313
0.944392
0.899263
0.473751
0.426512
0.720863
0.420187
0.241965
0.241952
0.55027
0.899445
0.859535
0.397607
0.139181
0.076279
0.0698659
0.0871391
0.224549
0.405425
0.29093
0.0370461
0.00679127
0.00679127
1
1
1
1
1
1
1
1
1
1
1
1
1
1
1
1
1
1
1
1
1
1
1
1
1
1
1
1
1
1
1
1
1
1
1
1
1
1
1
1
1
1
1
1
1
1
1
1
1
1
1
1
1
1
0.999997
0.999985
0.999984
0.999991
0.999998
1
1
1
1
1
0.999999
0.999998
0.999999
1
1
1
1
1
1
1
1
1
0.999999
0.999996
0.999983
0.999923
0.998776
0.987245
0.944821
0.880195
0.670098
0.425621
0.475602
0.277354
0.241961
0.241964
0.432582
0.876514
0.909088
0.614506
0.0929346
0.0666064
0.0684148
0.215393
0.382356
0.405451
0.251779
0.0279732
0.00679127
0.00679127
1
1
1
1
1
1
1
1
1
1
1
1
1
1
1
1
1
1
1
1
1
1
1
1
1
1
1
1
1
1
1
1
1
1
1
1
1
1
1
1
1
1
1
1
1
1
1
1
1
1
1
1
1
0.999997
0.999983
0.999969
0.999982
0.999995
1
1
1
1
1
0.999998
0.999991
0.999988
0.99999
0.999996
0.999999
1
1
1
1
1
1
1
1
0.999998
0.999984
0.99985
0.998355
0.991019
0.978704
0.969931
0.948882
0.797738
0.27574
0.241973
0.241975
0.241961
0.289182
0.782295
0.908956
0.907304
0.570823
0.119596
0.0697704
0.0696162
0.119335
0.226937
0.196974
0.100347
0.146177
0.123829
1
1
1
1
1
1
1
1
1
1
1
1
1
1
1
1
1
1
1
1
1
1
1
1
1
1
1
1
1
1
1
1
1
1
1
1
1
1
1
1
1
1
1
1
1
1
1
1
1
1
1
1
0.999997
0.999973
0.999963
0.999967
0.999989
1
1
1
1
1
1
0.999997
0.99998
0.999978
0.999978
0.999989
0.999999
1
1
1
1
1
1
1
1
0.999998
0.999974
0.999705
0.997591
0.995817
0.996055
0.996111
0.992593
0.949339
0.602285
0.333588
0.344895
0.274554
0.25078
0.349286
0.822384
0.933978
0.934258
0.909874
0.825399
0.453853
0.124075
0.113901
0.115706
0.249077
0.612629
0.583668
1
1
1
1
1
1
1
1
1
1
1
1
1
1
1
1
1
1
1
1
1
1
1
1
1
1
1
1
1
1
1
1
1
1
1
1
1
1
1
1
1
1
1
1
1
1
1
1
1
1
1
1
0.999997
0.999973
0.999963
0.999973
0.999992
1
1
1
1
1
1
0.999999
0.999994
0.999978
0.999981
0.999994
1
1
1
1
1
1
1
1
1
0.99999
0.999959
0.999859
0.999715
0.99975
0.999818
0.999818
0.999104
0.986577
0.91769
0.887637
0.887181
0.886731
0.594991
0.191214
0.466804
0.877199
0.937101
0.937103
0.937101
0.937103
0.900788
0.773719
0.650867
0.682262
0.707526
0.70741
1
1
1
1
1
1
1
1
1
1
1
1
1
1
1
1
1
1
1
1
1
1
1
1
1
1
1
1
1
1
1
1
1
1
1
1
1
1
1
1
1
1
1
1
1
1
1
1
1
1
1
1
0.999999
0.999992
0.999983
0.999988
0.999996
1
1
1
1
1
1
0.99999
0.999986
0.999987
0.999989
0.999992
0.999995
0.999997
0.999998
0.999999
1
1
0.998791
0.994214
0.986451
0.976826
0.969809
0.970082
0.975224
0.97722
0.974793
0.971702
0.97369
0.974499
0.959339
0.864808
0.597
0.413018
0.250337
0.0761031
0.0883298
0.211687
0.450522
0.717291
0.759853
0.748136
0.763282
0.765861
0.613238
0.245072
0.265233
0.539508
1
1
1
1
1
1
1
1
1
1
1
1
1
1
1
1
1
1
1
1
1
1
1
1
1
1
1
1
1
1
1
1
1
1
1
1
1
1
1
1
1
1
1
1
1
1
1
1
1
1
0.999982
0.999982
0.999983
0.999972
0.999238
0.997686
0.995577
0.993332
0.990851
0.987527
0.982648
0.975282
0.965056
0.951424
0.938003
0.928666
0.922328
0.916367
0.908645
0.897619
0.882697
0.862582
0.8364
0.802265
0.752949
0.692765
0.63101
0.572867
0.532622
0.531026
0.555182
0.56413
0.549331
0.533628
0.547472
0.555582
0.465163
0.192672
0.0309331
0.000678411
0.00437863
0.0038801
0.00217236
0.00750646
0.0357163
0.0667661
0.088583
0.105
0.106878
0.0987198
0.0666764
0.0251432
0.00666405
0.0321987
1
1
1
1
1
1
1
1
1
1
1
1
1
1
1
1
1
1
1
0.999979
0.999728
0.999102
0.997993
0.996364
0.994302
0.991745
0.988859
0.985514
0.981853
0.978265
0.974344
0.970894
0.968097
0.965217
0.962406
0.959523
0.956143
0.952328
0.948052
0.942809
0.936041
0.927456
0.917304
0.905247
0.892651
0.879497
0.868897
0.861429
0.8555
0.849173
0.839959
0.825759
0.805828
0.779969
0.75172
0.723722
0.698062
0.676814
0.658195
0.637379
0.61103
0.577885
0.53782
0.489851
0.445413
0.416359
0.399148
0.385405
0.368327
0.343083
0.308883
0.26677
0.218482
0.169631
0.126923
0.0925808
0.06745
0.0500834
0.0386511
0.034178
0.0350739
0.0354233
0.0339037
0.0311144
0.0282254
0.02314
0.0144699
0.00632458
0.00169349
7.10474e-06
6.76017e-08
1.62195e-08
6.20591e-09
4.6633e-09
1.91498e-09
2.01077e-09
8.17776e-09
8.15766e-09
7.55133e-09
7.36193e-09
7.35327e-09
7.36193e-09
1.60834e-05
0.00160887
0.860316
0.853924
0.847493
0.841445
0.835793
0.830674
0.82602
0.822543
0.819176
0.817616
0.816541
0.816512
0.817117
0.817359
0.817012
0.814124
0.810088
0.803328
0.794045
0.781672
0.76633
0.748285
0.72795
0.706194
0.684514
0.662681
0.641426
0.620365
0.600295
0.581918
0.56462
0.549883
0.537354
0.524957
0.512851
0.500833
0.488215
0.475135
0.461144
0.444595
0.424176
0.399642
0.37201
0.34199
0.313348
0.28524
0.26504
0.252629
0.241839
0.229371
0.212516
0.190155
0.164261
0.139112
0.117633
0.100749
0.0879869
0.0786453
0.0713836
0.0646033
0.0574663
0.049995
0.0428592
0.036385
0.0312913
0.0278018
0.0251616
0.0226171
0.0199833
0.0173765
0.0148176
0.0123258
0.00997032
0.00788829
0.00618057
0.00484311
0.00380166
0.00297752
0.00228317
0.00166018
0.00113895
0.000760567
0.000520932
0.000379258
0.000295163
0.000225304
0.000153084
8.15133e-05
3.99016e-05
2.07125e-05
3.00344e-06
1.41533e-09
1.41527e-09
1.41533e-09
1.41527e-09
1.41533e-09
1.41527e-09
3.21247e-09
9.52763e-09
8.76076e-09
7.36193e-09
1.64901e-08
2.16208e-06
0.000168798
0.259226
0.245754
0.232075
0.219359
0.208045
0.198343
0.190396
0.184705
0.1809
0.179298
0.179636
0.181175
0.183413
0.185197
0.185499
0.182961
0.177147
0.168197
0.157189
0.144733
0.131253
0.117429
0.104241
0.092337
0.0821
0.0733809
0.0658987
0.0594886
0.0540585
0.0493839
0.0455759
0.0424235
0.0395359
0.0367777
0.034149
0.0316709
0.0294024
0.0273321
0.0253421
0.0233272
0.0211867
0.0189776
0.0167869
0.0147505
0.013017
0.0115473
0.0104937
0.00978344
0.00915604
0.00842651
0.00754899
0.00659623
0.00567233
0.00485522
0.00417052
0.00360916
0.00315082
0.00277563
0.00246276
0.0021936
0.00195775
0.00174826
0.00157098
0.00142077
0.00130729
0.00123997
0.00119911
0.00115036
0.00106942
0.000961554
0.000833815
0.00069951
0.0005699
0.00045406
0.000358254
0.000280837
0.000216463
0.000162084
0.000115691
7.70844e-05
4.86798e-05
3.04682e-05
1.95538e-05
1.20853e-05
6.60248e-06
2.94283e-06
1.00456e-06
2.06621e-07
1.17952e-07
1.33221e-07
1.16373e-07
4.05481e-08
1.86215e-09
1.41527e-09
1.52348e-09
3.61514e-09
7.61639e-09
2.65422e-08
5.63679e-08
5.69384e-08
3.02774e-08
2.0981e-08
3.44518e-08
2.16793e-06
0.0100207
0.00929862
0.00864466
0.00808058
0.00760515
0.00720689
0.00687352
0.00659969
0.00637983
0.00619585
0.00604946
0.00593201
0.00581297
0.00567695
0.00551575
0.00532997
0.00512261
0.00489102
0.00463356
0.0043525
0.00406671
0.00378983
0.00353205
0.00330134
0.00309635
0.0029146
0.00274644
0.00258724
0.00243727
0.0022911
0.00215384
0.00202342
0.00188879
0.00174515
0.00159314
0.00143621
0.00128124
0.0011329
0.000991696
0.000860793
0.000739748
0.000631945
0.000539148
0.00046408
0.00040764
0.000366609
0.000343825
0.000335388
0.000332083
0.000324418
0.000314189
0.000299942
0.000279132
0.000254228
0.00022709
0.000198509
0.000170135
0.000143535
0.000119838
9.91986e-05
8.13242e-05
6.60944e-05
5.40985e-05
4.52967e-05
3.94657e-05
3.70571e-05
3.72062e-05
4.00542e-05
4.07098e-05
3.95877e-05
3.73966e-05
3.29241e-05
2.67815e-05
2.01295e-05
1.41393e-05
9.41696e-06
5.99082e-06
3.64885e-06
2.11201e-06
1.17169e-06
6.67655e-07
4.19457e-07
2.73746e-07
1.56558e-07
6.51038e-08
1.17734e-08
4.85682e-10
2.64269e-10
5.9105e-10
1.42854e-09
2.23453e-09
2.2715e-09
1.55916e-09
1.52301e-09
5.2638e-09
3.50399e-08
1.33238e-07
1.53551e-07
9.19207e-08
3.33773e-08
2.45407e-08
2.44145e-08
2.44638e-08
8.03466e-08
0.000465594
0.000423123
0.000386926
0.00035764
0.000334684
0.000317115
0.000303411
0.000294149
0.000288594
0.00028767
0.000291254
0.000297948
0.000305209
0.000314714
0.000323789
0.00032155
0.000315815
0.000306863
0.000290068
0.000262298
0.000227135
0.000191442
0.000160461
0.000135708
0.000116204
0.000101044
8.92572e-05
8.01918e-05
7.36362e-05
6.90925e-05
6.61448e-05
6.40647e-05
6.27335e-05
6.12035e-05
5.95028e-05
5.73346e-05
5.38871e-05
4.86658e-05
4.19648e-05
3.46346e-05
2.75211e-05
2.1323e-05
1.65126e-05
1.31926e-05
1.12066e-05
1.01893e-05
1.00532e-05
1.03971e-05
1.08997e-05
1.1634e-05
1.22296e-05
1.21383e-05
1.18842e-05
1.14594e-05
1.04125e-05
8.5303e-06
6.53915e-06
6.04034e-06
5.67776e-06
4.56857e-06
3.08747e-06
2.20715e-06
2.23943e-06
2.53039e-06
2.88286e-06
3.08628e-06
3.06543e-06
3.00693e-06
2.82407e-06
2.35989e-06
1.75817e-06
1.2032e-06
7.74414e-07
4.75423e-07
2.88819e-07
1.84757e-07
1.2889e-07
9.06558e-08
5.64836e-08
2.82691e-08
1.06237e-08
2.57992e-09
1.7801e-10
3.04057e-11
2.77795e-11
2.73663e-11
2.35522e-11
1.37484e-11
5.73839e-12
7.34732e-12
3.73473e-11
1.88013e-10
7.68926e-10
3.49164e-09
1.7448e-08
8.45921e-08
3.73212e-07
9.20675e-07
1.05099e-06
8.46352e-07
4.49819e-07
3.93771e-07
3.42104e-07
3.58506e-07
2.32995e-05
2.04418e-05
1.7946e-05
1.59136e-05
1.44145e-05
1.34332e-05
1.30502e-05
1.32568e-05
1.39392e-05
1.50098e-05
1.62823e-05
1.72998e-05
1.73466e-05
1.70593e-05
1.63416e-05
1.47133e-05
1.25133e-05
1.01438e-05
7.87165e-06
5.9317e-06
4.4302e-06
3.37814e-06
2.70252e-06
2.2845e-06
2.03006e-06
1.9018e-06
1.86604e-06
1.88808e-06
1.96417e-06
2.07407e-06
2.21102e-06
2.35526e-06
2.39002e-06
2.3541e-06
2.24818e-06
1.92426e-06
1.44122e-06
9.9733e-07
6.67589e-07
4.66935e-07
3.78284e-07
3.55606e-07
3.64381e-07
4.14112e-07
6.99693e-07
1.13433e-06
1.12555e-06
1.01457e-06
9.46664e-07
9.1538e-07
8.79759e-07
8.16589e-07
6.92063e-07
5.23402e-07
5.29093e-07
7.44917e-07
1.12939e-06
3.95299e-06
3.8914e-06
1.73828e-06
3.9331e-07
3.9545e-07
7.11282e-07
9.96441e-07
8.83056e-07
5.88263e-07
3.30906e-07
1.6878e-07
8.33318e-08
4.62135e-08
3.74074e-08
3.48728e-08
3.18288e-08
2.63645e-08
1.93402e-08
1.24044e-08
6.74206e-09
2.61135e-09
3.34585e-10
2.65237e-11
1.50781e-11
1.30476e-11
8.46746e-12
6.46734e-12
8.97734e-12
1.49895e-11
1.5098e-11
9.00456e-12
1.68305e-12
2.63698e-12
3.36795e-11
2.52988e-10
1.32359e-09
6.41445e-09
2.9758e-08
1.21843e-07
4.17695e-07
1.14245e-06
2.62578e-06
4.39218e-06
4.78599e-06
7.20421e-06
3.85616e-05
6.16868e-05
5.18501e-07
5.15282e-07
5.31804e-07
5.60647e-07
5.90335e-07
6.05659e-07
6.10351e-07
6.08154e-07
5.85797e-07
5.27501e-07
4.48715e-07
3.76242e-07
3.15058e-07
2.63489e-07
2.20004e-07
1.84199e-07
1.54184e-07
1.29119e-07
1.11527e-07
1.00871e-07
9.37155e-08
8.88596e-08
8.7978e-08
9.2454e-08
9.93048e-08
1.04426e-07
1.05593e-07
1.05023e-07
1.02638e-07
9.36358e-08
7.71582e-08
6.03014e-08
4.63136e-08
3.57253e-08
2.81975e-08
2.26215e-08
1.8257e-08
1.4986e-08
1.53128e-08
1.75489e-08
2.60235e-08
2.60937e-08
5.15797e-08
1.32522e-07
4.98042e-07
9.45238e-07
5.12698e-07
1.69848e-07
1.55345e-07
1.65749e-07
1.944e-07
2.44191e-07
2.44481e-07
2.44771e-07
4.12166e-07
2.87184e-06
3.95325e-06
3.95217e-06
1.84891e-06
2.55413e-07
5.84278e-08
1.22126e-07
1.66955e-07
1.3525e-07
5.70497e-08
7.252e-09
3.88377e-09
4.19537e-09
5.02069e-09
6.00624e-09
6.04629e-09
5.56722e-09
4.03237e-09
2.17662e-09
6.79906e-10
1.94914e-11
9.71794e-13
8.37456e-13
7.1448e-13
4.89923e-13
1.57888e-13
7.72975e-14
2.47857e-13
1.97599e-12
6.12659e-12
6.39169e-12
4.62327e-12
1.61911e-12
1.29702e-13
3.62509e-13
5.23633e-12
5.12696e-11
3.24858e-10
1.62697e-09
7.00061e-09
2.56838e-08
8.75633e-08
3.02885e-07
8.70625e-07
1.8963e-06
4.1861e-06
1.12421e-05
2.34704e-05
2.6141e-05
2.60957e-08
4.89974e-08
6.42583e-08
5.79538e-08
4.47407e-08
3.42629e-08
2.74845e-08
2.22582e-08
1.72278e-08
1.27395e-08
9.21997e-09
6.86076e-09
5.47789e-09
4.74836e-09
4.34261e-09
4.07513e-09
3.83554e-09
3.57164e-09
3.2718e-09
2.91697e-09
2.52205e-09
2.14608e-09
1.80279e-09
1.4879e-09
1.21881e-09
1.0251e-09
9.63028e-10
1.03705e-09
1.22329e-09
1.44915e-09
1.68977e-09
1.85303e-09
1.83038e-09
1.78855e-09
1.77442e-09
1.72928e-09
1.63446e-09
2.13409e-09
6.92046e-09
1.36448e-08
1.90475e-08
6.70073e-08
4.89113e-07
9.77341e-07
9.77343e-07
5.99383e-07
1.39625e-07
3.16471e-08
3.69231e-08
3.54599e-08
6.83848e-08
2.83214e-07
3.29132e-07
4.42457e-07
1.66985e-06
3.60062e-06
3.69451e-06
1.84102e-06
2.78421e-07
3.65923e-10
4.14627e-10
9.28474e-10
1.31169e-09
1.30066e-09
1.19855e-09
8.12309e-10
5.20724e-10
5.71739e-10
7.32742e-10
7.42803e-10
6.18031e-10
3.15934e-10
5.75058e-11
1.28132e-13
6.06267e-15
5.68771e-15
5.55548e-15
5.935e-15
6.59747e-15
7.64316e-15
9.68854e-15
1.58909e-14
4.31926e-14
1.50314e-13
2.40099e-13
2.28079e-13
1.61204e-13
7.48102e-14
5.57254e-14
5.59186e-14
5.47627e-14
5.2831e-14
5.27747e-14
5.55777e-14
6.89435e-14
6.9181e-14
1.12892e-13
1.57912e-13
1.56949e-13
1.80076e-10
5.92557e-09
9.35162e-09
4.61685e-09
2.12481e-09
1.69496e-08
5.11452e-08
4.70102e-08
2.14594e-08
6.45694e-09
2.65051e-09
1.83396e-09
1.33232e-09
7.97784e-10
3.74097e-10
2.49045e-10
2.41742e-10
2.3646e-10
2.21027e-10
1.85293e-10
1.41943e-10
1.01848e-10
7.193e-11
5.32796e-11
4.37069e-11
3.96664e-11
3.78566e-11
3.63751e-11
3.54446e-11
4.02141e-11
6.71685e-11
2.01141e-10
4.12242e-10
6.1677e-10
7.39358e-10
7.30181e-10
6.8667e-10
5.76839e-10
5.84971e-10
8.32732e-10
1.17945e-09
1.35728e-09
4.85759e-09
4.90549e-08
1.05518e-07
1.27176e-07
2.65477e-07
7.65296e-07
9.55367e-07
5.90742e-07
1.73278e-07
1.34436e-08
1.32749e-08
1.40118e-08
1.6261e-08
8.01794e-08
6.71421e-07
7.95096e-07
6.67415e-07
2.52569e-07
6.77194e-08
1.31497e-08
9.56683e-10
2.38351e-10
1.68693e-10
1.31488e-10
1.12752e-10
8.09709e-11
3.64399e-11
8.94573e-12
6.01623e-12
5.32643e-12
4.37542e-12
2.64513e-12
1.05164e-12
3.27711e-13
1.67247e-13
8.8337e-14
2.25655e-14
3.66295e-15
3.81935e-15
4.49532e-15
5.75981e-15
7.46144e-15
9.41931e-15
1.17674e-14
1.42446e-14
1.73085e-14
2.15728e-14
2.73137e-14
3.40831e-14
4.16624e-14
4.90605e-14
5.56007e-14
6.32795e-14
7.16488e-14
8.03323e-14
9.07109e-14
1.03352e-13
1.07808e-13
1.19614e-13
1.55561e-13
3.04491e-13
6.33901e-13
1.42444e-12
3.27182e-12
4.742e-12
5.12617e-12
4.92253e-12
7.57398e-08
7.19541e-08
2.68737e-08
1.93119e-09
1.15696e-11
1.39706e-11
2.1558e-11
3.37161e-11
5.06131e-11
7.06317e-11
8.88429e-11
9.20325e-11
8.78507e-11
7.26723e-11
5.02019e-11
2.8181e-11
1.33925e-11
6.11605e-12
3.25477e-12
2.3035e-12
1.97625e-12
1.97111e-12
2.2372e-12
4.74756e-12
2.04931e-11
1.07212e-10
4.92335e-10
9.0918e-10
9.19822e-10
8.58273e-10
6.86237e-10
5.2698e-10
3.78226e-10
4.62094e-10
2.05553e-09
4.8284e-09
5.14293e-09
9.14359e-09
9.46754e-08
2.00166e-07
2.00293e-07
1.01199e-07
3.39787e-08
1.14356e-08
2.91253e-09
1.22163e-09
2.08849e-09
1.17521e-08
1.43129e-08
9.15484e-09
2.36628e-09
2.01002e-10
1.35358e-10
7.32332e-11
3.65729e-11
1.79007e-11
9.16466e-12
5.5054e-12
2.79536e-12
1.13687e-12
1.37231e-13
2.03202e-15
1.75888e-15
1.31988e-15
9.29229e-16
6.96055e-16
6.28308e-16
6.52047e-16
6.52102e-16
1.09905e-15
1.72825e-15
2.06855e-15
2.38388e-15
2.77798e-15
3.38949e-15
4.23993e-15
5.26013e-15
6.42136e-15
7.71177e-15
9.14092e-15
1.07467e-14
1.28928e-14
1.58502e-14
1.98624e-14
2.53603e-14
3.27018e-14
4.17006e-14
5.15537e-14
6.18423e-14
7.25264e-14
8.29393e-14
9.50496e-14
1.12025e-13
1.31091e-13
1.49883e-13
1.83996e-13
2.18179e-13
2.20759e-13
2.22664e-13
2.21513e-13
2.1594e-13
2.13213e-13
2.08511e-13
2.05744e-13
6.08531e-08
2.34583e-08
1.59776e-09
1.47466e-12
2.15463e-12
5.56432e-12
1.64188e-11
3.17752e-11
5.01158e-11
6.82371e-11
6.8379e-11
6.39947e-11
5.0243e-11
3.08944e-11
1.37418e-11
3.46166e-12
3.89861e-13
2.80199e-13
2.52993e-13
2.52062e-13
2.65796e-13
3.13815e-13
5.64906e-13
3.57668e-12
2.50023e-11
1.44843e-10
3.22838e-10
4.17077e-10
3.62902e-10
1.67254e-10
1.29102e-10
1.35428e-10
1.32158e-10
2.68233e-10
2.89449e-09
6.55672e-09
6.70362e-09
4.17316e-09
1.33156e-09
1.85753e-10
4.58915e-12
1.22424e-12
2.73183e-13
1.46512e-18
2.01435e-12
6.62699e-12
7.64558e-12
6.46334e-12
5.40827e-12
3.30072e-12
1.77795e-12
6.72428e-13
3.69394e-14
6.54634e-17
6.55483e-17
2.47896e-16
3.35748e-16
2.82719e-16
9.44454e-17
2.87496e-16
3.71649e-16
3.67823e-16
3.2324e-16
2.36725e-16
2.3897e-16
2.85268e-16
4.15962e-16
6.16171e-16
8.03506e-16
9.35601e-16
1.14276e-15
1.45484e-15
1.84141e-15
2.30691e-15
2.76212e-15
3.16333e-15
3.54548e-15
3.91187e-15
4.21192e-15
4.47308e-15
4.81841e-15
5.4524e-15
6.57771e-15
8.4917e-15
1.15947e-14
1.63223e-14
2.28871e-14
3.17024e-14
4.24387e-14
5.46069e-14
6.86585e-14
8.44575e-14
1.01698e-13
1.20641e-13
1.43957e-13
1.57443e-13
1.71868e-13
1.88477e-13
2.00647e-13
2.08269e-13
2.15188e-13
2.15117e-13
2.09643e-13
2.07293e-13
1.75614e-09
4.79572e-10
1.63964e-12
1.3435e-12
5.2975e-12
1.18414e-11
2.46041e-11
3.2125e-11
3.0832e-11
2.57879e-11
1.86472e-11
1.16182e-11
5.74614e-12
1.71324e-12
8.67816e-14
4.47237e-14
3.40949e-14
2.45059e-14
1.70747e-14
1.73279e-14
2.54807e-14
4.356e-14
4.74061e-14
4.04326e-14
2.33197e-14
1.29623e-14
4.14384e-15
5.59731e-21
4.27247e-13
4.5186e-12
1.83191e-11
2.77678e-11
2.54919e-11
1.44059e-11
3.00796e-12
4.02223e-14
1.64334e-14
4.98131e-15
1.31174e-15
3.27318e-16
8.03972e-17
1.99136e-17
5.43433e-18
1.47304e-18
-2.43972e-37
2.70822e-39
1.15519e-39
-1.2728e-38
6.06334e-38
6.67988e-19
9.30862e-19
9.31405e-19
5.91239e-18
5.94925e-17
1.85084e-16
2.07516e-16
1.94359e-16
1.50065e-16
9.44574e-17
5.4185e-17
5.94507e-17
7.00257e-17
7.94574e-17
1.00525e-16
1.45558e-16
2.05599e-16
2.67345e-16
3.2226e-16
3.83718e-16
4.74092e-16
5.88542e-16
7.0473e-16
7.89192e-16
8.43127e-16
8.77439e-16
9.06265e-16
9.17282e-16
9.19041e-16
9.08464e-16
9.07383e-16
9.41345e-16
1.05643e-15
1.29302e-15
1.72349e-15
2.45518e-15
3.6494e-15
5.47975e-15
8.23608e-15
1.20709e-14
1.74194e-14
2.4824e-14
3.41514e-14
4.55592e-14
6.13272e-14
7.94962e-14
9.77687e-14
1.18857e-13
1.43909e-13
1.65857e-13
1.82956e-13
1.96282e-13
2.05425e-13
2.06931e-13
2.07851e-13
1.71779e-12
2.36803e-13
3.98408e-13
1.94917e-12
6.73676e-12
7.37786e-12
6.14632e-12
4.99591e-12
3.46083e-12
2.3708e-12
1.45557e-12
7.07142e-13
1.78368e-13
4.64228e-15
3.06068e-15
2.35481e-15
1.56639e-15
6.62251e-16
6.78083e-17
3.38046e-19
2.9112e-19
2.22466e-19
1.3013e-19
5.10816e-20
1.84366e-20
1.6151e-20
1.46406e-20
5.60638e-21
8.18776e-40
7.60955e-40
4.00572e-39
1.60852e-38
5.81789e-38
2.13691e-39
3.30931e-49
3.51353e-20
1.71337e-20
8.47773e-21
5.64885e-21
5.64663e-21
5.64945e-21
1.39021e-20
2.61287e-20
3.24553e-20
4.89924e-20
7.44805e-20
1.44358e-19
5.99739e-19
1.17557e-18
1.22765e-18
1.05665e-18
9.99279e-19
1.21551e-18
3.18203e-18
9.7939e-18
1.11525e-17
9.11738e-18
4.43968e-18
3.76786e-18
5.9417e-18
1.10912e-17
1.69316e-17
2.52013e-17
3.358e-17
3.77651e-17
4.31826e-17
5.20918e-17
6.14551e-17
7.15573e-17
8.57703e-17
1.02054e-16
1.14364e-16
1.19982e-16
1.22308e-16
1.20901e-16
1.18329e-16
1.12633e-16
1.05427e-16
9.77122e-17
9.30102e-17
9.39463e-17
1.05363e-16
1.32102e-16
1.81612e-16
2.67464e-16
4.11864e-16
6.37401e-16
9.91405e-16
1.49779e-15
2.30312e-15
3.60078e-15
5.43364e-15
8.12993e-15
1.29359e-14
2.0332e-14
3.22601e-14
4.9038e-14
7.14174e-14
9.41628e-14
1.17113e-13
1.38155e-13
1.6002e-13
1.80831e-13
1.94333e-13
2.15376e-16
1.69074e-14
3.19232e-13
1.08941e-12
1.09768e-12
9.70698e-13
6.63339e-13
3.83362e-13
2.0745e-13
1.03602e-13
3.58856e-14
1.84749e-15
8.58711e-23
8.5871e-23
8.58711e-23
3.58303e-22
5.5494e-22
5.42794e-22
8.91235e-20
1.16148e-19
1.1064e-19
8.59653e-20
4.77114e-20
1.46918e-20
4.88776e-22
9.58303e-23
4.99543e-23
2.90575e-23
1.66664e-22
3.80795e-21
5.03434e-20
2.31316e-19
2.97176e-19
2.92357e-19
1.83398e-19
3.55451e-20
6.75647e-22
9.81836e-22
1.93287e-21
3.85919e-21
7.80901e-21
1.25154e-20
1.87594e-20
1.88262e-20
1.7405e-20
2.10315e-20
2.71091e-20
3.38732e-20
6.71802e-20
7.40154e-20
5.42602e-20
5.66049e-20
1.12997e-19
2.80458e-19
3.57185e-19
3.21639e-19
2.73106e-19
2.84799e-19
3.87142e-19
8.10854e-19
1.64844e-18
2.68097e-18
3.61831e-18
4.25727e-18
4.59026e-18
4.93221e-18
5.42676e-18
5.8623e-18
6.49839e-18
7.51341e-18
8.81708e-18
8.9843e-18
8.72703e-18
8.13782e-18
7.16005e-18
5.98434e-18
4.58271e-18
3.20402e-18
1.99755e-18
1.13001e-18
6.45469e-19
4.89357e-19
5.5129e-19
9.26424e-19
1.85786e-18
3.89282e-18
7.4684e-18
1.40505e-17
2.42149e-17
5.02707e-17
1.06858e-16
1.97888e-16
3.78492e-16
8.11969e-16
1.72206e-15
3.70483e-15
7.20797e-15
1.34094e-14
2.22582e-14
3.57552e-14
5.07781e-14
6.95171e-14
9.48751e-14
1.20356e-13
9.95905e-17
1.83246e-15
1.48347e-14
3.56685e-14
3.75422e-14
3.01033e-14
1.39384e-14
1.82553e-15
1.6144e-21
1.61243e-21
1.61047e-21
1.60851e-21
1.5302e-21
7.48859e-22
4.03714e-22
7.40859e-22
1.68672e-21
1.62334e-21
1.17723e-21
6.81915e-22
2.05765e-22
1.02368e-23
1.66158e-24
1.09309e-24
5.69711e-25
1.39536e-25
1.48901e-26
3.8385e-26
3.81337e-26
2.64129e-25
2.64445e-25
1.89699e-24
1.24199e-23
1.24199e-23
5.37456e-23
1.57297e-22
3.89562e-22
8.38528e-22
1.40707e-21
1.91241e-21
2.57831e-21
3.22156e-21
3.20154e-21
2.86899e-21
3.04908e-21
5.6227e-21
7.81947e-21
7.2431e-21
6.7139e-21
6.78026e-21
6.39671e-21
4.81938e-21
2.79194e-21
1.32106e-21
6.12304e-22