/*--------------------------------*- C++ -*----------------------------------*\
| =========                 |                                                 |
| \\      /  F ield         | OpenFOAM: The Open Source CFD Toolbox           |
|  \\    /   O peration     | Version:  v1912                                 |
|   \\  /    A nd           | Website:  www.openfoam.com                      |
|    \\/     M anipulation  |                                                 |
\*---------------------------------------------------------------------------*/
FoamFile
{
    version     2.0;
    format      ascii;
    class       volVectorField;
    location    "30";
    object      U;
}
// * * * * * * * * * * * * * * * * * * * * * * * * * * * * * * * * * * * * * //

dimensions      [0 1 -1 0 0 0 0];


internalField   nonuniform List<vector> 
114144
(
(1.01241 -0.000545496 0)
(1.06667 -0.0305002 0)
(0.987549 -0.0575629 0)
(0.87207 -0.0815013 0)
(0.723004 -0.101098 0)
(0.546124 -0.115358 0)
(0.348265 -0.123732 0)
(0.13747 -0.125802 0)
(-0.0683554 -0.121486 0)
(-0.268236 -0.114328 0)
(-0.461027 -0.102341 0)
(-0.631391 -0.0873411 0)
(-0.776456 -0.0703503 0)
(-0.892755 -0.052317 0)
(-0.977936 -0.0339849 0)
(-1.03083 -0.0159637 0)
(-1.05175 0.00120645 0)
(-1.04155 0.01737 0)
(-1.00184 0.0318121 0)
(-0.935508 0.0442527 0)
(-0.845834 0.0543977 0)
(-0.736771 0.0620256 0)
(-0.612672 0.0670442 0)
(-0.478003 0.0695448 0)
(-0.336893 0.0698458 0)
(-0.190907 0.0683195 0)
(-0.0545791 0.0619756 0)
(0.0811338 0.0616877 0)
(0.221194 0.0575558 0)
(0.351308 0.0544139 0)
(0.477642 0.0521726 0)
(0.600149 0.0507612 0)
(0.718852 0.0497135 0)
(0.832749 0.0482946 0)
(0.939539 0.0456436 0)
(1.03556 0.0409541 0)
(1.11598 0.0336342 0)
(1.17532 0.0234555 0)
(1.20808 0.0106233 0)
(1.20953 -0.00425707 0)
(1.17654 -0.0200673 0)
(1.10798 -0.0355872 0)
(1.00523 -0.0494663 0)
(0.872251 -0.0605219 0)
(0.715172 -0.0679437 0)
(0.541512 -0.0714953 0)
(0.353413 -0.0713995 0)
(0.167672 -0.060674 0)
(0.0122581 -0.0530058 0)
(-0.141145 -0.0485839 0)
(-0.293618 -0.0393541 0)
(-0.419203 -0.0316001 0)
(-0.529696 -0.0253989 0)
(-0.626258 -0.0213038 0)
(-0.712458 -0.0191993 0)
(-0.791102 -0.0185788 0)
(-0.863883 -0.0186135 0)
(-0.93076 -0.0183537 0)
(-0.989888 -0.0169665 0)
(-1.03797 -0.0139164 0)
(-1.07095 -0.00904794 0)
(-1.08478 -0.00259812 0)
(-1.07614 0.00495006 0)
(-1.04307 0.0127959 0)
(-0.985508 0.0201465 0)
(-0.905315 0.0262696 0)
(-0.806127 0.0306642 0)
(-0.692959 0.0331372 0)
(-0.570319 0.0341489 0)
(-0.440424 0.0322882 0)
(-0.314318 0.0263947 0)
(-0.201875 0.0235193 0)
(-0.102294 0.0204726 0)
(-0.0209011 0.0171135 0)
(0.0641098 0.0158652 0)
(0.149632 0.0136145 0)
(0.218233 0.0122774 0)
(0.282179 0.0113692 0)
(0.340373 0.0107444 0)
(0.39412 0.0101135 0)
(0.443185 0.00925703 0)
(0.487023 0.0080493 0)
(0.524864 0.00648817 0)
(0.556095 0.00468571 0)
(0.580526 0.00283856 0)
(0.598567 0.001187 0)
(0.611263 -2.01628e-05 0)
(0.62021 -0.000547219 0)
(0.627367 -0.000251756 0)
(0.634702 0.00074639 0)
(0.643696 0.00211841 0)
(0.654886 0.00348063 0)
(0.667531 0.00447289 0)
(0.679843 0.00510825 0)
(0.689104 0.00505727 0)
(0.692864 0.0042634 0)
(0.687324 0.00109214 0)
(0.668353 -0.00264458 0)
(0.633519 -0.00691449 0)
(0.580602 -0.011509 0)
(0.508614 -0.0161176 0)
(0.417811 -0.0203941 0)
(0.309842 -0.0240164 0)
(0.187232 -0.0267307 0)
(0.054311 -0.0283539 0)
(-0.0853131 -0.0288123 0)
(-0.227132 -0.0281275 0)
(-0.365513 -0.0264033 0)
(-0.496433 -0.0237809 0)
(-0.615563 -0.0204389 0)
(-0.719388 -0.016564 0)
(-0.804987 -0.0123377 0)
(-0.870146 -0.00791672 0)
(-0.913467 -0.0034564 0)
(-0.934121 0.00102557 0)
(-0.932449 0.00484148 0)
(-0.908966 0.00867092 0)
(-0.864977 0.0119615 0)
(-0.802874 0.0146572 0)
(-0.725394 0.0166665 0)
(-0.636136 0.0179028 0)
(-0.538144 0.0187971 0)
(-0.431676 0.0175207 0)
(-0.326395 0.0154746 0)
(-0.231574 0.01361 0)
(-0.142698 0.0112765 0)
(-0.0670198 0.0087881 0)
(0.00215417 0.00606733 0)
(0.0690859 0.00467421 0)
(0.124551 0.00307359 0)
(0.172749 0.00217591 0)
(0.214466 0.00192344 0)
(0.253032 0.00220755 0)
(0.28929 0.00283819 0)
(0.324427 0.00352917 0)
(0.35805 0.00399908 0)
(0.389014 0.00400518 0)
(0.415221 0.00339169 0)
(0.434106 0.00211222 0)
(0.443071 0.000235762 0)
(0.439651 -0.00203773 0)
(0.422781 -0.0044248 0)
(0.391726 -0.00665735 0)
(0.348076 -0.00835211 0)
(0.293421 -0.00959461 0)
(0.228424 -0.00927718 0)
(0.164092 -0.00824989 0)
(0.105327 -0.00646654 0)
(0.053511 -0.00416446 0)
(0.0139369 -0.000681578 0)
(-0.0155129 0.000761811 0)
(-0.0292844 0.0037215 0)
(-0.0248715 0.00508603 0)
(-0.00416645 0.00602302 0)
(0.0273189 0.00647633 0)
(0.068925 0.00641474 0)
(0.120558 0.00499071 0)
(0.173179 0.00378681 0)
(0.223473 0.00216285 0)
(0.267732 0.000429566 0)
(0.303468 -0.00126235 0)
(0.326558 -0.0028005 0)
(0.337168 -0.0039959 0)
(0.329527 -0.00489248 0)
(0.307292 -0.00498863 0)
(0.269621 -0.00466826 0)
(0.210637 -0.00349665 0)
(0.136411 -0.00162896 0)
(0.0447033 0.000912988 0)
(-0.0608978 0.00424894 0)
(-0.179093 0.00782184 0)
(-0.30525 0.0114307 0)
(-0.435102 0.0146892 0)
(-0.562935 0.0171871 0)
(-0.682978 0.0185994 0)
(-0.789039 0.018775 0)
(-0.875942 0.0176084 0)
(-0.93936 0.0152253 0)
(-0.976087 0.0115274 0)
(-0.984136 0.0070623 0)
(-0.962543 0.002066 0)
(-0.912796 -0.00341802 0)
(-0.837728 -0.00874144 0)
(-0.741101 -0.0138866 0)
(-0.626098 -0.0184997 0)
(-0.494957 -0.0224741 0)
(-0.350873 -0.0257133 0)
(-0.198492 -0.0281715 0)
(-0.0385435 -0.0297431 0)
(0.124617 -0.0303835 0)
(0.286456 -0.0300361 0)
(0.442453 -0.0287813 0)
(0.588795 -0.0266072 0)
(0.721257 -0.0235843 0)
(0.836547 -0.0198841 0)
(0.931812 -0.0156174 0)
(1.00465 -0.0110365 0)
(1.05355 -0.00624197 0)
(1.0767 -0.00127771 0)
(1.07444 0.00374407 0)
(1.04673 0.00879628 0)
(0.992603 0.0137325 0)
(0.913926 0.0183212 0)
(0.812219 0.0224589 0)
(0.690172 0.0260008 0)
(0.551079 0.0288516 0)
(0.398747 0.0308636 0)
(0.237948 0.0319619 0)
(0.0732899 0.0320463 0)
(-0.0903459 0.0310915 0)
(-0.247238 0.0291699 0)
(-0.391517 0.0263517 0)
(-0.519299 0.022914 0)
(-0.627748 0.0190181 0)
(-0.715336 0.0148935 0)
(-0.781373 0.0107536 0)
(-0.826026 0.00677973 0)
(-0.850468 0.00310884 0)
(-0.85658 -0.000243542 0)
(-0.846179 -0.00306063 0)
(-0.822329 -0.00542123 0)
(-0.787283 -0.00734206 0)
(-0.74323 -0.00887515 0)
(-0.692018 -0.0100926 0)
(-0.635122 -0.0110744 0)
(-0.573547 -0.0118951 0)
(-0.50795 -0.0126201 0)
(-0.438671 -0.0132966 0)
(-0.365876 -0.0139535 0)
(-0.289621 -0.0146019 0)
(-0.209991 -0.0152252 0)
(-0.127281 -0.0157981 0)
(-0.041523 -0.0162693 0)
(0.0466201 -0.0166076 0)
(0.135996 -0.01673 0)
(0.225388 -0.0166092 0)
(0.313328 -0.0162022 0)
(0.398254 -0.0154895 0)
(0.478486 -0.0144604 0)
(0.552382 -0.0131289 0)
(0.618426 -0.0115253 0)
(0.675289 -0.00967689 0)
(0.72192 -0.0076406 0)
(0.75743 -0.00547006 0)
(0.781197 -0.00321907 0)
(0.792924 -0.00093122 0)
(0.792755 0.00139554 0)
(0.78053 0.00375223 0)
(0.756929 0.00684661 0)
(0.715315 0.00680837 0)
(1.01377 0.018087 0)
(1.06916 0.0297506 0)
(0.990613 0.0463084 0)
(0.874647 0.0632715 0)
(0.724671 0.0786115 0)
(0.546638 0.0910403 0)
(0.347636 0.0997504 0)
(0.135982 0.105207 0)
(-0.0715157 0.108132 0)
(-0.27291 0.102002 0)
(-0.466204 0.0942705 0)
(-0.63718 0.0836853 0)
(-0.782663 0.0707423 0)
(-0.899171 0.0557123 0)
(-0.984334 0.039252 0)
(-1.03702 0.0219607 0)
(-1.05745 0.00403204 0)
(-1.0466 -0.0122797 0)
(-1.00619 -0.028301 0)
(-0.938994 -0.0430155 0)
(-0.84835 -0.0559315 0)
(-0.738259 -0.0666855 0)
(-0.613124 -0.0750494 0)
(-0.477457 -0.0809478 0)
(-0.33549 -0.0844898 0)
(-0.190183 -0.0862804 0)
(-0.0523028 -0.0916481 0)
(0.0847104 -0.0837098 0)
(0.22349 -0.081929 0)
(0.3538 -0.0793902 0)
(0.480214 -0.0768668 0)
(0.602895 -0.0741941 0)
(0.721926 -0.0710494 0)
(0.836378 -0.0669069 0)
(0.943985 -0.0611071 0)
(1.04106 -0.0529684 0)
(1.1227 -0.0419336 0)
(1.18325 -0.0277449 0)
(1.217 -0.0105662 0)
(1.21902 0.00901865 0)
(1.18599 0.0298672 0)
(1.11664 0.0506639 0)
(1.01234 0.0698387 0)
(0.877095 0.0858877 0)
(0.717191 0.0975179 0)
(0.540399 0.103763 0)
(0.352049 0.104114 0)
(0.164605 0.111114 0)
(0.00369334 0.105877 0)
(-0.150488 0.0900854 0)
(-0.301347 0.0811406 0)
(-0.426435 0.0715622 0)
(-0.535842 0.0634042 0)
(-0.631292 0.0567567 0)
(-0.716568 0.0515827 0)
(-0.794698 0.0473945 0)
(-0.867489 0.0434635 0)
(-0.934921 0.0389476 0)
(-0.995072 0.0330156 0)
(-1.04446 0.0250005 0)
(-1.07876 0.0145715 0)
(-1.09358 0.00187701 0)
(-1.08537 -0.0125543 0)
(-1.05196 -0.0276825 0)
(-0.993208 -0.0423222 0)
(-0.911059 -0.0552312 0)
(-0.809319 -0.06531 0)
(-0.693151 -0.0717171 0)
(-0.568058 -0.0737225 0)
(-0.437343 -0.0732094 0)
(-0.309224 -0.076263 0)
(-0.194444 -0.0714891 0)
(-0.0949413 -0.0647399 0)
(-0.0136724 -0.0587176 0)
(0.0704225 -0.0487776 0)
(0.154382 -0.0443814 0)
(0.222158 -0.0402186 0)
(0.285459 -0.0371367 0)
(0.343377 -0.0344263 0)
(0.39715 -0.0317558 0)
(0.446447 -0.0287837 0)
(0.49057 -0.0253369 0)
(0.528581 -0.0214309 0)
(0.559729 -0.0172759 0)
(0.583751 -0.01323 0)
(0.60107 -0.00971219 0)
(0.612846 -0.00708776 0)
(0.620849 -0.00555163 0)
(0.627177 -0.00507385 0)
(0.633899 -0.0054573 0)
(0.642627 -0.00636673 0)
(0.654028 -0.00734607 0)
(0.667525 -0.00782022 0)
(0.681239 -0.0069935 0)
(0.692202 -0.0043526 0)
(0.6972 0.000320948 0)
(0.692764 0.00691944 0)
(0.675152 0.0158679 0)
(0.641012 0.0266891 0)
(0.588072 0.0386631 0)
(0.515341 0.0509587 0)
(0.42313 0.0627105 0)
(0.3132 0.0730964 0)
(0.188237 0.0814035 0)
(0.0527569 0.0870983 0)
(-0.089444 0.0898943 0)
(-0.233685 0.0895671 0)
(-0.374194 0.0862099 0)
(-0.506845 0.0800263 0)
(-0.627258 0.0713416 0)
(-0.731893 0.0605568 0)
(-0.817836 0.0481129 0)
(-0.882897 0.0344678 0)
(-0.925655 0.0201022 0)
(-0.945538 0.00557642 0)
(-0.942638 -0.00892364 0)
(-0.917405 -0.0226606 0)
(-0.871502 -0.0351969 0)
(-0.80718 -0.046078 0)
(-0.727287 -0.0548186 0)
(-0.635354 -0.0611407 0)
(-0.535197 -0.0641569 0)
(-0.426984 -0.0660075 0)
(-0.319526 -0.066383 0)
(-0.223112 -0.062819 0)
(-0.133565 -0.0574786 0)
(-0.058007 -0.0511453 0)
(0.0107445 -0.0446647 0)
(0.0765697 -0.037168 0)
(0.130254 -0.0318222 0)
(0.176878 -0.0277942 0)
(0.217188 -0.0251991 0)
(0.254779 -0.0238802 0)
(0.290658 -0.023313 0)
(0.326074 -0.0228987 0)
(0.36059 -0.0219159 0)
(0.392894 -0.0196977 0)
(0.420624 -0.0157321 0)
(0.440882 -0.00976708 0)
(0.450732 -0.00188853 0)
(0.447412 0.00743089 0)
(0.429699 0.0173752 0)
(0.396816 0.0270391 0)
(0.35038 0.0354382 0)
(0.29253 0.041263 0)
(0.224168 0.0445282 0)
(0.156422 0.0445196 0)
(0.094952 0.0407067 0)
(0.0417288 0.033632 0)
(0.00124838 0.0247133 0)
(-0.0274974 0.0115767 0)
(-0.0390276 -5.91786e-05 0)
(-0.0320673 -0.0119645 0)
(-0.00777649 -0.0222582 0)
(0.0274298 -0.0300046 0)
(0.0721712 -0.0346681 0)
(0.126641 -0.0370116 0)
(0.181676 -0.036035 0)
(0.233344 -0.0323641 0)
(0.278201 -0.0262545 0)
(0.313705 -0.0180753 0)
(0.335816 -0.00842927 0)
(0.344685 0.0024471 0)
(0.33485 0.0136465 0)
(0.309793 0.0257114 0)
(0.268905 0.0371064 0)
(0.206578 0.0482487 0)
(0.12907 0.0581659 0)
(0.0345541 0.0666983 0)
(-0.0731421 0.0731481 0)
(-0.192485 0.0771799 0)
(-0.31855 0.0782994 0)
(-0.447155 0.0761703 0)
(-0.572783 0.0707346 0)
(-0.689999 0.0620656 0)
(-0.793089 0.0505311 0)
(-0.87722 0.0367305 0)
(-0.938334 0.021403 0)
(-0.973271 0.00544996 0)
(-0.980138 -0.0113902 0)
(-0.95829 -0.0268645 0)
(-0.908608 -0.0404271 0)
(-0.833865 -0.0523561 0)
(-0.737826 -0.0630382 0)
(-0.623529 -0.0719973 0)
(-0.493187 -0.0792903 0)
(-0.349937 -0.0848859 0)
(-0.198323 -0.0887962 0)
(-0.0389908 -0.0908915 0)
(0.123841 -0.0910826 0)
(0.285662 -0.0891241 0)
(0.441948 -0.0850586 0)
(0.588842 -0.0787763 0)
(0.722003 -0.0704161 0)
(0.838077 -0.0603819 0)
(0.934063 -0.0485045 0)
(1.00748 -0.0353815 0)
(1.05681 -0.0213028 0)
(1.08031 -0.00656237 0)
(1.07822 0.00767841 0)
(1.05047 0.0223307 0)
(0.99619 0.0368251 0)
(0.917276 0.0504085 0)
(0.815239 0.0627775 0)
(0.692759 0.073499 0)
(0.553127 0.0822553 0)
(0.400157 0.0886027 0)
(0.238638 0.0922648 0)
(0.0732039 0.0929414 0)
(-0.0912064 0.0905404 0)
(-0.248818 0.0852434 0)
(-0.393703 0.0772397 0)
(-0.521939 0.0673204 0)
(-0.630689 0.0559482 0)
(-0.718413 0.0437921 0)
(-0.784428 0.0315006 0)
(-0.828929 0.0196355 0)
(-0.853113 0.0086233 0)
(-0.858884 -0.00146024 0)
(-0.848149 -0.0099186 0)
(-0.823959 -0.0169944 0)
(-0.788599 -0.0227649 0)
(-0.744279 -0.0273699 0)
(-0.692858 -0.0310239 0)
(-0.63581 -0.0339562 0)
(-0.574138 -0.0364067 0)
(-0.508485 -0.0385695 0)
(-0.439181 -0.0406005 0)
(-0.366374 -0.0425774 0)
(-0.290108 -0.044534 0)
(-0.210447 -0.0464143 0)
(-0.127681 -0.0481252 0)
(-0.0418325 -0.0495412 0)
(0.0464436 -0.0505529 0)
(0.135993 -0.0509198 0)
(0.225587 -0.0505482 0)
(0.31375 -0.0493249 0)
(0.398912 -0.0471795 0)
(0.479378 -0.0440949 0)
(0.553493 -0.0400994 0)
(0.619732 -0.0352703 0)
(0.67676 -0.0297351 0)
(0.723513 -0.023626 0)
(0.759105 -0.0170999 0)
(0.782917 -0.0103305 0)
(0.794686 -0.00346581 0)
(0.794556 0.00326168 0)
(0.782618 0.00989865 0)
(0.760076 0.017409 0)
(0.722643 0.0252765 0)
(1.0222 0.0260457 0)
(1.07529 0.0486853 0)
(0.997115 0.0757286 0)
(0.880182 0.102396 0)
(0.728571 0.125898 0)
(0.548566 0.144414 0)
(0.347684 0.156928 0)
(0.134547 0.164006 0)
(-0.0755461 0.16639 0)
(-0.279166 0.156493 0)
(-0.473112 0.143544 0)
(-0.644791 0.125632 0)
(-0.790763 0.103837 0)
(-0.907533 0.0800193 0)
(-0.99265 0.0552587 0)
(-1.04515 0.030429 0)
(-1.06476 0.00614871 0)
(-1.05292 -0.0161042 0)
(-1.01177 -0.0367102 0)
(-0.943515 -0.054947 0)
(-0.851712 -0.0703594 0)
(-0.740431 -0.0826666 0)
(-0.614143 -0.0917696 0)
(-0.477435 -0.0977727 0)
(-0.334672 -0.101041 0)
(-0.189322 -0.102439 0)
(-0.0494225 -0.10496 0)
(0.0889851 -0.0968035 0)
(0.226855 -0.0939195 0)
(0.357202 -0.0902005 0)
(0.483552 -0.0864155 0)
(0.60626 -0.0824064 0)
(0.725449 -0.077836 0)
(0.840195 -0.0721816 0)
(0.948211 -0.0648265 0)
(1.04575 -0.055179 0)
(1.12779 -0.0428185 0)
(1.1886 -0.0276306 0)
(1.22236 -0.00990917 0)
(1.22406 0.00967436 0)
(1.19035 0.0299975 0)
(1.12001 0.0498101 0)
(1.01447 0.0676955 0)
(0.877853 0.0823693 0)
(0.71656 0.0928158 0)
(0.53842 0.0984807 0)
(0.350563 0.0993913 0)
(0.16298 0.103521 0)
(-0.000689515 0.100693 0)
(-0.155028 0.0856886 0)
(-0.304588 0.0776493 0)
(-0.429469 0.0689181 0)
(-0.538534 0.0613278 0)
(-0.633748 0.0548476 0)
(-0.718871 0.0494292 0)
(-0.796922 0.0446883 0)
(-0.869669 0.0400764 0)
(-0.937054 0.0349818 0)
(-0.99712 0.0288284 0)
(-1.04636 0.0211818 0)
(-1.08041 0.0118603 0)
(-1.09493 0.00103162 0)
(-1.08632 -0.0108947 0)
(-1.05245 -0.0231248 0)
(-0.993231 -0.0347978 0)
(-0.910639 -0.0450184 0)
(-0.80851 -0.0530067 0)
(-0.692024 -0.0582121 0)
(-0.566698 -0.060404 0)
(-0.437244 -0.0601736 0)
(-0.309738 -0.0639 0)
(-0.193805 -0.0637403 0)
(-0.094057 -0.0595112 0)
(-0.0118003 -0.055705 0)
(0.0723471 -0.0456238 0)
(0.155425 -0.0424073 0)
(0.223369 -0.0386097 0)
(0.286615 -0.0356947 0)
(0.344502 -0.0329445 0)
(0.398169 -0.0302433 0)
(0.447309 -0.0273955 0)
(0.491244 -0.0243173 0)
(0.52907 -0.0210238 0)
(0.560071 -0.0176383 0)
(0.584008 -0.014368 0)
(0.601315 -0.0114555 0)
(0.613146 -0.00911706 0)
(0.621254 -0.00748363 0)
(0.627741 -0.00654128 0)
(0.634666 -0.00608808 0)
(0.643573 -0.00581879 0)
(0.655048 -0.00542766 0)
(0.668424 -0.00457694 0)
(0.681851 -0.00296321 0)
(0.692353 -0.000256576 0)
(0.697236 0.00384859 0)
(0.692754 0.00986979 0)
(0.674689 0.0177384 0)
(0.640175 0.0270023 0)
(0.586922 0.0371989 0)
(0.51394 0.047699 0)
(0.42155 0.0578211 0)
(0.311516 0.0668932 0)
(0.186524 0.0743152 0)
(0.0511005 0.0795691 0)
(-0.0910064 0.0825689 0)
(-0.235138 0.0827624 0)
(-0.375499 0.0803124 0)
(-0.507985 0.0752876 0)
(-0.628216 0.0679205 0)
(-0.732651 0.0585171 0)
(-0.818377 0.0474417 0)
(-0.883197 0.0350935 0)
(-0.925737 0.0219297 0)
(-0.945252 0.00838264 0)
(-0.942066 -0.00495321 0)
(-0.916722 -0.0180262 0)
(-0.870601 -0.0300379 0)
(-0.806142 -0.0406241 0)
(-0.726174 -0.0493145 0)
(-0.634239 -0.0558123 0)
(-0.534246 -0.0596271 0)
(-0.426728 -0.061473 0)
(-0.319532 -0.0644476 0)
(-0.222863 -0.062291 0)
(-0.133427 -0.0582965 0)
(-0.0579081 -0.0533787 0)
(0.0111185 -0.0479094 0)
(0.0770799 -0.0408868 0)
(0.130815 -0.0358641 0)
(0.177702 -0.0318389 0)
(0.218275 -0.0288536 0)
(0.256064 -0.0268774 0)
(0.292026 -0.0254548 0)
(0.327342 -0.0241574 0)
(0.361562 -0.0224103 0)
(0.393388 -0.0196873 0)
(0.420508 -0.015572 0)
(0.4401 -0.00983949 0)
(0.449333 -0.0025455 0)
(0.445554 0.00599308 0)
(0.427579 0.0151089 0)
(0.394742 0.0240644 0)
(0.348656 0.0321215 0)
(0.291366 0.0379874 0)
(0.22393 0.041854 0)
(0.157128 0.0431349 0)
(0.0963724 0.0407673 0)
(0.0437788 0.0353917 0)
(0.00342454 0.0279757 0)
(-0.0253599 0.0158071 0)
(-0.0369292 0.0047483 0)
(-0.0304229 -0.00697426 0)
(-0.00683867 -0.0179881 0)
(0.0277194 -0.0267538 0)
(0.0718503 -0.032767 0)
(0.125603 -0.0368369 0)
(0.17999 -0.0376314 0)
(0.231222 -0.0356204 0)
(0.275736 -0.0309507 0)
(0.310983 -0.023857 0)
(0.332968 -0.0148597 0)
(0.341964 -0.00379109 0)
(0.332456 0.00790672 0)
(0.307858 0.021815 0)
(0.267756 0.0358342 0)
(0.206532 0.0507996 0)
(0.130321 0.0654243 0)
(0.037142 0.0796744 0)
(-0.0693124 0.0923518 0)
(-0.187637 0.102865 0)
(-0.313306 0.110015 0)
(-0.442175 0.112883 0)
(-0.56879 0.110786 0)
(-0.687635 0.103295 0)
(-0.792654 0.0906241 0)
(-0.878761 0.0731399 0)
(-0.941789 0.0519065 0)
(-0.97863 0.0276576 0)
(-0.98698 0.000714894 0)
(-0.965279 -0.0256723 0)
(-0.915413 -0.050603 0)
(-0.84051 -0.07365 0)
(-0.74396 -0.0946052 0)
(-0.628812 -0.112604 0)
(-0.497489 -0.127522 0)
(-0.353193 -0.139181 0)
(-0.200499 -0.147553 0)
(-0.0400161 -0.152381 0)
(0.123964 -0.153492 0)
(0.286947 -0.150536 0)
(0.444383 -0.143721 0)
(0.592402 -0.132898 0)
(0.726566 -0.118329 0)
(0.84353 -0.100821 0)
(0.940305 -0.0803764 0)
(1.01433 -0.0580328 0)
(1.0641 -0.0342799 0)
(1.08768 -0.00951526 0)
(1.08555 0.0145984 0)
(1.05773 0.0391861 0)
(1.00315 0.063411 0)
(0.923711 0.0860491 0)
(0.820964 0.106608 0)
(0.697584 0.124383 0)
(0.556865 0.138869 0)
(0.402624 0.149335 0)
(0.23969 0.155334 0)
(0.0727383 0.156349 0)
(-0.0931905 0.152216 0)
(-0.252205 0.14323 0)
(-0.398264 0.129703 0)
(-0.527368 0.112988 0)
(-0.636678 0.0938631 0)
(-0.724632 0.0734516 0)
(-0.790573 0.052849 0)
(-0.834749 0.0329968 0)
(-0.858411 0.0145624 0)
(-0.863493 -0.00223982 0)
(-0.852079 -0.0163431 0)
(-0.827208 -0.0281299 0)
(-0.791222 -0.0377173 0)
(-0.746367 -0.0453539 0)
(-0.694522 -0.0514024 0)
(-0.63717 -0.0562544 0)
(-0.575303 -0.0603089 0)
(-0.509545 -0.0638929 0)
(-0.440192 -0.067264 0)
(-0.367369 -0.070552 0)
(-0.291079 -0.0738163 0)
(-0.211355 -0.0769625 0)
(-0.128471 -0.0798448 0)
(-0.0424435 -0.082233 0)
(0.0460964 -0.0839502 0)
(0.135998 -0.0845872 0)
(0.225993 -0.0839949 0)
(0.314603 -0.0819702 0)
(0.400234 -0.0784043 0)
(0.481166 -0.0732588 0)
(0.555724 -0.0665889 0)
(0.622353 -0.0585291 0)
(0.679704 -0.0492768 0)
(0.726709 -0.039067 0)
(0.76247 -0.0281688 0)
(0.786369 -0.0168722 0)
(0.798124 -0.00542047 0)
(0.797966 0.00576905 0)
(0.786126 0.0168075 0)
(0.763329 0.029063 0)
(0.728337 0.0393856 0)
(1.03723 0.031179 0)
(1.08616 0.0644913 0)
(1.00819 0.100558 0)
(0.88999 0.134965 0)
(0.736162 0.164628 0)
(0.553389 0.187472 0)
(0.349676 0.202399 0)
(0.134012 0.209943 0)
(-0.0798266 0.210576 0)
(-0.286785 0.197855 0)
(-0.482628 0.180568 0)
(-0.656348 0.157437 0)
(-0.803352 0.129816 0)
(-0.92019 0.0998148 0)
(-1.00491 0.0687403 0)
(-1.05657 0.0376868 0)
(-1.07521 0.00779101 0)
(-1.06219 -0.0203855 0)
(-1.01955 -0.0462036 0)
(-0.949763 -0.0690101 0)
(-0.856351 -0.0882766 0)
(-0.743462 -0.103664 0)
(-0.615649 -0.11505 0)
(-0.477592 -0.122566 0)
(-0.333793 -0.126655 0)
(-0.188161 -0.12819 0)
(-0.0467551 -0.129462 0)
(0.0922756 -0.122704 0)
(0.229231 -0.120366 0)
(0.359812 -0.117033 0)
(0.486268 -0.113424 0)
(0.609173 -0.109391 0)
(0.728727 -0.104496 0)
(0.844075 -0.0980141 0)
(0.952947 -0.0890432 0)
(1.05156 -0.0766712 0)
(1.13479 -0.0601811 0)
(1.19675 -0.039261 0)
(1.23141 -0.0141614 0)
(1.23361 0.0141457 0)
(1.19983 0.0443552 0)
(1.12875 0.0745093 0)
(1.0218 0.102444 0)
(0.883186 0.126094 0)
(0.719504 0.143761 0)
(0.538933 0.154464 0)
(0.349947 0.158438 0)
(0.161229 0.160714 0)
(-0.00666334 0.157503 0)
(-0.162529 0.137396 0)
(-0.3106 0.12444 0)
(-0.435228 0.110636 0)
(-0.543541 0.0985286 0)
(-0.637988 0.0884101 0)
(-0.722468 0.0802956 0)
(-0.800171 0.0735516 0)
(-0.872953 0.0671286 0)
(-0.940772 0.0597778 0)
(-1.00161 0.0502927 0)
(-1.05183 0.037748 0)
(-1.08686 0.0217186 0)
(-1.10213 0.00242749 0)
(-1.09386 -0.0192542 0)
(-1.05979 -0.0419667 0)
(-0.999746 -0.063979 0)
(-0.915761 -0.0835227 0)
(-0.811799 -0.0990536 0)
(-0.693246 -0.109493 0)
(-0.566034 -0.114443 0)
(-0.435885 -0.114874 0)
(-0.307885 -0.114691 0)
(-0.190192 -0.112915 0)
(-0.0894524 -0.104378 0)
(-0.00621133 -0.0960067 0)
(0.077509 -0.0809356 0)
(0.158876 -0.0742073 0)
(0.226426 -0.0676275 0)
(0.289216 -0.062641 0)
(0.34694 -0.0581643 0)
(0.400623 -0.0537369 0)
(0.449914 -0.0488626 0)
(0.494035 -0.04329 0)
(0.531979 -0.0370372 0)
(0.562937 -0.0304008 0)
(0.586614 -0.0238931 0)
(0.603449 -0.018123 0)
(0.614656 -0.0136457 0)
(0.622097 -0.0108122 0)
(0.627992 -0.00965834 0)
(0.634504 -0.00987355 0)
(0.643265 -0.0108555 0)
(0.654928 -0.0118052 0)
(0.668886 -0.0117836 0)
(0.683234 -0.00976862 0)
(0.694985 -0.00504877 0)
(0.700977 0.00269096 0)
(0.697598 0.0143199 0)
(0.680745 0.0297241 0)
(0.64693 0.0481453 0)
(0.593857 0.0685056 0)
(0.520484 0.0894723 0)
(0.427146 0.109621 0)
(0.315674 0.127568 0)
(0.188847 0.142102 0)
(0.0513954 0.152191 0)
(-0.0928724 0.157661 0)
(-0.23918 0.157557 0)
(-0.381513 0.152259 0)
(-0.51573 0.141973 0)
(-0.637371 0.127219 0)
(-0.742859 0.108644 0)
(-0.829266 0.0869859 0)
(-0.894386 0.0630301 0)
(-0.936835 0.0376366 0)
(-0.95596 0.0117343 0)
(-0.952017 -0.0140464 0)
(-0.925499 -0.0388592 0)
(-0.877899 -0.0616085 0)
(-0.811652 -0.0815189 0)
(-0.72966 -0.097732 0)
(-0.635488 -0.109636 0)
(-0.533318 -0.116594 0)
(-0.424667 -0.118803 0)
(-0.315738 -0.120919 0)
(-0.216845 -0.11544 0)
(-0.126539 -0.106425 0)
(-0.0508011 -0.0958325 0)
(0.018367 -0.0840906 0)
(0.0836408 -0.0711907 0)
(0.135892 -0.0613772 0)
(0.18153 -0.0539763 0)
(0.220948 -0.0489803 0)
(0.257895 -0.0462314 0)
(0.293502 -0.0447862 0)
(0.32901 -0.0436065 0)
(0.363966 -0.0414047 0)
(0.396952 -0.0369933 0)
(0.425456 -0.0294618 0)
(0.446377 -0.0183565 0)
(0.456604 -0.00382716 0)
(0.453182 0.0133328 0)
(0.434758 0.0316437 0)
(0.400626 0.049514 0)
(0.352331 0.0651871 0)
(0.292395 0.0763796 0)
(0.22211 0.0827429 0)
(0.15211 0.08328 0)
(0.0885421 0.076793 0)
(0.0341532 0.0644272 0)
(-0.00792224 0.0477038 0)
(-0.0368947 0.0243134 0)
(-0.0470403 0.00218181 0)
(-0.0388643 -0.0203852 0)
(-0.0124576 -0.0403515 0)
(0.0253994 -0.0557118 0)
(0.0723352 -0.0653977 0)
(0.128842 -0.0705838 0)
(0.185889 -0.0696642 0)
(0.238977 -0.0634582 0)
(0.284765 -0.0524493 0)
(0.3206 -0.0372914 0)
(0.342603 -0.019061 0)
(0.350761 0.00187201 0)
(0.340033 0.0236433 0)
(0.313789 0.0476406 0)
(0.271539 0.0709129 0)
(0.208014 0.0942301 0)
(0.12935 0.115707 0)
(0.0339272 0.13505 0)
(-0.0744827 0.150818 0)
(-0.194331 0.16215 0)
(-0.320929 0.167792 0)
(-0.450169 0.166755 0)
(-0.576685 0.15853 0)
(-0.695046 0.14289 0)
(-0.799486 0.120312 0)
(-0.885083 0.0918102 0)
(-0.947591 0.0591162 0)
(-0.983587 0.0237756 0)
(-0.991173 -0.0144338 0)
(-0.969401 -0.0501841 0)
(-0.919296 -0.0830624 0)
(-0.844076 -0.113119 0)
(-0.747273 -0.139839 0)
(-0.631857 -0.162584 0)
(-0.500273 -0.181365 0)
(-0.355638 -0.196033 0)
(-0.202453 -0.206569 0)
(-0.041211 -0.21264 0)
(0.123815 -0.213938 0)
(0.288147 -0.20989 0)
(0.447145 -0.200642 0)
(0.596869 -0.185889 0)
(0.732701 -0.165939 0)
(0.851236 -0.141866 0)
(0.949317 -0.113515 0)
(1.02435 -0.0824114 0)
(1.07484 -0.0491838 0)
(1.09898 -0.0144448 0)
(1.097 0.0194755 0)
(1.06889 0.0541619 0)
(1.01377 0.0883752 0)
(0.933533 0.120351 0)
(0.829698 0.14941 0)
(0.70494 0.174557 0)
(0.562555 0.195071 0)
(0.406364 0.209908 0)
(0.241258 0.218408 0)
(0.0719882 0.219842 0)
(-0.0962471 0.213982 0)
(-0.257379 0.201229 0)
(-0.405197 0.182058 0)
(-0.535591 0.15842 0)
(-0.645729 0.131403 0)
(-0.734019 0.102601 0)
(-0.79984 0.0735627 0)
(-0.843518 0.0456294 0)
(-0.866372 0.0196597 0)
(-0.87041 -0.00388207 0)
(-0.857976 -0.0236447 0)
(-0.83207 -0.0401239 0)
(-0.795135 -0.0535008 0)
(-0.749473 -0.0641236 0)
(-0.696997 -0.072514 0)
(-0.639196 -0.0792267 0)
(-0.577039 -0.0848348 0)
(-0.511124 -0.0897966 0)
(-0.441704 -0.0944828 0)
(-0.368857 -0.099077 0)
(-0.292535 -0.103658 0)
(-0.212732 -0.108091 0)
(-0.12968 -0.112167 0)
(-0.0433814 -0.115558 0)
(0.0455548 -0.118008 0)
(0.135984 -0.118942 0)
(0.226585 -0.118143 0)
(0.315874 -0.11533 0)
(0.402218 -0.110338 0)
(0.483858 -0.103122 0)
(0.559077 -0.093756 0)
(0.626301 -0.0824326 0)
(0.684146 -0.0694267 0)
(0.731523 -0.0550779 0)
(0.767529 -0.0397606 0)
(0.791552 -0.0238894 0)
(0.80336 -0.00781598 0)
(0.80316 0.00786475 0)
(0.791308 0.0232941 0)
(0.768557 0.0390906 0)
(0.734802 0.054254 0)
(1.05687 0.0327893 0)
(1.10006 0.0734873 0)
(1.0215 0.115386 0)
(0.901378 0.15467 0)
(0.744724 0.188243 0)
(0.558625 0.2139 0)
(0.351605 0.230452 0)
(0.132888 0.238172 0)
(-0.0848198 0.237382 0)
(-0.295028 0.223441 0)
(-0.492505 0.203578 0)
(-0.667583 0.178067 0)
(-0.815548 0.148216 0)
(-0.932954 0.115069 0)
(-1.01777 0.0799967 0)
(-1.06912 0.0442549 0)
(-1.08696 0.00898332 0)
(-1.07293 -0.0241165 0)
(-1.02916 -0.0553912 0)
(-0.957903 -0.0834506 0)
(-0.862849 -0.107547 0)
(-0.748233 -0.127159 0)
(-0.618703 -0.142022 0)
(-0.479057 -0.152184 0)
(-0.333932 -0.158057 0)
(-0.187462 -0.16044 0)
(-0.0444748 -0.160672 0)
(0.0952855 -0.155075 0)
(0.231749 -0.151629 0)
(0.362517 -0.147434 0)
(0.489061 -0.143058 0)
(0.612174 -0.138324 0)
(0.732184 -0.132616 0)
(0.848328 -0.124919 0)
(0.958366 -0.113985 0)
(1.05846 -0.098567 0)
(1.14335 -0.0776967 0)
(1.20692 -0.0509586 0)
(1.24289 -0.0186887 0)
(1.24587 0.0178283 0)
(1.21216 0.056869 0)
(1.14026 0.0958701 0)
(1.03162 0.132001 0)
(0.890577 0.162583 0)
(0.723976 0.185452 0)
(0.5404 0.199382 0)
(0.349213 0.204503 0)
(0.158919 0.203747 0)
(-0.0130292 0.198412 0)
(-0.17086 0.175235 0)
(-0.317643 0.157803 0)
(-0.441915 0.139817 0)
(-0.549315 0.124036 0)
(-0.642795 0.111036 0)
(-0.726458 0.100831 0)
(-0.803712 0.0925741 0)
(-0.876532 0.0848287 0)
(-0.944893 0.0758871 0)
(-1.00669 0.0641276 0)
(-1.05809 0.0483462 0)
(-1.0943 0.0280283 0)
(-1.11047 0.00351811 0)
(-1.10262 -0.0240383 0)
(-1.06833 -0.0528486 0)
(-1.00737 -0.0806993 0)
(-0.921851 -0.105354 0)
(-0.815893 -0.124901 0)
(-0.695141 -0.138067 0)
(-0.565887 -0.14448 0)
(-0.434434 -0.14501 0)
(-0.306117 -0.142032 0)
(-0.187124 -0.139126 0)
(-0.0850036 -0.12906 0)
(-0.000545807 -0.118229 0)
(0.0827949 -0.100753 0)
(0.162398 -0.0920331 0)
(0.229542 -0.0838971 0)
(0.29186 -0.077693 0)
(0.34942 -0.0721773 0)
(0.403119 -0.0667198 0)
(0.452562 -0.0606889 0)
(0.49687 -0.0537623 0)
(0.534934 -0.0459641 0)
(0.565858 -0.0376678 0)
(0.589297 -0.0295136 0)
(0.605688 -0.0222622 0)
(0.616294 -0.016617 0)
(0.623075 -0.0130468 0)
(0.628383 -0.0116313 0)
(0.63451 -0.0119765 0)
(0.643171 -0.0132793 0)
(0.655052 -0.0144873 0)
(0.669545 -0.0144032 0)
(0.684686 -0.0118219 0)
(0.697213 -0.00591364 0)
(0.704461 0.00284559 0)
(0.70253 0.017345 0)
(0.686581 0.036198 0)
(0.653376 0.0586022 0)
(0.600465 0.0832632 0)
(0.526755 0.108578 0)
(0.432588 0.132835 0)
(0.319851 0.154372 0)
(0.191403 0.171746 0)
(0.0521882 0.183699 0)
(-0.0939839 0.190189 0)
(-0.242241 0.189873 0)
(-0.386331 0.183353 0)
(-0.522104 0.170864 0)
(-0.645027 0.153051 0)
(-0.751488 0.130701 0)
(-0.838546 0.104709 0)
(-0.90398 0.0760131 0)
(-0.946444 0.0456659 0)
(-0.965183 0.0146552 0)
(-0.960618 -0.0157643 0)
(-0.933283 -0.0453815 0)
(-0.884478 -0.0724323 0)
(-0.816808 -0.0960976 0)
(-0.733192 -0.115382 0)
(-0.637296 -0.129545 0)
(-0.533332 -0.138121 0)
(-0.423799 -0.140621 0)
(-0.313703 -0.142387 0)
(-0.212943 -0.136481 0)
(-0.121844 -0.125862 0)
(-0.0456976 -0.113676 0)
(0.0237909 -0.0994633 0)
(0.0885756 -0.0847384 0)
(0.139872 -0.0730029 0)
(0.184659 -0.0642456 0)
(0.223302 -0.058241 0)
(0.259651 -0.0548818 0)
(0.29497 -0.0530519 0)
(0.330522 -0.0515486 0)
(0.365857 -0.0488803 0)
(0.39948 -0.0436838 0)
(0.428763 -0.0349241 0)
(0.45044 -0.0220941 0)
(0.461258 -0.00538103 0)
(0.458098 0.014359 0)
(0.439497 0.0354075 0)
(0.40474 0.0560074 0)
(0.355367 0.0741562 0)
(0.293953 0.0874154 0)
(0.222191 0.0949096 0)
(0.150543 0.0960027 0)
(0.0853012 0.0890095 0)
(0.0296258 0.0757149 0)
(-0.0138147 0.0560843 0)
(-0.0433373 0.0304796 0)
(-0.0532383 0.00483163 0)
(-0.0446303 -0.0206154 0)
(-0.0172495 -0.0436575 0)
(0.0220345 -0.0621679 0)
(0.0704749 -0.0739303 0)
(0.128307 -0.0804865 0)
(0.186664 -0.0804684 0)
(0.240954 -0.0743593 0)
(0.287714 -0.0627843 0)
(0.324243 -0.0464199 0)
(0.346698 -0.0264048 0)
(0.355372 -0.00275195 0)
(0.345108 0.0219408 0)
(0.318973 0.0499017 0)
(0.276854 0.077799 0)
(0.213487 0.106487 0)
(0.134851 0.133781 0)
(0.0392723 0.15938 0)
(-0.0696358 0.181328 0)
(-0.190355 0.198517 0)
(-0.318461 0.209054 0)
(-0.449774 0.21145 0)
(-0.578797 0.204753 0)
(-0.699898 0.188387 0)
(-0.807096 0.16288 0)
(-0.895305 0.129061 0)
(-0.960066 0.0887684 0)
(-0.998158 0.0435642 0)
(-1.00685 -0.00615117 0)
(-0.984203 -0.0539823 0)
(-0.932949 -0.0985987 0)
(-0.856472 -0.139888 0)
(-0.757936 -0.176605 0)
(-0.640538 -0.207892 0)
(-0.506934 -0.233667 0)
(-0.360289 -0.253722 0)
(-0.205149 -0.268068 0)
(-0.0418696 -0.276309 0)
(0.125164 -0.278062 0)
(0.29159 -0.272692 0)
(0.452679 -0.260489 0)
(0.604479 -0.24109 0)
(0.742205 -0.214938 0)
(0.862458 -0.183512 0)
(0.96204 -0.146597 0)
(1.03822 -0.106181 0)
(1.08952 -0.0630984 0)
(1.11396 -0.0181255 0)
(1.112 0.0254413 0)
(1.08371 0.0700951 0)
(1.02794 0.114215 0)
(0.946665 0.155484 0)
(0.841401 0.193028 0)
(0.714821 0.225564 0)
(0.570222 0.252162 0)
(0.411427 0.271447 0)
(0.243415 0.28254 0)
(0.0710264 0.284461 0)
(-0.100329 0.276895 0)
(-0.264323 0.26034 0)
(-0.414516 0.235408 0)
(-0.546652 0.204693 0)
(-0.657904 0.169604 0)
(-0.74664 0.132211 0)
(-0.812281 0.0945719 0)
(-0.855271 0.0584235 0)
(-0.877041 0.0247583 0)
(-0.879664 -0.00552775 0)
(-0.865843 -0.0309645 0)
(-0.838545 -0.0521213 0)
(-0.800337 -0.0692384 0)
(-0.75359 -0.0827821 0)
(-0.700267 -0.0934378 0)
(-0.641863 -0.101936 0)
(-0.579323 -0.109036 0)
(-0.513212 -0.115332 0)
(-0.443718 -0.121309 0)