/*--------------------------------*- C++ -*----------------------------------*\
| =========                 |                                                 |
| \\      /  F ield         | OpenFOAM: The Open Source CFD Toolbox           |
|  \\    /   O peration     | Version:  v1912                                 |
|   \\  /    A nd           | Website:  www.openfoam.com                      |
|    \\/     M anipulation  |                                                 |
\*---------------------------------------------------------------------------*/
FoamFile
{
    version     2.0;
    format      ascii;
    class       volScalarField;
    location    "10";
    object      k;
}
// * * * * * * * * * * * * * * * * * * * * * * * * * * * * * * * * * * * * * //

dimensions      [0 2 -2 0 0 0 0];


internalField   nonuniform List<scalar> 
14268
(
1.16309e-06
1.16124e-06
1.15974e-06
1.15794e-06
1.15614e-06
1.15432e-06
1.15249e-06
1.15065e-06
1.1488e-06
1.14696e-06
1.14529e-06
1.14458e-06
1.14488e-06
1.14594e-06
1.14746e-06
1.14907e-06
1.15043e-06
1.15126e-06
1.15134e-06
1.15062e-06
1.14923e-06
1.14743e-06
1.14562e-06
1.14419e-06
1.1435e-06
1.14378e-06
1.1451e-06
1.14737e-06
1.15044e-06
1.15406e-06
1.15794e-06
1.1618e-06
1.16527e-06
1.16806e-06
1.16999e-06
1.17098e-06
1.17108e-06
1.17037e-06
1.1692e-06
1.168e-06
1.16679e-06
1.16557e-06
1.16434e-06
1.16314e-06
1.16201e-06
1.161e-06
1.16015e-06
1.15949e-06
1.15904e-06
1.15877e-06
1.15849e-06
1.15812e-06
1.15765e-06
1.15708e-06
1.15645e-06
1.15583e-06
1.15599e-06
1.15728e-06
1.15942e-06
1.1621e-06
1.16499e-06
1.16779e-06
1.1703e-06
1.17233e-06
1.1738e-06
1.17465e-06
1.17492e-06
1.17465e-06
1.17397e-06
1.17321e-06
1.17244e-06
1.17166e-06
1.17085e-06
1.17003e-06
1.16917e-06
1.16828e-06
1.16733e-06
1.1663e-06
1.16525e-06
1.16436e-06
1.16362e-06
1.16297e-06
1.16235e-06
1.16167e-06
1.16082e-06
1.15971e-06
1.15828e-06
1.15652e-06
1.15445e-06
1.15216e-06
1.14976e-06
1.14738e-06
1.14521e-06
1.14344e-06
1.14213e-06
1.1413e-06
1.14091e-06
1.14082e-06
1.14075e-06
1.14034e-06
1.13927e-06
1.13716e-06
1.13416e-06
1.131e-06
1.12787e-06
1.12484e-06
1.12195e-06
1.11933e-06
1.11699e-06
1.11497e-06
1.11326e-06
1.11177e-06
1.11024e-06
1.10842e-06
1.10631e-06
1.10396e-06
1.10142e-06
1.09883e-06
1.0967e-06
1.09586e-06
1.09626e-06
1.09777e-06
1.10029e-06
1.10375e-06
1.10812e-06
1.11349e-06
1.11985e-06
1.12703e-06
1.13479e-06
1.14277e-06
1.15065e-06
1.15796e-06
1.16416e-06
1.1689e-06
1.17178e-06
1.17272e-06
1.1719e-06
1.17043e-06
1.16886e-06
1.16713e-06
1.16519e-06
1.16311e-06
1.16105e-06
1.15912e-06
1.15732e-06
1.15564e-06
1.15411e-06
1.1527e-06
1.15137e-06
1.15001e-06
1.14865e-06
1.14734e-06
1.14607e-06
1.14475e-06
1.14336e-06
1.14189e-06
1.14034e-06
1.13872e-06
1.13711e-06
1.13602e-06
1.13616e-06
1.13728e-06
1.13947e-06
1.14185e-06
3.90728e-07
4.01182e-07
4.02218e-07
4.02503e-07
4.02206e-07
4.01427e-07
4.00387e-07
3.9938e-07
3.98743e-07
3.98802e-07
3.997e-07
4.00732e-07
4.01802e-07
4.02918e-07
4.04087e-07
4.05306e-07
4.06567e-07
4.0786e-07
4.09166e-07
4.10472e-07
4.11774e-07
4.1307e-07
4.14372e-07
4.15706e-07
4.171e-07
4.18586e-07
4.20191e-07
4.21942e-07
4.23872e-07
4.25975e-07
4.28243e-07
4.30654e-07
4.33163e-07
4.3568e-07
4.38164e-07
4.40555e-07
4.42803e-07
4.44903e-07
4.46603e-07
4.47666e-07
4.48136e-07
4.48005e-07
4.47155e-07
4.45456e-07
4.42813e-07
4.3918e-07
4.34602e-07
4.29244e-07
4.23389e-07
4.17358e-07
4.11553e-07
4.06353e-07
4.02092e-07
3.99016e-07
3.97262e-07
3.96853e-07
3.97024e-07
3.97193e-07
3.97368e-07
3.9756e-07
3.97816e-07
3.9811e-07
3.9845e-07
3.98839e-07
3.99276e-07
3.99761e-07
4.00292e-07
4.00874e-07
4.01464e-07
4.01833e-07
4.02017e-07
4.02093e-07
4.02134e-07
4.02211e-07
4.02393e-07
4.02746e-07
4.03333e-07
4.04222e-07
4.0538e-07
4.06636e-07
4.08006e-07
4.09505e-07
4.1114e-07
4.12912e-07
4.14817e-07
4.16841e-07
4.18973e-07
4.21224e-07
4.23582e-07
4.26063e-07
4.28725e-07
4.31586e-07
4.34671e-07
4.3803e-07
4.41694e-07
4.45682e-07
4.5005e-07
4.54784e-07
4.59794e-07
4.65001e-07
4.70266e-07
4.75351e-07
4.79483e-07
4.81544e-07
4.81298e-07
4.78793e-07
4.74242e-07
4.68059e-07
4.60787e-07
4.52921e-07
4.45086e-07
4.37777e-07
4.31356e-07
4.26104e-07
4.22207e-07
4.19761e-07
4.18769e-07
4.19273e-07
4.20773e-07
4.22359e-07
4.24041e-07
4.25853e-07
4.2785e-07
4.30055e-07
4.32506e-07
4.35256e-07
4.38342e-07
4.41808e-07
4.45624e-07
4.49757e-07
4.54139e-07
4.58637e-07
4.63049e-07
4.6723e-07
4.7104e-07
4.74347e-07
4.77022e-07
4.78137e-07
4.77473e-07
4.75155e-07
4.71526e-07
4.66937e-07
4.61697e-07
4.56074e-07
4.50315e-07
4.44576e-07
4.3896e-07
4.33556e-07
4.28414e-07
4.23573e-07
4.18995e-07
4.14638e-07
4.10528e-07
4.0674e-07
4.03392e-07
4.00655e-07
3.98712e-07
3.97713e-07
3.97853e-07
3.98691e-07
3.99559e-07
4.00426e-07
4.01394e-07
4.0237e-07
3.81854e-07
3.91396e-07
3.91626e-07
3.91651e-07
3.91663e-07
3.91693e-07
3.91747e-07
3.91823e-07
3.91909e-07
3.91994e-07
3.92063e-07
3.92102e-07
3.92104e-07
3.92074e-07
3.92021e-07
3.91959e-07
3.91902e-07
3.9186e-07
3.91844e-07
3.91859e-07
3.91908e-07
3.91989e-07
3.92095e-07
3.92215e-07
3.92335e-07
3.92443e-07
3.92532e-07
3.9261e-07
3.92692e-07
3.92779e-07
3.92881e-07
3.93006e-07
3.93152e-07
3.93311e-07
3.93473e-07
3.93629e-07
3.93769e-07
3.93891e-07
3.93975e-07
3.94e-07
3.93966e-07
3.93869e-07
3.93699e-07
3.93454e-07
3.93143e-07
3.92784e-07
3.92407e-07
3.92053e-07
3.91766e-07
3.91577e-07
3.91497e-07
3.91515e-07
3.91601e-07
3.91718e-07
3.91829e-07
3.91913e-07
3.91956e-07
3.91956e-07
3.91925e-07
3.91875e-07
3.91818e-07
3.91757e-07
3.91701e-07
3.91656e-07
3.91622e-07
3.91599e-07
3.91586e-07
3.91582e-07
3.91585e-07
3.91591e-07
3.91597e-07
3.91603e-07
3.91608e-07
3.91611e-07
3.91614e-07
3.91616e-07
3.91619e-07
3.91623e-07
3.91631e-07
3.9164e-07
3.91654e-07
3.91675e-07
3.91704e-07
3.91744e-07
3.91796e-07
3.91862e-07
3.91942e-07
3.92046e-07
3.92171e-07
3.92322e-07
3.92507e-07
3.92725e-07
3.92978e-07
3.93272e-07
3.93602e-07
3.93966e-07
3.94383e-07
3.94859e-07
3.95384e-07
3.95938e-07
3.96513e-07
3.97086e-07
3.9754e-07
3.97707e-07
3.97538e-07
3.9706e-07
3.96368e-07
3.95575e-07
3.94797e-07
3.9413e-07
3.93659e-07
3.93406e-07
3.93348e-07
3.93445e-07
3.93639e-07
3.93878e-07
3.94124e-07
3.94353e-07
3.94537e-07
3.94652e-07
3.947e-07
3.9469e-07
3.94642e-07
3.94567e-07
3.94487e-07
3.94427e-07
3.94417e-07
3.94499e-07
3.94684e-07
3.94973e-07
3.95369e-07
3.95838e-07
3.96339e-07
3.96834e-07
3.97282e-07
3.97642e-07
3.97889e-07
3.97903e-07
3.97652e-07
3.97175e-07
3.96547e-07
3.95838e-07
3.95112e-07
3.94419e-07
3.93794e-07
3.93251e-07
3.92798e-07
3.9244e-07
3.9217e-07
3.91982e-07
3.91866e-07
3.91811e-07
3.91813e-07
3.91866e-07
3.91961e-07
3.92084e-07
3.92213e-07
3.9233e-07
3.9242e-07
3.92462e-07
3.92463e-07
3.92419e-07
3.92367e-07
3.92283e-07
3.81705e-07
3.91292e-07
3.91504e-07
3.91514e-07
3.91518e-07
3.9155e-07
3.91611e-07
3.91696e-07
3.91792e-07
3.91884e-07
3.91953e-07
3.91986e-07
3.91977e-07
3.91926e-07
3.91843e-07
3.9174e-07
3.91633e-07
3.91537e-07
3.91464e-07
3.91424e-07
3.91423e-07
3.91463e-07
3.91536e-07
3.9163e-07
3.91728e-07
3.91812e-07
3.9187e-07
3.91905e-07
3.9193e-07
3.91944e-07
3.91953e-07
3.91965e-07
3.91983e-07
3.92002e-07
3.92017e-07
3.92022e-07
3.92017e-07
3.91999e-07
3.91967e-07
3.91918e-07
3.91849e-07
3.91756e-07
3.91638e-07
3.91498e-07
3.91345e-07
3.91192e-07
3.91061e-07
3.9097e-07
3.90938e-07
3.90974e-07
3.91075e-07
3.91224e-07
3.91399e-07
3.91573e-07
3.91724e-07
3.91836e-07
3.91901e-07
3.91922e-07
3.91907e-07
3.91866e-07
3.91813e-07
3.91752e-07
3.91692e-07
3.91638e-07
3.91594e-07
3.91559e-07
3.91533e-07
3.91515e-07
3.91504e-07
3.91497e-07
3.91494e-07
3.91491e-07
3.91486e-07
3.91478e-07
3.91466e-07
3.91449e-07
3.91427e-07
3.91399e-07
3.91365e-07
3.91329e-07
3.91292e-07
3.91256e-07
3.91222e-07
3.91192e-07
3.91168e-07
3.91152e-07
3.91147e-07
3.91155e-07
3.9118e-07
3.91223e-07
3.91284e-07
3.91365e-07
3.91465e-07
3.91582e-07
3.91714e-07
3.91844e-07
3.91977e-07
3.92114e-07
3.92251e-07
3.92367e-07
3.92452e-07
3.92501e-07
3.92485e-07
3.92376e-07
3.9218e-07
3.91919e-07
3.91646e-07
3.91422e-07
3.91284e-07
3.91248e-07
3.91338e-07
3.91545e-07
3.9184e-07
3.92189e-07
3.92548e-07
3.92882e-07
3.9317e-07
3.93393e-07
3.9354e-07
3.93616e-07
3.93619e-07
3.93558e-07
3.93442e-07
3.93284e-07
3.93106e-07
3.92925e-07
3.92772e-07
3.92677e-07
3.92652e-07
3.92692e-07
3.928e-07
3.92956e-07
3.93135e-07
3.93303e-07
3.93431e-07
3.93491e-07
3.93474e-07
3.93358e-07
3.93153e-07
3.92883e-07
3.92578e-07
3.92267e-07
3.91976e-07
3.91721e-07
3.91511e-07
3.9135e-07
3.91238e-07
3.91175e-07
3.91153e-07
3.91167e-07
3.91217e-07
3.91294e-07
3.91401e-07
3.91531e-07
3.91681e-07
3.91841e-07
3.91995e-07
3.9213e-07
3.92236e-07
3.92289e-07
3.92307e-07
3.92272e-07
3.92221e-07
3.92129e-07
3.81591e-07
3.91255e-07
3.91464e-07
3.91465e-07
3.9146e-07
3.91487e-07
3.9155e-07
3.91643e-07
3.91753e-07
3.9186e-07
3.91946e-07
3.91993e-07
3.91994e-07
3.91945e-07
3.91857e-07
3.91741e-07
3.91616e-07
3.91499e-07
3.91407e-07
3.91352e-07
3.91343e-07
3.91385e-07
3.91471e-07
3.91585e-07
3.9171e-07
3.91824e-07
3.91913e-07
3.91972e-07
3.92013e-07
3.92033e-07
3.9204e-07
3.92041e-07
3.9204e-07
3.92035e-07
3.92021e-07
3.91999e-07
3.91966e-07
3.91922e-07
3.91869e-07
3.91804e-07
3.91722e-07
3.91621e-07
3.91497e-07
3.91352e-07
3.91192e-07
3.91034e-07
3.90898e-07
3.90806e-07
3.90777e-07
3.90821e-07
3.90936e-07
3.91107e-07
3.91307e-07
3.91511e-07
3.91693e-07
3.91834e-07
3.91924e-07
3.91965e-07
3.91962e-07
3.91926e-07
3.91871e-07
3.91806e-07
3.91739e-07
3.91675e-07
3.91621e-07
3.91577e-07
3.91543e-07
3.9152e-07
3.91505e-07
3.91495e-07
3.9149e-07
3.91485e-07
3.91477e-07
3.91465e-07
3.91447e-07
3.91422e-07
3.91392e-07
3.91355e-07
3.91314e-07
3.91268e-07
3.9122e-07
3.91173e-07
3.91129e-07
3.91088e-07
3.91055e-07
3.9103e-07
3.91019e-07
3.91025e-07
3.91051e-07
3.91101e-07
3.91174e-07
3.91268e-07
3.91385e-07
3.91518e-07
3.91666e-07
3.91819e-07
3.91962e-07
3.92099e-07
3.92221e-07
3.92314e-07
3.92358e-07
3.92342e-07
3.92252e-07
3.92082e-07
3.91844e-07
3.91571e-07
3.91304e-07
3.911e-07
3.90994e-07
3.90994e-07
3.91123e-07
3.91369e-07
3.91705e-07
3.92093e-07
3.92492e-07
3.92864e-07
3.93189e-07
3.93449e-07
3.93632e-07
3.9374e-07
3.93776e-07
3.93749e-07
3.93662e-07
3.93525e-07
3.93358e-07
3.93179e-07
3.93015e-07
3.92897e-07
3.92838e-07
3.92838e-07
3.92895e-07
3.92993e-07
3.93109e-07
3.93208e-07
3.93265e-07
3.93256e-07
3.93174e-07
3.93009e-07
3.92778e-07
3.92502e-07
3.92207e-07
3.91917e-07
3.91654e-07
3.91429e-07
3.91253e-07
3.91124e-07
3.91043e-07
3.91011e-07
3.91017e-07
3.91054e-07
3.91124e-07
3.91224e-07
3.91352e-07
3.91504e-07
3.91677e-07
3.91861e-07
3.92039e-07
3.92197e-07
3.92324e-07
3.92392e-07
3.9242e-07
3.92388e-07
3.92332e-07
3.92231e-07
3.81453e-07
3.91214e-07
3.91422e-07
3.91412e-07
3.91397e-07
3.91419e-07
3.91484e-07
3.91587e-07
3.91712e-07
3.91839e-07
3.91945e-07
3.92009e-07
3.9202e-07
3.91975e-07
3.9188e-07
3.9175e-07
3.91605e-07
3.91466e-07
3.91352e-07
3.91282e-07
3.91267e-07
3.91314e-07
3.91417e-07
3.91558e-07
3.91715e-07
3.91865e-07
3.91988e-07
3.92075e-07
3.92136e-07
3.92167e-07
3.92173e-07
3.92165e-07
3.92145e-07
3.92117e-07
3.92078e-07
3.9203e-07
3.91973e-07
3.9191e-07
3.9184e-07
3.91762e-07
3.9167e-07
3.91558e-07
3.91424e-07
3.91265e-07
3.91091e-07
3.90918e-07
3.90768e-07
3.90665e-07
3.90631e-07
3.90678e-07
3.90805e-07
3.90995e-07
3.91223e-07
3.91458e-07
3.91673e-07
3.91844e-07
3.9196e-07
3.92019e-07
3.92027e-07
3.91994e-07
3.91935e-07
3.91864e-07
3.91788e-07
3.91713e-07
3.91648e-07
3.91594e-07
3.91553e-07
3.91524e-07
3.91505e-07
3.91492e-07
3.91484e-07
3.91477e-07
3.91466e-07
3.91451e-07
3.91428e-07
3.91397e-07
3.91358e-07
3.91313e-07
3.91262e-07
3.91209e-07
3.91152e-07
3.91095e-07
3.91042e-07
3.90991e-07
3.9095e-07
3.9092e-07
3.90904e-07
3.90909e-07
3.90938e-07
3.90997e-07
3.91087e-07
3.91205e-07
3.91349e-07
3.91517e-07
3.917e-07
3.91893e-07
3.92079e-07
3.92245e-07
3.92384e-07
3.92483e-07
3.92523e-07
3.92487e-07
3.9236e-07
3.92147e-07
3.91863e-07
3.91544e-07
3.91239e-07
3.91003e-07
3.90874e-07
3.90864e-07
3.90995e-07
3.91258e-07
3.91614e-07
3.92014e-07
3.9243e-07
3.92833e-07
3.93187e-07
3.93483e-07
3.93704e-07
3.93853e-07
3.93926e-07
3.93938e-07
3.93894e-07
3.938e-07
3.9367e-07
3.9352e-07
3.93374e-07
3.93263e-07
3.93201e-07
3.93187e-07
3.93218e-07
3.93282e-07
3.93359e-07
3.93416e-07
3.93429e-07
3.93374e-07
3.93247e-07
3.93041e-07
3.92774e-07
3.92467e-07
3.92146e-07
3.91837e-07
3.91559e-07
3.91325e-07
3.91144e-07
3.91014e-07
3.90934e-07
3.90906e-07
3.90915e-07
3.90951e-07
3.9102e-07
3.91121e-07
3.91251e-07
3.91406e-07
3.91584e-07
3.91779e-07
3.91972e-07
3.92149e-07
3.92299e-07
3.92389e-07
3.92436e-07
3.92416e-07
3.92365e-07
3.92262e-07
3.81291e-07
3.91166e-07
3.91375e-07
3.91352e-07
3.91326e-07
3.91344e-07
3.91412e-07
3.91526e-07
3.9167e-07
3.9182e-07
3.91949e-07
3.92032e-07
3.92056e-07
3.92014e-07
3.91912e-07
3.91765e-07
3.91596e-07
3.91431e-07
3.91295e-07
3.91208e-07
3.91187e-07
3.91241e-07
3.91363e-07
3.91534e-07
3.91729e-07
3.91919e-07
3.92079e-07
3.92197e-07
3.92278e-07
3.92318e-07
3.92323e-07
3.92301e-07
3.92262e-07
3.92207e-07
3.9214e-07
3.92063e-07
3.91981e-07
3.91897e-07
3.91811e-07
3.91721e-07
3.91619e-07
3.91499e-07
3.91353e-07
3.91181e-07
3.90991e-07
3.90801e-07
3.90635e-07
3.90522e-07
3.90484e-07
3.90536e-07
3.90677e-07
3.90891e-07
3.91149e-07
3.91418e-07
3.91667e-07
3.91869e-07
3.9201e-07
3.92086e-07
3.92103e-07
3.92073e-07
3.92008e-07
3.91926e-07
3.91839e-07
3.91753e-07
3.91676e-07
3.91612e-07
3.91562e-07
3.91526e-07
3.91503e-07
3.91488e-07
3.91479e-07
3.9147e-07
3.91458e-07
3.91438e-07
3.91411e-07
3.91374e-07
3.91328e-07
3.91273e-07
3.91213e-07
3.9115e-07
3.91084e-07
3.91018e-07
3.90955e-07
3.90895e-07
3.90846e-07
3.90808e-07
3.90787e-07
3.90789e-07
3.90822e-07
3.90889e-07
3.90996e-07
3.91137e-07
3.91311e-07
3.91515e-07
3.91738e-07
3.91969e-07
3.92197e-07
3.92402e-07
3.92565e-07
3.92673e-07
3.92711e-07
3.92662e-07
3.92504e-07
3.92249e-07
3.91914e-07
3.91544e-07
3.91193e-07
3.9092e-07
3.90767e-07
3.90749e-07
3.90884e-07
3.91161e-07
3.91542e-07
3.91983e-07
3.92434e-07
3.92857e-07
3.93239e-07
3.93577e-07
3.93834e-07
3.94028e-07
3.9414e-07
3.94189e-07
3.94182e-07
3.94127e-07
3.94031e-07
3.93906e-07
3.93775e-07
3.93668e-07
3.93599e-07
3.93568e-07
3.93572e-07
3.936e-07
3.93634e-07
3.93644e-07
3.93607e-07
3.935e-07
3.93325e-07
3.93072e-07
3.92765e-07
3.92422e-07
3.92072e-07
3.9174e-07
3.91444e-07
3.912e-07
3.91015e-07
3.90884e-07
3.90809e-07
3.90788e-07
3.90806e-07
3.90848e-07
3.90923e-07
3.91033e-07
3.91175e-07
3.91343e-07
3.91539e-07
3.91754e-07
3.9197e-07
3.92171e-07
3.92347e-07
3.92459e-07
3.92523e-07
3.9251e-07
3.92458e-07
3.92347e-07
3.81104e-07
3.91114e-07
3.91324e-07
3.91285e-07
3.91246e-07
3.91259e-07
3.91331e-07
3.91459e-07
3.91625e-07
3.91802e-07
3.91958e-07
3.92064e-07
3.92102e-07
3.92063e-07
3.91953e-07
3.91785e-07
3.91589e-07
3.91396e-07
3.91233e-07
3.91128e-07
3.91101e-07
3.91163e-07
3.91308e-07
3.91515e-07
3.91753e-07
3.91989e-07
3.92191e-07
3.92343e-07
3.92445e-07
3.92493e-07
3.92493e-07
3.92456e-07
3.92391e-07
3.92306e-07
3.92206e-07
3.92097e-07
3.91988e-07
3.91882e-07
3.91779e-07
3.91677e-07
3.91568e-07
3.9144e-07
3.91285e-07
3.911e-07
3.90894e-07
3.90685e-07
3.90503e-07
3.90377e-07
3.90336e-07
3.90394e-07
3.90551e-07
3.90791e-07
3.91083e-07
3.91389e-07
3.91675e-07
3.91909e-07
3.92075e-07
3.92168e-07
3.92192e-07
3.92161e-07
3.9209e-07
3.91994e-07
3.91892e-07
3.91792e-07
3.91702e-07
3.91626e-07
3.91567e-07
3.91526e-07
3.915e-07
3.91484e-07
3.91474e-07
3.91465e-07
3.91451e-07
3.91428e-07
3.91395e-07
3.91352e-07
3.91298e-07
3.91235e-07
3.91164e-07
3.91092e-07
3.91017e-07
3.90941e-07
3.90868e-07
3.90798e-07
3.9074e-07
3.90695e-07
3.90668e-07
3.90668e-07
3.90703e-07
3.90779e-07
3.90901e-07
3.91068e-07
3.91275e-07
3.91517e-07
3.91785e-07
3.92061e-07
3.9233e-07
3.92575e-07
3.9277e-07
3.92891e-07
3.92923e-07
3.92856e-07
3.9267e-07
3.92374e-07
3.91988e-07
3.91563e-07
3.9116e-07
3.90846e-07
3.90668e-07
3.90642e-07
3.90784e-07
3.9108e-07
3.91488e-07
3.91962e-07
3.92456e-07
3.9293e-07
3.93347e-07
3.93698e-07
3.93996e-07
3.94231e-07
3.94399e-07
3.94485e-07
3.94525e-07
3.94509e-07
3.94448e-07
3.94348e-07
3.9423e-07
3.94125e-07
3.94051e-07
3.93996e-07
3.93967e-07
3.93955e-07
3.93941e-07
3.93899e-07
3.93808e-07
3.93647e-07
3.9342e-07
3.93118e-07
3.92766e-07
3.92385e-07
3.92003e-07
3.91648e-07
3.91332e-07
3.91076e-07
3.90888e-07
3.90758e-07
3.90686e-07
3.90673e-07
3.90701e-07
3.90747e-07
3.90824e-07
3.90937e-07
3.91086e-07
3.91263e-07
3.9147e-07
3.91701e-07
3.91939e-07
3.92165e-07
3.92368e-07
3.92505e-07
3.92589e-07
3.92583e-07
3.9253e-07
3.92411e-07
3.80888e-07
3.91059e-07
3.91268e-07
3.91209e-07
3.91155e-07
3.91161e-07
3.91238e-07
3.91383e-07
3.91576e-07
3.91785e-07
3.91973e-07
3.92105e-07
3.9216e-07
3.92126e-07
3.92006e-07
3.91815e-07
3.91588e-07
3.91361e-07
3.91169e-07
3.91042e-07
3.91006e-07
3.9108e-07
3.91254e-07
3.91503e-07
3.91791e-07
3.92079e-07
3.9233e-07
3.92519e-07
3.92643e-07
3.92699e-07
3.92691e-07
3.92633e-07
3.92537e-07
3.92415e-07
3.92277e-07
3.92133e-07
3.91993e-07
3.91864e-07
3.91745e-07
3.91633e-07
3.91518e-07
3.91385e-07
3.91222e-07
3.91025e-07
3.90801e-07
3.90573e-07
3.90372e-07
3.90234e-07
3.90188e-07
3.90253e-07
3.90429e-07
3.90697e-07
3.91025e-07
3.91372e-07
3.91696e-07
3.91964e-07
3.92155e-07
3.92264e-07
3.92294e-07
3.9226e-07
3.92179e-07
3.92069e-07
3.91948e-07
3.91831e-07
3.91725e-07
3.91637e-07
3.9157e-07
3.91524e-07
3.91496e-07
3.9148e-07
3.9147e-07
3.91461e-07
3.91445e-07
3.9142e-07
3.91382e-07
3.91332e-07
3.9127e-07
3.91197e-07
3.91117e-07
3.91034e-07
3.9095e-07
3.90864e-07
3.9078e-07
3.90702e-07
3.90635e-07
3.90581e-07
3.90547e-07
3.90543e-07
3.90581e-07
3.90666e-07
3.90805e-07
3.90999e-07
3.91243e-07
3.91528e-07
3.91846e-07
3.92175e-07
3.92492e-07
3.92777e-07
3.93008e-07
3.93149e-07
3.93179e-07
3.93088e-07
3.92866e-07
3.92523e-07
3.92084e-07
3.91602e-07
3.91145e-07
3.90787e-07
3.9058e-07
3.90547e-07
3.907e-07
3.91019e-07
3.91461e-07
3.91973e-07
3.92507e-07
3.93024e-07
3.93494e-07
3.93899e-07
3.94216e-07
3.94486e-07
3.94718e-07
3.94842e-07
3.94943e-07
3.94969e-07
3.94946e-07
3.94871e-07
3.94767e-07
3.94659e-07
3.94562e-07
3.94481e-07
3.94417e-07
3.94359e-07
3.94292e-07
3.94192e-07
3.9404e-07
3.93819e-07
3.93534e-07
3.93177e-07
3.92777e-07
3.92354e-07
3.91939e-07
3.91556e-07
3.9122e-07
3.90951e-07
3.90757e-07
3.90628e-07
3.90562e-07
3.90561e-07
3.90595e-07
3.90651e-07
3.90732e-07
3.90843e-07
3.91e-07
3.91189e-07
3.91412e-07
3.91664e-07
3.91926e-07
3.9218e-07
3.92416e-07
3.9258e-07
3.92687e-07
3.9269e-07
3.92635e-07
3.92502e-07
3.80637e-07
3.90997e-07
3.91208e-07
3.91124e-07
3.91052e-07
3.9105e-07
3.91134e-07
3.91298e-07
3.91523e-07
3.9177e-07
3.91996e-07
3.9216e-07
3.92235e-07
3.92205e-07
3.92073e-07
3.91856e-07
3.91593e-07
3.91329e-07
3.91102e-07
3.90953e-07
3.9091e-07
3.90997e-07
3.91203e-07
3.91501e-07
3.91848e-07
3.92196e-07
3.92502e-07
3.92733e-07
3.92879e-07
3.92941e-07
3.92922e-07
3.92837e-07
3.92704e-07
3.92538e-07
3.92355e-07
3.9217e-07
3.91996e-07
3.91842e-07
3.91708e-07
3.91588e-07
3.91469e-07
3.91333e-07
3.91165e-07
3.90956e-07
3.90715e-07
3.90466e-07
3.90245e-07
3.90092e-07
3.90042e-07
3.90113e-07
3.90309e-07
3.90609e-07
3.90978e-07
3.91367e-07
3.91733e-07
3.92037e-07
3.92254e-07
3.92378e-07
3.92413e-07
3.92373e-07
3.92278e-07
3.9215e-07
3.92009e-07
3.91871e-07
3.91747e-07
3.91646e-07
3.9157e-07
3.9152e-07
3.91492e-07
3.91476e-07
3.91466e-07
3.91457e-07
3.91441e-07
3.91412e-07
3.9137e-07
3.91313e-07
3.91242e-07
3.9116e-07
3.9107e-07
3.90976e-07
3.90883e-07
3.90787e-07
3.90693e-07
3.90606e-07
3.90529e-07
3.90466e-07
3.90425e-07
3.90416e-07
3.90456e-07
3.90551e-07
3.90708e-07
3.90932e-07
3.91216e-07
3.91552e-07
3.91926e-07
3.92314e-07
3.92691e-07
3.93025e-07
3.93289e-07
3.93454e-07
3.93487e-07
3.93372e-07
3.93108e-07
3.92707e-07
3.92207e-07
3.91662e-07
3.91148e-07
3.90743e-07
3.90506e-07
3.90467e-07
3.90633e-07
3.9098e-07
3.91459e-07
3.92015e-07
3.92597e-07
3.93158e-07
3.9367e-07
3.94121e-07
3.94513e-07
3.94837e-07
3.95072e-07
3.95288e-07
3.95428e-07
3.95501e-07
3.95511e-07
3.95467e-07
3.95384e-07
3.95278e-07
3.95164e-07
3.9505e-07
3.9494e-07
3.94827e-07
3.94697e-07
3.9453e-07
3.9431e-07
3.94022e-07
3.93672e-07
3.93256e-07
3.92803e-07
3.92335e-07
3.91883e-07
3.91469e-07
3.9111e-07
3.90824e-07
3.90623e-07
3.90495e-07
3.90437e-07
3.90448e-07
3.90489e-07
3.90554e-07
3.90642e-07
3.90753e-07
3.9091e-07
3.91111e-07
3.91346e-07
3.91618e-07
3.91908e-07
3.92191e-07
3.92463e-07
3.92659e-07
3.9279e-07
3.92804e-07
3.92746e-07
3.92602e-07
3.80343e-07
3.90925e-07
3.91143e-07
3.91032e-07
3.90936e-07
3.90925e-07
3.91015e-07
3.91204e-07
3.91466e-07
3.91758e-07
3.9203e-07
3.92233e-07
3.92333e-07
3.92309e-07
3.92163e-07
3.91916e-07
3.91612e-07
3.91302e-07
3.91035e-07
3.90862e-07
3.90817e-07
3.90915e-07
3.91156e-07
3.91511e-07
3.91927e-07
3.92347e-07
3.92716e-07
3.92995e-07
3.93165e-07
3.9323e-07
3.93194e-07
3.93074e-07
3.92894e-07
3.92676e-07
3.92439e-07
3.92207e-07
3.91996e-07
3.91815e-07
3.91667e-07
3.91542e-07
3.91423e-07
3.91287e-07
3.91115e-07
3.90895e-07
3.90637e-07
3.90366e-07
3.90122e-07
3.89952e-07
3.89896e-07
3.89976e-07
3.90193e-07
3.9053e-07
3.90943e-07
3.9138e-07
3.9179e-07
3.92132e-07
3.92377e-07
3.92515e-07
3.92552e-07
3.92502e-07
3.9239e-07
3.92239e-07
3.92074e-07
3.91913e-07
3.9177e-07
3.91653e-07
3.91567e-07
3.91512e-07
3.91483e-07
3.9147e-07
3.91462e-07
3.91454e-07
3.91437e-07
3.91407e-07
3.9136e-07
3.91296e-07
3.91216e-07
3.91124e-07
3.91023e-07
3.90918e-07
3.90814e-07
3.90708e-07
3.90604e-07
3.90508e-07
3.90421e-07
3.90349e-07
3.903e-07
3.90287e-07
3.90327e-07
3.90432e-07
3.9061e-07
3.90867e-07
3.91198e-07
3.91591e-07
3.92029e-07
3.92487e-07
3.9293e-07
3.93322e-07
3.93628e-07
3.93815e-07
3.93851e-07
3.93715e-07
3.93405e-07
3.92937e-07
3.92366e-07
3.91747e-07
3.91171e-07
3.90715e-07
3.90447e-07
3.90402e-07
3.90585e-07
3.90965e-07
3.91487e-07
3.92094e-07
3.92728e-07
3.9334e-07
3.93905e-07
3.94404e-07
3.94839e-07
3.95215e-07
3.95545e-07
3.95805e-07
3.96014e-07
3.96134e-07
3.96186e-07
3.96175e-07
3.96108e-07
3.95997e-07
3.9586e-07
3.95706e-07
3.95543e-07
3.95364e-07
3.95162e-07
3.94918e-07
3.94618e-07
3.94257e-07
3.93832e-07
3.93351e-07
3.9284e-07
3.92321e-07
3.91829e-07
3.91381e-07
3.90999e-07
3.90696e-07
3.90483e-07
3.90354e-07
3.90308e-07
3.90331e-07
3.90379e-07
3.90452e-07
3.90551e-07
3.9067e-07
3.9082e-07
3.91026e-07
3.91276e-07
3.91574e-07
3.91895e-07
3.92214e-07
3.92528e-07
3.9276e-07
3.92921e-07
3.92947e-07
3.92883e-07
3.92712e-07
3.79998e-07
3.90841e-07
3.91072e-07
3.90932e-07
3.90811e-07
3.90788e-07
3.90886e-07
3.91103e-07
3.91409e-07
3.91755e-07
3.92082e-07
3.92331e-07
3.92462e-07
3.92447e-07
3.92284e-07
3.92001e-07
3.91647e-07
3.91283e-07
3.90971e-07
3.90765e-07
3.90707e-07
3.90825e-07
3.91114e-07
3.91537e-07
3.92036e-07
3.92541e-07
3.92984e-07
3.93317e-07
3.93514e-07
3.93579e-07
3.93518e-07
3.93353e-07
3.93114e-07
3.92831e-07
3.92531e-07
3.92243e-07
3.91989e-07
3.91781e-07
3.91619e-07
3.91492e-07
3.91377e-07
3.91247e-07
3.91074e-07
3.90846e-07
3.9057e-07
3.90275e-07
3.90007e-07
3.89818e-07
3.89756e-07
3.89843e-07
3.90087e-07
3.90464e-07
3.90927e-07
3.91416e-07
3.91877e-07
3.92259e-07
3.92532e-07
3.92683e-07
3.92717e-07
3.92653e-07
3.92518e-07
3.9234e-07
3.92145e-07
3.91957e-07
3.91792e-07
3.91658e-07
3.91562e-07
3.91502e-07
3.91473e-07
3.91463e-07
3.91459e-07
3.91453e-07
3.91436e-07
3.91403e-07
3.91352e-07
3.9128e-07
3.91191e-07
3.91088e-07
3.90976e-07
3.90859e-07
3.90742e-07
3.90625e-07
3.90509e-07
3.90402e-07
3.90305e-07
3.90222e-07
3.90163e-07
3.90146e-07
3.90187e-07
3.90305e-07
3.90508e-07
3.90803e-07
3.91187e-07
3.91648e-07
3.92164e-07
3.92702e-07
3.93224e-07
3.93688e-07
3.94048e-07
3.94266e-07
3.94304e-07
3.94145e-07
3.93782e-07
3.93234e-07
3.92579e-07
3.91873e-07
3.91221e-07
3.90711e-07
3.90408e-07
3.90357e-07
3.90561e-07
3.90977e-07
3.91553e-07
3.9222e-07
3.92919e-07
3.93594e-07
3.94226e-07
3.94786e-07
3.95297e-07
3.9575e-07
3.96131e-07
3.96446e-07
3.96699e-07
3.9688e-07
3.96985e-07
3.97004e-07
3.96952e-07
3.96835e-07
3.96669e-07
3.96467e-07
3.96241e-07
3.95987e-07
3.95701e-07
3.95371e-07
3.94982e-07
3.94541e-07
3.94032e-07
3.93481e-07
3.92905e-07
3.92332e-07
3.91794e-07
3.91306e-07
3.90894e-07
3.9057e-07
3.90341e-07
3.90207e-07
3.90174e-07
3.90207e-07
3.90265e-07
3.90348e-07
3.90458e-07
3.9059e-07
3.90752e-07
3.90957e-07
3.91212e-07
3.91531e-07
3.91885e-07
3.9224e-07
3.92602e-07
3.92877e-07
3.93072e-07
3.93115e-07
3.93048e-07
3.92841e-07
3.79596e-07
3.90735e-07
3.90979e-07
3.90804e-07
3.90655e-07
3.90621e-07
3.90732e-07
3.90983e-07
3.91345e-07
3.9176e-07
3.92159e-07
3.92472e-07
3.92644e-07
3.9264e-07
3.9245e-07
3.92119e-07
3.91701e-07
3.91266e-07
3.90889e-07
3.90638e-07
3.90567e-07
3.9071e-07
3.91058e-07
3.91565e-07
3.92163e-07
3.92772e-07
3.9331e-07
3.93712e-07
3.93943e-07
3.94006e-07
3.93913e-07
3.9369e-07
3.93376e-07
3.93007e-07
3.92628e-07
3.92273e-07
3.91969e-07
3.91731e-07
3.91556e-07
3.91429e-07
3.91321e-07
3.91197e-07
3.91026e-07
3.9079e-07
3.90495e-07
3.90175e-07
3.89882e-07
3.89676e-07
3.89609e-07
3.89709e-07
3.89984e-07
3.90407e-07
3.90926e-07
3.91475e-07
3.91989e-07
3.92415e-07
3.92719e-07
3.92885e-07
3.92917e-07
3.92835e-07
3.9267e-07
3.92455e-07
3.92223e-07
3.92002e-07
3.91808e-07
3.91656e-07
3.9155e-07
3.91486e-07
3.91455e-07
3.9145e-07
3.91451e-07
3.91448e-07
3.91433e-07
3.91399e-07
3.91343e-07
3.91264e-07
3.91165e-07
3.91051e-07
3.90928e-07
3.90803e-07
3.90675e-07
3.90546e-07
3.90419e-07
3.90301e-07
3.9019e-07
3.90091e-07
3.90017e-07
3.89987e-07
3.90022e-07
3.90146e-07
3.90372e-07
3.90708e-07
3.91151e-07
3.9169e-07
3.92299e-07
3.9294e-07
3.93556e-07
3.94095e-07
3.94508e-07
3.94757e-07
3.94802e-07
3.94617e-07
3.94195e-07
3.93569e-07
3.92809e-07
3.92011e-07
3.91275e-07
3.90703e-07
3.90376e-07
3.9033e-07
3.90567e-07
3.91036e-07
3.9168e-07
3.92416e-07
3.9318e-07
3.93898e-07
3.94566e-07
3.95166e-07
3.95759e-07
3.96298e-07
3.96797e-07
3.97233e-07
3.97597e-07
3.97846e-07
3.97981e-07
3.98008e-07
3.97962e-07
3.97827e-07
3.97617e-07
3.9735e-07
3.97039e-07
3.96688e-07
3.96298e-07
3.95862e-07
3.95366e-07
3.94832e-07
3.94225e-07
3.93595e-07
3.92945e-07
3.92311e-07
3.91724e-07
3.91198e-07
3.90761e-07
3.9042e-07
3.90177e-07
3.90037e-07
3.9002e-07
3.90065e-07
3.90132e-07
3.90226e-07
3.90339e-07
3.90478e-07
3.90651e-07
3.90868e-07
3.91129e-07
3.91477e-07
3.91878e-07
3.92285e-07
3.9271e-07
3.93039e-07
3.93279e-07
3.93343e-07
3.93275e-07
3.93005e-07
3.79182e-07
3.9069e-07
3.90968e-07
3.90757e-07
3.90568e-07
3.905e-07
3.90592e-07
3.90848e-07
3.9124e-07
3.91709e-07
3.92179e-07
3.92568e-07
3.92808e-07
3.92852e-07
3.92688e-07
3.92357e-07
3.91906e-07
3.9141e-07
3.90963e-07
3.90651e-07
3.90536e-07
3.90661e-07
3.91027e-07
3.91592e-07
3.92276e-07
3.92983e-07
3.93618e-07
3.94101e-07
3.94389e-07
3.94477e-07
3.94377e-07
3.94119e-07
3.93742e-07
3.93291e-07
3.92815e-07
3.92369e-07
3.91988e-07
3.91695e-07
3.91492e-07
3.91363e-07
3.91273e-07
3.91177e-07
3.91033e-07
3.9081e-07
3.90514e-07
3.90176e-07
3.89852e-07
3.89611e-07
3.89512e-07
3.89594e-07
3.89867e-07
3.90305e-07
3.90857e-07
3.91453e-07
3.9202e-07
3.92502e-07
3.92853e-07
3.93051e-07
3.931e-07
3.9302e-07
3.92843e-07
3.92608e-07
3.92347e-07
3.92094e-07
3.91869e-07
3.91692e-07
3.91566e-07
3.91489e-07
3.91451e-07
3.91444e-07
3.91448e-07
3.91448e-07
3.91434e-07
3.91399e-07
3.91338e-07
3.91251e-07
3.91142e-07
3.91016e-07
3.90881e-07
3.90744e-07
3.90607e-07
3.90472e-07
3.90342e-07
3.90224e-07
3.90113e-07
3.90014e-07
3.89938e-07
3.89905e-07
3.89936e-07
3.90055e-07
3.90287e-07
3.90645e-07
3.91135e-07
3.91743e-07
3.92442e-07
3.93189e-07
3.93921e-07
3.94566e-07
3.95071e-07
3.95393e-07
3.9549e-07
3.95299e-07
3.94825e-07
3.9412e-07
3.93195e-07
3.92281e-07
3.9145e-07
3.90807e-07
3.90417e-07
3.90324e-07
3.90545e-07
3.91034e-07
3.91704e-07
3.92447e-07
3.93195e-07
3.93866e-07
3.94486e-07
3.95031e-07
3.9567e-07
3.9635e-07
3.97028e-07
3.97662e-07
3.98243e-07
3.98745e-07
3.99116e-07
3.99284e-07
3.99238e-07
3.99046e-07
3.98774e-07
3.98433e-07
3.98029e-07
3.97568e-07
3.97062e-07
3.96505e-07
3.95892e-07
3.95251e-07
3.94537e-07
3.93815e-07
3.93087e-07
3.9239e-07
3.91747e-07
3.91166e-07
3.90682e-07
3.90304e-07
3.90037e-07
3.899e-07
3.89868e-07
3.89916e-07
3.89993e-07
3.90096e-07
3.90225e-07
3.90381e-07
3.90571e-07
3.90826e-07
3.91123e-07
3.91506e-07
3.91931e-07
3.92362e-07
3.9283e-07
3.93209e-07
3.93493e-07
3.93575e-07
3.93518e-07
3.93206e-07
3.78912e-07
3.90679e-07
3.90975e-07
3.90732e-07
3.90511e-07
3.90423e-07
3.90515e-07
3.90796e-07
3.91238e-07
3.91768e-07
3.92291e-07
3.92741e-07
3.93018e-07
3.93074e-07
3.92898e-07
3.92534e-07
3.92054e-07
3.9154e-07
3.91069e-07
3.90724e-07
3.90595e-07
3.90739e-07
3.91161e-07
3.91811e-07
3.92594e-07
3.93391e-07
3.94086e-07
3.94584e-07
3.94853e-07
3.94902e-07
3.94741e-07
3.94414e-07
3.93969e-07
3.93452e-07
3.92914e-07
3.9241e-07
3.91982e-07
3.91658e-07
3.91445e-07
3.91324e-07
3.91253e-07
3.91178e-07
3.91049e-07
3.90834e-07
3.90534e-07
3.90178e-07
3.8983e-07
3.89564e-07
3.89447e-07
3.89525e-07
3.89813e-07
3.90285e-07
3.90885e-07
3.91545e-07
3.92172e-07
3.92694e-07
3.93058e-07
3.93247e-07
3.93275e-07
3.93166e-07
3.9296e-07
3.92694e-07
3.92408e-07
3.92132e-07
3.91891e-07
3.91701e-07
3.91566e-07
3.91484e-07
3.91446e-07
3.91442e-07
3.91451e-07
3.91456e-07
3.91445e-07
3.91411e-07
3.91349e-07
3.91258e-07
3.91144e-07
3.91011e-07
3.90867e-07
3.90721e-07
3.90575e-07
3.90436e-07
3.90307e-07
3.90189e-07
3.90078e-07
3.89979e-07
3.89905e-07
3.89876e-07
3.8992e-07
3.90064e-07
3.9034e-07
3.90762e-07
3.91333e-07
3.92037e-07
3.92842e-07
3.93688e-07
3.94493e-07
3.9519e-07
3.95712e-07
3.96012e-07
3.96059e-07
3.95828e-07
3.95309e-07
3.94536e-07
3.93511e-07
3.92532e-07
3.91614e-07
3.90877e-07
3.90417e-07
3.90281e-07
3.90452e-07
3.90907e-07
3.91494e-07
3.92054e-07
3.92418e-07
3.92438e-07
3.92151e-07
3.91884e-07
3.92595e-07
3.93965e-07
3.95409e-07
3.96716e-07
3.97849e-07
3.98806e-07
3.9955e-07
4.00066e-07
4.00326e-07
4.002e-07
3.99796e-07
3.99355e-07
3.98863e-07
3.98296e-07
3.97672e-07
3.97005e-07
3.96295e-07
3.95573e-07
3.94779e-07
3.9399e-07
3.93198e-07
3.92444e-07
3.91752e-07
3.91134e-07
3.90621e-07
3.90222e-07
3.89945e-07
3.89813e-07
3.89782e-07
3.89833e-07
3.89911e-07
3.90015e-07
3.90147e-07
3.90308e-07
3.90499e-07
3.90763e-07