/*--------------------------------*- C++ -*----------------------------------*\
| =========                 |                                                 |
| \\      /  F ield         | OpenFOAM: The Open Source CFD Toolbox           |
|  \\    /   O peration     | Version:  v1912                                 |
|   \\  /    A nd           | Website:  www.openfoam.com                      |
|    \\/     M anipulation  |                                                 |
\*---------------------------------------------------------------------------*/
FoamFile
{
    version     2.0;
    format      ascii;
    class       volSymmTensorField;
    location    "10";
    object      R;
}
// * * * * * * * * * * * * * * * * * * * * * * * * * * * * * * * * * * * * * //

dimensions      [0 2 -2 0 0 0 0];


internalField   nonuniform List<symmTensor> 
14268
(
(7.62875e-07 -1.28969e-07 0 7.88249e-07 0 7.75047e-07)
(7.63484e-07 -1.28771e-07 0 7.85369e-07 0 7.73636e-07)
(7.60684e-07 -1.28437e-07 0 7.86058e-07 0 7.72742e-07)
(7.59186e-07 -1.28146e-07 0 7.8518e-07 0 7.7151e-07)
(7.57249e-07 -1.27836e-07 0 7.84741e-07 0 7.70281e-07)
(7.55118e-07 -1.27536e-07 0 7.84483e-07 0 7.69031e-07)
(7.52898e-07 -1.2726e-07 0 7.84312e-07 0 7.67775e-07)
(7.5075e-07 -1.27016e-07 0 7.84045e-07 0 7.66515e-07)
(7.48839e-07 -1.26805e-07 0 7.83505e-07 0 7.65255e-07)
(7.47298e-07 -1.26621e-07 0 7.82593e-07 0 7.64019e-07)
(7.4629e-07 -1.26487e-07 0 7.81371e-07 0 7.62917e-07)
(7.46394e-07 -1.26509e-07 0 7.80291e-07 0 7.62467e-07)
(7.47678e-07 -1.26674e-07 0 7.79364e-07 0 7.62713e-07)
(7.49901e-07 -1.26929e-07 0 7.78502e-07 0 7.63486e-07)
(7.52686e-07 -1.27213e-07 0 7.77666e-07 0 7.64569e-07)
(7.5554e-07 -1.27463e-07 0 7.7689e-07 0 7.65715e-07)
(7.57993e-07 -1.27632e-07 0 7.76194e-07 0 7.66682e-07)
(7.59631e-07 -1.27684e-07 0 7.75613e-07 0 7.67267e-07)
(7.60229e-07 -1.27607e-07 0 7.7511e-07 0 7.67333e-07)
(7.59738e-07 -1.27415e-07 0 7.74655e-07 0 7.66841e-07)
(7.58375e-07 -1.27144e-07 0 7.74193e-07 0 7.65883e-07)
(7.56569e-07 -1.26846e-07 0 7.73651e-07 0 7.64649e-07)
(7.54965e-07 -1.26611e-07 0 7.72871e-07 0 7.63396e-07)
(7.53768e-07 -1.26491e-07 0 7.72196e-07 0 7.62414e-07)
(7.53423e-07 -1.26524e-07 0 7.71634e-07 0 7.61944e-07)
(7.54369e-07 -1.26743e-07 0 7.7104e-07 0 7.62149e-07)
(7.56864e-07 -1.27146e-07 0 7.70252e-07 0 7.63092e-07)
(7.6105e-07 -1.27705e-07 0 7.68993e-07 0 7.64705e-07)
(7.66934e-07 -1.28376e-07 0 7.67048e-07 0 7.6689e-07)
(7.7413e-07 -1.29089e-07 0 7.64496e-07 0 7.6949e-07)
(7.82081e-07 -1.29776e-07 0 7.61513e-07 0 7.72292e-07)
(7.90038e-07 -1.30374e-07 0 7.58486e-07 0 7.75074e-07)
(7.97399e-07 -1.30836e-07 0 7.5556e-07 0 7.77579e-07)
(8.03677e-07 -1.31132e-07 0 7.52848e-07 0 7.79601e-07)
(8.08557e-07 -1.31265e-07 0 7.50419e-07 0 7.81007e-07)
(8.11903e-07 -1.31248e-07 0 7.4831e-07 0 7.81746e-07)
(8.13631e-07 -1.3113e-07 0 7.4667e-07 0 7.81851e-07)
(8.14091e-07 -1.30942e-07 0 7.45253e-07 0 7.8139e-07)
(8.13799e-07 -1.30703e-07 0 7.43994e-07 0 7.80602e-07)
(8.12866e-07 -1.30436e-07 0 7.43348e-07 0 7.79783e-07)
(8.11338e-07 -1.30171e-07 0 7.4329e-07 0 7.78946e-07)
(8.09247e-07 -1.29899e-07 0 7.43793e-07 0 7.78091e-07)
(8.06545e-07 -1.29612e-07 0 7.44923e-07 0 7.77221e-07)
(8.03175e-07 -1.29308e-07 0 7.46771e-07 0 7.76344e-07)
(7.99099e-07 -1.28995e-07 0 7.49436e-07 0 7.75485e-07)
(7.94339e-07 -1.28688e-07 0 7.52979e-07 0 7.74679e-07)
(7.8898e-07 -1.28403e-07 0 7.57366e-07 0 7.73952e-07)
(7.83186e-07 -1.28161e-07 0 7.62462e-07 0 7.73328e-07)
(7.77198e-07 -1.27979e-07 0 7.68047e-07 0 7.72828e-07)
(7.714e-07 -1.27868e-07 0 7.73693e-07 0 7.72446e-07)
(7.66339e-07 -1.2782e-07 0 7.78558e-07 0 7.72083e-07)
(7.62139e-07 -1.27823e-07 0 7.82406e-07 0 7.71705e-07)
(7.58864e-07 -1.27861e-07 0 7.85143e-07 0 7.71302e-07)
(7.5652e-07 -1.27916e-07 0 7.86771e-07 0 7.70874e-07)
(7.55049e-07 -1.2797e-07 0 7.87413e-07 0 7.70441e-07)
(7.54308e-07 -1.28013e-07 0 7.87309e-07 0 7.70035e-07)
(7.54712e-07 -1.28188e-07 0 7.87092e-07 0 7.70167e-07)
(7.56461e-07 -1.28507e-07 0 7.87032e-07 0 7.71074e-07)
(7.59305e-07 -1.28926e-07 0 7.86982e-07 0 7.72555e-07)
(7.62903e-07 -1.29397e-07 0 7.86889e-07 0 7.74405e-07)
(7.66826e-07 -1.29862e-07 0 7.86746e-07 0 7.76401e-07)
(7.70696e-07 -1.30275e-07 0 7.86555e-07 0 7.7834e-07)
(7.74207e-07 -1.30615e-07 0 7.86326e-07 0 7.80064e-07)
(7.77117e-07 -1.30867e-07 0 7.86087e-07 0 7.81464e-07)
(7.79297e-07 -1.31028e-07 0 7.85831e-07 0 7.82469e-07)
(7.80724e-07 -1.311e-07 0 7.85528e-07 0 7.83057e-07)
(7.81467e-07 -1.31095e-07 0 7.85128e-07 0 7.83242e-07)
(7.81643e-07 -1.31025e-07 0 7.8459e-07 0 7.83064e-07)
(7.8141e-07 -1.30904e-07 0 7.83915e-07 0 7.8261e-07)
(7.81048e-07 -1.30782e-07 0 7.83271e-07 0 7.82105e-07)
(7.80633e-07 -1.30667e-07 0 7.82661e-07 0 7.81589e-07)
(7.80209e-07 -1.30559e-07 0 7.82042e-07 0 7.81063e-07)
(7.79821e-07 -1.30457e-07 0 7.81363e-07 0 7.80526e-07)
(7.79496e-07 -1.30359e-07 0 7.8059e-07 0 7.79975e-07)
(7.79286e-07 -1.30267e-07 0 7.79659e-07 0 7.79404e-07)
(7.79197e-07 -1.30175e-07 0 7.78552e-07 0 7.78807e-07)
(7.7892e-07 -1.30064e-07 0 7.77562e-07 0 7.78179e-07)
(7.78542e-07 -1.29938e-07 0 7.76558e-07 0 7.77498e-07)
(7.78099e-07 -1.29801e-07 0 7.7559e-07 0 7.76806e-07)
(7.77796e-07 -1.29698e-07 0 7.74701e-07 0 7.76225e-07)
(7.77496e-07 -1.296e-07 0 7.73998e-07 0 7.75742e-07)
(7.77171e-07 -1.29499e-07 0 7.7344e-07 0 7.75321e-07)
(7.76884e-07 -1.29398e-07 0 7.7289e-07 0 7.74924e-07)
(7.76522e-07 -1.29271e-07 0 7.72325e-07 0 7.74486e-07)
(7.76009e-07 -1.29104e-07 0 7.71693e-07 0 7.73933e-07)
(7.75295e-07 -1.28892e-07 0 7.70922e-07 0 7.73198e-07)
(7.74264e-07 -1.28631e-07 0 7.70047e-07 0 7.72245e-07)
(7.7288e-07 -1.2832e-07 0 7.69087e-07 0 7.71066e-07)
(7.71259e-07 -1.27976e-07 0 7.67966e-07 0 7.69676e-07)
(7.69498e-07 -1.27619e-07 0 7.66684e-07 0 7.68132e-07)
(7.6782e-07 -1.27279e-07 0 7.65178e-07 0 7.66525e-07)
(7.66511e-07 -1.26977e-07 0 7.6332e-07 0 7.64935e-07)
(7.65787e-07 -1.26749e-07 0 7.61136e-07 0 7.63492e-07)
(7.65788e-07 -1.26618e-07 0 7.58761e-07 0 7.62338e-07)
(7.66773e-07 -1.26572e-07 0 7.55986e-07 0 7.615e-07)
(7.68835e-07 -1.26613e-07 0 7.52764e-07 0 7.61005e-07)
(7.71747e-07 -1.26716e-07 0 7.49255e-07 0 7.60827e-07)
(7.75314e-07 -1.26823e-07 0 7.45457e-07 0 7.60868e-07)
(7.7908e-07 -1.26877e-07 0 7.41485e-07 0 7.60935e-07)
(7.82478e-07 -1.26812e-07 0 7.37439e-07 0 7.60769e-07)
(7.84651e-07 -1.26595e-07 0 7.3375e-07 0 7.60129e-07)
(7.85143e-07 -1.26215e-07 0 7.30414e-07 0 7.58756e-07)
(7.84422e-07 -1.25671e-07 0 7.27135e-07 0 7.56763e-07)
(7.82044e-07 -1.24962e-07 0 7.25308e-07 0 7.54647e-07)
(7.77752e-07 -1.24186e-07 0 7.25487e-07 0 7.52504e-07)
(7.71787e-07 -1.23434e-07 0 7.27507e-07 0 7.50382e-07)
(7.6433e-07 -1.22724e-07 0 7.31255e-07 0 7.48325e-07)
(7.55745e-07 -1.22087e-07 0 7.36515e-07 0 7.46408e-07)
(7.46416e-07 -1.21538e-07 0 7.42897e-07 0 7.44662e-07)
(7.36823e-07 -1.21084e-07 0 7.49993e-07 0 7.43126e-07)
(7.27378e-07 -1.20726e-07 0 7.57355e-07 0 7.41794e-07)
(7.18469e-07 -1.20449e-07 0 7.64451e-07 0 7.40615e-07)
(7.10632e-07 -1.20229e-07 0 7.70388e-07 0 7.39452e-07)
(7.04092e-07 -1.20032e-07 0 7.74591e-07 0 7.38159e-07)
(6.98712e-07 -1.19837e-07 0 7.77194e-07 0 7.36722e-07)
(6.944e-07 -1.19634e-07 0 7.78356e-07 0 7.35153e-07)
(6.91005e-07 -1.19415e-07 0 7.78352e-07 0 7.33486e-07)
(6.88353e-07 -1.19173e-07 0 7.7752e-07 0 7.31778e-07)
(6.86628e-07 -1.19025e-07 0 7.76403e-07 0 7.30377e-07)
(6.86477e-07 -1.1908e-07 0 7.75424e-07 0 7.29825e-07)
(6.88052e-07 -1.19348e-07 0 7.74362e-07 0 7.30103e-07)
(6.91411e-07 -1.19816e-07 0 7.72984e-07 0 7.31136e-07)
(6.96666e-07 -1.20475e-07 0 7.71033e-07 0 7.32876e-07)
(7.03926e-07 -1.21299e-07 0 7.68301e-07 0 7.3528e-07)
(7.13319e-07 -1.22273e-07 0 7.64599e-07 0 7.38318e-07)
(7.24551e-07 -1.23343e-07 0 7.60381e-07 0 7.42043e-07)
(7.37053e-07 -1.24508e-07 0 7.5621e-07 0 7.46433e-07)
(7.50716e-07 -1.25714e-07 0 7.51965e-07 0 7.51377e-07)
(7.65094e-07 -1.26905e-07 0 7.47774e-07 0 7.56708e-07)
(7.79735e-07 -1.28025e-07 0 7.436e-07 0 7.62198e-07)
(7.94382e-07 -1.28961e-07 0 7.39303e-07 0 7.6762e-07)
(8.07641e-07 -1.29689e-07 0 7.35688e-07 0 7.72597e-07)
(8.18777e-07 -1.30265e-07 0 7.32762e-07 0 7.76787e-07)
(8.27602e-07 -1.30581e-07 0 7.30211e-07 0 7.79978e-07)
(8.33201e-07 -1.30645e-07 0 7.28439e-07 0 7.81927e-07)
(8.35516e-07 -1.30497e-07 0 7.27369e-07 0 7.82559e-07)
(8.35336e-07 -1.30137e-07 0 7.26479e-07 0 7.81983e-07)
(8.33727e-07 -1.29739e-07 0 7.26193e-07 0 7.8094e-07)
(8.31006e-07 -1.29338e-07 0 7.26908e-07 0 7.79812e-07)
(8.26969e-07 -1.28941e-07 0 7.28722e-07 0 7.78567e-07)
(8.21452e-07 -1.28562e-07 0 7.31737e-07 0 7.77196e-07)
(8.14648e-07 -1.28212e-07 0 7.35823e-07 0 7.75743e-07)
(8.07274e-07 -1.27903e-07 0 7.40519e-07 0 7.74313e-07)
(7.99759e-07 -1.27638e-07 0 7.45527e-07 0 7.72963e-07)
(7.92285e-07 -1.27412e-07 0 7.50648e-07 0 7.71697e-07)
(7.84985e-07 -1.27214e-07 0 7.55766e-07 0 7.70526e-07)
(7.7796e-07 -1.27038e-07 0 7.60798e-07 0 7.69453e-07)
(7.71248e-07 -1.26885e-07 0 7.65678e-07 0 7.68468e-07)
(7.64884e-07 -1.26737e-07 0 7.70311e-07 0 7.67537e-07)
(7.5878e-07 -1.26558e-07 0 7.74646e-07 0 7.66591e-07)
(7.52873e-07 -1.26366e-07 0 7.78775e-07 0 7.65646e-07)
(7.47145e-07 -1.26168e-07 0 7.82793e-07 0 7.64739e-07)
(7.41742e-07 -1.25979e-07 0 7.86534e-07 0 7.63859e-07)
(7.37043e-07 -1.25811e-07 0 7.89491e-07 0 7.62958e-07)
(7.33004e-07 -1.25659e-07 0 7.9168e-07 0 7.62026e-07)
(7.29617e-07 -1.25516e-07 0 7.93103e-07 0 7.61055e-07)
(7.26917e-07 -1.25382e-07 0 7.93718e-07 0 7.60038e-07)
(7.2483e-07 -1.25251e-07 0 7.93631e-07 0 7.58988e-07)
(7.23439e-07 -1.25115e-07 0 7.92847e-07 0 7.57929e-07)
(7.23066e-07 -1.25113e-07 0 7.91753e-07 0 7.57224e-07)
(7.24247e-07 -1.25284e-07 0 7.90754e-07 0 7.57314e-07)
(7.27072e-07 -1.25608e-07 0 7.894e-07 0 7.58095e-07)
(7.30455e-07 -1.25991e-07 0 7.88958e-07 0 7.59518e-07)
(7.34643e-07 -1.26395e-07 0 7.87963e-07 0 7.611e-07)
(2.56356e-07 -1.83613e-08 0 2.64567e-07 0 2.60533e-07)
(2.63265e-07 -1.91967e-08 0 2.7171e-07 0 2.67388e-07)
(2.63539e-07 -1.9269e-08 0 2.72743e-07 0 2.68154e-07)
(2.63334e-07 -1.91973e-08 0 2.7333e-07 0 2.68341e-07)
(2.62569e-07 -1.90336e-08 0 2.73701e-07 0 2.68143e-07)
(2.61352e-07 -1.8819e-08 0 2.73882e-07 0 2.6762e-07)
(2.59885e-07 -1.8604e-08 0 2.73967e-07 0 2.66921e-07)
(2.58453e-07 -1.84444e-08 0 2.74062e-07 0 2.66244e-07)
(2.57365e-07 -1.83934e-08 0 2.74307e-07 0 2.65814e-07)
(2.56915e-07 -1.84972e-08 0 2.74841e-07 0 2.65848e-07)
(2.57297e-07 -1.87564e-08 0 2.75659e-07 0 2.66444e-07)
(2.5807e-07 -1.9048e-08 0 2.76262e-07 0 2.67133e-07)
(2.59165e-07 -1.933e-08 0 2.7659e-07 0 2.67849e-07)
(2.60536e-07 -1.95774e-08 0 2.76701e-07 0 2.686e-07)
(2.62099e-07 -1.97726e-08 0 2.76688e-07 0 2.69388e-07)
(2.63742e-07 -1.99075e-08 0 2.76661e-07 0 2.70209e-07)
(2.65345e-07 -1.99857e-08 0 2.76731e-07 0 2.71058e-07)
(2.66803e-07 -2.00217e-08 0 2.76991e-07 0 2.71926e-07)
(2.6804e-07 -2.00387e-08 0 2.77493e-07 0 2.72799e-07)
(2.6903e-07 -2.00652e-08 0 2.78246e-07 0 2.73669e-07)
(2.69804e-07 -2.01302e-08 0 2.79211e-07 0 2.74532e-07)
(2.70448e-07 -2.02579e-08 0 2.80304e-07 0 2.75389e-07)
(2.71081e-07 -2.04648e-08 0 2.81414e-07 0 2.76249e-07)
(2.71849e-07 -2.07561e-08 0 2.82432e-07 0 2.7713e-07)
(2.72892e-07 -2.11247e-08 0 2.83254e-07 0 2.78054e-07)
(2.74323e-07 -2.15524e-08 0 2.83807e-07 0 2.79043e-07)
(2.76212e-07 -2.20129e-08 0 2.84056e-07 0 2.80115e-07)
(2.78587e-07 -2.24779e-08 0 2.84011e-07 0 2.81287e-07)
(2.81428e-07 -2.29232e-08 0 2.83738e-07 0 2.82578e-07)
(2.84644e-07 -2.33265e-08 0 2.83318e-07 0 2.83987e-07)
(2.88114e-07 -2.36751e-08 0 2.82864e-07 0 2.85507e-07)
(2.917e-07 -2.39661e-08 0 2.82486e-07 0 2.87122e-07)
(2.95253e-07 -2.42063e-08 0 2.82273e-07 0 2.888e-07)
(2.98613e-07 -2.44045e-08 0 2.82266e-07 0 2.90481e-07)
(3.0168e-07 -2.45802e-08 0 2.8251e-07 0 2.92138e-07)
(3.04387e-07 -2.47487e-08 0 2.82992e-07 0 2.93732e-07)
(3.06703e-07 -2.49216e-08 0 2.83675e-07 0 2.95228e-07)
(3.08645e-07 -2.51078e-08 0 2.84534e-07 0 2.96626e-07)
(3.10073e-07 -2.52702e-08 0 2.85374e-07 0 2.97759e-07)
(3.10846e-07 -2.53647e-08 0 2.86018e-07 0 2.98468e-07)
(3.1101e-07 -2.53852e-08 0 2.8648e-07 0 2.98782e-07)
(3.10559e-07 -2.53172e-08 0 2.86755e-07 0 2.98696e-07)
(3.09375e-07 -2.51332e-08 0 2.86805e-07 0 2.9813e-07)
(3.07346e-07 -2.4812e-08 0 2.86569e-07 0 2.96998e-07)
(3.04386e-07 -2.43423e-08 0 2.86006e-07 0 2.95236e-07)
(3.00463e-07 -2.37256e-08 0 2.85086e-07 0 2.9281e-07)
(2.95642e-07 -2.29827e-08 0 2.83808e-07 0 2.89753e-07)
(2.901e-07 -2.21535e-08 0 2.82213e-07 0 2.86176e-07)
(2.84124e-07 -2.12914e-08 0 2.80389e-07 0 2.82265e-07)
(2.78043e-07 -2.04524e-08 0 2.78437e-07 0 2.78236e-07)
(2.72236e-07 -1.97e-08 0 2.76511e-07 0 2.74358e-07)
(2.67054e-07 -1.90876e-08 0 2.74766e-07 0 2.70885e-07)
(2.62798e-07 -1.86549e-08 0 2.73346e-07 0 2.68039e-07)
(2.59686e-07 -1.84245e-08 0 2.7236e-07 0 2.65986e-07)
(2.57838e-07 -1.84007e-08 0 2.71871e-07 0 2.64815e-07)
(2.57265e-07 -1.85752e-08 0 2.71899e-07 0 2.64543e-07)
(2.57454e-07 -1.88149e-08 0 2.71934e-07 0 2.6466e-07)
(2.5797e-07 -1.90166e-08 0 2.71637e-07 0 2.64778e-07)
(2.58745e-07 -1.91703e-08 0 2.7109e-07 0 2.64902e-07)
(2.59698e-07 -1.92716e-08 0 2.70385e-07 0 2.65036e-07)
(2.60775e-07 -1.93267e-08 0 2.69645e-07 0 2.65212e-07)
(2.61873e-07 -1.93374e-08 0 2.68934e-07 0 2.65413e-07)
(2.62931e-07 -1.93169e-08 0 2.68326e-07 0 2.65643e-07)
(2.639e-07 -1.92779e-08 0 2.67874e-07 0 2.65903e-07)
(2.6475e-07 -1.92328e-08 0 2.67606e-07 0 2.66195e-07)
(2.65472e-07 -1.91926e-08 0 2.67531e-07 0 2.66518e-07)
(2.66073e-07 -1.91654e-08 0 2.67641e-07 0 2.66871e-07)
(2.66572e-07 -1.91568e-08 0 2.67918e-07 0 2.67257e-07)
(2.6697e-07 -1.91635e-08 0 2.68309e-07 0 2.6765e-07)
(2.67139e-07 -1.91515e-08 0 2.68632e-07 0 2.67894e-07)
(2.67131e-07 -1.91245e-08 0 2.68887e-07 0 2.68016e-07)
(2.67017e-07 -1.90914e-08 0 2.69103e-07 0 2.68066e-07)
(2.66865e-07 -1.9061e-08 0 2.6931e-07 0 2.68092e-07)
(2.66738e-07 -1.90422e-08 0 2.69541e-07 0 2.68143e-07)
(2.66693e-07 -1.90439e-08 0 2.69829e-07 0 2.68263e-07)
(2.66787e-07 -1.90752e-08 0 2.70206e-07 0 2.68498e-07)
(2.67072e-07 -1.91454e-08 0 2.70706e-07 0 2.68889e-07)
(2.67603e-07 -1.92636e-08 0 2.71359e-07 0 2.69481e-07)
(2.68366e-07 -1.9424e-08 0 2.7214e-07 0 2.70253e-07)
(2.69254e-07 -1.95998e-08 0 2.72927e-07 0 2.71091e-07)
(2.70275e-07 -1.97898e-08 0 2.73732e-07 0 2.72005e-07)
(2.71434e-07 -1.99923e-08 0 2.74571e-07 0 2.73005e-07)
(2.72724e-07 -2.02056e-08 0 2.75459e-07 0 2.74097e-07)
(2.74127e-07 -2.04271e-08 0 2.76418e-07 0 2.7528e-07)
(2.75619e-07 -2.06558e-08 0 2.77464e-07 0 2.76552e-07)
(2.77172e-07 -2.08932e-08 0 2.78607e-07 0 2.77902e-07)
(2.78766e-07 -2.11446e-08 0 2.79855e-07 0 2.79324e-07)
(2.80397e-07 -2.1417e-08 0 2.81228e-07 0 2.80824e-07)
(2.82068e-07 -2.17192e-08 0 2.82702e-07 0 2.82393e-07)
(2.83817e-07 -2.20653e-08 0 2.84264e-07 0 2.84044e-07)
(2.85714e-07 -2.24683e-08 0 2.85923e-07 0 2.85813e-07)
(2.87833e-07 -2.29378e-08 0 2.87624e-07 0 2.87715e-07)
(2.90253e-07 -2.3482e-08 0 2.89322e-07 0 2.89766e-07)
(2.93061e-07 -2.40988e-08 0 2.91e-07 0 2.91998e-07)
(2.96334e-07 -2.47794e-08 0 2.92617e-07 0 2.94437e-07)
(3.00114e-07 -2.55147e-08 0 2.94157e-07 0 2.97094e-07)
(3.04418e-07 -2.62897e-08 0 2.95679e-07 0 3.00004e-07)
(3.09195e-07 -2.70765e-08 0 2.97213e-07 0 3.0316e-07)
(3.143e-07 -2.78403e-08 0 2.98782e-07 0 3.06506e-07)
(3.19537e-07 -2.8553e-08 0 3.00479e-07 0 3.09986e-07)
(3.24645e-07 -2.91889e-08 0 3.02383e-07 0 3.13503e-07)
(3.29272e-07 -2.9719e-08 0 3.0453e-07 0 3.16899e-07)
(3.32712e-07 -3.00438e-08 0 3.06595e-07 0 3.19659e-07)
(3.34054e-07 -3.0018e-08 0 3.07996e-07 0 3.21039e-07)
(3.3308e-07 -2.96463e-08 0 3.08639e-07 0 3.20878e-07)
(3.29754e-07 -2.89475e-08 0 3.0863e-07 0 3.19202e-07)
(3.24339e-07 -2.79933e-08 0 3.07984e-07 0 3.1616e-07)
(3.1729e-07 -2.68657e-08 0 3.068e-07 0 3.12028e-07)
(3.09168e-07 -2.56543e-08 0 3.05234e-07 0 3.07171e-07)
(3.00519e-07 -2.44341e-08 0 3.03399e-07 0 3.01924e-07)
(2.91951e-07 -2.32925e-08 0 3.01525e-07 0 2.96696e-07)
(2.83956e-07 -2.22928e-08 0 2.9978e-07 0 2.91818e-07)
(2.76873e-07 -2.14771e-08 0 2.98305e-07 0 2.87535e-07)
(2.70947e-07 -2.08739e-08 0 2.9723e-07 0 2.84032e-07)
(2.66329e-07 -2.04996e-08 0 2.96652e-07 0 2.81433e-07)
(2.63102e-07 -2.03569e-08 0 2.96619e-07 0 2.79801e-07)
(2.61231e-07 -2.04461e-08 0 2.97169e-07 0 2.79139e-07)
(2.60753e-07 -2.07719e-08 0 2.98321e-07 0 2.79471e-07)
(2.61395e-07 -2.12513e-08 0 2.9968e-07 0 2.80471e-07)
(2.62551e-07 -2.17506e-08 0 3.00637e-07 0 2.81529e-07)
(2.64232e-07 -2.22699e-08 0 3.01197e-07 0 2.82653e-07)
(2.66456e-07 -2.28111e-08 0 3.01384e-07 0 2.83865e-07)
(2.69252e-07 -2.33727e-08 0 3.01248e-07 0 2.852e-07)
(2.72646e-07 -2.39509e-08 0 3.00791e-07 0 2.86673e-07)
(2.7664e-07 -2.45416e-08 0 3.00057e-07 0 2.88314e-07)
(2.81236e-07 -2.51366e-08 0 2.9912e-07 0 2.90156e-07)
(2.86416e-07 -2.57293e-08 0 2.98043e-07 0 2.92224e-07)
(2.92138e-07 -2.631e-08 0 2.96935e-07 0 2.94542e-07)
(2.98294e-07 -2.68637e-08 0 2.95863e-07 0 2.97092e-07)
(3.04734e-07 -2.73834e-08 0 2.94929e-07 0 2.9985e-07)
(3.11282e-07 -2.78494e-08 0 2.94227e-07 0 3.02768e-07)
(3.17729e-07 -2.82538e-08 0 2.93782e-07 0 3.05762e-07)
(3.23778e-07 -2.85994e-08 0 2.93622e-07 0 3.08697e-07)
(3.29201e-07 -2.88871e-08 0 2.93783e-07 0 3.11477e-07)
(3.33798e-07 -2.91125e-08 0 2.94274e-07 0 3.14007e-07)
(3.37409e-07 -2.9278e-08 0 2.95081e-07 0 3.16204e-07)
(3.39911e-07 -2.93854e-08 0 2.96153e-07 0 3.17981e-07)
(3.40672e-07 -2.93158e-08 0 2.96881e-07 0 3.18721e-07)
(3.396e-07 -2.9039e-08 0 2.97069e-07 0 3.18277e-07)
(3.36805e-07 -2.85698e-08 0 2.96773e-07 0 3.16731e-07)
(3.32669e-07 -2.79684e-08 0 2.9607e-07 0 3.14313e-07)
(3.27572e-07 -2.72794e-08 0 2.95045e-07 0 3.11257e-07)
(3.2184e-07 -2.65381e-08 0 2.93787e-07 0 3.07768e-07)
(3.15757e-07 -2.57746e-08 0 2.92367e-07 0 3.04024e-07)
(3.0957e-07 -2.50136e-08 0 2.9087e-07 0 3.00189e-07)
(3.03475e-07 -2.42723e-08 0 2.89308e-07 0 2.9637e-07)
(2.97541e-07 -2.35594e-08 0 2.87748e-07 0 2.92632e-07)
(2.91859e-07 -2.28683e-08 0 2.86218e-07 0 2.89034e-07)
(2.86417e-07 -2.21883e-08 0 2.84801e-07 0 2.85611e-07)
(2.81341e-07 -2.15548e-08 0 2.83417e-07 0 2.82388e-07)
(2.76482e-07 -2.09293e-08 0 2.82169e-07 0 2.7934e-07)
(2.71868e-07 -2.03268e-08 0 2.80969e-07 0 2.76438e-07)
(2.67508e-07 -1.97571e-08 0 2.79847e-07 0 2.73701e-07)
(2.63474e-07 -1.92403e-08 0 2.78829e-07 0 2.71177e-07)
(2.5987e-07 -1.8802e-08 0 2.77969e-07 0 2.68946e-07)
(2.56848e-07 -1.84745e-08 0 2.77342e-07 0 2.6712e-07)
(2.54576e-07 -1.82894e-08 0 2.77024e-07 0 2.65824e-07)
(2.53183e-07 -1.82707e-08 0 2.77087e-07 0 2.65156e-07)
(2.52836e-07 -1.84491e-08 0 2.77623e-07 0 2.65247e-07)
(2.53314e-07 -1.87394e-08 0 2.78262e-07 0 2.65806e-07)
(2.5419e-07 -1.90254e-08 0 2.78549e-07 0 2.6638e-07)
(2.55389e-07 -1.92881e-08 0 2.78502e-07 0 2.66961e-07)
(2.56937e-07 -1.9507e-08 0 2.78255e-07 0 2.67596e-07)
(2.58642e-07 -1.96751e-08 0 2.77862e-07 0 2.68235e-07)
(2.50512e-07 -1.716e-08 0 2.58581e-07 0 2.54614e-07)
(2.56831e-07 -1.7852e-08 0 2.65097e-07 0 2.60864e-07)
(2.56639e-07 -1.77774e-08 0 2.65521e-07 0 2.61092e-07)
(2.56232e-07 -1.76181e-08 0 2.65964e-07 0 2.61106e-07)
(2.55681e-07 -1.74671e-08 0 2.66532e-07 0 2.61112e-07)
(2.54996e-07 -1.73507e-08 0 2.67263e-07 0 2.61127e-07)
(2.54237e-07 -1.73093e-08 0 2.68102e-07 0 2.61156e-07)
(2.53496e-07 -1.73648e-08 0 2.68952e-07 0 2.61197e-07)
(2.52871e-07 -1.75223e-08 0 2.69701e-07 0 2.61247e-07)
(2.52449e-07 -1.77689e-08 0 2.70242e-07 0 2.61297e-07)
(2.52291e-07 -1.80592e-08 0 2.70496e-07 0 2.6134e-07)
(2.52419e-07 -1.83642e-08 0 2.7042e-07 0 2.61365e-07)
(2.52839e-07 -1.86471e-08 0 2.7e-07 0 2.61369e-07)
(2.53481e-07 -1.88484e-08 0 2.69311e-07 0 2.61355e-07)
(2.54262e-07 -1.89479e-08 0 2.68451e-07 0 2.61329e-07)
(2.55077e-07 -1.89357e-08 0 2.67545e-07 0 2.61297e-07)
(2.55818e-07 -1.88219e-08 0 2.66719e-07 0 2.61266e-07)
(2.56394e-07 -1.86341e-08 0 2.66082e-07 0 2.61245e-07)
(2.56754e-07 -1.84093e-08 0 2.65697e-07 0 2.61236e-07)
(2.56881e-07 -1.81978e-08 0 2.65592e-07 0 2.61244e-07)
(2.56811e-07 -1.80497e-08 0 2.65732e-07 0 2.61272e-07)
(2.56632e-07 -1.80004e-08 0 2.66028e-07 0 2.61318e-07)
(2.56453e-07 -1.80713e-08 0 2.66357e-07 0 2.6138e-07)
(2.56395e-07 -1.82629e-08 0 2.66583e-07 0 2.61452e-07)
(2.56568e-07 -1.85558e-08 0 2.66576e-07 0 2.61526e-07)
(2.57052e-07 -1.8914e-08 0 2.66238e-07 0 2.61595e-07)
(2.57892e-07 -1.929e-08 0 2.65514e-07 0 2.61658e-07)
(2.59098e-07 -1.96352e-08 0 2.64407e-07 0 2.61715e-07)
(2.60629e-07 -1.99076e-08 0 2.62977e-07 0 2.61777e-07)
(2.624e-07 -2.00749e-08 0 2.61315e-07 0 2.61844e-07)
(2.64294e-07 -2.01233e-08 0 2.59546e-07 0 2.61923e-07)
(2.662e-07 -2.00563e-08 0 2.57797e-07 0 2.62015e-07)
(2.68007e-07 -1.98934e-08 0 2.56177e-07 0 2.6212e-07)
(2.69616e-07 -1.96645e-08 0 2.54775e-07 0 2.62231e-07)
(2.70961e-07 -1.94043e-08 0 2.53644e-07 0 2.62342e-07)
(2.72014e-07 -1.9145e-08 0 2.52796e-07 0 2.62447e-07)
(2.72784e-07 -1.89103e-08 0 2.52213e-07 0 2.62541e-07)
(2.73294e-07 -1.87112e-08 0 2.51866e-07 0 2.62621e-07)
(2.73566e-07 -1.85437e-08 0 2.51705e-07 0 2.62678e-07)
(2.73617e-07 -1.8395e-08 0 2.51687e-07 0 2.62696e-07)
(2.73461e-07 -1.82441e-08 0 2.51796e-07 0 2.62675e-07)
(2.73083e-07 -1.80713e-08 0 2.52041e-07 0 2.62613e-07)
(2.72457e-07 -1.78647e-08 0 2.52438e-07 0 2.62504e-07)
(2.71548e-07 -1.76179e-08 0 2.53016e-07 0 2.62344e-07)
(2.70331e-07 -1.73382e-08 0 2.53817e-07 0 2.62137e-07)
(2.68806e-07 -1.7044e-08 0 2.54865e-07 0 2.61896e-07)
(2.67009e-07 -1.67643e-08 0 2.56164e-07 0 2.61641e-07)
(2.65009e-07 -1.65327e-08 0 2.57698e-07 0 2.61398e-07)
(2.6291e-07 -1.63797e-08 0 2.59424e-07 0 2.61197e-07)
(2.60837e-07 -1.63302e-08 0 2.61258e-07 0 2.61059e-07)
(2.58899e-07 -1.63977e-08 0 2.63103e-07 0 2.60992e-07)
(2.57183e-07 -1.65817e-08 0 2.64855e-07 0 2.60991e-07)
(2.55799e-07 -1.68636e-08 0 2.66366e-07 0 2.61037e-07)
(2.54787e-07 -1.72142e-08 0 2.67542e-07 0 2.61106e-07)
(2.54166e-07 -1.76005e-08 0 2.68316e-07 0 2.61176e-07)
(2.53931e-07 -1.79845e-08 0 2.68665e-07 0 2.61231e-07)
(2.54047e-07 -1.83334e-08 0 2.68602e-07 0 2.61262e-07)
(2.54477e-07 -1.86264e-08 0 2.68167e-07 0 2.61269e-07)
(2.55137e-07 -1.88292e-08 0 2.67457e-07 0 2.61255e-07)
(2.55945e-07 -1.89454e-08 0 2.66574e-07 0 2.61229e-07)
(2.56834e-07 -1.89742e-08 0 2.65603e-07 0 2.61198e-07)
(2.57704e-07 -1.8925e-08 0 2.64644e-07 0 2.61165e-07)
(2.58503e-07 -1.8819e-08 0 2.63766e-07 0 2.61133e-07)
(2.59182e-07 -1.86774e-08 0 2.63023e-07 0 2.61107e-07)
(2.59712e-07 -1.85204e-08 0 2.62445e-07 0 2.61087e-07)
(2.60088e-07 -1.83657e-08 0 2.62038e-07 0 2.61072e-07)
(2.60318e-07 -1.82265e-08 0 2.61791e-07 0 2.61064e-07)
(2.60417e-07 -1.81105e-08 0 2.61687e-07 0 2.6106e-07)
(2.60413e-07 -1.80212e-08 0 2.61697e-07 0 2.61061e-07)
(2.60333e-07 -1.7958e-08 0 2.61785e-07 0 2.61063e-07)
(2.60202e-07 -1.7918e-08 0 2.61926e-07 0 2.61066e-07)
(2.60042e-07 -1.78975e-08 0 2.62096e-07 0 2.61068e-07)
(2.59877e-07 -1.7894e-08 0 2.62268e-07 0 2.6107e-07)
(2.5969e-07 -1.79038e-08 0 2.62462e-07 0 2.61071e-07)
(2.5952e-07 -1.79255e-08 0 2.62638e-07 0 2.61071e-07)
(2.59388e-07 -1.79571e-08 0 2.62774e-07 0 2.61071e-07)
(2.59287e-07 -1.79992e-08 0 2.62879e-07 0 2.61072e-07)
(2.59231e-07 -1.80512e-08 0 2.62942e-07 0 2.61074e-07)
(2.59227e-07 -1.81111e-08 0 2.62957e-07 0 2.61078e-07)
(2.59282e-07 -1.81732e-08 0 2.62915e-07 0 2.61084e-07)
(2.59392e-07 -1.82353e-08 0 2.62822e-07 0 2.61094e-07)
(2.59567e-07 -1.82898e-08 0 2.62673e-07 0 2.61109e-07)
(2.59791e-07 -1.83316e-08 0 2.62487e-07 0 2.6113e-07)
(2.60039e-07 -1.83566e-08 0 2.6229e-07 0 2.61159e-07)
(2.60294e-07 -1.83641e-08 0 2.62102e-07 0 2.61196e-07)
(2.60542e-07 -1.83571e-08 0 2.6194e-07 0 2.61241e-07)
(2.60766e-07 -1.83435e-08 0 2.61822e-07 0 2.61297e-07)
(2.60957e-07 -1.83337e-08 0 2.61768e-07 0 2.61366e-07)
(2.61134e-07 -1.83446e-08 0 2.61759e-07 0 2.61449e-07)
(2.61322e-07 -1.83914e-08 0 2.61773e-07 0 2.61548e-07)
(2.61551e-07 -1.84857e-08 0 2.61794e-07 0 2.61669e-07)
(2.61886e-07 -1.86393e-08 0 2.61753e-07 0 2.61812e-07)
(2.62379e-07 -1.885e-08 0 2.61599e-07 0 2.61978e-07)
(2.63086e-07 -1.91096e-08 0 2.61286e-07 0 2.62172e-07)
(2.64059e-07 -1.94039e-08 0 2.60753e-07 0 2.62393e-07)
(2.65315e-07 -1.97038e-08 0 2.59977e-07 0 2.6264e-07)
(2.6683e-07 -1.9976e-08 0 2.59011e-07 0 2.62925e-07)
(2.68579e-07 -2.01875e-08 0 2.57888e-07 0 2.63251e-07)
(2.70466e-07 -2.03032e-08 0 2.5669e-07 0 2.63612e-07)
(2.72355e-07 -2.02949e-08 0 2.55525e-07 0 2.63997e-07)
(2.7409e-07 -2.01547e-08 0 2.54541e-07 0 2.64396e-07)
(2.755e-07 -1.98805e-08 0 2.53881e-07 0 2.64789e-07)
(2.76376e-07 -1.94778e-08 0 2.53603e-07 0 2.651e-07)
(2.76476e-07 -1.89772e-08 0 2.5372e-07 0 2.65217e-07)
(2.75667e-07 -1.83932e-08 0 2.54303e-07 0 2.65107e-07)
(2.73975e-07 -1.77681e-08 0 2.55361e-07 0 2.64784e-07)
(2.71529e-07 -1.71788e-08 0 2.56897e-07 0 2.64311e-07)
(2.68514e-07 -1.66744e-08 0 2.58871e-07 0 2.63764e-07)
(2.6516e-07 -1.62901e-08 0 2.6121e-07 0 2.63225e-07)
(2.61675e-07 -1.60419e-08 0 2.63825e-07 0 2.62761e-07)
(2.58281e-07 -1.59402e-08 0 2.66611e-07 0 2.62426e-07)
(2.5517e-07 -1.59963e-08 0 2.69407e-07 0 2.62235e-07)
(2.52347e-07 -1.6188e-08 0 2.72175e-07 0 2.62174e-07)
(2.49959e-07 -1.64892e-08 0 2.74713e-07 0 2.62218e-07)
(2.48039e-07 -1.68673e-08 0 2.76909e-07 0 2.6233e-07)
(2.46573e-07 -1.72961e-08 0 2.78708e-07 0 2.62475e-07)
(2.45557e-07 -1.77503e-08 0 2.80065e-07 0 2.62628e-07)
(2.44973e-07 -1.82197e-08 0 2.8096e-07 0 2.62772e-07)
(2.44796e-07 -1.86956e-08 0 2.81386e-07 0 2.62893e-07)
(2.45004e-07 -1.91631e-08 0 2.81331e-07 0 2.62969e-07)
(2.45614e-07 -1.96311e-08 0 2.80782e-07 0 2.63004e-07)
(2.46623e-07 -2.00963e-08 0 2.79754e-07 0 2.63004e-07)
(2.48015e-07 -2.05328e-08 0 2.78291e-07 0 2.6298e-07)
(2.49813e-07 -2.09432e-08 0 2.76381e-07 0 2.62941e-07)
(2.51983e-07 -2.13105e-08 0 2.74089e-07 0 2.62902e-07)
(2.54518e-07 -2.16189e-08 0 2.71455e-07 0 2.62881e-07)
(2.57431e-07 -2.1856e-08 0 2.68507e-07 0 2.62896e-07)
(2.60602e-07 -2.19969e-08 0 2.65426e-07 0 2.62971e-07)
(2.63971e-07 -2.20331e-08 0 2.62284e-07 0 2.63112e-07)
(2.67443e-07 -2.19581e-08 0 2.59179e-07 0 2.63323e-07)
(2.70873e-07 -2.17713e-08 0 2.56265e-07 0 2.63601e-07)
(2.74161e-07 -2.14811e-08 0 2.53589e-07 0 2.63926e-07)
(2.77136e-07 -2.1108e-08 0 2.51271e-07 0 2.64272e-07)
(2.79664e-07 -2.0675e-08 0 2.49395e-07 0 2.64609e-07)
(2.81648e-07 -2.02041e-08 0 2.48005e-07 0 2.64911e-07)
(2.83017e-07 -1.97174e-08 0 2.47114e-07 0 2.65153e-07)
(2.8374e-07 -1.92396e-08 0 2.46722e-07 0 2.65315e-07)
(2.83765e-07 -1.87945e-08 0 2.46717e-07 0 2.65323e-07)
(2.83104e-07 -1.83453e-08 0 2.47046e-07 0 2.65154e-07)
(2.8183e-07 -1.79311e-08 0 2.47687e-07 0 2.64834e-07)
(2.80093e-07 -1.7574e-08 0 2.48591e-07 0 2.64412e-07)
(2.78026e-07 -1.72784e-08 0 2.49715e-07 0 2.63935e-07)
(2.75756e-07 -1.70468e-08 0 2.51019e-07 0 2.63448e-07)
(2.73399e-07 -1.68761e-08 0 2.52457e-07 0 2.62982e-07)
(2.71036e-07 -1.67598e-08 0 2.53991e-07 0 2.62561e-07)
(2.68726e-07 -1.66876e-08 0 2.5558e-07 0 2.62196e-07)
(2.66507e-07 -1.66471e-08 0 2.57199e-07 0 2.6189e-07)
(2.64402e-07 -1.66234e-08 0 2.5883e-07 0 2.61647e-07)
(2.62406e-07 -1.66117e-08 0 2.60472e-07 0 2.61463e-07)
(2.60511e-07 -1.66051e-08 0 2.62121e-07 0 2.61333e-07)
(2.5871e-07 -1.6598e-08 0 2.63773e-07 0 2.6125e-07)
(2.56994e-07 -1.66099e-08 0 2.65419e-07 0 2.61207e-07)
(2.55343e-07 -1.66398e-08 0 2.6708e-07 0 2.61203e-07)
(2.53821e-07 -1.67078e-08 0 2.68679e-07 0 2.61232e-07)
(2.5244e-07 -1.68277e-08 0 2.70193e-07 0 2.61289e-07)
(2.51248e-07 -1.70055e-08 0 2.71555e-07 0 2.61365e-07)
(2.50295e-07 -1.72448e-08 0 2.72686e-07 0 2.61446e-07)
(2.49608e-07 -1.75473e-08 0 2.73531e-07 0 2.6152e-07)
(2.49256e-07 -1.78862e-08 0 2.74006e-07 0 2.61578e-07)
(2.49206e-07 -1.82398e-08 0 2.74111e-07 0 2.61607e-07)
(2.49609e-07 -1.85828e-08 0 2.7371e-07 0 2.61607e-07)
(2.50141e-07 -1.88592e-08 0 2.73116e-07 0 2.61582e-07)
(2.5105e-07 -1.9045e-08 0 2.72138e-07 0 2.61545e-07)
(2.52202e-07 -1.91393e-08 0 2.70878e-07 0 2.61485e-07)
(2.50418e-07 -1.71314e-08 0 2.58476e-07 0 2.54517e-07)
(2.56804e-07 -1.78088e-08 0 2.64982e-07 0 2.60799e-07)
(2.5663e-07 -1.76847e-08 0 2.65362e-07 0 2.61015e-07)
(2.56208e-07 -1.74585e-08 0 2.658e-07 0 2.6102e-07)
(2.55648e-07 -1.72427e-08 0 2.66366e-07 0 2.61022e-07)
(2.54937e-07 -1.70784e-08 0 2.67124e-07 0 2.61038e-07)
(2.54144e-07 -1.70194e-08 0 2.68006e-07 0 2.61071e-07)
(2.53366e-07 -1.70945e-08 0 2.68906e-07 0 2.6112e-07)
(2.52707e-07 -1.73056e-08 0 2.69702e-07 0 2.61176e-07)
(2.52258e-07 -1.76289e-08 0 2.70279e-07 0 2.6123e-07)
(2.52085e-07 -1.80364e-08 0 2.70549e-07 0 2.61272e-07)
(2.52217e-07 -1.8465e-08 0 2.70463e-07 0 2.61293e-07)
(2.52653e-07 -1.88552e-08 0 2.7001e-07 0 2.6129e-07)
(2.53321e-07 -1.91354e-08 0 2.69268e-07 0 2.61262e-07)
(2.54133e-07 -1.92736e-08 0 2.68337e-07 0 2.61215e-07)
(2.54973e-07 -1.92538e-08 0 2.6735e-07 0 2.61156e-07)
(2.55723e-07 -1.90828e-08 0 2.66449e-07 0 2.61093e-07)
(2.56291e-07 -1.88058e-08 0 2.65748e-07 0 2.61035e-07)
(2.56614e-07 -1.848e-08 0 2.65324e-07 0 2.60989e-07)
(2.56686e-07 -1.8173e-08 0 2.652e-07 0 2.60961e-07)
(2.56546e-07 -1.79478e-08 0 2.65344e-07 0 2.60955e-07)
(2.56288e-07 -1.78655e-08 0 2.65664e-07 0 2.60974e-07)
(2.56032e-07 -1.79522e-08 0 2.66028e-07 0 2.61014e-07)
(2.55903e-07 -1.8209e-08 0 2.6629e-07 0 2.61067e-07)
(2.5602e-07 -1.86072e-08 0 2.6631e-07 0 2.61125e-07)
(2.56467e-07 -1.90965e-08 0 2.65978e-07 0 2.61178e-07)
(2.57286e-07 -1.96131e-08 0 2.65236e-07 0 2.61218e-07)
(2.58481e-07 -2.00874e-08 0 2.64083e-07 0 2.61247e-07)
(2.60013e-07 -2.0459e-08 0 2.62579e-07 0 2.61268e-07)
(2.61786e-07 -2.06838e-08 0 2.60817e-07 0 2.61285e-07)
(2.63669e-07 -2.07404e-08 0 2.58937e-07 0 2.61299e-07)
(2.65535e-07 -2.06339e-08 0 2.5708e-07 0 2.61316e-07)
(2.67287e-07 -2.03907e-08 0 2.55345e-07 0 2.61334e-07)
(2.6882e-07 -2.00525e-08 0 2.53834e-07 0 2.6135e-07)
(2.70064e-07 -1.96704e-08 0 2.52608e-07 0 2.61361e-07)
(2.70995e-07 -1.92904e-08 0 2.51685e-07 0 2.61364e-07)
(2.71641e-07 -1.89436e-08 0 2.51034e-07 0 2.61359e-07)
(2.72042e-07 -1.86403e-08 0 2.5061e-07 0 2.61345e-07)
(2.72221e-07 -1.83883e-08 0 2.5039e-07 0 2.61322e-07)
(2.72214e-07 -1.81694e-08 0 2.50332e-07 0 2.6129e-07)
(2.72034e-07 -1.79568e-08 0 2.50418e-07 0 2.61245e-07)
(2.71673e-07 -1.77239e-08 0 2.50652e-07 0 2.61187e-07)