/*--------------------------------*- C++ -*----------------------------------*\
| =========                 |                                                 |
| \\      /  F ield         | OpenFOAM: The Open Source CFD Toolbox           |
|  \\    /   O peration     | Version:  v1912                                 |
|   \\  /    A nd           | Website:  www.openfoam.com                      |
|    \\/     M anipulation  |                                                 |
\*---------------------------------------------------------------------------*/
FoamFile
{
    version     2.0;
    format      ascii;
    class       volScalarField;
    location    "90";
    object      omega;
}
// * * * * * * * * * * * * * * * * * * * * * * * * * * * * * * * * * * * * * //

dimensions      [0 0 -1 0 0 0 0];


internalField   nonuniform List<scalar> 
14268
(
2.99067
2.99067
2.99067
2.99067
2.99067
2.99067
2.99067
2.99066
0.689243
0.693296
0.697006
0.700494
0.705453
0.716055
0.730421
0.751789
0.324296
0.326492
0.328607
0.330761
0.33402
0.340463
0.350426
0.364434
0.211656
0.212955
0.214244
0.215599
0.217595
0.221364
0.22674
0.236301
0.177102
0.178194
0.179519
0.181225
0.183711
0.187458
0.191573
0.197517
0.16842
0.170134
0.172184
0.174856
0.17832
0.182493
0.18646
0.190762
0.168175
0.170655
0.174516
0.180771
0.190446
0.199854
0.204164
0.203007
0.178675
0.185982
0.197298
0.215862
0.244125
0.26899
0.277877
0.264332
0.203177
0.218456
0.241851
0.279536
0.335505
0.382244
0.399865
0.38057
0.218555
0.23818
0.268019
0.316029
0.384955
0.439508
0.461414
0.448526
0.214106
0.232905
0.261387
0.307701
0.370632
0.415031
0.430374
0.422128
0.191537
0.204673
0.224908
0.256959
0.30456
0.342868
0.35783
0.354744
0.180842
0.19093
0.206553
0.230557
0.267586
0.306219
0.327053
0.329403
0.177404
0.186106
0.199763
0.220735
0.252523
0.290633
0.315236
0.321022
0.173113
0.180228
0.191691
0.210378
0.241865
0.278758
0.298848
0.296491
0.165424
0.16873
0.174111
0.182898
0.197
0.219351
0.239503
0.2449
0.162648
0.164327
0.167072
0.171642
0.179417
0.193457
0.211143
0.219856
0.162101
0.163202
0.164897
0.16766
0.172353
0.181074
0.193493
0.200884
0.161814
0.162508
0.163548
0.165173
0.167699
0.172147
0.179403
0.185108
0.161163
0.161791
0.162646
0.163758
0.165276
0.167841
0.172299
0.177731
0.16138
0.161927
0.16266
0.163571
0.164712
0.166652
0.170134
0.175046
0.161548
0.162065
0.162713
0.163537
0.164574
0.166094
0.168636
0.172082
0.161786
0.162303
0.162902
0.163653
0.164584
0.165676
0.167028
0.168535
0.163115
0.163528
0.164032
0.164674
0.165459
0.166432
0.167689
0.169026
0.167174
0.16745
0.167825
0.168348
0.169045
0.169784
0.170623
0.171472
0.1793
0.179256
0.179237
0.179239
0.17925
0.179212
0.179092
0.178952
0.210035
0.209061
0.207956
0.206676
0.205156
0.203081
0.200657
0.198144
0.279515
0.277008
0.273856
0.270205
0.26597
0.25971
0.252096
0.243444
0.411199
0.405956
0.399316
0.391421
0.382758
0.370405
0.35434
0.335369
0.638424
0.62816
0.615759
0.601625
0.586209
0.565864
0.539371
0.506903
1.0074
0.98979
0.968793
0.94507
0.918965
0.887809
0.850559
0.805865
1.56799
1.54635
1.5184
1.48432
1.44442
1.39912
1.35223
1.29891
2.31263
2.29641
2.27248
2.2428
2.20204
2.15507
2.1151
2.07289
3.5288
3.29521
3.11304
3.07981
3.12391
3.16727
3.29556
3.35538
8.50482
8.00276
7.32048
6.5329
5.9007
5.95847
6.50209
6.84385
8.99821
9.06215
8.97257
8.7808
8.59547
8.27703
7.85783
7.66269
6.12678
6.37112
6.75016
7.07627
7.24153
7.52245
8.27468
8.70068
2.77579
2.94007
3.20057
3.59662
4.17324
4.90009
5.78304
7.00441
1.93512
2.00743
2.06902
2.14898
2.28024
2.46221
2.66368
2.8672
1.46279
1.49492
1.51288
1.56998
1.70762
1.91707
2.15723
2.36142
1.05164
1.05269
1.05357
1.09968
1.2233
1.41371
1.63279
1.86486
0.760661
0.756986
0.7603
0.798825
0.888348
1.01783
1.16794
1.32903
0.580563
0.586204
0.598188
0.63075
0.690259
0.772987
0.870517
0.979862
0.468201
0.485852
0.504065
0.530195
0.569536
0.625035
0.693132
0.771435
0.394601
0.419975
0.439434
0.461276
0.490808
0.532901
0.585832
0.646479
0.342023
0.366748
0.38527
0.40513
0.430865
0.466586
0.512259
0.564595
0.300102
0.31949
0.336322
0.354944
0.379176
0.411
0.451724
0.499602
0.266297
0.280773
0.294871
0.311337
0.333652
0.362184
0.397772
0.440189
0.239586
0.250558
0.261935
0.275621
0.295103
0.320198
0.351347
0.388498
0.220016
0.227818
0.236316
0.247044
0.263097
0.284335
0.311373
0.344283
0.20642
0.211589
0.217293
0.22509
0.237224
0.253989
0.276429
0.304809
0.196152
0.199838
0.203651
0.209028
0.21753
0.229807
0.247129
0.270174
0.188362
0.191075
0.193641
0.197319
0.203037
0.211392
0.223669
0.240962
0.18167
0.183964
0.185964
0.188592
0.192448
0.197971
0.20607
0.217945
0.175372
0.177589
0.179487
0.181636
0.184515
0.188334
0.193634
0.201329
0.169718
0.171703
0.173554
0.175462
0.177978
0.180917
0.184564
0.189548
0.164246
0.166149
0.168082
0.169866
0.172287
0.174855
0.177639
0.181184
0.159422
0.161085
0.162916
0.164577
0.166866
0.169315
0.171771
0.174621
0.155231
0.156643
0.158314
0.159848
0.161924
0.164234
0.166495
0.168979
0.151978
0.153032
0.154412
0.155691
0.157493
0.159585
0.161652
0.163843
0.149714
0.150426
0.151408
0.152416
0.153826
0.155608
0.15733
0.159237
0.148517
0.14885
0.149444
0.150085
0.151056
0.152415
0.153742
0.155258
0.148033
0.148167
0.148426
0.14876
0.149294
0.150135
0.151026
0.152107
0.147866
0.147955
0.14806
0.148194
0.148412
0.148831
0.149276
0.149911
0.147775
0.14789
0.147935
0.148023
0.148124
0.14827
0.14842
0.148683
0.147702
0.147838
0.147854
0.147953
0.148023
0.1481
0.148143
0.148191
0.147644
0.147796
0.14779
0.147883
0.147941
0.148023
0.148041
0.148038
0.147601
0.147772
0.147746
0.147821
0.147877
0.147945
0.147964
0.147934
0.147562
0.147755
0.147716
0.147764
0.147828
0.147861
0.147892
0.147833
0.147521
0.147716
0.147676
0.14769
0.14778
0.147771
0.147818
0.147723
0.147478
0.147629
0.147622
0.147613
0.147728
0.147679
0.14773
0.147617
0.147407
0.147524
0.147571
0.14755
0.147684
0.147601
0.14765
0.147518
0.147333
0.147458
0.147477
0.147498
0.147593
0.147544
0.147573
0.147438
0.147271
0.147436
0.147393
0.147466
0.147484
0.147505
0.147478
0.1474
0.147238
0.147429
0.147331
0.147436
0.147411
0.147471
0.147402
0.147392
0.147133
0.147301
0.147271
0.147287
0.147351
0.147317
0.147328
0.147267
0.147063
0.14719
0.147201
0.147179
0.147282
0.147193
0.147262
0.147131
0.146964
0.147095
0.147077
0.147086
0.147133
0.147081
0.147111
0.14705
0.146902
0.14692
0.146925
0.146936
0.146933
0.146943
0.146865
0.146979
0.146766
0.146787
0.146786
0.146785
0.146811
0.146745
0.146822
0.146718
0.146788
0.146764
0.146779
0.146759
0.146762
0.146741
0.146726
0.146713
0.14708
0.147031
0.147018
0.146968
0.146943
0.146895
0.146862
0.146818
0.149122
0.14897
0.148823
0.148658
0.148509
0.148343
0.1482
0.148045
0.159362
0.158837
0.158283
0.157698
0.1571
0.156483
0.155883
0.15528
0.204642
0.203264
0.201748
0.200052
0.198263
0.19632
0.194361
0.192301
0.387653
0.38587
0.383559
0.38055
0.377082
0.372929
0.368446
0.36336
1.01763
1.0244
1.02963
1.03312
1.03516
1.03543
1.03436
1.03151
2.98321
2.9832
2.9832
2.98319
2.98319
2.98319
2.98318
2.98318
2.98318
2.98318
2.98319
2.98319
2.98319
2.98319
2.9832
2.9832
2.9832
2.98319
2.98319
2.98319
2.98319
2.98318
2.98318
2.98318
2.98318
2.98317
2.98317
2.98317
2.98316
2.98316
2.98316
2.98316
2.98316
2.98316
2.98316
2.98317
2.98317
2.98317
2.98318
2.98318
2.98318
2.98318
2.98318
2.98319
2.98319
2.98319
2.98319
2.98319
2.98319
2.98319
2.98319
2.98319
2.98319
2.98319
2.98319
2.98319
2.98319
2.98319
2.98319
2.98319
2.98319
2.9832
2.9832
2.9832
2.98321
2.98321
2.98321
2.98322
2.98322
2.98322
2.98322
2.98323
2.98323
2.98323
2.98322
2.98322
2.98322
2.98321
2.9832
2.9832
2.98319
2.98318
2.98317
2.98317
2.98316
2.98316
2.98316
2.98316
2.98316
2.98316
2.98316
2.98316
2.98317
2.98317
2.98317
2.98317
2.98317
2.98318
2.98318
2.98318
2.98318
2.98318
2.98318
2.98318
2.98319
2.98319
2.98319
2.98319
2.9832
2.9832
2.9832
2.9832
2.9832
2.9832
2.9832
2.98321
2.98321
2.98321
2.98321
2.98321
2.98321
2.98321
2.98322
2.98322
2.98322
2.98322
2.98322
2.98322
2.98322
2.98322
2.98322
2.98322
2.98322
2.98322
2.98321
2.98321
2.98321
2.9832
2.98319
2.98319
2.98318
2.98317
2.98317
2.98316
2.98316
2.98315
2.98315
2.98315
2.98315
2.98315
2.98315
2.98315
2.98315
2.98316
2.98316
2.98316
0.767176
0.81712
0.850599
0.869678
0.88011
0.885128
0.888995
0.890909
0.892726
0.895691
0.89939
0.904212
0.9113
0.922081
0.932945
0.947898
0.963373
0.979902
0.997789
1.01714
1.03918
1.06427
1.09393
1.12802
1.16788
1.21147
1.25728
1.30297
1.34626
1.38545
1.4191
1.44442
1.45478
1.44277
1.40038
1.33198
1.24494
1.14894
1.05307
0.967285
0.892739
0.832303
0.788183
0.756143
0.73542
0.723108
0.717898
0.717576
0.720042
0.72331
0.728354
0.734197
0.742226
0.760184
0.773474
0.784404
0.794678
0.800556
0.805243
0.803379
0.802706
0.800238
0.79409
0.793494
0.788157
0.779972
0.773946
0.770771
0.770394
0.774713
0.780308
0.780723
0.786729
0.791527
0.800806
0.815563
0.837423
0.866539
0.902256
0.942945
0.983463
1.02557
1.06991
1.11756
1.16848
1.21903
1.25943
1.28002
1.27645
1.24751
1.20235
1.15455
1.11269
1.07366
1.03145
0.981711
0.930302
0.886871
0.854117
0.832809
0.821466
0.816488
0.812951
0.804701
0.791865
0.776358
0.761915
0.749763
0.741178
0.735571
0.730651
0.724566
0.716063
0.705901
0.695959
0.686785
0.678815
0.671966
0.665854
0.661288
0.658568
0.657804
0.658833
0.659896
0.66113
0.662952
0.666299
0.671369
0.677767
0.684888
0.692287
0.700345
0.710293
0.722855
0.738294
0.755721
0.774819
0.796586
0.822315
0.852468
0.886211
0.921823
0.957906
0.993669
1.02813
1.05954
1.08588
1.10596
1.11876
1.1208
1.10985
1.0854
1.05085
1.00977
0.967184
0.926649
0.373675
0.405172
0.425561
0.437386
0.443909
0.446849
0.448548
0.447042
0.444072
0.440668
0.437844
0.436692
0.436538
0.438942
0.442933
0.449792
0.456527
0.463394
0.470454
0.47779
0.486116
0.495689
0.507475
0.521538
0.538702
0.557822
0.577865
0.597197
0.614249
0.627669
0.636609
0.639943
0.635554
0.618054
0.586232
0.545255
0.50013
0.457098
0.419403
0.389973
0.366911
0.349967
0.338592
0.330353
0.324838
0.321618
0.320599
0.321615
0.323314
0.325081
0.327216
0.329137
0.331204
0.336287
0.339704
0.34255
0.346032
0.348386
0.350302
0.349508
0.34804
0.345723
0.341673
0.339609
0.33632
0.332818
0.33061
0.329809
0.330146
0.33158
0.333071
0.331907
0.333233
0.333965
0.336909
0.342369
0.351044
0.363008
0.377974
0.3949
0.410935
0.426879
0.443207
0.461259
0.481832
0.503479
0.51953
0.524139
0.515278
0.492423
0.465352
0.441489
0.423245
0.408313
0.392569
0.373966
0.354357
0.338493
0.327177
0.32025
0.316919
0.315814
0.315125
0.312668
0.308201
0.302587
0.29759
0.293664
0.291248
0.290114
0.289406
0.288381
0.286429
0.283512
0.280662
0.278163
0.276147
0.274545
0.273214
0.272272
0.271708
0.271516
0.271523
0.271406
0.271277
0.271364
0.272095
0.273555
0.275545
0.277769
0.27999
0.282359
0.285428
0.289517
0.294748
0.300723
0.307217
0.314641
0.323593
0.334406
0.346811
0.359997
0.373199
0.385981
0.397825
0.407818
0.41497
0.41882
0.419376
0.415712
0.406763
0.39335
0.376882
0.359108
0.342542
0.327965
0.24355
0.258561
0.26884
0.274636
0.277722
0.278981
0.279525
0.277249
0.274523
0.271691
0.2688
0.266093
0.264785
0.265063
0.265997
0.268646
0.271518
0.274526
0.277614
0.280789
0.284445
0.288728
0.294155
0.30075
0.308995
0.318249
0.328008
0.337446
0.34572
0.352087
0.355994
0.356781
0.352997
0.342152
0.324503
0.303449
0.281845
0.262492
0.246241
0.233882
0.224151
0.21688
0.211812
0.208058
0.205504
0.20398
0.203411
0.203767
0.20445
0.205159
0.205999
0.20675
0.207574
0.209668
0.21108
0.212259
0.213671
0.21457
0.215274
0.21467
0.213807
0.212604
0.210682
0.209609
0.20808
0.206491
0.205449
0.204994
0.204997
0.205468
0.205949
0.205393
0.205812
0.206049
0.207149
0.20925
0.212631
0.217369
0.22339
0.230296
0.23671
0.243073
0.24967
0.257264
0.266399
0.276545
0.284053
0.28579
0.280634
0.268771
0.255964
0.245428
0.237817
0.231908
0.225648
0.218231
0.210444
0.204251
0.199877
0.197221
0.195957
0.195516
0.195244
0.194391
0.192758
0.190687
0.188883
0.187487
0.186634
0.186258
0.186044
0.185688
0.184935
0.183838
0.18278
0.181834
0.181059
0.180432
0.179907
0.17952
0.17927
0.179146
0.179091
0.178989
0.178881
0.178835
0.179016
0.179455
0.180076
0.180772
0.181441
0.182127
0.183037
0.184303
0.185978
0.187918
0.190033
0.192502
0.195578
0.199389
0.20381
0.208616
0.213542
0.218385
0.222904
0.22667
0.229209
0.230368
0.230236
0.228378
0.224512
0.218994
0.212402
0.205538
0.199438
0.194305
0.201979
0.209403
0.214417
0.217064
0.218066
0.217878
0.216728
0.214639
0.211493
0.208213
0.205751
0.204179
0.203001
0.202576
0.202576
0.203492
0.204582
0.205761
0.206937
0.208142
0.20961
0.211431
0.213867
0.216956
0.220889
0.225439
0.230295
0.234957
0.238982
0.241973
0.243635
0.243667
0.241259
0.235098
0.225527
0.214645
0.204053
0.194966
0.18753
0.181964
0.177657
0.174434
0.172168
0.170525
0.169448
0.16884
0.16866
0.168839
0.169132
0.169458
0.169801
0.170087
0.170397
0.171225
0.171786
0.172262
0.172834
0.1732
0.173496
0.17321
0.172792
0.172254
0.171402
0.170924
0.170277
0.16962
0.16919
0.169004
0.169003
0.16923
0.169424
0.169229
0.169367
0.169437
0.169824
0.170604
0.171901
0.173754
0.17613
0.178817
0.181214
0.183636
0.186232
0.189363
0.193328
0.19797
0.201534
0.202332
0.199733
0.193899
0.187918
0.183206
0.179911
0.177336
0.174688
0.17172
0.168667
0.166315
0.16471
0.163724
0.16322
0.163026
0.16292
0.162621
0.162056
0.161372
0.160788
0.160333
0.160052
0.159908
0.159815
0.159694
0.159495
0.15916
0.158804
0.158471
0.158172
0.157923
0.157718
0.157578
0.157499
0.15746
0.157434
0.157377
0.157306
0.157256
0.157267
0.157366
0.157528
0.157722
0.157891
0.158044
0.158265
0.158592
0.159062
0.159646
0.160264
0.161027
0.162058
0.163363
0.16489
0.166538
0.168241
0.169957
0.171592
0.172964
0.173869
0.174245
0.17413
0.17331
0.17167
0.169375
0.1667
0.164018
0.161727
0.159869
0.195192
0.197101
0.198793
0.199244
0.198903
0.197877
0.195634
0.191558
0.187448
0.184132
0.18182
0.18025
0.179353
0.179067
0.178907
0.179252
0.179572
0.179943
0.18029
0.180621
0.181062
0.18168
0.182619
0.183871
0.185671
0.187779
0.190009
0.192122
0.193896
0.195157
0.195757
0.195541
0.193944
0.190363
0.185166
0.1796
0.174457
0.170213
0.166866
0.164407
0.162519
0.161077
0.160034
0.159297
0.158842
0.158621
0.158608
0.158753
0.158906
0.159114
0.159276
0.159378
0.159476
0.159737
0.159921
0.160094
0.160306
0.160454
0.160564
0.160444
0.160262
0.160064
0.159696
0.159463
0.159179
0.158906
0.158739
0.158687
0.158706
0.158821
0.158866
0.158787
0.158782
0.15878
0.158914
0.159206
0.159695
0.160379
0.161242
0.162219
0.163014
0.163786
0.164624
0.165724
0.167262
0.169239
0.170871
0.171255
0.169986
0.167143
0.164336
0.162152
0.160654
0.159648
0.158639
0.157464
0.15627
0.155413
0.154833
0.154488
0.154325
0.154253
0.15421
0.154102
0.153954
0.153769
0.153579
0.153419
0.153323
0.153297
0.15328
0.153229
0.153171
0.15305
0.152922
0.152766
0.152619
0.152494
0.152399
0.152332
0.152294
0.152279
0.152257
0.15221
0.152153
0.152113
0.152092
0.152094
0.152125
0.152158
0.152176
0.152173
0.152177
0.152204
0.152281
0.152417
0.152541
0.152734
0.15305
0.15345
0.153897
0.154362
0.154845
0.155329
0.155799
0.156203
0.156473
0.156569
0.156481
0.156067
0.155314
0.154327
0.153232
0.152187
0.151292
0.150564
0.204937
0.200716
0.199592
0.198813
0.196819
0.194666
0.191308
0.18576
0.180458
0.176458
0.173878
0.17205
0.170865
0.170267
0.169834
0.169802
0.169812
0.169768
0.16972
0.169656
0.169639
0.169692
0.169937
0.170381
0.171132
0.172092
0.173063
0.173899
0.174496
0.174768
0.174711
0.174291
0.17329
0.171286
0.168456
0.165582
0.16306
0.161061
0.159519
0.158441
0.157605
0.156889
0.15633
0.155938
0.155716
0.15561
0.155638
0.155794
0.15595
0.156064
0.156122
0.156142
0.156162
0.156234
0.156278
0.156339
0.156434
0.156517
0.156588
0.156526
0.156433
0.156345
0.156135
0.156006
0.15585
0.155714
0.155641
0.155625
0.155646
0.155715
0.155737
0.155734
0.1557
0.155692
0.155728
0.155831
0.156025
0.156293
0.156618
0.156929
0.157086
0.157184
0.15731
0.157623
0.158183
0.158992
0.159658
0.15975
0.158999
0.157562
0.156254
0.155323
0.154665
0.154148
0.153629
0.153066
0.152632
0.152405
0.152224
0.152088
0.151984
0.151915
0.151858
0.151808
0.151737
0.151679
0.15166
0.151644
0.151617
0.151595
0.15159
0.151586
0.15155
0.151509
0.15144
0.151345
0.151244
0.151163
0.151101
0.151064
0.151041
0.151005
0.150981
0.15094
0.15089
0.150853
0.150832
0.150824
0.150815
0.150811
0.150784
0.150736
0.150675
0.150619
0.150579
0.150561
0.150541
0.150559
0.150647
0.15074
0.150832
0.15089
0.15094
0.15097
0.15099
0.150992
0.150967
0.150901
0.150814
0.150628
0.15029
0.14982
0.149285
0.14878
0.148386
0.14809
0.253231
0.221195
0.213084
0.208103
0.203598
0.198396
0.191854
0.185362
0.179065
0.174431
0.170961
0.169087
0.167873
0.167148
0.166601
0.166271
0.166069
0.165877
0.165666
0.165395
0.165134
0.164875
0.164815
0.164898
0.165111
0.165448
0.165751
0.165921
0.165944
0.165809
0.165465
0.164996
0.164319
0.163136
0.161547
0.159963
0.158672
0.157677
0.156983
0.156521
0.156109
0.155685
0.155276
0.154994
0.154845
0.154792
0.154876
0.155023
0.155124
0.155217
0.155257
0.155258
0.155251
0.155214
0.155199
0.155205
0.15523
0.155278
0.1553
0.155283
0.155229
0.15519
0.155085
0.154974
0.15487
0.154789
0.154748
0.154763
0.154791
0.154865
0.154868
0.154891
0.15482
0.1548
0.154792
0.154836
0.154919
0.155021
0.155147
0.155209
0.155114
0.154931
0.154744
0.154742
0.154859
0.155114
0.155403
0.155438
0.154974
0.154078
0.153286
0.15272
0.15239
0.152135
0.151884
0.151705
0.151529
0.151386
0.151288
0.151229
0.151176
0.151127
0.151102
0.151094
0.151107
0.151113
0.151119
0.151119
0.151115
0.151119
0.151114
0.151111
0.151133
0.151132
0.151101
0.151028
0.150939
0.150864
0.150809
0.150777
0.150768
0.150771
0.15075
0.150716
0.150666
0.150615
0.15058
0.15055
0.150524
0.150499
0.150459
0.150397
0.150318
0.15024
0.150167
0.150099
0.150039
0.149996
0.149985
0.149976
0.149949
0.149882
0.149768
0.149621
0.149474
0.149344
0.149236
0.149161
0.149102
0.148963
0.148727
0.148429
0.148105
0.14781
0.147587
0.147421
0.349769
0.27451
0.250568
0.236226
0.225593
0.214458
0.200621
0.188997
0.180591
0.174371
0.170496
0.168018
0.16659
0.16573
0.165075
0.165039
0.164616
0.164375
0.16412
0.163772
0.163385
0.162989
0.162766
0.162645
0.162674
0.16266
0.162632
0.162509
0.162238
0.161813
0.161307
0.160831
0.160322
0.159488
0.158478
0.157559
0.156876
0.156392
0.156082
0.155846
0.15555
0.155196
0.15486
0.154634
0.154526
0.1545
0.154575
0.154706
0.15479
0.154898
0.154938
0.154934
0.154924
0.154891
0.154873
0.154885
0.154913
0.154943
0.154989
0.154975
0.154926
0.154884
0.154775
0.154678
0.154598
0.15453
0.154501
0.154517
0.154541
0.154599
0.154591
0.154617
0.154532
0.154513
0.154507
0.15454
0.154586
0.154632
0.154678
0.154679
0.154492
0.154197
0.153908
0.153753
0.153729
0.153794
0.153886
0.153856
0.153521
0.15294
0.15244
0.152059
0.151752
0.151611
0.151451
0.151269
0.151211
0.1512
0.151196
0.15113
0.151105
0.151083
0.151051
0.151036
0.151048
0.151078
0.151093
0.1511
0.1511
0.151099
0.151097
0.151096
0.151081
0.151055
0.151015
0.150943
0.150857
0.150789
0.150737
0.150697
0.150672
0.150662
0.150635
0.150587
0.15054
0.150512
0.150481
0.150465
0.15045
0.150415
0.15037
0.150304
0.150225
0.150139
0.150059
0.149983
0.149912
0.14986
0.149835
0.149802
0.149738
0.149623
0.149448
0.14924
0.149031
0.148851
0.148709
0.148608
0.148547
0.148446
0.148264
0.14803
0.147786
0.14757
0.147395
0.147264
0.394274
0.316
0.279069
0.262934
0.24679
0.231123
0.211541
0.195076
0.183777
0.176445
0.171551
0.168339
0.166419
0.165351
0.164698
0.164335
0.164055
0.163779
0.163479
0.163107
0.16268
0.162235
0.161942
0.161729
0.161615
0.161464
0.16125
0.160962
0.160555
0.160038
0.159479
0.159047
0.158642
0.158023
0.157304
0.15669
0.156267
0.155992
0.15578
0.155594
0.155376
0.155093
0.154793
0.154588
0.154485
0.154452
0.154511
0.15466
0.154799
0.154887
0.154912
0.154892
0.154865
0.154793
0.154758
0.154749
0.15475
0.15479
0.154804
0.154796
0.154759
0.154733
0.154658
0.154568
0.154497
0.154437
0.154416
0.154436
0.154475
0.154531
0.154521
0.154545
0.154458
0.154438
0.154428
0.15445
0.154487
0.154513
0.15454
0.154495
0.154264
0.153943
0.153627
0.153414
0.153285
0.153226
0.15324
0.153217
0.152934
0.152444
0.152039
0.151785
0.151608
0.151418
0.151291
0.15118
0.151118
0.151121
0.151122
0.151137
0.151077
0.151024
0.150985
0.150972
0.150986
0.150992
0.151021
0.151042
0.151048
0.151048
0.151044
0.151044
0.15106
0.151058
0.151029
0.150964
0.150884
0.150818
0.150769
0.150743
0.150732
0.150715
0.150694
0.150648
0.150594
0.150551
0.150533
0.150491
0.150459
0.150424
0.150378
0.15031
0.150222
0.150129
0.150042
0.14996
0.14988
0.149823
0.149782
0.149736
0.149662
0.149537
0.14935
0.149129
0.148903
0.1487
0.14854
0.148432
0.148376
0.148282
0.14812
0.147918
0.147705
0.147513
0.147356
0.147235
0.37134
0.328207
0.295302
0.278922
0.256413
0.238197
0.217019
0.198655
0.185558
0.177341
0.171803
0.168592
0.16671
0.165576
0.164808
0.16413
0.163846
0.163564
0.163252
0.162874
0.162435
0.161956
0.161614
0.161356
0.161195
0.160992
0.16072
0.160357
0.159849
0.159237
0.158601
0.158093
0.157701
0.157222
0.156713
0.156285
0.15599
0.15576
0.155603
0.155482
0.155307
0.155037
0.154728
0.154516
0.15441
0.15438
0.154464
0.154624
0.154721
0.154794
0.154825
0.154822
0.154808
0.154754
0.154725
0.154719
0.154737
0.154769
0.154799
0.154803
0.154772
0.154737
0.154662
0.154561
0.154471
0.154407
0.154381
0.154398
0.154425
0.154488
0.154486
0.154521
0.154436
0.154409
0.154387
0.154407
0.154443
0.154473
0.154487
0.154429
0.154187
0.153849
0.153511
0.153295
0.153172
0.15309
0.153042
0.15301
0.152779
0.152339
0.151962
0.151672
0.151504
0.151373
0.151249
0.15116
0.151115
0.151145
0.151099
0.151033
0.150987
0.150955
0.150941
0.150936
0.150935
0.150979
0.151005
0.151003
0.15101
0.151027
0.151025
0.151024
0.151032
0.15102
0.150981
0.150904
0.150813
0.150741
0.15069
0.15066
0.150647
0.150643
0.150618
0.150588
0.15054
0.150497
0.150456
0.150467
0.150422
0.150395
0.150348
0.150281
0.150198
0.150111
0.15003
0.149949
0.149877
0.149824
0.149781
0.149729
0.149652
0.149517
0.149343
0.149112
0.148887
0.148686
0.148523
0.14841
0.148337
0.148248
0.148102
0.14791
0.147697
0.147496
0.147344
0.147236
0.336185
0.318821
0.299402
0.283756
0.260498
0.239092
0.217901
0.199544
0.18615
0.177612
0.171911
0.168532
0.166667
0.165465
0.164514
0.164108
0.163696
0.163389
0.163094
0.162698
0.16225
0.161757
0.161392
0.161124
0.160953
0.160742
0.160479
0.160053
0.159557
0.158983
0.158389
0.157928
0.157557
0.157082
0.156586
0.156155
0.155862
0.155681
0.155567
0.155483
0.155322
0.155049
0.15474
0.154529
0.154425
0.154394
0.154464
0.154612
0.154735
0.154845
0.154869
0.154839
0.154805
0.154735
0.154695
0.15469
0.154705
0.15474
0.154768
0.154767
0.154729
0.154705
0.154628
0.154531
0.154457
0.154393
0.154366
0.154382
0.154413
0.154476
0.154464
0.154509
0.154423
0.154398
0.154379
0.154396
0.154428
0.154454
0.154473
0.154409
0.154156
0.153812
0.15346
0.153215
0.153094
0.153053
0.153015
0.152934
0.152647
0.15225
0.151917
0.151644
0.151437
0.151313
0.151215
0.151127
0.151084
0.151076
0.151071
0.151049
0.151019
0.150969
0.150928
0.150938
0.150982
0.150981
0.150987
0.151007
0.150998
0.150968
0.150973
0.150992
0.150996
0.150987
0.150954
0.150884
0.150805
0.150745
0.150702
0.15067
0.150649
0.150633
0.150609
0.150561
0.150519
0.150491
0.150467
0.150424
0.150423
0.150387
0.150341
0.150275
0.150197
0.150111
0.15003
0.14995
0.149876
0.149801
0.149777
0.149738
0.149649
0.149512
0.149307
0.149084
0.148858
0.148666
0.148527
0.148445
0.148395
0.148283
0.148098
0.147879
0.147663
0.147477
0.147332
0.147224
0.318342
0.309477
0.299793
0.284338
0.262465
0.238439
0.216825
0.199212
0.186372
0.177873
0.172192
0.168572
0.166438
0.165091
0.164764
0.164302
0.163935
0.163583
0.163236
0.162818
0.162356
0.161863
0.161483
0.16116
0.16092
0.160645
0.160304
0.159866
0.159305
0.158653
0.158055
0.157652
0.157337
0.156912
0.156458
0.156077
0.155837
0.155683
0.155579
0.155494
0.15532
0.155037
0.154734
0.154543
0.15446
0.154448
0.154527
0.154638
0.154702
0.154781
0.15482
0.15482
0.154805
0.154745
0.154713
0.154707
0.154716
0.154749
0.154779
0.154774
0.154738
0.154705
0.154621
0.154538
0.154472
0.154416
0.154391
0.154405
0.154422
0.154481
0.154474
0.154502
0.15442
0.154409
0.154401
0.154414
0.154435
0.154447
0.154464
0.154411
0.154158
0.153807
0.153454
0.153191
0.153009
0.152916
0.152886
0.152834
0.152589
0.152173
0.151826
0.151601
0.151473
0.15133
0.151229
0.151145
0.151098
0.151085
0.151082
0.151111
0.151071
0.151028
0.151008
0.150991
0.151003
0.151021
0.151045
0.151057
0.151059
0.151057
0.151052
0.151044
0.151056
0.151053
0.151022
0.150965
0.150882
0.150814
0.150759
0.150724
0.15071
0.150699
0.150674
0.150627
0.150582
0.150525
0.150504
0.150471
0.15045
0.150418
0.150376
0.150307
0.150218
0.150129
0.150044
0.149961
0.149874
0.149829
0.149776
0.149718
0.149635
0.1495
0.149297
0.149064
0.148826
0.148614
0.148444
0.148337
0.148285
0.148198
0.148046
0.147862
0.147668
0.147495
0.14735
0.147233
0.300866
0.30167
0.290044
0.275377
0.259142
0.238133
0.217093
0.199408
0.186512
0.17782
0.172188
0.168488
0.166513
0.165526
0.164451
0.16403
0.16369
0.163423
0.163112
0.162738
0.162287
0.161791
0.16143
0.161126
0.160896
0.160622
0.160269
0.15985
0.159249
0.158537
0.157831
0.157326
0.157027
0.156672
0.156295
0.155988
0.155797
0.15567
0.15559
0.155496
0.155313
0.155035
0.154729
0.154528
0.154428
0.1544
0.154482
0.154642
0.154772
0.154847
0.154871
0.154853
0.154829
0.154768
0.154739
0.15473
0.15473
0.154756
0.154774
0.154771
0.154745
0.154721
0.154646
0.154558
0.154482
0.154427
0.154408
0.154428
0.154461
0.154522
0.154505
0.154529
0.154441
0.154422
0.154407
0.154426
0.154448
0.154457
0.154456
0.154405
0.154158
0.153792
0.153438
0.153196
0.153033
0.152927
0.152894
0.152881
0.152659
0.152232
0.151887
0.151649
0.151477
0.151356
0.151234
0.151135
0.151101
0.151134
0.151095
0.15103
0.150991
0.150966
0.150955
0.150946
0.150912
0.150958
0.150997
0.151007
0.151032
0.151069
0.151061
0.151062
0.151069
0.151054
0.151034
0.150961
0.150881
0.150815
0.150765
0.150733
0.150714
0.150707
0.150698
0.150656
0.150591
0.150555
0.150511
0.150525
0.15047
0.150443
0.150398
0.150332
0.150242
0.150145
0.150053
0.149968
0.149888
0.149837
0.149779
0.149715
0.149633
0.149495
0.149318
0.149081
0.148845
0.14863
0.148446
0.148314
0.14824
0.148175
0.14806
0.147895
0.147693
0.147495
0.147348
0.147248
0.2708
0.273154
0.26716
0.25648
0.24301
0.228061
0.211821
0.196771
0.185249
0.177084
0.171518
0.168057
0.166306
0.165343
0.164355
0.163977
0.163598
0.163337
0.163041
0.162642
0.162189
0.161699
0.161332
0.161068
0.160874
0.160631
0.160318
0.15987
0.159319
0.158678
0.15806
0.15761
0.157261
0.156834
0.156402
0.156037
0.155802
0.155663
0.155575
0.155483
0.155315
0.155041
0.15473
0.154522
0.154423
0.154396
0.154473
0.154611
0.15472
0.154823
0.154853
0.154838
0.154815
0.154749
0.154714
0.154708
0.154712
0.154754
0.154779
0.154781
0.154747
0.154718
0.154649
0.154549
0.15447
0.154403
0.154374
0.154391
0.154424
0.154489
0.154487
0.154534
0.154447
0.154421
0.154396
0.154413
0.154445
0.154469
0.154478
0.154418
0.154169
0.153816
0.15346
0.153223
0.153081
0.152998
0.152938
0.152866
0.152604
0.152199
0.151877
0.151632
0.15144
0.151292
0.151189
0.151115
0.151076
0.151076
0.151075
0.151038
0.151002
0.150947
0.150905
0.150903
0.150951
0.150983
0.151001
0.151021
0.151015
0.151001
0.151009
0.151013
0.151021
0.151016
0.150978
0.150915
0.150834
0.150772
0.150732
0.150707
0.150689
0.150677
0.150648
0.150619
0.150572
0.150542
0.150519
0.150481
0.150466
0.150432
0.150386
0.15032
0.150241
0.150157
0.15007
0.149984
0.149909
0.149833
0.149799
0.149755
0.149669
0.149531
0.14933
0.149097
0.148864
0.148662
0.148512
0.148426
0.14838
0.148277
0.148099
0.147888
0.147683
0.1475
0.147356
0.147254
0.239373
0.231737
0.226813
0.223048
0.216724
0.206482
0.196983
0.187692
0.179938
0.174197
0.170333
0.167766
0.166082
0.164977
0.164582
0.164221
0.163891
0.163561
0.163218
0.16281
0.162339
0.161844
0.16147
0.161151
0.160919
0.160643
0.160309
0.159871
0.159299
0.158623
0.157966
0.157499
0.157189
0.156793
0.156372
0.15603
0.15582
0.155674
0.155561
0.155471
0.155308
0.155047
0.154744
0.154551
0.154463
0.154443
0.154505
0.154657
0.154752
0.154825
0.154855
0.154843
0.154824
0.154754
0.154718
0.154713
0.154728
0.154767
0.154801
0.154795
0.154759
0.154724
0.154642
0.15455
0.154472
0.154408
0.154383
0.154398
0.154423
0.154483
0.154478
0.154512
0.15443
0.154412
0.154396
0.154411
0.154439
0.154469
0.154492
0.154423
0.154167
0.153829
0.153473
0.153207
0.153032
0.152938
0.152913
0.152878
0.152636
0.152222
0.151857
0.151603
0.151465
0.151355
0.151256
0.151154
0.151106
0.151114
0.151109
0.151122
0.151076
0.151049
0.151037
0.151031
0.151026
0.151023
0.151039
0.151036
0.151042
0.151046
0.151041
0.151048
0.151056
0.151043
0.15101
0.150945
0.150857
0.150785
0.150731
0.150699
0.150688
0.150683
0.150664
0.150616
0.15057
0.150523
0.150492
0.150477
0.150454
0.150431
0.150391
0.150328
0.150245
0.150157
0.150074
0.149996
0.149923
0.149871
0.149827
0.149771
0.149684
0.149544
0.14935
0.149116
0.148877
0.148663
0.148494
0.148381
0.148316
0.148232
0.148084
0.1479
0.147698
0.147517
0.147377
0.147274
0.220813
0.209485
0.2037
0.200856
0.19926
0.193248
0.187523
0.181808
0.176561
0.172244
0.169128
0.16717
0.165913
0.165236
0.164356
0.164024
0.163731
0.163446
0.16312
0.162713
0.162255
0.161763
0.161405
0.161096
0.160875
0.160614
0.160272
0.159821
0.159249
0.158595
0.15798
0.157539
0.157219
0.156822
0.156408
0.156061
0.155829
0.155668
0.155557
0.155473
0.155303
0.155035
0.154726
0.154522
0.154424
0.154397
0.154478
0.154617
0.154732
0.154826
0.154856
0.154836
0.15481
0.154753
0.154723
0.154718
0.154723
0.154759
0.154781
0.154781
0.154751
0.154725
0.154649
0.154554
0.154475
0.154412
0.154387
0.154402
0.154436
0.1545
0.154485
0.154515
0.154431
0.154413
0.154394
0.154411
0.154436
0.154457
0.15448
0.154429
0.154176
0.153823
0.153467
0.153206
0.15304
0.152942
0.152902
0.152872
0.152641
0.152222
0.151871
0.151622
0.151454
0.151319
0.151203
0.151111
0.151081
0.15107
0.151039
0.150987
0.150962
0.150914
0.150881
0.150869
0.150889
0.15091
0.150953
0.151002
0.15101
0.151012
0.151011
0.151009
0.151015
0.151009
0.150982
0.150914
0.150853
0.150806
0.15077
0.150746
0.150727
0.150704