/*--------------------------------*- C++ -*----------------------------------*\
| =========                 |                                                 |
| \\      /  F ield         | OpenFOAM: The Open Source CFD Toolbox           |
|  \\    /   O peration     | Version:  v1912                                 |
|   \\  /    A nd           | Website:  www.openfoam.com                      |
|    \\/     M anipulation  |                                                 |
\*---------------------------------------------------------------------------*/
FoamFile
{
    version     2.0;
    format      ascii;
    class       volSymmTensorField;
    location    "80";
    object      R;
}
// * * * * * * * * * * * * * * * * * * * * * * * * * * * * * * * * * * * * * //

dimensions      [0 2 -2 0 0 0 0];


internalField   nonuniform List<symmTensor> 
14268
(
(0.0203003 -0.000910768 0 0.0390603 0 0.0208146)
(0.0186203 -0.00220653 0 0.0354179 0 0.0180133)
(0.0191594 -0.00275865 0 0.0379105 0 0.0191212)
(0.0206736 -0.00276091 0 0.0460336 0 0.0218147)
(0.0197396 -0.00300151 0 0.0459528 0 0.0204203)
(0.0212801 -0.00342168 0 0.0495153 0 0.0219341)
(0.0204002 -0.000316922 0 0.0438259 0 0.0209541)
(0.00345565 -0.00023085 0 0.00327471 0 0.0028374)
(0.0115506 -0.00170012 0 0.00319965 0 0.00945217)
(0.0224735 -0.00424581 0 0.0277182 0 0.0206698)
(0.027015 -0.00365102 0 0.0403453 0 0.0263439)
(0.0302217 -0.00477503 0 0.0478461 0 0.0302935)
(0.0308718 -0.00600157 0 0.0436407 0 0.0302515)
(0.0356948 -0.0064464 0 0.0526756 0 0.0354707)
(0.0439353 -0.0066579 0 0.0768338 0 0.0454105)
(0.0345875 0.000974616 0 0.0550952 0 0.0367536)
(0.0107848 0.00178722 0 0.0043734 0 0.010818)
(0.00720676 0.000910984 0 0.00570674 0 0.00677989)
(0.0120413 -0.00140247 0 0.012768 0 0.0115052)
(0.0150044 -0.00259623 0 0.0202705 0 0.0143795)
(0.0160997 -0.00285805 0 0.0238296 0 0.0158719)
(0.016712 -0.00341162 0 0.0250184 0 0.0169389)
(0.0180715 -0.00415327 0 0.0274142 0 0.0187079)
(0.0192067 -0.00461602 0 0.0298801 0 0.020081)
(0.0185758 -0.0046614 0 0.028069 0 0.0191714)
(0.0161922 -0.00420346 0 0.0224006 0 0.0162636)
(0.0128733 -0.00372287 0 0.0142708 0 0.0123369)
(0.0102584 -0.00294997 0 0.00831495 0 0.0093181)
(0.00887246 -0.00225872 0 0.00581346 0 0.00783884)
(0.00747388 -0.00116108 0 0.00294017 0 0.00670814)
(0.00448226 -0.000287079 0 3.00321e-07 0 0.00403317)
(0.00234526 -0.000207138 0 0.00144445 0 0.00200186)
(0.00241801 -0.000259135 0 0.00273849 0 0.00197419)
(0.0044534 -0.000845251 0 0.00271557 0 0.00350471)
(0.0108703 -0.00244539 0 0.00953115 0 0.00923476)
(0.0213277 -0.00380384 0 0.0286481 0 0.0206518)
(0.0325671 -0.00362606 0 0.0535703 0 0.0350074)
(0.0334051 -0.00182533 0 0.0582412 0 0.03746)
(0.0248271 0.000356917 0 0.0379131 0 0.0271777)
(0.00785416 0.000735722 0 0.0107703 0 0.0077939)
(0.00451059 -0.00102265 0 0.00537163 0 0.00363725)
(0.0132015 -0.00247714 0 0.0273706 0 0.0126175)
(0.0178518 -0.00233188 0 0.0396604 0 0.0183339)
(0.0208783 -0.00185146 0 0.0456075 0 0.0218916)
(0.0201988 -0.0013907 0 0.0419852 0 0.0210123)
(0.0173408 -1.52406e-05 0 0.0341838 0 0.0178766)
(0.0116368 0.000591874 0 0.0199206 0 0.0116215)
(0.00907116 0.000475784 0 0.0135459 0 0.00883799)
(0.00895025 -2.32191e-05 0 0.0130773 0 0.00906246)
(0.00851298 -0.000332247 0 0.0121148 0 0.00894616)
(0.0081046 -0.000674582 0 0.0106929 0 0.00834884)
(0.00789105 -0.00113483 0 0.00882823 0 0.00746726)
(0.00903238 -0.0017133 0 0.00899116 0 0.00801663)
(0.0134601 -0.00294274 0 0.0148105 0 0.0121477)
(0.022073 -0.0041715 0 0.031664 0 0.0220598)
(0.027673 -0.0030774 0 0.0466273 0 0.0300976)
(0.0260389 -0.00113725 0 0.0447978 0 0.0287818)
(0.0202288 0.000421649 0 0.0320382 0 0.021936)
(0.0106718 0.000350553 0 0.00998067 0 0.0111354)
(0.0053679 -8.90637e-05 0 0.00187061 0 0.00512028)
(0.00410166 -0.000269884 0 0.000667946 0 0.0035633)
(0.0034627 -0.00026573 0 0.00013279 0 0.00286512)
(0.0034585 -0.000309281 0 1e-15 0 0.00282515)
(0.00434174 -0.000766257 0 0.00115502 0 0.00364895)
(0.00749469 -0.00158808 0 0.00615645 0 0.0069232)
(0.0135918 -0.00250086 0 0.0175603 0 0.0140457)
(0.0188348 -0.00198944 0 0.0298473 0 0.021209)
(0.0182786 -0.00088482 0 0.0294699 0 0.0209603)
(0.0139319 0.000359602 0 0.0201334 0 0.0156643)
(0.00601564 0.00013275 0 0.0061048 0 0.00601798)
(0.00578974 -0.000996662 0 0.00432642 0 0.00483089)
(0.0146315 -0.00379145 0 0.0197689 0 0.0127698)
(0.0291621 -0.00516796 0 0.0535587 0 0.0285388)
(0.0348571 -0.00256845 0 0.0707239 0 0.0362902)
(0.0307202 0.00154333 0 0.0621592 0 0.0325003)
(0.0166767 0.00233992 0 0.0306119 0 0.0172276)
(0.00627319 0.000947681 0 0.0112694 0 0.00626172)
(0.00351975 -7.73783e-05 0 0.00719982 0 0.00358939)
(0.00292984 -0.000280819 0 0.00674969 0 0.00306249)
(0.00282676 -0.000330536 0 0.00669507 0 0.00292097)
(0.00285308 -0.000365769 0 0.00612854 0 0.00283868)
(0.00322996 -0.000456558 0 0.00642103 0 0.00310255)
(0.0036705 -0.00044294 0 0.00709276 0 0.00337426)
(0.00355601 -0.000318539 0 0.00657478 0 0.00321288)
(0.00355473 -0.000432964 0 0.00572433 0 0.00315494)
(0.00430483 -0.000935099 0 0.00595544 0 0.00379405)
(0.00476739 -0.00116102 0 0.00606456 0 0.00439144)
(0.00432407 -0.00108491 0 0.00470089 0 0.0040339)
(0.00343116 -0.00089653 0 0.00250604 0 0.00310723)
(0.00247376 -0.000526886 0 0.000739858 0 0.00218939)
(0.00175683 -0.000284872 0 0.000298247 0 0.00158828)
(0.00121968 -0.000105271 0 0.00104618 0 0.00110983)
(0.000927116 -8.3233e-05 0 0.000978004 0 0.000795673)
(0.000846261 -0.000143056 0 0.000397155 0 0.000659277)
(0.000556555 -6.68819e-05 0 0.000101444 0 0.000424951)
(0.000308961 -2.34526e-05 0 3.06163e-05 0 0.000238249)
(0.000250322 -1.60486e-05 0 1.71059e-05 0 0.00019401)
(0.000262331 -1.72468e-05 0 1.15896e-05 0 0.000203198)
(0.000326731 -2.14956e-05 0 1.43469e-05 0 0.000252704)
(0.000510195 -3.94392e-05 0 2.79429e-05 0 0.000398573)
(0.000844561 -0.000127761 0 0.000218679 0 0.000691802)
(0.00151315 -0.00029675 0 0.000976028 0 0.00133707)
(0.00256151 -0.000546172 0 0.00256397 0 0.0024428)
(0.00342116 -0.000677504 0 0.0043594 0 0.00348646)
(0.00357153 -0.000584653 0 0.00491056 0 0.00377187)
(0.00331097 -0.000461461 0 0.00434815 0 0.00350278)
(0.00287734 -0.000421782 0 0.00318291 0 0.00293165)
(0.00235449 -0.000345504 0 0.00197654 0 0.00228953)
(0.00226058 -0.000334807 0 0.00179229 0 0.00217454)
(0.0023978 -0.000390921 0 0.00204811 0 0.00231623)
(0.00257695 -0.000462559 0 0.00240064 0 0.00254091)
(0.00260627 -0.000485636 0 0.00239415 0 0.00256633)
(0.00261528 -0.000539098 0 0.00208403 0 0.00249362)
(0.00291641 -0.000666041 0 0.00226968 0 0.00268711)
(0.00382894 -0.000936052 0 0.00366915 0 0.00348362)
(0.0056511 -0.00140519 0 0.00728224 0 0.0052637)
(0.00660703 -0.00137617 0 0.00965152 0 0.00639782)
(0.00606246 -0.0008717 0 0.00865208 0 0.00600017)
(0.00460707 -0.000387408 0 0.00526138 0 0.00455616)
(0.0018826 -3.61767e-05 0 0.000914523 0 0.00181153)
(0.00034795 6.94615e-06 0 0.000135547 0 0.000340722)
(5.2867e-05 1.63917e-06 0 1.97735e-05 0 5.26955e-05)
(2.09291e-05 -2.75471e-06 0 1.59692e-05 0 1.93789e-05)
(1.28261e-05 -1.62676e-06 0 1.8318e-05 0 1.18216e-05)
(7.04301e-06 3.18768e-07 0 9.71338e-06 0 6.47616e-06)
(2.19852e-06 3.62108e-07 0 2.68737e-06 0 2.00369e-06)
(5.1313e-07 9.51659e-08 0 5.78307e-07 0 4.67385e-07)
(1.04166e-07 1.76403e-08 0 1.12754e-07 0 9.53828e-08)
(1.97536e-08 2.93029e-09 0 2.09348e-08 0 1.81972e-08)
(3.58602e-09 4.65604e-10 0 3.74777e-09 0 3.31845e-09)
(6.26083e-10 7.19741e-11 0 6.47569e-10 0 5.81173e-10)
(1.05022e-10 1.08444e-11 0 1.07778e-10 0 9.76958e-11)
(1.6909e-11 1.5888e-12 0 1.72496e-11 0 1.57528e-11)
(2.64143e-12 2.26477e-13 0 2.67747e-12 0 2.46337e-12)
(4.43963e-13 3.25982e-14 0 4.40647e-13 0 4.14274e-13)
(1.31989e-13 6.25965e-15 0 1.22161e-13 0 1.23176e-13)
(1.00378e-13 3.14099e-15 0 8.8401e-14 0 9.37325e-14)
(1.06654e-13 3.01637e-15 0 9.31656e-14 0 9.96585e-14)
(1.24574e-13 3.34761e-15 0 1.08737e-13 0 1.16533e-13)
(1.47054e-13 3.82353e-15 0 1.28609e-13 0 1.37717e-13)
(1.69804e-13 4.29188e-15 0 1.48944e-13 0 1.59273e-13)
(1.93557e-13 4.76293e-15 0 1.70303e-13 0 1.81793e-13)
(2.19559e-13 5.2434e-15 0 1.9378e-13 0 2.06563e-13)
(2.48104e-13 5.75847e-15 0 2.19654e-13 0 2.33711e-13)
(2.78565e-13 6.25601e-15 0 2.47378e-13 0 2.62864e-13)
(3.10844e-13 6.78345e-15 0 2.76946e-13 0 2.93683e-13)
(3.44395e-13 7.25525e-15 0 3.07615e-13 0 3.25928e-13)
(3.80379e-13 7.78582e-15 0 3.40863e-13 0 3.60363e-13)
(4.17721e-13 8.23058e-15 0 3.75306e-13 0 3.96459e-13)
(4.58935e-13 8.74842e-15 0 4.13976e-13 0 4.36179e-13)
(0.0570212 -0.00885578 0 0.156504 0 0.0591642)
(0.0531221 -0.0120437 0 0.143869 0 0.0500214)
(0.0521125 -0.012468 0 0.153005 0 0.0519846)
(0.0525524 -0.012381 0 0.189578 0 0.0581218)
(0.0476033 -0.013925 0 0.184011 0 0.0507271)
(0.0513864 -0.0164726 0 0.197216 0 0.0540009)
(0.0550378 -0.00891075 0 0.184168 0 0.0568205)
(0.0131021 -0.000783723 0 0.00980341 0 0.00987079)
(0.047754 -0.00778028 0 1e-15 0 0.0359535)
(0.0805285 -0.0144958 0 0.143535 0 0.0729181)
(0.0924171 -0.00882371 0 0.206715 0 0.0916185)
(0.102957 -0.0196524 0 0.24184 0 0.105871)
(0.109856 -0.0274872 0 0.220396 0 0.10901)
(0.125555 -0.0304762 0 0.25763 0 0.126221)
(0.151259 -0.03432 0 0.385786 0 0.160492)
(0.118931 0.00323465 0 0.257509 0 0.130344)
(0.041238 0.00728263 0 1e-15 0 0.0413989)
(0.0262536 0.00111719 0 0.00629695 0 0.0234948)
(0.0410897 -0.00769998 0 0.0455881 0 0.0382288)
(0.0482157 -0.0109116 0 0.0865001 0 0.045738)
(0.0510161 -0.0119606 0 0.106361 0 0.0505307)
(0.0520801 -0.0149001 0 0.110457 0 0.0539867)
(0.0561393 -0.019103 0 0.119413 0 0.0601108)
(0.0593766 -0.021158 0 0.130125 0 0.0647481)
(0.0588789 -0.0212874 0 0.12674 0 0.0631034)
(0.0531276 -0.018284 0 0.107511 0 0.0552246)
(0.044918 -0.0152077 0 0.0760721 0 0.0438881)
(0.0382081 -0.0123756 0 0.0487556 0 0.0343308)
(0.0340867 -0.00946864 0 0.0356531 0 0.0292623)
(0.0297069 -0.00469109 0 0.0198114 0 0.0258777)
(0.0203741 -0.000985404 0 1e-15 0 0.0178935)
(0.0100124 -0.000430075 0 0.00210122 0 0.00803624)
(0.00959578 -0.00143729 0 0.0109172 0 0.00713437)
(0.0185535 -0.00388055 0 0.0100959 0 0.0132881)
(0.0366275 -0.00943518 0 0.0334745 0 0.0292976)
(0.0641348 -0.0146299 0 0.104079 0 0.061603)
(0.092395 -0.0156449 0 0.19736 0 0.104198)
(0.0931233 -0.00958853 0 0.214254 0 0.112056)
(0.0724014 -0.00177886 0 0.135033 0 0.0833163)
(0.0248913 0.00106845 0 0.0420583 0 0.0246794)
(0.015398 -0.00504455 0 0.0243638 0 0.0112419)
(0.0338669 -0.0095089 0 0.112919 0 0.0315976)
(0.0448068 -0.0109603 0 0.159377 0 0.0469329)
(0.0531198 -0.00943312 0 0.180892 0 0.0576381)
(0.0530253 -0.00832897 0 0.166079 0 0.0565398)
(0.0470839 -0.00317479 0 0.13492 0 0.0492076)
(0.0340228 -5.84445e-05 0 0.0790772 0 0.0336993)
(0.0282923 0.00053761 0 0.0538159 0 0.0270284)
(0.0278886 -0.000700182 0 0.0512346 0 0.0284566)
(0.0263857 -0.00163456 0 0.0460642 0 0.0285905)
(0.0255188 -0.00243291 0 0.0401523 0 0.0270453)
(0.0259218 -0.00396233 0 0.0331497 0 0.0245583)
(0.029722 -0.00610371 0 0.0331024 0 0.0258953)
(0.042839 -0.0112717 0 0.0538838 0 0.0376792)
(0.0651921 -0.017208 0 0.115103 0 0.0657348)
(0.0775698 -0.0136669 0 0.170348 0 0.0889624)
(0.0728652 -0.00655895 0 0.164209 0 0.085501)
(0.0592058 -0.000780745 0 0.118647 0 0.0672673)
(0.037461 0.000371374 0 0.0360719 0 0.0401941)
(0.0227854 -0.000158166 0 0.000777428 0 0.0217916)
(0.0188021 -0.000731337 0 1e-15 0 0.0158576)
(0.0166089 -0.00103611 0 1e-15 0 0.0130491)
(0.0167986 -0.00133901 0 1e-15 0 0.0129293)
(0.0185813 -0.00315255 0 0.00522902 0 0.0148143)
(0.0256028 -0.00586616 0 0.0233969 0 0.0235373)
(0.0410794 -0.00939111 0 0.0650477 0 0.0442867)
(0.053972 -0.00812454 0 0.11063 0 0.0657097)
(0.0524932 -0.00415217 0 0.109505 0 0.0653426)
(0.04215 0.000785212 0 0.0756956 0 0.0506743)
(0.0211627 0.000651541 0 0.0213529 0 0.0212695)
(0.0218598 -0.00434826 0 0.0146294 0 0.0170425)
(0.0442471 -0.0151028 0 0.0751757 0 0.0362781)
(0.0802255 -0.0221708 0 0.203613 0 0.0773761)
(0.092251 -0.0138785 0 0.26767 0 0.0981116)
(0.0810855 0.00176542 0 0.232287 0 0.0882683)
(0.0455681 0.00621271 0 0.115361 0 0.0477732)
(0.0173611 0.00181445 0 0.0454443 0 0.0175109)
(0.00975331 -0.000611305 0 0.0308563 0 0.0103229)
(0.00753823 -0.00133111 0 0.0284873 0 0.0082212)
(0.00723927 -0.00170996 0 0.0288954 0 0.00768493)
(0.00788955 -0.00208518 0 0.0272877 0 0.00783042)
(0.00952585 -0.00257267 0 0.0285285 0 0.00886451)
(0.0111656 -0.00259284 0 0.0321074 0 0.00959966)
(0.0111489 -0.00199358 0 0.0301462 0 0.00928866)
(0.0115727 -0.00230378 0 0.0269103 0 0.0095258)
(0.0135377 -0.00352992 0 0.0286822 0 0.0115514)
(0.0152683 -0.0041437 0 0.0315732 0 0.0141078)
(0.0145101 -0.00407989 0 0.0259316 0 0.0136687)
(0.0127477 -0.00387284 0 0.0152361 0 0.0113946)
(0.0106065 -0.00277481 0 0.00490114 0 0.009069)
(0.00820661 -0.00156835 0 1e-15 0 0.00726972)
(0.00603034 -0.000917028 0 0.00219687 0 0.0052257)
(0.0049201 -0.000987816 0 0.00311553 0 0.00379922)
(0.00584926 -0.00118786 0 0.00184615 0 0.00407505)
(0.00500835 -0.000647282 0 0.000565982 0 0.00346173)
(0.0032658 -0.000191789 0 1e-15 0 0.00229339)
(0.00260593 -0.000113171 0 1e-15 0 0.00184069)
(0.00260762 -0.00013336 0 1e-15 0 0.00184147)
(0.00300696 -0.000174358 0 1e-15 0 0.00211082)
(0.00401972 -0.000263144 0 1e-15 0 0.00285871)
(0.00509054 -0.000743793 0 0.000905484 0 0.00385106)
(0.00655547 -0.00138479 0 0.00440957 0 0.00560363)
(0.00906302 -0.00227588 0 0.0109073 0 0.00873633)
(0.0110967 -0.0027642 0 0.0179967 0 0.0117305)
(0.0114275 -0.0024709 0 0.0201535 0 0.0126146)
(0.010895 -0.00196652 0 0.0180712 0 0.0120356)
(0.00995015 -0.00158744 0 0.0137724 0 0.0105439)
(0.00887075 -0.00125633 0 0.00926363 0 0.00883144)
(0.00868531 -0.00122349 0 0.0087424 0 0.00849289)
(0.00895318 -0.0014377 0 0.0100714 0 0.00883)
(0.0092871 -0.00171984 0 0.0116264 0 0.00948653)
(0.00940512 -0.00184343 0 0.0117103 0 0.00960773)
(0.00979138 -0.0022248 0 0.0103327 0 0.00952176)
(0.0108468 -0.00280623 0 0.0110503 0 0.010008)
(0.0132174 -0.00373588 0 0.0170815 0 0.0119368)
(0.0176975 -0.00523703 0 0.0323514 0 0.0164669)
(0.0200521 -0.00489495 0 0.0429259 0 0.0196948)
(0.0189328 -0.00293428 0 0.0392497 0 0.0190609)
(0.0155203 -0.00117334 0 0.0240407 0 0.0155955)
(0.00881497 0.000139775 0 0.00117854 0 0.00849589)
(0.00233871 0.000306395 0 1e-15 0 0.00236595)
(0.000466087 9.94633e-05 0 1e-15 0 0.000503943)
(0.00029295 -5.35539e-05 0 8.47337e-05 0 0.000248821)
(0.000208663 -6.38185e-05 0 0.000361243 0 0.000173981)
(0.000138668 5.07391e-06 0 0.000241981 0 0.000118377)
(5.4274e-05 1.63905e-05 0 7.61895e-05 0 4.59232e-05)
(1.3009e-05 4.37599e-06 0 1.60294e-05 0 1.10355e-05)
(2.66248e-06 8.04443e-07 0 3.09302e-06 0 2.28285e-06)
(5.12435e-07 1.34545e-07 0 5.75612e-07 0 4.43837e-07)
(9.43916e-08 2.16065e-08 0 1.03519e-07 0 8.23847e-08)
(1.66848e-08 3.37465e-09 0 1.79645e-08 0 1.46425e-08)
(2.82751e-09 5.13046e-10 0 3.00181e-09 0 2.49105e-09)
(4.59163e-10 7.57293e-11 0 4.8222e-10 0 4.05651e-10)
(7.23477e-11 1.08631e-11 0 7.50928e-11 0 6.40481e-11)
(1.23784e-11 1.574e-12 0 1.23589e-11 0 1.09787e-11)
(3.84799e-12 3.05777e-13 0 3.38509e-12 0 3.42226e-12)
(3.00954e-12 1.5547e-13 0 2.42397e-12 0 2.6835e-12)
(3.214e-12 1.49612e-13 0 2.55106e-12 0 2.86969e-12)
(3.75972e-12 1.66016e-13 0 2.9798e-12 0 3.3635e-12)
(4.43707e-12 1.89466e-13 0 3.52822e-12 0 3.97674e-12)
(5.12102e-12 2.1255e-13 0 4.09249e-12 0 4.60153e-12)
(5.83697e-12 2.3583e-13 0 4.68902e-12 0 5.25591e-12)
(6.61998e-12 2.59547e-13 0 5.34605e-12 0 5.97752e-12)
(7.48016e-12 2.84983e-13 0 6.07264e-12 0 6.76776e-12)
(8.39571e-12 3.09459e-13 0 6.85152e-12 0 7.61801e-12)
(9.36619e-12 3.35432e-13 0 7.68633e-12 0 8.5154e-12)
(1.037e-11 3.584e-13 0 8.54775e-12 0 9.4547e-12)
(1.14496e-11 3.84488e-13 0 9.49058e-12 0 1.0457e-11)
(1.25637e-11 4.06058e-13 0 1.04618e-11 0 1.15095e-11)
(1.38058e-11 4.31894e-13 0 1.1573e-11 0 1.26756e-11)
(0.0852649 -0.0199633 0 0.274656 0 0.088315)
(0.0795277 -0.0217454 0 0.262976 0 0.0742279)
(0.0764342 -0.0214753 0 0.271259 0 0.0757795)
(0.0744063 -0.0208611 0 0.327028 0 0.0828493)
(0.0670399 -0.023317 0 0.307047 0 0.0715508)
(0.0726697 -0.0267255 0 0.32488 0 0.0763206)
(0.0806989 -0.0195138 0 0.321249 0 0.0831828)
(0.0244807 -0.00183673 0 0.00519969 0 0.017495)
(0.0770059 -0.0163165 0 0.0156031 0 0.0564996)
(0.116848 -0.0197545 0 0.325755 0 0.106025)
(0.136654 -0.0110654 0 0.430661 0 0.136679)
(0.151841 -0.0335448 0 0.482231 0 0.157194)
(0.1631 -0.0473961 0 0.455322 0 0.162576)
(0.191604 -0.0565453 0 0.524294 0 0.192082)
(0.229403 -0.0603608 0 0.744002 0 0.243593)
(0.184146 -0.00126268 0 0.539741 0 0.202983)
(0.0700939 0.0107019 0 0.00971925 0 0.0709911)
(0.0474326 0.0025375 0 1e-15 0 0.0415435)
(0.0629031 -0.0122773 0 0.0922085 0 0.0576723)
(0.0708085 -0.0174139 0 0.177638 0 0.0669363)
(0.073579 -0.0189862 0 0.21085 0 0.0728895)
(0.0738406 -0.0239357 0 0.212847 0 0.0768398)
(0.0794374 -0.0306949 0 0.224893 0 0.0857535)
(0.0832993 -0.0329317 0 0.240982 0 0.0921126)
(0.0822396 -0.0323847 0 0.241981 0 0.0895844)
(0.0731929 -0.0275188 0 0.219326 0 0.0774241)
(0.0597134 -0.0215714 0 0.177824 0 0.0599708)
(0.0500722 -0.0177588 0 0.134471 0 0.0463283)
(0.0448931 -0.0138227 0 0.11203 0 0.0394513)
(0.0397655 -0.00738534 0 0.082602 0 0.0352533)
(0.0301349 -0.00333923 0 0.0201955 0 0.0270057)
(0.0168679 0.000233368 0 1e-15 0 0.0135048)
(0.01775 -0.000754606 0 0.00193374 0 0.0129263)
(0.0288765 -0.00500592 0 0.010596 0 0.020285)
(0.0545446 -0.0143049 0 0.0554335 0 0.0428532)
(0.0945655 -0.0227543 0 0.171961 0 0.0905829)
(0.136059 -0.0259308 0 0.326329 0 0.154966)
(0.13693 -0.018137 0 0.352524 0 0.167062)
(0.106658 -0.00545345 0 0.221924 0 0.124699)
(0.0390724 0.000271188 0 0.0729511 0 0.0386971)
(0.0242268 -0.00820548 0 0.0477871 0 0.0173531)
(0.0487008 -0.0158648 0 0.197401 0 0.044937)
(0.0643581 -0.0192936 0 0.273661 0 0.0673574)
(0.0767968 -0.0177828 0 0.308232 0 0.0834715)
(0.0773456 -0.0161758 0 0.283524 0 0.0826451)
(0.0684938 -0.00779991 0 0.229653 0 0.0716801)
(0.0499985 -0.00182858 0 0.136987 0 0.0494098)
(0.0421387 -0.000139847 0 0.094118 0 0.0399633)
(0.0410119 -0.00168901 0 0.0878377 0 0.0418623)
(0.0384634 -0.00316073 0 0.0767969 0 0.0419913)
(0.0374646 -0.00438436 0 0.0661999 0 0.0399414)
(0.0389156 -0.0066031 0 0.0551061 0 0.0368296)
(0.0450117 -0.00976307 0 0.0549528 0 0.0389581)
(0.0637798 -0.0176023 0 0.0885058 0 0.0558313)
(0.095668 -0.0272699 0 0.187555 0 0.0967771)
(0.113195 -0.0227701 0 0.276426 0 0.131217)
(0.106527 -0.0124692 0 0.267648 0 0.126546)
(0.086805 -0.00339494 0 0.196546 0 0.099941)
(0.0567959 -0.000769105 0 0.0741969 0 0.0617546)
(0.0366264 -0.000651808 0 0.00834181 0 0.0359786)
(0.0271948 -0.00104923 0 0.00282298 0 0.0242167)
(0.0217855 -0.00200306 0 0.00449502 0 0.018093)
(0.021498 -0.0026674 0 0.0100895 0 0.0172474)
(0.0248514 -0.00435823 0 0.0208843 0 0.0204099)
(0.0364517 -0.00840979 0 0.045362 0 0.0341505)
(0.0587298 -0.0137246 0 0.106989 0 0.0647319)
(0.077223 -0.0125824 0 0.178713 0 0.0961846)
(0.0755543 -0.00711677 0 0.179113 0 0.0960208)
(0.0607574 -0.000215848 0 0.128309 0 0.0744406)
(0.0330715 0.000501845 0 0.0401941 0 0.0330282)
(0.0341761 -0.00709302 0 0.0290344 0 0.0261725)
(0.0663867 -0.0250649 0 0.133757 0 0.0532237)
(0.122014 -0.0380074 0 0.35895 0 0.116967)
(0.139238 -0.0259156 0 0.459928 0 0.148111)
(0.118973 -0.00168989 0 0.378811 0 0.129864)
(0.0653049 0.00597688 0 0.178828 0 0.0687038)
(0.02501 0.0009711 0 0.0659576 0 0.0253048)
(0.0138358 -0.00113589 0 0.0379815 0 0.0149091)
(0.010398 -0.0020119 0 0.0331093 0 0.011483)
(0.00977213 -0.00295073 0 0.0380356 0 0.0103692)
(0.0107402 -0.00389766 0 0.0434744 0 0.0106048)
(0.0136769 -0.00490498 0 0.0498342 0 0.0125053)
(0.0163211 -0.00491083 0 0.0587042 0 0.0136805)
(0.0165212 -0.00382354 0 0.0573951 0 0.0133413)
(0.0171815 -0.00402088 0 0.0556003 0 0.0137882)
(0.0192551 -0.00539286 0 0.063992 0 0.016321)
(0.0205089 -0.00581483 0 0.0750011 0 0.0192256)
(0.0191472 -0.00584797 0 0.0665215 0 0.0184589)
(0.0166294 -0.00597441 0 0.0465902 0 0.0152085)
(0.0146011 -0.00525936 0 0.026432 0 0.0125455)
(0.0125398 -0.00334092 0 0.00745481 0 0.0110818)
(0.0109471 -0.00189048 0 1e-15 0 0.00946742)
(0.00893008 -0.00096638 0 1e-15 0 0.00694774)
(0.00808418 -0.000994742 0 1e-15 0 0.00582657)
(0.00639995 -0.000868908 0 0.00025418 0 0.0045549)
(0.00442384 -0.000531702 0 7.59665e-05 0 0.00321228)
(0.00334133 -0.000367512 0 1e-15 0 0.00246283)
(0.0032044 -0.00046351 0 0.000337133 0 0.00236247)
(0.00375643 -0.000591694 0 0.00153292 0 0.00269024)
(0.00532459 -0.000714219 0 0.00251514 0 0.00382599)
(0.00697004 -0.00109238 0 0.00510552 0 0.00537122)
(0.00939147 -0.00196762 0 0.0111334 0 0.00814411)
(0.0129211 -0.00339449 0 0.0212914 0 0.0126463)
(0.0157505 -0.0042869 0 0.0323996 0 0.0169201)
(0.0162832 -0.0039773 0 0.0361714 0 0.0182418)
(0.0155779 -0.00311777 0 0.0328351 0 0.0174672)
(0.0141662 -0.00225169 0 0.0273544 0 0.0152946)
(0.0125725 -0.00164825 0 0.0222224 0 0.0127719)
(0.0122304 -0.00161066 0 0.0227339 0 0.0122212)
(0.0124847 -0.0019246 0 0.0254757 0 0.0126195)
(0.0128844 -0.00239198 0 0.0279766 0 0.0135474)
(0.0130046 -0.00259155 0 0.0284219 0 0.0137077)
(0.0134894 -0.00322914 0 0.026774 0 0.0135259)
(0.0148567 -0.00411144 0 0.0288153 0 0.0140673)
(0.018251 -0.00559451 0 0.0395928 0 0.0166927)
(0.0244871 -0.0077947 0 0.0653013 0 0.0229873)
(0.0278208 -0.00752438 0 0.0842046 0 0.0275681)
(0.0264006 -0.00506537 0 0.0807733 0 0.026746)
(0.0219107 -0.00245684 0 0.055042 0 0.0222196)
(0.0140601 -0.000244939 0 0.00910754 0 0.0137364)
(0.00511988 0.000981511 0 1e-15 0 0.0051874)
(0.00101808 0.000544134 0 1e-15 0 0.00127777)
(0.000454976 0.000171291 0 1e-15 0 0.000476515)
(0.000415697 -2.42825e-05 0 0.000524867 0 0.000350222)
(0.000328646 6.70115e-05 0 0.000699682 0 0.000265112)
(0.000199968 8.41183e-05 0 0.000338343 0 0.000158084)
(5.34789e-05 2.3893e-05 0 7.76691e-05 0 4.23498e-05)
(1.17586e-05 4.84741e-06 0 1.58449e-05 0 9.40412e-06)
(2.39692e-06 8.86265e-07 0 3.07417e-06 0 1.9355e-06)
(4.63526e-07 1.53267e-07 0 5.72099e-07 0 3.77265e-07)
(8.54053e-08 2.54095e-08 0 1.02193e-07 0 6.9941e-08)
(1.49926e-08 4.05008e-09 0 1.75051e-08 0 1.23364e-08)
(2.50966e-09 6.20551e-10 0 2.87369e-09 0 2.07276e-09)
(4.07777e-10 9.17506e-11 0 4.56589e-10 0 3.37909e-10)
(7.40926e-11 1.37029e-11 0 7.70046e-11 0 6.1725e-11)
(2.62331e-11 2.7995e-12 0 2.18898e-11 0 2.20976e-11)
(2.19723e-11 1.49969e-12 0 1.60139e-11 0 1.86389e-11)
(2.37504e-11 1.45189e-12 0 1.69215e-11 0 2.01976e-11)
(2.78838e-11 1.60697e-12 0 1.98149e-11 0 2.37833e-11)
(3.28512e-11 1.82344e-12 0 2.34553e-11 0 2.80913e-11)
(3.78248e-11 2.0341e-12 0 2.72031e-11 0 3.24594e-11)
(4.30393e-11 2.24538e-12 0 3.11868e-11 0 3.70387e-11)
(4.87315e-11 2.45861e-12 0 3.55832e-11 0 4.21002e-11)
(5.4976e-11 2.68622e-12 0 4.04526e-11 0 4.7624e-11)
(6.15936e-11 2.90159e-12 0 4.56702e-11 0 5.35741e-11)
(6.85952e-11 3.1297e-12 0 5.1281e-11 0 5.98252e-11)
(7.58119e-11 3.32741e-12 0 5.70569e-11 0 6.63901e-11)
(8.35671e-11 3.55402e-12 0 6.34162e-11 0 7.33574e-11)
(9.15242e-11 3.73659e-12 0 6.9943e-11 0 8.06959e-11)
(1.0039e-10 3.95667e-12 0 7.7458e-11 0 8.87882e-11)
(0.0983095 -0.0287297 0 0.368305 0 0.102372)
(0.0919651 -0.0318955 0 0.371281 0 0.0846411)
(0.0856427 -0.0272693 0 0.361225 0 0.0846155)
(0.0760125 -0.0230077 0 0.380722 0 0.0866373)
(0.0673399 -0.0255492 0 0.337011 0 0.0729808)
(0.073305 -0.02929 0 0.347606 0 0.0775058)
(0.0868302 -0.0247227 0 0.364338 0 0.090191)
(0.0386567 -0.00362743 0 1e-15 0 0.0264621)
(0.0991672 -0.0260687 0 0.086052 0 0.0714633)
(0.134661 -0.0240517 0 0.462554 0 0.120706)
(0.154863 -0.016859 0 0.588295 0 0.154644)
(0.170938 -0.0480199 0 0.643345 0 0.177318)
(0.188052 -0.0671994 0 0.618527 0 0.186637)
(0.22245 -0.0817353 0 0.718425 0 0.221079)
(0.257319 -0.0864713 0 0.983137 0 0.272552)
(0.212249 -0.00882091 0 0.756909 0 0.235655)
(0.0928702 0.010787 0 0.0743432 0 0.0944483)
(0.065923 0.00170789 0 0.0075127 0 0.0578218)
(0.076987 -0.0150767 0 0.158497 0 0.0703752)
(0.0833744 -0.0232659 0 0.252734 0 0.0780468)
(0.0851159 -0.0257646 0 0.278906 0 0.0834355)
(0.0843705 -0.0321533 0 0.269325 0 0.0871353)
(0.0898516 -0.0405217 0 0.278191 0 0.0969289)
(0.0927255 -0.0418809 0 0.288258 0 0.103289)
(0.0917796 -0.0414773 0 0.293239 0 0.100483)
(0.0827104 -0.0364033 0 0.280148 0 0.0875199)
(0.068909 -0.0312633 0 0.243813 0 0.06854)
(0.0589489 -0.0274781 0 0.197254 0 0.0535431)
(0.0529878 -0.0225126 0 0.173361 0 0.0454701)
(0.047142 -0.0145587 0 0.144989 0 0.0408793)
(0.0373222 -0.00789786 0 0.0694028 0 0.0330679)
(0.0234924 -0.000517527 0 1e-15 0 0.0188411)
(0.0247165 7.23519e-05 0 1e-15 0 0.0179101)
(0.038895 -0.00588205 0 0.00555594 0 0.0267777)
(0.0688232 -0.0195645 0 0.0696608 0 0.0525407)
(0.114241 -0.030844 0 0.218913 0 0.108078)
(0.159137 -0.0350648 0 0.414154 0 0.183106)
(0.158186 -0.0248392 0 0.445109 0 0.197082)
(0.126965 -0.00804216 0 0.292927 0 0.151101)
(0.0480672 0.000662072 0 0.0959722 0 0.047948)
(0.0296184 -0.0113585 0 0.0673513 0 0.0203581)
(0.0537116 -0.0217628 0 0.265831 0 0.0485291)
(0.0692083 -0.0265079 0 0.362048 0 0.0725173)
(0.0831769 -0.0246399 0 0.404492 0 0.0912734)
(0.0863362 -0.0228133 0 0.372802 0 0.0928769)
(0.0778665 -0.0115729 0 0.301513 0 0.0818682)
(0.0588399 -0.00300642 0 0.182631 0 0.0581768)
(0.0505683 -0.00036709 0 0.126326 0 0.0477776)
(0.049394 -0.00251862 0 0.116431 0 0.050498)
(0.0463258 -0.0045819 0 0.0996091 0 0.0508935)
(0.0455667 -0.00635518 0 0.0854971 0 0.0487888)
(0.0485061 -0.00951651 0 0.0721568 0 0.0457568)
(0.0567083 -0.0138388 0 0.0715939 0 0.0485023)
(0.0796001 -0.0246321 0 0.114435 0 0.0685529)
(0.115369 -0.037631 0 0.239364 0 0.11591)
(0.132287 -0.0310529 0 0.34872 0 0.155002)
(0.123789 -0.016619 0 0.337783 0 0.149577)
(0.10282 -0.00486377 0 0.253751 0 0.120188)
(0.0700424 -0.00196445 0 0.115591 0 0.0770536)
(0.0462696 -0.00174251 0 0.0398322 0 0.046387)
(0.0331684 -0.0020707 0 0.0307588 0 0.0303066)
(0.0261189 -0.00346891 0 0.0279896 0 0.0220867)
(0.0257305 -0.00431409 0 0.0296971 0 0.0207696)
(0.0307415 -0.00676529 0 0.0349371 0 0.025028)
(0.0453356 -0.0121454 0 0.0569375 0 0.0420298)
(0.0708807 -0.0186723 0 0.127861 0 0.0784806)
(0.0904189 -0.0169211 0 0.216621 0 0.114743)
(0.0878191 -0.00945933 0 0.217469 0 0.114164)
(0.0720497 -0.000661612 0 0.15865 0 0.0898151)
(0.0413482 4.41927e-05 0 0.0581182 0 0.0410907)
(0.0437293 -0.0108041 0 0.0511878 0 0.0327374)
(0.0809784 -0.0354298 0 0.191318 0 0.0628977)
(0.14149 -0.0528246 0 0.485916 0 0.133789)
(0.158808 -0.0368445 0 0.617665 0 0.169506)
(0.136529 -0.00160653 0 0.502756 0 0.150725)
(0.0756513 0.00919805 0 0.206174 0 0.0804588)
(0.0291064 0.00201362 0 0.0566963 0 0.0299345)
(0.0169294 -0.000398437 0 0.0217593 0 0.0187881)
(0.0124874 -0.00119924 0 0.0145325 0 0.014203)
(0.0109958 -0.00229719 0 0.020027 0 0.0117678)
(0.0119994 -0.0042736 0 0.0397306 0 0.0118268)
(0.0157028 -0.00675427 0 0.0651573 0 0.0141308)
(0.0189245 -0.00728153 0 0.0845218 0 0.0154075)
(0.0191857 -0.00560681 0 0.0848451 0 0.0149111)
(0.0198554 -0.00556163 0 0.0846028 0 0.0154453)
(0.0221049 -0.00753848 0 0.0966964 0 0.0183842)
(0.0235569 -0.008842 0 0.10964 0 0.0218227)
(0.0221058 -0.00926469 0 0.097012 0 0.0210396)
(0.0197475 -0.00996357 0 0.071121 0 0.0175858)
(0.0180245 -0.00939319 0 0.0542415 0 0.0149284)
(0.0161819 -0.00627866 0 0.0323598 0 0.013817)
(0.0140302 -0.00358501 0 0.0124032 0 0.0123075)
(0.0105763 -0.00183503 0 0.00124427 0 0.00880321)
(0.00859051 -0.00140403 0 1e-15 0 0.00659256)
(0.00651122 -0.00134962 0 0.00128405 0 0.00486914)
(0.00465771 -0.000996416 0 0.00263402 0 0.00354332)
(0.00371418 -0.000717933 0 0.00145256 0 0.00284947)
(0.00364188 -0.00076302 0 0.00231966 0 0.00276046)
(0.00438371 -0.00086798 0 0.00468258 0 0.00315378)
(0.00650435 -0.00106765 0 0.00618624 0 0.00462784)
(0.00878013 -0.00171575 0 0.00912139 0 0.00665358)
(0.0117833 -0.00296415 0 0.015952 0 0.0100401)
(0.0158446 -0.00478472 0 0.0280387 0 0.0153726)
(0.0189037 -0.00597243 0 0.0415655 0 0.0202766)
(0.0193395 -0.00556831 0 0.0466842 0 0.0217165)
(0.0185821 -0.00440914 0 0.0433013 0 0.0208986)
(0.0170274 -0.00308395 0 0.0353559 0 0.0184463)
(0.0151925 -0.00213741 0 0.0287398 0 0.0154769)
(0.0146948 -0.00205566 0 0.0298019 0 0.0147298)
(0.0149011 -0.00252736 0 0.0335893 0 0.0151262)
(0.0153379 -0.00323829 0 0.0364739 0 0.0162182)
(0.0154388 -0.00362257 0 0.0380463 0 0.0163929)
(0.0161868 -0.00479379 0 0.03869 0 0.0162233)
(0.0178375 -0.00609879 0 0.0437101 0 0.0167932)
(0.0218696 -0.00816377 0 0.0580998 0 0.019747)
(0.0288874 -0.0110604 0 0.0907702 0 0.0267762)
(0.0323571 -0.0107048 0 0.114906 0 0.0318412)
(0.0306429 -0.00771087 0 0.111503 0 0.0309008)
(0.0257602 -0.00441334 0 0.0834992 0 0.026111)
(0.0171248 -0.000829502 0 0.0297563 0 0.0169579)
(0.0079939 0.00124898 0 0.0050778 0 0.00777871)
(0.00333098 0.00124124 0 1e-15 0 0.00314936)
(0.0012942 0.00052586 0 1e-15 0 0.00114872)
(0.00069661 0.000192925 0 0.000445325 0 0.000564433)
(0.00049393 0.000162865 0 0.00105329 0 0.000383405)
(0.000297472 0.000122855 0 0.000651425 0 0.000226947)
(8.58272e-05 3.70108e-05 0 0.000169284 0 6.53855e-05)
(2.05551e-05 8.48803e-06 0 3.68132e-05 0 1.57153e-05)
(4.52928e-06 1.74224e-06 0 7.48798e-06 0 3.47708e-06)
(9.37353e-07 3.33697e-07 0 1.44975e-06 0 7.22233e-07)
(1.83169e-07 6.04781e-08 0 2.68322e-07 0 1.41564e-07)
(3.38256e-08 1.04103e-08 0 4.74739e-08 0 2.62092e-08)
(5.92073e-09 1.70383e-09 0 8.02821e-09 0 4.59821e-09)
(1.01095e-09 2.67117e-10 0 1.31348e-09 0 7.87721e-10)
(2.05135e-10 4.27391e-11 0 2.31034e-10 0 1.61586e-10)
(8.92161e-11 1.00316e-11 0 7.09718e-11 0 7.18656e-11)
(8.1358e-11 6.16123e-12 0 5.44387e-11 0 6.62283e-11)
(8.93888e-11 6.09787e-12 0 5.80223e-11 0 7.30255e-11)
(1.05426e-10 6.76211e-12 0 6.81722e-11 0 8.64607e-11)
(1.23847e-10 7.6295e-12 0 8.05571e-11 0 1.01877e-10)
(1.42117e-10 8.46073e-12 0 9.32874e-11 0 1.17409e-10)
(1.61339e-10 9.29277e-12 0 1.06899e-10 0 1.3373e-10)
(1.82266e-10 1.01229e-11 0 1.2195e-10 0 1.51797e-10)
(2.05166e-10 1.1008e-11 0 1.38609e-10 0 1.7142e-10)
(2.29286e-10 1.18293e-11 0 1.56438e-10 0 1.92545e-10)
(2.54747e-10 1.27033e-11 0 1.75624e-10 0 2.14614e-10)
(2.80813e-10 1.34365e-11 0 1.95336e-10 0 2.37806e-10)
(3.0882e-10 1.42951e-11 0 2.17085e-10 0 2.6229e-10)