/*--------------------------------*- C++ -*----------------------------------*\
| =========                 |                                                 |
| \\      /  F ield         | OpenFOAM: The Open Source CFD Toolbox           |
|  \\    /   O peration     | Version:  v1912                                 |
|   \\  /    A nd           | Website:  www.openfoam.com                      |
|    \\/     M anipulation  |                                                 |
\*---------------------------------------------------------------------------*/
FoamFile
{
    version     2.0;
    format      ascii;
    class       volVectorField;
    location    "80";
    object      U;
}
// * * * * * * * * * * * * * * * * * * * * * * * * * * * * * * * * * * * * * //

dimensions      [0 1 -1 0 0 0 0];


internalField   nonuniform List<vector> 
14268
(
(-0.807572 -0.279892 0)
(-0.832299 -0.232268 0)
(-0.872689 -0.262853 0)
(-0.673654 -0.268174 0)
(-0.42734 -0.228768 0)
(-0.426024 -0.260277 0)
(-0.117394 -0.244919 0)
(-0.415866 -0.0662957 0)
(-0.624453 -0.14885 0)
(-0.481334 -0.330842 0)
(-0.486878 -0.361785 0)
(-0.483889 -0.33714 0)
(-0.385351 -0.350863 0)
(-0.429872 -0.387733 0)
(-0.116858 -0.395559 0)
(0.253563 -0.308151 0)
(0.434111 -0.0559016 0)
(0.194946 -0.0463272 0)
(0.129894 -0.0927562 0)
(0.0861806 -0.140472 0)
(0.114479 -0.14974 0)
(0.213057 -0.159301 0)
(0.399043 -0.145134 0)
(0.67193 -0.112369 0)
(0.975179 -0.0751543 0)
(1.20432 -0.0340058 0)
(1.2734 0.021772 0)
(1.25624 0.0540304 0)
(1.21599 0.0605746 0)
(1.15381 0.0841328 0)
(1.10552 0.0946952 0)
(1.04469 0.0804793 0)
(0.853623 0.0562175 0)
(0.488087 0.00214397 0)
(0.281411 -0.0943667 0)
(0.267563 -0.150755 0)
(0.405977 -0.195217 0)
(0.713569 -0.175684 0)
(1.08026 -0.0605841 0)
(0.979024 0.031453 0)
(0.428227 -0.0112083 0)
(0.29448 -0.132551 0)
(0.372783 -0.16348 0)
(0.546204 -0.169387 0)
(0.698314 -0.154808 0)
(0.778691 -0.111993 0)
(0.820778 -0.0506809 0)
(0.731916 -0.0415484 0)
(0.622508 -0.0294605 0)
(0.639181 -0.027281 0)
(0.718027 -0.0131349 0)
(0.749843 -0.00788556 0)
(0.690116 -0.0383127 0)
(0.500006 -0.0833882 0)
(0.50805 -0.117453 0)
(0.699555 -0.134577 0)
(1.02034 -0.104462 0)
(1.21501 -0.0212432 0)
(1.17169 0.0597932 0)
(0.9804 0.0712095 0)
(0.791381 0.0709939 0)
(0.75959 0.0703018 0)
(0.756371 0.0645808 0)
(0.727761 0.0373914 0)
(0.656175 -0.0123954 0)
(0.680488 -0.0496273 0)
(0.828789 -0.0683289 0)
(1.11653 -0.0511928 0)
(1.36266 0.0317702 0)
(1.33628 0.0815083 0)
(1.00192 0.0425379 0)
(0.759046 -0.0947157 0)
(0.846978 -0.171602 0)
(0.998159 -0.184947 0)
(1.2722 -0.118665 0)
(1.37163 -0.000234984 0)
(1.22559 0.0347224 0)
(1.05631 0.0518084 0)
(1.09529 0.0518804 0)
(1.18484 0.0602536 0)
(1.21871 0.0690282 0)
(1.19625 0.0611432 0)
(1.14336 0.0517095 0)
(1.06717 0.0432533 0)
(0.951676 0.0282434 0)
(0.797767 0.00565263 0)
(0.723602 0.0180482 0)
(0.719553 0.0306796 0)
(0.732663 0.0513372 0)
(0.747969 0.0639882 0)
(0.77893 0.068135 0)
(0.768108 0.0632121 0)
(0.687342 0.0604723 0)
(0.555546 0.0528534 0)
(0.493704 0.0486751 0)
(0.486939 0.0480431 0)
(0.502194 0.049264 0)
(0.537054 0.052687 0)
(0.567679 0.0559736 0)
(0.577844 0.0552278 0)
(0.571834 0.0483725 0)
(0.546781 0.0336176 0)
(0.547131 0.0257874 0)
(0.58041 0.0182359 0)
(0.670212 0.023453 0)
(0.783538 0.0395087 0)
(0.851252 0.0539108 0)
(0.871623 0.0653699 0)
(0.864697 0.0687746 0)
(0.865191 0.0660473 0)
(0.87275 0.0639139 0)
(0.897008 0.065893 0)
(0.904644 0.0673034 0)
(0.890301 0.0584987 0)
(0.879438 0.0456695 0)
(0.895303 0.0278334 0)
(0.931624 0.0216375 0)
(0.998039 0.0360846 0)
(1.02891 0.0728473 0)
(0.978707 0.0848999 0)
(0.850409 0.0818918 0)
(0.824934 0.0815528 0)
(0.855074 0.0842065 0)
(0.889777 0.0886935 0)
(0.882247 0.0885489 0)
(0.851682 0.0857764 0)
(0.79564 0.0801756 0)
(0.746209 0.0750789 0)
(0.713421 0.071668 0)
(0.686827 0.0689595 0)
(0.662536 0.0665115 0)
(0.639339 0.0641816 0)
(0.61689 0.0619295 0)
(0.595018 0.0597364 0)
(0.573704 0.0575978 0)
(0.553152 0.055534 0)
(0.533358 0.0535473 0)
(0.514142 0.0516218 0)
(0.495096 0.0497143 0)
(0.476404 0.0478407 0)
(0.458042 0.045999 0)
(0.440411 0.0442286 0)
(0.423299 0.0425111 0)
(0.406867 0.0408609 0)
(0.390885 0.0392571 0)
(0.375544 0.037717 0)
(0.360497 0.0362114 0)
(0.345661 0.0347217 0)
(0.331202 0.0332762 0)
(0.317052 0.0318475 0)
(-0.889371 0.0889933 0)
(-0.864401 0.0431392 0)
(-0.877174 0.0647776 0)
(-0.684016 0.0976489 0)
(-0.441787 0.111643 0)
(-0.447781 0.140465 0)
(-0.244017 0.183974 0)
(-0.403049 -0.0103495 0)
(-0.448124 0.0426138 0)
(-0.3301 0.230368 0)
(-0.394078 0.252331 0)
(-0.410999 0.218559 0)
(-0.30138 0.255935 0)
(-0.373768 0.272501 0)
(-0.105076 0.315949 0)
(0.167201 0.308197 0)
(0.25893 0.125661 0)
(-0.0316575 0.0648356 0)
(0.110109 0.112461 0)
(0.121585 0.150406 0)
(0.154763 0.161101 0)
(0.251822 0.186878 0)
(0.440515 0.205491 0)
(0.721366 0.223895 0)
(1.0445 0.251028 0)
(1.31472 0.268571 0)
(1.48614 0.246139 0)
(1.51246 0.220975 0)
(1.47459 0.208566 0)
(1.39528 0.173673 0)
(1.30638 0.149595 0)
(1.1069 0.137987 0)
(0.839709 0.11904 0)
(0.610221 0.114543 0)
(0.397535 0.161536 0)
(0.318925 0.190916 0)
(0.400899 0.23827 0)
(0.66339 0.268732 0)
(0.987307 0.241926 0)
(0.900004 0.1612 0)
(0.468954 0.108803 0)
(0.31178 0.178721 0)
(0.352954 0.209187 0)
(0.505064 0.242803 0)
(0.642719 0.261994 0)
(0.70123 0.238247 0)
(0.748895 0.197867 0)
(0.674364 0.178972 0)
(0.594795 0.146161 0)
(0.625068 0.145104 0)
(0.722472 0.148946 0)
(0.785213 0.156726 0)
(0.749196 0.182095 0)
(0.57804 0.187443 0)
(0.54622 0.201295 0)
(0.689523 0.238092 0)
(0.969355 0.268891 0)
(1.1387 0.236937 0)
(1.12512 0.169687 0)
(1.00837 0.134657 0)
(0.983939 0.111053 0)
(1.03167 0.10976 0)
(1.04562 0.116888 0)
(0.977513 0.134359 0)
(0.780404 0.154578 0)
(0.73229 0.17771 0)
(0.834551 0.209934 0)
(1.09023 0.245071 0)
(1.3223 0.221783 0)
(1.31895 0.186577 0)
(1.0788 0.17284 0)
(0.830625 0.246222 0)
(0.852933 0.306665 0)
(0.93617 0.331573 0)
(1.13597 0.318378 0)
(1.2276 0.245362 0)
(1.13978 0.20195 0)
(1.04554 0.155836 0)
(1.08919 0.159362 0)
(1.17657 0.168753 0)
(1.20894 0.169809 0)
(1.18817 0.175183 0)
(1.13402 0.174423 0)
(1.05418 0.168899 0)
(0.945356 0.162922 0)
(0.841157 0.159388 0)
(0.821201 0.135259 0)
(0.843685 0.12353 0)
(0.879944 0.108652 0)
(0.874815 0.0979723 0)
(0.848205 0.0943506 0)
(0.756675 0.090098 0)
(0.647128 0.0756251 0)
(0.63484 0.0687458 0)
(0.64969 0.0666551 0)
(0.674336 0.0679393 0)
(0.708135 0.0706698 0)
(0.749397 0.0746805 0)
(0.766796 0.0768967 0)
(0.758542 0.0784584 0)
(0.714285 0.080918 0)
(0.630964 0.0843859 0)
(0.597277 0.0863984 0)
(0.613293 0.0964058 0)
(0.689508 0.104462 0)
(0.798175 0.112444 0)
(0.88217 0.115475 0)
(0.932423 0.114046 0)
(0.939544 0.111152 0)
(0.940847 0.113494 0)
(0.946266 0.11638 0)
(0.971461 0.119105 0)
(1.00154 0.122684 0)
(0.995133 0.12968 0)
(0.976883 0.13835 0)
(0.975592 0.154368 0)
(0.988789 0.163247 0)
(1.03327 0.160519 0)
(1.05267 0.133317 0)
(1.00037 0.117039 0)
(0.878838 0.0941418 0)
(0.849017 0.0855195 0)
(0.867125 0.0863922 0)
(0.881623 0.0877616 0)
(0.872314 0.087744 0)
(0.840985 0.0853723 0)
(0.788215 0.0804365 0)
(0.743628 0.0756254 0)
(0.712482 0.0721625 0)
(0.686338 0.0694159 0)
(0.662153 0.0669446 0)
(0.638975 0.0645979 0)
(0.616524 0.0623323 0)
(0.594648 0.0601278 0)
(0.57333 0.0579756 0)
(0.552775 0.0558963 0)
(0.53298 0.0538962 0)
(0.513762 0.0519634 0)
(0.494715 0.0500512 0)
(0.476024 0.0481705 0)
(0.457664 0.0463195 0)
(0.440036 0.0445369 0)
(0.422928 0.042809 0)
(0.4065 0.0411471 0)
(0.390522 0.0395341 0)
(0.375185 0.037984 0)
(0.360143 0.0364773 0)
(0.345313 0.0349782 0)
(0.330861 0.0335339 0)
(0.316718 0.0320818 0)
(-0.829617 -0.24513 0)
(-0.827559 -0.197372 0)
(-0.867167 -0.228587 0)
(-0.67049 -0.231267 0)
(-0.424527 -0.188656 0)
(-0.415074 -0.215055 0)
(-0.127993 -0.202706 0)
(-0.42073 -0.0528191 0)
(-0.49332 -0.129531 0)
(-0.403267 -0.294038 0)
(-0.434142 -0.308048 0)
(-0.458405 -0.282401 0)
(-0.353217 -0.29839 0)
(-0.421802 -0.328316 0)
(-0.101231 -0.31992 0)
(0.254061 -0.253134 0)
(0.442591 -0.0428611 0)
(0.173366 -0.0358629 0)
(0.156475 -0.0792469 0)
(0.11974 -0.116722 0)
(0.145162 -0.124597 0)
(0.242554 -0.137763 0)
(0.432377 -0.122286 0)
(0.710927 -0.0881881 0)
(1.02588 -0.0509474 0)
(1.26198 -0.0143093 0)
(1.35676 0.0382679 0)
(1.35729 0.0701566 0)
(1.32404 0.078026 0)
(1.26736 0.0976721 0)
(1.22952 0.113509 0)
(1.09999 0.102322 0)
(0.870424 0.0804584 0)
(0.5819 0.0311279 0)
(0.340013 -0.0694424 0)
(0.299223 -0.118459 0)
(0.417684 -0.151353 0)
(0.708191 -0.134334 0)
(1.06091 -0.0327217 0)
(0.95863 0.057971 0)
(0.471772 0.0209035 0)
(0.302319 -0.102405 0)
(0.37455 -0.12937 0)
(0.538545 -0.13392 0)
(0.689568 -0.120148 0)
(0.76443 -0.0836798 0)
(0.807183 -0.0318601 0)
(0.722385 -0.025147 0)
(0.620094 -0.0158634 0)
(0.637583 -0.0184339 0)
(0.713998 -0.00602322 0)
(0.75441 0.00157144 0)
(0.709941 -0.0213435 0)
(0.538369 -0.0590227 0)
(0.534719 -0.0857971 0)
(0.708063 -0.0999087 0)
(1.01389 -0.072413 0)
(1.19998 0.0044945 0)
(1.1683 0.0722799 0)
(1.08616 0.0904775 0)
(1.06721 0.100422 0)
(1.07545 0.101073 0)
(1.03731 0.0937683 0)
(0.878534 0.0589014 0)
(0.709987 0.00494572 0)
(0.714588 -0.0297172 0)
(0.843984 -0.0455092 0)
(1.11957 -0.0299509 0)
(1.35203 0.0446913 0)
(1.32761 0.0957944 0)
(1.05331 0.0706257 0)
(0.793051 -0.066077 0)
(0.859842 -0.119633 0)
(0.995455 -0.126788 0)
(1.24039 -0.0756906 0)
(1.32125 0.02248 0)
(1.19059 0.0485779 0)
(1.04763 0.0590892 0)
(1.08907 0.0565427 0)
(1.17749 0.0642358 0)
(1.21333 0.0742522 0)
(1.19422 0.0694413 0)
(1.14545 0.0629194 0)
(1.06875 0.0556053 0)
(0.960754 0.042719 0)
(0.829512 0.0194127 0)
(0.767514 0.0267807 0)
(0.769576 0.0375037 0)
(0.78516 0.0564674 0)
(0.784515 0.0674967 0)
(0.780768 0.0712423 0)
(0.767251 0.0715635 0)
(0.728336 0.0716578 0)
(0.727186 0.0726292 0)
(0.744379 0.073683 0)
(0.772724 0.075934 0)
(0.793786 0.077457 0)
(0.803503 0.0783368 0)
(0.799217 0.0787084 0)
(0.768648 0.0750207 0)
(0.683738 0.0615756 0)
(0.592187 0.0418603 0)
(0.573 0.0313136 0)
(0.597822 0.0231427 0)
(0.682323 0.0277921 0)
(0.79491 0.0428415 0)
(0.873852 0.0571608 0)
(0.908236 0.0692515 0)
(0.90431 0.0733756 0)
(0.903634 0.070936 0)
(0.908825 0.0685591 0)
(0.931194 0.0699263 0)
(0.948213 0.0723475 0)
(0.937351 0.0650806 0)
(0.917955 0.0529688 0)
(0.92695 0.0372901 0)
(0.956398 0.031653 0)
(1.01326 0.0438534 0)
(1.03527 0.0782862 0)
(1.02639 0.0951545 0)
(1.00093 0.102215 0)
(0.972676 0.0966491 0)
(0.949287 0.093267 0)
(0.921156 0.0918547 0)
(0.878273 0.088904 0)
(0.823099 0.0844612 0)
(0.775143 0.080012 0)
(0.739687 0.0759369 0)
(0.711174 0.0726119 0)
(0.685721 0.0698807 0)
(0.661702 0.0674005 0)
(0.63856 0.0650404 0)
(0.616117 0.0627626 0)
(0.594243 0.060547 0)
(0.572928 0.0583813 0)
(0.552377 0.056286 0)
(0.532587 0.0542724 0)
(0.513376 0.0523326 0)
(0.494335 0.0504156 0)
(0.475651 0.0485272 0)
(0.457301 0.0466661 0)
(0.439683 0.0448704 0)
(0.422585 0.0431312 0)
(0.406167 0.0414568 0)
(0.390199 0.0398339 0)
(0.374873 0.0382732 0)
(0.35984 0.0367655 0)
(0.345019 0.0352559 0)
(0.330577 0.0338128 0)
(0.316446 0.0323356 0)
(-0.884994 0.0574797 0)
(-0.868635 0.0139568 0)
(-0.857088 0.0356146 0)
(-0.661077 0.0480895 0)
(-0.416888 0.0704118 0)
(-0.419803 0.096332 0)
(-0.229783 0.14366 0)
(-0.43938 -0.0159543 0)
(-0.38878 0.0378513 0)
(-0.314818 0.196712 0)
(-0.415124 0.205262 0)
(-0.42536 0.161746 0)
(-0.312712 0.20267 0)
(-0.384144 0.204817 0)
(-0.122933 0.217783 0)
(0.152237 0.230385 0)
(0.3096 0.119242 0)
(0.168984 0.081641 0)
(0.153743 0.103921 0)
(0.127522 0.130085 0)
(0.148322 0.134098 0)
(0.245606 0.155061 0)
(0.441393 0.164007 0)
(0.727696 0.17529 0)
(1.04481 0.20344 0)
(1.30504 0.235557 0)
(1.44091 0.226925 0)
(1.44975 0.208173 0)
(1.4087 0.19652 0)
(1.32366 0.165134 0)
(1.24953 0.141189 0)
(1.14653 0.143191 0)
(0.963354 0.130094 0)
(0.660288 0.120645 0)
(0.403599 0.152591 0)
(0.32245 0.165025 0)
(0.405434 0.188775 0)
(0.669038 0.206981 0)
(0.987244 0.208062 0)
(0.910102 0.154361 0)
(0.488797 0.106578 0)
(0.315221 0.1596 0)
(0.358514 0.175271 0)
(0.509569 0.201924 0)
(0.645111 0.226994 0)
(0.700214 0.209967 0)
(0.748245 0.182027 0)
(0.6762 0.168669 0)
(0.594266 0.137405 0)
(0.622669 0.13235 0)
(0.714447 0.135194 0)
(0.773973 0.147074 0)
(0.740568 0.173036 0)
(0.572978 0.174756 0)
(0.541624 0.172298 0)
(0.69143 0.191172 0)
(0.975667 0.221013 0)
(1.14041 0.209733 0)
(1.13172 0.160507 0)
(1.0898 0.136113 0)
(1.0685 0.115184 0)
(1.07411 0.112701 0)
(1.05148 0.118899 0)
(0.947543 0.134175 0)
(0.753437 0.147139 0)
(0.721172 0.159108 0)
(0.829752 0.173521 0)
(1.08741 0.201276 0)
(1.3176 0.198898 0)
(1.31132 0.179627 0)
(1.07998 0.169081 0)
(0.837709 0.232002 0)
(0.859385 0.260652 0)
(0.944513 0.276345 0)
(1.15049 0.275401 0)
(1.23203 0.225546 0)
(1.13895 0.194147 0)
(1.04858 0.153241 0)
(1.0925 0.151397 0)
(1.18403 0.161483 0)
(1.21355 0.165106 0)
(1.19049 0.170073 0)
(1.13605 0.168421 0)
(1.05604 0.162871 0)
(0.951296 0.15737 0)
(0.842842 0.154053 0)
(0.801115 0.13014 0)
(0.812506 0.116714 0)
(0.830437 0.102281 0)
(0.81358 0.0913257 0)
(0.779531 0.0854998 0)
(0.791725 0.0898753 0)
(0.811105 0.0912588 0)
(0.820241 0.0864734 0)
(0.816919 0.0823704 0)
(0.81102 0.0802828 0)
(0.808573 0.0795825 0)
(0.808297 0.0795531 0)
(0.802678 0.0809964 0)
(0.775252 0.0821822 0)
(0.704047 0.0827984 0)
(0.613684 0.0829776 0)
(0.586926 0.0827153 0)
(0.605373 0.0877299 0)
(0.683608 0.0918393 0)
(0.791548 0.101012 0)
(0.874466 0.107744 0)
(0.926554 0.111316 0)
(0.935058 0.109797 0)
(0.934447 0.111281 0)
(0.937734 0.112885 0)
(0.958741 0.114391 0)
(0.983566 0.119316 0)
(0.975886 0.126522 0)
(0.958853 0.133824 0)
(0.960747 0.146113 0)
(0.978237 0.152319 0)
(1.02126 0.150039 0)
(1.03766 0.127417 0)
(1.05227 0.117622 0)
(1.05867 0.112136 0)
(1.04054 0.106264 0)
(0.99752 0.100145 0)
(0.93773 0.0950635 0)
(0.869929 0.089923 0)
(0.811849 0.0847961 0)
(0.769518 0.0803225 0)
(0.737406 0.0763406 0)
(0.710188 0.073058 0)
(0.685151 0.07033 0)
(0.661254 0.0678402 0)
(0.638148 0.0654674 0)
(0.615719 0.0631778 0)
(0.593856 0.0609516 0)
(0.572552 0.0587731 0)
(0.552013 0.0566627 0)
(0.532236 0.0546364 0)
(0.513036 0.0526902 0)
(0.494006 0.0507692 0)
(0.475333 0.0488742 0)
(0.456994 0.0470042 0)
(0.439389 0.0451965 0)
(0.422304 0.0434471 0)
(0.405898 0.0417613 0)
(0.389942 0.0401294 0)
(0.374627 0.038559 0)
(0.359604 0.0370506 0)
(0.344793 0.0355313 0)
(0.330361 0.0340897 0)
(0.316241 0.0325883 0)
(-0.771916 -0.220167 0)
(-0.835467 -0.172459 0)
(-0.820529 -0.208957 0)
(-0.652885 -0.20679 0)
(-0.425899 -0.163029 0)
(-0.40716 -0.184356 0)
(-0.154442 -0.171872 0)
(-0.336002 -0.0337722 0)
(-0.410454 -0.115282 0)
(-0.387543 -0.26312 0)
(-0.416949 -0.263073 0)
(-0.446965 -0.237114 0)
(-0.327621 -0.25316 0)
(-0.391145 -0.275419 0)
(-0.0950454 -0.250654 0)
(0.248856 -0.201015 0)
(0.460623 -0.0278151 0)
(0.252414 -0.0246002 0)
(0.194245 -0.0633748 0)
(0.155269 -0.0956488 0)
(0.173687 -0.10273 0)
(0.277434 -0.113042 0)
(0.469878 -0.0942904 0)
(0.733796 -0.0616155 0)
(1.05836 -0.0234982 0)
(1.30815 0.00709693 0)
(1.42171 0.0552904 0)
(1.42217 0.0865614 0)
(1.39002 0.0978125 0)
(1.32472 0.114973 0)
(1.25608 0.122563 0)
(1.19601 0.122625 0)
(1.06066 0.117958 0)
(0.699538 0.0649168 0)
(0.385075 -0.0402859 0)
(0.32123 -0.0931946 0)
(0.425781 -0.115918 0)
(0.704982 -0.0971247 0)
(1.05192 -0.0111033 0)
(0.931216 0.0840459 0)
(0.490613 0.0542584 0)
(0.317522 -0.0785916 0)
(0.382311 -0.103134 0)
(0.533141 -0.104713 0)
(0.68174 -0.0964217 0)
(0.75344 -0.0642014 0)
(0.796242 -0.0166829 0)
(0.71437 -0.0068577 0)
(0.616696 -0.00482809 0)
(0.634363 -0.00976062 0)
(0.708562 0.00168147 0)
(0.754839 0.00950925 0)
(0.720076 -0.00238431 0)
(0.561537 -0.0350322 0)
(0.547114 -0.0641762 0)
(0.711979 -0.0705598 0)
(1.01031 -0.0428223 0)
(1.19058 0.0222097 0)
(1.17362 0.0866366 0)
(1.12097 0.101283 0)
(1.08341 0.103291 0)
(1.07835 0.102025 0)
(1.04233 0.098319 0)
(0.909978 0.0738776 0)
(0.724298 0.021393 0)
(0.720107 -0.0153332 0)
(0.847964 -0.0224334 0)
(1.12037 -0.00299454 0)
(1.35421 0.0606592 0)
(1.33176 0.114131 0)
(1.08338 0.0972074 0)
(0.826672 -0.0383769 0)
(0.872843 -0.084646 0)
(0.993025 -0.0885235 0)
(1.22027 -0.0463922 0)
(1.30017 0.0428948 0)
(1.17556 0.067918 0)
(1.04484 0.0666061 0)
(1.08665 0.0615108 0)
(1.17772 0.0704962 0)
(1.21584 0.0817075 0)
(1.19873 0.0791363 0)
(1.14824 0.0755274 0)
(1.0674 0.0701932 0)
(0.959654 0.0590381 0)
(0.841606 0.0345774 0)
(0.787887 0.034982 0)
(0.794325 0.0438192 0)
(0.814851 0.0620257 0)
(0.805782 0.0719975 0)
(0.777407 0.0717486 0)
(0.779924 0.0723054 0)
(0.801001 0.0756149 0)
(0.816573 0.0800348 0)
(0.808702 0.0798249 0)
(0.800734 0.0783342 0)
(0.802321 0.0783819 0)
(0.80641 0.0791631 0)
(0.80154 0.0796439 0)
(0.772448 0.0781676 0)
(0.6988 0.0682358 0)
(0.607823 0.0486853 0)
(0.584638 0.0355094 0)
(0.606224 0.0284801 0)
(0.687099 0.0327868 0)
(0.795595 0.0462456 0)
(0.876548 0.0601625 0)
(0.914834 0.0714335 0)
(0.908601 0.0758739 0)
(0.907588 0.074184 0)
(0.916089 0.0721091 0)
(0.942208 0.0740689 0)
(0.966504 0.0758644 0)
(0.957807 0.0700441 0)
(0.940293 0.0587317 0)
(0.947127 0.0449474 0)
(0.973382 0.0411297 0)
(1.02478 0.052467 0)
(1.04272 0.0828737 0)
(1.05452 0.100912 0)
(1.05618 0.105822 0)
(1.03352 0.102919 0)
(0.984982 0.0991214 0)
(0.927756 0.094797 0)
(0.864591 0.0896952 0)
(0.807851 0.0848276 0)
(0.767027 0.0806797 0)
(0.736146 0.0767746 0)
(0.709485 0.0735158 0)
(0.684658 0.0707836 0)
(0.660835 0.0682835 0)
(0.63776 0.065899 0)
(0.615349 0.0635988 0)
(0.5935 0.0613631 0)
(0.572211 0.0591725 0)
(0.551689 0.0570477 0)
(0.531927 0.0550092 0)
(0.512741 0.053057 0)
(0.493723 0.0511321 0)
(0.475062 0.0492304 0)
(0.456737 0.0473512 0)
(0.439145 0.0455314 0)
(0.422073 0.0437715 0)
(0.405679 0.042074 0)
(0.389735 0.0404329 0)
(0.374431 0.0388524 0)
(0.359418 0.0373432 0)
(0.344617 0.035814 0)
(0.330193 0.0343735 0)
(0.316082 0.0328477 0)
(-0.882635 0.0422436 0)
(-0.796565 -0.00249484 0)
(-0.858265 0.0128382 0)
(-0.690281 0.0221785 0)
(-0.404819 0.0497212 0)
(-0.410693 0.0706575 0)
(-0.250283 0.129783 0)
(-0.124164 0.0242563 0)
(-0.361603 0.0375652 0)
(-0.323662 0.169096 0)
(-0.428519 0.169977 0)
(-0.445546 0.123765 0)
(-0.343717 0.16706 0)
(-0.407736 0.154873 0)
(-0.108415 0.131736 0)
(0.16291 0.163399 0)
(0.342015 0.109926 0)
(0.168663 0.0822798 0)
(0.118989 0.0923755 0)
(0.0931742 0.112388 0)
(0.121158 0.109044 0)
(0.213558 0.119641 0)
(0.422648 0.121195 0)
(0.692433 0.13387 0)
(1.00622 0.159235 0)
(1.26639 0.20242 0)
(1.41505 0.20847 0)
(1.43405 0.197726 0)
(1.38958 0.185145 0)
(1.30043 0.157567 0)
(1.23541 0.142383 0)
(1.19146 0.143867 0)
(1.0899 0.148137 0)
(0.731338 0.129341 0)
(0.412322 0.142739 0)
(0.331305 0.143043 0)
(0.412662 0.139799 0)
(0.673513 0.147617 0)
(0.991878 0.176327 0)
(0.911955 0.150961 0)
(0.525079 0.101704 0)
(0.334492 0.14434 0)
(0.379873 0.139736 0)
(0.5024 0.158283 0)
(0.634606 0.192923 0)
(0.696217 0.185295 0)
(0.746059 0.167656 0)
(0.677564 0.156116 0)
(0.59408 0.128533 0)
(0.620167 0.1181 0)
(0.706093 0.120225 0)
(0.762644 0.13741 0)
(0.732046 0.161557 0)
(0.572779 0.160042 0)
(0.544722 0.146575 0)
(0.697703 0.144515 0)
(0.979917 0.173509 0)
(1.14414 0.185347 0)
(1.14754 0.150936 0)
(1.12473 0.136556 0)
(1.08854 0.117959 0)
(1.07865 0.113992 0)
(1.04146 0.119948 0)
(0.917041 0.131496 0)
(0.740167 0.139013 0)
(0.725958 0.140018 0)
(0.836797 0.134271 0)
(1.09474 0.153554 0)
(1.32183 0.174304 0)
(1.31233 0.172985 0)
(1.09376 0.169445 0)
(0.850481 0.217864 0)
(0.864603 0.225832 0)
(0.954159 0.224561 0)
(1.14677 0.228252 0)
(1.22362 0.203162 0)
(1.12901 0.181777 0)
(1.08402 0.150118 0)
(1.1277 0.141855 0)
(1.21066 0.149757 0)
(1.22776 0.159705 0)
(1.20299 0.165884 0)
(1.14385 0.161851 0)
(1.05988 0.155897 0)
(0.95731 0.151296 0)
(0.843661 0.146972 0)
(0.790782 0.124337 0)
(0.79863 0.110074 0)
(0.815739 0.0979817 0)
(0.80407 0.0901684 0)
(0.773282 0.0858103 0)
(0.773746 0.0877134 0)
(0.791573 0.0883251 0)
(0.816394 0.0852866 0)
(0.81376 0.0821897 0)
(0.804069 0.0793737 0)
(0.801061 0.0779296 0)
(0.804701 0.0793351 0)
(0.801102 0.0818401 0)
(0.772869 0.0837527 0)
(0.69677 0.083961 0)
(0.604371 0.0819911 0)
(0.579832 0.0793678 0)
(0.600356 0.0788395 0)
(0.682086 0.0800398 0)
(0.792127 0.0902919 0)
(0.874431 0.0991946 0)
(0.920643 0.106732 0)
(0.926274 0.107032 0)
(0.927853 0.108197 0)
(0.933692 0.108898 0)
(0.956809 0.110296 0)
(0.989041 0.118172 0)
(0.982339 0.125301 0)
(0.963232 0.13168 0)
(0.962804 0.139836 0)
(0.98008 0.141563 0)
(1.02145 0.139655 0)
(1.03875 0.122929 0)
(1.05418 0.115659 0)
(1.05636 0.113361 0)
(1.03023 0.106886 0)
(0.976467 0.100372 0)
(0.920657 0.0960017 0)
(0.859631 0.0908805 0)
(0.804072 0.0855102 0)
(0.76495 0.0811899 0)
(0.735164 0.0772931 0)
(0.708894 0.0739997 0)
(0.684211 0.0712448 0)
(0.660447 0.0687308 0)
(0.6374 0.0663341 0)
(0.61501 0.0640233 0)
(0.593179 0.0617781 0)
(0.571907 0.0595755 0)
(0.551402 0.0574363 0)
(0.531658 0.0553857 0)
(0.512486 0.0534275 0)
(0.493482 0.0514988 0)
(0.474833 0.0495903 0)
(0.456521 0.047702 0)
(0.438943 0.04587 0)
(0.421883 0.0440997 0)
(0.4055 0.0423904 0)
(0.389567 0.04074 0)
(0.374273 0.0391495 0)
(0.359269 0.0376393 0)
(0.344475 0.0361001 0)
(0.330059 0.0346607 0)
(0.315957 0.0331101 0)
(-0.812864 -0.212155 0)
(-0.80821 -0.156481 0)
(-0.896874 -0.188763 0)
(-0.648282 -0.181703 0)
(-0.411844 -0.146765 0)
(-0.386139 -0.165258 0)
(-0.160971 -0.17011 0)
(-0.0920205 -0.0191239 0)
(-0.424582 -0.104612 0)
(-0.368199 -0.226697 0)
(-0.374931 -0.214704 0)
(-0.412429 -0.203151 0)
(-0.301592 -0.221055 0)
(-0.333691 -0.232465 0)
(-0.0804267 -0.201672 0)
(0.211728 -0.161155 0)
(0.423905 -0.0186023 0)
(0.196398 -0.00852472 0)
(0.1434 -0.0498419 0)
(0.138209 -0.0743643 0)
(0.16159 -0.0792352 0)
(0.321625 -0.0839785 0)
(0.531971 -0.0670205 0)
(0.804926 -0.0444347 0)
(1.05942 -0.00239454 0)
(1.28163 0.0261256 0)
(1.40575 0.0688634 0)
(1.43488 0.0994695 0)
(1.40437 0.112764 0)
(1.3252 0.126693 0)
(1.25456 0.129322 0)
(1.19842 0.133605 0)
(1.09187 0.133681 0)
(0.741468 0.0943117 0)
(0.41551 -0.0103344 0)
(0.340478 -0.0707917 0)
(0.432794 -0.0830859 0)
(0.702297 -0.0677365 0)
(1.03193 0.00822834 0)
(0.917649 0.110723 0)
(0.52179 0.0885263 0)
(0.337192 -0.0566713 0)
(0.378968 -0.0817364 0)
(0.527991 -0.0794719 0)
(0.664315 -0.0737102 0)
(0.735642 -0.0467475 0)
(0.783052 -0.003586 0)
(0.70506 0.0115774 0)
(0.611379 0.00638659 0)
(0.629223 -0.000585333 0)
(0.702231 0.00929133 0)
(0.754513 0.0169713 0)
(0.727337 0.0169697 0)
(0.577257 -0.011086 0)
(0.556185 -0.0429922 0)
(0.715507 -0.0437261 0)
(1.00505 -0.0177527 0)
(1.18355 0.0387054 0)
(1.18629 0.100222 0)
(1.15362 0.111035 0)
(1.08693 0.105508 0)
(1.06613 0.103199 0)
(1.02569 0.10523 0)
(0.912857 0.0898344 0)
(0.748016 0.038544 0)
(0.734799 0.0008841 0)
(0.850073 -0.00173044 0)
(1.11196 0.0183791 0)
(1.34078 0.0727616 0)
(1.32007 0.12851 0)
(1.09337 0.118843 0)
(0.846964 -0.0119646 0)
(0.884484 -0.0551028 0)
(0.994726 -0.0507121 0)
(1.20065 -0.0154249 0)
(1.26401 0.0581988 0)
(1.16555 0.0836101 0)
(1.11087 0.0803936 0)
(1.13354 0.0703996 0)
(1.19022 0.0760942 0)
(1.21392 0.0849302 0)
(1.19759 0.087675 0)
(1.15177 0.0893797 0)
(1.06966 0.0852312 0)
(0.956918 0.0725246 0)
(0.843874 0.0484524 0)
(0.794885 0.0424287 0)
(0.803756 0.0489635 0)
(0.828718 0.0656773 0)
(0.822304 0.0755969 0)
(0.796687 0.0752487 0)
(0.798008 0.0760006 0)
(0.817044 0.0781258 0)
(0.836327 0.0820707 0)
(0.82772 0.082013 0)
(0.807939 0.0792894 0)
(0.799869 0.0779228 0)
(0.803705 0.0782458 0)
(0.799591 0.0801442 0)
(0.770032 0.0807599 0)
(0.694681 0.0737234 0)
(0.608691 0.0542672 0)
(0.586781 0.0385679 0)
(0.6074 0.0325846 0)
(0.688501 0.0359911 0)
(0.797858 0.049121 0)
(0.87869 0.0629514 0)
(0.918564 0.0734393 0)
(0.916788 0.0774891 0)
(0.914991 0.0758277 0)
(0.920353 0.0735366 0)
(0.943132 0.0746872 0)
(0.969409 0.0771275 0)
(0.961622 0.0739003 0)
(0.945915 0.0628245 0)
(0.950149 0.0509801 0)
(0.973692 0.0495234 0)
(1.02171 0.0601114 0)
(1.04252 0.0859615 0)
(1.05873 0.103386 0)
(1.05894 0.107961 0)
(1.03174 0.105174 0)
(0.97396 0.0997703 0)
(0.913186 0.0965601 0)
(0.853062 0.0926705 0)
(0.800943 0.0870335 0)
(0.763449 0.0819919 0)
(0.734393 0.0778621 0)
(0.70838 0.0744881 0)
(0.683803 0.0717065 0)
(0.660088 0.0691796 0)
(0.637071 0.0667713 0)
(0.614702 0.0644503 0)
(0.59289 0.0621957 0)
(0.571636 0.0599812 0)
(0.55115 0.0578276 0)
(0.531423 0.055765 0)
(0.512266 0.0538009 0)
(0.493275 0.0518684 0)
(0.474638 0.0499532 0)
(0.456338 0.0480556 0)
(0.438772 0.0462114 0)
(0.421723 0.0444305 0)
(0.405351 0.0427094 0)
(0.389428 0.0410496 0)
(0.374143 0.039449 0)
(0.359146 0.0379378 0)
(0.344359 0.0363884 0)
(0.329948 0.0349499 0)
(0.315853 0.0333745 0)
(-0.869109 0.0242488 0)
(-0.86148 -0.00723348 0)
(-0.79964 -0.0148267 0)
(-0.601342 -0.0327092 0)
(-0.387395 0.017466 0)
(-0.446445 0.0366051 0)
(-0.154173 0.112236 0)
(-0.163609 0.0233866 0)
(-0.40511 0.0288705 0)
(-0.316802 0.136 0)
(-0.422755 0.128928 0)
(-0.441484 0.0919024 0)
(-0.342502 0.128611 0)
(-0.360954 0.105491 0)
(-0.123995 0.0640495 0)
(0.157994 0.0979953 0)
(0.326945 0.0970529 0)
(0.155461 0.0722684 0)
(0.167598 0.0799317 0)
(0.120899 0.0871201 0)
(0.225906 0.0838629 0)
(0.345392 0.0832139 0)
(0.541364 0.0831457 0)
(0.825747 0.0962477 0)
(1.13353 0.116906 0)
(1.28961 0.16184 0)
(1.38544 0.182374 0)
(1.40327 0.186186 0)
(1.38062 0.181638 0)
(1.31152 0.156813 0)
(1.24103 0.141454 0)
(1.19058 0.143262 0)
(1.08713 0.152465 0)
(0.744028 0.135704 0)
(0.429294 0.134754 0)
(0.343617 0.124611 0)
(0.42368 0.0975881 0)
(0.678546 0.0992313 0)
(0.98177 0.146562 0)
(0.902506 0.14654 0)
(0.528306 0.11803 0)
(0.348586 0.135021 0)
(0.37879 0.127449 0)
(0.533994 0.126629 0)
(0.64272 0.161268 0)
(0.68065 0.16048 0)
(0.740742 0.154508 0)
(0.676803 0.144098 0)
(0.592572 0.119722 0)
(0.616336 0.104152 0)
(0.697501 0.10625 0)
(0.754071 0.128249 0)
(0.72807 0.150235 0)
(0.578658 0.146404 0)
(0.55163 0.122466 0)
(0.704938 0.103558 0)
(0.981569 0.133627 0)
(1.15467 0.163222 0)
(1.16641 0.142621 0)
(1.13236 0.133495 0)
(1.07738 0.11737 0)
(1.06776 0.113501 0)
(1.03068 0.122465 0)
(0.9223 0.131278 0)
(0.752725 0.133322 0)
(0.732562 0.122792 0)
(0.845873 0.103857 0)
(1.10096 0.118459 0)
(1.3232 0.154717 0)
(1.30869 0.167732 0)
(1.09559 0.171343 0)
(0.859483 0.204974 0)
(0.879498 0.195248 0)
(0.963603 0.180226 0)
(1.14666 0.188656 0)
(1.21619 0.186634 0)
(1.13184 0.169778 0)
(1.08521 0.143437 0)
(1.11831 0.132301 0)
(1.18834 0.140906 0)
(1.21073 0.153755 0)
(1.19257 0.15835 0)
(1.14222 0.154296 0)
(1.05991 0.149491 0)
(0.952858 0.149557 0)
(0.841145 0.14168 0)
(0.784532 0.119417 0)
(0.795086 0.10472 0)
(0.824567 0.0963171 0)
(0.819174 0.090825 0)
(0.786327 0.0861767 0)
(0.776683 0.0856464 0)
(0.786212 0.0863438 0)
(0.808057 0.0857727 0)
(0.808159 0.0833285 0)
(0.804493 0.0815709 0)
(0.809133 0.0807023 0)
(0.815604 0.080498 0)
(0.808213 0.0823457 0)
(0.773601 0.0847493 0)
(0.696059 0.0843233 0)
(0.608435 0.0809664 0)
(0.582265 0.0764582 0)
(0.601628 0.0705826 0)
(0.682227 0.0690053 0)
(0.791197 0.0801477 0)
(0.876939 0.0928376 0)
(0.922366 0.103783 0)
(0.922263 0.105685 0)
(0.919372 0.105875 0)
(0.922989 0.10507 0)
(0.942791 0.104886 0)
(0.970506 0.113829 0)
(0.967917 0.122226 0)
(0.956681 0.128613 0)
(0.957628 0.133188 0)
(0.978459 0.131811 0)
(1.02334 0.130631 0)
(1.04535 0.120134 0)
(1.06218 0.115019 0)
(1.06106 0.113268 0)
(1.03154 0.108155 0)
(0.969778 0.101831 0)
(0.90433 0.0962732 0)
(0.848854 0.0923472 0)
(0.80069 0.0876728 0)
(0.763353 0.0827438 0)
(0.733889 0.0783757 0)
(0.707935 0.0749588 0)
(0.683431 0.0721664 0)
(0.65976 0.06963 0)
(0.63677 0.0672106 0)
(0.614423 0.0648796 0)
(0.592631 0.0626158 0)
(0.571395 0.0603894 0)
(0.550927 0.0582215 0)
(0.531217 0.0561468 0)
(0.512076 0.0541769 0)
(0.493096 0.0522405 0)
(0.47447 0.0503184 0)
(0.456181 0.0484116 0)
(0.438626 0.046555 0)
(0.421587 0.0447635 0)
(0.405225 0.0430304 0)
(0.389309 0.0413611 0)
(0.374033 0.0397503 0)
(0.359041 0.0382379 0)
(0.34426 0.0366783 0)
(0.329854 0.0352405 0)
(0.315764 0.0336402 0)
(-0.848807 -0.199071 0)
(-0.812251 -0.155306 0)
(-0.745745 -0.174092 0)
(-0.626679 -0.181504 0)
(-0.374823 -0.145458 0)
(-0.382314 -0.141311 0)
(-0.0550808 -0.149265 0)
(-0.244135 -0.0250751 0)
(-0.428855 -0.0933762 0)
(-0.355879 -0.199064 0)
(-0.444522 -0.179604 0)
(-0.357415 -0.172315 0)
(-0.337242 -0.189634 0)
(-0.353919 -0.190742 0)
(-0.122697 -0.158945 0)
(0.213897 -0.124907 0)
(0.379782 -0.0117399 0)
(0.179993 0.00101971 0)
(0.149199 -0.0364303 0)
(0.185062 -0.0503495 0)
(0.25319 -0.0644526 0)
(0.277457 -0.0555434 0)
(0.452665 -0.0387455 0)
(0.750882 -0.0134547 0)
(1.14739 0.0219374 0)
(1.35937 0.0472037 0)
(1.4067 0.0799333 0)
(1.4195 0.103642 0)
(1.39482 0.117663 0)
(1.3246 0.131791 0)
(1.2446 0.131989 0)
(1.18498 0.137097 0)
(1.08232 0.146575 0)
(0.754668 0.115807 0)
(0.441021 0.0170728 0)
(0.358467 -0.0505863 0)
(0.43896 -0.0576391 0)
(0.698621 -0.0491463 0)
(1.01015 0.0223958 0)
(0.915264 0.125088 0)
(0.556968 0.0944312 0)
(0.335454 -0.0388424 0)
(0.407521 -0.0708954 0)
(0.537663 -0.0547781 0)
(0.675507 -0.0531297 0)
(0.711641 -0.0316169 0)
(0.766017 0.00728009 0)
(0.695276 0.0280058 0)
(0.604617 0.0167653 0)
(0.622453 0.0075283 0)
(0.695035 0.0152659 0)
(0.752699 0.0235751 0)
(0.731508 0.0350744 0)
(0.589166 0.0102518 0)
(0.564413 -0.0243103 0)
(0.717281 -0.0244473 0)
(1.00326 -0.00212918 0)
(1.18063 0.0531471 0)
(1.1845 0.107238 0)
(1.14467 0.118261 0)
(1.09229 0.111744 0)
(1.09581 0.108014 0)
(1.05802 0.107535 0)
(0.932374 0.0988258 0)
(0.752778 0.0520771 0)
(0.74136 0.014491 0)
(0.856333 0.0112069 0)
(1.11309 0.029226 0)
(1.33669 0.0811924 0)
(1.31306 0.141058 0)
(1.10248 0.133663 0)
(0.879745 0.0122743 0)
(0.905262 -0.0284711 0)
(0.994142 -0.0226873 0)
(1.18104 0.00673191 0)
(1.24019 0.0717021 0)
(1.14664 0.098945 0)
(1.09457 0.0860733 0)
(1.12873 0.0766721 0)
(1.19663 0.0818764 0)
(1.21568 0.0902435 0)
(1.19825 0.0965824 0)
(1.14756 0.101614 0)
(1.0672 0.0997329 0)
(0.959697 0.0833796 0)
(0.847334 0.0608742 0)
(0.795876 0.048638 0)
(0.802797 0.0525877 0)
(0.825677 0.0673249 0)
(0.822204 0.07858 0)
(0.790474 0.0776144 0)
(0.782216 0.0771049 0)
(0.801791 0.0785685 0)
(0.842126 0.0827501 0)
(0.847693 0.0841694 0)
(0.836609 0.0822122 0)
(0.826963 0.0806094 0)