/*--------------------------------*- C++ -*----------------------------------*\
| =========                 |                                                 |
| \\      /  F ield         | OpenFOAM: The Open Source CFD Toolbox           |
|  \\    /   O peration     | Version:  v1912                                 |
|   \\  /    A nd           | Website:  www.openfoam.com                      |
|    \\/     M anipulation  |                                                 |
\*---------------------------------------------------------------------------*/
FoamFile
{
    version     2.0;
    format      ascii;
    class       volScalarField;
    location    "40";
    object      omega;
}
// * * * * * * * * * * * * * * * * * * * * * * * * * * * * * * * * * * * * * //

dimensions      [0 0 -1 0 0 0 0];


internalField   nonuniform List<scalar> 
14268
(
44.5916
44.5916
44.5916
44.5916
44.5916
44.5916
44.5916
44.5916
44.5916
44.5916
44.5916
44.5916
44.5916
44.5916
44.5916
44.5916
44.5916
44.5916
44.5916
44.5916
44.5916
44.5916
44.5916
44.5916
44.5916
44.5916
44.5916
44.5916
44.5916
44.5916
44.5916
44.5916
44.5916
44.5916
44.5916
44.5916
44.5916
44.5916
44.5916
44.5916
44.5916
44.5916
44.5916
44.5916
44.5916
44.5916
44.5916
44.5916
44.5916
44.5916
44.5916
44.5916
44.5916
44.5916
44.5916
44.5916
44.5916
44.5916
44.5916
44.5916
44.5916
44.5916
44.5916
44.5916
44.5916
44.5916
44.5916
44.5916
44.5916
44.5916
44.5916
44.5916
44.5916
44.5916
44.5916
44.5916
44.5916
44.5916
44.5916
44.5916
44.5916
44.5916
44.5916
44.5916
44.5916
44.5916
44.5916
44.5916
44.5916
44.5916
44.5916
44.5916
44.5916
44.5916
44.5916
44.5916
44.5916
44.5916
44.5916
44.5916
44.5916
44.5916
44.5916
44.5916
44.5916
44.5916
44.5916
44.5916
44.5916
44.5916
44.5916
44.5916
44.5916
44.5916
44.5916
44.5916
44.5916
44.5916
44.5916
44.5916
44.5916
44.5916
44.5916
44.5916
44.5916
44.5916
44.5916
44.5916
44.5916
44.5916
44.5916
44.5916
44.5916
44.5916
44.5916
44.5916
44.5916
44.5916
44.5916
44.5916
44.5916
44.5916
44.5916
44.5916
44.5916
44.5916
44.5916
44.5916
44.5916
44.5916
9.83613
9.68585
9.54164
9.43104
9.32506
9.22701
9.13817
9.05809
8.98572
8.92009
8.86037
8.80588
8.75601
8.71023
8.66811
8.62924
8.59326
8.55989
8.52886
8.49993
8.47289
8.44757
8.42381
8.40146
8.38039
8.3605
8.34169
8.32386
8.30694
8.29085
8.27554
8.26094
8.247
8.23368
8.22094
8.20874
8.19704
8.18582
8.17504
8.16467
8.15471
8.14511
8.13587
8.12697
8.11839
8.11014
8.10208
8.09442
8.08695
8.07977
8.07283
8.06612
8.05963
8.05336
8.04729
8.04143
8.03576
8.03028
8.02497
8.01984
8.01488
8.01009
8.00545
8.00096
7.99662
7.99242
7.98836
7.98444
7.98064
7.97698
7.97343
7.97
7.96669
7.96349
7.96039
7.95741
7.95452
7.95173
7.94903
7.94643
7.94392
7.9415
7.93915
7.93689
7.93471
7.93261
7.93058
7.92862
7.92673
7.92491
7.92316
7.92146
7.91983
7.91826
7.91675
7.91529
7.91388
7.91253
7.91122
7.90997
7.90875
7.90759
7.90647
7.90539
7.90435
7.90335
7.90239
7.90147
7.90058
7.89972
7.8989
7.89811
7.89735
7.89662
7.89592
7.89524
7.8946
7.89397
7.89338
7.8928
7.89226
7.89173
7.89122
7.89073
7.89027
7.88982
7.88939
7.88898
7.88858
7.88821
7.88784
7.8875
7.88716
7.88684
7.88654
7.88625
7.88596
7.8857
7.88544
7.88519
7.88496
7.88473
7.88452
7.88431
7.88411
7.88393
7.88375
7.88359
7.88342
7.8832
4.04402
3.92652
3.81422
3.73654
3.66232
3.59344
3.53137
3.47591
3.42625
3.38161
3.34133
3.30484
3.27167
3.24142
3.21373
3.1883
3.16487
3.14323
3.12317
3.10453
3.08716
3.07094
3.05575
3.0415
3.02809
3.01546
3.00353
2.99224
2.98154
2.97138
2.96173
2.95254
2.94377
2.93541
2.92742
2.91977
2.91245
2.90543
2.89869
2.89223
2.88602
2.88004
2.8743
2.86877
2.86344
2.85832
2.85333
2.84858
2.84397
2.83954
2.83525
2.83112
2.82712
2.82326
2.81954
2.81594
2.81246
2.8091
2.80585
2.80271
2.79968
2.79675
2.79392
2.79118
2.78854
2.78598
2.78351
2.78113
2.77882
2.7766
2.77445
2.77237
2.77036
2.76843
2.76655
2.76475
2.763
2.76132
2.75969
2.75812
2.75661
2.75515
2.75374
2.75238
2.75107
2.7498
2.74858
2.7474
2.74627
2.74518
2.74412
2.74311
2.74213
2.74119
2.74028
2.7394
2.73856
2.73775
2.73697
2.73622
2.73549
2.7348
2.73413
2.73348
2.73286
2.73226
2.73169
2.73114
2.73061
2.7301
2.72961
2.72913
2.72868
2.72825
2.72783
2.72743
2.72704
2.72667
2.72632
2.72597
2.72565
2.72533
2.72503
2.72474
2.72446
2.7242
2.72394
2.7237
2.72346
2.72324
2.72302
2.72281
2.72261
2.72242
2.72224
2.72207
2.7219
2.72174
2.72159
2.72144
2.7213
2.72117
2.72104
2.72092
2.7208
2.72069
2.72058
2.72049
2.72039
2.72026
2.38864
2.27716
2.17735
2.11031
2.04763
1.99024
1.93907
1.89376
1.85354
1.81765
1.7855
1.75655
1.73039
1.70663
1.68498
1.66517
1.64698
1.63022
1.61474
1.60038
1.58702
1.57458
1.56294
1.55203
1.54179
1.53215
1.52305
1.51446
1.50633
1.49861
1.49128
1.48431
1.47768
1.47135
1.4653
1.45953
1.454
1.44871
1.44364
1.43877
1.4341
1.42962
1.42531
1.42117
1.41717
1.41334
1.40962
1.40607
1.40263
1.39933
1.39614
1.39306
1.39009
1.38723
1.38446
1.3818
1.37922
1.37674
1.37434
1.37202
1.36978
1.36762
1.36554
1.36353
1.36158
1.35971
1.35789
1.35614
1.35445
1.35282
1.35125
1.34973
1.34826
1.34685
1.34548
1.34416
1.34289
1.34167
1.34048
1.33934
1.33824
1.33718
1.33615
1.33517
1.33421
1.33329
1.33241
1.33156
1.33074
1.32994
1.32918
1.32845
1.32774
1.32706
1.3264
1.32577
1.32516
1.32457
1.32401
1.32346
1.32294
1.32244
1.32196
1.32149
1.32104
1.32061
1.3202
1.3198
1.31942
1.31905
1.3187
1.31836
1.31803
1.31772
1.31742
1.31713
1.31685
1.31659
1.31633
1.31608
1.31585
1.31562
1.31541
1.3152
1.315
1.31481
1.31462
1.31445
1.31428
1.31412
1.31396
1.31381
1.31367
1.31353
1.3134
1.31328
1.31316
1.31304
1.31293
1.31283
1.31273
1.31263
1.31254
1.31245
1.31237
1.31229
1.31221
1.31214
1.31207
1.31198
1.69329
1.57881
1.48589
1.42444
1.36869
1.31862
1.27455
1.23595
1.20199
1.17195
1.14522
1.12133
1.09985
1.08045
1.06286
1.04683
1.03217
1.01871
1.00631
0.994842
0.984211
0.974323
0.965102
0.95648
0.948399
0.940808
0.933661
0.92692
0.92055
0.91452
0.908803
0.903375
0.898213
0.893299
0.888615
0.884145
0.879875
0.875792
0.871886
0.868144
0.864558
0.861118
0.857817
0.854654
0.851602
0.848683
0.845854
0.843152
0.840546
0.83804
0.835626
0.8333
0.831059
0.8289
0.826819
0.824813
0.82288
0.821016
0.819218
0.817484
0.815812
0.8142
0.812645
0.811145
0.809698
0.808302
0.806957
0.805658
0.804406
0.803198
0.802033
0.80091
0.799826
0.798781
0.797774
0.796802
0.795866
0.794963
0.794092
0.793253
0.792444
0.791664
0.790913
0.790189
0.789491
0.788819
0.788172
0.787548
0.786947
0.786368
0.785811
0.785274
0.784758
0.78426
0.783782
0.783321
0.782877
0.78245
0.78204
0.781645
0.781265
0.780899
0.780548
0.780209
0.779885
0.779572
0.779272
0.778983
0.778706
0.778439
0.778183
0.777936
0.7777
0.777473
0.777255
0.777045
0.776844
0.776651
0.776466
0.776287
0.776117
0.775953
0.775796
0.775645
0.7755
0.775362
0.775229
0.775101
0.774979
0.774862
0.77475
0.774642
0.774539
0.774441
0.774346
0.774255
0.774169
0.774086
0.774006
0.77393
0.773858
0.773788
0.773722
0.773658
0.773598
0.77354
0.773485
0.773435
0.773382
0.773317
1.31751
1.20125
1.11714
1.0604
1.01006
0.965786
0.927405
0.894183
0.865264
0.839923
0.817574
0.797744
0.780047
0.76417
0.749853
0.736882
0.725079
0.714295
0.704404
0.695298
0.686888
0.679096
0.671855
0.665109
0.658806
0.652904
0.647366
0.642158
0.63725
0.632618
0.628238
0.62409
0.620157
0.616422
0.612871
0.609491
0.60627
0.603197
0.600264
0.597461
0.594782
0.592216
0.58976
0.587412
0.58515
0.582991
0.580905
0.578914
0.576999
0.575161
0.573393
0.571692
0.570057
0.568485
0.566971
0.565515
0.564114
0.562764
0.561465
0.560215
0.55901
0.55785
0.556733
0.555657
0.55462
0.553621
0.552659
0.551732
0.55084
0.549979
0.54915
0.548352
0.547583
0.546842
0.546128
0.54544
0.544778
0.54414
0.543525
0.542933
0.542363
0.541814
0.541285
0.540776
0.540286
0.539814
0.539359
0.538922
0.538501
0.538095
0.537705
0.53733
0.536968
0.536621
0.536286
0.535965
0.535655
0.535358
0.535071
0.534796
0.534532
0.534277
0.534032
0.533797
0.533571
0.533353
0.533145
0.532944
0.532751
0.532565
0.532388
0.532216
0.532052
0.531894
0.531743
0.531597
0.531458
0.531323
0.531195
0.531071
0.530953
0.530839
0.53073
0.530625
0.530525
0.530429
0.530337
0.530248
0.530163
0.530082
0.530004
0.52993
0.529859
0.52979
0.529725
0.529662
0.529602
0.529544
0.529489
0.529437
0.529387
0.529338
0.529292
0.529248
0.529206
0.529166
0.529128
0.529093
0.529057
0.529012
1.07558
0.963011
0.89003
0.83775
0.792386
0.753333
0.720045
0.691621
0.667177
0.645994
0.627501
0.611246
0.596866
0.584068
0.572616
0.562314
0.553002
0.544548
0.53684
0.529784
0.523303
0.517329
0.511806
0.506684
0.501921
0.497481
0.493332
0.489446
0.4858
0.482372
0.479143
0.476096
0.473218
0.470494
0.467913
0.465464
0.463138
0.460927
0.458823
0.456818
0.454907
0.453082
0.45134
0.44968
0.448085
0.446565
0.445103
0.443709
0.442373
0.441092
0.439863
0.438685
0.437553
0.436468
0.435425
0.434424
0.433463
0.432539
0.431651
0.430798
0.429977
0.429189
0.42843
0.427701
0.426999
0.426325
0.425676
0.425052
0.424451
0.423873
0.423317
0.422782
0.422268
0.421773
0.421296
0.420837
0.420396
0.419972
0.419563
0.41917
0.418792
0.418428
0.418078
0.417741
0.417417
0.417105
0.416805
0.416517
0.41624
0.415973
0.415716
0.415469
0.415232
0.415004
0.414785
0.414574
0.414371
0.414176
0.413989
0.413808
0.413635
0.413469
0.413309
0.413155
0.413007
0.412865
0.412729
0.412597
0.412472
0.41235
0.412234
0.412122
0.412015
0.411912
0.411814
0.411718
0.411628
0.41154
0.411456
0.411376
0.411299
0.411224
0.411154
0.411085
0.41102
0.410957
0.410897
0.41084
0.410785
0.410732
0.410681
0.410633
0.410586
0.410542
0.410499
0.410458
0.410419
0.410382
0.410346
0.410312
0.410279
0.410248
0.410218
0.410189
0.410162
0.410136
0.410111
0.410089
0.410065
0.410036
0.903379
0.79956
0.736948
0.68931
0.648871
0.614828
0.586338
0.562384
0.542068
0.524687
0.509692
0.496657
0.485245
0.475187
0.466268
0.458314
0.451182
0.444757
0.438942
0.433657
0.428835
0.424419
0.42036
0.41662
0.413161
0.409954
0.406974
0.404198
0.401605
0.399179
0.396905
0.394769
0.39276
0.390867
0.389081
0.387394
0.385798
0.384286
0.382852
0.381492
0.380199
0.37897
0.3778
0.376689
0.375625
0.374614
0.373645
0.372723
0.371843
0.371001
0.370195
0.369425
0.368688
0.367982
0.367305
0.366658
0.366037
0.365442
0.364871
0.364324
0.363799
0.363295
0.362812
0.362348
0.361903
0.361475
0.361065
0.36067
0.360292
0.359928
0.359579
0.359243
0.35892
0.35861
0.358313
0.358026
0.357751
0.357487
0.357233
0.356989
0.356754
0.356529
0.356312
0.356104
0.355904
0.355711
0.355527
0.355349
0.355178
0.355014
0.354856
0.354705
0.354559
0.35442
0.354285
0.354156
0.354032
0.353913
0.353799
0.353689
0.353583
0.353481
0.353384
0.35329
0.3532
0.353113
0.35303
0.35295
0.352874
0.3528
0.352729
0.352661
0.352596
0.352533
0.352473
0.352416
0.35236
0.352307
0.352256
0.352207
0.352161
0.352115
0.352073
0.352031
0.351992
0.351953
0.351917
0.351882
0.351849
0.351817
0.351786
0.351757
0.351728
0.351701
0.351675
0.351651
0.351627
0.351605
0.351583
0.351562
0.351542
0.351523
0.351505
0.351488
0.351471
0.351455
0.35144
0.351427
0.351412
0.351394
0.773695
0.682599
0.628175
0.585331
0.549848
0.520669
0.496727
0.476937
0.460411
0.446474
0.43461
0.424424
0.415609
0.407926
0.401182
0.395227
0.389937
0.385214
0.380974
0.377152
0.373691
0.370545
0.367674
0.365046
0.362632
0.360409
0.358355
0.356452
0.354687
0.353043
0.351511
0.35008
0.348741
0.347485
0.346306
0.345198
0.344154
0.343169
0.34224
0.341362
0.340532
0.339745
0.338999
0.338293
0.33762
0.336983
0.336374
0.335797
0.335248
0.334725
0.334226
0.33375
0.333296
0.332862
0.332448
0.332053
0.331675
0.331314
0.330968
0.330638
0.330321
0.330019
0.329729
0.329451
0.329186
0.328931
0.328687
0.328453
0.328229
0.328014
0.327808
0.32761
0.327421
0.327239
0.327065
0.326897
0.326737
0.326583
0.326435
0.326293
0.326157
0.326026
0.325901
0.32578
0.325665
0.325554
0.325447
0.325345
0.325247
0.325152
0.325062
0.324975
0.324892
0.324812
0.324735
0.324661
0.32459
0.324522
0.324457
0.324394
0.324334
0.324276
0.324221
0.324168
0.324117
0.324067
0.324021
0.323975
0.323932
0.32389
0.32385
0.323811
0.323774
0.323739
0.323705
0.323672
0.323641
0.323611
0.323582
0.323554
0.323528
0.323502
0.323478
0.323455
0.323432
0.323411
0.32339
0.32337
0.323352
0.323333
0.323316
0.3233
0.323283
0.323268
0.323254
0.32324
0.323226
0.323214
0.323201
0.32319
0.323178
0.323168
0.323157
0.323148
0.323138
0.323129
0.323121
0.323113
0.323105
0.323095
0.672813
0.596763
0.548595
0.510671
0.480086
0.455539
0.435812
0.4198
0.40665
0.395728
0.386562
0.378796
0.372159
0.366441
0.361477
0.357139
0.353324
0.349949
0.346947
0.344263
0.341853
0.33968
0.337712
0.335924
0.334293
0.3328
0.331431
0.330171
0.329009
0.327934
0.326938
0.326013
0.325152
0.32435
0.3236
0.322899
0.322242
0.321626
0.321047
0.320503
0.319991
0.319507
0.319052
0.318622
0.318214
0.317829
0.317464
0.317119
0.316791
0.31648
0.316185
0.315905
0.315638
0.315385
0.315143
0.314914
0.314695
0.314486
0.314288
0.314098
0.313917
0.313745
0.31358
0.313423
0.313272
0.313129
0.312992
0.31286
0.312735
0.312615
0.3125
0.31239
0.312285
0.312185
0.312089
0.311996
0.311908
0.311824
0.311743
0.311665
0.311591
0.311519
0.311451
0.311386
0.311323
0.311263
0.311205
0.31115
0.311097
0.311046
0.310998
0.310951
0.310906
0.310863
0.310822
0.310783
0.310745
0.310709
0.310674
0.31064
0.310608
0.310578
0.310548
0.31052
0.310493
0.310467
0.310442
0.310418
0.310395
0.310373
0.310352
0.310331
0.310312
0.310293
0.310275
0.310258
0.310242
0.310225
0.31021
0.310195
0.310182
0.310168
0.310156
0.310143
0.310131
0.31012
0.310109
0.310098
0.310089
0.310079
0.31007
0.310061
0.310053
0.310045
0.310037
0.31003
0.310022
0.310016
0.310009
0.310003
0.309997
0.309992
0.309986
0.309981
0.309976
0.309971
0.309967
0.309963
0.309959
0.309953
0.59508
0.532166
0.489621
0.456612
0.430697
0.410408
0.394446
0.38173
0.371461
0.363063
0.356116
0.350307
0.345403
0.341226
0.33764
0.334538
0.331837
0.329468
0.327381
0.32553
0.323882
0.322408
0.321082
0.319886
0.318804
0.31782
0.316923
0.316104
0.315353
0.314663
0.314027
0.31344
0.312897
0.312394
0.311926
0.311492
0.311087
0.310709
0.310356
0.310026
0.309717
0.309426
0.309154
0.308898
0.308658
0.308431
0.308217
0.308016
0.307826
0.307646
0.307477
0.307316
0.307164
0.30702
0.306884
0.306755
0.306632
0.306516
0.306405
0.3063
0.3062
0.306106
0.306015
0.30593
0.305848
0.30577
0.305696
0.305625
0.305558
0.305494
0.305433
0.305375
0.305319
0.305266
0.305215
0.305167
0.30512
0.305076
0.305034
0.304994
0.304955
0.304918
0.304883
0.30485
0.304817
0.304787
0.304757
0.304729
0.304702
0.304676
0.304651
0.304628
0.304605
0.304583
0.304563
0.304543
0.304524
0.304505
0.304488
0.304471
0.304455
0.30444
0.304425
0.304411
0.304398
0.304385
0.304373
0.30436
0.304349
0.304338
0.304328
0.304318
0.304308
0.304299
0.30429
0.304281
0.304273
0.304265
0.304258
0.30425
0.304244
0.304237
0.304231
0.304224
0.304219
0.304213
0.304208
0.304202
0.304197
0.304193
0.304188
0.304184
0.304179
0.304176
0.304172
0.304168
0.304164
0.304162
0.304158
0.304155
0.304152
0.30415
0.304146
0.304144
0.304142
0.304139
0.304137
0.304135
0.304133
0.30413
0.537682
0.483106
0.445777
0.417501
0.395886
0.379364
0.366633
0.356672
0.348754
0.342371
0.337159
0.332853
0.329259
0.326228
0.323651
0.321442
0.319535
0.317876
0.316426
0.31515
0.31402
0.313018
0.312121
0.31132
0.310598
0.309945
0.309355
0.308818
0.308329
0.307883
0.307473
0.307098
0.306752
0.306434
0.30614
0.305868
0.305616
0.305382
0.305165
0.304963
0.304775
0.304598
0.304435
0.304281
0.304139
0.304004
0.303878
0.30376
0.303649
0.303545
0.303447
0.303355
0.303268
0.303186
0.303109
0.303036
0.302968
0.302903
0.302842
0.302784
0.302729
0.302678
0.302629
0.302582
0.302538
0.302497
0.302457
0.30242
0.302384
0.302351
0.302319
0.302288
0.30226
0.302232
0.302206
0.302181
0.302158
0.302135
0.302114
0.302094
0.302074
0.302056
0.302038
0.302022
0.302006
0.301991
0.301976
0.301962
0.301949
0.301937
0.301925
0.301913
0.301902
0.301892
0.301882
0.301872
0.301863
0.301854
0.301846
0.301838
0.301831
0.301823
0.301817
0.30181
0.301804
0.301797
0.301792
0.301786
0.301781
0.301776
0.301771
0.301766
0.301762
0.301757
0.301753
0.301749
0.301745
0.301741
0.301738
0.301735
0.301732
0.301728
0.301726
0.301722
0.30172
0.301717
0.301715
0.301712
0.30171
0.301708
0.301705
0.301703
0.301701
0.3017
0.301698
0.301696
0.301694
0.301693
0.301691
0.30169
0.301688
0.301687
0.301686
0.301685
0.301683
0.301682
0.301681
0.30168
0.30168
0.301678
0.494093
0.446052
0.413537
0.389577
0.371712
0.358352
0.348253
0.340477
0.334382
0.329529
0.325608
0.3224
0.319744
0.317523
0.315649
0.314052
0.312682
0.311498
0.310468
0.309566
0.308772
0.308071
0.307446
0.306891
0.306393
0.305944
0.305541
0.305175
0.304844
0.304542
0.304267
0.304016
0.303786
0.303575
0.303381
0.303202
0.303037
0.302885
0.302745
0.302614
0.302495
0.30238
0.302278
0.30218
0.302091
0.302006
0.301929
0.301855
0.301787
0.301723
0.301664
0.301608
0.301556
0.301507
0.301461
0.301418
0.301378
0.30134
0.301305
0.301271
0.30124
0.301211
0.301183
0.301157
0.301132
0.301109
0.301088
0.301067
0.301048
0.30103
0.301012
0.300996
0.300981
0.300966
0.300953
0.30094
0.300928
0.300916
0.300905
0.300895
0.300885
0.300876
0.300867
0.300859
0.300851
0.300844
0.300837
0.30083
0.300824
0.300818
0.300812
0.300806
0.300801
0.300796
0.300792
0.300787
0.300783
0.300779
0.300775
0.300772
0.300768
0.300765
0.300762
0.300759
0.300756
0.300753
0.300751
0.300748
0.300746
0.300743
0.300742
0.300739
0.300737
0.300735
0.300734
0.300732
0.30073
0.300728
0.300727
0.300725
0.300724
0.300722
0.300721
0.30072
0.300719
0.300717
0.300716
0.300715
0.300714
0.300713
0.300712
0.300711
0.30071
0.300709
0.300708
0.300708
0.300707
0.300706
0.300705
0.300705
0.300704
0.300704
0.300703
0.300703
0.300702
0.300701
0.300701
0.3007
0.3007
0.300699
0.459645
0.41746
0.389472
0.369383
0.354746
0.344027
0.336069
0.330026
0.325337
0.321632
0.318658
0.316237
0.314241
0.312577
0.311176
0.309986
0.308967
0.308087
0.307323
0.306656
0.30607
0.305553
0.305092
0.304684
0.304318
0.303989
0.303694
0.303427
0.303185
0.302965
0.302766
0.302584
0.302417
0.302265
0.302125
0.301997
0.301879
0.30177
0.30167
0.301577
0.301493
0.301412
0.30134
0.301272
0.30121
0.301151
0.301098
0.301047
0.301
0.300957
0.300916
0.300879
0.300844
0.300811
0.300781
0.300752
0.300726
0.300701
0.300678
0.300657
0.300637
0.300618
0.300601
0.300584
0.300569
0.300555
0.300541
0.300529
0.300517
0.300506
0.300496
0.300487
0.300478
0.300469
0.300461
0.300454
0.300447
0.300441
0.300435
0.300429
0.300424
0.300419
0.300414
0.30041
0.300406
0.300402
0.300398
0.300395
0.300391
0.300388
0.300385
0.300383
0.30038
0.300378
0.300376
0.300374
0.300372
0.30037
0.300368
0.300366
0.300365
0.300363
0.300362
0.30036
0.300359
0.300358
0.300357
0.300356
0.300355
0.300354
0.300353
0.300352
0.300351
0.30035
0.300349
0.300348
0.300348
0.300347
0.300346
0.300345
0.300345
0.300344
0.300344
0.300343
0.300343
0.300342
0.300341
0.300341
0.30034
0.30034
0.300339
0.300339
0.300338
0.300338
0.300337
0.300338
0.300337
0.300337
0.300336
0.300336
0.300335
0.300336
0.300335
0.300335
0.300334
0.300334
0.300334
0.300334
0.300334
0.300333
0.418047
0.385894
0.36459
0.349673
0.339035
0.331341
0.325689
0.32141
0.318083
0.315458
0.313352
0.311635
0.310214
0.309026
0.308022
0.307166
0.30643
0.305792
0.305237
0.30475
0.304321
0.303942
0.303603
0.303302
0.303032
0.302789
0.30257
0.302372
0.302193
0.30203
0.301881
0.301746
0.301622
0.301509
0.301406
0.30131
0.301223
0.301143
0.301069
0.301
0.300938
0.30088
0.300827
0.300777
0.300732
0.300689
0.300651
0.300614
0.300581
0.300549
0.300521
0.300494
0.30047
0.300447
0.300426
0.300406
0.300388
0.300371
0.300355
0.300341
0.300328
0.300315
0.300304
0.300293
0.300283
0.300274
0.300266
0.300258
0.30025
0.300244
0.300237
0.300232
0.300226
0.300222
0.300217
0.300213
0.300209
0.300205
0.300202
0.300199
0.300196
0.300194
0.300191
0.300189
0.300187
0.300185
0.300183
0.300182
0.30018
0.300179
0.300178
0.300176
0.300175
0.300174
0.300173
0.300173
0.300172
0.300171
0.300171
0.30017
0.300169
0.300169
0.300168
0.300168
0.300168
0.300167
0.300167
0.300167
0.300166
0.300166
0.300166
0.300165
0.300165
0.300165
0.300165
0.300164
0.300164
0.300164
0.300164
0.300163
0.300163
0.300163
0.300163
0.300162
0.300162
0.300162
0.300162
0.300162
0.300161
0.300161
0.300161
0.300161
0.300161
0.300161
0.30016
0.30016
0.30016
0.30016
0.30016
0.30016
0.300159
0.30016
0.300159
0.300159
0.300159
0.300159
0.300159
0.300159
0.300159
0.300158
0.381884
0.362002
0.347635
0.337138
0.32958
0.324086
0.319992
0.31686
0.314407
0.312446
0.310849
0.309529
0.308425
0.307491
0.306694
0.306008
0.305413
0.304894
0.304439
0.304036
0.30368
0.303362
0.303078
0.302824
0.302595
0.302388
0.302201
0.302031
0.301877
0.301737
0.301609
0.301491
0.301384
0.301286
0.301196
0.301113
0.301037
0.300967
0.300903
0.300843
0.300789
0.300738
0.300691
0.300647
0.300608
0.30057
0.300537
0.300505
0.300476
0.300449
0.300424
0.300401
0.30038
0.30036
0.300341
0.300325
0.300309
0.300294
0.300281
0.300269
0.300257
0.300247
0.300237
0.300228
0.30022
0.300212
0.300205
0.300199
0.300193
0.300187
0.300182
0.300177
0.300173
0.300169
0.300166
0.300162
0.300159
0.300156
0.300154
0.300152
0.300149
0.300147
0.300146
0.300144
0.300143
0.300141
0.30014
0.300139
0.300138
0.300137
0.300136
0.300136
0.300135
0.300134
0.300134
0.300133
0.300133
0.300132
0.300132
0.300132
0.300132
0.300131
0.300131
0.300131
0.300131
0.300131
0.300131
0.30013
0.30013
0.30013
0.30013
0.30013
0.30013
0.30013
0.30013
0.300129
0.300129
0.300129
0.300129
0.300129
0.300129
0.300129
0.300129
0.300128
0.300129
0.300128
0.300128
0.300128
0.300128
0.300128
0.300128
0.300128
0.300127
0.300127
0.300127
0.300127
0.300127
0.300127
0.300127
0.300127
0.300126
0.300127
0.300126
0.300127
0.300126
0.300126
0.300126
0.300126
0.300126
0.300126
0.360615
0.348747
0.339065
0.331339
0.32553
0.321184
0.317869
0.31528
0.313212
0.311527
0.310131
0.308961
0.307969
0.30712
0.30639
0.305755
0.305201
0.304714
0.304285
0.303904
0.303565
0.303261
0.302989
0.302745
0.302524
0.302325
0.302144
0.30198
0.30183
0.301694
0.301569
0.301455
0.30135
0.301254
0.301166
0.301085
0.30101
0.300941
0.300878
0.300819
0.300766
0.300716
0.30067
0.300628
0.300588
0.300551
0.300517
0.300486
0.300458
0.300431
0.300407
0.300385
0.300364
0.300345
0.300327
0.300311
0.300296
0.300282
0.300269
0.300256
0.300245
0.300234
0.300224
0.300215
0.300206
0.300199
0.300193
0.300187
0.300182
0.300177
0.300172
0.300168
0.300164
0.30016
0.300157
0.300154
0.300151
0.300149
0.300146
0.300144
0.300142
0.300141
0.300139
0.300138
0.300136
0.300135
0.300134
0.300133
0.300132
0.300131
0.300131
0.30013
0.300129
0.300129
0.300128
0.300128
0.300128
0.300127
0.300127
0.300127
0.300127
0.300126
0.300126
0.300126
0.300126
0.300126
0.300126
0.300126
0.300126
0.300125
0.300126
0.300125
0.300125
0.300125
0.300125
0.300125
0.300125
0.300125
0.300125
0.300124
0.300125
0.300124
0.300124
0.300124
0.300124
0.300124
0.300124
0.300124
0.300124
0.300123
0.300123
0.300123
0.300123
0.300123
0.300123
0.300123
0.300123
0.300123
0.300122
0.300123
0.300122
0.300123
0.300122
0.300122
0.300122
0.300122
0.300122
0.300122
0.300122
0.300122
0.348971
0.341782
0.334861
0.328716
0.323796
0.319973
0.316984
0.314607
0.312681
0.311095
0.30977
0.308652
0.307701
0.306886
0.306182
0.30557
0.305036
0.304566
0.304151
0.303782
0.303454
0.303161
0.302897
0.30266
0.302446
0.302252
0.302076
0.301916
0.30177
0.301637
0.301516
0.301405
0.301303
0.30121
0.301125
0.301046
0.300974
0.300908
0.300847
0.300791
0.30074
0.300692
0.300649
0.300605
0.300573
0.300538
0.300511
0.300482
0.300455
0.300429
0.300405
0.300383
0.300362
0.300343
0.300325
0.30031
0.300294
0.300281
0.30027
0.300259
0.30025
0.300242
0.300235
0.300229
0.300223
0.300216
0.300208
0.300201
0.300194
0.300188
0.300183
0.300178
0.300173
0.300169
0.300165
0.300161
0.300158
0.300155
0.300152
0.300149
0.300147
0.300145
0.300143
0.300141
0.300139
0.300138
0.300136
0.300135
0.300134
0.300133
0.300132
0.300131
0.30013
0.30013
0.300129
0.300128
0.300128
0.300127
0.300127
0.300127
0.300126
0.300126
0.300126
0.300125
0.300125
0.300125
0.300125
0.300125
0.300125
0.300124
0.300125
0.300124
0.300124
0.300124
0.300124
0.300124
0.300125
0.300124
0.300125
0.300124
0.300124
0.300124
0.300124
0.300123
0.300124
0.300123
0.300123
0.300123
0.300123
0.300123
0.300123
0.300123
0.300122
0.300123
0.300122
0.300122
0.300122
0.300122
0.300122
0.300122
0.300122
0.300122
0.300122
0.300122
0.300122
0.300122
0.300122
0.300122
0.300122
0.300122
0.342166
0.337753
0.332857
0.327415
0.322882
0.319341
0.316541
0.314293
0.312456
0.310933
0.309655
0.308572
0.307648
0.306853
0.306165
0.305565
0.30504
0.304577
0.304169
0.303806
0.303484
0.303196
0.302938
0.302706
0.302497
0.302307
0.302134
0.301977
0.301834
0.301703
0.301583
0.301473
0.301372
0.30128
0.301194
0.301115
0.301043
0.300975
0.300912
0.300854
0.300799
0.300748
0.300702
0.300659
0.300614
0.300576
0.300521
0.300485
0.30045
0.300423
0.3004
0.300378
0.300358
0.300339
0.300322
0.300306
0.300291
0.300278
0.300265
0.300253
0.30024
0.300227
0.300213
0.3002
0.300188
0.30018
0.300175
0.30017
0.300166
0.300162
0.300158
0.300155
0.300151
0.300149
0.300146
0.300144
0.300142
0.30014
0.300139
0.300137
0.300136
0.300135
0.300134
0.300133
0.300132
0.300131
0.300131
0.30013
0.30013
0.300129
0.300129
0.300129
0.300128
0.300128
0.300128
0.300128
0.300128
0.300127
0.300127
0.300127
0.300127
0.300127
0.300126
0.300126
0.300126
0.300126
0.300126
0.300125
0.300125
0.300125
0.300125
0.300125
0.300125
0.300124
0.300124
0.300124
0.300124
0.300123
0.300124
0.300123
0.300123
0.300123
0.300123
0.300123
0.300123
0.300123
0.300123
0.300122
0.300123
0.300122
0.300122
0.300122
0.300122
0.300122
0.300122
0.300122
0.300122
0.300122
0.300122
0.300122
0.300122
0.300122
0.300122
0.300123
0.300123
0.300123
0.300123
0.300124
0.300125
0.300125
0.338875
0.335937
0.332183
0.32723
0.322728
0.319276
0.316539
0.31433
0.312518
0.311011
0.309742
0.308665
0.307743
0.306948
0.306258
0.305656
0.305128
0.304663
0.304249
0.303881
0.303552
0.303256
0.302989
0.302747
0.302529
0.30233
0.302151
0.301987
0.301838
0.301702
0.301577
0.301463
0.301358
0.301262
0.301173
0.301091
0.301015
0.300946
0.300881
0.300822
0.300768
0.300718
0.300673
0.300628
0.30059
0.300553
0.300536
0.300507
0.300483
0.300456
0.300431
0.300408
0.300386
0.300366
0.300348
0.300331
0.300315
0.300301
0.300288
0.300276
0.300265
0.300255
0.300247
0.300239
0.300233
0.300225
0.300217
0.300211
0.300204
0.300198
0.300192
0.300187
0.300182
0.300178
0.300174
0.30017
0.300166
0.300163
0.30016
0.300157
0.300154
0.300152
0.30015
0.300148
0.300146
0.300144
0.300142
0.300141
0.300139
0.300138
0.300137
0.300136
0.300135
0.300134
0.300133
0.300132
0.300131
0.30013
0.30013
0.300129
0.300128
0.300128
0.300127
0.300127
0.300127
0.300126
0.300126
0.300125
0.300125
0.300125
0.300125
0.300124
0.300124
0.300124
0.300124
0.300124
0.300124
0.300124
0.300124
0.300124
0.300124
0.300124
0.300124
0.300124
0.300124
0.300124
0.300124
0.300124
0.300124
0.300124
0.300124
0.300124
0.300124
0.300125
0.300124
0.300125
0.300124
0.300125
0.300125
0.300126
0.300125
0.300126
0.300126
0.300127
0.300128
0.300129
0.30013
0.300132
0.300134
0.30013
0.337331
0.335215
0.331985
0.327157
0.322581
0.319152
0.316431
0.314223
0.312407
0.310892
0.309615
0.308529
0.307598
0.306796
0.3061
0.305491
0.304957
0.304485
0.304067
0.303695
0.303363
0.303066
0.302799
0.302559
0.302343
0.302148
0.301971
0.30181
0.301664
0.301531
0.30141
0.301299
0.301198
0.301105
0.301021
0.300944
0.300874
0.30081
0.300752
0.3007
0.300652
0.300607
0.300568
0.300526
0.300497
0.300468
0.30046
0.30044
0.30042
0.300395
0.300372
0.300351
0.300331
0.300313
0.300297
0.300282
0.300267
0.300256
0.300248
0.30024
0.300235
0.300233
0.300232
0.300231
0.30023
0.300223
0.300215
0.300207
0.3002
0.300194
0.300188
0.300182
0.300177
0.300172
0.300168
0.300164
0.30016
0.300157
0.300153
0.300151
0.300148
0.300146
0.300143
0.300141
0.30014
0.300138
0.300136
0.300135
0.300134
0.300133
0.300132
0.300131
0.30013
0.300129
0.300129
0.300128
0.300127
0.300127
0.300126
0.300126
0.300126
0.300125
0.300125
0.300125
0.300124
0.300124
0.300124
0.300124
0.300124
0.300123
0.300123
0.300123
0.300123
0.300123
0.300123
0.300122
0.300122
0.300122
0.300123
0.300122
0.300123
0.300122
0.300123
0.300123
0.300123
0.300123
0.300123
0.300124
0.300124
0.300124
0.300124
0.300124
0.300124
0.300125
0.300124
0.300125
0.300125
0.300125
0.300125
0.300126
0.300125
0.300126
0.300126
0.300127
0.300127
0.300128
0.300128
0.300129
0.300131
0.300129
0.339478
0.336002
0.331719
0.326585
0.322278
0.31894
0.316269
0.314098
0.312311
0.31082
0.309563
0.308495
0.307582
0.306794
0.306112
0.305518
0.304999
0.304542
0.304139
0.303782
0.303463
0.303178
0.302922
0.302692
0.302484
0.302295
0.302124
0.301968
0.301825
0.301694
0.301575
0.301465
0.301365
0.301272
0.301187
0.301108
0.301035
0.300968
0.300905
0.300847
0.300793
0.300743
0.300697
0.300654
0.300609
0.30057
0.300515
0.300478
0.300444
0.300418
0.300395
0.300374
0.300354
0.300335
0.300318
0.300303
0.300288
0.300275
0.300262
0.30025
0.300238
0.300226
0.300214
0.300203
0.300194
0.300186
0.300181
0.300175
0.300171
0.300166
0.300162
0.300158
0.300155
0.300152
0.300149
0.300147
0.300145
0.300143
0.300141
0.300139
0.300138
0.300136
0.300135
0.300134
0.300133
0.300132
0.300132
0.300131
0.30013
0.30013
0.300129
0.300129
0.300129
0.300128
0.300128
0.300128
0.300128
0.300128
0.300128
0.300128
0.300127
0.300127
0.300127
0.300127
0.300127
0.300127
0.300127
0.300127
0.300127
0.300126
0.300127
0.300126
0.300126
0.300126
0.300126
0.300126
0.300126
0.300126
0.300126
0.300125
0.300126
0.300126
0.300126
0.300126
0.300126
0.300126
0.300126
0.300126
0.300126
0.300126
0.300126
0.300127
0.300126
0.300127
0.300127
0.300127
0.300127
0.300128
0.300127
0.300128
0.300128
0.300129
0.300129
0.30013
0.30013
0.300131
0.300132
0.300133
0.300135
0.300133
0.342863
0.33694
0.331418
0.326403
0.322289
0.319001
0.316355
0.314201
0.312424
0.31094
0.309688
0.308622
0.307709
0.30692
0.306236
0.305637
0.305109
0.304642
0.304227
0.303857
0.303525
0.303227
0.302959
0.302718
0.302499
0.302301
0.302121
0.301958
0.301809
0.301673
0.301548
0.301434
0.301329
0.301234
0.301146
0.301065
0.300991
0.300923
0.30086
0.300803
0.300751
0.300701
0.300657
0.30061
0.30058