/*--------------------------------*- C++ -*----------------------------------*\
| =========                 |                                                 |
| \\      /  F ield         | OpenFOAM: The Open Source CFD Toolbox           |
|  \\    /   O peration     | Version:  v1912                                 |
|   \\  /    A nd           | Website:  www.openfoam.com                      |
|    \\/     M anipulation  |                                                 |
\*---------------------------------------------------------------------------*/
FoamFile
{
    version     2.0;
    format      ascii;
    class       volScalarField;
    location    "40";
    object      p;
}
// * * * * * * * * * * * * * * * * * * * * * * * * * * * * * * * * * * * * * //

dimensions      [1 -1 -2 0 0 0 0];


internalField   nonuniform List<scalar> 
14268
(
-79.5095
-80.1053
-80.7018
-81.2989
-81.8964
-82.4943
-83.0924
-83.6906
-84.2889
-84.8872
-85.4854
-86.0836
-86.6816
-87.2796
-87.8773
-88.4749
-89.0723
-89.6696
-90.2666
-90.8635
-91.4601
-92.0566
-92.6529
-93.2489
-93.8448
-94.4405
-95.036
-95.6313
-96.2265
-96.8214
-97.4162
-98.0108
-98.6052
-99.1995
-99.7936
-100.388
-100.981
-101.575
-102.168
-102.762
-103.355
-103.948
-104.541
-105.134
-105.726
-106.319
-106.911
-107.503
-108.096
-108.688
-109.28
-109.871
-110.463
-111.055
-111.646
-112.238
-112.829
-113.42
-114.011
-114.602
-115.193
-115.784
-116.375
-116.966
-117.556
-118.147
-118.737
-119.328
-119.918
-120.508
-121.098
-121.689
-122.279
-122.869
-123.459
-124.049
-124.639
-125.228
-125.818
-126.408
-126.998
-127.587
-128.177
-128.766
-129.356
-129.945
-130.535
-131.124
-131.714
-132.303
-132.893
-133.482
-134.071
-134.66
-135.25
-135.838
-136.428
-137.017
-137.606
-138.195
-138.784
-139.373
-139.962
-140.551
-141.14
-141.73
-142.318
-142.908
-143.496
-144.085
-144.674
-145.263
-145.851
-146.441
-147.029
-147.619
-148.207
-148.796
-149.384
-149.974
-150.562
-151.152
-151.739
-152.33
-152.917
-153.507
-154.094
-154.684
-155.272
-155.861
-156.45
-157.038
-157.628
-158.215
-158.805
-159.393
-159.983
-160.57
-161.16
-161.747
-162.337
-162.925
-163.515
-164.102
-164.692
-165.279
-165.869
-166.457
-167.046
-167.634
-79.6314
-80.2272
-80.8237
-81.4208
-82.0184
-82.6162
-83.2143
-83.8126
-84.4109
-85.0091
-85.6074
-86.2055
-86.8036
-87.4015
-87.9993
-88.5969
-89.1943
-89.7915
-90.3885
-90.9854
-91.5821
-92.1785
-92.7748
-93.3709
-93.9668
-94.5624
-95.1579
-95.7533
-96.3484
-96.9434
-97.5381
-98.1327
-98.7272
-99.3214
-99.9155
-100.509
-101.103
-101.697
-102.29
-102.884
-103.477
-104.07
-104.663
-105.256
-105.848
-106.441
-107.033
-107.625
-108.218
-108.81
-109.401
-109.993
-110.585
-111.177
-111.768
-112.359
-112.951
-113.542
-114.133
-114.724
-115.315
-115.906
-116.497
-117.087
-117.678
-118.269
-118.859
-119.45
-120.04
-120.63
-121.22
-121.811
-122.401
-122.991
-123.581
-124.171
-124.76
-125.35
-125.94
-126.53
-127.12
-127.709
-128.299
-128.888
-129.478
-130.067
-130.657
-131.246
-131.836
-132.425
-133.015
-133.603
-134.193
-134.782
-135.372
-135.96
-136.55
-137.139
-137.728
-138.317
-138.906
-139.495
-140.084
-140.673
-141.262
-141.851
-142.44
-143.029
-143.618
-144.207
-144.796
-145.385
-145.973
-146.563
-147.151
-147.74
-148.329
-148.918
-149.506
-150.096
-150.684
-151.274
-151.861
-152.451
-153.039
-153.629
-154.216
-154.806
-155.394
-155.983
-156.572
-157.16
-157.75
-158.337
-158.927
-159.515
-160.105
-160.692
-161.282
-161.869
-162.459
-163.047
-163.637
-164.224
-164.814
-165.401
-165.991
-166.579
-167.168
-167.756
-79.7533
-80.3492
-80.9457
-81.5428
-82.1403
-82.7382
-83.3363
-83.9345
-84.5328
-85.1311
-85.7293
-86.3275
-86.9255
-87.5234
-88.1212
-88.7188
-89.3162
-89.9134
-90.5105
-91.1073
-91.704
-92.3005
-92.8967
-93.4928
-94.0887
-94.6844
-95.2799
-95.8752
-96.4703
-97.0653
-97.6601
-98.2547
-98.8491
-99.4434
-100.037
-100.631
-101.225
-101.819
-102.412
-103.006
-103.599
-104.192
-104.785
-105.378
-105.97
-106.563
-107.155
-107.747
-108.339
-108.931
-109.523
-110.115
-110.707
-111.299
-111.89
-112.481
-113.073
-113.664
-114.255
-114.846
-115.437
-116.028
-116.619
-117.209
-117.8
-118.391
-118.981
-119.571
-120.162
-120.752
-121.342
-121.932
-122.523
-123.113
-123.703
-124.293
-124.882
-125.472
-126.062
-126.652
-127.241
-127.831
-128.421
-129.01
-129.6
-130.189
-130.779
-131.368
-131.958
-132.547
-133.136
-133.725
-134.315
-134.904
-135.494
-136.082
-136.672
-137.261
-137.85
-138.439
-139.028
-139.617
-140.206
-140.795
-141.384
-141.973
-142.562
-143.151
-143.74
-144.329
-144.917
-145.507
-146.095
-146.685
-147.273
-147.862
-148.451
-149.04
-149.628
-150.218
-150.805
-151.396
-151.983
-152.573
-153.16
-153.751
-154.338
-154.928
-155.516
-156.105
-156.694
-157.282
-157.872
-158.459
-159.049
-159.637
-160.226
-160.814
-161.404
-161.991
-162.581
-163.169
-163.759
-164.346
-164.936
-165.523
-166.113
-166.701
-167.29
-167.878
-79.8753
-80.4711
-81.0676
-81.6647
-82.2623
-82.8601
-83.4582
-84.0565
-84.6547
-85.253
-85.8513
-86.4494
-87.0475
-87.6454
-88.2431
-88.8407
-89.4382
-90.0354
-90.6324
-91.2293
-91.8259
-92.4224
-93.0187
-93.6147
-94.2106
-94.8063
-95.4018
-95.9971
-96.5923
-97.1872
-97.782
-98.3766
-98.971
-99.5653
-100.159
-100.753
-101.347
-101.941
-102.534
-103.128
-103.721
-104.314
-104.907
-105.499
-106.092
-106.685
-107.277
-107.869
-108.461
-109.053
-109.645
-110.237
-110.829
-111.42
-112.012
-112.603
-113.195
-113.786
-114.377
-114.968
-115.559
-116.15
-116.741
-117.331
-117.922
-118.512
-119.103
-119.693
-120.284
-120.874
-121.464
-122.054
-122.644
-123.235
-123.825
-124.414
-125.004
-125.594
-126.184
-126.774
-127.363
-127.953
-128.543
-129.132
-129.722
-130.311
-130.901
-131.49
-132.08
-132.669
-133.258
-133.847
-134.437
-135.026
-135.615
-136.204
-136.794
-137.382
-137.972
-138.561
-139.15
-139.739
-140.328
-140.917
-141.506
-142.095
-142.684
-143.273
-143.862
-144.451
-145.039
-145.629
-146.217
-146.807
-147.395
-147.984
-148.573
-149.162
-149.75
-150.34
-150.927
-151.518
-152.105
-152.695
-153.282
-153.873
-154.46
-155.05
-155.638
-156.227
-156.816
-157.404
-157.994
-158.581
-159.171
-159.758
-160.348
-160.936
-161.526
-162.113
-162.703
-163.29
-163.881
-164.468
-165.058
-165.645
-166.235
-166.823
-167.412
-168
-79.9972
-80.593
-81.1896
-81.7866
-82.3842
-82.9821
-83.5802
-84.1784
-84.7767
-85.375
-85.9732
-86.5714
-87.1694
-87.7673
-88.3651
-88.9627
-89.5601
-90.1573
-90.7544
-91.3512
-91.9479
-92.5443
-93.1406
-93.7367
-94.3326
-94.9283
-95.5238
-96.1191
-96.7142
-97.3092
-97.9039
-98.4985
-99.093
-99.6872
-100.281
-100.875
-101.469
-102.063
-102.656
-103.249
-103.843
-104.436
-105.029
-105.621
-106.214
-106.807
-107.399
-107.991
-108.583
-109.175
-109.767
-110.359
-110.951
-111.542
-112.134
-112.725
-113.317
-113.908
-114.499
-115.09
-115.681
-116.272
-116.863
-117.453
-118.044
-118.634
-119.225
-119.815
-120.406
-120.996
-121.586
-122.176
-122.766
-123.356
-123.946
-124.536
-125.126
-125.716
-126.306
-126.896
-127.485
-128.075
-128.665
-129.254
-129.844
-130.433
-131.023
-131.612
-132.202
-132.791
-133.38
-133.969
-134.559
-135.148
-135.737
-136.326
-136.916
-137.504
-138.094
-138.683
-139.272
-139.861
-140.45
-141.039
-141.628
-142.217
-142.806
-143.395
-143.984
-144.573
-145.161
-145.751
-146.339
-146.929
-147.517
-148.106
-148.694
-149.284
-149.872
-150.462
-151.049
-151.64
-152.227
-152.817
-153.404
-153.994
-154.582
-155.172
-155.76
-156.349
-156.938
-157.526
-158.115
-158.703
-159.293
-159.88
-160.47
-161.058
-161.648
-162.235
-162.825
-163.412
-164.002
-164.59
-165.18
-165.767
-166.357
-166.945
-167.534
-168.122
-80.1192
-80.715
-81.3115
-81.9086
-82.5061
-83.104
-83.7021
-84.3003
-84.8986
-85.4969
-86.0952
-86.6933
-87.2914
-87.8893
-88.487
-89.0846
-89.682
-90.2793
-90.8763
-91.4732
-92.0698
-92.6663
-93.2626
-93.8586
-94.4545
-95.0502
-95.6457
-96.241
-96.8362
-97.4311
-98.0259
-98.6205
-99.2149
-99.8092
-100.403
-100.997
-101.591
-102.185
-102.778
-103.371
-103.965
-104.558
-105.151
-105.743
-106.336
-106.928
-107.521
-108.113
-108.705
-109.297
-109.889
-110.481
-111.073
-111.664
-112.256
-112.847
-113.439
-114.03
-114.621
-115.212
-115.803
-116.394
-116.984
-117.575
-118.166
-118.756
-119.347
-119.937
-120.528
-121.118
-121.708
-122.298
-122.888
-123.478
-124.068
-124.658
-125.248
-125.838
-126.428
-127.018
-127.607
-128.197
-128.787
-129.376
-129.966
-130.555
-131.145
-131.734
-132.323
-132.913
-133.502
-134.091
-134.681
-135.27
-135.859
-136.448
-137.038
-137.626
-138.216
-138.805
-139.394
-139.983
-140.572
-141.161
-141.75
-142.339
-142.928
-143.517
-144.105
-144.695
-145.283
-145.873
-146.461
-147.05
-147.639
-148.228
-148.816
-149.406
-149.994
-150.584
-151.171
-151.762
-152.349
-152.939
-153.526
-154.116
-154.704
-155.294
-155.882
-156.471
-157.06
-157.648
-158.237
-158.825
-159.415
-160.002
-160.592
-161.18
-161.77
-162.357
-162.947
-163.534
-164.124
-164.712
-165.302
-165.889
-166.479
-167.067
-167.656
-168.244
-80.2411
-80.8369
-81.4334
-82.0305
-82.6281
-83.226
-83.8241
-84.4223
-85.0206
-85.6189
-86.2171
-86.8153
-87.4133
-88.0112
-88.609
-89.2066
-89.804
-90.4012
-90.9983
-91.5951
-92.1918
-92.7882
-93.3845
-93.9806
-94.5765
-95.1721
-95.7676
-96.363
-96.9581
-97.553
-98.1478
-98.7424
-99.3368
-99.9311
-100.525
-101.119
-101.713
-102.307
-102.9
-103.493
-104.087
-104.68
-105.272
-105.865
-106.458
-107.05
-107.643
-108.235
-108.827
-109.419
-110.011
-110.603
-111.195
-111.786
-112.378
-112.969
-113.56
-114.152
-114.743
-115.334
-115.925
-116.516
-117.106
-117.697
-118.288
-118.878
-119.469
-120.059
-120.65
-121.24
-121.83
-122.42
-123.01
-123.6
-124.19
-124.78
-125.37
-125.96
-126.55
-127.139
-127.729
-128.319
-128.908
-129.498
-130.088
-130.677
-131.267
-131.856
-132.445
-133.035
-133.624
-134.213
-134.803
-135.392
-135.981
-136.57
-137.16
-137.748
-138.338
-138.927
-139.516
-140.105
-140.694
-141.283
-141.872
-142.461
-143.05
-143.639
-144.227
-144.817
-145.405
-145.995
-146.583
-147.172
-147.761
-148.35
-148.938
-149.528
-150.116
-150.706
-151.293
-151.883
-152.471
-153.061
-153.648
-154.238
-154.826
-155.415
-156.004
-156.592
-157.182
-157.77
-158.359
-158.947
-159.537
-160.124
-160.714
-161.302
-161.892
-162.479
-163.069
-163.656
-164.246
-164.834
-165.424
-166.011
-166.601
-167.188
-167.778
-168.366
-80.3631
-80.9589
-81.5554
-82.1525
-82.75
-83.3479
-83.946
-84.5442
-85.1425
-85.7408
-86.3391
-86.9372
-87.5353
-88.1332
-88.7309
-89.3285
-89.9259
-90.5232
-91.1202
-91.7171
-92.3137
-92.9102
-93.5064
-94.1025
-94.6984
-95.2941
-95.8896
-96.4849
-97.08
-97.675
-98.2698
-98.8644
-99.4588
-100.053
-100.647
-101.241
-101.835
-102.428
-103.022
-103.615
-104.208
-104.802
-105.394
-105.987
-106.58
-107.172
-107.765
-108.357
-108.949
-109.541
-110.133
-110.725
-111.317
-111.908
-112.5
-113.091
-113.682
-114.274
-114.865
-115.456
-116.047
-116.638
-117.228
-117.819
-118.41
-119
-119.591
-120.181
-120.771
-121.362
-121.952
-122.542
-123.132
-123.722
-124.312
-124.902
-125.492
-126.082
-126.672
-127.261
-127.851
-128.441
-129.03
-129.62
-130.21
-130.799
-131.388
-131.978
-132.567
-133.156
-133.746
-134.335
-134.925
-135.514
-136.103
-136.692
-137.282
-137.87
-138.46
-139.048
-139.638
-140.227
-140.816
-141.405
-141.994
-142.583
-143.171
-143.761
-144.349
-144.939
-145.527
-146.117
-146.705
-147.294
-147.883
-148.472
-149.06
-149.65
-150.238
-150.828
-151.415
-152.005
-152.592
-153.183
-153.77
-154.36
-154.948
-155.537
-156.126
-156.714
-157.304
-157.892
-158.481
-159.069
-159.659
-160.246
-160.836
-161.424
-162.013
-162.601
-163.191
-163.778
-164.368
-164.955
-165.545
-166.133
-166.723
-167.31
-167.9
-168.488
-80.485
-81.0808
-81.6773
-82.2744
-82.872
-83.4699
-84.068
-84.6662
-85.2645
-85.8628
-86.461
-87.0592
-87.6572
-88.2551
-88.8529
-89.4505
-90.0479
-90.6451
-91.2421
-91.839
-92.4357
-93.0321
-93.6284
-94.2245
-94.8203
-95.416
-96.0115
-96.6068
-97.202
-97.7969
-98.3917
-98.9863
-99.5807
-100.175
-100.769
-101.363
-101.957
-102.55
-103.144
-103.737
-104.33
-104.923
-105.516
-106.109
-106.702
-107.294
-107.887
-108.479
-109.071
-109.663
-110.255
-110.847
-111.439
-112.03
-112.622
-113.213
-113.804
-114.396
-114.987
-115.578
-116.169
-116.759
-117.35
-117.941
-118.532
-119.122
-119.713
-120.303
-120.893
-121.484
-122.074
-122.664
-123.254
-123.844
-124.434
-125.024
-125.614
-126.204
-126.794
-127.383
-127.973
-128.563
-129.152
-129.742
-130.331
-130.921
-131.51
-132.1
-132.689
-133.278
-133.868
-134.457
-135.047
-135.635
-136.225
-136.814
-137.403
-137.992
-138.582
-139.17
-139.76
-140.349
-140.938
-141.527
-142.116
-142.705
-143.293
-143.883
-144.471
-145.061
-145.649
-146.239
-146.827
-147.416
-148.005
-148.594
-149.182
-149.772
-150.36
-150.95
-151.537
-152.127
-152.714
-153.305
-153.892
-154.482
-155.07
-155.659
-156.248
-156.836
-157.426
-158.013
-158.603
-159.191
-159.781
-160.368
-160.958
-161.545
-162.135
-162.723
-163.313
-163.9
-164.49
-165.077
-165.667
-166.255
-166.845
-167.432
-168.022
-168.61
-80.6069
-81.2028
-81.7993
-82.3964
-82.9939
-83.5918
-84.1899
-84.7881
-85.3864
-85.9847
-86.5829
-87.1811
-87.7791
-88.3771
-88.9748
-89.5724
-90.1698
-90.767
-91.3641
-91.9609
-92.5576
-93.1541
-93.7503
-94.3464
-94.9423
-95.538
-96.1335
-96.7288
-97.3239
-97.9189
-98.5136
-99.1082
-99.7027
-100.297
-100.891
-101.485
-102.079
-102.672
-103.266
-103.859
-104.452
-105.045
-105.638
-106.231
-106.824
-107.416
-108.009
-108.601
-109.193
-109.785
-110.377
-110.969
-111.56
-112.152
-112.744
-113.335
-113.926
-114.517
-115.109
-115.7
-116.291
-116.881
-117.472
-118.063
-118.653
-119.244
-119.835
-120.425
-121.015
-121.606
-122.196
-122.786
-123.376
-123.966
-124.556
-125.146
-125.736
-126.326
-126.916
-127.505
-128.095
-128.685
-129.274
-129.864
-130.453
-131.043
-131.632
-132.222
-132.811
-133.4
-133.99
-134.579
-135.169
-135.757
-136.347
-136.936
-137.525
-138.114
-138.704
-139.292
-139.882
-140.471
-141.06
-141.649
-142.238
-142.827
-143.415
-144.005
-144.593
-145.183
-145.771
-146.36
-146.949
-147.538
-148.127
-148.716
-149.304
-149.894
-150.482
-151.072
-151.659
-152.249
-152.836
-153.427
-154.014
-154.604
-155.192
-155.781
-156.37
-156.958
-157.547
-158.135
-158.725
-159.313
-159.903
-160.49
-161.08
-161.667
-162.257
-162.845
-163.435
-164.022
-164.612
-165.199
-165.789
-166.377
-166.966
-167.554
-168.144
-168.732
-80.7289
-81.3247
-81.9212
-82.5183
-83.1159
-83.7138
-84.3119
-84.9101
-85.5084
-86.1067
-86.7049
-87.303
-87.9011
-88.499
-89.0968
-89.6943
-90.2918
-90.889
-91.486
-92.0829
-92.6795
-93.276
-93.8723
-94.4683
-95.0642
-95.6599
-96.2554
-96.8507
-97.4458
-98.0408
-98.6356
-99.2302
-99.8246
-100.419
-101.013
-101.607
-102.201
-102.794
-103.388
-103.981
-104.574
-105.167
-105.76
-106.353
-106.946
-107.538
-108.131
-108.723
-109.315
-109.907
-110.499
-111.091
-111.682
-112.274
-112.865
-113.457
-114.048
-114.639
-115.23
-115.822
-116.412
-117.003
-117.594
-118.185
-118.775
-119.366
-119.956
-120.547
-121.137
-121.728
-122.318
-122.908
-123.498
-124.088
-124.678
-125.268
-125.858
-126.448
-127.037
-127.627
-128.217
-128.807
-129.396
-129.986
-130.575
-131.165
-131.754
-132.344
-132.933
-133.522
-134.112
-134.701
-135.29
-135.879
-136.469
-137.058
-137.647
-138.236
-138.826
-139.414
-140.004
-140.592
-141.182
-141.771
-142.359
-142.949
-143.537
-144.127
-144.715
-145.305
-145.893
-146.482
-147.071
-147.66
-148.248
-148.838
-149.426
-150.016
-150.603
-151.193
-151.781
-152.371
-152.958
-153.549
-154.136
-154.726
-155.314
-155.903
-156.492
-157.08
-157.669
-158.257
-158.847
-159.435
-160.024
-160.612
-161.202
-161.789
-162.379
-162.967
-163.557
-164.144
-164.734
-165.321
-165.911
-166.499
-167.088
-167.676
-168.265
-168.854
-80.8508
-81.4467
-82.0432
-82.6403
-83.2378
-83.8357
-84.4338
-85.032
-85.6303
-86.2286
-86.8268
-87.425
-88.023
-88.6209
-89.2187
-89.8163
-90.4137
-91.0109
-91.608
-92.2048
-92.8015
-93.3979
-93.9942
-94.5903
-95.1862
-95.7818
-96.3773
-96.9727
-97.5678
-98.1627
-98.7575
-99.3521
-99.9465
-100.541
-101.135
-101.729
-102.323
-102.916
-103.51
-104.103
-104.696
-105.289
-105.882
-106.475
-107.068
-107.66
-108.252
-108.845
-109.437
-110.029
-110.621
-111.213
-111.804
-112.396
-112.987
-113.579
-114.17
-114.761
-115.352
-115.943
-116.534
-117.125
-117.716
-118.307
-118.897
-119.488
-120.078
-120.669
-121.259
-121.849
-122.44
-123.03
-123.62
-124.21
-124.8
-125.39
-125.98
-126.57
-127.159
-127.749
-128.339
-128.928
-129.518
-130.108
-130.697
-131.287
-131.876
-132.465
-133.055
-133.644
-134.234
-134.823
-135.412
-136.001
-136.591
-137.18
-137.769
-138.358
-138.947
-139.536
-140.126
-140.714
-141.303
-141.893
-142.481
-143.071
-143.659
-144.249
-144.837
-145.427
-146.015
-146.604
-147.193
-147.782
-148.37
-148.96
-149.548
-150.138
-150.725
-151.315
-151.903
-152.493
-153.08
-153.671
-154.258
-154.848
-155.436
-156.025
-156.613
-157.202
-157.791
-158.379
-158.969
-159.557
-160.146
-160.734
-161.324
-161.911
-162.501
-163.089
-163.679
-164.266
-164.856
-165.443
-166.033
-166.621
-167.21
-167.798
-168.387
-168.976
-80.9728
-81.5686
-82.1651
-82.7622
-83.3598
-83.9577
-84.5558
-85.154
-85.7523
-86.3506
-86.9488
-87.5469
-88.145
-88.7429
-89.3406
-89.9382
-90.5356
-91.1329
-91.7299
-92.3268
-92.9234
-93.5199
-94.1161
-94.7122
-95.3081
-95.9038
-96.4993
-97.0946
-97.6897
-98.2847
-98.8794
-99.474
-100.068
-100.663
-101.257
-101.851
-102.445
-103.038
-103.632
-104.225
-104.818
-105.411
-106.004
-106.597
-107.189
-107.782
-108.374
-108.967
-109.559
-110.151
-110.743
-111.335
-111.926
-112.518
-113.109
-113.701
-114.292
-114.883
-115.474
-116.065
-116.656
-117.247
-117.838
-118.429
-119.019
-119.61
-120.2
-120.791
-121.381
-121.971
-122.562
-123.152
-123.742
-124.332
-124.922
-125.512
-126.102
-126.692
-127.281
-127.871
-128.461
-129.05
-129.64
-130.23
-130.819
-131.409
-131.998
-132.587
-133.177
-133.766
-134.356
-134.945
-135.534
-136.123
-136.713
-137.302
-137.891
-138.48
-139.069
-139.658
-140.247
-140.836
-141.425
-142.014
-142.603
-143.193
-143.781
-144.371
-144.959
-145.548
-146.137
-146.726
-147.315
-147.904
-148.492
-149.082
-149.67
-150.259
-150.847
-151.437
-152.025
-152.615
-153.202
-153.793
-154.38
-154.97
-155.558
-156.147
-156.735
-157.324
-157.913
-158.501
-159.091
-159.678
-160.268
-160.856
-161.446
-162.033
-162.623
-163.21
-163.801
-164.388
-164.978
-165.565
-166.155
-166.743
-167.332
-167.92
-168.509
-169.097
-81.0947
-81.6906
-82.2871
-82.8842
-83.4817
-84.0796
-84.6777
-85.2759
-85.8742
-86.4725
-87.0707
-87.6689
-88.2669
-88.8648
-89.4626
-90.0602
-90.6576
-91.2548
-91.8519
-92.4487
-93.0454
-93.6418
-94.2381
-94.8342
-95.43
-96.0257
-96.6212
-97.2165
-97.8117
-98.4066
-99.0014
-99.596
-100.19
-100.785
-101.379
-101.973
-102.566
-103.16
-103.754
-104.347
-104.94
-105.533
-106.126
-106.719
-107.311
-107.904
-108.496
-109.089
-109.681
-110.273
-110.865
-111.456
-112.048
-112.64
-113.231
-113.823
-114.414
-115.005
-115.596
-116.187
-116.778
-117.369
-117.96
-118.551
-119.141
-119.732
-120.322
-120.913
-121.503
-122.093
-122.684
-123.274
-123.864
-124.454
-125.044
-125.634
-126.224
-126.813
-127.403
-127.993
-128.583
-129.172
-129.762
-130.351
-130.941
-131.53
-132.12
-132.709
-133.299
-133.888
-134.478
-135.067
-135.656
-136.245
-136.835
-137.423
-138.013
-138.602
-139.191
-139.78
-140.369
-140.958
-141.547
-142.136
-142.725
-143.315
-143.903
-144.493
-145.081
-145.67
-146.259
-146.848
-147.436
-148.026
-148.614
-149.204
-149.792
-150.381
-150.969
-151.559
-152.147
-152.737
-153.324
-153.915
-154.502
-155.092
-155.679
-156.269
-156.857
-157.446
-158.035
-158.623
-159.213
-159.8
-160.39
-160.978
-161.568
-162.155
-162.745
-163.332
-163.922
-164.51
-165.1
-165.687
-166.277
-166.864
-167.454
-168.042
-168.631
-169.219
-81.2777
-81.8735
-82.47
-83.0671
-83.6646
-84.2625
-84.8606
-85.4589
-86.0571
-86.6554
-87.2537
-87.8518
-88.4499
-89.0478
-89.6455
-90.2431
-90.8405
-91.4377
-92.0348
-92.6316
-93.2283
-93.8247
-94.421
-95.0171
-95.6129
-96.2086
-96.8041
-97.3994
-97.9946
-98.5895
-99.1843
-99.7789
-100.373
-100.968
-101.562
-102.156
-102.749
-103.343
-103.936
-104.53
-105.123
-105.716
-106.309
-106.902
-107.494
-108.087
-108.679
-109.271
-109.864
-110.456
-111.048
-111.639
-112.231
-112.823
-113.414
-114.006
-114.597
-115.188
-115.779
-116.37
-116.961
-117.552
-118.143
-118.733
-119.324
-119.915
-120.505
-121.096
-121.686
-122.276
-122.866
-123.457
-124.047
-124.637
-125.227
-125.817
-126.407
-126.996
-127.586
-128.176
-128.766
-129.355
-129.945
-130.534
-131.124
-131.713
-132.303
-132.892
-133.482
-134.071
-134.661
-135.249
-135.839
-136.428
-137.018
-137.606
-138.196
-138.785
-139.374
-139.963
-140.552
-141.141
-141.73
-142.319
-142.908
-143.497
-144.086
-144.675
-145.264
-145.853
-146.442
-147.031
-147.619
-148.209
-148.797
-149.386
-149.975
-150.564
-151.152
-151.742
-152.329
-152.92
-153.507
-154.097
-154.685
-155.275
-155.862
-156.452
-157.04
-157.629
-158.218
-158.806
-159.396
-159.983
-160.573
-161.161
-161.751
-162.338
-162.928
-163.515
-164.105
-164.693
-165.283
-165.87
-166.46
-167.047
-167.637
-168.225
-168.814
-169.402
-81.5216
-82.1174
-82.7139
-83.311
-83.9085
-84.5064
-85.1045
-85.7028
-86.301
-86.8993
-87.4976
-88.0957
-88.6938
-89.2917
-89.8894
-90.487
-91.0844
-91.6816
-92.2787
-92.8755
-93.4722
-94.0686
-94.6649
-95.261
-95.8568
-96.4525
-97.048
-97.6433
-98.2384
-98.8334
-99.4282
-100.023
-100.617
-101.211
-101.806
-102.399
-102.993
-103.587
-104.18
-104.774
-105.367
-105.96
-106.553
-107.146
-107.738
-108.331
-108.923
-109.515
-110.107
-110.7
-111.291
-111.883
-112.475
-113.067
-113.658
-114.249
-114.841
-115.432
-116.023
-116.614
-117.205
-117.796
-118.387
-118.977
-119.568
-120.159
-120.749
-121.339
-121.93
-122.52
-123.11
-123.7
-124.291
-124.881
-125.471
-126.06
-126.65
-127.24
-127.83
-128.42
-129.009
-129.599
-130.189
-130.778
-131.368
-131.957
-132.547
-133.136
-133.726
-134.315
-134.904
-135.493
-136.083
-136.672
-137.261
-137.85
-138.44
-139.028
-139.618
-140.207
-140.796
-141.385
-141.974
-142.563
-143.152
-143.741
-144.33
-144.919
-145.508
-146.097
-146.685
-147.275
-147.863
-148.453
-149.041
-149.63
-150.219
-150.808
-151.396
-151.986
-152.573
-153.164
-153.751
-154.341
-154.928
-155.519
-156.106
-156.696
-157.284
-157.873
-158.462
-159.05
-159.64
-160.227
-160.817
-161.404
-161.994
-162.582
-163.172
-163.759
-164.349
-164.936
-165.527
-166.114
-166.704
-167.291
-167.881
-168.469
-169.058
-169.646
-81.7655
-82.3613
-82.9578
-83.5549
-84.1525
-84.7503
-85.3484
-85.9467
-86.5449
-87.1432
-87.7415
-88.3396
-88.9376
-89.5356
-90.1333
-90.7309
-91.3283
-91.9255
-92.5226
-93.1194
-93.7161
-94.3125
-94.9088
-95.5048
-96.1007
-96.6964
-97.2919
-97.8872
-98.4823
-99.0773
-99.672
-100.267
-100.861
-101.455
-102.049
-102.643
-103.237
-103.831
-104.424
-105.018
-105.611
-106.204
-106.797
-107.389
-107.982
-108.575
-109.167
-109.759
-110.351
-110.943
-111.535
-112.127
-112.719
-113.31
-113.902
-114.493
-115.085
-115.676
-116.267
-116.858
-117.449
-118.04
-118.63
-119.221
-119.812
-120.402
-120.993
-121.583
-122.174
-122.764
-123.354
-123.944
-124.534
-125.124
-125.714
-126.304
-126.894
-127.484
-128.074
-128.664
-129.253
-129.843
-130.433
-131.022
-131.612
-132.201
-132.791
-133.38
-133.969
-134.559
-135.148
-135.737
-136.327
-136.916
-137.505
-138.094
-138.684
-139.272
-139.862
-140.451
-141.04
-141.629
-142.218
-142.807
-143.396
-143.985
-144.574
-145.163
-145.751
-146.341
-146.929
-147.519
-148.107
-148.696
-149.285
-149.874
-150.462
-151.052
-151.64
-152.23
-152.817
-153.408
-153.995
-154.585
-155.172
-155.762
-156.35
-156.939
-157.528
-158.117
-158.706
-159.294
-159.883
-160.471
-161.061
-161.648
-162.238
-162.826
-163.416
-164.003
-164.593
-165.18
-165.77
-166.358
-166.948
-167.535
-168.125
-168.713
-169.302
-169.89
-82.0094
-82.6052
-83.2017
-83.7988
-84.3964
-84.9942
-85.5923
-86.1906
-86.7888
-87.3871
-87.9854
-88.5835
-89.1815
-89.7794
-90.3772
-90.9748
-91.5722
-92.1694
-92.7664
-93.3633
-93.9599
-94.5564
-95.1527
-95.7487
-96.3446
-96.9403
-97.5358
-98.1311
-98.7262
-99.3212
-99.9159
-100.511
-101.105
-101.699
-102.293
-102.887
-103.481
-104.075
-104.668
-105.261
-105.855
-106.448
-107.041
-107.633
-108.226
-108.818
-109.411
-110.003
-110.595
-111.187
-111.779
-112.371
-112.963
-113.554
-114.146
-114.737
-115.328
-115.92
-116.511
-117.102
-117.693
-118.284
-118.874
-119.465
-120.056
-120.646
-121.237
-121.827
-122.417
-123.008
-123.598
-124.188
-124.778
-125.368
-125.958
-126.548
-127.138
-127.728
-128.318
-128.907
-129.497
-130.087
-130.676
-131.266
-131.856
-132.445
-133.034
-133.624
-134.213
-134.802
-135.392
-135.981
-136.571
-137.16
-137.749
-138.338
-138.928
-139.516
-140.106
-140.694
-141.284
-141.873
-142.462
-143.051
-143.64
-144.229
-144.817
-145.407
-145.995
-146.585
-147.173
-147.763
-148.351
-148.94
-149.529
-150.118
-150.706
-151.296
-151.884
-152.474
-153.061
-153.651
-154.238
-154.829
-155.416
-156.006
-156.594
-157.183
-157.772
-158.36
-158.95
-159.538
-160.127
-160.715
-161.305
-161.892
-162.482
-163.07
-163.659
-164.247
-164.837
-165.424
-166.014
-166.601
-167.191
-167.779
-168.369
-168.956
-169.546
-170.134
-82.2533
-82.8491
-83.4456
-84.0427
-84.6403
-85.2381
-85.8362
-86.4345
-87.0327
-87.631
-88.2293
-88.8274
-89.4254
-90.0233
-90.6211
-91.2187
-91.8161
-92.4133
-93.0103
-93.6072
-94.2038
-94.8003
-95.3965
-95.9926
-96.5885
-97.1842
-97.7797
-98.375
-98.9701
-99.565
-100.16
-100.754
-101.349
-101.943
-102.537
-103.131
-103.725
-104.318
-104.912
-105.505
-106.098
-106.691
-107.284
-107.877
-108.47
-109.062
-109.655
-110.247
-110.839
-111.431
-112.023
-112.615
-113.207
-113.798
-114.39
-114.981
-115.572
-116.163
-116.755
-117.346
-117.937
-118.527
-119.118
-119.709
-120.3
-120.89
-121.481
-122.071
-122.661
-123.252
-123.842
-124.432
-125.022
-125.612
-126.202
-126.792
-127.382
-127.972
-128.562
-129.151
-129.741
-130.331
-130.92
-131.51
-132.099
-132.689
-133.278
-133.868
-134.457
-135.046
-135.636
-136.225
-136.815
-137.403
-137.993
-138.582
-139.171
-139.76
-140.35
-140.938
-141.528
-142.117
-142.706
-143.295
-143.884
-144.473
-145.061
-145.651
-146.239
-146.829
-147.417
-148.006
-148.595
-149.184
-149.772
-150.362
-150.95
-151.54
-152.128
-152.717
-153.305
-153.895
-154.482
-155.073
-155.66
-156.25
-156.838
-157.427
-158.016
-158.604
-159.193
-159.781
-160.371
-160.959
-161.549
-162.136
-162.726
-163.313
-163.903
-164.491
-165.081
-165.668
-166.258
-166.845
-167.435
-168.023
-168.612
-169.2
-169.79
-170.378
-82.4972
-83.093
-83.6895
-84.2866
-84.8842
-85.4821
-86.0801
-86.6784
-87.2767
-87.8749
-88.4732
-89.0713
-89.6693
-90.2672
-90.865
-91.4626
-92.06
-92.6572
-93.2542
-93.8511
-94.4477
-95.0442
-95.6404
-96.2365
-96.8324
-97.428
-98.0235
-98.6188
-99.214
-99.8089
-100.404
-100.998
-101.593
-102.187
-102.781
-103.375
-103.969
-104.562
-105.156
-105.749
-106.342
-106.935
-107.528
-108.121
-108.714
-109.306
-109.899
-110.491
-111.083
-111.675
-112.267
-112.859
-113.45
-114.042
-114.633
-115.225
-115.816
-116.407
-116.998
-117.589
-118.18
-118.771
-119.362
-119.953
-120.543
-121.134
-121.724
-122.315
-122.905
-123.495
-124.086
-124.676
-125.266
-125.856
-126.446
-127.036
-127.626
-128.216
-128.805
-129.395
-129.985
-130.574
-131.164
-131.754
-132.343
-132.933
-133.522
-134.111
-134.701
-135.29
-135.88
-136.469
-137.058
-137.647
-138.237
-138.826
-139.415
-140.004
-140.593
-141.182
-141.772
-142.36
-142.949
-143.539
-144.127
-144.717
-145.305
-145.895
-146.483
-147.073
-147.661
-148.25
-148.839
-149.428
-150.016
-150.606
-151.194
-151.784
-152.371
-152.961
-153.549
-154.139
-154.726
-155.317
-155.904
-156.494
-157.082
-157.671
-158.259
-158.848
-159.437
-160.025
-160.615
-161.203
-161.792
-162.38
-162.97
-163.557
-164.147
-164.735
-165.325
-165.912
-166.502
-167.089
-167.679
-168.267
-168.856
-169.444
-170.033
-170.622
-82.7412
-83.3369
-83.9334
-84.5305
-85.1281
-85.726
-86.3241
-86.9223
-87.5206
-88.1188
-88.7171
-89.3152
-89.9132
-90.5111
-91.1089
-91.7065
-92.3039
-92.9011
-93.4981
-94.095
-94.6916
-95.2881
-95.8843
-96.4804
-97.0763
-97.6719
-98.2674
-98.8627
-99.4579
-100.053
-100.648
-101.242
-101.837
-102.431
-103.025
-103.619
-104.213
-104.806
-105.4
-105.993
-106.586
-107.179
-107.772
-108.365
-108.958
-109.55
-110.142
-110.735
-111.327
-111.919
-112.511
-113.103
-113.694
-114.286
-114.877
-115.469
-116.06
-116.651
-117.242
-117.833
-118.424
-119.015
-119.606
-120.197
-120.787
-121.378
-121.968
-122.559
-123.149
-123.739
-124.33
-124.92
-125.51
-126.1
-126.69
-127.28
-127.87
-128.459
-129.049
-129.639
-130.229
-130.818
-131.408
-131.997
-132.587
-133.176
-133.766
-134.355
-134.945
-135.534
-136.124
-136.713
-137.302
-137.891
-138.481
-139.069
-139.659
-140.248
-140.837
-141.426
-142.015
-142.604
-143.193
-143.782
-144.371
-144.961
-145.549
-146.139
-146.727
-147.316
-147.905
-148.494
-149.082
-149.672
-150.26
-150.85
-151.438
-152.027
-152.615
-153.205
-153.793
-154.383
-154.97
-155.56
-156.148
-156.738
-157.325
-157.915
-158.503
-159.092
-159.681
-160.269
-160.859
-161.446
-162.036
-162.624
-163.214
-163.801
-164.391
-164.978
-165.568
-166.156
-166.746
-167.333
-167.923
-168.51
-169.1
-169.688
-170.277
-170.865
-83.6314
-84.2221
-84.8136
-85.4056
-85.9981
-86.591
-87.184
-87.7772
-88.3704
-88.9636
-89.5568
-90.1499
-90.7429
-91.3358
-91.9285
-92.521
-93.1134
-93.7055
-94.2975
-94.8893
-95.4809
-96.0723
-96.6635
-97.2546
-97.8454
-98.436
-99.0265
-99.6167
-100.207
-100.797
-101.386
-101.976
-102.565
-103.155
-103.744
-104.332
-104.921
-105.51
-106.098
-106.686
-107.275
-107.863
-108.45
-109.038
-109.626
-110.213
-110.801
-111.388
-111.975
-112.562
-113.149
-113.735
-114.322
-114.909
-115.495
-116.081
-116.668
-117.254
-117.84
-118.426
-119.012
-119.598
-120.183
-120.769
-121.355
-121.94
-122.526
-123.111
-123.696
-124.281
-124.867
-125.452
-126.037
-126.622
-127.207
-127.792
-128.376
-128.961
-129.546
-130.131
-130.715
-131.3
-131.884
-132.469
-133.053
-133.638
-134.222
-134.807
-135.391
-135.975
-136.56
-137.144
-137.728
-138.312
-138.897
-139.48
-140.065
-140.649
-141.233
-141.817
-142.401
-142.985
-143.569
-144.153
-144.737
-145.321
-145.904
-146.489
-147.072
-147.656
-148.24
-148.824
-149.407
-149.992
-150.575
-151.159
-151.742
-152.327
-152.91
-153.495
-154.077
-154.662
-155.244
-155.829
-156.412
-156.997
-157.579
-158.163