/*--------------------------------*- C++ -*----------------------------------*\
| =========                 |                                                 |
| \\      /  F ield         | OpenFOAM: The Open Source CFD Toolbox           |
|  \\    /   O peration     | Version:  v1912                                 |
|   \\  /    A nd           | Website:  www.openfoam.com                      |
|    \\/     M anipulation  |                                                 |
\*---------------------------------------------------------------------------*/
FoamFile
{
    version     2.0;
    format      ascii;
    class       surfaceScalarField;
    location    "40";
    object      phi;
}
// * * * * * * * * * * * * * * * * * * * * * * * * * * * * * * * * * * * * * //

dimensions      [0 3 -1 0 0 0 0];
oriented        oriented;


internalField   nonuniform List<scalar> 
28285
(
0.000630358
3.58017e-05
0.000597467
3.28906e-05
0.000567256
3.02113e-05
0.00053942
2.78357e-05
0.000513673
2.5747e-05
0.000489768
2.3905e-05
0.0004675
2.2268e-05
0.000446697
2.08034e-05
0.000427211
1.94862e-05
0.000408915
1.82962e-05
0.000391698
1.7217e-05
0.000375463
1.6235e-05
0.000360124
1.53385e-05
0.000345606
1.45176e-05
0.000331843
1.37637e-05
0.000318773
1.30694e-05
0.000306345
1.24281e-05
0.000294511
1.18343e-05
0.000283228
1.1283e-05
0.000272458
1.07699e-05
0.000262167
1.02913e-05
0.000252323
9.84367e-06
0.000242899
9.42421e-06
0.000233869
9.03028e-06
0.000225209
8.65956e-06
0.000216899
8.31001e-06
0.000208919
7.97981e-06
0.000201252
7.66733e-06
0.000193881
7.37111e-06
0.000186791
7.08986e-06
0.000179968
6.82241e-06
0.000173401
6.56774e-06
0.000167076
6.32491e-06
0.000160983
6.09308e-06
0.000155111
5.8715e-06
0.000149452
5.65946e-06
0.000143995
5.45636e-06
0.000138734
5.26163e-06
0.000133659
5.07477e-06
0.000128764
4.89528e-06
0.000124041
4.7228e-06
0.000119484
4.55677e-06
0.000115087
4.39717e-06
0.000110844
4.24335e-06
0.000106748
4.09527e-06
0.000102796
3.95277e-06
9.89819e-05
3.81372e-06
9.53e-05
3.68189e-06
9.17473e-05
3.55274e-06
8.83181e-05
3.4292e-06
8.50084e-05
3.30964e-06
8.18143e-05
3.19408e-06
7.87319e-05
3.08241e-06
7.57574e-05
2.97448e-06
7.28873e-05
2.87017e-06
7.0118e-05
2.76933e-06
6.74461e-05
2.67184e-06
6.48685e-05
2.57757e-06
6.23821e-05
2.48642e-06
5.99838e-05
2.39828e-06
5.76708e-05
2.31305e-06
5.54402e-05
2.23062e-06
5.32893e-05
2.15091e-06
5.12154e-05
2.07384e-06
4.92161e-05
1.99929e-06
4.7289e-05
1.92718e-06
4.54314e-05
1.85752e-06
4.36413e-05
1.79015e-06
4.19163e-05
1.72501e-06
4.02543e-05
1.66203e-06
3.86531e-05
1.60116e-06
3.71108e-05
1.54232e-06
3.56253e-05
1.48546e-06
3.41948e-05
1.4305e-06
3.28174e-05
1.37741e-06
3.14913e-05
1.3261e-06
3.02148e-05
1.27655e-06
2.89861e-05
1.22867e-06
2.78036e-05
1.18245e-06
2.66659e-05
1.13778e-06
2.55712e-05
1.09471e-06
2.45181e-05
1.05303e-06
2.35052e-05
1.01294e-06
2.25311e-05
9.74059e-07
2.15944e-05
9.36774e-07
2.06938e-05
9.00495e-07
1.9828e-05
8.65875e-07
1.8996e-05
8.32009e-07
1.81961e-05
7.99913e-07
1.74278e-05
7.68292e-07
1.66892e-05
7.38571e-07
1.59802e-05
7.09059e-07
1.52986e-05
6.81537e-07
1.46446e-05
6.54051e-07
1.4016e-05
6.28511e-07
1.34131e-05
6.0303e-07
1.28337e-05
5.79206e-07
1.22782e-05
5.55765e-07
1.17445e-05
5.33361e-07
1.12329e-05
5.12022e-07
1.07417e-05
4.90758e-07
1.02706e-05
4.71548e-07
9.81889e-06
4.5122e-07
9.38526e-06
4.34077e-07
8.97028e-06
4.146e-07
8.57121e-06
3.99356e-07
8.1903e-06
3.80743e-07
7.82316e-06
3.67182e-07
7.4738e-06
3.49447e-07
7.13616e-06
3.37436e-07
6.816e-06
3.20454e-07
6.50558e-06
3.10063e-07
6.2125e-06
2.93487e-07
5.92706e-06
2.84997e-07
5.65917e-06
2.68359e-07
5.3966e-06
2.62047e-07
5.15218e-06
2.45063e-07
4.9105e-06
2.40836e-07
4.68787e-06
2.23786e-07
4.46542e-06
2.20865e-07
4.26277e-06
2.04773e-07
4.05833e-06
2.01703e-07
3.8736e-06
1.88104e-07
3.68642e-06
1.83207e-07
3.51737e-06
1.73512e-07
3.34698e-06
1.65606e-07
3.19145e-06
1.60422e-07
3.03735e-06
1.4935e-07
2.89352e-06
1.48191e-07
2.75495e-06
1.34821e-07
2.62152e-06
1.364e-07
2.49734e-06
1.22093e-07
2.37355e-06
1.24948e-07
2.26234e-06
1.10963e-07
2.14777e-06
1.1395e-07
2.04803e-06
1.01154e-07
1.9424e-06
1.03517e-07
1.85264e-06
9.24791e-08
1.75576e-06
9.36435e-08
1.67458e-06
8.48412e-08
1.58629e-06
8.43092e-08
1.51239e-06
7.80819e-08
1.43252e-06
7.56318e-08
1.36477e-06
7.18997e-08
1.29299e-06
6.7859e-08
1.23057e-06
6.59836e-08
1.16625e-06
6.12133e-08
1.10854e-06
6.02891e-08
1.05093e-06
5.55766e-08
5.35041e-08
9.98935e-07
0.000629804
7.17444e-05
0.000596879
6.58161e-05
0.000566668
6.04219e-05
0.000538843
5.56609e-05
0.00051311
5.14802e-05
0.00048922
4.77946e-05
0.000466968
4.45198e-05
0.000446181
4.15904e-05
0.000426711
3.89559e-05
0.000408431
3.65761e-05
0.00039123
3.44181e-05
0.000375011
3.24544e-05
0.000359688
3.06619e-05
0.000345185
2.90206e-05
0.000331435
2.75133e-05
0.000318379
2.6125e-05
0.000305965
2.4843e-05
0.000294143
2.36558e-05
0.000282872
2.25537e-05
0.000272114
2.1528e-05
0.000261834
2.05711e-05
0.000252002
1.96763e-05
0.000242588
1.88378e-05
0.000233568
1.80503e-05
0.000224919
1.73092e-05
0.000216618
1.66104e-05
0.000208648
1.59503e-05
0.000200989
1.53257e-05
0.000193627
1.47335e-05
0.000186546
1.41713e-05
0.000179731
1.36367e-05
0.000173171
1.31276e-05
0.000166854
1.26422e-05
0.000160768
1.21788e-05
0.000154904
1.17358e-05
0.000149251
1.1312e-05
0.000143802
1.0906e-05
0.000138547
1.05168e-05
0.000133478
1.01432e-05
0.000128589
9.78446e-06
0.000123872
9.43968e-06
0.000119321
9.10781e-06
0.00011493
8.78877e-06
0.000110692
8.48131e-06
0.000106602
8.18532e-06
0.000102654
7.90043e-06
9.8845e-05
7.62256e-06
9.51679e-05
7.35899e-06
9.16198e-05
7.10087e-06
8.81951e-05
6.85392e-06
8.48897e-05
6.61495e-06
8.16999e-05
6.38397e-06
7.86215e-05
6.16075e-06
7.5651e-05
5.94503e-06
7.27846e-05
5.73652e-06
7.0019e-05
5.53496e-06
6.73507e-05
5.3401e-06
6.47766e-05
5.15168e-06
6.22935e-05
4.96949e-06
5.98985e-05
4.79332e-06
5.75886e-05
4.62296e-06
5.5361e-05
4.45821e-06
5.3213e-05
4.29889e-06
5.1142e-05
4.14484e-06
4.91455e-05
3.99584e-06
4.72209e-05
3.85171e-06
4.5366e-05
3.71247e-06
4.35783e-05
3.57782e-06
4.18557e-05
3.44762e-06
4.0196e-05
3.32175e-06
3.8597e-05
3.20009e-06
3.70569e-05
3.08248e-06
3.55735e-05
2.96883e-06
3.4145e-05
2.859e-06
3.27695e-05
2.75288e-06
3.14453e-05
2.65034e-06
3.01705e-05
2.5513e-06
2.89436e-05
2.45559e-06
2.77629e-05
2.36322e-06
2.66267e-05
2.27396e-06
2.55335e-05
2.18784e-06
2.4482e-05
2.10461e-06
2.34705e-05
2.02438e-06
2.24978e-05
1.94679e-06
2.15624e-05
1.87212e-06
2.06632e-05
1.79981e-06
1.97986e-05
1.73037e-06
1.89677e-05
1.66299e-06
1.8169e-05
1.59848e-06
1.74018e-05
1.5357e-06
1.66643e-05
1.47582e-06
1.59563e-05
1.41737e-06
1.52757e-05
1.36179e-06
1.46227e-05
1.30745e-06
1.39949e-05
1.25583e-06
1.3393e-05
1.20543e-06
1.28144e-05
1.15738e-06
1.22597e-05
1.11082e-06
1.17268e-05
1.06596e-06
1.12159e-05
1.02315e-06
1.07254e-05
9.811e-07
1.0255e-05
9.41936e-07
9.80401e-06
9.02419e-07
9.37101e-06
8.66708e-07
8.95664e-06
8.29557e-07
8.55816e-06
7.97018e-07
8.17781e-06
7.62157e-07
7.81121e-06
7.3248e-07
7.46236e-06
6.99832e-07
7.12522e-06
6.72803e-07
6.80554e-06
6.42152e-07
6.49556e-06
6.17765e-07
6.20292e-06
5.88686e-07
5.9179e-06
5.67133e-07
5.65041e-06
5.39102e-07
5.38822e-06
5.20563e-07
5.14417e-06
4.93254e-07
4.90283e-06
4.7754e-07
4.68055e-06
4.51182e-07
4.45841e-06
4.37457e-07
4.25608e-06
4.12982e-07
4.05193e-06
3.99795e-07
3.86749e-06
3.78586e-07
3.68058e-06
3.64327e-07
3.51179e-06
3.47596e-07
3.34165e-06
3.31185e-07
3.18635e-06
3.19336e-07
3.03249e-06
3.00708e-07
2.88887e-06
2.93097e-07
2.75051e-06
2.73155e-07
2.61728e-06
2.68418e-07
2.49329e-06
2.48463e-07
2.36968e-06
2.45129e-07
2.25865e-06
2.26325e-07
2.14424e-06
2.23286e-07
2.04466e-06
2.06383e-07
1.93918e-06
2.02946e-07
1.84956e-06
1.88377e-07
1.75282e-06
1.84036e-07
1.67177e-06
1.72144e-07
1.58361e-06
1.66473e-07
1.50982e-06
1.57467e-07
1.43006e-06
1.5031e-07
1.36243e-06
1.44e-07
1.29075e-06
1.35743e-07
1.22843e-06
1.31419e-07
1.16421e-06
1.22973e-07
1.10659e-06
1.19777e-07
1.04907e-06
1.11738e-07
1.06371e-07
9.97149e-07
0.000629192
0.000107813
0.000596253
9.87554e-05
0.000566069
9.06056e-05
0.000538279
8.34509e-05
0.000512581
7.71788e-05
0.000488723
7.16523e-05
0.0004665
6.67425e-05
0.00044574
6.23507e-05
0.000426295
5.84011e-05
0.000408037
5.48335e-05
0.000390857
5.15984e-05
0.000374657
4.86548e-05
0.000359351
4.59677e-05
0.000344864
4.35072e-05
0.00033113
4.12476e-05
0.000318089
3.91665e-05
0.000305687
3.72447e-05
0.000293878
3.5465e-05
0.000282619
3.38128e-05
0.000271872
3.22751e-05
0.000261602
3.08405e-05
0.000251779
2.94992e-05
0.000242375
2.82421e-05
0.000233364
2.70615e-05
0.000224722
2.59505e-05
0.00021643
2.49029e-05
0.000208467
2.39134e-05
0.000200816
2.29769e-05
0.00019346
2.20892e-05
0.000186385
2.12463e-05
0.000179577
2.04448e-05
0.000173023
1.96816e-05
0.000166711
1.89538e-05
0.000160631
1.82591e-05
0.000154772
1.7595e-05
0.000149124
1.69595e-05
0.00014368
1.63509e-05
0.000138429
1.57673e-05
0.000133365
1.52073e-05
0.00012848
1.46694e-05
0.000123767
1.41525e-05
0.00011922
1.36549e-05
0.000114832
1.31766e-05
0.000110598
1.27156e-05
0.000106511
1.22719e-05
0.000102567
1.18447e-05
9.87616e-05
1.14282e-05
9.50876e-05
1.1033e-05
9.15425e-05
1.0646e-05
8.81207e-05
1.02758e-05
8.48182e-05
9.91747e-06
8.1631e-05
9.57116e-06
7.85552e-05
9.2365e-06
7.55872e-05
8.91308e-06
7.27232e-05
8.60047e-06
6.99599e-05
8.29827e-06
6.72939e-05
8.00612e-06
6.47219e-05
7.72364e-06
6.2241e-05
7.45048e-06
5.98479e-05
7.18636e-06
5.75399e-05
6.93094e-06
5.53142e-05
6.68394e-06
5.3168e-05
6.44507e-06
5.10987e-05
6.21411e-06
4.91039e-05
5.99072e-06
4.71809e-05
5.77463e-06
4.53275e-05
5.56588e-06
4.35413e-05
5.364e-06
4.18202e-05
5.1688e-06
4.01618e-05
4.98009e-06
3.85642e-05
4.79768e-06
3.70253e-05
4.62137e-06
3.55432e-05
4.45097e-06
3.41159e-05
4.28631e-06
3.27416e-05
4.1272e-06
3.14184e-05
3.97347e-06
3.01447e-05
3.82498e-06
2.89188e-05
3.68152e-06
2.7739e-05
3.543e-06
2.66038e-05
3.4092e-06
2.55116e-05
3.28006e-06
2.44609e-05
3.1553e-06
2.34503e-05
3.03498e-06
2.24784e-05
2.91872e-06
2.15438e-05
2.80669e-06
2.06453e-05
2.69837e-06
1.97814e-05
2.59415e-06
1.89512e-05
2.49327e-06
1.81532e-05
2.39638e-06
1.73866e-05
2.30247e-06
1.66497e-05
2.21246e-06
1.59423e-05
2.12509e-06
1.52623e-05
2.04148e-06
1.46098e-05
1.9603e-06
1.39826e-05
1.88262e-06
1.33811e-05
1.80732e-06
1.2803e-05
1.73508e-06
1.22488e-05
1.66541e-06
1.17163e-05
1.59811e-06
1.12059e-05
1.53385e-06
1.07158e-05
1.47103e-06
1.02458e-05
1.41193e-06
9.79515e-06
1.35324e-06
9.36251e-06
1.29898e-06
8.94849e-06
1.24417e-06
8.55034e-06
1.19435e-06
8.17031e-06
1.14325e-06
7.80401e-06
1.09747e-06
7.45546e-06
1.04992e-06
7.1186e-06
1.00789e-06
6.79919e-06
9.63579e-07
6.48947e-06
9.25209e-07
6.19708e-06
8.83635e-07
5.9123e-06
8.49034e-07
5.64504e-06
8.09616e-07
5.38306e-06
7.78863e-07
5.13922e-06
7.41234e-07
4.89808e-06
7.14048e-07
4.676e-06
6.78384e-07
4.45404e-06
6.53871e-07
4.25188e-06
6.21011e-07
4.0479e-06
5.97725e-07
3.86362e-06
5.68901e-07
3.67686e-06
5.45298e-07
3.50822e-06
5.21527e-07
3.33822e-06
4.96629e-07
3.18306e-06
4.78111e-07
3.02932e-06
4.51942e-07
2.88583e-06
4.37878e-07
2.74759e-06
4.11372e-07
2.61446e-06
4.00323e-07
2.49059e-06
3.74726e-07
2.36707e-06
3.65209e-07
2.25615e-06
3.41587e-07
2.14182e-06
3.32533e-07
2.04234e-06
3.11518e-07
1.93694e-06
3.02294e-07
1.84741e-06
2.84189e-07
1.75074e-06
2.74357e-07
1.66977e-06
2.59366e-07
1.58168e-06
2.48571e-07
1.50796e-06
2.36779e-07
1.42826e-06
2.24929e-07
1.36069e-06
2.16034e-07
1.28907e-06
2.03571e-07
1.22681e-06
1.96795e-07
1.16264e-06
1.84683e-07
1.10506e-06
1.79212e-07
1.0476e-06
1.6785e-07
1.5919e-07
9.95725e-07
0.000628638
0.000143908
0.000595725
0.000131669
0.000565583
0.000120747
0.000537834
0.0001112
0.000512172
0.000102841
0.000488346
9.54781e-05
0.000466151
8.89372e-05
0.000445416
8.30863e-05
0.000425993
7.78245e-05
0.000407755
7.30714e-05
0.000390592
6.87612e-05
0.000374407
6.48392e-05
0.000359116
6.1259e-05
0.000344643
5.79806e-05
0.00033092
5.49699e-05
0.00031789
5.2197e-05
0.000305499
4.96361e-05
0.000293699
4.72646e-05
0.000282449
4.5063e-05
0.00027171
4.3014e-05
0.000261448
4.11024e-05
0.000251632
3.93149e-05
0.000242235
3.76397e-05
0.00023323
3.60665e-05
0.000224594
3.45859e-05
0.000216307
3.31899e-05
0.000208349
3.18711e-05
0.000200703
3.06231e-05
0.000193352
2.94401e-05
0.000186282
2.83167e-05
0.000179478
2.72486e-05
0.000172928
2.62314e-05
0.00016662
2.52616e-05
0.000160544
2.43356e-05
0.000154688
2.34506e-05
0.000149044
2.26037e-05
0.000143602
2.17925e-05
0.000138355
2.10148e-05
0.000133294
2.02684e-05
0.000128412
1.95515e-05
0.000123701
1.88626e-05
0.000119157
1.81994e-05
0.000114772
1.7562e-05
0.00011054
1.69476e-05
0.000106455
1.63562e-05
0.000102513
1.57869e-05
9.87097e-05
1.52317e-05
9.50377e-05
1.4705e-05
9.14945e-05
1.41892e-05
8.80745e-05
1.36957e-05
8.47738e-05
1.32182e-05
8.15883e-05
1.27567e-05
7.85141e-05
1.23106e-05
7.55477e-05
1.18796e-05
7.26852e-05
1.14629e-05
6.99234e-05
1.10601e-05
6.72587e-05
1.06707e-05
6.46881e-05
1.02943e-05
6.22084e-05
9.93019e-06
5.98166e-05
9.57815e-06
5.75098e-05
9.23773e-06
5.52853e-05
8.90852e-06
5.31402e-05
8.59015e-06
5.1072e-05
8.28232e-06
4.90781e-05
7.98459e-06
4.71562e-05
7.69657e-06
4.53037e-05
7.41835e-06
4.35184e-05
7.14927e-06
4.17981e-05
6.88911e-06
4.01406e-05
6.63759e-06
3.85439e-05
6.39447e-06
3.70057e-05
6.15947e-06
3.55244e-05
5.93237e-06
3.40978e-05
5.71289e-06
3.27241e-05
5.50083e-06
3.14017e-05
5.29594e-06
3.01286e-05
5.09802e-06
2.89033e-05
4.90683e-06
2.77241e-05
4.72219e-06
2.65895e-05
4.54387e-06
2.54978e-05
4.37173e-06
2.44476e-05
4.20547e-06
2.34375e-05
4.04508e-06
2.24661e-05
3.89015e-06
2.1532e-05
3.74079e-06
2.06339e-05
3.59648e-06
1.97705e-05
3.45749e-06
1.89407e-05
3.32314e-06
1.81431e-05
3.19388e-06
1.73769e-05
3.06886e-06
1.66404e-05
2.94872e-06
1.59333e-05
2.83246e-06
1.52536e-05
2.72083e-06
1.46015e-05
2.61283e-06
1.39746e-05
2.50911e-06
1.33734e-05
2.40891e-06
1.27956e-05
2.31249e-06
1.22417e-05
2.21972e-06
1.17094e-05
2.12999e-06
1.11993e-05
2.04429e-06
1.07094e-05
1.96072e-06
1.02397e-05
1.88169e-06
9.78925e-06
1.80384e-06
9.35683e-06
1.73103e-06
8.94302e-06
1.65857e-06
8.54506e-06
1.59148e-06
8.16523e-06
1.52415e-06
7.79911e-06
1.46228e-06
7.45074e-06
1.39984e-06
7.11405e-06
1.34281e-06
6.7948e-06
1.28484e-06
6.48523e-06
1.2325e-06
6.193e-06
1.17843e-06
5.90835e-06
1.13079e-06
5.64123e-06
1.07999e-06
5.37938e-06
1.03703e-06
5.13568e-06
9.89085e-07
4.89465e-06
9.50439e-07
4.67268e-06
9.05466e-07
4.45083e-06
8.70178e-07
4.24879e-06
8.2893e-07
4.0449e-06
7.95558e-07
3.86072e-06
7.59115e-07
3.67405e-06
7.26182e-07
3.5055e-06
6.95365e-07
3.33559e-06
6.61992e-07
3.18051e-06
6.36801e-07
3.02685e-06
6.03101e-07
2.88342e-06
5.82583e-07
2.74526e-06
5.4952e-07
2.6122e-06
5.3216e-07
2.48839e-06
5.00923e-07
2.36493e-06
4.85229e-07
2.25407e-06
4.56786e-07
2.1398e-06
4.41726e-07
2.04037e-06
4.16596e-07
1.93502e-06
4.01596e-07
1.84554e-06
3.79947e-07
1.74892e-06
3.64635e-07
1.66799e-06
3.46539e-07
1.57995e-06
3.30631e-07
1.50627e-06
3.16045e-07
1.42661e-06
2.99513e-07
1.35908e-06
2.88026e-07
1.28749e-06
2.71368e-07
1.22526e-06
2.62134e-07
1.16113e-06
2.46363e-07
1.10358e-06
2.38615e-07
1.04615e-06
2.23933e-07
2.11978e-07
9.94305e-07
0.000628162
0.000179968
0.000595291
0.000164539
0.000565195
0.000150844
0.000537485
0.00013891
0.000511856
0.00012847
0.000488059
0.000119276
0.000465888
0.000111108
0.000445174
0.000103801
0.000425769
9.72294e-05
0.000407547
9.12931e-05
0.000390399
8.59097e-05
0.000374227
8.10109e-05
0.000358947
7.65388e-05
0.000344484
7.24437e-05
0.000330771
6.86827e-05
0.000317749
6.52188e-05
0.000305366
6.20197e-05
0.000293573
5.90571e-05
0.00028233
5.63067e-05
0.000271597
5.37468e-05
0.000261341
5.13586e-05
0.00025153
4.91253e-05
0.000242137
4.70324e-05
0.000233137
4.50668e-05
0.000224506
4.3217e-05
0.000216223
4.14728e-05
0.000208269
3.98251e-05
0.000200626
3.82658e-05
0.000193279
3.67876e-05
0.000186212
3.5384e-05
0.000179411
3.40494e-05
0.000172864
3.27785e-05
0.000166559
3.15666e-05
0.000160485
3.04097e-05
0.000154631
2.93038e-05
0.00014899
2.82456e-05
0.00014355
2.7232e-05
0.000138305
2.62601e-05
0.000133246
2.53275e-05
0.000128365
2.44317e-05
0.000123657
2.35709e-05
0.000119114
2.27423e-05
0.000114731
2.19457e-05
0.0001105
2.1178e-05
0.000106417
2.04389e-05
0.000102477
1.97275e-05
9.86746e-05
1.90338e-05
9.50039e-05
1.83756e-05
9.1462e-05
1.77311e-05
8.80433e-05
1.71145e-05
8.47437e-05
1.65178e-05
8.15593e-05
1.5941e-05
7.84863e-05
1.53836e-05
7.55209e-05
1.4845e-05
7.26594e-05
1.43243e-05
6.98985e-05
1.3821e-05
6.72348e-05
1.33345e-05
6.46651e-05
1.2864e-05
6.21863e-05
1.2409e-05
5.97953e-05
1.19691e-05
5.74893e-05
1.15437e-05
5.52655e-05
1.11323e-05
5.31211e-05
1.07345e-05
5.10536e-05
1.03498e-05
4.90604e-05
9.97777e-06
4.71391e-05
9.61786e-06
4.52873e-05
9.27019e-06
4.35026e-05
8.93394e-06
4.17829e-05
8.60883e-06
4.0126e-05
8.29453e-06
3.85297e-05
7.99072e-06
3.69921e-05
7.69707e-06
3.55112e-05
7.41326e-06
3.40851e-05
7.139e-06
3.27119e-05
6.87401e-06
3.13899e-05
6.61797e-06
3.01173e-05
6.37065e-06
2.88924e-05
6.13172e-06
2.77136e-05
5.90099e-06
2.65793e-05
5.67816e-06
2.5488e-05
5.46303e-06
2.44382e-05
5.2553e-06
2.34284e-05
5.05484e-06
2.24573e-05
4.86127e-06
2.15235e-05
4.67458e-06
2.06257e-05
4.4943e-06
1.97626e-05
4.32055e-06
1.89331e-05
4.15273e-06
1.81357e-05
3.99112e-06
1.73698e-05
3.83499e-06
1.66335e-05
3.68474e-06
1.59267e-05
3.53959e-06
1.52472e-05
3.39996e-06
1.45953e-05
3.26513e-06
1.39686e-05
3.13538e-06
1.33676e-05
3.0103e-06
1.279e-05
2.8897e-06
1.22363e-05
2.77385e-06
1.17042e-05
2.6617e-06
1.11942e-05
2.55456e-06
1.07045e-05
2.45024e-06
1.02349e-05
2.35129e-06
9.78466e-06
2.25428e-06
9.35238e-06
2.16294e-06
8.93871e-06
2.07283e-06
8.54089e-06
1.98847e-06
8.16118e-06
1.90493e-06
7.79519e-06
1.82697e-06
7.44694e-06
1.74963e-06
7.11035e-06
1.67762e-06
6.79122e-06
1.606e-06
6.48175e-06
1.53969e-06
6.18962e-06
1.47313e-06
5.90506e-06
1.41246e-06
5.63804e-06
1.35027e-06
5.37627e-06
1.29512e-06
5.13265e-06
1.23685e-06
4.89171e-06
1.18675e-06
4.66982e-06
1.13247e-06
4.44804e-06
1.08642e-06
4.24607e-06
1.03677e-06
4.04225e-06
9.93328e-07
3.85813e-06
9.49259e-07
3.67153e-06
9.07008e-07
3.50304e-06
8.69137e-07
3.33318e-06
8.27303e-07
3.17815e-06
7.95432e-07
3.02455e-06
7.54211e-07
2.88117e-06
7.27235e-07
2.74306e-06
6.87621e-07
2.61004e-06
6.63951e-07
2.48628e-06
6.27075e-07
2.36286e-06
6.05209e-07
2.25204e-06
5.71943e-07
2.1378e-06
5.50884e-07
2.03842e-06
5.21633e-07
1.9331e-06
5.00866e-07
1.84366e-06
4.75666e-07
1.74706e-06
4.54887e-07
1.66617e-06
4.33676e-07
1.57815e-06
4.12668e-07
1.5045e-06
3.95279e-07
1.42487e-06
3.74076e-07
1.35736e-06
3.59989e-07
1.2858e-06
3.39145e-07
1.22359e-06
3.27447e-07
1.15948e-06
3.08024e-07
1.10195e-06
2.97994e-07
1.04455e-06
2.79997e-07
2.64745e-07
9.92718e-07
0.000627763
0.000215991
0.000594937
0.000197365
0.000564881
0.000180899
0.000537207
0.000166584
0.000511607
0.00015407
0.000487834
0.000143049
0.000465684
0.000133258
0.000444987
0.000124498
0.000425597
0.000116619
0.000407388
0.000109502
0.000390251
0.000103047
0.00037409
9.71723e-05
0.000358819
9.18095e-05
0.000344364
8.68985e-05
0.000330659
8.23882e-05
0.000317644
7.8234e-05
0.000305266
7.43972e-05
0.000293479
7.08441e-05
0.000282241
6.75452e-05
0.000271513
6.44749e-05
0.000261261
6.16104e-05
0.000251454
5.89318e-05
0.000242065
5.64214e-05
0.000233068
5.40638e-05
0.000224441
5.18449e-05
0.000216161
4.97527e-05
0.000208209
4.77762e-05
0.000200569
4.59058e-05
0.000193224
4.41326e-05
0.000186159
4.2449e-05
0.000179361
4.0848e-05
0.000172816
3.93234e-05
0.000166513
3.78697e-05
0.000160441
3.64818e-05
0.000154589
3.51552e-05
0.000148949
3.38858e-05
0.000143511
3.26698e-05
0.000138267
3.1504e-05
0.00013321
3.03852e-05
0.000128331
2.93106e-05
0.000123624
2.82778e-05
0.000119082
2.72838e-05
0.0001147
2.63282e-05
0.000110471
2.54072e-05
0.000106389
2.45206e-05
0.000102449
2.36671e-05
9.86482e-05
2.28349e-05
9.49786e-05
2.20453e-05
9.14376e-05
2.12721e-05
8.80197e-05
2.05324e-05
8.4721e-05
1.98165e-05
8.15375e-05
1.91246e-05
7.84652e-05
1.84559e-05
7.55005e-05
1.78097e-05
7.26398e-05
1.7185e-05
6.98796e-05
1.65812e-05
6.72166e-05
1.59975e-05
6.46475e-05
1.54331e-05
6.21693e-05
1.48873e-05
5.97789e-05
1.43595e-05
5.74735e-05
1.38492e-05
5.52502e-05
1.33556e-05
5.31064e-05
1.28783e-05
5.10394e-05
1.24168e-05
4.90467e-05
1.19705e-05
4.71259e-05
1.15387e-05
4.52745e-05
1.11216e-05
4.34903e-05
1.07182e-05
4.1771e-05
1.03281e-05
4.01145e-05
9.95107e-06
3.85186e-05
9.58658e-06
3.69814e-05
9.23428e-06
3.55008e-05
8.8938e-06
3.40751e-05
8.56477e-06
3.27022e-05
8.24684e-06
3.13805e-05
7.93967e-06
3.01083e-05
7.64294e-06
2.88837e-05
7.35631e-06
2.77051e-05
7.0795e-06
2.65711e-05
6.81217e-06
2.54801e-05
6.55408e-06
2.44305e-05
6.30486e-06
2.3421e-05
6.06435e-06
2.24502e-05
5.83214e-06
2.15165e-05
5.60814e-06
2.0619e-05
5.3919e-06
1.97561e-05
5.1834e-06
1.89268e-05
4.98212e-06
1.81296e-05
4.78816e-06
1.73639e-05
4.60093e-06
1.66278e-05
4.42058e-06
1.59211e-05
4.24654e-06
1.52418e-05
4.07892e-06
1.45901e-05
3.91728e-06
1.39635e-05
3.7615e-06
1.33627e-05
3.61155e-06
1.27852e-05
3.46677e-06
1.22316e-05
3.32784e-06
1.16997e-05
3.19327e-06
1.11898e-05
3.06471e-06
1.07003e-05
2.93964e-06
1.02308e-05
2.82077e-06
9.78063e-06
2.70461e-06
9.34846e-06
2.59474e-06
8.93489e-06
2.48699e-06
8.53717e-06
2.38537e-06
8.15755e-06
2.2856e-06
7.79166e-06
2.19157e-06
7.44349e-06
2.09933e-06
7.10699e-06
2.01234e-06
6.78794e-06
1.92707e-06
6.47855e-06
1.8468e-06
6.18649e-06
1.76775e-06
5.90201e-06
1.69406e-06
5.63506e-06
1.62048e-06
5.37335e-06
1.55314e-06
5.1298e-06
1.48455e-06
4.88891e-06
1.42301e-06
4.66708e-06
1.35941e-06
4.44536e-06
1.3026e-06
4.24344e-06
1.24456e-06
4.03967e-06
1.19105e-06
3.85561e-06
1.13935e-06
3.66905e-06
1.08779e-06
3.5006e-06
1.04286e-06
3.33079e-06
9.92575e-07
3.1758e-06
9.54018e-07
3.02224e-06
9.05285e-07
2.8789e-06
8.71847e-07
2.74083e-06
8.25686e-07
2.60783e-06
7.95708e-07
2.48411e-06
7.53192e-07
2.36072e-06
7.25159e-07
2.24994e-06
6.87066e-07
2.13573e-06
6.60017e-07
2.03637e-06
6.26637e-07
1.93108e-06
6.00115e-07
1.84166e-06
5.71354e-07
1.7451e-06
5.45119e-07
1.66422e-06
5.20784e-07
1.57622e-06
4.94687e-07
1.5026e-06
4.74486e-07
1.42299e-06
4.48622e-07
1.3555e-06
4.31929e-07
1.28396e-06
4.06907e-07
1.22176e-06
3.92739e-07
1.15767e-06
3.69671e-07
1.10016e-06
3.57356e-07
1.04277e-06
3.36045e-07
3.17493e-07
9.90958e-07
0.000627411
0.000251932
0.000594638
0.000230138
0.000564622
0.000210915
0.000536979
0.000194228
0.000511404
0.000179645
0.000487651
0.000166802
0.000465518
0.00015539
0.000444836
0.000145181
0.000425458
0.000135997
0.00040726
0.000127699
0.000390133
0.000120174
0.00037398
0.000113325
0.000358717
0.000107073
0.000344268
0.000101347
0.000330569
9.60877e-05
0.000317559
9.12438e-05
0.000305186
8.67698e-05
0.000293404
8.26265e-05
0.00028217
7.87797e-05
0.000271445
7.51993e-05
0.000261197
7.18588e-05
0.000251393
6.87351e-05
0.000242007
6.58075e-05
0.000233013
6.30579e-05
0.000224388
6.04702e-05
0.00021611
5.80302e-05
0.000208161
5.57251e-05
0.000200524
5.35437e-05
0.00019318
5.14757e-05
0.000186117
4.95121e-05
0.00017932
4.76449e-05
0.000172777
4.58667e-05
0.000166476
4.41713e-05
0.000160405
4.25525e-05
0.000154555
4.10053e-05
0.000148916
3.95247e-05
0.000143479
3.81064e-05
0.000138237
3.67466e-05
0.00013318
3.54417e-05
0.000128303
3.41883e-05
0.000123597
3.29838e-05
0.000119056
3.18243e-05
0.000114675
3.07097e-05
0.000110446
2.96355e-05
0.000106365
2.86014e-05
0.000102427
2.76059e-05
9.86264e-05
2.66352e-05
9.49575e-05
2.57142e-05
9.14172e-05
2.48123e-05
8.80001e-05
2.39495e-05
8.4702e-05
2.31145e-05
8.15192e-05
2.23074e-05
7.84476e-05
2.15275e-05
7.54835e-05
2.07737e-05
7.26234e-05
2.00452e-05
6.98637e-05
1.93409e-05
6.72012e-05
1.866e-05
6.46327e-05
1.80016e-05
6.21549e-05
1.7365e-05
5.97651e-05
1.67494e-05
5.74601e-05
1.61541e-05
5.52373e-05
1.55784e-05
5.30939e-05
1.50217e-05
5.10273e-05
1.44834e-05
4.9035e-05
1.39628e-05
4.71146e-05
1.34591e-05
4.52636e-05
1.29726e-05
4.34797e-05
1.25021e-05
4.17607e-05
1.20471e-05
4.01045e-05
1.16073e-05
3.8509e-05
1.11821e-05
3.69721e-05
1.07712e-05
3.54918e-05
1.0374e-05
3.40664e-05
9.99024e-06
3.26938e-05
9.6194e-06
3.13724e-05
9.26111e-06
3.01003e-05
8.915e-06
2.8876e-05
8.58066e-06
2.76977e-05
8.25778e-06
2.65639e-05
7.94595e-06
2.54731e-05
7.64489e-06
2.44237e-05
7.35421e-06
2.34144e-05
7.07365e-06
2.24438e-05
6.80282e-06
2.15103e-05
6.54151e-06
2.0613e-05
6.28931e-06
1.97502e-05
6.04607e-06
1.89211e-05
5.81134e-06
1.81241e-05
5.58504e-06
1.73585e-05
5.36672e-06
1.66226e-05
5.15627e-06
1.59161e-05
4.95335e-06
1.52369e-05
4.75773e-06
1.45853e-05
4.56929e-06
1.39589e-05
4.38749e-06
1.33582e-05
4.21266e-06
1.27808e-05
4.04372e-06
1.22273e-05
3.88171e-06
1.16955e-05
3.72474e-06
1.11858e-05
3.57474e-06
1.06963e-05
3.42894e-06
1.02269e-05
3.29016e-06
9.77686e-06
3.15485e-06
9.34478e-06
3.02644e-06
8.93131e-06
2.90105e-06
8.53367e-06
2.78218e-06
8.15414e-06
2.6662e-06
7.78832e-06
2.55608e-06
7.44023e-06
2.44896e-06
7.1038e-06
2.34699e-06
6.78481e-06
2.24807e-06
6.47549e-06
2.15385e-06
6.1835e-06
2.06231e-06
5.89908e-06
1.97559e-06
5.63218e-06
1.89063e-06
5.37054e-06
1.81111e-06
5.12704e-06
1.73219e-06
4.8862e-06
1.65922e-06
4.66443e-06
1.58629e-06
4.44275e-06
1.51874e-06
4.24088e-06
1.45229e-06
4.03715e-06
1.38874e-06
3.85313e-06
1.32939e-06
3.66662e-06
1.26854e-06
3.4982e-06
1.21654e-06
3.32843e-06
1.15782e-06
3.17347e-06
1.11256e-06
3.01996e-06
1.05633e-06
2.87664e-06
1.01642e-06
2.7386e-06
9.63722e-07
2.60564e-06
9.27434e-07
2.48195e-06
8.7928e-07
2.35858e-06
8.45083e-07
2.24783e-06
8.0216e-07
2.13364e-06
7.69127e-07
2.03431e-06
7.31613e-07
1.92904e-06
6.99345e-07
1.83965e-06
6.67016e-07
1.7431e-06
6.35335e-07
1.66225e-06
6.07866e-07
1.57427e-06
5.76691e-07
1.50066e-06
5.53669e-07
1.42107e-06
5.23156e-07
1.35359e-06
5.03847e-07
1.28207e-06
4.74656e-07
1.21989e-06
4.58012e-07
1.15582e-06
4.31306e-07
1.09832e-06
4.16702e-07
1.04095e-06
3.92079e-07
3.70226e-07
9.89145e-07
0.000627098
0.000287767
0.000594381
0.000262855
0.000564402
0.000240894
0.000536786
0.000221844
0.000511232
0.000205198
0.000487497
0.000190537
0.000465378
0.000177509
0.000444708
0.000165851
0.000425341
0.000155364
0.000407152
0.000145888
0.000390032
0.000137293
0.000373886
0.000129472
0.000358629
0.00012233
0.000344187
0.000115789
0.000330492
0.000109782
0.000317487
0.000104249
0.000305118
9.91383e-05
0.000293339
9.44053e-05
0.000282108
9.00108e-05
0.000271387
8.59205e-05
0.000261142
8.21043e-05
0.000251341
7.85357e-05
0.000241957
7.51911e-05
0.000232965
7.20498e-05
0.000224342
6.90934e-05
0.000216067
6.63057e-05
0.00020812
6.36722e-05
0.000200484
6.11799e-05
0.000193142
5.88172e-05
0.000186081
5.65737e-05
0.000179285
5.44402e-05
0.000172743
5.24087e-05
0.000166443
5.04715e-05
0.000160374
4.8622e-05
0.000154525
4.68541e-05
0.000148887
4.51624e-05
0.000143452
4.3542e-05
0.00013821
4.19882e-05
0.000133154
4.04973e-05
0.000128278
3.90651e-05
0.000123573
3.76888e-05
0.000119033
3.6364e-05
0.000114652
3.50904e-05
0.000110425
3.3863e-05
0.000106345
3.26815e-05
0.000102406
3.15439e-05
9.86069e-05
3.04348e-05
9.49386e-05
2.93825e-05
9.1399e-05
2.83519e-05
8.79825e-05
2.73661e-05
8.46851e-05
2.6412e-05
8.15027e-05
2.54898e-05
7.84317e-05
2.45986e-05
7.54681e-05
2.37373e-05
7.26085e-05
2.29048e-05
6.98494e-05
2.21e-05
6.71874e-05
2.1322e-05
6.46193e-05
2.05697e-05
6.2142e-05
1.98423e-05
5.97525e-05
1.91389e-05
5.74479e-05
1.84587e-05
5.52255e-05
1.78009e-05
5.30825e-05
1.71647e-05
5.10163e-05
1.65496e-05
4.90243e-05
1.59547e-05
4.71043e-05
1.53792e-05
4.52536e-05
1.48233e-05
4.347e-05
1.42856e-05
4.17514e-05
1.37658e-05
4.00955e-05
1.32632e-05
3.85002e-05
1.27774e-05
3.69636e-05
1.23078e-05
3.54836e-05
1.1854e-05
3.40584e-05
1.14155e-05
3.26861e-05
1.09917e-05
3.13649e-05
1.05823e-05
3.0093e-05
1.01868e-05
2.88689e-05
9.80479e-06
2.76908e-05
9.43583e-06
2.65573e-05
9.07953e-06
2.54666e-05
8.73551e-06
2.44175e-05
8.40337e-06
2.34083e-05
8.08278e-06
2.24379e-05
7.77332e-06
2.15046e-05
7.47471e-06
2.06075e-05
7.18655e-06
1.97449e-05
6.90858e-06
1.89159e-05
6.64041e-06
1.8119e-05
6.38177e-06
1.73536e-05
6.13236e-06
1.66178e-05
5.89183e-06
1.59114e-05
5.66003e-06
1.52324e-05
5.43642e-06
1.45809e-05
5.22118e-06
1.39546e-05
5.01336e-06
1.3354e-05
4.81367e-06
1.27768e-05
4.62056e-06
1.22234e-05
4.43547e-06
1.16917e-05
4.2561e-06
1.1182e-05
4.08468e-06
1.06926e-05
3.91815e-06
1.02234e-05
3.75945e-06
9.77338e-06
3.605e-06
9.34139e-06
3.45807e-06
8.92799e-06
3.31504e-06
8.53043e-06
3.17892e-06
8.15097e-06
3.04672e-06
7.78522e-06
2.92053e-06
7.4372e-06
2.79852e-06
7.10084e-06
2.68158e-06
6.78192e-06
2.569e-06
6.47266e-06
2.46083e-06
6.18072e-06
2.3568e-06
5.89636e-06
2.25708e-06
5.62952e-06
2.16072e-06
5.36793e-06
2.06903e-06
5.12448e-06
1.97977e-06
4.88369e-06
1.89538e-06
4.66196e-06
1.81313e-06
4.44032e-06
1.73485e-06
4.2385e-06
1.65998e-06
4.03481e-06
1.58639e-06
3.85083e-06
1.51939e-06
3.66435e-06
1.44926e-06
3.49598e-06
1.39018e-06
3.32624e-06
1.32303e-06
3.17131e-06
1.27107e-06
3.01783e-06
1.20734e-06
2.87454e-06
1.16097e-06
2.73654e-06
1.10173e-06
2.60359e-06
1.05913e-06
2.47994e-06
1.00534e-06
2.35659e-06
9.64983e-07
2.24587e-06
9.17227e-07
2.1317e-06
8.78218e-07
2.03239e-06
8.36563e-07
1.92714e-06
7.98558e-07
1.83777e-06
7.62651e-07
1.74124e-06
7.25537e-07
1.66041e-06
6.94924e-07
1.57245e-06
6.58683e-07
1.49885e-06
6.3283e-07
1.41929e-06
5.97677e-07
1.35182e-06
5.75744e-07
1.28032e-06
5.42394e-07
1.21815e-06
5.23267e-07
1.15409e-06
4.92931e-07
1.0966e-06
4.76033e-07
1.03925e-06
4.48102e-07
4.22943e-07
9.87458e-07
0.000626829
0.000323524
0.000594157
0.000295527
0.000564209
0.000270842
0.000536616
0.000249437
0.000511081
0.000230733
0.00048736
0.000214258
0.000465254
0.000199615
0.000444594
0.000186511
0.000425236
0.000174722
0.000407055
0.000164069
0.000389943
0.000154406
0.000373803
0.000145612
0.000358551
0.000137582
0.000344113
0.000130227
0.000330423
0.000123473
0.000317421
0.00011725
0.000305056
0.000111503
0.000293281
0.000106181
0.000282053
0.000101239
0.000271334
9.6639e-05
0.000261091
9.23473e-05
0.000251293
8.83339e-05
0.000241912
8.45725e-05
0.000232922
8.10397e-05