/*--------------------------------*- C++ -*----------------------------------*\
| =========                 |                                                 |
| \\      /  F ield         | OpenFOAM: The Open Source CFD Toolbox           |
|  \\    /   O peration     | Version:  v1912                                 |
|   \\  /    A nd           | Website:  www.openfoam.com                      |
|    \\/     M anipulation  |                                                 |
\*---------------------------------------------------------------------------*/
FoamFile
{
    version     2.0;
    format      ascii;
    class       surfaceScalarField;
    location    "100";
    object      alphaPhi0.water;
}
// * * * * * * * * * * * * * * * * * * * * * * * * * * * * * * * * * * * * * //

dimensions      [0 3 -1 0 0 0 0];
oriented        oriented;


internalField   nonuniform List<scalar> 
28285
(
0.080477
0.00525187
0.0748079
0.00566912
0.069125
0.00568292
0.0635952
0.00552978
0.0582103
0.0053849
0.0528093
0.00540102
0.0471151
0.00569418
0.040783
0.00633212
0.0334937
0.00728931
0.0250144
0.00847926
0.0152691
0.00974529
0.00436999
0.0108991
-0.00739435
0.0117643
-0.0195199
0.0121255
-0.0314303
0.0119104
-0.0425239
0.0110936
-0.052284
0.00976003
-0.0603544
0.00807042
-0.0665738
0.00621947
-0.0709685
0.00439469
-0.0737168
0.00274823
-0.0750809
0.00136409
-0.0753431
0.00026225
-0.0748445
-0.000498603
-0.0738251
-0.00101935
-0.0724484
-0.00137678
-0.0709094
-0.00153897
-0.0692482
-0.00166119
-0.0674164
-0.00183178
-0.0655032
-0.00191323
-0.0633395
-0.00216373
-0.0609082
-0.00243126
-0.0581709
-0.00273728
-0.0549702
-0.00320072
-0.0513827
-0.00358754
-0.0473244
-0.00405821
-0.042843
-0.00448145
-0.0380105
-0.00483251
-0.0327665
-0.00524396
-0.0272891
-0.00547743
-0.0214646
-0.00582447
-0.0153811
-0.0060835
-0.00898973
-0.00639139
-0.00225055
-0.00673918
0.00485337
-0.00710392
0.0122978
-0.00744443
0.0201594
-0.00786161
0.0282273
-0.00806787
0.0365774
-0.00835011
0.0449201
-0.00834268
0.0531614
-0.0082413
0.0610943
-0.00793291
0.0684526
-0.00735835
0.075077
-0.00662434
0.0806907
-0.00561376
0.085162
-0.00447126
0.0883207
-0.00315875
0.0900495
-0.00172873
0.0903385
-0.000288984
0.0891791
0.00115932
0.0866271
0.00255206
0.082622
0.0040051
0.0774515
0.0051705
0.0710695
0.00638194
0.0637847
0.00728484
0.0556391
0.0081456
0.0468616
0.00877755
0.0374576
0.00940397
0.0277281
0.00972947
0.0175579
0.0101703
0.0072544
0.0103035
-0.00319012
0.0104445
-0.0137394
0.0105493
-0.0241801
0.0104406
-0.0345303
0.0103503
-0.0446947
0.0101644
-0.0544644
0.00976971
-0.0639554
0.00949101
-0.0728282
0.00887273
-0.081144
0.00831588
-0.0887896
0.0076456
-0.0956255
0.00683585
-0.101534
0.00590809
-0.106064
0.0045309
-0.109199
0.00313499
0.00107692
-0.110276
0.0792833
0.0106216
0.0736973
0.0112551
0.0681756
0.0112046
0.0628338
0.0108715
0.0576115
0.0106072
0.0522998
0.0107128
0.0466053
0.0113887
0.0401984
0.012739
0.0327991
0.0146886
0.0242159
0.0170625
0.0144092
0.019552
0.00352262
0.0217857
-0.00815941
0.0234464
-0.0201693
0.0241354
-0.0319464
0.0236876
-0.0429141
0.0220613
-0.0525728
0.0194186
-0.0605726
0.0160703
-0.0667485
0.0123953
-0.0711208
0.00876704
-0.073866
0.00549337
-0.0752432
0.00274132
-0.0755154
0.000534477
-0.075043
-0.000971013
-0.0740436
-0.00201878
-0.0726769
-0.00274346
-0.0711415
-0.00307432
-0.0694786
-0.00332409
-0.0676341
-0.00367634
-0.0657039
-0.00384337
-0.0635193
-0.00434834
-0.0610651
-0.00488545
-0.0583059
-0.00549655
-0.0550844
-0.00642222
-0.051476
-0.00719593
-0.0474005
-0.00813372
-0.042904
-0.00897791
-0.0380608
-0.00967571
-0.0328099
-0.0104949
-0.0273294
-0.0109579
-0.0215064
-0.0116475
-0.0154253
-0.0121646
-0.00903929
-0.0127774
-0.00230333
-0.0134751
0.00480069
-0.0142079
0.0122486
-0.0148924
0.0201186
-0.0157316
0.0282006
-0.0161498
0.0365699
-0.0167194
0.0449374
-0.0167102
0.053206
-0.0165099
0.0611703
-0.0158972
0.0685599
-0.0147479
0.0752139
-0.0132783
0.0808542
-0.0112541
0.0853459
-0.00896291
0.0885199
-0.00633276
0.0902564
-0.00346521
0.0905587
-0.000591281
0.0893881
0.0023299
0.0868234
0.00511671
0.0828029
0.00802562
0.0776128
0.0103606
0.0712116
0.0127832
0.0639056
0.0145908
0.0557408
0.0163104
0.046945
0.0175733
0.0375242
0.0188248
0.0277789
0.0194748
0.0175972
0.020352
0.00727986
0.0206207
-0.00317732
0.0209017
-0.0137388
0.0211108
-0.024193
0.0208948
-0.0345561
0.0207135
-0.0447371
0.0203454
-0.0545248
0.0195574
-0.064034
0.0190002
-0.0729208
0.0177596
-0.0812175
0.0166126
-0.0887596
0.0151877
-0.0953515
0.0134277
-0.100934
0.0114906
-0.105436
0.00903264
-0.109332
0.00703168
0.00362179
-0.111877
0.0794524
0.0160038
0.0737577
0.0169498
0.0680953
0.016867
0.0626182
0.0163486
0.0573039
0.0159216
0.0519813
0.0160353
0.0463689
0.0170011
0.0401198
0.0189881
0.0329033
0.0219051
0.024486
0.0254798
0.0147845
0.0292535
0.00390293
0.0326673
-0.00784939
0.0351987
-0.0200024
0.0362884
-0.0319624
0.0356475
-0.0431118
0.0332107
-0.0529191
0.0292259
-0.0610179
0.0241691
-0.0672411
0.0186185
-0.0716173
0.0131432
-0.0743293
0.00820541
-0.07564
0.00405197
-0.0758608
0.000755281
-0.075315
-0.0015168
-0.0742569
-0.00307685
-0.0728493
-0.00415105
-0.0712862
-0.00463741
-0.0696116
-0.00499872
-0.0677649
-0.0055231
-0.0658413
-0.0057669
-0.0636658
-0.00652391
-0.0612172
-0.00733399
-0.0584609
-0.00825291
-0.0552339
-0.00964915
-0.0516147
-0.0108152
-0.0475266
-0.0122218
-0.0430138
-0.0134907
-0.0381556
-0.0145339
-0.0328919
-0.0157586
-0.027404
-0.0164457
-0.0215831
-0.0174685
-0.0155073
-0.0182404
-0.00912944
-0.0191552
-0.00240151
-0.0202031
0.0047018
-0.0213113
0.0121565
-0.0223471
0.0200433
-0.0236184
0.0281535
-0.02426
0.0365615
-0.0251275
0.0449791
-0.0251278
0.0533035
-0.0248343
0.0613317
-0.0239254
0.0687844
-0.0222006
0.075499
-0.019993
0.081192
-0.0169471
0.085726
-0.0134969
0.0889298
-0.00953657
0.0906806
-0.005216
0.0909642
-0.000874907
0.0897954
0.00349876
0.0872126
0.0076995
0.0831605
0.0120777
0.0779335
0.0155876
0.0714907
0.019226
0.0641427
0.0219388
0.055938
0.0245151
0.0471061
0.0264052
0.0376491
0.0282818
0.0278742
0.0292497
0.0176643
0.0305619
0.00732024
0.0309648
-0.0031598
0.0313817
-0.013747
0.031698
-0.0242267
0.0313745
-0.0346136
0.0311003
-0.0448242
0.030556
-0.0546375
0.0293707
-0.0641727
0.0285354
-0.0730802
0.0266671
-0.0814056
0.024938
-0.0890362
0.0228183
-0.095861
0.0202525
-0.101848
0.0174772
-0.106596
0.0137809
-0.110132
0.0105681
0.00547028
-0.111981
0.078742
0.0216487
0.0730208
0.022671
0.0674125
0.0224754
0.0620308
0.0217303
0.0568369
0.0211154
0.05163
0.0212422
0.0461061
0.022525
0.0399032
0.025191
0.0326924
0.0291159
0.0242542
0.033918
0.01452
0.0389877
0.00360587
0.0435814
-0.0081846
0.0469892
-0.0204
0.0485038
-0.0324395
0.047687
-0.0436747
0.0444459
-0.0535524
0.0391036
-0.0616854
0.0323022
-0.0679001
0.0248332
-0.0722298
0.0174729
-0.0748735
0.0108491
-0.0761168
0.00529523
-0.0762415
0.000880063
-0.0756497
-0.00210863
-0.0745472
-0.00417939
-0.0731047
-0.00559359
-0.0715214
-0.00622067
-0.0698435
-0.00667663
-0.0679971
-0.0073695
-0.0660817
-0.00768226
-0.0639128
-0.00869278
-0.0614637
-0.00978308
-0.0587058
-0.0110108
-0.0554713
-0.0128837
-0.051836
-0.0144506
-0.0477282
-0.0163296
-0.0431897
-0.0180292
-0.0383079
-0.0194156
-0.0330246
-0.021042
-0.0275263
-0.021944
-0.0217089
-0.023286
-0.0156408
-0.0243084
-0.00927637
-0.0255197
-0.00256025
-0.0269192
0.00454168
-0.0284132
0.0120065
-0.0298119
0.0199187
-0.0315305
0.0280715
-0.0324129
0.0365378
-0.0335937
0.0450311
-0.033621
0.0534389
-0.0332422
0.0615631
-0.0320496
0.0691112
-0.0297486
0.075917
-0.0267988
0.081691
-0.0227211
0.0862881
-0.018094
0.0895393
-0.0127877
0.0913137
-0.00699041
0.0916246
-0.00118586
0.0904238
0.00469963
0.0878039
0.0103193
0.0837019
0.0161797
0.0784166
0.0208729
0.0719102
0.0257324
0.0644968
0.0293521
0.056231
0.0327809
0.0473423
0.0352939
0.0378306
0.0377936
0.0280091
0.0390711
0.0177585
0.0408125
0.00737323
0.04135
-0.00314203
0.041897
-0.0137671
0.042323
-0.024285
0.0418925
-0.0347078
0.0415231
-0.0449629
0.040811
-0.054816
0.0392238
-0.0643962
0.0381156
-0.0733521
0.035623
-0.0817282
0.0333141
-0.0893976
0.0304877
-0.0961817
0.0270365
-0.102059
0.0233547
-0.106891
0.0186129
-0.110825
0.0145015
0.00822195
-0.113576
0.0787498
0.0275083
0.0728339
0.0285869
0.0670727
0.0282367
0.0616423
0.0271607
0.0564968
0.0262609
0.0514254
0.0263136
0.04608
0.0278704
0.0400833
0.0311877
0.0330703
0.0361289
0.0247578
0.0422305
0.0150373
0.0487082
0.00400992
0.0546088
-0.007995
0.0589941
-0.0204943
0.0610032
-0.0328428
0.0600355
-0.0443614
0.0559645
-0.0544521
0.0491943
-0.0627032
0.0405533
-0.0689389
0.0310689
-0.0732083
0.0217423
-0.0757348
0.0133756
-0.0768069
0.00636735
-0.0768143
0.000887417
-0.0760688
-0.00285414
-0.0748529
-0.00539523
-0.073334
-0.00711257
-0.0717021
-0.00785257
-0.0700061
-0.00837258
-0.0681616
-0.00921404
-0.0662675
-0.00957638
-0.0641302
-0.01083
-0.0617094
-0.0122039
-0.0589752
-0.0137451
-0.0557477
-0.0161111
-0.052103
-0.0180953
-0.0479787
-0.0204539
-0.043412
-0.0225959
-0.0385019
-0.0243257
-0.033194
-0.0263499
-0.0276807
-0.0274572
-0.021868
-0.0290987
-0.0158109
-0.0303655
-0.00946662
-0.031864
-0.00276605
-0.0336197
0.00433136
-0.0355106
0.0118087
-0.0372892
0.0197532
-0.0394751
0.027963
-0.0406226
0.0365072
-0.042138
0.0451026
-0.0422164
0.0536239
-0.0417636
0.0618779
-0.0403036
0.069555
-0.0374257
0.0764835
-0.0337274
0.0823655
-0.028603
0.0870479
-0.0227765
0.0903602
-0.0161001
0.0921648
-0.00879493
0.0924602
-0.00148128
0.0912546
0.00590525
0.0885937
0.0129802
0.0844268
0.0203466
0.0790633
0.0262364
0.0724716
0.0323241
0.0649711
0.0368526
0.0566248
0.0411273
0.0476613
0.0442574
0.0380787
0.0473761
0.0281961
0.0489538
0.0178906
0.051118
0.00745118
0.0517895
-0.00311053
0.0524587
-0.0137858
0.0529983
-0.0243545
0.0524611
-0.0348256
0.0519943
-0.0451408
0.0511262
-0.0550476
0.0491306
-0.0646838
0.0477518
-0.0736903
0.0446295
-0.0821138
0.0417376
-0.0898525
0.0382264
-0.0967635
0.0339475
-0.102879
0.0294705
-0.107937
0.0236707
-0.111887
0.0184517
0.0107139
-0.114379
0.078342
0.0337135
0.0722526
0.0346763
0.0664767
0.0340126
0.0610958
0.0325415
0.0560616
0.0312951
0.0511457
0.0312295
0.0459807
0.0330353
0.0401449
0.0370236
0.0332449
0.0430289
0.024992
0.0504834
0.015266
0.0584342
0.00415584
0.065719
-0.00802725
0.0711772
-0.0207932
0.0737692
-0.0334461
0.0726884
-0.0452471
0.0677655
-0.0555472
0.0594944
-0.0639045
0.0489106
-0.070138
0.0373023
-0.0743154
0.0259198
-0.0767046
0.0157648
-0.0775986
0.00726135
-0.0774186
0.000707359
-0.0765497
-0.003723
-0.0752225
-0.00672248
-0.0736253
-0.00870977
-0.0719489
-0.00952898
-0.0702425
-0.010079
-0.0684056
-0.0110509
-0.0665368
-0.0114452
-0.0644298
-0.012937
-0.0620334
-0.0146003
-0.0593216
-0.0164569
-0.0561024
-0.0193303
-0.0524469
-0.0217508
-0.0483016
-0.0245992
-0.0436982
-0.0271993
-0.0387505
-0.0292735
-0.0334106
-0.0316897
-0.0278784
-0.0329894
-0.0220716
-0.0349055
-0.0160304
-0.0364068
-0.00971129
-0.0381831
-0.0030331
-0.0402979
0.00405749
-0.0426012
0.0115494
-0.0447812
0.0195342
-0.0474599
0.0278154
-0.0489038
0.0364575
-0.05078
0.0451819
-0.0509409
0.0538461
-0.0504277
0.0622633
-0.0487208
0.0701043
-0.0452667
0.0771876
-0.0408107
0.0832073
-0.0346227
0.0879971
-0.0275663
0.0913887
-0.0194917
0.0932323
-0.0106385
0.0935438
-0.00179273
0.0923011
0.00714788
0.089581
0.0157003
0.0853295
0.0245981
0.0798658
0.0317002
0.0731662
0.0390237
0.065556
0.0444628
0.0571078
0.0495754
0.04805
0.0533152
0.0383775
0.0570486
0.0284182
0.0589131
0.0180454
0.0614908
0.00753854
0.0622964
-0.00308088
0.0630781
-0.0138178
0.0637353
-0.0244493
0.0630926
-0.0349812
0.0625262
-0.045371
0.0615159
-0.0553464
0.059106
-0.0650561
0.0574615
-0.0741366
0.05371
-0.0826361
0.0502371
-0.0904563
0.0460466
-0.09742
0.0409113
-0.103574
0.0356244
-0.108689
0.028786
-0.112781
0.0225439
0.0137425
-0.11581
0.0783207
0.0402027
0.0719694
0.0410277
0.0660083
0.0399736
0.0606156
0.0379342
0.0557159
0.0361949
0.0510308
0.0359146
0.04616
0.0379061
0.0406228
0.0425609
0.03396
0.0496916
0.0258231
0.0586204
0.0160571
0.0682002
0.00474295
0.0770331
-0.00778168
0.0837018
-0.0209854
0.0869729
-0.0341117
0.0858146
-0.0463467
0.0800006
-0.0569661
0.0701138
-0.0654851
0.0574297
-0.0717236
0.0435408
-0.0757777
0.0299738
-0.0779586
0.0179457
-0.0785803
0.0078831
-0.0781909
0.000317991
-0.0770889
-0.004825
-0.075593
-0.00821841
-0.0738809
-0.0104219
-0.0721361
-0.0112738
-0.0704109
-0.0118041
-0.0685906
-0.0128712
-0.0667659
-0.0132699
-0.064718
-0.0149848
-0.0623745
-0.0169439
-0.0597069
-0.0191244
-0.0565083
-0.0225289
-0.0528455
-0.0254137
-0.0486778
-0.0287669
-0.0440326
-0.0318445
-0.039039
-0.0342671
-0.0336608
-0.037068
-0.0281024
-0.0385477
-0.022305
-0.0407029
-0.0162853
-0.0424265
-0.0099999
-0.0444685
-0.00335202
-0.0469458
0.00372779
-0.049681
0.0112353
-0.0522886
0.0192659
-0.0554905
0.0276331
-0.057271
0.0363936
-0.0595405
0.0452753
-0.0598227
0.0541148
-0.0592672
0.0627318
-0.0573378
0.0707732
-0.0533081
0.0780446
-0.0480821
0.0842312
-0.0408092
0.0891511
-0.0324862
0.092637
-0.0229776
0.0945272
-0.0125287
0.0948403
-0.00210588
0.0935696
0.00841866
0.0907782
0.0184917
0.0864241
0.0289521
0.0808373
0.037287
0.0740064
0.0458545
0.0662634
0.0522058
0.0576939
0.058145
0.0485214
0.0624878
0.0387414
0.0668286
0.0286917
0.0689627
0.0182393
0.0719432
0.00765222
0.0728835
-0.00303717
0.0737675
-0.0138472
0.0745453
-0.0245531
0.0737985
-0.0351587
0.0731318
-0.0456384
0.0719957
-0.0556976
0.0691653
-0.0654945
0.0672583
-0.074658
0.0628736
-0.0832349
0.058814
-0.0911368
0.0539485
-0.0982057
0.0479802
-0.10454
0.0419591
-0.109809
0.0340549
-0.114079
0.0268137
0.0166948
-0.117031
0.0781057
0.0471784
0.07141
0.0477233
0.065359
0.0460246
0.0599922
0.043301
0.055249
0.0409381
0.0508257
0.0403379
0.0462623
0.0424695
0.0410266
0.0477966
0.0346029
0.0561153
0.0265954
0.0666279
0.0168135
0.0779821
0.00531516
0.0885314
-0.00756649
0.0965834
-0.0212653
0.100672
-0.0349357
0.099485
-0.0476617
0.0927265
-0.0586348
0.0810869
-0.0673259
0.0661207
-0.0735495
0.0497645
-0.0774432
0.0338675
-0.0793569
0.0198594
-0.0797029
0.00822909
-0.0790264
-0.000358531
-0.0777074
-0.00614399
-0.0760315
-0.00989434
-0.0741958
-0.0122576
-0.0723814
-0.0130881
-0.0706393
-0.0135463
-0.0688384
-0.0146721
-0.0670594
-0.0150489
-0.0650703
-0.016974
-0.0627827
-0.0192314
-0.0601641
-0.021743
-0.0569904
-0.0257026
-0.0533194
-0.0290847
-0.0491251
-0.0329612
-0.0444299
-0.0365397
-0.0393787
-0.0393182
-0.033954
-0.0424926
-0.0283635
-0.0441382
-0.0225756
-0.0464908
-0.0165837
-0.0484184
-0.010342
-0.0507102
-0.00373316
-0.0535547
0.00332911
-0.0567433
0.0108519
-0.0598115
0.0189349
-0.0635735
0.0274031
-0.0657392
0.0363028
-0.0684402
0.0453716
-0.0688914
0.05442
-0.0683156
0.0632732
-0.066191
0.0715542
-0.0615891
0.0790486
-0.0555765
0.0854336
-0.0471943
0.0905071
-0.0375597
0.0941047
-0.0265752
0.0960509
-0.0144749
0.0963684
-0.00242338
0.0950589
0.00972809
0.0921805
0.0213702
0.0877036
0.033429
0.0819686
0.043022
0.074982
0.0528411
0.0670826
0.0601052
0.0583717
0.0668559
0.0490635
0.0717959
0.0391586
0.0767335
0.0290015
0.0791199
0.0184563
0.0824884
0.00777611
0.0835637
-0.00299488
0.0845385
-0.0138879
0.0854384
-0.0246797
0.0845903
-0.0353727
0.0838248
-0.0459574
0.0825803
-0.0561162
0.0793241
-0.0660143
0.0771564
-0.0752777
0.072137
-0.0839536
0.0674898
-0.0919582
0.0619531
-0.0991214
0.0551435
-0.10556
0.0483973
-0.110897
0.0393928
-0.115288
0.0312039
0.019902
-0.118495
0.0779669
0.0546095
0.0709778
0.0547124
0.06474
0.0522624
0.0593812
0.0486598
0.0548298
0.0454895
0.0507524
0.0444152
0.0466198
0.0466021
0.0417983
0.0526182
0.0356934
0.0622201
0.0278359
0.0744855
0.0179947
0.0878232
0.00622119
0.100305
-0.00714376
0.109948
-0.0214812
0.115009
-0.0358459
0.11385
-0.049205
0.106086
-0.0606295
0.0925114
-0.0695285
0.0750198
-0.0757287
0.0559646
-0.0794412
0.03758
-0.0809894
0.0214076
-0.0809983
0.00823801
-0.0799776
-0.00137922
-0.0783509
-0.00777074
-0.0764442
-0.0118011
-0.0744549
-0.0142469
-0.0725596
-0.0149834
-0.070803
-0.015303
-0.0690413
-0.0164338
-0.0673349
-0.0167553
-0.0654338
-0.0188751
-0.0632321
-0.021433
-0.060684
-0.0242912
-0.0575466
-0.0288399
-0.053867
-0.0327643
-0.0496393
-0.0371889
-0.0448839
-0.0412951
-0.039763
-0.0444391
-0.0342829
-0.0479727
-0.0286518
-0.0497693
-0.0228744
-0.0522682
-0.0169188
-0.054374
-0.010731
-0.056898
-0.00417403
-0.0601116
0.0028634
-0.0637807
0.0103998
-0.0673478
0.018539
-0.0717127
0.0271224
-0.0743226
0.0361831
-0.0775009
0.0454698
-0.0781781
0.0547638
-0.0776097
0.0638923
-0.0753195
0.0724545
-0.0701512
0.0802092
-0.0633312
0.0868257
-0.0538108
0.0920764
-0.0428104
0.095802
-0.0303008
0.0978108
-0.0164836
0.0981328
-0.00274545
0.0967792
0.0110817
0.0937976
0.0243518
0.0891772
0.0380495
0.0832684
0.0489307
0.0761006
0.060009
0.068021
0.0681848
0.0591488
0.075728
0.0496826
0.0812621
0.0396357
0.0867804
0.0293556
0.0894
0.018706
0.093138
0.00792006
0.0943496
-0.00294345
0.095402
-0.0139301
0.096425
-0.0248182
0.0954784
-0.0356124
0.094619
-0.0463173
0.0932852
-0.0565943
0.0896011
-0.0666094
0.0871715
-0.0759846
0.0815122
-0.0847673
0.0762725
-0.092871
0.0700568
-0.100133
0.0624052
-0.106717
0.054981
-0.112175
0.0448516
-0.116797
0.0358258
0.0231634
-0.120059
0.0778489
0.062598
0.0703854
0.0621759
0.0639042
0.0587437
0.0585714
0.0539926
0.0542809
0.04978
0.0506131
0.048083
0.046952
0.0502631
0.0426008
0.0569694
0.0368714
0.0679495
0.0292088
0.082148
0.019337
0.0976951
0.007272
0.11237
-0.00665666
0.123877
-0.0217447
0.130097
-0.0369241
0.129029
-0.051013
0.120175
-0.0629558
0.104454
-0.0721013
0.0841653
-0.0782665
0.0621298
-0.0817272
0.0410407
-0.0828449
0.0225253
-0.0824486
0.00784173
-0.0810358
-0.00279199
-0.079083
-0.00972352
-0.0769271
-0.013957
-0.074769
-0.016405
-0.0727859
-0.0169665
-0.0710119
-0.017077
-0.0692918
-0.0181539
-0.0676607
-0.0183864
-0.0658533
-0.0206824
-0.0637519
-0.0235344
-0.0612889
-0.0267542
-0.0581977
-0.0319311
-0.054507
-0.0364551
-0.0502354
-0.0414605
-0.0454074
-0.0461231
-0.0402016
-0.049645
-0.0346573
-0.0535169
-0.0289787
-0.0554479
-0.0232087
-0.0580382
-0.0172953
-0.0602874
-0.0111732
-0.0630201
-0.00468195
-0.0666029
0.00231788
-0.0707805
0.00986383
-0.0748938
0.0180632
-0.0799122
0.0267767
-0.083036
0.0360223
-0.0867465
0.0455605
-0.0877163
0.0551383
-0.0871875
0.064583
-0.0847643
0.0734717
-0.0790399
0.0815262
-0.0713856
0.0884106
-0.0606952
0.0938653
-0.0482651
0.0977352
-0.0341707
0.0998157
-0.0185642
0.100142
-0.00307144
0.0987336
0.0124899
0.0956299
0.0274555
0.0908439
0.0428355
0.0847332
0.0550414
0.0773591
0.0673831
0.0690735
0.0764704
0.0600185
0.0847831
0.0503724
0.0909082
0.0401648
0.096988
0.0297454
0.0998193
0.0189766
0.103907
0.0080713
0.105255
-0.00289689
0.10637
-0.0139861
0.107514
-0.0249821
0.106474
-0.0358918
0.105529
-0.0467292
0.104123
-0.0571433
0.100015
-0.0672915
0.0973197
-0.0767962
0.0910169
-0.0857016
0.0851779
-0.093913
0.0782682
-0.101272
0.0697642
-0.107974
0.0616829
-0.113536
0.0504141
-0.11839
0.0406799
0.0265259
-0.121753
0.0776036
0.0712676
0.0697169
0.0700626
0.0630302
0.0654304
0.0577228
0.0592999
0.0537201
0.0537828
0.0505433
0.0512597
0.0474866
0.0533198
0.0437117
0.0607444
0.0384274
0.0732338
0.0309858
0.0895897
0.0210897
0.107591
0.00865041
0.124809
-0.00597005
0.138498
-0.0219503
0.146077
-0.0381173
0.145196
-0.0531145
0.135172
-0.0656894
0.117029
-0.0750834
0.0935593
-0.0811742
0.0682206
-0.0842335
0.0441
-0.0849266
0.0232184
-0.0840378
0.00695292
-0.082156
-0.00467382
-0.0798164
-0.0120631
-0.0773716
-0.0164019
-0.0750282
-0.0187484
-0.0729578
-0.0190368
-0.0711772
-0.0188576
-0.0695231
-0.019808
-0.0679959
-0.0199136
-0.0663084
-0.0223699
-0.0643402
-0.0255027
-0.0619893
-0.0291051
-0.0589603
-0.0349602
-0.0552568
-0.0401586
-0.0509271
-0.0457902
-0.0460096
-0.0510406
-0.0407013
-0.0549532
-0.0350832
-0.059135
-0.0293479
-0.0611832
-0.0235827
-0.0638034
-0.0177169
-0.0661531
-0.0116727
-0.0690643
-0.00526188
-0.0730137
0.00168493
-0.0777273
0.00923388
-0.0824427
0.0174952
-0.0881735
0.0263528
-0.0918937
0.0358054
-0.0961991
0.0456291
-0.09754
0.0555343
-0.0970926
0.0653385
-0.0945685
0.0746009
-0.0883023
0.0830001
-0.0797849
0.0901889
-0.0678839
0.0958748
-0.0539511
0.0999061
-0.038202
0.102066
-0.0207244
0.10238
-0.00338495
0.100921
0.0139487
0.0976752
0.0307012
0.0927006
0.0478101
0.0863596
0.0613825
0.0787452
0.0749975
0.0702293
0.0849863
0.0609737
0.0940386
0.0511232
0.100759
0.0407405
0.107371
0.0301632
0.110397
0.0192609
0.114809
0.00822635
0.116289
-0.00286067
0.117457
-0.0140626
0.118716
-0.025172
0.117584
-0.0362079
0.116565
-0.047189
0.115104
-0.057763
0.110589
-0.0680611
0.107618
-0.0777089
0.100665
-0.0867523
0.0942213
-0.0950692
0.0865852
-0.102512
0.0772075
-0.109319
0.0684893
-0.115005
0.0561001
-0.120161
0.0458358
0.0299505
-0.123585
0.0773732
0.080639
0.0688927
0.0785431
0.0618762
0.0724469
0.0566324
0.0645437
0.0529931
0.0574221
0.0504016
0.0538512
0.0480273
0.0556942
0.0449204
0.0638512
0.0402043
0.0779499
0.0330994
0.0966946
0.0231662
0.117524
0.0102654
0.13771
-0.00513315
0.153896
-0.0221671
0.163111
-0.0394831
0.162512
-0.0554989
0.151187
-0.0687675
0.130298
-0.0784545
0.103246
-0.0845333
0.0742994
-0.0871214
0.0466881
-0.087316
0.023413
-0.0858259
0.00546282
-0.0834031
-0.00709654
-0.0806289
-0.0148374
-0.0778691
-0.0191616
-0.0753361
-0.0212815
-0.0731851
-0.0211878
-0.0713941
-0.0206486
-0.0698057
-0.0213963
-0.0683842
-0.0213351
-0.0668186
-0.0239355
-0.0650012
-0.0273201
-0.0627851
-0.0313211
-0.0598381
-0.0379072
-0.0561207
-0.043876
-0.051716
-0.0501949
-0.046691
-0.0560656
-0.0412613
-0.060383
-0.0355638
-0.0648325
-0.0297677
-0.0669793
-0.024002
-0.0695692
-0.0181882
-0.0719669
-0.0122322
-0.0750203
-0.00592188
-0.0793241
0.000952077
-0.0846013
0.0084932
-0.0899838
0.0168187
-0.0964989
0.0258347
-0.10091
0.0355237
-0.105888
0.0456704
-0.107687
0.055947
-0.107369
0.0661581
-0.10478
0.0758473
-0.0979915
0.0846401
-0.0885777
0.0921835
-0.0754273
0.0981332
-0.0599008
0.102344
-0.0424129
0.104586
-0.0229663
0.104918
-0.00371734
0.103366
0.0155014
0.0999519
0.034115
0.0947645
0.0529975
0.0881615
0.0679855
0.0802822
0.0828768
0.0715029
0.0937656
0.0620141
0.103527
0.0519344
0.110838
0.0413586
0.117947
0.0306066
0.121149
0.0195562
0.12586
0.00838192
0.127464
-0.00283338
0.128673
-0.0141561
0.130039
-0.0253926
0.12882
-0.0365663
0.127738
-0.0476922
0.126229
-0.0584445
0.121342
-0.0689101
0.118083
-0.0787224
0.110477
-0.0879159
0.103415
-0.0963285
0.0949978
-0.103844
0.0847226
-0.11071
0.075356
-0.116524
0.0619135
-0.121982
0.0512935
0.0334891
-0.12552
0.0770148
0.0908913
0.0678851
0.0876728
0.0605834
0.0797487
0.0553833
0.0697437
0.052159
0.0606464
0.0502695
0.0557407
0.0487434
0.0572203
0.0465475
0.0660471
0.0424764
0.082021
0.0356772
0.103494
0.0256341
0.127568
0.0122405
0.151104
-0.00405853
0.170195
-0.0223237
0.181377
-0.0410043
0.181193
-0.0582821
0.168465
-0.0724254
0.144441
-0.0824958
0.113317
-0.0883224
0.080126
-0.0904319
0.0487977
-0.0899212
0.0229022
-0.0877142
0.00325585
-0.0846727
-0.0101381
-0.0813981
-0.018112
-0.0782772
-0.0222825
-0.0755318
-0.0240269
-0.0733008
-0.0234187
-0.0715213
-0.0224282
-0.0700321
-0.0228855
-0.068743
-0.0226243
-0.0673039
-0.0253746
-0.065658
-0.028966
-0.0636048
-0.0333744
-0.0607694
-0.0407426
-0.0570523
-0.0475931
-0.0525607
-0.0546865
-0.0474086
-0.0612177
-0.0418405
-0.0659511
-0.0360602
-0.0706127
-0.0302081
-0.0728314
-0.024449
-0.0753283
-0.0186983
-0.0777176
-0.0128426
-0.080876
-0.00665164
-0.085515
0.000126052
-0.091379
0.00763475
-0.0974925
0.0160109
-0.104875
0.025195
-0.110094
0.0351375
-0.115831
0.0456472
-0.118196
0.0563501
-0.118072
0.0670173
-0.115447
0.0771904
-0.108165
0.0864371
-0.0978245
0.0943779
-0.0833681
0.100628
-0.0661512
0.105034
-0.0468183
0.107379
-0.0253113
0.10765
-0.00398913
0.106043
0.0171092
0.102433
0.0377244
0.0970044
0.0584263
0.0901058
0.0748841
0.0819193
0.0910633
0.0728424
0.102842
0.0630974
0.113272
0.0527632
0.121173
0.0419855
0.128724
0.031046
0.132088
0.0198454
0.13706
0.00853605
0.138773
-0.00281039
0.140019
-0.0142588
0.141487
-0.0256207
0.140182
-0.0369331
0.139051
-0.048199
0.137495
-0.0591408
0.132283
-0.0697843
0.128727
-0.0797712
0.120464
-0.0891351
0.112779
-0.0976496
0.103512
-0.105222
0.0922954
-0.112092
0.0822259
-0.117998
0.0678198
-0.123703
0.0569983
0.0371958
-0.12741
0.0765289
0.102084
0.0666325
0.0975692
0.0589389
0.0874422
0.0538429
0.0748397
0.0511476
0.0633418
0.0501124
0.0567758
0.0496174
0.0577153
0.0483259
0.0673386
0.0449205
0.0854264
0.0385066
0.109908
0.0284189
0.137655
0.0144958
0.165027
-0.00282411
0.187515
-0.0224969
0.201049
-0.0427706
0.201466
-0.0614871
0.187182
-0.0765548
0.159509
-0.0870777
0.12384
-0.0924637
0.085512
-0.0940307
0.0503647
-0.0927107
0.0215822
-0.089676
0.000221173
-0.0859117
-0.0139024
-0.0820616
-0.0219621
-0.0785389
-0.0258051
-0.0755703
-0.0269955
-0.0732702
-0.0257189
-0.071498
-0.0242004
-0.0700999
-0.0242836
-0.0689438
-0.0237803
-0.067638
-0.0266804
-0.0661738
-0.0304302
-0.0642913
-0.0352569
-0.0615928
-0.0434411
-0.0578995
-0.0512864
-0.0533166
-0.0592694
-0.0480162
-0.0665181
-0.0422859
-0.0716814
-0.0364162
-0.0764823
-0.0305265
-0.0787212
-0.0247919
-0.0810628
-0.0191247
-0.0833848
-0.0133967
-0.0866041
-0.00735437
-0.0915573
-0.000713663
-0.0980197
0.0067304
-0.104937
0.0151392
-0.113284
0.0244805
-0.119435
0.0346965
-0.126047
0.0455912
-0.129091
0.0567538
-0.129235
0.0679169
-0.12661
0.0786143
-0.118862
0.0883554
-0.107566
0.0967466
-0.0917592
0.103341
-0.0727459
0.107964
-0.0514413
0.110399
-0.0277464
0.110696
-0.00428532
0.108959
0.0188455
0.105133
0.0415507
0.0994507
0.0641087
0.0922431
0.0820917
0.083722
0.0995844
0.0743233
0.112241
0.0642978
0.123298
0.0536975
0.131773
0.0427216
0.1397
0.031589
0.143221
0.020235
0.148414
0.00880578
0.150202
-0.00266464
0.151489
-0.0142381
0.153061
-0.0257428
0.151687
-0.0372027
0.150511
-0.0486082
0.148901
-0.0597611
0.143436
-0.0706295
0.139595
-0.0808357
0.13067
-0.0904144
0.122357
-0.0990249
0.112123
-0.106668
0.0999388
-0.113462
0.0890194
-0.119459
0.073817
-0.125299
0.062838
0.0412155
-0.129319
0.0269726
0.106307
0.0232562
0.101286
0.0204367
0.0902617
0.0186496
0.0766268
0.017828
0.0641633
0.0176827
0.0569212
0.0177701
0.0576279
0.0175536
0.0675551
0.0165557
0.0864244
0.0144011
0.112062
0.0108388
0.141217
0.00579772
0.170068
-0.000582615
0.193895
-0.0079071
0.208374
-0.0155222
0.209082
-0.0225645
0.194224
-0.0281761
0.165121
-0.0319938
0.127657
-0.0338671
0.0873853
-0.0342454
0.050743
-0.033541
0.0208778
-0.0322295
-0.00109037
-0.0306994
-0.0154324
-0.0291795
-0.023482
-0.027826
-0.0271586
-0.026719
-0.0281025
-0.0258835
-0.0265544
-0.0252525
-0.0248314
-0.0247802
-0.0247559
-0.024406
-0.0241545
-0.0239781
-0.0271084
-0.0235072
-0.0309011
-0.0228846
-0.0358795
-0.0219659
-0.0443597
-0.0206666
-0.0525857
-0.0190187
-0.0609174
-0.0170974
-0.0684394
-0.0150192
-0.0737596
-0.0129108
-0.0785908
-0.0108149
-0.080817
-0.00879377
-0.083084
-0.00681176
-0.0853668
-0.00481762
-0.0885982
-0.00271941
-0.0936555
-0.000404475
-0.100335
0.00220866
-0.10755
0.00518682
-0.116262
0.00853062
-0.122779
0.0122099
-0.129726
0.0161652
-0.133046
0.0202387
-0.133308
0.0243187
-0.13069
0.02824
-0.122783
0.0318177
-0.111143
0.0349022
-0.0948438
0.0373256
-0.0751693
0.0390151
-0.0531308
0.0399029
-0.0286342
0.039993
-0.00437545
0.0393584
0.0194801
0.0379406
0.0429685
0.0358604
0.0661888
0.0332211
0.084731
0.0301182
0.102687
0.0267069
0.115652
0.0230873
0.126918
0.0192643
0.135596
0.0153241
0.14364
0.0113341
0.147211
0.00728304
0.152465
0.00320958
0.154276
-0.0008874
0.155586
-0.00501728
0.157191
-0.00912308
0.155793
-0.0132175
0.154605
-0.0172921
0.152976
-0.0212972
0.147441
-0.025214
0.143512
-0.0288889
0.134345
-0.0323485
0.125817
-0.0354377
0.115212
-0.0381723
0.102673
-0.0405331
0.0913802
-0.0426997
0.0759837
-0.0447588
0.0648971
0.0427643
-0.0463076
0.0268446
0.110696
0.0230238
0.105106
0.0201561
0.0931295
0.0183818
0.0784011
0.0176476
0.0648975
0.0176375
0.0569313
0.017874
0.0573914
0.0178056
0.0676236
0.016937
0.0872929
0.0148649
0.114134
0.0113211
0.144761
0.00621755
0.175172
-0.000322537
0.200435
-0.0078828
0.215934
-0.0157732
0.216972
-0.0230602
0.201511
-0.0288339
0.170894
-0.0326731
0.131496
-0.0345295
0.0892417
-0.0347797
0.0509931
-0.0339377
0.0200358
-0.0324989
-0.00252915
-0.0308622
-0.0170691
-0.029262
-0.0250823
-0.0278568
-0.0285637
-0.0267206
-0.0292387
-0.0258718
-0.0274032
-0.0252399
-0.0254634
-0.024782
-0.0252137
-0.0244296
-0.0245069
-0.0240243
-0.0275137
-0.0235823
-0.031343
-0.0229823
-0.0364795
-0.0220828
-0.0452593
-0.0207889
-0.0538795
-0.0191279
-0.0625784
-0.0171808
-0.0703865
-0.0150698
-0.0758706
-0.0129395
-0.0807211
-0.0108321
-0.0829244
-0.00881285
-0.0851033
-0.00684156
-0.0873381
-0.00486303
-0.0905768
-0.00278271
-0.0957359
-0.000485032
-0.102632
0.00211783
-0.110153
0.00509993
-0.119244
0.00846761
-0.126147
0.0121881
-0.133446
0.0162006
-0.137059
0.0203433
-0.137451
0.0244956
-0.134842
0.0284907
-0.126778
0.032138
-0.114791
0.0352856
-0.0979914
0.0377542
-0.0776379
0.0394703
-0.0548469
0.0403667
-0.0295306
0.0404517
-0.00446051
0.039798
0.0201338
0.0383439
0.0444226
0.0362229
0.0683099
0.0335389
0.0874149
0.0303915
0.105835
0.0269331
0.119111
0.0232708
0.13058
0.0194118
0.139455
0.0154516
0.147601
0.0114283
0.151234
0.00734824
0.156545
0.00325774
0.158366
-0.000852108
0.159696
-0.00500176
0.16134
-0.00912964
0.159921
-0.0132445
0.15872
-0.0173347
0.157066
-0.0213798
0.151486
-0.0253322
0.147464
-0.0290612
0.138074
-0.0325651
0.129321
-0.035688
0.118335
-0.0384433
0.105429
-0.0407852
0.0937221
-0.0429643
0.0781628
-0.0449728
0.0669055
0.0443576
-0.046566
0.0267276
0.115233
0.0227954
0.109039
0.0198607
0.0960643
0.0181035
0.0801583
0.0174658
0.0655352
0.017599
0.0567981
0.0179984
0.0569919
0.0181002
0.0675218
0.0173756
0.0880175
0.0153881
0.116122
0.0118505
0.148299
0.00665881
0.180363
-7.40462e-05
0.207168
-0.00788294
0.223743
-0.0160502
0.225139
-0.0235858
0.209047
-0.0295563
0.176865
-0.0333764
0.135317
-0.0351957
0.091061
-0.0353341
0.0511315
-0.0343506
0.0190524
-0.0327802
-0.00409956
-0.031033
-0.0188163
-0.0293525
-0.0267629
-0.0278994
-0.0300168
-0.0267376