/*--------------------------------*- C++ -*----------------------------------*\
| =========                 |                                                 |
| \\      /  F ield         | OpenFOAM: The Open Source CFD Toolbox           |
|  \\    /   O peration     | Version:  v1912                                 |
|   \\  /    A nd           | Website:  www.openfoam.com                      |
|    \\/     M anipulation  |                                                 |
\*---------------------------------------------------------------------------*/
FoamFile
{
    version     2.0;
    format      ascii;
    class       volScalarField;
    location    "40";
    object      p;
}
// * * * * * * * * * * * * * * * * * * * * * * * * * * * * * * * * * * * * * //

dimensions      [1 -1 -2 0 0 0 0];


internalField   nonuniform List<scalar> 
14268
(
42633
42659.3
42680.9
42701.1
42723.3
42750.8
42785.8
42829.1
42879.5
42934.9
42992
43046.9
43096.6
43138.6
43170.9
43190.7
43194.4
43176.6
43131.8
43056.1
42950.3
42820.8
42676.2
42534
42415.2
42323.7
42262
42229.9
42219.8
42227.1
42240.4
42258
42287.4
42343.6
42399.2
42434
42443.4
42426.7
42384
42321.3
42244.9
42163.3
42087.2
42023.8
42531.4
42557.7
42579.3
42599.5
42621.7
42649.2
42684.2
42727.5
42777.9
42833.3
42890.4
42945.3
42995
43037
43069.3
43089.1
43092.8
43075
43030.2
42954.5
42848.7
42719.2
42574.6
42432.4
42313.6
42222.1
42160.4
42128.3
42118.2
42125.5
42138.8
42156.4
42185.8
42242
42297.6
42332.4
42341.8
42325.1
42282.4
42219.7
42143.3
42061.7
41985.6
41922.1
42429.8
42456.1
42477.7
42497.9
42520.1
42547.5
42582.6
42625.9
42676.3
42731.7
42788.8
42843.7
42893.4
42935.4
42967.7
42987.5
42991.2
42973.4
42928.6
42852.9
42747.1
42617.6
42473
42330.8
42212
42120.5
42058.8
42026.7
42016.6
42023.9
42037.2
42054.8
42084.2
42140.4
42196
42230.8
42240.2
42223.5
42180.8
42118.1
42041.7
41960.1
41884
41820.5
42328.2
42354.5
42376.1
42396.3
42418.5
42445.9
42481
42524.3
42574.7
42630.1
42687.2
42742.1
42791.8
42833.8
42866.1
42885.9
42889.6
42871.8
42827
42751.3
42645.5
42516
42371.4
42229.2
42110.4
42018.9
41957.2
41925.1
41915
41922.3
41935.6
41953.2
41982.6
42038.8
42094.4
42129.2
42138.6
42121.9
42079.2
42016.5
41940.1
41858.5
41782.4
41718.8
42226.6
42252.9
42274.5
42294.7
42316.9
42344.3
42379.4
42422.7
42473.1
42528.5
42585.6
42640.5
42690.2
42732.2
42764.5
42784.3
42788
42770.2
42725.4
42649.7
42543.9
42414.4
42269.8
42127.6
42008.8
41917.2
41855.6
41823.5
41813.4
41820.7
41834
41851.6
41881
41937.2
41992.8
42027.6
42037
42020.3
41977.6
41914.9
41838.5
41756.9
41680.8
41617.2
42125
42151.3
42172.9
42193
42215.3
42242.7
42277.7
42321.1
42371.5
42426.9
42484
42538.9
42588.6
42630.6
42662.9
42682.7
42686.4
42668.6
42623.8
42548.1
42442.4
42312.8
42168.2
42026
41907.1
41815.6
41753.9
41721.9
41711.8
41719.1
41732.4
41750
41779.4
41835.6
41891.2
41926
41935.4
41918.7
41876
41813.3
41736.9
41655.3
41579.2
41515.6
42023.4
42049.7
42071.3
42091.4
42113.6
42141.1
42176.1
42219.4
42269.9
42325.3
42382.4
42437.3
42487
42529
42561.3
42581.1
42584.8
42567
42522.2
42446.5
42340.8
42211.2
42066.6
41924.4
41805.5
41714
41652.3
41620.3
41610.1
41617.5
41630.8
41648.4
41677.7
41734
41789.7
41824.5
41833.8
41817.1
41774.4
41711.7
41635.3
41553.7
41477.6
41413.9
41921.8
41948.1
41969.7
41989.8
42012
42039.5
42074.5
42117.8
42168.3
42223.7
42280.8
42335.7
42385.4
42427.4
42459.7
42479.5
42483.2
42465.4
42420.7
42344.9
42239.2
42109.6
41965
41822.7
41703.9
41612.4
41550.7
41518.6
41508.5
41515.9
41529.2
41546.8
41576.1
41632.4
41688.1
41722.9
41732.3
41715.5
41672.8
41610.1
41533.7
41452.1
41376
41312.3
41820.2
41846.5
41868.1
41888.2
41910.4
41937.9
41972.9
42016.2
42066.6
42122.1
42179.2
42234.1
42283.8
42325.8
42358.1
42378
42381.6
42363.8
42319.1
42243.3
42137.6
42008
41863.4
41721.1
41602.3
41510.7
41449.1
41417
41406.9
41414.2
41427.6
41445.1
41474.5
41530.8
41586.5
41621.3
41630.7
41614
41571.3
41508.5
41432.1
41350.4
41274.3
41210.6
41718.6
41744.9
41766.5
41786.6
41808.8
41836.3
41871.3
41914.6
41965
42020.5
42077.6
42132.5
42182.2
42224.2
42256.5
42276.4
42280
42262.3
42217.5
42141.8
42036
41906.4
41761.8
41619.5
41500.6
41409.1
41347.4
41315.4
41305.3
41312.6
41326
41343.5
41372.9
41429.2
41484.9
41519.7
41529.1
41512.4
41469.7
41406.9
41330.5
41248.8
41172.7
41109
41617
41643.3
41664.9
41685
41707.2
41734.7
41769.7
41813
41863.4
41918.9
41976
42030.9
42080.6
42122.7
42154.9
42174.8
42178.5
42160.7
42115.9
42040.2
41934.4
41804.8
41660.2
41517.9
41399
41307.5
41245.8
41213.8
41203.7
41211
41224.3
41241.9
41271.3
41327.6
41383.3
41418.1
41427.5
41410.8
41368.1
41305.3
41228.9
41147.2
41071.1
41007.4
41515.4
41541.7
41563.3
41583.4
41605.6
41633.1
41668.1
41711.4
41761.8
41817.3
41874.4
41929.3
41979
42021.1
42053.4
42073.2
42076.9
42059.1
42014.4
41938.6
41832.8
41703.2
41558.5
41416.3
41297.4
41205.8
41144.2
41112.1
41102
41109.4
41122.7
41140.3
41169.7
41226
41281.7
41316.5
41325.9
41309.2
41266.5
41203.7
41127.3
41045.6
40969.5
40905.7
41413.8
41440.1
41461.7
41481.8
41504
41531.5
41566.5
41609.8
41660.2
41715.7
41772.8
41827.7
41877.4
41919.5
41951.8
41971.6
41975.3
41957.5
41912.8
41837.1
41731.3
41601.6
41456.9
41314.6
41195.7
41104.2
41042.5
41010.5
41000.4
41007.8
41021.1
41038.7
41068
41124.4
41180.1
41215
41224.4
41207.7
41164.9
41102.1
41025.7
40944
40867.9
40804.1
41312.2
41338.5
41360.1
41380.2
41402.4
41429.8
41464.9
41508.2
41558.6
41614.1
41671.2
41726.1
41775.8
41817.9
41850.2
41870
41873.7
41856
41811.2
41735.5
41629.7
41500.1
41355.3
41213
41094.1
41002.5
40940.9
40908.9
40898.8
40906.2
40919.5
40937
40966.4
41022.8
41078.5
41113.4
41122.8
41106.1
41063.4
41000.5
40924.1
40842.4
40766.2
40702.4
41159.8
41186.1
41207.7
41227.8
41250
41277.4
41312.4
41355.7
41406.2
41461.7
41518.8
41573.7
41623.4
41665.5
41697.8
41717.7
41721.4
41703.6
41658.9
41583.2
41477.3
41347.7
41202.9
41060.5
40941.6
40850.1
40788.4
40756.4
40746.4
40753.7
40767.1
40784.6
40814
40870.4
40926.2
40961
40970.5
40953.7
40911
40848.2
40771.7
40690
40613.8
40549.9
40956.7
40982.9
41004.5
41024.6
41046.7
41074.2
41109.2
41152.5
41203
41258.4
41315.6
41370.6
41420.2
41462.3
41494.6
41514.5
41518.2
41500.5
41455.8
41380
41274.2
41144.5
40999.7
40857.3
40738.3
40646.8
40585.1
40553.1
40543.1
40550.5
40563.8
40581.3
40610.7
40667.2
40723
40757.9
40767.3
40750.6
40707.9
40645
40568.5
40486.8
40410.5
40346.6
40753.5
40779.7
40801.3
40821.4
40843.5
40870.9
40906
40949.3
40999.7
41055.2
41112.4
41167.4
41217.1
41259.2
41291.5
41311.4
41315.1
41297.4
41252.7
41177
41071.1
40941.3
40796.5
40654
40535
40443.4
40381.8
40349.8
40339.8
40347.2
40360.6
40378.1
40407.4
40464
40519.9
40554.8
40564.2
40547.5
40504.7
40441.8
40365.3
40283.5
40207.3
40143.3
40550.3
40576.5
40598.1
40618.1
40640.3
40667.7
40702.7
40746
40796.5
40852
40909.2
40964.2
41013.9
41056
41088.3
41108.2
41112
41094.3
41049.6
40973.9
40868
40738.2
40593.2
40450.7
40331.7
40240.1
40178.4
40146.5
40136.5
40144
40157.3
40174.8
40204.2
40260.8
40316.7
40351.7
40361.1
40344.4
40301.6
40238.7
40162.1
40080.3
40004
39940
40347.1
40373.3
40394.9
40414.9
40437.1
40464.5
40499.5
40542.8
40593.3
40648.8
40706
40761
40810.7
40852.8
40885.2
40905.1
40908.9
40891.2
40846.6
40770.8
40664.9
40535
40390
40247.4
40128.3
40036.7
39975.1
39943.2
39933.2
39940.7
39954.1
39971.5
40000.9
40057.6
40113.6
40148.6
40158.1
40141.3
40098.5
40035.5
39959
39877.1
39800.7
39736.7
40143.9
40170.1
40191.7
40211.7
40233.8
40261.2
40296.2
40339.6
40390
40445.6
40502.8
40557.8
40607.5
40649.7
40682
40702
40705.8
40688.2
40643.5
40567.7
40461.8
40331.8
40186.8
40044.1
39925
39833.4
39771.7
39739.9
39730
39737.4
39750.8
39768.2
39797.6
39854.3
39910.4
39945.5
39955
39938.2
39895.4
39832.4
39755.8
39673.8
39597.4
39533.3
39940.8
39967
39988.5
40008.5
40030.6
40058
40093
40136.3
40186.8
40242.4
40299.6
40354.6
40404.4
40446.5
40478.9
40498.9
40502.7
40485.1
40440.5
40364.7
40258.7
40128.7
39983.5
39840.8
39721.6
39630
39568.4
39536.5
39526.6
39534.2
39547.5
39564.9
39594.3
39651.1
39707.3
39742.4
39751.9
39735.2
39692.3
39629.2
39552.6
39470.6
39394.1
39330
38454.6
38480.7
38502.1
38522
38544
38571.3
38606.2
38649.6
38700.2
38755.9
38813.3
38868.5
38918.3
38960.6
38993.1
39013.2
39017.3
38999.9
38955.4
38879.6
38773.2
38642.7
38496.9
38353.6
38234
38142.2
38080.7
38049.1
38039.2
38047.3
38060.7
38077.9
38107.3
38164.7
38221.6
38257
38266.7
38249.9
38206.7
38143.4
38066.4
37984
37907.1
37842.5
35685.9
35711.8
35732.8
35752.1
35773.6
35800.5
35835.3
35878.9
35929.9
35986.1
36044.1
36099.7
36149.9
36192.5
36225.5
36246.3
36251.2
36234.7
36190.7
36114.6
36007.2
35874.7
35726.5
35580.9
35459.9
35367.6
35306.4
35275.8
35266.9
35275.8
35289.3
35305.8
35335.3
35395
35454.4
35491.2
35501.2
35483.9
35440.3
35375.8
35297.4
35213.6
35135.1
35069.4
32917.8
32943.2
32963.5
32982
33002.7
33029.1
33063.8
33107.6
33159.1
33216.2
33275
33331.3
33382.1
33425.3
33459
33480.8
33486.9
33471.7
33428.4
33352.1
33242.9
33107.5
32955.6
32806.6
32683.5
32590.5
32529.7
32500.6
32493.3
32503.4
32517.1
32532.4
32561.8
32625.2
32688.4
32727.3
32738.1
32722.4
32675.4
32609.3
32528.8
32442.7
32362
32294.4
30150
30175
30194.3
30211.8
30231.4
30257.1
30291.5
30335.6
30388
30446.1
30506.1
30563.4
30614.9
30658.8
30693.4
30716.5
30724.3
30710.8
30668.7
30592
30480.4
30341.1
30184.3
30030.6
29904.7
29810.7
29750.6
29723.6
29718.3
29730.2
29744
29757.1
29787.5
29854.9
29923.8
29965.2
29976.7
29957.4
29912
29843.6
29760.4
29671.5
29587.6
29517.7
27382.9
27407.1
27425.3
27441.3
27459.7
27484.5
27518.5
27563
27616.4
27676
27737.3
27795.8
27848.3
27893
27928.7
27953.6
27963.5
27952.3
27911.7
27834.5
27720
27575.6
27412.4
27252.8
27123.4
27028.1
26969
26944.7
26942
26956.1
26970
26980
27011.1
27084.3
27160.7
27205.5
27218.2
27199.3
27150.7
27079.3
26992.5
26899.9
26812.1
26739
24616.3
24639.7
24656.4
24670.7
24687.5
24711
24744.7
24789.7
24844.3
24905.6
24968.8
25028.8
25082.3
25127.9
25164.9
25191.8
25204.4
25196.2
25157.5
25079.8
24961.7
24811
24640
24473.1
24339.2
24242.6
24184.8
24163.9
24164.4
24181.3
24194.5
24200.1
24233.1
24312.3
24398.4
24447.8
24461.6
24441.1
24390.8
24315.8
24224.7
24127.8
24035.3
23958.3
21850.5
21872.8
21887.7
21899.9
21914.7
21936.9
21970.1
22015.6
22071.7
22135.2
22200.5
22262.1
22316.9
22363.5
22401.9
22431.2
22447.1
22442.4
22406.3
22328.1
22205.7
22047.4
21866.9
21691.3
21552.2
21453.9
21397.9
21381.1
21385.7
21405.4
21418
21418
21453.6
21540
21638.5
21693
21708.3
21687.1
21633.1
21553.6
21457.6
21355.4
21257.2
21175.3
19085
19106.1
19119
19128.9
19141.4
19161.8
19194.4
19240.7
19298.6
19364.6
19432.4
19496
19552
19599.8
19639.7
19671.6
19691.5
19691.3
19658.2
19579.7
19452.3
19284.9
19093
18907.2
18761.8
18661.8
18608.3
18596.3
18605.8
18629.5
18642.5
18634.7
18669.5
18766.9
18879
18940.6
18957.3
18934.4
18876.9
18792.4
18690.7
18582.6
18477.7
18388.5
16321.1
16340.7
16351
16357.7
16367.4
16385.9
16417.8
16464.8
16525
16593.9
16664.6
16730.4
16787.8
16836.6
16878.2
16913.1
16937.8
16942.8
16913.6
16834.9
16701.8
16523.6
16318.3
16120.5
15967.8
15866
15815.8
15810.6
15825.3
15854.3
15862.4
15844.2
15890.5
15993.3
16123.5
16191.5
16210
16185.1
16122.9
16032.5
15924.4
15809.5
15697
15603.2
13557
13575
13582.6
13586.2
13592.8
13608.9
13639.9
13688
13750.6
13823.1
13897.1
13965.4
14024.2
14074
14117.1
14155.3
14185.4
14197.3
14172.8
14094
13954.3
13763.6
13542.5
13330.8
13169.7
13066.1
13018.4
13019.2
13041.7
13077.3
13088.2
13070.9
13105.4
13223.3
13365.8
13444.4
13464.6
13438.2
13370.7
13273.7
13158.5
13036.1
12914.7
12806
10795
10811
10815.1
10814.5
10817.4
10830.8
10860.8
10910
10975.7
11052.1
11130.1
11201.1
11261.4
11312
11356.6
11398.6
11434.9
11454.8
11436.1
11357.7
11210.6
11005.1
10765.5
10537.8
10367.2
10263.5
10223.9
10233.4
10263.1
10301.4
10315.3
10297.7
10342.1
10458.3
10615.8
10701.8
10724.3
10694.1
10620
10516
10393.2
10262.6
10131.4
10019.6
8033.73
8047.42
8047.57
8042.56
8041.17
8051.39
8080.13
8130.51
8199.69
8280.82
8363.37
8437.41
8499.07
8550.3
8596.03
8642.04
8685.09
8715.14
8704.01
8626.06
8470.72
8247.97
7986.95
7741.04
7558.27
7449.92
7413.75
7432.39
7470.9
7517.12
7542.28
7534.21
7574.38
7697.07
7862.16
7958.04
7981.13
7950.36
7870.19
7758.37
7627.93
7489.54
7347.43
7210.52
5272.5
5283.85
5280.25
5270.25
5264.08
5270.87
5298.35
5350.29
5423.48
5509.88
5597.52
5674.75
5737.71
5789.03
5835.7
5886
5937.94
5978.84
5977.49
5900.53
5735.99
5493.21
5207.19
4941.8
4748.75
4642.13
4617.33
4644.21
4687.48
4735.89
4761.43
4762.89
4811.12
4945.18
5108.64
5214.72
5240.84
5206.92
5119.04
5000.55
4864.68
4717.92
4566.4
4432.24
2589.43
2597.24
2589.55
2575.39
2565.09
2567.98
2592.66
2642.94
2715.29
2801.18
2888.39
2964.41
3025.25
3073.92
3119.61
3172.71
3232.25
3284.47
3294.99
3226.55
3064.21
2821.26
2540.15
2285.75
2107.55
2017.37
2005.68
2040.74
2088.18
2140.23
2184.49
2206.39
2243.1
2336.62
2469.29
2561.76
2587.27
2551.41
2465.57
2350.99
2224.89
2091.43
1946.81
1809.84
694.935
698.37
692.811
683.169
675.372
675.516
688.785
717.847
761.083
813.383
867.051
914.393
951.886
981.222
1009.86
1046.06
1091.09
1131.37
1146.36
1104.46
993.502
835.965
673.521
542.514
457.404
419.616
417.996
437.702
463.385
494.693
528.749
552.695
571.98
600.539
655.242
703.683
715.862
689.794
636.815
572.734
507.741
441.384
363.468
297.089
48.081
48.9059
48.4226
47.1558
46.0624
46.2018
48.4264
53.5425
61.6432
71.9388
82.8417
92.6897
100.7
107.142
113.724
122.455
134.098
146.217
149.826
135.505
102.525
65.4924
38.0663
22.9755
16.275
14.0646
14.1688
15.5248
18.4609
23.4275
29.6482
35.7214
41.1778
44.3899
50.2756
56.0028
55.7766
48.2511
37.116
26.8285
17.7031
11.937
4.90955
2.7594
-7.3883
-7.37864
-7.34274
-7.29061
-7.2369
-7.20167
-7.20549
-7.25972
-7.3558
-7.4735
-7.59358
-7.6923
-7.76105
-7.81168
-7.87196
-7.96631
-8.10282
-8.25741
-8.33942
-8.3119
-8.11606
-7.76995
-7.29895
-6.86656
-6.58017
-6.49413
-6.57794
-6.68411
-6.81782
-6.95005
-7.08337
-7.2088
-7.36095
-7.57785
-7.84045
-8.05945
-8.11483
-8.03622
-7.86079
-7.68421
-7.5202
-7.29765
-7.02194
-6.59763
-10.714
-10.7016
-10.6649
-10.6175
-10.5714
-10.5416
-10.5453
-10.594
-10.683
-10.7942
-10.9086
-11.0047
-11.0751
-11.1268
-11.1846
-11.27
-11.3848
-11.5134
-11.6013
-11.5795
-11.404
-11.0863
-10.6559
-10.2537
-9.97703
-9.84075
-9.828
-9.96554
-10.1135
-10.2762
-10.4249
-10.5524
-10.6955
-10.8864
-11.1078
-11.308
-11.3872
-11.3249
-11.174
-11.0107
-10.8786
-10.7236
-10.4562
-10.4183
-14.0071
-14.0061
-13.9818
-13.9448
-13.9083
-13.8873
-13.8966
-13.944
-14.0245
-14.1234
-14.2264
-14.3151
-14.3819
-14.4357
-14.4958
-14.5768
-14.6815
-14.7886
-14.8467
-14.804
-14.6329
-14.3509
-13.9763
-13.6246
-13.3806
-13.2898
-13.3766
-13.4153
-13.5203
-13.6416
-13.7638
-13.8841
-14.0212
-14.1996
-14.4035
-14.5746
-14.6275
-14.5716
-14.4418
-14.2948
-14.1457
-13.9491
-13.7327
-13.5142
-17.3231
-17.3207
-17.3005
-17.2703
-17.2412
-17.2261
-17.2372
-17.2812
-17.3547
-17.4461
-17.5417
-17.6254
-17.6921
-17.7489
-17.8071
-17.8812
-17.9694
-18.0571
-18.1014
-18.0577
-17.9051
-17.6516
-17.3165
-16.9998
-16.7754
-16.6679
-16.6254
-16.7267
-16.8361
-16.9649
-17.0959
-17.2189
-17.352
-17.5127
-17.6799
-17.8183
-17.8864
-17.8468
-17.7396
-17.6065
-17.4713
-17.3386
-17.1396
-17.0377
-20.6344
-20.6366
-20.622
-20.5981
-20.5752
-20.5647
-20.5779
-20.6198
-20.6872
-20.7707
-20.8589
-20.9382
-21.0023
-21.0586
-21.1161
-21.1844
-21.2615
-21.3325
-21.3627
-21.3152
-21.1713
-20.9394
-20.6439
-20.3624
-20.1601
-20.0606
-20.1027
-20.1454
-20.2261
-20.33
-20.4385
-20.5508
-20.6731
-20.8198
-20.9791
-21.1143
-21.1554
-21.1207
-21.0261
-20.9017
-20.7698
-20.6116
-20.4431
-20.3036
-23.9465
-23.9513
-23.9412
-23.9233
-23.9067
-23.9013
-23.9166
-23.9565
-24.0189
-24.0956
-24.1767
-24.251
-24.3133
-24.3689
-24.4246
-24.4867
-24.5531
-24.6105
-24.6301
-24.5803
-24.4473
-24.2383
-23.9757
-23.7234
-23.5396
-23.4445
-23.4208
-23.4693
-23.5529
-23.6573
-23.7697
-23.8822
-24.0014
-24.1354
-24.2691
-24.3776
-24.4257
-24.3985
-24.3182
-24.2053
-24.0889
-23.966
-23.8224
-23.7205
-27.2625
-27.2698
-27.2637
-27.2505
-27.2385
-27.2366
-27.253
-27.2911
-27.3488
-27.4196
-27.4947
-27.5646
-27.6248
-27.6787
-27.7322
-27.789
-27.8463
-27.8922
-27.903
-27.8519
-27.7289
-27.5393
-27.3052
-27.0791
-26.912
-26.8228
-26.8164
-26.8697
-26.9294
-27.0153
-27.1109
-27.2122
-27.3199
-27.4408
-27.5658
-27.671
-27.7073
-27.6832
-27.6129
-27.5089
-27.3978
-27.2708
-27.1296
-27.0378
-30.5783
-30.5877
-30.5851
-30.5762
-30.5688
-30.5703
-30.588
-30.6247
-30.6783
-30.7436
-30.8132
-30.879
-30.9368
-30.989
-31.0399
-31.0918
-31.1409
-31.1772
-31.1808
-31.1296
-31.0155
-30.8435
-30.634
-30.4309
-30.2787
-30.194
-30.1747
-30.1818
-30.2594
-30.3463
-30.4428
-30.5423
-30.6474
-30.7594
-30.8657
-30.9519
-30.9881
-30.969
-30.9085
-30.814
-30.7151
-30.6071
-30.4929
-30.4074
-33.8959
-33.9069
-33.9075
-33.9026
-33.8988
-33.9031
-33.9216
-33.9566
-34.0067
-34.0672
-34.1319
-34.1938
-34.2491
-34.2992
-34.3471
-34.3939
-34.4365
-34.465
-34.4629
-34.4125
-34.306
-34.15
-33.9623
-33.7798
-33.6411
-33.5618
-33.5425
-33.5843
-33.6281
-33.6998
-33.7819
-33.8709
-33.9645
-34.0642
-34.1663
-34.2446
-34.2777
-34.2607
-34.2073
-34.1208
-34.0288
-33.9248
-33.8156
-33.7407
-37.2146
-37.2272
-37.2303
-37.2286
-37.228
-37.2346
-37.2538
-37.2876
-37.3345
-37.3907
-37.451
-37.5092
-37.5618
-37.6099
-37.655
-37.6979
-37.7339
-37.7557
-37.7491
-37.6997
-37.6006
-37.4589
-37.2901
-37.1257
-36.999
-36.9243
-36.9007
-36.9087
-36.9587
-37.0312
-37.1138
-37.2002
-37.2912
-37.3859
-37.4701
-37.5374
-37.5675
-37.5537
-37.5075
-37.4291
-37.3463
-37.2545
-37.1613
-37.0903
-40.5342
-40.5479
-40.5533
-40.5545
-40.5567
-40.5654
-40.585
-40.6175
-40.6616
-40.714
-40.7701
-40.8249
-40.8749
-40.9205
-40.9626
-41.0007
-41.0322
-41.0487
-41.0386
-40.9906
-40.8983
-40.7694
-40.6175
-40.4691
-40.3534
-40.2834
-40.2597
-40.2792
-40.3274
-40.3837
-40.4525
-40.5278
-40.6088
-40.6938
-40.7742
-40.8348
-40.8629
-40.8507
-40.8096
-40.7386
-40.6625
-40.5767
-40.4908
-40.429
-43.8548
-43.8694
-43.8767
-43.8803
-43.8849
-43.8952
-43.9152
-43.9466
-43.9881
-44.037
-44.0895
-44.141
-44.1883
-44.2316
-44.2709
-44.3061
-44.3323
-44.3441
-44.3313
-44.285
-44.1991
-44.0817
-43.9444
-43.8103
-43.7045
-43.6389
-43.6139
-43.6229
-43.653
-43.7078
-43.7788
-43.8565
-43.9347
-44.0127
-44.0818
-44.1347
-44.1601
-44.1498
-44.1136
-44.0497
-43.9806
-43.904
-43.8279
-43.7692
-47.1761
-47.1914
-47.2003
-47.206
-47.2127
-47.2244
-47.2446
-47.2748
-47.3141
-47.3598
-47.4089
-47.4573
-47.502
-47.5429
-47.5794
-47.6102
-47.6333
-47.6415
-47.6268
-47.582
-47.5022
-47.3951
-47.271
-47.1497
-47.0528
-46.9914
-46.9664
-46.9742
-47.0112
-47.0606
-47.1173
-47.1835
-47.2529
-47.3238
-47.3891
-47.437
-47.4602
-47.4514
-47.4192
-47.3616
-47.2985
-47.2279
-47.1588
-47.1065
-50.498
-50.5139
-50.5242
-50.5317
-50.54
-50.5529
-50.5733
-50.6024
-50.6395
-50.6825
-50.7284
-50.7739
-50.8161
-50.8546
-50.8885
-50.9171
-50.9359
-50.941
-50.9251
-50.8816
-50.8077
-50.7099
-50.5973
-50.4873
-50.3985
-50.341
-50.3161
-50.3206
-50.3464
-50.3889
-50.4473
-50.5113
-50.5775
-50.6424
-50.6995
-50.7417
-50.7628
-50.7552
-50.7265
-50.6748
-50.6173
-50.5538
-50.4918
-50.4432
-53.8206
-53.8368
-53.8483
-53.8572
-53.867
-53.8808
-53.9012
-53.9294
-53.9646
-54.0049
-54.0479
-54.0906
-54.1304
-54.1666
-54.1979
-54.2228
-54.2395
-54.2421
-54.2254
-54.1835
-54.1149
-54.0254
-53.9232
-53.8234
-53.7419
-53.6882
-53.6637
-53.6661
-53.6904
-53.7315
-53.7811
-53.8387
-53.8982
-53.957
-54.0101
-54.0482
-54.0673
-54.0607
-54.0352
-53.9888
-53.9364
-53.8785
-53.8223
-53.7782
-57.1436
-57.1601
-57.1725
-57.1827
-57.1937
-57.2082
-57.2286
-57.2558
-57.2892
-57.3272
-57.3675
-57.4077
-57.4451
-57.479
-57.508
-57.5311
-57.5445
-57.545
-57.5278
-57.4876
-57.4239
-57.342
-57.249
-57.1581
-57.0833
-57.0332
-57.0092
-57.0097
-57.0303
-57.066
-57.1125
-57.1656
-57.2206
-57.2745
-57.3223
-57.3565
-57.3738
-57.3682
-57.3452
-57.3037
-57.2561
-57.2036
-57.1529
-57.1125
-60.4671
-60.4838
-60.4969
-60.5082
-60.5201
-60.5352
-60.5555
-60.5818
-60.6135
-60.6493
-60.6872
-60.7249
-60.7601
-60.7917
-60.8185
-60.8386
-60.8503
-60.8494
-60.8318
-60.7934
-60.7343
-60.6592
-60.5745
-60.4917
-60.4229
-60.3761
-60.3529
-60.3519
-60.3697
-60.402
-60.4442
-60.4927
-60.543
-60.5921
-60.6355
-60.6663
-60.682
-60.6771
-60.6565
-60.6193
-60.576
-60.5283
-60.4825
-60.4456
-63.791
-63.8078
-63.8214
-63.8335
-63.8463
-63.8618
-63.8819
-63.9073
-63.9375
-63.9713
-64.0069
-64.0423
-64.0753
-64.1049
-64.1296
-64.1483
-64.1575
-64.1553
-64.1374
-64.1009
-64.0461
-63.9771
-63.8998
-63.8243
-63.761
-63.7173
-63.6948
-63.6926
-63.7077
-63.7366
-63.775
-63.8193
-63.8655
-63.9103
-63.9497
-63.9775
-63.9918
-63.9876
-63.969
-63.9357
-63.8963
-63.8532
-63.8117
-63.778
-67.1153
-67.132
-67.1461
-67.1588
-67.1722
-67.188
-67.2079
-67.2325
-67.2612
-67.2931
-67.3266
-67.3599
-67.3909
-67.4185
-67.4412
-67.4573
-67.4655
-67.4623
-67.4444
-67.4098
-67.3589
-67.2954
-67.2248
-67.1558
-67.0976
-67.0568
-67.0351
-67.032
-67.0449
-67.0708
-67.1056
-67.146
-67.1883
-67.229
-67.2649
-67.29
-67.3028
-67.2993
-67.2824
-67.2527
-67.2169
-67.1778
-67.1403
-67.1096
-70.4398
-70.4565
-70.4708
-70.4841
-70.4979
-70.514
-70.5336
-70.5573
-70.5848
-70.6148
-70.6464
-70.6776
-70.7067
-70.7325
-70.7534
-70.7682
-70.7747
-70.7705
-70.7528
-70.72
-70.6727
-70.6144
-70.5497
-70.4866
-70.4329
-70.3948
-70.374
-70.3701
-70.3811
-70.4041
-70.4356
-70.4724
-70.5111
-70.5482
-70.5808
-70.6036
-70.6153
-70.6122
-70.597
-70.5704
-70.5379
-70.5025
-70.4685
-70.4405
-73.7647
-73.7811
-73.7956
-73.8093
-73.8234
-73.8396
-73.8589
-73.8818
-73.9081
-73.9365
-73.9662
-73.9956
-74.0228
-74.0468
-74.0661
-74.0791
-74.0846
-74.0796
-74.0623
-74.0314
-73.9874
-73.9337
-73.8744
-73.8166
-73.7671
-73.7315
-73.7116
-73.7071
-73.7163
-73.7368
-73.7654
-73.7989
-73.8343
-73.8679
-73.8976
-73.9182
-73.9287
-73.9261
-73.9124
-73.8885
-73.8591
-73.827
-73.7962
-73.7707
-77.0897
-77.1059
-77.1205
-77.1344
-77.1488
-77.165
-77.184
-77.2061
-77.2312
-77.2582
-77.2861
-77.3136
-77.3392
-77.3615
-77.3793
-77.3913
-77.3953
-77.3899
-77.373
-77.3438
-77.3029
-77.2534
-77.199
-77.1459
-77.1003
-77.0671
-77.048
-77.0431
-77.0508
-77.0689
-77.0946
-77.125
-77.1574
-77.188
-77.2149
-77.2337
-77.2432
-77.2411
-77.2287
-77.2073
-77.1806
-77.1515
-77.1236
-77.1003
-80.4149
-80.4309
-80.4455
-80.4595
-80.4741
-80.4902
-80.5088
-80.5302
-80.5541
-80.5797
-80.606
-80.6319
-80.6559
-80.6766
-80.693
-80.7036
-80.7068
-80.701
-80.6847
-80.6571
-80.6191
-80.5734
-80.5234
-80.4747
-80.4325
-80.4015
-80.3833
-80.378
-80.3844
-80.4004
-80.4237
-80.4513
-80.4807
-80.5086
-80.533
-80.5501
-80.5587
-80.5568
-80.5456
-80.5264
-80.5022
-80.476
-80.4507
-80.4294
-83.7403
-83.756
-83.7705
-83.7846
-83.7992
-83.8152
-83.8334
-83.8541
-83.8769
-83.9012
-83.9261
-83.9504
-83.9728
-83.9921
-84.0072
-84.0166
-84.0191
-84.013
-83.9973
-83.9713
-83.9359
-83.8937
-83.8477
-83.8029
-83.7639
-83.735
-83.7176
-83.712
-83.7172
-83.7314
-83.7523
-83.7772
-83.8041
-83.8294
-83.8516
-83.8672
-83.8749
-83.8734
-83.8633
-83.846
-83.8242
-83.8004
-83.7774
-83.7581
-87.0658
-87.0811
-87.0955
-87.1096
-87.1242
-87.1401
-87.1579
-87.1778
-87.1996
-87.2227
-87.2461
-87.269
-87.29
-87.3079
-87.3218
-87.3303
-87.332
-87.3258
-87.3107
-87.2862
-87.2533
-87.2142
-87.1719
-87.1306
-87.0946
-87.0675
-87.0509
-87.0452
-87.0494
-87.0618
-87.0806
-87.1032
-87.1277
-87.1507
-87.1708
-87.1849
-87.192
-87.1906
-87.1816
-87.166
-87.1463
-87.1247
-87.1039
-87.0863
-90.3915
-90.4064
-90.4206
-90.4346
-90.4491
-90.4648
-90.4821
-90.5013
-90.5222
-90.5441
-90.5663
-90.5878
-90.6074
-90.6241
-90.6368
-90.6444
-90.6456
-90.6394
-90.6248
-90.6018
-90.5712
-90.535
-90.496
-90.4579
-90.4246
-90.3993
-90.3835
-90.3776
-90.3809
-90.3918
-90.4087
-90.4291
-90.4512
-90.4722
-90.4904
-90.5033
-90.5097
-90.5085
-90.5004
-90.4864
-90.4685
-90.4491
-90.4302
-90.4142
-93.7172
-93.7317
-93.7457
-93.7596
-93.7739
-93.7893
-93.8062
-93.8248
-93.8447
-93.8655
-93.8865
-93.9067
-93.9251
-93.9406
-93.9523
-93.9591
-93.9598
-93.9536
-93.9397
-93.918
-93.8895
-93.856
-93.82
-93.7848
-93.7539
-93.7303
-93.7153
-93.7093
-93.7118
-93.7214
-93.7365
-93.7548
-93.775
-93.794
-93.8105
-93.8223
-93.828
-93.827
-93.8197
-93.8071
-93.791
-93.7733
-93.7562
-93.7417
-97.043
-97.0571
-97.0708
-97.0845
-97.0987
-97.1138
-97.1302
-97.1481
-97.1672
-97.187
-97.2068
-97.2258
-97.243
-97.2575
-97.2682
-97.2742
-97.2746
-97.2684
-97.2551
-97.2347
-97.2081
-97.1771
-97.1439
-97.1114
-97.0828
-97.0607
-97.0464
-97.0404
-97.0421
-97.0505
-97.0639
-97.0805
-97.0987
-97.116
-97.131
-97.1416
-97.1469
-97.1461
-97.1395
-97.1281
-97.1136
-97.0976
-97.0821
-97.0689
-100.369
-100.383
-100.396
-100.409
-100.423
-100.438
-100.454
-100.471
-100.49
-100.508
-100.527
-100.545
-100.561
-100.575
-100.585
-100.59
-100.59
-100.584
-100.571
-100.552
-100.527
-100.498
-100.468
-100.438
-100.411
-100.39
-100.377
-100.371
-100.372
-100.379
-100.391
-100.406
-100.423
-100.438
-100.452
-100.462
-100.466
-100.466
-100.46
-100.449
-100.436
-100.422
-100.408
-100.396
-103.695
-103.708
-103.721
-103.734
-103.748
-103.762
-103.778
-103.795
-103.812
-103.83
-103.848
-103.864
-103.88
-103.892
-103.901
-103.906
-103.906
-103.9
-103.888
-103.87
-103.847
-103.82
-103.791
-103.764
-103.739
-103.72
-103.707
-103.701
-103.701
-103.708
-103.718
-103.732
-103.747
-103.761
-103.773
-103.782
-103.786
-103.786
-103.78
-103.771
-103.759
-103.746
-103.733
-103.722
-107.021
-107.033
-107.046
-107.059
-107.073
-107.087
-107.102
-107.118
-107.134
-107.151
-107.168
-107.184
-107.198
-107.21
-107.218
-107.223
-107.222
-107.216
-107.205
-107.188
-107.166
-107.141
-107.115
-107.089
-107.066
-107.048
-107.036
-107.03
-107.03
-107.036
-107.045
-107.057
-107.07
-107.083
-107.094
-107.102
-107.106
-107.106
-107.101
-107.093
-107.082
-107.07
-107.059
-107.049
-110.347
-110.359
-110.371
-110.384
-110.397
-110.411
-110.425
-110.441
-110.457
-110.473
-110.489
-110.504
-110.517
-110.528
-110.535
-110.539
-110.539
-110.533
-110.522
-110.506
-110.486
-110.463
-110.439
-110.415
-110.393
-110.376
-110.365
-110.359
-110.359
-110.363
-110.372
-110.382
-110.395
-110.406
-110.416
-110.423
-110.427
-110.427
-110.422
-110.415
-110.405
-110.395
-110.384
-110.375
-113.673
-113.684
-113.696
-113.709
-113.721
-113.735
-113.749
-113.764
-113.779
-113.794
-113.809
-113.823
-113.836
-113.846
-113.853
-113.857
-113.856
-113.85
-113.84
-113.825
-113.806
-113.785
-113.762
-113.74
-113.72
-113.704
-113.693
-113.687
-113.687
-113.691
-113.698
-113.708
-113.719
-113.729
-113.738
-113.745
-113.748
-113.748
-113.744
-113.737
-113.728
-113.719
-113.709
-113.701
-116.999
-117.01
-117.022
-117.033
-117.046
-117.059
-117.072
-117.087
-117.101
-117.116
-117.13
-117.143
-117.155
-117.165
-117.171
-117.174
-117.173
-117.168
-117.158
-117.144
-117.127
-117.107
-117.086
-117.065
-117.047
-117.032
-117.021
-117.015
-117.015
-117.018
-117.024
-117.033
-117.043
-117.052
-117.06
-117.066
-117.069
-117.069
-117.066
-117.06
-117.052
-117.043
-117.034
-117.027
-120.324
-120.335
-120.347
-120.358
-120.37
-120.383
-120.396
-120.41
-120.424
-120.437
-120.451
-120.464
-120.474
-120.483
-120.489
-120.492
-120.491
-120.486
-120.477
-120.464
-120.447
-120.429
-120.409
-120.39
-120.373
-120.359
-120.349
-120.343
-120.342
-120.345
-120.35
-120.358
-120.367
-120.375
-120.383
-120.388
-120.391
-120.391
-120.388
-120.382
-120.375
-120.367
-120.359
-120.353
-123.65
-123.661
-123.672
-123.683
-123.695
-123.707
-123.719
-123.732
-123.746
-123.759
-123.772
-123.784
-123.794
-123.802
-123.808
-123.81
-123.809
-123.804
-123.796
-123.783
-123.768
-123.751
-123.733
-123.715
-123.699
-123.685
-123.676
-123.671
-123.669
-123.671
-123.676
-123.683
-123.691
-123.699
-123.705
-123.71
-123.713
-123.713
-123.71
-123.705
-123.698
-123.691
-123.684
-123.679
-126.976
-126.986
-126.997
-127.008
-127.019
-127.031
-127.043
-127.055
-127.068
-127.081
-127.093
-127.104
-127.114
-127.121
-127.127
-127.129
-127.128
-127.123
-127.115
-127.103
-127.089
-127.073
-127.056
-127.039
-127.024
-127.012
-127.003
-126.998
-126.996
-126.998
-127.002
-127.008
-127.015
-127.022
-127.028
-127.033
-127.035
-127.035
-127.032
-127.028
-127.022
-127.016
-127.009
-127.004
-130.302
-130.312
-130.322
-130.332
-130.343
-130.354
-130.366
-130.378
-130.391
-130.403
-130.414
-130.425
-130.434
-130.441
-130.446
-130.448
-130.447
-130.442
-130.434
-130.423
-130.41
-130.395
-130.379
-130.364
-130.35
-130.338
-130.33
-130.324
-130.323
-130.324
-130.328
-130.333
-130.339
-130.346
-130.351
-130.355
-130.357
-130.357
-130.355
-130.351
-130.345
-130.34
-130.334
-130.329
-133.628
-133.637
-133.647
-133.657
-133.667
-133.678
-133.69
-133.701
-133.713
-133.724
-133.735
-133.745
-133.754
-133.761
-133.765
-133.767
-133.766
-133.761
-133.754
-133.744
-133.731
-133.717
-133.703
-133.688
-133.675
-133.664
-133.656
-133.651
-133.649
-133.65
-133.653
-133.658
-133.664
-133.669
-133.674
-133.678
-133.68
-133.679
-133.677
-133.674
-133.669
-133.664
-133.659
-133.655
-136.954
-136.962
-136.972
-136.981
-136.992
-137.002
-137.013
-137.024
-137.035
-137.046
-137.057
-137.066
-137.074
-137.08
-137.084
-137.086
-137.085
-137.081
-137.074
-137.064
-137.053
-137.04
-137.026
-137.012
-137
-136.99
-136.982
-136.977
-136.975
-136.976
-136.979
-136.983
-136.988
-136.993
-136.997
-137
-137.002
-137.002
-137
-136.997
-136.993
-136.988
-136.984
-136.98
-146.804
-146.811
-146.819
-146.828
-146.837
-146.846
-146.856
-146.866
-146.875
-146.885
-146.894
-146.901
-146.908
-146.913
-146.917
-146.918
-146.917
-146.913
-146.907
-146.9
-146.89
-146.88
-146.869
-146.858
-146.848
-146.839
-146.833
-146.828
-146.826
-146.826
-146.827
-146.83
-146.833
-146.837
-146.84
-146.842
-146.843
-146.843
-146.842
-146.84
-146.837
-146.833
-146.83
-146.828
-163.176
-163.182
-163.189
-163.196
-163.203
-163.211
-163.218
-163.226
-163.234
-163.241
-163.248
-163.254
-163.259
-163.263
-163.265
-163.266
-163.265
-163.262
-163.258
-163.253
-163.246
-163.238
-163.23
-163.222
-163.215
-163.208
-163.203
-163.2
-163.197
-163.196
-163.197
-163.198
-163.2
-163.202
-163.203
-163.205
-163.205
-163.206
-163.205
-163.204
-163.202
-163.2
-163.199
-163.197
-179.548
-179.552