/*--------------------------------*- C++ -*----------------------------------*\
| =========                 |                                                 |
| \\      /  F ield         | OpenFOAM: The Open Source CFD Toolbox           |
|  \\    /   O peration     | Version:  v1912                                 |
|   \\  /    A nd           | Website:  www.openfoam.com                      |
|    \\/     M anipulation  |                                                 |
\*---------------------------------------------------------------------------*/
FoamFile
{
    version     2.0;
    format      ascii;
    class       surfaceScalarField;
    location    "90";
    object      alphaPhi0.water;
}
// * * * * * * * * * * * * * * * * * * * * * * * * * * * * * * * * * * * * * //

dimensions      [0 3 -1 0 0 0 0];
oriented        oriented;


internalField   nonuniform List<scalar> 
28285
(
-0.0258065
-0.00196938
-0.0237744
-0.00203204
-0.0216847
-0.00208973
-0.0195412
-0.00214352
-0.0173481
-0.00219312
-0.01511
-0.00223804
-0.0128313
-0.00227869
-0.0105162
-0.0023151
-0.0081677
-0.00234855
-0.00579269
-0.002375
-0.00339389
-0.00239881
-0.000975817
-0.00241807
0.00145776
-0.00243358
0.00389932
-0.00244156
0.00634479
-0.00244547
0.00878893
-0.00244414
0.0112265
-0.0024376
0.0136517
-0.0024252
0.0160584
-0.00240672
0.0184401
-0.00238166
0.0207896
-0.00234946
0.023099
-0.00230945
0.0253595
-0.00226052
0.0275616
-0.00220206
0.0296941
-0.00213252
0.031745
-0.00205084
0.0337004
-0.00195539
0.0355449
-0.00184455
0.037262
-0.00171713
0.0388329
-0.00157089
0.0402386
-0.00140561
0.0414578
-0.00121927
0.0424695
-0.00101169
0.0432516
-0.000782044
0.0437822
-0.000530621
0.0440406
-0.000258455
0.0440072
3.33814e-05
0.0436653
0.00034198
0.0430157
0.000649567
0.042036
0.000979745
0.0407127
0.00132327
0.0390475
0.0016652
0.037046
0.00200146
0.0347194
0.00232663
0.0320846
0.00263482
0.0291651
0.00291949
0.0259901
0.003175
0.0225941
0.00339602
0.019018
0.00357602
0.0153053
0.00371271
0.0115027
0.00380262
0.00765806
0.00384465
0.00381852
0.00383954
2.4727e-05
0.00379379
-0.00365496
0.00367968
-0.00720292
0.00354797
-0.0105775
0.00337457
-0.0137474
0.00316994
-0.0166875
0.00294009
-0.0193784
0.00269088
-0.0218066
0.00242815
-0.0239642
0.00215761
-0.0258488
0.00188464
-0.0274624
0.00161359
-0.0288109
0.00134848
-0.0299033
0.00109243
-0.0307512
0.00084792
-0.0313682
0.000617014
-0.0317692
0.00040096
-0.0319697
0.00020052
-0.0319857
1.59452e-05
-0.0318339
-0.00015173
-0.0315319
-0.000302054
-0.0310859
-0.000445966
-0.0305139
-0.000572005
-0.029832
-0.000681958
-0.0290524
-0.000779534
-0.0281868
-0.0008656
-0.0272457
-0.000941166
-0.0262386
-0.00100709
-0.0251745
-0.00106408
-0.0240613
-0.00111315
-0.0229068
-0.00115457
-0.0217175
-0.00118929
-0.0204999
-0.00121754
-0.0192603
-0.00123959
-0.0180039
-0.00125642
-0.0167363
-0.00126762
-0.0154624
-0.00127389
-0.0141872
-0.00127526
-0.0129149
-0.00127228
-0.0116503
-0.00126456
-0.0103977
-0.00125257
-0.00916119
-0.00123655
-0.00794548
-0.00121571
-0.00675361
-0.00119188
-0.00559098
-0.00116263
-0.00446059
-0.00113039
-0.00336661
-0.00109398
-0.00231331
-0.0010533
-0.00130309
-0.00101021
-0.000340342
-0.000962752
0.000571795
-0.000912138
0.00143049
-0.000858698
0.00223287
-0.000802374
0.00297699
-0.000744127
0.00366127
-0.000684274
0.0042846
-0.000623331
0.00484636
-0.000561764
0.00534661
-0.000500249
0.00578603
-0.000439421
0.00616577
-0.000379734
0.00648744
-0.000321676
0.00675317
-0.000265732
0.00696501
-0.000211832
0.00712516
-0.000160151
0.00723535
-0.000110197
0.00729713
-6.17736e-05
0.00731159
-1.44656e-05
0.00727941
3.21806e-05
0.00719969
7.97254e-05
0.00706983
0.000129853
0.00688565
0.000184182
0.00664352
0.000242133
0.00634244
0.000301075
0.00598308
0.000359369
0.0055677
0.000415376
0.00509971
0.000467985
0.00458376
0.000515957
0.00402632
0.000557437
0.00343702
0.000589305
0.00282651
0.000610503
0.00220596
0.000620555
0.000612986
0.00159297
-0.0256976
-0.003941
-0.023664
-0.00406557
-0.021573
-0.00418074
-0.0194286
-0.00428787
-0.0172353
-0.0043865
-0.0149966
-0.00447669
-0.0127178
-0.00455748
-0.0104027
-0.00463026
-0.00805598
-0.00469524
-0.00568068
-0.00475031
-0.00328192
-0.00479757
-0.00086495
-0.00483503
0.00156551
-0.00486404
0.00400526
-0.00488131
0.00644884
-0.00488905
0.00889092
-0.00488622
0.0113263
-0.004873
0.0137492
-0.0048481
0.0161534
-0.00481093
0.0185322
-0.00476045
0.0208783
-0.0046955
0.0231836
-0.00461481
0.0254398
-0.00451669
0.0276372
-0.00439953
0.0297653
-0.00426056
0.0318115
-0.00409705
0.0337621
-0.00390596
0.0356016
-0.00368409
0.0373133
-0.0034288
0.0388785
-0.00313615
0.040278
-0.00280511
0.0414908
-0.00243201
0.0424954
-0.00201633
0.04327
-0.00155665
0.0437928
-0.00105341
0.0440435
-0.000509145
0.0440015
7.53964e-05
0.0436502
0.000693281
0.0429911
0.00130869
0.0420014
0.00196937
0.0406681
0.0026566
0.038993
0.00334029
0.0369819
0.00401261
0.0346459
0.00466259
0.0320022
0.00527854
0.0290746
0.00584706
0.0258924
0.00635724
0.0224908
0.00679761
0.0189109
0.00715591
0.015196
0.0074276
0.011392
0.0076066
0.00754743
0.00768926
0.00370968
0.00767729
-7.39224e-05
0.0075774
-0.00375804
0.0073638
-0.00730145
0.00709138
-0.0106698
0.00674291
-0.0138324
0.00633258
-0.0167644
0.00587208
-0.0194466
0.0053731
-0.0218658
0.00484727
-0.0240142
0.00430601
-0.0258896
0.00376012
-0.0274943
0.00321822
-0.0288341
0.00268832
-0.0299183
0.00217665
-0.0307586
0.00168823
-0.0313687
0.0012271
-0.0317634
0.000795641
-0.0319583
0.000395448
-0.0319701
2.77468e-05
-0.0318136
-0.000308219
-0.0315079
-0.00060783
-0.0310584
-0.000895457
-0.0304837
-0.00114663
-0.0297997
-0.00136603
-0.0290185
-0.00156074
-0.0281516
-0.00173247
-0.0272095
-0.00188327
-0.0262018
-0.0020148
-0.0251373
-0.00212853
-0.024024
-0.00222643
-0.0228696
-0.00230901
-0.0216806
-0.00237827
-0.0204635
-0.00243465
-0.0192241
-0.00247896
-0.0179686
-0.00251192
-0.016702
-0.0025343
-0.015429
-0.00254683
-0.0141549
-0.00254942
-0.0128837
-0.00254347
-0.0116202
-0.002528
-0.010369
-0.00250385
-0.00913349
-0.00247202
-0.00791928
-0.00242992
-0.00672867
-0.00238248
-0.00556729
-0.00232402
-0.00443882
-0.00225886
-0.00334615
-0.00218665
-0.00229408
-0.00210537
-0.00128605
-0.00201824
-0.000325082
-0.00192372
0.000585686
-0.00182291
0.00144276
-0.00171578
0.00224356
-0.00160317
0.00298616
-0.00148672
0.00366896
-0.00136708
0.00429086
-0.00124523
0.00485129
-0.0011222
0.00535029
-0.000999248
0.00578856
-0.000877689
0.00616724
-0.000758419
0.00648801
-0.000642439
0.00675294
-0.000530662
0.00696408
-0.000422972
0.00712362
-0.000319688
0.00723334
-0.00021992
0.00729473
-0.000123166
0.00730879
-2.85219e-05
0.00727613
6.48351e-05
0.00719602
0.000159842
0.00706585
0.000260021
0.00688148
0.000368554
0.00663924
0.000484373
0.00633816
0.000602157
0.00597896
0.000718566
0.00556379
0.000830542
0.00509607
0.000935711
0.00458037
0.00103166
0.00402323
0.00111457
0.00343428
0.00117825
0.0028242
0.00122059
0.00220422
0.00124053
0.00122558
0.00159162
-0.0256468
-0.00591807
-0.023609
-0.00610343
-0.0215131
-0.00627662
-0.0193651
-0.00643589
-0.0171676
-0.00658397
-0.0149258
-0.0067185
-0.012643
-0.00684032
-0.0103245
-0.00694869
-0.00797486
-0.00704491
-0.00559676
-0.00712841
-0.00319495
-0.00719938
-0.000775473
-0.00725451
0.00165703
-0.00729655
0.00409877
-0.00732304
0.00654423
-0.00733451
0.00898801
-0.00733
0.0114248
-0.0073098
0.0138487
-0.00727204
0.0162537
-0.00721588
0.018633
-0.00713979
0.0209799
-0.00704239
0.0232864
-0.00692127
0.0255439
-0.00677415
0.0277425
-0.00659814
0.0298714
-0.00638951
0.0319181
-0.00614378
0.0338693
-0.0058571
0.0357089
-0.00552374
0.0374205
-0.00514042
0.0389853
-0.00470091
0.0403839
-0.00420368
0.041595
-0.00364318
0.0425974
-0.00301872
0.0433689
-0.00232815
0.0438877
-0.00157223
0.0441327
-0.000754081
0.0440843
0.00012382
0.0437259
0.00105168
0.0430582
0.00197637
0.0420592
0.00296837
0.0407152
0.00400054
0.0390287
0.00502684
0.037005
0.0060363
0.034656
0.00701162
0.0319987
0.00793583
0.0290573
0.00878841
0.0258612
0.00955334
0.0224468
0.010212
0.0188532
0.0107495
0.0151252
0.0111556
0.0113102
0.0114216
0.00745549
0.011544
0.00360951
0.0115233
-0.000178083
0.011365
-0.0038664
0.0110521
-0.0074117
0.0106367
-0.0107798
0.010111
-0.0139405
0.00949323
-0.016869
0.00880061
-0.0195465
0.00805055
-0.0219598
0.00726067
-0.0241018
0.00644797
-0.0259703
0.00562865
-0.0275677
0.00481561
-0.0289002
0.00402081
-0.0299771
0.00325357
-0.0308104
0.00252149
-0.0314136
0.00183029
-0.0318017
0.00118376
-0.0319905
0.0005842
-0.0319954
3.26381e-05
-0.0318346
-0.000468948
-0.0315244
-0.000918028
-0.0310704
-0.00134952
-0.0304921
-0.00172494
-0.0298048
-0.00205334
-0.0290207
-0.0023448
-0.0281513
-0.00260186
-0.0272071
-0.00282749
-0.0261975
-0.00302434
-0.0251316
-0.00319451
-0.0240169
-0.00334107
-0.0228613
-0.00346466
-0.0216713
-0.00356826
-0.0204534
-0.0036525
-0.0192136
-0.00371882
-0.0179578
-0.00376768
-0.0166907
-0.00380144
-0.0154177
-0.00381979
-0.0141432
-0.00382393
-0.0128721
-0.00381461
-0.0116088
-0.00379125
-0.0103575
-0.00375518
-0.00912248
-0.00370702
-0.00790828
-0.00364412
-0.00671834
-0.00357241
-0.00555714
-0.00348522
-0.00442916
-0.00338684
-0.00333668
-0.00327912
-0.00228558
-0.00315647
-0.00127797
-0.00302585
-0.000317214
-0.00288448
0.000592578
-0.0027327
0.00144906
-0.00257226
0.00224926
-0.00240337
0.00299128
-0.00222875
0.00367351
-0.00204931
0.00429489
-0.0018666
0.00485476
-0.00168207
0.00535321
-0.00149769
0.00579092
-0.0013154
0.00616908
-0.00113657
0.00648928
-0.000962644
0.00675367
-0.000795049
0.00696426
-0.000633563
0.00712328
-0.00047871
0.00723242
-0.000329057
0.00729325
-0.000184
0.00730697
-4.22437e-05
0.00727424
9.75692e-05
0.00719408
0.000239999
0.0070639
0.000390205
0.0068794
0.000553051
0.00663708
0.000726697
0.00633596
0.000903274
0.00597656
0.00107796
0.00556127
0.00124583
0.00509352
0.00140347
0.00457793
0.00154725
0.00402092
0.00167157
0.00343216
0.00176701
0.0028224
0.00183035
0.00220292
0.00186002
0.00183769
0.00159081
-0.0256241
-0.00790027
-0.0235797
-0.00814784
-0.0214782
-0.0083781
-0.0193246
-0.00858952
-0.0171217
-0.00878686
-0.0148748
-0.00896534
-0.0125881
-0.00912704
-0.0102652
-0.00927157
-0.00790958
-0.00940056
-0.00552776
-0.00951023
-0.00312406
-0.00960308
-0.000701044
-0.00967753
0.00173567
-0.00973326
0.00418057
-0.00976794
0.00662905
-0.00978299
0.00907575
-0.0097767
0.0115154
-0.0097494
0.013942
-0.00969872
0.0163497
-0.00962354
0.0187317
-0.00952184
0.0210812
-0.00939187
0.0233902
-0.00923027
0.0256503
-0.00903424
0.0278516
-0.00879948
0.0299834
-0.00852129
0.0320332
-0.00819352
0.0339874
-0.00781133
0.0358301
-0.0073664
0.0375447
-0.00685503
0.0391119
-0.00626816
0.0405126
-0.00560435
0.0417254
-0.00485599
0.0427287
-0.00402199
0.0435
-0.00309949
0.0440172
-0.00208946
0.0442589
-0.000995748
0.0442062
0.000176517
0.0438419
0.00141602
0.043166
0.00265226
0.0421575
0.0039768
0.0408021
0.00535595
0.0391025
0.00672646
0.037064
0.0080748
0.0346989
0.00937672
0.0320243
0.0106104
0.0290649
0.0117478
0.0258506
0.0127677
0.0224177
0.0136449
0.0188068
0.0143604
0.0150621
0.0149002
0.0112318
0.0152519
0.0073639
0.0154119
0.00350804
0.0153791
-0.000289144
0.0151622
-0.00398427
0.0147472
-0.00753422
0.0141866
-0.0109045
0.0134813
-0.0140651
0.0126538
-0.0169914
0.0117269
-0.0196648
0.010724
-0.0220727
0.00966855
-0.0242079
0.00858319
-0.0260689
0.00748958
-0.027658
0.00640477
-0.0289819
0.00534473
-0.0300501
0.00432177
-0.0308748
0.00334614
-0.0314697
0.00242523
-0.0318501
0.00156408
-0.0320315
0.000765682
-0.032031
3.21322e-05
-0.031863
-0.000636961
-0.0315473
-0.00123375
-0.0310876
-0.0018092
-0.0305048
-0.00230779
-0.0298134
-0.00274468
-0.0290258
-0.00313237
-0.0281533
-0.0034744
-0.0272063
-0.00377446
-0.0261944
-0.00403624
-0.0251264
-0.0042626
-0.02401
-0.00445745
-0.0228528
-0.00462184
-0.0216616
-0.00475945
-0.0204427
-0.00487144
-0.019202
-0.00495944
-0.0179453
-0.00502447
-0.0166775
-0.00506918
-0.0154038
-0.00509349
-0.014129
-0.00509875
-0.0128576
-0.00508596
-0.0115942
-0.0050547
-0.0103428
-0.00500659
-0.00910763
-0.00494217
-0.0078935
-0.00485825
-0.00670348
-0.00476243
-0.00554294
-0.00464576
-0.00441473
-0.00451504
-0.00332323
-0.00437063
-0.00227195
-0.00420775
-0.00126498
-0.00403283
-0.000304929
-0.00384453
0.000604592
-0.00364222
0.00146049
-0.00342815
0.00226005
-0.00320294
0.00300134
-0.00297004
0.00368279
-0.00273075
0.00430329
-0.0024871
0.00486235
-0.00224114
0.00536001
-0.00199534
0.00579693
-0.00175233
0.0061743
-0.00151394
0.00649377
-0.00128211
0.00675748
-0.00105876
0.00696749
-0.000843579
0.00712601
-0.000637233
0.00723485
-0.000437897
0.00729553
-0.000244677
0.00730902
-5.57286e-05
0.00727589
0.000130696
0.00719532
0.000320573
0.00706469
0.000520835
0.00687984
0.000737893
0.00663714
0.000969404
0.00633569
0.00120472
0.00597626
0.0014374
0.00556085
0.00166124
0.00509301
0.00187131
0.00457727
0.00206299
0.0040201
0.00222874
0.00343124
0.00235587
0.00282144
0.00244015
0.00220203
0.00247942
0.00244951
0.00159022
-0.025619
-0.00989025
-0.0235679
-0.010199
-0.0214596
-0.0104863
-0.0193
-0.0107491
-0.0170915
-0.0109954
-0.0148387
-0.0112181
-0.0125461
-0.0114196
-0.010218
-0.0115996
-0.00785909
-0.0117595
-0.00547198
-0.0118973
-0.00306255
-0.0120125
-0.000634933
-0.0121051
0.00180495
-0.0121731
0.00425391
-0.0122169
0.00670632
-0.0122354
0.00915684
-0.0122272
0.0116002
-0.0121928
0.0140305
-0.0121291
0.0164418
-0.0120348
0.0188275
-0.0119075
0.0211808
-0.0117451
0.0234937
-0.0115432
0.0257579
-0.0112985
0.0279637
-0.0110053
0.0301002
-0.0106578
0.0321551
-0.0102484
0.0341145
-0.00977073
0.0359628
-0.00921466
0.0376829
-0.00857513
0.0392555
-0.00784076
0.0406615
-0.0070104
0.0418787
-0.0060732
0.0428859
-0.00502912
0.04366
-0.0038736
0.044179
-0.00260842
0.0444214
-0.00123823
0.0443665
0.000231445
0.0439976
0.00178497
0.0433144
0.00333547
0.0422973
0.00499383
0.0409307
0.00672256
0.0392175
0.00843973
0.0371631
0.0101292
0.0347799
0.0117599
0.0320856
0.0133047
0.0291052
0.0147282
0.0258688
0.0160041
0.0224136
0.0171002
0.0187808
0.0179931
0.0150155
0.0186655
0.011165
0.0191024
0.00727943
0.0192975
0.00340808
0.0192505
-0.000402013
0.0189723
-0.00410727
0.0184525
-0.00766471
0.0177441
-0.0110395
0.0168562
-0.0142018
0.015816
-0.0171272
0.0146524
-0.0197975
0.0133943
-0.0222003
0.0120713
-0.0243288
0.0107118
-0.0261819
0.00934266
-0.0277625
0.00798531
-0.0290773
0.00665958
-0.0301363
0.0053807
-0.0309517
0.00416157
-0.0315376
0.00301118
-0.0319094
0.0019358
-0.0320827
0.000939045
-0.0320737
2.31424e-05
-0.0318997
-0.000810972
-0.0315779
-0.00155555
-0.0311119
-0.00227526
-0.030524
-0.00289565
-0.0298282
-0.00344053
-0.0290366
-0.00392396
-0.0281606
-0.0043504
-0.0272106
-0.00472445
-0.026196
-0.00505077
-0.0251257
-0.00533293
-0.0240074
-0.00557575
-0.0228486
-0.00578064
-0.0216559
-0.00595219
-0.0204356
-0.00609168
-0.0191939
-0.00620119
-0.017936
-0.00628231
-0.0166674
-0.00633778
-0.0153932
-0.00636773
-0.0141179
-0.00637408
-0.0128458
-0.006358
-0.0115821
-0.00631845
-0.0103305
-0.00625816
-0.00909535
-0.00617733
-0.00788131
-0.0060723
-0.00669139
-0.00595236
-0.00553051
-0.00580663
-0.00440268
-0.00564288
-0.00331137
-0.00546194
-0.00226033
-0.00525879
-0.0012537
-0.00503946
-0.000294164
-0.00480406
0.000614917
-0.0045513
0.00147026
-0.00428349
0.00226924
-0.00400192
0.00300997
-0.00371077
0.0036908
-0.00341158
0.00431069
-0.00310699
0.00486909
-0.00279955
0.00536619
-0.00249244
0.00580262
-0.00218876
0.00617955
-0.00189088
0.00649863
-0.00160119
0.00676192
-0.00132205
0.00697153
-0.00105319
0.00712964
-0.000795338
0.00723799
-0.000546249
0.00729808
-0.000304773
0.00731102
-6.86637e-05
0.00727741
0.000164308
0.00719641
0.000401567
0.00706549
0.000651762
0.00688039
0.000922986
0.00663758
0.00121221
0.00633604
0.00150626
0.00597631
0.00179713
0.00556073
0.00207682
0.00509263
0.00233941
0.00457674
0.00257888
0.00401954
0.00278594
0.00343059
0.00294482
0.00282063
0.00305011
0.00220131
0.00309874
0.003061
0.00158982
-0.0256339
-0.0118885
-0.0235753
-0.0122575
-0.0214596
-0.012602
-0.0192933
-0.0129155
-0.0170775
-0.0132113
-0.0148189
-0.0134767
-0.0125201
-0.0137184
-0.0101863
-0.0139334
-0.00782038
-0.0141254
-0.00542797
-0.0142898
-0.00301418
-0.0144263
-0.000581108
-0.0145382
0.00186465
-0.0146189
0.00431858
-0.0146708
0.00677586
-0.0146927
0.00923114
-0.0146825
0.0116792
-0.0146408
0.0141143
-0.0145641
0.0165303
-0.0144509
0.0189209
-0.0142981
0.0212792
-0.0141034
0.0235975
-0.0138615
0.0258674
-0.0135684
0.0280792
-0.0132171
0.0302222
-0.0128009
0.0322841
-0.0123102
0.0342512
-0.0117379
0.0361073
-0.0110707
0.0378356
-0.0103034
0.0394166
-0.00942173
0.0408305
-0.00842436
0.0420556
-0.00729825
0.0430694
-0.00604297
0.0438492
-0.00465339
0.0443721
-0.00313128
0.0446164
-0.00148262
0.0445619
0.000285992
0.0441906
0.00215628
0.0435009
0.00402514
0.0424763
0.00601848
0.0410987
0.00810014
0.0393712
0.0101672
0.0372998
0.0122006
0.0348968
0.0141629
0.0321805
0.016021
0.029176
0.0177327
0.0259144
0.0192657
0.0224329
0.0205818
0.0187737
0.0216523
0.0149827
0.0224566
0.0111089
0.0229761
0.00720124
0.0232052
0.00330893
0.0231428
-0.000517228
0.0227984
-0.00423576
0.022171
-0.00780327
0.0213116
-0.0111848
0.0202376
-0.0143504
0.0189816
-0.0172761
0.0175781
-0.019944
0.0160621
-0.0223421
0.0144694
-0.0244641
0.0128338
-0.0263092
0.0111878
-0.0278806
0.0095568
-0.0291858
0.00796469
-0.0302346
0.00642959
-0.03104
0.00496691
-0.0316161
0.00358725
-0.0319782
0.00229794
-0.0321425
0.00110337
-0.0321254
6.05174e-06
-0.0319433
-0.000993145
-0.0316145
-0.00188428
-0.0311413
-0.0027485
-0.0305478
-0.00348917
-0.0298469
-0.00414146
-0.0290508
-0.00472005
-0.0281708
-0.0052304
-0.0272173
-0.00567791
-0.0261998
-0.00606832
-0.0251267
-0.00640596
-0.0240061
-0.00669635
-0.0228452
-0.00694154
-0.0216508
-0.00714659
-0.0204291
-0.00731338
-0.0191861
-0.00744424
-0.0179273
-0.00754107
-0.0166578
-0.00760726
-0.0153828
-0.00764279
-0.0141067
-0.00765012
-0.0128344
-0.00763027
-0.0115701
-0.00758276
-0.0103183
-0.00751003
-0.0090829
-0.0074127
-0.00786872
-0.00728648
-0.00667869
-0.00714239
-0.00551809
-0.00696723
-0.00439042
-0.00677055
-0.00329886
-0.0065535
-0.00224868
-0.00630897
-0.00124196
-0.00604617
-0.000282945
-0.00576308
0.000625724
-0.00545997
0.00148067
-0.00513844
0.00227921
-0.00480046
0.00301942
-0.00445097
0.00369972
-0.00409189
0.00431909
-0.00372636
0.00487701
-0.00335747
0.00537354
-0.00298896
0.00580934
-0.00262457
0.00618561
-0.00226715
0.00650396
-0.00191954
0.00676667
-0.00158475
0.00697571
-0.00126223
0.00713329
-0.000952911
0.0072412
-0.000654168
0.00730102
-0.000364593
0.00731373
-8.13728e-05
0.00727989
0.000198155
0.00719861
0.000482845
0.00706736
0.000783012
0.00688193
0.00110841
0.00663857
0.00145558
0.00633641
0.00180841
0.00597629
0.00215726
0.00556041
0.00249269
0.00509214
0.00280768
0.0045764
0.00309462
0.00401915
0.00334319
0.00342985
0.00353412
0.00281972
0.00366024
0.00220039
0.00371807
0.00367201
0.00158938
-0.025668
-0.013896
-0.0236007
-0.0143249
-0.0214768
-0.0147258
-0.0193024
-0.0150898
-0.017079
-0.0154347
-0.0148122
-0.0157435
-0.0125073
-0.0160233
-0.010166
-0.0162747
-0.00779463
-0.0164968
-0.00539561
-0.0166888
-0.00297421
-0.0168477
-0.000535093
-0.0169773
0.00191646
-0.0170704
0.00437642
-0.0171308
0.00683961
-0.0171559
0.00930064
-0.0171435
0.0117546
-0.0170948
0.0141955
-0.017005
0.0166174
-0.0168728
0.0190141
-0.0166947
0.0213787
-0.0164681
0.0237036
-0.0161864
0.0259807
-0.0158455
0.0282004
-0.0154368
0.030352
-0.0149524
0.0324231
-0.0143814
0.0344002
-0.013715
0.0362668
-0.0129373
0.0380062
-0.0120428
0.0395983
-0.0110138
0.0410233
-0.00984935
0.042259
-0.0085339
0.0432826
-0.00706662
0.044071
-0.00544175
0.0446008
-0.0036611
0.0448503
-0.00173208
0.0447978
0.000338492
0.0444257
0.0025283
0.0437303
0.00472058
0.0426988
0.00704998
0.0413104
0.00948853
0.0395684
0.0119092
0.0374786
0.0142904
0.035054
0.0165875
0.0323129
0.0187621
0.029281
0.0207646
0.0259901
0.0225565
0.0224783
0.0240936
0.0187885
0.0253421
0.0149672
0.0262778
0.0110644
0.0268789
0.00712984
0.0271398
0.00321479
0.0270578
-0.000632496
0.0266457
-0.00436786
0.0259064
-0.00794853
0.0248923
-0.0113393
0.0236284
-0.0145103
0.0221526
-0.0174379
0.0205058
-0.0201044
0.0187286
-0.0224984
0.0168634
-0.024614
0.0149494
-0.0264509
0.0130247
-0.0280129
0.0111188
-0.0293077
0.00925945
-0.0303457
0.00746761
-0.0311401
0.00576132
-0.0317054
0.00415249
-0.0320571
0.00264969
-0.0322115
0.00125778
-0.0321853
-2.0184e-05
-0.0319945
-0.00118388
-0.031658
-0.00222083
-0.0311769
-0.00322964
-0.0305771
-0.00408895
-0.0298705
-0.00484804
-0.0290695
-0.00552108
-0.0281851
-0.00611474
-0.0272278
-0.00663521
-0.0262069
-0.00708922
-0.025131
-0.00748189
-0.024008
-0.00781938
-0.0228449
-0.00810457
-0.0216486
-0.00834296
-0.0204252
-0.00853674
-0.0191808
-0.00868865
-0.0179206
-0.00880127
-0.01665
-0.00887783
-0.0153741
-0.0089187
-0.0140974
-0.00892684
-0.0128242
-0.00890348
-0.0115596
-0.00884735
-0.0103072
-0.00876244
-0.00907155
-0.00864833
-0.00785707
-0.00850096
-0.00666683
-0.00833263
-0.00550642
-0.00812764
-0.00437881
-0.00789816
-0.00328712
-0.00764519
-0.00223723
-0.00735886
-0.00123041
-0.00705299
-0.000271988
-0.0067215
0.000636333
-0.00636829
0.0014908
-0.00599291
0.00228884
-0.00559849
0.00302857
-0.0051907
0.00370838
-0.0047717
0.00432721
-0.00434519
0.00488447
-0.00391474
0.00538033
-0.00348482
0.00581551
-0.00305975
0.0061912
-0.00264284
0.00650912
-0.00223746
0.00677133
-0.00184697
0.0069799
-0.00147079
0.00713714
-0.00111015
0.00724474
-0.00076177
0.00730413
-0.000423982
0.00731637
-9.36174e-05
0.00728213
0.000232392
0.00720065
0.000564326
0.00706928
0.00091439
0.00688362
0.00129406
0.0066401
0.0016991
0.00633777
0.00211075
0.0059774
0.00251763
0.00556107
0.00290903
0.0050925
0.00327625
0.00457629
0.00361083
0.00401843
0.00390105
0.00342911
0.00412345
0.00281934
0.00427
0.00220008
0.00433734
0.00428289
0.00158919
-0.0257227
-0.0159137
-0.0236454
-0.0164022
-0.0215119
-0.0168593
-0.0193287
-0.0172731
-0.0170966
-0.0176668
-0.0148228
-0.0180174
-0.0125095
-0.0183366
-0.0101607
-0.0186235
-0.00778063
-0.0188769
-0.00537382
-0.0190956
-0.00294708
-0.0192744
-0.000500274
-0.0194241
0.00195877
-0.0195295
0.00442561
-0.0195976
0.00689575
-0.019626
0.00936346
-0.0196113
0.0118242
-0.0195555
0.014272
-0.0194528
0.0167008
-0.0193016
0.0191047
-0.0190986
0.0214769
-0.0188403
0.02381
-0.0185194
0.0260958
-0.0181314
0.028325
-0.017666
0.030487
-0.0171144
0.0325697
-0.0164641
0.034559
-0.0157043
0.0364389
-0.0148172
0.0381918
-0.0137958
0.0397981
-0.0126201
0.0412372
-0.0112885
0.0424867
-0.00978333
0.0435233
-0.00810327
0.0443233
-0.0062417
0.0448631
-0.00420088
0.0451199
-0.00198895
0.045072
0.000386456
0.0447007
0.00289956
0.0440004
0.00542086
0.0429628
0.00808761
0.0415635
0.0108878
0.039806
0.0136667
0.0376964
0.0164
0.0352478
0.0190361
0.0324791
0.0215308
0.0294166
0.0238271
0.0260929
0.0258802
0.0225465
0.0276399
0.0188217
0.029067
0.0149658
0.0301337
0.011029
0.0308157
0.00706333
0.0311055
0.00312082
0.0310003
-0.000751527
0.0305181
-0.00450703
0.0296619
-0.0081036
0.0284888
-0.0115057
0.0270305
-0.0146838
0.0253307
-0.0176143
0.0234363
-0.0202801
0.0213944
-0.0226702
0.0192534
-0.0247793
0.0170585
-0.0266075
0.014853
-0.0281595
0.0126707
-0.0294431
0.0105431
-0.0304694
0.00849394
-0.031252
0.00654389
-0.0318055
0.00470594
-0.0321458
0.00299006
-0.0322893
0.00140122
-0.032253
-5.64963e-05
-0.032053
-0.00138385
-0.0317077
-0.00256617
-0.031218
-0.00371928
-0.0306114
-0.00469559
-0.0298986
-0.00556079
-0.029092
-0.00632766
-0.0282028
-0.00700394
-0.0272413
-0.00759673
-0.0262167
-0.00811382
-0.0251376
-0.00856102
-0.0240117
-0.0089453
-0.0228461
-0.00927012
-0.0216476
-0.00954148
-0.0204224
-0.00976194
-0.0191763
-0.0099347
-0.0179148
-0.0100628
-0.0166431
-0.0101496
-0.015366
-0.0101958
-0.0140884
-0.0102045
-0.0128147
-0.0101772
-0.0115494
-0.0101127
-0.0102965
-0.0100153
-0.00906042
-0.00988437
-0.00784555
-0.00971584
-0.0066554
-0.00952278
-0.00549432
-0.00928871
-0.00436684
-0.00902564
-0.00327533
-0.0087367
-0.00222562
-0.00840857
-0.00121905
-0.00805956
-0.000260964
-0.00767959
0.00064707
-0.00727632
0.00150116
-0.006847
0.00229872
-0.00639605
0.00303789
-0.00592987
0.00371705
-0.00545086
0.00433522
-0.00496335
0.00489187
-0.00447139
0.00538714
-0.00398009
0.00582174
-0.00349435
0.00619685
-0.00301796
0.00651414
-0.00255475
0.00677578
-0.00210861
0.00698387
-0.00167889
0.00714061
-0.00126688
0.00724772
-0.000868876
0.00730676
-0.000483022
0.00731892
-0.000105782
0.00728473
0.000266584
0.00720325
0.000645809
0.00707176
0.00104588
0.006886
0.00147982
0.00664214
0.00194296
0.00633925
0.00241364
0.00597816
0.00287872
0.00556139
0.00332579
0.00509239
0.00374525
0.00457571
0.00412751
0.00401795
0.0044588
0.00342904
0.00471237
0.00281967
0.00487936
0.00220053
0.00495648
0.00489391
0.00158951
-0.0257966
-0.0179425
-0.0237088
-0.01849
-0.021565
-0.0190032
-0.019372
-0.019466
-0.0171305
-0.0199083
-0.0148475
-0.0203003
-0.0125255
-0.0206586
-0.0101677
-0.0209812
-0.00778028
-0.0212643
-0.00536455
-0.0215113
-0.00292952
-0.0217095
-0.000474476
-0.0218792
0.00199241
-0.0219964
0.00446714
-0.0220724
0.00694514
-0.022104
0.00942042
-0.0220865
0.0118891
-0.0220243
0.0143447
-0.0219084
0.0167816
-0.0217385
0.019194
-0.0215111
0.0215752
-0.0212214
0.0239176
-0.0208619
0.0262136
-0.0204274
0.0284541
-0.0199064
0.0306286
-0.0192889
0.0327248
-0.0185603
0.0347288
-0.0177082
0.0366246
-0.0167131
0.0383941
-0.0155652
0.0400175
-0.0142436
0.0414739
-0.0127448
0.0427403
-0.0110497
0.0437931
-0.00915607
0.0446078
-0.0070564
0.0451605
-0.00475353
0.0454276
-0.00225603
0.0453864
0.000427608
0.0450178
0.00326814
0.0443134
0.00612526
0.0432707
0.00913031
0.0418606
0.0122979
0.0400872
0.0154401
0.0379564
0.0185309
0.035482
0.0215105
0.0326829
0.0243299
0.0295865
0.0269235
0.0262256
0.0292411
0.0226404
0.0312251
0.0188755
0.0328319
0.0149801
0.0340291
0.0110054
0.0347904
0.00700461
0.0351063
0.00302824
0.0349767
-0.000871579
0.0344179
-0.0046507
0.033441
-0.00826608
0.0321042
-0.0116821
0.0304465
-0.014869
0.0285177
-0.0178039
0.0263712
-0.0204698
0.0240603
-0.0228564
0.02164
-0.024959
0.0191611
-0.0267785
0.0166724
-0.0283198
0.014212
-0.0295917
0.0118149
-0.0306054
0.00950769
-0.0313751
0.00731361
-0.0319158
0.00524661
-0.0322438
0.00331806
-0.0323757
0.00153309
-0.0323283
-0.000103825
-0.0321184
-0.00159382
-0.0317631
-0.00292139
-0.0312645
-0.00421793
-0.0306503
-0.0053098
-0.0299307
-0.00628033
-0.0291182
-0.00714022
-0.0282238
-0.00789835
-0.0272577
-0.00856279
-0.0262291
-0.0091424
-0.0251465
-0.00964366
-0.0240175
-0.0100743
-0.0228494
-0.0104383
-0.0216486
-0.0107423
-0.0204213
-0.0109892
-0.0191735
-0.0111825
-0.0179104
-0.0113259
-0.0166374
-0.0114227
-0.0153593
-0.0114738
-0.0140807
-0.0114831
-0.0128059
-0.0114519
-0.0115399
-0.0113787
-0.0102866
-0.0112686
-0.00904997
-0.011121
-0.00783481
-0.010931
-0.00664407
-0.0107135
-0.00548331
-0.0104495
-0.00435534
-0.0101536
-0.00326432
-0.00982772
-0.00221425
-0.00945864
-0.00120797
-0.00906584
-0.000250152
-0.00863741
0.000657595
-0.00818407
0.00151129
-0.00770069
0.00230842
-0.00719319
0.00304713
-0.00666858
0.00372581
-0.00612954
0.00434346
-0.005581
0.00489956
-0.0050275
0.00539426
-0.00447478
0.00582828
-0.00392837
0.0062028
-0.00339248
0.00651954
-0.00287148
0.00678068
-0.00236975
0.00698831
-0.00188652
0.00714469
-0.00142327
0.00725161
-0.000975789
0.00731039
-0.000541805
0.007322
-0.000117394
0.00728713
0.000301461
0.00720506
0.000727878
0.00707313
0.0011778
0.00688702
0.00166593
0.00664269
0.0021873
0.0063396
0.00271672
0.00597844
0.00323988
0.00556154
0.0037427
0.00509231
0.00421448
0.0045756
0.00464422
0.00401822
0.00501619
0.00342972
0.00530087
0.0028205
0.00548859
0.00220119
0.00557579
0.00550516
0.00158994
-0.0258905
-0.0199836
-0.023791
-0.0205895
-0.0216356
-0.0211586
-0.0194324
-0.0216692
-0.0171802
-0.0221605
-0.0148866
-0.022594
-0.0125551
-0.0229901
-0.010188
-0.0233483
-0.00779245
-0.0236599
-0.00536721
-0.0239366
-0.0029226
-0.0241541
-0.000457411
-0.0243444
0.00201693
-0.0244707
0.00450027
-0.0245557
0.00698729
-0.024591
0.00947093
-0.0245702
0.0119485
-0.0245019
0.014413
-0.0243729
0.0168591
-0.0241846
0.019281
-0.023933
0.0216721
-0.0236126
0.0240254
-0.0232151
0.026333
-0.0227351
0.0285866
-0.02216
0.0307753
-0.0214776
0.0328874
-0.0206724
0.0349086
-0.0197294
0.0368227
-0.0186271
0.0386118
-0.0173543
0.0402553
-0.0158871
0.0417321
-0.0142217
0.0430186
-0.0123362
0.044091
-0.0102285
0.0449237
-0.0078891
0.0454922
-0.00532205
0.0457722
-0.00253606
0.0457404
0.000459408
0.0453763
0.00363223
0.0446687
0.00683285
0.0436216
0.0101775
0.0422008
0.0137187
0.0404107
0.0172303
0.0382572
0.0206843
0.0357546
0.0240131
0.0329224
0.0271621
0.0297884
0.0300576
0.0263867
0.0326428
0.0227582
0.0348536
0.0189486
0.0366414
0.0150088
0.0379689
0.0109914
0.0388078
0.00695044
0.0391472
0.00293709
0.03899
-0.000994738
0.0383497
-0.00480081
0.0372471
-0.00843775
0.0357412
-0.0118697
0.0338784
-0.0150671
0.0317151
-0.0180073
0.0293113
-0.0206738
0.0267269
-0.023057
0.0240232
-0.0251529
0.0212569
-0.0269629
0.0184825
-0.0284928
0.0157419
-0.0297519
0.013074
-0.030752
0.0105079
-0.031508
0.00806952
-0.0320349
0.00577358
-0.0323496
0.00363272
-0.0324687
0.0016522
-0.0324096
-0.000162969
-0.0321889
-0.00181448
-0.0318224
-0.00328785
-0.0313145
-0.00472592
-0.030692
-0.00593223
-0.0299652
-0.00700718
-0.0291462
-0.00795915
-0.0282461
-0.00879846
-0.0272751
-0.00953378
-0.0262423
-0.0101752
-0.025156
-0.01073
-0.0240238
-0.0112064
-0.0228529
-0.0116092
-0.0216497
-0.0119455
-0.0204203
-0.0122186
-0.0191706
-0.0124322
-0.0179061
-0.0125904
-0.0166317
-0.012697
-0.0153523
-0.0127532
-0.0140727
-0.0127627
-0.0127973
-0.0127273
-0.0115307
-0.0126454
-0.0102767
-0.0125225
-0.00903959
-0.0123582
-0.0078242
-0.0121464
-0.00663331
-0.0119044
-0.00547218
-0.0116106
-0.00434396
-0.0112818
-0.00325293
-0.0109188
-0.00220256
-0.010509
-0.0011966
-0.0100718
-0.000238991
-0.00959501
0.000668571
-0.00909163
0.00152189
-0.00855401
0.00231859
-0.00798989
0.00305683
-0.00740681
0.00373499
-0.00680771
0.0043521
-0.0061981
0.00490758
-0.00558298
0.00540161
-0.00496881