/*--------------------------------*- C++ -*----------------------------------*\
| =========                 |                                                 |
| \\      /  F ield         | OpenFOAM: The Open Source CFD Toolbox           |
|  \\    /   O peration     | Version:  v1912                                 |
|   \\  /    A nd           | Website:  www.openfoam.com                      |
|    \\/     M anipulation  |                                                 |
\*---------------------------------------------------------------------------*/
FoamFile
{
    version     2.0;
    format      ascii;
    class       volScalarField;
    location    "100";
    object      p;
}
// * * * * * * * * * * * * * * * * * * * * * * * * * * * * * * * * * * * * * //

dimensions      [1 -1 -2 0 0 0 0];


internalField   nonuniform List<scalar> 
14268
(
111251
110055
108890
107746
106634
105551
104502
103488
102518
101606
100772
100030
99395.8
98906
98613.3
98538.1
98645.1
98953.3
99442.3
100094
100889
101804
102819
103915
105073
106275
107507
108755
110008
111257
112495
113715
114911
116081
117221
118331
119410
120458
121476
122467
123432
124375
125298
126203
127094
127972
128838
129694
130539
131373
132194
133002
133797
134578
135342
136091
136828
137553
138270
138983
139695
140411
141133
141862
142598
143341
144085
144827
145559
146276
146971
147639
148276
148882
149458
150011
150547
151078
151613
152164
152741
153349
153994
154677
155391
156149
103782
102588
101423
100282
99170.6
98088.5
97039.9
96026.8
95055.9
94141.8
93306.4
92563.8
91928.1
91436.1
91142.3
91066.3
91175.9
91486.9
91978.8
92633.8
93431
94348.9
95366.3
96464.3
97624.1
98827.9
100061
101310
102564
103814
105053
106273
107470
108640
109780
110890
111969
113017
114035
115026
115991
116934
117856
118762
119652
120530
121397
122253
123098
123932
124753
125561
126357
127137
127901
128651
129387
130112
130828
131541
132253
132968
133689
134418
135155
135898
136643
137386
138119
138837
139533
140201
140839
141444
142020
142571
143105
143634
144168
144718
145293
145902
146546
147229
147941
148685
96319.4
95125
93960.5
92818.6
91707.4
90624.9
89575.2
88560.2
87586.2
86667.3
85826
85078
84438.2
83943.2
83647.7
83572.6
83682.1
83996.2
84492.7
85152.9
85955.4
86878.4
87900.6
89002.9
90166.5
91373.6
92609.3
93860.8
95117.1
96369.4
97609.5
98831
100029
101199
102341
103451
104530
105578
106596
107586
108551
109493
110415
111320
112211
113088
113955
114811
115657
116491
117313
118122
118918
119698
120462
121211
121947
122671
123386
124098
124808
125523
126244
126973
127711
128455
129201
129946
130681
131401
132098
132767
133405
134010
134584
135132
135664
136190
136721
137267
137841
138448
139093
139776
140492
141228
88842.6
87648.1
86483.5
85341.8
84230.7
83147.8
82096.7
81079
80100.3
79174.3
78326.1
77569.1
76922.2
76420.7
76121.4
76042.7
76159
76481.1
76985.5
77653.7
78464
79394.5
80423.6
81532.2
82701.4
83913.4
85153.4
86408.5
87668
88922.9
90165.3
91388.6
92587.9
93759.6
94901.4
96012.1
97091.2
98139
99156.8
100147
101111
102052
102974
103879
104769
105647
106513
107370
108216
109051
109873
110683
111479
112260
113024
113773
114507
115230
115944
116654
117363
118077
118797
119527
120265
121010
121759
122506
123245
123967
124666
125337
125975
126579
127151
127696
128223
128744
129270
129812
130382
130987
131633
132317
133037
133776
81363.5
80167.9
79002.2
77859.9
76748.3
75664.5
74611
73589.2
72604
71668.2
70807.4
70039.7
69384.8
68876.9
68574.1
68497.4
68613.7
68941.6
69455.1
70133.8
70954.7
71895.5
72934.2
74051.4
75228.1
76446.7
77692.4
78952.6
80216.3
81474.9
82720.4
83946.1
85147.3
86320.4
87463.3
88574.5
89653.9
90701.6
91719
92708.1
93671.4
94612
95532.8
96436.9
97326.7
98204.5
99071.6
99928.6
100775
101611
102435
103245
104042
104823
105587
106335
107068
107789
108502
109209
109916
110628
111348
112078
112817
113565
114317
115067
115810
116536
117238
117911
118549
119152
119721
120261
120783
121297
121816
122352
122917
123520
124167
124854
125579
126322
73875.6
72678.5
71511.3
70368.2
69255.7
68170.4
67114
66087.3
65094.4
64146.4
63269.7
62486.1
61818.4
61299.6
60990
60903.2
61032.4
61375
61903
62595.4
63429.5
64383
65433.5
66561.2
67747.2
68973.9
70226.8
71493.2
72762.3
74025.5
75274.7
76503.5
77707.1
78882
80026.1
81138.1
82217.7
83265.3
84282.1
85270.3
86232.7
87172.1
88092
88995.2
89884.6
90762.3
91629.6
92487.3
93335.1
94172.3
94997.2
95808.5
96606.3
97387.9
98151.6
98898.7
99630.3
100349
101059
101763
102468
103178
103897
104627
105368
106118
106874
107630
108377
109108
109814
110489
111129
111730
112294
112829
113343
113848
114358
114886
115446
116046
116693
117384
118118
118870
66382.5
65183.2
64013.9
62869.9
61756.9
60670.9
59611.4
58577.9
57574.3
56611.1
55713.6
54911.5
54230
53702.4
53389.6
53305.4
53436.9
53787.7
54328.7
55036.6
55886.6
56855.8
57920.7
59061.2
60258.5
61495
62756.5
64030.5
65306.1
66574.7
67828.4
69060.9
70267.4
71444.3
72590
73702.9
74782.8
75830.1
76846.3
77833.4
78794.3
79732.4
80651.1
81553.4
82442.2
83319.8
84187.5
85046
85895.1
86733.7
87560.1
88372.8
89171.8
89954
90717.5
91463.5
92193.2
92909.4
93615.8
94317
95018.7
95726.2
96443.5
97173.5
97916.4
98670.1
99430.9
100192
100945
101682
102393
103072
103712
104312
104872
105399
105903
106398
106897
107416
107968
108565
109213
109909
110651
111416
58881.9
57679.4
56507.4
55362
54247.6
53159.3
52095.4
51054.6
50040.8
49060.8
48138.6
47311.4
46609.4
46066.9
45746.1
45636.8
45790
46164.5
46728.8
47458.2
48327.4
49314.9
50396.6
51552
52762.3
54010.1
55281.7
56564.4
57847.5
59122.4
60381.3
61618.4
62828.3
64007.5
65155
66269.1
67349.3
68396.3
69411.6
70397.4
71356.7
72293.2
73210.3
74111.5
74999.6
75877
76745.2
77604.8
78455.3
79295.6
80123.9
80938.4
81738.7
82521.6
83284.9
84029.7
84757.2
85470.2
86172.7
86869.7
87567.5
88271.9
88987.7
89717.8
90462.9
91220.7
91987.2
92755.4
93516.3
94260.2
94977.3
95659.6
96301.2
96898.6
97453
97971.2
98464.5
98946.6
99432.4
99939.2
100483
101075
101723
102426
103179
103963
51376.2
50170.3
48995.1
47848.5
46734
45645.6
44579.2
43530.5
42501.8
41498.2
40545.4
39688.5
38963.8
38409.4
38094.7
37975.1
38147.3
38533.1
39113
39861.1
40750.8
41759.5
42860.9
44033.4
45258.5
46519.4
47802.3
49095.2
50387
51669.3
52934.2
54176.1
55389
56571.2
57721.4
58836.7
59917.3
60963.9
61978.1
62962.3
63919.8
64854.4
65769.7
66669.4
67556.7
68433.8
69302.5
70163.3
71015.5
71858.1
72688.5
73505.1
74307.1
75090.9
75854
76597.4
77322.3
78031.5
78729.3
79421.5
80114.6
80815.3
81528.9
82259.2
83006.8
83769.3
84542.6
85319
86088.7
86841.2
87565.3
88252.3
88895.6
89490.8
90038.9
90547
91026.9
91493.2
91964.3
92457.2
92989.4
93575.6
94225.5
94935.3
95701.5
96505.1
43861.8
42650.5
41470.6
40322.5
39207.9
38118.3
37046.5
35985.9
34941.8
33918.1
32934
32039.1
31283.8
30708.9
30370.6
30246.2
30428
30843
31458.1
32240
33157.4
34190.6
35314.4
36505.7
37747.5
39023
40318.6
41623
42924.4
44215.3
45485.6
46731.5
47949.8
49136.8
50289.4
51406
52486.9
53532.9
54545.8
55528.1
56483.3
57415.6
58328.8
59226.9
60113.2
60990.1
61859.5
62721.6
63575.9
64420.8
65253.9
66073
66877.2
67661.9
68424.8
69166.7
69888.6
70593.5
71285.9
71972.1
72659.8
73356.1
74067.2
74797.4
75547.5
76315.5
77096.9
77883
78663.2
79425.6
80158.1
80850.9
81496.3
82089.2
82629.7
83125.7
83590
84039
84492
84968.4
85487.5
86066.7
86716.1
87435
88217.1
89044.6
36343.8
35128.7
33945.5
32796.9
31682.5
30592.1
29518.5
28451.8
27393.8
26338.6
25306.5
24365.5
23571.9
22976.4
22645
22521.8
22738
23175
23810.4
24610.7
25547.4
26606.3
27755.9
28969
30229.4
31521.1
32830.5
34147.9
35460
36759.8
38038.1
39290.7
40514.5
41704.6
42858.8
43976.4
45057.6
46103.1
47114.6
48094.7
49047.4
49977
50887.8
51784
52669.1
53545.8
54415.9
55279.7
56136.3
56984.2
57820.5
58642.5
59449
60235
60997.8
61738
62456.4
63156.3
63842.4
64521.8
65202.9
65894.1
66602.4
67332.6
68085.7
68859.9
69650.3
70447.5
71240
72013.9
72756.4
73455.8
74103.5
74693.7
75226.8
75709
76155.3
76584.1
77015.4
77472.5
77978.1
78547.8
79196
79924.9
80725.4
81579.9
28815.3
27591.3
26399.2
25247.6
24135.5
23050.9
21978.8
20897.5
19812
18720.5
17652.7
16659.3
15824.2
15202.9
14866.9
14709.6
14941
15403.9
16083
16933
17916.9
19011.4
20191.1
21426
22705
24014
25338.1
26670
27993.6
29305.1
30592.3
31852
33077
34268.7
35426.9
36546.7
37628.8
38673.9
39684
40661.7
41611.6
42538.2
43446.3
44340.6
45224.4
46100.8
46971.7
47837.3
48696.7
49548
50387.8
51213.4
52022.7
52810.1
53573
54311.2
55025.7
55719.9
56398.7
57070.4
57744
58428.8
59133.4
59863.2
60620
61401.7
62202.7
63012.6
63819
64606.5
65360.2
66067.3
66717.8
67306.2
67830.7
68297.8
68723.4
69126.9
69533
69967.2
70453.9
71014.6
71665.2
72403.7
73225.2
74110.1
21284.5
20055.8
18863.2
17715.1
16608.2
15520.6
14437.2
13344.9
12259.9
11160.2
10049
9012.84
8133.01
7491.04
7152.5
7056.6
7287.62
7760.4
8449.83
9306.43
10287.6
11396.4
12604.7
13863.9
15166.9
16498.7
17841.6
19190
20525.5
21843.9
23142.1
24409.2
25640.1
26836.2
27993.8
29116
30199.3
31244.6
32253.3
33228.3
34174.9
35098.3
36003.5
36895.7
37778
38654.1
39526.1
40394.1
41256.9
42112.2
42956.2
43785.9
44598.6
45387.8
46150.8
46887
47597.1
48284.8
48955.4
49617.7
50282.6
50960.5
51660.6
52389.6
53149.9
53939.6
54752.6
55577.9
56400.4
57203.1
57969.8
58686.4
59341.3
59926.8
60440.5
60890.3
61292.3
61669
62046.3
62453.5
62920.8
63469.8
64118.7
64868.3
65714.2
66633.9
13760.3
12527
11325.6
10176.5
9092.38
8048.96
7069.97
6102.47
5177.18
4295.66
3438.98
2713.27
2181.34
1811.83
1620.67
1559.87
1666.5
1885.02
2218.63
2681.22
3298.21
4146.52
5177.58
6370.18
7651.02
8987.96
10343.9
11708.9
13056.4
14387.9
15695.7
16972.7
18212.9
19414.9
20574.9
21696.8
22779.4
23822.8
24828.9
25797.8
26740.2
27659.4
28560.9
29450.5
30330.8
31206.7
32079.8
32950.4
33817
34676.8
35525.6
36360.4
37176.7
37968
38731.4
39465.4
40170.7
40851
41512.1
42164
42818.7
43487.9
44182.9
44911
45675.4
46474.4
47301.1
48143.1
48983.8
49804.1
50586.1
51313.8
51974
52557
53059.9
53490.1
53866
54211.7
54556.8
54935.4
55376.7
55910
56555.4
57318.6
58192.7
59151.3
8645.13
7405.48
6215.69
5122.39
4108.77
3187.08
2365.94
1651.44
1060.73
626.644
363.056
206.644
128.551
87.8807
65.3783
56.4064
56.3727
57.5007
63.5263
87.6395
165.609
405.217
846.095
1575.87
2650.8
3918.55
5272.1
6638.23
7998.09
9342.74
10654.8
11937.3
13181.2
14387.2
15551.3
16674.7
17757.6
18799.8
19804.4
20773.8
21712.5
22627.7
23524.9
24408.2
25286.7
26162.8
27037.3
27910.3
28779.8
29643.1
30495.6
31334.5
32153.6
32946.6
33710.4
34442.9
35144.5
35819
36472.8
37116.4
37763.1
38425.7
39116.4
39843.6
40611
41417
42254.2
43109.4
43964.4
44798.3
45592.1
46328.5
46992.9
47575.2
48070
48485.2
48841.1
49163
49482.4
49834.8
50257.1
50780.7
51423.1
52195.1
53090
54078.8
5978.23
4762.01
3616.55
2603.07
1769.13
1127.99
661.452
372.56
206.486
115.181
73.9694
56.1945
53.257
52.9094
51.9718
51.6868
50.9405
50.0568
49.2671
48.9396
49.3219
55.4894
99.1829
275.121
762.043
1543.26
2695.8
3997.77
5356.03
6702.71
8017.37
9304.22
10550.5
11758.7
12923.7
14047.9
15131
16172.7
17176.4
18145.6
19082.5
19995.8
20891.1
21772.9
22649.9
23524.4
24399.6
25274.1
26145.4
27010.7
27865.4
28706.5
29527.2
30321.2
31085.1
31816.8
32516.5
33187.9
33837.6
34476.7
35119
35777.9
36466.2
37192.8
37961.7
38771.6
39614.5
40477
41339.8
42181.2
42981.5
43722.7
44389.4
44971.1
45461.6
45868.7
46213.8
46522.7
46828
47166.7
47579
48096
48736.9
49513.6
50419.7
51424.9
3384.87
2258.73
1360.9
716.574
355.534
180.947
93.2339
60.0035
53.0663
52.6497
52.1598
51.2775
50.0502
49.6026
48.6772
48.2973
47.5442
46.6295
45.7425
45.1762
44.4832
44.1776
44.1401
48.8059
88.7091
271.494
787.847
1609.09
2774.23
4065.32
5378.98
6670.4
7918.89
9129.83
10296.4
11421.5
12504.8
13545.9
14548.8
15515.9
16451
17362.5
18256
19137.7
20013.7
20887.6
21762.6
22637.1
23510.6
24378.2
25235.2
26078.7
26901.1
27696.1
28460.3
29191.2
29888.8
30557
31202.6
31837
32474.7
33129.7
33815.4
34541.2
35311.7
36125.5
36974.4
37844.6
38715.6
39564.7
40371.8
41118.1
41787.4
42368.7
42854.7
43253.3
43586.9
43882
44172.4
44497.7
44898.9
45408.4
46047.7
46829.4
47747.4
48769.7
1168.57
525.914
220.791
91.9569
55.2537
52.8582
51.5639
50.2454
49.8178
49.3237
48.8415
47.9606
46.7161
46.2408
45.3756
44.962
44.2538
43.3839
42.5324
41.8763
41.1055
40.5021
39.9037
39.68
39.6442
44.6573
88.22
293.376
828.744
1665.61
2799.32
4038.08
5285.24
6499.77
7667.82
8794.6
9878.69
10919.5
11921.4
12886.6
13819.6
14729
15620.7
16500.9
17376
18250.7
19126.2
20001.4
20876.2
21745.8
22605.3
23451.1
24275.3
25071.4
25836
26566
27261.4
27926.3
28567.5
29197
29829.9
30480.8
31163.9
31888.8
32660.9
33478.9
34333.9
35212
36091.6
36948.9
37763.1
38514.8
39186.9
39767.8
40249.1
40638.9
40960.5
41241.2
41516
41826.8
42215.9
42718.2
43355.8
44142.5
45073
46113.1
170.166
67.2288
54.5194
53.5342
50.8871
49.6622
48.2289
46.9924
46.4992
45.9773
45.4403
44.6407
43.4646
42.9392
42.1095
41.6466
40.9271
40.0799
39.2692
38.639
37.9245
37.3487
36.6399
36.114
35.5253
35.4132
35.5479
41.6013
90.3512
314.32
843.07
1647.93
2718.21
3872.14
5038.27
6167.09
7251.52
8292.26
9293.77
10257
11188.1
12095.5
12985.2
13863.9
14737.8
15612.3
16488.4
17365.8
18241.7
19113.7
19975.7
20823.8
21649.9
22447.3
23212.1
23941.3
24634.5
25295.8
25932.4
26556.7
27184.6
27831.1
28511.4
29235.5
30009.3
30831.6
31693.1
32579.5
33467.9
34333.7
35155.6
35912.8
36587.9
37168.5
37645
38025.5
38334.6
38600.2
38858.8
39154.6
39530.8
40025.5
40661
41452.8
42396.2
43455
55.9453
53.3438
51.406
49.9713
47.5499
46.3494
44.9607
43.753
43.2018
42.6714
42.1008
41.2843
40.1718
39.6258
38.8348
38.3427
37.6572
36.8275
36.0295
35.3789
34.6594
34.1034
33.4368
32.9651
32.2943
31.858
31.3103
31.336
31.8229
38.8817
89.4328
307.686
802.771
1524.9
2502.99
3548.55
4623.82
5664.68
6665.2
7626.6
8555.65
9461.23
10349
11226
12099.1
12973.3
13850
14728.4
15606.8
16481.2
17346.1
18196.8
19024.9
19823.5
20588.8
21317.1
22008
22665.6
23297.4
23916.2
24538.8
25180.9
25858.1
26581.2
27356.6
28183.4
29051.8
29947
30844.7
31719.4
32549.1
33312.2
33990.6
34571.1
35042.7
35413.6
35709.8
35959.6
36201
36480.6
36843.5
37330
37963.3
38760.2
39717.1
40795.3
52.7278
49.8128
48.0281
46.6478
44.3187
43.0504
41.6372
40.4906
39.8858
39.3345
38.7452
37.9623
36.901
36.3252
35.5632
35.043
34.355
33.5583
32.7907
32.1414
31.4536
30.8772
30.2127
29.7301
29.1087
28.7141
28.0985
27.7647
27.3326
27.3309
28.2909
35.94
81.8775
264.146
698.218
1302.79
2150.76
3075.51
4038.49
4995.95
5922.8
6825.99
7712.26
8587.41
9459.28
10333.7
11211
12091.2
12971.7
13848.9
14716.7
15570
16400.3
17200.4
17966.1
18693.5
19382
20035.7
20662.4
21275.6
21892.6
22529.9
23203.8
23925.8
24703
25534.6
26409.9
27314.3
28221.8
29105.8
29943.8
30713.1
31395
31975.6
32442.1
32803.1
33086
33319.3
33542.6
33805
34153.8
34631.8
35262.5
36064.7
37035.5
38133.9
49.3463
46.4976
44.6146
43.0649
40.8946
39.6403
38.2332
37.118
36.4671
35.8996
35.2824
34.5108
33.5033
32.9099
32.1769
31.6371
30.9695
30.184
29.4311
28.7786
28.1061
27.5338
26.8924
26.4005
25.7982
25.378
24.816
24.5046
23.9941
23.5989
23.314
23.4418
24.6293
31.8407
67.1481
193.641
527.548
990.056
1615.72
2403.07
3230.84
4097.74
4982.29
5855.89
6725.57
7600.16
8478.74
9360.61
10243.6
11123.7
11994.7
12850.9
13683.6
14485.4
15251.6
15978
16664
17313.5
17934.7
18541.7
19152.6
19784.7
20455.1
21175.9
21954.9
22791.4
23674.4
24588.8
25506.9
26400.8
27247.8
28023.9
28709.6
29290.5
29751.6
30101.8
30370.2
30585.9
30789.5
31033.6
31366.9
31835.4
32463.3
33271
34256.8
35377
45.6357
42.8816
41.0785
39.4632
37.3833
36.094
34.692
33.613
32.9218
32.3409
31.7105
30.9548
29.9919
29.3798
28.671
28.1122
27.4564
26.6936
25.9626
25.3156
24.6561
24.0809
23.4544
22.9569
22.375
21.9441
21.4122
21.0696
20.5926
20.216
19.8309
19.4867
19.1793
19.2314
19.9661
23.7141
40.4529
98.11
267.448
599.215
1021.41
1585.69
2305.16
3077.5
3902.55
4772.42
5651.85
6536.1
7421.86
8305.37
9180.09
10039.4
10874.9
11678.6
12445.4
13170.9
13854
14498.9
15114.2
15714.5
16318.8
16945.2
17611.7
18331
19112
19954
20845
21770.3
22699.9
23604.7
24461.5
25244.8
25935.1
26516.2
26971.7
27310.2
27563
27759.4
27942
28165.8
28482.2
28940.3
29564.9
30378.4
31380.3
32523.9
42.1015
39.3544
37.5019
35.824
33.853
32.5585
31.1637
30.1096
29.3837
28.7865
28.1386
27.3963
26.4776
25.8536
25.1662
24.5942
23.9473
23.2011
22.4878
21.8447
21.2016
20.63
20.0185
19.5158
18.9553
18.5156
18.0028
17.6357
17.1848
16.8103
16.4431
16.1054
15.7169
15.4039
15.1685
15.0557
15.7726
17.274
23.25
43.034
100.929
254.253
549.566
929.88
1437.86
2123.91
2888.85
3716.64
4598.82
5486.37
6364.71
7227.53
8066.62
8872.42
9640.05
10364.7
11044.8
11684.8
12293.7
12886.9
13484.2
14104.7
14767.1
15484.8
16267.7
17115.5
18015
18951.8
19893.4
20809.5
21676.6
22467.5
23162.7
23744.5
24194.1
24520.3
24756.9
24933.1
25093.8
25296
25594.4
26041.6
26662.6
27481.8
28500.5
29668.6
38.4509
35.7795
33.95
32.2196
30.3199
29.0105
27.628
26.5962
25.8442
25.2342
24.5745
23.8427
22.9609
22.327
21.6579
21.0758
20.439
19.7134
19.0171
18.3772
17.7465
17.1774
16.5804
16.0749
15.5317
15.085
14.5938
14.2147
13.7818
13.3978
13.03
12.6995
12.341
12.0441
11.7381
11.437
11.5366
11.3043
11.5568
12.3968
14.0784
19.6458
36.4016
82.3802
203.058
466.759
827.917
1311.2
1981.57
2746.69
3561.59
4415.75
5258.3
6066.49
6834.86
7558.68
8236.04
8870.95
9473.31
10059.1
10649.1
11263.3
11921.2
12637.1
13422
14275.9
15184.2
16133.1
17087.4
18015.1
18893.2
19692.1
20392.6
20975.2
21418.9
21732.3
21951.9
22107.4
22244.3
22424.1
22703.6
23139.1
23756
24581
25617.3
26811
34.8666
32.2176
30.3731
28.6101
26.7836
25.4666
24.0962
23.0812
22.3081
21.6816
21.0118
20.2899
19.442
18.8024
18.1495
17.5602
16.9317
16.2217
15.5421
14.9096
14.2908
13.7255
13.1412
12.6349
12.1065
11.6558
11.1803
10.7925
10.3732
9.98942
9.62834
9.29751
8.94295
8.64967
8.3403
8.0933
8.12566
7.81807
7.78883
7.87648
7.67703
7.91827
8.86604
10.3307
14.3726
27.0166
63.299
163.644
405.539
756.228
1214.3
1839.47
2553.72
3288
4031.75
4753.33
5427.32
6056.81
6652.07
7230.31
7812.97
8420.62
9073.99
9787.96
10574.9
11435.2
12352.5
13314.2
14281.9
15221.7
16111.4
16918.7
17624.8
18208.9
18646
18946.1
19148
19281.5
19394
19550.1
19809.5
20232.6
20845.2
21675.9
22730.4
23950.9
31.242
28.6496
26.8045
25.0134
23.2417
21.9168
20.5613
19.5631
18.7701
18.1306
17.4543
16.7404
15.9226
15.2788
14.6398
14.0465
13.4265
12.7336
12.0683
11.4411
10.8345
10.2732
9.70076
9.19574
8.67956
8.22764
7.76508
7.37202
6.9632
6.58086
6.22657
5.89676
5.55074
5.26024
4.95822
4.72434
4.7193
4.44059
4.38816
4.40772
4.17922
4.17078
4.41746
4.355
4.34125
4.94988
6.23559
9.64501
20.0971
50.6465
136.134
346.7
664.368
1053.82
1544.05
2122.57
2702.33
3271.52
3834.44
4400.35
4975.21
5576.09
6224.54
6936.76
7726.41
8593.31
9519.96
10495.2
11476.9
12429.5
13331.2
14147.4
14859.4
15445.4
15876
16162
16345.4
16456.2
16543
16674.2
16912.1
17322.2
17929.8
18766.3
19839.7
21088.1
27.6352
25.076
23.2235
21.4178
19.6968
18.3684
17.0274
16.0426
15.231
14.5808
13.8988
13.1928
12.402
11.7566
11.1297
10.5337
9.922
9.24371
8.59314
7.97349
7.37771
6.82075
6.25991
5.75689
5.25143
4.7995
4.34812
3.95252
3.55146
3.17278
2.82347
2.49466
2.15707
1.86994
1.57689
1.35485
1.3164
1.06098
1.00544
1.00529
0.805351
0.782512
0.951077
0.816775
0.623372
0.723453
0.766767
0.787685
1.24725
2.19474
4.92548
13.2558
36.8584
96.9998
233.271
466.69
736.332
1038.63
1389.72
1811.55
2284.16
2804.54
3395.81
4082.81
4875.16
5749.18
6686.25
7676.09
8672.32
9638.55
10553
11378.2
12096.5
12684.9
13108.6
13380.1
13544.3
13631.4
13691.3
13796
14011.4
14407.6
15009.8
15851.9
16945.1
18222.5
24.0156
21.503
19.6444
17.8278
16.1467
14.8171
13.4932
12.5164
11.6923
11.0323
10.3463
9.64707
8.88059
8.23518
7.61912
7.02311
6.41928
5.75543
5.11788
4.50552
3.92032
3.36838
2.81809
2.31826
1.82234
1.37185
0.929517
0.532884
0.13909
-0.235128
-0.581214
-0.907764
-1.23713
-1.52142
-1.80656
-2.01964
-2.08398
-2.31932
-2.37824
-2.39799
-2.57669
-2.60039
-2.47396
-2.5941
-2.76516
-2.7137
-2.75217
-2.90117
-2.92711
-3.04065
-3.12821
-2.85014
-2.00826
-0.0146144
5.06235
16.9361
41.9832
90.6726
179.061
328.174
525.567
768.066
1087.76
1544.39
2188.19
2960.6
3853.79
4856.08
5867.72
6847.83
7777
8611.75
9336.47
9927.75
10343.7
10600.4
10744.6
10806.9
10838.8
10916
11107.5
11488.9
12085.2
12932.5
14046.3
15354.4
20.3992
17.9235
16.0591
14.2402
12.5951
11.2657
9.95844
8.98615
8.15341
7.48473
6.79593
6.10335
5.35846
4.71474
4.10796
3.51295
2.917
2.26666
1.64194
1.03772
0.462214
-0.0840099
-0.624724
-1.12077
-1.60777
-2.05571
-2.49031
-2.88621
-3.27352
-3.64432
-3.98657
-4.31031
-4.6324
-4.91316
-5.19026
-5.3969
-5.48152
-5.69949
-5.76233
-5.79828
-5.96083
-5.98553
-5.89185
-6.00333
-6.15318
-6.12261
-6.16463
-6.28949
-6.34553
-6.52226
-6.7744
-6.90585
-6.91308
-6.92585
-6.68414
-6.09008
-5.03854
-3.28311
-0.0130324
6.19019
18.2226
43.1042
97.7421
223.459
476.87
845.83
1391.6
2193.52
3101.82
4057.81
5001.95
5846.93
6578.8
7173.98
7582.29
7822.74
7946.56
7983.36
7986.02
8034.24
8200.62
8566.4
9156.06
10008.5
11143.5
12483.6
16.7786
14.3439
12.473
10.6552
9.04003
7.71282
6.42237
5.45451
4.61433
3.93793
3.24773
2.5613
1.83576
1.19494
0.596925
0.004503
-0.583979
-1.22131
-1.8341
-2.43024
-2.99623
-3.53654
-4.06806
-4.5599
-5.03875
-5.48324
-5.91069
-6.30529
-6.68724
-7.05316
-7.39156
-7.71266
-8.02787
-8.30533
-8.57513
-8.77625
-8.87791
-9.08166
-9.14763
-9.19492
-9.34442
-9.37141
-9.30449
-9.4087
-9.54082
-9.52788
-9.57708
-9.69388
-9.75724
-9.92569
-10.1408
-10.2692
-10.3515
-10.4823
-10.5182
-10.4031
-10.2172
-10.0401
-9.73429
-9.21114
-8.50393
-7.41227
-5.40348
-0.66316
12.2935
51.3148
173.869
485.159
941.235
1570.22
2349.51
3113.68
3825.57
4423.56
4824.48
5046.99
5149.8
5160.63
5133.45
5151.15
5289.99
5638.95
6221.24
7079.35
8237.44
9610.84
13.1566
10.7595
8.88349
7.07218
5.48321
4.15908
2.88458
1.92061
1.07539
0.392234
-0.298719
-0.979227
-1.68715
-2.32403
-2.91435
-3.50344
-4.08447
-4.70939
-5.31058
-5.89852
-6.45505
-6.98917
-7.51181
-7.99934
-8.47069
-8.91096
-9.3322
-9.72429
-10.1011
-10.4623
-10.7973
-11.115
-11.4239
-11.6984
-11.961
-12.1581
-12.2718
-12.465
-12.5356
-12.5909
-12.7302
-12.7589
-12.7131
-12.8109
-12.9285
-12.9297
-12.9825
-13.0908
-13.1642
-13.3284
-13.5353
-13.6609
-13.7372
-13.8457
-13.8668
-13.7895
-13.676
-13.599
-13.4472
-13.1823
-12.9203
-12.6889
-12.4887
-12.1547
-11.5021
-10.2134
-6.34887
8.80588
62.9726
232.819
569.287
972.573
1427.19
1883.24
2214.12
2391.85
2465.44
2454.44
2407.75
2399.63
2497.47
2790.59
3313.27
4141.69
5322.48
6733.76
9.5328
7.17352
5.29244
3.49025
1.92386
0.604446
-0.654208
-1.61488
-2.46381
-3.15275
-3.84341
-4.51818
-5.21045
-5.84241
-6.42549
-7.01015
-7.58407
-8.19692
-8.78725
-9.36643
-9.91449
-10.4422
-10.9564
-11.4386
-11.9027
-12.3389
-12.7542
-13.1436
-13.5159
-13.8722
-14.2033
-14.5179
-14.8209
-15.0917
-15.3477
-15.5422
-15.6654
-15.8476
-15.923
-15.9874
-16.1165
-16.1463
-16.1219
-16.2131
-16.3177
-16.3301
-16.3854
-16.4866
-16.5667
-16.7233
-16.9134
-17.0386
-17.1186
-17.221
-17.2421
-17.1638
-17.0569
-16.973
-16.8302
-16.5939
-16.3787
-16.208
-16.1062
-15.9901
-15.8861
-15.9796
-16.1872
-15.8348
-14.6438
-9.33461
11.0012
66.6168
185.932
366.354
511.372
589.131
616.52
602.148
570.46
556.214
590.75
720.316
986.753
1528.74
2520.88
3852.96
5.90677
3.58393
1.6993
-0.0906608
-1.63717
-2.95122
-4.19433
-5.15187
-6.00282
-6.69676
-7.38679
-8.05582
-8.73377
-9.36035
-9.93668
-10.5163
-11.0831
-11.6844
-12.2641
-12.8348
-13.3744
-13.8953
-14.4013
-14.8776
-15.3356
-15.7673
-16.177
-16.5629
-16.9304
-17.282
-17.6099
-17.9207
-18.218
-18.4856
-18.7355
-18.9277
-19.0591
-19.2316
-19.3113
-19.3814
-19.5039
-19.5374
-19.525
-19.6103
-19.7105
-19.7305
-19.7864
-19.8819
-19.9676
-20.1173
-20.2938
-20.4153
-20.4942
-20.5854
-20.6053
-20.5353
-20.4371
-20.353
-20.2175
-20.0051
-19.8074
-19.6437
-19.5406
-19.4292
-19.3371
-19.4878
-19.8988
-20.3087
-20.8903
-21.3281
-20.8288
-18.8514
-13.9594
-6.06521
2.62875
9.15664
12.083
11.6363
9.95306
9.64602
13.2126
26.4963
66.0884
201.466
598.139
1362.46
2.27931
-0.00787946
-1.89541
-3.67122
-5.20001
-6.50744
-7.73571
-8.68988
-9.54228
-10.2401
-10.9286
-11.5921
-12.2571
-12.8774
-13.4476
-14.0215
-14.5815
-15.1716
-15.7411
-16.3033
-16.8342
-17.3484
-17.8469
-18.3174
-18.7689
-19.1958
-19.6003
-19.9825
-20.3457
-20.6928
-21.0167
-21.3237
-21.6161
-21.8801
-22.1242
-22.3147
-22.4518
-22.6167
-22.7007
-22.7751
-22.8908
-22.9273
-22.9286
-23.0093
-23.0998
-23.1272
-23.1868
-23.2798
-23.3674
-23.5094
-23.6748
-23.7925
-23.8715
-23.9545
-23.9705
-23.9053
-23.8126
-23.7287
-23.6011
-23.4102
-23.227
-23.074
-22.9722
-22.87
-22.8004
-22.9365
-23.2974
-23.6425
-24.3399
-25.1067
-25.5537
-25.6665
-25.3468
-24.7643
-24.067
-23.3753
-22.7003
-21.7432
-20.7249
-19.898
-19.1507
-18.3808
-16.8546
-11.9486
11.2525
154.21
-1.35018
-3.60272
-5.49167
-7.25154
-8.76447
-10.0645
-11.2788
-12.229
-13.0815
-13.7827
-14.4695
-15.1274
-15.7803
-16.3944
-16.9583
-17.5263
-18.0792
-18.6586
-19.2183
-19.7717
-20.2946
-20.8018
-21.2925
-21.7576
-22.2027
-22.6246
-23.0242
-23.4024
-23.7612
-24.1036
-24.424
-24.7273
-25.0147
-25.275
-25.5139
-25.7029
-25.8448
-26.0027
-26.0904
-26.1688
-26.2787
-26.3171
-26.3301
-26.4071
-26.4912
-26.5258
-26.5867
-26.6749
-26.7637
-26.9035
-27.0568
-27.1694
-27.2483
-27.3244
-27.3381
-27.2784
-27.191
-27.1067
-26.9846
-26.81
-26.6409
-26.498
-26.3972
-26.2975
-26.2402
-26.3759
-26.728
-27.1095
-27.7294
-28.4081
-28.8659
-29.1814
-29.2068
-28.9111
-28.467
-27.8862
-27.1787
-26.2026
-25.1773
-24.3702
-23.7781
-23.4955
-23.3038
-23.0542
-22.8762
-19.2952
-4.98113
-7.20004
-9.08928
-10.832
-12.3304
-13.6221
-14.8231
-15.7691
-16.6213
-17.3247
-18.009
-18.6614
-19.3036
-19.9108
-20.4687
-21.0303
-21.5765
-22.1454
-22.6955
-23.2401
-23.7554
-24.2556
-24.7389
-25.1981
-25.637
-26.0539
-26.4485
-26.8226
-27.1771
-27.5152
-27.8317
-28.1311
-28.4138
-28.6704
-28.9044
-29.0921
-29.2373
-29.3898
-29.4809
-29.5622
-29.6673
-29.7082
-29.7301
-29.804
-29.8836
-29.9233
-29.9852
-30.0708
-30.1615
-30.2936
-30.4376
-30.5493
-30.6258
-30.6948
-30.7069
-30.6524
-30.5704
-30.4869
-30.3702
-30.209
-30.0513
-29.917
-29.8192
-29.7253
-29.6782
-29.8098
-30.1255
-30.489
-31.1074
-31.8007
-32.2294
-32.4914
-32.4828
-32.2413
-31.8129
-31.2523
-30.5613
-29.6304
-28.6524
-27.8784
-27.3379
-27.1151
-26.9976
-26.9955
-27.7403
-29.143
-8.61385
-10.8001
-12.6882
-14.4127
-15.8977
-17.1806
-18.3687
-19.31
-20.1609
-20.866
-21.5478
-22.1946
-22.8263
-23.4262
-23.9789
-24.5339
-25.0732
-25.6319
-26.1728
-26.7092
-27.2161
-27.7094
-28.1855
-28.6389
-29.0718
-29.4835
-29.8733
-30.2431
-30.5934
-30.927
-31.2397
-31.5352
-31.8135
-32.0663
-32.2958
-32.4824
-32.6301
-32.7778
-32.8717
-32.9556
-33.0565
-33.1002
-33.1295
-33.2004
-33.2765
-33.3205
-33.3832
-33.4665
-33.5575
-33.6843
-33.8204
-33.9269
-34.0025
-34.0677
-34.0778
-34.0274
-33.95
-33.868
-33.7564
-33.6061
-33.4589
-33.3322
-33.2375
-33.1509
-33.1137
-33.2436
-33.5428
-33.8967
-34.4832
-35.1125
-35.5494
-35.8046
-35.7892
-35.5386
-35.1233
-34.5733
-33.8967
-33.0077
-32.0781
-31.3414
-30.8518
-30.6657
-30.5572
-30.5508
-31.3016
-32.8738
-12.2481
-14.4026
-16.2882
-17.9939
-19.4663
-20.7397
-21.9152
-22.8518
-23.7009
-24.4068
-25.0855
-25.7266
-26.3492
-26.942
-27.4886
-28.0368
-28.5695
-29.1185
-29.6503
-30.1777
-30.6771
-31.1634
-31.6325
-32.08
-32.507
-32.9135
-33.2985
-33.6639
-34.01
-34.3393
-34.6482
-34.9399
-35.2137
-35.4627
-35.6882
-35.8735
-36.0227
-36.1666
-36.263
-36.3489
-36.4463
-36.4927
-36.5283
-36.5968
-36.6698
-36.7174
-36.7809
-36.8623
-36.953
-37.0745
-37.203
-37.3061
-37.3799
-37.4398
-37.4508
-37.404
-37.3303
-37.2502
-37.1429
-37.0021
-36.8643
-36.7444
-36.6533
-36.5747
-36.5468
-36.675
-36.9567
-37.3026
-37.8653
-38.4693
-38.8787
-39.0955
-39.0751
-38.8379
-38.4384
-37.9092
-37.251
-36.401
-35.5154
-34.8127
-34.3569
-34.2021
-34.0997
-34.1169
-34.8242
-36.353
-15.884
-18.0076
-19.8894
-21.5758
-23.0361
-24.2995
-25.4629
-26.3945
-27.2408
-27.9471
-28.6226
-29.2581
-29.8715
-30.4571
-30.9979
-31.5394
-32.0653
-32.6046
-33.1276
-33.6468
-34.1388
-34.6177
-35.0797
-35.5213
-35.9427
-36.3439
-36.724
-37.0851
-37.427
-37.7519
-38.057
-38.3449
-38.6144
-38.8598
-39.0814
-39.2653
-39.4154
-39.5561
-39.6549
-39.7424
-39.8366
-39.8855
-39.9264
-39.9932
-40.0636
-40.114
-40.1779
-40.258
-40.348
-40.4645
-40.5861
-40.6856
-40.7576
-40.814
-40.8232
-40.7799
-40.7128
-40.6341
-40.5297
-40.3973
-40.2678
-40.1542
-40.0674
-39.9967
-39.9777
-40.1045
-40.372
-40.7089
-41.2425
-41.8114
-42.2062
-42.4135
-42.3776
-42.1447
-41.757
-41.2417
-40.6025
-39.794
-38.9531
-38.2847
-37.8577
-37.7323
-37.6326
-37.6624
-38.3486
-39.8339
-19.5214
-21.615
-23.4916
-25.1583
-26.607
-27.8601
-29.0113
-29.9379
-30.7811
-31.4868
-32.1587
-32.7886
-33.3938
-33.9718
-34.5068
-35.0415
-35.5607
-36.091
-36.6052
-37.1157
-37.6
-38.0723
-38.5275
-38.9629
-39.3785
-39.7746
-40.15
-40.5066
-40.8443
-41.165
-41.4662
-41.7502
-42.0156
-42.2574
-42.4753
-42.6578
-42.8084
-42.9465
-43.0471
-43.136
-43.2276
-43.2789
-43.3238
-43.3893
-43.4578
-43.5104
-43.5747
-43.6534
-43.7424
-43.8543
-43.9698
-44.0656
-44.1358
-44.1886
-44.1971
-44.1585
-44.0934
-44.0161
-43.9167
-43.7915
-43.67
-43.5634
-43.4819
-43.4179
-43.406
-43.5322
-43.7874
-44.1147
-44.6216
-45.1561
-45.5304
-45.7205
-45.6828
-45.459
-45.0841
-44.5834
-43.9643
-43.1937
-42.3948
-41.7585
-41.358
-41.2567
-41.1664
-41.2027
-41.8769
-43.3018
-23.1603
-25.2248
-27.0949
-28.7417
-30.1789
-31.4214
-32.5608
-33.482
-34.3214
-35.0262
-35.6943
-36.3184
-36.9157
-37.4863
-38.0155
-38.5432
-39.0556
-39.5766
-40.0825
-40.5849
-41.0619
-41.527
-41.9754
-42.405
-42.8149
-43.2056
-43.5763
-43.9286
-44.262
-44.5784
-44.8758
-45.156
-45.4173
-45.6555
-45.8699
-46.0509
-46.2017
-46.3377
-46.4397
-46.5296
-46.6189
-46.6727
-46.721
-46.7854
-46.8524
-46.9068
-46.9712
-47.0486
-47.1364
-47.244
-47.3539
-47.446
-47.5142
-47.564
-47.5721
-47.5367
-47.4756
-47.4004
-47.3045
-47.1861
-47.0711
-46.97
-46.8932
-46.8368
-46.8345
-46.9591
-47.2026
-47.5194
-47.9995
-48.5008
-48.8563
-49.0324
-48.9921
-48.7763
-48.4144
-47.9299
-47.3316
-46.5985
-45.8396
-45.2337
-44.8573
-44.7732
-44.6951
-44.7519
-45.4079
-46.773
-26.8007
-28.8368
-30.6991
-32.326
-33.7519
-34.9833
-36.1111
-37.0268
-37.862
-38.5651
-39.2292
-39.8474
-40.4372