/*--------------------------------*- C++ -*----------------------------------*\
| =========                 |                                                 |
| \\      /  F ield         | OpenFOAM: The Open Source CFD Toolbox           |
|  \\    /   O peration     | Version:  v1912                                 |
|   \\  /    A nd           | Website:  www.openfoam.com                      |
|    \\/     M anipulation  |                                                 |
\*---------------------------------------------------------------------------*/
FoamFile
{
    version     2.0;
    format      ascii;
    class       volScalarField;
    location    "100";
    object      k;
}
// * * * * * * * * * * * * * * * * * * * * * * * * * * * * * * * * * * * * * //

dimensions      [0 2 -2 0 0 0 0];


internalField   nonuniform List<scalar> 
14268
(
2.21569e-10
2.27209e-10
2.35868e-10
2.42968e-10
2.46062e-10
2.45392e-10
2.42659e-10
2.39279e-10
2.35561e-10
2.31673e-10
2.27479e-10
2.2301e-10
2.1896e-10
2.14512e-10
2.09759e-10
2.05971e-10
2.0304e-10
1.99554e-10
1.95965e-10
1.91839e-10
1.8803e-10
1.83539e-10
1.78068e-10
1.71761e-10
1.63735e-10
1.60823e-10
1.58262e-10
1.54828e-10
1.51396e-10
1.4888e-10
1.46075e-10
1.42459e-10
1.38202e-10
1.3354e-10
1.27562e-10
1.20318e-10
1.16126e-10
1.15841e-10
1.17473e-10
1.22191e-10
1.32671e-10
1.58302e-10
3.66809e-10
2.79475e-10
3.9126e-09
3.97022e-09
4.03856e-09
4.07663e-09
4.0759e-09
4.03517e-09
3.95974e-09
3.8966e-09
3.83725e-09
3.78022e-09
3.72208e-09
3.66118e-09
3.60231e-09
3.54033e-09
3.48487e-09
3.43427e-09
3.4025e-09
3.36893e-09
3.32998e-09
3.27718e-09
3.21309e-09
3.13401e-09
3.03812e-09
2.92992e-09
2.80384e-09
2.73497e-09
2.67513e-09
2.60742e-09
2.54867e-09
2.49811e-09
2.44245e-09
2.37359e-09
2.29254e-09
2.20478e-09
2.10589e-09
1.99369e-09
1.89499e-09
1.83958e-09
1.84377e-09
1.88835e-09
2.01066e-09
2.31381e-09
4.34144e-09
1.31466e-08
1.50109e-08
1.51616e-08
1.53395e-08
1.54305e-08
1.54174e-08
1.52864e-08
1.50515e-08
1.48558e-08
1.46765e-08
1.45084e-08
1.43396e-08
1.41661e-08
1.39989e-08
1.38216e-08
1.36656e-08
1.35015e-08
1.3399e-08
1.32906e-08
1.31582e-08
1.29771e-08
1.2744e-08
1.24547e-08
1.21119e-08
1.17409e-08
1.13253e-08
1.11026e-08
1.0892e-08
1.06548e-08
1.04389e-08
1.02389e-08
1.00148e-08
9.73606e-09
9.41119e-09
9.07211e-09
8.71596e-09
8.33124e-09
7.93291e-09
7.64787e-09
7.64002e-09
7.76333e-09
8.15539e-09
9.0786e-09
1.44793e-08
2.82099e-08
2.6298e-08
2.64294e-08
2.65832e-08
2.66619e-08
2.66576e-08
2.65583e-08
2.63662e-08
2.61945e-08
2.60344e-08
2.58851e-08
2.57348e-08
2.55797e-08
2.54303e-08
2.52698e-08
2.513e-08
2.49742e-08
2.48783e-08
2.47758e-08
2.465e-08
2.44754e-08
2.42431e-08
2.39475e-08
2.35953e-08
2.32177e-08
2.2797e-08
2.25736e-08
2.23435e-08
2.2072e-08
2.1804e-08
2.15433e-08
2.12408e-08
2.08537e-08
2.03933e-08
1.99099e-08
1.9412e-08
1.8889e-08
1.83016e-08
1.7719e-08
1.76767e-08
1.78328e-08
1.83532e-08
1.95456e-08
2.35895e-08
2.19219e-08
3.27886e-08
3.28683e-08
3.29662e-08
3.30203e-08
3.30208e-08
3.29723e-08
3.28699e-08
3.27663e-08
3.26693e-08
3.25745e-08
3.24775e-08
3.23821e-08
3.23004e-08
3.22101e-08
3.21339e-08
3.20355e-08
3.19751e-08
3.19093e-08
3.18275e-08
3.1715e-08
3.15644e-08
3.13793e-08
3.11675e-08
3.09487e-08
3.07041e-08
3.05791e-08
3.04389e-08
3.0256e-08
3.00751e-08
2.9909e-08
2.9718e-08
2.94739e-08
2.91774e-08
2.88575e-08
2.85177e-08
2.81593e-08
2.77476e-08
2.72808e-08
2.72334e-08
2.73203e-08
2.76926e-08
2.85827e-08
3.02959e-08
1.93717e-08
3.57609e-08
3.58098e-08
3.58692e-08
3.59033e-08
3.59104e-08
3.58977e-08
3.58629e-08
3.58194e-08
3.57716e-08
3.57295e-08
3.56841e-08
3.56364e-08
3.55952e-08
3.555e-08
3.55173e-08
3.54635e-08
3.54316e-08
3.53994e-08
3.53619e-08
3.53093e-08
3.52383e-08
3.51484e-08
3.50486e-08
3.49555e-08
3.48478e-08
3.4797e-08
3.4736e-08
3.46549e-08
3.45647e-08
3.4475e-08
3.43669e-08
3.42365e-08
3.40853e-08
3.3928e-08
3.37717e-08
3.36194e-08
3.34362e-08
3.3187e-08
3.31566e-08
3.31933e-08
3.34056e-08
3.41765e-08
3.35311e-08
1.54274e-08
3.68679e-08
3.68865e-08
3.69189e-08
3.69505e-08
3.69703e-08
3.69764e-08
3.69751e-08
3.69681e-08
3.69607e-08
3.69446e-08
3.69124e-08
3.68749e-08
3.68678e-08
3.68589e-08
3.68588e-08
3.68465e-08
3.6837e-08
3.68257e-08
3.68165e-08
3.68114e-08
3.68017e-08
3.67884e-08
3.67735e-08
3.67615e-08
3.67431e-08
3.6757e-08
3.677e-08
3.67584e-08
3.67309e-08
3.67072e-08
3.66821e-08
3.66562e-08
3.66246e-08
3.65928e-08
3.65654e-08
3.65455e-08
3.6513e-08
3.64288e-08
3.64003e-08
3.63981e-08
3.64709e-08
3.70379e-08
3.76892e-08
2.01797e-08
3.72601e-08
3.72855e-08
3.7316e-08
3.73415e-08
3.7357e-08
3.73646e-08
3.73697e-08
3.73838e-08
3.7382e-08
3.73758e-08
3.73674e-08
3.7368e-08
3.73716e-08
3.73669e-08
3.73718e-08
3.73684e-08
3.737e-08
3.7374e-08
3.73811e-08
3.7389e-08
3.74038e-08
3.74244e-08
3.745e-08
3.74835e-08
3.75065e-08
3.75423e-08
3.75827e-08
3.76185e-08
3.76437e-08
3.76614e-08
3.76769e-08
3.77072e-08
3.77524e-08
3.78042e-08
3.78713e-08
3.79647e-08
3.80251e-08
3.80453e-08
3.80554e-08
3.80109e-08
3.80317e-08
3.86263e-08
4.08805e-08
2.50374e-08
3.74266e-08
3.74416e-08
3.7465e-08
3.74894e-08
3.75147e-08
3.75346e-08
3.75567e-08
3.75669e-08
3.75675e-08
3.75716e-08
3.75645e-08
3.7551e-08
3.75572e-08
3.75709e-08
3.75953e-08
3.75939e-08
3.75956e-08
3.75982e-08
3.76027e-08
3.76118e-08
3.76299e-08
3.76624e-08
3.77105e-08
3.77712e-08
3.78202e-08
3.78863e-08
3.79502e-08
3.79763e-08
3.80003e-08
3.80323e-08
3.80768e-08
3.81482e-08
3.82442e-08
3.83483e-08
3.8474e-08
3.86317e-08
3.87456e-08
3.88526e-08
3.88509e-08
3.87579e-08
3.87443e-08
3.94518e-08
4.31992e-08
3.29254e-08
3.7485e-08
3.74936e-08
3.75087e-08
3.7533e-08
3.75705e-08
3.76022e-08
3.76018e-08
3.75969e-08
3.7592e-08
3.75914e-08
3.75928e-08
3.76006e-08
3.76202e-08
3.76275e-08
3.76394e-08
3.76456e-08
3.76568e-08
3.76715e-08
3.76927e-08
3.77241e-08
3.77658e-08
3.78186e-08
3.78838e-08
3.79618e-08
3.80079e-08
3.80601e-08
3.81123e-08
3.81625e-08
3.82097e-08
3.82574e-08
3.83082e-08
3.8386e-08
3.84901e-08
3.8601e-08
3.8729e-08
3.88964e-08
3.90555e-08
3.91978e-08
3.92065e-08
3.90986e-08
3.90862e-08
3.99888e-08
4.48864e-08
4.1215e-08
3.74333e-08
3.74466e-08
3.74677e-08
3.74914e-08
3.75192e-08
3.75515e-08
3.75836e-08
3.7621e-08
3.76387e-08
3.76396e-08
3.76332e-08
3.76237e-08
3.76248e-08
3.76258e-08
3.76408e-08
3.76357e-08
3.76372e-08
3.76453e-08
3.76609e-08
3.76865e-08
3.77296e-08
3.77843e-08
3.78429e-08
3.79048e-08
3.79565e-08
3.80226e-08
3.81053e-08
3.8172e-08
3.82196e-08
3.827e-08
3.83287e-08
3.84142e-08
3.85298e-08
3.86635e-08
3.88256e-08
3.90309e-08
3.92149e-08
3.93926e-08
3.93977e-08
3.92753e-08
3.92822e-08
4.04695e-08
4.66039e-08
5.14194e-08
3.75458e-08
3.75561e-08
3.75751e-08
3.75985e-08
3.76254e-08
3.76532e-08
3.76854e-08
3.7694e-08
3.76923e-08
3.76846e-08
3.76615e-08
3.76539e-08
3.76629e-08
3.76742e-08
3.76929e-08
3.76997e-08
3.77132e-08
3.77267e-08
3.77431e-08
3.7765e-08
3.77916e-08
3.78322e-08
3.78946e-08
3.79775e-08
3.80418e-08
3.8123e-08
3.81868e-08
3.82285e-08
3.82754e-08
3.83297e-08
3.83937e-08
3.8486e-08
3.86061e-08
3.87364e-08
3.88844e-08
3.90634e-08
3.92436e-08
3.94153e-08
3.94239e-08
3.9305e-08
3.93439e-08
4.08643e-08
4.89812e-08
6.06324e-08
3.74894e-08
3.75275e-08
3.75774e-08
3.76288e-08
3.76567e-08
3.7661e-08
3.76462e-08
3.76365e-08
3.76267e-08
3.76259e-08
3.76222e-08
3.76161e-08
3.76161e-08
3.76173e-08
3.76289e-08
3.76314e-08
3.76345e-08
3.76431e-08
3.76589e-08
3.76823e-08
3.77209e-08
3.77671e-08
3.78193e-08
3.78829e-08
3.79457e-08
3.80184e-08
3.80952e-08
3.81524e-08
3.82021e-08
3.82572e-08
3.83243e-08
3.84263e-08
3.85621e-08
3.87122e-08
3.88817e-08
3.90919e-08
3.928e-08
3.94658e-08
3.94757e-08
3.93677e-08
3.94642e-08
4.15088e-08
5.20968e-08
7.06667e-08
3.81107e-08
3.82154e-08
3.83469e-08
3.84585e-08
3.85113e-08
3.84845e-08
3.83932e-08
3.82715e-08
3.81605e-08
3.80651e-08
3.7964e-08
3.78928e-08
3.78794e-08
3.78696e-08
3.78767e-08
3.78693e-08
3.78745e-08
3.78841e-08
3.78975e-08
3.79161e-08
3.79369e-08
3.79718e-08
3.80271e-08
3.80964e-08
3.81309e-08
3.81814e-08
3.8239e-08
3.82668e-08
3.82983e-08
3.83394e-08
3.83907e-08
3.84704e-08
3.85811e-08
3.87091e-08
3.88602e-08
3.90487e-08
3.92541e-08
3.94364e-08
3.94436e-08
3.93346e-08
3.94909e-08
4.20568e-08
5.55562e-08
8.07989e-08
4.05093e-08
4.12696e-08
4.22008e-08
4.29106e-08
4.30427e-08
4.25917e-08
4.15097e-08
4.04044e-08
3.95886e-08
3.90758e-08
3.86922e-08
3.84099e-08
3.82475e-08
3.81348e-08
3.80851e-08
3.80335e-08
3.80053e-08
3.79768e-08
3.79553e-08
3.79329e-08
3.79369e-08
3.79543e-08
3.79889e-08
3.80441e-08
3.81045e-08
3.81856e-08
3.82784e-08
3.83527e-08
3.84055e-08
3.84539e-08
3.8505e-08
3.85807e-08
3.8683e-08
3.88023e-08
3.89422e-08
3.91132e-08
3.93044e-08
3.94784e-08
3.94869e-08
3.94125e-08
3.97305e-08
4.35503e-08
6.23566e-08
9.93939e-08
7.0611e-08
7.80469e-08
8.68556e-08
9.32685e-08
9.37996e-08
8.82586e-08
7.63321e-08
6.48555e-08
5.70513e-08
5.21418e-08
4.8551e-08
4.60032e-08
4.44552e-08
4.33607e-08
4.26333e-08
4.20991e-08
4.17929e-08
4.14987e-08
4.12054e-08
4.08405e-08
4.04566e-08
4.00795e-08
3.97316e-08
3.9515e-08
3.93025e-08
3.9321e-08
3.93849e-08
3.94012e-08
3.93769e-08
3.93448e-08
3.93017e-08
3.92517e-08
3.92052e-08
3.92093e-08
3.9226e-08
3.92803e-08
3.93855e-08
3.94943e-08
3.94806e-08
3.94123e-08
3.99898e-08
4.58045e-08
7.29755e-08
1.28685e-07
3.62103e-07
4.34128e-07
5.09477e-07
5.55363e-07
5.49251e-07
4.83651e-07
3.61563e-07
2.53586e-07
1.85315e-07
1.4521e-07
1.17937e-07
9.91223e-08
8.76377e-08
7.97024e-08
7.42797e-08
6.98502e-08
6.71781e-08
6.46026e-08
6.18362e-08
5.85972e-08
5.54671e-08
5.23877e-08
4.97256e-08
4.81582e-08
4.68899e-08
4.70479e-08
4.74906e-08
4.76669e-08
4.73917e-08
4.69148e-08
4.61666e-08
4.50766e-08
4.38115e-08
4.2683e-08
4.14804e-08
4.05415e-08
4.02096e-08
3.99817e-08
3.97954e-08
3.97745e-08
4.08264e-08
4.9925e-08
8.84914e-08
1.65046e-07
2.934e-06
3.48708e-06
3.9249e-06
4.10108e-06
3.95235e-06
3.36212e-06
2.39289e-06
1.5495e-06
1.03422e-06
7.4774e-07
5.65331e-07
4.43389e-07
3.70021e-07
3.20049e-07
2.85374e-07
2.54048e-07
2.3461e-07
2.15259e-07
1.94683e-07
1.71542e-07
1.49575e-07
1.28613e-07
1.13104e-07
1.04436e-07
9.82593e-08
9.99482e-08
1.0378e-07
1.06459e-07
1.05033e-07
1.02192e-07
9.70639e-08
8.89727e-08
7.93964e-08
7.0326e-08
6.07914e-08
5.19954e-08
4.76449e-08
4.45658e-08
4.24453e-08
4.20382e-08
4.3717e-08
5.82786e-08
1.12188e-07
2.11719e-07
1.5822e-05
1.78333e-05
1.90885e-05
1.93517e-05
1.85474e-05
1.60651e-05
1.20595e-05
8.0205e-06
5.35565e-06
3.84666e-06
2.89844e-06
2.26433e-06
1.88371e-06
1.62374e-06
1.43937e-06
1.26613e-06
1.15031e-06
1.03025e-06
9.01926e-07
7.60561e-07
6.22513e-07
5.06258e-07
4.32835e-07
3.93765e-07
3.74464e-07
3.88964e-07
4.18625e-07
4.51154e-07
4.55319e-07
4.47946e-07
4.22433e-07
3.73735e-07
3.13679e-07
2.55622e-07
1.9536e-07
1.34521e-07
1.03204e-07
8.10127e-08
6.4926e-08
6.04579e-08
6.24768e-08
8.87642e-08
1.61657e-07
2.73541e-07
4.29808e-05
4.6695e-05
4.87612e-05
4.9071e-05
4.75291e-05
4.29199e-05
3.52205e-05
2.60401e-05
1.86919e-05
1.41984e-05
1.12148e-05
9.11037e-06
7.79984e-06
6.86504e-06
6.16262e-06
5.51282e-06
5.02034e-06
4.49991e-06
3.9239e-06
3.26786e-06
2.58858e-06
2.09925e-06
1.81559e-06
1.66061e-06
1.65809e-06
1.7527e-06
1.93697e-06
2.16657e-06
2.29312e-06
2.37674e-06
2.27747e-06
2.0416e-06
1.72863e-06
1.40532e-06
1.06052e-06
6.86716e-07
4.86843e-07
3.49522e-07
2.44125e-07
2.0015e-07
1.88168e-07
2.38613e-07
3.09611e-07
4.09041e-07
7.74148e-05
8.28175e-05
8.57168e-05
8.61575e-05
8.41145e-05
7.79157e-05
6.73712e-05
5.40957e-05
4.18438e-05
3.38762e-05
2.83214e-05
2.42304e-05
2.15847e-05
1.9606e-05
1.80311e-05
1.6547e-05
1.52795e-05
1.39036e-05
1.23136e-05
1.04068e-05
8.36674e-06
6.99962e-06
6.2032e-06
5.88442e-06
5.96634e-06
6.39677e-06
7.15969e-06
8.1431e-06
8.92861e-06
9.64704e-06
9.44386e-06
8.78155e-06
7.80451e-06
6.70198e-06
5.43988e-06
3.8885e-06
2.84335e-06
2.09945e-06
1.529e-06
1.17679e-06
9.46432e-07
9.99964e-07
9.00412e-07
6.14573e-07
0.000373807
0.00039331
0.000403618
0.000405772
0.00040067
0.000383553
0.000352681
0.000311036
0.000264527
0.000230639
0.000205971
0.000187401
0.000174947
0.000165088
0.000156736
0.000148434
0.000140193
0.000130933
0.000119622
0.000105135
9.00466e-05
8.09545e-05
7.6054e-05
7.48799e-05
7.56504e-05
7.99296e-05
8.85451e-05
0.000100771
0.000113972
0.000127356
0.000132089
0.00013143
0.000127961
0.000120759
0.000108284
9.03936e-05
7.34565e-05
5.87159e-05
4.68592e-05
3.62985e-05
2.64619e-05
2.22372e-05
1.61968e-05
1.0047e-05
0.00174918
0.00182898
0.00187184
0.00188662
0.00188019
0.00184569
0.00177324
0.00166578
0.00153064
0.00140553
0.00130899
0.00123418
0.00118127
0.00113735
0.00109937
0.00106061
0.0010204
0.000975975
0.000920777
0.000846376
0.000769234
0.000722796
0.000701991
0.000701592
0.000713179
0.000751214
0.000818898
0.000910621
0.00101602
0.00111202
0.00117183
0.00117981
0.00117074
0.00114407
0.00109297
0.00101289
0.000914848
0.00080632
0.000700087
0.00059094
0.000472739
0.000374328
0.000254829
0.00015751
0.00401215
0.004249
0.00438779
0.00444793
0.00446323
0.00444745
0.00438616
0.00427367
0.00411969
0.00394124
0.00376576
0.00360399
0.0034693
0.00334546
0.00323515
0.00312367
0.0030114
0.00289345
0.00276319
0.0026096
0.00247756
0.00239487
0.00235454
0.00235518
0.00238289
0.0024687
0.00261529
0.00281317
0.00304731
0.0032949
0.0034915
0.00359332
0.00360412
0.00359135
0.00355371
0.00348553
0.0033854
0.00324107
0.00305325
0.00281909
0.00253336
0.00218793
0.00170016
0.00107044
0.00571078
0.0061282
0.00648761
0.00662396
0.00667739
0.00669742
0.00669017
0.00664952
0.00656697
0.00643503
0.00626266
0.00607675
0.00588605
0.00568651
0.0054787
0.00525704
0.00501919
0.00477607
0.00452982
0.00428782
0.00407579
0.00393716
0.00386828
0.00385078
0.00385481
0.00389179
0.00400712
0.00422546
0.00454429
0.00493243
0.00531995
0.00564911
0.00583382
0.0059868
0.00605433
0.00605183
0.00604876
0.00601995
0.00593465
0.00577688
0.00553894
0.00521469
0.0046735
0.00362159
0.00172459
0.00209417
0.00247581
0.00287797
0.00333636
0.00383988
0.00435087
0.00478076
0.00511393
0.0053644
0.00556767
0.00575629
0.00584804
0.00580004
0.00571303
0.00562234
0.00546722
0.00522752
0.0049353
0.00462416
0.00435905
0.00413688
0.00398873
0.00390103
0.00386165
0.00385794
0.00389344
0.00402109
0.00428908
0.00470475
0.00521745
0.00570145
0.00606119
0.00637212
0.00664639
0.00682864
0.00701394
0.00712804
0.00713727
0.00712211
0.00705736
0.00695154
0.00676104
0.00619656
4.18928e-05
4.36592e-05
4.82175e-05
5.65897e-05
7.1113e-05
9.80076e-05
0.000150641
0.000247227
0.000398015
0.000573252
0.00068514
0.000763561
0.000852896
0.00102411
0.00140089
0.00212044
0.00306276
0.0036792
0.0040334
0.00417604
0.00416924
0.00405583
0.00380172
0.00343078
0.00295809
0.00253791
0.00238879
0.00239953
0.00249029
0.00270876
0.00310213
0.00367123
0.00433863
0.00483233
0.00517022
0.00550703
0.00592935
0.00642013
0.00667153
0.00680692
0.00686148
0.00694162
0.00701241
0.00687459
0.000119463
0.000110591
9.73863e-05
7.94059e-05
6.85094e-05
6.56509e-05
6.3052e-05
5.89378e-05
5.18428e-05
4.13572e-05
2.84998e-05
2.18798e-05
2.15919e-05
2.52049e-05
3.87048e-05
6.99275e-05
0.000120348
0.000167033
0.000210795
0.000322682
0.000473371
0.000614752
0.000709766
0.00067597
0.000581097
0.00045611
0.000331601
0.000216343
0.00020628
0.000240731
0.000303019
0.00042079
0.000600345
0.000796581
0.000994125
0.00107022
0.00121778
0.00144674
0.00176072
0.00218969
0.00251357
0.00291562
0.00334725
0.00425183
0.0277902
0.0264167
0.0216297
0.0129203
0.00558603
0.00395611
0.00344253
0.00307542
0.00279984
0.00252782
0.00219755
0.00168673
0.000991004
0.000454864
0.000239452
0.000120115
5.36424e-05
1.7916e-05
7.36079e-06
2.29826e-05
0.000151571
0.000665317
0.00192001
0.00457928
0.0076541
0.00949194
0.0112053
0.0131709
0.0165244
0.0214232
0.0183696
0.0160859
0.0131502
0.00649774
0.00215798
0.000751015
0.000316664
0.000224498
0.000210173
0.000221944
0.000274435
0.000349109
0.000344221
0.000542224
0.122667
0.12144
0.115911
0.105558
0.091321
0.0817639
0.0752657
0.0691284
0.0630151
0.0568882
0.0506804
0.0441041
0.0368457
0.029232
0.0227422
0.015754
0.0101365
0.00720389
0.00425956
0.00164929
0.00188472
0.0100248
0.0271572
0.0520242
0.0894692
0.0968602
0.0748522
0.0713148
0.109553
0.202234
0.302678
0.407739
0.581764
0.839755
0.29406
0.0573452
0.0131425
0.00408283
0.00119359
0.000324199
0.000113745
6.37705e-05
2.85843e-05
6.12149e-05
0.221781
0.223295
0.220945
0.216202
0.211374
0.206608
0.199456
0.188001
0.171945
0.15254
0.133916
0.118799
0.109237
0.105284
0.101701
0.098051
0.0939347
0.0890835
0.0807349
0.0616358
0.032503
0.0226546
0.0286958
0.0734385
0.189849
0.316811
0.396928
0.489229
0.611638
0.921832
1.32516
1.86009
3.15015
4.10139
2.03404
0.938414
0.78244
0.684413
0.588253
0.458745
0.311008
0.21083
0.0907781
0.0378695
0.271858
0.270703
0.265832
0.258716
0.252679
0.246238
0.236283
0.220168
0.19641
0.168886
0.149428
0.136655
0.12933
0.127086
0.124979
0.122101
0.118944
0.117695
0.116288
0.108627
0.0850607
0.0483258
0.0458648
0.0948437
0.258601
0.503717
0.762313
1.02258
1.28488
1.59928
1.95194
2.58265
4.22917
5.78655
5.19275
3.9032
2.84352
2.76515
2.9076
2.76151
2.2015
1.37101
0.602231
0.26177
0.309335
0.305776
0.298465
0.290909
0.283916
0.273833
0.254891
0.2265
0.191044
0.165068
0.151773
0.143838
0.13943
0.137232
0.13514
0.1327
0.131477
0.131795
0.133591
0.130787
0.117352
0.0839624
0.0759839
0.117602
0.287118
0.588515
0.911034
1.21378
1.53316
1.90517
2.30782
2.90053
4.43325
6.06514
5.95768
4.96965
3.9476
3.86528
4.05764
3.81956
3.02713
1.92092
0.946912
0.446728
0.331529
0.326781
0.320431
0.313995
0.304122
0.281445
0.245574
0.202267
0.172386
0.158485
0.150047
0.141927
0.136875
0.133405
0.131182
0.130583
0.131112
0.133253
0.139181
0.143611
0.138907
0.119953
0.112019
0.144028
0.296895
0.605867
0.954255
1.27945
1.61963
2.01302
2.45848
2.98459
4.15055
5.39344
5.85438
5.44086
4.69384
4.62653
4.85308
4.52406
3.54126
2.19601
1.10791
0.520474
0.344357
0.340763
0.336647
0.326522
0.299498
0.254564
0.204725
0.173339
0.158754
0.149648
0.138621
0.127584
0.12319
0.120607
0.120002
0.120936
0.123543
0.128377
0.1362
0.14755
0.149704
0.143653
0.142945
0.170523
0.302413
0.594072
0.94223
1.26877
1.61592
2.03011
2.50929
2.90666
3.46788
4.39569
5.21892
5.4618
5.18823
5.21098
5.37075
4.82762
3.70946
2.25715
1.12963
0.513368
0.348776
0.346989
0.337312
0.308127
0.258885
0.205239
0.172303
0.157637
0.146857
0.134156
0.11706
0.103411
0.0997534
0.0989874
0.100073
0.10363
0.109506
0.117871
0.129185
0.144977
0.157962
0.161176
0.165647
0.191703
0.305198
0.565868
0.890361
1.21231
1.5544
1.96241
2.45944
2.7689
2.67691
3.39454
4.42409
5.30204
5.50745
5.65743
5.5955
4.68649
3.36943
2.06493
1.05436
0.482929
0.346242
0.33763
0.309221
0.260618
0.206522
0.171724
0.155546
0.142237
0.126768
0.108328
0.0849741
0.0710407
0.0697296
0.0709586
0.0749349
0.0821285
0.0917158
0.103952
0.118905
0.138399
0.159507
0.171268
0.182404
0.209114
0.306494
0.530453
0.822668
1.13287
1.46862
1.86808
2.35103
2.59175
2.23804
2.48192
3.50567
4.83178
5.59519
5.79409
5.33391
4.29983
2.94346
1.83853
0.965093
0.450058
0.3209
0.294675
0.252845
0.206142
0.17228
0.153688
0.137855
0.119431
0.0979935
0.0749209
0.051667
0.0410539
0.0405506
0.0422536
0.04765
0.0574926
0.0706554
0.0869835
0.106379
0.130168
0.158113
0.178235
0.195483
0.223699
0.307006
0.494109
0.748401
1.03988
1.36919
1.75529
2.22082
2.43722
2.2079
1.92262
2.5339
3.83558
4.92159
5.07603
4.65806
4.06151
2.91764
1.75132
0.895372
0.435674
0.276139
0.241194
0.203363
0.173566
0.153196
0.134119
0.113367
0.0891156
0.0639433
0.0424472
0.0274236
0.0224763
0.022191
0.0229771
0.0265465
0.0352955
0.0494034
0.0686268
0.0921642
0.120759
0.155217
0.18346
0.20572
0.235256
0.306766
0.460642
0.678803
0.949491
1.27729
1.65778
2.12066
2.34917
2.20854
1.73581
1.74511
2.56412
3.62484
3.94098
3.79878
3.72892
2.94871
1.73362
0.853867
0.431499
0.233755
0.202285
0.174938
0.152541
0.130598
0.107428
0.0821884
0.0553156
0.0341265
0.0213238
0.0171178
0.0181182
0.0190687
0.0184685
0.0183299
0.0217096
0.032048
0.0507731
0.0770649
0.110481
0.151685
0.188234
0.214486
0.245043
0.306597
0.432461
0.617741
0.869941
1.19688
1.58046
2.05034
2.34981
2.23363
1.68413
1.35406
1.6816
2.41059
2.71018
2.85656
2.99062
2.65463
1.67862
0.824693
0.436471
0.198204
0.173291
0.150547
0.127678
0.102941
0.0762082
0.04978
0.0280742
0.0172405
0.0145311
0.017406
0.0294357
0.0362111
0.0339531
0.0267428
0.0219675
0.0251858
0.0384055
0.0637842
0.100375
0.147807
0.19265
0.222163
0.253185
0.306397
0.407809
0.567113
0.810441
1.14429
1.53856
2.02177
2.44832
2.38592
1.8771
1.42808
1.46349
1.75596
1.77488
1.88331
2.04198
2.07857
1.54409
0.81719
0.448305
0.16362
0.143376
0.122244
0.0984599
0.0715358
0.0446036
0.024051
0.0139074
0.0128822
0.0168809
0.0316473
0.0620975
0.0739844
0.069927
0.0571157
0.0375127
0.0311321
0.0367807
0.0563304
0.0925136
0.1441
0.197213
0.229609
0.260458
0.306304
0.39018
0.535797
0.776359
1.11852
1.52309
2.03851
2.59734
2.66178
2.30023
1.78057
1.54197
1.56333
1.44228
1.24048
1.31792
1.52487
1.34741
0.821951
0.463235
0.131348
0.113721
0.0930829
0.0682789
0.0412141
0.0205691
0.0109594
0.0107711
0.0157402
0.0305745
0.0610962
0.108102
0.12055
0.114073
0.096207
0.0674007
0.0447514
0.0440374
0.0570304
0.0896049
0.142465
0.202472
0.237604
0.268022
0.307632
0.379537
0.521057
0.773756
1.12691
1.53266
2.08576
2.6836
2.79047
2.55349
2.08149
1.66447
1.51836
1.36149
1.14491
1.11476
1.18171
1.15613
0.818837
0.472313
0.100907
0.0844428
0.063852
0.0392569
0.0181689
0.00847201
0.00807794
0.0131658
0.0282803
0.0559598
0.102654
0.16169
0.171868
0.162549
0.139288
0.10341
0.0657138
0.0565204
0.0639704
0.0916831
0.143679
0.209184
0.247229
0.275131
0.30995
0.379466
0.529504
0.806546
1.16991
1.54836
2.09171
2.50087
2.51747
2.34974
2.02807
1.67013
1.47378
1.33286
1.14743
1.09851
1.0494
1.01625
0.788671
0.479998
0.0729728
0.0568785
0.036906
0.0167922
0.00672428
0.00566908
0.00935755
0.0232342
0.0496727
0.0903018
0.153268
0.218052
0.224671
0.21197
0.183411
0.140988
0.0917834
0.0727053
0.0758435
0.0976809
0.146387
0.212487
0.256562
0.282664
0.314152
0.38621
0.563401
0.874519
1.25452
1.55603
1.88992
2.05898
2.02664
1.87034
1.57751
1.41039
1.37881
1.30283
1.16371
1.07199
1.00256
0.929255
0.747223
0.48713
0.0472103
0.0318834
0.0152656
0.00545782
0.00376843
0.00595139
0.0161704
0.0399752
0.0780045
0.131122
0.209384
0.272561
0.27603
0.259896
0.226334
0.178001
0.119959
0.0914282
0.0910756
0.10727
0.148454
0.210758
0.259733
0.290274
0.323823
0.407322
0.62366
0.97944
1.36423
1.56294
1.55127
1.53454
1.49824
1.34704
1.13517
1.17317
1.29435
1.27466
1.1727
1.06454
1.0143
0.922287
0.73785
0.500099
0.0251438
0.0125461
0.0042799
0.00225417
0.00342886
0.0100508
0.0280033
0.0624263
0.111805
0.176191
0.264996
0.323997
0.324408
0.304862
0.266458
0.213048
0.148218
0.11176
0.108228
0.120413
0.153689
0.209483
0.260244
0.297226
0.339986
0.451942
0.718172
1.11421
1.47775
1.59289
1.4313
1.19027
1.06148
0.972818
0.992072
1.14415
1.26811
1.25754
1.17712
1.06809
1.02972
0.938423
0.749319
0.521297
0.00893267
0.00297498
0.00121869
0.00172993
0.00558173
0.0175496
0.044236
0.0895221
0.149406
0.222299
0.317404
0.37091
0.368584
0.345325
0.302881
0.245202
0.175148
0.132757
0.126592
0.136441
0.165834
0.21502
0.26501
0.308876
0.370689
0.525403
0.846825
1.26568
1.58317
1.65426
1.51732
1.2155
0.996234
0.965847
1.03453
1.17787
1.26141
1.25102
1.18302
1.07094
1.00947
0.922942
0.754575
0.54399
0.00170095
0.000601914
0.000767695
0.00261978
0.00978945
0.028274
0.0646649
0.120382
0.188457
0.26697
0.364602
0.412713
0.407542
0.380789
0.335216
0.274126
0.200068
0.153629
0.145718
0.154565
0.183497
0.231216
0.283005
0.33939
0.429765
0.637989
1.00359
1.41604
1.65718
1.69148
1.60194
1.42548
1.23693
1.10489
1.11313
1.20048
1.26136
1.24887
1.18818
1.07049
0.963751
0.869136
0.732197
0.554141
0.000256162
0.000322073
0.00104143
0.00452868
0.0158826
0.042146
0.0884444
0.153081
0.22662
0.308093
0.405811
0.448822
0.441047
0.411474
0.363469
0.299835
0.222851
0.173922
0.165388
0.174587
0.206029
0.258615
0.322051
0.401337
0.530443
0.78991
1.17987
1.53358
1.6882
1.70687
1.68202
1.59776
1.44158
1.24921
1.17738
1.21474
1.25982
1.24857
1.19337
1.07428
0.917178
0.801948
0.695145
0.553873
0.000135767
0.000407921
0.00178497
0.00742896
0.0242102
0.0590664
0.114635
0.185736
0.262214
0.34445
0.440495
0.479396
0.469491
0.437555
0.388397
0.322779
0.243767
0.193702
0.185742
0.196933
0.234135
0.298201
0.38441
0.49862
0.673265
0.971883
1.34884
1.60328
1.69547
1.72544
1.77268
1.74526
1.60164
1.36945
1.23298
1.23114
1.2559
1.24716
1.19623
1.07928
0.901601
0.774119
0.680867
0.552
0.0001697
0.000651273
0.00288999
0.0115161
0.0346558
0.0780971
0.141451
0.216808
0.29396
0.374872
0.468872
0.50415
0.493445
0.460558
0.410293
0.34398
0.263699
0.213106
0.207064
0.222444
0.270003
0.353454
0.471937
0.628335
0.845813
1.16484
1.49661
1.67192
1.72799
1.76462
1.85742
1.85708
1.7125
1.45331
1.28298
1.25102
1.25627
1.24498
1.19567
1.08089
0.906087
0.781572
0.68365
0.549223
0.000241143
0.000998369
0.00452765
0.0169607
0.0470139
0.0986461
0.167804
0.245468
0.320972
0.399126
0.4894
0.524422
0.513818
0.480228
0.430817
0.364288
0.283441
0.232794
0.229635
0.252617
0.316975
0.427922
0.584472
0.775551
1.0206
1.34154
1.63413
1.76668
1.78955
1.80862
1.8911
1.8914
1.75247
1.50198
1.32226
1.27065
1.25868
1.24002
1.19006
1.07757
0.914948
0.796011
0.689605
0.544334
0.000331724
0.00149356
0.00671592
0.0235119
0.0605787
0.119257
0.192518
0.270479
0.342891
0.416594
0.501757
0.539277
0.530435
0.498273
0.45089
0.384457
0.304035
0.25448
0.254684
0.289901
0.377898
0.51955
0.704296
0.919029
1.18123
1.5061
1.76955
1.85907
1.84057
1.7998
1.8067
1.81803
1.73451
1.53554
1.35074
1.28425
1.25881
1.23172
1.17945
1.07039
0.921407
0.806549
0.692511
0.535928
0.000454224
0.0021771
0.00950956
0.0311191
0.0750155
0.139319
0.214954
0.291121
0.359749
0.428433
0.505002
0.548643
0.544239
0.516016
0.469641
0.405581
0.326686
0.280003
0.283055
0.334801
0.442752
0.609791
0.821433
1.06438
1.35086
1.67807
1.89746
1.92917
1.86183
1.73196
1.64386
1.70093
1.69125
1.54903
1.36681
1.28954
1.25368
1.21972
1.16473
1.05975
0.924407
0.812033
0.691712
0.523575
0.000610278
0.00305023
0.0128441
0.0394033
0.0893546
0.157984
0.234262
0.306759
0.37177
0.435709
0.501629
0.552288
0.554795
0.532701
0.489034
0.428361
0.352176
0.310435
0.316315
0.373288
0.502145
0.701614
0.952956
1.23536
1.54479
1.84832
1.99754
1.96593
1.84394
1.67175
1.59437
1.62226
1.61393
1.51015
1.36263
1.2863
1.24278
1.20352
1.1467
1.0474
0.924871
0.814094
0.687777
0.50743
0.000814361
0.00416917
0.016711
0.04814
0.1032
0.174712
0.249595
0.317631
0.379095
0.439873
0.497489
0.549025
0.563899
0.548048
0.509495
0.452919
0.381735
0.346797
0.358135
0.419928
0.576943
0.819506
1.11788
1.43888
1.74723
1.99588
2.06066
1.96568
1.80489
1.64103
1.60856
1.52201
1.47117
1.41512
1.33771
1.27421
1.22563
1.18365
1.12645
1.03415
0.923722
0.814401
0.681052
0.487671
0.0010838
0.00551902
0.0209402
0.0567739
0.115889
0.188899
0.26031
0.323829
0.382213
0.440729
0.494122
0.541988
0.568397
0.561314
0.529861
0.479428
0.416395
0.390213
0.412324
0.501231
0.692784
0.977527
1.31747
1.65332
1.93307
2.11437
2.08829
1.93736
1.7588
1.60315
1.49489
1.35428
1.28541
1.29807
1.29824
1.25573
1.20405
1.16036
1.10495
1.0212
0.921656
0.814132
0.671819
0.463051
0.00142867
0.00711612
0.0254687
0.065021
0.126944
0.199963
0.26646
0.326032
0.381941
0.437548
0.489663
0.532012
0.569007
0.572938
0.549807
0.508345
0.456337
0.441185
0.480422
0.610655
0.846185
1.16619
1.52651
1.85581
2.09979
2.1993
2.08122
1.87502
1.70045
1.55203
1.35552
1.17474
1.13991
1.2135
1.26134
1.22876
1.17701
1.13455
1.08352
1.00923
0.919442
0.812957
0.659455
0.426608
0.00184953
0.00889896
0.0299269
0.0724568
0.135864
0.207231
0.268629
0.324465
0.376977
0.430015
0.481951
0.524054
0.567923
0.583809
0.569494
0.539238
0.50167
0.499458
0.561234
0.733637
1.01101
1.35708
1.72443
2.04244
2.24754
2.24454
2.02193
1.78317
1.63319
1.49247
1.27954
1.08966
1.09374
1.18721
1.23068
1.19581
1.14441
1.10711
1.06296
0.998593
0.917401
0.810367
0.633645
0.37162
0.0023165
0.0107815
0.0341957
0.0787332
0.142317
0.210672
0.267181
0.317866
0.3674
0.418746
0.471363
0.517234
0.56791
0.595427
0.588402
0.571449
0.551482
0.563872
0.652276
0.862526
1.17355
1.53824
1.90745
2.2135
2.36739
2.21812
1.8992
1.68095
1.56219
1.43418
1.24975
1.12273
1.12559
1.18641
1.19965
1.15651
1.10777
1.07836
1.04308
0.989087
0.914556
0.794031
0.580165
0.303103
0.00282732
0.0126396
0.0380034
0.0835841
0.146144
0.210963
0.26064
0.306702
0.353669
0.404105
0.457583
0.509166
0.568239
0.605811
0.604675
0.599709
0.602207
0.633548
0.749948
0.993437
1.33132
1.70985
2.0766
2.3602
2.39159
2.0813
1.73517
1.58163
1.49358
1.38867
1.26141
1.18819
1.17794
1.18952
1.16697
1.1112
1.06849
1.04856
1.0238
0.979565
0.901375
0.74402
0.500689
0.238888
0.00333711
0.0144017
0.0412454
0.0868115
0.147549
0.206559
0.249773
0.291379
0.336009
0.386297
0.441658
0.498408
0.560818
0.611261
0.620166
0.623566
0.648329
0.706486
0.85054
1.12208
1.4823
1.87173
2.22806
2.41212
2.24078
1.84717
1.57666
1.48999
1.43033
1.35615
1.29059
1.25318
1.22265
1.18536
1.12696
1.06194
1.02665
1.01675
1.0036
0.961498
0.854484
0.662476
0.413597
0.188683
0.0038361
0.0159932
0.043747
0.0884425
0.146483
0.19782
0.234999
0.272282
0.315105
0.365702
0.423581
0.485237
0.546865
0.612505
0.636217
0.646879
0.685559
0.773343
0.947033
1.2442
1.62536
2.02302
2.32347
2.27427
1.94744
1.59383
1.45091
1.40647
1.37368
1.33512
1.32705
1.30914
1.25463
1.16937
1.07834
1.01083
0.982287
0.978485
0.970501
0.90923
0.772869
0.570074
0.341219
0.146743
0.00429604
0.0173197
0.0454698
0.0887525
0.141758
0.18552
0.216929
0.249981
0.291411
0.342772
0.403812
0.470302
0.53409
0.611255
0.651696
0.672465
0.715001
0.825483
1.03024
1.35766
1.76089
2.14433
2.23945
1.99843
1.6223
1.40085
1.34965
1.33167
1.32428
1.32761
1.36955
1.36069
1.27454
1.13926
1.02336
0.957474
0.933468
0.923689
0.899115
0.818658
0.674126
0.489888
0.281415
0.110467
0.00469139
0.0183264
0.0463879
0.087241
0.134181
0.170319
0.196106
0.22533
0.265726
0.317957
0.382322
0.453595
0.523176
0.604975
0.665108
0.701041
0.748579
0.868336
1.0983
1.46176
1.8782
2.11363
1.98939
1.66486
1.36219
1.27944
1.26266
1.26501
1.28289
1.33023
1.42096
1.41254
1.2833
1.09622