/*--------------------------------*- C++ -*----------------------------------*\
| =========                 |                                                 |
| \\      /  F ield         | OpenFOAM: The Open Source CFD Toolbox           |
|  \\    /   O peration     | Version:  v1912                                 |
|   \\  /    A nd           | Website:  www.openfoam.com                      |
|    \\/     M anipulation  |                                                 |
\*---------------------------------------------------------------------------*/
FoamFile
{
    version     2.0;
    format      ascii;
    class       volScalarField;
    location    "80";
    object      k;
}
// * * * * * * * * * * * * * * * * * * * * * * * * * * * * * * * * * * * * * //

dimensions      [0 2 -2 0 0 0 0];


internalField   nonuniform List<scalar> 
14268
(
0.000261284
0.00028759
0.000311536
0.000352669
0.000431291
0.000571609
0.000654963
0.000617609
0.00053622
0.000438403
0.000351885
0.000282443
0.000258317
0.000280186
0.000382598
0.00080778
0.000867792
0.000702291
0.000496747
0.000766182
0.0013474
0.00112454
0.00100214
0.00054389
0.00160511
0.00587393
0.00925793
0.0105366
0.0160086
0.0233485
0.0226404
0.0106191
0.0122744
0.0342068
0.0416068
0.021486
0.0102788
0.0539148
0.140036
0.12835
0.086574
0.0458988
0.0243748
0.00864928
0.0118179
0.0220707
0.03599
0.0491185
0.0509052
0.0137965
0.00910644
0.00392241
0.00699417
0.0457769
0.0949595
0.0133249
0.00376703
0.0112137
0.0116863
0.0249363
0.0594936
0.0811678
0.0346843
0.0092916
0.00563765
0.0149648
0.0349238
0.0370327
0.0335206
0.0196417
0.0124424
0.0165059
0.0263497
0.00898911
0.00619015
0.056143
0.108349
0.100512
0.0471877
0.0662741
0.0216886
0.0259854
0.0472725
0.0176166
0.0188004
0.0576665
0.0485129
0.0531183
0.0272474
0.00531044
0.0337451
0.0888975
0.0552357
0.013464
0.00442567
0.0071923
0.00472467
0.00466077
0.0319089
0.0605197
0.0643875
0.049909
0.0469787
0.0562795
0.000903911
0.00100532
0.00109524
0.00123114
0.00146053
0.00182476
0.00197971
0.00187939
0.00167979
0.00142036
0.0011626
0.00094536
0.000873556
0.000943153
0.00126733
0.00259208
0.00299942
0.00255495
0.00185151
0.00274645
0.00466501
0.00364445
0.0029108
0.00180296
0.00824495
0.0223265
0.0351967
0.0368333
0.0425069
0.0651944
0.063526
0.0345191
0.0393995
0.0966897
0.123415
0.0614831
0.0453795
0.205996
0.347209
0.308269
0.204121
0.128769
0.105287
0.0379109
0.0335722
0.0586295
0.0988094
0.139462
0.137414
0.0310288
0.025251
0.0134572
0.0317156
0.234405
0.38792
0.0506828
0.0170359
0.0473588
0.0512738
0.0941145
0.190201
0.244002
0.156829
0.0338206
0.0184912
0.0662457
0.172134
0.153663
0.108848
0.0567573
0.0298909
0.0484529
0.0584184
0.016957
0.014082
0.184022
0.399389
0.376868
0.113806
0.168988
0.0462456
0.0670316
0.167127
0.0851864
0.0684242
0.174887
0.102172
0.116583
0.0891867
0.0180301
0.091788
0.323872
0.178035
0.0374307
0.018066
0.0227121
0.0116663
0.0169361
0.0820438
0.164725
0.174612
0.136579
0.126957
0.186091
0.00138008
0.00154451
0.00168168
0.00187237
0.00219786
0.00268533
0.00284945
0.002714
0.00243666
0.00209666
0.00174581
0.00143716
0.00133967
0.00143545
0.00192919
0.00387562
0.00457182
0.0040562
0.00303257
0.00427691
0.00698092
0.00531748
0.00406499
0.00322395
0.0170581
0.0354477
0.0584387
0.0527497
0.0518189
0.091486
0.0879367
0.043334
0.0563896
0.137055
0.190595
0.0839739
0.0783949
0.321046
0.379671
0.358463
0.249705
0.123021
0.207857
0.100009
0.0463583
0.0750477
0.144943
0.213251
0.169701
0.0450043
0.0128353
0.0212332
0.0677826
0.441392
0.479507
0.147811
0.0218636
0.100783
0.242456
0.191117
0.203617
0.272759
0.305386
0.103715
0.024803
0.130371
0.290458
0.296561
0.304794
0.154551
0.0367457
0.106477
0.0734512
0.0128448
0.0388055
0.352266
0.659392
0.708275
0.210945
0.409656
0.0493497
0.0603485
0.200093
0.17136
0.14299
0.194528
0.0708475
0.0792577
0.0617274
0.0217003
0.158607
0.479811
0.347912
0.0915797
0.0679216
0.0571534
0.0178151
0.0176782
0.0759865
0.266036
0.314716
0.232956
0.212629
0.327275
0.00178604
0.00200478
0.00217977
0.00241737
0.00283087
0.00338164
0.00350478
0.00334075
0.00301781
0.00261558
0.00219266
0.00182646
0.00171719
0.00183986
0.00249046
0.00496778
0.00582056
0.00526296
0.00402988
0.00565088
0.00893911
0.00661949
0.00473843
0.00480803
0.0202152
0.0320616
0.0566025
0.0490943
0.0566475
0.106892
0.100909
0.0431719
0.0550951
0.176102
0.287434
0.126777
0.0627773
0.250912
0.440146
0.389449
0.279618
0.113562
0.160566
0.123423
0.0652257
0.0789081
0.159175
0.240226
0.147048
0.125134
0.0231387
0.0546481
0.0697169
0.565477
0.348636
0.27772
0.0311734
0.297316
0.558169
0.397525
0.148032
0.204058
0.427356
0.220122
0.0369031
0.100184
0.202084
0.257717
0.583707
0.454247
0.114392
0.181413
0.13168
0.226638
0.0487095
0.327955
0.656662
0.891681
0.413182
0.497113
0.049052
0.0453976
0.17665
0.136927
0.217184
0.162078
0.056868
0.114411
0.0296823
0.0237392
0.187994
0.353599
0.41016
0.17424
0.134777
0.158226
0.0692311
0.0286965
0.0986501
0.475206
0.58411
0.468266
0.418298
0.519819
0.00216124
0.00243069
0.00263919
0.00291659
0.00341267
0.00400112
0.00408287
0.00388593
0.00350778
0.00306093
0.00257876
0.00217291
0.00206057
0.00220922
0.00302244
0.00599509
0.00691865
0.00634103
0.00496843
0.00696951
0.0107213
0.00770674
0.00533812
0.00680578
0.0207836
0.0288435
0.049346
0.0445879
0.0649408
0.131541
0.120133
0.0472045
0.0601566
0.243693
0.456662
0.232462
0.0422422
0.22345
0.650661
0.606896
0.420497
0.185112
0.116404
0.109266
0.0764388
0.0773568
0.150944
0.237678
0.128745
0.290051
0.13575
0.107974
0.0642522
0.518535
0.258893
0.271617
0.0684841
0.537093
0.706474
0.719223
0.240796
0.144831
0.523044
0.36654
0.0777493
0.0578463
0.130669
0.188525
0.590674
0.772108
0.371763
0.319414
0.546151
1.14871
0.0602299
0.180322
0.521076
0.92198
0.464417
0.41886
0.030065
0.03639
0.257168
0.096143
0.270797
0.158562
0.272994
0.735129
0.102866
0.0214954
0.190463
0.297125
0.312978
0.285095
0.127809
0.335104
0.253329
0.0997004
0.218684
0.741003
0.861215
0.826742
0.77186
0.834437
0.00251183
0.00282917
0.00306864
0.00338433
0.00395976
0.00455274
0.00458014
0.00434607
0.00393224
0.00344344
0.00291065
0.00248217
0.0023754
0.0025559
0.00353903
0.00699599
0.00790668
0.00728731
0.00582376
0.00824093
0.0122946
0.00861127
0.00581367
0.00999862
0.01778
0.0228735
0.0377109
0.0377093
0.0768798
0.169103
0.15079
0.0498488
0.0661351
0.304847
0.504783
0.342247
0.033083
0.273098
0.685691
0.708298
0.593889
0.276245
0.0733728
0.082996
0.0784812
0.0825269
0.158094
0.243099
0.0993769
0.414665
0.335957
0.103978
0.0549895
0.388601
0.197222
0.197668
0.193582
0.659718
0.525515
0.789473
0.462758
0.0939289
0.392268
0.513977
0.152504
0.0265674
0.102597
0.190966
0.542987
0.769379
0.594745
0.634937
0.996049
2.09573
0.073703
0.107306
0.44229
0.782438
0.416745
0.358758
0.0395946
0.025099
0.381876
0.0510379
0.216548
0.218016
0.726435
1.25195
0.471345
0.11518
0.17564
0.219256
0.190535
0.207418
0.0913746
0.394832
0.386531
0.254317
0.394142
0.785375
0.888433
0.963109
1.07715
1.11224
0.00285527
0.00321978
0.00348921
0.00384054
0.00449538
0.00507036
0.00504751
0.00477157
0.00431609
0.00379547
0.00322016
0.00277948
0.00268395
0.00289763
0.00406233
0.00800155
0.0088329
0.00816803
0.00666208
0.00952728
0.0137869
0.00940133
0.00621837
0.0174742
0.0153343
0.021434
0.0338236
0.0364766
0.0989838
0.214482
0.194741
0.0549129
0.0813357
0.358077
0.489183
0.387054
0.0936762
0.419197
0.632164
0.652113
0.600148
0.265958
0.0527281
0.0826242
0.0949027
0.101289
0.186438
0.268789
0.128608
0.488847
0.476706
0.0851459
0.0735759
0.376745
0.330278
0.11761
0.305923
0.657398
0.405078
0.657952
0.52412
0.0653912
0.317522
0.497755
0.301135
0.0528143
0.409771
0.593507
0.505589
0.700338
0.670164
0.806414
0.795498
2.66357
0.0933851
0.0862367
0.487581
0.664053
0.34314
0.287059
0.136532
0.0585891
0.39248
0.0280929
0.154995
0.432042
1.03264
1.50788
1.00808
0.275349
0.213779
0.152532
0.132444
0.145429
0.0542996
0.296751
0.244022
0.19957
0.388118
0.7606
0.851585
0.961337
1.24916
1.25961
0.00318962
0.00359877
0.00389586
0.00428335
0.00501535
0.00555071
0.00547489
0.00514808
0.00466164
0.0041104
0.00349834
0.00305802
0.00297972
0.00323265
0.00459069
0.00901458
0.00970013
0.00896803
0.0074586
0.0108074
0.015128
0.0100243
0.00648173
0.0279134
0.013412
0.0179792
0.0292732
0.0363665
0.119776
0.225927
0.214661
0.0571256
0.0957506
0.397871
0.450934
0.359853
0.240286
0.508083
0.579568
0.602327
0.553236
0.205598
0.0560868
0.0814929
0.102149
0.114068
0.180502
0.368177
0.613374
0.398068
0.539979
0.058762
0.212065
0.365354
0.738263
0.084165
0.300221
0.623958
0.28513
0.56349
0.488064
0.0741744
0.239456
0.376286
0.424881
0.352285
0.754059
0.889569
0.539021
0.625607
0.607683
0.794527
0.511504
2.6467
0.098012
0.168396
0.62134
0.539094
0.252768
0.210712
0.259642
0.226747
0.323264
0.0582677
0.146346
0.742636
0.86092
1.54539
1.08481
0.388537
0.347625
0.159515
0.248633
0.0821056
0.0265809
0.215594
0.146952
0.136108
0.368547
0.85103
0.952279
0.974034
1.23994
1.20791
0.00352301
0.00397568
0.00430056
0.00472299
0.00552973
0.00601029
0.00587768
0.00550233
0.00498209
0.00440836
0.00376604
0.00333444
0.00327716
0.00357094
0.00513318
0.0100452
0.0105216
0.00971387
0.00825406
0.0121204
0.0163691
0.0105517
0.00678217
0.0375445
0.013102
0.0165038
0.0291207
0.0419141
0.133691
0.215718
0.211838
0.0601182
0.125424
0.434517
0.417058
0.312365
0.197668
0.539949
0.570771
0.568923
0.497986
0.151488
0.0745677
0.0681204
0.091548
0.123136
0.212274
0.788133
1.19238
0.364555
0.587597
0.0436961
0.378728
0.374847
1.01223
0.24741
0.203304
0.648337
0.269017
0.474972
0.458939
0.169431
0.156961
0.293825
0.268387
0.645586
0.635178
0.806006
0.529656
0.510714
0.630918
0.782687
0.446287
2.54213
0.0872931
0.335183
0.540916
0.406634
0.205784
0.201801
0.246843
0.406395
0.272037
0.202945
0.273446
0.841852
0.689248
1.44498
0.967692
0.494115
0.55724
0.265984
0.239578
0.0388809
0.0432132
0.229757
0.0861081
0.117575
0.460455
1.22178
1.3784
1.00618
1.12212
1.1176
0.0038543
0.00434752
0.00469811
0.00515544
0.00603347
0.0064472
0.00625347
0.00582432
0.00527553
0.00468006
0.00401243
0.00360018
0.00356878
0.00390753
0.00568564
0.0110756
0.0112889
0.0103965
0.00903618
0.0134392
0.0174531
0.0109832
0.00715531
0.0429198
0.0132607
0.0162718
0.0279935
0.0462781
0.133536
0.200149
0.197569
0.0619401
0.147095
0.433664
0.378609
0.267594
0.1639
0.525541
0.729559
0.66937
0.463978
0.14826
0.0711942
0.0496196
0.0848609
0.160703
0.354146
1.22161
1.4837
0.310982
0.541077
0.0896083
0.543116
0.726524
1.21159
0.53428
0.128019
0.640519
0.571436
0.398936
0.463524
0.281458
0.0743736
0.179307
0.206723
0.665434
0.475435
0.655926
0.474889
0.391422
0.357556
0.778482
0.356563
2.39834
0.0724236
0.439802
0.444905
0.340345
0.327934
0.160209
0.147259
0.486665
0.233459
0.307416
0.426457
0.730367
0.568191
1.22098
0.898181
0.554441
0.562996
0.179715
0.151772
0.0472016
0.191943
0.375553
0.148156
0.215019
0.669748
1.54698
1.75265
1.09312
0.975471
0.994143
0.00418778
0.00471936
0.00509502
0.00558698
0.00653328
0.00687033
0.00660961
0.00612948
0.00555313
0.00494089
0.00425393
0.0038684
0.00386458
0.00424936
0.0062518
0.012077
0.0119947
0.0110242
0.00982848
0.0147914
0.0184197
0.0113771
0.00770305
0.0424359
0.0140766
0.0275407
0.028449
0.0481259
0.125148
0.184585
0.18426
0.0733277
0.149496
0.412187
0.35565
0.247327
0.203113
0.545726
0.96625
0.956171
0.522283
0.21792
0.0550069
0.0539689
0.110448
0.245719
0.471575
1.17638
1.62253
0.254823
0.417746
0.291714
0.719359
1.06216
1.37373
0.770876
0.113701
0.545786
0.828935
0.337448
0.434324
0.430195
0.0338958
0.0997197
0.186448
0.672015
0.359842
0.555248
0.441986
0.281453
0.303899
0.810119
0.270466
2.24595
0.0914456
0.464366
0.388929
0.519924
0.626442
0.0962661
0.111486
0.494102
0.167645
0.374648
0.626648
0.604592
0.455742
0.973782
0.743588
0.657423
0.438593
0.124512
0.143658
0.143693
0.363627
0.427827
0.392068
0.428614
0.943318
1.8398
2.06318
1.34465
0.873162
0.872021
0.00452297
0.00508949
0.00548804
0.00601446
0.00702482
0.00727774
0.00694375
0.00641304
0.0058116
0.00518383
0.00448288
0.00413273
0.0041589
0.00459172
0.00682559
0.0130119
0.0126228
0.011591
0.0106279
0.0161371
0.0192932
0.0117719
0.00848136
0.0393019
0.0144501
0.0499837
0.0374799
0.0555015
0.11358
0.168393
0.17258
0.112416
0.1461
0.388597
0.391034
0.226397
0.302778
0.65404
1.16036
1.16323
0.711316
0.281333
0.0309494
0.0876471
0.135042
0.290385
0.449845
1.08094
1.67749
0.196612
0.317367
0.381508
0.903335
0.917174
1.24939
1.05536
0.166464
0.444278
1.00733
0.275776
0.35078
0.335914
0.178817
0.0925627
0.167289
0.519312
0.253779
0.429392
0.443101
0.301324
0.374748
0.818468
0.362496
2.17072
0.297798
0.383396
0.317798
0.897784
0.832215
0.0457687
0.205459
0.463403
0.0990221
0.458532
0.704474
0.456855
0.312717
0.749965
0.586553
0.652991
0.361131
0.206322
0.453331
0.284318
0.420138
0.330241
0.570388
0.602148
1.19746
2.10461
2.30028
1.66936
0.839399
0.735455
0.00486247
0.00546103
0.00588129
0.00644235
0.00751286
0.00767497
0.00726043
0.0066836
0.00606014
0.00541986
0.00471142
0.00440168
0.00446104
0.00493867
0.00740547
0.0138298
0.0131634
0.0121091
0.0114435
0.0174973
0.0202399
0.0122728
0.00968552
0.0361784
0.0183625
0.0742945
0.064671
0.0701795
0.102542
0.153216
0.166852
0.170541
0.15122
0.378971
0.516269
0.247609
0.433708
0.817284
1.3305
1.19694
0.86551
0.283024
0.0533459
0.193295
0.120691
0.255217
0.384262
0.979708
1.74503
0.142444
0.212851
0.59364
1.13814
0.842392
0.904265
1.05427
0.144435
0.447321
0.862205
0.223555
0.257936
0.263498
0.479241
0.371163
0.155478
0.378563
0.20437
0.302164
0.402971
0.51211
0.530239
0.811745
1.02562
2.01744
0.654737
0.421518
0.255738
0.953126
0.937173
0.0448065
0.374369
0.423754
0.0705053
0.60224
0.534786
0.330264
0.215644
0.627207
0.548223
0.423776
0.283633
0.425897
0.701668
0.424002
0.444968
0.256882
0.671161
0.736044
1.42789
2.35764
2.50789
1.94044
0.877891
0.611898
0.00520569
0.00583264
0.00627273
0.00686822
0.00799376
0.00806056
0.00755641
0.00693907
0.00629511
0.00564413
0.0049349
0.00467097
0.00476886
0.00528756
0.00797869
0.0144491
0.0136406
0.0125923
0.0122668
0.0188335
0.0211386
0.0129107
0.0113543
0.0339205
0.0332374
0.0969735
0.0972969
0.0780202
0.093365
0.141506
0.166624
0.217188
0.184673
0.391716
0.634598
0.351931
0.562687
0.911641
1.30633
1.10777
0.87911
0.254738
0.16373
0.279584
0.101201
0.189366
0.30635
0.848384
1.81956
0.0971253
0.151606
0.828879
1.15612
0.798985
0.783651
0.736961
0.113953
0.61331
0.702044
0.157994
0.184039
0.271616
0.457897
0.652161
0.193141
0.267713
0.238018
0.195582
0.323543
0.509748
0.685799
0.745426
1.05767
1.67778
0.945129
0.605485
0.185553
0.803622
0.854052
0.0816494
0.558503
0.392771
0.185163
0.755281
0.431865
0.252526
0.160442
0.567051
0.846428
0.321612
0.203911
0.352654
0.870071
0.632085
0.487595
0.187509
0.625727
0.855154
1.67021
2.57431
2.68322
2.15754
0.986956
0.540053
0.00572786
0.0063929
0.0068612
0.00750921
0.00870944
0.00862566
0.00796774
0.00730461
0.00663822
0.00597481
0.00527545
0.00508422
0.00524766
0.00582261
0.00882534
0.0152194
0.0143207
0.0132723
0.0135041
0.0208526
0.0221277
0.0140851
0.0145311
0.0322444
0.0677156
0.121961
0.121712
0.0783048
0.086421
0.13173
0.170911
0.249029
0.260216
0.433876
0.684753
0.540642
0.537795
0.867504
1.20585
1.00956
0.833002
0.23629
0.321578
0.355014
0.133506
0.107808
0.205222
0.685189
1.7573
0.069233
0.114811
0.766068
1.01191
0.690556
0.718061
0.344193
0.0642631
0.827307
0.564128
0.115487
0.142413
0.465434
0.350829
0.516674
0.220078
0.126996
0.345334
0.087857
0.19841
0.407632
0.554741
0.622239
0.860612
1.22344
1.10445
0.582872
0.100874
0.628537
0.675737
0.162536
0.761398
0.398468
0.43934
0.692898
0.29844
0.307296
0.105413
0.676171
1.29096
0.213666
0.105458
0.245006
0.982506
0.919445
0.425271
0.127346
0.426378
0.876373
2.02006
2.87016
2.92515
2.44509
1.21894
0.591459
0.00644136
0.00714305
0.00764351
0.00836184
0.00963808
0.00933373
0.0084272
0.00774402
0.00706149
0.00639042
0.00574013
0.00565211
0.00592518
0.00655629
0.00997743
0.0159566
0.0154726
0.0140765
0.0151892
0.0234307
0.0220935
0.0160244
0.0201667
0.0344215
0.0897263
0.115371
0.107309
0.0720919
0.0782209
0.115616
0.167995
0.216083
0.285297
0.466966
0.610459
0.530175
0.424483
0.706828
1.07868
0.855743
0.752578
0.251913
0.260076
0.286121
0.226362
0.143967
0.151609
0.615686
1.44395
0.0961324
0.130259
0.664742
0.967942
0.564452
0.504844
0.213388
0.115147
0.966024
0.409249
0.282064
0.209789
0.613824
0.310628
0.436343
0.205255
0.0758335
0.490068
0.0802202
0.11381
0.226017
0.429952
0.440434
0.61005
0.962261
0.984082
0.390242
0.0630007
0.367658
0.424742
0.258811
0.454506
0.484816
0.667521
0.471459
0.220019
0.29599
0.0618793
0.990355
1.41098
0.107302
0.0489371
0.116003
0.769326
0.380886
0.294545
0.137293
0.235823
0.45682
2.17258
3.15301
3.0854
2.74891
1.52485
0.889931
0.00717847
0.00790463
0.00843415
0.00922424
0.0105542
0.00999226
0.00880375
0.00812021
0.00746431
0.00680405
0.00624807
0.00625957
0.00667096
0.00731533
0.0110903
0.0191879
0.017756
0.0147712
0.0169694
0.0256679
0.0216547
0.0194717
0.0325764
0.0391835
0.0831406
0.0937566
0.0852098
0.0633976
0.0680033
0.0992236
0.156189
0.165293
0.257717
0.451965
0.530302
0.446325
0.295331
0.608633
0.927899
0.724371
0.674437
0.261154
0.159105
0.183293
0.222558
0.2681
0.232255
0.662034
1.22755
0.0938645
0.207722
0.709835
0.936477
0.479504
0.37577
0.295959
0.583041
0.674194
0.235046
0.211882
0.238583
0.452134
0.381141
0.602337
0.637059
0.215307
0.397621
0.204246
0.239426
0.0968926
0.268423
0.288725
0.421854
0.76452
0.422849
0.223881
0.383484
0.2117
0.255683
0.446186
0.27275
0.606294
0.830548
0.298448
0.446643
0.260743
0.0698401
1.20233
1.09876
0.0439314
0.0523574
0.0447329
0.478057
0.196025
0.144962
0.183365
0.118807
0.305485
2.19926
3.24802
3.07713
2.98672
1.8183
1.10293
0.00793283
0.00867229
0.00922887
0.0100879
0.0114509
0.0105826
0.00907344
0.0083642
0.00781789
0.00721627
0.00679883
0.00691001
0.00749873
0.0080808
0.0120633
0.0241012
0.0211747
0.0154417
0.0187232
0.027455
0.021903
0.0230893
0.0496024
0.0434313
0.0665662
0.0688267
0.0621576
0.0534903
0.0592755
0.090511
0.143744
0.107653
0.209341
0.396208
0.446976
0.395952
0.188021
0.683153
0.789051
0.599809
0.565306
0.310345
0.106023
0.0873189
0.147534
0.502174
0.38437
0.51149
1.03224
0.096417
0.298115
0.836173
0.741904
0.4129
0.454165
0.73621
0.845693
0.490441
0.108272
0.112963
0.176486
0.305757
0.293462
0.55066
1.16583
0.51738
0.293759
0.244062
0.373236
0.0744074
0.128434
0.180422
0.266226
0.56384
0.257646
0.0710025
0.664798
0.309955
0.319246
0.745458
0.146042
0.456498
0.695164
0.333053
0.659322
0.159259
0.0961333
1.34729
0.924451
0.041979
0.195953
0.0509463
0.279852
0.0901087
0.0551109
0.278953
0.0746672
0.242667
2.20806
3.14927
2.97504
3.15492
2.10116
1.25477
0.00870684
0.00945079
0.0100332
0.0109585
0.0123442
0.0110925
0.00922494
0.00846404
0.00813276
0.00765651
0.0074049
0.00763284
0.00842777
0.00884745
0.0128697
0.0285071
0.0238027
0.0160023
0.0202666
0.0286828
0.0228092
0.0279868
0.0632699
0.04613
0.0486807
0.0475508
0.0405248
0.0481573
0.0540786
0.0886314
0.140211
0.0942266
0.152107
0.330883
0.368422
0.452031
0.227002
0.952333
0.679629
0.462474
0.43561
0.388731
0.304882
0.105322
0.127808
0.655075
0.410776
0.378286
0.893507
0.158665
0.414682
0.824155
0.550198
0.337309
0.537206
0.758749
0.495117
0.280784
0.0950596
0.108692
0.114969
0.209229
0.239954
0.531573
1.0521
0.640855
0.218431
0.268147
0.468586
0.137573
0.059343
0.108286
0.172743
0.371725
0.182956
0.0345353
0.914132
0.769869
0.75699
0.967128
0.0761939
0.330961
0.452584
0.694927
0.69873
0.089416
0.123628
1.2408
0.777226
0.127234
0.46407
0.0870956
0.327336
0.0975809
0.0657019
0.370733
0.096188
0.34033
2.24053
3.01116
2.86531
3.22338
2.35922
1.52734
0.00949099
0.0102354
0.0108458
0.0118281
0.0132392
0.0115011
0.00925357
0.00846653
0.0084262
0.00810751
0.00804414
0.0084276
0.00941916
0.00960664
0.013547
0.0304875
0.0242424
0.0164297
0.0215785
0.0290108
0.02257
0.0339973
0.066039
0.0489649
0.0351858
0.03196
0.0320408
0.0490676
0.0524533
0.0913102
0.13795
0.12724
0.0996869
0.259721
0.28373
0.488126
0.503132
1.06143
0.581288
0.351022
0.311635
0.390112
0.759655
0.34176
0.272626
0.771973
0.38712
0.259749
0.77282
0.234333
0.493548
0.682095
0.363991
0.247037
0.389709
0.67527
0.308921
0.144096
0.239731
0.107305
0.0833852
0.135409
0.345845
0.638909
0.936922
0.551958
0.152223
0.303779
0.501679
0.171314
0.0733786
0.0855427
0.167586
0.2512
0.219032
0.150468
0.815104
0.992395
0.884663
1.07117
0.0534666
0.229833
0.283659
0.769575
0.632246
0.109851
0.140596
1.05489
0.630632
0.419745
0.318367
0.142656
0.546001
0.190016
0.301797
0.431717
0.148355
0.574253
2.26466
2.87656
2.7591
3.17326
2.56568
1.87233
0.0102726
0.0110196
0.0116662
0.0126989
0.0141619
0.0117728
0.00916154
0.00847235
0.00879011
0.0086475
0.00881714
0.00939038
0.0105026
0.0103719
0.0146855
0.029831
0.0235501
0.0168251
0.0222953
0.0283077
0.0219883
0.0369231
0.0598525
0.0521113
0.0296527
0.0275606
0.0363024
0.0508628
0.0550587
0.0937977
0.131356
0.150699
0.0840265
0.195137
0.215807
0.461343
0.617695
0.920735
0.489371
0.280739
0.231255
0.336422
0.614789
0.518133
0.535682
0.867734
0.394456
0.172985
0.642164
0.271065
0.44012
0.536619
0.238802
0.193429
0.354913
0.580117
0.1556
0.145786
0.291498
0.118012
0.0742599
0.116108
0.376917
0.618075
0.828216
0.457495
0.125114
0.308735
0.489645
0.185457
0.0835362
0.0825809
0.180846
0.212697
0.316701
0.305296
0.67844
0.891381
0.776466
0.905367
0.0967095
0.174898
0.191711
0.703413
0.563699
0.176126
0.151492
0.872129
0.505016
0.4121
0.268633
0.140764
0.574252
0.371575
0.525314
0.507595
0.235291
0.77023
2.25364
2.74864
2.66629
3.05736
2.68173
2.16935
0.0151053
0.0159148
0.0166894
0.0178852
0.0183545
0.0121257
0.00829765
0.00857486
0.010654
0.012115
0.0139037
0.0154242
0.0160339
0.0159493
0.016684
0.0169607
0.0158828
0.0174523
0.0185635
0.0154358
0.0137517
0.0181894
0.0322549
0.0677464
0.100855
0.0963545
0.0707224
0.0446393
0.0670956
0.10127
0.112254
0.144834
0.117928
0.0353453
0.0262608
0.193881
0.377525
0.277925
0.193508
0.142757
0.101553
0.1007
0.27707
0.556075
0.880059
0.908694
0.379958
0.0767169
0.236095
0.283134
0.169415
0.072197
0.110701
0.101417
0.215174
0.319698
0.17353
0.135809
0.137847
0.0413616
0.0138694
0.102259
0.186717
0.211027
0.250398
0.167549
0.0666347
0.142298
0.16414
0.092725
0.0615221
0.0781501
0.187565
0.251738
0.530435
0.311037
0.307309
0.277296
0.167039
0.164327
0.117369
0.101732
0.0674014
0.217121
0.227275
0.140316
0.0897167
0.156125
0.0781082
0.156788
0.0829883
0.0883274
0.370743
0.957594
1.16461
0.743022
0.647655
1.33721
2.14531
2.18477
2.23902
2.49921
2.89618
3.12433
0.0124534
0.0118987
0.0102683
0.00764674
0.00667602
0.00629752
0.0062169
0.00592954
0.00541506
0.00520153
0.00513188
0.00496401
0.00491536
0.00505339
0.00521517
0.0048236
0.00530926
0.00584823
0.00497006
0.00391468
0.00452762
0.00796605
0.0110805
0.0154047
0.0245668
0.051721
0.045048
0.047616
0.0581588
0.0573715
0.0399954
0.0184884
0.0149265
0.0113113
0.0125046
0.0349598
0.104556
0.061494
0.0510265
0.0512799
0.0603798
0.0733317
0.0810872
0.0968849
0.0595498
0.111769
0.143069
0.131759
0.105227
0.0838399
0.104049
0.0877155
0.053484
0.043232
0.0536716
0.074998
0.0872066
0.0486816
0.0898534
0.0947284
0.0751608
0.0678294
0.0419545
0.0612334
0.128494
0.180893
0.181928
0.0847967
0.0267107
0.0141567
0.016315
0.019874
0.0907069
0.350314
0.31019
0.0875985
0.0433553
0.0291903
0.0521728
0.0407056
0.0465894
0.0504047
0.0221917
0.0137755
0.0180609
0.0239366
0.0306101
0.0193359
0.0213569
0.0541869
0.0546629
0.0524279
0.180637
0.443838
0.52894
0.461517
0.854126
1.70829
1.65196
1.50204
1.52467
1.61671
1.92185
2.25611
0.00418715
0.00322886
0.00235667
0.00192573
0.00197085
0.00216618
0.00207022
0.00183959
0.00187891
0.0022744
0.00242686
0.00205227
0.00179012
0.00189585
0.00222539
0.00221361
0.00198546
0.00175076
0.0014852
0.00148277
0.00153807
0.00173781
0.00208031
0.00266403
0.0031367
0.00368681
0.00380226
0.00411564
0.00841498
0.0131732
0.0122392
0.0107594
0.00877717
0.00850579
0.00725228
0.00531167
0.0320234
0.0251464
0.0173624
0.0100849
0.0109248
0.0129057
0.0184803
0.0277417
0.0217806
0.0140109
0.0132512
0.0215452
0.0393513
0.0356711
0.0245632
0.0144358
0.00971894
0.00634753
0.00650615
0.0324153
0.039752
0.0287868
0.0325538
0.039243
0.0361566
0.024731
0.0126934
0.0130669
0.0351986
0.143212
0.121447
0.0748195
0.0487931
0.033275
0.0136446
0.0056009
0.0113209
0.0599282
0.157603
0.081315
0.0515321
0.0313874
0.021307
0.0705638
0.027706
0.0141264
0.00272957
0.00436342
0.00956425
0.0225526
0.0166927
0.0113281
0.0149667
0.0322381
0.046403
0.0163298
0.0162658
0.0735942
0.202051
0.255481
0.637378
1.08188
0.923747
0.721037
0.634747
0.663568
0.902358
1.18505
0.000716348
0.000697538
0.000755772
0.000919928
0.00102523
0.0010343
0.000985975
0.00102509
0.0011533
0.00130798
0.00142405
0.00145993
0.00146418
0.00149012
0.00149303
0.00146762
0.00142884
0.00142532
0.00142034
0.00141323
0.00148169
0.00174118
0.00233058
0.00308099
0.00410169
0.00597695
0.010896
0.0190908
0.0183949
0.0172309
0.0190467
0.0265021
0.0409231
0.0720601
0.0672303
0.0559755
0.0463329
0.0374582
0.0390076
0.0433297
0.0407341
0.0363617
0.0314817
0.0247955
0.0259542
0.0327881
0.0507267
0.0462263
0.0430572
0.0374473
0.0343033
0.025498
0.0136254
0.00643382
0.00466866
0.00619068
0.0170515
0.0120491
0.00463164
0.00141403
0.000907406
0.000978539
0.00173231
0.0027868
0.00538941
0.0244116
0.0246463
0.0231419
0.0209659
0.0182057
0.0157797
0.0142111
0.013166
0.0160803
0.0373012
0.0343242
0.0319417
0.0295609
0.0258434
0.0358621
0.0341315
0.0239892
0.00948845
0.00505083
0.00462553
0.00428401
0.00536662
0.0106449
0.0166691
0.0158149
0.0124061
0.00450655
0.00467399
0.0186038
0.0953964
0.126124
0.329417
0.458644
0.283725
0.198929
0.256675
0.288995
0.317739
0.425807
0.00118773
0.00127231
0.00134876
0.0014353
0.00142028
0.00137769
0.00133692
0.00131613
0.00130132
0.00128414
0.00125567
0.0012283
0.00125463
0.00137627
0.00162566
0.00210934
0.00297961
0.00436841
0.00651476
0.0102129
0.0173243
0.0309392
0.0541575
0.0844282
0.123686
0.178566
0.25815
0.364179
0.359221
0.341083
0.357077
0.404359
0.472503
0.562156
0.518116
0.414234
0.269578
0.249148
0.264567
0.307035
0.313349
0.299148
0.271443
0.225084
0.259714
0.344889
0.436565
0.392748
0.304096
0.249205
0.186979
0.122441
0.0823118
0.0590496
0.0370428
0.0222905
0.0204834
0.0207205
0.0203873
0.0198806
0.0186288
0.0200057
0.0230381
0.02911
0.0275823
0.0275804
0.0275885
0.0281252
0.0284947
0.0254672
0.0197255
0.015122
0.0140028
0.0142046
0.0160934
0.0199114
0.0293895
0.0448894
0.0692024
0.076813
0.0763703
0.0633686
0.0551368
0.045566
0.0267267
0.00688803
0.00114209
0.00330281
0.0131489
0.0118674
0.00642382
0.00655052
0.00676121
0.00793677
0.0373661
0.0546327
0.117259
0.178766
0.104333
0.0522847
0.0326551
0.155748
0.298393
0.260109
0.00115616
0.00113247
0.00115743
0.00124703
0.00143131
0.00187555
0.00287977
0.0048001
0.0078217
0.0114231
0.0149726
0.0193147
0.0257119
0.0353725
0.0493114
0.0686846
0.0958691
0.132689
0.182772
0.251571
0.348944
0.479174
0.639209
0.802677
0.910161
1.00087
1.10414
1.15662
1.11427
1.04429
1.06008
1.09993
1.16129
1.14602
1.05214
0.92459
0.75232
0.769093
0.843166
0.950602
1.03675
1.06709
1.06239
1.08108
1.2119
1.32479
1.28836
1.15228
0.95905
0.787635
0.551251
0.330206
0.219412
0.198332
0.180583
0.159006
0.134287
0.135992
0.13859
0.134917
0.131008
0.137338
0.151959
0.175025
0.179609
0.175347
0.174161
0.17296
0.168185
0.151857
0.123948
0.0925662
0.0752243
0.0723579
0.0773319
0.097954
0.140031
0.200651
0.248443
0.24509
0.232415
0.203334
0.186377
0.183337
0.165687
0.138963
0.118129
0.114503
0.0982532
0.0656822
0.0278314
0.0138771
0.0122517
0.0099012
0.0135761
0.0212216
0.0380559
0.0550376
0.0343283
0.0198568
0.0210062
0.0218467
0.0347685
0.0575619
0.0100378
0.0133713
0.0182665
0.0257678
0.0371445
0.05584
0.0866928
0.131508
0.187571
0.245972
0.301321
0.359475
0.425938
0.502789
0.588472
0.682178
0.78147
0.883569
0.987279
1.09434
1.20487
1.31805
1.4282
1.46912
1.49046
1.50923
1.52499
1.53874
1.50918
1.43712
1.42926
1.4369
1.45445
1.43026
1.37591
1.29851
1.22805
1.2382
1.27806
1.35532
1.43751
1.45265
1.45215
1.46781
1.47827
1.47076
1.44326
1.38005
1.29665
1.14386
0.869186
0.618646
0.589606
0.651453
0.700314
0.688585
0.666094
0.661679
0.647855
0.63671
0.650441
0.690299
0.755061
0.816448
0.807395
0.769563
0.718953
0.65745
0.584502
0.488796
0.420008
0.397162
0.395459
0.415067
0.463771
0.545099
0.656889
0.693712
0.68181
0.639314
0.583238
0.511732
0.472892
0.445863
0.413141
0.379798
0.348427
0.31159
0.261681
0.199427
0.132611
0.0853884
0.0606264
0.029846
0.0166381
0.012018
0.0131974
0.0152651
0.0102147
0.00597175
0.00548295
0.00631444
0.00934878
0.0127122
0.278549
0.314391
0.359553
0.417496
0.490311
0.584726
0.696741
0.811856
0.925546
1.01412
1.07954
1.12851
1.18162
1.23815
1.29396
1.34499
1.39602
1.45043
1.48651
1.51057
1.51642
1.51792
1.50896
1.49015
1.46031
1.42004
1.38202
1.33793
1.27593
1.23973
1.2123
1.20531
1.2043
1.19404
1.18727
1.17437
1.15983
1.16958
1.20182
1.24392
1.25198
1.25623
1.24806
1.26626
1.29697
1.32178
1.30702
1.27867
1.25408
1.18313
1.06581
1.04183
1.1249
1.32202
1.41743
1.42146
1.41198
1.38674
1.36981
1.38497
1.42893
1.49856
1.55139
1.54693
1.50785
1.43498
1.33529
1.20581
1.06874
0.981583
0.955015
0.965519
1.00366
1.06849
1.13007
1.19062
1.21903
1.20497
1.15582
1.08366
1.00265
0.920599
0.846525
0.794861
0.75338
0.7152
0.669244
0.599916
0.512669
0.414634
0.315078
0.232575
0.170447
0.102639
0.0452476
0.0205462
0.0122305
0.00873587
0.006954
0.00763572
0.0124757
0.0237282
0.0374517
0.039456
0.918925
0.958021
1.00811
1.06214
1.11601
1.17329
1.23527
1.30108
1.36313
1.40019
1.40069
1.39279
1.38276
1.37464
1.36079
1.3411
1.31772
1.2935
1.26708
1.2421
1.21598
1.1985
1.17442
1.14695
1.11597
1.0827
1.06301
1.04213
1.01858
1.00242
0.992167
0.988128
0.981762
0.971753
0.969476
0.966686
0.968796
0.973169
0.985111
1.00428
1.01679
1.02441
1.02499
1.03511
1.0412
1.05297
1.06883
1.0942
1.11492
1.09101
1.09378
1.17497
1.35309
1.49787
1.51661
1.51001
1.50939
1.51854
1.55067
1.61659
1.71188
1.80027
1.81504
1.80139
1.75842
1.68656
1.59392
1.5015
1.45351
1.42353
1.41668
1.42138
1.43567
1.44658
1.44875
1.44345
1.41845
1.37089
1.31208
1.24719
1.18877