/*--------------------------------*- C++ -*----------------------------------*\
| =========                 |                                                 |
| \\      /  F ield         | OpenFOAM: The Open Source CFD Toolbox           |
|  \\    /   O peration     | Version:  v1912                                 |
|   \\  /    A nd           | Website:  www.openfoam.com                      |
|    \\/     M anipulation  |                                                 |
\*---------------------------------------------------------------------------*/
FoamFile
{
    version     2.0;
    format      ascii;
    class       volVectorField;
    location    "80";
    object      U;
}
// * * * * * * * * * * * * * * * * * * * * * * * * * * * * * * * * * * * * * //

dimensions      [0 1 -1 0 0 0 0];


internalField   nonuniform List<vector> 
14268
(
(0.279251 0.0239683 0)
(0.264579 0.0220826 0)
(0.250396 0.0200886 0)
(0.236204 0.0193807 0)
(0.235101 0.018211 0)
(0.25713 0.0181727 0)
(0.310619 0.0216534 0)
(0.372785 0.0274106 0)
(0.385536 0.0320585 0)
(0.375531 0.0296664 0)
(0.354444 0.0275394 0)
(0.33774 0.0269952 0)
(0.316165 0.0254693 0)
(0.297355 0.0247816 0)
(0.290868 0.0223591 0)
(0.334543 0.0243453 0)
(0.338999 0.024916 0)
(0.295307 0.0211863 0)
(0.182768 0.0109608 0)
(0.212084 0.0114878 0)
(0.159005 0.00102712 0)
(0.126499 0.00078454 0)
(0.115883 -0.00522104 0)
(0.287089 0.0175289 0)
(0.0683216 -0.0196594 0)
(-0.162148 -0.141207 0)
(-0.312555 -0.150744 0)
(-0.608295 -0.151745 0)
(-0.6516 -0.18109 0)
(-0.334392 -0.155171 0)
(0.0405435 -0.115462 0)
(0.0641815 -0.0970649 0)
(-0.485914 -0.17874 0)
(-0.519224 -0.237364 0)
(-0.206133 -0.230909 0)
(-0.0421772 -0.154375 0)
(-0.244782 -0.0962232 0)
(-1.04844 -0.300349 0)
(-0.64659 -0.269278 0)
(0.209918 -0.253779 0)
(0.271669 -0.156021 0)
(0.204233 -0.105322 0)
(-0.250876 -0.148089 0)
(-0.802849 -0.194943 0)
(-0.920262 -0.243069 0)
(-0.862336 -0.286865 0)
(-1.06164 -0.270279 0)
(-0.734013 -0.207424 0)
(-0.00771876 -0.159609 0)
(0.685034 -0.12642 0)
(0.152957 -0.156457 0)
(-0.00381013 -0.0431496 0)
(-0.445692 -0.0621177 0)
(-0.558717 -0.25911 0)
(0.307102 -0.231961 0)
(0.440641 0.0244874 0)
(-0.897595 -0.113621 0)
(-0.900208 -0.163524 0)
(-0.559676 -0.186674 0)
(-0.257229 -0.112206 0)
(-0.174221 -0.226544 0)
(-0.112331 -0.281655 0)
(-0.0662379 -0.187387 0)
(-0.627222 -0.201165 0)
(-0.828898 -0.172418 0)
(-1.08795 -0.225512 0)
(-1.05198 -0.379945 0)
(-0.591555 -0.264518 0)
(-0.486786 -0.107761 0)
(-0.364023 -0.21727 0)
(-0.677428 -0.235503 0)
(-1.03462 -0.222042 0)
(-0.71569 -0.258445 0)
(0.657033 -0.0650333 0)
(0.368654 -0.0380398 0)
(-1.16546 -0.2529 0)
(-0.481794 -0.225061 0)
(0.240262 -0.310207 0)
(-0.184579 -0.0732642 0)
(0.219391 -0.173219 0)
(0.432262 -0.0523554 0)
(-0.00819234 -0.175848 0)
(0.429505 -0.139626 0)
(0.496473 -0.0290276 0)
(-0.199466 -0.151128 0)
(-0.304534 -0.224378 0)
(-0.246749 -0.318009 0)
(0.258006 -0.282048 0)
(0.527905 -0.119923 0)
(0.134251 -0.0847127 0)
(-0.995722 -0.274317 0)
(-0.176166 -0.329117 0)
(0.406058 -0.110054 0)
(0.1745 -0.106913 0)
(-0.701092 -0.113599 0)
(-0.596214 -0.171521 0)
(-0.71914 -0.225544 0)
(-0.806602 -0.115712 0)
(-1.23081 -0.22392 0)
(-1.22586 -0.300981 0)
(-0.906112 -0.259542 0)
(-0.760922 -0.21064 0)
(-0.672483 -0.246314 0)
(-0.651171 -0.374404 0)
(0.270594 0.0320935 0)
(0.25462 0.030794 0)
(0.239055 0.0297221 0)
(0.223362 0.026936 0)
(0.222709 0.0266494 0)
(0.247614 0.0282968 0)
(0.303828 0.0340327 0)
(0.367242 0.0431744 0)
(0.377329 0.0437358 0)
(0.367069 0.0456056 0)
(0.34521 0.0437034 0)
(0.329323 0.0408244 0)
(0.308599 0.0385603 0)
(0.291134 0.0348205 0)
(0.284552 0.0335377 0)
(0.32667 0.0386649 0)
(0.328373 0.043513 0)
(0.283323 0.0419721 0)
(0.170952 0.027384 0)
(0.192765 0.0292964 0)
(0.131269 0.0309822 0)
(0.113511 0.0240553 0)
(0.116719 0.0209987 0)
(0.262801 0.0382879 0)
(0.0291761 0.045062 0)
(-0.308904 0.101895 0)
(-0.509421 0.078555 0)
(-0.649531 0.0298114 0)
(-0.69004 0.0286831 0)
(-0.371066 0.0376121 0)
(-0.0589132 0.0861681 0)
(-0.192074 0.0937015 0)
(-0.572036 0.0874706 0)
(-0.543783 0.102547 0)
(-0.286221 0.147079 0)
(-0.216767 0.119418 0)
(-0.364156 0.0634606 0)
(-1.05056 0.0899587 0)
(-0.580025 0.0352223 0)
(-0.0691473 0.180947 0)
(-0.214863 0.125957 0)
(-0.308891 0.0943092 0)
(-0.308909 0.110625 0)
(-0.704805 0.0676728 0)
(-0.851959 0.0640801 0)
(-0.826519 0.111506 0)
(-1.06421 0.0418107 0)
(-0.72514 -0.0126375 0)
(-0.080519 0.0534648 0)
(0.291061 0.215821 0)
(-0.0813145 0.178695 0)
(-0.259512 0.0372796 0)
(-0.411102 -0.0063473 0)
(-0.381677 0.108245 0)
(0.453608 0.230604 0)
(0.630246 0.129867 0)
(-0.867141 -0.0140052 0)
(-0.855576 -0.0227919 0)
(-0.537074 0.0617356 0)
(-0.134603 0.0400793 0)
(-0.262764 0.156655 0)
(-0.295606 0.204671 0)
(-0.131552 0.172812 0)
(-0.639096 0.0955451 0)
(-0.672237 0.0304643 0)
(-0.991396 0.0249872 0)
(-1.05838 0.124855 0)
(-0.660987 0.0982662 0)
(-0.691373 -0.0384099 0)
(-0.695495 0.109035 0)
(-0.679581 0.117186 0)
(-1.07379 0.0116416 0)
(-0.655811 0.0384951 0)
(0.530424 0.139401 0)
(0.315947 0.167246 0)
(-1.26161 0.0129587 0)
(-0.344563 0.0295645 0)
(-0.0660912 0.255922 0)
(-0.408971 -0.00796693 0)
(-0.0375163 0.120125 0)
(0.161145 0.110055 0)
(-0.270568 0.131292 0)
(0.146289 0.151637 0)
(0.373178 0.1327 0)
(-0.219754 0.127988 0)
(-0.357222 0.136657 0)
(-0.331613 0.211 0)
(0.0762576 0.254372 0)
(0.220242 0.185988 0)
(-0.27483 0.120048 0)
(-0.995422 0.0755272 0)
(-0.229017 0.176233 0)
(0.19193 0.143875 0)
(-0.0718948 0.164446 0)
(-0.727427 -0.00508425 0)
(-0.705502 0.043271 0)
(-1.0173 0.0552154 0)
(-1.13816 -0.0632045 0)
(-1.26103 -0.0237266 0)
(-1.18965 0.0226972 0)
(-0.966229 0.0292408 0)
(-0.824915 0.0245188 0)
(-0.740228 0.08492 0)
(-0.777175 0.204642 0)
(0.274637 0.0255348 0)
(0.258645 0.023445 0)
(0.243077 0.0212726 0)
(0.227464 0.0196576 0)
(0.228139 0.0172029 0)
(0.254432 0.0157069 0)
(0.311817 0.018672 0)
(0.376099 0.0264388 0)
(0.385821 0.0324202 0)
(0.375585 0.031887 0)
(0.35327 0.0298324 0)
(0.335789 0.0288305 0)
(0.313647 0.0276718 0)
(0.294469 0.0259844 0)
(0.286322 0.0213174 0)
(0.328367 0.0226452 0)
(0.330534 0.0277723 0)
(0.285945 0.028515 0)
(0.172869 0.0152812 0)
(0.194681 0.011872 0)
(0.137396 0.00496409 0)
(0.124651 0.00206317 0)
(0.109327 -0.00870487 0)
(0.24211 0.0172668 0)
(-0.00973612 0.00129073 0)
(-0.20581 -0.110462 0)
(-0.371611 -0.123367 0)
(-0.631492 -0.130515 0)
(-0.660241 -0.173518 0)
(-0.361487 -0.149731 0)
(-0.019915 -0.103888 0)
(-0.0678224 -0.0680604 0)
(-0.500167 -0.138316 0)
(-0.504484 -0.220407 0)
(-0.234989 -0.211654 0)
(-0.111208 -0.143602 0)
(-0.323916 -0.0551529 0)
(-0.931688 -0.226372 0)
(-0.604931 -0.273525 0)
(-0.045793 -0.232394 0)
(0.00943648 -0.124214 0)
(-0.112501 -0.0963229 0)
(-0.370699 -0.0972227 0)
(-0.725251 -0.140333 0)
(-0.895884 -0.225599 0)
(-0.829563 -0.258634 0)
(-1.00629 -0.2384 0)
(-0.687825 -0.182278 0)
(-0.054161 -0.145323 0)
(0.476498 -0.132888 0)
(-0.0893458 -0.130643 0)
(-0.188175 -0.0314853 0)
(-0.447119 -0.0534311 0)
(-0.620242 -0.237303 0)
(0.262305 -0.220259 0)
(0.746051 0.145198 0)
(-0.788246 -0.0418493 0)
(-0.787354 -0.153013 0)
(-0.723512 -0.268035 0)
(-0.227699 -0.0934371 0)
(-0.253659 -0.203304 0)
(-0.230564 -0.264636 0)
(-0.125262 -0.148984 0)
(-0.583563 -0.131558 0)
(-0.661855 -0.12677 0)
(-0.988908 -0.186814 0)
(-1.03559 -0.350484 0)
(-0.592518 -0.224556 0)
(-0.474888 -0.0435052 0)
(-0.219313 -0.17839 0)
(-0.694163 -0.19547 0)
(-1.00603 -0.201644 0)
(-0.647481 -0.306295 0)
(0.857762 -0.0795908 0)
(0.380707 0.0783458 0)
(-1.16196 -0.131298 0)
(-0.438823 -0.135173 0)
(0.222478 -0.196022 0)
(-0.147992 -0.0257551 0)
(0.196058 -0.084373 0)
(0.397969 -0.0230816 0)
(-0.0850686 -0.157648 0)
(0.193551 -0.152501 0)
(0.271173 -0.00841525 0)
(-0.214791 -0.0889496 0)
(-0.336755 -0.19581 0)
(-0.320795 -0.302518 0)
(0.0773293 -0.270902 0)
(0.21979 -0.110326 0)
(-0.2934 -0.0472595 0)
(-0.974007 -0.236469 0)
(-0.26249 -0.271166 0)
(0.430429 -0.0703169 0)
(0.13869 -0.0510555 0)
(-0.71635 -0.0685045 0)
(-0.562043 -0.141228 0)
(-0.785934 -0.203351 0)
(-1.11793 -0.123727 0)
(-1.37943 -0.20102 0)
(-1.34358 -0.285845 0)
(-1.01061 -0.23459 0)
(-0.860356 -0.197766 0)
(-0.749727 -0.226746 0)
(-0.661848 -0.339172 0)
(0.276072 0.0333095 0)
(0.259187 0.0317939 0)
(0.242745 0.0305479 0)
(0.226436 0.0272216 0)
(0.227899 0.0254447 0)
(0.255879 0.0240333 0)
(0.31446 0.0278346 0)
(0.379405 0.0397197 0)
(0.38712 0.0441817 0)
(0.37729 0.0470759 0)
(0.35354 0.0452709 0)
(0.335084 0.0421424 0)
(0.312111 0.0398573 0)
(0.292905 0.035549 0)
(0.283833 0.0312567 0)
(0.32542 0.0350123 0)
(0.328067 0.0439641 0)
(0.283104 0.0458884 0)
(0.169338 0.0291875 0)
(0.189174 0.0291061 0)
(0.134005 0.0317937 0)
(0.125466 0.0249512 0)
(0.103175 0.0119693 0)
(0.2275 0.0373247 0)
(-0.0161927 0.0538792 0)
(-0.309185 0.10078 0)
(-0.509719 0.0764031 0)
(-0.65103 0.0247136 0)
(-0.668785 0.000458227 0)
(-0.391224 -0.0258273 0)
(-0.0902874 0.0473304 0)
(-0.171719 0.0923542 0)
(-0.535945 0.0867345 0)
(-0.531136 0.0611711 0)
(-0.31049 0.0990578 0)
(-0.191734 0.110205 0)
(-0.381249 0.0817417 0)
(-0.88492 0.0511256 0)
(-0.620338 0.0462237 0)
(-0.0353169 0.135771 0)
(-0.188335 0.109644 0)
(-0.218568 0.102755 0)
(-0.473598 0.0511417 0)
(-0.729115 0.0442325 0)
(-0.821898 0.0579939 0)
(-0.786064 0.102478 0)
(-1.01182 0.0178479 0)
(-0.665672 -0.110422 0)
(-0.118925 -0.0419671 0)
(0.489524 0.223006 0)
(-0.0277735 0.179855 0)
(-0.268642 0.0328495 0)
(-0.477983 0.0025001 0)
(-0.356242 0.0576196 0)
(0.229107 0.0754421 0)
(0.560339 0.141961 0)
(-0.656246 0.0891673 0)
(-0.721929 -0.0272211 0)
(-0.471981 0.113857 0)
(-0.0309154 0.0251217 0)
(-0.291293 0.152489 0)
(-0.314612 0.176456 0)
(-0.156296 0.17956 0)
(-0.617851 0.0659551 0)
(-0.698236 0.0129381 0)
(-0.990698 0.0236241 0)
(-1.05764 0.0385507 0)
(-0.748634 -0.0140763 0)
(-0.83096 -0.106391 0)
(-0.50412 0.102204 0)
(-0.336959 0.158768 0)
(-1.00882 -0.00965102 0)
(-0.604339 -0.0564159 0)
(1.39894 0.193545 0)
(0.33026 0.196352 0)
(-1.04836 -0.0440831 0)
(-0.267508 -0.159577 0)
(-0.190748 0.160606 0)
(-0.387921 -0.00789495 0)
(0.200908 -0.0103974 0)
(0.090726 0.0963872 0)
(-0.239048 0.130778 0)
(0.125362 0.0962391 0)
(0.11772 0.0802923 0)
(-0.234374 0.123406 0)
(-0.384901 0.133221 0)
(-0.387182 0.200583 0)
(0.461824 0.273049 0)
(0.218338 0.197511 0)
(-0.131151 0.145898 0)
(-0.784054 0.062805 0)
(-0.327117 -0.0525468 0)
(-0.260121 0.0322017 0)
(-0.0859871 0.161898 0)
(-0.739798 -0.0245698 0)
(-0.46735 0.0576449 0)
(-0.659579 0.0832685 0)
(-0.91602 -0.0143273 0)
(-1.3041 -0.0392221 0)
(-1.32831 -0.0317345 0)
(-0.959931 -0.0262746 0)
(-0.965306 -0.024455 0)
(-0.925686 0.0404643 0)
(-0.778589 0.179329 0)
(0.277301 0.028013 0)
(0.260552 0.0258696 0)
(0.24428 0.0236494 0)
(0.227814 0.0210101 0)
(0.229766 0.0169627 0)
(0.258413 0.0138249 0)
(0.317679 0.0162273 0)
(0.38327 0.0261132 0)
(0.392643 0.0336349 0)
(0.382405 0.0349845 0)
(0.358688 0.0331919 0)
(0.339035 0.0316767 0)
(0.314895 0.0305517 0)
(0.294804 0.0278005 0)
(0.283521 0.0207226 0)
(0.322439 0.0213279 0)
(0.326744 0.0311714 0)
(0.283249 0.0373148 0)
(0.170937 0.021054 0)
(0.18562 0.0133958 0)
(0.130627 0.00997365 0)
(0.129854 0.00497048 0)
(0.0986334 -0.0106255 0)
(0.214484 0.0217885 0)
(-0.0656261 0.0281743 0)
(-0.263259 -0.074781 0)
(-0.441148 -0.0886292 0)
(-0.634268 -0.105531 0)
(-0.65341 -0.165068 0)
(-0.406679 -0.148321 0)
(-0.0954441 -0.0948231 0)
(-0.162449 -0.0363911 0)
(-0.52743 -0.0952915 0)
(-0.527381 -0.202138 0)
(-0.217534 -0.172689 0)
(-0.137434 -0.128282 0)
(-0.446202 0.00594254 0)
(-0.976299 -0.144985 0)
(-0.555005 -0.248936 0)
(0.0511337 -0.151349 0)
(0.223404 -0.0550745 0)
(-0.0774632 -0.049417 0)
(-0.441068 -0.0129455 0)
(-0.747048 -0.0845366 0)
(-0.855838 -0.206735 0)
(-0.757925 -0.225732 0)
(-0.968425 -0.215789 0)
(-0.652501 -0.181346 0)
(-0.113259 -0.159601 0)
(0.442053 -0.118669 0)
(0.0682285 -0.0389124 0)
(-0.319363 -0.0243424 0)
(-0.545975 -0.0413505 0)
(-0.335728 -0.311763 0)
(0.286571 -0.152737 0)
(0.678597 0.128587 0)
(-0.549962 0.0210501 0)
(-0.570944 -0.12024 0)
(-0.115218 -0.216304 0)
(-0.186652 -0.0551293 0)
(-0.107257 -0.119335 0)
(-0.230922 -0.235757 0)
(-0.148567 -0.107507 0)
(-0.759498 -0.0763022 0)
(-0.620374 -0.0701846 0)
(-0.968771 -0.12055 0)
(-1.03682 -0.278699 0)
(-0.677267 -0.166403 0)
(-0.704908 -0.12782 0)
(-0.926469 -0.175479 0)
(-0.357614 -0.114165 0)
(-0.876232 -0.132932 0)
(-0.400822 -0.158548 0)
(1.87706 -0.0287313 0)
(0.285848 0.223298 0)
(-1.14348 -0.0852574 0)
(-0.298257 -0.173949 0)
(-0.333949 -0.214889 0)
(-0.354798 -0.106034 0)
(0.185799 -0.0863241 0)
(-0.343502 -0.0605483 0)
(-0.248795 -0.163215 0)
(0.17498 -0.0987172 0)
(0.176506 0.053638 0)
(-0.209548 -0.0592323 0)
(-0.349898 -0.173939 0)
(-0.142325 -0.364361 0)
(0.970555 -0.186104 0)
(0.423837 -0.0580491 0)
(0.191037 0.0892414 0)
(-0.684404 -0.162679 0)
(-0.280869 -0.152328 0)
(-0.0969318 -0.124737 0)
(0.00223279 0.0211097 0)
(-0.785966 -0.0516937 0)
(-0.513866 -0.112248 0)
(-0.646781 -0.114857 0)
(-0.749332 -0.0411968 0)
(-1.10326 -0.129681 0)
(-1.05325 -0.22805 0)
(-0.883319 -0.181484 0)
(-0.809074 -0.154111 0)
(-1.01145 -0.238192 0)
(-0.761382 -0.315395 0)
(0.277267 0.0340739 0)
(0.26033 0.0323943 0)
(0.243985 0.0310464 0)
(0.22707 0.0271339 0)
(0.229081 0.0235494 0)
(0.258672 0.0193723 0)
(0.318796 0.02115 0)
(0.384809 0.0354102 0)
(0.394868 0.0444803 0)
(0.383398 0.0480793 0)
(0.360456 0.0466759 0)
(0.340408 0.043491 0)
(0.315596 0.041131 0)
(0.294739 0.0364248 0)
(0.280939 0.0288382 0)
(0.317229 0.0308819 0)
(0.32163 0.0434842 0)
(0.279567 0.0493692 0)
(0.168782 0.0311158 0)
(0.179642 0.0284272 0)
(0.124818 0.0307878 0)
(0.129607 0.025078 0)
(0.0955122 0.00493079 0)
(0.220358 0.0426153 0)
(-0.0721207 0.0632267 0)
(-0.289955 0.0915108 0)
(-0.488551 0.0686565 0)
(-0.637418 0.0162536 0)
(-0.670292 -0.0254663 0)
(-0.420869 -0.074131 0)
(-0.131999 0.0106263 0)
(-0.183247 0.0811938 0)
(-0.522979 0.0718967 0)
(-0.496213 0.0134273 0)
(-0.264043 0.00674982 0)
(-0.364455 0.0794131 0)
(-0.522131 0.0610537 0)
(-1.01576 0.0151645 0)
(-0.520658 -0.182293 0)
(-0.386036 -0.0816439 0)
(-0.417509 0.0502907 0)
(-0.407224 0.05008 0)
(-0.475206 0.0566365 0)
(-0.741849 0.0585031 0)
(-0.839227 0.047502 0)
(-0.747448 0.0911082 0)
(-0.971736 0.00318722 0)
(-0.655265 -0.121625 0)
(-0.110731 -0.127801 0)
(0.417983 0.184249 0)
(-0.182635 0.124202 0)
(-0.32538 0.0406303 0)
(-0.621512 -0.0135708 0)
(-0.505383 0.0202516 0)
(0.362552 0.0386729 0)
(0.635916 0.210199 0)
(0.0599658 0.226688 0)
(-0.376439 -0.0100954 0)
(-0.186993 -0.0515695 0)
(-0.325446 -0.0782643 0)
(-0.647578 0.0262687 0)
(-0.30566 0.148735 0)
(-0.242877 0.0774544 0)
(-0.750354 0.114747 0)
(-0.801743 -0.0473288 0)
(-1.00023 0.0231451 0)
(-1.1235 -0.043094 0)
(-0.644305 -4.36392e-05 0)
(-0.795629 -0.0497296 0)
(-0.82256 -0.0930613 0)
(-1.29308 0.0513169 0)
(-1.0488 0.0117005 0)
(-0.945008 -0.35082 0)
(2.00073 0.205818 0)
(0.276779 0.278927 0)
(-1.08997 0.067216 0)
(-0.288467 -0.105505 0)
(-0.16979 0.073438 0)
(-0.405955 -0.00924412 0)
(0.186662 0.0686508 0)
(-0.482709 0.031679 0)
(-0.437314 0.0796663 0)
(-0.0755276 -0.0334652 0)
(0.0672277 0.0583542 0)
(-0.266068 0.105813 0)
(-0.454366 0.100879 0)
(-0.237631 0.18593 0)
(0.337454 0.117686 0)
(0.990332 0.254982 0)
(0.488783 0.231996 0)
(-0.666057 0.0543354 0)
(-0.282383 -0.115884 0)
(-0.0981261 0.0760127 0)
(0.0647014 0.100547 0)
(-0.845665 0.00861429 0)
(-0.586012 0.00804062 0)
(-0.833918 0.00711997 0)
(-0.87457 -0.0325865 0)
(-1.05448 -0.0501009 0)
(-0.975908 -0.100265 0)
(-0.925145 -0.139897 0)
(-0.727469 -0.0625466 0)
(-0.913887 0.0190259 0)
(-0.848931 0.113594 0)
(0.277062 0.0301395 0)
(0.260295 0.0280725 0)
(0.244124 0.025978 0)
(0.227223 0.0223194 0)
(0.229519 0.0164414 0)
(0.259549 0.0111608 0)
(0.319846 0.0126395 0)
(0.385984 0.0249688 0)
(0.397736 0.0346471 0)
(0.386424 0.0378899 0)
(0.364046 0.0366562 0)
(0.343482 0.0349094 0)
(0.318138 0.0337792 0)
(0.296321 0.0300212 0)
(0.278857 0.020386 0)
(0.310672 0.0195783 0)
(0.317486 0.033529 0)
(0.27744 0.0451455 0)
(0.168688 0.0268632 0)
(0.17546 0.0153487 0)
(0.119054 0.0134828 0)
(0.133009 0.00782154 0)
(0.0990558 -0.0116462 0)
(0.219736 0.0287593 0)
(-0.103774 0.0514514 0)
(-0.314314 -0.0363758 0)
(-0.499439 -0.0543849 0)
(-0.623915 -0.0801132 0)
(-0.648014 -0.159164 0)
(-0.372718 -0.15632 0)
(-0.10559 -0.0867672 0)
(-0.210455 -0.00189436 0)
(-0.516519 -0.0504379 0)
(-0.398758 -0.166533 0)
(-0.25551 -0.119413 0)
(-0.303597 -0.122142 0)
(-0.713914 0.0590872 0)
(-0.781536 -0.110203 0)
(-0.49841 -0.196887 0)
(-0.350381 -0.17035 0)
(-0.509893 -0.138866 0)
(-0.519533 -0.0712159 0)
(-0.522672 -0.000515454 0)
(-0.700139 -0.0607977 0)
(-0.7636 -0.188193 0)
(-0.643497 -0.193165 0)
(-0.83229 -0.195983 0)
(-0.708222 -0.276244 0)
(0.118527 -0.131937 0)
(0.261968 -0.0924428 0)
(-0.323261 0.018946 0)
(-0.292504 0.0415467 0)
(-0.747712 -0.0487333 0)
(-0.419769 -0.214437 0)
(0.766788 -0.123162 0)
(0.671653 0.21608 0)
(0.222066 0.164803 0)
(-0.215663 -0.106748 0)
(-0.185348 -0.0791393 0)
(-0.335656 -0.104773 0)
(-0.819505 -0.15202 0)
(-0.370276 -0.240282 0)
(-0.21157 0.0163946 0)
(-0.63221 -0.152952 0)
(-0.922554 -0.0254324 0)
(-1.05045 -0.139687 0)
(-1.09636 -0.185911 0)
(-0.0772974 -0.0988904 0)
(-0.697697 -0.100374 0)
(-0.835146 -0.0836641 0)
(-1.38129 -0.198619 0)
(-1.30209 -0.250427 0)
(-0.946401 -0.63511 0)
(1.1158 -0.102361 0)
(0.24391 0.349003 0)
(-1.10272 -0.0953412 0)
(-0.25772 -0.100811 0)
(-0.193547 -0.113724 0)
(-0.392909 -0.102427 0)
(0.214369 -0.10979 0)
(-0.484286 -0.019727 0)
(-0.431851 -0.178826 0)
(-0.0973242 -0.127742 0)
(0.1004 0.0810635 0)
(-0.257225 0.0321071 0)
(-0.489372 -0.163081 0)
(-0.305883 -0.259101 0)
(0.0385566 -0.202786 0)
(0.664288 0.0568834 0)
(0.378115 0.156538 0)
(-0.616237 -0.0679992 0)
(-0.293273 -0.175373 0)
(0.189636 -0.0767102 0)
(0.0978385 0.157208 0)
(-0.78839 -0.0101595 0)
(-0.634952 -0.133671 0)
(-0.957981 -0.160935 0)
(-1.15231 -0.0933913 0)
(-1.22651 -0.136155 0)
(-1.18366 -0.193418 0)
(-1.05308 -0.159459 0)
(-0.963511 -0.157973 0)
(-0.731625 -0.182886 0)
(-0.520768 -0.251842 0)
(0.275481 0.0346851 0)
(0.258742 0.0328504 0)
(0.242739 0.031359 0)
(0.225792 0.0268851 0)
(0.227626 0.021334 0)
(0.258017 0.0146835 0)
(0.319277 0.0150598 0)
(0.386226 0.0308893 0)
(0.39839 0.0443232 0)
(0.386565 0.0487378 0)
(0.364786 0.0477394 0)
(0.344014 0.0446917 0)
(0.318231 0.0423857 0)
(0.295612 0.0374688 0)
(0.27444 0.0266044 0)
(0.301843 0.0264254 0)
(0.309709 0.0424556 0)
(0.272228 0.0530556 0)
(0.165925 0.033452 0)
(0.169053 0.0280148 0)
(0.110838 0.0291801 0)
(0.131433 0.0244687 0)
(0.101302 6.06743e-05 0)
(0.212347 0.046516 0)
(-0.116997 0.0730848 0)
(-0.326762 0.0751278 0)
(-0.519479 0.051413 0)
(-0.625312 0.00620618 0)
(-0.636048 -0.0487589 0)
(-0.373507 -0.111962 0)
(-0.123491 -0.0172378 0)
(-0.220741 0.0735199 0)
(-0.510184 0.0562425 0)
(-0.386415 -0.01001 0)
(-0.25448 -0.00423844 0)
(-0.317165 0.0814081 0)
(-0.575877 0.0162874 0)
(-0.699038 -0.0158278 0)
(-0.491913 -0.134646 0)
(-0.27184 0.00726388 0)
(-0.371856 0.0901156 0)
(-0.46608 0.0506815 0)
(-0.543273 0.0235566 0)
(-0.72017 0.0318341 0)
(-0.797237 0.0354669 0)
(-0.674657 0.0817272 0)
(-0.921372 -0.000170531 0)
(-0.87865 -0.177844 0)
(0.837969 -0.0739472 0)
(0.166701 0.114123 0)
(-0.585131 0.0670782 0)
(-0.352965 0.0487494 0)
(-0.859269 -0.0383809 0)
(-0.475986 -0.244111 0)
(0.63036 -0.170369 0)
(0.86403 0.266252 0)
(0.0506619 0.144041 0)
(-0.267943 0.0394526 0)
(-0.231047 -0.0413759 0)
(-0.261267 0.0463826 0)
(-0.676017 0.00595853 0)
(-0.403604 0.0755111 0)
(-0.200271 0.0723222 0)
(-0.675756 0.144289 0)
(-0.46577 -0.0105309 0)
(-1.44472 0.0602575 0)
(-0.806636 -0.168545 0)
(-0.681791 -0.0910056 0)
(-0.691839 0.00345557 0)
(-0.855166 -0.0391283 0)
(-1.31628 -0.0125274 0)
(-1.11148 -0.0140224 0)
(-0.917893 -0.443559 0)
(0.108403 -0.0831251 0)
(0.257367 0.397933 0)
(-1.29448 0.00376365 0)
(-0.0396572 -0.213253 0)
(-0.169379 0.0768499 0)
(-0.235332 -0.0191278 0)
(0.176201 0.0615689 0)
(-0.226542 0.053018 0)
(-0.14654 0.061458 0)
(-0.126273 -0.0583239 0)
(0.00660224 0.0216328 0)
(-0.214278 0.139407 0)
(-0.433952 0.118202 0)
(-0.434857 -0.19432 0)
(-1.10863 -0.0495626 0)
(-0.815316 -0.0401529 0)
(0.218658 0.24275 0)
(-0.610283 0.0312424 0)
(-0.240506 -0.104949 0)
(0.089149 -0.0314934 0)
(0.134535 0.156277 0)
(-0.615179 0.057961 0)
(-0.578067 0.0732962 0)
(-0.807727 0.133725 0)
(-0.877588 0.0638333 0)
(-1.07296 0.00486126 0)
(-1.21863 -0.0610726 0)
(-0.911381 -0.0418554 0)
(-0.77791 -0.0222001 0)
(-0.215012 0.0322956 0)
(-0.475721 0.0711816 0)
(0.273917 0.0317171 0)
(0.257358 0.0297575 0)
(0.241682 0.0279229 0)
(0.224707 0.0233624 0)
(0.226528 0.0155487 0)
(0.257164 0.00779107 0)
(0.318789 0.00771936 0)
(0.385525 0.022962 0)
(0.398929 0.0352149 0)
(0.388039 0.0405295 0)
(0.366904 0.0398975 0)
(0.345764 0.0380858 0)
(0.319895 0.0370251 0)
(0.295981 0.0325188 0)
(0.267978 0.0200181 0)
(0.292019 0.017275 0)
(0.302363 0.0345273 0)
(0.267694 0.0513528 0)
(0.164127 0.031953 0)
(0.163966 0.0176705 0)
(0.101882 0.0154115 0)
(0.134112 0.00968085 0)
(0.102087 -0.0131439 0)
(0.208316 0.0391145 0)
(-0.136683 0.0752219 0)
(-0.345734 0.00480632 0)
(-0.531204 -0.0197958 0)
(-0.610474 -0.0591135 0)
(-0.599903 -0.150494 0)
(-0.387339 -0.152344 0)
(-0.132923 -0.0738612 0)
(-0.239209 0.0281074 0)
(-0.511381 -0.0178926 0)
(-0.388546 -0.157144 0)
(-0.248061 -0.114818 0)
(-0.32225 -0.0736347 0)
(-0.596156 0.0445577 0)
(-0.668189 -0.0590959 0)
(-0.477064 -0.204504 0)
(-0.184927 -0.174389 0)
(-0.312858 -0.104616 0)
(-0.374422 -0.0130416 0)
(-0.527727 0.0131761 0)
(-0.745051 -0.0126241 0)
(-0.800492 -0.17808 0)
(-0.656414 -0.166837 0)
(-0.948954 -0.175184 0)
(-0.893486 -0.209887 0)
(0.746892 -0.193152 0)
(0.283632 0.0543807 0)
(-0.548822 0.0652641 0)
(-0.704633 0.00852042 0)
(-0.788279 -0.0852014 0)
(-0.567231 -0.217333 0)
(0.728681 -0.0491372 0)
(1.18014 0.177161 0)
(-0.0894263 0.204081 0)
(-0.430805 -0.0666336 0)
(0.00923868 -0.000575428 0)
(-0.251437 -0.0847724 0)
(-0.726263 -0.0906287 0)
(-0.296597 -0.205489 0)
(-0.207954 0.0108893 0)
(-0.66879 -0.0262356 0)
(-0.523931 -0.0560108 0)
(-1.13035 -0.191442 0)
(-0.741973 -0.292908 0)
(-0.789851 -0.255265 0)
(-0.977686 -0.179482 0)
(-0.84725 -0.0922429 0)
(-1.04715 -0.0149659 0)
(-1.00789 -0.184672 0)
(-0.936619 -0.395716 0)
(-0.0111324 -0.229143 0)
(0.388735 0.431182 0)
(-1.42496 -0.0888033 0)
(-0.147669 -0.293752 0)
(-0.233683 -0.116219 0)
(-0.348823 -0.0925209 0)
(0.223013 -0.0579542 0)
(-0.0570977 0.00750074 0)
(-0.381507 -0.139219 0)
(-0.0515229 -0.0712926 0)
(0.184511 0.122669 0)
(-0.283691 0.0368038 0)
(-0.21266 -0.159585 0)
(-0.441859 -0.149546 0)
(-1.2966 -0.34036 0)
(-0.367631 -0.077322 0)
(-0.00314569 0.181371 0)
(-0.691409 0.0224254 0)
(-0.288743 -0.289474 0)
(-0.0692529 -0.0807231 0)
(0.10083 0.173082 0)
(-0.42083 0.0429745 0)
(-0.53785 -0.122247 0)
(-0.756548 -0.151515 0)
(-0.818148 -0.0608667 0)
(-1.10948 -0.136721 0)
(-1.13279 -0.299958 0)
(-0.674777 -0.286797 0)
(-0.541832 -0.20777 0)
(-0.152106 -0.14615 0)
(-0.565875 -0.167849 0)
(0.271236 0.0352659 0)
(0.254692 0.0332783 0)
(0.239209 0.0316502 0)
(0.222352 0.0265638 0)
(0.223642 0.0189461 0)
(0.2547 0.00988827 0)
(0.317183 0.00910325 0)
(0.384777 0.0264612 0)
(0.398193 0.0436793 0)
(0.386812 0.0490299 0)
(0.366074 0.0484338 0)
(0.345014 0.0456358 0)
(0.319149 0.0435244 0)
(0.294496 0.0388066 0)
(0.260653 0.0245326 0)
(0.27558 0.0211522 0)
(0.291205 0.0408347 0)
(0.260612 0.0565749 0)
(0.160422 0.0362213 0)
(0.157014 0.0280425 0)
(0.092229 0.0269652 0)
(0.132853 0.0231959 0)
(0.0920993 -0.00562814 0)
(0.196404 0.0536336 0)
(-0.127708 0.0911703 0)
(-0.355235 0.0664532 0)
(-0.540776 0.0393043 0)
(-0.603829 -0.00385344 0)
(-0.613894 -0.0666426 0)
(-0.40362 -0.144237 0)
(-0.155808 -0.0336252 0)
(-0.267744 0.0715567 0)
(-0.512649 0.0337462 0)
(-0.425825 -0.0548146 0)
(-0.296237 -0.0386974 0)
(-0.33693 0.0775443 0)
(-0.640371 0.134474 0)
(-0.68707 -0.0526932 0)
(-0.467441 -0.138074 0)
(-0.133688 0.0507937 0)
(-0.293928 0.102097 0)
(-0.3474 0.049302 0)
(-0.552328 0.0332946 0)
(-0.754026 0.0292192 0)
(-0.840158 0.0171649 0)
(-0.711078 0.065385 0)
(-0.913351 -0.0108657 0)
(-0.452066 -0.350803 0)
(0.303433 -0.147832 0)
(0.239379 0.110974 0)
(-0.493425 0.0300878 0)
(-1.40103 -0.0369795 0)
(-0.835328 0.0101689 0)
(-0.492924 -0.0651297 0)
(0.76094 -0.286403 0)
(1.07125 0.39053 0)
(-0.166208 0.297344 0)
(-0.633616 -0.0735368 0)
(0.0569853 -0.228115 0)
(-0.333059 0.055571 0)
(-0.657497 0.00386233 0)
(-0.495113 -0.030901 0)
(-0.219182 0.110906 0)
(-0.691588 0.0996832 0)
(-0.641081 0.107531 0)
(-0.524131 0.134718 0)
(-0.74953 -0.0882092 0)
(-0.741674 -0.0523861 0)
(-0.913549 0.0144203 0)
(-0.820866 9.66271e-05 0)
(-1.06138 -0.172864 0)
(-1.14693 -0.0434169 0)
(-1.0049 -0.509365 0)
(0.248854 -0.159945 0)
(0.646485 0.483113 0)
(-0.663373 0.122591 0)
(-0.148683 -0.150849 0)
(-0.223015 0.118625 0)
(0.142712 0.00188278 0)
(0.225287 -0.0453799 0)
(-0.196536 0.104293 0)
(-0.363195 0.00260935 0)
(-0.182756 -0.116962 0)
(0.253937 0.0108605 0)
(0.00879701 0.0728218 0)
(-0.248591 0.0862748 0)
(-0.516669 -0.0583187 0)
(-0.917434 -0.181933 0)
(-0.83705 -0.033588 0)
(-0.0890437 0.135558 0)
(-0.744254 -0.0658174 0)
(-0.410559 -0.198116 0)
(-0.148457 -0.0165528 0)
(-0.167199 0.120156 0)
(-0.444646 0.0648028 0)
(-0.650743 0.0520058 0)
(-0.916118 0.075429 0)
(-0.736616 0.0255917 0)
(-1.04873 -0.00552039 0)
(-1.07955 -0.0672079 0)
(-0.649382 -0.025142 0)
(-0.463189 0.0304116 0)
(-0.413352 0.0335283 0)
(-0.530138 0.0733474 0)
(0.268683 0.0328888 0)
(0.252261 0.0309879 0)
(0.23696 0.02937 0)
(0.220166 0.0240883 0)
(0.22133 0.0143119 0)
(0.252651 0.003941 0)
(0.31571 0.00240339 0)
(0.383225 0.0201673 0)
(0.397612 0.0355212 0)
(0.387115 0.0428113 0)
(0.366898 0.0428192 0)
(0.345512 0.0410379 0)
(0.319064 0.0400466 0)
(0.294297 0.0354531 0)
(0.25375 0.0201847 0)
(0.254168 0.0132024 0)
(0.278161 0.0335871 0)
(0.252504 0.0559711 0)
(0.156838 0.0362037 0)
(0.151283 0.0203689 0)
(0.0804462 0.0160394 0)
(0.133881 0.0108626 0)
(0.0718812 -0.0172212 0)
(0.187706 0.0498116 0)
(-0.104559 0.104419 0)
(-0.366313 0.0369458 0)
(-0.553028 0.0118146 0)
(-0.608791 -0.0404351 0)
(-0.625254 -0.148599 0)
(-0.398093 -0.171712 0)
(-0.143669 -0.075023 0)
(-0.279109 0.0547496 0)
(-0.503177 0.0142765 0)
(-0.433894 -0.143036 0)
(-0.308849 -0.094841 0)
(-0.321849 -0.0495729 0)
(-0.618389 0.0824929 0)
(-0.847307 -0.0368195 0)
(-0.500016 -0.351866 0)
(-0.157176 -0.224951 0)
(-0.179606 -0.0619585 0)
(-0.41192 -0.0150466 0)
(-0.545841 0.0544819 0)
(-0.677635 0.019166 0)
(-0.756633 -0.168612 0)
(-0.592286 -0.142215 0)
(-0.596109 -0.138298 0)
(-0.236393 -0.322084 0)
(-0.151754 -0.280006 0)
(0.28507 0.11289 0)
(-0.49557 0.1207 0)
(-1.25978 -0.0777961 0)
(-0.920653 -0.165086 0)
(-0.0507708 -0.442347 0)
(0.0469815 -0.0164251 0)
(1.09391 0.180808 0)
(-0.0775563 0.281791 0)
(-0.55858 -0.0811555 0)
(-0.00761249 0.0690827 0)
(-0.312564 -0.053073 0)
(-0.635596 -0.116131 0)
(-0.423082 -0.125784 0)
(-0.173534 0.0309418 0)
(-0.730943 0.0461824 0)
(-0.492695 -0.0822775 0)
(-0.572971 -0.0164365 0)
(-0.797502 -0.192889 0)
(-0.691644 -0.140452 0)
(-0.805714 -0.1379 0)
(-0.881143 -0.0805401 0)
(-1.17587 0.163809 0)
(-0.585431 -0.126887 0)
(-1.13197 -0.490893 0)
(0.815658 -0.262289 0)
(1.07262 0.569292 0)
(-0.332186 0.0546127 0)
(-0.115567 -0.23427 0)
(-0.832477 -0.201797 0)
(0.306824 -0.135436 0)
(0.169055 0.0372211 0)
(-0.262967 0.085834 0)
(-0.436378 -0.141942 0)
(-0.201211 -0.142572 0)
(-0.127416 0.111703 0)
(0.256072 0.285517 0)
(-0.171165 -0.0583055 0)
(-0.418791 -0.110479 0)
(-0.752459 -0.264415 0)
(-1.00038 -0.261045 0)
(-0.255614 0.286943 0)
(-0.744461 0.0100308 0)
(-0.448147 -0.199134 0)
(0.379403 -0.0199997 0)
(-0.402689 0.104794 0)
(-0.474238 0.10956 0)
(-0.765957 -0.139511 0)
(-1.25034 -0.165947 0)
(-0.793512 0.00906874 0)
(-1.00659 -0.0812114 0)
(-1.08002 -0.245354 0)
(-0.76059 -0.254789 0)
(-0.416502 -0.184031 0)
(-0.350383 -0.0950162 0)
(-0.395727 -0.103443 0)
(0.26527 0.0357908 0)
(0.24886 0.0336598 0)
(0.233692 0.0319405 0)
(0.217091 0.0262086 0)
(0.217714 0.0164842 0)
(0.249539 0.00499473 0)
(0.313537 0.00295028 0)
(0.381836 0.0222517 0)
(0.395857 0.0427 0)
(0.38517 0.0492019 0)
(0.36554 0.0490225 0)
(0.344333 0.0465505 0)
(0.317604 0.0446566 0)
(0.292244 0.0406335 0)
(0.247534 0.0242041 0)
(0.228435 0.0144017 0)
(0.261893 0.0372752 0)
(0.241473 0.0591866 0)
(0.151437 0.0390199 0)
(0.143005 0.0285535 0)
(0.0716625 0.0243155 0)
(0.130623 0.0221304 0)
(0.0486531 -0.0138421 0)
(0.176318 0.0592088 0)
(-0.0837541 0.125008 0)
(-0.364627 0.0618259 0)
(-0.548054 0.0332236 0)
(-0.601039 -0.00948272 0)
(-0.646345 -0.0876055 0)
(-0.404377 -0.168899 0)
(-0.152495 -0.0467448 0)
(-0.265275 0.0665149 0)
(-0.484305 0.0384193 0)
(-0.450205 -0.0728486 0)
(-0.330495 -0.0531221 0)
(-0.39374 0.0473937 0)
(-0.599242 0.0176022 0)
(-0.822204 -0.0895483 0)
(-0.631707 -0.105056 0)
(-0.510547 -0.0229426 0)
(-0.370635 0.0792713 0)
(-0.564301 0.0267362 0)
(-0.573801 0.0528588 0)
(-0.403781 0.0474846 0)
(-0.691993 0.0145359 0)
(-0.380257 0.0655288 0)
(-0.548282 -0.0126794 0)
(-0.347773 -0.218444 0)
(-0.335624 -0.275297 0)
(0.297651 0.142969 0)
(-0.513769 0.191486 0)
(-1.26466 -0.0223023 0)
(-1.09391 -0.0523611 0)
(0.0319214 -0.3002 0)
(-0.776942 -0.545408 0)
(0.931211 0.427141 0)
(-0.108156 0.249771 0)
(-0.715887 -0.0412026 0)
(-0.151652 -0.149785 0)
(-0.326717 0.0716478 0)
(-0.645402 0.0204811 0)
(-0.432502 -0.204922 0)
(-0.431432 0.127603 0)
(-0.698693 0.0413773 0)
(-0.347327 0.0706418 0)
(-0.662359 -0.0224025 0)
(-0.82607 -0.108656 0)
(-0.674867 -0.0999071 0)
(-0.794325 0.00690988 0)
(-0.977932 0.0478855 0)
(-0.992395 -0.206058 0)
(-0.745203 -0.0376793 0)
(-1.3542 -0.428782 0)
(0.756704 -0.0473158 0)
(1.4384 0.582517 0)
(-0.430306 0.0873822 0)
(-0.137768 -0.205891 0)
(-0.540643 0.0204901 0)
(-0.162258 0.0262147 0)
(0.0887645 -0.0469114 0)
(-0.113823 0.0738043 0)
(-0.385404 0.00484753 0)
(-0.185442 -0.0767683 0)
(-0.0230531 -0.0194642 0)
(0.000913829 -0.00320451 0)
(-0.350173 0.105657 0)
(-0.393226 -0.0604888 0)
(-0.915066 -0.0877806 0)
(-0.686962 -0.0138418 0)
(-0.153571 0.0392068 0)
(-0.762455 0.0514285 0)
(-0.404728 -0.187251 0)