/*--------------------------------*- C++ -*----------------------------------*\
| =========                 |                                                 |
| \\      /  F ield         | OpenFOAM: The Open Source CFD Toolbox           |
|  \\    /   O peration     | Version:  v1912                                 |
|   \\  /    A nd           | Website:  www.openfoam.com                      |
|    \\/     M anipulation  |                                                 |
\*---------------------------------------------------------------------------*/
FoamFile
{
    version     2.0;
    format      ascii;
    class       volScalarField;
    location    "30";
    object      nut;
}
// * * * * * * * * * * * * * * * * * * * * * * * * * * * * * * * * * * * * * //

dimensions      [0 2 -1 0 0 0 0];


internalField   nonuniform List<scalar> 
14268
(
1.4507e-09
1.43068e-09
1.40494e-09
1.37934e-09
1.3485e-09
1.31907e-09
1.28128e-09
1.26636e-09
1.42477e-07
1.39117e-07
1.34571e-07
1.30243e-07
1.2522e-07
1.2081e-07
1.15192e-07
1.13354e-07
3.39748e-07
3.38084e-07
3.35424e-07
3.32589e-07
3.289e-07
3.25442e-07
3.20676e-07
3.18982e-07
3.78496e-07
3.78253e-07
3.77772e-07
3.77334e-07
3.7655e-07
3.75902e-07
3.74661e-07
3.74349e-07
3.82762e-07
3.82756e-07
3.8269e-07
3.82704e-07
3.82602e-07
3.82635e-07
3.82495e-07
3.82547e-07
3.82755e-07
3.82817e-07
3.8282e-07
3.82956e-07
3.82929e-07
3.83064e-07
3.82946e-07
3.83077e-07
3.83084e-07
3.83111e-07
3.83101e-07
3.83187e-07
3.8318e-07
3.83324e-07
3.83324e-07
3.83465e-07
3.82738e-07
3.82819e-07
3.82837e-07
3.8299e-07
3.8299e-07
3.8315e-07
3.83048e-07
3.83187e-07
3.83073e-07
3.83103e-07
3.83095e-07
3.83185e-07
3.83182e-07
3.8331e-07
3.83308e-07
3.83449e-07
3.82708e-07
3.828e-07
3.82816e-07
3.82978e-07
3.8299e-07
3.8316e-07
3.83075e-07
3.83219e-07
3.83064e-07
3.83093e-07
3.83084e-07
3.83171e-07
3.83161e-07
3.83295e-07
3.8328e-07
3.8343e-07
3.8272e-07
3.82813e-07
3.82827e-07
3.82976e-07
3.8296e-07
3.83111e-07
3.83043e-07
3.83203e-07
3.83181e-07
3.83211e-07
3.83216e-07
3.83275e-07
3.8323e-07
3.83271e-07
3.83098e-07
3.83321e-07
3.82883e-07
3.82944e-07
3.83055e-07
3.83182e-07
3.83325e-07
3.83394e-07
3.83378e-07
3.83564e-07
3.83113e-07
3.83134e-07
3.83198e-07
3.83232e-07
3.83386e-07
3.8353e-07
3.84233e-07
3.8453e-07
3.83005e-07
3.83018e-07
3.82982e-07
3.8308e-07
3.83108e-07
3.83357e-07
3.83576e-07
3.83868e-07
3.83115e-07
3.83161e-07
3.83221e-07
3.83276e-07
3.83247e-07
3.83372e-07
3.8353e-07
3.8379e-07
3.8303e-07
3.83075e-07
3.83057e-07
3.83122e-07
3.83149e-07
3.83275e-07
3.83306e-07
3.8336e-07
3.83039e-07
3.83073e-07
3.83166e-07
3.83268e-07
3.83223e-07
3.83349e-07
3.83399e-07
3.83586e-07
3.83036e-07
3.83086e-07
3.83101e-07
3.83137e-07
3.83154e-07
3.83266e-07
3.83382e-07
3.83422e-07
3.82965e-07
3.83014e-07
3.83112e-07
3.83298e-07
3.83253e-07
3.83436e-07
3.83397e-07
3.83502e-07
3.8306e-07
3.83097e-07
3.83133e-07
3.83207e-07
3.83233e-07
3.83365e-07
3.83406e-07
3.8339e-07
3.83015e-07
3.83132e-07
3.83211e-07
3.83286e-07
3.83301e-07
3.83438e-07
3.83486e-07
3.83532e-07
3.83036e-07
3.83073e-07
3.83168e-07
3.83286e-07
3.83401e-07
3.83584e-07
3.83623e-07
3.83579e-07
3.82877e-07
3.83075e-07
3.83176e-07
3.83293e-07
3.83332e-07
3.83517e-07
3.8358e-07
3.836e-07
3.83009e-07
3.8303e-07
3.83155e-07
3.83308e-07
3.83497e-07
3.83755e-07
3.83764e-07
3.83613e-07
3.82651e-07
3.8298e-07
3.83117e-07
3.83251e-07
3.83372e-07
3.83618e-07
3.83723e-07
3.83739e-07
3.83e-07
3.82995e-07
3.83115e-07
3.83286e-07
3.83546e-07
3.83945e-07
3.83986e-07
3.83685e-07
3.82302e-07
3.82803e-07
3.83032e-07
3.83227e-07
3.83385e-07
3.83756e-07
3.83928e-07
3.83992e-07
3.82997e-07
3.82962e-07
3.83035e-07
3.8316e-07
3.83489e-07
3.8415e-07
3.84356e-07
3.83849e-07
3.81848e-07
3.82636e-07
3.82994e-07
3.83164e-07
3.83174e-07
3.83879e-07
3.84226e-07
3.8442e-07
3.85966e-07
3.84059e-07
3.82772e-07
3.82587e-07
3.83237e-07
3.84479e-07
3.84886e-07
3.84288e-07
4.39902e-07
4.18036e-07
3.96717e-07
3.8516e-07
3.78391e-07
3.80188e-07
3.83511e-07
3.84459e-07
4.09343e-07
3.58346e-07
3.34526e-07
3.08687e-07
2.93679e-07
2.64867e-07
2.42241e-07
2.32732e-07
1.75634e-07
1.50518e-07
2.50606e-07
5.19513e-07
6.98857e-07
8.61084e-07
1.05972e-06
1.30056e-06
4.99924e-06
5.18631e-06
5.33573e-06
5.42304e-06
5.45486e-06
5.49058e-06
5.58022e-06
5.61119e-06
4.88503e-07
7.26191e-07
1.06972e-06
1.63633e-06
2.82951e-06
5.14407e-06
1.39221e-05
1.50922e-05
9.84358e-05
0.000121926
0.000153307
0.000234835
0.00045596
0.000910219
0.00167414
0.00281244
0.000103852
0.000152265
0.000232028
0.000437914
0.00078325
0.00135537
0.00196693
0.00239068
7.65641e-06
1.6495e-05
2.26083e-05
2.11964e-05
2.33293e-05
7.50416e-05
0.000119606
0.000156991
3.93469e-07
4.89343e-07
5.38071e-07
4.71702e-07
4.01774e-07
5.12949e-07
6.32986e-07
2.07068e-06
3.65975e-07
3.67866e-07
3.73756e-07
3.76217e-07
3.73609e-07
3.70907e-07
3.80571e-07
3.78724e-07
3.44858e-07
3.45012e-07
3.50403e-07
3.54602e-07
3.46447e-07
3.56427e-07
3.66965e-07
3.66706e-07
3.71834e-07
3.72882e-07
3.75784e-07
3.76783e-07
3.72171e-07
3.67283e-07
3.70635e-07
3.75053e-07
3.50534e-07
3.51775e-07
3.54301e-07
3.55752e-07
3.51639e-07
3.54468e-07
3.66827e-07
3.64219e-07
3.76024e-07
3.77273e-07
3.78588e-07
3.78653e-07
3.75081e-07
3.70413e-07
3.71431e-07
3.69672e-07
3.55451e-07
3.56834e-07
3.58345e-07
3.59635e-07
3.57906e-07
3.59366e-07
3.64064e-07
3.6738e-07
3.78995e-07
3.80095e-07
3.80885e-07
3.80168e-07
3.7785e-07
3.74091e-07
3.74707e-07
3.72275e-07
3.59812e-07
3.61158e-07
3.62153e-07
3.63327e-07
3.62786e-07
3.6416e-07
3.6776e-07
3.71227e-07
3.8113e-07
3.81987e-07
3.82059e-07
3.81552e-07
3.79807e-07
3.77077e-07
3.7702e-07
3.74858e-07
3.63693e-07
3.64895e-07
3.65443e-07
3.66762e-07
3.66821e-07
3.68537e-07
3.71273e-07
3.74776e-07
3.82688e-07
3.83321e-07
3.8282e-07
3.82547e-07
3.81165e-07
3.79473e-07
3.78873e-07
3.77261e-07
3.67096e-07
3.68204e-07
3.68472e-07
3.69931e-07
3.70303e-07
3.72546e-07
3.74439e-07
3.77899e-07
3.83752e-07
3.84213e-07
3.8344e-07
3.83383e-07
3.82175e-07
3.81331e-07
3.80374e-07
3.79239e-07
3.70077e-07
3.7109e-07
3.7133e-07
3.72854e-07
3.73335e-07
3.75958e-07
3.7725e-07
3.80387e-07
3.84394e-07
3.8475e-07
3.83912e-07
3.84011e-07
3.82931e-07
3.82614e-07
3.81456e-07
3.80739e-07
3.72695e-07
3.73655e-07
3.73952e-07
3.75493e-07
3.76055e-07
3.78685e-07
3.79656e-07
3.82187e-07
3.84696e-07
3.85007e-07
3.84241e-07
3.84468e-07
3.83496e-07
3.83381e-07
3.82246e-07
3.81953e-07
3.75001e-07
3.75906e-07
3.76324e-07
3.77829e-07
3.78422e-07
3.80829e-07
3.81516e-07
3.8337e-07
3.84718e-07
3.85022e-07
3.84368e-07
3.84686e-07
3.83811e-07
3.8385e-07
3.82822e-07
3.8278e-07
3.76979e-07
3.77857e-07
3.78303e-07
3.79742e-07
3.80246e-07
3.82303e-07
3.82802e-07
3.84092e-07
3.84609e-07
3.84868e-07
3.8429e-07
3.84633e-07
3.83834e-07
3.8405e-07
3.8321e-07
3.83314e-07
3.78703e-07
3.79511e-07
3.799e-07
3.81182e-07
3.81542e-07
3.83219e-07
3.83492e-07
3.84346e-07
3.84419e-07
3.84642e-07
3.84107e-07
3.84435e-07
3.83782e-07
3.84136e-07
3.83435e-07
3.83669e-07
3.80141e-07
3.80892e-07
3.81197e-07
3.82252e-07
3.82455e-07
3.83738e-07
3.8377e-07
3.84352e-07
3.84212e-07
3.84415e-07
3.83924e-07
3.84246e-07
3.83733e-07
3.8416e-07
3.83643e-07
3.83899e-07
3.81318e-07
3.8199e-07
3.82184e-07
3.83032e-07
3.83088e-07
3.83947e-07
3.83721e-07
3.84307e-07
3.84013e-07
3.84215e-07
3.83792e-07
3.84102e-07
3.83667e-07
3.84128e-07
3.83754e-07
3.84076e-07
3.82247e-07
3.82834e-07
3.82897e-07
3.83576e-07
3.83467e-07
3.84066e-07
3.83736e-07
3.84228e-07
3.83838e-07
3.84049e-07
3.8368e-07
3.84002e-07
3.8364e-07
3.84094e-07
3.83753e-07
3.84172e-07
3.82963e-07
3.83427e-07
3.83387e-07
3.83875e-07
3.83633e-07
3.84086e-07
3.83748e-07
3.84171e-07
3.83749e-07
3.83926e-07
3.83657e-07
3.83962e-07
3.83681e-07
3.84089e-07
3.83781e-07
3.84144e-07
3.83461e-07
3.83775e-07
3.83623e-07
3.83952e-07
3.83711e-07
3.84061e-07
3.8382e-07
3.84122e-07
3.83614e-07
3.83837e-07
3.83607e-07
3.83902e-07
3.83682e-07
3.84001e-07
3.83756e-07
3.84066e-07
3.8353e-07
3.83791e-07
3.83552e-07
3.8387e-07
3.83599e-07
3.83968e-07
3.83661e-07
3.84014e-07
3.83558e-07
3.83789e-07
3.83558e-07
3.83871e-07
3.83583e-07
3.83961e-07
3.83648e-07
3.83999e-07
3.83597e-07
3.83819e-07
3.83593e-07
3.8389e-07
3.83655e-07
3.83967e-07
3.8371e-07
3.84009e-07
3.83643e-07
3.83833e-07
3.8367e-07
3.83905e-07
3.83712e-07
3.83983e-07
3.83764e-07
3.84018e-07
3.83676e-07
3.83833e-07
3.83712e-07
3.83893e-07
3.83765e-07
3.83954e-07
3.83818e-07
3.83991e-07
3.83694e-07
3.83807e-07
3.8373e-07
3.83859e-07
3.8377e-07
3.83909e-07
3.83809e-07
3.83937e-07
3.83708e-07
3.83794e-07
3.83748e-07
3.8384e-07
3.8379e-07
3.83883e-07
3.83826e-07
3.83909e-07
3.83712e-07
3.83778e-07
3.8375e-07
3.83818e-07
3.83786e-07
3.83855e-07
3.83818e-07
3.83878e-07
3.83729e-07
3.83779e-07
3.83764e-07
3.83816e-07
3.83796e-07
3.83849e-07
3.83825e-07
3.8387e-07
3.83903e-07
3.83937e-07
3.83925e-07
3.8396e-07
3.83944e-07
3.83977e-07
3.83959e-07
3.83985e-07
3.86021e-07
3.85993e-07
3.8594e-07
3.85908e-07
3.85847e-07
3.8581e-07
3.85742e-07
3.85697e-07
4.05112e-07
4.04834e-07
4.04575e-07
4.04278e-07
4.03992e-07
4.03673e-07
4.03354e-07
4.0301e-07
4.90859e-07
4.90431e-07
4.90108e-07
4.89699e-07
4.89383e-07
4.88989e-07
4.88667e-07
4.88279e-07
1.28669e-09
1.33216e-09
1.37593e-09
1.40523e-09
1.43032e-09
1.4431e-09
1.45837e-09
1.46974e-09
1.48231e-09
1.4903e-09
1.49808e-09
1.50264e-09
1.50728e-09
1.51127e-09
1.51653e-09
1.51971e-09
1.51889e-09
1.51039e-09
1.49605e-09
1.4786e-09
1.46184e-09
1.4472e-09
1.43696e-09
1.4348e-09
1.43455e-09
1.43453e-09
1.43458e-09
1.43454e-09
1.43447e-09
1.43425e-09
1.43393e-09
1.43354e-09
1.43317e-09
1.43274e-09
1.43231e-09
1.43186e-09
1.43151e-09
1.43115e-09
1.4308e-09
1.43047e-09
1.43018e-09
1.42993e-09
1.42975e-09
1.42967e-09
1.42964e-09
1.4295e-09
1.42945e-09
1.42961e-09
1.43013e-09
1.43093e-09
1.43178e-09
1.43249e-09
1.43283e-09
1.43305e-09
1.43341e-09
1.43397e-09
1.43481e-09
1.43589e-09
1.43714e-09
1.43846e-09
1.43976e-09
1.44091e-09
1.44179e-09
1.44224e-09
1.44278e-09
1.4433e-09
1.44413e-09
1.44517e-09
1.44663e-09
1.44845e-09
1.45053e-09
1.45276e-09
1.4552e-09
1.45783e-09
1.46051e-09
1.46336e-09
1.46651e-09
1.4701e-09
1.47431e-09
1.4791e-09
1.48434e-09
1.48962e-09
1.49466e-09
1.49946e-09
1.50403e-09
1.50848e-09
1.51275e-09
1.5166e-09
1.51975e-09
1.5218e-09
1.52282e-09
1.52278e-09
1.52196e-09
1.52097e-09
1.52024e-09
1.52003e-09
1.52087e-09
1.52243e-09
1.52474e-09
1.52689e-09
1.52742e-09
1.52561e-09
1.52097e-09
1.51417e-09
1.50581e-09
1.49737e-09
1.48915e-09
1.48503e-09
1.48254e-09
1.48023e-09
1.47826e-09
1.47821e-09
1.48242e-09
1.48835e-09
1.49521e-09
1.50275e-09
1.51051e-09
1.51858e-09
1.52765e-09
1.53765e-09
1.54761e-09
1.55598e-09
1.55988e-09
1.55704e-09
1.54581e-09
1.52654e-09
1.51117e-09
1.50848e-09
1.50593e-09
1.50242e-09
1.49637e-09
1.48662e-09
1.47307e-09
1.4632e-09
1.46237e-09
1.46124e-09
1.45945e-09
1.45725e-09
1.45474e-09
1.45198e-09
1.44905e-09
1.44618e-09
1.44363e-09
1.44239e-09
1.44285e-09
1.44524e-09
1.44984e-09
1.45697e-09
1.46687e-09
1.47953e-09
1.49455e-09
1.51118e-09
1.52849e-09
1.54547e-09
1.56116e-09
1.57468e-09
1.15772e-07
1.23264e-07
1.31145e-07
1.36743e-07
1.41865e-07
1.43983e-07
1.45498e-07
1.45934e-07
1.46304e-07
1.4644e-07
1.466e-07
1.46631e-07
1.46679e-07
1.46653e-07
1.46653e-07
1.46568e-07
1.46428e-07
1.46145e-07
1.45794e-07
1.45408e-07
1.45075e-07
1.44795e-07
1.44597e-07
1.44315e-07
1.44116e-07
1.44005e-07
1.43947e-07
1.43911e-07
1.43894e-07
1.43881e-07
1.43869e-07
1.43837e-07
1.43764e-07
1.43694e-07
1.43634e-07
1.43577e-07
1.43511e-07
1.43424e-07
1.43339e-07
1.43271e-07
1.43224e-07
1.43203e-07
1.43201e-07
1.43207e-07
1.43203e-07
1.43177e-07
1.43168e-07
1.43179e-07
1.43204e-07
1.43236e-07
1.43264e-07
1.43271e-07
1.43247e-07
1.43218e-07
1.43196e-07
1.43182e-07
1.43185e-07
1.43204e-07
1.43241e-07
1.43291e-07
1.43348e-07
1.43396e-07
1.4342e-07
1.4342e-07
1.43415e-07
1.43389e-07
1.43365e-07
1.43338e-07
1.43329e-07
1.43339e-07
1.43364e-07
1.43395e-07
1.43436e-07
1.43489e-07
1.43547e-07
1.43612e-07
1.43687e-07
1.43775e-07
1.43884e-07
1.44011e-07
1.44149e-07
1.44284e-07
1.44407e-07
1.44521e-07
1.44628e-07
1.44737e-07
1.44844e-07
1.44941e-07
1.45021e-07
1.45073e-07
1.45098e-07
1.45092e-07
1.4507e-07
1.45045e-07
1.45037e-07
1.45055e-07
1.45115e-07
1.45197e-07
1.45293e-07
1.45376e-07
1.45399e-07
1.45339e-07
1.45173e-07
1.44941e-07
1.44674e-07
1.44427e-07
1.44211e-07
1.43964e-07
1.43778e-07
1.4371e-07
1.43751e-07
1.43824e-07
1.43801e-07
1.43763e-07
1.43819e-07
1.43953e-07
1.44088e-07
1.44147e-07
1.44111e-07
1.44076e-07
1.44162e-07
1.44486e-07
1.45002e-07
1.45412e-07
1.45382e-07
1.44877e-07
1.43775e-07
1.42423e-07
1.41456e-07
1.40958e-07
1.40862e-07
1.41059e-07
1.41391e-07
1.41322e-07
1.40656e-07
1.39773e-07
1.38764e-07
1.37798e-07
1.36967e-07
1.36315e-07
1.3585e-07
1.35573e-07
1.35464e-07
1.3549e-07
1.35628e-07
1.3585e-07
1.36128e-07
1.36436e-07
1.36754e-07
1.37069e-07
1.37369e-07
1.37653e-07
1.37924e-07
1.38179e-07
1.38418e-07
1.38635e-07
3.20993e-07
3.27082e-07
3.32809e-07
3.36439e-07
3.39526e-07
3.40592e-07
3.41461e-07
3.41623e-07
3.41861e-07
3.41882e-07
3.41985e-07
3.41954e-07
3.4198e-07
3.41912e-07
3.41906e-07
3.41818e-07
3.41741e-07
3.41567e-07
3.41392e-07
3.41181e-07
3.41018e-07
3.40869e-07
3.40776e-07
3.40642e-07
3.40555e-07
3.40501e-07
3.40481e-07
3.40463e-07
3.40455e-07
3.40445e-07
3.40437e-07
3.40417e-07
3.40378e-07
3.4034e-07
3.40307e-07
3.40274e-07
3.4024e-07
3.40192e-07
3.40145e-07
3.40107e-07
3.40079e-07
3.40064e-07
3.4006e-07
3.40058e-07
3.40054e-07
3.40034e-07
3.40024e-07
3.40023e-07
3.4003e-07
3.40042e-07
3.40049e-07
3.40053e-07
3.40034e-07
3.40013e-07
3.39996e-07
3.39984e-07
3.39979e-07
3.39982e-07
3.39995e-07
3.40015e-07
3.40039e-07
3.40057e-07
3.40072e-07
3.40063e-07
3.40057e-07
3.40043e-07
3.40028e-07
3.40007e-07
3.39996e-07
3.39995e-07
3.40002e-07
3.40012e-07
3.40027e-07
3.40048e-07
3.40073e-07
3.40104e-07
3.40138e-07
3.40179e-07
3.40233e-07
3.40296e-07
3.40366e-07
3.40434e-07
3.40496e-07
3.40553e-07
3.40607e-07
3.40661e-07
3.40715e-07
3.40762e-07
3.40801e-07
3.40826e-07
3.40838e-07
3.40834e-07
3.40822e-07
3.4081e-07
3.40805e-07
3.40814e-07
3.40852e-07
3.40901e-07
3.40958e-07
3.41005e-07
3.41013e-07
3.4098e-07
3.40888e-07
3.40767e-07
3.40625e-07
3.40494e-07
3.40375e-07
3.40245e-07
3.40159e-07
3.40139e-07
3.40173e-07
3.40227e-07
3.40243e-07
3.40243e-07
3.40285e-07
3.40366e-07
3.40444e-07
3.40479e-07
3.40467e-07
3.40464e-07
3.40518e-07
3.40682e-07
3.40933e-07
3.41138e-07
3.41141e-07
3.40921e-07
3.40417e-07
3.39799e-07
3.39345e-07
3.39114e-07
3.39077e-07
3.39179e-07
3.39349e-07
3.39305e-07
3.38959e-07
3.3851e-07
3.37988e-07
3.37483e-07
3.3704e-07
3.36682e-07
3.36417e-07
3.36246e-07
3.36164e-07
3.36153e-07
3.36197e-07
3.36281e-07
3.36394e-07
3.36522e-07
3.36653e-07
3.3678e-07
3.369e-07
3.37011e-07
3.37116e-07
3.37214e-07
3.37306e-07
3.37389e-07
3.74805e-07
3.76149e-07
3.77216e-07
3.77831e-07
3.78509e-07
3.78566e-07
3.78856e-07
3.78792e-07
3.78955e-07
3.78913e-07
3.79007e-07
3.78978e-07
3.79031e-07
3.78997e-07
3.79031e-07
3.79007e-07
3.79031e-07
3.78994e-07
3.78978e-07
3.78931e-07
3.78914e-07
3.78883e-07
3.78873e-07
3.78851e-07
3.78838e-07
3.78829e-07
3.78824e-07
3.78819e-07
3.78822e-07
3.78822e-07
3.78828e-07
3.78829e-07
3.78822e-07
3.78815e-07
3.7881e-07
3.78805e-07
3.78799e-07
3.78788e-07
3.7878e-07
3.78774e-07
3.78773e-07
3.78772e-07
3.78772e-07
3.78771e-07
3.7877e-07
3.78765e-07
3.78765e-07
3.78769e-07
3.78771e-07
3.78775e-07
3.78781e-07
3.78776e-07
3.78771e-07
3.78766e-07
3.78764e-07
3.78761e-07
3.78765e-07
3.78771e-07
3.78776e-07
3.78783e-07
3.7879e-07
3.78798e-07
3.78793e-07
3.78794e-07
3.78794e-07
3.78781e-07
3.78778e-07
3.78775e-07
3.78773e-07
3.78773e-07
3.78775e-07
3.78776e-07
3.78778e-07
3.78784e-07
3.7879e-07
3.78798e-07
3.78809e-07
3.78819e-07
3.78831e-07
3.78843e-07
3.78858e-07
3.78871e-07
3.78881e-07
3.78889e-07
3.789e-07
3.78913e-07
3.78925e-07
3.78934e-07
3.78945e-07
3.7895e-07
3.78952e-07
3.78951e-07
3.7895e-07
3.78949e-07
3.78947e-07
3.78945e-07
3.78953e-07
3.7896e-07
3.78968e-07
3.78977e-07
3.78978e-07
3.78973e-07
3.78954e-07
3.78936e-07
3.78909e-07
3.78884e-07
3.78855e-07
3.78822e-07
3.78804e-07
3.78798e-07
3.78805e-07
3.7882e-07
3.78827e-07
3.7882e-07
3.78815e-07
3.78825e-07
3.78835e-07
3.78833e-07
3.78811e-07
3.78804e-07
3.78807e-07
3.78837e-07
3.78889e-07
3.78946e-07
3.78958e-07
3.78928e-07
3.78832e-07
3.78708e-07
3.7861e-07
3.78561e-07
3.78556e-07
3.7858e-07
3.78625e-07
3.78618e-07
3.78544e-07
3.78462e-07
3.78362e-07
3.78265e-07
3.7818e-07
3.78112e-07
3.78064e-07
3.78039e-07
3.78026e-07
3.78024e-07
3.78033e-07
3.78049e-07
3.78068e-07
3.78085e-07
3.78104e-07
3.78123e-07
3.7814e-07
3.78154e-07
3.78166e-07
3.78178e-07
3.78189e-07
3.78201e-07
3.82573e-07
3.82636e-07
3.82697e-07
3.82711e-07
3.82841e-07
3.82792e-07
3.82898e-07
3.82852e-07
3.82912e-07
3.82875e-07
3.8291e-07
3.82881e-07
3.82901e-07
3.82877e-07
3.82891e-07
3.82878e-07
3.82888e-07
3.82875e-07
3.82879e-07
3.82867e-07
3.82868e-07
3.82859e-07
3.8286e-07
3.82856e-07
3.82857e-07
3.82855e-07
3.82858e-07
3.82858e-07
3.82859e-07
3.82859e-07
3.8286e-07
3.8286e-07
3.82859e-07
3.82859e-07
3.8286e-07
3.82859e-07
3.82861e-07
3.8286e-07
3.82859e-07
3.82859e-07
3.82859e-07
3.82859e-07
3.8286e-07
3.8286e-07
3.82862e-07
3.82861e-07
3.82862e-07
3.82862e-07
3.82862e-07
3.82863e-07
3.82863e-07
3.82865e-07
3.82865e-07
3.82865e-07
3.82865e-07
3.82865e-07
3.82865e-07
3.82866e-07
3.82866e-07
3.82867e-07
3.82867e-07
3.82867e-07
3.82869e-07
3.82868e-07
3.82869e-07
3.82869e-07
3.8287e-07
3.8287e-07
3.8287e-07
3.8287e-07
3.82871e-07
3.82871e-07
3.82871e-07
3.82871e-07
3.82872e-07
3.82873e-07
3.82874e-07
3.82874e-07
3.82876e-07
3.82877e-07
3.82879e-07
3.8288e-07
3.82881e-07
3.82882e-07
3.82884e-07
3.82885e-07
3.82887e-07
3.82888e-07
3.82889e-07
3.8289e-07
3.8289e-07
3.8289e-07
3.8289e-07
3.8289e-07
3.82889e-07
3.82887e-07
3.82888e-07
3.8289e-07
3.82891e-07
3.82893e-07
3.8289e-07
3.82888e-07
3.82885e-07
3.82885e-07
3.82881e-07
3.82878e-07
3.8287e-07
3.82857e-07
3.82851e-07
3.8285e-07
3.8285e-07
3.82856e-07
3.82863e-07
3.82856e-07
3.82851e-07
3.82851e-07
3.8285e-07
3.82841e-07
3.8283e-07
3.82828e-07
3.82825e-07
3.8283e-07
3.82841e-07
3.82865e-07
3.82878e-07
3.82879e-07
3.8286e-07
3.82843e-07
3.82826e-07
3.82818e-07
3.8282e-07
3.82826e-07
3.82843e-07
3.82846e-07
3.82835e-07
3.82831e-07
3.82817e-07
3.82805e-07
3.82794e-07
3.82785e-07
3.82778e-07
3.82773e-07
3.82772e-07
3.82773e-07
3.82774e-07
3.82775e-07
3.82776e-07
3.82779e-07
3.82781e-07
3.82782e-07
3.82783e-07
3.82783e-07
3.82783e-07
3.82782e-07
3.82782e-07
3.82783e-07
3.83043e-07
3.8296e-07
3.82747e-07
3.8266e-07
3.82791e-07
3.82645e-07
3.828e-07
3.82705e-07
3.82858e-07
3.82819e-07
3.82909e-07
3.82896e-07
3.82954e-07
3.82933e-07
3.82969e-07
3.82954e-07
3.82993e-07
3.82982e-07
3.82998e-07
3.82981e-07
3.82992e-07
3.82984e-07
3.82994e-07
3.82995e-07
3.82997e-07
3.82997e-07
3.82995e-07
3.82992e-07
3.82999e-07
3.83002e-07
3.83011e-07
3.83017e-07
3.83016e-07
3.83015e-07
3.83016e-07
3.83017e-07
3.83016e-07
3.83013e-07
3.83013e-07
3.83013e-07
3.83018e-07
3.8302e-07
3.8302e-07
3.8302e-07
3.83021e-07
3.8302e-07
3.83023e-07
3.83027e-07
3.83026e-07
3.83029e-07
3.83035e-07
3.83029e-07
3.83028e-07
3.83027e-07
3.83029e-07
3.83029e-07
3.83035e-07
3.83041e-07
3.83045e-07
3.83048e-07
3.83051e-07
3.83057e-07
3.8305e-07
3.83053e-07
3.83055e-07
3.83042e-07
3.83042e-07
3.83042e-07
3.83042e-07
3.83043e-07
3.83044e-07
3.83043e-07
3.83043e-07
3.83047e-07
3.83049e-07
3.83052e-07
3.83058e-07
3.83062e-07
3.83064e-07
3.83065e-07
3.83069e-07
3.83071e-07
3.83072e-07
3.83071e-07
3.83074e-07
3.83078e-07
3.83082e-07
3.83084e-07
3.83088e-07
3.8309e-07
3.83092e-07
3.83092e-07
3.83094e-07
3.83094e-07
3.83092e-07
3.83086e-07
3.83088e-07
3.83089e-07
3.83089e-07
3.83091e-07
3.83089e-07
3.83091e-07
3.83088e-07
3.83091e-07
3.83086e-07
3.83082e-07
3.83071e-07
3.83057e-07
3.83054e-07
3.83053e-07
3.83054e-07
3.83063e-07
3.83068e-07
3.83062e-07
3.83051e-07
3.83049e-07
3.83048e-07
3.83041e-07
3.83022e-07
3.83018e-07
3.83015e-07
3.83018e-07
3.83027e-07
3.83051e-07
3.83064e-07
3.83071e-07
3.83063e-07
3.83053e-07
3.8304e-07
3.83034e-07
3.83035e-07
3.83038e-07
3.8305e-07
3.83046e-07
3.83033e-07
3.83034e-07
3.8303e-07
3.83029e-07
3.83026e-07
3.83022e-07
3.8302e-07
3.83026e-07
3.83026e-07
3.83022e-07
3.83018e-07
3.83017e-07
3.83013e-07
3.83002e-07
3.82994e-07
3.82989e-07
3.82984e-07
3.82978e-07
3.82972e-07
3.82967e-07
3.82961e-07
3.82959e-07
3.83401e-07
3.8326e-07
3.83163e-07
3.83095e-07
3.83172e-07
3.83105e-07
3.83198e-07
3.83149e-07
3.83208e-07
3.83169e-07
3.83202e-07
3.83173e-07
3.83192e-07
3.83167e-07
3.83181e-07
3.83169e-07
3.8318e-07
3.83172e-07
3.83179e-07
3.83171e-07
3.83174e-07
3.83169e-07
3.83172e-07
3.83169e-07
3.83173e-07
3.83172e-07
3.83176e-07
3.83176e-07
3.83178e-07
3.83178e-07
3.83179e-07
3.83179e-07
3.8318e-07
3.8318e-07
3.83181e-07
3.83181e-07
3.83184e-07
3.83184e-07
3.83184e-07
3.83185e-07
3.83185e-07
3.83186e-07
3.83187e-07
3.83187e-07
3.8319e-07
3.8319e-07
3.8319e-07
3.8319e-07
3.8319e-07
3.83191e-07
3.8319e-07
3.83194e-07
3.83194e-07
3.83195e-07
3.83195e-07
3.83195e-07
3.83196e-07
3.83195e-07
3.83196e-07
3.83196e-07
3.83196e-07
3.83195e-07
3.83198e-07
3.83196e-07
3.83198e-07
3.83199e-07
3.83201e-07
3.83201e-07
3.83202e-07
3.83202e-07
3.83203e-07
3.83203e-07
3.83203e-07
3.83202e-07
3.83202e-07
3.83203e-07
3.83203e-07
3.83202e-07
3.83203e-07
3.83203e-07
3.83203e-07
3.83204e-07
3.83203e-07
3.83204e-07
3.83204e-07
3.83205e-07
3.83205e-07
3.83205e-07
3.83206e-07
3.83206e-07
3.83207e-07
3.83206e-07
3.83207e-07
3.83207e-07
3.83206e-07
3.83203e-07
3.83205e-07
3.83205e-07
3.83205e-07
3.83205e-07
3.83202e-07
3.83201e-07
3.83199e-07
3.83202e-07
3.83201e-07
3.832e-07
3.83194e-07
3.83183e-07
3.83178e-07
3.83178e-07
3.83177e-07
3.83181e-07
3.83188e-07
3.83182e-07
3.83175e-07
3.83173e-07
3.83171e-07
3.83162e-07
3.83151e-07
3.83149e-07
3.83146e-07
3.83147e-07
3.83154e-07
3.83174e-07
3.83188e-07
3.83194e-07
3.83185e-07
3.83181e-07
3.83172e-07
3.83169e-07
3.83171e-07
3.83175e-07
3.83189e-07
3.83193e-07
3.83188e-07
3.83194e-07
3.83191e-07
3.83188e-07
3.83186e-07
3.83184e-07
3.83183e-07
3.83182e-07
3.83183e-07
3.83184e-07
3.83183e-07
3.83181e-07
3.83179e-07
3.83178e-07
3.83177e-07
3.83174e-07
3.83171e-07
3.83169e-07
3.83166e-07
3.83164e-07
3.83162e-07
3.83161e-07
3.8315e-07
3.83008e-07
3.82679e-07
3.8261e-07
3.82736e-07
3.82595e-07
3.82743e-07
3.82654e-07
3.82822e-07
3.82794e-07
3.82886e-07
3.82889e-07
3.82952e-07
3.82938e-07
3.8297e-07
3.82956e-07
3.82999e-07
3.82986e-07
3.82999e-07
3.82981e-07
3.82992e-07
3.82983e-07
3.82991e-07
3.82995e-07
3.82996e-07
3.82998e-07
3.82993e-07
3.82989e-07
3.82998e-07
3.83002e-07
3.83013e-07
3.83022e-07
3.83023e-07
3.8302e-07
3.83021e-07
3.83022e-07
3.83019e-07
3.83017e-07
3.83018e-07
3.83017e-07
3.83025e-07
3.83026e-07
3.83026e-07
3.83025e-07
3.83026e-07
3.83026e-07
3.83029e-07
3.83035e-07
3.83033e-07
3.83036e-07
3.83045e-07
3.83034e-07
3.83033e-07
3.83032e-07
3.83035e-07
3.83034e-07
3.83043e-07
3.83052e-07
3.83055e-07
3.83059e-07
3.83063e-07
3.83072e-07
3.8306e-07
3.83067e-07
3.83068e-07
3.8305e-07
3.83048e-07
3.83049e-07
3.83049e-07
3.83049e-07
3.83051e-07
3.83049e-07
3.83049e-07
3.83054e-07
3.83058e-07
3.83062e-07
3.83068e-07
3.83073e-07
3.83075e-07
3.83077e-07
3.8308e-07
3.83083e-07
3.83085e-07
3.83084e-07
3.83086e-07
3.83091e-07
3.83095e-07
3.83098e-07
3.83102e-07
3.83106e-07
3.83107e-07
3.83108e-07
3.83111e-07
3.83111e-07
3.8311e-07
3.83106e-07
3.83109e-07
3.83111e-07
3.83113e-07
3.83116e-07
3.83115e-07
3.83117e-07
3.83113e-07
3.83116e-07
3.83112e-07
3.83109e-07
3.83098e-07
3.83084e-07
3.83081e-07
3.8308e-07
3.8308e-07
3.83089e-07
3.83094e-07
3.83089e-07
3.83078e-07
3.83077e-07
3.83076e-07
3.83068e-07
3.83051e-07
3.83048e-07
3.83046e-07
3.83049e-07
3.83057e-07
3.83081e-07
3.83093e-07
3.831e-07
3.83093e-07
3.83085e-07
3.83073e-07
3.83068e-07
3.8307e-07
3.83074e-07
3.83085e-07
3.83082e-07
3.83071e-07
3.83073e-07
3.83071e-07
3.8307e-07
3.83068e-07
3.83063e-07
3.83063e-07
3.8307e-07
3.83068e-07
3.83064e-07
3.8306e-07
3.83058e-07
3.83052e-07
3.8304e-07
3.83031e-07
3.83025e-07
3.83019e-07
3.83013e-07
3.83006e-07
3.83001e-07
3.82996e-07
3.82995e-07
3.83373e-07
3.83249e-07
3.8315e-07
3.83086e-07
3.83169e-07
3.83103e-07
3.83197e-07
3.83149e-07
3.8321e-07
3.83169e-07
3.832e-07
3.83171e-07
3.83188e-07
3.83161e-07
3.83175e-07
3.83162e-07
3.83174e-07
3.83167e-07
3.83175e-07
3.83168e-07
3.83172e-07
3.83167e-07
3.83171e-07
3.83168e-07
3.83171e-07
3.8317e-07
3.83174e-07
3.83175e-07
3.83177e-07
3.83177e-07
3.83178e-07
3.83178e-07
3.83179e-07
3.83179e-07
3.83181e-07
3.8318e-07
3.83183e-07
3.83183e-07
3.83184e-07
3.83184e-07
3.83185e-07
3.83185e-07
3.83186e-07
3.83187e-07
3.8319e-07
3.8319e-07
3.8319e-07
3.8319e-07
3.8319e-07
3.83191e-07
3.8319e-07
3.83195e-07
3.83195e-07
3.83196e-07
3.83196e-07
3.83197e-07
3.83196e-07
3.83196e-07
3.83196e-07
3.83196e-07
3.83196e-07
3.83195e-07
3.83199e-07
3.83197e-07
3.83198e-07
3.83201e-07
3.83202e-07
3.83203e-07
3.83204e-07
3.83204e-07
3.83204e-07
3.83204e-07
3.83204e-07
3.83204e-07
3.83203e-07
3.83204e-07
3.83204e-07
3.83203e-07
3.83203e-07
3.83204e-07
3.83204e-07
3.83204e-07
3.83204e-07
3.83204e-07
3.83205e-07
3.83205e-07
3.83206e-07
3.83206e-07
3.83206e-07
3.83206e-07
3.83207e-07
3.83207e-07
3.83207e-07
3.83207e-07
3.83206e-07
3.83204e-07
3.83205e-07
3.83205e-07
3.83204e-07
3.83205e-07
3.83202e-07
3.83202e-07
3.832e-07
3.83203e-07
3.83202e-07
3.832e-07
3.83194e-07
3.83184e-07
3.83179e-07
3.83178e-07
3.83177e-07
3.83181e-07
3.83188e-07
3.83181e-07
3.83173e-07
3.83171e-07
3.8317e-07
3.83161e-07
3.83147e-07
3.83145e-07
3.83141e-07
3.83143e-07
3.83151e-07
3.83171e-07
3.83186e-07
3.83193e-07
3.83185e-07
3.83181e-07
3.83172e-07
3.83168e-07
3.8317e-07
3.83174e-07
3.83189e-07
3.83192e-07
3.83187e-07
3.83193e-07
3.8319e-07
3.83187e-07
3.83185e-07
3.83184e-07
3.83183e-07
3.83181e-07
3.83182e-07
3.83183e-07
3.83182e-07
3.8318e-07
3.83179e-07
3.83178e-07
3.83176e-07
3.83174e-07
3.83171e-07
3.83168e-07
3.83166e-07
3.83163e-07
3.8316e-07
3.83159e-07
3.83175e-07
3.82994e-07
3.82547e-07
3.82515e-07
3.82654e-07
3.82526e-07
3.82672e-07
3.82589e-07
3.82769e-07
3.82749e-07
3.82842e-07
3.82859e-07
3.82926e-07
3.82918e-07
3.82947e-07
3.82934e-07
3.8298e-07
3.82966e-07
3.82978e-07
3.82958e-07
3.82968e-07
3.82959e-07
3.82966e-07
3.82971e-07
3.82972e-07
3.82976e-07
3.82968e-07
3.82963e-07
3.82974e-07
3.82979e-07
3.82992e-07
3.83004e-07
3.83004e-07
3.83001e-07
3.83002e-07
3.83002e-07
3.82998e-07
3.82996e-07
3.82998e-07
3.82997e-07
3.83006e-07
3.83007e-07
3.83006e-07
3.83005e-07
3.83006e-07
3.83007e-07
3.83011e-07
3.83018e-07
3.83016e-07
3.83019e-07
3.83029e-07
3.83015e-07
3.83014e-07
3.83012e-07
3.83016e-07
3.83015e-07
3.83026e-07
3.83037e-07
3.83041e-07
3.83046e-07
3.83049e-07
3.83061e-07
3.83046e-07
3.83056e-07
3.83057e-07
3.83035e-07
3.83032e-07
3.83032e-07
3.83033e-07
3.83033e-07
3.83035e-07
3.83033e-07
3.83033e-07
3.8304e-07
3.83044e-07
3.83048e-07
3.83055e-07
3.83061e-07
3.83063e-07
3.83066e-07
3.83069e-07
3.83072e-07
3.83075e-07
3.83074e-07
3.83077e-07
3.83083e-07
3.83087e-07
3.83091e-07
3.83095e-07
3.83099e-07
3.831e-07
3.83103e-07
3.83106e-07
3.83108e-07
3.83107e-07
3.83104e-07
3.83107e-07
3.8311e-07
3.83117e-07
3.83119e-07
3.83117e-07
3.83119e-07
3.83115e-07
3.8312e-07
3.83118e-07
3.83115e-07
3.83105e-07
3.83092e-07
3.83088e-07
3.83087e-07
3.83088e-07
3.83097e-07
3.83103e-07
3.83098e-07
3.83087e-07
3.83086e-07
3.83084e-07
3.83076e-07
3.8306e-07
3.83058e-07
3.83055e-07
3.83059e-07
3.83066e-07
3.83091e-07
3.83103e-07
3.8311e-07
3.83102e-07
3.83095e-07
3.83082e-07
3.83078e-07
3.83079e-07
3.83082e-07
3.83094e-07
3.83092e-07
3.83083e-07
3.83086e-07
3.83085e-07
3.83083e-07
3.83081e-07
3.83075e-07
3.83073e-07
3.83079e-07
3.83077e-07
3.83073e-07
3.83069e-07
3.83067e-07
3.83061e-07
3.83047e-07
3.83038e-07
3.83033e-07
3.83026e-07
3.83021e-07
3.83015e-07
3.83009e-07
3.83005e-07
3.83004e-07
3.83369e-07
3.83242e-07
3.83136e-07
3.83076e-07
3.83166e-07
3.831e-07
3.83195e-07
3.83147e-07
3.83209e-07
3.83168e-07
3.83198e-07
3.83167e-07
3.83183e-07
3.83155e-07
3.83168e-07
3.83155e-07
3.83168e-07
3.83161e-07
3.8317e-07
3.83163e-07
3.83168e-07
3.83163e-07
3.83168e-07
3.83165e-07
3.83168e-07
3.83167e-07
3.83172e-07
3.83173e-07
3.83175e-07
3.83175e-07
3.83176e-07
3.83176e-07
3.83177e-07
3.83178e-07
3.83179e-07
3.83178e-07
3.83181e-07
3.83182e-07
3.83182e-07
3.83183e-07
3.83183e-07
3.83184e-07
3.83184e-07
3.83186e-07
3.83189e-07
3.83189e-07
3.83189e-07
3.83188e-07
3.83189e-07
3.8319e-07
3.83189e-07
3.83194e-07
3.83195e-07
3.83195e-07
3.83196e-07
3.83196e-07
3.83196e-07
3.83196e-07
3.83196e-07
3.83196e-07
3.83196e-07
3.83194e-07
3.83199e-07
3.83197e-07
3.83198e-07
3.83201e-07
3.83203e-07
3.83203e-07
3.83204e-07
3.83204e-07
3.83205e-07
3.83205e-07
3.83205e-07
3.83204e-07
3.83204e-07
3.83204e-07
3.83204e-07
3.83203e-07
3.83203e-07
3.83204e-07
3.83204e-07
3.83204e-07
3.83204e-07
3.83204e-07
3.83205e-07
3.83205e-07
3.83205e-07
3.83205e-07
3.83206e-07
3.83206e-07
3.83207e-07
3.83206e-07
3.83207e-07
3.83207e-07
3.83206e-07
3.83203e-07
3.83204e-07
3.83204e-07
3.83203e-07
3.83204e-07
3.83202e-07
3.83202e-07
3.832e-07
3.83202e-07
3.83201e-07
3.83199e-07
3.83193e-07
3.83182e-07
3.83177e-07
3.83177e-07
3.83176e-07
3.83179e-07
3.83186e-07
3.83178e-07
3.8317e-07
3.83168e-07
3.83167e-07
3.83158e-07
3.83144e-07
3.83141e-07
3.83138e-07
3.8314e-07
3.83148e-07
3.83169e-07
3.83184e-07
3.83192e-07
3.83185e-07
3.83179e-07
3.8317e-07
3.83166e-07
3.83169e-07
3.83174e-07
3.83189e-07
3.83192e-07
3.83185e-07
3.83192e-07
3.83187e-07
3.83185e-07
3.83183e-07
3.83181e-07
3.83181e-07
3.83179e-07
3.83181e-07
3.83181e-07
3.8318e-07
3.83178e-07
3.83177e-07
3.83176e-07
3.83174e-07
3.83171e-07
3.83168e-07
3.83164e-07
3.83161e-07
3.83158e-07
3.83155e-07
3.83153e-07
3.83132e-07
3.82965e-07
3.82379e-07
3.82397e-07
3.82558e-07
3.8245e-07
3.82595e-07
3.82517e-07
3.82705e-07
3.82691e-07
3.82783e-07
3.82812e-07
3.82883e-07
3.82881e-07
3.82912e-07
3.829e-07
3.82949e-07
3.82938e-07
3.8295e-07
3.82928e-07
3.8294e-07
3.8293e-07
3.82938e-07
3.82945e-07
3.82945e-07
3.8295e-07
3.8294e-07
3.82934e-07
3.82946e-07
3.82952e-07
3.82967e-07
3.82981e-07
3.82982e-07
3.82978e-07
3.82979e-07
3.82979e-07
3.82974e-07
3.82972e-07