/*--------------------------------*- C++ -*----------------------------------*\
| =========                 |                                                 |
| \\      /  F ield         | OpenFOAM: The Open Source CFD Toolbox           |
|  \\    /   O peration     | Version:  v1912                                 |
|   \\  /    A nd           | Website:  www.openfoam.com                      |
|    \\/     M anipulation  |                                                 |
\*---------------------------------------------------------------------------*/
FoamFile
{
    version     2.0;
    format      ascii;
    class       volScalarField;
    location    "30";
    object      omega;
}
// * * * * * * * * * * * * * * * * * * * * * * * * * * * * * * * * * * * * * //

dimensions      [0 0 -1 0 0 0 0];


internalField   nonuniform List<scalar> 
14268
(
2.99111
2.9911
2.99109
2.99108
2.99107
2.99106
2.99105
2.99104
0.613622
0.623215
0.634501
0.643799
0.653489
0.66106
0.67116
0.673532
0.401135
0.402302
0.404024
0.405801
0.407903
0.40989
0.412527
0.413375
0.382706
0.382828
0.38304
0.383273
0.383588
0.383925
0.384446
0.384663
0.381296
0.381309
0.381336
0.381385
0.381422
0.381565
0.381747
0.381876
0.381217
0.381203
0.381202
0.381192
0.381204
0.381248
0.381354
0.381412
0.381212
0.381208
0.381211
0.381231
0.381231
0.38133
0.381463
0.381566
0.381224
0.381205
0.381201
0.381187
0.381191
0.381246
0.381344
0.381402
0.381223
0.381215
0.381218
0.381238
0.381239
0.38132
0.381457
0.381554
0.381234
0.381212
0.381208
0.381188
0.381196
0.38126
0.381351
0.381409
0.381231
0.381221
0.381223
0.381243
0.381242
0.381327
0.381449
0.381542
0.381239
0.381219
0.38122
0.381214
0.381215
0.381267
0.381352
0.381395
0.38132
0.381346
0.381364
0.381387
0.381368
0.381388
0.381397
0.381471
0.381266
0.381286
0.381368
0.38141
0.381561
0.381568
0.381687
0.381585
0.381153
0.381143
0.381181
0.381214
0.381369
0.381459
0.382141
0.382236
0.38114
0.381154
0.381163
0.381167
0.381199
0.381272
0.381469
0.381669
0.381167
0.381169
0.381146
0.381177
0.381157
0.381243
0.381392
0.381613
0.381177
0.381187
0.381183
0.38121
0.381229
0.381293
0.381319
0.381371
0.38119
0.3812
0.381166
0.381184
0.38117
0.381259
0.381327
0.38152
0.381225
0.381239
0.38121
0.381231
0.381246
0.381293
0.381376
0.381452
0.381231
0.381256
0.381224
0.381214
0.381216
0.381343
0.381308
0.381435
0.381194
0.381207
0.381189
0.381231
0.381199
0.381283
0.381294
0.381378
0.381166
0.381169
0.381157
0.381198
0.381196
0.381299
0.381344
0.381408
0.381293
0.381311
0.381321
0.381359
0.381352
0.381446
0.381461
0.381475
0.381193
0.381206
0.381221
0.38124
0.381242
0.381352
0.381423
0.381466
0.381419
0.381445
0.381461
0.381485
0.381481
0.381587
0.381567
0.381524
0.381237
0.381258
0.381315
0.381339
0.381314
0.381429
0.381538
0.381615
0.381589
0.381625
0.381635
0.381625
0.381611
0.38175
0.381733
0.381594
0.381331
0.381346
0.381443
0.381466
0.381461
0.381543
0.381675
0.381874
0.381831
0.381877
0.381848
0.381767
0.381823
0.381952
0.382008
0.381735
0.381522
0.381484
0.38164
0.381715
0.381716
0.381648
0.381874
0.382285
0.383371
0.382811
0.382284
0.382086
0.382163
0.382407
0.382406
0.382119
0.433273
0.421531
0.402351
0.39018
0.38323
0.382065
0.381931
0.382251
0.920136
0.767356
0.667916
0.604512
0.543405
0.49648
0.451882
0.420532
0.796342
0.779039
0.691963
0.738497
0.825201
0.857561
0.899441
0.945982
6.88098
7.00192
7.15592
7.26272
7.38768
7.5258
7.49276
7.2893
8.39104
8.06005
7.66498
7.24592
6.75928
6.34881
5.89931
5.53407
8.3166
8.86711
9.20622
9.16147
8.85833
8.76486
8.3174
7.6769
1.88237
1.92918
1.73161
1.39471
1.27613
1.40197
1.38509
1.45989
0.435714
0.443719
0.430703
0.420729
0.42319
0.447597
0.431119
0.449226
0.401508
0.400862
0.398262
0.396096
0.396142
0.407522
0.411621
0.423621
0.399503
0.399772
0.397737
0.397359
0.404591
0.402015
0.414358
0.411523
0.397199
0.396896
0.395229
0.39485
0.39759
0.393807
0.395259
0.402284
0.39624
0.395941
0.394813
0.395163
0.396708
0.396458
0.396234
0.404226
0.394798
0.394053
0.392749
0.392368
0.39416
0.39304
0.390671
0.393259
0.393983
0.393356
0.392154
0.391681
0.392884
0.392714
0.39253
0.393244
0.39275
0.392002
0.391115
0.390532
0.391476
0.391071
0.390568
0.390796
0.391977
0.391348
0.390458
0.389946
0.390438
0.390519
0.389887
0.390149
0.390885
0.390193
0.389532
0.38906
0.389393
0.389211
0.388499
0.38882
0.390167
0.3896
0.388923
0.388506
0.388503
0.388484
0.38771
0.387966
0.389231
0.388645
0.388187
0.387741
0.3877
0.387481
0.386814
0.387032
0.388584
0.388104
0.387606
0.387197
0.386918
0.386717
0.38608
0.38622
0.387795
0.387313
0.386981
0.386536
0.386276
0.385921
0.385455
0.385511
0.387221
0.386828
0.386415
0.386003
0.385611
0.385237
0.384795
0.384849
0.386558
0.386166
0.385872
0.385445
0.385113
0.384602
0.384327
0.38432
0.386049
0.385718
0.38534
0.384939
0.384518
0.384032
0.383763
0.383836
0.385483
0.385154
0.38486
0.384449
0.384083
0.383594
0.383377
0.383438
0.385032
0.384752
0.384361
0.383988
0.38356
0.383158
0.38292
0.383095
0.384557
0.38428
0.383949
0.383569
0.383198
0.382817
0.382614
0.382799
0.384161
0.383926
0.383524
0.383195
0.382769
0.382517
0.382278
0.382528
0.383766
0.383529
0.383205
0.382867
0.38254
0.382266
0.382052
0.382326
0.38342
0.383233
0.382854
0.382594
0.38223
0.382078
0.381853
0.382154
0.383099
0.382908
0.382625
0.382356
0.38209
0.381891
0.381706
0.382039
0.382814
0.382669
0.382345
0.38217
0.381875
0.381768
0.381628
0.381909
0.382559
0.382401
0.38217
0.381986
0.38179
0.381649
0.38151
0.381857
0.382329
0.382222
0.381965
0.381858
0.381631
0.381595
0.38152
0.38175
0.382125
0.382005
0.381831
0.381714
0.381583
0.38154
0.381488
0.381713
0.381946
0.381877
0.381683
0.38163
0.381483
0.381513
0.381473
0.381637
0.381792
0.381707
0.381591
0.381529
0.38146
0.381487
0.381474
0.381623
0.381661
0.381623
0.381495
0.381487
0.381418
0.38149
0.381465
0.381582
0.381546
0.381504
0.381436
0.381437
0.381415
0.381488
0.381466
0.381588
0.381451
0.381462
0.381378
0.381431
0.381399
0.381495
0.381454
0.381579
0.381375
0.381394
0.381354
0.381422
0.381384
0.381489
0.38143
0.381575
0.381345
0.381376
0.381347
0.3814
0.381379
0.381455
0.381422
0.381552
0.381336
0.381354
0.381364
0.381384
0.381399
0.381435
0.38144
0.381507
0.381338
0.381361
0.381367
0.381392
0.381409
0.381434
0.381448
0.381495
0.381332
0.381361
0.381368
0.381395
0.381397
0.381439
0.381439
0.381499
0.381324
0.381364
0.381349
0.3814
0.381383
0.381448
0.381422
0.381505
0.381322
0.381372
0.381341
0.381404
0.381365
0.381441
0.381395
0.381482
0.38131
0.38136
0.381329
0.381389
0.381353
0.38142
0.381381
0.381453
0.381308
0.381358
0.381325
0.381384
0.381346
0.381411
0.381369
0.381439
0.381307
0.381352
0.381324
0.381375
0.381343
0.381398
0.381364
0.381421
0.381328
0.381367
0.381345
0.381387
0.381363
0.381406
0.381381
0.381425
0.381613
0.381632
0.38161
0.38163
0.381605
0.381626
0.381601
0.381621
0.385046
0.384963
0.384861
0.384773
0.384663
0.384571
0.384454
0.384357
0.419243
0.4186
0.418012
0.417333
0.416696
0.41598
0.415286
0.41453
0.700026
0.69734
0.695144
0.692452
0.690186
0.687466
0.685066
0.682277
2.98359
2.98361
2.98362
2.98363
2.98364
2.98365
2.98365
2.98366
2.98366
2.98367
2.98367
2.98367
2.98367
2.98367
2.98368
2.98368
2.98368
2.98367
2.98367
2.98366
2.98366
2.98365
2.98365
2.98365
2.98365
2.98365
2.98365
2.98365
2.98365
2.98365
2.98365
2.98365
2.98365
2.98365
2.98364
2.98364
2.98364
2.98364
2.98364
2.98364
2.98364
2.98364
2.98364
2.98364
2.98364
2.98364
2.98364
2.98364
2.98364
2.98364
2.98364
2.98364
2.98365
2.98365
2.98365
2.98365
2.98365
2.98365
2.98365
2.98365
2.98365
2.98365
2.98365
2.98365
2.98365
2.98365
2.98365
2.98365
2.98365
2.98365
2.98365
2.98365
2.98365
2.98365
2.98366
2.98366
2.98366
2.98366
2.98366
2.98366
2.98366
2.98367
2.98367
2.98367
2.98367
2.98367
2.98367
2.98368
2.98368
2.98368
2.98368
2.98368
2.98368
2.98368
2.98368
2.98368
2.98368
2.98368
2.98368
2.98368
2.98368
2.98368
2.98368
2.98368
2.98367
2.98367
2.98367
2.98366
2.98366
2.98366
2.98366
2.98366
2.98366
2.98367
2.98367
2.98367
2.98367
2.98368
2.98368
2.98368
2.98369
2.98369
2.98369
2.98369
2.98369
2.98368
2.98367
2.98367
2.98367
2.98367
2.98367
2.98366
2.98366
2.98366
2.98366
2.98366
2.98365
2.98365
2.98365
2.98365
2.98365
2.98365
2.98365
2.98365
2.98365
2.98365
2.98365
2.98365
2.98366
2.98366
2.98367
2.98367
2.98368
2.98369
2.98369
2.9837
0.66818
0.653109
0.63716
0.62593
0.615042
0.610342
0.60715
0.606362
0.605864
0.605632
0.605392
0.605263
0.605129
0.60504
0.604923
0.604889
0.604959
0.605246
0.605673
0.606177
0.606641
0.607042
0.60736
0.608134
0.608721
0.609054
0.609233
0.609334
0.609378
0.609398
0.609408
0.609464
0.609626
0.609776
0.609895
0.609999
0.61013
0.61032
0.61051
0.610655
0.610743
0.610763
0.610727
0.610671
0.610638
0.610662
0.610643
0.610572
0.610476
0.610365
0.610266
0.610215
0.610233
0.610266
0.610286
0.610288
0.610259
0.610193
0.610087
0.60995
0.6098
0.609674
0.609602
0.609583
0.609577
0.60961
0.609641
0.609677
0.60968
0.609644
0.609581
0.609508
0.609418
0.609308
0.609192
0.609067
0.608931
0.608777
0.608589
0.608372
0.60814
0.607918
0.607722
0.607545
0.607378
0.607209
0.607041
0.60689
0.606765
0.606686
0.606654
0.606675
0.606733
0.606802
0.606854
0.606866
0.606813
0.606726
0.606614
0.60651
0.60648
0.606574
0.606841
0.607223
0.607664
0.608078
0.608444
0.609065
0.609606
0.609852
0.609819
0.609781
0.61016
0.610636
0.610852
0.610839
0.610789
0.610939
0.611364
0.611812
0.611879
0.611149
0.60969
0.608385
0.608221
0.609331
0.612357
0.616529
0.61954
0.621061
0.621232
0.620359
0.618947
0.618783
0.620649
0.623237
0.62626
0.629179
0.631676
0.63359
0.634873
0.635528
0.635609
0.635263
0.63458
0.633657
0.632598
0.631502
0.630442
0.629476
0.628624
0.627876
0.627205
0.62659
0.626017
0.625482
0.412227
0.408664
0.405315
0.403197
0.401422
0.400762
0.400319
0.400199
0.400111
0.400066
0.400028
0.400007
0.399992
0.399996
0.399992
0.400012
0.400041
0.400111
0.40019
0.400284
0.400362
0.400431
0.400478
0.400562
0.400623
0.400658
0.400674
0.400685
0.40069
0.400695
0.400699
0.400709
0.400732
0.400754
0.400774
0.400792
0.400813
0.400842
0.40087
0.400893
0.400909
0.400916
0.400918
0.400917
0.400919
0.400929
0.400933
0.400932
0.400926
0.400917
0.40091
0.400908
0.400918
0.400929
0.400938
0.400944
0.400946
0.400942
0.400932
0.400918
0.400902
0.400889
0.400881
0.400884
0.400888
0.400897
0.400906
0.400918
0.400924
0.400925
0.40092
0.400914
0.400906
0.400893
0.400879
0.400862
0.400844
0.400821
0.400793
0.400758
0.400721
0.400685
0.400654
0.400624
0.400597
0.400569
0.400542
0.400517
0.400497
0.400485
0.40048
0.400483
0.400492
0.400501
0.400506
0.400504
0.400488
0.400465
0.400439
0.400417
0.400412
0.40043
0.400479
0.400545
0.400621
0.400693
0.400757
0.400834
0.40089
0.400907
0.40089
0.400868
0.400882
0.400905
0.400902
0.400877
0.40085
0.400849
0.400874
0.400897
0.400879
0.40078
0.400614
0.400472
0.40045
0.400567
0.400873
0.401282
0.401587
0.401741
0.401756
0.401668
0.401531
0.401541
0.401776
0.402086
0.402445
0.402793
0.403099
0.403345
0.403524
0.403637
0.403687
0.403689
0.403654
0.403591
0.403513
0.403429
0.403346
0.40327
0.403204
0.403146
0.403094
0.403046
0.403002
0.402962
0.384451
0.383792
0.38324
0.382969
0.382726
0.382675
0.382595
0.382602
0.382564
0.382567
0.382544
0.382545
0.382533
0.382538
0.38253
0.382534
0.382529
0.382537
0.382545
0.382557
0.382564
0.382573
0.382578
0.382587
0.382594
0.382598
0.382601
0.382603
0.382602
0.382602
0.382601
0.382601
0.382604
0.382607
0.382609
0.382611
0.382614
0.382618
0.382622
0.382624
0.382625
0.382626
0.382626
0.382626
0.382627
0.382629
0.382629
0.382628
0.382627
0.382626
0.382624
0.382625
0.382627
0.382629
0.38263
0.382632
0.382631
0.382629
0.382627
0.382625
0.382622
0.38262
0.382621
0.382621
0.382621
0.382626
0.382627
0.382629
0.38263
0.38263
0.38263
0.382629
0.382629
0.382627
0.382625
0.382622
0.382619
0.382615
0.382611
0.382607
0.382602
0.382597
0.382594
0.382591
0.382587
0.382583
0.382579
0.382576
0.382573
0.382571
0.38257
0.382571
0.382572
0.382573
0.382573
0.382574
0.382572
0.38257
0.382568
0.382566
0.382567
0.382569
0.382576
0.382584
0.382594
0.382605
0.382616
0.382628
0.382635
0.382638
0.382636
0.382632
0.382633
0.38264
0.382645
0.382649
0.382651
0.382657
0.382666
0.382672
0.382674
0.382662
0.382638
0.382613
0.3826
0.382608
0.382639
0.382687
0.382728
0.38275
0.382751
0.382737
0.382715
0.382711
0.382741
0.382777
0.382821
0.382865
0.382903
0.382934
0.382956
0.382969
0.382974
0.382973
0.382968
0.38296
0.38295
0.382941
0.382932
0.382923
0.382917
0.382911
0.382907
0.382903
0.3829
0.382897
0.381792
0.381559
0.381405
0.381325
0.381319
0.38129
0.381321
0.381294
0.381305
0.38128
0.38129
0.381269
0.381269
0.381253
0.381255
0.381249
0.381251
0.381245
0.381245
0.381239
0.381237
0.381231
0.381229
0.381228
0.381231
0.38123
0.381233
0.381233
0.381232
0.381231
0.38123
0.381229
0.38123
0.38123
0.38123
0.38123
0.381232
0.381233
0.381233
0.381234
0.381233
0.381233
0.381233
0.381233
0.381234
0.381233
0.381233
0.381231
0.381232
0.381232
0.38123
0.381233
0.381233
0.381233
0.381232
0.381233
0.381232
0.381231
0.38123
0.381229
0.381228
0.381226
0.381229
0.381226
0.381226
0.381229
0.381231
0.381231
0.381232
0.381231
0.381232
0.381232
0.381231
0.38123
0.38123
0.38123
0.381228
0.381227
0.381227
0.381227
0.381226
0.381226
0.381226
0.381226
0.381226
0.381226
0.381225
0.381225
0.381224
0.381224
0.381225
0.381225
0.381225
0.381226
0.381225
0.381225
0.381225
0.381226
0.381228
0.381229
0.381229
0.38123
0.381231
0.381234
0.381235
0.381237
0.381239
0.38124
0.381241
0.381242
0.381243
0.381241
0.381245
0.381248
0.381253
0.381261
0.381267
0.381275
0.381281
0.381283
0.381287
0.381285
0.381282
0.381273
0.381264
0.381258
0.381253
0.381254
0.381258
0.381262
0.381262
0.381259
0.381253
0.381248
0.381254
0.381257
0.381263
0.381271
0.381277
0.381283
0.381287
0.381287
0.381288
0.381289
0.381288
0.381287
0.381285
0.381286
0.381286
0.381286
0.381286
0.381287
0.381288
0.381289
0.381291
0.381293
0.381379
0.381281
0.381229
0.381236
0.381215
0.381244
0.38122
0.381237
0.381205
0.381207
0.381187
0.381183
0.38117
0.381171
0.381164
0.381165
0.381154
0.381154
0.381151
0.381153
0.381151
0.381152
0.38115
0.381149
0.381149
0.381149
0.381151
0.381152
0.38115
0.381149
0.381147
0.381145
0.381145
0.381146
0.381146
0.381146
0.381147
0.381148
0.381148
0.381148
0.381147
0.381147
0.381147
0.381147
0.381147
0.381147
0.381147
0.381145
0.381146
0.381145
0.381143
0.381146
0.381146
0.381147
0.381146
0.381147
0.381145
0.381143
0.381142
0.381141
0.38114
0.381138
0.381141
0.38114
0.38114
0.381144
0.381145
0.381145
0.381145
0.381145
0.381144
0.381145
0.381145
0.381144
0.381143
0.381142
0.381141
0.38114
0.381139
0.381139
0.381138
0.381137
0.381137
0.381137
0.381137
0.381136
0.381135
0.381134
0.381133
0.381132
0.381132
0.381132
0.381131
0.381132
0.381132
0.381134
0.381134
0.381134
0.381135
0.381136
0.381137
0.381138
0.381138
0.381139
0.38114
0.381142
0.381147
0.38115
0.381151
0.381153
0.381153
0.381151
0.381152
0.381156
0.381163
0.38117
0.381175
0.381182
0.381188
0.381191
0.381195
0.381194
0.381189
0.38118
0.381169
0.381162
0.381156
0.381154
0.381157
0.38116
0.38116
0.381157
0.381152
0.381147
0.38115
0.381149
0.38115
0.381152
0.381153
0.381155
0.381155
0.381155
0.381155
0.381155
0.381156
0.381156
0.381157
0.38116
0.381162
0.381164
0.381166
0.381168
0.38117
0.381173
0.381175
0.381176
0.381501
0.381351
0.381285
0.381229
0.381244
0.381221
0.381262
0.381234
0.381242
0.381214
0.381222
0.381196
0.381194
0.381175
0.381178
0.38117
0.38117
0.381164
0.381164
0.381158
0.381155
0.381149
0.381148
0.381145
0.381147
0.381145
0.381149
0.381149
0.381148
0.381146
0.381144
0.381143
0.381143
0.381143
0.381143
0.381143
0.381145
0.381146
0.381145
0.381146
0.381144
0.381144
0.381144
0.381145
0.381146
0.381145
0.381144
0.381142
0.381143
0.381143
0.381141
0.381145
0.381144
0.381144
0.381144
0.381144
0.381142
0.38114
0.381139
0.381139
0.381138
0.381135
0.381139
0.381135
0.381135
0.38114
0.381142
0.381142
0.381142
0.381142
0.381142
0.381142
0.381142
0.38114
0.38114
0.381139
0.381138
0.381137
0.381136
0.381136
0.381136
0.381136
0.381136
0.381137
0.381136
0.381136
0.381136
0.381135
0.381134
0.381134
0.381135
0.381134
0.381134
0.381134
0.381134
0.381133
0.381134
0.381134
0.381135
0.381136
0.381137
0.381137
0.381138
0.38114
0.381141
0.381143
0.381144
0.381144
0.381145
0.381146
0.381148
0.381147
0.38115
0.381152
0.381158
0.381166
0.381172
0.38118
0.381185
0.381187
0.38119
0.381189
0.381187
0.381179
0.38117
0.381163
0.381154
0.38115
0.381152
0.381155
0.381155
0.381152
0.381149
0.381144
0.381147
0.381144
0.381146
0.381148
0.381151
0.381154
0.381155
0.381154
0.381155
0.381156
0.381157
0.381156
0.381156
0.381158
0.38116
0.38116
0.381162
0.381163
0.381164
0.381166
0.381168
0.38117
0.381371
0.381269
0.381259
0.381256
0.381235
0.381262
0.38124
0.381257
0.38122
0.381219
0.381198
0.381188
0.381174
0.381172
0.381166
0.381166
0.381155
0.381155
0.381152
0.381155
0.381152
0.381153
0.381151
0.38115
0.381151
0.38115
0.381152
0.381154
0.381152
0.381151
0.381147
0.381145
0.381145
0.381146
0.381146
0.381146
0.381147
0.381148
0.381148
0.381148
0.381146
0.381146
0.381146
0.381147
0.381147
0.381147
0.381146
0.381145
0.381145
0.381144
0.381142
0.381146
0.381146
0.381147
0.381146
0.381147
0.381144
0.381142
0.38114
0.381139
0.381138
0.381136
0.38114
0.381138
0.381137
0.381144
0.381144
0.381145
0.381145
0.381145
0.381144
0.381145
0.381145
0.381143
0.381143
0.381142
0.38114
0.381138
0.381138
0.381137
0.381136
0.381136
0.381135
0.381136
0.381135
0.381133
0.381132
0.381132
0.381131
0.38113
0.381129
0.381129
0.381128
0.381128
0.381128
0.38113
0.381129
0.381129
0.381129
0.38113
0.381131
0.381132
0.381133
0.381133
0.381134
0.381136
0.381141
0.381144
0.381145
0.381146
0.381147
0.381145
0.381146
0.38115
0.381157
0.381164
0.381169
0.381177
0.381183
0.381186
0.381189
0.381188
0.381184
0.381174
0.381163
0.381156
0.381149
0.381147
0.38115
0.381153
0.381152
0.381149
0.381144
0.381139
0.381142
0.381141
0.381142
0.381143
0.381145
0.381147
0.381148
0.381147
0.381147
0.381148
0.381148
0.381149
0.38115
0.381153
0.381156
0.381158
0.38116
0.381163
0.381165
0.381167
0.38117
0.38117
0.381477
0.381356
0.381325
0.381258
0.381268
0.381242
0.381286
0.381257
0.38126
0.381229
0.381237
0.381206
0.381201
0.381181
0.381184
0.381177
0.381176
0.38117
0.381171
0.381165
0.381162
0.381156
0.381155
0.381151
0.381154
0.381151
0.381156
0.381156
0.381155
0.381153
0.38115
0.381148
0.381147
0.381148
0.381149
0.381148
0.381151
0.381151
0.381151
0.381151
0.381149
0.381149
0.38115
0.38115
0.381151
0.38115
0.381149
0.381147
0.381148
0.381148
0.381145
0.38115
0.38115
0.38115
0.381149
0.381149
0.381147
0.381144
0.381143
0.381142
0.381141
0.381138
0.381143
0.381138
0.381139
0.381145
0.381147
0.381147
0.381148
0.381147
0.381147
0.381148
0.381147
0.381145
0.381144
0.381144
0.381142
0.381141
0.38114
0.38114
0.38114
0.38114
0.381139
0.38114
0.38114
0.381139
0.381138
0.381137
0.381137
0.381137
0.381137
0.381137
0.381136
0.381136
0.381135
0.381134
0.381134
0.381135
0.381134
0.381135
0.381136
0.381136
0.381136
0.381139
0.381139
0.381141
0.381143
0.381143
0.381143
0.381145
0.381146
0.381146
0.381149
0.381151
0.381157
0.381165
0.381171
0.381179
0.381184
0.381186
0.381189
0.381188
0.381186
0.381178
0.381168
0.381162
0.381153
0.381149
0.38115
0.381152
0.381152
0.38115
0.381147
0.381142
0.381144
0.381142
0.381143
0.381146
0.381149
0.381153
0.381154
0.381153
0.381154
0.381155
0.381155
0.381154
0.381155
0.381157
0.381159
0.38116
0.381161
0.381163
0.381164
0.381166
0.381168
0.38117
0.381375
0.381262
0.381308
0.381289
0.381263
0.381285
0.381265
0.38128
0.38124
0.381236
0.381214
0.3812
0.381184
0.381179
0.381174
0.381174
0.381161
0.381162
0.381159
0.381162
0.381159
0.38116
0.381159
0.381157
0.381157
0.381156
0.38116
0.381161
0.381159
0.381157
0.381153
0.38115
0.38115
0.381151
0.381152
0.381152
0.381153
0.381154
0.381154
0.381154
0.381152
0.381152
0.381152
0.381153
0.381153
0.381153
0.381152
0.38115
0.381151
0.38115
0.381147
0.381152
0.381153
0.381153
0.381153
0.381153
0.38115
0.381146
0.381145
0.381144
0.381143
0.381139
0.381145
0.381141
0.381141
0.381149
0.38115
0.38115
0.38115
0.38115
0.38115
0.381151
0.381151
0.381149
0.381148
0.381146
0.381144
0.381143
0.381142
0.381141
0.381141
0.38114
0.381139
0.381139
0.381139
0.381137
0.381136
0.381135
0.381134
0.381133
0.381132
0.381131
0.38113
0.38113
0.38113
0.381131
0.38113
0.38113
0.381129
0.381129
0.381131
0.381132
0.381132
0.381132
0.381133
0.381135
0.381139
0.381143
0.381144
0.381145
0.381145
0.381143
0.381145
0.381149
0.381155
0.381163
0.381168
0.381176
0.381182
0.381185
0.381188
0.381187
0.381183
0.381173
0.381162
0.381154
0.381148
0.381145
0.381149
0.381152
0.381151
0.381147
0.381142
0.381137
0.381139
0.381138
0.381139
0.381141
0.381142
0.381145
0.381147
0.381146
0.381146
0.381147
0.381148
0.381148
0.381149
0.381153
0.381156
0.381158
0.38116
0.381162
0.381165
0.381167
0.381169
0.38117
0.381485
0.381368
0.381378
0.381294
0.381295
0.381266
0.381311
0.381281
0.38128
0.381248
0.381255
0.381219
0.381213
0.38119
0.381194
0.381186
0.381184
0.381178
0.381179
0.381173
0.38117
0.381163
0.381162
0.381158
0.381161
0.381158
0.381163
0.381165
0.381162
0.38116
0.381157
0.381154
0.381154
0.381155
0.381155
0.381155
0.381158
0.381158
0.381157
0.381158
0.381156
0.381156
0.381156
0.381156
0.381158
0.381156
0.381155
0.381152
0.381154
0.381153
0.38115
0.381157
0.381156
0.381157
0.381156
0.381156
0.381153
0.381149
0.381149
0.381147
0.381146
0.381142
0.381148
0.381142
0.381143
0.38115
0.381153
0.381153
0.381153
0.381153
0.381153
0.381153
0.381153
0.381151
0.381149
0.381149
0.381147
0.381145
0.381145
0.381144
0.381144
0.381144
0.381143
0.381144
0.381144
0.381142
0.381142
0.381141
0.38114
0.38114
0.38114
0.381139
0.381139
0.381138
0.381137
0.381136
0.381136
0.381137
0.381135
0.381135
0.381136
0.381136
0.381136
0.381138
0.381139
0.38114
0.381142
0.381141
0.381141
0.381143
0.381144
0.381144
0.381147
0.381149
0.381155
0.381164
0.38117
0.381177
0.381183
0.381185
0.381188
0.381187
0.381184
0.381176
0.381166
0.38116
0.381151
0.381147
0.381148
0.381151
0.381151
0.381148
0.381145
0.38114
0.381142
0.381139
0.38114
0.381143
0.381146
0.38115
0.381152
0.381152
0.381153
0.381154
0.381154
0.381153
0.381153
0.381156
0.381158
0.381159
0.381161
0.381162
0.381163
0.381165
0.381166
0.381168
0.381347
0.38125
0.381372
0.381331
0.381296
0.381311
0.381291
0.381305
0.381262
0.381257
0.381235
0.381217
0.381199
0.381192
0.381186
0.381186
0.381171
0.381171
0.381168
0.381171
0.381167
0.381168
0.381166
0.381164
0.381165
0.381163
0.381168
0.38117
0.381167
0.381165
0.381161
0.381157
0.381157
0.381158
0.381158
0.381159
0.381161
0.381161
0.381161
0.381162
0.381159
0.381159
0.381159
0.38116
0.38116
0.38116
0.381159
0.381156
0.381157
0.381156
0.381153
0.381159
0.381159
0.38116
0.381159
0.38116
0.381156
0.381152
0.381151
0.381149
0.381148
0.381144
0.38115
0.381146
0.381146
0.381154
0.381156
0.381156
0.381156
0.381156
0.381156
0.381157
0.381157
0.381155
0.381153
0.381152
0.381149
0.381148
0.381147
0.381146
0.381145
0.381145
0.381143
0.381144
0.381143
0.381141
0.38114
0.381139
0.381138
0.381136
0.381135
0.381134
0.381133
0.381132
0.381132
0.381133
0.381132
0.381133
0.381129
0.38113
0.381131
0.381132
0.381132
0.381132
0.381132
0.381134
0.381138
0.381141
0.381142
0.381143
0.381143
0.381141
0.381142
0.381146
0.381153
0.381161
0.381166
0.381174
0.38118
0.381183
0.381186
0.381185
0.381181
0.381171
0.38116
0.381153
0.381146
0.381143
0.381146
0.381149
0.381149
0.381146
0.38114
0.381135
0.381136
0.381134
0.381135
0.381138
0.38114
0.381143
0.381145
0.381145
0.381145
0.381146
0.381146
0.381146
0.381148
0.381152
0.381155
0.381156
0.381159
0.381161
0.381163
0.381165
0.381167
0.381168
0.381485
0.381397
0.381448
0.38134
0.381328
0.381291
0.381336
0.381305
0.381303
0.38127
0.381277
0.381239
0.381232
0.381206
0.381208
0.381199
0.381196
0.381189
0.381189
0.381183
0.381179
0.381172
0.38117
0.381166
0.381169
0.381166
0.381172
0.381173
0.381171
0.381168
0.381164
0.381161
0.381161
0.381162
0.381162
0.381162
0.381166
0.381166
0.381165
0.381165
0.381163
0.381163
0.381163
0.381164
0.381165
0.381163
0.381162
0.381159
0.38116
0.38116
0.381156
0.381164
0.381163
0.381164
0.381162
0.381163
0.381159
0.381155
0.381154
0.381153
0.381152
0.381147
0.381154
0.381147
0.381147
0.381155
0.381159
0.381159
0.381159
0.381159
0.381159
0.381159
0.381159
0.381157
0.381155
0.381154
0.381152
0.38115
0.381149
0.381149
0.381149
0.381149
0.381147
0.381148
0.381148
0.381146
0.381146
0.381144
0.381144
0.381143
0.381143
0.381142
0.381142
0.381141
0.38114
0.381138
0.381138
0.38114
0.381136
0.381136
0.381136
0.381136
0.381136
0.381138
0.381138
0.381139
0.38114
0.38114
0.38114
0.381141
0.381142
0.381142
0.381143
0.381146
0.381153
0.381161
0.381167
0.381175
0.38118
0.381182
0.381186
0.381185
0.381182
0.381174
0.381163
0.381156
0.381148
0.381144
0.381145
0.381148
0.381148
0.381146
0.381143
0.381137
0.381138
0.381134
0.381136
0.381139
0.381141
0.381145
0.381148
0.381148
0.381149
0.38115
0.38115
0.381149
0.38115
0.381153
0.381155
0.381156
0.381158
0.381159
0.38116
0.381162
0.381163
0.381165
0.381322
0.381256
0.381443
0.381374
0.381323
0.381329
0.381305
0.381319
0.381276
0.38127
0.38125
0.38123
0.381212
0.381203
0.381194
0.381192
0.381176
0.381175
0.381172
0.381176
0.381171
0.381172
0.38117
0.381168
0.381169
0.381168
0.381173
0.381175
0.381172
0.38117
0.381165
0.381161
0.381161
0.381163
0.381163
0.381163
0.381165
0.381166
0.381166
0.381166
0.381163
0.381163
0.381163
0.381164
0.381164
0.381164
0.381163
0.38116
0.381161
0.38116
0.381157
0.381163
0.381164
0.381165
0.381163
0.381164
0.38116
0.381156
0.381155
0.381153
0.381152
0.381147
0.381153
0.381149
0.381149
0.381158
0.38116
0.38116
0.381159
0.38116
0.381159
0.38116
0.381161
0.381158
0.381157
0.381155
0.381152
0.38115
0.38115
0.381148
0.381148
0.381147
0.381145
0.381145
0.381145
0.381143
0.381141
0.38114
0.381139
0.381137
0.381137
0.381135
0.381134
0.381133
0.381133
0.381134
0.381132
0.381134
0.38113
0.381129
0.38113
0.381131
0.381131
0.38113
0.38113
0.381132
0.381135
0.381138
0.381139
0.381139
0.381138
0.38114
0.38114
0.381143
0.38115
0.381157
0.381164
0.381171
0.381177
0.381179
0.381182
0.381181
0.381177
0.381168
0.381156
0.381149
0.381142
0.381139
0.381142
0.381145
0.381145
0.381142
0.381136
0.38113
0.38113
0.381127
0.381129
0.381132
0.381135
0.381138
0.38114
0.38114
0.381141
0.381141
0.381141
0.381141
0.381142
0.381146
0.381149
0.38115
0.381152
0.381154
0.381156
0.381157
0.381159
0.38116
0.381465
0.381363
0.381355
0.381252
0.381251
0.381207
0.381254
0.381222
0.381236
0.381207
0.381221
0.381193
0.381192
0.381171
0.381173
0.381164
0.381163
0.381156
0.381158
0.381151
0.381149
0.381142
0.381141
0.381138
0.381141
0.381138
0.381142
0.381143
0.381142
0.38114
0.381138
0.381136
0.381136
0.381136
0.381137
0.381137
0.381139
0.381139
0.381138
0.381139
0.381137
0.381137
0.381137
0.381137
0.381138
0.381137
0.381136
0.381135
0.381135
0.381135
0.381133
0.381138
0.381137
0.381137
0.381137
0.381137
0.381135
0.381133
0.381132
0.381131
0.38113
0.381128
0.381132
0.381127
0.381127
0.381132
0.381134
0.381134
0.381135
0.381134
0.381135
0.381135
0.381135
0.381133
0.381133
0.381132
0.381131
0.381129
0.381129
0.381129
0.381129
0.381129
0.381128
0.381129
0.381129
0.381128
0.381128
0.381127
0.381127
0.381127
0.381127
0.381126
0.381126
0.381126
0.381126
0.381125
0.381126
0.381129
0.381129
0.381128
0.381128
0.381128
0.381128
0.38113
0.38113
0.381131
0.381134
0.381134
0.381134
0.381135
0.381136
0.381135
0.381136
0.38114
0.381147
0.381154
0.381159
0.381167
0.381172
0.381173
0.381176
0.381176
0.381172
0.381163
0.381151
0.381145
0.381137
0.381133
0.381134
0.381137
0.381137
0.381134
0.381129
0.381122
0.381122
0.381118
0.38112
0.381123
0.381125
0.381128
0.38113
0.38113
0.38113
0.38113
0.38113
0.381129
0.38113
0.381132
0.381134
0.381135
0.381136
0.381137
0.381138
0.38114
0.381141
0.381143
0.381373
0.381189
0.381344
0.381301
0.381245
0.381261
0.381225
0.381248
0.381208
0.381216
0.381196
0.381191
0.381175
0.381173
0.381162
0.38116
0.381144
0.381144
0.381142
0.381144
0.381142
0.381143
0.381142
0.381141
0.381142
0.381141
0.381144
0.381146
0.381143
0.381143
0.381139
0.381137
0.381137
0.381138
0.381138
0.381138
0.381139
0.38114
0.38114
0.38114
0.381138
0.381138
0.381138
0.381139
0.381139
0.381139
0.381138
0.381137
0.381137
0.381136
0.381134
0.381138
0.381139
0.381139
0.381139
0.381139
0.381137
0.381134
0.381133
0.381132
0.381131
0.381129
0.381132
0.38113
0.38113
0.381136
0.381137
0.381137
0.381136
0.381137
0.381137
0.381138
0.381138
0.381137
0.381136
0.381135
0.381133
0.381131
0.381131
0.381131
0.38113
0.38113
0.381128
0.381129
0.381129
0.381127
0.381126
0.381125
0.381124
0.381123
0.381123
0.381122
0.381121
0.381121
0.381122
0.381123
0.381123
0.381126
0.381126
0.381125
0.381125
0.381126
0.381126
0.381127
0.381127
0.381129
0.381132
0.381135
0.381134
0.381133
0.381135
0.381137
0.381141
0.381143
0.381149
0.381156
0.381162
0.381168
0.381173
0.381174
0.381177
0.381176
0.381171
0.381162
0.381149
0.381142
0.381135
0.381131
0.381133
0.381137
0.381136
0.381133
0.381127
0.381119
0.38112
0.381116
0.381118
0.381121
0.381123
0.381124
0.381126
0.381126
0.381125
0.381124
0.381124
0.381124
0.381125
0.381127
0.381129
0.381131
0.381133
0.381134
0.381136
0.381138
0.381139
0.38114
0.381452
0.38141
0.381416
0.381292
0.381281
0.381232
0.381283
0.381251
0.381264
0.381236
0.381251
0.381222
0.381219
0.381194
0.381193
0.381179
0.381173
0.381163
0.381164
0.381157
0.381154
0.381147
0.381146
0.381143
0.381145
0.381143
0.381147
0.381148
0.381147
0.381145
0.381142
0.38114
0.38114
0.381141
0.381141
0.381141
0.381144
0.381144
0.381143
0.381143
0.381141
0.381141
0.381142
0.381142
0.381143
0.381142
0.381141
0.381139
0.38114
0.38114
0.381138
0.381143
0.381143
0.381143
0.381142
0.381143
0.38114
0.381138
0.381137
0.381136
0.381135
0.381132
0.381136
0.381132
0.381132
0.381138
0.38114
0.38114
0.381141
0.381141
0.381141
0.381142
0.381142
0.38114
0.381139
0.381139
0.381137
0.381135
0.381135
0.381135
0.381135
0.381135
0.381133
0.381134
0.381135
0.381133
0.381133
0.381132
0.381132
0.381131
0.381132
0.381131
0.381131
0.38113
0.38113
0.381129
0.38113
0.381136
0.381138
0.381137
0.381135
0.381133
0.381133
0.381134
0.381134
0.381134
0.381135