/*--------------------------------*- C++ -*----------------------------------*\
| =========                 |                                                 |
| \\      /  F ield         | OpenFOAM: The Open Source CFD Toolbox           |
|  \\    /   O peration     | Version:  v1912                                 |
|   \\  /    A nd           | Website:  www.openfoam.com                      |
|    \\/     M anipulation  |                                                 |
\*---------------------------------------------------------------------------*/
FoamFile
{
    version     2.0;
    format      ascii;
    class       volScalarField;
    location    "30";
    object      p_rgh;
}
// * * * * * * * * * * * * * * * * * * * * * * * * * * * * * * * * * * * * * //

dimensions      [1 -1 -2 0 0 0 0];


internalField   nonuniform List<scalar> 
14268
(
-27.0324
-26.609
-26.1427
-25.6171
-24.9999
-24.2751
-23.5535
-22.7591
-27.0324
-26.6088
-26.1425
-25.6169
-24.9996
-24.2748
-23.5532
-22.7587
-27.0323
-26.6087
-26.1423
-25.6166
-24.9993
-24.2745
-23.5529
-22.7583
-27.0323
-26.6085
-26.1421
-25.6164
-24.999
-24.2741
-23.5525
-22.7579
-27.0323
-26.6083
-26.1419
-25.6161
-24.9986
-24.2738
-23.5521
-22.7574
-27.0323
-26.6081
-26.1417
-25.6159
-24.9983
-24.2734
-23.5518
-22.757
-27.0323
-26.608
-26.1415
-25.6156
-24.998
-24.2731
-23.5514
-22.7566
-27.0324
-26.6079
-26.1413
-25.6154
-24.9978
-24.2728
-23.5511
-22.7563
-27.0324
-26.6077
-26.1411
-25.6152
-24.9975
-24.2724
-23.5508
-22.7559
-27.0326
-26.6076
-26.1409
-25.615
-24.9972
-24.2721
-23.5505
-22.7555
-27.0327
-26.6075
-26.1407
-25.6148
-24.997
-24.2718
-23.5502
-22.7552
-27.0329
-26.6075
-26.1406
-25.6147
-24.9967
-24.2715
-23.5499
-22.7549
-27.0331
-26.6074
-26.1404
-25.6145
-24.9965
-24.2712
-23.5496
-22.7545
-27.0333
-26.6073
-26.1403
-25.6144
-24.9963
-24.2709
-23.5493
-22.7542
-27.0363
-26.611
-26.1445
-25.62
-25.0038
-24.2804
-23.5615
-22.7714
-27.0387
-26.611
-26.1439
-25.6196
-25.003
-24.2795
-23.5608
-22.7708
-27.0435
-26.6122
-26.1438
-25.6196
-25.0026
-24.2787
-23.5601
-22.7702
-27.0474
-26.6128
-26.1436
-25.6195
-25.0021
-24.278
-23.5596
-22.7697
-27.0555
-26.6152
-26.1441
-25.62
-25.002
-24.2774
-23.5591
-22.7692
-27.0608
-26.6165
-26.1442
-25.6205
-25.0018
-24.2768
-23.5586
-22.7688
-27.0724
-26.6201
-26.1452
-25.6214
-25.002
-24.2763
-23.5584
-22.7685
-27.0871
-26.6209
-26.142
-25.6191
-24.9952
-24.2648
-23.5435
-22.7488
-27.1792
-26.658
-26.1604
-25.6363
-25.004
-24.2662
-23.5477
-22.7549
-27.2233
-26.6631
-26.1627
-25.6544
-25.0198
-24.2724
-23.5566
-22.7659
-27.3882
-26.7296
-26.2039
-25.6943
-25.0463
-24.2848
-23.5724
-22.7864
-27.4485
-26.7177
-26.2026
-25.7245
-25.0698
-24.2952
-23.5943
-22.8179
-27.6901
-26.7955
-26.2587
-25.7863
-25.1254
-24.3209
-23.6203
-22.8479
-27.7663
-26.7474
-26.2563
-25.8326
-25.1364
-24.3247
-23.6524
-22.9042
-28.0874
-26.8023
-26.3067
-25.9233
-25.2564
-24.3693
-23.693
-22.9449
-28.1825
-26.6979
-26.305
-25.9648
-25.2198
-24.3495
-23.7155
-23.0269
-28.5725
-26.662
-26.3105
-26.158
-25.4476
-24.4203
-23.7986
-23.0873
-28.7052
-26.486
-26.3141
-26.1121
-25.3298
-24.3511
-23.7654
-23.1892
-29.131
-26.1729
-26.2377
-26.5379
-25.7168
-24.4525
-23.9437
-23.3047
-29.301
-26.1293
-26.1855
-26.3329
-25.4886
-24.3039
-23.7789
-23.3351
16.9393
27.5788
42.9276
63.2349
84.8614
108.564
137.519
172.005
692.423
686.552
681.111
676.657
671.587
666.363
663.051
661.312
44.6294
42.7886
41.2046
39.8624
38.7068
37.815
37.1663
33.9854
-0.0551912
-0.0809935
0.0111213
0.108124
0.116531
0.12323
0.111408
0.0744925
-0.0171205
-0.0389297
-0.033962
0.0031783
0.0145755
0.0172408
0.0214858
0.0507862
-0.0322805
-0.0375375
0.023724
0.0847714
0.0949077
0.102617
0.0976162
0.0662799
-0.0139167
-0.0282251
-0.0247129
0.00222335
0.0103196
0.0183564
0.0220665
0.0468616
-0.0139431
-0.0132958
0.0290993
0.0688127
0.0811003
0.0873618
0.083377
0.0602267
-0.012216
-0.0194836
-0.0163316
0.00373723
0.00915644
0.0184684
0.0238236
0.0419999
-0.00231184
0.00248153
0.0311946
0.059121
0.0744902
0.0780561
0.0721328
0.0565087
-0.00968608
-0.0135144
-0.00969483
0.00366209
0.00499128
0.0154784
0.024681
0.0393016
0.00568694
0.0125235
0.0324869
0.0535623
0.0664549
0.0702794
0.0637602
0.0530388
-0.00749621
-0.00929204
-0.00585208
0.00231269
0.00599646
0.0146808
0.0252201
0.0372728
0.0112413
0.0186702
0.0331669
0.0496791
0.0585941
0.0628484
0.0567098
0.0495434
-0.0055444
-0.00603564
-0.00296228
0.00257761
0.00771796
0.0150758
0.0256194
0.0358561
0.0149029
0.0221867
0.0328204
0.0457877
0.0518554
0.0560746
0.050718
0.046006
-0.00370878
-0.00336377
-0.000586365
0.00389963
0.00949666
0.0160656
0.0259337
0.034819
0.0171401
0.0238518
0.0318052
0.0420091
0.0460319
0.0500016
0.045342
0.0424895
-0.00195168
-0.00102959
0.00160103
0.0056732
0.0112747
0.0174076
0.0264089
0.0339475
0.0182955
0.024287
0.030266
0.0383546
0.0409877
0.0445232
0.0407392
0.0392395
-0.000237483
0.00108167
0.00369995
0.00760255
0.0129589
0.0187916
0.0267108
0.0331544
0.0186202
0.0238896
0.0283977
0.0348403
0.0366016
0.0394087
0.0367711
0.0362504
0.00145468
0.00303445
0.00570715
0.00949826
0.0145552
0.0202545
0.0268192
0.0323405
0.0183981
0.02293
0.0263647
0.0315336
0.0324261
0.0349653
0.0333438
0.0336278
0.00305921
0.0048314
0.00757465
0.0113136
0.0162338
0.0213748
0.0267657
0.0313866
0.0173044
0.0212017
0.0238978
0.028095
0.0288539
0.0311891
0.0304199
0.0314146
0.00504512
0.00692889
0.00964257
0.0132043
0.0175361
0.0221328
0.0265012
0.0302226
0.0160997
0.0194212
0.0216025
0.0250521
0.0258483
0.028025
0.0279929
0.0296246
0.00674288
0.00871213
0.0113453
0.0146944
0.0184621
0.0225065
0.0259813
0.0288439
0.01489
0.0177113
0.0195523
0.0224345
0.0233579
0.0254305
0.0260648
0.0281461
0.00813757
0.0101526
0.0126549
0.0157619
0.0189977
0.022493
0.025149
0.0274397
0.0137524
0.0161587
0.0177873
0.0202541
0.0213484
0.0233798
0.0246178
0.026761
0.00922252
0.0112351
0.0135688
0.0164057
0.0191371
0.0220859
0.0240181
0.0261014
0.0127386
0.0148173
0.0163268
0.0185029
0.0197875
0.0218597
0.0234539
0.0254491
0.00999851
0.0119602
0.0140936
0.0166347
0.0188835
0.0212876
0.0228927
0.0248193
0.0118821
0.0137172
0.0151735
0.0171716
0.0186614
0.0207966
0.0223461
0.0241992
0.010472
0.0123364
0.0142399
0.0164645
0.0182549
0.0203063
0.0218101
0.0235932
0.0112037
0.0128722
0.014327
0.0162435
0.0178723
0.0198277
0.0212845
0.0229992
0.0106518
0.0123762
0.0140261
0.0159167
0.0174915
0.0193579
0.0207685
0.022417
0.0107131
0.0122867
0.0137946
0.0155945
0.0171135
0.0188962
0.0202612
0.0218458
0.0105531
0.012094
0.0135545
0.015273
0.016738
0.0184421
0.0197621
0.0212851
0.0104159
0.0118988
0.0133093
0.0149523
0.0163649
0.0179949
0.0192707
0.0207344
0.0102689
0.011697
0.0130591
0.0146313
0.0159936
0.0175535
0.0187862
0.0201926
0.00981212
0.0110856
0.012309
0.013684
0.0149019
0.0162659
0.0173726
0.0186154
0.00891844
0.00998665
0.0110129
0.0121437
0.0131563
0.0142711
0.0151909
0.0162102
0.00793395
0.00882641
0.0096806
0.0106089
0.0114454
0.0123545
0.0131134
0.0139447
0.00689236
0.00763287
0.00833754
0.009098
0.00978278
0.010522
0.0111415
0.0118149
0.00581262
0.00641751
0.00698991
0.00760426
0.0081567
0.0087497
0.00924795
0.00978564
0.00471118
0.00519287
0.00564658
0.00613212
0.00656762
0.00703337
0.00742491
0.0078451
0.00359448
0.00396108
0.00430782
0.00467644
0.00500702
0.00535914
0.00565532
0.00597167
0.00246848
0.00273075
0.00297673
0.00323838
0.00347143
0.00371953
0.00392819
0.00414985
0.00133587
0.00150022
0.00164867
0.00180879
0.00195189
0.00210257
0.00223047
0.00236546
0.000204944
0.000269482
0.000327886
0.000390823
0.00044421
0.000503301
0.00055109
0.000602669
-21.8564
-20.9321
-19.9356
-18.8601
-17.6801
-16.3908
-14.9875
-13.4789
-11.8529
-10.1081
-8.18998
-6.09072
-3.82671
-1.43202
1.10037
3.84279
6.87234
10.2084
13.7456
17.2998
20.7477
24.0276
27.1703
30.2491
33.3123
36.3787
39.4389
42.4589
45.3919
48.1936
50.8371
53.3202
55.6636
57.9045
60.0818
62.2226
64.3261
66.3571
68.2686
70.0101
71.5326
72.7923
73.7193
74.2978
74.5022
74.3323
73.8207
73.0182
71.9819
70.7641
69.3968
67.894
66.26
64.4998
62.6229
60.6414
58.5699
56.4214
54.2059
51.9175
49.5209
46.9481
44.1103
40.9071
37.2526
33.0854
28.3825
23.1463
17.4001
11.1771
4.51413
-2.55484
-10.0051
-17.8278
-26.0313
-34.6348
-43.7294
-53.3129
-63.3911
-73.9329
-84.8512
-96.0117
-107.259
-118.441
-129.419
-140.077
-150.316
-160.05
-169.199
-177.702
-185.526
-192.658
-199.114
-204.956
-210.278
-215.201
-219.85
-224.346
-228.755
-233.067
-237.165
-240.865
-243.986
-246.361
-247.914
-248.702
-248.932
-248.918
-249
-249.46
-250.356
-251.479
-252.527
-253.23
-253.405
-252.863
-251.414
-249.092
-246.349
-243.878
-242.285
-241.377
-238.821
-228.07
-206.617
-174.4
-138.913
-105.31
-75.7277
-50.3127
-27.6219
-6.1465
16.0721
40.5202
68.3408
100.282
134.917
169.132
200.827
228.505
251.041
267.633
277.757
281.13
277.781
267.949
252.024
230.572
204.298
174.029
140.724
105.501
69.638
34.6491
0.50438
-28.4846
-21.8564
-20.9322
-19.9357
-18.8602
-17.6802
-16.3909
-14.9876
-13.479
-11.8531
-10.1083
-8.19008
-6.09081
-3.82679
-1.4321
1.10028
3.8427
6.87224
10.2084
13.7456
17.2997
20.7477
24.0275
27.1702
30.2491
33.3122
36.3787
39.4388
42.4588
45.3919
48.1935
50.837
53.3202
55.6636
57.9045
60.0818
62.2226
64.326
66.3571
68.2685
70.01
71.5326
72.7922
73.7193
74.2978
74.5022
74.3323
73.8207
73.0181
71.9819
70.764
69.3968
67.8939
66.26
64.4998
62.6229
60.6414
58.5698
56.4213
54.2059
51.9175
49.5209
46.948
44.1103
40.9071
37.2525
33.0854
28.3825
23.1463
17.4001
11.1771
4.51411
-2.55486
-10.0051
-17.8279
-26.0313
-34.6348
-43.7294
-53.3129
-63.3911
-73.9329
-84.8513
-96.0117
-107.259
-118.441
-129.419
-140.077
-150.316
-160.05
-169.199
-177.702
-185.527
-192.658
-199.114
-204.956
-210.278
-215.201
-219.85
-224.346
-228.755
-233.067
-237.165
-240.865
-243.986
-246.362
-247.914
-248.703
-248.932
-248.918
-249
-249.46
-250.356
-251.479
-252.527
-253.23
-253.406
-252.863
-251.414
-249.093
-246.349
-243.878
-242.285
-241.377
-238.822
-228.071
-206.618
-174.4
-138.913
-105.309
-75.7274
-50.3124
-27.6219
-6.14662
16.0718
40.5197
68.3403
100.281
134.917
169.132
200.827
228.505
251.041
267.634
277.757
281.13
277.782
267.95
252.025
230.573
204.299
174.029
140.724
105.501
69.6378
34.6488
0.50393
-28.4852
-21.8565
-20.9322
-19.9357
-18.8602
-17.6802
-16.3909
-14.9876
-13.4791
-11.853
-10.1082
-8.19011
-6.09086
-3.82684
-1.43216
1.10022
3.84261
6.87216
10.2083
13.7455
17.2997
20.7477
24.0275
27.1702
30.2491
33.3122
36.3786
39.4388
42.4588
45.3919
48.1935
50.837
53.3202
55.6636
57.9045
60.0818
62.2226
64.326
66.3571
68.2685
70.01
71.5326
72.7924
73.7193
74.2978
74.5022
74.3323
73.8207
73.0182
71.9819
70.764
69.3968
67.8939
66.26
64.4998
62.6229
60.6414
58.5698
56.4213
54.2059
51.9175
49.5209
46.9481
44.1103
40.9071
37.2526
33.0855
28.3826
23.1464
17.4002
11.1772
4.51417
-2.55481
-10.0051
-17.8278
-26.0312
-34.6347
-43.7293
-53.3128
-63.391
-73.9329
-84.8513
-96.0117
-107.259
-118.441
-129.419
-140.077
-150.317
-160.05
-169.199
-177.703
-185.527
-192.658
-199.114
-204.956
-210.279
-215.201
-219.851
-224.346
-228.755
-233.067
-237.165
-240.865
-243.987
-246.362
-247.914
-248.703
-248.932
-248.918
-249
-249.46
-250.356
-251.479
-252.527
-253.23
-253.406
-252.863
-251.415
-249.093
-246.349
-243.878
-242.285
-241.378
-238.823
-228.073
-206.62
-174.401
-138.913
-105.309
-75.7265
-50.3119
-27.6217
-6.14677
16.0713
40.519
68.3395
100.281
134.917
169.132
200.828
228.506
251.043
267.635
277.759
281.132
277.783
267.951
252.026
230.574
204.299
174.029
140.724
105.501
69.6376
34.6483
0.503126
-28.4863
-21.8565
-20.9323
-19.9358
-18.8603
-17.6803
-16.391
-14.9877
-13.4791
-11.8532
-10.1084
-8.19023
-6.09094
-3.82691
-1.43222
1.10014
3.84251
6.87206
10.2082
13.7455
17.2997
20.7477
24.0275
27.1702
30.2491
33.3122
36.3786
39.4388
42.4588
45.3919
48.1936
50.8371
53.3202
55.6636
57.9045
60.0818
62.2226
64.326
66.3571
68.2686
70.0101
71.5327
72.7922
73.7194
74.2979
74.5024
74.3324
73.8208
73.0182
71.9819
70.7641
69.3968
67.8939
66.26
64.4998
62.6229
60.6414
58.5698
56.4213
54.2059
51.9175
49.521
46.9481
44.1104
40.9073
37.2528
33.0856
28.3828
23.1466
17.4003
11.1773
4.5143
-2.5547
-10.005
-17.8277
-26.0311
-34.6346
-43.7292
-53.3127
-63.3909
-73.9328
-84.8512
-96.0117
-107.259
-118.441
-129.419
-140.078
-150.317
-160.05
-169.199
-177.703
-185.527
-192.658
-199.115
-204.956
-210.279
-215.201
-219.851
-224.346
-228.755
-233.067
-237.166
-240.865
-243.987
-246.362
-247.914
-248.703
-248.932
-248.918
-249
-249.459
-250.356
-251.479
-252.527
-253.23
-253.406
-252.863
-251.415
-249.093
-246.349
-243.877
-242.285
-241.379
-238.826
-228.077
-206.623
-174.402
-138.913
-105.307
-75.7253
-50.3111
-27.6214
-6.14696
16.0706
40.5179
68.3383
100.28
134.917
169.133
200.829
228.508
251.044
267.638
277.761
281.134
277.785
267.953
252.028
230.575
204.301
174.03
140.725
105.501
69.6373
34.6476
0.501952
-28.4879
-21.8565
-20.9323
-19.9358
-18.8603
-17.6803
-16.391
-14.9877
-13.4791
-11.853
-10.1082
-8.19024
-6.09098
-3.82695
-1.43228
1.10006
3.8424
6.87194
10.2081
13.7455
17.2998
20.7478
24.0276
27.1703
30.2491
33.3122
36.3786
39.4388
42.4589
45.392
48.1937
50.8371
53.3203
55.6637
57.9045
60.0818
62.2226
64.3261
66.3572
68.2687
70.0102
71.5328
72.7927
73.7196
74.2981
74.5025
74.3326
73.8209
73.0183
71.982
70.7641
69.3969
67.894
66.2601
64.4999
62.623
60.6414
58.5699
56.4214
54.2059
51.9175
49.521
46.9483
44.1106
40.9075
37.253
33.0859
28.383
23.1468
17.4006
11.1775
4.51447
-2.55453
-10.0048
-17.8275
-26.0309
-34.6344
-43.7289
-53.3125
-63.3907
-73.9326
-84.8511
-96.0117
-107.259
-118.441
-129.42
-140.078
-150.317
-160.051
-169.199
-177.703
-185.527
-192.658
-199.115
-204.956
-210.279
-215.201
-219.851
-224.346
-228.755
-233.068
-237.166
-240.865
-243.987
-246.362
-247.915
-248.703
-248.932
-248.918
-249
-249.459
-250.356
-251.479
-252.527
-253.231
-253.406
-252.864
-251.415
-249.093
-246.349
-243.877
-242.285
-241.38
-238.829
-228.081
-206.627
-174.404
-138.912
-105.306
-75.7236
-50.3099
-27.6209
-6.1472
16.0697
40.5164
68.3367
100.279
134.917
169.134
200.831
228.51
251.047
267.64
277.764
281.137
277.788
267.955
252.03
230.577
204.302
174.032
140.725
105.501
69.6369
34.6467
0.500395
-28.4899
-21.8566
-20.9323
-19.9359
-18.8603
-17.6804
-16.3911
-14.9878
-13.4792
-11.8534
-10.1086
-8.19042
-6.09111
-3.82705
-1.43237
1.09994
3.84225
6.87179
10.208
13.7455
17.2998
20.7479
24.0277
27.1703
30.2491
33.3122
36.3786
39.4389
42.4589
45.392
48.1937
50.8372
53.3203
55.6637
57.9045
60.0818
62.2226
64.3261
66.3572
68.2687
70.0103
71.5329
72.7925
73.7198
74.2983
74.5027
74.3328
73.8211
73.0184
71.9821
70.7642
69.397
67.8941
66.2601
64.4999
62.623
60.6415
58.5699
56.4214
54.2059
51.9176
49.5211
46.9484
44.1108
40.9077
37.2533
33.0861
28.3833
23.147
17.4008
11.1777
4.51469
-2.55432
-10.0046
-17.8273
-26.0307
-34.6341
-43.7287
-53.3122
-63.3905
-73.9324
-84.851
-96.0116
-107.259
-118.442
-129.42
-140.078
-150.317
-160.051
-169.2
-177.703
-185.528
-192.659
-199.115
-204.956
-210.279
-215.201
-219.851
-224.346
-228.755
-233.068
-237.166
-240.866
-243.988
-246.363
-247.915
-248.703
-248.933
-248.918
-249
-249.459
-250.356
-251.479
-252.528
-253.231
-253.407
-252.864
-251.416
-249.093
-246.349
-243.877
-242.285
-241.381
-238.832
-228.086
-206.632
-174.407
-138.912
-105.304
-75.7215
-50.3085
-27.6204
-6.14751
16.0686
40.5146
68.3347
100.277
134.917
169.135
200.833
228.513
251.05
267.644
277.767
281.14
277.791
267.959
252.033
230.58
204.304
174.033
140.726
105.502
69.6365
34.6455
0.498442
-28.4926
-21.8566
-20.9324
-19.9359
-18.8604
-17.6804
-16.3912
-14.9878
-13.4793
-11.8531
-10.1084
-8.19045
-6.09117
-3.82711
-1.43245
1.09982
3.84208
6.87161
10.2079
13.7454
17.2999
20.748
24.0278
27.1704
30.2491
33.3122
36.3786
39.4389
42.459
45.3921
48.1938
50.8373
53.3204
55.6638
57.9046
60.0818
62.2226
64.3261
66.3573
68.2689
70.0105
71.5331
72.7931
73.72
74.2986
74.503
74.333
73.8213
73.0186
71.9822
70.7643
69.397
67.8942
66.2602
64.5
62.6231
60.6415
58.57
56.4214
54.206
51.9177
49.5212
46.9486
44.111
40.908
37.2536
33.0865
28.3836
23.1474
17.4011
11.178
4.51495
-2.55408
-10.0044
-17.8271
-26.0304
-34.6338
-43.7284
-53.3119
-63.3902
-73.9322
-84.8508
-96.0116
-107.259
-118.442
-129.42
-140.078
-150.318
-160.051
-169.2
-177.704
-185.528
-192.659
-199.116
-204.957
-210.279
-215.201
-219.851
-224.346
-228.755
-233.068
-237.166
-240.866
-243.988
-246.363
-247.916
-248.704
-248.933
-248.918
-249
-249.459
-250.356
-251.479
-252.528
-253.231
-253.407
-252.865
-251.416
-249.094
-246.349
-243.876
-242.285
-241.383
-238.837
-228.093
-206.638
-174.409
-138.911
-105.301
-75.719
-50.3068
-27.6197
-6.14787
16.0673
40.5124
68.3324
100.276
134.918
169.137
200.836
228.516
251.054
267.648
277.772
281.145
277.796
267.963
252.037
230.583
204.307
174.035
140.728
105.502
69.6359
34.6441
0.496099
-28.4957
-21.8566
-20.9325
-19.936
-18.8605
-17.6805
-16.3913
-14.9879
-13.4794
-11.8537
-10.1089
-8.19069
-6.09135
-3.82725
-1.43258
1.09966
3.84187
6.8714
10.2078
13.7454
17.2999
20.7481
24.0279
27.1704
30.2491
33.3122
36.3786
39.4389
42.459
45.3922
48.194
50.8375
53.3205
55.6639
57.9046
60.0818
62.2227
64.3262
66.3574
68.269
70.0106
71.5333
72.7929
73.7202
74.2988
74.5032
74.3332
73.8215
73.0188
71.9824
70.7644
69.3971
67.8943
66.2603
64.5001
62.6232
60.6416
58.57
56.4215
54.2061
51.9177
49.5214
46.9488
44.1113
40.9083
37.254
33.0869
28.384
23.1478
17.4015
11.1783
4.51526
-2.55379
-10.0041
-17.8268
-26.0301
-34.6335
-43.728
-53.3116
-63.3898
-73.9319
-84.8506
-96.0115
-107.259
-118.442
-129.42
-140.079
-150.318
-160.052
-169.201
-177.704
-185.529
-192.66
-199.116
-204.957
-210.28
-215.202
-219.851
-224.346
-228.755
-233.068
-237.166
-240.866
-243.989
-246.364
-247.916
-248.704
-248.933
-248.918
-248.999
-249.458
-250.355
-251.479
-252.528
-253.232
-253.408
-252.865
-251.417
-249.094
-246.349
-243.876
-242.285
-241.385
-238.842
-228.1
-206.645
-174.412
-138.911
-105.299
-75.7161
-50.3048
-27.619
-6.1483
16.0657
40.5099
68.3296
100.274
134.918
169.139
200.839
228.52
251.058
267.653
277.777
281.15
277.8
267.967
252.041
230.586
204.31
174.037
140.729
105.502
69.6352
34.6425
0.493362
-28.4994
-21.8567
-20.9325
-19.936
-18.8606
-17.6806
-16.3913
-14.988
-13.4795
-11.8533
-10.1086
-8.19072
-6.09143
-3.82733
-1.43269
1.0995
3.84165
6.87116
10.2076
13.7454
17.3
20.7482
24.028
27.1705
30.2491
33.3122
36.3786
39.4389
42.4591
45.3923
48.1941
50.8376
53.3207
55.664
57.9047
60.0819
62.2227
64.3262
66.3575
68.2691
70.0108
71.5335
72.7937
73.7206
74.2992
74.5036
74.3335
73.8217
73.019
71.9825
70.7645
69.3973
67.8944
66.2604
64.5002
62.6233
60.6417
58.5701
56.4216
54.2061
51.9178
49.5215
46.949
44.1116
40.9087
37.2544
33.0874
28.3845
23.1482
17.4019
11.1787
4.51561
-2.55346
-10.0038
-17.8265
-26.0298
-34.6331
-43.7276
-53.3111
-63.3895
-73.9316
-84.8504
-96.0115
-107.259
-118.442
-129.42
-140.079
-150.318
-160.052
-169.201
-177.705
-185.529
-192.66
-199.117
-204.958
-210.28
-215.202
-219.851
-224.346
-228.756
-233.068
-237.167
-240.867
-243.989
-246.365
-247.917
-248.705
-248.933
-248.918
-248.999
-249.458
-250.355
-251.479
-252.528
-253.232
-253.408
-252.866
-251.418
-249.094
-246.348
-243.875
-242.285
-241.387
-238.848
-228.109
-206.652
-174.416
-138.91
-105.296
-75.7127
-50.3026
-27.6181
-6.14878
16.0639
40.507
68.3264
100.272
134.918
169.141
200.842
228.524
251.063
267.658
277.782
281.155
277.806
267.972
252.045
230.59
204.313
174.04
140.731
105.503
69.6345
34.6406
0.490233
-28.5036
-21.8567
-20.9326
-19.9362
-18.8607
-17.6807
-16.3915
-14.9881
-13.4796
-11.854
-10.1093
-8.19104
-6.09166
-3.82751
-1.43286
1.09929
3.84138
6.87089
10.2074
13.7453
17.3001
20.7484
24.0281
27.1705
30.2491
33.3122
36.3787
39.439
42.4592
45.3924
48.1943
50.8377
53.3208
55.6641
57.9048
60.0819
62.2227
64.3263
66.3576
68.2693
70.011
71.5337
72.7935
73.7209
74.2995
74.5039
74.3339
73.822
73.0192
71.9827
70.7647
69.3974
67.8945
66.2605
64.5003
62.6233
60.6418
58.5702
56.4216
54.2062
51.9179
49.5217
46.9492
44.112
40.9092
37.2549
33.0879
28.385
23.1487
17.4023
11.1792
4.516
-2.55309
-10.0034
-17.8261
-26.0294
-34.6327
-43.7271
-53.3107
-63.389
-73.9313
-84.8502
-96.0114
-107.26
-118.442
-129.421
-140.079
-150.319
-160.053
-169.202
-177.706
-185.53
-192.661
-199.117
-204.958
-210.28
-215.202
-219.851
-224.346
-228.756
-233.068
-237.167
-240.867
-243.99
-246.365
-247.917
-248.705
-248.934
-248.918
-248.999
-249.458
-250.355
-251.479
-252.529
-253.233
-253.409
-252.867
-251.419
-249.095
-246.348
-243.874
-242.285
-241.389
-238.854
-228.119
-206.661
-174.42
-138.909
-105.292
-75.7089
-50.3
-27.6171
-6.14933
16.0619
40.5037
68.3228
100.269
134.918
169.143
200.846
228.529
251.069
267.664
277.789
281.162
277.812
267.978
252.051
230.595
204.317
174.043
140.732
105.503
69.6336
34.6385
0.486712
-28.5083
-21.8568
-20.9327
-19.9362
-18.8608
-17.6808
-16.3916
-14.9882
-13.4797
-11.8535
-10.1088
-8.19108
-6.09176
-3.82761
-1.43299
1.09909
3.8411
6.87059
10.2072
13.7453
17.3002
20.7485
24.0282
27.1706
30.2492
33.3122
36.3787
39.439
42.4593
45.3926
48.1944
50.8379
53.3209
55.6642
57.9048
60.082
62.2228
64.3264
66.3577
68.2695
70.0112
71.534
72.7944
73.7213
74.2999
74.5043
74.3342
73.8223
73.0195
71.9829
70.7649
69.3975
67.8946
66.2607
64.5004
62.6235
60.6419
58.5702
56.4217
54.2063
51.9181
49.5219
46.9495
44.1123
40.9096
37.2555
33.0884
28.3856
23.1492
17.4029
11.1796
4.51644
-2.55268
-10.003
-17.8257
-26.0289
-34.6322
-43.7266
-53.3101
-63.3885
-73.9309
-84.85
-96.0113
-107.26
-118.442
-129.421
-140.08
-150.319
-160.054
-169.203
-177.706
-185.531
-192.662
-199.118
-204.959
-210.281
-215.202
-219.851
-224.346
-228.756
-233.068
-237.167
-240.868
-243.991
-246.366
-247.918
-248.706
-248.934
-248.918
-248.998
-249.457
-250.355
-251.479
-252.529
-253.233
-253.41
-252.868
-251.419
-249.095
-246.348
-243.874
-242.285
-241.391
-238.862
-228.129
-206.671
-174.425
-138.908
-105.288
-75.7048
-50.2972
-27.6161
-6.14994
16.0596
40.5001
68.3189
100.266
134.918
169.145
200.85
228.534
251.075
267.671
277.796
281.169
277.819
267.985
252.056
230.6
204.321
174.046
140.734
105.504
69.6327
34.6362
0.482799
-28.5135
-21.8569
-20.9328
-19.9364
-18.8609
-17.681
-16.3917
-14.9884
-13.4799
-11.8543
-10.1097
-8.19147
-6.09204
-3.82784
-1.43321
1.09883
3.84077
6.87026
10.207
13.7453
17.3003
20.7487
24.0284
27.1707
30.2492
33.3122
36.3787
39.4391
42.4594
45.3927
48.1946
50.8381
53.3211
55.6643
57.9049
60.082
62.2228
64.3265
66.3579
68.2697
70.0115
71.5343
72.7942
73.7216
74.3003
74.5047
74.3346
73.8227
73.0197
71.9831
70.765
69.3977
67.8948
66.2608
64.5006
62.6236
60.642
58.5703
56.4218
54.2064
51.9182
49.5221
46.9498
44.1128
40.9102
37.2561
33.0891
28.3862
23.1498
17.4034
11.1801
4.51692
-2.55223
-10.0026
-17.8252
-26.0285
-34.6317
-43.7261
-53.3096
-63.388
-73.9304
-84.8497
-96.0112
-107.26
-118.443
-129.421
-140.08
-150.32
-160.054
-169.203
-177.707
-185.531
-192.662
-199.119
-204.959
-210.281
-215.203
-219.852
-224.347
-228.756
-233.069
-237.168
-240.869
-243.992
-246.367
-247.919
-248.707
-248.934
-248.918
-248.998
-249.457
-250.354
-251.48
-252.53
-253.234
-253.41
-252.869
-251.42
-249.096
-246.348
-243.873
-242.285
-241.394
-238.87
-228.141
-206.682
-174.43
-138.907
-105.284
-75.7001
-50.2941
-27.6149
-6.15061
16.0571
40.496
68.3145
100.263
134.919
169.148
200.855
228.54
251.082
267.679
277.804
281.177
277.827
267.992
252.063
230.606
204.326
174.049
140.736
105.505
69.6317
34.6336
0.478493
-28.5193
-21.8569
-20.9329
-19.9364
-18.861
-17.6811
-16.3918
-14.9885
-13.48
-11.8539
-10.1091
-8.19152
-6.09215
-3.82794
-1.43335
1.0986
3.84043
6.8699
10.2068
13.7452
17.3004
20.7489
24.0286
27.1708
30.2492
33.3122
36.3787
39.4391
42.4595
45.3929
48.1948
50.8383
53.3213
55.6644
57.905
60.0821
62.2229
64.3266
66.358
68.2699
70.0118
71.5347
72.7952
73.7221
74.3008
74.5052
74.3351
73.8231
73.02
71.9833
70.7652
69.3979
67.895
66.261
64.5007
62.6237
60.6421
58.5704
56.4219
54.2065
51.9183
49.5223
46.9502
44.1132
40.9108
37.2567
33.0898
28.3869
23.1505
17.404
11.1807
4.51745
-2.55173
-10.0021
-17.8247
-26.0279
-34.6311
-43.7254
-53.309
-63.3874
-73.93
-84.8494
-96.0111
-107.26
-118.443
-129.422
-140.081
-150.321
-160.055
-169.204
-177.708
-185.532
-192.663
-199.119
-204.96
-210.282
-215.203
-219.852
-224.347
-228.756
-233.069
-237.168
-240.869
-243.993
-246.368
-247.92
-248.707
-248.934
-248.918
-248.997
-249.456
-250.354
-251.48
-252.53
-253.234
-253.411
-252.87
-251.422
-249.097
-246.347
-243.872
-242.285
-241.397
-238.878
-228.154
-206.694
-174.435
-138.906
-105.279
-75.6951
-50.2907
-27.6136
-6.15134
16.0544
40.4917
68.3097
100.26
134.919
169.151
200.86
228.547
251.09
267.687
277.812
281.186
277.835
268
252.07
230.612
204.331
174.053
140.739
105.505
69.6306
34.6308
0.473795
-28.5256
-21.857
-20.933
-19.9366
-18.8612
-17.6813
-16.392
-14.9887
-13.4802
-11.8547
-10.1101
-8.19198
-6.0925
-3.82823
-1.43363
1.09828
3.84004
6.86951
10.2065
13.7452
17.3005
20.7491
24.0287
27.1709
30.2493
33.3122
36.3787
39.4392
42.4596
45.3931
48.195
50.8385
53.3215
55.6646
57.9051
60.0821
62.2229
64.3267
66.3582
68.2701
70.0121
71.535
72.7951
73.7226
74.3013
74.5057
74.3356
73.8235
73.0204
71.9836
70.7654
69.3981
67.8951
66.2611
64.5009
62.6239
60.6422
58.5705
56.422
54.2066
51.9185
49.5225
46.9505
44.1137
40.9114
37.2574
33.0905
28.3876
23.1512
17.4047
11.1813
4.51801
-2.5512
-10.0016
-17.8242
-26.0274
-34.6304
-43.7248
-53.3083
-63.3868
-73.9295
-84.8491
-96.011
-107.26
-118.443
-129.422
-140.081
-150.321
-160.056
-169.205
-177.709
-185.533
-192.664
-199.12
-204.961
-210.282
-215.204
-219.852
-224.347
-228.756
-233.069
-237.169
-240.87
-243.994
-246.369
-247.921
-248.708
-248.935
-248.918
-248.997
-249.455
-250.354
-251.48
-252.53
-253.235
-253.412
-252.871
-251.423
-249.097
-246.347
-243.871
-242.285
-241.401
-238.888
-228.168
-206.707
-174.441
-138.905
-105.274
-75.6896
-50.287
-27.6122
-6.15213
16.0515
40.4869
68.3045
100.257
134.919
169.155
200.865
228.554
251.098
267.696
277.822
281.195
277.844
268.008
252.078
230.618
204.336
174.057
140.741
105.506
69.6293
34.6278
0.468705
-28.5324
-21.8571
-20.9331
-19.9367
-18.8613
-17.6815
-16.3922
-14.9889
-13.4804
-11.854
-10.1093
-8.19205
-6.09268
-3.82839
-1.43384
1.09792
3.83946
6.86889
10.2061
13.7451
17.3007
20.7495
24.029
27.171
30.2493
33.3122
36.3787
39.4393
42.4598
45.3934
48.1954
50.8389
53.3218
55.6648
57.9052
60.0822
62.223
64.3268
66.3585
68.2705
70.0126
71.5357
72.7968
73.7234
74.3022
74.5066
74.3363
73.8241
73.0209
71.984
70.7658
69.3984
67.8954
66.2614
64.5011
62.6241
60.6424
58.5707
56.4221
54.2067
51.9187
49.5229
46.9511
44.1146
40.9124
37.2586
33.0917
28.3888
23.1524
17.4058
11.1823
4.51894
-2.55033
-10.0007
-17.8233
-26.0264
-34.6294
-43.7237
-53.3072
-63.3858
-73.9287
-84.8485
-96.0108
-107.26
-118.444
-129.423
-140.082
-150.323
-160.057
-169.206
-177.71
-185.535
-192.666
-199.122
-204.962
-210.283
-215.204
-219.853
-224.347
-228.756
-233.07
-237.17
-240.871
-243.995
-246.371
-247.923
-248.709
-248.935
-248.917
-248.996
-249.454
-250.353
-251.48
-252.531
-253.236
-253.414
-252.873
-251.425
-249.098
-246.347
-243.87
-242.285
-241.406
-238.903
-228.191
-206.727
-174.45
-138.903
-105.265
-75.6808
-50.281
-27.6099
-6.15341
16.0468
40.4793
68.2962
100.251
134.92
169.16
200.874
228.565
251.111
267.711
277.837
281.21
277.859
268.022
252.09
230.629
204.345
174.064
140.745
105.507
69.6274
34.6229
0.460482
-28.5434
-21.8574
-20.9335
-19.9373
-18.8618
-17.682
-16.3927
-14.9893
-13.4809
-11.8558
-10.1116
-8.1932
-6.09355
-3.82913
-1.4346
1.09704
3.83845
6.86791
10.2054
13.7449
17.301
20.75
24.0295
27.1713
30.2494
33.3122
36.3787
39.4394
42.4601
45.3938
48.1959
50.8394
53.3223
55.6652
57.9055
60.0823
62.2232
64.327
66.3588
68.2711
70.0133
71.5365
72.7965
73.7245
74.3035
74.5079
74.3375
73.8251
73.0217
71.9846
70.7663
69.3988
67.8959
66.2619
64.5015
62.6245
60.6427
58.571
56.4224
54.207
51.9191
49.5235
46.952
44.1158
40.9139
37.2603
33.0936
28.3907
23.1541
17.4074
11.1838
4.52033
-2.54902
-9.99944
-17.822
-26.025
-34.6279
-43.722
-53.3055
-63.3843
-73.9274
-84.8477
-96.0105
-107.26
-118.444
-129.424
-140.084
-150.324
-160.059
-169.209
-177.713
-185.537
-192.668
-199.124
-204.964
-210.285
-215.205
-219.853
-224.347
-228.757
-233.07
-237.171
-240.873
-243.998
-246.374
-247.925
-248.711
-248.937
-248.917
-248.995
-249.453
-250.352
-251.48
-252.532
-253.238
-253.416
-252.876
-251.427
-249.1
-246.346
-243.867
-242.285
-241.414
-238.927
-228.225
-206.759
-174.465
-138.9
-105.253
-75.6674
-50.272
-27.6064
-6.15536
16.0395
40.4676
68.2835
100.242
134.92
169.168
200.888
228.583
251.132
267.733
277.86
281.233
277.881
268.042
252.109
230.645
204.359
174.074
140.751
105.509
69.6244
34.6154
0.44795
-28.5602
-21.8576
-20.9336
-19.9372
-18.862
-17.6822
-16.393
-14.9897
-13.4812
-11.8549
-10.1102
-8.19334
-6.09384
-3.82936
-1.43488
1.09652
3.83754
6.86687
10.2047
13.7448
17.3013
20.7506
24.03
27.1715
30.2495
33.3122
36.3787
39.4396
42.4605
45.3944
48.1965
50.8401
53.3228
55.6656
57.9057
60.0825
62.2233
64.3273
66.3593
68.2718
70.0142
71.5376
72.7993
73.7259
74.3049
74.5093
74.3389
73.8263
73.0226
71.9853
70.7669
69.3993
67.8964
66.2624
64.502
62.6249
60.6431
58.5713
56.4226
54.2073
51.9195
49.5242
46.953
44.1172
40.9157
37.2623
33.0956
28.3927
23.1561
17.4093
11.1855
4.52191
-2.54754
-9.99799
-17.8206
-26.0234
-34.6261
-43.7202
-53.3036
-63.3825
-73.926
-84.8468
-96.0102
-107.261
-118.445
-129.425
-140.085
-150.326
-160.061
-169.211
-177.715
-185.54
-192.671
-199.126
-204.966
-210.286
-215.206
-219.854
-224.348
-228.757
-233.071
-237.173
-240.876
-244
-246.377
-247.928
-248.713
-248.937
-248.917
-248.993
-249.451
-250.351
-251.48
-252.534
-253.24
-253.419
-252.879
-251.431
-249.102
-246.345
-243.865
-242.284
-241.424
-238.953
-228.264
-206.795
-174.481
-138.897
-105.238
-75.6523
-50.2618
-27.6025
-6.15755
16.0314
40.4545
68.2691
100.232
134.921
169.177
200.903
228.602
251.154
267.757
277.886
281.259
277.906
268.066
252.13
230.664
204.374
174.085
140.758
105.511
69.621
34.6071
0.433852
-28.5791
-21.8579
-20.9342
-19.9381
-18.8627
-17.683
-16.3936
-14.9903
-13.4818
-11.8569
-10.1129
-8.19475
-6.09494
-3.83031
-1.43588
1.09532
3.83618
6.8656
10.2039
13.7446
17.3017
20.7512
24.0306
27.1718
30.2495
33.3122
36.3788