/*--------------------------------*- C++ -*----------------------------------*\
| =========                 |                                                 |
| \\      /  F ield         | OpenFOAM: The Open Source CFD Toolbox           |
|  \\    /   O peration     | Version:  v1912                                 |
|   \\  /    A nd           | Website:  www.openfoam.com                      |
|    \\/     M anipulation  |                                                 |
\*---------------------------------------------------------------------------*/
FoamFile
{
    version     2.0;
    format      ascii;
    class       volVectorField;
    location    "30";
    object      U;
}
// * * * * * * * * * * * * * * * * * * * * * * * * * * * * * * * * * * * * * //

dimensions      [0 1 -1 0 0 0 0];


internalField   nonuniform List<vector> 
14268
(
(0.0131038 0.000659263 0)
(0.0114176 0.000578507 -3.588e-27)
(0.00906085 0.000462564 3.2823e-27)
(0.00664059 0.000342768 0)
(0.00376964 0.000200337 0)
(0.000782155 5.10178e-05 0)
(-0.00242038 -0.000108396 0)
(-0.00606523 -0.000289472 0)
(0.0130727 0.000678155 0)
(0.011388 0.000603361 -6.3257e-27)
(0.00903333 0.000491595 5.52299e-27)
(0.0066157 0.000375072 0)
(0.00374737 0.000236672 0)
(0.000762611 9.04295e-05 0)
(-0.00243727 -6.32266e-05 0)
(-0.00608099 -0.000245142 0)
(0.013057 0.000686176 0)
(0.0113714 0.000618578 0)
(0.00901606 0.000510614 3.95902e-27)
(0.0065981 0.000396528 0)
(0.00372948 0.000260352 0)
(0.000744725 0.000114323 0)
(-0.00245517 -3.79077e-05 0)
(-0.00609841 -0.000218296 0)
(0.0130508 0.00070594 9.79337e-27)
(0.0113644 0.00064409 0)
(0.00900841 0.000540129 3.29361e-27)
(0.00658997 0.000429143 -4.30052e-27)
(0.00372078 0.000296855 0)
(0.000735526 0.000153133 0)
(-0.00246489 6.56777e-06 0)
(-0.00610646 -0.000173203 0)
(0.0130489 0.000714714 1.21741e-26)
(0.0113617 0.000660095 0)
(0.00900517 0.000559967 0)
(0.00658641 0.000451459 -5.78967e-34)
(0.00371689 0.000321409 0)
(0.000731384 0.000179013 0)
(-0.00246949 3.37895e-05 0)
(-0.00610864 -0.000145583 0)
(0.0130476 0.000734292 0)
(0.0113595 0.000685286 0)
(0.00900244 0.000589059 0)
(0.00658331 0.00048354 6.22832e-27)
(0.00371336 0.000357234 0)
(0.000727659 0.000216253 0)
(-0.00247353 7.65408e-05 0)
(-0.00611015 -0.000101944 0)
(0.0130469 0.000743886 -1.75452e-26)
(0.0113579 0.000702285 0)
(0.00900035 0.000610039 0)
(0.00658095 0.000507171 0)
(0.00371072 0.00038339 0)
(0.000724821 0.000244191 -4.27037e-27)
(-0.00247675 0.000106266 0)
(-0.00611071 -7.15132e-05 0)
(0.0130459 0.000762784 -2.02549e-26)
(0.011356 0.000726623 -1.01322e-26)
(0.00899793 0.000638104 0)
(0.00657819 0.000538013 0)
(0.0037075 0.000417703 0)
(0.000721514 0.000279717 -5.06029e-27)
(-0.0024804 0.000146406 0)
(-0.00611173 -3.10423e-05 0)
(0.0130453 0.000773105 0)
(0.0113545 0.000744556 -1.14951e-26)
(0.00899588 0.000660212 7.2187e-27)
(0.00657583 0.000563031 0)
(0.00370498 0.000445287 0)
(0.000718776 0.000309142 0)
(-0.00248358 0.000178759 0)
(-0.00611234 2.53243e-06 0)
(0.0130446 0.000791364 0)
(0.0113529 0.000767927 0)
(0.0089936 0.000687017 7.95812e-27)
(0.00657319 0.000592299 0)
(0.00370196 0.000478237 0)
(0.000715365 0.000343456 0)
(-0.0024871 0.00021631 0)
(-0.00611326 3.99753e-05 -8.59599e-27)
(0.0130442 0.000802362 0)
(0.0113514 0.000786958 0)
(0.00899154 0.000710593 0)
(0.00657076 0.000619118 0)
(0.0036993 0.000507238 0)
(0.000712795 0.000373852 0)
(-0.00249035 0.000251114 0)
(-0.00611409 7.62735e-05 -9.60984e-27)
(0.0130443 0.000820076 3.10411e-26)
(0.0113506 0.000809361 0)
(0.00899003 0.000736072 0)
(0.0065689 0.000646758 0)
(0.0036966 0.000538896 0)
(0.00070925 0.000407375 0)
(-0.00249422 0.000286182 0)
(-0.00611533 0.00011089 0)
(0.0130506 0.000831883 -2.69403e-34)
(0.0113557 0.000829603 0)
(0.00899388 0.000761055 0)
(0.0065713 0.000675131 0)
(0.00369747 0.000569396 0)
(0.000708266 0.000438604 0)
(-0.00249814 0.00032332 0)
(-0.00611811 0.000150143 0)
(0.0131004 0.000852341 -3.69388e-26)
(0.0114016 0.000853665 0)
(0.00903256 0.000787557 0)
(0.00659844 0.000703136 0)
(0.00370743 0.000600195 0)
(0.000692807 0.00047084 0)
(-0.00255157 0.000354038 0)
(-0.00616906 0.000178649 0)
(0.0131751 0.000892444 0)
(0.0114769 0.00092529 0)
(0.00918023 0.00087472 1.07351e-26)
(0.00671156 0.000790742 0)
(0.00393934 0.000692699 0)
(0.000837394 0.00054972 0)
(-0.00229292 0.000442894 0)
(-0.0060523 0.000255109 0)
(0.0130895 0.00100744 0)
(0.0113757 0.00104433 0)
(0.00907028 0.00099382 1.60873e-26)
(0.00659877 0.00090399 0)
(0.00384418 0.000807544 -1.12346e-26)
(0.000775094 0.000661225 0)
(-0.00224203 0.000536333 6.02808e-27)
(-0.0059795 0.000326679 0)
(0.0131228 0.00106365 3.7443e-26)
(0.0114066 0.0011552 0)
(0.0091061 0.00112565 -6.23884e-27)
(0.00664187 0.00103568 0)
(0.00389595 0.00093224 -1.95614e-26)
(0.000821617 0.000764787 1.10919e-27)
(-0.00218612 0.000651759 8.12345e-27)
(-0.00592376 0.000433656 2.1054e-27)
(0.0131097 0.00119931 9.91193e-26)
(0.0113739 0.00129018 0)
(0.00905611 0.00125505 -8.97729e-27)
(0.00658196 0.00115823 0)
(0.00382945 0.00105701 -7.17281e-27)
(0.000754726 0.000882611 1.99013e-27)
(-0.00224613 0.000734359 0)
(-0.00596326 0.000495344 3.34046e-27)
(0.0131402 0.00123357 5.45546e-26)
(0.0113999 0.00138525 0)
(0.00908848 0.00137671 0)
(0.00662101 0.00128107 0)
(0.00387173 0.00117144 0)
(0.000803559 0.000979405 1.33142e-27)
(-0.00219886 0.000853155 0)
(-0.00592705 0.000606453 0)
(0.0131461 0.00140147 0)
(0.0113823 0.00154275 0)
(0.00904661 0.00151997 0)
(0.00656678 0.00141395 0)
(0.00381191 0.00130674 0)
(0.000737282 0.00110286 0)
(-0.00226294 0.000936196 0)
(-0.00596325 0.000664537 0)
(0.013168 0.00139949 0)
(0.0113977 0.00161392 0)
(0.009074 0.00162685 0)
(0.00660189 0.00152757 0)
(0.0038525 0.00141264 0)
(0.000779804 0.00119795 0)
(-0.00221379 0.0010483 0)
(-0.00593493 0.000774035 0)
(0.0131742 0.00197227 0)
(0.0113869 0.00215642 0)
(0.00894956 0.00213534 -5.05268e-27)
(0.00649581 0.00202143 0)
(0.00361026 0.00195859 3.05579e-27)
(0.000608413 0.00173041 0)
(-0.00259287 0.00154015 -7.31904e-28)
(-0.00612153 0.00119368 -1.20212e-27)
(0.0133357 0.00185266 0)
(0.0113386 0.00243122 0)
(0.00887404 0.00265239 -5.03613e-27)
(0.00644918 0.00269456 0)
(0.00355253 0.00269065 6.06943e-27)
(0.000552074 0.00255289 0)
(-0.00266432 0.00256069 -3.61614e-27)
(-0.00627771 0.00234216 -1.45132e-29)
(0.013555 0.00297878 0)
(0.0116019 0.00346139 0)
(0.00901432 0.00355901 1.00109e-26)
(0.0064962 0.00356631 0)
(0.00354838 0.003654 0)
(0.00055177 0.00350088 0)
(-0.00268815 0.00349759 0)
(-0.00612529 0.0031937 7.72726e-27)
(0.0138708 0.00271745 0)
(0.0115114 0.00366349 0)
(0.00889722 0.00406158 9.22753e-27)
(0.00646529 0.0042368 0)
(0.00352367 0.00437946 0)
(0.000482482 0.00431773 0)
(-0.00279779 0.00446289 0)
(-0.00646121 0.00424182 1.21938e-26)
(0.0142025 0.00420702 0)
(0.0119625 0.00493917 1.50442e-26)
(0.00916644 0.00505337 0)
(0.00657802 0.00514848 -2.073e-26)
(0.00355683 0.00539354 0)
(0.000571633 0.00532026 0)
(-0.00268923 0.00547957 0)
(-0.00609254 0.0052386 1.42892e-26)
(0.0146929 0.00369837 0)
(0.0117704 0.00500128 1.24125e-29)
(0.00895253 0.00553103 0)
(0.00654988 0.00581186 -2.42783e-26)
(0.00357052 0.0060526 -1.52882e-26)
(0.000499097 0.00606217 0)
(-0.002872 0.00637511 0)
(-0.00670383 0.00622136 0)
(0.0151421 0.00577386 0)
(0.0124497 0.00665695 -1.3099e-29)
(0.00938329 0.00661951 0)
(0.00671844 0.00675127 0)
(0.00360299 0.00719708 -1.30522e-29)
(0.000633575 0.00720194 -1.1298e-26)
(-0.0026134 0.00752954 0)
(-0.00597253 0.00739315 -2.20558e-26)
(0.0158296 0.00489194 0)
(0.0120492 0.00650594 -1.01393e-26)
(0.00897866 0.00709561 1.10709e-26)
(0.00669852 0.00742541 0)
(0.00370347 0.00768491 1.90083e-26)
(0.000616585 0.00776196 -6.09479e-27)
(-0.00285285 0.0082467 1.44727e-26)
(-0.00703914 0.00833456 -2.77328e-26)
(0.0164102 0.00786087 0)
(0.0130204 0.00870097 0)
(0.00962998 0.00822567 6.35245e-30)
(0.00688555 0.00836396 0)
(0.0036609 0.00908476 4.27098e-26)
(0.000713529 0.00915588 0)
(-0.00243986 0.00977041 1.14508e-29)
(-0.00564993 0.00976533 0)
(0.017314 0.0064598 -1.16402e-25)
(0.0122427 0.00827564 0)
(0.00888487 0.00881389 -2.21002e-27)
(0.00691293 0.00902437 0)
(0.00393831 0.00925775 2.48829e-26)
(0.000850561 0.00937925 -9.96142e-28)
(-0.00265294 0.00996906 -1.15471e-29)
(-0.00751156 0.0106508 -3.63788e-26)
(0.0179926 0.0107457 -1.24689e-25)
(0.0135964 0.0111601 0)
(0.0100081 0.00973225 0)
(0.00707005 0.0100005 0)
(0.00366199 0.0110568 5.99502e-26)
(0.000602957 0.0111706 -7.72728e-27)
(-0.00216619 0.0123014 3.2436e-26)
(-0.00495061 0.0124945 -4.85216e-26)
(0.0163039 0.00861955 0)
(0.00909431 0.0105083 0)
(0.00714632 0.0107816 0)
(0.00710645 0.0106012 0)
(0.00469284 0.0108185 3.57129e-26)
(0.00224179 0.0108637 -9.74033e-27)
(-0.00215487 0.0113551 -3.39606e-27)
(-0.00676512 0.0131232 0)
(-0.0303718 0.0148147 0)
(-0.0345544 0.0131681 -2.52485e-25)
(-0.0249086 0.00999244 0)
(-0.0156782 0.010938 0)
(-0.0105778 0.0127051 0)
(-0.00936879 0.0132621 -2.58399e-27)
(-0.00975093 0.0150868 -1.97781e-29)
(-0.0117931 0.0156961 8.0714e-26)
(-0.359233 0.00928234 0)
(-0.326014 0.00725829 -1.15845e-25)
(-0.307783 0.00367101 0)
(-0.289557 0.00441036 0)
(-0.260279 0.00704417 0)
(-0.221703 0.00900198 0)
(-0.178812 0.0106556 -5.51978e-26)
(-0.123254 0.0132581 -1.67359e-26)
(0.2587 -0.00244308 0)
(0.304463 -0.000417278 0)
(0.345279 0.0016715 0)
(0.376396 0.000110479 0)
(0.40526 -0.00405838 0)
(0.42257 -0.00753123 0)
(0.437435 -0.00983238 -1.61009e-25)
(0.436796 -0.0153711 0)
(4.44361 0.0120661 3.17101e-25)
(4.5551 0.0108645 0)
(4.66253 0.0112516 -8.81028e-25)
(4.76611 0.0149173 0)
(4.86594 0.0217082 -4.06034e-24)
(4.96167 0.0290441 0)
(5.05638 0.034989 -8.65041e-27)
(5.15699 0.0513361 0)
(1.46078 -0.0623967 -2.53588e-27)
(1.39603 -0.0585115 6.75435e-25)
(1.22931 -0.0500708 -1.42857e-24)
(1.01988 -0.0496127 -1.36069e-25)
(0.867501 -0.0518972 5.58519e-26)
(0.781966 -0.0509324 0)
(0.669205 -0.0754554 -1.76633e-24)
(0.635928 0.00164601 4.82116e-24)
(0.0111835 0.0230028 4.20707e-24)
(0.00348994 0.0588198 -1.20116e-28)
(-0.00881954 0.0875009 -2.28178e-24)
(-0.000952493 0.0821217 -4.29776e-24)
(-0.0190254 0.0603195 0)
(-0.00674552 0.05321 0)
(-0.0306333 0.0405052 0)
(-0.00419249 -0.0194028 1.50664e-24)
(-0.0485492 -0.066692 0)
(-0.0458983 -0.0616548 1.95377e-24)
(-0.0211875 -0.0506308 -1.67213e-24)
(0.0102472 -0.0460109 0)
(0.00883387 -0.0521453 0)
(0.0158875 -0.0503477 0)
(0.00239791 -0.0732056 1.07156e-25)
(0.0925868 -0.00729423 0)
(-0.0262988 0.0284912 -3.36213e-24)
(-0.0355274 0.0515752 -4.43272e-24)
(-0.0419484 0.0667853 -9.67098e-25)
(-0.0369212 0.0674671 2.93694e-24)
(-0.0516944 0.0561374 -2.53584e-24)
(-0.0634768 0.0529416 2.79999e-24)
(-0.0962639 0.0110607 -2.0627e-28)
(-0.0816742 -0.048312 1.11125e-24)
(-0.0385571 -0.0628192 -9.31162e-29)
(-0.0307863 -0.0564951 -1.5956e-24)
(-0.0136586 -0.0464044 -1.52084e-24)
(0.00639007 -0.0386606 3.74373e-28)
(0.0270585 -0.0411503 -2.17666e-25)
(0.0521565 -0.0347867 -1.85638e-26)
(0.0745101 -0.0599122 -3.22666e-25)
(0.05893 -0.0191001 8.92839e-25)
(-0.0246375 0.0281116 2.13132e-24)
(-0.0302395 0.0438243 0)
(-0.034472 0.0531011 0)
(-0.0293774 0.0514379 -1.78518e-24)
(-0.0299744 0.0412035 0)
(-0.0265313 0.0367702 1.70866e-24)
(-0.0415549 0.00249093 0)
(-0.0570466 -0.0375912 0)
(-0.0308247 -0.0575854 0)
(-0.0227919 -0.0521274 0)
(-0.00897677 -0.0441932 1.2065e-24)
(0.0110823 -0.0369611 0)
(0.0217128 -0.0411584 7.67434e-25)
(0.0378607 -0.0299864 5.50201e-25)
(0.0599816 -0.0449007 1.57013e-25)
(0.0440098 -0.0224183 0)
(-0.0231121 0.024589 0)
(-0.0259324 0.0361068 0)
(-0.0280948 0.0417225 -1.24385e-28)
(-0.0236613 0.0402422 0)
(-0.024463 0.0319766 1.47668e-24)
(-0.0201405 0.0236647 0)
(-0.0199991 -0.00476162 -1.7228e-28)
(-0.0341591 -0.0271406 0)
(-0.0253513 -0.0528929 4.01115e-25)
(-0.0177039 -0.0485673 7.69946e-25)
(-0.00794259 -0.043657 -1.39506e-24)
(0.00876186 -0.0367213 -2.52515e-25)
(0.0163436 -0.0392669 0)
(0.0301288 -0.0292288 -1.48204e-25)
(0.0319985 -0.0357627 -9.8313e-26)
(0.0247575 -0.0212046 -3.73269e-25)
(-0.0217701 0.0202895 1.01631e-24)
(-0.0229511 0.0289912 1.12239e-24)
(-0.0252079 0.0323793 -1.19247e-25)
(-0.0207509 0.0317592 -7.16216e-25)
(-0.0221449 0.0228724 0)
(-0.0193556 0.0164677 -1.36495e-24)
(-0.0168252 -0.00792937 0)
(-0.0224273 -0.0230725 -6.4258e-25)
(-0.0212544 -0.0488 0)
(-0.014161 -0.0450356 0)
(-0.00708791 -0.0419283 -5.25023e-25)
(0.00663298 -0.0360321 0)
(0.0125631 -0.0362353 0)
(0.0227823 -0.0278298 0)
(0.0242467 -0.0304924 -7.2347e-26)
(0.0154723 -0.0200395 0)
(-0.0206025 0.0156491 3.34713e-25)
(-0.0207976 0.0223683 3.20717e-25)
(-0.0225167 0.023805 6.71893e-26)
(-0.0193825 0.0238872 -3.58215e-25)
(-0.0196301 0.0149097 6.1893e-25)
(-0.0166553 0.00990282 0)
(-0.0130472 -0.00987339 1.10054e-24)
(-0.0163409 -0.0200573 -3.25094e-25)
(-0.0182089 -0.0450947 1.67575e-25)
(-0.0118452 -0.0416892 4.87075e-25)
(-0.0066826 -0.0395004 -2.1606e-25)
(0.00426403 -0.034288 2.39338e-25)
(0.00868884 -0.0334754 3.68705e-29)
(0.0156934 -0.0264391 0)
(0.0160803 -0.0268045 0)
(0.00902638 -0.0187641 -9.5602e-26)
(-0.0195377 0.0109323 0)
(-0.019164 0.0162123 3.02976e-25)
(-0.0203606 0.0162273 1.88643e-25)
(-0.0177813 0.0166256 -3.66155e-29)
(-0.017517 0.00817699 -5.3486e-25)
(-0.0146919 0.00440346 -5.57672e-25)
(-0.0114866 -0.0114398 4.93705e-25)
(-0.012161 -0.0183695 0)
(-0.0158985 -0.0416523 -1.60367e-25)
(-0.0104177 -0.038515 4.25657e-25)
(-0.00654648 -0.0368198 -1.99128e-25)
(0.00190092 -0.0320897 -3.2278e-25)
(0.0053208 -0.0308632 -1.62082e-25)
(0.00993039 -0.0248391 2.68006e-30)
(0.0101696 -0.0242548 -4.31457e-26)
(0.00434503 -0.0179047 8.0421e-26)
(-0.0184621 0.00631197 -1.05288e-25)
(-0.0177594 0.0105221 -1.29827e-29)
(-0.018479 0.00959156 -1.41954e-25)
(-0.0162445 0.0101237 3.35831e-25)
(-0.0156645 0.00246276 4.25261e-29)
(-0.0129547 -0.000295664 5.03104e-25)
(-0.0103988 -0.0128363 -4.22737e-25)
(-0.00939307 -0.0175207 2.98754e-25)
(-0.0141997 -0.0384397 0)
(-0.00949978 -0.0355238 -3.85171e-25)
(-0.00666106 -0.0340689 1.91314e-25)
(-0.00017293 -0.029751 0)
(0.00229431 -0.0284399 1.53626e-25)
(0.00535646 -0.0231513 0)
(0.00571059 -0.0224635 2.72795e-26)
(0.00100461 -0.0173974 7.31873e-26)
(-0.0173659 0.00189264 -2.93188e-26)
(-0.0164114 0.0053061 1.43527e-29)
(-0.0167569 0.00379992 0)
(-0.0147457 0.00442086 3.22735e-25)
(-0.0139199 -0.00239082 0)
(-0.0111733 -0.00436558 4.69577e-25)
(-0.00913621 -0.0141583 0)
(-0.00776298 -0.0172027 5.49513e-25)
(-0.0129445 -0.0354591 -1.54427e-25)
(-0.00901499 -0.0327274 3.56415e-25)
(-0.00688567 -0.0313791 0)
(-0.0018906 -0.0274682 -1.73005e-25)
(-0.000215848 -0.0262938 0)
(0.00174776 -0.0215833 5.0626e-31)
(0.0021186 -0.0210535 0)
(-0.00171629 -0.0170454 7.50609e-26)
(-0.0162359 -0.00227847 0)
(-0.015098 0.000551168 -1.76661e-25)
(-0.0151332 -0.00126997 1.86773e-25)
(-0.0132439 -0.000540262 -3.03536e-25)
(-0.0123472 -0.00647644 3.83268e-25)
(-0.00996583 -0.00779748 -4.07986e-25)
(-0.00786016 -0.0153404 0)
(-0.0064853 -0.0171663 0)
(-0.0125045 -0.0326533 1.46467e-25)
(-0.00894861 -0.0301444 1.64032e-25)
(-0.0073017 -0.0288697 -1.70475e-25)
(-0.00353071 -0.0253179 1.65789e-25)
(-0.00212344 -0.024337 -1.53374e-25)
(-0.0010052 -0.0202867 0)
(-0.000537271 -0.0200676 0)
(-0.00332338 -0.0168952 0)
(-0.0148955 -0.00626636 -8.75582e-30)
(-0.0138091 -0.00384525 0)
(-0.0137498 -0.00567909 0)
(-0.0118341 -0.00490411 0)
(-0.0108558 -0.00988799 0)
(-0.00874935 -0.0106591 0)
(-0.00683957 -0.0164366 0)
(-0.00576063 -0.0172838 0)
(-0.0118432 -0.0300853 -1.81388e-25)
(-0.00901448 -0.0277196 0)
(-0.00763841 -0.0266279 -1.88965e-25)
(-0.00481463 -0.0234336 0)
(-0.00362284 -0.0226879 0)
(-0.00294524 -0.0192428 0)
(-0.00257087 -0.0193501 -2.45609e-26)
(-0.00428613 -0.0168646 0)
(-0.0138851 -0.00979957 0)
(-0.012694 -0.00773823 0)
(-0.0124396 -0.00946949 2.27233e-29)
(-0.0106225 -0.00865614 0)
(-0.00961746 -0.0127127 2.75847e-25)
(-0.00775208 -0.0129975 0)
(-0.00611162 -0.0173748 -4.45894e-25)
(-0.00541571 -0.0174445 0)
(-0.011263 -0.0278865 0)
(-0.00896198 -0.0256398 0)
(-0.00788488 -0.024721 1.55585e-25)
(-0.00574195 -0.0218675 0)
(-0.00480652 -0.0213632 -8.45596e-26)
(-0.00430708 -0.0184701 0)
(-0.00395229 -0.0188646 -4.79558e-26)
(-0.00480172 -0.0170079 0)
(-0.0129449 -0.0128817 5.54441e-26)
(-0.0117343 -0.0111025 7.83779e-26)
(-0.0113527 -0.0126444 0)
(-0.00965372 -0.0117903 0)
(-0.00865027 -0.0150007 0)
(-0.00699769 -0.0148712 1.1909e-25)
(-0.00567306 -0.0181145 0)
(-0.00522784 -0.0175684 6.79566e-26)
(-0.0108008 -0.0260421 -6.36945e-26)
(-0.00894169 -0.0239161 -6.58073e-26)
(-0.00810101 -0.0231674 0)
(-0.00644154 -0.0206497 0)
(-0.00570981 -0.020383 0)
(-0.00522625 -0.0179784 7.36488e-28)
(-0.00480087 -0.0186503 0)
(-0.00502953 -0.0173013 6.45442e-26)
(-0.0120878 -0.015507 0)
(-0.0108758 -0.0139431 0)
(-0.0104042 -0.0152481 -8.09227e-26)
(-0.00883862 -0.0143409 9.99906e-26)
(-0.00790243 -0.0168021 9.22062e-26)
(-0.00648918 -0.0163276 0)
(-0.00544193 -0.0186117 -6.64726e-26)
(-0.00514622 -0.0176984 0)
(-0.010417 -0.0245611 4.95533e-26)
(-0.00891634 -0.0225651 0)
(-0.00824665 -0.0219783 4.17409e-26)
(-0.00692493 -0.0197765 -2.93905e-26)
(-0.00631273 -0.0197423 -6.29012e-27)
(-0.00578614 -0.0177822 0)
(-0.00524557 -0.0187412 -5.19675e-26)
(-0.00513644 -0.0176193 0)
(-0.0112725 -0.0176863 -4.64502e-26)
(-0.0101017 -0.0162753 0)
(-0.00958054 -0.0173212 6.69562e-26)
(-0.00817461 -0.0163482 -8.03033e-26)
(-0.00733449 -0.01815 0)
(-0.0062066 -0.0173783 0)
(-0.00538749 -0.0188655 0)
(-0.00514748 -0.0178844 0)
(-0.0100723 -0.023438 0)
(-0.00883678 -0.0215816 -3.3124e-26)
(-0.0082956 -0.0211552 -2.39535e-26)
(-0.00720996 -0.0192484 2.08331e-26)
(-0.00664771 -0.0194314 -1.16968e-26)
(-0.0060258 -0.0178896 0)
(-0.00541343 -0.0189787 0)
(-0.00517597 -0.0179349 5.88982e-26)
(-0.0105379 -0.0194317 0)
(-0.00942872 -0.0181192 1.00813e-25)
(-0.00889571 -0.0188914 -5.28635e-26)
(-0.00767179 -0.0178446 -8.64455e-30)
(-0.00693373 -0.0190727 -1.0335e-25)
(-0.00607993 -0.0180286 4.88042e-26)
(-0.00540516 -0.0190944 0)
(-0.00514729 -0.0181156 5.74218e-26)
(-0.00974364 -0.022664 -1.08074e-26)
(-0.00868768 -0.0209632 -1.71635e-26)
(-0.00823129 -0.0206936 6.64284e-27)
(-0.00728122 -0.019068 7.85359e-27)
(-0.00672347 -0.0194572 -2.88674e-26)
(-0.00603853 -0.0182543 4.50539e-26)
(-0.00542238 -0.0192096 0)
(-0.00514328 -0.0182344 0)
(-0.00987811 -0.0207589 1.55372e-26)
(-0.0088471 -0.0194988 0)
(-0.0083532 -0.0199901 -1.94008e-26)
(-0.00729896 -0.018862 0)
(-0.00670069 -0.0195824 1.81028e-26)
(-0.00599387 -0.0184535 0)
(-0.00540244 -0.0193257 -2.43697e-26)
(-0.00510319 -0.0183716 0)
(-0.0093781 -0.0222344 0)
(-0.00846725 -0.0207003 0)
(-0.00804495 -0.0205912 -4.91527e-27)
(-0.00714245 -0.0192351 0)
(-0.00661303 -0.0197498 3.50221e-26)
(-0.00593076 -0.0186475 -2.17607e-26)
(-0.00537738 -0.0194358 -2.86096e-30)
(-0.00507945 -0.0184993 0)
(-0.00925922 -0.0216772 -1.12311e-26)
(-0.00835548 -0.0204306 0)
(-0.00790848 -0.0206458 0)
(-0.0070132 -0.0194293 0)
(-0.00651219 -0.0199054 1.74053e-26)
(-0.00584997 -0.0188345 -4.27399e-26)
(-0.00531633 -0.0195419 2.75959e-30)
(-0.00503032 -0.0186268 -2.64787e-26)
(-0.00894548 -0.0221376 -3.40162e-27)
(-0.00812772 -0.0207827 0)
(-0.00771007 -0.0208343 -5.40241e-27)
(-0.00688114 -0.0196377 0)
(-0.00638793 -0.0200572 -8.6383e-27)
(-0.00576228 -0.0190164 -2.10083e-26)
(-0.00523736 -0.0196481 -3.46463e-26)
(-0.00494651 -0.0187558 -2.59862e-26)
(-0.00872649 -0.0222007 -3.40277e-27)
(-0.00794988 -0.0209416 0)
(-0.00753024 -0.0209957 -1.43373e-30)
(-0.00677925 -0.0198342 0)
(-0.00626926 -0.0202037 -8.5822e-27)
(-0.00569967 -0.0191885 0)
(-0.00517546 -0.0197561 -1.13642e-26)
(-0.0048734 -0.0188839 0)
(-0.00854371 -0.022344 0)
(-0.00781779 -0.0211165 0)
(-0.00740534 -0.0211458 8.51021e-27)
(-0.00671331 -0.0200172 0)
(-0.00621294 -0.0203414 4.26586e-27)
(-0.00568169 -0.0193499 0)
(-0.00516808 -0.0198586 -5.59684e-27)
(-0.00488236 -0.0190045 0)
(-0.00836284 -0.0224823 0)
(-0.00768333 -0.0212901 0)
(-0.00730387 -0.0212966 2.88552e-27)
(-0.00662649 -0.0202014 0)
(-0.0061828 -0.0204763 4.24299e-27)
(-0.00566477 -0.0195127 0)
(-0.00518114 -0.0199617 -5.5179e-27)
(-0.00489896 -0.0191282 0)
(-0.00779691 -0.0228292 0)
(-0.00722991 -0.021727 0)
(-0.00687767 -0.0216723 0)
(-0.00634349 -0.0206552 0)
(-0.00592828 -0.020822 0)
(-0.00551026 -0.0199227 0)
(-0.00507625 -0.0202356 0)
(-0.00482546 -0.0194559 0)
(-0.00681991 -0.02333 0)
(-0.00638111 -0.0223558 0)
(-0.00608643 -0.0222045 0)
(-0.00567734 -0.021305 0)
(-0.00533175 -0.0213148 0)
(-0.00500979 -0.0205117 0)
(-0.00464507 -0.0206345 0)
(-0.00444316 -0.0199358 0)
(-0.00593993 -0.0237042 0)
(-0.00560733 -0.0228286 0)
(-0.00536078 -0.0226081 0)
(-0.00505074 -0.0217993 0)
(-0.0047616 -0.0217018 0)
(-0.00451059 -0.0209773 0)
(-0.00420333 -0.0209692 0)
(-0.00403307 -0.0203361 0)
(-0.00510031 -0.0240003 0)
(-0.00485032 -0.0232084 0)
(-0.00464947 -0.022926 0)
(-0.00441701 -0.0221947 0)
(-0.00418363 -0.0220078 0)
(-0.00399404 -0.0213504 0)
(-0.00374719 -0.0212359 0)
(-0.00361534 -0.0206583 0)
(-0.00427653 -0.0242319 0)
(-0.00408826 -0.023506 0)
(-0.00392695 -0.0231758 0)
(-0.00375091 -0.0225052 0)
(-0.00356421 -0.0222516 0)
(-0.00341773 -0.0216471 0)
(-0.00322082 -0.0214537 0)
(-0.00311448 -0.0209207 0)
(-0.00348644 -0.0244028 0)
(-0.00335265 -0.0237303 0)
(-0.00323069 -0.0233611 0)
(-0.00310506 -0.0227398 0)
(-0.00296486 -0.0224335 0)
(-0.00285993 -0.0218719 0)
(-0.00271307 -0.0216167 0)
(-0.00263635 -0.0211189 0)
(-0.00269905 -0.0245268 0)
(-0.00260034 -0.0238959 0)
(-0.00251187 -0.023496 0)
(-0.00242175 -0.022912 0)
(-0.00231987 -0.0225658 0)
(-0.00224471 -0.0220365 0)
(-0.00213905 -0.0217354 0)
(-0.00208335 -0.0212645 0)
(-0.00190796 -0.0246101 0)
(-0.00185047 -0.0240093 0)
(-0.00179221 -0.0235873 0)
(-0.00173745 -0.0230303 0)
(-0.00167155 -0.0226563 0)
(-0.00162413 -0.0221507 0)
(-0.0015562 -0.0218171 0)
(-0.00152016 -0.0213665 0)
(-0.00122385 -0.0246641 0)
(-0.00118667 -0.0240804 0)
(-0.00115681 -0.0236429 0)
(-0.00112202 -0.0231035 0)
(-0.00108623 -0.0227085 0)
(-0.00106276 -0.0222187 0)
(-0.00102167 -0.0218633 0)
(-0.0010084 -0.0214236 0)
(-0.000539391 -0.0246754 0)
(-0.000540579 -0.0241057 0)
(-0.000532893 -0.0236602 0)
(-0.000533361 -0.0231329 0)
(-0.000525135 -0.0227283 0)
(-0.000522343 -0.0222489 0)
(-0.000516782 -0.0218814 0)
(-0.000513864 -0.0214516 0)
(-0.00937936 1.14995e-05 0)
(-0.0125468 8.91781e-06 0)
(-0.0145704 6.70854e-06 0)
(-0.0163303 6.69984e-06 0)
(-0.0173498 8.43166e-06 0)
(-0.0179551 6.60012e-06 0)
(-0.018313 6.95612e-06 0)
(-0.0184058 3.81098e-06 0)
(-0.0185078 2.02402e-06 0)
(-0.0184553 -2.06074e-06 0)
(-0.0184112 -3.1627e-06 0)
(-0.0182264 -2.96741e-06 0)
(-0.0180455 -2.9564e-06 0)
(-0.0178208 -2.36189e-06 0)
(-0.0176198 -2.73724e-06 0)
(-0.0172725 -3.40998e-06 0)
(-0.0167274 -4.14248e-06 0)
(-0.0159087 -4.97862e-06 0)
(-0.0149699 -5.16765e-06 0)
(-0.0140477 -4.35387e-06 0)
(-0.0133216 -2.76387e-06 0)
(-0.0128595 -7.02633e-07 0)
(-0.0126957 1.25211e-06 0)
(-0.0127443 2.3776e-06 0)
(-0.0129411 2.49119e-06 0)
(-0.0132123 2.87802e-06 0)
(-0.0135278 2.60767e-06 0)
(-0.0138584 2.57968e-06 0)
(-0.0141996 2.58886e-06 0)
(-0.0145401 2.57543e-06 0)
(-0.0148807 2.77438e-06 0)
(-0.0152112 2.91514e-06 0)
(-0.0155375 2.58224e-06 0)
(-0.0158531 2.3208e-06 0)
(-0.0161419 2.0333e-06 0)
(-0.0163888 1.79683e-06 0)
(-0.0165861 1.09807e-06 0)
(-0.0167386 6.86091e-07 0)
(-0.0168581 4.62703e-07 0)
(-0.0169461 2.3667e-07 0)
(-0.0170007 1.98055e-07 0)
(-0.0170211 7.24146e-08 0)
(-0.0170082 -8.70384e-09 0)
(-0.0169668 -3.05961e-07 0)
(-0.0169027 -6.99185e-07 0)
(-0.0168315 -7.34794e-07 0)
(-0.0167579 -7.14403e-07 0)
(-0.0166669 -6.71971e-07 0)
(-0.0165439 -9.18342e-07 0)
(-0.0163766 -1.13436e-06 0)
(-0.0161625 -1.114e-06 0)
(-0.0159079 -1.96508e-06 0)
(-0.0156288 -2.05853e-06 0)
(-0.0153407 -2.17876e-06 0)
(-0.015046 -2.24073e-06 0)
(-0.0147437 -2.37829e-06 0)
(-0.0144274 -2.3467e-06 0)
(-0.014084 -2.36276e-06 0)
(-0.0136967 -2.55048e-06 0)
(-0.0132503 -2.76823e-06 0)
(-0.012738 -3.06564e-06 0)
(-0.0121665 -3.10493e-06 0)
(-0.0115505 -4.01378e-06 0)
(-0.0109142 -3.87784e-06 0)
(-0.0102722 -3.99515e-06 0)
(-0.00962825 -4.60014e-06 0)
(-0.00897798 -4.91777e-06 0)
(-0.00830327 -5.20369e-06 0)
(-0.00758196 -5.59502e-06 0)
(-0.00678855 -6.10177e-06 0)
(-0.00590306 -6.7303e-06 0)
(-0.00490732 -7.4742e-06 0)
(-0.00378852 -8.21475e-06 0)
(-0.00254103 -8.77832e-06 0)
(-0.00117092 -9.37668e-06 0)
(0.000305076 -9.90276e-06 0)
(0.00186489 -1.01925e-05 0)
(0.00348135 -1.02983e-05 0)
(0.00512545 -1.0404e-05 0)
(0.00677767 -1.04789e-05 0)
(0.00842885 -1.05268e-05 0)
(0.0100757 -1.05769e-05 0)
(0.0117162 -1.04279e-05 0)
(0.0133508 -1.05387e-05 0)
(0.0149741 -1.04898e-05 0)
(0.0165777 -1.024e-05 0)
(0.0181584 -1.00742e-05 0)
(0.0197116 -9.85655e-06 0)
(0.0212413 -9.69293e-06 0)
(0.0227474 -9.45443e-06 0)
(0.0242264 -9.42587e-06 0)
(0.0256747 -9.21379e-06 0)
(0.0270793 -9.00147e-06 0)
(0.0284223 -8.66804e-06 0)
(0.0296834 -8.23472e-06 0)
(0.0308323 -7.60126e-06 0)
(0.0318385 -6.73838e-06 0)
(0.0326769 -6.24471e-06 0)
(0.033326 -5.32276e-06 0)
(0.0338011 -4.40605e-06 0)
(0.0341283 -3.6572e-06 0)
(0.0343608 -3.04011e-06 0)
(0.0345237 -2.84637e-06 0)
(0.0346548 -2.73255e-06 0)
(0.0347554 -2.6233e-06 0)
(0.0348295 -2.43719e-06 0)
(0.0348571 -1.79119e-06 0)
(0.0347879 -1.45931e-06 0)
(0.0345921 -7.59399e-07 0)
(0.0342366 1.82151e-09 0)
(0.0337591 5.59726e-07 0)
(0.0332268 7.20013e-07 0)
(0.0327268 3.55513e-07 0)
(0.0322574 1.56322e-07 0)
(0.0318365 -2.67182e-07 0)
(0.0315133 -8.24525e-07 0)
(0.0313253 -1.38118e-06 0)
(0.0312158 -1.38223e-06 0)
(0.0309817 -1.07072e-07 0)
(0.0302797 3.22407e-06 0)
(0.0287108 8.11365e-06 0)
(0.0260679 1.2343e-05 0)
(0.0229077 1.206e-05 0)
(0.0206415 5.24282e-06 0)
(0.0202303 -3.70047e-06 0)
(0.0213132 -7.6106e-06 0)
(0.0221769 -2.51942e-06 0)
(0.0213071 7.45422e-06 0)
(0.018188 1.90038e-05 0)
(0.0129708 2.82751e-05 0)
(0.0063077 3.41571e-05 0)
(-0.00116638 3.66993e-05 0)
(-0.00884176 3.62387e-05 0)
(-0.0160975 3.27065e-05 0)
(-0.0224169 2.70678e-05 0)
(-0.0274737 2.01965e-05 0)
(-0.0312965 1.46932e-05 0)
(-0.0342956 1.1051e-05 0)
(-0.0367056 8.26065e-06 0)
(-0.0385994 5.42656e-06 0)
(-0.0399365 2.43015e-06 0)
(-0.0406665 -2.41602e-07 0)
(-0.0407519 -3.66534e-06 0)
(-0.0401759 -7.22335e-06 0)
(-0.0389361 -1.07273e-05 0)
(-0.0370371 -1.40118e-05 0)
(-0.0344916 -1.74174e-05 0)
(-0.0313239 -2.09761e-05 0)
(-0.0275679 -2.40696e-05 0)
(-0.0232739 -2.67107e-05 0)
(-0.0185199 -2.88731e-05 0)
(-0.0134194 -3.03509e-05 0)
(-0.00812152 -3.09732e-05 0)
(-0.00279776 -3.05669e-05 0)
(0.00231193 -2.89984e-05 0)
(0.00695796 -2.62407e-05 0)
(-0.00939168 5.51363e-05 0)
(-0.0125622 4.45485e-05 0)
(-0.0145862 3.21168e-05 0)
(-0.0163461 2.19898e-05 0)
(-0.0173658 8.10884e-06 0)
(-0.0179711 3.38374e-06 0)
(-0.018329 -2.65076e-06 0)
(-0.0184219 -1.79257e-06 0)
(-0.0185239 -1.78157e-06 0)
(-0.0184714 1.37695e-06 0)
(-0.0184272 6.4488e-07 0)
(-0.0182425 -9.55543e-07 0)
(-0.0180616 -1.61842e-06 0)
(-0.0178369 -2.27835e-06 0)
(-0.0176359 -3.00171e-06 0)
(-0.0172887 -5.63488e-06 0)
(-0.0167435 -9.94856e-06 0)
(-0.0159248 -1.3397e-05 0)
(-0.014986 -1.44529e-05 0)
(-0.0140638 -1.30834e-05 0)
(-0.0133376 -1.0034e-05 0)
(-0.0128755 -5.94825e-06 0)
(-0.0127117 -2.45005e-06 0)
(-0.0127603 1.47733e-07 0)
(-0.0129571 2.2928e-06 0)
(-0.0132284 3.10766e-06 0)
(-0.0135439 3.94977e-06 0)
(-0.0138745 4.2351e-06 0)
(-0.0142157 4.32103e-06 0)
(-0.0145562 4.34894e-06 0)
(-0.0148967 4.07022e-06 0)
(-0.0152273 3.76704e-06 0)
(-0.0155536 3.98972e-06 0)
(-0.0158692 3.86166e-06 0)
(-0.016158 3.44072e-06 0)
(-0.0164049 2.72388e-06 0)
(-0.0166022 2.40749e-06 0)
(-0.0167547 2.02587e-06 0)
(-0.0168742 1.60295e-06 0)
(-0.0169622 1.16236e-06 0)
(-0.0170168 5.05344e-07 0)
(-0.0170372 -6.65379e-08 0)
(-0.0170243 -6.66945e-07 0)
(-0.0169828 -8.91815e-07 0)
(-0.0169188 -8.14626e-07 0)
(-0.0168475 -8.0326e-07 0)
(-0.0167739 -1.01267e-06 0)
(-0.016683 -1.56319e-06 0)
(-0.0165599 -2.1383e-06 0)
(-0.0163927 -2.92044e-06 0)
(-0.0161786 -3.87584e-06 0)
(-0.015924 -3.73781e-06 0)
(-0.0156449 -3.97012e-06 0)
(-0.0153568 -3.99482e-06 0)
(-0.0150621 -4.0652e-06 0)
(-0.0147597 -4.11881e-06 0)
(-0.0144434 -4.56025e-06 0)
(-0.0141 -5.28435e-06 0)
(-0.0137128 -6.19389e-06 0)
(-0.0132664 -7.30754e-06 0)
(-0.0127541 -8.3508e-06 0)
(-0.0121825 -9.40037e-06 0)
(-0.0115665 -9.21076e-06 0)
(-0.0109302 -9.59892e-06 0)
(-0.0102882 -9.53234e-06 0)
(-0.00964431 -8.94363e-06 0)
(-0.00899404 -8.95903e-06 0)
(-0.00831933 -9.42025e-06 0)
(-0.00759803 -1.02744e-05 0)
(-0.00680462 -1.14764e-05 0)
(-0.00591913 -1.29592e-05 0)
(-0.00492339 -1.46532e-05 0)
(-0.00380459 -1.65486e-05 0)
(-0.0025571 -1.86098e-05 0)
(-0.00118699 -2.04135e-05 0)
(0.000289006 -2.18666e-05 0)
(0.00184882 -2.3048e-05 0)
(0.00346528 -2.38144e-05 0)
(0.00510938 -2.41119e-05 0)
(0.0067616 -2.4104e-05 0)
(0.00841278 -2.3971e-05 0)
(0.0100596 -2.37845e-05 0)
(0.0117002 -2.37978e-05 0)
(0.0133347 -2.35027e-05 0)
(0.014958 -2.324e-05 0)
(0.0165617 -2.30478e-05 0)
(0.0181423 -2.26769e-05 0)
(0.0196955 -2.23123e-05 0)
(0.0212252 -2.19422e-05 0)
(0.0227313 -2.16246e-05 0)
(0.0242103 -2.10653e-05 0)
(0.0256586 -2.05509e-05 0)
(0.0270632 -1.97378e-05 0)
(0.0284063 -1.86546e-05 0)
(0.0296673 -1.71329e-05 0)
(0.0308163 -1.51315e-05 0)
(0.0318224 -1.27661e-05 0)
(0.0326608 -9.50554e-06 0)
(0.0333099 -6.58083e-06 0)
(0.0337851 -3.96974e-06 0)
(0.0341122 -2.00858e-06 0)
(0.0343447 -8.66615e-07 0)
(0.0345076 -1.11413e-08 0)
(0.0346387 4.12527e-07 0)
(0.0347393 8.21407e-07 0)
(0.0348134 1.27907e-06 0)
(0.034841 1.87714e-06 0)
(0.0347719 3.77497e-06 0)
(0.0345761 6.05202e-06 0)
(0.0342205 8.49373e-06 0)
(0.033743 1.00151e-05 0)
(0.0332107 1.01309e-05 0)
(0.0327107 9.59375e-06 0)
(0.0322413 8.92992e-06 0)
(0.0318204 7.96747e-06 0)
(0.0314972 6.24885e-06 0)
(0.0313092 4.49466e-06 0)
(0.0311997 4.41831e-06 0)
(0.0309657 8.83848e-06 0)
(0.0302638 1.91797e-05 0)
(0.0286948 3.40542e-05 0)
(0.0260518 4.66793e-05 0)
(0.0228916 4.58578e-05 0)
(0.0206253 2.48445e-05 0)
(0.0202141 -1.72486e-06 0)
(0.0212972 -1.35861e-05 0)
(0.022161 6.98292e-07 0)
(0.0212913 3.17574e-05 0)
(0.0181722 6.66125e-05 0)
(0.012955 9.4493e-05 0)
(0.00629178 0.000112131 0)
(-0.00118238 0.000119599 0)