/*--------------------------------*- C++ -*----------------------------------*\
| =========                 |                                                 |
| \\      /  F ield         | OpenFOAM: The Open Source CFD Toolbox           |
|  \\    /   O peration     | Version:  v1912                                 |
|   \\  /    A nd           | Website:  www.openfoam.com                      |
|    \\/     M anipulation  |                                                 |
\*---------------------------------------------------------------------------*/
FoamFile
{
    version     2.0;
    format      ascii;
    class       volScalarField;
    location    "70";
    object      nut;
}
// * * * * * * * * * * * * * * * * * * * * * * * * * * * * * * * * * * * * * //

dimensions      [0 2 -1 0 0 0 0];


internalField   nonuniform List<scalar> 
14268
(
6.51336e-05
6.51002e-05
6.50949e-05
6.51175e-05
6.51516e-05
6.52006e-05
6.52541e-05
6.53061e-05
6.53501e-05
6.53846e-05
6.54177e-05
6.54496e-05
6.54823e-05
6.55181e-05
6.55575e-05
6.56013e-05
6.56778e-05
6.57867e-05
6.59205e-05
6.60802e-05
6.62391e-05
6.63969e-05
6.65442e-05
6.6669e-05
6.67681e-05
6.68474e-05
6.69156e-05
6.69873e-05
6.70683e-05
6.71509e-05
6.72142e-05
6.72393e-05
6.72227e-05
6.71708e-05
6.70981e-05
6.70293e-05
6.696e-05
6.69093e-05
6.68874e-05
6.68953e-05
6.69471e-05
6.7024e-05
6.71268e-05
6.72345e-05
6.73336e-05
6.74123e-05
6.74722e-05
6.75258e-05
6.75736e-05
6.76361e-05
6.77254e-05
6.78132e-05
6.7901e-05
6.79851e-05
6.80452e-05
6.80785e-05
6.80802e-05
6.80736e-05
6.80642e-05
6.80629e-05
6.80494e-05
6.80425e-05
6.80214e-05
6.80068e-05
6.79884e-05
6.80071e-05
6.80486e-05
6.81209e-05
6.82078e-05
6.8313e-05
6.84245e-05
6.85437e-05
6.86665e-05
6.87861e-05
6.8904e-05
6.9012e-05
6.91179e-05
6.92203e-05
6.93274e-05
6.94563e-05
6.96393e-05
6.99096e-05
7.02782e-05
7.05098e-05
7.07946e-05
7.07588e-05
3.04924e-06
2.92932e-06
2.81117e-06
2.69669e-06
2.58872e-06
2.48937e-06
2.39961e-06
2.31923e-06
2.24796e-06
2.18425e-06
2.12924e-06
2.08306e-06
2.04526e-06
2.02045e-06
2.00535e-06
2.00508e-06
2.01813e-06
2.04357e-06
2.08186e-06
2.1315e-06
2.1909e-06
2.25612e-06
2.32551e-06
2.39618e-06
2.46776e-06
2.53904e-06
2.61011e-06
2.68108e-06
2.75132e-06
2.81828e-06
2.87554e-06
2.91508e-06
2.93013e-06
2.91897e-06
2.87844e-06
2.80633e-06
2.70633e-06
2.58635e-06
2.45537e-06
2.32318e-06
2.19769e-06
2.08372e-06
1.98813e-06
1.91295e-06
1.85659e-06
1.82055e-06
1.8028e-06
1.80582e-06
1.82423e-06
1.8574e-06
1.89894e-06
1.93906e-06
1.98089e-06
2.02165e-06
2.05468e-06
2.08539e-06
2.10307e-06
2.10638e-06
2.10191e-06
2.08122e-06
2.06167e-06
2.0385e-06
2.02e-06
2.00913e-06
2.00718e-06
2.01344e-06
2.02911e-06
2.05177e-06
2.08369e-06
2.12081e-06
2.16338e-06
2.20971e-06
2.25754e-06
2.3058e-06
2.35266e-06
2.39814e-06
2.44229e-06
2.48722e-06
2.53308e-06
2.58652e-06
2.64862e-06
2.72058e-06
2.76612e-06
2.74154e-06
2.63602e-06
2.4975e-06
8.675e-07
8.39081e-07
8.11304e-07
7.84409e-07
7.5909e-07
7.35823e-07
7.14858e-07
6.96154e-07
6.79584e-07
6.64788e-07
6.5201e-07
6.41239e-07
6.3244e-07
6.26546e-07
6.2296e-07
6.22701e-07
6.25584e-07
6.31308e-07
6.40051e-07
6.5144e-07
6.64958e-07
6.79557e-07
6.94733e-07
7.09965e-07
7.25156e-07
7.40071e-07
7.54691e-07
7.69044e-07
7.83057e-07
7.96312e-07
8.07493e-07
8.14853e-07
8.16964e-07
8.13483e-07
8.03607e-07
7.86369e-07
7.6261e-07
7.34342e-07
7.0381e-07
6.73445e-07
6.45158e-07
6.20015e-07
5.99432e-07
5.83697e-07
5.72209e-07
5.65108e-07
5.61818e-07
5.62839e-07
5.6703e-07
5.74276e-07
5.83176e-07
5.91734e-07
6.00621e-07
6.09249e-07
6.16227e-07
6.22698e-07
6.26386e-07
6.26908e-07
6.2553e-07
6.20726e-07
6.16032e-07
6.10688e-07
6.0635e-07
6.03724e-07
6.03024e-07
6.04082e-07
6.07024e-07
6.11445e-07
6.17721e-07
6.25091e-07
6.33529e-07
6.42721e-07
6.52187e-07
6.61687e-07
6.7087e-07
6.79746e-07
6.88505e-07
6.97506e-07
7.06838e-07
7.17529e-07
7.29087e-07
7.41051e-07
7.46888e-07
7.42608e-07
7.26243e-07
7.13218e-07
4.68146e-07
4.57237e-07
4.46781e-07
4.36781e-07
4.27461e-07
4.19e-07
4.11458e-07
4.04825e-07
3.99023e-07
3.93906e-07
3.89537e-07
3.8586e-07
3.82927e-07
3.8093e-07
3.79774e-07
3.79687e-07
3.80638e-07
3.82471e-07
3.85294e-07
3.89047e-07
3.93505e-07
3.98375e-07
4.03457e-07
4.08658e-07
4.13934e-07
4.1922e-07
4.24426e-07
4.29554e-07
4.34556e-07
4.39282e-07
4.43249e-07
4.45801e-07
4.46389e-07
4.44918e-07
4.41113e-07
4.3469e-07
4.26052e-07
4.15978e-07
4.05368e-07
3.95075e-07
3.8575e-07
3.77776e-07
3.71479e-07
3.6689e-07
3.63689e-07
3.61793e-07
3.61037e-07
3.61471e-07
3.62775e-07
3.64943e-07
3.67552e-07
3.70116e-07
3.72774e-07
3.75352e-07
3.77456e-07
3.79333e-07
3.80359e-07
3.80427e-07
3.79789e-07
3.78215e-07
3.76604e-07
3.74924e-07
3.7354e-07
3.72754e-07
3.72525e-07
3.72848e-07
3.73662e-07
3.74973e-07
3.76788e-07
3.78977e-07
3.81468e-07
3.84212e-07
3.87054e-07
3.89902e-07
3.92671e-07
3.95339e-07
3.98022e-07
4.00791e-07
4.03719e-07
4.07031e-07
4.10448e-07
4.13279e-07
4.14451e-07
4.12823e-07
4.07412e-07
4.01028e-07
3.52847e-07
3.48154e-07
3.4377e-07
3.39676e-07
3.35893e-07
3.3253e-07
3.29598e-07
3.27091e-07
3.24947e-07
3.23105e-07
3.21566e-07
3.20276e-07
3.19329e-07
3.18658e-07
3.18351e-07
3.18382e-07
3.18782e-07
3.19446e-07
3.20411e-07
3.21741e-07
3.23288e-07
3.25036e-07
3.26872e-07
3.28866e-07
3.30959e-07
3.33168e-07
3.35377e-07
3.37579e-07
3.39718e-07
3.41742e-07
3.43429e-07
3.44478e-07
3.44659e-07
3.43966e-07
3.42356e-07
3.39701e-07
3.3622e-07
3.32269e-07
3.28269e-07
3.24498e-07
3.21269e-07
3.18703e-07
3.16859e-07
3.15687e-07
3.15038e-07
3.14767e-07
3.14836e-07
3.15144e-07
3.15644e-07
3.16364e-07
3.17116e-07
3.17915e-07
3.18756e-07
3.19533e-07
3.20209e-07
3.20766e-07
3.21074e-07
3.21126e-07
3.20841e-07
3.20422e-07
3.19905e-07
3.19527e-07
3.19209e-07
3.19159e-07
3.19229e-07
3.1951e-07
3.19807e-07
3.20309e-07
3.20868e-07
3.21597e-07
3.22377e-07
3.23226e-07
3.2412e-07
3.24996e-07
3.25863e-07
3.26698e-07
3.27586e-07
3.28491e-07
3.29516e-07
3.30661e-07
3.31824e-07
3.32816e-07
3.33266e-07
3.32841e-07
3.31258e-07
3.29571e-07
3.14368e-07
3.12074e-07
3.09989e-07
3.08125e-07
3.064e-07
3.04903e-07
3.03677e-07
3.02704e-07
3.01929e-07
3.01295e-07
3.00792e-07
3.00378e-07
3.0019e-07
3.0001e-07
3.0008e-07
3.00196e-07
3.0049e-07
3.00823e-07
3.01238e-07
3.01811e-07
3.02408e-07
3.03157e-07
3.03915e-07
3.04836e-07
3.05845e-07
3.06991e-07
3.0817e-07
3.09371e-07
3.10519e-07
3.11575e-07
3.12432e-07
3.12932e-07
3.12945e-07
3.12527e-07
3.11693e-07
3.10426e-07
3.08871e-07
3.07135e-07
3.05489e-07
3.03975e-07
3.02805e-07
3.02059e-07
3.01629e-07
3.01604e-07
3.01796e-07
3.02127e-07
3.02567e-07
3.02964e-07
3.03301e-07
3.0361e-07
3.03842e-07
3.04157e-07
3.04502e-07
3.0478e-07
3.05066e-07
3.05235e-07
3.05327e-07
3.0538e-07
3.05225e-07
3.0518e-07
3.05043e-07
3.05125e-07
3.05207e-07
3.05465e-07
3.05722e-07
3.06056e-07
3.06272e-07
3.06588e-07
3.068e-07
3.07112e-07
3.07398e-07
3.07673e-07
3.07987e-07
3.08262e-07
3.08545e-07
3.08834e-07
3.09167e-07
3.09469e-07
3.09878e-07
3.10292e-07
3.10761e-07
3.11104e-07
3.11065e-07
3.10465e-07
3.09321e-07
3.07909e-07
2.99831e-07
2.98427e-07
2.97237e-07
2.96173e-07
2.95182e-07
2.94322e-07
2.93684e-07
2.93254e-07
2.92983e-07
2.92788e-07
2.92685e-07
2.92558e-07
2.92699e-07
2.92733e-07
2.92954e-07
2.93129e-07
2.93434e-07
2.93685e-07
2.9398e-07
2.94372e-07
2.94727e-07
2.95208e-07
2.95648e-07
2.96226e-07
2.96873e-07
2.97645e-07
2.98479e-07
2.99326e-07
3.00087e-07
3.00764e-07
3.01277e-07
3.01517e-07
3.0144e-07
3.01116e-07
3.00597e-07
2.99865e-07
2.98987e-07
2.98041e-07
2.97147e-07
2.96359e-07
2.95781e-07
2.95523e-07
2.95587e-07
2.95976e-07
2.96559e-07
2.97185e-07
2.97802e-07
2.98333e-07
2.98739e-07
2.98992e-07
2.99114e-07
2.99304e-07
2.99528e-07
2.99658e-07
2.99763e-07
2.99825e-07
2.99905e-07
2.99977e-07
2.99926e-07
3.0001e-07
3.0003e-07
3.00278e-07
3.00556e-07
3.00981e-07
3.01413e-07
3.01874e-07
3.02178e-07
3.02526e-07
3.02671e-07
3.02872e-07
3.03015e-07
3.03116e-07
3.03244e-07
3.03303e-07
3.03359e-07
3.03428e-07
3.03545e-07
3.03636e-07
3.03834e-07
3.03996e-07
3.04214e-07
3.04424e-07
3.0437e-07
3.04007e-07
3.03374e-07
3.02406e-07
2.92967e-07
2.91735e-07
2.90772e-07
2.89908e-07
2.89057e-07
2.88324e-07
2.87834e-07
2.87521e-07
2.87387e-07
2.87352e-07
2.87366e-07
2.87322e-07
2.87541e-07
2.87641e-07
2.87895e-07
2.88152e-07
2.88537e-07
2.88859e-07
2.89293e-07
2.89783e-07
2.9025e-07
2.9084e-07
2.91377e-07
2.91965e-07
2.92625e-07
2.93391e-07
2.94167e-07
2.94936e-07
2.95603e-07
2.96149e-07
2.96509e-07
2.96583e-07
2.96425e-07
2.96081e-07
2.95623e-07
2.95017e-07
2.94274e-07
2.93469e-07
2.92699e-07
2.92027e-07
2.91503e-07
2.91282e-07
2.91355e-07
2.91814e-07
2.9251e-07
2.93314e-07
2.94151e-07
2.94855e-07
2.95406e-07
2.95752e-07
2.96034e-07
2.96298e-07
2.96547e-07
2.96753e-07
2.96963e-07
2.97042e-07
2.97104e-07
2.97164e-07
2.97077e-07
2.97186e-07
2.97266e-07
2.97589e-07
2.97989e-07
2.98514e-07
2.9906e-07
2.99628e-07
3.00066e-07
3.00478e-07
3.00723e-07
3.00933e-07
3.01094e-07
3.0122e-07
3.01338e-07
3.01403e-07
3.01423e-07
3.01434e-07
3.0148e-07
3.01519e-07
3.01636e-07
3.01742e-07
3.01901e-07
3.02109e-07
3.02044e-07
3.01569e-07
3.00883e-07
2.99781e-07
2.87502e-07
2.86112e-07
2.85022e-07
2.84006e-07
2.83043e-07
2.8225e-07
2.81756e-07
2.81424e-07
2.81267e-07
2.81231e-07
2.81273e-07
2.81216e-07
2.81469e-07
2.81607e-07
2.81893e-07
2.82321e-07
2.82832e-07
2.83334e-07
2.84001e-07
2.84716e-07
2.85415e-07
2.86258e-07
2.87069e-07
2.87875e-07
2.88714e-07
2.89636e-07
2.90558e-07
2.91447e-07
2.92212e-07
2.92821e-07
2.93172e-07
2.93236e-07
2.9302e-07
2.92573e-07
2.91987e-07
2.91209e-07
2.90271e-07
2.89296e-07
2.88317e-07
2.87381e-07
2.86577e-07
2.86162e-07
2.86185e-07
2.86646e-07
2.87463e-07
2.88469e-07
2.8949e-07
2.90486e-07
2.91363e-07
2.91999e-07
2.92469e-07
2.92855e-07
2.93267e-07
2.93505e-07
2.93566e-07
2.93708e-07
2.93886e-07
2.93976e-07
2.94047e-07
2.9409e-07
2.94176e-07
2.9447e-07
2.94974e-07
2.95602e-07
2.96328e-07
2.97084e-07
2.97782e-07
2.98389e-07
2.98843e-07
2.99182e-07
2.99415e-07
2.99592e-07
2.99758e-07
2.99847e-07
2.99854e-07
2.99849e-07
2.99892e-07
2.99933e-07
3.00043e-07
3.00154e-07
3.00311e-07
3.00558e-07
3.00562e-07
3.00089e-07
2.99395e-07
2.98204e-07
2.81498e-07
2.79803e-07
2.7838e-07
2.77041e-07
2.75804e-07
2.74804e-07
2.74163e-07
2.73692e-07
2.73403e-07
2.73249e-07
2.73242e-07
2.73144e-07
2.73379e-07
2.73576e-07
2.73862e-07
2.74453e-07
2.75081e-07
2.75842e-07
2.76837e-07
2.77898e-07
2.79038e-07
2.80302e-07
2.81539e-07
2.82739e-07
2.83966e-07
2.85263e-07
2.86436e-07
2.87573e-07
2.8848e-07
2.89127e-07
2.89518e-07
2.89601e-07
2.8935e-07
2.88799e-07
2.88018e-07
2.86986e-07
2.8573e-07
2.84427e-07
2.83064e-07
2.81702e-07
2.80495e-07
2.79747e-07
2.79507e-07
2.79833e-07
2.80636e-07
2.81821e-07
2.83171e-07
2.84435e-07
2.85644e-07
2.86705e-07
2.8753e-07
2.88168e-07
2.88704e-07
2.89252e-07
2.8974e-07
2.89896e-07
2.89976e-07
2.90083e-07
2.89945e-07
2.89959e-07
2.89998e-07
2.90303e-07
2.90835e-07
2.915e-07
2.92317e-07
2.93233e-07
2.94114e-07
2.94958e-07
2.9564e-07
2.96167e-07
2.96536e-07
2.96838e-07
2.97133e-07
2.97335e-07
2.97421e-07
2.97482e-07
2.97582e-07
2.97701e-07
2.97891e-07
2.98128e-07
2.98363e-07
2.98668e-07
2.9881e-07
2.98387e-07
2.9768e-07
2.96339e-07
2.74266e-07
2.72106e-07
2.70164e-07
2.68309e-07
2.66625e-07
2.6527e-07
2.64297e-07
2.63571e-07
2.63036e-07
2.62646e-07
2.62419e-07
2.62153e-07
2.62186e-07
2.62294e-07
2.62492e-07
2.63171e-07
2.64023e-07
2.65229e-07
2.66696e-07
2.68392e-07
2.70195e-07
2.72078e-07
2.73939e-07
2.75691e-07
2.77411e-07
2.79134e-07
2.80739e-07
2.82296e-07
2.83586e-07
2.84528e-07
2.85061e-07
2.85174e-07
2.84869e-07
2.84165e-07
2.83145e-07
2.8177e-07
2.80089e-07
2.78267e-07
2.76231e-07
2.74119e-07
2.72195e-07
2.70783e-07
2.7e-07
2.70065e-07
2.7087e-07
2.72257e-07
2.73867e-07
2.75683e-07
2.77498e-07
2.79131e-07
2.80543e-07
2.81571e-07
2.82317e-07
2.82959e-07
2.83293e-07
2.83743e-07
2.84106e-07
2.84074e-07
2.8425e-07
2.84032e-07
2.83982e-07
2.84118e-07
2.84547e-07
2.85173e-07
2.86073e-07
2.8716e-07
2.88298e-07
2.89454e-07
2.90469e-07
2.91321e-07
2.91979e-07
2.92532e-07
2.93062e-07
2.93468e-07
2.93719e-07
2.939e-07
2.9409e-07
2.94301e-07
2.94574e-07
2.94911e-07
2.95279e-07
2.95788e-07
2.96159e-07
2.96032e-07
2.95306e-07
2.9379e-07
2.65007e-07
2.62102e-07
2.59347e-07
2.56681e-07
2.54251e-07
2.52282e-07
2.50711e-07
2.4951e-07
2.48535e-07
2.47694e-07
2.4698e-07
2.46316e-07
2.45886e-07
2.45768e-07
2.45705e-07
2.46195e-07
2.47269e-07
2.48892e-07
2.51146e-07
2.53884e-07
2.56963e-07
2.60063e-07
2.63114e-07
2.6593e-07
2.68546e-07
2.70929e-07
2.73094e-07
2.75173e-07
2.76955e-07
2.78363e-07
2.79244e-07
2.79531e-07
2.79239e-07
2.78358e-07
2.7692e-07
2.75031e-07
2.72664e-07
2.69887e-07
2.66668e-07
2.63241e-07
2.59962e-07
2.57331e-07
2.55633e-07
2.55305e-07
2.55726e-07
2.57295e-07
2.59323e-07
2.61779e-07
2.64402e-07
2.67182e-07
2.69728e-07
2.71535e-07
2.73123e-07
2.74599e-07
2.75311e-07
2.75863e-07
2.76026e-07
2.76063e-07
2.75625e-07
2.75286e-07
2.74906e-07
2.74778e-07
2.7491e-07
2.75366e-07
2.76268e-07
2.77549e-07
2.79089e-07
2.80734e-07
2.82306e-07
2.83641e-07
2.84716e-07
2.85644e-07
2.86568e-07
2.87354e-07
2.87915e-07
2.88303e-07
2.88671e-07
2.89073e-07
2.89536e-07
2.90068e-07
2.90597e-07
2.91331e-07
2.91961e-07
2.92148e-07
2.91482e-07
2.89754e-07
2.52523e-07
2.48451e-07
2.44413e-07
2.40464e-07
2.36874e-07
2.33856e-07
2.31338e-07
2.29309e-07
2.27552e-07
2.25882e-07
2.24307e-07
2.22852e-07
2.2148e-07
2.2083e-07
2.20319e-07
2.20653e-07
2.22131e-07
2.2462e-07
2.28163e-07
2.32764e-07
2.37925e-07
2.43064e-07
2.48052e-07
2.52332e-07
2.56135e-07
2.59607e-07
2.62794e-07
2.65701e-07
2.68179e-07
2.70122e-07
2.71299e-07
2.71561e-07
2.71057e-07
2.6988e-07
2.68076e-07
2.65468e-07
2.62022e-07
2.5776e-07
2.52671e-07
2.47031e-07
2.41339e-07
2.36391e-07
2.32931e-07
2.3112e-07
2.31319e-07
2.32902e-07
2.35577e-07
2.3905e-07
2.43165e-07
2.48035e-07
2.52517e-07
2.55666e-07
2.5813e-07
2.60412e-07
2.62285e-07
2.63188e-07
2.63414e-07
2.62817e-07
2.62557e-07
2.61322e-07
2.60423e-07
2.59497e-07
2.5904e-07
2.58978e-07
2.59719e-07
2.61237e-07
2.63479e-07
2.66022e-07
2.68641e-07
2.70891e-07
2.72668e-07
2.74176e-07
2.75709e-07
2.77079e-07
2.78096e-07
2.78777e-07
2.79384e-07
2.80079e-07
2.80888e-07
2.81846e-07
2.82929e-07
2.84329e-07
2.85439e-07
2.86061e-07
2.85543e-07
2.83358e-07
2.35334e-07
2.29383e-07
2.23264e-07
2.17193e-07
2.11499e-07
2.06461e-07
2.02073e-07
1.98303e-07
1.94884e-07
1.91396e-07
1.87983e-07
1.84574e-07
1.80961e-07
1.78723e-07
1.76688e-07
1.76047e-07
1.77975e-07
1.82094e-07
1.88426e-07
1.96723e-07
2.06295e-07
2.15814e-07
2.24869e-07
2.32698e-07
2.39189e-07
2.44713e-07
2.49472e-07
2.53528e-07
2.56947e-07
2.59573e-07
2.61309e-07
2.61829e-07
2.61146e-07
2.59347e-07
2.56535e-07
2.52598e-07
2.47316e-07
2.40519e-07
2.32132e-07
2.22651e-07
2.12501e-07
2.02709e-07
1.94677e-07
1.89738e-07
1.87576e-07
1.88088e-07
1.91552e-07
1.97012e-07
2.04133e-07
2.13337e-07
2.22893e-07
2.29818e-07
2.34813e-07
2.38725e-07
2.41569e-07
2.43291e-07
2.43797e-07
2.42543e-07
2.41615e-07
2.39685e-07
2.37206e-07
2.34854e-07
2.32726e-07
2.31466e-07
2.31375e-07
2.33083e-07
2.36664e-07
2.41211e-07
2.46164e-07
2.50608e-07
2.54209e-07
2.57021e-07
2.59581e-07
2.61826e-07
2.63539e-07
2.64535e-07
2.65209e-07
2.6608e-07
2.67109e-07
2.68457e-07
2.70039e-07
2.72104e-07
2.74011e-07
2.75133e-07
2.74605e-07
2.71802e-07
2.22356e-07
2.1497e-07
2.07235e-07
1.99471e-07
1.921e-07
1.85326e-07
1.79081e-07
1.73208e-07
1.67328e-07
1.60575e-07
1.53118e-07
1.44559e-07
1.35085e-07
1.27556e-07
1.21358e-07
1.18572e-07
1.20924e-07
1.26971e-07
1.3657e-07
1.49614e-07
1.65185e-07
1.81092e-07
1.96693e-07
2.10168e-07
2.21067e-07
2.2981e-07
2.36885e-07
2.42809e-07
2.47647e-07
2.51194e-07
2.53427e-07
2.54189e-07
2.53466e-07
2.51375e-07
2.47874e-07
2.42921e-07
2.36265e-07
2.2759e-07
2.16756e-07
2.0439e-07
1.90903e-07
1.77104e-07
1.6444e-07
1.53536e-07
1.44007e-07
1.37763e-07
1.36628e-07
1.41437e-07
1.51844e-07
1.66919e-07
1.83591e-07
1.97532e-07
2.08024e-07
2.16099e-07
2.21674e-07
2.25057e-07
2.25716e-07
2.24198e-07
2.21818e-07
2.17396e-07
2.12255e-07
2.05591e-07
1.99304e-07
1.94294e-07
1.92441e-07
1.94474e-07
2.00144e-07
2.07999e-07
2.16884e-07
2.25179e-07
2.3204e-07
2.37487e-07
2.42126e-07
2.46129e-07
2.49207e-07
2.50927e-07
2.51996e-07
2.53268e-07
2.54735e-07
2.56616e-07
2.58865e-07
2.61719e-07
2.64381e-07
2.66001e-07
2.65559e-07
2.62232e-07
2.14103e-07
2.05744e-07
1.96838e-07
1.87767e-07
1.7885e-07
1.70175e-07
1.61532e-07
1.52661e-07
1.43155e-07
1.32081e-07
1.20107e-07
1.07037e-07
9.41135e-08
8.45862e-08
7.74765e-08
7.4145e-08
7.63506e-08
8.2879e-08
9.36954e-08
1.08826e-07
1.27985e-07
1.48526e-07
1.69778e-07
1.88997e-07
2.04836e-07
2.17366e-07
2.27082e-07
2.34675e-07
2.40719e-07
2.45228e-07
2.48199e-07
2.49175e-07
2.48399e-07
2.45923e-07
2.42051e-07
2.36482e-07
2.29128e-07
2.19331e-07
2.06885e-07
1.92437e-07
1.76255e-07
1.58633e-07
1.40569e-07
1.22155e-07
1.05663e-07
9.48676e-08
9.22853e-08
9.7457e-08
1.08817e-07
1.26161e-07
1.46452e-07
1.64914e-07
1.8006e-07
1.9238e-07
2.01378e-07
2.06943e-07
2.081e-07
2.06523e-07
2.02598e-07
1.95334e-07
1.87569e-07
1.77541e-07
1.68225e-07
1.61783e-07
1.59012e-07
1.61113e-07
1.68291e-07
1.78564e-07
1.90789e-07
2.02662e-07
2.127e-07
2.20682e-07
2.27273e-07
2.32882e-07
2.37328e-07
2.39842e-07
2.4139e-07
2.43024e-07
2.44833e-07
2.47143e-07
2.49967e-07
2.53602e-07
2.57161e-07
2.59357e-07
2.59137e-07
2.55466e-07
2.04667e-07
1.95036e-07
1.84511e-07
1.73417e-07
1.61844e-07
1.49727e-07
1.36915e-07
1.23468e-07
1.09457e-07
9.46347e-08
8.0352e-08
6.66159e-08
5.48662e-08
4.73793e-08
4.22323e-08
3.97335e-08
4.1182e-08
4.60796e-08
5.4931e-08
6.90269e-08
8.9099e-08
1.12304e-07
1.37905e-07
1.62705e-07
1.84213e-07
2.01681e-07
2.15311e-07
2.25585e-07
2.33304e-07
2.38866e-07
2.42564e-07
2.43871e-07
2.42937e-07
2.4033e-07
2.3637e-07
2.30278e-07
2.21616e-07
2.10012e-07
1.95469e-07
1.78234e-07
1.58198e-07
1.35296e-07
1.10258e-07
8.57634e-08
6.68731e-08
5.70956e-08
5.62394e-08
6.25669e-08
7.32663e-08
8.90675e-08
1.10083e-07
1.30691e-07
1.48432e-07
1.6321e-07
1.74454e-07
1.81593e-07
1.83012e-07
1.81014e-07
1.75263e-07
1.65467e-07
1.54838e-07
1.43461e-07
1.33371e-07
1.26294e-07
1.23105e-07
1.25333e-07
1.33404e-07
1.45538e-07
1.60466e-07
1.75885e-07
1.89498e-07
2.00594e-07
2.0965e-07
2.17314e-07
2.23423e-07
2.26874e-07
2.28981e-07
2.31014e-07
2.33272e-07
2.36094e-07
2.39477e-07
2.43679e-07
2.48036e-07
2.50854e-07
2.50776e-07
2.46653e-07
1.93833e-07
1.82496e-07
1.69629e-07
1.55338e-07
1.39581e-07
1.22556e-07
1.04883e-07
8.7593e-08
7.12866e-08
5.6361e-08
4.43365e-08
3.45581e-08
2.71645e-08
2.25665e-08
1.94256e-08
1.78199e-08
1.85522e-08
2.12998e-08
2.65683e-08
3.53772e-08
4.98323e-08
7.08372e-08
9.87274e-08
1.28239e-07
1.55826e-07
1.79404e-07
1.98623e-07
2.13205e-07
2.23826e-07
2.31047e-07
2.35639e-07
2.37925e-07
2.37737e-07
2.35189e-07
2.30437e-07
2.2321e-07
2.12883e-07
1.99134e-07
1.82103e-07
1.61402e-07
1.3654e-07
1.08e-07
7.85705e-08
5.3668e-08
3.87553e-08
3.17694e-08
3.00695e-08
3.31245e-08
4.04428e-08
5.36734e-08
7.30274e-08
9.40985e-08
1.13111e-07
1.29643e-07
1.42507e-07
1.50672e-07
1.52124e-07
1.49352e-07
1.42051e-07
1.30856e-07
1.18147e-07
1.05422e-07
9.35688e-08
8.66936e-08
8.27951e-08
8.52467e-08
9.34871e-08
1.06731e-07
1.23428e-07
1.41788e-07
1.58983e-07
1.73679e-07
1.85838e-07
1.962e-07
2.04724e-07
2.09621e-07
2.12591e-07
2.15258e-07
2.18155e-07
2.21712e-07
2.25946e-07
2.31069e-07
2.36613e-07
2.4045e-07
2.40707e-07
2.36165e-07
1.81187e-07
1.67456e-07
1.51127e-07
1.32283e-07
1.11323e-07
8.98019e-08
6.96862e-08
5.26585e-08
3.94943e-08
2.95132e-08
2.207e-08
1.623e-08
1.20197e-08
9.51124e-09
7.81519e-09
6.88162e-09
7.20645e-09
8.48271e-09
1.11444e-08
1.57461e-08
2.38493e-08
3.69204e-08
5.84439e-08
8.89031e-08
1.21328e-07
1.51045e-07
1.76511e-07
1.96909e-07
2.11857e-07
2.21865e-07
2.27929e-07
2.30647e-07
2.30574e-07
2.27911e-07
2.22492e-07
2.14023e-07
2.01783e-07
1.86239e-07
1.66699e-07
1.41906e-07
1.12104e-07
7.9989e-08
5.06735e-08
3.14498e-08
2.11831e-08
1.618e-08
1.44387e-08
1.56242e-08
1.95606e-08
2.72746e-08
4.02788e-08
5.79929e-08
7.70045e-08
9.407e-08
1.07741e-07
1.16524e-07
1.17959e-07
1.14457e-07
1.06019e-07
9.40195e-08
8.03692e-08
6.69443e-08
5.5647e-08
4.83935e-08
4.58503e-08
4.74573e-08
5.50634e-08
6.76819e-08
8.48119e-08
1.04336e-07
1.23882e-07
1.41406e-07
1.5651e-07
1.69582e-07
1.80904e-07
1.87662e-07
1.91818e-07
1.9528e-07
1.99018e-07
2.03551e-07
2.08884e-07
2.1519e-07
2.22172e-07
2.27292e-07
2.28049e-07
2.22938e-07
1.6607e-07
1.48933e-07
1.27986e-07
1.04068e-07
7.93035e-08
5.68633e-08
3.90181e-08
2.66946e-08
1.8261e-08
1.23607e-08
8.41552e-09
5.73507e-09
4.11691e-09
3.33607e-09
2.75383e-09
2.3522e-09
2.48507e-09
3.06877e-09
4.19771e-09
6.17426e-09
9.91406e-09
1.66359e-08
2.90361e-08
5.02456e-08
8.18733e-08
1.16458e-07
1.48047e-07
1.7489e-07
1.95836e-07
2.09914e-07
2.18471e-07
2.22414e-07
2.22421e-07
2.19225e-07
2.13389e-07
2.04016e-07
1.90715e-07
1.73145e-07
1.4948e-07
1.20108e-07
8.68102e-08
5.49063e-08
3.10968e-08
1.77343e-08
1.08081e-08
7.54906e-09
6.34969e-09
6.65914e-09
8.48301e-09
1.23328e-08
1.94657e-08
3.05339e-08
4.45992e-08
5.99055e-08
7.3195e-08
8.17549e-08
8.31159e-08
7.92308e-08
7.04451e-08
5.87591e-08
4.60877e-08
3.46098e-08
2.67208e-08
2.24573e-08
2.09057e-08
2.19026e-08
2.65388e-08
3.48234e-08
4.78998e-08
6.65454e-08
8.70736e-08
1.05953e-07
1.22558e-07
1.37482e-07
1.51073e-07
1.59702e-07
1.65168e-07
1.69548e-07
1.74202e-07
1.7987e-07
1.86475e-07
1.94183e-07
2.03173e-07
2.10358e-07
2.12063e-07
2.06522e-07
1.476e-07
1.26171e-07
1.00489e-07
7.32775e-08
4.84603e-08
2.96433e-08
1.78671e-08
1.08401e-08
6.75574e-09
4.49543e-09
3.33175e-09
2.62888e-09
2.14183e-09
1.83885e-09
1.4889e-09
1.25947e-09
1.2433e-09
1.33862e-09
1.74863e-09
2.34156e-09
3.82466e-09
6.68791e-09
1.26918e-08
2.4454e-08
4.52025e-08
7.79134e-08
1.14414e-07
1.47184e-07
1.74451e-07
1.93876e-07
2.06115e-07
2.12204e-07
2.13876e-07
2.11164e-07
2.04637e-07
1.94075e-07
1.78765e-07
1.57713e-07
1.30018e-07
9.70709e-08
6.2963e-08
3.46961e-08
1.72086e-08
8.34852e-09
4.35196e-09
2.77967e-09
2.29591e-09
2.35639e-09
3.33449e-09
5.01417e-09
8.38141e-09
1.40762e-08
2.23415e-08
3.25385e-08
4.26544e-08
5.0258e-08
5.15972e-08
4.79784e-08
4.03781e-08
3.1177e-08
2.2132e-08
1.48273e-08
1.04257e-08
8.54982e-09
7.80313e-09
8.50844e-09
1.0706e-08
1.54355e-08
2.25647e-08
3.43122e-08
5.17577e-08
7.10769e-08
8.81076e-08
1.03408e-07
1.17843e-07
1.27443e-07
1.33686e-07
1.38538e-07
1.43751e-07
1.50285e-07
1.58051e-07
1.67129e-07
1.78157e-07
1.88084e-07
1.91325e-07
1.85702e-07
1.24177e-07
9.84091e-08
6.97471e-08
4.30083e-08
2.35404e-08
1.24917e-08
6.65867e-09
3.8605e-09
2.76473e-09
2.27326e-09
1.86918e-09
1.50864e-09
1.26788e-09
1.10724e-09
8.65086e-10
7.32183e-10
7.20995e-10
7.93786e-10
1.039e-09
1.2824e-09
1.66855e-09
2.55709e-09
4.97239e-09
1.03886e-08
2.14973e-08
4.18585e-08
7.56235e-08
1.13345e-07
1.4711e-07
1.72851e-07
1.89907e-07
1.98726e-07
2.0161e-07
1.99436e-07
1.9263e-07
1.80879e-07
1.63332e-07
1.38995e-07
1.08119e-07
7.35714e-08
4.15101e-08
1.87641e-08
7.5551e-09
3.08139e-09
1.56406e-09
1.04905e-09
8.92787e-10
9.25998e-10
1.24676e-09
1.91577e-09
3.31511e-09
5.76722e-09
9.49237e-09
1.47933e-08
2.06627e-08
2.49505e-08
2.55599e-08
2.28381e-08
1.78395e-08
1.25423e-08
7.71589e-09
4.50195e-09
3.05252e-09
2.57495e-09
2.44288e-09
2.71757e-09
3.51437e-09
5.63434e-09
8.82833e-09
1.45428e-08
2.4567e-08
3.85347e-08
5.41761e-08
6.95095e-08
8.36812e-08
9.34946e-08
9.98593e-08
1.04514e-07
1.09517e-07
1.1598e-07
1.23901e-07
1.33423e-07
1.45667e-07
1.58492e-07
1.63732e-07
1.58667e-07
9.63748e-08
6.81396e-08
4.02785e-08
2.03443e-08
9.56649e-09
4.46924e-09
2.39486e-09
1.75455e-09
1.54346e-09
1.35415e-09
1.15505e-09
9.26908e-10
7.51943e-10
5.95773e-10
4.17248e-10
3.41678e-10
3.45594e-10
4.43333e-10
6.78017e-10
8.22548e-10
1.00547e-09
1.36728e-09
2.08169e-09
4.04017e-09
8.98886e-09
1.94493e-08
3.98181e-08
7.5281e-08
1.14492e-07
1.46249e-07
1.68829e-07
1.81407e-07
1.86199e-07
1.84695e-07
1.77576e-07
1.64519e-07
1.44743e-07
1.17808e-07
8.54225e-08
5.16034e-08
2.3726e-08
8.02119e-09
2.65481e-09
1.05483e-09
5.39445e-10
3.77226e-10
3.22763e-10
3.294e-10
4.60074e-10
7.74802e-10
1.33783e-09
2.33835e-09
3.68687e-09
5.53537e-09
7.98085e-09
9.86975e-09
1.00673e-08
8.59691e-09
6.40678e-09
4.56474e-09
2.70408e-09
1.49372e-09
9.70884e-10
8.38476e-10
8.19171e-10
9.32679e-10
1.29262e-09
2.07898e-09
2.85199e-09
4.85519e-09
9.32717e-09
1.71582e-08
2.68177e-08
3.76791e-08
5.01236e-08
5.9978e-08
6.63598e-08
7.07178e-08
7.50509e-08
8.07291e-08
8.77747e-08
9.65198e-08
1.084e-07
1.23085e-07
1.30505e-07
1.26724e-07
6.73451e-08
4.01222e-08
1.93692e-08
8.33294e-09
3.41745e-09
1.69875e-09
1.20965e-09
1.07468e-09
1.04948e-09
9.55452e-10
8.42409e-10
4.91384e-10
1.36955e-10
9.15087e-11
6.28134e-11
5.61008e-11
7.80759e-11
1.53749e-10
2.58097e-10
3.875e-10
6.31395e-10
8.7726e-10
1.22437e-09
1.84981e-09
3.64639e-09
8.35294e-09
1.8521e-08
3.93859e-08
7.70337e-08
1.14425e-07
1.43126e-07
1.60136e-07
1.673e-07
1.66652e-07
1.59415e-07
1.45262e-07
1.23958e-07
9.57776e-08
6.3789e-08
3.26694e-08
1.08339e-08
2.83349e-09
9.16914e-10
4.13267e-10
2.36047e-10
1.581e-10
1.1942e-10
1.13535e-10
1.55756e-10
2.65371e-10
5.17798e-10
1.04872e-09
1.67136e-09
2.19286e-09
2.8858e-09
3.47502e-09
3.63788e-09
3.30665e-09
2.6691e-09
2.28369e-09
1.16018e-09
5.36945e-10
3.35339e-10
2.86529e-10
2.667e-10
3.11204e-10
5.15675e-10
9.39778e-10
9.75077e-10
1.44993e-09
2.76183e-09
6.38029e-09
1.1679e-08
1.76714e-08
2.46743e-08
3.12152e-08
3.62944e-08
4.00805e-08
4.3852e-08
4.86086e-08
5.45263e-08
6.18883e-08
7.21529e-08
8.638e-08
9.54142e-08
9.3296e-08
4.05012e-08
1.98519e-08
8.12491e-09
3.04051e-09
1.41089e-09
9.80123e-10
8.42746e-10
8.24704e-10
8.48499e-10
3.66403e-10
1.78801e-10
3.32099e-11
9.11595e-12
3.89391e-12
1.6766e-12
1.04595e-12
3.41958e-12
9.68108e-12
2.85302e-11
7.43892e-11
1.80314e-10
3.95401e-10
7.56358e-10
1.0385e-09
1.86153e-09
3.59708e-09
8.15638e-09
1.84321e-08
4.13234e-08
7.85626e-08
1.12404e-07
1.34103e-07
1.44311e-07
1.44703e-07
1.37786e-07
1.23346e-07
1.01617e-07
7.37442e-08
4.37359e-08
1.70023e-08
4.00673e-09
9.98052e-10
4.29215e-10
2.32706e-10
1.17096e-10
2.83207e-12
6.92904e-13
2.09397e-13
1.41513e-11
4.2228e-11
1.11507e-10
4.09613e-10
8.02494e-10
1.08813e-09
1.38112e-09
1.5844e-09
1.64587e-09
1.61487e-09
1.40021e-09
1.32722e-09
5.75323e-10
2.10215e-10
1.09707e-10
5.36131e-11
2.66427e-11
3.78962e-11
1.06345e-10
3.23041e-10
2.60439e-10
4.14619e-10
8.35732e-10
2.01321e-09
4.46887e-09
7.55255e-09
1.10402e-08
1.4334e-08
1.70224e-08
1.90861e-08
2.11905e-08
2.39986e-08
2.77266e-08
3.26156e-08
4.01307e-08
5.21843e-08
6.19917e-08
6.16315e-08
2.05198e-08
8.62981e-09
3.11931e-09
1.38617e-09
9.15713e-10
7.54596e-10
6.94258e-10
5.42538e-10
2.1571e-10
5.9561e-11
1.76875e-11
2.69807e-12
7.42601e-13
6.33481e-13
1.36746e-12
2.3002e-12
2.85624e-12
2.41922e-12
2.25235e-12
4.04798e-12
1.12557e-11
4.47869e-11
2.12713e-10
4.61475e-10
1.06316e-09
2.04297e-09
3.64352e-09
8.27179e-09
1.95312e-08
4.34605e-08
7.86779e-08
1.04199e-07
1.17754e-07
1.19491e-07
1.13462e-07
9.9521e-08
7.85755e-08
5.24168e-08
2.56154e-08
7.00545e-09
1.5702e-09
5.62224e-10
3.28544e-10
6.64269e-11
9.02061e-12
6.53362e-13
8.00517e-13
3.83185e-12
3.70011e-12
4.45991e-12
7.64196e-12
2.91323e-11
2.23487e-10
4.61726e-10
6.55942e-10
8.67762e-10
9.07649e-10
9.32186e-10
8.20203e-10
6.85956e-10
3.03082e-10
2.37616e-11
6.13666e-12
9.70816e-13
7.31962e-14
6.01883e-13
3.33627e-12
1.13181e-11
1.39825e-11
7.08269e-11
2.0798e-10
6.00161e-10
1.55725e-09
2.95544e-09
4.75721e-09
6.26454e-09
7.50591e-09
8.40526e-09
9.28168e-09
1.05044e-08
1.2223e-08
1.45602e-08
1.83964e-08
2.52733e-08
3.30794e-08
3.40499e-08
9.24373e-09
3.54787e-09
1.55311e-09
9.58411e-10
7.66861e-10
6.76123e-10
2.91009e-10
1.05895e-10
3.81647e-11
1.05195e-11
2.68516e-12
1.3357e-12
2.14616e-12
7.05556e-12
1.44061e-11
2.487e-11
3.38766e-11
3.29608e-11
1.80266e-11
6.86668e-12
1.7732e-12
1.24586e-12
5.93473e-12
8.66097e-11
3.84524e-10
1.23868e-09
2.0613e-09
3.8358e-09
8.92152e-09
2.08304e-08
4.4991e-08
7.2025e-08
8.85234e-08
9.22429e-08
8.75285e-08
7.50155e-08
5.58683e-08
3.25693e-08
1.22e-08
3.36427e-09
9.95196e-10
4.82503e-10
1.60187e-10
1.09163e-11
3.0007e-12
5.02506e-12
1.12181e-11
1.033e-11
6.56785e-12
3.54651e-12
1.98174e-12
1.37326e-12
1.6578e-12
3.96459e-12
1.06202e-11
4.54029e-11
1.4036e-10
2.76557e-10
3.77042e-10
1.17237e-10
4.31701e-11
4.34643e-12
1.62418e-12
1.56287e-12
1.74375e-12
8.81192e-13
2.75847e-13
4.91372e-14
2.34323e-13
7.59036e-12
3.18317e-11
1.32291e-10
4.55238e-10
1.13135e-09
1.98777e-09
2.74299e-09
3.34632e-09
3.80077e-09
4.12506e-09
4.55747e-09
5.17609e-09
6.03258e-09
7.50406e-09
1.02917e-08
1.41016e-08
1.51728e-08
4.05413e-09
1.8782e-09
1.10989e-09
8.64388e-10
7.36596e-10
2.46528e-10
8.03149e-11
2.46421e-11
8.24296e-12
3.56118e-12
3.39909e-12
7.04502e-12
1.91164e-11
4.68038e-11
9.46302e-11
1.55167e-10
2.20722e-10
2.39037e-10
1.77552e-10
1.00911e-10
3.70334e-11
5.50949e-12
3.14686e-13
4.02335e-12
2.75847e-11
4.37022e-10
1.17474e-09
2.22856e-09
4.31541e-09
9.69094e-09
2.22315e-08
4.14086e-08
5.90152e-08
6.45928e-08
6.17369e-08
5.12697e-08
3.47953e-08
1.61882e-08
6.50412e-09
2.33377e-09
9.58856e-10
5.7126e-10
1.15142e-11
6.89828e-12
1.10129e-11
3.67161e-11
5.34922e-11
4.89323e-11
3.60368e-11
2.22063e-11
1.02942e-11
2.58989e-12
3.70631e-13
2.80621e-14
8.89703e-16
5.06104e-14
4.37405e-13
1.05904e-12
2.76657e-11
3.88914e-11
1.10515e-11
9.32498e-12
2.0236e-11
3.5944e-11
4.58191e-11
3.03715e-11
1.16152e-11
3.46675e-12
1.1194e-12
1.51509e-13
4.1276e-12
1.89062e-11
7.62318e-11
3.0855e-10
6.90651e-10
1.13092e-09
1.46212e-09
1.70668e-09
1.89843e-09
2.11976e-09
2.40007e-09
2.78661e-09
3.34941e-09
4.34783e-09
5.93218e-09
6.77693e-09
2.23323e-09
1.3526e-09
1.0272e-09
8.65245e-10
1.4124e-10
6.69785e-11
2.01983e-11
7.72288e-12
6.26159e-12
8.85651e-12
2.17051e-11
5.45008e-11
1.17048e-10
2.30947e-10
4.31525e-10
6.91134e-10
9.84929e-10
1.14136e-09
9.54999e-10
6.69625e-10
3.63079e-10
1.32541e-10
3.45474e-11
3.50229e-12
1.33277e-12
3.19755e-11
3.4891e-10
1.33503e-09
2.50532e-09
4.84746e-09
1.06943e-08
2.11562e-08
3.29806e-08
3.89158e-08
3.79028e-08
2.99738e-08
1.75446e-08
8.09743e-09
4.35471e-09
2.14009e-09
1.39748e-09
2.70666e-11