/*--------------------------------*- C++ -*----------------------------------*\
| =========                 |                                                 |
| \\      /  F ield         | OpenFOAM: The Open Source CFD Toolbox           |
|  \\    /   O peration     | Version:  v1912                                 |
|   \\  /    A nd           | Website:  www.openfoam.com                      |
|    \\/     M anipulation  |                                                 |
\*---------------------------------------------------------------------------*/
FoamFile
{
    version     2.0;
    format      ascii;
    class       volScalarField;
    location    "70";
    object      omega;
}
// * * * * * * * * * * * * * * * * * * * * * * * * * * * * * * * * * * * * * //

dimensions      [0 0 -1 0 0 0 0];


internalField   nonuniform List<scalar> 
14268
(
0.00901233
0.00900777
0.00900706
0.00901017
0.00901486
0.0090216
0.00902896
0.00903611
0.00904216
0.0090469
0.00905144
0.00905581
0.0090603
0.0090652
0.0090706
0.00907662
0.00908718
0.00910218
0.0091206
0.00914258
0.00916446
0.00918617
0.00920644
0.00922362
0.00923726
0.00924818
0.00925755
0.00926738
0.00927847
0.00928977
0.0092984
0.00930176
0.00929939
0.00929218
0.00928217
0.00927271
0.00926317
0.00925622
0.00925323
0.00925434
0.00926148
0.00927205
0.00928619
0.00930099
0.0093146
0.00932538
0.00933358
0.00934093
0.00934749
0.00935613
0.00936842
0.00938051
0.00939256
0.0094041
0.00941234
0.00941688
0.00941708
0.00941618
0.00941489
0.00941471
0.00941287
0.00941191
0.00940901
0.009407
0.00940451
0.00940713
0.00941287
0.00942284
0.00943481
0.00944929
0.00946463
0.00948103
0.00949789
0.00951433
0.00953051
0.00954534
0.00955987
0.00957392
0.00958861
0.0096063
0.00963144
0.00966856
0.00971918
0.00975096
0.00979005
0.00978507
0.106996
0.10916
0.111443
0.113791
0.116125
0.118387
0.120526
0.12251
0.12432
0.125978
0.127449
0.128714
0.129784
0.130526
0.131017
0.131134
0.130928
0.130431
0.12963
0.128567
0.127269
0.125833
0.124288
0.122702
0.121089
0.119494
0.117933
0.116422
0.114983
0.113659
0.112551
0.11178
0.111453
0.111583
0.112231
0.113484
0.115334
0.117697
0.120449
0.12342
0.126435
0.129319
0.131855
0.133933
0.135546
0.136621
0.137198
0.137197
0.136765
0.135949
0.134925
0.133954
0.132956
0.131988
0.131224
0.130515
0.130119
0.130082
0.130239
0.130793
0.131317
0.131938
0.132436
0.13275
0.132834
0.132732
0.132394
0.131896
0.131169
0.130331
0.129375
0.128355
0.127328
0.126313
0.125352
0.124438
0.123579
0.122717
0.121864
0.120902
0.119858
0.11878
0.118297
0.11897
0.121264
0.12394
0.165531
0.166616
0.167729
0.168853
0.169939
0.170973
0.171928
0.172782
0.173539
0.174217
0.174804
0.175303
0.175713
0.175993
0.176171
0.17622
0.176147
0.17597
0.175664
0.175253
0.174749
0.174183
0.173565
0.172896
0.172192
0.171471
0.17076
0.170073
0.169425
0.168831
0.16834
0.168017
0.167917
0.168031
0.168371
0.168983
0.169854
0.170927
0.172128
0.173369
0.174553
0.175587
0.176412
0.177018
0.177445
0.177696
0.177803
0.177743
0.177566
0.177283
0.176927
0.17658
0.17622
0.175865
0.175581
0.175327
0.175187
0.17518
0.175267
0.175481
0.175692
0.17592
0.176104
0.176219
0.17626
0.17624
0.176148
0.175993
0.175753
0.175466
0.175139
0.174791
0.174446
0.174109
0.173791
0.173487
0.17319
0.172884
0.172564
0.172202
0.171822
0.171496
0.171421
0.171795
0.172913
0.173489
0.182899
0.183326
0.18377
0.184233
0.184677
0.185106
0.185513
0.185871
0.186179
0.186452
0.186684
0.186883
0.18704
0.18715
0.187217
0.187245
0.187233
0.187199
0.187118
0.186998
0.186847
0.186662
0.186444
0.186166
0.185839
0.185476
0.185111
0.184759
0.184429
0.184128
0.18388
0.183719
0.183673
0.183708
0.183814
0.184009
0.184294
0.184651
0.185058
0.185491
0.185895
0.186211
0.186424
0.186532
0.186593
0.186598
0.186577
0.186519
0.186437
0.18634
0.186214
0.186081
0.185941
0.1858
0.185683
0.185591
0.185538
0.185533
0.185581
0.185658
0.18574
0.185811
0.185867
0.185894
0.185903
0.185899
0.185879
0.18583
0.185751
0.18565
0.185538
0.185424
0.185317
0.185219
0.185129
0.185044
0.184959
0.184868
0.184766
0.184652
0.184539
0.184458
0.184458
0.184612
0.18511
0.185533
0.188609
0.188778
0.188968
0.18918
0.18939
0.189603
0.189809
0.189982
0.190123
0.19025
0.190361
0.190461
0.19054
0.190601
0.190641
0.190668
0.190681
0.190689
0.190686
0.190663
0.190636
0.190581
0.190494
0.190341
0.190138
0.189891
0.189639
0.189388
0.189153
0.188933
0.188741
0.18861
0.188559
0.188552
0.188563
0.188595
0.188655
0.188751
0.188878
0.189047
0.189207
0.189311
0.189344
0.189306
0.189257
0.189184
0.18911
0.189037
0.188971
0.188918
0.188846
0.188761
0.188675
0.188585
0.188503
0.188446
0.188407
0.188386
0.188411
0.188423
0.18845
0.188441
0.188434
0.188404
0.18838
0.188352
0.188337
0.188314
0.18828
0.188231
0.188182
0.188137
0.188103
0.18808
0.188064
0.188052
0.188032
0.188016
0.187983
0.18795
0.187908
0.18788
0.187879
0.187968
0.188255
0.188593
0.191074
0.191169
0.19129
0.191443
0.191615
0.1918
0.191968
0.192099
0.192198
0.192288
0.192369
0.192445
0.1925
0.192555
0.192594
0.19263
0.192652
0.192672
0.192682
0.192672
0.192666
0.192607
0.192527
0.192382
0.192189
0.191957
0.191718
0.191475
0.19124
0.191016
0.190827
0.190692
0.19063
0.190584
0.190546
0.190517
0.190507
0.190529
0.190594
0.190715
0.190847
0.190925
0.190945
0.19088
0.190792
0.190681
0.190566
0.190469
0.190385
0.190314
0.190229
0.190129
0.190014
0.189896
0.189791
0.189707
0.189643
0.189596
0.189604
0.189598
0.189612
0.189577
0.189545
0.189483
0.189431
0.189375
0.189342
0.189311
0.189277
0.189234
0.189188
0.189148
0.18912
0.189105
0.189097
0.1891
0.189103
0.189116
0.189112
0.189113
0.189099
0.189092
0.189118
0.189251
0.189532
0.189751
0.192787
0.192895
0.193038
0.193224
0.193441
0.193672
0.193868
0.194017
0.194123
0.194217
0.194292
0.194373
0.194406
0.194463
0.194502
0.19455
0.194577
0.194609
0.194624
0.1946
0.194569
0.194473
0.194359
0.194183
0.193959
0.193704
0.193428
0.193141
0.192868
0.192609
0.192383
0.192221
0.19211
0.192024
0.191959
0.191906
0.19189
0.191923
0.192014
0.192171
0.192363
0.192501
0.192549
0.192488
0.192374
0.192232
0.192076
0.191937
0.191825
0.191716
0.191593
0.191451
0.191288
0.191128
0.190975
0.190859
0.190758
0.19068
0.190665
0.190648
0.190656
0.19061
0.190565
0.190474
0.190384
0.190281
0.190212
0.190143
0.190095
0.190048
0.189992
0.189939
0.1899
0.189872
0.189859
0.189861
0.18987
0.189892
0.189897
0.189902
0.189882
0.189844
0.189848
0.189949
0.190198
0.190558
0.194515
0.194664
0.194869
0.195138
0.195448
0.195774
0.196042
0.196254
0.196406
0.196529
0.196629
0.196742
0.196806
0.196895
0.19697
0.197032
0.197046
0.197064
0.197035
0.196961
0.196856
0.196675
0.196464
0.196224
0.195926
0.195594
0.195265
0.194923
0.194579
0.194251
0.193958
0.193764
0.193609
0.193492
0.1934
0.193341
0.193346
0.193429
0.193597
0.193855
0.194183
0.194453
0.194614
0.194622
0.194531
0.19437
0.194172
0.193982
0.193808
0.193626
0.193411
0.193198
0.192945
0.192692
0.192453
0.192248
0.19208
0.191965
0.191925
0.191902
0.191912
0.191862
0.191806
0.191706
0.191601
0.191472
0.191366
0.19127
0.191177
0.191123
0.191041
0.190962
0.190898
0.190827
0.190785
0.190776
0.190781
0.190793
0.190812
0.190811
0.190784
0.190721
0.190705
0.190768
0.190979
0.191366
0.196506
0.196768
0.197118
0.197555
0.198043
0.198531
0.198927
0.199255
0.199506
0.19971
0.199868
0.200044
0.200163
0.200299
0.200415
0.200467
0.200461
0.200434
0.200339
0.200186
0.199987
0.199702
0.19935
0.19899
0.198591
0.198165
0.197722
0.197269
0.196828
0.196407
0.196023
0.195699
0.195429
0.195237
0.195122
0.19508
0.195133
0.195313
0.195628
0.196084
0.196652
0.197149
0.197487
0.197628
0.197596
0.19743
0.197194
0.196915
0.196625
0.196309
0.195954
0.195629
0.195259
0.194905
0.194575
0.194268
0.194016
0.193836
0.193744
0.193736
0.193766
0.19375
0.193706
0.193616
0.193494
0.193337
0.193158
0.192968
0.192793
0.192635
0.192503
0.192367
0.192253
0.192149
0.192057
0.192016
0.191994
0.191979
0.191978
0.19195
0.191898
0.191803
0.191739
0.191771
0.191939
0.192339
0.199069
0.199522
0.200099
0.20079
0.201542
0.202258
0.20285
0.203354
0.20376
0.204101
0.204366
0.204632
0.204843
0.205028
0.205207
0.205257
0.205261
0.205176
0.204985
0.204707
0.204316
0.203842
0.203276
0.20272
0.202124
0.201493
0.20089
0.200271
0.199672
0.199114
0.198566
0.198092
0.197699
0.197434
0.1973
0.197296
0.197439
0.197762
0.1983
0.199053
0.199948
0.200754
0.201361
0.201695
0.201772
0.20161
0.201285
0.200875
0.200411
0.199882
0.199319
0.198834
0.198327
0.197809
0.197318
0.196913
0.196588
0.196372
0.196268
0.196277
0.196354
0.196376
0.196378
0.19631
0.196194
0.196004
0.195762
0.195474
0.195173
0.194903
0.194673
0.194449
0.194243
0.19405
0.193875
0.193779
0.19371
0.19366
0.193645
0.193605
0.193516
0.193352
0.193157
0.193101
0.193181
0.193547
0.20245
0.203164
0.204044
0.20507
0.206162
0.207179
0.208052
0.208803
0.209433
0.209991
0.210458
0.210893
0.211285
0.211577
0.211865
0.211971
0.21197
0.211794
0.211486
0.211014
0.210371
0.209642
0.208754
0.207856
0.206932
0.206014
0.205122
0.204246
0.203388
0.20258
0.201786
0.201128
0.200598
0.200264
0.200138
0.200181
0.200455
0.201009
0.201889
0.203084
0.204468
0.20576
0.206798
0.207421
0.207645
0.207469
0.207052
0.206414
0.205637
0.204722
0.203795
0.203053
0.202353
0.201678
0.201097
0.200536
0.200122
0.199889
0.199743
0.199852
0.200026
0.200169
0.200277
0.20028
0.200179
0.199944
0.19959
0.199141
0.198648
0.198168
0.197741
0.197347
0.196982
0.19665
0.196337
0.19616
0.196019
0.195906
0.195865
0.195827
0.195724
0.19552
0.195225
0.19498
0.194939
0.195212
0.206906
0.207967
0.209262
0.210747
0.212316
0.213773
0.215072
0.216208
0.217191
0.218114
0.218929
0.219678
0.220403
0.220911
0.221433
0.221722
0.221744
0.22148
0.220936
0.220137
0.219031
0.217856
0.216442
0.215031
0.213583
0.212194
0.210833
0.209576
0.208375
0.207238
0.206144
0.205263
0.20459
0.204181
0.204025
0.204148
0.204618
0.205524
0.206943
0.208863
0.211102
0.21325
0.21503
0.216151
0.216765
0.216681
0.216099
0.215073
0.213778
0.212193
0.210573
0.209275
0.208129
0.207032
0.206135
0.205441
0.204983
0.204778
0.204793
0.205055
0.205457
0.205824
0.206152
0.206305
0.206252
0.205944
0.205394
0.204678
0.203864
0.203079
0.202403
0.201764
0.201159
0.200611
0.200077
0.199743
0.199478
0.199263
0.199134
0.199008
0.198807
0.198469
0.198015
0.197522
0.197266
0.197454
0.212795
0.214394
0.216337
0.218555
0.22086
0.223034
0.225027
0.226811
0.228423
0.23002
0.231512
0.23296
0.234443
0.235547
0.236621
0.237284
0.23734
0.236793
0.235713
0.234116
0.232039
0.229945
0.227616
0.225384
0.223171
0.22093
0.218742
0.216686
0.214801
0.213129
0.21156
0.210364
0.209506
0.209105
0.209102
0.209478
0.210401
0.21206
0.214568
0.21784
0.221685
0.225482
0.228681
0.230988
0.23219
0.23235
0.231383
0.229561
0.227158
0.224189
0.221268
0.219048
0.21714
0.215337
0.213873
0.212837
0.212328
0.212328
0.212499
0.213269
0.214123
0.215007
0.215772
0.216261
0.216353
0.215927
0.214972
0.2137
0.212236
0.210804
0.209547
0.208424
0.207406
0.206513
0.205589
0.205021
0.204574
0.204186
0.20393
0.203693
0.203384
0.202919
0.202277
0.201579
0.201095
0.201157
0.221074
0.223583
0.226636
0.230136
0.233862
0.237511
0.240996
0.244241
0.247345
0.250566
0.253724
0.256991
0.260539
0.263389
0.266135
0.268025
0.268039
0.266331
0.263313
0.25919
0.254326
0.249689
0.245028
0.240911
0.237217
0.233722
0.230259
0.227162
0.22436
0.222102
0.220104
0.218612
0.217588
0.217119
0.217224
0.21812
0.219953
0.223039
0.227539
0.233469
0.240658
0.248365
0.255343
0.260516
0.263845
0.265038
0.263272
0.259415
0.254036
0.247191
0.240503
0.235641
0.232032
0.22899
0.226635
0.225048
0.224491
0.224845
0.225606
0.227214
0.229282
0.231445
0.233498
0.234988
0.235758
0.235238
0.233285
0.230485
0.227297
0.224285
0.221721
0.21957
0.217722
0.216166
0.214739
0.213874
0.213198
0.212572
0.212063
0.211546
0.210906
0.210063
0.209026
0.207995
0.207307
0.207372
0.227555
0.230849
0.234906
0.239645
0.244731
0.249905
0.255137
0.260396
0.265937
0.272388
0.279635
0.288407
0.298904
0.308703
0.317861
0.323595
0.323155
0.318117
0.309926
0.299482
0.28806
0.277701
0.267993
0.259811
0.253118
0.24729
0.24197
0.237143
0.232834
0.229564
0.226942
0.225148
0.223941
0.223586
0.22379
0.225133
0.227813
0.232213
0.238536
0.246939
0.257398
0.269367
0.281505
0.29323
0.304773
0.313811
0.3171
0.312753
0.301667
0.286317
0.271024
0.259569
0.251197
0.244898
0.240455
0.237771
0.236963
0.237716
0.239676
0.243409
0.248338
0.254627
0.261144
0.266669
0.269743
0.269159
0.264912
0.258415
0.25096
0.243922
0.238066
0.233416
0.22966
0.226701
0.22414
0.222595
0.221465
0.220455
0.219555
0.218654
0.217644
0.21643
0.214936
0.213624
0.212749
0.212854
0.231716
0.23562
0.240507
0.246316
0.252758
0.259719
0.267354
0.275784
0.285492
0.297503
0.311621
0.329108
0.349281
0.3676
0.384032
0.394401
0.392701
0.38235
0.366028
0.346264
0.32536
0.306831
0.290158
0.276791
0.266494
0.258181
0.250977
0.244863
0.239475
0.235283
0.231874
0.22964
0.228114
0.22763
0.228066
0.229782
0.233141
0.23854
0.246348
0.256849
0.270448
0.287414
0.307124
0.330111
0.354443
0.373919
0.3818
0.375845
0.358871
0.334124
0.308717
0.288793
0.274021
0.262865
0.255086
0.250606
0.249679
0.25109
0.254986
0.261915
0.270632
0.281961
0.293808
0.303353
0.309096
0.308808
0.302047
0.291287
0.278581
0.266353
0.256091
0.247981
0.241653
0.236714
0.232667
0.23022
0.228495
0.226938
0.22555
0.224176
0.222731
0.221153
0.219329
0.217743
0.216805
0.216889
0.236698
0.241443
0.247574
0.25518
0.264247
0.275
0.287884
0.3031
0.321205
0.343344
0.368849
0.399825
0.433985
0.463965
0.490927
0.508916
0.504475
0.48536
0.455153
0.420257
0.383804
0.351643
0.323235
0.300846
0.284336
0.271771
0.261408
0.253026
0.246242
0.241308
0.23734
0.234696
0.233083
0.232696
0.233506
0.23583
0.239982
0.246548
0.256375
0.270181
0.289354
0.315477
0.349552
0.390303
0.429914
0.457089
0.464633
0.453925
0.43125
0.397873
0.361055
0.331367
0.309643
0.2926
0.280325
0.273098
0.271701
0.274076
0.280509
0.291497
0.30555
0.322579
0.339862
0.353838
0.362592
0.36268
0.353014
0.336955
0.317636
0.298424
0.281944
0.268773
0.258501
0.250549
0.244314
0.240636
0.238146
0.235947
0.233891
0.231802
0.229644
0.227353
0.224813
0.222696
0.221528
0.221678
0.24262
0.24868
0.256939
0.267913
0.282182
0.300477
0.323368
0.350585
0.382441
0.420476
0.464091
0.518204
0.57769
0.630038
0.677964
0.711168
0.700793
0.666132
0.609831
0.549006
0.485874
0.429751
0.380165
0.341503
0.313612
0.293474
0.277664
0.265259
0.255586
0.249203
0.244576
0.241637
0.239833
0.239491
0.240447
0.243278
0.248138
0.256171
0.269183
0.288779
0.317783
0.35925
0.41333
0.473653
0.528205
0.565594
0.579457
0.56828
0.537079
0.490828
0.438416
0.393887
0.360484
0.335407
0.317411
0.306699
0.304551
0.308189
0.318149
0.3346
0.356436
0.383188
0.411485
0.432347
0.446361
0.445808
0.431462
0.407314
0.378486
0.348865
0.322766
0.30161
0.284953
0.271785
0.261538
0.25553
0.25156
0.248211
0.24513
0.241996
0.238835
0.235606
0.232113
0.229295
0.227826
0.228203
0.250044
0.258381
0.270449
0.287685
0.3117
0.343427
0.382937
0.428874
0.481541
0.544534
0.618257
0.712546
0.813709
0.90182
0.985478
1.04779
1.02784
0.967557
0.864057
0.761342
0.655505
0.560079
0.474765
0.407638
0.35977
0.32616
0.301116
0.282412
0.268066
0.258576
0.252195
0.248678
0.246786
0.246615
0.247897
0.251421
0.257581
0.268624
0.287173
0.316412
0.36101
0.424249
0.502661
0.585573
0.66086
0.715509
0.741869
0.73018
0.686055
0.620963
0.546855
0.481434
0.432598
0.396225
0.370457
0.355227
0.352138
0.357801
0.372993
0.397385
0.431794
0.47557
0.520088
0.553114
0.569165
0.567126
0.542981
0.507234
0.46611
0.42265
0.383177
0.35086
0.325354
0.304532
0.288264
0.278583
0.272181
0.266917
0.262131
0.257277
0.252467
0.247712
0.242662
0.238321
0.236157
0.236682
0.260045
0.272274
0.291153
0.319655
0.360155
0.413357
0.478447
0.552897
0.638281
0.743498
0.870742
1.03484
1.20275
1.3467
1.48733
1.59566
1.5619
1.45929
1.27337
1.10647
0.936248
0.779057
0.635553
0.520339
0.437422
0.379933
0.338176
0.308071
0.286178
0.272261
0.262957
0.257826
0.255215
0.255102
0.257071
0.261839
0.270483
0.286552
0.313556
0.356918
0.423646
0.515102
0.623355
0.739449
0.852173
0.939309
0.982226
0.967315
0.901922
0.806124
0.70066
0.606664
0.536315
0.484117
0.446616
0.424788
0.420624
0.429384
0.451844
0.488105
0.54543
0.621944
0.6948
0.739247
0.761464
0.751721
0.70589
0.647847
0.591406
0.528938
0.469912
0.421771
0.384006
0.352967
0.328042
0.312961
0.302904
0.294796
0.287458
0.279976
0.272549
0.265458
0.258106
0.251531
0.248192
0.248882
0.274198
0.293073
0.323752
0.370786
0.437093
0.523046
0.62738
0.748051
0.891545
1.07196
1.29395
1.57608
1.85796
2.09921
2.31532
2.47842
2.41037
2.23096
1.90913
1.64571
1.38399
1.13611
0.902749
0.709575
0.566024
0.468157
0.399329
0.349196
0.313086
0.291326
0.278082
0.271189
0.267631
0.267324
0.269816
0.276375
0.288836
0.311774
0.350687
0.41387
0.511156
0.640867
0.793151
0.969187
1.15255
1.30141
1.38097
1.36284
1.24545
1.08332
0.920688
0.783885
0.684798
0.611117
0.556992
0.525776
0.519449
0.533201
0.567559
0.621718
0.722772
0.862716
0.987435
1.05286
1.0871
1.05484
0.964671
0.849986
0.773152
0.682596
0.592158
0.520201
0.466303
0.422525
0.386697
0.363957
0.348693
0.336481
0.325455
0.314174
0.302998
0.292471
0.28148
0.271168
0.265773
0.266501
0.296331
0.327028
0.377729
0.454811
0.56273
0.704116
0.881128
1.09568
1.36225
1.71162
2.16861
2.75277
3.35887
3.94294
4.39109
4.44081
4.10316
3.58599
2.94963
2.48958
2.10197
1.72203
1.35738
1.04292
0.789855
0.614248
0.497792
0.416508
0.356763
0.319994
0.298234
0.287854
0.283204
0.283316
0.287308
0.297008
0.315214
0.348285
0.404555
0.496656
0.63978
0.830835
1.06589
1.36149
1.69055
1.97698
2.14222
2.11826
1.89235
1.5692
1.26841
1.03406
0.892787
0.797211
0.723226
0.683223
0.67704
0.700948
0.756457
0.835635
1.02731
1.28905
1.50695
1.62249
1.70409
1.65729
1.44901
1.18714
1.06834
0.931404
0.777271
0.657034
0.578406
0.519793
0.471129
0.439233
0.417461
0.400011
0.384215
0.367712
0.351068
0.335352
0.318753
0.302228
0.293234
0.29382
0.331527
0.381784
0.46489
0.590811
0.769678
1.00913
1.31299
1.68978
2.16807
2.76497
3.53275
4.70556
6.02823
7.54898
9.47426
10.4492
9.99532
7.9924
5.6465
4.07944
3.27152
2.64464
2.1157
1.64229
1.19857
0.872734
0.663652
0.527663
0.430637
0.36973
0.332695
0.314853
0.307029
0.307021
0.312872
0.327195
0.353857
0.401284
0.481279
0.614348
0.830134
1.13334
1.53752
2.10785
2.84838
3.58789
4.11914
3.95966
3.30243
2.51343
1.92215
1.45796
1.19737
1.06417
0.971293
0.928158
0.926769
0.966119
1.05912
1.17079
1.53029
2.00971
2.40013
2.68748
2.96442
2.94032
2.45439
1.83135
1.61728
1.39354
1.1043
0.863455
0.729154
0.647309
0.584475
0.54284
0.513639
0.491005
0.47002
0.447728
0.424406
0.401848
0.377491
0.351598
0.336897
0.337096
0.385716
0.466476
0.600492
0.804274
1.09331
1.47286
1.94697
2.50866
3.16377
4.02416
4.87288
6.86994
9.57945
10.7478
11.9116
13.3176
14.3042
15.3923
15.2027
11.6785
6.78954
4.27963
3.30669
2.6722
1.92053
1.32174
0.940841
0.702087
0.543038
0.445062
0.384997
0.35563
0.342546
0.341993
0.350087
0.370503
0.408447
0.474554
0.583832
0.775493
1.11433
1.61613
2.31061
3.28102
4.56881
6.6485
9.16262
10.554
7.95445
4.98765
3.17693
2.2526
1.72978
1.46589
1.31333
1.26832
1.29254
1.37252
1.55862
1.78596
2.50033
3.57043
4.77517
6.45735
7.80886
7.29867
5.19369
3.26738
2.69949
2.26181
1.74049
1.22919
0.94953
0.8105
0.724173
0.669689
0.634615
0.607802
0.583261
0.556209
0.527134
0.497569
0.464127
0.425555
0.401608
0.400239
0.468129
0.596028
0.808017
1.12512
1.55968
2.11456
2.73791
3.49819
3.97774
6.91508
9.27158
13.5594
17.4749
18.2208
17.5524
19.9344
18.3175
18.8368
19.5073
20.3137
20.5323
12.3007
6.29967
4.4673
3.13627
2.08767
1.41818
0.990405
0.718076
0.557953
0.461596
0.414513
0.39344
0.392147
0.403217
0.431529
0.483912
0.573472
0.718671
1.00294
1.54915
2.36818
3.41533
4.68781
6.96219
36.2494
49.0661
31.7603
9.45957
10.1408
7.50745
3.89498
2.77319
2.22763
1.94767
1.84718
1.90255
2.06232
2.4212
2.80215
3.96681
6.03582
9.01209
14.7438
20.0972
23.2319
21.9735
10.511
6.16313
3.80147
2.90945
1.94705
1.3492
1.05509
0.90269
0.821547
0.7752
0.742873
0.715736
0.686601
0.654417
0.620603
0.579816
0.528132
0.491471
0.486796
0.592294
0.791413
1.11567
1.5897
2.23599
3.01896
3.66474
4.94926
8.17277
11.2273
14.1051
17.272
18.4392
12.9841
11.9822
12.3792
14.0991
17.9906
22.4749
25.3142
29.6358
31.0635
20.8697
11.0282
5.32693
3.30165
2.22542
1.4831
1.00593
0.731455
0.573704
0.498392
0.46571
0.46312
0.478199
0.516269
0.586809
0.706668
0.903119
1.34381
2.22449
3.49502
4.94963
8.89463
17.9688
26.0236
17.4104
7.87927
8.95276
10.603
10.9422
10.8612
5.85316
3.95669
3.37485
2.93876
2.94515
3.125
3.58953
4.13037
5.48653
11.8188
16.5568
26.4765
40.1982
32.5426
37.2854
40.7332
32.7644
9.10343
4.95221
3.2358
2.13349
1.52576
1.20841
1.05044
0.967734
0.916905
0.879377
0.843154
0.806614
0.770049
0.724157
0.661349
0.608836
0.598974
0.777908
1.08292
1.57562
2.3226
3.39147
4.04493
6.63375
8.86611
10.3801
11.7084
13.2099
13.4293
11.7041
7.74624
7.01871
6.923
7.43301
8.78379
12.1834
18.4361
32.375
46.5901
55.3806
25.4253
15.4579
5.47562
3.52095
2.27868
1.49382
1.01488
0.741599
0.616862
0.564757
0.561449
0.582167
0.633427
0.727789
0.893173
1.18132
1.8822
3.25646
5.13152
7.55513
13.1119
15.4385
9.51971
5.58136
5.29866
6.37735
8.29426
11.1451
14.7296
21.5065
19.4705
12.5647
7.91037
6.12169
5.25475
5.14506
8.85278
9.48549
11.3437
13.4435
15.9739
17.961
24.7347
39.7052
77.1397
47.4673
14.7467
8.85858
5.63103
3.53048
2.4225
1.82058
1.50047
1.33352
1.22759
1.14994
1.08208
1.0192
0.969344
0.910806
0.834139
0.766163
0.750661
1.05876
1.53487
2.35715
3.69479
4.71462
7.2672
8.36215
9.23645
9.96587
10.3592
9.62351
7.28631
5.08227
3.84947
3.40604
3.35353
3.53508
4.04326
5.31658
7.6061
12.4684
28.0898
88.9134
35.2384
45.8027
16.5644
6.03337
3.46551
2.27881
1.50429
1.0199
0.794524
0.70422
0.695785
0.725836
0.796223
0.928983
1.1779
1.63816
2.73684
4.66177
6.85492
17.4426
11.6669
7.9362
4.06766
3.49398
3.79163
4.46877
5.52942
7.58255
11.8465
20.1402
41.8191
129.607
79.3002
83.9007
52.1251
12.7155
9.35049
9.66448
9.6729
8.47953
6.92716
6.09781
6.92722
10.699
19.6039
32.8834
37.208
9.76569
8.52297
6.54406
4.0434
2.93724
2.37349
2.09955
1.91132
1.75321
1.60256
1.4538
1.33355
1.21713
1.1047
1.01979
0.99799
1.5089
2.34293
3.79245
5.36257
11.1101
8.07846
8.42489
8.57633
8.1946
6.96642
4.98991
3.55697
2.72097
2.27888
2.05198
1.98386
2.02671
2.20658
2.70186
3.49934
4.85194
7.39634
11.821
25.8262
63.1022
42.4215
21.2613
5.51298
3.41158
2.30529
1.50727
1.09534
0.915639
0.889735
0.928738
1.0343
1.23956
1.64551
2.40595
3.96786
6.24719
38.3476
12.05
7.85179
3.84015
2.86056
2.82353
3.03196
3.43784
4.04543
4.99988
6.90015
10.5015
17.2534
26.274
26.984
26.6457
13.7608
9.80987
9.5295
8.52696
5.92371
3.81318
3.1797
3.06908
3.36993
3.96944
5.4622
4.97092
5.61166
8.78021
8.94547
8.45302
7.34256
5.32086
3.99911
3.55087
3.30531
3.09773
2.88877
2.61292
2.27391
1.86694
1.60505
1.46145
1.41573
2.34232
3.8417
5.83601
40.1351
13.2542
7.73841
7.6413
6.82692
5.20902
3.71716
2.70217
2.0988
1.75922
1.54598
1.4204
1.37607
1.38352
1.47155
1.72127
2.06905
2.61068
3.61012
5.32833
9.07291
39.1522
72.8309
37.5877
19.4547
5.98975
3.41068
2.32832
1.63019
1.27581
1.20176
1.24349
1.41149
1.75007
2.41386
3.62981
5.80152
28.4235
31.7144
8.41158
4.00096
2.46574
2.14576
2.11643
2.23548
2.50104
2.88997
3.38222
4.20319
5.33545
6.65915
8.02682
9.20014
9.90069
9.19716
8.63892
7.82888
4.98844
2.91949
2.18648
2.00172
2.05023
2.28638
2.58362
3.0981
3.03613
3.51265
4.61029
6.36083
7.72296
8.58841
8.3783
7.70401
7.00421
6.41906
6.10723
6.1267
6.07788
5.63543
4.14476
2.60605
2.17747
2.09004
3.98417
6.32236
36.0914
69.0782
9.76693
6.80809
5.94658
4.31836
2.95391
2.19068
1.71187
1.43197
1.26927
1.14481
1.05386
1.01454
1.00384
1.04353
1.17898
1.36202
1.66401
2.19339
3.00214
4.30781
8.1975
22.8042
48.1533
53.1369
45.4971
5.14971
3.47975
2.53097
1.90887
1.73083
1.76953
2.02957
2.5737
3.61496
5.31152
8.64465
62.4106
14.8342
4.78027
2.45326
1.85915
1.677
1.61922
1.65113
1.78192
2.00854
2.27661
2.75635
3.52135
4.47917
5.57767
6.43635
6.76652
6.64874
6.05109
4.40083
2.67445
1.90978
1.62133
1.51862
1.55984
1.73058
1.92536
2.12331
2.25471
2.62542
3.3165
4.40418
5.9241
7.42723
7.90116
8.46563
9.00708
9.51149
10.4159
12.4922
16.5507
19.911
19.7107
8.11909
3.54211
3.07097
6.77976
20.0104
67.7158
28.4655
6.64814
5.24218
3.79008
2.57888
1.84627
1.4571
1.2139
1.06012
0.964747
0.87898
0.805384
0.769873
0.752027
0.768046
0.843327
0.941649
1.12047
1.43218
1.88187
2.66795
4.07736
9.10562
17.1058
54.9987
201.005
17.7857
4.76719
3.80119
2.95951
2.5872
2.61134
2.99808
3.8257
5.20466
7.03274
56.9072
47.3525
6.84778
2.82941
1.80239
1.50237
1.36465
1.31
1.32141
1.38689
1.50744
1.61541
1.79259
2.11796
2.47774
2.94444
3.50676
3.84513
3.76568
3.32074
2.50085
1.78375
1.4225
1.26142
1.20902
1.24652
1.3642
1.50433
1.61821
1.72936
2.02029
2.48
3.12524
3.98431
5.21687
6.66329
7.53461
8.27867
9.15399
10.5177
13.6079
20.8312
32.5549
92.6898
105.414
22.244
8.19401
11.1462
54.3872
55.5388
10.5707
4.8564
3.40996
2.35592
1.67003
1.26951
1.05503
0.913588
0.816752
0.751557
0.688681
0.630767
0.599619
0.580343
0.58403
0.624353
0.679553
0.788447
0.981534
1.25797
1.77112
2.70294
4.84058
9.16063
28.7966
173.499
102.499
7.29494
5.02263
4.40923
3.95062
3.90732
4.42002
5.43346
6.88317
37.9731
78.8065
18.7844
3.77468
1.94273
1.44206
1.24844
1.14441
1.10138
1.10628
1.14171
1.2151
1.2645
1.32192
1.47671
1.6347
1.81546
2.03817
2.19424
2.19613
2.08528
1.68813
1.31576
1.11779
1.00263
0.956958
0.982081
1.07015
1.1712
1.25658
1.35394
1.57955
1.94527
2.40038
2.90657
3.45778
4.0117
4.54426
5.13651
5.80254
6.53889
7.60296
9.67701
12.4826
16.6821
23.8433
52.3565
171.696
58.4982
51.5707
23.1727
5.35902
3.25347
2.20432
1.55886
1.16655
0.933593
0.801824
0.711242
0.645185
0.598008
0.5522
0.508102
0.48228
0.463993
0.460431
0.478794
0.508883
0.573883
0.693245
0.869069
1.19416
1.82173
2.94379
5.01741
9.93484
18.6484
52.7284
24.1468
6.98972
5.51403
5.53796
5.56784
5.93743
6.69458
30.7293
96.398
50.4284
7.249
2.40105
1.48536
1.19904
1.05831
0.965187
0.927351
0.933198
0.954697
1.0029
1.0258
1.03373
1.12265
1.21358
1.2908
1.38434
1.46432
1.49929
1.46396
1.23021
1.00142
0.85305
0.767968
0.737587
0.760045
0.828329
0.904556
0.960384
1.04051
1.2119
1.49715
1.86287
2.26107
2.6531
2.97162
3.23581
3.52249
3.83841
4.15999
4.57611
5.31728
6.48946
8.18005
11.0009
22.2218
49.7948
64.0417
31.4368
8.24633
3.30669
2.16549
1.4915
1.09893
0.863882
0.717344
0.62967
0.568989
0.523144
0.489121
0.456364
0.423932
0.403343
0.387767
0.379952
0.385471
0.398554
0.434285
0.505752
0.618728
0.839832
1.26708
1.96385
3.11816
5.43427
13.2172
54.9295
64.6217
34.0614
6.87981
5.26859
5.6508
6.78545
25.5861
94.8597
80.5619
18.1278
3.66288
1.70862
1.2186
1.02724
0.899663
0.811624
0.776834
0.779755
0.789202
0.818158
0.821654
0.811247
0.872723
0.944486
0.996714
1.04711
1.08663
1.10839
1.06859
0.908952
0.755144
0.658657
0.605414
0.586756
0.603481
0.654564
0.712285
0.752944
0.805485
0.928535
1.13385
1.39739
1.69585
2.00258
2.25675
2.44022
2.59301
2.69977
2.72653
2.72748
2.84177
3.20361
4.02125
5.72257
8.85698
16.6064
37.5309
12.4088
3.92089
2.18849
1.48479
1.06161
0.816466
0.666768
0.569124
0.50894
0.467204
0.435814
0.411823
0.388293
0.365469
0.350166
0.337598
0.328251
0.327506
0.330401
0.346878
0.38758
0.46008
0.612231
0.906212
1.35987
2.0711
3.30397
5.87265
11.423
21.7916
52.6044
211.822
105.439
43.2732
54.8855
95.8503
88.8983
32.8817
7.04154
2.25391
1.33355
1.0338
0.868788
0.743737
0.658227
0.621158
0.619637
0.623686
0.644424
0.639052
0.622987
0.664471
0.718869
0.757508
0.788287
0.807382
0.816154
0.780661
0.679147
0.581473
0.520977
0.48704
0.475128
0.487422
0.524392
0.566807
0.595633
0.631961
0.720953
0.868523
1.04947
1.24453
1.44184
1.61888
1.7528
1.85604
1.91076
1.85496
1.7453
1.69322
1.77611
2.16015
3.22323
4.93759
6.71807
15.1498
5.28182
2.32156
1.50385
1.06
0.790321
0.630755
0.531072
0.464688
0.423511
0.395056
0.373702
0.357625
0.340871
0.324248
0.312856
0.303074
0.294548
0.29077
0.288858
0.294738
0.316501
0.363047
0.469073
0.676369
0.977376
1.42314
2.17773
3.74551
6.88207
13.3322
25.2842
54.4383
318.436
144.45
112.424
79.7478
40.7319
11.3705
3.30442
1.60712
1.10589
0.872083
0.717489
0.600485
0.523654
0.489294
0.485661
0.486489
0.500947
0.497239
0.48203
0.50755
0.54192
0.564503
0.583929
0.595268
0.602009
0.581213
0.520701
0.460981
0.420939
0.399168
0.39106
0.39946
0.424818
0.454524
0.475786
0.500175
0.56309
0.669647
0.797581
0.926188
1.03809
1.13196
1.20431
1.25798
1.27803
1.2133
1.1088
1.05107
1.06841
1.24451
1.87596
2.91831
3.71073
6.48178
2.68352
1.53607
1.0725
0.787785
0.611194
0.504175
0.437108
0.392095
0.363959
0.344596
0.330184
0.319114
0.307727
0.295974
0.287603
0.279266
0.272073
0.266769
0.26247
0.263394
0.274835
0.305737
0.382091
0.533812
0.739846
1.02018
1.4628
2.38116
4.22648
8.01829
15.4582
32.1063
75.759
81.8715
55.6581
33.3391
14.3116
4.5446
1.95264
1.26837
0.922409
0.720776
0.583031
0.483202
0.421059
0.393791
0.389495
0.388531
0.396998
0.395933
0.384754
0.400856
0.424307
0.438448
0.450972
0.457901
0.462117
0.448512
0.411942
0.373767
0.348658
0.334473
0.329559
0.335502
0.352466
0.372393
0.387212
0.402655
0.444928
0.518855
0.609134
0.697652
0.762051
0.802125
0.830926
0.845601
0.836764
0.779531
0.707982
0.669517
0.6831
0.785509
1.15933
1.79864
2.24268
3.0754
1.61729
1.07984
0.794384
0.60771
0.489856
0.417322
0.37194
0.341121
0.321611
0.30847
0.298712
0.291162
0.283094
0.275387
0.269705
0.263224
0.257105
0.251347
0.245834
0.243799
0.249666
0.27089
0.328065
0.446247
0.597058
0.78183
1.0447
1.55203
2.55455
4.52945
7.64268
12.3667
17.9625
23.4786
20.7616
12.7288
5.55253
2.24681
1.40035
1.034
0.759272
0.588783
0.474418
0.395273
0.348251
0.328066
0.324622
0.322571
0.327337
0.32714
0.319602
0.327269
0.341926
0.351472
0.3596
0.364863
0.367993
0.360108
0.337876
0.313352
0.298087
0.290123
0.287734
0.291889
0.302882
0.315556
0.325259
0.334439
0.361012
0.409382
0.47026
0.532007
0.571433
0.584782
0.59157
0.58601
0.566773
0.524078
0.480916
0.458968
0.471109
0.536747
0.774525
1.17219
1.44873
1.70218
1.09155
0.794392
0.610989
0.486253
0.40658
0.357095
0.326156
0.305162
0.291832
0.283011
0.27664
0.271592
0.266337
0.260707
0.256289
0.251405
0.246153
0.240696
0.234774
0.231418
0.233906
0.248571
0.292114
0.387655