/*--------------------------------*- C++ -*----------------------------------*\
| =========                 |                                                 |
| \\      /  F ield         | OpenFOAM: The Open Source CFD Toolbox           |
|  \\    /   O peration     | Version:  v1912                                 |
|   \\  /    A nd           | Website:  www.openfoam.com                      |
|    \\/     M anipulation  |                                                 |
\*---------------------------------------------------------------------------*/
FoamFile
{
    version     2.0;
    format      ascii;
    class       volScalarField;
    location    "70";
    object      nut;
}
// * * * * * * * * * * * * * * * * * * * * * * * * * * * * * * * * * * * * * //

dimensions      [0 2 -1 0 0 0 0];


internalField   nonuniform List<scalar> 
14268
(
8.61815e-14
8.77794e-14
8.93308e-14
9.08356e-14
9.22938e-14
9.37052e-14
9.50701e-14
9.63886e-14
9.76614e-14
9.88888e-14
1.00072e-13
1.0121e-13
1.02306e-13
1.03359e-13
1.04371e-13
1.05342e-13
1.06274e-13
1.07167e-13
1.08022e-13
1.08841e-13
1.09625e-13
1.10374e-13
1.1109e-13
1.11773e-13
1.12426e-13
1.13049e-13
1.13642e-13
1.14208e-13
1.14747e-13
1.1526e-13
1.15748e-13
1.16213e-13
1.16654e-13
1.17074e-13
1.17472e-13
1.1785e-13
1.1821e-13
1.1855e-13
1.18873e-13
1.19179e-13
1.19469e-13
1.19744e-13
1.20004e-13
1.2025e-13
1.20483e-13
1.20703e-13
1.20912e-13
1.21108e-13
1.21294e-13
1.21469e-13
1.21635e-13
1.21791e-13
1.21939e-13
1.22078e-13
1.22208e-13
1.22332e-13
1.22448e-13
1.22557e-13
1.2266e-13
1.22757e-13
1.22849e-13
1.22934e-13
1.23015e-13
1.2309e-13
1.23161e-13
1.23228e-13
1.23291e-13
1.2335e-13
1.23405e-13
1.23456e-13
1.23505e-13
1.2355e-13
1.23593e-13
1.23632e-13
1.2367e-13
1.23704e-13
1.23737e-13
1.23767e-13
1.23796e-13
1.23822e-13
1.23847e-13
1.2387e-13
1.23892e-13
1.23912e-13
1.23931e-13
1.23948e-13
1.23965e-13
1.2398e-13
1.23994e-13
1.24007e-13
1.24019e-13
1.2403e-13
1.24041e-13
1.24051e-13
1.2406e-13
1.24068e-13
1.24076e-13
1.24083e-13
1.2409e-13
1.24096e-13
1.24102e-13
1.24107e-13
1.24112e-13
1.24117e-13
1.24121e-13
1.24125e-13
1.24128e-13
1.24132e-13
1.24135e-13
1.24137e-13
1.2414e-13
1.24142e-13
1.24145e-13
1.24146e-13
1.24148e-13
1.2415e-13
1.24151e-13
1.24153e-13
1.24154e-13
1.24155e-13
1.24156e-13
1.24157e-13
1.24157e-13
1.24158e-13
1.24159e-13
1.24159e-13
1.24159e-13
1.2416e-13
1.2416e-13
1.24161e-13
1.2416e-13
1.24161e-13
1.2416e-13
1.24161e-13
1.2416e-13
1.24161e-13
1.2416e-13
1.24163e-13
1.24161e-13
1.24165e-13
1.24163e-13
1.24167e-13
1.24166e-13
1.24171e-13
1.2417e-13
1.24173e-13
1.24172e-13
1.24174e-13
1.24173e-13
1.24174e-13
1.24173e-13
1.24174e-13
1.24173e-13
1.24173e-13
1.24172e-13
1.24172e-13
1.24172e-13
1.24172e-13
1.24171e-13
1.24172e-13
1.24173e-13
1.24174e-13
1.24252e-13
1.25764e-13
1.39034e-11
1.41835e-11
1.44561e-11
1.47211e-11
1.49785e-11
1.52282e-11
1.54701e-11
1.57043e-11
1.59308e-11
1.61496e-11
1.63609e-11
1.65646e-11
1.6761e-11
1.695e-11
1.71319e-11
1.73067e-11
1.74746e-11
1.76357e-11
1.77903e-11
1.79385e-11
1.80804e-11
1.82163e-11
1.83462e-11
1.84704e-11
1.85891e-11
1.87025e-11
1.88106e-11
1.89138e-11
1.90121e-11
1.91058e-11
1.9195e-11
1.92799e-11
1.93607e-11
1.94374e-11
1.95104e-11
1.95798e-11
1.96456e-11
1.97081e-11
1.97674e-11
1.98236e-11
1.98768e-11
1.99273e-11
1.99751e-11
2.00204e-11
2.00632e-11
2.01037e-11
2.0142e-11
2.01782e-11
2.02124e-11
2.02447e-11
2.02752e-11
2.0304e-11
2.03312e-11
2.03568e-11
2.03809e-11
2.04037e-11
2.04251e-11
2.04453e-11
2.04643e-11
2.04822e-11
2.0499e-11
2.05148e-11
2.05297e-11
2.05436e-11
2.05568e-11
2.05691e-11
2.05806e-11
2.05915e-11
2.06017e-11
2.06112e-11
2.06201e-11
2.06285e-11
2.06364e-11
2.06437e-11
2.06506e-11
2.0657e-11
2.0663e-11
2.06687e-11
2.06739e-11
2.06788e-11
2.06834e-11
2.06877e-11
2.06917e-11
2.06954e-11
2.06988e-11
2.07021e-11
2.07051e-11
2.07079e-11
2.07105e-11
2.07129e-11
2.07152e-11
2.07173e-11
2.07192e-11
2.0721e-11
2.07227e-11
2.07243e-11
2.07257e-11
2.07271e-11
2.07283e-11
2.07294e-11
2.07305e-11
2.07315e-11
2.07324e-11
2.07332e-11
2.0734e-11
2.07347e-11
2.07354e-11
2.0736e-11
2.07366e-11
2.07371e-11
2.07375e-11
2.0738e-11
2.07384e-11
2.07387e-11
2.07391e-11
2.07394e-11
2.07396e-11
2.07399e-11
2.07401e-11
2.07403e-11
2.07405e-11
2.07407e-11
2.07408e-11
2.07409e-11
2.0741e-11
2.07411e-11
2.07411e-11
2.07413e-11
2.07412e-11
2.07414e-11
2.07412e-11
2.07414e-11
2.07412e-11
2.07415e-11
2.07412e-11
2.07415e-11
2.07412e-11
2.07417e-11
2.07415e-11
2.07421e-11
2.07419e-11
2.07426e-11
2.07424e-11
2.07431e-11
2.0743e-11
2.07435e-11
2.07434e-11
2.07437e-11
2.07435e-11
2.07437e-11
2.07435e-11
2.07436e-11
2.07435e-11
2.07435e-11
2.07434e-11
2.07434e-11
2.07433e-11
2.07433e-11
2.07433e-11
2.07433e-11
2.07436e-11
2.07437e-11
2.07568e-11
2.09997e-11
2.6963e-10
2.75239e-10
2.80703e-10
2.86018e-10
2.91185e-10
2.962e-10
3.01063e-10
3.05774e-10
3.10332e-10
3.14739e-10
3.18995e-10
3.23102e-10
3.27062e-10
3.30876e-10
3.34548e-10
3.38078e-10
3.41471e-10
3.44729e-10
3.47855e-10
3.50852e-10
3.53724e-10
3.56473e-10
3.59105e-10
3.6162e-10
3.64025e-10
3.66321e-10
3.68514e-10
3.70605e-10
3.72599e-10
3.74499e-10
3.76308e-10
3.78031e-10
3.7967e-10
3.81229e-10
3.82711e-10
3.84118e-10
3.85455e-10
3.86724e-10
3.87928e-10
3.8907e-10
3.90152e-10
3.91178e-10
3.92149e-10
3.93069e-10
3.93939e-10
3.94763e-10
3.95541e-10
3.96277e-10
3.96973e-10
3.9763e-10
3.9825e-10
3.98835e-10
3.99388e-10
3.99908e-10
4.004e-10
4.00862e-10
4.01298e-10
4.01709e-10
4.02095e-10
4.02459e-10
4.02801e-10
4.03123e-10
4.03425e-10
4.03709e-10
4.03976e-10
4.04227e-10
4.04462e-10
4.04683e-10
4.0489e-10
4.05084e-10
4.05266e-10
4.05436e-10
4.05596e-10
4.05745e-10
4.05885e-10
4.06016e-10
4.06138e-10
4.06253e-10
4.0636e-10
4.0646e-10
4.06553e-10
4.0664e-10
4.06721e-10
4.06797e-10
4.06867e-10
4.06933e-10
4.06994e-10
4.07051e-10
4.07104e-10
4.07154e-10
4.072e-10
4.07242e-10
4.07282e-10
4.07319e-10
4.07353e-10
4.07385e-10
4.07414e-10
4.07441e-10
4.07467e-10
4.0749e-10
4.07512e-10
4.07532e-10
4.0755e-10
4.07567e-10
4.07583e-10
4.07598e-10
4.07611e-10
4.07623e-10
4.07635e-10
4.07645e-10
4.07655e-10
4.07663e-10
4.07672e-10
4.07679e-10
4.07686e-10
4.07692e-10
4.07697e-10
4.07702e-10
4.07707e-10
4.07711e-10
4.07715e-10
4.07718e-10
4.0772e-10
4.07724e-10
4.07725e-10
4.07728e-10
4.07728e-10
4.07731e-10
4.07729e-10
4.07733e-10
4.0773e-10
4.07734e-10
4.07729e-10
4.07735e-10
4.07729e-10
4.07736e-10
4.07731e-10
4.0774e-10
4.07735e-10
4.07748e-10
4.07743e-10
4.07757e-10
4.07753e-10
4.07768e-10
4.07766e-10
4.07775e-10
4.07773e-10
4.07779e-10
4.07776e-10
4.07779e-10
4.07776e-10
4.07777e-10
4.07775e-10
4.07775e-10
4.07773e-10
4.07773e-10
4.07771e-10
4.07772e-10
4.07771e-10
4.07772e-10
4.07777e-10
4.07779e-10
4.08034e-10
4.12426e-10
1.85294e-09
1.89244e-09
1.93095e-09
1.96843e-09
2.00487e-09
2.04026e-09
2.0746e-09
2.10787e-09
2.14009e-09
2.17124e-09
2.20134e-09
2.23039e-09
2.25841e-09
2.28541e-09
2.31141e-09
2.33642e-09
2.36045e-09
2.38354e-09
2.4057e-09
2.42694e-09
2.44731e-09
2.46681e-09
2.48548e-09
2.50333e-09
2.52039e-09
2.53669e-09
2.55225e-09
2.5671e-09
2.58126e-09
2.59475e-09
2.60761e-09
2.61984e-09
2.63149e-09
2.64256e-09
2.65309e-09
2.6631e-09
2.6726e-09
2.68162e-09
2.69017e-09
2.69829e-09
2.70599e-09
2.71328e-09
2.72018e-09
2.72672e-09
2.73291e-09
2.73877e-09
2.74431e-09
2.74954e-09
2.75449e-09
2.75916e-09
2.76357e-09
2.76774e-09
2.77166e-09
2.77537e-09
2.77886e-09
2.78215e-09
2.78526e-09
2.78818e-09
2.79093e-09
2.79351e-09
2.79595e-09
2.79824e-09
2.80039e-09
2.80241e-09
2.80431e-09
2.80609e-09
2.80777e-09
2.80934e-09
2.81081e-09
2.81219e-09
2.81349e-09
2.8147e-09
2.81584e-09
2.8169e-09
2.81789e-09
2.81883e-09
2.8197e-09
2.82051e-09
2.82127e-09
2.82198e-09
2.82265e-09
2.82326e-09
2.82384e-09
2.82438e-09
2.82488e-09
2.82535e-09
2.82579e-09
2.82619e-09
2.82657e-09
2.82692e-09
2.82725e-09
2.82755e-09
2.82784e-09
2.8281e-09
2.82834e-09
2.82857e-09
2.82878e-09
2.82897e-09
2.82915e-09
2.82932e-09
2.82947e-09
2.82961e-09
2.82974e-09
2.82986e-09
2.82998e-09
2.83008e-09
2.83018e-09
2.83026e-09
2.83034e-09
2.83042e-09
2.83049e-09
2.83055e-09
2.83061e-09
2.83066e-09
2.83071e-09
2.83075e-09
2.83079e-09
2.83083e-09
2.83086e-09
2.83089e-09
2.83091e-09
2.83094e-09
2.83096e-09
2.83098e-09
2.83099e-09
2.83101e-09
2.83101e-09
2.83103e-09
2.83102e-09
2.83104e-09
2.83102e-09
2.83105e-09
2.83102e-09
2.83106e-09
2.83102e-09
2.83107e-09
2.83103e-09
2.8311e-09
2.83106e-09
2.83115e-09
2.83112e-09
2.83121e-09
2.83119e-09
2.83129e-09
2.83128e-09
2.83134e-09
2.83133e-09
2.83136e-09
2.83134e-09
2.83137e-09
2.83135e-09
2.83136e-09
2.83134e-09
2.83134e-09
2.83132e-09
2.83133e-09
2.83131e-09
2.83132e-09
2.83131e-09
2.83132e-09
2.83135e-09
2.83137e-09
2.83312e-09
2.86074e-09
7.29102e-09
7.44647e-09
7.59791e-09
7.74528e-09
7.88853e-09
8.02759e-09
8.16246e-09
8.2931e-09
8.41955e-09
8.54178e-09
8.65986e-09
8.77379e-09
8.88365e-09
8.98946e-09
9.09132e-09
9.18927e-09
9.2834e-09
9.37377e-09
9.4605e-09
9.54364e-09
9.62331e-09
9.69958e-09
9.77257e-09
9.84236e-09
9.90906e-09
9.97275e-09
1.00336e-08
1.00916e-08
1.01469e-08
1.01995e-08
1.02497e-08
1.02975e-08
1.0343e-08
1.03862e-08
1.04273e-08
1.04663e-08
1.05034e-08
1.05386e-08
1.05719e-08
1.06036e-08
1.06336e-08
1.0662e-08
1.0689e-08
1.07145e-08
1.07386e-08
1.07614e-08
1.0783e-08
1.08034e-08
1.08227e-08
1.08409e-08
1.08581e-08
1.08743e-08
1.08896e-08
1.09041e-08
1.09177e-08
1.09305e-08
1.09426e-08
1.0954e-08
1.09647e-08
1.09747e-08
1.09842e-08
1.09931e-08
1.10015e-08
1.10094e-08
1.10168e-08
1.10237e-08
1.10303e-08
1.10364e-08
1.10421e-08
1.10475e-08
1.10525e-08
1.10573e-08
1.10617e-08
1.10658e-08
1.10697e-08
1.10733e-08
1.10767e-08
1.10799e-08
1.10829e-08
1.10856e-08
1.10882e-08
1.10906e-08
1.10929e-08
1.1095e-08
1.10969e-08
1.10988e-08
1.11005e-08
1.1102e-08
1.11035e-08
1.11049e-08
1.11061e-08
1.11073e-08
1.11084e-08
1.11095e-08
1.11104e-08
1.11113e-08
1.11121e-08
1.11128e-08
1.11135e-08
1.11142e-08
1.11148e-08
1.11153e-08
1.11159e-08
1.11163e-08
1.11168e-08
1.11172e-08
1.11175e-08
1.11179e-08
1.11182e-08
1.11185e-08
1.11188e-08
1.1119e-08
1.11192e-08
1.11194e-08
1.11196e-08
1.11198e-08
1.11199e-08
1.11201e-08
1.11202e-08
1.11203e-08
1.11204e-08
1.11205e-08
1.11206e-08
1.11207e-08
1.11207e-08
1.11208e-08
1.11208e-08
1.11209e-08
1.11208e-08
1.11209e-08
1.11208e-08
1.1121e-08
1.11208e-08
1.1121e-08
1.11208e-08
1.1121e-08
1.11209e-08
1.11211e-08
1.1121e-08
1.11213e-08
1.11212e-08
1.11216e-08
1.11215e-08
1.11219e-08
1.11218e-08
1.11221e-08
1.1122e-08
1.11222e-08
1.11221e-08
1.11222e-08
1.11221e-08
1.11221e-08
1.11221e-08
1.11221e-08
1.1122e-08
1.1122e-08
1.1122e-08
1.1122e-08
1.1122e-08
1.1122e-08
1.11221e-08
1.11222e-08
1.11289e-08
1.12261e-08
2.02658e-08
2.06842e-08
2.10912e-08
2.14866e-08
2.18705e-08
2.22425e-08
2.26029e-08
2.29515e-08
2.32885e-08
2.36138e-08
2.39277e-08
2.42302e-08
2.45216e-08
2.48019e-08
2.50715e-08
2.53304e-08
2.5579e-08
2.58175e-08
2.60462e-08
2.62652e-08
2.64748e-08
2.66754e-08
2.68672e-08
2.70505e-08
2.72255e-08
2.73926e-08
2.75519e-08
2.77038e-08
2.78486e-08
2.79865e-08
2.81177e-08
2.82426e-08
2.83613e-08
2.84742e-08
2.85814e-08
2.86833e-08
2.878e-08
2.88717e-08
2.89587e-08
2.90411e-08
2.91193e-08
2.91933e-08
2.92634e-08
2.93298e-08
2.93926e-08
2.94519e-08
2.95081e-08
2.95611e-08
2.96112e-08
2.96586e-08
2.97032e-08
2.97454e-08
2.97852e-08
2.98226e-08
2.9858e-08
2.98913e-08
2.99227e-08
2.99522e-08
2.998e-08
3.00062e-08
3.00308e-08
3.00539e-08
3.00757e-08
3.00961e-08
3.01153e-08
3.01333e-08
3.01502e-08
3.01661e-08
3.0181e-08
3.01949e-08
3.0208e-08
3.02203e-08
3.02317e-08
3.02425e-08
3.02525e-08
3.0262e-08
3.02707e-08
3.0279e-08
3.02867e-08
3.02938e-08
3.03005e-08
3.03068e-08
3.03126e-08
3.03181e-08
3.03231e-08
3.03279e-08
3.03323e-08
3.03364e-08
3.03402e-08
3.03437e-08
3.0347e-08
3.03501e-08
3.03529e-08
3.03556e-08
3.0358e-08
3.03603e-08
3.03624e-08
3.03644e-08
3.03662e-08
3.03679e-08
3.03694e-08
3.03709e-08
3.03722e-08
3.03734e-08
3.03746e-08
3.03756e-08
3.03766e-08
3.03775e-08
3.03783e-08
3.0379e-08
3.03797e-08
3.03804e-08
3.0381e-08
3.03815e-08
3.0382e-08
3.03824e-08
3.03828e-08
3.03832e-08
3.03835e-08
3.03838e-08
3.0384e-08
3.03843e-08
3.03845e-08
3.03847e-08
3.03848e-08
3.0385e-08
3.0385e-08
3.03852e-08
3.03851e-08
3.03854e-08
3.03851e-08
3.03854e-08
3.03851e-08
3.03855e-08
3.03851e-08
3.03856e-08
3.03852e-08
3.03859e-08
3.03855e-08
3.03864e-08
3.03861e-08
3.03871e-08
3.03869e-08
3.03879e-08
3.03877e-08
3.03884e-08
3.03882e-08
3.03886e-08
3.03884e-08
3.03886e-08
3.03884e-08
3.03885e-08
3.03883e-08
3.03884e-08
3.03882e-08
3.03882e-08
3.03881e-08
3.03881e-08
3.03881e-08
3.03881e-08
3.03885e-08
3.03887e-08
3.04059e-08
3.06401e-08
4.41459e-08
4.49943e-08
4.58171e-08
4.66142e-08
4.73858e-08
4.81316e-08
4.88521e-08
4.95473e-08
5.02177e-08
5.08633e-08
5.14849e-08
5.20825e-08
5.2657e-08
5.32086e-08
5.37379e-08
5.42455e-08
5.47319e-08
5.51977e-08
5.56435e-08
5.60698e-08
5.64775e-08
5.68668e-08
5.72386e-08
5.75933e-08
5.79317e-08
5.82543e-08
5.85617e-08
5.88543e-08
5.9133e-08
5.9398e-08
5.96502e-08
5.98898e-08
6.01175e-08
6.03338e-08
6.05391e-08
6.07339e-08
6.09187e-08
6.1094e-08
6.12601e-08
6.14175e-08
6.15665e-08
6.17077e-08
6.18412e-08
6.19676e-08
6.20871e-08
6.22e-08
6.23068e-08
6.24076e-08
6.25029e-08
6.25928e-08
6.26776e-08
6.27576e-08
6.28331e-08
6.29043e-08
6.29713e-08
6.30345e-08
6.3094e-08
6.315e-08
6.32027e-08
6.32523e-08
6.32989e-08
6.33428e-08
6.3384e-08
6.34227e-08
6.34591e-08
6.34932e-08
6.35252e-08
6.35553e-08
6.35835e-08
6.36099e-08
6.36346e-08
6.36578e-08
6.36796e-08
6.36999e-08
6.37189e-08
6.37367e-08
6.37534e-08
6.37689e-08
6.37835e-08
6.37971e-08
6.38097e-08
6.38216e-08
6.38326e-08
6.38429e-08
6.38525e-08
6.38615e-08
6.38698e-08
6.38775e-08
6.38848e-08
6.38915e-08
6.38977e-08
6.39035e-08
6.39089e-08
6.39139e-08
6.39186e-08
6.39229e-08
6.39269e-08
6.39306e-08
6.3934e-08
6.39372e-08
6.39401e-08
6.39429e-08
6.39454e-08
6.39477e-08
6.39499e-08
6.39518e-08
6.39537e-08
6.39553e-08
6.39569e-08
6.39583e-08
6.39596e-08
6.39608e-08
6.39619e-08
6.39629e-08
6.39638e-08
6.39647e-08
6.39654e-08
6.39661e-08
6.39667e-08
6.39673e-08
6.39678e-08
6.39683e-08
6.39686e-08
6.3969e-08
6.39692e-08
6.39696e-08
6.39695e-08
6.397e-08
6.39698e-08
6.39702e-08
6.39698e-08
6.39704e-08
6.39698e-08
6.39705e-08
6.39698e-08
6.39707e-08
6.397e-08
6.39713e-08
6.39705e-08
6.39723e-08
6.39717e-08
6.39735e-08
6.39731e-08
6.3975e-08
6.39748e-08
6.3976e-08
6.39757e-08
6.39764e-08
6.39761e-08
6.39765e-08
6.39761e-08
6.39763e-08
6.39759e-08
6.3976e-08
6.39757e-08
6.39758e-08
6.39755e-08
6.39756e-08
6.39754e-08
6.39756e-08
6.39762e-08
6.39766e-08
6.40095e-08
6.44314e-08
7.98086e-08
8.11712e-08
8.24866e-08
8.37552e-08
8.49779e-08
8.61549e-08
8.72874e-08
8.83757e-08
8.94213e-08
9.04247e-08
9.13872e-08
9.23098e-08
9.31936e-08
9.40396e-08
9.48492e-08
9.56232e-08
9.6363e-08
9.70696e-08
9.77442e-08
9.83878e-08
9.90018e-08
9.9587e-08
1.00145e-07
1.00676e-07
1.01181e-07
1.01662e-07
1.0212e-07
1.02555e-07
1.02969e-07
1.03362e-07
1.03735e-07
1.04089e-07
1.04425e-07
1.04744e-07
1.05046e-07
1.05333e-07
1.05605e-07
1.05862e-07
1.06106e-07
1.06336e-07
1.06555e-07
1.06761e-07
1.06956e-07
1.07141e-07
1.07316e-07
1.0748e-07
1.07636e-07
1.07783e-07
1.07922e-07
1.08053e-07
1.08176e-07
1.08293e-07
1.08403e-07
1.08506e-07
1.08604e-07
1.08695e-07
1.08782e-07
1.08863e-07
1.0894e-07
1.09012e-07
1.09079e-07
1.09143e-07
1.09203e-07
1.09259e-07
1.09312e-07
1.09361e-07
1.09408e-07
1.09451e-07
1.09492e-07
1.0953e-07
1.09566e-07
1.096e-07
1.09631e-07
1.09661e-07
1.09688e-07
1.09714e-07
1.09738e-07
1.09761e-07
1.09782e-07
1.09801e-07
1.0982e-07
1.09837e-07
1.09853e-07
1.09868e-07
1.09882e-07
1.09895e-07
1.09907e-07
1.09918e-07
1.09928e-07
1.09938e-07
1.09947e-07
1.09956e-07
1.09963e-07
1.09971e-07
1.09977e-07
1.09984e-07
1.09989e-07
1.09995e-07
1.1e-07
1.10004e-07
1.10009e-07
1.10012e-07
1.10016e-07
1.10019e-07
1.10023e-07
1.10025e-07
1.10028e-07
1.10031e-07
1.10033e-07
1.10035e-07
1.10037e-07
1.10038e-07
1.1004e-07
1.10042e-07
1.10043e-07
1.10044e-07
1.10045e-07
1.10046e-07
1.10047e-07
1.10048e-07
1.10049e-07
1.10049e-07
1.1005e-07
1.1005e-07
1.10051e-07
1.10051e-07
1.10051e-07
1.10052e-07
1.10051e-07
1.10052e-07
1.10051e-07
1.10052e-07
1.10051e-07
1.10052e-07
1.10051e-07
1.10053e-07
1.10052e-07
1.10054e-07
1.10052e-07
1.10055e-07
1.10054e-07
1.10057e-07
1.10056e-07
1.10059e-07
1.10059e-07
1.10061e-07
1.1006e-07
1.10061e-07
1.10061e-07
1.10061e-07
1.10061e-07
1.10061e-07
1.1006e-07
1.10061e-07
1.1006e-07
1.1006e-07
1.1006e-07
1.1006e-07
1.1006e-07
1.1006e-07
1.10061e-07
1.10062e-07
1.1011e-07
1.10705e-07
1.24163e-07
1.25929e-07
1.27625e-07
1.29253e-07
1.30815e-07
1.32311e-07
1.33745e-07
1.35117e-07
1.36429e-07
1.37684e-07
1.38884e-07
1.40029e-07
1.41123e-07
1.42167e-07
1.43162e-07
1.44112e-07
1.45016e-07
1.45878e-07
1.46699e-07
1.4748e-07
1.48223e-07
1.4893e-07
1.49603e-07
1.50242e-07
1.50849e-07
1.51426e-07
1.51973e-07
1.52493e-07
1.52987e-07
1.53455e-07
1.53899e-07
1.5432e-07
1.54718e-07
1.55096e-07
1.55454e-07
1.55793e-07
1.56114e-07
1.56418e-07
1.56706e-07
1.56977e-07
1.57234e-07
1.57477e-07
1.57707e-07
1.57924e-07
1.58129e-07
1.58322e-07
1.58505e-07
1.58677e-07
1.58839e-07
1.58993e-07
1.59137e-07
1.59274e-07
1.59402e-07
1.59523e-07
1.59637e-07
1.59744e-07
1.59845e-07
1.5994e-07
1.60029e-07
1.60113e-07
1.60192e-07
1.60267e-07
1.60336e-07
1.60402e-07
1.60463e-07
1.60521e-07
1.60575e-07
1.60626e-07
1.60674e-07
1.60718e-07
1.6076e-07
1.60799e-07
1.60836e-07
1.6087e-07
1.60902e-07
1.60932e-07
1.60961e-07
1.60987e-07
1.61011e-07
1.61034e-07
1.61056e-07
1.61076e-07
1.61094e-07
1.61111e-07
1.61128e-07
1.61143e-07
1.61157e-07
1.6117e-07
1.61182e-07
1.61193e-07
1.61204e-07
1.61214e-07
1.61223e-07
1.61231e-07
1.61239e-07
1.61246e-07
1.61253e-07
1.61259e-07
1.61265e-07
1.6127e-07
1.61275e-07
1.6128e-07
1.61284e-07
1.61288e-07
1.61292e-07
1.61295e-07
1.61298e-07
1.61301e-07
1.61304e-07
1.61306e-07
1.61308e-07
1.6131e-07
1.61312e-07
1.61314e-07
1.61315e-07
1.61317e-07
1.61318e-07
1.61319e-07
1.6132e-07
1.61321e-07
1.61322e-07
1.61323e-07
1.61323e-07
1.61324e-07
1.61324e-07
1.61325e-07
1.61325e-07
1.61326e-07
1.61325e-07
1.61326e-07
1.61325e-07
1.61326e-07
1.61325e-07
1.61327e-07
1.61325e-07
1.61327e-07
1.61326e-07
1.61328e-07
1.61327e-07
1.6133e-07
1.61329e-07
1.61332e-07
1.61331e-07
1.61334e-07
1.61334e-07
1.61336e-07
1.61336e-07
1.61337e-07
1.61336e-07
1.61337e-07
1.61336e-07
1.61337e-07
1.61336e-07
1.61336e-07
1.61336e-07
1.61336e-07
1.61335e-07
1.61335e-07
1.61335e-07
1.61335e-07
1.61337e-07
1.61337e-07
1.61394e-07
1.6207e-07
1.70634e-07
1.72562e-07
1.74404e-07
1.76161e-07
1.77838e-07
1.79437e-07
1.80962e-07
1.82414e-07
1.83797e-07
1.85113e-07
1.86367e-07
1.87559e-07
1.88694e-07
1.89772e-07
1.90798e-07
1.91772e-07
1.92698e-07
1.93577e-07
1.94412e-07
1.95205e-07
1.95958e-07
1.96672e-07
1.97349e-07
1.97992e-07
1.98601e-07
1.99179e-07
1.99726e-07
2.00245e-07
2.00736e-07
2.01202e-07
2.01642e-07
2.0206e-07
2.02455e-07
2.02828e-07
2.03182e-07
2.03516e-07
2.03833e-07
2.04132e-07
2.04414e-07
2.04681e-07
2.04934e-07
2.05172e-07
2.05397e-07
2.05609e-07
2.0581e-07
2.05999e-07
2.06178e-07
2.06346e-07
2.06504e-07
2.06654e-07
2.06795e-07
2.06928e-07
2.07053e-07
2.07171e-07
2.07282e-07
2.07386e-07
2.07484e-07
2.07577e-07
2.07664e-07
2.07746e-07
2.07822e-07
2.07895e-07
2.07962e-07
2.08026e-07
2.08086e-07
2.08142e-07
2.08194e-07
2.08244e-07
2.0829e-07
2.08333e-07
2.08374e-07
2.08412e-07
2.08447e-07
2.08481e-07
2.08512e-07
2.08541e-07
2.08568e-07
2.08594e-07
2.08617e-07
2.0864e-07
2.0866e-07
2.0868e-07
2.08698e-07
2.08715e-07
2.0873e-07
2.08745e-07
2.08759e-07
2.08771e-07
2.08783e-07
2.08794e-07
2.08804e-07
2.08814e-07
2.08823e-07
2.08831e-07
2.08838e-07
2.08845e-07
2.08852e-07
2.08858e-07
2.08864e-07
2.08869e-07
2.08874e-07
2.08878e-07
2.08882e-07
2.08886e-07
2.08889e-07
2.08893e-07
2.08896e-07
2.08898e-07
2.08901e-07
2.08903e-07
2.08905e-07
2.08907e-07
2.08909e-07
2.08911e-07
2.08912e-07
2.08914e-07
2.08915e-07
2.08916e-07
2.08917e-07
2.08918e-07
2.08919e-07
2.0892e-07
2.0892e-07
2.08921e-07
2.08921e-07
2.08922e-07
2.08922e-07
2.08922e-07
2.08922e-07
2.08923e-07
2.08922e-07
2.08923e-07
2.08922e-07
2.08923e-07
2.08922e-07
2.08923e-07
2.08922e-07
2.08924e-07
2.08923e-07
2.08926e-07
2.08925e-07
2.08928e-07
2.08928e-07
2.08931e-07
2.0893e-07
2.08933e-07
2.08932e-07
2.08933e-07
2.08933e-07
2.08933e-07
2.08933e-07
2.08933e-07
2.08932e-07
2.08933e-07
2.08932e-07
2.08932e-07
2.08932e-07
2.08932e-07
2.08932e-07
2.08932e-07
2.08933e-07
2.08934e-07
2.08988e-07
2.09617e-07
2.12883e-07
2.14701e-07
2.16426e-07
2.18063e-07
2.19617e-07
2.21091e-07
2.22489e-07
2.23815e-07
2.25071e-07
2.26263e-07
2.27392e-07
2.28462e-07
2.29476e-07
2.30437e-07
2.31348e-07
2.3221e-07
2.33027e-07
2.338e-07
2.34533e-07
2.35226e-07
2.35883e-07
2.36505e-07
2.37093e-07
2.3765e-07
2.38177e-07
2.38675e-07
2.39147e-07
2.39593e-07
2.40015e-07
2.40414e-07
2.40792e-07
2.41148e-07
2.41486e-07
2.41804e-07
2.42106e-07
2.4239e-07
2.42659e-07
2.42913e-07
2.43152e-07
2.43379e-07
2.43592e-07
2.43794e-07
2.43984e-07
2.44163e-07
2.44333e-07
2.44492e-07
2.44643e-07
2.44784e-07
2.44918e-07
2.45044e-07
2.45162e-07
2.45274e-07
2.45379e-07
2.45478e-07
2.45571e-07
2.45659e-07
2.45742e-07
2.45819e-07
2.45892e-07
2.45961e-07
2.46025e-07
2.46086e-07
2.46142e-07
2.46196e-07
2.46246e-07
2.46293e-07
2.46337e-07
2.46378e-07
2.46417e-07
2.46453e-07
2.46487e-07
2.46519e-07
2.46549e-07
2.46577e-07
2.46603e-07
2.46627e-07
2.4665e-07
2.46671e-07
2.46691e-07
2.4671e-07
2.46727e-07
2.46743e-07
2.46758e-07
2.46772e-07
2.46785e-07
2.46798e-07
2.46809e-07
2.4682e-07
2.4683e-07
2.46839e-07
2.46847e-07
2.46855e-07
2.46863e-07
2.46869e-07
2.46876e-07
2.46882e-07
2.46887e-07
2.46892e-07
2.46897e-07
2.46901e-07
2.46905e-07
2.46909e-07
2.46912e-07
2.46916e-07
2.46918e-07
2.46921e-07
2.46924e-07
2.46926e-07
2.46928e-07
2.4693e-07
2.46932e-07
2.46933e-07
2.46935e-07
2.46936e-07
2.46938e-07
2.46939e-07
2.4694e-07
2.46941e-07
2.46942e-07
2.46942e-07
2.46943e-07
2.46944e-07
2.46944e-07
2.46945e-07
2.46945e-07
2.46945e-07
2.46945e-07
2.46946e-07
2.46946e-07
2.46946e-07
2.46946e-07
2.46946e-07
2.46946e-07
2.46947e-07
2.46945e-07
2.46947e-07
2.46946e-07
2.46948e-07
2.46946e-07
2.46949e-07
2.46948e-07
2.46951e-07
2.4695e-07
2.46953e-07
2.46953e-07
2.46955e-07
2.46954e-07
2.46955e-07
2.46955e-07
2.46955e-07
2.46955e-07
2.46955e-07
2.46954e-07
2.46954e-07
2.46954e-07
2.46954e-07
2.46954e-07
2.46954e-07
2.46954e-07
2.46954e-07
2.46955e-07
2.46955e-07
2.47001e-07
2.47461e-07
2.46977e-07
2.48493e-07
2.49923e-07
2.51273e-07
2.52548e-07
2.5375e-07
2.54886e-07
2.55957e-07
2.56969e-07
2.57924e-07
2.58825e-07
2.59676e-07
2.6048e-07
2.61239e-07
2.61956e-07
2.62633e-07
2.63272e-07
2.63876e-07
2.64446e-07
2.64985e-07
2.65493e-07
2.65974e-07
2.66428e-07
2.66856e-07
2.67261e-07
2.67644e-07
2.68005e-07
2.68346e-07
2.68668e-07
2.68972e-07
2.69259e-07
2.6953e-07
2.69787e-07
2.70028e-07
2.70256e-07
2.70472e-07
2.70675e-07
2.70866e-07
2.71047e-07
2.71218e-07
2.71379e-07
2.71531e-07
2.71674e-07
2.71809e-07
2.71936e-07
2.72056e-07
2.72168e-07
2.72275e-07
2.72375e-07
2.72469e-07
2.72558e-07
2.72642e-07
2.7272e-07
2.72795e-07
2.72864e-07
2.7293e-07
2.72992e-07
2.73049e-07
2.73104e-07
2.73155e-07
2.73203e-07
2.73249e-07
2.73291e-07
2.73331e-07
2.73368e-07
2.73403e-07
2.73436e-07
2.73467e-07
2.73496e-07
2.73523e-07
2.73548e-07
2.73572e-07
2.73594e-07
2.73615e-07
2.73634e-07
2.73653e-07
2.7367e-07
2.73686e-07
2.737e-07
2.73714e-07
2.73727e-07
2.73739e-07
2.73751e-07
2.73761e-07
2.73771e-07
2.7378e-07
2.73788e-07
2.73796e-07
2.73804e-07
2.7381e-07
2.73817e-07
2.73823e-07
2.73828e-07
2.73833e-07
2.73838e-07
2.73842e-07
2.73847e-07
2.7385e-07
2.73854e-07
2.73857e-07
2.7386e-07
2.73863e-07
2.73865e-07
2.73868e-07
2.7387e-07
2.73872e-07
2.73874e-07
2.73875e-07
2.73877e-07
2.73878e-07
2.7388e-07
2.73881e-07
2.73882e-07
2.73883e-07
2.73884e-07
2.73885e-07
2.73886e-07
2.73886e-07
2.73887e-07
2.73888e-07
2.73888e-07
2.73889e-07
2.73889e-07
2.73889e-07
2.73889e-07
2.7389e-07
2.7389e-07
2.7389e-07
2.7389e-07
2.73891e-07
2.7389e-07
2.73891e-07
2.7389e-07
2.73891e-07
2.7389e-07
2.73891e-07
2.7389e-07
2.73892e-07
2.73891e-07
2.73893e-07
2.73892e-07
2.73894e-07
2.73893e-07
2.73896e-07
2.73895e-07
2.73897e-07
2.73896e-07
2.73897e-07
2.73897e-07
2.73897e-07
2.73897e-07
2.73897e-07
2.73897e-07
2.73897e-07
2.73896e-07
2.73896e-07
2.73896e-07
2.73896e-07
2.73896e-07
2.73896e-07
2.73897e-07
2.73897e-07
2.73932e-07
2.74105e-07
2.71916e-07
2.73058e-07
2.7413e-07
2.75136e-07
2.76082e-07
2.7697e-07
2.77805e-07
2.78589e-07
2.79326e-07
2.8002e-07
2.80672e-07
2.81286e-07
2.81864e-07
2.82408e-07
2.82921e-07
2.83403e-07
2.83857e-07
2.84285e-07
2.84689e-07
2.85069e-07
2.85428e-07
2.85766e-07
2.86084e-07
2.86384e-07
2.86668e-07
2.86935e-07
2.87187e-07
2.87424e-07
2.87648e-07
2.8786e-07
2.88059e-07
2.88247e-07
2.88424e-07
2.88591e-07
2.88749e-07
2.88897e-07
2.89038e-07
2.8917e-07
2.89294e-07
2.89412e-07
2.89523e-07
2.89627e-07
2.89725e-07
2.89818e-07
2.89905e-07
2.89987e-07
2.90065e-07
2.90138e-07
2.90206e-07
2.90271e-07
2.90332e-07
2.90389e-07
2.90443e-07
2.90493e-07
2.90541e-07
2.90586e-07
2.90628e-07
2.90668e-07
2.90705e-07
2.9074e-07
2.90773e-07
2.90804e-07
2.90833e-07
2.9086e-07
2.90886e-07
2.9091e-07
2.90932e-07
2.90953e-07
2.90973e-07
2.90991e-07
2.91009e-07
2.91025e-07
2.9104e-07
2.91054e-07
2.91068e-07
2.9108e-07
2.91092e-07
2.91103e-07
2.91113e-07
2.91122e-07
2.91131e-07
2.91139e-07
2.91147e-07
2.91154e-07
2.91161e-07
2.91167e-07
2.91173e-07
2.91178e-07
2.91183e-07
2.91188e-07
2.91192e-07
2.91196e-07
2.912e-07
2.91204e-07
2.91207e-07
2.9121e-07
2.91213e-07
2.91215e-07
2.91217e-07
2.9122e-07
2.91222e-07
2.91224e-07
2.91225e-07
2.91227e-07
2.91228e-07
2.9123e-07
2.91231e-07
2.91232e-07
2.91233e-07
2.91234e-07
2.91235e-07
2.91236e-07
2.91237e-07
2.91238e-07
2.91238e-07
2.91239e-07
2.91239e-07
2.9124e-07
2.9124e-07
2.91241e-07
2.91241e-07
2.91241e-07
2.91241e-07
2.91242e-07
2.91242e-07
2.91242e-07
2.91242e-07
2.91242e-07
2.91242e-07
2.91243e-07
2.91242e-07
2.91243e-07
2.91242e-07
2.91243e-07
2.91242e-07
2.91243e-07
2.91242e-07
2.91243e-07
2.91242e-07
2.91244e-07
2.91243e-07
2.91245e-07
2.91244e-07
2.91246e-07
2.91246e-07
2.91247e-07
2.91246e-07
2.91247e-07
2.91247e-07
2.91247e-07
2.91247e-07
2.91247e-07
2.91247e-07
2.91247e-07
2.91246e-07
2.91247e-07
2.91246e-07
2.91246e-07
2.91246e-07
2.91246e-07
2.91247e-07
2.91247e-07
2.91272e-07
2.90961e-07
2.8867e-07
2.8946e-07
2.90198e-07
2.90888e-07
2.91533e-07
2.92137e-07
2.92703e-07
2.93232e-07
2.93728e-07
2.94193e-07
2.9463e-07
2.95039e-07
2.95424e-07
2.95785e-07
2.96124e-07
2.96443e-07
2.96743e-07
2.97024e-07
2.9729e-07
2.97539e-07
2.97774e-07
2.97995e-07
2.98203e-07
2.98399e-07
2.98583e-07
2.98757e-07
2.98921e-07
2.99075e-07
2.9922e-07
2.99357e-07
2.99487e-07
2.99608e-07
2.99723e-07
2.99831e-07
2.99933e-07
3.00029e-07
3.00119e-07
3.00204e-07
3.00285e-07
3.00361e-07
3.00432e-07
3.00499e-07
3.00562e-07
3.00622e-07
3.00678e-07
3.00731e-07
3.00781e-07
3.00828e-07
3.00872e-07
3.00913e-07
3.00952e-07
3.00989e-07
3.01024e-07
3.01056e-07
3.01087e-07
3.01115e-07
3.01143e-07
3.01168e-07
3.01192e-07
3.01214e-07
3.01236e-07
3.01255e-07
3.01274e-07
3.01292e-07
3.01308e-07
3.01323e-07
3.01338e-07
3.01351e-07
3.01364e-07
3.01376e-07
3.01387e-07
3.01398e-07
3.01407e-07
3.01417e-07
3.01425e-07
3.01433e-07
3.01441e-07
3.01448e-07
3.01454e-07
3.0146e-07
3.01466e-07
3.01471e-07
3.01476e-07
3.01481e-07
3.01485e-07
3.01489e-07
3.01493e-07
3.01496e-07
3.01499e-07
3.01502e-07
3.01505e-07
3.01508e-07
3.0151e-07
3.01512e-07
3.01515e-07
3.01517e-07
3.01518e-07
3.0152e-07
3.01521e-07
3.01523e-07
3.01524e-07
3.01525e-07
3.01527e-07
3.01528e-07
3.01529e-07
3.01529e-07
3.0153e-07
3.01531e-07
3.01532e-07
3.01532e-07
3.01533e-07
3.01533e-07
3.01534e-07
3.01534e-07
3.01535e-07
3.01535e-07
3.01535e-07
3.01536e-07
3.01536e-07
3.01536e-07
3.01537e-07
3.01537e-07
3.01537e-07
3.01537e-07
3.01537e-07
3.01537e-07
3.01537e-07
3.01538e-07
3.01537e-07
3.01538e-07
3.01537e-07
3.01538e-07
3.01537e-07
3.01538e-07
3.01537e-07
3.01538e-07
3.01537e-07
3.01538e-07
3.01537e-07
3.01539e-07
3.01538e-07
3.01539e-07
3.01539e-07
3.0154e-07
3.01539e-07
3.01541e-07
3.0154e-07
3.01541e-07
3.0154e-07
3.01541e-07
3.0154e-07
3.01541e-07
3.0154e-07
3.0154e-07
3.0154e-07
3.0154e-07
3.0154e-07
3.0154e-07
3.0154e-07
3.0154e-07
3.0154e-07
3.0154e-07
3.01559e-07
3.00349e-07
3.0395e-07
3.04336e-07
3.04693e-07
3.05025e-07
3.05334e-07
3.05622e-07
3.0589e-07
3.0614e-07
3.06374e-07
3.06592e-07
3.06796e-07
3.06986e-07
3.07165e-07
3.07332e-07
3.07489e-07
3.07636e-07
3.07775e-07
3.07904e-07
3.08026e-07
3.0814e-07
3.08248e-07
3.08349e-07
3.08444e-07
3.08534e-07
3.08618e-07
3.08697e-07
3.08772e-07
3.08842e-07
3.08909e-07
3.08971e-07
3.0903e-07
3.09085e-07
3.09137e-07
3.09186e-07
3.09233e-07
3.09276e-07
3.09318e-07
3.09356e-07
3.09393e-07
3.09427e-07
3.0946e-07
3.0949e-07
3.09519e-07
3.09546e-07
3.09571e-07
3.09595e-07
3.09618e-07
3.09639e-07
3.09659e-07
3.09678e-07
3.09696e-07
3.09713e-07
3.09728e-07
3.09743e-07
3.09757e-07
3.0977e-07
3.09783e-07
3.09794e-07
3.09805e-07
3.09815e-07
3.09825e-07
3.09834e-07
3.09843e-07
3.09851e-07
3.09858e-07
3.09865e-07
3.09872e-07
3.09878e-07
3.09884e-07
3.09889e-07
3.09895e-07
3.09899e-07
3.09904e-07
3.09908e-07
3.09912e-07
3.09916e-07
3.09919e-07
3.09922e-07
3.09925e-07
3.09928e-07
3.09931e-07
3.09933e-07
3.09936e-07
3.09938e-07
3.0994e-07
3.09941e-07
3.09943e-07
3.09945e-07
3.09946e-07
3.09948e-07
3.09949e-07
3.0995e-07
3.09951e-07
3.09952e-07
3.09953e-07
3.09954e-07
3.09955e-07
3.09956e-07
3.09956e-07
3.09957e-07
3.09958e-07
3.09958e-07
3.09959e-07
3.09959e-07
3.0996e-07
3.0996e-07
3.0996e-07
3.09961e-07
3.09961e-07
3.09961e-07
3.09962e-07
3.09962e-07
3.09962e-07
3.09962e-07
3.09962e-07
3.09963e-07
3.09963e-07
3.09963e-07
3.09963e-07
3.09963e-07
3.09963e-07
3.09963e-07
3.09963e-07
3.09964e-07
3.09964e-07
3.09964e-07
3.09964e-07
3.09964e-07
3.09964e-07
3.09964e-07
3.09964e-07
3.09964e-07
3.09964e-07
3.09964e-07
3.09963e-07
3.09964e-07
3.09963e-07
3.09964e-07
3.09963e-07
3.09965e-07
3.09964e-07
3.09965e-07
3.09964e-07
3.09965e-07
3.09964e-07
3.09965e-07
3.09965e-07
3.09965e-07
3.09965e-07
3.09965e-07
3.09965e-07
3.09965e-07
3.09965e-07
3.09965e-07