/*--------------------------------*- C++ -*----------------------------------*\
| =========                 |                                                 |
| \\      /  F ield         | OpenFOAM: The Open Source CFD Toolbox           |
|  \\    /   O peration     | Version:  v1912                                 |
|   \\  /    A nd           | Website:  www.openfoam.com                      |
|    \\/     M anipulation  |                                                 |
\*---------------------------------------------------------------------------*/
FoamFile
{
    version     2.0;
    format      ascii;
    class       surfaceScalarField;
    location    "70";
    object      phi;
}
// * * * * * * * * * * * * * * * * * * * * * * * * * * * * * * * * * * * * * //

dimensions      [0 3 -1 0 0 0 0];
oriented        oriented;


internalField   nonuniform List<scalar> 
28285
(
7.61194e-05
4.1399e-06
7.21684e-05
3.95095e-06
6.83994e-05
3.76902e-06
6.48055e-05
3.59392e-06
6.138e-05
3.42549e-06
5.81164e-05
3.26357e-06
5.50084e-05
3.10801e-06
5.20498e-05
2.95865e-06
4.92345e-05
2.81533e-06
4.65566e-05
2.67789e-06
4.40104e-05
2.54617e-06
4.15904e-05
2.42e-06
3.92912e-05
2.29921e-06
3.71076e-05
2.18363e-06
3.50345e-05
2.07309e-06
3.3067e-05
1.96743e-06
3.12006e-05
1.86649e-06
2.94305e-05
1.7701e-06
2.77524e-05
1.67809e-06
2.6162e-05
1.59032e-06
2.46554e-05
1.50662e-06
2.32286e-05
1.42684e-06
2.18777e-05
1.35083e-06
2.05993e-05
1.27844e-06
1.93898e-05
1.20954e-06
1.82458e-05
1.14397e-06
1.71642e-05
1.0816e-06
1.61419e-05
1.02231e-06
1.51759e-05
9.65957e-07
1.42635e-05
9.1242e-07
1.34019e-05
8.61576e-07
1.25886e-05
8.13309e-07
1.18211e-05
7.67505e-07
1.10971e-05
7.24054e-07
1.04142e-05
6.82848e-07
9.77043e-06
6.43787e-07
9.16366e-06
6.06771e-07
8.59195e-06
5.71705e-07
8.05345e-06
5.38498e-07
7.54639e-06
5.07061e-07
7.06908e-06
4.7731e-07
6.61992e-06
4.49165e-07
6.19737e-06
4.22546e-07
5.79999e-06
3.97381e-07
5.42639e-06
3.73596e-07
5.07527e-06
3.51125e-07
4.74537e-06
3.299e-07
4.43551e-06
3.0986e-07
4.14456e-06
2.90945e-07
3.87147e-06
2.73096e-07
3.61521e-06
2.5626e-07
3.37482e-06
2.40385e-07
3.1494e-06
2.25419e-07
2.93809e-06
2.11316e-07
2.74006e-06
1.98031e-07
2.55454e-06
1.85519e-07
2.3808e-06
1.7374e-07
2.21814e-06
1.62655e-07
2.06592e-06
1.52225e-07
1.9235e-06
1.42416e-07
1.79031e-06
1.33194e-07
1.66578e-06
1.24526e-07
1.5494e-06
1.16382e-07
1.44067e-06
1.08732e-07
1.33912e-06
1.0155e-07
1.24431e-06
9.48083e-08
1.15583e-06
8.84826e-08
1.07328e-06
8.25493e-08
9.96292e-07
7.69859e-08
9.24521e-07
7.17711e-08
8.57636e-07
6.68848e-08
7.95328e-07
6.2308e-08
7.37305e-07
5.80226e-08
6.83294e-07
5.40114e-08
6.33036e-07
5.02582e-08
5.86288e-07
4.67478e-08
5.42823e-07
4.34656e-08
5.02425e-07
4.03979e-08
4.64893e-07
3.75318e-08
4.30038e-07
3.48551e-08
3.97682e-07
3.23561e-08
3.67658e-07
3.0024e-08
3.39809e-07
2.78485e-08
3.1399e-07
2.58198e-08
2.90061e-07
2.39288e-08
2.67894e-07
2.21668e-08
2.47368e-07
2.05258e-08
2.2837e-07
1.8998e-08
2.10794e-07
1.75762e-08
1.9454e-07
1.62536e-08
1.79517e-07
1.50238e-08
1.65636e-07
1.38808e-08
1.52817e-07
1.28189e-08
1.40984e-07
1.18328e-08
1.30067e-07
1.09175e-08
1.19998e-07
1.00683e-08
1.10717e-07
9.28081e-09
1.02167e-07
8.55085e-09
9.4292e-08
7.87457e-09
8.70436e-08
7.24832e-09
8.03749e-08
6.66869e-09
7.42425e-08
6.13248e-09
6.86057e-08
5.63672e-09
6.34272e-08
5.17859e-09
5.86717e-08
4.75548e-09
5.43067e-08
4.36495e-09
5.0302e-08
4.0047e-09
4.66294e-08
3.67261e-09
4.32627e-08
3.3667e-09
4.01776e-08
3.08509e-09
3.73515e-08
2.82609e-09
3.47635e-08
2.58804e-09
3.23939e-08
2.36955e-09
3.02249e-08
2.16907e-09
2.82393e-08
1.98558e-09
2.64218e-08
1.8175e-09
2.47574e-08
1.66435e-09
2.32333e-08
1.52415e-09
2.18358e-08
1.39747e-09
2.05546e-08
1.2812e-09
1.93766e-08
1.17797e-09
1.82947e-08
1.0819e-09
1.72948e-08
9.99966e-10
1.63736e-08
9.21131e-10
1.55151e-08
8.58523e-10
1.47218e-08
7.93298e-10
1.39717e-08
7.50131e-10
1.3278e-08
6.93674e-10
1.26069e-08
6.71164e-10
1.19892e-08
6.17674e-10
1.13719e-08
6.17266e-10
1.08132e-08
5.58749e-10
1.023e-08
5.83167e-10
9.72384e-09
5.06156e-10
9.16843e-09
5.5541e-10
8.71193e-09
4.56503e-10
8.20222e-09
5.09709e-10
7.82008e-09
3.82139e-10
7.38836e-09
4.3172e-10
7.12422e-09
2.64147e-10
6.82428e-09
2.99941e-10
6.70007e-09
1.24205e-10
6.55856e-09
1.41509e-10
6.58983e-09
-3.12726e-11
6.62078e-09
-3.09466e-11
6.77951e-09
-1.58731e-10
6.92584e-09
-1.46332e-10
7.13667e-09
-2.10829e-10
7.32638e-09
-1.89709e-10
7.54839e-09
-2.22006e-10
7.74339e-09
-1.95007e-10
7.95211e-09
-2.08719e-10
8.13197e-09
-1.79856e-10
8.31626e-09
-1.84291e-10
8.47367e-09
-1.57407e-10
8.63185e-09
-1.5818e-10
8.76859e-09
-1.36742e-10
8.90559e-09
-1.37e-10
9.03411e-09
-1.28525e-10
9.16438e-09
-1.3027e-10
9.35805e-09
-1.93667e-10
9.56226e-09
-2.04212e-10
1.23915e-08
-2.82923e-09
-2.82662e-09
7.60086e-05
8.27437e-06
7.20629e-05
7.89666e-06
6.82989e-05
7.53299e-06
6.47099e-05
7.18299e-06
6.1289e-05
6.84631e-06
5.80299e-05
6.52266e-06
5.49262e-05
6.21171e-06
5.19717e-05
5.91317e-06
4.91603e-05
5.62671e-06
4.64862e-05
5.352e-06
4.39437e-05
5.08872e-06
4.15271e-05
4.83654e-06
3.92312e-05
4.5951e-06
3.70508e-05
4.36409e-06
3.49807e-05
4.14317e-06
3.30161e-05
3.93199e-06
3.11524e-05
3.73024e-06
2.93849e-05
3.53759e-06
2.77093e-05
3.3537e-06
2.61213e-05
3.17828e-06
2.46169e-05
3.01099e-06
2.31922e-05
2.85154e-06
2.18434e-05
2.69963e-06
2.05669e-05
2.55496e-06
1.93592e-05
2.41724e-06
1.8217e-05
2.2862e-06
1.7137e-05
2.16156e-06
1.61163e-05
2.04306e-06
1.51518e-05
1.93044e-06
1.42408e-05
1.82344e-06
1.33805e-05
1.72183e-06
1.25685e-05
1.62536e-06
1.18021e-05
1.53382e-06
1.10792e-05
1.44699e-06
1.03974e-05
1.36464e-06
9.75464e-06
1.28657e-06
9.14882e-06
1.2126e-06
8.57801e-06
1.14252e-06
8.04035e-06
1.07615e-06
7.53409e-06
1.01333e-06
7.05753e-06
9.53871e-07
6.60907e-06
8.97623e-07
6.18719e-06
8.44427e-07
5.79043e-06
7.94135e-07
5.41743e-06
7.46602e-07
5.06686e-06
7.01694e-07
4.73748e-06
6.59277e-07
4.42811e-06
6.19228e-07
4.13763e-06
5.81426e-07
3.86497e-06
5.45758e-07
3.60912e-06
5.12112e-07
3.36912e-06
4.80385e-07
3.14406e-06
4.50478e-07
2.93308e-06
4.22294e-07
2.73537e-06
3.95744e-07
2.55015e-06
3.7074e-07
2.37668e-06
3.47201e-07
2.21429e-06
3.25048e-07
2.06231e-06
3.04205e-07
1.92012e-06
2.84603e-07
1.78715e-06
2.66173e-07
1.66282e-06
2.48851e-07
1.54663e-06
2.32575e-07
1.43807e-06
2.17288e-07
1.33669e-06
2.02935e-07
1.24203e-06
1.89463e-07
1.15369e-06
1.76821e-07
1.07128e-06
1.64964e-07
9.94418e-07
1.53846e-07
9.22764e-07
1.43425e-07
8.55988e-07
1.33661e-07
7.93782e-07
1.24514e-07
7.35854e-07
1.1595e-07
6.81931e-07
1.07934e-07
6.31755e-07
1.00434e-07
5.85084e-07
9.34188e-08
5.4169e-07
8.68597e-08
5.01359e-07
8.07294e-08
4.63889e-07
7.50018e-08
4.29091e-07
6.96527e-08
3.96788e-07
6.46588e-08
3.66814e-07
5.99984e-08
3.39012e-07
5.56509e-08
3.13235e-07
5.15968e-08
2.89345e-07
4.78179e-08
2.67215e-07
4.42969e-08
2.46724e-07
4.10175e-08
2.27757e-07
3.79644e-08
2.1021e-07
3.51231e-08
1.93984e-07
3.24801e-08
1.78985e-07
3.00226e-08
1.65127e-07
2.77384e-08
1.5233e-07
2.56164e-08
1.40517e-07
2.36458e-08
1.29618e-07
2.18167e-08
1.19566e-07
2.01197e-08
1.10301e-07
1.8546e-08
1.01765e-07
1.70873e-08
9.39033e-08
1.57359e-08
8.66672e-08
1.44844e-08
8.00098e-08
1.33261e-08
7.38876e-08
1.22546e-08
6.82605e-08
1.12639e-08
6.30906e-08
1.03484e-08
5.83432e-08
9.5029e-09
5.39857e-08
8.72249e-09
4.99878e-08
8.00261e-09
4.63214e-08
7.33898e-09
4.29604e-08
6.72768e-09
3.98806e-08
6.16494e-09
3.70593e-08
5.64738e-09
3.44756e-08
5.17169e-09
3.21101e-08
4.73507e-09
2.99447e-08
4.33447e-09
2.79625e-08
3.96779e-09
2.61481e-08
3.63193e-09
2.44866e-08
3.32587e-09
2.2965e-08
3.04576e-09
2.15698e-08
2.79258e-09
2.02907e-08
2.56033e-09
1.91148e-08
2.35393e-09
1.80345e-08
2.16217e-09
1.70363e-08
1.99817e-09
1.61162e-08
1.84116e-09
1.52594e-08
1.71533e-09
1.44669e-08
1.58586e-09
1.37183e-08
1.49866e-09
1.30251e-08
1.3869e-09
1.23554e-08
1.34084e-09
1.1738e-08
1.23514e-09
1.11221e-08
1.23313e-09
1.05634e-08
1.11749e-09
9.98158e-09
1.16497e-09
9.47526e-09
1.01248e-09
8.92122e-09
1.10945e-09
8.46445e-09
9.13279e-10
7.95613e-09
1.01803e-09
7.57368e-09
7.6459e-10
7.14338e-09
8.62021e-10
6.87894e-09
5.28586e-10
6.58037e-09
5.9851e-10
6.45583e-09
2.48739e-10
6.3156e-09
2.81744e-10
6.34656e-09
-6.22306e-11
6.37859e-09
-6.29836e-11
6.53684e-09
-3.1698e-10
6.68398e-09
-2.93469e-10
6.8942e-09
-4.21053e-10
7.08453e-09
-3.80032e-10
7.3059e-09
-4.43377e-10
7.50139e-09
-3.90501e-10
7.70949e-09
-4.16815e-10
7.88975e-09
-3.60119e-10
8.07346e-09
-3.67997e-10
8.23123e-09
-3.15177e-10
8.38887e-09
-3.15823e-10
8.52596e-09
-2.73831e-10
8.66248e-09
-2.73517e-10
8.79137e-09
-2.57414e-10
8.9213e-09
-2.60203e-10
9.11524e-09
-3.87606e-10
9.32337e-09
-4.12347e-10
1.21373e-08
-5.64312e-09
-5.63388e-09
7.59401e-05
1.24052e-05
7.19979e-05
1.18389e-05
6.82372e-05
1.12936e-05
6.46513e-05
1.07689e-05
6.12336e-05
1.02641e-05
5.79774e-05
9.77885e-06
5.48764e-05
9.31266e-06
5.19245e-05
8.86507e-06
4.91156e-05
8.43559e-06
4.64439e-05
8.02374e-06
4.39036e-05
7.62901e-06
4.14892e-05
7.25092e-06
3.91954e-05
6.88896e-06
3.70169e-05
6.54262e-06
3.49486e-05
6.2114e-06
3.29858e-05
5.8948e-06
3.11237e-05
5.59233e-06
2.93578e-05
5.3035e-06
2.76837e-05
5.02782e-06
2.60972e-05
4.76482e-06
2.45941e-05
4.51402e-06
2.31707e-05
4.27497e-06
2.18231e-05
4.04722e-06
2.05477e-05
3.83033e-06
1.93411e-05
3.62387e-06
1.81999e-05
3.42741e-06
1.71209e-05
3.24055e-06
1.61011e-05
3.06289e-06
1.51375e-05
2.89405e-06
1.42273e-05
2.73364e-06
1.33678e-05
2.5813e-06
1.25565e-05
2.43669e-06
1.17908e-05
2.29945e-06
1.10686e-05
2.16926e-06
1.03874e-05
2.04581e-06
9.74519e-06
1.92878e-06
9.13991e-06
1.81787e-06
8.56962e-06
1.71281e-06
8.03245e-06
1.61332e-06
7.52664e-06
1.51913e-06
7.05052e-06
1.43e-06
6.60247e-06
1.34567e-06
6.18097e-06
1.26592e-06
5.78458e-06
1.19053e-06
5.41191e-06
1.11927e-06
5.06167e-06
1.05194e-06
4.73259e-06
9.88353e-07
4.4235e-06
9.28313e-07
4.13329e-06
8.71642e-07
3.86088e-06
8.18169e-07
3.60526e-06
7.67728e-07
3.36548e-06
7.20165e-07
3.14063e-06
6.75329e-07
2.92985e-06
6.33078e-07
2.73232e-06
5.93274e-07
2.54727e-06
5.5579e-07
2.37397e-06
5.20501e-07
2.21172e-06
4.8729e-07
2.05989e-06
4.56044e-07
1.91783e-06
4.26657e-07
1.78498e-06
3.99028e-07
1.66077e-06
3.73059e-07
1.54468e-06
3.4866e-07
1.43623e-06
3.25743e-07
1.33494e-06
3.04225e-07
1.24037e-06
2.84028e-07
1.15212e-06
2.65077e-07
1.06978e-06
2.47302e-07
9.92992e-07
2.30634e-07
9.21405e-07
2.15012e-07
8.54693e-07
2.00373e-07
7.92545e-07
1.86662e-07
7.34673e-07
1.73823e-07
6.80801e-07
1.61806e-07
6.30673e-07
1.50562e-07
5.84047e-07
1.40045e-07
5.40694e-07
1.30212e-07
5.00401e-07
1.21022e-07
4.62967e-07
1.12436e-07
4.28203e-07
1.04417e-07
3.95931e-07
9.69304e-08
3.65986e-07
8.99439e-08
3.3821e-07
8.34264e-08
3.12458e-07
7.73489e-08
2.88592e-07
7.16839e-08
2.66484e-07
6.64055e-08
2.46012e-07
6.14893e-08
2.27064e-07
5.69123e-08
2.09534e-07
5.26529e-08
1.93324e-07
4.86907e-08
1.7834e-07
4.50066e-08
1.64496e-07
4.15824e-08
1.51711e-07
3.84012e-08
1.39909e-07
3.54472e-08
1.29021e-07
3.27052e-08
1.18979e-07
3.01612e-08
1.09723e-07
2.7802e-08
1.01195e-07
2.56153e-08
9.3342e-08
2.35894e-08
8.61131e-08
2.17133e-08
7.94623e-08
1.99769e-08
7.33463e-08
1.83706e-08
6.77248e-08
1.68854e-08
6.25602e-08
1.5513e-08
5.78175e-08
1.42455e-08
5.34644e-08
1.30756e-08
4.94706e-08
1.19965e-08
4.58079e-08
1.10016e-08
4.24503e-08
1.00852e-08
3.93736e-08
9.24165e-09
3.65552e-08
8.46579e-09
3.39742e-08
7.7527e-09
3.16111e-08
7.09817e-09
2.94479e-08
6.49766e-09
2.74677e-08
5.94798e-09
2.56551e-08
5.44452e-09
2.39953e-08
4.9857e-09
2.24752e-08
4.56584e-09
2.10815e-08
4.18628e-09
1.98036e-08
3.83818e-09
1.86289e-08
3.52871e-09
1.75496e-08
3.24142e-09
1.65524e-08
2.99536e-09
1.56332e-08
2.76038e-09
1.47773e-08
2.57127e-09
1.39853e-08
2.37781e-09
1.32376e-08
2.2464e-09
1.25448e-08
2.07973e-09
1.18759e-08
2.00972e-09
1.12586e-08
1.85244e-09
1.06436e-08
1.84814e-09
1.00848e-08
1.67631e-09
9.50394e-09
1.74578e-09
8.99726e-09
1.51915e-09
8.44439e-09
1.66232e-09
7.98706e-09
1.37061e-09
7.48009e-09
1.525e-09
7.09698e-09
1.14771e-09
6.66817e-09
1.29083e-09
6.40305e-09
7.93712e-10
6.10602e-09
8.95536e-10
5.98078e-09
3.73984e-10
5.84202e-09
4.20495e-10
5.87234e-09
-9.25481e-11
5.90565e-09
-9.62921e-11
6.06318e-09
-4.74508e-10
6.21126e-09
-4.41551e-10
6.42075e-09
-6.30546e-10
6.61174e-09
-5.71024e-10
6.83246e-09
-6.6409e-10
7.02841e-09
-5.86452e-10
7.23594e-09
-6.24351e-10
7.41652e-09
-5.40692e-10
7.59976e-09
-5.51244e-10
7.75775e-09
-4.73161e-10
7.91502e-09
-4.73097e-10
8.05228e-09
-4.11087e-10
8.1885e-09
-4.09742e-10
8.31755e-09
-3.86464e-10
8.44734e-09
-3.89991e-10
8.6412e-09
-5.81462e-10
8.85257e-09
-6.23722e-10
1.16212e-08
-8.4117e-09
-8.39469e-09
7.58958e-05
1.65335e-05
7.19559e-05
1.57788e-05
6.81975e-05
1.50521e-05
6.46137e-05
1.43527e-05
6.11979e-05
1.36799e-05
5.79435e-05
1.30332e-05
5.48444e-05
1.24118e-05
5.18942e-05
1.18153e-05
4.90869e-05
1.12429e-05
4.64167e-05
1.06939e-05
4.38779e-05
1.01679e-05
4.14649e-05
9.66394e-06
3.91723e-05
9.18151e-06
3.6995e-05
8.71991e-06
3.4928e-05
8.27846e-06
3.29663e-05
7.8565e-06
3.11052e-05
7.45337e-06
2.93403e-05
7.06841e-06
2.76672e-05
6.70098e-06
2.60815e-05
6.35046e-06
2.45793e-05
6.0162e-06
2.31567e-05
5.6976e-06
2.18099e-05
5.39406e-06
2.05352e-05
5.10499e-06
1.93293e-05
4.82981e-06
1.81887e-05
4.56798e-06
1.71104e-05
4.31893e-06
1.60911e-05
4.08215e-06
1.5128e-05
3.85711e-06
1.42183e-05
3.64332e-06
1.33594e-05
3.44029e-06
1.25485e-05
3.24755e-06
1.17833e-05
3.06464e-06
1.10614e-05
2.89113e-06
1.03807e-05
2.72659e-06
9.73881e-06
2.57062e-06
9.13388e-06
2.4228e-06
8.56391e-06
2.28278e-06
8.02705e-06
2.15018e-06
7.52154e-06
2.02465e-06
7.04568e-06
1.90585e-06
6.59789e-06
1.79347e-06
6.17663e-06
1.68718e-06
5.78047e-06
1.58669e-06
5.40802e-06
1.49172e-06
5.05797e-06
1.40199e-06
4.72909e-06
1.31724e-06
4.42018e-06
1.23722e-06
4.13014e-06
1.16169e-06
3.85788e-06
1.09042e-06
3.60242e-06
1.0232e-06
3.36278e-06
9.59805e-07
3.13806e-06
9.00049e-07
2.9274e-06
8.43737e-07
2.72998e-06
7.90689e-07
2.54504e-06
7.40731e-07
2.37184e-06
6.93699e-07
2.2097e-06
6.49437e-07
2.05795e-06
6.07793e-07
1.91598e-06
5.68627e-07
1.7832e-06
5.31804e-07
1.65907e-06
4.97194e-07
1.54305e-06
4.64676e-07
1.43466e-06
4.34133e-07
1.33343e-06
4.05454e-07
1.23892e-06
3.78537e-07
1.15072e-06
3.5328e-07
1.06843e-06
3.29589e-07
9.91693e-07
3.07376e-07
9.2015e-07
2.86554e-07
8.53478e-07
2.67045e-07
7.91368e-07
2.48771e-07
7.33531e-07
2.3166e-07
6.79693e-07
2.15644e-07
6.29595e-07
2.00659e-07
5.82998e-07
1.86643e-07
5.39672e-07
1.73538e-07
4.99404e-07
1.6129e-07
4.61993e-07
1.49847e-07
4.27251e-07
1.39159e-07
3.94999e-07
1.29182e-07
3.65072e-07
1.19871e-07
3.37314e-07
1.11184e-07
3.11579e-07
1.03085e-07
2.87728e-07
9.55348e-08
2.65633e-07
8.85e-08
2.45174e-07
8.1948e-08
2.26238e-07
7.58482e-08
2.0872e-07
7.01715e-08
1.9252e-07
6.4891e-08
1.77545e-07
5.9981e-08
1.6371e-07
5.54175e-08
1.50934e-07
5.11778e-08
1.3914e-07
4.72409e-08
1.28259e-07
4.35865e-08
1.18224e-07
4.01961e-08
1.08974e-07
3.7052e-08
1.00451e-07
3.41377e-08
9.2603e-08
3.14377e-08
8.53789e-08
2.89374e-08
7.87325e-08
2.66233e-08
7.26206e-08
2.44825e-08
6.70028e-08
2.25032e-08
6.18416e-08
2.06742e-08
5.71022e-08
1.8985e-08
5.2752e-08
1.74258e-08
4.87608e-08
1.59876e-08
4.51006e-08
1.46618e-08
4.17453e-08
1.34405e-08
3.86707e-08
1.23163e-08
3.58542e-08
1.12823e-08
3.3275e-08
1.0332e-08
3.09135e-08
9.45967e-09
2.87517e-08
8.65937e-09
2.67729e-08
7.92682e-09
2.49616e-08
7.25587e-09
2.33029e-08
6.6444e-09
2.17838e-08
6.0849e-09
2.03911e-08
5.57902e-09
1.9114e-08
5.11521e-09
1.79401e-08
4.70268e-09
1.68615e-08
4.32e-09
1.5865e-08
3.99186e-09
1.49463e-08
3.67908e-09
1.4091e-08
3.42658e-09
1.32993e-08
3.16943e-09
1.25522e-08
2.99349e-09
1.18595e-08
2.77246e-09
1.11914e-08
2.67788e-09
1.05739e-08
2.4699e-09
9.95976e-09
2.46227e-09
9.40048e-09
2.23559e-09
8.82079e-09
2.32547e-09
8.3133e-09
2.02665e-09
7.76187e-09
2.21374e-09
7.30343e-09
1.82906e-09
6.79818e-09
2.03024e-09
6.41379e-09
1.5321e-09
5.98693e-09
1.71768e-09
5.72047e-09
1.06017e-09
5.4255e-09
1.19051e-09
5.29891e-09
5.00572e-10
5.16216e-09
5.57246e-10
5.19126e-09
-1.2165e-10
5.22636e-09
-1.31389e-10
5.38268e-09
-6.30835e-10
5.53217e-09
-5.91034e-10
5.74054e-09
-8.38914e-10
5.93256e-09
-7.63051e-10
6.15231e-09
-8.83836e-10
6.34901e-09
-7.8315e-10
6.55575e-09
-8.31089e-10
6.73685e-09
-7.21794e-10
6.91946e-09
-7.33852e-10
7.07782e-09
-6.3153e-10
7.23459e-09
-6.29862e-10
7.37215e-09
-5.48645e-10
7.50797e-09
-5.45559e-10
7.63729e-09
-5.15792e-10
7.76683e-09
-5.19528e-10
7.96059e-09
-7.75226e-10
8.17428e-09
-8.37412e-10
1.08512e-08
-1.10886e-08
-1.10638e-08
7.58642e-05
2.06602e-05
7.19259e-05
1.97171e-05
6.8169e-05
1.8809e-05
6.45867e-05
1.7935e-05
6.11723e-05
1.70943e-05
5.79193e-05
1.62862e-05
5.48214e-05
1.55097e-05
5.18724e-05
1.47643e-05
4.90662e-05
1.4049e-05
4.63971e-05
1.33631e-05
4.38593e-05
1.27057e-05
4.14472e-05
1.2076e-05
3.91556e-05
1.14731e-05
3.69792e-05
1.08963e-05
3.49129e-05
1.03447e-05
3.2952e-05
9.81741e-06
3.10917e-05
9.31366e-06
2.93275e-05
8.83262e-06
2.7655e-05
8.37348e-06
2.607e-05
7.93547e-06
2.45684e-05
7.51778e-06
2.31464e-05
7.11966e-06
2.18001e-05
6.74035e-06
2.05259e-05
6.37913e-06
1.93205e-05
6.03527e-06
1.81804e-05
5.70808e-06
1.71024e-05
5.39688e-06
1.60836e-05
5.101e-06
1.51209e-05
4.81979e-06
1.42116e-05
4.55264e-06
1.33529e-05
4.29893e-06
1.25424e-05
4.05809e-06
1.17775e-05
3.82953e-06
1.10559e-05
3.61271e-06
1.03754e-05
3.4071e-06
9.73385e-06
3.21219e-06
9.12917e-06
3.02749e-06
8.55943e-06
2.85252e-06
8.02279e-06
2.68682e-06
7.51748e-06
2.52996e-06
7.04182e-06
2.38151e-06
6.59421e-06
2.24107e-06
6.17313e-06
2.10826e-06
5.77713e-06
1.98269e-06
5.40483e-06
1.86401e-06
5.05493e-06
1.75189e-06
4.72619e-06
1.64599e-06
4.41741e-06
1.546e-06
4.12748e-06
1.45161e-06
3.85534e-06
1.36256e-06
3.59998e-06
1.27856e-06
3.36045e-06
1.19934e-06
3.13582e-06
1.12467e-06
2.92525e-06
1.05431e-06
2.72792e-06
9.8802e-07
2.54306e-06
9.25594e-07
2.36993e-06
8.66823e-07
2.20786e-06
8.11514e-07
2.05617e-06
7.59477e-07
1.91426e-06
7.10536e-07
1.78154e-06
6.64522e-07
1.65746e-06
6.21275e-07
1.5415e-06
5.80641e-07
1.43316e-06
5.42475e-07
1.33197e-06
5.06639e-07
1.2375e-06
4.73004e-07
1.14934e-06
4.41443e-07
1.06709e-06
4.11841e-07
9.90382e-07
3.84083e-07
9.18871e-07
3.58066e-07
8.52229e-07
3.33687e-07
7.90148e-07
3.10852e-07
7.32336e-07
2.89471e-07
6.78522e-07
2.69459e-07
6.28448e-07
2.50734e-07
5.81871e-07
2.3322e-07
5.38565e-07
2.16844e-07
4.98315e-07
2.01539e-07
4.60922e-07
1.8724e-07
4.26195e-07
1.73886e-07
3.93959e-07
1.61418e-07
3.64046e-07
1.49783e-07
3.36301e-07
1.3893e-07
3.10577e-07
1.28809e-07
2.86737e-07
1.19374e-07
2.64653e-07
1.10584e-07
2.44204e-07
1.02397e-07
2.25277e-07
9.4775e-08
2.07767e-07
8.76818e-08
1.91575e-07
8.10835e-08
1.76607e-07
7.49482e-08
1.62779e-07
6.92459e-08
1.50009e-07
6.39482e-08
1.38221e-07
5.90288e-08
1.27345e-07
5.44626e-08
1.17315e-07
5.02261e-08
1.08069e-07
4.62974e-08
9.95511e-08
4.26559e-08
9.17067e-08
3.92821e-08
8.44862e-08
3.61579e-08
7.78432e-08
3.32663e-08
7.17343e-08
3.05914e-08
6.61194e-08
2.81182e-08
6.09608e-08
2.58327e-08
5.62238e-08
2.3722e-08
5.18758e-08
2.17738e-08
4.78867e-08
1.99767e-08
4.42284e-08
1.83201e-08
4.08748e-08
1.67941e-08
3.78018e-08
1.53893e-08
3.49867e-08
1.40973e-08
3.24088e-08
1.29099e-08
3.00486e-08
1.18199e-08
2.7888e-08
1.082e-08
2.59102e-08
9.90463e-09
2.40997e-08
9.06629e-09
2.24419e-08
8.30224e-09
2.09236e-08
7.60319e-09
1.95316e-08
6.97103e-09
1.82552e-08
6.39161e-09
1.70819e-08
5.87602e-09
1.60038e-08
5.39811e-09
1.50078e-08
4.98778e-09
1.40895e-08
4.59745e-09
1.32347e-08
4.28135e-09
1.24432e-08
3.9609e-09
1.16967e-08
3.74e-09
1.10039e-08
3.46527e-09
1.03365e-08
3.34531e-09
9.71864e-09
3.08775e-09
9.10548e-09
3.07543e-09
8.54543e-09
2.79564e-09
7.96707e-09
2.90383e-09
7.45836e-09
2.53536e-09
6.9087e-09
2.7634e-09
6.44865e-09
2.28911e-09
5.94554e-09
2.53335e-09
5.5593e-09
1.91834e-09
5.13489e-09
2.14209e-09
4.86647e-09
1.32859e-09
4.57411e-09
1.48287e-09
4.44554e-09
6.29137e-10
4.31137e-09
6.91421e-10
4.33866e-09
-1.48947e-10
4.3761e-09
-1.68821e-10
4.53072e-09
-7.85461e-10
4.6821e-09
-7.42407e-10
4.88893e-09
-1.04575e-09
5.08238e-09
-9.56504e-10
5.30085e-09
-1.1023e-09
5.49859e-09
-9.80896e-10
5.7043e-09
-1.03679e-09
5.88616e-09
-9.03658e-10
6.06795e-09
-9.1564e-10
6.22688e-09
-7.9046e-10
6.38299e-09
-7.85977e-10
6.521e-09
-6.86648e-10
6.65629e-09
-6.80852e-10
6.78602e-09
-6.45522e-10
6.91519e-09
-6.48702e-10
7.10883e-09
-9.68859e-10
7.32381e-09
-1.0524e-09
9.8433e-09
-1.36081e-08
-1.35754e-08
7.58392e-05
2.47856e-05
7.19022e-05
2.36541e-05
6.81464e-05
2.25647e-05
6.45652e-05
2.15162e-05
6.11519e-05
2.05077e-05
5.78999e-05
1.95381e-05
5.48029e-05
1.86067e-05
5.18548e-05
1.77124e-05
4.90496e-05
1.68543e-05
4.63813e-05
1.60314e-05
4.38442e-05
1.52427e-05
4.14329e-05
1.44873e-05
3.9142e-05
1.37641e-05
3.69663e-05
1.30721e-05
3.49007e-05
1.24103e-05
3.29404e-05
1.17777e-05
3.10807e-05
1.11734e-05
2.9317e-05
1.05963e-05
2.7645e-05
1.00455e-05
2.60605e-05
9.51998e-06
2.45594e-05
9.01888e-06
2.31378e-05
8.54127e-06
2.17919e-05
8.08622e-06
2.05182e-05
7.65287e-06
1.93131e-05
7.24035e-06
1.81734e-05
6.84783e-06
1.70957e-05
6.47448e-06
1.60772e-05
6.11952e-06
1.51149e-05
5.78216e-06
1.42058e-05
5.46167e-06
1.33475e-05
5.1573e-06
1.25372e-05
4.86836e-06
1.17725e-05
4.59416e-06
1.10512e-05
4.33405e-06
1.03709e-05
4.08739e-06
9.72954e-06
3.85356e-06
9.12505e-06
3.63198e-06
8.5555e-06
3.42207e-06
8.01904e-06
3.22329e-06
7.51389e-06
3.0351e-06
7.03839e-06
2.85701e-06
6.59093e-06
2.68854e-06
6.16999e-06
2.5292e-06
5.77412e-06
2.37856e-06
5.40195e-06
2.23619e-06
5.05216e-06
2.10167e-06
4.72353e-06
1.97462e-06
4.41485e-06
1.85467e-06
4.12503e-06
1.74144e-06
3.85298e-06
1.63461e-06
3.59771e-06
1.53383e-06
3.35825e-06
1.4388e-06
3.1337e-06
1.34922e-06
2.9232e-06
1.26481e-06
2.72594e-06
1.18528e-06
2.54114e-06
1.11039e-06
2.36808e-06
1.03989e-06
2.20606e-06
9.73534e-07
2.05443e-06
9.11107e-07
1.91257e-06
8.52395e-07
1.7799e-06
7.97194e-07
1.65586e-06
7.45311e-07
1.53994e-06
6.96564e-07
1.43164e-06
6.50778e-07
1.33049e-06
6.07788e-07
1.23605e-06
5.67437e-07
1.14792e-06
5.29575e-07
1.0657e-06
4.94062e-07
9.89023e-07
4.60762e-07
9.17538e-07
4.2955e-07
8.5092e-07
4.00304e-07
7.88862e-07
3.72911e-07
7.31072e-07
3.47261e-07
6.77278e-07
3.23253e-07
6.27223e-07
3.00789e-07
5.80664e-07
2.79779e-07
5.37374e-07
2.60134e-07
4.9714e-07
2.41774e-07
4.5976e-07
2.2462e-07
4.25047e-07
2.08599e-07
3.92823e-07
1.93642e-07
3.62922e-07
1.79685e-07
3.35188e-07
1.66664e-07
3.09474e-07
1.54522e-07
2.85644e-07
1.43205e-07
2.63568e-07
1.3266e-07
2.43127e-07
1.22838e-07
2.24208e-07
1.13694e-07
2.06705e-07
1.05185e-07
1.90519e-07
9.72694e-08
1.75558e-07
8.99093e-08
1.61735e-07
8.30686e-08
1.4897e-07
7.67134e-08
1.37187e-07
7.08119e-08
1.26315e-07
6.53341e-08
1.16289e-07
6.02519e-08
1.07048e-07
5.5539e-08
9.85332e-08
5.11704e-08
9.06921e-08
4.71232e-08
8.34747e-08
4.33753e-08
7.68345e-08
3.99065e-08
7.07282e-08
3.66976e-08
6.51157e-08
3.37307e-08
5.99594e-08
3.09891e-08
5.52244e-08
2.8457e-08
5.08783e-08
2.61199e-08
4.68909e-08
2.39641e-08
4.32342e-08
2.19768e-08
3.98821e-08
2.01462e-08
3.68105e-08
1.8461e-08
3.39967e-08
1.69111e-08
3.14199e-08
1.54866e-08
2.90607e-08
1.41791e-08
2.69011e-08
1.29796e-08
2.49242e-08
1.18815e-08
2.31146e-08
1.08759e-08
2.14575e-08
9.95932e-09
1.99399e-08
9.1208e-09
1.85485e-08
8.3624e-09
1.72726e-08
7.66748e-09
1.60998e-08
7.0488e-09
1.50221e-08
6.47583e-09
1.40267e-08
5.9832e-09
1.31086e-08
5.51557e-09
1.22543e-08
5.13561e-09
1.14629e-08
4.75231e-09
1.0717e-08
4.48591e-09
1.0024e-08
4.1583e-09
9.35734e-09
4.01194e-09
8.73891e-09
3.70617e-09
8.12686e-09
3.68749e-09
7.5658e-09
3.3567e-09
6.98899e-09
3.48064e-09
6.47871e-09
3.04564e-09
5.93115e-09
3.31096e-09
5.46902e-09
2.75124e-09
4.96851e-09
3.03387e-09
4.57985e-09
2.30701e-09
4.15843e-09
2.5635e-09
3.88741e-09
1.59961e-09
3.59831e-09
1.77197e-09
3.46712e-09
7.60329e-10
3.33618e-09
8.22357e-10
3.36104e-09
-1.73809e-10
3.40142e-09
-2.09191e-10
3.55378e-09
-9.3782e-10
3.70755e-09
-8.96186e-10
3.91242e-09
-1.25062e-09
4.10771e-09
-1.15179e-09
4.32456e-09
-1.31915e-09
4.52367e-09
-1.18001e-09
4.72808e-09
-1.24121e-09
4.91095e-09
-1.08652e-09
5.09173e-09
-1.09642e-09
5.25141e-09
-9.50136e-10
5.40673e-09
-9.41301e-10
5.54533e-09
-8.25244e-10
5.67998e-09
-8.15505e-10
5.81024e-09
-7.75783e-10
5.93894e-09
-7.77399e-10
6.13237e-09
-1.16229e-09
6.34755e-09
-1.26758e-09
8.6327e-09
-1.58932e-08
-1.58515e-08
7.58174e-05
2.89099e-05
7.18814e-05
2.75901e-05
6.81266e-05
2.63194e-05
6.45464e-05
2.50965e-05
6.11339e-05
2.39201e-05
5.78828e-05
2.27893e-05
5.47866e-05
2.17028e-05
5.18393e-05
2.06597e-05
4.90348e-05
1.96588e-05
4.63672e-05
1.8699e-05
4.38308e-05
1.77791e-05
4.14202e-05
1.68979e-05
3.91299e-05
1.60544e-05
3.69547e-05
1.52472e-05
3.48897e-05
1.44753e-05
3.29299e-05
1.37375e-05
3.10707e-05
1.30326e-05
2.93075e-05
1.23595e-05
2.7636e-05
1.1717e-05
2.60519e-05
1.11041e-05
2.45512e-05
1.05196e-05
2.313e-05
9.96249e-06
2.17845e-05
9.43172e-06
2.05111e-05
8.92626e-06
1.93063e-05
8.4451e-06
1.81669e-05
7.98726e-06
1.70896e-05
7.55179e-06
1.60714e-05
7.13776e-06
1.51093e-05
6.74427e-06
1.42005e-05
6.37044e-06
1.33424e-05
6.01543e-06
1.25323e-05
5.67841e-06
1.17679e-05
5.35858e-06
1.10468e-05
5.05519e-06
1.03667e-05
4.76748e-06
9.7255e-06
4.49475e-06
9.12118e-06
4.23629e-06
8.5518e-06
3.99145e-06
8.01549e-06
3.75959e-06
7.51049e-06
3.5401e-06
7.03513e-06
3.33238e-06
6.5878e-06
3.13586e-06
6.16699e-06
2.95001e-06
5.77124e-06
2.77431e-06
5.39917e-06
2.60825e-06
5.0495e-06
2.45135e-06
4.72096e-06
2.30316e-06
4.41238e-06
2.16325e-06
4.12264e-06
2.03118e-06
3.85068e-06
1.90657e-06
3.59548e-06
1.78902e-06
3.3561e-06
1.67818e-06
3.13162e-06
1.5737e-06
2.92119e-06
1.47524e-06
2.72399e-06
1.38248e-06
2.53925e-06
1.29513e-06
2.36624e-06
1.2129e-06
2.20427e-06
1.1355e-06
2.05269e-06
1.06269e-06
1.91088e-06
9.94208e-07
1.77825e-06
9.29823e-07
1.65425e-06
8.69308e-07
1.53836e-06
8.1245e-07
1.4301e-06
7.59046e-07
1.32898e-06
7.08903e-07
1.23458e-06
6.61839e-07
1.14648e-06
6.17678e-07
1.06428e-06
5.76256e-07
9.87628e-07
5.37416e-07
9.16167e-07
5.01011e-07
8.49572e-07
4.66899e-07
7.87535e-07
4.34948e-07
7.29765e-07
4.05031e-07
6.75989e-07
3.77029e-07
6.25951e-07
3.50828e-07
5.79408e-07
3.26322e-07
5.36133e-07
3.03409e-07
4.95913e-07
2.81994e-07
4.58547e-07
2.61986e-07
4.23846e-07
2.433e-07
3.91633e-07
2.25855e-07
3.61743e-07
2.09575e-07
3.34018e-07
1.94388e-07
3.08314e-07
1.80227e-07
2.84492e-07
1.67026e-07
2.62425e-07
1.54727e-07
2.41991e-07
1.43272e-07
2.23079e-07
1.32607e-07
2.05582e-07
1.22682e-07
1.89402e-07
1.13449e-07
1.74447e-07
1.04865e-07
1.60629e-07
9.68862e-08
1.47869e-07
8.94738e-08
1.3609e-07
8.25906e-08
1.25223e-07
7.62015e-08
1.15201e-07
7.02739e-08
1.05963e-07
6.47769e-08
9.74514e-08
5.96817e-08
8.96134e-08
5.49612e-08
8.23988e-08
5.05899e-08
7.57612e-08
4.65441e-08
6.96574e-08
4.28014e-08
6.40471e-08
3.9341e-08
5.88928e-08
3.61433e-08
5.41597e-08
3.31901e-08
4.98154e-08
3.04643e-08
4.58296e-08
2.79499e-08
4.21744e-08
2.5632e-08
3.88237e-08
2.34969e-08
3.57533e-08
2.15314e-08
3.29407e-08
1.97237e-08
3.0365e-08
1.80623e-08
2.80068e-08
1.65374e-08
2.58481e-08
1.51383e-08
2.3872e-08
1.38576e-08
2.20631e-08
1.26848e-08
2.04067e-08
1.16157e-08
1.88897e-08
1.06378e-08
1.7499e-08
9.75318e-09
1.62236e-08
8.94286e-09
1.50513e-08
8.22105e-09
1.39739e-08
7.55321e-09
1.2979e-08
6.97812e-09
1.20611e-08
6.43349e-09
1.12073e-08
5.98938e-09
1.04159e-08
5.54373e-09
9.67063e-09
5.2312e-09
8.9773e-09
4.85163e-09
8.31153e-09
4.67771e-09
7.6924e-09
4.3253e-09
7.08156e-09
4.29832e-09
6.5193e-09
3.91896e-09
5.94424e-09
4.0557e-09
5.43208e-09
3.5578e-09
4.88695e-09
3.85609e-09
4.42232e-09
3.21587e-09
3.92484e-09
3.53135e-09
3.53321e-09
2.69863e-09
3.11538e-09
2.98134e-09
2.84107e-09
1.87392e-09
2.55593e-09
2.05712e-09
2.42136e-09
8.94895e-10
2.29442e-09
9.49296e-10
2.31611e-09
-1.95494e-10
2.36014e-09
-2.53217e-10
2.50959e-09
-1.08728e-09
2.66637e-09
-1.05296e-09
2.86877e-09
-1.45302e-09
3.06634e-09
-1.34936e-09
3.28121e-09
-1.53402e-09
3.48202e-09
-1.38081e-09
3.68489e-09
-1.44407e-09
3.869e-09
-1.27063e-09
4.04858e-09
-1.276e-09
4.20918e-09
-1.11074e-09
4.36357e-09
-1.09568e-09
4.5029e-09
-9.64579e-10
4.6368e-09
-9.49398e-10
4.76772e-09
-9.06706e-10
4.89583e-09
-9.05512e-10
5.089e-09
-1.35547e-09
5.30329e-09
-1.48186e-09
7.28295e-09
-1.78729e-08
-1.782e-08
7.57973e-05
3.30332e-05
7.18622e-05
3.15252e-05
6.81084e-05
3.00733e-05
6.45289e-05
2.86759e-05
6.11173e-05
2.73318e-05
5.78669e-05
2.60396e-05
5.47715e-05
2.47982e-05
5.18249e-05
2.36063e-05
4.90211e-05
2.24626e-05
4.63541e-05
2.13659e-05
4.38183e-05
2.03148e-05
4.14083e-05
1.9308e-05
3.91185e-05
1.83441e-05
3.69439e-05
1.74219e-05
3.48794e-05
1.65398e-05
3.29201e-05
1.56968e-05
3.10613e-05
1.48913e-05
2.92986e-05
1.41222e-05
2.76275e-05
1.33881e-05
2.60438e-05
1.26877e-05
2.45435e-05
1.20199e-05
2.31226e-05
1.13834e-05
2.17774e-05
1.07769e-05
2.05044e-05
1.01993e-05
1.92999e-05
9.64954e-06
1.81608e-05
9.1264e-06
1.70838e-05
8.62881e-06
1.60658e-05
8.15573e-06
1.5104e-05
7.70612e-06
1.41954e-05
7.27897e-06
1.33375e-05
6.87332e-06
1.25277e-05
6.48824e-06
1.17635e-05
6.1228e-06
1.10425e-05
5.77614e-06
1.03626e-05
5.44739e-06
9.72162e-06
5.13576e-06
9.11747e-06
4.84044e-06
8.54824e-06
4.56068e-06
8.01208e-06
4.29576e-06
7.50722e-06
4.04496e-06
7.03199e-06
3.80761e-06
6.58478e-06
3.58307e-06
6.16409e-06
3.37071e-06
5.76845e-06
3.16995e-06
5.39649e-06
2.9802e-06
5.04691e-06
2.80093e-06
4.71847e-06
2.63161e-06
4.40998e-06
2.47174e-06
4.12032e-06
2.32084e-06
3.84844e-06
2.17845e-06
3.59332e-06
2.04414e-06
3.354e-06
1.9175e-06
3.12959e-06
1.79811e-06
2.91922e-06
1.68561e-06
2.72208e-06
1.57962e-06
2.53739e-06
1.47982e-06
2.36443e-06
1.38585e-06
2.20251e-06
1.29742e-06
2.05098e-06
1.21423e-06
1.90921e-06
1.13598e-06
1.77662e-06
1.06241e-06
1.65266e-06
9.93267e-07
1.53681e-06
9.283e-07
1.42858e-06
8.67281e-07
1.32749e-06
8.09987e-07
1.23312e-06
7.56211e-07
1.14504e-06
7.05752e-07
1.06288e-06
6.58424e-07
9.86247e-07
6.14046e-07
9.14809e-07
5.72449e-07
8.48236e-07
5.33473e-07
7.86218e-07
4.96966e-07
7.28467e-07
4.62782e-07
6.74709e-07