/*--------------------------------*- C++ -*----------------------------------*\
| =========                 |                                                 |
| \\      /  F ield         | OpenFOAM: The Open Source CFD Toolbox           |
|  \\    /   O peration     | Version:  v1912                                 |
|   \\  /    A nd           | Website:  www.openfoam.com                      |
|    \\/     M anipulation  |                                                 |
\*---------------------------------------------------------------------------*/
FoamFile
{
    version     2.0;
    format      ascii;
    class       volScalarField;
    location    "70";
    object      p;
}
// * * * * * * * * * * * * * * * * * * * * * * * * * * * * * * * * * * * * * //

dimensions      [1 -1 -2 0 0 0 0];


internalField   nonuniform List<scalar> 
14268
(
160458
159876
159309
158775
158280
157834
157445
157117
156856
156668
156560
156538
156609
156782
157062
157451
157944
158542
159241
160031
160896
161822
162848
163875
164910
165931
166914
167832
168662
169378
169963
170398
170671
170772
170694
170448
170038
169473
168770
167951
167038
166059
165036
163992
162945
161909
160895
159909
158958
158043
157168
156335
155552
154823
154159
153570
153066
152656
152348
152149
152062
152088
152220
152455
152787
153211
153720
154311
154980
155726
156544
157434
158391
159409
160480
161594
162761
163933
165099
166242
167341
168375
169322
170163
170885
171473
152916
152346
151791
151269
150784
150349
149967
149647
149392
149209
149106
149093
149162
149336
149619
150010
150504
151102
151800
152591
153455
154380
155407
156435
157471
158495
159480
160402
161234
161954
162542
162979
163254
163356
163278
163031
162618
162050
161344
160521
159605
158622
157596
156549
155500
154463
153448
152462
151510
150594
149719
148886
148101
147372
146706
146116
145610
145199
144891
144692
144605
144631
144764
144999
145332
145756
146266
146857
147527
148272
149091
149981
150938
151957
153030
154145
155315
156489
157657
158803
159906
160943
161893
162738
163462
164044
145451
144880
144324
143802
143318
142882
142501
142180
141925
141741
141637
141609
141689
141865
142148
142538
143033
143632
144333
145125
145992
146920
147955
148987
150029
151059
152052
152981
153821
154548
155141
155584
155861
155963
155885
155636
155219
154645
153932
153102
152178
151188
150155
149103
148051
147011
145994
145007
144054
143138
142262
141428
140641
139910
139242
138649
138141
137728
137418
137218
137131
137158
137292
137529
137864
138289
138800
139391
140061
140807
141626
142517
143475
144496
145571
146689
147863
149042
150216
151368
152477
153521
154478
155328
156057
156643
137929
137365
136815
136300
135822
135392
135016
134699
134447
134265
134161
134143
134217
134391
134674
135064
135559
136159
136860
137655
138525
139455
140499
141536
142587
143627
144630
145571
146422
147159
147762
148211
148493
148599
148518
148265
147842
147259
146536
145694
144759
143758
142716
141656
140597
139553
138533
137545
136592
135675
134797
133961
133172
132437
131766
131168
130657
130241
129929
129728
129642
129670
129806
130045
130382
130809
131321
131914
132584
133330
134150
135041
136001
137024
138102
139225
140407
141592
142774
143936
145055
146108
147075
147935
148671
149263
130447
129880
129330
128813
128335
127905
127528
127211
126957
126774
126669
126644
126717
126892
127174
127563
128058
128661
129366
130165
131041
131975
133035
134079
135143
136196
137215
138171
139037
139789
140403
140862
141151
141257
141177
140918
140486
139892
139155
138297
137347
136331
135276
134206
133139
132090
131067
130077
129122
128205
127325
126487
125694
124955
124278
123675
123159
122739
122424
122221
122137
122166
122305
122547
122886
123316
123830
124424
125095
125842
126662
127554
128516
129542
130625
131753
132945
134139
135333
136507
137639
138706
139686
140558
141305
141905
122938
122372
121823
121309
120833
120406
120032
119715
119462
119278
119170
119148
119215
119387
119668
120054
120550
121154
121862
122665
123547
124486
125564
126617
127696
128767
129805
130780
131666
132436
133066
133537
133833
133944
133861
133596
133153
132544
131789
130912
129942
128907
127836
126753
125676
124620
123593
122601
121646
120727
119846
119004
118208
117462
116779
116169
115646
115221
114902
114698
114615
114647
114788
115034
115377
115810
116327
116923
117595
118342
119162
120056
121020
122050
123138
124273
125477
126682
127890
129080
130229
131313
132310
133197
133958
134569
115446
114875
114323
113807
113330
112902
112526
112209
111953
111766
111655
111625
111691
111860
112138
112523
113020
113626
114339
115150
116040
116985
118085
119150
120248
121340
122401
123400
124309
125101
125750
126236
126542
126656
126571
126299
125842
125215
124438
123538
122543
121487
120396
119297
118208
117144
116113
115119
114162
113242
112359
111514
110712
109960
109268
108650
108119
107688
107364
107156
107078
107111
107256
107507
107855
108292
108812
109409
110082
110830
111651
112545
113512
114546
115641
116784
118003
119222
120447
121656
122825
123930
124947
125853
126630
127256
107941
107368
106813
106296
105819
105391
105016
104697
104440
104250
104133
104100
104159
104323
104597
104980
105476
106085
106802
107621
108522
109492
110578
111674
112796
113914
115002
116030
116967
117785
118456
118960
119278
119397
119309
119027
118555
117905
117103
116174
115151
114068
112954
111836
110734
109661
108625
107629
106671
105751
104866
104017
103208
102447
101746
101118
100578
100138
99809.1
99599
99522.3
99558
99709
99966.1
100320
100762
101285
101885
102558
103306
104127
105023
105992
107032
108134
109287
110522
111757
113003
114234
115427
116556
117597
118526
119323
119965
100443
99861.8
99302.1
98780.7
98301.1
97871.6
97494.5
97173.9
96913
96717.7
96595.4
96554.9
96608.2
96766.8
97036.1
97417
97913.7
98525.8
99249
100076
100991
101980
103068
104192
105342
106489
107609
108669
109639
110487
111185
111709
112041
112165
112074
111782
111290
110616
109783
108821
107765
106651
105510
104371
103253
102171
101130
100132
99173.6
98252.5
97365.5
96511.7
95696
94925.3
94211.9
93572.1
93020.6
92571.8
92236.8
92024.9
91947.7
91988.7
92146.2
92410.5
92771.2
93218.8
93746.1
94348.2
95022.8
95770.1
96591.2
97487.8
98460
99505.8
100618
101787
103028
104287
105557
106814
108035
109192
110260
111215
112035
112697
92939.2
92350.6
91785.2
91259.7
90777.9
90347
89968.6
89645.7
89380.9
89180
89050.4
89002.7
89045.9
89197.3
89460.6
89838.1
90334.5
90949.5
91679
92515.9
93444.3
94451.9
95551.2
96703.5
97883.3
99064.1
100220
101318
102325
103208
103937
104485
104832
104963
104868
104563
104051
103347
102479
101479
100385
99234.7
98063.7
96900.1
95764.8
94672.6
93626.7
92627
91669
90747.7
89858.7
88999.9
88175.8
87393.5
86666.6
86012.8
85448.1
84988.7
84646.5
84431.8
84355.5
84402.2
84567.5
84840.5
85209.4
85663.8
86195.8
86800.4
87475.8
88222.6
89043.2
89940.4
90915.5
91967.8
93089.2
94275.2
95528.3
96812.1
98109
99395.8
100647
101836
102937
103921
104768
105452
85435.9
84836.9
84263.4
83732.2
83246.8
82813.5
82432.9
82106.7
81837
81629
81490.6
81434.5
81466.9
81609.9
81866.7
82240.6
82736.9
83355.5
84092.1
84939.5
85882.9
86909.5
88025.6
89208.1
90420.8
91638.9
92835.5
93976.6
95026.2
95949.1
96712.5
97287.9
97653
97791.1
97692.1
97373.3
96836
96098.3
95190.1
94146.7
93008.8
91818.5
90613
89422.4
88267.8
87165.4
86114.5
85114.3
84157.3
83236.6
82345.9
81481.7
80648
79852.5
79109.8
78439.5
77859.6
77387.8
77037.5
76819.4
76744.7
76798.3
76972.9
77256
77634.6
78096.8
78634.3
79241.7
79917.4
80663.2
81482.7
82380
83357.9
84416.8
85548.8
86750.9
88021.2
89331.3
90658.4
91978.4
93265.2
94490.3
95626.2
96644.8
97521.6
98231.2
77930
77319.3
76736.6
76199
75709.9
75274.4
74891.7
74562.2
74287
74070.9
73922.3
73854.8
73875
74006.8
74255.4
74624.8
75120.5
75742.7
76487
77345.5
78305.2
79352.1
80488.9
81704.3
82953.1
84212.7
85454.9
86644
87741.6
88709.6
89512.3
90118.7
90504.4
90651.1
90547.2
90212.5
89647.3
88871.3
87917.5
86824.5
85637.1
84401.1
83157
81936.6
80761.4
79647.9
78592.9
77593.5
76638.8
75719.6
74827.5
73957.6
73113.1
72302.3
71541.5
70852.2
70254.6
69768.5
69408.8
69187
69115.4
69176.6
69362
69657.2
70046.9
70518.3
71061.9
71672.1
72347.9
73092
73909.6
74806.3
75786.5
76852.1
77995.5
79214.5
80505.5
81844.2
83204.6
84561.4
85887.5
87153
88329
89385.6
90296.6
91035
70422
69797.1
69203.5
68658.3
68164.8
67726.7
67341.6
67008.4
66726.9
66501.5
66340.7
66258.9
66269.5
66386.4
66625.7
66989.8
67484.8
68111
68863.6
69733.6
70711.1
71779.8
72940.3
74191.5
75479.2
76784.5
78077.3
79320
80471.3
81490.1
82337.3
82978.5
83387.4
83543
83434.3
83082.1
82485.3
81666.2
80660.8
79511.8
78268.6
76981.4
75694.3
74441.4
73244.4
72119.2
71061.1
70064.2
69113.5
68197.1
67304.2
66428.2
65571.6
64743.2
63961.8
63250.4
62632.3
62129.8
61759.3
61533.8
61466.2
61536.3
61734.5
62043.8
62446.7
62928.6
63479.1
64092.2
64767.4
65509
66323.7
67218.9
68200.7
69272.7
70428.2
71665.3
72979.8
74349.9
75746.8
77144.2
78513.9
79824.2
81044.9
82143.9
83092.9
83863.8
62911.8
62270.7
61664.6
61111.1
60613.1
60172.7
59785.5
59448.5
59160
58924.1
58749.2
58651.1
58649.6
58748.1
58977
59335
59829.2
60459.7
61221.4
62102.9
63099.5
64191.7
65378.1
66668.2
67998
69353.3
70702.1
72004.3
73215.6
74291.3
75188.2
75868.8
76303.8
76470.6
76355.9
75984
75351.8
74484.2
73420.6
72208.5
70902.4
69557.9
68223.2
66934.8
65715.1
64578.3
63518.3
62526.1
61581.6
60669.4
59776.6
58894.2
58024
57175.7
56370.5
55633.9
54992.3
54470.9
54087.8
53858.8
53797.1
53876.8
54090.2
54416.1
54834.3
55328.2
55886.3
56502.4
57176.5
57914.3
58724.7
59617.2
60599.8
61677.6
62846.1
64102.6
65442.9
66847.4
68284.2
69726.3
71144
72503.8
73773.9
74919.9
75911.4
76718.4
57824.5
57170.8
56555.1
55995.5
55494.5
55052.8
54664.5
54325.1
54031.6
53787.6
53602
53491.3
53477.6
53566
53784.9
54137.9
54631.2
55264.9
56033.4
56924.2
57933.1
59043.1
60248.5
61566.7
62927.1
64319.5
65709.9
67056.7
68313.2
69431.8
70366.4
71076.7
71531.6
71706.7
71587.6
71200.7
70541.5
69636.9
68528.8
67268.6
65914.9
64527.2
63157.3
61843.1
60607.5
59463.5
58403.3
57416.3
56477.8
55570.1
54677.9
53791.2
52910.6
52047
51223.4
50467
49807.2
49271
48878.1
48647
48588.5
48677.5
48903.1
49242.2
49672.4
50175.6
50739.5
51357.5
52030.2
52764.6
53571
54460.5
55443
56523.9
57701.9
58972.6
60331.9
61761.7
63227.9
64703.1
66156.4
67553.1
68860
70041.3
71064.6
71898.6
55163.7
54503.2
53882.3
53319.4
52816.8
52374.6
51985.8
51645.2
51349
51100.5
50909
50791.3
50770.1
50854
51066.9
51417.2
51910.2
52545.5
53317.6
54213.8
55229
56348.5
57564
58897.3
60274.1
61686.4
63099.4
64470.2
65751.3
66893.2
67848.2
68574.8
69040.6
69220
69098.5
68703.6
68029.7
67104.8
65972.6
64686.2
63306.5
61895.5
60506.4
59178.5
57934.5
56786.7
55726.9
54743.1
53808.2
52903
52011.3
51122.3
50236.1
49364.1
48530.3
47763.1
47093.1
46548.9
46150.7
45918.4
45861.8
45956
46188.4
46534.8
46971.6
47479.9
48046.9
48665.9
49337.7
50070.1
50874.1
51761.9
52744.2
53826.6
55009.7
56288
57657.4
59100.8
60582.9
62075.9
63548.4
64965.1
66292
67492.3
68532.9
69381.4
52502.6
51834.9
51208.5
50642.2
50138
49695.4
49306.2
48964.3
48665.4
48412.4
48214.6
48089.6
48060.7
48139.8
48346.4
48693.9
49186.4
49823.4
50599
51500.8
52522.6
53651.7
54877.5
56226.2
57619.7
59052.6
60488.8
61884.6
63191.1
64357.3
65333.6
66077
66554
66738.2
66614.1
66210.8
65521.7
64575.9
63418.5
62104.9
60698.3
59262.9
57854.2
56512
55259.7
54108.3
53049.3
52068.8
51137.9
50235.6
49344.5
48453.2
47561.1
46680.1
45835.7
45057
44376.6
43823.8
43420.1
43186.6
43132.2
43231.8
43471.4
43825.6
44269.3
44783
45353.3
45973.1
46644
47374.2
48175.6
49061.4
50043.4
51126.9
52315.3
53601.4
54981.2
56438.7
57937
59448.5
60940.8
62378.1
63725.5
64945.5
66004
66867.7
49841.1
49165.7
48533.7
47963.9
47458.2
47015.2
46625.8
46282.8
45981.1
45723.3
45518.9
45386.2
45349
45423.3
45623
45967.8
46459.7
47098.4
47877.5
48785.1
49813.8
50952.5
52189
53553.3
54964
56418
57878.1
59299.8
60632.7
61824
62822.3
63583.3
64072.2
64261.4
64134.6
63722.7
63017.8
62050.1
60866.6
59524.7
58090.1
56629.6
55200.4
53843.7
52582.9
51428
50370.2
49393.3
48466.9
47567.8
46677.5
45783.8
44885.4
43995.2
43139.7
42349.1
41657.5
41095.9
40686.4
40451.7
40399.6
40505
40752.2
41114.5
41565.6
42084.9
42658.5
43279.3
43949.1
44676.8
45475.4
46359
47340.4
48424.8
49618.6
50912.7
52303.2
53775.1
55290.1
56820.6
58333.4
59791.9
61160.5
62401
63477.9
64357.3
47179
46495.8
45857.8
45284.5
44777.4
44334.1
43944.6
43600.5
43296
43033.1
42822
42681.2
42635.5
42704.4
42897
43238.8
43730.3
44370.6
45153.1
46067
47102.6
48251
49498.4
50878.5
52306.8
53782.5
55267.4
56715.8
58076
59293.4
60314.7
61093.9
61595
61789.1
61659.8
61239.1
60517.8
59527.5
58317
56945.6
55481.9
53995.1
52544.9
51173.2
49903.8
48745.7
47689.3
46716.5
45795
44899.5
44010.2
43114.1
42209.3
41309.4
40442.3
39639.1
38936
38365
37949.3
37713.4
37663.9
37775.4
38030.8
38401.7
38860.5
39385.7
39962.8
40584.5
41253
41978.1
42773.5
43654.5
44635.2
45720.7
46919.3
48222
49623.3
51110.1
52642.3
54192.3
55726.1
57206.7
58597.2
59858.8
60954.8
61850.3
44516.4
43824.9
43180.7
42603.9
42095.3
41652
41262.5
40917.5
40610
40342.1
40123.7
39974.6
39919.8
39983.1
40168
40506.8
40997.8
41640
42425.6
43346.1
44388.9
45547.1
46805.6
48201.8
49648
51146.1
52656.5
54132.6
55521
56765.5
57810.6
58608.8
59122.7
59322.5
59190.1
58760.2
58021.9
57008.2
55769.5
54367.3
52873.3
51359.4
49887.3
48500.3
47222.3
46061.2
45006.8
44038.5
43122.5
42231
41342.9
40444.4
39533
38622.9
37743.6
36927.1
36211.8
35631
35209
34971.8
34925
35043.1
35307.1
35687.1
36154
36685.5
37266.2
37888.8
38555.8
39277.9
40070
40948.1
41927.7
43014.7
44217.4
45529
46941.4
48443.5
49993.4
51563.6
53119.1
54622.3
56035.4
57318.7
58434.6
59346.8
41853.2
41153.1
40502.6
39922.1
39412.2
38968.9
38579.7
38233.7
37923.4
37650
37424.3
37266.2
37202.2
37258.3
37437.3
37772
38262.4
38906.4
39695.1
40622.5
41672.7
42840.8
44110.7
45522.9
46987.7
48508.8
50045.5
51550.1
52967.8
54240.4
55310.3
56128.1
56655.2
56860.1
56725.3
56286
55530.2
54491.9
53223.7
51789.8
50264.1
48722.1
47227.5
45824.9
44538.3
43374.6
42322.6
41359.2
40449.4
39562.3
38675.6
37774.8
36856.3
35935.6
35043.4
34213.1
33484.9
32893.8
32465.1
32226.8
32183
32307.9
32581.1
32970.8
33446.3
33984.2
34568.7
35192.1
35857.4
36576.3
37364.6
38239.5
39217.7
40306.2
41513.1
42833.6
44257.6
45775.4
47343.4
48934.3
50512.2
52038.7
53475.1
54781.1
55917.5
56846.7
39095.6
38386.2
37728.7
37144.4
36633.3
36190.3
35801.4
35454.7
35141.3
34862.3
34628.4
34460.6
34386.4
34433.6
34608.7
34937.6
35427.4
36073.6
36865.1
37800.1
38858
40036.6
41318.5
42747.4
44231.7
45777.3
47342
48877.2
50326.5
51629.1
52725.7
53564.7
54106.1
54317.3
54179.1
53729.8
52954.8
51890.1
50590.5
49122.1
47562.6
45990.3
44471.7
43052.6
41757.1
40591
39542
38584.2
37681.4
36799.4
35914.3
35011.1
34085.1
33152.7
32246.6
31401.2
30659.1
30056.9
29620.9
29381.3
29340.9
29473.4
29756.6
30157
30641.7
31186.7
31775.2
32399.4
33062.8
33778
34562.2
35433.4
36409.6
37499.8
38711
40040.8
41477
43011.4
44598.8
46211.8
47813.4
49365
50826.3
52156.3
53314.7
54262.3
36243.3
35523.9
34859
34270.7
33758.4
33316
32927.8
32580.4
32263.9
31978.6
31736
31557.6
31472.9
31509.6
31680.7
32003.2
32492.3
33140.9
33935.3
34878.4
35944.5
37134
38428.9
39874.6
41379.9
42951.5
44546.2
46114.1
47597.1
48932.2
50057.3
50919.2
51476
51694.2
51552.2
51091.9
50296.5
49203.7
47870.2
46364.3
44768.4
43163.6
41619.3
40182.6
38878.1
37710.1
36664.6
35713.3
34818.5
33942.2
33059.2
32153.4
31219.2
30274.3
29353
28491.1
27734
27119.6
26675.6
26434.9
26398.1
26539.1
26833.2
27245.3
27740.2
28292.9
28885.6
29510.6
30171.8
30882.9
31662.3
32529.4
33502.9
34595.1
35810.7
37150.1
38599.3
40151.5
41759.3
43395.8
45022.9
46601.2
48089
49444.8
50626.9
51593.9
33390.3
32660.3
31987.8
31395.4
30882
30440.3
30053.3
29705.4
29385.7
29093.9
28842.2
28652.6
28555.7
28582.8
28749.3
29065.1
29553.6
30204.8
31002.9
31952.5
33027.9
34228.4
35536.9
36998.9
38525.9
40124.2
41749.8
43351.6
44869.7
46238.6
47393.6
48279.1
48851.8
49075.4
48931.3
48459.9
47643.4
46520.9
45151.8
43607.6
41973.2
40334.8
38764
37309.4
35996
34826.3
33785.1
32840.8
31955
31085
30204.3
29296.2
28353.3
27395.1
26457.7
25578.4
24805.5
24178.3
23725.9
23484.1
23451.3
23601.3
23907.3
24331.7
24837.4
25398.1
25995.3
26620.9
27279.6
27986.2
28760.4
29622.9
30593
31687.4
32907.3
34256.4
35719.1
37289.4
38918.4
40579.2
42232.4
43838.3
45353.5
46736.1
47942.7
48929.8
30536.4
29795.6
29115
28518.6
28004.5
27563.8
27178.1
26829.9
26506.9
26208.6
25947
25745.6
25637.6
25652.6
25814.7
26123.2
26611.2
27264.9
28067.9
29022.6
30107.9
31319.8
32642.6
34119.7
35669.6
37295.4
38952.8
40589.7
42144.2
43548.1
44734.1
45644.4
46234
46467.1
46317.5
45834
44995.4
43841.9
42435.7
40851.2
39177.3
37503.5
35905.4
34432.4
33110.4
31939.7
30903.5
29966.9
29090.8
28227.8
27349.7
26439.1
25487.4
24515.1
23560.8
22663.3
21873.7
21233.1
20771.7
20529.1
20500.5
20660.1
20978.6
21416.1
21933.3
22502.4
23104.2
23730.4
24386.3
25088
25856.5
26714
27680.1
28776.6
30001
31359.8
32836.1
34425.2
36075.7
37761.6
39441.8
41076.2
42619.6
44029.8
45262
46269.7
27681.6
26929.2
26240.3
25639.8
25125
24685.8
24301.8
23953.5
23627.4
23322.2
23050.5
22836.7
22715.1
22720.5
22874.6
23178.9
23665
24321.1
25129.5
26089.5
27184.5
28407.9
29747.3
31235.8
32810.9
34464.8
36155.1
37828.3
39420.6
40860.9
42079
43015.1
43622
43860
43709
43213.7
42352.2
41166.8
39722
38095
36380.2
34669.9
33043.5
31551.8
30221.5
29050.2
28019.6
27091.3
26226.1
25370.8
24495.6
23582.6
22621.5
21634.4
20662.3
19745.7
18938.6
18283.8
17812.8
17569.6
17545.3
17715.4
18047.1
18498.6
19027.9
19605.8
20212.5
20839.1
21491.9
22188.3
22950.6
23802.5
24764.9
25861.9
27091.5
28460
29950.5
31558.7
33231.5
34943.1
36651.2
38315.1
39887.5
41326.2
42585
43613.8
24826
24061.8
23364.3
22759.7
22244.6
21807.2
21425.2
21077.1
20747.8
20435.4
20152.8
19926.1
19787
19784.4
19929.8
20232.5
20715.1
21372.9
22188
23153.2
24257.6
25492.7
26848.1
28349.7
29949.7
31632.4
33356.6
35067.2
36698.7
38176.8
39428.2
40391.4
41016.7
41264.6
41108.1
40600
39714.3
38495.7
37010.7
35339.8
33581.7
31833.7
30177.8
28667.1
27328.6
26157.3
25133
24214.5
23361
22513.8
21642
20726.7
19755.6
18753
17762.2
16825.5
16000.1
15330.4
14849.1
14605.7
14585.8
14767
15113
15579.2
16121.2
16708.4
17320
17947.1
18596.5
19287.1
20042.6
20888.1
21847.7
22943.2
24178.4
25557
27061.9
28689.7
30385.4
32123.6
33860.3
35554.6
37157
38625
39911.4
40962.1
21969
21192.1
20485.6
19877
19361.7
18926.5
18547.2
18199.6
17867.2
17547.4
17253.7
17013.3
16861.8
16844.2
16981.9
17282.1
17761.5
18420.2
19243.1
20213.5
21327.3
22574
23945.1
25461.2
27085.7
28797.9
30557
32306.5
33978.7
35496.2
36782.4
37773.3
38417.5
38672.8
38513.5
37992.9
37081.9
35828.8
34302
32585.3
30781.4
28994.4
27308.5
25778.3
24431.8
23261.3
22243.8
21336.6
20495
19657.3
18789.3
17872
16890.6
15871.5
14860.9
13902.7
13057.9
12372.5
11879.9
11636.7
11621.9
11815.1
12175.9
12657.6
13213
13810
14426.7
15054.1
15699.8
16384.3
17132.7
17970.8
18927.8
20021.4
21261.9
22650.7
24170.3
25818
27537.3
29303
31069.2
32794.9
34428.3
35926.6
37241.8
38314.8
19111.5
18322
17606.4
16993.5
16478.5
16045.9
15669.6
15322.6
14986.9
14659.3
14353.7
14099
13933.2
13902.6
14028.4
14328.4
14804.2
15462.8
16294.6
17270.5
18393.4
19651.7
21038.4
22570.1
24219.2
25961.3
27756.2
29545.8
31260.2
32818.9
34141.4
35161.5
35825.3
36089
35925.5
35391.5
34453.7
33164.6
31594.4
29830.3
27979.7
26152
24435.2
22885
21530.5
20361.7
19352.1
18457.2
17629.3
16801.7
15938
15018.7
14025.5
12989
11957.7
10977.1
10111.9
9410.19
8910.11
8659.2
8656.82
8858.85
9235.52
9733.92
10303.6
10911.6
11533.7
12161.1
12801.8
13479.6
14220.4
15051.6
16003.7
17096.5
18341.8
19741.1
21275.9
22943.9
24687.1
26481
28277.4
30035.4
31700.8
33230.9
34576.1
35672.3
16252
15448.4
14722.9
14106.3
13591.5
13162.3
12789.8
12444.2
12105.7
11770.2
11452.3
11182.5
11001.8
10957.9
11070.7
11371.4
11842.3
12502.6
13340.7
14324.1
15456.2
16725.9
18128
19675.9
21349.7
23122.4
24954.3
26785.3
28543.5
30144.5
31504.6
32555.1
33239.6
33512.6
33345.1
32796.6
31831.2
30505.6
28890.6
27077
25177.4
23306
21557.1
19987.1
18624.7
17458.5
16457.8
15576.4
14762.8
13945.6
13086.1
12166.4
11161.2
10105.9
9053.18
8048.66
7162.31
6444.13
5935.03
5675.77
5675.02
5895.82
6293.01
6809.54
7394.15
8012.93
8640.75
9268.11
9903.91
10574.1
11305.1
12130.2
13074.7
14167.3
15417.8
16828
18378.5
20067.3
21835.2
23658
25485.6
27276.9
28974.9
30537.3
31914
33034.1
13392.1
12575.7
11841
11220
10706.1
10280.2
9911.76
9567.06
9224.86
8880.54
8549.57
8264.14
8067.15
8010.23
8111.43
8405.65
8876.36
9540.49
10380.8
11372.7
12514.1
13795.6
15213.7
16778.6
18476.9
20281
22151.5
24025.4
25829
27473.6
28872.4
29954.6
30660.6
30943.1
30772.9
30210.2
29216.7
27852.5
26189.3
24322.7
22371.5
20455.8
18674.6
17084.9
15714.3
14551.3
13560.5
12693.7
11894.9
11089.7
10235.2
9313.96
8299.05
7224.89
6151.34
5125.83
4227.1
3511.62
3022.47
2778.61
2798.62
3008.55
3386.04
3889.24
4482.87
5113.12
5746.48
6373.59
7005.3
7667.59
8389.81
9205.43
10142.3
11233.8
12488.9
13910.5
15477.4
17187.2
18980.5
20833.5
22693.9
24519.5
26251.2
27846.5
29255.7
30400.5
10531
9697.8
8951.06
8326.17
7813.75
7392.49
7029.14
6687.23
6343.63
5991.72
5647.5
5345.17
5131.76
5058.95
5146.9
5430.83
5909.27
6575.97
7418.91
8416.81
9567.61
10860.8
12295.3
13877.9
15600.9
17436.5
19345.9
21264.8
23115.8
24806.2
26245.3
27360.3
28088.6
28381.2
28206.9
27628
26604.3
25198.7
23485.9
21566.3
19563.7
17602.8
15787.4
14176.8
12798.4
11640.1
10660.9
9810.25
9028.56
8236.79
7388.62
6465.87
5439.52
4353.03
3283.31
2324.81
1618.32
1143.4
852.659
717.498
718.695
827.215
1036.37
1360.48
1820.39
2362.41
2922.72
3499.48
4105.07
4758.36
5474.5
6279
7207.9
8297.52
9556.52
10989.2
12572.8
14304
16123.3
18006.8
19900.3
21762.2
23528.9
25158.3
26601.6
27771.7
7664.53
6820.83
6068.28
5441.85
4928.92
4513.17
4157.7
3822.33
3483.83
3135.93
2799.67
2511.6
2314.98
2244.01
2330.74
2578.39
3009.05
3625.64
4453.43
5460.15
6620.37
7923.8
9373.64
10974.2
12721.8
14589.6
16538.4
18502.1
20402.8
22142.4
23623.4
24772.5
25523.7
25825.1
25647.6
25052.4
23997.6
22550.7
20789
18814.6
16756.5
14746
12894.1
11263.4
9878.59
8726.29
7759.95
6926.83
6163.83
5387.95
4550.54
3641.79
2657.75
1742.52
1031.92
510.915
257.9
144.133
85.5499
61.5671
59.7604
73.0174
106.548
180.694
331.184
554.958
819.288
1136.53
1537.58
2056.03
2661.8
3380.22
4268.16
5357.65
6621.09
8065.43
9665.85
11418.4
13264.4
15179.1
17105.8
19003.6
20806.9
22472.6
23951.9
25148.1
4809.74
3948.25
3190.41
2578.17
2111
1777.11
1540.13
1331.33
1126.78
923.682
738.109
592.78
505.121
474.31
508.309
614.543
815.859
1162
1750.36
2616.25
3683.18
4982.85
6448.26
8067.15
9839.4
11740.1
13730.7
15740.5
17690.8
19479.8
21005.6
22190.9
22966.4
23279.6
23099
22487.5
21402
19912.7
18097.8
16060.3
13942.3
11882
9995.37
8346.18
6956.52
5812.71
4863.67
4056.35
3330.5
2617.41
1912.93
1284.1
696.291
294.706
118.609
31.9067
19.1501
18.8873
19.1897
19.5782
19.7371
20.018
20.8772
23.1102
28.7664
41.8952
69.5553
125.072
231.873
421.216
679.192
1044.34
1632.03
2538.65
3691.65
5136.36
6755.47
8529.53
10403.4
12350.5
14312.4
16246.4
18085.6
19787.6
21305.7
22529.5
2041.8
1414.82
940.756
599.691
383.7
262.806
197.144
153.014
114.316
79.9189
53.267
37.2996
30.9124
29.9221
32.4672
40.5897
62.0185
121.921
291.472
646.188
1214.07
2215.8
3536.88
5153.52
6951.72
8887.31
10921.1
12980.6
14983.1
16820.4
18391.1
19614.6
20416.1
20739.8
20556.5
19928.6
18810.5
17273.1
15400.1
13300.2
11123.7
9014.62
7094.16
5429.87
4044.11
2946.18
2115.08
1531.72
1075.68
673.736
351.794
171.823
50.8291
12.6224
13.5821
13.5075
14.4749
14.3554
14.6127
14.8684
14.8583
14.6843
14.4398
14.1975
14.1719
14.5058
15.1891
16.9232
20.9604
29.5106
49.3548
101.964
254.041
613.002
1229.67
2353.76
3844.1
5633.65
7538.41
9520.13
11518.6
13491.7
15367.9
17105.1
18661.9
19915
373.9
180.401
83.394
30.5299
12.1316
10.9735
10.7187
10.5798
10.4494
10.4192
10.5018
10.7505
10.8773
10.8081
10.9218
11.1792
11.4172
12.9409
19.2846
42.5138
136.775
476.399
1136.7
2379.53
4054.26
6025.75
8108.21
10218.7
12277.1
14167.4
15782.7
17044.4
17872.4
18207.9
18020.4
17374.1
16220.5
14633.4
12703.6
10544.2
8307.86
6147.94
4201.46
2587.68
1493.86
819.442
414.83
227.368
118.589
42.7494
8.10781
7.71043
6.92342
9.00539
9.91869
10.0537
10.7997
10.7497
11.0257
11.2559
11.2907
11.1203
10.8107
10.4378
10.1372
9.93681
9.67574
9.56901
9.81934
10.2551
10.7408
12.2845
18.2522
39.0349
135.813
532.542
1341.64
2811.58
4663.69
6683.44
8723.12
10736.2
12652.5
14427.8
16023.3
17305.6
9.70929
8.08386
8.2715
8.05274
7.67497
7.17167
6.8278
6.6251
6.45703
6.41102
6.47052
6.69058
6.80145
6.73841
6.68457
6.61649
6.22285
6.00133
6.32435
6.46602
9.44358
27.2912
118.489
550.084
1502.21
3197.44
5286.71
7455.32
9570.28
11516.8
13180.5
14481.7
15336.1
15683
15493.8
14826.9
13636.7
12000.9
10015.8
7792.31
5494.08
3309.4
1615.33
624.551
211.127
63.9518
8.42971
3.47948
2.89308
2.46207
3.38759
4.17354
3.64829
5.49243
6.28733
6.55183
7.23928
7.23795
7.50337
7.70369
7.70735
7.55644
7.28452
6.93108
6.6488
6.4414
6.12955
5.91294
5.94648
5.96088
5.74127
5.62515
6.25148
6.47395
9.1166
27.981
161.559
758.31
1996.31
3843.07
5921.64
7979.85
9937.02
11752.2
13390.5
14701.8
5.23926
4.56221
4.70739
4.44598
4.12338
3.66302
3.32442
3.12643
2.95466
2.89945
2.94435
3.13367
3.22807
3.17467
3.13889
3.06209
2.67808
2.32861
2.28387
1.51881
0.938593
1.55956
5.49103
28.3074
208.535
977.059
2567
4685.96
6865.48
8867.44
10582.4
11926.1
12808.1
13166.6
12977.8
12288
11061.9
9377.06
7333.2
5042.79
2740.79
1047.94
241.947
29.042
-0.588022
-0.304707
-0.522331
-0.0753365
-0.553263
-0.876986
-0.0140027
0.677864
0.324106
1.97951
2.72878
3.0666
3.67752
3.72971
3.98064
4.17323
4.20199
4.03891
3.7746
3.44363
3.16267
2.94885
2.65716
2.44311
2.43387
2.42527
2.21983
1.9962
2.23543
1.65421
1.25805
1.49358
5.30485
45.1861
395.051
1389.52
3156.09
5219.13
7222.83
9078.04
10760.9
12103.1
1.71258
1.09578
1.14308
0.906459
0.593714
0.166134
-0.168933
-0.362053
-0.520427
-0.57272
-0.534702
-0.372206
-0.29814
-0.356972
-0.403571
-0.493321
-0.853403
-1.17351
-1.29587
-2.04508
-2.79423
-3.27768
-3.83446
-3.43416
3.07378
75.5313
663.583
2090.1
4158.55
6224.22
7985.95
9377.85
10289
10658.6
10470.9
9758.78
8495.66
6756.36
4655.39
2392.56
738.399
96.5435
-5.076
-3.86584
-4.18415
-3.90855
-4.00992
-3.62919
-3.993
-4.23675
-3.43959
-2.81801
-3.00064
-1.51631
-0.824657
-0.426724
0.122526
0.222321
0.455869
0.636673
0.643285
0.521418
0.263247
-0.0418115
-0.314422
-0.532732
-0.809809
-1.01563
-1.04348
-1.07392
-1.27077
-1.48407
-1.37316
-1.91137
-2.46114
-3.09346
-3.60804
-3.56488
7.91062
174.394
977.441
2555.25
4506.48
6406.87
8132.48
9511.75
-1.87781
-2.41235
-2.41949
-2.64888
-2.93461
-3.33432
-3.65721
-3.84331
-4.00101
-4.05361
-4.0231
-3.87921
-3.81851
-3.86817
-3.91684
-4.01952
-4.37416
-4.68796
-4.8501
-5.56046
-6.23892
-6.80532
-7.70493
-8.82116
-9.4265
-7.68477
25.1678
450.532
1701.38
3587.24
5399.1
6831.93
7778.38
8159.17
7979.29
7237.52
5930.06
4152.68
2122.74
574.618
33.1464
-16.3873
-8.8298
-7.68876
-7.81554
-7.5065
-7.50639
-7.1819
-7.446
-7.60268
-6.85817
-6.3047
-6.34391
-5.01839
-4.36212
-3.92554
-3.42257
-3.28595
-3.06783
-2.89946
-2.88417
-3.00019
-3.24773
-3.53101
-3.7962
-4.01468
-4.27878
-4.47764
-4.52119
-4.57408
-4.76611
-4.96943
-4.931
-5.42248
-5.9842
-6.65567
-7.49038
-8.93718
-10.6059
-5.945
70.4942
671.294
1976.09
3742.56
5513.06
6922.56
-5.43354
-5.91902
-5.9701
-6.19518
-6.46501
-6.83488
-7.14793
-7.33031
-7.48111
-7.53388
-7.51099
-7.38862
-7.34097
-7.39464
-7.4493
-7.55812
-7.89501
-8.20116
-8.40709
-9.08854
-9.74757
-10.3513
-11.1296
-12.4034
-13.6896
-14.5837
-16.0116
0.214153
297.789
1318.1
2854.11
4303.72
5266.6
5674.62
5489.03
4713.61
3408.17
1784.61
457.232
2.55319
-22.6806
-19.4602
-12.7702
-11.4858
-11.4332
-11.1048
-10.9934
-10.7003
-10.8917
-10.9806
-10.2875
-9.78327
-9.70419
-8.51856
-7.88931
-7.42999
-6.9621
-6.79819
-6.59117
-6.43151
-6.42009
-6.5258
-6.75435
-7.02389
-7.2788
-7.49808
-7.74999
-7.94412
-8.0027
-8.07609
-8.26332
-8.46237
-8.48258
-8.95309
-9.51718
-10.195
-11.0755
-12.5451
-14.7268
-15.7765
-15.3236
20.014
415.689
1428.1
2933
4349.23
-9.00558
-9.43549
-9.52069
-9.73485
-9.99023
-10.336
-10.6362
-10.8138
-10.9596
-11.0141
-10.9963
-10.8924
-10.8586
-10.9088
-10.9707
-11.0922
-11.419
-11.7196
-11.956
-12.6053
-13.2534
-13.8926
-14.687
-15.8998
-17.1205
-18.5235
-21.0522
-23.5087
-16.0121
154.788
904.491
1938.81
2804.04
3196.4
3048.62
2318.91
1295.86
321.039
-17.829
-29.2401
-25.8135
-22.7955
-16.6784
-15.2637
-15.0266
-14.6685
-14.484
-14.2098
-14.3387
-14.3673
-13.7223
-13.2535
-13.0798
-12.017
-11.407
-10.9356
-10.4979
-10.3115
-10.1103
-9.95789
-9.94897
-10.047
-10.2597
-10.5152
-10.7621
-10.9822
-11.2208
-11.4135
-11.4844
-11.576
-11.76
-11.9597
-12.0309
-12.4878
-13.0523
-13.7348
-14.6544
-16.093
-18.1637
-19.6394
-21.7862
-23.1785
-9.42806
183.633
919.108
1915.64
-12.5738
-12.9548
-13.0654
-13.274
-13.5162
-13.8383
-14.1273
-14.3011
-14.4426
-14.4989
-14.4866
-14.3996
-14.3771
-14.4273
-14.4939
-14.6228
-14.939
-15.2405
-15.5055
-16.1285
-16.7589
-17.4176
-18.2341
-19.4221
-20.6298
-22.0882
-24.6374
-27.883
-31.0966
-29.0266
42.3559
439.277
934.796
1184.87
1100.98
629.027
160.322
-32.4949
-35.7094
-32.3868
-29.0379
-26.0658
-20.4933
-18.9943
-18.609
-18.2201
-17.9786
-17.7139
-17.7864
-17.76
-17.1601
-16.7166
-16.4678
-15.5133
-14.917
-14.4391
-14.0263
-13.8245
-13.6253
-13.4849
-13.4729
-13.5614
-13.7643
-14.0057
-14.2457
-14.465
-14.6917
-14.8841
-14.9652
-15.0742
-15.256
-15.4607
-15.5757
-16.0241
-16.5883
-17.2785
-18.2273
-19.6234
-21.5809
-23.159
-25.3732
-28.2205
-30.803
-27.0031
44.0819
422.885
-16.1446
-16.4806
-16.6073
-16.8072
-17.0387
-17.34
-17.6169
-17.7858
-17.9224
-17.9802
-17.9727
-17.9018
-17.8921
-17.9418
-18.014
-18.1512
-18.4582
-18.7579
-19.044
-19.6505
-20.272
-20.9383
-21.7623
-22.9257
-24.1632
-25.652
-28.0382
-31.2409
-34.981
-39.0019
-40.5963
-23.9913
48.2946
125.395
99.2899
-2.64118
-40.4109
-39.022
-38.6303
-35.5471
-32.3214
-29.3494
-24.2664
-22.6757
-22.1847
-21.763
-21.4747
-21.2124
-21.2332
-21.159
-20.5998
-20.1738
-19.868
-19.0036