/*--------------------------------*- C++ -*----------------------------------*\
| =========                 |                                                 |
| \\      /  F ield         | OpenFOAM: The Open Source CFD Toolbox           |
|  \\    /   O peration     | Version:  v1912                                 |
|   \\  /    A nd           | Website:  www.openfoam.com                      |
|    \\/     M anipulation  |                                                 |
\*---------------------------------------------------------------------------*/
FoamFile
{
    version     2.0;
    format      ascii;
    class       volScalarField;
    location    "100";
    object      p_rgh;
}
// * * * * * * * * * * * * * * * * * * * * * * * * * * * * * * * * * * * * * //

dimensions      [1 -1 -2 0 0 0 0];


internalField   uniform 0;

boundaryField
{
    atmosphere
    {
        type            totalPressure;
        rho             rho;
        psi             none;
        gamma           1;
        p0              uniform 0;
        value           nonuniform List<scalar> 
164
(
0
0
0
0
0
0
0
0
0
0
0
0
0
0
0
0
0
0
0
0
0
0
0
0
0
0
0
0
0
0
-7.39359e-05
-0.000476546
-0.00120993
-0.00224222
-0.00354399
-0.00507376
-0.00678702
-0.0086278
-0.010567
-0.0125712
-0.0145956
-0.0165858
-0.0184889
-0.0202584
-0.0212491
-0.0216421
-0.0220179
-0.0223792
-0.0227269
-0.0230605
-0.0233797
-0.0236839
-0.0239729
-0.0242463
-0.0245037
-0.024745
-0.0249699
-0.0251781
-0.0253694
-0.0255438
-0.0257012
-0.0258413
-0.0259642
-0.02607
-0.0261585
-0.0262299
-0.0262842
-0.0263217
-0.0263425
-0.0263468
-0.0263348
-0.0263068
-0.026263
-0.0262038
-0.0261296
-0.0260407
-0.0259375
-0.0258205
-0.0256901
-0.0255468
-0.0253911
-0.0252235
-0.0250445
-0.0248547
-0.0246546
-0.0244449
-0.0242261
-0.0239987
-0.0237635
-0.0235208
-0.0232715
-0.023016
-0.022755
-0.0224891
-0.0222189
-0.0219449
-0.0216679
-0.0213883
-0.0211067
-0.0208238
-0.02054
-0.0202559
-0.0199719
-0.0196886
-0.0194064
-0.0191259
-0.0188474
-0.0185714
-0.0182985
-0.0180289
-0.0177631
-0.0175015
-0.0172442
-0.0169916
-0.0167439
-0.0165016
-0.0162647
-0.0160336
-0.0158085
-0.0155896
-0.0153771
-0.0151711
-0.0149719
-0.0147795
-0.0145941
-0.0144157
-0.0142445
-0.0140806
-0.013924
-0.0137748
-0.013633
-0.0134987
-0.0133718
-0.0132525
-0.0131408
-0.0130366
-0.0129399
-0.0128507
-0.0127691
-0.0126949
-0.0126282
-0.012569
-0.0125172
-0.0124727
-0.0124356
-0.0124057
-0.0123831
-0.0123677
-0.0123595
-0.0123583
-0.0123642
-0.0123771
-0.0123969
-0.0124236
-0.0124572
-0.0124975
-0.0125445
-0.0125982
-0.0126585
-0.0127253
-0.0127986
-0.0128784
-0.0129645
-0.0130569
)
;
    }
    inlet
    {
        type            waveSurfacePressure;
        value           nonuniform 0();
    }
    outlet
    {
        type            zeroGradient;
    }
    bottom
    {
        type            zeroGradient;
    }
    frontBack
    {
        type            empty;
    }
    procBoundary4to3
    {
        type            processor;
        value           uniform 0;
    }
    procBoundary4to5
    {
        type            processor;
        value           uniform 0;
    }
}


// ************************************************************************* //
