/*--------------------------------*- C++ -*----------------------------------*\
| =========                 |                                                 |
| \\      /  F ield         | OpenFOAM: The Open Source CFD Toolbox           |
|  \\    /   O peration     | Version:  v1912                                 |
|   \\  /    A nd           | Website:  www.openfoam.com                      |
|    \\/     M anipulation  |                                                 |
\*---------------------------------------------------------------------------*/
FoamFile
{
    version     2.0;
    format      ascii;
    class       surfaceScalarField;
    location    "20";
    object      phi;
}
// * * * * * * * * * * * * * * * * * * * * * * * * * * * * * * * * * * * * * //

dimensions      [0 3 -1 0 0 0 0];
oriented        oriented;


internalField   nonuniform List<scalar> 
28285
(
-0.0808375
0.00583156
-0.0845394
0.00370187
-0.0858322
0.00129283
-0.0849743
-0.00085796
-0.0820784
-0.00289582
-0.0774382
-0.00464026
-0.0713107
-0.00612751
-0.0640049
-0.00730583
-0.0557696
-0.00823521
-0.0466234
-0.00914628
-0.0368781
-0.00974527
-0.0266515
-0.0102266
-0.0160776
-0.0105739
-0.00526157
-0.010816
0.00564753
-0.0109091
0.0163827
-0.0107351
0.0267663
-0.0103836
0.0365467
-0.00978045
0.0454643
-0.00891763
0.0532528
-0.00778841
0.0596874
-0.00643461
0.0645864
-0.00489909
0.0678413
-0.00325488
0.069438
-0.00159665
0.069482
-4.40525e-05
0.0681446
0.00133742
0.0655736
0.00257101
0.06205
0.00352356
0.0578553
0.00419471
0.0532363
0.00461901
0.0483837
0.00485262
0.0434222
0.00496152
0.0384165
0.0050057
0.033382
0.00503451
0.0283063
0.00507565
0.023163
0.00514335
0.0179263
0.00523667
0.0125844
0.00534195
0.00714712
0.00543724
0.00165157
0.00549554
-0.00383875
0.00549032
-0.00923441
0.00539566
-0.0144288
0.00519436
-0.0193058
0.00487702
-0.02375
0.00444424
-0.0276565
0.00390644
-0.0309398
0.00328331
-0.0335393
0.00259953
-0.0354227
0.00188342
-0.0365867
0.00116397
-0.03705
0.000463288
-0.0368496
-0.00020039
-0.036057
-0.000792556
-0.0347445
-0.00131257
-0.0329897
-0.00175482
-0.0308717
-0.00211798
-0.0284673
-0.0024044
-0.0258484
-0.00261892
-0.0230801
-0.00276821
-0.0202207
-0.00285947
-0.0173207
-0.00289994
-0.0144241
-0.00289666
-0.011568
-0.00285608
-0.00878394
-0.00278404
-0.00609826
-0.00268569
-0.00353274
-0.00256551
-0.00110527
-0.00242747
0.00116951
-0.00227479
0.00328026
-0.00211074
0.00521807
-0.00193782
0.00697665
-0.00175858
0.00855208
-0.00157543
0.00994261
-0.00139053
0.0111485
-0.00120589
0.0121719
-0.0010234
0.0130166
-0.0008447
0.0136879
-0.00067135
0.0141926
-0.000504642
0.0145383
-0.000345713
0.0147336
-0.000195261
0.0147873
-5.37355e-05
0.0147088
7.84955e-05
0.0145024
0.000206401
0.0141743
0.000328065
0.0136746
0.000499768
0.000606227
0.0130683
-0.0822617
0.011345
-0.0855568
0.00699697
-0.0864451
0.00218111
-0.0851447
-0.00215838
-0.0818553
-0.0061852
-0.0768819
-0.00961363
-0.0704889
-0.0125205
-0.0629521
-0.0148427
-0.0545149
-0.0166724
-0.0453207
-0.0183404
-0.0355176
-0.0195484
-0.0252586
-0.0204855
-0.0146892
-0.0211434
-0.00393613
-0.0215691
0.00682512
-0.0216704
0.0174028
-0.0213128
0.0275819
-0.0205628
0.0371315
-0.01933
0.045816
-0.0176021
0.0533929
-0.0153654
0.0596596
-0.0127013
0.0644509
-0.00969031
0.0676618
-0.00646579
0.0692665
-0.00320135
0.0693032
-8.07812e-05
0.0680243
0.00261632
0.0654957
0.0050996
0.0620029
0.00701641
0.057828
0.00836961
0.0532209
0.00922603
0.0483751
0.00969845
0.0434184
0.00991819
0.0384155
0.0100086
0.0333859
0.0100641
0.0283157
0.0101458
0.0231767
0.0102824
0.0179419
0.0104715
0.0125985
0.0106853
0.00715608
0.0108797
0.00165156
0.0110001
-0.00385137
0.0109933
-0.00926212
0.0108064
-0.0144729
0.0104051
-0.0193663
0.00977045
-0.0238256
0.00890353
-0.0277446
0.00782539
-0.0310369
0.00657564
-0.0336415
0.00520411
-0.0355259
0.0037678
-0.0366872
0.0023253
-0.0371438
0.000919907
-0.0369348
-0.000409361
-0.0361321
-0.0015953
-0.0348085
-0.00263618
-0.0330424
-0.0035209
-0.0309134
-0.00424694
-0.0284987
-0.00481909
-0.0258704
-0.00524724
-0.0230938
-0.0055448
-0.020227
-0.00572628
-0.0173207
-0.00580622
-0.0144187
-0.00579871
-0.011558
-0.00571673
-0.00877018
-0.0055719
-0.00608133
-0.00537454
-0.00351318
-0.00513366
-0.00108358
-0.00485708
0.00119277
-0.00455113
0.00330477
-0.00422275
0.00524351
-0.00387655
0.00700266
-0.00351773
0.00857835
-0.00315112
0.00996885
-0.00278103
0.0111744
-0.00241148
0.0121973
-0.00204625
0.0130412
-0.00168864
0.0137116
-0.00134175
0.0142152
-0.00100818
0.0145597
-0.000690211
0.0147537
-0.000389277
0.0148064
-0.000106395
0.0147271
0.000157765
0.0145221
0.00041139
0.0141996
0.000650603
0.0137472
0.000952136
0.0011725
0.0131809
-0.0821333
0.0169118
-0.08549
0.0103536
-0.086391
0.00308204
-0.0851224
-0.00342692
-0.0818466
-0.00946103
-0.0768601
-0.0146002
-0.0704385
-0.0189421
-0.0628698
-0.0224113
-0.0544281
-0.0251142
-0.0452321
-0.0275364
-0.0354555
-0.029325
-0.0252568
-0.0306843
-0.0147575
-0.0316427
-0.00406123
-0.0322654
0.00667544
-0.032407
0.0172499
-0.0318873
0.0274626
-0.0307755
0.0370833
-0.0289507
0.0458671
-0.0263859
0.0535588
-0.023057
0.0599384
-0.0190809
0.0648153
-0.0145672
0.0680698
-0.00972032
0.0696696
-0.00480121
0.0697366
-0.000147785
0.0683629
0.00399007
0.0657562
0.00770634
0.0621887
0.0105839
0.0579465
0.0126118
0.0532837
0.0138888
0.0484013
0.0145809
0.043426
0.0148935
0.0384192
0.0150155
0.0333944
0.0150888
0.028333
0.0152073
0.0232016
0.0154138
0.0179702
0.0157028
0.0126239
0.0160317
0.00717109
0.0163325
0.00164837
0.0165228
-0.0038792
0.0165208
-0.00931989
0.0162471
-0.0145634
0.0156487
-0.0194895
0.0146966
-0.0239787
0.0133927
-0.0279224
0.011769
-0.0312323
0.0098856
-0.0338466
0.00781837
-0.0357325
0.00565374
-0.0368883
0.00348105
-0.0373313
0.00136299
-0.037105
-0.000635657
-0.0362818
-0.00241854
-0.034936
-0.003982
-0.0331473
-0.00530961
-0.0309963
-0.00639791
-0.028561
-0.00725441
-0.0259139
-0.00789436
-0.0231205
-0.00833817
-0.020239
-0.00860777
-0.0173201
-0.00872516
-0.0144072
-0.00871157
-0.0115375
-0.00858649
-0.00874198
-0.00836738
-0.0060468
-0.00806971
-0.00347348
-0.00770699
-0.00103965
-0.00729091
0.00123995
-0.00683073
0.00335447
-0.00633727
0.00529503
-0.00581711
0.00705532
-0.00527803
0.00863154
-0.00472734
0.010022
-0.00417149
0.011227
-0.00361648
0.0122488
-0.00306803
0.0130912
-0.00253106
0.0137597
-0.00201025
0.014261
-0.0015095
0.0146031
-0.00103228
0.0147946
-0.000580769
0.0148448
-0.000156625
0.0147638
0.000238779
0.0145592
0.000615923
0.0142399
0.000969978
0.0138151
0.00137694
0.00169924
0.0132883
-0.0837385
0.022312
-0.0868243
0.0134395
-0.0874162
0.00367388
-0.0857926
-0.00505044
-0.082162
-0.0130916
-0.0768487
-0.0199135
-0.0701494
-0.0256414
-0.0623544
-0.0302063
-0.0536961
-0.0337725
-0.0444051
-0.0368274
-0.0345525
-0.0391775
-0.0243026
-0.0409342
-0.0137751
-0.0421701
-0.00308765
-0.0429529
0.00759097
-0.0430856
0.0181027
-0.0423989
0.028235
-0.0409078
0.037765
-0.0384807
0.0464583
-0.0350792
0.0540708
-0.0306695
0.0603918
-0.025402
0.0652372
-0.0194125
0.0684789
-0.012962
0.0700802
-0.00640258
0.0700605
-0.000128036
0.0686899
0.00536068
0.0660246
0.0103716
0.062382
0.0142265
0.0580694
0.0169244
0.0533517
0.0186065
0.048432
0.0195005
0.0434372
0.0198883
0.0384248
0.0200279
0.033407
0.0201066
0.0283594
0.0202549
0.02324
0.0205331
0.0180143
0.0209286
0.0126638
0.0213822
0.00719513
0.0218011
0.00164516
0.0220728
-0.00392044
0.0220864
-0.00940665
0.0217333
-0.0146997
0.0209417
-0.0196752
0.0196721
-0.0242095
0.017927
-0.0281904
0.0157499
-0.0315269
0.0132221
-0.0341557
0.0104472
-0.0360439
0.00754188
-0.0371911
0.00462828
-0.0376135
0.00178539
-0.037361
-0.000888129
-0.0365068
-0.00327275
-0.0351274
-0.00536136
-0.0333046
-0.00713243
-0.0311205
-0.00858201
-0.0286542
-0.00972076
-0.0259788
-0.0105697
-0.0231603
-0.0111567
-0.0202568
-0.0115113
-0.0173189
-0.0116631
-0.0143898
-0.0116406
-0.0115065
-0.0114699
-0.00869956
-0.0111743
-0.0059949
-0.0107744
-0.00341382
-0.0102881
-0.000973891
-0.00973084
0.00131072
-0.00911534
0.00342902
-0.00845557
0.0053723
-0.00776039
0.00713431
-0.00704004
0.00871131
-0.00630434
0.0101017
-0.00556184
0.0113058
-0.00482057
0.0123259
-0.00408817
0.013166
-0.00337118
0.0138317
-0.00267588
0.0143296
-0.00200749
0.014668
-0.00137067
0.0148557
-0.000768428
0.0149022
-0.000203164
0.0148181
0.000322869
0.0146127
0.000821388
0.0142954
0.00128721
0.0138866
0.00178577
0.00220326
0.0133826
-0.0847081
0.0277213
-0.0877638
0.0164952
-0.0882507
0.00416082
-0.0864927
-0.00680844
-0.0827157
-0.0168686
-0.0772481
-0.0253811
-0.0704013
-0.0324882
-0.0624812
-0.0381265
-0.0537386
-0.0425152
-0.044404
-0.046162
-0.034522
-0.0490595
-0.0242681
-0.0511881
-0.013739
-0.0526993
-0.00303962
-0.0536522
0.0076831
-0.0538084
0.0182616
-0.0529775
0.0284902
-0.0511364
0.0381428
-0.0481332
0.0469801
-0.0439166
0.0547371
-0.0384265
0.0611809
-0.0318458
0.0661036
-0.0243352
0.0693727
-0.0162311
0.0709317
-0.00796153
0.0709129
-0.000109231
0.0693612
0.00691237
0.066539
0.0131937
0.0627468
0.0180187
0.0582979
0.0213733
0.0534729
0.0234315
0.0484831
0.0244903
0.0434519
0.0249195
0.0384298
0.02505
0.033423
0.0251135
0.0283945
0.0252834
0.0232926
0.025635
0.018075
0.0261461
0.0127194
0.0267378
0.00722981
0.0272907
0.00164293
0.0276596
-0.00397368
0.027703
-0.00952139
0.027281
-0.0148815
0.0263018
-0.0199237
0.0247144
-0.0245189
0.0225222
-0.0285501
0.019781
-0.0319224
0.0165945
-0.0345707
0.0130955
-0.0364615
0.00943275
-0.037597
0.00576379
-0.0379913
0.00217967
-0.0377035
-0.00117601
-0.0368074
-0.00416877
-0.0353829
-0.00678587
-0.0335143
-0.00900108
-0.0312857
-0.0108105
-0.0287778
-0.0122286
-0.0260647
-0.0132829
-0.0232126
-0.0140088
-0.0202798
-0.0144441
-0.0173166
-0.0146262
-0.0143661
-0.0145911
-0.0114646
-0.0143714
-0.00864259
-0.0139963
-0.00592539
-0.0134916
-0.003334
-0.0128795
-0.000885638
-0.0121792
0.00140534
-0.0114063
0.00352862
-0.0105789
0.00547553
-0.0097073
0.0072398
-0.00880431
0.00881782
-0.00788235
0.010208
-0.00695207
0.0114109
-0.00602346
0.0124289
-0.00510611
0.0132659
-0.00420823
0.0139277
-0.00333767
0.0144212
-0.002501
0.0147546
-0.0017041
0.0149371
-0.000950903
0.0149786
-0.000244618
0.01489
0.000411441
0.0146817
0.00102967
0.0143642
0.00160468
0.0139624
0.00218766
0.00269321
0.0134724
-0.0867392
0.0330678
-0.0895901
0.0193461
-0.0897822
0.00435294
-0.087712
-0.00887866
-0.0835736
-0.021007
-0.07775
-0.0312047
-0.0705887
-0.0396496
-0.0624112
-0.0463039
-0.0534502
-0.0514761
-0.0439561
-0.0556561
-0.0339765
-0.0590392
-0.0236483
-0.0615162
-0.0130608
-0.0632868
-0.00231954
-0.0643934
0.00842774
-0.0645556
0.0190368
-0.0635866
0.0292963
-0.0613959
0.0389803
-0.0578173
0.047852
-0.0527882
0.055649
-0.0462235
0.0621342
-0.038331
0.0670905
-0.0292915
0.0703582
-0.0194988
0.0718942
-0.00949758
0.0717416
4.34292e-05
0.0701161
0.00853779
0.0671359
0.0161739
0.0631664
0.0219882
0.0585581
0.0259816
0.0536098
0.0283799
0.0485387
0.0295614
0.0434639
0.0299943
0.038434
0.0300799
0.0334426
0.0301049
0.0284387
0.0302873
0.0233603
0.0307134
0.0181543
0.0313521
0.0127929
0.0320992
0.00727728
0.0328063
0.00164363
0.0332933
-0.00403752
0.0333842
-0.00966339
0.0329069
-0.0151087
0.0317471
-0.0202358
0.0298416
-0.0249085
0.0271948
-0.0290033
0.0238759
-0.032421
0.0200121
-0.0350937
0.0157682
-0.0369877
0.0113267
-0.0381078
0.00688395
-0.0384661
0.00253794
-0.0381332
-0.00150889
-0.0371842
-0.00511784
-0.0357025
-0.00826754
-0.033776
-0.0109276
-0.0314915
-0.013095
-0.0289314
-0.0147887
-0.026171
-0.0160434
-0.0232769
-0.0169029
-0.0203074
-0.0174135
-0.0173128
-0.0176208
-0.0143356
-0.0175683
-0.0114115
-0.0172954
-0.00857065
-0.0168372
-0.00583786
-0.0162244
-0.00323364
-0.0154837
-0.000775036
-0.0146378
0.00152405
-0.0137054
0.00365352
-0.0127083
0.00560493
-0.0116587
0.00737202
-0.0105714
0.0089513
-0.00946163
0.0103413
-0.0083421
0.0115427
-0.00722481
0.0125579
-0.00612128
0.013391
-0.00504139
0.014048
-0.00399461
0.0145358
-0.00298885
0.014863
-0.00203128
0.0150388
-0.00112677
0.0150737
-0.000279474
0.0149791
0.000506074
0.0147659
0.00124281
0.0144459
0.00192474
0.0140445
0.002589
0.00317653
0.0135612
-0.0886784
0.0384307
-0.0914122
0.0220799
-0.0914483
0.00438907
-0.0890962
-0.0112308
-0.0846735
-0.0254296
-0.0785696
-0.0373085
-0.0711533
-0.0470659
-0.0627649
-0.0546923
-0.053649
-0.060592
-0.0440573
-0.0652478
-0.0340086
-0.0690879
-0.0236287
-0.0718961
-0.0129848
-0.0739307
-0.00216907
-0.0752092
0.00868632
-0.075411
0.0194295
-0.0743297
0.0298579
-0.0718243
0.0397371
-0.0676965
0.0488141
-0.0618653
0.0567991
-0.0542085
0.0634336
-0.0449656
0.0684801
-0.034338
0.0717739
-0.0227926
0.0732479
-0.0109716
0.0730252
0.000266123
0.0711453
0.0104176
0.0679181
0.0194011
0.0637094
0.026197
0.0588875
0.0308034
0.0537752
0.0334922
0.0485981
0.0347385
0.0434695
0.0351228
0.0384342
0.0351153
0.0334642
0.0350748
0.0284928
0.0352588
0.0234447
0.0357615
0.0182546
0.0365423
0.0128873
0.0374665
0.0073404
0.0383532
0.00164999
0.0389837
-0.00411006
0.0391442
-0.00983163
0.0386285
-0.0153813
0.0372968
-0.0206126
0.0350728
-0.02538
0.0319622
-0.0295529
0.0280487
-0.0330257
0.0234849
-0.035728
0.0184705
-0.0376252
0.0132239
-0.0387257
0.00798445
-0.0390396
0.0028518
-0.0386515
-0.00189692
-0.0376376
-0.00613177
-0.0360863
-0.00981883
-0.0340895
-0.0129244
-0.0317373
-0.0154472
-0.0291143
-0.0174117
-0.0262969
-0.0188608
-0.0233523
-0.0198475
-0.020339
-0.0204268
-0.0173068
-0.0206531
-0.0142976
-0.0205775
-0.0113466
-0.0202463
-0.00848332
-0.0197005
-0.00573191
-0.0189758
-0.00311245
-0.0181031
-0.000641583
-0.0171087
0.00166714
-0.0160141
0.00380394
-0.0148451
0.00576071
-0.0136155
0.00753114
-0.0123418
0.0091119
-0.0110424
0.0105017
-0.00973187
0.0117011
-0.00842428
0.0127129
-0.00713309
0.0135414
-0.00586986
0.0141925
-0.00464568
0.0146735
-0.00346986
0.0149931
-0.00235084
0.0151609
-0.00129456
0.0151876
-0.000306208
0.0150851
0.000608513
0.014865
0.00146292
0.0145399
0.00224987
0.0141342
0.00299466
0.003659
0.0136518
-0.0913362
0.0438103
-0.093876
0.0246197
-0.0935833
0.00409629
-0.0909005
-0.0139136
-0.0860598
-0.0302703
-0.0795339
-0.0438345
-0.0717424
-0.0548574
-0.063047
-0.0633877
-0.0536937
-0.0699452
-0.0439049
-0.0750366
-0.0337559
-0.079237
-0.0232845
-0.0823675
-0.0125539
-0.0846612
-0.00164886
-0.0861142
0.00930383
-0.0863637
0.020166
-0.0851919
0.0307329
-0.0823911
0.0407608
-0.0777243
0.0499931
-0.0710976
0.0581342
-0.0623496
0.0649071
-0.0517384
0.0700468
-0.0394776
0.0733569
-0.0261027
0.074764
-0.0123786
0.0744057
0.000624365
0.072331
0.0124923
0.0688322
0.0229
0.0643353
0.0306939
0.0592581
0.0358806
0.0539524
0.0387979
0.0486508
0.0400401
0.0434639
0.0403097
0.0384267
0.0401526
0.0334865
0.0400149
0.0285576
0.0401877
0.0235479
0.0407711
0.0183788
0.0417114
0.013006
0.0428394
0.00742282
0.0439363
0.00166535
0.0447412
-0.00418898
0.0449986
-0.010025
0.0444644
-0.0156996
0.0429714
-0.0210553
0.0404286
-0.025936
0.0368429
-0.0302017
0.0323145
-0.03374
0.0270232
-0.0364771
0.0212076
-0.0383776
0.0151245
-0.039453
0.00905978
-0.0397139
0.00311276
-0.0392598
-0.00235102
-0.0381685
-0.00722308
-0.0365345
-0.0114528
-0.0344546
-0.0150043
-0.0320226
-0.0178793
-0.0293256
-0.0201087
-0.0264415
-0.021745
-0.023438
-0.0228509
-0.0203736
-0.0234912
-0.0172976
-0.0237291
-0.0142514
-0.0236238
-0.0112693
-0.0232284
-0.00838002
-0.0225898
-0.00560711
-0.0217487
-0.00296998
-0.0207403
-0.000484535
-0.0195941
0.00183496
-0.0183336
0.0039802
-0.0169904
0.00594318
-0.0155784
0.00771746
-0.0141161
0.00929991
-0.0126248
0.0106893
-0.0111213
0.0118866
-0.00962151
0.0128944
-0.0081409
0.0137173
-0.00669279
0.0143615
-0.00528982
0.0148344
-0.00394278
0.015145
-0.00266143
0.0153032
-0.00145275
0.0153202
-0.000323232
0.0152081
0.00072062
0.0149788
0.00169216
0.0146461
0.00258261
0.0142324
0.0034083
0.00414489
0.0137466
-0.0941894
0.0492428
-0.0965648
0.0269952
-0.0960398
0.00357124
-0.0929479
-0.0170054
-0.0876918
-0.0355265
-0.0807611
-0.0507652
-0.0726102
-0.0630082
-0.063623
-0.072375
-0.0540582
-0.07951
-0.0441213
-0.0849735
-0.0338816
-0.0894767
-0.0233268
-0.0929223
-0.0125022
-0.0954858
-0.00147325
-0.0971432
0.00965159
-0.0974886
0.0207282
-0.0962685
0.0315492
-0.0932121
0.0418559
-0.088031
0.0513706
-0.0806123
0.0597657
-0.0707448
0.0667363
-0.058709
0.0719957
-0.0447371
0.0753337
-0.0294408
0.0766666
-0.0137115
0.0761496
0.00114137
0.0737561
0.0148859
0.0699026
0.0267535
0.0650527
0.0355438
0.0596685
0.0412648
0.0541332
0.0443333
0.0486869
0.0454864
0.0434401
0.0455565
0.0384062
0.0451865
0.0335071
0.044914
0.0286331
0.0450617
0.023672
0.0457322
0.0185306
0.0468528
0.0131532
0.0482168
0.00752874
0.0495608
0.00169311
0.0505768
-0.00427153
0.0509632
-0.0102419
0.0504348
-0.0160634
0.0487929
-0.0215655
0.0459306
-0.0265792
0.0418566
-0.0309537
0.036689
-0.0345685
0.030638
-0.0373455
0.0239846
-0.0392495
0.0170284
-0.0402924
0.0101027
-0.0404918
0.00331223
-0.0399598
-0.00288307
-0.0387777
-0.00840514
-0.0370472
-0.0131833
-0.0348708
-0.0171807
-0.0323465
-0.0204036
-0.0295644
-0.0228908
-0.0266037
-0.0247057
-0.0235329
-0.0259217
-0.0204102
-0.0266139
-0.0172845
-0.0268548
-0.0141961
-0.0267121
-0.0111788
-0.0262458
-0.00826009
-0.0255085
-0.00546285
-0.0245459
-0.00280581
-0.0233973
-0.000304296
-0.0220956
0.00202783
-0.0206657
0.00418262
-0.0191452
0.00615263
-0.0175485
0.00793127
-0.0158948
0.0095156
-0.0142092
0.0109046
-0.0125103
0.0120992
-0.0108161
0.0131024
-0.0091441
0.0139189
-0.0075093
0.014555
-0.00592595
0.0150186
-0.00440636
0.0153188
-0.00296159
0.0154657
-0.00159972
0.0154715
-0.00032902
0.0153477
0.000844447
0.0151072
0.00193268
0.0147643
0.00292554
0.0143396
0.00383293
0.00463964
0.0138449
-0.097623
0.0547512
-0.0997849
0.029157
-0.0988769
0.00266324
-0.0953709
-0.0205114
-0.0895974
-0.0413
-0.0821478
-0.0582148
-0.073543
-0.0716131
-0.0641912
-0.0817268
-0.0543624
-0.0893388
-0.0442267
-0.0951092
-0.0338745
-0.0998289
-0.0232203
-0.103577
-0.0122869
-0.106419
-0.00112206
-0.108308
0.0101718
-0.108782
0.0214576
-0.107554
0.0325245
-0.104279
0.0431006
-0.0986072
0.0528959
-0.0904076
0.0615642
-0.079413
0.0687703
-0.0659151
0.0741902
-0.050157
0.0775747
-0.0328252
0.0788173
-0.0149542
0.0781077
0.001851
0.0753867
0.017607
0.0711246
0.0310155
0.0658548
0.0408136
0.0601084
0.0470112
0.0543067
0.050135
0.0486963
0.0510968
0.0433891
0.0508637
0.0383674
0.0502082
0.0335241
0.0497573
0.0287206
0.0498653
0.0238206
0.0506321
0.0187145
0.0519589
0.0133343
0.053597
0.00766347
0.0552316
0.00173823
0.056502
-0.00435421
0.0570557
-0.0104806
0.0565611
-0.0164728
0.0547852
-0.0221449
0.0516027
-0.027313
0.0470247
-0.0318132
0.0411892
-0.0355161
0.0343408
-0.0383384
0.026807
-0.040246
0.018936
-0.0412461
0.0111028
-0.0413768
0.00344285
-0.0407533
-0.00350657
-0.0394661
-0.00969235
-0.0376245
-0.0150249
-0.0353376
-0.0194676
-0.0327081
-0.023033
-0.0298294
-0.0257695
-0.0267822
-0.0277529
-0.0236356
-0.0290683
-0.0204476
-0.0298019
-0.0172662
-0.0300362
-0.0141309
-0.0298474
-0.0110742
-0.0293024
-0.00812283
-0.0284599
-0.00529861
-0.0273701
-0.00261939
-0.0260765
-9.95155e-05
-0.0246155
0.00224622
-0.0230115
0.00441162
-0.0213106
0.00638941
-0.0195263
0.00817291
-0.0176783
0.00975931
-0.0157956
0.0111477
-0.0138987
0.0123393
-0.0120077
0.0133372
-0.010142
0.0141464
-0.0083185
0.0147734
-0.00655296
0.0152263
-0.00485928
0.0155146
-0.00324987
0.0156487
-0.00173384
0.0156416
-0.000321905
0.015504
0.000982073
0.0152501
0.0021866
0.0148944
0.00328116
0.0144562
0.00427113
0.00514725
0.0139486
-0.101425
0.0603641
-0.103368
0.0311
-0.102133
0.00142835
-0.0980842
-0.0245604
-0.0917458
-0.0476384
-0.0837516
-0.0662089
-0.0746753
-0.0806894
-0.064953
-0.0914491
-0.0548695
-0.0994223
-0.0445673
-0.105411
-0.034118
-0.110278
-0.0233731
-0.114321
-0.0123207
-0.117472
-0.000983627
-0.119645
0.0105489
-0.120315
0.0221345
-0.11914
0.0335489
-0.115693
0.0444976
-0.109556
0.0546719
-0.100582
0.0636923
-0.0884335
0.0711701
-0.0733928
0.076751
-0.055738
0.0801689
-0.0362431
0.0813137
-0.016099
0.0803837
0.002781
0.0772506
0.02074
0.0724993
0.0357668
0.0667335
0.0465793
0.0605624
0.0531824
0.054454
0.0562434
0.0486649
0.0568858
0.0433003
0.0562284
0.038304
0.0552045
0.0335347
0.0545267
0.0288202
0.0545798
0.0239967
0.0554556
0.0189352
0.0570204
0.0135547
0.0589775
0.00783257
0.0609537
0.00180533
0.0625293
-0.0044336
0.0632946
-0.0107394
0.062867
-0.0169283
0.060974
-0.0227961
0.0574706
-0.0281416
0.0523702
-0.0327858
0.0458334
-0.0365891
0.0381441
-0.0394619
0.0296798
-0.0413737
0.0208478
-0.042318
0.0120471
-0.0423718
0.00349656
-0.0416423
-0.00423601
-0.0402345
-0.0111002
-0.0382664
-0.016993
-0.0358542
-0.0218798
-0.0331062
-0.025781
-0.0301192
-0.0287566
-0.0269754
-0.0308967
-0.0237446
-0.0322991
-0.0204843
-0.0330622
-0.0172415
-0.033279
-0.0140546
-0.0330344
-0.0109547
-0.0324023
-0.0079674
-0.0314472
-0.00511349
-0.030224
-0.00241019
-0.0287798
0.000127787
-0.0271535
0.00249055
-0.0253742
0.00466765
-0.0234877
0.00665393
-0.0215125
0.00844278
-0.0194671
0.0100314
-0.0173842
0.0114191
-0.0152864
0.0126072
-0.0131958
0.0135991
-0.0111339
0.0144
-0.00911945
0.0150168
-0.00716969
0.0154577
-0.0053002
0.0157326
-0.00352475
0.0158522
-0.00185348
0.0158303
-0.000300013
0.0156769
0.00113548
0.0154074
0.00245608
0.0150367
0.00365192
0.0145825
0.0047253
0.0056707
0.014059
-0.10578
0.0661129
-0.10745
0.0327698
-0.10578
-0.000241049
-0.101162
-0.029179
-0.0941577
-0.0546425
-0.0855159
-0.0748507
-0.0758854
-0.09032
-0.0657354
-0.101599
-0.055362
-0.109796
-0.044875
-0.115898
-0.034313
-0.12084
-0.023484
-0.12515
-0.0123125
-0.128643
-0.000800965
-0.131157
0.0109695
-0.132085
0.0228624
-0.131033
0.0346397
-0.127471
0.0459836
-0.1209
0.0565599
-0.111158
0.0659777
-0.0978513
0.0738116
-0.0812267
0.0796436
-0.06157
0.0831477
-0.0397472
0.0841988
-0.0171501
0.0829702
0.00400953
0.0793583
0.024352
0.0740285
0.0410966
0.067681
0.0529268
0.0610184
0.059845
0.0545595
0.0627022
0.0485763
0.062869
0.0431591
0.0616456
0.0382076
0.0601559
0.0335369
0.0591973
0.0289346
0.0591821
0.0242059
0.0601842
0.0192002
0.0620262
0.0138227
0.0643549
0.00804422
0.0667322
0.00190215
0.0686713
-0.0045036
0.0697003
-0.0110147
0.0693781
-0.0174287
0.067388
-0.0235206
0.0635625
-0.0290688
0.0579184
-0.0338768
0.0506413
-0.0377939
0.0420612
-0.0407226
0.0326085
-0.0426378
0.0227631
-0.0435149
0.0129243
-0.0434796
0.0034612
-0.0426291
-0.00508653
-0.041084
-0.0126453
-0.0389727
-0.0191043
-0.0364197
-0.0244328
-0.0335394
-0.0286613
-0.0304321
-0.0318639
-0.0271817
-0.034147
-0.0238584
-0.0356224
-0.0205188
-0.0364018
-0.017209
-0.0365888
-0.0139659
-0.0362776
-0.0108191
-0.035549
-0.0077929
-0.0344734
-0.0049069
-0.03311
-0.00217734
-0.0315094
0.00038177
-0.0297126
0.00276159
-0.0277541
0.00495128
-0.0256773
0.00694659
-0.0235078
0.00874131
-0.0212618
0.0103323
-0.0189751
0.0117191
-0.0166732
0.0129032
-0.01438
0.0138885
-0.0121191
0.0146802
-0.00991116
0.0152854
-0.00777494
0.015713
-0.00572773
0.0159729
-0.00378466
0.0160764
-0.00195696
0.0160378
-0.000261458
0.0158665
0.00130677
0.0155793
0.00274331
0.015191
0.00404023
0.0147186
0.00519773
0.00621254
0.0141767
-0.110587
0.0719674
-0.112012
0.0341948
-0.109909
-0.00234363
-0.104562
-0.0345261
-0.0968076
-0.0623972
-0.0874549
-0.0842034
-0.0772253
-0.10055
-0.0666277
-0.112197
-0.0559676
-0.120456
-0.0453232
-0.126543
-0.0346686
-0.131495
-0.0237838
-0.136035
-0.012492
-0.139935
-0.000775758
-0.142873
0.0112934
-0.144155
0.0235785
-0.143318
0.0358172
-0.139709
0.0476646
-0.132747
0.0587487
-0.122242
0.0686348
-0.107737
0.0768374
-0.0894294
0.0828961
-0.0676286
0.086442
-0.0432931
0.0873755
-0.0180836
0.0858447
0.00554033
0.0817019
0.0284947
0.0757099
0.0470886
0.0686922
0.0599445
0.0614632
0.067074
0.0546098
0.0695557
0.0484225
0.0690563
0.0429619
0.0671063
0.0380766
0.0650411
0.0335307
0.0637433
0.0290664
0.0636464
0.024453
0.0647976
0.0195162
0.0669631
0.0141458
0.0697253
0.00830501
0.072573
0.00203266
0.0749437
-0.00456252
0.0762955
-0.0113072
0.0761227
-0.0179775
0.0740583
-0.0243242
0.0699092
-0.0301023
0.0636965
-0.0350948
0.0556338
-0.0391397
0.0461061
-0.0421292
0.035598
-0.0440441
0.0246779
-0.0448443
0.0137245
-0.0447039
0.00332081
-0.0437159
-0.00607451
-0.0420154
-0.0143457
-0.0397432
-0.0213765
-0.0370332
-0.0271428
-0.0340062
-0.0316883
-0.0307662
-0.0351039
-0.0273991
-0.0375141
-0.0239748
-0.0390467
-0.0205494
-0.0398272
-0.0171672
-0.0399709
-0.0138635
-0.0395813
-0.0106663
-0.0387462
-0.00759832
-0.0375414
-0.00467785
-0.0360305
-0.00192018
-0.034267
0.000662038
-0.0322948
0.00305998
-0.030152
0.00526312
-0.0278805
0.00726783
-0.0255125
0.00906895
-0.023063
0.0106624
-0.0205685
0.0120481
-0.0180589
0.0132279
-0.0155598
0.0142056
-0.0130969
0.0149871
-0.0106926
0.0155796
-0.00836747
0.0159923
-0.00614041
0.0162356
-0.00402799
0.0163212
-0.00204259
0.0162637
-0.000203957
0.0160727
0.00149776
0.0157656
0.00305042
0.0153574
0.0044484
0.0148645
0.00569063
0.00677507
0.014302
-0.115937
0.0778661
-0.117131
0.0353891
-0.114455
-0.00501942
-0.108327
-0.0406542
-0.0997064
-0.0710182
-0.0895384
-0.0943715
-0.0786294
-0.111459
-0.0675357
-0.12329
-0.0565681
-0.131423
-0.0457719
-0.137339
-0.0350251
-0.142242
-0.0241149
-0.146945
-0.012722
-0.151328
-0.00081
-0.154785
0.0115602
-0.156525
0.0242518
-0.156009
0.0369747
-0.152432
0.0493541
-0.145127
0.0609824
-0.133871
0.071401
-0.118156
0.0800829
-0.0981112
0.0865182
-0.0740639
0.090233
-0.047008
0.0911662
-0.0190167
0.089178
0.0075285
0.0843612
0.0333116
0.0775726
0.0538772
0.0697481
0.0677689
0.0618539
0.0749682
0.0545466
0.0768629
0.0481421
0.0754608
0.0426566
0.0725918
0.0378734
0.0698244
0.0334918
0.0681249
0.0291998
0.0679384
0.0247287
0.0692687
0.0198776
0.0718142
0.0145208
0.0750821
0.00861495
0.0784789
0.00220041
0.0813582
-0.0046035
0.0830994
-0.011609
0.0831282
-0.0185675
0.0810168
-0.0252018
0.0765435
-0.0312405
0.0697353
-0.0364428
0.0608361
-0.0406327
0.0502961
-0.0436905
0.0386558
-0.0455971
0.0265846
-0.046313
0.0144404
-0.0460509
0.00305874
-0.0449055
-0.00721989
-0.0430295
-0.0162218
-0.0405774
-0.0238286
-0.037693
-0.0300271
-0.0345042
-0.0348771
-0.0311191
-0.0384891
-0.027625
-0.0410083
-0.0240916
-0.04258
-0.0205738
-0.043345
-0.0171142
-0.0434305
-0.0137458
-0.0429497
-0.0104949
-0.041997
-0.00738252
-0.0406538
-0.00442538
-0.0389877
-0.00163762
-0.0370548
0.000968904
-0.0349013
0.00338612
-0.0325692
0.00560376
-0.0300981
0.00761819
-0.027527
0.00942618
-0.0248709
0.0110222
-0.0221645
0.0124066
-0.0194433
0.0135814
-0.0167346
0.0145509
-0.0140664
0.0153211
-0.0114628
0.0158996
-0.008946
0.016296
-0.00653679
0.016521
-0.00425297
0.0165873
-0.0021089
0.0165089
-0.000125601
0.0162958
0.00171085
0.0159666
0.00337964
0.0155362
0.00487877
0.0150207
0.00620616
0.00736033
0.0144354
-0.0424545
0.0799804
-0.0428215
0.0357561
-0.0417236
-0.00611728
-0.039335
-0.0430428
-0.0360489
-0.0743044
-0.0322319
-0.0981884
-0.0281912
-0.115499
-0.024137
-0.127345
-0.0201803
-0.13538
-0.0163281
-0.141191
-0.0125108
-0.146059
-0.00864426
-0.150812
-0.00458599
-0.155386
-0.000312732
-0.159058
0.00415536
-0.160993
0.00876927
-0.160623
0.0134147
-0.157078
0.0179487
-0.149661
0.0222195
-0.138141
0.026056
-0.121993
0.0292478
-0.101303
0.0316011
-0.0764172
0.0329313
-0.0483381
0.0332233
-0.0193087
0.0324202
0.00833161
0.0305517
0.0351801
0.0279263
0.0565026
0.0249367
0.0707585
0.0219666
0.0779384
0.0192651
0.0795644
0.0169494
0.0777765
0.0150104
0.0745308
0.0133531
0.0714817
0.0118524
0.0696255
0.0103839
0.0694069
0.00884262
0.07081
0.00715104
0.0735057
0.00526128
0.0769719
0.00315535
0.0805848
0.000847801
0.0836658
-0.00161717
0.0855644
-0.00416859
0.0856797
-0.00671103
0.0835592
-0.0091392
0.0789717
-0.0113496
0.0719456
-0.0132504
0.0627369
-0.0147758
0.0518215
-0.0158797
0.0397596
-0.016551
0.0272558
-0.0167845
0.0146739
-0.0166578
0.00293211
-0.0162091
-0.00766859
-0.0154975
-0.0169333
-0.0145813
-0.0247449
-0.0135139
-0.0310945
-0.0123424
-0.0360486
-0.011106
-0.0397254
-0.00983607
-0.0422782
-0.00855707
-0.043859
-0.00728799
-0.0446141
-0.0060434
-0.0446751
-0.00483443
-0.0441587
-0.00366989
-0.0431616
-0.00255671
-0.041767
-0.00150049
-0.0400439
-0.000505931
-0.0380494
0.000423137
-0.0358304
0.00128378
-0.0334299
0.00207271
-0.0308871
0.00278839
-0.0282427
0.00343017
-0.0255127
0.00399586
-0.0227302
0.00448565
-0.0199331
0.00490029
-0.0171493
0.00524136
-0.0144074
0.00551106
-0.0117325
0.00571221
-0.00914715
0.00584826
-0.00667285
0.00592309
-0.0043278
0.00594157
-0.00212738
0.00590808
-9.21061e-05
0.00582698
0.00179195
0.00570464
0.00350199
0.00554643
0.00503697
0.00535798
0.00639461
0.00757365
0.00514466
-0.0432481
0.0820929
-0.043568
0.0360761
-0.0423785
-0.00730682
-0.0398663
-0.045555
-0.0364474
-0.0777232
-0.0325091
-0.102127
-0.0283702
-0.119638
-0.0242486
-0.131466
-0.020255
-0.139374
-0.0163907
-0.145055
-0.0125734
-0.149876
-0.00870829
-0.154677
-0.00463952
-0.159455
-0.000335406
-0.163362
0.00418263
-0.165511
0.00886794
-0.165309
0.0135987
-0.161809
0.018222
-0.154284
0.0225808
-0.1425
0.0264983
-0.12591
0.0297532
-0.104558
0.032147
-0.0788111
0.0334886
-0.0496797
0.0337757
-0.0195959
0.0329069
0.00920046
0.0309338
0.0371531
0.0281834
0.059253
0.0250733
0.0738686
0.0220056
0.0810061
0.0192429
0.0823271
0.0169011
0.0801183
0.0149637
0.0764682
0.013326
0.0731194
0.0118533
0.0710983
0.0104132
0.0708469
0.00889481
0.0723284
0.0072174
0.0751832
0.00532998
0.0788593
0.00321315
0.0827016
0.000882333
0.0859966
-0.00161651
0.0880633
-0.00420937
0.0882725
-0.00679744
0.0861473
-0.00926986
0.0814441
-0.0115194
0.0741952
-0.0134505
0.0646679
-0.0149953
0.0533663
-0.0161076
0.040872
-0.0167731
0.0279213
-0.0169948
0.0148955
-0.0168488
0.00278612
-0.0163765
-0.00814087
-0.0156392
-0.0176707
-0.0146969
-0.0256873
-0.0136045
-0.0321869
-0.01241
-0.037243
-0.0111533
-0.0409822
-0.00986563
-0.0435659
-0.00857157
-0.0451531
-0.0072898
-0.0458959
-0.00603462
-0.0459303
-0.00481686
-0.0453765
-0.00364504
-0.0443334
-0.00252584
-0.0428862
-0.00146464
-0.0411051
-0.000465978
-0.039048
0.000466386
-0.0367628
0.00132965
-0.0342931
0.00212062
-0.031678
0.00283761
-0.0289597
0.00348027
-0.0261554
0.00404629
-0.0232962
0.00453588
-0.0204227
0.0049498
-0.0175632
0.00528967