/*--------------------------------*- C++ -*----------------------------------*\
| =========                 |                                                 |
| \\      /  F ield         | OpenFOAM: The Open Source CFD Toolbox           |
|  \\    /   O peration     | Version:  v1912                                 |
|   \\  /    A nd           | Website:  www.openfoam.com                      |
|    \\/     M anipulation  |                                                 |
\*---------------------------------------------------------------------------*/
FoamFile
{
    version     2.0;
    format      ascii;
    class       volScalarField;
    location    "40";
    object      p_rgh;
}
// * * * * * * * * * * * * * * * * * * * * * * * * * * * * * * * * * * * * * //

dimensions      [1 -1 -2 0 0 0 0];


internalField   nonuniform List<scalar> 
14268
(
-5726.67
-6417.97
-6971.52
-7325.67
-7458.72
-7361.94
-7043.15
-6513.2
-5796.42
-4953.86
-4040.65
-3093.27
-2153.73
-1278.85
-481.28
230.248
810.309
1250.81
1551.76
1716.38
1751.4
1671.5
1495.67
1241
930.072
586.365
222.242
-119.426
-417.595
-648.457
-783.522
-803.148
-690.125
-435.215
-35.0108
501.222
1155.72
1932.76
2758.96
3613.88
4449.4
5234.8
5918.47
6481.43
6885.15
7113.24
7143.33
6979.17
6608.1
6040.83
5278.33
4342.65
3253.5
2041.68
733.831
-649.984
-2059.78
-3465.78
-4837.76
-6147.76
-7369.15
-8479.53
-9454.94
-10274.7
-10919.2
-11371.8
-11613.4
-11625.8
-11408.6
-10951.2
-10255.5
-9328.94
-8185.74
-6848.24
-5348.76
-3726.56
-2026.02
-299.97
1425.91
3121.01
4712.48
6173.98
7483.46
8622.69
9580.95
10348.6
-5863.68
-6521.42
-7037.88
-7354.64
-7454.47
-7327.68
-6985.9
-6440.61
-5716.91
-4872.26
-3962.78
-3022.42
-2091.91
-1226.5
-437.23
265.364
838.781
1273.57
1570.17
1727.37
1762.78
1680.58
1502.48
1245.43
932.014
585.589
218.482
-126.354
-427.785
-661.902
-799.925
-821.885
-710.29
-455.954
-55.0765
483.066
1140.46
1921.93
2752.9
3613.64
4454.9
5246.19
5935.01
6502.72
6910.1
7140.91
7173.9
7009.02
6636.92
6067.74
5302.25
4362.72
3269.17
2052.51
739.683
-649.244
-2063.65
-3473.93
-4849.78
-6163.24
-7387.72
-8500.93
-9478.87
-10301
-10947.6
-11402
-11645.2
-11659.4
-11443
-10985.9
-10289.8
-9361.95
-8216.54
-6875.81
-5372.09
-3744.82
-2038.58
-306.464
1425.66
3126.97
4724.1
6190.53
7504.12
8646.29
9606.26
10367.2
-5931.11
-6590.66
-7106.39
-7418.22
-7513.89
-7380.65
-7029.21
-6471.75
-5735.42
-4880.5
-3959.17
-3008.29
-2069.2
-1196.68
-400.619
304.072
879.467
1313.82
1608.23
1768.68
1794.1
1706.79
1522.94
1259.58
939.537
586.255
212.011
-139.863
-448.23
-688.921
-832.92
-859.633
-751.311
-497.949
-95.6168
446.436
1109.76
1899.97
2740.61
3613.04
4465.8
5268.94
5968.04
6545.3
6959.96
7195.99
7229.22
7066.01
6692.23
6119.21
5347.53
4400.12
3297.63
2071.24
748.502
-650.547
-2073.98
-3492.52
-4875.77
-6195.84
-7426.12
-8544.7
-9527.42
-10354
-11004.7
-11462.7
-11709
-11727.2
-11512.2
-11055.6
-10358.6
-9428.26
-8278.42
-6931.18
-5418.98
-3781.53
-2063.81
-319.536
1425.11
3138.85
4747.35
6223.67
7545.41
8693.76
9657.48
10420.5
-6066.18
-6708.2
-7203.79
-7499.99
-7568.64
-7411.05
-7038.59
-6462.88
-5711.89
-4845.05
-3914.82
-2957.39
-2014.27
-1138.76
-339.026
364.363
939.39
1371.63
1663.41
1812.85
1837.54
1743.91
1552.36
1280.31
950.893
587.629
202.734
-159.779
-478.807
-729.55
-882.605
-916.37
-812.652
-561.017
-156.641
391.179
1063.64
1866.43
2721.93
3612.04
4482.18
5303.21
6017.85
6609.56
7035.23
7279.43
7318.98
7154.16
6777.15
6198.03
5416.77
4457.23
3341.04
2099.77
761.933
-652.506
-2089.6
-3520.6
-4914.97
-6244.93
-7483.89
-8610.49
-9600.36
-10433.7
-11090.5
-11553.9
-11804.5
-11828.7
-11616
-11160.3
-10462.1
-9528.04
-8371.61
-7014.67
-5489.72
-3836.95
-2101.96
-339.326
1424.22
3156.73
4782.38
6273.61
7607.63
8765.27
9734.94
10500.4
-6187.1
-6834.38
-7330.51
-7619.98
-7682.86
-7515.56
-7125.34
-6527.64
-5753.86
-4865.33
-3912.36
-2934.29
-1974.08
-1084.12
-269.846
439.249
1018.19
1450.32
1738.96
1887.46
1900.04
1796.69
1593.79
1309.29
966.668
589.698
190.275
-186.504
-519.814
-784.051
-949.425
-992.824
-896
-646.49
-239.256
316.481
1001.8
1820.13
2696.4
3610.34
4503.85
5348.93
6084.43
6695.59
7135.95
7390.91
7434.68
7271.09
6890.47
6303.3
5509.26
4533.47
3398.91
2137.65
779.615
-655.474
-2110.84
-3558.46
-4967.66
-6310.78
-7561.27
-8698.53
-9697.89
-10540.2
-11205.2
-11675.8
-11931.8
-11966
-11755.3
-11300.7
-10601
-9662.05
-8496.86
-7126.94
-5584.93
-3911.6
-2153.4
-366.094
1422.82
3180.51
4829.23
6340.46
7690.92
8861.05
9838.75
10609.1
-6338.14
-6982.6
-7472.97
-7759.09
-7801.26
-7613.78
-7201.4
-6579.47
-5781.3
-4869.45
-3894.09
-2895.8
-1919.13
-1015.62
-183.772
530.828
1113.65
1546.35
1832.13
1971.73
1976.89
1862.42
1645.93
1346.12
987.078
592.845
175.022
-219.813
-571.3
-852.621
-1033.61
-1089.15
-1000.79
-754.368
-343.876
222.036
925.874
1758.26
2663.75
3607.78
4530.86
5406.37
6168.23
6804.03
7262.87
7531.55
7582.77
7418.23
7033.07
6435.66
5625.49
4629.1
3471.31
2184.81
801.355
-659.742
-2138.03
-3606.42
-5034.13
-6393.63
-7658.44
-8808.99
-9820.15
-10673.7
-11349
-11828.6
-12090.3
-12138.5
-11929.7
-11477
-10775.7
-9830.8
-8654.79
-7268.68
-5705.26
-4006.07
-2218.59
-400.07
1420.8
3210.27
4888.2
6424.63
7795.77
8981.57
9969.74
10745.8
-6501.52
-7157.61
-7653.7
-7937.77
-7975.29
-7772.9
-7335.92
-6683.31
-5852.28
-4906.99
-3897.71
-2868.12
-1865.41
-942.068
-81.2292
641.524
1229.86
1663.99
1946.1
2078.45
2071.58
1942.86
1709.43
1390.87
1011.81
596.762
156.61
-259.993
-633.532
-935.613
-1135.83
-1206.28
-1129.13
-886.434
-472.153
106.061
830.148
1684.66
2623.75
3603.95
4563
5475.44
6269.43
6935.18
7416.3
7701.66
7762.09
7595.66
7205.57
6595.61
5765.82
4744.32
3558.28
2241.11
826.827
-665.755
-2171.67
-3664.98
-5114.87
-6493.91
-7775.8
-8942.21
-9967.42
-10834.5
-11522.3
-12013
-12284.8
-12344.6
-12140
-11690.2
-10987.2
-10035.4
-8846.51
-7440.97
-5851.71
-4121.21
-2298.22
-441.674
1417.89
3245.87
4959.44
6526.38
7922.53
9127.26
10128.1
10911.2
-6680.38
-7347.99
-7850.85
-8139.03
-8162.39
-7942.2
-7478.96
-6793.77
-5927.15
-4945.34
-3899.45
-2835.71
-1803.85
-853.72
30.8221
768.472
1363.53
1800.72
2079.09
2202.99
2182.77
2037.58
1784.42
1443.81
1041.23
601.677
135.177
-307.033
-706.701
-1033.4
-1256.51
-1344.61
-1281.3
-1043.41
-625.262
-32.3617
714.625
1597.37
2575.87
3598.46
4600.24
5556.41
6388.53
7089.76
7597.04
7902.09
7974.61
7803.57
7408.82
6783.75
5930.73
4879.36
3659.83
2306.35
855.664
-674.026
-2212.33
-3734.69
-5210.4
-6612.07
-7913.73
-9098.5
-10139.9
-11022.9
-11725.4
-12229.6
-12515.8
-12582.3
-12386.6
-11940.9
-11236.5
-10276.8
-9073.11
-7644.96
-6025.39
-4258
-2393.07
-491.284
1413.88
3287.25
5043.36
6646.23
8071.79
9298.75
10314.6
11105.9
-6880.69
-7569.92
-8087.84
-8381.29
-8401.03
-8162.8
-7668.55
-6943.71
-6033.11
-5005.09
-3912.84
-2805.86
-1736.74
-751.808
158.002
914.943
1519.05
1959.54
2233.17
2348.02
2311.84
2147.26
1871.15
1505.03
1075.28
607.522
110.599
-361.121
-791.117
-1146.4
-1396.58
-1506.43
-1458.36
-1227.11
-805.029
-194.836
578.311
1494.85
2519.23
3590.7
4642.43
5649.37
6525.93
7268.4
7805.79
8133.44
8218.27
8046.06
7643.95
7000.76
6120.81
5034.54
3775.99
2380.3
887.437
-685.176
-2260.72
-3816.22
-5321.37
-6748.66
-8072.7
-9278.26
-10338.1
-11239.2
-11958.6
-12478.6
-12780.2
-12856.8
-12670.9
-12230.4
-11524.7
-10556.5
-9336.1
-7882.16
-6227.72
-4417.68
-2504.18
-549.306
1408.14
3334.37
5140.39
6784.65
8244.2
9496.73
10529.9
11330.3
-7093.84
-7809.45
-8347.12
-8651.15
-8664.56
-8407.98
-7880.97
-7113.26
-6154.12
-5074.67
-3930.66
-2775.16
-1663.38
-638.176
299.44
1078.94
1695.84
2138.53
2410.26
2512.02
2458.83
2272.07
1969.82
1574.67
1114.04
614.393
82.8354
-422.4
-886.918
-1275.31
-1556.71
-1692.91
-1659.38
-1440.38
-1011.45
-384.136
419.785
1375.53
2452.77
3579.95
4689.49
5754.49
6682.14
7471.92
8043.43
8397.01
8493.44
8324.34
7912.21
7247.35
6336.67
5210.14
3906.72
2462.64
921.569
-699.971
-2317.65
-3910.37
-5448.54
-6904.28
-8253.28
-9481.88
-10562.1
-11483.7
-12222.3
-12760.3
-13078.8
-13167.2
-12994
-12559.8
-11853.3
-10875.9
-9637.11
-8154.28
-6460.34
-4601.67
-2632.45
-617.346
1400.61
3388.16
5250.38
6942.24
8440.5
9722
10774.7
11585.4
-7329.8
-8081.14
-8646.51
-8964.56
-8977.93
-8700.49
-8135.09
-7317.24
-6300.99
-5160.71
-3956.02
-2743.84
-1582.15
-510.282
458.894
1264
1895.58
2343.06
2608.96
2695.69
2624.56
2412.7
2080.86
1652.93
1157.64
622.279
51.8189
-490.911
-994.391
-1420.83
-1737.36
-1904.67
-1890.4
-1681.9
-1248.14
-602.095
236.882
1237.81
2375.13
3565.32
4741.29
5871.96
6857.71
7701.24
8310.93
8694.26
8804.48
8636.76
8214.46
7524.32
6579.06
5406.52
4052
2553
957.393
-719.308
-2384.12
-4018.07
-5592.78
-7079.67
-8456.12
-9709.85
-10812.4
-11756.9
-12516.9
-13075.1
-13413.1
-13515.5
-13357.1
-12930.6
-12223.8
-11236.8
-9978.09
-8463.33
-6725.18
-4811.7
-2779.3
-696.126
1391
3448.31
5373.82
7119.66
8661.54
9975.47
11050
11871.9
-7580.15
-8375.32
-8975.66
-9313.78
-9328.57
-9029.5
-8422.65
-7549.52
-6469.48
-5260.96
-3988.04
-2712.28
-1494.13
-368.989
636.11
1469.83
2117.88
2572.34
2829.64
2902.3
2809.82
2569.5
2204.48
1740.01
1206.1
631.181
17.6536
-566.68
-1113.92
-1583.2
-1939.41
-2142.85
-2154.31
-1952.88
-1518.38
-850.666
27.5213
1080.06
2284.48
3545.79
4797.74
6001.97
7053.31
7957.37
8609.36
9026.88
9153.17
8985.24
8551.76
7832.47
6848.71
5624.02
4211.67
2650.88
994.061
-744.269
-2461.27
-4140.39
-5755.11
-7275.61
-8681.95
-9962.63
-11089.5
-12059.2
-12842.7
-13423.5
-13784
-13898.5
-13761.8
-13344.2
-12638
-11641.4
-10361.2
-8811.72
-7024.59
-5049.82
-2946.41
-786.659
1378.75
3514.73
5511.17
7317.73
8908.3
10258.2
11356.8
12190.8
-7852.79
-8702.63
-9346.89
-9709.65
-9732.45
-9407.67
-8752.93
-7816.51
-6663.29
-5376.71
-4026.39
-2678.92
-1397.68
-211.215
833.853
1698.73
2364.79
2824.62
3076.33
3131.77
3015.23
2742.98
2340.89
1835.83
1259.43
641.061
-19.7142
-649.902
-1245.82
-1762.91
-2164.54
-2409.18
-2450.13
-2260.98
-1824.15
-1133.08
-210.967
900.861
2178.28
3520.25
4858.63
6144.63
7269.64
8241.29
8939.6
9396.43
9537.97
9371.44
8925.17
8172.65
7146.37
5863.05
4385.74
2755.79
1030.65
-776.112
-2550.44
-4278.71
-5936.73
-7493.12
-8931.59
-10240.8
-11393.7
-12391
-13200.1
-13806.1
-14192.5
-14322.8
-14211.1
-13802.6
-13098.2
-12092.1
-10789.2
-9202.09
-7361.18
-5318.32
-3135.56
-890.068
1363.3
3587.31
5662.9
7537.28
9181.81
10571.3
11696
12543.2
-8141.91
-9057.82
-9756.21
-10149.8
-10186.7
-9832.86
-9125.38
-8118.46
-6883.29
-5509.2
-4072.17
-2644.72
-1294.53
-36.0701
1052.41
1951.48
2637.64
3102.94
3348.21
3386.49
3241.58
2934.14
2491.04
1941.21
1317.89
651.932
-60.2121
-740.738
-1390.48
-1960.66
-2413.89
-2705.38
-2778.7
-2607.11
-2168.69
-1452.67
-481.717
699.882
2052.39
3487.78
4923.91
6300.24
7507.83
8554.36
9303.43
9805.19
9966.23
9798.6
9336.53
8546.75
7473.37
6124.34
4573.97
2866.87
1065.68
-816.676
-2653.33
-4434.72
-6138.96
-7733.29
-9205.76
-10544.6
-11725.5
-12752.5
-13589
-14223.2
-14637.9
-14784.3
-14706
-14306.5
-13606
-12591.1
-11264.7
-9637.37
-7737.98
-5619.85
-3348.79
-1007.59
1344.26
3666.21
5829.79
7779.6
9483.53
10916.3
12069.3
12930.3
-8353.05
-9323.41
-10066.3
-10482.9
-10537.9
-10158.8
-9410.5
-8349.22
-7051
-5610.04
-4107.17
-2619.04
-1214.28
92.2996
1216.02
2140.46
2841.42
3310.61
3550.6
3576.09
3409.25
3075.58
2601.29
2018.22
1360.2
659.206
-90.1507
-807.637
-1497.23
-2107.07
-2599.92
-2927.77
-3028.33
-2870.85
-2431.74
-1697.27
-689.714
543.435
1956.05
3460.78
4970.85
6414.6
7684.6
8786.95
9573.64
10109.5
10283.3
10116.4
9640.84
8822.96
7713.83
6314.88
4709.29
2944.13
1085.97
-852.089
-2734.01
-4553.9
-6290.95
-7911.96
-9408.63
-10768.2
-11969.4
-13017.9
-13874.4
-14530.1
-14966.1
-15121.7
-15076.9
-14681
-13984.8
-12964.5
-11621.6
-9965.1
-8022.85
-5848.55
-3511.24
-1097.92
1328.42
3723.82
5953.46
7959.79
9707.76
11172.5
12345.9
13216.7
-8465.93
-9466.76
-10234.7
-10663.6
-10730.3
-10336.4
-9565.89
-8474.87
-7142.29
-5664.95
-4126.3
-2605.2
-1170.63
161.47
1304.49
2242.65
2951.58
3422.8
3659.89
3678.17
3499.73
3151.72
2660.7
2059.51
1382.84
663.023
-106.12
-843.493
-1554.55
-2185.9
-2700.4
-3048.21
-3163.99
-3014.34
-2575.06
-1830.72
-803.359
457.706
1903.28
3445.67
4995.84
6476.05
7779.99
8912.48
9719.54
10273.8
10454.2
10288
9804.85
8971.83
7843.22
6417.23
4781.68
2985.05
1096.02
-872.011
-2778.19
-4618.74
-6373.23
-8008.47
-9518.07
-10888.6
-12100.7
-13160.7
-14027.7
-14695.1
-15142.9
-15308.4
-15271.8
-14882.9
-14189.5
-13166.5
-11814.9
-10142.8
-8177.64
-5972.98
-3599.83
-1147.33
1319.47
3754.68
6020.11
8057.05
9828.81
11310.9
12495.1
13371.2
-8581.07
-9614.45
-10409.3
-10850.9
-10931.7
-10521.4
-9727.78
-8605.76
-7237.39
-5722.19
-4146.36
-2591
-1125.34
232.727
1395.89
2348.26
3065.4
3538.71
3772.85
3783.67
3593.28
3230.16
2722.01
2102.15
1406.33
667.073
-122.121
-880.129
-1613.38
-2267.13
-2804.27
-3172.92
-3304.72
-3163.47
-2724.35
-1969.91
-922.125
367.876
1848.06
3429.5
5021.23
6539.14
7878.32
9041.93
9870.03
10443.5
10630.5
10465.2
9973.98
9125.43
7976.54
6522.57
4855.99
3026.75
1105.75
-893.144
-2824.28
-4686.11
-6458.43
-8108.15
-9630.94
-11012.4
-12235.7
-13307
-14184.8
-14864.6
-15324.8
-15505.7
-15467.3
-15090.9
-14400.9
-13375.3
-12015
-10327.1
-8338.41
-6102.38
-3692.08
-1198.94
1309.9
3786.24
6088.74
8157.37
9953.64
11453.6
12648.8
13530.3
-8698.72
-9766.89
-10590.6
-11044.8
-11142.9
-10714
-9896.4
-8742.01
-7336.35
-5781.77
-4167.32
-2576.35
-1078.35
306.252
1490.33
2457.36
3182.94
3658.34
3889.39
3892.21
3689.77
3310.88
2785.07
2146.07
1430.52
671.117
-138.27
-917.717
-1673.89
-2350.88
-2911.57
-3302.02
-3451.02
-3318.53
-2879.89
-2115.14
-1046.26
273.781
1790.16
3412.15
5046.93
6603.85
7979.59
9175.31
10025.2
10618.6
10813.9
10648.2
10148.3
9283.88
8113.77
6631.02
4932.18
3069.29
1115.1
-915.607
-2872.42
-4756.23
-6546.61
-8210.88
-9747.06
-11139.2
-12374
-13457
-14346
-15038.8
-15511.9
-15708
-15669
-15305.4
-14619.3
-13591.3
-12222.2
-10518.2
-8505.47
-6237.02
-3788.21
-1252.91
1299.7
3818.55
6159.48
8260.9
10082.4
11600.8
12807.2
13694.1
-8818.99
-9924.3
-10779
-11251.9
-11358.2
-10914.4
-10072
-8883.74
-7439.24
-5843.7
-4189.15
-2561.21
-1029.61
382.161
1587.91
2570.1
3304.33
3781.88
4009.71
4004.17
3789.12
3393.9
2849.89
2191.2
1455.16
674.937
-154.565
-956.241
-1735.98
-2437.07
-3022.31
-3435.58
-3602.78
-3479.69
-3041.9
-2266.62
-1175.95
175.283
1729.44
3393.61
5072.96
6670.25
8083.96
9312.69
10185
10799.1
11001.3
10837.1
10327.7
9447.31
8255.06
6742.61
5010.21
3112.44
1123.76
-939.741
-2922.86
-4829.18
-6637.75
-8316.56
-9866.43
-11269.2
-12516.1
-13610.9
-14511.2
-15217.7
-15704.3
-15915.6
-15876.8
-15526.6
-14844.6
-13814.4
-12436.7
-10716.2
-8679.01
-6377.07
-3888.44
-1309.4
1288.69
3851.5
6232.26
8367.62
10215.2
11752.5
12970.3
13862.7
-8941.92
-10086.9
-10974.9
-11472.8
-11577.1
-11122.9
-10254.7
-9031.13
-7546.2
-5908.07
-4211.88
-2545.55
-979.112
460.529
1688.65
2686.48
3429.57
3909.31
4133.8
4119.53
3891.4
3479.28
2916.55
2237.47
1480.4
678.406
-170.826
-995.655
-1799.7
-2525.8
-3136.62
-3573.73
-3760.32
-3647.22
-3210.63
-2424.65
-1311.46
72.174
1665.76
3373.78
5099.26
6738.29
8191.35
9454.1
10349.7
10985.4
11195
11032
10512.2
9615.64
8400.02
6857.11
5089.74
3155.87
1131.39
-965.741
-2975.73
-4904.96
-6731.95
-8425.43
-9989.14
-11402.7
-12662
-13768.5
-14680.3
-15401.3
-15901.8
-16128.8
-16090.3
-15754.5
-15077
-14044.9
-12658.6
-10921.3
-8859.16
-6522.62
-3992.78
-1368.37
1276.96
3885.18
6307.14
8477.64
10352
11909
13138.3
14036.2
-9067.5
-10254.7
-11178.4
-11702.1
-11806.1
-11339.9
-10444.9
-9184.31
-7657.28
-5974.9
-4235.5
-2529.34
-926.77
541.511
1792.72
2806.69
3558.86
4040.86
4261.8
4238.4
3996.67
3567.09
2985.01
2284.84
1506.29
681.253
-186.654
-1035.94
-1865.13
-2617.09
-3254.52
-3716.55
-3923.89
-3821.34
-3386.33
-2589.49
-1453.06
-35.6884
1598.94
3352.61
5125.84
6808.07
8302.05
9599.55
10519.3
11177.3
11393.7
11233.1
10701.7
9789.08
8549.1
6974.72
5170.92
3199.57
1137.93
-993.692
-3031.05
-4983.72
-6829.27
-8537.76
-10115.3
-11539.4
-12811.6
-13929.8
-14853.6
-15589.5
-16104.6
-16346.9
-16310.2
-15989.6
-15316.9
-14282.9
-12888.1
-11133.9
-9046.29
-6674.03
-4101.48
-1430.08
1264.48
3919.55
6384.09
8590.97
10492.9
12070
13311
14214.6
-9200.34
-10434.1
-11397.4
-11948.7
-12053.8
-11573.7
-10649.8
-9349.12
-7776.75
-6046.76
-4260.95
-2512.01
-870.696
628.045
1903.84
2935.02
3696.83
4181.21
4398.31
4365.07
4108.8
3660.51
3057.66
2335.08
1533.7
684.719
-203.602
-1078.72
-1934.52
-2714.22
-3380.38
-3869.42
-4091.96
-4008.62
-3575.71
-2767.42
-1606.17
-152.529
1526.31
3329.21
5153.47
6882.15
8420.15
9754.4
10700.2
11382.1
11596.1
11448
10903.1
9974.05
8707.48
7099.36
5256.33
3244.8
1143.49
-1024.64
-3090.95
-5068.61
-6933.49
-8657.52
-10249.7
-11684.6
-12970.5
-14100.5
-15037.1
-15789.5
-16319.7
-16577.6
-16545.1
-16240.4
-15572.8
-14537.3
-13133.8
-11361.6
-9247.45
-6837
-4218.69
-1496.87
1250.64
3955.82
6465.98
8711.88
10643.3
12241.9
13495
14404.5
-9340.73
-10626.1
-11633.2
-12214.8
-12322.1
-11826.1
-10870.8
-9526.59
-7905.32
-6124.04
-4288.32
-2493.4
-810.439
720.776
2022.8
3072.37
3844.42
4331.33
4544.22
4500.32
4228.31
3759.95
3134.83
2388.47
1562.74
688.71
-221.936
-1124.22
-2008.07
-2817.53
-3514.74
-4033.31
-4280.48
-4210.53
-3780.18
-2959.82
-1772.04
-279.344
1447.31
3303.22
5182.2
6960.66
8546.05
9919.17
10893.3
11601
11870.6
11678.6
11117.3
10171.5
8876.01
7231.95
5346.62
3291.86
1147.84
-1059.11
-3156.25
-5160.19
-7045.21
-8785.4
-10392.5
-11838.2
-13139.2
-14281.1
-15231.4
-16001.7
-16547.9
-16820.9
-16796
-16508.3
-15846.2
-14809.3
-13397
-11605.9
-9463.9
-7012.69
-4345.28
-1569.28
1235.3
3994.07
6552.95
8840.67
10803.6
12425.2
13691.1
14606.7
-9484.33
-10824.9
-11879.2
-12492.8
-12603.2
-12089.5
-11101.3
-9711.36
-8039.09
-6204.43
-4316.82
-2474.12
-747.917
816.721
2145.69
3214.2
3996.72
4486.2
4694.62
4639.48
4351.31
3862.22
3214.03
2443.23
1592.47
693.013
-241.275
-1170.86
-2083.29
-2923.69
-3653.33
-4203.13
-4476.07
-4421.02
-3993.42
-3161.06
-1945.88
-412.302
1364.21
3275.4
5211.24
7041.26
8676.22
10088.7
11092.5
11826
12082.7
11916.2
11337
10375.2
9049.67
7367.72
5438.32
3338.76
1150.4
-1096.39
-3224.87
-5255.87
-7160.62
-8917.8
-10539.2
-11995.6
-13312.3
-14465.9
-15430.9
-16219.7
-16782.2
-17071.5
-17054.1
-16785.4
-16129
-15090.9
-13669.7
-11859.5
-9689.28
-7195.91
-4477.57
-1645.26
1219.11
4033.27
6642.36
8973.64
10969.1
12614.3
13893
14814.8
-9630.99
-11030.9
-12135.6
-12783.2
-12897.2
-12364.4
-11341.8
-9903.64
-8178.2
-6287.97
-4346.41
-2454.08
-682.907
916.164
2272.86
3360.92
4154.23
4646.36
4850.02
4783.31
4478.03
3967.42
3295.28
2499.24
1622.9
697.493
-261.13
-1218.51
-2160.15
-3032.7
-3796.35
-4379.05
-4679.16
-4640.47
-4215.97
-3371.58
-2128
-551.907
1276.54
3245.53
5240.13
7124
8810.25
10263
11298.5
12057.7
12324.8
12162.5
11562.4
10585.2
9227.5
7507.09
5531.56
3385.51
1151.1
-1136.29
-3297.01
-5355.66
-7280.01
-9053.68
-10690
-12156.8
-13489.8
-14654.5
-15635.4
-16442.5
-17020.4
-17326.2
-17329.5
-17062.3
-16421.6
-15383
-13952.9
-12122.3
-9924.32
-7387.15
-4615.7
-1724.84
1201.85
4073.28
6734.03
9110.86
11139.9
12809.5
14101
15029
-9781.01
-11243.8
-12403.4
-13087.3
-13205.1
-12651.2
-11592.7
-10103.7
-8322.86
-6374.83
-4377.19
-2433.37
-615.42
1019.03
2404.17
3512.34
4316.67
4811.47
5010.07
4931.03
4608.29
4075.53
3378.59
2556.56
1653.9
702.163
-281.271
-1266.93
-2238.97
-3144.89
-3944.11
-4561.33
-4890.06
-4869.34
-4448.26
-3591.88
-2318.86
-698.345
1184.26
3213.48
5269.01
7208.64
8948.49
10442
11511.1
12296
12571.5
12417.6
11793.4
10801.7
9410.87
7650.37
5626.99
3432.17
1149.35
-1179.4
-3372.55
-5458.85
-7403.07
-9194.55
-10845.6
-12322.6
-13673.6
-14847.4
-15846.2
-16668.5
-17264.5
-17592.4
-17623
-17337.9
-16723.2
-15686.4
-14248.2
-12395.5
-10168.5
-7586.8
-4759.82
-1808.42
1183.17
4114.48
6828.19
9251.82
11315.6
13010.7
14314.9
15249.3
-9932.95
-11466.7
-12683.6
-13405
-13526.1
-12950.4
-11854.3
-10311.8
-8473.18
-6465.06
-4409.12
-2411.91
-545.167
1125.6
2539.92
3668.8
4484.48
4982.01
5175.27
5083.53
4742.39
4186.55
3463.91
2615.11
1685.59
707.163
-301.761
-1316.28
-2320
-3260.31
-4096.53
-4749.99
-5108.92
-5108.03
-4690.78
-3822.57
-2519.29
-851.813
1087.33
3179.03
5297.74
7295.4
9091.01
10625.7
11730.7
12541
12825.1
12682.1
12030
11024.4
9598.84
7796.44
5722.95
3477.97
1145.66
-1225.06
-3451.17
-5567.28
-7531.77
-9341.14
-11005.5
-12491.8
-13859.2
-15041.3
-16058.7
-16898
-17509
-17858.2
-17920.9
-17631.8
-17022.7
-15996.2
-14555.6
-12682.8
-10421.7
-7794.44
-4910.56
-1896.78
1163.36
4156.6
6925.16
9396.39
11497.3
13218.4
14534.8
15475.8
-10091.4
-11694.5
-12971.9
-13738.7
-13866.3
-13262.2
-12127.7
-10528.2
-8629.32
-6558.83
-4442.31
-2389.8
-472.093
1235.83
2680.12
3830.31
4657.6
5157.93
5345.54
5240.47
4880.29
4300.63
3551.36
2675.16
1718
712.308
-322.659
-1367.18
-2402.62
-3378.48
-4253.86
-4944.77
-5336.26
-5356.15
-4944.19
-4064.04
-2729.98
-1013.19
984.997
3142.09
5326.27
7384.31
9237.82
10814.3
11957.6
12792.9
13083.8
12956.6
12271.7
11252.5
9790.6
7946.76
5821.2
3523.61
1139.14
-1274.71
-3535.46
-5681.5
-7664.76
-9491
-11164.5
-12660.9
-14046.9
-15240.6
-16286.2
-17136.7
-17769.6
-18147.9
-18221.9
-17949.6
-17333.4
-16301.1
-14866.1
-12981.1
-10690.4
-8010.34
-5068.05
-1989.4
1143.74
4199.26
7023.66
9545.03
11684.2
13432.5
14761.4
15717.1
-10244.3
-11934.9
-13285.4
-14092
-14210.4
-13587.3
-12412.9
-10754.2
-8792.16
-6656.24
-4476.7
-2367.01
-395.874
1349.92
2824.94
3997.04
4836.26
5339.25
5520.69
5401.31
5021.69
4417.4
3640.72
2736.39
1751.18
717.598
-343.962
-1419.44
-2487.33
-3499.55
-4415.81
-5144.75
-5571.03
-5613.3
-5207.64
-4316.41
-2950.53
-1182.65
877.284
3102.38
5354.63
7475
9388.78
11007.4
12192.1
13051.4
13355.4
13243
12519.9
11488.5
9989.3
8101.42
5921.28
3568.35
1129.56
-1328.08
-3624.82
-5799.88
-7800.81
-9644.07
-11327.2
-12836.6
-14241.6
-15438.1
-16499.5
-17349.5
-18000.6
-18362.9
-18382.5
-18246.8
-17667.1
-16628.9
-15175
-13277.7
-10975.7
-8241.82
-5231.98
-2085.56
1123.2
4241.3
7125.52
9699.39
11876.4
13652.4
14994.6
15970
-10415.7
-12187.6
-13590.2
-14435.6
-14592.2
-13931
-12708.2
-10988.3
-8961.73
-6757.99
-4512.44
-2343.72
-316.281
1467.89
2974.47
4169.11
5020.67
5526.6
5701.77
5568.25
5168.16
4537.88
3732.52
2799.16
1785.2
723.221
-365.763
-1472.29
-2573.15
-3621.41
-4581.05
-5350.55
-5814.85
-5879.31
-5480.95
-4577.36
-3181.28
-1358.94
764.325
3059.66
5382.69
7567.82
9544.62
11205.2
12434.6
13316.3
13626.7
13530
12782.6
11729.4
10191.8
8257.18
6021.28
3611.79
1118.03
-1386.1
-3717.37
-5922.9
-7941.05
-9797.31
-11493.8
-13000.1
-14371.7
-15410.6
-15968.5
-15686
-14470.9
-13204.2
-12849.5
-13414.3
-14593.6
-15570.2
-15467.9
-13596.7
-11248.6
-8491.08
-5406.3
-2186.04
1098.26
4282.76
7234.7
9851.59
12080.1
13877.7
15235.7
16224.4
-10567.7
-12352.7
-13490.6
-13535.2
-12836.2
-12976
-12909
-11229.3
-9135.54
-6863.07
-4549.35
-2317.92
-235.15
1589.77
3128.74
4346.47
5210.63
5719.25
5887.43
5738.04
5317.35
4660.82
3826.18
2862.86
1819
728.571
-387.699
-1525.08
-2658.81
-3745.34
-4750.83
-5561.96
-6063.63
-6154.19
-5764.65
-4847.35
-3424
-1543.2
646.193
3013.75
5410.51
7662.34
9705.73
11408
12684.8
13588
13908.3
13817.8
13061.8
11976.8
10398.7
8416.78
6123.63
3655.1
1101.33
-1448.25
-3813.77
-6049.13
-8076.71
-9944.46
-11609.8
-12893.4
-13176.9
-11079.7
-7672.85
-4827.6
-2799.33
-1905.84
-1669.38
-2066.73
-3624.36
-6813.56
-11097.6
-13008.7
-11523.5
-8739.09
-5593.27
-2295.72
1073.28
4322.33
7350.26
10006.7
12295.6
14107.1
15488.6
16471
-10375.7
-9756.07
-5689.41
-3137.82
-2989.12
-4953.05
-8440.34
-10400.4
-9318.91
-6971.44
-4587
-2289.63
-151.751
1715.69
3288.07
4529.51
5406.63
5918.28
6079.4
5914.66
5471.73
4787.27
3921.79
2927.54
1853.54
734.353
-409.63
-1578.88
-2745.04
-3874.03
-4927.41
-5782.89
-6326
-6436.58
-6058.28
-5128.41
-3672
-1738.11
522.009
2964.95
5438.04
7758.65
9871.44
11615.6
12943.1
13866.5
14198.7
14116.8
13347.6
12232.8
10608.8
8580.89
6228.78
3697.16
1080.5
-1511.19
-3913.49
-6172.8
-8195.79
-9935.7
-10610.5
-8248.31
-4521.29
-1975.21
-662.353
-133.005
-39.1796
-32.8217
-26.8437
-36.1462
-85.9285
-320.988
-1584.72
-6184.28
-10157.4
-8976.7
-5776.96
-2415.05
1048
4365.07
7461.92
10181.7
12502.9
14344.3
15759.4
16711.7
-5666.93
-1657.79
-323.896
-41.3962
-53.9129
-171.644
-874.013
-4126.45
-7671.39
-7089.55
-4628.61
-2258.91
-65.4791
1845.63
3452.44
4718.19
5608.69
6123.29
6276.67
6094.08
5629.14
4916.39
4019.04
2993.21
1888.53
740.253
-431.609
-1631.41
-2835.48
-4005.69
-5099.61
-5996.42
-6578.5
-6717.77
-6364.12
-5419.34
-3930.74
-1937.94
392.292
2913.17
5463.9
7856.59
10043.3
11827.9
13210.3
14152.1
14490.3
14424.7
13638.6
12494.4
10824.5
8750.63
6336.6
3738.82
1058.91
-1577.08
-4010.57
-6252.6
-7884.81
-6851.82
-3489.28
-1164.37
-142.75
12.8408
12.4254
13.6136
14.6777
14.7561
15.2026
15.425
14.1919
8.71196
-22.9924
-357.363
-3368.33
-7628.73
-5961.08
-2528.01
1014.11
4414.67
7577.73
10350.6
12716.1
14588.6
16042.7
16956.6
-497.415
24.1866
24.389
19.8868
17.4786
13.0671
-2.42191
-168.378
-1821.87
-5193.33
-4663.43
-2232.37
23.9363
1979.68
3621.66
4912.44
5816.74
6333.37
6478.31
6278.94
5790.85
5048.47
4118.34
3060.08
1923.97
746.565
-452.136
-1680.6
-2904
-4046.95
-4944.39
-5313.03
-5186.91
-5098.68
-5156.23
-5078.79
-4198.23
-2144.37
260.395
2858.53
5489
7956.32
10220.3
12044.1
13488.1
14443
14797.7
14748.2
13940.1
12763.9
11054.8
8928.56
6440.79
3777.1
1035.58
-1642.18
-4044.53
-5453.71
-3433.47
-1054.11
-89.9827
14.1191
13.8659
15.0938
14.6545
15.4886
16.0224
15.8807
16.1669
16.4417
16.3466
16.0782
15.5323
9.11633
-119.998
-2118.61
-5236.04
-2636.53
980.793
4458.18
7708.96
10503.9
12967.3
14826.9
16330.4
17213.5
21.0947
24.6714
24.475
20.5455
18.1289
15.3234
12.7615
6.79693
-37.6558
-728.119
-2916.64
-2167.05
109.717
2118.07
3796.64
5112.43
6031.33
6551.88
6693.03
6470.08
5957.9
5184.64
4220.66
3128.86
1961.29
757.102
-456.425
-1658.91
-2657.53
-2889.85
-2182.2
-1417.33
-914.517
-757.44
-1034.9
-1837.56
-2809.49
-2191.92
123.224
2800.55
5515.24
8059.36
10401.1
12264
13776.8
14737.8
15115.1
15071.2
14247
13036.3
11287
9104.56
6539.38
3814.97
1014.15
-1645.91
-2922.62
-1326.15
-208.195
12.4881
13.5939
13.8678
13.7882
14.7577
14.4037
15.102
15.5986
15.5984
15.8413
16.0771
15.9809
15.7641
15.816
16.2905
14.3605
-55.5555
-1526.52
-2476.4
948.898
4503.91
7832.4
10683.4
13208
15081.7
16605.7
17492.1
20.9118
24.0456
23.6667
20.0878
18.0058
15.142
12.3314
8.66429
5.334
-4.25724
-188.364
-842.208
276.719
2256.29
3978.21
5318.98
6250.82
6773.59
6900.62
6663.43
6127.57
5322.59
4323.88
3200.36
2011.38
821.825
-220.513
-684.908
-585.835
-304.497
-106.082
-18.6175
1.30778
3.43652
-0.204999
-27.6934
-195.943
-701.442
176.744
2733.64
5542.11
8164.19
10584.7
12491.1
14075.4
15036.2
15455.7
15390.9
14559.8
13308.9
11522.8
9279.59
6645.35
3856
1033.25
-672.424
-302.086
3.59197
9.46536
12.1519
13.2277
13.5076
13.552
14.3442
14.1299
14.808
15.2795
15.3345
15.5364
15.7502
15.69
15.5614
15.4477
15.6606
16.1345
13.5193
-18.6093
-663.201
913.796
4565.41
7938.16
10896.5
13423.5
15372.3
16866.4
17783.3
20.9508
23.4862
22.9667
19.695
16.9594
14.8189
12.1837
8.57849
5.32009
4.04897
6.42623
128.079
945.399
2481.85
4159.83
5530.96
6481.03
7007.15
7131
6867.08
6300.95
5464.42
4434.46
3297.86
2167.89
1263.11
584.578
208.523
53.5337
9.06599
9.84652
10.8473
11.7104
11.9397
12.6751
12.6859
17.4845
86.7271
757.399
2740.22
5559.38
8269.76
10771.3
12725
14382.4
15339.8
15812.7
15712.9
14880.3
13594.5
11760.6
9461.17
6757.25
3903.77
1382.94
202.626
16.1795
15.5161
9.67468
11.7731
12.8566
13.1569
13.2827
14.0571
14.0093
14.6116
15.057
15.1572
15.372
15.5319
15.4619
15.2547
15.1099
15.3472
15.3644
13.6391
12.4315
64.6652
1255.07
4622.48
8051.55
11115.8
13646.2
15675
17133.7
18073.9
20.8189
22.9439
22.3468
19.3156
17.1768
14.5325
11.8393
8.49218
5.35908
3.70941
1.84742
8.80658
264.467
2052.91
4171.64
5721.52
6705.12
7235.16
7346.56
7051.61
6466.01
5579.53
4419.84
2937.62
1460.75
536.263
97.9788
4.21227
5.64673
7.79608
8.86932
10.1667
11.0046
11.2074
11.4568
10.785
10.9007
17.2789
155.916
2117.02
5525.08
8374.8
10963.8
12958.8
14698.1
15649.3
16172.5
16037.2
15211
13893.5
11996.8
9649.95
6854.11
3647.58
632.665
2.90031
15.3474
14.3433
9.71463
11.4806
12.4581
12.872
13.146
13.8042
13.8545
14.4202
14.8418
14.9597
15.177
15.3018
15.2737
15.0708
14.9258
14.9443
14.8393
13.1221
11.2624
15.2694
501.689
4499.01
8173.34
11318.9
13892.5
15974.4
17425.5
18368.4
20.732
22.4304
21.7165
18.8838
16.6444
14.2556
11.614
8.4266
5.433
3.67852
1.3659
-1.39806
6.91242
209.567
1901.62
4545.8
6358.73
7171.04
7320.91
6881.79
5793.94
4029.02
2036.94
725.394
87.1381
0.549965
1.42917
3.81159
5.44377
7.5081
8.39432
9.6875
10.5318
10.8463
11.1172
10.3608
9.62963
9.80686
15.0382
244.856
3810.87
8370.43
11162.7
13189.9
15026.6
15962.6
16562.2
16374
15544.1
14207.3
12241.4
9808.21
6261.37
1248.76
-7.44525
3.45847
13.6489
13.3621
9.6778
11.1776
12.2239
12.6382
12.9694
13.5907
13.7062
14.2327
14.6336
14.7635
14.9719
15.0707
15.0517
14.844
14.7169
14.6629
14.4469
12.7316
10.6588
7.74563
41.9354
2282.3
8123.82
11503.8
14156.7
16269
17740.7
18669.6
20.5666
21.942
21.1576
18.5156
16.4115
13.9604
11.3715
8.38694
5.42552
3.57643
1.35622
-1.75495
-4.34452
0.199048
81.2905
628.973
2127.18
3375.1
3578.88
2875.04
1695.79
665.223
47.9604
-2.68887
-2.08236
0.311618
1.47353
3.71971
5.25175
7.26135
8.2165
9.50399
10.2744
10.5563
10.7529
10.0862
9.38168
8.941
7.3377
13.4553
438.518
5765.82
11220.5
13444.7
15350.8
16271.1
16933.6
16719.2
15888.6
14511.1
12461.9
9083.92
2201.96
-21.8716
-7.0255
2.78176
12.2079
12.5051
9.62523
10.9413
11.9666
12.43
12.79
13.3789
13.5506
14.0428
14.4174
14.5545
14.7566
14.8413
14.8227
14.6208
14.4889
14.3687
14.036
12.4279
10.3002
7.36977
8.29422
141.033
5368.71
11637.9
14422.5
16569.7
18066.7
18978.6
20.4022
21.4635
20.615
18.1226
16.0671
13.7036
11.1187
8.28158
5.4575
3.5743
1.3027
-1.68821
-4.61121
-7.34433
-6.24683
17.3874
105.055
219.569
211.674
64.6875
-8.09941
-6.78951
-5.03841
-2.97205
-1.88802
0.286423
1.49465
3.61358
5.16203
7.06991
7.98744
9.24027
9.99838
10.3098
10.4373
9.82789
9.13825
8.45789
6.55303
3.55386
18.2511
731.262
7832.07
13375.4
15654
16584.5
17372.9
17045.1
16231.6
14696.9
11479.4
3462.32
-0.181868
-22.1264
-6.91531
2.24013
10.9699
11.7344
9.57292
10.7295
11.7095
12.2145