/*--------------------------------*- C++ -*----------------------------------*\
| =========                 |                                                 |
| \\      /  F ield         | OpenFOAM: The Open Source CFD Toolbox           |
|  \\    /   O peration     | Version:  v1912                                 |
|   \\  /    A nd           | Website:  www.openfoam.com                      |
|    \\/     M anipulation  |                                                 |
\*---------------------------------------------------------------------------*/
FoamFile
{
    version     2.0;
    format      ascii;
    class       surfaceScalarField;
    location    "40";
    object      phi;
}
// * * * * * * * * * * * * * * * * * * * * * * * * * * * * * * * * * * * * * //

dimensions      [0 3 -1 0 0 0 0];
oriented        oriented;


internalField   nonuniform List<scalar> 
28285
(
-0.0500817
0.00400853
-0.0532815
0.00319982
-0.0553292
0.00204768
-0.0559944
0.00066519
-0.0551075
-0.000886851
-0.0526501
-0.0024574
-0.0486966
-0.00395346
-0.0434528
-0.00524384
-0.0372
-0.00625284
-0.0302316
-0.00696837
-0.0229048
-0.00732683
-0.015568
-0.00733675
-0.00854181
-0.00702621
-0.00209928
-0.00644253
0.00350019
-0.00559947
0.00808653
-0.00458633
0.0115367
-0.0034502
0.0137964
-0.00225963
0.0148664
-0.00107003
0.0148253
4.10772e-05
0.0137807
0.0010446
0.011881
0.00189967
0.00928881
0.00259223
0.0062037
0.00308511
0.00280127
0.00340243
-0.000721987
0.00352326
-0.0041932
0.00347121
-0.00741318
0.00321999
-0.0101838
0.0027706
-0.0123647
0.00218088
-0.0136964
0.00133169
-0.0140898
0.000393449
-0.0133521
-0.000737698
-0.0113976
-0.0019545
-0.00827068
-0.00312694
-0.00398345
-0.00428723
0.00129943
-0.00528288
0.00735954
-0.00606011
0.0139427
-0.00658313
0.0207188
-0.00677612
0.0272853
-0.00656653
0.0334559
-0.00617054
0.0387051
-0.0052492
0.0429868
-0.00428172
0.0458196
-0.00283278
0.0473096
-0.00149001
0.0470385
0.000271093
0.0453532
0.00168527
0.0418475
0.00350569
0.0369499
0.00489768
0.0305737
0.00637619
0.0230317
0.007542
0.0145319
0.00849975
0.0052924
0.00923951
-0.00437805
0.00967045
-0.0142778
0.00989977
-0.0241455
0.00986765
-0.0337811
0.00963559
-0.043001
0.00921995
-0.0516545
0.00865345
-0.0595854
0.00793096
-0.0666984
0.00711293
-0.0728457
0.00614737
-0.0779413
0.0050956
-0.0818613
0.00391992
-0.0845158
0.00265454
-0.085815
0.00129919
-0.0855737
-0.000241266
-0.0837773
-0.00179642
-0.08038
-0.00339726
-0.0753695
-0.00501049
-0.0687818
-0.00658776
-0.060704
-0.00807781
-0.0512844
-0.00941959
-0.0407242
-0.0105602
-0.029278
-0.0114461
-0.0172439
-0.0120341
-0.00494677
-0.0122971
0.00727424
-0.012221
0.0190755
-0.0118012
0.0301369
-0.0110615
0.0401795
-0.0100425
0.0489273
-0.00874779
0.0561607
-0.00723347
0.0614333
-0.0052726
-0.00373743
0.0651708
-0.0505844
0.00796797
-0.0536691
0.00628454
-0.0555613
0.00393986
-0.0560399
0.00114381
-0.0549762
-0.0019505
-0.0523538
-0.00507986
-0.0482694
-0.00803784
-0.0429327
-0.0105806
-0.0366388
-0.0125467
-0.029706
-0.0139012
-0.0224418
-0.014591
-0.0151885
-0.0145901
-0.00825523
-0.0139595
-0.00190767
-0.0127901
0.00360706
-0.0111142
0.00812539
-0.00910467
0.0115258
-0.00685064
0.0137541
-0.00448787
0.0148199
-0.00213586
0.014782
7.89284e-05
0.0137594
0.00206729
0.0118785
0.00378053
0.00929617
0.00517456
0.0062082
0.00617308
0.00279074
0.00681989
-0.000757363
0.00707136
-0.00426078
0.00697462
-0.0075143
0.00647351
-0.0103169
0.00557316
-0.0125264
0.00439046
-0.0138779
0.00268319
-0.0142808
0.000796315
-0.0135488
-0.00146975
-0.0115873
-0.00391597
-0.00844483
-0.00626938
-0.00413222
-0.00859984
0.00118534
-0.0106004
0.00728496
-0.0121597
0.0139128
-0.013211
0.0207381
-0.0136014
0.0273506
-0.013179
0.033568
-0.012388
0.0388561
-0.0105373
0.043172
-0.00859766
0.0460304
-0.00569116
0.0475444
-0.00300398
0.0472793
0.00053619
0.0455908
0.00337375
0.0420716
0.00702485
0.0371554
0.00981392
0.0307535
0.0127781
0.0231789
0.0151166
0.0146452
0.0170334
0.0053685
0.0185162
-0.00433823
0.0193772
-0.0142722
0.0198337
-0.024171
0.0197665
-0.0338339
0.0192984
-0.0430775
0.0184636
-0.0517524
0.0173284
-0.0597016
0.0158801
-0.0668329
0.0142442
-0.0729964
0.0123109
-0.0781084
0.0102076
-0.0820441
0.00785561
-0.0847124
0.00532282
-0.0860246
0.00261148
-0.0857948
-0.000471128
-0.0840054
-0.00358576
-0.0806095
-0.00679316
-0.0755941
-0.010026
-0.0689938
-0.013188
-0.0608956
-0.016176
-0.0514475
-0.0188677
-0.0408509
-0.0211568
-0.0293628
-0.0229342
-0.0172819
-0.0241151
-0.00493626
-0.0246428
0.00733251
-0.0244898
0.0191793
-0.023648
0.0302813
-0.0221634
0.0403579
-0.0201192
0.0491727
-0.0175626
0.0565949
-0.0146556
0.062407
-0.0110847
-0.00743852
0.0661081
-0.0504685
0.0119636
-0.0536262
0.00944221
-0.0556213
0.00593502
-0.0562207
0.00174323
-0.055232
-0.00293927
-0.0526712
-0.00764066
-0.0486245
-0.0120846
-0.0432944
-0.0159106
-0.0369597
-0.0188814
-0.0299312
-0.0209298
-0.0225692
-0.021953
-0.015216
-0.0219433
-0.00818641
-0.020989
-0.00175564
-0.0192209
0.00382463
-0.0166945
0.00839137
-0.0136714
0.0118235
-0.0102828
0.0140652
-0.00672953
0.0151234
-0.00319405
0.0150762
0.000126096
0.0140173
0.00312626
0.0120877
0.00571014
0.00945004
0.00781217
0.00630345
0.00931968
0.00282554
0.0102978
-0.000783236
0.0106801
-0.0043467
0.0105381
-0.00765603
0.00978284
-0.0105119
0.00842908
-0.0127739
0.00665239
-0.0141704
0.00407966
-0.0146148
0.00124072
-0.0138988
-0.00218575
-0.0119341
-0.0058806
-0.00877175
-0.00943176
-0.00441555
-0.012956
0.000967774
-0.0159838
0.00714496
-0.0183369
0.0138623
-0.0199283
0.020786
-0.0205251
0.0274896
-0.0198826
0.0338017
-0.0187001
0.0391651
-0.0159006
0.0435519
-0.0129844
0.0464524
-0.00859166
0.0479917
-0.00454332
0.0477329
0.000795034
0.0460488
0.00505779
0.042502
0.0105717
0.0375492
0.0147667
0.0310948
0.0192325
0.0234542
0.0227572
0.0148527
0.0256349
0.00550193
0.027867
-0.00427484
0.029154
-0.0142756
0.0298345
-0.0242346
0.0297255
-0.0339496
0.0290135
-0.0432391
0.027753
-0.0519555
0.0260448
-0.059939
0.0238636
-0.0671061
0.0214114
-0.0733011
0.0185058
-0.0784448
0.0153513
-0.0824108
0.0118217
-0.0851065
0.00801847
-0.0864488
0.00395383
-0.0862394
-0.000680524
-0.084463
-0.00536218
-0.0810703
-0.0101858
-0.0760449
-0.0150514
-0.0694198
-0.0198131
-0.0612806
-0.0243152
-0.0517745
-0.0283738
-0.0411051
-0.0318262
-0.0295316
-0.0345078
-0.0173567
-0.03629
-0.00491331
-0.0370861
0.00745101
-0.0368541
0.0193888
-0.0355858
0.0305724
-0.0333471
0.0407207
-0.0302675
0.0495998
-0.0264416
0.057002
-0.0220579
0.0628378
-0.0169204
-0.0116143
0.0670136
-0.0510102
0.0159886
-0.0541602
0.0125922
-0.0561061
0.00788093
-0.0566103
0.00224747
-0.0555262
-0.00402343
-0.0528434
-0.0103234
-0.0486645
-0.0162635
-0.0432056
-0.0213695
-0.0367648
-0.0253222
-0.029671
-0.0280236
-0.02226
-0.029364
-0.0148754
-0.029328
-0.00782778
-0.0280366
-0.00138921
-0.0256594
0.00418642
-0.0222701
0.00874637
-0.0182314
0.0121731
-0.0137096
0.0144044
-0.00896076
0.0154535
-0.00424319
0.0153829
0.000196723
0.0143018
0.00420738
0.0123337
0.00767815
0.00964454
0.0105014
0.00643322
0.012531
0.00288098
0.01385
-0.000811156
0.0143723
-0.00446506
0.014192
-0.00786431
0.0131821
-0.0108086
0.0113734
-0.0131543
0.00899803
-0.014619
0.0055444
-0.0151122
0.00173387
-0.0144302
-0.00286773
-0.0124634
-0.00784742
-0.00927177
-0.0126234
-0.00484941
-0.0173784
0.000634493
-0.0214677
0.00692689
-0.0246293
0.0137786
-0.02678
0.020851
-0.0275976
0.0276927
-0.0267243
0.0341474
-0.0251548
0.0396256
-0.0213788
0.0441164
-0.0174752
0.047088
-0.0115632
0.0486938
-0.00614918
0.0484406
0.0010482
0.0467514
0.00674708
0.0431588
0.0141642
0.0381486
0.0197769
0.0316124
0.0257686
0.02387
0.0304997
0.015164
0.0343409
0.00569996
0.0373311
-0.00418432
0.0390382
-0.014286
0.0399362
-0.0243359
0.0397753
-0.0341291
0.0388067
-0.0434864
0.0371103
-0.0522645
0.0348229
-0.0602983
0.0318974
-0.0675187
0.0286318
-0.0737598
0.0247469
-0.0789508
0.0205423
-0.0829628
0.0158337
-0.0856994
0.010755
-0.0870816
0.00533609
-0.0869065
-0.000855622
-0.0851511
-0.00711758
-0.0817635
-0.0135735
-0.0767235
-0.0200914
-0.0700613
-0.0264754
-0.0618605
-0.0325159
-0.0522686
-0.0379657
-0.0414895
-0.0426053
-0.0297877
-0.0462096
-0.0174714
-0.0486063
-0.00488083
-0.0496767
0.00762841
-0.0493633
0.0197032
-0.0476606
0.0310093
-0.0446532
0.0412628
-0.040521
0.0502338
-0.0354126
0.05776
-0.029584
0.0638241
-0.0229846
-0.0159073
0.0681171
-0.0513346
0.0201336
-0.0546161
0.0158738
-0.0566923
0.00995714
-0.0573304
0.00288548
-0.0562743
-0.00507953
-0.0535727
-0.0130249
-0.0493251
-0.0205111
-0.0437527
-0.0269419
-0.0371509
-0.031924
-0.0298624
-0.035312
-0.0222619
-0.0369645
-0.0147017
-0.0368881
-0.00749991
-0.0352384
-0.000934013
-0.0322253
0.004723
-0.0279271
0.00933721
-0.0228456
0.0127915
-0.0171638
0.0150216
-0.0111909
0.0160461
-0.00526763
0.0159347
0.000308145
0.0147853
0.00535677
0.0127329
0.00973048
0.00995051
0.0132838
0.00663986
0.0158416
0.00298225
0.0175076
-0.000821557
0.0181761
-0.0045919
0.0179623
-0.00810625
0.0166964
-0.0111665
0.0144337
-0.0136257
0.0114572
-0.01519
0.00710875
-0.015769
0.00231281
-0.0151329
-0.00350379
-0.0131668
-0.00981348
-0.00993968
-0.0158505
-0.00543055
-0.0218875
0.00019248
-0.0270907
0.00663527
-0.0310721
0.0136679
-0.0338127
0.0209416
-0.0348713
0.0279691
-0.0337517
0.0346158
-0.0318014
0.0402465
-0.0270095
0.0448797
-0.0221085
0.047941
-0.0146246
0.0496108
-0.00781893
0.0493764
0.0012826
0.047689
0.00843445
0.04404
0.0178132
0.0389521
0.0248648
0.0323072
0.0324135
0.0244287
0.0383782
0.0155828
0.0431869
0.00596643
0.0469474
-0.00406097
0.0490656
-0.0142978
0.0501731
-0.0244693
0.0499468
-0.0343668
0.0487042
-0.0438146
0.0465581
-0.0526753
0.0436836
-0.0607757
0.0399978
-0.0680677
0.0359238
-0.0743705
0.0310497
-0.0796251
0.0257969
-0.0836989
0.0199074
-0.0864904
0.0135466
-0.0879295
0.00677515
-0.0878013
-0.000983849
-0.0860728
-0.00884603
-0.0826927
-0.0169536
-0.0776346
-0.0251495
-0.0709233
-0.0331866
-0.0626401
-0.0407992
-0.0529322
-0.0476736
-0.0420059
-0.0535316
-0.0301317
-0.0580837
-0.017625
-0.061113
-0.00483689
-0.0624648
0.00786726
-0.0620675
0.0201254
-0.0599188
0.0315941
-0.0561219
0.0419875
-0.0509144
0.0510837
-0.0445088
0.0587032
-0.0372035
0.064795
-0.0290764
-0.0203999
0.0692876
-0.0520218
0.0244019
-0.055404
0.019256
-0.0575373
0.0120905
-0.0581575
0.00350567
-0.0570525
-0.00618449
-0.0542414
-0.0158361
-0.0498363
-0.0249162
-0.0440759
-0.0327023
-0.0372835
-0.0387164
-0.0298183
-0.0427772
-0.022052
-0.0447308
-0.0143458
-0.0445944
-0.00701967
-0.0425645
-0.000344579
-0.0389004
0.00536431
-0.033636
0.0100162
-0.0274975
0.0134898
-0.0206375
0.015713
-0.0134141
0.0167086
-0.00626329
0.016552
0.000464744
0.0153349
0.00657386
0.0131945
0.0118709
0.0103072
0.016171
0.00687802
0.0192709
0.0030942
0.0212915
-0.000846036
0.0221163
-0.00476121
0.0218775
-0.008419
0.0203542
-0.0116251
0.0176398
-0.0142259
0.014058
-0.0159147
0.00879757
-0.0165893
0.00298734
-0.0160182
-0.00407489
-0.014057
-0.0117746
-0.0107868
-0.0191208
-0.00617015
-0.0265041
-0.000369687
-0.0328912
0.00626098
-0.0377028
0.0135222
-0.0410739
0.0210511
-0.0424002
0.0283137
-0.0410143
0.0352032
-0.0386909
0.0410263
-0.0328327
0.0458382
-0.0269203
0.0490162
-0.0178026
0.0507798
-0.0095825
0.0505607
0.00150169
0.0488685
0.0101267
0.0451478
0.0215339
0.0399614
0.0300512
0.0331786
0.0391963
0.0251267
0.04643
0.0161027
0.0522109
0.00629303
0.056757
-0.00391429
0.0592729
-0.0143212
0.0605799
-0.024645
0.0602706
-0.0346721
0.0587313
-0.044232
0.056118
-0.0531947
0.0526463
-0.0613761
0.0481793
-0.0687572
0.0433049
-0.0751358
0.0374284
-0.0804692
0.0311303
-0.0846208
0.024059
-0.0874823
0.016408
-0.0889864
0.00827932
-0.0889222
-0.00104808
-0.08723
-0.0105382
-0.0838605
-0.0203231
-0.0787799
-0.0302301
-0.0720082
-0.0399583
-0.0636229
-0.0491845
-0.0537701
-0.0575263
-0.0426587
-0.0646431
-0.0305667
-0.0701757
-0.0178197
-0.07386
-0.00478071
-0.0755039
0.00816792
-0.0750161
0.0206576
-0.0724084
0.0323305
-0.0677949
0.0428961
-0.06148
0.0521264
-0.0537391
0.0598621
-0.0449392
0.0660681
-0.0352824
-0.0250283
0.0706965
-0.052705
0.0288783
-0.0562942
0.0228451
-0.0586035
0.0143998
-0.0593763
0.00427846
-0.0582812
-0.00727957
-0.0553891
-0.0187282
-0.0508246
-0.0294807
-0.0448421
-0.0386848
-0.0377758
-0.0457827
-0.0300168
-0.0505362
-0.0219691
-0.0527785
-0.0140076
-0.0525558
-0.00646381
-0.0501083
0.000364783
-0.045729
0.00621174
-0.0394829
0.0109355
-0.0322212
0.0144394
-0.0241414
0.0166532
-0.0156278
0.017606
-0.0072161
0.0173785
0.000692193
0.0160572
0.00789516
0.0137939
0.0141343
0.0107714
0.0191936
0.00719825
0.022844
0.00326052
0.0252292
-0.000845749
0.0262226
-0.00493598
0.0259677
-0.00876871
0.024187
-0.0121547
0.0210258
-0.0149284
0.0168317
-0.0167791
0.0106483
-0.0175811
0.00378937
-0.0170905
-0.00456556
-0.015139
-0.0137261
-0.0118176
-0.0224421
-0.00707301
-0.0312488
-0.00107934
-0.0388848
0.00580339
-0.0445855
0.0133446
-0.0486151
0.0211857
-0.0502413
0.0287358
-0.0485643
0.03592
-0.0458751
0.0419744
-0.0388871
0.0470048
-0.0319507
0.0503232
-0.021121
0.0521946
-0.011454
0.052001
0.00169533
0.0502996
0.011828
0.0464942
0.0253393
0.0411866
0.0353588
0.034236
0.046147
0.0259737
0.0546923
0.0167328
0.0614519
0.00668902
0.0668008
-0.00373728
0.0696992
-0.0143493
0.071192
-0.0248568
0.0707781
-0.0350389
0.0689134
-0.044733
0.0658121
-0.0538185
0.0617318
-0.062095
0.0564558
-0.0695841
0.0507939
-0.0760522
0.0438965
-0.0814812
0.0365594
-0.0857275
0.0283052
-0.0886744
0.0193549
-0.0902565
0.00986139
-0.0902764
-0.00102815
-0.0886262
-0.0121885
-0.0852713
-0.0236779
-0.0801665
-0.035335
-0.0733231
-0.0468017
-0.064815
-0.0576925
-0.0547874
-0.067554
-0.0434515
-0.075979
-0.031095
-0.0825321
-0.0180551
-0.0868999
-0.00471198
-0.088847
0.00853384
-0.0882619
0.0213042
-0.0851788
0.0332227
-0.0797133
0.0439942
-0.0722515
0.0533877
-0.0631326
0.0612514
-0.0528029
0.0675195
-0.0415504
-0.0297098
0.072201
-0.0536098
0.0335876
-0.0574132
0.0266485
-0.059879
0.0168656
-0.06072
0.00511939
-0.0596026
-0.00839692
-0.0565881
-0.0217427
-0.0518152
-0.0342536
-0.045562
-0.044938
-0.0381977
-0.053147
-0.0301376
-0.0585963
-0.0218002
-0.0611159
-0.0135783
-0.0607777
-0.00581351
-0.0578731
0.0011777
-0.0527202
0.0071693
-0.0454745
0.0119726
-0.0370245
0.0155101
-0.027679
0.017719
-0.0178367
0.0186234
-0.00812046
0.0183202
0.00099532
0.0168817
0.00933368
0.0144831
0.0165329
0.0113036
0.022373
0.00755912
0.0265885
0.00344549
0.0293428
-0.000851883
0.03052
-0.0051432
0.0302591
-0.00917613
0.0282199
-0.0127743
0.0246239
-0.0157555
0.0198129
-0.0177993
0.0126921
-0.0187422
0.00473225
-0.0183575
-0.00495026
-0.0164258
-0.0156579
-0.0130441
-0.0258237
-0.00814981
-0.0361431
-0.00192176
-0.0451129
0.00525583
-0.0517631
0.0131286
-0.0564879
0.0213402
-0.0584529
0.0292331
-0.0564572
0.0367663
-0.0534084
0.0430924
-0.0452133
0.0483819
-0.0372402
0.0518666
-0.0246057
0.0538652
-0.0134525
0.053704
0.0018566
0.0519852
0.0135468
0.0480819
0.0292426
0.0426295
0.0408112
0.0354792
0.0532972
0.0269666
0.0632049
0.0174669
0.0709516
0.00714575
0.0771219
-0.00354034
0.0803853
-0.0143938
0.0820454
-0.0251167
0.081501
-0.0354784
0.0792752
-0.045327
0.0756607
-0.0545547
0.0709595
-0.0629378
0.0648389
-0.0705528
0.0584089
-0.077123
0.0504667
-0.0826626
0.042099
-0.0870211
0.0326637
-0.0900703
0.0224041
-0.0917387
0.0115298
-0.0918621
-0.000904766
-0.0902652
-0.0137854
-0.0869305
-0.0270126
-0.0817994
-0.0404661
-0.0748739
-0.0537272
-0.0662236
-0.0663429
-0.055991
-0.0777865
-0.0443903
-0.0875797
-0.0317209
-0.0952015
-0.0183337
-0.100287
-0.00463084
-0.10255
0.00896694
-0.10186
0.0220689
-0.0982807
0.0342761
-0.0919205
0.0452868
-0.0832622
0.0548612
-0.072707
0.0628549
-0.0607967
0.0692005
-0.047896
-0.0344366
0.0739273
-0.0546062
0.0386129
-0.0587173
0.0307596
-0.0614339
0.0195823
-0.0624542
0.00613962
-0.0613427
-0.00950836
-0.0581969
-0.0248885
-0.053178
-0.0392726
-0.0465931
-0.0515228
-0.03884
-0.0609001
-0.0303774
-0.067059
-0.0216575
-0.0698358
-0.0130912
-0.0693439
-0.00503687
-0.0659275
0.00217278
-0.0599299
0.00833589
-0.0516377
0.0132371
-0.0419257
0.0168018
-0.0312437
0.0189971
-0.020032
0.0198473
-0.00897063
0.0194401
0.00140246
0.0178596
0.0109142
0.0152926
0.0190999
0.0119314
0.0257342
0.0079971
0.0305228
0.00367862
0.0336613
-0.000838836
0.0350374
-0.00536161
0.0347818
-0.00963359
0.0324919
-0.0134783
0.0284686
-0.0166877
0.0230223
-0.0189753
0.0149798
-0.0200954
0.00585233
-0.0198275
-0.00521821
-0.0179323
-0.017553
-0.0144722
-0.0292839
-0.00940803
-0.0412073
-0.0029079
-0.051613
0.00461497
-0.059286
0.0128731
-0.0647461
0.0215167
-0.0670964
0.0298127
-0.0647532
0.0377499
-0.0613457
0.0443869
-0.0518502
0.0499781
-0.0428314
0.053656
-0.0282836
0.0558
-0.0155965
0.0556836
0.00197295
0.0539354
0.015295
0.0499237
0.0332542
0.0443003
0.0464347
0.0369166
0.0606809
0.0281116
0.0720099
0.0183093
0.0807539
0.00766565
0.0877656
-0.00332163
0.0913726
-0.0144534
0.0931772
-0.0254234
0.092471
-0.0359887
0.0898405
-0.0460127
0.0856847
-0.0554024
0.0803491
-0.0639028
0.0733393
-0.0716629
0.066169
-0.0783447
0.0571485
-0.0840124
0.0477667
-0.0885009
0.0371522
-0.0916684
0.0255717
-0.0934399
0.0133014
-0.0936842
-0.00066052
-0.0921512
-0.0153184
-0.0888441
-0.0303197
-0.0836866
-0.0456236
-0.0766691
-0.0607448
-0.0678569
-0.075155
-0.0573887
-0.0882546
-0.0454812
-0.0994873
-0.0324486
-0.108234
-0.0186576
-0.114078
-0.00453338
-0.116674
0.009471
-0.115864
0.0229579
-0.111768
0.0354979
-0.10446
0.0467815
-0.0945459
0.0565603
-0.0824858
0.0646942
-0.0689305
0.0711124
-0.0543142
-0.0391777
0.0758535
-0.0557704
0.0440011
-0.060225
0.0352142
-0.0632064
0.0225637
-0.0643856
0.0073188
-0.0632688
-0.0106252
-0.0599665
-0.0281907
-0.0546635
-0.0445756
-0.047701
-0.0584853
-0.03952
-0.0690811
-0.0306193
-0.0759596
-0.0214784
-0.0789768
-0.012534
-0.0782883
-0.00416001
-0.0743015
0.00329745
-0.0673873
0.00964565
-0.0579859
0.0146713
-0.0469514
0.0182767
-0.034849
0.0204473
-0.0222026
0.0212442
-0.00976753
0.0207057
0.00194093
0.0189724
0.0126476
0.0162252
0.021847
0.0126524
0.0293071
0.00849059
0.0346846
0.00395059
0.0382013
-0.000809894
0.0397979
-0.00560553
0.0395775
-0.0101339
0.0370202
-0.0142444
0.0325792
-0.0177569
0.0265348
-0.0203367
0.0175596
-0.0216388
0.00715449
-0.0214943
-0.00536273
-0.0196688
-0.0193786
-0.0161137
-0.032839
-0.010869
-0.046452
-0.00404917
-0.0584328
0.00387579
-0.0672109
0.0125759
-0.0734462
0.0217132
-0.0762337
0.0304793
-0.0735193
0.0388782
-0.0697446
0.0458691
-0.058841
0.0518082
-0.0487706
0.0557072
-0.0321826
0.0580156
-0.0179049
0.0579544
0.00203407
0.0561615
0.017088
0.0520318
0.037384
0.0462081
0.0522584
0.0385536
0.0683353
0.0294123
0.0811513
0.0192595
0.0909067
0.00824508
0.09878
-0.00308693
0.102705
-0.0145351
0.104625
-0.0257857
0.103722
-0.0365784
0.100633
-0.0467981
0.0959044
-0.0563688
0.0899198
-0.0649943
0.0819649
-0.0729159
0.0740906
-0.0797208
0.0639534
-0.0855326
0.0535785
-0.0901697
0.0417893
-0.0934709
0.0288728
-0.0953609
0.0151914
-0.0957456
-0.000275854
-0.0942908
-0.0167731
-0.0910199
-0.0335906
-0.0858369
-0.0508066
-0.078719
-0.0678626
-0.0697257
-0.0841483
-0.0589901
-0.0989903
-0.0467324
-0.111745
-0.0332839
-0.121683
-0.019027
-0.128335
-0.00442015
-0.131281
0.0100499
-0.130334
0.0239792
-0.125697
0.0368973
-0.117379
0.0484886
-0.106137
0.0584944
-0.0924916
0.0667737
-0.0772098
0.0732634
-0.0608039
-0.0439241
0.0780097
-0.0570636
0.0498422
-0.0619577
0.0401083
-0.0652939
0.0258999
-0.0667028
0.00872777
-0.065596
-0.0117321
-0.0621103
-0.0316764
-0.0564648
-0.0502211
-0.0490481
-0.065902
-0.0403497
-0.0777795
-0.0309197
-0.0853896
-0.0212796
-0.0886169
-0.0118891
-0.0876789
-0.00313808
-0.0830524
0.00460448
-0.0751299
0.0111562
-0.0645376
0.0163157
-0.0521109
0.0199756
-0.0385089
0.0221156
-0.0243426
0.0228159
-0.0104679
0.0221371
0.00261975
0.0202268
0.0145579
0.0172595
0.0248144
0.0134554
0.0331112
0.00905935
0.0390806
0.004274
0.0429867
-0.000771519
0.0448434
-0.00587464
0.0446806
-0.0106752
0.0418208
-0.0151011
0.037005
-0.0189739
0.0304075
-0.0218298
0.0204155
-0.0233927
0.00871735
-0.0234304
-0.00532503
-0.0216525
-0.0211564
-0.0179927
-0.0364988
-0.0125512
-0.0518934
-0.00536708
-0.065617
0.00302373
-0.0756017
0.0122262
-0.0826487
0.0219198
-0.0859272
0.0312279
-0.0828275
0.0401425
-0.0786592
0.04753
-0.0662285
0.0538612
-0.0551017
0.0580129
-0.0363343
0.0605089
-0.0204009
0.0605205
0.00202253
0.0586683
0.0189401
0.0544089
0.0416434
0.0483537
0.0583135
0.0403904
0.0762986
0.0308649
0.0906768
0.0203106
0.101461
0.00887618
0.110214
-0.00284902
0.11443
-0.0146533
0.11643
-0.026216
0.115284
-0.0372562
0.111673
-0.0476907
0.106339
-0.0574631
0.0996923
-0.066219
0.0907208
-0.0743218
0.0821933
-0.0812522
0.0708839
-0.0872256
0.0595519
-0.0920322
0.0465959
-0.095483
0.0323237
-0.097511
0.0172194
-0.098053
0.000266171
-0.0966926
-0.0181335
-0.0934687
-0.0368146
-0.0882636
-0.0560116
-0.0810373
-0.0750889
-0.0718436
-0.093342
-0.0608089
-0.110025
-0.048156
-0.124398
-0.0342353
-0.135603
-0.0194479
-0.143122
-0.00429096
-0.146438
0.0107069
-0.145332
0.0251386
-0.140129
0.0384818
-0.130722
0.0504165
-0.118072
0.0606721
-0.102747
0.0691036
-0.0856413
0.0756622
-0.0673625
-0.0486653
0.0804035
-0.0585098
0.0562088
-0.0639084
0.045507
-0.0676441
0.0296355
-0.069302
0.0103856
-0.0682056
-0.0128284
-0.0645099
-0.0353721
-0.0584771
-0.0562539
-0.0505499
-0.0738292
-0.0412725
-0.087057
-0.0312491
-0.095413
-0.0210449
-0.0988211
-0.0111566
-0.0975672
-0.00198499
-0.092224
0.00607531
-0.0831902
0.0128558
-0.0713181
0.018154
-0.057409
0.0218727
-0.0422276
0.0240023
-0.0264722
0.0245844
-0.01105
0.0237431
0.00346105
0.0216388
0.0166621
0.0184467
0.0280065
0.0143715
0.0371863
0.00969064
0.0437615
0.00464281
0.0480345
-0.000708502
0.0501947
-0.00614985
0.0501219
-0.0112527
0.0469237
-0.0160366
0.0417889
-0.0203047
0.0346757
-0.023487
0.0235978
-0.0253849
0.0106152
-0.0256324
-0.00507745
-0.0238824
-0.0229065
-0.0201469
-0.0402343
-0.0144702
-0.0575701
-0.00687495
-0.0732123
0.00205602
-0.0845327
0.0118285
-0.0924212
0.0221407
-0.0962394
0.0320758
-0.0927626
0.0415631
-0.0881466
0.0493999
-0.0740653
0.0561786
-0.0618804
0.0606084
-0.0407641
0.0633194
-0.0231119
0.0634141
0.00192789
0.0614797
0.0208745
0.0570874
0.0460357
0.0507654
0.0646355
0.0424437
0.0846204
0.0324863
0.100634
0.0214727
0.112475
0.00956224
0.122125
-0.00260277
0.126595
-0.0148031
0.12863
-0.0267142
0.127195
-0.0380235
0.122983
-0.0486925
0.117008
-0.0586786
0.109678
-0.067572
0.0996142
-0.075875
0.0904963
-0.0829338
0.0779426
-0.0890904
0.0657085
-0.094078
0.0515835
-0.0977
0.0359457
-0.0998856
0.0194049
-0.100594
0.000974335
-0.0993551
-0.0193721
-0.0961937
-0.0399761
-0.0909727
-0.0612326
-0.0836331
-0.0824285
-0.0742226
-0.102753
-0.062857
-0.121391
-0.0497619
-0.137493
-0.0353115
-0.150054
-0.0199249
-0.158509
-0.00414375
-0.162219
0.0114491
-0.160925
0.0264482
-0.155128
0.0402668
-0.14454
0.0525834
-0.130388
0.0631127
-0.113277
0.0717026
-0.0942312
0.0783254
-0.0739853
-0.0533906
0.0830507
-0.0601007
0.0632086
-0.0661147
0.0515211
-0.0703449
0.0338657
-0.072313
0.0123537
-0.0712367
-0.0139047
-0.0672898
-0.0393191
-0.0607928
-0.0627509
-0.0522644
-0.0823575
-0.0423187
-0.0970027
-0.0316197
-0.106112
-0.0207747
-0.109666
-0.0103168
-0.108025
-0.000660285
-0.101881
0.00774034
-0.0915908
0.0147705
-0.0783482
0.0202163
-0.0628549
0.0239887
-0.046
0.0260921
-0.0285756
0.026563
-0.0115209
0.0255361
0.00448789
0.0231904
0.0190079
0.0197073
0.0314896
0.0153508
0.0415428
0.0103861
0.0487263
0.00503861
0.0533819
-0.000655705
0.055889
-0.006473
0.0559392
-0.0119009
0.0523517
-0.0170719
0.0469598
-0.0217823
0.0393861
-0.0253664
0.0271818
-0.0276348
0.0128837
-0.0281269
-0.00458537
-0.0264492
-0.0245842
-0.0226181
-0.0440653
-0.01668
-0.0635081
-0.00862707
-0.0812652
0.000927481
-0.0940873
0.0113391
-0.102833
0.0223309
-0.107231
0.0329827
-0.103414
0.0431075
-0.0982714
0.0514421
-0.0823999
0.0587203
-0.0691586
0.0634664
-0.0455102
0.066422
-0.0260676
0.0666125
0.00173741
0.0645792
0.0229078
0.0600475
0.0505674
0.0534129
0.0712701
0.0446855
0.0933478
0.0342337
0.111086
0.0226967
0.124012
0.0102594
0.134562
-0.00240133
0.139256
-0.0150316
0.14126
-0.0273169
0.139481
-0.0388947
0.134561
-0.0498098
0.127923
-0.0600034
0.119872
-0.0690429
0.108654
-0.0775577
0.0990112
-0.0847369
0.0851218
-0.0910887
0.0720602
-0.0962898
0.0567846
-0.100083
0.0397394
-0.102466
0.0217878
-0.103351
0.00185933
-0.102262
-0.0204617
-0.0991802
-0.0430577
-0.0939533
-0.0664595
-0.0865002
-0.0898817
-0.0768601
-0.112393
-0.0651372
-0.133113
-0.0515582
-0.151072
-0.0365205
-0.165092
-0.0204642
-0.174565
-0.00398638
-0.178697
0.0122671
-0.177178
0.0279023
-0.170763
0.0422498
-0.158888
0.0549891
-0.143128
0.0658185
-0.124106
0.0745751
-0.102988
0.0812573
-0.0806675
-0.0580909
0.0859576
-0.0618388
0.070943
-0.0685682
0.0582505
-0.0733728
0.0386703
-0.075694
0.0146748
-0.0746481
-0.0149506
-0.0704167
-0.0435504
-0.0633933
-0.0697743
-0.0541807
-0.0915701
-0.043477
-0.107706
-0.0320184
-0.117571
-0.0204649
-0.12122
-0.00938402
-0.119106
0.000764879
-0.112029
0.00958889
-0.100415
0.016897
-0.0856563
0.0225031
-0.068461
0.0263241
-0.049821
0.0283772
-0.0306287
0.0287096
-0.0118532
0.0274571
0.00574035
0.0248364
0.0216287
0.0210459
0.03528
0.016359
0.0462297
0.0110858
0.0539995
0.00542142
0.0590463
-0.000625678
0.0619361
-0.00681672
0.0621303
-0.0125785
0.0581134
-0.0181612
0.0525426
-0.023351
0.044576
-0.0273879
0.0312186
-0.0300744
0.0155702
-0.0308603
-0.00379944
-0.0293007
-0.0261439
-0.0253705
-0.0479955
-0.0191488
-0.0697298
-0.0106095
-0.0898045
-0.000338118
-0.104359
0.0107647
-0.113936
0.0224838
-0.11895
0.0339425
-0.114873
0.0447737
-0.109103
0.0536856
-0.0913117
0.061511
-0.076984
0.0665985
-0.0505977
0.0698325
-0.0293016
0.0701202
0.00144972
0.0679575
0.0250705
0.0633001
0.0552248
0.0563246
0.0782455
0.0471605
0.102512
0.0361961
0.12205
0.0240928
0.136115
0.0110818
0.147573
-0.00210627
0.152444
-0.015195
0.154349
-0.0279041
0.15219
-0.0397514
0.146408
-0.0509331
0.139105
-0.061338
0.130277
-0.0705496
0.117865
-0.07929
0.107752
-0.0866067
0.0924386
-0.0931977
0.0786512
-0.0986027
0.0621896
-0.102617
0.0437533
-0.10523
0.0244011
-0.106267
0.00289663
-0.105387
-0.0213423
-0.102404
-0.04604
-0.0971797
-0.0716842
-0.089608
-0.0974533
-0.0797216
-0.122279
-0.0676045
-0.145231
-0.0534905
-0.165186
-0.0378096
-0.180772
-0.0210192
-0.191356
-0.00377129
-0.195945
0.0132028
-0.194152
0.0295234
-0.187084
0.0444399
-0.173804
0.0576326
-0.15632
0.0687801
-0.135253
0.0777077
-0.111916
0.0844432
-0.087403
-0.0627667
0.089119
-0.0223233
0.0738872
-0.0249134
0.0608406
-0.0267867
0.0405436
-0.0277121
0.0156003
-0.0273541
-0.0153086
-0.0257754
-0.0451291
-0.0231416
-0.0724082
-0.0196913
-0.0950204
-0.015695
-0.111703
-0.0114323
-0.121833
-0.00715052
-0.125502
-0.00306204
-0.123194
0.00066084
-0.115752
0.0038932
-0.103647
0.00655152
-0.0883146
0.00857583
-0.0704853
0.0099385
-0.0511837
0.0106491
-0.0313394
0.0107259
-0.01193
0.0102288
0.00623741
0.00923025
0.0226272
0.00781335
0.0366969
0.00608246
0.0479606
0.0041386
0.0559433
0.00204834
0.0611366
-0.000179904
0.0641644
-0.00245863
0.064409
-0.00457002
0.0602248
-0.00664139
0.0546139
-0.00859846
0.046533
-0.0101499
0.0327701
-0.0112199
0.0166401
-0.0115873
-0.00343197
-0.011073
-0.0266582
-0.00965593
-0.0494126
-0.00737698
-0.0720088
-0.004232
-0.0929495
-0.000423957
-0.108167
0.00369855
-0.118058
0.00802293
-0.123275
0.0122789
-0.119129
0.0162881
-0.113112
0.019593
-0.0946166
0.0225012
-0.0798921
0.0243823
-0.0524789
0.0256001
-0.0305195
0.0257331
0.00131674
0.0249336
0.02587
0.023259
0.0568994
0.0207039
0.0808006
0.0173556
0.10586
0.0133359
0.12607
0.00890125
0.14055
0.00414995
0.152324
-0.000664484
0.157258
-0.00541876
0.159103
-0.0100337
0.156805
-0.014293
0.150667
-0.0183252
0.143137
-0.0220569
0.134009
-0.025369
0.121177
-0.0285243
0.110907
-0.0311529
0.0950672
-0.0335548
0.0810532
-0.0355309
0.0641657
-0.0370155
0.0452379
-0.0380156
0.0254012
-0.0384098
0.00329082
-0.0381618
-0.0215902
-0.03713
-0.0470718
-0.0352808
-0.0735334
-0.0325672
-0.100167
-0.0289977
-0.125848
-0.0245972
-0.149631
-0.0194501
-0.170333
-0.0137167
-0.186506
-0.00756687
-0.197505
-0.00124803
-0.202264
0.00495516
-0.200356
0.0109093
-0.193038
0.0163341
-0.179229
0.0211133
-0.1611
0.0251337
-0.139274
0.0283305
-0.115112
0.0307204
-0.0897929
-0.0644116
0.0323653
-0.0225773
0.0769494
-0.0252799
0.0635432
-0.0272408
0.0425045
-0.0282159
0.0165754
-0.027861
-0.0156635
-0.0262345
-0.0467556
-0.0235196
-0.0751231
-0.0199692
-0.0985708
-0.0158609
-0.115811
-0.0114844
-0.12621
-0.00709561
-0.12989
-0.00291314
-0.127377
0.000884479
-0.11955
0.00417707
-0.10694
0.00687592
-0.0910135
0.00892405
-0.0725334
0.0102947
-0.0525543
0.010999
-0.0320437
0.0110537
-0.0119847
0.0105329
0.00675828
0.00949861
0.0236615
0.0080335
0.038162
0.00628086
0.0497133
0.00430231
0.0579219
0.00214616
0.0632927
-0.000137576
0.0664481
-0.00246236
0.0667338
-0.00460815
0.0623706
-0.00672952
0.0567353
-0.00875723
0.0485607
-0.010381
0.0343939
-0.0115208
0.0177799
-0.0119445
-0.00300828
-0.0114532
-0.0271495
-0.0100168
-0.050849
-0.00768584
-0.0743398
-0.00446137
-0.096174
-0.000543824
-0.112084
0.00369122
-0.122293
0.00811302
-0.127696
0.0124743
-0.12349
0.016584
-0.117221
0.0199593
-0.0979919
0.0229422
-0.082875
0.0248539
-0.0543905
0.0261097
-0.0317753
0.0262558
0.0011706
0.0254371
0.0266888
0.0237456
0.0585909
0.0211401
0.0834061
0.0177287
0.109272
0.0136337
0.130165
0.00911627
0.145067
0.00428148
0.157159
-0.000613329
0.162153
-0.00543944
0.163929
-0.0101087
0.161474
-0.0144269
0.154985
-0.0185056
0.147215
-0.0222545
0.137758
-0.0256106
0.124534
-0.0287884
0.114085
-0.03145
0.0977288
-0.0338853
0.0834885
-0.0358864
0.0661668
-0.0373977
0.0467491
-0.0384335
0.026437
-0.0388367
0.00369402
-0.0386279
-0.0217991
-0.0376125
-0.0480872
-0.0357694
-0.0753764
-0.0330464
-0.10289
-0.0294488
-0.129446
-0.024994
-0.154086
-0.0197667
-0.17556
-0.013932
-0.19234
-0.00766176
-0.203776
-0.00121366
-0.208712
0.00510554
-0.206675
0.0111761
-0.199108
0.016688
-0.184741
0.0215346
-0.165946
0.0255948
-0.143334
0.0288061
-0.118324
0.0311939
-0.0921808
-0.066043
0.0328254
-0.0228325
0.0801339