/*--------------------------------*- C++ -*----------------------------------*\
| =========                 |                                                 |
| \\      /  F ield         | OpenFOAM: The Open Source CFD Toolbox           |
|  \\    /   O peration     | Version:  v1912                                 |
|   \\  /    A nd           | Website:  www.openfoam.com                      |
|    \\/     M anipulation  |                                                 |
\*---------------------------------------------------------------------------*/
FoamFile
{
    version     2.0;
    format      ascii;
    class       volScalarField;
    location    "10";
    object      p_rgh;
}
// * * * * * * * * * * * * * * * * * * * * * * * * * * * * * * * * * * * * * //

dimensions      [1 -1 -2 0 0 0 0];


internalField   nonuniform List<scalar> 
14268
(
0.000429922
0.000405009
0.000381456
0.00035919
0.000338147
0.000318264
0.000299481
0.00028174
0.000264988
0.000249174
0.000234248
0.000220163
0.000206875
0.000194342
0.000182524
0.000171383
0.000160882
0.000150987
0.000141665
0.000132886
0.000124619
0.000116837
0.000109513
0.000102621
9.61387e-05
9.00425e-05
8.43108e-05
7.89234e-05
7.38609e-05
6.9105e-05
6.46382e-05
6.04442e-05
5.65073e-05
5.28128e-05
4.93468e-05
4.60958e-05
4.30477e-05
4.01903e-05
3.75128e-05
3.50042e-05
3.26548e-05
3.0455e-05
2.8396e-05
2.64692e-05
2.46669e-05
2.29813e-05
2.14055e-05
1.99327e-05
1.85568e-05
1.72715e-05
1.60715e-05
1.49514e-05
1.39062e-05
1.29312e-05
1.2022e-05
1.11745e-05
1.03847e-05
9.64899e-06
8.96385e-06
8.32603e-06
7.7325e-06
7.18034e-06
6.66688e-06
6.18956e-06
5.74601e-06
5.33399e-06
4.95141e-06
4.59628e-06
4.26678e-06
3.96115e-06
3.6778e-06
3.41519e-06
3.1719e-06
2.9466e-06
2.73805e-06
2.54508e-06
2.3666e-06
2.2016e-06
2.04911e-06
1.90826e-06
1.77821e-06
1.65819e-06
1.54747e-06
1.44538e-06
1.3513e-06
1.26463e-06
1.18483e-06
1.11139e-06
1.04385e-06
9.81753e-07
9.24702e-07
8.72317e-07
8.24241e-07
7.80152e-07
7.39742e-07
7.02731e-07
6.68858e-07
6.37883e-07
6.09581e-07
5.83749e-07
5.60193e-07
5.3874e-07
5.19228e-07
5.01509e-07
4.85447e-07
4.70919e-07
4.5781e-07
4.46017e-07
4.35447e-07
4.26017e-07
4.17649e-07
4.10279e-07
4.03849e-07
3.98305e-07
3.93606e-07
3.89717e-07
3.86611e-07
3.84268e-07
3.82677e-07
3.81832e-07
3.81739e-07
3.82409e-07
3.83866e-07
3.86139e-07
3.89267e-07
3.93302e-07
3.98303e-07
4.04343e-07
4.11496e-07
4.19868e-07
4.29521e-07
4.40645e-07
4.53119e-07
4.67597e-07
4.83067e-07
5.01505e-07
5.19969e-07
5.42697e-07
5.63915e-07
5.90432e-07
6.13857e-07
6.42284e-07
6.66615e-07
6.95709e-07
7.19961e-07
7.45948e-07
7.68351e-07
7.90572e-07
8.10073e-07
8.28335e-07
8.44449e-07
8.59022e-07
8.71717e-07
8.83099e-07
8.92539e-07
9.01341e-07
9.07627e-07
9.14503e-07
9.17464e-07
9.23099e-07
9.21952e-07
9.26538e-07
9.16554e-07
9.19579e-07
0.000429852
0.000404942
0.000381392
0.000359128
0.000338088
0.000318207
0.000299426
0.000281687
0.000264938
0.000249125
0.000234201
0.000220118
0.000206832
0.000194301
0.000182484
0.000171344
0.000160844
0.000150951
0.00014163
0.000132852
0.000124586
0.000116805
0.000109481
0.000102591
9.61092e-05
9.00138e-05
8.42828e-05
7.88962e-05
7.38343e-05
6.9079e-05
6.46128e-05
6.04194e-05
5.6483e-05
5.2789e-05
4.93234e-05
4.6073e-05
4.30252e-05
4.01683e-05
3.7491e-05
3.49828e-05
3.26337e-05
3.04342e-05
2.83755e-05
2.6449e-05
2.46469e-05
2.29616e-05
2.1386e-05
1.99135e-05
1.85377e-05
1.72526e-05
1.60528e-05
1.49328e-05
1.38878e-05
1.29129e-05
1.20039e-05
1.11565e-05
1.03669e-05
9.63123e-06
8.9462e-06
8.30847e-06
7.71502e-06
7.16295e-06
6.64957e-06
6.17232e-06
5.72885e-06
5.31689e-06
4.93437e-06
4.5793e-06
4.24984e-06
3.94427e-06
3.66096e-06
3.39839e-06
3.15514e-06
2.92988e-06
2.72136e-06
2.52843e-06
2.34998e-06
2.185e-06
2.03254e-06
1.89171e-06
1.76168e-06
1.64168e-06
1.53098e-06
1.42891e-06
1.33485e-06
1.24819e-06
1.1684e-06
1.09498e-06
1.02745e-06
9.65364e-07
9.08323e-07
8.55947e-07
8.07883e-07
7.638e-07
7.23396e-07
6.86391e-07
6.52524e-07
6.21553e-07
5.93255e-07
5.67435e-07
5.43884e-07
5.22436e-07
5.02928e-07
4.85214e-07
4.69156e-07
4.54631e-07
4.41525e-07
4.29735e-07
4.19168e-07
4.0974e-07
4.01375e-07
3.94007e-07
3.87581e-07
3.82038e-07
3.77341e-07
3.73454e-07
3.7035e-07
3.68008e-07
3.66419e-07
3.65576e-07
3.65485e-07
3.66154e-07
3.67612e-07
3.69887e-07
3.73017e-07
3.77053e-07
3.82056e-07
3.88098e-07
3.95252e-07
4.03627e-07
4.13282e-07
4.24409e-07
4.36877e-07
4.51368e-07
4.66833e-07
4.85285e-07
5.03742e-07
5.26487e-07
5.47694e-07
5.74235e-07
5.97643e-07
6.26055e-07
6.50397e-07
6.79499e-07
7.03764e-07
7.29729e-07
7.5214e-07
7.74348e-07
7.93845e-07
8.12104e-07
8.28214e-07
8.42783e-07
8.55474e-07
8.66853e-07
8.763e-07
8.85089e-07
8.91386e-07
8.98248e-07
9.01221e-07
9.06843e-07
9.057e-07
9.10274e-07
9.00168e-07
9.03138e-07
0.000429728
0.000404821
0.000381274
0.000359013
0.000337975
0.000318096
0.000299317
0.000281581
0.000264833
0.000249023
0.0002341
0.000220019
0.000206734
0.000194205
0.00018239
0.000171251
0.000160753
0.00015086
0.000141541
0.000132764
0.000124499
0.000116718
0.000109396
0.000102506
9.60255e-05
8.99309e-05
8.42007e-05
7.88147e-05
7.37535e-05
6.89989e-05
6.45333e-05
6.03403e-05
5.64045e-05
5.2711e-05
4.92459e-05
4.59958e-05
4.29485e-05
4.00919e-05
3.74151e-05
3.49072e-05
3.25585e-05
3.03592e-05
2.83008e-05
2.63746e-05
2.45727e-05
2.28876e-05
2.13123e-05
1.98399e-05
1.84644e-05
1.71795e-05
1.59798e-05
1.486e-05
1.38151e-05
1.28404e-05
1.19315e-05
1.10842e-05
1.02947e-05
9.55919e-06
8.87426e-06
8.23663e-06
7.64327e-06
7.09128e-06
6.57798e-06
6.1008e-06
5.6574e-06
5.2455e-06
4.86304e-06
4.50802e-06
4.17862e-06
3.8731e-06
3.58983e-06
3.3273e-06
3.08409e-06
2.85887e-06
2.65038e-06
2.45748e-06
2.27906e-06
2.11411e-06
1.96168e-06
1.82087e-06
1.69087e-06
1.57088e-06
1.46021e-06
1.35816e-06
1.2641e-06
1.17746e-06
1.09769e-06
1.02428e-06
9.5676e-07
8.94688e-07
8.37658e-07
7.85292e-07
7.37237e-07
6.93165e-07
6.52771e-07
6.15774e-07
5.81915e-07
5.50952e-07
5.22663e-07
4.96836e-07
4.73288e-07
4.51842e-07
4.32338e-07
4.14626e-07
3.9857e-07
3.84048e-07
3.70944e-07
3.59156e-07
3.48591e-07
3.39165e-07
3.30802e-07
3.23435e-07
3.17005e-07
3.11465e-07
3.0677e-07
3.02885e-07
2.99782e-07
2.97442e-07
2.95854e-07
2.95012e-07
2.94922e-07
2.95598e-07
2.97058e-07
2.99335e-07
3.02467e-07
3.06506e-07
3.11511e-07
3.17556e-07
3.24713e-07
3.33092e-07
3.4275e-07
3.5388e-07
3.66367e-07
3.80846e-07
3.96328e-07
4.14766e-07
4.33244e-07
4.5597e-07
4.77205e-07
5.03711e-07
5.27154e-07
5.55596e-07
5.79918e-07
6.09012e-07
6.33244e-07
6.59244e-07
6.81631e-07
7.03854e-07
7.23347e-07
7.41602e-07
7.57708e-07
7.72274e-07
7.84963e-07
7.96338e-07
8.05765e-07
8.14568e-07
8.20841e-07
8.27719e-07
8.30669e-07
8.36297e-07
8.35145e-07
8.39711e-07
8.297e-07
8.32542e-07
0.000429567
0.000404663
0.000381118
0.00035886
0.000337825
0.000317948
0.000299172
0.000281438
0.000264692
0.000248883
0.000233963
0.000219883
0.0002066
0.000194072
0.000182259
0.000171121
0.000160624
0.000150733
0.000141415
0.000132639
0.000124375
0.000116596
0.000109274
0.000102386
9.59055e-05
8.98116e-05
8.40821e-05
7.86969e-05
7.36364e-05
6.88824e-05
6.44173e-05
6.0225e-05
5.62897e-05
5.25967e-05
4.9132e-05
4.58824e-05
4.28355e-05
3.99793e-05
3.73029e-05
3.47953e-05
3.24469e-05
3.0248e-05
2.81899e-05
2.62639e-05
2.44623e-05
2.27774e-05
2.12024e-05
1.97302e-05
1.83548e-05
1.70701e-05
1.58707e-05
1.4751e-05
1.37063e-05
1.27317e-05
1.1823e-05
1.09758e-05
1.01864e-05
9.45099e-06
8.76617e-06
8.12864e-06
7.53537e-06
6.98347e-06
6.47025e-06
5.99315e-06
5.54981e-06
5.13799e-06
4.75558e-06
4.40062e-06
4.07128e-06
3.7658e-06
3.48258e-06
3.22009e-06
2.97692e-06
2.75174e-06
2.54329e-06
2.35042e-06
2.17203e-06
2.0071e-06
1.8547e-06
1.71391e-06
1.58393e-06
1.46397e-06
1.35331e-06
1.25128e-06
1.15724e-06
1.07061e-06
9.90855e-07
9.17457e-07
8.49948e-07
7.87887e-07
7.30867e-07
6.78509e-07
6.30461e-07
5.86392e-07
5.46004e-07
5.09012e-07
4.75156e-07
4.44197e-07
4.15909e-07
3.90101e-07
3.6656e-07
3.45121e-07
3.25622e-07
3.07915e-07
2.91864e-07
2.77345e-07
2.64246e-07
2.52462e-07
2.419e-07
2.32476e-07
2.24116e-07
2.16753e-07
2.10327e-07
2.04787e-07
2.00093e-07
1.9621e-07
1.93108e-07
1.9077e-07
1.89183e-07
1.88344e-07
1.88257e-07
1.88933e-07
1.90394e-07
1.92671e-07
1.95804e-07
1.99845e-07
2.04851e-07
2.10897e-07
2.18055e-07
2.26435e-07
2.36094e-07
2.47227e-07
2.59696e-07
2.74199e-07
2.89668e-07
3.08132e-07
3.26592e-07
3.49352e-07
3.70557e-07
3.97113e-07
4.20515e-07
4.48915e-07
4.73264e-07
5.02381e-07
5.26643e-07
5.52602e-07
5.75007e-07
5.97209e-07
6.16696e-07
6.3495e-07
6.5105e-07
6.65613e-07
6.78296e-07
6.89669e-07
6.99114e-07
7.07892e-07
7.14192e-07
7.2104e-07
7.24018e-07
7.29628e-07
7.28491e-07
7.33044e-07
7.23042e-07
7.25853e-07
0.000429438
0.000404537
0.000380995
0.000358739
0.000337707
0.000317832
0.000299058
0.000281326
0.000264583
0.000248776
0.000233857
0.000219779
0.000206498
0.000193971
0.000182159
0.000171024
0.000160528
0.000150638
0.000141321
0.000132546
0.000124283
0.000116505
0.000109184
0.000102297
9.58172e-05
8.97242e-05
8.39955e-05
7.8611e-05
7.35511e-05
6.87977e-05
6.43333e-05
6.01415e-05
5.62067e-05
5.25142e-05
4.905e-05
4.58009e-05
4.27544e-05
3.98986e-05
3.72225e-05
3.47153e-05
3.23672e-05
3.01686e-05
2.81108e-05
2.61851e-05
2.43838e-05
2.26991e-05
2.11243e-05
1.96523e-05
1.82771e-05
1.69926e-05
1.57933e-05
1.46738e-05
1.36293e-05
1.26548e-05
1.17462e-05
1.08992e-05
1.01099e-05
9.3746e-06
8.68988e-06
8.05244e-06
7.45927e-06
6.90745e-06
6.39431e-06
5.91728e-06
5.47401e-06
5.06225e-06
4.67991e-06
4.325e-06
3.99571e-06
3.69028e-06
3.40711e-06
3.14466e-06
2.90153e-06
2.67638e-06
2.46797e-06
2.27513e-06
2.09677e-06
1.93187e-06
1.77949e-06
1.63873e-06
1.50877e-06
1.38883e-06
1.27819e-06
1.17618e-06
1.08216e-06
9.95546e-07
9.15803e-07
8.42419e-07
7.74922e-07
7.12873e-07
6.55864e-07
6.03517e-07
5.55481e-07
5.11426e-07
4.71047e-07
4.34065e-07
4.00219e-07
3.69268e-07
3.4099e-07
3.15165e-07
2.91627e-07
2.7019e-07
2.50693e-07
2.32989e-07
2.16941e-07
2.02425e-07
1.89327e-07
1.77545e-07
1.66985e-07
1.57564e-07
1.49205e-07
1.41843e-07
1.35419e-07
1.29883e-07
1.25191e-07
1.21309e-07
1.1821e-07
1.15873e-07
1.14288e-07
1.13449e-07
1.13362e-07
1.14038e-07
1.15502e-07
1.17781e-07
1.20917e-07
1.24959e-07
1.29968e-07
1.36017e-07
1.43179e-07
1.51562e-07
1.61226e-07
1.72362e-07
1.84857e-07
1.9934e-07
2.14836e-07
2.33274e-07
2.51767e-07
2.74493e-07
2.95743e-07
3.2225e-07
3.45697e-07
3.74169e-07
3.98477e-07
4.27567e-07
4.51786e-07
4.77795e-07
5.00162e-07
5.2239e-07
5.41873e-07
5.60122e-07
5.7622e-07
5.90779e-07
6.03461e-07
6.1483e-07
6.24243e-07
6.33047e-07
6.39306e-07
6.46186e-07
6.49123e-07
6.54751e-07
6.536e-07
6.58151e-07
6.48464e-07
6.51396e-07
0.000429347
0.000404449
0.00038091
0.000358657
0.000337627
0.000317755
0.000298984
0.000281254
0.000264512
0.000248707
0.00023379
0.000219714
0.000206435
0.00019391
0.000182099
0.000170965
0.000160471
0.000150582
0.000141266
0.000132492
0.000124231
0.000116453
0.000109134
0.000102247
9.57687e-05
8.96765e-05
8.39485e-05
7.85647e-05
7.35055e-05
6.87528e-05
6.4289e-05
6.00978e-05
5.61636e-05
5.24716e-05
4.90079e-05
4.57592e-05
4.27132e-05
3.98578e-05
3.71821e-05
3.46752e-05
3.23275e-05
3.01292e-05
2.80717e-05
2.61463e-05
2.43452e-05
2.26608e-05
2.10862e-05
1.96145e-05
1.82395e-05
1.69552e-05
1.57561e-05
1.46368e-05
1.35924e-05
1.26181e-05
1.17096e-05
1.08627e-05
1.00736e-05
9.33837e-06
8.65376e-06
8.01643e-06
7.42335e-06
6.87162e-06
6.35856e-06
5.88161e-06
5.43842e-06
5.02672e-06
4.64444e-06
4.2896e-06
3.96036e-06
3.65498e-06
3.37186e-06
3.10946e-06
2.86637e-06
2.64126e-06
2.43288e-06
2.24007e-06
2.06174e-06
1.89687e-06
1.74452e-06
1.60379e-06
1.47385e-06
1.35393e-06
1.2433e-06
1.14131e-06
1.0473e-06
9.60708e-07
8.80979e-07
8.07607e-07
7.40122e-07
6.78083e-07
6.21083e-07
5.68745e-07
5.20714e-07
4.76662e-07
4.36288e-07
3.9931e-07
3.65467e-07
3.34519e-07
3.06241e-07
2.80442e-07
2.5691e-07
2.35478e-07
2.15986e-07
1.98286e-07
1.82241e-07
1.67728e-07
1.54634e-07
1.42854e-07
1.32297e-07
1.22878e-07
1.14521e-07
1.07161e-07
1.00738e-07
9.52018e-08
9.05112e-08
8.66305e-08
8.35325e-08
8.11974e-08
7.9614e-08
7.87777e-08
7.86937e-08
7.93745e-08
8.08392e-08
8.31204e-08
8.62579e-08
9.03027e-08
9.53135e-08
1.01365e-07
1.08529e-07
1.16914e-07
1.2658e-07
1.3772e-07
1.50198e-07
1.64706e-07
1.80183e-07
1.98653e-07
2.17122e-07
2.39886e-07
2.61099e-07
2.87652e-07
3.11061e-07
3.39438e-07
3.63797e-07
3.92943e-07
4.1719e-07
4.43161e-07
4.65553e-07
4.87757e-07
5.07232e-07
5.25482e-07
5.41573e-07
5.56129e-07
5.68804e-07
5.80171e-07
5.89607e-07
5.98382e-07
6.04674e-07
6.1152e-07
6.14494e-07
6.201e-07
6.18973e-07
6.23512e-07
6.13736e-07
6.16769e-07
0.00042928
0.000404386
0.000380849
0.000358599
0.000337572
0.000317702
0.000298933
0.000281205
0.000264466
0.000248663
0.000233748
0.000219674
0.000206396
0.000193873
0.000182064
0.000170931
0.000160438
0.00015055
0.000141236
0.000132463
0.000124202
0.000116426
0.000109108
0.000102222
9.57442e-05
8.96528e-05
8.39256e-05
7.85426e-05
7.34841e-05
6.8732e-05
6.42689e-05
6.00782e-05
5.61446e-05
5.24531e-05
4.89899e-05
4.57417e-05
4.2696e-05
3.98411e-05
3.71657e-05
3.46592e-05
3.23119e-05
3.01139e-05
2.80567e-05
2.61315e-05
2.43308e-05
2.26466e-05
2.10722e-05
1.96007e-05
1.8226e-05
1.69419e-05
1.57429e-05
1.46238e-05
1.35795e-05
1.26054e-05
1.16971e-05
1.08503e-05
1.00613e-05
9.3262e-06
8.6417e-06
8.00447e-06
7.41149e-06
6.85984e-06
6.34687e-06
5.87e-06
5.42688e-06
5.01526e-06
4.63304e-06
4.27826e-06
3.94907e-06
3.64375e-06
3.36067e-06
3.09832e-06
2.85527e-06
2.6302e-06
2.42186e-06
2.22909e-06
2.05079e-06
1.88595e-06
1.73363e-06
1.59292e-06
1.46301e-06
1.34311e-06
1.23251e-06
1.13054e-06
1.03655e-06
9.49975e-07
8.70262e-07
7.96907e-07
7.29437e-07
6.67413e-07
6.10426e-07
5.58101e-07
5.10084e-07
4.66046e-07
4.25684e-07
3.88718e-07
3.54886e-07
3.23949e-07
2.95684e-07
2.69877e-07
2.4635e-07
2.24924e-07
2.05437e-07
1.87742e-07
1.71702e-07
1.57193e-07
1.44103e-07
1.32328e-07
1.21774e-07
1.12358e-07
1.04005e-07
9.66476e-08
9.02287e-08
8.46969e-08
8.00091e-08
7.61307e-08
7.30346e-08
7.0701e-08
6.91187e-08
6.82831e-08
6.81984e-08
6.88774e-08
7.03432e-08
7.26252e-08
7.5763e-08
7.98081e-08
8.48192e-08
9.08709e-08
9.80358e-08
1.06422e-07
1.16089e-07
1.2723e-07
1.39723e-07
1.5422e-07
1.69711e-07
1.8817e-07
2.06655e-07
2.29408e-07
2.50647e-07
2.77192e-07
3.00627e-07
3.29144e-07
3.53433e-07
3.82513e-07
4.06728e-07
4.32721e-07
4.55086e-07
4.77301e-07
4.96774e-07
5.15017e-07
5.31107e-07
5.4566e-07
5.58335e-07
5.69697e-07
5.79112e-07
5.87902e-07
5.94165e-07
6.01027e-07
6.03969e-07
6.09579e-07
6.08422e-07
6.1295e-07
6.03358e-07
6.06461e-07
0.00042922
0.000404329
0.000380795
0.000358548
0.000337523
0.000317656
0.000298889
0.000281163
0.000264427
0.000248626
0.000233712
0.00021964
0.000206364
0.000193842
0.000182035
0.000170903
0.000160412
0.000150526
0.000141212
0.000132441
0.000124181
0.000116406
0.000109088
0.000102203
9.57268e-05
8.96363e-05
8.39099e-05
7.85276e-05
7.34698e-05
6.87184e-05
6.42559e-05
6.00658e-05
5.61327e-05
5.24418e-05
4.89791e-05
4.57313e-05
4.26861e-05
3.98316e-05
3.71566e-05
3.46505e-05
3.23035e-05
3.01058e-05
2.80489e-05
2.61241e-05
2.43236e-05
2.26397e-05
2.10655e-05
1.95942e-05
1.82197e-05
1.69358e-05
1.5737e-05
1.46181e-05
1.3574e-05
1.26e-05
1.16918e-05
1.08452e-05
1.00563e-05
9.32131e-06
8.63692e-06
7.99979e-06
7.40691e-06
6.85536e-06
6.34246e-06
5.86568e-06
5.42263e-06
5.01107e-06
4.62891e-06
4.27419e-06
3.94506e-06
3.63978e-06
3.35675e-06
3.09444e-06
2.85144e-06
2.6264e-06
2.4181e-06
2.22536e-06
2.04709e-06
1.88228e-06
1.72998e-06
1.58929e-06
1.4594e-06
1.33952e-06
1.22894e-06
1.12698e-06
1.03301e-06
9.46448e-07
8.66748e-07
7.93403e-07
7.25942e-07
6.63926e-07
6.06948e-07
5.54629e-07
5.06617e-07
4.62582e-07
4.22224e-07
3.85259e-07
3.51429e-07
3.20492e-07
2.92226e-07
2.66428e-07
2.42904e-07
2.2148e-07
2.01996e-07
1.84302e-07
1.68263e-07
1.53756e-07
1.40666e-07
1.28892e-07
1.18339e-07
1.08923e-07
1.00571e-07
9.32147e-08
8.67951e-08
8.12628e-08
7.65754e-08
7.26979e-08
6.96031e-08
6.72712e-08
6.5691e-08
6.48582e-08
6.47772e-08
6.5461e-08
6.69296e-08
6.92148e-08
7.23567e-08
7.64061e-08
8.14218e-08
8.74782e-08
9.46481e-08
1.0304e-07
1.12712e-07
1.23858e-07
1.36348e-07
1.50859e-07
1.6635e-07
1.8482e-07
2.03305e-07
2.26066e-07
2.47295e-07
2.73838e-07
2.97254e-07
3.2561e-07
3.49976e-07
3.79156e-07
4.03386e-07
4.2938e-07
4.51749e-07
4.73964e-07
4.93428e-07
5.11674e-07
5.27755e-07
5.42305e-07
5.54971e-07
5.66332e-07
5.75751e-07
5.8453e-07
5.90806e-07
5.97659e-07
6.00621e-07
6.0623e-07
6.05115e-07
6.09643e-07
6.00141e-07
6.03277e-07
0.000429162
0.000404274
0.000380743
0.000358499
0.000337477
0.000317612
0.000298848
0.000281124
0.00026439
0.000248591
0.000233679
0.000219609
0.000206334
0.000193814
0.000182008
0.000170879
0.000160388
0.000150504
0.000141191
0.000132421
0.000124163
0.000116389
0.000109072
0.000102188
9.57123e-05
8.96226e-05
8.3897e-05
7.85154e-05
7.34583e-05
6.87076e-05
6.42457e-05
6.00562e-05
5.61237e-05
5.24333e-05
4.89711e-05
4.57238e-05
4.2679e-05
3.98249e-05
3.71503e-05
3.46446e-05
3.22979e-05
3.01006e-05
2.8044e-05
2.61194e-05
2.43192e-05
2.26356e-05
2.10617e-05
1.95906e-05
1.82163e-05
1.69326e-05
1.5734e-05
1.46152e-05
1.35713e-05
1.25975e-05
1.16895e-05
1.0843e-05
1.00542e-05
9.31933e-06
8.63505e-06
7.99803e-06
7.40524e-06
6.85378e-06
6.34098e-06
5.86427e-06
5.4213e-06
5.00981e-06
4.62773e-06
4.27307e-06
3.944e-06
3.63878e-06
3.3558e-06
3.09354e-06
2.85058e-06
2.62559e-06
2.41732e-06
2.22462e-06
2.04639e-06
1.88161e-06
1.72934e-06
1.58869e-06
1.45882e-06
1.33897e-06
1.22842e-06
1.12648e-06
1.03253e-06
9.45987e-07
8.66306e-07
7.92979e-07
7.25537e-07
6.63537e-07
6.06574e-07
5.5427e-07
5.06273e-07
4.62253e-07
4.21908e-07
3.84958e-07
3.51141e-07
3.20217e-07
2.91965e-07
2.66177e-07
2.42662e-07
2.21247e-07
2.0177e-07
1.84084e-07
1.68053e-07
1.53553e-07
1.4047e-07
1.28702e-07
1.18155e-07
1.08745e-07
1.00398e-07
9.30454e-08
8.66306e-08
8.11026e-08
7.64188e-08
7.25441e-08
6.94515e-08
6.7121e-08
6.55416e-08
6.47088e-08
6.4627e-08
6.53093e-08
6.67773e-08
6.90613e-08
7.22013e-08
7.62484e-08
8.12617e-08
8.73157e-08
9.44831e-08
1.02873e-07
1.12543e-07
1.23688e-07
1.36178e-07
1.5069e-07
1.66174e-07
1.84656e-07
2.03132e-07
2.25914e-07
2.4714e-07
2.73726e-07
2.97148e-07
3.25713e-07
3.49981e-07
3.79052e-07
4.03265e-07
4.2924e-07
4.51604e-07
4.73806e-07
4.93269e-07
5.11506e-07
5.27587e-07
5.42134e-07
5.54801e-07
5.66157e-07
5.75575e-07
5.84349e-07
5.90617e-07
5.97462e-07
6.00409e-07
6.06e-07
6.0484e-07
6.09349e-07
5.99942e-07
6.03103e-07
0.000429104
0.000404219
0.000380691
0.00035845
0.00033743
0.000317568
0.000298806
0.000281085
0.000264353
0.000248556
0.000233646
0.000219577
0.000206305
0.000193787
0.000181982
0.000170854
0.000160365
0.000150482
0.000141171
0.000132401
0.000124144
0.000116371
0.000109056
0.000102173
9.56977e-05
8.96088e-05
8.3884e-05
7.85033e-05
7.34469e-05
6.86968e-05
6.42355e-05
6.00467e-05
5.61147e-05
5.24248e-05
4.89631e-05
4.57163e-05
4.2672e-05
3.98183e-05
3.71442e-05
3.46388e-05
3.22924e-05
3.00955e-05
2.80392e-05
2.61149e-05
2.43149e-05
2.26316e-05
2.10579e-05
1.95871e-05
1.8213e-05
1.69294e-05
1.57311e-05
1.46125e-05
1.35687e-05
1.2595e-05
1.16871e-05
1.08408e-05
1.00521e-05
9.3174e-06
8.63323e-06
7.99632e-06
7.40363e-06
6.85226e-06
6.33954e-06
5.86291e-06
5.42001e-06
5.00859e-06
4.62657e-06
4.27196e-06
3.94295e-06
3.63778e-06
3.35485e-06
3.09263e-06
2.84971e-06
2.62475e-06
2.41652e-06
2.22385e-06
2.04565e-06
1.8809e-06
1.72865e-06
1.58802e-06
1.45818e-06
1.33834e-06
1.2278e-06
1.12588e-06
1.03195e-06
9.45415e-07
8.65745e-07
7.92428e-07
7.24994e-07
6.63002e-07
6.06046e-07
5.53747e-07
5.05754e-07
4.61738e-07
4.21395e-07
3.84445e-07
3.50629e-07
3.19705e-07
2.9145e-07
2.65658e-07
2.42143e-07
2.20728e-07
2.0125e-07
1.83563e-07
1.67531e-07
1.53029e-07
1.39944e-07
1.28174e-07
1.17626e-07
1.08214e-07
9.98658e-08
9.2513e-08
8.60974e-08
8.05688e-08
7.58847e-08
7.20104e-08
6.89187e-08
6.659e-08
6.50132e-08
6.41837e-08
6.4106e-08
6.47927e-08
6.62654e-08
6.85549e-08
7.17012e-08
7.57553e-08
8.07761e-08
8.68379e-08
9.40134e-08
1.02411e-07
1.12089e-07
1.23242e-07
1.35742e-07
1.50257e-07
1.65758e-07
1.84232e-07
2.02727e-07
2.2549e-07
2.46731e-07
2.73267e-07
2.96695e-07
3.25026e-07
3.49402e-07
3.78619e-07
4.02831e-07
4.28844e-07
4.51196e-07
4.73417e-07
4.9287e-07
5.11111e-07
5.27182e-07
5.41727e-07
5.54384e-07
5.65738e-07
5.75145e-07
5.83924e-07
5.90188e-07
5.97041e-07
5.99998e-07
6.05605e-07
6.04499e-07
6.09013e-07
5.99813e-07
6.02998e-07
0.000429046
0.000404164
0.000380639
0.0003584
0.000337383
0.000317524
0.000298764
0.000281046
0.000264315
0.00024852
0.000233613
0.000219546
0.000206275
0.000193759
0.000181956
0.000170829
0.000160341
0.000150459
0.00014115
0.000132382
0.000124126
0.000116354
0.000109039
0.000102157
9.56832e-05
8.95952e-05
8.38712e-05
7.84912e-05
7.34355e-05
6.86862e-05
6.42255e-05
6.00373e-05
5.61059e-05
5.24165e-05
4.89553e-05
4.5709e-05
4.26652e-05
3.98119e-05
3.71381e-05
3.46331e-05
3.22872e-05
3.00905e-05
2.80345e-05
2.61106e-05
2.43109e-05
2.26278e-05
2.10544e-05
1.95838e-05
1.82099e-05
1.69266e-05
1.57284e-05
1.461e-05
1.35664e-05
1.25929e-05
1.16851e-05
1.08389e-05
1.00504e-05
9.31579e-06
8.63174e-06
7.99493e-06
7.40234e-06
6.85107e-06
6.33844e-06
5.86189e-06
5.41907e-06
5.00773e-06
4.62578e-06
4.27124e-06
3.94228e-06
3.63718e-06
3.3543e-06
3.09213e-06
2.84926e-06
2.62435e-06
2.41616e-06
2.22353e-06
2.04536e-06
1.88065e-06
1.72843e-06
1.58783e-06
1.45802e-06
1.33821e-06
1.2277e-06
1.1258e-06
1.03189e-06
9.45379e-07
8.65729e-07
7.92432e-07
7.25016e-07
6.63042e-07
6.06101e-07
5.53819e-07
5.05841e-07
4.6184e-07
4.21512e-07
3.84577e-07
3.50775e-07
3.19865e-07
2.91625e-07
2.65848e-07
2.42345e-07
2.2094e-07
2.01473e-07
1.83796e-07
1.67773e-07
1.53281e-07
1.40206e-07
1.28444e-07
1.17903e-07
1.085e-07
1.00158e-07
9.28107e-08
8.64005e-08
8.08767e-08
7.61969e-08
7.2326e-08
6.92367e-08
6.69094e-08
6.5333e-08
6.45029e-08
6.44237e-08
6.51086e-08
6.65787e-08
6.88648e-08
7.2007e-08
7.60565e-08
8.10723e-08
8.7129e-08
9.42994e-08
1.02692e-07
1.12366e-07
1.23517e-07
1.3601e-07
1.5053e-07
1.66018e-07
1.84511e-07
2.02989e-07
2.25788e-07
2.47014e-07
2.73627e-07
2.9704e-07
3.2565e-07
3.49899e-07
3.78965e-07
4.03172e-07
4.29144e-07
4.51497e-07
4.73697e-07
4.93149e-07
5.11382e-07
5.27453e-07
5.41993e-07
5.54652e-07
5.66002e-07
5.75413e-07
5.84181e-07
5.90444e-07
5.97281e-07
6.00225e-07
6.05808e-07
6.04649e-07
6.09143e-07
5.99986e-07
6.03189e-07
0.000428987
0.000404108
0.000380586
0.00035835
0.000337336
0.000317479
0.000298722
0.000281006
0.000264278
0.000248485
0.000233579
0.000219514
0.000206245
0.00019373
0.000181929
0.000170804
0.000160318
0.000150437
0.000141129
0.000132362
0.000124107
0.000116336
0.000109023
0.000102142
9.56685e-05
8.95814e-05
8.38583e-05
7.8479e-05
7.34241e-05
6.86754e-05
6.42154e-05
6.00278e-05
5.6097e-05
5.24082e-05
4.89475e-05
4.57017e-05
4.26583e-05
3.98054e-05
3.71321e-05
3.46275e-05
3.22818e-05
3.00855e-05
2.80299e-05
2.61062e-05
2.43068e-05
2.2624e-05
2.10508e-05
1.95804e-05
1.82068e-05
1.69236e-05
1.57257e-05
1.46074e-05
1.3564e-05
1.25906e-05
1.16831e-05
1.0837e-05
1.00486e-05
9.3141e-06
8.63016e-06
7.99346e-06
7.40096e-06
6.84978e-06
6.33724e-06
5.86077e-06
5.41803e-06
5.00675e-06
4.62486e-06
4.27038e-06
3.94148e-06
3.63642e-06
3.35359e-06
3.09147e-06
2.84864e-06
2.62377e-06
2.41561e-06
2.22301e-06
2.04487e-06
1.88019e-06
1.728e-06
1.58742e-06
1.45762e-06
1.33784e-06
1.22734e-06
1.12545e-06
1.03156e-06
9.4506e-07
8.65422e-07
7.92134e-07
7.24727e-07
6.6276e-07
6.05827e-07
5.5355e-07
5.05577e-07
4.61578e-07
4.21252e-07
3.84318e-07
3.50516e-07
3.19605e-07
2.91363e-07
2.65584e-07
2.42079e-07
2.20672e-07
2.01203e-07
1.83524e-07
1.67499e-07
1.53003e-07
1.39925e-07
1.2816e-07
1.17617e-07
1.0821e-07
9.98654e-08
9.25164e-08
8.61045e-08
8.05795e-08
7.58988e-08
7.20278e-08
6.89395e-08
6.6614e-08
6.50404e-08
6.42142e-08
6.41398e-08
6.48302e-08
6.63065e-08
6.85999e-08
7.17501e-08
7.58082e-08
8.08331e-08
8.68993e-08
9.40795e-08
1.02482e-07
1.12165e-07
1.23324e-07
1.35829e-07
1.50353e-07
1.65856e-07
1.84342e-07
2.02838e-07
2.25615e-07
2.46858e-07
2.73403e-07
2.96835e-07
3.25149e-07
3.49535e-07
3.78784e-07
4.02983e-07
4.29005e-07
4.51346e-07
4.73566e-07
4.93008e-07
5.11245e-07
5.27307e-07
5.41844e-07
5.54493e-07
5.65841e-07
5.75242e-07
5.84013e-07
5.90273e-07
5.9712e-07
6.00077e-07
6.05674e-07
6.0458e-07
6.0908e-07
6.0014e-07
6.03365e-07
0.000428927
0.000404051
0.000380533
0.0003583
0.000337288
0.000317434
0.000298679
0.000280965
0.000264239
0.000248449
0.000233545
0.000219482
0.000206215
0.000193702
0.000181902
0.000170778
0.000160294
0.000150414
0.000141107
0.000132342
0.000124088
0.000116318
0.000109006
0.000102126
9.56536e-05
8.95674e-05
8.3845e-05
7.84666e-05
7.34124e-05
6.86644e-05
6.42051e-05
6.00181e-05
5.60879e-05
5.23996e-05
4.89395e-05
4.56941e-05
4.26512e-05
3.97988e-05
3.71258e-05
3.46216e-05
3.22763e-05
3.00804e-05
2.8025e-05
2.61017e-05
2.43026e-05
2.262e-05
2.10471e-05
1.95769e-05
1.82035e-05
1.69206e-05
1.57228e-05
1.46047e-05
1.35615e-05
1.25883e-05
1.16809e-05
1.08349e-05
1.00467e-05
9.31233e-06
8.62851e-06
7.99192e-06
7.39953e-06
6.84845e-06
6.33599e-06
5.85962e-06
5.41695e-06
5.00575e-06
4.62393e-06
4.26953e-06
3.94069e-06
3.63569e-06
3.35291e-06
3.09084e-06
2.84806e-06
2.62324e-06
2.41512e-06
2.22256e-06
2.04446e-06
1.87981e-06
1.72766e-06
1.58711e-06
1.45734e-06
1.33759e-06
1.22712e-06
1.12526e-06
1.03138e-06
9.44909e-07
8.6529e-07
7.92022e-07
7.24633e-07
6.62685e-07
6.05769e-07
5.53507e-07
5.05549e-07
4.61567e-07
4.21256e-07
3.84337e-07
3.5055e-07
3.19654e-07
2.91426e-07
2.6566e-07
2.42167e-07
2.20773e-07
2.01315e-07
1.83647e-07
1.67633e-07
1.53148e-07
1.40079e-07
1.28324e-07
1.1779e-07
1.08392e-07
1.00055e-07
9.2713e-08
8.63075e-08
8.0788e-08
7.61122e-08
7.22449e-08
6.9159e-08
6.68349e-08
6.52615e-08
6.44342e-08
6.43577e-08
6.5045e-08
6.65175e-08
6.88061e-08
7.19509e-08
7.60031e-08
8.10218e-08
8.70817e-08
9.42555e-08
1.02652e-07
1.1233e-07
1.23486e-07
1.35983e-07
1.50511e-07
1.66003e-07
1.84506e-07
2.02989e-07
2.25802e-07
2.47029e-07
2.73664e-07
2.97073e-07
3.25722e-07
3.49954e-07
3.79024e-07
4.03221e-07
4.29196e-07
4.51536e-07
4.73736e-07
4.93177e-07
5.11405e-07
5.27466e-07
5.42e-07
5.54651e-07
5.65994e-07
5.75396e-07
5.84159e-07
5.90415e-07
5.97247e-07
6.00186e-07
6.05762e-07
6.04608e-07
6.09088e-07
6.00202e-07
6.03444e-07
0.000428867
0.000403994
0.000380479
0.000358249
0.00033724
0.000317389
0.000298637
0.000280925
0.000264201
0.000248413
0.000233511
0.00021945
0.000206185
0.000193673
0.000181875
0.000170753
0.00016027
0.000150392
0.000141086
0.000132322
0.000124069
0.000116301
0.000108989
0.00010211
9.56388e-05
8.95535e-05
8.3832e-05
7.84543e-05
7.34009e-05
6.86536e-05
6.41949e-05
6.00086e-05
5.60789e-05
5.23912e-05
4.89316e-05
4.56867e-05
4.26443e-05
3.97923e-05
3.71198e-05
3.46159e-05
3.2271e-05
3.00754e-05
2.80204e-05
2.60973e-05
2.42985e-05
2.26162e-05
2.10436e-05
1.95737e-05
1.82004e-05
1.69177e-05
1.57202e-05
1.46023e-05
1.35592e-05
1.25862e-05
1.16789e-05
1.08331e-05
1.00449e-05
9.31073e-06
8.62703e-06
7.99054e-06
7.39825e-06
6.84727e-06
6.3349e-06
5.8586e-06
5.41601e-06
5.00488e-06
4.62313e-06
4.26878e-06
3.94e-06
3.63505e-06
3.35232e-06
3.0903e-06
2.84755e-06
2.62277e-06
2.41469e-06
2.22216e-06
2.04409e-06
1.87947e-06
1.72734e-06
1.58681e-06
1.45706e-06
1.33732e-06
1.22687e-06
1.12503e-06
1.03117e-06
9.44702e-07
8.65097e-07
7.91841e-07
7.24461e-07
6.62519e-07
6.05609e-07
5.53356e-07
5.05404e-07
4.61424e-07
4.21116e-07
3.84198e-07
3.50411e-07
3.19514e-07
2.91284e-07
2.65517e-07
2.42022e-07
2.20625e-07
2.01165e-07
1.83493e-07
1.67476e-07
1.52987e-07
1.39915e-07
1.28156e-07
1.17618e-07
1.08216e-07
9.98762e-08
9.25313e-08
8.61234e-08
8.0602e-08
7.5925e-08
7.20575e-08
6.89724e-08
6.66502e-08
6.50799e-08
6.42569e-08
6.41858e-08
6.48795e-08
6.63593e-08
6.86561e-08
7.18099e-08
7.58717e-08
8.09005e-08
8.69707e-08
9.41551e-08
1.02562e-07
1.1225e-07
1.23415e-07
1.35924e-07
1.50456e-07
1.65962e-07
1.84461e-07
2.02959e-07
2.25749e-07
2.46993e-07
2.73552e-07
2.96985e-07
3.25289e-07
3.49681e-07
3.78961e-07
4.03151e-07
4.2918e-07
4.51511e-07
4.73731e-07
4.93162e-07
5.11394e-07
5.27446e-07
5.41977e-07
5.54618e-07
5.65958e-07
5.75353e-07
5.84117e-07
5.90372e-07
5.97213e-07
6.00169e-07
6.05758e-07
6.04681e-07
6.09171e-07
6.00495e-07
6.03759e-07
0.000428775
0.000403907
0.000380397
0.000358171
0.000337167
0.000317319
0.000298571
0.000280863
0.000264142
0.000248357
0.000233459
0.0002194
0.000206138
0.000193629
0.000181833
0.000170713
0.000160232
0.000150357
0.000141053
0.000132291
0.00012404
0.000116273
0.000108963
0.000102085
9.56155e-05
8.95315e-05
8.38113e-05
7.84349e-05
7.33826e-05
6.86363e-05
6.41787e-05
5.99933e-05
5.60645e-05
5.23777e-05
4.89189e-05
4.56748e-05
4.2633e-05
3.97817e-05
3.71098e-05
3.46066e-05
3.22623e-05
3.00672e-05
2.80127e-05
2.60901e-05
2.42917e-05
2.26098e-05
2.10375e-05
1.9568e-05
1.81951e-05
1.69128e-05
1.57155e-05
1.45979e-05
1.35551e-05
1.25823e-05
1.16753e-05
1.08297e-05
1.00418e-05
9.30775e-06
8.62423e-06
7.98792e-06
7.3958e-06
6.84497e-06
6.33275e-06
5.85659e-06
5.41412e-06
5.00311e-06
4.62147e-06
4.26723e-06
3.93855e-06
3.6337e-06
3.35106e-06
3.08911e-06
2.84645e-06
2.62173e-06
2.41372e-06
2.22126e-06
2.04325e-06
1.87869e-06
1.72661e-06
1.58614e-06
1.45644e-06
1.33675e-06
1.22634e-06
1.12454e-06
1.03072e-06
9.44286e-07
8.64711e-07
7.91485e-07
7.24136e-07
6.62228e-07
6.05348e-07
5.53116e-07
5.05185e-07
4.61229e-07
4.20943e-07
3.84049e-07
3.50285e-07
3.19411e-07
2.91203e-07
2.65457e-07
2.41982e-07
2.20605e-07
2.01164e-07
1.83511e-07
1.67511e-07
1.53039e-07
1.39984e-07
1.28241e-07
1.17717e-07
1.08329e-07
1.00002e-07
9.26693e-08
8.6272e-08
8.07599e-08
7.60904e-08
7.22287e-08
6.91476e-08
6.68273e-08
6.52568e-08
6.44317e-08
6.43565e-08
6.50444e-08
6.6517e-08
6.88052e-08
7.19493e-08
7.60007e-08
8.10184e-08
8.70776e-08
9.42506e-08
1.02648e-07
1.12325e-07
1.23484e-07
1.35981e-07
1.50518e-07
1.66008e-07
1.84531e-07
2.03009e-07
2.25857e-07
2.47078e-07
2.73786e-07
2.97178e-07
3.26057e-07
3.50187e-07
3.7916e-07
4.03346e-07
4.29297e-07
4.51623e-07
4.73813e-07
4.93241e-07
5.11461e-07
5.27511e-07
5.42037e-07
5.54679e-07
5.66014e-07
5.75409e-07