/*--------------------------------*- C++ -*----------------------------------*\
| =========                 |                                                 |
| \\      /  F ield         | OpenFOAM: The Open Source CFD Toolbox           |
|  \\    /   O peration     | Version:  v1912                                 |
|   \\  /    A nd           | Website:  www.openfoam.com                      |
|    \\/     M anipulation  |                                                 |
\*---------------------------------------------------------------------------*/
FoamFile
{
    version     2.0;
    format      ascii;
    class       volScalarField;
    location    "10";
    object      p_rgh;
}
// * * * * * * * * * * * * * * * * * * * * * * * * * * * * * * * * * * * * * //

dimensions      [1 -1 -2 0 0 0 0];


internalField   nonuniform List<scalar> 
114144
(
161524
162221
156620
139543
112632
78369.4
39018.5
-3493.86
-47368.7
-90832.3
-132176
-169805
-202389
-228997
-249205
-263132
-271401
-275056
-275485
-274433
-272911
-270427
-266822
-260174
-243199
-232570
-220486
-206306
-189569
-170188
-148395
-124703
-99827.8
-74586.6
-49784.6
-26100.7
-4219.65
15610.1
33110.2
48249.6
61105.9
71783.2
80373.7
86939.6
91502.8
94146
95025.5
94598.3
93710.2
91888.2
89360.6
86352
83131.1
79910.2
76715.8
72011.2
70342
68953.6
67632.2
66016.1
63759.6
60536.5
56103.1
50342.2
43279.1
35073.2
25989.6
16358.9
6532.57
-3145.97
-12375
-20921.9
-28619.6
-35354
-41056.2
-45686.6
-49222.5
-51650.4
-52967.2
-53182.7
-52497.9
-51358.4
-48635.2
-43204.9
-38201.5
-32416.5
-26286.3
-19949.9
-13651.1
-7614.88
-2087.7
2819.25
6816.11
9839.61
11828.4
12794.2
12795.5
12370.2
11334.9
9603.71
7322.04
4711.11
2061.68
-337.823
-2215.73
-3427.08
-3894.76
-3768.43
-3341.66
-2390.35
-1050.86
535.642
2204.77
3799.23
5184.61
6258.83
6962.01
7283.79
7236.53
6950.61
6507.32
5921.59
5243.3
4613.05
3866.43
3398.29
2999.55
2719.26
2501.53
2314.23
2124.31
1915.02
1669.24
1376.09
1032.53
641.215
207.958
-260.407
-757.399
-1277.12
-1813.77
-2360.09
-2905.38
-3435.68
-3931.18
-4369.82
-4725.33
-4974.13
-5094.03
-5071.11
-4897.06
-4572.26
-4114.7
-3514.79
-2838.51
-2110.38
-1257.86
-421.149
432.251
1265.47
2072.65
2820.28
3523.98
4121.99
4675.21
5080.94
5404.41
5583.14
5648.78
5574.77
5375.29
5050.19
4615.5
4076.42
3454.52
2788.33
2089.62
1387
708.144
29.9125
-573.146
-1107.41
-1559.46
-1920.44
-2187.24
-2359.38
-2440.55
-2440.42
-2367.59
-2234.06
-2056.57
-1849.15
-1625.41
-1398.25
-1178.69
-975.734
-795.676
-641.734
-515.424
-416.403
-342.72
-291.354
-258.734
-241.012
-234.494
-235.822
-242.096
-250.924
-260.448
-269.352
-276.755
-282.049
-284.887
-285.156
-282.915
-278.334
-271.655
-263.166
-253.169
-241.972
-229.868
-217.133
-204.015
-190.734
-177.481
-164.417
-151.676
-139.362
-127.56
-116.332
-105.723
-95.7606
-86.4575
-77.8154
-69.826
-62.4732
-55.735
-49.5845
-43.9918
-38.9245
-34.3492
-30.2319
-26.5386
-23.2361
-20.2922
-17.6761
-15.3586
-13.3125
-11.5139
-9.93782
94196.8
95122.3
93229.6
84649.6
68165.3
45099.3
17508.5
-12901
-44601.3
-76107
-106140
-133575
-157522
-177384
-192906
-204181
-211618
-215870
-217728
-217963
-217148
-215955
-213747
-208552
-193378
-183795
-173191
-161171
-147472
-132072
-115142
-97013.2
-78136.4
-59025.6
-40197.7
-22146.3
-5157.42
10366.9
24196.1
36278.2
46628.9
55288.1
62307
67745.3
71692.3
74236.1
75537.4
75900.3
75650.1
75024.9
74047.7
72569.3
70719.5
68583.7
66098.2
61724.1
59885.8
58086.3
56238.8
54113.3
51510.4
48239.9
44154
39177.2
33321.2
26684.8
19439.3
11804.2
4019.81
-3670.07
-11035.7
-17901.4
-24123.3
-29594.1
-34239.2
-38008.5
-40870.2
-42807.8
-43822.3
-43943.3
-43312.5
-42403.5
-40179.3
-35530.7
-31405.9
-26662.4
-21676.1
-16543.1
-11452.7
-6579.11
-2090.49
1848.39
5076.22
7521.06
9137.14
9942.66
9997.71
9701.08
9030.68
7784.54
6071.7
4068.99
2022.01
173.202
-1244.4
-2117.59
-2393.2
-2231.82
-1883.72
-1147.56
-120.368
1092.12
2365.29
3580.17
4635.51
5453.82
5990.02
6236.22
6208.55
5976.13
5650.14
5210.69
4681.55
4192.36
3526.44
3136.66
2769.22
2489.05
2249.82
2030.43
1807.66
1567.85
1299.17
993.594
647.986
263.285
-156.902
-607.651
-1083.53
-1578.65
-2086.31
-2597.9
-3101.44
-3582.34
-4021.23
-4397.7
-4687.83
-4871.79
-4931.06
-4855.11
-4638.4
-4283.11
-3806.95
-3203.59
-2529.23
-1813.6
-982.326
-168.708
658.601
1464.93
2244.99
2966
3643.66
4216.79
4745.85
5129.3
5431.78
5586.1
5642.18
5555.15
5345.68
5013.62
4574.6
4034.46
3412.42
2747.56
2051.58
1352.31
676.534
2.46517
-597.558
-1128.74
-1578.1
-1936.71
-2201.42
-2371.5
-2450.35
-2448.95
-2374.45
-2239.19
-2060.03
-1850.96
-1625.68
-1397.14
-1176.46
-972.658
-792.038
-637.843
-511.566
-412.801
-339.533
-288.671
-256.588
-239.388
-233.347
-235.088
-241.703
-250.797
-260.518
-269.562
-277.056
-282.399
-285.253
-285.517
-283.252
-278.636
-271.917
-263.384
-253.344
-242.105
-229.962
-217.19
-204.04
-190.732
-177.456
-164.373
-151.615
-139.289
-127.478
-116.244
-105.631
-95.6664
-86.363
-77.7221
-69.7349
-62.3854
-55.6509
-49.5048
-43.9166
-38.8542
-34.2837
-30.1712
-26.4827
-23.1848
-20.2453
-17.6335
-15.3199
-13.2774
-11.4815
-9.90732
44976.1
44763.1
43646.3
39765.9
31040.8
17579.3
124.221
-20184.7
-42206.9
-64597
-86400.4
-106779
-125068
-140801
-153732
-163833
-171280
-176398
-179605
-181313
-181805
-181235
-180112
-176632
-163679
-155357
-146208
-135947
-124389
-111523
-97469.8
-82458.1
-66805.5
-50882.1
-35070.5
-19733.7
-5157
8317.87
20424.4
31106.6
40347
48151.3
54544.1
59567.9
63288.3
65804.1
67270.2
67915.3
67970.3
67526.4
66895.4
65942.3
64623.6
62967.4
60857.1
56804.8
54952.8
53078.1
51127.9
48914.3
46281.9
43084.3
39207.2
34591.1
29244.9
23247.6
16738.2
9897.44
2925.83
-3968.35
-10587.2
-16771.5
-22390.9
-27343.6
-31555.5
-34974.5
-37567
-39315.4
-40220.7
-40313.3
-39705.8
-38843.8
-36802.5
-32531.4
-28741.1
-24400.6
-19844.8
-15160.5
-10517.4
-6071.2
-1988.82
1640.45
4588.99
6824.22
8304.71
9050.1
9120.77
8829.79
8252.2
7154.84
5623.12
3816.58
1964.66
292.921
-976.736
-1742.77
-1960.42
-1791.39
-1455.68
-775.353
165.497
1271.44
2429.96
3533.92
4490.88
5230.99
5713.56
5931.6
5901.16
5681.05
5371.14
4965.62
4476.98
4018.83
3396.61
3025.29
2672.02
2396.24
2156.01
1932.39
1704.51
1459.63
1186.97
879.345
533.931
151.544
-264.572
-709.909
-1179.39
-1667.29
-2166.97
-2669.72
-3163.42
-3633.42
-4060.16
-4423.13
-4700.4
-4870.5
-4916.13
-4827.4
-4599.34
-4234.83
-3751.13
-3143.5
-2466.1
-1748.51
-919.178
-107.185
717.125
1520.24
2296.84
3014.61
3689.07
4259.53
4785.88
5167
5467.35
5626.98
5671.27
5581.51
5368.34
5031.97
4587.9
4042.32
3415.29
2745.04
2043.28
1339.1
658.373
-18.5573
-621.755
-1154.75
-1605.05
-1963.72
-2227.55
-2395.99
-2473.76
-2468.51
-2390.47
-2251.52
-2068.56
-1855.71
-1626.93
-1395.32
-1172.13
-966.488
-784.723
-630.02
-503.816
-405.574
-333.143
-283.299
-252.297
-236.144
-231.06
-233.629
-240.924
-250.548
-260.665
-269.988
-277.663
-283.102
-285.989
-286.234
-283.924
-279.24
-272.44
-263.819
-253.692
-242.368
-230.146
-217.303
-204.09
-190.726
-177.403
-164.281
-151.492
-139.142
-127.313
-116.066
-105.445
-95.4768
-86.1729
-77.5343
-69.5517
-62.2084
-55.4816
-49.3441
-43.7652
-38.7123
-34.1516
-30.0488
-26.3698
-23.0812
-20.1506
-17.547
-15.2413
-13.2059
-11.4159
-9.84655
23334
22310.7
21031.7
18138.3
12320.8
3168.17
-9046.88
-23664.2
-40079.1
-56841.8
-73343.1
-88973.9
-103250
-115825
-126496
-135201
-142004
-147056
-150559
-152705
-153628
-153425
-152398
-149900
-138828
-131407
-123316
-114361
-104432
-93538
-81773.6
-69301.8
-56342.9
-43154.5
-30007.9
-17168.4
-4835.46
6688.99
17044
26241.1
34250.6
41059.2
46676.6
51138.5
54510.3
56889
58411.5
59251.1
59572.7
59483.3
59069.9
58486
57679.9
56509.7
54795.7
51096.4
49209.9
47224.7
45126.9
42781.4
40086
36945.6
33286.4
29071
24308.6
19058.4
13424.4
7542.54
1566.25
-4340.48
-10018
-15331.5
-20169.1
-24437.8
-28066.2
-31002.1
-33211.1
-34676.5
-35401
-35417.6
-34814.9
-33988.6
-32162.9
-28373.3
-25023
-21223.2
-17256.4
-13195.9
-9183.5
-5348.19
-1831.23
1319.64
3847.38
5761.23
7027.81
7670.56
7753.66
7477.99
7035.62
6168.53
4920.97
3426.59
1890.31
507.756
-515.51
-1098.74
-1213.82
-1026.23
-710.973
-126.941
662.391
1579.09
2531.51
3433.36
4209.47
4804.06
5185.74
5350.35
5314.68
5122.29
4841.19
4506.28
4096.83
3699.29
3159.76
2821.32
2491.42
2219.51
1971.52
1733.55
1489.6
1229.22
944.192
629.154
281.806
-97.4595
-506.297
-941.122
-1397.47
-1869.79
-2351.1
-2832.15
-3300.18
-3740.13
-4132.61
-4457.22
-4694.94
-4824.43
-4830.83
-4706.29
-4447.69
-4059.34
-3558.39
-2944.18
-2261.19
-1545.91
-727.319
73.6203
883.731
1671.74
2432.51
3134.67
3793.48
4349.36
4861.01
5229.03
5516.38
5656.83
5698.02
5598.14
5375.91
5031.43
4580.04
4028.55
3395.41
2719.82
2013.97
1306.5
622.012
-55.9489
-661.367
-1195.2
-1645.64
-2003.6
-2265.93
-2432.04
-2505.14
-2496.66
-2413.89
-2269.64
-2081.17
-1862.79
-1628.78
-1392.52
-1165.55
-957.139
-773.646
-618.19
-492.114
-394.68
-323.527
-275.231
-245.867
-231.296
-227.654
-231.47
-239.784
-250.202
-260.908
-270.649
-278.59
-284.17
-287.102
-287.325
-284.939
-280.15
-273.226
-264.474
-254.214
-242.763
-230.423
-217.472
-204.163
-190.717
-177.324
-164.144
-151.308
-138.921
-127.065
-115.799
-105.166
-95.1923
-85.8878
-77.2528
-69.2771
-61.9434
-55.2281
-49.1035
-43.5385
-38.5001
-33.9541
-29.866
-26.2013
-22.9266
-20.0093
-17.4183
-15.1243
-13.0997
-11.3189
-9.75757
12105.1
10897.2
9348.34
6624.19
1988.49
-4931.37
-14083.3
-25092.4
-37970.4
-50945.6
-63745
-75965.9
-87273.1
-97418.7
-106247
-113689
-119748
-124473
-127938
-130205
-131311
-131290
-130336
-128394
-118932
-112298
-105108
-97232.9
-88615.1
-79278.2
-69296.5
-58786.5
-47900.5
-36816.6
-25724.8
-14813.1
-4208.7
5773.21
14716.1
22709.9
29716.6
35710.5
40690.1
44683.5
47749.6
49978.2
51488.6
52418.8
52897.2
53013
52839.8
52404.3
51842.7
51022
49644.9
46313.5
44439.3
42417.9
40260.4
37871.3
35184.4
32138.2
28685.1
24802.3
20499.6
15823.4
10854.1
5697.03
472.903
-4685.71
-9647.06
-14294.9
-18532
-22273.4
-25451.5
-28015.4
-29930.8
-31181.4
-31770.4
-31728.9
-31129.2
-30313.7
-28635.9
-25238
-22212.5
-18813.1
-15276
-11668.1
-8110.86
-4714.9
-1608.08
1214.74
3440.44
5122.12
6231.29
6792.74
6867.49
6602.51
6216.22
5488.36
4420.86
3128.08
1797.76
603.929
-257.962
-721.404
-769.979
-567.951
-256.921
276.246
979.08
1784.15
2612.5
3391.61
4055.24
4557.01
4871.28
4996.08
4947.71
4765
4496.32
4190.21
3825.42
3459.87
2980.43
2662.72
2352.35
2087.67
1840.38
1598.7
1349.2
1082.92
793.021
475.173
127.627
-249.19
-653.25
-1081.45
-1529.78
-1993.03
-2464.34
-2934.43
-3390.38
-3816.97
-4194.39
-4500.54
-4723.52
-4834.6
-4822.1
-4678.99
-4403.05
-3999.56
-3485.32
-2862.53
-2172.27
-1451.48
-633.667
166.827
974.256
1759.07
2516.1
3214.77
3870.05
4423.2
4931.91
5297.49
5582.28
5726.67
5755.69
5650.7
5421.99
5069.73
4609.04
4047.47
3403.77
2716.73
1999.68
1282.25
587.762
-96.3353
-708.105
-1245.8
-1698.39
-2056.69
-2317.64
-2480.85
-2550.7
-2535.66
-2446.18
-2294.53
-2098.38
-1872.35
-1631.18
-1388.65
-1156.58
-944.456
-758.663
-602.229
-476.363
-380.055
-310.646
-264.455
-237.302
-224.859
-223.153
-228.636
-238.31
-249.783
-261.271
-271.563
-279.853
-285.613
-288.6
-288.786
-286.299
-281.366
-274.275
-265.346
-254.909
-243.288
-230.788
-217.694
-204.257
-190.701
-177.214
-163.957
-151.059
-138.624
-126.732
-115.441
-104.793
-94.8116
-85.5066
-76.8765
-68.9103
-61.5894
-54.8897
-48.7824
-43.2361
-38.217
-33.6906
-29.622
-25.9765
-22.7204
-19.8208
-17.2466
-14.9683
-12.9581
-11.1901
-9.64005
5603.03
4301.48
2609.89
4.57373
-3962.6
-9556.18
-16793.8
-25448.3
-35944
-46254.4
-56373.2
-66065.6
-75112.4
-83344.8
-90650.2
-96966.6
-102267
-106544
-109792
-111995
-113125
-113169
-112266
-110620
-102456
-96486.2
-90046.7
-83062.4
-75513
-67432.3
-58881.4
-49943.6
-40722.4
-31337.3
-21916.2
-12586.7
-3416.32
5285.12
13003.6
19944.4
26060.6
31318
35708
39252.9
42006.1
44049.6
45487.7
46434.7
46994.7
47243.6
47232.3
46984.2
46513.5
45917.6
44833.1
41863.9
40016.2
37980.6
35788.7
33381.2
30722
27776.8
24519.4
20939.2
17047.5
12881.4
8502.98
3993.02
-555.135
-5035.83
-9342.57
-13375.6
-17052.1
-20296
-23044.7
-25249.4
-26877.5
-27913.3
-28360.6
-28248.7
-27638.3
-26817.3
-25258.4
-22227.5
-19500.1
-16472
-13335.8
-10152.8
-7026.07
-4048.15
-1331.83
1181.87
3107.98
4557.19
5504.22
5975.55
6028.88
5771.54
5419.9
4816.53
3917.99
2818.82
1690.88
682.883
-16.5247
-357.234
-335.689
-115.462
197.027
684.17
1303.16
1996.65
2698.26
3349.87
3894.4
4295.59
4534.52
4612.26
4545.48
4366.98
4114.3
3832.74
3514.94
3184.18
2770.16
2476.19
2187.35
1930.39
1683.04
1436.04
1178.91
904.502
607.665
285.372
-63.4307
-438.217
-837.284
-1258.05
-1697.02
-2149.29
-2608.1
-3064.03
-3503.88
-3912.1
-4268.83
-4553.03
-4749.27
-4833.29
-4793.26
-4623.19
-4322.36
-3897.25
-3364.95
-2730.87
-2031.05
-1304.53
-489.505
307.983
1109.37
1887.06
2636
3326.72
3973.75
4519.7
5020.73
5379.91
5657.96
5790.95
5816.47
5703.35
5465.56
5103.33
4631.75
4059.05
3403.53
2704.64
1976.32
1248.69
543.472
-147.116
-765.962
-1308.15
-1763.28
-2122.36
-2382.2
-2541.66
-2605.53
-2584.44
-2486.72
-2325.85
-2120.02
-1884.32
-1634.08
-1383.58
-1145.06
-928.255
-739.589
-581.976
-456.434
-361.605
-294.45
-250.954
-226.616
-216.862
-217.597
-225.174
-236.548
-249.334
-261.792
-272.763
-281.476
-287.453
-290.5
-290.633
-288.01
-282.893
-275.59
-266.437
-255.776
-243.94
-231.242
-217.967
-204.371
-190.677
-177.074
-163.72
-150.745
-138.25
-126.312
-114.991
-104.324
-94.3339
-85.0285
-76.405
-68.4508
-61.1463
-54.4661
-48.3808
-42.8578
-37.8631
-33.3614
-29.3173
-25.6958
-22.4629
-19.5855
-17.0324
-14.7738
-12.7818
-11.0301
-9.49468
1569.4
195.846
-1548.75
-4024.65
-7527.47
-12241.7
-18221.9
-25581.1
-34117.2
-42416.3
-50517.2
-58277.4
-65559.1
-72255.2
-78291.4
-83618.7
-88199.9
-91994.7
-94951.5
-97002.8
-98075.7
-98125.9
-97255.2
-95776.5
-88641.4
-83237.5
-77434.8
-71198.4
-64535.9
-57487.4
-50104.3
-42445.6
-34578.6
-26579.1
-18527.4
-10502.3
-2521.81
5110.97
11774.3
17805.4
23142.6
27746.5
31603.7
34731.6
37178.6
39019.6
40347.1
41259.4
41844.6
42167.4
42266.2
42148.6
41803.8
41290.9
40444.6
37821.6
36016.4
33990.5
31792.7
29394.8
26785.1
23950.1
20879.2
17571.1
14038.4
10311.7
6439.17
2482.72
-1485.87
-5382.81
-9122.47
-12619.7
-15804.7
-18609.9
-20978
-22863
-24233.8
-25076
-25393.3
-25212.8
-24587.3
-23751.9
-22284.5
-19575.2
-17102.3
-14390.8
-11595.9
-8774.69
-6014.44
-3393.51
-1001.96
1238.33
2909.74
4154.96
4955.93
5340.12
5361.85
5106.97
4763.61
4248.54
3479.64
2533.13
1569.29
713.273
147.788
-90.3839
-8.8467
231.298
552.099
1010.33
1569.12
2178.63
2782.01
3333.39
3781.29
4098.43
4271.55
4304.73
4215.29
4033.11
3791.2
3519.58
3235.61
2932.75
2573.46
2301.43
2033.7
1786.79
1543.07
1295
1034.25
755.22
454.148
129.103
-220.25
-593.131
-987.982
-1402.63
-1834.13
-2278.04
-2727.92
-3174.45
-3604.38
-4001.82
-4346.49
-4616.1
-4798.85
-4865.17
-4805.97
-4615.71
-4294.75
-3850.65
-3300.72
-2653.37
-1942.03
-1205.27
-387.81
412.306
1213.49
1990.12
2737.18
3426.31
4071.56
4616.74
5116.58
5475.03
5751.5
5885.54
5902.58
5783.47
5537.09
5163.87
4678.85
4091.1
3419.3
2703.22
1958.15
1215.32
494.796
-205.85
-834.537
-1382.92
-1841.71
-2202.02
-2460.47
-2615.57
-2673.49
-2643.73
-2535.92
-2363.77
-2146.11
-1898.61
-1637.29
-1377.1
-1130.75
-908.282
-716.186
-557.224
-432.167
-339.223
-274.873
-234.704
-213.689
-207.33
-211.032
-221.137
-234.548
-248.901
-262.514
-274.285
-283.489
-289.71
-292.814
-292.864
-290.08
-284.736
-277.172
-267.746
-256.814
-244.719
-231.781
-218.289
-204.501
-190.641
-176.898
-163.43
-150.362
-137.795
-125.805
-114.447
-103.758
-93.758
-84.4527
-75.8373
-67.898
-60.6134
-53.957
-47.8982
-42.4036
-37.4382
-32.9662
-28.9516
-25.3591
-22.1541
-19.3035
-16.7758
-14.5408
-12.5708
-10.839
-9.32164
-1066.49
-2488.49
-4238.38
-6582.62
-9731.65
-13818
-18900.3
-25418.9
-32450.6
-39208.9
-45752.6
-52000.6
-57875
-63317
-68284.9
-72746.6
-76664.4
-79982.5
-82621.9
-84481.7
-85457.7
-85481.7
-84627.6
-83249.2
-76923.8
-72002
-66742
-61139.1
-55220.7
-49030.9
-42613.3
-36008.6
-29257.9
-22403.9
-15489.9
-8556.35
-1582.47
5141.37
10901.9
16145.4
20797.4
24817.1
28188.4
30925.4
33072.4
34698.1
35886.7
36725.5
37292.2
37643.7
37809.9
37789.3
37554.3
37090.7
36414.4
34112.4
32358.9
30357.6
28172
25801.8
23254.9
20533.5
17639.2
14577.4
11362.4
8020.04
4588.21
1114.26
-2347.22
-5730.39
-8967.92
-11987.1
-14730.3
-17138.2
-19159.1
-20750.5
-21883
-22543.2
-22734.9
-22483.3
-21835.5
-20979.5
-19581.4
-17155.4
-14905
-12470.5
-9975.59
-7473.21
-5037.08
-2736.18
-681.669
1328.13
2804.38
3860.61
4522.12
4817.24
4797.97
4538.04
4186.86
3735.84
3071.59
2254.05
1434.06
712.574
267.547
123.194
261.733
525.196
860.125
1299.73
1811.02
2349.98
2867.06
3330.04
3689.15
3926.41
4034.35
4020.41
3903.3
3710.84
3472.81
3213.2
2953.45
2676.1
2367.84
2118.94
1872.92
1637.34
1398.37
1150.1
886.24
602.784
297.359
-30.7903
-381.166
-752.611
-1143.62
-1552.4
-1976.58
-2412.27
-2853.41
-3290.86
-3711.32
-4098.4
-4431.66
-4687.91
-4854.94
-4902.29
-4822.17
-4609.24
-4265.3
-3799.01
-3228.51
-2565.04
-1839.77
-1090.89
-270.259
533.011
1333.97
2109.15
2853.63
3540.36
4182.86
4726.43
5224.11
5581.38
5855.88
5985.64
5997.28
5871.61
5615.51
5230
4730.11
4125.75
3435.84
2700.81
1937.22
1177.32
438.854
-273.674
-913.495
-1469.83
-1933.58
-2295.64
-2552.54
-2702.36
-2753.16
-2713.58
-2593.9
-2408.4
-2176.68
-1915.14
-1640.67
-1368.96
-1113.34
-884.232
-688.159
-527.722
-403.366
-312.788
-251.845
-215.702
-198.764
-196.324
-203.521
-216.592
-232.378
-248.546
-263.491
-276.175
-285.927
-292.412
-295.566
-295.513
-292.518
-286.899
-279.024
-269.274
-258.021
-245.621
-232.401
-218.655
-204.643
-190.591
-176.685
-163.082
-149.907
-137.258
-125.207
-113.808
-103.094
-93.0825
-83.7778
-75.1727
-67.2512
-59.9904
-53.3621
-47.3346
-41.8734
-36.9425
-32.5053
-28.5253
-24.9667
-21.7944
-18.9751
-16.477
-14.2698
-12.3255
-10.6172
-9.12131
-2864.57
-4315.17
-6044.82
-8263.99
-11134.8
-14761.7
-19224.8
-25031.4
-30931.9
-36493.3
-41810.3
-46851.2
-51583.6
-55986.3
-60046.3
-63749
-67062.7
-69926.8
-72246.8
-73900.7
-74761.3
-74741.7
-73894.3
-72580.8
-66891.7
-62383
-57589
-52527.3
-47238.7
-41769.9
-36158.3
-30431.2
-24609.9
-18712.4
-12754.1
-6745.88
-640.275
5267.92
10297.6
14862
18910.3
22406.7
25334.6
27705.8
29561.2
30964.8
31994.9
32731.8
33246.6
33591.4
33790.9
33836.7
33687.5
33288
32716.7
30705.6
29010.1
27044.3
24885.3
22556.8
20082.4
17476.2
14748.4
11909.9
8976.13
5970.08
2922.33
-130.978
-3148.81
-6079.76
-8873.12
-11466.4
-13813.1
-15862.5
-17568.3
-18891.4
-19804.6
-20295.5
-20367.9
-20044.8
-19368.4
-18491.6
-17144
-14963
-12905.5
-10710.8
-8476.43
-6251.82
-4098.52
-2073.66
-221.933
1474.86
2785.49
3667.77
4197.73
4403.4
4335.32
4060.78
3692.94
3281
2695.91
1980.07
1285.27
681.456
340.495
279.467
470.862
761.534
1115.73
1547.3
2025.15
2509.26
2955.67
3344.75
3626.1
3790.6
3836.42
3774.52
3625.59
3416.97
3176.57
2926.56
2681.73
2427.93
2163.86
1939.05
1715.25
1492.99
1260.91
1014.6
749.486
463.002
154.127
-176.693
-528.051
-898.303
-1285.91
-1689.45
-2107.2
-2535.98
-2970.29
-3401.36
-3815.91
-4197.07
-4523.67
-4771.08
-4929.91
-4962.72
-4865.41
-4632.31
-4266.61
-3778.06
-3185.74
-2503.86
-1762.4
-998.037
-170.913
638.911
1443.04
2220.2
2965.61
3653.57
4297.1
4842.9
5342.31
5701.77
5976.85
6108.14
6112.7
5981.72
5715.33
5315.86
4798.36
4173.71
3461.56
2703.27
1916.93
1135.93
375.665
-351.136
-1004.48
-1570.41
-2039.81
-2404.04
-2659.26
-2802.86
-2845.37
-2794.38
-2660.9
-2459.85
-2211.72
-1933.82
-1644
-1358.88
-1092.51
-855.745
-655.164
-493.173
-369.793
-282.151
-225.278
-193.936
-181.768
-183.892
-195.138
-211.618
-230.112
-248.341
-264.788
-278.483
-288.831
-295.591
-298.776
-298.586
-295.334
-289.387
-281.147
-271.019
-259.396
-246.644
-233.099
-219.061
-204.794
-190.52
-176.429
-162.674
-149.378
-136.635
-124.516
-113.07
-102.328
-92.3056
-83.0026
-74.41
-66.5095
-59.2764
-52.6809
-46.6896
-41.2669
-36.3757
-31.9786
-28.0384
-24.5186
-21.3839
-18.6004
-16.1362
-13.9608
-12.0462
-10.3649
-8.89391
-4143.37
-5607.2
-7302.63
-9407.66
-12057.8
-15348.3
-19497.7
-24570.9
-29573.4
-34179.9
-38511.8
-42572.8
-46364.1
-49894.4
-53174.9
-56208.6
-58973.7
-61411.5
-63421.2
-64867.1
-65605.5
-65533.9
-64686.9
-63419.6
-58233.8
-54082.5
-49692.2
-45096.1
-40344.6
-35485.4
-30551.2
-25559.7
-20518.1
-15426.2
-10278.2
-5063.16
283.493
5436.64
9901.96
13878.3
17392.7
20418.9
22941.3
24970.3
26543.8
27722.7
28581
29194.7
29631.6
29941.1
30145.9
30233.7
30153.8
29821.8
29316.5
27566.4
25933.2
24011.2
21890
19614.3
17219.5
14728.2
12156.9
9520.24
6835.46
4123.95
1411.47
-1274.16
-3902.46
-6433.21
-8831.98
-11043.6
-13032.6
-14756.5
-16174.7
-17251.5
-17961.8
-18294.2
-18252.4
-17857.5
-17147.7
-16248.5
-14937.1
-12965.4
-11074.8
-9087.13
-7079.3
-5097.16
-3192.37
-1412.12
220.58
1678.75
2837.73
3559.9
3964.3
4079.6
3955.44
3654.94
3266.91
2871.97
2341.46
1711.06
1122.6
623.419
375.054
388.407
630.126
952.43
1330.9
1763.57
2219.76
2662.05
3055.12
3376.49
3587.6
3683.74
3668.48
3556.5
3371.19
3140.48
2891.76
2646.71
2413.31
2182.93
1956.16
1756.77
1556.06
1348.9
1125.34
882.471
617.093
328.109
15.8917
-317.83
-670.596
-1040.13
-1424.77
-1823.45
-2235.18
-2657.61
-3086.01
-3512.09
-3922.68
-4300.22
-4622.41
-4864.8
-5016.25
-5036.33
-4922.53
-4668.74
-4279.9
-3766.88
-3150.17
-2446.95
-1686.77
-904.34
-68.8615
749.097
1557.57
2337.65
3084.7
3774.58
4419.81
4968.74
5470.73
5833.7
6110.5
6243.48
6240.6
6105.4
5828.13
5413.57
4876.68
4229.45
3492.32
2707.68
1895.54
1091.07
304.965
-439.388
-1108.04
-1684.7
-2160.61
-2527.44
-2780.83
-2917.14
-2950.52
-2886.53
-2737.23
-2518.31
-2251.3
-1954.53
-1647.03
-1346.49
-1067.82
-822.373
-616.782
-453.224
-331.169
-247.158
-195.068
-169.404
-162.746
-170.099
-185.978
-206.312
-227.843
-248.371
-266.479
-281.268
-292.247
-299.282
-302.47
-302.099
-298.539
-292.207
-283.544
-272.982
-260.935
-247.783
-233.87
-219.503
-204.946
-190.425
-176.126
-162.201
-148.769
-135.922
-123.728
-112.231
-101.46
-91.4255
-82.1255
-73.5479
-65.6721
-58.4709
-51.9129
-45.9629
-40.5839
-35.7378
-31.3862
-27.4909
-24.0151
-20.9228
-18.1798
-15.7539
-13.6144
-11.7331
-10.0826
-8.63985
-5096.25
-6560.96
-8214.34
-10217.9
-12694.7
-15745
-19685.7
-24098.5
-28378
-32205.8
-35733.7
-38987.8
-41993.6
-44782.8
-47387.2
-49826.7
-52091.8
-54130.4
-55841.9
-57083.1
-57698.1
-57571
-56721.5
-55491.3
-50708.8
-46871.8
-42835
-38642.9
-34351.8
-30010.4
-25648
-21275.7
-16891.5
-12482
-8025.88
-3495.62
1196.46
5692.45
9680.49
13137.4
16176
18778.1
20929.3
22638.3
23941.1
24895.8
25573.7
26048.6
26386.7
26637.4
26823.7
26932.3
26907
26644.5
26181.5
24664.3
23097.2
21225.6
19152.1
16938.9
14629.5
12252
9826.81
7371.93
4906.65
2452.3
32.04
-2332.23
-4618.24
-6793.04
-8840.56
-10708.7
-12373.6
-13800.8
-14955.4
-15805.4
-16327.7
-16511.7
-16360.8
-15894.6
-15147.8
-14224.3
-12938.6
-11143.1
-9395.89
-7585.65
-5773.71
-4002.54
-2315.63
-751.316
687.02
1929.29
2943.95
3524.52
3809.32
3833.72
3647.14
3310.29
2897.72
2501.41
2004.43
1420.7
944.426
552.201
374.949
454.371
744.585
1103.16
1510.86
1953.2
2398.74
2811.3
3164.73
3426.65
3574.46
3606.2
3530.62
3366.29
3140.09
2881.54
2618.85
2374.4
2150.57
1940.35
1746.83
1574.44
1398.16
1208.23
995.06
757.18
492.644
201.772
-113.664
-450.506
-805.095
-1174.37
-1556.45
-1950.64
-2356.82
-2773.68
-3197.45
-3620.56
-4030.02
-4407.41
-4728.34
-4971.87
-5118.49
-5130.26
-5002.11
-4728.45
-4316.19
-3777.3
-3133.97
-2406.65
-1625.06
-821.628
24.9127
853.524
1668.63
2453.88
3204.8
3898.97
4548.42
5103.13
5610.53
5979.37
6259.64
6398.72
6388.68
6248.68
5959.47
5527.98
4968.97
4295.67
3529.67
2714.91
1873.52
1042.11
224.42
-539.039
-1224.65
-1813.62
-2297
-2666.8
-2917.28
-3046.74
-3069.18
-2990.41
-2823.14
-2583.91
-2295.4
-1977.13
-1649.49
-1331.4
-1038.81
-783.634
-572.554
-407.49
-287.158
-207.577
-161.33
-141.999
-141.732
-155.024
-176.144
-200.782
-225.675
-248.734
-268.644
-284.596
-296.228
-303.523
-306.675
-306.073
-302.144
-295.365
-286.216
-275.162
-262.636
-249.034
-234.709
-219.974
-205.096
-190.3
-175.771
-161.658
-148.077
-135.117
-122.84
-111.289
-100.486
-90.4401
-81.1448
-72.5851
-64.7377
-57.5731
-51.0575
-45.1541
-39.8244
-35.0288
-30.728
-26.8831
-23.4563
-20.4114
-17.7135
-15.3303
-13.2308
-11.3867
-9.77058
-8.35937
-5846.75
-7301.09
-8908.17
-10823.7
-13169.5
-16087.7
-19779.9
-23646.7
-27334
-30522.7
-33386.6
-35969.4
-38312.7
-40465.7
-42477.7
-44384.6
-46190
-47852.6
-49277
-50317.5
-50809.8
-50626.7
-49774.4
-48577.6
-44126.3
-40572.2
-36849.5
-33010.7
-29116.4
-25215.7
-21336.3
-17485.9
-13656.9
-9827.53
-5964.93
-2025.62
2101.57
6037.73
9605.03
12594.6
15206.1
17424.4
19235.2
20645.7
21689.6
22423.1
22915.8
23240.2
23462.9
23634.7
23781.1
23890.9
23906.5
23712.4
23279.7
21970.2
20472.8
18658.3
16642.3
14501.3
12282.6
10016.8
7727.56
5435.09
3161.81
930.438
-1236.22
-3320.2
-5306.57
-7160.6
-8896.22
-10453.7
-11823
-12978.2
-13890.3
-14530.7
-14878.1
-14922.9
-14668
-14131.3
-13344.9
-12395.1
-11127.5
-9477.39
-7852.08
-6192.71
-4549.18
-2960.83
-1464.71
-92.1791
1162.26
2218.03
3076.4
3549.61
3720.95
3654.25
3399.65
3017.27
2573.97
2161.17
1664.96
1146.79
750.459
443.661
353.034
481.836
819.784
1219.47
1661.54
2121.72
2566.78
2960.52
3285.11
3496.12
3586.41
3556.72
3420.74
3201.17
2929.18
2636.82
2354.41
2106.99
1889.37
1696.49
1533.71
1390.04
1240.01
1069.74
868.906
637.732
375.072
82.6551
-236.215
-576.741
-933.859
-1303.52
-1683.5
-2073.48
-2474.38
-2886.12
-3306.14
-3727.88
-4138.69
-4519.05
-4842.61
-5091.37
-5234.43
-5241.83
-5100.58
-4806.97
-4370.13
-3803.17
-3130.3
-2375.73
-1569.65
-742.649
117.361
958.547
1781.73
2573.42
3329.35
4028.97
4683.95
5246.09
5760.76
6137.11
6423.95
6565.92
6554.62
6409.27
6107.39
5657.59
5074.16
4371.72
3573.17
2724.05
1849.29
989.223
133.161
-650.633
-1354.92
-1957.76
-2449.57
-2822.76
-3069.11
-3192.38
-3202.01
-3106.61
-2919.12
-2656.96
-2344.14
-2001.51
-1651.06
-1313.16
-1004.91
-738.916
-521.904
-355.494
-237.653
-163.126
-123.728
-111.778
-118.783
-138.754
-165.764
-195.155
-223.732
-249.543
-271.375
-288.541
-300.83
-308.354
-311.425
-310.526
-306.161
-298.865
-289.164
-277.555
-264.494
-250.391
-235.61
-220.468
-205.236
-190.138
-175.357
-161.039
-147.296
-134.213
-121.848
-110.239
-99.4041
-89.3469
-80.0585
-71.5201
-63.7052
-56.5819
-50.114
-44.2628
-38.988
-34.2487
-30.0044
-26.2152
-22.8427
-19.85
-17.202
-14.8658
-12.8105
-11.0075
-9.42925
-8.05293
-6477.15
-7909.09
-9468.41
-11310.2
-13567
-16431.8
-19817.7
-23232.2
-26430.7
-29090.5
-31403.9
-33424.5
-35205.2
-36806.8
-38294.7
-39719.2
-41096.7
-42400.3
-43545.2
-44387.2
-44757.3
-44518.9
-43665.4
-42502.7
-38334.1
-35042
-31603.5
-28076.9
-24525.7
-21000.2
-17527.7
-14115.7
-10754.8
-7418.54
-4065
-636.061
2998.01
6456.41
9647.94
12213
14439.3
16309.4
17808
18940.3
19738
20255.3
20560.5
20726.1
20819.6
20894.9
20981.6
21073.4
21115.4
20984.3
20582.7
19456.3
18033.2
16283.5
14335.4
12276.7
10154.1
7998.01
5834.2
3685.07
1577.56
-462.8
-2411.05
-4251.33
-5971.81
-7543
-8997.62
-10271.9
-11369.9
-12274.1
-12961.9
-13407.7
-13592
-13506.2
-13152.1
-12546.1
-11718.2
-10739.8
-9485.04
-7952.25
-6429.09
-4896.52
-3396.57
-1965.82
-636.347
565.708
1652.72
2540.03
3239.41
3625.04
3688.94
3531.11
3203.49
2767.46
2286.76
1844.3
1334.59
874.152
543.666
306.582
297.261
474.099
860.06
1306.12
1787.99
2274.04
2728.35
3113.42
3418.51
3586.2
3623.83
3534.75
3337.58
3059.2
2736.17
2403.77
2096.32
1843.24
1625.92
1449.88
1317.05
1204.31
1082.87
934.87
748.36
525.496
265.479
-28.3991
-351.196
-696.196
-1056.71
-1427.46
-1805.75
-2191.69
-2587.41
-2994.38
-3411.52
-3833.63
-4248.57
-4635.42
-4967.29
-5224.16
-5368.41
-5374.48
-5221.61
-4907.97
-4445.41
-3848.11
-3142.5
-2357.46
-1523.23
-670.523
205.85
1061.77
1894.67
2694.41
3456.89
4163.61
4826.01
5398.09
5921.35
6309.54
6604.12
6753.3
6738.96
6589.26
6273.46
5802.98
5191.95
4456.64
3621.74
2734.67
1823.12
934.042
28.3232
-774.926
-1500.18
-2118.31
-2619.54
-2996.58
-3237.65
-3354.02
-3349.63
-3235.6
-3025.46
-2737.61
-2397.45
-2027.41
-1651.31
-1291.16
-965.472
-687.565
-464.217
-296.722
-182.236
-113.702
-82.1948
-78.7629
-94.0695
-121.4
-154.999
-189.581
-222.155
-250.92
-274.771
-293.183
-306.114
-313.818
-316.751
-315.479
-310.601
-302.714
-292.39
-280.16
-266.505
-251.848
-236.566
-220.978
-205.358
-189.931
-174.877
-160.337
-146.421
-133.207
-120.748
-109.078
-98.2104
-88.1435
-78.8646
-70.3511
-62.5735
-55.4966
-49.082
-43.2887
-38.0746
-33.3973
-29.2152
-25.4873
-22.1743
-19.2389
-16.6455
-14.3609
-12.3538
-10.5957
-9.05899
-7.72088
-7043.7
-8438.99
-9952.03
-11736.7
-13952.6
-16739
-19823.7
-22855.6
-25656.7
-27876.8
-29734.3
-31283.5
-32584.1
-33703.4
-34722.7
-35705
-36677.5
-37632.1
-38499.8
-39141.2
-39388
-39094.8
-38243.7
-37118.5
-33206.8
-30166.4
-26991.1
-23743.8
-20490.6
-17283.7
-14151.8
-11104.9
-8135.82
-5216.98
-2300.42
686.091
3893.31
6932.98
9779.3
11962.1
13840.7
15394.2
16606.5
17480.6
18045.7
18353.9
18472.1
18473.1
18426.1
18388.4
18395.2
18447.8
18499.1
18421.1
18055.4
17091.3
15749.6
14075.7
12209.7
10246.8
8227.12
6179.08
4130.34
2105.24
137.489
-1743.12
-3506.43
-5136.33
-6621.47
-7945.93
-9144.94
-10159
-11005.7
-11676.4
-12155.4
-12419.7
-12451.5
-12243.1
-11795
-11121.5
-10251
-9242.37
-7997.39
-6556.1
-5116.7
-3688.76
-2309.48
-1013
172.211
1223.79
2160.65
2893.92
3442.9
3738.41
3704.4
3456.23
3051.37
2554.56
2029.92
1538.35
1022.89
600.355
329.37
144.05
199.032
436.942
868.376
1366.34
1893.91
2414.16
2887.67
3275.78
3567.64
3699.23
3688.65
3541.87
3282.29
2940.99
2561.06
2181.57
1842.62
1578.4
1358.57
1197.64
1093.93
1014.39
924.549
802.358
632.988
420.743
164.514
-130.689
-458.132
-808.739
-1173.91
-1546.79
-1923.99
-2306.03
-2696.51
-3098.77
-3513.45
-3937.4
-4359.07
-4755.83
-5101.97
-5369.88
-5517.56
-5528.98
-5365.18
-5031.2
-4541.53
-3911.37
-3169.31
-2350.35
-1483.83
-603.255
292.386
1165.14
2009.04
2818.05
3588.17
4303.13
4974.52
5557.95
6093.63
6496.2
6800.01
6955.82
6942.52
6788.13
6458.3
5965.95
5325
4553.57
3678.18
2748.18
1794.26
862.615
-76.4279
-911.587
-1660.91
-2295.89
-2807.68
-3188.88
-3423.65
-3532.69
-3512.89
-3378.1
-3142.77
-2826.27
-2455.57
-2054.84
-1649.98
-1264.97
-919.858
-628.871
-398.773
-230.791