/*--------------------------------*- C++ -*----------------------------------*\
| =========                 |                                                 |
| \\      /  F ield         | OpenFOAM: The Open Source CFD Toolbox           |
|  \\    /   O peration     | Version:  v1912                                 |
|   \\  /    A nd           | Website:  www.openfoam.com                      |
|    \\/     M anipulation  |                                                 |
\*---------------------------------------------------------------------------*/
FoamFile
{
    version     2.0;
    format      ascii;
    class       volVectorField;
    location    "10";
    object      U;
}
// * * * * * * * * * * * * * * * * * * * * * * * * * * * * * * * * * * * * * //

dimensions      [0 1 -1 0 0 0 0];


internalField   nonuniform List<vector> 
114144
(
(-0.853299 -0.0489051 0)
(-0.912666 -0.0380496 0)
(-1.01756 -0.029051 0)
(-1.10567 -0.0228035 0)
(-1.17845 -0.0177239 0)
(-1.23566 -0.013019 0)
(-1.27644 -0.00844284 0)
(-1.29977 -0.00384017 0)
(-1.30472 0.000831385 0)
(-1.29066 0.00545151 0)
(-1.25756 0.00986004 0)
(-1.20613 0.0138552 0)
(-1.13794 0.0172339 0)
(-1.05531 0.0198329 0)
(-0.961163 0.0215619 0)
(-0.858751 0.022425 0)
(-0.751264 0.0225228 0)
(-0.641487 0.0220213 0)
(-0.531451 0.0210379 0)
(-0.422602 0.0193719 0)
(-0.316088 0.0171799 0)
(-0.211967 0.0159092 0)
(-0.109945 0.0153528 0)
(-0.0116851 0.0154452 0)
(0.0902924 0.0162194 0)
(0.196204 0.0161656 0)
(0.298905 0.0159668 0)
(0.399724 0.0154485 0)
(0.496765 0.0145136 0)
(0.587745 0.0131256 0)
(0.670219 0.0113196 0)
(0.741915 0.00919098 0)
(0.800993 0.00687683 0)
(0.846238 0.00453146 0)
(0.87713 0.00230544 0)
(0.893914 0.00039225 0)
(0.897291 -0.00145661 0)
(0.888372 -0.00288725 0)
(0.868521 -0.00397506 0)
(0.839022 -0.00479416 0)
(0.801128 -0.00541208 0)
(0.755982 -0.00588861 0)
(0.704619 -0.00627045 0)
(0.64805 -0.00659842 0)
(0.587298 -0.00697085 0)
(0.52347 -0.00735144 0)
(0.457687 -0.00770802 0)
(0.390981 -0.00776201 0)
(0.325544 -0.00661538 0)
(0.26325 -0.00581589 0)
(0.204678 -0.00529202 0)
(0.150341 -0.00471454 0)
(0.100142 -0.00420789 0)
(0.0535433 -0.00387053 0)
(0.0105484 -0.00377166 0)
(-0.0342967 -0.00398528 0)
(-0.0818839 -0.00416342 0)
(-0.129801 -0.00462415 0)
(-0.181231 -0.00526764 0)
(-0.236527 -0.00592429 0)
(-0.295355 -0.00645565 0)
(-0.356609 -0.00677056 0)
(-0.418574 -0.0068086 0)
(-0.479096 -0.00653671 0)
(-0.535798 -0.00595305 0)
(-0.58632 -0.00508762 0)
(-0.628543 -0.00399677 0)
(-0.66076 -0.00275347 0)
(-0.681789 -0.00143645 0)
(-0.691006 -0.000117315 0)
(-0.688294 0.00113226 0)
(-0.673915 0.00229052 0)
(-0.64849 0.00332676 0)
(-0.612827 0.0042372 0)
(-0.567838 0.00502821 0)
(-0.514479 0.00571032 0)
(-0.453744 0.0062922 0)
(-0.386672 0.0067783 0)
(-0.314395 0.00716775 0)
(-0.237847 0.00751009 0)
(-0.157803 0.00739255 0)
(-0.0787838 0.00697848 0)
(-0.00541367 0.00665505 0)
(0.0680866 0.00652398 0)
(0.139214 0.00578288 0)
(0.200885 0.0049335 0)
(0.25374 0.00391626 0)
(0.295918 0.00280324 0)
(0.326552 0.00163488 0)
(0.345181 0.000465686 0)
(0.351631 -0.000847494 0)
(0.34674 -0.00162963 0)
(0.331713 -0.0024674 0)
(0.307703 -0.00312279 0)
(0.276715 -0.00358945 0)
(0.240904 -0.00389494 0)
(0.201326 -0.00406359 0)
(0.1616 -0.00317928 0)
(0.126493 -0.0027325 0)
(0.0973756 -0.0021066 0)
(0.0753552 -0.00136932 0)
(0.0613879 -0.000570984 0)
(0.0559961 0.000255563 0)
(0.0591872 0.000991454 0)
(0.0706448 0.00165281 0)
(0.0895129 0.00216308 0)
(0.114931 0.0025611 0)
(0.145578 0.00277007 0)
(0.176518 0.00244378 0)
(0.204055 0.00203602 0)
(0.226953 0.00147028 0)
(0.243056 0.000810433 0)
(0.250946 0.000117429 0)
(0.249893 -0.000542167 0)
(0.240041 -0.00110227 0)
(0.222234 -0.00151691 0)
(0.197966 -0.00176732 0)
(0.16929 -0.00184255 0)
(0.137782 -0.00198829 0)
(0.105545 -0.00121327 0)
(0.0756185 -0.000840115 0)
(0.0493768 -0.000482266 0)
(0.0267384 -0.000172805 0)
(0.00898108 0.000158919 0)
(-0.00680625 0.000208688 0)
(-0.0212054 0.00034075 0)
(-0.0328934 0.000355829 0)
(-0.0445845 0.000334639 0)
(-0.0568859 0.000270723 0)
(-0.0708182 0.000134127 0)
(-0.0870525 -4.57822e-05 0)
(-0.105765 -0.000133362 0)
(-0.126716 -0.000149721 0)
(-0.149552 -0.000122684 0)
(-0.173824 -6.71787e-05 0)
(-0.199059 1.96309e-06 0)
(-0.224811 7.02089e-05 0)
(-0.25069 0.000126317 0)
(-0.276337 0.000164827 0)
(-0.301369 0.000186373 0)
(-0.325309 0.000197002 0)
(-0.347519 0.000205034 0)
(-0.367153 0.000216687 0)
(-0.383175 0.000235041 0)
(-0.394349 0.000254702 0)
(-0.399509 0.000263497 0)
(-0.397365 0.000246645 0)
(-0.386887 0.000172262 0)
(-0.367344 2.23897e-05 0)
(-0.338494 -0.000214118 0)
(-0.300444 -0.000529825 0)
(-0.253995 -0.000926965 0)
(-0.200322 -0.00132939 0)
(-0.139724 -0.00182457 0)
(-0.0757901 -0.0024689 0)
(-0.0103284 -0.00289277 0)
(0.0572128 -0.00320685 0)
(0.124557 -0.00353214 0)
(0.190168 -0.0037666 0)
(0.252503 -0.00393036 0)
(0.311625 -0.00400629 0)
(0.364796 -0.00404429 0)
(0.414119 -0.00397863 0)
(0.453396 -0.00393465 0)
(0.486868 -0.00367565 0)
(0.514208 -0.003453 0)
(0.527938 -0.00300585 0)
(0.533594 -0.00243867 0)
(0.527261 -0.00169805 0)
(0.510668 -0.000626853 0)
(0.482536 0.000661795 0)
(0.444225 0.0021323 0)
(0.396428 0.00369655 0)
(0.340084 0.00529403 0)
(0.277403 0.00686006 0)
(0.211372 0.00810157 0)
(0.143937 0.00908803 0)
(0.077644 0.00964981 0)
(0.013655 0.00978847 0)
(-0.0466267 0.00944401 0)
(-0.100681 0.0087528 0)
(-0.147111 0.00773155 0)
(-0.184981 0.00644521 0)
(-0.213857 0.00497462 0)
(-0.233553 0.0033898 0)
(-0.244224 0.00178891 0)
(-0.246393 0.000276557 0)
(-0.240813 -0.00111626 0)
(-0.228477 -0.00234618 0)
(-0.210617 -0.00332831 0)
(-0.188939 -0.0040368 0)
(-0.164975 -0.00445897 0)
(-0.14004 -0.00459807 0)
(-0.115432 -0.00447827 0)
(-0.0922885 -0.00414618 0)
(-0.0715443 -0.0036612 0)
(-0.053785 -0.00307869 0)
(-0.0392873 -0.00245173 0)
(-0.0280862 -0.00183452 0)
(-0.0200286 -0.00126864 0)
(-0.0147689 -0.000779903 0)
(-0.0118569 -0.000381682 0)
(-0.0107978 -7.64879e-05 0)
(-0.011102 0.000139991 0)
(-0.0123229 0.000278416 0)
(-0.0140801 0.000351866 0)
(-0.0160672 0.000374387 0)
(-0.0180496 0.000359372 0)
(-0.0198631 0.000318738 0)
(-0.0214058 0.000261977 0)
(-0.0226218 0.000196728 0)
(-0.0234857 0.000129011 0)
(-0.0239963 6.3259e-05 0)
(-0.0241719 2.19597e-06 0)
(-0.0240428 -5.26765e-05 0)
(-0.0236472 -9.96279e-05 0)
(-0.0230259 -0.000138743 0)
(-0.0222197 -0.000170188 0)
(-0.0212681 -0.000194402 0)
(-0.0202075 -0.000211999 0)
(-0.0190711 -0.00022369 0)
(-0.0178876 -0.00023023 0)
(-0.0166824 -0.000232372 0)
(-0.0154763 -0.000230835 0)
(-0.014287 -0.000226294 0)
(-0.0131283 -0.000219355 0)
(-0.0120113 -0.000210571 0)
(-0.0109442 -0.000200416 0)
(-0.0099329 -0.000189311 0)
(-0.00898146 -0.000177615 0)
(-0.00809222 -0.000165633 0)
(-0.00726608 -0.000153605 0)
(-0.00650275 -0.000141726 0)
(-0.005801 -0.000130153 0)
(-0.00515888 -0.000119009 0)
(-0.00457387 -0.000108383 0)
(-0.00404309 -9.83391e-05 0)
(-0.00356337 -8.89126e-05 0)
(-0.00313139 -8.01253e-05 0)
(-0.00274376 -7.1979e-05 0)
(-0.0023971 -6.44688e-05 0)
(-0.00208807 -5.75806e-05 0)
(-0.00181343 -5.12959e-05 0)
(-0.0015701 -4.55887e-05 0)
(-0.00135506 -4.04312e-05 0)
(-0.00116562 -3.5796e-05 0)
(-0.000998963 -3.16584e-05 0)
(-0.000852597 -2.80127e-05 0)
(-0.000724221 -2.50432e-05 0)
(-0.000606145 -2.27272e-05 0)
(-0.824056 0.0269392 0)
(-0.910803 0.0331386 0)
(-1.01744 0.0364691 0)
(-1.10703 0.0347954 0)
(-1.18045 0.0299269 0)
(-1.23795 0.023107 0)
(-1.27893 0.0151849 0)
(-1.30235 0.00660306 0)
(-1.30732 -0.00230596 0)
(-1.2932 -0.0113763 0)
(-1.25992 -0.0202605 0)
(-1.20822 -0.0285896 0)
(-1.13964 -0.0360047 0)
(-1.05654 -0.0422066 0)
(-0.961894 -0.0470018 0)
(-0.858977 -0.0503347 0)
(-0.751038 -0.0522999 0)
(-0.640942 -0.0531505 0)
(-0.530904 -0.0533511 0)
(-0.42235 -0.053739 0)
(-0.315761 -0.0547405 0)
(-0.211242 -0.0556442 0)
(-0.108975 -0.0557368 0)
(-0.0104183 -0.0548706 0)
(0.0914659 -0.0529511 0)
(0.197187 -0.0526657 0)
(0.300128 -0.0518977 0)
(0.401279 -0.050395 0)
(0.49872 -0.0479093 0)
(0.590119 -0.0443072 0)
(0.672982 -0.039581 0)
(0.744986 -0.0338514 0)
(0.804254 -0.0273484 0)
(0.849556 -0.0203711 0)
(0.880401 -0.0132393 0)
(0.896933 -0.00621056 0)
(0.899974 0.000240292 0)
(0.890777 0.00625823 0)
(0.870597 0.0117378 0)
(0.840761 0.0166096 0)
(0.802542 0.0208857 0)
(0.75708 0.0245909 0)
(0.705391 0.0277284 0)
(0.648437 0.0302541 0)
(0.587247 0.0320394 0)
(0.522969 0.0330076 0)
(0.456829 0.0331055 0)
(0.390213 0.032688 0)
(0.324685 0.032831 0)
(0.261853 0.032374 0)
(0.203067 0.0309616 0)
(0.148793 0.0291131 0)
(0.0987695 0.0272886 0)
(0.0524459 0.0257554 0)
(0.00977479 0.0247509 0)
(-0.0346255 0.0242372 0)
(-0.0818264 0.0251913 0)
(-0.129597 0.0265867 0)
(-0.180995 0.0282245 0)
(-0.236393 0.0298778 0)
(-0.295479 0.0312436 0)
(-0.35714 0.0319777 0)
(-0.419614 0.0317792 0)
(-0.480684 0.0304486 0)
(-0.537909 0.0279115 0)
(-0.588874 0.0242185 0)
(-0.631419 0.0195266 0)
(-0.663815 0.0140677 0)
(-0.684875 0.00811156 0)
(-0.693997 0.00193984 0)
(-0.691082 -0.00423449 0)
(-0.676422 -0.0101934 0)
(-0.650675 -0.0158121 0)
(-0.614671 -0.0210058 0)
(-0.569335 -0.0257266 0)
(-0.515627 -0.0299438 0)
(-0.454535 -0.0336228 0)
(-0.387085 -0.0367086 0)
(-0.314377 -0.0391196 0)
(-0.237481 -0.0406955 0)
(-0.157132 -0.0418821 0)
(-0.0775554 -0.0425088 0)
(-0.00342431 -0.0415083 0)
(0.0705541 -0.0384337 0)
(0.141988 -0.0352149 0)
(0.204042 -0.0308328 0)
(0.25715 -0.0256396 0)
(0.29946 -0.0197564 0)
(0.33008 -0.0134429 0)
(0.348474 -0.00697304 0)
(0.354701 -0.000739646 0)
(0.349457 0.00520231 0)
(0.333794 0.0104406 0)
(0.309132 0.01474 0)
(0.277409 0.0178695 0)
(0.240811 0.0196273 0)
(0.200786 0.0198873 0)
(0.160462 0.0202093 0)
(0.124526 0.0182717 0)
(0.0949514 0.015054 0)
(0.0726263 0.0108145 0)
(0.0585551 0.00587334 0)
(0.0532569 0.000605629 0)
(0.0567592 -0.00457119 0)
(0.0687456 -0.00922542 0)
(0.0883237 -0.0129616 0)
(0.114574 -0.0153268 0)
(0.145952 -0.0161901 0)
(0.177627 -0.0160936 0)
(0.20592 -0.0142922 0)
(0.229359 -0.0111245 0)
(0.245777 -0.00687731 0)
(0.253723 -0.00196166 0)
(0.252463 0.00315615 0)
(0.242173 0.00800408 0)
(0.223741 0.0121807 0)
(0.198736 0.0153308 0)
(0.16922 0.0172671 0)
(0.13722 0.0176674 0)
(0.104545 0.017848 0)
(0.0740406 0.0167766 0)
(0.0476174 0.0148392 0)
(0.0250551 0.0125461 0)
(0.00749295 0.0105612 0)
(-0.00794501 0.0083742 0)
(-0.0218679 0.00733579 0)
(-0.0331489 0.00687396 0)
(-0.0444895 0.00717131 0)
(-0.0565829 0.00803165 0)
(-0.0704544 0.0092113 0)
(-0.0867046 0.0105132 0)
(-0.1055 0.0118904 0)
(-0.12662 0.0131666 0)
(-0.149665 0.0142117 0)
(-0.174145 0.0149738 0)
(-0.199563 0.0154535 0)
(-0.225469 0.0156778 0)
(-0.251484 0.0156738 0)
(-0.277269 0.015445 0)
(-0.302464 0.0149534 0)
(-0.326612 0.014117 0)
(-0.349082 0.0128178 0)
(-0.369015 0.0109192 0)
(-0.385348 0.00830457 0)
(-0.396797 0.00490781 0)
(-0.402143 0.000729804 0)
(-0.400049 -0.00419676 0)
(-0.389445 -0.00966989 0)
(-0.369581 -0.0154607 0)
(-0.340215 -0.0212674 0)
(-0.30149 -0.0267662 0)
(-0.254239 -0.0316865 0)
(-0.199727 -0.0357266 0)
(-0.138382 -0.0387907 0)
(-0.0736723 -0.0410995 0)
(-0.00746068 -0.0420992 0)
(0.0605622 -0.0420358 0)
(0.128275 -0.0412451 0)
(0.194166 -0.0396886 0)
(0.256692 -0.037477 0)
(0.315928 -0.0346069 0)
(0.369154 -0.0311677 0)
(0.418442 -0.0270033 0)
(0.45761 -0.0223519 0)
(0.490818 -0.0168042 0)
(0.517689 -0.010872 0)
(0.530789 -0.00437014 0)
(0.535572 0.0024963 0)
(0.528266 0.0092635 0)
(0.510586 0.0160873 0)
(0.48135 0.0224776 0)
(0.442037 0.0281894 0)
(0.393449 0.0329513 0)
(0.336624 0.0365722 0)
(0.273691 0.0390448 0)
(0.207651 0.0401054 0)
(0.140493 0.0398024 0)
(0.0746228 0.038351 0)
(0.0111055 0.0358521 0)
(-0.0486817 0.0322815 0)
(-0.102258 0.0280747 0)
(-0.148299 0.0233331 0)
(-0.185867 0.0182878 0)
(-0.214525 0.0131256 0)
(-0.234071 0.00804098 0)
(-0.244625 0.00319787 0)
(-0.24672 -0.00136229 0)
(-0.241112 -0.00532938 0)
(-0.228735 -0.00862121 0)
(-0.210807 -0.011165 0)
(-0.189044 -0.0129288 0)
(-0.164977 -0.0138927 0)
(-0.139925 -0.014083 0)
(-0.115201 -0.0135818 0)
(-0.0919572 -0.0125068 0)
(-0.0711371 -0.0110042 0)
(-0.0533306 -0.00922971 0)
(-0.03882 -0.00734111 0)
(-0.0276403 -0.00548705 0)
(-0.0196305 -0.00378709 0)
(-0.014434 -0.00231861 0)
(-0.0115917 -0.00112348 0)
(-0.0106016 -0.000208509 0)
(-0.010969 0.000440421 0)
(-0.0122442 0.00085436 0)
(-0.0140454 0.00107305 0)
(-0.016066 0.00113902 0)
(-0.0180724 0.00109266 0)
(-0.0199018 0.000969524 0)
(-0.0214538 0.000798359 0)
(-0.022674 0.000601798 0)
(-0.0235381 0.000398026 0)
(-0.0240462 0.000200245 0)
(-0.0242176 1.68326e-05 0)
(-0.0240832 -0.00014619 0)
(-0.0236817 -0.000286899 0)
(-0.0230544 -0.000404214 0)
(-0.0222426 -0.000498535 0)
(-0.0212857 -0.000571161 0)
(-0.0202204 -0.000623942 0)
(-0.0190797 -0.000659025 0)
(-0.0178927 -0.000678678 0)
(-0.0166844 -0.000685155 0)
(-0.0154758 -0.000680618 0)
(-0.0142844 -0.000667083 0)
(-0.0131241 -0.000646388 0)
(-0.0120059 -0.000620164 0)
(-0.0109379 -0.000589855 0)
(-0.00992602 -0.000556706 0)
(-0.00897425 -0.000521789 0)
(-0.00808488 -0.000486 0)
(-0.00725878 -0.000450084 0)
(-0.00649563 -0.000414635 0)
(-0.00579416 -0.000380119 0)
(-0.00515239 -0.000346891 0)
(-0.0045678 -0.000315213 0)
(-0.00403748 -0.000285266 0)
(-0.00355823 -0.000257172 0)
(-0.00312674 -0.000230993 0)
(-0.0027396 -0.000206751 0)
(-0.00239341 -0.000184428 0)
(-0.00208484 -0.000163979 0)
(-0.00181065 -0.000145333 0)
(-0.00156775 -0.000128414 0)
(-0.00135312 -0.00011313 0)
(-0.00116406 -9.94018e-05 0)
(-0.000997782 -8.71669e-05 0)
(-0.000851859 -7.63714e-05 0)
(-0.000723988 -6.74617e-05 0)
(-0.000609608 -6.00576e-05 0)
(-0.803959 0.053262 0)
(-0.910336 0.0533912 0)
(-1.01819 0.0521949 0)
(-1.1093 0.0481217 0)
(-1.18387 0.0409589 0)
(-1.242 0.0314581 0)
(-1.28319 0.0205101 0)
(-1.30661 0.00867826 0)
(-1.31145 -0.00346999 0)
(-1.29709 -0.0158399 0)
(-1.26342 -0.0278798 0)
(-1.21118 -0.0390731 0)
(-1.14195 -0.0489356 0)
(-1.05814 -0.0570797 0)
(-0.962775 -0.0632733 0)
(-0.859201 -0.0674798 0)
(-0.750724 -0.0698705 0)
(-0.640258 -0.0708092 0)
(-0.53004 -0.0708069 0)
(-0.421489 -0.0704244 0)
(-0.315157 -0.0701406 0)
(-0.210675 -0.0705758 0)
(-0.107972 -0.0709254 0)
(-0.00895499 -0.0698775 0)
(0.0927983 -0.0674067 0)
(0.198246 -0.0667082 0)
(0.301381 -0.0654366 0)
(0.402797 -0.0632489 0)
(0.500546 -0.0598476 0)
(0.592251 -0.0550883 0)
(0.675376 -0.0489861 0)
(0.747562 -0.0417129 0)
(0.806909 -0.033568 0)
(0.85218 -0.0249291 0)
(0.882876 -0.0161971 0)
(0.899196 -0.00777364 0)
(0.901995 0.000127707 0)
(0.892531 0.00726595 0)
(0.87208 0.013773 0)
(0.841975 0.019508 0)
(0.803506 0.0244988 0)
(0.757811 0.0287902 0)
(0.7059 0.0324055 0)
(0.648736 0.0353303 0)
(0.587335 0.0375382 0)
(0.522834 0.0389394 0)
(0.456516 0.0394999 0)
(0.389832 0.0393958 0)
(0.324404 0.0389 0)
(0.261555 0.038295 0)
(0.202503 0.0374859 0)
(0.148066 0.0359101 0)
(0.0980383 0.0339936 0)
(0.0517869 0.0322792 0)
(0.00919592 0.03108 0)
(-0.03492 0.0303127 0)
(-0.0818162 0.0313867 0)
(-0.12953 0.0330123 0)
(-0.180925 0.0349569 0)
(-0.236383 0.0368945 0)
(-0.295603 0.0384557 0)
(-0.35747 0.0392515 0)
(-0.420206 0.0389407 0)
(-0.481564 0.0372885 0)
(-0.539073 0.0341994 0)
(-0.590285 0.0297223 0)
(-0.63302 0.0240322 0)
(-0.665534 0.0173959 0)
(-0.686639 0.0101288 0)
(-0.695733 0.00256253 0)
(-0.692731 -0.00502243 0)
(-0.677944 -0.0123922 0)
(-0.652036 -0.0193723 0)
(-0.615853 -0.0258509 0)
(-0.570325 -0.0317595 0)
(-0.516418 -0.0370511 0)
(-0.455118 -0.0416764 0)
(-0.387448 -0.0455663 0)
(-0.314507 -0.0486288 0)
(-0.237422 -0.0507538 0)
(-0.156977 -0.0521255 0)
(-0.0771222 -0.0529817 0)
(-0.00238531 -0.0518846 0)
(0.0718766 -0.0480662 0)
(0.14337 -0.0441009 0)
(0.205632 -0.0386953 0)
(0.258864 -0.0322967 0)
(0.301249 -0.0250427 0)
(0.33187 -0.0172456 0)
(0.350226 -0.00924414 0)
(0.356235 -0.00128111 0)
(0.35075 0.00568168 0)
(0.334896 0.0122005 0)
(0.30992 0.0175564 0)
(0.277848 0.0214864 0)
(0.240877 0.023777 0)
(0.200721 0.0242532 0)
(0.160198 0.0245062 0)
(0.123821 0.022455 0)
(0.0939647 0.0186264 0)
(0.0714671 0.0135018 0)
(0.0573155 0.0074878 0)
(0.0520542 0.00101581 0)
(0.0556924 -0.00528094 0)
(0.0678899 -0.0109995 0)
(0.0877785 -0.0155974 0)
(0.114386 -0.0185264 0)
(0.146008 -0.0196417 0)
(0.177931 -0.0195609 0)
(0.206545 -0.0174561 0)
(0.230221 -0.0136596 0)
(0.246792 -0.00851718 0)
(0.254786 -0.002525 0)
(0.253478 0.00374374 0)
(0.243053 0.00972338 0)
(0.224412 0.0149194 0)
(0.199153 0.0188966 0)
(0.169353 0.0214134 0)
(0.137139 0.0222849 0)
(0.104367 0.0220648 0)
(0.0736902 0.0212801 0)
(0.0470739 0.0190309 0)
(0.0245164 0.0162954 0)
(0.00690145 0.013985 0)
(-0.008457 0.0110619 0)
(-0.0221513 0.00984471 0)
(-0.0333273 0.00922855 0)
(-0.0445435 0.00954891 0)
(-0.0565639 0.0105531 0)
(-0.0704006 0.0119997 0)
(-0.086641 0.0136551 0)
(-0.105445 0.0153655 0)
(-0.126598 0.0169502 0)
(-0.149694 0.0182684 0)
(-0.174233 0.0192489 0)
(-0.199709 0.0198815 0)
(-0.22567 0.0201914 0)
(-0.251733 0.0202072 0)
(-0.27756 0.019932 0)
(-0.302797 0.019321 0)
(-0.32699 0.018277 0)
(-0.34951 0.0166577 0)
(-0.369498 0.0142957 0)
(-0.385896 0.0110453 0)
(-0.397399 0.00681516 0)
(-0.40279 0.00159941 0)
(-0.400749 -0.00458699 0)
(-0.390172 -0.0115152 0)
(-0.3703 -0.0189223 0)
(-0.34088 -0.0264383 0)
(-0.302061 -0.0336534 0)
(-0.25468 -0.0402216 0)
(-0.19999 -0.0457549 0)
(-0.138503 -0.0500874 0)
(-0.0736314 -0.0535347 0)
(-0.00718351 -0.0552463 0)
(0.0609969 -0.0556347 0)
(0.128823 -0.0550176 0)
(0.194799 -0.0533947 0)
(0.257377 -0.0509077 0)
(0.316623 -0.0475482 0)
(0.369842 -0.0434737 0)
(0.419099 -0.0384409 0)
(0.458262 -0.0328156 0)
(0.491478 -0.0259677 0)
(0.518382 -0.0185819 0)
(0.531642 -0.0102705 0)
(0.536635 -0.00134441 0)
(0.529509 0.00783052 0)
(0.51202 0.017493 0)
(0.483011 0.0269702 0)
(0.443841 0.03593 0)
(0.395269 0.0439722 0)
(0.338333 0.0507286 0)
(0.275177 0.0559484 0)
(0.208759 0.0592481 0)
(0.141085 0.0605421 0)
(0.0746446 0.0598227 0)
(0.0105091 0.0571875 0)
(-0.0498479 0.0525987 0)
(-0.10389 0.0466538 0)
(-0.150316 0.0395617 0)
(-0.188154 0.0316782 0)
(-0.216965 0.0233468 0)
(-0.236544 0.0149146 0)
(-0.247063 0.00667481 0)
(-0.248993 -0.00104801 0)
(-0.243064 -0.00790982 0)
(-0.230307 -0.0136892 0)
(-0.211974 -0.0182021 0)
(-0.189787 -0.0213623 0)
(-0.165297 -0.0231328 0)
(-0.139857 -0.0235611 0)
(-0.114803 -0.0227717 0)
(-0.0912993 -0.0209686 0)
(-0.0702994 -0.018421 0)
(-0.0523973 -0.0154186 0)
(-0.0378697 -0.0122391 0)
(-0.0267392 -0.00912752 0)
(-0.0188283 -0.006281 0)
(-0.0137598 -0.00382667 0)
(-0.0110578 -0.00183324 0)
(-0.010206 -0.000310591 0)
(-0.0107001 0.00076597 0)
(-0.0120842 0.00144958 0)
(-0.0139734 0.00180746 0)
(-0.016061 0.00191103 0)
(-0.0181151 0.00182814 0)
(-0.019976 0.00161817 0)
(-0.0215465 0.00132897 0)
(-0.0227748 0.000998349 0)
(-0.0236393 0.000656606 0)
(-0.0241421 0.000325478 0)
(-0.0243045 1.88503e-05 0)
(-0.0241592 -0.000253635 0)
(-0.0237463 -0.00048833 0)
(-0.0231073 -0.000683781 0)
(-0.0222842 -0.000840749 0)
(-0.0213169 -0.000961466 0)
(-0.0202421 -0.00104905 0)
(-0.019093 -0.00110712 0)
(-0.0178988 -0.00113946 0)
(-0.0166843 -0.00114984 0)
(-0.0154707 -0.00114189 0)
(-0.0142752 -0.00111897 0)
(-0.0131117 -0.00108413 0)
(-0.0119911 -0.00104011 0)
(-0.0109213 -0.0009893 0)
(-0.0099083 -0.000933788 0)
(-0.00895586 -0.000875364 0)
(-0.00806624 -0.000815528 0)
(-0.00724023 -0.000755499 0)
(-0.00647743 -0.000696261 0)
(-0.00577653 -0.000638589 0)
(-0.00513548 -0.000583079 0)
(-0.00455172 -0.000530171 0)
(-0.0040223 -0.000480171 0)
(-0.003544 -0.000433269 0)
(-0.00311348 -0.000389569 0)
(-0.00272732 -0.000349094 0)
(-0.00238209 -0.000311814 0)
(-0.00207446 -0.000277654 0)
(-0.00180116 -0.000246507 0)
(-0.0015591 -0.000218241 0)
(-0.00134528 -0.000192709 0)
(-0.00115699 -0.000169771 0)
(-0.000991446 -0.000149297 0)
(-0.000846341 -0.000131194 0)
(-0.000719253 -0.000115858 0)
(-0.000607737 -0.000102736 0)
(-0.797092 0.0836001 0)
(-0.912012 0.0766971 0)
(-1.02024 0.0695028 0)
(-1.11204 0.0613918 0)
(-1.18741 0.0513913 0)
(-1.24621 0.0394884 0)
(-1.2879 0.0258472 0)
(-1.31159 0.0108137 0)
(-1.31657 -0.00485767 0)
(-1.30221 -0.0212158 0)
(-1.2683 -0.0374686 0)
(-1.21558 -0.0528634 0)
(-1.14569 -0.0666782 0)
(-1.06106 -0.0783087 0)
(-0.964812 -0.087358 0)
(-0.860376 -0.093702 0)
(-0.75115 -0.0975134 0)
(-0.640121 -0.0992389 0)
(-0.529575 -0.0995268 0)
(-0.420916 -0.0991066 0)
(-0.314637 -0.0986126 0)
(-0.210361 -0.0984799 0)
(-0.107542 -0.0991734 0)
(-0.00794175 -0.0989788 0)
(0.0937876 -0.0970472 0)
(0.199015 -0.0966989 0)
(0.302496 -0.0955137 0)
(0.404418 -0.0929093 0)
(0.502782 -0.0884076 0)
(0.595133 -0.0817586 0)
(0.678857 -0.0729638 0)
(0.751525 -0.0622742 0)
(0.811184 -0.0501456 0)
(0.856572 -0.0371632 0)
(0.887194 -0.0239517 0)
(0.903272 -0.0110921 0)
(0.905697 0.000932509 0)
(0.89585 0.0118418 0)
(0.875027 0.0218212 0)
(0.84452 0.0306445 0)
(0.80567 0.0383727 0)
(0.759615 0.045087 0)
(0.707349 0.0508292 0)
(0.649813 0.0555714 0)
(0.588009 0.0592207 0)
(0.523081 0.0616545 0)
(0.456355 0.0627992 0)
(0.389331 0.0627287 0)
(0.32361 0.0616279 0)
(0.26066 0.0596016 0)
(0.201514 0.0573298 0)
(0.146837 0.0547719 0)
(0.0967856 0.0518626 0)
(0.0507618 0.0492432 0)
(0.0084752 0.0475267 0)
(-0.035057 0.0467403 0)
(-0.0813519 0.0485046 0)
(-0.128814 0.0513366 0)
(-0.180122 0.054802 0)
(-0.235694 0.0582902 0)
(-0.295239 0.0611357 0)
(-0.357624 0.0626795 0)
(-0.421025 0.0623642 0)
(-0.483125 0.0598154 0)
(-0.541375 0.0548885 0)
(-0.593255 0.0476764 0)
(-0.636524 0.0384791 0)
(-0.669405 0.0277461 0)
(-0.690694 0.0160048 0)
(-0.6998 0.00380658 0)
(-0.696668 -0.00840535 0)
(-0.681644 -0.02023 0)
(-0.655428 -0.0314028 0)
(-0.618895 -0.0417554 0)
(-0.572995 -0.0511929 0)
(-0.518698 -0.0596549 0)
(-0.456985 -0.067075 0)
(-0.388866 -0.0733526 0)
(-0.315427 -0.0783434 0)
(-0.237842 -0.0818733 0)
(-0.156976 -0.0839697 0)
(-0.0764514 -0.0849212 0)
(-0.000567756 -0.0831097 0)
(0.0744575 -0.077494 0)
(0.146408 -0.0710106 0)
(0.209289 -0.0622704 0)
(0.262979 -0.0518515 0)
(0.305682 -0.0400323 0)
(0.336436 -0.0273187 0)
(0.354733 -0.0142666 0)
(0.360414 -0.00142969 0)
(0.354479 0.0101815 0)
(0.33807 0.0208313 0)
(0.312313 0.0295844 0)
(0.279343 0.0360278 0)
(0.241384 0.0398422 0)
(0.20055 0.0408044 0)
(0.159278 0.0402959 0)
(0.121822 0.0367868 0)
(0.0911545 0.0303876 0)
(0.0681027 0.0218923 0)
(0.0536461 0.0119478 0)
(0.0483769 0.00128596 0)
(0.0523022 -0.00915402 0)
(0.0650599 -0.0186118 0)
(0.0857989 -0.0262333 0)
(0.113441 -0.0311857 0)
(0.146001 -0.0331746 0)
(0.178894 -0.0327707 0)
(0.208558 -0.0291204 0)
(0.233068 -0.0226752 0)
(0.250204 -0.0140249 0)
(0.258435 -0.00399223 0)
(0.257023 0.00646059 0)
(0.246179 0.0163883 0)
(0.226849 0.0249659 0)
(0.20072 0.0314821 0)
(0.169953 0.0355343 0)
(0.136873 0.0369341 0)
(0.10356 0.036161 0)
(0.0723079 0.0342909 0)
(0.0451845 0.0304282 0)
(0.0226588 0.0258013 0)
(0.00509934 0.0217601 0)
(-0.00987424 0.0172363 0)
(-0.0228759 0.0151316 0)
(-0.0335627 0.0141832 0)
(-0.044299 0.014759 0)
(-0.0559967 0.0164896 0)
(-0.0696682 0.0189826 0)
(-0.0858747 0.0218325 0)
(-0.104756 0.0247179 0)
(-0.126082 0.0273363 0)
(-0.149406 0.0294744 0)
(-0.174185 0.0310348 0)
(-0.199885 0.032019 0)
(-0.226041 0.0324841 0)
(-0.252281 0.0324883 0)
(-0.278293 0.0320409 0)
(-0.303753 0.0310656 0)
(-0.328239 0.0293927 0)
(-0.351137 0.0267754 0)
(-0.371585 0.0229262 0)
(-0.388499 0.0175939 0)
(-0.400519 0.0106272 0)
(-0.406355 0.00205528 0)
(-0.404645 -0.00814496 0)
(-0.394206 -0.019524 0)
(-0.374235 -0.0316238 0)
(-0.344455 -0.0438163 0)
(-0.30504 -0.0554255 0)
(-0.256852 -0.065868 0)
(-0.201232 -0.0745471 0)
(-0.138894 -0.0811922 0)
(-0.07305 -0.0861623 0)
(-0.0055887 -0.0884651 0)
(0.0633013 -0.0886812 0)
(0.131727 -0.0872277 0)
(0.198209 -0.0841884 0)
(0.261213 -0.0797691 0)
(0.320809 -0.0739713 0)
(0.374351 -0.0669842 0)
(0.423858 -0.058486 0)
(0.463258 -0.0489295 0)
(0.496591 -0.0375553 0)
(0.523437 -0.0252359 0)
(0.536497 -0.0116655 0)
(0.54105 0.00277637 0)
(0.533412 0.0171202 0)
(0.515205 0.0319565 0)
(0.485331 0.0460819 0)
(0.445223 0.0589919 0)
(0.395734 0.0701017 0)
(0.337968 0.0789518 0)
(0.274035 0.0852591 0)
(0.206965 0.0885994 0)
(0.138839 0.0890221 0)
(0.0720619 0.0866966 0)
(0.00761795 0.0818212 0)
(-0.0529669 0.0744079 0)
(-0.107139 0.0652772 0)
(-0.15367 0.0547473 0)
(-0.191557 0.0433261 0)
(-0.220356 0.0314722 0)
(-0.23986 0.0196584 0)
(-0.250161 0.00820537 0)
(-0.251799 -0.00251286 0)
(-0.245567 -0.0119192 0)
(-0.232382 -0.0198505 0)
(-0.213535 -0.0260402 0)
(-0.190792 -0.0303553 0)
(-0.165732 -0.0327437 0)
(-0.139739 -0.0332657 0)
(-0.114189 -0.0320888 0)
(-0.0902912 -0.0295003 0)
(-0.0690237 -0.0258743 0)
(-0.0509817 -0.0216185 0)
(-0.0364317 -0.01712 0)
(-0.025379 -0.0127265 0)
(-0.0176193 -0.00871429 0)
(-0.0127465 -0.00526453 0)
(-0.0102577 -0.00247042 0)
(-0.0096155 -0.000343369 0)
(-0.010301 0.00115418 0)
(-0.0118486 0.00209839 0)
(-0.0138699 0.00258568 0)
(-0.0160576 0.00271754 0)
(-0.0181829 0.00258987 0)
(-0.0200906 0.00228608 0)
(-0.0216884 0.00187312 0)
(-0.0229285 0.00140413 0)
(-0.0237928 0.00092138 0)
(-0.0242874 0.000454882 0)
(-0.0244366 2.36792e-05 0)
(-0.024275 -0.000359295 0)
(-0.0238443 -0.00068835 0)
(-0.0231875 -0.000961906 0)
(-0.0223473 -0.00118125 0)
(-0.0213642 -0.00134965 0)
(-0.0202751 -0.00147155 0)
(-0.0191135 -0.00155207 0)
(-0.0179084 -0.00159658 0)
(-0.0166847 -0.00161038 0)
(-0.0154635 -0.00159855 0)
(-0.0142619 -0.00156582 0)
(-0.0130937 -0.00151647 0)
(-0.0119694 -0.00145434 0)
(-0.010897 -0.00138278 0)
(-0.00988225 -0.0013047 0)
(-0.00892884 -0.0012226 0)
(-0.00803887 -0.00113857 0)
(-0.007213 -0.00105433 0)
(-0.00645073 -0.000971241 0)
(-0.00575068 -0.000890396 0)
(-0.00511072 -0.000812612 0)
(-0.00452822 -0.000738493 0)
(-0.00400017 -0.00066846 0)
(-0.00352332 -0.000602783 0)
(-0.00309426 -0.000541603 0)
(-0.00270955 -0.000484959 0)
(-0.00236576 -0.000432807 0)
(-0.00205952 -0.000385037 0)
(-0.00178756 -0.000341485 0)
(-0.00154679 -0.000301969 0)
(-0.00133418 -0.000266271 0)
(-0.00114704 -0.000234196 0)
(-0.000982598 -0.000205553 0)
(-0.000838623 -0.000180186 0)
(-0.000712642 -0.000158351 0)
(-0.000603225 -0.000139465 0)
(-0.796726 0.12588 0)
(-0.916065 0.112384 0)
(-1.02436 0.098952 0)
(-1.11652 0.0850836 0)
(-1.19249 0.0700325 0)
(-1.25194 0.0533474 0)
(-1.29424 0.0348757 0)
(-1.31834 0.0147359 0)
(-1.32358 -0.00633903 0)
(-1.30933 -0.0283196 0)
(-1.27517 -0.050203 0)
(-1.22188 -0.0709553 0)
(-1.15109 -0.0895704 0)
(-1.06535 -0.105197 0)
(-0.967875 -0.11727 0)
(-0.862223 -0.125603 0)
(-0.751927 -0.130425 0)
(-0.64008 -0.132342 0)
(-0.529025 -0.132229 0)
(-0.420172 -0.131071 0)
(-0.313956 -0.129768 0)
(-0.209933 -0.128991 0)
(-0.107229 -0.129182 0)
(-0.0072494 -0.129463 0)
(0.0945395 -0.128129 0)
(0.199669 -0.127986 0)
(0.303648 -0.126713 0)
(0.406308 -0.123478 0)
(0.50557 -0.117619 0)
(0.598868 -0.108791 0)
(0.683471 -0.0970062 0)
(0.756845 -0.0826264 0)
(0.816966 -0.066298 0)
(0.862534 -0.0488425 0)
(0.89306 -0.0311289 0)
(0.908799 -0.0139568 0)
(0.910737 0.00202688 0)
(0.900382 0.0165085 0)
(0.879032 0.0296411 0)
(0.847983 0.0411792 0)
(0.808639 0.0512555 0)
(0.762127 0.0600098 0)
(0.709417 0.0675189 0)
(0.651416 0.0737577 0)
(0.589104 0.0786057 0)
(0.523623 0.0818883 0)
(0.456329 0.0834657 0)
(0.388772 0.0833227 0)
(0.322587 0.0815896 0)
(0.25928 0.0785208 0)
(0.200022 0.0745573 0)
(0.14535 0.0704887 0)
(0.0953177 0.0667535 0)
(0.0495501 0.0633952 0)
(0.00769239 0.0612139 0)
(-0.0350807 0.0604161 0)
(-0.0805878 0.062735 0)
(-0.127664 0.0665944 0)
(-0.178828 0.0713716 0)
(-0.234547 0.0761972 0)
(-0.294533 0.0801404 0)
(-0.357623 0.0823067 0)
(-0.421923 0.0819576 0)
(-0.485024 0.0786096 0)
(-0.54427 0.0720896 0)
(-0.597045 0.0625423 0)
(-0.641031 0.0503857 0)
(-0.674402 0.0362336 0)
(-0.695943 0.0207982 0)
(-0.705073 0.0048159 0)
(-0.701781 -0.0111303 0)
(-0.686461 -0.0265115 0)
(-0.659858 -0.0409936 0)
(-0.62289 -0.0543707 0)
(-0.57653 -0.0665356 0)
(-0.521756 -0.0774264 0)
(-0.459539 -0.0869718 0)
(-0.390873 -0.0950534 0)
(-0.316829 -0.101492 0)
(-0.238598 -0.106067 0)
(-0.157133 -0.108657 0)
(-0.0757784 -0.109515 0)
(0.00143398 -0.107092 0)
(0.0774386 -0.100132 0)
(0.150038 -0.0916423 0)
(0.213705 -0.0803056 0)
(0.267991 -0.0667748 0)
(0.311113 -0.0514524 0)
(0.342054 -0.0349924 0)
(0.360296 -0.0181167 0)
(0.365608 -0.00156565 0)
(0.359145 0.0134269 0)
(0.342063 0.0271496 0)
(0.315371 0.0384125 0)
(0.281332 0.0467102 0)
(0.24222 0.051662 0)
(0.200379 0.0530706 0)
(0.158157 0.0516945 0)
(0.119562 0.0471688 0)
(0.0878731 0.0389235 0)
(0.0641298 0.0280008 0)
(0.0492777 0.0152405 0)
(0.0439648 0.001563 0)
(0.0482003 -0.0118108 0)
(0.0616004 -0.0239263 0)
(0.0833126 -0.0336941 0)
(0.112143 -0.0400983 0)
(0.145853 -0.04274 0)
(0.179926 -0.0420526 0)
(0.210808 -0.037312 0)
(0.236311 -0.0290154 0)
(0.254133 -0.0179286 0)
(0.262666 -0.00510151 0)
(0.261164 0.00822743 0)
(0.249869 0.0208631 0)
(0.229772 0.0317524 0)
(0.202666 0.040002 0)
(0.170829 0.0451033 0)
(0.136723 0.0469047 0)
(0.102681 0.0457649 0)
(0.0708467 0.0427995 0)
(0.0432202 0.0380082 0)
(0.0206599 0.0321158 0)
(0.00317041 0.0268342 0)
(-0.01139 0.021344 0)
(-0.0236665 0.0185702 0)
(-0.0338039 0.0173785 0)
(-0.0440076 0.0180918 0)
(-0.0553307 0.0202754 0)
(-0.0687931 0.0234456 0)
(-0.0849484 0.0270749 0)
(-0.103909 0.0307069 0)
(-0.125414 0.0339622 0)
(-0.148971 0.0365897 0)
(-0.173994 0.0384814 0)
(-0.199916 0.0396523 0)
(-0.226262 0.0401855 0)
(-0.252668 0.0401647 0)
(-0.278849 0.0396106 0)
(-0.304513 0.0384346 0)
(-0.329273 0.036428 0)
(-0.352535 0.0332834 0)
(-0.373437 0.0286411 0)
(-0.390882 0.0221815 0)
(-0.403433 0.0137097 0)
(-0.409755 0.00327518 0)
(-0.408487 -0.0092106 0)
(-0.398309 -0.0231543 0)
(-0.378383 -0.0380075 0)
(-0.348404 -0.0529971 0)
(-0.30856 -0.067292 0)
(-0.259748 -0.0801594 0)
(-0.203336 -0.0909073 0)
(-0.140227 -0.0991366 0)
(-0.0735578 -0.105186 0)
(-0.00521235 -0.108125 0)
(0.0643589 -0.108537 0)
(0.133348 -0.106866 0)
(0.200297 -0.103293 0)
(0.263697 -0.0980764 0)
(0.323625 -0.0912302 0)
(0.377493 -0.0829866 0)
(0.427302 -0.0729644 0)
(0.467048 -0.0616605 0)
(0.50071 -0.0482182 0)
(0.527844 -0.033527 0)
(0.541286 -0.017245 0)
(0.546058 0.000243914 0)
(0.538468 0.0178649 0)
(0.520194 0.0362786 0)
(0.490116 0.0540728 0)
(0.449602 0.0706296 0)