/*--------------------------------*- C++ -*----------------------------------*\
| =========                 |                                                 |
| \\      /  F ield         | OpenFOAM: The Open Source CFD Toolbox           |
|  \\    /   O peration     | Version:  v1912                                 |
|   \\  /    A nd           | Website:  www.openfoam.com                      |
|    \\/     M anipulation  |                                                 |
\*---------------------------------------------------------------------------*/
FoamFile
{
    version     2.0;
    format      ascii;
    class       volScalarField;
    location    "80";
    object      p_rgh;
}
// * * * * * * * * * * * * * * * * * * * * * * * * * * * * * * * * * * * * * //

dimensions      [1 -1 -2 0 0 0 0];


internalField   nonuniform List<scalar> 
114144
(
-335067
-554091
-673730
-747694
-801117
-799379
-781712
-743442
-686129
-612427
-525664
-429475
-327670
-223592
-119786
-17972.1
80866.2
176192
267467
353951
434415
506923
568855
617128
648578
660562
653055
620071
567316
496668
412374
319484
223416
129371
41765
-35439.4
-100368
-152007
-190801
-218008
-235403
-244970
-248687
-248592
-247347
-244634
-240830
-236545
-229365
-224732
-221394
-218656
-215993
-212746
-207952
-200287
-188217
-170245
-145194
-112443
-72125
-25225.5
26431.6
80452.5
133735
183114
225653
258968
281490
292315
292627
282240
262006
235907
205700
173445
140921
109412
79703.7
52121.6
26618.4
2974.32
-19066.1
-39755.6
-59196.7
-77260.3
-93613.5
-107763
-119142
-127208
-131609
-131979
-129674
-125092
-113340
-101372
-87906.1
-74517
-61472.3
-49522.6
-39002.7
-30107.8
-22817.4
-16963.7
-12278.6
-8452.4
-5179.02
-2188.53
736.274
3755.38
6974.44
10444.7
14177.7
18156.7
22284.1
26464.5
30549.3
34367
37710.4
40365.6
42088.3
42767.2
42075.1
40484.9
37556.6
33300.4
28288.5
22909.3
17370.6
12082
7282.85
3160.73
-215.027
-2874.52
-4933.82
-6560.56
-7934.77
-9219.67
-10534.5
-11940.1
-13424.3
-14916.2
-16299.1
-17422.9
-18166.4
-18434.3
-18163.9
-17368.8
-16070.5
-14324.7
-12363.2
-10223.6
-8010.01
-5512.08
-3151.98
-842.485
1404.11
3568.89
5658.55
7651.24
9558.52
11310.1
12951.4
14322
15568.4
16394.4
16994
17205.7
17095.5
16617.9
15771.8
14587.6
13128.1
11403.2
9451.62
7314.48
5062.72
2733.34
300.177
-2074.91
-4350.74
-6473.12
-8390.23
-10052.7
-11426.9
-12497
-13252.6
-13698.4
-13840.4
-13724.4
-13370.7
-12803.9
-12045.3
-11126.6
-10059.3
-8871.01
-7581.49
-6197.38
-4750.97
-3247.58
-1714.64
-175.175
1360.92
2867.47
4328.86
5691.87
6954.16
8080.94
9056.62
9861.66
10479.6
10895.6
11100.8
11082.6
10857
10415.1
9762.87
8913.88
7883.41
6693.9
5374.21
3957.88
2483.41
980.264
-488.11
-1881.79
-3144.35
-4236.88
-5120.94
-5768.66
-6155.52
-6265.56
-6117.87
-5726.24
-5121.03
-4342.85
-3439.32
-2461.79
-1455.62
-465.469
478.637
1353.96
2148
2849.43
3467.89
4009.42
4488.46
4914.66
5298.52
5647.07
-255123
-439855
-546748
-613484
-662741
-661128
-646667
-615252
-568166
-507586
-436159
-356688
-272247
-185535
-98637.5
-13064.6
70188.1
150424
226908
298781
364889
423622
472948
510587
534275
542357
534633
506811
463409
406052
338233
263841
187003
111665
41471.7
-21567.9
-75036.5
-118150
-151358
-175547
-191994
-202166
-207569
-209682
-209812
-208770
-207025
-204437
-198939
-194929
-191466
-188016
-184162
-179387
-172981
-164030
-151500
-134405
-111998
-83940.7
-50438.7
-12310.5
29015.1
71829.9
113699
152291
185440
211399
229026
237655
238169
230565
215162
194982
171276
145545
119147
93104.3
68096.7
44486.3
22365.6
1702.78
-17532.9
-35477.5
-52127.4
-67352.5
-80902
-92431.2
-101557
-107926
-111338
-111614
-109689
-106465
-96663.9
-87135.8
-76231.1
-65383.3
-54677.9
-44724
-35778.6
-28015.1
-21445.2
-15971.2
-11415.6
-7562.19
-4190.05
-1099.93
1873.46
4857.1
7939.56
11166.5
14550.8
18057.1
21642.7
25190.6
28575.6
31653.7
34256.1
36215.9
37343.5
37576.5
36646.3
35020.5
32294.7
28475.3
24057.1
19388
14601.6
10035.5
5867.79
2240.87
-796.916
-3272.14
-5275.53
-6934.08
-8379.89
-9729.18
-11062.1
-12413.5
-13762.6
-15056.7
-16161.7
-16998.4
-17462.2
-17487.1
-17031.7
-16118.4
-14778.8
-13045.4
-11140.2
-9096.39
-6983.35
-4600.86
-2337.32
-113.242
2060.33
4161.01
6190.44
8122.26
9964.68
11646.2
13212.9
14507.3
15678
16431.3
16944.9
17137
16989.6
16486.8
15628.3
14438.1
12978.4
11261.6
9318.96
7191.75
4949.67
2629.1
206.175
-2160.5
-4428.25
-6543.38
-8454.18
-10111
-11480.1
-12545.5
-13296.3
-13738.1
-13874.8
-13756.2
-13399.6
-12830.3
-12069.4
-11148.5
-10079.4
-8889.08
-7597.83
-6211.63
-4763.05
-3257.36
-1721.57
-179.052
1360.39
2870.47
4335.97
5702.81
6969.22
8099.82
9079.06
9887.23
10507.7
10925.7
11132.1
11114.8
10888.4
10444.9
9790.3
8938.1
7903.63
6709.44
5384.52
3962.55
2481.86
970.857
-503.839
-1903.43
-3171.33
-4268.52
-5156.14
-5806.18
-6193.96
-6303.04
-6153.01
-5757.55
-5147.28
-4363.1
-3453.1
-2469.12
-1457.03
-461.821
486.123
1364
2159.22
2860.64
3478.22
4018.35
4495.84
4920.64
5303.53
5650.09
-198610
-342338
-433799
-492968
-538508
-537393
-526583
-501958
-464510
-415931
-358250
-293398
-224005
-152313
-80022.5
-8451.41
61435.2
128856
192980
252910
307587
355664
395547
425526
443956
449798
442412
419345
384321
338463
283970
223768
161025
98814.7
39884.8
-13593.3
-59329.1
-97284.8
-127318
-149981
-166173
-176986
-183592
-187173
-188827
-188986
-188069
-186643
-182438
-179028
-175781
-172279
-168171
-163025
-156260
-147138
-134826
-118528
-97646.5
-71919.7
-41539.1
-7211.5
29827.5
68145.7
105590
140130
169870
193264
209284
217303
218032
211341
197619
179415
157922
134464
110263
86245.4
63048.5
41029.8
20308.9
902.81
-17193
-34032
-49617.4
-63816.4
-76400.8
-87065.1
-95475
-101330
-104465
-104754
-102868
-99954.4
-90817.1
-82099.1
-72010.4
-61958.7
-51999.7
-42695.1
-34283.1
-26927.6
-20646.1
-15357.4
-10907.9
-7108.48
-3764.08
-695.414
2248.67
5185.66
8198.68
11329.6
14591.7
17972.2
21390.8
24757.1
27949
30830.5
33243
35029.8
36015.1
36141.6
35157.9
33524.9
30832.5
27116.4
22824.7
18314.3
13701.1
9308.24
5302.13
1814.2
-1113.55
-3510.26
-5464.58
-7096.96
-8531.16
-9874.98
-11201.6
-12541.7
-13867
-15119.2
-16189.8
-16976.2
-17384.8
-17355.7
-16853.2
-15902.2
-14537.8
-12800.7
-10888.8
-8852.17
-6746.92
-4389.02
-2142.37
63.3142
2220.46
4307.39
6325.43
8248.21
10083.1
11758.7
13319.9
14609.6
15775.1
16521
17059.7
17213
17060.4
16546.9
15674.9
14474.7
13003.8
11274.5
9319.4
7178.47
4921.92
2586.75
151.011
-2228.62
-4507.33
-6631
-8547.48
-10206.8
-11575.6
-12638.6
-13384.3
-13819.3
-13951.6
-13825.2
-13462
-12886.7
-12119.9
-11194
-10120.4
-8925.71
-7630.75
-6240.26
-4787.31
-3277.02
-1735.53
-186.919
1359.28
2876.38
4350.13
5724.61
6999.29
8137.54
9123.92
9938.36
10564
10985.7
11194.1
11175.9
10948.8
10502.3
9842.72
8983.92
7941.23
6737.57
5402.2
3969.07
2476.19
949.531
-537.441
-1948.47
-3226.64
-4332.75
-5227.2
-5881.66
-6271.18
-6378.5
-6223.62
-5820.42
-5199.97
-4403.74
-3480.73
-2483.79
-1459.8
-454.433
501.236
1384.24
2181.79
2883.17
3498.93
4036.21
4510.55
4932.6
5313.45
5659.64
-153911
-257506
-331195
-381035
-422418
-421243
-413139
-394427
-365649
-328046
-283160
-232884
-178509
-121389
-62886
-4189.8
53700
109903
163464
213421
258768
298348
330892
355110
369807
374319
367839
348951
320270
282792
238341
189180
137756
86458.9
37486.5
-7591.89
-46628.6
-79442.7
-105976
-126584
-141893
-152707
-159906
-164377
-166901
-167950
-167837
-166854
-163937
-160959
-157773
-154071
-149566
-143907
-136642
-127224
-115051
-99569.2
-80382.6
-57358
-30711.6
-1057.27
30601.8
63092.6
94649.4
123628
148507
168061
181469
188222
188863
183292
171878
156520
138256
118136
97171.9
76147.1
55626.6
35963.1
17322.2
-207.509
-16537.4
-31669
-45560.9
-58083.7
-69048.9
-78223.3
-85362.1
-90260.1
-92821
-93029.2
-91257.9
-88867.1
-80794.8
-73453.1
-64772.8
-56118.7
-47475
-39315.2
-31837
-25184.6
-19386.7
-14393.8
-10097.2
-6356.36
-3022.43
45.0961
2967.77
5842.82
8741.6
11699
14721.7
17818.5
20893.7
23866.7
26627.6
29057
31018.6
32382.1
33005
32851.6
31715.4
30042.9
27437.3
23971.4
20009.6
15907
11736.5
7778.94
4166.11
1000.77
-1689.63
-3936.19
-5816.66
-7430.33
-8875.33
-10233.1
-11554
-12852.8
-14093.4
-15213.3
-16125.2
-16733
-16962.6
-16771.5
-16138.8
-15094.9
-13685.9
-11943.2
-10044.2
-8056.05
-6001.73
-3723.11
-1536.46
611.219
2716.77
4757.78
6732.89
8613.85
10406
12037.6
13553
14796.9
15917.3
16624.8
17093.5
17245.3
17063.3
16527.9
15640.3
14427.4
12945.7
11204.6
9240.09
7092.41
4829.91
2486.67
44.0233
-2345.17
-4632.84
-6764.03
-8685.79
-10347.1
-11715
-12774.7
-13514.5
-13939.3
-14061.1
-13926.4
-13554.3
-12970.3
-12195.1
-11262
-10181.8
-8980.58
-7680.1
-6283.28
-4823.79
-3306.65
-1756.62
-198.864
1357.49
2885.12
4371.27
5757.28
7044.4
8194.18
9191.33
10015.2
10648.7
11076.1
11287.9
11270.8
11041.4
10589.9
9922.67
9053.72
7998.45
6780.31
5428.97
3978.97
2467.82
916.876
-588.368
-2016.46
-3310.04
-4429.62
-5334.36
-5995.5
-6387.67
-6492.11
-6330.09
-5915.27
-5279.45
-4464.98
-3522.26
-2505.68
-1463.67
-442.955
524.391
1415.09
2216.03
2917.3
3530.2
4063.07
4532.55
4950.33
5328.23
5673.05
-120231
-191484
-249447
-291726
-330357
-330325
-325463
-312442
-291234
-262665
-227833
-187993
-144244
-97698.8
-49473.1
-621.187
47907.8
95208.5
140301
182228
220054
252784
279400
298921
310493
313721
307659
291807
268038
237208
200728
160346
117946
75390.3
34424.2
-4119.81
-37443.9
-65919.4
-89416.5
-108139
-122509
-133099
-140565
-145574
-148724
-150393
-150848
-150292
-148304
-145732
-142693
-138966
-134319
-128464
-121048
-111655
-99847.4
-85228.3
-67534.1
-46708.1
-22968.5
3148.55
30759.2
59102.2
86426.6
111440
132882
149736
161310
167171
167725
162847
152982
139543
123487
105692
87026.3
68174.9
49645.7
31775.9
14747.1
-1314.47
-16293.4
-30118.2
-42756.7
-54077.3
-63915.7
-72079.9
-78375.8
-82651.9
-84848.4
-84990.5
-83318.5
-81205.4
-73730.7
-67349.3
-59596.4
-51841.1
-44056.5
-36655
-29812.5
-23658.6
-18226.3
-13482.5
-9343.4
-5697.76
-2424.74
593.034
3459.87
6260.94
9060.62
11888.9
14758.1
17677.9
20540.1
23280.5
25792.9
27968.1
29682
30817.1
31248.2
30945.1
29727.4
28028.1
25449.4
22103.1
18291.6
14384.4
10435
6704.37
3309.36
337.24
-2194.49
-4321.54
-6121.08
-7685.74
-9104.57
-10448.8
-11759.3
-13043.4
-14257.2
-15326.9
-16190.5
-16728.1
-16878.9
-16607.9
-15902.4
-14797
-13344.1
-11584.6
-9668.86
-7684.84
-5638.18
-3394.82
-1231.79
889.387
2970.64
4991.5
6950.31
8819.04
10601.7
12226.6
13736.7
14976.4
16091
16789.9
17275.4
17392.1
17201
16651.9
15744.9
14513.7
13008.3
11241.2
9248.46
7070.71
4778.88
2406.44
-61.3389
-2475.14
-4783.84
-6932.01
-8865.96
-10533.6
-11902.4
-12958.7
-13690.1
-14101.2
-14211.7
-14064.2
-13679.1
-13083
-12296.2
-11352.9
-10264
-9053.95
-7746.1
-6340.91
-4872.71
-3346.51
-1785.1
-215.102
1354.84
2896.42
4399.21
5800.67
7104.46
8269.68
9281.26
10117.9
10761.9
11196.9
11413
11396.3
11164.7
10706.9
10029.5
9147.02
8074.96
6837.41
5464.71
3992.33
2457.5
872.133
-656.877
-2107.68
-3422.02
-4559.74
-5478.38
-6148.55
-6544.33
-6645.13
-6473.35
-6042.84
-5386.28
-4547.21
-3577.88
-2534.81
-1468.49
-427.059
556.02
1457
2262.31
2963.37
3572.25
4098.98
4561.75
4973.81
5347.59
5691.08
-100754
-150208
-194524
-229170
-263311
-263813
-260353
-250730
-234498
-212169
-184528
-152474
-116863
-78571.3
-38511.7
2397.7
43276.7
83247.5
121342
156635
188264
215375
237147
252842
261857
263986
258239
244709
224775
199169
169012
135667
100584
65205.4
30894.9
-2243.91
-30576.3
-55167.7
-75834.1
-92677.4
-105966
-116097
-123542
-128796
-132304
-134384
-135251
-135035
-133714
-131474
-128571
-124850
-120121
-114154
-106679
-97394.2
-85997.9
-72232.7
-55950.3
-37164.1
-16097
6781.76
30791.8
55226.4
78628.1
99934.8
118123
132373
142122
147015
147361
143013
134513
122830
108833
93241.6
76787.2
60056.8
43498
27426.2
12032.4
-2527.77
-16115.2
-28584.1
-39920.3
-49987.7
-58646.2
-65745.3
-71142.9
-74741.8
-76520.9
-76544
-74963.1
-73006.6
-66316.8
-60811.2
-54020
-47197.2
-40316.6
-33720.5
-27559.3
-21944.4
-16910.8
-12441.5
-8478.28
-4940.22
-1736.96
1223.56
4026.11
6741.81
9426.81
12105.4
14800.9
17506
20113.1
22574.2
24785.1
26647.9
28052.8
28898
29080.3
28577.6
27245.4
25500.7
22947.7
19744.6
16124.3
12465.7
8800.4
5361.88
2246.39
-480.602
-2812.9
-4794.73
-6500.45
-8012.51
-9406.87
-10738.6
-12034.9
-13291.4
-14459.4
-15456.7
-16217.1
-16637.5
-16664.5
-16272.8
-15461.6
-14271.7
-12764.2
-10984.9
-9055.27
-7085.83
-5061.08
-2871.85
-748.835
1330.83
3373.2
5359.78
7287.85
9129.21
10886.3
12487.8
13974.7
15192.4
16285.8
16965.3
17409.6
17527.1
17312.9
16740.7
15810
14557.4
13029.9
11239.8
9223.63
7021.86
4704.46
2303.41
-191.514
-2633.89
-4968.26
-7137.72
-9087.29
-10763.3
-12134.2
-13187.6
-13909.9
-14302.4
-14398.4
-14235.8
-13834.9
-13223.8
-12422.4
-11466.6
-10366.6
-9145.61
-7828.62
-6413.21
-4934.18
-3396.8
-1821.2
-235.849
1351.17
2910
4433.83
5854.71
7179.44
8364.13
9393.89
10246.6
10903.9
11348.6
11570.3
11554.2
11319.6
10853.8
10163.6
9264.16
8170.94
6908.96
5509.36
4009.1
2446.22
813.85
-743.453
-2222.6
-3563.21
-4723.95
-5660.19
-6341.81
-6742.2
-6838.26
-6654.33
-6204.03
-5521.21
-4650.89
-3647.75
-2570.99
-1473.78
-406.084
596.989
1510.81
2321.24
3021.95
3625.4
4144.09
4598.15
5002.63
5371.1
5712.45
-86942.9
-122065
-155636
-183452
-212580
-213328
-210539
-203076
-190304
-172507
-150231
-124120
-94830
-63054.1
-29538.5
4921.9
39520.9
73433.4
105722
135508
162004
184472
202253
214793
221683
222854
217324
205546
188624
167170
142080
114419
85302.9
55835.4
27073
-1588.29
-25548.1
-46703.4
-64786.7
-79829.4
-91986.9
-101519
-108754
-114050
-117739
-120073
-121232
-121324
-120455
-118511
-115762
-112105
-107388
-101426
-94015.6
-84950.1
-74034.4
-61119.9
-46147.6
-29182.5
-10446.7
9649.1
30598.6
51754.6
71850
90030.7
105464
117494
125661
129683
129807
125776
118355
108095
95791.1
82044.8
67475.4
52584.8
37764.4
23303.4
9390.91
-3800.62
-16125.7
-27367.2
-37540.9
-46505
-54137.8
-60320.8
-64950.5
-67970
-69386.7
-69282.6
-67770
-65825
-59962.7
-55075.4
-49077.3
-43018
-36888.9
-30971.2
-25394.3
-20253.6
-15583.3
-11377.9
-7597.39
-4184.9
-1074.03
1807.89
4529.92
7152.38
9725.12
12267.6
14809.3
17342.4
19742.3
21981.8
23957.1
25578.7
26746.9
27371
27363.3
26705
25280
23489.9
20936.1
17821.4
14321.9
10829.8
7365.46
4143.81
1246.76
-1275.61
-3431.12
-5270.46
-6872.14
-8314.41
-9667.24
-10977.8
-12262.1
-13508.4
-14661.1
-15617.6
-16339.3
-16689.9
-16634.9
-16154.7
-15257.7
-13990.4
-12421.6
-10609.9
-8653.48
-6675.75
-4652.36
-2497.83
-399.759
1652.01
3667.82
5632.69
7544.09
9374.51
11124.9
12723.8
14211.1
15430.6
16524.2
17203.1
17649.8
17747.3
17520.3
16928.6
15971.4
14692.1
13129.3
11300
9242.23
6998.15
4639.1
2195.83
-337.768
-2818.62
-5187.11
-7384.89
-9355.23
-11042.5
-12416.2
-13465.6
-14177.1
-14544.5
-14625.2
-14443.2
-14022.7
-13393
-12573.9
-11602.8
-10489.9
-9255.72
-7927.86
-6500.52
-5008.51
-3457.91
-1865.34
-261.497
1346.13
2925.53
4474.87
5919.19
7269.23
8477.47
9529.26
10401.4
11074.9
11531.4
11760
11744.8
11506.4
11031
10325.3
9405.44
8286.66
6995.06
5562.79
4029.06
2437
738.433
-848.482
-2361.74
-3734.44
-4923.32
-5881.07
-6576.69
-6982.8
-7073.27
-6874.52
-6400.07
-5685.2
-4776.71
-3732.18
-2614.17
-1479.2
-379.465
648.174
1577.38
2393.48
3093.66
3690.03
4198.47
4641.57
5036.59
5398.46
5737.34
-76228.7
-101670
-127068
-149127
-173327
-174166
-171712
-165662
-155348
-140906
-122708
-101214
-76916.9
-50360.5
-22154.8
7015.62
36419.2
65289.3
92730.7
117915
140128
158732
173197
183117
188229
188574
183188
172726
158174
140028
119013
95966.8
71741.8
47175.4
23067.4
-1722.6
-21898.9
-40008.8
-55729.2
-69052.3
-80053.7
-88888.6
-95773.4
-100957
-104682
-107145
-108491
-108793
-108338
-106598
-104002
-100445
-95799.5
-89916.2
-82649.7
-73868.6
-63466.8
-51384
-37632.3
-22318.3
-5661.12
11977.8
30262
48564.9
65768.5
81203.9
94200
104240
110957
114137
114031
110093
103569
94504.1
83650
71520.5
58634.9
45417.4
32204.3
19253.4
6745.36
-5139.36
-16263
-26326.4
-35392.7
-43309.6
-49971.5
-55286.8
-59186.1
-61646.3
-62700.6
-62443.3
-60966.5
-58998
-53936.6
-49561.2
-44280.7
-38918.5
-33485.7
-28205.4
-23185.8
-18504.5
-14193.4
-10255.1
-6665.44
-3388.95
-382.068
2409.27
5040.94
7561.73
10015.8
12414.8
14808.7
17171.4
19360.7
21382.9
23125.8
24508.3
25440.9
25843
25641.8
24820.9
23294.5
21447.1
18877.9
15834.4
12444
9107.74
5839.51
2836.04
165.581
-2143.71
-4105.7
-5791.26
-7278.46
-8642.84
-9949.54
-11235.2
-12506.6
-13741.4
-14878.8
-15796.3
-16463.6
-16734.3
-16584.9
-16002.1
-15005.5
-13649.5
-12011.7
-10160.2
-8179.26
-6188.44
-4167.72
-2051.27
16.5543
2035.55
4019.4
5957.02
7846.24
9660.39
11398.8
12990.6
14473
15689.7
16780.7
17454.5
17882.1
17983.6
17737.2
17121.7
16134.9
14826.8
13228.5
11360.5
9261.33
6973.39
4568.71
2077.04
-502.752
-3029.84
-5439.67
-7671.89
-9667.62
-11368.9
-12746.8
-13791.9
-14492.7
-14825.6
-14890.5
-14685.8
-14242.2
-13590.6
-12750.6
-11761.6
-10633.6
-9384.13
-8043.77
-6603.01
-5095.95
-3530.15
-1917.94
-292.391
1339.19
2942.83
4522.14
5993.93
7373.76
8609.78
9687.54
10582.7
11275.5
11746
11982.6
11968.6
11725.7
11239.1
10515.2
9571.28
8422.39
7095.81
5624.81
4051.26
2433.36
641.725
-971.735
-2525.72
-3936.77
-5159.15
-6142.48
-6854.83
-7267.78
-7351.62
-7135.48
-6632.44
-5879.46
-4925.43
-3831.45
-2664.15
-1484.12
-346.278
710.908
1657.54
2480.36
3179.36
3766.6
4262.32
4691.96
5075.27
5429.01
5764.5
-67501.3
-86183.8
-105404
-122741
-142416
-143257
-140973
-135878
-127350
-115440
-100396
-82541
-62239.6
-39912.6
-16056.5
8740.79
33822.9
58475.6
81851.2
103174
121795
137165
148859
156589
160206
159839
154533
145048
132355
116846
99116.3
79826.4
59625.6
39144.8
19069.5
-2116.57
-19293.4
-34718.1
-48283.7
-59979.1
-69827.7
-77906.2
-84343.2
-89301.8
-92953.2
-95446.3
-96897.4
-97339.7
-97256.3
-95658.9
-93214.5
-89789.8
-85267.1
-79525.4
-72465.9
-64019.8
-54153.7
-42877.7
-30260.4
-16439.5
-1629.44
13848.2
29829.1
45674.3
60369.1
73418.2
84280.3
92557.1
97961.8
100338
99878.7
96111.3
90196
82102.8
72468.8
61734
50332.6
38617.8
26872.2
15319
4123.49
-6532.33
-16527.4
-25489
-33526.9
-40477.1
-46247
-50767.5
-53996.5
-55938.2
-56646.9
-56224.3
-54755.4
-52764.1
-48404.4
-44448.4
-39785.6
-35033.2
-30216.9
-25510
-20999.5
-16747
-12778.1
-9102.85
-5708.16
-2577.56
312.528
3001.43
5532.88
7946.84
10281.1
12535
14796.1
17007.1
19013.4
20840.6
22382.4
23558
24286
24494
24121
23150.9
21526.6
19615.2
17011.2
14005.9
10688.8
7468.02
4357.91
1541.76
-925.253
-3027.43
-4802.08
-6325.76
-7687.69
-8962.29
-10214.5
-11472
-12735.3
-13971.8
-15111.8
-16009.4
-16667.8
-16876.4
-16649.6
-15974.9
-14882.5
-13434.6
-11719.6
-9814.98
-7801.9
-5789.63
-3755.26
-1668.29
375.124
2366.84
4324.06
6240.33
8114.69
9921.76
11659.4
13257.1
14749.8
15978.5
17080.1
17764
18193.6
18280.1
18021.5
17382.2
16362.5
15019
13373.9
11454.8
9301.58
6958.01
4497.1
1947.2
-688.482
-3270.9
-5730.31
-8003.92
-10029.9
-11747.6
-13130.2
-14169.3
-14849.4
-15155.3
-15196.5
-14964.4
-14493.5
-13816.5
-12952.3
-11942.6
-10797.6
-9530.9
-8176.42
-6721.08
-5196.9
-3614.01
-1979.58
-329.074
1329.69
2961.61
4575.35
6078.63
7492.87
8761.03
9868.84
10790.7
11505.9
11992.7
12238.8
12226.4
11978.2
11478.6
10733.8
9762.14
8578.49
7211.42
5695.26
4073.27
2399.36
558.832
-1111.61
-2715.26
-4171.46
-5433.02
-6446.29
-7178.3
-7599.29
-7675.64
-7439.34
-6902.98
-6105.45
-5098.07
-3946.02
-2720.8
-1487.95
-305.666
786.293
1752.81
2583.42
3279.56
3855.6
4335.76
4749.05
5118.19
5462.11
5793.72
-60171.2
-73992.9
-88529.4
-102039
-117727
-118530
-116327
-111895
-104691
-94723.3
-82153.4
-67202.2
-50132.9
-31265.4
-11001.4
10156.5
31627.6
52738.3
72690.7
90760
106357
119008
128375
134264
136620
135644
130356
121579
110335
96922
81836.9
65608.6
48723.2
31632.8
14783.8
-2857.01
-17516.1
-30550.5
-42147.7
-52308.7
-61024.4
-68313.5
-74235.6
-78886.2
-82379.7
-84825.5
-86315.2
-86847.3
-87082.7
-85587.3
-83294.6
-80027
-75668.2
-70116.7
-63311.3
-55235.3
-45914.4
-35415.4
-23851
-11382.4
1782.09
15349.6
29344.3
43063.8
55566.9
66532.3
75514.7
82217.7
86423.6
88026.1
87164.3
83508.5
78013.3
70697.7
62085.6
52556
42470.1
32115.4
21721.7
11473.5
1515.71
-7973.28
-16892
-24822.3
-31896.2
-37942.5
-42880.2
-46658.9
-49259.2
-50707.9
-51077.2
-50475.8
-48985.7
-46990.7
-43220.4
-39622.2
-35495.3
-31286.6
-27027.3
-22847.6
-18813.7
-14967.4
-11331.7
-7917.32
-4721.33
-1744.14
1019.71
3597.21
6020.49
8322.68
10534.9
12648.7
14777.5
16840.5
18685.7
20326.1
21681.9
22666.3
23204.6
23230.8
22694.2
21578
19853.5
17867
15210.8
12216.5
8947.74
5816.43
2843.24
201.387
-2064.29
-3965.39
-5531.37
-6885.7
-8112.45
-9287.36
-10478.5
-11706.1
-12963
-14207.7
-15359.1
-16259.7
-16895.2
-17054
-16748.4
-15976.3
-14779.3
-13229.5
-11427.4
-9460.52
-7407.42
-5377.75
-3317.31
-1261.15
756.141
2718.33
4646.67
6539.42
8397.46
10197
11934
13538.6
15042.8
16285.9
17400.8
18094.7
18515.1
18612.3
18338.7
17672.7
16618.4
15235.6
13540.5
11566.1
9353.69
6947.83
4422.91
1806.14
-894.791
-3541.63
-6059.02
-8381.21
-10442.6
-12179.5
-13568
-14599.8
-15246.3
-15535.3
-15543.3
-15279.4
-14776.8
-14070.4
-13178.9
-12145.6
-10981.7
-9696.01
-8325.77
-6855.05
-5311.77
-3709.92
-2050.95
-372.056
1316.9
2981.53
4634.16
6172.99
7626.4
8931.21
10073.3
11025.7
11766.7
12272.4
12529.3
12518.7
12264.5
11750.3
10981.7
9978.52
8755.34
7342.1
5774.17
4095.68
2356.51
467.303
-1269.7
-2931.51
-4439.97
-5746.73
-6794.6
-7549.46
-7979.54
-8047.48
-7788.38
-7213.81
-6364.94
-5295.82
-4076.38
-2783.93
-1489.79
-256.612
876.419
1865.05
2704.29
3394.93
3957.63
4419.08
4812.66
5164.8
5497.01
5823.77
-53880.3
-64120.5
-75079.3
-85506
-97779.3
-98536.6
-96357.7
-92395
-86190.5
-77733.4
-67127.2
-54517.2
-40085.8
-24070.9
-6793.81
11317.1
29759.1
47884.2
64944.6
80263.7
93306.1
103662
111068
115406
116694
115198
109872
101583
91453.3
79694
66730.6
52995.4
38847.7
24593.9
10426.4
-4054.67
-16411
-27291.1
-37083.5
-45801.6
-53415.8
-59901.4
-65264.6
-69547
-72818.3
-75156.4
-76631.7
-77211.6
-77724.5
-76292.9
-74154.5
-71066.4
-66905.7
-61583.7
-55069
-47387.9
-38614.2
-28859.6
-18270.7
-7025.72
4673.72
16551.3
28844
40727.8
51311
60457.5
67783.5
73079.3
76188.1
77046.3
75759.2
72115.4
66895.5
60183.6
52416.9
43923.8
35003.9
25883
16738.6
7712.3
-1075.94
-9454.93
-17317
-24314.6
-30488.7
-35692.9
-39856.4
-42944.7
-44956.4
-45937.2
-45974.6
-45185.1
-43649
-41678.2
-38373.3
-35084
-31414
-27687.2
-23928.1
-20231.4
-16639
-13182
-9863.89
-6707.87
-3713.78
-896.151
1733.4
4191.18
6500.24
8687.32
10777.9
12766.3
14757.8
16686.7
18386.5
19850.9
21044.2
21858.8
22226.5
22087.3
21398.1
20140.6
18315.2
16241.7
13515
10502.6
7253.76
4181.43
1318.85
-1167.4
-3240.28
-4928.61
-6287.48
-7460.89
-8537.72
-9602.58
-10726.8
-11923.8
-13181.2
-14447.5
-15627.6
-16564.1
-17175.7
-17314.9
-16936.7
-16068.6
-14762.8
-13102.4
-11202.5
-9161.96
-7058.98
-5013.25
-2907.66
-882.179
1112.02
3045.78
4946.94
6818.53
8664.19
10462
12206.2
13827.1
15353.9
16622.4
17761.1
18477
18904.4
18992.4
18708
18014.2
16923.1
15493.7
13740
11701.5
9420.75
6943.57
4345.48
1652.27
-1124.26
-3845.49
-6429.95
-8808.26
-10910
-12668.7
-14063.8
-15088.2
-15690.4
-15958.8
-15931.4
-15630.8
-15092.1
-14352.3
-13430.1
-12370.4
-11185.7
-9879.44
-8491.91
-7005.26
-5441.08
-3818.42
-2132.86
-421.991
1299.87
3002.32
4698.1
6276.72
7774.16
9120.33
10301.1
11288
12058.5
12585.7
12855
12846.6
12585.5
12055
11259.6
10221.1
8953.41
7488.17
5861.76
4119.2
2308.44
362.475
-1447.88
-3175.96
-4744.14
-6102.51
-7190.03
-7971.31
-8411.4
-8470.57
-8185.55
-7567.56
-6660.02
-5520.13
-4223.24
-2853.34
-1488.71
-198.164
983.51
1995.99
2843.4
3527.82
4073.26
4512.49
4882.39
5214.3
5532.6
5853.82
-48390.2
-55940.8
-64147.1
-72095.9
-81501.8
-82232.7
-80041.4
-76413.4
-70971.9
-63702.7
-54669.9
-43962.5
-31699.7
-18052.1
-3273.76
12271.7
28164.2
43764
58373.2
71360.9
82238.9
90653.3
96401.8
99428.7
99811.6
97872.2
92461.3
84476.5
75184
64709.8
53433.2
41721
29837.1
17961.6
5898.74
-5632.51
-15846.4
-24768.5
-32900.5
-40263.4
-46814
-52495.6
-57272.8
-61144.3
-64144.5
-66327.5
-67748.7
-68399.3
-69035.1
-67688.1
-65712.1
-62823.8
-58890.3
-53830
-47635.1
-40366.5
-32136.8
-23093
-13406.5
-3267.08
7130.88
17515.8
28358.4
38657
47555.4
55112.6
60977.1
65011.5
67112.4
67253.7
65527.3
61784.2
56714.9
50449.6
43368.5
35761.1
27875.7
19878.9
11896.4
4021.83
-3654.87
-10973.1
-17822.4
-23952
-29282.7
-33700.6
-37141.8
-39585.3
-41043.3
-41577.1
-41288
-40302.2
-38696.4
-36781
-33823.7
-30795.9
-27511.5
-24212.3
-20903.4
-17649.8
-14476.7
-11378.9
-8378.2
-5475.23
-2687.61
-33.3682
2454.45
4785.55
6974.77
9043.87
11013
12881
14737.1
16530.5
18103.4
19419.2
20457.9
21121
21334.2
21043
20210
18814.6
16887.2
14713.1
11897.5
8837.85
5580.34
2537.35
-239.237
-2581.02
-4474.38
-5921.86
-7083.59
-8055.31
-8965.88
-9908.85
-10960.5
-12125.6
-13389.7
-14689.9
-15917
-16906.6
-17509.5
-17640.7
-17189
-16220.2
-14796.1
-13012.9
-11002.6
-8876.9
-6713.24
-4623.49
-2520.22
-498.088
1473.62
3377.5
5249.59
7098.47
8931.41
10728.8
12482.6
14123.9
15678.4
16978.6
18146.9
18889.2
19321.1
19417.4
19119.7
18398.3
17269.3
15787.6
13969.1
11859
9501.91
6944.73
4264.35
1485.08
-1377.66
-4183.62
-6844.82
-9287.65
-11435.3
-13219
-14620.9
-15638.4
-16180.2
-16428.3
-16361.5
-16019.1
-15439.3
-14661.8
-13705.7
-12616.3
-11409.2
-10081.2
-8675.11
-7172.08
-5585.39
-3940.16
-2226.27
-480.048
1278.22
3023.76
4766.12
6389.4
7935.86
9328.35
10552.4
11578
12382
12933.4
13216.8
13211.2
12942
12393.4
11568.3
10490.4
9173.22
7649.92
5958.22
4144.18
2255.63
242.62
-1647.91
-3450.26
-5085.83
-6502.81
-7635.21
-8446.56
-8897.79
-8947.11
-8633.98
-7967.15
-6993.11
-5772.74
-4387.3
-2928.74
-1483.26
-122.241
1103.63
2147.15
3002.58
3679.77
4203.95
4616.28
4957.54
5265.92
5567.93
5882.87
-43531.5
-49033.6
-55111.1
-61073.6
-68105.2
-68850.8
-66618.9
-63227.2
-58372.7
-52045
-44281.5
-35129.6
-24659.5
-12986.8
-309.186
13063.8
26805.1
40260.6
52785.3
63791.2
72831.5
79599.7
83944.8
85861.5
85476.2
83160.5
77623.6
69789.6
61099.8
51597.9
41640.6
31558.6
21555.9
11740.2
1667.46
-7455.51
-15706
-22844
-29444.6
-35535
-41063.2
-45949.7
-50126.2
-53557.2
-56249.7
-58240
-59575.3
-60325.5
-60935.9
-59698.5
-57893.5
-55223.1
-51542
-46770.8
-40919.4
-34076.2
-26384.5
-18017.7
-9164.87
-21.7569
9225.46
18307.5
27917.1
36866.4
44241.5
50427.2
55001
57900.7
59071.5
58520.4
56343.1
52390.2
47356.9
41393.7
34853
27996.6
21031.2
14064.9
7172.3
391.214
-6223.96
-12528.3
-18429.2
-23724.4
-28261.9
-31945.2
-34712.1
-36552.8
-37488.4
-37594
-36983.1
-35793.2
-34093.9
-32272.9
-29546
-26731.8
-23774.9
-20852.1
-17949.1
-15107.4
-12312.1
-9572.86
-6880.83
-4226.72
-1645.06
839.475
3179.98
5379.01
7443.87
9393.12
11241.6
12991.8
14718.5
16425.7
17837.9
19041.6
19925.4
20456.9
20530.9
20099.9
19130.5
17599.2
15567
13276.8
10353.6
7216.91
3921.08
876.846
-1838.55
-4062.73
-5733.16
-6968.58
-7902.5
-8659.87
-9390.21
-10195.8
-11171.2
-12305.2
-13585.4
-14934.5
-16230.5
-17296.1
-17908.2
-18063.2
-17530.8
-16455.8
-14902.8
-12983.1
-10848
-8624.93
-6389.75
-4252.79
-2144.82
-124.924
1824.45
3697.65
5539.55
7365.61
9187.65
10988.7
12758.1
14427.8
16019.4
17361.3
18569
19348.3
19794.1
19896.9
19575.9
18828.2
17658.6
16116.2
14225.1
12035.6
9594.64
6949.41
4177.96
1302.77
-1657.6
-4559.63
-7308.19
-9824.31
-12023
-13835.8
-15242.5
-16233.2
-16735.3
-16947.3
-16834.6
-16444.8
-15818.4
-14998.8
-14005.3
-12882.9
-11651.6
-10301.2
-8875.62
-7355.92
-5745.4
-4075.83
-2332.02
-547.135
1251.02
3045.15
4837.61
6510.68
8111.2
9555.15
10827.2
11895.9
12737.8
13316.3
13615.5
13613
13335
12766.4
11908.5
10787.1
9415.21
7827.74
6063.76
4170.82
2197.59
106.91
-1871.52
-3756.25
-5467.77
-6950.56
-8133.54
-8979.32
-9443.17
-9483
-9137.88
-8416.14
-7367.2
-6055.79
-4569.62
-3010.43
-1472.64
-33.2261
1244.91
2321.04
3184.83
3851.17
4350.82
4730.27
5038.3
5318.37
5601.83
5909.41
-39172.2
-43098.7
-47526.3
-51901.6
-56984.7
-57802.5
-55505.8
-52276.9
-47876.2
-42299.6
-35566
-27692.1
-18710.9
-8692.77
2210.94
13732.6
25656.5
37281.8
48027.2
57345.6
64824.7
70198.1
73357.6
74337.9
73304.8
70671.7
64979
57165.5
48875.3
40069.4
31108.3
22315
13857.9
5866.26
-2337.2
-9455.95
-15896.9
-21406.3
-26590.9
-31485
-36032.8
-40138.7
-43708.6
-46679.4
-49037
-50804.2
-52025.1
-52870.3
-53392.7
-52256
-50626.8
-48189.8
-44784.1
-40327.3
-34841.6
-28436
-21276.8
-13556.1
-5473.08
2775.17
11013.8
19005.6
27533.5
35301.9
41393.3
46351
49791.5
51673.4
51986.9
50767.7
48129.4
43855.9
38742.1
32938.8
26796.4
20563.2
14413.5
8396.27
2535.78
-3196.27
-8787.92
-14120.2
-19116.8
-23615.4
-27406.2
-30403.9
-32543
-33822.6
-34267.1
-33963.8
-33037.3
-31636.8
-29819.6
-28132.4
-25522.8
-22874.7
-20190.2
-17592.2
-15050.5
-12579.5
-10153
-7763.17
-5360.29
-2957.11
-585.578
1722.75
3909.44
5970.19
7906.91
9734.2
11463.6
13098.5
14691.2
16107.1
17586.2
18694.7
19452.4
19860.2
19812
19254.9
18158.3
16496.6
14356.3
11936.2
8886.95
5641.6
2273.89
-806.344
-3492.01
-5589.22
-7053.86
-8078.35
-8758.31
-9277.85
-9809.76
-10463.6
-11355
-12455.5
-13757.2
-15176.6
-16567.9
-17735.6
-18394.4
-18554.5
-17958.1
-16770.3
-15076
-13003.9
-10728.2
-8394.16
-6075.92
-3887.75
-1768.36
250.135
2175.79
4016.28
5824.74
7625.68
9436.38
11242.9
13031.7
14735.8
16372
17764.6
19019.7
19844.2
20307.8
20424.7
20086.6
19302.7
18095
16487.3
14516.9
12239.6
9705.2
6961.89
4088.73
1106.62
-1964.25
-4975.05
-7822.71
-10421.8
-12677.7
-14525.2
-15934.6
-16870.7
-17359.7
-17516.5
-17351.3
-16908.2
-16229.6
-15362.8
-14328.9
-13169.4
-11912.1
-10539.3
-9093.2
-7557.28
-5921.83
-4226.15
-2451.27
-624.052
1217.01
3065.65
4911.86
6640.2
8299.87
9800.75
11125.8
12242.1
13127.1
13735.5
14052.8
14054.7
13766.1
13175.5
12281.6
11112.3
9680.51
8022.24
6178.69
4198.89
2133.32
-45.9148
-2120.75
-4096.45
-5892.36
-7448.58
-8688.2
-9573.25
-10050.7
-10079.2
-9700.18
-8918.69
-7785.73
-6371.54
-4771.46
-3097.64
-1455.61
71.9121
1410.14
2520.96
3392.69
4044.46
4514
4854.94
5124.19
5370.96
5632.81
5931.66
-36482.5
-39580.2
-43138.3
-46652.1
-50648.3
-51550.9
-49193.3
-46035.6
-41876.8
-36715.4
-30559.9
-23410.7
-15279.4
-6210.17
3673.43
14124
25009.2
35573
45290.4
53636.4
60215.6
64783.7
67256.9
67692
66277.4
63453.5
57630.3
49755.4
41616.6
33119.1
24646.4
16536.1
8980.56
2061.88
-4952.15
-10875.6
-16184.9
-20673.4
-24965.3