/*--------------------------------*- C++ -*----------------------------------*\
| =========                 |                                                 |
| \\      /  F ield         | OpenFOAM: The Open Source CFD Toolbox           |
|  \\    /   O peration     | Version:  v1912                                 |
|   \\  /    A nd           | Website:  www.openfoam.com                      |
|    \\/     M anipulation  |                                                 |
\*---------------------------------------------------------------------------*/
FoamFile
{
    version     2.0;
    format      ascii;
    class       volSymmTensorField;
    location    "20";
    object      R;
}
// * * * * * * * * * * * * * * * * * * * * * * * * * * * * * * * * * * * * * //

dimensions      [0 2 -2 0 0 0 0];


internalField   nonuniform List<symmTensor> 
14268
(
(7.69629e-07 -1.26846e-07 0 7.70889e-07 0 7.70265e-07)
(7.69437e-07 -1.26787e-07 0 7.70689e-07 0 7.70069e-07)
(7.69245e-07 -1.26726e-07 0 7.70487e-07 0 7.69871e-07)
(7.69051e-07 -1.26665e-07 0 7.70282e-07 0 7.69672e-07)
(7.68856e-07 -1.26603e-07 0 7.70074e-07 0 7.69471e-07)
(7.6866e-07 -1.26541e-07 0 7.69864e-07 0 7.69267e-07)
(7.68462e-07 -1.26477e-07 0 7.69651e-07 0 7.69061e-07)
(7.68262e-07 -1.26413e-07 0 7.69434e-07 0 7.68853e-07)
(7.68059e-07 -1.26348e-07 0 7.69215e-07 0 7.68642e-07)
(7.67854e-07 -1.26281e-07 0 7.68992e-07 0 7.68428e-07)
(7.67647e-07 -1.26214e-07 0 7.68766e-07 0 7.68211e-07)
(7.67437e-07 -1.26146e-07 0 7.68536e-07 0 7.67991e-07)
(7.67224e-07 -1.26076e-07 0 7.68303e-07 0 7.67767e-07)
(7.67007e-07 -1.26006e-07 0 7.68065e-07 0 7.6754e-07)
(7.66787e-07 -1.25934e-07 0 7.67824e-07 0 7.67309e-07)
(7.66563e-07 -1.25862e-07 0 7.67579e-07 0 7.67075e-07)
(7.66336e-07 -1.25788e-07 0 7.67329e-07 0 7.66836e-07)
(7.66104e-07 -1.25712e-07 0 7.67075e-07 0 7.66593e-07)
(7.65868e-07 -1.25636e-07 0 7.66817e-07 0 7.66346e-07)
(7.65628e-07 -1.25558e-07 0 7.66554e-07 0 7.66094e-07)
(7.65383e-07 -1.25479e-07 0 7.66286e-07 0 7.65837e-07)
(7.65133e-07 -1.25398e-07 0 7.66013e-07 0 7.65575e-07)
(7.64878e-07 -1.25316e-07 0 7.65735e-07 0 7.65309e-07)
(7.64618e-07 -1.25232e-07 0 7.65452e-07 0 7.65037e-07)
(7.64352e-07 -1.25147e-07 0 7.65163e-07 0 7.64759e-07)
(7.6408e-07 -1.2506e-07 0 7.64869e-07 0 7.64476e-07)
(7.63803e-07 -1.24972e-07 0 7.64569e-07 0 7.64188e-07)
(7.6352e-07 -1.24882e-07 0 7.64263e-07 0 7.63893e-07)
(7.6323e-07 -1.2479e-07 0 7.63951e-07 0 7.63592e-07)
(7.62934e-07 -1.24696e-07 0 7.63633e-07 0 7.63284e-07)
(7.62631e-07 -1.24601e-07 0 7.63309e-07 0 7.6297e-07)
(7.62321e-07 -1.24504e-07 0 7.62977e-07 0 7.6265e-07)
(7.62003e-07 -1.24404e-07 0 7.62639e-07 0 7.62322e-07)
(7.61679e-07 -1.24303e-07 0 7.62294e-07 0 7.61987e-07)
(7.61347e-07 -1.242e-07 0 7.61942e-07 0 7.61645e-07)
(7.61007e-07 -1.24094e-07 0 7.61582e-07 0 7.61295e-07)
(7.60659e-07 -1.23987e-07 0 7.61215e-07 0 7.60937e-07)
(7.60302e-07 -1.23877e-07 0 7.6084e-07 0 7.60571e-07)
(7.59937e-07 -1.23765e-07 0 7.60456e-07 0 7.60196e-07)
(7.59564e-07 -1.2365e-07 0 7.60064e-07 0 7.59813e-07)
(7.59181e-07 -1.23533e-07 0 7.59664e-07 0 7.59421e-07)
(7.58789e-07 -1.23414e-07 0 7.59254e-07 0 7.59021e-07)
(7.58387e-07 -1.23292e-07 0 7.58835e-07 0 7.5861e-07)
(7.57975e-07 -1.23167e-07 0 7.58407e-07 0 7.5819e-07)
(7.57553e-07 -1.2304e-07 0 7.5797e-07 0 7.5776e-07)
(7.5712e-07 -1.22909e-07 0 7.57522e-07 0 7.5732e-07)
(7.56677e-07 -1.22776e-07 0 7.57065e-07 0 7.56869e-07)
(7.56222e-07 -1.2264e-07 0 7.56597e-07 0 7.56408e-07)
(7.55755e-07 -1.22501e-07 0 7.56119e-07 0 7.55935e-07)
(7.55276e-07 -1.22359e-07 0 7.55631e-07 0 7.55452e-07)
(7.54785e-07 -1.22214e-07 0 7.55131e-07 0 7.54956e-07)
(7.5428e-07 -1.22065e-07 0 7.54619e-07 0 7.54447e-07)
(7.53762e-07 -1.21912e-07 0 7.54094e-07 0 7.53925e-07)
(7.5323e-07 -1.21756e-07 0 7.53556e-07 0 7.5339e-07)
(7.52684e-07 -1.21596e-07 0 7.53005e-07 0 7.52842e-07)
(7.52125e-07 -1.21432e-07 0 7.52441e-07 0 7.5228e-07)
(7.5155e-07 -1.21264e-07 0 7.51863e-07 0 7.51704e-07)
(7.50961e-07 -1.21092e-07 0 7.5127e-07 0 7.51113e-07)
(7.50357e-07 -1.20916e-07 0 7.50663e-07 0 7.50507e-07)
(7.49738e-07 -1.20735e-07 0 7.5004e-07 0 7.49886e-07)
(7.49104e-07 -1.2055e-07 0 7.49401e-07 0 7.49249e-07)
(7.48454e-07 -1.2036e-07 0 7.48743e-07 0 7.48595e-07)
(7.47788e-07 -1.20165e-07 0 7.48067e-07 0 7.47924e-07)
(7.47105e-07 -1.19965e-07 0 7.47373e-07 0 7.47235e-07)
(7.46404e-07 -1.1976e-07 0 7.46659e-07 0 7.46528e-07)
(7.45683e-07 -1.19549e-07 0 7.45927e-07 0 7.45801e-07)
(7.44943e-07 -1.19333e-07 0 7.45174e-07 0 7.45054e-07)
(7.44181e-07 -1.19111e-07 0 7.44399e-07 0 7.44286e-07)
(7.43398e-07 -1.18882e-07 0 7.43603e-07 0 7.43496e-07)
(7.42592e-07 -1.18647e-07 0 7.42784e-07 0 7.42683e-07)
(7.41761e-07 -1.18405e-07 0 7.4194e-07 0 7.41846e-07)
(7.40909e-07 -1.18157e-07 0 7.41069e-07 0 7.40984e-07)
(7.4003e-07 -1.17902e-07 0 7.40171e-07 0 7.40096e-07)
(7.39122e-07 -1.17639e-07 0 7.39247e-07 0 7.3918e-07)
(7.38184e-07 -1.17368e-07 0 7.38295e-07 0 7.38235e-07)
(7.37214e-07 -1.17089e-07 0 7.37314e-07 0 7.37259e-07)
(7.3621e-07 -1.16801e-07 0 7.36301e-07 0 7.36251e-07)
(7.35173e-07 -1.16504e-07 0 7.35256e-07 0 7.35209e-07)
(7.34098e-07 -1.16197e-07 0 7.34175e-07 0 7.34131e-07)
(7.32985e-07 -1.15879e-07 0 7.33058e-07 0 7.33016e-07)
(7.31831e-07 -1.1555e-07 0 7.31902e-07 0 7.3186e-07)
(7.30634e-07 -1.15211e-07 0 7.30704e-07 0 7.30662e-07)
(7.29393e-07 -1.14859e-07 0 7.29463e-07 0 7.29421e-07)
(7.28105e-07 -1.14494e-07 0 7.28177e-07 0 7.28134e-07)
(7.26769e-07 -1.14117e-07 0 7.26842e-07 0 7.26799e-07)
(7.25382e-07 -1.13726e-07 0 7.25458e-07 0 7.25412e-07)
(7.2394e-07 -1.1332e-07 0 7.2402e-07 0 7.23972e-07)
(7.22442e-07 -1.12898e-07 0 7.22525e-07 0 7.22476e-07)
(7.20884e-07 -1.12461e-07 0 7.20969e-07 0 7.20918e-07)
(7.19261e-07 -1.12006e-07 0 7.1935e-07 0 7.19298e-07)
(7.17571e-07 -1.11532e-07 0 7.17664e-07 0 7.17609e-07)
(7.15809e-07 -1.11039e-07 0 7.15904e-07 0 7.15848e-07)
(7.1397e-07 -1.10526e-07 0 7.14067e-07 0 7.14009e-07)
(7.12049e-07 -1.0999e-07 0 7.12148e-07 0 7.12089e-07)
(7.10039e-07 -1.09431e-07 0 7.10141e-07 0 7.1008e-07)
(7.07936e-07 -1.08847e-07 0 7.08039e-07 0 7.07977e-07)
(7.05731e-07 -1.08235e-07 0 7.05835e-07 0 7.05773e-07)
(7.03417e-07 -1.07595e-07 0 7.03522e-07 0 7.03459e-07)
(7.00986e-07 -1.06924e-07 0 7.0109e-07 0 7.01027e-07)
(6.98427e-07 -1.06219e-07 0 6.98531e-07 0 6.98467e-07)
(6.95729e-07 -1.05478e-07 0 6.95833e-07 0 6.95769e-07)
(6.9288e-07 -1.04697e-07 0 6.92985e-07 0 6.9292e-07)
(6.89865e-07 -1.03874e-07 0 6.89973e-07 0 6.89906e-07)
(6.86671e-07 -1.03005e-07 0 6.86782e-07 0 6.86713e-07)
(6.8328e-07 -1.02086e-07 0 6.83395e-07 0 6.83323e-07)
(6.79673e-07 -1.01111e-07 0 6.79794e-07 0 6.79718e-07)
(6.75828e-07 -1.00077e-07 0 6.75958e-07 0 6.75877e-07)
(6.7172e-07 -9.89755e-08 0 6.7186e-07 0 6.71774e-07)
(6.67322e-07 -9.7802e-08 0 6.67474e-07 0 6.67381e-07)
(6.62601e-07 -9.65484e-08 0 6.62768e-07 0 6.62666e-07)
(6.57521e-07 -9.52066e-08 0 6.57702e-07 0 6.57593e-07)
(6.52037e-07 -9.37661e-08 0 6.52235e-07 0 6.52116e-07)
(6.46098e-07 -9.22151e-08 0 6.46314e-07 0 6.46185e-07)
(6.39643e-07 -9.05404e-08 0 6.39878e-07 0 6.39739e-07)
(6.32603e-07 -8.87279e-08 0 6.32857e-07 0 6.32707e-07)
(6.24887e-07 -8.67563e-08 0 6.25162e-07 0 6.25001e-07)
(6.16391e-07 -8.46058e-08 0 6.16691e-07 0 6.16517e-07)
(6.06989e-07 -8.22491e-08 0 6.07316e-07 0 6.07128e-07)
(5.96526e-07 -7.96603e-08 0 5.96884e-07 0 5.96679e-07)
(5.84803e-07 -7.6796e-08 0 5.85201e-07 0 5.84974e-07)
(5.71574e-07 -7.36082e-08 0 5.72023e-07 0 5.71772e-07)
(5.56531e-07 -7.00446e-08 0 5.5705e-07 0 5.56764e-07)
(5.39291e-07 -6.60481e-08 0 5.39895e-07 0 5.3957e-07)
(5.19336e-07 -6.15296e-08 0 5.20063e-07 0 5.19679e-07)
(4.96044e-07 -5.64269e-08 0 4.96911e-07 0 4.96462e-07)
(4.68523e-07 -5.05992e-08 0 4.69602e-07 0 4.69056e-07)
(4.35778e-07 -4.40594e-08 0 4.37059e-07 0 4.36419e-07)
(3.96429e-07 -3.6745e-08 0 3.97922e-07 0 3.97176e-07)
(3.48859e-07 -2.86832e-08 0 3.50527e-07 0 3.49695e-07)
(2.91412e-07 -2.01294e-08 0 2.9318e-07 0 2.92297e-07)
(2.23293e-07 -1.17598e-08 0 2.2495e-07 0 2.24123e-07)
(1.46777e-07 -4.83341e-09 0 1.48054e-07 0 1.47415e-07)
(7.20459e-08 -8.82021e-10 0 7.26981e-08 0 7.2372e-08)
(2.04047e-08 -8.01903e-13 0 2.05704e-08 0 2.04877e-08)
(1.45595e-07 -6.3834e-09 0 1.45963e-07 0 1.45781e-07)
(1.45601e-07 -6.38397e-09 0 1.45967e-07 0 1.45785e-07)
(1.45606e-07 -6.3845e-09 0 1.45969e-07 0 1.45789e-07)
(1.45613e-07 -6.38499e-09 0 1.45972e-07 0 1.45794e-07)
(1.45619e-07 -6.38545e-09 0 1.45974e-07 0 1.45798e-07)
(1.45626e-07 -6.38589e-09 0 1.45977e-07 0 1.45803e-07)
(1.45633e-07 -6.3863e-09 0 1.45979e-07 0 1.45808e-07)
(1.4564e-07 -6.38669e-09 0 1.45981e-07 0 1.45812e-07)
(1.45648e-07 -6.38707e-09 0 1.45983e-07 0 1.45817e-07)
(1.45656e-07 -6.38742e-09 0 1.45985e-07 0 1.45822e-07)
(1.45664e-07 -6.38776e-09 0 1.45987e-07 0 1.45827e-07)
(1.45672e-07 -6.38809e-09 0 1.45988e-07 0 1.45832e-07)
(1.4568e-07 -6.38841e-09 0 1.4599e-07 0 1.45837e-07)
(1.45689e-07 -6.38872e-09 0 1.45992e-07 0 1.45842e-07)
(1.45698e-07 -6.38903e-09 0 1.45994e-07 0 1.45847e-07)
(1.45707e-07 -6.38933e-09 0 1.45995e-07 0 1.45853e-07)
(1.45716e-07 -6.38964e-09 0 1.45997e-07 0 1.45858e-07)
(1.45725e-07 -6.38994e-09 0 1.45999e-07 0 1.45864e-07)
(1.45734e-07 -6.39025e-09 0 1.46001e-07 0 1.45869e-07)
(1.45744e-07 -6.39056e-09 0 1.46003e-07 0 1.45875e-07)
(1.45753e-07 -6.39087e-09 0 1.46005e-07 0 1.45881e-07)
(1.45763e-07 -6.3912e-09 0 1.46007e-07 0 1.45887e-07)
(1.45773e-07 -6.39153e-09 0 1.46009e-07 0 1.45893e-07)
(1.45783e-07 -6.39187e-09 0 1.46012e-07 0 1.45899e-07)
(1.45793e-07 -6.39223e-09 0 1.46014e-07 0 1.45905e-07)
(1.45803e-07 -6.3926e-09 0 1.46017e-07 0 1.45911e-07)
(1.45813e-07 -6.39298e-09 0 1.46019e-07 0 1.45918e-07)
(1.45823e-07 -6.39339e-09 0 1.46022e-07 0 1.45924e-07)
(1.45834e-07 -6.39381e-09 0 1.46025e-07 0 1.45931e-07)
(1.45844e-07 -6.39424e-09 0 1.46029e-07 0 1.45938e-07)
(1.45855e-07 -6.3947e-09 0 1.46032e-07 0 1.45945e-07)
(1.45865e-07 -6.39519e-09 0 1.46036e-07 0 1.45952e-07)
(1.45876e-07 -6.39569e-09 0 1.46039e-07 0 1.45959e-07)
(1.45887e-07 -6.39622e-09 0 1.46044e-07 0 1.45967e-07)
(1.45898e-07 -6.39678e-09 0 1.46048e-07 0 1.45974e-07)
(1.45908e-07 -6.39736e-09 0 1.46052e-07 0 1.45982e-07)
(1.45919e-07 -6.39797e-09 0 1.46057e-07 0 1.4599e-07)
(1.4593e-07 -6.39861e-09 0 1.46062e-07 0 1.45998e-07)
(1.45941e-07 -6.39928e-09 0 1.46067e-07 0 1.46006e-07)
(1.45952e-07 -6.39998e-09 0 1.46073e-07 0 1.46014e-07)
(1.45964e-07 -6.40072e-09 0 1.46079e-07 0 1.46023e-07)
(1.45975e-07 -6.40148e-09 0 1.46085e-07 0 1.46031e-07)
(1.45986e-07 -6.40229e-09 0 1.46091e-07 0 1.4604e-07)
(1.45997e-07 -6.40313e-09 0 1.46098e-07 0 1.46049e-07)
(1.46009e-07 -6.40401e-09 0 1.46105e-07 0 1.46059e-07)
(1.46021e-07 -6.40493e-09 0 1.46113e-07 0 1.46068e-07)
(1.46032e-07 -6.40589e-09 0 1.4612e-07 0 1.46078e-07)
(1.46044e-07 -6.40689e-09 0 1.46128e-07 0 1.46088e-07)
(1.46056e-07 -6.40794e-09 0 1.46137e-07 0 1.46098e-07)
(1.46068e-07 -6.40903e-09 0 1.46145e-07 0 1.46108e-07)
(1.4608e-07 -6.41021e-09 0 1.46155e-07 0 1.46119e-07)
(1.46094e-07 -6.41161e-09 0 1.46165e-07 0 1.46131e-07)
(1.46108e-07 -6.41311e-09 0 1.46176e-07 0 1.46143e-07)
(1.46123e-07 -6.41469e-09 0 1.46188e-07 0 1.46157e-07)
(1.46138e-07 -6.41632e-09 0 1.462e-07 0 1.4617e-07)
(1.46153e-07 -6.41801e-09 0 1.46213e-07 0 1.46184e-07)
(1.46169e-07 -6.41973e-09 0 1.46226e-07 0 1.46199e-07)
(1.46184e-07 -6.42148e-09 0 1.46239e-07 0 1.46213e-07)
(1.46201e-07 -6.42328e-09 0 1.46253e-07 0 1.46228e-07)
(1.46217e-07 -6.42509e-09 0 1.46266e-07 0 1.46243e-07)
(1.46233e-07 -6.42693e-09 0 1.4628e-07 0 1.46258e-07)
(1.4625e-07 -6.42879e-09 0 1.46295e-07 0 1.46274e-07)
(1.46267e-07 -6.43067e-09 0 1.46309e-07 0 1.4629e-07)
(1.46284e-07 -6.43258e-09 0 1.46324e-07 0 1.46306e-07)
(1.46302e-07 -6.43452e-09 0 1.46339e-07 0 1.46322e-07)
(1.4632e-07 -6.43648e-09 0 1.46354e-07 0 1.46339e-07)
(1.46338e-07 -6.43847e-09 0 1.4637e-07 0 1.46355e-07)
(1.46356e-07 -6.4405e-09 0 1.46386e-07 0 1.46373e-07)
(1.46375e-07 -6.44256e-09 0 1.46402e-07 0 1.4639e-07)
(1.46395e-07 -6.44466e-09 0 1.46418e-07 0 1.46408e-07)
(1.46415e-07 -6.4468e-09 0 1.46435e-07 0 1.46427e-07)
(1.46435e-07 -6.44899e-09 0 1.46453e-07 0 1.46446e-07)
(1.46456e-07 -6.45124e-09 0 1.46471e-07 0 1.46465e-07)
(1.46477e-07 -6.45354e-09 0 1.4649e-07 0 1.46485e-07)
(1.46499e-07 -6.45591e-09 0 1.46509e-07 0 1.46506e-07)
(1.46521e-07 -6.45835e-09 0 1.46529e-07 0 1.46527e-07)
(1.46544e-07 -6.46086e-09 0 1.4655e-07 0 1.46549e-07)
(1.46567e-07 -6.46345e-09 0 1.46572e-07 0 1.46571e-07)
(1.46591e-07 -6.46615e-09 0 1.46594e-07 0 1.46594e-07)
(1.46616e-07 -6.46904e-09 0 1.46618e-07 0 1.46619e-07)
(1.46643e-07 -6.47223e-09 0 1.46644e-07 0 1.46645e-07)
(1.4667e-07 -6.47557e-09 0 1.46671e-07 0 1.46672e-07)
(1.46699e-07 -6.47903e-09 0 1.46699e-07 0 1.46701e-07)
(1.46729e-07 -6.48259e-09 0 1.46728e-07 0 1.4673e-07)
(1.46759e-07 -6.48625e-09 0 1.46758e-07 0 1.4676e-07)
(1.4679e-07 -6.49001e-09 0 1.4679e-07 0 1.46792e-07)
(1.46822e-07 -6.49388e-09 0 1.46822e-07 0 1.46824e-07)
(1.46855e-07 -6.49786e-09 0 1.46855e-07 0 1.46857e-07)
(1.46889e-07 -6.50196e-09 0 1.4689e-07 0 1.46891e-07)
(1.46924e-07 -6.50616e-09 0 1.46925e-07 0 1.46927e-07)
(1.46961e-07 -6.51049e-09 0 1.46962e-07 0 1.46964e-07)
(1.46999e-07 -6.51495e-09 0 1.47001e-07 0 1.47002e-07)
(1.47038e-07 -6.51958e-09 0 1.47041e-07 0 1.47042e-07)
(1.47079e-07 -6.52436e-09 0 1.47082e-07 0 1.47083e-07)
(1.47123e-07 -6.52929e-09 0 1.47125e-07 0 1.47126e-07)
(1.47168e-07 -6.53441e-09 0 1.4717e-07 0 1.47171e-07)
(1.47215e-07 -6.53971e-09 0 1.47217e-07 0 1.47218e-07)
(1.47265e-07 -6.54517e-09 0 1.47266e-07 0 1.47268e-07)
(1.47317e-07 -6.55087e-09 0 1.47317e-07 0 1.47319e-07)
(1.47372e-07 -6.55681e-09 0 1.47371e-07 0 1.47374e-07)
(1.47429e-07 -6.56303e-09 0 1.47428e-07 0 1.47431e-07)
(1.4749e-07 -6.56956e-09 0 1.47488e-07 0 1.47491e-07)
(1.47555e-07 -6.57642e-09 0 1.47551e-07 0 1.47555e-07)
(1.47622e-07 -6.58358e-09 0 1.47618e-07 0 1.47623e-07)
(1.47694e-07 -6.59112e-09 0 1.4769e-07 0 1.47694e-07)
(1.47769e-07 -6.599e-09 0 1.47765e-07 0 1.4777e-07)
(1.47848e-07 -6.60727e-09 0 1.47845e-07 0 1.47849e-07)
(1.47932e-07 -6.61593e-09 0 1.4793e-07 0 1.47934e-07)
(1.48021e-07 -6.62498e-09 0 1.4802e-07 0 1.48023e-07)
(1.48115e-07 -6.63444e-09 0 1.48116e-07 0 1.48118e-07)
(1.48216e-07 -6.64435e-09 0 1.48218e-07 0 1.4822e-07)
(1.48323e-07 -6.65479e-09 0 1.48326e-07 0 1.48328e-07)
(1.48437e-07 -6.66571e-09 0 1.48443e-07 0 1.48443e-07)
(1.4856e-07 -6.67705e-09 0 1.48567e-07 0 1.48567e-07)
(1.48692e-07 -6.68893e-09 0 1.487e-07 0 1.487e-07)
(1.48833e-07 -6.70132e-09 0 1.48842e-07 0 1.48842e-07)
(1.48985e-07 -6.7141e-09 0 1.48995e-07 0 1.48994e-07)
(1.49148e-07 -6.7272e-09 0 1.49159e-07 0 1.49158e-07)
(1.49323e-07 -6.74066e-09 0 1.49336e-07 0 1.49334e-07)
(1.49511e-07 -6.75458e-09 0 1.49526e-07 0 1.49523e-07)
(1.4971e-07 -6.76821e-09 0 1.49729e-07 0 1.49725e-07)
(1.49922e-07 -6.78118e-09 0 1.49948e-07 0 1.4994e-07)
(1.50143e-07 -6.79309e-09 0 1.50178e-07 0 1.50167e-07)
(1.50372e-07 -6.803e-09 0 1.50423e-07 0 1.50404e-07)
(1.50601e-07 -6.81023e-09 0 1.50673e-07 0 1.50644e-07)
(1.50817e-07 -6.81227e-09 0 1.50924e-07 0 1.50879e-07)
(1.50999e-07 -6.80489e-09 0 1.51153e-07 0 1.51086e-07)
(1.51104e-07 -6.78448e-09 0 1.51328e-07 0 1.51228e-07)
(1.51051e-07 -6.74311e-09 0 1.51369e-07 0 1.51224e-07)
(1.50669e-07 -6.66769e-09 0 1.51122e-07 0 1.50912e-07)
(1.49604e-07 -6.53145e-09 0 1.5022e-07 0 1.49932e-07)
(1.47004e-07 -6.28327e-09 0 1.47824e-07 0 1.47435e-07)
(1.40805e-07 -5.78906e-09 0 1.418e-07 0 1.41322e-07)
(1.25149e-07 -4.73195e-09 0 1.26318e-07 0 1.25748e-07)
(1.45027e-07 -6.30105e-09 0 1.45397e-07 0 1.45213e-07)
(1.45028e-07 -6.30126e-09 0 1.45396e-07 0 1.45213e-07)
(1.4503e-07 -6.30142e-09 0 1.45394e-07 0 1.45213e-07)
(1.45032e-07 -6.30152e-09 0 1.45393e-07 0 1.45213e-07)
(1.45034e-07 -6.30157e-09 0 1.4539e-07 0 1.45213e-07)
(1.45036e-07 -6.30158e-09 0 1.45388e-07 0 1.45213e-07)
(1.45039e-07 -6.30155e-09 0 1.45386e-07 0 1.45212e-07)
(1.45041e-07 -6.30148e-09 0 1.45383e-07 0 1.45212e-07)
(1.45044e-07 -6.30137e-09 0 1.4538e-07 0 1.45212e-07)
(1.45047e-07 -6.30122e-09 0 1.45377e-07 0 1.45212e-07)
(1.4505e-07 -6.30105e-09 0 1.45374e-07 0 1.45212e-07)
(1.45053e-07 -6.30084e-09 0 1.45371e-07 0 1.45212e-07)
(1.45057e-07 -6.30061e-09 0 1.45367e-07 0 1.45212e-07)
(1.4506e-07 -6.30035e-09 0 1.45364e-07 0 1.45212e-07)
(1.45064e-07 -6.30007e-09 0 1.4536e-07 0 1.45212e-07)
(1.45067e-07 -6.29977e-09 0 1.45356e-07 0 1.45212e-07)
(1.45071e-07 -6.29945e-09 0 1.45353e-07 0 1.45212e-07)
(1.45074e-07 -6.29911e-09 0 1.45349e-07 0 1.45212e-07)
(1.45078e-07 -6.29876e-09 0 1.45345e-07 0 1.45212e-07)
(1.45082e-07 -6.29839e-09 0 1.45341e-07 0 1.45212e-07)
(1.45086e-07 -6.29802e-09 0 1.45338e-07 0 1.45212e-07)
(1.45089e-07 -6.29763e-09 0 1.45334e-07 0 1.45212e-07)
(1.45093e-07 -6.29723e-09 0 1.4533e-07 0 1.45212e-07)
(1.45097e-07 -6.29683e-09 0 1.45326e-07 0 1.45212e-07)
(1.45101e-07 -6.29642e-09 0 1.45322e-07 0 1.45212e-07)
(1.45104e-07 -6.29601e-09 0 1.45318e-07 0 1.45212e-07)
(1.45108e-07 -6.29559e-09 0 1.45314e-07 0 1.45212e-07)
(1.45112e-07 -6.29517e-09 0 1.45311e-07 0 1.45212e-07)
(1.45115e-07 -6.29475e-09 0 1.45307e-07 0 1.45212e-07)
(1.45119e-07 -6.29433e-09 0 1.45303e-07 0 1.45212e-07)
(1.45122e-07 -6.29391e-09 0 1.453e-07 0 1.45212e-07)
(1.45126e-07 -6.2935e-09 0 1.45296e-07 0 1.45212e-07)
(1.45129e-07 -6.29309e-09 0 1.45293e-07 0 1.45211e-07)
(1.45132e-07 -6.29268e-09 0 1.45289e-07 0 1.45211e-07)
(1.45136e-07 -6.29228e-09 0 1.45286e-07 0 1.45211e-07)
(1.45139e-07 -6.29188e-09 0 1.45283e-07 0 1.45211e-07)
(1.45142e-07 -6.29149e-09 0 1.4528e-07 0 1.45211e-07)
(1.45145e-07 -6.29111e-09 0 1.45277e-07 0 1.45211e-07)
(1.45148e-07 -6.29074e-09 0 1.45274e-07 0 1.45211e-07)
(1.4515e-07 -6.29038e-09 0 1.45271e-07 0 1.45211e-07)
(1.45153e-07 -6.29003e-09 0 1.45268e-07 0 1.45211e-07)
(1.45156e-07 -6.2897e-09 0 1.45266e-07 0 1.45211e-07)
(1.45158e-07 -6.28937e-09 0 1.45263e-07 0 1.45211e-07)
(1.4516e-07 -6.28906e-09 0 1.45261e-07 0 1.45211e-07)
(1.45162e-07 -6.28877e-09 0 1.45258e-07 0 1.45211e-07)
(1.45165e-07 -6.2885e-09 0 1.45256e-07 0 1.45211e-07)
(1.45166e-07 -6.28824e-09 0 1.45254e-07 0 1.45211e-07)
(1.45168e-07 -6.28801e-09 0 1.45252e-07 0 1.45211e-07)
(1.4517e-07 -6.28779e-09 0 1.4525e-07 0 1.45211e-07)
(1.45172e-07 -6.2876e-09 0 1.45249e-07 0 1.45211e-07)
(1.45173e-07 -6.28738e-09 0 1.45247e-07 0 1.45211e-07)
(1.45175e-07 -6.28716e-09 0 1.45245e-07 0 1.45211e-07)
(1.45176e-07 -6.28698e-09 0 1.45244e-07 0 1.45211e-07)
(1.45178e-07 -6.28683e-09 0 1.45242e-07 0 1.45211e-07)
(1.45179e-07 -6.28669e-09 0 1.45241e-07 0 1.45211e-07)
(1.45181e-07 -6.28656e-09 0 1.4524e-07 0 1.45211e-07)
(1.45182e-07 -6.28645e-09 0 1.45239e-07 0 1.45211e-07)
(1.45183e-07 -6.28635e-09 0 1.45237e-07 0 1.45211e-07)
(1.45185e-07 -6.28625e-09 0 1.45236e-07 0 1.45211e-07)
(1.45186e-07 -6.28618e-09 0 1.45235e-07 0 1.45211e-07)
(1.45187e-07 -6.28611e-09 0 1.45234e-07 0 1.45211e-07)
(1.45188e-07 -6.28605e-09 0 1.45232e-07 0 1.45211e-07)
(1.4519e-07 -6.286e-09 0 1.45231e-07 0 1.45211e-07)
(1.45191e-07 -6.28596e-09 0 1.4523e-07 0 1.45211e-07)
(1.45192e-07 -6.28591e-09 0 1.45229e-07 0 1.45211e-07)
(1.45194e-07 -6.28587e-09 0 1.45228e-07 0 1.45211e-07)
(1.45195e-07 -6.28582e-09 0 1.45226e-07 0 1.45211e-07)
(1.45197e-07 -6.28578e-09 0 1.45225e-07 0 1.45211e-07)
(1.45198e-07 -6.28573e-09 0 1.45224e-07 0 1.45211e-07)
(1.45199e-07 -6.28568e-09 0 1.45222e-07 0 1.45211e-07)
(1.45201e-07 -6.28562e-09 0 1.45221e-07 0 1.45211e-07)
(1.45202e-07 -6.28557e-09 0 1.4522e-07 0 1.45211e-07)
(1.45204e-07 -6.28552e-09 0 1.45218e-07 0 1.45211e-07)
(1.45205e-07 -6.28547e-09 0 1.45217e-07 0 1.45211e-07)
(1.45206e-07 -6.28543e-09 0 1.45216e-07 0 1.45211e-07)
(1.45207e-07 -6.2854e-09 0 1.45215e-07 0 1.45211e-07)
(1.45208e-07 -6.28538e-09 0 1.45214e-07 0 1.45211e-07)
(1.45209e-07 -6.28538e-09 0 1.45213e-07 0 1.45212e-07)
(1.4521e-07 -6.28539e-09 0 1.45212e-07 0 1.45212e-07)
(1.45211e-07 -6.28537e-09 0 1.45212e-07 0 1.45212e-07)
(1.45211e-07 -6.28538e-09 0 1.45211e-07 0 1.45212e-07)
(1.45212e-07 -6.28545e-09 0 1.45211e-07 0 1.45212e-07)
(1.45212e-07 -6.28554e-09 0 1.45211e-07 0 1.45212e-07)
(1.45212e-07 -6.28566e-09 0 1.45211e-07 0 1.45212e-07)
(1.45213e-07 -6.28582e-09 0 1.45211e-07 0 1.45212e-07)
(1.45213e-07 -6.28601e-09 0 1.45211e-07 0 1.45212e-07)
(1.45213e-07 -6.28623e-09 0 1.45211e-07 0 1.45212e-07)
(1.45213e-07 -6.28646e-09 0 1.45212e-07 0 1.45212e-07)
(1.45213e-07 -6.28672e-09 0 1.45212e-07 0 1.45212e-07)
(1.45213e-07 -6.28701e-09 0 1.45213e-07 0 1.45213e-07)
(1.45213e-07 -6.28734e-09 0 1.45213e-07 0 1.45213e-07)
(1.45213e-07 -6.28768e-09 0 1.45213e-07 0 1.45213e-07)
(1.45213e-07 -6.28804e-09 0 1.45214e-07 0 1.45213e-07)
(1.45213e-07 -6.2884e-09 0 1.45214e-07 0 1.45213e-07)
(1.45213e-07 -6.28881e-09 0 1.45214e-07 0 1.45213e-07)
(1.45214e-07 -6.28923e-09 0 1.45214e-07 0 1.45213e-07)
(1.45214e-07 -6.28966e-09 0 1.45214e-07 0 1.45214e-07)
(1.45215e-07 -6.29015e-09 0 1.45214e-07 0 1.45214e-07)
(1.45216e-07 -6.29064e-09 0 1.45214e-07 0 1.45214e-07)
(1.45217e-07 -6.29112e-09 0 1.45213e-07 0 1.45214e-07)
(1.45217e-07 -6.29161e-09 0 1.45213e-07 0 1.45214e-07)
(1.45218e-07 -6.29211e-09 0 1.45213e-07 0 1.45215e-07)
(1.45219e-07 -6.29268e-09 0 1.45212e-07 0 1.45215e-07)
(1.4522e-07 -6.29334e-09 0 1.45212e-07 0 1.45215e-07)
(1.45221e-07 -6.29402e-09 0 1.45213e-07 0 1.45216e-07)
(1.45221e-07 -6.29479e-09 0 1.45213e-07 0 1.45216e-07)
(1.45222e-07 -6.29565e-09 0 1.45214e-07 0 1.45217e-07)
(1.45222e-07 -6.29661e-09 0 1.45215e-07 0 1.45217e-07)
(1.45222e-07 -6.29772e-09 0 1.45216e-07 0 1.45218e-07)
(1.45223e-07 -6.299e-09 0 1.45217e-07 0 1.45218e-07)
(1.45223e-07 -6.30042e-09 0 1.45218e-07 0 1.45219e-07)
(1.45223e-07 -6.30193e-09 0 1.4522e-07 0 1.4522e-07)
(1.45224e-07 -6.3036e-09 0 1.45221e-07 0 1.45221e-07)
(1.45225e-07 -6.3055e-09 0 1.45223e-07 0 1.45222e-07)
(1.45226e-07 -6.30755e-09 0 1.45224e-07 0 1.45223e-07)
(1.45227e-07 -6.30977e-09 0 1.45226e-07 0 1.45224e-07)
(1.45229e-07 -6.31229e-09 0 1.45228e-07 0 1.45226e-07)
(1.45231e-07 -6.31517e-09 0 1.4523e-07 0 1.45227e-07)
(1.45234e-07 -6.31836e-09 0 1.45232e-07 0 1.45229e-07)
(1.45236e-07 -6.32169e-09 0 1.45236e-07 0 1.45232e-07)
(1.45239e-07 -6.32574e-09 0 1.4524e-07 0 1.45235e-07)
(1.45241e-07 -6.3307e-09 0 1.45248e-07 0 1.45239e-07)
(1.45242e-07 -6.33645e-09 0 1.45256e-07 0 1.45244e-07)
(1.45243e-07 -6.34343e-09 0 1.45271e-07 0 1.45251e-07)
(1.45242e-07 -6.35118e-09 0 1.45288e-07 0 1.45258e-07)
(1.45239e-07 -6.36054e-09 0 1.45317e-07 0 1.45269e-07)
(1.45232e-07 -6.37303e-09 0 1.45354e-07 0 1.45282e-07)
(1.45219e-07 -6.38807e-09 0 1.45409e-07 0 1.45301e-07)
(1.45199e-07 -6.40533e-09 0 1.45479e-07 0 1.45323e-07)
(1.45165e-07 -6.424e-09 0 1.45577e-07 0 1.45351e-07)
(1.45112e-07 -6.44169e-09 0 1.45685e-07 0 1.45377e-07)
(1.45003e-07 -6.45128e-09 0 1.45786e-07 0 1.45369e-07)
(1.44699e-07 -6.44074e-09 0 1.45675e-07 0 1.45163e-07)
(1.43307e-07 -6.26814e-09 0 1.44406e-07 0 1.4384e-07)
(1.45025e-07 -6.30061e-09 0 1.45393e-07 0 1.45211e-07)
(1.45027e-07 -6.30093e-09 0 1.45392e-07 0 1.45211e-07)
(1.45028e-07 -6.30119e-09 0 1.4539e-07 0 1.45211e-07)
(1.4503e-07 -6.30139e-09 0 1.45388e-07 0 1.45211e-07)
(1.45032e-07 -6.30152e-09 0 1.45386e-07 0 1.45211e-07)
(1.45035e-07 -6.3016e-09 0 1.45384e-07 0 1.45211e-07)
(1.45037e-07 -6.30163e-09 0 1.45381e-07 0 1.45211e-07)
(1.4504e-07 -6.30161e-09 0 1.45379e-07 0 1.45211e-07)
(1.45042e-07 -6.30155e-09 0 1.45376e-07 0 1.45211e-07)
(1.45045e-07 -6.30144e-09 0 1.45373e-07 0 1.45211e-07)
(1.45049e-07 -6.3013e-09 0 1.4537e-07 0 1.45211e-07)
(1.45052e-07 -6.30111e-09 0 1.45366e-07 0 1.45211e-07)
(1.45055e-07 -6.30089e-09 0 1.45363e-07 0 1.45211e-07)
(1.45059e-07 -6.30064e-09 0 1.4536e-07 0 1.45211e-07)
(1.45062e-07 -6.30037e-09 0 1.45356e-07 0 1.45211e-07)
(1.45066e-07 -6.30006e-09 0 1.45352e-07 0 1.45211e-07)
(1.45069e-07 -6.29973e-09 0 1.45349e-07 0 1.45211e-07)
(1.45073e-07 -6.29938e-09 0 1.45345e-07 0 1.45211e-07)
(1.45077e-07 -6.29901e-09 0 1.45341e-07 0 1.45211e-07)
(1.4508e-07 -6.29862e-09 0 1.45337e-07 0 1.4521e-07)
(1.45084e-07 -6.29821e-09 0 1.45333e-07 0 1.4521e-07)
(1.45088e-07 -6.29779e-09 0 1.4533e-07 0 1.4521e-07)
(1.45092e-07 -6.29736e-09 0 1.45326e-07 0 1.4521e-07)
(1.45095e-07 -6.29691e-09 0 1.45322e-07 0 1.4521e-07)
(1.45099e-07 -6.29646e-09 0 1.45318e-07 0 1.4521e-07)
(1.45103e-07 -6.296e-09 0 1.45314e-07 0 1.4521e-07)
(1.45107e-07 -6.29553e-09 0 1.4531e-07 0 1.4521e-07)
(1.4511e-07 -6.29505e-09 0 1.45307e-07 0 1.4521e-07)
(1.45114e-07 -6.29458e-09 0 1.45303e-07 0 1.4521e-07)
(1.45117e-07 -6.2941e-09 0 1.45299e-07 0 1.4521e-07)
(1.45121e-07 -6.29362e-09 0 1.45296e-07 0 1.4521e-07)
(1.45124e-07 -6.29313e-09 0 1.45292e-07 0 1.4521e-07)
(1.45128e-07 -6.29265e-09 0 1.45289e-07 0 1.4521e-07)
(1.45131e-07 -6.29218e-09 0 1.45285e-07 0 1.4521e-07)
(1.45134e-07 -6.2917e-09 0 1.45282e-07 0 1.4521e-07)
(1.45137e-07 -6.29123e-09 0 1.45279e-07 0 1.4521e-07)
(1.4514e-07 -6.29076e-09 0 1.45276e-07 0 1.4521e-07)
(1.45143e-07 -6.2903e-09 0 1.45273e-07 0 1.4521e-07)
(1.45146e-07 -6.28985e-09 0 1.4527e-07 0 1.4521e-07)
(1.45149e-07 -6.2894e-09 0 1.45267e-07 0 1.4521e-07)
(1.45151e-07 -6.28896e-09 0 1.45264e-07 0 1.4521e-07)
(1.45154e-07 -6.28853e-09 0 1.45262e-07 0 1.4521e-07)
(1.45156e-07 -6.28812e-09 0 1.45259e-07 0 1.4521e-07)
(1.45159e-07 -6.28772e-09 0 1.45257e-07 0 1.4521e-07)
(1.45161e-07 -6.28733e-09 0 1.45255e-07 0 1.4521e-07)
(1.45163e-07 -6.28696e-09 0 1.45253e-07 0 1.45209e-07)
(1.45165e-07 -6.28662e-09 0 1.45251e-07 0 1.45209e-07)
(1.45167e-07 -6.28629e-09 0 1.45249e-07 0 1.45209e-07)
(1.45168e-07 -6.28598e-09 0 1.45247e-07 0 1.45209e-07)
(1.4517e-07 -6.28569e-09 0 1.45246e-07 0 1.45209e-07)
(1.45172e-07 -6.28546e-09 0 1.45244e-07 0 1.4521e-07)
(1.45173e-07 -6.28526e-09 0 1.45243e-07 0 1.45209e-07)
(1.45175e-07 -6.28504e-09 0 1.45241e-07 0 1.45209e-07)
(1.45176e-07 -6.28483e-09 0 1.45239e-07 0 1.45209e-07)
(1.45177e-07 -6.28462e-09 0 1.45238e-07 0 1.45209e-07)
(1.45179e-07 -6.28442e-09 0 1.45237e-07 0 1.45209e-07)
(1.4518e-07 -6.28423e-09 0 1.45235e-07 0 1.45209e-07)
(1.45181e-07 -6.28406e-09 0 1.45234e-07 0 1.45209e-07)
(1.45183e-07 -6.2839e-09 0 1.45232e-07 0 1.45209e-07)
(1.45184e-07 -6.28375e-09 0 1.45231e-07 0 1.45209e-07)
(1.45185e-07 -6.2836e-09 0 1.4523e-07 0 1.45209e-07)
(1.45186e-07 -6.28345e-09 0 1.45228e-07 0 1.45209e-07)
(1.45187e-07 -6.28332e-09 0 1.45227e-07 0 1.45209e-07)
(1.45188e-07 -6.28318e-09 0 1.45226e-07 0 1.45209e-07)
(1.4519e-07 -6.28305e-09 0 1.45224e-07 0 1.45209e-07)
(1.45191e-07 -6.28291e-09 0 1.45223e-07 0 1.45209e-07)
(1.45192e-07 -6.28278e-09 0 1.45222e-07 0 1.45209e-07)
(1.45194e-07 -6.28263e-09 0 1.4522e-07 0 1.45209e-07)
(1.45195e-07 -6.28247e-09 0 1.45219e-07 0 1.45209e-07)
(1.45196e-07 -6.28231e-09 0 1.45217e-07 0 1.45209e-07)
(1.45197e-07 -6.28214e-09 0 1.45216e-07 0 1.45209e-07)
(1.45199e-07 -6.28195e-09 0 1.45214e-07 0 1.45208e-07)
(1.452e-07 -6.28176e-09 0 1.45213e-07 0 1.45208e-07)
(1.45201e-07 -6.28155e-09 0 1.45211e-07 0 1.45208e-07)
(1.45202e-07 -6.28134e-09 0 1.4521e-07 0 1.45208e-07)
(1.45203e-07 -6.28112e-09 0 1.45209e-07 0 1.45208e-07)
(1.45204e-07 -6.2809e-09 0 1.45208e-07 0 1.45208e-07)
(1.45205e-07 -6.28068e-09 0 1.45207e-07 0 1.45208e-07)
(1.45206e-07 -6.28048e-09 0 1.45206e-07 0 1.45208e-07)
(1.45207e-07 -6.28033e-09 0 1.45205e-07 0 1.45208e-07)
(1.45207e-07 -6.28019e-09 0 1.45205e-07 0 1.45208e-07)
(1.45207e-07 -6.28004e-09 0 1.45204e-07 0 1.45208e-07)
(1.45207e-07 -6.27992e-09 0 1.45204e-07 0 1.45208e-07)
(1.45208e-07 -6.27981e-09 0 1.45204e-07 0 1.45208e-07)
(1.45207e-07 -6.27972e-09 0 1.45203e-07 0 1.45208e-07)
(1.45207e-07 -6.27964e-09 0 1.45203e-07 0 1.45208e-07)
(1.45207e-07 -6.27959e-09 0 1.45203e-07 0 1.45207e-07)
(1.45207e-07 -6.27956e-09 0 1.45203e-07 0 1.45207e-07)
(1.45207e-07 -6.27956e-09 0 1.45203e-07 0 1.45207e-07)
(1.45206e-07 -6.27955e-09 0 1.45203e-07 0 1.45207e-07)
(1.45206e-07 -6.27954e-09 0 1.45203e-07 0 1.45207e-07)
(1.45206e-07 -6.27954e-09 0 1.45203e-07 0 1.45207e-07)
(1.45205e-07 -6.27956e-09 0 1.45203e-07 0 1.45207e-07)
(1.45205e-07 -6.27958e-09 0 1.45203e-07 0 1.45207e-07)
(1.45205e-07 -6.27957e-09 0 1.45202e-07 0 1.45206e-07)
(1.45205e-07 -6.27956e-09 0 1.45202e-07 0 1.45206e-07)
(1.45205e-07 -6.27953e-09 0 1.45201e-07 0 1.45206e-07)
(1.45206e-07 -6.27944e-09 0 1.452e-07 0 1.45206e-07)
(1.45206e-07 -6.27934e-09 0 1.452e-07 0 1.45206e-07)
(1.45206e-07 -6.27923e-09 0 1.45199e-07 0 1.45206e-07)
(1.45207e-07 -6.2791e-09 0 1.45198e-07 0 1.45205e-07)
(1.45207e-07 -6.27897e-09 0 1.45197e-07 0 1.45205e-07)
(1.45207e-07 -6.27877e-09 0 1.45196e-07 0 1.45205e-07)
(1.45208e-07 -6.27854e-09 0 1.45195e-07 0 1.45205e-07)
(1.45208e-07 -6.27835e-09 0 1.45195e-07 0 1.45205e-07)
(1.45207e-07 -6.27816e-09 0 1.45194e-07 0 1.45204e-07)
(1.45207e-07 -6.278e-09 0 1.45194e-07 0 1.45204e-07)
(1.45206e-07 -6.27786e-09 0 1.45193e-07 0 1.45204e-07)
(1.45205e-07 -6.2777e-09 0 1.45193e-07 0 1.45203e-07)
(1.45204e-07 -6.27752e-09 0 1.45193e-07 0 1.45203e-07)
(1.45203e-07 -6.27735e-09 0 1.45193e-07 0 1.45202e-07)
(1.45202e-07 -6.27722e-09 0 1.45193e-07 0 1.45202e-07)
(1.45201e-07 -6.27707e-09 0 1.45192e-07 0 1.45201e-07)
(1.452e-07 -6.27682e-09 0 1.45192e-07 0 1.45201e-07)
(1.45199e-07 -6.27655e-09 0 1.45191e-07 0 1.452e-07)
(1.45199e-07 -6.27626e-09 0 1.4519e-07 0 1.452e-07)
(1.45198e-07 -6.27581e-09 0 1.45189e-07 0 1.45199e-07)
(1.45197e-07 -6.27522e-09 0 1.45188e-07 0 1.45198e-07)
(1.45196e-07 -6.27452e-09 0 1.45186e-07 0 1.45197e-07)
(1.45194e-07 -6.27401e-09 0 1.45185e-07 0 1.45196e-07)
(1.45191e-07 -6.2731e-09 0 1.45183e-07 0 1.45194e-07)
(1.45187e-07 -6.27189e-09 0 1.45183e-07 0 1.45193e-07)
(1.45181e-07 -6.27037e-09 0 1.45183e-07 0 1.45191e-07)
(1.45172e-07 -6.26853e-09 0 1.45186e-07 0 1.45189e-07)
(1.45159e-07 -6.26668e-09 0 1.4519e-07 0 1.45185e-07)
(1.4514e-07 -6.26438e-09 0 1.45199e-07 0 1.45182e-07)
(1.45112e-07 -6.26015e-09 0 1.45209e-07 0 1.45176e-07)
(1.45073e-07 -6.2548e-09 0 1.45231e-07 0 1.45169e-07)
(1.45019e-07 -6.24803e-09 0 1.45261e-07 0 1.45161e-07)
(1.44945e-07 -6.24025e-09 0 1.4531e-07 0 1.45152e-07)
(1.44852e-07 -6.22971e-09 0 1.45374e-07 0 1.45141e-07)