/*--------------------------------*- C++ -*----------------------------------*\
| =========                 |                                                 |
| \\      /  F ield         | OpenFOAM: The Open Source CFD Toolbox           |
|  \\    /   O peration     | Version:  v1912                                 |
|   \\  /    A nd           | Website:  www.openfoam.com                      |
|    \\/     M anipulation  |                                                 |
\*---------------------------------------------------------------------------*/
FoamFile
{
    version     2.0;
    format      ascii;
    class       volScalarField;
    location    "90";
    object      nut;
}
// * * * * * * * * * * * * * * * * * * * * * * * * * * * * * * * * * * * * * //

dimensions      [0 2 -1 0 0 0 0];


internalField   nonuniform List<scalar> 
14268
(
1.217e-10
1.25422e-10
1.2955e-10
1.33693e-10
1.37906e-10
1.42651e-10
1.4795e-10
1.53444e-10
1.59628e-10
1.6643e-10
1.73929e-10
1.82614e-10
1.92728e-10
2.07666e-10
2.30409e-10
2.63539e-10
3.14394e-10
3.90101e-10
4.87195e-10
5.97341e-10
7.86976e-10
1.23953e-09
2.16792e-09
3.83465e-09
5.58928e-09
5.34799e-09
4.40596e-09
3.3022e-09
2.51813e-09
1.91523e-09
1.44039e-09
1.08172e-09
7.91818e-10
5.60079e-10
3.96694e-10
2.8376e-10
2.0199e-10
1.47511e-10
1.11927e-10
8.73799e-11
6.39441e-11
4.94951e-11
3.56171e-11
8.80815e-12
7.04131e-09
7.64402e-09
8.30837e-09
8.99852e-09
9.68631e-09
1.03573e-08
1.09646e-08
1.15537e-08
1.21793e-08
1.28496e-08
1.35882e-08
1.44409e-08
1.54039e-08
1.67568e-08
1.87715e-08
2.16469e-08
2.5504e-08
3.10278e-08
3.80902e-08
4.616e-08
5.73251e-08
7.83157e-08
1.13437e-07
1.64726e-07
2.06879e-07
2.09493e-07
1.88596e-07
1.56547e-07
1.22531e-07
9.63182e-08
7.35278e-08
5.14793e-08
3.18066e-08
1.80234e-08
1.17849e-08
8.44444e-09
6.1697e-09
4.76817e-09
3.92918e-09
3.39192e-09
2.8285e-09
2.44948e-09
1.96078e-09
8.9959e-10
6.38438e-08
6.88836e-08
7.40805e-08
7.91402e-08
8.38951e-08
8.82108e-08
9.18605e-08
9.52305e-08
9.86382e-08
1.0215e-07
1.05896e-07
1.10136e-07
1.14754e-07
1.20896e-07
1.29259e-07
1.40278e-07
1.53631e-07
1.7032e-07
1.88631e-07
2.0677e-07
2.2819e-07
2.59504e-07
2.99948e-07
3.42155e-07
3.76883e-07
3.86564e-07
3.76586e-07
3.57692e-07
3.31595e-07
3.01981e-07
2.61516e-07
2.04778e-07
1.4145e-07
8.82469e-08
5.85199e-08
4.46761e-08
3.52215e-08
2.8883e-08
2.47268e-08
2.21485e-08
1.94203e-08
1.88266e-08
1.63823e-08
8.33894e-09
1.76039e-07
1.82807e-07
1.89351e-07
1.95372e-07
2.00705e-07
2.05317e-07
2.09087e-07
2.12478e-07
2.15804e-07
2.19135e-07
2.22572e-07
2.26412e-07
2.30387e-07
2.35444e-07
2.41902e-07
2.49812e-07
2.58252e-07
2.67696e-07
2.77482e-07
2.86476e-07
2.96746e-07
3.12594e-07
3.34714e-07
3.64108e-07
3.90625e-07
4.00977e-07
3.93789e-07
3.82327e-07
3.66621e-07
3.51458e-07
3.30084e-07
2.93502e-07
2.39976e-07
1.82107e-07
1.36617e-07
1.10947e-07
9.27543e-08
8.12554e-08
7.35569e-08
6.8308e-08
6.25944e-08
6.05782e-08
5.64073e-08
3.13008e-08
2.49206e-07
2.53122e-07
2.56758e-07
2.59975e-07
2.62747e-07
2.65119e-07
2.66931e-07
2.68567e-07
2.70163e-07
2.71755e-07
2.73352e-07
2.7518e-07
2.76986e-07
2.79235e-07
2.81936e-07
2.85386e-07
2.89007e-07
2.93119e-07
2.97525e-07
3.02084e-07
3.08218e-07
3.19781e-07
3.38614e-07
3.65832e-07
3.91228e-07
4.01407e-07
3.94618e-07
3.83837e-07
3.69806e-07
3.56893e-07
3.41617e-07
3.18092e-07
2.82528e-07
2.39171e-07
1.99523e-07
1.73476e-07
1.53558e-07
1.41037e-07
1.32928e-07
1.27085e-07
1.20533e-07
1.18647e-07
1.15977e-07
7.67889e-08
2.78438e-07
2.80018e-07
2.81473e-07
2.82737e-07
2.83791e-07
2.84654e-07
2.85307e-07
2.85935e-07
2.86587e-07
2.87207e-07
2.87832e-07
2.8865e-07
2.89425e-07
2.90558e-07
2.91781e-07
2.93754e-07
2.95814e-07
2.98296e-07
3.01282e-07
3.04829e-07
3.10064e-07
3.20589e-07
3.38602e-07
3.65832e-07
3.9118e-07
4.01383e-07
3.94499e-07
3.83472e-07
3.69617e-07
3.57321e-07
3.43304e-07
3.22162e-07
2.91362e-07
2.56017e-07
2.30976e-07
2.1406e-07
1.99014e-07
1.88643e-07
1.81249e-07
1.75963e-07
1.70775e-07
1.69733e-07
1.70699e-07
1.332e-07
2.87731e-07
2.8824e-07
2.88724e-07
2.89142e-07
2.89484e-07
2.89858e-07
2.90053e-07
2.90335e-07
2.90695e-07
2.91068e-07
2.91431e-07
2.91893e-07
2.92393e-07
2.93054e-07
2.93882e-07
2.95359e-07
2.97014e-07
2.99036e-07
3.01674e-07
3.04874e-07
3.09946e-07
3.20556e-07
3.38634e-07
3.65779e-07
3.91156e-07
4.01375e-07
3.94589e-07
3.83669e-07
3.6978e-07
3.57494e-07
3.43191e-07
3.22187e-07
2.937e-07
2.66033e-07
2.4514e-07
2.32139e-07
2.22031e-07
2.14803e-07
2.10111e-07
2.07534e-07
2.04012e-07
2.05202e-07
2.08878e-07
1.78702e-07
2.90942e-07
2.9104e-07
2.91155e-07
2.91265e-07
2.91364e-07
2.91478e-07
2.91543e-07
2.91688e-07
2.91901e-07
2.92114e-07
2.92323e-07
2.92666e-07
2.93052e-07
2.93661e-07
2.94345e-07
2.95702e-07
2.97192e-07
2.99115e-07
3.0172e-07
3.05037e-07
3.10129e-07
3.20612e-07
3.38663e-07
3.65816e-07
3.91122e-07
4.0108e-07
3.94162e-07
3.83457e-07
3.69726e-07
3.57003e-07
3.42738e-07
3.22166e-07
2.94719e-07
2.68881e-07
2.49834e-07
2.3873e-07
2.31719e-07
2.28386e-07
2.25729e-07
2.25064e-07
2.24042e-07
2.25285e-07
2.3296e-07
2.12804e-07
2.91569e-07
2.91479e-07
2.91452e-07
2.91461e-07
2.91465e-07
2.91562e-07
2.91578e-07
2.91702e-07
2.91899e-07
2.92108e-07
2.92315e-07
2.92635e-07
2.93003e-07
2.93545e-07
2.94284e-07
2.9562e-07
2.97161e-07
2.99102e-07
3.01695e-07
3.04913e-07
3.09937e-07
3.20364e-07
3.38434e-07
3.65648e-07
3.9097e-07
4.00982e-07
3.94164e-07
3.83164e-07
3.69466e-07
3.57222e-07
3.42959e-07
3.21573e-07
2.93619e-07
2.69024e-07
2.51499e-07
2.41507e-07
2.36643e-07
2.3451e-07
2.32593e-07
2.33346e-07
2.33723e-07
2.36847e-07
2.43916e-07
2.34448e-07
2.91793e-07
2.91683e-07
2.91647e-07
2.91629e-07
2.91637e-07
2.91713e-07
2.91714e-07
2.91821e-07
2.92007e-07
2.9222e-07
2.92428e-07
2.92737e-07
2.93103e-07
2.93691e-07
2.94453e-07
2.9573e-07
2.97243e-07
2.99178e-07
3.01736e-07
3.04935e-07
3.0987e-07
3.2036e-07
3.38404e-07
3.65735e-07
3.91339e-07
4.01055e-07
3.94313e-07
3.83544e-07
3.69477e-07
3.57224e-07
3.4244e-07
3.21223e-07
2.94223e-07
2.70805e-07
2.51778e-07
2.42193e-07
2.38147e-07
2.36614e-07
2.35679e-07
2.37415e-07
2.38776e-07
2.41996e-07
2.51118e-07
2.46391e-07
2.9182e-07
2.9169e-07
2.91627e-07
2.91584e-07
2.91573e-07
2.91645e-07
2.91641e-07
2.9174e-07
2.91911e-07
2.92097e-07
2.92282e-07
2.92592e-07
2.9293e-07
2.93525e-07
2.94207e-07
2.95535e-07
2.97094e-07
2.99009e-07
3.01603e-07
3.0484e-07
3.09905e-07
3.2046e-07
3.38514e-07
3.65856e-07
3.9148e-07
4.00953e-07
3.93963e-07
3.82976e-07
3.69412e-07
3.56869e-07
3.42761e-07
3.21318e-07
2.94553e-07
2.70909e-07
2.52242e-07
2.42579e-07
2.38534e-07
2.37733e-07
2.37128e-07
2.38894e-07
2.40787e-07
2.44875e-07
2.52369e-07
2.57186e-07
2.91823e-07
2.91693e-07
2.91634e-07
2.91612e-07
2.91606e-07
2.91662e-07
2.91677e-07
2.91772e-07
2.91952e-07
2.92137e-07
2.92316e-07
2.92613e-07
2.92989e-07
2.93436e-07
2.94372e-07
2.95587e-07
2.97038e-07
2.98994e-07
3.01567e-07
3.04807e-07
3.09867e-07
3.20149e-07
3.38333e-07
3.65773e-07
3.9147e-07
4.01033e-07
3.94362e-07
3.83592e-07
3.69646e-07
3.57036e-07
3.42569e-07
3.21481e-07
2.94539e-07
2.70627e-07
2.51569e-07
2.42454e-07
2.39372e-07
2.38607e-07
2.38073e-07
2.39622e-07
2.41782e-07
2.45811e-07
2.54797e-07
2.59151e-07
2.91807e-07
2.91666e-07
2.91597e-07
2.91551e-07
2.91509e-07
2.91559e-07
2.9157e-07
2.91675e-07
2.91831e-07
2.92009e-07
2.9219e-07
2.92504e-07
2.92879e-07
2.93546e-07
2.94229e-07
2.95542e-07
2.97177e-07
2.99101e-07
3.01651e-07
3.04817e-07
3.09674e-07
3.20203e-07
3.38594e-07
3.66087e-07
3.91967e-07
4.01018e-07
3.93802e-07
3.83019e-07
3.69594e-07
3.5738e-07
3.42714e-07
3.2132e-07
2.94413e-07
2.70578e-07
2.51972e-07
2.42855e-07
2.39053e-07
2.38958e-07
2.38794e-07
2.40454e-07
2.42227e-07
2.46562e-07
2.53995e-07
2.63907e-07
2.91711e-07
2.91556e-07
2.91485e-07
2.91452e-07
2.9146e-07
2.91553e-07
2.91538e-07
2.91631e-07
2.91824e-07
2.92024e-07
2.92217e-07
2.92551e-07
2.92928e-07
2.93345e-07
2.94173e-07
2.95466e-07
2.9701e-07
2.98886e-07
3.01471e-07
3.04657e-07
3.0973e-07
3.20481e-07
3.3874e-07
3.66274e-07
3.92765e-07
4.01207e-07
3.9377e-07
3.82202e-07
3.68797e-07
3.57139e-07
3.43089e-07
3.21668e-07
2.94918e-07
2.7093e-07
2.51932e-07
2.42026e-07
2.39027e-07
2.38905e-07
2.38465e-07
2.4031e-07
2.42372e-07
2.46502e-07
2.55193e-07
2.63298e-07
2.91743e-07
2.91627e-07
2.9158e-07
2.91564e-07
2.91574e-07
2.91645e-07
2.91689e-07
2.9179e-07
2.9196e-07
2.92146e-07
2.92327e-07
2.92623e-07
2.92976e-07
2.93529e-07
2.94286e-07
2.95512e-07
2.96924e-07
2.9884e-07
3.01371e-07
3.04606e-07
3.09728e-07
3.20119e-07
3.38423e-07
3.66186e-07
3.94121e-07
4.02776e-07
3.95117e-07
3.83578e-07
3.69401e-07
3.57071e-07
3.427e-07
3.21473e-07
2.94418e-07
2.70452e-07
2.50907e-07
2.41883e-07
2.39294e-07
2.38838e-07
2.38417e-07
2.40065e-07
2.42514e-07
2.46625e-07
2.54317e-07
2.6543e-07
2.91719e-07
2.91575e-07
2.9151e-07
2.91475e-07
2.91451e-07
2.91545e-07
2.91537e-07
2.91664e-07
2.91821e-07
2.91983e-07
2.92137e-07
2.92418e-07
2.92771e-07
2.93317e-07
2.93966e-07
2.95255e-07
2.96848e-07
2.9885e-07
3.01445e-07
3.04616e-07
3.09657e-07
3.20165e-07
3.38729e-07
3.67043e-07
3.98224e-07
4.05297e-07
3.9638e-07
3.83772e-07
3.70022e-07
3.57755e-07
3.43518e-07
3.22012e-07
2.95571e-07
2.7221e-07
2.53104e-07
2.43323e-07
2.3986e-07
2.39585e-07
2.39248e-07
2.40613e-07
2.42672e-07
2.46686e-07
2.54527e-07
2.64491e-07
2.91662e-07
2.91527e-07
2.91478e-07
2.91458e-07
2.91448e-07
2.91496e-07
2.91504e-07
2.91573e-07
2.91746e-07
2.91943e-07
2.92131e-07
2.92454e-07
2.92797e-07
2.9324e-07
2.9415e-07
2.95367e-07
2.9686e-07
2.98741e-07
3.01337e-07
3.04619e-07
3.09763e-07
3.20429e-07
3.38797e-07
3.69127e-07
4.08924e-07
4.13142e-07
3.99747e-07
3.83941e-07
3.69399e-07
3.57198e-07
3.42788e-07
3.21849e-07
2.95254e-07
2.71032e-07
2.51897e-07
2.42432e-07
2.39554e-07
2.39305e-07
2.38936e-07
2.40721e-07
2.42826e-07
2.46816e-07
2.54424e-07
2.65303e-07
2.91588e-07
2.91447e-07
2.91403e-07
2.91385e-07
2.91358e-07
2.91441e-07
2.91459e-07
2.91553e-07
2.91673e-07
2.91812e-07
2.91961e-07
2.9223e-07
2.92559e-07
2.93113e-07
2.9378e-07
2.95158e-07
2.968e-07
2.98822e-07
3.01482e-07
3.04796e-07
3.09866e-07
3.20231e-07
3.38593e-07
3.73118e-07
4.32427e-07
4.31123e-07
4.10888e-07
3.88412e-07
3.71442e-07
3.58436e-07
3.44102e-07
3.22442e-07
2.95196e-07
2.71179e-07
2.51901e-07
2.42751e-07
2.39812e-07
2.3946e-07
2.38983e-07
2.40437e-07
2.42813e-07
2.46857e-07
2.54207e-07
2.64195e-07
2.915e-07
2.9135e-07
2.91269e-07
2.91233e-07
2.91222e-07
2.91277e-07
2.91235e-07
2.91316e-07
2.91499e-07
2.91696e-07
2.91887e-07
2.92242e-07
2.92636e-07
2.93089e-07
2.9395e-07
2.95358e-07
2.97e-07
2.99065e-07
3.01723e-07
3.04971e-07
3.1007e-07
3.20398e-07
3.38525e-07
3.82704e-07
4.76402e-07
4.59662e-07
4.25123e-07
3.91353e-07
3.72327e-07
3.58566e-07
3.43178e-07
3.21684e-07
2.95569e-07
2.72349e-07
2.52775e-07
2.42775e-07
2.39784e-07
2.38871e-07
2.38985e-07
2.40375e-07
2.42745e-07
2.46803e-07
2.54403e-07
2.64547e-07
2.91473e-07
2.91354e-07
2.91315e-07
2.91338e-07
2.91388e-07
2.91439e-07
2.91462e-07
2.91582e-07
2.91786e-07
2.92e-07
2.92222e-07
2.9257e-07
2.92938e-07
2.93473e-07
2.94156e-07
2.95711e-07
2.9736e-07
2.99156e-07
3.01689e-07
3.04879e-07
3.09839e-07
3.20191e-07
3.38446e-07
4.01479e-07
5.51519e-07
5.2984e-07
4.70336e-07
4.13906e-07
3.82742e-07
3.64241e-07
3.47715e-07
3.2509e-07
2.96842e-07
2.71283e-07
2.51578e-07
2.42687e-07
2.39572e-07
2.39773e-07
2.39045e-07
2.4031e-07
2.42466e-07
2.46548e-07
2.53885e-07
2.64104e-07
2.91349e-07
2.91244e-07
2.91188e-07
2.91141e-07
2.91126e-07
2.91238e-07
2.91277e-07
2.91398e-07
2.91622e-07
2.91861e-07
2.92104e-07
2.92493e-07
2.92949e-07
2.93509e-07
2.94669e-07
2.96054e-07
2.97395e-07
2.98982e-07
3.01539e-07
3.04745e-07
3.09653e-07
3.20185e-07
3.40419e-07
4.37494e-07
6.87755e-07
6.32724e-07
5.30403e-07
4.40765e-07
3.97447e-07
3.73544e-07
3.53001e-07
3.28843e-07
3.00583e-07
2.74967e-07
2.55365e-07
2.44633e-07
2.41081e-07
2.40479e-07
2.38407e-07
2.39802e-07
2.42205e-07
2.46552e-07
2.54095e-07
2.64017e-07
2.91825e-07
2.91721e-07
2.91688e-07
2.9169e-07
2.91709e-07
2.91792e-07
2.9181e-07
2.91941e-07
2.92137e-07
2.92335e-07
2.9253e-07
2.9284e-07
2.93179e-07
2.93675e-07
2.94402e-07
2.95763e-07
2.97365e-07
2.99385e-07
3.01934e-07
3.05064e-07
3.10258e-07
3.23594e-07
3.78842e-07
8.40886e-07
2.26155e-06
1.84941e-06
1.23873e-06
7.54572e-07
5.71559e-07
4.96311e-07
4.52136e-07
4.1101e-07
3.67888e-07
3.2645e-07
2.86366e-07
2.6299e-07
2.51161e-07
2.44566e-07
2.40894e-07
2.41064e-07
2.43115e-07
2.46731e-07
2.53774e-07
2.63395e-07
2.91783e-07
2.91672e-07
2.91625e-07
2.91619e-07
2.91625e-07
2.91741e-07
2.91739e-07
2.9184e-07
2.92045e-07
2.92254e-07
2.92449e-07
2.92774e-07
2.93126e-07
2.93578e-07
2.94408e-07
2.95605e-07
2.97129e-07
2.99067e-07
3.01624e-07
3.04849e-07
3.11515e-07
3.51209e-07
7.17296e-07
4.01881e-06
1.10696e-05
8.57528e-06
5.96686e-06
3.4054e-06
2.10872e-06
1.50223e-06
1.18535e-06
9.85816e-07
8.29049e-07
6.64113e-07
4.87998e-07
3.73171e-07
3.09264e-07
2.74105e-07
2.54858e-07
2.47465e-07
2.45623e-07
2.47469e-07
2.52943e-07
2.61198e-07
2.91734e-07
2.91629e-07
2.91579e-07
2.9154e-07
2.91534e-07
2.91574e-07
2.91588e-07
2.91695e-07
2.91869e-07
2.92034e-07
2.92203e-07
2.9248e-07
2.9281e-07
2.93285e-07
2.94123e-07
2.95336e-07
2.96828e-07
2.98907e-07
3.01424e-07
3.05161e-07
3.2508e-07
5.42341e-07
2.68238e-06
1.36441e-05
2.73955e-05
2.1176e-05
1.64999e-05
1.10501e-05
7.27993e-06
5.04193e-06
3.7467e-06
2.94587e-06
2.32425e-06
1.65791e-06
1.07829e-06
6.92074e-07
4.74059e-07
3.58719e-07
3.00532e-07
2.73324e-07
2.59516e-07
2.54408e-07
2.55147e-07
2.60899e-07
2.91329e-07
2.91192e-07
2.91119e-07
2.91083e-07
2.91057e-07
2.91194e-07
2.91207e-07
2.91314e-07
2.91547e-07
2.91742e-07
2.9189e-07
2.92174e-07
2.92476e-07
2.92887e-07
2.9357e-07
2.94909e-07
2.96735e-07
2.98598e-07
3.01006e-07
3.09164e-07
4.03888e-07
1.47329e-06
8.49698e-06
2.64028e-05
4.68244e-05
4.06089e-05
3.29519e-05
2.38828e-05
1.67928e-05
1.18286e-05
8.69656e-06
6.73309e-06
5.06865e-06
3.59948e-06
2.29441e-06
1.3673e-06
8.35547e-07
5.58473e-07
4.11989e-07
3.36639e-07
2.94122e-07
2.72978e-07
2.64363e-07
2.62633e-07
2.91337e-07
2.91277e-07
2.91246e-07
2.91196e-07
2.91182e-07
2.91246e-07
2.9125e-07
2.91366e-07
2.91501e-07
2.9163e-07
2.91774e-07
2.92025e-07
2.92338e-07
2.9271e-07
2.93502e-07
2.94616e-07
2.95744e-07
2.9719e-07
2.99636e-07
3.32076e-07
7.48061e-07
4.30501e-06
1.68067e-05
4.16912e-05
7.06789e-05
6.93117e-05
5.87991e-05
4.79984e-05
3.60907e-05
2.48846e-05
1.73701e-05
1.23501e-05
8.67521e-06
6.10745e-06
3.93086e-06
2.33592e-06
1.40729e-06
9.06477e-07
6.39757e-07
4.86529e-07
3.78051e-07
3.16996e-07
2.86237e-07
2.74405e-07
2.90959e-07
2.9078e-07
2.90644e-07
2.90521e-07
2.90414e-07
2.90462e-07
2.90454e-07
2.90567e-07
2.90784e-07
2.90923e-07
2.90958e-07
2.91133e-07
2.91267e-07
2.91558e-07
2.91795e-07
2.92439e-07
2.9285e-07
2.91595e-07
2.97218e-07
4.28557e-07
1.81423e-06
9.05543e-06
2.57204e-05
5.9009e-05
8.6404e-05
9.18225e-05
7.62135e-05
6.58593e-05
5.49091e-05
4.24255e-05
3.0002e-05
1.98855e-05
1.28915e-05
8.4996e-06
5.35666e-06
3.33297e-06
2.21492e-06
1.66597e-06
1.40722e-06
1.16453e-06
7.64605e-07
4.82103e-07
3.52985e-07
3.02491e-07
2.90292e-07
2.90052e-07
2.89831e-07
2.89554e-07
2.8935e-07
2.89297e-07
2.892e-07
2.89286e-07
2.89345e-07
2.89259e-07
2.89121e-07
2.89066e-07
2.89006e-07
2.88778e-07
2.88225e-07
2.86961e-07
2.82797e-07
2.74122e-07
2.96497e-07
7.13003e-07
3.74636e-06
1.32227e-05
3.45483e-05
6.82876e-05
9.84339e-05
0.000108306
8.72344e-05
7.00151e-05
5.78434e-05
4.69992e-05
3.49824e-05
2.33198e-05
1.50604e-05
9.83842e-06
6.71931e-06
5.36445e-06
5.32915e-06
6.1984e-06
7.24591e-06
6.99704e-06
4.44305e-06
2.00646e-06
9.22867e-07
5.21147e-07
2.88208e-07
2.87404e-07
2.86375e-07
2.85219e-07
2.84164e-07
2.83404e-07
2.82862e-07
2.82529e-07
2.82133e-07
2.81622e-07
2.81026e-07
2.80596e-07
2.79981e-07
2.7825e-07
2.74179e-07
2.66431e-07
2.50649e-07
2.32261e-07
3.20271e-07
1.21758e-06
5.52439e-06
1.51658e-05
3.93875e-05
7.25553e-05
0.000105292
0.000119048
9.74774e-05
6.92675e-05
5.30107e-05
4.16277e-05
3.13506e-05
2.20604e-05
1.57941e-05
1.32015e-05
1.4752e-05
2.03305e-05
2.91912e-05
4.01285e-05
5.00169e-05
5.04537e-05
3.49367e-05
1.66057e-05
7.10447e-06
3.29672e-06
2.80834e-07
2.77734e-07
2.73427e-07
2.68743e-07
2.64511e-07
2.61133e-07
2.58906e-07
2.57602e-07
2.55964e-07
2.53877e-07
2.5187e-07
2.50428e-07
2.48921e-07
2.44409e-07
2.32849e-07
2.13168e-07
1.84382e-07
1.78645e-07
3.99903e-07
1.74302e-06
5.97817e-06
1.56669e-05
3.94563e-05
7.09879e-05
0.000106677
0.000125121
0.000123691
8.48177e-05
5.57838e-05
4.07853e-05
3.27318e-05
3.06572e-05
3.59106e-05
5.31792e-05
8.2956e-05
0.000120827
0.000163428
0.000206934
0.000242228
0.000243077
0.000190124
0.000109981
5.41991e-05
2.81538e-05
2.55164e-07
2.44539e-07
2.30896e-07
2.16828e-07
2.04433e-07
1.94464e-07
1.87984e-07
1.84086e-07
1.8024e-07
1.75783e-07
1.71714e-07
1.71192e-07
1.71385e-07
1.66669e-07
1.51452e-07
1.26549e-07
1.05117e-07
1.41376e-07
4.74334e-07
1.85515e-06
5.44787e-06
1.32606e-05
2.6497e-05
4.94221e-05
9.18681e-05
0.00012383
0.000138362
0.000140848
0.000114854
0.000101393
0.000106631
0.000136879
0.000195815
0.000278136
0.00036284
0.000436079
0.000500081
0.00055748
0.000586504
0.000572703
0.000512788
0.000392929
0.000238448
0.00014803
1.91964e-07
1.68938e-07
1.45205e-07
1.2391e-07
1.06557e-07
9.35175e-08
8.53629e-08
8.0552e-08
7.67895e-08
7.23537e-08
6.89066e-08
6.99563e-08
7.37532e-08
7.29041e-08
6.35293e-08
4.89716e-08
4.73347e-08
1.13382e-07
4.39383e-07
1.45527e-06
3.60504e-06
7.1621e-06
1.26864e-05
2.46951e-05
5.50403e-05
9.72146e-05
0.000130897
0.000156041
0.000180382
0.00020745
0.000251871
0.000310312
0.000369428
0.000429487
0.000490815
0.000548315
0.000596726
0.000621378
0.000607637
0.000565262
0.000549456
0.000525127
0.00047394
0.000381984
9.72906e-08
7.26048e-08
5.29058e-08
3.85978e-08
2.8557e-08
2.21412e-08
1.87003e-08
1.72061e-08
1.63396e-08
1.50918e-08
1.43079e-08
1.55639e-08
1.8355e-08
1.87627e-08
1.56473e-08
1.2349e-08
1.78989e-08
5.7647e-08
1.92201e-07
5.20189e-07
1.19582e-06
2.32506e-06
4.65355e-06
1.00186e-05
2.22044e-05
4.75721e-05
7.66061e-05
0.00010535
0.000132661
0.00016086
0.000192554
0.000234917
0.000282194
0.000340766
0.000408619
0.000475491
0.000523733
0.000536731
0.000505786
0.000466638
0.000472987
0.000464711
0.000443093
0.000414724
3.06387e-08
1.86899e-08
1.24122e-08
8.59677e-09
6.01966e-09
4.45428e-09
3.69934e-09
3.37809e-09
3.0929e-09
2.72883e-09
2.54684e-09
3.02279e-09
3.82728e-09
3.90624e-09
3.09244e-09
2.70172e-09
5.04349e-09
1.59492e-08
4.62397e-08
1.16962e-07
2.72254e-07
6.10842e-07
1.38661e-06
3.31236e-06
7.88197e-06
1.70899e-05
3.02881e-05
4.77689e-05
7.11924e-05
9.16242e-05
0.000105908
0.000119293
0.000133177
0.00015222
0.000176052
0.000204631
0.000223961
0.000221926
0.000193385
0.000184672
0.000234737
0.00029118
0.000338935
0.000345639
1.23939e-08
5.96785e-09
3.5247e-09
2.18966e-09
1.33404e-09
8.87155e-10
7.03605e-10
6.20267e-10
5.53274e-10
4.90505e-10
4.82516e-10
6.9489e-10
9.04388e-10
8.82559e-10
6.64301e-10
6.06187e-10
1.14779e-09
3.19007e-09
8.01063e-09
1.94242e-08
4.91265e-08
1.27875e-07
3.21594e-07
8.18746e-07
1.7929e-06
3.26339e-06
5.53257e-06
1.05146e-05
1.87599e-05
2.60954e-05
2.92846e-05
3.14153e-05
3.29019e-05
3.58441e-05
4.22032e-05
5.36718e-05
6.87271e-05
7.49844e-05
6.50152e-05
5.98649e-05
7.78371e-05
9.95949e-05
0.000130551
0.000153558
7.72967e-09
3.18408e-09
1.42549e-09
6.91288e-10
3.75863e-10
2.44733e-10
1.94225e-10
1.77493e-10
1.74269e-10
1.75941e-10
2.16518e-10
2.74415e-10
2.98506e-10
2.62637e-10
2.23013e-10
2.43549e-10
4.61402e-10
9.40669e-10
1.56625e-09
2.69161e-09
6.92324e-09
2.14719e-08
5.90426e-08
1.09106e-07
1.64061e-07
1.55286e-07
1.63221e-07
3.23968e-07
8.07768e-07
1.21545e-06
1.32073e-06
1.28098e-06
1.21724e-06
1.24434e-06
1.74654e-06
3.29076e-06
8.42777e-06
2.15583e-05
1.96089e-05
1.66114e-05
2.26674e-05
2.79344e-05
4.62678e-05
5.72525e-05
2.24998e-09
1.25795e-09
5.71768e-10
3.00125e-10
1.96447e-10
1.61339e-10
1.52608e-10
1.41531e-10
1.3582e-10
1.39369e-10
1.27657e-10
1.02435e-10
9.71603e-11
1.28747e-10
1.37999e-10
9.32568e-11
1.56633e-11
1.17717e-12
7.12602e-13
3.94412e-12
1.60189e-11
2.95578e-11
6.95956e-12
6.68884e-12
3.71621e-11
2.11402e-10
8.5243e-10
1.46867e-09
1.4307e-09
1.25062e-09
7.26598e-09
1.29791e-08
9.9808e-09
3.37924e-09
4.74095e-10
8.70565e-11
8.86888e-10
1.78536e-07
1.65535e-06
1.13626e-06
7.3624e-07
1.06526e-06
7.54115e-06
1.31572e-05
2.86299e-08
3.43855e-07
9.28299e-07
3.94799e-07
1.29958e-07
4.18348e-08
1.79968e-08
7.93903e-09
3.4633e-09
2.00549e-09
1.76022e-09
1.97334e-09
2.52847e-09
2.96241e-09
2.97662e-09
2.4871e-09
2.06653e-09
1.61123e-09
1.16393e-09
7.93299e-10
5.08012e-10
3.83436e-10
1.21569e-09
1.85323e-09
1.95686e-09
2.36511e-09
1.85757e-09
1.0095e-09
1.82807e-09
2.71616e-08
1.41852e-07
4.69144e-07
5.53539e-07
3.25715e-07
1.6153e-07
1.10245e-07
9.46976e-08
9.26372e-08
2.84882e-07
6.56361e-09
2.2087e-10
7.18375e-09
2.27549e-09
5.4851e-06
3.15337e-05
5.77477e-05
7.91611e-05
8.87481e-05
7.1842e-05
3.92602e-05
1.68805e-05
6.74353e-06
2.26987e-06
6.24648e-07
1.57879e-07
4.36815e-08
1.99674e-08
1.80843e-08
1.75966e-08
1.57651e-08
1.50739e-08
1.5057e-08
1.47191e-08
1.29443e-08
9.97996e-09
7.62894e-09
8.17183e-09
8.63707e-09
6.63221e-09
3.79364e-09
2.30006e-09
1.44823e-09
2.56094e-09
1.46569e-08
1.06266e-07
1.11197e-06
4.183e-06
4.28912e-06
2.88027e-06
1.99283e-06
1.83579e-06
2.68036e-06
3.21729e-07
3.02498e-08
3.59454e-08
1.17727e-06
4.11062e-06
4.85414e-08
0.000245297
0.000329826
0.000426682
0.000421894
0.000241594
8.45304e-05
3.05581e-05
1.02518e-05
2.82959e-06
6.56035e-07
1.48447e-07
4.84992e-08
3.92702e-08
4.28515e-08
3.93463e-08
3.19674e-08
2.51452e-08
2.52151e-08
2.85311e-08
2.88722e-08
2.65465e-08
2.31237e-08
2.93373e-08
3.2711e-08
1.07141e-08
7.92636e-09
7.26681e-09
4.53245e-09
6.48014e-09
1.23242e-09
5.30319e-10
3.91185e-08
3.79076e-07
5.45285e-07
4.84122e-07
3.37352e-07
1.7365e-07
3.58712e-07
3.14039e-08
1.09402e-07
1.42239e-07
2.42471e-08
3.31679e-07
5.80537e-07
0.000977056
0.00127856
0.00145436
0.00100925
0.000339342
0.0001012
2.60285e-05
7.37177e-06
2.49401e-06
9.75786e-07
4.37028e-07
2.80198e-07
2.54871e-07
2.55399e-07
2.25893e-07
1.89418e-07
1.5699e-07
1.32539e-07
1.31823e-07
1.42146e-07
1.32061e-07
1.07307e-07
1.14768e-07
1.50453e-07
1.69244e-07
1.10819e-07
5.70159e-08
4.90978e-08
1.26405e-07
4.20468e-07
7.92425e-07
7.19627e-07
4.75447e-07
3.6314e-07
3.71757e-07
3.69605e-07
2.46288e-07
2.5145e-07
1.57444e-08
3.42453e-07
4.23111e-07
1.54715e-07
2.50474e-07
3.26477e-07
0.00336668
0.00394041
0.00308872
0.00151724
0.000460223
0.000173537
5.65955e-05
2.14378e-05
1.03486e-05
5.01858e-06
2.31809e-06
1.14318e-06
6.52761e-07
4.44791e-07
3.51156e-07
3.10552e-07
2.7744e-07
2.43668e-07
2.2184e-07
2.21114e-07
2.10979e-07
1.8727e-07
1.91108e-07
2.1906e-07
2.47258e-07
2.56605e-07
2.21711e-07
2.17697e-07
2.67743e-07
2.88578e-07
3.0782e-07
2.82883e-07
2.80628e-07
2.77929e-07
2.67979e-07
2.66337e-07
2.65973e-07
2.66828e-07
3.12604e-07
3.16476e-07
3.32677e-07
3.86485e-07
3.48795e-07
4.18562e-07
0.00883152
0.00841147
0.00480902
0.00201079
0.000754937
0.00043133
0.000192249
8.34917e-05
4.14271e-05
1.95125e-05
8.25331e-06
3.37975e-06
1.39773e-06
6.53569e-07
4.01722e-07
3.28434e-07
3.00507e-07
2.77196e-07
2.5828e-07
2.54167e-07
2.49624e-07
2.38658e-07
2.39524e-07
2.51058e-07
2.62847e-07
2.71895e-07
2.74869e-07
2.70967e-07
2.66392e-07
2.72386e-07
2.7937e-07
2.81081e-07
2.77993e-07
2.72105e-07
2.67032e-07
2.65508e-07
2.67367e-07
2.70036e-07
2.81933e-07
2.99149e-07
3.0905e-07
3.28252e-07
3.49704e-07
3.86738e-07
0.0155494
0.012627
0.00651135
0.00270407
0.00132495
0.000961059
0.000529864
0.000236595
0.000115547
5.43921e-05
2.25179e-05
8.57656e-06
3.03837e-06
1.07304e-06
4.89829e-07
3.34642e-07
2.92798e-07
2.78542e-07
2.72628e-07
2.71919e-07
2.69734e-07
2.65952e-07
2.6924e-07
2.73533e-07
2.7469e-07
2.70278e-07
2.69862e-07
2.7171e-07
2.72243e-07
2.7542e-07
2.78428e-07
2.79374e-07
2.77857e-07
2.72971e-07
2.675e-07
2.67954e-07
2.71666e-07
2.80707e-07
2.90731e-07
3.01212e-07
3.11629e-07
3.33545e-07
3.5359e-07
3.89424e-07
0.0199336
0.015571
0.00829811
0.00374165
0.00219644
0.00169214
0.00107995
0.000512912
0.000250224
0.000117866
4.91088e-05
1.81819e-05
5.93586e-06
1.80176e-06
6.41926e-07
3.65754e-07
3.02022e-07
2.86243e-07
2.81696e-07
2.80238e-07
2.7977e-07
2.78471e-07
2.79433e-07
2.79258e-07
2.79435e-07
2.79459e-07
2.77957e-07
2.76094e-07
2.74854e-07
2.77094e-07
2.80689e-07
2.80906e-07
2.79143e-07
2.75185e-07
2.71684e-07
2.71023e-07
2.75178e-07
2.83816e-07
2.93418e-07
3.04475e-07
3.13299e-07
3.31769e-07
3.48987e-07
3.68509e-07
0.0220249
0.0174677
0.0101857
0.00505348
0.00351463
0.00262363
0.00172877
0.000882504
0.000447513
0.000221672
9.43903e-05
3.45152e-05
1.08125e-05
3.02193e-06
9.01438e-07
4.12246e-07
3.10663e-07
2.90647e-07
2.86748e-07
2.84709e-07
2.83473e-07
2.83146e-07
2.83563e-07
2.82845e-07
2.80617e-07
2.76348e-07
2.76163e-07
2.77733e-07
2.78862e-07
2.81357e-07
2.82717e-07
2.82558e-07
2.80773e-07
2.76987e-07
2.74116e-07
2.74696e-07
2.78854e-07
2.87448e-07
2.96229e-07
3.06805e-07
3.14927e-07
3.31898e-07
3.47831e-07
3.6262e-07
0.02304
0.0187154
0.0121022
0.00620842
0.00468424
0.00390748
0.00252025
0.00130097
0.000682675
0.00035438
0.000158394
5.81638e-05
1.76779e-05
4.70143e-06
1.2646e-06
4.82519e-07
3.24054e-07
2.9471e-07
2.88805e-07
2.8713e-07
2.86423e-07
2.85297e-07
2.85445e-07
2.8433e-07
2.8305e-07
2.82017e-07
2.8087e-07
2.80545e-07
2.80814e-07
2.82456e-07
2.84387e-07
2.84154e-07
2.82365e-07
2.78981e-07
2.77311e-07
2.77721e-07
2.81726e-07
2.89852e-07
2.97551e-07
3.0745e-07
3.15661e-07
3.29548e-07
3.4161e-07
3.52007e-07
0.0223463
0.0188613
0.0136862
0.00766159
0.00545651
0.00493733
0.00350379
0.00173968
0.000960096
0.000521798
0.00024688
9.31071e-05
2.80673e-05
7.21882e-06
1.79562e-06
5.82541e-07
3.41329e-07
2.97888e-07
2.90876e-07
2.88654e-07
2.87655e-07
2.87089e-07
2.87053e-07
2.85447e-07
2.83558e-07
2.80625e-07
2.80438e-07
2.81908e-07
2.83251e-07
2.85279e-07
2.85879e-07
2.85382e-07
2.83783e-07
2.81274e-07
2.80006e-07
2.80949e-07
2.84809e-07
2.92166e-07
2.9934e-07
3.0859e-07
3.15131e-07
3.27474e-07
3.38458e-07
3.46186e-07
0.0193792
0.0175723
0.0144782
0.0094034
0.00619339
0.00554971
0.00445833
0.00241744
0.00128048
0.000717929
0.000354039
0.000138
4.178e-05
1.05364e-05
2.48726e-06
7.12685e-07
3.64958e-07
3.03125e-07
2.92297e-07
2.90034e-07
2.89078e-07
2.88293e-07
2.87883e-07
2.86629e-07
2.85421e-07
2.84632e-07
2.84157e-07
2.84468e-07
2.85231e-07
2.86686e-07
2.8711e-07
2.86606e-07
2.85278e-07
2.83365e-07
2.82568e-07
2.83701e-07
2.87325e-07
2.94084e-07
3.0022e-07
3.08464e-07
3.14803e-07
3.25169e-07
3.3398e-07
3.40768e-07
0.0137586
0.0142531
0.0140255
0.010718
0.00721073
0.00588922
0.00516068
0.00327503
0.00165954
0.000930983
0.000482941
0.00019699
6.06175e-05
1.51273e-05
3.42096e-06
8.80516e-07
3.9293e-07
3.07769e-07
2.93412e-07
2.90703e-07
2.8941e-07
2.89162e-07
2.88855e-07
2.8741e-07
2.86277e-07
2.84492e-07
2.84379e-07
2.85599e-07
2.86853e-07
2.88342e-07
2.88173e-07
2.87602e-07
2.86481e-07
2.85338e-07
2.84975e-07
2.86337e-07
2.8979e-07
2.95769e-07
3.01229e-07
3.0871e-07
3.14349e-07
3.23127e-07
3.3057e-07
3.35839e-07
0.00698077
0.00885292
0.0118261
0.0112164
0.00840709
0.00629925
0.00552029
0.00405999
0.00217824
0.00115324
0.00062313
0.000266917
8.4176e-05
2.09026e-05
4.58728e-06
1.08854e-06
4.26884e-07
3.13375e-07
2.94849e-07
2.915e-07
2.90466e-07
2.90113e-07
2.89573e-07
2.88366e-07
2.87669e-07
2.87213e-07
2.87102e-07
2.87592e-07
2.8839e-07
2.89621e-07
2.89276e-07
2.88823e-07
2.88065e-07
2.8728e-07
2.87088e-07
2.88559e-07
2.91701e-07
2.97134e-07
3.01759e-07
3.08221e-07
3.13443e-07
3.21058e-07
3.27534e-07
3.3174e-07
0.00261102
0.00451586
0.00814465
0.0105306
0.00925245
0.00679758
0.00566621
0.00459184
0.00279746
0.0014192
0.000769213
0.000347942
0.000113507
2.82386e-05
6.0518e-06
1.34282e-06
4.66791e-07
3.19523e-07
2.95967e-07
2.92033e-07
2.91073e-07
2.90542e-07
2.90416e-07
2.89428e-07
2.8841e-07
2.87808e-07
2.87788e-07
2.88599e-07
2.89464e-07
2.90661e-07
2.90136e-07
2.89722e-07
2.89306e-07
2.89142e-07
2.89121e-07
2.90581e-07
2.93438e-07
2.98277e-07
3.02217e-07
3.07945e-07
3.12833e-07
3.1945e-07
3.24926e-07
3.28162e-07
0.000778257
0.00197444
0.00494844
0.0084463
0.00944229
0.00734956
0.00576476
0.00484951
0.00333684
0.00170926
0.000905675
0.000434436
0.000147338
3.69087e-05
7.77684e-06
1.64017e-06
5.1303e-07
3.26466e-07
2.97387e-07
2.92786e-07
2.91849e-07
2.91275e-07
2.91152e-07
2.90172e-07
2.89588e-07
2.89446e-07
2.89557e-07
2.89981e-07
2.90602e-07
2.91596e-07
2.91063e-07
2.90832e-07
2.90827e-07
2.90787e-07
2.90766e-07
2.9222e-07
2.94739e-07
2.99009e-07
3.02438e-07
3.07374e-07
3.11818e-07
3.17491e-07
3.22491e-07
3.25437e-07
0.000225512
0.000795019
0.00275374
0.00602311
0.0087528
0.00785194
0.00585406
0.00491622
0.00368952
0.00206215
0.00103653
0.000518173
0.000184096
4.68741e-05
9.78186e-06
1.9819e-06
5.64914e-07
3.33926e-07
2.98747e-07
2.93429e-07
2.92304e-07
2.92104e-07
2.91795e-07
2.90876e-07
2.90388e-07
2.90215e-07
2.90223e-07
2.90754e-07
2.91408e-07
2.9229e-07
2.91788e-07
2.9163e-07
2.91876e-07
2.9217e-07
2.92352e-07
2.9375e-07
2.9596e-07
2.9965e-07
3.02738e-07
3.06962e-07
3.11184e-07
3.16209e-07
3.20499e-07
3.23058e-07
0.000107602
0.000335243
0.00143555
0.00399598
0.0071902
0.0079732
0.00596533
0.00490582
0.00384372
0.00235824
0.00117054
0.000597002
0.000222852
5.78253e-05
1.20095e-05
2.35935e-06
6.21355e-07
3.41826e-07
3.00201e-07
2.94085e-07
2.92845e-07
2.92744e-07
2.92395e-07
2.91444e-07
2.91217e-07
2.91112e-07
2.91356e-07
2.91715e-07
2.92186e-07
2.9298e-07
2.92617e-07
2.92556e-07
2.92916e-07
2.93351e-07
2.93567e-07
2.949e-07
2.96809e-07
2.99987e-07
3.02858e-07
3.06545e-07
3.10252e-07
3.14633e-07
3.18414e-07
3.21117e-07
0.000101153
0.000173986
0.000732955
0.00249612
0.00542892
0.00754572
0.00606932
0.00480032
0.00387284
0.00257841
0.00129199
0.000663237
0.000262379
6.99619e-05
1.4517e-05
2.77972e-06
6.82871e-07
3.50186e-07
3.01629e-07
2.94672e-07
2.93415e-07
2.9325e-07
2.92898e-07
2.92087e-07
2.92002e-07
2.918e-07
2.91947e-07
2.9227e-07
2.92715e-07
2.93513e-07
2.93227e-07
2.9322e-07
2.93689e-07
2.9423e-07
2.94599e-07
2.95915e-07
2.97595e-07
3.00313e-07
3.02966e-07
3.06252e-07
3.09646e-07
3.13666e-07