/*--------------------------------*- C++ -*----------------------------------*\
| =========                 |                                                 |
| \\      /  F ield         | OpenFOAM: The Open Source CFD Toolbox           |
|  \\    /   O peration     | Version:  v1912                                 |
|   \\  /    A nd           | Website:  www.openfoam.com                      |
|    \\/     M anipulation  |                                                 |
\*---------------------------------------------------------------------------*/
FoamFile
{
    version     2.0;
    format      ascii;
    class       volScalarField;
    location    "90";
    object      p_rgh;
}
// * * * * * * * * * * * * * * * * * * * * * * * * * * * * * * * * * * * * * //

dimensions      [1 -1 -2 0 0 0 0];


internalField   nonuniform List<scalar> 
14268
(
3893.98
3192.87
2532.63
1924.21
1374.12
885.182
456.928
86.9445
-229.866
-499.944
-728.411
-919.442
-1078.07
-1210.08
-1322.21
-1421.11
-1510.41
-1592.91
-1665.32
-1724.74
-1771.46
-1801.7
-1838.41
-1879.4
-1931.11
-1984.07
-1993.81
-1969.78
-1918.99
-1845.68
-1753.06
-1635.4
-1482.12
-1284.63
-1036.96
-739.648
-398.101
-23.7303
372.066
784.578
1212.7
1662.43
2127.74
2607.3
3893.97
3192.87
2532.62
1924.2
1374.11
885.175
456.921
86.9384
-229.872
-499.949
-728.415
-919.446
-1078.07
-1210.09
-1322.21
-1421.11
-1510.41
-1592.91
-1665.32
-1724.75
-1771.46
-1801.7
-1838.41
-1879.4
-1931.11
-1984.08
-1993.81
-1969.79
-1918.99
-1845.68
-1753.06
-1635.4
-1482.13
-1284.64
-1036.97
-739.652
-398.105
-23.7332
372.064
784.576
1212.7
1662.43
2127.74
2607.25
3893.96
3192.85
2532.61
1924.19
1374.1
885.16
456.907
86.9261
-229.882
-499.958
-728.424
-919.453
-1078.08
-1210.09
-1322.21
-1421.11
-1510.41
-1592.91
-1665.32
-1724.75
-1771.46
-1801.71
-1838.41
-1879.41
-1931.12
-1984.09
-1993.82
-1969.79
-1919
-1845.69
-1753.07
-1635.41
-1482.14
-1284.65
-1036.98
-739.662
-398.112
-23.7386
372.059
784.57
1212.7
1662.42
2127.73
2607.24
3893.95
3192.84
2532.59
1924.17
1374.07
885.137
456.887
86.9077
-229.899
-499.973
-728.437
-919.464
-1078.09
-1210.1
-1322.22
-1421.11
-1510.41
-1592.91
-1665.33
-1724.75
-1771.47
-1801.71
-1838.41
-1879.41
-1931.13
-1984.1
-1993.83
-1969.8
-1919.01
-1845.7
-1753.08
-1635.42
-1482.15
-1284.66
-1037
-739.675
-398.123
-23.7471
372.052
784.562
1212.69
1662.42
2127.73
2607.2
3893.93
3192.81
2532.56
1924.13
1374.04
885.107
456.859
86.8831
-229.921
-499.992
-728.454
-919.479
-1078.1
-1210.11
-1322.22
-1421.12
-1510.41
-1592.92
-1665.33
-1724.76
-1771.47
-1801.71
-1838.41
-1879.42
-1931.14
-1984.12
-1993.84
-1969.81
-1919.02
-1845.71
-1753.09
-1635.44
-1482.17
-1284.68
-1037.02
-739.694
-398.137
-23.7582
372.042
784.552
1212.68
1662.41
2127.72
2607.17
3893.9
3192.78
2532.52
1924.1
1374
885.07
456.824
86.8524
-229.948
-500.016
-728.475
-919.497
-1078.12
-1210.12
-1322.23
-1421.12
-1510.42
-1592.92
-1665.34
-1724.77
-1771.48
-1801.72
-1838.41
-1879.43
-1931.16
-1984.14
-1993.86
-1969.83
-1919.03
-1845.72
-1753.11
-1635.46
-1482.19
-1284.71
-1037.04
-739.717
-398.155
-23.7717
372.03
784.539
1212.66
1662.39
2127.72
2607.13
3893.87
3192.74
2532.48
1924.05
1373.96
885.024
456.782
86.8156
-229.98
-500.045
-728.501
-919.519
-1078.13
-1210.13
-1322.24
-1421.13
-1510.42
-1592.93
-1665.35
-1724.78
-1771.48
-1801.72
-1838.42
-1879.44
-1931.18
-1984.17
-1993.88
-1969.84
-1919.04
-1845.73
-1753.13
-1635.48
-1482.22
-1284.74
-1037.07
-739.744
-398.176
-23.7887
372.016
784.523
1212.65
1662.38
2127.71
2607.1
3893.84
3192.69
2532.42
1923.99
1373.9
884.972
456.733
86.7727
-230.019
-500.079
-728.531
-919.545
-1078.15
-1210.15
-1322.25
-1421.13
-1510.43
-1592.94
-1665.36
-1724.79
-1771.49
-1801.73
-1838.42
-1879.45
-1931.21
-1984.2
-1993.91
-1969.86
-1919.06
-1845.75
-1753.15
-1635.51
-1482.26
-1284.78
-1037.11
-739.776
-398.201
-23.8082
371.999
784.505
1212.63
1662.36
2127.7
2607.06
3893.8
3192.64
2532.36
1923.93
1373.84
884.911
456.678
86.7236
-230.062
-500.118
-728.565
-919.574
-1078.18
-1210.16
-1322.26
-1421.14
-1510.44
-1592.95
-1665.37
-1724.8
-1771.5
-1801.73
-1838.42
-1879.47
-1931.24
-1984.23
-1993.94
-1969.88
-1919.08
-1845.77
-1753.17
-1635.55
-1482.3
-1284.82
-1037.15
-739.813
-398.229
-23.8302
371.98
784.484
1212.6
1662.34
2127.69
2607.02
3893.75
3192.58
2532.3
1923.86
1373.77
884.844
456.615
86.6684
-230.111
-500.161
-728.603
-919.607
-1078.2
-1210.18
-1322.27
-1421.15
-1510.44
-1592.96
-1665.38
-1724.81
-1771.51
-1801.74
-1838.43
-1879.48
-1931.27
-1984.27
-1993.97
-1969.91
-1919.1
-1845.79
-1753.2
-1635.58
-1482.34
-1284.87
-1037.2
-739.853
-398.261
-23.855
371.957
784.46
1212.58
1662.32
2127.68
2606.99
3893.7
3192.51
2532.22
1923.78
1373.69
884.768
456.545
86.6071
-230.166
-500.209
-728.646
-919.644
-1078.23
-1210.2
-1322.29
-1421.16
-1510.45
-1592.97
-1665.4
-1724.83
-1771.53
-1801.75
-1838.43
-1879.5
-1931.31
-1984.32
-1994.01
-1969.94
-1919.13
-1845.82
-1753.23
-1635.62
-1482.39
-1284.93
-1037.25
-739.899
-398.297
-23.8827
371.934
784.433
1212.55
1662.29
2127.66
2606.95
3893.65
3192.44
2532.14
1923.69
1373.6
884.686
456.469
86.5396
-230.225
-500.262
-728.692
-919.684
-1078.27
-1210.23
-1322.31
-1421.17
-1510.46
-1592.98
-1665.41
-1724.85
-1771.54
-1801.76
-1838.44
-1879.52
-1931.35
-1984.37
-1994.05
-1969.97
-1919.16
-1845.85
-1753.27
-1635.67
-1482.44
-1284.98
-1037.31
-739.949
-398.336
-23.9133
371.908
784.405
1212.52
1662.27
2127.65
2606.91
3893.59
3192.36
2532.05
1923.6
1373.51
884.596
456.385
86.466
-230.291
-500.32
-728.744
-919.728
-1078.3
-1210.25
-1322.32
-1421.18
-1510.47
-1592.99
-1665.43
-1724.87
-1771.55
-1801.77
-1838.44
-1879.54
-1931.39
-1984.42
-1994.09
-1970
-1919.19
-1845.88
-1753.3
-1635.72
-1482.5
-1285.05
-1037.37
-740.004
-398.378
-23.9465
371.878
784.373
1212.49
1662.24
2127.63
2606.88
3893.52
3192.28
2531.95
1923.5
1373.41
884.498
456.294
86.3863
-230.362
-500.383
-728.799
-919.776
-1078.34
-1210.28
-1322.34
-1421.19
-1510.49
-1593.01
-1665.45
-1724.89
-1771.57
-1801.78
-1838.45
-1879.57
-1931.44
-1984.48
-1994.14
-1970.04
-1919.22
-1845.91
-1753.34
-1635.77
-1482.57
-1285.12
-1037.44
-740.063
-398.424
-23.9825
371.847
784.338
1212.45
1662.2
2127.62
2606.84
3893.42
3192.14
2531.8
1923.33
1373.24
884.34
456.148
86.2576
-230.476
-500.484
-728.888
-919.853
-1078.4
-1210.33
-1322.37
-1421.21
-1510.5
-1593.03
-1665.48
-1724.92
-1771.59
-1801.79
-1838.46
-1879.61
-1931.52
-1984.57
-1994.22
-1970.1
-1919.27
-1845.96
-1753.41
-1635.85
-1482.67
-1285.23
-1037.54
-740.159
-398.499
-24.0409
371.798
784.283
1212.39
1662.15
2127.59
2606.79
3893.26
3191.93
2531.56
1923.08
1372.99
884.1
455.926
86.0616
-230.65
-500.639
-729.025
-919.97
-1078.5
-1210.4
-1322.42
-1421.24
-1510.53
-1593.07
-1665.53
-1724.97
-1771.63
-1801.82
-1838.47
-1879.67
-1931.64
-1984.71
-1994.33
-1970.18
-1919.35
-1846.05
-1753.51
-1635.98
-1482.83
-1285.4
-1037.71
-740.304
-398.612
-24.1292
371.722
784.199
1212.3
1662.07
2127.55
2606.73
3893.08
3191.7
2531.29
1922.8
1372.71
883.829
455.675
85.8409
-230.846
-500.813
-729.178
-920.102
-1078.61
-1210.48
-1322.47
-1421.28
-1510.56
-1593.11
-1665.58
-1725.03
-1771.68
-1801.85
-1838.49
-1879.73
-1931.77
-1984.87
-1994.47
-1970.29
-1919.44
-1846.14
-1753.62
-1636.13
-1483
-1285.59
-1037.9
-740.47
-398.74
-24.2294
371.635
784.104
1212.2
1661.98
2127.5
2606.67
3892.88
3191.44
2530.99
1922.48
1372.39
883.528
455.396
85.5956
-231.064
-501.006
-729.349
-920.249
-1078.72
-1210.57
-1322.53
-1421.32
-1510.6
-1593.15
-1665.64
-1725.09
-1771.72
-1801.88
-1838.5
-1879.81
-1931.91
-1985.05
-1994.61
-1970.4
-1919.54
-1846.24
-1753.75
-1636.29
-1483.2
-1285.81
-1038.1
-740.651
-398.881
-24.3386
371.54
783.997
1212.09
1661.88
2127.45
2606.61
3892.66
3191.15
2530.66
1922.14
1372.05
883.197
455.09
85.3258
-231.303
-501.218
-729.536
-920.41
-1078.85
-1210.66
-1322.59
-1421.36
-1510.64
-1593.2
-1665.7
-1725.16
-1771.78
-1801.92
-1838.52
-1879.89
-1932.08
-1985.25
-1994.77
-1970.52
-1919.64
-1846.35
-1753.88
-1636.47
-1483.42
-1286.04
-1038.33
-740.853
-399.038
-24.4631
371.431
783.882
1211.97
1661.77
2127.39
2606.57
3892.42
3190.83
2530.3
1921.76
1371.67
882.836
454.755
85.0314
-231.565
-501.45
-729.741
-920.586
-1079
-1210.77
-1322.66
-1421.4
-1510.68
-1593.25
-1665.77
-1725.23
-1771.84
-1801.96
-1838.54
-1879.98
-1932.26
-1985.45
-1994.95
-1970.65
-1919.76
-1846.47
-1754.03
-1636.67
-1483.65
-1286.3
-1038.58
-741.072
-399.21
-24.5969
371.315
783.756
1211.84
1661.65
2127.34
2606.52
3892.17
3190.5
2529.92
1921.35
1371.27
882.446
454.394
84.7132
-231.847
-501.701
-729.962
-920.777
-1079.15
-1210.88
-1322.74
-1421.45
-1510.72
-1593.31
-1665.85
-1725.31
-1771.9
-1802
-1838.56
-1880.07
-1932.45
-1985.73
-1995.14
-1970.8
-1919.89
-1846.6
-1754.2
-1636.88
-1483.91
-1286.58
-1038.85
-741.308
-399.392
-24.7388
371.194
783.619
1211.69
1661.52
2127.27
2606.47
3890.21
3187.88
2526.91
1918.17
1368.09
879.392
451.559
82.2141
-234.068
-503.673
-731.704
-922.276
-1080.37
-1211.78
-1323.33
-1421.84
-1511.08
-1593.76
-1666.44
-1725.95
-1772.39
-1802.33
-1838.73
-1880.82
-1933.96
-1988.27
-1996.63
-1971.94
-1920.88
-1847.64
-1755.48
-1638.55
-1485.92
-1288.77
-1040.98
-743.189
-400.845
-25.8666
370.227
782.538
1210.55
1660.49
2126.78
2605.98
3883.03
3178.27
2515.85
1906.48
1356.4
868.164
441.128
73.0445
-242.228
-510.919
-738.11
-927.795
-1084.84
-1215.07
-1325.53
-1423.28
-1512.4
-1595.45
-1668.67
-1728.33
-1774.21
-1803.58
-1839.35
-1883.6
-1939.98
-1994.12
-2002.12
-1976.18
-1924.4
-1851.29
-1760.04
-1644.6
-1493.3
-1296.86
-1048.82
-750.094
-406.206
-29.9655
366.425
778.657
1206.38
1656.73
2125.08
2606.63
3871.66
3163.42
2498.96
1888.72
1338.7
851.192
425.385
59.2997
-254.447
-521.763
-747.696
-936.055
-1091.51
-1219.96
-1328.71
-1425.23
-1514.25
-1597.95
-1672.03
-1731.93
-1776.95
-1805.55
-1840.08
-1887.87
-1947.84
-2004.85
-2010.04
-1982.15
-1930.1
-1856.86
-1766.99
-1653.79
-1504.46
-1309.02
-1060.54
-760.348
-414.11
-36.1924
361.097
772.394
1199.87
1651.04
2122.27
2608.63
3856.33
3143.43
2476.26
1864.92
1315.05
828.56
404.345
41.0529
-270.712
-536.208
-760.488
-947.104
-1100.46
-1226.51
-1333.01
-1427.99
-1516.89
-1601.28
-1676.55
-1736.73
-1780.68
-1808.13
-1840.95
-1893.27
-1958.53
-2016.77
-2021.26
-1990.7
-1936.57
-1864.12
-1776.13
-1666.06
-1519.49
-1325.46
-1076.46
-774.236
-424.815
-44.2749
354.042
763.97
1190.91
1643.3
2118.31
2611.12
3836.65
3118.03
2447.58
1834.95
1285.31
800.136
377.882
18.3589
-290.974
-554.204
-776.444
-960.909
-1111.62
-1234.58
-1338.1
-1430.79
-1519.55
-1605.34
-1682.36
-1742.91
-1785.39
-1811.1
-1842.35
-1898.89
-1971.2
-2029.54
-2030.68
-1999.23
-1944.23
-1872.54
-1787.43
-1681.5
-1538.51
-1346.25
-1096.51
-791.45
-438.19
-54.4438
345.154
754.231
1179.92
1632.83
2112.7
2614.12
3812.7
3087.22
2412.88
1798.79
1249.54
766.008
345.934
-8.65822
-315.257
-575.78
-795.636
-977.584
-1125.15
-1244.34
-1344.26
-1434.46
-1523.43
-1610.52
-1689.49
-1750.7
-1791.07
-1813.39
-1844.91
-1903.53
-1980.65
-2041.04
-2041.41
-2007.18
-1951.32
-1881.44
-1800.66
-1700.27
-1562.03
-1372.1
-1121.85
-812.739
-454.544
-66.8162
334.409
742.268
1166.27
1620.58
2105.87
2617.1
3783.73
3050.43
2371.73
1756.11
1207.42
725.987
308.211
-39.8627
-343.543
-600.878
-818.004
-997.083
-1140.94
-1255.55
-1350.96
-1437.65
-1526.33
-1615.96
-1697.81
-1759.89
-1797.93
-1817.08
-1848.62
-1907.67
-1988.84
-2050.99
-2049.2
-2014.54
-1958.57
-1890.86
-1815.44
-1722.05
-1589.82
-1403
-1151.62
-837.994
-474.05
-81.0536
321.512
727.77
1149.37
1605.77
2098.05
2620.82
3749.82
3007.65
2324.11
1706.94
1159.05
680.172
266.939
-77.4198
-375.88
-629.5
-843.635
-1019.57
-1159.2
-1268.46
-1358.55
-1441.43
-1531.13
-1623.3
-1708.21
-1771.55
-1806.72
-1822.75
-1852.51
-1911.41
-1996.53
-2056.79
-2054.7
-2019.27
-1964.65
-1900.45
-1831.82
-1747.43
-1622.96
-1440.22
-1187.76
-868.157
-496.561
-97.5555
307.222
710.648
1129.12
1587.01
2087.71
2625.54
3709.96
2958.08
2269.41
1650.8
1104.09
628.296
220.245
-119.566
-412.146
-661.55
-872.448
-1045
-1179.86
-1282.76
-1366.27
-1444.48
-1533.72
-1630.24
-1719.25
-1783.52
-1816.49
-1831.49
-1861.39
-1915.93
-2001.9
-2056.92
-2059.7
-2020.65
-1967.01
-1907.63
-1848.97
-1776.58
-1661.98
-1484.41
-1230.45
-904.002
-522.479
-116.112
290.882
690.907
1104.73
1564.36
2075.19
2630.18
3664.53
2901.93
2207.8
1587.8
1042.51
570.241
168.054
-166.233
-452.314
-697.027
-904.558
-1073.64
-1203.23
-1298.73
-1374.63
-1448.43
-1538.01
-1639.43
-1733.82
-1800.82
-1831.83
-1845.08
-1873.4
-1926.28
-2005.77
-2061.54
-2058.62
-2024.15
-1969.81
-1916.8
-1870.19
-1812.31
-1708.82
-1536.88
-1281.31
-946.666
-553.354
-137.105
271.924
667.995
1076.35
1535.84
2060.51
2634.95
3611.65
2837.85
2138.33
1517.42
974.187
506.092
110.562
-217.085
-496.073
-735.772
-939.881
-1105.49
-1229.23
-1315.98
-1382.52
-1450.38
-1540.98
-1648.56
-1748.45
-1816.3
-1845.18
-1856.32
-1882.94
-1937.74
-2008.25
-2064.42
-2056.07
-2017.75
-1966.51
-1920.81
-1889.15
-1845.57
-1759.66
-1596.36
-1340.28
-996.286
-589.858
-162.342
250.047
641.123
1042.08
1503.09
2044.3
2638.47
3553.41
2767.53
2062.36
1440.3
898.629
434.208
45.7944
-273.936
-544.797
-778.692
-979.25
-1141.49
-1259.08
-1336.02
-1391.97
-1453.38
-1545.32
-1659.93
-1766.68
-1836.71
-1862.34
-1869.85
-1896.83
-1951.07
-2024.34
-2070.76
-2064.37
-2017.9
-1963.68
-1930.19
-1919.29
-1898.82
-1828.66
-1672.82
-1413.11
-1055.46
-633.935
-195.423
220.632
607.523
1001.88
1465.21
2022.36
2641.54
3485.77
2688.37
1979.56
1360.94
827.485
375.603
4.6399
-296.08
-546.547
-759.85
-940.345
-1083.66
-1182.37
-1237.7
-1271.91
-1315.08
-1395.47
-1505.83
-1615.39
-1692.58
-1727.74
-1731.86
-1688.04
-1606.14
-1587.65
-1630.21
-1700.25
-1731.42
-1740.13
-1745.99
-1755.54
-1751.3
-1708.46
-1598.73
-1402.17
-1097.26
-687.426
-237.683
181.599
566.529
958.733
1422.27
1992.17
2639.81
3414.59
2615.34
1921.5
1341.83
871.876
511.1
255.217
87.0536
-19.8354
-85.04
-129.394
-160.896
-180.399
-188.809
-193.453
-202.513
-222.492
-250.414
-276.434
-290.621
-295.823
-294.003
-272.605
-229.998
-184.944
-175.505
-198.315
-239.992
-274.308
-292.625
-299.341
-298.205
-295.648
-293.643
-279.61
-220.234
-73.2409
180.546
447.106
708.595
1007.19
1398.7
1960.04
2640.74
3368.32
2601.31
1992.57
1512.11
1133.68
848.781
648.237
513.698
422.147
356.997
305.396
265.896
241.432
231.863
228.41
219.885
194.305
156.626
122.187
101.59
96.4565
99.0714
113.686
137.333
155.988
156.204
142.041
121.78
107.115
96.286
84.9809
78.7684
81.6564
99.4128
141.081
227.103
377.552
599.427
825.48
1032.71
1263.05
1579.04
2069.63
2709.2
2284.18
1325.9
773.909
444.881
233.392
107.216
41.9463
15.8519
9.29481
8.74557
8.89226
8.98093
8.77424
8.14693
7.70774
7.7873
8.95318
10.1478
10.3406
9.21506
8.3399
8.49442
11.6094
15.5343
21.863
24.1917
20.9627
15.4419
10.8383
8.05207
6.48515
6.2953
6.83994
8.29595
11.2981
18.1069
31.5845
54.7863
91.2045
142.502
222.599
383.68
776.341
1564.09
286.864
29.8008
2.82847
2.1761
2.24733
2.17495
2.22389
2.65267
2.79048
2.41243
2.23118
2.12193
2.03523
1.93297
1.80547
1.65626
1.58531
1.76412
2.05237
2.26898
2.19904
1.80433
1.55909
1.66457
2.26865
3.39935
3.57192
3.03032
2.66089
2.02793
1.91104
2.28488
2.65802
2.79542
2.71215
2.5267
2.51469
3.39957
5.53901
7.90943
10.9658
16.0492
24.0548
58.3972
0.51313
0.971117
1.76158
1.63131
1.70024
1.70943
1.82904
2.15625
2.2372
2.02665
1.89104
1.80014
1.71663
1.62529
1.51098
1.41171
1.37136
1.45237
1.61572
1.74446
1.67419
1.48332
1.31116
1.42191
1.50536
1.55015
1.5629
1.37794
1.29168
1.42964
1.74513
2.10733
2.43999
2.56509
2.47553
2.0866
1.53978
1.11415
1.13048
1.24937
1.35545
1.67594
1.20152
1.51507
0.327764
1.02083
1.51146
1.46432
1.57615
1.6042
1.74916
2.03154
2.10042
1.94952
1.83171
1.751
1.67848
1.5925
1.49441
1.39925
1.34557
1.42115
1.56456
1.6656
1.6142
1.46912
1.35293
1.43474
1.47208
1.48664
1.46718
1.31431
1.19759
1.35449
1.66706
2.00246
2.28196
2.37133
2.25514
1.95926
1.5689
1.26216
1.0615
1.05326
1.06062
1.04732
0.444568
0.135513
0.16076
0.900467
1.31775
1.34347
1.47031
1.52854
1.67516
1.91105
1.98014
1.87336
1.77705
1.70219
1.63304
1.55844
1.47672
1.40076
1.37569
1.43089
1.53359
1.61225
1.57155
1.45465
1.34681
1.39967
1.45378
1.46195
1.45331
1.34677
1.29668
1.41519
1.66132
1.94191
2.17133
2.24429
2.14277
1.87533
1.5064
1.13914
1.00792
1.02623
0.982762
0.949012
0.454092
0.180778
0.0517749
0.721382
1.13114
1.2493
1.37606
1.45167
1.59818
1.79349
1.86224
1.79477
1.71985
1.65504
1.5949
1.5282
1.45735
1.39311
1.36159
1.40624
1.49643
1.56174
1.5307
1.44039
1.36338
1.40539
1.42758
1.4351
1.4324
1.33991
1.28217
1.39579
1.62368
1.8719
2.0675
2.12759
2.03348
1.80177
1.49015
1.23289
1.05165
1.00183
0.924278
0.857033
0.425814
0.177824
-0.0396276
0.575913
0.971914
1.14503
1.27414
1.36706
1.51602
1.68492
1.75513
1.71845
1.66292
1.60854
1.55582
1.49766
1.43712
1.38498
1.36525
1.40246
1.47012
1.51964
1.49561
1.42555
1.35615
1.37749
1.40685
1.42048
1.414
1.35224
1.33891
1.4278
1.60848
1.81028
1.96965
2.01939
1.93364
1.72927
1.44999
1.17518
1.0195
0.973321
0.871763
0.777534
0.402342
0.129458
-0.126356
0.438876
0.826267
1.02936
1.16557
1.28213
1.4322
1.58301
1.65606
1.64397
1.60548
1.56252
1.51658
1.46721
1.41577
1.37282
1.35425
1.3824
1.43785
1.47927
1.46167
1.4069
1.35538
1.37473
1.38641
1.39271
1.38777
1.34302
1.31783
1.40825
1.57439
1.7519
1.886
1.92233
1.8422
1.66121
1.41353
1.18686
1.02127
0.94125
0.825349
0.711762
0.37835
0.122707
-0.21585
0.313286
0.690408
0.91559
1.0636
1.19689
1.34797
1.48837
1.56486
1.57168
1.54902
1.51693
1.47867
1.43703
1.39435
1.35969
1.34472
1.36918
1.41322
1.44492
1.43134
1.38886
1.34539
1.35082
1.36703
1.37886
1.37351
1.34516
1.35037
1.41535
1.5484
1.69684
1.80568
1.83404
1.76007
1.59693
1.37512
1.16097
1.00218
0.909507
0.782427
0.647527
0.349266
0.0819352
-0.302462
0.198688
0.565368
0.806232
0.968416
1.11268
1.26489
1.39876
1.47921
1.50162
1.49348
1.47112
1.44055
1.4061
1.37096
1.34273
1.33141
1.3507
1.38552
1.41138
1.40165
1.3688
1.33538
1.33952
1.34805
1.35336
1.3521
1.33229
1.3277
1.39992
1.5184
1.64434
1.73344
1.75266
1.68317
1.53619
1.33618
1.14151
0.984913
0.877499
0.74289
0.595176
0.322956
0.0605349
-0.384342
0.0920264
0.452039
0.701918
0.878648
1.0314
1.18392
1.31321
1.39783
1.43363
1.4386
1.42599
1.40329
1.37592
1.34753
1.32502
1.31694
1.33275
1.36106
1.3819
1.37495
1.34901
1.32209
1.32215
1.32957
1.33925
1.33749
1.3276
1.33788
1.38814
1.48833
1.59414
1.66652
1.67789
1.61267
1.47846
1.2968
1.11717
0.963329
0.845739
0.705478
0.546295
0.293991
0.0337754
-0.463191
-0.00796406
0.348357
0.603438
0.793469
0.954288
1.10566
1.23227
1.32063
1.36758
1.38495
1.38165
1.3663
1.34549
1.32324
1.30573
1.30022
1.31354
1.3365
1.35312
1.34835
1.32848
1.30754
1.30632
1.3113
1.31552
1.31615
1.31178
1.32003
1.37312
1.45787
1.54628
1.60437
1.60922
1.54646
1.42368
1.25747
1.09049
0.940082
0.814512
0.669941
0.503408
0.266484
0.0103579
-0.538077
-0.0993985
0.251835
0.511042
0.712778
0.881173
1.03095
1.15576
1.24785
1.30449
1.33229
1.33821
1.32992
1.31543
1.29891
1.28577
1.28257
1.29391
1.31266
1.3265
1.32374
1.30823
1.29158
1.28951
1.29364
1.30027
1.30176
1.30279
1.31253
1.35531
1.42725
1.50046
1.54639
1.54568
1.48473
1.37151
1.21833
1.06201
0.914805
0.783837
0.636226
0.464918
0.238802
-0.0122974
-0.607451
-0.183722
0.161853
0.423958
0.635317
0.811059
0.960654
1.08389
1.17918
1.24449
1.28116
1.29593
1.2942
1.28538
1.27379
1.26461
1.2635
1.27363
1.28931
1.30083
1.29914
1.28765
1.27463
1.27218
1.27499
1.27838
1.28052
1.28322
1.29701
1.33604
1.39655
1.45665
1.49205
1.48634
1.42704
1.32168
1.17967
1.03228
0.888341
0.753862
0.603944
0.430207
0.212428
-0.0334766
-0.672022
-0.262122
0.0782903
0.343049
0.560449
0.742785
0.895245
1.0164
1.11474
1.18752
1.23226
1.25452
1.25914
1.25567
1.24876
1.24317
1.24384
1.25307
1.26638
1.27624
1.27587
1.26718
1.25691
1.25472
1.25715
1.26232
1.26568
1.27108
1.28157
1.31528
1.36586
1.41466
1.44101
1.43086
1.3729
1.27408
1.14158
1.00181
0.861011
0.724452
0.573293
0.398602
0.187127
-0.0531441
-0.732859
-0.334655
0.000310869
0.267276
0.488155
0.676159
0.83446
0.953991
1.05472
1.13363
1.18554
1.21415
1.22471
1.22608
1.22336
1.22096
1.22335
1.23213
1.24376
1.25241
1.25287
1.24665
1.23854
1.23671
1.23816
1.24155
1.24436
1.246
1.26351
1.29335
1.33526
1.3743
1.39288
1.37872
1.32194
1.22854
1.1042
0.970915
0.833242
0.695778
0.543988
0.369628
0.163486
-0.0713457
-0.790032
-0.403773
-0.0736131
0.194995
0.419158
0.612355
0.77603
0.897601
0.999192
1.08326
1.14108
1.17523
1.19112
1.19696
1.19809
1.19861
1.20246
1.211
1.22142
1.22921
1.23047
1.22603
1.22005
1.21852
1.21995
1.22456
1.22914
1.23476
1.24513
1.27059
1.30487
1.33549
1.34733
1.32967
1.27378
1.18496
1.06761
0.939911
0.80533
0.667796
0.516092
0.342745
0.141286
-0.0879425
-0.845093
-0.468806
-0.143478
0.1262
0.353345
0.55177
0.719275
0.847616
0.948188
1.03651
1.0989
1.13781
1.15839
1.16814
1.17265
1.17587
1.18115
1.18969
1.19931
1.20654
1.2084
1.20535
1.20136
1.20004
1.20088
1.20415
1.20723
1.2125
1.2254
1.24715
1.27478
1.29809
1.30401
1.28331
1.2282
1.14319
1.03187
0.909038
0.777513
0.640545
0.489499
0.317903
0.120815
-0.102877
-0.896424
-0.529144
-0.209157
0.0605795
0.290937
0.494012
0.665623
0.801294
0.90202
0.993448
1.05904
1.10192
1.12653
1.13986
1.14741
1.15303
1.15963
1.16829
1.17742
1.18429
1.18669
1.18489
1.18234
1.18134
1.18244
1.18604
1.1911
1.19476
1.20506
1.22327
1.24504
1.26199
1.26276
1.23943
1.18491
1.10316
0.997032
0.878511
0.749969
0.614128
0.464147
0.294685
0.101783
-0.116294
-0.94419
-0.586753
-0.272099
-0.00265024
0.231498
0.439
0.614725
0.755663
0.861177
0.95344
1.0215
1.06755
1.09554
1.11205
1.12236
1.1301
1.13794
1.14685
1.1557
1.16239
1.16529
1.16457
1.16309
1.16245
1.16352
1.16574
1.16576
1.17468
1.18402
1.1991
1.2157
1.22709
1.22337
1.19771
1.14372
1.06473
0.963128
0.848457
0.722848
0.588501
0.440039
0.27312
0.084382
-0.128129
-0.991514
-0.642501
-0.332405
-0.0637071
0.174191
0.38769
0.566466
0.712545
0.825028
0.916102
0.986265
1.03465
1.06545
1.08475
1.09752
1.1072
1.11616
1.1254
1.13416
1.14079
1.14415
1.14436
1.14372
1.1434
1.14479
1.14666
1.15062
1.15486
1.16257
1.17474
1.18678
1.19329
1.1857
1.15802
1.10444
1.02784
0.930196
0.819015
0.696251
0.563682
0.417081
0.25292
0.0683181
-0.138474
-1.03906
-0.696781
-0.390715
-0.122509
0.119962
0.338063
0.520307
0.671082
0.791157
0.881179
0.953152
1.00315
1.03627
1.05798
1.07291
1.08431
1.09435
1.10398
1.11277
1.11945
1.12323
1.12423
1.12426
1.12426
1.1259
1.12693
1.13041
1.13463
1.14072
1.15029
1.15831
1.1605
1.14963
1.12007
1.06692
0.992396
0.898231
0.790244
0.670273
0.539726
0.395271
0.234131
0.0537544
-0.147457
-1.08598
-0.75099
-0.447809
-0.178774
0.0676877
0.290131
0.477356
0.631952
0.75914
0.84847
0.921977
0.973026
1.00799
1.03175
1.04859
1.06149
1.07257
1.08264
1.09155
1.09834
1.10251
1.10417
1.10473
1.10509
1.10676
1.10756
1.11066
1.11426
1.11871
1.12581
1.13033
1.1287
1.11499
1.08378
1.03103
0.958334
0.867248
0.762224
0.644962
0.516593
0.374516
0.216533
0.0404219
-0.155172
-1.13483
-0.804591
-0.503503
-0.233454
0.016247
0.246884
0.437222
0.595232
0.726779
0.818466
0.892662
0.944071
0.980513
1.00605
1.02457
1.03884
1.05084
1.06138
1.07047
1.07744
1.08197
1.08419
1.08521
1.08585
1.08738
1.08831
1.09066
1.09371
1.09658
1.1013
1.10284
1.09784
1.08165
1.04899
0.996623
0.925582
0.837238
0.734981
0.620382
0.494352
0.354842
0.200177
0.028372
-0.161646
-1.18544
-0.859356
-0.558726
-0.286961
-0.0310243
0.204741
0.396505
0.560493
0.694637
0.790495
0.864497
0.916193
0.953833
0.980864
1.00086
1.01642
1.02923
1.04023
1.04955
1.05673
1.06159
1.06429
1.06571
1.06658
1.06784
1.06913
1.07044
1.07297
1.07448
1.07682
1.07587
1.0679
1.04952
1.01561
0.963612
0.894071
0.808204
0.708542
0.596545
0.472942
0.336128
0.184883
0.0174079
-0.166928
-1.23911
-0.915005
-0.614348
-0.337942
-0.0758232
0.161691
0.359961
0.529328
0.665113
0.763279
0.837375
0.889333
0.927908
0.95623
0.977506
0.994138
1.00774
1.01921
1.02879
1.0362
1.04136
1.04448
1.04623
1.0473
1.04826
1.0499
1.05024
1.0521
1.05241
1.05246
1.04938
1.03883
1.01847
0.983558
0.931893
0.863734
0.78013
0.682923
0.573491
0.452411
0.318419
0.170662
0.00755994
-0.171194
-1.29646
-0.971073
-0.668478
-0.388087
-0.121167
0.123532
0.329043
0.495734
0.634812
0.736785
0.81109
0.863207
0.90263
0.932076
0.954471
0.972066
0.986396
0.998331
1.00818
1.01583
1.02128
1.02475
1.02678
1.02803
1.02875
1.03046
1.03011
1.03116
1.03036
1.02834
1.02334
1.01057
0.988459
0.95272
0.901384
0.834513
0.752999
0.658141
0.551206
0.432684
0.301605
0.157388
-0.00129477
-0.174476
-1.35242
-1.02792
-0.722385
-0.436092
-0.164049
0.0868459
0.294048
0.465432
0.606086
0.711453
0.785626
0.838044
0.878128
0.908441
0.931773
0.950242
0.965227
0.9776
0.987736
0.995626
1.00134
1.00512
1.00737
1.00878
1.00943
1.01087
1.00992
1.01018
1.00844
1.00447
0.997725
0.983069
0.959417
0.923032
0.872014
0.806357
0.726792
0.634198
0.529722
0.413809
0.285703
0.145058
-0.00919059
-0.176925
-1.40988
-1.08355
-0.777793
-0.48281
-0.202649
0.0497077
0.260727
0.438564
0.581345
0.686286
0.760941
0.81362
0.854206
0.885262
0.909417
0.928636
0.944233
0.95703
0.967447
0.975577
0.98153
0.985575
0.988025
0.989554
0.990065
0.991314
0.989838
0.989184
0.986557
0.981004
0.972494
0.956288
0.931312
0.894404
0.843709
0.779198
0.701482
0.611043
0.509002
0.39572
0.270629
0.133586
-0.0162284
-0.178517
-1.46801
-1.14069
-0.829002
-0.52635
-0.242945
0.0198168
0.231539
0.41151
0.557372
0.662031
0.736991
0.789913
0.830838
0.862516
0.887401
0.907321
0.923443
0.936629
0.947322
0.955682
0.96186
0.966132
0.968747
0.970341
0.97075
0.971356
0.969921
0.968208
0.964763
0.957893
0.947708
0.930183
0.904099
0.866753
0.816416
0.75302
0.677057
0.588718
0.489069
0.378437
0.256375
0.12295
-0.0224562
-0.179418
-1.52762
-1.19848
-0.880092
-0.563399
-0.278513
-0.0105661
0.204633
0.385071
0.532576
0.640795
0.713675
0.766856
0.808061
0.840258
0.865821
0.886246
0.902854
0.916403
0.927359
0.935939
0.942323
0.946785
0.949549
0.951164
0.951478
0.950899
0.950129
0.947334
0.943118
0.935054
0.9234
0.904723
0.877729
0.840017
0.790084
0.727767
0.653457
0.567177
0.469875
0.361901
0.24289
0.113086
-0.0279355
-0.179641
-1.58338
-1.25602
-0.93273
-0.604331
-0.30824
-0.0422137
0.181347
0.361321
0.507392
0.619204
0.691277
0.744366
0.7858
0.81841
0.844595
0.865448
0.882476
0.896358
0.907563
0.91635
0.922921
0.927541
0.930437
0.932051
0.932285
0.931676
0.930435
0.92659
0.921638
0.912514
0.899549
0.879898
0.852143
0.814139
0.764666
0.703405
0.630683
0.54641
0.45144
0.346106
0.230158
0.103958
-0.0327339
-0.179293
-1.6323
-1.31688
-0.984931
-0.642933
-0.340241
-0.0680483
0.157762
0.339188
0.484145
0.596258
0.669694
0.722364
0.764019
0.797131
0.823513
0.84491
0.862317
0.876499
0.887934
0.896912
0.903651
0.908407
0.91141
0.913003
0.913175
0.912068
0.910683
0.905982
0.900333
0.890268
0.876147
0.855685
0.827293
0.789079
0.740118
0.679887
0.6087
0.526395
0.433724
0.33102
0.218132
0.0955149
-0.0368977
-0.178412
-1.67651
-1.37381
-1.03402
-0.678606
-0.370717
-0.0913739
0.136071
0.318627
0.462989
0.574677
0.648782
0.701527
0.742761
0.776312
0.802848
0.824616
0.842369
0.856826
0.868474
0.877628
0.884517
0.889391
0.892473
0.894038
0.894139
0.892858
0.890914
0.885552
0.879189
0.868328
0.853176
0.832066
0.803148
0.764795
0.716395
0.657174
0.587481
0.507105
0.416709
0.316615
0.206777
0.0877088
-0.0404886
-0.177071
-1.72527
-1.4303
-1.07927
-0.710464
-0.399256
-0.11444
0.116669
0.299635
0.44342
0.55427
0.627806
0.681142
0.722265
0.755582
0.782584
0.804611
0.822646
0.837345
0.849185
0.858495
0.865517
0.870491
0.873629
0.875158
0.875174
0.873605
0.87128
0.865322
0.858223
0.846708
0.830623
0.809019
0.779681
0.741253
0.693444
0.635235
0.567003
0.488523
0.400372
0.302867
0.196057
0.0805012
-0.0435503
-0.175317
-1.76016
-1.47684
-1.12023
-0.739304
-0.425805
-0.135987
0.0989308
0.281851
0.425043
0.534942
0.607405
0.66056
0.702023
0.735253
0.76253
0.784849
0.803139
0.818055
0.830066
0.839517
0.846654
0.851712
0.85489
0.856375
0.856294
0.854478
0.851775
0.845318
0.837472
0.825444
0.80848
0.786529
0.756835
0.71844
0.671214
0.614031
0.547234
0.470621
0.384691
0.289754
0.185946
0.0738605
-0.0461275
-0.173201
-1.79078
-1.51352
-1.15557
-0.763466
-0.449276
-0.154693
0.0826299
0.265305
0.407699
0.516439
0.587622
0.640451
0.681826
0.715337
0.742827
0.765368
0.783857
0.798956
0.81112
0.820692
0.827927
0.833051
0.836256
0.837692
0.837494
0.83526
0.832169
0.825637
0.816947
0.804559
0.786753
0.76454
0.73457
0.696333
0.649674
0.593532
0.528152
0.453375
0.369635
0.277245
0.176411
0.0677498
-0.0482563
-0.170761
-1.81591
-1.54006
-1.1876
-0.783516
-0.469713
-0.170035
0.0679835
0.250037
0.391232
0.498676
0.568473
0.620861
0.662119
0.695749
0.723379
0.746121
0.764797
0.780052
0.792344
0.802023
0.809341
0.814518
0.817737
0.819122
0.818794
0.816475
0.812535
0.806259
0.796676
0.783982
0.765504
0.742987
0.712876
0.674883
0.628789
0.573697
0.509725
0.436756
0.355175
0.265301
0.167399
0.0621037
-0.0500025
-0.168061
-1.84246
-1.55259
-1.21119
-0.798165
-0.486418
-0.182191
0.0550073
0.236269
0.375599
0.481572
0.549808
0.601764
0.642887
0.676552
0.704271
0.727136
0.745954
0.76134
0.773742
0.783509
0.790892
0.796108
0.799329
0.800663
0.800202
0.79771
0.793267
0.786855
0.776679
0.7636
0.744786
0.721841
0.691738
0.65405
0.608549
0.554502
0.491937
0.420746
0.341285
0.25389
0.158875
0.0568847
-0.0514134
-0.165148
-1.84569
-1.55714
-1.22995
-0.807634
-0.498899
-0.191576
0.0439515
0.223772
0.360624
0.464882
0.531552
0.583097
0.624031
0.657647
0.685431
0.708409
0.727339
0.742829
0.755317
0.765152
0.772588
0.777832
0.781045
0.782323
0.781733
0.779067
0.774326
0.767503
0.756947
0.743448
0.724544
0.701126
0.671141
0.633807
0.588945
0.535943
0.474784
0.405359
0.328004
0.243066
0.150902
0.0521609
-0.0524198
-0.161951
-1.83167
-1.55028
-1.23724
-0.810192
-0.506337
-0.198927
0.0346152
0.212318
0.346382
0.448447
0.513649
0.56481
0.605544
0.639085
0.666881
0.689914
0.708923
0.724491
0.73705
0.746942
0.754416
0.759677
0.762872
0.764093
0.763376
0.760557
0.755494
0.748405
0.737484
0.723607
0.704665
0.680931
0.651068
0.614147
0.569969
0.518018
0.458261
0.390595
0.315353
0.232869
0.143536
0.0480149
-0.0529208
-0.158365
-1.74834
-1.52101
-1.23435
-0.802573
-0.51738
-0.211801
0.0118552
0.180488
0.305325
0.399156
0.461939
0.511918
0.552048
0.585202
0.612841
0.635901
0.655028