/*--------------------------------*- C++ -*----------------------------------*\
| =========                 |                                                 |
| \\      /  F ield         | OpenFOAM: The Open Source CFD Toolbox           |
|  \\    /   O peration     | Version:  v1912                                 |
|   \\  /    A nd           | Website:  www.openfoam.com                      |
|    \\/     M anipulation  |                                                 |
\*---------------------------------------------------------------------------*/
FoamFile
{
    version     2.0;
    format      ascii;
    class       volSymmTensorField;
    location    "90";
    object      R;
}
// * * * * * * * * * * * * * * * * * * * * * * * * * * * * * * * * * * * * * //

dimensions      [0 2 -2 0 0 0 0];


internalField   nonuniform List<symmTensor> 
14268
(
(2.55452e-10 3.76367e-13 0 2.28614e-10 0 2.42038e-10)
(2.60345e-10 3.96599e-13 0 2.38529e-10 0 2.49433e-10)
(2.6601e-10 4.14523e-13 0 2.49296e-10 0 2.57633e-10)
(2.71718e-10 4.30052e-13 0 2.60069e-10 0 2.65868e-10)
(2.77683e-10 4.46594e-13 0 2.70864e-10 0 2.74245e-10)
(2.84794e-10 4.63938e-13 0 2.82632e-10 0 2.83678e-10)
(2.93196e-10 4.80384e-13 0 2.95297e-10 0 2.9423e-10)
(3.02033e-10 5.00887e-13 0 3.08315e-10 0 3.05152e-10)
(3.12114e-10 5.21557e-13 0 3.22847e-10 0 3.17435e-10)
(3.23234e-10 5.42517e-13 0 3.38792e-10 0 3.30952e-10)
(3.35485e-10 5.63965e-13 0 3.56366e-10 0 3.4587e-10)
(3.49717e-10 5.93237e-13 0 3.76687e-10 0 3.63141e-10)
(3.66301e-10 6.25796e-13 0 4.00334e-10 0 3.83254e-10)
(3.90712e-10 6.66536e-13 0 4.35352e-10 0 4.12953e-10)
(4.27402e-10 7.43549e-13 0 4.89143e-10 0 4.5817e-10)
(4.79966e-10 8.33683e-13 0 5.68401e-10 0 5.24016e-10)
(5.58941e-10 9.59555e-13 0 6.91819e-10 0 6.25062e-10)
(6.71709e-10 1.10828e-12 0 8.8036e-10 0 7.75479e-10)
(8.08863e-10 1.20883e-12 0 1.12965e-09 0 9.68376e-10)
(9.59112e-10 3.80702e-13 0 1.41897e-09 0 1.18605e-09)
(1.19359e-09 4.10192e-12 0 1.93657e-09 0 1.56557e-09)
(1.74152e-09 -3.13446e-12 0 3.19946e-09 0 2.45545e-09)
(2.67503e-09 -6.56949e-12 0 5.95631e-09 0 4.30643e-09)
(4.17227e-09 3.43371e-11 0 1.11354e-08 0 7.58163e-09)
(5.77733e-09 4.32681e-11 0 1.66013e-08 0 1.09914e-08)
(5.67882e-09 -1.71685e-12 0 1.56871e-08 0 1.05626e-08)
(5.05051e-09 -5.88244e-12 0 1.2535e-08 0 8.71581e-09)
(4.1853e-09 -8.90384e-12 0 8.98968e-09 0 6.53474e-09)
(3.4203e-09 -6.63963e-12 0 6.6212e-09 0 4.98693e-09)
(2.74687e-09 -3.6404e-12 0 4.88736e-09 0 3.79521e-09)
(2.19501e-09 -2.19468e-12 0 3.54364e-09 0 2.8566e-09)
(1.77762e-09 -1.39022e-12 0 2.53017e-09 0 2.14684e-09)
(1.39836e-09 -7.13573e-13 0 1.75455e-09 0 1.57172e-09)
(1.04509e-09 -1.83095e-13 0 1.18483e-09 0 1.11188e-09)
(7.68533e-10 1.1511e-13 0 8.10628e-10 0 7.87721e-10)
(5.6337e-10 2.11703e-13 0 5.66048e-10 0 5.63621e-10)
(4.0791e-10 1.97401e-13 0 3.95985e-10 0 4.01256e-10)
(3.02086e-10 1.70279e-13 0 2.85033e-10 0 2.92982e-10)
(2.31483e-10 9.65662e-14 0 2.13915e-10 0 2.22395e-10)
(1.81744e-10 1.5908e-13 0 1.66038e-10 0 1.73553e-10)
(1.34416e-10 -1.92195e-13 0 1.20009e-10 0 1.27083e-10)
(1.04224e-10 8.32719e-13 0 9.26842e-11 0 9.83931e-11)
(7.80505e-11 -1.3731e-12 0 6.39108e-11 0 7.05393e-11)
(1.77244e-11 4.88134e-12 0 1.57832e-11 0 1.90439e-11)
(4.34949e-09 1.33964e-11 0 3.97492e-09 0 4.15932e-09)
(4.45166e-09 1.38448e-11 0 4.1764e-09 0 4.31167e-09)
(4.56283e-09 1.41614e-11 0 4.39216e-09 0 4.47538e-09)
(4.67284e-09 1.43637e-11 0 4.60764e-09 0 4.63848e-09)
(4.77881e-09 1.46047e-11 0 4.81576e-09 0 4.79567e-09)
(4.88359e-09 1.47901e-11 0 5.01922e-09 0 4.94983e-09)
(4.98178e-09 1.47836e-11 0 5.20606e-09 0 5.09294e-09)
(5.07834e-09 1.48484e-11 0 5.38937e-09 0 5.23288e-09)
(5.18499e-09 1.48865e-11 0 5.58927e-09 0 5.38558e-09)
(5.30084e-09 1.49361e-11 0 5.80752e-09 0 5.55218e-09)
(5.42956e-09 1.50379e-11 0 6.05033e-09 0 5.73799e-09)
(5.58152e-09 1.54213e-11 0 6.33477e-09 0 5.9563e-09)
(5.75761e-09 1.5815e-11 0 6.66473e-09 0 6.2093e-09)
(6.0049e-09 1.57126e-11 0 7.14144e-09 0 6.57091e-09)
(6.35024e-09 1.66529e-11 0 7.83902e-09 0 7.09214e-09)
(6.81819e-09 1.69886e-11 0 8.82973e-09 0 7.82037e-09)
(7.43587e-09 1.70305e-11 0 1.02205e-08 0 8.82207e-09)
(8.22385e-09 1.63847e-11 0 1.22138e-08 0 1.021e-08)
(9.089e-09 1.46331e-11 0 1.47442e-08 0 1.19042e-08)
(9.9753e-09 -3.12056e-12 0 1.75717e-08 0 1.3726e-08)
(1.08021e-08 5.38779e-11 0 2.15014e-08 0 1.61624e-08)
(1.22771e-08 -4.56185e-11 0 2.83457e-08 0 2.01468e-08)
(1.35189e-08 -6.57012e-11 0 3.96371e-08 0 2.64924e-08)
(1.53365e-08 2.02273e-10 0 5.54224e-08 0 3.49497e-08)
(1.73473e-08 2.61635e-10 0 7.04529e-08 0 4.28704e-08)
(1.74489e-08 -5.74892e-11 0 7.33205e-08 0 4.47054e-08)
(1.70617e-08 -1.00812e-10 0 6.80602e-08 0 4.20206e-08)
(1.66631e-08 -1.08421e-10 0 6.0452e-08 0 3.80817e-08)
(1.62116e-08 -1.05928e-10 0 5.32011e-08 0 3.432e-08)
(1.57759e-08 -8.43562e-11 0 4.67075e-08 0 3.09236e-08)
(1.5246e-08 -6.13315e-11 0 3.98825e-08 0 2.7329e-08)
(1.43374e-08 -4.18271e-11 0 3.19604e-08 0 2.29855e-08)
(1.24181e-08 -2.27782e-11 0 2.31926e-08 0 1.76893e-08)
(9.61612e-09 -6.61782e-12 0 1.46227e-08 0 1.20501e-08)
(7.4389e-09 1.27402e-12 0 9.3481e-09 0 8.3537e-09)
(5.73275e-09 3.33004e-12 0 6.27809e-09 0 5.98273e-09)
(4.33753e-09 3.02706e-12 0 4.32952e-09 0 4.32066e-09)
(3.40339e-09 2.67736e-12 0 3.16644e-09 0 3.27705e-09)
(2.78752e-09 1.24953e-12 0 2.47842e-09 0 2.62854e-09)
(2.33803e-09 2.42059e-12 0 2.0316e-09 0 2.18011e-09)
(1.89541e-09 -3.77731e-12 0 1.59186e-09 0 1.74096e-09)
(1.61723e-09 1.48855e-11 0 1.34621e-09 0 1.48141e-09)
(1.39927e-09 -2.19152e-11 0 1.04909e-09 0 1.21532e-09)
(7.46439e-10 5.84421e-11 0 5.52993e-10 0 6.82325e-10)
(1.39899e-08 2.35241e-11 0 1.27708e-08 0 1.34071e-08)
(1.43004e-08 2.14884e-11 0 1.34213e-08 0 1.3885e-08)
(1.46089e-08 1.90777e-11 0 1.40889e-08 0 1.43696e-08)
(1.48938e-08 1.63298e-11 0 1.47316e-08 0 1.48315e-08)
(1.51511e-08 1.39359e-11 0 1.53296e-08 0 1.52579e-08)
(1.5378e-08 1.11745e-11 0 1.58759e-08 0 1.56428e-08)
(1.55626e-08 8.137e-12 0 1.63473e-08 0 1.59718e-08)
(1.57284e-08 5.85431e-12 0 1.67883e-08 0 1.62752e-08)
(1.58935e-08 3.72323e-12 0 1.72409e-08 0 1.65828e-08)
(1.6053e-08 1.77987e-12 0 1.77132e-08 0 1.68987e-08)
(1.62136e-08 -2.29206e-13 0 1.82138e-08 0 1.72314e-08)
(1.63879e-08 -2.19405e-12 0 1.87854e-08 0 1.76049e-08)
(1.65704e-08 -4.94423e-12 0 1.94105e-08 0 1.80083e-08)
(1.67926e-08 -9.9633e-12 0 2.02686e-08 0 1.85478e-08)
(1.70614e-08 -1.34455e-11 0 2.14429e-08 0 1.92667e-08)
(1.73726e-08 -1.93907e-11 0 2.30086e-08 0 2.01989e-08)
(1.76904e-08 -2.67968e-11 0 2.49767e-08 0 2.13308e-08)
(1.79843e-08 -3.58426e-11 0 2.76015e-08 0 2.27739e-08)
(1.81889e-08 -4.55576e-11 0 3.07033e-08 0 2.44048e-08)
(1.83978e-08 -7.8282e-11 0 3.39017e-08 0 2.60299e-08)
(1.8221e-08 1.00655e-11 0 3.8192e-08 0 2.81678e-08)
(1.84596e-08 -1.22019e-10 0 4.50088e-08 0 3.145e-08)
(1.80599e-08 -1.2543e-10 0 5.57518e-08 0 3.66841e-08)
(1.85989e-08 2.84126e-10 0 6.99168e-08 0 4.36622e-08)
(1.99749e-08 4.00123e-10 0 8.30014e-08 0 5.022e-08)
(1.98678e-08 -1.19069e-10 0 8.61522e-08 0 5.22084e-08)
(1.97392e-08 -2.2842e-10 0 8.20227e-08 0 5.01883e-08)
(1.9824e-08 -2.12564e-10 0 7.6218e-08 0 4.73315e-08)
(1.98974e-08 -2.17377e-10 0 7.10447e-08 0 4.4862e-08)
(1.9987e-08 -2.24767e-10 0 6.65828e-08 0 4.27685e-08)
(2.01969e-08 -2.19273e-10 0 6.16809e-08 0 4.04908e-08)
(2.03777e-08 -1.91647e-10 0 5.51711e-08 0 3.73844e-08)
(2.00272e-08 -1.43305e-10 0 4.64762e-08 0 3.29362e-08)
(1.88602e-08 -8.798e-11 0 3.57026e-08 0 2.70626e-08)
(1.71105e-08 -4.37302e-11 0 2.53032e-08 0 2.10937e-08)
(1.50537e-08 -2.25037e-11 0 1.87106e-08 0 1.68281e-08)
(1.26579e-08 -9.98997e-12 0 1.38894e-08 0 1.32505e-08)
(1.08474e-08 -1.58117e-12 0 1.06769e-08 0 1.07407e-08)
(9.45075e-09 -5.17548e-12 0 8.61185e-09 0 9.03044e-09)
(8.31098e-09 1.99547e-13 0 7.2967e-09 0 7.79762e-09)
(7.15543e-09 -1.89235e-11 0 5.8952e-09 0 6.53564e-09)
(6.47509e-09 3.75442e-11 0 5.25049e-09 0 5.85722e-09)
(5.93527e-09 -4.24874e-11 0 4.22937e-09 0 5.05646e-09)
(3.58836e-09 1.21356e-10 0 2.10884e-09 0 3.11925e-09)
(2.32212e-08 -6.27801e-11 0 2.13199e-08 0 2.22658e-08)
(2.32743e-08 -6.94637e-11 0 2.19576e-08 0 2.26102e-08)
(2.33159e-08 -7.58924e-11 0 2.2599e-08 0 2.29493e-08)
(2.33452e-08 -8.24038e-11 0 2.32056e-08 0 2.32664e-08)
(2.33658e-08 -8.82932e-11 0 2.37566e-08 0 2.35509e-08)
(2.33782e-08 -9.44343e-11 0 2.42453e-08 0 2.38015e-08)
(2.33741e-08 -1.00445e-10 0 2.46658e-08 0 2.40123e-08)
(2.33653e-08 -1.05215e-10 0 2.506e-08 0 2.42037e-08)
(2.33552e-08 -1.0931e-10 0 2.54586e-08 0 2.43941e-08)
(2.33301e-08 -1.12514e-10 0 2.58754e-08 0 2.45883e-08)
(2.32951e-08 -1.15587e-10 0 2.63088e-08 0 2.47892e-08)
(2.32469e-08 -1.19925e-10 0 2.68189e-08 0 2.50196e-08)
(2.32007e-08 -1.2585e-10 0 2.7348e-08 0 2.526e-08)
(2.31082e-08 -1.31296e-10 0 2.81021e-08 0 2.5585e-08)
(2.2968e-08 -1.36763e-10 0 2.90988e-08 0 2.60078e-08)
(2.27574e-08 -1.40712e-10 0 3.04366e-08 0 2.65591e-08)
(2.24669e-08 -1.43308e-10 0 3.20805e-08 0 2.72224e-08)
(2.20519e-08 -1.45146e-10 0 3.42577e-08 0 2.8089e-08)
(2.1537e-08 -1.46518e-10 0 3.6826e-08 0 2.9104e-08)
(2.11385e-08 -1.60576e-10 0 3.94506e-08 0 3.01564e-08)
(2.03198e-08 -6.52719e-11 0 4.31011e-08 0 3.16525e-08)
(1.98338e-08 -1.48836e-10 0 4.89464e-08 0 3.41178e-08)
(1.88234e-08 -1.01745e-10 0 5.84914e-08 0 3.84687e-08)
(1.90334e-08 4.18343e-10 0 7.17131e-08 0 4.47911e-08)
(2.01997e-08 5.68773e-10 0 8.40432e-08 0 5.08603e-08)
(2.02083e-08 -1.13379e-10 0 8.70775e-08 0 5.28325e-08)
(2.00017e-08 -2.45869e-10 0 8.31003e-08 0 5.08908e-08)
(2.00303e-08 -2.59543e-10 0 7.76751e-08 0 4.82186e-08)
(2.03192e-08 -2.32052e-10 0 7.31379e-08 0 4.61526e-08)
(2.07286e-08 -2.34155e-10 0 6.95317e-08 0 4.45947e-08)
(2.10958e-08 -2.69823e-10 0 6.58888e-08 0 4.30362e-08)
(2.14279e-08 -2.6363e-10 0 6.11444e-08 0 4.0981e-08)
(2.1799e-08 -2.38336e-10 0 5.4606e-08 0 3.79437e-08)
(2.24559e-08 -1.92376e-10 0 4.57859e-08 0 3.38722e-08)
(2.29032e-08 -1.33523e-10 0 3.64504e-08 0 2.94387e-08)
(2.20983e-08 -8.61581e-11 0 2.98212e-08 0 2.57518e-08)
(2.03542e-08 -4.60238e-11 0 2.41719e-08 0 2.20759e-08)
(1.90676e-08 -2.08838e-11 0 1.98721e-08 0 1.93314e-08)
(1.78598e-08 -3.94533e-11 0 1.71148e-08 0 1.73907e-08)
(1.65844e-08 -1.34432e-11 0 1.52933e-08 0 1.58574e-08)
(1.54185e-08 -1.0007e-10 0 1.29553e-08 0 1.41147e-08)
(1.4337e-08 8.0097e-11 0 1.17479e-08 0 1.3038e-08)
(1.35526e-08 -8.72757e-11 0 9.71374e-09 0 1.15353e-08)
(8.4729e-09 2.28204e-10 0 5.54846e-09 0 7.34523e-09)
(2.74109e-08 -1.69673e-10 0 2.51842e-08 0 2.62893e-08)
(2.72359e-08 -1.7746e-10 0 2.57041e-08 0 2.64633e-08)
(2.7053e-08 -1.85108e-10 0 2.62302e-08 0 2.66347e-08)
(2.68782e-08 -1.92448e-10 0 2.67213e-08 0 2.67949e-08)
(2.67129e-08 -1.99585e-10 0 2.7171e-08 0 2.69382e-08)
(2.65734e-08 -2.06755e-10 0 2.75661e-08 0 2.70636e-08)
(2.64321e-08 -2.13629e-10 0 2.7906e-08 0 2.71647e-08)
(2.63031e-08 -2.1813e-10 0 2.82242e-08 0 2.72582e-08)
(2.6176e-08 -2.21331e-10 0 2.85439e-08 0 2.73509e-08)
(2.60347e-08 -2.24013e-10 0 2.8885e-08 0 2.74475e-08)
(2.58791e-08 -2.26019e-10 0 2.92407e-08 0 2.75469e-08)
(2.56873e-08 -2.29244e-10 0 2.96728e-08 0 2.76667e-08)
(2.55046e-08 -2.31733e-10 0 3.00929e-08 0 2.77841e-08)
(2.52238e-08 -2.31612e-10 0 3.07061e-08 0 2.79521e-08)
(2.48601e-08 -2.29401e-10 0 3.15151e-08 0 2.8176e-08)
(2.43595e-08 -2.23838e-10 0 3.2657e-08 0 2.84973e-08)
(2.37574e-08 -2.14566e-10 0 3.40988e-08 0 2.89139e-08)
(2.30529e-08 -2.04348e-10 0 3.59984e-08 0 2.94962e-08)
(2.22821e-08 -1.94376e-10 0 3.82819e-08 0 3.02357e-08)
(2.17002e-08 -1.89585e-10 0 4.06351e-08 0 3.10638e-08)
(2.0726e-08 -7.46909e-11 0 4.40004e-08 0 3.23215e-08)
(2.00796e-08 -1.31225e-10 0 4.95742e-08 0 3.4559e-08)
(1.90123e-08 -4.21091e-11 0 5.89157e-08 0 3.87285e-08)
(1.91088e-08 5.69766e-10 0 7.19018e-08 0 4.49122e-08)
(2.02339e-08 7.38938e-10 0 8.40792e-08 0 5.08942e-08)
(2.02317e-08 -7.66286e-11 0 8.70308e-08 0 5.28296e-08)
(2.00642e-08 -2.40721e-10 0 8.31832e-08 0 5.09436e-08)
(2.01241e-08 -2.5799e-10 0 7.789e-08 0 4.83372e-08)
(2.04582e-08 -2.08312e-10 0 7.33511e-08 0 4.62958e-08)
(2.08016e-08 -2.05512e-10 0 6.99416e-08 0 4.48359e-08)
(2.12047e-08 -2.47309e-10 0 6.66178e-08 0 4.34871e-08)
(2.19165e-08 -2.66761e-10 0 6.24782e-08 0 4.17652e-08)
(2.25897e-08 -2.81368e-10 0 5.71227e-08 0 3.93846e-08)
(2.36889e-08 -2.51221e-10 0 4.96071e-08 0 3.6258e-08)
(2.49263e-08 -1.97674e-10 0 4.10668e-08 0 3.28347e-08)
(2.50178e-08 -1.38532e-10 0 3.52374e-08 0 3.00541e-08)
(2.45359e-08 -7.41838e-11 0 3.00763e-08 0 2.73056e-08)
(2.445e-08 -3.96877e-11 0 2.59333e-08 0 2.51957e-08)
(2.39058e-08 -7.45058e-11 0 2.34165e-08 0 2.36422e-08)
(2.30149e-08 -6.08833e-11 0 2.17782e-08 0 2.23049e-08)
(2.2518e-08 -1.60348e-10 0 1.91726e-08 0 2.08416e-08)
(2.17971e-08 3.11816e-11 0 1.80274e-08 0 1.9812e-08)
(2.17825e-08 -1.57203e-10 0 1.54241e-08 0 1.85268e-08)
(1.60975e-08 4.64072e-10 0 9.40686e-09 0 1.36912e-08)
(2.9018e-08 -2.53762e-10 0 2.66633e-08 0 2.78331e-08)
(2.87177e-08 -2.59197e-10 0 2.71014e-08 0 2.79017e-08)
(2.84108e-08 -2.65384e-10 0 2.75558e-08 0 2.7973e-08)
(2.81238e-08 -2.71818e-10 0 2.79829e-08 0 2.80412e-08)
(2.78648e-08 -2.77996e-10 0 2.83697e-08 0 2.81034e-08)
(2.76468e-08 -2.83613e-10 0 2.86937e-08 0 2.81568e-08)
(2.7438e-08 -2.88546e-10 0 2.89803e-08 0 2.81999e-08)
(2.72538e-08 -2.91031e-10 0 2.92471e-08 0 2.82423e-08)
(2.70692e-08 -2.92283e-10 0 2.95242e-08 0 2.82878e-08)
(2.68795e-08 -2.93901e-10 0 2.97983e-08 0 2.83319e-08)
(2.66611e-08 -2.94435e-10 0 3.00995e-08 0 2.83787e-08)
(2.64108e-08 -2.94893e-10 0 3.04777e-08 0 2.84432e-08)
(2.61604e-08 -2.92116e-10 0 3.08605e-08 0 2.85101e-08)
(2.58154e-08 -2.83467e-10 0 3.1434e-08 0 2.8618e-08)
(2.53861e-08 -2.73896e-10 0 3.21377e-08 0 2.87579e-08)
(2.47677e-08 -2.585e-10 0 3.32934e-08 0 2.90123e-08)
(2.40444e-08 -2.36849e-10 0 3.47422e-08 0 2.93615e-08)
(2.32734e-08 -2.15626e-10 0 3.65361e-08 0 2.98497e-08)
(2.2453e-08 -1.96832e-10 0 3.86879e-08 0 3.04968e-08)
(2.18473e-08 -1.7945e-10 0 4.09432e-08 0 3.12566e-08)
(2.08447e-08 -4.34111e-11 0 4.42062e-08 0 3.24509e-08)
(2.01331e-08 -9.94251e-11 0 4.96349e-08 0 3.46106e-08)
(1.89929e-08 3.52071e-11 0 5.88293e-08 0 3.87e-08)
(1.91043e-08 7.59372e-10 0 7.18799e-08 0 4.49101e-08)
(2.02329e-08 9.13301e-10 0 8.40642e-08 0 5.08909e-08)
(2.02598e-08 -1.15389e-11 0 8.70276e-08 0 5.28286e-08)
(2.00682e-08 -2.22456e-10 0 8.31396e-08 0 5.09229e-08)
(2.00991e-08 -2.55101e-10 0 7.7787e-08 0 4.82874e-08)
(2.04364e-08 -1.82621e-10 0 7.32781e-08 0 4.62673e-08)
(2.07571e-08 -1.60063e-10 0 7.00038e-08 0 4.48587e-08)
(2.14208e-08 -1.92954e-10 0 6.66013e-08 0 4.35206e-08)
(2.18814e-08 -2.40401e-10 0 6.27392e-08 0 4.18978e-08)
(2.20883e-08 -2.55862e-10 0 5.78689e-08 0 3.97078e-08)
(2.37827e-08 -2.44823e-10 0 5.01949e-08 0 3.68143e-08)
(2.57398e-08 -2.15185e-10 0 4.2654e-08 0 3.39728e-08)
(2.63819e-08 -1.54338e-10 0 3.78989e-08 0 3.19489e-08)
(2.67522e-08 -8.25628e-11 0 3.34455e-08 0 2.99563e-08)
(2.73255e-08 -4.6349e-11 0 2.96929e-08 0 2.83439e-08)
(2.71817e-08 -1.03271e-10 0 2.72842e-08 0 2.71299e-08)
(2.6696e-08 -9.9818e-11 0 2.5635e-08 0 2.60671e-08)
(2.6605e-08 -2.04476e-10 0 2.33801e-08 0 2.48902e-08)
(2.66347e-08 -2.2787e-11 0 2.17878e-08 0 2.41612e-08)
(2.7538e-08 -2.21986e-10 0 1.93816e-08 0 2.32839e-08)
(2.30069e-08 1.01409e-10 0 1.46086e-08 0 1.95207e-08)
(2.95949e-08 -3.00775e-10 0 2.71201e-08 0 2.83766e-08)
(2.92084e-08 -3.02766e-10 0 2.75425e-08 0 2.83929e-08)
(2.88572e-08 -3.0627e-10 0 2.7942e-08 0 2.84146e-08)
(2.85345e-08 -3.1022e-10 0 2.83116e-08 0 2.84376e-08)
(2.82115e-08 -3.14886e-10 0 2.868e-08 0 2.84611e-08)
(2.79722e-08 -3.18766e-10 0 2.89743e-08 0 2.84858e-08)
(2.77462e-08 -3.22208e-10 0 2.92321e-08 0 2.85039e-08)
(2.75411e-08 -3.23053e-10 0 2.94884e-08 0 2.85272e-08)
(2.73153e-08 -3.21865e-10 0 2.97841e-08 0 2.85574e-08)
(2.71176e-08 -3.20502e-10 0 3.00514e-08 0 2.85877e-08)
(2.68814e-08 -3.18089e-10 0 3.03531e-08 0 2.86201e-08)
(2.66264e-08 -3.16775e-10 0 3.06945e-08 0 2.8662e-08)
(2.63421e-08 -3.11228e-10 0 3.10824e-08 0 2.87127e-08)
(2.59614e-08 -2.96479e-10 0 3.16204e-08 0 2.87904e-08)
(2.55318e-08 -2.86089e-10 0 3.22957e-08 0 2.89031e-08)
(2.48395e-08 -2.62779e-10 0 3.34558e-08 0 2.91285e-08)
(2.40736e-08 -2.34448e-10 0 3.48753e-08 0 2.94459e-08)
(2.32965e-08 -2.05957e-10 0 3.65942e-08 0 2.98968e-08)
(2.24699e-08 -1.82757e-10 0 3.86887e-08 0 3.05151e-08)
(2.18359e-08 -1.54979e-10 0 4.08725e-08 0 3.1244e-08)
(2.08301e-08 4.96722e-13 0 4.4116e-08 0 3.2424e-08)
(2.01436e-08 -5.15814e-11 0 4.95998e-08 0 3.46007e-08)
(1.9009e-08 1.56004e-10 0 5.88473e-08 0 3.8711e-08)
(1.90993e-08 8.9702e-10 0 7.18787e-08 0 4.49145e-08)
(2.02388e-08 1.08717e-09 0 8.4074e-08 0 5.08987e-08)
(2.02792e-08 6.15968e-11 0 8.70266e-08 0 5.28261e-08)
(2.01121e-08 -1.74437e-10 0 8.31783e-08 0 5.09404e-08)
(2.01267e-08 -2.40158e-10 0 7.78427e-08 0 4.83121e-08)
(2.04742e-08 -1.62771e-10 0 7.3299e-08 0 4.62819e-08)
(2.07948e-08 -1.19523e-10 0 7.00292e-08 0 4.48676e-08)
(2.13673e-08 -1.38029e-10 0 6.66443e-08 0 4.35388e-08)
(2.1768e-08 -1.78217e-10 0 6.28803e-08 0 4.19462e-08)
(2.22451e-08 -2.13884e-10 0 5.81542e-08 0 3.98338e-08)
(2.42002e-08 -2.22203e-10 0 5.06619e-08 0 3.7075e-08)
(2.58214e-08 -2.22587e-10 0 4.35838e-08 0 3.45e-08)
(2.67575e-08 -1.47173e-10 0 3.9019e-08 0 3.26931e-08)
(2.77207e-08 -5.98033e-11 0 3.48301e-08 0 3.10744e-08)
(2.86343e-08 -2.4519e-11 0 3.11491e-08 0 2.97949e-08)
(2.87807e-08 -1.04826e-10 0 2.90186e-08 0 2.88791e-08)
(2.86073e-08 -1.14828e-10 0 2.7679e-08 0 2.80741e-08)
(2.88676e-08 -2.41456e-10 0 2.54134e-08 0 2.71716e-08)
(2.93414e-08 -7.3646e-11 0 2.39981e-08 0 2.65693e-08)
(3.08118e-08 -2.52712e-10 0 2.14166e-08 0 2.60813e-08)
(2.82916e-08 7.73533e-11 0 1.66238e-08 0 2.34595e-08)
(2.97806e-08 -3.1284e-10 0 2.73638e-08 0 2.857e-08)
(2.93804e-08 -3.12395e-10 0 2.77537e-08 0 2.85628e-08)
(2.90135e-08 -3.13646e-10 0 2.81258e-08 0 2.85628e-08)
(2.86563e-08 -3.15935e-10 0 2.84983e-08 0 2.85684e-08)
(2.83366e-08 -3.19142e-10 0 2.88393e-08 0 2.8578e-08)
(2.80826e-08 -3.22301e-10 0 2.91168e-08 0 2.85885e-08)
(2.78379e-08 -3.25634e-10 0 2.93728e-08 0 2.85971e-08)
(2.76175e-08 -3.26178e-10 0 2.96229e-08 0 2.86114e-08)
(2.73894e-08 -3.24534e-10 0 2.98967e-08 0 2.86318e-08)
(2.71759e-08 -3.22332e-10 0 3.01513e-08 0 2.86519e-08)
(2.69319e-08 -3.18602e-10 0 3.04335e-08 0 2.86742e-08)
(2.66672e-08 -3.15988e-10 0 3.07676e-08 0 2.87089e-08)
(2.63738e-08 -3.09736e-10 0 3.11461e-08 0 2.87518e-08)
(2.59975e-08 -2.94734e-10 0 3.16864e-08 0 2.88285e-08)
(2.55162e-08 -2.80045e-10 0 3.23752e-08 0 2.89336e-08)
(2.48386e-08 -2.52698e-10 0 3.35134e-08 0 2.91532e-08)
(2.40839e-08 -2.23452e-10 0 3.48943e-08 0 2.94599e-08)
(2.33083e-08 -1.88549e-10 0 3.65915e-08 0 2.99023e-08)
(2.24813e-08 -1.633e-10 0 3.86874e-08 0 3.05194e-08)
(2.18649e-08 -1.29682e-10 0 4.09254e-08 0 3.12672e-08)
(2.0863e-08 4.25815e-11 0 4.41846e-08 0 3.24537e-08)
(2.01579e-08 6.24232e-12 0 4.96369e-08 0 3.46134e-08)
(1.90238e-08 2.5087e-10 0 5.88702e-08 0 3.8723e-08)
(1.91085e-08 1.03825e-09 0 7.19051e-08 0 4.49334e-08)
(2.02337e-08 1.26012e-09 0 8.40634e-08 0 5.08978e-08)
(2.02526e-08 1.69017e-10 0 8.68814e-08 0 5.27524e-08)
(2.00524e-08 -4.34415e-11 0 8.29928e-08 0 5.08471e-08)
(2.0128e-08 -1.46673e-10 0 7.77537e-08 0 4.82686e-08)
(2.04824e-08 -1.15597e-10 0 7.32724e-08 0 4.62666e-08)
(2.07634e-08 -6.51641e-11 0 6.99419e-08 0 4.48293e-08)
(2.126e-08 -7.11327e-11 0 6.66631e-08 0 4.35249e-08)
(2.18688e-08 -1.02382e-10 0 6.2854e-08 0 4.19394e-08)
(2.25499e-08 -1.48201e-10 0 5.79712e-08 0 3.98207e-08)
(2.41075e-08 -1.62468e-10 0 5.07388e-08 0 3.71296e-08)
(2.57365e-08 -1.57624e-10 0 4.38516e-08 0 3.46029e-08)
(2.6702e-08 -9.93721e-11 0 3.93734e-08 0 3.29219e-08)
(2.81308e-08 -1.20814e-11 0 3.50632e-08 0 3.15719e-08)
(2.92962e-08 2.01329e-11 0 3.19971e-08 0 3.05533e-08)
(2.94695e-08 -1.01461e-10 0 3.0094e-08 0 2.96944e-08)
(2.95093e-08 -1.24806e-10 0 2.88151e-08 0 2.90443e-08)
(2.98679e-08 -2.39024e-10 0 2.69917e-08 0 2.83521e-08)
(3.10728e-08 -1.39956e-10 0 2.47281e-08 0 2.78344e-08)
(3.26116e-08 -2.7977e-10 0 2.29976e-08 0 2.76604e-08)
(3.24605e-08 -1.48424e-10 0 1.84844e-08 0 2.59212e-08)
(2.98285e-08 -3.14698e-10 0 2.73857e-08 0 2.86117e-08)
(2.94058e-08 -3.13661e-10 0 2.77727e-08 0 2.85936e-08)
(2.90252e-08 -3.14705e-10 0 2.81398e-08 0 2.85855e-08)
(2.86777e-08 -3.16746e-10 0 2.84864e-08 0 2.85841e-08)
(2.83413e-08 -3.19814e-10 0 2.88276e-08 0 2.85867e-08)
(2.80891e-08 -3.22585e-10 0 2.90984e-08 0 2.85949e-08)
(2.78413e-08 -3.26605e-10 0 2.93553e-08 0 2.86016e-08)
(2.76195e-08 -3.26921e-10 0 2.96082e-08 0 2.86155e-08)
(2.73906e-08 -3.25042e-10 0 2.98812e-08 0 2.86349e-08)
(2.71792e-08 -3.22895e-10 0 3.01336e-08 0 2.86548e-08)
(2.69357e-08 -3.18754e-10 0 3.04142e-08 0 2.86765e-08)
(2.6668e-08 -3.15275e-10 0 3.07459e-08 0 2.87087e-08)
(2.6374e-08 -3.0749e-10 0 3.11222e-08 0 2.87498e-08)
(2.59774e-08 -2.91384e-10 0 3.16586e-08 0 2.88194e-08)
(2.55032e-08 -2.72509e-10 0 3.23673e-08 0 2.89315e-08)
(2.48341e-08 -2.41489e-10 0 3.3492e-08 0 2.91474e-08)
(2.40799e-08 -2.0529e-10 0 3.48822e-08 0 2.94567e-08)
(2.33024e-08 -1.61626e-10 0 3.65945e-08 0 2.99036e-08)
(2.24762e-08 -1.2823e-10 0 3.8693e-08 0 3.05206e-08)
(2.18527e-08 -9.72878e-11 0 4.08907e-08 0 3.12527e-08)
(2.08448e-08 1.07463e-10 0 4.41285e-08 0 3.24303e-08)
(2.01298e-08 6.95481e-11 0 4.95579e-08 0 3.4577e-08)
(1.89991e-08 3.88493e-10 0 5.87984e-08 0 3.86918e-08)
(1.90792e-08 1.13046e-09 0 7.18442e-08 0 4.49096e-08)
(2.01977e-08 1.41523e-09 0 8.3991e-08 0 5.08662e-08)
(2.02547e-08 2.06691e-10 0 8.68204e-08 0 5.27211e-08)
(2.00795e-08 8.29793e-11 0 8.29742e-08 0 5.08356e-08)
(2.0105e-08 -1.13178e-11 0 7.76614e-08 0 4.82236e-08)
(2.04468e-08 5.08438e-12 0 7.32275e-08 0 4.62376e-08)
(2.08072e-08 1.10066e-11 0 6.99493e-08 0 4.48419e-08)
(2.13326e-08 9.11553e-12 0 6.66702e-08 0 4.35293e-08)
(2.18096e-08 -2.62319e-11 0 6.28353e-08 0 4.19097e-08)
(2.23488e-08 -6.8004e-11 0 5.79212e-08 0 3.97966e-08)
(2.41646e-08 -9.9665e-11 0 5.04386e-08 0 3.70353e-08)
(2.5613e-08 -1.11331e-10 0 4.4036e-08 0 3.46122e-08)
(2.68167e-08 -5.6635e-11 0 3.95186e-08 0 3.2993e-08)
(2.83407e-08 2.37926e-11 0 3.55857e-08 0 3.18292e-08)
(2.96102e-08 5.58593e-11 0 3.24502e-08 0 3.08599e-08)
(2.97223e-08 -8.20431e-11 0 3.04964e-08 0 3.00473e-08)
(2.98735e-08 -1.23163e-10 0 2.92773e-08 0 2.94774e-08)
(3.04213e-08 -2.45306e-10 0 2.7499e-08 0 2.89107e-08)
(3.17444e-08 -1.54975e-10 0 2.55262e-08 0 2.85201e-08)
(3.36295e-08 -3.39175e-10 0 2.33146e-08 0 2.8459e-08)
(3.42808e-08 -4.94605e-10 0 1.93935e-08 0 2.75205e-08)
(2.98461e-08 -3.1359e-10 0 2.74045e-08 0 2.86276e-08)
(2.94202e-08 -3.12146e-10 0 2.77922e-08 0 2.86074e-08)
(2.90401e-08 -3.13268e-10 0 2.81588e-08 0 2.85983e-08)
(2.8683e-08 -3.16325e-10 0 2.85143e-08 0 2.85959e-08)
(2.83554e-08 -3.19317e-10 0 2.88503e-08 0 2.85991e-08)
(2.81007e-08 -3.21062e-10 0 2.91233e-08 0 2.86066e-08)
(2.7857e-08 -3.26196e-10 0 2.93712e-08 0 2.86117e-08)
(2.7631e-08 -3.26258e-10 0 2.96224e-08 0 2.86237e-08)
(2.73958e-08 -3.24025e-10 0 2.99017e-08 0 2.86429e-08)
(2.71867e-08 -3.21479e-10 0 3.01567e-08 0 2.86636e-08)
(2.69473e-08 -3.16776e-10 0 3.04388e-08 0 2.86861e-08)
(2.66808e-08 -3.12854e-10 0 3.07714e-08 0 2.87187e-08)
(2.6387e-08 -3.04564e-10 0 3.11506e-08 0 2.87607e-08)
(2.59977e-08 -2.87909e-10 0 3.17e-08 0 2.88362e-08)
(2.55155e-08 -2.66537e-10 0 3.24174e-08 0 2.89493e-08)
(2.48458e-08 -2.32162e-10 0 3.35254e-08 0 2.916e-08)
(2.40914e-08 -1.89222e-10 0 3.49213e-08 0 2.94712e-08)
(2.33151e-08 -1.47753e-10 0 3.66332e-08 0 2.99179e-08)
(2.24854e-08 -1.0601e-10 0 3.87177e-08 0 3.05301e-08)
(2.18594e-08 -6.17806e-11 0 4.09104e-08 0 3.12602e-08)
(2.08362e-08 1.37632e-10 0 4.41146e-08 0 3.24236e-08)
(2.01427e-08 1.70233e-10 0 4.95673e-08 0 3.45797e-08)
(1.89991e-08 4.75636e-10 0 5.87924e-08 0 3.86897e-08)
(1.90896e-08 1.23854e-09 0 7.18744e-08 0 4.49312e-08)
(2.02455e-08 1.62977e-09 0 8.41071e-08 0 5.09287e-08)
(2.02996e-08 2.20232e-10 0 8.68217e-08 0 5.27204e-08)
(2.01383e-08 2.03265e-10 0 8.30109e-08 0 5.08504e-08)
(2.01757e-08 2.29476e-10 0 7.7749e-08 0 4.82645e-08)
(2.04552e-08 1.69961e-10 0 7.3228e-08 0 4.62337e-08)
(2.08291e-08 7.15949e-11 0 6.99128e-08 0 4.48305e-08)
(2.1271e-08 7.25217e-11 0 6.65922e-08 0 4.34879e-08)
(2.16971e-08 6.14923e-11 0 6.29024e-08 0 4.19011e-08)
(2.25224e-08 7.82883e-12 0 5.7886e-08 0 3.98294e-08)
(2.42868e-08 -5.26306e-11 0 5.06505e-08 0 3.7132e-08)
(2.54466e-08 -7.38897e-11 0 4.4102e-08 0 3.45854e-08)
(2.68791e-08 -8.24289e-12 0 3.95135e-08 0 3.30197e-08)
(2.8452e-08 7.28596e-11 0 3.56884e-08 0 3.19127e-08)
(2.97109e-08 8.34481e-11 0 3.2492e-08 0 3.09847e-08)
(2.98299e-08 -1.90199e-11 0 3.06473e-08 0 3.02004e-08)
(3.00079e-08 -1.36837e-10 0 2.95355e-08 0 2.96869e-08)
(3.05897e-08 -2.24032e-10 0 2.79037e-08 0 2.91837e-08)
(3.25331e-08 -2.11735e-10 0 2.53147e-08 0 2.88529e-08)
(3.37281e-08 -2.67061e-10 0 2.42889e-08 0 2.88786e-08)
(3.53047e-08 -4.54003e-10 0 2.03851e-08 0 2.8356e-08)
(2.98495e-08 -3.11374e-10 0 2.74064e-08 0 2.86307e-08)
(2.94235e-08 -3.09908e-10 0 2.77905e-08 0 2.86091e-08)
(2.90393e-08 -3.11319e-10 0 2.81565e-08 0 2.85984e-08)
(2.86803e-08 -3.14741e-10 0 2.85096e-08 0 2.85947e-08)
(2.83542e-08 -3.17929e-10 0 2.88398e-08 0 2.85966e-08)
(2.80968e-08 -3.19926e-10 0 2.91123e-08 0 2.86031e-08)
(2.78489e-08 -3.25463e-10 0 2.9364e-08 0 2.86081e-08)
(2.76263e-08 -3.25333e-10 0 2.96122e-08 0 2.862e-08)
(2.73939e-08 -3.22531e-10 0 2.9886e-08 0 2.86382e-08)
(2.71816e-08 -3.19185e-10 0 3.01387e-08 0 2.86573e-08)
(2.69383e-08 -3.13635e-10 0 3.04196e-08 0 2.86784e-08)
(2.6674e-08 -3.09572e-10 0 3.075e-08 0 2.87107e-08)
(2.63815e-08 -3.00925e-10 0 3.11183e-08 0 2.87497e-08)
(2.6004e-08 -2.84235e-10 0 3.16519e-08 0 2.88229e-08)
(2.54939e-08 -2.58741e-10 0 3.2364e-08 0 2.89285e-08)
(2.48306e-08 -2.20734e-10 0 3.34839e-08 0 2.91438e-08)
(2.4074e-08 -1.7463e-10 0 3.48853e-08 0 2.9456e-08)
(2.32964e-08 -1.29692e-10 0 3.6588e-08 0 2.98991e-08)
(2.24703e-08 -7.80806e-11 0 3.86866e-08 0 3.05162e-08)
(2.18498e-08 -2.63576e-11 0 4.08893e-08 0 3.12506e-08)
(2.08484e-08 1.8908e-10 0 4.41431e-08 0 3.24356e-08)
(2.01692e-08 2.5783e-10 0 4.96092e-08 0 3.45984e-08)
(1.90257e-08 5.94109e-10 0 5.88367e-08 0 3.87116e-08)
(1.9108e-08 1.31094e-09 0 7.19123e-08 0 4.49523e-08)
(2.02543e-08 1.73577e-09 0 8.4131e-08 0 5.09451e-08)
(2.03075e-08 2.14194e-10 0 8.67278e-08 0 5.26739e-08)
(2.00986e-08 2.85615e-10 0 8.28361e-08 0 5.07611e-08)
(2.00964e-08 4.22141e-10 0 7.75706e-08 0 4.81723e-08)
(2.04606e-08 3.17935e-10 0 7.31734e-08 0 4.62062e-08)
(2.07969e-08 1.64446e-10 0 6.98456e-08 0 4.48019e-08)
(2.13206e-08 1.01212e-10 0 6.66363e-08 0 4.35103e-08)
(2.15811e-08 9.2625e-11 0 6.30372e-08 0 4.19248e-08)
(2.27364e-08 4.82767e-11 0 5.77004e-08 0 3.98112e-08)
(2.42386e-08 1.45234e-11 0 5.06201e-08 0 3.71315e-08)
(2.53858e-08 -5.51419e-12 0 4.42911e-08 0 3.4609e-08)
(2.68932e-08 6.70899e-11 0 3.95344e-08 0 3.30327e-08)
(2.84525e-08 1.52928e-10 0 3.55799e-08 0 3.19173e-08)
(2.97821e-08 1.66469e-10 0 3.25067e-08 0 3.10313e-08)
(2.98669e-08 3.48457e-11 0 3.07489e-08 0 3.02562e-08)
(3.0014e-08 -1.24245e-10 0 2.96328e-08 0 2.9719e-08)
(3.07003e-08 -1.98277e-10 0 2.79785e-08 0 2.92936e-08)
(3.26992e-08 -2.08114e-10 0 2.55366e-08 0 2.90204e-08)
(3.38303e-08 -1.54472e-10 0 2.44756e-08 0 2.90353e-08)
(3.55007e-08 -1.12932e-09 0 2.17235e-08 0 2.89675e-08)
(2.98472e-08 -3.09011e-10 0 2.74076e-08 0 2.86307e-08)
(2.94229e-08 -3.07745e-10 0 2.77937e-08 0 2.861e-08)
(2.90413e-08 -3.09479e-10 0 2.81595e-08 0 2.85998e-08)
(2.86877e-08 -3.12756e-10 0 2.85104e-08 0 2.85968e-08)
(2.83557e-08 -3.16443e-10 0 2.88483e-08 0 2.85991e-08)
(2.80993e-08 -3.20248e-10 0 2.91211e-08 0 2.8606e-08)
(2.78508e-08 -3.24917e-10 0 2.93794e-08 0 2.86125e-08)
(2.76305e-08 -3.2525e-10 0 2.96272e-08 0 2.86249e-08)
(2.73999e-08 -3.21795e-10 0 2.99005e-08 0 2.86434e-08)
(2.71885e-08 -3.17629e-10 0 3.01514e-08 0 2.86621e-08)
(2.69415e-08 -3.11264e-10 0 3.04334e-08 0 2.86826e-08)
(2.66749e-08 -3.07477e-10 0 3.07607e-08 0 2.87136e-08)
(2.63862e-08 -2.98548e-10 0 3.11363e-08 0 2.87556e-08)
(2.59978e-08 -2.80445e-10 0 3.1641e-08 0 2.88182e-08)
(2.55183e-08 -2.52981e-10 0 3.24115e-08 0 2.89471e-08)
(2.4849e-08 -2.11401e-10 0 3.34967e-08 0 2.91506e-08)
(2.40723e-08 -1.57353e-10 0 3.48861e-08 0 2.94555e-08)
(2.32947e-08 -1.08008e-10 0 3.66026e-08 0 2.99032e-08)
(2.24688e-08 -6.08091e-11 0 3.86851e-08 0 3.05149e-08)
(2.18518e-08 3.06583e-12 0 4.08909e-08 0 3.12509e-08)
(2.08483e-08 2.26716e-10 0 4.41377e-08 0 3.24333e-08)
(2.01379e-08 3.82455e-10 0 4.95009e-08 0 3.45506e-08)
(1.89979e-08 7.17343e-10 0 5.87676e-08 0 3.8681e-08)
(1.90826e-08 1.40356e-09 0 7.18657e-08 0 4.49329e-08)
(2.02248e-08 1.85903e-09 0 8.40645e-08 0 5.09184e-08)
(2.03653e-08 2.6659e-10 0 8.66899e-08 0 5.26561e-08)
(2.02025e-08 3.78735e-10 0 8.2969e-08 0 5.08225e-08)
(2.02605e-08 6.07318e-10 0 7.77793e-08 0 4.82783e-08)
(2.04609e-08 5.11383e-10 0 7.32949e-08 0 4.62536e-08)
(2.08616e-08 2.41411e-10 0 6.98578e-08 0 4.48169e-08)
(2.12646e-08 8.26655e-11 0 6.66309e-08 0 4.35034e-08)
(2.16416e-08 4.35291e-11 0 6.30212e-08 0 4.19e-08)
(2.27671e-08 3.39611e-11 0 5.76755e-08 0 3.98363e-08)
(2.42449e-08 3.20138e-11 0 5.06337e-08 0 3.71329e-08)
(2.5238e-08 6.11974e-11 0 4.42213e-08 0 3.45428e-08)
(2.69076e-08 1.6644e-10 0 3.94102e-08 0 3.29931e-08)
(2.85541e-08 2.54477e-10 0 3.56904e-08 0 3.19817e-08)
(2.98321e-08 2.6353e-10 0 3.26118e-08 0 3.10963e-08)
(2.99101e-08 1.35957e-10 0 3.0824e-08 0 3.03133e-08)
(3.00109e-08 -9.66032e-11 0 2.96524e-08 0 2.97475e-08)
(3.07466e-08 -1.73564e-10 0 2.804e-08 0 2.93394e-08)
(3.27718e-08 -1.96009e-10 0 2.55483e-08 0 2.90814e-08)
(3.39746e-08 -1.8393e-10 0 2.46167e-08 0 2.91523e-08)
(3.59577e-08 -1.18796e-09 0 2.18698e-08 0 2.92074e-08)
(2.98463e-08 -3.07603e-10 0 2.74113e-08 0 2.86313e-08)
(2.94231e-08 -3.06655e-10 0 2.77938e-08 0 2.861e-08)
(2.90432e-08 -3.08877e-10 0 2.81542e-08 0 2.85989e-08)
(2.86805e-08 -3.12473e-10 0 2.85063e-08 0 2.85938e-08)
(2.83522e-08 -3.16816e-10 0 2.88321e-08 0 2.85939e-08)
(2.80923e-08 -3.2174e-10 0 2.91047e-08 0 2.85998e-08)
(2.78436e-08 -3.26418e-10 0 2.93618e-08 0 2.8606e-08)
(2.76255e-08 -3.26687e-10 0 2.96072e-08 0 2.86183e-08)
(2.73901e-08 -3.22831e-10 0 2.98786e-08 0 2.86349e-08)