/*--------------------------------*- C++ -*----------------------------------*\
| =========                 |                                                 |
| \\      /  F ield         | OpenFOAM: The Open Source CFD Toolbox           |
|  \\    /   O peration     | Version:  v1912                                 |
|   \\  /    A nd           | Website:  www.openfoam.com                      |
|    \\/     M anipulation  |                                                 |
\*---------------------------------------------------------------------------*/
FoamFile
{
    version     2.0;
    format      ascii;
    class       surfaceScalarField;
    location    "20";
    object      phi;
}
// * * * * * * * * * * * * * * * * * * * * * * * * * * * * * * * * * * * * * //

dimensions      [0 3 -1 0 0 0 0];
oriented        oriented;


internalField   nonuniform List<scalar> 
28285
(
1.14033e-06
6.47809e-08
1.07883e-06
6.14958e-08
1.02047e-06
5.836e-08
9.65096e-07
5.53785e-08
9.12563e-07
5.25336e-08
8.62733e-07
4.98298e-08
8.15482e-07
4.72507e-08
7.70682e-07
4.48003e-08
7.28218e-07
4.24639e-08
6.87973e-07
4.0245e-08
6.49843e-07
3.813e-08
6.13721e-07
3.61223e-08
5.79512e-07
3.42091e-08
5.47118e-07
3.2394e-08
5.16453e-07
3.06648e-08
4.87428e-07
2.90251e-08
4.59964e-07
2.74635e-08
4.33981e-07
2.59834e-08
4.09407e-07
2.45744e-08
3.86167e-07
2.32394e-08
3.64198e-07
2.19691e-08
3.43432e-07
2.07661e-08
3.2381e-07
1.96219e-08
3.05271e-07
1.85387e-08
2.87762e-07
1.7509e-08
2.71228e-07
1.65345e-08
2.55619e-07
1.56087e-08
2.40886e-07
1.47328e-08
2.26985e-07
1.39011e-08
2.1387e-07
1.31146e-08
2.01502e-07
1.2368e-08
1.8984e-07
1.16624e-08
1.78847e-07
1.0993e-08
1.68486e-07
1.03605e-08
1.58726e-07
9.7608e-09
1.49531e-07
9.1945e-09
1.40873e-07
8.65772e-09
1.32722e-07
8.15112e-09
1.25051e-07
7.67118e-09
1.17833e-07
7.21842e-09
1.11043e-07
6.78973e-09
1.04658e-07
6.38548e-09
9.86545e-08
6.00298e-09
9.30121e-08
5.64242e-09
8.77106e-08
5.30147e-09
8.27304e-08
4.9802e-09
7.80538e-08
4.67662e-09
7.36631e-08
4.39066e-09
6.95425e-08
4.12065e-09
6.56761e-08
3.86639e-09
6.20496e-08
3.62648e-09
5.8649e-08
3.40067e-09
5.54612e-08
3.18775e-09
5.24738e-08
2.98742e-09
4.96751e-08
2.79866e-09
4.7054e-08
2.62116e-09
4.46e-08
2.454e-09
4.23031e-08
2.2969e-09
4.0154e-08
2.14906e-09
3.81438e-08
2.01018e-09
3.62643e-08
1.87956e-09
3.45073e-08
1.75695e-09
3.28656e-08
1.64169e-09
3.1332e-08
1.53357e-09
2.99e-08
1.432e-09
2.85633e-08
1.33677e-09
2.73159e-08
1.24738e-09
2.61523e-08
1.16361e-09
2.50672e-08
1.08505e-09
2.40558e-08
1.01145e-09
2.31133e-08
9.42494e-10
2.22353e-08
8.77922e-10
2.14179e-08
8.17475e-10
2.0657e-08
7.60907e-10
1.9949e-08
7.07988e-10
1.92905e-08
6.58503e-10
1.86782e-08
6.12241e-10
1.81092e-08
5.69011e-10
1.75806e-08
5.28632e-10
1.70897e-08
4.90921e-10
1.66339e-08
4.55729e-10
1.62111e-08
4.22884e-10
1.58188e-08
3.92258e-10
1.54551e-08
3.63699e-10
1.5118e-08
3.37088e-10
1.48057e-08
3.12297e-10
1.45165e-08
2.89212e-10
1.42488e-08
2.67728e-10
1.4001e-08
2.4774e-10
1.37719e-08
2.29158e-10
1.356e-08
2.11879e-10
1.33642e-08
1.95836e-10
1.31832e-08
1.80934e-10
1.30161e-08
1.67111e-10
1.28618e-08
1.5429e-10
1.27194e-08
1.42403e-10
1.2588e-08
1.31403e-10
1.24668e-08
1.21207e-10
1.2355e-08
1.11797e-10
1.22519e-08
1.03083e-10
1.21569e-08
9.50585e-11
1.20692e-08
8.76403e-11
1.19884e-08
8.08264e-11
1.19139e-08
7.45464e-11
1.18451e-08
6.87939e-11
1.17816e-08
6.35131e-11
1.17229e-08
5.86947e-11
1.16686e-08
5.4297e-11
1.16183e-08
5.03082e-11
1.15716e-08
4.66991e-11
1.15281e-08
4.34526e-11
1.14875e-08
4.05547e-11
1.14496e-08
3.79866e-11
1.14138e-08
3.5743e-11
1.138e-08
3.38091e-11
1.13478e-08
3.21793e-11
1.1317e-08
3.08506e-11
1.12872e-08
2.98141e-11
1.12581e-08
2.90858e-11
1.12294e-08
2.86362e-11
1.12009e-08
2.85345e-11
1.11722e-08
2.86646e-11
1.1143e-08
2.92312e-11
1.11131e-08
2.99472e-11
1.10817e-08
3.13919e-11
1.10495e-08
3.22002e-11
1.10138e-08
3.57178e-11
1.09792e-08
3.46e-11
1.09363e-08
4.28312e-11
1.08994e-08
3.69022e-11
1.08476e-08
5.17954e-11
1.08082e-08
3.94533e-11
1.07469e-08
6.12424e-11
1.07057e-08
4.12373e-11
1.06363e-08
6.94065e-11
1.05966e-08
3.97077e-11
1.05236e-08
7.303e-11
1.04927e-08
3.08582e-11
1.04256e-08
6.70668e-11
1.04149e-08
1.07697e-11
1.0369e-08
4.58608e-11
1.03783e-08
-9.25839e-12
1.03572e-08
2.10192e-11
1.04013e-08
-4.40394e-11
1.04178e-08
-1.65736e-11
1.04778e-08
-5.99986e-11
1.05133e-08
-3.54878e-11
1.05793e-08
-6.59909e-11
1.06239e-08
-4.45944e-11
1.0688e-08
-6.4085e-11
1.07344e-08
-4.63781e-11
1.07924e-08
-5.7994e-11
1.08362e-08
-4.38282e-11
1.08876e-08
-5.14219e-11
1.0927e-08
-3.93645e-11
1.09738e-08
-4.68038e-11
1.10097e-08
-3.59333e-11
1.10555e-08
-4.57265e-11
1.1095e-08
-3.95572e-11
1.1148e-08
-5.29979e-11
1.12399e-08
-9.19085e-11
1.13523e-08
-1.12401e-10
1.40377e-08
-2.68534e-09
-2.70145e-09
1.13794e-06
1.29423e-07
1.07657e-06
1.2286e-07
1.01834e-06
1.16595e-07
9.63078e-07
1.10638e-07
9.10656e-07
1.04955e-07
8.60934e-07
9.95527e-08
8.13784e-07
9.44e-08
7.6908e-07
8.95044e-08
7.26707e-07
8.48366e-08
6.86549e-07
8.04035e-08
6.48501e-07
7.6178e-08
6.12456e-07
7.21668e-08
5.78321e-07
6.83447e-08
5.45996e-07
6.47182e-08
5.15398e-07
6.12636e-08
4.86435e-07
5.79876e-08
4.59031e-07
5.48678e-08
4.33103e-07
5.19107e-08
4.08582e-07
4.90957e-08
3.85393e-07
4.64286e-08
3.63471e-07
4.38908e-08
3.4275e-07
4.14874e-08
3.2317e-07
3.92015e-08
3.04672e-07
3.70373e-08
2.87201e-07
3.49802e-08
2.70702e-07
3.30333e-08
2.55127e-07
3.11836e-08
2.40426e-07
2.94337e-08
2.26555e-07
2.7772e-08
2.13469e-07
2.62006e-08
2.01128e-07
2.47092e-08
1.89491e-07
2.32995e-08
1.78522e-07
2.1962e-08
1.68184e-07
2.06985e-08
1.58444e-07
1.95003e-08
1.4927e-07
1.8369e-08
1.40631e-07
1.72966e-08
1.32498e-07
1.62845e-08
1.24843e-07
1.53256e-08
1.1764e-07
1.44211e-08
1.10866e-07
1.35646e-08
1.04494e-07
1.2757e-08
9.85042e-08
1.19928e-08
9.28741e-08
1.12725e-08
8.75842e-08
1.05913e-08
8.2615e-08
9.94949e-09
7.79486e-08
9.34298e-09
7.35676e-08
8.77168e-09
6.9456e-08
8.23224e-09
6.55981e-08
7.72428e-09
6.19796e-08
7.24498e-09
5.85864e-08
6.79385e-09
5.54057e-08
6.36847e-09
5.24249e-08
5.96826e-09
4.96324e-08
5.59115e-09
4.7017e-08
5.23652e-09
4.45684e-08
4.90258e-09
4.22766e-08
4.58872e-09
4.01323e-08
4.29335e-09
3.81266e-08
4.0159e-09
3.62512e-08
3.75496e-09
3.44982e-08
3.50999e-09
3.28601e-08
3.27974e-09
3.133e-08
3.06373e-09
2.99012e-08
2.86082e-09
2.85674e-08
2.67056e-09
2.73228e-08
2.49198e-09
2.61618e-08
2.32462e-09
2.50791e-08
2.16767e-09
2.407e-08
2.02063e-09
2.31296e-08
1.88287e-09
2.22536e-08
1.75387e-09
2.1438e-08
1.63311e-09
2.06788e-08
1.5201e-09
1.99724e-08
1.41438e-09
1.93154e-08
1.31552e-09
1.87045e-08
1.2231e-09
1.81368e-08
1.13673e-09
1.76094e-08
1.05606e-09
1.71196e-08
9.80727e-10
1.66649e-08
9.10422e-10
1.6243e-08
8.44804e-10
1.58516e-08
7.8362e-10
1.54887e-08
7.26566e-10
1.51524e-08
6.73403e-10
1.48408e-08
6.23877e-10
1.45523e-08
5.77759e-10
1.42852e-08
5.3484e-10
1.4038e-08
4.94907e-10
1.38094e-08
4.57785e-10
1.3598e-08
4.23268e-10
1.34026e-08
3.91217e-10
1.32221e-08
3.61447e-10
1.30554e-08
3.33832e-10
1.29014e-08
3.0822e-10
1.27594e-08
2.84473e-10
1.26283e-08
2.62497e-10
1.25074e-08
2.4213e-10
1.23958e-08
2.23331e-10
1.2293e-08
2.05923e-10
1.21982e-08
1.89892e-10
1.21107e-08
1.75074e-10
1.20301e-08
1.61461e-10
1.19557e-08
1.48917e-10
1.18871e-08
1.37425e-10
1.18237e-08
1.26876e-10
1.17652e-08
1.17251e-10
1.1711e-08
1.08466e-10
1.16608e-08
1.00498e-10
1.16142e-08
9.32893e-11
1.15709e-08
8.68048e-11
1.15304e-08
8.10165e-11
1.14925e-08
7.58878e-11
1.14568e-08
7.1407e-11
1.14231e-08
6.75454e-11
1.1391e-08
6.42915e-11
1.13602e-08
6.1639e-11
1.13304e-08
5.95711e-11
1.13014e-08
5.81184e-11
1.12728e-08
5.72237e-11
1.12443e-08
5.70223e-11
1.12157e-08
5.72876e-11
1.11865e-08
5.842e-11
1.11566e-08
5.9859e-11
1.11253e-08
6.27366e-11
1.10931e-08
6.43833e-11
1.10575e-08
7.13482e-11
1.10228e-08
6.92336e-11
1.09801e-08
8.551e-11
1.09432e-08
7.38804e-11
1.08915e-08
1.03414e-10
1.0852e-08
7.89809e-11
1.0791e-08
1.22299e-10
1.07497e-08
8.25332e-11
1.06805e-08
1.38614e-10
1.06407e-08
7.94495e-11
1.05679e-08
1.45846e-10
1.0537e-08
6.17127e-11
1.04702e-08
1.33897e-10
1.04595e-08
2.14996e-11
1.04138e-08
9.15319e-11
1.0423e-08
-1.84022e-11
1.04021e-08
4.18374e-11
1.04461e-08
-8.80107e-11
1.04627e-08
-3.32062e-11
1.05226e-08
-1.19856e-10
1.05581e-08
-7.10132e-11
1.06239e-08
-1.31811e-10
1.06686e-08
-8.92199e-11
1.07325e-08
-1.27984e-10
1.07789e-08
-9.27889e-11
1.08367e-08
-1.15799e-10
1.08806e-08
-8.76982e-11
1.09318e-08
-1.02657e-10
1.09712e-08
-7.87836e-11
1.10178e-08
-9.34246e-11
1.10538e-08
-7.19268e-11
1.10994e-08
-9.12773e-11
1.1139e-08
-7.91461e-11
1.11918e-08
-1.05873e-10
1.12836e-08
-1.83643e-10
1.13994e-08
-2.28239e-10
1.42167e-08
-5.50266e-09
-5.54061e-09
1.13647e-06
1.94001e-07
1.07517e-06
1.84163e-07
1.01699e-06
1.74772e-07
9.61786e-07
1.65843e-07
9.09417e-07
1.57324e-07
8.59744e-07
1.49226e-07
8.12642e-07
1.41502e-07
7.67982e-07
1.34164e-07
7.25652e-07
1.27167e-07
6.85533e-07
1.20522e-07
6.47523e-07
1.14188e-07
6.11515e-07
1.08175e-07
5.77414e-07
1.02446e-07
5.45122e-07
9.701e-08
5.14554e-07
9.18316e-08
4.8562e-07
8.6921e-08
4.58243e-07
8.22446e-08
4.32342e-07
7.78119e-08
4.07846e-07
7.35923e-08
3.8468e-07
6.95945e-08
3.6278e-07
6.57904e-08
3.4208e-07
6.21877e-08
3.2252e-07
5.87612e-08
3.0404e-07
5.55172e-08
2.86587e-07
5.24336e-08
2.70105e-07
4.95153e-08
2.54546e-07
4.67427e-08
2.3986e-07
4.41196e-08
2.26003e-07
4.16289e-08
2.1293e-07
3.92734e-08
2.00601e-07
3.70378e-08
1.88976e-07
3.49247e-08
1.78018e-07
3.29199e-08
1.67691e-07
3.1026e-08
1.57961e-07
2.92299e-08
1.48796e-07
2.75341e-08
1.40166e-07
2.59266e-08
1.32041e-07
2.44095e-08
1.24395e-07
2.29722e-08
1.17199e-07
2.16163e-08
1.10431e-07
2.03326e-08
1.04066e-07
1.9122e-08
9.80827e-08
1.79765e-08
9.24585e-08
1.68968e-08
8.71741e-08
1.58757e-08
8.22099e-08
1.49136e-08
7.75483e-08
1.40045e-08
7.31719e-08
1.31482e-08
6.90645e-08
1.23396e-08
6.52106e-08
1.15782e-08
6.15959e-08
1.08597e-08
5.82062e-08
1.01835e-08
5.50288e-08
9.54589e-09
5.2051e-08
8.946e-09
4.92614e-08
8.38073e-09
4.66488e-08
7.84916e-09
4.42028e-08
7.34861e-09
4.19133e-08
6.87815e-09
3.97713e-08
6.43541e-09
3.77676e-08
6.01953e-09
3.58942e-08
5.62839e-09
3.4143e-08
5.2612e-09
3.25067e-08
4.91607e-09
3.09781e-08
4.59228e-09
2.95508e-08
4.28814e-09
2.82184e-08
4.00296e-09
2.69751e-08
3.73528e-09
2.58153e-08
3.48441e-09
2.47338e-08
3.24916e-09
2.37257e-08
3.02876e-09
2.27863e-08
2.82227e-09
2.19113e-08
2.6289e-09
2.10965e-08
2.44789e-09
2.03381e-08
2.2785e-09
1.96324e-08
2.12003e-09
1.89761e-08
1.97185e-09
1.83659e-08
1.83331e-09
1.77988e-08
1.70386e-09
1.72719e-08
1.58294e-09
1.67826e-08
1.47002e-09
1.63284e-08
1.36464e-09
1.59069e-08
1.26628e-09
1.55159e-08
1.17457e-09
1.51535e-08
1.08905e-09
1.48175e-08
1.00937e-09
1.45062e-08
9.35132e-10
1.4218e-08
8.66004e-10
1.39512e-08
8.01674e-10
1.37042e-08
7.41819e-10
1.34759e-08
6.86176e-10
1.32647e-08
6.34438e-10
1.30695e-08
5.86396e-10
1.28892e-08
5.41774e-10
1.27226e-08
5.00382e-10
1.25689e-08
4.61993e-10
1.24269e-08
4.26398e-10
1.2296e-08
3.93458e-10
1.21752e-08
3.6293e-10
1.20637e-08
3.34753e-10
1.1961e-08
3.08659e-10
1.18663e-08
2.84631e-10
1.17789e-08
2.6242e-10
1.16984e-08
2.42017e-10
1.16241e-08
2.23214e-10
1.15555e-08
2.05989e-10
1.14922e-08
1.90178e-10
1.14337e-08
1.75751e-10
1.13796e-08
1.62585e-10
1.13294e-08
1.50642e-10
1.12829e-08
1.39837e-10
1.12396e-08
1.30118e-10
1.11992e-08
1.21442e-10
1.11613e-08
1.13756e-10
1.11257e-08
1.0704e-10
1.10919e-08
1.01253e-10
1.10599e-08
9.63767e-11
1.10291e-08
9.24019e-11
1.09994e-08
8.93036e-11
1.09704e-08
8.71274e-11
1.09418e-08
8.57881e-11
1.09133e-08
8.54876e-11
1.08847e-08
8.58878e-11
1.08556e-08
8.75866e-11
1.08257e-08
8.97473e-11
1.07944e-08
9.40592e-11
1.07622e-08
9.65403e-11
1.07266e-08
1.06956e-10
1.0692e-08
1.03846e-10
1.06493e-08
1.28143e-10
1.06123e-08
1.10876e-10
1.05608e-08
1.54927e-10
1.05212e-08
1.18585e-10
1.04603e-08
1.83183e-10
1.04189e-08
1.23963e-10
1.03499e-08
2.07589e-10
1.031e-08
1.19374e-10
1.02375e-08
2.18375e-10
1.02064e-08
9.27873e-11
1.01399e-08
2.00423e-10
1.01289e-08
3.24468e-11
1.00835e-08
1.36934e-10
1.00924e-08
-2.72688e-11
1.00721e-08
6.21861e-11
1.01158e-08
-1.31774e-10
1.01328e-08
-5.01437e-11
1.01924e-08
-1.79494e-10
1.02281e-08
-1.06747e-10
1.02937e-08
-1.97424e-10
1.03385e-08
-1.33968e-10
1.04022e-08
-1.91707e-10
1.04487e-08
-1.39256e-10
1.05063e-08
-1.73464e-10
1.05502e-08
-1.3159e-10
1.06013e-08
-1.5377e-10
1.06408e-08
-1.18229e-10
1.06873e-08
-1.3992e-10
1.07233e-08
-1.07972e-10
1.07688e-08
-1.36707e-10
1.08084e-08
-1.18814e-10
1.08613e-08
-1.58742e-10
1.09532e-08
-2.75582e-10
1.10728e-08
-3.4777e-10
1.39442e-08
-8.37414e-09
-8.44273e-09
1.13466e-06
2.58547e-07
1.07338e-06
2.45435e-07
1.01524e-06
2.3292e-07
9.60059e-07
2.2102e-07
9.07717e-07
2.09666e-07
8.58069e-07
1.98874e-07
8.1099e-07
1.88581e-07
7.66353e-07
1.78801e-07
7.24044e-07
1.69476e-07
6.83946e-07
1.6062e-07
6.45955e-07
1.52179e-07
6.09965e-07
1.44165e-07
5.75881e-07
1.3653e-07
5.43606e-07
1.29285e-07
5.13053e-07
1.22384e-07
4.84135e-07
1.1584e-07
4.56772e-07
1.09607e-07
4.30884e-07
1.037e-07
4.064e-07
9.80764e-08
3.83246e-07
9.27484e-08
3.61358e-07
8.76787e-08
3.40668e-07
8.28773e-08
3.21119e-07
7.83108e-08
3.02648e-07
7.39876e-08
2.85204e-07
6.9878e-08
2.68731e-07
6.59887e-08
2.5318e-07
6.22937e-08
2.38501e-07
5.87979e-08
2.24652e-07
5.54784e-08
2.11586e-07
5.23394e-08
1.99264e-07
4.93599e-08
1.87645e-07
4.65438e-08
1.76693e-07
4.3872e-08
1.66371e-07
4.1348e-08
1.56646e-07
3.89544e-08
1.47486e-07
3.66943e-08
1.3886e-07
3.4552e-08
1.3074e-07
3.25302e-08
1.23097e-07
3.06147e-08
1.15906e-07
2.88078e-08
1.09141e-07
2.70969e-08
1.0278e-07
2.54835e-08
9.67995e-08
2.3957e-08
9.11782e-08
2.2518e-08
8.58967e-08
2.11573e-08
8.09352e-08
1.98751e-08
7.62762e-08
1.86635e-08
7.19021e-08
1.75223e-08
6.77969e-08
1.64447e-08
6.39451e-08
1.543e-08
6.03324e-08
1.44725e-08
5.69446e-08
1.35713e-08
5.37689e-08
1.27216e-08
5.07928e-08
1.19221e-08
4.80047e-08
1.11688e-08
4.53935e-08
1.04604e-08
4.29488e-08
9.79329e-09
4.06607e-08
9.16631e-09
3.85198e-08
8.57628e-09
3.65173e-08
8.02204e-09
3.46449e-08
7.50078e-09
3.28947e-08
7.01144e-09
3.12593e-08
6.55149e-09
2.97316e-08
6.11997e-09
2.8305e-08
5.71466e-09
2.69734e-08
5.3346e-09
2.57308e-08
4.97788e-09
2.45717e-08
4.64355e-09
2.34908e-08
4.33003e-09
2.24833e-08
4.03631e-09
2.15444e-08
3.76112e-09
2.06699e-08
3.50344e-09
1.98556e-08
3.2622e-09
1.90976e-08
3.03646e-09
1.83923e-08
2.82527e-09
1.77364e-08
2.62779e-09
1.71265e-08
2.44318e-09
1.65597e-08
2.27066e-09
1.60332e-08
2.10952e-09
1.55442e-08
1.95903e-09
1.50902e-08
1.81859e-09
1.4669e-08
1.68752e-09
1.42782e-08
1.5653e-09
1.3916e-08
1.45133e-09
1.35802e-08
1.34513e-09
1.32691e-08
1.2462e-09
1.29811e-08
1.15408e-09
1.27144e-08
1.06835e-09
1.24676e-08
9.88583e-10
1.22394e-08
9.1443e-10
1.20283e-08
8.45482e-10
1.18333e-08
7.81457e-10
1.1653e-08
7.21994e-10
1.14866e-08
6.66831e-10
1.13329e-08
6.15672e-10
1.11911e-08
5.68237e-10
1.10602e-08
5.2434e-10
1.09395e-08
4.83657e-10
1.08281e-08
4.46106e-10
1.07254e-08
4.11334e-10
1.06308e-08
3.79312e-10
1.05435e-08
3.49714e-10
1.0463e-08
3.22522e-10
1.03887e-08
2.97466e-10
1.03202e-08
2.7451e-10
1.02569e-08
2.53442e-10
1.01985e-08
2.34215e-10
1.01444e-08
2.16671e-10
1.00943e-08
2.00755e-10
1.00477e-08
1.86357e-10
1.00044e-08
1.73406e-10
9.96404e-09
1.61845e-10
9.9262e-09
1.51603e-10
9.89058e-09
1.42654e-10
9.85689e-09
1.34943e-10
9.82482e-09
1.28446e-10
9.79408e-09
1.23151e-10
9.76436e-09
1.19024e-10
9.73536e-09
1.16125e-10
9.7068e-09
1.14343e-10
9.67835e-09
1.13945e-10
9.64975e-09
1.14482e-10
9.62059e-09
1.16747e-10
9.59071e-09
1.19632e-10
9.55939e-09
1.25376e-10
9.52723e-09
1.28703e-10
9.49164e-09
1.42541e-10
9.45697e-09
1.38522e-10
9.41448e-09
1.70631e-10
9.37724e-09
1.48118e-10
9.3261e-09
2.06067e-10
9.286e-09
1.58679e-10
9.22574e-09
2.43447e-10
9.18359e-09
1.66114e-10
9.11547e-09
2.75703e-10
9.07462e-09
1.60223e-10
9.00317e-09
2.89834e-10
8.97102e-09
1.24933e-10
8.90573e-09
2.65712e-10
8.89364e-09
4.45349e-11
8.84953e-09
1.81052e-10
8.85716e-09
-3.48987e-11
8.83805e-09
8.12884e-11
8.88078e-09
-1.74497e-10
8.89877e-09
-6.8139e-11
8.95748e-09
-2.38201e-10
8.99407e-09
-1.4334e-10
9.05894e-09
-2.62291e-10
9.1043e-09
-1.79334e-10
9.16749e-09
-2.54889e-10
9.21435e-09
-1.86119e-10
9.27165e-09
-2.30762e-10
9.3158e-09
-1.75739e-10
9.36662e-09
-2.0459e-10
9.40631e-09
-1.57918e-10
9.45248e-09
-1.86093e-10
9.48883e-09
-1.44326e-10
9.53386e-09
-1.81733e-10
9.57392e-09
-1.5887e-10
9.62633e-09
-2.11156e-10
9.7185e-09
-3.67752e-10
9.83979e-09
-4.69059e-10
1.24343e-08
-1.09687e-08
-1.10703e-08
1.13208e-06
3.23073e-07
1.07083e-06
3.06689e-07
1.0127e-06
2.9105e-07
9.57538e-07
2.7618e-07
9.05212e-07
2.61992e-07
8.55579e-07
2.48507e-07
8.08516e-07
2.35644e-07
7.63893e-07
2.23424e-07
7.21598e-07
2.11771e-07
6.81512e-07
2.00705e-07
6.43534e-07
1.90157e-07
6.07556e-07
1.80144e-07
5.73483e-07
1.70603e-07
5.41218e-07
1.6155e-07
5.10675e-07
1.52926e-07
4.81766e-07
1.44749e-07
4.54413e-07
1.36961e-07
4.28533e-07
1.29579e-07
4.04057e-07
1.22552e-07
3.80911e-07
1.15895e-07
3.5903e-07
1.0956e-07
3.38347e-07
1.0356e-07
3.18804e-07
9.78539e-08
3.0034e-07
9.24517e-08
2.82901e-07
8.73166e-08
2.66434e-07
8.24566e-08
2.50888e-07
7.78394e-08
2.36215e-07
7.34712e-08
2.2237e-07
6.93233e-08
2.09308e-07
6.54008e-08
1.9699e-07
6.16778e-08
1.85375e-07
5.81589e-08
1.74427e-07
5.48204e-08
1.64108e-07
5.16664e-08
1.54387e-07
4.86755e-08
1.4523e-07
4.58513e-08
1.36608e-07
4.31744e-08
1.2849e-07
4.0648e-08
1.2085e-07
3.82546e-08
1.13661e-07
3.59966e-08
1.06899e-07
3.38588e-08
1.0054e-07
3.18428e-08
9.45618e-08
2.99353e-08
8.89426e-08
2.81372e-08
8.36629e-08
2.6437e-08
7.87032e-08
2.48348e-08
7.40459e-08
2.33209e-08
6.96733e-08
2.18948e-08
6.55697e-08
2.05483e-08
6.17193e-08
1.92803e-08
5.81079e-08
1.8084e-08
5.47213e-08
1.69579e-08
5.15468e-08
1.58961e-08
4.85718e-08
1.48971e-08
4.57848e-08
1.39558e-08
4.31745e-08
1.30706e-08
4.07308e-08
1.22371e-08
3.84435e-08
1.14536e-08
3.63034e-08
1.07163e-08
3.43017e-08
1.00238e-08
3.243e-08
9.37247e-09
3.06804e-08
8.761e-09
2.90456e-08
8.18629e-09
2.75185e-08
7.64708e-09
2.60925e-08
7.14063e-09
2.47614e-08
6.66572e-09
2.35193e-08
6.22e-09
2.23606e-08
5.80223e-09
2.12801e-08
5.41048e-09
2.0273e-08
5.04347e-09
1.93345e-08
4.69961e-09
1.84603e-08
4.37763e-09
1.76463e-08
4.0762e-09
1.68886e-08
3.79412e-09
1.61837e-08
3.53024e-09
1.5528e-08
3.28348e-09
1.49184e-08
3.0528e-09
1.43518e-08
2.83723e-09
1.38254e-08
2.63588e-09
1.33366e-08
2.44784e-09
1.28828e-08
2.27236e-09
1.24618e-08
2.10858e-09
1.20712e-08
1.95586e-09
1.17091e-08
1.81346e-09
1.13734e-08
1.68076e-09
1.10625e-08
1.55715e-09
1.07745e-08
1.44204e-09
1.0508e-08
1.33492e-09
1.02613e-08
1.23525e-09
1.00331e-08
1.14259e-09
9.82218e-09
1.05644e-09
9.62719e-09
9.76441e-10
9.44704e-09
9.02142e-10
9.28066e-09
8.33214e-10
9.12704e-09
7.69291e-10
8.98526e-09
7.1002e-10
8.85443e-09
6.55169e-10
8.73375e-09
6.04337e-10
8.62244e-09
5.57415e-10
8.51981e-09
5.13969e-10
8.42516e-09
4.73956e-10
8.3379e-09
4.36974e-10
8.25743e-09
4.02997e-10
8.1832e-09
3.71691e-10
8.11471e-09
3.43006e-10
8.05147e-09
3.16683e-10
7.99302e-09
2.92658e-10
7.93896e-09
2.70737e-10
7.88886e-09
2.50851e-10
7.84236e-09
2.32861e-10
7.79908e-09
2.16679e-10
7.75869e-09
2.02235e-10
7.72086e-09
1.89438e-10
7.68525e-09
1.78258e-10
7.65157e-09
1.68624e-10
7.61951e-09
1.60508e-10
7.58877e-09
1.53892e-10
7.55906e-09
1.48738e-10
7.53006e-09
1.45118e-10
7.50151e-09
1.42894e-10
7.47306e-09
1.42398e-10
7.44447e-09
1.43072e-10
7.41531e-09
1.45906e-10
7.38543e-09
1.49515e-10
7.35411e-09
1.56693e-10
7.32194e-09
1.60876e-10
7.28639e-09
1.78092e-10
7.25159e-09
1.73323e-10
7.20938e-09
2.12838e-10
7.17164e-09
1.8586e-10
7.12123e-09
2.56471e-10
7.08016e-09
1.99751e-10
7.02111e-09
3.02502e-10
6.97751e-09
2.09707e-10
6.91106e-09
3.42157e-10
6.86835e-09
2.02932e-10
6.79895e-09
3.59234e-10
6.76462e-09
1.59264e-10
6.70167e-09
3.28667e-10
6.68723e-09
5.89709e-11
6.64552e-09
2.22763e-10
6.65082e-09
-4.01987e-11
6.6342e-09
9.79018e-11
6.67471e-09
-2.15007e-10
6.6949e-09
-8.83278e-11
6.75169e-09
-2.94985e-10
6.79004e-09
-1.81696e-10
6.85339e-09
-3.25633e-10
6.90006e-09
-2.26006e-10
6.96213e-09
-3.16965e-10
7.00988e-09
-2.33865e-10
7.06642e-09
-2.87303e-10
7.11118e-09
-2.20496e-10
7.1614e-09
-2.54813e-10
7.20165e-09
-1.98174e-10
7.24718e-09
-2.31621e-10
7.28423e-09
-1.81371e-10
7.32847e-09
-2.25972e-10
7.3694e-09
-1.99807e-10
7.42092e-09
-2.6267e-10
7.51374e-09
-4.60575e-10
7.63472e-09
-5.9004e-10
9.59713e-09
-1.29311e-08
-1.30585e-08
1.12921e-06
3.87582e-07
1.06797e-06
3.67926e-07
1.00986e-06
3.49165e-07
9.54709e-07
3.31326e-07
9.02397e-07
3.14305e-07
8.52777e-07
2.98127e-07
8.05726e-07
2.82696e-07
7.61114e-07
2.68035e-07
7.1883e-07
2.54056e-07
6.78755e-07
2.4078e-07
6.40787e-07
2.28125e-07
6.04817e-07
2.16113e-07
5.70753e-07
2.04667e-07
5.38497e-07
1.93806e-07
5.07963e-07
1.83461e-07
4.79061e-07
1.7365e-07
4.51715e-07
1.64308e-07
4.25842e-07
1.55452e-07
4.01373e-07
1.47022e-07
3.78233e-07
1.39035e-07
3.56358e-07
1.31435e-07
3.35681e-07
1.24237e-07
3.16143e-07
1.17392e-07
2.97684e-07
1.10911e-07
2.8025e-07
1.0475e-07
2.63787e-07
9.89199e-08
2.48245e-07
9.33808e-08
2.33576e-07
8.81404e-08
2.19735e-07
8.31643e-08
2.06677e-07
7.84586e-08
1.94363e-07
7.39923e-08
1.82751e-07
6.97707e-08
1.71806e-07
6.57656e-08
1.6149e-07
6.19819e-08
1.51772e-07
5.83938e-08
1.42617e-07
5.50057e-08
1.33997e-07
5.17944e-08
1.25882e-07
4.87635e-08
1.18244e-07
4.58922e-08
1.11058e-07
4.31834e-08
1.04298e-07
4.06188e-08
9.79402e-08
3.82002e-08
9.19637e-08
3.59119e-08
8.63461e-08
3.37548e-08
8.1068e-08
3.17151e-08
7.61098e-08
2.9793e-08
7.14539e-08
2.79768e-08
6.70827e-08
2.6266e-08
6.29803e-08
2.46507e-08
5.91311e-08
2.31296e-08
5.55207e-08
2.16943e-08
5.21352e-08
2.03434e-08
4.89617e-08
1.90696e-08
4.59876e-08
1.78712e-08
4.32015e-08
1.67419e-08
4.05921e-08
1.568e-08
3.81491e-08
1.468e-08
3.58625e-08
1.37402e-08
3.37231e-08
1.28557e-08
3.1722e-08
1.20249e-08
2.98509e-08
1.12435e-08
2.81019e-08
1.051e-08
2.64677e-08
9.82056e-09
2.49411e-08
9.17369e-09
2.35156e-08
8.56614e-09
2.21849e-08
7.9964e-09
2.09432e-08
7.4617e-09
1.97849e-08
6.96053e-09
1.87048e-08
6.49057e-09
1.7698e-08
6.05029e-09
1.67598e-08
5.63778e-09
1.58859e-08
5.25152e-09
1.50722e-08
4.88991e-09
1.43148e-08
4.55152e-09
1.36101e-08
4.23496e-09
1.29546e-08
3.93894e-09
1.23452e-08
3.66221e-09
1.17788e-08
3.4036e-09
1.12527e-08
3.16206e-09
1.0764e-08
2.93648e-09
1.03104e-08
2.72596e-09
9.8895e-09
2.52949e-09
9.49908e-09
2.34629e-09
9.13708e-09
2.17546e-09
8.80157e-09
2.01627e-09
8.49074e-09
1.86798e-09
8.20288e-09
1.72989e-09
7.93641e-09
1.60139e-09
7.68984e-09
1.48182e-09
7.46176e-09
1.37067e-09
7.25088e-09
1.26732e-09
7.05597e-09
1.17135e-09
6.87589e-09
1.08222e-09
6.70957e-09
9.99533e-10
6.55601e-09
9.2285e-10
6.41429e-09
8.51749e-10
6.28351e-09
7.85948e-10
6.16287e-09
7.24971e-10
6.05161e-09
6.6868e-10
5.94901e-09
6.16564e-10
5.85441e-09
5.68562e-10
5.76718e-09
5.24201e-10
5.68674e-09
4.83439e-10
5.61254e-09
4.45886e-10
5.54407e-09
4.11475e-10
5.48086e-09
3.79899e-10
5.42244e-09
3.51078e-10
5.36839e-09
3.24783e-10
5.31832e-09
3.00928e-10
5.27183e-09
2.79347e-10
5.22857e-09
2.59937e-10
5.1882e-09
2.4261e-10
5.15037e-09
2.27261e-10
5.11478e-09
2.1385e-10
5.08111e-09
2.02296e-10
5.04906e-09
1.92561e-10
5.01832e-09
1.84627e-10
4.98861e-09
1.78447e-10
4.95962e-09
1.74107e-10
4.93108e-09
1.71442e-10
4.90262e-09
1.7085e-10
4.87403e-09
1.71664e-10
4.84487e-09
1.75067e-10
4.81498e-09
1.79406e-10
4.78366e-09
1.88012e-10
4.75145e-09
1.93086e-10
4.71597e-09
2.13569e-10
4.68092e-09
2.0838e-10
4.6392e-09
2.54554e-10
4.60064e-09
2.24416e-10
4.55135e-09
3.05761e-10
4.50882e-09
2.42284e-10
4.45153e-09
3.59796e-10
4.40584e-09
2.55395e-10
4.34177e-09
4.06219e-10
4.29639e-09
2.48317e-10
4.22995e-09
4.25678e-10
4.19249e-09
1.96717e-10
4.13292e-09
3.88238e-10
4.11512e-09
7.67716e-11
4.07696e-09
2.60929e-10
4.0788e-09
-4.20387e-11
4.06559e-09
1.11106e-10
4.10294e-09
-2.52355e-10
4.12619e-09
-1.11578e-10
4.18022e-09
-3.4902e-10
4.22109e-09
-2.22564e-10
4.28226e-09
-3.86797e-10
4.33082e-09
-2.74564e-10
4.3913e-09
-3.77453e-10
4.44035e-09
-2.82916e-10
4.4958e-09
-3.42749e-10
4.54147e-09
-2.66168e-10
4.59083e-09
-3.04176e-10
4.63193e-09
-2.39264e-10
4.67654e-09
-2.7624e-10
4.71457e-09
-2.19393e-10
4.75769e-09
-2.69096e-10
4.79984e-09
-2.41951e-10
4.84999e-09
-3.12823e-10
4.94335e-09
-5.53938e-10
5.0613e-09
-7.07992e-10
6.27731e-09
-1.41471e-08
-1.42881e-08
1.12675e-06
4.52076e-07
1.06553e-06
4.2915e-07
1.00743e-06
4.07266e-07
9.52295e-07
3.86458e-07
8.99994e-07
3.66605e-07
8.50386e-07
3.47735e-07
8.03346e-07
3.29736e-07
7.58746e-07
3.12635e-07
7.16471e-07
2.9633e-07
6.76406e-07
2.80845e-07
6.38447e-07
2.66085e-07
6.02487e-07
2.52073e-07
5.68431e-07
2.38723e-07
5.36183e-07
2.26055e-07
5.05656e-07
2.13988e-07
4.76761e-07
2.02544e-07
4.49422e-07
1.91647e-07
4.23556e-07
1.81318e-07
3.99093e-07
1.71485e-07
3.75958e-07
1.62169e-07
3.54089e-07
1.53304e-07
3.33417e-07
1.44909e-07
3.13884e-07
1.36924e-07
2.9543e-07
1.29365e-07
2.78001e-07
1.2218e-07
2.61542e-07
1.15379e-07
2.46004e-07
1.08918e-07
2.31339e-07
1.02806e-07
2.17501e-07
9.70017e-08
2.04447e-07
9.1513e-08
1.92136e-07
8.63035e-08
1.80527e-07
8.13794e-08
1.69585e-07
7.67079e-08
1.59272e-07
7.22946e-08
1.49556e-07
6.81095e-08
1.40405e-07
6.41576e-08
1.31787e-07
6.04119e-08
1.23674e-07
5.68767e-08
1.16038e-07
5.35277e-08
1.08853e-07
5.03682e-08
1.02095e-07
4.73768e-08
9.57397e-08
4.45558e-08
8.97648e-08
4.18868e-08
8.41489e-08
3.93707e-08
7.88723e-08
3.69917e-08
7.39155e-08
3.47497e-08
6.92609e-08
3.26314e-08
6.4891e-08
3.06359e-08
6.07898e-08
2.87519e-08
5.69417e-08
2.69776e-08
5.33324e-08
2.53036e-08
4.99479e-08
2.37279e-08
4.67753e-08
2.22422e-08
4.38022e-08
2.08443e-08
4.10169e-08
1.95272e-08
3.84082e-08
1.82886e-08
3.5966e-08
1.71223e-08
3.36801e-08
1.6026e-08
3.15414e-08
1.49945e-08
2.95409e-08
1.40254e-08
2.76704e-08
1.3114e-08
2.5922e-08
1.22584e-08
2.42882e-08
1.14543e-08
2.27621e-08
1.06998e-08
2.13371e-08
9.99118e-09
2.00068e-08
9.32666e-09
1.87655e-08
8.703e-09
1.76076e-08
8.11845e-09
1.65278e-08
7.57031e-09
1.55214e-08
7.05678e-09
1.45835e-08
6.57564e-09
1.37099e-08
6.12511e-09
1.28965e-08
5.70335e-09
1.21393e-08
5.30866e-09
1.14348e-08
4.93944e-09
1.07796e-08
4.59417e-09
1.01704e-08
4.2714e-09
9.60424e-09
3.96978e-09
9.07825e-09
3.68805e-09
8.58978e-09
3.42495e-09
8.13633e-09
3.17941e-09
7.71557e-09
2.95026e-09
7.32529e-09
2.73657e-09
6.96342e-09
2.53733e-09
6.62803e-09
2.35166e-09
6.31731e-09
2.1787e-09
6.02956e-09
2.01764e-09
5.76319e-09
1.86776e-09
5.51671e-09
1.72831e-09
5.28872e-09
1.59866e-09
5.07792e-09
1.47813e-09
4.88308e-09
1.36619e-09
4.70307e-09
1.26223e-09
4.53681e-09
1.16579e-09
4.38331e-09
1.07635e-09
4.24163e-09
9.93425e-10
4.11091e-09
9.16675e-10
3.99032e-09
8.4556e-10
3.8791e-09
7.79901e-10
3.77654e-09
7.19122e-10
3.68197e-09
6.6313e-10
3.59478e-09
6.11395e-10
3.51437e-09
5.6385e-10
3.4402e-09
5.20055e-10
3.37175e-09
4.79917e-10
3.30856e-09
4.43092e-10
3.25016e-09
4.09477e-10
3.19614e-09
3.7881e-10
3.14608e-09
3.50987e-10
3.09961e-09
3.25817e-10
3.05636e-09
3.03181e-10
3.016e-09
2.82973e-10
2.97819e-09
2.65073e-10
2.9426e-09
2.49433e-10
2.90894e-09
2.35959e-10
2.87689e-09
2.24608e-10
2.84616e-09
2.15357e-10
2.81646e-09
2.08152e-10
2.78747e-09
2.03092e-10
2.75893e-09
1.9999e-10
2.73047e-09
1.99301e-10
2.70188e-09
2.00256e-10
2.67272e-09
2.04231e-10
2.64282e-09
2.09303e-10
2.6115e-09
2.19333e-10
2.57924e-09
2.25348e-10
2.5439e-09
2.48912e-10
2.50848e-09
2.43799e-10
2.46741e-09
2.95623e-10
2.42786e-09
2.63967e-10
2.37988e-09
3.53736e-10
2.33566e-09
2.8651e-10
2.28038e-09
4.1507e-10
2.23229e-09
3.03483e-10
2.17096e-09
4.67556e-10
2.12251e-09
2.96767e-10
2.05943e-09
4.88754e-10
2.01837e-09
2.3778e-10
1.96265e-09
4.43959e-10
1.94094e-09
9.84784e-11
1.90679e-09
2.95083e-10
1.90475e-09
-3.99991e-11
1.89558e-09
1.20274e-10
1.92918e-09
-2.85958e-10
1.95604e-09
-1.38441e-10
2.00685e-09
-3.99822e-10
2.05065e-09
-2.66364e-10
2.10925e-09
-4.45401e-10
2.16003e-09
-3.2534e-10
2.21863e-09
-4.36059e-10
2.26925e-09
-3.33532e-10
2.32337e-09
-3.96867e-10
2.37016e-09
-3.12963e-10
2.41848e-09
-3.52495e-10
2.46058e-09
-2.81363e-10
2.50413e-09
-3.19794e-10
2.5433e-09
-2.5856e-10
2.58517e-09
-3.1097e-10
2.6287e-09
-2.85482e-10
2.67739e-09
-3.61512e-10
2.77136e-09
-6.479e-10
2.88517e-09
-8.21805e-10
3.49148e-09
-1.47534e-08
-1.48969e-08
1.12506e-06
5.16556e-07
1.06385e-06
4.90359e-07
1.00576e-06
4.65354e-07
9.5064e-07
4.41578e-07
8.98352e-07
4.18893e-07
8.48755e-07
3.97331e-07
8.01726e-07
3.76765e-07
7.57136e-07
3.57225e-07
7.14871e-07
3.38595e-07
6.74816e-07
3.209e-07
6.36865e-07
3.04035e-07
6.00913e-07
2.88025e-07
5.66866e-07
2.7277e-07
5.34625e-07
2.58296e-07
5.04105e-07
2.44507e-07
4.75218e-07
2.31432e-07
4.47885e-07
2.1898e-07
4.22025e-07
2.07177e-07
3.97568e-07
1.95942e-07
3.74439e-07
1.85297e-07
3.52575e-07
1.75169e-07
3.31908e-07
1.65576e-07
3.1238e-07
1.56452e-07
2.93931e-07
1.47815e-07
2.76506e-07
1.39604e-07
2.60051e-07
1.31834e-07
2.44517e-07
1.24452e-07
2.29856e-07
1.17467e-07
2.16022e-07
1.10836e-07
2.02971e-07
1.04564e-07
1.90663e-07
9.86115e-08
1.79057e-07
9.29851e-08
1.68117e-07
8.76474e-08
1.57807e-07
8.26046e-08
1.48094e-07
7.78226e-08
1.38945e-07
7.33072e-08
1.30329e-07
6.90273e-08
1.22218e-07
6.49878e-08
1.14585e-07
6.11612e-08
1.07402e-07
5.75511e-08
1.00646e-07
5.41331e-08
9.42916e-08
5.09098e-08
8.83183e-08
4.78601e-08
8.27039e-08
4.49852e-08
7.74287e-08
4.22668e-08
7.24733e-08
3.97052e-08
6.782e-08
3.72848e-08
6.34512e-08
3.50047e-08
5.93512e-08
3.28519e-08
5.55042e-08
3.08246e-08
5.18959e-08
2.89119e-08
4.85123e-08
2.71115e-08
4.53406e-08
2.54139e-08
4.23683e-08
2.38167e-08
3.95837e-08
2.23118e-08
3.69759e-08
2.08965e-08
3.45343e-08
1.95638e-08
3.22491e-08
1.83113e-08
3.0111e-08
1.71326e-08
2.81111e-08
1.60253e-08
2.62411e-08
1.4984e-08
2.44932e-08
1.40064e-08
2.28599e-08
1.30876e-08
2.13342e-08
1.22255e-08
1.99096e-08
1.14158e-08
1.85797e-08
1.06565e-08
1.73388e-08
9.94394e-09
1.61812e-08
9.27602e-09
1.51018e-08
8.64972e-09
1.40956e-08
8.06296e-09
1.31581e-08
7.51322e-09
1.22847e-08
6.99845e-09
1.14715e-08
6.51654e-09
1.07146e-08
6.06558e-09
1.00104e-08