/*--------------------------------*- C++ -*----------------------------------*\
| =========                 |                                                 |
| \\      /  F ield         | OpenFOAM: The Open Source CFD Toolbox           |
|  \\    /   O peration     | Version:  v1912                                 |
|   \\  /    A nd           | Website:  www.openfoam.com                      |
|    \\/     M anipulation  |                                                 |
\*---------------------------------------------------------------------------*/
FoamFile
{
    version     2.0;
    format      ascii;
    class       volScalarField;
    location    "50";
    object      k;
}
// * * * * * * * * * * * * * * * * * * * * * * * * * * * * * * * * * * * * * //

dimensions      [0 2 -2 0 0 0 0];


internalField   nonuniform List<scalar> 
14268
(
0.0778812
0.023244
0.0139699
0.0129497
0.00880677
0.00376881
0.00302378
0.00331051
0.00470757
0.00497638
0.00261949
0.00557156
0.00999904
0.023571
0.0288797
0.0311608
0.0311903
0.0315917
0.0315288
0.0309396
0.0306444
0.0252724
0.0155648
0.0168923
0.0174295
0.0144604
0.0104452
0.00869442
0.0085485
0.00858358
0.00759476
0.00661445
0.00579355
0.00503395
0.00428053
0.00375133
0.00351899
0.00307741
0.00307575
0.00376353
0.00578231
0.00798411
0.0080996
0.00744725
0.00596503
0.0062551
0.0055303
0.00314733
0.00246478
0.00473296
0.00721189
0.00561783
0.00280997
0.00227356
0.00239656
0.00190737
0.00124736
0.00151046
0.00315017
0.00576568
0.00703838
0.00653161
0.00441122
0.00152763
0.000528581
0.00034821
0.000232998
0.00012679
6.84597e-05
2.84009e-05
8.83944e-06
2.46853e-06
6.99097e-07
2.05042e-07
6.24803e-08
1.95805e-08
6.23327e-09
1.98426e-09
6.23291e-10
1.91161e-10
5.68672e-11
1.64711e-11
4.82842e-12
1.65526e-12
8.68892e-13
7.23888e-13
7.29723e-13
7.92184e-13
9.03841e-13
1.03533e-12
1.16577e-12
1.29623e-12
1.43275e-12
1.5788e-12
1.73407e-12
1.89697e-12
2.06656e-12
2.24237e-12
2.42398e-12
2.61071e-12
2.80187e-12
2.99703e-12
3.19599e-12
3.39862e-12
3.60475e-12
3.81409e-12
4.02613e-12
4.24025e-12
4.45588e-12
4.67264e-12
4.89023e-12
5.10833e-12
5.32659e-12
5.54458e-12
5.76199e-12
5.97851e-12
6.19381e-12
6.40766e-12
6.61973e-12
6.82983e-12
7.03762e-12
7.24299e-12
7.44558e-12
7.64533e-12
7.84192e-12
8.03529e-12
8.2252e-12
8.41157e-12
8.59424e-12
8.77312e-12
8.94813e-12
9.11914e-12
9.28619e-12
9.44907e-12
9.60791e-12
9.76252e-12
9.91304e-12
1.00593e-11
1.02015e-11
1.03394e-11
1.04733e-11
1.0603e-11
1.07287e-11
1.08504e-11
1.09679e-11
1.10814e-11
1.11903e-11
1.12937e-11
1.13885e-11
1.15225e-11
0.286048
0.0805944
0.0554258
0.0520556
0.0365944
0.0178995
0.0143243
0.0140057
0.0196323
0.0218187
0.0124457
0.0164173
0.0271646
0.0657566
0.0886397
0.105604
0.107854
0.110016
0.114545
0.115219
0.109916
0.0891764
0.0547813
0.056284
0.0568917
0.0469129
0.0348261
0.0290242
0.0283786
0.0294244
0.0284024
0.0273141
0.0260704
0.0247388
0.0223354
0.019457
0.0184801
0.0162021
0.0154694
0.018264
0.0267871
0.0362755
0.0371181
0.0337363
0.0301111
0.0303254
0.0259357
0.0134994
0.00713818
0.0146391
0.0281084
0.0238922
0.0161662
0.0122338
0.0126316
0.0102822
0.00695697
0.00758104
0.0129006
0.0216283
0.0257163
0.0243054
0.0171405
0.00709068
0.00316492
0.00254265
0.00224062
0.00154658
0.000991373
0.000500917
0.000186642
5.82524e-05
1.81976e-05
5.60427e-06
1.73877e-06
5.48006e-07
1.75155e-07
5.58961e-08
1.75895e-08
5.40177e-09
1.6083e-09
4.66128e-10
1.3685e-10
4.71228e-11
2.48972e-11
2.08076e-11
2.09874e-11
2.27951e-11
2.60119e-11
2.97945e-11
3.35501e-11
3.73113e-11
4.12528e-11
4.54741e-11
4.99656e-11
5.46826e-11
5.95976e-11
6.46979e-11
6.99707e-11
7.53958e-11
8.09533e-11
8.66313e-11
9.24243e-11
9.83292e-11
1.04342e-10
1.10453e-10
1.16647e-10
1.22907e-10
1.29216e-10
1.35561e-10
1.41935e-10
1.48329e-10
1.54732e-10
1.61131e-10
1.67517e-10
1.73881e-10
1.80213e-10
1.86506e-10
1.9275e-10
1.9894e-10
2.05065e-10
2.11121e-10
2.171e-10
2.22997e-10
2.28804e-10
2.34518e-10
2.40133e-10
2.45646e-10
2.51052e-10
2.56348e-10
2.61532e-10
2.66599e-10
2.71551e-10
2.76381e-10
2.81093e-10
2.85681e-10
2.90149e-10
2.94493e-10
2.98716e-10
3.02815e-10
3.06794e-10
3.10651e-10
3.14389e-10
3.1801e-10
3.21507e-10
3.24883e-10
3.28127e-10
3.31206e-10
3.34028e-10
3.38031e-10
0.471826
0.152857
0.113823
0.0852932
0.0539608
0.0282029
0.023541
0.0207848
0.0304418
0.0293119
0.0204249
0.0277361
0.0463553
0.103701
0.132271
0.163804
0.177705
0.180988
0.19221
0.200966
0.195512
0.151729
0.0815864
0.0690332
0.0676866
0.0517043
0.0370392
0.0292584
0.0278419
0.0290038
0.032164
0.0370943
0.0403692
0.0413715
0.0367885
0.0294675
0.0276424
0.0231954
0.0204345
0.024725
0.0381156
0.0595416
0.06506
0.0649581
0.0638623
0.0669804
0.0615328
0.0308586
0.011335
0.0167024
0.0452033
0.0481134
0.0285178
0.0189949
0.0206219
0.0175596
0.0119185
0.0139054
0.0237613
0.0371489
0.0431441
0.0414421
0.0304012
0.0139253
0.00709657
0.00525367
0.00439865
0.00295392
0.00194773
0.00114002
0.000508557
0.00018386
5.92593e-05
2.125e-05
8.0513e-06
2.90602e-06
9.79618e-07
3.21373e-07
1.03875e-07
3.26793e-08
9.93497e-09
2.93409e-09
8.79534e-10
3.12143e-10
1.70686e-10
1.45088e-10
1.46823e-10
1.59793e-10
1.82344e-10
2.08635e-10
2.34645e-10
2.60713e-10
2.88021e-10
3.1722e-10
3.48227e-10
3.80735e-10
4.14556e-10
4.49596e-10
4.85762e-10
5.22915e-10
5.60914e-10
5.99677e-10
6.39164e-10
6.79353e-10
7.2021e-10
7.61675e-10
8.03644e-10
8.45989e-10
8.88599e-10
9.31397e-10
9.74331e-10
1.01734e-09
1.06034e-09
1.10326e-09
1.14604e-09
1.18862e-09
1.23093e-09
1.27292e-09
1.31454e-09
1.35575e-09
1.39647e-09
1.4367e-09
1.47637e-09
1.51545e-09
1.55389e-09
1.59169e-09
1.62878e-09
1.66517e-09
1.70082e-09
1.73571e-09
1.76983e-09
1.80315e-09
1.83569e-09
1.8674e-09
1.89831e-09
1.92839e-09
1.95766e-09
1.98609e-09
2.01372e-09
2.04051e-09
2.06651e-09
2.09169e-09
2.11608e-09
2.13969e-09
2.16248e-09
2.18448e-09
2.20559e-09
2.22563e-09
2.24399e-09
2.27001e-09
0.55222
0.216952
0.167251
0.076467
0.0405637
0.039446
0.0330278
0.0281449
0.0337097
0.0295058
0.0219381
0.0351886
0.0810005
0.155441
0.17066
0.187222
0.186526
0.180081
0.208101
0.250972
0.257149
0.191998
0.0717628
0.0510775
0.0514421
0.0424645
0.0428858
0.0415821
0.0402595
0.0404574
0.041156
0.0408563
0.0422114
0.0451625
0.0443785
0.0378901
0.034925
0.0291799
0.0290945
0.0377496
0.0555044
0.0841435
0.0800298
0.0699866
0.0698043
0.0798292
0.0894192
0.0616175
0.019676
0.0160025
0.0505589
0.074767
0.0480491
0.0294339
0.0305178
0.0258703
0.0178336
0.0202998
0.0316397
0.0463369
0.0526272
0.0503726
0.0380951
0.0201274
0.0124778
0.00968617
0.00781764
0.00494343
0.00307546
0.00182202
0.00084868
0.000314859
0.000108493
3.79428e-05
1.3235e-05
5.2752e-06
2.10309e-06
7.7928e-07
2.72713e-07
9.10646e-08
2.89654e-08
8.87278e-09
2.75936e-09
1.0285e-09
5.92075e-10
5.15357e-10
5.23939e-10
5.71781e-10
6.52289e-10
7.4489e-10
8.35828e-10
9.27022e-10
1.02237e-09
1.12392e-09
1.23134e-09
1.34354e-09
1.45986e-09
1.57996e-09
1.70348e-09
1.82992e-09
1.95879e-09
2.08981e-09
2.22284e-09
2.35777e-09
2.4945e-09
2.63282e-09
2.77236e-09
2.9127e-09
3.05346e-09
3.19442e-09
3.3354e-09
3.47618e-09
3.61656e-09
3.75629e-09
3.89517e-09
4.03301e-09
4.16962e-09
4.30487e-09
4.43857e-09
4.57062e-09
4.70082e-09
4.82912e-09
4.95533e-09
5.07942e-09
5.20122e-09
5.3207e-09
5.43774e-09
5.55231e-09
5.66435e-09
5.77379e-09
5.88062e-09
5.98479e-09
6.08631e-09
6.18511e-09
6.28126e-09
6.37467e-09
6.46544e-09
6.55349e-09
6.63892e-09
6.72168e-09
6.80185e-09
6.87943e-09
6.95449e-09
7.02707e-09
7.09704e-09
7.16451e-09
7.22918e-09
7.29056e-09
7.34665e-09
7.42629e-09
0.656928
0.276481
0.22425
0.059299
0.0452819
0.0485779
0.0387837
0.0329328
0.0365589
0.0418279
0.0230418
0.0380327
0.105815
0.19701
0.191817
0.175553
0.151907
0.141955
0.177865
0.264274
0.297855
0.221077
0.0733474
0.0466097
0.0527451
0.0518068
0.0463535
0.0459986
0.0454118
0.0474013
0.0496116
0.0477717
0.0496685
0.052225
0.0492862
0.0401999
0.0385035
0.03619
0.0405733
0.0489498
0.0653477
0.104949
0.103091
0.0771081
0.0514688
0.0611641
0.0829199
0.07517
0.0369901
0.0170215
0.0461719
0.0899598
0.0661809
0.0392839
0.0403129
0.0346522
0.0240789
0.0256252
0.0366734
0.0522314
0.0591485
0.0561293
0.0421577
0.0236289
0.0177716
0.0149383
0.0118999
0.00726568
0.00440533
0.00273808
0.00137649
0.000595779
0.000229924
7.64692e-05
2.32538e-05
8.10001e-06
3.47639e-06
1.46335e-06
5.53894e-07
1.937e-07
6.3522e-08
1.99174e-08
6.35132e-09
2.45791e-09
1.47336e-09
1.30596e-09
1.3324e-09
1.45652e-09
1.65968e-09
1.88993e-09
2.11364e-09
2.33786e-09
2.57134e-09
2.8185e-09
3.07831e-09
3.34817e-09
3.62643e-09
3.91213e-09
4.20432e-09
4.50177e-09
4.80329e-09
5.10815e-09
5.41604e-09
5.72672e-09
6.0399e-09
6.35508e-09
6.67146e-09
6.98798e-09
7.30375e-09
7.61845e-09
7.93173e-09
8.24312e-09
8.55218e-09
8.85841e-09
9.16141e-09
9.46084e-09
9.75634e-09
1.00477e-08
1.03345e-08
1.06166e-08
1.08937e-08
1.11658e-08
1.14324e-08
1.16936e-08
1.19491e-08
1.21988e-08
1.24427e-08
1.26806e-08
1.29125e-08
1.31384e-08
1.33582e-08
1.35719e-08
1.37796e-08
1.39812e-08
1.41769e-08
1.43665e-08
1.45503e-08
1.47281e-08
1.49003e-08
1.50667e-08
1.52276e-08
1.53829e-08
1.55329e-08
1.56777e-08
1.5817e-08
1.59512e-08
1.60794e-08
1.62012e-08
1.63119e-08
1.64696e-08
0.759458
0.321542
0.232262
0.0451996
0.0552197
0.0708479
0.0552394
0.0439509
0.0493643
0.0565013
0.0265026
0.0419692
0.122177
0.198978
0.156555
0.122254
0.0946808
0.0872425
0.123286
0.228827
0.282256
0.22224
0.106337
0.0673303
0.0667107
0.0675189
0.0607886
0.0545025
0.0520532
0.0555058
0.0620488
0.0658186
0.0673402
0.0665983
0.0595048
0.044854
0.0410364
0.0434526
0.0500128
0.0523602
0.0671376
0.121148
0.140624
0.115537
0.0624638
0.0386183
0.0547136
0.0615374
0.0384272
0.0198191
0.0340933
0.0751613
0.0613603
0.04398
0.0492064
0.0432236
0.0301477
0.0300167
0.0412334
0.0590259
0.0669318
0.0637361
0.046358
0.025219
0.0215491
0.0196883
0.0156527
0.00924773
0.0054258
0.00353777
0.00189459
0.000881627
0.000382596
0.000148934
5.4648e-05
1.99853e-05
7.54532e-06
2.92448e-06
1.08704e-06
3.76635e-07
1.2288e-07
3.85075e-08
1.23722e-08
4.89649e-09
3.01874e-09
2.70948e-09
2.77045e-09
3.02938e-09
3.44408e-09
3.90657e-09
4.34994e-09
4.79361e-09
5.25279e-09
5.73476e-09
6.23726e-09
6.75528e-09
7.28551e-09
7.82587e-09
8.37442e-09
8.92861e-09
9.48616e-09
1.00458e-08
1.06069e-08
1.11693e-08
1.17322e-08
1.22947e-08
1.28554e-08
1.34123e-08
1.39644e-08
1.4511e-08
1.50517e-08
1.55857e-08
1.61124e-08
1.6631e-08
1.7141e-08
1.76421e-08
1.81337e-08
1.86156e-08
1.90874e-08
1.95491e-08
2.00001e-08
2.04407e-08
2.08703e-08
2.12892e-08
2.1697e-08
2.20939e-08
2.24796e-08
2.28544e-08
2.32182e-08
2.35711e-08
2.39131e-08
2.42444e-08
2.45651e-08
2.48752e-08
2.5175e-08
2.54646e-08
2.57443e-08
2.60141e-08
2.62745e-08
2.65253e-08
2.67671e-08
2.7e-08
2.72241e-08
2.744e-08
2.76471e-08
2.78461e-08
2.80357e-08
2.82159e-08
2.83783e-08
2.86112e-08
0.880183
0.328894
0.212668
0.0453203
0.0734665
0.0852376
0.0661418
0.0512753
0.0532841
0.0647702
0.0353897
0.0463223
0.153816
0.23013
0.158703
0.100182
0.0777295
0.0784128
0.0898609
0.183704
0.242849
0.193883
0.114299
0.101086
0.0934498
0.0844137
0.0692247
0.0587929
0.0576071
0.0637066
0.0730005
0.0795731
0.0812489
0.0792452
0.0702629
0.0519974
0.0456675
0.05156
0.0569056
0.0523974
0.0703534
0.140394
0.175038
0.15783
0.108123
0.0508624
0.0380543
0.0389726
0.0319094
0.0243941
0.022405
0.0470394
0.0396042
0.0452098
0.056876
0.0509906
0.0362805
0.035583
0.0481513
0.0690873
0.0778571
0.074817
0.0534896
0.0275364
0.0240139
0.0234896
0.0188375
0.0108532
0.00607859
0.00407053
0.00233412
0.0011266
0.000516366
0.000214107
8.35557e-05
3.25337e-05
1.26684e-05
4.85827e-06
1.78626e-06
6.18134e-07
2.02062e-07
6.37131e-08
2.07825e-08
8.48341e-09
5.40409e-09
4.91304e-09
5.03274e-09
5.49946e-09
6.23078e-09
7.03068e-09
7.78617e-09
8.54044e-09
9.31478e-09
1.01189e-08
1.09486e-08
1.17961e-08
1.26557e-08
1.35237e-08
1.4397e-08
1.52707e-08
1.61407e-08
1.70064e-08
1.78672e-08
1.87222e-08
1.95707e-08
2.04112e-08
2.12418e-08
2.20599e-08
2.28644e-08
2.36545e-08
2.44298e-08
2.51897e-08
2.59334e-08
2.66602e-08
2.73696e-08
2.80612e-08
2.87347e-08
2.93901e-08
3.00273e-08
3.06464e-08
3.12473e-08
3.18304e-08
3.23955e-08
3.29431e-08
3.34731e-08
3.3986e-08
3.44819e-08
3.49612e-08
3.54242e-08
3.58712e-08
3.63026e-08
3.67187e-08
3.712e-08
3.75067e-08
3.78789e-08
3.82366e-08
3.85805e-08
3.89108e-08
3.92282e-08
3.95327e-08
3.98251e-08
4.01056e-08
4.03747e-08
4.06328e-08
4.08796e-08
4.11163e-08
4.13404e-08
4.15541e-08
4.17443e-08
4.20191e-08
0.969486
0.284595
0.178715
0.0432199
0.0912321
0.0977817
0.0699071
0.0476294
0.0475254
0.0620272
0.042636
0.0554777
0.194676
0.302582
0.238981
0.150817
0.127165
0.135422
0.114019
0.148207
0.194238
0.157731
0.0856857
0.0898606
0.0971457
0.0783138
0.0582177
0.0518451
0.0594094
0.0708744
0.0822461
0.0906945
0.0926387
0.0900455
0.0796029
0.0587411
0.0496699
0.0587717
0.0596305
0.053633
0.0777255
0.161918
0.203767
0.191074
0.145248
0.0896211
0.0599423
0.0461136
0.0392894
0.0284131
0.0204696
0.0239537
0.0247673
0.049645
0.0636572
0.0580536
0.042931
0.0424492
0.0559252
0.0777156
0.0863692
0.0837334
0.0609921
0.029888
0.0248905
0.0260032
0.0215762
0.0125256
0.00676014
0.00459551
0.00274693
0.00133624
0.000627617
0.000269386
0.000105812
4.18528e-05
1.65954e-05
6.46162e-06
2.41525e-06
8.50977e-07
2.83212e-07
9.11081e-08
3.06265e-08
1.31305e-08
8.74341e-09
8.07255e-09
8.28523e-09
9.042e-09
1.01977e-08
1.14309e-08
1.25781e-08
1.37199e-08
1.4881e-08
1.6071e-08
1.72839e-08
1.85091e-08
1.97387e-08
2.09664e-08
2.21868e-08
2.33938e-08
2.45838e-08
2.57556e-08
2.69087e-08
2.80423e-08
2.91556e-08
3.02471e-08
3.13142e-08
3.23544e-08
3.33671e-08
3.4352e-08
3.53096e-08
3.62399e-08
3.71432e-08
3.80196e-08
3.88696e-08
3.96922e-08
4.04855e-08
4.125e-08
4.19862e-08
4.2695e-08
4.33766e-08
4.40322e-08
4.4662e-08
4.52672e-08
4.5848e-08
4.64056e-08
4.69403e-08
4.74531e-08
4.79446e-08
4.84155e-08
4.88666e-08
4.92984e-08
4.97119e-08
5.01074e-08
5.04865e-08
5.08494e-08
5.11972e-08
5.153e-08
5.18488e-08
5.21537e-08
5.24457e-08
5.2725e-08
5.29922e-08
5.3248e-08
5.34917e-08
5.37254e-08
5.39453e-08
5.41564e-08
5.4341e-08
5.46123e-08
1.06079
0.242266
0.150378
0.0412015
0.109677
0.113317
0.0789732
0.0506973
0.047729
0.0569263
0.0474827
0.0636939
0.230043
0.365103
0.309378
0.212031
0.180838
0.187644
0.176175
0.160872
0.190391
0.172705
0.0898333
0.0687628
0.0797527
0.065694
0.0534326
0.0519124
0.0643572
0.0782576
0.0909758
0.100797
0.102896
0.0997827
0.0881169
0.0649558
0.0493176
0.0597601
0.0561072
0.0539097
0.084818
0.177097
0.221881
0.211725
0.169751
0.118856
0.0986129
0.0834031
0.0720727
0.0488161
0.0252621
0.0202622
0.0298323
0.0564781
0.0687584
0.0639046
0.0501027
0.0502564
0.0640336
0.0844376
0.0909054
0.0898726
0.0675793
0.0317456
0.0229996
0.0252616
0.0231262
0.0143113
0.00765276
0.00530368
0.00318331
0.00150241
0.000692869
0.000303897
0.000119261
4.72771e-05
1.88662e-05
7.3876e-06
2.79926e-06
1.00894e-06
3.4492e-07
1.14772e-07
4.05191e-08
1.86056e-08
1.30859e-08
1.22918e-08
1.26411e-08
1.37702e-08
1.54433e-08
1.71734e-08
1.87604e-08
2.03322e-08
2.19139e-08
2.35112e-08
2.51162e-08
2.67139e-08
2.82969e-08
2.98585e-08
3.13917e-08
3.28887e-08
3.43457e-08
3.57626e-08
3.71402e-08
3.84798e-08
3.97828e-08
4.10497e-08
4.22732e-08
4.34485e-08
4.45757e-08
4.56556e-08
4.66895e-08
4.76781e-08
4.86224e-08
4.9523e-08
5.03807e-08
5.11985e-08
5.19799e-08
5.27266e-08
5.34398e-08
5.41212e-08
5.47718e-08
5.53933e-08
5.59865e-08
5.65531e-08
5.70937e-08
5.761e-08
5.81027e-08
5.8573e-08
5.90219e-08
5.94504e-08
5.98594e-08
6.02497e-08
6.06224e-08
6.0978e-08
6.13176e-08
6.16416e-08
6.1951e-08
6.22462e-08
6.2528e-08
6.27968e-08
6.30534e-08
6.32982e-08
6.35317e-08
6.37549e-08
6.39668e-08
6.417e-08
6.43597e-08
6.4544e-08
6.47008e-08
6.49379e-08
1.12365
0.240365
0.120414
0.0414871
0.125413
0.127532
0.0931527
0.064386
0.0594082
0.0618938
0.054059
0.0686441
0.260654
0.41483
0.362071
0.255624
0.218336
0.224951
0.225454
0.218633
0.250714
0.243587
0.14692
0.0820766
0.078488
0.0711482
0.0599813
0.0632821
0.0725741
0.0850132
0.098724
0.109708
0.112005
0.108544
0.0959507
0.0709342
0.0461065
0.0508335
0.0493941
0.0535231
0.0897151
0.185543
0.229292
0.2192
0.17907
0.133232
0.125873
0.119152
0.107654
0.0759114
0.043714
0.032895
0.0430743
0.0613765
0.068742
0.0659094
0.0564089
0.0577378
0.0707046
0.08538
0.0859403
0.0883191
0.0719879
0.0346811
0.0186175
0.02076
0.0212207
0.0150842
0.00858987
0.00604921
0.0036165
0.00156929
0.000633678
0.000256809
0.000113739
4.87659e-05
1.94633e-05
7.53967e-06
2.86665e-06
1.05524e-06
3.73671e-07
1.30227e-07
4.92012e-08
2.4652e-08
1.8425e-08
1.76072e-08
1.81412e-08
1.97116e-08
2.19609e-08
2.42004e-08
2.6233e-08
2.82252e-08
3.02074e-08
3.21767e-08
3.41211e-08
3.60289e-08
3.78925e-08
3.97058e-08
4.14644e-08
4.31636e-08
4.47906e-08
4.63412e-08
4.78166e-08
4.92178e-08
5.05458e-08
5.18009e-08
5.29893e-08
5.41149e-08
5.51802e-08
5.61884e-08
5.71428e-08
5.80463e-08
5.89016e-08
5.97112e-08
6.04779e-08
6.12043e-08
6.18926e-08
6.25452e-08
6.31636e-08
6.37503e-08
6.43066e-08
6.48345e-08
6.53352e-08
6.58106e-08
6.62618e-08
6.66902e-08
6.70971e-08
6.74836e-08
6.78507e-08
6.81996e-08
6.85312e-08
6.88464e-08
6.91461e-08
6.94311e-08
6.97021e-08
6.99598e-08
7.02051e-08
7.04383e-08
7.06603e-08
7.08714e-08
7.10724e-08
7.12636e-08
7.14456e-08
7.16192e-08
7.17834e-08
7.19411e-08
7.20867e-08
7.22309e-08
7.23484e-08
7.2535e-08
1.17754
0.297733
0.0949943
0.0456399
0.136859
0.139338
0.10482
0.0761569
0.0728862
0.0753743
0.0652996
0.0786966
0.287831
0.454484
0.40133
0.286508
0.244643
0.251468
0.264634
0.282927
0.3183
0.302742
0.192888
0.106518
0.0840154
0.0796498
0.0720422
0.0731257
0.0802728
0.0917745
0.10619
0.118147
0.120565
0.116705
0.103262
0.0768809
0.0466203
0.0398862
0.042526
0.0564016
0.0977221
0.19952
0.243778
0.228774
0.180025
0.134656
0.137572
0.139616
0.128025
0.0960025
0.0657087
0.0508234
0.0546366
0.0597579
0.0625275
0.0615593
0.0596479
0.0642035
0.0747328
0.0793313
0.075203
0.0795179
0.0728622
0.038558
0.0156062
0.0144872
0.0155286
0.01268
0.00908646
0.0067132
0.00398321
0.00150328
0.00047184
0.000168704
7.86063e-05
3.57161e-05
1.53073e-05
6.34301e-06
2.53931e-06
9.78619e-07
3.63845e-07
1.35285e-07
5.59407e-08
3.10734e-08
2.47062e-08
2.39792e-08
2.47421e-08
2.67941e-08
2.96251e-08
3.23273e-08
3.47578e-08
3.71076e-08
3.94085e-08
4.16568e-08
4.38454e-08
4.5964e-08
4.79863e-08
4.98991e-08
5.16937e-08
5.3364e-08
5.49213e-08
5.6377e-08
5.77383e-08
5.90116e-08
6.02039e-08
6.13207e-08
6.23662e-08
6.33438e-08
6.42578e-08
6.5113e-08
6.59139e-08
6.66643e-08
6.73676e-08
6.80271e-08
6.86458e-08
6.92267e-08
6.97722e-08
7.0285e-08
7.07672e-08
7.1221e-08
7.16482e-08
7.20507e-08
7.24301e-08
7.27879e-08
7.31255e-08
7.34442e-08
7.37453e-08
7.40297e-08
7.42986e-08
7.4553e-08
7.47937e-08
7.50215e-08
7.52373e-08
7.54416e-08
7.56353e-08
7.58189e-08
7.5993e-08
7.61581e-08
7.63148e-08
7.64634e-08
7.66046e-08
7.67386e-08
7.68658e-08
7.6987e-08
7.71011e-08
7.72112e-08
7.73114e-08
7.74134e-08
7.7491e-08
7.76252e-08
1.18167
0.364699
0.0691002
0.0557624
0.137091
0.142685
0.110361
0.083412
0.0818891
0.0871626
0.078117
0.0945313
0.306834
0.470396
0.414038
0.294841
0.249555
0.256228
0.282446
0.33091
0.360866
0.311043
0.191389
0.105975
0.092438
0.0904836
0.0818427
0.0811595
0.0868693
0.0977594
0.112803
0.125688
0.128345
0.124122
0.10984
0.0824407
0.050755
0.0368179
0.0429168
0.0605096
0.109141
0.219039
0.268439
0.250332
0.189486
0.134008
0.133686
0.141725
0.127042
0.0972078
0.0818593
0.0672659
0.0654231
0.0577282
0.0551721
0.0538643
0.0587915
0.0684905
0.0742215
0.0686058
0.0626224
0.0672931
0.0684091
0.0416871
0.0162852
0.0099857
0.00974697
0.00876269
0.00800741
0.00634568
0.00366208
0.00126657
0.000370388
0.000129459
5.02251e-05
2.13261e-05
9.86582e-06
4.55261e-06
2.00092e-06
8.34632e-07
3.33814e-07
1.34191e-07
6.15221e-08
3.79164e-08
3.18524e-08
3.12956e-08
3.23157e-08
3.48455e-08
3.81976e-08
4.12597e-08
4.39877e-08
4.65914e-08
4.90924e-08
5.14602e-08
5.36746e-08
5.57261e-08
5.76281e-08
5.93864e-08
6.10055e-08
6.2493e-08
6.3858e-08
6.51129e-08
6.62675e-08
6.7331e-08
6.83122e-08
6.9218e-08
7.00534e-08
7.08235e-08
7.15336e-08
7.21892e-08
7.27954e-08
7.33563e-08
7.38757e-08
7.43573e-08
7.4804e-08
7.52191e-08
7.56048e-08
7.59641e-08
7.62987e-08
7.66112e-08
7.69025e-08
7.71753e-08
7.74303e-08
7.76692e-08
7.78931e-08
7.81033e-08
7.83008e-08
7.84863e-08
7.86608e-08
7.88251e-08
7.898e-08
7.9126e-08
7.92637e-08
7.93938e-08
7.95167e-08
7.96328e-08
7.97427e-08
7.98467e-08
7.99452e-08
8.00384e-08
8.01267e-08
8.02105e-08
8.02899e-08
8.03656e-08
8.04364e-08
8.05054e-08
8.0567e-08
8.06325e-08
8.06764e-08
8.07661e-08
1.13219
0.422021
0.063798
0.067489
0.125922
0.132985
0.106864
0.0838322
0.0837869
0.0904719
0.0893532
0.110388
0.314224
0.460938
0.404456
0.287429
0.235415
0.23894
0.280862
0.35332
0.360726
0.280641
0.152686
0.104809
0.103668
0.100997
0.0905279
0.0884578
0.0931136
0.103596
0.119145
0.132761
0.135672
0.130995
0.115782
0.0874794
0.0555948
0.0417256
0.047065
0.0673343
0.120336
0.23593
0.290997
0.275323
0.211676
0.145568
0.133046
0.133991
0.118205
0.0886346
0.0880764
0.0817337
0.0773791
0.0624845
0.0542434
0.0502627
0.0562464
0.0693904
0.0689498
0.0567085
0.0494781
0.0538924
0.0587711
0.0421078
0.0191793
0.00966506
0.00754189
0.00679827
0.00646062
0.00525338
0.002883
0.00101489
0.000360738
0.000129435
4.848e-05
1.9598e-05
8.54629e-06
3.85628e-06
1.72005e-06
7.40156e-07
3.10405e-07
1.34035e-07
6.74839e-08
4.53783e-08
3.97602e-08
3.9385e-08
4.06576e-08
4.36062e-08
4.73612e-08
5.06472e-08
5.34965e-08
5.60936e-08
5.84768e-08
6.06672e-08
6.26696e-08
6.44938e-08
6.61502e-08
6.76518e-08
6.90057e-08
7.02267e-08
7.13228e-08
7.23114e-08
7.32027e-08
7.40078e-08
7.47366e-08
7.53967e-08
7.59942e-08
7.65349e-08
7.70248e-08
7.74695e-08
7.78739e-08
7.82422e-08
7.85779e-08
7.88846e-08
7.91646e-08
7.94217e-08
7.96567e-08
7.98737e-08
8.00723e-08
8.02568e-08
8.0426e-08
8.05836e-08
8.07293e-08
8.08646e-08
8.09905e-08
8.11082e-08
8.1218e-08
8.13204e-08
8.14164e-08
8.15064e-08
8.15909e-08
8.16704e-08
8.17452e-08
8.18157e-08
8.18822e-08
8.19449e-08
8.20043e-08
8.20604e-08
8.21137e-08
8.2164e-08
8.22118e-08
8.22571e-08
8.23e-08
8.23412e-08
8.23793e-08
8.24174e-08
8.24501e-08
8.24883e-08
8.25072e-08
8.25638e-08
1.06448
0.466966
0.0727385
0.0770009
0.108862
0.114414
0.0956489
0.0774317
0.0778801
0.0829686
0.0982042
0.123604
0.305365
0.430502
0.375778
0.263778
0.19749
0.198306
0.251434
0.332401
0.324257
0.237307
0.126084
0.11041
0.11586
0.110094
0.0979864
0.0950971
0.0990017
0.109161
0.125097
0.139275
0.142367
0.137472
0.121344
0.0919291
0.0599167
0.0493269
0.05584
0.0757181
0.129433
0.249424
0.310098
0.297548
0.234907
0.165874
0.146678
0.139266
0.124005
0.0829039
0.0886415
0.0942721
0.0898457
0.0701181
0.058966
0.0531576
0.0517606
0.0645252
0.060167
0.0463544
0.0422735
0.0446867
0.0477647
0.0390023
0.0220654
0.0112609
0.00818217
0.00700123
0.00623132
0.00485527
0.00255408
0.000965543
0.000379588
0.000139559
5.29023e-05
2.13336e-05
9.06453e-06
3.95241e-06
1.71868e-06
7.33232e-07
3.106e-07
1.38984e-07
7.48276e-08
5.35832e-08
4.82894e-08
4.80425e-08
4.95015e-08
5.27206e-08
5.66241e-08
5.9778e-08
6.24382e-08
6.48083e-08
6.69379e-08
6.88458e-08
7.05486e-08
7.20629e-08
7.34002e-08
7.4578e-08
7.56104e-08
7.65172e-08
7.73091e-08
7.80042e-08
7.86137e-08
7.91484e-08
7.96188e-08
8.0032e-08
8.03951e-08
8.07141e-08
8.09944e-08
8.12412e-08
8.14583e-08
8.16496e-08
8.18176e-08
8.19674e-08
8.2099e-08
8.22184e-08
8.23226e-08
8.24192e-08
8.25028e-08
8.25819e-08
8.26504e-08
8.27153e-08
8.27736e-08
8.2827e-08
8.28764e-08
8.29227e-08
8.29654e-08
8.30048e-08
8.3042e-08
8.30766e-08
8.31094e-08
8.31402e-08
8.31695e-08
8.31972e-08
8.32236e-08
8.32485e-08
8.32723e-08
8.32949e-08
8.33167e-08
8.33373e-08
8.33572e-08
8.33761e-08
8.33942e-08
8.3412e-08
8.34281e-08
8.34453e-08
8.34587e-08
8.34787e-08
8.3481e-08
8.3516e-08
0.966682
0.517042
0.125221
0.08457
0.0820067
0.0829164
0.072292
0.0622044
0.0624597
0.0642322
0.103211
0.137429
0.272349
0.375916
0.324936
0.220709
0.144428
0.140812
0.18292
0.270813
0.255465
0.179279
0.135792
0.133635
0.131971
0.122797
0.108524
0.104777
0.108114
0.117896
0.134273
0.149098
0.152166
0.147115
0.129692
0.0976195
0.0651473
0.0590627
0.0655316
0.0829862
0.138855
0.265316
0.333255
0.32503
0.264322
0.193559
0.175454
0.172366
0.158855
0.0905583
0.0850984
0.108385
0.107255
0.0799845
0.0662463
0.0611494
0.0464948
0.0517546
0.046062
0.0378919
0.0432146
0.042133
0.0369304
0.0324254
0.0240389
0.0137989
0.0097344
0.00829198
0.00698096
0.00519148
0.00269939
0.00109045
0.0004307
0.000161116
6.19019e-05
2.50493e-05
1.05214e-05
4.47388e-06
1.88992e-06
7.89897e-07
3.34326e-07
1.54671e-07
8.87209e-08
6.7299e-08
6.21092e-08
6.19207e-08
6.34376e-08
6.66268e-08
7.0127e-08
7.27231e-08
7.48231e-08
7.65967e-08
7.81091e-08
7.93892e-08
8.04583e-08
8.13473e-08
8.2087e-08
8.26973e-08
8.31917e-08
8.35849e-08
8.38931e-08
8.41323e-08
8.43153e-08
8.44523e-08
8.45526e-08
8.46228e-08
8.46689e-08
8.46958e-08
8.47075e-08
8.47077e-08
8.46988e-08
8.46837e-08
8.46649e-08
8.46433e-08
8.46188e-08
8.45931e-08
8.45652e-08
8.45386e-08
8.45101e-08
8.44842e-08
8.4457e-08
8.44326e-08
8.44086e-08
8.4385e-08
8.43629e-08
8.43433e-08
8.4326e-08
8.43104e-08
8.42962e-08
8.42821e-08
8.42685e-08
8.42554e-08
8.42432e-08
8.4232e-08
8.42222e-08
8.42132e-08
8.42056e-08
8.41987e-08
8.41929e-08
8.41878e-08
8.41836e-08
8.41799e-08
8.41768e-08
8.41749e-08
8.41726e-08
8.41698e-08
8.41664e-08
8.4171e-08
8.41603e-08
8.41797e-08
0.827978
0.541022
0.177439
0.0800515
0.0556988
0.0574822
0.0596876
0.0580569
0.0588959
0.0588263
0.0861265
0.126629
0.254803
0.374139
0.325685
0.215292
0.148232
0.129182
0.119272
0.176285
0.169179
0.151373
0.151984
0.155125
0.149123
0.137004
0.120345
0.115824
0.118899
0.128814
0.14601
0.161552
0.164596
0.159178
0.140734
0.10542
0.0642991
0.0582774
0.0639815
0.0831535
0.149812
0.286638
0.360218
0.348401
0.287788
0.216658
0.212455
0.217935
0.20861
0.130216
0.0706926
0.101346
0.106027
0.0762349
0.0731122
0.0713638
0.0536163
0.0395002
0.0340924
0.039023
0.050107
0.0492014
0.0369903
0.0268316
0.0230195
0.0160542
0.0113229
0.00978594
0.00833371
0.00622513
0.0033251
0.00135978
0.000521196
0.000198793
7.75626e-05
3.13666e-05
1.3098e-05
5.50935e-06
2.29066e-06
9.41371e-07
3.94941e-07
1.84845e-07
1.09594e-07
8.53129e-08
7.90064e-08
7.8342e-08
7.91766e-08
8.1233e-08
8.35278e-08
8.5069e-08
8.61888e-08
8.70293e-08
8.76504e-08
8.80937e-08
8.83916e-08
8.85649e-08
8.86313e-08
8.8621e-08
8.85455e-08
8.84244e-08
8.82834e-08
8.81304e-08
8.79675e-08
8.77975e-08
8.76238e-08
8.74493e-08
8.72764e-08
8.71068e-08
8.6941e-08
8.67794e-08
8.66213e-08
8.6467e-08
8.63153e-08
8.61692e-08
8.60295e-08
8.58991e-08
8.57751e-08
8.56605e-08
8.55517e-08
8.54516e-08
8.53571e-08
8.52701e-08
8.51888e-08
8.51139e-08
8.50451e-08
8.49801e-08
8.49174e-08
8.48562e-08
8.47984e-08
8.47462e-08
8.4702e-08
8.46644e-08
8.46325e-08
8.46039e-08
8.45782e-08
8.45545e-08
8.45331e-08
8.45135e-08
8.44959e-08
8.44798e-08
8.44654e-08
8.44523e-08
8.44408e-08
8.44288e-08
8.44215e-08
8.4424e-08
8.44176e-08
8.44143e-08
8.4396e-08
8.44074e-08
0.705567
0.54384
0.216858
0.0842717
0.0515671
0.0577552
0.0637805
0.0631426
0.0652496
0.0692723
0.0648884
0.100274
0.290654
0.458397
0.413178
0.282727
0.188079
0.15585
0.131232
0.126204
0.140301
0.157176
0.175719
0.173779
0.164918
0.150503
0.131797
0.126529
0.129495
0.139649
0.157604
0.173734
0.176681
0.170797
0.151507
0.114971
0.0630041
0.0502203
0.0579795
0.0843153
0.163072
0.310965
0.391188
0.373734
0.302641
0.227651
0.236134
0.254325
0.250623
0.171891
0.060044
0.0798517
0.0820489
0.0602638
0.0777258
0.0775568
0.0585586
0.0356374
0.0321949
0.0443595
0.0569986
0.0564295
0.0430898
0.0254829
0.0204182
0.0165999
0.0125724
0.0109974
0.00954622
0.00723081
0.00395233
0.00162316
0.00061273
0.000233565
9.21053e-05
3.71526e-05
1.53761e-05
6.47704e-06
2.70805e-06
1.11666e-06
4.68972e-07
2.19662e-07
1.30014e-07
1.00493e-07
9.22015e-08
9.07204e-08
9.09115e-08
9.17487e-08
9.27549e-08
9.32904e-08
9.35319e-08
9.35877e-08
9.35045e-08
9.3272e-08
9.29448e-08
9.25723e-08
9.21953e-08
9.18185e-08
9.14257e-08
9.10129e-08
9.05932e-08
9.01828e-08
8.97833e-08
8.93969e-08
8.90249e-08
8.86683e-08
8.83271e-08
8.80024e-08
8.76947e-08
8.74057e-08
8.71376e-08
8.68942e-08
8.66767e-08
8.64834e-08
8.6306e-08
8.61428e-08
8.59914e-08
8.58521e-08
8.57232e-08
8.56052e-08
8.54957e-08
8.53965e-08
8.53049e-08
8.5221e-08
8.51441e-08
8.50734e-08
8.50104e-08
8.4957e-08
8.49168e-08
8.48854e-08
8.4856e-08
8.48236e-08
8.47855e-08
8.4747e-08
8.47123e-08
8.46804e-08
8.46515e-08
8.4625e-08
8.4601e-08
8.4579e-08
8.45591e-08
8.45407e-08
8.4524e-08
8.4509e-08
8.44926e-08
8.44621e-08
8.44439e-08
8.44415e-08
8.44242e-08
8.44368e-08
0.57042
0.526063
0.246354
0.102982
0.0542967
0.0608396
0.0676279
0.0677394
0.0703792
0.0806726
0.0598451
0.0869347
0.322913
0.524873
0.477886
0.328746
0.217495
0.175942
0.147283
0.136289
0.153931
0.1763
0.192722
0.188876
0.178466
0.162641
0.142108
0.136138
0.139058
0.149501
0.168163
0.184785
0.187704
0.181403
0.161393
0.124269
0.0687382
0.0475043
0.0584639
0.0900644
0.175644
0.333513
0.424251
0.406484
0.321995
0.233831
0.246991
0.277271
0.284256
0.208303
0.0656878
0.0545668
0.0505879
0.0482551
0.0825462
0.0818899
0.0596734
0.035204
0.0348222
0.0503232
0.0619566
0.060736
0.0481646
0.0270458
0.0171388
0.0147095
0.0130222
0.011984
0.0106075
0.00811565
0.00452104
0.00186903
0.000689987
0.000248806
9.52947e-05
3.88204e-05
1.61918e-05
6.87175e-06
2.92914e-06
1.23749e-06
5.30335e-07
2.5069e-07
1.4767e-07
1.12805e-07
1.02185e-07
9.9393e-08
9.88359e-08
9.87853e-08
9.87273e-08
9.85091e-08
9.807e-08
9.74533e-08
9.67484e-08
9.60303e-08
9.53181e-08
9.46024e-08
9.38705e-08
9.31319e-08
9.24526e-08
9.18301e-08
9.12541e-08
9.07234e-08
9.02312e-08
8.97718e-08
8.93431e-08
8.8946e-08
8.85817e-08
8.82525e-08
8.7959e-08
8.76962e-08
8.74587e-08
8.72359e-08
8.70196e-08
8.68065e-08
8.66053e-08
8.64201e-08
8.62499e-08
8.60933e-08
8.59498e-08
8.58181e-08
8.56959e-08
8.55856e-08
8.54831e-08
8.5388e-08
8.53006e-08
8.52215e-08
8.51507e-08
8.50853e-08
8.50201e-08
8.49528e-08
8.48858e-08
8.48243e-08
8.47758e-08
8.47372e-08
8.47026e-08
8.46709e-08
8.46422e-08
8.4616e-08
8.45926e-08
8.45712e-08
8.45523e-08