/*--------------------------------*- C++ -*----------------------------------*\
| =========                 |                                                 |
| \\      /  F ield         | OpenFOAM: The Open Source CFD Toolbox           |
|  \\    /   O peration     | Version:  v1912                                 |
|   \\  /    A nd           | Website:  www.openfoam.com                      |
|    \\/     M anipulation  |                                                 |
\*---------------------------------------------------------------------------*/
FoamFile
{
    version     2.0;
    format      ascii;
    class       surfaceScalarField;
    location    "40";
    object      alphaPhi0.water;
}
// * * * * * * * * * * * * * * * * * * * * * * * * * * * * * * * * * * * * * //

dimensions      [0 3 -1 0 0 0 0];
oriented        oriented;


internalField   nonuniform List<scalar> 
28285
(
0.0293821
-0.000753675
0.0267493
0.00263273
0.0229759
0.00377341
0.0185716
0.00440433
0.0137317
0.00483993
0.00856497
0.0051667
0.00315533
0.00540964
-0.00237373
0.00552906
-0.00794157
0.00556784
-0.0134135
0.00547197
-0.0186253
0.00521176
-0.0233981
0.00477285
-0.0275519
0.00415373
-0.0309189
0.00336705
-0.0333583
0.00243932
-0.0347671
0.00140888
-0.0350895
0.000322319
-0.0343207
-0.000768753
-0.0325019
-0.00181877
-0.0297193
-0.00278259
-0.0260961
-0.00362319
-0.0217839
-0.00431223
-0.0169542
-0.00482971
-0.011791
-0.00516323
-0.00648037
-0.00531061
-0.000772925
-0.00570745
0.00455346
-0.00532639
0.00953143
-0.00497797
0.0141309
-0.00459944
0.0182726
-0.00414169
0.0218967
-0.0036241
0.0249701
-0.00307341
0.0274849
-0.00251487
0.0294544
-0.0019695
0.0309065
-0.00145205
0.0318764
-0.000969878
0.0323996
-0.000523254
0.0324928
-9.31707e-05
0.0321946
0.000298226
0.0314931
0.00070149
0.0303774
0.0011157
0.0288239
0.00155351
0.0268016
0.00202227
0.0242801
0.00252144
0.0212397
0.00304045
0.0176813
0.00355839
0.013635
0.00404634
0.00916367
0.0044713
0.00436141
0.00480226
-0.000636827
0.00499824
-0.00575937
0.00512255
-0.0108432
0.00508386
-0.0157871
0.00494392
-0.0205127
0.00472557
-0.024973
0.00446025
-0.0291506
0.00417758
-0.0330495
0.00389895
-0.0366827
0.00363324
-0.0400592
0.00337646
-0.0431736
0.00311442
-0.0459991
0.00282549
-0.0484814
0.00248226
-0.050535
0.0020536
-0.0520453
0.0015103
-0.05288
0.000834759
-0.0529023
2.2294e-05
-0.0519733
-0.000929048
-0.0500341
-0.00193919
-0.0470313
-0.00300276
-0.0429694
-0.00406189
-0.0379117
-0.00505772
-0.0319684
-0.00594327
-0.0252827
-0.00668577
-0.0180152
-0.00726743
-0.0103282
-0.00768706
-0.0024383
-0.00788989
0.00578845
-0.00822675
0.0139506
-0.00816215
0.0220695
-0.0081189
0.0300543
-0.00798476
0.0378186
-0.00776436
0.0452627
-0.00744406
0.0522683
-0.00700566
0.0586964
-0.00642802
0.0643888
-0.00569245
0.0691775
-0.00478865
0.0728964
-0.00371893
0.0753967
-0.00250033
0.0765613
-0.00116455
0.0763142
0.000247057
0.0746414
0.00167285
0.0715654
0.00307598
0.0671636
0.00440175
0.061553
0.00561067
0.0548798
0.00667317
0.0473091
0.00757067
0.0390223
0.00828683
0.0301979
0.0088244
0.0211826
0.00901527
0.011549
0.00963362
0.0017209
0.0098281
-0.00786983
0.00959072
-0.0171187
0.00924888
-0.0259019
0.00878317
-0.0341114
0.00820952
-0.0415811
0.00746971
-0.048186
0.0066049
-0.0538149
0.00562888
-0.0583925
0.00457759
-0.0618806
0.00348813
-0.0642857
0.00240507
-0.0656472
0.00136153
-0.0659925
0.000345256
-0.0655198
-0.000472691
-0.0642507
-0.0012691
-0.0622929
-0.00195773
-0.0597416
-0.00255136
-0.0566696
-0.00307195
-0.0531281
-0.00354149
-0.0491465
-0.0039816
-0.0447364
-0.00441015
-0.0398975
-0.00483886
-0.0346254
-0.0052721
-0.0289223
-0.00570307
-0.0227988
-0.00612355
-0.0162934
-0.00650539
-0.00948886
-0.00680455
-0.00236148
-0.00712738
0.00491259
-0.00727407
0.0121655
-0.00725289
0.0192891
-0.00712366
0.0261527
-0.00686352
0.0326076
-0.00645499
0.0385243
-0.00591664
0.0437787
-0.00525446
0.0482656
-0.0044869
0.0518977
-0.00363203
0.0546106
-0.00271296
0.0563598
-0.00174918
0.0571221
-0.00076226
0.0569251
0.000196972
0.0557916
0.00113349
0.0537606
0.00203105
0.0509074
0.00285321
0.0473259
0.00358145
0.0431193
0.00420658
0.0384185
0.00470083
0.0333709
0.00504758
0.0278669
0.00550401
0.0221798
0.00568706
0.0163929
0.00578699
0.0105995
0.00579332
0.00487568
0.00572385
-0.00078195
0.00565763
-0.00612547
0.00534352
-0.0112457
0.00512026
-0.0160464
0.00480067
-0.0204631
0.0044167
-0.0244149
0.00395183
-0.0278147
0.0033998
-0.0305731
0.00275835
-0.0326146
0.00204155
-0.0338746
0.00125993
0.000451177
0.0300163
0.00114112
0.0270043
0.00564469
0.0231342
0.00764357
0.0186956
0.00884291
0.013835
0.00970051
0.00864321
0.0103585
0.00320238
0.0108505
-0.00243128
0.0111627
-0.00807195
0.0112085
-0.0136344
0.0110344
-0.0189425
0.0105198
-0.0238093
0.0096396
-0.0280473
0.00839175
-0.0314827
0.00680243
-0.0339691
0.00492578
-0.0354001
0.00283989
-0.0357178
0.000639965
-0.0349179
-0.00156866
-0.0330425
-0.0036941
-0.0301808
-0.00564436
-0.0264594
-0.00734454
-0.0220331
-0.00873857
-0.0170727
-0.00979011
-0.011752
-0.0104839
-0.00622806
-0.0108345
-0.000616001
-0.0113195
0.00474911
-0.0106915
0.00981586
-0.0100447
0.0144911
-0.00927472
0.0186901
-0.00834064
0.022351
-0.00728501
0.0254403
-0.00616271
0.0279509
-0.00502549
0.0298987
-0.00391724
0.0313162
-0.00286962
0.0322459
-0.00189953
0.0327304
-0.00100777
0.0328
-0.000162708
0.0324929
0.00060525
0.0318005
0.00139391
0.0307072
0.00220905
0.0291806
0.00308011
0.0271792
0.00402362
0.0246628
0.00503783
0.0216042
0.00609912
0.0180001
0.00716245
0.0138802
0.00816628
0.00931066
0.00904081
0.00439212
0.00972079
-0.000720966
0.0101113
-0.00596808
0.0103697
-0.0111551
0.0102709
-0.016176
0.00996479
-0.0209449
0.00949455
-0.0254125
0.00892776
-0.0295648
0.00832992
-0.0334169
0.00775101
-0.0369993
0.00721573
-0.0403426
0.00671975
-0.04346
0.0062318
-0.0463335
0.00569899
-0.0489051
0.00505383
-0.0510752
0.00422372
-0.0527094
0.00314456
-0.0536509
0.00177623
-0.0537245
9.59267e-05
-0.0528695
-0.00178406
-0.0509237
-0.00388503
-0.0478481
-0.00607834
-0.0436629
-0.00824708
-0.0384451
-0.0102756
-0.0323213
-0.0120671
-0.0254518
-0.0135552
-0.0180108
-0.0147084
-0.0101705
-0.0155274
-0.00204592
-0.0160145
0.00609753
-0.0163702
0.0143158
-0.0163804
0.0224724
-0.0162755
0.0304978
-0.0160102
0.0383162
-0.0155827
0.0458351
-0.0149629
0.0529368
-0.0141074
0.0594759
-0.0129671
0.0652831
-0.0114997
0.0701762
-0.00968173
0.0739752
-0.00751794
0.0765198
-0.00504491
0.0776855
-0.00233022
0.0773901
0.000542434
0.0756276
0.00343536
0.0724247
0.00627884
0.0678691
0.00895737
0.0620891
0.0113907
0.0552415
0.0135207
0.0474989
0.0153134
0.0390394
0.0167463
0.0300353
0.0178284
0.0205998
0.0184508
0.0110553
0.0191781
0.00125166
0.0196318
-0.00836565
0.019208
-0.0177221
0.0186054
-0.0266106
0.0176716
-0.0349091
0.016508
-0.0424509
0.0150116
-0.0491019
0.0132559
-0.0547463
0.0112733
-0.0593051
0.00913633
-0.0627391
0.00692217
-0.0650526
0.00471853
-0.0663012
0.00261017
-0.0665814
0.000625435
-0.0659595
-0.00109463
-0.0645655
-0.00266301
-0.0625102
-0.00401307
-0.0598844
-0.00517718
-0.0567638
-0.00619252
-0.0531974
-0.00710786
-0.0492087
-0.00797037
-0.0448002
-0.00881863
-0.0399621
-0.00967698
-0.0346813
-0.0105529
-0.0289532
-0.0114311
-0.0227867
-0.0122901
-0.0162227
-0.0130694
-0.00930131
-0.013726
-0.0020923
-0.0143364
0.00524993
-0.0146163
0.0126039
-0.0146068
0.0198212
-0.014341
0.0267663
-0.0138087
0.0332886
-0.0129773
0.0392541
-0.0118821
0.0445376
-0.010538
0.0490325
-0.00898187
0.0526519
-0.00725138
0.0553304
-0.00539144
0.0570279
-0.00344668
0.0577199
-0.00145431
0.0574308
0.000486065
0.0561908
0.00237353
0.0540429
0.00417897
0.051064
0.00583205
0.0473515
0.00729394
0.0430133
0.00854485
0.0381657
0.00954839
0.032927
0.0102863
0.0274121
0.0110189
0.0216908
0.0114084
0.015879
0.0115988
0.0100702
0.0116021
0.00433392
0.0114601
-0.0012839
0.0112754
-0.00666545
0.0107251
-0.0117961
0.0102509
-0.0166029
0.00960746
-0.021013
0.00882678
-0.0249409
0.0078797
-0.0282944
0.00675337
-0.0309821
0.00544604
-0.0329288
0.00398826
-0.0340758
0.00240691
0.000786586
0.0309448
0.00455976
0.0274416
0.00914783
0.0233909
0.0116943
0.0188676
0.0133662
0.0139515
0.0146167
0.00870487
0.0156051
0.00319081
0.0163645
-0.00251561
0.0168691
-0.008242
0.0169349
-0.0139144
0.0167068
-0.0193357
0.0159412
-0.0243099
0.0146138
-0.0286413
0.0127232
-0.0321489
0.01031
-0.0346808
0.0074577
-0.0361271
0.00428623
-0.0364268
0.000939605
-0.035582
-0.00241346
-0.0336341
-0.00564201
-0.0306769
-0.00860148
-0.0268426
-0.0111789
-0.0222903
-0.0132909
-0.0171936
-0.0148867
-0.011725
-0.0159525
-0.0060283
-0.0165312
-0.00038923
-0.0169586
0.00501989
-0.0161006
0.0101632
-0.0151881
0.0148904
-0.0140019
0.0191175
-0.0125677
0.0227854
-0.0109529
0.0258634
-0.00924068
0.0283477
-0.00750984
0.0302584
-0.00582789
0.0316331
-0.00424434
0.0325193
-0.00278571
0.0329644
-0.0014529
0.0330155
-0.000213744
0.0326878
0.00093286
0.0319893
0.00209241
0.0308971
0.00330125
0.0293728
0.00460442
0.0273692
0.00602728
0.0248412
0.00756576
0.021759
0.00918136
0.0181188
0.0108027
0.0139517
0.0123334
0.00932694
0.0136656
0.00434927
0.0146985
-0.000844496
0.0153051
-0.00612335
0.0156485
-0.011347
0.0154945
-0.016393
0.0150108
-0.0211737
0.0142752
-0.0256399
0.0133939
-0.0297806
0.0124707
-0.0336156
0.011586
-0.0371815
0.0107816
-0.0405146
0.0100528
-0.043632
0.0093492
-0.0465164
0.0085834
-0.0491069
0.00764438
-0.0512989
0.00641567
-0.0529518
0.00479748
-0.0539043
0.00272871
-0.0539948
0.000186448
-0.0531127
-0.00266618
-0.0511431
-0.00585457
-0.0480391
-0.00918235
-0.0438182
-0.012468
-0.0385593
-0.0155345
-0.0323913
-0.0182351
-0.025477
-0.0204695
-0.0179933
-0.0221921
-0.0101125
-0.0234082
-0.00196263
-0.0241643
0.00621607
-0.0245489
0.014459
-0.0246233
0.0226376
-0.0244541
0.0306836
-0.0240562
0.038521
-0.0234201
0.0460576
-0.0224995
0.0531752
-0.0212249
0.059727
-0.019519
0.0655427
-0.0173153
0.0704387
-0.0145778
0.0742344
-0.0113136
0.0767687
-0.00757926
0.0779172
-0.00347872
0.0776005
0.000859108
0.0758106
0.00522528
0.0725764
0.00951305
0.0679865
0.0135473
0.0621701
0.0172071
0.0552845
0.0204063
0.0475027
0.0230952
0.0390022
0.0252468
0.0299564
0.0268742
0.0204903
0.0279169
0.0109126
0.0287558
0.0011087
0.0294357
-0.00851486
0.0288316
-0.0178809
0.0279714
-0.0267782
0.0265689
-0.0350811
0.0248109
-0.0426241
0.0225546
-0.0492721
0.0199039
-0.0549103
0.0169115
-0.0594603
0.0136863
-0.0628844
0.0103462
-0.0651899
0.00702406
-0.0664288
0.00384911
-0.066658
0.000854584
-0.0660435
-0.00170908
-0.0646416
-0.00406495
-0.0625699
-0.00608474
-0.0599268
-0.00782034
-0.0567884
-0.00933088
-0.0532042
-0.0106921
-0.0491978
-0.0119767
-0.0447722
-0.0132442
-0.0399177
-0.0145315
-0.0346214
-0.0158491
-0.0288789
-0.0171736
-0.0226992
-0.0184698
-0.0161191
-0.0196494
-0.00919381
-0.0206512
-0.00198031
-0.0215499
0.00535722
-0.0219538
0.012711
-0.0219606
0.0199254
-0.0215554
0.0268657
-0.0207489
0.0333812
-0.0194928
0.0393377
-0.0178386
0.0446103
-0.0158106
0.0490928
-0.0134644
0.0526984
-0.010857
0.0553633
-0.00805629
0.0570447
-0.00512812
0.0577202
-0.00212983
0.057423
0.000783339
0.0561748
0.00362172
0.0540195
0.00633425
0.0510358
0.0088157
0.0473207
0.0110091
0.0429812
0.0128843
0.0381314
0.0143982
0.0329022
0.0155155
0.0273777
0.0165434
0.0216506
0.0171355
0.0158374
0.017412
0.010029
0.0174105
0.00429556
0.0171936
-0.00131978
0.0168908
-0.00669057
0.0160959
-0.0118078
0.0153681
-0.0166011
0.0144008
-0.0210003
0.013226
-0.0249243
0.0118038
-0.0282844
0.0101135
-0.0309908
0.00815242
-0.0329653
0.00596277
-0.0341525
0.0035941
0.00114577
0.0320586
0.00894537
0.0280636
0.0131428
0.0237887
0.0159691
0.0191492
0.0180057
0.0141557
0.0196102
0.00883818
0.0209226
0.00325052
0.0219522
-0.00259644
0.0227161
-0.00851305
0.0228515
-0.0143314
0.0225251
-0.0198888
0.0214987
-0.0249853
0.0197103
-0.0294164
0.0171543
-0.0329932
0.0138868
-0.0355586
0.0100231
-0.0370003
0.00572789
-0.0372587
0.00119796
-0.0363401
-0.00333201
-0.0342912
-0.00769095
-0.0312122
-0.0116805
-0.0272422
-0.0151489
-0.0225469
-0.0179862
-0.0173062
-0.0201275
-0.0117016
-0.0215571
-0.00591274
-0.0223201
-0.000217462
-0.0226539
0.0052669
-0.021585
0.0104864
-0.0204075
0.0152756
-0.0187911
0.0195444
-0.0168366
0.0232337
-0.0146422
0.0263137
-0.0123207
0.0287833
-0.00997939
0.0306662
-0.00771078
0.0320053
-0.00558349
0.0328545
-0.00363492
0.0332682
-0.00186655
0.0332898
-0.000235375
0.0329554
0.00126724
0.03226
0.00278786
0.0311797
0.0043815
0.0296711
0.00611307
0.0276796
0.0080187
0.0251532
0.0100922
0.0220555
0.012279
0.0183795
0.0144787
0.0141554
0.0165574
0.0094545
0.0183664
0.00438613
0.0197668
-0.000928231
0.0206195
-0.00627214
0.0209924
-0.0115679
0.0207903
-0.0166683
0.0201112
-0.0214798
0.0190867
-0.0259523
0.0178665
-0.030079
0.0165974
-0.0338882
0.0153952
-0.0374282
0.0143216
-0.0407472
0.0133718
-0.0438721
0.0124741
-0.0467905
0.0115018
-0.0494402
0.0102941
-0.0517095
0.00868498
-0.0534471
0.00653509
-0.0544791
0.00376072
-0.0546142
0.000321542
-0.0537765
-0.00350387
-0.0518094
-0.0078217
-0.0486677
-0.012324
-0.0443739
-0.0167618
-0.0390145
-0.0208939
-0.0327291
-0.0245205
-0.0256918
-0.0275067
-0.0180901
-0.0297939
-0.0101057
-0.0313926
-0.00188328
-0.0323868
0.00637387
-0.032806
0.0146667
-0.0329161
0.0228888
-0.0326763
0.0309795
-0.0321469
0.03887
-0.0313106
0.0464727
-0.0301023
0.0536702
-0.0284224
0.0603125
-0.0261613
0.066222
-0.0232248
0.0712059
-0.0195617
0.0750737
-0.0151813
0.0776555
-0.0101611
0.0788207
-0.00464384
0.0784844
0.0011954
0.0766432
0.00706642
0.073328
0.0128283
0.068634
0.0182413
0.0626981
0.0231429
0.0556854
0.027419
0.0477744
0.0310062
0.0391446
0.0338766
0.0299705
0.0360483
0.0203849
0.0375026
0.0106578
0.0384829
0.000823337
0.0392701
-0.00886303
0.038518
-0.0183161
0.0374245
-0.0273051
0.0355579
-0.0356908
0.0331966
-0.0433055
0.0301693
-0.0500063
0.0266046
-0.0556739
0.0225792
-0.0602263
0.0182387
-0.0636241
0.013744
-0.0658733
0.00927323
-0.0670382
0.00501398
-0.0672011
0.00101751
-0.0664961
-0.00241402
-0.0650037
-0.00555738
-0.0628551
-0.00823333
-0.0601507
-0.0105247
-0.0569694
-0.0125123
-0.0533595
-0.0143019
-0.0493412
-0.015995
-0.0449115
-0.017674
-0.0400536
-0.0193895
-0.0347482
-0.0211545
-0.0289848
-0.022937
-0.0227701
-0.0246846
-0.0161427
-0.0262768
-0.00913321
-0.0276607
-0.00184149
-0.0288416
0.00557317
-0.0293685
0.0130177
-0.0294051
0.0203217
-0.0288595
0.027345
-0.0277722
0.0339341
-0.026082
0.0399506
-0.0238551
0.0452679
-0.0211279
0.049778
-0.0179745
0.0533934
-0.0144723
0.0560489
-0.0107118
0.0577032
-0.00678239
0.0583332
-0.00275981
0.0579767
0.00113978
0.0566502
0.0049483
0.0544043
0.0085801
0.0513202
0.0118998
0.047497
0.0148323
0.043047
0.0173343
0.038087
0.0193582
0.0327329
0.0208697
0.0271383
0.022138
0.0213594
0.0229144
0.015504
0.0232674
0.00966407
0.0232504
0.00390313
0.0229545
-0.00171528
0.0225092
-0.00712076
0.0215013
-0.0122608
0.0205082
-0.0170768
0.0192168
-0.0214928
0.0176419
-0.0254239
0.0157349
-0.0287766
0.0134661
-0.0314572
0.010833
-0.0333856
0.00789118
-0.0345015
0.00471001
0.00142007
0.03313
0.013784
0.0287054
0.0175674
0.0241837
0.0204908
0.0194005
0.0227889
0.0143076
0.0247031
0.00889809
0.026332
0.0031958
0.0276545
-0.00269712
0.028609
-0.00872689
0.0288813
-0.0146837
0.0284819
-0.0203821
0.0271971
-0.0256114
0.0249396
-0.0301572
0.0217
-0.0338214
0.017551
-0.0364401
0.0126419
-0.0378973
0.00718509
-0.0381272
0.00142788
-0.0371526
-0.00430665
-0.0350136
-0.00982996
-0.0318193
-0.0148747
-0.0277165
-0.0192517
-0.0228788
-0.0228239
-0.0174943
-0.025512
-0.0117559
-0.0272955
-0.0058606
-0.0282154
-6.59e-05
-0.0284486
0.00553164
-0.0271825
0.0108367
-0.0257126
0.0156931
-0.0236475
0.020007
-0.0211505
0.0237189
-0.0183541
0.0268005
-0.0154023
0.0292535
-0.0124324
0.031106
-0.0095633
0.0324068
-0.00688429
0.0332165
-0.00444462
0.0335965
-0.00224656
0.0335877
-0.000226574
0.0332465
0.00160844
0.0325543
0.00348
0.0314869
0.00544895
0.0299953
0.00760468
0.0280177
0.0099963
0.025494
0.012616
0.0223814
0.0153916
0.0186685
0.0181916
0.0143849
0.0208411
0.00960421
0.0231471
0.00444172
0.0249293
-0.00098137
0.0260425
-0.00641501
0.0264261
-0.0117868
0.0261621
-0.0169432
0.0252676
-0.0217859
0.0239294
-0.0262649
0.0223455
-0.0303783
0.0207108
-0.0341633
0.0191802
-0.0376796
0.0178379
-0.0409867
0.0166789
-0.0441203
0.0156077
-0.0470722
0.0144537
-0.0497794
0.0130013
-0.0521237
0.0110292
-0.0539431
0.00835451
-0.0550512
0.00486882
-0.055236
0.000506316
-0.0544383
-0.00430158
-0.0524738
-0.00978619
-0.0492982
-0.0154996
-0.0449369
-0.0211231
-0.0394834
-0.0263474
-0.0330869
-0.030917
-0.0259327
-0.0346609
-0.0182186
-0.0375079
-0.0101345
-0.0394767
-0.00183597
-0.0406853
0.00649791
-0.0411399
0.0148432
-0.0412614
0.023112
-0.0409451
0.0312496
-0.0402845
0.039194
-0.039255
0.0468615
-0.0377698
0.0541353
-0.0356963
0.0608625
-0.0328885
0.0668594
-0.0292217
0.071925
-0.0246273
0.0758598
-0.0191161
0.0784862
-0.0127875
0.0796674
-0.00582507
0.0793167
0.00154616
0.0774309
0.00895221
0.0740443
0.0162148
0.0692581
0.0230276
0.0632158
0.0291852
0.0560891
0.0345457
0.0480621
0.0390333
0.0393177
0.042621
0.0300323
0.0453337
0.0203463
0.0471885
0.0104954
0.0483338
0.000595615
0.0491699
-0.00915518
0.0482687
-0.0186846
0.0469539
-0.0277543
0.0446276
-0.036213
0.0416553
-0.0438908
0.0378472
-0.0506386
0.0333524
-0.0563337
0.0282743
-0.0608912
0.0227962
-0.0642716
0.0171244
-0.0664841
0.0114857
-0.0675922
0.00612208
-0.0676707
0.00109602
-0.0669094
-0.00317536
-0.0653505
-0.0071163
-0.0631385
-0.0104453
-0.0603812
-0.013282
-0.05716
-0.0157335
-0.0535232
-0.0179387
-0.0494883
-0.0200299
-0.0450484
-0.0221139
-0.0401819
-0.0242559
-0.0348647
-0.0264718
-0.0290818
-0.0287199
-0.0228372
-0.0309291
-0.0161631
-0.032951
-0.00910882
-0.034715
-0.00176147
-0.036189
0.00571326
-0.0368432
0.0132237
-0.0369155
0.0205931
-0.036229
0.0276773
-0.0348563
0.0343205
-0.0327252
0.0403817
-0.0299163
0.0457327
-0.0264789
0.0502647
-0.0225064
0.0538896
-0.0180972
0.0565426
-0.0133649
0.0581824
-0.00842218
0.0587858
-0.0033632
0.0583963
0.00152927
0.0570258
0.00631878
0.0547279
0.010878
0.0515849
0.0150428
0.047698
0.0187192
0.043182
0.0218503
0.0381551
0.0243851
0.0327413
0.0262835
0.0270912
0.027788
0.0212638
0.0287418
0.0153715
0.0291597
0.00950314
0.0291188
0.00372003
0.0287376
-0.00191282
0.028142
-0.00733314
0.0269217
-0.0124856
0.0256606
-0.017317
0.0240482
-0.0217524
0.0220773
-0.0257081
0.0196906
-0.0290894
0.0168474
-0.0318
0.0135436
-0.0337529
0.00984411
-0.0348898
0.00584691
0.00169058
0.0340532
0.0187335
0.0293667
0.022254
0.0246479
0.0252095
0.0197335
0.0277034
0.0145438
0.0298928
0.00904633
0.0318295
0.00325254
0.0334483
-0.00274805
0.0346096
-0.00890731
0.0350405
-0.015016
0.0345906
-0.0208735
0.0330545
-0.0262565
0.0303226
-0.0309384
0.0263819
-0.0347101
0.0213227
-0.0373991
0.0153309
-0.0388839
0.00866993
-0.039093
0.00163701
-0.0380635
-0.00533615
-0.0358309
-0.0120626
-0.0325136
-0.0181921
-0.0282672
-0.023498
-0.0232747
-0.0278164
-0.0177339
-0.0310527
-0.0118492
-0.0331803
-0.00582948
-0.0342351
8.99294e-05
-0.034368
0.00581446
-0.0329071
0.0112184
-0.0311165
0.0161509
-0.02858
0.0205162
-0.0255157
0.0242546
-0.0220926
0.0273394
-0.0184871
0.0297752
-0.0148682
0.031595
-0.0113831
0.032854
-0.00814324
0.0336205
-0.00521112
0.0339643
-0.00259042
0.0339237
-0.000185913
0.0335778
0.00195432
0.0328928
0.00416498
0.0318444
0.0064974
0.0303778
0.0090713
0.0284224
0.0119517
0.0259085
0.0151298
0.0227849
0.0185152
0.0190345
0.021942
0.0146851
0.0251904
0.0098132
0.028019
0.00454099
0.0302015
-0.000993562
0.0315771
-0.0065506
0.0319831
-0.0120183
0.0316298
-0.0172447
0.0304939
-0.0221264
0.0288111
-0.0266138
0.0268329
-0.0307112
0.0248081
-0.0344667
0.0229358
-0.037954
0.0213252
-0.0412467
0.0199715
-0.0443917
0.0187527
-0.047387
0.017449
-0.0501689
0.0157833
-0.0526121
0.0134724
-0.0545405
0.010283
-0.0557453
0.0060736
-0.0560195
0.000780532
-0.0552812
-0.00503996
-0.0533308
-0.0117366
-0.0501212
-0.0187092
-0.0456807
-0.0255636
-0.0401116
-0.0319165
-0.0335763
-0.0374524
-0.0262746
-0.0419626
-0.0184186
-0.045364
-0.0102087
-0.0476865
-0.00181088
-0.0490832
0.00661305
-0.0495638
0.0150224
-0.0496708
0.0233479
-0.0492706
0.0315437
-0.0484803
0.0395574
-0.0472687
0.0473113
-0.0455237
0.0546902
-0.0430751
0.0615373
-0.0397356
0.0676607
-0.035345
0.0728476
-0.0298143
0.076886
-0.0231545
0.0795865
-0.0154879
0.0808035
-0.00704209
0.0804449
0.00190476
0.0785099
0.0108872
0.0750361
0.0196887
0.0701324
0.0279312
0.0639526
0.035365
0.0566776
0.0418207
0.0484995
0.0472114
0.0396068
0.0515136
0.0301783
0.0547622
0.0203638
0.057003
0.0103593
0.0583383
0.000331364
0.0591978
-0.00950621
0.0581063
-0.0191453
0.056593
-0.0283349
0.0538173
-0.0369052
0.0502255
-0.0446821
0.0456241
-0.0515073
0.0401776
-0.0572518
0.0340188
-0.0618259
0.0273702
-0.0651884
0.0204869
-0.0673514
0.0136487
-0.0683788
0.00714956
-0.0683509
0.00106807
-0.0675085
-0.00401777
-0.0658512
-0.00877361
-0.063549
-0.0127475
-0.0607199
-0.0161111
-0.0574481
-0.0190053
-0.0537813
-0.0216054
-0.0497333
-0.024078
-0.0452902
-0.0265569
-0.0404225
-0.0291237
-0.0350979
-0.0317964
-0.0292946
-0.0345232
-0.023012
-0.0372117
-0.0162816
-0.0396814
-0.00914426
-0.0418524
-0.00170294
-0.0436303
0.00587457
-0.0444207
0.0134961
-0.044537
0.0209787
-0.0437115
0.0281704
-0.0420481
0.0349121
-0.039467
0.0410578
-0.0360619
0.0464767
-0.0318978
0.0510576
-0.0270874
0.0547114
-0.0217511
0.0573725
-0.0160259
0.0589955
-0.0100452
0.0595567
-0.00392444
0.0591246
0.0019614
0.0576803
0.00776312
0.0552907
0.0132676
0.0520434
0.0182901
0.0480432
0.0227195
0.0434096
0.0264839
0.0382673
0.0295274
0.0327391
0.0318116
0.0269874
0.0335397
0.0210856
0.0346437
0.0151315
0.0351139
0.00921291
0.0350373
0.00338638
0.0345641
-0.00227539
0.0338038
-0.00773699
0.0323833
-0.0129273
0.030851
-0.0177998
0.0289207
-0.0222768
0.0265543
-0.0262709
0.0236846
-0.0296814
0.0202579
-0.0324056
0.0162678
-0.03435
0.0117885
-0.0354478
0.0069447
0.0018807
0.0348494
0.0237268
0.0300023
0.0271011
0.0251378
0.030074
0.0201143
0.0327269
0.0148369
0.0351703
0.00925387
0.0374125
0.00336379
0.0393384
-0.00275988
0.0407333
-0.0090652
0.0413458
-0.015344
0.0408694
-0.0213822
0.0390928
-0.0269428
0.0358831
-0.0317845
0.0312236
-0.0356849
0.025223
-0.0384609
0.0181069
-0.0399843
0.0101933
-0.0401788
0.00183159
-0.0390924
-0.0064226
-0.0367591
-0.0143958
-0.0333072
-0.021644
-0.0289025
-0.0279027
-0.0237384
-0.0329805
-0.0180237
-0.0367675
-0.0119733
-0.0392307
-0.00580728
-0.0404011
0.000208962
-0.0403842
0.00612412
-0.0388222
0.0116441
-0.0366365
0.0166624
-0.0335983
0.0210852
-0.0299385
0.0248534
-0.0258607
0.0279414
-0.0215751
0.0303572
-0.017284
0.0321393
-0.0131652
0.0333501
-0.009354
0.0340663
-0.00592733
0.0343667
-0.00289081
0.0342993
-0.000118581
0.0339468
0.00230688
0.0332717
0.00484004
0.0322486
0.00752056
0.0308152
0.0105047
0.0288905
0.0138764
0.0263933
0.017627
0.0232621
0.0216464
0.0194726
0.0257316
0.0150501
0.0296129
0.0100745
0.0329946
0.00467617
0.0355999
-0.000988971
0.0372422
-0.00668797
0.0376821
-0.0122689
0.0372107
-0.0175771
0.0358021
-0.0225036
0.0337376
-0.0269994
0.0313287
-0.0310763
0.028885
-0.0347954
0.026655
-0.0382469
0.0247767
-0.0415209
0.0232455
-0.0446779
0.0219097
-0.0477234
0.0204945
-0.0505935
0.0186534
-0.0531544
0.0160333
-0.0552144
0.012343
-0.0565377
0.00739692
-0.0569177
0.00116049
-0.056256
-0.00570167
-0.0543277
-0.0136648
-0.0510828
-0.0219541
-0.0465534
-0.030093
-0.0408523
-0.0376176
-0.0341572
-0.0441475
-0.0266857
-0.0494341
-0.0186667
-0.053383
-0.0103132
-0.05604
-0.0018004
-0.057596
0.00672102
-0.0580853
0.0152012
-0.058151
0.0235885
-0.0576578
0.0318484
-0.0567402
0.0399399
-0.0553601
0.0477925
-0.0533764
0.0552931
-0.0505756
0.0622804
-0.046723
0.0685528
-0.0416174
0.0738838
-0.0351453
0.0780463
-0.027317
0.0808369
-0.0182786
0.0820997
-0.00830489
0.0817365
0.00226799
0.0797484
0.0128753
0.0761777
0.0232594
0.0711426
0.0329662
0.0648083
0.0416994
0.0573671
0.0492619
0.0490205
0.055558
0.0399639
0.0605703
0.0303789
0.0643472
0.0204208
0.0669611
0.0102665
0.0684926
6.73453e-05
0.069397
-0.00987069
0.0680444
-0.0196358
0.0663581
-0.028963
0.0631445
-0.0376617
0.0589242
-0.0455524
0.0535148
-0.0524672
0.0470924
-0.0582696
0.0398212
-0.0628642
0.0319648
-0.0662083
0.023831
-0.0683161
0.0157566
-0.0692555
0.00808889
-0.0691158
0.000928423
-0.0681797
-0.00495387
-0.0664115
-0.0105418
-0.0640105
-0.0151485
-0.0611027
-0.0190189
-0.057776
-0.022332
-0.0540774
-0.025304
-0.0500162
-0.0281392
-0.0455712
-0.0310019
-0.0407039
-0.0339909
-0.0353735
-0.0371268
-0.0295501
-0.0403466
-0.023228
-0.0435338
-0.0164329
-0.0464764
-0.00921763
-0.0490677
-0.00167985
-0.0511681
0.00600917
-0.0521097
0.013749
-0.0522768
0.0213519
-0.0513144
0.0286582
-0.0493544
0.0355046
-0.0463133
0.0417403
-0.0422977
0.047232
-0.0373894
0.0518665
-0.0317219
0.0555536
-0.0254381
0.0582265
-0.0186988
0.0598417
-0.0116604
0.0603751
-0.00445786
0.0598946
0.00244187
0.0583837
0.00927405
0.0559118
0.0157395
0.0525678
0.021634
0.0484603
0.026827
0.0437133
0.031231
0.0384565
0.0347842
0.0328207
0.0374474
0.0269692
0.0393912
0.020983
0.0406298
0.0149603
0.0411366
0.00898713
0.0410105
0.00311615
0.0404351
-0.00257935
0.0394993
-0.0080763
0.0378802
-0.0133024
0.0360771
-0.0182167
0.033835
-0.0227423
0.03108
-0.0267903
0.0277326
-0.0302558
0.0237234
-0.0330293
0.0190413
-0.0350075
0.0137667
-0.036117
0.00805426
0.00205376
0.0355585
0.0287583
0.0306055
0.0320541
0.0256369
0.0350426
0.0205292
0.0378346
0.0151776
0.0405218
0.00951397
0.0430761
0.00352331
0.045329
-0.00273451
0.0469911
-0.00920557
0.0478169
-0.015677
0.0473409
-0.0219224
0.0453381
-0.0276883
0.0416491
-0.0327167
0.0362519
-0.036769
0.0292754
-0.0396496
0.0209875
-0.041222
0.0117657
-0.0414065
0.00201603
-0.0402581
-0.00757097
-0.0378134
-0.0168406
-0.034211
-0.0252464
-0.0296286
-0.0324851
-0.0242717
-0.0383374
-0.0183603
-0.0426789
-0.0121197
-0.0454713
-0.00577743
-0.0467434
0.000388719
-0.0465504
0.00647685
-0.0449103
0.0121243
-0.0422839
0.0172377
-0.0387117
0.0217244
-0.0344253
0.0255251
-0.0296614
0.0286156
-0.0246656
0.0310076
-0.0196759
0.0327453
-0.0149029
0.0338997
-0.0105083
0.0345569
-0.00658457
0.0348041
-0.00313799
0.0347154
-2.99176e-05
0.0343533
0.00266902
0.0336921
0.00550121
0.0327023
0.00851041
0.0313126
0.0118944
0.0294295
0.0157595
0.0269578
0.0200986
0.0238235
0.0247808
0.0199933
0.0295618
0.0154894
0.0341167
0.0103952
0.0380888
0.00485086
0.0411443
-0.000968531
0.0430616
-0.0068301
0.0435437
-0.0125447
0.0429253
-0.0179488
0.0412062
-0.0229266
0.0387155
-0.0274302
0.0358323
-0.0314798
0.0329346
-0.0351526
0.0303277
-0.0385583
0.0281823
-0.0418072
0.0264944
-0.0449762
0.0250786
-0.0480801
0.0235984
-0.0510553
0.0216287
-0.0537585
0.0187364
-0.055979
0.0145635
-0.0574467
0.00886465
-0.0579577
0.00167148
-0.0573948
-0.00626458
-0.0554989
-0.0155607
-0.0522171
-0.0252359
-0.047586
-0.0347241
-0.0417311
-0.0434725
-0.0348488
-0.0510298
-0.0271784
-0.0571045
-0.0189689
-0.0615925
-0.0104487
-0.0645601
-0.00180252
-0.0662421
0.00682478
-0.0667126
0.0153828
-0.066709
0.0238368
-0.0661119
0.0321671
-0.0650706
0.0403466
-0.0635396
0.0483142
-0.061344
0.0559591
-0.0582206
0.0631154
-0.0538793
0.0695692
-0.0480711
0.0750774
-0.0406535
0.0793942
-0.0316338
0.0822991
-0.0211834
0.083623
-0.00962885
0.0832601
0.00263091
0.0812142
0.0149212
0.0775325
0.0269411
0.0723451
0.0381536
0.0658312
0.0482133
0.058197
0.056896
0.0496557
0.0640992
0.0404108
0.0698153
0.0306475
0.0741105
0.0205261
0.0770826
0.010212
0.0788067
-0.000122558
0.0797315
-0.0102572
0.078179
-0.0201816
0.0762825
-0.0296759
0.0726388
-0.0385322
0.0677806
-0.0465638
0.0615463
-0.0535915
0.0541201
-0.0594689
0.0456986
-0.0640935
0.0365894
-0.0674202
0.0271576
-0.0694676
0.017804
-0.0702984
0.00891974
-0.0700212
0.000651172
-0.0689808
-0.00599427
-0.0670807
-0.0124419
-0.0645613
-0.0176679
-0.0615617
-0.0220185
-0.0581729
-0.0257208
-0.0544414
-0.0290355
-0.0503705
-0.0322101
-0.0459298
-0.0354426
-0.0410698
-0.0388509
-0.0357383
-0.0424583
-0.0298958
-0.0461891
-0.02353
-0.0498997
-0.0166638
-0.0533426
-0.00934928
-0.0563822
-0.00168984
-0.0588275
0.00613917
-0.0599387
0.0140272
-0.0601649
0.021782
-0.0590692
0.0292342
-0.0568065
0.0362149
-0.0532941
0.0425681
-0.0486509
0.0481564
-0.0429777
0.0528644
-0.0364299
0.0565998
-0.0291735
0.0592952
-0.0213942
0.0609011
-0.0132663
0.0613916
-0.00494837
0.0608701
0.00296329
0.0592779
0.0108663
0.0566998
0.0183175
0.0532325
0.0251014
0.0489891
0.0310703
0.0441
0.0361201
0.0387024
0.0401818
0.0329318
0.0432179
0.026953
0.0453701
0.020866
0.0467169
0.0147589
0.0472437
0.00871609
0.0470533
0.00278614
0.0463651
-0.00295603
0.0452415
-0.00850448
0.0434287
-0.0137846
0.0413572
-0.0187599
0.0388102
-0.0233538
0.0356739
-0.0274729
0.0318518
-0.0310049
0.0272553
-0.0338297
0.0218661
-0.0358324
0.0157694
-0.0369252
0.00914703
0.00214848
0.0362099
0.0338374
0.0311807
0.0370832
0.0261401
0.0400832
0.0209725
0.0430022
0.0155625
0.0459319
0.00982502
0.0488135
0.00373058
0.0514235
-0.00267264
0.0533943
-0.00933079
0.054475
-0.016021
0.0540311
-0.0225036
0.0518207
-0.0285066
0.0476522
-0.0337518
0.0414971
-0.0379817
0.0335054
-0.0409857
0.0239914
-0.0426175
0.0133976
-0.0427944
0.00219295
-0.041577
-0.00878837
-0.0390068
-0.0194107
-0.0352347
-0.0290186
-0.0304516
-0.0372682
-0.0248767
-0.0439122
-0.0187425
-0.0488131
-0.0122839
-0.0519299
-0.00573245
-0.0532948
0.000650905
-0.0529337
0.00688544
-0.0511449
0.0126684
-0.0480669
0.0178861
-0.0439294
0.0224433
-0.0389824
0.0262792
-0.0334974
0.0293708
-0.0277572
0.0317335
-0.0220386
0.0334186
-0.016588
0.0345063
-0.011596
0.0350939
-0.00717222
0.0352803
-0.0033244
0.0351666
8.37879e-05
0.0347955
0.00304013
0.0341529
0.00614378
0.0332058
0.00945751
0.0318722
0.013228
0.0300435
0.0175882
0.0276079
0.0225342
0.024476
0.0279127
0.0206036
0.0334342
0.0160089
0.0387115
0.0107791
0.0433185
0.00506606
0.0468573
-0.000934015
0.0490617
-0.00698257
0.0495922
-0.0128531
0.0487959
-0.0183682
0.0467213
-0.0234039
0.0437512
-0.027913
0.0403414
-0.0319264
0.036948
-0.0355398
0.0339411
-0.0388866
0.0315291
-0.0421014
0.0297092
-0.0452807
0.028258
-0.0484512
0.0267689
-0.0515497