/*--------------------------------*- C++ -*----------------------------------*\
| =========                 |                                                 |
| \\      /  F ield         | OpenFOAM: The Open Source CFD Toolbox           |
|  \\    /   O peration     | Version:  v1912                                 |
|   \\  /    A nd           | Website:  www.openfoam.com                      |
|    \\/     M anipulation  |                                                 |
\*---------------------------------------------------------------------------*/
FoamFile
{
    version     2.0;
    format      ascii;
    class       volScalarField;
    location    "60";
    object      omega;
}
// * * * * * * * * * * * * * * * * * * * * * * * * * * * * * * * * * * * * * //

dimensions      [0 0 -1 0 0 0 0];


internalField   nonuniform List<scalar> 
14268
(
0.00917372
0.00918131
0.00919585
0.00921663
0.00924191
0.00926976
0.00929764
0.00932369
0.00934943
0.00937592
0.00940532
0.00944094
0.00948693
0.00954795
0.00962915
0.00973476
0.00986522
0.00998389
0.0100568
0.0100944
0.0101091
0.0101118
0.0101104
0.0101049
0.0100939
0.0100782
0.0100601
0.0100431
0.0100272
0.0100114
0.00999546
0.0099793
0.00996279
0.00994595
0.00992886
0.00991161
0.00989427
0.00987689
0.00985945
0.00984195
0.00982442
0.00980686
0.00978926
0.00977164
0.00975396
0.00973622
0.00971856
0.00970128
0.0096843
0.0096675
0.00965092
0.0096345
0.00961818
0.00960191
0.00958567
0.0095695
0.00955338
0.00953726
0.00952126
0.00950539
0.00948958
0.00947387
0.00945839
0.00944319
0.00942836
0.00941415
0.00940113
0.00938913
0.00937808
0.00936792
0.0093586
0.00935008
0.00934194
0.009334
0.00932626
0.00931872
0.00931137
0.00930421
0.00929724
0.00929046
0.00928384
0.00927741
0.00927116
0.00926508
0.00925918
0.00925343
0.00924783
0.00924239
0.0092372
0.00923264
0.0092302
0.00923015
0.00923249
0.0092369
0.00924325
0.00925135
0.00926093
0.00927164
0.00928306
0.00929484
0.00930669
0.00931845
0.00933005
0.0093415
0.00935283
0.00936394
0.00937474
0.00938511
0.00939491
0.00940394
0.00941198
0.00941881
0.00942425
0.00942817
0.00943052
0.00943138
0.00943149
0.00943173
0.0094322
0.00943297
0.00943399
0.0094352
0.00943655
0.00943797
0.00943954
0.0094414
0.00944358
0.00944581
0.00944832
0.00945097
0.00945358
0.0094561
0.00945857
0.00946099
0.00946334
0.00946563
0.00946787
0.00947007
0.00947217
0.00947408
0.00947579
0.00947735
0.00947921
0.00948262
0.00948764
0.00949419
0.00950211
0.00951119
0.00952116
0.00953174
0.00954272
0.00955392
0.00956504
0.00957591
0.00958668
0.00959748
0.00960825
0.00961937
0.00963119
0.00964374
0.00965762
0.00967202
0.00969018
0.00970832
1.85757
1.68074
1.54741
1.44029
1.35067
1.26896
1.18788
1.10456
1.01383
0.907082
0.773
0.602474
0.423527
0.303767
0.23098
0.187392
0.160577
0.143523
0.132555
0.125607
0.121348
0.118894
0.117582
0.117042
0.116912
0.116937
0.117066
0.117257
0.117405
0.117488
0.117513
0.117495
0.117436
0.117358
0.11729
0.117246
0.117238
0.117275
0.117375
0.117542
0.11778
0.118097
0.118499
0.118996
0.119598
0.120317
0.121169
0.122169
0.123334
0.124677
0.126204
0.127919
0.129819
0.131898
0.134143
0.136538
0.139062
0.141688
0.144385
0.14712
0.149853
0.152522
0.155096
0.157555
0.159878
0.162071
0.164134
0.166079
0.167917
0.16966
0.171319
0.172901
0.174409
0.175843
0.177199
0.178469
0.179648
0.18073
0.181711
0.182593
0.183376
0.184066
0.184667
0.185183
0.185615
0.18596
0.186212
0.186361
0.1864
0.186318
0.186159
0.185914
0.185578
0.185152
0.184642
0.184058
0.183413
0.182721
0.181996
0.18125
0.180494
0.179736
0.178983
0.178237
0.177501
0.176776
0.176067
0.175383
0.174731
0.174124
0.173572
0.173086
0.172676
0.172346
0.172096
0.171921
0.171837
0.171865
0.171985
0.172178
0.172435
0.172751
0.173123
0.173554
0.174046
0.174598
0.17521
0.175875
0.176583
0.177325
0.178084
0.17884
0.179572
0.180261
0.18089
0.181445
0.181916
0.182296
0.182578
0.182759
0.182842
0.182821
0.1827
0.18252
0.182279
0.181979
0.181623
0.181216
0.180765
0.180279
0.179766
0.179237
0.1787
0.178152
0.177602
0.177048
0.176472
0.175878
0.175249
0.174561
0.173806
0.172975
0.172011
0.170965
1.85721
1.68192
1.54813
1.43934
1.34995
1.27279
1.19883
1.12392
1.04382
0.950666
0.833599
0.683227
0.515076
0.396027
0.321803
0.27551
0.245612
0.225698
0.21245
0.203942
0.198733
0.195722
0.194099
0.193298
0.192961
0.192887
0.192901
0.19296
0.193044
0.193107
0.19314
0.19315
0.193146
0.193134
0.193127
0.193132
0.19316
0.193217
0.193307
0.193433
0.193598
0.193805
0.194056
0.194355
0.194706
0.195112
0.19558
0.196116
0.19673
0.197426
0.198207
0.199071
0.200013
0.201025
0.202099
0.203222
0.204382
0.205566
0.206758
0.207943
0.20911
0.210248
0.211338
0.212339
0.213253
0.214081
0.214829
0.215508
0.216127
0.216693
0.217212
0.217687
0.218123
0.218521
0.218884
0.219212
0.219506
0.219769
0.220003
0.220211
0.220394
0.220556
0.2207
0.220826
0.220936
0.22103
0.221108
0.22117
0.221216
0.221247
0.221252
0.221217
0.221142
0.221027
0.220875
0.220692
0.220484
0.220259
0.220023
0.21978
0.219535
0.219292
0.219053
0.218819
0.218593
0.218374
0.218161
0.217956
0.217763
0.217585
0.217429
0.217296
0.217191
0.217116
0.217071
0.217052
0.217067
0.217109
0.217172
0.217251
0.217344
0.217449
0.217565
0.217693
0.217833
0.217984
0.218145
0.218314
0.218489
0.218666
0.218841
0.219011
0.219171
0.21932
0.219456
0.219579
0.219688
0.219784
0.219867
0.219937
0.219994
0.220038
0.22007
0.220085
0.220072
0.220032
0.219969
0.219883
0.219777
0.219656
0.219522
0.219382
0.219237
0.219088
0.218936
0.218783
0.218619
0.21844
0.218242
0.218008
0.217744
0.217443
0.217046
0.216663
1.85757
1.68198
1.54817
1.43928
1.34974
1.27266
1.19906
1.12462
1.04532
0.953607
0.839053
0.692612
0.529551
0.414197
0.342095
0.296996
0.267767
0.248233
0.235219
0.226852
0.221741
0.218796
0.217201
0.216392
0.21601
0.21586
0.215826
0.215829
0.215852
0.215893
0.215944
0.215997
0.216047
0.216096
0.216147
0.216206
0.216275
0.216356
0.216449
0.216555
0.216674
0.216807
0.216955
0.217118
0.217297
0.217491
0.217701
0.217932
0.218185
0.218464
0.21877
0.219103
0.219462
0.219847
0.220256
0.220687
0.221139
0.221609
0.222092
0.222586
0.223088
0.223593
0.224064
0.224484
0.224861
0.225194
0.225485
0.225743
0.225973
0.226178
0.22636
0.226521
0.226662
0.226785
0.226891
0.226983
0.227063
0.227134
0.227196
0.227252
0.227304
0.227353
0.227399
0.227444
0.227488
0.227531
0.227575
0.227621
0.227672
0.227727
0.227769
0.227785
0.227774
0.227735
0.227671
0.227588
0.22749
0.227383
0.227272
0.227161
0.227053
0.226948
0.226849
0.226757
0.22667
0.22659
0.226516
0.226448
0.226386
0.226333
0.22629
0.22626
0.226244
0.226243
0.226256
0.226283
0.226323
0.226364
0.226405
0.226445
0.226483
0.22652
0.226556
0.22659
0.226623
0.226654
0.226683
0.226709
0.226731
0.226749
0.226764
0.226776
0.226787
0.226798
0.226811
0.226828
0.226851
0.226883
0.226922
0.226971
0.22703
0.227097
0.227173
0.22724
0.22729
0.227324
0.227343
0.227347
0.227339
0.227321
0.227297
0.227268
0.227236
0.227202
0.227165
0.227123
0.227065
0.226991
0.226911
0.226806
0.226715
0.2266
0.226416
0.226266
1.85796
1.68227
1.54843
1.43954
1.34997
1.2729
1.19934
1.12498
1.04585
0.954494
0.840602
0.695169
0.533344
0.418973
0.347531
0.302941
0.274166
0.254993
0.242222
0.233997
0.228979
0.226103
0.224534
0.223717
0.223325
0.223157
0.223094
0.223078
0.223085
0.223115
0.223172
0.223245
0.223325
0.223408
0.223494
0.223583
0.223677
0.223773
0.223871
0.223971
0.224073
0.224176
0.224279
0.22438
0.22448
0.224577
0.224672
0.224764
0.224857
0.224949
0.225045
0.225145
0.225254
0.225372
0.225504
0.225652
0.22582
0.22601
0.226222
0.226459
0.22672
0.227002
0.227266
0.227497
0.227703
0.227882
0.228035
0.22817
0.228288
0.228391
0.228479
0.228555
0.228617
0.228667
0.228706
0.228736
0.22876
0.228778
0.228795
0.228811
0.228827
0.228844
0.228862
0.228882
0.228904
0.228928
0.228955
0.228989
0.229031
0.229084
0.22913
0.229152
0.22915
0.229123
0.229075
0.229009
0.228931
0.228847
0.228761
0.228678
0.228598
0.228525
0.228459
0.228398
0.228344
0.228297
0.228255
0.228219
0.228187
0.22816
0.228142
0.228132
0.228133
0.228144
0.228165
0.228195
0.228233
0.228266
0.228293
0.228314
0.228329
0.228339
0.228344
0.228346
0.228344
0.228338
0.228325
0.228306
0.228282
0.228252
0.228219
0.228185
0.228154
0.228126
0.228106
0.228095
0.228096
0.22811
0.228138
0.228181
0.22824
0.228314
0.228403
0.228489
0.228563
0.228623
0.228669
0.228701
0.228723
0.228737
0.228745
0.228748
0.228746
0.228737
0.228726
0.228708
0.228671
0.228628
0.228603
0.228579
0.228581
0.228541
0.228442
0.228373
1.85832
1.68273
1.54892
1.44
1.35039
1.2733
1.19979
1.1255
1.04651
0.955416
0.841972
0.69717
0.535586
0.421111
0.349696
0.305151
0.276443
0.257378
0.244694
0.236513
0.231489
0.228602
0.227036
0.226215
0.225808
0.225621
0.22554
0.225512
0.225514
0.225543
0.225604
0.225688
0.225782
0.22588
0.225982
0.226088
0.226194
0.2263
0.226406
0.226509
0.226608
0.226701
0.226787
0.226865
0.226935
0.226994
0.227042
0.227079
0.227106
0.227124
0.227135
0.227144
0.227155
0.227171
0.227198
0.227241
0.227307
0.2274
0.227523
0.227679
0.227868
0.228085
0.228285
0.22846
0.228618
0.228757
0.228878
0.228985
0.22908
0.229163
0.229234
0.229295
0.229344
0.229381
0.229409
0.229428
0.229441
0.22945
0.229457
0.229465
0.229474
0.229484
0.229496
0.229509
0.229523
0.229539
0.229557
0.229581
0.229614
0.229658
0.229703
0.229725
0.22972
0.229691
0.22964
0.229571
0.22949
0.229403
0.229316
0.229232
0.229155
0.229085
0.229023
0.228969
0.22892
0.228878
0.228842
0.22881
0.228784
0.228762
0.228746
0.228738
0.228739
0.22875
0.228769
0.228796
0.22883
0.228859
0.228878
0.228888
0.228892
0.228887
0.228878
0.228863
0.228845
0.22882
0.228789
0.228749
0.228703
0.228652
0.228597
0.228542
0.228491
0.228446
0.228412
0.22839
0.228381
0.22839
0.228416
0.22846
0.228524
0.228605
0.228703
0.228801
0.228888
0.228961
0.229019
0.229061
0.229092
0.229115
0.229132
0.22914
0.22914
0.229131
0.229117
0.229102
0.229088
0.229074
0.229092
0.229105
0.229125
0.229092
0.229007
0.228942
1.85871
1.68333
1.54958
1.44061
1.35092
1.27382
1.20037
1.12617
1.04734
0.956552
0.843576
0.699381
0.537838
0.422855
0.351177
0.306507
0.277687
0.258531
0.245803
0.237585
0.232509
0.229574
0.227973
0.227136
0.226714
0.226511
0.226419
0.226383
0.226381
0.22641
0.226475
0.226566
0.226669
0.226779
0.226893
0.227011
0.22713
0.227247
0.227361
0.22747
0.227573
0.227667
0.227752
0.227824
0.227882
0.227927
0.227957
0.227971
0.227973
0.227964
0.227945
0.227919
0.227892
0.22787
0.227858
0.227863
0.227893
0.227954
0.228051
0.228186
0.228359
0.228562
0.228748
0.228912
0.229064
0.229203
0.229327
0.22944
0.229543
0.229634
0.229715
0.229784
0.229841
0.229885
0.229918
0.229941
0.229956
0.229966
0.229974
0.229982
0.229991
0.23
0.23001
0.230021
0.230031
0.23004
0.230051
0.230065
0.230086
0.230119
0.230159
0.230177
0.230166
0.230129
0.23007
0.229991
0.229899
0.229801
0.229704
0.229611
0.229525
0.22945
0.229383
0.229324
0.229273
0.229228
0.229188
0.229152
0.22912
0.229093
0.229072
0.229057
0.22905
0.229052
0.229063
0.229082
0.229108
0.229131
0.229142
0.229143
0.229135
0.229119
0.229096
0.229069
0.229037
0.228999
0.228953
0.228899
0.228838
0.228771
0.228701
0.228632
0.228567
0.228511
0.228467
0.228438
0.228425
0.228432
0.228459
0.228506
0.228573
0.228659
0.228763
0.228872
0.228969
0.229052
0.229118
0.229166
0.2292
0.229223
0.229235
0.229239
0.229237
0.229224
0.229208
0.229201
0.22922
0.229236
0.229269
0.229294
0.229305
0.229248
0.229161
0.229088
1.85917
1.68406
1.55037
1.44134
1.35155
1.27443
1.20104
1.12695
1.04832
0.957877
0.845442
0.701918
0.540353
0.42472
0.352643
0.307737
0.278723
0.259394
0.246543
0.238229
0.233066
0.230058
0.2284
0.227529
0.227087
0.226871
0.226769
0.226727
0.226724
0.226754
0.226825
0.226925
0.22704
0.22716
0.227282
0.227406
0.227532
0.22766
0.227786
0.227905
0.228014
0.228112
0.228197
0.22827
0.22833
0.228375
0.228406
0.228423
0.228421
0.228402
0.228369
0.22833
0.228288
0.228251
0.228225
0.228216
0.228235
0.228289
0.228383
0.228519
0.228697
0.228907
0.229097
0.229269
0.229434
0.229588
0.229731
0.229864
0.229986
0.230098
0.230197
0.230284
0.230358
0.230418
0.230465
0.230502
0.230529
0.230552
0.230572
0.230593
0.230615
0.230636
0.230656
0.230674
0.230687
0.230696
0.230702
0.230706
0.230715
0.230732
0.230762
0.230774
0.230754
0.230704
0.230628
0.230531
0.23042
0.230302
0.230184
0.230072
0.229969
0.229877
0.229797
0.229727
0.229666
0.229613
0.229565
0.229521
0.229481
0.229445
0.229414
0.22939
0.229373
0.229364
0.229364
0.229374
0.229391
0.229409
0.229414
0.229406
0.229388
0.229361
0.229327
0.22929
0.229247
0.229197
0.229139
0.229074
0.229002
0.228924
0.228843
0.228764
0.228689
0.228626
0.228578
0.228547
0.228535
0.228547
0.228582
0.228639
0.228717
0.228813
0.228924
0.229044
0.229152
0.229243
0.229313
0.229361
0.229392
0.229411
0.229417
0.229413
0.229397
0.229381
0.229364
0.229373
0.229422
0.229472
0.229494
0.229501
0.229509
0.22942
0.229325
0.229242
1.85969
1.68492
1.55129
1.44219
1.35227
1.27512
1.20181
1.12784
1.04943
0.959381
0.847558
0.704791
0.543199
0.426804
0.354229
0.309018
0.279781
0.260248
0.247223
0.238766
0.233495
0.230403
0.228687
0.227777
0.227316
0.227083
0.226968
0.22692
0.226913
0.226941
0.227012
0.227114
0.227233
0.227359
0.227492
0.227629
0.227768
0.227909
0.228048
0.22818
0.228302
0.228413
0.228512
0.228599
0.228676
0.228736
0.228775
0.228792
0.228792
0.228774
0.228736
0.228687
0.228636
0.22859
0.228556
0.228542
0.228555
0.228607
0.228704
0.228848
0.229038
0.22926
0.229465
0.229657
0.229847
0.230034
0.230215
0.23039
0.230558
0.230716
0.230863
0.230997
0.231117
0.231221
0.231311
0.231387
0.231456
0.231521
0.231588
0.231658
0.231729
0.231799
0.231863
0.231917
0.231958
0.231984
0.231997
0.231999
0.231997
0.231995
0.231998
0.231986
0.231938
0.231853
0.231738
0.231598
0.23144
0.23127
0.231098
0.230931
0.230775
0.230633
0.230507
0.230397
0.230302
0.23022
0.230147
0.230081
0.230021
0.229967
0.229919
0.229879
0.229849
0.229829
0.22982
0.229823
0.229834
0.229849
0.229851
0.229839
0.229814
0.22978
0.22974
0.229696
0.229648
0.229594
0.229531
0.229463
0.229389
0.229311
0.229232
0.229157
0.22909
0.229037
0.229005
0.228991
0.229007
0.229051
0.229121
0.229212
0.229322
0.229443
0.229569
0.229695
0.229803
0.229882
0.229931
0.229953
0.229955
0.22994
0.229904
0.229871
0.229845
0.22982
0.229801
0.229828
0.229862
0.229878
0.229876
0.229842
0.229831
0.229716
0.229589
0.229476
1.86028
1.68589
1.55234
1.44315
1.35309
1.27589
1.20266
1.12883
1.05067
0.961063
0.849926
0.708013
0.546412
0.429134
0.355973
0.310399
0.280905
0.261145
0.247924
0.239303
0.233908
0.230723
0.228939
0.227983
0.227493
0.22724
0.227113
0.227056
0.227046
0.227073
0.227147
0.227256
0.227384
0.227523
0.227671
0.227824
0.227981
0.22814
0.228297
0.228447
0.228585
0.228712
0.22883
0.228936
0.229031
0.229111
0.229167
0.229195
0.229198
0.229179
0.229137
0.22908
0.229021
0.228971
0.228934
0.228917
0.22893
0.228988
0.2291
0.229267
0.229489
0.229754
0.230012
0.230268
0.230546
0.230822
0.231115
0.23142
0.23172
0.232015
0.232304
0.232576
0.232819
0.233037
0.233244
0.233447
0.233632
0.233823
0.234024
0.234242
0.234461
0.234673
0.234866
0.235028
0.235152
0.235236
0.235276
0.23528
0.235244
0.235185
0.235108
0.235026
0.234906
0.234747
0.234556
0.234333
0.234079
0.233792
0.233476
0.23315
0.232832
0.232537
0.232269
0.23203
0.231821
0.231639
0.23148
0.23134
0.231217
0.231111
0.231023
0.230954
0.230904
0.230873
0.230859
0.230864
0.230881
0.230904
0.230916
0.230916
0.230903
0.23088
0.230852
0.230822
0.230792
0.23076
0.230729
0.230696
0.230666
0.230642
0.230626
0.230621
0.230626
0.230657
0.230724
0.230826
0.230966
0.231139
0.231338
0.23155
0.231758
0.231954
0.232125
0.232255
0.232332
0.232346
0.232302
0.232205
0.232079
0.23193
0.231785
0.231659
0.231554
0.23147
0.231402
0.231346
0.231291
0.231209
0.231143
0.231021
0.230926
0.230742
0.230514
0.230294
1.86094
1.68699
1.55353
1.44423
1.354
1.27674
1.2036
1.12992
1.05204
0.962923
0.852548
0.711592
0.55002
0.431744
0.357923
0.311932
0.282137
0.262116
0.248674
0.239874
0.234341
0.231052
0.229193
0.228187
0.227663
0.227391
0.227249
0.227183
0.22717
0.227197
0.227276
0.227394
0.227537
0.227694
0.227861
0.228034
0.228212
0.228393
0.228577
0.228749
0.22891
0.229061
0.229206
0.229344
0.229471
0.229582
0.229674
0.229732
0.229743
0.229728
0.229684
0.229621
0.229562
0.229517
0.22949
0.229488
0.229524
0.229614
0.229778
0.230019
0.230343
0.230746
0.231176
0.231652
0.232192
0.23278
0.233436
0.234138
0.234841
0.235548
0.236239
0.23689
0.23749
0.238045
0.238572
0.23909
0.239605
0.240145
0.240734
0.241379
0.242015
0.242617
0.243153
0.243595
0.243926
0.244133
0.244226
0.244161
0.243967
0.243691
0.243366
0.243046
0.242747
0.242462
0.242183
0.241884
0.241517
0.241028
0.24039
0.239632
0.23885
0.238094
0.237385
0.236733
0.236151
0.235636
0.235182
0.234789
0.234457
0.234189
0.233989
0.233856
0.233788
0.233768
0.233783
0.233835
0.233905
0.233984
0.234057
0.234115
0.23416
0.234199
0.234237
0.234279
0.234333
0.234404
0.234498
0.234615
0.234762
0.234943
0.235159
0.235415
0.235715
0.23607
0.236486
0.236968
0.237511
0.238098
0.238686
0.239249
0.239752
0.240163
0.240448
0.240579
0.240526
0.24029
0.239919
0.239449
0.238924
0.23839
0.237881
0.237418
0.237004
0.236632
0.236289
0.235977
0.235688
0.235351
0.235042
0.234656
0.234289
0.233882
0.233343
0.232811
1.86168
1.68822
1.55485
1.44541
1.35498
1.27766
1.20462
1.1311
1.05353
0.964949
0.855412
0.715518
0.554028
0.434648
0.360101
0.31364
0.283502
0.263195
0.249509
0.240503
0.234812
0.231405
0.229463
0.228403
0.227845
0.227551
0.227394
0.227321
0.227306
0.227336
0.227423
0.227557
0.22772
0.227902
0.228097
0.228304
0.228517
0.228735
0.228956
0.229167
0.229367
0.229563
0.229758
0.229954
0.230148
0.230327
0.230488
0.230602
0.230649
0.230642
0.230605
0.230547
0.230505
0.23049
0.230506
0.230566
0.230683
0.230886
0.231212
0.231677
0.232307
0.233123
0.234079
0.235209
0.236526
0.23803
0.239718
0.241542
0.243402
0.245254
0.247036
0.248701
0.250228
0.251629
0.252955
0.254268
0.25562
0.257068
0.258682
0.260436
0.26215
0.263734
0.265101
0.266189
0.266964
0.267391
0.267477
0.267084
0.266319
0.265315
0.264309
0.263442
0.262844
0.262538
0.262459
0.26246
0.262335
0.261758
0.260554
0.258888
0.256943
0.254936
0.252997
0.251177
0.249487
0.247929
0.246512
0.245269
0.244233
0.24344
0.242912
0.242645
0.24261
0.242746
0.242941
0.243206
0.243492
0.243779
0.244059
0.244313
0.244542
0.244755
0.244964
0.245193
0.245468
0.245811
0.246242
0.246775
0.247425
0.248204
0.249118
0.250168
0.251355
0.252684
0.254158
0.255771
0.257501
0.259261
0.260969
0.262525
0.263829
0.264806
0.265384
0.26548
0.265021
0.264093
0.26276
0.261135
0.259367
0.257585
0.255882
0.254311
0.25289
0.251611
0.250455
0.249377
0.24833
0.247315
0.24623
0.245109
0.243906
0.242729
0.241408
0.239977
1.86248
1.68959
1.55632
1.44672
1.35605
1.27864
1.20571
1.13238
1.05514
0.967152
0.858529
0.719805
0.558471
0.437876
0.362534
0.315559
0.285042
0.264423
0.250467
0.24123
0.235358
0.231818
0.229783
0.228666
0.228073
0.227758
0.227588
0.22751
0.227497
0.227536
0.227643
0.227805
0.228003
0.228228
0.228475
0.228741
0.229019
0.229304
0.229589
0.229866
0.23014
0.230419
0.230709
0.231017
0.231338
0.231661
0.231956
0.232177
0.232301
0.232331
0.232313
0.232292
0.232306
0.23238
0.232526
0.232757
0.233103
0.233624
0.2344
0.235485
0.23695
0.238857
0.241198
0.244013
0.247312
0.251087
0.255283
0.259781
0.264327
0.268786
0.273015
0.276913
0.280436
0.28363
0.286651
0.289673
0.292851
0.296326
0.300173
0.304301
0.308273
0.311871
0.314909
0.317267
0.318897
0.319749
0.319744
0.318629
0.316622
0.314122
0.311881
0.310209
0.309557
0.309925
0.311197
0.313178
0.314614
0.314817
0.313032
0.309958
0.306029
0.301609
0.29712
0.292778
0.288576
0.284528
0.280705
0.277247
0.274323
0.272121
0.270789
0.270329
0.270673
0.271471
0.272333
0.273316
0.274294
0.275241
0.276145
0.276974
0.277707
0.278358
0.278964
0.279601
0.280359
0.281322
0.282555
0.284113
0.286046
0.288393
0.291172
0.294377
0.297999
0.302018
0.306405
0.311125
0.316113
0.321112
0.325855
0.329993
0.33322
0.335383
0.336467
0.336337
0.334886
0.332094
0.328029
0.322916
0.317199
0.31136
0.305735
0.30053
0.295839
0.291669
0.287959
0.28461
0.281504
0.27851
0.275473
0.272243
0.268931
0.265629
0.262203
0.258507
1.86334
1.69114
1.55796
1.44813
1.35717
1.27964
1.20683
1.13371
1.05685
0.969515
0.861902
0.724468
0.563381
0.441462
0.365257
0.317727
0.286808
0.265864
0.251623
0.242133
0.236063
0.232375
0.230241
0.229064
0.228437
0.2281
0.22792
0.227844
0.22784
0.227903
0.228051
0.228267
0.228533
0.228841
0.229187
0.229564
0.229961
0.230363
0.230757
0.231149
0.231548
0.231974
0.232443
0.232963
0.233523
0.234103
0.234652
0.235082
0.235353
0.235476
0.235536
0.235617
0.235789
0.236098
0.236561
0.237211
0.238127
0.239449
0.241342
0.243944
0.247386
0.251776
0.257178
0.263624
0.271074
0.279439
0.288525
0.297975
0.307356
0.316434
0.324975
0.332813
0.339877
0.346296
0.35243
0.358648
0.365281
0.372585
0.380556
0.38883
0.396658
0.403702
0.409726
0.414625
0.418322
0.420688
0.421729
0.420824
0.418272
0.414526
0.410888
0.408368
0.407852
0.409398
0.413097
0.419278
0.424013
0.424949
0.422947
0.418155
0.411585
0.403746
0.395373
0.387137
0.37905
0.371189
0.363754
0.357113
0.351687
0.348003
0.346369
0.347117
0.349606
0.352618
0.355429
0.358178
0.360924
0.363691
0.366404
0.368939
0.371213
0.373243
0.375128
0.377071
0.37933
0.382161
0.385761
0.390297
0.39592
0.402741
0.410793
0.420048
0.430451
0.44189
0.454236
0.467422
0.481187
0.494798
0.507333
0.517717
0.525127
0.52945
0.531098
0.53068
0.527393
0.520421
0.509443
0.494634
0.477016
0.45805
0.439163
0.421362
0.405371
0.391348
0.379036
0.368378
0.359229
0.351072
0.343204
0.335054
0.326795
0.318471
0.309763
0.300901
1.86398
1.69226
1.55917
1.4492
1.35803
1.28041
1.20769
1.1347
1.0581
0.97122
0.864323
0.727813
0.566943
0.444067
0.367233
0.3193
0.288097
0.266926
0.252483
0.242814
0.236602
0.23281
0.230607
0.229391
0.228742
0.228394
0.228213
0.228144
0.228151
0.228239
0.228425
0.228688
0.229012
0.229392
0.229824
0.230298
0.230795
0.231295
0.231782
0.232269
0.232775
0.233327
0.233951
0.234655
0.235421
0.23622
0.236988
0.237601
0.238
0.238209
0.23835
0.238531
0.238853
0.239383
0.240144
0.241187
0.242638
0.244715
0.24766
0.251684
0.256968
0.263651
0.271825
0.281527
0.292663
0.305045
0.31834
0.33195
0.345369
0.358313
0.370525
0.381851
0.392261
0.402049
0.411742
0.421988
0.433393
0.446285
0.46051
0.475367
0.489904
0.503818
0.517054
0.529721
0.541829
0.553043
0.562625
0.569577
0.573341
0.572316
0.566484
0.559339
0.553703
0.551267
0.551872
0.555299
0.557407
0.555734
0.551077
0.544316
0.535583
0.524735
0.5119
0.497903
0.483203
0.468446
0.454173
0.441511
0.431511
0.424617
0.421342
0.422055
0.4257
0.430235
0.434626
0.439034
0.443564
0.448214
0.452837
0.457216
0.461196
0.464796
0.468185
0.471718
0.475833
0.480995
0.487593
0.496025
0.506652
0.519793
0.535656
0.554339
0.57588
0.600184
0.627109
0.656087
0.685374
0.712302
0.735031
0.752586
0.764973
0.773026
0.777421
0.779942
0.779628
0.774137
0.762412
0.743795
0.719168
0.689488
0.656091
0.620844
0.585485
0.551463
0.520129
0.492679
0.470556
0.453746
0.438645
0.423928
0.408782
0.393275
0.377107
0.360722
1.86436
1.69284
1.5598
1.44974
1.35848
1.28082
1.20814
1.13524
1.05878
0.972156
0.865645
0.729643
0.568909
0.44551
0.368332
0.320182
0.288829
0.26754
0.252987
0.243219
0.23693
0.233082
0.230844
0.22961
0.228957
0.228611
0.228439
0.228381
0.2284
0.228512
0.228725
0.22902
0.229384
0.229814
0.230307
0.230848
0.231414
0.231982
0.232533
0.233086
0.233666
0.234309
0.235043
0.235878
0.236791
0.237743
0.238666
0.239411
0.239902
0.240178
0.240386
0.240647
0.241091
0.241795
0.242787
0.244135
0.246005
0.248677
0.252449
0.257586
0.264297
0.272729
0.282982
0.295075
0.308892
0.324139
0.340361
0.356788
0.372955
0.388618
0.403618
0.417924
0.43165
0.445212
0.45934
0.474947
0.492768
0.512942
0.534902
0.55748
0.579909
0.602112
0.62432
0.647016
0.670283
0.693254
0.714278
0.731374
0.742613
0.746309
0.737403
0.718187
0.698056
0.679367
0.665624
0.655587
0.646466
0.636365
0.625917
0.615556
0.606012
0.596913
0.587428
0.57684
0.564584
0.550808
0.535795
0.520415
0.505777
0.49417
0.487256
0.485543
0.488196
0.492643
0.497589
0.503153
0.509137
0.515421
0.521763
0.527869
0.533528
0.538775
0.543858
0.549281
0.555649
0.563655
0.573871
0.586896
0.603279
0.622872
0.644698
0.667928
0.691691
0.71523
0.738218
0.760211
0.779705
0.795968
0.808637
0.818255
0.82603
0.832974
0.838893
0.843029
0.84478
0.842024
0.833388
0.818504
0.798212
0.77327
0.744172
0.712374
0.679108
0.646074
0.614197
0.58435
0.55739
0.534354
0.514567
0.495883
0.47637
0.455596
0.433664
0.411069
1.86472
1.69349
1.5605
1.45033
1.35893
1.28122
1.20859
1.13576
1.05946
0.973096
0.866995
0.731524
0.570945
0.447011
0.36948
0.321105
0.289604
0.2682
0.25354
0.243673
0.237309
0.233407
0.231138
0.229894
0.229243
0.228905
0.228747
0.228703
0.228736
0.228872
0.229116
0.229449
0.229862
0.230356
0.230925
0.23155
0.232203
0.23285
0.23348
0.234113
0.234784
0.235537
0.236407
0.237403
0.238494
0.239632
0.240744
0.241652
0.24226
0.242625
0.242922
0.243294
0.2439
0.244833
0.246129
0.247877
0.250301
0.253759
0.258628
0.265231
0.273803
0.284486
0.297386
0.312486
0.329629
0.3484
0.368136
0.38794
0.407499
0.426764
0.445865
0.465079
0.484645
0.505137
0.527434
0.552587
0.581177
0.61273
0.645997
0.67981
0.714054
0.749818
0.788843
0.830474
0.873674
0.917375
0.958709
0.993303
1.01832
1.03367
1.01178
0.952848
0.897289
0.841425
0.793251
0.761473
0.738215
0.718638
0.700175
0.683185
0.669596
0.658927
0.649851
0.641145
0.631497
0.620018
0.607984
0.596295
0.585715
0.577069
0.571756
0.570464
0.572801
0.577287
0.583206
0.590373
0.598395
0.606931
0.615501
0.623648
0.631101
0.637939
0.644491
0.651202
0.658594
0.667157
0.677046
0.688239
0.700282
0.71298
0.72645
0.740405
0.754628
0.769455
0.785541
0.803368
0.820141
0.834004
0.844723
0.853296
0.861223
0.869519
0.877034
0.881927
0.883825
0.881414
0.873444
0.860422
0.843138
0.822344
0.79811
0.771543
0.743514
0.715743
0.689618
0.665994
0.644065
0.621654
0.600315
0.58003
0.558083
0.533078
0.505475
0.475761
1.86511
1.69414
1.56121
1.45092
1.35938
1.28162
1.20904
1.1363
1.06015
0.974053
0.868369
0.73344
0.573032
0.448561
0.370673
0.322075
0.29043
0.268919
0.254156
0.244193
0.237755
0.233804
0.231509
0.23026
0.229618
0.229292
0.22915
0.22912
0.22917
0.229334
0.229612
0.22999
0.230464
0.231038
0.2317
0.232426
0.233181
0.233922
0.234643
0.235371
0.23615
0.237034
0.238067
0.239253
0.240557
0.241914
0.243251
0.244354
0.245103
0.245584
0.245999
0.246516
0.247331
0.248557
0.250241
0.252502
0.255641
0.260118
0.266405
0.274892
0.285828
0.299349
0.315567
0.334431
0.355696
0.37878
0.402765
0.426806
0.450907
0.475473
0.501231
0.528994
0.559131
0.592591
0.630895
0.67619
0.730297
0.794336
0.87099
0.965406
1.08981
1.27327
1.55918
1.87281
2.11643
2.27642
2.35949
2.36299
2.36108
2.4261
2.28605
1.90573
1.41666
1.22212
1.04805
0.929585
0.871072
0.831838
0.798503
0.766308
0.740761
0.723856
0.712484
0.703733
0.69508
0.683377
0.671391
0.659978
0.650406
0.644384
0.642469
0.644818
0.649717
0.656047
0.663113
0.670252
0.67749
0.684713
0.691743
0.698247
0.703946
0.708825
0.713086
0.717125
0.721488
0.726435
0.732291
0.739258
0.74754
0.757283
0.768082
0.779936
0.792983
0.807662
0.824278
0.843079
0.860813
0.875525
0.886894
0.896505
0.906161
0.917147
0.926959
0.931883
0.929993
0.922151
0.910527
0.896134
0.879652
0.86128
0.840878
0.818785
0.79644
0.775307
0.757021
0.742512
0.731227
0.721512
0.707735
0.689534
0.668141
0.641096
0.608722
0.571288
1.8655
1.69483
1.56196
1.45155
1.35985
1.28203
1.2095
1.13685
1.06086
0.975035
0.869782
0.735411
0.575194
0.450176
0.371925
0.323103
0.291322
0.269712
0.254851
0.244795
0.238288
0.234291
0.231975
0.230729
0.230097
0.229793
0.22967
0.229656
0.229729
0.229927
0.230245
0.230675
0.231224
0.231893
0.232667
0.233511
0.234385
0.235234
0.236061
0.2369
0.237804
0.238844
0.240068
0.24148
0.243032
0.244644
0.246243
0.247575
0.248498
0.249126
0.249694
0.250399
0.251486
0.253088
0.255269
0.258192
0.262257
0.268058
0.276182
0.287096
0.301069
0.318243
0.338764
0.362549
0.389265
0.418198
0.448406
0.479644
0.512783
0.549387
0.591825
0.643004
0.705629
0.787065
0.899891
1.06154
1.29503
1.60962
1.99073
2.46059
2.9851
3.49873
4.22535
5.37877
6.5619
7.41211
7.08123
4.96377
11.1724
139.97
237.635
147.605
11.8487
4.06466
2.56236
1.30368
1.10971
0.976421
0.924894
0.878068
0.840231
0.81351
0.797377
0.785841
0.776638
0.760023
0.741071
0.723773
0.708754
0.698697
0.69399
0.693327
0.695626
0.700088
0.706063
0.712971
0.720185
0.727209
0.733655
0.739324
0.744261
0.748729
0.753065
0.757534
0.762395
0.768119
0.774886
0.782892
0.792689
0.804867
0.819959
0.838723
0.862846
0.892961
0.925399
0.960191
0.998399
1.03638
1.06957
1.09729
1.12411
1.14521
1.15788
1.14596
1.10957
1.06461
1.02181
0.983656
0.94931
0.919437
0.893926
0.871324
0.851748
0.835936
0.824912
0.819172
0.818194
0.820306
0.821454
0.814004
0.799026
0.775863
0.743549
0.701854
1.86589
1.69554
1.56274
1.4522
1.36033
1.28244
1.20996
1.1374
1.06158
0.976041
0.871234
0.73744
0.577437
0.451863
0.37324
0.3242
0.292293
0.270597
0.255642
0.245497
0.238927
0.234889
0.232559
0.231323
0.230712
0.230438
0.230343
0.23035
0.230458
0.230699
0.231066
0.231556
0.232182
0.232962
0.233868
0.23485
0.235861
0.236834
0.237782
0.238748
0.239799
0.24102
0.242468
0.244144
0.245986
0.247892
0.249794
0.251393
0.252528
0.253344
0.25411
0.255065
0.256507
0.258599
0.261426
0.265217
0.270501
0.278053
0.288609
0.302753
0.320808
0.342994
0.369602
0.400663
0.436046
0.475428
0.518834
0.568141
0.626186
0.696018
0.783124
0.894328
1.03612
1.20354
1.39889
1.6187
1.88737
2.18659
2.77292
3.93466
5.51841
9.09517
48.7655
63.5756
62.3248
43.4975
13.3793
16.1546
19.2701
48.3328
115.649
54.1994
169.596
188.735
373.995
8.84839
2.52281
1.26968
1.09966
0.989571
0.941594
0.908312
0.892008
0.887395
0.890967
0.888428
0.868936
0.838284
0.803097
0.773449
0.755355
0.74649
0.743331
0.744635
0.749134
0.755946
0.764389
0.772923
0.780336
0.786459
0.79194
0.797775
0.805255
0.81454
0.826317
0.842151
0.861949
0.886637
0.919368
0.964287
1.02294
1.10831
1.2313
1.38703
1.53337
1.67154
1.79909
1.9729
2.30249
2.7655
3.14844
3.27373
2.95019
2.58945
2.14028
1.79215
1.57284
1.39273
1.23951
1.12085
1.04249
0.990389
0.95571
0.933494
0.921281