/*--------------------------------*- C++ -*----------------------------------*\
| =========                 |                                                 |
| \\      /  F ield         | OpenFOAM: The Open Source CFD Toolbox           |
|  \\    /   O peration     | Version:  v1912                                 |
|   \\  /    A nd           | Website:  www.openfoam.com                      |
|    \\/     M anipulation  |                                                 |
\*---------------------------------------------------------------------------*/
FoamFile
{
    version     2.0;
    format      ascii;
    class       volScalarField;
    location    "60";
    object      p_rgh;
}
// * * * * * * * * * * * * * * * * * * * * * * * * * * * * * * * * * * * * * //

dimensions      [1 -1 -2 0 0 0 0];


internalField   nonuniform List<scalar> 
14268
(
11219.4
12457.3
13711.7
14972.8
16219.7
17439.6
18623.9
19767.7
20868.5
21925.8
22940.1
23912
24842
25729.4
26572.4
27367.7
28111
28796.9
29419.3
29987.6
30542
31005.5
31367.5
31642.5
31842.6
31979.3
32064.2
32109.8
32127.8
32127.1
32114.5
32094.6
32069.8
32040.8
32006.4
31965.2
31914.6
31850.4
31768
31662.7
31529.6
31363.4
31158.6
30909.5
30609.6
30252.2
29830.2
29336.1
28762.3
28101.3
27346.1
26490.5
25529.2
24458.3
23277.4
21988.9
20598.1
19114.9
17554.5
15937.8
14265
12522.6
10692.1
8237.46
6165.85
4219.12
2339.89
514.118
-1261.91
-2989.66
-4669.62
-6301.44
-7883.88
-9414.67
-10890.4
-12307.2
-13659.9
-14942.9
-16151.4
-17281.7
-18331.3
-19299
-20183.8
-20985.1
-21701
-22328.7
-22864.1
-23303.6
-23630.5
-23824.7
-23889.1
-23822.3
-23623.2
-23295.3
-22847.1
-22291.3
-21643.8
-20921.5
-20142.5
-19324.7
-18483.8
-17634.2
-16789.7
-15962.1
-15155.3
-14375.9
-13630.9
-12927.3
-12272.3
-11673.7
-11139.4
-10676.2
-10289.8
-9983.48
-9759.29
-9616.98
-9556.67
-9571.8
-9657.09
-9807.94
-10020.3
-10291.1
-10617.9
-10999.3
-11433.7
-11918.9
-12451.4
-13025.6
-13632.9
-14262.6
-14903.3
-15544.2
-16173.3
-16778.1
-17346.6
-17867.9
-18332.5
-18732.2
-19060.6
-19312.6
-19485.4
-19577.9
-19581.4
-19504.7
-19349.5
-19121
-18826.9
-18476.8
-18081.4
-17652
-17199
-16731.7
-16257
-15778.2
-15295.5
-14806.4
-14305.6
-13786.4
-13241.9
-12664.9
-12049.1
-11389.6
-10683.8
-9925.42
12984
14215.1
15415.6
16592.4
17736.8
18845.6
19917.2
20951.2
21947.9
22907.8
23830.6
24715.2
25559.6
26360.3
27113.4
27814.5
28459.5
29045.1
29569.9
30053.1
30519.2
30903.8
31200.9
31426.2
31591.5
31707.1
31782.6
31827.8
31851.5
31859.6
31856.2
31843.6
31822.3
31791.5
31749.5
31694.4
31623.4
31532.9
31418.6
31276.2
31100.9
30887.8
30631.5
30326.2
29965.7
29543.7
29053.5
28488.5
27842.4
27108.9
26282.7
25359.4
24335.5
23209.3
21982
20657.9
19243.2
17747.1
16181.9
14564.8
12905.6
11191
9399.09
7013.53
5008.31
3122.07
1302.01
-466.629
-2188.33
-3864.72
-5495.91
-7080.84
-8617.34
-10102.3
-11531.7
-12901.3
-14206.1
-15440.8
-16601.2
-17684.3
-18688.2
-19611.9
-20454.7
-21215.4
-21891.7
-22480.1
-22975.7
-23374.3
-23659.6
-23811.4
-23833.7
-23725.8
-23487.9
-23125.3
-22647.6
-22068.4
-21404.3
-20672.2
-19889.9
-19074.4
-18240.2
-17399.5
-16563.3
-15741.7
-14944
-14177.9
-13448
-12760.8
-12123.6
-11544.2
-11030
-10587.7
-10222.1
-9936.06
-9730.6
-9605.6
-9560.53
-9588.51
-9684.43
-9843.95
-10063.4
-10339.9
-10671.6
-11057.1
-11494.9
-11982.8
-12517.3
-13092.8
-13700.8
-14331.1
-14971.5
-15610.2
-16236
-16836.5
-17399.9
-17915.5
-18374.1
-18767.8
-19090.1
-19336.1
-19503.2
-19590.3
-19588.8
-19507.5
-19348
-19115.7
-18818.3
-18465.4
-18068
-17637.2
-17183.6
-16716.4
-16242.3
-15764.6
-15283.3
-14795.8
-14296.6
-13778.9
-13235.6
-12659.7
-12044.8
-11385.9
-10680.5
-9922.43
13743.3
14982.4
16172.3
17324
18433.1
19500.2
20526.8
21515
22466.7
23383.2
24264.6
25109.4
25914.6
26676.1
27389.2
28049
28651.6
29194.5
29677.4
30117.8
30537
30902.2
31174.2
31377.4
31524.7
31626.3
31691.4
31729.2
31747.6
31751.8
31745
31728.9
31703.6
31667.5
31618.6
31554.6
31472.6
31368.9
31239.2
31079.3
30884.5
30649.8
30370.1
30039.5
29652
29201.3
28681.2
28085.3
27407.8
26643
25786.1
24833.4
23782.3
22631.5
21383.1
20041.9
18614.4
17109.6
15539.5
13920
12260.2
10549
8766.18
6405.22
4434.36
2576.05
783.225
-958.871
-2654.97
-4306.81
-5914.49
-7476.71
-8990.97
-10453.9
-11861.2
-13208.5
-14490.8
-15702.7
-16840.1
-17900.3
-18881.7
-19783.6
-20605.4
-21346.2
-22003.6
-22573.8
-23051.8
-23432.8
-23700.6
-23835.1
-23839.8
-23714
-23458.4
-23078.8
-22585.4
-21992.6
-21317.4
-20577.1
-19789.8
-18972.2
-18138.5
-17300.3
-16467.5
-15648.9
-14852.6
-14087.4
-13361.1
-12678.4
-12046.7
-11473.4
-10966.3
-10531.7
-10174.5
-9896.87
-9699.42
-9583.08
-9545.81
-9580.75
-9682.56
-9846.92
-10070.2
-10349.8
-10683.8
-11071.2
-11510.7
-12000.2
-12536.2
-13113.2
-13723.2
-14355.8
-14998.9
-15640.2
-16267.7
-16869.3
-17433.1
-17948.5
-18406.5
-18799.1
-19119.9
-19364.3
-19529.4
-19614.2
-19610.7
-19526.9
-19364.5
-19129
-18828.1
-18471.8
-18071
-17637.3
-17181.4
-16712.8
-16238.2
-15760.8
-15280.8
-14795
-14298
-13782.7
-13241.8
-12668
-12054.8
-11397.1
-10692.6
-9934.95
14208.8
15456.3
16644
17785
18876.4
19921.3
20922.9
21885.1
22810.8
23702.2
24559.5
25381.1
26163.7
26902.4
27592.1
28227.5
28804.6
29320.9
29776.7
30188.8
30578.4
30919.9
31181.4
31371.2
31505.7
31595.8
31650.8
31679.9
31690.5
31687.7
31674.4
31652.2
31620.6
31577.9
31521.7
31449.3
31357.9
31243.4
31101.5
30928
30718.2
30467.2
30169.6
29819.8
29411.8
28939.4
28396.3
27776.6
27074.6
26285.1
25403.5
24426.7
23352.3
22179.8
20911.5
19552.7
18110.4
16594
15016.1
13390.4
11722.2
10004.6
8220.8
5868.13
3925.05
2087.73
315.51
-1406.23
-3082.38
-4714.87
-6303.81
-7847.81
-9344.13
-10789.1
-12178.3
-13507.3
-14770.6
-15962.9
-17080.2
-18119.8
-19080.6
-19962.1
-20764.2
-21486.2
-22125.9
-22679.4
-23141.3
-23506.6
-23758.8
-23877.8
-23865.8
-23722.2
-23448.2
-23049.9
-22538.4
-21928.8
-21239
-20487.2
-19691.6
-18869.3
-18033.9
-17196.3
-16365.6
-15549.5
-14755
-13990.1
-13263.7
-12583.6
-11955.9
-11388
-10887.4
-10460.7
-10112.4
-9844.5
-9656.71
-9548.72
-9523.09
-9567
-9676.54
-9847.4
-10075.9
-10359.7
-10697
-11087.1
-11529.1
-12021
-12559.6
-13139
-13752.4
-14388.7
-15036
-15681.4
-16312.2
-16915.9
-17480.8
-17996.4
-18453.6
-18844.8
-19163.7
-19405.5
-19567.7
-19649.4
-19642.2
-19554.5
-19387.6
-19147.1
-18840.9
-18479.1
-18073.3
-17635.2
-17175.9
-16705.2
-16229.9
-15753.1
-15274.9
-14791.8
-14298.1
-13786.2
-13248.6
-12677.7
-12066.9
-11410.9
-10707.5
-9950.46
14542.2
15796.7
16983.8
18117.9
19197.7
20227.5
21212.1
22156.6
23064.9
23939.8
24781.7
25588.9
26357.6
27082.6
27758
28378.2
28938.8
29437.4
29874.2
30265.7
30632.8
30950.8
31200.8
31383.4
31509
31590.1
31636.4
31657.3
31660.2
31649.9
31629.6
31600.6
31562.6
31513.6
31450.7
31371.3
31272.3
31149.3
30998.2
30814.6
30593.8
30331
30020.7
29657.3
29234.8
28746.9
28187.6
27550.8
26831.1
26023.5
25123.6
24128.3
23035.8
21845.6
20560.5
19186.1
17730
16202.2
14615.6
12979.5
11299.1
9570.53
7780.54
5423.09
3502.38
1680.64
-76.146
-1782.42
-3443.21
-5060.68
-6635.11
-8165.09
-9647.67
-11079.1
-12454.6
-13769.6
-15018.5
-16195.7
-17297
-18319.8
-19263.4
-20127.9
-20913.6
-21620.2
-22245.9
-22786.8
-23237.3
-23591.9
-23833.4
-23942.1
-23918.1
-23760.7
-23471.1
-23055.9
-22526.8
-21900
-21194.5
-20429.2
-19623.2
-18793.9
-17954.6
-17115.6
-16285.2
-15470
-14676.4
-13911.3
-13182.8
-12500.7
-11873
-11306.6
-10809
-10387
-10045
-9784.72
-9605.29
-9501.5
-9489.09
-9541.35
-9658.33
-9835.48
-10069
-10356.6
-10696.8
-11089.3
-11533.5
-12027.9
-12569.6
-13153
-13770.7
-14412.3
-15065.3
-15716.8
-16353.4
-16961.8
-17530.1
-18048
-18506.4
-18897.9
-19216.3
-19456.9
-19617.2
-19696.3
-19686.5
-19595.1
-19423.4
-19177.2
-18864.6
-18496.1
-18083.7
-17639.6
-17175.6
-16701.7
-16225.1
-15748.8
-15272.6
-14792.9
-14303.4
-13796.2
-13263.1
-12696.3
-12088.8
-11435.3
-10733.5
-9977.23
14804.4
16064.8
17251.7
18380.3
19450.6
20468.3
21439.7
22370.7
23266.3
24129.6
24961.2
25759.3
26519.8
27236.7
27903.8
28514.8
29064.7
29550.9
29973.6
30349
30697.6
30996
31229.1
31402.3
31521.8
31596
31635.2
31649.1
31645
31627.7
31600.7
31565.5
31521.5
31466.8
31398.2
31313
31207.8
31078.3
30920.1
30728.9
30500
30228.6
29909.2
29536.1
29103.2
28604.2
28033
27383.6
26650.7
25829.2
24915
23904.9
22797.2
21591.7
20291.3
18902.4
17433.1
15894.1
14294.8
12643.9
10948.2
9205.64
7406.15
5034.5
3132.41
1322.62
-422.18
-2116.21
-3764.64
-5369.93
-6932.68
-8451.56
-9923.4
-11344.3
-12709.4
-14013.7
-15251.4
-16416.4
-17504.5
-18512.9
-19441.4
-20290.8
-21062.1
-21755.3
-22369.3
-22900.4
-23342.6
-23690.2
-23924.4
-24026.4
-23993.8
-23824.9
-23520.8
-23088.8
-22541.3
-21895.6
-21172
-20390.8
-19572
-18733.4
-17888.1
-17046
-16214.4
-15399
-14605.2
-13839
-13108
-12421.7
-11790.5
-11222.6
-10725.5
-10306.1
-9968.91
-9715.44
-9544.46
-9460.46
-9445.97
-9506.3
-9631.25
-9815.2
-10054.1
-10345.7
-10689
-11083.9
-11530.5
-12027.8
-12573.2
-13161.5
-13785
-14433.5
-15094.2
-15753.5
-16397.7
-17012.7
-17586.3
-18107.9
-18568.7
-18961.4
-19279.9
-19519.6
-19678.3
-19755
-19742
-19646.2
-19469
-19215.8
-18895.2
-18518.2
-18097.4
-17645.7
-17175.6
-16697.8
-16219.3
-15743.4
-15269.7
-14794.3
-14310.2
-13808.7
-13281.3
-12719.5
-12116.1
-11465.5
-10765.5
-10010.1
15024.9
16290.5
17476.7
18600.1
19661.7
20668.7
21628.7
22548.6
23434.2
24289
25113.7
25906.2
26662.2
27375.3
28038.4
28644.3
29187.8
29665.5
30077.4
30439.5
30772.3
31053.6
31269.5
31429
31538.6
31605.8
31639.4
31647.9
31638.3
31615.2
31582.3
31541.4
31492.4
31432.9
31359.7
31269.8
31159.9
31025.4
30862
30665.3
30430.6
30153.1
29827.4
29447.6
29007.4
28500.6
27920.9
27262.3
26519.4
25687.2
24761.5
23739
22618.3
21399
20084.6
18682.2
17200.4
15647.2
14031.1
12362
10648.3
8889.52
7078.6
4685.81
2799.61
999.229
-735.989
-2419.97
-4058.01
-5653.03
-7206.08
-8716
-10179.4
-11592.2
-12949.5
-14245.7
-15474.8
-16630.2
-17707.1
-18703
-19617.8
-20453.5
-21211.6
-21893
-22497.2
-23020.9
-23457.9
-23801.7
-24031.7
-24129.3
-24092.3
-23913.9
-23596.3
-23147.2
-22580.2
-21913.6
-21169.5
-20369.8
-19535.8
-18685.8
-17833
-16986.3
-16152.1
-15335.3
-14540.2
-13771.9
-13037.8
-12346.1
-11708.8
-11136.3
-10637
-10218
-9884.08
-9636.29
-9472.61
-9395.76
-9391.91
-9461.34
-9594.82
-9785.99
-10030.5
-10326.1
-10672.3
-11069.6
-11518.6
-12019
-12568.8
-13162.9
-13793.9
-14451.1
-15121.3
-15790.3
-16444
-17067.5
-17648
-18175
-18639.6
-19034.6
-19354.1
-19593.6
-19751.1
-19825.7
-19809.6
-19709.4
-19525.9
-19264.7
-18934.7
-18547.6
-18116.6
-17655.7
-17178.1
-16695.1
-16214.2
-15739.2
-15268.3
-14798
-14320.3
-13826
-13305.5
-12750
-12151.6
-11504.6
-10806.8
-10052.4
15219.8
16490
17675.2
18793
19845.9
20842.6
21792.1
22702.4
23579.7
24428
25248
26037.6
26792
27504.3
28166.7
28771.1
29311.3
29783.5
30187.4
30538.2
30857.2
31122.9
31322
31466
31562.6
31619.2
31644.9
31648.5
31635.3
31608.2
31570.7
31525.3
31472
31408.8
31332.1
31238.9
31125.6
30987.6
30820.5
30619.9
30381.4
30099.9
29770.1
29386
28941.3
28429.3
27843.8
27178.6
26428.2
25587.7
24652.6
23619.7
22487.3
21255.5
19928.2
18513
17016.7
15445.7
13809.3
12118.8
10384.7
8608.07
6784.59
4365.06
2492.7
700.017
-1027.38
-2702.86
-4331.84
-5917.83
-7462.54
-8965.14
-10421.8
-11828.6
-13180.2
-14470.7
-15693.4
-16841.3
-17909
-18893.4
-19795.6
-20618.2
-21364.1
-22034.8
-22630.6
-23148.9
-23583.4
-23926.5
-24155.3
-24251.8
-24213.4
-24027.2
-23696.6
-23229.8
-22641.6
-21951.7
-21184.4
-20363.4
-19511.7
-18648.3
-17786.3
-16933.7
-16096
-15276.9
-14479.5
-13707.8
-12968.9
-12271.2
-11626.6
-11046.7
-10542.5
-10121.9
-9789.72
-9546.44
-9389.46
-9320.35
-9327.32
-9406.85
-9549.63
-9748.57
-9999.02
-10298.8
-10647.7
-11047.1
-11498.5
-12002.3
-12557.1
-13158.2
-13798
-14465.8
-15147.6
-15828.5
-16493.5
-17127.3
-17716.4
-18250.1
-18719.7
-19118
-19439.2
-19679
-19835.9
-19908.6
-19889.3
-19784.1
-19593.6
-19323.2
-18982.2
-18583.1
-18140.1
-17668.1
-17181.5
-16692.3
-16209.1
-15734.3
-15266.9
-14802.5
-14332.6
-13846.7
-13334.6
-12786.5
-12194
-11551.1
-10855.7
-10102.3
15399.1
16673.6
17857.1
18968.7
20012.4
20998.7
21938.1
22839.6
23709.9
24553.1
25369.9
26158.2
26913.2
27627.3
28291.8
28897.8
29437.7
29907
30304.9
30646.2
30952.8
31203.7
31386.5
31514
31595.5
31639
31654.1
31650.1
31632.5
31603.7
31563.4
31514.6
31458.3
31392.4
31313.3
31218
31102.5
30962.3
30792.9
30590.1
30349.3
30065.7
29733.8
29347.6
28900.4
28385.6
27796.5
27126.9
26371.1
25524
24581.4
23539.4
22396.7
21153.5
19814
18384.7
16870.8
15278.9
13619.1
11904.3
10147.3
8351.48
6515.53
4062.83
2203.48
417.554
-1303.38
-2971.45
-4592.18
-6169.85
-7707.13
-9203.69
-10655.1
-12057.6
-13405.5
-14692.3
-15910.7
-17053
-18113
-19086.8
-19976.8
-20786.9
-21520.9
-22181.3
-22769.9
-23284.7
-23719.3
-24064.4
-24295.5
-24395.2
-24356.8
-24164.6
-23821.4
-23335.8
-22724.7
-22008.5
-21215
-20369.5
-19497.6
-18618.7
-17746.1
-16886.6
-16044.4
-15222.4
-14421.8
-13645.6
-12900
-12195.2
-11541.9
-10952.8
-10441.2
-10017
-9685
-9444.93
-9294.18
-9233.89
-9252.29
-9342.97
-9495.93
-9703.3
-9960.02
-10264
-10615.5
-11016.8
-11470.4
-11977.7
-12537.9
-13147
-13797.3
-14477.6
-15173.3
-15868.3
-16546.9
-17192.8
-17791.9
-18333.5
-18809.2
-19211.8
-19535.3
-19776
-19932.8
-20003.9
-19981.4
-19871
-19672.8
-19392
-19038.3
-18625.2
-18168.1
-17683.1
-17185.9
-16689.6
-16203.3
-15728.4
-15265.6
-14808.2
-14347.5
-13871.6
-13369.2
-12829.9
-12244.3
-11606.1
-10913.4
-10161.2
15569.4
16847.8
18028.9
19133.4
20167.1
21142.6
22072
22965.5
23829.6
24668.5
25483.2
26271.5
27028.5
27746.5
28415.8
29025.9
29568.2
30037
30431
30764.2
31059.6
31296.6
31463.1
31573.4
31638.1
31666.4
31668.9
31655
31630.7
31599
31558.5
31507.9
31449.5
31382
31301.9
31205.5
31089.2
30948
30777.5
30573.8
30332.2
30048.1
29715.9
29329.3
28881.7
28366
27775.3
27103.1
26343.6
25491.8
24543
23493.3
22341.2
21087.3
19735
18289.1
16755.1
15139.6
13453.5
11711.2
9928.52
8112.64
6269.53
3767.32
1925.62
146.397
-1569.26
-3230.69
-4843.56
-6413.2
-7943.53
-9435.1
-10882.2
-12282.2
-13628.2
-14913.1
-16129.4
-17267.8
-18321.7
-19285.5
-20163.3
-20960.7
-21683
-22333.3
-22915.1
-23428.1
-23865.2
-24215.7
-24452.2
-24560.1
-24521.6
-24326.3
-23970.8
-23465.2
-22828.7
-22083.1
-21259.9
-20386.5
-19491.7
-18595.2
-17710.9
-16843.4
-15995.9
-15170.5
-14366.1
-13584.4
-12831.1
-12117.1
-11453.2
-10853.3
-10332.3
-9902.3
-9568.66
-9330.64
-9186.3
-9136.16
-9166.89
-9269.89
-9434.08
-9650.65
-9914
-10222.1
-10575.9
-10978.7
-11434.2
-11945.1
-12511.3
-13129.3
-13791.8
-14486.8
-15198.7
-15910.1
-16604.8
-17264.8
-17875.3
-18426.1
-18908.8
-19316.3
-19642.7
-19884.9
-20042
-20111.8
-20086.1
-19970.3
-19763.5
-19470.9
-19102.8
-18673.8
-18200.4
-17700.2
-17190.7
-16685.9
-16195.3
-15721.4
-15263.4
-14814.4
-14364.5
-13900.3
-13409.3
-12880
-12302.4
-11669.6
-10979.7
-10228.5
15735.5
17017.5
18195.4
19291.6
20314.1
21278.1
22197.7
23083.6
23942.3
24777.5
25590.5
26379.5
27139.7
27863.3
28539.6
29156.7
29704.1
30174.9
30566.8
30893.2
31178.4
31401.9
31552.1
31644.5
31691.1
31702.3
31690.1
31664.5
31631.6
31594.7
31554
31503.7
31444.6
31376.7
31296.4
31200.4
31084.3
30943.2
30772.9
30569.4
30328.4
30045.2
29714.2
29329.1
28882.8
28368.1
27777.5
27104.5
26342.9
25487.7
24534.1
23477.8
22317
21052.4
19685.5
18220.7
16664.3
15022.6
13307
11533.8
9722.48
7885.44
6065.01
3448.51
1654.81
-117.385
-1829.14
-3484.45
-5089.52
-6650.96
-8174.44
-9661.97
-11105.5
-12504.5
-13850.3
-15135.4
-16351.5
-17487.9
-18537.5
-19491.3
-20356.5
-21140.7
-21851
-22490.7
-23066.1
-23578.8
-24021.2
-24380.4
-24624.7
-24747.9
-24708.7
-24512.2
-24145.3
-23618
-22953.8
-22174.6
-21318
-20412.8
-19492.5
-18576.1
-17679.1
-16802.9
-15949.4
-15120.5
-14311.8
-13523.5
-12761.1
-12036.1
-11359.4
-10746.6
-10214.5
-9776.44
-9438.71
-9202.55
-9065.75
-9026.88
-9071.09
-9187.78
-9364.44
-9591.07
-9861.48
-10173.7
-10529.4
-10933.1
-11390.2
-11904.4
-12477
-13104.9
-13781.2
-14493.2
-15224.1
-15954.4
-16667.6
-17343.8
-17967.3
-18528.5
-19019.1
-19432
-19761.8
-20006
-20163.8
-20232.7
-20203.8
-20082.3
-19866.4
-19560.6
-19176
-18728.8
-18236.7
-17719.1
-17195.6
-16681
-16185.6
-15712.7
-15259.7
-14820.9
-14383.5
-13932.8
-13455
-12937.4
-12369
-11742
-11055.1
-10304.9
15901.1
17186.3
18359.9
19446.2
20456.2
21408
22317.8
23196.9
24050.4
24882.2
25693.6
26483.6
27247.6
27978.2
28663.9
29290.7
29846
30321.3
30713.2
31034.3
31310.3
31520.7
31654.4
31727.9
31754.8
31747.1
31718.5
31679.2
31636
31592.4
31549
31501.1
31442.5
31375.2
31296.2
31201.5
31086.8
30946.9
30777.7
30575.6
30336.5
30055.6
29727.3
29345.2
28902
28389.9
27801.2
27128.9
26366.6
25509.3
24552.1
23490.1
22321.1
21044.8
19661.4
18175.7
16594.8
14924.3
13176
11367.9
9524.12
7660.18
5814
3185.81
1392.82
-376.611
-2086.4
-3735.89
-5332.89
-6885.49
-8401.8
-9886.3
-11326.4
-12726.2
-14073.3
-15360.9
-16578.8
-17715.1
-18762.8
-19705.9
-20557.8
-21327.7
-22025.7
-22653.7
-23222.4
-23736.4
-24186.9
-24558.9
-24819.5
-24954.4
-24920.2
-24722.1
-24345.7
-23794.6
-23100.2
-22282.4
-21388.5
-20447
-19498.5
-18559.8
-17649.7
-16763.8
-15903.6
-15071.6
-14258.3
-13462.5
-12689.2
-11952.2
-11259.8
-10631.4
-10086.1
-9637.38
-9294.41
-9060.38
-8932.15
-8905.68
-8964.81
-9096.78
-9287.37
-9525.11
-9803.02
-10119.3
-10476.3
-10880.2
-11338.1
-11855.5
-12434.6
-13073.4
-13765.3
-14496.8
-15249.5
-16001.4
-16735.9
-17430.7
-18068.5
-18641.2
-19140.6
-19559.5
-19893
-20139.7
-20298.7
-20367
-20334.9
-20207.5
-19981.7
-19661.2
-19258.1
-18790.3
-18276.9
-17739.3
-17199.8
-16674.4
-16173.6
-15701.5
-15254.9
-14827.5
-14404.4
-13969.3
-13506.6
-13002.3
-12444.2
-11823.7
-11139.7
-10390.4
16069.3
17357.2
18525.2
19599.6
20595.3
21534.2
22434.7
23307.5
24156.2
24984.3
25794.1
26584.9
27352.8
28091.5
28788.9
29428.3
29994.5
30477
30871.2
31188.5
31456.3
31654
31770.7
31824.5
31829.9
31801.7
31754.3
31699.4
31644.3
31592.8
31545.2
31498.9
31442.6
31377.1
31300.3
31208.3
31096
30958.1
30791.1
30591.5
30355.3
30077.9
29753.8
29376.3
28937.8
28430
27844.8
27174.7
26413.1
25554.7
24595
23528.1
22350.7
21061.6
19659.9
18151
16543.6
14842
13057.6
11209.9
9329.55
7433.13
5543.89
2945.49
1136.89
-633.872
-2344.06
-3987.66
-5576.09
-7118.67
-8626.96
-10109.8
-11545.7
-12948.7
-14298.3
-15590.8
-16813
-17951
-19000.2
-19931
-20768.6
-21522.3
-22207.5
-22821.7
-23383.1
-23900.5
-24362.2
-24752.8
-25039.5
-25179.3
-25157.5
-24958
-24573
-23995.8
-23268.5
-22406.1
-21471
-20487.5
-19508.7
-18544.4
-17621.5
-16725.2
-15857.3
-15023.4
-14205.4
-13401.2
-12615.1
-11863
-11153.3
-10506
-9944.93
-9484.14
-9135.73
-8903.67
-8785.12
-8772.35
-8847.99
-8997.1
-9203.32
-9453.37
-9739.28
-10059.5
-10416.9
-10820
-11278
-11798
-12383.8
-13034.4
-13743.7
-14497.4
-15275.3
-16051.4
-16810.6
-17526.2
-18179.5
-18765
-19274.1
-19699.4
-20037.2
-20286.5
-20446.8
-20515
-20479.9
-20346.5
-20110
-19773
-19349.1
-18858.4
-18320.7
-17760.3
-17202.8
-16664.9
-16158
-15687
-15247.7
-14833.2
-14426.7
-14009.6
-13564.2
-13075.2
-12528.7
-11915.3
-11234
-10485.3
16243.7
17533.4
18693.9
19753.7
20733.2
21658.8
22550.4
23417.6
24261.3
25085.6
25893.1
26684.1
27455.3
28203
28914.5
29569.4
30149.7
30642.5
31041.6
31357.4
31618
31803.3
31902.6
31935.3
31917.2
31866.3
31797.9
31725.2
31656.6
31596
31543.3
31496.4
31444.4
31381.5
31308.3
31220.1
31111.1
30976.2
30812.3
30616
30383.8
30111.1
29792.5
29421.1
28989
28487.2
27907.1
27240.9
26481.1
25622.5
24661.6
23590.5
22404.5
21101.1
19679.5
18145.3
16509.7
14774.4
12950.5
11058
9136.79
7203.35
5264.87
2713.36
884.364
-890.806
-2604.29
-4241.45
-5820.73
-7351.36
-8850.13
-10333.5
-11762.9
-13172.9
-14525
-15826.1
-17054.9
-18196.4
-19252.9
-20168
-20990.3
-21724.6
-22397.2
-22994
-23547.3
-24070.8
-24547.3
-24961.4
-25279
-25431.3
-25423.3
-25223.9
-24827.9
-24222.4
-23460
-22545
-21564.9
-20532.4
-19521.9
-18527.8
-17593.7
-16686
-15809.3
-14975.3
-14153
-13339.8
-12538.3
-11768.6
-11039
-10369.1
-9790.72
-9317.03
-8962.3
-8731.53
-8624.27
-8625.96
-8720.15
-8888.66
-9112.62
-9376.44
-9670.96
-9994.84
-10351.6
-10752.7
-11209.5
-11731.5
-12323.9
-12986.9
-13715.8
-14494.5
-15301.6
-16104.4
-16892.1
-17631.1
-18300.9
-18900.4
-19420.1
-19852.2
-20194.8
-20446.6
-20609
-20678
-20639.7
-20499.6
-20251.5
-19896.5
-19449.5
-18933.3
-18368.2
-17781.7
-17204.1
-16650.5
-16137.7
-15668.3
-15237.1
-14837.4
-14450.2
-14053.8
-13628.1
-13156.4
-12623.1
-12017.4
-11338.3
-10589.9
16371
17660.3
18813.2
19860.1
20826.6
21743.2
22629
23492.4
24332.5
25153.8
25959.7
26750.2
27523.1
28277.7
29000.9
29668.7
30261
30762.6
31166.2
31480.9
31736.7
31913.4
32000.4
32017.9
31982.8
31914.6
31831.2
31745.6
31667.4
31600.1
31543.8
31495.7
31446.9
31386.6
31316.6
31231.6
31125.4
30993
30831.5
30638.2
30409.4
30140.8
29826.9
29460.7
29034
28537.4
27961.9
27299.3
26541.4
25683.1
24722.1
23648.2
22455.6
21141.2
19704.6
18151.2
16495.2
14735.4
12882.2
10954.7
9003.39
7042.87
5071.22
2554.2
713.16
-1065.79
-2783.58
-4415.03
-5987.82
-7508.37
-8999.3
-10486.2
-11907.8
-13327.5
-14679.8
-15991
-17225.3
-18370
-19438
-20337.3
-21148.7
-21866.4
-22531.3
-23112.7
-23660.5
-24190.8
-24680
-25112.6
-25457.3
-25624.2
-25625.8
-25427.1
-25022.4
-24393.1
-23605.4
-22647.4
-21634.9
-20562.7
-19531.6
-18512.9
-17574.4
-16658.2
-15774.1
-14942.7
-14117.6
-13298.3
-12483.9
-11702.3
-10956.6
-10268.3
-9677.55
-9194.28
-8834.53
-8603.87
-8506.15
-8518.48
-8626.67
-8810.03
-9047.52
-9321.65
-9622.26
-9948.31
-10303.7
-10702.3
-11157.5
-11680.3
-12277.2
-12949.4
-13692.6
-14490.7
-15320.8
-16143
-16953.2
-17709.9
-18390.8
-19000.7
-19528.1
-19964.8
-20310.9
-20563.8
-20727.9
-20797.8
-20758.6
-20614.5
-20357.5
-19988.1
-19523.4
-18988.2
-18402.3
-17795.4
-17202.9
-16637.4
-16119.9
-15652.1
-15227.1
-14839.2
-14466.9
-14086.4
-13676
-13217.5
-12694.4
-12094.3
-11415.9
-10667.5
16439.1
17727.7
18876.2
19915.8
20875.3
21787.3
22670.3
23531.7
24369.7
25189.4
25994.4
26784.5
27558.1
28316.4
29046.2
29721.2
30320.2
30826.9
31233.1
31547.2
31800.5
31972.8
32053.1
32062.6
32018.6
31941
31849.3
31757
31673.5
31602.7
31544.5
31495.7
31448.4
31389.6
31321.5
31238.3
31133.6
31002.4
30842.4
30650.7
30423.9
30157.5
29846.2
29483
29059.3
28565.5
27992.6
27332.1
26575.3
25717.3
24756.6
23681.2
22484.9
21164.5
19719.8
18155.9
16488.9
14716
12847
10900.2
8932.53
6957.45
4968.7
2469.75
623.05
-1157.98
-2878.6
-4506.66
-6076.11
-7590.81
-9077.26
-10566.8
-11983.2
-13409.5
-14761
-16078.7
-17315.7
-18462.4
-19538.1
-20427.5
-21233.5
-21941.3
-22602.6
-23175
-23719.9
-24254.5
-24750.8
-25193.4
-25554.1
-25731.5
-25736.6
-25538.3
-25129.4
-24486.3
-23684.6
-22702.5
-21672.9
-20578.4
-19537.1
-18504.2
-17564.4
-16643.4
-15755.1
-14925.7
-14099.1
-13276.7
-12455
-11667.1
-10912.5
-10214
-9616.7
-9128.24
-8765.73
-8534.91
-8442.69
-8460.7
-8576.51
-8767.99
-9012.89
-9292.61
-9596.46
-9923.56
-10277.9
-10675.1
-11129.3
-11652.3
-12251.4
-12928.6
-13679.6
-14488.3
-15331
-16163.6
-16986.4
-17752.6
-18439.3
-19054.8
-19586.4
-20025.4
-20373.4
-20626.9
-20792.2
-20863
-20823.1
-20676.1
-20414.3
-20037.2
-19563.3
-19018
-18420.5
-17802.4
-17201.8
-16630
-16109.7
-15643
-15221.2
-14839.9
-14475.7
-14104
-13701.9
-13250.7
-12733.1
-12136.1
-11457.8
-10709.4
16508.3
17795.9
18939.6
19971.4
20923.8
21831.5
22711.7
23571.1
24407
25225.1
26029.1
26818.6
27592.5
28354.6
29091.4
29774.1
30380.3
30892.6
31301.8
31615.7
31866.6
32034.5
32108.3
32109.5
32056.1
31969
31868.6
31769.1
31680.1
31605.7
31545.5
31496
31450
31392.8
31326.7
31245.4
31142.3
31012.5
30854.1
30664.1
30439.3
30175.4
29866.8
29506.7
29086.2
28595.4
28025.4
27367.1
26611.6
25753.9
24793.7
23716.9
22516.9
21190.3
19737.3
18162.6
16484.6
14698.2
12812.9
10845.5
8861.08
6871.04
4865.46
2384.08
532.418
-1250.87
-2975.08
-4599.28
-6165.56
-7673.7
-9155.19
-10648.4
-12058
-13492.5
-14842.1
-16167.7
-17407.3
-18556.3
-19641.8
-20519.6
-21320.3
-22017
-22675.4
-23237.5
-23779.6
-24319.1
-24822.8
-25275.8
-25652.9
-25834.2
-25850.5
-25655.8
-25242.2
-24582.2
-23766.9
-22759.4
-21713.3
-20594
-19543.2
-18494.6
-17554.6
-16628.6
-15735.5
-14908.8
-14080.8
-13255.5
-12425.4
-11631.3
-10867.7
-10158.1
-9554.24
-9060.38
-8694.92
-8463.66
-8377.39
-8401.09
-8524.89
-8724.9
-8977.6
-9263.18
-9570.36
-9898.45
-10251.5
-10646.9
-11099.8
-11623
-12224.3
-12906.4
-13665.5
-14485.2
-15341.4
-16184.5
-17020.6
-17796.7
-18489.1
-19110.4
-19646.2
-20087.7
-20437.6
-20691.4
-20857.8
-20929.2
-20888.7
-20740.9
-20474.7
-20088.9
-19604.4
-19048.2
-18439
-17809.2
-17200.6
-16621.8
-16098.6
-15633
-15214.6
-14840.3
-14484.6
-14122.1
-13728.8
-13285.1
-12773.3
-12179.4
-11501
-10752.6
16579.3
17865.6
19004
20027.2
20972.3
21876.1
22753.7
23611
24444.5
25260.9
26063.8
26852.4
27626.5
28392.3
29136.5
29827.3
30441.4
30959.8
31372.5
31686.5
31935.2
32098.7
32165.7
32158.5
32095.5
31998.4
31888.9
31781.9
31687.3
31609
31546.6
31496.7
31451.7
31396.3
31332.4
31253
31151.5
31023.2
30866.4
30678.3
30455.6
30194.3
29888.7
29531.8
29114.8
28627.2
28060.2
27404.5
26650.4
25792.9
24833.6
23755.4
22551.7
21218.5
19757
18171.1
16482
14682
12780.1
10790.8
8789.13
6783.82
4761.82
2297.08
441.414
-1344.24
-3072.84
-4692.55
-6255.92
-7756.66
-9232.68
-10730.8
-12131.7
-13576.6
-14922.7
-16258.2
-17499.9
-18651.6
-19750
-20613.6
-21409.2
-22093
-22747.1
-23299.3
-23839.4
-24384.6
-24896.8
-25358.2
-25292.3
-24053.9
-24138.8
-25292.6
-25095.5
-24511.7
-23851.2
-22819.9
-21754.2
-20608.9
-19550
-18483.6
-17544.9
-16613.4
-15715.1
-14891.9
-14062.6
-13234.6
-12395.1
-11595
-10822.1
-10100.6
-9490.19
-8990.69
-8622.1
-8391.2
-8309.09
-8339.66
-8471.81
-8680.8
-8941.7
-9233.4
-9543.99
-9873.02
-10224.5
-10617.9
-11069.2
-11592.4
-12195.7
-12883
-13650.4
-14481.5
-15352.1
-16205.6
-17055.8
-17842.3
-18540.2
-19168
-19708.4
-20152.3
-20504
-20757.9
-20926.4
-20999.7
-20960.2
-20806.8
-20532.8
-20138.5
-19645.4
-19080.8
-18459.3
-17816.4
-17199.2
-16612.6
-16086.5
-15622.3
-15207.3
-14840.4
-14493.6
-14140.7
-13756.5
-13320.7
-12814.9
-12224.4
-11545.6
-10797.1
16652.6
17936.9
19069.4
20083.3
21020.9
21921.2
22796.3
23651.2
24482.3
25297
26098.6
26886.2
27659.9
28429.5
29181.6
29880.9
30503.3
31028.4
31445
31759.6
32006.3
32165.5
32225.7
32209.7
32136.7
32029.2
31910.3
31795.5
31694.8
31612.6
31548
31497.6
31453.4
31400
31338.4
31260.9
31161.2
31034.5
30879.5
30693.3
30472.9
30214.2
29911.8
29558.4
29144.9
28660.8
28097.1
27444.2
26691.5
25834.3
24876.1
23796.5
22589.1
21249.1
19779
18181.3
16481
14667.1
12748.2
10735.6
8716.42
6695.55
4657.59
2208.4
349.849
-1438.25
-3172.15
-4786.57
-6347.47
-7839.73
-9309.72
-10814.3
-12204
-13662.2
-15002.7
-16350.9
-17593.8
-18748.1
-19856.5
-20707
-21503.2
-22165.4
-21110.1
-17197.7
-13289
-9443.04
-5713.19
-2333.02
-71.3684
117.332
110.724
-686.319
-4693.55
-10645.3
-18181.4
-22346.6
-21683
-20626.5
-19558.6
-18470.7
-17535.6
-16598.1
-15693.6
-14875
-14044.4
-13214.1
-12364.1
-11558.3
-10775.8
-10041.4
-9424.57
-8919.17
-8547.22
-8317.48
-8237.78
-8276.34
-8417.26
-8635.68
-8905.21
-9203.3
-9517.4
-9847.3
-10196.9
-10588
-11037.5
-11560.5
-12165.7
-12858.3
-13634.3
-14477.2
-15363.1
-16227.1
-17093.4
-17890.8
-18593.4
-19226.4
-19770.5
-20216.4
-20567
-20822.1
-20992.3
-21066
-21018.4
-20872.8
-20603.1
-20200.1
-19694.1
-19113.2
-18474.7
-17820.1
-17196.1
-16603.1
-16073.7
-15610.8
-15199.1
-14840
-14502.6
-14159.9
-13785.1
-13357.7
-12858.2
-12271.1
-11591.5
-10842.9
16728.3
18010
19136
20139.6
21069.6
21967
22839.5
23692
24520.4
25333.4
26133.5
26919.8
27692.8
28466.2
29226.5
29934.8
30566.1
31098.5
31519.6
31835
32080
32235
32288.2
32263.3
32179.9
32061.6
31932.8
31809.8
31702.8
31616.5
31549.5
31498.9
31455.1
31404.1
31344.6
31269.1
31171.3
31046.4
30893.2
30709.1
30491.1
30235.2
29936.1
29586.4
29176.7
28696.2
28136.1
27486.2
26734.9
25878.1
24921.4
23840.3
22629.1
21282
19803
18193.1
16481.5
14653.6
12717.4
10679.8
8642.86
6606.16
4552.76
2117.8
257.674
-1532.95
-3273.22
-4881.32
-6440.43
-7922.85
-9386.23
-10899.1
-12274.7
-13750.2
-15081.8
-16440.3
-17685.1
-18839.6
-17107
-11343.6
-6400.36
-2082.34
359.703
402.675
383.475
335.619
300.161
248.18
175.254
122.372
103.14
39.3353
-33.3441
-55.7545
-148.248
-4010.94
-12551.6
-19268.2
-19330.1
-18457.2
-17527.8
-16582.5
-15671
-14858.4
-14026.2
-13194.3
-12332.3
-11521.3
-10728.9
-9980.36
-9357.42
-8845.82
-8470.2
-8241.33
-8164.51
-8211.1
-8361.19
-8589.55
-8868.18
-9172.97
-9490.69
-9821.41
-10168.8
-10557.3
-11004.7
-11527.1
-12134
-12832.3
-13616.9
-14472.4
-15375
-16248.9
-17127.9
-17934.8
-18645.3
-19283
-19794.7
-20000.8
-19320.7
-17850.6
-16888.7
-16514.2
-16733.1
-17631.1
-18734.4
-19008.1
-18916.3
-18837.3
-18503.5
-17834.8
-17196.6
-16591.6
-16058.3
-15597.2
-15189.8
-14839.3
-14511.8
-14179.6
-13815
-13396.1
-12903.1
-12319.3
-11638.7
-10890.3
16806.8
18085
19203.8
20196.1
21118.4
22013.5
22883.7
23733.3
24558.8
25370
26168.6
26953.2
27725.1
28502.2
29271.3
29989.1
30629.8
31170.1
31596.2
31912.9
32156.4
32307.2
32353.4
32319.3
32225.1
32095.5
31956.5
31824.8
31711.3
31620.6
31551.2
31500.5
31456.9
31408.8
31350.9
31277.3
31181.7
31058.7
30907.5
30725.6
30510.1
30257.2
29961.5
29615.7
29210
28733.2
28177
27530.3
26780.6
25924
24969.4
23886.6
22671.6
21317.2
19829.2
18206.4
16483.6
14641.4
12687.7
10623
8568.28
6515.49
4447.15
2025.01
164.778
-1628.46
-3376.39
-4976.82
-6535.13
-8005.95
-9462.26
-10986.2
-12343.3
-13833.8
-15156.5
-15634.2
-9658.85
-2938.43
736.712
780.109
756.558
708.914
623.116
525.381
453.738
368.792
301.605
246.802
174.754
122.894
102.78
46.5197
-30.1472
-56.4662
-99.8416
-150.886
-165.532
-1863.06
-8879.35
-15652.5
-17099.4
-16461.4
-15648.6
-14841
-14007.6
-13176
-12299.8
-11484.3
-10681.2
-9917.63
-9288.82
-8770.61
-8390.98
-8162.75
-8089.18
-8143.92
-8303.61
-8542.45
-8830.66
-9142.44
-9463.7
-9795.18
-10139.9
-10525.5
-10970.5
-11492.8
-12101.6
-12804.7
-13597.5
-14464.7
-15382
-16260.8
-16988.6
-16011.3
-12069.3
-8276.75
-4994
-2274.36
-800.471
-437.521
-192.68
-36.9931
-118.989
-409.756
-1230.36
-3375.78
-6522.43
-10073.7
-13629.2
-15835.8
-16164.3
-16187.9
-16004.1
-15589.2
-15184.5
-14840.1
-14521.1
-14200
-13845.4
-13434.7
-12948.8
-12370.7
-11688.7
-10939.1
16891.4
18164.9
19275.2
20254.5
21169
22062.8
22930.4
23776.7
24599
25408.4
26205.2
26987.8
27757.9
28538.8
29317.5
30045.4
30696.5
31245.7
31677.7
31996.2
32238.5
32385.1
32424
32380.1
32274.2
32132.3
31982.3
31841.1