/*--------------------------------*- C++ -*----------------------------------*\
| =========                 |                                                 |
| \\      /  F ield         | OpenFOAM: The Open Source CFD Toolbox           |
|  \\    /   O peration     | Version:  v1912                                 |
|   \\  /    A nd           | Website:  www.openfoam.com                      |
|    \\/     M anipulation  |                                                 |
\*---------------------------------------------------------------------------*/
FoamFile
{
    version     2.0;
    format      ascii;
    class       surfaceScalarField;
    location    "90";
    object      alphaPhi0.water;
}
// * * * * * * * * * * * * * * * * * * * * * * * * * * * * * * * * * * * * * //

dimensions      [0 3 -1 0 0 0 0];
oriented        oriented;


internalField   nonuniform List<scalar> 
28285
(
-8.03953e-34
-3.77907e-35
-2.80081e-34
-1.3141e-35
-9.06241e-35
-4.28274e-36
-2.69831e-35
-1.29613e-36
-7.40482e-36
-3.61128e-37
-1.87886e-36
-9.25386e-38
-4.41977e-37
-2.1791e-38
-9.65376e-38
-4.75891e-39
-1.95827e-38
-9.72246e-40
-3.68918e-39
-1.83102e-40
-6.45522e-40
-3.17432e-41
-1.0483e-40
-5.18008e-42
-1.57846e-41
-7.89638e-43
-2.20146e-42
-1.12018e-43
-2.84154e-43
-1.46977e-44
-3.39257e-44
-1.77914e-45
-3.74563e-45
-1.98589e-46
-3.82385e-46
-2.04694e-47
-3.60965e-47
-1.94975e-48
-3.15113e-48
-1.71608e-49
-2.54439e-49
-1.39577e-50
-1.9007e-50
-1.04997e-51
-1.3138e-51
-7.31507e-53
-8.40352e-53
-4.72256e-54
-4.97419e-54
-2.82354e-55
-2.7247e-55
-1.56219e-56
-1.3812e-56
-7.9956e-58
-6.47946e-58
-3.78563e-59
-2.81302e-59
-1.65819e-60
-1.1302e-60
-6.72023e-62
-4.20216e-62
-2.52005e-63
-1.4458e-63
-8.74398e-65
-4.6029e-65
-2.80712e-66
-1.35583e-66
-8.33733e-68
-3.69472e-68
-2.29066e-69
-9.31342e-70
-5.82108e-71
-2.17134e-71
-1.368e-72
-4.6814e-73
-2.97266e-74
-9.33213e-75
-5.97182e-76
-1.71977e-76
-1.10891e-77
-2.92934e-78
-1.90299e-79
-4.61104e-80
-3.01748e-81
-6.70619e-82
-4.4202e-83
-9.00988e-84
-5.98069e-85
-1.118e-85
-7.47293e-87
-1.28102e-87
-8.6214e-89
-1.35512e-89
-9.18178e-91
-1.32316e-91
-9.0251e-93
-1.19226e-93
-8.18585e-95
-9.91191e-96
-6.8497e-97
-7.60117e-98
-5.28669e-99
-5.37582e-100
-3.76277e-101
-3.50552e-102
-2.46915e-103
-2.10721e-104
-1.49351e-105
-1.16738e-106
-8.32517e-108
-5.9589e-109
-4.27567e-110
-2.802e-111
-2.02275e-112
-1.21344e-113
-8.8127e-115
-4.8385e-116
-3.53509e-117
-1.776e-118
-1.30531e-119
-5.99943e-121
-4.43555e-122
-1.86468e-123
-1.38674e-124
-5.33106e-126
-3.98791e-127
-1.40162e-128
-1.05461e-129
-3.388e-131
-2.56404e-132
-7.52721e-134
-5.72965e-135
-1.5367e-136
-1.17649e-137
-2.88196e-139
-2.21914e-140
-4.96376e-142
-3.84416e-143
-7.84939e-145
-6.11384e-146
-1.1393e-147
-8.92483e-149
-1.51736e-150
-1.19545e-151
-1.85378e-153
-1.46886e-154
-2.07691e-156
-1.65507e-157
-2.1332e-159
-1.70965e-160
-2.00801e-162
-1.6185e-163
-1.73173e-165
-1.40378e-166
-1.36784e-168
-1.11513e-169
-9.89214e-172
-8.1106e-173
-6.54786e-175
-5.39923e-176
-3.96567e-178
-3.28866e-179
-2.19682e-181
-1.83217e-182
-1.11271e-184
-9.33301e-186
-5.15142e-188
-4.34545e-189
-2.1791e-191
-1.84863e-192
-8.4193e-195
-7.18313e-196
-2.97007e-198
-2.5484e-199
-9.56296e-202
-8.25186e-203
-2.80926e-205
-2.43785e-206
-7.52672e-209
-6.56858e-210
-1.83853e-212
-1.61355e-213
-4.09283e-216
-3.61221e-217
-8.30047e-220
-7.36684e-221
-1.533e-223
-1.36817e-224
-2.57737e-227
-2.31304e-228
-3.94314e-231
-3.5583e-232
-5.4875e-235
-4.97912e-236
-6.94397e-239
-6.33499e-240
-7.98692e-243
-7.3258e-244
-8.34689e-247
-7.69687e-248
-7.92288e-251
-7.34443e-252
-6.82801e-255
-6.36243e-256
-5.34071e-259
-5.00203e-260
-3.79004e-263
-3.56754e-264
-2.43935e-267
-2.30745e-268
-1.42345e-271
-1.35295e-272
-7.52841e-276
-7.18902e-277
-3.60759e-280
-3.46057e-281
-1.56585e-284
-1.50861e-285
-6.1542e-289
-5.95414e-290
-2.18959e-293
-2.12691e-294
-7.05032e-298
-6.87458e-299
-2.05401e-302
-2.01001e-303
-5.41316e-307
-5.31496e-308
-1.29022e-311
-1.27076e-312
-2.78078e-316
-2.74664e-317
-5.4199e-321
-5.38532e-322
0
0
0
0
0
0
0
0
0
0
0
0
0
0
0
0
0
0
0
0
0
0
0
0
0
0
0
0
0
0
0
0
0
0
0
0
0
0
0
0
0
0
0
0
0
0
0
0
0
0
0
0
0
0
0
0
0
0
0
0
0
0
0
0
0
0
0
0
0
0
0
0
0
0
0
0
0
0
0
0
0
0
0
0
0
0
0
0
0
0
0
0
0
-3.84514e-34
-3.61736e-35
-1.30642e-34
-1.22694e-35
-4.42822e-35
-4.18916e-36
-1.40957e-35
-1.35529e-36
-4.13755e-36
-4.03903e-37
-1.11594e-36
-1.10017e-37
-2.76706e-37
-2.7308e-38
-6.31523e-38
-6.23146e-39
-1.32759e-38
-1.31931e-39
-2.57286e-39
-2.55617e-40
-4.60237e-40
-4.53036e-41
-7.60261e-41
-7.51992e-42
-1.15993e-41
-1.16151e-42
-1.63437e-42
-1.66466e-43
-2.12666e-43
-2.20186e-44
-2.55568e-44
-2.68277e-45
-2.83701e-45
-3.01083e-46
-2.90988e-46
-3.11798e-47
-2.75844e-47
-2.98242e-48
-2.41739e-48
-2.63518e-49
-1.95911e-49
-2.15122e-50
-1.46868e-50
-1.62401e-51
-1.0187e-51
-1.13536e-52
-6.53813e-53
-7.35477e-54
-3.88302e-54
-4.41205e-55
-2.13402e-55
-2.44914e-56
-1.08529e-56
-1.25759e-57
-5.10746e-58
-5.97317e-59
-2.22423e-59
-2.62448e-60
-8.96315e-61
-1.06682e-61
-3.34219e-62
-4.01209e-63
-1.1531e-63
-1.39596e-64
-3.68075e-65
-4.49334e-66
-1.08692e-66
-1.33791e-67
-2.96897e-68
-3.6846e-69
-7.50075e-70
-9.38437e-71
-1.75242e-71
-2.21006e-72
-3.78565e-73
-4.81192e-74
-7.56045e-75
-9.68461e-76
-1.39569e-76
-1.80145e-77
-2.38116e-78
-3.09645e-79
-3.75383e-80
-4.91733e-81
-5.46721e-82
-7.21343e-83
-7.355e-84
-9.77296e-85
-9.13783e-86
-1.22265e-86
-1.04824e-87
-1.41219e-88
-1.11007e-89
-1.50561e-90
-1.08498e-91
-1.48141e-92
-9.78553e-94
-1.3449e-94
-8.14221e-96
-1.12634e-96
-6.24886e-98
-8.69998e-99
-4.42245e-100
-6.19641e-101
-2.88555e-102
-4.06854e-103
-1.73539e-104
-2.46214e-105
-9.61761e-107
-1.37298e-107
-4.91058e-109
-7.05324e-110
-2.30935e-111
-3.3372e-112
-1.00007e-113
-1.45392e-114
-3.987e-116
-5.83116e-117
-1.46295e-118
-2.15238e-119
-4.93928e-121
-7.31007e-122
-1.53406e-123
-2.28377e-124
-4.38174e-126
-6.56144e-127
-1.1507e-128
-1.73319e-129
-2.77764e-131
-4.20804e-132
-6.16119e-134
-9.3882e-135
-1.25548e-136
-1.92413e-137
-2.3496e-139
-3.62173e-140
-4.03728e-142
-6.25901e-143
-6.36756e-145
-9.92841e-146
-9.21554e-148
-1.44515e-148
-1.2235e-150
-1.92965e-151
-1.48969e-153
-2.36292e-154
-1.66288e-156
-2.65274e-157
-1.70127e-159
-2.72949e-160
-1.59476e-162
-2.57324e-163
-1.36929e-165
-2.22204e-166
-1.07655e-168
-1.75697e-169
-7.74767e-172
-1.27167e-172
-5.10235e-175
-8.42261e-176
-3.07389e-178
-5.10313e-179
-1.69349e-181
-2.8275e-182
-8.52917e-185
-1.43218e-185
-3.92569e-188
-6.62944e-189
-1.65067e-191
-2.80344e-192
-6.3386e-195
-1.08266e-195
-2.22209e-198
-3.81702e-199
-7.10906e-202
-1.22812e-202
-2.07488e-205
-3.60479e-206
-5.52267e-209
-9.64919e-210
-1.34006e-212
-2.35459e-213
-2.96318e-216
-5.23593e-217
-5.96893e-220
-1.06064e-220
-1.09491e-223
-1.95648e-224
-1.82829e-227
-3.28515e-228
-2.77801e-231
-5.01934e-232
-3.83961e-235
-6.97567e-236
-4.82551e-239
-8.81477e-240
-5.51243e-243
-1.01241e-243
-5.72171e-247
-1.05649e-247
-5.39428e-251
-1.00131e-251
-4.61752e-255
-8.61612e-256
-3.58753e-259
-6.72869e-260
-2.52895e-263
-4.76726e-264
-1.61694e-267
-3.06316e-268
-9.37356e-272
-1.78436e-272
-4.92528e-276
-9.42009e-277
-2.34495e-280
-4.5055e-281
-1.01129e-284
-1.95167e-285
-3.94939e-289
-7.65434e-290
-1.39628e-293
-2.71719e-294
-4.46774e-298
-8.72806e-299
-1.2935e-302
-2.53624e-303
-3.38776e-307
-6.66544e-308
-8.02478e-312
-1.58395e-312
-1.71888e-316
-3.40281e-317
-3.33e-321
-6.62048e-322
0
0
0
0
0
0
0
0
0
0
0
0
0
0
0
0
0
0
0
0
0
0
0
0
0
0
0
0
0
0
0
0
0
0
0
0
0
0
0
0
0
0
0
0
0
0
0
0
0
0
0
0
0
0
0
0
0
0
0
0
0
0
0
0
0
0
0
0
0
0
0
0
0
0
0
0
0
0
0
0
0
0
0
0
0
0
0
0
0
0
0
0
0
-1.7262e-34
-2.43738e-35
-6.99516e-35
-9.86037e-36
-2.57757e-35
-3.6599e-36
-8.60498e-36
-1.24181e-36
-2.60813e-36
-3.82134e-37
-7.19933e-37
-1.06525e-37
-1.81546e-37
-2.68899e-38
-4.1934e-38
-6.21005e-39
-8.88873e-39
-1.32571e-39
-1.73208e-39
-2.5826e-40
-3.1089e-40
-4.5927e-41
-5.14593e-41
-7.6389e-42
-7.86032e-42
-1.18127e-42
-1.10833e-42
-1.69418e-43
-1.44289e-43
-2.24202e-44
-1.73479e-44
-2.73294e-45
-1.92683e-45
-3.0688e-46
-1.97773e-46
-3.18025e-47
-1.87653e-47
-3.04477e-48
-1.64643e-48
-2.69338e-49
-1.33618e-49
-2.2018e-50
-1.00334e-50
-1.66494e-51
-6.97251e-52
-1.16617e-52
-4.4846e-53
-7.57049e-54
-2.66971e-54
-4.55216e-55
-1.47099e-55
-2.5334e-56
-7.50158e-57
-1.30445e-57
-3.54072e-58
-6.21397e-59
-1.54674e-59
-2.73877e-60
-6.25338e-61
-1.11692e-61
-2.33971e-62
-4.21477e-63
-8.10084e-64
-1.47165e-64
-2.59525e-65
-4.75426e-66
-7.69246e-67
-1.4209e-67
-2.10928e-68
-3.92815e-69
-5.34969e-70
-1.00438e-70
-1.25482e-71
-2.37473e-72
-2.72163e-73
-5.19125e-74
-5.4575e-75
-1.04904e-75
-1.01158e-76
-1.9593e-77
-1.73291e-78
-3.38154e-79
-2.74303e-80
-5.39199e-81
-4.0113e-82
-7.9419e-83
-5.41818e-84
-1.08034e-84
-6.75843e-86
-1.35696e-86
-7.78347e-88
-1.5735e-88
-8.27452e-90
-1.68409e-90
-8.11821e-92
-1.66331e-92
-7.34902e-94
-1.51564e-94
-6.13694e-96
-1.27391e-96
-4.72637e-98
-9.8743e-99
-3.35627e-100
-7.0566e-101
-2.19703e-102
-4.64844e-103
-1.32545e-104
-2.82188e-105
-7.36764e-107
-1.57829e-107
-3.7725e-109
-8.13107e-110
-1.77893e-111
-3.85757e-112
-7.72336e-114
-1.68492e-114
-3.08648e-116
-6.77386e-117
-1.13506e-118
-2.50597e-119
-3.84029e-121
-8.52879e-122
-1.19504e-123
-2.66969e-124
-3.4195e-126
-7.68392e-127
-8.99475e-129
-2.03302e-129
-2.17443e-131
-4.94333e-132
-4.82963e-134
-1.10434e-134
-9.85319e-137
-2.26606e-137
-1.84592e-139
-4.26982e-140
-3.17471e-142
-7.38576e-143
-5.01099e-145
-1.17248e-145
-7.25688e-148
-1.70774e-148
-9.63955e-151
-2.28146e-151
-1.17413e-153
-2.79482e-154
-1.311e-156
-3.13848e-157
-1.34147e-159
-3.22982e-160
-1.25755e-162
-3.04507e-163
-1.07968e-165
-2.62934e-166
-8.48713e-169
-2.07868e-169
-6.10637e-172
-1.50414e-172
-4.01999e-175
-9.95874e-176
-2.42072e-178
-6.03116e-179
-1.33291e-181
-3.3399e-182
-6.70888e-185
-1.69067e-185
-3.08565e-188
-7.82043e-189
-1.29642e-191
-3.30448e-192
-4.97387e-195
-1.27505e-195
-1.74199e-198
-4.49107e-199
-5.56733e-202
-1.44352e-202
-1.6231e-205
-4.2324e-206
-4.31504e-209
-1.1316e-209
-1.04571e-212
-2.75789e-213
-2.30922e-216
-6.12471e-217
-4.64506e-220
-1.23896e-220
-8.50802e-224
-2.28209e-224
-1.41846e-227
-3.82604e-228
-2.15176e-231
-5.83638e-232
-2.96894e-235
-8.09755e-236
-3.72458e-239
-1.02144e-239
-4.24677e-243
-1.17102e-243
-4.39933e-247
-1.21965e-247
-4.13904e-251
-1.15364e-251
-3.53539e-255
-9.90604e-256
-2.74059e-259
-7.7191e-260
-1.92736e-263
-5.45643e-264
-1.22925e-267
-3.49759e-268
-7.10761e-272
-2.03231e-272
-3.72449e-276
-1.07009e-276
-1.76818e-280
-5.10399e-281
-7.6026e-285
-2.20452e-285
-2.95965e-289
-8.61974e-290
-1.04287e-293
-3.0501e-294
-3.32518e-298
-9.76442e-299
-9.59127e-303
-2.8273e-303
-2.50211e-307
-7.40245e-308
-5.90214e-312
-1.7521e-312
-1.25862e-316
-3.74818e-317
-2.42586e-321
-7.26276e-322
0
0
0
0
0
0
0
0
0
0
0
0
0
0
0
0
0
0
0
0
0
0
0
0
0
0
0
0
0
0
0
0
0
0
0
0
0
0
0
0
0
0
0
0
0
0
0
0
0
0
0
0
0
0
0
0
0
0
0
0
0
0
0
0
0
0
0
0
0
0
0
0
0
0
0
0
0
0
0
0
0
0
0
0
0
0
0
0
0
0
0
0
0
-2.11419e-34
-3.98171e-35
-9.16873e-35
-1.72388e-35
-3.46373e-35
-6.56015e-36
-1.15436e-35
-2.22206e-36
-3.42832e-36
-6.69989e-37
-9.14923e-37
-1.80563e-37
-2.20986e-37
-4.3656e-38
-4.85948e-38
-9.59815e-39
-9.77347e-39
-1.94411e-39
-1.80548e-39
-3.59035e-40
-3.07574e-40
-6.05981e-41
-4.84454e-41
-9.59122e-42
-7.06804e-42
-1.41666e-42
-9.56247e-43
-1.94949e-43
-1.20048e-43
-2.48779e-44
-1.399e-44
-2.93934e-45
-1.51372e-45
-3.21526e-46
-1.52071e-46
-3.26123e-47
-1.4183e-47
-3.06906e-48
-1.2278e-48
-2.67866e-49
-9.86359e-50
-2.16761e-50
-7.35186e-51
-1.62695e-51
-5.08276e-52
-1.13371e-52
-3.25838e-53
-7.33551e-54
-1.9362e-54
-4.40284e-55
-1.06613e-55
-2.44868e-56
-5.43824e-57
-1.26113e-57
-2.56919e-58
-6.01308e-59
-1.12393e-59
-2.65399e-60
-4.55206e-61
-1.08426e-61
-1.70661e-62
-4.09985e-63
-5.92179e-64
-1.43466e-64
-1.90149e-65
-4.64533e-66
-5.64921e-67
-1.39156e-67
-1.55263e-68
-3.85602e-69
-3.94694e-70
-9.88204e-71
-9.27888e-72
-2.34178e-72
-2.01696e-73
-5.13048e-74
-4.05313e-75
-1.03898e-75
-7.52827e-77
-1.94451e-77
-1.29221e-78
-3.3627e-79
-2.04937e-80
-5.37225e-81
-3.00246e-82
-7.92744e-83
-4.06271e-84
-1.08029e-84
-5.07634e-86
-1.35922e-86
-5.85589e-88
-1.57871e-88
-6.23521e-90
-1.69235e-90
-6.1268e-92
-1.67403e-92
-5.5545e-94
-1.52767e-94
-4.64504e-96
-1.28587e-96
-3.58236e-98
-9.98081e-99
-2.54732e-100
-7.14235e-101
-1.66968e-102
-4.7111e-103
-1.00859e-104
-2.86358e-105
-5.61334e-107
-1.60362e-107
-2.87774e-109
-8.27163e-110
-1.35863e-111
-3.92896e-112
-5.9055e-114
-1.71812e-114
-2.36273e-116
-6.9153e-117
-8.69887e-119
-2.5612e-119
-2.9464e-121
-8.72653e-122
-9.17887e-124
-2.73461e-124
-2.62931e-126
-7.87936e-127
-6.92365e-129
-2.08698e-129
-1.67554e-131
-5.07996e-132
-3.72547e-134
-1.13607e-134
-7.60848e-137
-2.33362e-137
-1.42687e-139
-4.4017e-140
-2.45653e-142
-7.62176e-143
-3.88138e-145
-1.21119e-145
-5.62669e-148
-1.76591e-148
-7.48164e-151
-2.36157e-151
-9.122e-154
-2.89587e-154
-1.01954e-156
-3.2552e-157
-1.04426e-159
-3.35324e-160
-9.79881e-163
-3.16453e-163
-8.42094e-166
-2.73513e-166
-6.62578e-169
-2.16439e-169
-4.7716e-172
-1.56763e-172
-3.14414e-175
-1.03888e-175
-1.89501e-178
-6.29732e-179
-1.04436e-181
-3.4904e-182
-5.26101e-185
-1.76839e-185
-2.42173e-188
-8.18686e-189
-1.01829e-191
-3.46214e-192
-3.90978e-195
-1.33693e-195
-1.37032e-198
-4.71261e-199
-4.38252e-202
-1.51581e-202
-1.27851e-205
-4.44737e-206
-3.40099e-209
-1.18982e-209
-8.2465e-213
-2.90147e-213
-1.82196e-216
-6.44697e-217
-3.66649e-220
-1.30476e-220
-6.71805e-224
-2.40425e-224
-1.12035e-227
-4.03217e-228
-1.6999e-231
-6.15239e-232
-2.34574e-235
-8.53743e-236
-2.94282e-239
-1.07702e-239
-3.35514e-243
-1.2347e-243
-3.47498e-247
-1.28582e-247
-3.26835e-251
-1.21593e-251
-2.79044e-255
-1.04372e-255
-2.16184e-259
-8.12893e-260
-1.51921e-263
-5.74245e-264
-9.68057e-268
-3.67799e-268
-5.59129e-272
-2.13507e-272
-2.92617e-276
-1.12291e-276
-1.38711e-280
-5.34874e-281
-5.95388e-285
-2.30665e-285
-2.31326e-289
-9.00297e-290
-8.13296e-294
-3.17924e-294
-2.58666e-298
-1.01545e-298
-7.43996e-303
-2.93263e-303
-1.93475e-307
-7.65595e-308
-4.54769e-312
-1.80622e-312
-9.65969e-317
-3.85002e-317
-1.85275e-321
-7.41098e-322
0
0
0
0
0
0
0
0
0
0
0
0
0
0
0
0
0
0
0
0
0
0
0
0
0
0
0
0
0
0
0
0
0
0
0
0
0
0
0
0
0
0
0
0
0
0
0
0
0
0
0
0
0
0
0
0
0
0
0
0
0
0
0
0
0
0
0
0
0
0
0
0
0
0
0
0
0
0
0
0
0
0
0
0
0
0
0
0
0
0
0
0
0
-2.15894e-34
-5.08341e-35
-9.85663e-35
-2.31701e-35
-3.77533e-35
-8.94002e-36
-1.25149e-35
-3.01204e-36
-3.65977e-36
-8.94224e-37
-9.56272e-37
-2.3595e-37
-2.25405e-37
-5.56702e-38
-4.82879e-38
-1.19237e-38
-9.456e-39
-2.35156e-39
-1.70151e-39
-4.23e-40
-2.8269e-40
-6.96267e-41
-4.35114e-41
-1.07694e-41
-6.21958e-42
-1.55848e-42
-8.26852e-43
-2.10743e-43
-1.02321e-43
-2.65091e-44
-1.17904e-44
-3.09692e-45
-1.26513e-45
-3.35946e-46
-1.26375e-46
-3.38811e-47
-1.17463e-47
-3.17756e-48
-1.01529e-48
-2.76909e-49
-8.15608e-50
-2.24069e-50
-6.08588e-51
-1.68366e-51
-4.21566e-52
-1.1755e-52
-2.70928e-53
-7.62494e-54
-1.61452e-54
-4.58963e-55
-8.91703e-56
-2.56033e-56
-4.5626e-57
-1.32271e-57
-2.16211e-58
-6.32602e-59
-9.4863e-60
-2.80034e-60
-3.85278e-61
-1.14724e-61
-1.44818e-62
-4.34919e-63
-5.03695e-64
-1.52551e-64
-1.62081e-65
-4.95002e-66
-4.82444e-67
-1.48564e-67
-1.32814e-68
-4.12351e-69
-3.38105e-70
-1.05825e-70
-7.95799e-72
-2.51076e-72
-1.73152e-73
-5.50605e-74
-3.48219e-75
-1.11589e-75
-6.47154e-77
-2.08966e-77
-1.11126e-78
-3.61515e-79
-1.76282e-80
-5.77691e-81
-2.58286e-82
-8.52532e-83
-3.49478e-84
-1.16171e-84
-4.366e-86
-1.46143e-86
-5.03511e-88
-1.69697e-88
-5.35934e-90
-1.81847e-90
-5.26386e-92
-1.798e-92
-4.76978e-94
-1.63999e-94
-3.9866e-96
-1.37964e-96
-3.07272e-98
-1.07023e-98
-2.18356e-100
-7.65388e-101
-1.43032e-102
-5.04525e-103
-8.63424e-105
-3.06466e-105
-4.80221e-107
-1.71507e-107
-2.46026e-109
-8.84065e-110
-1.16076e-111
-4.19646e-112
-5.04214e-114
-1.83391e-114
-2.01603e-116
-7.37668e-117
-7.41786e-119
-2.73041e-119
-2.51102e-121
-9.2976e-122
-7.81812e-124
-2.91193e-124
-2.23832e-126
-8.38582e-127
-5.89108e-129
-2.22e-129
-1.42497e-131
-5.40122e-132
-3.16695e-134
-1.20738e-134
-6.46514e-137
-2.47909e-137
-1.21199e-139
-4.67433e-140
-2.08585e-142
-8.09104e-143
-3.29463e-145
-1.28536e-145
-4.77468e-148
-1.87351e-148
-6.34704e-151
-2.5048e-151
-7.73674e-154
-3.07079e-154
-8.64521e-157
-3.45108e-157
-8.85303e-160
-3.55433e-160
-8.30565e-163
-3.35372e-163
-7.1365e-166
-2.89818e-166
-5.61423e-169
-2.29306e-169
-4.04249e-172
-1.66059e-172
-2.6633e-175
-1.10033e-175
-1.60495e-178
-6.66889e-179
-8.84361e-182
-3.69582e-182
-4.45427e-185
-1.87219e-185
-2.05e-188
-8.666e-189
-8.6181e-192
-3.66412e-192
-3.30824e-195
-1.41465e-195
-1.1592e-198
-4.98544e-199
-3.70627e-202
-1.60316e-202
-1.08088e-205
-4.7023e-206
-2.87422e-209
-1.25761e-209
-6.96634e-213
-3.06563e-213
-1.5384e-216
-6.80879e-217
-3.0942e-220
-1.37731e-220
-5.66604e-224
-2.53654e-224
-9.44269e-228
-4.25138e-228
-1.43163e-231
-6.48228e-232
-1.97386e-235
-8.98809e-236
-2.47391e-239
-1.13286e-239
-2.8175e-243
-1.29744e-243
-2.91467e-247
-1.34967e-247
-2.73772e-251
-1.27474e-251
-2.33397e-255
-1.09271e-255
-1.80527e-259
-8.49765e-260
-1.26637e-263
-5.99293e-264
-8.05348e-268
-3.83138e-268
-4.64141e-272
-2.21962e-272
-2.42324e-276
-1.16478e-276
-1.14569e-280
-5.53464e-281
-4.90345e-285
-2.38042e-285
-1.89911e-289
-9.26362e-290
-6.65375e-294
-3.26075e-294
-2.10816e-298
-1.03781e-298
-6.03845e-303
-2.98565e-303
-1.56314e-307
-7.76146e-308
-3.6559e-312
-1.82266e-312
-7.72312e-317
-3.86543e-317
-1.47232e-321
-7.41098e-322
0
0
0
0
0
0
0
0
0
0
0
0
0
0
0
0
0
0
0
0
0
0
0
0
0
0
0
0
0
0
0
0
0
0
0
0
0
0
0
0
0
0
0
0
0
0
0
0
0
0
0
0
0
0
0
0
0
0
0
0
0
0
0
0
0
0
0
0
0
0
0
0
0
0
0
0
0
0
0
0
0
0
0
0
0
0
0
0
0
0
0
0
0
-1.56751e-34
-4.42924e-35
-7.71146e-35
-2.17549e-35
-3.08201e-35
-8.75902e-36
-1.04832e-35
-3.02808e-36
-3.1104e-36
-9.12101e-37
-8.18612e-37
-2.42404e-37
-1.93528e-37
-5.73608e-38
-4.14979e-38
-1.22973e-38
-8.13022e-39
-2.42638e-39
-1.46431e-39
-4.36856e-40
-2.43759e-40
-7.20474e-41
-3.76438e-41
-1.11811e-41
-5.40627e-42
-1.62573e-42
-7.23014e-43
-2.2115e-43
-9.00919e-44
-2.80112e-44
-1.04602e-44
-3.29726e-45
-1.13133e-45
-3.60521e-46
-1.13918e-46
-3.66516e-47
-1.06718e-47
-3.46447e-48
-9.29396e-49
-3.04194e-49
-7.51932e-50
-2.47904e-50
-5.64804e-51
-1.87514e-51
-3.93638e-52
-1.31722e-52
-2.54402e-53
-8.5923e-54
-1.52382e-54
-5.19847e-55
-8.45544e-56
-2.91353e-56
-4.34482e-57
-1.51159e-57
-2.06686e-58
-7.25727e-59
-9.10028e-60
-3.22386e-60
-3.70779e-61
-1.32496e-61
-1.39771e-62
-5.03745e-63
-4.87409e-64
-1.77154e-64
-1.57209e-65
-5.76184e-66
-4.68924e-67
-1.73293e-67
-1.29332e-68
-4.8188e-69
-3.29775e-70
-1.2387e-70
-7.77274e-72
-2.94298e-72
-1.69319e-73
-6.46144e-74
-3.40831e-75
-1.31075e-75
-6.33879e-77
-2.45634e-77
-1.08901e-78
-4.25162e-79
-1.72799e-80
-6.79585e-81
-2.53197e-82
-1.00296e-82
-3.42534e-84
-1.36646e-84
-4.2776e-86
-1.71835e-86
-4.93021e-88
-1.99411e-88
-5.24345e-90
-2.13516e-90
-5.1448e-92
-2.10899e-92
-4.65624e-94
-1.92131e-94
-3.88622e-96
-1.61404e-96
-2.99059e-98
-1.25007e-98
-2.12144e-100
-8.92423e-101
-1.38694e-102
-5.87126e-103
-8.35487e-105
-3.55897e-105
-4.63644e-107
-1.98726e-107
-2.36971e-109
-1.02194e-109
-1.11524e-111
-4.83885e-112
-4.83183e-114
-2.10914e-114
-1.92672e-116
-8.46089e-117
-7.06947e-119
-3.123e-119
-2.38623e-121
-1.0604e-121
-7.40784e-124
-3.31138e-124
-2.11453e-126
-9.50779e-127
-5.54847e-129
-2.50944e-129
-1.33801e-131
-6.0868e-132
-2.96452e-134
-1.35646e-134
-6.03325e-137
-2.77663e-137
-1.12754e-139
-5.21922e-140
-1.93453e-142
-9.00646e-143
-3.04624e-145
-1.42641e-145
-4.40126e-148
-2.07279e-148
-5.83298e-151
-2.76289e-151
-7.08888e-154
-3.3771e-154
-7.8979e-157
-3.78417e-157
-8.06421e-160
-3.88609e-160
-7.54391e-163
-3.65628e-163
-6.4637e-166
-3.15077e-166
-5.07084e-169
-2.48604e-169
-3.64128e-172
-1.79547e-172
-2.39256e-175
-1.18654e-175
-1.43801e-178
-7.17264e-179
-7.90332e-182
-3.96484e-182
-3.9706e-185
-2.00342e-185
-1.82285e-188
-9.25063e-189
-7.64445e-192
-3.90185e-192
-2.92742e-195
-1.50285e-195
-1.02333e-198
-5.28387e-199
-3.26418e-202
-1.6952e-202
-9.49742e-206
-4.96091e-206
-2.51969e-209
-1.32377e-209
-6.09308e-213
-3.21967e-213
-1.34248e-216
-7.13493e-217
-2.69397e-220
-1.44006e-220
-4.92182e-224
-2.64616e-224
-8.18341e-228
-4.42512e-228
-1.2378e-231
-6.73184e-232
-1.70254e-235
-9.31258e-236
-2.12867e-239
-1.171e-239
-2.41827e-243
-1.3379e-243
-2.49524e-247
-1.38832e-247
-2.33753e-251
-1.30791e-251
-1.98731e-255
-1.11818e-255
-1.53272e-259
-8.67192e-260
-1.07194e-263
-6.09833e-264
-6.79549e-268
-3.88706e-268
-3.90335e-272
-2.24477e-272
-2.03072e-276
-1.17405e-276
-9.56514e-281
-5.559e-281
-4.07749e-285
-2.38193e-285
-1.5725e-289
-9.23246e-290
-5.48434e-294
-3.23591e-294
-1.72916e-298
-1.02519e-298
-4.92685e-303
-2.93488e-303
-1.26817e-307
-7.58919e-308
-2.94788e-312
-1.77206e-312
-6.18623e-317
-3.73502e-317
-1.17094e-321
-7.11455e-322
0
0
0
0
0
0
0
0
0
0
0
0
0
0
0
0
0
0
0
0
0
0
0
0
0
0
0
0
0
0
0
0
0
0
0
0
0
0
0
0
0
0
0
0
0
0
0
0
0
0
0
0
0
0
0
0
0
0
0
0
0
0
0
0
0
0
0
0
0
0
0
0
0
0
0
0
0
0
0
0
0
0
0
0
0
0
0
0
0
0
0
0
0
-8.53502e-35
-2.81358e-35
-5.00008e-35
-1.64569e-35
-2.1909e-35
-7.26466e-36
-7.85052e-36
-2.64575e-36
-2.40365e-36
-8.2238e-37
-6.45528e-37
-2.23019e-37
-1.54805e-37
-5.35315e-38
-3.35827e-38
-1.16105e-38
-6.65233e-39
-2.31625e-39
-1.21197e-39
-4.21836e-40
-2.04278e-40
-7.04405e-41
-3.19748e-41
-1.10804e-41
-4.65788e-42
-1.63418e-42
-6.32026e-43
-2.2555e-43
-7.98861e-44
-2.89791e-44
-9.40219e-45
-3.45785e-45
-1.02978e-45
-3.82868e-46
-1.04879e-46
-3.93689e-47
-9.92483e-48
-3.75913e-48
-8.72027e-49
-3.32999e-49
-7.10954e-50
-2.73469e-50
-5.37574e-51
-2.08226e-51
-3.76805e-52
-1.4711e-52
-2.44726e-53
-9.64354e-54
-1.47214e-54
-5.85949e-55
-8.19919e-56
-3.29627e-56
-4.22695e-57
-1.71577e-57
-2.01662e-58
-8.26145e-59
-8.90193e-60
-3.6794e-60
-3.63531e-61
-1.51566e-61
-1.3732e-62
-5.7743e-63
-4.79735e-64
-2.03438e-64
-1.54983e-65
-6.6274e-66
-4.62935e-67
-1.99605e-67
-1.27833e-68
-5.55715e-69
-3.26276e-70
-1.42992e-70
-7.69625e-72
-3.39993e-72
-1.67746e-73
-7.46889e-74
-3.37778e-75
-1.51563e-75
-6.28264e-77
-2.84056e-77
-1.07922e-78
-4.916e-79
-1.7118e-80
-7.85483e-81
-2.50667e-82
-1.15852e-82
-3.38815e-84
-1.57703e-84
-4.22641e-86
-1.98092e-86
-4.86454e-88
-2.29568e-88
-5.16527e-90
-2.45411e-90
-5.05873e-92
-2.41955e-92
-4.56883e-94
-2.19966e-94
-3.80451e-96
-1.84363e-96
-2.92036e-98
-1.42431e-98
-2.06601e-100
-1.01406e-100
-1.34679e-102
-6.65224e-103
-8.08813e-105
-4.02001e-105
-4.47393e-107
-2.23746e-107
-2.27893e-109
-1.14673e-109
-1.06877e-111
-5.41074e-112
-4.61374e-114
-2.3499e-114
-1.83292e-116
-9.39172e-117
-6.69979e-119
-3.45344e-119
-2.25272e-121
-1.16808e-121
-6.96598e-124
-3.63336e-124
-1.98055e-126
-1.03911e-126
-5.17624e-129
-2.73169e-129
-1.24327e-131
-6.59953e-132
-2.74365e-134
-1.46488e-134
-5.56159e-137
-2.98668e-137
-1.03529e-139
-5.59198e-140
-1.76933e-142
-9.61211e-143
-2.77537e-145
-1.51647e-145
-3.99466e-148
-2.1953e-148
-5.27431e-151
-2.91528e-151
-6.3864e-154
-3.55034e-154
-7.08967e-157
-3.96403e-157
-7.21351e-160
-4.05653e-160
-6.72494e-163
-3.8036e-163
-5.74272e-166
-3.2668e-166
-4.49054e-169
-2.56924e-169
-3.21436e-172
-1.8497e-172
-2.10553e-175
-1.21864e-175
-1.26171e-178
-7.34478e-179
-6.91421e-182
-4.04827e-182
-3.46386e-185
-2.03985e-185
-1.58586e-188
-9.39326e-189
-6.63282e-192
-3.95155e-192
-2.53342e-195
-1.51809e-195
-8.83356e-199
-5.32411e-199
-2.81074e-202
-1.70395e-202
-8.15831e-206
-4.97466e-206
-2.15928e-209
-1.32434e-209
-5.20933e-213
-3.21368e-213
-1.14511e-216
-7.10558e-217
-2.29265e-220
-1.43093e-220
-4.17904e-224
-2.62355e-224
-6.93253e-228
-4.37757e-228
-1.04618e-231
-6.64468e-232
-1.43564e-235
-9.17137e-236
-1.79071e-239
-1.15062e-239
-2.02942e-243
-1.31156e-243
-2.08881e-247
-1.35776e-247
-1.95177e-251
-1.27599e-251
-1.65492e-255
-1.08812e-255
-1.27281e-259
-8.41653e-260
-8.87574e-264
-5.90238e-264
-5.60941e-268
-3.75125e-268
-3.21158e-272
-2.1597e-272
-1.66506e-276
-1.1259e-276
-7.81394e-281
-5.3126e-281
-3.31787e-285
-2.26797e-285
-1.27415e-289
-8.75607e-290
-4.42362e-294
-3.05595e-294
-1.3879e-298
-9.63769e-299
-3.93359e-303
-2.74547e-303
-1.00671e-307
-7.0617e-308
-2.32557e-312
-1.6394e-312
-4.84738e-317
-3.43383e-317
-9.09081e-322
-6.47226e-322
0
0
0
0
0
0
0
0
0
0
0
0
0
0
0
0
0
0
0
0
0
0
0
0
0
0
0
0
0
0
0
0
0
0
0
0
0
0
0
0
0
0
0
0
0
0
0
0
0
0
0
0
0
0
0
0
0
0
0
0
0
0
0
0
0
0
0
0
0
0
0
0
0
0
0
0
0
0
0
0
0
0
0
0
0
0
0
0
0
0
0
0
0
-4.36044e-35
-1.64262e-35
-2.9245e-35
-1.10001e-35
-1.39977e-35
-5.30452e-36
-5.32378e-36
-2.05058e-36
-1.70162e-36
-6.65375e-37
-4.72712e-37
-1.86646e-37
-1.16702e-37
-4.61198e-38
-2.60044e-38
-1.02747e-38
-5.2864e-39
-2.10359e-39
-9.88e-40
-3.92999e-40
-1.70756e-40
-6.72905e-41
-2.73841e-41
-1.08452e-41
-4.08152e-42
-1.63657e-42
-5.65552e-43
-2.30668e-43
-7.28272e-44
-3.01937e-44
-8.71001e-45
-3.66104e-45
-9.6686e-46
-4.10843e-46
-9.95525e-47
-4.27094e-47
-9.50242e-48
-4.11344e-48
-8.40443e-49
-3.66799e-49
-6.88547e-50
-3.02697e-50
-5.22409e-51
-2.31269e-51
-3.66985e-52
-1.63751e-52
-2.38643e-53
-1.07478e-53
-1.4362e-54
-6.53344e-55
-7.99777e-56
-3.67483e-56
-4.12046e-57
-1.91159e-57
-1.96381e-58
-9.19493e-59
-8.65738e-60
-4.08976e-60
-3.52997e-61
-1.68209e-61
-1.33111e-62
-6.39733e-63
-4.64159e-64
-2.24967e-64
-1.49653e-65
-7.31417e-66
-4.46078e-67
-2.1983e-67
-1.2291e-68
-6.1069e-69
-3.13003e-70
-1.56783e-70
-7.3659e-72
-3.71915e-72
-1.60159e-73
-8.15043e-74
-3.21697e-75
-1.64981e-75
-5.96816e-77
-3.08411e-77
-1.02248e-78
-5.32337e-79
-1.61737e-80
-8.48249e-81
-2.36171e-82
-1.24757e-82
-3.18294e-84
-1.69331e-84
-3.95855e-86
-2.12063e-86
-4.54221e-88
-2.45002e-88
-4.80775e-90
-2.61083e-90
-4.69331e-92
-2.56572e-92
-4.22472e-94
-2.32481e-94
-3.50602e-96
-1.94191e-96
-2.68192e-98
-1.49505e-98
-1.89065e-100
-1.06068e-100
-1.22807e-102
-6.93321e-103
-7.34847e-105
-4.17466e-105
-4.04994e-107
-2.31505e-107
-2.05537e-109
-1.18214e-109
-9.60365e-112
-5.55723e-112
-4.13043e-114
-2.4046e-114
-1.63485e-116
-9.57486e-117
-5.95378e-119
-3.50783e-119
-1.99456e-121
-1.18214e-121
-6.14532e-124
-3.66379e-124
-1.74096e-126
-1.04407e-126
-4.534e-129
-2.73504e-129
-1.08523e-131
-6.58473e-132
-2.38674e-134
-1.45663e-134
-4.82201e-137
-2.96e-137
-8.94706e-140
-5.52407e-140
-1.52423e-142
-9.46546e-143
-2.38358e-145
-1.48877e-145
-3.42055e-148
-2.14882e-148
-4.50333e-151
-2.84539e-151
-5.43776e-154
-3.45566e-154
-6.02048e-157
-3.84809e-157
-6.10996e-160
-3.92786e-160
-5.68215e-163
-3.67395e-163
-4.84082e-166
-3.14808e-166
-3.77678e-169
-2.47034e-169
-2.69763e-172
-1.77471e-172
-1.76343e-175
-1.16685e-175
-1.05464e-178
-7.01899e-179
-5.76859e-182
-3.86154e-182
-2.88475e-185
-1.94232e-185
-1.31845e-188
-8.929e-189
-5.50532e-192
-3.75016e-192
-2.09944e-195
-1.43848e-195
-7.30912e-199
-5.03737e-199
-2.32223e-202
-1.60984e-202
-6.73062e-206
-4.6933e-206
-1.77888e-209
-1.24772e-209
-4.28559e-213
-3.02366e-213
-9.40745e-217
-6.67648e-217
-1.88085e-220
-1.34272e-220
-3.4236e-224
-2.45851e-224
-5.67122e-228
-4.09661e-228
-8.54582e-232
-6.20956e-232
-1.17093e-235
-8.55851e-236
-1.45824e-239
-1.07214e-239
-1.64988e-243
-1.2202e-243
-1.69521e-247
-1.26111e-247
-1.58106e-251
-1.1831e-251
-1.33795e-255
-1.00706e-255
-1.02684e-259
-7.77414e-260
-7.14423e-264
-5.44035e-264
-4.50402e-268
-3.44972e-268
-2.57186e-272
-1.98121e-272
-1.32955e-276
-1.03009e-276
-6.21988e-281
-4.84643e-281
-2.632e-285
-2.06244e-285
-1.007e-289
-7.93521e-290
-3.48191e-294
-2.75908e-294
-1.08759e-298
-8.66579e-299
-3.06747e-303
-2.45756e-303
-7.80863e-308
-6.29016e-308
-1.79334e-312
-1.45245e-312
-3.71408e-317
-3.02436e-317
-6.91692e-322
-5.68175e-322
0
0
0
0
0
0
0
0
0
0
0
0
0
0
0
0
0
0
0
0
0
0
0
0
0
0
0
0
0
0
0
0
0
0
0
0
0
0
0
0
0
0
0
0
0
0
0
0
0
0
0
0
0
0
0
0
0
0
0
0
0
0
0
0
0
0
0
0
0
0
0
0
0
0
0
0
0
0
0
0
0
0
0
0
0
0
0
0
0
0
0
0
0
-1.5811e-35
-6.69976e-36
-1.47431e-35
-6.23803e-36
-8.10419e-36
-3.45496e-36
-3.35639e-36
-1.4544e-36
-1.14467e-36
-5.03545e-37
-3.35826e-37
-1.49171e-37
-8.69984e-38
-3.86779e-38
-2.02499e-38
-9.00094e-39
-4.28428e-39
-1.9179e-39
-8.30471e-40
-3.71621e-40
-1.48345e-40
-6.57637e-41
-2.44957e-41
-1.09139e-41
-3.7443e-42
-1.68906e-42
-5.29911e-43
-2.43157e-43
-6.94176e-44
-3.23789e-44
-8.41416e-45
-3.97893e-45
-9.43397e-46
-4.50999e-46
-9.78179e-47
-4.72126e-47
-9.37803e-48
-4.56722e-48
-8.31278e-49
-4.08166e-49
-6.81303e-50
-3.36965e-50
-5.16339e-51
-2.57166e-51
-3.61878e-52
-1.81666e-52
-2.34546e-53
-1.18843e-53
-1.40581e-54
-7.19502e-55
-7.79205e-56
-4.0281e-56
-3.99396e-57
-2.08465e-57
-1.89316e-58
-9.97282e-59
-8.29857e-60
-4.4106e-60
-3.36396e-61
-1.80349e-61
-1.26101e-62
-6.81852e-63
-4.37107e-64
-2.38355e-64
-1.40096e-65
-7.70359e-66
-4.1514e-67
-2.30175e-67
-1.13722e-68
-6.35725e-69
-2.87955e-70
-1.6228e-70
-6.73858e-72
-3.82804e-72
-1.45717e-73
-8.3432e-74
-2.91125e-75
-1.67981e-75
-5.3728e-77
-3.12381e-77
-9.15793e-79
-5.36445e-79
-1.44142e-80
-8.50553e-81
-2.0946e-82
-1.2449e-82
-2.80961e-84
-1.68172e-84
-3.47814e-86
-2.0964e-86
-3.97301e-88
-2.41114e-88
-4.18681e-90
-2.55812e-90
-4.06962e-92
-2.50315e-92
-3.64796e-94
-2.25862e-94
-3.015e-96
-1.87891e-96
-2.29711e-98
-1.44078e-98
-1.61306e-100
-1.0182e-100
-1.04379e-102
-6.63029e-103
-6.22267e-105
-3.97751e-105
-3.41714e-107
-2.19779e-107
-1.72816e-109
-1.11834e-109
-8.04733e-112
-5.23948e-112
-3.4497e-114
-2.25967e-114
-1.36107e-116
-8.9692e-117
-4.94154e-119
-3.27588e-119
-1.65057e-121
-1.10072e-121
-5.07107e-124
-3.40181e-124
-1.43273e-126
-9.66789e-127
-3.72164e-129
-2.52607e-129
-8.88596e-132
-6.0667e-132
-1.94973e-134
-1.33891e-134
-3.93041e-137
-2.71481e-137
-7.27761e-140
-5.05602e-140
-1.23741e-142
-8.64669e-143
-1.93153e-145
-1.35753e-145
-2.76716e-148
-1.9561e-148
-3.63741e-151
-2.58617e-151
-4.38583e-154
-3.13636e-154
-4.8494e-157
-3.48794e-157
-4.91552e-160
-3.55598e-160
-4.56631e-163
-3.3225e-163
-3.88633e-166
-2.84414e-166
-3.02937e-169
-2.22986e-169
-2.16203e-172
-1.60068e-172
-1.41229e-175
-1.05169e-175
-8.4409e-179
-6.32233e-179
-4.6143e-182
-3.47634e-182
-2.30632e-185
-1.74771e-185
-1.0536e-188
-8.03084e-189
-4.39755e-192
-3.37162e-192
-1.67635e-195
-1.29282e-195
-5.83404e-199
-4.5258e-199
-1.85293e-202
-1.44591e-202
-5.36861e-206
-4.2141e-206
-1.41842e-209
-1.11999e-209
-3.41596e-213
-2.71327e-213
-7.4956e-217
-5.98913e-217