/*--------------------------------*- C++ -*----------------------------------*\
| =========                 |                                                 |
| \\      /  F ield         | OpenFOAM: The Open Source CFD Toolbox           |
|  \\    /   O peration     | Version:  v1912                                 |
|   \\  /    A nd           | Website:  www.openfoam.com                      |
|    \\/     M anipulation  |                                                 |
\*---------------------------------------------------------------------------*/
FoamFile
{
    version     2.0;
    format      ascii;
    class       volScalarField;
    location    "90";
    object      alpha.water;
}
// * * * * * * * * * * * * * * * * * * * * * * * * * * * * * * * * * * * * * //

dimensions      [0 0 0 0 0 0 0];


internalField   nonuniform List<scalar> 
14268
(
-1.54081e-30
-5.61973e-31
-1.90457e-31
-5.94432e-32
-1.71113e-32
-4.55636e-33
-1.12485e-33
-2.57843e-34
-5.49087e-35
-1.08593e-35
-1.99387e-36
-3.39848e-37
-5.37409e-38
-7.87785e-39
-1.06961e-39
-1.34422e-40
-1.56306e-41
-1.68141e-42
-1.67324e-43
-1.5405e-44
-1.31234e-45
-1.03467e-46
-7.55127e-48
-5.10234e-49
-3.19212e-50
-1.84909e-51
-9.91759e-53
-4.92515e-54
-2.26463e-55
-9.64122e-57
-3.80025e-58
-1.38681e-59
-4.68507e-61
-1.46512e-62
-4.24072e-64
-1.13596e-65
-2.81567e-67
-6.45699e-69
-1.36974e-70
-2.68738e-72
-4.87558e-74
-8.178e-76
-1.26797e-77
-1.81688e-79
-2.40553e-81
-2.94222e-83
-3.32376e-85
-3.46722e-87
-3.33917e-89
-2.9683e-91
-2.43496e-93
-1.84288e-95
-1.28655e-97
-8.28288e-100
-4.91657e-102
-2.69011e-104
-1.35645e-106
-6.30172e-109
-2.69672e-111
-1.06274e-113
-3.85593e-116
-1.28776e-118
-3.9576e-121
-1.11896e-123
-2.90981e-126
-6.95783e-129
-1.52941e-131
-3.08955e-134
-5.73417e-137
-9.7752e-140
-1.53016e-142
-2.19877e-145
-2.89949e-148
-3.50781e-151
-3.89214e-154
-3.95953e-157
-3.69202e-160
-3.15436e-163
-2.46857e-166
-1.76897e-169
-1.16036e-172
-6.96488e-176
-3.82415e-179
-1.92002e-182
-8.81201e-186
-3.6956e-189
-1.41573e-192
-4.95231e-196
-1.58126e-199
-4.60689e-203
-1.22423e-206
-2.9662e-210
-6.55031e-214
-1.3179e-217
-2.41488e-221
-4.02844e-225
-6.11565e-229
-8.4459e-233
-1.06068e-236
-1.21085e-240
-1.25603e-244
-1.18347e-248
-1.01251e-252
-7.86255e-257
-5.53987e-261
-3.5404e-265
-2.05152e-269
-1.07751e-273
-5.12806e-278
-2.21073e-282
-8.63055e-287
-3.0503e-291
-9.75741e-296
-2.82429e-300
-7.39553e-305
-1.75158e-309
-3.75158e-314
-7.26232e-319
0
0
0
0
0
0
0
0
0
0
0
0
0
0
0
0
0
0
0
0
0
0
0
0
0
0
0
0
0
0
0
0
0
0
0
0
0
0
0
0
0
0
0
0
0
0
-7.38192e-31
-2.62417e-31
-9.31454e-32
-3.10778e-32
-9.56908e-33
-2.70856e-33
-7.04862e-34
-1.68834e-34
-3.72619e-35
-7.58131e-36
-1.42313e-36
-2.46751e-37
-3.95377e-38
-5.85561e-39
-8.01506e-40
-1.0139e-40
-1.18542e-41
-1.2812e-42
-1.28036e-43
-1.18338e-44
-1.01184e-45
-8.00595e-47
-5.86327e-48
-3.97532e-49
-2.49542e-50
-1.45032e-51
-7.8041e-53
-3.88793e-54
-1.79326e-55
-7.65741e-57
-3.02705e-58
-1.10772e-59
-3.75215e-61
-1.17633e-62
-3.41296e-64
-9.16284e-66
-2.27597e-67
-5.22969e-69
-1.11145e-70
-2.18441e-72
-3.96951e-74
-6.66834e-76
-1.03537e-77
-1.48556e-79
-1.96932e-81
-2.4115e-83
-2.72718e-85
-2.84777e-87
-2.74517e-89
-2.44237e-91
-2.00509e-93
-1.51859e-95
-1.06079e-97
-6.83281e-100
-4.0574e-102
-2.2206e-104
-1.11985e-106
-5.20248e-109
-2.22593e-111
-8.76912e-114
-3.18002e-116
-1.06126e-118
-3.25849e-121
-9.20238e-124
-2.38977e-126
-5.70513e-129
-1.25173e-131
-2.5233e-134
-4.67217e-137
-7.94396e-140
-1.23993e-142
-1.77614e-145
-2.33423e-148
-2.81364e-151
-3.10972e-154
-3.15043e-157
-2.92468e-160
-2.48721e-163
-1.93701e-166
-1.38103e-169
-9.01113e-173
-5.37924e-176
-2.93687e-179
-1.46597e-182
-6.68794e-186
-2.78767e-189
-1.06125e-192
-3.68873e-196
-1.1702e-199
-3.38697e-203
-8.94088e-207
-2.15183e-210
-4.71993e-214
-9.43203e-218
-1.71655e-221
-2.84401e-225
-4.28811e-229
-5.88169e-233
-7.33631e-237
-8.31825e-241
-8.57048e-245
-8.02119e-249
-6.8167e-253
-5.25843e-257
-3.6807e-261
-2.33693e-265
-1.34541e-269
-7.02119e-274
-3.32029e-278
-1.42238e-282
-5.51823e-287
-1.93823e-291
-6.16195e-296
-1.77267e-300
-4.61357e-305
-1.08606e-309
-2.31207e-314
-4.44674e-319
0
0
0
0
0
0
0
0
0
0
0
0
0
0
0
0
0
0
0
0
0
0
0
0
0
0
0
0
0
0
0
0
0
0
0
0
0
0
0
0
0
0
0
0
0
0
-3.31269e-31
-1.40557e-31
-5.42523e-32
-1.89864e-32
-6.03684e-33
-1.74887e-33
-4.62862e-34
-1.12209e-34
-2.49711e-35
-5.10854e-36
-9.62217e-37
-1.67173e-37
-2.68183e-38
-3.97468e-39
-5.44324e-40
-6.88894e-41
-8.05876e-42
-8.7161e-43
-8.71844e-44
-8.06743e-45
-6.90765e-46
-5.47453e-47
-4.01694e-48
-2.72931e-49
-1.7173e-50
-1.00064e-51
-5.39933e-53
-2.69782e-54
-1.24821e-55
-5.34739e-57
-2.12107e-58
-7.78926e-60
-2.64805e-61
-8.33298e-63
-2.42696e-64
-6.54118e-66
-1.63122e-67
-3.76326e-69
-8.03038e-71
-1.58471e-72
-2.8915e-74
-4.87725e-76
-7.60357e-78
-1.09538e-79
-1.45788e-81
-1.79226e-83
-2.03473e-85
-2.13277e-87
-2.06356e-89
-1.84257e-91
-1.51798e-93
-1.15356e-95
-8.08432e-98
-5.22362e-100
-3.11113e-102
-1.70757e-104
-8.63457e-107
-4.02161e-109
-1.72482e-111
-6.81028e-114
-2.47485e-116
-8.27529e-119
-2.5454e-121
-7.2003e-124
-1.87263e-126
-4.47655e-129
-9.83347e-132
-1.98437e-134
-3.67764e-137
-6.25787e-140
-9.77394e-143
-1.40079e-145
-1.84168e-148
-2.22055e-151
-2.45462e-154
-2.48688e-157
-2.30856e-160
-1.96294e-163
-1.52833e-166
-1.08926e-169
-7.10421e-173
-4.23863e-176
-2.3127e-179
-1.1536e-182
-5.25873e-186
-2.19005e-189
-8.32957e-193
-2.89226e-196
-9.16527e-200
-2.64967e-203
-6.98592e-207
-1.67912e-210
-3.67798e-214
-7.33916e-218
-1.33363e-221
-2.20604e-225
-3.32062e-229
-4.54666e-233
-5.6607e-237
-6.40606e-241
-6.58708e-245
-6.152e-249
-5.21675e-253
-4.01501e-257
-2.80363e-261
-1.7756e-265
-1.01956e-269
-5.30604e-274
-2.50195e-278
-1.06856e-282
-4.13229e-287
-1.44654e-291
-4.58244e-296
-1.31333e-300
-3.4045e-305
-7.98065e-310
-1.69137e-314
-3.23737e-319
0
0
0
0
0
0
0
0
0
0
0
0
0
0
0
0
0
0
0
0
0
0
0
0
0
0
0
0
0
0
0
0
0
0
0
0
0
0
0
0
0
0
0
0
0
0
-4.05781e-31
-1.84303e-31
-7.29423e-32
-2.54859e-32
-7.94076e-33
-2.22421e-33
-5.63868e-34
-1.3014e-34
-2.74802e-35
-5.32966e-36
-9.52787e-37
-1.57519e-37
-2.4136e-38
-3.4322e-39
-4.53249e-40
-5.56e-41
-6.33596e-42
-6.70708e-43
-6.59437e-44
-6.02051e-45
-5.10275e-46
-4.01411e-47
-2.93019e-48
-1.98433e-49
-1.24627e-50
-7.25697e-52
-3.91666e-53
-1.95878e-54
-9.07553e-56
-3.89491e-57
-1.54807e-58
-5.69744e-60
-1.94133e-61
-6.12323e-63
-1.78753e-64
-4.82888e-66
-1.20694e-67
-2.79056e-69
-5.96747e-71
-1.18005e-72
-2.15744e-74
-3.64606e-76
-5.69466e-78
-8.21835e-80
-1.09568e-81
-1.34921e-83
-1.53418e-85
-1.61057e-87
-1.56061e-89
-1.39548e-91
-1.15125e-93
-8.76052e-96
-6.14758e-98
-3.9773e-100
-2.3718e-102
-1.30337e-104
-6.59858e-107
-3.07695e-109
-1.32119e-111
-5.22252e-114
-1.89999e-116
-6.36012e-119
-1.95845e-121
-5.54594e-124
-1.44391e-126
-3.45536e-129
-7.59824e-132
-1.53491e-134
-2.8476e-137
-4.85045e-140
-7.58347e-143
-1.08796e-145
-1.43182e-148
-1.7281e-151
-1.91215e-154
-1.93918e-157
-1.80187e-160
-1.53358e-163
-1.19516e-166
-8.52597e-170
-5.56575e-173
-3.32369e-176
-1.81507e-179
-9.06137e-183
-4.13405e-186
-1.72302e-189
-6.55826e-193
-2.27885e-196
-7.22631e-200
-2.09044e-203
-5.51469e-207
-1.3262e-210
-2.90629e-214
-5.80164e-218
-1.05459e-221
-1.7449e-225
-2.62695e-229
-3.59716e-233
-4.47847e-237
-5.06754e-241
-5.2095e-245
-4.86364e-249
-4.12221e-253
-3.17059e-257
-2.21221e-261
-1.3997e-265
-8.02792e-270
-4.17234e-274
-1.96433e-278
-8.37448e-283
-3.23199e-287
-1.12879e-291
-3.5666e-296
-1.01922e-300
-2.63355e-305
-6.15114e-310
-1.29841e-314
-2.473e-319
0
0
0
0
0
0
0
0
0
0
0
0
0
0
0
0
0
0
0
0
0
0
0
0
0
0
0
0
0
0
0
0
0
0
0
0
0
0
0
0
0
0
0
0
0
0
-4.14514e-31
-1.98227e-31
-7.95501e-32
-2.76479e-32
-8.48243e-33
-2.32629e-33
-5.75532e-34
-1.29406e-34
-2.66054e-35
-5.02605e-36
-8.76264e-37
-1.41565e-37
-2.12516e-38
-2.96952e-39
-3.8654e-40
-4.6884e-41
-5.29824e-42
-5.5766e-43
-5.46407e-44
-4.98083e-45
-4.22134e-46
-3.32437e-47
-2.43137e-48
-1.65064e-49
-1.03965e-50
-6.07225e-52
-3.2874e-53
-1.6491e-54
-7.66325e-56
-3.29797e-57
-1.3142e-58
-4.84815e-60
-1.65547e-61
-5.23146e-63
-1.52973e-64
-4.1383e-66
-1.03556e-67
-2.39666e-69
-5.12908e-71
-1.01485e-72
-1.85615e-74
-3.13762e-76
-4.90098e-78
-7.07263e-80
-9.42782e-82
-1.16062e-83
-1.31926e-85
-1.38435e-87
-1.34074e-89
-1.19822e-91
-9.87925e-94
-7.513e-96
-5.26873e-98
-3.40646e-100
-2.03003e-102
-1.11482e-104
-5.64027e-107
-2.62838e-109
-1.12787e-111
-4.45563e-114
-1.62003e-116
-5.41995e-119
-1.66806e-121
-4.72124e-124
-1.22862e-126
-2.93886e-129
-6.45983e-132
-1.30445e-134
-2.41921e-137
-4.11945e-140
-6.43873e-143
-9.23488e-146
-1.21508e-148
-1.46619e-151
-1.62204e-154
-1.64468e-157
-1.52798e-160
-1.30027e-163
-1.01319e-166
-7.22684e-170
-4.71702e-173
-2.81646e-176
-1.53784e-179
-7.67615e-183
-3.50146e-186
-1.45908e-189
-5.55239e-193
-1.92884e-196
-6.11468e-200
-1.76828e-203
-4.66308e-207
-1.12092e-210
-2.45523e-214
-4.89852e-218
-8.8987e-222
-1.47133e-225
-2.21333e-229
-3.0281e-233
-3.76626e-237
-4.25694e-241
-4.37083e-245
-4.07511e-249
-3.44869e-253
-2.64814e-257
-1.8443e-261
-1.16456e-265
-6.66444e-270
-3.45525e-274
-1.62237e-278
-6.89631e-283
-2.65295e-287
-9.23292e-292
-2.90605e-296
-8.26955e-301
-2.12688e-305
-4.94266e-310
-1.03756e-314
-1.96307e-319
0
0
0
0
0
0
0
0
0
0
0
0
0
0
0
0
0
0
0
0
0
0
0
0
0
0
0
0
0
0
0
0
0
0
0
0
0
0
0
0
0
0
0
0
0
0
-3.01021e-31
-1.5515e-31
-6.49703e-32
-2.31704e-32
-7.21259e-33
-1.99238e-33
-4.94379e-34
-1.11262e-34
-2.28856e-35
-4.32729e-36
-7.55901e-37
-1.22523e-37
-1.84795e-38
-2.59754e-39
-3.40461e-40
-4.16086e-41
-4.73945e-42
-5.02849e-43
-4.96582e-44
-4.56086e-45
-3.89298e-46
-3.08616e-47
-2.271e-48
-1.55044e-49
-9.81555e-51
-5.75973e-52
-3.13147e-53
-1.57696e-54
-7.35375e-56
-3.17487e-57
-1.2688e-58
-4.69292e-60
-1.60623e-61
-5.08653e-63
-1.49011e-64
-4.03769e-66
-1.0118e-67
-2.3444e-69
-5.02199e-71
-9.94375e-73
-1.81962e-74
-3.07672e-76
-4.80613e-78
-6.93461e-80
-9.24033e-82
-1.13686e-83
-1.29122e-85
-1.35355e-87
-1.30933e-89
-1.1685e-91
-9.61897e-94
-7.30217e-96
-5.111e-98
-3.29759e-100
-1.96077e-102
-1.07423e-104
-5.42144e-107
-2.51984e-109
-1.07838e-111
-4.24825e-114
-1.54022e-116
-5.13786e-119
-1.57654e-121
-4.44876e-124
-1.15419e-126
-2.75235e-129
-6.03127e-132
-1.21416e-134
-2.24484e-137
-3.81085e-140
-5.9383e-143
-8.49149e-146
-1.11394e-148
-1.3402e-151
-1.47836e-154
-1.49472e-157
-1.38476e-160
-1.17514e-163
-9.13207e-167
-6.4964e-170
-4.22921e-173
-2.51874e-176
-1.37183e-179
-6.83063e-183
-3.10825e-186
-1.29214e-189
-4.90562e-193
-1.70022e-196
-5.37763e-200
-1.55162e-203
-4.08254e-207
-9.79173e-211
-2.13997e-214
-4.25997e-218
-7.72126e-222
-1.27374e-225
-1.91168e-229
-2.60926e-233
-3.23753e-237
-3.6503e-241
-3.73842e-245
-3.4763e-249
-2.93386e-253
-2.24637e-257
-1.55979e-261
-9.81802e-266
-5.59987e-270
-2.89307e-274
-1.35331e-278
-5.72963e-283
-2.19473e-287
-7.6033e-292
-2.38138e-296
-6.74077e-301
-1.72382e-305
-3.98137e-310
-8.30206e-315
-1.55813e-319
0
0
0
0
0
0
0
0
0
0
0
0
0
0
0
0
0
0
0
0
0
0
0
0
0
0
0
0
0
0
0
0
0
0
0
0
0
0
0
0
0
0
0
0
0
0
-1.63928e-31
-1.00613e-31
-4.61963e-32
-1.73567e-32
-5.57563e-33
-1.57167e-33
-3.95597e-34
-9.00714e-35
-1.87318e-35
-3.58271e-36
-6.33659e-37
-1.04101e-37
-1.59257e-38
-2.27123e-39
-3.01969e-40
-3.74093e-41
-4.31509e-42
-4.63068e-43
-4.61943e-44
-4.28044e-45
-3.68179e-46
-2.93815e-47
-2.17447e-48
-1.49188e-49
-9.4853e-51
-5.58673e-52
-3.04738e-53
-1.53906e-54
-7.19555e-56
-3.11371e-57
-1.24692e-58
-4.6204e-60
-1.58396e-61
-5.02307e-63
-1.47329e-64
-3.99607e-66
-1.00215e-67
-2.32336e-69
-4.97858e-71
-9.85883e-73
-1.80384e-74
-3.04889e-76
-4.75969e-78
-6.86163e-80
-9.13286e-82
-1.12211e-83
-1.27241e-85
-1.33139e-87
-1.28522e-89
-1.14436e-91
-9.3966e-94
-7.11408e-96
-4.96497e-98
-3.19356e-100
-1.89279e-102
-1.0335e-104
-5.19764e-107
-2.4071e-109
-1.02632e-111
-4.02782e-114
-1.45467e-116
-4.83353e-119
-1.4773e-121
-4.15219e-124
-1.07296e-126
-2.54849e-129
-5.56242e-132
-1.11537e-134
-2.05417e-137
-3.47374e-140
-5.39247e-143
-7.68223e-146
-1.00409e-148
-1.20371e-151
-1.32315e-154
-1.33321e-157
-1.23102e-160
-1.04129e-163
-8.06639e-167
-5.72072e-170
-3.71316e-173
-2.20502e-176
-1.1976e-179
-5.9469e-183
-2.69897e-186
-1.11912e-189
-4.23812e-193
-1.4653e-196
-4.62356e-200
-1.33094e-203
-3.49387e-207
-8.36091e-211
-1.82318e-214
-3.62129e-218
-6.54908e-222
-1.07797e-225
-1.61423e-229
-2.19825e-233
-2.72122e-237
-3.06088e-241
-3.1271e-245
-2.90047e-249
-2.44142e-253
-1.86416e-257
-1.29065e-261
-8.09904e-266
-4.60444e-270
-2.37059e-274
-1.10482e-278
-4.65916e-283
-1.77714e-287
-6.12857e-292
-1.91006e-296
-5.37793e-301
-1.36739e-305
-3.13843e-310
-6.49995e-315
-1.21041e-319
0
0
0
0
0
0
0
0
0
0
0
0
0
0
0
0
0
0
0
0
0
0
0
0
0
0
0
0
0
0
0
0
0
0
0
0
0
0
0
0
0
0
0
0
0
0
-8.37711e-32
-5.88605e-32
-2.95216e-32
-1.17733e-32
-3.94819e-33
-1.15122e-33
-2.983e-34
-6.97621e-35
-1.48888e-35
-2.92122e-36
-5.29773e-37
-8.91705e-38
-1.39575e-38
-2.03272e-39
-2.75338e-40
-3.4662e-41
-4.05228e-42
-4.39645e-43
-4.42382e-44
-4.12639e-45
-3.56663e-46
-2.85599e-47
-2.11835e-48
-1.45518e-49
-9.25629e-51
-5.45101e-52
-2.97145e-53
-1.49919e-54
-6.99991e-56
-3.02438e-57
-1.20905e-58
-4.47173e-60
-1.52995e-61
-4.84166e-63
-1.41699e-64
-3.8347e-66
-9.59439e-68
-2.21897e-69
-4.74308e-71
-9.36838e-73
-1.70956e-74
-2.88165e-76
-4.48595e-78
-6.44824e-80
-8.55698e-82
-1.04812e-83
-1.18476e-85
-1.23565e-87
-1.18885e-89
-1.05496e-91
-8.63258e-94
-6.51266e-96
-4.52901e-98
-2.90262e-100
-1.71408e-102
-9.32483e-105
-4.6723e-107
-2.15581e-109
-9.15781e-112
-3.58081e-114
-1.2885e-116
-4.26591e-119
-1.29915e-121
-3.6386e-124
-9.36987e-127
-2.21796e-129
-4.82494e-132
-9.64358e-135
-1.77045e-137
-2.9848e-140
-4.61974e-143
-6.56256e-146
-8.55383e-149
-1.02272e-151
-1.12133e-154
-1.1271e-157
-1.03827e-160
-8.76287e-164
-6.77372e-167
-4.79418e-170
-3.10572e-173
-1.84088e-176
-9.98059e-180
-4.94766e-183
-2.24183e-186
-9.28124e-190
-3.50955e-193
-1.21165e-196
-3.8178e-200
-1.09748e-203
-2.87712e-207
-6.8758e-211
-1.49733e-214
-2.97008e-218
-5.36406e-222
-8.81688e-226
-1.31841e-229
-1.79274e-233
-2.21579e-237
-2.48828e-241
-2.53771e-245
-2.34946e-249
-1.97373e-253
-1.50387e-257
-1.03883e-261
-6.50275e-266
-3.68706e-270
-1.89278e-274
-8.79357e-279
-3.6956e-283
-1.40433e-287
-4.82308e-292
-1.49646e-296
-4.19276e-301
-1.06033e-305
-2.41936e-310
-4.97839e-315
-9.19753e-320
0
0
0
0
0
0
0
0
0
0
0
0
0
0
0
0
0
0
0
0
0
0
0
0
0
0
0
0
0
0
0
0
0
0
0
0
0
0
0
0
0
0
0
0
0
0
-3.03683e-32
-2.96727e-32
-1.70939e-32
-7.42359e-33
-2.65633e-33
-8.17968e-34
-2.22405e-34
-5.4331e-35
-1.20678e-35
-2.45572e-36
-4.60292e-37
-7.97742e-38
-1.28059e-38
-1.90489e-39
-2.6249e-40
-3.34907e-41
-3.95473e-42
-4.32076e-43
-4.36691e-44
-4.08237e-45
-3.52999e-46
-2.82355e-47
-2.08944e-48
-1.4306e-49
-9.06301e-51
-5.31235e-52
-2.88109e-53
-1.44569e-54
-6.71187e-56
-2.88305e-57
-1.14575e-58
-4.21245e-60
-1.43271e-61
-4.50733e-63
-1.3115e-64
-3.529e-66
-8.78021e-68
-2.01957e-69
-4.29378e-71
-8.4367e-73
-1.53171e-74
-2.56905e-76
-3.97996e-78
-5.6939e-80
-7.52114e-82
-9.171e-84
-1.03211e-85
-1.07183e-87
-1.02691e-89
-9.0754e-92
-7.39666e-94
-5.55854e-96
-3.85083e-98
-2.45886e-100
-1.44681e-102
-7.84331e-105
-3.91664e-107
-1.80122e-109
-7.62722e-112
-2.9732e-114
-1.06671e-116
-3.52163e-119
-1.06959e-121
-2.98792e-124
-7.67538e-127
-1.81263e-129
-3.93452e-132
-7.84764e-135
-1.43794e-137
-2.41985e-140
-3.73903e-143
-5.30321e-146
-6.90245e-149
-8.24192e-152
-9.02579e-155
-9.06238e-158
-8.33998e-161
-7.0326e-164
-5.43192e-167
-3.8418e-170
-2.4872e-173
-1.47345e-176
-7.98455e-180
-3.95644e-183
-1.79199e-186
-7.41628e-190
-2.80343e-193
-9.67563e-197
-3.0478e-200
-8.7587e-204
-2.29544e-207
-5.48386e-211
-1.19378e-214
-2.367e-218
-4.27294e-222
-7.01979e-226
-1.04907e-229
-1.42553e-233
-1.76057e-237
-1.97534e-241
-2.01256e-245
-1.86114e-249
-1.56148e-253
-1.18802e-257
-8.193e-262
-5.11911e-266
-2.89652e-270
-1.48351e-274
-6.87436e-279
-2.88071e-283
-1.09117e-287
-3.73422e-292
-1.15405e-296
-3.21926e-301
-8.10195e-306
-1.83872e-310
-3.76118e-315
-6.89567e-320
0
0
0
0
0
0
0
0
0
0
0
0
0
0
0
0
0
0
0
0
0
0
0
0
0
0
0
0
0
0
0
0
0
0
0
0
0
0
0
0
0
0
0
0
0
0
9.37432e-40
-1.04495e-32
-8.57866e-33
-4.37528e-33
-1.73787e-33
-5.79291e-34
-1.67947e-34
-4.32788e-35
-1.00544e-35
-2.12449e-36
-4.1083e-37
-7.30329e-38
-1.19624e-38
-1.8072e-39
-2.51888e-40
-3.23931e-41
-3.84397e-42
-4.20982e-43
-4.25597e-44
-3.9728e-45
-3.42521e-46
-2.72848e-47
-2.00884e-48
-1.36737e-49
-8.60649e-51
-5.00977e-52
-2.69717e-53
-1.3432e-54
-6.18794e-56
-2.63728e-57
-1.03989e-58
-3.79354e-60
-1.28031e-61
-3.99745e-63
-1.15454e-64
-3.08425e-66
-7.61992e-68
-1.7408e-69
-3.67687e-71
-7.17898e-73
-1.29546e-74
-2.16014e-76
-3.32776e-78
-4.73533e-80
-6.22289e-82
-7.55077e-84
-8.45787e-86
-8.74411e-88
-8.34196e-90
-7.34231e-92
-5.96105e-94
-4.46326e-96
-3.08131e-98
-1.96103e-100
-1.15031e-102
-6.21782e-105
-3.09647e-107
-1.42041e-109
-6.00048e-112
-2.33397e-114
-8.35697e-117
-2.75393e-119
-8.35044e-122
-2.32928e-124
-5.97568e-127
-1.40962e-129
-3.05677e-132
-6.09196e-135
-1.11551e-137
-1.87628e-140
-2.89806e-143
-4.10944e-146
-5.34808e-149
-6.38594e-152
-6.99408e-155
-7.02392e-158
-6.46597e-161
-5.45444e-164
-4.21487e-167
-2.98254e-170
-1.932e-173
-1.14523e-176
-6.20985e-180
-3.07905e-183
-1.39552e-186
-5.77924e-190
-2.18603e-193
-7.54951e-197
-2.37951e-200
-6.84202e-204
-1.79404e-207
-4.28799e-211
-9.3382e-215
-1.85215e-218
-3.34432e-222
-5.49502e-226
-8.21236e-230
-1.11587e-233
-1.37787e-237
-1.54546e-241
-1.57386e-245
-1.45456e-249
-1.21941e-253
-9.2688e-258
-6.38473e-262
-3.98385e-266
-2.25059e-270
-1.15057e-274
-5.32041e-279
-2.22421e-283
-8.40217e-288
-2.86667e-292
-8.82907e-297
-2.45348e-301
-6.14834e-306
-1.38871e-310
-2.82561e-315
-5.14273e-320
0
0
0
0
0
0
0
0
0
0
0
0
0
0
0
0
0
0
0
0
0
0
0
0
0
0
0
0
0
0
0
0
0
0
0
0
0
0
0
0
0
0
0
0
0
0
1.75848e-22
-5.77948e-43
-3.33262e-33
-2.38365e-33
-1.1065e-33
-4.07808e-34
-1.27102e-34
-3.45786e-35
-8.37174e-36
-1.8255e-36
-3.61509e-37
-6.54137e-38
-1.08532e-38
-1.65442e-39
-2.31943e-40
-2.99256e-41
-3.55524e-42
-3.89131e-43
-3.92602e-44
-3.65305e-45
-3.13636e-46
-2.48592e-47
-1.81993e-48
-1.23114e-49
-7.69788e-51
-4.44987e-52
-2.37856e-53
-1.17584e-54
-5.37664e-56
-2.27435e-57
-8.90081e-59
-3.22292e-60
-1.07976e-61
-3.34701e-63
-9.59878e-65
-2.54666e-66
-6.24995e-68
-1.41866e-69
-2.97789e-71
-5.77966e-73
-1.037e-74
-1.71974e-76
-2.63554e-78
-3.73177e-80
-4.88105e-82
-5.89626e-84
-6.57688e-86
-6.77258e-88
-6.43715e-90
-5.64612e-92
-4.56917e-94
-3.41089e-96
-2.3483e-98
-1.49077e-100
-8.72465e-103
-4.70631e-105
-2.33947e-107
-1.07145e-109
-4.52014e-112
-1.75616e-114
-6.28223e-117
-2.06874e-119
-6.26964e-122
-1.74832e-124
-4.48473e-127
-1.05799e-129
-2.29482e-132
-4.57532e-135
-8.38271e-138
-1.41096e-140
-2.18118e-143
-3.0959e-146
-4.03336e-149
-4.82171e-152
-5.28748e-155
-5.31705e-158
-4.90142e-161
-4.14053e-164
-3.20421e-167
-2.27072e-170
-1.47308e-173
-8.74488e-177
-4.74876e-180
-2.358e-183
-1.07022e-186
-4.43818e-190
-1.68098e-193
-5.81265e-197
-1.83426e-200
-5.28015e-204
-1.38595e-207
-3.31576e-211
-7.22713e-215
-1.43453e-218
-2.59195e-222
-4.2611e-226
-6.37095e-230
-8.6592e-234
-1.06941e-237
-1.19951e-241
-1.2214e-245
-1.1285e-249
-9.45638e-254
-7.18332e-258
-4.94415e-262
-3.08185e-266
-1.73889e-270
-8.87677e-275
-4.09774e-279
-1.70969e-283
-6.44395e-288
-2.19291e-292
-6.73433e-297
-1.86525e-301
-4.65707e-306
-1.04755e-310
-2.12167e-315
-3.83938e-320
0
0
0
0
0
0
0
0
0
0
0
0
0
0
0
0
0
0
0
0
0
0
0
0
0
0
0
0
0
0
0
0
0
0
0
0
0
0
0
0
0
0
0
0
0
0
1.83091e-23
2.96007e-25
1.26483e-44
-1.07533e-33
-6.54781e-34
-2.74925e-34
-9.30133e-35
-2.67327e-35
-6.72026e-36
-1.50382e-36
-3.03114e-37
-5.55047e-38
-9.2812e-39
-1.42158e-39
-1.99799e-40
-2.57974e-41
-3.06274e-42
-3.34621e-43
-3.36685e-44
-3.12187e-45
-2.66933e-46
-2.10601e-47
-1.53408e-48
-1.03224e-49
-6.41826e-51
-3.68876e-52
-1.96009e-53
-9.63149e-55
-4.37743e-56
-1.84045e-57
-7.15913e-59
-2.57673e-60
-8.58162e-62
-2.64464e-63
-7.54131e-65
-1.98969e-66
-4.85673e-68
-1.09666e-69
-2.29041e-71
-4.42382e-73
-7.90054e-75
-1.30441e-76
-1.99061e-78
-2.80734e-80
-3.65811e-82
-4.40339e-84
-4.89553e-86
-5.02586e-88
-4.76357e-90
-4.16756e-92
-3.3649e-94
-2.50679e-96
-1.72279e-98
-1.09201e-100
-6.38292e-103
-3.43968e-105
-1.70857e-107
-7.82121e-110
-3.29874e-112
-1.28162e-114
-4.58576e-117
-1.51079e-119
-4.58175e-122
-1.27876e-124
-3.28374e-127
-7.75631e-130
-1.68474e-132
-3.36418e-135
-6.1741e-138
-1.04109e-140
-1.61246e-143
-2.29321e-146
-2.99375e-149
-3.58643e-152
-3.9413e-155
-3.97191e-158
-3.66938e-161
-3.10646e-164
-2.40914e-167
-1.7109e-170
-1.11222e-173
-6.61601e-177
-3.5998e-180
-1.79088e-183
-8.14313e-187
-3.38283e-190
-1.28339e-193
-4.44479e-197
-1.40468e-200
-4.0491e-204
-1.06417e-207
-2.54888e-211
-5.56144e-215
-1.10493e-218
-1.99805e-222
-3.28703e-226
-4.91737e-230
-6.68647e-234
-8.26033e-238
-9.26686e-242
-9.43622e-246
-8.71743e-250
-7.3029e-254
-5.54508e-258
-3.81428e-262
-2.37571e-266
-1.33916e-270
-6.82823e-275
-3.14773e-279
-1.3112e-283
-4.93284e-288
-1.67511e-292
-5.13179e-297
-1.41752e-301
-3.52836e-306
-7.90939e-311
-1.59578e-315
-2.86311e-320
0
0
0
0
0
0
0
0
0
0
0
0
0
0
0
0
0
0
0
0
0
0
0
0
0
0
0
0
0
0
0
0
0
0
0
0
0
0
0
0
0
0
0
0
0
0
5.30545e-25
1.13303e-25
7.84082e-45
-3.81199e-34
-3.31853e-34
-1.68697e-34
-6.35214e-35
-1.94518e-35
-5.08414e-36
-1.16551e-36
-2.38437e-37
-4.4057e-38
-7.40608e-39
-1.1376e-39
-1.60067e-40
-2.06647e-41
-2.45068e-42
-2.67256e-43
-2.68248e-44
-2.48003e-45
-2.11352e-46
-1.66147e-47
-1.20561e-48
-8.07956e-50
-5.00284e-51
-2.86306e-52
-1.51477e-53
-7.41086e-55
-3.35344e-56
-1.40375e-57
-5.43666e-59
-1.94832e-60
-6.46105e-62
-1.98276e-63
-5.63059e-65
-1.47957e-66
-3.59734e-68
-8.09183e-70
-1.68376e-71
-3.24055e-73
-5.76765e-75
-9.49181e-77
-1.44409e-78
-2.03077e-80
-2.63919e-82
-3.16915e-84
-3.51559e-86
-3.60212e-88
-3.40831e-90
-2.97755e-92
-2.40125e-94
-1.78727e-96
-1.22752e-98
-7.7781e-101
-4.54602e-103
-2.45028e-105
-1.21768e-107
-5.57814e-110
-2.35498e-112
-9.16069e-115
-3.28251e-117
-1.08322e-119
-3.29115e-122
-9.20417e-125
-2.36871e-127
-5.60797e-130
-1.22107e-132
-2.44451e-135
-4.49803e-138
-7.60499e-141
-1.18108e-143
-1.68433e-146
-2.20491e-149
-2.64866e-152
-2.91865e-155
-2.94919e-158
-2.73172e-161
-2.31858e-164
-1.8026e-167
-1.28324e-170
-8.36148e-174
-4.98492e-177
-2.7181e-180
-1.35499e-183
-6.17298e-187
-2.56904e-190
-9.76314e-194
-3.38666e-197
-1.07186e-200
-3.09394e-204
-8.1415e-208
-1.95225e-211
-4.26397e-215
-8.47919e-219
-1.53449e-222
-2.52611e-226
-3.78112e-230
-5.14368e-234
-6.35639e-238
-7.1323e-242
-7.26315e-246
-6.70951e-250
-5.61974e-254
-4.26568e-258
-2.93287e-262
-1.82561e-266
-1.02829e-270
-5.23832e-275
-2.41215e-279
-1.00351e-283
-3.7697e-288
-1.27796e-292
-3.9076e-297
-1.07703e-301
-2.67432e-306
-5.97857e-311
-1.20254e-315
-2.14128e-320
0
0
0
0
0
0
0
0
0
0
0
0
0
0
0
0
0
0
0
0
0
0
0
0
0
0
0
0
0
0
0
0
0
0
0
0
0
0
0
0
0
0
0
0
0
0
2.73977e-29
6.43256e-27
6.45897e-28
-4.75149e-47
-1.17693e-34
-8.95003e-35
-3.98923e-35
-1.32741e-35
-3.62386e-36
-8.50361e-37
-1.7615e-37
-3.27668e-38
-5.52777e-39
-8.50578e-40
-1.19757e-40
-1.5458e-41
-1.83177e-42
-1.99508e-43
-1.99919e-44
-1.8447e-45
-1.56863e-46
-1.2302e-47
-8.90421e-49
-5.95173e-50
-3.67544e-51
-2.09768e-52
-1.10677e-53
-5.39971e-55
-2.43656e-56
-1.01709e-57
-3.92808e-59
-1.40376e-60
-4.64224e-62
-1.42068e-63
-4.02343e-65
-1.05443e-66
-2.55697e-68
-5.73703e-70
-1.19085e-71
-2.28655e-73
-4.06073e-75
-6.66901e-77
-1.01272e-78
-1.42174e-80
-1.84495e-82
-2.21265e-84
-2.45205e-86
-2.51051e-88
-2.37428e-90
-2.07379e-92
-1.67255e-94
-1.24535e-96
-8.55892e-99
-5.42841e-101
-3.1766e-103
-1.71473e-105
-8.53634e-108
-3.91826e-110
-1.65788e-112
-6.46465e-115
-2.32249e-117
-7.68537e-120
-2.34184e-122
-6.56908e-125
-1.69583e-127
-4.02768e-130
-8.79812e-133
-1.76705e-135
-3.26204e-138
-5.53309e-141
-8.6206e-144
-1.23324e-146
-1.61939e-149
-1.95115e-152
-2.15631e-155
-2.18503e-158
-2.0294e-161
-1.72696e-164
-1.34599e-167
-9.60455e-171
-6.2723e-174
-3.74734e-177
-2.04738e-180
-1.02254e-183
-4.66662e-187
-1.9453e-190
-7.40392e-194
-2.57187e-197
-8.15028e-201
-2.35532e-204
-6.20443e-208
-1.48917e-211
-3.25528e-215
-6.47813e-219
-1.17311e-222
-1.93222e-226
-2.89345e-230
-3.93747e-234
-4.86698e-238
-5.46187e-242
-5.56234e-246
-5.13808e-250
-4.30289e-254
-3.26529e-258
-2.24423e-262
-1.3963e-266
-7.86019e-271
-4.00128e-275
-1.84097e-279
-7.6514e-284
-2.87104e-288
-9.72067e-293
-2.96796e-297
-8.16709e-302
-2.02421e-306
-4.51591e-311
-9.06255e-316
-1.60077e-320
0
0
0
0
0
0
0
0
0
0
0
0
0
0
0
0
0
0
0
0
0
0
0
0
0
0
0
0
0
0
0
0
0
0
0
0
0
0
0
0
0
0
0
0
0
0
2.32408e-30
7.20156e-29
2.35305e-29
2.5952e-31
2.2476e-50
-3.48028e-35
-1.90428e-35
-6.64553e-36
-1.84091e-36
-4.3417e-37
-9.01268e-38
-1.67913e-38
-2.83715e-39
-4.37236e-40
-6.16415e-41
-7.96401e-42
-9.44215e-43
-1.02851e-43
-1.03038e-44
-9.50254e-46
-8.07426e-47
-6.32617e-48
-4.5739e-49
-3.05361e-50
-1.88331e-51
-1.0734e-52
-5.65536e-54
-2.75503e-55
-1.24125e-56
-5.17305e-58
-1.99462e-59
-7.11628e-61
-2.34944e-62
-7.17823e-64
-2.02966e-65
-5.31103e-67
-1.28609e-68
-2.8819e-70
-5.97549e-72
-1.14635e-73
-2.03458e-75
-3.34036e-77
-5.07254e-79
-7.12392e-81
-9.25154e-83
-1.11084e-84
-1.23299e-86
-1.26496e-88
-1.19928e-90
-1.05055e-92
-8.50113e-95
-6.35351e-97
-4.38464e-99
-2.79342e-101
-1.64254e-103
-8.91182e-106
-4.46037e-108
-2.05878e-110
-8.7612e-113
-3.43639e-115
-1.24193e-117
-4.13437e-120
-1.26738e-122
-3.5764e-125
-9.28722e-128
-2.21861e-130
-4.87397e-133
-9.84338e-136
-1.8269e-138
-3.11489e-141
-4.87727e-144
-7.0107e-147
-9.24788e-150
-1.11909e-152
-1.24186e-155
-1.26329e-158
-1.17762e-161
-1.00558e-164
-7.86281e-168
-5.62763e-171
-3.68552e-174
-2.20766e-177
-1.2091e-180
-6.05235e-184
-2.76788e-187
-1.15601e-190
-4.40756e-194
-1.5335e-197
-4.86678e-201
-1.4083e-204
-3.71423e-208
-8.9244e-212
-1.95273e-215
-3.88931e-219
-7.04828e-223
-1.16167e-226
-1.74052e-230
-2.3696e-234
-2.93003e-238
-3.28903e-242
-3.35011e-246
-3.09483e-250
-2.59173e-254
-1.96655e-258
-1.35133e-262
-8.40507e-267
-4.72949e-271
-2.40631e-275
-1.10642e-279
-4.59488e-284
-1.72256e-288
-5.82593e-293
-1.7766e-297
-4.88181e-302
-1.20799e-306
-2.68999e-311
-5.38698e-316
-9.50088e-321
0
0
0
0
0
0
0
0
0
0
0
0
0
0
0
0
0
0
0
0
0
0
0
0
0
0
0
0
0
0
0
0
0
0
0
0
0
0
0
0
0
0
0
0
0
0
-4.83841e-50
5.59487e-48
1.54175e-34
3.83843e-33
1.01591e-34
-1.89645e-35
-9.98391e-36
-3.29149e-36
-8.86598e-37
-2.06571e-37
-4.27147e-38
-7.96112e-39
-1.34826e-39
-2.08401e-40
-2.94687e-41
-3.81776e-42
-4.53707e-43
-4.95204e-44
-4.96946e-45
-4.58953e-46
-3.90431e-47
-3.06204e-48
-2.21572e-49
-1.48028e-50
-9.13493e-52
-5.209e-53
-2.74549e-54
-1.33788e-55
-6.02917e-57
-2.51323e-58
-9.69227e-60
-3.45863e-61
-1.14214e-62
-3.49071e-64
-9.87443e-66
-2.58542e-67
-6.26576e-69
-1.40553e-70
-2.9182e-72
-5.60763e-74
-9.97257e-76
-1.64121e-77
-2.49922e-79
-3.52116e-81
-4.58933e-83
-5.53263e-85
-6.16827e-87
-6.35866e-89
-6.05972e-91
-5.33741e-93
-4.34409e-95
-3.26625e-97
-2.26813e-99
-1.45424e-101
-8.60652e-104
-4.70016e-106
-2.36786e-108
-1.10007e-110
-4.71158e-113
-1.85973e-115
-6.76275e-118
-2.26487e-120
-6.98327e-123
-1.98163e-125
-5.17352e-128
-1.24222e-130
-2.74224e-133
-5.56369e-136
-1.03709e-138
-1.77548e-141
-2.79067e-144
-4.02575e-147
-5.32815e-150
-6.46765e-153
-7.19787e-156
-7.34169e-159
-6.86072e-162
-5.87178e-165
-4.60088e-168
-3.29934e-171
-2.16456e-174
-1.29871e-177
-7.12345e-181
-3.57063e-184
-1.63497e-187
-6.83631e-191
-2.60923e-194
-9.08681e-198
-2.88635e-201
-8.3589e-205
-2.20616e-208
-5.30438e-212
-1.16134e-215
-2.31435e-219
-4.1962e-223
-6.91914e-227
-1.03711e-230
-1.41247e-234
-1.7471e-238
-1.96173e-242
-1.99865e-246
-1.84674e-250
-1.5468e-254
-1.17382e-258
-8.06672e-263
-5.01755e-267
-2.82332e-271
-1.43638e-275
-6.60359e-280
-2.7419e-284
-1.02763e-288
-3.47436e-293
-1.05903e-297
-2.90845e-302
-7.1921e-307
-1.60029e-311
-3.20174e-316
-5.54836e-321
0
0
0
0
0
0
0
0
0
0
0
0
0
0
0
0
0
0
0
0
0
0
0
0
0
0
0
0
0
0
0
0
0
0
0
0
0
0
0
0
0
0
0
0
0
0
3.78306e-43
-2.35256e-35
-8.86499e-36
6.32567e-53
-2.2021e-35
-1.27948e-35
-4.88865e-36
-1.50435e-36
-3.96379e-37
-9.18978e-38
-1.90379e-38
-3.56456e-39
-6.06952e-40
-9.43289e-41
-1.34066e-41
-1.74491e-42
-2.08227e-43
-2.28116e-44
-2.29682e-45
-2.12759e-46
-1.81486e-47
-1.42687e-48
-1.03485e-49
-6.92823e-51
-4.28394e-52
-2.4474e-53
-1.29225e-54
-6.30811e-56
-2.84764e-57
-1.18909e-58
-4.59401e-60
-1.64248e-61
-5.43518e-63
-1.66491e-64
-4.72148e-66
-1.23968e-67
-3.01375e-69
-6.78391e-71
-1.41393e-72
-2.72859e-74
-4.87514e-76
-8.06379e-78
-1.23466e-79
-1.74968e-81
-2.29456e-83
-2.78415e-85
-3.125e-87
-3.24393e-89
-3.11349e-91
-2.76225e-93
-2.26459e-95
-1.71515e-97
-1.19966e-99
-7.74677e-102
-4.61684e-104
-2.53854e-106
-1.28733e-108
-6.0188e-111
-2.59357e-113
-1.02968e-115
-3.76505e-118
-1.26753e-120
-3.92743e-123
-1.11964e-125
-2.93577e-128
-7.07762e-131
-1.56831e-133
-3.19305e-136
-5.97129e-139
-1.02535e-141
-1.61612e-144
-2.33736e-147
-3.10087e-150
-3.77227e-153
-4.20665e-156
-4.2987e-159
-4.024e-162
-3.44945e-165
-2.70683e-168
-1.94376e-171
-1.27685e-174
-7.67005e-178
-4.21174e-181
-2.11335e-184
-9.68653e-188
-4.05405e-191
-1.54871e-194
-5.39814e-198
-1.7161e-201
-4.97384e-205
-1.31377e-208
-3.16118e-212
-6.9263e-216
-1.38131e-219
-2.50633e-223
-4.13571e-227
-6.2035e-231
-8.45482e-235
-1.04654e-238
-1.17594e-242
-1.19894e-246
-1.1086e-250
-9.29206e-255
-7.05651e-259
-4.85277e-263
-3.02056e-267
-1.70081e-271
-8.65879e-276
-3.98342e-280
-1.65504e-284
-6.2067e-289
-2.0997e-293
-6.40375e-298
-1.75961e-302
-4.35329e-307
-9.6905e-312
-1.93951e-316
-3.30036e-321
0
0
0
0
0
0
0
0
0
0
0
0
0
0
0
0
0
0
0
0
0
0
0
0
0
0
0
0
0
0
0
0
0
0
0
0
0
0
0
0
0
0
0
0
0
0
6.51677e-42
-1.57691e-35
-2.22504e-35
-2.00967e-35
-1.26694e-35
-5.73437e-36
-2.06517e-36
-6.26513e-37
-1.65451e-37
-3.86679e-38
-8.08602e-39
-1.52818e-39
-2.62493e-40
-4.11233e-41
-5.88726e-42
-7.71271e-43
-9.25826e-44
-1.01968e-44
-1.03168e-45
-9.59942e-47
-8.22221e-48
-6.4892e-49
-4.72332e-50
-3.1731e-51
-1.96852e-52
-1.12824e-53
-5.97629e-55
-2.9267e-56
-1.32553e-57
-5.55388e-59
-2.1534e-60
-7.72832e-62
-2.56785e-63
-7.90049e-65
-2.25114e-66
-5.94098e-68
-1.45228e-69
-3.28847e-71
-6.89735e-73
-1.33998e-74
-2.41103e-76
-4.0174e-78
-6.19811e-80
-8.85248e-82
-1.17022e-83
-1.4314e-85
-1.61968e-87
-1.69491e-89