/*--------------------------------*- C++ -*----------------------------------*\
| =========                 |                                                 |
| \\      /  F ield         | OpenFOAM: The Open Source CFD Toolbox           |
|  \\    /   O peration     | Version:  v1912                                 |
|   \\  /    A nd           | Website:  www.openfoam.com                      |
|    \\/     M anipulation  |                                                 |
\*---------------------------------------------------------------------------*/
FoamFile
{
    version     2.0;
    format      ascii;
    class       volScalarField;
    location    "90";
    object      p_rgh;
}
// * * * * * * * * * * * * * * * * * * * * * * * * * * * * * * * * * * * * * //

dimensions      [1 -1 -2 0 0 0 0];


internalField   nonuniform List<scalar> 
14268
(
0.305
0.296423
0.287713
0.278896
0.270024
0.261181
0.25238
0.243638
0.234933
0.226282
0.217716
0.209208
0.200816
0.192562
0.184454
0.176514
0.168753
0.161184
0.15381
0.146641
0.139681
0.132932
0.126396
0.120072
0.113961
0.108066
0.102391
0.0969361
0.0916992
0.0866783
0.0818698
0.0772699
0.0728741
0.068678
0.0646765
0.0608647
0.0572374
0.0537892
0.0505145
0.0474079
0.0444634
0.0416753
0.0390377
0.0365446
0.0341903
0.0319687
0.0298742
0.027901
0.0260434
0.024296
0.0226534
0.0211104
0.019662
0.0183033
0.0170296
0.0158363
0.014719
0.0136736
0.0126961
0.0117825
0.0109292
0.0101326
0.00938949
0.00869659
0.00805087
0.00744945
0.0068896
0.00636873
0.00588437
0.00543421
0.00501605
0.00462783
0.00426758
0.00393347
0.00362376
0.00333682
0.0030711
0.00282518
0.00259768
0.00238734
0.00219296
0.00201343
0.00184769
0.00169476
0.00155372
0.00142372
0.00130395
0.00119366
0.00109215
0.000998763
0.000912901
0.000833993
0.000761511
0.000694966
0.000633901
0.000577892
0.000526547
0.000479501
0.000436416
0.000396979
0.000360898
0.000327906
0.000297754
0.000270213
0.000245069
0.000222128
0.000201207
0.00018214
0.000164772
0.000148963
0.000134579
0.000121502
0.00010962
9.88313e-05
8.90411e-05
8.01635e-05
7.21189e-05
6.48347e-05
5.82432e-05
5.22839e-05
4.68993e-05
4.20392e-05
3.76542e-05
3.37037e-05
3.01446e-05
2.6945e-05
2.40662e-05
2.1485e-05
1.91653e-05
1.70921e-05
1.52306e-05
1.35736e-05
1.20874e-05
1.0771e-05
9.59012e-06
8.55291e-06
7.61888e-06
6.81016e-06
6.07447e-06
5.45165e-06
4.87434e-06
4.40085e-06
3.94881e-06
3.59305e-06
3.238e-06
2.97394e-06
2.69216e-06
2.50101e-06
2.27256e-06
2.13928e-06
1.95051e-06
1.86904e-06
1.709e-06
1.64578e-06
1.52638e-06
1.48359e-06
1.39709e-06
1.3587e-06
1.29897e-06
1.26464e-06
1.22702e-06
1.1987e-06
1.17812e-06
1.15292e-06
0.304982
0.296405
0.287695
0.278878
0.270005
0.261162
0.252361
0.24362
0.234914
0.226264
0.217698
0.209191
0.200799
0.192545
0.184437
0.176498
0.168737
0.161168
0.153795
0.146626
0.139666
0.132919
0.126383
0.120059
0.113948
0.108054
0.10238
0.096925
0.0916886
0.0866681
0.08186
0.0772605
0.0728652
0.0686695
0.0646684
0.060857
0.05723
0.0537822
0.0505079
0.0474016
0.0444574
0.0416696
0.0390323
0.0365396
0.0341855
0.0319643
0.02987
0.027897
0.0260396
0.0242925
0.0226501
0.0211073
0.0196591
0.0183006
0.017027
0.0158339
0.0147168
0.0136715
0.0126941
0.0117806
0.0109274
0.010131
0.009388
0.00869519
0.00804957
0.00744824
0.00688848
0.00636768
0.0058834
0.0054333
0.00501521
0.00462705
0.00426686
0.0039328
0.00362314
0.00333624
0.00307057
0.00282468
0.00259722
0.00238692
0.00219257
0.00201307
0.00184735
0.00169445
0.00155344
0.00142346
0.00130371
0.00119344
0.00109194
0.000998576
0.000912729
0.000833835
0.000761366
0.000694833
0.000633778
0.00057778
0.000526444
0.000479407
0.00043633
0.0003969
0.000360826
0.00032784
0.000297694
0.000270158
0.000245019
0.000222082
0.000201165
0.000182102
0.000164738
0.000148931
0.000134551
0.000121476
0.000109596
9.88097e-05
8.90215e-05
8.01458e-05
7.21028e-05
6.48201e-05
5.823e-05
5.2272e-05
4.68885e-05
4.20295e-05
3.76454e-05
3.36958e-05
3.01374e-05
2.69385e-05
2.40604e-05
2.14798e-05
1.91607e-05
1.70879e-05
1.52269e-05
1.35702e-05
1.20844e-05
1.07683e-05
9.58773e-06
8.55077e-06
7.61698e-06
6.80846e-06
6.07297e-06
5.45032e-06
4.87317e-06
4.39981e-06
3.94789e-06
3.59223e-06
3.23728e-06
2.9733e-06
2.6916e-06
2.5005e-06
2.27212e-06
2.13887e-06
1.95015e-06
1.86873e-06
1.70869e-06
1.64552e-06
1.52614e-06
1.48339e-06
1.39689e-06
1.35853e-06
1.2988e-06
1.26449e-06
1.22688e-06
1.19858e-06
1.17801e-06
1.15282e-06
0.304964
0.296386
0.287676
0.278859
0.269986
0.261143
0.252343
0.243601
0.234896
0.226246
0.21768
0.209173
0.200781
0.192528
0.18442
0.176481
0.168721
0.161152
0.15378
0.146611
0.139652
0.132905
0.126369
0.120045
0.113935
0.108042
0.102368
0.0969137
0.0916778
0.0866577
0.0818501
0.0772511
0.0728562
0.0686608
0.0646602
0.0608491
0.0572226
0.0537751
0.0505012
0.0473952
0.0444514
0.0416639
0.0390269
0.0365345
0.0341807
0.0319597
0.0298657
0.0278929
0.0260358
0.0242889
0.0226467
0.0211042
0.0196562
0.0182978
0.0170244
0.0158315
0.0147145
0.0136694
0.0126921
0.0117788
0.0109257
0.0101294
0.00938648
0.00869378
0.00804825
0.00744701
0.00688733
0.00636662
0.00588241
0.00543239
0.00501436
0.00462626
0.00426612
0.00393212
0.00362251
0.00333565
0.00307003
0.00282418
0.00259676
0.00238649
0.00219218
0.0020127
0.00184702
0.00169414
0.00155315
0.00142319
0.00130346
0.00119321
0.00109174
0.000998386
0.000912554
0.000833674
0.000761218
0.000694697
0.000633654
0.000577665
0.000526339
0.000479311
0.000436242
0.000396819
0.000360752
0.000327773
0.000297632
0.000270101
0.000244967
0.000222035
0.000201122
0.000182062
0.000164702
0.000148898
0.000134521
0.000121449
0.000109572
9.87873e-05
8.90012e-05
8.01273e-05
7.2086e-05
6.48049e-05
5.82162e-05
5.22595e-05
4.68772e-05
4.20192e-05
3.76361e-05
3.36874e-05
3.01298e-05
2.69317e-05
2.40542e-05
2.14742e-05
1.91556e-05
1.70833e-05
1.52227e-05
1.35664e-05
1.2081e-05
1.07652e-05
9.58496e-06
8.54826e-06
7.61472e-06
6.80642e-06
6.07112e-06
5.44864e-06
4.87165e-06
4.39842e-06
3.94664e-06
3.59108e-06
3.23623e-06
2.97232e-06
2.69071e-06
2.49966e-06
2.27134e-06
2.13814e-06
1.94947e-06
1.86809e-06
1.70806e-06
1.64495e-06
1.52557e-06
1.48287e-06
1.39637e-06
1.35804e-06
1.29832e-06
1.26403e-06
1.22642e-06
1.19814e-06
1.17757e-06
1.1524e-06
0.304945
0.296367
0.287657
0.278839
0.269967
0.261124
0.252323
0.243582
0.234877
0.226227
0.217662
0.209155
0.200764
0.19251
0.184403
0.176464
0.168704
0.161136
0.153764
0.146596
0.139637
0.13289
0.126356
0.120032
0.113923
0.10803
0.102356
0.0969023
0.0916668
0.0866472
0.0818401
0.0772415
0.072847
0.0686521
0.0646518
0.0608412
0.057215
0.0537679
0.0504944
0.0473888
0.0444453
0.0416581
0.0390215
0.0365293
0.0341758
0.0319551
0.0298614
0.0278889
0.026032
0.0242853
0.0226433
0.021101
0.0196532
0.018295
0.0170218
0.015829
0.0147122
0.0136672
0.0126901
0.0117769
0.0109239
0.0101277
0.00938494
0.00869234
0.00804691
0.00744577
0.00688617
0.00636554
0.0058814
0.00543145
0.00501349
0.00462545
0.00426538
0.00393143
0.00362186
0.00333506
0.00306948
0.00282367
0.00259629
0.00238605
0.00219177
0.00201233
0.00184667
0.00169382
0.00155286
0.00142292
0.00130321
0.00119298
0.00109152
0.000998192
0.000912376
0.00083351
0.000761067
0.000694558
0.000633526
0.000577548
0.000526232
0.000479212
0.000436152
0.000396736
0.000360676
0.000327703
0.000297569
0.000270043
0.000244914
0.000221986
0.000201078
0.000182022
0.000164665
0.000148864
0.00013449
0.000121421
0.000109546
9.87638e-05
8.89798e-05
8.01078e-05
7.20682e-05
6.47886e-05
5.82014e-05
5.2246e-05
4.68649e-05
4.2008e-05
3.7626e-05
3.36781e-05
3.01214e-05
2.69239e-05
2.40472e-05
2.14677e-05
1.91497e-05
1.70779e-05
1.52178e-05
1.35619e-05
1.20768e-05
1.07614e-05
9.58144e-06
8.54501e-06
7.61172e-06
6.80363e-06
6.06854e-06
5.44624e-06
4.86941e-06
4.39632e-06
3.94467e-06
3.58921e-06
3.23446e-06
2.97063e-06
2.68911e-06
2.49812e-06
2.26987e-06
2.1367e-06
1.94809e-06
1.86676e-06
1.70672e-06
1.64367e-06
1.52429e-06
1.48166e-06
1.39514e-06
1.35685e-06
1.29713e-06
1.26287e-06
1.22527e-06
1.19701e-06
1.17644e-06
1.15128e-06
0.304925
0.296347
0.287637
0.278819
0.269947
0.261104
0.252304
0.243563
0.234858
0.226208
0.217643
0.209136
0.200745
0.192492
0.184385
0.176447
0.168688
0.16112
0.153749
0.146581
0.139622
0.132876
0.126342
0.120019
0.11391
0.108017
0.102344
0.0968908
0.0916558
0.0866366
0.0818299
0.0772318
0.0728377
0.0686432
0.0646434
0.0608332
0.0572074
0.0537607
0.0504875
0.0473822
0.0444391
0.0416523
0.0390159
0.0365241
0.0341709
0.0319504
0.029857
0.0278847
0.0260281
0.0242816
0.0226399
0.0210977
0.0196501
0.0182921
0.0170191
0.0158265
0.0147098
0.013665
0.012688
0.011775
0.0109221
0.0101261
0.00938338
0.00869089
0.00804556
0.00744451
0.006885
0.00636444
0.00588039
0.00543051
0.00501261
0.00462464
0.00426462
0.00393072
0.00362121
0.00333446
0.00306892
0.00282315
0.00259581
0.00238561
0.00219136
0.00201195
0.00184632
0.0016935
0.00155256
0.00142265
0.00130296
0.00119275
0.00109131
0.000997993
0.000912193
0.000833342
0.000760913
0.000694416
0.000633395
0.000577428
0.000526122
0.000479111
0.000436059
0.000396651
0.000360598
0.000327632
0.000297503
0.000269983
0.000244859
0.000221936
0.000201031
0.000181979
0.000164626
0.000148829
0.000134457
0.000121391
0.000109519
9.8739e-05
8.8957e-05
8.0087e-05
7.20492e-05
6.47712e-05
5.81854e-05
5.22314e-05
4.68515e-05
4.19957e-05
3.76146e-05
3.36677e-05
3.01118e-05
2.69151e-05
2.4039e-05
2.14602e-05
1.91427e-05
1.70715e-05
1.52118e-05
1.35563e-05
1.20716e-05
1.07565e-05
9.5769e-06
8.54075e-06
7.60771e-06
6.79984e-06
6.06496e-06
5.44283e-06
4.86617e-06
4.39322e-06
3.9417e-06
3.58636e-06
3.23171e-06
2.96796e-06
2.68652e-06
2.49559e-06
2.26741e-06
2.13428e-06
1.94573e-06
1.86447e-06
1.70441e-06
1.64143e-06
1.52204e-06
1.47948e-06
1.39295e-06
1.3547e-06
1.29498e-06
1.26074e-06
1.22315e-06
1.1949e-06
1.17433e-06
1.14917e-06
0.304905
0.296327
0.287617
0.278799
0.269926
0.261084
0.252284
0.243543
0.234839
0.226189
0.217624
0.209117
0.200727
0.192474
0.184368
0.17643
0.168671
0.161104
0.153733
0.146565
0.139607
0.132861
0.126328
0.120005
0.113897
0.108005
0.102332
0.0968791
0.0916445
0.0866259
0.0818197
0.0772219
0.0728284
0.0686343
0.0646349
0.060825
0.0571996
0.0537533
0.0504805
0.0473756
0.0444328
0.0416463
0.0390103
0.0365188
0.0341659
0.0319457
0.0298525
0.0278805
0.0260241
0.0242779
0.0226364
0.0210944
0.019647
0.0182893
0.0170164
0.0158239
0.0147075
0.0136628
0.0126859
0.011773
0.0109203
0.0101244
0.00938179
0.00868941
0.00804418
0.00744322
0.0068838
0.00636333
0.00587935
0.00542955
0.00501172
0.00462381
0.00426385
0.00393001
0.00362055
0.00333384
0.00306835
0.00282263
0.00259532
0.00238516
0.00219095
0.00201156
0.00184597
0.00169317
0.00155226
0.00142237
0.0013027
0.00119251
0.00109109
0.000997791
0.000912006
0.00083317
0.000760755
0.00069427
0.000633262
0.000577305
0.000526009
0.000479007
0.000435963
0.000396563
0.000360518
0.000327558
0.000297435
0.000269921
0.000244802
0.000221883
0.000200983
0.000181935
0.000164586
0.000148792
0.000134423
0.00012136
0.00010949
9.87127e-05
8.89329e-05
8.00648e-05
7.20288e-05
6.47524e-05
5.81682e-05
5.22155e-05
4.68368e-05
4.19822e-05
3.76021e-05
3.36561e-05
3.01011e-05
2.69052e-05
2.40298e-05
2.14516e-05
1.91347e-05
1.7064e-05
1.52047e-05
1.35497e-05
1.20654e-05
1.07506e-05
9.57131e-06
8.53544e-06
7.60266e-06
6.79502e-06
6.06035e-06
5.43839e-06
4.86191e-06
4.3891e-06
3.93772e-06
3.58248e-06
3.22795e-06
2.96428e-06
2.68293e-06
2.49206e-06
2.26395e-06
2.13085e-06
1.94237e-06
1.86114e-06
1.70109e-06
1.63818e-06
1.51878e-06
1.47629e-06
1.38975e-06
1.35154e-06
1.29181e-06
1.2576e-06
1.22002e-06
1.19179e-06
1.17123e-06
1.14607e-06
0.304885
0.296307
0.287596
0.278778
0.269906
0.261063
0.252264
0.243523
0.234819
0.226169
0.217605
0.209098
0.200708
0.192456
0.18435
0.176412
0.168654
0.161087
0.153716
0.14655
0.139592
0.132847
0.126313
0.119991
0.113883
0.107992
0.10232
0.0968673
0.0916332
0.086615
0.0818092
0.077212
0.0728188
0.0686252
0.0646262
0.0608168
0.0571918
0.0537459
0.0504734
0.0473689
0.0444265
0.0416403
0.0390046
0.0365134
0.0341608
0.0319409
0.029848
0.0278762
0.0260201
0.0242741
0.0226328
0.0210911
0.0196439
0.0182863
0.0170137
0.0158214
0.0147051
0.0136606
0.0126838
0.011771
0.0109185
0.0101226
0.00938019
0.00868791
0.00804278
0.00744192
0.00688259
0.0063622
0.0058783
0.00542857
0.00501081
0.00462296
0.00426307
0.00392928
0.00361988
0.00333322
0.00306777
0.00282209
0.00259482
0.0023847
0.00219052
0.00201117
0.0018456
0.00169284
0.00155195
0.00142208
0.00130244
0.00119227
0.00109086
0.000997584
0.000911816
0.000832995
0.000760593
0.000694122
0.000633125
0.00057718
0.000525893
0.000478901
0.000435865
0.000396473
0.000360435
0.000327482
0.000297365
0.000269857
0.000244743
0.000221829
0.000200934
0.00018189
0.000164544
0.000148753
0.000134388
0.000121327
0.00010946
9.86851e-05
8.89075e-05
8.00414e-05
7.20073e-05
6.47326e-05
5.81499e-05
5.21985e-05
4.68211e-05
4.19676e-05
3.75886e-05
3.36436e-05
3.00894e-05
2.68943e-05
2.40196e-05
2.1442e-05
1.91257e-05
1.70555e-05
1.51968e-05
1.35422e-05
1.20582e-05
1.07438e-05
9.56486e-06
8.52927e-06
7.59675e-06
6.78934e-06
6.05489e-06
5.43312e-06
4.85681e-06
4.38414e-06
3.93291e-06
3.57778e-06
3.22336e-06
2.95977e-06
2.67851e-06
2.4877e-06
2.25967e-06
2.1266e-06
1.93818e-06
1.85703e-06
1.69695e-06
1.63412e-06
1.5147e-06
1.4723e-06
1.38573e-06
1.34757e-06
1.28784e-06
1.25366e-06
1.21608e-06
1.18787e-06
1.16732e-06
1.14216e-06
0.304864
0.296286
0.287575
0.278757
0.269884
0.261042
0.252243
0.243503
0.234799
0.226149
0.217586
0.209079
0.200689
0.192437
0.184332
0.176394
0.168636
0.16107
0.1537
0.146534
0.139577
0.132832
0.126299
0.119977
0.11387
0.107979
0.102307
0.0968553
0.0916217
0.086604
0.0817987
0.0772019
0.0728092
0.068616
0.0646175
0.0608085
0.0571839
0.0537383
0.0504663
0.0473621
0.04442
0.0416342
0.0389988
0.0365079
0.0341556
0.0319361
0.0298434
0.0278719
0.0260161
0.0242703
0.0226292
0.0210877
0.0196407
0.0182834
0.0170109
0.0158187
0.0147026
0.0136583
0.0126817
0.011769
0.0109166
0.0101209
0.00937856
0.00868639
0.00804137
0.0074406
0.00688136
0.00636106
0.00587724
0.00542758
0.0050099
0.00462211
0.00426227
0.00392855
0.00361919
0.00333258
0.00306718
0.00282155
0.00259432
0.00238423
0.00219009
0.00201077
0.00184524
0.0016925
0.00155163
0.00142179
0.00130217
0.00119202
0.00109064
0.000997374
0.000911623
0.000832817
0.000760429
0.000693971
0.000632986
0.000577052
0.000525775
0.000478793
0.000435766
0.000396382
0.000360351
0.000327404
0.000297294
0.000269791
0.000244683
0.000221774
0.000200883
0.000181843
0.000164501
0.000148714
0.000134352
0.000121294
0.00010943
9.86568e-05
8.88814e-05
8.00173e-05
7.1985e-05
6.4712e-05
5.81308e-05
5.21809e-05
4.68048e-05
4.19525e-05
3.75745e-05
3.36304e-05
3.00771e-05
2.68828e-05
2.40088e-05
2.1432e-05
1.91162e-05
1.70466e-05
1.51883e-05
1.35342e-05
1.20506e-05
1.07366e-05
9.55793e-06
8.52263e-06
7.59038e-06
6.7832e-06
6.04897e-06
5.42739e-06
4.85126e-06
4.37874e-06
3.92765e-06
3.57263e-06
3.21833e-06
2.95482e-06
2.67366e-06
2.48291e-06
2.25495e-06
2.12191e-06
1.93357e-06
1.85248e-06
1.69237e-06
1.62964e-06
1.51019e-06
1.46788e-06
1.38129e-06
1.34318e-06
1.28344e-06
1.24928e-06
1.21172e-06
1.18352e-06
1.16299e-06
1.13784e-06
0.304842
0.296264
0.287553
0.278735
0.269863
0.26102
0.252222
0.243482
0.234778
0.226129
0.217566
0.209059
0.20067
0.192418
0.184313
0.176376
0.168619
0.161053
0.153683
0.146518
0.139561
0.132817
0.126284
0.119963
0.113856
0.107966
0.102295
0.0968432
0.0916101
0.0865929
0.0817881
0.0771917
0.0727995
0.0686067
0.0646086
0.0608
0.0571759
0.0537307
0.0504591
0.0473552
0.0444135
0.0416281
0.038993
0.0365024
0.0341504
0.0319311
0.0298388
0.0278676
0.0260119
0.0242664
0.0226256
0.0210843
0.0196375
0.0182803
0.017008
0.0158161
0.0147001
0.0136559
0.0126795
0.011767
0.0109147
0.0101191
0.00937691
0.00868485
0.00803993
0.00743926
0.00688012
0.0063599
0.00587616
0.00542658
0.00500896
0.00462124
0.00426147
0.0039278
0.0036185
0.00333194
0.00306659
0.002821
0.00259381
0.00238376
0.00218965
0.00201037
0.00184486
0.00169215
0.00155132
0.0014215
0.0013019
0.00119177
0.00109041
0.000997161
0.000911426
0.000832636
0.000760262
0.000693817
0.000632844
0.000576921
0.000525656
0.000478682
0.000435664
0.000396289
0.000360265
0.000327325
0.000297222
0.000269725
0.000244622
0.000221718
0.000200831
0.000181795
0.000164457
0.000148674
0.000134315
0.00012126
0.000109398
9.86279e-05
8.88548e-05
7.99928e-05
7.19624e-05
6.46911e-05
5.81115e-05
5.21631e-05
4.67883e-05
4.19371e-05
3.75603e-05
3.36171e-05
3.00647e-05
2.68712e-05
2.3998e-05
2.14218e-05
1.91066e-05
1.70375e-05
1.51798e-05
1.35261e-05
1.2043e-05
1.07293e-05
9.55095e-06
8.51594e-06
7.58397e-06
6.77703e-06
6.04302e-06
5.42162e-06
4.84568e-06
4.37331e-06
3.92237e-06
3.56747e-06
3.21329e-06
2.94986e-06
2.6688e-06
2.4781e-06
2.25023e-06
2.11722e-06
1.92894e-06
1.84794e-06
1.68779e-06
1.62515e-06
1.50567e-06
1.46346e-06
1.37684e-06
1.33878e-06
1.27904e-06
1.24491e-06
1.20735e-06
1.17918e-06
1.15866e-06
1.13353e-06
0.30482
0.296242
0.287531
0.278712
0.269841
0.260999
0.2522
0.243461
0.234757
0.226109
0.217546
0.20904
0.200651
0.192399
0.184294
0.176358
0.168601
0.161036
0.153666
0.146501
0.139545
0.132801
0.12627
0.119949
0.113842
0.107952
0.102282
0.0968309
0.0915983
0.0865816
0.0817773
0.0771814
0.0727896
0.0685973
0.0645997
0.0607915
0.0571677
0.053723
0.0504517
0.0473483
0.0444069
0.0416218
0.0389871
0.0364968
0.0341452
0.0319262
0.0298341
0.0278632
0.0260078
0.0242625
0.0226219
0.0210809
0.0196343
0.0182773
0.0170052
0.0158134
0.0146976
0.0136536
0.0126773
0.011765
0.0109128
0.0101173
0.00937524
0.00868329
0.00803848
0.00743791
0.00687885
0.00635872
0.00587507
0.00542556
0.00500802
0.00462037
0.00426066
0.00392705
0.0036178
0.00333129
0.00306599
0.00282044
0.00259329
0.00238328
0.00218921
0.00200996
0.00184448
0.0016918
0.00155099
0.0014212
0.00130162
0.00119151
0.00109017
0.000996945
0.000911227
0.000832452
0.000760094
0.000693662
0.000632701
0.00057679
0.000525534
0.000478571
0.000435562
0.000396194
0.000360178
0.000327246
0.000297149
0.000269657
0.00024456
0.000221661
0.000200779
0.000181748
0.000164413
0.000148633
0.000134278
0.000121226
0.000109367
9.85991e-05
8.88282e-05
7.99684e-05
7.19399e-05
6.46704e-05
5.80924e-05
5.21453e-05
4.67719e-05
4.19219e-05
3.75462e-05
3.36041e-05
3.00526e-05
2.68599e-05
2.39874e-05
2.14118e-05
1.90973e-05
1.70288e-05
1.51716e-05
1.35183e-05
1.20356e-05
1.07223e-05
9.54428e-06
8.50957e-06
7.57788e-06
6.77118e-06
6.03741e-06
5.4162e-06
4.84044e-06
4.36823e-06
3.91744e-06
3.56265e-06
3.2086e-06
2.94525e-06
2.6643e-06
2.47366e-06
2.24587e-06
2.11289e-06
1.92468e-06
1.84376e-06
1.68357e-06
1.62104e-06
1.50152e-06
1.45941e-06
1.37276e-06
1.33475e-06
1.27501e-06
1.2409e-06
1.20336e-06
1.1752e-06
1.1547e-06
1.1296e-06
0.304798
0.29622
0.287509
0.27869
0.269818
0.260976
0.252178
0.24344
0.234736
0.226088
0.217526
0.209019
0.200631
0.19238
0.184275
0.176339
0.168583
0.161018
0.153649
0.146485
0.139529
0.132786
0.126255
0.119935
0.113828
0.107939
0.102269
0.0968185
0.0915864
0.0865702
0.0817664
0.077171
0.0727797
0.0685878
0.0645906
0.0607829
0.0571595
0.0537152
0.0504443
0.0473413
0.0444003
0.0416155
0.0389811
0.0364912
0.0341398
0.0319211
0.0298293
0.0278587
0.0260036
0.0242585
0.0226182
0.0210774
0.019631
0.0182742
0.0170023
0.0158107
0.0146951
0.0136512
0.0126751
0.0117629
0.0109109
0.0101155
0.00937354
0.00868171
0.008037
0.00743654
0.00687758
0.00635754
0.00587396
0.00542453
0.00500706
0.00461948
0.00425983
0.00392628
0.00361709
0.00333063
0.00306538
0.00281987
0.00259277
0.0023828
0.00218876
0.00200955
0.0018441
0.00169145
0.00155067
0.0014209
0.00130135
0.00119126
0.00108994
0.000996727
0.000911026
0.000832267
0.000759923
0.000693505
0.000632557
0.000576657
0.000525412
0.000478459
0.000435459
0.000396099
0.000360091
0.000327166
0.000297075
0.00026959
0.000244498
0.000221604
0.000200727
0.0001817
0.000164369
0.000148593
0.000134241
0.000121192
0.000109336
9.85704e-05
8.88019e-05
7.99442e-05
7.19176e-05
6.46499e-05
5.80735e-05
5.2128e-05
4.67559e-05
4.19071e-05
3.75325e-05
3.35914e-05
3.00408e-05
2.6849e-05
2.39773e-05
2.14024e-05
1.90885e-05
1.70206e-05
1.51638e-05
1.3511e-05
1.20287e-05
1.07158e-05
9.53818e-06
8.50377e-06
7.57237e-06
6.76591e-06
6.03237e-06
5.41136e-06
4.83579e-06
4.36373e-06
3.9131e-06
3.55843e-06
3.20451e-06
2.94124e-06
2.66039e-06
2.46982e-06
2.24211e-06
2.10916e-06
1.92103e-06
1.84019e-06
1.67995e-06
1.61753e-06
1.49796e-06
1.45597e-06
1.36929e-06
1.33133e-06
1.27159e-06
1.2375e-06
1.19997e-06
1.17183e-06
1.15135e-06
1.12629e-06
0.304775
0.296197
0.287486
0.278667
0.269795
0.260954
0.252156
0.243418
0.234715
0.226067
0.217505
0.208999
0.200611
0.19236
0.184256
0.17632
0.168565
0.161
0.153632
0.146468
0.139513
0.13277
0.12624
0.11992
0.113814
0.107925
0.102256
0.0968059
0.0915744
0.0865587
0.0817553
0.0771604
0.0727696
0.0685782
0.0645814
0.0607741
0.0571512
0.0537073
0.0504368
0.0473341
0.0443935
0.0416091
0.0389751
0.0364855
0.0341344
0.031916
0.0298245
0.0278542
0.0259993
0.0242545
0.0226144
0.0210738
0.0196277
0.0182711
0.0169994
0.015808
0.0146925
0.0136488
0.0126729
0.0117608
0.0109089
0.0101137
0.00937183
0.00868011
0.00803551
0.00743515
0.00687628
0.00635633
0.00587284
0.00542349
0.00500609
0.00461858
0.004259
0.0039255
0.00361637
0.00332997
0.00306476
0.0028193
0.00259224
0.00238231
0.00218831
0.00200913
0.00184371
0.00169109
0.00155033
0.00142059
0.00130106
0.001191
0.0010897
0.000996506
0.000910823
0.00083208
0.00075975
0.000693346
0.000632411
0.000576522
0.000525289
0.000478345
0.000435354
0.000396004
0.000360003
0.000327085
0.000297001
0.000269522
0.000244436
0.000221547
0.000200674
0.000181652
0.000164325
0.000148552
0.000134204
0.000121158
0.000109305
9.8542e-05
8.87759e-05
7.99203e-05
7.18957e-05
6.46298e-05
5.80551e-05
5.2111e-05
4.67403e-05
4.18928e-05
3.75194e-05
3.35793e-05
3.00297e-05
2.68387e-05
2.39677e-05
2.13936e-05
1.90803e-05
1.70129e-05
1.51567e-05
1.35044e-05
1.20225e-05
1.071e-05
9.53271e-06
8.49861e-06
7.5675e-06
6.76129e-06
6.02799e-06
5.40718e-06
4.83181e-06
4.35991e-06
3.90943e-06
3.55488e-06
3.20109e-06
2.93791e-06
2.65717e-06
2.46666e-06
2.23904e-06
2.10611e-06
1.91806e-06
1.83731e-06
1.67702e-06
1.61471e-06
1.49509e-06
1.45323e-06
1.36651e-06
1.32861e-06
1.26886e-06
1.23479e-06
1.19728e-06
1.16915e-06
1.1487e-06
1.12369e-06
0.304751
0.296174
0.287463
0.278643
0.269771
0.26093
0.252133
0.243396
0.234693
0.226045
0.217484
0.208978
0.20059
0.19234
0.184236
0.176301
0.168546
0.160982
0.153615
0.146451
0.139497
0.132754
0.126224
0.119905
0.1138
0.107912
0.102243
0.0967932
0.0915622
0.086547
0.0817442
0.0771498
0.0727594
0.0685685
0.0645722
0.0607653
0.0571428
0.0536993
0.0504292
0.0473269
0.0443867
0.0416027
0.038969
0.0364797
0.034129
0.0319109
0.0298197
0.0278496
0.025995
0.0242505
0.0226106
0.0210702
0.0196243
0.0182679
0.0169964
0.0158052
0.0146899
0.0136464
0.0126706
0.0117586
0.0109069
0.0101118
0.00937009
0.00867849
0.008034
0.00743374
0.00687497
0.00635511
0.00587171
0.00542244
0.00500511
0.00461767
0.00425815
0.00392472
0.00361564
0.00332929
0.00306413
0.00281872
0.0025917
0.00238181
0.00218785
0.0020087
0.00184332
0.00169073
0.00155
0.00142029
0.00130078
0.00119074
0.00108945
0.000996283
0.000910617
0.00083189
0.000759576
0.000693185
0.000632263
0.000576387
0.000525164
0.00047823
0.000435249
0.000395907
0.000359915
0.000327004
0.000296926
0.000269454
0.000244373
0.000221489
0.000200622
0.000181604
0.000164281
0.000148512
0.000134167
0.000121124
0.000109274
9.85138e-05
8.87501e-05
7.98967e-05
7.18742e-05
6.46101e-05
5.80371e-05
5.20946e-05
4.67252e-05
4.1879e-05
3.75067e-05
3.35677e-05
3.0019e-05
2.68289e-05
2.39587e-05
2.13853e-05
1.90727e-05
1.70059e-05
1.51502e-05
1.34984e-05
1.20169e-05
1.07048e-05
9.52786e-06
8.49408e-06
7.56327e-06
6.75731e-06
6.02425e-06
5.40365e-06
4.82847e-06
4.35673e-06
3.90642e-06
3.552e-06
3.19834e-06
2.93524e-06
2.65461e-06
2.46417e-06
2.23663e-06
2.10374e-06
1.91576e-06
1.83511e-06
1.67476e-06
1.61258e-06
1.4929e-06
1.45116e-06
1.36439e-06
1.32656e-06
1.2668e-06
1.23276e-06
1.19526e-06
1.16716e-06
1.14672e-06
1.12178e-06
0.304727
0.29615
0.287439
0.278619
0.269748
0.260907
0.25211
0.243373
0.234671
0.226024
0.217463
0.208957
0.20057
0.19232
0.184217
0.176282
0.168527
0.160964
0.153597
0.146434
0.13948
0.132738
0.126209
0.11989
0.113786
0.107898
0.102229
0.0967804
0.0915499
0.0865352
0.0817329
0.077139
0.0727491
0.0685587
0.0645628
0.0607564
0.0571343
0.0536912
0.0504216
0.0473197
0.0443798
0.0415961
0.0389628
0.0364739
0.0341234
0.0319057
0.0298147
0.0278449
0.0259906
0.0242464
0.0226067
0.0210666
0.0196209
0.0182647
0.0169934
0.0158024
0.0146873
0.0136439
0.0126683
0.0117565
0.0109049
0.0101099
0.00936834
0.00867686
0.00803248
0.00743232
0.00687365
0.00635388
0.00587056
0.00542137
0.00500412
0.00461675
0.00425729
0.00392393
0.00361491
0.00332861
0.0030635
0.00281813
0.00259116
0.00238131
0.00218739
0.00200827
0.00184292
0.00169036
0.00154966
0.00141997
0.00130049
0.00119047
0.00108921
0.000996057
0.000910409
0.000831699
0.0007594
0.000693023
0.000632114
0.00057625
0.000525038
0.000478115
0.000435143
0.00039581
0.000359825
0.000326922
0.000296851
0.000269385
0.00024431
0.000221432
0.000200569
0.000181555
0.000164237
0.000148472
0.00013413
0.000121091
0.000109243
9.84858e-05
8.87245e-05
7.98734e-05
7.18529e-05
6.45907e-05
5.80194e-05
5.20784e-05
4.67105e-05
4.18656e-05
3.74945e-05
3.35565e-05
3.00088e-05
2.68196e-05
2.39502e-05
2.13775e-05
1.90656e-05
1.69993e-05
1.51442e-05
1.34929e-05
1.20119e-05
1.07001e-05
9.52355e-06
8.49009e-06
7.55957e-06
6.75388e-06
6.02106e-06
5.40067e-06
4.82569e-06
4.35412e-06
3.90397e-06
3.54967e-06
3.19615e-06
2.93314e-06
2.65262e-06
2.46224e-06
2.2348e-06
2.10193e-06
1.91403e-06
1.83348e-06
1.67307e-06
1.61102e-06
1.49127e-06
1.44968e-06
1.36289e-06
1.32509e-06
1.26533e-06
1.23131e-06
1.19382e-06
1.16574e-06
1.14533e-06
1.12047e-06
0.30469
0.296114
0.287403
0.278582
0.269711
0.260871
0.252075
0.243339
0.234637
0.225991
0.217431
0.208925
0.200539
0.192289
0.184187
0.176253
0.168499
0.160936
0.15357
0.146408
0.139455
0.132714
0.126185
0.119868
0.113764
0.107877
0.102209
0.0967609
0.0915312
0.0865173
0.0817158
0.0771226
0.0727335
0.0685437
0.0645486
0.0607428
0.0571214
0.053679
0.0504099
0.0473086
0.0443693
0.0415862
0.0389534
0.036465
0.0341151
0.0318978
0.0298073
0.0278379
0.025984
0.0242401
0.0226009
0.0210611
0.0196157
0.0182599
0.0169889
0.0157981
0.0146833
0.0136402
0.0126648
0.0117532
0.0109018
0.0101071
0.00936567
0.00867437
0.00803016
0.00743016
0.00687163
0.006352
0.00586881
0.00541975
0.00500261
0.00461535
0.00425599
0.00392272
0.00361379
0.00332757
0.00306254
0.00281724
0.00259034
0.00238055
0.00218668
0.00200762
0.00184232
0.0016898
0.00154915
0.0014195
0.00130005
0.00119007
0.00108884
0.000995715
0.000910094
0.000831408
0.000759133
0.000692778
0.000631888
0.000576042
0.000524847
0.00047794
0.000434982
0.000395662
0.00035969
0.000326798
0.000296738
0.000269281
0.000244215
0.000221345
0.000200489
0.000181483
0.00016417
0.000148411
0.000134075
0.00012104
0.000109197
9.84438e-05
8.86863e-05
7.98386e-05
7.18212e-05
6.45618e-05
5.79931e-05
5.20545e-05
4.66888e-05
4.18458e-05
3.74765e-05
3.35402e-05
2.99939e-05
2.6806e-05
2.39379e-05
2.13663e-05
1.90554e-05
1.69901e-05
1.51358e-05
1.34851e-05
1.20048e-05
1.06937e-05
9.51768e-06
8.48471e-06
7.55465e-06
6.74935e-06
6.01691e-06
5.39683e-06
4.82216e-06
4.35084e-06
3.90095e-06
3.54684e-06
3.19352e-06
2.93066e-06
2.6503e-06
2.46003e-06
2.23272e-06
2.09989e-06
1.91211e-06
1.83173e-06
1.6712e-06
1.60936e-06
1.4895e-06
1.44813e-06
1.36126e-06
1.32357e-06
1.2638e-06
1.22982e-06
1.19235e-06
1.16429e-06
1.14392e-06
1.1192e-06
0.304639
0.296064
0.287352
0.278531
0.269661
0.260821
0.252027
0.243292
0.234591
0.225945
0.217387
0.208882
0.200496
0.192248
0.184146
0.176213
0.16846
0.160898
0.153533
0.146372
0.13942
0.132681
0.126153
0.119837
0.113734
0.107848
0.102181
0.0967344
0.0915057
0.0864929
0.0816924
0.0771003
0.0727122
0.0685234
0.0645292
0.0607244
0.0571039
0.0536623
0.0503941
0.0472936
0.0443551
0.0415727
0.0389406
0.0364529
0.0341036
0.031887
0.0297971
0.0278283
0.025975
0.0242316
0.0225929
0.0210536
0.0196087
0.0182533
0.0169826
0.0157923
0.0146778
0.0136351
0.01266
0.0117487
0.0108976
0.0101032
0.00936203
0.00867097
0.00802699
0.00742721
0.00686889
0.00634944
0.00586643
0.00541753
0.00500056
0.00461343
0.00425422
0.00392107
0.00361226
0.00332616
0.00306123
0.00281603
0.00258921
0.0023795
0.00218572
0.00200673
0.0018415
0.00168904
0.00154845
0.00141885
0.00129946
0.00118951
0.00108833
0.000995246
0.000909662
0.000831011
0.000758767
0.000692442
0.000631579
0.000575758
0.000524587
0.0004777
0.000434763
0.000395461
0.000359505
0.000326629
0.000296583
0.000269139
0.000244085
0.000221226
0.000200381
0.000181384
0.00016408
0.000148329
0.000134
0.000120972
0.000109135
9.83872e-05
8.86348e-05
7.97918e-05
7.17787e-05
6.45233e-05
5.79581e-05
5.20228e-05
4.666e-05
4.18198e-05
3.74529e-05
3.35188e-05
2.99746e-05
2.67885e-05
2.39221e-05
2.1352e-05
1.90425e-05
1.69784e-05
1.51252e-05
1.34756e-05
1.19963e-05
1.06859e-05
9.51071e-06
8.47841e-06
7.54898e-06
6.74423e-06
6.0123e-06
5.39267e-06
4.81842e-06
4.34745e-06
3.8979e-06
3.54407e-06
3.19103e-06
2.92836e-06
2.64823e-06
2.45811e-06
2.23098e-06
2.09822e-06
1.9106e-06
1.83044e-06
1.66977e-06
1.60821e-06
1.48819e-06
1.44713e-06
1.36018e-06
1.3226e-06
1.26283e-06
1.22889e-06
1.19145e-06
1.16343e-06
1.14311e-06
1.11865e-06
0.304586
0.296012
0.2873
0.278479
0.269608
0.26077
0.251977
0.243243
0.234544
0.225899
0.217342
0.208837
0.200452
0.192205
0.184104
0.176172
0.16842
0.16086
0.153496
0.146336
0.139385
0.132647
0.126121
0.119805
0.113704
0.107819
0.102153
0.0967073
0.0914797
0.086468
0.0816686
0.0770775
0.0726904
0.0685027
0.0645094
0.0607055
0.0570859
0.0536452
0.0503779
0.0472782
0.0443405
0.0415589
0.0389275
0.0364405
0.034092
0.0318759
0.0297867
0.0278185
0.0259657
0.0242229
0.0225847
0.0210459
0.0196014
0.0182465
0.0169763
0.0157863
0.0146722
0.0136298
0.0126551
0.0117442
0.0108934
0.0100992
0.0093583
0.0086675
0.00802375
0.00742418
0.00686607
0.00634682
0.00586399
0.00541527
0.00499845
0.00461148
0.0042524
0.00391938
0.00361069
0.0033247
0.00305988
0.00281478
0.00258806
0.00237844
0.00218473
0.00200582