/*--------------------------------*- C++ -*----------------------------------*\
| =========                 |                                                 |
| \\      /  F ield         | OpenFOAM: The Open Source CFD Toolbox           |
|  \\    /   O peration     | Version:  v1912                                 |
|   \\  /    A nd           | Website:  www.openfoam.com                      |
|    \\/     M anipulation  |                                                 |
\*---------------------------------------------------------------------------*/
FoamFile
{
    version     2.0;
    format      ascii;
    class       volSymmTensorField;
    location    "60";
    object      R;
}
// * * * * * * * * * * * * * * * * * * * * * * * * * * * * * * * * * * * * * //

dimensions      [0 2 -2 0 0 0 0];


internalField   nonuniform List<symmTensor> 
14268
(
(4.93012e-07 -7.65734e-08 0 5.12014e-07 0 5.03717e-07)
(4.9061e-07 -7.67418e-08 0 5.12856e-07 0 5.03024e-07)
(4.89395e-07 -7.68138e-08 0 5.13025e-07 0 5.02634e-07)
(4.88599e-07 -7.67427e-08 0 5.1282e-07 0 5.02128e-07)
(4.88249e-07 -7.66599e-08 0 5.12467e-07 0 5.01793e-07)
(4.8809e-07 -7.65959e-08 0 5.12632e-07 0 5.01807e-07)
(4.86557e-07 -7.6701e-08 0 5.14936e-07 0 5.02246e-07)
(4.79831e-07 -7.71416e-08 0 5.22806e-07 0 5.02982e-07)
(4.75994e-07 -7.74663e-08 0 5.29455e-07 0 5.04413e-07)
(4.7752e-07 -7.75539e-08 0 5.31405e-07 0 5.061e-07)
(4.79215e-07 -7.77046e-08 0 5.33977e-07 0 5.08188e-07)
(4.82084e-07 -7.77992e-08 0 5.36022e-07 0 5.10557e-07)
(4.85794e-07 -7.7906e-08 0 5.37707e-07 0 5.13172e-07)
(4.90307e-07 -7.80138e-08 0 5.39007e-07 0 5.15984e-07)
(4.95866e-07 -7.8157e-08 0 5.39626e-07 0 5.18971e-07)
(5.02032e-07 -7.83974e-08 0 5.40051e-07 0 5.22143e-07)
(5.0881e-07 -7.87632e-08 0 5.40124e-07 0 5.25431e-07)
(5.15861e-07 -7.92403e-08 0 5.40199e-07 0 5.28815e-07)
(5.23053e-07 -7.97819e-08 0 5.40247e-07 0 5.32239e-07)
(5.30136e-07 -8.04477e-08 0 5.40319e-07 0 5.35645e-07)
(5.36566e-07 -8.11351e-08 0 5.40804e-07 0 5.38962e-07)
(5.42739e-07 -8.18184e-08 0 5.41299e-07 0 5.42153e-07)
(5.48733e-07 -8.24722e-08 0 5.41743e-07 0 5.45279e-07)
(5.54573e-07 -8.30537e-08 0 5.42266e-07 0 5.48324e-07)
(5.60253e-07 -8.36097e-08 0 5.42828e-07 0 5.51361e-07)
(5.65932e-07 -8.40846e-08 0 5.43214e-07 0 5.54297e-07)
(5.71441e-07 -8.45415e-08 0 5.43344e-07 0 5.57094e-07)
(5.76676e-07 -8.49583e-08 0 5.43225e-07 0 5.59628e-07)
(5.8141e-07 -8.53903e-08 0 5.42788e-07 0 5.61812e-07)
(5.84661e-07 -8.58817e-08 0 5.42763e-07 0 5.63492e-07)
(5.8809e-07 -8.62473e-08 0 5.41402e-07 0 5.64626e-07)
(5.90336e-07 -8.64983e-08 0 5.4006e-07 0 5.65187e-07)
(5.90887e-07 -8.66866e-08 0 5.39349e-07 0 5.65181e-07)
(5.9034e-07 -8.68487e-08 0 5.39247e-07 0 5.64894e-07)
(5.88993e-07 -8.69215e-08 0 5.39797e-07 0 5.64477e-07)
(5.86909e-07 -8.69419e-08 0 5.40991e-07 0 5.64015e-07)
(5.84241e-07 -8.69033e-08 0 5.42749e-07 0 5.63536e-07)
(5.80992e-07 -8.68361e-08 0 5.45091e-07 0 5.63071e-07)
(5.77621e-07 -8.67724e-08 0 5.47649e-07 0 5.62654e-07)
(5.74253e-07 -8.67253e-08 0 5.50388e-07 0 5.62322e-07)
(5.70548e-07 -8.66927e-08 0 5.53528e-07 0 5.62034e-07)
(5.66913e-07 -8.66654e-08 0 5.56771e-07 0 5.61821e-07)
(5.63265e-07 -8.66746e-08 0 5.60159e-07 0 5.61684e-07)
(5.59435e-07 -8.66726e-08 0 5.63826e-07 0 5.61594e-07)
(5.55639e-07 -8.66602e-08 0 5.67662e-07 0 5.61593e-07)
(5.5181e-07 -8.66788e-08 0 5.71646e-07 0 5.61669e-07)
(5.47842e-07 -8.67218e-08 0 5.7593e-07 0 5.61814e-07)
(5.44153e-07 -8.67601e-08 0 5.80112e-07 0 5.62059e-07)
(5.40412e-07 -8.68229e-08 0 5.8451e-07 0 5.62364e-07)
(5.37137e-07 -8.69139e-08 0 5.88586e-07 0 5.62755e-07)
(5.34181e-07 -8.70143e-08 0 5.92355e-07 0 5.63153e-07)
(5.31847e-07 -8.71289e-08 0 5.95425e-07 0 5.63524e-07)
(5.30027e-07 -8.72536e-08 0 5.97917e-07 0 5.63881e-07)
(5.28671e-07 -8.73806e-08 0 5.99852e-07 0 5.6419e-07)
(5.27803e-07 -8.75203e-08 0 6.01206e-07 0 5.64474e-07)
(5.27359e-07 -8.76538e-08 0 6.02157e-07 0 5.64753e-07)
(5.27352e-07 -8.77877e-08 0 6.02643e-07 0 5.65023e-07)
(5.2767e-07 -8.79179e-08 0 6.02857e-07 0 5.65299e-07)
(5.28613e-07 -8.80988e-08 0 6.02916e-07 0 5.65805e-07)
(5.30166e-07 -8.83479e-08 0 6.03283e-07 0 5.66752e-07)
(5.32578e-07 -8.86737e-08 0 6.03619e-07 0 5.68103e-07)
(5.35768e-07 -8.90546e-08 0 6.03919e-07 0 5.69838e-07)
(5.39314e-07 -8.95003e-08 0 6.04489e-07 0 5.71866e-07)
(5.43635e-07 -9.00133e-08 0 6.04819e-07 0 5.74192e-07)
(5.48471e-07 -9.05183e-08 0 6.05139e-07 0 5.76762e-07)
(5.53655e-07 -9.10658e-08 0 6.05542e-07 0 5.79556e-07)
(5.59342e-07 -9.16463e-08 0 6.05724e-07 0 5.82497e-07)
(5.65503e-07 -9.22319e-08 0 6.05639e-07 0 5.85539e-07)
(5.71934e-07 -9.27927e-08 0 6.05281e-07 0 5.88597e-07)
(5.78115e-07 -9.33084e-08 0 6.0483e-07 0 5.91461e-07)
(5.84195e-07 -9.37663e-08 0 6.04124e-07 0 5.94165e-07)
(5.89764e-07 -9.41502e-08 0 6.03409e-07 0 5.96599e-07)
(5.94775e-07 -9.44749e-08 0 6.02725e-07 0 5.98772e-07)
(5.99128e-07 -9.47444e-08 0 6.02165e-07 0 6.00676e-07)
(6.02775e-07 -9.4963e-08 0 6.01743e-07 0 6.023e-07)
(6.05718e-07 -9.51312e-08 0 6.01448e-07 0 6.03629e-07)
(6.08021e-07 -9.52605e-08 0 6.01263e-07 0 6.04696e-07)
(6.0975e-07 -9.53656e-08 0 6.01215e-07 0 6.05537e-07)
(6.11142e-07 -9.54611e-08 0 6.01212e-07 0 6.06227e-07)
(6.11972e-07 -9.55565e-08 0 6.01626e-07 0 6.0685e-07)
(6.13223e-07 -9.56846e-08 0 6.01718e-07 0 6.07507e-07)
(6.14028e-07 -9.605e-08 0 6.0275e-07 0 6.08448e-07)
(6.16716e-07 -9.66478e-08 0 6.03146e-07 0 6.09934e-07)
(6.25469e-07 -9.90538e-08 0 5.98749e-07 0 6.12231e-07)
(6.2204e-07 -9.97341e-08 0 6.06612e-07 0 6.14204e-07)
(6.08612e-07 -1.01764e-07 0 6.23555e-07 0 6.1566e-07)
(1.4259e-07 -1.54397e-08 0 1.60866e-07 0 1.51671e-07)
(1.40612e-07 -1.52759e-08 0 1.59654e-07 0 1.50004e-07)
(1.39507e-07 -1.52208e-08 0 1.58914e-07 0 1.491e-07)
(1.39366e-07 -1.52593e-08 0 1.58746e-07 0 1.48947e-07)
(1.40057e-07 -1.53784e-08 0 1.59077e-07 0 1.49465e-07)
(1.41134e-07 -1.5498e-08 0 1.59538e-07 0 1.50255e-07)
(1.42617e-07 -1.56344e-08 0 1.60207e-07 0 1.51341e-07)
(1.44271e-07 -1.57846e-08 0 1.61116e-07 0 1.52646e-07)
(1.46146e-07 -1.59597e-08 0 1.62306e-07 0 1.54192e-07)
(1.48396e-07 -1.61303e-08 0 1.63421e-07 0 1.55889e-07)
(1.50956e-07 -1.63021e-08 0 1.64542e-07 0 1.57746e-07)
(1.53692e-07 -1.64827e-08 0 1.65709e-07 0 1.59718e-07)
(1.56544e-07 -1.66759e-08 0 1.66929e-07 0 1.61784e-07)
(1.59465e-07 -1.68734e-08 0 1.6818e-07 0 1.63895e-07)
(1.62454e-07 -1.70871e-08 0 1.69422e-07 0 1.66032e-07)
(1.65481e-07 -1.73251e-08 0 1.70659e-07 0 1.68181e-07)
(1.6852e-07 -1.75835e-08 0 1.71824e-07 0 1.70292e-07)
(1.71551e-07 -1.78633e-08 0 1.72916e-07 0 1.72352e-07)
(1.745e-07 -1.81592e-08 0 1.73913e-07 0 1.74314e-07)
(1.77278e-07 -1.84695e-08 0 1.74813e-07 0 1.76141e-07)
(1.79824e-07 -1.87734e-08 0 1.75627e-07 0 1.77808e-07)
(1.82188e-07 -1.90741e-08 0 1.76339e-07 0 1.79327e-07)
(1.84436e-07 -1.93662e-08 0 1.76976e-07 0 1.80754e-07)
(1.86638e-07 -1.96382e-08 0 1.77609e-07 0 1.82141e-07)
(1.88906e-07 -1.99067e-08 0 1.78323e-07 0 1.83607e-07)
(1.91381e-07 -2.01802e-08 0 1.79143e-07 0 1.85224e-07)
(1.9408e-07 -2.04748e-08 0 1.80095e-07 0 1.87033e-07)
(1.96909e-07 -2.07767e-08 0 1.81112e-07 0 1.88936e-07)
(1.99604e-07 -2.10785e-08 0 1.82117e-07 0 1.90779e-07)
(2.01927e-07 -2.13557e-08 0 1.83007e-07 0 1.92377e-07)
(2.03786e-07 -2.15822e-08 0 1.83661e-07 0 1.9362e-07)
(2.05019e-07 -2.17486e-08 0 1.84074e-07 0 1.94429e-07)
(2.05485e-07 -2.18404e-08 0 1.84274e-07 0 1.94758e-07)
(2.0503e-07 -2.18305e-08 0 1.84156e-07 0 1.9448e-07)
(2.03582e-07 -2.16863e-08 0 1.83626e-07 0 1.93495e-07)
(2.01282e-07 -2.14325e-08 0 1.82739e-07 0 1.9191e-07)
(1.98337e-07 -2.10823e-08 0 1.81522e-07 0 1.89834e-07)
(1.94875e-07 -2.06629e-08 0 1.80026e-07 0 1.87361e-07)
(1.91007e-07 -2.01934e-08 0 1.78279e-07 0 1.84559e-07)
(1.86852e-07 -1.96895e-08 0 1.76283e-07 0 1.81486e-07)
(1.82461e-07 -1.91574e-08 0 1.74145e-07 0 1.78232e-07)
(1.77847e-07 -1.85802e-08 0 1.71773e-07 0 1.74743e-07)
(1.73047e-07 -1.79797e-08 0 1.69224e-07 0 1.71078e-07)
(1.68077e-07 -1.73475e-08 0 1.66505e-07 0 1.67237e-07)
(1.62929e-07 -1.66862e-08 0 1.63594e-07 0 1.63208e-07)
(1.57708e-07 -1.60077e-08 0 1.60551e-07 0 1.59083e-07)
(1.52398e-07 -1.53083e-08 0 1.57357e-07 0 1.5483e-07)
(1.47167e-07 -1.46206e-08 0 1.54094e-07 0 1.50592e-07)
(1.42051e-07 -1.39467e-08 0 1.50818e-07 0 1.46394e-07)
(1.37221e-07 -1.3315e-08 0 1.47617e-07 0 1.42379e-07)
(1.32742e-07 -1.27323e-08 0 1.4458e-07 0 1.38619e-07)
(1.28729e-07 -1.22197e-08 0 1.41787e-07 0 1.35211e-07)
(1.2527e-07 -1.17922e-08 0 1.39346e-07 0 1.32258e-07)
(1.22419e-07 -1.14534e-08 0 1.37309e-07 0 1.2981e-07)
(1.20229e-07 -1.12158e-08 0 1.35733e-07 0 1.27923e-07)
(1.18734e-07 -1.10827e-08 0 1.34666e-07 0 1.26638e-07)
(1.17922e-07 -1.10501e-08 0 1.34107e-07 0 1.25951e-07)
(1.17783e-07 -1.11243e-08 0 1.34054e-07 0 1.25853e-07)
(1.18233e-07 -1.12719e-08 0 1.3438e-07 0 1.26241e-07)
(1.18931e-07 -1.1435e-08 0 1.3476e-07 0 1.2678e-07)
(1.19901e-07 -1.16225e-08 0 1.35214e-07 0 1.27491e-07)
(1.21124e-07 -1.1822e-08 0 1.35725e-07 0 1.28362e-07)
(1.22497e-07 -1.20281e-08 0 1.36255e-07 0 1.29312e-07)
(1.24071e-07 -1.22519e-08 0 1.36831e-07 0 1.30391e-07)
(1.25815e-07 -1.24807e-08 0 1.37434e-07 0 1.31566e-07)
(1.27687e-07 -1.27126e-08 0 1.38056e-07 0 1.32815e-07)
(1.29666e-07 -1.29457e-08 0 1.38688e-07 0 1.34123e-07)
(1.31727e-07 -1.31758e-08 0 1.39336e-07 0 1.35477e-07)
(1.33803e-07 -1.33966e-08 0 1.39982e-07 0 1.36844e-07)
(1.35919e-07 -1.36188e-08 0 1.40692e-07 0 1.38255e-07)
(1.38121e-07 -1.38478e-08 0 1.41507e-07 0 1.39766e-07)
(1.40253e-07 -1.40684e-08 0 1.42348e-07 0 1.41253e-07)
(1.42218e-07 -1.42693e-08 0 1.43148e-07 0 1.42636e-07)
(1.43976e-07 -1.44471e-08 0 1.43885e-07 0 1.43883e-07)
(1.45508e-07 -1.46036e-08 0 1.44556e-07 0 1.44986e-07)
(1.46809e-07 -1.47408e-08 0 1.45159e-07 0 1.45938e-07)
(1.47898e-07 -1.48646e-08 0 1.45704e-07 0 1.46756e-07)
(1.48806e-07 -1.49802e-08 0 1.46198e-07 0 1.47456e-07)
(1.49587e-07 -1.50943e-08 0 1.46652e-07 0 1.48071e-07)
(1.50267e-07 -1.52136e-08 0 1.47094e-07 0 1.4863e-07)
(1.50986e-07 -1.53488e-08 0 1.47497e-07 0 1.49187e-07)
(1.51725e-07 -1.55239e-08 0 1.4807e-07 0 1.49849e-07)
(1.52838e-07 -1.57933e-08 0 1.48834e-07 0 1.50772e-07)
(1.53702e-07 -1.63846e-08 0 1.49091e-07 0 1.51399e-07)
(1.53933e-07 -1.6899e-08 0 1.49272e-07 0 1.51549e-07)
(1.56345e-07 -1.77517e-08 0 1.50328e-07 0 1.53564e-07)
(5.70459e-08 -2.99068e-09 0 6.4185e-08 0 6.08027e-08)
(5.64802e-08 -3.00064e-09 0 6.4043e-08 0 6.04244e-08)
(5.61924e-08 -3.02773e-09 0 6.39702e-08 0 6.02448e-08)
(5.61918e-08 -3.07398e-09 0 6.40264e-08 0 6.02558e-08)
(5.63762e-08 -3.13064e-09 0 6.41756e-08 0 6.04091e-08)
(5.66958e-08 -3.17349e-09 0 6.43156e-08 0 6.06246e-08)
(5.71397e-08 -3.21777e-09 0 6.44708e-08 0 6.09054e-08)
(5.76641e-08 -3.25417e-09 0 6.46269e-08 0 6.12309e-08)
(5.82856e-08 -3.28955e-09 0 6.48044e-08 0 6.16105e-08)
(5.89876e-08 -3.31907e-09 0 6.49681e-08 0 6.20251e-08)
(5.97632e-08 -3.34646e-09 0 6.51186e-08 0 6.24712e-08)
(6.05877e-08 -3.3723e-09 0 6.52583e-08 0 6.29389e-08)
(6.14482e-08 -3.40059e-09 0 6.53892e-08 0 6.34229e-08)
(6.23284e-08 -3.42966e-09 0 6.55075e-08 0 6.39111e-08)
(6.32246e-08 -3.4623e-09 0 6.5609e-08 0 6.43992e-08)
(6.41253e-08 -3.49854e-09 0 6.56941e-08 0 6.48827e-08)
(6.50109e-08 -3.53655e-09 0 6.57611e-08 0 6.53504e-08)
(6.58748e-08 -3.57839e-09 0 6.58114e-08 0 6.57992e-08)
(6.66994e-08 -3.62158e-09 0 6.58383e-08 0 6.62173e-08)
(6.7462e-08 -3.66456e-09 0 6.58413e-08 0 6.65947e-08)
(6.81494e-08 -3.70599e-09 0 6.5824e-08 0 6.69273e-08)
(6.87725e-08 -3.74491e-09 0 6.57836e-08 0 6.72189e-08)
(6.93635e-08 -3.77834e-09 0 6.57274e-08 0 6.74888e-08)
(6.99464e-08 -3.8104e-09 0 6.56748e-08 0 6.77543e-08)
(7.05624e-08 -3.84194e-09 0 6.5636e-08 0 6.80477e-08)
(7.12351e-08 -3.87214e-09 0 6.56426e-08 0 6.83921e-08)
(7.19774e-08 -3.90826e-09 0 6.57026e-08 0 6.88025e-08)
(7.27665e-08 -3.94325e-09 0 6.58037e-08 0 6.92546e-08)
(7.35221e-08 -3.97548e-09 0 6.59246e-08 0 6.97028e-08)
(7.41656e-08 -3.99689e-09 0 6.60383e-08 0 7.009e-08)
(7.46506e-08 -4.00558e-09 0 6.61284e-08 0 7.03852e-08)
(7.49424e-08 -3.9993e-09 0 6.6188e-08 0 7.05675e-08)
(7.50211e-08 -3.97956e-09 0 6.62136e-08 0 7.06253e-08)
(7.48242e-08 -3.93355e-09 0 6.61575e-08 0 7.05048e-08)
(7.43182e-08 -3.85239e-09 0 6.59907e-08 0 7.01699e-08)
(7.35502e-08 -3.7491e-09 0 6.57276e-08 0 6.96553e-08)
(7.2578e-08 -3.62647e-09 0 6.53817e-08 0 6.89954e-08)
(7.14487e-08 -3.49263e-09 0 6.49696e-08 0 6.82239e-08)
(7.02004e-08 -3.35239e-09 0 6.45054e-08 0 6.73676e-08)
(6.88781e-08 -3.2136e-09 0 6.39972e-08 0 6.64507e-08)
(6.75154e-08 -3.07333e-09 0 6.34697e-08 0 6.55061e-08)
(6.61071e-08 -2.92824e-09 0 6.29136e-08 0 6.45211e-08)
(6.46684e-08 -2.78227e-09 0 6.23439e-08 0 6.35157e-08)
(6.32158e-08 -2.62905e-09 0 6.17557e-08 0 6.24974e-08)
(6.17472e-08 -2.47993e-09 0 6.11658e-08 0 6.14662e-08)
(6.02962e-08 -2.33509e-09 0 6.05813e-08 0 6.04508e-08)
(5.88647e-08 -2.19701e-09 0 6.0008e-08 0 5.94473e-08)
(5.74886e-08 -2.07244e-09 0 5.9465e-08 0 5.84898e-08)
(5.61855e-08 -1.96185e-09 0 5.89595e-08 0 5.75841e-08)
(5.49891e-08 -1.87215e-09 0 5.8501e-08 0 5.67568e-08)
(5.39127e-08 -1.7996e-09 0 5.81001e-08 0 5.60174e-08)
(5.29721e-08 -1.74944e-09 0 5.77613e-08 0 5.5376e-08)
(5.21825e-08 -1.72052e-09 0 5.74854e-08 0 5.48418e-08)
(5.1542e-08 -1.70961e-09 0 5.72716e-08 0 5.44128e-08)
(5.10555e-08 -1.71855e-09 0 5.71135e-08 0 5.40897e-08)
(5.07221e-08 -1.74233e-09 0 5.70111e-08 0 5.38708e-08)
(5.05355e-08 -1.77914e-09 0 5.69574e-08 0 5.37504e-08)
(5.04874e-08 -1.831e-09 0 5.6951e-08 0 5.37225e-08)
(5.05676e-08 -1.88793e-09 0 5.69629e-08 0 5.3769e-08)
(5.07136e-08 -1.94243e-09 0 5.6951e-08 0 5.38362e-08)
(5.09269e-08 -1.99761e-09 0 5.6921e-08 0 5.39275e-08)
(5.12048e-08 -2.04702e-09 0 5.68664e-08 0 5.40414e-08)
(5.15209e-08 -2.09369e-09 0 5.68005e-08 0 5.41662e-08)
(5.18893e-08 -2.14171e-09 0 5.67151e-08 0 5.431e-08)
(5.22998e-08 -2.18331e-09 0 5.66207e-08 0 5.44692e-08)
(5.27441e-08 -2.22129e-09 0 5.65176e-08 0 5.46407e-08)
(5.32148e-08 -2.25517e-09 0 5.6409e-08 0 5.4823e-08)
(5.37057e-08 -2.28261e-09 0 5.62997e-08 0 5.50141e-08)
(5.4196e-08 -2.30134e-09 0 5.61905e-08 0 5.52065e-08)
(5.4697e-08 -2.32099e-09 0 5.61108e-08 0 5.54165e-08)
(5.52119e-08 -2.33271e-09 0 5.60522e-08 0 5.56463e-08)
(5.57017e-08 -2.33866e-09 0 5.60186e-08 0 5.58753e-08)
(5.61491e-08 -2.33972e-09 0 5.59985e-08 0 5.609e-08)
(5.65442e-08 -2.33642e-09 0 5.59879e-08 0 5.62829e-08)
(5.68816e-08 -2.33007e-09 0 5.59863e-08 0 5.64518e-08)
(5.71602e-08 -2.32254e-09 0 5.59939e-08 0 5.65952e-08)
(5.73849e-08 -2.31596e-09 0 5.60094e-08 0 5.67158e-08)
(5.75645e-08 -2.31351e-09 0 5.60315e-08 0 5.68164e-08)
(5.77119e-08 -2.31657e-09 0 5.60572e-08 0 5.69025e-08)
(5.78384e-08 -2.32703e-09 0 5.60854e-08 0 5.69793e-08)
(5.79641e-08 -2.34756e-09 0 5.61116e-08 0 5.70534e-08)
(5.80987e-08 -2.38254e-09 0 5.61404e-08 0 5.71363e-08)
(5.82578e-08 -2.40252e-09 0 5.61835e-08 0 5.72244e-08)
(5.83872e-08 -2.40626e-09 0 5.61243e-08 0 5.72528e-08)
(5.84673e-08 -2.34414e-09 0 5.61475e-08 0 5.72914e-08)
(5.89075e-08 -2.45098e-09 0 5.67677e-08 0 5.78223e-08)
(4.49415e-08 -1.56173e-09 0 5.11814e-08 0 4.79968e-08)
(4.47303e-08 -1.66663e-09 0 5.12737e-08 0 4.79423e-08)
(4.46067e-08 -1.73548e-09 0 5.13345e-08 0 4.79166e-08)
(4.46526e-08 -1.80994e-09 0 5.13301e-08 0 4.7932e-08)
(4.46954e-08 -1.87922e-09 0 5.13336e-08 0 4.79599e-08)
(4.48455e-08 -1.9144e-09 0 5.12595e-08 0 4.80011e-08)
(4.50371e-08 -1.95045e-09 0 5.11668e-08 0 4.80523e-08)
(4.52903e-08 -1.96348e-09 0 5.10171e-08 0 4.81091e-08)
(4.5595e-08 -1.96893e-09 0 5.08486e-08 0 4.81784e-08)
(4.59304e-08 -1.9597e-09 0 5.06636e-08 0 4.82546e-08)
(4.62989e-08 -1.94186e-09 0 5.04572e-08 0 4.83372e-08)
(4.66873e-08 -1.91612e-09 0 5.0237e-08 0 4.84244e-08)
(4.7093e-08 -1.88738e-09 0 5.00018e-08 0 4.85154e-08)
(4.75038e-08 -1.85286e-09 0 4.97665e-08 0 4.86089e-08)
(4.79262e-08 -1.81772e-09 0 4.95241e-08 0 4.87043e-08)
(4.83459e-08 -1.78518e-09 0 4.92855e-08 0 4.88005e-08)
(4.87529e-08 -1.75739e-09 0 4.90562e-08 0 4.88948e-08)
(4.91507e-08 -1.73489e-09 0 4.88333e-08 0 4.89868e-08)
(4.95394e-08 -1.71809e-09 0 4.8614e-08 0 4.90741e-08)
(4.99021e-08 -1.70448e-09 0 4.84042e-08 0 4.91537e-08)
(5.02351e-08 -1.69678e-09 0 4.82079e-08 0 4.92245e-08)
(5.05495e-08 -1.69322e-09 0 4.80234e-08 0 4.92892e-08)
(5.08442e-08 -1.69138e-09 0 4.78529e-08 0 4.93514e-08)
(5.11514e-08 -1.6904e-09 0 4.76781e-08 0 4.9415e-08)
(5.14558e-08 -1.68972e-09 0 4.75257e-08 0 4.94884e-08)
(5.17881e-08 -1.68496e-09 0 4.73762e-08 0 4.95764e-08)
(5.21421e-08 -1.67665e-09 0 4.72372e-08 0 4.96828e-08)
(5.24897e-08 -1.66122e-09 0 4.71254e-08 0 4.97981e-08)
(5.28167e-08 -1.63794e-09 0 4.70252e-08 0 4.99118e-08)
(5.30786e-08 -1.60529e-09 0 4.69601e-08 0 5.00091e-08)
(5.32787e-08 -1.56539e-09 0 4.69102e-08 0 5.00834e-08)
(5.33873e-08 -1.51798e-09 0 4.68911e-08 0 5.01275e-08)
(5.34007e-08 -1.47258e-09 0 4.69006e-08 0 5.01379e-08)
(5.33122e-08 -1.41669e-09 0 4.69123e-08 0 5.01011e-08)
(5.31029e-08 -1.35391e-09 0 4.69334e-08 0 5.00077e-08)
(5.27989e-08 -1.29192e-09 0 4.6957e-08 0 4.98691e-08)
(5.24136e-08 -1.22904e-09 0 4.69915e-08 0 4.96947e-08)
(5.19697e-08 -1.17047e-09 0 4.70352e-08 0 4.94953e-08)
(5.14811e-08 -1.1149e-09 0 4.70884e-08 0 4.92792e-08)
(5.09617e-08 -1.06934e-09 0 4.71558e-08 0 4.90532e-08)
(5.04411e-08 -1.02172e-09 0 4.72206e-08 0 4.8828e-08)
(4.98942e-08 -9.7208e-10 0 4.73073e-08 0 4.85987e-08)
(4.93609e-08 -9.30767e-10 0 4.73915e-08 0 4.83758e-08)
(4.88049e-08 -8.84897e-10 0 4.75093e-08 0 4.81557e-08)
(4.82459e-08 -8.45172e-10 0 4.76423e-08 0 4.79419e-08)
(4.77041e-08 -8.05874e-10 0 4.7779e-08 0 4.77412e-08)
(4.71502e-08 -7.75406e-10 0 4.79564e-08 0 4.75507e-08)
(4.6632e-08 -7.53389e-10 0 4.81287e-08 0 4.73793e-08)
(4.61294e-08 -7.42936e-10 0 4.8327e-08 0 4.72258e-08)
(4.56727e-08 -7.46307e-10 0 4.85222e-08 0 4.70945e-08)
(4.52582e-08 -7.58567e-10 0 4.87198e-08 0 4.6985e-08)
(4.48889e-08 -7.8434e-10 0 4.89164e-08 0 4.68964e-08)
(4.4581e-08 -8.23334e-10 0 4.90897e-08 0 4.68277e-08)
(4.43262e-08 -8.66743e-10 0 4.92445e-08 0 4.67762e-08)
(4.41334e-08 -9.22802e-10 0 4.93679e-08 0 4.674e-08)
(4.39976e-08 -9.78874e-10 0 4.94595e-08 0 4.67168e-08)
(4.39246e-08 -1.04044e-09 0 4.95099e-08 0 4.67049e-08)
(4.39015e-08 -1.10359e-09 0 4.95307e-08 0 4.67031e-08)
(4.39401e-08 -1.16408e-09 0 4.94997e-08 0 4.67072e-08)
(4.40212e-08 -1.21918e-09 0 4.94269e-08 0 4.67113e-08)
(4.4132e-08 -1.26546e-09 0 4.93268e-08 0 4.67163e-08)
(4.42906e-08 -1.30695e-09 0 4.91748e-08 0 4.6721e-08)
(4.44653e-08 -1.33842e-09 0 4.90139e-08 0 4.67276e-08)
(4.46766e-08 -1.37271e-09 0 4.88152e-08 0 4.67352e-08)
(4.4908e-08 -1.39422e-09 0 4.86035e-08 0 4.67455e-08)
(4.51644e-08 -1.41105e-09 0 4.83718e-08 0 4.67582e-08)
(4.54362e-08 -1.42214e-09 0 4.81297e-08 0 4.67738e-08)
(4.57163e-08 -1.42199e-09 0 4.78875e-08 0 4.67927e-08)
(4.59949e-08 -1.41292e-09 0 4.76459e-08 0 4.68125e-08)
(4.62707e-08 -1.40177e-09 0 4.74225e-08 0 4.68383e-08)
(4.65487e-08 -1.37879e-09 0 4.72062e-08 0 4.68691e-08)
(4.6802e-08 -1.34822e-09 0 4.70158e-08 0 4.69009e-08)
(4.70313e-08 -1.31448e-09 0 4.68484e-08 0 4.6932e-08)
(4.72298e-08 -1.2787e-09 0 4.67078e-08 0 4.69608e-08)
(4.73955e-08 -1.2426e-09 0 4.6593e-08 0 4.69864e-08)
(4.75282e-08 -1.20891e-09 0 4.65036e-08 0 4.7008e-08)
(4.76306e-08 -1.17983e-09 0 4.64363e-08 0 4.70258e-08)
(4.77065e-08 -1.15721e-09 0 4.63896e-08 0 4.70406e-08)
(4.77692e-08 -1.14361e-09 0 4.63531e-08 0 4.70534e-08)
(4.78184e-08 -1.13705e-09 0 4.63285e-08 0 4.70653e-08)
(4.78677e-08 -1.14983e-09 0 4.63027e-08 0 4.70763e-08)
(4.79219e-08 -1.15934e-09 0 4.62681e-08 0 4.70878e-08)
(4.79684e-08 -1.18596e-09 0 4.62365e-08 0 4.70968e-08)
(4.79714e-08 -1.22363e-09 0 4.61799e-08 0 4.70852e-08)
(4.80818e-08 -1.32879e-09 0 4.60953e-08 0 4.70958e-08)
(4.81508e-08 -1.30731e-09 0 4.58924e-08 0 4.70993e-08)
(4.29563e-08 -1.40085e-09 0 4.86857e-08 0 4.59109e-08)
(4.28307e-08 -1.53506e-09 0 4.88058e-08 0 4.59162e-08)
(4.27241e-08 -1.62063e-09 0 4.89459e-08 0 4.59316e-08)
(4.27969e-08 -1.69387e-09 0 4.89495e-08 0 4.59534e-08)
(4.2824e-08 -1.79018e-09 0 4.89725e-08 0 4.59726e-08)
(4.29648e-08 -1.82749e-09 0 4.88898e-08 0 4.599e-08)
(4.31015e-08 -1.87888e-09 0 4.8802e-08 0 4.60042e-08)
(4.33181e-08 -1.89608e-09 0 4.86252e-08 0 4.6015e-08)
(4.35636e-08 -1.91252e-09 0 4.84289e-08 0 4.60285e-08)
(4.3831e-08 -1.90659e-09 0 4.82113e-08 0 4.60417e-08)
(4.41192e-08 -1.89173e-09 0 4.79725e-08 0 4.60556e-08)
(4.44251e-08 -1.86696e-09 0 4.77148e-08 0 4.60705e-08)
(4.47446e-08 -1.84138e-09 0 4.74418e-08 0 4.60868e-08)
(4.50641e-08 -1.80654e-09 0 4.71737e-08 0 4.61058e-08)
(4.53915e-08 -1.77022e-09 0 4.69043e-08 0 4.61283e-08)
(4.57205e-08 -1.73364e-09 0 4.66349e-08 0 4.61529e-08)
(4.60476e-08 -1.70181e-09 0 4.63699e-08 0 4.61794e-08)
(4.63691e-08 -1.67212e-09 0 4.61135e-08 0 4.62079e-08)
(4.66713e-08 -1.64505e-09 0 4.58792e-08 0 4.62381e-08)
(4.6971e-08 -1.61921e-09 0 4.56411e-08 0 4.62665e-08)
(4.72469e-08 -1.60146e-09 0 4.54184e-08 0 4.62932e-08)
(4.75106e-08 -1.58893e-09 0 4.52006e-08 0 4.6318e-08)
(4.77637e-08 -1.57813e-09 0 4.49926e-08 0 4.63428e-08)
(4.80098e-08 -1.56662e-09 0 4.47947e-08 0 4.63685e-08)
(4.82705e-08 -1.55766e-09 0 4.45843e-08 0 4.63971e-08)
(4.85374e-08 -1.54306e-09 0 4.43741e-08 0 4.64292e-08)
(4.87999e-08 -1.52127e-09 0 4.4173e-08 0 4.64652e-08)
(4.90511e-08 -1.48209e-09 0 4.39877e-08 0 4.65022e-08)
(4.9284e-08 -1.43406e-09 0 4.38169e-08 0 4.65385e-08)
(4.94807e-08 -1.37598e-09 0 4.36762e-08 0 4.65708e-08)
(4.96103e-08 -1.3043e-09 0 4.3587e-08 0 4.65944e-08)
(4.96768e-08 -1.22584e-09 0 4.35434e-08 0 4.66084e-08)
(4.96786e-08 -1.15019e-09 0 4.35488e-08 0 4.66121e-08)
(4.96286e-08 -1.07815e-09 0 4.35765e-08 0 4.66027e-08)
(4.94984e-08 -1.00136e-09 0 4.36509e-08 0 4.65753e-08)
(4.93065e-08 -9.3548e-10 0 4.37579e-08 0 4.65341e-08)
(4.90639e-08 -8.72905e-10 0 4.38968e-08 0 4.64828e-08)
(4.8778e-08 -8.23178e-10 0 4.40675e-08 0 4.64253e-08)
(4.84698e-08 -7.75879e-10 0 4.42528e-08 0 4.63647e-08)
(4.81332e-08 -7.43834e-10 0 4.44689e-08 0 4.63036e-08)
(4.77987e-08 -7.1946e-10 0 4.46846e-08 0 4.6245e-08)
(4.74446e-08 -6.84677e-10 0 4.4928e-08 0 4.61882e-08)
(4.70891e-08 -6.55747e-10 0 4.5178e-08 0 4.61352e-08)
(4.67322e-08 -6.30969e-10 0 4.54302e-08 0 4.60858e-08)
(4.63468e-08 -5.98164e-10 0 4.57292e-08 0 4.60414e-08)
(4.59841e-08 -5.79929e-10 0 4.60105e-08 0 4.6003e-08)
(4.55952e-08 -5.58661e-10 0 4.63393e-08 0 4.59719e-08)
(4.52254e-08 -5.59596e-10 0 4.66541e-08 0 4.59469e-08)
(4.48704e-08 -5.57708e-10 0 4.69797e-08 0 4.59312e-08)
(4.45367e-08 -5.80374e-10 0 4.72959e-08 0 4.59224e-08)
(4.42216e-08 -6.14326e-10 0 4.76073e-08 0 4.592e-08)
(4.39457e-08 -6.56138e-10 0 4.78953e-08 0 4.59242e-08)
(4.37077e-08 -7.18456e-10 0 4.81509e-08 0 4.59316e-08)
(4.35112e-08 -7.81519e-10 0 4.83688e-08 0 4.59408e-08)
(4.33634e-08 -8.57552e-10 0 4.85385e-08 0 4.59504e-08)
(4.32594e-08 -9.34061e-10 0 4.866e-08 0 4.59583e-08)
(4.32007e-08 -1.01521e-09 0 4.8733e-08 0 4.59648e-08)
(4.31906e-08 -1.08991e-09 0 4.87507e-08 0 4.59682e-08)
(4.32223e-08 -1.17071e-09 0 4.8719e-08 0 4.59684e-08)
(4.3292e-08 -1.23798e-09 0 4.86425e-08 0 4.59652e-08)
(4.34094e-08 -1.29225e-09 0 4.85117e-08 0 4.59583e-08)
(4.35406e-08 -1.34724e-09 0 4.83594e-08 0 4.59494e-08)
(4.37085e-08 -1.37883e-09 0 4.81709e-08 0 4.59392e-08)
(4.38973e-08 -1.42294e-09 0 4.79576e-08 0 4.59286e-08)
(4.41083e-08 -1.4452e-09 0 4.77236e-08 0 4.59179e-08)
(4.43401e-08 -1.46191e-09 0 4.74708e-08 0 4.59083e-08)
(4.45839e-08 -1.47123e-09 0 4.72093e-08 0 4.59002e-08)
(4.48425e-08 -1.46519e-09 0 4.69371e-08 0 4.58939e-08)
(4.50937e-08 -1.45266e-09 0 4.66755e-08 0 4.58895e-08)
(4.53437e-08 -1.42895e-09 0 4.64233e-08 0 4.58882e-08)
(4.55904e-08 -1.39766e-09 0 4.61752e-08 0 4.58885e-08)
(4.58112e-08 -1.35344e-09 0 4.59569e-08 0 4.58907e-08)
(4.601e-08 -1.30533e-09 0 4.57634e-08 0 4.58939e-08)
(4.61795e-08 -1.25384e-09 0 4.56013e-08 0 4.5898e-08)
(4.63221e-08 -1.20551e-09 0 4.54663e-08 0 4.59022e-08)
(4.64314e-08 -1.15783e-09 0 4.5365e-08 0 4.59062e-08)
(4.65153e-08 -1.11909e-09 0 4.52879e-08 0 4.59099e-08)
(4.65755e-08 -1.08711e-09 0 4.52351e-08 0 4.59135e-08)
(4.66222e-08 -1.06599e-09 0 4.5197e-08 0 4.59173e-08)
(4.666e-08 -1.06145e-09 0 4.51693e-08 0 4.59217e-08)
(4.67021e-08 -1.06227e-09 0 4.51392e-08 0 4.59265e-08)
(4.67412e-08 -1.08421e-09 0 4.51093e-08 0 4.59311e-08)
(4.67813e-08 -1.09559e-09 0 4.50946e-08 0 4.5939e-08)
(4.68346e-08 -1.10103e-09 0 4.50576e-08 0 4.59429e-08)
(4.6881e-08 -1.13586e-09 0 4.50696e-08 0 4.59563e-08)
(4.69241e-08 -1.14806e-09 0 4.50756e-08 0 4.59709e-08)
(4.28039e-08 -1.50168e-09 0 4.88053e-08 0 4.5754e-08)
(4.26387e-08 -1.66869e-09 0 4.89829e-08 0 4.57735e-08)
(4.25778e-08 -1.79587e-09 0 4.90668e-08 0 4.57892e-08)
(4.26141e-08 -1.89569e-09 0 4.90753e-08 0 4.5804e-08)
(4.26826e-08 -2.01735e-09 0 4.89996e-08 0 4.58046e-08)
(4.2768e-08 -2.0777e-09 0 4.89183e-08 0 4.58065e-08)
(4.29528e-08 -2.14277e-09 0 4.87159e-08 0 4.58003e-08)
(4.31107e-08 -2.16507e-09 0 4.85376e-08 0 4.57931e-08)
(4.33661e-08 -2.18932e-09 0 4.82641e-08 0 4.57849e-08)
(4.36172e-08 -2.18315e-09 0 4.79954e-08 0 4.57762e-08)
(4.38833e-08 -2.16364e-09 0 4.77117e-08 0 4.57683e-08)
(4.41748e-08 -2.12866e-09 0 4.73992e-08 0 4.57601e-08)
(4.44646e-08 -2.093e-09 0 4.70852e-08 0 4.57529e-08)
(4.475e-08 -2.04035e-09 0 4.678e-08 0 4.57481e-08)
(4.50449e-08 -1.98278e-09 0 4.64717e-08 0 4.57461e-08)
(4.53439e-08 -1.92443e-09 0 4.61602e-08 0 4.57452e-08)
(4.56347e-08 -1.8768e-09 0 4.58628e-08 0 4.5747e-08)
(4.59195e-08 -1.82948e-09 0 4.55807e-08 0 4.57515e-08)
(4.61989e-08 -1.78531e-09 0 4.53158e-08 0 4.57597e-08)
(4.64684e-08 -1.74584e-09 0 4.50652e-08 0 4.57701e-08)
(4.67272e-08 -1.71438e-09 0 4.48284e-08 0 4.57819e-08)
(4.69699e-08 -1.6918e-09 0 4.4617e-08 0 4.57959e-08)
(4.72126e-08 -1.67845e-09 0 4.44069e-08 0 4.58115e-08)
(4.74497e-08 -1.64293e-09 0 4.42087e-08 0 4.5829e-08)
(4.77036e-08 -1.6291e-09 0 4.4e-08 0 4.58503e-08)
(4.79617e-08 -1.60946e-09 0 4.37934e-08 0 4.58739e-08)
(4.82149e-08 -1.58794e-09 0 4.35907e-08 0 4.58984e-08)
(4.84575e-08 -1.53568e-09 0 4.34001e-08 0 4.59228e-08)
(4.86829e-08 -1.49387e-09 0 4.32177e-08 0 4.59452e-08)
(4.88599e-08 -1.43483e-09 0 4.30765e-08 0 4.59638e-08)
(4.89673e-08 -1.35978e-09 0 4.29932e-08 0 4.59761e-08)
(4.90361e-08 -1.26367e-09 0 4.29428e-08 0 4.59858e-08)
(4.90429e-08 -1.17485e-09 0 4.29436e-08 0 4.59887e-08)
(4.89982e-08 -1.094e-09 0 4.29802e-08 0 4.59852e-08)
(4.8884e-08 -9.99115e-10 0 4.30688e-08 0 4.59725e-08)
(4.87162e-08 -9.2218e-10 0 4.31963e-08 0 4.59533e-08)
(4.85021e-08 -8.47157e-10 0 4.33623e-08 0 4.59297e-08)
(4.82502e-08 -7.90875e-10 0 4.35605e-08 0 4.59036e-08)
(4.79642e-08 -7.40024e-10 0 4.37893e-08 0 4.5876e-08)
(4.76766e-08 -7.01432e-10 0 4.40292e-08 0 4.58514e-08)
(4.73799e-08 -6.74293e-10 0 4.42715e-08 0 4.58268e-08)
(4.70667e-08 -6.33989e-10 0 4.45433e-08 0 4.58058e-08)
(4.67416e-08 -6.10661e-10 0 4.48315e-08 0 4.57875e-08)
(4.64155e-08 -5.68744e-10 0 4.51287e-08 0 4.57727e-08)
(4.60929e-08 -5.3365e-10 0 4.54361e-08 0 4.57632e-08)
(4.5726e-08 -5.18888e-10 0 4.57758e-08 0 4.57531e-08)
(4.53924e-08 -4.8589e-10 0 4.6114e-08 0 4.5753e-08)
(4.50274e-08 -4.9096e-10 0 4.64766e-08 0 4.57539e-08)
(4.46973e-08 -4.88604e-10 0 4.68256e-08 0 4.57623e-08)
(4.43776e-08 -5.18898e-10 0 4.71716e-08 0 4.57746e-08)
(4.40767e-08 -5.62924e-10 0 4.75053e-08 0 4.57904e-08)
(4.38142e-08 -6.13384e-10 0 4.78108e-08 0 4.58097e-08)
(4.35853e-08 -6.92048e-10 0 4.80823e-08 0 4.58295e-08)
(4.33921e-08 -7.70939e-10 0 4.83168e-08 0 4.58486e-08)
(4.32503e-08 -8.65014e-10 0 4.84967e-08 0 4.58659e-08)
(4.31494e-08 -9.58003e-10 0 4.86256e-08 0 4.58792e-08)
(4.30959e-08 -1.05967e-09 0 4.87003e-08 0 4.58889e-08)
(4.30864e-08 -1.14839e-09 0 4.87204e-08 0 4.58937e-08)
(4.31229e-08 -1.25145e-09 0 4.8684e-08 0 4.58941e-08)
(4.31945e-08 -1.33372e-09 0 4.86043e-08 0 4.58903e-08)
(4.33127e-08 -1.39784e-09 0 4.84713e-08 0 4.58825e-08)
(4.34482e-08 -1.47012e-09 0 4.83124e-08 0 4.58721e-08)
(4.3615e-08 -1.50569e-09 0 4.81223e-08 0 4.58603e-08)
(4.38067e-08 -1.56025e-09 0 4.79024e-08 0 4.58475e-08)
(4.40178e-08 -1.58631e-09 0 4.76646e-08 0 4.58348e-08)
(4.42518e-08 -1.60804e-09 0 4.74058e-08 0 4.58227e-08)
(4.44989e-08 -1.61933e-09 0 4.71356e-08 0 4.58118e-08)
(4.47512e-08 -1.61368e-09 0 4.68643e-08 0 4.58026e-08)
(4.50118e-08 -1.60049e-09 0 4.65885e-08 0 4.57953e-08)
(4.52604e-08 -1.56285e-09 0 4.63258e-08 0 4.57891e-08)
(4.55003e-08 -1.53189e-09 0 4.60827e-08 0 4.5787e-08)
(4.57227e-08 -1.47317e-09 0 4.58559e-08 0 4.57851e-08)
(4.59209e-08 -1.41241e-09 0 4.56552e-08 0 4.57845e-08)
(4.6086e-08 -1.35034e-09 0 4.54913e-08 0 4.57852e-08)
(4.62244e-08 -1.28894e-09 0 4.5355e-08 0 4.57866e-08)
(4.63294e-08 -1.22914e-09 0 4.52525e-08 0 4.5788e-08)
(4.64073e-08 -1.18095e-09 0 4.51767e-08 0 4.57895e-08)
(4.64607e-08 -1.14123e-09 0 4.51266e-08 0 4.57913e-08)
(4.65009e-08 -1.11354e-09 0 4.50918e-08 0 4.57936e-08)
(4.65284e-08 -1.11236e-09 0 4.50713e-08 0 4.57968e-08)
(4.6564e-08 -1.10271e-09 0 4.50449e-08 0 4.58004e-08)
(4.65881e-08 -1.13164e-09 0 4.5025e-08 0 4.58033e-08)
(4.66483e-08 -1.13665e-09 0 4.49785e-08 0 4.58087e-08)
(4.66688e-08 -1.17e-09 0 4.49314e-08 0 4.58037e-08)
(4.6726e-08 -1.22467e-09 0 4.4902e-08 0 4.58112e-08)
(4.67415e-08 -1.20077e-09 0 4.47997e-08 0 4.57889e-08)
(4.26511e-08 -1.54633e-09 0 4.85162e-08 0 4.56315e-08)
(4.24875e-08 -1.73906e-09 0 4.86932e-08 0 4.56519e-08)
(4.2444e-08 -1.90247e-09 0 4.87748e-08 0 4.56709e-08)
(4.24668e-08 -2.01195e-09 0 4.88184e-08 0 4.56914e-08)
(4.25789e-08 -2.16798e-09 0 4.87375e-08 0 4.5699e-08)
(4.26698e-08 -2.2446e-09 0 4.86775e-08 0 4.57057e-08)
(4.28522e-08 -2.33162e-09 0 4.85094e-08 0 4.57045e-08)
(4.30351e-08 -2.36954e-09 0 4.83285e-08 0 4.5699e-08)
(4.3266e-08 -2.41569e-09 0 4.8107e-08 0 4.56937e-08)
(4.35419e-08 -2.42522e-09 0 4.78361e-08 0 4.5686e-08)
(4.38099e-08 -2.41987e-09 0 4.75751e-08 0 4.56803e-08)
(4.41105e-08 -2.39956e-09 0 4.72792e-08 0 4.56737e-08)
(4.43919e-08 -2.38421e-09 0 4.69978e-08 0 4.56677e-08)
(4.46827e-08 -2.35751e-09 0 4.67097e-08 0 4.56636e-08)
(4.49723e-08 -2.31609e-09 0 4.64272e-08 0 4.56619e-08)
(4.52661e-08 -2.26881e-09 0 4.61402e-08 0 4.56617e-08)
(4.55495e-08 -2.22532e-09 0 4.58676e-08 0 4.5665e-08)