/*--------------------------------*- C++ -*----------------------------------*\
| =========                 |                                                 |
| \\      /  F ield         | OpenFOAM: The Open Source CFD Toolbox           |
|  \\    /   O peration     | Version:  v1912                                 |
|   \\  /    A nd           | Website:  www.openfoam.com                      |
|    \\/     M anipulation  |                                                 |
\*---------------------------------------------------------------------------*/
FoamFile
{
    version     2.0;
    format      ascii;
    class       volScalarField;
    location    "90";
    object      alpha.water;
}
// * * * * * * * * * * * * * * * * * * * * * * * * * * * * * * * * * * * * * //

dimensions      [0 0 0 0 0 0 0];


internalField   nonuniform List<scalar> 
14268
(
1
1
1
1
1
1
1
1
1
1
1
1
1
1
1
1
1
1
1
1
1
1
1
1
1
1
1
1
1
1
1
1
1
1
1
1
1
1
1
1
1
1
1
1
1
1
1
1
1
1
1
1
1
1
1
1
1
1
1
1
1
1
1
1
1
1
1
1
1
1
1
1
1
1
1
1
1
1
1
1
1
1
1
1
1
1
1
1
1
1
1
1
1
1
1
1
1
1
1
1
1
1
1
1
1
1
1
1
1
1
1
1
1
1
1
1
1
1
1
1
1
1
1
1
1
1
1
1
1
1
1
1
1
1
1
1
1
1
1
1
1
1
1
1
1
1
1
1
1
1
1
1
1
1
1
1
1
1
1
1
1
1
1
1
1
1
1
1
1
1
1
1
1
1
1
1
1
1
1
1
1
1
1
1
1
1
1
1
1
1
1
1
1
1
1
1
1
1
1
1
1
1
1
1
1
1
1
1
1
1
1
1
1
1
1
1
1
1
1
1
1
1
1
1
1
1
1
1
1
1
1
1
1
1
1
1
1
1
1
1
1
1
1
1
1
1
1
1
1
1
1
1
1
1
1
1
1
1
1
1
1
1
1
0.999999
0.999998
0.999999
0.999999
0.999999
0.999999
0.999999
0.999997
0.99999
0.99997
0.999977
0.999985
0.999991
0.999991
0.999988
0.999972
0.999909
0.943802
0.993198
0.999851
0.999893
0.999891
0.999859
0.999716
0.999152
0.449341
0.676781
0.846895
0.939543
0.982946
0.996089
0.996975
0.99056
0.0234362
0.0780403
0.224254
0.433401
0.607467
0.714951
0.777766
0.796855
0.000554324
0.0018762
0.00610198
0.0207387
0.0529021
0.0932952
0.127514
0.161891
7.03139e-06
3.08404e-05
0.000125163
0.00043531
0.00104762
0.00188649
0.00304656
0.0046554
1.51652e-09
9.96413e-10
6.43684e-10
5.62531e-10
7.34116e-10
1.62376e-09
2.19834e-09
1.17314e-09
1.83407e-10
1.04589e-10
1.08566e-10
1.44823e-10
5.3974e-10
1.78449e-09
2.89394e-09
1.4476e-09
5.5599e-11
7.3232e-11
1.29807e-10
4.52859e-10
1.87519e-09
4.4964e-09
5.20462e-09
4.51391e-09
3.31748e-11
7.47621e-11
1.89659e-10
6.33801e-10
2.0131e-09
3.53697e-09
4.64673e-09
4.90673e-09
2.64176e-11
7.10615e-11
1.87427e-10
4.90685e-10
7.17723e-10
7.55658e-10
1.45466e-09
3.94628e-09
1.07337e-11
3.13616e-11
8.42671e-11
1.21789e-10
1.16964e-10
9.46051e-11
2.12423e-10
1.38893e-09
1.84816e-12
5.54577e-12
1.27986e-11
1.60815e-11
9.03522e-12
7.71509e-12
1.33843e-11
2.06942e-10
1.91565e-13
5.22378e-13
1.13073e-12
1.25562e-12
2.14473e-12
3.95244e-12
5.24624e-12
7.87445e-12
8.19073e-15
1.3905e-14
9.46327e-14
4.62566e-13
1.18358e-12
1.77902e-12
2.2405e-12
2.88482e-12
1.80029e-15
3.07447e-15
3.17706e-14
2.39641e-13
5.78884e-13
8.12703e-13
9.27531e-13
9.2173e-13
3.81532e-16
6.75965e-16
7.97779e-15
7.72334e-14
1.99268e-13
2.6328e-13
2.74572e-13
2.26415e-13
7.6077e-17
1.43842e-16
1.2703e-15
1.11592e-14
2.96612e-14
3.93449e-14
2.88446e-14
2.17248e-14
1.50782e-17
2.99944e-17
9.59816e-17
4.00265e-16
1.12012e-15
1.77583e-15
2.06656e-15
1.90504e-15
3.11153e-18
6.26195e-18
1.43412e-17
4.33605e-17
1.09659e-16
1.63513e-16
1.76691e-16
1.38417e-16
6.31888e-19
1.16618e-18
1.8838e-18
3.51991e-18
7.07729e-18
9.82176e-18
9.42534e-18
5.68525e-18
1.05485e-19
1.74626e-19
2.17743e-19
2.16396e-19
2.48303e-19
2.83744e-19
2.02669e-19
6.61203e-20
1.24626e-20
1.87612e-20
2.20322e-20
1.42569e-20
3.79695e-21
6.66636e-22
4.73345e-22
3.84988e-22
9.90421e-22
1.37383e-21
1.54889e-21
9.54856e-22
2.31138e-22
3.65187e-23
2.93836e-23
3.56043e-23
5.60007e-23
5.23405e-23
5.41135e-23
3.27108e-23
7.59207e-24
1.55297e-24
1.87855e-24
4.72039e-24
3.10377e-24
1.60229e-27
2.51491e-28
1.01021e-26
2.51955e-26
4.61374e-26
1.0476e-25
1.11892e-24
2.69246e-25
2.28664e-27
3.26122e-29
1.19105e-28
4.31064e-28
1.22887e-27
1.1871e-26
1.86988e-25
2.29282e-26
2.92612e-27
2.56467e-29
2.23306e-30
8.84555e-30
3.35405e-29
1.31384e-27
2.11973e-26
1.33119e-27
1.86188e-27
2.94741e-29
3.12157e-32
1.17532e-31
5.56191e-31
1.17332e-28
1.82423e-27
7.2576e-29
2.75454e-28
1.25917e-29
4.36673e-34
1.46726e-34
3.17496e-33
7.28105e-30
1.05995e-28
2.11274e-31
1.94685e-30
1.41355e-30
1.24278e-33
1.68725e-35
4.58371e-35
2.28641e-31
2.88188e-30
2.1973e-35
3.58725e-35
1.03933e-34
5.32599e-34
1.10309e-35
2.8177e-37
5.84005e-37
1.7593e-32
3.70247e-36
1.27979e-35
8.12883e-36
2.6807e-35
3.37286e-36
5.09376e-38
5.56615e-37
3.13748e-34
5.80858e-37
1.85124e-36
7.68709e-37
3.22319e-37
1.05665e-37
3.1308e-38
2.25486e-37
2.29344e-38
5.8967e-38
1.20597e-37
1.00125e-37
3.59151e-38
1.3436e-39
2.77927e-39
2.47455e-38
2.29337e-38
4.74723e-39
1.08563e-38
8.90708e-39
3.02053e-39
6.48647e-41
3.18159e-41
1.7333e-39
1.32752e-38
-9.90044e-41
3.97164e-40
3.58568e-40
8.16629e-41
-3.9606e-42
-7.52967e-61
2.08416e-40
1.82002e-39
-3.02534e-40
-5.5205e-41
-2.43805e-41
-1.22285e-41
-2.10338e-41
-9.55444e-42
2.40362e-43
1.0494e-41
-2.97577e-40
-1.43815e-40
-7.77041e-41
-4.37256e-41
-2.6839e-41
-1.32805e-41
-4.21376e-42
-4.05154e-44
-2.17126e-40
-1.2344e-40
-6.99634e-41
-3.94884e-41
-2.21577e-41
-1.17474e-41
-5.42099e-42
-1.92226e-42
-1.52839e-40
-8.96737e-41
-5.18597e-41
-2.95132e-41
-1.65841e-41
-9.11675e-42
-4.75306e-42
-2.23475e-42
-1.13924e-40
-6.72852e-41
-3.92429e-41
-2.24305e-41
-1.26889e-41
-7.05218e-42
-3.80573e-42
-1.91033e-42
-9.01463e-41
-5.33106e-41
-3.11742e-41
-1.7826e-41
-1.01157e-41
-5.63485e-42
-3.06125e-42
-1.55664e-42
-7.38517e-41
-4.35413e-41
-2.53742e-41
-1.44049e-41
-8.12697e-42
-4.50157e-42
-2.42264e-42
-1.22419e-42
-1.67249e-41
-1.01213e-41
-6.0606e-42
-3.49484e-42
-1.99369e-42
-1.10379e-42
-5.98636e-43
-3.08997e-43
-3.32313e-42
-2.03193e-42
-1.21139e-42
-7.00378e-43
-3.9258e-43
-2.14263e-43
-1.138e-43
-5.82545e-44
-5.55618e-43
-3.39217e-43
-2.01062e-43
-1.15005e-43
-6.35273e-44
-3.38448e-44
-1.74008e-44
-8.58543e-45
-7.21242e-44
-4.36574e-44
-2.55546e-44
-1.43812e-44
-7.78576e-45
-4.05097e-45
-2.02582e-45
-9.7029e-46
-7.1914e-45
-4.30686e-45
-2.48431e-45
-1.37272e-45
-7.27367e-46
-3.69126e-46
-1.7954e-46
-8.33491e-47
-5.62192e-46
-3.32758e-46
-1.89122e-46
-1.02566e-46
-5.3186e-47
-2.63235e-47
-1.24494e-47
-5.60064e-48
-3.61438e-47
-2.10067e-47
-1.17376e-47
-6.24978e-48
-3.17283e-48
-1.5317e-48
-7.04378e-49
-3.06933e-49
-2.00109e-48
-1.14343e-48
-6.26916e-49
-3.2712e-49
-1.62774e-49
-7.67562e-50
-3.43747e-50
-1.45321e-50
-9.1177e-50
-5.10635e-50
-2.74122e-50
-1.39594e-50
-6.77868e-51
-3.1125e-51
-1.35382e-51
-5.53758e-52
1
1
1
1
1
1
1
1
1
1
1
1
1
1
1
1
1
1
1
1
1
1
1
1
1
1
1
1
1
1
1
1
1
1
1
1
1
1
1
1
1
1
1
1
1
1
1
1
1
1
1
1
1
1
1
1
1
1
1
1
1
1
1
1
1
1
1
1
1
1
1
1
1
1
1
1
1
1
1
1
1
1
1
1
1
1
1
1
1
1
1
1
1
1
1
1
1
1
1
1
1
1
1
1
1
1
1
1
1
1
1
1
1
1
1
1
1
1
1
1
1
1
1
1
1
1
1
1
1
1
1
1
1
1
1
1
1
1
1
1
1
1
1
1
1
1
1
1
1
1
1
1
1
1
1
1
1
1
1
1
1
1
1
1
1
1
1
1
1
1
1
1
1
1
1
1
1
1
1
1
1
1
1
1
1
1
1
1
1
1
1
1
1
1
1
1
1
1
1
1
1
1
1
1
1
1
1
1
1
1
1
1
1
1
1
1
1
1
1
1
1
1
1
1
1
1
1
1
1
1
1
1
1
1
1
1
1
1
1
1
1
1
1
1
1
1
1
1
1
1
1
1
1
1
1
1
1
1
1
1
1
1
1
1
1
1
1
1
1
1
1
1
1
1
1
1
1
1
1
1
1
1
1
1
1
1
1
1
1
1
1
1
1
1
1
1
1
1
1
1
1
1
1
1
1
1
1
1
1
1
1
1
1
1
1
1
1
1
1
1
1
1
1
1
1
1
1
1
1
1
1
1
1
1
1
1
1
1
1
1
1
1
1
1
1
1
1
1
1
1
1
1
1
1
1
1
1
1
1
1
1
1
1
1
1
1
1
1
1
1
1
1
1
1
1
1
1
1
1
1
1
1
1
1
1
1
1
1
1
1
1
1
1
1
1
1
1
1
1
1
1
1
1
1
1
1
1
1
1
1
1
1
1
1
1
1
1
1
1
1
1
1
1
1
1
1
1
1
1
1
1
1
1
1
1
1
1
1
1
1
1
1
1
1
1
1
1
1
1
1
1
1
1
1
1
1
1
1
1
1
1
1
1
1
1
1
1
1
1
1
1
1
1
1
1
1
1
1
1
1
1
1
1
1
1
1
1
1
1
1
1
1
1
1
1
1
1
1
1
1
1
1
1
1
1
1
1
1
1
1
1
1
1
1
1
1
1
1
1
1
1
1
1
1
1
1
1
1
1
1
1
1
1
1
1
1
1
1
1
1
1
1
1
1
1
1
1
1
1
1
1
1
1
1
1
1
1
1
1
1
1
1
1
1
1
1
1
1
1
1
1
1
1
1
1
1
1
1
1
1
1
1
1
1
1
1
1
1
1
1
1
1
1
1
1
1
1
1
1
1
1
1
1
1
1
1
1
1
1
1
1
1
1
1
1
1
1
1
1
1
1
1
1
1
1
1
1
1
1
1
1
1
1
1
1
1
1
1
1
1
1
1
1
1
1
1
1
1
1
1
1
1
1
1
1
1
1
1
1
1
1
1
1
1
1
1
1
1
1
1
1
1
1
1
1
1
1
1
1
1
1
1
1
1
1
1
1
1
1
1
1
1
1
1
1
1
1
1
1
1
1
1
1
1
1
1
1
1
1
1
1
1
1
1
1
1
1
1
1
1
1
1
1
1
1
1
1
1
1
1
1
1
1
1
1
1
1
1
1
1
1
1
1
1
1
1
1
1
1
1
1
1
1
1
1
1
1
1
1
1
1
1
1
1
1
1
1
1
1
1
1
1
1
1
1
1
1
1
1
1
1
1
1
1
1
1
1
1
1
1
1
1
1
1
1
1
1
1
1
1
1
1
1
1
1
1
1
1
1
1
1
1
1
1
1
1
1
1
1
1
1
1
1
1
1
1
1
1
1
1
1
1
1
1
1
1
1
1
1
1
1
1
1
1
1
1
1
1
1
1
1
1
1
1
1
1
1
1
1
1
1
1
1
1
1
1
1
1
1
1
1
1
1
1
1
1
1
1
1
1
1
1
1
1
1
1
1
1
1
1
1
1
1
1
1
1
1
1
1
1
1
1
1
1
1
1
1
1
1
1
1
1
1
1
1
1
1
1
1
1
1
1
1
1
1
1
1
1
1
1
1
1
1
1
1
1
1
1
1
1
1
1
1
1
1
1
1
1
1
1
1
1
1
1
1
1
1
1
1
1
1
1
1
1
1
1
1
1
1
1
1
1
1
1
1
1
1
1
1
1
1
1
1
1
1
1
1
1
1
1
1
1
1
1
1
1
1
1
1
1
1
1
1
1
1
1
1
1
1
1
1
1
1
1
1
1
1
1
1
1
1
1
1
1
1
1
1
1
1
1
1
1
1
1
1
1
1
1
1
1
1
1
1
1
1
1
1
1
1
1
1
1
1
1
1
1
1
1
1
1
1
1
1
1
1
1
1
1
1
1
1
1
1
1
1
1
1
1
1
1
1
1
1
1
1
1
1
1
1
1
1
1
1
1
1
1
1
1
1
1
1
1
1
1
1
1
1
1
1
1
1
1
1
1
1
1
1
1
1
1
1
1
1
1
1
1
1
1
1
1
1
1
1
1
1
1
1
1
1
1
1
1
1
1
1
1
1
1
1
1
1
1
1
1
1
1
1
1
1
1
1
1
1
1
1
1
1
1
1
1
1
1
1
1
1
1
1
1
1
1
1
1
1
1
1
1
1
1
1
1
1
1
1
1
1
1
1
1
1
1
1
1
1
1
1
1
1
1
1
1
1
1
1
1
1
1
1
1
1
1
1
1
1
1
1
1
1
1
1
1
1
1
1
1
1
1
1
1
1
1
1
1
1
1
1
1
1
1
1
1
1
1
1
1
1
1
1
1
1
1
1
1
1
1
1
1
1
1
1
1
1
1
1
1
1
1
1
1
1
1
1
1
1
1
1
1
1
1
1
1
1
1
1
1
1
1
1
1
1
1
1
1
1
1
1
1
1
1
1
1
1
1
1
1
1
1
1
1
1
1
1
1
1
1
1
1
1
1
1
1
1
1
1
1
1
1
1
1
1
1
1
1
1
1
1
1
1
1
1
1
1
1
1
1
1
1
1
1
1
1
1
1
1
1
1
1
1
1
1
1
1
1
1
1
1
1
1
1
1
1
1
1
1
1
1
1
1
1
1
1
1
1
1
1
1
1
1
1
1
1
1
1
1
1
1
1
1
1
1
1
1
1
1
1
1
1
1
1
1
1
1
1
1
1
1
1
1
1
1
1
1
1
1
1
1
1
1
1
1
1
1
1
1
1
1
1
1
1
1
1
1
1
1
1
1
1
1
1
1
1
1
1
1
1
1
1
1
1
1
1
1
1
1
1
1
1
1
1
1
1
1
1
1
1
1
1
1
1
1
1
1
1
1
1
1
1
1
1
1
1
1
1
1
1
1
1
1
1
1
1
1
1
1
1
1
1
1
1
1
1
1
1
1
1
1
1
1
1
1
1
1
1
1
1
1
1
1
1
1
1
1
1
1
1
1
1
1
1
1
1
1
1
1
1
1
1
1
1
1
1
1
1
1
1
1
1
1
1
1
1
1
1
1
1
1
1
1
1
1
1
1
1
1
1
1
1
1
1
1
1
1
1
1
1
1
1
1
1
1
1
1
1
1
1
1
1
1
1
1
1
1
1
1
1
1
1
1
1
1
1
1
1
1
1
1
1
1
1
1
1
1
1
1
1
1
1
1
1
1
1
1
1
1
1
1
1
1
1
1
1
1
1
1
1
1
1
1
1
1
1
1
1
1
1
1
1
1
1
1
1
1
1
1
1
1
1
1
1
1
1
1
1
1
1
1
1
1
1
1
1
1
1
1
1
1
1
1
1
1
1
1
1
1
1
1
1
1
1
1
1
1
1
1
1
1
1
1
1
1
1
1
1
1
1
1
1
1
1
1
1
1
1
1
1
1
1
1
1
1
1
1
1
1
1
1
1
1
1
1
1
1
1
1
1
1
1
1
1
1
1
1
1
1
1
1
1
1
1
1
1
1
1
1
1
1
1
1
1
1
1
1
1
1
1
1
1
1
1
1
1
1
1
1
1
1
1
1
1
1
1
1
1
1
1
1
1
1
1
1
1
1
1
1
1
1
1
1
1
1
1
1
1
1
1
1
1
1
1
1
1
1
1
1
1
1
1
1
1
1
1
1
1
1
1
1
1
1
1
1
1
1
1
1
1
1
1
1
1
1
1
1
1
1
1
1
1
1
1
1
1
1
1
1
1
1
1
1
1
1
1
1
1
1
1
1
1
1
1
1
1
1
1
1
1
1
1
1
1
1
1
1
1
1
1
1
1
1
1
1
1
1
1
1
1
1
1
1
1
1
1
1
1
1
1
1
1
1
1
1
1
1
1
1
1
1
1
1
1
1
1
1
1
1
1
1
1
1
1
1
1
1
1
1
1
1
1
1
1
1
1
1
1
1
1
1
1
1
1
1
1
1
1
1
1
1
1
1
1
1
1
1
1
1
1
1
1
1
1
1
1
1
1
1
1
1
1
1
1
1
1
1
1
1
1
1
1
1
1
1
1
1
1
1
1
1
1
1
1
1
1
1
1
1
1
1
1
1
1
1
1
1
1
1
1
1
1
1
1
1
1
1
1
1
1
1
1
1
1
1
1
1
1
1
1
1
1
1
1
1
1
1
1
1
1
1
1
1
1
1
1
1
1
1
1
1
1
1
1
1
1
1
1
1
1
1
1
1
1
1
1
1
1
1
1
1
1
1
1
1
1
1
1
1
1
1
1
1
1
1
1
1
1
1
1
1
1
1
1
1
1
1
1
1
1
1
1
1
1
1
1
1
1
1
1
1
1
1
1
1
1
1
1
1
1
1
1
1
1
1
1
1
1
1
1
1
1
1
1
1
1
1
1
1
1
1
1
1
1
1
1
1
1
1
1
1
1
1
1
1
1
1
1
1
1
1
1
1
1
1
1
1
1
1
1
1
1
1
1
1
1
1
1
1
1
1
1
1
1
1
1
1
1
1
1
1
1
1
1
1
1
1
1
1
1
1
1
1
1
1
1
1
1
1
1
1
1
1
1
1
1
1
1
1
1
1
1
1
1
1
1
1
1
1
1
1
1
1
1
1
1
1
1
1
1
1
1
1
1
1
1
1
1
1
1
1
1
1
1
1
1
1
1
1
1
1
1
1
1
1
1
1
1
1
1
1
1
1
1
1
1
1
1
1
1
1
1
1
1
1
1
1
1
1
1
1
1
1
1
1
1
1
1
1
1
1
1
1
1
1
1
1
1
1
1
1
1
1
1
1
1
1
1
1
1
1
1
1
1
1
1
1
1
1
1
1
1
1
1
1
1
1
1
1
1
1
1
1
1
1
1
1
1
1
1
1
1
1
1
1
1
1
1
1
1
1
1
1
1
1
1
1
1
1
1
1
1
1
1
1
1
1
1
1
1
1
1
1
1
1
1
1
1
1
1
1
1
1
1
1
1
1
1
1
1
1
1
1
1
1
1
1
1
1
1
1
1
1
1
1
1
1
1
1
1
1
1
1
1
1
1
1
1
1
1
1
1
1
1
1
1
1
1
1
1
1
1
1
1
1
1
1
1
1
1
1
1
1
1
1
1
1
1
1
1
1
1
1
1
1
1
1
1
1
1
1
1
1
1
1
1
1
1
1
1
1
1
1
1
1
1
1
1
1
1
1
1
1
1
1
1
1
1
1
1
1
1
1
1
1
1
1
1
1
1
1
1
1
1
1
1
1
1
1
1
1
1
1
1
1
1
1
1
1
1
1
1
1
1
1
1
1
1
1
1
1
1
1
1
1
1
1
1
1
1
1
1
1
1
1
1
1
1
1
1
1
1
1
1
1
1
1
1
1
1
1
1
1
1
1
1
1
1
1
1
1
1
1
1
1
1
1
1
1
1
1
1
1
1
1
1
1
1
1
1
1
1
1
1
1
1
1
1
1
1
1
1
1
1
1
1
1
1
1
1
1
1
1
1
1
1
1
1
1
1
1
1
1
1
1
1
1
1
1
1
1
1
1
1
1
1
1
1
1
1
1
1
1
1
1
1
1
1
1
1
1
1
1
1
1
1
1
1
1
1
1
1
1
1
1
1
1
1
1
1
1
1
1
1
1
1
1
1
1
1
1
1
1
1
1
1
1
1
1
1
1
1
1
1
1
1
1
1
1
1
1
1
1
1
1
1
1
1
1
1
1
1
1
1
1
1
1
1
1
1
1
1
1
1
1
1
1
1
1
1
1
1
1
1
1
1
1
1
1
1
1
1
1
1
1
1
1
1
1
1
1
1
1
1
1
1
1
1
1
1
1
1
1
1
1
1
1
1
1
1
1
1
1
1
1
1
1
1
1
1
1
1
1
1
1
1
1
1
1
1
1
1
1
1
1
1
1
1
1
1
1
1
1
1
1
1
1
1
1
1
1
1
1
1
1
1
1
1
1
1
1
1
1
1
1
1
1
1
1
1
1
1
1
1
1
1
1
1
1
1
1
1
1
1
1
1
1
1
1
1
1
1
1
1
1
1
1
1
1
1
1
1
1
1
1
1
1
1
1
1
1
1
1
1
1
1
1
1
1
1
1
1
1
1
1
1
1
1
1
1
1
1
1
1
1
1
1
1
1
1
1
1
1
1
1
1
1
1
1
1
1
1
1
1
1
1
1
1
1
1
1
1
1
1
1
1
1
1
1
1
1
1
1
1
1
1
1
1
1
1
1
1
1
1
1
1
1
1
1
1
1
1
1
1
1
1
1
1
1
1
1
1
1
1
1
1
1
1
1
1
1
1
1
1
1
1
1
1
1
1
1
1
1
1
1
1
1
1
1
1
1
1
1
1
1
1
1
1
1
1
1
1
1
1
1
1
1
1
1
1
1
1
1
1
1
1
1
1
1
1
1
1
1
1
1
1
1
1
1
1
1
1
1
1
1
1
1
1
1
1
1
1
1
1
1
1
1
1
1
1
1
1
1
1
1
1
1
1
1
1
1
1
1
1
1
1
1
1
1
1
1
1
1
1
1
1
1
1
1
1
1
1
1
1
1
1
1
1
1
1
1
1
1
1
1
1
1
1
1
1
1
1
1
1
1
1
1
1
1
1
1
1
1
1
1
1
1
1
1
1
1
1
1
1
1
1
1
1
1
1
1
1
1
1
1
1
1
1
1
1
1
1
1
1
1
1
1
1
1
1
1
1
1
1
1
1
1
1
1
1
1
1
1
1
1
1
1
1
1
1
1
1
1
1
1
1
1
1
1
1
1
1
1
1
1
1
1
1
1
1
1
1
1
1
1
1
1
1
1
1
1
1
1
1
1
1
1
1
1
1
1
1
1
1
1
1
1
1
1
1
1
1
1
1
1
1
1
1
1
1
1
1
1
1
1
1
1
1
1
1
1
1
1
1
1
1
1
1
1
1
1
1
1
1
1
1
1
1
1
1
1
1
1
1
1
1
1
1
1
1
1
1
1
1
1
1
1
1
1
1
1
1
1
1
1
1
1
1
1
1
1
1
1
1
1
1
1
1
1
1
1
1
1
1
1
1
1
1
1
1
1
1
1
1
1
1
1
1
1
1
1
1
1
1
1
1
1
1
1
1
1
1
1
1
1
1
1
1
1
1
1
1
1
1
1
1
1
1
1
1
1
1
1
1
1
1
1
1
1
1
1
1
1
1
1
1
1
1
1
1
1
1
1
1
1
1
1
1
1
1
1
1
1
1
1
1
1
1
1
1
1
1
1
1
1
1
1
1
1
1
1
1
1
1
1
1
1
1
1
1
1
1
1
1
1
1
1
1
1
1
1
1
1
1
1
1
1
1
1
1
1
1
1
1
1
1
1
1
1
1
1
1
1
1
1
1
1
1
1
1
1
1
1
1
1
1
1
1
1
1
1
1
1
1
1
1
1
1
1
1
1
1
1
1
1
1
1
1
1
1
1
1
1
1
1
1
1
1
1
1
1
1
1
1
1
1
1
1
1
1
1
1
1
1
1
1
1
1
1
1
1
1
1
1
1
1
1
1
1
1
1
1
1
1
1
1
1
1
1
1
1
1
1
1
1
1
1
1
1
1
1
1
1
1
1
1
1
1
1
1
1
1
1
1
1
1
1
1
1
1
1
1
1
1
1
1
1
1
1
1
1
1
1
1
1
1
1
1
1
1
1
1
1
1
1
1
1
1
1
1
1
1
1
1
1
1
1
1
1
1
1
1
1
1
1
1
1
1
1
1
1
1
1
1
1
1
1
1
1
1
1
1
1
1
1
1
1
1
1
1
1
1
1
1
1
1
1
1
1
1
1
1
1
1
1
1
1
1
1
1
1
1
1
1
1
1
1
1
1
1
1
1
1
1
1
1
1
1
1
1
1
1
1
1
1
1
1
1
1
1
1
1
1
1
1
1
1
1
1
1
1
1
1
1
1
1
1
1
1
1
1
1
1
1
1
1
1
1
1
1
1
1
1
1
1
1
1
1
1
1
1
1
1
1
1
1
1
1
1
1
1
1
1
1
1
1
1
1
1
1
1
1
1
1
1
1
1
1
1
1
1
1
1
1
1
1
1
1
1
1
1
1
1
1
1
1
1
1
1
1
1
1
1
1
1
1
1
1
1
1
1
1
1
1
1
1
1
1
1
1
1
1
1
1
1
1
1
1
1
1
1
1
1
1
1
1
1
1
1
1
1
1
1
1
1
1
1
1
1
1
1
1
1
1
1
1
1
1
1
1
1
1
1
1
1
1
1
1
1
1
1
1
1
1
1
1
1
1
1
1
1
1
1
1
1
1
1
1
1
1
1
1
1
1
1
1
1
1
1
1
1
1
1
1
1
1
1
1
1
1
1
1
1
1
1
1
1
1
1
1
1
1
1
1
1
1
1
1
1
1
1
1
1
1
1
1
1
1
1
1
1
1
1
1
1
1
1
1
1
1
1
1
1
1
1
1
1
1
1
1
1
1
1
1
1
1
1
1
1
1
1
1
1
1
1
1
1
1
1
1
1
1
1
1
1
1
1
1
1
1
1
1
1
1
1
1
1
1
1
1
1
1
1
1
1
1
1
1
1
1
1
1
1
1
1
1
1
1
1
1
1
1
1
1
1
1
1
1
1
1
1
1
1
1
1
1
1
1
1
1
1
1
1
1
1
1
1
1
1
1
1
1
1
1
1
1
1
1
1
1
1
1
1
1
1
1
1
1
1
1
1
1
1
1
1
1
1
1
1
1
1
1
1
1
1
1
1
1
1
1
1
1
1
1
1
1
1
1
1
1
1
1
1
1
1
1
1
1
1
1
1
1
1
1
1
1
1
1
1
1
1
1
1
1
1
1
1
1
1
1
1
1
1
1
1
1
1
1
1
1
1
1
1
1
1
1
1
1
1
1
1
1
1
1
1
1
1
1
1
1
1
1
1
1
1
1
1
1
1
1
1
1
1
1
1
1
1
1
1
1
1
1
1
1
1
1
1
1
1
1
1
1
1
1
1
1
1
1
1
1
1
1
1
1
1
1
1
1
1
1
1
1
1
1
1
1
1
1
1
1
1
1
1
1
1
1
1
1
1
1
1
1
1
1
1
1
1
1
1
1
1
1
1
1
1
1
1
1
1
1
1
1
1
1
1
1
1
1
1
1
1
1
1
1
1
1
1
1
1
1
1
1
1
1
1
1
1
1
1
1
1
1
1
1
1
1
1
1
1
1
1
1
1
1
1
1
1
1
1
1
1
1
1
1
1
1
1
1
1
1
1
1
1
1
1
1
1
1
1
1
1
1
1
1
1
1
1
1
1
1
1
1
1
1
1
1
1
1
1
1
1
1
1
1
1
1
1
1
1
1
1
1
1
1
1
1
1
1
1
1
1
1
1
1
1
1
1
1
1
1
1
1
1
1
1
1
1
1
1
1
1
1
1
1
1
1
1
1
1
1
1
1
1
1
1
1
1
1
1
1
1
1
1
1
1
1
1
1
1
1
1
1
1
1
1
1
1
1
1
1
1
1
1
1
1
1
1
1
1
1
1
1
1
1
1
1
1
1
1
1
1
1
1
1
1
1
1
1
1
1
1
1
1
1
1
1
1
1
1
1
1
1
1
1
1
1
1
1
1
1
1
1
1
1
1
1
1
1
1
1
1
1
1
1
1
1
1
1
1
1
1
1
1
1
1
1
1
1
1
1
1
1
1
1
1
1
1
1
1
1
1
1
1
1
1
1
1
1
1
1
1
1
1
1
1
1
1
1
1
1
1
1
1
1
1
1
1
1
1
1
1
1
1
1
1
1
1
1
1
1
1
1
1
1
1
1
1
1
1
1
1
1
1
1
1
1
1
1
1
1
1
1
1
1
1
1
1
1
1
1
1
1
1
1
1
1
1
1
1
1
1
1
1
1
1
1
1
1
1
1
1
1
1
1
1
1
1
1
1
1
1
1
1
1
1
1
1
1
1
1
1
1
1
1
1
1
1
1
1
1
1
1
1
1
1
1
1
1
1
1
1
1
1
1
1
1
1
1
1
1
1
1
1
1
1
1
1
1
1
1
1
1
1
1
1
1
1
1
1
1
1
1
1
1
1
1
1
1
1
1
1
1
1
1
1
1
0.999993
0.999737
0.999284
0.999245
0.999972
1
1
1
1
0.999996
0.999923
0.999762
0.99974
0.999921
1
1
1
0.999927
0.999599
0.999227
0.999983
1
1
1
1
1
1
1
1
1
1
1
1
1
1
1
1
1
1
1
1
1
1
1
1
1
1
1
1
1
1
1
1
1
1
1
1
1
1
1
1
1
1
1
1
1
1
1
1
1
1
1
1
1
1
1
1
1
1
1
1
1
1
1
1
1
1
1
1
1
1
1
1
1
1
1
1
1
1
1
1
1
1
1
1
1
1
1
1
1
1
1
1
1
1
1
1
1
1
1
1
1
1
1
1
1
1
1
1
1
1
1
1
1
1
1
1
1
1
1
1
1
1
1
1
1
1
0.999998
0.999998
0.999999
0.999999
1
1
1
1
1
0.999998
0.998495
0.994451
0.992484
0.996062
0.998431
0.999056
0.999873
1
0.999982
0.999432
0.997702
0.995046
0.99454
0.999597
0.999999
1
0.999511
0.996833
0.996923
0.999105
0.999634
0.999738
0.999218
0.999898
1
0.999999
0.999724
0.999423
0.99996
1
1
1
1
1
1
0.999995
0.999988
0.99999
0.999998
1
1
1
1
1
1
1
1
1
1
1
1
1
1
1
1
1
1
1
1
1
1
1
1
1
1
1
1
1
1
1
1
1
1
1
1
1
1
1
1
1
1
1
1
1
1
1
1
1
1
1
1
1
1
1
1
1
1
1
1
1
1
1
1
1
1
1
1
1
1
1
1
1
1
1
1
1
1
1
1
1
1
1
1
1
1
1
1
1
1
1
1
1
1
1
1
1
1
1
1
1
1
1
1
1
1
0.999999
0.999997
0.999994
0.999994
0.999993
0.999991
0.999989
0.999981
0.999954
0.999987
0.999998
0.998009
0.987385
0.974499
0.976386
0.987135
0.993285
0.996003
0.997108
0.99775
0.998667
0.995157
0.988701
0.984123
0.99158
0.996595
0.999099
0.999298
0.997245
0.996679
0.997193
0.997078
0.990697
0.985934
0.990099
0.99768
0.998121
0.997497
0.995046
0.995319
0.997778
0.99935
0.99941
0.998862
0.998381
0.998574
0.998946
0.999188
0.999311
0.999511
0.999745
0.999865
0.99994
0.999981
0.999999
0.999998
0.999985
0.99994
0.999894
0.999984
1
1
1
1
1
1
1
1
1
1
1
1
1
1
1
1
1
1
1
1
1
1
1
1
1
1
1
1
1
1
1
0.99995
0.99875
0.995273
0.996562
0.999619
1
1
1
1
1
1
1
1
1
1
1
1
1
1
1
1
1
1
1
1
1
1
1
1
1
1
1
1
1
1
1
1
1
1
1
1
1
1
1
1
1
1
1
1
1
1
1
1
1
1
1
1
1
1
1
1
1
1
1
1
0.999985
0.99998
0.99997
0.99996
0.999928
0.999841
0.999625
0.998711
0.994478
0.978871
0.925431
0.827642
0.72282
0.643065
0.644773
0.715064
0.827297
0.900071
0.934715
0.94869
0.943235
0.961862
0.978915
0.982761
0.981319
0.982347
0.985575
0.992821
0.996836
0.99668
0.996188
0.99682
0.985574
0.971122
0.971112
0.97908
0.98952
0.994252
0.993049
0.978881
0.956021
0.954987
0.95685
0.971706
0.985451
0.986652
0.984827
0.981899
0.982277
0.985824
0.990336
0.993644
0.995585
0.996342
0.99642
0.996005
0.995023
0.991958
0.981856
0.951865
0.896891
0.858522
0.853668
0.858136
0.882631
0.921525
0.955967
0.973404
0.981202
0.983734
0.983366
0.983504
0.986394
0.991793
0.996452
0.999341
0.999505
0.998876
0.998108
0.99727
0.995937
0.994458
0.993938
0.993964
0.9946
0.996477
0.997123
0.996451
0.994701
0.990964
0.983996
0.97368
0.959234
0.942029
0.927475
0.927125
0.953628
0.987523
0.999995
1
1
1
1
1
1
1
1
1
1
1
1
1
1
1
1
1
1
1
1
1
1
1
1
1
1
1
1
1
1
1
1
1
1
1
1
1
1
1
1
1
1
1
1
1
1
1
1
1
1
1
1
1
1
1
1
1
0.999853
0.999806
0.99976
0.999659
0.999306
0.997979
0.992264
0.960112
0.829442
0.591171
0.363516
0.195218
0.103538
0.064194
0.0646547
0.0933746
0.156249
0.243986
0.322498
0.371915
0.435136
0.537694
0.62592
0.698758
0.76719
0.753162
0.729627
0.77238
0.773033
0.787391
0.886595
0.962756
0.99117
0.991176
0.990525
0.986862
0.978734
0.978685
0.97758
0.976762
0.970606
0.969786
0.969345
0.960949
0.92768
0.898857
0.89624
0.89883
0.916769
0.94492
0.960001
0.960045
0.958284
0.952358
0.943479
0.935467
0.923088
0.870182
0.698428
0.425686
0.224645
0.21348
0.287759
0.356695
0.368088
0.408942
0.539017
0.656023
0.674299
0.656597
0.626617
0.623349
0.638284
0.68221
0.724287
0.769637
0.834767
0.898065
0.921686
0.91878
0.898254
0.87339
0.864391
0.863729
0.858697
0.850003
0.852226
0.878849
0.923042
0.955035
0.958972
0.956185
0.950238
0.940518
0.888441
0.755966
0.734095
0.799217
0.916084
0.98915
0.999953
0.999956
0.99996
0.999967
0.999973
0.999979
0.999981
0.999981
0.99998
0.999977
0.999976
0.999977
0.99998
0.999983
0.999983
0.999977
0.999958
0.999915
0.999817
0.999588
0.999083
0.998107
0.996411
0.993184
0.986056
0.971122
0.94715
0.930967
0.939247
0.960401
0.97597
0.981964
0.983296
0.983508
0.984269
0.985205
0.985621
0.985311
0.984509
0.983994
0.984514
0.985986
0.987977
0.990278
0.992071
0.993269
0.994481
0.996143
0.99815
0.999754
1
1
1
1
1
1
0.998846
0.998576
0.998232
0.997215
0.993041
0.969179
0.829347
0.495052
0.218499
0.0827854
0.0196882
0.00458429
0.002755
0.000660416
0.000257281
0.00040448
0.000667088
0.0017141
0.0101771
0.0217419
0.0328193
0.0447152
0.0522
0.066265
0.0918479
0.092055
0.0907897
0.117486
0.119829
0.135219
0.284124
0.558956
0.747193
0.775052
0.798146
0.844458
0.846826
0.795545
0.781752
0.850079
0.913568
0.947478
0.947373
0.940728
0.927351
0.910345
0.896242
0.88706
0.88371
0.886412
0.896562
0.915531
0.930574
0.930448
0.924022
0.896542
0.794132
0.563818
0.296896
0.120645
0.0256941
0.0180728
0.031224
0.0655688
0.107531
0.142631
0.158457
0.178001
0.202148
0.223832
0.243687
0.255529
0.256815
0.253046
0.213977
0.171798
0.227965
0.465433
0.497673
0.399166
0.290115
0.254556
0.257557
0.27484
0.307097
0.346394
0.406047
0.484878
0.553226
0.580966
0.579272
0.56787
0.55422
0.56998
0.664918
0.717854
0.643143
0.544355
0.597672
0.766801
0.891118
0.94239
0.962808
0.975405
0.985103
0.992634
0.998874
0.999794
0.999777
0.999755
0.999736
0.999736
0.99975
0.999774
0.999775
0.999703
0.999489
0.999001
0.997887
0.995312
0.989444
0.976945
0.95259
0.904349
0.805846
0.663458
0.540875
0.487722
0.510605
0.598116
0.678251
0.712856
0.71293
0.704151
0.703156
0.702081
0.693181
0.675476
0.655783
0.64155
0.636483
0.640544
0.65254
0.668604
0.682087
0.691101
0.700401
0.715702
0.740208
0.7743
0.814256
0.854796
0.894069
0.927413
0.952366
0.968822
0.989771
0.988786
0.984504
0.968682
0.88885
0.583825
0.223916
0.0452134
0.000154503
2.30455e-05
0.000102793
0.000111469
0.000446832
0.000127514
1.47341e-06
2.02868e-06
6.16232e-06
2.41966e-05
7.14658e-05
0.000257709
0.000538802
0.00105717
0.00100972
0.000962938
0.000878565
0.000791855
0.000867683
0.00147037
0.00168548
0.00242385
0.0166516
0.0809104
0.118453
0.10686
0.111535
0.145805
0.166868
0.128901
0.127218
0.203258
0.344226
0.459072
0.481781
0.46174
0.427077
0.387467
0.34301
0.325789
0.333626
0.359625
0.404137
0.46712
0.540513
0.594114
0.59866
0.587783
0.524618
0.379801
0.205782
0.0693495
0.00497489
0.000449256
0.00058279
0.00142161
0.00292831
0.00292656
0.0026656
0.00276071
0.00318827
0.00378696
0.00463878
0.00544435
0.0057337
0.00618857
0.00722793
0.0100007
0.0306754
0.113952
0.158687
0.152441
0.126865
0.096508
0.072409
0.0692004
0.0735252
0.069062
0.0504765
0.0473964
0.0558278
0.0649644
0.0669025
0.0688585
0.071135
0.0790385
0.107198
0.186705
0.362979
0.474061
0.448316
0.423872
0.457167
0.549941
0.612817
0.638125
0.659319
0.689993
0.752266
0.845582
0.934545
0.991498
0.998173
0.998007
0.997966
0.998006
0.997939
0.997198
0.995048
0.989332
0.972709
0.926511
0.819099
0.656362
0.49791
0.352773
0.231312
0.150783
0.09645
0.0692709
0.0711425
0.120072
0.190413
0.194996
0.177808
0.16114
0.14616
0.132078
0.118265
0.104503
0.0934146
0.0862344
0.0817623
0.0804376
0.0843208
0.0907581
0.0963954
0.0989919
0.101787
0.109446
0.124972
0.152607
0.199749
0.269633
0.354836
0.446405
0.534442
0.610234
0.821899
0.816117
0.750043
0.591053
0.314622
0.0848142
0.000406308
2.58916e-06
7.58743e-07
3.48651e-07
7.62999e-07
2.70608e-06
1.3078e-05
8.2582e-06
1.35844e-06
2.2518e-08
7.35914e-08
3.62471e-07
1.92015e-06
1.74168e-05
0.000174554
0.000130218
4.74756e-05
1.45525e-05
1.38387e-05
3.29199e-05
5.9026e-05
7.84039e-05
5.68992e-05
8.56253e-05
0.000228825
0.000697704
0.00128814
0.00167829
0.00217857
0.00248746
0.00230598
0.00142095
0.00147467
0.00290734
0.0170649
0.0326757
0.0314666
0.0263734
0.02057
0.0157151
0.0117178
0.0111143
0.0118912
0.0153134
0.0258442
0.0448333
0.0703971
0.086158
0.0853796
0.0779823
0.059334
0.0315646
0.00892331
0.000303205
0.000312419
0.000441014
0.000540531
0.000462461
0.00029493
0.000148193
7.61997e-05
4.39467e-05
3.59907e-05
3.68659e-05
4.4898e-05
6.71989e-05
8.68037e-05
0.000106933
0.000145931
0.000269372
0.000833123
0.00432365
0.00829882
0.00754931
0.00550733
0.00373864
0.00392609
0.00571371
0.00929322
0.00881089
0.00645843
0.00418618
0.00231047
0.00148689
0.00176587
0.00409822
0.0154065
0.0355373
0.0555985
0.0656958
0.0705172
0.0909638
0.123396
0.169119
0.196399
0.190757
0.166667
0.137546
0.112984
0.103745
0.125325
0.224168
0.420118
0.672149
0.863842
0.948551
0.974479
0.979427
0.977497
0.964235
0.922849
0.810795
0.608427
0.388941
0.212914
0.111333
0.0516026
0.0171041
0.00307756
0.00218328
0.00323279
0.00787616
0.0197342
0.0293166
0.0289211
0.0267236
0.0239941
0.0214497
0.0191703
0.0168588
0.0145067
0.0123042
0.0101782
0.00921586
0.00944516
0.010996
0.0206256
0.0360559
0.0329548
0.014638
0.00548839
0.00474817
0.00498966
0.00599285
0.00802984
0.0119699
0.0193066
0.0319071
0.051504
0.0784985
0.208071
0.214238
0.17323
0.0909247
0.0116881
2.13999e-07
1.03995e-06
1.22383e-06
6.91408e-07
1.29325e-07
6.50109e-08
1.42482e-07
3.56285e-07
2.14974e-07
3.07508e-08
2.97543e-10
7.20809e-10
8.25807e-09
1.62996e-06
0.000118233
0.000372064
0.00010767
1.40605e-05
1.63659e-06
2.20707e-06
1.16123e-05
9.99204e-06
5.69727e-06
1.15381e-06
5.08381e-07
9.28001e-06
5.32156e-05
0.000180991
0.000307236
0.000359852
0.000297882
0.000187567
5.94092e-05
6.05518e-05
0.000120273
0.000209733
0.00043869
0.00043867
0.000357197
0.000246672
0.000174162
0.000179767
0.000209261
0.000307905
0.000417907
0.000473127
0.000497871
0.000540689
0.000665297
0.000840498
0.000867405
0.000799754
0.000547264
0.000258874
6.62352e-05
4.32346e-05
0.000140958
0.000432482
0.000403031
0.000142886
1.62558e-05
1.10598e-06
1.10527e-06
1.10455e-06
1.1635e-06
1.65455e-06
3.5645e-06
1.22433e-05
6.3553e-05
0.000110028
7.51901e-05
5.02678e-05
6.21908e-05
0.00014813
0.000162787
0.000133704
0.000125232
0.000258397
0.00101984
0.00140742
0.00110449
0.000538507
0.000105182
7.99036e-06
4.72383e-05
0.000850007
0.00326967
0.00618534
0.00717581
0.00701454
0.005103
0.00264546
0.00225041
0.00298687
0.00815736
0.0235229
0.0374942
0.037298
0.0348954
0.0272825
0.0133794
0.00597639
0.0077795
0.0206263
0.0763676
0.257884
0.488965
0.638025
0.677786
0.653159
0.542515
0.373791
0.203241
0.0875407
0.0202859
0.00017242
0.000123922
0.000177009
0.000252932
0.000422371
0.000694354
0.000862411
0.00107092
0.00206785
0.00420687
0.00621356
0.00642478
0.00568303
0.00385242
0.00219747
0.00120391
0.000704181
0.000650899
0.000719184
0.000871519
0.00103968
0.00147785
0.00325461
0.00717084
0.00939223
0.00939101
0.00589287
0.00164842
2.95926e-05
1.81008e-05
2.8063e-05
4.71102e-05
6.17777e-05
8.88978e-05
0.000140909
0.000203738
0.00362007
0.00086648
6.05421e-10
2.11837e-09
1.57486e-08
3.3784e-08
1.66672e-07
4.88731e-07
4.3943e-07
1.452e-07
1.14739e-08
1.52149e-08
1.95482e-08
1.12319e-08
1.18621e-09
1.34678e-11
8.38826e-12
4.89638e-11
3.92129e-05
0.000451797
0.000471094
6.61429e-05
5.79432e-06
1.72389e-07
2.25182e-07
1.42392e-06
1.41273e-06
7.07923e-07
5.4286e-08
1.234e-08
2.74995e-06
4.06784e-05
0.000141561
0.000148581
0.000108555
5.89628e-05
2.75053e-05
6.68283e-06
8.52448e-06
4.99144e-05
0.000163408
0.00016375
0.0001166
5.83884e-05
2.49603e-05
1.62003e-05
1.70435e-05
2.06205e-05
3.2264e-05
5.20935e-05
8.19194e-05
0.00016409
0.000383409
0.000587244
0.000556919
0.00040641
0.000218377
7.9726e-05
2.74997e-05
2.38741e-05
2.38552e-05
2.95037e-05
8.22427e-05
0.000296361
0.000432666
0.000325485
0.000131088
1.25914e-05
5.81588e-07
5.81588e-07
5.81588e-07
5.81588e-07
2.67632e-06
3.46992e-05
6.51077e-05
3.81377e-05
3.89924e-05
0.000101213
0.000347663
0.000352836
0.000197985
0.000125227
0.00025012
0.00045539
0.000409527
0.000168696
9.55702e-06
4.24829e-06
4.21e-06
1.05968e-05
0.000260956
0.000800829
0.000561804
0.000315841
0.000182599
7.7637e-05
4.2405e-05
7.53011e-05
0.000269778
0.000751124
0.00235278
0.00695132
0.014454
0.0162743
0.0131286
0.00547711
0.000708789
0.000338783
0.000697352
0.00247657
0.010341
0.0366873
0.083331
0.116405
0.108663
0.0658883
0.0186698
2.05702e-05
5.29961e-07
5.30118e-07
6.43034e-07
9.15143e-07
1.68784e-06
5.33933e-06
2.49549e-05
0.0001299
0.000664949
0.000837407
0.00113715
0.0014066
0.00189283
0.00240445
0.00223158
0.0012494
0.00026194
9.75549e-05
9.91669e-05
9.91825e-05
0.000189641
0.000543753
0.000517536
0.000475162
0.000535627
0.000890712
0.00228685
0.00477012
0.00479371
0.00218784
0.000187788
1.21293e-06
6.43058e-06
2.73422e-05
2.35706e-05
7.58358e-06
7.90577e-07
7.84374e-07
6.14475e-10
6.05421e-10
6.05421e-10
6.05421e-10
4.8368e-09
1.20882e-08
1.10989e-08
6.54841e-08
1.16441e-07
5.89367e-08
6.41329e-09
8.3666e-10
5.55045e-10
1.92527e-10
5.03894e-12
3.19788e-13
6.56868e-13
6.52003e-12
0.000102531
0.000530273
0.000331837
1.84802e-05
5.86133e-07
1.52679e-08
1.1191e-08
1.18606e-07
1.38786e-07
5.69554e-08
1.45256e-09
2.95425e-09
9.12743e-07
2.59035e-05
1.78106e-05
1.00123e-05
5.88487e-06
2.80636e-06
1.16462e-06
3.65906e-07
8.05066e-07
3.68057e-06
5.11384e-06
4.11536e-06
2.89667e-06
2.29955e-06
1.95115e-06
1.95391e-06
2.11553e-06
4.53617e-06
6.30068e-06
1.50637e-05
2.29397e-05
2.69033e-05
4.33901e-05
5.38685e-05
5.04132e-05
3.52816e-05
1.54146e-05
1.54132e-05
4.32703e-05
0.000121761
0.000108905
4.01644e-05
4.00073e-05
0.000161459
0.000630407
0.000639431
0.000522907
0.000231223
3.32378e-05
5.81588e-07
5.81588e-07
5.81588e-07
1.44795e-06
1.8554e-05
2.80263e-05
2.42798e-05
6.12115e-05
0.000402211
0.00130686
0.00138429
0.000847891
0.000200843
0.000120395
0.000147853
0.000101383
2.1862e-05
5.32561e-07
7.57937e-06
3.72686e-05
4.37798e-05
4.53979e-05
4.0434e-05
2.67669e-05
1.33049e-05
5.284e-06
1.00906e-06
8.94016e-07
1.27243e-06
1.56267e-06
1.69512e-06
3.83241e-06
3.80213e-05
0.000428425
0.00252803
0.00360953
0.00244681
0.000811877
3.67587e-05
4.36313e-08
3.35353e-08
1.07182e-07
3.8945e-07
5.31024e-07
5.03353e-07
4.20582e-07
4.04232e-07
4.24738e-07
4.96002e-07
6.64323e-07
5.97292e-07
5.97366e-07
5.97445e-07
5.97531e-07
1.09488e-06
8.33857e-06
7.7365e-05
0.000583584
0.00201752
0.00218862
0.00218858
0.00196645
0.00122399
0.000593397
0.00011731
1.84593e-05
2.53263e-05
9.67e-05
0.000450053
0.000774365
0.000775758
0.000523236
0.000117857
6.70147e-05
0.000186233
0.000897674
0.00222165
0.00239353
0.00155499
0.000298102
5.13257e-07
9.20389e-07
4.72662e-06
3.49635e-06
1.09177e-06
1.98254e-07
2.19928e-07
6.05421e-10
6.05421e-10
6.05421e-10
9.8534e-10
4.40983e-09
4.16097e-09