/*--------------------------------*- C++ -*----------------------------------*\
| =========                 |                                                 |
| \\      /  F ield         | OpenFOAM: The Open Source CFD Toolbox           |
|  \\    /   O peration     | Version:  v1912                                 |
|   \\  /    A nd           | Website:  www.openfoam.com                      |
|    \\/     M anipulation  |                                                 |
\*---------------------------------------------------------------------------*/
FoamFile
{
    version     2.0;
    format      ascii;
    class       volScalarField;
    location    "90";
    object      omega;
}
// * * * * * * * * * * * * * * * * * * * * * * * * * * * * * * * * * * * * * //

dimensions      [0 0 -1 0 0 0 0];


internalField   nonuniform List<scalar> 
14268
(
2.99062
2.99062
2.99061
2.99061
2.99062
2.99062
2.99062
2.99062
1.08524
1.13935
1.20889
1.28534
1.36179
1.44162
1.46279
1.4204
0.554807
0.586412
0.631168
0.677698
0.713448
0.748752
0.751957
0.714062
0.343889
0.362502
0.390252
0.418469
0.438256
0.456856
0.459064
0.439789
0.259118
0.270188
0.285472
0.301695
0.313632
0.324814
0.32514
0.311062
0.238717
0.24662
0.253767
0.257421
0.258444
0.260233
0.259923
0.254104
0.246825
0.252743
0.253951
0.252049
0.246921
0.239224
0.231997
0.223016
0.281803
0.282125
0.275763
0.265366
0.251963
0.236834
0.225117
0.217613
0.357096
0.350471
0.33048
0.302125
0.27042
0.241347
0.225235
0.216932
0.499024
0.482509
0.435854
0.373982
0.30778
0.255466
0.229367
0.219943
0.636111
0.662685
0.612777
0.506405
0.376652
0.282442
0.238395
0.224204
0.682894
0.764643
0.749721
0.653324
0.483948
0.329781
0.254409
0.232755
0.614955
0.74995
0.774996
0.709929
0.548126
0.363213
0.271797
0.250233
0.493746
0.59789
0.644197
0.61921
0.520617
0.368888
0.287817
0.288671
0.395084
0.465304
0.499997
0.487078
0.444367
0.371867
0.330785
0.297563
0.308882
0.368056
0.409097
0.412648
0.398274
0.367512
0.326813
0.280558
0.254621
0.299545
0.3455
0.361357
0.359901
0.344353
0.310617
0.26031
0.219136
0.247163
0.282453
0.300124
0.302605
0.295718
0.272488
0.234716
0.198396
0.214392
0.236377
0.24812
0.249236
0.244324
0.231012
0.211725
0.185927
0.19418
0.206857
0.215342
0.217677
0.215819
0.208146
0.198412
0.179767
0.183297
0.189286
0.194021
0.195781
0.195475
0.192871
0.189013
0.1772
0.178203
0.179832
0.18175
0.183006
0.183971
0.183896
0.182907
0.176853
0.177326
0.178125
0.179245
0.180481
0.181112
0.180948
0.180335
0.177999
0.178174
0.178683
0.17954
0.180661
0.181302
0.18113
0.180581
0.180732
0.180609
0.180781
0.181486
0.182691
0.183874
0.183801
0.183249
0.187155
0.186399
0.18633
0.187167
0.189143
0.191458
0.19218
0.191513
0.199897
0.197989
0.197301
0.198524
0.202116
0.206418
0.207899
0.206737
0.223472
0.219104
0.217077
0.218635
0.224164
0.230627
0.232932
0.230984
0.26444
0.254624
0.248702
0.249475
0.256996
0.266277
0.269041
0.266035
0.333662
0.312862
0.298359
0.297637
0.307768
0.322691
0.325678
0.320538
0.447807
0.407856
0.375311
0.369344
0.386092
0.419778
0.427805
0.417647
0.629285
0.563781
0.497567
0.478664
0.502709
0.564947
0.605112
0.597249
0.901706
0.819845
0.711528
0.662913
0.688125
0.780318
0.893227
0.935672
1.28204
1.20247
1.06656
0.957832
0.965839
1.08977
1.29283
1.4558
1.86212
1.78732
1.64941
1.44819
1.37414
1.45106
1.65075
1.95503
2.86452
2.75941
2.61574
2.35048
2.03754
1.94523
2.00978
2.24934
4.60662
4.43399
4.19449
3.81096
3.37553
3.03218
3.00624
3.16104
7.86399
6.94297
5.85796
5.05328
4.83355
5.11282
5.28553
5.49685
8.88352
8.47556
7.04685
5.71843
5.77598
7.40118
9.72238
12.7099
4.77236
5.63703
5.95297
5.6317
5.87364
8.2341
13.7145
18.6895
3.65758
4.36081
5.39896
6.33
6.48904
5.09862
4.91142
7.81542
2.61481
3.28789
3.76111
3.92462
3.43118
2.64709
2.4285
3.49849
1.62627
1.91064
2.34234
2.44452
1.98328
1.60771
1.6945
2.46487
1.05013
1.19602
1.42548
1.43493
1.17855
1.07424
1.27161
1.97694
0.712021
0.78582
0.895867
0.885936
0.771099
0.757317
0.963474
1.61422
0.532461
0.563202
0.616582
0.60381
0.557982
0.569531
0.730023
1.26468
0.434536
0.446832
0.472162
0.463539
0.443757
0.455159
0.558865
0.912048
0.381278
0.383889
0.394826
0.389545
0.379141
0.386135
0.443186
0.636961
0.347606
0.345334
0.348614
0.344847
0.338268
0.341727
0.371855
0.473301
0.3214
0.317401
0.317238
0.313988
0.308789
0.310245
0.325793
0.378678
0.298693
0.294228
0.29271
0.28943
0.284965
0.285768
0.295502
0.323919
0.278791
0.274719
0.273128
0.27027
0.266395
0.266289
0.272029
0.288591
0.262135
0.258584
0.256885
0.254392
0.250954
0.250628
0.254317
0.263642
0.247483
0.244578
0.242782
0.240768
0.238125
0.237305
0.239084
0.244796
0.233082
0.231357
0.230042
0.228366
0.226281
0.225629
0.226571
0.229591
0.219048
0.218589
0.217926
0.216788
0.215355
0.214962
0.21514
0.216799
0.206002
0.206279
0.206348
0.205668
0.204748
0.204767
0.204782
0.205481
0.193962
0.194749
0.195164
0.195052
0.194635
0.195022
0.194869
0.195108
0.183112
0.184335
0.184907
0.185155
0.184989
0.185543
0.185572
0.185677
0.173697
0.175163
0.175913
0.176321
0.176285
0.176941
0.177094
0.177128
0.166219
0.167417
0.168265
0.168645
0.168732
0.169533
0.169747
0.169816
0.160765
0.161426
0.162164
0.162447
0.162556
0.163273
0.163581
0.16384
0.157242
0.15742
0.157782
0.157905
0.157972
0.15851
0.158756
0.159051
0.155185
0.155148
0.155104
0.155093
0.154926
0.155225
0.155323
0.155541
0.154098
0.154077
0.153767
0.153695
0.153366
0.153474
0.153397
0.1535
0.153658
0.153651
0.153172
0.153095
0.152694
0.152733
0.152493
0.152542
0.153572
0.153433
0.152909
0.152839
0.152358
0.152399
0.152166
0.152163
0.153616
0.15325
0.152786
0.152631
0.152207
0.152244
0.151995
0.151899
0.153572
0.152979
0.152699
0.152344
0.152021
0.151927
0.151756
0.151616
0.153089
0.152501
0.152427
0.151894
0.151752
0.151564
0.151389
0.151293
0.152352
0.151867
0.151834
0.151374
0.151296
0.151151
0.15093
0.15097
0.151757
0.151431
0.151289
0.150992
0.150821
0.150804
0.150576
0.150722
0.15135
0.151171
0.150902
0.150784
0.150485
0.150589
0.150348
0.150509
0.151092
0.150997
0.150669
0.150716
0.150355
0.150493
0.150213
0.150362
0.150957
0.150922
0.150588
0.150679
0.150351
0.150465
0.150212
0.150309
0.150902
0.150927
0.150641
0.150698
0.150467
0.150522
0.150378
0.150474
0.150871
0.150914
0.150695
0.150696
0.150606
0.150651
0.150621
0.150778
0.151384
0.151429
0.151348
0.151446
0.15146
0.151622
0.151801
0.152036
0.154823
0.15505
0.155379
0.1557
0.156109
0.156476
0.156964
0.15744
0.164333
0.164977
0.165754
0.166507
0.16741
0.168332
0.169441
0.17062
0.183608
0.185045
0.186614
0.188287
0.190127
0.192139
0.194355
0.196844
0.218633
0.221428
0.224388
0.227597
0.231054
0.234852
0.238999
0.243549
0.278503
0.283306
0.288433
0.29393
0.299854
0.306256
0.31318
0.320668
0.378169
0.385724
0.393742
0.402279
0.411368
0.421058
0.431364
0.442302
0.542104
0.552988
0.564365
0.576271
0.588728
0.601738
0.615297
0.629371
0.802999
0.816567
0.830416
0.844544
0.858952
0.873613
0.888528
0.903665
1.19266
1.2053
1.21791
1.23051
1.24313
1.25576
1.26838
1.28106
2.98316
2.98315
2.98315
2.98315
2.98316
2.98316
2.98316
2.98317
2.98317
2.98317
2.98317
2.98317
2.98317
2.98317
2.98317
2.98317
2.98317
2.98317
2.98317
2.98317
2.98316
2.98316
2.98316
2.98315
2.98315
2.98315
2.98315
2.98315
2.98315
2.98316
2.98316
2.98315
2.98315
2.98315
2.98316
2.98316
2.98316
2.98316
2.98317
2.98317
2.98317
2.98318
2.98318
2.98318
2.98318
2.98319
2.98318
2.98318
2.98318
2.98317
2.98317
2.98316
2.98316
2.98316
2.98316
2.98316
2.98317
2.98317
2.98317
2.98318
2.98318
2.98318
2.98319
2.98319
2.98319
2.98319
2.98319
2.98319
2.9832
2.9832
2.98321
2.98321
2.98321
2.9832
2.9832
2.9832
2.98319
2.98319
2.9832
2.9832
2.9832
2.98321
2.98321
2.98322
2.98322
2.98321
2.98321
2.9832
2.9832
2.9832
2.9832
2.98321
2.98321
2.98322
2.98323
2.98323
2.98323
2.98323
2.98323
2.98323
2.98323
2.98322
2.98322
2.98321
2.98321
2.9832
2.98319
2.98319
2.98318
2.98317
2.98317
2.98316
2.98316
2.98316
2.98316
2.98316
2.98316
2.98317
2.98317
2.98317
2.98317
2.98317
2.98317
2.98317
2.98317
2.98317
2.98318
2.98318
2.98318
2.98317
2.98317
2.98317
2.98317
2.98317
2.98317
2.98318
2.98318
2.98318
2.98317
2.98317
2.98317
2.98318
2.98318
2.98318
2.98318
2.98318
2.98318
2.98318
2.98318
2.98318
2.98318
2.98318
2.98318
2.98318
2.98318
2.98318
1.40053
1.3522
1.33022
1.32746
1.3104
1.29056
1.24147
1.14957
1.03245
0.936098
0.882424
0.851009
0.85414
0.855173
0.867631
0.871163
0.87453
0.879892
0.869596
0.826294
0.816431
0.826961
0.856904
0.876581
0.884041
0.889408
0.893522
0.904573
0.884173
0.87199
0.86289
0.867323
0.870725
0.882249
0.860553
0.828445
0.775774
0.734225
0.734587
0.759428
0.782828
0.761746
0.725805
0.683985
0.659538
0.654903
0.655701
0.66385
0.678506
0.699211
0.722571
0.744962
0.763067
0.771998
0.771308
0.761526
0.745024
0.718414
0.683849
0.645804
0.610814
0.586657
0.57561
0.572903
0.571815
0.567894
0.559711
0.550439
0.542223
0.535931
0.532372
0.53118
0.534134
0.539351
0.544908
0.552907
0.564516
0.574314
0.578992
0.576559
0.571435
0.566685
0.564819
0.566897
0.572827
0.58231
0.593889
0.606037
0.617175
0.626935
0.636011
0.63679
0.632111
0.629205
0.628407
0.629366
0.633602
0.640638
0.649401
0.658803
0.667727
0.676854
0.687389
0.700994
0.718329
0.739246
0.763975
0.79195
0.821952
0.852998
0.884631
0.915548
0.941724
0.961225
0.971301
0.967847
0.950977
0.924286
0.890889
0.854013
0.818147
0.785175
0.755185
0.726341
0.697274
0.669032
0.644612
0.628281
0.620941
0.623437
0.634913
0.645559
0.65128
0.651055
0.647984
0.645879
0.645496
0.647556
0.651232
0.655873
0.660887
0.665036
0.668481
0.671566
0.674455
0.679787
0.685952
0.693054
0.699485
0.705017
0.710555
0.717961
0.727848
0.739689
0.752439
0.764685
0.690034
0.661027
0.630276
0.615851
0.603858
0.597362
0.573555
0.527153
0.475317
0.43428
0.407469
0.391414
0.391547
0.392459
0.397335
0.395337
0.393793
0.394477
0.390633
0.373184
0.367451
0.372432
0.384922
0.392579
0.395857
0.398447
0.399784
0.40474
0.39019
0.376539
0.365447
0.363543
0.362805
0.365116
0.353457
0.337786
0.317009
0.30104
0.298468
0.301841
0.306184
0.297738
0.287318
0.277365
0.272163
0.271289
0.272713
0.275855
0.281015
0.288097
0.295695
0.3026
0.307459
0.309292
0.308309
0.304801
0.299416
0.291456
0.281726
0.27165
0.262965
0.257168
0.254259
0.253018
0.252346
0.250637
0.247554
0.244317
0.241471
0.239342
0.238166
0.237782
0.23874
0.240204
0.241789
0.244066
0.246857
0.248979
0.249821
0.24882
0.24763
0.246643
0.246053
0.246738
0.248671
0.251801
0.255663
0.259789
0.263595
0.266688
0.268875
0.269182
0.26811
0.26689
0.266063
0.265616
0.266081
0.267402
0.269258
0.271297
0.273159
0.275155
0.277913
0.282201
0.288034
0.295455
0.304641
0.315221
0.326477
0.33777
0.348728
0.358866
0.366577
0.371269
0.372486
0.369207
0.361805
0.352022
0.340778
0.329397
0.319551
0.311578
0.30514
0.299203
0.293227
0.287501
0.282883
0.280355
0.279962
0.281941
0.285704
0.289221
0.291081
0.291267
0.290606
0.290265
0.290567
0.29189
0.294027
0.296606
0.298847
0.300059
0.300567
0.300857
0.301329
0.303081
0.30548
0.308318
0.310648
0.312245
0.31353
0.315434
0.3185
0.322684
0.327621
0.332501
0.426288
0.402813
0.380115
0.368472
0.360704
0.356836
0.343722
0.317079
0.288812
0.266802
0.252686
0.244535
0.24444
0.244391
0.246399
0.244838
0.243808
0.243953
0.242112
0.234083
0.231577
0.234214
0.239527
0.242813
0.244366
0.245731
0.246595
0.249045
0.241538
0.233805
0.228055
0.226667
0.225992
0.226589
0.22127
0.214601
0.206367
0.20007
0.19888
0.199809
0.201244
0.198101
0.194409
0.190828
0.18887
0.188459
0.188777
0.189775
0.191492
0.194008
0.196864
0.199464
0.201203
0.201728
0.201144
0.199534
0.197201
0.193922
0.190081
0.186255
0.183057
0.18094
0.179899
0.179487
0.17928
0.178782
0.177868
0.17685
0.175955
0.175282
0.174898
0.174759
0.174907
0.175206
0.175556
0.176129
0.176952
0.177608
0.177893
0.177675
0.177336
0.17704
0.176919
0.177116
0.17767
0.17855
0.179682
0.180919
0.18207
0.18304
0.183806
0.183975
0.183719
0.183459
0.183278
0.183194
0.183334
0.183717
0.184244
0.18482
0.18533
0.185902
0.18674
0.188101
0.190009
0.192534
0.195819
0.19982
0.204241
0.208758
0.213097
0.217019
0.219891
0.221528
0.221881
0.220621
0.21796
0.214479
0.210462
0.206431
0.203024
0.200317
0.198148
0.196125
0.193998
0.191895
0.190154
0.189175
0.189036
0.189787
0.19125
0.192615
0.193326
0.193377
0.193056
0.192854
0.192888
0.193361
0.194178
0.195191
0.196071
0.196521
0.196649
0.196641
0.196693
0.197286
0.198165
0.199252
0.200115
0.200644
0.201001
0.201614
0.20274
0.204358
0.206337
0.208318
0.300761
0.286919
0.271585
0.264027
0.25897
0.255972
0.248432
0.233029
0.217304
0.205461
0.198144
0.193905
0.193538
0.193213
0.193797
0.192557
0.191736
0.191552
0.19047
0.18652
0.185253
0.186364
0.188915
0.190402
0.191102
0.191875
0.192327
0.19354
0.189965
0.185978
0.183275
0.182548
0.182121
0.182266
0.179813
0.176992
0.173534
0.17089
0.170322
0.17068
0.171327
0.17011
0.16876
0.167323
0.16644
0.166089
0.165919
0.165903
0.166182
0.166809
0.167681
0.168539
0.169116
0.169243
0.168912
0.168162
0.167187
0.165867
0.164401
0.163018
0.161908
0.161204
0.160901
0.16083
0.160809
0.160747
0.160582
0.16034
0.160143
0.160004
0.159911
0.159847
0.159788
0.159743
0.15973
0.159795
0.159972
0.160203
0.160322
0.160328
0.160284
0.160267
0.160292
0.160345
0.160412
0.160515
0.160691
0.160919
0.161155
0.161419
0.16175
0.161934
0.161987
0.162122
0.162284
0.162411
0.162583
0.1628
0.163008
0.163218
0.163376
0.163536
0.163749
0.164058
0.164531
0.165223
0.166239
0.167589
0.169181
0.170884
0.172571
0.174107
0.17528
0.176003
0.176219
0.175785
0.174805
0.173515
0.172002
0.170485
0.16921
0.168199
0.167392
0.166639
0.165835
0.165038
0.164364
0.163977
0.163881
0.164145
0.164703
0.165217
0.165479
0.165483
0.165346
0.165265
0.165274
0.165433
0.165716
0.166067
0.166393
0.166564
0.166622
0.166659
0.166727
0.166977
0.167334
0.167752
0.168044
0.168171
0.168226
0.168391
0.168785
0.169394
0.170165
0.170957
0.246413
0.23422
0.22503
0.219988
0.216378
0.213488
0.2079
0.198245
0.189037
0.181993
0.177778
0.175452
0.174993
0.17463
0.174531
0.173441
0.172693
0.172314
0.171564
0.169479
0.168792
0.169229
0.170275
0.170976
0.171332
0.171635
0.171915
0.172554
0.170956
0.168801
0.167565
0.167137
0.166852
0.166854
0.165734
0.16455
0.163138
0.162089
0.161867
0.16207
0.162431
0.162085
0.161655
0.160745
0.160127
0.159741
0.159334
0.158997
0.158783
0.158718
0.158793
0.158947
0.159058
0.159011
0.15879
0.158425
0.158029
0.157541
0.157044
0.156593
0.156248
0.156054
0.15601
0.156078
0.15615
0.156212
0.156267
0.156301
0.156333
0.156375
0.156393
0.156347
0.156231
0.15609
0.155975
0.155896
0.155859
0.155953
0.156028
0.156066
0.15608
0.156145
0.156238
0.156295
0.156283
0.156189
0.156089
0.155992
0.155923
0.155921
0.156063
0.156254
0.156437
0.156733
0.156954
0.15711
0.157215
0.157366
0.157474
0.157586
0.157647
0.157675
0.157678
0.157697
0.157694
0.157715
0.157865
0.158177
0.158658
0.159288
0.159978
0.160611
0.161057
0.161306
0.161387
0.161255
0.160955
0.160548
0.160073
0.159586
0.15915
0.158778
0.158542
0.158325
0.158072
0.157841
0.157618
0.157457
0.157378
0.157403
0.157602
0.157808
0.157916
0.157916
0.157861
0.157827
0.157824
0.157875
0.157975
0.158117
0.158263
0.158361
0.158396
0.15839
0.158437
0.158561
0.158715
0.158862
0.15894
0.158958
0.158946
0.158995
0.159138
0.159356
0.159638
0.159961
0.219482
0.214362
0.209949
0.206902
0.203509
0.198738
0.192472
0.184861
0.178227
0.173305
0.170462
0.168866
0.168308
0.167807
0.167375
0.166483
0.165731
0.165264
0.164732
0.163452
0.162986
0.163108
0.163617
0.163851
0.163926
0.164165
0.164272
0.164531
0.164062
0.162667
0.162074
0.161815
0.161665
0.161701
0.161156
0.160644
0.160104
0.159718
0.159612
0.159876
0.160226
0.160102
0.159887
0.159282
0.158816
0.158411
0.157862
0.157357
0.156921
0.156585
0.156348
0.156197
0.156073
0.155938
0.155761
0.155533
0.155355
0.155187
0.155057
0.154946
0.154889
0.154877
0.154927
0.155034
0.155118
0.155218
0.155372
0.1555
0.155611
0.155704
0.155738
0.155684
0.15552
0.155314
0.155128
0.154975
0.154878
0.15489
0.155033
0.155168
0.155281
0.155373
0.155449
0.155459
0.155337
0.155133
0.154903
0.154691
0.154535
0.154487
0.154591
0.154785
0.154997
0.155313
0.155573
0.155755
0.155883
0.156024
0.156104
0.156201
0.156257
0.15625
0.156176
0.156046
0.155878
0.155674
0.155514
0.15544
0.155461
0.155614
0.155853
0.156071
0.15625
0.156399
0.156482
0.156519
0.156521
0.156474
0.156407
0.156313
0.156167
0.156044
0.155987
0.155908
0.155816
0.155739
0.155632
0.155557
0.15553
0.155564
0.155692
0.155817
0.155892
0.155908
0.155881
0.155861
0.155853
0.155867
0.155906
0.155969
0.156055
0.156124
0.156142
0.156143
0.156175
0.15623
0.156285
0.156325
0.156332
0.156306
0.156255
0.156269
0.156339
0.156445
0.15658
0.156745
0.214704
0.211844
0.209195
0.206558
0.20301
0.196504
0.188237
0.180398
0.174275
0.1703
0.168
0.166737
0.166102
0.16556
0.164838
0.164055
0.163264
0.162726
0.162235
0.161423
0.161083
0.161118
0.161235
0.161362
0.161433
0.161405
0.161437
0.161488
0.16156
0.160533
0.160245
0.160142
0.16003
0.159939
0.159633
0.159388
0.159152
0.158875
0.158747
0.158861
0.159049
0.159063
0.159055
0.158634
0.158285
0.157967
0.157378
0.156809
0.156311
0.155904
0.155605
0.155401
0.155249
0.155098
0.154948
0.154827
0.154748
0.154683
0.154624
0.154591
0.154597
0.154618
0.154672
0.154757
0.154818
0.154954
0.155108
0.155232
0.15536
0.155471
0.155525
0.155519
0.155356
0.155151
0.154961
0.154791
0.154675
0.15465
0.154771
0.154897
0.155016
0.155142
0.15525
0.155266
0.15518
0.154944
0.154682
0.154425
0.154219
0.15413
0.154225
0.154419
0.154655
0.154971
0.155218
0.155408
0.155543
0.155684
0.155759
0.155853
0.155899
0.155848
0.155753
0.155594
0.155381
0.155126
0.154853
0.154652
0.15455
0.15456
0.154662
0.154799
0.154902
0.154963
0.155045
0.155144
0.15525
0.155352
0.155403
0.15541
0.155374
0.155333
0.155308
0.155255
0.15521
0.155229
0.155179
0.155135
0.155104
0.155081
0.155128
0.155177
0.155223
0.155258
0.155283
0.155297
0.155309
0.155321
0.155336
0.155366
0.155414
0.155476
0.15552
0.155545
0.15559
0.155632
0.155641
0.155637
0.155641
0.155615
0.155541
0.155483
0.155481
0.155515
0.155585
0.155708
0.214122
0.213249
0.211838
0.209605
0.20555
0.197512
0.188171
0.179524
0.17313
0.169268
0.167115
0.16594
0.165327
0.164746
0.163958
0.163158
0.162354
0.161796
0.161337
0.160664
0.160352
0.160356
0.16046
0.16049
0.160372
0.160385
0.160338
0.160393
0.160561
0.15974
0.159603
0.159562
0.159421
0.159301
0.159079
0.158939
0.158784
0.158672
0.158567
0.158753
0.158962
0.158945
0.158956
0.15851
0.158092
0.157583
0.157038
0.156517
0.156039
0.155624
0.155304
0.155092
0.154932
0.154789
0.154665
0.154552
0.154497
0.154468
0.154451
0.154438
0.154486
0.154506
0.154573
0.154694
0.154804
0.154904
0.155062
0.155201
0.155331
0.155445
0.155495
0.155472
0.155316
0.155123
0.154934
0.15477
0.154664
0.154685
0.154799
0.154886
0.154955
0.155009
0.155082
0.155141
0.155043
0.154824
0.154575
0.154325
0.154133
0.154064
0.154176
0.154386
0.154616
0.154899
0.155135
0.155325
0.155463
0.155601
0.155673
0.15577
0.155813
0.155784
0.155701
0.155547
0.155332
0.155063
0.154743
0.15447
0.154272
0.154223
0.154262
0.154336
0.154396
0.154437
0.154499
0.154609
0.154771
0.154941
0.155063
0.155133
0.155142
0.155128
0.155101
0.155054
0.155012
0.154973
0.154923
0.154892
0.154881
0.15493
0.154997
0.155054
0.155102
0.155137
0.15515
0.155131
0.155108
0.155101
0.155115
0.155146
0.15519
0.155226
0.155263
0.1553
0.155347
0.155401
0.15544
0.155457
0.155467
0.155446
0.155394
0.155327
0.155308
0.155333
0.155393
0.155488
0.21664
0.217022
0.217422
0.215607
0.210615
0.200426
0.189318
0.179733
0.17308
0.169127
0.166917
0.165697
0.164975
0.164361
0.163567
0.162777
0.161973
0.161421
0.16098
0.160445
0.160216
0.160218
0.160126
0.16001
0.159984
0.159897
0.159931
0.159949
0.160243
0.159444
0.159326
0.159293
0.159141
0.159121
0.158916
0.158806
0.158761
0.158606
0.158525
0.158738
0.159046
0.159084
0.159051
0.158537
0.15807
0.157671
0.15711
0.156545
0.156037
0.155606
0.15527
0.155023
0.154824
0.15468
0.154557
0.154462
0.15443
0.154422
0.154416
0.15441
0.154435
0.154468
0.154549
0.154658
0.154733
0.154852
0.155041
0.1552
0.155349
0.155472
0.155522
0.155474
0.155296
0.155091
0.154894
0.154718
0.154591
0.154541
0.154631
0.154744
0.154869
0.155037
0.155177
0.155205
0.1551
0.15487
0.154598
0.154343
0.154135
0.154044
0.154142
0.154353
0.154578
0.154844
0.155082
0.155296
0.155463
0.155622
0.155695
0.155792
0.155823
0.155783
0.155692
0.155532
0.155306
0.155028
0.154685
0.154419
0.154235
0.154137
0.154132
0.154152
0.154218
0.154314
0.154403
0.154549
0.154734
0.154911
0.15504
0.155124
0.155167
0.155176
0.155161
0.155087
0.155019
0.154977
0.154936
0.154919
0.154902
0.154888
0.154955
0.155038
0.155093
0.15511
0.155095
0.155054
0.155028
0.155025
0.155037
0.155066
0.155127
0.155192
0.155233
0.15525
0.155283
0.155326
0.155378
0.155388
0.155377
0.155332
0.155264
0.155218
0.15523
0.155278
0.155364
0.155444
0.220979
0.22113
0.220593
0.218445
0.212972
0.203339
0.190745
0.180122
0.173077
0.169092
0.166777
0.16554
0.164854
0.164199
0.16344
0.162701
0.161903
0.161341
0.160911
0.160334
0.160086
0.16009
0.160113
0.160022
0.159876
0.15985
0.159748
0.159741
0.15998
0.159364
0.159284
0.159287
0.159087
0.159025
0.158847
0.158783
0.158644
0.158615
0.158465
0.158629
0.158836
0.158915
0.158899
0.15845
0.158144
0.157797
0.157221
0.156639
0.156091
0.155626
0.15527
0.155024
0.154847
0.154688
0.154571
0.154483
0.154445
0.154419
0.154409
0.154406
0.154485
0.154556
0.154637
0.154731
0.154799
0.154951
0.155128
0.155273
0.1554
0.155501
0.155543
0.155517
0.155333
0.155115
0.154915
0.154739
0.154619
0.154609
0.15475
0.154899
0.155033
0.155132
0.155207
0.155204
0.155085
0.154854
0.154587
0.154332
0.154138
0.15406
0.154174
0.154373
0.154605
0.154874
0.155095
0.155291
0.155448
0.155599
0.155667
0.155768
0.155803
0.155772
0.155687
0.155529
0.155304
0.155029
0.154706
0.154454
0.154259
0.154151
0.154125
0.15411
0.154133
0.154246
0.154446
0.154651
0.154817
0.154943
0.155025
0.155085
0.155137
0.155152
0.155136
0.155071
0.155009
0.154967
0.154931
0.154882
0.154844
0.154883
0.154986
0.155059
0.155097
0.155102
0.155078
0.155032
0.154999
0.154988
0.155006
0.155036
0.155074
0.15513
0.155171
0.155195
0.155218
0.155253
0.1553
0.155321
0.155307
0.155263
0.155177
0.155113
0.155113
0.15516
0.155238
0.155329
0.22636
0.223243
0.220778
0.218222
0.212845
0.204098
0.191462
0.180543
0.173167
0.169056
0.166736
0.165488
0.16472
0.164116
0.163382
0.162666
0.161842
0.161306
0.160931
0.160497
0.160272
0.160242
0.160065
0.159955
0.159938
0.159741
0.159798
0.159793
0.160143
0.159376
0.159274
0.159276
0.15918
0.159
0.158868
0.158777
0.158814
0.158589
0.158505
0.158612
0.15883
0.158783
0.15882
0.158501
0.158122
0.157718
0.157156
0.156593
0.156083
0.155651
0.155326
0.1551
0.154934
0.154793
0.154671
0.154575
0.154528
0.154507
0.154497
0.15449
0.154505
0.154505
0.154542
0.15466
0.154769
0.154878
0.15503
0.155159
0.155287
0.155407
0.155467
0.155469
0.155315
0.155121
0.154933
0.154775
0.154672
0.15466
0.154788
0.154876
0.154936
0.15499
0.155069
0.155132
0.155031
0.154829
0.154591
0.154339
0.154138
0.154055
0.154153
0.154358
0.154569
0.154837
0.155081
0.155293
0.155445
0.155592
0.155661
0.155765
0.15581
0.15578
0.155695
0.155547
0.155319
0.155032
0.154717
0.154473
0.154288
0.154171
0.154156
0.154145
0.154156
0.154232
0.154385
0.154569
0.154747
0.154889
0.155009
0.155089
0.155131
0.15513
0.155109
0.15506
0.155016
0.154986
0.154972
0.154965
0.154967
0.154976
0.155037
0.155097
0.155144
0.155166
0.155169
0.155156
0.15513
0.155116
0.155126
0.155152
0.155196
0.155251
0.155295
0.155311
0.155319
0.155328
0.15539
0.155412
0.15539
0.155333
0.155235
0.155137
0.155124
0.155148
0.155222
0.155283
0.234919
0.224492
0.219755
0.216616
0.211555
0.203661
0.191278
0.180435
0.173081
0.168969
0.166709
0.16552
0.164837
0.164114
0.163387
0.16265
0.161857
0.161304
0.160904
0.160458
0.160303
0.160293
0.160282
0.160091
0.159907
0.159891
0.159792
0.159791
0.160002
0.15938
0.159336
0.159396
0.159175
0.159108
0.158915
0.158814
0.158645
0.158667
0.15856
0.15877
0.158945
0.158997
0.159007
0.158501
0.158082
0.157674
0.157133
0.156573
0.156068
0.15566
0.155349
0.155141
0.154961
0.154822
0.15469
0.154577
0.15451
0.154473
0.154434
0.154407
0.154406
0.154447
0.154527
0.154631
0.154709
0.154864
0.155046
0.155213
0.155362
0.155472
0.155514
0.155465
0.1553
0.155075
0.154872
0.154696
0.154575
0.154551
0.154659
0.154756
0.154848
0.154983
0.155125
0.155132
0.155025
0.154796
0.154544
0.1543
0.154105
0.154028
0.154155
0.154364
0.154572
0.154837
0.155078
0.155291
0.15545
0.155591
0.155658
0.155765
0.155811
0.155766
0.155686
0.155526
0.155293
0.155013
0.154726
0.15449
0.154316
0.154199
0.154196
0.15421
0.154247
0.154318
0.154423
0.154574
0.154737
0.154864
0.154968
0.155038
0.155062
0.155042
0.155019
0.154985
0.154952
0.154927
0.154899
0.154866
0.154868
0.154889
0.154954
0.155029
0.155081
0.155102
0.155095
0.155072
0.155055
0.155052
0.155056
0.155086
0.155149
0.1552
0.15523
0.155272
0.155309
0.155333
0.155383
0.155436
0.155453
0.155428
0.155356
0.155258
0.155241
0.155247
0.155319
0.155374
0.253695
0.226587
0.217414
0.213549
0.208749
0.201977
0.19047
0.180041
0.172856
0.168834
0.166583
0.165431
0.164757
0.16424
0.163386
0.162595
0.16181
0.161264
0.160841
0.160525
0.16042
0.160384
0.160219
0.160004
0.159879
0.159685
0.15975
0.159768
0.160172
0.159391
0.159283
0.159343
0.159204
0.159092
0.158926
0.158905
0.158898
0.158569
0.158484
0.158679
0.158997
0.159004
0.15894
0.158473
0.158115
0.157656
0.157102
0.156602
0.156122
0.155682
0.15534
0.155121
0.154961
0.15482
0.154706
0.154608
0.154555
0.154523
0.154515
0.154519
0.154553
0.154565
0.154603
0.154684
0.154737
0.154867
0.155054
0.155209
0.155354
0.155481
0.155538
0.155537
0.155362
0.155137
0.154935
0.154765
0.154644
0.154592
0.154717
0.154867
0.155034
0.155151
0.155209
0.155231
0.155075
0.15482
0.154548
0.154298
0.15411
0.154043
0.154166
0.154379
0.15458
0.154826
0.155053
0.155263
0.155416
0.155543
0.155611
0.155718
0.15578
0.155758
0.155678
0.15552
0.155287
0.155006
0.154718
0.154496
0.154324
0.154188
0.154183
0.154193
0.154221
0.154304
0.154428
0.154571
0.154714
0.154814
0.154887
0.154945
0.154997
0.154997
0.154984
0.154962
0.154931
0.154894
0.154896
0.154869
0.154795
0.154807
0.15489
0.154962
0.155
0.155009
0.155003
0.154981
0.154968
0.15497
0.154984
0.155025
0.155096
0.155161
0.155197
0.155233
0.155265
0.155286
0.155321
0.155369
0.155394
0.15539
0.155332
0.155257
0.155259
0.155274
0.155353
0.155438
0.255242
0.224477
0.2118
0.206664
0.202045
0.197162
0.188199
0.178968
0.172308
0.168593
0.166537
0.165401
0.164733
0.16405
0.163343
0.162614
0.161834
0.161316
0.160941
0.160437
0.160196
0.16014
0.160125
0.159982
0.159817
0.159857
0.159802
0.159815
0.160022
0.159373
0.15932
0.159344
0.159234
0.159109
0.158919
0.158801
0.158672
0.158613
0.158514
0.158668
0.158836
0.158839
0.15885
0.158443
0.1581
0.15772
0.157123
0.156563
0.156086
0.155673
0.155348
0.155123
0.154944
0.154777
0.154646
0.154545
0.154492
0.154463
0.154423
0.15439
0.154384
0.15446
0.154567
0.154699
0.154797
0.154917
0.15508
0.155216
0.155339
0.155444
0.155492
0.155477
0.155299
0.155104
0.154912
0.154746
0.154636
0.154642
0.154769
0.154869
0.154948
0.155041
0.155144
0.155157
0.155066
0.154828
0.154565
0.154307
0.154105
0.154022
0.154145
0.154367
0.154591
0.154858
0.155087
0.155285
0.155421
0.155537
0.1556
0.1557
0.155764
0.15575
0.155669
0.155523
0.155297
0.15501
0.154675
0.154412
0.15422
0.154121
0.154111
0.154114
0.154138
0.154204
0.154313
0.154465
0.154634
0.154756
0.154845
0.154908
0.154977
0.154987
0.154982
0.154969
0.154941
0.154902
0.154847
0.154858
0.154877
0.154865
0.154904
0.154956
0.155007
0.155025
0.15502
0.154997
0.154971
0.154953
0.154955
0.154981
0.155031
0.15508
0.155112
0.155134
0.155174
0.155223
0.155303
0.155345
0.155345
0.155316
0.155235
0.155146
0.155145
0.155161
0.15522
0.155292
0.240763
0.215582
0.203212
0.198393
0.194325
0.190448
0.184329
0.177104
0.171414
0.168133
0.166272
0.16527
0.164668
0.164256
0.163467
0.162676
0.16181
0.161275
0.160864
0.160577
0.160485
0.16047
0.16026
0.160043
0.159929
0.159735
0.159806
0.15978
0.160171
0.15945
0.159311
0.159293
0.159206
0.159101
0.159023
0.159054
0.158943
0.158617
0.158526
0.158648
0.158892
0.158929
0.158911
0.158457
0.158037
0.157667
0.157164
0.156654
0.156176
0.155774
0.155452
0.155188
0.154968
0.154801
0.154669
0.154577
0.154538
0.154515
0.154504
0.154496
0.1545
0.154495
0.154524
0.154601
0.154676
0.154832
0.155013
0.155167
0.155311
0.155434
0.155491
0.155473
0.155311
0.155089
0.154898
0.154734
0.15461
0.154557
0.154659
0.154764
0.154866
0.154977
0.155101
0.155176
0.155071
0.154838
0.15457
0.154322
0.154132
0.154051
0.15413
0.15433
0.154546
0.154851
0.155111
0.155314
0.155447
0.15556
0.155613
0.155707
0.155767
0.155746
0.155669
0.15552
0.155297
0.15502
0.154678
0.154397
0.154183
0.154089
0.154053
0.154042
0.154065
0.154148
0.154276
0.154432
0.154595
0.15472
0.154816
0.154902
0.154945
0.154945
0.154937
0.154923
0.154922
0.154916
0.154879
0.154857
0.154845
0.154886
0.154948
0.154992
0.155029
0.155053
0.155053
0.155033
0.155025
0.155021
0.155017
0.15503
0.155083
0.155126
0.155162
0.155201
0.155244
0.155284
0.155328
0.155355
0.155356
0.15532
0.155225
0.155114
0.155112
0.155159
0.155233
0.155276
0.22268
0.205234
0.196127
0.191779
0.188107
0.185164
0.180932
0.175408
0.170771
0.167944
0.166257
0.165249
0.164698
0.164066
0.163493
0.162854
0.162047
0.161458
0.161044
0.160684
0.160589
0.160653
0.16053
0.160165
0.1599
0.159965
0.159828
0.159853
0.160135
0.159496
0.159452
0.159471
0.15921
0.159131
0.158986
0.158847
0.158697
0.158527
0.158405
0.158684
0.158935
0.158907
0.158838
0.158325
0.158029
0.157666
0.157143
0.15669
0.156277
0.15589
0.155557
0.155294
0.155059
0.154859
0.154713
0.154608
0.154547
0.154505
0.154464
0.154428
0.154407
0.154432
0.154505
0.154635
0.154737
0.154829
0.154987
0.155146
0.155294
0.155416
0.155468
0.155457
0.155306
0.155094
0.154879
0.154699
0.154591
0.154575
0.154706
0.154857
0.155006
0.155106
0.155182
0.155242
0.155142
0.154849
0.154556
0.15429
0.154089
0.154014
0.154127
0.154322
0.154539
0.15485
0.155115
0.155319
0.155442
0.155545
0.155595
0.15568
0.155736
0.155726
0.155653
0.155518
0.155312
0.155051
0.154724
0.154402
0.154194
0.154099
0.154067
0.154063
0.154085
0.154157
0.15427