/*--------------------------------*- C++ -*----------------------------------*\
| =========                 |                                                 |
| \\      /  F ield         | OpenFOAM: The Open Source CFD Toolbox           |
|  \\    /   O peration     | Version:  v1912                                 |
|   \\  /    A nd           | Website:  www.openfoam.com                      |
|    \\/     M anipulation  |                                                 |
\*---------------------------------------------------------------------------*/
FoamFile
{
    version     2.0;
    format      ascii;
    class       volSymmTensorField;
    location    "20";
    object      R;
}
// * * * * * * * * * * * * * * * * * * * * * * * * * * * * * * * * * * * * * //

dimensions      [0 2 -2 0 0 0 0];


internalField   nonuniform List<symmTensor> 
14268
(
(9.33173e-11 -6.35834e-13 0 9.33045e-11 0 9.33115e-11)
(9.33256e-11 -6.3617e-13 0 9.33138e-11 0 9.33203e-11)
(9.33337e-11 -6.36489e-13 0 9.33229e-11 0 9.3329e-11)
(9.33413e-11 -6.36793e-13 0 9.33314e-11 0 9.3337e-11)
(9.33487e-11 -6.37081e-13 0 9.33397e-11 0 9.33448e-11)
(9.33555e-11 -6.37356e-13 0 9.33474e-11 0 9.33521e-11)
(9.33622e-11 -6.37617e-13 0 9.33549e-11 0 9.33592e-11)
(9.33685e-11 -6.37866e-13 0 9.33619e-11 0 9.33658e-11)
(9.33745e-11 -6.38101e-13 0 9.33687e-11 0 9.33722e-11)
(9.33802e-11 -6.38325e-13 0 9.33751e-11 0 9.33782e-11)
(9.33856e-11 -6.38538e-13 0 9.33812e-11 0 9.3384e-11)
(9.33907e-11 -6.3874e-13 0 9.33869e-11 0 9.33895e-11)
(9.33957e-11 -6.38932e-13 0 9.33925e-11 0 9.33947e-11)
(9.34003e-11 -6.39115e-13 0 9.33977e-11 0 9.33996e-11)
(9.34048e-11 -6.39288e-13 0 9.34027e-11 0 9.34044e-11)
(9.3409e-11 -6.39452e-13 0 9.34074e-11 0 9.34088e-11)
(9.3413e-11 -6.39607e-13 0 9.34119e-11 0 9.34131e-11)
(9.34168e-11 -6.39755e-13 0 9.34162e-11 0 9.34171e-11)
(9.34204e-11 -6.39895e-13 0 9.34202e-11 0 9.34209e-11)
(9.34238e-11 -6.40028e-13 0 9.34241e-11 0 9.34246e-11)
(9.34271e-11 -6.40154e-13 0 9.34277e-11 0 9.3428e-11)
(9.34302e-11 -6.40273e-13 0 9.34312e-11 0 9.34313e-11)
(9.34331e-11 -6.40386e-13 0 9.34345e-11 0 9.34344e-11)
(9.34359e-11 -6.40493e-13 0 9.34377e-11 0 9.34374e-11)
(9.34385e-11 -6.40595e-13 0 9.34406e-11 0 9.34402e-11)
(9.3441e-11 -6.4069e-13 0 9.34434e-11 0 9.34429e-11)
(9.34434e-11 -6.40781e-13 0 9.34461e-11 0 9.34454e-11)
(9.34457e-11 -6.40867e-13 0 9.34486e-11 0 9.34478e-11)
(9.34478e-11 -6.40949e-13 0 9.3451e-11 0 9.345e-11)
(9.34498e-11 -6.41026e-13 0 9.34533e-11 0 9.34522e-11)
(9.34517e-11 -6.41099e-13 0 9.34554e-11 0 9.34542e-11)
(9.34535e-11 -6.41167e-13 0 9.34575e-11 0 9.34561e-11)
(9.34552e-11 -6.41232e-13 0 9.34594e-11 0 9.3458e-11)
(9.34569e-11 -6.41294e-13 0 9.34612e-11 0 9.34597e-11)
(9.34584e-11 -6.41352e-13 0 9.3463e-11 0 9.34613e-11)
(9.34599e-11 -6.41407e-13 0 9.34646e-11 0 9.34629e-11)
(9.34612e-11 -6.41459e-13 0 9.34662e-11 0 9.34643e-11)
(9.34625e-11 -6.41508e-13 0 9.34676e-11 0 9.34657e-11)
(9.34638e-11 -6.41554e-13 0 9.3469e-11 0 9.3467e-11)
(9.34649e-11 -6.41598e-13 0 9.34703e-11 0 9.34682e-11)
(9.3466e-11 -6.41639e-13 0 9.34715e-11 0 9.34694e-11)
(9.34671e-11 -6.41677e-13 0 9.34727e-11 0 9.34705e-11)
(9.34681e-11 -6.41714e-13 0 9.34738e-11 0 9.34716e-11)
(9.3469e-11 -6.41749e-13 0 9.34748e-11 0 9.34725e-11)
(9.34699e-11 -6.41781e-13 0 9.34758e-11 0 9.34735e-11)
(9.34707e-11 -6.41812e-13 0 9.34768e-11 0 9.34743e-11)
(9.34715e-11 -6.4184e-13 0 9.34776e-11 0 9.34752e-11)
(9.34722e-11 -6.41868e-13 0 9.34785e-11 0 9.3476e-11)
(9.34729e-11 -6.41893e-13 0 9.34792e-11 0 9.34767e-11)
(9.34735e-11 -6.41917e-13 0 9.348e-11 0 9.34774e-11)
(9.34742e-11 -6.4194e-13 0 9.34807e-11 0 9.3478e-11)
(9.34747e-11 -6.41961e-13 0 9.34813e-11 0 9.34787e-11)
(9.34753e-11 -6.41981e-13 0 9.34819e-11 0 9.34792e-11)
(9.34758e-11 -6.42e-13 0 9.34825e-11 0 9.34798e-11)
(9.34763e-11 -6.42018e-13 0 9.34831e-11 0 9.34803e-11)
(9.34767e-11 -6.42034e-13 0 9.34836e-11 0 9.34808e-11)
(9.34772e-11 -6.4205e-13 0 9.34841e-11 0 9.34812e-11)
(9.34776e-11 -6.42065e-13 0 9.34845e-11 0 9.34817e-11)
(9.34779e-11 -6.42078e-13 0 9.34849e-11 0 9.34821e-11)
(9.34783e-11 -6.42091e-13 0 9.34853e-11 0 9.34825e-11)
(9.34786e-11 -6.42103e-13 0 9.34857e-11 0 9.34828e-11)
(9.3479e-11 -6.42115e-13 0 9.34861e-11 0 9.34831e-11)
(9.34793e-11 -6.42125e-13 0 9.34864e-11 0 9.34835e-11)
(9.34795e-11 -6.42135e-13 0 9.34867e-11 0 9.34838e-11)
(9.34798e-11 -6.42145e-13 0 9.3487e-11 0 9.3484e-11)
(9.348e-11 -6.42154e-13 0 9.34873e-11 0 9.34843e-11)
(9.34803e-11 -6.42162e-13 0 9.34875e-11 0 9.34845e-11)
(9.34805e-11 -6.42169e-13 0 9.34878e-11 0 9.34848e-11)
(9.34807e-11 -6.42177e-13 0 9.3488e-11 0 9.3485e-11)
(9.34809e-11 -6.42183e-13 0 9.34882e-11 0 9.34852e-11)
(9.3481e-11 -6.4219e-13 0 9.34884e-11 0 9.34854e-11)
(9.34812e-11 -6.42195e-13 0 9.34886e-11 0 9.34855e-11)
(9.34814e-11 -6.42201e-13 0 9.34888e-11 0 9.34857e-11)
(9.34815e-11 -6.42206e-13 0 9.34889e-11 0 9.34859e-11)
(9.34816e-11 -6.42211e-13 0 9.34891e-11 0 9.3486e-11)
(9.34818e-11 -6.42215e-13 0 9.34892e-11 0 9.34861e-11)
(9.34819e-11 -6.4222e-13 0 9.34894e-11 0 9.34863e-11)
(9.3482e-11 -6.42223e-13 0 9.34895e-11 0 9.34864e-11)
(9.34821e-11 -6.42227e-13 0 9.34896e-11 0 9.34865e-11)
(9.34822e-11 -6.4223e-13 0 9.34897e-11 0 9.34866e-11)
(9.34823e-11 -6.42231e-13 0 9.34898e-11 0 9.34867e-11)
(9.34824e-11 -6.42237e-13 0 9.34899e-11 0 9.34868e-11)
(9.34825e-11 -6.42239e-13 0 9.349e-11 0 9.34869e-11)
(9.34825e-11 -6.42242e-13 0 9.34901e-11 0 9.34869e-11)
(9.34826e-11 -6.42244e-13 0 9.34902e-11 0 9.3487e-11)
(9.34827e-11 -6.42246e-13 0 9.34902e-11 0 9.34871e-11)
(9.34827e-11 -6.42248e-13 0 9.34903e-11 0 9.34872e-11)
(9.34828e-11 -6.4225e-13 0 9.34904e-11 0 9.34872e-11)
(9.34828e-11 -6.42252e-13 0 9.34904e-11 0 9.34873e-11)
(9.34829e-11 -6.42254e-13 0 9.34905e-11 0 9.34873e-11)
(9.34829e-11 -6.42255e-13 0 9.34905e-11 0 9.34874e-11)
(9.3483e-11 -6.42257e-13 0 9.34906e-11 0 9.34874e-11)
(9.3483e-11 -6.42258e-13 0 9.34906e-11 0 9.34874e-11)
(9.3483e-11 -6.42259e-13 0 9.34907e-11 0 9.34875e-11)
(9.34831e-11 -6.4226e-13 0 9.34907e-11 0 9.34875e-11)
(9.34831e-11 -6.42261e-13 0 9.34907e-11 0 9.34876e-11)
(9.34831e-11 -6.42262e-13 0 9.34908e-11 0 9.34876e-11)
(9.34832e-11 -6.42263e-13 0 9.34908e-11 0 9.34876e-11)
(9.34832e-11 -6.42264e-13 0 9.34908e-11 0 9.34876e-11)
(9.34832e-11 -6.42265e-13 0 9.34908e-11 0 9.34877e-11)
(9.34832e-11 -6.42265e-13 0 9.34909e-11 0 9.34877e-11)
(9.34832e-11 -6.42266e-13 0 9.34909e-11 0 9.34877e-11)
(9.34833e-11 -6.42267e-13 0 9.34909e-11 0 9.34877e-11)
(9.34833e-11 -6.42267e-13 0 9.34909e-11 0 9.34877e-11)
(9.34833e-11 -6.42268e-13 0 9.34909e-11 0 9.34877e-11)
(9.34833e-11 -6.42268e-13 0 9.3491e-11 0 9.34878e-11)
(9.34833e-11 -6.42268e-13 0 9.3491e-11 0 9.34878e-11)
(9.34833e-11 -6.42269e-13 0 9.3491e-11 0 9.34878e-11)
(9.34833e-11 -6.42269e-13 0 9.3491e-11 0 9.34878e-11)
(9.34833e-11 -6.4227e-13 0 9.3491e-11 0 9.34878e-11)
(9.34833e-11 -6.4227e-13 0 9.3491e-11 0 9.34878e-11)
(9.34834e-11 -6.4227e-13 0 9.3491e-11 0 9.34878e-11)
(9.34834e-11 -6.4227e-13 0 9.3491e-11 0 9.34878e-11)
(9.34834e-11 -6.4227e-13 0 9.3491e-11 0 9.34878e-11)
(9.34834e-11 -6.42271e-13 0 9.3491e-11 0 9.34878e-11)
(9.34834e-11 -6.42271e-13 0 9.3491e-11 0 9.34878e-11)
(9.34834e-11 -6.42271e-13 0 9.3491e-11 0 9.34878e-11)
(9.34834e-11 -6.42271e-13 0 9.3491e-11 0 9.34878e-11)
(9.34834e-11 -6.42271e-13 0 9.3491e-11 0 9.34878e-11)
(9.34834e-11 -6.42271e-13 0 9.3491e-11 0 9.34878e-11)
(9.34834e-11 -6.42271e-13 0 9.3491e-11 0 9.34878e-11)
(9.34834e-11 -6.42271e-13 0 9.3491e-11 0 9.34878e-11)
(9.34834e-11 -6.42271e-13 0 9.3491e-11 0 9.34878e-11)
(9.34834e-11 -6.42271e-13 0 9.3491e-11 0 9.34878e-11)
(9.34834e-11 -6.42271e-13 0 9.3491e-11 0 9.34878e-11)
(9.34833e-11 -6.42271e-13 0 9.3491e-11 0 9.34878e-11)
(9.34833e-11 -6.42271e-13 0 9.3491e-11 0 9.34878e-11)
(9.34833e-11 -6.42271e-13 0 9.3491e-11 0 9.34878e-11)
(9.34833e-11 -6.42271e-13 0 9.3491e-11 0 9.34878e-11)
(9.34833e-11 -6.42271e-13 0 9.3491e-11 0 9.34878e-11)
(9.34833e-11 -6.4227e-13 0 9.34909e-11 0 9.34877e-11)
(9.34833e-11 -6.4227e-13 0 9.34909e-11 0 9.34878e-11)
(9.34832e-11 -6.4227e-13 0 9.34909e-11 0 9.34877e-11)
(9.34833e-11 -6.4227e-13 0 9.34909e-11 0 9.34878e-11)
(9.34832e-11 -6.42269e-13 0 9.34908e-11 0 9.34876e-11)
(9.34833e-11 -6.42271e-13 0 9.3491e-11 0 9.34878e-11)
(9.34832e-11 -6.42269e-13 0 9.34908e-11 0 9.34876e-11)
(9.34834e-11 -6.42272e-13 0 9.3491e-11 0 9.34878e-11)
(9.34832e-11 -6.4227e-13 0 9.34908e-11 0 9.34876e-11)
(9.34834e-11 -6.42274e-13 0 9.34911e-11 0 9.34879e-11)
(9.34833e-11 -6.42273e-13 0 9.34909e-11 0 9.34877e-11)
(9.34835e-11 -6.42275e-13 0 9.34912e-11 0 9.3488e-11)
(9.34834e-11 -6.42274e-13 0 9.3491e-11 0 9.34878e-11)
(9.34837e-11 -6.42279e-13 0 9.34914e-11 0 9.34882e-11)
(9.34835e-11 -6.42278e-13 0 9.34912e-11 0 9.3488e-11)
(9.34838e-11 -6.42281e-13 0 9.34915e-11 0 9.34883e-11)
(9.34836e-11 -6.4228e-13 0 9.34913e-11 0 9.34881e-11)
(9.34838e-11 -6.42281e-13 0 9.34915e-11 0 9.34883e-11)
(9.34837e-11 -6.4228e-13 0 9.34914e-11 0 9.34882e-11)
(9.34838e-11 -6.42281e-13 0 9.34915e-11 0 9.34883e-11)
(9.34837e-11 -6.4228e-13 0 9.34914e-11 0 9.34882e-11)
(9.34837e-11 -6.4228e-13 0 9.34915e-11 0 9.34882e-11)
(9.34837e-11 -6.42279e-13 0 9.34914e-11 0 9.34882e-11)
(9.34837e-11 -6.42279e-13 0 9.34914e-11 0 9.34882e-11)
(9.34837e-11 -6.42278e-13 0 9.34914e-11 0 9.34881e-11)
(9.34837e-11 -6.42279e-13 0 9.34914e-11 0 9.34882e-11)
(9.34836e-11 -6.42278e-13 0 9.34913e-11 0 9.34881e-11)
(9.34837e-11 -6.42279e-13 0 9.34914e-11 0 9.34882e-11)
(9.34837e-11 -6.42278e-13 0 9.34913e-11 0 9.34881e-11)
(9.34838e-11 -6.42279e-13 0 9.34915e-11 0 9.34883e-11)
(9.3484e-11 -6.42284e-13 0 9.34917e-11 0 9.34885e-11)
(9.34842e-11 -6.42259e-13 0 9.34919e-11 0 9.34887e-11)
(9.35015e-11 -6.42554e-13 0 9.35108e-11 0 9.35068e-11)
(9.41054e-11 -6.40185e-13 0 9.41186e-11 0 9.41127e-11)
(2.6997e-09 -3.28134e-11 0 2.6991e-09 0 2.69943e-09)
(2.69993e-09 -3.28296e-11 0 2.69938e-09 0 2.69969e-09)
(2.70016e-09 -3.28452e-11 0 2.69966e-09 0 2.69995e-09)
(2.70038e-09 -3.286e-11 0 2.69992e-09 0 2.70018e-09)
(2.70059e-09 -3.2874e-11 0 2.70018e-09 0 2.70042e-09)
(2.70078e-09 -3.28874e-11 0 2.70042e-09 0 2.70063e-09)
(2.70097e-09 -3.29001e-11 0 2.70065e-09 0 2.70084e-09)
(2.70115e-09 -3.29121e-11 0 2.70086e-09 0 2.70104e-09)
(2.70132e-09 -3.29236e-11 0 2.70107e-09 0 2.70123e-09)
(2.70148e-09 -3.29345e-11 0 2.70126e-09 0 2.70141e-09)
(2.70164e-09 -3.29449e-11 0 2.70145e-09 0 2.70158e-09)
(2.70179e-09 -3.29547e-11 0 2.70163e-09 0 2.70174e-09)
(2.70193e-09 -3.29641e-11 0 2.7018e-09 0 2.70189e-09)
(2.70206e-09 -3.29729e-11 0 2.70196e-09 0 2.70204e-09)
(2.70218e-09 -3.29814e-11 0 2.70211e-09 0 2.70218e-09)
(2.7023e-09 -3.29893e-11 0 2.70226e-09 0 2.70231e-09)
(2.70242e-09 -3.29969e-11 0 2.70239e-09 0 2.70244e-09)
(2.70253e-09 -3.30041e-11 0 2.70253e-09 0 2.70256e-09)
(2.70263e-09 -3.30109e-11 0 2.70265e-09 0 2.70267e-09)
(2.70273e-09 -3.30174e-11 0 2.70277e-09 0 2.70278e-09)
(2.70282e-09 -3.30235e-11 0 2.70288e-09 0 2.70288e-09)
(2.70291e-09 -3.30293e-11 0 2.70299e-09 0 2.70298e-09)
(2.70299e-09 -3.30348e-11 0 2.70309e-09 0 2.70307e-09)
(2.70307e-09 -3.30401e-11 0 2.70318e-09 0 2.70316e-09)
(2.70314e-09 -3.3045e-11 0 2.70327e-09 0 2.70324e-09)
(2.70322e-09 -3.30497e-11 0 2.70336e-09 0 2.70332e-09)
(2.70328e-09 -3.30541e-11 0 2.70344e-09 0 2.70339e-09)
(2.70335e-09 -3.30583e-11 0 2.70352e-09 0 2.70347e-09)
(2.70341e-09 -3.30623e-11 0 2.70359e-09 0 2.70353e-09)
(2.70347e-09 -3.3066e-11 0 2.70366e-09 0 2.7036e-09)
(2.70352e-09 -3.30696e-11 0 2.70373e-09 0 2.70366e-09)
(2.70357e-09 -3.30729e-11 0 2.70379e-09 0 2.70371e-09)
(2.70362e-09 -3.30761e-11 0 2.70385e-09 0 2.70377e-09)
(2.70367e-09 -3.30791e-11 0 2.70391e-09 0 2.70382e-09)
(2.70371e-09 -3.30819e-11 0 2.70396e-09 0 2.70387e-09)
(2.70375e-09 -3.30846e-11 0 2.70401e-09 0 2.70391e-09)
(2.70379e-09 -3.30871e-11 0 2.70406e-09 0 2.70396e-09)
(2.70383e-09 -3.30895e-11 0 2.7041e-09 0 2.704e-09)
(2.70386e-09 -3.30918e-11 0 2.70415e-09 0 2.70404e-09)
(2.7039e-09 -3.30939e-11 0 2.70418e-09 0 2.70407e-09)
(2.70393e-09 -3.30959e-11 0 2.70422e-09 0 2.70411e-09)
(2.70396e-09 -3.30978e-11 0 2.70426e-09 0 2.70414e-09)
(2.70399e-09 -3.30996e-11 0 2.70429e-09 0 2.70417e-09)
(2.70401e-09 -3.31013e-11 0 2.70432e-09 0 2.7042e-09)
(2.70404e-09 -3.31028e-11 0 2.70435e-09 0 2.70423e-09)
(2.70406e-09 -3.31043e-11 0 2.70438e-09 0 2.70425e-09)
(2.70408e-09 -3.31057e-11 0 2.70441e-09 0 2.70428e-09)
(2.7041e-09 -3.31071e-11 0 2.70444e-09 0 2.7043e-09)
(2.70412e-09 -3.31083e-11 0 2.70446e-09 0 2.70432e-09)
(2.70414e-09 -3.31095e-11 0 2.70448e-09 0 2.70434e-09)
(2.70416e-09 -3.31106e-11 0 2.7045e-09 0 2.70436e-09)
(2.70417e-09 -3.31116e-11 0 2.70452e-09 0 2.70438e-09)
(2.70419e-09 -3.31126e-11 0 2.70454e-09 0 2.7044e-09)
(2.70421e-09 -3.31135e-11 0 2.70456e-09 0 2.70441e-09)
(2.70422e-09 -3.31144e-11 0 2.70458e-09 0 2.70443e-09)
(2.70423e-09 -3.31152e-11 0 2.70459e-09 0 2.70444e-09)
(2.70424e-09 -3.3116e-11 0 2.70461e-09 0 2.70446e-09)
(2.70426e-09 -3.31167e-11 0 2.70462e-09 0 2.70447e-09)
(2.70427e-09 -3.31174e-11 0 2.70463e-09 0 2.70448e-09)
(2.70428e-09 -3.3118e-11 0 2.70465e-09 0 2.70449e-09)
(2.70429e-09 -3.31186e-11 0 2.70466e-09 0 2.7045e-09)
(2.7043e-09 -3.31191e-11 0 2.70467e-09 0 2.70451e-09)
(2.7043e-09 -3.31197e-11 0 2.70468e-09 0 2.70452e-09)
(2.70431e-09 -3.31201e-11 0 2.70469e-09 0 2.70453e-09)
(2.70432e-09 -3.31206e-11 0 2.7047e-09 0 2.70454e-09)
(2.70433e-09 -3.3121e-11 0 2.70471e-09 0 2.70455e-09)
(2.70433e-09 -3.31214e-11 0 2.70471e-09 0 2.70456e-09)
(2.70434e-09 -3.31218e-11 0 2.70472e-09 0 2.70456e-09)
(2.70434e-09 -3.31222e-11 0 2.70473e-09 0 2.70457e-09)
(2.70435e-09 -3.31225e-11 0 2.70473e-09 0 2.70457e-09)
(2.70435e-09 -3.31228e-11 0 2.70474e-09 0 2.70458e-09)
(2.70436e-09 -3.31231e-11 0 2.70475e-09 0 2.70459e-09)
(2.70436e-09 -3.31234e-11 0 2.70475e-09 0 2.70459e-09)
(2.70437e-09 -3.31236e-11 0 2.70476e-09 0 2.70459e-09)
(2.70437e-09 -3.31238e-11 0 2.70476e-09 0 2.7046e-09)
(2.70438e-09 -3.31241e-11 0 2.70477e-09 0 2.7046e-09)
(2.70438e-09 -3.31243e-11 0 2.70477e-09 0 2.70461e-09)
(2.70438e-09 -3.31245e-11 0 2.70477e-09 0 2.70461e-09)
(2.70438e-09 -3.31246e-11 0 2.70478e-09 0 2.70461e-09)
(2.70439e-09 -3.31248e-11 0 2.70478e-09 0 2.70462e-09)
(2.70439e-09 -3.31249e-11 0 2.70478e-09 0 2.70462e-09)
(2.70439e-09 -3.31251e-11 0 2.70479e-09 0 2.70462e-09)
(2.70439e-09 -3.31252e-11 0 2.70479e-09 0 2.70462e-09)
(2.7044e-09 -3.31254e-11 0 2.70479e-09 0 2.70463e-09)
(2.7044e-09 -3.31255e-11 0 2.70479e-09 0 2.70463e-09)
(2.7044e-09 -3.31256e-11 0 2.7048e-09 0 2.70463e-09)
(2.7044e-09 -3.31257e-11 0 2.7048e-09 0 2.70463e-09)
(2.7044e-09 -3.31258e-11 0 2.7048e-09 0 2.70463e-09)
(2.70441e-09 -3.31259e-11 0 2.7048e-09 0 2.70464e-09)
(2.70441e-09 -3.31259e-11 0 2.7048e-09 0 2.70464e-09)
(2.70441e-09 -3.3126e-11 0 2.70481e-09 0 2.70464e-09)
(2.70441e-09 -3.31261e-11 0 2.70481e-09 0 2.70464e-09)
(2.70441e-09 -3.31261e-11 0 2.70481e-09 0 2.70464e-09)
(2.70441e-09 -3.31262e-11 0 2.70481e-09 0 2.70464e-09)
(2.70441e-09 -3.31263e-11 0 2.70481e-09 0 2.70464e-09)
(2.70441e-09 -3.31263e-11 0 2.70481e-09 0 2.70464e-09)
(2.70441e-09 -3.31264e-11 0 2.70481e-09 0 2.70465e-09)
(2.70441e-09 -3.31264e-11 0 2.70481e-09 0 2.70465e-09)
(2.70442e-09 -3.31264e-11 0 2.70481e-09 0 2.70465e-09)
(2.70442e-09 -3.31265e-11 0 2.70482e-09 0 2.70465e-09)
(2.70442e-09 -3.31265e-11 0 2.70482e-09 0 2.70465e-09)
(2.70442e-09 -3.31265e-11 0 2.70482e-09 0 2.70465e-09)
(2.70442e-09 -3.31266e-11 0 2.70482e-09 0 2.70465e-09)
(2.70442e-09 -3.31266e-11 0 2.70482e-09 0 2.70465e-09)
(2.70442e-09 -3.31266e-11 0 2.70482e-09 0 2.70465e-09)
(2.70442e-09 -3.31266e-11 0 2.70482e-09 0 2.70465e-09)
(2.70442e-09 -3.31267e-11 0 2.70482e-09 0 2.70465e-09)
(2.70442e-09 -3.31267e-11 0 2.70482e-09 0 2.70465e-09)
(2.70442e-09 -3.31267e-11 0 2.70482e-09 0 2.70465e-09)
(2.70442e-09 -3.31267e-11 0 2.70482e-09 0 2.70465e-09)
(2.70442e-09 -3.31267e-11 0 2.70482e-09 0 2.70465e-09)
(2.70442e-09 -3.31267e-11 0 2.70482e-09 0 2.70465e-09)
(2.70442e-09 -3.31267e-11 0 2.70482e-09 0 2.70465e-09)
(2.70442e-09 -3.31268e-11 0 2.70482e-09 0 2.70465e-09)
(2.70442e-09 -3.31268e-11 0 2.70482e-09 0 2.70465e-09)
(2.70442e-09 -3.31268e-11 0 2.70482e-09 0 2.70465e-09)
(2.70442e-09 -3.31268e-11 0 2.70482e-09 0 2.70465e-09)
(2.70442e-09 -3.31268e-11 0 2.70482e-09 0 2.70465e-09)
(2.70442e-09 -3.31268e-11 0 2.70482e-09 0 2.70465e-09)
(2.70442e-09 -3.31268e-11 0 2.70482e-09 0 2.70465e-09)
(2.70442e-09 -3.31268e-11 0 2.70482e-09 0 2.70465e-09)
(2.70442e-09 -3.31268e-11 0 2.70482e-09 0 2.70465e-09)
(2.70442e-09 -3.31268e-11 0 2.70482e-09 0 2.70465e-09)
(2.70442e-09 -3.31268e-11 0 2.70482e-09 0 2.70465e-09)
(2.70442e-09 -3.31268e-11 0 2.70482e-09 0 2.70465e-09)
(2.70442e-09 -3.31268e-11 0 2.70482e-09 0 2.70465e-09)
(2.70442e-09 -3.31268e-11 0 2.70482e-09 0 2.70465e-09)
(2.70442e-09 -3.31268e-11 0 2.70482e-09 0 2.70465e-09)
(2.70442e-09 -3.31268e-11 0 2.70482e-09 0 2.70465e-09)
(2.70442e-09 -3.31268e-11 0 2.70482e-09 0 2.70465e-09)
(2.70442e-09 -3.31267e-11 0 2.70482e-09 0 2.70465e-09)
(2.70442e-09 -3.31267e-11 0 2.70482e-09 0 2.70465e-09)
(2.70442e-09 -3.31267e-11 0 2.70482e-09 0 2.70465e-09)
(2.70442e-09 -3.31267e-11 0 2.70482e-09 0 2.70465e-09)
(2.70442e-09 -3.31267e-11 0 2.70481e-09 0 2.70465e-09)
(2.70442e-09 -3.31268e-11 0 2.70482e-09 0 2.70465e-09)
(2.70441e-09 -3.31267e-11 0 2.70481e-09 0 2.70465e-09)
(2.70442e-09 -3.31268e-11 0 2.70482e-09 0 2.70465e-09)
(2.70442e-09 -3.31267e-11 0 2.70481e-09 0 2.70465e-09)
(2.70442e-09 -3.31269e-11 0 2.70482e-09 0 2.70466e-09)
(2.70442e-09 -3.31268e-11 0 2.70482e-09 0 2.70465e-09)
(2.70443e-09 -3.3127e-11 0 2.70483e-09 0 2.70466e-09)
(2.70442e-09 -3.31269e-11 0 2.70482e-09 0 2.70465e-09)
(2.70443e-09 -3.31272e-11 0 2.70483e-09 0 2.70466e-09)
(2.70443e-09 -3.31271e-11 0 2.70483e-09 0 2.70466e-09)
(2.70443e-09 -3.31273e-11 0 2.70483e-09 0 2.70466e-09)
(2.70443e-09 -3.31272e-11 0 2.70483e-09 0 2.70466e-09)
(2.70443e-09 -3.31273e-11 0 2.70483e-09 0 2.70467e-09)
(2.70443e-09 -3.31272e-11 0 2.70483e-09 0 2.70466e-09)
(2.70443e-09 -3.31273e-11 0 2.70483e-09 0 2.70466e-09)
(2.70443e-09 -3.31272e-11 0 2.70483e-09 0 2.70466e-09)
(2.70443e-09 -3.31272e-11 0 2.70483e-09 0 2.70466e-09)
(2.70443e-09 -3.31272e-11 0 2.70483e-09 0 2.70466e-09)
(2.70443e-09 -3.31272e-11 0 2.70483e-09 0 2.70466e-09)
(2.70443e-09 -3.31271e-11 0 2.70483e-09 0 2.70466e-09)
(2.70443e-09 -3.31272e-11 0 2.70483e-09 0 2.70466e-09)
(2.70443e-09 -3.31271e-11 0 2.70483e-09 0 2.70466e-09)
(2.70443e-09 -3.31271e-11 0 2.70483e-09 0 2.70466e-09)
(2.70443e-09 -3.31271e-11 0 2.70483e-09 0 2.70466e-09)
(2.70443e-09 -3.31271e-11 0 2.70483e-09 0 2.70467e-09)
(2.70444e-09 -3.31274e-11 0 2.70484e-09 0 2.70467e-09)
(2.70444e-09 -3.31261e-11 0 2.70485e-09 0 2.70468e-09)
(2.7049e-09 -3.31403e-11 0 2.70538e-09 0 2.70518e-09)
(2.71955e-09 -3.29771e-11 0 2.72024e-09 0 2.71993e-09)
(1.6729e-08 -3.25323e-10 0 1.67243e-08 0 1.67269e-08)
(1.67302e-08 -3.25442e-10 0 1.6726e-08 0 1.67284e-08)
(1.67315e-08 -3.25555e-10 0 1.67277e-08 0 1.67299e-08)
(1.67326e-08 -3.25663e-10 0 1.67292e-08 0 1.67312e-08)
(1.67338e-08 -3.25766e-10 0 1.67308e-08 0 1.67326e-08)
(1.67348e-08 -3.25863e-10 0 1.67322e-08 0 1.67338e-08)
(1.67359e-08 -3.25956e-10 0 1.67336e-08 0 1.6735e-08)
(1.67368e-08 -3.26045e-10 0 1.67349e-08 0 1.67361e-08)
(1.67377e-08 -3.26129e-10 0 1.67361e-08 0 1.67372e-08)
(1.67386e-08 -3.26209e-10 0 1.67373e-08 0 1.67382e-08)
(1.67394e-08 -3.26285e-10 0 1.67384e-08 0 1.67392e-08)
(1.67402e-08 -3.26357e-10 0 1.67395e-08 0 1.67401e-08)
(1.6741e-08 -3.26425e-10 0 1.67405e-08 0 1.6741e-08)
(1.67417e-08 -3.26491e-10 0 1.67414e-08 0 1.67419e-08)
(1.67424e-08 -3.26552e-10 0 1.67423e-08 0 1.67427e-08)
(1.6743e-08 -3.26611e-10 0 1.67432e-08 0 1.67434e-08)
(1.67436e-08 -3.26667e-10 0 1.6744e-08 0 1.67441e-08)
(1.67442e-08 -3.2672e-10 0 1.67448e-08 0 1.67448e-08)
(1.67448e-08 -3.2677e-10 0 1.67456e-08 0 1.67455e-08)
(1.67453e-08 -3.26817e-10 0 1.67463e-08 0 1.67461e-08)
(1.67458e-08 -3.26863e-10 0 1.6747e-08 0 1.67467e-08)
(1.67463e-08 -3.26905e-10 0 1.67476e-08 0 1.67472e-08)
(1.67467e-08 -3.26946e-10 0 1.67482e-08 0 1.67478e-08)
(1.67472e-08 -3.26985e-10 0 1.67488e-08 0 1.67483e-08)
(1.67476e-08 -3.27021e-10 0 1.67493e-08 0 1.67487e-08)
(1.67479e-08 -3.27056e-10 0 1.67498e-08 0 1.67492e-08)
(1.67483e-08 -3.27088e-10 0 1.67503e-08 0 1.67496e-08)
(1.67487e-08 -3.27119e-10 0 1.67508e-08 0 1.675e-08)
(1.6749e-08 -3.27149e-10 0 1.67512e-08 0 1.67504e-08)
(1.67493e-08 -3.27176e-10 0 1.67516e-08 0 1.67508e-08)
(1.67496e-08 -3.27203e-10 0 1.6752e-08 0 1.67511e-08)
(1.67499e-08 -3.27227e-10 0 1.67524e-08 0 1.67514e-08)
(1.67501e-08 -3.27251e-10 0 1.67528e-08 0 1.67518e-08)
(1.67504e-08 -3.27273e-10 0 1.67531e-08 0 1.6752e-08)
(1.67506e-08 -3.27294e-10 0 1.67534e-08 0 1.67523e-08)
(1.67508e-08 -3.27314e-10 0 1.67537e-08 0 1.67526e-08)
(1.67511e-08 -3.27333e-10 0 1.6754e-08 0 1.67528e-08)
(1.67512e-08 -3.27351e-10 0 1.67543e-08 0 1.67531e-08)
(1.67514e-08 -3.27367e-10 0 1.67545e-08 0 1.67533e-08)
(1.67516e-08 -3.27383e-10 0 1.67548e-08 0 1.67535e-08)
(1.67518e-08 -3.27398e-10 0 1.6755e-08 0 1.67537e-08)
(1.67519e-08 -3.27412e-10 0 1.67552e-08 0 1.67539e-08)
(1.67521e-08 -3.27426e-10 0 1.67554e-08 0 1.67541e-08)
(1.67522e-08 -3.27438e-10 0 1.67556e-08 0 1.67542e-08)
(1.67524e-08 -3.2745e-10 0 1.67558e-08 0 1.67544e-08)
(1.67525e-08 -3.27461e-10 0 1.6756e-08 0 1.67545e-08)
(1.67526e-08 -3.27472e-10 0 1.67561e-08 0 1.67547e-08)
(1.67527e-08 -3.27482e-10 0 1.67563e-08 0 1.67548e-08)
(1.67528e-08 -3.27491e-10 0 1.67564e-08 0 1.67549e-08)
(1.67529e-08 -3.275e-10 0 1.67566e-08 0 1.67551e-08)
(1.6753e-08 -3.27508e-10 0 1.67567e-08 0 1.67552e-08)
(1.67531e-08 -3.27516e-10 0 1.67568e-08 0 1.67553e-08)
(1.67532e-08 -3.27523e-10 0 1.67569e-08 0 1.67554e-08)
(1.67533e-08 -3.2753e-10 0 1.6757e-08 0 1.67555e-08)
(1.67534e-08 -3.27536e-10 0 1.67571e-08 0 1.67555e-08)
(1.67534e-08 -3.27542e-10 0 1.67572e-08 0 1.67556e-08)
(1.67535e-08 -3.27548e-10 0 1.67573e-08 0 1.67557e-08)
(1.67536e-08 -3.27554e-10 0 1.67574e-08 0 1.67558e-08)
(1.67536e-08 -3.27559e-10 0 1.67575e-08 0 1.67558e-08)
(1.67537e-08 -3.27563e-10 0 1.67575e-08 0 1.67559e-08)
(1.67537e-08 -3.27568e-10 0 1.67576e-08 0 1.6756e-08)
(1.67538e-08 -3.27572e-10 0 1.67577e-08 0 1.6756e-08)
(1.67538e-08 -3.27576e-10 0 1.67577e-08 0 1.67561e-08)
(1.67539e-08 -3.2758e-10 0 1.67578e-08 0 1.67561e-08)
(1.67539e-08 -3.27583e-10 0 1.67578e-08 0 1.67562e-08)
(1.67539e-08 -3.27586e-10 0 1.67579e-08 0 1.67562e-08)
(1.6754e-08 -3.27589e-10 0 1.67579e-08 0 1.67563e-08)
(1.6754e-08 -3.27592e-10 0 1.6758e-08 0 1.67563e-08)
(1.6754e-08 -3.27595e-10 0 1.6758e-08 0 1.67563e-08)
(1.67541e-08 -3.27597e-10 0 1.67581e-08 0 1.67564e-08)
(1.67541e-08 -3.276e-10 0 1.67581e-08 0 1.67564e-08)
(1.67541e-08 -3.27602e-10 0 1.67581e-08 0 1.67564e-08)
(1.67541e-08 -3.27604e-10 0 1.67582e-08 0 1.67565e-08)
(1.67542e-08 -3.27606e-10 0 1.67582e-08 0 1.67565e-08)
(1.67542e-08 -3.27608e-10 0 1.67582e-08 0 1.67565e-08)
(1.67542e-08 -3.27609e-10 0 1.67583e-08 0 1.67565e-08)
(1.67542e-08 -3.27611e-10 0 1.67583e-08 0 1.67566e-08)
(1.67542e-08 -3.27612e-10 0 1.67583e-08 0 1.67566e-08)
(1.67543e-08 -3.27614e-10 0 1.67583e-08 0 1.67566e-08)
(1.67543e-08 -3.27615e-10 0 1.67583e-08 0 1.67566e-08)
(1.67543e-08 -3.27616e-10 0 1.67584e-08 0 1.67566e-08)
(1.67543e-08 -3.27617e-10 0 1.67584e-08 0 1.67566e-08)
(1.67543e-08 -3.27618e-10 0 1.67584e-08 0 1.67567e-08)
(1.67543e-08 -3.27619e-10 0 1.67584e-08 0 1.67567e-08)
(1.67543e-08 -3.2762e-10 0 1.67584e-08 0 1.67567e-08)
(1.67543e-08 -3.27621e-10 0 1.67584e-08 0 1.67567e-08)
(1.67544e-08 -3.27622e-10 0 1.67585e-08 0 1.67567e-08)
(1.67544e-08 -3.27622e-10 0 1.67585e-08 0 1.67567e-08)
(1.67544e-08 -3.27623e-10 0 1.67585e-08 0 1.67567e-08)
(1.67544e-08 -3.27623e-10 0 1.67585e-08 0 1.67567e-08)
(1.67544e-08 -3.27624e-10 0 1.67585e-08 0 1.67567e-08)
(1.67544e-08 -3.27625e-10 0 1.67585e-08 0 1.67568e-08)
(1.67544e-08 -3.27625e-10 0 1.67585e-08 0 1.67568e-08)
(1.67544e-08 -3.27626e-10 0 1.67585e-08 0 1.67568e-08)
(1.67544e-08 -3.27626e-10 0 1.67585e-08 0 1.67568e-08)
(1.67544e-08 -3.27626e-10 0 1.67585e-08 0 1.67568e-08)
(1.67544e-08 -3.27627e-10 0 1.67585e-08 0 1.67568e-08)
(1.67544e-08 -3.27627e-10 0 1.67585e-08 0 1.67568e-08)
(1.67544e-08 -3.27627e-10 0 1.67585e-08 0 1.67568e-08)
(1.67544e-08 -3.27628e-10 0 1.67585e-08 0 1.67568e-08)
(1.67544e-08 -3.27628e-10 0 1.67586e-08 0 1.67568e-08)
(1.67544e-08 -3.27628e-10 0 1.67586e-08 0 1.67568e-08)
(1.67544e-08 -3.27628e-10 0 1.67586e-08 0 1.67568e-08)
(1.67544e-08 -3.27629e-10 0 1.67586e-08 0 1.67568e-08)
(1.67544e-08 -3.27629e-10 0 1.67586e-08 0 1.67568e-08)
(1.67544e-08 -3.27629e-10 0 1.67586e-08 0 1.67568e-08)
(1.67544e-08 -3.27629e-10 0 1.67586e-08 0 1.67568e-08)
(1.67544e-08 -3.27629e-10 0 1.67586e-08 0 1.67568e-08)
(1.67544e-08 -3.27629e-10 0 1.67586e-08 0 1.67568e-08)
(1.67544e-08 -3.27629e-10 0 1.67586e-08 0 1.67568e-08)
(1.67544e-08 -3.2763e-10 0 1.67586e-08 0 1.67568e-08)
(1.67544e-08 -3.2763e-10 0 1.67586e-08 0 1.67568e-08)
(1.67544e-08 -3.2763e-10 0 1.67586e-08 0 1.67568e-08)
(1.67544e-08 -3.2763e-10 0 1.67586e-08 0 1.67568e-08)
(1.67544e-08 -3.2763e-10 0 1.67586e-08 0 1.67568e-08)
(1.67544e-08 -3.2763e-10 0 1.67586e-08 0 1.67568e-08)
(1.67544e-08 -3.2763e-10 0 1.67586e-08 0 1.67568e-08)
(1.67545e-08 -3.2763e-10 0 1.67586e-08 0 1.67568e-08)
(1.67545e-08 -3.2763e-10 0 1.67586e-08 0 1.67568e-08)
(1.67545e-08 -3.2763e-10 0 1.67586e-08 0 1.67568e-08)
(1.67544e-08 -3.2763e-10 0 1.67586e-08 0 1.67568e-08)
(1.67544e-08 -3.2763e-10 0 1.67586e-08 0 1.67568e-08)
(1.67544e-08 -3.2763e-10 0 1.67586e-08 0 1.67568e-08)
(1.67544e-08 -3.2763e-10 0 1.67586e-08 0 1.67568e-08)
(1.67544e-08 -3.2763e-10 0 1.67586e-08 0 1.67568e-08)
(1.67544e-08 -3.2763e-10 0 1.67586e-08 0 1.67568e-08)
(1.67544e-08 -3.2763e-10 0 1.67586e-08 0 1.67568e-08)
(1.67544e-08 -3.2763e-10 0 1.67586e-08 0 1.67568e-08)
(1.67544e-08 -3.2763e-10 0 1.67586e-08 0 1.67568e-08)
(1.67544e-08 -3.2763e-10 0 1.67586e-08 0 1.67568e-08)
(1.67544e-08 -3.27629e-10 0 1.67586e-08 0 1.67568e-08)
(1.67544e-08 -3.27629e-10 0 1.67586e-08 0 1.67568e-08)
(1.67544e-08 -3.27629e-10 0 1.67586e-08 0 1.67568e-08)
(1.67544e-08 -3.27629e-10 0 1.67586e-08 0 1.67568e-08)
(1.67544e-08 -3.27629e-10 0 1.67585e-08 0 1.67568e-08)
(1.67544e-08 -3.27629e-10 0 1.67586e-08 0 1.67568e-08)
(1.67544e-08 -3.27629e-10 0 1.67585e-08 0 1.67568e-08)
(1.67544e-08 -3.2763e-10 0 1.67586e-08 0 1.67568e-08)
(1.67544e-08 -3.27629e-10 0 1.67585e-08 0 1.67568e-08)
(1.67545e-08 -3.27631e-10 0 1.67586e-08 0 1.67568e-08)
(1.67544e-08 -3.2763e-10 0 1.67586e-08 0 1.67568e-08)
(1.67545e-08 -3.27631e-10 0 1.67586e-08 0 1.67569e-08)
(1.67544e-08 -3.27631e-10 0 1.67586e-08 0 1.67568e-08)
(1.67545e-08 -3.27633e-10 0 1.67586e-08 0 1.67569e-08)
(1.67545e-08 -3.27632e-10 0 1.67586e-08 0 1.67569e-08)
(1.67545e-08 -3.27634e-10 0 1.67587e-08 0 1.67569e-08)
(1.67545e-08 -3.27633e-10 0 1.67586e-08 0 1.67569e-08)
(1.67545e-08 -3.27634e-10 0 1.67587e-08 0 1.67569e-08)
(1.67545e-08 -3.27633e-10 0 1.67586e-08 0 1.67569e-08)
(1.67545e-08 -3.27634e-10 0 1.67587e-08 0 1.67569e-08)
(1.67545e-08 -3.27633e-10 0 1.67586e-08 0 1.67569e-08)
(1.67545e-08 -3.27634e-10 0 1.67586e-08 0 1.67569e-08)
(1.67545e-08 -3.27633e-10 0 1.67586e-08 0 1.67569e-08)
(1.67545e-08 -3.27633e-10 0 1.67586e-08 0 1.67569e-08)
(1.67545e-08 -3.27633e-10 0 1.67586e-08 0 1.67569e-08)
(1.67545e-08 -3.27633e-10 0 1.67586e-08 0 1.67569e-08)
(1.67545e-08 -3.27633e-10 0 1.67586e-08 0 1.67569e-08)
(1.67545e-08 -3.27633e-10 0 1.67586e-08 0 1.67569e-08)
(1.67545e-08 -3.27633e-10 0 1.67586e-08 0 1.67569e-08)
(1.67545e-08 -3.27633e-10 0 1.67587e-08 0 1.67569e-08)
(1.67545e-08 -3.27635e-10 0 1.67587e-08 0 1.67569e-08)
(1.67546e-08 -3.27623e-10 0 1.67587e-08 0 1.6757e-08)
(1.6757e-08 -3.2774e-10 0 1.67618e-08 0 1.67597e-08)
(1.68251e-08 -3.25317e-10 0 1.68321e-08 0 1.68289e-08)
(4.65457e-08 -1.25783e-09 0 4.65321e-08 0 4.65401e-08)
(4.65484e-08 -1.25817e-09 0 4.65363e-08 0 4.65435e-08)
(4.6551e-08 -1.25849e-09 0 4.65404e-08 0 4.65469e-08)
(4.65534e-08 -1.25879e-09 0 4.65442e-08 0 4.655e-08)
(4.65558e-08 -1.25908e-09 0 4.65479e-08 0 4.65531e-08)
(4.65581e-08 -1.25936e-09 0 4.65514e-08 0 4.65559e-08)
(4.65602e-08 -1.25962e-09 0 4.65547e-08 0 4.65587e-08)
(4.65622e-08 -1.25987e-09 0 4.65579e-08 0 4.65613e-08)
(4.65642e-08 -1.26011e-09 0 4.65609e-08 0 4.65638e-08)
(4.6566e-08 -1.26033e-09 0 4.65638e-08 0 4.65661e-08)
(4.65678e-08 -1.26055e-09 0 4.65665e-08 0 4.65683e-08)
(4.65695e-08 -1.26075e-09 0 4.65691e-08 0 4.65705e-08)
(4.65711e-08 -1.26095e-09 0 4.65716e-08 0 4.65725e-08)
(4.65726e-08 -1.26113e-09 0 4.65739e-08 0 4.65744e-08)
(4.6574e-08 -1.26131e-09 0 4.65762e-08 0 4.65763e-08)
(4.65754e-08 -1.26147e-09 0 4.65783e-08 0 4.6578e-08)
(4.65767e-08 -1.26163e-09 0 4.65803e-08 0 4.65797e-08)
(4.65779e-08 -1.26178e-09 0 4.65822e-08 0 4.65812e-08)
(4.65791e-08 -1.26192e-09 0 4.6584e-08 0 4.65827e-08)
(4.65802e-08 -1.26206e-09 0 4.65858e-08 0 4.65842e-08)
(4.65812e-08 -1.26219e-09 0 4.65874e-08 0 4.65855e-08)
(4.65823e-08 -1.26231e-09 0 4.6589e-08 0 4.65868e-08)
(4.65832e-08 -1.26243e-09 0 4.65904e-08 0 4.6588e-08)
(4.65841e-08 -1.26254e-09 0 4.65919e-08 0 4.65891e-08)
(4.6585e-08 -1.26264e-09 0 4.65932e-08 0 4.65902e-08)
(4.65858e-08 -1.26274e-09 0 4.65945e-08 0 4.65913e-08)
(4.65865e-08 -1.26283e-09 0 4.65956e-08 0 4.65923e-08)
(4.65873e-08 -1.26292e-09 0 4.65968e-08 0 4.65932e-08)
(4.6588e-08 -1.263e-09 0 4.65979e-08 0 4.65941e-08)
(4.65886e-08 -1.26308e-09 0 4.65989e-08 0 4.65949e-08)
(4.65892e-08 -1.26316e-09 0 4.65999e-08 0 4.65957e-08)
(4.65898e-08 -1.26323e-09 0 4.66008e-08 0 4.65965e-08)
(4.65904e-08 -1.2633e-09 0 4.66016e-08 0 4.65972e-08)
(4.65909e-08 -1.26336e-09 0 4.66025e-08 0 4.65978e-08)
(4.65914e-08 -1.26342e-09 0 4.66032e-08 0 4.65985e-08)
(4.65919e-08 -1.26348e-09 0 4.6604e-08 0 4.65991e-08)
(4.65923e-08 -1.26353e-09 0 4.66047e-08 0 4.65997e-08)
(4.65928e-08 -1.26358e-09 0 4.66053e-08 0 4.66002e-08)
(4.65932e-08 -1.26363e-09 0 4.6606e-08 0 4.66007e-08)
(4.65935e-08 -1.26368e-09 0 4.66065e-08 0 4.66012e-08)
(4.65939e-08 -1.26372e-09 0 4.66071e-08 0 4.66016e-08)