/*--------------------------------*- C++ -*----------------------------------*\
| =========                 |                                                 |
| \\      /  F ield         | OpenFOAM: The Open Source CFD Toolbox           |
|  \\    /   O peration     | Version:  v1912                                 |
|   \\  /    A nd           | Website:  www.openfoam.com                      |
|    \\/     M anipulation  |                                                 |
\*---------------------------------------------------------------------------*/
FoamFile
{
    version     2.0;
    format      ascii;
    class       volScalarField;
    location    "90";
    object      nut;
}
// * * * * * * * * * * * * * * * * * * * * * * * * * * * * * * * * * * * * * //

dimensions      [0 2 -1 0 0 0 0];


internalField   nonuniform List<scalar> 
14268
(
6.67721e-05
6.67645e-05
6.67474e-05
6.67313e-05
6.67101e-05
6.66696e-05
6.65998e-05
6.65205e-05
6.645e-05
6.64031e-05
6.63881e-05
6.64173e-05
6.64708e-05
6.65503e-05
6.6653e-05
6.67747e-05
6.69042e-05
6.70357e-05
6.71659e-05
6.72919e-05
6.7411e-05
6.75347e-05
6.76729e-05
6.78204e-05
6.79742e-05
6.81352e-05
6.83003e-05
6.84649e-05
6.86229e-05
6.87676e-05
6.88965e-05
6.90162e-05
6.91282e-05
6.92345e-05
6.9335e-05
6.94294e-05
6.95179e-05
6.96021e-05
6.9682e-05
6.97567e-05
6.9823e-05
6.98802e-05
6.99258e-05
6.99596e-05
6.99792e-05
6.99856e-05
6.99785e-05
6.99656e-05
6.99536e-05
6.99406e-05
6.99301e-05
6.99177e-05
6.99019e-05
6.98878e-05
6.9877e-05
6.98672e-05
6.98654e-05
6.98672e-05
6.98767e-05
6.98927e-05
6.99115e-05
6.99327e-05
6.99496e-05
6.99706e-05
6.99882e-05
7.00084e-05
7.00268e-05
7.00527e-05
7.00695e-05
7.00975e-05
7.01212e-05
7.01483e-05
7.01749e-05
7.02019e-05
7.02309e-05
7.02586e-05
7.02895e-05
7.03299e-05
7.039e-05
7.04764e-05
7.06059e-05
7.08028e-05
7.11036e-05
7.14518e-05
7.1735e-05
7.19458e-05
3.42793e-06
3.4113e-06
3.37433e-06
3.31879e-06
3.24336e-06
3.14937e-06
3.03757e-06
2.91391e-06
2.7843e-06
2.65444e-06
2.52891e-06
2.4123e-06
2.30737e-06
2.21628e-06
2.14008e-06
2.07901e-06
2.03264e-06
2.00016e-06
1.98058e-06
1.97235e-06
1.9747e-06
1.98483e-06
1.99937e-06
2.01826e-06
2.04003e-06
2.06624e-06
2.09639e-06
2.13072e-06
2.1693e-06
2.20978e-06
2.25123e-06
2.29254e-06
2.33304e-06
2.37277e-06
2.41203e-06
2.45033e-06
2.48879e-06
2.52725e-06
2.56549e-06
2.6034e-06
2.6396e-06
2.67287e-06
2.70318e-06
2.72892e-06
2.74998e-06
2.76549e-06
2.77558e-06
2.77918e-06
2.7758e-06
2.76474e-06
2.74741e-06
2.72455e-06
2.69419e-06
2.66283e-06
2.62914e-06
2.59377e-06
2.56119e-06
2.52981e-06
2.50085e-06
2.47544e-06
2.45003e-06
2.4291e-06
2.40445e-06
2.38484e-06
2.36177e-06
2.33975e-06
2.31847e-06
2.3017e-06
2.28236e-06
2.26984e-06
2.25643e-06
2.24645e-06
2.2368e-06
2.22905e-06
2.22382e-06
2.22114e-06
2.22363e-06
2.22861e-06
2.23881e-06
2.25497e-06
2.28e-06
2.31749e-06
2.35929e-06
2.38167e-06
2.38825e-06
2.37379e-06
8.8775e-07
8.8287e-07
8.73472e-07
8.6e-07
8.42059e-07
8.20202e-07
7.94658e-07
7.66605e-07
7.37096e-07
7.07384e-07
6.78632e-07
6.51978e-07
6.28259e-07
6.08002e-07
5.91295e-07
5.78031e-07
5.67988e-07
5.60901e-07
5.56468e-07
5.54324e-07
5.54205e-07
5.55629e-07
5.5788e-07
5.60901e-07
5.64503e-07
5.68995e-07
5.74335e-07
5.80563e-07
5.87707e-07
5.95278e-07
6.03034e-07
6.10746e-07
6.18332e-07
6.25828e-07
6.33301e-07
6.40668e-07
6.48127e-07
6.5564e-07
6.63134e-07
6.70591e-07
6.77735e-07
6.84332e-07
6.90377e-07
6.9553e-07
6.99771e-07
7.02923e-07
7.05023e-07
7.05785e-07
7.05011e-07
7.02551e-07
6.98704e-07
6.93619e-07
6.86924e-07
6.80009e-07
6.72621e-07
6.64912e-07
6.57812e-07
6.50994e-07
6.44716e-07
6.39145e-07
6.33648e-07
6.28965e-07
6.23618e-07
6.19143e-07
6.14082e-07
6.09094e-07
6.0438e-07
6.00439e-07
5.96198e-07
5.93216e-07
5.9022e-07
5.87846e-07
5.85609e-07
5.83745e-07
5.8238e-07
5.81539e-07
5.81705e-07
5.82399e-07
5.84073e-07
5.86743e-07
5.90506e-07
5.9543e-07
6.00412e-07
6.04082e-07
6.08904e-07
6.16147e-07
4.43536e-07
4.42125e-07
4.39072e-07
4.34625e-07
4.28701e-07
4.21504e-07
4.13211e-07
4.04202e-07
3.94883e-07
3.85654e-07
3.76923e-07
3.69055e-07
3.62247e-07
3.56564e-07
3.51973e-07
3.484e-07
3.4573e-07
3.43843e-07
3.42631e-07
3.42001e-07
3.41873e-07
3.42116e-07
3.42601e-07
3.43279e-07
3.44128e-07
3.45201e-07
3.46524e-07
3.48115e-07
3.49983e-07
3.52022e-07
3.54157e-07
3.56317e-07
3.58459e-07
3.60583e-07
3.62711e-07
3.64835e-07
3.66995e-07
3.6918e-07
3.71359e-07
3.73525e-07
3.75595e-07
3.77507e-07
3.7925e-07
3.80733e-07
3.81929e-07
3.82795e-07
3.83339e-07
3.83483e-07
3.8316e-07
3.82327e-07
3.81086e-07
3.79475e-07
3.77401e-07
3.7526e-07
3.73007e-07
3.70669e-07
3.68533e-07
3.66491e-07
3.64634e-07
3.62956e-07
3.61366e-07
3.59914e-07
3.58402e-07
3.57003e-07
3.55612e-07
3.54102e-07
3.52809e-07
3.51614e-07
3.50474e-07
3.49579e-07
3.48765e-07
3.48079e-07
3.47464e-07
3.46934e-07
3.46532e-07
3.46284e-07
3.46272e-07
3.46417e-07
3.46792e-07
3.47412e-07
3.4827e-07
3.49254e-07
3.50193e-07
3.50834e-07
3.51986e-07
3.52346e-07
3.30735e-07
3.30083e-07
3.28795e-07
3.27069e-07
3.24834e-07
3.22204e-07
3.19214e-07
3.16054e-07
3.12864e-07
3.09792e-07
3.06967e-07
3.04506e-07
3.0253e-07
3.01036e-07
2.99968e-07
2.99251e-07
2.98811e-07
2.98591e-07
2.98537e-07
2.98585e-07
2.98744e-07
2.98964e-07
2.99232e-07
2.99483e-07
2.99786e-07
3.00107e-07
3.00502e-07
3.0097e-07
3.01507e-07
3.02107e-07
3.02736e-07
3.03384e-07
3.0404e-07
3.04707e-07
3.05378e-07
3.06069e-07
3.06766e-07
3.07474e-07
3.0818e-07
3.08872e-07
3.09527e-07
3.10134e-07
3.10669e-07
3.1112e-07
3.11461e-07
3.11696e-07
3.11815e-07
3.11813e-07
3.11655e-07
3.11339e-07
3.1089e-07
3.10335e-07
3.09639e-07
3.08916e-07
3.08195e-07
3.07429e-07
3.06765e-07
3.06119e-07
3.05558e-07
3.05019e-07
3.04584e-07
3.04064e-07
3.03727e-07
3.03196e-07
3.02936e-07
3.02405e-07
3.02204e-07
3.01789e-07
3.01614e-07
3.01335e-07
3.01203e-07
3.01028e-07
3.00919e-07
3.0083e-07
3.00765e-07
3.00762e-07
3.00782e-07
3.00877e-07
3.01008e-07
3.01193e-07
3.01455e-07
3.0171e-07
3.02063e-07
3.02197e-07
3.02671e-07
3.03207e-07
2.97164e-07
2.97105e-07
2.96636e-07
2.96084e-07
2.9534e-07
2.94511e-07
2.93539e-07
2.92553e-07
2.91585e-07
2.90691e-07
2.89909e-07
2.89307e-07
2.8894e-07
2.88765e-07
2.88739e-07
2.88816e-07
2.88946e-07
2.89098e-07
2.89245e-07
2.89385e-07
2.89529e-07
2.89666e-07
2.89809e-07
2.8993e-07
2.90074e-07
2.90196e-07
2.90353e-07
2.90542e-07
2.9075e-07
2.91005e-07
2.91273e-07
2.91572e-07
2.91871e-07
2.92175e-07
2.92457e-07
2.92755e-07
2.93045e-07
2.93338e-07
2.93627e-07
2.93901e-07
2.9415e-07
2.9438e-07
2.94564e-07
2.94718e-07
2.94809e-07
2.94857e-07
2.9486e-07
2.94823e-07
2.94723e-07
2.94574e-07
2.94375e-07
2.9415e-07
2.9389e-07
2.93611e-07
2.93353e-07
2.93068e-07
2.92846e-07
2.92626e-07
2.9245e-07
2.92251e-07
2.92172e-07
2.91905e-07
2.91926e-07
2.91644e-07
2.91717e-07
2.91457e-07
2.9157e-07
2.91367e-07
2.91467e-07
2.91352e-07
2.9141e-07
2.91385e-07
2.91416e-07
2.91449e-07
2.91475e-07
2.91548e-07
2.91588e-07
2.91683e-07
2.91761e-07
2.91856e-07
2.9198e-07
2.9204e-07
2.92139e-07
2.92027e-07
2.92228e-07
2.91828e-07
2.8789e-07
2.87871e-07
2.87492e-07
2.87157e-07
2.86723e-07
2.86334e-07
2.85879e-07
2.85494e-07
2.8513e-07
2.84852e-07
2.84637e-07
2.84529e-07
2.8461e-07
2.84837e-07
2.85153e-07
2.85521e-07
2.8589e-07
2.8625e-07
2.86568e-07
2.86843e-07
2.87075e-07
2.87284e-07
2.87454e-07
2.87569e-07
2.87684e-07
2.87785e-07
2.87898e-07
2.88026e-07
2.88153e-07
2.88314e-07
2.88474e-07
2.88669e-07
2.88852e-07
2.89042e-07
2.89203e-07
2.89382e-07
2.89546e-07
2.89715e-07
2.89879e-07
2.90029e-07
2.90153e-07
2.90271e-07
2.90348e-07
2.9041e-07
2.90423e-07
2.90417e-07
2.9038e-07
2.90334e-07
2.90254e-07
2.90154e-07
2.90036e-07
2.89891e-07
2.89764e-07
2.89607e-07
2.89478e-07
2.8933e-07
2.89236e-07
2.89134e-07
2.89064e-07
2.88942e-07
2.88979e-07
2.88748e-07
2.88912e-07
2.88639e-07
2.88865e-07
2.8862e-07
2.88894e-07
2.88699e-07
2.88926e-07
2.88837e-07
2.88972e-07
2.88987e-07
2.89069e-07
2.89147e-07
2.89207e-07
2.89324e-07
2.89386e-07
2.89505e-07
2.89592e-07
2.89687e-07
2.89814e-07
2.89844e-07
2.89989e-07
2.89983e-07
2.90271e-07
2.90249e-07
2.84672e-07
2.84725e-07
2.84503e-07
2.84396e-07
2.8421e-07
2.84091e-07
2.83939e-07
2.83839e-07
2.83746e-07
2.83712e-07
2.83709e-07
2.83785e-07
2.8401e-07
2.84338e-07
2.84712e-07
2.85089e-07
2.85443e-07
2.85757e-07
2.8602e-07
2.86233e-07
2.86407e-07
2.86565e-07
2.86696e-07
2.86784e-07
2.86878e-07
2.86968e-07
2.87074e-07
2.87195e-07
2.87313e-07
2.87468e-07
2.87633e-07
2.87831e-07
2.88014e-07
2.88201e-07
2.88346e-07
2.88505e-07
2.8864e-07
2.88783e-07
2.88919e-07
2.89038e-07
2.89133e-07
2.89222e-07
2.89272e-07
2.89308e-07
2.89307e-07
2.89292e-07
2.89245e-07
2.89201e-07
2.89129e-07
2.8904e-07
2.88946e-07
2.88823e-07
2.88733e-07
2.88601e-07
2.88514e-07
2.88399e-07
2.88337e-07
2.88273e-07
2.88237e-07
2.88131e-07
2.8821e-07
2.87973e-07
2.88192e-07
2.87893e-07
2.88184e-07
2.87907e-07
2.88248e-07
2.88028e-07
2.88292e-07
2.88199e-07
2.88352e-07
2.8838e-07
2.88464e-07
2.8855e-07
2.88616e-07
2.88746e-07
2.88819e-07
2.88951e-07
2.8905e-07
2.89161e-07
2.89302e-07
2.89337e-07
2.89472e-07
2.89449e-07
2.89698e-07
2.89383e-07
2.84093e-07
2.84077e-07
2.83769e-07
2.83595e-07
2.83365e-07
2.83163e-07
2.82995e-07
2.82857e-07
2.82762e-07
2.82719e-07
2.82718e-07
2.82796e-07
2.83009e-07
2.83323e-07
2.83695e-07
2.8409e-07
2.84491e-07
2.84879e-07
2.85222e-07
2.85515e-07
2.85758e-07
2.85967e-07
2.86134e-07
2.86243e-07
2.86345e-07
2.86442e-07
2.86557e-07
2.86691e-07
2.86813e-07
2.86977e-07
2.8716e-07
2.87371e-07
2.87568e-07
2.87755e-07
2.87902e-07
2.88058e-07
2.88185e-07
2.88322e-07
2.8845e-07
2.88554e-07
2.88631e-07
2.88703e-07
2.88735e-07
2.88757e-07
2.88754e-07
2.88734e-07
2.88676e-07
2.88631e-07
2.88553e-07
2.88461e-07
2.88372e-07
2.88243e-07
2.88154e-07
2.88013e-07
2.87924e-07
2.87796e-07
2.87723e-07
2.87655e-07
2.87612e-07
2.87511e-07
2.8759e-07
2.8735e-07
2.87595e-07
2.87269e-07
2.87598e-07
2.87297e-07
2.8768e-07
2.87441e-07
2.87722e-07
2.87622e-07
2.8778e-07
2.87823e-07
2.8791e-07
2.88e-07
2.88077e-07
2.8822e-07
2.88309e-07
2.8847e-07
2.88601e-07
2.88728e-07
2.88899e-07
2.88953e-07
2.89103e-07
2.89141e-07
2.89458e-07
2.89284e-07
2.83383e-07
2.83351e-07
2.83059e-07
2.82911e-07
2.82719e-07
2.82544e-07
2.82408e-07
2.82285e-07
2.822e-07
2.82164e-07
2.82165e-07
2.82243e-07
2.82465e-07
2.82794e-07
2.83186e-07
2.83593e-07
2.83979e-07
2.8433e-07
2.84635e-07
2.84884e-07
2.85094e-07
2.85282e-07
2.85443e-07
2.8556e-07
2.85664e-07
2.85769e-07
2.85899e-07
2.86058e-07
2.86207e-07
2.86407e-07
2.86639e-07
2.86883e-07
2.87115e-07
2.87324e-07
2.8749e-07
2.8766e-07
2.878e-07
2.8794e-07
2.8807e-07
2.88174e-07
2.88243e-07
2.88304e-07
2.88333e-07
2.88361e-07
2.88364e-07
2.88348e-07
2.8829e-07
2.88241e-07
2.88158e-07
2.8806e-07
2.87962e-07
2.8782e-07
2.87724e-07
2.87561e-07
2.87461e-07
2.87317e-07
2.87242e-07
2.87169e-07
2.87123e-07
2.87039e-07
2.87133e-07
2.86908e-07
2.87166e-07
2.8681e-07
2.87166e-07
2.86847e-07
2.87263e-07
2.87014e-07
2.873e-07
2.87203e-07
2.87365e-07
2.87416e-07
2.87501e-07
2.87594e-07
2.87677e-07
2.87832e-07
2.87936e-07
2.88117e-07
2.88287e-07
2.8844e-07
2.88644e-07
2.88733e-07
2.88914e-07
2.8897e-07
2.89317e-07
2.8904e-07
2.82957e-07
2.82888e-07
2.82549e-07
2.82357e-07
2.8212e-07
2.81901e-07
2.81713e-07
2.81539e-07
2.814e-07
2.81298e-07
2.81214e-07
2.8121e-07
2.81376e-07
2.81677e-07
2.82072e-07
2.82503e-07
2.82938e-07
2.83353e-07
2.83727e-07
2.8403e-07
2.84289e-07
2.84503e-07
2.84681e-07
2.84809e-07
2.8491e-07
2.84993e-07
2.85139e-07
2.85316e-07
2.85495e-07
2.85721e-07
2.8598e-07
2.86242e-07
2.86483e-07
2.86704e-07
2.8689e-07
2.87078e-07
2.87236e-07
2.87392e-07
2.8753e-07
2.87639e-07
2.87707e-07
2.87772e-07
2.87807e-07
2.87842e-07
2.8785e-07
2.87841e-07
2.87789e-07
2.87734e-07
2.87643e-07
2.87536e-07
2.87421e-07
2.87261e-07
2.8715e-07
2.86952e-07
2.86825e-07
2.86647e-07
2.86556e-07
2.8648e-07
2.86406e-07
2.86384e-07
2.86438e-07
2.86283e-07
2.86503e-07
2.86171e-07
2.8652e-07
2.86211e-07
2.86631e-07
2.86396e-07
2.86676e-07
2.86592e-07
2.8675e-07
2.86818e-07
2.86898e-07
2.86979e-07
2.87093e-07
2.8725e-07
2.87387e-07
2.87593e-07
2.87809e-07
2.87992e-07
2.8824e-07
2.88379e-07
2.88575e-07
2.88651e-07
2.89036e-07
2.88766e-07
2.8219e-07
2.82104e-07
2.81743e-07
2.81529e-07
2.81274e-07
2.8102e-07
2.80783e-07
2.80536e-07
2.80323e-07
2.80149e-07
2.79989e-07
2.79951e-07
2.80125e-07
2.80465e-07
2.80898e-07
2.81352e-07
2.81803e-07
2.8223e-07
2.82617e-07
2.82932e-07
2.83223e-07
2.83454e-07
2.83648e-07
2.83793e-07
2.83928e-07
2.84069e-07
2.8425e-07
2.84488e-07
2.84731e-07
2.85e-07
2.85293e-07
2.85566e-07
2.85805e-07
2.86035e-07
2.86227e-07
2.8642e-07
2.86582e-07
2.86734e-07
2.86871e-07
2.86983e-07
2.87059e-07
2.87128e-07
2.8717e-07
2.87211e-07
2.87223e-07
2.87218e-07
2.87163e-07
2.8711e-07
2.8702e-07
2.86911e-07
2.86783e-07
2.86615e-07
2.86495e-07
2.86272e-07
2.86129e-07
2.85918e-07
2.85829e-07
2.85748e-07
2.85689e-07
2.85679e-07
2.85749e-07
2.85694e-07
2.85863e-07
2.85608e-07
2.85945e-07
2.85665e-07
2.86074e-07
2.85894e-07
2.86163e-07
2.86097e-07
2.86258e-07
2.8633e-07
2.86427e-07
2.86485e-07
2.86597e-07
2.8676e-07
2.86933e-07
2.87134e-07
2.87394e-07
2.87595e-07
2.87874e-07
2.88058e-07
2.88257e-07
2.88367e-07
2.8879e-07
2.88488e-07
2.81182e-07
2.81076e-07
2.80682e-07
2.80429e-07
2.80155e-07
2.79862e-07
2.79577e-07
2.79252e-07
2.78965e-07
2.78721e-07
2.78487e-07
2.78412e-07
2.78584e-07
2.78945e-07
2.79405e-07
2.79894e-07
2.80386e-07
2.80852e-07
2.81289e-07
2.81646e-07
2.81956e-07
2.82195e-07
2.8241e-07
2.82581e-07
2.8276e-07
2.82961e-07
2.83211e-07
2.83512e-07
2.83817e-07
2.84142e-07
2.8447e-07
2.84762e-07
2.84993e-07
2.85216e-07
2.85401e-07
2.85597e-07
2.85749e-07
2.85891e-07
2.86008e-07
2.86106e-07
2.86175e-07
2.86236e-07
2.86274e-07
2.86315e-07
2.86332e-07
2.86333e-07
2.86281e-07
2.86241e-07
2.86163e-07
2.86061e-07
2.85927e-07
2.85762e-07
2.85635e-07
2.85397e-07
2.85232e-07
2.84981e-07
2.84869e-07
2.84784e-07
2.84697e-07
2.84776e-07
2.84751e-07
2.8479e-07
2.84931e-07
2.84754e-07
2.85029e-07
2.84796e-07
2.85181e-07
2.85066e-07
2.85294e-07
2.85258e-07
2.85405e-07
2.85482e-07
2.85554e-07
2.85558e-07
2.85774e-07
2.85854e-07
2.861e-07
2.86322e-07
2.86658e-07
2.86925e-07
2.87273e-07
2.87486e-07
2.87726e-07
2.8792e-07
2.88348e-07
2.8807e-07
2.79824e-07
2.79722e-07
2.79319e-07
2.79049e-07
2.78774e-07
2.78449e-07
2.78137e-07
2.77743e-07
2.77394e-07
2.77099e-07
2.76823e-07
2.76732e-07
2.76895e-07
2.7724e-07
2.77682e-07
2.78141e-07
2.78606e-07
2.79089e-07
2.79536e-07
2.79868e-07
2.80142e-07
2.80398e-07
2.80666e-07
2.80899e-07
2.81156e-07
2.81418e-07
2.81719e-07
2.82067e-07
2.8244e-07
2.82835e-07
2.83238e-07
2.83621e-07
2.83928e-07
2.84217e-07
2.84459e-07
2.84691e-07
2.84866e-07
2.8502e-07
2.8514e-07
2.85241e-07
2.85314e-07
2.85374e-07
2.85412e-07
2.85446e-07
2.85467e-07
2.85474e-07
2.85427e-07
2.85395e-07
2.85308e-07
2.85203e-07
2.85081e-07
2.84934e-07
2.84824e-07
2.84585e-07
2.84395e-07
2.84104e-07
2.83974e-07
2.83872e-07
2.838e-07
2.83927e-07
2.83899e-07
2.84055e-07
2.84143e-07
2.84074e-07
2.84291e-07
2.84189e-07
2.84492e-07
2.84511e-07
2.84716e-07
2.84708e-07
2.84857e-07
2.84917e-07
2.85071e-07
2.85041e-07
2.85068e-07
2.85275e-07
2.85475e-07
2.85684e-07
2.85991e-07
2.863e-07
2.86644e-07
2.86908e-07
2.87166e-07
2.87481e-07
2.87858e-07
2.87658e-07
2.78802e-07
2.78702e-07
2.78295e-07
2.78014e-07
2.77736e-07
2.77393e-07
2.77066e-07
2.76628e-07
2.76238e-07
2.75901e-07
2.75569e-07
2.75449e-07
2.75559e-07
2.75812e-07
2.76129e-07
2.76469e-07
2.76848e-07
2.77316e-07
2.77724e-07
2.77976e-07
2.78281e-07
2.78578e-07
2.78891e-07
2.79155e-07
2.79486e-07
2.79846e-07
2.80251e-07
2.80703e-07
2.8118e-07
2.81674e-07
2.82158e-07
2.82619e-07
2.83e-07
2.83338e-07
2.83646e-07
2.83931e-07
2.8413e-07
2.84286e-07
2.84409e-07
2.84509e-07
2.84583e-07
2.84649e-07
2.84698e-07
2.84742e-07
2.84778e-07
2.84799e-07
2.84754e-07
2.8471e-07
2.84672e-07
2.84585e-07
2.84468e-07
2.84345e-07
2.84201e-07
2.83955e-07
2.83766e-07
2.83497e-07
2.8337e-07
2.83294e-07
2.83226e-07
2.83404e-07
2.83311e-07
2.8345e-07
2.83515e-07
2.83449e-07
2.83545e-07
2.83529e-07
2.83712e-07
2.83881e-07
2.83932e-07
2.83944e-07
2.84077e-07
2.8424e-07
2.84062e-07
2.84005e-07
2.84585e-07
2.84185e-07
2.84425e-07
2.8485e-07
2.85081e-07
2.85507e-07
2.85874e-07
2.86234e-07
2.8656e-07
2.87007e-07
2.87385e-07
2.87278e-07
2.78184e-07
2.7809e-07
2.77684e-07
2.77398e-07
2.77118e-07
2.76762e-07
2.7642e-07
2.75951e-07
2.75524e-07
2.75135e-07
2.74726e-07
2.74536e-07
2.74522e-07
2.74604e-07
2.7475e-07
2.74966e-07
2.75289e-07
2.75687e-07
2.7596e-07
2.76207e-07
2.76549e-07
2.76888e-07
2.77262e-07
2.77596e-07
2.7798e-07
2.78423e-07
2.78923e-07
2.79486e-07
2.80069e-07
2.80687e-07
2.81295e-07
2.8187e-07
2.82339e-07
2.82721e-07
2.83058e-07
2.83367e-07
2.83606e-07
2.83799e-07
2.83949e-07
2.84064e-07
2.84136e-07
2.84186e-07
2.84213e-07
2.84238e-07
2.84268e-07
2.84295e-07
2.84252e-07
2.84228e-07
2.84193e-07
2.84123e-07
2.84014e-07
2.83931e-07
2.8378e-07
2.83542e-07
2.83346e-07
2.83076e-07
2.82943e-07
2.82868e-07
2.82779e-07
2.83014e-07
2.82816e-07
2.83025e-07
2.83054e-07
2.83026e-07
2.8295e-07
2.83049e-07
2.83168e-07
2.83236e-07
2.83215e-07
2.83273e-07
2.83455e-07
2.83254e-07
2.83641e-07
2.83093e-07
2.8371e-07
2.83238e-07
2.83917e-07
2.83727e-07
2.84293e-07
2.84758e-07
2.85204e-07
2.85639e-07
2.86034e-07
2.86552e-07
2.86986e-07
2.86983e-07
2.77528e-07
2.77439e-07
2.77034e-07
2.76741e-07
2.76455e-07
2.7608e-07
2.75721e-07
2.7521e-07
2.74724e-07
2.74254e-07
2.73741e-07
2.73368e-07
2.73099e-07
2.72915e-07
2.72847e-07
2.72933e-07
2.73165e-07
2.73422e-07
2.73508e-07
2.73844e-07
2.74206e-07
2.74631e-07
2.75132e-07
2.75616e-07
2.76114e-07
2.76663e-07
2.77265e-07
2.77932e-07
2.7863e-07
2.79358e-07
2.80082e-07
2.8079e-07
2.81399e-07
2.81913e-07
2.82338e-07
2.82713e-07
2.82976e-07
2.83191e-07
2.83357e-07
2.83504e-07
2.83618e-07
2.83704e-07
2.83756e-07
2.83789e-07
2.83818e-07
2.83844e-07
2.83807e-07
2.83785e-07
2.83761e-07
2.83684e-07
2.83593e-07
2.8351e-07
2.83352e-07
2.83108e-07
2.8291e-07
2.82603e-07
2.82481e-07
2.82324e-07
2.82247e-07
2.82407e-07
2.8218e-07
2.82456e-07
2.82417e-07
2.82362e-07
2.8223e-07
2.82377e-07
2.82371e-07
2.82496e-07
2.82389e-07
2.82451e-07
2.82429e-07
2.82513e-07
2.82767e-07
2.82584e-07
2.82432e-07
2.82663e-07
2.82986e-07
2.83036e-07
2.83457e-07
2.83921e-07
2.84485e-07
2.84972e-07
2.85395e-07
2.85984e-07
2.86459e-07
2.86578e-07
2.76813e-07
2.76732e-07
2.7633e-07
2.7603e-07
2.75735e-07
2.7534e-07
2.74948e-07
2.74368e-07
2.73782e-07
2.73176e-07
2.72444e-07
2.71764e-07
2.71136e-07
2.70598e-07
2.7022e-07
2.70011e-07
2.69879e-07
2.69738e-07
2.69717e-07
2.69997e-07
2.70442e-07
2.71051e-07
2.71793e-07
2.72554e-07
2.73314e-07
2.7412e-07
2.74966e-07
2.75863e-07
2.76807e-07
2.77724e-07
2.78612e-07
2.79422e-07
2.80114e-07
2.80752e-07
2.81306e-07
2.8179e-07
2.82117e-07
2.82403e-07
2.82649e-07
2.82861e-07
2.82998e-07
2.83102e-07
2.83179e-07
2.83237e-07
2.83296e-07
2.83338e-07
2.83308e-07
2.83289e-07
2.83268e-07
2.83199e-07
2.83106e-07
2.83038e-07
2.82856e-07
2.82612e-07
2.82391e-07
2.82008e-07
2.81856e-07
2.81534e-07
2.8151e-07
2.81379e-07
2.8133e-07
2.81544e-07
2.81383e-07
2.81275e-07
2.81267e-07
2.81249e-07
2.81402e-07
2.81292e-07
2.81266e-07
2.81462e-07
2.81175e-07
2.8153e-07
2.81294e-07
2.81404e-07
2.81417e-07
2.81614e-07
2.81393e-07
2.8231e-07
2.82009e-07
2.8289e-07
2.83435e-07
2.84064e-07
2.84612e-07
2.85284e-07
2.85834e-07
2.86088e-07
2.76034e-07
2.7596e-07
2.75556e-07
2.75239e-07
2.74922e-07
2.74485e-07
2.74031e-07
2.73345e-07
2.726e-07
2.71765e-07
2.70678e-07
2.69549e-07
2.68414e-07
2.67336e-07
2.66387e-07
2.65533e-07
2.64766e-07
2.64136e-07
2.63997e-07
2.6422e-07
2.64787e-07
2.65687e-07
2.66805e-07
2.67972e-07
2.69136e-07
2.70351e-07
2.7163e-07
2.72954e-07
2.74301e-07
2.75568e-07
2.76735e-07
2.77747e-07
2.78597e-07
2.7936e-07
2.79985e-07
2.80567e-07
2.80984e-07
2.81355e-07
2.81692e-07
2.82002e-07
2.82213e-07
2.82363e-07
2.82479e-07
2.82563e-07
2.82652e-07
2.8272e-07
2.82684e-07
2.82688e-07
2.82668e-07
2.82599e-07
2.82504e-07
2.82434e-07
2.82223e-07
2.81952e-07
2.81649e-07
2.81177e-07
2.80925e-07
2.80505e-07
2.80447e-07
2.80192e-07
2.80271e-07
2.80403e-07
2.80211e-07
2.80225e-07
2.79978e-07
2.80124e-07
2.80278e-07
2.8025e-07
2.79728e-07
2.80056e-07
2.79986e-07
2.79908e-07
2.80047e-07
2.79928e-07
2.79946e-07
2.80033e-07
2.80063e-07
2.80489e-07
2.80575e-07
2.81537e-07
2.8186e-07
2.82802e-07
2.83497e-07
2.84361e-07
2.85008e-07
2.85378e-07
2.75164e-07
2.75094e-07
2.74684e-07
2.74343e-07
2.73987e-07
2.73487e-07
2.72924e-07
2.72067e-07
2.71059e-07
2.69854e-07
2.68249e-07
2.66474e-07
2.64535e-07
2.62508e-07
2.60491e-07
2.58535e-07
2.56806e-07
2.55563e-07
2.55031e-07
2.55186e-07
2.55944e-07
2.57301e-07
2.59038e-07
2.60842e-07
2.62631e-07
2.64519e-07
2.66479e-07
2.685e-07
2.70542e-07
2.72422e-07
2.74071e-07
2.75437e-07
2.76579e-07
2.77543e-07
2.78335e-07
2.79056e-07
2.79575e-07
2.8006e-07
2.80458e-07
2.80876e-07
2.81188e-07
2.8142e-07
2.81598e-07
2.81735e-07
2.81865e-07
2.81946e-07
2.81905e-07
2.81926e-07
2.81907e-07
2.81819e-07
2.81702e-07
2.81614e-07
2.81355e-07
2.81024e-07
2.80582e-07
2.80056e-07
2.79632e-07
2.79236e-07
2.78964e-07
2.78869e-07
2.78811e-07
2.78971e-07
2.7874e-07
2.78995e-07
2.78381e-07
2.7869e-07
2.78192e-07
2.78234e-07
2.78317e-07
2.77857e-07
2.77732e-07
2.7772e-07
2.77832e-07
2.77738e-07
2.77663e-07
2.77677e-07
2.77556e-07
2.77759e-07
2.78283e-07
2.78959e-07
2.79706e-07
2.80869e-07
2.81881e-07
2.83011e-07
2.83877e-07
2.84357e-07
2.74161e-07
2.74096e-07
2.73677e-07
2.73291e-07
2.72863e-07
2.72251e-07
2.71501e-07
2.70391e-07
2.69005e-07
2.67273e-07
2.64933e-07
2.62101e-07
2.58788e-07
2.55134e-07
2.51369e-07
2.47693e-07
2.44539e-07
2.42336e-07
2.41264e-07
2.41312e-07
2.42373e-07
2.44394e-07
2.4705e-07
2.49848e-07
2.52642e-07
2.55546e-07
2.58583e-07
2.61704e-07
2.64824e-07
2.67678e-07
2.70104e-07
2.72064e-07
2.73658e-07
2.74953e-07
2.76035e-07
2.76955e-07
2.77702e-07
2.78385e-07
2.7894e-07
2.79484e-07
2.79901e-07
2.80219e-07
2.80467e-07
2.80652e-07
2.80826e-07
2.80936e-07
2.80902e-07
2.80941e-07
2.80907e-07
2.80786e-07
2.80642e-07
2.80522e-07
2.80187e-07
2.7976e-07
2.79133e-07
2.7856e-07
2.77878e-07
2.77473e-07
2.76953e-07
2.76935e-07
2.76663e-07
2.76895e-07
2.76531e-07
2.76997e-07
2.75999e-07
2.76224e-07
2.75257e-07
2.74984e-07
2.75726e-07
2.74461e-07
2.74234e-07
2.74062e-07
2.74152e-07
2.73928e-07
2.73756e-07
2.73674e-07
2.73484e-07
2.73899e-07
2.74226e-07
2.75028e-07
2.76298e-07
2.77842e-07
2.79387e-07
2.80979e-07
2.8222e-07
2.82821e-07
2.72894e-07
2.72823e-07
2.72382e-07
2.71923e-07
2.71374e-07
2.7059e-07
2.6957e-07
2.68068e-07
2.661e-07
2.63505e-07
2.59877e-07
2.55228e-07
2.49594e-07
2.43286e-07
2.36773e-07
2.30563e-07
2.25455e-07
2.21943e-07
2.20233e-07
2.20212e-07
2.21716e-07
2.24672e-07
2.28619e-07
2.32816e-07
2.37054e-07
2.41476e-07
2.46104e-07
2.50918e-07
2.55754e-07
2.6013e-07
2.63843e-07
2.66803e-07
2.69127e-07
2.70995e-07
2.72627e-07
2.74019e-07
2.75072e-07
2.75998e-07
2.76802e-07
2.77545e-07
2.78188e-07
2.78666e-07
2.79021e-07
2.7928e-07
2.79508e-07
2.79632e-07
2.79569e-07
2.79583e-07
2.79492e-07
2.79352e-07
2.79189e-07
2.79025e-07
2.78542e-07
2.77948e-07
2.77057e-07
2.76282e-07
2.7527e-07
2.74638e-07
2.73953e-07
2.73688e-07
2.73305e-07
2.73438e-07
2.73009e-07
2.73399e-07
2.71777e-07
2.71885e-07
2.70104e-07
2.70901e-07
2.70274e-07
2.6901e-07
2.68949e-07
2.68427e-07
2.6825e-07
2.67868e-07
2.67592e-07
2.67364e-07
2.67035e-07
2.67292e-07
2.67599e-07
2.68614e-07
2.70195e-07
2.72622e-07
2.75087e-07
2.77608e-07
2.79432e-07
2.80349e-07
2.71218e-07
2.71132e-07
2.70666e-07
2.70105e-07
2.69372e-07
2.68323e-07
2.66874e-07
2.64768e-07
2.61892e-07
2.57884e-07
2.52145e-07
2.44528e-07
2.35212e-07
2.24827e-07
2.14329e-07
2.04696e-07
1.96981e-07
1.91691e-07
1.89081e-07
1.88946e-07
1.91025e-07
1.95162e-07
2.00754e-07
2.06812e-07
2.13022e-07
2.19558e-07
2.26487e-07
2.33778e-07
2.41152e-07
2.47962e-07
2.53714e-07
2.5835e-07
2.61896e-07
2.64816e-07
2.67318e-07
2.69411e-07
2.71033e-07
2.72341e-07
2.73614e-07
2.74736e-07
2.75674e-07
2.76388e-07
2.76931e-07
2.77321e-07
2.77617e-07
2.77719e-07
2.77648e-07
2.77596e-07
2.77463e-07
2.77306e-07
2.77155e-07
2.76874e-07
2.76162e-07
2.75222e-07
2.73926e-07
2.7267e-07
2.71219e-07
2.70106e-07
2.69211e-07
2.68466e-07
2.68028e-07
2.67827e-07
2.67317e-07
2.675e-07
2.64932e-07
2.64577e-07
2.61933e-07
2.63088e-07
2.60872e-07
2.60664e-07
2.60143e-07
2.58887e-07
2.58416e-07
2.57827e-07
2.5724e-07
2.56526e-07
2.55858e-07
2.55889e-07
2.56257e-07
2.57568e-07
2.59912e-07
2.63558e-07
2.67622e-07
2.71764e-07
2.74647e-07
2.76163e-07
2.69009e-07
2.68893e-07
2.68375e-07
2.67653e-07
2.66643e-07
2.65199e-07
2.63135e-07
2.60134e-07
2.55814e-07
2.49519e-07
2.40412e-07
2.28367e-07
2.13902e-07
1.98152e-07
1.82692e-07
1.69055e-07
1.58329e-07
1.51175e-07
1.47674e-07
1.47475e-07
1.50189e-07
1.5556e-07
1.62885e-07
1.71042e-07
1.79568e-07
1.88608e-07
1.98304e-07
2.08656e-07
2.1935e-07
2.29385e-07
2.38104e-07
2.45185e-07
2.5072e-07
2.55203e-07
2.5902e-07
2.62243e-07
2.64885e-07
2.67074e-07
2.68838e-07
2.70595e-07
2.72096e-07
2.73205e-07
2.74063e-07
2.74657e-07
2.75043e-07
2.75131e-07
2.74991e-07
2.7472e-07
2.7452e-07
2.74349e-07
2.74199e-07
2.73692e-07
2.72609e-07
2.71098e-07
2.6915e-07
2.67096e-07
2.64961e-07
2.63126e-07
2.61744e-07
2.6043e-07
2.59682e-07
2.58942e-07
2.58331e-07
2.58147e-07
2.54521e-07
2.52964e-07
2.49364e-07
2.49353e-07
2.4681e-07
2.47436e-07
2.45726e-07
2.43444e-07
2.43164e-07
2.42184e-07
2.41143e-07
2.39585e-07
2.38504e-07
2.38164e-07
2.38544e-07
2.40183e-07
2.43169e-07
2.48698e-07
2.55164e-07
2.61941e-07
2.66813e-07
2.69416e-07
2.66001e-07
2.65824e-07
2.65226e-07
2.64296e-07
2.6291e-07
2.60871e-07
2.57922e-07
2.53476e-07
2.46884e-07
2.37099e-07
2.23156e-07
2.05146e-07
1.84082e-07
1.61853e-07
1.4103e-07
1.23681e-07
1.10641e-07
1.02265e-07
9.82875e-08
9.81482e-08
1.01275e-07
1.07449e-07
1.16076e-07
1.25974e-07
1.36608e-07
1.48157e-07
1.60726e-07
1.74365e-07
1.88784e-07
2.0275e-07
2.15158e-07
2.25584e-07
2.33877e-07
2.40462e-07
2.46308e-07
2.51264e-07
2.55493e-07
2.58869e-07
2.61688e-07
2.64203e-07
2.66557e-07
2.68366e-07
2.69727e-07
2.70626e-07
2.71162e-07
2.71232e-07
2.70932e-07
2.70437e-07
2.70139e-07
2.69973e-07
2.69736e-07
2.68866e-07
2.67145e-07
2.64762e-07
2.61779e-07
2.58563e-07
2.5527e-07
2.52397e-07
2.50114e-07
2.47993e-07
2.46482e-07
2.45013e-07
2.442e-07
2.43558e-07
2.38549e-07
2.35003e-07
2.30175e-07
2.29173e-07
2.26489e-07
2.26424e-07
2.22878e-07
2.21026e-07
2.20492e-07
2.18685e-07
2.1686e-07
2.14225e-07
2.12467e-07
2.11321e-07
2.1157e-07
2.13572e-07
2.176e-07
2.25694e-07
2.35488e-07
2.46228e-07
2.54104e-07
2.58308e-07
2.61943e-07
2.61699e-07
2.6096e-07
2.59725e-07
2.57738e-07
2.54842e-07
2.5044e-07
2.43799e-07
2.33797e-07
2.19037e-07
1.9863e-07
1.73223e-07
1.44961e-07
1.17324e-07
9.36129e-08
7.54944e-08
6.2912e-08
5.54291e-08
5.20453e-08
5.17796e-08
5.41466e-08
5.90723e-08
6.6503e-08
7.60951e-08
8.73855e-08
1.00415e-07
1.1525e-07
1.31549e-07
1.49251e-07
1.67085e-07
1.83704e-07
1.98168e-07
2.09768e-07
2.19364e-07
2.27767e-07
2.34942e-07
2.4138e-07
2.46512e-07
2.50866e-07
2.54726e-07
2.58203e-07
2.6104e-07
2.63193e-07
2.64568e-07
2.65315e-07
2.65345e-07
2.6475e-07
2.63875e-07
2.63426e-07
2.63232e-07
2.62833e-07
2.61419e-07
2.58738e-07
2.55059e-07
2.50528e-07
2.45651e-07
2.40622e-07
2.36262e-07
2.32664e-07
2.29328e-07
2.2679e-07
2.24434e-07
2.23214e-07
2.22063e-07
2.15238e-07
2.09384e-07
2.0317e-07
2.00997e-07
1.9799e-07
1.96643e-07
1.91365e-07
1.90024e-07
1.88682e-07
1.85812e-07
1.83178e-07
1.79401e-07
1.76952e-07
1.75064e-07
1.75215e-07
1.77444e-07
1.82172e-07
1.92519e-07
2.06041e-07
2.21964e-07
2.34662e-07
2.41212e-07
2.56337e-07
2.55917e-07
2.54986e-07
2.5322e-07
2.50386e-07
2.46189e-07
2.39684e-07
2.29847e-07
2.15103e-07
1.9387e-07
1.65837e-07
1.33118e-07
9.99682e-08
7.10625e-08
4.94865e-08
3.58789e-08
2.8086e-08
2.39407e-08
2.21825e-08
2.21236e-08
2.34391e-08
2.62032e-08
3.05952e-08
3.66628e-08
4.44649e-08
5.44297e-08
6.71851e-08
8.33871e-08
1.02802e-07
1.23557e-07
1.4364e-07
1.62061e-07
1.77692e-07
1.90495e-07
2.02056e-07
2.12043e-07
2.2136e-07
2.28918e-07
2.35169e-07
2.40808e-07
2.45913e-07
2.5017e-07
2.53444e-07
2.55527e-07
2.56617e-07
2.56638e-07
2.55645e-07
2.54091e-07
2.53303e-07
2.53043e-07
2.52362e-07
2.50166e-07
2.46091e-07
2.40573e-07
2.33873e-07
2.2676e-07
2.19453e-07
2.13151e-07
2.07835e-07
2.02999e-07
1.99237e-07
1.95619e-07
1.93691e-07
1.91971e-07
1.83318e-07
1.75345e-07
1.67267e-07
1.64248e-07
1.60766e-07
1.57893e-07
1.52865e-07
1.50498e-07
1.485e-07
1.44723e-07
1.41253e-07
1.36264e-07
1.33097e-07
1.303e-07
1.30313e-07
1.32724e-07
1.37994e-07
1.50232e-07
1.67026e-07
1.88263e-07
2.06672e-07
2.16689e-07
2.48637e-07
2.48075e-07
2.46633e-07
2.44281e-07
2.40275e-07
2.34016e-07
2.24625e-07
2.10365e-07
1.89557e-07
1.60947e-07
1.25907e-07
8.9242e-08
5.73272e-08
3.45948e-08
2.15193e-08
1.43482e-08
1.04857e-08
8.51042e-09
7.6825e-09
7.62494e-09
8.15349e-09
9.32915e-09
1.13072e-08
1.42464e-08
1.83311e-08
2.39931e-08
3.1838e-08
4.25439e-08
5.72013e-08
7.64112e-08
9.81535e-08
1.19311e-07
1.38102e-07
1.54114e-07
1.68699e-07
1.81369e-07
1.93818e-07
2.04337e-07
2.13192e-07
2.2104e-07
2.28219e-07
2.34285e-07
2.38991e-07
2.42035e-07
2.43594e-07
2.43573e-07
2.42055e-07
2.39679e-07
2.38432e-07
2.38034e-07
2.36962e-07
2.33693e-07
2.2774e-07
2.19783e-07
2.10342e-07
2.00565e-07
1.90698e-07
1.82174e-07
1.74954e-07
1.68717e-07
1.63553e-07
1.58473e-07
1.55814e-07
1.53527e-07
1.43541e-07
1.34138e-07
1.24754e-07
1.21181e-07
1.16834e-07
1.13119e-07
1.08006e-07
1.04683e-07
1.02239e-07
9.79408e-08
9.40967e-08
8.8828e-08
8.55263e-08
8.24739e-08
8.24105e-08
8.47556e-08
8.971e-08
1.02052e-07
1.20193e-07
1.45127e-07
1.69162e-07
1.83617e-07
2.38072e-07
2.37103e-07
2.35331e-07
2.31752e-07
2.26051e-07
2.1714e-07
2.03857e-07
1.84261e-07
1.56855e-07
1.21842e-07
8.35913e-08
4.94829e-08
2.56e-08
1.29122e-08
6.72367e-09
3.85083e-09
2.53042e-09
1.98254e-09
1.93256e-09
2.0567e-09
2.29737e-09
2.68819e-09
3.34502e-09
4.40753e-09
6.06258e-09
8.49861e-09
1.22164e-08
1.77981e-08
2.61148e-08
3.8127e-08
5.42351e-08
7.422e-08
9.49062e-08
1.1338e-07
1.30399e-07
1.45218e-07
1.60095e-07
1.73198e-07
1.84696e-07
1.94952e-07
2.044e-07
2.12576e-07
2.1905e-07
2.23297e-07
2.25441e-07