/*--------------------------------*- C++ -*----------------------------------*\
| =========                 |                                                 |
| \\      /  F ield         | OpenFOAM: The Open Source CFD Toolbox           |
|  \\    /   O peration     | Version:  v1912                                 |
|   \\  /    A nd           | Website:  www.openfoam.com                      |
|    \\/     M anipulation  |                                                 |
\*---------------------------------------------------------------------------*/
FoamFile
{
    version     2.0;
    format      ascii;
    class       volScalarField;
    location    "80";
    object      omega;
}
// * * * * * * * * * * * * * * * * * * * * * * * * * * * * * * * * * * * * * //

dimensions      [0 0 -1 0 0 0 0];


internalField   nonuniform List<scalar> 
14268
(
0.0137785
0.0138728
0.013969
0.0140678
0.0141698
0.0142742
0.0143816
0.0144922
0.0146057
0.0147224
0.0148421
0.0149647
0.01509
0.0152172
0.0153468
0.0154768
0.0156046
0.0157308
0.0158546
0.0159757
0.0160938
0.0162105
0.0163277
0.0164455
0.0165638
0.0166801
0.0167941
0.0169052
0.0170162
0.017131
0.0172514
0.0173787
0.0175139
0.0176566
0.0178078
0.0179662
0.0181329
0.0183057
0.0184849
0.0186673
0.0188528
0.019036
0.0192219
0.0194072
0.0195954
0.0197851
0.0199799
0.0201741
0.020384
0.0205949
0.020823
0.0210562
0.0213002
0.0215492
0.0218099
0.0220759
0.022353
0.0226296
0.022926
0.0232166
0.0235292
0.0238308
0.0241644
0.0244779
0.0248243
0.0251517
0.0255287
0.0258759
0.0262485
0.0266681
0.0270213
0.0274818
0.027859
0.028332
0.0287509
0.0292243
0.0296545
0.0301847
0.0306727
0.0311994
0.0317623
0.0322981
0.0329192
0.0335051
0.0341446
0.0347796
0.0354571
0.0361478
0.0368733
0.0376476
0.0384162
0.0392106
0.0400871
0.0410165
0.041983
0.0430065
0.0440905
0.0451883
0.0464619
0.0477224
0.0490578
0.050572
0.0520666
0.0536222
0.0552377
0.0572599
0.0593164
0.0612597
0.0637365
0.0664715
0.0689313
0.0716495
0.074522
0.0770574
0.0806492
0.0850701
0.089932
0.095409
0.101747
0.109371
0.117939
0.128352
0.141304
0.158497
0.18012
0.208308
0.245565
0.296355
0.367433
0.469416
0.623036
0.869573
1.30038
2.15518
0.106515
0.105944
0.1053
0.104586
0.103784
0.10289
0.101915
0.100827
0.0996554
0.0983755
0.0970031
0.0955581
0.0940384
0.0924915
0.0909271
0.0893845
0.0879202
0.0865694
0.0853986
0.0844523
0.0837968
0.0834752
0.0834737
0.083813
0.0845641
0.0857228
0.0872806
0.0892193
0.0915187
0.094134
0.0970139
0.1001
0.103318
0.106603
0.109837
0.112923
0.115805
0.118442
0.120808
0.122889
0.124677
0.126178
0.127396
0.128356
0.129065
0.129558
0.12983
0.130031
0.129783
0.129908
0.129432
0.129369
0.128672
0.12844
0.127574
0.127192
0.126221
0.125764
0.124549
0.123891
0.12292
0.121764
0.121004
0.119701
0.118891
0.117521
0.116636
0.115203
0.114197
0.112666
0.111667
0.110166
0.109105
0.107712
0.106654
0.105391
0.104315
0.10309
0.102007
0.100847
0.0997829
0.0988644
0.0981141
0.0975808
0.0972444
0.0971444
0.0973152
0.0978096
0.098578
0.0996305
0.100987
0.102602
0.104356
0.106191
0.108126
0.110193
0.112222
0.114099
0.115808
0.117373
0.118725
0.119799
0.120615
0.120995
0.121023
0.120792
0.120585
0.119727
0.119535
0.11858
0.117881
0.117853
0.118862
0.121594
0.125945
0.131096
0.136883
0.14401
0.152916
0.163212
0.176197
0.194407
0.214816
0.233278
0.24976
0.265393
0.281381
0.298583
0.317241
0.344123
0.384994
0.438098
0.517107
0.64887
0.1543
0.154083
0.153831
0.153543
0.153212
0.152827
0.15239
0.151886
0.151324
0.150696
0.150002
0.149252
0.148444
0.147598
0.146723
0.145843
0.144993
0.144196
0.143499
0.142937
0.142559
0.142391
0.14243
0.142695
0.143236
0.144048
0.145113
0.146406
0.1479
0.149553
0.15132
0.153158
0.155021
0.156848
0.158529
0.160025
0.161329
0.162447
0.163392
0.164178
0.164825
0.165349
0.165771
0.16611
0.166375
0.166579
0.166736
0.166868
0.166907
0.167049
0.166967
0.167033
0.166811
0.166805
0.166476
0.166392
0.165991
0.165887
0.165342
0.165113
0.164718
0.164201
0.163928
0.163323
0.163022
0.162382
0.162035
0.161371
0.160949
0.160242
0.159806
0.159117
0.158632
0.158014
0.157507
0.156925
0.156387
0.155777
0.15521
0.154597
0.15402
0.153516
0.153101
0.152809
0.15263
0.152594
0.15273
0.153084
0.153622
0.154367
0.155327
0.156459
0.157674
0.158941
0.160263
0.161639
0.162933
0.164086
0.16511
0.16602
0.166791
0.167391
0.167861
0.168126
0.168184
0.168117
0.167856
0.167275
0.166774
0.165779
0.164956
0.164912
0.165798
0.168068
0.171248
0.174236
0.176888
0.179896
0.183564
0.187808
0.194074
0.205115
0.218878
0.228593
0.233735
0.236649
0.237558
0.236643
0.236926
0.238727
0.244781
0.25666
0.280119
0.328378
0.16832
0.16831
0.168288
0.16825
0.168195
0.168115
0.168008
0.167871
0.167697
0.167488
0.167239
0.166955
0.166635
0.166288
0.165919
0.165539
0.165169
0.164828
0.164542
0.164337
0.164243
0.164244
0.164337
0.164539
0.164861
0.165303
0.165858
0.166514
0.167258
0.168075
0.168947
0.169857
0.170789
0.171704
0.172516
0.173197
0.173755
0.174203
0.174562
0.174846
0.175074
0.175262
0.175423
0.175566
0.1757
0.175833
0.175969
0.176097
0.176245
0.176406
0.176543
0.176663
0.176717
0.176807
0.17679
0.17685
0.176775
0.176832
0.176682
0.176684
0.176603
0.176463
0.176449
0.176265
0.176248
0.17605
0.176014
0.175818
0.175751
0.175564
0.175491
0.175348
0.175255
0.175162
0.175061
0.174988
0.174874
0.174769
0.17465
0.174531
0.174415
0.174328
0.174276
0.174271
0.174318
0.174438
0.174672
0.175038
0.175502
0.176072
0.176742
0.177498
0.17831
0.179157
0.180011
0.18085
0.181617
0.182298
0.182896
0.183407
0.183842
0.184226
0.184565
0.184881
0.185097
0.185288
0.185197
0.185018
0.184511
0.183873
0.183297
0.183414
0.184415
0.186677
0.189429
0.190955
0.191718
0.192381
0.193291
0.19488
0.198845
0.20766
0.218531
0.223987
0.225017
0.224383
0.223083
0.221645
0.220457
0.219594
0.21917
0.220521
0.22638
0.243116
0.172772
0.172856
0.172938
0.173008
0.17307
0.173125
0.173158
0.173183
0.173183
0.173165
0.173126
0.173062
0.17298
0.172876
0.172758
0.172632
0.17251
0.172405
0.172335
0.172318
0.17237
0.172478
0.172616
0.172778
0.172973
0.173205
0.173475
0.173782
0.174128
0.174515
0.174946
0.17542
0.175933
0.176469
0.176921
0.177286
0.17756
0.177767
0.177916
0.178035
0.178127
0.17821
0.178295
0.178385
0.178486
0.178601
0.178749
0.178896
0.179084
0.179293
0.179474
0.179644
0.179763
0.179903
0.17997
0.180092
0.180101
0.180233
0.18021
0.180313
0.180356
0.180346
0.180451
0.180425
0.180543
0.18052
0.180638
0.180631
0.180752
0.180774
0.180906
0.180987
0.181116
0.181248
0.181375
0.18154
0.181665
0.181801
0.181914
0.182031
0.182145
0.182265
0.182395
0.182543
0.182724
0.182959
0.183278
0.183683
0.184128
0.184612
0.185142
0.185715
0.186311
0.18692
0.18754
0.188126
0.188656
0.189105
0.189496
0.189838
0.190135
0.190442
0.190734
0.191095
0.191433
0.191825
0.191884
0.191952
0.191559
0.191176
0.190807
0.191019
0.192043
0.194192
0.196544
0.19734
0.197389
0.197164
0.197266
0.19826
0.201572
0.20996
0.219729
0.223615
0.22346
0.220955
0.218694
0.21679
0.21509
0.213638
0.212554
0.211942
0.212692
0.218005
0.174558
0.17467
0.174784
0.174885
0.174981
0.17508
0.175159
0.175239
0.175299
0.17535
0.175391
0.175414
0.175431
0.175435
0.17543
0.175425
0.175424
0.17544
0.175487
0.175579
0.175725
0.175879
0.176029
0.176167
0.1763
0.176433
0.176572
0.176725
0.1769
0.177112
0.177367
0.177681
0.178049
0.178466
0.178809
0.179064
0.179252
0.179381
0.179472
0.179528
0.179594
0.17963
0.179701
0.179768
0.17986
0.179965
0.180112
0.180258
0.180455
0.180672
0.180874
0.181065
0.181204
0.181361
0.181455
0.181588
0.181625
0.181767
0.18176
0.181901
0.181971
0.181984
0.182139
0.182143
0.182325
0.18234
0.182531
0.182572
0.182778
0.182862
0.183087
0.183246
0.183473
0.1837
0.183929
0.184206
0.18445
0.184728
0.184986
0.18525
0.18551
0.185767
0.186024
0.186279
0.186548
0.186852
0.187203
0.18758
0.187973
0.188391
0.188839
0.189312
0.189804
0.190316
0.190829
0.191274
0.191691
0.192048
0.192376
0.192661
0.192901
0.19317
0.193453
0.193833
0.1942
0.194689
0.194792
0.194971
0.194613
0.194363
0.194127
0.194443
0.195648
0.19804
0.200317
0.200825
0.200604
0.199781
0.199318
0.200012
0.20323
0.211813
0.220358
0.223051
0.222582
0.22005
0.217549
0.215288
0.21353
0.212415
0.210915
0.209214
0.208251
0.209205
0.17583
0.175943
0.176057
0.176157
0.176256
0.176351
0.176427
0.17651
0.176571
0.176627
0.176677
0.176713
0.176748
0.176776
0.1768
0.176829
0.176868
0.176932
0.17703
0.177174
0.177357
0.177523
0.177674
0.177797
0.1779
0.17799
0.178075
0.178167
0.17828
0.178435
0.178644
0.178923
0.179277
0.179672
0.180013
0.180259
0.180441
0.180559
0.180647
0.180695
0.180762
0.180801
0.180874
0.180943
0.181032
0.181138
0.181292
0.181442
0.181645
0.181862
0.182074
0.182267
0.182413
0.182569
0.182673
0.1828
0.182842
0.182975
0.182967
0.183096
0.183161
0.18317
0.183326
0.18333
0.183519
0.183523
0.183731
0.18376
0.183986
0.184061
0.184311
0.184465
0.184718
0.184962
0.185218
0.18553
0.185795
0.186112
0.186407
0.18672
0.187032
0.187337
0.187644
0.187948
0.188264
0.188604
0.188983
0.189379
0.189782
0.190197
0.19061
0.191014
0.191435
0.191898
0.192382
0.192795
0.193174
0.19349
0.19379
0.19406
0.194304
0.194586
0.194896
0.195311
0.195726
0.196325
0.196472
0.196724
0.196394
0.196254
0.196146
0.196571
0.19793
0.20044
0.202255
0.202555
0.202144
0.200946
0.200279
0.200886
0.204061
0.212568
0.220075
0.222019
0.221584
0.219548
0.216756
0.214295
0.213587
0.213105
0.21139
0.208228
0.206241
0.205727
0.17709
0.177196
0.177303
0.177391
0.177478
0.177564
0.177622
0.17769
0.177733
0.177777
0.177811
0.177836
0.177862
0.177882
0.1779
0.177925
0.177965
0.178034
0.178138
0.178296
0.17848
0.178645
0.178797
0.178913
0.179008
0.179089
0.179163
0.179248
0.179358
0.179521
0.179749
0.180058
0.180462
0.180883
0.181252
0.181523
0.181729
0.181872
0.181988
0.182062
0.182156
0.182222
0.182319
0.18241
0.182513
0.182624
0.182782
0.182933
0.183137
0.183349
0.183561
0.18375
0.183885
0.184026
0.18411
0.184215
0.184236
0.184347
0.184319
0.184396
0.184441
0.184428
0.184563
0.184555
0.184733
0.184714
0.184916
0.18492
0.185145
0.185189
0.185437
0.185554
0.185803
0.186021
0.186286
0.186578
0.186853
0.187193
0.187499
0.187816
0.188133
0.188439
0.188752
0.189062
0.189391
0.189773
0.190184
0.190602
0.191023
0.191442
0.191875
0.192313
0.192756
0.193222
0.193706
0.194117
0.194503
0.19483
0.195162
0.195455
0.19571
0.195989
0.196281
0.19667
0.197059
0.197658
0.197783
0.198056
0.197703
0.197628
0.197565
0.198007
0.199346
0.201744
0.203178
0.203365
0.202888
0.201585
0.200798
0.201302
0.204469
0.212571
0.219226
0.220793
0.220326
0.218372
0.21547
0.214786
0.215327
0.214679
0.212227
0.208044
0.205475
0.204358
0.178676
0.178761
0.178851
0.178913
0.17897
0.179014
0.179045
0.179081
0.179088
0.179098
0.179103
0.179106
0.179113
0.17912
0.179132
0.179157
0.179206
0.179294
0.179428
0.179584
0.179726
0.179855
0.179973
0.180061
0.180133
0.180196
0.180258
0.180339
0.180457
0.180642
0.180913
0.181283
0.181774
0.182272
0.18272
0.183078
0.183375
0.183609
0.183807
0.183958
0.184111
0.184231
0.184368
0.184491
0.184609
0.184724
0.184885
0.18503
0.185227
0.185427
0.185629
0.185815
0.185931
0.186051
0.186101
0.18618
0.186171
0.186248
0.186174
0.186151
0.186177
0.186111
0.186181
0.186143
0.18627
0.186212
0.186389
0.186356
0.186559
0.186545
0.186775
0.186823
0.187056
0.187205
0.187462
0.187705
0.187983
0.188299
0.188615
0.188946
0.189267
0.189578
0.189902
0.190238
0.190592
0.190961
0.191338
0.191728
0.19213
0.192539
0.192953
0.193377
0.193821
0.194308
0.194798
0.19521
0.195593
0.195926
0.196269
0.196556
0.196814
0.197098
0.197367
0.19774
0.198091
0.19865
0.198728
0.199011
0.198651
0.198636
0.198647
0.199208
0.200719
0.203168
0.20441
0.204483
0.203794
0.202181
0.201178
0.201541
0.204493
0.211884
0.217069
0.21747
0.216573
0.21551
0.215636
0.21727
0.21725
0.21599
0.212541
0.208339
0.205448
0.204077
0.180862
0.180913
0.180951
0.180971
0.180979
0.180965
0.180926
0.1809
0.180837
0.180787
0.180729
0.180668
0.180629
0.180583
0.180554
0.180553
0.180585
0.180672
0.180787
0.180909
0.181014
0.181115
0.181213
0.18128
0.181335
0.181387
0.181449
0.181544
0.181696
0.18194
0.182295
0.182777
0.183406
0.18406
0.184669
0.185195
0.185656
0.186041
0.18637
0.18664
0.186884
0.18709
0.187285
0.187465
0.187624
0.187769
0.187938
0.188084
0.188257
0.188435
0.188603
0.188751
0.188803
0.188881
0.188858
0.188871
0.18879
0.188807
0.188611
0.188504
0.18844
0.188274
0.188247
0.188136
0.188172
0.188062
0.188148
0.188086
0.188223
0.188153
0.188314
0.188293
0.188466
0.188542
0.188752
0.188944
0.1892
0.189467
0.189776
0.190092
0.1904
0.190715
0.191052
0.191412
0.191767
0.192114
0.192473
0.192856
0.193253
0.193658
0.194068
0.194485
0.194931
0.195423
0.195919
0.196339
0.19673
0.197095
0.197451
0.197755
0.198019
0.198281
0.198501
0.198816
0.199096
0.199581
0.199583
0.199869
0.199505
0.199489
0.199438
0.199876
0.20116
0.203283
0.204328
0.204392
0.203747
0.202183
0.201064
0.201471
0.204213
0.209205
0.212818
0.215573
0.2166
0.216845
0.218573
0.219749
0.218811
0.216865
0.212816
0.209066
0.206239
0.204733
0.183846
0.183843
0.183812
0.183751
0.183673
0.183569
0.18344
0.183308
0.183139
0.183006
0.182855
0.182708
0.182593
0.182483
0.182401
0.18236
0.182365
0.18241
0.182458
0.182517
0.182575
0.182629
0.182685
0.182721
0.182754
0.1828
0.182877
0.18301
0.183233
0.183583
0.184088
0.184764
0.185636
0.186544
0.187402
0.188174
0.188876
0.18949
0.190035
0.190515
0.190951
0.191339
0.191693
0.192001
0.192259
0.192482
0.192686
0.192859
0.193011
0.193144
0.193238
0.193331
0.193259
0.193237
0.193086
0.192981
0.192757
0.192627
0.192278
0.192058
0.191894
0.191542
0.191377
0.191108
0.191022
0.190772
0.190718
0.190537
0.190529
0.190352
0.190388
0.190281
0.190335
0.190314
0.190445
0.190574
0.19079
0.190989
0.191254
0.191508
0.191776
0.192067
0.192378
0.192696
0.193014
0.193343
0.193686
0.194056
0.19445
0.194856
0.195276
0.195712
0.196175
0.196663
0.197155
0.197542
0.197898
0.198199
0.19851
0.198759
0.198975
0.199209
0.199359
0.199587
0.19978
0.200169
0.200103
0.200412
0.200071
0.200158
0.200238
0.200757
0.20194
0.203813
0.20471
0.204743
0.204111
0.202498
0.201169
0.201441
0.202915
0.207977
0.214076
0.218091
0.219504
0.220342
0.221831
0.22191
0.219983
0.217549
0.213277
0.209888
0.207433
0.206312
0.188305
0.188219
0.188089
0.187914
0.187707
0.187458
0.187158
0.186857
0.186526
0.186203
0.185873
0.185542
0.185259
0.185
0.184795
0.18465
0.184544
0.184477
0.184421
0.184391
0.18437
0.184365
0.184377
0.184397
0.184426
0.184497
0.18463
0.184856
0.185213
0.185745
0.186487
0.187466
0.188688
0.189956
0.191186
0.192348
0.19345
0.194465
0.195397
0.196245
0.197016
0.197703
0.198305
0.198806
0.199199
0.199505
0.199743
0.199909
0.199972
0.200008
0.199888
0.199771
0.199433
0.199162
0.198771
0.198432
0.197973
0.197614
0.197027
0.196614
0.196296
0.195705
0.19535
0.194907
0.194723
0.194299
0.194162
0.193826
0.193745
0.193431
0.193353
0.193101
0.193027
0.192838
0.192828
0.192808
0.19288
0.192975
0.193146
0.193331
0.193507
0.193704
0.193934
0.194197
0.194477
0.194761
0.195064
0.195404
0.195772
0.196154
0.196543
0.196941
0.197359
0.19778
0.198168
0.198453
0.198702
0.198935
0.199192
0.199387
0.199539
0.199706
0.199766
0.199902
0.200068
0.200447
0.200384
0.200609
0.200252
0.200363
0.200498
0.201115
0.202372
0.204244
0.205099
0.205086
0.204292
0.202456
0.201026
0.200819
0.202544
0.209752
0.21843
0.223083
0.224334
0.224501
0.224696
0.223488
0.221069
0.218271
0.213952
0.210713
0.208626
0.20807
0.194446
0.194219
0.193927
0.193573
0.193179
0.192735
0.192224
0.1917
0.191135
0.190606
0.190065
0.189536
0.189059
0.188601
0.188225
0.187882
0.187566
0.187304
0.187054
0.186872
0.186729
0.186643
0.186619
0.186636
0.186687
0.186809
0.187023
0.187371
0.187909
0.1887
0.189791
0.19122
0.192972
0.194852
0.196761
0.198665
0.200572
0.202429
0.204203
0.205878
0.207422
0.20881
0.210015
0.21101
0.211772
0.212307
0.21264
0.212806
0.212611
0.212343
0.211702
0.211022
0.210063
0.209176
0.208152
0.207213
0.206172
0.205266
0.204092
0.203192
0.202452
0.201338
0.200575
0.199714
0.199263
0.19851
0.198161
0.197528
0.19727
0.196696
0.196486
0.196052
0.195867
0.195536
0.195443
0.195318
0.195302
0.195284
0.195336
0.195412
0.195492
0.1956
0.195745
0.195924
0.196133
0.196356
0.196606
0.196902
0.197235
0.19758
0.197908
0.198242
0.198613
0.198977
0.199285
0.199517
0.199731
0.199979
0.200236
0.200423
0.200557
0.200671
0.200646
0.20064
0.20067
0.200893
0.200717
0.200762
0.200304
0.200355
0.200432
0.200941
0.202018
0.203726
0.204558
0.204627
0.204002
0.202342
0.200652
0.200724
0.203725
0.214242
0.22491
0.229122
0.229229
0.22763
0.226623
0.224776
0.222163
0.219215
0.214912
0.21177
0.210079
0.210002
0.204044
0.203466
0.202794
0.202025
0.201183
0.200282
0.199312
0.198316
0.197301
0.196358
0.195444
0.194605
0.193863
0.193207
0.192635
0.192113
0.191629
0.191225
0.190831
0.19051
0.19023
0.190003
0.189841
0.189763
0.189758
0.189882
0.190183
0.190719
0.191568
0.192811
0.194507
0.196715
0.199429
0.202498
0.205797
0.2093
0.212981
0.216732
0.220431
0.223989
0.227293
0.230265
0.23282
0.234904
0.236453
0.237446
0.237928
0.238011
0.237206
0.236253
0.234427
0.232483
0.230061
0.227741
0.22529
0.22301
0.220711
0.218611
0.21621
0.214274
0.212608
0.210454
0.208855
0.207228
0.206271
0.204909
0.2042
0.20305
0.20246
0.201427
0.200941
0.20013
0.199685
0.199045
0.198786
0.198491
0.198388
0.198244
0.198193
0.198124
0.198065
0.198036
0.198037
0.198086
0.198189
0.198331
0.198504
0.198708
0.198943
0.199194
0.199447
0.199739
0.200104
0.200494
0.200851
0.201174
0.201522
0.201898
0.202208
0.202424
0.202527
0.20256
0.20246
0.202294
0.202148
0.202165
0.201784
0.201617
0.200901
0.200747
0.200754
0.201325
0.202555
0.204327
0.205132
0.205125
0.204374
0.202528
0.200707
0.201415
0.207013
0.221269
0.231643
0.233768
0.232324
0.229723
0.228119
0.226023
0.223395
0.220491
0.216219
0.213199
0.21178
0.212083
0.217383
0.21619
0.214879
0.213418
0.211809
0.21014
0.208393
0.206579
0.204796
0.20309
0.201461
0.19997
0.198629
0.197464
0.196474
0.195576
0.194809
0.19419
0.193645
0.193214
0.192838
0.192551
0.192384
0.192352
0.192426
0.192711
0.193266
0.194161
0.195491
0.197361
0.199868
0.203151
0.207276
0.212154
0.217661
0.223813
0.230566
0.237757
0.245126
0.252428
0.259378
0.265755
0.271313
0.27589
0.279302
0.281445
0.282384
0.282449
0.280591
0.278597
0.274769
0.270735
0.265591
0.260689
0.255593
0.250859
0.246215
0.241937
0.237128
0.233181
0.229718
0.225514
0.222252
0.219108
0.217147
0.21459
0.213114
0.211009
0.209803
0.207923
0.206989
0.205552
0.204693
0.20359
0.203011
0.202396
0.202054
0.20166
0.201409
0.201175
0.200972
0.200843
0.200761
0.200734
0.200753
0.200816
0.200936
0.201113
0.201335
0.201615
0.201964
0.202408
0.202948
0.203513
0.204065
0.204637
0.20513
0.205479
0.205695
0.205739
0.205654
0.205462
0.205153
0.204811
0.204595
0.204502
0.203945
0.203619
0.202696
0.202289
0.202163
0.202674
0.2041
0.206565
0.207856
0.207943
0.207429
0.206797
0.208031
0.213469
0.224134
0.237496
0.24425
0.245058
0.241111
0.236505
0.234089
0.232042
0.230347
0.228569
0.225979
0.225526
0.228139
0.236506
0.232662
0.230695
0.228621
0.226331
0.223792
0.221229
0.218599
0.215864
0.213275
0.210784
0.208458
0.206336
0.204417
0.202735
0.20123
0.199881
0.198685
0.19764
0.196687
0.195941
0.195404
0.195106
0.194996
0.195062
0.195308
0.195829
0.196693
0.197981
0.199839
0.202456
0.206031
0.210852
0.217094
0.224741
0.233768
0.244305
0.256279
0.269387
0.283018
0.296584
0.309437
0.321126
0.331197
0.339439
0.34558
0.349522
0.351394
0.351598
0.348668
0.345258
0.33883
0.331935
0.323162
0.314679
0.305804
0.297509
0.28939
0.281783
0.273395
0.266274
0.259837
0.252328
0.24621
0.240497
0.236739
0.232044
0.229117
0.225169
0.222774
0.219324
0.217547
0.214994
0.213407
0.211493
0.210429
0.209354
0.208662
0.207866
0.207229
0.206577
0.205949
0.205472
0.205112
0.204908
0.204838
0.204867
0.205018
0.205262
0.205537
0.205901
0.206454
0.207216
0.208071
0.208895
0.209687
0.210515
0.211207
0.211615
0.211828
0.211851
0.211728
0.211405
0.210992
0.210338
0.209927
0.209511
0.208712
0.208244
0.207761
0.207606
0.208068
0.210058
0.213408
0.218161
0.220356
0.220413
0.220098
0.221169
0.225155
0.233769
0.246442
0.261572
0.269302
0.270738
0.262293
0.253366
0.251337
0.253668
0.263219
0.272866
0.282094
0.296612
0.323079
0.364649
0.254995
0.251685
0.248305
0.244595
0.240455
0.236355
0.232221
0.227901
0.223945
0.220118
0.216656
0.21357
0.210854
0.208583
0.206626
0.204922
0.203472
0.202297
0.201309
0.200486
0.199791
0.199266
0.198953
0.198942
0.199216
0.199872
0.201023
0.202808
0.205472
0.209331
0.214752
0.222229
0.232138
0.244662
0.25999
0.278352
0.299441
0.322472
0.346139
0.369319
0.390893
0.410208
0.426652
0.440003
0.449901
0.456259
0.45932
0.459547
0.455039
0.44932
0.439045
0.427745
0.413473
0.399545
0.385011
0.371341
0.358026
0.345471
0.331868
0.320039
0.309171
0.29654
0.285933
0.276155
0.269548
0.261508
0.256283
0.249418
0.244933
0.238766
0.235206
0.230571
0.227467
0.22394
0.22184
0.219867
0.218494
0.216985
0.215685
0.214414
0.213266
0.212385
0.21172
0.211297
0.211067
0.210995
0.211078
0.211322
0.211666
0.21222
0.213174
0.214538
0.215981
0.217259
0.21857
0.220085
0.221594
0.222759
0.223493
0.223857
0.223875
0.223555
0.22336
0.223031
0.222451
0.221979
0.221027
0.219821
0.220067
0.219671
0.220538
0.223194
0.228582
0.236259
0.238514
0.238013
0.237096
0.239214
0.244501
0.254582
0.271653
0.296655
0.315825
0.323184
0.310521
0.297491
0.302516
0.332477
0.377597
0.412964
0.442498
0.478231
0.533278
0.606164
0.291476
0.285855
0.280274
0.274194
0.267348
0.260662
0.25405
0.247087
0.240854
0.23477
0.229292
0.224376
0.219978
0.21629
0.213111
0.210383
0.208137
0.206331
0.204916
0.203872
0.203131
0.202716
0.202578
0.202759
0.203327
0.20442
0.206242
0.209026
0.213167
0.219174
0.227664
0.23949
0.255413
0.276145
0.301902
0.332887
0.368279
0.406614
0.445754
0.483971
0.519577
0.551586
0.578929
0.601143
0.61757
0.627965
0.632735
0.632546
0.625303
0.615293
0.598906
0.580421
0.557813
0.534884
0.511111
0.488625
0.466859
0.44614
0.424534
0.405351
0.387674
0.367355
0.349824
0.333625
0.322324
0.308975
0.300007
0.288526
0.280943
0.270609
0.264639
0.2569
0.251426
0.245155
0.241245
0.237586
0.235022
0.232237
0.229746
0.227281
0.225008
0.223257
0.221938
0.221077
0.22057
0.220359
0.220461
0.220841
0.22141
0.222353
0.224001
0.226367
0.228778
0.230797
0.232902
0.23563
0.238655
0.241124
0.242665
0.243438
0.243443
0.243374
0.244225
0.24493
0.245364
0.245144
0.243977
0.241736
0.242326
0.240098
0.241449
0.246747
0.254763
0.263941
0.263651
0.261243
0.258593
0.259735
0.26611
0.281795
0.311639
0.363245
0.412389
0.436832
0.42714
0.41067
0.438831
0.526844
0.617292
0.674313
0.713622
0.753219
0.820697
0.92041
0.347962
0.338541
0.329384
0.319485
0.308148
0.297225
0.286585
0.275331
0.265573
0.256093
0.247777
0.240495
0.234077
0.228808
0.224203
0.220242
0.216936
0.214212
0.211992
0.210251
0.208969
0.208208
0.207962
0.208255
0.209196
0.210937
0.213786
0.218109
0.224496
0.233767
0.247043
0.265796
0.291416
0.325235
0.367402
0.418052
0.475746
0.538316
0.602573
0.66583
0.725352
0.779294
0.825538
0.863057
0.890626
0.907865
0.915207
0.91349
0.900892
0.882148
0.854847
0.823392
0.78682
0.748845
0.709846
0.672704
0.637003
0.602849
0.568474
0.537542
0.508899
0.477443
0.449722
0.424051
0.40561
0.384478
0.369872
0.351522
0.339014
0.322438
0.312146
0.299401
0.290007
0.279471
0.27257
0.266264
0.261712
0.256855
0.252433
0.248068
0.244007
0.240811
0.238362
0.236715
0.235687
0.235189
0.235235
0.235778
0.236677
0.238202
0.240924
0.24491
0.249085
0.252644
0.256482
0.26156
0.267152
0.271926
0.275329
0.277634
0.278724
0.279982
0.28303
0.285475
0.287066
0.286323
0.282241
0.273652
0.272984
0.27003
0.27196
0.27876
0.290142
0.300148
0.297665
0.290523
0.28558
0.288238
0.301263
0.328334
0.37973
0.480558
0.594441
0.667153
0.67435
0.644581
0.684055
0.819989
0.947025
1.01707
1.05765
1.09632
1.17385
1.30838
0.437558
0.422108
0.407291
0.391312
0.372649
0.354748
0.337407
0.318725
0.302807
0.287169
0.273579
0.261738
0.251383
0.243208
0.236452
0.230822
0.226276
0.222628
0.219779
0.217602
0.216066
0.215193
0.214933
0.215438
0.216976
0.219731
0.224132
0.230733
0.240527
0.254951
0.275874
0.305669
0.346555
0.400551
0.467885
0.548837
0.641575
0.743613
0.850667
0.957344
1.0589
1.15187
1.23269
1.29915
1.34885
1.38042
1.3935
1.38831
1.36422
1.32813
1.27861
1.22315
1.16056
1.09608
1.03028
0.966894
0.906285
0.848557
0.791911
0.740546
0.692786
0.644075
0.60045
0.560116
0.529798
0.496976
0.474055
0.446186
0.426916
0.401739
0.385663
0.365861
0.350664
0.333584
0.321724
0.310918
0.30295
0.294553
0.286846
0.279341
0.272421
0.266956
0.262789
0.259948
0.258139
0.257219
0.257232
0.258118
0.259673
0.262344
0.267078
0.274
0.281431
0.288024
0.295218
0.304561
0.31501
0.32438
0.331789
0.337326
0.340019
0.342689
0.349206
0.354699
0.357924
0.355665
0.345449
0.324467
0.318119
0.309016
0.311014
0.320417
0.337304
0.349474
0.344633
0.331659
0.3237
0.328682
0.353594
0.401806
0.488974
0.667963
0.921195
1.18575
1.28177
1.14903
1.06383
1.17522
1.35033
1.44308
1.48615
1.51619
1.59628
1.78546
0.576705
0.552137
0.528947
0.503957
0.474191
0.445693
0.418312
0.388153
0.362953
0.337771
0.31604
0.297044
0.280216
0.266983
0.25602
0.247114
0.240073
0.234491
0.230179
0.226978
0.224822
0.223764
0.223682
0.224696
0.227234
0.231556
0.23834
0.248515
0.263729
0.28625
0.3191
0.365929
0.430167
0.515033
0.622101
0.752769
0.904285
1.07111
1.245
1.4201
1.59023
1.74866
1.88805
2.00348
2.09152
2.15002
2.18026
2.1797
2.14213
2.07915
1.99638
1.9018
1.79638
1.68342
1.56651
1.45469
1.34858
1.24922
1.15308
1.06521
0.983535
0.904865
0.834468
0.769395
0.717555
0.664723
0.627284
0.585319
0.556499
0.520306
0.496478
0.467753
0.444987
0.41922
0.400193
0.382708
0.36954
0.355752
0.343035
0.330642
0.319039
0.309735
0.302555
0.29752
0.294191
0.292396
0.292263
0.293671
0.296288
0.300771
0.30868
0.320219
0.332717
0.344181
0.356559
0.372483
0.390886
0.408295
0.422905
0.433944
0.439829
0.446382
0.459741
0.469435
0.47307
0.466323
0.446997
0.406105
0.39319
0.370535
0.370777
0.382048
0.404393
0.422512
0.414498
0.39153
0.378967
0.390554
0.440021
0.524152
0.658008
0.934866
1.49982
2.64259
3.19958
2.68098
1.73548
1.63576
1.86665
2.0007
2.06147
2.04835
2.05499
2.34439
0.800291
0.760985
0.724836
0.685457
0.637707
0.591726
0.54795
0.498502
0.458059
0.417152
0.382301
0.351783
0.324332
0.302959
0.285438
0.271539
0.260876
0.25269
0.246486
0.241847
0.238632
0.23694
0.236777
0.238397
0.242495
0.249446
0.260279
0.276531
0.300873
0.337048
0.389907
0.465465
0.570159
0.710711
0.891065
1.11399
1.37615
1.67653
2.01183
2.37373
2.73912
3.12358
3.5279
3.91154
4.20727
4.36037
4.34287
4.19581
3.97538
3.71847
3.45683
3.2086
2.97569
2.75414
2.5287
2.31871
2.13156
1.96011
1.79344
1.63707
1.49185
1.35581
1.23633
1.12457
1.0307
0.937826
0.869006
0.798958
0.751669
0.697443
0.661085
0.619957
0.587132
0.550531
0.521511
0.49476
0.473843
0.45216
0.431972
0.412407
0.393881
0.378772
0.367036
0.358706
0.353157
0.350141
0.349944
0.352467
0.357149
0.364933
0.378396
0.397838
0.419388
0.440081
0.462456
0.490702
0.523307
0.554463
0.581258
0.602286
0.61419
0.626698
0.650064
0.667637
0.673278
0.658007
0.618866
0.545168
0.517293
0.472847
0.468562
0.481891
0.509841
0.543946
0.537307
0.505725
0.479083
0.5002
0.58976
0.726991
0.921146
1.32494
2.49639
5.58682
7.0722
5.88345
3.77279
3.83975
5.00333
3.49435
3.42121
3.27187
2.96956
3.30396
1.17051
1.10728
1.05247
0.989528
0.913991
0.839108
0.767788
0.684814
0.618053
0.549721
0.492588
0.44304
0.397655
0.362175
0.332486
0.308788
0.290759
0.277249
0.267497
0.260611
0.256202
0.254246
0.254534
0.257677
0.264776
0.276525
0.294457
0.320998
0.360455
0.418947
0.504825
0.629588
0.805547
1.04332
1.34574
1.71852
2.16155
2.6429
3.15505
3.83956
4.66603
5.64542
6.992
8.8429
11.235
13.7776
15.629
16.3179
15.471
14.1706
12.3103
10.1511
8.04945
6.35469
5.18013
4.37348
3.78387
3.34059
2.98848
2.69132
2.41926
2.18822
1.9903
1.78793
1.60925
1.43362
1.29529
1.16285
1.07123
0.977151
0.914667
0.850373
0.801548
0.749782
0.707105
0.667921
0.636427
0.60438
0.574052
0.54459
0.516128
0.492384
0.473744
0.460308
0.451254
0.446185
0.445656
0.449775
0.457846
0.471112
0.49362
0.526074
0.563197
0.601231
0.642813
0.69458
0.75424
0.812985
0.866545
0.912297
0.943144
0.972696
1.01506
1.04458
1.04886
1.0134
0.936467
0.797583
0.736017
0.641554
0.623361
0.636483
0.670422
0.717743
0.738423
0.703875
0.6526
0.682117
0.836651
1.07031
1.7168
3.35973
6.88911
12.0861
16.5206
21.0202
28.3299
42.2647
65.1472
23.4967
12.0053
12.2706
10.5705
10.0197
1.75962
1.65987
1.58161
1.47735
1.36691
1.24766
1.12924
0.989645
0.87792
0.761553
0.665878
0.584812
0.511742
0.456427
0.409789
0.371913
0.342292
0.31956
0.302928
0.291193
0.283753
0.280461
0.280954
0.286183
0.297984
0.317237
0.346034
0.388056
0.450098
0.542799
0.682051
0.887069
1.17373
1.55002
2.02379
2.57733
3.09638
3.60493
4.2124
6.00719
14.9728
18.6957
23.8171
30.435
39.3051
52.2845
74.5725
115.846
92.227
39.1572
27.9814
24.7926
24.5845
24.5761
23.1262
19.4761
15.1077
10.8874
7.53483
5.54676
4.46389
3.83077
3.418
2.99542
2.6462
2.33358
2.07513
1.82913
1.63651
1.4525
1.32523
1.20608
1.11842
1.03474
0.967275
0.908205
0.8613
0.816627
0.774484
0.73374
0.693339
0.658445
0.630578
0.610179
0.596388
0.588677
0.588023
0.594978
0.608911
0.631302
0.668288
0.721831
0.786026
0.856567
0.936065
1.03306
1.14563
1.25945
1.36776
1.46636
1.54465
1.61983
1.70624
1.76565
1.7744
1.70422
1.54962
1.289
1.14568
0.941151
0.865517
0.864638
0.892407
0.94234
1.02373
1.00419
0.932186
0.966872
1.2275
1.7048
3.35651
8.07733
16.5056
23.3464
25.9083
32.1775
34.9692
28.4764
28.9287
34.6507
47.6843
60.2673
69.2913
54.9346
2.69794
2.55812
2.44496
2.25504
2.12206
1.94525
1.73476
1.50051
1.31522
1.1137
0.946232
0.805329
0.679296
0.588567
0.516111
0.459867
0.416194
0.38196
0.356289
0.337532
0.325394
0.319786
0.320253
0.328161
0.34664
0.376935
0.421512
0.485939
0.582194
0.729598
0.952942
1.27699
1.7216
2.29819
2.90293
3.42678
3.62944
6.94024
9.42464
12.135
14.1857
14.9958
15.1689
14.8599
13.8498
12.5293
11.8345
12.4659
13.5691
15.295
17.9553
21.9685
28.489
39.6536
56.4766
53.4378
36.2211
31.0275
29.8445
25.2455
19.362
14.1996
10.4118
6.8156
5.14443
3.99768
3.43212
3.01699
2.65302
2.32327
2.0787
1.84684
1.66159
1.49563
1.36343
1.25311
1.16953
1.10015
1.04123
0.988567
0.93711
0.891162