/*--------------------------------*- C++ -*----------------------------------*\
| =========                 |                                                 |
| \\      /  F ield         | OpenFOAM: The Open Source CFD Toolbox           |
|  \\    /   O peration     | Version:  v1912                                 |
|   \\  /    A nd           | Website:  www.openfoam.com                      |
|    \\/     M anipulation  |                                                 |
\*---------------------------------------------------------------------------*/
FoamFile
{
    version     2.0;
    format      ascii;
    class       surfaceScalarField;
    location    "50";
    object      phi;
}
// * * * * * * * * * * * * * * * * * * * * * * * * * * * * * * * * * * * * * //

dimensions      [0 3 -1 0 0 0 0];
oriented        oriented;


internalField   nonuniform List<scalar> 
28285
(
0.000216506
1.0106e-05
0.000219566
-3.05988e-06
0.00023054
-1.09738e-05
0.000239881
-9.34121e-06
0.000260243
-2.03621e-05
0.000289821
-2.95777e-05
0.000297366
-7.54547e-06
0.000288284
9.08253e-06
0.000279093
9.19121e-06
0.000264564
1.45286e-05
0.000240541
2.40229e-05
0.000226022
1.45194e-05
0.000227267
-1.24513e-06
0.000202387
2.48801e-05
0.000136333
6.6054e-05
3.49343e-05
0.000101399
4.36887e-05
-8.75441e-06
4.41417e-05
-4.52966e-07
-4.65937e-05
9.07354e-05
-1.4688e-05
-3.19057e-05
2.73979e-05
-4.20859e-05
-4.34697e-06
3.17449e-05
-5.11979e-05
4.68509e-05
-0.00028277
0.000231573
-0.000453283
0.000170513
-0.000267314
-0.00018597
-0.000135544
-0.000131769
-2.88381e-05
-0.000106706
3.15409e-05
-6.03791e-05
-0.0003972
0.00042874
-0.000814162
0.000416962
-0.000829803
1.56414e-05
-0.000753298
-7.65049e-05
-0.000696584
-5.67143e-05
-0.000423076
-0.000273507
-0.000294301
-0.000128775
-0.000297223
2.92265e-06
-0.000144394
-0.00015283
-1.04496e-05
-0.000133944
9.53272e-05
-0.000105777
0.000137393
-4.20664e-05
3.64122e-05
0.000100981
-0.000306954
0.000343366
-0.000499857
0.000192902
8.74277e-05
-0.000587276
0.000755229
-0.000667799
0.00105158
-0.000296356
0.000782153
0.000269431
-0.000268237
0.00105039
-0.000432315
0.000164076
0.000358425
-0.00079074
0.000221334
0.000137093
-0.000282395
0.000503731
-0.000562296
0.000279902
-0.000789216
0.000226921
-0.00102927
0.000240059
-0.000781285
-0.000247991
-0.000559738
-0.00022155
-0.00057628
1.65417e-05
-0.000259326
-0.000316957
0.00039315
-0.000652479
0.000387333
5.82083e-06
-0.00035329
0.000740623
-9.81741e-05
-0.000255118
-0.000205876
0.000107702
-0.000911873
0.000705996
-0.00122959
0.000317719
-0.00102185
-0.000207749
-0.000449077
-0.000572776
0.000194886
-0.00064397
-0.000281037
0.000475929
-0.00115777
0.000876728
-0.00132291
0.000165146
-0.00157375
0.000250852
-0.00187521
0.000301451
-0.00167607
-0.00019915
-0.00096993
-0.000706137
-0.000285209
-0.000684729
-0.00068813
0.000402927
-0.0015312
0.000843081
-0.00177904
0.000247828
-0.00146369
-0.000315352
-0.00108799
-0.000375707
-0.00105975
-2.82365e-05
-0.00109705
3.72994e-05
-0.00103896
-5.80851e-05
-0.000734193
-0.000304746
-0.000234984
-0.000499222
0.000136141
-0.000371116
0.000303195
-0.000167052
-0.000303966
0.000607178
-0.00102744
0.000723494
-0.0011366
0.000109149
-0.00104932
-8.72684e-05
-0.00131442
0.000265102
-0.00143062
0.000116183
-0.00105298
-0.000377642
-0.000893857
-0.000159117
-0.00117933
0.000285473
-0.00120246
2.31314e-05
-0.00101128
-0.000191174
-0.00117083
0.000159546
-0.00112281
-4.80272e-05
-0.000285991
-0.000836822
0.000216413
2.00335e-05
0.000219604
-6.25074e-06
0.000230564
-2.19338e-05
0.000239676
-1.84537e-05
0.000259002
-3.96878e-05
0.000286619
-5.71951e-05
0.000293567
-1.4493e-05
0.000284052
1.85977e-05
0.000274545
1.86982e-05
0.000260178
2.88951e-05
0.000236853
4.73479e-05
0.000223371
2.80017e-05
0.000221267
8.58972e-07
0.000196864
4.92825e-05
0.000121919
0.000141
1.80822e-05
0.000205235
3.26514e-05
-2.33237e-05
2.37046e-05
8.49387e-06
-9.06024e-05
0.000205042
-6.32064e-05
-5.93017e-05
-1.40057e-05
-9.12867e-05
-4.29837e-05
6.0723e-05
-8.76577e-05
9.15248e-05
-0.000299195
0.00044311
-0.000475149
0.000346466
-0.000328281
-0.000332837
-0.000166796
-0.000293255
-5.227e-05
-0.000221232
-0.000103807
-8.84178e-06
-0.000526271
0.000851204
-0.000860101
0.000750792
-0.000905616
6.11564e-05
-0.00084849
-0.000133631
-0.000728438
-0.000176766
-0.000450505
-0.000551441
-0.000347232
-0.000232048
-0.000355865
1.15555e-05
-0.000197178
-0.000311516
-5.45259e-05
-0.000276596
1.46826e-05
-0.000174986
-1.82822e-05
-9.10053e-06
-0.000129674
0.000212373
-0.000357133
0.000570829
-0.00047953
0.0003153
2.83007e-05
-0.00109511
0.000567526
-0.00120702
0.000764609
-0.00049344
0.00055137
0.00048267
-0.000264732
0.00186649
-0.000357861
0.000257205
0.000241702
-0.0013903
7.15569e-05
0.000307239
-0.000148374
0.000723662
-0.000172493
0.000304022
-0.000526475
0.000580902
-0.000890822
0.000604405
-0.000794883
-0.000343932
-0.000647105
-0.000369328
-0.00066919
3.86238e-05
-0.000468117
-0.000518028
9.59592e-05
-0.00121656
0.000268718
-0.000166937
-0.000168869
0.00117821
0.000475607
-0.000899597
0.000240458
0.000342852
-0.000915467
0.00186192
-0.00119206
0.000594313
-0.000973053
-0.000426762
-0.000526728
-0.0010191
-1.99074e-05
-0.00115079
-0.000370348
0.000826373
-0.000997302
0.00150368
-0.00102942
0.000197261
-0.00137625
0.000597687
-0.0019078
0.000832999
-0.0017466
-0.000360366
-0.000952626
-0.0015001
-0.000232251
-0.0014051
-0.000635913
0.00080659
-0.00146567
0.00167284
-0.00176033
0.000542487
-0.00128607
-0.000789616
-0.000684532
-0.000977244
-0.000645278
-6.74907e-05
-0.00085272
0.00024475
-0.000992999
8.21854e-05
-0.000804954
-0.000492782
-0.000456259
-0.00084791
-0.000190881
-0.000636486
-0.000135172
-0.000222752
-0.000583779
0.00105579
-0.00105089
0.00119061
-0.00108113
0.000139388
-0.00107828
-9.01216e-05
-0.00132959
0.000516416
-0.00139671
0.000183298
-0.00112653
-0.000647824
-0.0010388
-0.000246846
-0.00124889
0.000495567
-0.0013177
9.19437e-05
-0.00130122
-0.000207657
-0.00134155
0.000199874
-0.00115307
-0.000236513
-0.000546643
-0.000892414
0.000216326
2.98434e-05
0.000219641
-9.56654e-06
0.000230639
-3.29314e-05
0.000239624
-2.74392e-05
0.000258279
-5.83422e-05
0.000285447
-8.43633e-05
0.000293616
-2.26618e-05
0.000284166
2.80473e-05
0.000274118
2.87463e-05
0.000259659
4.33543e-05
0.000234305
7.27019e-05
0.000221327
4.09801e-05
0.000222358
-1.72367e-07
0.000198524
7.31164e-05
0.000121928
0.000217596
2.35803e-05
0.000303582
3.71735e-05
-3.69169e-05
2.78214e-05
1.78459e-05
-7.03517e-05
0.000303215
-3.54252e-05
-9.42283e-05
1.52167e-05
-0.000141929
-2.72037e-05
0.000103143
-8.23804e-05
0.000146701
-0.000291393
0.000652123
-0.000455319
0.000510392
-0.000303955
-0.000484201
-0.000152214
-0.000444996
-4.2266e-05
-0.00033118
-0.000104237
5.31297e-05
-0.000529996
0.00127696
-0.000823959
0.00104476
-0.00082449
6.16876e-05
-0.000768111
-0.00019001
-0.000688481
-0.000256396
-0.00043755
-0.000802372
-0.000302578
-0.00036702
-0.000304779
1.37559e-05
-0.000172297
-0.000443998
-5.52054e-05
-0.000393687
3.07683e-05
-0.000260959
6.92588e-05
-4.75903e-05
-7.33129e-05
0.000354945
-0.000370592
0.000868111
-0.000441682
0.000386391
5.57274e-05
-0.00159252
0.000638189
-0.00178948
0.000976438
-0.000831691
0.000669006
0.000790103
-0.000226339
0.00276184
-0.000311708
0.000342574
0.000273429
-0.00197544
7.10733e-05
0.000509595
-5.04588e-05
0.000845195
-9.48733e-05
0.000348437
-0.000602381
0.00108841
-0.000877499
0.000879522
-0.000781392
-0.00044004
-0.000645218
-0.000505502
-0.000627969
2.13734e-05
-0.000377056
-0.00076894
0.000186922
-0.00178054
0.000394907
-0.000374922
-8.98121e-05
0.00166293
0.000328756
-0.00131817
0.000156039
0.000515568
-0.000954532
0.00297248
-0.00134368
0.000983461
-0.00115818
-0.000612269
-0.000655045
-0.00152223
-7.44679e-05
-0.00173138
-0.000365647
0.00111756
-0.000952174
0.00209021
-0.00111415
0.000359236
-0.00147286
0.000956389
-0.00183369
0.00119383
-0.00162757
-0.000566488
-0.000957304
-0.00217037
-0.000300246
-0.00206215
-0.000623095
0.00112944
-0.00139105
0.00244079
-0.00163879
0.000790223
-0.00120839
-0.00122001
-0.000727568
-0.00145806
-0.000804189
9.13207e-06
-0.00100782
0.000448391
-0.00100249
7.68597e-05
-0.000752971
-0.000742302
-0.00039391
-0.00120697
-0.000130318
-0.000900076
-7.36887e-05
-0.000279376
-0.000577706
0.00155981
-0.00107696
0.00168987
-0.00112153
0.000183958
-0.0011766
-3.50582e-05
-0.00138254
0.000722356
-0.00138233
0.000183087
-0.00109311
-0.00093704
-0.000967632
-0.000372322
-0.00114362
0.000671558
-0.00120496
0.000153283
-0.00114574
-0.000266884
-0.00117666
0.000230795
-0.00101583
-0.000397342
-0.000832339
-0.000730138
0.000216237
3.9553e-05
0.000219654
-1.29827e-05
0.00023067
-4.39474e-05
0.000239554
-3.63237e-05
0.000257353
-7.6141e-05
0.00028361
-0.00011062
0.000292144
-3.11966e-05
0.000282651
3.75406e-05
0.000272558
3.88391e-05
0.000258216
5.76966e-05
0.000232374
9.85434e-05
0.000224703
4.86513e-05
0.000225983
-1.4524e-06
0.000193894
0.000105206
0.00011746
0.00029403
2.57337e-05
0.000395309
3.64379e-05
-4.76211e-05
1.86945e-05
3.55893e-05
-8.88006e-05
0.000410711
-5.97503e-05
-0.000123279
-1.30727e-05
-0.000188606
-4.89995e-05
0.00013907
-8.86903e-05
0.000186392
-0.000285695
0.000849128
-0.00044756
0.000672257
-0.000324663
-0.000607098
-0.000173482
-0.000596177
-6.76276e-05
-0.000437035
-0.000153474
0.000138976
-0.000560714
0.0016842
-0.000860038
0.00134408
-0.000878552
8.02025e-05
-0.000824645
-0.000243916
-0.000711472
-0.000369569
-0.000452852
-0.00106099
-0.000351468
-0.000468404
-0.000360074
2.23619e-05
-0.000200795
-0.000603277
-5.60732e-05
-0.000538409
2.95425e-05
-0.000346575
2.64212e-05
-4.44683e-05
-0.000104601
0.000485968
-0.000339624
0.00110314
-0.000418886
0.000465654
2.9562e-05
-0.00204096
0.00045458
-0.0022145
0.000772771
-0.00114988
0.000617644
0.00094523
-0.00027702
0.0036565
-0.000332248
0.000397801
0.000256203
-0.00256389
-1.42604e-05
0.00078006
-3.65651e-05
0.0008675
-2.48511e-05
0.000336724
-0.000627166
0.00169072
-0.000875574
0.00112793
-0.000761661
-0.000553954
-0.000632329
-0.000634835
-0.000591073
-1.98827e-05
-0.000408255
-0.00095176
4.35661e-05
-0.00223236
0.000354247
-0.000685604
-6.24937e-05
0.00207967
0.000145528
-0.0015262
0.000125966
0.00053513
-0.000824654
0.0039231
-0.00129802
0.00145683
-0.0010918
-0.000818494
-0.000400853
-0.00221316
0.000241679
-0.00237392
-0.000182126
0.00154137
-0.000883873
0.00279195
-0.00114925
0.000624609
-0.00148666
0.00129379
-0.00185123
0.00155841
-0.00173896
-0.000678771
-0.00102712
-0.00288221
-0.000320091
-0.00276919
-0.000547592
0.00135694
-0.0012459
0.00313911
-0.0016888
0.00123311
-0.00140461
-0.00150421
-0.000800748
-0.00206191
-0.000787182
-4.42733e-06
-0.000985418
0.000646639
-0.000982201
7.36426e-05
-0.00078301
-0.00094149
-0.000418046
-0.00157193
-5.05224e-05
-0.00126759
1.88875e-05
-0.000348785
-0.000627543
0.00220624
-0.00110877
0.0021711
-0.00107755
0.000152736
-0.00114102
2.84036e-05
-0.00141511
0.000996454
-0.00147105
0.000239016
-0.00113264
-0.00127546
-0.000965179
-0.00053978
-0.00120895
0.000915332
-0.00127234
0.00021668
-0.00112584
-0.000413394
-0.00112743
0.000232388
-0.00104121
-0.000483565
-0.00104362
-0.00082994
0.000216122
4.91681e-05
0.000219652
-1.65125e-05
0.000230757
-5.5053e-05
0.000239451
-4.50175e-05
0.000256023
-9.2713e-05
0.000281073
-0.00013567
0.000289605
-3.97291e-05
0.000280381
4.67653e-05
0.000270577
4.86425e-05
0.000256882
7.13923e-05
0.000231015
0.00012441
0.000219158
6.05084e-05
0.000218991
-1.2856e-06
0.000191925
0.000132272
0.000117445
0.00036851
2.33633e-05
0.000489391
3.3263e-05
-5.75208e-05
1.53882e-05
5.34642e-05
-8.61155e-05
0.000512214
-5.48357e-05
-0.000154558
1.04624e-07
-0.000243547
-3.75211e-05
0.000176696
-8.56967e-05
0.000234568
-0.000276666
0.0010401
-0.000435758
0.000831349
-0.00031403
-0.000728827
-0.000163731
-0.000746476
-5.81681e-05
-0.000542597
-0.000188897
0.000269705
-0.000598983
0.00209429
-0.000837981
0.00158308
-0.000822541
6.47632e-05
-0.000769691
-0.000296767
-0.000686303
-0.000452957
-0.00044221
-0.00130509
-0.000325929
-0.000584685
-0.000343974
4.04067e-05
-0.000204811
-0.00074244
-4.88124e-05
-0.000694407
5.44439e-05
-0.000449831
1.43242e-05
-4.34756e-06
-0.000165491
0.000665784
-0.00032553
0.00126318
-0.000347437
0.000487561
9.61232e-05
-0.00248452
0.000519368
-0.00263774
0.000745225
-0.00137574
0.000557748
0.00113271
-0.000433389
0.00464764
-0.000499684
0.000464093
0.000300742
-0.00336431
3.75462e-05
0.00104326
7.71709e-05
0.000827876
1.64877e-05
0.000397408
-0.000747768
0.00245498
-0.00094949
0.00132965
-0.000779129
-0.000724317
-0.000677143
-0.000736821
-0.000706912
9.88481e-06
-0.000532695
-0.00112598
3.33213e-05
-0.00279838
0.000436137
-0.00108842
1.85536e-05
0.00249725
0.000230591
-0.00173824
0.000558196
0.000207525
-0.000418186
0.00489948
-0.00117774
0.00221638
-0.00106134
-0.000934906
-0.000502204
-0.00277231
-5.43318e-06
-0.0028707
-0.000391001
0.00192694
-0.00091104
0.00331199
-0.00116706
0.000880622
-0.00156154
0.00168827
-0.0019114
0.00190827
-0.00185661
-0.000733564
-0.00119766
-0.00354115
-3.82952e-05
-0.00392856
-7.13664e-05
0.00139002
-0.0011965
0.00426425
-0.0018489
0.0018855
-0.0013793
-0.00197379
-0.000697158
-0.00274405
-0.000819783
0.000118193
-0.00101081
0.000837674
-0.00103106
9.38916e-05
-0.000744719
-0.00122782
-5.98645e-05
-0.00225684
0.000617503
-0.00194496
0.000354017
-8.52858e-05
-0.000612057
0.00317232
-0.00115401
0.00271305
-0.00114368
0.000142402
-0.00113952
2.42474e-05
-0.00136048
0.00121742
-0.00149151
0.00037004
-0.00110896
-0.001658
-0.000891943
-0.000756783
-0.00119863
0.00122202
-0.00127353
0.000291573
-0.00115346
-0.000533461
-0.00130692
0.000385833
-0.00129891
-0.000491575
-0.00136061
-0.00098191
0.000216012
5.86828e-05
0.000219664
-2.01645e-05
0.000230815
-6.62034e-05
0.000239207
-5.34098e-05
0.000254448
-0.000107954
0.000278286
-0.000159508
0.000286288
-4.77314e-05
0.000277033
5.60204e-05
0.0002677
5.79756e-05
0.00025476
8.43328e-05
0.00022853
0.000150639
0.000217295
7.17428e-05
0.000215582
4.27561e-07
0.000183725
0.000164129
0.000109825
0.00044241
2.46751e-05
0.000574541
3.88578e-05
-7.17035e-05
1.32597e-05
7.90623e-05
-9.36464e-05
0.00061912
-7.18769e-05
-0.000176328
-2.5822e-05
-0.000289602
-5.14428e-05
0.000202317
-9.04992e-05
0.000273624
-0.000272892
0.00122249
-0.000429124
0.000987582
-0.000329699
-0.000828252
-0.000198585
-0.00087759
-9.09048e-05
-0.000650278
-0.000210523
0.000389323
-0.000607951
0.00249172
-0.000835492
0.00181062
-0.00084049
6.97616e-05
-0.00080072
-0.000336538
-0.000698536
-0.00055514
-0.000454266
-0.00154936
-0.000355498
-0.000683452
-0.000378944
6.38527e-05
-0.000220816
-0.000900567
-3.66351e-05
-0.000878589
5.32146e-05
-0.00053968
-6.33388e-06
5.52018e-05
-0.000155463
0.000814913
-0.000297025
0.00140474
-0.000324967
0.000515504
0.00011562
-0.0029251
0.000596777
-0.0031189
0.000815144
-0.00159411
0.00055107
0.00139678
-0.000369948
0.00556866
-0.00054089
0.000635036
0.000289145
-0.00419434
0.000171982
0.00116042
0.000186858
0.000813001
0.000157371
0.000426896
-0.000664964
0.00327732
-0.00101696
0.00168165
-0.000861976
-0.000879304
-0.000711585
-0.000887215
-0.000814984
0.000113281
-0.000625492
-0.00131547
0.000143688
-0.00356756
0.000702593
-0.00164732
0.00014161
0.00305823
0.000407864
-0.0020045
0.00103365
-0.000418268
1.77541e-05
0.00591538
-0.0010369
0.00327104
-0.00103929
-0.000932543
-0.000729236
-0.00308234
-0.000245463
-0.00335448
-0.000327063
0.00200855
-0.000832625
0.00381755
-0.00107097
0.00111897
-0.00148509
0.0021024
-0.00190812
0.00233129
-0.00171124
-0.000930455
-0.00135726
-0.00389512
-0.000263743
-0.00502205
-3.73511e-05
0.00116363
-0.00134366
0.00557061
-0.00192062
0.00246245
-0.00143324
-0.00246121
-0.000624961
-0.00355231
-0.000579904
7.31466e-05
-0.000889208
0.00114699
-0.00107557
0.000280254
-0.000763118
-0.00154028
-3.41533e-05
-0.00298575
0.000565691
-0.00254477
0.00028618
0.000194236
-0.000635116
0.00409362
-0.00111404
0.00319197
-0.00106815
9.65186e-05
-0.00113158
8.76636e-05
-0.00143771
0.00152356
-0.00149436
0.000426683
-0.00110505
-0.00204732
-0.000953483
-0.000908344
-0.00115938
0.00142791
-0.00139601
0.000528212
-0.00159364
-0.00033583
-0.00167667
0.000468854
-0.00152528
-0.00064296
-0.00165169
-0.00123421
0.000215868
6.80936e-05
0.000219657
-2.39539e-05
0.000230791
-7.73369e-05
0.000238773
-6.13917e-05
0.000252551
-0.000121733
0.000274986
-0.000181943
0.0002825
-5.52455e-05
0.000273559
6.49615e-05
0.000264596
6.69388e-05
0.000252085
9.68431e-05
0.000226013
0.000176711
0.000208687
8.9069e-05
0.000204987
4.12737e-06
0.000179648
0.000189469
0.000106566
0.000515492
2.6291e-05
0.000654816
4.00385e-05
-8.5451e-05
9.97705e-06
0.000109124
-9.70483e-05
0.000726146
-7.70083e-05
-0.000196368
-2.17309e-05
-0.000344879
-4.66389e-05
0.000227225
-9.92875e-05
0.000326273
-0.000269235
0.00139244
-0.000413262
0.00113161
-0.000323323
-0.000918192
-0.000196508
-0.00100441
-8.34776e-05
-0.000763308
-0.000195032
0.000500878
-0.00059602
0.0028927
-0.000820895
0.00203549
-0.000800271
4.91374e-05
-0.000750924
-0.000385884
-0.000677528
-0.000628536
-0.000448916
-0.00177797
-0.000349894
-0.000782475
-0.00037764
9.1599e-05
-0.000234829
-0.00104338
-5.83301e-05
-0.00105509
2.38448e-05
-0.000621855
-3.47002e-05
0.000113748
-0.000158246
0.000938459
-0.000402931
0.00164943
-0.000377256
0.000489829
0.000332751
-0.00363506
0.000927725
-0.00371385
0.00118519
-0.00185158
0.000771622
0.00181035
-9.32228e-05
0.0064335
-0.000353321
0.000895139
0.00044496
-0.00499262
0.000620542
0.000984844
0.000496303
0.000937244
0.000327852
0.000595348
-0.000405574
0.00401074
-0.000937755
0.00221383
-0.000853237
-0.000963829
-0.000578621
-0.00116183
-0.000727154
0.000261812
-0.000598791
-0.00144383
-0.000106571
-0.00405979
0.000376316
-0.00213021
0.000248606
0.00318595
0.000920725
-0.00267663
0.0015799
-0.00107743
0.000261433
0.00723382
-0.00103457
0.00456705
-0.000955709
-0.00101142
-0.000646684
-0.00339134
-0.000262813
-0.00373835
-0.000305155
0.00205089
-0.000878866
0.00439127
-0.00110203
0.00134213
-0.00146123
0.00246161
-0.00187191
0.00274197
-0.00151952
-0.00128284
-0.00116992
-0.00424472
-0.00134808
-0.00484388
-0.00119831
0.00101385
-0.00155294
0.00592526
-0.00171711
0.00262663
-0.00118612
-0.00299218
-0.00109652
-0.0036419
-0.00094128
-8.20984e-05
-0.00092441
0.00113012
-0.00115521
0.000511055
-0.000911448
-0.00178399
-0.000474442
-0.00342278
-0.000204407
-0.0028148
-0.000114291
0.00010413
-0.000612579
0.00459191
-0.00101973
0.00359912
-0.00100817
8.49586e-05
-0.00120356
0.000283049
-0.00142476
0.00174475
-0.00126829
0.000270203
-0.000993491
-0.00232212
-0.00106171
-0.000840132
-0.00106015
0.00142635
-0.00122212
0.000690183
-0.00150546
-5.24826e-05
-0.00157882
0.0005422
-0.00148226
-0.000739509
-0.00182945
-0.00130451
0.000215707
7.74075e-05
0.000219633
-2.78808e-05
0.000230621
-8.83242e-05
0.000238092
-6.88632e-05
0.000250405
-0.000134045
0.000271506
-0.000203044
0.000278347
-6.20861e-05
0.000269492
7.38166e-05
0.000260904
7.5526e-05
0.000248763
0.000108985
0.00022228
0.000203194
0.000203056
0.000108292
0.000196902
1.02816e-05
0.000168727
0.000217644
9.51886e-05
0.00058903
2.30618e-05
0.000726942
4.01818e-05
-0.000102571
6.73269e-06
0.000142573
-9.88839e-05
0.000831762
-8.98165e-05
-0.000205435
-4.07479e-05
-0.000393948
-6.04659e-05
0.000246943
-0.00011291
0.000378717
-0.000274654
0.00155418
-0.00042655
0.0012835
-0.000349944
-0.000994798
-0.000227224
-0.00112713
-0.000122283
-0.000868249
-0.000222703
0.000601298
-0.000603184
0.00327319
-0.00084365
0.00227596
-0.000824
2.94877e-05
-0.000768021
-0.000441864
-0.000686609
-0.000709947
-0.000451427
-0.00201315
-0.000366735
-0.000867166
-0.000407582
0.000132446
-0.000264836
-0.00118612
-6.32546e-05
-0.00125667
3.61233e-05
-0.000721232
-2.91391e-05
0.000179011
-0.000162283
0.0010716
-0.000604989
0.00209215
-0.000536491
0.000421332
0.00049281
-0.00466441
0.00112762
-0.00434868
0.00127191
-0.00199587
0.000881854
0.0022004
-5.77594e-06
0.00732113
-0.000354491
0.00124386
0.000146865
-0.00549397
0.000708207
0.000423505
0.000902288
0.000743167
0.000493917
0.00100372
-0.000315
0.00481966
-0.000736248
0.00263508
-0.000649273
-0.0010508
-0.00059923
-0.00121187
-0.000767825
0.000430406
-1.75724e-05
-0.00219408
0.000337909
-0.00441527
-0.000404459
-0.00138785
-0.000116882
0.00289836
0.00101714
-0.00381066
0.00144592
-0.00150623
0.000277794
0.00840193
-0.00084547
0.00569032
-0.000804342
-0.00105256
-0.0006131
-0.0035826
-0.000285887
-0.00406556
-0.00040748
0.00217249
-0.00101974
0.00500352
-0.00128409
0.00160647
-0.00151016
0.00268766
-0.00182425
0.00305605
-0.00143608
-0.00167103
-0.00114468
-0.00453612
-0.00115855
-0.00483001
-0.0010391
0.000894373
-0.00151326
0.00639946
-0.00151199
0.0026253
-0.00099169
-0.00351247
-0.00124129
-0.0033923
-0.00107502
-0.000248369
-0.000921336
0.000976447
-0.00108354
0.000673259
-0.00112258
-0.00174495
-0.00110352
-0.00344186
-0.000610346
-0.00330796
-0.000224257
-0.00028195
-0.000645573
0.00501323
-0.00105585
0.0040094
-0.00106454
9.36487e-05
-0.00122101
0.000439512
-0.0012787
0.00180245
-0.00110224
9.37422e-05
-0.00101556
-0.00240879
-0.00101174
-0.000843945
-0.00100894
0.00142355
-0.00127614
0.000957368
-0.00152314
0.000194524
-0.00156245
0.000581515
-0.00143746
-0.0008645
-0.00203462
-0.0012323
0.000215563
8.66103e-05
0.000219525
-3.18429e-05
0.000230241
-9.90402e-05
0.000237099
-7.57213e-05
0.00024796
-0.000144906
0.000267798
-0.000222881
0.000273975
-6.82635e-05
0.000265121
8.26709e-05
0.000256785
8.38615e-05
0.000245091
0.000120679
0.000218625
0.00022966
0.000195146
0.000131771
0.000187044
1.83839e-05
0.000162692
0.000241996
9.04384e-05
0.000661284
2.21372e-05
0.000795244
3.89692e-05
-0.000119403
7.37286e-07
0.000180805
-9.54231e-05
0.000927923
-9.14526e-05
-0.000209406
-4.47197e-05
-0.000440681
-6.49047e-05
0.000267128
-0.000132752
0.000446564
-0.000288015
0.00170944
-0.000419645
0.00141513
-0.000330469
-0.00108397
-0.000219087
-0.00123851
-0.000125568
-0.000961769
-0.000246598
0.000722328
-0.000634205
0.00366079
-0.000850717
0.00249247
-0.000801671
-1.95585e-05
-0.000741037
-0.000502497
-0.000665316
-0.000785668
-0.000422982
-0.00225548
-0.000349029
-0.000941119
-0.000405222
0.000188638
-0.000263063
-0.00132828
-6.14274e-05
-0.0014583
1.83829e-05
-0.000801042
-5.92682e-05
0.000256662
-0.000179043
0.00119138
-0.000535985
0.00244909
-0.000576399
0.00046175
0.000198926
-0.0054397
0.000637291
-0.00478704
0.000658927
-0.00201751
0.000634886
0.00222444
1.13448e-05
0.00794467
-0.000368068
0.00162327
-4.41843e-05
-0.00581785
0.00034446
3.48634e-05
0.00065994
0.000427689
0.000399614
0.00126405
-0.000360703
0.00557998
-0.000633101
0.00290748
-0.000535925
-0.00114798
-0.000591526
-0.00115627
-0.00078433
0.000623209
0.000163907
-0.00314232
0.000627367
-0.00487874
-0.000337429
-0.000423055
-0.000503661
0.00306459
-0.000166017
-0.00414831
0.000507119
-0.00217936
0.000159398
0.00874962
-0.000806361
0.00665608
-0.000802189
-0.00105675
-0.000628124
-0.00375665
-0.000374835
-0.00431885
-0.000554377
0.00235204
-0.00105657
0.00550572
-0.00159913
0.00214903
-0.00180822
0.00289676
-0.00145911
0.00270693
-0.000990184
-0.00213995
-0.00118871
-0.0043376
-0.000911446
-0.00510725
-0.000471959
0.000454862
-0.0010018
0.00692929
-0.00122258
0.0028461
-0.000982114
-0.00375298
-0.00112533
-0.00324908
-0.00111023
-0.000263456
-0.0010391
0.000905322
-0.000966006
0.000600158
-0.00104757
-0.0016634
-0.00125198
-0.00323738
-0.000581953
-0.00397798
-7.75084e-05
-0.000786392
-0.000597188
0.00553293
-0.00102351
0.00443573
-0.00102663
9.67662e-05
-0.00106136
0.000474225
-0.00112859
0.00186969
-0.00104135
6.50652e-06
-0.000984955
-0.00246519
-0.000964427
-0.000864478
-0.000959275
0.0014184
-0.0012505
0.0012486
-0.0015347
0.00047871
-0.00156977
0.00061659
-0.00140206
-0.00103221
-0.00225585
-0.00118083
0.000215394
9.57091e-05
0.000219399
-3.58476e-05
0.000229747
-0.000109388
0.00023589
-8.18641e-05
0.000245332
-0.000154349
0.000264004
-0.000241552
0.000269434
-7.36939e-05
0.000260366
9.1739e-05
0.000252266
9.19614e-05
0.000241064
0.000131881
0.000215077
0.000255647
0.000188698
0.00015815
0.000177224
2.9858e-05
0.000151535
0.000267684
7.77469e-05
0.000735073
1.86294e-05
0.000854361
4.10279e-05
-0.000141802
-1.49248e-06
0.000223325
-9.40388e-05
0.00102047
-0.000112162
-0.000191283
-7.2765e-05
-0.000480077
-7.92009e-05
0.000273564
-0.000151702
0.000519065
-0.000295881
0.00185362
-0.000413823
0.00153308
-0.000332263
-0.00116553
-0.000240761
-0.00133001
-0.000155388
-0.00104714
-0.000258131
0.00082507
-0.000633626
0.00403629
-0.000840856
0.0026997
-0.000793719
-6.66954e-05
-0.000747885
-0.00054833
-0.000662561
-0.000870993
-0.000411297
-0.00250675
-0.000354659
-0.000997757
-0.000423051
0.000257031
-0.00027647
-0.00147486
-6.52586e-05
-0.00166952
-1.26637e-05
-0.000853637
-0.000151782
0.000395781
-0.000265086
0.00130468
-0.000395866
0.00257988
-0.000455527
0.000521413
-5.95313e-05
-0.00583569
-5.00611e-06
-0.00484155
-1.73118e-05
-0.0020052
0.000286527
0.0019206
-9.19762e-05
0.00832318
-0.000370972
0.00190226
3.25212e-05
-0.00622135
0.000462127
-0.000394741
0.000613651
0.000276167
0.000234449
0.00164325
-0.000425623
0.00624004
-0.000654233
0.00313609
-0.000571518
-0.0012307
-0.000594933
-0.00113286
-0.000805478
0.000833755
0.000328526
-0.00427632
0.000774956
-0.00532518
5.51794e-05
0.000296719
-0.000230092
0.00334987
-0.00043346
-0.00394495
8.06932e-05
-0.00269351
1.48633e-06
0.00882882
-0.0008214
0.00747897
-0.000865523
-0.00101262
-0.000636597
-0.00398561
-0.000439401
-0.00451606
-0.000590999
0.00250364
-0.00102318
0.0059379
-0.00148033
0.00260617
-0.00158429
0.00300071
-0.00128849
0.00241114
-0.0010308
-0.00239765
-0.00124654
-0.00412185
-0.000836894
-0.00551696
-0.000342216
-3.98294e-05
-0.000754793
0.00734181
-0.00100907
0.00310039
-0.000993848
-0.00376817
-0.00106643
-0.0031765
-0.00153078
0.000200882
-0.00135179
0.000726345
-0.000806192
5.45613e-05
-0.00101024
-0.00145935
-0.00122805
-0.0030196
-0.000531335
-0.00467468
0.000101712
-0.00141944
-0.000366824
0.00600146
-0.000853608
0.00492254
-0.000979731
0.000222889
-0.00106958
0.000564076
-0.00120544
0.00200553
-0.00117988
-1.90501e-05
-0.00103581
-0.00260926
-0.00095685
-0.000943432
-0.00097218
0.00143373
-0.00126068
0.0015371
-0.00158843
0.000806461
-0.00169746
0.000725615
-0.00146393
-0.00126575
-0.00251923
-0.00120053
0.000215167
0.000104686
0.000219269
-3.9949e-05
0.000229194
-0.000119313
0.000234484
-8.71544e-05
0.000242438
-0.000162302
0.00025997
-0.000259084
0.000264726
-7.84501e-05
0.000255339
0.000101125
0.000247275
0.000100026
0.000236624
0.000142533
0.000211223
0.000281047
0.000179256
0.000190118
0.000165976
4.31383e-05
0.000145728
0.000287931
7.28044e-05
0.000807997
1.60785e-05
0.000911087
3.84114e-05
-0.000164135
-4.24944e-06
0.000265986
-0.000100809
0.00111703
-0.000137284
-0.000154809
-9.54619e-05
-0.000521899
-8.38579e-05
0.00026196
-0.000165144
0.00060035
-0.000310642
0.00199912
-0.000406999
0.00162943
-0.000324175
-0.00124836
-0.000247243
-0.00140694
-0.000174327
-0.00112006
-0.000257167
0.00090791
-0.000618368
0.00439749
-0.000810389
0.00289172
-0.000747381
-0.000129704
-0.000717778
-0.000577933
-0.000638749
-0.000950022
-0.000386047
-0.00275945
-0.000353727
-0.00103008
-0.000430529
0.000333832
-0.000263133
-0.00164226
-6.83646e-05
-0.00186428
-7.12489e-05
-0.000850753
-0.000246791
0.000571324
-0.000362507
0.0014204
-0.0002782
0.00249558
-0.000322361
0.00056558
-0.000568589
-0.00558951
-0.000590902
-0.00481925
-9.38938e-05
-0.00250222
0.00036586
0.00146085
9.99451e-06
0.00867904
-0.000246957
0.00215921
6.95909e-05
-0.00653789
0.000671184
-0.000996333
0.00084469
0.000102664
0.000290908
0.00219703
-0.000377596
0.00690855
-0.000639234
0.00339773
-0.000585212
-0.00128472
-0.000560298
-0.00115778
-0.000771879
0.00104533
0.000345929
-0.00539413
0.000792508
-0.00577176
2.45907e-05
0.00106464
-4.58527e-05
0.0034203
-0.00010466
-0.00388615
-0.000315301
-0.00248287
-0.00039526
0.00890876
-0.000738501
0.00782221
-0.000803523
-0.000947617
-0.000558897
-0.00423019
-0.000359225
-0.00471574
-0.000514962
0.00265939
-0.00102205
0.00644498
-0.00140366
0.00298778
-0.00158594
0.00318297
-0.00145392
0.00227912
-0.00115407
-0.00269748
-0.00122786
-0.00404807
-0.000784381
-0.00596035
-0.000300889
-0.000523342
-0.000409408
0.00745034
-0.000729331
0.00342029
-0.00101937
-0.00347816
-0.00110451
-0.00309135
-0.0011216
0.000217978
-0.000798939
0.000403693
-0.000695236
-4.91491e-05
-0.000997048
-0.00115754
-0.00113337
-0.00288325
-0.000199912
-0.00560814
0.00039281
-0.00201214
-0.000305049
0.00669933
-0.000810192
0.00542768
-0.000920959
0.000333657
-0.00105171
0.000694821
-0.0012518
0.00220563
-0.00110016
-0.000170698
-0.000881571
-0.00282785
-0.000848608
-0.000976397
-0.000931043
0.00151616
-0.00122598
0.00183204
-0.00152136
0.00110184
-0.00145057
0.000654831
-0.00129368
-0.00142265
-0.00259726
-0.00121567
0.000214836
0.000113601
0.000219093
-4.4206e-05
0.000228668
-0.000128888
0.000232928
-9.14147e-05
0.000239142
-0.000168516
0.000255488
-0.00027543
0.000259651
-8.2613e-05
0.000249944
0.000110833
0.000241903
0.000108067
0.000231767
0.000152669
0.000207106
0.000305708
0.000171869
0.000225354
0.000156402
5.86055e-05
0.000136822
0.000307512
6.1315e-05
0.000883503
1.06657e-05
0.000961736
4.14771e-05
-0.000194946
-1.86894e-06
0.000309332
-0.000109704
0.00122486
-0.000165993
-9.85202e-05
-0.000128992
-0.0005589
-8.47985e-05
0.000217766
-0.000168868
0.00068442
-0.000329396
0.00215965
-0.000412343
0.00171238
-0.000332864
-0.00132784
-0.000276226
-0.00146358
-0.000220125
-0.00117616
-0.000276289
0.000964074
-0.000601209
0.00472241
-0.000815453
0.00310597
-0.000768797
-0.00017636
-0.000727024
-0.000619706
-0.000624521
-0.00105253
-0.000366066
-0.0030179
-0.000360389
-0.00103575
-0.000437024
0.000410469
-0.000259929
-0.00181936
-0.000109057
-0.00201516
-0.000243346
-0.000716463
-0.000452137
0.000780116
-0.00045677
0.00142503
-0.000146812
0.00218562
-0.000207029
0.0006258
-0.000664831
-0.00513167
-0.000524234
-0.00495983
0.000104731
-0.00313118
0.000467423
0.00109816
0.000275081
0.00887139
-2.78204e-05
0.00246212
-3.9004e-05
-0.00652671
0.000551326
-0.00158666