/*--------------------------------*- C++ -*----------------------------------*\
| =========                 |                                                 |
| \\      /  F ield         | OpenFOAM: The Open Source CFD Toolbox           |
|  \\    /   O peration     | Version:  v1912                                 |
|   \\  /    A nd           | Website:  www.openfoam.com                      |
|    \\/     M anipulation  |                                                 |
\*---------------------------------------------------------------------------*/
FoamFile
{
    version     2.0;
    format      ascii;
    class       volScalarField;
    location    "80";
    object      p_rgh;
}
// * * * * * * * * * * * * * * * * * * * * * * * * * * * * * * * * * * * * * //

dimensions      [1 -1 -2 0 0 0 0];


internalField   nonuniform List<scalar> 
14268
(
0.113548
0.108288
0.103196
0.0982743
0.0935213
0.0889364
0.0845188
0.0802669
0.0761791
0.0722532
0.0684865
0.0648761
0.0614185
0.0581102
0.0549476
0.051927
0.0490445
0.0462962
0.0436779
0.0411855
0.0388148
0.0365617
0.0344218
0.0323909
0.0304649
0.0286395
0.0269106
0.0252742
0.0237263
0.0222629
0.0208804
0.0195749
0.018343
0.0171811
0.0160858
0.0150539
0.0140822
0.0131677
0.0123074
0.0114986
0.0107385
0.0100245
0.00935419
0.00872515
0.00813513
0.00758194
0.00706353
0.00657793
0.00612325
0.00569772
0.00529964
0.0049274
0.00457947
0.0042544
0.00395082
0.00366742
0.00340298
0.00315632
0.00292636
0.00271204
0.00251239
0.00232648
0.00215344
0.00199244
0.00184271
0.00170352
0.00157417
0.00145403
0.00134248
0.00123896
0.00114292
0.00105387
0.000971325
0.000894851
0.00082403
0.000758471
0.000697811
0.000641708
0.000589843
0.000541917
0.000497651
0.000456783
0.000419071
0.000384286
0.000352217
0.000322664
0.000295444
0.000270384
0.000247324
0.000226115
0.000206617
0.000188701
0.000172248
0.000157145
0.000143289
0.000130584
0.000118939
0.000108272
9.85068e-05
8.9571e-05
8.13989e-05
7.39294e-05
6.71059e-05
6.08761e-05
5.51916e-05
5.00077e-05
4.52831e-05
4.09796e-05
3.70623e-05
3.34985e-05
3.02584e-05
2.73146e-05
2.46417e-05
2.22164e-05
2.00171e-05
1.80245e-05
1.62201e-05
1.45877e-05
1.31117e-05
1.17787e-05
1.05751e-05
9.49048e-06
8.5124e-06
7.63346e-06
6.84169e-06
6.13288e-06
5.49488e-06
4.92674e-06
4.41542e-06
3.96413e-06
3.55633e-06
3.20284e-06
2.87903e-06
2.60825e-06
2.35192e-06
2.15275e-06
1.94981e-06
1.81677e-06
1.65504e-06
1.5681e-06
1.44217e-06
1.38914e-06
1.29483e-06
1.26387e-06
1.19499e-06
1.17723e-06
1.1283e-06
1.11869e-06
1.08368e-06
1.07741e-06
1.05239e-06
1.04784e-06
1.02998e-06
1.02647e-06
1.01369e-06
1.01097e-06
1.00176e-06
9.99782e-07
9.93143e-07
9.91888e-07
9.87129e-07
9.86506e-07
9.82978e-07
9.8259e-07
0.113537
0.108277
0.103186
0.0982642
0.0935116
0.0889271
0.0845098
0.0802582
0.0761708
0.0722452
0.0684789
0.0648687
0.0614114
0.0581035
0.0549412
0.0519209
0.0490387
0.0462906
0.0436726
0.0411804
0.03881
0.0365571
0.0344175
0.0323868
0.030461
0.0286358
0.0269071
0.0252709
0.0237231
0.02226
0.0208776
0.0195723
0.0183405
0.0171787
0.0160836
0.0150518
0.0140803
0.0131659
0.0123057
0.011497
0.0107369
0.0100231
0.00935284
0.00872388
0.00813394
0.00758083
0.00706249
0.00657695
0.00612234
0.00569687
0.00529884
0.00492665
0.00457877
0.00425375
0.00395021
0.00366685
0.00340244
0.00315583
0.00292589
0.00271161
0.00251199
0.00232611
0.00215309
0.00199212
0.00184241
0.00170324
0.00157391
0.00145379
0.00134226
0.00123875
0.00114273
0.00105369
0.000971159
0.000894698
0.000823887
0.000758339
0.000697689
0.000641596
0.000589739
0.000541821
0.000497562
0.000456701
0.000418996
0.000384217
0.000352152
0.000322605
0.000295389
0.000270334
0.000247278
0.000226072
0.000206578
0.000188665
0.000172215
0.000157115
0.000143262
0.000130558
0.000118916
0.000108251
9.84872e-05
8.9553e-05
8.13824e-05
7.39143e-05
6.70922e-05
6.08635e-05
5.51801e-05
4.99972e-05
4.52735e-05
4.0971e-05
3.70543e-05
3.34913e-05
3.02519e-05
2.73087e-05
2.46362e-05
2.22114e-05
2.00127e-05
1.80204e-05
1.62164e-05
1.45844e-05
1.31087e-05
1.1776e-05
1.05726e-05
9.48822e-06
8.51035e-06
7.63162e-06
6.84003e-06
6.13138e-06
5.49352e-06
4.92551e-06
4.41431e-06
3.96314e-06
3.55543e-06
3.20203e-06
2.87831e-06
2.6076e-06
2.35134e-06
2.15223e-06
1.94936e-06
1.81637e-06
1.65468e-06
1.56778e-06
1.44189e-06
1.38889e-06
1.2946e-06
1.26367e-06
1.1948e-06
1.17706e-06
1.12814e-06
1.11855e-06
1.08355e-06
1.07729e-06
1.05226e-06
1.04773e-06
1.02986e-06
1.02636e-06
1.01358e-06
1.01086e-06
1.00166e-06
9.9968e-07
9.93041e-07
9.91788e-07
9.8703e-07
9.86408e-07
9.8288e-07
9.82493e-07
0.113526
0.108266
0.103175
0.0982541
0.0935018
0.0889176
0.0845007
0.0802495
0.0761624
0.0722371
0.0684711
0.0648613
0.0614043
0.0580967
0.0549347
0.0519147
0.0490328
0.046285
0.0436672
0.0411753
0.0388051
0.0365525
0.0344131
0.0323827
0.0304571
0.0286321
0.0269036
0.0252675
0.02372
0.022257
0.0208748
0.0195696
0.018338
0.0171764
0.0160814
0.0150497
0.0140783
0.013164
0.0123039
0.0114953
0.0107354
0.0100216
0.00935147
0.0087226
0.00813273
0.0075797
0.00706143
0.00657596
0.00612141
0.005696
0.00529803
0.00492589
0.00457806
0.00425308
0.00394959
0.00366627
0.0034019
0.00315532
0.00292542
0.00271117
0.00251158
0.00232573
0.00215274
0.00199179
0.0018421
0.00170295
0.00157365
0.00145354
0.00134203
0.00123854
0.00114253
0.00105351
0.000970991
0.000894541
0.000823743
0.000758205
0.000697565
0.000641481
0.000589633
0.000541723
0.000497471
0.000456618
0.000418918
0.000384145
0.000352087
0.000322544
0.000295334
0.000270282
0.00024723
0.000226028
0.000206537
0.000188628
0.000172181
0.000157084
0.000143233
0.000130532
0.000118892
0.000108229
9.84668e-05
8.95343e-05
8.13653e-05
7.38986e-05
6.70777e-05
6.08503e-05
5.5168e-05
4.99861e-05
4.52634e-05
4.09617e-05
3.70458e-05
3.34835e-05
3.02448e-05
2.73021e-05
2.46303e-05
2.2206e-05
2.00077e-05
1.80158e-05
1.62122e-05
1.45806e-05
1.31052e-05
1.17727e-05
1.05697e-05
9.48549e-06
8.50784e-06
7.62931e-06
6.8379e-06
6.12941e-06
5.4917e-06
4.92383e-06
4.41275e-06
3.96169e-06
3.55409e-06
3.20078e-06
2.87715e-06
2.60651e-06
2.35033e-06
2.15127e-06
1.94847e-06
1.81553e-06
1.65388e-06
1.56703e-06
1.44117e-06
1.38821e-06
1.29393e-06
1.26303e-06
1.19418e-06
1.17646e-06
1.12755e-06
1.11797e-06
1.08298e-06
1.07673e-06
1.05171e-06
1.04718e-06
1.02932e-06
1.02582e-06
1.01304e-06
1.01032e-06
1.00112e-06
9.99146e-07
9.92508e-07
9.91257e-07
9.86499e-07
9.85879e-07
9.8235e-07
9.8196e-07
0.113514
0.108255
0.103165
0.0982438
0.0934919
0.0889081
0.0844914
0.0802406
0.0761539
0.072229
0.0684633
0.0648538
0.0613971
0.0580898
0.0549281
0.0519084
0.0490268
0.0462793
0.0436617
0.0411701
0.0388002
0.0365478
0.0344086
0.0323785
0.0304531
0.0286283
0.0269
0.0252641
0.0237168
0.0222539
0.0208719
0.0195669
0.0183355
0.017174
0.0160791
0.0150476
0.0140763
0.0131621
0.0123022
0.0114936
0.0107338
0.0100201
0.00935008
0.0087213
0.00813151
0.00757855
0.00706036
0.00657495
0.00612047
0.00569512
0.0052972
0.00492512
0.00457734
0.00425241
0.00394896
0.00366568
0.00340135
0.00315481
0.00292495
0.00271073
0.00251117
0.00232534
0.00215238
0.00199145
0.00184179
0.00170266
0.00157338
0.00145329
0.0013418
0.00123832
0.00114233
0.00105332
0.000970819
0.000894382
0.000823595
0.000758068
0.000697438
0.000641363
0.000589524
0.000541622
0.000497378
0.000456532
0.000418839
0.000384072
0.000352019
0.000322482
0.000295276
0.000270229
0.000247181
0.000225983
0.000206496
0.00018859
0.000172146
0.000157051
0.000143203
0.000130504
0.000118866
0.000108205
9.84451e-05
8.95143e-05
8.13469e-05
7.38817e-05
6.70621e-05
6.0836e-05
5.51548e-05
4.99739e-05
4.52521e-05
4.09513e-05
3.70362e-05
3.34746e-05
3.02366e-05
2.72946e-05
2.46233e-05
2.21995e-05
2.00016e-05
1.80102e-05
1.6207e-05
1.45757e-05
1.31006e-05
1.17685e-05
1.05657e-05
9.48177e-06
8.50434e-06
7.626e-06
6.83478e-06
6.12646e-06
5.4889e-06
4.92117e-06
4.41022e-06
3.95927e-06
3.55178e-06
3.19856e-06
2.87502e-06
2.60445e-06
2.34835e-06
2.14934e-06
1.94661e-06
1.81373e-06
1.65213e-06
1.56531e-06
1.43949e-06
1.38657e-06
1.29232e-06
1.26144e-06
1.19261e-06
1.17491e-06
1.12601e-06
1.11645e-06
1.08146e-06
1.07522e-06
1.0502e-06
1.04568e-06
1.02782e-06
1.02433e-06
1.01155e-06
1.00884e-06
9.99637e-07
9.97664e-07
9.91026e-07
9.89777e-07
9.85021e-07
9.84401e-07
9.80867e-07
9.80467e-07
0.113503
0.108244
0.103154
0.0982334
0.0934818
0.0888984
0.0844821
0.0802316
0.0761452
0.0722207
0.0684554
0.0648462
0.0613899
0.0580828
0.0549215
0.0519021
0.0490207
0.0462735
0.0436562
0.0411649
0.0387952
0.0365431
0.0344041
0.0323742
0.030449
0.0286245
0.0268964
0.0252607
0.0237135
0.0222509
0.020869
0.0195642
0.0183329
0.0171715
0.0160768
0.0150454
0.0140742
0.0131602
0.0123003
0.0114919
0.0107322
0.0100186
0.00934867
0.00871998
0.00813027
0.00757739
0.00705927
0.00657393
0.00611951
0.00569422
0.00529637
0.00492434
0.00457661
0.00425173
0.00394832
0.00366509
0.0034008
0.00315429
0.00292446
0.00271027
0.00251075
0.00232495
0.00215201
0.00199111
0.00184148
0.00170237
0.0015731
0.00145304
0.00134156
0.0012381
0.00114213
0.00105313
0.000970643
0.000894218
0.000823443
0.000757928
0.000697308
0.000641243
0.000589412
0.000541519
0.000497283
0.000456443
0.000418757
0.000383996
0.000351949
0.000322417
0.000295216
0.000270174
0.00024713
0.000225936
0.000206452
0.000188549
0.000172108
0.000157017
0.000143171
0.000130475
0.000118839
0.00010818
9.84218e-05
8.94928e-05
8.13269e-05
7.38632e-05
6.7045e-05
6.08201e-05
5.51401e-05
4.99603e-05
4.52394e-05
4.09395e-05
3.70253e-05
3.34644e-05
3.0227e-05
2.72856e-05
2.46149e-05
2.21916e-05
1.99942e-05
1.80033e-05
1.62005e-05
1.45695e-05
1.30948e-05
1.1763e-05
1.05604e-05
9.47674e-06
8.49954e-06
7.62141e-06
6.83037e-06
6.12222e-06
5.48482e-06
4.91723e-06
4.40641e-06
3.95557e-06
3.54819e-06
3.19506e-06
2.87161e-06
2.60112e-06
2.34509e-06
2.14615e-06
1.94348e-06
1.81066e-06
1.6491e-06
1.56233e-06
1.43654e-06
1.38366e-06
1.28944e-06
1.25859e-06
1.18978e-06
1.1721e-06
1.12321e-06
1.11366e-06
1.07867e-06
1.07245e-06
1.04743e-06
1.04292e-06
1.02506e-06
1.02158e-06
1.0088e-06
1.00609e-06
9.96891e-07
9.9492e-07
9.88284e-07
9.87037e-07
9.82282e-07
9.81662e-07
9.78128e-07
9.77712e-07
0.113491
0.108233
0.103143
0.0982229
0.0934717
0.0888886
0.0844727
0.0802226
0.0761365
0.0722123
0.0684473
0.0648385
0.0613825
0.0580758
0.0549147
0.0518956
0.0490146
0.0462676
0.0436507
0.0411596
0.0387902
0.0365383
0.0343996
0.0323699
0.0304449
0.0286206
0.0268927
0.0252572
0.0237102
0.0222478
0.0208661
0.0195614
0.0183303
0.0171691
0.0160745
0.0150432
0.0140722
0.0131582
0.0122985
0.0114902
0.0107306
0.0100171
0.00934725
0.00871864
0.00812901
0.00757621
0.00705816
0.0065729
0.00611854
0.00569331
0.00529552
0.00492354
0.00457586
0.00425103
0.00394767
0.00366448
0.00340023
0.00315376
0.00292397
0.00270982
0.00251032
0.00232455
0.00215164
0.00199077
0.00184115
0.00170207
0.00157282
0.00145278
0.00134132
0.00123788
0.00114192
0.00105294
0.000970463
0.000894052
0.000823288
0.000757784
0.000697175
0.000641119
0.000589298
0.000541413
0.000497184
0.000456352
0.000418672
0.000383918
0.000351876
0.00032235
0.000295154
0.000270116
0.000247077
0.000225886
0.000206406
0.000188507
0.000172069
0.00015698
0.000143137
0.000130443
0.00011881
0.000108153
9.83969e-05
8.94696e-05
8.13054e-05
7.38432e-05
6.70264e-05
6.08028e-05
5.51239e-05
4.99452e-05
4.52253e-05
4.09263e-05
3.70129e-05
3.34528e-05
3.02161e-05
2.72753e-05
2.46052e-05
2.21824e-05
1.99855e-05
1.7995e-05
1.61926e-05
1.4562e-05
1.30876e-05
1.17561e-05
1.05538e-05
9.47041e-06
8.49344e-06
7.61552e-06
6.82468e-06
6.1167e-06
5.47946e-06
4.91201e-06
4.40132e-06
3.9506e-06
3.54332e-06
3.19029e-06
2.86694e-06
2.59651e-06
2.34057e-06
2.14169e-06
1.93909e-06
1.80632e-06
1.64481e-06
1.55809e-06
1.43233e-06
1.37949e-06
1.28529e-06
1.25448e-06
1.18568e-06
1.16803e-06
1.11914e-06
1.10962e-06
1.07463e-06
1.06842e-06
1.04341e-06
1.0389e-06
1.02104e-06
1.01756e-06
1.00478e-06
1.00208e-06
9.92884e-07
9.90916e-07
9.84282e-07
9.83036e-07
9.78283e-07
9.77664e-07
9.74136e-07
9.73702e-07
0.11348
0.108221
0.103132
0.0982122
0.0934614
0.0888787
0.0844632
0.0802134
0.0761277
0.0722039
0.0684392
0.0648307
0.061375
0.0580686
0.0549079
0.0518891
0.0490084
0.0462617
0.043645
0.0411542
0.0387851
0.0365334
0.034395
0.0323655
0.0304408
0.0286167
0.026889
0.0252537
0.0237069
0.0222446
0.0208631
0.0195586
0.0183276
0.0171666
0.0160721
0.015041
0.0140701
0.0131563
0.0122967
0.0114885
0.010729
0.0100156
0.0093458
0.00871728
0.00812774
0.00757502
0.00705704
0.00657185
0.00611756
0.00569239
0.00529466
0.00492274
0.00457511
0.00425033
0.00394701
0.00366386
0.00339966
0.00315323
0.00292347
0.00270935
0.00250988
0.00232415
0.00215126
0.00199042
0.00184083
0.00170176
0.00157254
0.00145251
0.00134107
0.00123765
0.00114171
0.00105274
0.00097028
0.000893881
0.00082313
0.000757638
0.000697039
0.000640993
0.000589181
0.000541304
0.000497083
0.000456259
0.000418586
0.000383838
0.000351802
0.000322281
0.00029509
0.000270057
0.000247022
0.000225835
0.000206359
0.000188463
0.000172028
0.000156943
0.000143102
0.000130411
0.00011878
0.000108125
9.83708e-05
8.94453e-05
8.12828e-05
7.38221e-05
6.70067e-05
6.07843e-05
5.51066e-05
4.9929e-05
4.52101e-05
4.0912e-05
3.69994e-05
3.34401e-05
3.02041e-05
2.7264e-05
2.45944e-05
2.21722e-05
1.99758e-05
1.79858e-05
1.61838e-05
1.45535e-05
1.30795e-05
1.17483e-05
1.05463e-05
9.46313e-06
8.4864e-06
7.60869e-06
6.81804e-06
6.11024e-06
5.47316e-06
4.90585e-06
4.3953e-06
3.94469e-06
3.53753e-06
3.18459e-06
2.86133e-06
2.59099e-06
2.33513e-06
2.1363e-06
1.93377e-06
1.80107e-06
1.63961e-06
1.55293e-06
1.42721e-06
1.37441e-06
1.28023e-06
1.24945e-06
1.18067e-06
1.16304e-06
1.11417e-06
1.10466e-06
1.06968e-06
1.06348e-06
1.03847e-06
1.03397e-06
1.01612e-06
1.01264e-06
9.99866e-07
9.97168e-07
9.87972e-07
9.86007e-07
9.79373e-07
9.78129e-07
9.73377e-07
9.72759e-07
9.69235e-07
9.68789e-07
0.113468
0.10821
0.103121
0.0982015
0.093451
0.0888687
0.0844535
0.0802041
0.0761188
0.0721953
0.068431
0.0648229
0.0613675
0.0580614
0.054901
0.0518826
0.0490021
0.0462557
0.0436393
0.0411488
0.03878
0.0365285
0.0343903
0.0323611
0.0304366
0.0286127
0.0268852
0.0252502
0.0237035
0.0222414
0.0208601
0.0195558
0.0183249
0.017164
0.0160697
0.0150388
0.0140679
0.0131543
0.0122948
0.0114867
0.0107273
0.010014
0.00934434
0.00871591
0.00812645
0.00757381
0.00705591
0.00657079
0.00611656
0.00569146
0.00529378
0.00492192
0.00457435
0.00424961
0.00394634
0.00366324
0.00339908
0.00315268
0.00292296
0.00270888
0.00250944
0.00232373
0.00215088
0.00199006
0.00184049
0.00170145
0.00157225
0.00145224
0.00134082
0.00123742
0.00114149
0.00105254
0.000970094
0.000893709
0.00082297
0.000757489
0.000696901
0.000640865
0.000589062
0.000541193
0.000496981
0.000456164
0.000418498
0.000383756
0.000351726
0.000322211
0.000295025
0.000269996
0.000246966
0.000225783
0.000206311
0.000188419
0.000171987
0.000156904
0.000143066
0.000130378
0.000118749
0.000108096
9.83439e-05
8.94203e-05
8.12594e-05
7.38003e-05
6.69863e-05
6.07652e-05
5.50888e-05
4.99122e-05
4.51944e-05
4.08972e-05
3.69855e-05
3.34269e-05
3.01916e-05
2.72522e-05
2.45832e-05
2.21616e-05
1.99657e-05
1.79761e-05
1.61745e-05
1.45446e-05
1.30709e-05
1.174e-05
1.05383e-05
9.45545e-06
8.47896e-06
7.60146e-06
6.81101e-06
6.10339e-06
5.46647e-06
4.89931e-06
4.3889e-06
3.93841e-06
3.53137e-06
3.17852e-06
2.85536e-06
2.58509e-06
2.32931e-06
2.13055e-06
1.92809e-06
1.79546e-06
1.63403e-06
1.54741e-06
1.42172e-06
1.36896e-06
1.27481e-06
1.24407e-06
1.1753e-06
1.15769e-06
1.10883e-06
1.09935e-06
1.06437e-06
1.05818e-06
1.03318e-06
1.02869e-06
1.01083e-06
1.00737e-06
9.94589e-07
9.91895e-07
9.827e-07
9.80738e-07
9.74105e-07
9.72863e-07
9.68113e-07
9.67495e-07
9.63983e-07
9.63532e-07
0.113456
0.108198
0.10311
0.0981906
0.0934405
0.0888586
0.0844438
0.0801947
0.0761098
0.0721866
0.0684227
0.0648149
0.0613599
0.0580542
0.0548941
0.0518759
0.0489958
0.0462497
0.0436336
0.0411433
0.0387747
0.0365236
0.0343856
0.0323566
0.0304324
0.0286087
0.0268814
0.0252466
0.0237001
0.0222382
0.020857
0.0195529
0.0183222
0.0171615
0.0160673
0.0150365
0.0140658
0.0131522
0.0122929
0.0114849
0.0107256
0.0100124
0.00934286
0.00871452
0.00812515
0.00757258
0.00705476
0.00656971
0.00611556
0.00569052
0.0052929
0.0049211
0.00457357
0.00424889
0.00394567
0.00366261
0.00339849
0.00315213
0.00292245
0.0027084
0.00250899
0.00232332
0.00215049
0.0019897
0.00184016
0.00170114
0.00157196
0.00145197
0.00134057
0.00123718
0.00114127
0.00105234
0.000969905
0.000893534
0.000822807
0.000757338
0.000696761
0.000640735
0.000588941
0.000541082
0.000496877
0.000456067
0.000418408
0.000383673
0.000351649
0.00032214
0.000294959
0.000269935
0.000246909
0.000225731
0.000206262
0.000188373
0.000171945
0.000156865
0.00014303
0.000130344
0.000118717
0.000108067
9.83169e-05
8.93952e-05
8.1236e-05
7.37784e-05
6.69659e-05
6.07462e-05
5.50709e-05
4.98955e-05
4.51787e-05
4.08824e-05
3.69716e-05
3.34138e-05
3.01793e-05
2.72405e-05
2.45721e-05
2.2151e-05
1.99556e-05
1.79665e-05
1.61653e-05
1.45359e-05
1.30625e-05
1.1732e-05
1.05306e-05
9.44793e-06
8.47168e-06
7.59441e-06
6.80416e-06
6.09672e-06
5.45997e-06
4.89296e-06
4.38268e-06
3.93232e-06
3.52539e-06
3.17265e-06
2.84958e-06
2.57939e-06
2.3237e-06
2.125e-06
1.92261e-06
1.79005e-06
1.62866e-06
1.54209e-06
1.41644e-06
1.36372e-06
1.2696e-06
1.23889e-06
1.17014e-06
1.15256e-06
1.10371e-06
1.09424e-06
1.05927e-06
1.0531e-06
1.02809e-06
1.02361e-06
1.00576e-06
1.0023e-06
9.89525e-07
9.86835e-07
9.77641e-07
9.75682e-07
9.69051e-07
9.6781e-07
9.63062e-07
9.62445e-07
9.58944e-07
9.58501e-07
0.113443
0.108186
0.103098
0.0981796
0.0934299
0.0888483
0.0844339
0.0801853
0.0761007
0.0721779
0.0684143
0.0648069
0.0613522
0.0580468
0.054887
0.0518692
0.0489894
0.0462436
0.0436278
0.0411378
0.0387695
0.0365186
0.0343809
0.0323521
0.0304281
0.0286046
0.0268776
0.0252429
0.0236967
0.0222349
0.020854
0.01955
0.0183195
0.0171589
0.0160649
0.0150342
0.0140636
0.0131502
0.012291
0.0114831
0.0107239
0.0100108
0.00934136
0.00871311
0.00812383
0.00757135
0.0070536
0.00656862
0.00611454
0.00568956
0.00529201
0.00492026
0.00457279
0.00424816
0.00394498
0.00366197
0.00339789
0.00315158
0.00292193
0.00270791
0.00250854
0.0023229
0.0021501
0.00198933
0.00183982
0.00170082
0.00157166
0.0014517
0.00134032
0.00123694
0.00114105
0.00105213
0.000969715
0.000893357
0.000822643
0.000757186
0.000696619
0.000640604
0.00058882
0.000540969
0.000496773
0.000455971
0.000418319
0.00038359
0.000351572
0.000322068
0.000294893
0.000269874
0.000246852
0.000225678
0.000206213
0.000188328
0.000171903
0.000156826
0.000142994
0.000130311
0.000118686
0.000108039
9.82903e-05
8.93704e-05
8.12129e-05
7.37569e-05
6.69459e-05
6.07275e-05
5.50535e-05
4.98792e-05
4.51634e-05
4.08681e-05
3.69582e-05
3.34012e-05
3.01674e-05
2.72293e-05
2.45616e-05
2.2141e-05
1.99462e-05
1.79575e-05
1.61568e-05
1.45277e-05
1.30547e-05
1.17245e-05
1.05234e-05
9.44101e-06
8.46501e-06
7.58796e-06
6.79792e-06
6.09066e-06
5.45408e-06
4.88722e-06
4.37708e-06
3.92684e-06
3.52003e-06
3.16739e-06
2.84443e-06
2.57432e-06
2.31871e-06
2.12007e-06
1.91775e-06
1.78527e-06
1.62392e-06
1.5374e-06
1.41178e-06
1.35912e-06
1.26502e-06
1.23434e-06
1.16561e-06
1.14806e-06
1.09922e-06
1.08977e-06
1.05481e-06
1.04865e-06
1.02364e-06
1.01917e-06
1.00133e-06
9.9787e-07
9.85095e-07
9.8241e-07
9.73217e-07
9.71261e-07
9.64631e-07
9.63392e-07
9.58646e-07
9.58029e-07
9.54545e-07
9.54123e-07
0.113431
0.108174
0.103087
0.0981685
0.0934192
0.088838
0.0844239
0.0801757
0.0760914
0.072169
0.0684058
0.0647987
0.0613444
0.0580394
0.0548799
0.0518624
0.0489829
0.0462374
0.0436219
0.0411322
0.0387641
0.0365135
0.034376
0.0323475
0.0304237
0.0286005
0.0268737
0.0252392
0.0236932
0.0222317
0.0208508
0.019547
0.0183167
0.0171563
0.0160624
0.0150318
0.0140614
0.0131481
0.012289
0.0114813
0.0107222
0.0100092
0.00933984
0.00871169
0.00812249
0.00757009
0.00705242
0.00656752
0.00611351
0.0056886
0.0052911
0.00491941
0.004572
0.00424742
0.00394429
0.00366133
0.00339729
0.00315101
0.0029214
0.00270742
0.00250809
0.00232247
0.0021497
0.00198896
0.00183947
0.0017005
0.00157137
0.00145142
0.00134006
0.00123671
0.00114083
0.00105193
0.000969523
0.000893179
0.000822478
0.000757032
0.000696477
0.000640472
0.000588697
0.000540856
0.000496668
0.000455873
0.000418229
0.000383507
0.000351495
0.000321997
0.000294826
0.000269813
0.000246796
0.000225626
0.000206165
0.000188283
0.000171862
0.000156788
0.000142959
0.000130278
0.000118656
0.00010801
9.82641e-05
8.93461e-05
8.11904e-05
7.37361e-05
6.69265e-05
6.07095e-05
5.50367e-05
4.98636e-05
4.51489e-05
4.08546e-05
3.69455e-05
3.33894e-05
3.01563e-05
2.72189e-05
2.45518e-05
2.21318e-05
1.99375e-05
1.79493e-05
1.6149e-05
1.45203e-05
1.30477e-05
1.17178e-05
1.0517e-05
9.43491e-06
8.45916e-06
7.58234e-06
6.7925e-06
6.08543e-06
5.44902e-06
4.88232e-06
4.37233e-06
3.92221e-06
3.51552e-06
3.16298e-06
2.84012e-06
2.57009e-06
2.31457e-06
2.11599e-06
1.91374e-06
1.78134e-06
1.62003e-06
1.53357e-06
1.40798e-06
1.35537e-06
1.26129e-06
1.23066e-06
1.16194e-06
1.14441e-06
1.09559e-06
1.08617e-06
1.05121e-06
1.04506e-06
1.02006e-06
1.0156e-06
9.97754e-07
9.94305e-07
9.81532e-07
9.78851e-07
9.69659e-07
9.67705e-07
9.61077e-07
9.5984e-07
9.55096e-07
9.5448e-07
9.51011e-07
9.50622e-07
0.113419
0.108162
0.103075
0.0981572
0.0934083
0.0888275
0.0844139
0.080166
0.0760821
0.0721601
0.0683973
0.0647905
0.0613366
0.0580318
0.0548727
0.0518555
0.0489763
0.0462311
0.0436159
0.0411265
0.0387587
0.0365084
0.0343712
0.0323429
0.0304194
0.0285963
0.0268697
0.0252355
0.0236897
0.0222283
0.0208477
0.0195441
0.0183139
0.0171536
0.0160599
0.0150295
0.0140592
0.0131461
0.0122871
0.0114794
0.0107205
0.0100076
0.00933831
0.00871025
0.00812114
0.00756883
0.00705124
0.00656641
0.00611246
0.00568762
0.00529019
0.00491856
0.0045712
0.00424667
0.00394359
0.00366067
0.00339668
0.00315044
0.00292087
0.00270693
0.00250762
0.00232204
0.0021493
0.00198859
0.00183912
0.00170018
0.00157107
0.00145114
0.0013398
0.00123646
0.0011406
0.00105172
0.000969329
0.000892999
0.000822311
0.000756877
0.000696334
0.000640339
0.000588574
0.000540742
0.000496562
0.000455776
0.000418138
0.000383423
0.000351418
0.000321925
0.00029476
0.000269752
0.000246739
0.000225574
0.000206117
0.000188239
0.00017182
0.00015675
0.000142924
0.000130245
0.000118626
0.000107983
9.82384e-05
8.93224e-05
8.11685e-05
7.37158e-05
6.69077e-05
6.06921e-05
5.50206e-05
4.98487e-05
4.5135e-05
4.08417e-05
3.69335e-05
3.33782e-05
3.01459e-05
2.72092e-05
2.45428e-05
2.21234e-05
1.99296e-05
1.79419e-05
1.6142e-05
1.45138e-05
1.30415e-05
1.17119e-05
1.05114e-05
9.42964e-06
8.45414e-06
7.57756e-06
6.78793e-06
6.08105e-06
5.44482e-06
4.87827e-06
4.36843e-06
3.91844e-06
3.51188e-06
3.15944e-06
2.83668e-06
2.56673e-06
2.3113e-06
2.11279e-06
1.9106e-06
1.77829e-06
1.61702e-06
1.53062e-06
1.40506e-06
1.3525e-06
1.25845e-06
1.22786e-06
1.15915e-06
1.14166e-06
1.09285e-06
1.08345e-06
1.04849e-06
1.04236e-06
1.01736e-06
1.01291e-06
9.95067e-07
9.91626e-07
9.78854e-07
9.76177e-07
9.66987e-07
9.65037e-07
9.5841e-07
9.57175e-07
9.52433e-07
9.51817e-07
9.48362e-07
9.48018e-07
0.113406
0.10815
0.103063
0.0981459
0.0933973
0.088817
0.0844037
0.0801562
0.0760727
0.0721511
0.0683886
0.0647822
0.0613286
0.0580242
0.0548655
0.0518486
0.0489697
0.0462248
0.0436099
0.0411208
0.0387533
0.0365032
0.0343663
0.0323382
0.0304149
0.0285921
0.0268658
0.0252317
0.0236861
0.0222249
0.0208445
0.0195411
0.018311
0.0171509
0.0160574
0.0150271
0.014057
0.0131439
0.0122851
0.0114776
0.0107187
0.0100059
0.00933676
0.00870879
0.00811977
0.00756754
0.00705004
0.00656528
0.00611141
0.00568663
0.00528926
0.00491769
0.00457039
0.00424591
0.00394289
0.00366001
0.00339606
0.00314987
0.00292034
0.00270643
0.00250716
0.0023216
0.0021489
0.00198821
0.00183877
0.00169985
0.00157076
0.00145086
0.00133953
0.00123622
0.00114038
0.00105151
0.000969134
0.000892818
0.000822143
0.000756722
0.000696189
0.000640205
0.00058845
0.000540627
0.000496456
0.000455677
0.000418047
0.000383339
0.00035134
0.000321853
0.000294694
0.00026969
0.000246683
0.000225522
0.000206068
0.000188194
0.000171779
0.000156712
0.000142889
0.000130213
0.000118596
0.000107955
9.82133e-05
8.92992e-05
8.11471e-05
7.3696e-05
6.68895e-05
6.06753e-05
5.50051e-05
4.98344e-05
4.51218e-05
4.08295e-05
3.69222e-05
3.33678e-05
3.01363e-05
2.72002e-05
2.45344e-05
2.21156e-05
1.99224e-05
1.79352e-05
1.61358e-05
1.45079e-05
1.3036e-05
1.17068e-05
1.05067e-05
9.42513e-06
8.44989e-06
7.57354e-06
6.78413e-06
6.07745e-06
5.44139e-06
4.875e-06
4.36531e-06
3.91545e-06
3.50901e-06
3.15668e-06
2.83403e-06
2.56416e-06
2.30882e-06
2.11038e-06
1.90826e-06
1.77603e-06
1.6148e-06
1.52846e-06
1.40294e-06
1.35043e-06
1.25641e-06
1.22586e-06
1.15717e-06
1.1397e-06
1.09091e-06
1.08152e-06
1.04658e-06
1.04046e-06
1.01547e-06
1.01102e-06
9.93183e-07
9.89746e-07
9.76977e-07
9.74305e-07
9.65116e-07
9.63169e-07
9.56543e-07
9.5531e-07
9.5057e-07
9.49954e-07
9.46515e-07
9.46231e-07
0.113393
0.108138
0.103051
0.0981344
0.0933863
0.0888063
0.0843934
0.0801463
0.0760632
0.0721419
0.0683798
0.0647738
0.0613206
0.0580165
0.0548581
0.0518416
0.048963
0.0462184
0.0436038
0.041115
0.0387478
0.036498
0.0343613
0.0323335
0.0304105
0.0285879
0.0268617
0.0252279
0.0236825
0.0222215
0.0208413
0.019538
0.0183082
0.0171482
0.0160548
0.0150247
0.0140547
0.0131418
0.0122831
0.0114757
0.0107169
0.0100043
0.00933519
0.00870732
0.00811839
0.00756625
0.00704882
0.00656414
0.00611034
0.00568563
0.00528833
0.00491682
0.00456957
0.00424515
0.00394217
0.00365934
0.00339544
0.00314929
0.00291979
0.00270592
0.00250669
0.00232117
0.00214849
0.00198783
0.00183842
0.00169952
0.00157045
0.00145057
0.00133927
0.00123597
0.00114015
0.00105129
0.000968936
0.000892635
0.000821973
0.000756564
0.000696043
0.00064007
0.000588325
0.000540511
0.000496349
0.000455578
0.000417956
0.000383254
0.000351262
0.000321781
0.000294627
0.000269629
0.000246626
0.000225469
0.00020602
0.00018815
0.000171739
0.000156674
0.000142854
0.000130181
0.000118567
0.000107928
9.81884e-05
8.92763e-05
8.1126e-05
7.36767e-05
6.68717e-05
6.06589e-05
5.499e-05
4.98205e-05
4.51091e-05
4.08177e-05
3.69114e-05
3.33578e-05
3.01271e-05
2.71918e-05
2.45266e-05
2.21085e-05
1.99157e-05
1.7929e-05
1.61301e-05
1.45027e-05
1.30312e-05
1.17023e-05
1.05024e-05
9.42121e-06
8.44624e-06
7.57013e-06
6.78094e-06
6.07445e-06
5.43858e-06
4.87235e-06
4.36281e-06
3.91308e-06
3.50677e-06
3.15454e-06
2.83199e-06
2.56221e-06
2.30696e-06
2.10859e-06
1.90654e-06
1.77441e-06
1.61321e-06
1.52693e-06
1.40145e-06
1.34899e-06
1.255e-06
1.22449e-06
1.15581e-06
1.13837e-06
1.0896e-06
1.08024e-06
1.0453e-06
1.03919e-06
1.0142e-06
1.00977e-06
9.91933e-07
9.88503e-07
9.75735e-07
9.73068e-07
9.63881e-07
9.61936e-07
9.55312e-07
9.54081e-07
9.49343e-07
9.48728e-07
9.45305e-07
9.45096e-07
0.113374
0.108119
0.103033
0.098117
0.0933695
0.0887901
0.0843778
0.0801313
0.0760488
0.0721281
0.0683666
0.0647611
0.0613084
0.0580049
0.054847
0.0518309
0.0489529
0.0462088
0.0435946
0.0411062
0.0387394
0.03649
0.0343538
0.0323264
0.0304037
0.0285815
0.0268556
0.0252222
0.023677
0.0222164
0.0208364
0.0195334
0.0183038
0.0171441
0.016051
0.0150211
0.0140513
0.0131386
0.01228
0.0114728
0.0107143
0.0100017
0.00933281
0.00870509
0.0081163
0.00756428
0.00704698
0.00656242
0.00610872
0.00568412
0.00528691
0.00491549
0.00456833
0.00424399
0.00394109
0.00365833
0.00339449
0.0031484
0.00291897
0.00270515
0.00250597
0.0023205
0.00214787
0.00198725
0.00183788
0.00169902
0.00156999
0.00145014
0.00133887
0.0012356
0.0011398
0.00105097
0.000968637
0.000892357
0.000821716
0.000756326
0.000695823
0.000639866
0.000588136
0.000540336
0.000496187
0.000455429
0.000417818
0.000383127
0.000351144
0.000321672
0.000294527
0.000269536
0.000246541
0.000225391
0.000205948
0.000188083
0.000171677
0.000156618
0.000142802
0.000130133
0.000118523
0.000107888
9.81512e-05
8.92421e-05
8.10947e-05
7.36479e-05
6.68453e-05
6.06347e-05
5.49678e-05
4.98001e-05
4.50904e-05
4.08006e-05
3.68957e-05
3.33434e-05
3.01139e-05
2.71797e-05
2.45155e-05
2.20982e-05
1.99064e-05
1.79204e-05
1.61222e-05
1.44954e-05
1.30245e-05
1.16961e-05
1.04968e-05
9.41596e-06
8.4414e-06
7.56565e-06
6.77679e-06
6.0706e-06
5.43501e-06
4.86902e-06
4.35971e-06
3.91019e-06
3.50407e-06
3.152e-06
2.82962e-06
2.55997e-06
2.30485e-06
2.10659e-06
1.90463e-06
1.77266e-06
1.61151e-06
1.52533e-06
1.3999e-06
1.34752e-06
1.25357e-06
1.22313e-06
1.15448e-06
1.13708e-06
1.08833e-06
1.07901e-06
1.04408e-06
1.03799e-06
1.01301e-06
1.00859e-06
9.9076e-07
9.87339e-07
9.74575e-07
9.71914e-07
9.6273e-07
9.6079e-07
9.54169e-07
9.5294e-07
9.48205e-07
9.47591e-07
9.44192e-07
9.4412e-07
0.113348
0.108094
0.103009
0.0980933
0.0933466
0.0887681
0.0843566
0.0801109
0.0760292
0.0721093
0.0683485
0.0647438
0.0612918
0.057989
0.0548318
0.0518165
0.0489391
0.0461956
0.0435821
0.0410943
0.0387281
0.0364792
0.0343435
0.0323166
0.0303944
0.0285727
0.0268473
0.0252143
0.0236696
0.0222093
0.0208298
0.0195271
0.0182979
0.0171385
0.0160457
0.0150161
0.0140466
0.0131342
0.0122759
0.0114689
0.0107106
0.00999829
0.00932957
0.00870204
0.00811344
0.0075616
0.00704447
0.00656006
0.00610652
0.00568205
0.00528498
0.00491368
0.00456664
0.00424241
0.00393961
0.00365695
0.0033932
0.0031472
0.00291785
0.0027041
0.00250499
0.00231959
0.00214702
0.00198646
0.00183714
0.00169834
0.00156935
0.00144955
0.00133832
0.00123509
0.00113933
0.00105053
0.000968229
0.000891979
0.000821366
0.000756001
0.000695522
0.000639587
0.000587878
0.000540098
0.000495967
0.000455225
0.000417629
0.000382953
0.000350984
0.000321524
0.00029439
0.000269411
0.000246425
0.000225284
0.000205849
0.000187993
0.000171594
0.000156541
0.000142732
0.000130069
0.000118464
0.000107833
9.81013e-05
8.91964e-05
8.10527e-05
7.36094e-05
6.68101e-05
6.06025e-05
5.49383e-05
4.97731e-05
4.50657e-05
4.07781e-05
3.68751e-05
3.33246e-05
3.00967e-05
2.7164e-05
2.45012e-05
2.20852e-05
1.98945e-05
1.79096e-05
1.61123e-05
1.44864e-05
1.30163e-05
1.16887e-05
1.049e-05
9.40977e-06
8.43575e-06
7.5605e-06
6.77211e-06
6.06633e-06
5.43112e-06
4.86547e-06
4.35648e-06
3.90723e-06
3.50138e-06
3.14953e-06
2.82737e-06
2.5579e-06
2.30297e-06
2.10485e-06
1.90303e-06
1.77126e-06
1.61019e-06
1.52414e-06
1.39879e-06
1.34651e-06
1.25263e-06
1.22228e-06