/*--------------------------------*- C++ -*----------------------------------*\
| =========                 |                                                 |
| \\      /  F ield         | OpenFOAM: The Open Source CFD Toolbox           |
|  \\    /   O peration     | Version:  v1912                                 |
|   \\  /    A nd           | Website:  www.openfoam.com                      |
|    \\/     M anipulation  |                                                 |
\*---------------------------------------------------------------------------*/
FoamFile
{
    version     2.0;
    format      ascii;
    class       surfaceScalarField;
    location    "80";
    object      phi;
}
// * * * * * * * * * * * * * * * * * * * * * * * * * * * * * * * * * * * * * //

dimensions      [0 3 -1 0 0 0 0];
oriented        oriented;


internalField   nonuniform List<scalar> 
28285
(
0.000159994
8.19879e-06
0.000152133
7.86135e-06
0.000144598
7.53485e-06
0.000137379
7.21934e-06
0.000130465
6.91429e-06
0.000123846
6.61894e-06
0.000117513
6.33266e-06
0.000111458
6.0552e-06
0.000105671
5.78657e-06
0.000100144
5.52683e-06
9.48684e-05
5.27603e-06
8.98343e-05
5.03414e-06
8.50332e-05
4.80102e-06
8.04568e-05
4.57645e-06
7.60966e-05
4.36018e-06
7.19446e-05
4.15204e-06
6.79927e-05
3.95184e-06
6.42333e-05
3.75941e-06
6.06587e-05
3.57457e-06
5.72616e-05
3.39714e-06
5.40347e-05
3.22695e-06
5.09708e-05
3.06382e-06
4.80632e-05
2.9076e-06
4.53052e-05
2.75809e-06
4.26901e-05
2.6151e-06
4.02116e-05
2.47845e-06
3.78637e-05
2.34793e-06
3.56403e-05
2.22334e-06
3.35358e-05
2.10449e-06
3.15447e-05
1.99117e-06
2.96615e-05
1.88319e-06
2.78811e-05
1.78035e-06
2.61987e-05
1.68246e-06
2.46094e-05
1.58932e-06
2.31086e-05
1.50077e-06
2.1692e-05
1.4166e-06
2.03554e-05
1.33664e-06
1.90946e-05
1.26073e-06
1.79059e-05
1.18868e-06
1.67856e-05
1.12033e-06
1.57301e-05
1.05553e-06
1.4736e-05
9.9412e-07
1.38e-05
9.35941e-07
1.29192e-05
8.80851e-07
1.20905e-05
8.28708e-07
1.13111e-05
7.79375e-07
1.05784e-05
7.32719e-07
9.88975e-06
6.88613e-07
9.24282e-06
6.46934e-07
8.63526e-06
6.07564e-07
8.06487e-06
5.70389e-07
7.52957e-06
5.35301e-07
7.02737e-06
5.02195e-07
6.5564e-06
4.70971e-07
6.11487e-06
4.41532e-07
5.70108e-06
4.13788e-07
5.31343e-06
3.8765e-07
4.9504e-06
3.63034e-07
4.61054e-06
3.3986e-07
4.29248e-06
3.18052e-07
3.99495e-06
2.97537e-07
3.7167e-06
2.78244e-07
3.45659e-06
2.60109e-07
3.21353e-06
2.43067e-07
2.98647e-06
2.27059e-07
2.77444e-06
2.12028e-07
2.57652e-06
1.97918e-07
2.39184e-06
1.84678e-07
2.21958e-06
1.7226e-07
2.05897e-06
1.60616e-07
1.90926e-06
1.49703e-07
1.76978e-06
1.39478e-07
1.63988e-06
1.29901e-07
1.51895e-06
1.20935e-07
1.4064e-06
1.12544e-07
1.30171e-06
1.04694e-07
1.20436e-06
9.73524e-08
1.11387e-06
9.04896e-08
1.02979e-06
8.40767e-08
9.51706e-07
7.80865e-08
8.79213e-07
7.24932e-08
8.1194e-07
6.72726e-08
7.49538e-07
6.24019e-08
6.91679e-07
5.78594e-08
6.38054e-07
5.36247e-08
5.88375e-07
4.96785e-08
5.42373e-07
4.60028e-08
4.99792e-07
4.25803e-08
4.60397e-07
3.93949e-08
4.23966e-07
3.64316e-08
3.9029e-07
3.36759e-08
3.59176e-07
3.11144e-08
3.30441e-07
2.87346e-08
3.03917e-07
2.65244e-08
2.79444e-07
2.44728e-08
2.56875e-07
2.25691e-08
2.36071e-07
2.08036e-08
2.16904e-07
1.91669e-08
1.99254e-07
1.76504e-08
1.83008e-07
1.6246e-08
1.68062e-07
1.49459e-08
1.54319e-07
1.37431e-08
1.41688e-07
1.26308e-08
1.30085e-07
1.16027e-08
1.19432e-07
1.0653e-08
1.09656e-07
9.77622e-09
1.00689e-07
8.96714e-09
9.24678e-08
8.22101e-09
8.49344e-08
7.53335e-09
7.80345e-08
6.89997e-09
7.17175e-08
6.317e-09
6.59367e-08
5.78076e-09
6.06488e-08
5.28796e-09
5.58134e-08
4.83533e-09
5.13933e-08
4.42016e-09
4.73539e-08
4.03941e-09
4.36628e-08
3.69107e-09
4.02907e-08
3.37207e-09
3.72094e-08
3.08136e-09
3.4394e-08
2.81534e-09
3.18195e-08
2.57455e-09
2.94657e-08
2.35381e-09
2.7309e-08
2.15665e-09
2.53348e-08
1.97424e-09
2.3519e-08
1.81575e-09
2.18529e-08
1.66613e-09
2.03115e-08
1.54138e-09
1.8893e-08
1.41849e-09
1.75676e-08
1.32536e-09
1.63466e-08
1.22103e-09
1.51872e-08
1.15936e-09
1.41243e-08
1.06294e-09
1.30912e-08
1.03308e-09
1.21616e-08
9.29617e-10
1.12289e-08
9.32669e-10
1.04289e-08
7.99997e-10
9.59107e-09
8.3787e-10
8.93977e-09
6.51297e-10
8.23713e-09
7.02643e-10
7.76179e-09
4.75344e-10
7.25314e-09
5.08647e-10
6.98328e-09
2.69857e-10
6.70572e-09
2.77558e-10
6.61939e-09
8.63302e-11
6.53739e-09
8.20082e-11
6.63589e-09
-9.84996e-11
6.735e-09
-9.91114e-11
6.912e-09
-1.76998e-10
7.07328e-09
-1.61286e-10
7.27641e-09
-2.03125e-10
7.45527e-09
-1.78862e-10
7.65409e-09
-1.9882e-10
7.82489e-09
-1.70799e-10
8.00422e-09
-1.79335e-10
8.15632e-09
-1.52099e-10
8.31189e-09
-1.55571e-10
8.44538e-09
-1.3349e-10
8.58054e-09
-1.35153e-10
8.70738e-09
-1.26845e-10
8.83566e-09
-1.28281e-10
9.03076e-09
-1.95104e-10
9.23411e-09
-2.03348e-10
1.20249e-08
-2.79082e-09
-2.78147e-09
0.000159783
1.6389e-05
0.00015193
1.57143e-05
0.000144403
1.50615e-05
0.000137192
1.44306e-05
0.000130286
1.38207e-05
0.000123674
1.32302e-05
0.000117349
1.26578e-05
0.000111301
1.21031e-05
0.000105522
1.15661e-05
0.000100002
1.10468e-05
9.47323e-05
1.05455e-05
8.97045e-05
1.00619e-05
8.49097e-05
9.59586e-06
8.03392e-05
9.14693e-06
7.59848e-05
8.71462e-06
7.18383e-05
8.29855e-06
6.78917e-05
7.89836e-06
6.41374e-05
7.51371e-06
6.05678e-05
7.14424e-06
5.71753e-05
6.78958e-06
5.39529e-05
6.44938e-06
5.08934e-05
6.12333e-06
4.79899e-05
5.81107e-06
4.52358e-05
5.51223e-06
4.26244e-05
5.22644e-06
4.01496e-05
4.95331e-06
3.78051e-05
4.69244e-06
3.5585e-05
4.44343e-06
3.34836e-05
4.20588e-06
3.14954e-05
3.97939e-06
2.9615e-05
3.76357e-06
2.78373e-05
3.55803e-06
2.61574e-05
3.36239e-06
2.45705e-05
3.17625e-06
2.3072e-05
2.99926e-06
2.16575e-05
2.83104e-06
2.03229e-05
2.67124e-06
1.90641e-05
2.51952e-06
1.78773e-05
2.37553e-06
1.67587e-05
2.23894e-06
1.57048e-05
2.10943e-06
1.47122e-05
1.9867e-06
1.37777e-05
1.87042e-06
1.28982e-05
1.76033e-06
1.20708e-05
1.65612e-06
1.12927e-05
1.55753e-06
1.05611e-05
1.46428e-06
9.87357e-06
1.37614e-06
9.22766e-06
1.29285e-06
8.62106e-06
1.21417e-06
8.05157e-06
1.13987e-06
7.51712e-06
1.06975e-06
7.01573e-06
1.00359e-06
6.54551e-06
9.4119e-07
6.10468e-06
8.82359e-07
5.69156e-06
8.26913e-07
5.30453e-06
7.74677e-07
4.94208e-06
7.25484e-07
4.60277e-06
6.79173e-07
4.28523e-06
6.35591e-07
3.98817e-06
5.94593e-07
3.71038e-06
5.56039e-07
3.45069e-06
5.19797e-07
3.20801e-06
4.85741e-07
2.98132e-06
4.5375e-07
2.76964e-06
4.2371e-07
2.57205e-06
3.95513e-07
2.38767e-06
3.69056e-07
2.21569e-06
3.44239e-07
2.05534e-06
3.2097e-07
1.90588e-06
2.99161e-07
1.76663e-06
2.78727e-07
1.63694e-06
2.59589e-07
1.5162e-06
2.41671e-07
1.40385e-06
2.24903e-07
1.29932e-06
2.09215e-07
1.20213e-06
1.94544e-07
1.11179e-06
1.8083e-07
1.02785e-06
1.68014e-07
9.49897e-07
1.56044e-07
8.77524e-07
1.44866e-07
8.10363e-07
1.34434e-07
7.48065e-07
1.247e-07
6.90301e-07
1.15623e-07
6.36766e-07
1.0716e-07
5.8717e-07
9.92742e-08
5.41244e-07
9.19287e-08
4.98735e-07
8.50893e-08
4.59406e-07
7.87239e-08
4.23036e-07
7.28021e-08
3.89416e-07
6.72953e-08
3.58354e-07
6.21767e-08
3.29668e-07
5.74209e-08
3.03188e-07
5.30042e-08
2.78757e-07
4.89043e-08
2.56226e-07
4.51001e-08
2.35457e-07
4.1572e-08
2.16323e-07
3.83014e-08
1.98702e-07
3.5271e-08
1.82484e-07
3.24644e-08
1.67563e-07
2.98665e-08
1.53843e-07
2.74628e-08
1.41234e-07
2.52401e-08
1.29651e-07
2.31857e-08
1.19016e-07
2.12879e-08
1.09257e-07
1.95357e-08
1.00305e-07
1.7919e-08
9.20979e-08
1.64279e-08
8.45775e-08
1.50538e-08
7.76893e-08
1.37881e-08
7.13832e-08
1.26232e-08
6.56123e-08
1.15516e-08
6.03334e-08
1.05668e-08
5.55064e-08
9.66236e-09
5.10939e-08
8.83272e-09
4.70614e-08
8.07189e-09
4.33766e-08
7.37579e-09
4.00103e-08
6.73838e-09
3.69343e-08
6.15744e-09
3.41237e-08
5.62593e-09
3.15535e-08
5.14469e-09
2.92036e-08
4.70373e-09
2.70507e-08
4.3096e-09
2.50795e-08
3.94539e-09
2.3267e-08
3.6283e-09
2.16031e-08
3.33005e-09
2.00647e-08
3.0798e-09
1.86478e-08
2.83534e-09
1.73251e-08
2.64808e-09
1.61052e-08
2.44088e-09
1.49482e-08
2.31638e-09
1.38861e-08
2.12508e-09
1.28551e-08
2.06402e-09
1.1926e-08
1.85872e-09
1.09954e-08
1.86335e-09
1.01956e-08
1.59973e-09
9.35969e-09
1.6738e-09
8.7085e-09
1.30249e-09
8.00776e-09
1.40338e-09
7.53245e-09
9.50653e-10
7.02564e-09
1.01547e-09
6.75573e-09
5.39758e-10
6.47979e-09
5.53497e-10
6.39329e-09
1.72836e-10
6.31272e-09
1.62579e-10
6.41096e-09
-1.9674e-10
6.51111e-09
-1.99264e-10
6.68759e-09
-3.53482e-10
6.84967e-09
-3.23357e-10
7.05222e-09
-4.05681e-10
7.2317e-09
-3.58343e-10
7.42995e-09
-3.97063e-10
7.60125e-09
-3.42107e-10
7.78004e-09
-3.58117e-10
7.93257e-09
-3.04639e-10
8.08764e-09
-3.10632e-10
8.22153e-09
-2.67381e-10
8.35623e-09
-2.69854e-10
8.48346e-09
-2.54081e-10
8.61146e-09
-2.56273e-10
8.80682e-09
-3.90471e-10
9.01412e-09
-4.10646e-10
1.17866e-08
-5.56327e-09
-5.54055e-09
0.000159639
2.4572e-05
0.000151793
2.35603e-05
0.000144273
2.25814e-05
0.000137068
2.16355e-05
0.000130168
2.0721e-05
0.000123562
1.98356e-05
0.000117243
1.89774e-05
0.0001112
1.81457e-05
0.000105426
1.73405e-05
9.99109e-05
1.65619e-05
9.46462e-05
1.58102e-05
8.9623e-05
1.50851e-05
8.48324e-05
1.43864e-05
8.0266e-05
1.37133e-05
7.59155e-05
1.30652e-05
7.17727e-05
1.24413e-05
6.78297e-05
1.18413e-05
6.40787e-05
1.12646e-05
6.05123e-05
1.07107e-05
5.71229e-05
1.0179e-05
5.39034e-05
9.66893e-06
5.08466e-05
9.18009e-06
4.79457e-05
8.71192e-06
4.51941e-05
8.2639e-06
4.25851e-05
7.83543e-06
4.01125e-05
7.42594e-06
3.77701e-05
7.03483e-06
3.5552e-05
6.66151e-06
3.34525e-05
6.30537e-06
3.14661e-05
5.96582e-06
2.95874e-05
5.64226e-06
2.78113e-05
5.33411e-06
2.61329e-05
5.04079e-06
2.45474e-05
4.76174e-06
2.30503e-05
4.49639e-06
2.16371e-05
4.2442e-06
2.03037e-05
4.00463e-06
1.90461e-05
3.77717e-06
1.78603e-05
3.5613e-06
1.67427e-05
3.35653e-06
1.56898e-05
3.16237e-06
1.46981e-05
2.97837e-06
1.37645e-05
2.80406e-06
1.28858e-05
2.639e-06
1.20591e-05
2.48277e-06
1.12817e-05
2.33497e-06
1.05508e-05
2.19518e-06
9.86391e-06
2.06304e-06
9.21859e-06
1.93816e-06
8.61255e-06
1.82021e-06
8.04359e-06
1.70883e-06
7.50963e-06
1.60371e-06
7.00869e-06
1.50452e-06
6.53891e-06
1.41098e-06
6.09849e-06
1.32278e-06
5.68575e-06
1.23966e-06
5.29908e-06
1.16135e-06
4.93696e-06
1.0876e-06
4.59797e-06
1.01817e-06
4.28072e-06
9.52835e-07
3.98394e-06
8.91372e-07
3.70641e-06
8.33574e-07
3.44696e-06
7.79242e-07
3.20452e-06
7.28187e-07
2.97804e-06
6.80228e-07
2.76655e-06
6.35194e-07
2.56914e-06
5.92923e-07
2.38494e-06
5.53259e-07
2.21312e-06
5.16056e-07
2.05292e-06
4.81173e-07
1.9036e-06
4.48478e-07
1.76449e-06
4.17845e-07
1.63492e-06
3.89154e-07
1.5143e-06
3.62293e-07
1.40205e-06
3.37154e-07
1.29763e-06
3.13636e-07
1.20053e-06
2.91643e-07
1.11027e-06
2.71084e-07
1.02642e-06
2.51872e-07
9.48535e-07
2.33926e-07
8.76232e-07
2.1717e-07
8.09135e-07
2.0153e-07
7.46897e-07
1.86938e-07
6.8919e-07
1.7333e-07
6.35706e-07
1.60644e-07
5.86159e-07
1.48822e-07
5.40277e-07
1.3781e-07
4.9781e-07
1.27557e-07
4.58519e-07
1.18015e-07
4.22184e-07
1.09137e-07
3.88597e-07
1.00882e-07
3.57566e-07
9.32084e-08
3.28908e-07
8.6079e-08
3.02454e-07
7.94579e-08
2.78047e-07
7.33117e-08
2.55538e-07
6.76089e-08
2.3479e-07
6.23198e-08
2.15675e-07
5.74169e-08
1.98072e-07
5.2874e-08
1.81869e-07
4.86667e-08
1.66964e-07
4.47721e-08
1.53258e-07
4.11688e-08
1.40661e-07
3.78367e-08
1.2909e-07
3.4757e-08
1.18466e-07
3.1912e-08
1.08716e-07
2.92854e-08
9.97731e-08
2.68617e-08
9.15745e-08
2.46266e-08
8.40617e-08
2.25666e-08
7.71806e-08
2.06692e-08
7.08808e-08
1.89229e-08
6.51159e-08
1.73165e-08
5.98424e-08
1.58403e-08
5.50203e-08
1.44844e-08
5.06123e-08
1.32408e-08
4.65839e-08
1.21002e-08
4.2903e-08
1.10567e-08
3.95401e-08
1.01012e-08
3.64672e-08
9.23036e-09
3.36595e-08
8.43365e-09
3.1092e-08
7.7122e-09
2.87444e-08
7.05128e-09
2.65937e-08
6.46035e-09
2.46244e-08
5.91462e-09
2.28137e-08
5.43901e-09
2.11514e-08
4.99241e-09
1.96145e-08
4.61666e-09
1.81989e-08
4.25098e-09
1.68775e-08
3.96944e-09
1.56585e-08
3.65984e-09
1.45028e-08
3.47213e-09
1.34412e-08
3.18663e-09
1.24115e-08
3.09373e-09
1.14827e-08
2.78757e-09
1.05533e-08
2.7927e-09
9.75356e-09
2.39951e-09
8.91916e-09
2.5082e-09
8.26766e-09
1.95399e-09
7.56866e-09
2.10238e-09
7.09291e-09
1.4264e-09
6.58792e-09
1.52046e-09
6.3175e-09
8.10183e-10
6.04329e-09
8.27703e-10
5.95618e-09
2.59949e-10
5.87715e-09
2.41604e-10
5.9748e-09
-2.94391e-10
6.07609e-09
-3.00556e-10
6.25186e-09
-5.29247e-10
6.41474e-09
-4.86242e-10
6.61663e-09
-6.07569e-10
6.79669e-09
-5.38403e-10
6.99435e-09
-5.94723e-10
7.16607e-09
-5.13821e-10
7.34436e-09
-5.36413e-10
7.49719e-09
-4.57468e-10
7.65186e-09
-4.65301e-10
7.78597e-09
-4.01491e-10
7.92037e-09
-4.04257e-10
8.0478e-09
-3.81503e-10
8.17567e-09
-3.84148e-10
8.37094e-09
-5.8574e-10
8.58153e-09
-6.21234e-10
1.13058e-08
-8.28754e-09
-8.25005e-09
0.000159542
3.27497e-05
0.000151701
3.14012e-05
0.000144186
3.00966e-05
0.000136986
2.88359e-05
0.00013009
2.7617e-05
0.000123489
2.64369e-05
0.000117173
2.52931e-05
0.000111134
2.41845e-05
0.000105363
2.31113e-05
9.98515e-05
2.20736e-05
9.459e-05
2.10717e-05
8.95698e-05
2.01054e-05
8.47821e-05
1.91741e-05
8.02184e-05
1.8277e-05
7.58705e-05
1.74131e-05
7.17301e-05
1.65817e-05
6.77895e-05
1.5782e-05
6.40408e-05
1.50134e-05
6.04764e-05
1.42751e-05
5.7089e-05
1.35664e-05
5.38713e-05
1.28866e-05
5.08164e-05
1.22351e-05
4.79172e-05
1.16111e-05
4.51671e-05
1.1014e-05
4.25597e-05
1.04429e-05
4.00885e-05
9.89714e-06
3.77474e-05
9.37587e-06
3.55306e-05
8.87831e-06
3.34324e-05
8.40365e-06
3.14471e-05
7.9511e-06
2.95695e-05
7.51986e-06
2.77944e-05
7.10916e-06
2.6117e-05
6.71823e-06
2.45324e-05
6.34631e-06
2.30361e-05
5.99266e-06
2.16238e-05
5.65655e-06
2.02912e-05
5.33726e-06
1.90342e-05
5.0341e-06
1.78492e-05
4.74639e-06
1.67322e-05
4.47347e-06
1.56799e-05
4.21471e-06
1.46888e-05
3.96947e-06
1.37557e-05
3.73715e-06
1.28775e-05
3.51716e-06
1.20514e-05
3.30895e-06
1.12744e-05
3.11195e-06
1.05439e-05
2.92565e-06
9.85739e-06
2.74953e-06
9.21245e-06
2.58311e-06
8.60676e-06
2.4259e-06
8.03813e-06
2.27746e-06
7.50449e-06
2.13736e-06
7.00385e-06
2.00516e-06
6.53434e-06
1.88048e-06
6.09418e-06
1.76294e-06
5.68168e-06
1.65216e-06
5.29524e-06
1.54779e-06
4.93334e-06
1.4495e-06
4.59454e-06
1.35697e-06
4.27748e-06
1.26989e-06
3.98088e-06
1.18798e-06
3.70351e-06
1.11094e-06
3.44422e-06
1.03853e-06
3.20192e-06
9.70488e-07
2.97557e-06
9.0657e-07
2.76422e-06
8.46552e-07
2.56693e-06
7.90214e-07
2.38283e-06
7.37352e-07
2.21112e-06
6.87769e-07
2.05101e-06
6.41278e-07
1.90179e-06
5.97704e-07
1.76276e-06
5.56877e-07
1.63327e-06
5.1864e-07
1.51272e-06
4.82841e-07
1.40054e-06
4.49337e-07
1.29618e-06
4.17994e-07
1.19914e-06
3.88682e-07
1.10894e-06
3.61282e-07
1.02514e-06
3.35677e-07
9.47305e-07
3.1176e-07
8.75047e-07
2.89428e-07
8.07992e-07
2.68584e-07
7.45793e-07
2.49138e-07
6.88122e-07
2.31001e-07
6.34672e-07
2.14094e-07
5.85156e-07
1.98338e-07
5.39304e-07
1.83662e-07
4.96863e-07
1.69998e-07
4.57597e-07
1.5728e-07
4.21286e-07
1.45449e-07
3.87721e-07
1.34447e-07
3.56709e-07
1.2422e-07
3.28069e-07
1.14719e-07
3.01633e-07
1.05894e-07
2.77241e-07
9.77033e-08
2.54747e-07
9.0103e-08
2.34013e-07
8.30541e-08
2.1491e-07
7.65199e-08
1.97318e-07
7.04654e-08
1.81127e-07
6.48583e-08
1.66231e-07
5.96679e-08
1.52534e-07
5.48657e-08
1.39946e-07
5.0425e-08
1.28382e-07
4.63206e-08
1.17765e-07
4.25291e-08
1.08022e-07
3.90285e-08
9.90853e-08
3.57984e-08
9.08922e-08
3.28196e-08
8.33845e-08
3.00743e-08
7.6508e-08
2.75457e-08
7.02126e-08
2.52183e-08
6.44516e-08
2.30775e-08
5.91817e-08
2.11102e-08
5.43629e-08
1.93032e-08
4.99579e-08
1.76458e-08
4.59324e-08
1.61258e-08
4.2254e-08
1.47351e-08
3.88934e-08
1.34618e-08
3.58226e-08
1.23012e-08
3.30168e-08
1.12395e-08
3.04511e-08
1.02779e-08
2.81051e-08
9.39727e-09
2.59558e-08
8.60961e-09
2.39879e-08
7.88259e-09
2.21784e-08
7.24844e-09
2.0517e-08
6.65378e-09
1.89813e-08
6.15242e-09
1.75664e-08
5.66589e-09
1.6246e-08
5.28978e-09
1.50275e-08
4.87835e-09
1.38728e-08
4.62686e-09
1.28114e-08
4.24806e-09
1.17828e-08
4.1223e-09
1.08537e-08
3.71662e-09
9.92576e-09
3.72069e-09
9.1254e-09
3.19987e-09
8.29271e-09
3.34088e-09
7.64029e-09
2.60641e-09
6.94336e-09
2.79931e-09
6.46648e-09
1.90328e-09
5.96376e-09
2.02319e-09
5.69212e-09
1.08182e-09
5.42016e-09
1.09967e-09
5.33178e-09
3.48323e-10
5.25478e-09
3.18604e-10
5.3513e-09
-3.90904e-10
5.45418e-09
-4.03444e-10
5.62878e-09
-7.03845e-10
5.79285e-09
-6.50312e-10
5.99372e-09
-8.08433e-10
6.17465e-09
-7.19337e-10
6.37145e-09
-7.91522e-10
6.5438e-09
-6.86173e-10
6.72139e-09
-7.14008e-10
6.87469e-09
-6.10765e-10
7.02881e-09
-6.19414e-10
7.16327e-09
-5.35958e-10
7.29725e-09
-5.38232e-10
7.42497e-09
-5.09221e-10
7.55261e-09
-5.11795e-10
7.74774e-09
-7.80868e-10
7.96069e-09
-8.34184e-10
1.05963e-08
-1.09231e-08
-1.08707e-08
0.000159472
4.09234e-05
0.000151635
3.92384e-05
0.000144123
3.76082e-05
0.000136926
3.60329e-05
0.000130033
3.45098e-05
0.000123435
3.30352e-05
0.000117122
3.16059e-05
0.000111086
3.02206e-05
0.000105318
2.88796e-05
9.98087e-05
2.75829e-05
9.45495e-05
2.63309e-05
8.95315e-05
2.51234e-05
8.47458e-05
2.39597e-05
8.01841e-05
2.28387e-05
7.5838e-05
2.17592e-05
7.16994e-05
2.07203e-05
6.77605e-05
1.9721e-05
6.40133e-05
1.87605e-05
6.04504e-05
1.78379e-05
5.70644e-05
1.69524e-05
5.38481e-05
1.61029e-05
5.07944e-05
1.52888e-05
4.78964e-05
1.45091e-05
4.51475e-05
1.37629e-05
4.25411e-05
1.30493e-05
4.00709e-05
1.23673e-05
3.77309e-05
1.17159e-05
3.5515e-05
1.10942e-05
3.34176e-05
1.05011e-05
3.14331e-05
9.93556e-06
2.95563e-05
9.39669e-06
2.77819e-05
8.88349e-06
2.61052e-05
8.39499e-06
2.45213e-05
7.93024e-06
2.30256e-05
7.48832e-06
2.16138e-05
7.06831e-06
2.02818e-05
6.66933e-06
1.90254e-05
6.2905e-06
1.78408e-05
5.93099e-06
1.67243e-05
5.58995e-06
1.56724e-05
5.2666e-06
1.46817e-05
4.96015e-06
1.3749e-05
4.66985e-06
1.28712e-05
4.39496e-06
1.20454e-05
4.13478e-06
1.12687e-05
3.88862e-06
1.05385e-05
3.65582e-06
9.85232e-06
3.43574e-06
9.20765e-06
3.22778e-06
8.60221e-06
3.03134e-06
8.03382e-06
2.84585e-06
7.5004e-06
2.67078e-06
6.99997e-06
2.50559e-06
6.53066e-06
2.3498e-06
6.09069e-06
2.20291e-06
5.67837e-06
2.06448e-06
5.29209e-06
1.93406e-06
4.93035e-06
1.81124e-06
4.59169e-06
1.69562e-06
4.27478e-06
1.58681e-06
3.9783e-06
1.48445e-06
3.70105e-06
1.38819e-06
3.44187e-06
1.29771e-06
3.19968e-06
1.21268e-06
2.97343e-06
1.13281e-06
2.76217e-06
1.05782e-06
2.56497e-06
9.87419e-07
2.38095e-06
9.21363e-07
2.20932e-06
8.59406e-07
2.04928e-06
8.01313e-07
1.90012e-06
7.46863e-07
1.76115e-06
6.95848e-07
1.63173e-06
6.48068e-07
1.51123e-06
6.03334e-07
1.3991e-06
5.6147e-07
1.29479e-06
5.22304e-07
1.1978e-06
4.85677e-07
1.10764e-06
4.51438e-07
1.02387e-06
4.19444e-07
9.46074e-07
3.89558e-07
8.73849e-07
3.61653e-07
8.06825e-07
3.35608e-07
7.44655e-07
3.11308e-07
6.87011e-07
2.88645e-07
6.33586e-07
2.67518e-07
5.84093e-07
2.47831e-07
5.38263e-07
2.29493e-07
4.95842e-07
2.12418e-07
4.56595e-07
1.96527e-07
4.20301e-07
1.81743e-07
3.86752e-07
1.67996e-07
3.55755e-07
1.55217e-07
3.27129e-07
1.43344e-07
3.00706e-07
1.32318e-07
2.76326e-07
1.22083e-07
2.53843e-07
1.12586e-07
2.33119e-07
1.03778e-07
2.14025e-07
9.56134e-08
1.96443e-07
8.80482e-08
1.80259e-07
8.10418e-08
1.65371e-07
7.45563e-08
1.51681e-07
6.85558e-08
1.39099e-07
6.30069e-08
1.27541e-07
5.78783e-08
1.16929e-07
5.31407e-08
1.07191e-07
4.87667e-08
9.82592e-08
4.47306e-08
9.00703e-08
4.10085e-08
8.25665e-08
3.75781e-08
7.56936e-08
3.44186e-08
6.94015e-08
3.15105e-08
6.36435e-08
2.88355e-08
5.83764e-08
2.63773e-08
5.35602e-08
2.41195e-08
4.91575e-08
2.20484e-08
4.5134e-08
2.01493e-08
4.14576e-08
1.84116e-08
3.80988e-08
1.68206e-08
3.50296e-08
1.53703e-08
3.22253e-08
1.40438e-08
2.96609e-08
1.28423e-08
2.73161e-08
1.17421e-08
2.5168e-08
1.07577e-08
2.3201e-08
9.84962e-09
2.13926e-08
9.05686e-09
1.97319e-08
8.31443e-09
1.81971e-08
7.68728e-09
1.67826e-08
7.08033e-09
1.54632e-08
6.60924e-09
1.42449e-08
6.09669e-09
1.30911e-08
5.78063e-09
1.20295e-08
5.30964e-09
1.10021e-08
5.14971e-09
1.00725e-08
4.64621e-09
9.14601e-09
4.64718e-09
8.34464e-09
4.00123e-09
7.51394e-09
4.17159e-09
6.86006e-09
3.26028e-09
6.1656e-09
3.49378e-09
5.68697e-09
2.3819e-09
5.18702e-09
2.52314e-09
4.91354e-09
1.35529e-09
4.64437e-09
1.36884e-09
4.5541e-09
4.38589e-10
4.47966e-09
3.93049e-10
4.57451e-09
-4.85754e-10
4.67948e-09
-5.08415e-10
4.85248e-09
-8.76844e-10
5.01813e-09
-8.15963e-10
5.21763e-09
-1.00793e-09
5.39975e-09
-9.01456e-10
5.59542e-09
-9.87193e-10
5.76865e-09
-8.59403e-10
5.94534e-09
-8.90698e-10
6.09929e-09
-7.64718e-10
6.25269e-09
-7.72811e-10
6.38766e-09
-6.7093e-10
6.52108e-09
-6.71654e-10
6.64922e-09
-6.37356e-10
6.77653e-09
-6.39109e-10
6.97147e-09
-9.75804e-10
7.18584e-09
-1.04856e-09
9.67865e-09
-1.34159e-08
-1.33487e-08
0.000159417
4.9094e-05
0.000151583
4.70727e-05
0.000144074
4.51171e-05
0.00013688
4.32273e-05
0.000129989
4.14001e-05
0.000123393
3.96311e-05
0.000117083
3.79165e-05
0.000111049
3.62547e-05
0.000105282
3.46459e-05
9.97749e-05
3.30903e-05
9.45174e-05
3.15884e-05
8.95011e-05
3.01398e-05
8.4717e-05
2.87438e-05
8.01568e-05
2.73989e-05
7.58121e-05
2.61039e-05
7.16749e-05
2.48575e-05
6.77372e-05
2.36587e-05
6.39913e-05
2.25064e-05
6.04295e-05
2.13997e-05
5.70446e-05
2.03373e-05
5.38294e-05
1.93182e-05
5.07766e-05
1.83415e-05
4.78796e-05
1.74061e-05
4.51316e-05
1.65109e-05
4.2526e-05
1.56549e-05
4.00566e-05
1.48367e-05
3.77173e-05
1.40553e-05
3.55021e-05
1.33094e-05
3.34054e-05
1.25978e-05
3.14216e-05
1.19194e-05
2.95453e-05
1.12729e-05
2.77716e-05
1.06572e-05
2.60954e-05
1.00712e-05
2.4512e-05
9.51365e-06
2.30168e-05
8.98348e-06
2.16055e-05
8.47961e-06
2.02739e-05
8.00096e-06
1.90179e-05
7.5465e-06
1.78337e-05
7.11519e-06
1.67176e-05
6.70607e-06
1.5666e-05
6.31815e-06
1.46757e-05
5.95051e-06
1.37433e-05
5.60224e-06
1.28658e-05
5.27247e-06
1.20402e-05
4.96033e-06
1.12638e-05
4.66502e-06
1.05339e-05
4.38574e-06
9.8479e-06
4.12172e-06
9.20345e-06
3.87223e-06
8.59822e-06
3.63657e-06
8.03003e-06
3.41405e-06
7.49679e-06
3.20401e-06
6.99653e-06
3.00585e-06
6.52739e-06
2.81894e-06
6.08757e-06
2.64273e-06
5.67539e-06
2.47666e-06
5.28924e-06
2.3202e-06
4.92763e-06
2.17286e-06
4.58909e-06
2.03415e-06
4.27229e-06
1.90362e-06
3.97592e-06
1.78082e-06
3.69877e-06
1.66535e-06
3.43968e-06
1.5568e-06
3.19757e-06
1.45479e-06
2.97141e-06
1.35898e-06
2.76022e-06
1.269e-06
2.56309e-06
1.18455e-06
2.37915e-06
1.10531e-06
2.20757e-06
1.03098e-06
2.0476e-06
9.61288e-07
1.89849e-06
8.95967e-07
1.75957e-06
8.34767e-07
1.63019e-06
7.77447e-07
1.50975e-06
7.23783e-07
1.39766e-06
6.7356e-07
1.29339e-06
6.26574e-07
1.19643e-06
5.82636e-07
1.10631e-06
5.41561e-07
1.02257e-06
5.03179e-07
9.44802e-07
4.67326e-07
8.72605e-07
4.3385e-07
8.05608e-07
4.02605e-07
7.43462e-07
3.73454e-07
6.8584e-07
3.46267e-07
6.32437e-07
3.20922e-07
5.82963e-07
2.97305e-07
5.37151e-07
2.75305e-07
4.94747e-07
2.54822e-07
4.55516e-07
2.35758e-07
4.19236e-07
2.18023e-07
3.85701e-07
2.01531e-07
3.54717e-07
1.86201e-07
3.26103e-07
1.71958e-07
2.9969e-07
1.58731e-07
2.7532e-07
1.46453e-07
2.52847e-07
1.3506e-07
2.32131e-07
1.24494e-07
2.13046e-07
1.14699e-07
1.9547e-07
1.05623e-07
1.79294e-07
9.72185e-08
1.64412e-07
8.94383e-08
1.50728e-07
8.22399e-08
1.38151e-07
7.55834e-08
1.26598e-07
6.9431e-08
1.15991e-07
6.37477e-08
1.06257e-07
5.85006e-08
9.73292e-08
5.36588e-08
8.91439e-08
4.91937e-08
8.16434e-08
4.50786e-08
7.47736e-08
4.12884e-08
6.84843e-08
3.77998e-08
6.27289e-08
3.45909e-08
5.74641e-08
3.1642e-08
5.26501e-08
2.89335e-08
4.82494e-08
2.64491e-08
4.42278e-08
2.41709e-08
4.0553e-08
2.20864e-08
3.71957e-08
2.01778e-08
3.4128e-08
1.84381e-08
3.13249e-08
1.68469e-08
2.87618e-08
1.54054e-08
2.6418e-08
1.40858e-08
2.42709e-08
1.29048e-08
2.23047e-08
1.18159e-08
2.04972e-08
1.08644e-08
1.88371e-08
9.97452e-09
1.7303e-08
9.22131e-09
1.58889e-08
8.49445e-09
1.45703e-08
7.92786e-09
1.3352e-08
7.31499e-09
1.21992e-08
6.93343e-09
1.11373e-08
6.37156e-09
1.01111e-08
6.17588e-09
9.18073e-09
5.57659e-09
8.25589e-09
5.57202e-09
7.45319e-09
4.80393e-09
6.62474e-09
5.00003e-09
5.96896e-09
3.91607e-09
5.27738e-09
4.18536e-09
4.79645e-09
2.86283e-09
4.2998e-09
3.0198e-09
4.02388e-09
1.6312e-09
3.75812e-09
1.63461e-09
3.66534e-09
5.31367e-10
3.59403e-09
4.64362e-10
3.68667e-09
-5.78399e-10
3.79424e-09
-6.15982e-10
3.9652e-09
-1.0478e-09
4.13284e-09
-9.83607e-10
4.33062e-09
-1.20572e-09
4.51425e-09
-1.08508e-09
4.70853e-09
-1.18147e-09
4.88289e-09
-1.03376e-09
5.05847e-09
-1.06628e-09
5.21327e-09
-9.19516e-10
5.3658e-09
-9.2534e-10
5.50143e-09
-8.06557e-10
5.63418e-09
-8.04403e-10
5.76285e-09
-7.66027e-10
5.88973e-09
-7.65986e-10
6.08439e-09
-1.17047e-09
6.29916e-09
-1.26333e-09
8.58611e-09
-1.57029e-08
-1.56202e-08
0.000159371
5.72622e-05
0.000151539
5.49047e-05
0.000144032
5.26238e-05
0.00013684
5.04196e-05
0.000129952
4.82885e-05
0.000123357
4.62253e-05
0.000117049
4.42253e-05
0.000111016
4.22871e-05
0.000105252
4.04106e-05
9.97456e-05
3.85963e-05
9.44896e-05
3.68444e-05
8.94746e-05
3.51548e-05
8.46919e-05
3.35265e-05
8.01329e-05
3.19579e-05
7.57894e-05
3.04474e-05
7.16533e-05
2.89936e-05
6.77167e-05
2.75953e-05
6.39718e-05
2.62514e-05
6.0411e-05
2.49604e-05
5.70271e-05
2.37212e-05
5.38127e-05
2.25326e-05
5.07608e-05
2.13934e-05
4.78646e-05
2.03023e-05
4.51173e-05
1.92582e-05
4.25125e-05
1.82597e-05
4.00438e-05
1.73054e-05
3.77051e-05
1.63939e-05
3.54906e-05
1.55239e-05
3.33944e-05
1.46939e-05
3.14111e-05
1.39026e-05
2.95355e-05
1.31486e-05
2.77622e-05
1.24305e-05
2.60865e-05
1.17469e-05
2.45035e-05
1.10966e-05
2.30088e-05
1.04782e-05
2.15979e-05
9.89051e-06
2.02667e-05
9.33221e-06
1.9011e-05
8.80213e-06
1.78272e-05
8.29906e-06
1.67114e-05
7.82185e-06
1.56601e-05
7.36939e-06
1.46701e-05
6.94058e-06
1.3738e-05
6.53436e-06
1.28607e-05
6.14971e-06
1.20354e-05
5.78564e-06
1.12592e-05
5.44119e-06
1.05295e-05
5.11544e-06
9.84376e-06
4.80749e-06
9.19951e-06
4.51649e-06
8.59446e-06
4.24161e-06
8.02644e-06
3.98207e-06
7.49337e-06
3.73709e-06
6.99327e-06
3.50595e-06
6.52427e-06
3.28795e-06
6.08458e-06
3.08241e-06
5.67253e-06
2.88871e-06
5.28651e-06
2.70622e-06
4.92501e-06
2.53437e-06
4.58658e-06
2.37258e-06
4.26988e-06
2.22032e-06
3.9736e-06
2.07709e-06
3.69654e-06
1.94241e-06
3.43754e-06
1.8158e-06
3.19551e-06
1.69682e-06
2.96942e-06
1.58506e-06
2.7583e-06
1.48012e-06
2.56124e-06
1.38162e-06
2.37735e-06
1.28919e-06
2.20584e-06
1.2025e-06
2.04592e-06
1.12121e-06
1.89686e-06
1.04502e-06
1.75799e-06
9.73638e-07
1.62865e-06
9.06782e-07
1.50825e-06
8.4419e-07
1.3962e-06
7.85611e-07
1.29196e-06
7.30809e-07
1.19504e-06
6.7956e-07
1.10495e-06
6.31652e-07
1.02124e-06
5.86884e-07
9.43499e-07
5.45067e-07
8.71328e-07
5.06022e-07
8.04354e-07
4.69578e-07
7.4223e-07
4.35577e-07
6.8463e-07
4.03868e-07
6.31245e-07
3.74307e-07
5.8179e-07
3.4676e-07
5.35994e-07
3.21101e-07
4.93606e-07
2.9721e-07
4.54389e-07
2.74975e-07
4.18123e-07
2.54289e-07
3.846e-07
2.35054e-07
3.53628e-07
2.17174e-07
3.25024e-07
2.00562e-07
2.98622e-07
1.85134e-07
2.74261e-07
1.70813e-07
2.51796e-07
1.57525e-07
2.31089e-07
1.45201e-07
2.12011e-07
1.33777e-07
1.94442e-07
1.23192e-07
1.78272e-07
1.13389e-07
1.63396e-07
1.04314e-07
1.49717e-07
9.59187e-08
1.37146e-07
8.81549e-08
1.25597e-07
8.09791e-08
1.14995e-07
7.43505e-08
1.05265e-07
6.82305e-08
9.63402e-08
6.25834e-08
8.81583e-08
5.73756e-08
8.06609e-08
5.25761e-08
7.3794e-08
4.81553e-08
6.75072e-08
4.40865e-08
6.17542e-08
4.03439e-08
5.64917e-08
3.69045e-08
5.16797e-08
3.37456e-08
4.72809e-08
3.08479e-08
4.3261e-08
2.81908e-08
3.95878e-08
2.57596e-08
3.62319e-08
2.35337e-08
3.31655e-08
2.15045e-08
3.03636e-08
1.96488e-08
2.78016e-08
1.79675e-08
2.54588e-08
1.64287e-08
2.33126e-08
1.50509e-08
2.13471e-08
1.37814e-08
1.95405e-08
1.2671e-08
1.78809e-08
1.16341e-08
1.63476e-08
1.07545e-08
1.49338e-08
9.90831e-09
1.3616e-08
9.24564e-09
1.23976e-08
8.53335e-09
1.12458e-08
8.08522e-09
1.01835e-08
7.43394e-09
9.1586e-09
7.20074e-09
8.22725e-09
6.50794e-09
7.30422e-09
6.49506e-09
6.49992e-09
5.60823e-09
5.67399e-09
5.82596e-09
5.01591e-09
4.57415e-09
4.32762e-09
4.87364e-09
3.84386e-09
3.34658e-09
3.35106e-09
3.5126e-09
3.07211e-09
1.91016e-09
2.81041e-09
1.8963e-09
2.71445e-09
6.27329e-10
2.64691e-09
5.31896e-10
2.73676e-09
-6.68247e-10
2.84749e-09
-7.26707e-10
3.01592e-09
-1.21623e-09
3.18599e-09
-1.15368e-09
3.3817e-09
-1.40143e-09
3.56717e-09
-1.27055e-09
3.75979e-09
-1.3741e-09
3.93553e-09
-1.20949e-09
4.1098e-09
-1.24056e-09
4.26564e-09
-1.07535e-09
4.41715e-09
-1.07685e-09
4.55357e-09
-9.42985e-10
4.68553e-09
-9.36363e-10
4.81486e-09
-8.95356e-10
4.94121e-09
-8.9233e-10
5.13552e-09
-1.36478e-09
5.3497e-09
-1.47751e-09
7.36959e-09
-1.77227e-08
-1.76234e-08
0.00015933
6.54283e-05
0.0001515
6.27347e-05
0.000143995
6.01286e-05
0.000136804
5.76102e-05
0.000129917
5.51752e-05
0.000123325
5.28178e-05
0.000117018
5.05327e-05
0.000110987
4.8318e-05
0.000105223
4.61739e-05
9.97189e-05
4.41008e-05
9.44641e-05
4.20991e-05
8.94503e-05
4.01685e-05
8.46688e-05
3.8308e-05
8.01109e-05
3.65158e-05
7.57685e-05
3.47898e-05
7.16334e-05
3.31287e-05
6.76977e-05
3.1531e-05
6.39537e-05
2.99953e-05
6.03939e-05
2.85203e-05
5.70108e-05
2.71043e-05
5.37972e-05
2.57462e-05
5.0746e-05
2.44445e-05
4.78505e-05
2.31978e-05
4.5104e-05
2.20048e-05
4.24998e-05
2.08639e-05
4.00317e-05
1.97735e-05
3.76937e-05
1.8732e-05
3.54797e-05
1.77379e-05
3.33841e-05
1.67896e-05
3.14013e-05
1.58854e-05
2.95261e-05
1.50238e-05
2.77534e-05
1.42033e-05
2.60781e-05
1.34222e-05
2.44955e-05
1.26791e-05
2.30012e-05
1.19726e-05
2.15907e-05
1.1301e-05
2.02598e-05
1.06631e-05
1.90045e-05
1.00574e-05
1.7821e-05
9.4826e-06
1.67055e-05
8.93733e-06
1.56545e-05
8.42034e-06
1.46647e-05
7.93037e-06
1.37329e-05
7.46622e-06
1.28559e-05
7.02671e-06
1.20308e-05
6.61072e-06
1.12548e-05
6.21714e-06
1.05254e-05
5.84493e-06
9.83978e-06
5.49307e-06
9.19571e-06
5.16056e-06
8.59084e-06
4.84648e-06
8.02298e-06
4.54992e-06
7.49006e-06
4.27e-06
6.99011e-06
4.0059e-06
6.52125e-06
3.75681e-06
6.08169e-06
3.52197e-06
5.66976e-06
3.30064e-06
5.28386e-06
3.09213e-06
4.92246e-06
2.89576e-06
4.58414e-06
2.7109e-06
4.26753e-06
2.53693e-06
3.97135e-06
2.37328e-06
3.69437e-06
2.21938e-06
3.43545e-06
2.07472e-06
3.19349e-06
1.93878e-06
2.96747e-06
1.81108e-06
2.75642e-06
1.69118e-06
2.55942e-06
1.57862e-06
2.37559e-06
1.47302e-06
2.20413e-06
1.37396e-06
2.04426e-06
1.28108e-06
1.89525e-06
1.19403e-06
1.75642e-06
1.11247e-06
1.62713e-06