/*--------------------------------*- C++ -*----------------------------------*\
| =========                 |                                                 |
| \\      /  F ield         | OpenFOAM: The Open Source CFD Toolbox           |
|  \\    /   O peration     | Version:  v1912                                 |
|   \\  /    A nd           | Website:  www.openfoam.com                      |
|    \\/     M anipulation  |                                                 |
\*---------------------------------------------------------------------------*/
FoamFile
{
    version     2.0;
    format      ascii;
    class       volVectorField;
    location    "100";
    object      U;
}
// * * * * * * * * * * * * * * * * * * * * * * * * * * * * * * * * * * * * * //

dimensions      [0 1 -1 0 0 0 0];


internalField   nonuniform List<vector> 
114144
(
(-0.122295 -0.128846 0)
(-0.115934 -0.111786 0)
(-0.214886 -0.108825 0)
(-0.372201 -0.100152 0)
(-0.517493 -0.0894567 0)
(-0.646039 -0.0761475 0)
(-0.75467 -0.0607237 0)
(-0.839014 -0.0438307 0)
(-0.895559 -0.0260105 0)
(-0.921757 -0.00763676 0)
(-0.915899 0.0110763 0)
(-0.876885 0.0298822 0)
(-0.804186 0.0485103 0)
(-0.698028 0.0665786 0)
(-0.55965 0.0835133 0)
(-0.391673 0.0985405 0)
(-0.194474 0.110836 0)
(0.0140381 0.117804 0)
(0.234803 0.124193 0)
(0.469103 0.122933 0)
(0.695096 0.116879 0)
(0.907153 0.10592 0)
(1.09657 0.090587 0)
(1.25565 0.0717505 0)
(1.3781 0.0505005 0)
(1.45947 0.0280052 0)
(1.49739 0.00522076 0)
(1.49113 -0.0163806 0)
(1.44185 -0.0365047 0)
(1.35224 -0.0543152 0)
(1.22577 -0.0692935 0)
(1.06686 -0.0814651 0)
(0.880708 -0.0907831 0)
(0.672932 -0.0972556 0)
(0.44943 -0.100923 0)
(0.211563 -0.101709 0)
(-0.0204897 -0.0966791 0)
(-0.247243 -0.0937676 0)
(-0.473411 -0.086195 0)
(-0.680741 -0.0766543 0)
(-0.867996 -0.0655266 0)
(-1.03116 -0.0535301 0)
(-1.16785 -0.0413696 0)
(-1.2769 -0.0297106 0)
(-1.3584 -0.0190807 0)
(-1.41343 -0.00981059 0)
(-1.44376 -0.00199827 0)
(-1.45123 0.00441871 0)
(-1.43759 0.0101293 0)
(-1.40421 0.0151023 0)
(-1.35161 0.0199355 0)
(-1.27998 0.0249259 0)
(-1.18925 0.030174 0)
(-1.07949 0.0355659 0)
(-0.951287 0.0407723 0)
(-0.80609 0.0453534 0)
(-0.646326 0.0488763 0)
(-0.475613 0.0509924 0)
(-0.293858 0.0520061 0)
(-0.116547 0.0463134 0)
(0.0537669 0.0447133 0)
(0.225478 0.0411917 0)
(0.387275 0.0362069 0)
(0.536332 0.0312633 0)
(0.673221 0.0269247 0)
(0.798738 0.0239889 0)
(0.914496 0.0222318 0)
(1.02198 0.0211721 0)
(1.12224 0.0205392 0)
(1.21542 0.0199272 0)
(1.30031 0.0188725 0)
(1.37436 0.0171838 0)
(1.43392 0.014356 0)
(1.47441 0.0100955 0)
(1.49121 0.00446876 0)
(1.4795 -0.00393791 0)
(1.43598 -0.0121951 0)
(1.35867 -0.0208095 0)
(1.24669 -0.0293211 0)
(1.10101 -0.0372859 0)
(0.92432 -0.0443046 0)
(0.720394 -0.0500669 0)
(0.495633 -0.0543134 0)
(0.249721 -0.0573532 0)
(0.00262417 -0.0572626 0)
(-0.244482 -0.0572133 0)
(-0.494904 -0.0546697 0)
(-0.728804 -0.0505737 0)
(-0.943995 -0.0448049 0)
(-1.13225 -0.0374903 0)
(-1.28773 -0.0287762 0)
(-1.40496 -0.0188908 0)
(-1.48042 -0.00828291 0)
(-1.51096 0.00399246 0)
(-1.49766 0.0123995 0)
(-1.44325 0.0217864 0)
(-1.35099 0.0293936 0)
(-1.22818 0.0349311 0)
(-1.08312 0.0381439 0)
(-0.923939 0.0394957 0)
(-0.753232 0.037504 0)
(-0.587148 0.030478 0)
(-0.441283 0.0256878 0)
(-0.313424 0.0200834 0)
(-0.202999 0.014765 0)
(-0.107587 0.0105513 0)
(-0.0284699 0.00737569 0)
(0.053716 0.00739747 0)
(0.139446 0.00773656 0)
(0.220023 0.00996989 0)
(0.30976 0.013707 0)
(0.410287 0.0178617 0)
(0.521783 0.0213473 0)
(0.641112 0.0236584 0)
(0.763588 0.0244294 0)
(0.882973 0.0233938 0)
(0.99214 0.0204995 0)
(1.08385 0.0159289 0)
(1.15148 0.0100625 0)
(1.19013 0.00341951 0)
(1.19582 -0.00342366 0)
(1.16825 -0.00980091 0)
(1.10814 -0.0153619 0)
(1.01776 -0.0197197 0)
(0.901172 -0.0227444 0)
(0.762866 -0.0245094 0)
(0.607777 -0.0251427 0)
(0.440679 -0.0253868 0)
(0.259439 -0.0239798 0)
(0.0860363 -0.0222281 0)
(-0.0928508 -0.0227439 0)
(-0.282279 -0.0214183 0)
(-0.461454 -0.0206315 0)
(-0.639366 -0.0195892 0)
(-0.80906 -0.0182739 0)
(-0.968647 -0.0164216 0)
(-1.11349 -0.0139016 0)
(-1.23906 -0.0106551 0)
(-1.34052 -0.00672497 0)
(-1.41294 -0.00231187 0)
(-1.45298 0.00235797 0)
(-1.45765 0.006868 0)
(-1.4231 0.0110287 0)
(-1.35058 0.0144504 0)
(-1.24132 0.0169838 0)
(-1.09789 0.018596 0)
(-0.925259 0.0192162 0)
(-0.729257 0.0195108 0)
(-0.508479 0.018054 0)
(-0.282392 0.0163223 0)
(-0.0611495 0.0140143 0)
(0.166934 0.0126202 0)
(0.389863 0.00983363 0)
(0.595604 0.0069041 0)
(0.781516 0.00367419 0)
(0.942645 0.000228858 0)
(1.07484 -0.00327503 0)
(1.17567 -0.00669249 0)
(1.24439 -0.00973274 0)
(1.27986 -0.0128697 0)
(1.28594 -0.0126773 0)
(1.26759 -0.0125679 0)
(1.22666 -0.0110175 0)
(1.16642 -0.00813039 0)
(1.09536 -0.00474611 0)
(1.01998 -0.00130014 0)
(0.94195 0.00101849 0)
(0.867665 0.00250912 0)
(0.796704 0.00323109 0)
(0.7273 0.00336305 0)
(0.656721 0.00335671 0)
(0.579976 0.00370275 0)
(0.492514 0.00490359 0)
(0.389571 0.00732102 0)
(0.269542 0.0108812 0)
(0.133298 0.0149522 0)
(-0.0179846 0.0187525 0)
(-0.178763 0.0216133 0)
(-0.340165 0.0232253 0)
(-0.494684 0.023297 0)
(-0.634362 0.0219531 0)
(-0.753049 0.0193978 0)
(-0.8475 0.0158908 0)
(-0.916861 0.0120236 0)
(-0.962769 0.00817713 0)
(-0.988414 0.00461289 0)
(-0.997646 0.00164357 0)
(-0.99453 -0.000377674 0)
(-0.98355 -0.00201393 0)
(-0.966624 -0.00320848 0)
(-0.946744 -0.00384343 0)
(-0.925528 -0.00426171 0)
(-0.902079 -0.00461429 0)
(-0.877285 -0.00474099 0)
(-0.850667 -0.00517764 0)
(-0.819935 -0.0056678 0)
(-0.786424 -0.00629552 0)
(-0.747049 -0.00738559 0)
(-0.702275 -0.00830789 0)
(-0.652048 -0.00947063 0)
(-0.595308 -0.0105237 0)
(-0.534341 -0.0113972 0)
(-0.46755 -0.0124367 0)
(-0.396993 -0.0130126 0)
(-0.322753 -0.0138915 0)
(-0.24402 -0.0145388 0)
(-0.162256 -0.0153084 0)
(-0.0759249 -0.0161724 0)
(0.0158528 -0.017078 0)
(0.111625 -0.0179258 0)
(0.213077 -0.0189722 0)
(0.318556 -0.0194711 0)
(0.427077 -0.0201772 0)
(0.538216 -0.020148 0)
(0.647918 -0.019887 0)
(0.755421 -0.0191161 0)
(0.856796 -0.0176743 0)
(0.949413 -0.0158461 0)
(1.03046 -0.0133182 0)
(1.09694 -0.0104643 0)
(1.14761 -0.007192 0)
(1.17968 -0.00360342 0)
(1.19296 4.86191e-06 0)
(1.18723 0.00388062 0)
(1.16273 0.00745736 0)
(1.119 0.0111867 0)
(1.05813 0.0141299 0)
(0.981828 0.0172248 0)
(0.890978 0.0194896 0)
(0.789122 0.0216702 0)
(0.6775 0.0232464 0)
(0.557018 0.0248316 0)
(0.431035 0.0256198 0)
(0.29989 0.0267408 0)
(0.163892 0.0270316 0)
(0.0281794 0.0273667 0)
(-0.111858 0.027609 0)
(-0.250382 0.0272943 0)
(-0.387602 0.027041 0)
(-0.523642 0.0265346 0)
(-0.655012 0.0254775 0)
(-0.782606 0.0247499 0)
(-0.90405 0.0231419 0)
(-1.01756 0.0217888 0)
(-1.12306 0.0202937 0)
(-1.21862 0.0186714 0)
(-1.30306 0.0167088 0)
(-1.37526 0.0110988 0)
(-1.42697 0.00147477 0)
(-1.44136 -0.0144201 0)
(-0.0584301 -0.0104477 0)
(-0.10697 0.047236 0)
(-0.214213 0.0571531 0)
(-0.373 0.0644228 0)
(-0.52022 0.063698 0)
(-0.649806 0.0577201 0)
(-0.7591 0.0480928 0)
(-0.843862 0.035742 0)
(-0.900632 0.0213229 0)
(-0.926885 0.00536882 0)
(-0.920943 -0.0116354 0)
(-0.881723 -0.029421 0)
(-0.808663 -0.0476664 0)
(-0.701957 -0.0658166 0)
(-0.562824 -0.0832138 0)
(-0.393846 -0.0991273 0)
(-0.196015 -0.112593 0)
(0.0147588 -0.12611 0)
(0.237616 -0.128145 0)
(0.472731 -0.130017 0)
(0.700595 -0.126312 0)
(0.914259 -0.117242 0)
(1.10502 -0.103105 0)
(1.26509 -0.0844996 0)
(1.38814 -0.0622739 0)
(1.4696 -0.0374319 0)
(1.50731 -0.0107811 0)
(1.50045 0.0154562 0)
(1.45018 0.0413294 0)
(1.35949 0.065275 0)
(1.23174 0.0862069 0)
(1.0713 0.104054 0)
(0.883492 0.118537 0)
(0.673942 0.129399 0)
(0.448624 0.136382 0)
(0.210057 0.139374 0)
(-0.0244454 0.144529 0)
(-0.253896 0.136495 0)
(-0.480735 0.12915 0)
(-0.689301 0.118537 0)
(-0.877414 0.105507 0)
(-1.04107 0.0906545 0)
(-1.17786 0.0747313 0)
(-1.28664 0.058464 0)
(-1.36758 0.0424743 0)
(-1.42188 0.0272102 0)
(-1.45145 0.0129231 0)
(-1.45811 -0.000371031 0)
(-1.44382 -0.0131368 0)
(-1.41005 -0.0252858 0)
(-1.35711 -0.0371835 0)
(-1.2852 -0.049001 0)
(-1.19414 -0.0607584 0)
(-1.08387 -0.0722747 0)
(-0.954857 -0.0831436 0)
(-0.808484 -0.0928024 0)
(-0.647162 -0.100596 0)
(-0.474409 -0.105905 0)
(-0.292363 -0.107777 0)
(-0.113018 -0.11341 0)
(0.0606722 -0.108515 0)
(0.232783 -0.102492 0)
(0.394754 -0.0963345 0)
(0.543791 -0.0895297 0)
(0.680386 -0.0827755 0)
(0.805368 -0.0763242 0)
(0.920275 -0.0706093 0)
(1.027 -0.0657381 0)
(1.12696 -0.0612689 0)
(1.22044 -0.0565125 0)
(1.30634 -0.0506458 0)
(1.38194 -0.0427223 0)
(1.44325 -0.0321684 0)
(1.48549 -0.0186759 0)
(1.50323 -0.00217739 0)
(1.49228 0.0160034 0)
(1.44945 0.0366165 0)
(1.37162 0.0582886 0)
(1.25829 0.0798787 0)
(1.11053 0.100298 0)
(0.931162 0.118582 0)
(0.724167 0.133868 0)
(0.495963 0.145646 0)
(0.247057 0.152655 0)
(-0.00348905 0.158384 0)
(-0.254225 0.155914 0)
(-0.507473 0.150664 0)
(-0.744251 0.140538 0)
(-0.961957 0.126115 0)
(-1.1523 0.107489 0)
(-1.30922 0.0851669 0)
(-1.42711 0.0598711 0)
(-1.50173 0.0325988 0)
(-1.53165 0.00533747 0)
(-1.51641 -0.0227424 0)
(-1.45764 -0.0477302 0)
(-1.36093 -0.0689948 0)
(-1.23305 -0.0851999 0)
(-1.08256 -0.0954813 0)
(-0.918676 -0.0987584 0)
(-0.745501 -0.0970906 0)
(-0.576431 -0.098447 0)
(-0.427892 -0.0899581 0)
(-0.300216 -0.0793816 0)
(-0.191202 -0.0684719 0)
(-0.0984678 -0.058725 0)
(-0.0222319 -0.0529418 0)
(0.0565512 -0.0477182 0)
(0.138867 -0.0497483 0)
(0.217654 -0.0543018 0)
(0.30669 -0.0605013 0)
(0.407584 -0.0673804 0)
(0.520718 -0.0739092 0)
(0.642916 -0.0783089 0)
(0.769049 -0.0791173 0)
(0.892362 -0.0753452 0)
(1.0052 -0.0665789 0)
(1.09984 -0.0530012 0)
(1.16928 -0.0353383 0)
(1.20843 -0.0147238 0)
(1.21319 0.00762768 0)
(1.18348 0.0295716 0)
(1.12028 0.0505869 0)
(1.02621 0.0692611 0)
(0.905746 0.08495 0)
(0.763772 0.0973404 0)
(0.605363 0.106621 0)
(0.435948 0.112563 0)
(0.253308 0.11746 0)
(0.0777362 0.121649 0)
(-0.102323 0.119812 0)
(-0.292154 0.120302 0)
(-0.472556 0.11834 0)
(-0.651801 0.115038 0)
(-0.823208 0.109483 0)
(-0.984749 0.101309 0)
(-1.13161 0.0900019 0)
(-1.25896 0.0752738 0)
(-1.36166 0.0570989 0)
(-1.43443 0.0357445 0)
(-1.47397 0.0125358 0)
(-1.4769 -0.0136983 0)
(-1.43938 -0.0398919 0)
(-1.36306 -0.0654795 0)
(-1.24927 -0.0893315 0)
(-1.10093 -0.110357 0)
(-0.923145 -0.127937 0)
(-0.722425 -0.140904 0)
(-0.497283 -0.150512 0)
(-0.266813 -0.15634 0)
(-0.0409381 -0.157214 0)
(0.19009 -0.151563 0)
(0.415362 -0.143268 0)
(0.622948 -0.130642 0)
(0.809732 -0.114399 0)
(0.970647 -0.095063 0)
(1.10125 -0.0733719 0)
(1.19909 -0.0504134 0)
(1.26305 -0.0271995 0)
(1.29334 -0.00561216 0)
(1.29371 0.013826 0)
(1.26834 0.0289318 0)
(1.22153 0.0408785 0)
(1.15687 0.0481216 0)
(1.08316 0.0513683 0)
(1.00701 0.0522236 0)
(0.929723 0.0505653 0)
(0.857442 0.0481686 0)
(0.788649 0.0465505 0)
(0.720749 0.0469233 0)
(0.650553 0.0499315 0)
(0.573061 0.0557476 0)
(0.484172 0.0637063 0)
(0.379707 0.0726824 0)
(0.258565 0.0813037 0)
(0.121986 0.0884302 0)
(-0.0287401 0.0931778 0)
(-0.188162 0.0941345 0)
(-0.347774 0.0908547 0)
(-0.500477 0.0833262 0)
(-0.638591 0.0721849 0)
(-0.756142 0.058721 0)
(-0.849864 0.0445337 0)
(-0.918823 0.030847 0)
(-0.964593 0.0187694 0)
(-0.990348 0.00889952 0)
(-0.999773 0.00107133 0)
(-0.996944 -0.00440412 0)
(-0.986307 -0.00793269 0)
(-0.969577 -0.0103118 0)
(-0.94978 -0.011322 0)
(-0.928591 -0.0121524 0)
(-0.90503 -0.0135256 0)
(-0.880047 -0.0142358 0)
(-0.853181 -0.01632 0)
(-0.822148 -0.0185221 0)
(-0.788345 -0.0209724 0)
(-0.748684 -0.0245346 0)
(-0.703628 -0.0274969 0)
(-0.653149 -0.0310505 0)
(-0.596188 -0.0342341 0)
(-0.535056 -0.036876 0)
(-0.468158 -0.0399532 0)
(-0.397522 -0.0417092 0)
(-0.323295 -0.0442977 0)
(-0.244584 -0.0462332 0)
(-0.16287 -0.0485325 0)
(-0.0765897 -0.051141 0)
(0.0151469 -0.0538791 0)
(0.110946 -0.0564342 0)
(0.212451 -0.0595619 0)
(0.318108 -0.061131 0)
(0.426821 -0.0632576 0)
(0.538279 -0.0632245 0)
(0.64832 -0.0624837 0)
(0.756215 -0.0601847 0)
(0.858016 -0.0558925 0)
(0.951039 -0.0503918 0)
(1.03246 -0.0428215 0)
(1.09925 -0.034253 0)
(1.15015 -0.0244031 0)
(1.18238 -0.0136866 0)
(1.1958 -0.00292033 0)
(1.19007 0.00781204 0)
(1.16541 0.0182011 0)
(1.1215 0.0290563 0)
(1.0604 0.0378105 0)
(0.983828 0.0468807 0)
(0.892714 0.0536799 0)
(0.79059 0.0601427 0)
(0.678714 0.0649099 0)
(0.558018 0.0696138 0)
(0.431792 0.0720894 0)
(0.300485 0.0753918 0)
(0.164302 0.0764312 0)
(0.0284183 0.0775076 0)
(-0.111754 0.0783106 0)
(-0.250463 0.0775239 0)
(-0.387846 0.0768602 0)
(-0.524066 0.0754883 0)
(-0.655688 0.0725672 0)
(-0.783505 0.0704842 0)
(-0.905209 0.0658693 0)
(-1.01883 0.0616124 0)
(-1.12371 0.056362 0)
(-1.21712 0.0498406 0)
(-1.29733 0.0423454 0)
(-1.36481 0.0341291 0)
(-1.41893 0.0299073 0)
(-1.45559 0.0246262 0)
(-0.0081952 0.0151791 0)
(-0.0938807 0.0835713 0)
(-0.212583 0.0965474 0)
(-0.37385 0.10335 0)
(-0.523899 0.101089 0)
(-0.655348 0.0908599 0)
(-0.765773 0.0750726 0)
(-0.851195 0.0552841 0)
(-0.908274 0.0325917 0)
(-0.934536 0.00788214 0)
(-0.92839 -0.017889 0)
(-0.88882 -0.0441817 0)
(-0.815206 -0.0700243 0)
(-0.707688 -0.0946446 0)
(-0.567481 -0.11721 0)
(-0.397147 -0.136839 0)
(-0.198306 -0.152476 0)
(0.0149834 -0.165869 0)
(0.240427 -0.168033 0)
(0.476802 -0.166775 0)
(0.706603 -0.159162 0)
(0.921994 -0.145334 0)
(1.11416 -0.125875 0)
(1.27524 -0.101721 0)
(1.39885 -0.0740436 0)
(1.48059 -0.0441268 0)
(1.5177 -0.0130068 0)
(1.50983 0.0170579 0)
(1.45842 0.0459432 0)
(1.36576 0.0721404 0)
(1.23592 0.0946175 0)
(1.07365 0.113323 0)
(0.8841 0.128045 0)
(0.672912 0.138622 0)
(0.446054 0.144943 0)
(0.207275 0.146855 0)
(-0.0288696 0.150998 0)
(-0.260166 0.141721 0)
(-0.486827 0.133126 0)
(-0.69571 0.121493 0)
(-0.883847 0.107685 0)
(-1.04731 0.0923066 0)
(-1.1837 0.0760861 0)
(-1.29195 0.0597064 0)
(-1.37228 0.0437271 0)
(-1.42595 0.0285398 0)
(-1.45484 0.0143781 0)
(-1.46108 0.00147195 0)
(-1.44638 -0.0113447 0)
(-1.41203 -0.023198 0)
(-1.35865 -0.0345935 0)
(-1.28628 -0.0456411 0)
(-1.19474 -0.0563293 0)
(-1.08396 -0.0664887 0)
(-0.954425 -0.0758088 0)
(-0.807527 -0.0838722 0)
(-0.645708 -0.0902183 0)
(-0.472515 -0.0944919 0)
(-0.29075 -0.0964683 0)
(-0.110991 -0.0997913 0)
(0.0635871 -0.0961206 0)
(0.235434 -0.0909772 0)
(0.397155 -0.0858294 0)
(0.546098 -0.080127 0)
(0.682551 -0.0743608 0)
(0.807433 -0.0689613 0)
(0.922408 -0.0639308 0)
(1.02928 -0.0590578 0)
(1.12934 -0.05409 0)
(1.22284 -0.0486382 0)
(1.30861 -0.0422314 0)
(1.38397 -0.0344735 0)
(1.44497 -0.0249016 0)
(1.48686 -0.0132505 0)
(1.50439 0.000467337 0)
(1.49308 0.0164518 0)
(1.44962 0.033549 0)
(1.37134 0.0514697 0)
(1.25758 0.0694134 0)
(1.1094 0.0865588 0)
(0.929648 0.10213 0)
(0.722313 0.115378 0)
(0.493681 0.125901 0)
(0.244933 0.13242 0)
(-0.0059953 0.13835 0)
(-0.257269 0.136571 0)
(-0.510256 0.132815 0)
(-0.747027 0.124625 0)
(-0.964514 0.112734 0)
(-1.15453 0.0971503 0)
(-1.31102 0.0783435 0)
(-1.42838 0.0569084 0)
(-1.50275 0.0337337 0)
(-1.53164 0.00933722 0)
(-1.51556 -0.0133356 0)
(-1.45691 -0.0352334 0)
(-1.35993 -0.0541494 0)
(-1.23191 -0.0690779 0)
(-1.08137 -0.0791648 0)
(-0.917536 -0.0839159 0)
(-0.746242 -0.0833286 0)
(-0.578045 -0.0887692 0)
(-0.428274 -0.0860802 0)
(-0.300267 -0.0791862 0)
(-0.190884 -0.0713269 0)
(-0.0979744 -0.0636099 0)
(-0.0209082 -0.0593337 0)
(0.0583323 -0.0533628 0)
(0.140631 -0.0548421 0)
(0.220169 -0.057667 0)
(0.309699 -0.0618023 0)
(0.410793 -0.0662979 0)
(0.523797 -0.0704291 0)
(0.645634 -0.0729477 0)
(0.771222 -0.0726572 0)
(0.893839 -0.0686996 0)
(1.0059 -0.060656 0)
(1.09975 -0.04858 0)
(1.16847 -0.0329721 0)
(1.20704 -0.0146778 0)
(1.21141 0.00540716 0)
(1.18152 0.0254633 0)
(1.11828 0.0452046 0)
(1.0243 0.0633379 0)
(0.903974 0.0792301 0)
(0.762127 0.0924472 0)
(0.603757 0.103013 0)
(0.434317 0.110689 0)
(0.251936 0.116695 0)
(0.0756026 0.122995 0)
(-0.104955 0.121741 0)
(-0.294537 0.123127 0)
(-0.475153 0.121513 0)
(-0.654216 0.118526 0)
(-0.825274 0.113188 0)
(-0.986216 0.105325 0)
(-1.13229 0.0944856 0)
(-1.25876 0.0803946 0)
(-1.3606 0.0629897 0)
(-1.43261 0.0424036 0)
(-1.4715 0.0198715 0)
(-1.47402 -0.00611211 0)
(-1.43635 -0.0327137 0)
(-1.35995 -0.0594082 0)
(-1.24614 -0.0850584 0)
(-1.09783 -0.108436 0)
(-0.920094 -0.128819 0)
(-0.71939 -0.144741 0)
(-0.49467 -0.157022 0)
(-0.264633 -0.166249 0)
(-0.0386965 -0.169405 0)
(0.191769 -0.165509 0)
(0.416192 -0.15885 0)
(0.62299 -0.14755 0)
(0.808872 -0.132372 0)
(0.968931 -0.113912 0)
(1.09885 -0.0928255 0)
(1.19639 -0.0701616 0)
(1.26072 -0.0467501 0)
(1.29144 -0.0238158 0)
(1.29267 -0.00394683 0)
(1.26899 0.0148606 0)
(1.22333 0.0311689 0)
(1.15919 0.0438583 0)
(1.08566 0.0521693 0)
(1.00889 0.0576451 0)
(0.929998 0.0588162 0)
(0.855817 0.058006 0)
(0.78538 0.0571323 0)
(0.71664 0.0579435 0)
(0.646782 0.0617152 0)
(0.570733 0.0693497 0)
(0.483906 0.0807089 0)
(0.381662 0.0952624 0)
(0.262405 0.111316 0)
(0.126915 0.126393 0)
(-0.023986 0.138179 0)
(-0.184872 0.14411 0)
(-0.346715 0.143044 0)
(-0.5019 0.134588 0)
(-0.642225 0.119705 0)
(-0.761406 0.100168 0)
(-0.856067 0.0780935 0)
(-0.925337 0.0559317 0)
(-0.970911 0.0356335 0)
(-0.995982 0.0182727 0)
(-1.00462 0.00424312 0)
(-1.00095 -0.00546212 0)
(-0.989429 -0.0123762 0)
(-0.972061 -0.0171903 0)
(-0.951824 -0.0194571 0)
(-0.930377 -0.0210893 0)
(-0.906736 -0.0232082 0)
(-0.88181 -0.0241493 0)
(-0.855079 -0.0271017 0)
(-0.82413 -0.0302736 0)
(-0.790405 -0.0339524 0)
(-0.750708 -0.0396694 0)
(-0.705523 -0.0444625 0)
(-0.654899 -0.0502953 0)
(-0.597725 -0.0555646 0)
(-0.536389 -0.0599138 0)
(-0.469316 -0.0650311 0)
(-0.398513 -0.0679096 0)
(-0.324297 -0.0722061 0)
(-0.245613 -0.0754283 0)
(-0.164008 -0.0792448 0)
(-0.0778453 -0.0835986 0)
(0.0138222 -0.0881851 0)
(0.109671 -0.092475 0)
(0.211282 -0.0977407 0)
(0.317296 -0.100381 0)
(0.426392 -0.10397 0)
(0.538497 -0.103946 0)
(0.649217 -0.102719 0)
(0.757921 -0.0989256 0)
(0.860585 -0.0917583 0)
(0.954431 -0.0825885 0)
(1.0366 -0.0699363 0)
(1.10402 -0.0556072 0)
(1.1554 -0.0391592 0)
(1.18791 -0.0212051 0)
(1.20129 -0.00318261 0)
(1.19546 0.0150909 0)
(1.1707 0.0325152 0)
(1.12643 0.0506959 0)
(1.06488 0.0652647 0)
(0.987781 0.0803886 0)
(0.896102 0.0916605 0)
(0.793449 0.102387 0)
(0.681064 0.110257 0)
(0.559915 0.118071 0)
(0.433209 0.122117 0)
(0.301586 0.127594 0)
(0.164997 0.129271 0)
(0.0288035 0.131025 0)
(-0.111673 0.132338 0)
(-0.250756 0.131003 0)
(-0.388438 0.12989 0)
(-0.524994 0.127622 0)
(-0.657027 0.122719 0)
(-0.785149 0.119269 0)
(-0.907208 0.11154 0)
(-1.02103 0.104394 0)
(-1.12645 0.0954963 0)
(-1.22168 0.08458 0)
(-1.30647 0.0727455 0)
(-1.37988 0.0563257 0)
(-1.43381 0.0406616 0)
(-1.46216 0.012595 0)
(0.0344767 0.0517244 0)
(-0.0790063 0.119612 0)
(-0.210371 0.132338 0)
(-0.374947 0.136661 0)
(-0.528432 0.131543 0)
(-0.662755 0.117186 0)
(-0.775119 0.096111 0)
(-0.861825 0.0702762 0)
(-0.919698 0.0411024 0)
(-0.946285 0.00969178 0)
(-0.940061 -0.0226397 0)
(-0.899965 -0.055498 0)
(-0.825365 -0.0877339 0)
(-0.716543 -0.118419 0)
(-0.574711 -0.146537 0)
(-0.402407 -0.17099 0)
(-0.201633 -0.190512 0)
(0.0145909 -0.2061 0)
(0.243188 -0.210308 0)
(0.481909 -0.208471 0)
(0.714232 -0.198845 0)
(0.931867 -0.1815 0)
(1.12583 -0.157122 0)
(1.28815 -0.126859 0)
(1.4124 -0.0921777 0)
(1.49412 -0.0547134 0)
(1.53081 -0.0163065 0)
(1.52205 0.0220927 0)
(1.46932 0.0585692 0)
(1.37528 0.0924646 0)
(1.24387 0.123089 0)
(1.07981 0.14956 0)
(0.888356 0.17135 0)
(0.675208 0.188046 0)
(0.446347 0.199375 0)
(0.206793 0.20513 0)
(-0.0318562 0.210501 0)
(-0.265995 0.201924 0)
(-0.49335 0.191708 0)
(-0.703444 0.176831 0)
(-0.892441 0.158263 0)
(-1.05642 0.136852 0)
(-1.19297 0.113644 0)
(-1.30106 0.0896809 0)
(-1.38096 0.0658683 0)
(-1.43403 0.0428805 0)
(-1.46223 0.0211307 0)
(-1.46788 0.000691122 0)
(-1.45273 -0.0187287 0)
(-1.41795 -0.0375586 0)
(-1.36424 -0.0559913 0)
(-1.29158 -0.0742475 0)
(-1.19971 -0.0923311 0)
(-1.08845 -0.10996 0)
(-0.958223 -0.126562 0)
(-0.810364 -0.141343 0)
(-0.647335 -0.153427 0)
(-0.472759 -0.162081 0)
(-0.290258 -0.166869 0)
(-0.108836 -0.17067 0)
(0.0679618 -0.166089 0)
(0.240415 -0.158234 0)
(0.40236 -0.149354 0)
(0.551401 -0.1394 0)
(0.687674 -0.129351 0)
(0.812201 -0.119895 0)
(0.926762 -0.111384 0)
(1.03333 -0.10371 0)
(1.13337 -0.0962927 0)
(1.22722 -0.0881975 0)
(1.31374 -0.0782844 0)
(1.39021 -0.0653961 0)
(1.45253 -0.0485991 0)
(1.49577 -0.0273481 0)
(1.51445 -0.00156671 0)
(1.50401 0.0278434 0)
(1.46106 0.0604536 0)
(1.38266 0.0948705 0)
(1.26816 0.129403 0)
(1.11866 0.162384 0)
(0.937063 0.192274 0)
(0.72751 0.217675 0)
(0.496254 0.237691 0)
(0.245223 0.250738 0)
(-0.00862238 0.259637 0)
(-0.263056 0.257714 0)
(-0.518508 0.250129 0)
(-0.757964 0.234487 0)
(-0.977854 0.211571 0)
(-1.16999 0.181515 0)
(-1.32814 0.145107 0)
(-1.44653 0.103482 0)
(-1.52106 0.0583438 0)
(-1.54952 0.0117992 0)
(-1.53202 -0.0339388 0)
(-1.47072 -0.0764946 0)
(-1.3704 -0.113077 0)
(-1.23844 -0.14161 0)
(-1.08364 -0.160556 0)
(-0.915557 -0.169227 0)
(-0.7426 -0.168013 0)
(-0.572979 -0.166098 0)
(-0.420044 -0.157904 0)
(-0.290831 -0.14182 0)
(-0.181951 -0.124537 0)
(-0.09092 -0.10867 0)
(-0.0155917 -0.0991115 0)
(0.0610105 -0.0902287 0)
(0.140116 -0.0931238 0)
(0.218219 -0.100232 0)
(0.307022 -0.110851 0)
(0.408328 -0.122617 0)
(0.52255 -0.133307 0)
(0.646614 -0.140241 0)
(0.77518 -0.141039 0)
(0.901147 -0.134001 0)
(1.0165 -0.118356 0)
(1.11318 -0.0943352 0)
(1.18392 -0.0631107 0)
(1.22348 -0.0265794 0)
(1.22765 0.0132478 0)
(1.19652 0.0525565 0)
(1.13118 0.090599 0)
(1.03449 0.124794 0)
(0.911141 0.153953 0)
(0.766303 0.177449 0)
(0.605141 0.19544 0)
(0.433449 0.208134 0)
(0.249881 0.217024 0)
(0.0712877 0.225281 0)
(-0.110853 0.224241 0)
(-0.300886 0.225301 0)
(-0.482935 0.22217 0)
(-0.66341 0.21639 0)
(-0.836281 0.206394 0)
(-0.999274 0.191512 0)
(-1.14756 0.170823 0)
(-1.27617 0.143769 0)
(-1.37985 0.110251 0)
(-1.45306 0.070671 0)
(-1.49249 0.0275094 0)
(-1.49453 -0.0219337 0)
(-1.45513 -0.0716509 0)
(-1.3761 -0.12076 0)
(-1.25879 -0.167023 0)
(-1.10641 -0.208311 0)
(-0.924135 -0.243258 0)
(-0.719 -0.27003 0)
(-0.490397 -0.289185 0)
(-0.255981 -0.302173 0)
(-0.0249049 -0.304539 0)
(0.209053 -0.295858 0)
(0.436297 -0.280856 0)
(0.645717 -0.257658 0)
(0.833406 -0.227303 0)
(0.994369 -0.190906 0)
(1.12404 -0.149862 0)
(1.22004 -0.106185 0)
(1.28129 -0.0618752 0)
(1.30776 -0.0201833 0)
(1.30479 0.0172059 0)
(1.2759 0.0484212 0)
(1.22495 0.0737283 0)
(1.15628 0.0905656 0)
(1.07977 0.0991764 0)
(1.00133 0.103282 0)
(0.92164 0.101981 0)
(0.848088 0.0984033 0)
(0.778928 0.0956478 0)
(0.711665 0.0962878 0)
(0.643079 0.102157 0)
(0.567821 0.114021 0)
(0.481222 0.131194 0)
(0.378811 0.151643 0)
(0.259187 0.172704 0)
(0.123296 0.191418 0)
(-0.0280736 0.205005 0)
(-0.189613 0.210501 0)
(-0.352365 0.206092 0)
(-0.508685 0.191409 0)
(-0.650107 0.167797 0)
(-0.770009 0.138104 0)
(-0.864832 0.105883 0)
(-0.933715 0.0743056 0)
(-0.978495 0.0460169 0)
(-1.00263 0.0224291 0)
(-1.0102 0.00358742 0)
(-1.0056 -0.00927385 0)
(-0.993496 -0.0179585 0)
(-0.975588 -0.0239086 0)
(-0.954999 -0.026554 0)
(-0.933434 -0.0285866 0)
(-0.90978 -0.0317484 0)
(-0.884943 -0.0332854 0)
(-0.858354 -0.0379213 0)
(-0.827395 -0.0428562 0)
(-0.793674 -0.0483678 0)
(-0.753905 -0.0566212 0)
(-0.708545 -0.0635067 0)
(-0.657692 -0.071754 0)
(-0.600188 -0.0791882 0)
(-0.538522 -0.0852825 0)
(-0.471183 -0.0924162 0)
(-0.400133 -0.0964008 0)
(-0.325937 -0.102319 0)
(-0.247307 -0.106791 0)
(-0.16586 -0.112097 0)
(-0.0798666 -0.118198 0)
(0.0116777 -0.124682 0)
(0.107602 -0.130748 0)
(0.209374 -0.138203 0)
(0.315927 -0.142003 0)
(0.4256 -0.14712 0)
(0.53868 -0.14719 0)
(0.650427 -0.145522 0)
(0.760336 -0.140273 0)
(0.864301 -0.130232 0)
(0.95939 -0.117361 0)
(1.0427 -0.0995801 0)
(1.11107 -0.0794169 0)
(1.16318 -0.0562707 0)
(1.19616 -0.0310081 0)
(1.20988 -0.00566064 0)
(1.20399 0.0200465 0)
(1.17877 0.0446446 0)
(1.1339 0.0702945 0)
(1.07164 0.09086 0)
(0.993728 0.112155 0)
(0.901178 0.128027 0)
(0.797704 0.143071 0)
(0.68453 0.1541 0)
(0.562679 0.165044 0)
(0.435236 0.170658 0)
(0.303126 0.178286 0)
(0.165927 0.180614 0)
(0.0292626 0.183017 0)
(-0.111659 0.184853 0)
(-0.251295 0.182942 0)
(-0.389431 0.181314 0)
(-0.526495 0.178136 0)
(-0.659146 0.171196 0)
(-0.787753 0.166302 0)
(-0.910482 0.155342 0)
(-1.02492 0.145172 0)
(-1.13106 0.132753 0)
(-1.22661 0.117811 0)
(-1.31013 0.101853 0)
(-1.38123 0.0814511 0)
(-1.43773 0.0649833 0)
(-1.4796 0.0412943 0)
(0.0679706 0.087096 0)
(-0.0656031 0.145326 0)
(-0.209169 0.156183 0)
(-0.377258 0.157057 0)
(-0.53425 0.149455 0)
(-0.671431 0.132544 0)
(-0.785735 0.108379 0)
(-0.873645 0.0789975 0)
(-0.932181 0.0459739 0)
(-0.958931 0.0104787 0)
(-0.952591 -0.0258407 0)
(-0.912239 -0.0631106 0)
(-0.837065 -0.100382 0)
(-0.727284 -0.136556 0)
(-0.584072 -0.170371 0)
(-0.409924 -0.200419 0)
(-0.20726 -0.225093 0)
(0.0121157 -0.24509 0)
(0.24432 -0.252358 0)
(0.485875 -0.251851 0)
(0.721328 -0.241766 0)
(0.941913 -0.222021 0)
(1.13842 -0.193289 0)
(1.30272 -0.156853 0)
(1.42828 -0.114449 0)
(1.51059 -0.0680677 0)
(1.54717 -0.0197907 0)
(1.53771 0.0284366 0)
(1.48377 0.0748918 0)
(1.3881 0.118196 0)
(1.25475 0.157193 0)
(1.08852 0.190977 0)
(0.894767 0.218876 0)
(0.679226 0.240374 0)
(0.447955 0.255137 0)
(0.206726 0.263044 0)
(-0.0348255 0.266979 0)
(-0.271969 0.258157 0)
(-0.500746 0.244988 0)
(-0.712457 0.225868 0)
(-0.902645 0.201917 0)
(-1.06738 0.174304 0)
(-1.2042 0.144406 0)
(-1.31214 0.113595 0)
(-1.39156 0.0830663 0)
(-1.44392 0.0537103 0)
(-1.47135 0.0260604 0)
(-1.47622 0.000154768 0)
(-1.46045 -0.0242516 0)
(-1.42528 -0.04794 0)
(-1.37123 -0.0711468 0)
(-1.29829 -0.0941861 0)
(-1.20607 -0.117075 0)
(-1.0943 -0.139443 0)
(-0.963278 -0.160537 0)
(-0.814309 -0.179321 0)
(-0.649876 -0.194664 0)
(-0.473708 -0.205615 0)
(-0.289954 -0.211626 0)
(-0.106641 -0.214358 0)
(0.0723106 -0.208839 0)
(0.24562 -0.199031 0)
(0.407928 -0.18738 0)
(0.557092 -0.174413 0)
(0.693133 -0.16141 0)
(0.817223 -0.14934 0)
(0.931334 -0.138621 0)
(1.03761 -0.129061 0)
(1.13766 -0.119903 0)
(1.23191 -0.109928 0)
(1.31924 -0.0976725 0)
(1.39688 -0.0817015 0)
(1.46061 -0.0608339 0)
(1.50535 -0.0343945 0)
(1.5253 -0.00240553 0)
(1.51582 0.0343277 0)
(1.47343 0.074859 0)
(1.39495 0.117525 0)
(1.27974 0.160231 0)
(1.12893 0.200922 0)
(0.945488 0.237702 0)
(0.733706 0.268878 0)
(0.499829 0.293333 0)
(0.246432 0.309445 0)
(-0.0103766 0.319302 0)
(-0.267966 0.317282 0)
(-0.52596 0.307652 0)
(-0.768155 0.288282 0)
(-0.990492 0.259985 0)
(-1.1848 0.223 0)
(-1.34465 0.178294 0)
(-1.46414 0.127253 0)
(-1.53914 0.0720166 0)
(-1.56689 0.0145883 0)
(-1.54788 -0.0403614 0)
(-1.48458 -0.0923477 0)
(-1.38121 -0.136926 0)
(-1.24567 -0.171744 0)
(-1.08703 -0.19499 0)
(-0.915298 -0.206062 0)
(-0.739886 -0.205823 0)
(-0.56919 -0.198733 0)
(-0.414303 -0.190189 0)
(-0.283256 -0.171273 0)
(-0.174428 -0.150456 0)
(-0.0848495 -0.131402 0)
(-0.0107638 -0.119593 0)
(0.0636799 -0.10931 0)
(0.139963 -0.112325 0)
(0.216851 -0.120645 0)
(0.304994 -0.133391 0)
(0.406481 -0.147491 0)
(0.521689 -0.160092 0)
(0.647517 -0.168065 0)
(0.778429 -0.168675 0)
(0.907031 -0.159984 0)
(1.02498 -0.141131 0)
(1.12389 -0.112434 0)
(1.19624 -0.0753088 0)
(1.23663 -0.0320164 0)
(1.24079 0.0150634 0)
(1.20887 0.0614859 0)
(1.14207 0.106395 0)
(1.04343 0.146771 0)
(0.91788 0.181224 0)
(0.770807 0.209033 0)
(0.607558 0.230319 0)
(0.434014 0.245571 0)
(0.249463 0.255829 0)
(0.0690285 0.265009 0)
(-0.114518 0.264627 0)
(-0.304953 0.265615 0)
(-0.488152 0.261949 0)
(-0.669626 0.255137 0)
(-0.843739 0.243466 0)
(-1.00808 0.226155 0)
(-1.1578 0.202163 0)
(-1.28781 0.170843 0)
(-1.39276 0.132076 0)
(-1.4669 0.086323 0)
(-1.50682 0.0363721 0)
(-1.50891 -0.0206452 0)
(-1.46892 -0.0784359 0)
(-1.38866 -0.135676 0)
(-1.26947 -0.189819 0)
(-1.11473 -0.238431 0)
(-0.929752 -0.279792 0)
(-0.721583 -0.312078 0)
(-0.490554 -0.334695 0)
(-0.253476 -0.350895 0)
(-0.018874 -0.354001 0)
(0.217352 -0.345227 0)
(0.446412 -0.328485 0)
(0.657493 -0.302481 0)
(0.846346 -0.268229 0)
(1.008 -0.22713 0)
(1.13785 -0.18071 0)
(1.23357 -0.131211 0)
(1.294 -0.0807131 0)
(1.31972 -0.0321411 0)
(1.31524 0.00901975 0)
(1.28402 0.0464974 0)
(1.23112 0.0775496 0)
(1.1603 0.099577 0)
(1.08149 0.112233 0)
(1.00045 0.118202 0)
(0.918364 0.117631 0)
(0.843368 0.11403 0)
(0.774217 0.110974 0)
(0.708138 0.111864 0)
(0.641537 0.118736 0)
(0.568721 0.133239 0)
(0.484822 0.154961 0)
(0.384644 0.18213 0)
(0.266018 0.211335 0)
(0.129584 0.238228 0)
(-0.0239052 0.258546 0)
(-0.18883 0.268314 0)
(-0.35562 0.264997 0)
(-0.51599 0.248019 0)
(-0.660765 0.219168 0)
(-0.782866 0.181863 0)
(-0.878569 0.140323 0)
(-0.947125 0.0990672 0)
(-0.990648 0.0617428 0)
(-1.01284 0.030249 0)
(-1.01844 0.00518378 0)
(-1.01202 -0.0120088 0)
(-0.998144 -0.0238931 0)
(-0.979 -0.0319743 0)
(-0.957617 -0.035561 0)
(-0.935638 -0.0380598 0)
(-0.911899 -0.0418018 0)
(-0.887253 -0.0433831 0)
(-0.861075 -0.0488464 0)
(-0.83048 -0.0548294 0)
(-0.797141 -0.0616297 0)
(-0.757546 -0.0721494 0)
(-0.712135 -0.0809713 0)
(-0.661121 -0.0915361 0)
(-0.603287 -0.101122 0)
(-0.541239 -0.108919 0)
(-0.473561 -0.118053 0)
(-0.402185 -0.12309 0)
(-0.328004 -0.130564 0)
(-0.249462 -0.136281 0)
(-0.168244 -0.143048 0)
(-0.0825022 -0.150924 0)
(0.00886187 -0.159363 0)
(0.104882 -0.167286 0)
(0.206844 -0.177027 0)
(0.314107 -0.1821 0)
(0.424555 -0.188842 0)
(0.53894 -0.189117 0)
(0.652081 -0.187069 0)
(0.763627 -0.180465 0)
(0.86935 -0.167562 0)
(0.966117 -0.150986 0)
(1.05095 -0.128025 0)
(1.1206 -0.10194 0)
(1.17368 -0.0720246 0)
(1.20725 -0.0393101 0)
(1.22105 -0.00654884 0)
(1.21503 0.0264141 0)
(1.18952 0.0580682 0)
(1.1439 0.0911072 0)
(1.0807 0.117578 0)
(1.00169 0.144957 0)
(0.907972 0.165356 0)
(0.803411 0.18464 0)
(0.689196 0.198783 0)
(0.566427 0.212844 0)
(0.438023 0.220028 0)
(0.30528 0.229818 0)
(0.167286 0.232872 0)
(0.0299808 0.235947 0)
(-0.11154 0.238382 0)
(-0.251903 0.235997 0)
(-0.39065 0.233957 0)
(-0.528392 0.230022 0)
(-0.661894 0.221115 0)
(-0.791134 0.214927 0)
(-0.914662 0.200963 0)
(-1.02967 0.188061 0)
(-1.13646 0.172307 0)
(-1.23322 0.15295 0)
(-1.31911 0.132166 0)
(-1.39372 0.105134 0)
(-1.45255 0.0805174 0)
(-1.4929 0.042021 0)
(0.0897348 0.129938 0)
(-0.0543679 0.177131 0)
(-0.208127 0.186745 0)
(-0.379788 0.184512 0)
(-0.539934 0.174512 0)
(-0.680319 0.154853 0)
(-0.797065 0.12702 0)