/*--------------------------------*- C++ -*----------------------------------*\
| =========                 |                                                 |
| \\      /  F ield         | OpenFOAM: The Open Source CFD Toolbox           |
|  \\    /   O peration     | Version:  v1912                                 |
|   \\  /    A nd           | Website:  www.openfoam.com                      |
|    \\/     M anipulation  |                                                 |
\*---------------------------------------------------------------------------*/
FoamFile
{
    version     2.0;
    format      ascii;
    class       volScalarField;
    location    "30";
    object      k;
}
// * * * * * * * * * * * * * * * * * * * * * * * * * * * * * * * * * * * * * //

dimensions      [0 2 -2 0 0 0 0];


internalField   nonuniform List<scalar> 
14268
(
4.1584e-09
4.31581e-09
4.29477e-09
4.17281e-09
4.04898e-09
3.80404e-09
3.41772e-09
3.15963e-09
8.30758e-08
8.4234e-08
8.50675e-08
8.46445e-08
8.21312e-08
7.59531e-08
6.68285e-08
6.10934e-08
1.3471e-07
1.35132e-07
1.35432e-07
1.3523e-07
1.34154e-07
1.31545e-07
1.2713e-07
1.23705e-07
1.44469e-07
1.44593e-07
1.44635e-07
1.44587e-07
1.44362e-07
1.43912e-07
1.43005e-07
1.42382e-07
1.45953e-07
1.45975e-07
1.45956e-07
1.45947e-07
1.45904e-07
1.46e-07
1.46465e-07
1.46783e-07
1.45815e-07
1.45859e-07
1.45839e-07
1.45851e-07
1.45913e-07
1.46163e-07
1.46674e-07
1.47261e-07
1.46084e-07
1.46094e-07
1.4607e-07
1.46072e-07
1.46064e-07
1.46323e-07
1.46946e-07
1.47599e-07
1.4579e-07
1.45839e-07
1.45821e-07
1.45836e-07
1.45903e-07
1.46137e-07
1.46808e-07
1.47485e-07
1.46082e-07
1.46091e-07
1.46074e-07
1.46087e-07
1.46097e-07
1.46373e-07
1.46968e-07
1.47611e-07
1.45774e-07
1.45829e-07
1.45801e-07
1.45811e-07
1.45864e-07
1.46095e-07
1.46768e-07
1.47477e-07
1.46067e-07
1.46074e-07
1.46087e-07
1.46119e-07
1.46149e-07
1.46434e-07
1.47035e-07
1.47671e-07
1.45821e-07
1.45901e-07
1.45862e-07
1.45848e-07
1.45873e-07
1.46072e-07
1.4671e-07
1.47458e-07
1.46249e-07
1.4629e-07
1.46399e-07
1.46522e-07
1.46603e-07
1.46747e-07
1.47095e-07
1.47575e-07
1.46125e-07
1.46196e-07
1.4621e-07
1.46219e-07
1.46544e-07
1.46732e-07
1.47448e-07
1.4765e-07
1.46092e-07
1.46087e-07
1.46094e-07
1.46105e-07
1.4634e-07
1.46788e-07
1.48883e-07
1.49091e-07
1.45884e-07
1.45877e-07
1.45788e-07
1.45706e-07
1.45647e-07
1.45902e-07
1.47225e-07
1.48981e-07
1.46007e-07
1.46058e-07
1.46117e-07
1.46212e-07
1.46306e-07
1.46554e-07
1.47377e-07
1.48451e-07
1.45957e-07
1.45929e-07
1.45814e-07
1.45694e-07
1.45628e-07
1.45846e-07
1.46472e-07
1.47691e-07
1.45898e-07
1.45989e-07
1.46108e-07
1.46302e-07
1.4645e-07
1.46713e-07
1.47331e-07
1.47674e-07
1.46008e-07
1.45937e-07
1.45782e-07
1.45575e-07
1.45453e-07
1.4568e-07
1.46239e-07
1.47733e-07
1.45765e-07
1.45912e-07
1.46108e-07
1.46454e-07
1.46707e-07
1.46978e-07
1.47522e-07
1.47504e-07
1.46017e-07
1.45987e-07
1.45916e-07
1.45854e-07
1.45822e-07
1.46138e-07
1.46928e-07
1.47766e-07
1.45824e-07
1.45959e-07
1.46037e-07
1.4624e-07
1.46503e-07
1.4692e-07
1.47373e-07
1.47741e-07
1.48371e-07
1.52377e-07
1.50806e-07
1.47534e-07
1.46068e-07
1.46204e-07
1.47391e-07
1.48082e-07
4.0147e-07
4.68815e-07
5.38757e-07
5.01481e-07
3.51205e-07
2.0945e-07
1.33242e-07
1.02285e-07
2.64597e-07
1.97764e-07
1.44926e-07
1.16838e-07
9.50579e-08
7.44553e-08
6.74009e-08
1.22192e-07
8.47872e-06
1.21834e-05
1.58129e-05
1.81192e-05
1.87761e-05
1.5777e-05
1.30717e-05
1.23939e-05
0.000196113
0.000224093
0.000255486
0.000281956
0.000313365
0.000326169
0.00036051
0.000318087
0.566507
0.576728
0.58374
0.583777
0.582467
0.578856
0.572092
0.56564
1.58258
1.54725
1.50968
1.47108
1.42919
1.39657
1.35177
1.32724
1.20754
1.19117
1.17228
1.15099
1.12733
1.1035
1.0766
1.05255
1.21998
1.20681
1.18917
1.16828
1.14417
1.12015
1.09645
1.07593
1.03144
1.02402
1.01215
0.997432
0.980524
0.964375
0.953362
0.94353
0.917301
0.913995
0.905495
0.8938
0.88001
0.870001
0.866526
0.868649
0.782987
0.782319
0.777566
0.770308
0.762195
0.759792
0.764565
0.776237
0.65916
0.660329
0.657367
0.652714
0.649394
0.652777
0.664814
0.68477
0.538549
0.541116
0.539608
0.53766
0.538514
0.546977
0.565665
0.593443
0.423111
0.425771
0.424623
0.42456
0.428616
0.442205
0.466732
0.499808
0.314275
0.316707
0.316106
0.317988
0.325537
0.343363
0.371747
0.408241
0.215609
0.217525
0.217431
0.221266
0.231861
0.252409
0.282201
0.318492
0.131336
0.132699
0.133464
0.139286
0.151604
0.172457
0.200783
0.234108
0.062749
0.0646572
0.0669588
0.0741462
0.0860996
0.104553
0.128883
0.156877
0.0169318
0.0190019
0.0218372
0.0278751
0.0368203
0.0503605
0.0683587
0.0893624
0.00108206
0.00156057
0.00244177
0.00452194
0.00818983
0.0145591
0.0240753
0.0364131
3.15232e-06
7.89667e-06
2.52239e-05
0.000105434
0.000379801
0.00119695
0.00306403
0.00639534
1.46053e-07
1.46339e-07
1.49931e-07
1.99116e-07
7.82674e-07
6.08024e-06
3.62208e-05
0.00014455
1.46234e-07
1.4617e-07
1.46052e-07
1.45907e-07
1.46021e-07
1.46967e-07
1.56084e-07
2.45026e-07
1.46462e-07
1.46408e-07
1.46378e-07
1.46473e-07
1.46551e-07
1.46395e-07
1.46353e-07
1.46799e-07
1.46488e-07
1.46421e-07
1.46385e-07
1.46344e-07
1.46382e-07
1.46466e-07
1.46566e-07
1.46568e-07
1.46747e-07
1.46709e-07
1.46699e-07
1.46751e-07
1.4675e-07
1.46567e-07
1.46356e-07
1.46005e-07
1.46711e-07
1.46673e-07
1.46644e-07
1.46696e-07
1.46782e-07
1.46918e-07
1.47044e-07
1.47091e-07
1.46887e-07
1.4686e-07
1.46819e-07
1.46835e-07
1.46768e-07
1.46671e-07
1.46453e-07
1.46161e-07
1.46917e-07
1.46908e-07
1.46877e-07
1.46955e-07
1.47017e-07
1.47156e-07
1.47282e-07
1.47368e-07
1.46975e-07
1.46973e-07
1.46902e-07
1.4692e-07
1.46839e-07
1.4678e-07
1.46566e-07
1.46308e-07
1.47036e-07
1.47054e-07
1.47015e-07
1.4711e-07
1.47149e-07
1.47296e-07
1.47406e-07
1.47506e-07
1.47023e-07
1.47076e-07
1.46974e-07
1.47013e-07
1.46917e-07
1.46882e-07
1.46677e-07
1.46452e-07
1.47034e-07
1.47179e-07
1.47105e-07
1.47216e-07
1.47227e-07
1.47379e-07
1.47454e-07
1.47541e-07
1.47079e-07
1.47115e-07
1.47029e-07
1.47082e-07
1.46977e-07
1.46971e-07
1.4678e-07
1.46596e-07
1.47156e-07
1.4723e-07
1.47133e-07
1.473e-07
1.47264e-07
1.47412e-07
1.47445e-07
1.47521e-07
1.47116e-07
1.47165e-07
1.47036e-07
1.4713e-07
1.47019e-07
1.47029e-07
1.46864e-07
1.46733e-07
1.47227e-07
1.4722e-07
1.47182e-07
1.47308e-07
1.47261e-07
1.47412e-07
1.474e-07
1.47468e-07
1.47168e-07
1.47144e-07
1.471e-07
1.4715e-07
1.47027e-07
1.47066e-07
1.46929e-07
1.4685e-07
1.47242e-07
1.47241e-07
1.47232e-07
1.47284e-07
1.47268e-07
1.47369e-07
1.47346e-07
1.4739e-07
1.47185e-07
1.47169e-07
1.47126e-07
1.47143e-07
1.47053e-07
1.4708e-07
1.46963e-07
1.46923e-07
1.47242e-07
1.47251e-07
1.4723e-07
1.47285e-07
1.47244e-07
1.47332e-07
1.47281e-07
1.47314e-07
1.47191e-07
1.47186e-07
1.47139e-07
1.47159e-07
1.47062e-07
1.47097e-07
1.46985e-07
1.46976e-07
1.47236e-07
1.47249e-07
1.47219e-07
1.47267e-07
1.47209e-07
1.47294e-07
1.47218e-07
1.47247e-07
1.47195e-07
1.47198e-07
1.47148e-07
1.47169e-07
1.47072e-07
1.4712e-07
1.47e-07
1.47015e-07
1.47226e-07
1.47238e-07
1.47202e-07
1.47242e-07
1.47173e-07
1.47249e-07
1.47154e-07
1.47189e-07
1.47202e-07
1.47205e-07
1.47157e-07
1.4718e-07
1.47089e-07
1.47137e-07
1.47016e-07
1.47045e-07
1.47226e-07
1.47229e-07
1.47188e-07
1.47216e-07
1.47142e-07
1.47201e-07
1.47095e-07
1.47134e-07
1.47218e-07
1.47218e-07
1.47174e-07
1.4719e-07
1.4711e-07
1.47153e-07
1.47037e-07
1.47075e-07
1.47235e-07
1.47235e-07
1.47195e-07
1.47211e-07
1.47138e-07
1.47178e-07
1.47067e-07
1.471e-07
1.47212e-07
1.47213e-07
1.47182e-07
1.47197e-07
1.4713e-07
1.47165e-07
1.47058e-07
1.47092e-07
1.47195e-07
1.47195e-07
1.47167e-07
1.47178e-07
1.47121e-07
1.47154e-07
1.47054e-07
1.47084e-07
1.47167e-07
1.47169e-07
1.47146e-07
1.47153e-07
1.47099e-07
1.47124e-07
1.47033e-07
1.47061e-07
1.47143e-07
1.47145e-07
1.47123e-07
1.47131e-07
1.47083e-07
1.471e-07
1.47019e-07
1.47036e-07
1.47116e-07
1.47113e-07
1.4709e-07
1.47091e-07
1.47048e-07
1.47054e-07
1.46986e-07
1.46993e-07
1.47095e-07
1.47091e-07
1.47072e-07
1.47068e-07
1.47034e-07
1.47034e-07
1.46981e-07
1.4698e-07
1.47036e-07
1.47035e-07
1.47022e-07
1.47017e-07
1.46991e-07
1.46985e-07
1.46945e-07
1.46937e-07
1.46984e-07
1.46983e-07
1.46974e-07
1.46968e-07
1.46948e-07
1.46939e-07
1.46908e-07
1.46896e-07
1.4694e-07
1.4694e-07
1.46931e-07
1.46925e-07
1.46909e-07
1.46898e-07
1.46873e-07
1.46858e-07
1.46935e-07
1.46929e-07
1.46917e-07
1.46907e-07
1.46889e-07
1.46874e-07
1.4685e-07
1.46832e-07
1.47229e-07
1.47153e-07
1.47086e-07
1.47028e-07
1.46976e-07
1.46931e-07
1.46889e-07
1.46853e-07
1.51144e-07
1.5043e-07
1.49793e-07
1.49234e-07
1.48747e-07
1.4833e-07
1.47975e-07
1.47678e-07
1.8895e-07
1.84347e-07
1.79948e-07
1.75785e-07
1.71884e-07
1.68265e-07
1.64946e-07
1.61934e-07
4.56641e-07
4.4191e-07
4.26558e-07
4.10636e-07
3.94221e-07
3.7738e-07
3.60209e-07
3.42786e-07
3.40299e-09
3.96414e-09
4.20512e-09
4.22505e-09
4.25238e-09
4.26093e-09
4.28331e-09
4.30319e-09
4.32242e-09
4.34763e-09
4.37821e-09
4.40578e-09
4.41962e-09
4.42015e-09
4.41783e-09
4.40889e-09
4.39657e-09
4.38755e-09
4.39157e-09
4.40463e-09
4.41521e-09
4.42386e-09
4.43236e-09
4.43612e-09
4.44161e-09
4.44961e-09
4.45647e-09
4.46482e-09
4.47239e-09
4.46598e-09
4.44811e-09
4.40836e-09
4.36706e-09
4.34901e-09
4.33595e-09
4.34137e-09
4.36465e-09
4.33876e-09
4.29368e-09
4.30075e-09
4.34177e-09
4.39066e-09
4.4204e-09
4.38595e-09
4.30209e-09
4.2331e-09
4.20315e-09
4.22101e-09
4.25194e-09
4.25543e-09
4.22177e-09
4.1768e-09
4.1619e-09
4.15834e-09
4.15818e-09
4.18882e-09
4.20287e-09
4.20187e-09
4.21942e-09
4.27625e-09
4.36457e-09
4.46653e-09
4.56894e-09
4.68927e-09
4.82734e-09
4.9146e-09
5.06863e-09
5.22438e-09
5.32669e-09
5.36837e-09
5.34965e-09
5.28955e-09
5.27055e-09
5.29421e-09
5.31312e-09
5.23372e-09
5.03887e-09
4.83995e-09
4.78202e-09
4.83653e-09
4.90003e-09
4.95667e-09
4.98838e-09
4.9433e-09
4.80878e-09
4.66375e-09
4.5401e-09
4.45594e-09
4.42087e-09
4.41668e-09
4.42883e-09
4.4647e-09
4.53045e-09
4.62716e-09
4.73309e-09
4.79171e-09
4.79833e-09
4.75302e-09
4.68772e-09
4.61719e-09
4.5493e-09
4.51631e-09
4.53293e-09
4.59525e-09
4.68302e-09
4.77845e-09
4.86981e-09
4.94983e-09
5.01269e-09
5.05409e-09
5.07208e-09
5.06611e-09
5.03854e-09
4.99406e-09
4.93879e-09
4.8789e-09
4.82103e-09
4.77245e-09
4.73535e-09
4.71886e-09
4.71772e-09
4.72563e-09
4.74069e-09
4.7611e-09
4.78266e-09
4.79773e-09
4.7992e-09
4.79916e-09
4.79624e-09
4.78744e-09
4.77132e-09
4.74779e-09
4.71786e-09
4.68319e-09
4.64569e-09
4.60711e-09
4.56953e-09
4.53473e-09
4.5042e-09
4.47933e-09
4.47913e-09
4.55634e-09
4.7085e-09
4.92092e-09
5.17117e-09
5.43027e-09
5.66496e-09
5.83859e-09
5.92071e-09
5.89089e-09
5.80418e-09
5.70888e-09
5.60824e-09
5.50705e-09
5.41146e-09
5.3269e-09
6.68308e-08
8.0371e-08
8.60971e-08
8.64591e-08
8.70006e-08
8.70988e-08
8.74955e-08
8.77685e-08
8.79827e-08
8.81567e-08
8.82674e-08
8.83197e-08
8.83314e-08
8.82802e-08
8.82382e-08
8.81873e-08
8.8155e-08
8.81443e-08
8.81942e-08
8.82624e-08
8.8308e-08
8.8333e-08
8.83536e-08
8.83588e-08
8.83653e-08
8.83732e-08
8.83678e-08
8.83471e-08
8.83181e-08
8.82391e-08
8.81207e-08
8.79362e-08
8.77698e-08
8.76284e-08
8.74733e-08
8.73949e-08
8.72177e-08
8.66861e-08
8.62597e-08
8.63989e-08
8.68313e-08
8.71313e-08
8.69904e-08
8.64599e-08
8.57894e-08
8.51437e-08
8.48679e-08
8.50939e-08
8.53487e-08
8.51772e-08
8.44532e-08
8.34429e-08
8.29357e-08
8.2736e-08
8.25026e-08
8.23371e-08
8.18457e-08
8.1176e-08
8.07001e-08
8.08103e-08
8.15005e-08
8.23678e-08
8.33134e-08
8.44662e-08
8.5461e-08
8.5962e-08
8.66839e-08
8.81191e-08
8.91077e-08
8.91446e-08
8.87665e-08
8.84316e-08
8.8313e-08
8.83922e-08
8.85038e-08
8.83617e-08
8.78482e-08
8.7191e-08
8.66969e-08
8.65512e-08
8.66768e-08
8.68991e-08
8.69415e-08
8.66453e-08
8.61939e-08
8.5771e-08
8.54532e-08
8.52836e-08
8.52759e-08
8.54177e-08
8.56677e-08
8.59764e-08
8.63087e-08
8.66245e-08
8.68914e-08
8.7112e-08
8.72405e-08
8.71922e-08
8.7137e-08
8.71123e-08
8.69592e-08
8.68285e-08
8.68277e-08
8.69482e-08
8.71449e-08
8.73779e-08
8.76224e-08
8.78646e-08
8.80858e-08
8.82698e-08
8.84071e-08
8.8487e-08
8.85076e-08
8.84814e-08
8.8423e-08
8.83483e-08
8.82733e-08
8.82143e-08
8.81803e-08
8.81491e-08
8.81456e-08
8.81778e-08
8.82462e-08
8.83431e-08
8.8451e-08
8.85461e-08
8.86018e-08
8.85862e-08
8.84788e-08
8.82638e-08
8.79343e-08
8.74934e-08
8.69557e-08
8.63465e-08
8.56963e-08
8.50387e-08
8.44201e-08
8.38809e-08
8.34605e-08
8.31935e-08
8.31015e-08
8.31894e-08
8.34505e-08
8.38561e-08
8.43586e-08
8.48972e-08
8.54028e-08
8.57942e-08
8.60039e-08
8.5984e-08
8.57006e-08
8.51663e-08
8.44502e-08
8.36554e-08
8.29148e-08
8.23576e-08
1.27074e-07
1.33581e-07
1.35819e-07
1.36002e-07
1.36182e-07
1.36192e-07
1.36366e-07
1.36449e-07
1.36532e-07
1.36593e-07
1.3663e-07
1.36639e-07
1.36645e-07
1.36619e-07
1.36611e-07
1.3659e-07
1.36581e-07
1.36572e-07
1.36589e-07
1.36611e-07
1.36627e-07
1.36632e-07
1.36639e-07
1.36638e-07
1.36638e-07
1.36637e-07
1.36632e-07
1.36618e-07
1.36611e-07
1.36582e-07
1.36543e-07
1.36482e-07
1.36421e-07
1.36367e-07
1.36317e-07
1.36275e-07
1.36207e-07
1.36028e-07
1.3587e-07
1.35919e-07
1.36081e-07
1.36176e-07
1.36115e-07
1.35932e-07
1.35693e-07
1.35463e-07
1.3536e-07
1.35428e-07
1.35515e-07
1.35443e-07
1.35167e-07
1.3476e-07
1.34543e-07
1.34484e-07
1.34392e-07
1.3431e-07
1.3411e-07
1.33816e-07
1.33562e-07
1.33554e-07
1.33824e-07
1.34149e-07
1.34474e-07
1.3489e-07
1.35254e-07
1.3538e-07
1.35576e-07
1.36234e-07
1.36721e-07
1.36767e-07
1.36622e-07
1.36496e-07
1.36448e-07
1.36472e-07
1.36521e-07
1.36484e-07
1.36318e-07
1.36084e-07
1.35859e-07
1.3577e-07
1.35811e-07
1.35909e-07
1.35944e-07
1.3583e-07
1.35664e-07
1.35513e-07
1.35399e-07
1.3534e-07
1.35341e-07
1.35406e-07
1.35522e-07
1.3566e-07
1.35803e-07
1.35923e-07
1.36008e-07
1.36085e-07
1.36142e-07
1.36136e-07
1.36136e-07
1.36152e-07
1.36105e-07
1.36058e-07
1.3605e-07
1.36082e-07
1.36138e-07
1.36206e-07
1.3628e-07
1.36359e-07
1.36434e-07
1.36497e-07
1.36546e-07
1.36578e-07
1.3659e-07
1.36589e-07
1.36576e-07
1.36555e-07
1.36534e-07
1.36518e-07
1.3651e-07
1.36496e-07
1.36491e-07
1.36501e-07
1.36525e-07
1.3656e-07
1.366e-07
1.36634e-07
1.36654e-07
1.36639e-07
1.36581e-07
1.36474e-07
1.36315e-07
1.36105e-07
1.35854e-07
1.35574e-07
1.35278e-07
1.3498e-07
1.34706e-07
1.34477e-07
1.34312e-07
1.34226e-07
1.34219e-07
1.34269e-07
1.34371e-07
1.34516e-07
1.3469e-07
1.34875e-07
1.35056e-07
1.35199e-07
1.35281e-07
1.35288e-07
1.35172e-07
1.34927e-07
1.34595e-07
1.34226e-07
1.33888e-07
1.33645e-07
1.43059e-07
1.44342e-07
1.44771e-07
1.44823e-07
1.44855e-07
1.44833e-07
1.44903e-07
1.44903e-07
1.44932e-07
1.44945e-07
1.44953e-07
1.44955e-07
1.44969e-07
1.44956e-07
1.44964e-07
1.44957e-07
1.4496e-07
1.44955e-07
1.44962e-07
1.44969e-07
1.44973e-07
1.44972e-07
1.44973e-07
1.44975e-07
1.44978e-07
1.44979e-07
1.44978e-07
1.44972e-07
1.4497e-07
1.44963e-07
1.44961e-07
1.44951e-07
1.44934e-07
1.44921e-07
1.4492e-07
1.44909e-07
1.44892e-07
1.44862e-07
1.44817e-07
1.44828e-07
1.44874e-07
1.44891e-07
1.44866e-07
1.44827e-07
1.44779e-07
1.44739e-07
1.4472e-07
1.44724e-07
1.44748e-07
1.44734e-07
1.44665e-07
1.44567e-07
1.44505e-07
1.44505e-07
1.44492e-07
1.44452e-07
1.44416e-07
1.44355e-07
1.44267e-07
1.4426e-07
1.4431e-07
1.444e-07
1.44463e-07
1.44545e-07
1.44658e-07
1.44685e-07
1.44689e-07
1.44891e-07
1.45045e-07
1.45058e-07
1.4501e-07
1.4497e-07
1.44952e-07
1.44955e-07
1.44974e-07
1.44969e-07
1.44936e-07
1.44884e-07
1.44814e-07
1.44786e-07
1.44791e-07
1.44811e-07
1.44833e-07
1.44811e-07
1.44775e-07
1.44746e-07
1.44723e-07
1.44712e-07
1.44712e-07
1.44727e-07
1.44753e-07
1.44785e-07
1.44821e-07
1.44852e-07
1.4487e-07
1.44885e-07
1.44901e-07
1.44897e-07
1.44901e-07
1.44914e-07
1.44901e-07
1.44891e-07
1.44888e-07
1.44893e-07
1.44903e-07
1.44915e-07
1.44929e-07
1.44948e-07
1.44967e-07
1.44981e-07
1.44993e-07
1.45e-07
1.45003e-07
1.45001e-07
1.44996e-07
1.44991e-07
1.44986e-07
1.44981e-07
1.44982e-07
1.44977e-07
1.44975e-07
1.44977e-07
1.44984e-07
1.44993e-07
1.45003e-07
1.45012e-07
1.45017e-07
1.45013e-07
1.44996e-07
1.44965e-07
1.44921e-07
1.44865e-07
1.448e-07
1.44731e-07
1.4466e-07
1.44587e-07
1.44522e-07
1.4447e-07
1.44434e-07
1.44419e-07
1.4442e-07
1.4443e-07
1.44451e-07
1.44478e-07
1.44512e-07
1.44552e-07
1.44597e-07
1.44637e-07
1.44661e-07
1.44664e-07
1.4463e-07
1.44562e-07
1.44477e-07
1.44388e-07
1.44304e-07
1.44241e-07
1.46495e-07
1.4601e-07
1.4589e-07
1.45966e-07
1.45954e-07
1.45936e-07
1.45976e-07
1.45959e-07
1.4597e-07
1.45969e-07
1.45972e-07
1.45966e-07
1.45973e-07
1.45963e-07
1.4597e-07
1.45964e-07
1.45966e-07
1.45958e-07
1.45959e-07
1.45962e-07
1.45965e-07
1.45962e-07
1.45965e-07
1.45961e-07
1.45959e-07
1.45958e-07
1.4596e-07
1.45954e-07
1.45963e-07
1.4596e-07
1.4596e-07
1.45957e-07
1.45945e-07
1.45936e-07
1.45944e-07
1.4593e-07
1.45931e-07
1.45945e-07
1.45933e-07
1.4593e-07
1.45944e-07
1.45939e-07
1.45942e-07
1.45951e-07
1.4594e-07
1.45934e-07
1.45928e-07
1.45916e-07
1.45916e-07
1.45912e-07
1.4591e-07
1.459e-07
1.45884e-07
1.45899e-07
1.45893e-07
1.45871e-07
1.45879e-07
1.45886e-07
1.45859e-07
1.45844e-07
1.45863e-07
1.45883e-07
1.45878e-07
1.45879e-07
1.45936e-07
1.45949e-07
1.45908e-07
1.45988e-07
1.4605e-07
1.46049e-07
1.46021e-07
1.45997e-07
1.45985e-07
1.45982e-07
1.45994e-07
1.45994e-07
1.45988e-07
1.45976e-07
1.45946e-07
1.45937e-07
1.45932e-07
1.45931e-07
1.45948e-07
1.45949e-07
1.45942e-07
1.45942e-07
1.45941e-07
1.45939e-07
1.45937e-07
1.45935e-07
1.45934e-07
1.45934e-07
1.45942e-07
1.45949e-07
1.45951e-07
1.45951e-07
1.45955e-07
1.4595e-07
1.45952e-07
1.4596e-07
1.45954e-07
1.45954e-07
1.45952e-07
1.45953e-07
1.45954e-07
1.45954e-07
1.45956e-07
1.45963e-07
1.45972e-07
1.45976e-07
1.45979e-07
1.45982e-07
1.45982e-07
1.45981e-07
1.45979e-07
1.45977e-07
1.45974e-07
1.45973e-07
1.45973e-07
1.45971e-07
1.45971e-07
1.45974e-07
1.45978e-07
1.45983e-07
1.45988e-07
1.45992e-07
1.45994e-07
1.45993e-07
1.4599e-07
1.45984e-07
1.45974e-07
1.45961e-07
1.45948e-07
1.4594e-07
1.45933e-07
1.45924e-07
1.45917e-07
1.45914e-07
1.45916e-07
1.45917e-07
1.45918e-07
1.45915e-07
1.45911e-07
1.45908e-07
1.45905e-07
1.45907e-07
1.45919e-07
1.45931e-07
1.45937e-07
1.45936e-07
1.45922e-07
1.45901e-07
1.45885e-07
1.45875e-07
1.45865e-07
1.45851e-07
1.46752e-07
1.46025e-07
1.45934e-07
1.45951e-07
1.45947e-07
1.45922e-07
1.45965e-07
1.45945e-07
1.4596e-07
1.45961e-07
1.45963e-07
1.45964e-07
1.45978e-07
1.45968e-07
1.45979e-07
1.45975e-07
1.4598e-07
1.45978e-07
1.45983e-07
1.45986e-07
1.45989e-07
1.45986e-07
1.45987e-07
1.45993e-07
1.45999e-07
1.45999e-07
1.45995e-07
1.45993e-07
1.45986e-07
1.45986e-07
1.45992e-07
1.45995e-07
1.45989e-07
1.45984e-07
1.45993e-07
1.45988e-07
1.45983e-07
1.45983e-07
1.45961e-07
1.45968e-07
1.45988e-07
1.45987e-07
1.45971e-07
1.45962e-07
1.45955e-07
1.45957e-07
1.45957e-07
1.45946e-07
1.45955e-07
1.45958e-07
1.4594e-07
1.4593e-07
1.45912e-07
1.4593e-07
1.45935e-07
1.45912e-07
1.45928e-07
1.45943e-07
1.45918e-07
1.45921e-07
1.45918e-07
1.45949e-07
1.45949e-07
1.45948e-07
1.46e-07
1.46012e-07
1.4597e-07
1.46032e-07
1.46081e-07
1.46079e-07
1.46055e-07
1.46036e-07
1.46026e-07
1.46024e-07
1.46036e-07
1.46037e-07
1.46033e-07
1.46025e-07
1.46e-07
1.45995e-07
1.45991e-07
1.45986e-07
1.46004e-07
1.46009e-07
1.46008e-07
1.46012e-07
1.46013e-07
1.46013e-07
1.46011e-07
1.46009e-07
1.46005e-07
1.46002e-07
1.46008e-07
1.46015e-07
1.46017e-07
1.46016e-07
1.4602e-07
1.46014e-07
1.46014e-07
1.46022e-07
1.46016e-07
1.46015e-07
1.46014e-07
1.46015e-07
1.46015e-07
1.46015e-07
1.46015e-07
1.4602e-07
1.46027e-07
1.46029e-07
1.46032e-07
1.46033e-07
1.46033e-07
1.46034e-07
1.46033e-07
1.4603e-07
1.46026e-07
1.46022e-07
1.46023e-07
1.4602e-07
1.4602e-07
1.46021e-07
1.46023e-07
1.46026e-07
1.4603e-07
1.46033e-07
1.46034e-07
1.46034e-07
1.46032e-07
1.46026e-07
1.46019e-07
1.46013e-07
1.46008e-07
1.46006e-07
1.46006e-07
1.46006e-07
1.46008e-07
1.46012e-07
1.46015e-07
1.46016e-07
1.46013e-07
1.46008e-07
1.46003e-07
1.45997e-07
1.45991e-07
1.4599e-07
1.45999e-07
1.46008e-07
1.46014e-07
1.46013e-07
1.46e-07
1.45985e-07
1.45978e-07
1.45977e-07
1.45974e-07
1.45963e-07
1.46979e-07
1.46164e-07
1.4597e-07
1.46069e-07
1.46052e-07
1.46036e-07
1.46072e-07
1.46053e-07
1.4606e-07
1.46057e-07
1.46058e-07
1.46049e-07
1.46055e-07
1.46045e-07
1.46052e-07
1.46046e-07
1.46047e-07
1.46037e-07
1.46037e-07
1.46037e-07
1.46039e-07
1.46036e-07
1.4604e-07
1.46029e-07
1.46026e-07
1.46027e-07
1.4603e-07
1.46025e-07
1.46039e-07
1.46035e-07
1.46033e-07
1.46031e-07
1.46019e-07
1.46013e-07
1.46023e-07
1.46009e-07
1.46012e-07
1.46034e-07
1.46026e-07
1.46015e-07
1.46029e-07
1.46021e-07
1.46024e-07
1.46045e-07
1.46042e-07
1.46043e-07
1.46039e-07
1.46023e-07
1.4602e-07
1.46014e-07
1.46026e-07
1.46029e-07
1.46021e-07
1.46037e-07
1.46034e-07
1.46015e-07
1.46029e-07
1.4605e-07
1.46033e-07
1.4602e-07
1.46038e-07
1.46048e-07
1.46035e-07
1.46017e-07
1.46064e-07
1.46075e-07
1.46028e-07
1.46084e-07
1.46133e-07
1.4613e-07
1.46106e-07
1.46085e-07
1.46074e-07
1.4607e-07
1.46081e-07
1.46082e-07
1.4608e-07
1.46074e-07
1.46049e-07
1.46044e-07
1.46038e-07
1.46033e-07
1.4605e-07
1.46054e-07
1.46053e-07
1.46057e-07
1.46059e-07
1.46058e-07
1.46055e-07
1.46051e-07
1.46046e-07
1.46042e-07
1.46046e-07
1.46051e-07
1.46051e-07
1.46049e-07
1.46051e-07
1.46047e-07
1.46047e-07
1.46053e-07
1.46047e-07
1.46047e-07
1.46046e-07
1.46047e-07
1.46047e-07
1.46046e-07
1.46046e-07
1.46051e-07
1.46057e-07
1.46059e-07
1.46062e-07
1.46063e-07
1.46063e-07
1.46061e-07
1.46059e-07
1.46057e-07
1.46056e-07
1.46055e-07
1.46056e-07
1.46054e-07
1.46055e-07
1.46057e-07
1.4606e-07
1.46065e-07
1.46069e-07
1.46072e-07
1.46074e-07
1.46074e-07
1.46073e-07
1.4607e-07
1.46065e-07
1.46057e-07
1.46051e-07
1.46051e-07
1.46053e-07
1.46054e-07
1.46056e-07
1.46062e-07
1.46068e-07
1.46072e-07
1.4607e-07
1.46066e-07
1.4606e-07
1.46052e-07
1.46045e-07
1.46043e-07
1.46051e-07
1.4606e-07
1.46065e-07
1.46065e-07
1.46056e-07
1.46044e-07
1.46041e-07
1.46044e-07
1.46046e-07
1.46041e-07
1.46858e-07
1.46058e-07
1.4597e-07
1.45961e-07
1.45956e-07
1.45929e-07
1.45973e-07
1.45952e-07
1.45969e-07
1.4597e-07
1.45972e-07
1.45977e-07
1.45994e-07
1.45984e-07
1.45995e-07
1.45991e-07
1.45997e-07
1.45997e-07
1.46001e-07
1.46006e-07
1.4601e-07
1.46007e-07
1.46006e-07
1.46018e-07
1.46019e-07
1.46015e-07
1.46012e-07
1.46007e-07
1.46e-07
1.46001e-07
1.46007e-07
1.4601e-07
1.46004e-07
1.45998e-07
1.46006e-07
1.46001e-07
1.45998e-07
1.45994e-07
1.45973e-07
1.45986e-07
1.46e-07
1.46e-07
1.45991e-07
1.45976e-07
1.45963e-07
1.45965e-07
1.45963e-07
1.45953e-07
1.45963e-07
1.45972e-07
1.45951e-07
1.45941e-07
1.45921e-07
1.45942e-07
1.45946e-07
1.45924e-07
1.45942e-07
1.45959e-07
1.45938e-07
1.45943e-07
1.45934e-07
1.45964e-07
1.45962e-07
1.45964e-07
1.46021e-07
1.46035e-07
1.4599e-07
1.46047e-07
1.46092e-07
1.4609e-07
1.46067e-07
1.46047e-07
1.46037e-07
1.46035e-07
1.46046e-07
1.46048e-07
1.46045e-07
1.46039e-07
1.46015e-07
1.46011e-07
1.46006e-07
1.46001e-07
1.46019e-07
1.46025e-07
1.46024e-07
1.46028e-07
1.4603e-07
1.4603e-07
1.46028e-07
1.46025e-07
1.46019e-07
1.46015e-07
1.46019e-07
1.46025e-07
1.46027e-07
1.46026e-07
1.4603e-07
1.46024e-07
1.46024e-07
1.46033e-07
1.46027e-07
1.46027e-07
1.46025e-07
1.46025e-07
1.46026e-07
1.46025e-07
1.46026e-07
1.46031e-07
1.46037e-07
1.4604e-07
1.46043e-07
1.46044e-07
1.46044e-07
1.46043e-07
1.4604e-07
1.46038e-07
1.46035e-07
1.46032e-07
1.46033e-07
1.4603e-07
1.46029e-07
1.46031e-07
1.46033e-07
1.46036e-07
1.4604e-07
1.46042e-07
1.46044e-07
1.46044e-07
1.46042e-07
1.46038e-07
1.46032e-07
1.46027e-07
1.46024e-07
1.46024e-07
1.46028e-07
1.4603e-07
1.46035e-07
1.46041e-07
1.46046e-07
1.46049e-07
1.46046e-07
1.4604e-07
1.46034e-07
1.46027e-07
1.4602e-07
1.46018e-07
1.46026e-07
1.46035e-07
1.46039e-07
1.46037e-07
1.46026e-07
1.46014e-07
1.46011e-07
1.46015e-07
1.46018e-07
1.46011e-07
1.46945e-07
1.46126e-07
1.45938e-07
1.46076e-07
1.46059e-07
1.46045e-07
1.46079e-07
1.46059e-07
1.46065e-07
1.46061e-07
1.46062e-07
1.46048e-07
1.46051e-07
1.46042e-07
1.46047e-07
1.4604e-07
1.4604e-07
1.46027e-07
1.46028e-07
1.46026e-07
1.46026e-07
1.46023e-07
1.46028e-07
1.46012e-07
1.46014e-07
1.46019e-07
1.46024e-07
1.46021e-07
1.46033e-07
1.46027e-07
1.46026e-07
1.46023e-07
1.46011e-07
1.46004e-07
1.46015e-07
1.46e-07
1.46002e-07
1.46028e-07
1.46017e-07
1.46003e-07
1.46021e-07
1.46012e-07
1.46012e-07
1.46034e-07
1.4604e-07
1.46041e-07
1.46039e-07
1.46022e-07
1.46018e-07
1.46008e-07
1.46025e-07
1.46029e-07
1.46024e-07
1.46038e-07
1.46036e-07
1.46017e-07
1.46031e-07
1.46052e-07
1.46033e-07
1.46017e-07
1.46039e-07
1.46052e-07
1.46039e-07
1.46016e-07
1.46055e-07
1.46067e-07
1.4602e-07
1.46079e-07
1.46129e-07
1.46127e-07
1.46103e-07
1.46082e-07
1.4607e-07
1.46067e-07
1.46078e-07
1.4608e-07
1.46078e-07
1.46071e-07
1.46045e-07
1.4604e-07
1.46033e-07
1.46029e-07
1.46045e-07
1.46051e-07
1.46049e-07
1.46053e-07
1.46055e-07
1.46054e-07
1.46051e-07
1.46048e-07
1.46043e-07
1.46039e-07
1.46043e-07
1.46048e-07
1.46048e-07
1.46046e-07
1.46049e-07
1.46044e-07
1.46044e-07
1.46051e-07
1.46045e-07
1.46045e-07
1.46043e-07
1.46043e-07
1.46043e-07
1.46042e-07
1.46042e-07
1.46047e-07
1.46053e-07
1.46056e-07
1.46059e-07
1.4606e-07
1.4606e-07
1.4606e-07
1.46059e-07
1.46057e-07
1.46054e-07
1.46053e-07
1.46054e-07
1.46052e-07
1.46053e-07
1.46055e-07
1.46058e-07
1.46062e-07
1.46067e-07
1.4607e-07
1.46072e-07
1.46072e-07
1.46071e-07
1.46068e-07
1.46062e-07
1.46055e-07
1.4605e-07
1.4605e-07
1.46053e-07
1.46054e-07
1.46057e-07
1.46062e-07
1.46069e-07
1.46071e-07
1.4607e-07
1.46065e-07
1.46058e-07
1.4605e-07
1.46043e-07
1.4604e-07
1.46048e-07
1.46057e-07
1.46063e-07
1.46063e-07
1.46053e-07
1.46041e-07
1.46037e-07
1.4604e-07
1.46042e-07
1.46036e-07
1.46889e-07
1.46115e-07
1.46012e-07
1.45967e-07
1.45961e-07
1.4593e-07
1.45972e-07
1.4595e-07
1.45969e-07
1.45973e-07
1.45978e-07
1.45988e-07
1.46008e-07
1.45999e-07
1.46009e-07
1.46008e-07
1.46012e-07
1.46008e-07
1.46008e-07
1.46014e-07
1.46021e-07
1.46018e-07
1.46014e-07
1.46026e-07
1.46026e-07
1.46026e-07
1.46022e-07
1.46016e-07
1.4601e-07
1.4601e-07
1.46014e-07
1.46018e-07
1.46012e-07
1.46008e-07
1.46015e-07
1.46011e-07
1.46008e-07
1.46005e-07
1.45985e-07
1.45996e-07
1.46007e-07
1.46009e-07
1.46004e-07
1.45995e-07
1.45967e-07
1.45967e-07
1.45963e-07
1.45954e-07
1.45966e-07
1.45978e-07
1.45954e-07
1.45941e-07
1.45918e-07
1.45939e-07
1.45942e-07
1.4592e-07
1.45939e-07
1.45957e-07
1.45937e-07
1.45945e-07
1.45931e-07
1.45956e-07
1.45952e-07
1.45962e-07
1.46028e-07
1.46041e-07
1.45995e-07
1.46051e-07
1.46098e-07
1.46095e-07
1.46073e-07
1.46053e-07
1.46042e-07
1.46039e-07
1.46051e-07
1.46053e-07
1.4605e-07
1.46044e-07
1.4602e-07
1.46016e-07
1.4601e-07
1.46006e-07
1.46024e-07
1.4603e-07
1.46029e-07
1.46033e-07
1.46034e-07
1.46034e-07
1.46031e-07
1.46028e-07
1.46022e-07
1.46018e-07
1.46023e-07
1.46028e-07
1.4603e-07
1.46029e-07
1.46033e-07
1.46027e-07
1.46028e-07
1.46035e-07
1.46029e-07
1.46029e-07
1.46028e-07
1.46028e-07
1.46029e-07
1.46029e-07
1.46029e-07
1.46034e-07
1.4604e-07
1.46043e-07
1.46046e-07
1.46047e-07
1.46047e-07
1.46046e-07
1.46044e-07
1.46041e-07
1.46038e-07
1.46036e-07
1.46036e-07
1.46033e-07
1.46033e-07
1.46035e-07
1.46037e-07
1.4604e-07
1.46044e-07
1.46047e-07
1.46048e-07
1.46048e-07
1.46046e-07
1.46043e-07
1.46037e-07
1.46032e-07
1.46028e-07
1.46029e-07
1.46033e-07
1.46035e-07
1.46038e-07
1.46044e-07
1.4605e-07
1.46053e-07
1.4605e-07
1.46045e-07
1.46039e-07
1.46031e-07
1.46024e-07
1.46023e-07
1.46031e-07
1.4604e-07
1.46046e-07
1.46045e-07
1.46034e-07
1.46022e-07
1.4602e-07
1.46024e-07
1.46026e-07
1.4602e-07
1.4692e-07
1.46045e-07
1.45882e-07
1.46069e-07
1.46054e-07
1.46045e-07
1.4608e-07
1.46062e-07
1.46066e-07
1.46059e-07
1.46057e-07
1.46038e-07
1.46037e-07
1.46025e-07
1.46032e-07
1.46024e-07
1.46024e-07
1.46015e-07
1.46018e-07
1.46014e-07
1.46008e-07
1.46005e-07
1.46016e-07
1.45998e-07
1.46001e-07
1.46004e-07
1.46009e-07
1.46008e-07
1.46023e-07
1.46019e-07
1.46018e-07
1.46015e-07
1.46002e-07
1.45993e-07
1.46003e-07
1.45988e-07
1.45988e-07
1.46013e-07
1.46005e-07
1.45989e-07
1.4601e-07
1.46001e-07
1.45999e-07
1.46012e-07
1.46035e-07
1.46038e-07
1.46036e-07
1.46018e-07
1.46012e-07
1.46001e-07
1.46022e-07
1.46029e-07
1.46027e-07
1.46042e-07
1.46041e-07
1.46021e-07
1.46037e-07
1.46059e-07
1.46038e-07
1.46021e-07
1.46042e-07
1.46061e-07
1.46052e-07
1.46021e-07
1.46054e-07
1.46062e-07
1.46015e-07
1.46074e-07
1.46124e-07
1.46124e-07
1.46099e-07
1.46078e-07
1.46067e-07
1.46062e-07
1.46074e-07
1.46076e-07
1.46074e-07
1.46068e-07
1.46042e-07
1.46036e-07
1.46029e-07
1.46025e-07
1.46042e-07
1.46048e-07
1.46047e-07
1.46051e-07
1.46052e-07
1.46051e-07
1.46049e-07
1.46045e-07
1.4604e-07
1.46036e-07
1.4604e-07
1.46045e-07
1.46045e-07
1.46044e-07
1.46047e-07
1.46042e-07
1.46042e-07
1.4605e-07
1.46043e-07
1.46042e-07
1.46041e-07
1.46041e-07
1.4604e-07
1.4604e-07
1.46039e-07
1.46045e-07
1.46051e-07
1.46054e-07
1.46056e-07
1.46058e-07
1.46058e-07
1.46057e-07
1.46056e-07
1.46054e-07
1.46051e-07
1.4605e-07
1.46051e-07
1.46049e-07
1.46049e-07
1.46051e-07
1.46054e-07
1.46058e-07
1.46063e-07
1.46066e-07
1.46068e-07
1.46069e-07
1.46069e-07
1.46064e-07
1.46059e-07
1.46052e-07
1.46048e-07
1.46047e-07
1.4605e-07
1.46052e-07
1.46056e-07
1.46061e-07
1.46066e-07
1.4607e-07
1.46067e-07
1.46062e-07
1.46055e-07
1.46047e-07
1.46039e-07
1.46037e-07
1.46044e-07
1.46054e-07
1.46059e-07
1.46059e-07
1.4605e-07
1.46038e-07
1.46035e-07
1.46038e-07
1.4604e-07
1.46032e-07
1.46983e-07
1.46194e-07
1.46049e-07
1.45965e-07
1.45955e-07
1.45924e-07
1.45968e-07
1.45945e-07
1.45967e-07
1.45974e-07
1.45979e-07
1.45992e-07
1.46016e-07
1.46005e-07
1.46014e-07
1.46012e-07
1.46015e-07
1.46008e-07
1.46009e-07
1.46019e-07
1.46031e-07
1.46028e-07
1.46023e-07
1.46032e-07
1.46033e-07
1.46032e-07
1.4603e-07
1.46025e-07
1.46026e-07
1.46023e-07
1.46026e-07
1.46029e-07
1.46022e-07
1.46019e-07
1.46026e-07
1.46021e-07
1.46022e-07
1.46022e-07
1.45996e-07
1.46006e-07
1.46016e-07
1.46019e-07
1.46017e-07
1.46015e-07
1.45975e-07
1.45971e-07
1.45965e-07
1.45957e-07
1.45972e-07
1.45984e-07
1.45958e-07
1.45939e-07
1.45911e-07
1.4593e-07
1.45934e-07
1.45913e-07
1.4593e-07
1.4594e-07
1.45922e-07
1.45924e-07
1.45926e-07
1.45945e-07
1.45934e-07
1.4595e-07
1.46024e-07
1.46045e-07
1.45999e-07
1.46054e-07
1.46103e-07
1.46099e-07
1.46078e-07
1.46055e-07
1.46046e-07