/*--------------------------------*- C++ -*----------------------------------*\
| =========                 |                                                 |
| \\      /  F ield         | OpenFOAM: The Open Source CFD Toolbox           |
|  \\    /   O peration     | Version:  v1912                                 |
|   \\  /    A nd           | Website:  www.openfoam.com                      |
|    \\/     M anipulation  |                                                 |
\*---------------------------------------------------------------------------*/
FoamFile
{
    version     2.0;
    format      ascii;
    class       volScalarField;
    location    "30";
    object      omega;
}
// * * * * * * * * * * * * * * * * * * * * * * * * * * * * * * * * * * * * * //

dimensions      [0 0 -1 0 0 0 0];


internalField   nonuniform List<scalar> 
14268
(
2.99109
2.99111
2.99111
2.99109
2.99107
2.99104
2.991
2.99096
0.622419
0.616179
0.612844
0.624614
0.656744
0.705469
0.750774
0.77341
0.404098
0.402951
0.40214
0.403156
0.407506
0.417491
0.431669
0.440516
0.383192
0.383033
0.382924
0.383036
0.383587
0.385368
0.388683
0.391531
0.381456
0.381438
0.381396
0.381385
0.38144
0.381912
0.383355
0.384557
0.381329
0.381303
0.381295
0.381285
0.381276
0.381598
0.382338
0.383203
0.38137
0.381357
0.381323
0.3813
0.381287
0.381639
0.382478
0.383279
0.381374
0.381339
0.381325
0.381316
0.381275
0.381511
0.38233
0.383107
0.381416
0.381395
0.38136
0.381345
0.381356
0.381737
0.382509
0.383247
0.381436
0.381396
0.381361
0.381363
0.381327
0.381515
0.382298
0.383057
0.381489
0.381438
0.381398
0.381408
0.381459
0.381871
0.382635
0.383291
0.381526
0.381511
0.381402
0.381431
0.381451
0.38158
0.382272
0.382989
0.381649
0.381585
0.381689
0.381832
0.381988
0.38228
0.382787
0.383126
0.381495
0.381489
0.381437
0.381396
0.38177
0.382112
0.383103
0.383173
0.381241
0.381248
0.381227
0.381226
0.381456
0.382108
0.38471
0.38482
0.381263
0.381238
0.381275
0.381358
0.38143
0.381505
0.382872
0.384656
0.381305
0.381272
0.381236
0.381359
0.381564
0.381978
0.383014
0.384041
0.381378
0.381316
0.381312
0.381412
0.381543
0.381581
0.382131
0.383201
0.381449
0.381382
0.381327
0.381516
0.381817
0.382286
0.383149
0.383189
0.381527
0.38144
0.381404
0.381575
0.381832
0.381973
0.382283
0.383315
0.381639
0.381524
0.381491
0.381815
0.38232
0.382923
0.383794
0.383078
0.381263
0.38123
0.381218
0.381283
0.381339
0.381528
0.382384
0.383311
0.38138
0.381366
0.381384
0.381528
0.38179
0.382261
0.382757
0.383252
0.382477
0.385467
0.385228
0.383112
0.38206
0.381764
0.382846
0.383599
0.622043
0.67632
0.730353
0.760123
0.708726
0.594893
0.473967
0.428338
0.879711
0.755144
0.609502
0.530179
0.513383
0.567592
0.597923
0.567537
4.44838
4.77878
5.00987
5.14056
5.21349
5.12561
5.04529
4.93627
65.0711
61.8044
57.7726
54.4558
52.0302
51.4315
48.609
50.0766
11.3098
11.3013
11.2698
11.2039
11.106
11.0055
10.826
10.7607
9.19556
9.07857
8.95469
8.82177
8.65881
8.52696
8.33204
8.27581
6.02671
5.96051
5.88825
5.80677
5.70851
5.60838
5.487
5.41561
4.95575
4.90697
4.84284
4.76471
4.66716
4.57137
4.47309
4.43965
3.89952
3.86898
3.82157
3.76033
3.68411
3.61111
3.56048
3.55369
3.25201
3.23454
3.19711
3.14538
3.0813
3.03321
3.01767
3.03549
2.71329
2.70405
2.67786
2.64023
2.59711
2.5792
2.59115
2.63406
2.28875
2.28466
2.26627
2.2403
2.2194
2.22529
2.26011
2.32688
1.92843
1.92877
1.91812
1.90537
1.90507
1.92982
1.98709
2.07505
1.61231
1.61568
1.6102
1.60956
1.62409
1.66805
1.7445
1.8472
1.32648
1.33267
1.33256
1.34196
1.37064
1.42996
1.51961
1.63244
1.06644
1.07416
1.07809
1.09585
1.13544
1.20474
1.30087
1.41531
0.833606
0.841535
0.848707
0.873349
0.918764
0.990704
1.08554
1.19515
0.62398
0.634925
0.647106
0.676405
0.721021
0.787432
0.873392
0.970661
0.462655
0.47518
0.489729
0.515542
0.551126
0.60329
0.67158
0.749987
0.395288
0.4003
0.407712
0.419835
0.437602
0.464836
0.504374
0.554643
0.387019
0.388522
0.391613
0.394565
0.398152
0.403833
0.414158
0.431221
0.386044
0.386989
0.387796
0.388669
0.391148
0.393093
0.3945
0.397995
0.385495
0.386115
0.386835
0.388061
0.389143
0.390075
0.390817
0.391823
0.385067
0.385574
0.386213
0.387124
0.388202
0.389362
0.390446
0.390966
0.384704
0.38524
0.385759
0.386575
0.38738
0.38825
0.389248
0.390216
0.384427
0.384815
0.385276
0.386
0.38681
0.387679
0.388558
0.389072
0.38412
0.384501
0.384883
0.385503
0.386151
0.387061
0.388146
0.388944
0.384049
0.384269
0.384581
0.385119
0.385686
0.386384
0.387087
0.38753
0.38385
0.384054
0.3843
0.384808
0.385342
0.386132
0.387013
0.387681
0.383767
0.38395
0.384111
0.38449
0.384858
0.385394
0.3859
0.386251
0.383687
0.383829
0.38396
0.384343
0.384714
0.385339
0.385996
0.386549
0.383534
0.383726
0.383754
0.384025
0.384211
0.384597
0.384927
0.385183
0.383416
0.383704
0.383715
0.384005
0.384208
0.384683
0.385142
0.385562
0.383389
0.383512
0.383507
0.38369
0.383732
0.383983
0.38416
0.38432
0.383394
0.383547
0.383495
0.383788
0.383843
0.384181
0.384458
0.384759
0.383256
0.383375
0.383282
0.383468
0.38343
0.383553
0.383584
0.383665
0.383319
0.38335
0.383368
0.383576
0.383588
0.383851
0.383955
0.384142
0.383172
0.383181
0.383187
0.383296
0.383212
0.383311
0.383239
0.383223
0.383198
0.38323
0.383277
0.383376
0.383422
0.38359
0.383639
0.383735
0.383064
0.383075
0.383076
0.38313
0.383079
0.383148
0.383078
0.383068
0.383079
0.383118
0.383144
0.383242
0.383248
0.383389
0.38339
0.383458
0.38296
0.382979
0.382971
0.383022
0.382955
0.383027
0.38295
0.382969
0.382969
0.38301
0.38302
0.383106
0.383085
0.383215
0.383177
0.383238
0.382871
0.382897
0.38288
0.382929
0.382856
0.382936
0.382841
0.382883
0.382868
0.382907
0.382905
0.382976
0.382937
0.383051
0.382984
0.383049
0.382792
0.382816
0.382802
0.382851
0.382782
0.38286
0.382758
0.382813
0.382782
0.382805
0.3828
0.382856
0.382806
0.382901
0.382817
0.382883
0.382745
0.382757
0.382739
0.382773
0.382712
0.382784
0.382686
0.382752
0.382745
0.382754
0.382737
0.382765
0.382707
0.38277
0.382673
0.382729
0.382694
0.382706
0.382697
0.382724
0.382673
0.382725
0.382626
0.382677
0.382654
0.382667
0.382665
0.38269
0.382653
0.382702
0.382609
0.382653
0.382592
0.382609
0.382614
0.382635
0.382605
0.38265
0.382573
0.382623
0.382535
0.38255
0.382555
0.382575
0.382552
0.382585
0.382521
0.38256
0.382439
0.382445
0.382441
0.382449
0.382425
0.382441
0.382387
0.382407
0.382325
0.382324
0.382313
0.382312
0.382287
0.382289
0.382246
0.38225
0.382242
0.382241
0.382228
0.382223
0.382198
0.382191
0.382153
0.382145
0.382174
0.382172
0.382159
0.382151
0.382128
0.382116
0.382082
0.382068
0.382123
0.38212
0.382108
0.382099
0.382077
0.382063
0.382031
0.382013
0.382123
0.382112
0.382095
0.382079
0.382055
0.382036
0.382005
0.381982
0.382598
0.382476
0.38237
0.38228
0.3822
0.382134
0.382072
0.382021
0.38879
0.387653
0.386643
0.385758
0.384991
0.384336
0.383781
0.383321
0.448694
0.441307
0.43427
0.427628
0.421421
0.415679
0.410425
0.405669
0.873845
0.849703
0.824652
0.798785
0.77223
0.745097
0.717545
0.689698
2.98354
2.98361
2.98364
2.98364
2.98364
2.98364
2.98365
2.98365
2.98365
2.98365
2.98366
2.98366
2.98366
2.98366
2.98366
2.98366
2.98366
2.98366
2.98366
2.98366
2.98366
2.98366
2.98366
2.98367
2.98367
2.98367
2.98367
2.98367
2.98367
2.98367
2.98367
2.98366
2.98366
2.98365
2.98365
2.98365
2.98366
2.98365
2.98365
2.98365
2.98365
2.98366
2.98366
2.98366
2.98365
2.98364
2.98364
2.98364
2.98364
2.98364
2.98364
2.98363
2.98363
2.98363
2.98363
2.98363
2.98364
2.98364
2.98364
2.98365
2.98366
2.98367
2.98368
2.9837
2.98371
2.98372
2.98374
2.98376
2.98378
2.98378
2.98378
2.98377
2.98377
2.98377
2.98377
2.98376
2.98374
2.98372
2.98371
2.98371
2.98372
2.98373
2.98373
2.98373
2.98371
2.98369
2.98368
2.98367
2.98366
2.98366
2.98366
2.98367
2.98368
2.98369
2.9837
2.98371
2.98371
2.9837
2.9837
2.98369
2.98368
2.98367
2.98368
2.98368
2.9837
2.98371
2.98372
2.98373
2.98374
2.98374
2.98374
2.98374
2.98374
2.98373
2.98373
2.98372
2.98371
2.98371
2.9837
2.9837
2.9837
2.9837
2.9837
2.98371
2.98371
2.98371
2.98371
2.98371
2.98371
2.98371
2.98371
2.9837
2.9837
2.9837
2.98369
2.98369
2.98368
2.98368
2.98367
2.98367
2.98367
2.98368
2.9837
2.98373
2.98376
2.98379
2.98382
2.98384
2.98385
2.98385
2.98383
2.98382
2.98381
2.9838
2.98379
2.98378
0.734654
0.649605
0.615409
0.61501
0.613175
0.614101
0.611744
0.609996
0.608503
0.607164
0.60657
0.606338
0.606243
0.606315
0.606408
0.606561
0.606698
0.60676
0.606635
0.606443
0.606313
0.606233
0.606151
0.606093
0.606005
0.605903
0.605816
0.605734
0.605698
0.605828
0.606096
0.606651
0.607182
0.607633
0.608259
0.608586
0.608475
0.609874
0.612102
0.612217
0.610284
0.608569
0.60852
0.609965
0.612147
0.614901
0.616987
0.617052
0.616304
0.617599
0.62225
0.630426
0.634694
0.635549
0.636929
0.637732
0.642265
0.650721
0.660247
0.665514
0.665278
0.664698
0.663678
0.658965
0.656885
0.660012
0.656929
0.635027
0.615621
0.610482
0.612367
0.614295
0.615249
0.614759
0.613824
0.614252
0.617478
0.623006
0.629758
0.633693
0.632338
0.628347
0.627154
0.6307
0.635104
0.639222
0.642306
0.643845
0.643644
0.641144
0.636594
0.631361
0.626665
0.623484
0.621906
0.619942
0.618055
0.617211
0.616082
0.614558
0.614994
0.616166
0.616691
0.616523
0.615842
0.614815
0.613569
0.612205
0.610846
0.609607
0.608585
0.607869
0.607478
0.607364
0.607448
0.607642
0.607867
0.608047
0.608137
0.608642
0.609136
0.609207
0.608859
0.608204
0.607433
0.60676
0.606487
0.607589
0.610379
0.615017
0.621521
0.629742
0.639329
0.649753
0.660374
0.670471
0.679206
0.685848
0.689696
0.690205
0.687795
0.684405
0.680248
0.675512
0.670471
0.665453
0.660835
0.656995
0.654209
0.652677
0.654897
0.66203
0.672456
0.683874
0.693462
0.698648
0.428994
0.408409
0.402026
0.401847
0.401398
0.401416
0.401037
0.400776
0.400566
0.400389
0.400313
0.400276
0.400268
0.400295
0.400318
0.400352
0.400375
0.400385
0.400353
0.40031
0.400281
0.400268
0.400254
0.400245
0.400231
0.400218
0.400213
0.400214
0.400218
0.400259
0.400321
0.400432
0.40054
0.400636
0.400747
0.400817
0.400897
0.401268
0.401665
0.401626
0.401259
0.40099
0.401075
0.401451
0.401968
0.402549
0.402894
0.402823
0.402667
0.402936
0.403806
0.405168
0.405915
0.40624
0.406633
0.406983
0.407917
0.409367
0.410795
0.411383
0.410997
0.410365
0.409523
0.40823
0.407258
0.407062
0.406262
0.403598
0.401543
0.40119
0.401506
0.401783
0.401871
0.401757
0.401581
0.401622
0.402031
0.402692
0.403432
0.40385
0.403716
0.403328
0.403215
0.403614
0.404132
0.404608
0.404947
0.405086
0.405013
0.404695
0.404182
0.403621
0.40312
0.402751
0.402511
0.402233
0.401997
0.401932
0.401844
0.401709
0.401818
0.401988
0.402059
0.402027
0.40192
0.401766
0.401581
0.401376
0.401177
0.400996
0.400846
0.400739
0.400677
0.400657
0.400664
0.400683
0.400707
0.400731
0.400745
0.400792
0.400835
0.400831
0.400782
0.400695
0.400595
0.400504
0.400456
0.400538
0.400786
0.401223
0.401868
0.402723
0.403771
0.404976
0.406277
0.407602
0.408841
0.409883
0.410614
0.410937
0.410883
0.410665
0.410308
0.409839
0.409302
0.408741
0.408221
0.407806
0.407538
0.407455
0.407819
0.408756
0.410123
0.411692
0.413124
0.414069
0.388367
0.383825
0.382865
0.382804
0.382737
0.38274
0.382668
0.382653
0.38262
0.382592
0.382588
0.382577
0.382574
0.38258
0.382581
0.382586
0.382589
0.382591
0.382586
0.382578
0.382575
0.382575
0.382574
0.382571
0.382568
0.382566
0.382569
0.382566
0.382569
0.382575
0.38258
0.382593
0.382612
0.382629
0.382635
0.38265
0.38267
0.38273
0.382779
0.382777
0.382724
0.38269
0.382712
0.382769
0.382849
0.382932
0.38298
0.382983
0.382976
0.383044
0.383198
0.383417
0.383546
0.383616
0.383671
0.383726
0.383862
0.384092
0.384341
0.38445
0.384408
0.384304
0.384162
0.383959
0.383751
0.383715
0.383624
0.383249
0.382884
0.382823
0.38284
0.382862
0.382864
0.382847
0.382816
0.382824
0.382861
0.382914
0.382986
0.383047
0.383036
0.382989
0.382945
0.382984
0.383046
0.38311
0.383158
0.383175
0.383161
0.383114
0.383041
0.382965
0.382906
0.382858
0.382824
0.382784
0.382755
0.382745
0.382729
0.382711
0.382726
0.382748
0.382757
0.382754
0.382742
0.382724
0.382704
0.382683
0.382664
0.382645
0.38263
0.382618
0.382609
0.382602
0.382598
0.382597
0.382598
0.382604
0.38261
0.382618
0.382626
0.382629
0.382626
0.38262
0.382611
0.382603
0.382599
0.382614
0.382652
0.382715
0.382806
0.382923
0.383063
0.383217
0.38339
0.383568
0.383738
0.383885
0.383989
0.384034
0.384023
0.383992
0.383947
0.383892
0.38383
0.383761
0.383704
0.383662
0.383635
0.383628
0.383691
0.383839
0.38404
0.384266
0.38448
0.384622
0.383299
0.381606
0.381345
0.381344
0.381295
0.381284
0.381291
0.38127
0.381267
0.381268
0.381264
0.381263
0.381266
0.381264
0.381268
0.381266
0.381266
0.381259
0.381258
0.381258
0.381257
0.381256
0.381256
0.381252
0.381251
0.381253
0.381257
0.381249
0.381255
0.381258
0.381256
0.381259
0.381259
0.381266
0.381263
0.38127
0.381276
0.381287
0.381295
0.381298
0.381291
0.381283
0.381288
0.381309
0.381318
0.381344
0.381361
0.381364
0.381381
0.381413
0.381472
0.381539
0.381577
0.381617
0.381628
0.381645
0.381676
0.381739
0.38183
0.381871
0.381891
0.381896
0.381847
0.381797
0.381694
0.381678
0.381668
0.381589
0.38144
0.381423
0.381401
0.381387
0.381375
0.381369
0.381356
0.381362
0.381355
0.381336
0.381313
0.381329
0.381335
0.381335
0.381304
0.381302
0.381302
0.381312
0.381322
0.381322
0.381312
0.381298
0.381282
0.381268
0.381268
0.381262
0.381251
0.381243
0.381241
0.381236
0.381232
0.381236
0.381238
0.38124
0.381236
0.381235
0.381235
0.381235
0.381235
0.381241
0.381246
0.381247
0.381248
0.381248
0.381246
0.381244
0.381241
0.381237
0.381235
0.381234
0.381237
0.381238
0.381241
0.381246
0.381249
0.381252
0.381256
0.381258
0.38126
0.381265
0.381274
0.381289
0.381308
0.381329
0.381348
0.381369
0.381396
0.381425
0.381453
0.381482
0.381503
0.381515
0.381515
0.381512
0.381509
0.381508
0.381508
0.381503
0.381505
0.381508
0.381509
0.38151
0.38153
0.381564
0.381593
0.38162
0.381652
0.381673
0.382352
0.381326
0.381257
0.381216
0.381206
0.381206
0.381179
0.381196
0.381187
0.381178
0.381185
0.381176
0.381173
0.381175
0.381172
0.381173
0.381173
0.381173
0.381173
0.38117
0.38117
0.381171
0.38117
0.381168
0.381169
0.381171
0.381172
0.381169
0.381169
0.38117
0.381168
0.381169
0.381171
0.381178
0.381176
0.381179
0.381184
0.381197
0.381193
0.381198
0.381194
0.381188
0.381194
0.3812
0.381216
0.381226
0.381234
0.38125
0.381265
0.381301
0.381348
0.381392
0.381426
0.381456
0.381462
0.381476
0.38149
0.38153
0.381595
0.381639
0.381668
0.381662
0.381638
0.381614
0.381523
0.381501
0.381502
0.381454
0.381328
0.381313
0.381289
0.381278
0.381267
0.381263
0.38125
0.381253
0.381242
0.381213
0.381193
0.381201
0.381207
0.381211
0.381178
0.381165
0.381164
0.381169
0.381174
0.381172
0.381166
0.381159
0.381151
0.381146
0.381152
0.381149
0.381142
0.381133
0.381131
0.381131
0.381129
0.381125
0.38113
0.381132
0.381133
0.381132
0.381132
0.381132
0.381132
0.38113
0.381132
0.381134
0.381137
0.381138
0.381137
0.381138
0.381137
0.381132
0.381127
0.38113
0.381134
0.381136
0.38114
0.381143
0.381146
0.381149
0.381151
0.381153
0.381155
0.381159
0.381166
0.381175
0.381187
0.381199
0.381209
0.381214
0.381221
0.381227
0.381236
0.381246
0.381253
0.381257
0.381259
0.381263
0.381269
0.381279
0.381291
0.381296
0.381303
0.381311
0.381315
0.381317
0.381333
0.381354
0.381366
0.381368
0.381372
0.38138
0.382444
0.381384
0.381253
0.38124
0.381193
0.381185
0.3812
0.38118
0.381181
0.381184
0.38118
0.381175
0.381175
0.381173
0.381176
0.381173
0.381172
0.381165
0.381165
0.381165
0.381165
0.381165
0.381163
0.381161
0.381163
0.381165
0.381167
0.381162
0.381164
0.381167
0.381164
0.381167
0.381169
0.381177
0.381171
0.381181
0.381186
0.381188
0.381191
0.381195
0.381191
0.38119
0.381189
0.381206
0.381212
0.381232
0.381244
0.381247
0.381265
0.381295
0.381342
0.381391
0.381419
0.381455
0.381461
0.381473
0.381487
0.381528
0.381596
0.381626
0.381656
0.381675
0.381639
0.381605
0.381515
0.381498
0.381496
0.381455
0.381332
0.381321
0.381295
0.381279
0.381265
0.381261
0.381248
0.381253
0.381242
0.381215
0.381184
0.381193
0.3812
0.381205
0.381175
0.381166
0.38116
0.381165
0.38117
0.381168
0.381159
0.381149
0.38114
0.381135
0.381144
0.381143
0.381136
0.381128
0.381128
0.381125
0.381121
0.381125
0.381126
0.381126
0.381124
0.381123
0.381123
0.381124
0.381126
0.381131
0.381136
0.381138
0.38114
0.381141
0.38114
0.381137
0.381135
0.381132
0.381129
0.381129
0.381132
0.381133
0.381136
0.381141
0.381145
0.381149
0.381154
0.381157
0.38116
0.381163
0.381169
0.381179
0.381191
0.381202
0.381209
0.381212
0.381218
0.381224
0.381232
0.381241
0.38125
0.381255
0.381257
0.381258
0.381262
0.38127
0.38128
0.381284
0.381293
0.381304
0.38131
0.381313
0.381327
0.381345
0.381351
0.381348
0.381352
0.381354
0.3823
0.381306
0.381247
0.381206
0.381202
0.381205
0.381176
0.381196
0.381186
0.381176
0.381181
0.381168
0.381162
0.381164
0.38116
0.381161
0.381161
0.381163
0.381163
0.38116
0.381161
0.381162
0.381161
0.381163
0.381165
0.381166
0.381169
0.381163
0.381162
0.381166
0.381167
0.38117
0.381171
0.381176
0.381176
0.381178
0.381185
0.381194
0.381187
0.381193
0.381193
0.381186
0.381187
0.381195
0.381212
0.381223
0.381231
0.381247
0.381261
0.381297
0.381343
0.381387
0.381421
0.381451
0.381456
0.38147
0.381483
0.381519
0.381582
0.38163
0.38166
0.381653
0.381629
0.381608
0.381511
0.381489
0.381492
0.381446
0.381322
0.381306
0.381283
0.381272
0.381261
0.381257
0.381244
0.381246
0.381236
0.381207
0.381185
0.381192
0.381198
0.381203
0.381171
0.381157
0.381155
0.38116
0.381164
0.381163
0.381156
0.381148
0.381141
0.381137
0.381144
0.381141
0.381134
0.381125
0.381122
0.381121
0.381119
0.381117
0.381123
0.381126
0.381126
0.381125
0.381125
0.381125
0.381125
0.381124
0.381127
0.381128
0.381131
0.381132
0.38113
0.381128
0.381126
0.381122
0.381118
0.38112
0.381125
0.381127
0.381131
0.381135
0.381138
0.381141
0.381143
0.381146
0.381148
0.381152
0.381158
0.381167
0.381178
0.38119
0.381198
0.381201
0.381208
0.381214
0.381222
0.381231
0.381238
0.381242
0.381244
0.381248
0.381255
0.381265
0.381277
0.381282
0.381289
0.381298
0.381302
0.381305
0.38132
0.381339
0.381347
0.381344
0.381346
0.381349
0.382379
0.381369
0.381278
0.381239
0.38119
0.381187
0.381205
0.381186
0.381185
0.381186
0.381181
0.381172
0.381169
0.381167
0.381171
0.381168
0.381167
0.381162
0.381163
0.381165
0.381165
0.381165
0.381164
0.381166
0.381166
0.381164
0.381165
0.381161
0.381163
0.381166
0.381165
0.381167
0.381173
0.381182
0.381173
0.381186
0.381193
0.381188
0.38119
0.381202
0.381193
0.381194
0.381194
0.381198
0.381215
0.381237
0.381248
0.381249
0.381267
0.381298
0.381344
0.381395
0.381424
0.381459
0.381464
0.381475
0.381489
0.381531
0.3816
0.381625
0.381654
0.381678
0.381639
0.381602
0.381516
0.381497
0.381496
0.381454
0.381331
0.38132
0.381294
0.381279
0.381265
0.381261
0.381248
0.381253
0.381241
0.381214
0.381184
0.381193
0.3812
0.381205
0.381174
0.381163
0.381159
0.381163
0.381168
0.381166
0.381157
0.381148
0.381139
0.381134
0.381142
0.38114
0.381133
0.381124
0.381124
0.381121
0.381116
0.381122
0.381125
0.381125
0.381122
0.38112
0.38112
0.38112
0.381123
0.381127
0.381131
0.381134
0.381136
0.381137
0.381136
0.381135
0.381133
0.381129
0.381126
0.381124
0.381128
0.381129
0.381132
0.381137
0.38114
0.381144
0.381149
0.381152
0.381155
0.381158
0.381164
0.381173
0.381184
0.381195
0.381202
0.381204
0.381211
0.381217
0.381225
0.381234
0.381242
0.381247
0.381248
0.381251
0.381256
0.381264
0.381274
0.381278
0.381287
0.381298
0.381304
0.381306
0.38132
0.381337
0.381343
0.38134
0.381342
0.381344
0.382304
0.381346
0.381249
0.381205
0.381208
0.381216
0.381185
0.381207
0.381192
0.381181
0.381185
0.381167
0.381158
0.381161
0.381159
0.38116
0.381161
0.381165
0.381166
0.381165
0.381168
0.381168
0.381166
0.381172
0.381173
0.381172
0.381171
0.381163
0.381162
0.381169
0.381171
0.381175
0.381175
0.381178
0.381183
0.381184
0.381192
0.381198
0.381189
0.3812
0.381198
0.38119
0.381192
0.381204
0.381213
0.381226
0.381234
0.38125
0.381264
0.3813
0.381345
0.381391
0.381429
0.381457
0.381462
0.381477
0.381489
0.381523
0.381586
0.381637
0.38167
0.381664
0.381636
0.381617
0.381514
0.381492
0.381493
0.381448
0.381324
0.381307
0.381285
0.381273
0.381262
0.381258
0.381244
0.381247
0.381236
0.381207
0.381184
0.381192
0.381199
0.381204
0.381171
0.381158
0.381156
0.38116
0.381165
0.381163
0.381156
0.381148
0.381139
0.381135
0.381142
0.38114
0.381133
0.381123
0.38112
0.381119
0.381116
0.381117
0.381123
0.381125
0.381125
0.381124
0.381123
0.381124
0.381123
0.381123
0.381126
0.381128
0.381131
0.381131
0.38113
0.381128
0.381125
0.381121
0.381117
0.381119
0.381123
0.381125
0.381129
0.381132
0.381135
0.381138
0.381141
0.381143
0.381145
0.381149
0.381155
0.381163
0.381175
0.381187
0.381195
0.381198
0.381204
0.38121
0.381218
0.381227
0.381234
0.381238
0.381239
0.381243
0.38125
0.38126
0.381271
0.381276
0.381284
0.381293
0.381298
0.381301
0.381315
0.381333
0.381341
0.381338
0.381339
0.381341
0.382316
0.38139
0.381318
0.381247
0.381198
0.381201
0.381218
0.381199
0.381194
0.381194
0.381189
0.381175
0.38117
0.381172
0.381176
0.381174
0.381173
0.381171
0.381172
0.381172
0.38117
0.381172
0.381171
0.381176
0.381177
0.381173
0.381171
0.381167
0.38116
0.381165
0.381166
0.381168
0.381177
0.381187
0.381179
0.381195
0.381204
0.381189
0.381195
0.381209
0.381196
0.3812
0.381203
0.381202
0.381215
0.381241
0.38125
0.381251
0.38127
0.381302
0.381347
0.3814
0.381431
0.381467
0.381471
0.381481
0.381496
0.381538
0.38161
0.381636
0.381658
0.381688
0.381648
0.381601
0.381516
0.381497
0.381495
0.381453
0.381329
0.381319
0.381293
0.381279
0.381266
0.381261
0.381248
0.381252
0.38124
0.381213
0.381184
0.381193
0.3812
0.381205
0.381174
0.381163
0.381158
0.381163
0.381168
0.381165
0.381157
0.381147
0.381138
0.381134
0.381142
0.38114
0.381133
0.381123
0.381122
0.381119
0.381114
0.381119
0.381124
0.381125
0.381123
0.381121
0.381121
0.381121
0.381122
0.381125
0.38113
0.381132
0.381134
0.381135
0.381134
0.381132
0.38113
0.381127
0.381123
0.381122
0.381125
0.381127
0.38113
0.381134
0.381137
0.381141
0.381145
0.381148
0.381151
0.381154
0.381161
0.381168
0.381178
0.381189
0.381197
0.3812
0.381206
0.381212
0.38122
0.38123
0.381237
0.381241
0.381242
0.381245
0.381251
0.38126
0.38127
0.381275
0.381283
0.381293
0.381299
0.381302
0.381315
0.381332
0.381338
0.381335
0.381337
0.381338
0.382378
0.381441
0.381278
0.381216
0.381226
0.381236
0.381202
0.381221
0.381204
0.381193
0.381198
0.381175
0.381163
0.381167
0.381167
0.381169
0.38117
0.381173
0.381172
0.381174
0.381179
0.381178
0.381174
0.381183
0.381185
0.381185
0.381183
0.381173
0.381167
0.381174
0.381176
0.381182
0.38118
0.381184
0.381192
0.381194
0.3812
0.381208
0.381195
0.381209
0.381204
0.381195
0.381204
0.381224
0.381213
0.38123
0.381239
0.381251
0.381266
0.381304
0.381348
0.381396
0.381438
0.381464
0.381471
0.381486
0.381497
0.381531
0.381594
0.381646
0.381683
0.381677
0.381642
0.381629
0.381519
0.381494
0.381493
0.381449
0.381324
0.381306
0.381286
0.381273
0.381263
0.38126
0.381245
0.381247
0.381237
0.381208
0.381184
0.381193
0.3812
0.381205
0.381172
0.381159
0.381156
0.381161
0.381166
0.381164
0.381156
0.381147
0.381138
0.381134
0.381142
0.38114
0.381133
0.381122
0.381119
0.381118
0.381113
0.381116
0.381122
0.381124
0.381123
0.381122
0.381121
0.381121
0.381122
0.381122
0.381126
0.381128
0.381131
0.381131
0.38113
0.381128
0.381126
0.381122
0.381118
0.381118
0.381122
0.381124
0.381127
0.381131
0.381134
0.381137
0.38114
0.381143
0.381144
0.381147
0.381153
0.381162
0.381173
0.381185
0.381193
0.381196
0.381202
0.381207
0.381215
0.381224
0.381231
0.381235
0.381236
0.38124
0.381247
0.381258
0.381268
0.381273
0.381281
0.38129
0.381296
0.381298
0.381312
0.381329
0.381336
0.381333
0.381334
0.381336
0.382106
0.381457
0.381372
0.381264
0.381218
0.381226
0.381238
0.381218
0.38121
0.381211
0.381206
0.381187
0.381171
0.381175
0.38118
0.38118
0.381183
0.381183
0.381183
0.38118
0.38118
0.381183
0.38118
0.381189
0.381189
0.381185
0.381183
0.381182
0.381172
0.381173
0.381172
0.381173
0.381185
0.381199
0.381191
0.381208
0.381221
0.381198
0.3812
0.381219
0.381201
0.381208
0.381218
0.381221
0.381219
0.381241
0.381249
0.381251
0.381275
0.381308
0.381349
0.381407
0.381444
0.381477
0.381482
0.381491
0.38151
0.381556
0.381623
0.38165
0.381668
0.381704
0.381663
0.381607
0.381519
0.381497
0.381494
0.381451
0.381328
0.381319
0.381292
0.381283
0.381266
0.381262
0.381247
0.38125
0.381239
0.38121
0.381184
0.381194
0.3812
0.381206
0.381174
0.381161
0.381157
0.381162
0.381166
0.381164
0.381156
0.381147
0.381138
0.381134
0.381142
0.381139
0.381132
0.381121
0.38112
0.381118
0.381114
0.381117
0.381124
0.381125
0.381125
0.381123
0.381123
0.381123
0.381123
0.381124
0.381127
0.381129
0.381132
0.381132
0.381131
0.381129
0.381127
0.381123
0.381119
0.381119
0.381124
0.381125
0.381129
0.381133
0.381136
0.381139
0.381143
0.381146
0.381151
0.381154
0.38116
0.381165
0.381174
0.381186
0.381194
0.381196
0.381202
0.381209
0.381218
0.381227
0.381234
0.381238
0.381239
0.381242
0.381247
0.381256
0.381266
0.38127
0.381279
0.381289
0.381295
0.381298
0.38131
0.381326
0.381332
0.381329
0.381331
0.381332
0.382555
0.381587
0.381325
0.381233
0.381249
0.381264
0.381223
0.381242
0.381222
0.38121
0.381214
0.381188
0.381173
0.381172
0.381174
0.381173
0.381174
0.38118
0.381179
0.381181
0.381188
0.381187
0.381183
0.381194
0.381198
0.381197
0.381196
0.381186
0.381186
0.38119
0.38119
0.381195
0.381188
0.381191
0.381204
0.381208
0.381219
0.381224
0.381203
0.381218
0.381212
0.381205
0.381222
0.381245
0.381215
0.381233
0.38124
0.381245
0.381271
0.381306
0.381351
0.381401
0.381449
0.381473
0.381478
0.381494
0.381508
0.381548
0.381614
0.381673
0.381696
0.381684
0.381645
0.381634
0.381527
0.381495
0.381493
0.38145
0.381325
0.381305
0.381285
0.381271
0.381263
0.381259
0.381244
0.381248
0.381237
0.381209
0.381182
0.381193
0.3812
0.381206
0.381174
0.381162
0.381158
0.381163
0.381168
0.381165
0.381156
0.381147
0.381138
0.381133
0.381141
0.381139
0.381132
0.381122
0.381121
0.381118
0.381114
0.381119
0.381125
0.381126
0.381123
0.381121
0.38112
0.38112
0.381122
0.381126
0.381131
0.381133
0.381136
0.381137
0.381136
0.381135
0.381133
0.38113
0.381126
0.381124
0.381126
0.381127
0.38113
0.381133
0.381136
0.381139
0.381143
0.381145
0.381145
0.381149
0.381155
0.381166
0.381177
0.381188
0.381195
0.381197
0.381202
0.381207
0.381213
0.381221
0.381226
0.381228
0.381231
0.381235
0.381243
0.381253
0.381265
0.38127
0.381277
0.381286
0.381291
0.381293
0.381306
0.381324
0.381331
0.381329
0.381328
0.381332
0.382084
0.3814
0.381328
0.381235
0.381198
0.381192
0.381207
0.381184
0.381181
0.381187
0.381184
0.381178
0.381172
0.381173
0.381177
0.381176
0.381178
0.381173
0.381172
0.381171
0.38117
0.38117
0.381168
0.381171
0.38117
0.381168
0.381168
0.381167
0.381162
0.381163
0.381161
0.381162
0.38117
0.381182
0.381173
0.381185
0.381195
0.381184
0.381189
0.381202
0.38119
0.38119
0.381197
0.381204
0.38121
0.381225
0.381234
0.381248
0.381272
0.381304
0.381345
0.381402
0.381436
0.381472
0.381479
0.38149
0.381512
0.381553
0.381619
0.381651
0.381682
0.381705
0.381658
0.381618
0.381522
0.381497
0.381492
0.381448
0.381324
0.381316
0.381294
0.381284
0.381268
0.381262
0.381247
0.381246
0.381235
0.381206
0.381181
0.381192
0.381199
0.381205
0.381172
0.381157
0.381155
0.381159
0.381164
0.381162
0.381154
0.381145
0.381136
0.381132
0.38114
0.381138
0.38113
0.381119
0.381116
0.381114
0.381111
0.381113
0.381121
0.381122
0.381121
0.381121
0.38112
0.38112
0.38112
0.38112
0.381123
0.381125
0.381128
0.381129
0.381128
0.381126
0.381124
0.38112
0.381116
0.381116
0.381121
0.381123
0.381126
0.38113
0.381133
0.381137
0.381141
0.381144
0.381148
0.38115
0.381155
0.381161
0.381171
0.381182
0.381191
0.381194
0.3812
0.381206
0.381213
0.381221
0.381227
0.38123
0.381231
0.381235
0.381242
0.381252
0.381263
0.381268
0.381276
0.381286
0.381292
0.381294
0.381306
0.38132
0.381323
0.38132
0.381324
0.381327
0.382649
0.381583
0.381269
0.381232
0.381219
0.381234
0.381191
0.38121
0.381199
0.381189
0.381199
0.381185
0.381174
0.381177
0.381172
0.381175
0.381176
0.381181
0.381178
0.381172
0.381169
0.381168
0.381167
0.38117
0.381173
0.381176
0.381176
0.381168
0.381169
0.381174
0.381173
0.381177
0.381172
0.381178
0.381186
0.381187
0.381195
0.381208
0.381193
0.381202
0.381198
0.381187
0.381201
0.381232
0.381212
0.381224
0.381237
0.381244
0.381268
0.381304
0.381352
0.381401
0.38144
0.38147
0.381478
0.381496
0.381504
0.381549
0.38162
0.381668
0.381688
0.381678
0.381653
0.381635
0.381534
0.3815
0.381494
0.38145
0.381328
0.381305
0.381284
0.381274
0.381265
0.381262
0.381245
0.381248
0.381238
0.381209
0.381184
0.381195
0.381203
0.381209
0.381176
0.381162
0.381159
0.381163
0.381168
0.381165
0.381156
0.381147
0.381137
0.381133
0.381141
0.381139
0.381131
0.38112
0.381117
0.381115
0.381111
0.381116
0.381122
0.381123
0.381121
0.381119
0.381119
0.381119
0.381119
0.381121
0.381126
0.381128
0.381131
0.381133
0.381132
0.381131
0.381128
0.381125
0.381121
0.381119
0.381123
0.381124
0.381127
0.381131
0.381135
0.381137
0.38114
0.381142
0.381143
0.381147
0.381152
0.38116
0.381171
0.381182
0.38119
0.381191
0.381198
0.381204
0.381212
0.381221
0.381228
0.381232
0.381233
0.381237
0.381244
0.381254
0.381264
0.381267
0.381276
0.381287
0.381294
0.381297
0.381313
0.381334
0.381345
0.381344
0.381336
0.381336
0.38197
0.38152
0.381392
0.381251
0.381222
0.381217
0.381232
0.381207
0.381206
0.381213
0.381215
0.381207
0.381203
0.3812
0.381202
0.381201
0.381203
0.381195
0.381191
0.381185
0.381184
0.38118
0.381178
0.381177
0.381177
0.381176
0.381176
0.381172
0.381169
0.38117
0.381169
0.38117
0.381176
0.381189
0.381182
0.381192
0.381203
0.38119
0.381191
0.381203
0.381197
0.381196
0.381208
0.381223
0.381226
0.381234
0.381243
0.381263
0.381281
0.381317
0.381359
0.381418
0.381454
0.381496
0.381502
0.381509
0.381544
0.381601
0.381689
0.381712
0.381732
0.381752
0.381681
0.38164
0.381542
0.381498
0.381484
0.381455
0.381332
0.381334
0.381317
0.381304
0.381287
0.381277
0.381259
0.381256
0.381242
0.381213
0.381187
0.381201
0.381205
0.381212
0.381179
0.381165
0.381162
0.381166
0.381171
0.381168
0.381159
0.381149
0.38114
0.381135
0.381143
0.381141
0.381133
0.381122
0.381119
0.381118
0.381115
0.381117
0.381125
0.381126
0.381124
0.381122
0.381122
0.381122
0.381121
0.381122
0.381126
0.381128
0.381131
0.381133
0.381132
0.38113