/*--------------------------------*- C++ -*----------------------------------*\
| =========                 |                                                 |
| \\      /  F ield         | OpenFOAM: The Open Source CFD Toolbox           |
|  \\    /   O peration     | Version:  v1912                                 |
|   \\  /    A nd           | Website:  www.openfoam.com                      |
|    \\/     M anipulation  |                                                 |
\*---------------------------------------------------------------------------*/
FoamFile
{
    version     2.0;
    format      ascii;
    class       volScalarField;
    location    "30";
    object      p_rgh;
}
// * * * * * * * * * * * * * * * * * * * * * * * * * * * * * * * * * * * * * //

dimensions      [1 -1 -2 0 0 0 0];


internalField   nonuniform List<scalar> 
14268
(
-48.0934
-50.0138
-51.7308
-52.5075
-52.183
-51.1995
-50.9377
-50.7814
-48.0943
-50.0148
-51.7316
-52.5078
-52.1827
-51.1993
-50.9376
-50.7812
-48.095
-50.0159
-51.7324
-52.5082
-52.1825
-51.1989
-50.9375
-50.7812
-48.0957
-50.0169
-51.7334
-52.5086
-52.1823
-51.1986
-50.9374
-50.781
-48.0963
-50.0179
-51.7343
-52.5092
-52.1822
-51.1982
-50.9372
-50.7809
-48.0968
-50.019
-51.7355
-52.5098
-52.1821
-51.1978
-50.9371
-50.7808
-48.0973
-50.02
-51.7366
-52.5106
-52.1821
-51.1974
-50.9369
-50.7807
-48.0977
-50.0211
-51.7379
-52.5115
-52.1821
-51.197
-50.9368
-50.7806
-48.0981
-50.0222
-51.7391
-52.5125
-52.1821
-51.1966
-50.9366
-50.7806
-48.0984
-50.0234
-51.7406
-52.5136
-52.1822
-51.1961
-50.9364
-50.7805
-48.0987
-50.0245
-51.742
-52.5148
-52.1823
-51.1956
-50.9362
-50.7804
-48.0989
-50.0257
-51.7437
-52.5161
-52.1826
-51.1952
-50.936
-50.7804
-48.0991
-50.0269
-51.7453
-52.5175
-52.1828
-51.1946
-50.9357
-50.7802
-48.0991
-50.0281
-51.7471
-52.5191
-52.1832
-51.1943
-50.9356
-50.7802
-48.0878
-50.0172
-51.7409
-52.521
-52.1914
-51.2015
-50.9381
-50.7829
-48.0848
-50.0247
-51.755
-52.5323
-52.1952
-51.2002
-50.938
-50.7829
-48.082
-50.0331
-51.7669
-52.5416
-52.1966
-51.197
-50.9361
-50.7828
-48.0741
-50.0431
-51.7873
-52.5597
-52.203
-51.1965
-50.9363
-50.7828
-48.0671
-50.0497
-51.8022
-52.5706
-52.2043
-51.1918
-50.9331
-50.7828
-48.0544
-50.0649
-51.8301
-52.597
-52.2154
-51.1923
-50.9345
-50.7828
-48.0429
-50.0684
-51.8463
-52.6079
-52.2151
-51.1856
-50.9293
-50.7829
-48.009
-50.1444
-51.9761
-52.7375
-52.2714
-51.1864
-50.9432
-50.7805
-47.9056
-50.1288
-52.0496
-52.7877
-52.2818
-51.1304
-50.8698
-50.728
-47.7444
-50.3645
-52.5892
-53.3862
-52.4964
-51.077
-50.9006
-50.8426
-47.4898
-50.29
-52.6168
-53.3666
-52.5654
-51.0083
-50.7195
-50.6758
-47.2833
-50.6425
-51.082
-46.3948
-39.0124
-29.2098
-14.9793
4.08732
702.716
711.008
718.317
725.123
730.321
734.148
737.468
739.923
210.578
199.511
190.803
183.94
177.841
171.858
166.732
163.283
-0.0699483
-0.0367016
-0.0121948
-0.00895324
-0.0376096
-0.105898
-0.18041
-0.306644
-0.756418
-0.72916
-0.711578
-0.728569
-0.751145
-0.796221
-0.872705
-1.00545
-0.740839
-0.70086
-0.66757
-0.655356
-0.674052
-0.730511
-0.811913
-0.915308
-0.742156
-0.716443
-0.698988
-0.708533
-0.741848
-0.797508
-0.887127
-1.00705
-0.690621
-0.659952
-0.633538
-0.627055
-0.649153
-0.707474
-0.805999
-0.913599
-0.626743
-0.602315
-0.583775
-0.589058
-0.622638
-0.688295
-0.790645
-0.916033
-0.575109
-0.547145
-0.52452
-0.521358
-0.546775
-0.60914
-0.718737
-0.845916
-0.50792
-0.48345
-0.465077
-0.466985
-0.500851
-0.573876
-0.684703
-0.817613
-0.454848
-0.427698
-0.406638
-0.404284
-0.433898
-0.502912
-0.620201
-0.755437
-0.394136
-0.369269
-0.351274
-0.353027
-0.388983
-0.465124
-0.578989
-0.714861
-0.343019
-0.317171
-0.299157
-0.299818
-0.334706
-0.409255
-0.525629
-0.658233
-0.293525
-0.270341
-0.255925
-0.260991
-0.29947
-0.375464
-0.484868
-0.611348
-0.250998
-0.230745
-0.218653
-0.225825
-0.264601
-0.338086
-0.442963
-0.559243
-0.220355
-0.201637
-0.19407
-0.204904
-0.243512
-0.31235
-0.40673
-0.51231
-0.195673
-0.181518
-0.177111
-0.18988
-0.227228
-0.29016
-0.37469
-0.469226
-0.18926
-0.178073
-0.175922
-0.187796
-0.220202
-0.275174
-0.348662
-0.430192
-0.18736
-0.17883
-0.178511
-0.191026
-0.221193
-0.269533
-0.332396
-0.40186
-0.186945
-0.181123
-0.182597
-0.195331
-0.223385
-0.266959
-0.322162
-0.381579
-0.186319
-0.182509
-0.185369
-0.198502
-0.224799
-0.264142
-0.312991
-0.364805
-0.185504
-0.183503
-0.187471
-0.200777
-0.225151
-0.260873
-0.304381
-0.349749
-0.184526
-0.18403
-0.188891
-0.202086
-0.224889
-0.257295
-0.296029
-0.335812
-0.18342
-0.184102
-0.189702
-0.20257
-0.223767
-0.253166
-0.287699
-0.322562
-0.182178
-0.183819
-0.189944
-0.20248
-0.222224
-0.248889
-0.279646
-0.310176
-0.180765
-0.183189
-0.189684
-0.201784
-0.220112
-0.244307
-0.271717
-0.29844
-0.179225
-0.182271
-0.189019
-0.200659
-0.217664
-0.239603
-0.264028
-0.287338
-0.177546
-0.181074
-0.187957
-0.199097
-0.21485
-0.23473
-0.2565
-0.276832
-0.175742
-0.179649
-0.186582
-0.197213
-0.211793
-0.229804
-0.249195
-0.266787
-0.173827
-0.178004
-0.184908
-0.195011
-0.208489
-0.224789
-0.242081
-0.257292
-0.171789
-0.17618
-0.182994
-0.19258
-0.205027
-0.219768
-0.235177
-0.248299
-0.169633
-0.174186
-0.180865
-0.189919
-0.201407
-0.214715
-0.228451
-0.240046
-0.167387
-0.17204
-0.178561
-0.187092
-0.19769
-0.209682
-0.22185
-0.232049
-0.165058
-0.169764
-0.176102
-0.184107
-0.193892
-0.204666
-0.215437
-0.224512
-0.162653
-0.167378
-0.173514
-0.180994
-0.190055
-0.199662
-0.209282
-0.217098
-0.160192
-0.164889
-0.170772
-0.177797
-0.186207
-0.194703
-0.203454
-0.210027
-0.157683
-0.162308
-0.167908
-0.174517
-0.1823
-0.189923
-0.197655
-0.203201
-0.155136
-0.159657
-0.164988
-0.171207
-0.178292
-0.185322
-0.192024
-0.196747
-0.152549
-0.156943
-0.162006
-0.167883
-0.174289
-0.180705
-0.186529
-0.190487
-0.149929
-0.154184
-0.158992
-0.16451
-0.170342
-0.176149
-0.181237
-0.184542
-0.147277
-0.151382
-0.155948
-0.1611
-0.166422
-0.171636
-0.176068
-0.178777
-0.144602
-0.148552
-0.152883
-0.157681
-0.162544
-0.167214
-0.171076
-0.173274
-0.141906
-0.145699
-0.149797
-0.154253
-0.158693
-0.162859
-0.166204
-0.167943
-0.139198
-0.142831
-0.146703
-0.150835
-0.154888
-0.158597
-0.161485
-0.162828
-0.136477
-0.139951
-0.143602
-0.147428
-0.151121
-0.154413
-0.156888
-0.157878
-0.133751
-0.137065
-0.140502
-0.144041
-0.147402
-0.150317
-0.152423
-0.153106
-0.131021
-0.134177
-0.137407
-0.140676
-0.143729
-0.146301
-0.148075
-0.148489
-0.128291
-0.131291
-0.134322
-0.137337
-0.140107
-0.142368
-0.143845
-0.144025
-0.125563
-0.12841
-0.13125
-0.134028
-0.136533
-0.138514
-0.139724
-0.1397
-0.122841
-0.125536
-0.128193
-0.130749
-0.13301
-0.134738
-0.135708
-0.135508
-0.120123
-0.122673
-0.125156
-0.127504
-0.129538
-0.131037
-0.131792
-0.131441
-0.112122
-0.114252
-0.116241
-0.118014
-0.119429
-0.120315
-0.120503
-0.119768
-0.0991683
-0.100721
-0.102087
-0.103197
-0.103951
-0.104232
-0.103921
-0.102896
-0.0866465
-0.0877313
-0.0886157
-0.089245
-0.0895453
-0.0894427
-0.0888572
-0.0877214
-0.0745703
-0.0752879
-0.075816
-0.0761116
-0.0761238
-0.0758022
-0.0750957
-0.0739619
-0.0629191
-0.0633472
-0.0636079
-0.0636697
-0.0634979
-0.0630594
-0.0623214
-0.0612575
-0.0516504
-0.0518509
-0.0519131
-0.0518146
-0.0515325
-0.0510451
-0.0503317
-0.0493759
-0.0407196
-0.0407394
-0.0406524
-0.0404441
-0.0400999
-0.0396063
-0.0389509
-0.0381243
-0.0300638
-0.029936
-0.0297345
-0.0294509
-0.0290773
-0.0286058
-0.02803
-0.0273452
-0.0196252
-0.0193733
-0.0190806
-0.018744
-0.0183606
-0.0179273
-0.0174421
-0.0169036
-0.00936385
-0.00899987
-0.00862771
-0.00824891
-0.00786505
-0.00747751
-0.0070878
-0.00669726
-50.6718
-50.6206
-50.1421
-49.8849
-49.6259
-49.1834
-48.7771
-48.3693
-47.9612
-47.5939
-47.2955
-47.0977
-47.0308
-47.0919
-47.2299
-47.3567
-47.3685
-47.1907
-46.7656
-46.0852
-45.2462
-44.4936
-44.0911
-44.2776
-45.0533
-46.1434
-47.2094
-47.8176
-47.6819
-46.8573
-45.289
-42.9292
-40.4299
-38.7251
-38.2403
-39.125
-40.7825
-42.4108
-43.86
-44.8785
-44.5391
-42.3987
-38.504
-33.9733
-30.2337
-27.872
-26.6685
-26.3092
-26.4797
-27.1544
-28.3807
-30.1836
-33.0179
-36.5175
-38.8749
-39.5412
-40.6756
-41.5287
-40.3481
-40.9807
-44.9906
-41.3087
-37.1398
-42.4828
-42.2389
-27.5112
-35.7607
-66.9873
-78.145
-66.3707
-53.5253
-44.1032
-42.3254
-43.3855
-31.017
0.609546
48.3033
90.6029
111.494
113.896
106.105
93.3549
94.0424
112.157
143.738
182.044
217.543
241.674
247.621
234.178
204.349
164.703
123.902
90.224
67.0785
55.6288
53.8113
57.4995
62.7996
64.9109
59.7935
46.1702
23.7785
-5.37155
-38.1891
-71.5135
-102.703
-129.974
-152.247
-168.935
-180.007
-185.894
-187.35
-185.394
-181.228
-176.166
-171.585
-168.837
-169.09
-173.012
-180.718
-191.975
-206.094
-221.907
-237.583
-250.595
-258.08
-256.856
-244.276
-218.447
-178.514
-125.216
-60.3807
12.6394
90.8689
165.382
233.194
288.526
326.365
342.677
335.173
302.298
245.911
169.447
80.1687
-19.16
-105.665
-177.937
-225.397
-241.285
-223.178
-174.799
-103.925
-26.6082
43.8462
85.605
-50.6718
-50.6206
-50.1421
-49.8849
-49.626
-49.1835
-48.7772
-48.3694
-47.9613
-47.594
-47.2956
-47.0977
-47.0308
-47.0919
-47.2299
-47.3568
-47.3686
-47.1908
-46.7657
-46.0853
-45.2463
-44.4936
-44.0911
-44.2776
-45.0534
-46.1434
-47.2096
-47.8178
-47.682
-46.8575
-45.2892
-42.9292
-40.4299
-38.725
-38.2403
-39.125
-40.7825
-42.4109
-43.8601
-44.8787
-44.5394
-42.3989
-38.5041
-33.9733
-30.2337
-27.872
-26.6685
-26.3092
-26.4797
-27.1544
-28.3807
-30.1836
-33.0179
-36.5177
-38.875
-39.5413
-40.6756
-41.5288
-40.3481
-40.9807
-44.991
-41.3089
-37.1395
-42.483
-42.2395
-27.51
-35.7594
-66.9882
-78.1471
-66.3713
-53.5251
-44.1026
-42.3253
-43.3867
-31.019
0.60816
48.3035
90.6047
111.496
113.897
106.105
93.3538
94.0407
112.155
143.737
182.044
217.544
241.676
247.623
234.18
204.35
164.703
123.902
90.2228
67.0773
55.6278
53.8106
57.4993
62.7998
64.9115
59.7943
46.171
23.7792
-5.37121
-38.1891
-71.5137
-102.704
-129.975
-152.247
-168.936
-180.007
-185.894
-187.35
-185.394
-181.228
-176.166
-171.585
-168.837
-169.09
-173.011
-180.718
-191.975
-206.094
-221.907
-237.583
-250.595
-258.081
-256.858
-244.277
-218.449
-178.516
-125.217
-60.3816
12.639
90.8689
165.383
233.195
288.528
326.367
342.68
335.176
302.3
245.913
169.448
80.1688
-19.1607
-105.666
-177.94
-225.4
-241.289
-223.181
-174.801
-103.926
-26.6073
43.8486
85.6085
-50.6719
-50.6207
-50.1423
-49.8849
-49.626
-49.1835
-48.7772
-48.3694
-47.9613
-47.5939
-47.2956
-47.0977
-47.0308
-47.092
-47.23
-47.3568
-47.3687
-47.1909
-46.7658
-46.0854
-45.2463
-44.4935
-44.091
-44.2775
-45.0533
-46.1434
-47.2097
-47.818
-47.6822
-46.8576
-45.2893
-42.9293
-40.4298
-38.7248
-38.24
-39.1248
-40.7826
-42.411
-43.8602
-44.879
-44.5398
-42.3993
-38.5043
-33.9732
-30.2334
-27.8718
-26.6683
-26.3091
-26.4796
-27.1543
-28.3806
-30.1835
-33.0178
-36.5178
-38.8754
-39.5414
-40.6757
-41.529
-40.348
-40.9806
-44.9916
-41.309
-37.1387
-42.4835
-42.2405
-27.5074
-35.7567
-66.99
-78.1512
-66.3725
-53.5246
-44.1014
-42.3252
-43.3888
-31.0228
0.605483
48.3041
90.6083
111.5
113.899
106.105
93.3519
94.0372
112.152
143.736
182.045
217.546
241.68
247.627
234.183
204.352
164.703
123.9
90.2206
67.0749
55.6257
53.8093
57.4989
62.8003
64.9128
59.796
46.1727
23.7805
-5.37044
-38.1889
-71.5142
-102.705
-129.976
-152.248
-168.937
-180.008
-185.895
-187.351
-185.394
-181.229
-176.166
-171.585
-168.836
-169.089
-173.01
-180.717
-191.975
-206.094
-221.907
-237.584
-250.596
-258.083
-256.86
-244.28
-218.452
-178.519
-125.22
-60.3834
12.6381
90.8689
165.384
233.197
288.532
326.372
342.685
335.181
302.305
245.917
169.45
80.1691
-19.1619
-105.67
-177.945
-225.407
-241.296
-223.187
-174.805
-103.927
-26.6054
43.8535
85.6156
-50.672
-50.6207
-50.142
-49.885
-49.6261
-49.1835
-48.7772
-48.3694
-47.9613
-47.594
-47.2956
-47.0977
-47.0308
-47.0919
-47.23
-47.3568
-47.3687
-47.1909
-46.7659
-46.0854
-45.2463
-44.4934
-44.0908
-44.2774
-45.0532
-46.1435
-47.2098
-47.8182
-47.6824
-46.8579
-45.2896
-42.9294
-40.4296
-38.7244
-38.2396
-39.1246
-40.7825
-42.4111
-43.8604
-44.8794
-44.5403
-42.3998
-38.5045
-33.9731
-30.233
-27.8714
-26.6681
-26.3089
-26.4795
-27.1542
-28.3804
-30.1832
-33.0176
-36.5181
-38.8758
-39.5415
-40.6757
-41.5293
-40.3478
-40.9804
-44.9925
-41.3094
-37.1374
-42.4841
-42.2421
-27.5034
-35.7526
-66.9927
-78.1573
-66.3743
-53.5238
-44.0996
-42.3249
-43.392
-31.0285
0.601513
48.3049
90.6137
111.506
113.902
106.106
93.3489
94.0321
112.148
143.733
182.046
217.55
241.685
247.633
234.188
204.355
164.703
123.899
90.2174
67.0713
55.6227
53.8074
57.4984
62.8011
64.9147
59.7986
46.1754
23.7826
-5.36926
-38.1887
-71.5148
-102.706
-129.977
-152.25
-168.939
-180.01
-185.897
-187.352
-185.395
-181.229
-176.165
-171.584
-168.835
-169.088
-173.009
-180.716
-191.974
-206.093
-221.907
-237.585
-250.598
-258.086
-256.864
-244.284
-218.456
-178.523
-125.223
-60.3861
12.6369
90.8691
165.386
233.201
288.537
326.378
342.693
335.189
302.313
245.923
169.454
80.1697
-19.1636
-105.675
-177.953
-225.417
-241.306
-223.197
-174.812
-103.93
-26.6026
43.8609
85.6264
-50.672
-50.6208
-50.1423
-49.885
-49.6261
-49.1835
-48.7772
-48.3694
-47.9613
-47.5939
-47.2955
-47.0976
-47.0307
-47.0919
-47.23
-47.3569
-47.3688
-47.191
-46.766
-46.0855
-45.2462
-44.4933
-44.0906
-44.2771
-45.0531
-46.1435
-47.21
-47.8185
-47.6827
-46.8582
-45.2898
-42.9294
-40.4293
-38.7239
-38.2391
-39.1243
-40.7825
-42.4112
-43.8606
-44.8799
-44.5411
-42.4004
-38.5048
-33.9728
-30.2325
-27.8709
-26.6677
-26.3087
-26.4793
-27.1539
-28.3801
-30.1829
-33.0174
-36.5184
-38.8763
-39.5417
-40.6758
-41.5297
-40.3475
-40.9801
-44.9936
-41.3097
-37.1358
-42.4849
-42.2442
-27.4981
-35.7471
-66.9962
-78.1655
-66.3765
-53.5227
-44.0971
-42.3244
-43.3962
-31.036
0.596233
48.3061
90.621
111.513
113.907
106.107
93.3451
94.0252
112.142
143.731
182.047
217.554
241.692
247.641
234.195
204.359
164.704
123.896
90.213
67.0665
55.6187
53.8049
57.4978
62.8022
64.9173
59.8021
46.1789
23.7855
-5.36767
-38.1884
-71.5156
-102.707
-129.979
-152.253
-168.941
-180.012
-185.898
-187.353
-185.396
-181.229
-176.165
-171.583
-168.834
-169.087
-173.008
-180.714
-191.973
-206.093
-221.907
-237.586
-250.601
-258.089
-256.868
-244.29
-218.462
-178.529
-125.228
-60.3896
12.6352
90.8693
165.389
233.206
288.545
326.387
342.703
335.2
302.323
245.931
169.459
80.1705
-19.166
-105.682
-177.964
-225.43
-241.321
-223.209
-174.82
-103.933
-26.5988
43.8708
85.6407
-50.6721
-50.6209
-50.1419
-49.885
-49.6262
-49.1835
-48.7772
-48.3694
-47.9613
-47.5939
-47.2955
-47.0976
-47.0306
-47.0919
-47.23
-47.357
-47.3689
-47.1912
-46.7661
-46.0856
-45.2462
-44.4931
-44.0903
-44.2768
-45.0529
-46.1435
-47.2103
-47.8189
-47.6831
-46.8586
-45.2902
-42.9295
-40.429
-38.7232
-38.2384
-39.1239
-40.7824
-42.4113
-43.8609
-44.8806
-44.542
-42.4013
-38.5052
-33.9725
-30.2318
-27.8703
-26.6673
-26.3084
-26.479
-27.1536
-28.3798
-30.1825
-33.0171
-36.5188
-38.877
-39.5418
-40.6758
-41.5302
-40.3471
-40.9797
-44.9951
-41.3104
-37.1337
-42.486
-42.2468
-27.4915
-35.7403
-67.0007
-78.1757
-66.3794
-53.5213
-44.094
-42.3239
-43.4015
-31.0455
0.589628
48.3076
90.6301
111.523
113.912
106.108
93.3402
94.0166
112.135
143.727
182.048
217.56
241.701
247.65
234.203
204.364
164.705
123.893
90.2076
67.0605
55.6137
53.8018
57.497
62.8036
64.9206
59.8065
46.1834
23.789
-5.36569
-38.1881
-71.5166
-102.709
-129.982
-152.256
-168.944
-180.015
-185.901
-187.355
-185.397
-181.23
-176.165
-171.582
-168.833
-169.085
-173.006
-180.712
-191.971
-206.092
-221.907
-237.587
-250.604
-258.094
-256.874
-244.297
-218.47
-178.536
-125.235
-60.3941
12.6331
90.8695
165.393
233.213
288.554
326.399
342.715
335.213
302.335
245.941
169.465
80.1715
-19.169
-105.691
-177.977
-225.447
-241.338
-223.225
-174.831
-103.937
-26.594
43.8832
85.6586
-50.6722
-50.6209
-50.1424
-49.885
-49.6262
-49.1835
-48.7772
-48.3694
-47.9612
-47.5938
-47.2954
-47.0975
-47.0306
-47.0918
-47.23
-47.357
-47.369
-47.1913
-46.7663
-46.0857
-45.2462
-44.4929
-44.0899
-44.2764
-45.0527
-46.1435
-47.2106
-47.8194
-47.6835
-46.859
-45.2906
-42.9296
-40.4285
-38.7225
-38.2376
-39.1234
-40.7824
-42.4115
-43.8612
-44.8814
-44.5431
-42.4023
-38.5056
-33.9722
-30.2309
-27.8695
-26.6667
-26.308
-26.4787
-27.1532
-28.3794
-30.1819
-33.0168
-36.5192
-38.8779
-39.542
-40.6759
-41.5307
-40.3467
-40.9792
-44.9968
-41.3108
-37.1312
-42.4872
-42.2499
-27.4835
-35.7321
-67.006
-78.1879
-66.3829
-53.5196
-44.0902
-42.3233
-43.4078
-31.0568
0.5817
48.3094
90.641
111.534
113.919
106.109
93.3344
94.0064
112.127
143.723
182.049
217.567
241.712
247.662
234.213
204.37
164.706
123.89
90.2011
67.0533
55.6077
53.798
57.496
62.8052
64.9245
59.8118
46.1887
23.7932
-5.36331
-38.1876
-71.5178
-102.712
-129.985
-152.259
-168.948
-180.018
-185.904
-187.357
-185.399
-181.23
-176.165
-171.581
-168.831
-169.082
-173.003
-180.71
-191.969
-206.091
-221.908
-237.589
-250.607
-258.1
-256.882
-244.305
-218.479
-178.545
-125.242
-60.3994
12.6306
90.8698
165.397
233.22
288.565
326.412
342.731
335.229
302.35
245.952
169.472
80.1727
-19.1725
-105.701
-177.993
-225.466
-241.36
-223.244
-174.844
-103.941
-26.5883
43.8981
85.6802
-50.6724
-50.621
-50.1418
-49.8851
-49.6263
-49.1836
-48.7772
-48.3694
-47.9612
-47.5939
-47.2953
-47.0974
-47.0305
-47.0918
-47.23
-47.3571
-47.3692
-47.1915
-46.7665
-46.0858
-45.2461
-44.4926
-44.0895
-44.276
-45.0524
-46.1435
-47.2109
-47.82
-47.684
-46.8596
-45.2911
-42.9297
-40.4281
-38.7216
-38.2366
-39.1228
-40.7823
-42.4116
-43.8616
-44.8823
-44.5444
-42.4034
-38.5061
-33.9718
-30.23
-27.8686
-26.6661
-26.3076
-26.4783
-27.1528
-28.3789
-30.1813
-33.0164
-36.5198
-38.8788
-39.5423
-40.676
-41.5314
-40.3462
-40.9787
-44.9989
-41.3118
-37.1283
-42.4886
-42.2536
-27.4742
-35.7225
-67.0122
-78.2021
-66.3869
-53.5177
-44.0859
-42.3225
-43.4152
-31.0701
0.572449
48.3114
90.6538
111.548
113.927
106.111
93.3276
93.9944
112.117
143.719
182.051
217.575
241.725
247.676
234.225
204.376
164.707
123.886
90.1936
67.045
55.6007
53.7937
57.4948
62.8071
64.9291
59.8179
46.1949
23.7981
-5.36053
-38.1871
-71.5192
-102.715
-129.989
-152.263
-168.952
-180.022
-185.907
-187.36
-185.4
-181.231
-176.164
-171.58
-168.828
-169.08
-173
-180.707
-191.967
-206.09
-221.908
-237.591
-250.612
-258.106
-256.89
-244.315
-218.489
-178.555
-125.251
-60.4056
12.6277
90.8702
165.402
233.229
288.577
326.428
342.749
335.248
302.367
245.966
169.48
80.174
-19.1767
-105.714
-178.012
-225.489
-241.384
-223.266
-174.859
-103.947
-26.5817
43.9154
85.7053
-50.6725
-50.6211
-50.1425
-49.8851
-49.6264
-49.1835
-48.7772
-48.3693
-47.9612
-47.5936
-47.2952
-47.0972
-47.0304
-47.0917
-47.23
-47.3572
-47.3693
-47.1917
-46.7667
-46.0859
-45.2461
-44.4924
-44.089
-44.2755
-45.0521
-46.1435
-47.2113
-47.8206
-47.6846
-46.8602
-45.2917
-42.9299
-40.4275
-38.7206
-38.2355
-39.1221
-40.7822
-42.4118
-43.8621
-44.8833
-44.5458
-42.4048
-38.5066
-33.9713
-30.2289
-27.8676
-26.6654
-26.3071
-26.4779
-27.1523
-28.3784
-30.1807
-33.016
-36.5204
-38.88
-39.5425
-40.676
-41.5321
-40.3456
-40.9781
-45.0012
-41.3122
-37.1249
-42.4903
-42.2577
-27.4636
-35.7116
-67.0193
-78.2184
-66.3915
-53.5154
-44.0809
-42.3217
-43.4237
-31.0852
0.561875
48.3138
90.6684
111.563
113.936
106.112
93.3198
93.9807
112.106
143.713
182.053
217.584
241.739
247.692
234.238
204.384
164.709
123.881
90.1849
67.0354
55.5927
53.7887
57.4935
62.8093
64.9343
59.8249
46.202
23.8037
-5.35735
-38.1865
-71.5208
-102.718
-129.993
-152.268
-168.957
-180.027
-185.911
-187.363
-185.402
-181.232
-176.164
-171.578
-168.826
-169.077
-172.997
-180.704
-191.965
-206.088
-221.908
-237.594
-250.617
-258.114
-256.9
-244.327
-218.501
-178.567
-125.261
-60.4127
12.6244
90.8706
165.407
233.24
288.592
326.446
342.769
335.269
302.387
245.982
169.49
80.1756
-19.1815
-105.728
-178.033
-225.516
-241.413
-223.291
-174.877
-103.953
-26.5741
43.9352
85.7339
-50.6727
-50.6212
-50.1416
-49.8851
-49.6265
-49.1836
-48.7772
-48.3694
-47.9612
-47.5938
-47.2951
-47.0971
-47.0302
-47.0916
-47.23
-47.3573
-47.3695
-47.192
-46.7669
-46.0861
-45.246
-44.492
-44.0885
-44.2749
-45.0518
-46.1435
-47.2117
-47.8213
-47.6853
-46.8609
-45.2923
-42.93
-40.4269
-38.7194
-38.2343
-39.1214
-40.7821
-42.4121
-43.8626
-44.8845
-44.5475
-42.4062
-38.5073
-33.9708
-30.2276
-27.8665
-26.6646
-26.3066
-26.4775
-27.1517
-28.3777
-30.1799
-33.0155
-36.5211
-38.8812
-39.5428
-40.6762
-41.533
-40.345
-40.9774
-45.0039
-41.3136
-37.1213
-42.4922
-42.2624
-27.4517
-35.6993
-67.0272
-78.2368
-66.3967
-53.5129
-44.0753
-42.3208
-43.4332
-31.1022
0.549976
48.3165
90.6847
111.58
113.946
106.114
93.3111
93.9652
112.093
143.707
182.055
217.594
241.755
247.709
234.253
204.393
164.71
123.876
90.1752
67.0246
55.5837
53.783
57.492
62.8118
64.9402
59.8328
46.21
23.8101
-5.35378
-38.1858
-71.5226
-102.721
-129.998
-152.273
-168.962
-180.032
-185.915
-187.366
-185.404
-181.233
-176.163
-171.576
-168.823
-169.073
-172.994
-180.701
-191.962
-206.087
-221.909
-237.596
-250.622
-258.122
-256.911
-244.339
-218.515
-178.58
-125.272
-60.4207
12.6207
90.871
165.414
233.251
288.608
326.467
342.792
335.293
302.409
246
169.501
80.1774
-19.1868
-105.743
-178.057
-225.546
-241.445
-223.319
-174.896
-103.96
-26.5656
43.9575
85.7662
-50.6729
-50.6214
-50.1425
-49.8852
-49.6265
-49.1836
-48.7772
-48.3693
-47.9611
-47.5935
-47.295
-47.097
-47.0301
-47.0915
-47.23
-47.3574
-47.3697
-47.1922
-46.7672
-46.0862
-45.2459
-44.4917
-44.0879
-44.2743
-45.0514
-46.1435
-47.2122
-47.8221
-47.686
-46.8616
-45.293
-42.9302
-40.4262
-38.7182
-38.2329
-39.1206
-40.782
-42.4123
-43.8631
-44.8858
-44.5493
-42.4079
-38.508
-33.9702
-30.2263
-27.8652
-26.6637
-26.306
-26.477
-27.1511
-28.3771
-30.179
-33.015
-36.5219
-38.8826
-39.5432
-40.6763
-41.5338
-40.3443
-40.9766
-45.0068
-41.3141
-37.117
-42.4942
-42.2676
-27.4384
-35.6856
-67.0361
-78.2572
-66.4025
-53.5102
-44.069
-42.3197
-43.4438
-31.1211
0.536753
48.3194
90.703
111.599
113.957
106.116
93.3014
93.9481
112.079
143.7
182.058
217.606
241.773
247.729
234.27
204.403
164.712
123.87
90.1643
67.0127
55.5737
53.7768
57.4903
62.8145
64.9468
59.8416
46.2189
23.8171
-5.34981
-38.1851
-71.5246
-102.725
-130.003
-152.279
-168.968
-180.037
-185.92
-187.37
-185.407
-181.234
-176.163
-171.574
-168.82
-169.069
-172.99
-180.697
-191.959
-206.085
-221.909
-237.6
-250.628
-258.131
-256.923
-244.353
-218.53
-178.595
-125.284
-60.4296
12.6165
90.8716
165.421
233.264
288.626
326.49
342.817
335.32
302.434
246.019
169.513
80.1794
-19.1928
-105.761
-178.084
-225.579
-241.48
-223.351
-174.918
-103.967
-26.5561
43.9823
85.8021
-50.6731
-50.6214
-50.1414
-49.8852
-49.6267
-49.1836
-48.7773
-48.3693
-47.9611
-47.5936
-47.2949
-47.0968
-47.0299
-47.0914
-47.23
-47.3576
-47.37
-47.1925
-46.7675
-46.0864
-45.2458
-44.4913
-44.0872
-44.2736
-45.051
-46.1436
-47.2127
-47.823
-47.6869
-46.8625
-45.2938
-42.9304
-40.4255
-38.7168
-38.2314
-39.1196
-40.7819
-42.4126
-43.8637
-44.8872
-44.5513
-42.4097
-38.5088
-33.9696
-30.2247
-27.8638
-26.6627
-26.3053
-26.4764
-27.1505
-28.3763
-30.1781
-33.0144
-36.5228
-38.8841
-39.5435
-40.6764
-41.5349
-40.3436
-40.9758
-45.0101
-41.3158
-37.1126
-42.4965
-42.2734
-27.4238
-35.6705
-67.0459
-78.2796
-66.4088
-53.5071
-44.0622
-42.3185
-43.4554
-31.1419
0.522203
48.3227
90.723
111.62
113.969
106.119
93.2907
93.9293
112.063
143.693
182.06
217.619
241.793
247.751
234.288
204.414
164.714
123.863
90.1524
66.9995
55.5626
53.7699
57.4885
62.8175
64.954
59.8512
46.2287
23.8248
-5.34545
-38.1843
-71.5268
-102.73
-130.009
-152.286
-168.974
-180.043
-185.925
-187.374
-185.409
-181.235
-176.162
-171.572
-168.817
-169.065
-172.985
-180.693
-191.956
-206.084
-221.91
-237.603
-250.635
-258.141
-256.936
-244.369
-218.547
-178.611
-125.298
-60.4393
12.612
90.8721
165.428
233.278
288.646
326.515
342.845
335.349
302.461
246.041
169.526
80.1816
-19.1994
-105.78
-178.113
-225.615
-241.519
-223.385
-174.941
-103.976
-26.5457
44.0095
85.8415
-50.6734
-50.6218
-50.1425
-49.8853
-49.6268
-49.1836
-48.7773
-48.3693
-47.961
-47.5933
-47.2947
-47.0966
-47.0298
-47.0913
-47.2301
-47.3577
-47.3702
-47.1928
-46.7678
-46.0866
-45.2458
-44.4908
-44.0865
-44.2728
-45.0506
-46.1436
-47.2133
-47.8239
-47.6877
-46.8634
-45.2946
-42.9306
-40.4247
-38.7153
-38.2298
-39.1187
-40.7818
-42.4129
-43.8644
-44.8887
-44.5535
-42.4117
-38.5096
-33.9689
-30.2231
-27.8623
-26.6616
-26.3046
-26.4758
-27.1497
-28.3755
-30.1771
-33.0137
-36.5237
-38.8858
-39.5439
-40.6765
-41.536
-40.3426
-40.9749
-45.0136
-41.3164
-37.1075
-42.4989
-42.2796
-27.4079
-35.6541
-67.0565
-78.3041
-66.4157
-53.5038
-44.0547
-42.3173
-43.4681
-31.1646
0.506327
48.3262
90.7449
111.643
113.982
106.121
93.279
93.9087
112.046
143.685
182.063
217.632
241.814
247.774
234.308
204.426
164.716
123.856
90.1394
66.9852
55.5506
53.7624
57.4865
62.8208
64.9618
59.8617
46.2393
23.8333
-5.34068
-38.1834
-71.5292
-102.734
-130.016
-152.293
-168.982
-180.05
-185.931
-187.378
-185.412
-181.236
-176.162
-171.57
-168.813
-169.061
-172.98
-180.689
-191.952
-206.082
-221.91
-237.607
-250.642
-258.152
-256.95
-244.386
-218.565
-178.628
-125.313
-60.45
12.607
90.8727
165.437
233.293
288.668
326.542
342.876
335.381
302.491
246.065
169.54
80.1841
-19.2065
-105.801
-178.145
-225.655
-241.562
-223.423
-174.967
-103.985
-26.5343
44.0392
85.8846
-50.6735
-50.6216
-50.1412
-49.8853
-49.6269
-49.1836
-48.7773
-48.3693
-47.961
-47.5935
-47.2947
-47.0965
-47.0296
-47.0912
-47.2301
-47.3579
-47.3705
-47.1932
-46.7681
-46.0868
-45.2457
-44.4903
-44.0857
-44.272
-45.0501
-46.1436
-47.2139
-47.825
-47.6887
-46.8644
-45.2956
-42.9308
-40.4238
-38.7136
-38.228
-39.1176
-40.7816
-42.4132
-43.8651
-44.8904
-44.5559
-42.4139
-38.5105
-33.9681
-30.2213
-27.8607
-26.6604
-26.3038
-26.4752
-27.1489
-28.3746
-30.176
-33.013
-36.5247
-38.8876
-39.5444
-40.6767
-41.5373
-40.3418
-40.9739
-45.0174
-41.3184
-37.1022
-42.5017
-42.2865
-27.3906
-35.6363
-67.068
-78.3306
-66.4232
-53.5002
-44.0466
-42.3159
-43.4819
-31.1892
0.489122
48.33
90.7686
111.668
113.997
106.124
93.2664
93.8864
112.028
143.676
182.067
217.647
241.838
247.8
234.329
204.439
164.718
123.848
90.1254
66.9696
55.5376
53.7543
57.4844
62.8243
64.9703
59.8731
46.2509
23.8424
-5.33552
-38.1824
-71.5318
-102.74
-130.022
-152.301
-168.989
-180.057
-185.937
-187.383
-185.415
-181.237
-176.161
-171.567
-168.809
-169.056
-172.975
-180.684
-191.948
-206.08
-221.911
-237.611
-250.65
-258.164
-256.966
-244.404
-218.584
-178.647
-125.329
-60.4615
12.6016
90.8734
165.446
233.31
288.692
326.571
342.909
335.415
302.523
246.09
169.556
80.1867
-19.2143
-105.824
-178.18
-225.697
-241.608
-223.464
-174.995
-103.995
-26.5219
44.0714
85.9312
-50.6743
-50.6226
-50.1433
-49.8854
-49.6271
-49.1836
-48.7773
-48.3692
-47.9609
-47.5929
-47.2943
-47.0961
-47.0293
-47.0911
-47.2301
-47.3581
-47.3709
-47.1937
-46.7687
-46.0872
-45.2455
-44.4896
-44.0845
-44.2707
-45.0493
-46.1437
-47.215
-47.8266
-47.6903
-46.866
-45.2971
-42.9311
-40.4223
-38.711
-38.2252
-39.1159
-40.7815
-42.4138
-43.8663
-44.8931
-44.5598
-42.4174
-38.512
-33.9669
-30.2184
-27.858
-26.6585
-26.3025
-26.4741
-27.1476
-28.3732
-30.1742
-33.0119
-36.5263
-38.8905
-39.5451
-40.6769
-41.5391
-40.3401
-40.9722
-45.0235
-41.3194
-37.0933
-42.5059
-42.2973
-27.3627
-35.6075
-67.0867
-78.3735
-66.4353
-53.4943
-44.0334
-42.3136
-43.504
-31.229
0.461321
48.3362
90.8069
111.708
114.02
106.129
93.246
93.8504
111.998
143.662
182.072
217.671
241.876
247.841
234.364
204.459
164.721
123.836
90.1026
66.9445
55.5166
53.7411
57.4809
62.8301
64.9841
59.8915
46.2695
23.8572
-5.32719
-38.1809
-71.5361
-102.748
-130.034
-152.313
-169.002
-180.069
-185.947
-187.39
-185.42
-181.239
-176.16
-171.563
-168.802
-169.048
-172.967
-180.676
-191.942
-206.076
-221.912
-237.617
-250.663
-258.184
-256.991
-244.434
-218.616
-178.678
-125.355
-60.4802
12.5929
90.8744
165.46
233.337
288.73
326.619
342.962
335.471
302.575
246.132
169.581
80.1909
-19.2268
-105.86
-178.236
-225.767
-241.682
-223.53
-175.04
-104.011
-26.502
44.1234
86.0065
-50.6742
-50.6217
-50.1398
-49.8854
-49.6275
-49.1837
-48.7774
-48.3693
-47.9608
-47.5933
-47.2941
-47.0958
-47.0289
-47.0908
-47.2302
-47.3586
-47.3716
-47.1946
-46.7696
-46.0877
-45.2453
-44.4884
-44.0825
-44.2687
-45.0481
-46.1437
-47.2165
-47.8292
-47.6926
-46.8685
-45.2993
-42.9316
-40.4201
-38.7069
-38.2208
-39.1132
-40.7811
-42.4146
-43.868
-44.8973
-44.5656
-42.4227
-38.5143
-33.9651
-30.214
-27.854
-26.6556
-26.3006
-26.4725
-27.1456
-28.371
-30.1714
-33.0102
-36.5288
-38.895
-39.5462
-40.6772
-41.5422
-40.3381
-40.9699
-45.033
-41.3242
-37.0802
-42.5127
-42.3144
-27.3203
-35.5635
-67.1151
-78.4389
-66.4539
-53.4854
-44.0134
-42.3103
-43.538
-31.2896
0.418928
48.3457
90.8652
111.769
114.055
106.136
93.2149
93.7955
111.953
143.64
182.08
217.708
241.933
247.904
234.418
204.491
164.727
123.817
90.0679
66.9062
55.4845
53.7211
57.4756
62.8388
65.005
59.9196
46.2979
23.8797
-5.31448
-38.1785
-71.5425
-102.761
-130.051
-152.332
-169.021
-180.086
-185.962
-187.402
-185.428
-181.242
-176.158
-171.557
-168.792
-169.036
-172.954
-180.664
-191.932
-206.071
-221.913
-237.627
-250.682
-258.214
-257.03
-244.479
-218.664
-178.724
-125.395
-60.5086
12.5796
90.8761
165.483
233.378
288.788
326.692
343.044
335.557
302.654
246.195
169.619
80.1973
-19.2459
-105.916
-178.321
-225.872
-241.796
-223.631
-175.11
-104.035
-26.4716
44.2027
86.1214
-50.6759
-50.6238
-50.1435
-49.8858
-49.6278
-49.1837
-48.7773
-48.3691
-47.9606
-47.5923
-47.2935
-47.0951
-47.0283
-47.0905
-47.2302
-47.359
-47.3723
-47.1955
-46.7705
-46.0883
-45.245
-44.4871
-44.0803
-44.2664
-45.0468
-46.1438
-47.2183
-47.832
-47.6953
-46.8713
-45.3019
-42.9322
-40.4177
-38.7023
-38.2159
-39.1103
-40.7807
-42.4155
-43.87
-44.9019
-44.5723
-42.4287
-38.5168
-33.963
-30.209
-27.8494
-26.6524
-26.2984
-26.4707
-27.1434
-28.3686
-30.1684
-33.0082
-36.5316
-38.9
-39.5474
-40.6776
-41.5455
-40.3353
-40.967
-45.0435
-41.3263
-37.0649
-42.5199
-42.3329
-27.2714
-35.5141
-67.147
-78.5126
-66.4745
-53.4753
-43.9909
-42.3063
-43.5758
-31.3579
0.371197
48.3563
90.9309
111.838
114.095
106.144
93.1799
93.7336
111.902
143.616
182.089
217.749
241.998
247.975
234.478
204.526
164.733
123.796
90.0289
66.8631
55.4484
53.6986
57.4696
62.8487
65.0286
59.9512
46.3299
23.905
-5.30019
-38.1759