/*--------------------------------*- C++ -*----------------------------------*\
| =========                 |                                                 |
| \\      /  F ield         | OpenFOAM: The Open Source CFD Toolbox           |
|  \\    /   O peration     | Version:  v1912                                 |
|   \\  /    A nd           | Website:  www.openfoam.com                      |
|    \\/     M anipulation  |                                                 |
\*---------------------------------------------------------------------------*/
FoamFile
{
    version     2.0;
    format      ascii;
    class       volScalarField;
    location    "40";
    object      omega;
}
// * * * * * * * * * * * * * * * * * * * * * * * * * * * * * * * * * * * * * //

dimensions      [0 0 -1 0 0 0 0];


internalField   nonuniform List<scalar> 
14268
(
0.01876
0.0189267
0.019096
0.0192676
0.0194416
0.0196177
0.0197959
0.019976
0.0201578
0.0203414
0.0205264
0.0207127
0.0208999
0.0210879
0.0212763
0.0214651
0.0216543
0.0218437
0.0220331
0.0222226
0.0224119
0.0226011
0.0227907
0.022983
0.0231788
0.0233778
0.0235802
0.0237862
0.0239957
0.0242087
0.0244256
0.0246461
0.0248707
0.0250991
0.0253319
0.0255687
0.02581
0.0260559
0.0263065
0.0265618
0.0268224
0.0270886
0.0273606
0.0276383
0.027922
0.0282121
0.0285087
0.0288118
0.0291219
0.0294392
0.0297636
0.0300955
0.0304353
0.0307831
0.0311394
0.0315041
0.0318774
0.0322598
0.0326514
0.0330528
0.0334641
0.0338859
0.0343186
0.0347626
0.0352183
0.0356864
0.0361672
0.0366616
0.0371699
0.0376929
0.0382333
0.0387925
0.0393711
0.0399699
0.0405898
0.0412316
0.0418962
0.0425845
0.0432976
0.044037
0.0448031
0.045598
0.0464225
0.0472783
0.0481671
0.0490905
0.0500504
0.051049
0.0520881
0.0531705
0.0542985
0.055475
0.0567033
0.0579865
0.0593285
0.0607336
0.0622062
0.0637515
0.0653755
0.0670843
0.068885
0.0707856
0.072795
0.0749234
0.0771823
0.0795852
0.0821473
0.0848863
0.0878229
0.0909814
0.0943904
0.0980842
0.102107
0.106513
0.111364
0.116738
0.122731
0.129464
0.137096
0.14583
0.15594
0.167794
0.181905
0.198997
0.220123
0.246858
0.281646
0.328384
0.393617
0.48879
0.635145
0.874727
1.30124
2.15348
0.271523
0.271058
0.270587
0.270111
0.269634
0.269151
0.268666
0.26818
0.267694
0.26721
0.266732
0.266262
0.265802
0.265355
0.264924
0.264511
0.264121
0.263753
0.263413
0.2631
0.262818
0.262568
0.262361
0.262253
0.262248
0.262336
0.262525
0.262816
0.263201
0.26368
0.264249
0.264902
0.265636
0.266443
0.26732
0.268256
0.26925
0.270291
0.271374
0.272488
0.273627
0.274786
0.275955
0.277125
0.278288
0.27944
0.280575
0.281682
0.282759
0.283802
0.284803
0.285759
0.286665
0.287517
0.288313
0.28905
0.289729
0.290349
0.29091
0.291409
0.29185
0.29223
0.29255
0.292812
0.293017
0.293166
0.293262
0.293304
0.293296
0.29324
0.29317
0.293095
0.293019
0.292937
0.292851
0.29276
0.292664
0.292565
0.29246
0.29235
0.292236
0.292115
0.291989
0.291858
0.291721
0.291579
0.291433
0.291282
0.291128
0.290969
0.290806
0.290638
0.290465
0.290287
0.290104
0.289916
0.289723
0.289526
0.289325
0.289119
0.288908
0.288692
0.288473
0.288247
0.288017
0.287783
0.287546
0.287306
0.287064
0.286822
0.28658
0.286342
0.286124
0.285951
0.285828
0.28576
0.285752
0.285813
0.285956
0.286195
0.286551
0.287055
0.287751
0.288703
0.290012
0.291834
0.294237
0.297865
0.303616
0.312853
0.328433
0.358284
0.421809
0.626097
0.299321
0.29928
0.299238
0.299191
0.299141
0.299086
0.299027
0.298964
0.298897
0.298828
0.298757
0.298684
0.29861
0.298537
0.298464
0.298394
0.298326
0.298262
0.298202
0.298148
0.298101
0.29806
0.298028
0.298014
0.298019
0.298036
0.298063
0.2981
0.298147
0.298202
0.298266
0.298336
0.298413
0.298496
0.298581
0.298671
0.298763
0.298856
0.298949
0.299042
0.299133
0.299223
0.29931
0.299394
0.299474
0.299551
0.299624
0.299692
0.299756
0.299816
0.299872
0.299926
0.299975
0.300017
0.300052
0.30008
0.300104
0.300123
0.300138
0.300149
0.300157
0.300163
0.300167
0.30017
0.300171
0.30017
0.30017
0.300168
0.300166
0.300164
0.300162
0.30016
0.300159
0.300157
0.300154
0.300149
0.300142
0.300136
0.300129
0.300122
0.300113
0.300105
0.300096
0.300086
0.300077
0.300067
0.300057
0.300047
0.300037
0.300026
0.300016
0.300006
0.299996
0.299986
0.299976
0.299966
0.299956
0.299946
0.299936
0.299927
0.299918
0.299909
0.299898
0.299886
0.299873
0.299859
0.299844
0.299828
0.299811
0.299793
0.299773
0.299752
0.299731
0.299713
0.299697
0.299683
0.299672
0.299664
0.299658
0.299656
0.299657
0.299664
0.299677
0.299702
0.299739
0.2998
0.299898
0.299919
0.300236
0.300757
0.301719
0.303844
0.309803
0.338811
0.301005
0.301007
0.301009
0.301008
0.301004
0.300997
0.300987
0.300973
0.300957
0.300939
0.300917
0.300895
0.300871
0.300847
0.300823
0.300799
0.300777
0.300757
0.30074
0.300727
0.300717
0.300711
0.30071
0.300715
0.300719
0.30072
0.300717
0.30071
0.300701
0.300688
0.300672
0.300654
0.300633
0.30061
0.300586
0.30056
0.300534
0.300509
0.300484
0.300459
0.300436
0.300415
0.300396
0.300379
0.300365
0.300354
0.300345
0.30034
0.300336
0.300335
0.300335
0.300337
0.30034
0.300339
0.300337
0.300333
0.300328
0.300322
0.300315
0.300308
0.3003
0.300293
0.300286
0.300279
0.300273
0.300267
0.300262
0.300258
0.300255
0.300253
0.300251
0.300251
0.300251
0.300252
0.300252
0.300252
0.300252
0.30025
0.300248
0.300246
0.300243
0.30024
0.300236
0.300232
0.300228
0.300224
0.30022
0.300215
0.30021
0.300206
0.300202
0.300199
0.300195
0.300193
0.300191
0.30019
0.300189
0.300188
0.300187
0.300187
0.300186
0.300184
0.300183
0.300183
0.300183
0.300182
0.300182
0.30018
0.300179
0.300177
0.300175
0.300172
0.300168
0.300165
0.300162
0.300159
0.300158
0.300156
0.300155
0.300155
0.300157
0.300158
0.300164
0.300171
0.300181
0.300194
0.300209
0.30023
0.300253
0.30031
0.300372
0.300536
0.301097
0.304944
0.301126
0.301132
0.30114
0.301143
0.301141
0.301135
0.301126
0.301115
0.3011
0.301083
0.301063
0.301041
0.301017
0.300994
0.300969
0.300946
0.300924
0.300903
0.300884
0.300869
0.300858
0.30085
0.300846
0.300847
0.300851
0.300852
0.300848
0.30084
0.300827
0.300811
0.300791
0.300768
0.300742
0.300713
0.300684
0.300653
0.300622
0.300591
0.30056
0.300529
0.300501
0.300475
0.300451
0.300428
0.300409
0.300392
0.300378
0.300367
0.300358
0.300353
0.300349
0.300349
0.300349
0.300348
0.300345
0.30034
0.300335
0.300329
0.300322
0.300315
0.300308
0.300301
0.300295
0.300288
0.300283
0.300278
0.300274
0.300271
0.300268
0.300266
0.300266
0.300266
0.300267
0.300268
0.300268
0.300266
0.300261
0.300257
0.300254
0.300249
0.300244
0.300239
0.300234
0.300229
0.300224
0.300219
0.300214
0.30021
0.300207
0.300204
0.300201
0.300199
0.300196
0.300194
0.300192
0.30019
0.300189
0.300188
0.300189
0.30019
0.300193
0.300196
0.300197
0.300198
0.300199
0.3002
0.3002
0.300199
0.3002
0.300201
0.300201
0.300202
0.300205
0.300209
0.300213
0.30022
0.300226
0.300233
0.30024
0.300248
0.300254
0.300262
0.300269
0.300277
0.300285
0.300292
0.300302
0.300306
0.300318
0.300318
0.300331
0.300327
0.30036
0.30084
0.30114
0.301144
0.30115
0.301153
0.301152
0.301147
0.301139
0.301129
0.301116
0.3011
0.301082
0.301063
0.301042
0.301021
0.300999
0.300979
0.30096
0.300943
0.300929
0.300917
0.30091
0.300906
0.300907
0.300912
0.300915
0.300912
0.300905
0.300893
0.300877
0.300857
0.300833
0.300806
0.300776
0.300744
0.30071
0.300676
0.300641
0.300606
0.300572
0.30054
0.300509
0.30048
0.300454
0.30043
0.300409
0.300392
0.300377
0.300366
0.300357
0.300352
0.300349
0.30035
0.30035
0.300348
0.300345
0.30034
0.300334
0.300328
0.300321
0.300314
0.300306
0.300299
0.300292
0.300285
0.30028
0.300274
0.30027
0.300266
0.300263
0.300261
0.30026
0.300261
0.300262
0.300263
0.300263
0.300263
0.30026
0.300258
0.300255
0.300253
0.30025
0.300246
0.300243
0.300239
0.300234
0.300229
0.300225
0.30022
0.300214
0.300208
0.300203
0.300198
0.300194
0.30019
0.300187
0.300185
0.300184
0.300185
0.300187
0.300191
0.300196
0.300202
0.300204
0.300204
0.300201
0.3002
0.300198
0.300195
0.300192
0.300191
0.30019
0.30019
0.300189
0.300188
0.300188
0.300187
0.300186
0.300185
0.300185
0.300185
0.300187
0.300189
0.300194
0.300199
0.300206
0.300218
0.300232
0.300255
0.300269
0.300299
0.300311
0.300331
0.300329
0.300359
0.301154
0.30116
0.301168
0.301172
0.301171
0.301167
0.30116
0.30115
0.301137
0.301122
0.301104
0.301085
0.301064
0.301043
0.301022
0.301001
0.300982
0.300964
0.300949
0.300937
0.300928
0.300924
0.300924
0.300929
0.30093
0.300927
0.300919
0.300906
0.300889
0.300868
0.300844
0.300816
0.300785
0.300753
0.300718
0.300683
0.300647
0.300613
0.300578
0.300545
0.300514
0.300485
0.300459
0.300435
0.300414
0.300397
0.300383
0.300372
0.300363
0.300358
0.300355
0.300355
0.300355
0.300353
0.300349
0.300344
0.300337
0.30033
0.300322
0.300314
0.300305
0.300297
0.300289
0.300282
0.300276
0.30027
0.300264
0.30026
0.300257
0.300255
0.300253
0.300252
0.300253
0.300253
0.300254
0.300256
0.300257
0.300256
0.300255
0.300252
0.300249
0.300246
0.300242
0.300238
0.300234
0.300231
0.300226
0.300222
0.300216
0.300212
0.300208
0.300204
0.300202
0.300199
0.300197
0.300195
0.300192
0.300189
0.300187
0.300186
0.300186
0.300187
0.30019
0.300192
0.300195
0.300197
0.300198
0.300198
0.300199
0.3002
0.3002
0.3002
0.300199
0.300198
0.300198
0.300199
0.300201
0.300204
0.300208
0.300215
0.300222
0.30023
0.300239
0.300248
0.300257
0.300266
0.300278
0.300286
0.300301
0.300306
0.30032
0.300321
0.300307
0.300283
0.301164
0.301168
0.301176
0.301178
0.301178
0.301174
0.301166
0.301156
0.301144
0.301128
0.301111
0.301092
0.301072
0.301052
0.301031
0.301012
0.300993
0.300977
0.300963
0.300953
0.300946
0.300943
0.300945
0.300949
0.30095
0.300945
0.300936
0.300922
0.300904
0.300882
0.300856
0.300827
0.300796
0.300762
0.300727
0.300691
0.300654
0.300619
0.300584
0.300551
0.30052
0.30049
0.300463
0.30044
0.300419
0.300401
0.300387
0.300376
0.300367
0.300362
0.30036
0.30036
0.300359
0.300357
0.300353
0.300348
0.300341
0.300334
0.300326
0.300318
0.300309
0.300302
0.300294
0.300287
0.300281
0.300274
0.300269
0.300265
0.300262
0.300259
0.300258
0.300258
0.300258
0.300259
0.300259
0.300257
0.300253
0.30025
0.300247
0.300244
0.30024
0.300235
0.300231
0.300226
0.300222
0.300217
0.300212
0.300209
0.300207
0.300205
0.300203
0.300201
0.300199
0.300198
0.300197
0.300197
0.300197
0.300196
0.300196
0.300197
0.300198
0.300201
0.300207
0.300212
0.300215
0.300219
0.300223
0.300222
0.300221
0.300221
0.300221
0.300217
0.300213
0.300206
0.300202
0.3002
0.300199
0.300197
0.300195
0.300193
0.300193
0.300193
0.300194
0.300195
0.300199
0.300207
0.300219
0.300241
0.300257
0.300287
0.300303
0.300324
0.300319
0.300294
0.301178
0.301184
0.30119
0.301193
0.301192
0.301188
0.301181
0.301171
0.301159
0.301143
0.301127
0.301108
0.301089
0.301068
0.301049
0.30103
0.301012
0.300996
0.300983
0.300973
0.300967
0.300965
0.300967
0.30097
0.30097
0.300964
0.300953
0.300938
0.300919
0.300895
0.300869
0.300839
0.300806
0.300772
0.300736
0.300699
0.300662
0.300626
0.300591
0.300557
0.300525
0.300495
0.300468
0.300445
0.300424
0.300406
0.300392
0.300381
0.300372
0.300367
0.300365
0.300365
0.300364
0.300362
0.300357
0.300352
0.300345
0.300337
0.300329
0.30032
0.300312
0.300304
0.300296
0.300288
0.300281
0.300275
0.300269
0.300265
0.300261
0.300258
0.300256
0.300256
0.300256
0.300257
0.300257
0.300257
0.300257
0.300255
0.300254
0.300251
0.300248
0.300244
0.300241
0.300236
0.300232
0.300227
0.300224
0.300218
0.300213
0.300206
0.300201
0.300197
0.300193
0.300189
0.300187
0.300185
0.300185
0.300187
0.300189
0.300191
0.300193
0.300193
0.300193
0.300193
0.300191
0.300194
0.300199
0.300202
0.300206
0.300209
0.300214
0.300212
0.300208
0.3002
0.300194
0.300193
0.300192
0.300191
0.300192
0.300195
0.3002
0.300207
0.300215
0.300226
0.300236
0.300247
0.30026
0.30027
0.300286
0.300295
0.300308
0.300312
0.300303
0.300284
0.301194
0.3012
0.301205
0.301208
0.301208
0.301204
0.301197
0.301187
0.301174
0.30116
0.301143
0.301125
0.301105
0.301086
0.301066
0.301048
0.301031
0.301016
0.301003
0.300994
0.300989
0.300987
0.30099
0.300993
0.300991
0.300984
0.300972
0.300956
0.300935
0.300911
0.300883
0.300852
0.300819
0.300784
0.300747
0.300709
0.300671
0.300634
0.300599
0.300564
0.300532
0.300502
0.300475
0.300451
0.30043
0.300412
0.300397
0.300387
0.300378
0.300373
0.300371
0.300371
0.30037
0.300367
0.300362
0.300356
0.300349
0.300341
0.300332
0.300323
0.300314
0.300306
0.300297
0.300289
0.300282
0.300276
0.30027
0.300265
0.300261
0.300258
0.300256
0.300255
0.300255
0.300256
0.300257
0.300256
0.300255
0.300252
0.30025
0.300247
0.300243
0.300239
0.300235
0.300231
0.300226
0.300221
0.300217
0.300212
0.300208
0.300204
0.300201
0.300197
0.300194
0.300192
0.30019
0.300187
0.300186
0.300185
0.300185
0.300187
0.300189
0.30019
0.300188
0.300187
0.300192
0.300199
0.300207
0.300218
0.30023
0.300241
0.300252
0.300258
0.300263
0.300259
0.300252
0.300253
0.30025
0.30024
0.300228
0.30022
0.300215
0.300212
0.300209
0.300207
0.300206
0.300207
0.300214
0.300231
0.300248
0.300279
0.300297
0.300318
0.300311
0.300296
0.301209
0.301213
0.30122
0.301222
0.301221
0.301218
0.301211
0.301201
0.30119
0.301176
0.30116
0.301143
0.301124
0.301105
0.301086
0.301069
0.301053
0.301039
0.301028
0.30102
0.301015
0.301015
0.301019
0.30102
0.301017
0.301008
0.300995
0.300978
0.300956
0.30093
0.300901
0.300868
0.300834
0.300797
0.300759
0.300721
0.300682
0.300644
0.300608
0.300573
0.30054
0.30051
0.300482
0.300457
0.300437
0.300418
0.300403
0.300393
0.300384
0.300379
0.300377
0.300376
0.300375
0.300372
0.300367
0.300361
0.300353
0.300345
0.300336
0.300327
0.300318
0.300309
0.3003
0.300292
0.300285
0.300278
0.300272
0.300267
0.300263
0.30026
0.300258
0.300257
0.300257
0.300258
0.300258
0.300258
0.300257
0.300255
0.300253
0.300251
0.300247
0.300244
0.30024
0.300236
0.300231
0.300226
0.300222
0.300218
0.300213
0.300209
0.300205
0.300202
0.300198
0.300195
0.300192
0.300191
0.30019
0.300189
0.300189
0.300191
0.300194
0.300198
0.300198
0.300197
0.300197
0.300197
0.300196
0.300193
0.300186
0.300188
0.300197
0.300214
0.30023
0.30023
0.300229
0.300231
0.300227
0.300215
0.300201
0.300193
0.300191
0.300193
0.300197
0.300204
0.300213
0.300223
0.300239
0.300254
0.300272
0.300289
0.300308
0.30031
0.300317
0.300293
0.301225
0.301227
0.301231
0.301235
0.301232
0.301228
0.301222
0.301212
0.3012
0.301187
0.30117
0.301153
0.301136
0.301118
0.3011
0.301083
0.301068
0.301054
0.301044
0.301037
0.301033
0.301034
0.301037
0.301036
0.301031
0.301022
0.301007
0.300988
0.300965
0.300939
0.300908
0.300876
0.300841
0.300803
0.300765
0.300727
0.300688
0.30065
0.300614
0.300579
0.300545
0.300516
0.300488
0.300464
0.300443
0.300425
0.30041
0.300399
0.300391
0.300386
0.300383
0.300383
0.300382
0.300378
0.300373
0.300366
0.300358
0.30035
0.30034
0.300331
0.300322
0.300312
0.300303
0.300294
0.300286
0.300279
0.300273
0.300267
0.300263
0.300259
0.300256
0.300255
0.300254
0.300254
0.300255
0.300255
0.300254
0.300253
0.30025
0.300248
0.300244
0.300241
0.300237
0.300233
0.300228
0.300224
0.300219
0.300215
0.300211
0.300207
0.300204
0.300201
0.300198
0.300196
0.300194
0.300193
0.300193
0.300193
0.300195
0.300197
0.3002
0.300204
0.300205
0.300205
0.300205
0.300205
0.300203
0.3002
0.300196
0.300193
0.300191
0.300195
0.300204
0.300219
0.300235
0.30025
0.300257
0.300256
0.300246
0.300239
0.300236
0.300236
0.300238
0.300241
0.300246
0.300247
0.300253
0.300259
0.300274
0.30029
0.300306
0.30033
0.300341
0.300297
0.301264
0.301268
0.301271
0.301274
0.301271
0.301266
0.301257
0.301246
0.301232
0.301215
0.301198
0.301178
0.301159
0.301139
0.30112
0.301101
0.301084
0.30107
0.301059
0.301052
0.301049
0.301049
0.301053
0.301052
0.301047
0.301038
0.301023
0.301004
0.300982
0.300955
0.300924
0.300891
0.300856
0.300819
0.30078
0.300741
0.300702
0.300663
0.300626
0.300591
0.300557
0.300527
0.300499
0.300475
0.300453
0.300435
0.30042
0.300409
0.300401
0.300396
0.300394
0.300394
0.300392
0.300388
0.300382
0.300374
0.300366
0.300357
0.300348
0.300338
0.300328
0.300319
0.30031
0.300301
0.300293
0.300286
0.30028
0.300274
0.30027
0.300266
0.300264
0.300262
0.300262
0.300263
0.300264
0.300264
0.300263
0.300261
0.300259
0.300257
0.300253
0.300251
0.300247
0.300243
0.300238
0.300234
0.300229
0.300226
0.300222
0.300219
0.300216
0.300213
0.30021
0.300208
0.300206
0.300205
0.300205
0.300205
0.300206
0.300207
0.300209
0.300216
0.300221
0.300221
0.300223
0.300226
0.300232
0.30024
0.300251
0.30026
0.300265
0.300264
0.300263
0.300251
0.300237
0.300233
0.300226
0.300211
0.300194
0.300185
0.300185
0.300192
0.300202
0.300214
0.300225
0.300236
0.300248
0.300267
0.300287
0.300316
0.300341
0.300376
0.300392
0.300353
0.301284
0.301288
0.301292
0.301295
0.301297
0.301294
0.301289
0.301282
0.301272
0.30126
0.301246
0.301231
0.301215
0.301198
0.301182
0.301167
0.301153
0.301142
0.301134
0.301129
0.301128
0.301131
0.30113
0.301125
0.301116
0.301102
0.301084
0.301061
0.301034
0.301004
0.300969
0.300932
0.300893
0.300851
0.30081
0.300767
0.300724
0.300683
0.300643
0.300606
0.300569
0.300537
0.300508
0.300482
0.300459
0.30044
0.300425
0.300413
0.300404
0.300398
0.300395
0.300395
0.300393
0.300389
0.300382
0.300375
0.300366
0.300357
0.300346
0.300336
0.300325
0.300315
0.300305
0.300295
0.300287
0.300279
0.300271
0.300265
0.30026
0.300256
0.300252
0.30025
0.300249
0.300249
0.300248
0.300249
0.300247
0.300246
0.300243
0.30024
0.300237
0.300233
0.300228
0.300224
0.300219
0.300214
0.300209
0.300204
0.300199
0.300195
0.300191
0.300187
0.300184
0.300181
0.300179
0.300178
0.300178
0.300178
0.300181
0.300184
0.30019
0.3002
0.300215
0.300226
0.300234
0.300241
0.300248
0.300257
0.30027
0.300278
0.300282
0.300284
0.300282
0.300274
0.300262
0.300256
0.300243
0.300218
0.300203
0.300203
0.300215
0.300238
0.300264
0.300289
0.300313
0.300327
0.300343
0.300362
0.300385
0.300407
0.300431
0.300432
0.300402
0.300445
0.301285
0.301292
0.301297
0.301298
0.301299
0.301296
0.301291
0.301284
0.301275
0.301265
0.301252
0.301239
0.301224
0.30121
0.301196
0.301183
0.301171
0.301162
0.301154
0.30115
0.301149
0.30115
0.301148
0.301142
0.30113
0.301115
0.301094
0.301069
0.30104
0.301008
0.300972
0.300934
0.300894
0.300852
0.30081
0.300767
0.300725
0.300683
0.300644
0.300607
0.300572
0.300539
0.300511
0.300486
0.300464
0.300445
0.30043
0.300419
0.30041
0.300405
0.300403
0.300403
0.300402
0.300398
0.300393
0.300386
0.300378
0.300369
0.300358
0.300348
0.300338
0.300329
0.300319
0.30031
0.300301
0.300294
0.300287
0.300281
0.300276
0.300272
0.300268
0.300266
0.300265
0.300265
0.300265
0.300266
0.300264
0.300263
0.30026
0.300258
0.300254
0.300251
0.300246
0.300242
0.300237
0.300232
0.300227
0.300222
0.300217
0.300213
0.300208
0.300204
0.300199
0.300196
0.300192
0.30019
0.300187
0.300185
0.300184
0.300183
0.300183
0.300183
0.300187
0.300196
0.300205
0.30021
0.300213
0.300215
0.300218
0.30022
0.300222
0.300223
0.300223
0.300221
0.300219
0.300218
0.300214
0.300206
0.300195
0.300188
0.300181
0.300179
0.300175
0.300173
0.300172
0.300181
0.300189
0.300182
0.300183
0.300201
0.300213
0.300247
0.300264
0.300324
0.301293
0.301298
0.3013
0.301302
0.301299
0.301293
0.301287
0.301278
0.301266
0.301252
0.301237
0.30122
0.301203
0.301186
0.30117
0.301155
0.301141
0.30113
0.301122
0.301118
0.301117
0.301119
0.30112
0.301117
0.301108
0.301095
0.301077
0.301055
0.301029
0.300999
0.300965
0.300929
0.300891
0.300851
0.30081
0.300768
0.300727
0.300687
0.300648
0.300612
0.300577
0.300545
0.300518
0.300493
0.300471
0.300454
0.30044
0.300429
0.300421
0.300416
0.300415
0.300415
0.300412
0.300408
0.300402
0.300394
0.300384
0.300374
0.300363
0.300352
0.300341
0.300331
0.300322
0.300312
0.300303
0.300295
0.300288
0.300282
0.300277
0.300272
0.300269
0.300267
0.300266
0.300266
0.300267
0.300267
0.300266
0.300265
0.300263
0.300261
0.300258
0.300254
0.300251
0.300247
0.300243
0.300239
0.300235
0.300232
0.300228
0.300225
0.300222
0.300219
0.300217
0.300215
0.300213
0.300213
0.300212
0.300212
0.300212
0.300213
0.300215
0.300217
0.300217
0.300212
0.300208
0.300207
0.300207
0.300206
0.300206
0.300204
0.300198
0.30019
0.300185
0.300182
0.30018
0.300177
0.300175
0.300175
0.300174
0.300175
0.300177
0.300178
0.30018
0.300179
0.300179
0.300166
0.30016
0.300179
0.300196
0.300197
0.300193
0.300191
0.300204
0.300232
0.301321
0.301323
0.301324
0.301326
0.301323
0.301315
0.301308
0.301297
0.301284
0.301269
0.301254
0.301236
0.301219
0.301202
0.301185
0.301171
0.301158
0.301148
0.301141
0.301138
0.301139
0.301142
0.301141
0.301136
0.301126
0.301112
0.301094
0.301071
0.301044
0.301013
0.300979
0.300942
0.300902
0.300862
0.30082
0.300778
0.300736
0.300695
0.300656
0.300619
0.300584
0.300552
0.300523
0.300498
0.300476
0.300458
0.300444
0.300432
0.300424
0.300419
0.300417
0.300417
0.300414
0.300409
0.300402
0.300393
0.300384
0.300373
0.300362
0.300351
0.30034
0.300328
0.300318
0.300307
0.300298
0.300289
0.300281
0.300274
0.300268
0.300263
0.300259
0.300256
0.300254
0.300253
0.300253
0.300252
0.300251
0.30025
0.300247
0.300245
0.300241
0.300237
0.300233
0.300229
0.300224
0.300219
0.300215
0.30021
0.300205
0.300201
0.300197
0.300193
0.300189
0.300186
0.300184
0.300182
0.300181
0.30018
0.300179
0.30018
0.30018
0.300181
0.300179
0.300177
0.300176
0.300174
0.300174
0.300173
0.300172
0.300172
0.300174
0.300179
0.300183
0.300186
0.300189
0.300192
0.300195
0.3002
0.300204
0.300209
0.300212
0.300215
0.300218
0.300222
0.300228
0.300221
0.300221
0.300193
0.30017
0.300168
0.300173
0.300201
0.300223
0.300253
0.30134
0.301343
0.301347
0.301348
0.301346
0.301344
0.301336
0.301328
0.301318
0.301303
0.301289
0.301273
0.301257
0.30124
0.301224
0.301209
0.301197
0.301187
0.30118
0.301178
0.30118
0.30118
0.301177
0.30117
0.301158
0.301142
0.301121
0.301096
0.301066
0.301033
0.300998
0.300959
0.300918
0.300876
0.300832
0.300789
0.300746
0.300705
0.300664
0.300626
0.300591
0.300558
0.300529
0.300504
0.300481
0.300463
0.300448
0.300436
0.300428
0.300423
0.300421
0.300421
0.300418
0.300414
0.300407
0.3004
0.300391
0.30038
0.30037
0.30036
0.300349
0.300338
0.300328
0.300319
0.30031
0.300302
0.300295
0.300288
0.300282
0.300277
0.300274
0.300271
0.30027
0.30027
0.30027
0.300269
0.300269
0.300267
0.300265
0.300263
0.300259
0.300255
0.300251
0.300247
0.300242
0.300237
0.300233
0.300228
0.300223
0.300219
0.300215
0.300211
0.300207
0.300204
0.300201
0.300199
0.300197
0.300196
0.300194
0.300194
0.300193
0.300193
0.300193
0.300194
0.300196
0.300196
0.300197
0.300197
0.300198
0.300197
0.300195
0.300192
0.30019
0.300188
0.300186
0.300185
0.300183
0.300182
0.30018
0.300179
0.300177
0.300175
0.300173
0.300168
0.300164
0.30017
0.300174
0.300173
0.300193
0.300213
0.300207
0.30022
0.300228
0.300271
0.301353
0.301356
0.301358
0.301362
0.30136
0.301358
0.301352
0.301344
0.301334
0.301322
0.301309
0.301295
0.301279
0.301264
0.301249
0.301236
0.301225
0.301216
0.30121
0.301207
0.301208
0.301208
0.301203
0.301195
0.301181
0.301163
0.301141
0.301115
0.301084
0.30105
0.301014
0.300974
0.300931
0.300888
0.300844
0.3008
0.300757
0.300714
0.300673
0.300634
0.300598
0.300566
0.300536
0.30051
0.300488
0.300469
0.300454
0.300442
0.300435
0.30043
0.300428
0.300428
0.300426
0.300422
0.300415
0.300407
0.300397
0.300387
0.300376
0.300365
0.300354
0.300342
0.300332
0.300322
0.300312
0.300303
0.300295
0.300287
0.300281
0.300276
0.300271
0.300268
0.300265
0.300265
0.300264
0.300263
0.300263
0.300261
0.300258
0.300255
0.300253
0.300249
0.300245
0.300241
0.300236
0.300232
0.300227
0.300222
0.300218
0.300214
0.30021
0.300207
0.300203
0.3002
0.300198
0.300196
0.300195
0.300195
0.300194
0.300194
0.300195
0.300196
0.300197
0.300198
0.300197
0.300197
0.300197
0.300197
0.300196
0.300195
0.300193
0.300191
0.30019
0.300189
0.300188
0.300187
0.300187
0.300187
0.300187
0.300188
0.300189
0.30019
0.30019
0.300191
0.300194
0.300187
0.300188
0.300217
0.300205
0.300184
0.300188
0.300217
0.300231
0.300287
0.301367
0.30137
0.301369
0.301372
0.301373
0.301366
0.301363
0.301354
0.301343
0.301333
0.30132
0.301306
0.301292
0.301277
0.301263
0.301251
0.301241
0.301233
0.301228
0.301226
0.301229
0.301228
0.301223
0.301214
0.3012
0.301182
0.301159
0.301132
0.301101
0.301066
0.301028
0.300988
0.300945
0.300901
0.300856
0.300811
0.300766
0.300723
0.300682
0.300642
0.300606
0.300573
0.300543
0.300516
0.300494
0.300475
0.300461
0.30045
0.300442
0.300437
0.300436
0.300435
0.300433
0.300428
0.300422
0.300412
0.300403
0.300392
0.300381
0.30037
0.300358
0.300347
0.300336
0.300326
0.300316
0.300307
0.3003
0.300293
0.300286
0.300281
0.300276
0.300273
0.300271
0.30027
0.30027
0.300269
0.300268
0.300267
0.300264
0.300261
0.300258
0.300254
0.30025
0.300245
0.300241
0.300236
0.300231
0.300226
0.300221
0.300217
0.300213
0.300209
0.300205
0.300201
0.300199
0.300196
0.300194
0.300193
0.300191
0.30019
0.30019
0.30019
0.30019
0.300191
0.300192
0.300192
0.300193
0.300193
0.300193
0.300193
0.300193
0.300194
0.300194
0.300194
0.300194
0.300195
0.300196
0.300197
0.300199
0.3002
0.300201
0.300201
0.300202
0.300203
0.300204
0.300202
0.300209
0.300191
0.300184
0.300221
0.300225
0.300256
0.300262
0.300307
0.301389
0.301389
0.301389
0.301386
0.301385
0.301381
0.301373
0.301366
0.301357
0.301343
0.301332
0.301317
0.301304
0.30129
0.301277
0.301265
0.301256
0.301249
0.301245
0.301245
0.301247
0.301245
0.301239
0.301229
0.301214
0.301196
0.301172
0.301143
0.301111
0.301076
0.301037
0.300996
0.300952
0.300908
0.300862
0.300816
0.300772
0.300728
0.300686
0.300647
0.300611
0.300578
0.300548
0.300522
0.3005
0.300482
0.300467
0.300457
0.300449
0.300444
0.300444
0.300443
0.300441
0.300435
0.300428
0.300419
0.300409
0.300398
0.300387
0.300375
0.300364
0.300352
0.300341
0.300331
0.300321
0.300312
0.300304
0.300297
0.30029
0.300285
0.30028
0.300277
0.300274
0.300273
0.300272
0.300272
0.30027
0.300269
0.300266
0.300263
0.30026
0.300256
0.300252
0.300247
0.300242
0.300237
0.300232
0.300227
0.300222
0.300218
0.300213
0.300209
0.300205
0.300202
0.300199
0.300197
0.300195
0.300193
0.300192
0.300191
0.30019
0.300191
0.300191
0.300192
0.300193
0.300193
0.300194
0.300193
0.300193
0.300193
0.300193
0.300192
0.300191
0.300191
0.30019
0.30019
0.30019
0.30019
0.30019
0.30019
0.300191
0.300191
0.300191
0.30019
0.30019
0.300187
0.300187
0.300189
0.300231
0.300204
0.300206
0.300229
0.300256
0.300338
0.301421
0.30142
0.301417
0.301416
0.301414
0.301405
0.3014
0.301389
0.301378
0.301366
0.301352
0.301337
0.301322
0.301308
0.301294
0.301283
0.301273
0.301266
0.301263
0.301264
0.301265
0.301262
0.301255
0.301245
0.301229
0.30121
0.301185
0.301156
0.301123
0.301087
0.301048
0.301005
0.300961
0.300917
0.30087
0.300824
0.300779
0.300735
0.300693
0.300654
0.300618
0.300585
0.300555
0.300529
0.300508
0.300489
0.300475
0.300463
0.300456
0.300451
0.300451
0.30045
0.300447
0.300442
0.300434
0.300426
0.300416
0.300405
0.300394
0.300382
0.30037
0.300359
0.300348
0.300337
0.300327
0.300318
0.30031
0.300302
0.300296
0.30029
0.300286
0.300282
0.300279
0.300278
0.300277
0.300277
0.300277
0.300275
0.300273
0.30027
0.300266
0.300263
0.300259
0.300254
0.300249
0.300244
0.300239
0.300233
0.300228
0.300223
0.300218
0.300214
0.30021
0.300207
0.300204
0.300201
0.300199
0.300197
0.300196
0.300195
0.300194
0.300194
0.300194
0.300195
0.300196
0.300196
0.300197
0.300197
0.300197
0.300197
0.300196
0.300196
0.300196
0.300196
0.300196
0.300196
0.300197
0.300198
0.300199
0.300199
0.3002
0.3002
0.300201
0.3002
0.300202
0.300201
0.300206
0.300216
0.300197
0.300237
0.300241
0.30029
0.300291
0.300358
0.301449
0.30145
0.301446
0.301446
0.301444
0.301436
0.301429
0.301419
0.301407
0.301395
0.30138
0.301365
0.301351
0.301338
0.301325
0.301314
0.301305
0.301298
0.301294
0.301295
0.301294
0.301289
0.301281
0.301269
0.301252
0.301231
0.301205
0.301175
0.301142
0.301105
0.301064
0.301022
0.300977
0.300932
0.300885
0.300838
0.300792
0.300748
0.300706
0.300666
0.300629
0.300595
0.300565
0.300538
0.300516
0.300497
0.300482
0.300471
0.300463
0.300458
0.300457
0.300456
0.300453
0.300448
0.300441
0.300432
0.300422
0.300411
0.300399
0.300387
0.300375
0.300364
0.300353
0.300342
0.300332
0.300323
0.300315
0.300307
0.3003
0.300294
0.300289
0.300285
0.300283
0.300281
0.300281
0.30028
0.30028
0.300278
0.300276
0.300274
0.30027
0.300267
0.300263
0.300258
0.300254
0.300248
0.300243
0.300237
0.300232
0.300227
0.300223
0.300218
0.300214
0.30021
0.300207
0.300205
0.300203
0.300201
0.300199
0.300198
0.300197
0.300197
0.300197
0.300198
0.300199
0.3002
0.3002
0.3002
0.3002
0.3002
0.3002
0.3002
0.3002
0.3002
0.3002
0.3002
0.300201
0.300202
0.300203
0.300203
0.300203
0.300203
0.300203
0.300202
0.300204
0.300202
0.300207
0.300199
0.300232
0.30021
0.300213
0.300237
0.300279
0.300387
0.301468
0.301471
0.301471
0.301471
0.30147
0.301465
0.301455
0.301447
0.301435
0.301422
0.301409
0.301394
0.30138
0.301366
0.301355
0.301345
0.301339
0.301336
0.301337
0.301341
0.301341
0.301337
0.301328
0.301314
0.301296
0.301274
0.301246
0.301214
0.301178
0.301139
0.301096
0.301051
0.301005
0.300957
0.300907
0.300859
0.300811
0.300765
0.30072
0.300678
0.30064
0.300604
0.300573
0.300546
0.300523
0.300504
0.300489
0.300478
0.30047
0.300465
0.300465
0.300464
0.300461
0.300455
0.300448
0.300439
0.300429
0.300418
0.300405
0.300394
0.300381
0.300369
0.300358
0.300347
0.300337
0.300327
0.300319
0.300311
0.300304
0.300298
0.300293
0.300289
0.300286
0.300284
0.300283
0.300283
0.300282
0.300281
0.300279
0.300277
0.300273
0.300271
0.300267
0.300262
0.300257
0.300251
0.300246
0.300241
0.300236
0.30023
0.300226
0.300221
0.300217
0.300213
0.30021
0.300207
0.300205
0.300203
0.300201
0.3002
0.300199
0.300198
0.300198
0.300199
0.3002
0.300201
0.300201
0.300201
0.300201
0.300201
0.300201
0.300201
0.300202
0.300202
0.300202
0.300202
0.300203
0.300204
0.300205
0.300205
0.300205
0.300204
0.300205
0.300204
0.300206
0.300205
0.300209
0.300219
0.300211
0.300261
0.300265
0.300331
0.300328
0.300444
0.301492
0.30149
0.301486
0.301488
0.301487
0.301484
0.30148
0.301469
0.301458
0.301446
0.301434
0.301421
0.301405
0.301391
0.301378
0.301368
0.301361
0.301354
0.301348
0.301344
0.30134
0.301333
0.301323
0.301309
0.30129
0.301267
0.301239
0.301208
0.301172
0.301134
0.301092
0.301047
0.301001
0.300953
0.300905
0.300857
0.300809
0.300764
0.300721
0.30068
0.300642
0.300609
0.300578
0.300551
0.300529
0.300511
0.300496
0.300485
0.300477
0.300472
0.300472
0.300472