/*--------------------------------*- C++ -*----------------------------------*\
| =========                 |                                                 |
| \\      /  F ield         | OpenFOAM: The Open Source CFD Toolbox           |
|  \\    /   O peration     | Version:  v1912                                 |
|   \\  /    A nd           | Website:  www.openfoam.com                      |
|    \\/     M anipulation  |                                                 |
\*---------------------------------------------------------------------------*/
FoamFile
{
    version     2.0;
    format      ascii;
    class       surfaceScalarField;
    location    "30";
    object      phi;
}
// * * * * * * * * * * * * * * * * * * * * * * * * * * * * * * * * * * * * * //

dimensions      [0 3 -1 0 0 0 0];
oriented        oriented;


internalField   nonuniform List<scalar> 
28285
(
1.5298e-05
-5.49171e-06
1.97722e-05
-4.47416e-06
2.29315e-05
-3.1593e-06
2.45983e-05
-1.66683e-06
2.47129e-05
-1.1459e-07
2.32209e-05
1.49204e-06
2.01522e-05
3.06872e-06
1.56735e-05
4.47866e-06
1.00254e-05
5.64811e-06
3.62657e-06
6.39884e-06
-2.94687e-06
6.57344e-06
-9.02607e-06
6.0792e-06
-1.39156e-05
4.88957e-06
-1.69882e-05
3.07252e-06
-1.7777e-05
7.88874e-07
-1.60335e-05
-1.74355e-06
-1.17111e-05
-4.3224e-06
-5.01229e-06
-6.69879e-06
3.63791e-06
-8.6502e-06
1.3614e-05
-9.97605e-06
2.41546e-05
-1.05406e-05
3.44336e-05
-1.0279e-05
4.35918e-05
-9.15818e-06
5.08584e-05
-7.26667e-06
5.56374e-05
-4.77893e-06
5.75927e-05
-1.95528e-06
5.67977e-05
7.94988e-07
5.38643e-05
2.93334e-06
4.99887e-05
3.87559e-06
4.68654e-05
3.1233e-06
4.65415e-05
3.23975e-07
5.11663e-05
-4.62486e-06
6.23638e-05
-1.11975e-05
8.13578e-05
-1.8994e-05
0.000109402
-2.80446e-05
0.000147093
-3.7691e-05
0.000192975
-4.58816e-05
0.000232229
-3.92537e-05
0.00024705
-1.48216e-05
0.000232643
1.44073e-05
0.000211064
2.15791e-05
0.000193905
1.71592e-05
0.000175085
1.88197e-05
7.77342e-06
0.000167312
1.52816e-05
-1.09835e-05
1.97558e-05
-8.94834e-06
2.29151e-05
-6.31861e-06
2.45819e-05
-3.33368e-06
2.46965e-05
-2.29183e-07
2.32045e-05
2.98407e-06
2.01358e-05
6.13743e-06
1.56572e-05
8.95726e-06
1.00091e-05
1.12962e-05
3.61024e-06
1.27977e-05
-2.96344e-06
1.31471e-05
-9.04263e-06
1.21584e-05
-1.39323e-05
9.7792e-06
-1.70048e-05
6.14506e-06
-1.77937e-05
1.57776e-06
-1.60501e-05
-3.48711e-06
-1.17277e-05
-8.64485e-06
-5.02883e-06
-1.33976e-05
3.62127e-06
-1.73003e-05
1.35974e-05
-1.99522e-05
2.41381e-05
-2.10813e-05
3.44172e-05
-2.0558e-05
4.35754e-05
-1.83164e-05
5.08422e-05
-1.45334e-05
5.56211e-05
-9.55786e-06
5.75764e-05
-3.91056e-06
5.67813e-05
1.59003e-06
5.3848e-05
5.86665e-06
4.99723e-05
7.75131e-06
4.68488e-05
6.24682e-06
4.65246e-05
6.48191e-07
5.11493e-05
-9.2496e-06
6.23469e-05
-2.2395e-05
8.13412e-05
-3.79883e-05
0.000109386
-5.60894e-05
0.00014708
-7.53849e-05
0.000192961
-9.17622e-05
0.000232218
-7.85111e-05
0.00024704
-2.96432e-05
0.000232632
2.8815e-05
0.000211044
4.31675e-05
0.000193913
3.42899e-05
0.000175371
3.73613e-05
1.58186e-05
0.000167326
1.52675e-05
-1.64753e-05
1.97418e-05
-1.34226e-05
2.29012e-05
-9.47799e-06
2.45681e-05
-5.00056e-06
2.46827e-05
-3.43805e-07
2.31906e-05
4.4761e-06
2.01219e-05
9.20617e-06
1.56433e-05
1.34359e-05
9.9951e-06
1.69444e-05
3.59614e-06
1.91966e-05
-2.97787e-06
1.97211e-05
-9.0572e-06
1.82377e-05
-1.3947e-05
1.4669e-05
-1.70196e-05
9.21769e-06
-1.78085e-05
2.36669e-06
-1.60649e-05
-5.2307e-06
-1.17424e-05
-1.29673e-05
-5.04341e-06
-2.00967e-05
3.60672e-06
-2.59504e-05
1.35831e-05
-2.99286e-05
2.4124e-05
-3.16222e-05
3.44033e-05
-3.08373e-05
4.35617e-05
-2.74749e-05
5.08286e-05
-2.18003e-05
5.56078e-05
-1.4337e-05
5.75631e-05
-5.86591e-06
5.67679e-05
2.38519e-06
5.38346e-05
8.8e-06
4.99587e-05
1.16272e-05
4.6835e-05
9.37054e-06
4.65108e-05
9.72452e-07
5.11358e-05
-1.38746e-05
6.2334e-05
-3.35932e-05
8.13294e-05
-5.69837e-05
0.000109375
-8.41352e-05
0.000147072
-0.000113082
0.000192956
-0.000137646
0.000232216
-0.000117772
0.000247037
-4.44637e-05
0.000232627
4.32253e-05
0.000211032
6.47616e-05
0.000193905
5.14174e-05
0.000175421
5.58448e-05
2.38404e-05
0.0001674
1.52629e-05
-2.19673e-05
1.97373e-05
-1.7897e-05
2.28968e-05
-1.26374e-05
2.45637e-05
-6.66748e-06
2.46783e-05
-4.58447e-07
2.31863e-05
5.96816e-06
2.01175e-05
1.2275e-05
1.56388e-05
1.79146e-05
9.99044e-06
2.25927e-05
3.59129e-06
2.55958e-05
-2.98303e-06
2.62955e-05
-9.06256e-06
2.43172e-05
-1.39525e-05
1.95589e-05
-1.70253e-05
1.22905e-05
-1.78143e-05
3.15568e-06
-1.60707e-05
-6.97427e-06
-1.17482e-05
-1.72899e-05
-5.04897e-06
-2.67958e-05
3.60131e-06
-3.46007e-05
1.3578e-05
-3.99054e-05
2.41192e-05
-4.21634e-05
3.43988e-05
-4.11169e-05
4.35576e-05
-3.66336e-05
5.08247e-05
-2.90674e-05
5.56039e-05
-1.91162e-05
5.75592e-05
-7.82123e-06
5.67639e-05
3.18053e-06
5.38302e-05
1.17337e-05
4.99539e-05
1.55035e-05
4.68297e-05
1.24948e-05
4.6505e-05
1.29717e-06
5.11296e-05
-1.84993e-05
6.23277e-05
-4.47913e-05
8.1323e-05
-7.59791e-05
0.000109369
-0.000112182
0.000147067
-0.000150779
0.000192957
-0.000183537
0.000232221
-0.000157036
0.000247041
-5.92835e-05
0.000232629
5.76371e-05
0.000211024
8.6367e-05
0.000193917
6.85244e-05
0.000175627
7.41345e-05
3.20513e-05
0.000167416
1.52623e-05
-2.74594e-05
1.97368e-05
-2.23715e-05
2.28963e-05
-1.57969e-05
2.45633e-05
-8.33442e-06
2.46779e-05
-5.73091e-07
2.31858e-05
7.46024e-06
2.0117e-05
1.53438e-05
1.56382e-05
2.23934e-05
9.98967e-06
2.82412e-05
3.59024e-06
3.19952e-05
-2.9844e-06
3.28701e-05
-9.06422e-06
3.03971e-05
-1.39545e-05
2.44492e-05
-1.70274e-05
1.53634e-05
-1.78165e-05
3.94477e-06
-1.6073e-05
-8.71783e-06
-1.17503e-05
-2.16126e-05
-5.05092e-06
-3.34952e-05
3.59962e-06
-4.32513e-05
1.35767e-05
-4.98824e-05
2.41183e-05
-5.27051e-05
3.43983e-05
-5.13969e-05
4.35574e-05
-4.57927e-05
5.08248e-05
-3.63348e-05
5.56041e-05
-2.38955e-05
5.75594e-05
-9.77647e-06
5.67638e-05
3.97611e-06
5.38296e-05
1.46678e-05
4.99525e-05
1.93805e-05
4.68275e-05
1.56198e-05
4.6502e-05
1.62269e-06
5.1126e-05
-2.31233e-05
6.23234e-05
-5.59887e-05
8.13183e-05
-9.49739e-05
0.000109365
-0.000140228
0.000147064
-0.000188478
0.000192961
-0.000229434
0.000232231
-0.000196305
0.00024705
-7.41029e-05
0.000232634
7.20536e-05
0.000211022
0.000107979
0.000193921
8.56254e-05
0.000175715
9.23408e-05
4.02684e-05
0.000167498
1.52626e-05
-3.29517e-05
1.97373e-05
-2.68462e-05
2.28969e-05
-1.89565e-05
2.45639e-05
-1.00014e-05
2.46786e-05
-6.87755e-07
2.31865e-05
8.95235e-06
2.01175e-05
1.84127e-05
1.56386e-05
2.68723e-05
9.98984e-06
3.389e-05
3.5901e-06
3.8395e-05
-2.98488e-06
3.94451e-05
-9.06507e-06
3.64773e-05
-1.39556e-05
2.93397e-05
-1.70289e-05
1.84367e-05
-1.78181e-05
4.73401e-06
-1.60746e-05
-1.04614e-05
-1.17518e-05
-2.59354e-05
-5.05215e-06
-4.01948e-05
3.59871e-06
-5.19021e-05
1.35762e-05
-5.98599e-05
2.41183e-05
-6.32472e-05
3.43987e-05
-6.16773e-05
4.35582e-05
-5.49522e-05
5.08259e-05
-4.36025e-05
5.56054e-05
-2.8675e-05
5.75606e-05
-1.17317e-05
5.67647e-05
4.77205e-06
5.38299e-05
1.76026e-05
4.99519e-05
2.32585e-05
4.68259e-05
1.87459e-05
4.64993e-05
1.94926e-06
5.11224e-05
-2.77464e-05
6.23192e-05
-6.71855e-05
8.13135e-05
-0.000113968
0.00010936
-0.000168275
0.000147062
-0.00022618
0.000192965
-0.000275337
0.000232242
-0.000235582
0.000247062
-8.89223e-05
0.000232638
8.6477e-05
0.000211016
0.000129601
0.000193935
0.000102706
0.000175908
0.000110367
4.87011e-05
0.000167476
1.52633e-05
-3.84443e-05
1.97381e-05
-3.1321e-05
2.28978e-05
-2.21163e-05
2.45649e-05
-1.16685e-05
2.46796e-05
-8.02445e-07
2.31874e-05
1.04445e-05
2.01184e-05
2.14818e-05
1.56393e-05
3.13514e-05
9.99027e-06
3.9539e-05
3.59018e-06
4.4795e-05
-2.98522e-06
4.60205e-05
-9.06583e-06
4.25579e-05
-1.39568e-05
3.42307e-05
-1.70303e-05
2.15102e-05
-1.78197e-05
5.52341e-06
-1.60762e-05
-1.22049e-05
-1.17533e-05
-3.02583e-05
-5.05339e-06
-4.68947e-05
3.59786e-06
-6.05534e-05
1.35758e-05
-6.98379e-05
2.41184e-05
-7.37898e-05
3.43994e-05
-7.19583e-05
4.35594e-05
-6.41122e-05
5.08275e-05
-5.08706e-05
5.56072e-05
-3.34547e-05
5.75623e-05
-1.36868e-05
5.67659e-05
5.56838e-06
5.38304e-05
2.05382e-05
4.99514e-05
2.71375e-05
4.6824e-05
2.18732e-05
4.64962e-05
2.27708e-06
5.11182e-05
-3.23684e-05
6.23142e-05
-7.83815e-05
8.13079e-05
-0.000132962
0.000109354
-0.000196321
0.00014706
-0.000263886
0.000192971
-0.000321248
0.000232256
-0.000274867
0.000247075
-0.000103741
0.000232644
0.000100908
0.000211012
0.000151234
0.00019394
0.000119778
0.000176023
0.000128284
5.72046e-05
0.00016752
1.5264e-05
-4.39371e-05
1.97391e-05
-3.57961e-05
2.28989e-05
-2.52761e-05
2.4566e-05
-1.33356e-05
2.46808e-05
-9.17166e-07
2.31886e-05
1.19366e-05
2.01194e-05
2.45509e-05
1.56401e-05
3.58308e-05
9.99077e-06
4.51883e-05
3.59027e-06
5.11955e-05
-2.98561e-06
5.25964e-05
-9.06673e-06
4.8639e-05
-1.39581e-05
3.91221e-05
-1.7032e-05
2.4584e-05
-1.78216e-05
6.313e-06
-1.60781e-05
-1.39484e-05
-1.1755e-05
-3.45814e-05
-5.05482e-06
-5.35949e-05
3.59688e-06
-6.92051e-05
1.35754e-05
-7.98164e-05
2.41186e-05
-8.4333e-05
3.44002e-05
-8.22399e-05
4.35608e-05
-7.32727e-05
5.08293e-05
-5.8139e-05
5.56092e-05
-3.82347e-05
5.75642e-05
-1.56418e-05
5.67674e-05
6.36519e-06
5.3831e-05
2.34746e-05
4.99507e-05
3.10177e-05
4.68219e-05
2.5002e-05
4.64926e-05
2.60641e-06
5.11134e-05
-3.69892e-05
6.23083e-05
-8.95764e-05
8.13012e-05
-0.000151955
0.000109348
-0.000224368
0.000147057
-0.000301595
0.000192977
-0.000367168
0.000232272
-0.000314162
0.000247091
-0.00011856
0.000232652
0.000115347
0.000211007
0.000172879
0.000193951
0.000136834
0.000176199
0.000146037
6.59014e-05
0.000167502
1.52649e-05
-4.94302e-05
1.97402e-05
-4.02714e-05
2.29002e-05
-2.84361e-05
2.45674e-05
-1.50028e-05
2.46821e-05
-1.03192e-06
2.31899e-05
1.34288e-05
2.01207e-05
2.76202e-05
1.56411e-05
4.03103e-05
9.9914e-06
5.0838e-05
3.59042e-06
5.75965e-05
-2.98603e-06
5.91728e-05
-9.06773e-06
5.47207e-05
-1.39597e-05
4.4014e-05
-1.70339e-05
2.76583e-05
-1.78237e-05
7.10281e-06
-1.60803e-05
-1.56918e-05
-1.1757e-05
-3.89046e-05
-5.05644e-06
-6.02955e-05
3.59578e-06
-7.78573e-05
1.35749e-05
-8.97956e-05
2.41189e-05
-9.4877e-05
3.44012e-05
-9.25222e-05
4.35624e-05
-8.24339e-05
5.08314e-05
-6.5408e-05
5.56116e-05
-4.30148e-05
5.75665e-05
-1.75968e-05
5.67692e-05
7.16254e-06
5.38317e-05
2.64121e-05
4.995e-05
3.48994e-05
4.68195e-05
2.81325e-05
4.64885e-05
2.93739e-06
5.11078e-05
-4.16085e-05
6.23017e-05
-0.00010077
8.12936e-05
-0.000170947
0.00010934
-0.000252414
0.000147054
-0.000339309
0.000192984
-0.000413098
0.00023229
-0.000353469
0.000247109
-0.000133379
0.000232661
0.000129795
0.000211003
0.000194536
0.000193957
0.00015388
0.000176325
0.000163669
7.47001e-05
0.000167526
1.52658e-05
-5.49236e-05
1.97414e-05
-4.4747e-05
2.29016e-05
-3.15963e-05
2.45689e-05
-1.667e-05
2.46837e-05
-1.14671e-06
2.31914e-05
1.49211e-05
2.0122e-05
3.06896e-05
1.56422e-05
4.47902e-05
9.99206e-06
5.64881e-05
3.59054e-06
6.3998e-05
-2.98653e-06
6.57499e-05
-9.06888e-06
6.0803e-05
-1.39614e-05
4.89065e-05
-1.70361e-05
3.0733e-05
-1.78261e-05
7.89286e-06
-1.60827e-05
-1.74353e-05
-1.17593e-05
-4.3228e-05
-5.05827e-06
-6.69965e-05
3.59451e-06
-8.651e-05
1.35744e-05
-9.97754e-05
2.41191e-05
-0.000105422
3.44023e-05
-0.000102805
4.35642e-05
-9.15958e-05
5.08337e-05
-7.26776e-05
5.56142e-05
-4.77953e-05
5.7569e-05
-1.95516e-05
5.67711e-05
7.9605e-06
5.38324e-05
2.93507e-05
4.99492e-05
3.87827e-05
4.68168e-05
3.12649e-05
4.64839e-05
3.2703e-06
5.11016e-05
-4.62262e-05
6.22941e-05
-0.000111963
8.1285e-05
-0.000189938
0.000109331
-0.000280461
0.000147051
-0.000377029
0.000192992
-0.000459038
0.000232311
-0.000392788
0.000247129
-0.000148197
0.000232671
0.000144253
0.000210999
0.000216208
0.000193967
0.000170912
0.000176485
0.000181151
8.36637e-05
0.000167522
1.52669e-05
-6.04174e-05
1.97428e-05
-4.92228e-05
2.29032e-05
-3.47567e-05
2.45706e-05
-1.83374e-05
2.46854e-05
-1.26153e-06
2.31931e-05
1.64134e-05
2.01235e-05
3.37592e-05
1.56434e-05
4.92703e-05
9.99284e-06
6.21386e-05
3.59073e-06
7.04002e-05
-2.98705e-06
7.23277e-05
-9.07013e-06
6.68861e-05
-1.39633e-05
5.37997e-05
-1.70385e-05
3.38082e-05
-1.78288e-05
8.68317e-06
-1.60854e-05
-1.91787e-05
-1.17617e-05
-4.75517e-05
-5.0603e-06
-7.36979e-05
3.59313e-06
-9.51635e-05
1.35738e-05
-0.000109756
2.41194e-05
-0.000115967
3.44035e-05
-0.000113089
4.35662e-05
-0.000100759
5.08363e-05
-7.99477e-05
5.56171e-05
-5.25761e-05
5.75719e-05
-2.15063e-05
5.67732e-05
8.75914e-06
5.38333e-05
3.22906e-05
4.99482e-05
4.26678e-05
4.68137e-05
3.43994e-05
4.64787e-05
3.60531e-06
5.10946e-05
-5.08421e-05
6.22858e-05
-0.000123154
8.12756e-05
-0.000208928
0.000109322
-0.000308507
0.000147047
-0.000414754
0.000193001
-0.000504992
0.000232333
-0.00043212
0.000247151
-0.000163015
0.000232681
0.000158723
0.000210995
0.000237894
0.000193972
0.000187935
0.000176616
0.000198507
9.27519e-05
0.000167528
1.52681e-05
-6.59116e-05
1.97443e-05
-5.36991e-05
2.29049e-05
-3.79172e-05
2.45724e-05
-2.00049e-05
2.46873e-05
-1.3764e-06
2.31949e-05
1.79057e-05
2.01251e-05
3.6829e-05
1.56447e-05
5.37508e-05
9.99365e-06
6.77896e-05
3.59088e-06
7.68029e-05
-2.98766e-06
7.89062e-05
-9.07153e-06
7.297e-05
-1.39654e-05
5.86936e-05
-1.70411e-05
3.68839e-05
-1.78318e-05
9.47379e-06
-1.60884e-05
-2.09221e-05
-1.17645e-05
-5.18756e-05
-5.06255e-06
-8.03999e-05
3.59158e-06
-0.000103818
1.35731e-05
-0.000119738
2.41198e-05
-0.000126514
3.44048e-05
-0.000123374
4.35684e-05
-0.000109922
5.08392e-05
-8.72186e-05
5.56204e-05
-5.73573e-05
5.75749e-05
-2.34609e-05
5.67756e-05
9.55854e-06
5.38343e-05
3.52319e-05
4.99472e-05
4.65548e-05
4.68104e-05
3.75362e-05
4.64731e-05
3.94264e-06
5.1087e-05
-5.5456e-05
6.22765e-05
-0.000134343
8.12651e-05
-0.000227916
0.000109311
-0.000336553
0.000147042
-0.000452485
0.00019301
-0.00055096
0.000232358
-0.000471468
0.000247176
-0.000177832
0.000232693
0.000173205
0.000210992
0.000259595
0.00019398
0.000204947
0.000176768
0.00021572
0.00010199
0.00016753
1.52694e-05
-7.14063e-05
1.9746e-05
-5.81756e-05
2.29068e-05
-4.1078e-05
2.45744e-05
-2.16725e-05
2.46893e-05
-1.49131e-06
2.31969e-05
1.93981e-05
2.01269e-05
3.9899e-05
1.56461e-05
5.82316e-05
9.99459e-06
7.34412e-05
3.59109e-06
8.32064e-05
-2.98829e-06
8.54856e-05
-9.07304e-06
7.90547e-05
-1.39677e-05
6.35882e-05
-1.7044e-05
3.99602e-05
-1.78349e-05
1.02647e-05
-1.60916e-05
-2.26654e-05
-1.17674e-05
-5.61998e-05
-5.06497e-06
-8.71023e-05
3.58993e-06
-0.000112473
1.35724e-05
-0.00012972
2.41201e-05
-0.000137062
3.44062e-05
-0.00013366
4.35708e-05
-0.000119087
5.08424e-05
-9.44902e-05
5.56239e-05
-6.21388e-05
5.75783e-05
-2.54153e-05
5.67782e-05
1.03587e-05
5.38353e-05
3.81747e-05
4.99461e-05
5.0444e-05
4.68068e-05
4.06756e-05
4.64669e-05
4.28253e-06
5.10787e-05
-6.00678e-05
6.22665e-05
-0.000145531
8.12538e-05
-0.000246903
0.000109299
-0.000364598
0.000147038
-0.000490224
0.000193021
-0.000596943
0.000232385
-0.000510833
0.000247202
-0.000192649
0.000232706
0.000187701
0.000210988
0.000281313
0.000193985
0.00022195
0.000176897
0.000232809
0.000111356
0.00016753
1.52709e-05
-7.69014e-05
1.97479e-05
-6.26526e-05
2.29089e-05
-4.42391e-05
2.45766e-05
-2.33402e-05
2.46916e-05
-1.60626e-06
2.31991e-05
2.08906e-05
2.01289e-05
4.29692e-05
1.56477e-05
6.27127e-05
9.99559e-06
7.90933e-05
3.5913e-06
8.96107e-05
-2.989e-06
9.20659e-05
-9.07466e-06
8.51404e-05
-1.39702e-05
6.84837e-05
-1.70471e-05
4.30372e-05
-1.78385e-05
1.1056e-05
-1.60952e-05
-2.44087e-05
-1.17707e-05
-6.05242e-05
-5.06759e-06
-9.38055e-05
3.58813e-06
-0.000121128
1.35718e-05
-0.000139704
2.41207e-05
-0.000147611
3.4408e-05
-0.000143948
4.35736e-05
-0.000128252
5.0846e-05
-0.000101763
5.5628e-05
-6.69207e-05
5.75822e-05
-2.73696e-05
5.67811e-05
1.11598e-05
5.38365e-05
4.11193e-05
4.9945e-05
5.43356e-05
4.68028e-05
4.38177e-05
4.64601e-05
4.62527e-06
5.10693e-05
-6.4677e-05
6.22549e-05
-0.000156717
8.12401e-05
-0.000265888
0.000109286
-0.000392644
0.000147029
-0.000527966
0.000193037
-0.000642952
0.000232419
-0.000550215
0.000247231
-0.000207461
0.000232722
0.00020221
0.000210988
0.000303048
0.00019399
0.000238948
0.00017704
0.000249758
0.00012085
0.000167546
3.05464e-05
-8.78933e-05
3.95017e-05
-7.16079e-05
4.58246e-05
-5.0562e-05
4.91605e-05
-2.66761e-05
4.93906e-05
-1.83636e-06
4.64055e-05
2.38757e-05
4.02643e-05
4.91103e-05
3.13005e-05
7.16765e-05
1.99944e-05
9.03995e-05
7.18332e-06
0.000102422
-5.98022e-06
0.000105229
-1.81547e-05
9.73149e-05
-2.79485e-05
7.82775e-05
-3.41044e-05
4.91932e-05
-3.56882e-05
1.26398e-05
-3.22018e-05
-2.78951e-05
-2.35519e-05
-6.91741e-05
-1.01436e-05
-0.000107214
7.1705e-06
-0.000138442
2.71411e-05
-0.000159674
4.82426e-05
-0.000168712
6.8821e-05
-0.000164526
8.71558e-05
-0.000146587
0.000101703
-0.00011631
0.000111269
-7.6486e-05
0.000115177
-3.12777e-05
0.000113572
1.27648e-05
0.000107677
4.70146e-05
9.98855e-05
6.21266e-05
9.35924e-05
5.01108e-05
9.28982e-05
5.3195e-06
0.000102109
-7.3888e-05
0.000124475
-0.000179082
0.000162441
-0.000303854
0.000218532
-0.000448736
0.000294044
-0.000603479
0.000386109
-0.000735016
0.000464932
-0.000629038
0.000494559
-0.000237087
0.000465485
0.000231283
0.000421958
0.000346575
0.000387995
0.000272911
0.000354408
0.000283345
0.000140012
0.000335246
3.05531e-05
-9.88875e-05
3.95104e-05
-8.05652e-05
4.58345e-05
-5.68861e-05
4.9171e-05
-3.00127e-05
4.94014e-05
-2.06674e-06
4.64161e-05
2.68611e-05
4.02738e-05
5.52526e-05
3.1308e-05
8.06423e-05
1.9999e-05
0.000101709
7.18414e-06
0.000115237
-5.9838e-06
0.000118397
-1.81629e-05
0.000109494
-2.79609e-05
8.80755e-05
-3.412e-05
5.53524e-05
-3.57055e-05
1.42252e-05
-3.22192e-05
-3.13814e-05
-2.35679e-05
-7.78254e-05
-1.01568e-05
-0.000120625
7.16141e-06
-0.000155761
2.71371e-05
-0.00017965
4.82443e-05
-0.000189819
6.88284e-05
-0.00018511
8.71682e-05
-0.000164927
0.00010172
-0.000130862
0.000111287
-8.60534e-05
0.000115194
-3.51851e-05
0.000113585
1.43741e-05
0.000107682
5.2918e-05
9.98795e-05
6.99288e-05
9.3573e-05
5.64173e-05
9.28653e-05
6.02716e-06
0.000102065
-8.30877e-05
0.000124422
-0.000201439
0.000162381
-0.000341813
0.00021847
-0.000504825
0.000294021
-0.00067903
0.00038616
-0.000827155
0.000465074
-0.000707953
0.000494699
-0.000266712
0.000465544
0.000260438
0.000421947
0.000390172
0.000388016
0.000306842
0.000354857
0.000316504
0.000159225
0.000335644
3.0561e-05
-0.000109884
3.95205e-05
-8.95246e-05
4.58459e-05
-6.32116e-05
4.91832e-05
-3.33499e-05
4.94138e-05
-2.2974e-06
4.64281e-05
2.98468e-05
4.02847e-05
6.1396e-05
3.13169e-05
8.96102e-05
2.00046e-05
0.000113021
7.18546e-06
0.000128056
-5.98758e-06
0.00013157
-1.81719e-05
0.000121678
-2.79745e-05
9.78781e-05
-3.41372e-05
6.15151e-05
-3.57246e-05
1.58127e-05
-3.22386e-05
-3.48674e-05
-2.35857e-05
-8.64783e-05
-1.01713e-05
-0.000134039
7.15155e-06
-0.000173083
2.7133e-05
-0.000199631
4.82465e-05
-0.000210933
6.8837e-05
-0.000205701
8.71827e-05
-0.000183273
0.000101739
-0.000145418
0.000111308
-9.56232e-05
0.000115215
-3.90917e-05
0.000113601
1.59884e-05
0.000107688
5.88306e-05
9.98729e-05
7.77441e-05
9.35511e-05
6.2739e-05
9.28283e-05
6.74999e-06
0.000102015
-9.22744e-05
0.000124362
-0.000223786
0.000162313
-0.000379764
0.000218401
-0.000560913
0.000293995
-0.000754624
0.000386221
-0.000919382
0.000465239
-0.00078697
0.000494852
-0.000296325
0.000465607
0.000289683
0.000421923
0.000433857
0.000388015
0.000340749
0.000355246
0.000349273
0.000178509
0.000335962
3.05696e-05
-0.000120884
3.95314e-05
-9.84864e-05
4.58584e-05
-6.95386e-05
4.91964e-05
-3.66879e-05
4.94274e-05
-2.52839e-06
4.64413e-05
3.28329e-05
4.02966e-05
6.75408e-05
3.13263e-05
9.85804e-05
2.00105e-05
0.000124337
7.18657e-06
0.00014088
-5.99199e-06
0.000144749
-1.81821e-05
0.000133868
-2.79899e-05
0.000107686
-3.41566e-05
6.76817e-05
-3.57462e-05
1.74022e-05
-3.22604e-05
-3.83531e-05
-2.36057e-05
-9.5133e-05
-1.01877e-05
-0.000147457
7.14022e-06
-0.000190411
2.71281e-05
-0.000219619
4.82488e-05
-0.000232054
6.88465e-05
-0.000226298
8.71985e-05
-0.000201625
0.000101759
-0.000159979
0.000111332
-0.000105195
0.000115237
-4.29974e-05
0.000113618
1.76081e-05
0.000107695
6.47534e-05
9.98654e-05
8.55735e-05
9.3527e-05
6.90774e-05
9.27872e-05
7.48976e-06
0.000101959
-0.000101447
0.000124295
-0.000246121
0.000162236
-0.000417706
0.000218322
-0.000616999
0.000293965
-0.000830267
0.000386286
-0.0010117
0.000465427
-0.000866112
0.000495024
-0.000325923
0.000465664
0.000319044
0.000421899
0.000477622
0.000388015
0.000374633
0.000355625
0.000381663
0.000197586
0.000336548
3.05792e-05
-0.000131887
3.95437e-05
-0.000107451
4.58724e-05
-7.58673e-05
4.92112e-05
-4.00268e-05
4.94426e-05
-2.75972e-06
4.64561e-05
3.58194e-05
4.03099e-05
7.3687e-05
3.13371e-05
0.000107553
2.00174e-05
0.000135656
7.18815e-06
0.000153709
-5.99663e-06
0.000157934
-1.81931e-05
0.000146065
-2.80067e-05
0.000117499
-3.41776e-05
7.38526e-05
-3.57696e-05
1.89942e-05
-3.22841e-05
-4.18386e-05
-2.36275e-05
-0.00010379
-1.02054e-05
-0.000160879
7.12817e-06
-0.000207745
2.7123e-05
-0.000239614
4.82515e-05
-0.000253182
6.8857e-05
-0.000246904
8.72162e-05
-0.000219984
0.000101783
-0.000174545
0.000111358
-0.000114771
0.000115262
-4.6902e-05
0.000113637
1.92338e-05
0.000107703
7.06874e-05
9.98574e-05
9.34189e-05
9.35003e-05
7.54346e-05
9.27419e-05
8.24811e-06
0.000101898
-0.000110603
0.000124221
-0.000268443
0.000162152
-0.000455637
0.000218227
-0.000673073
0.000293921
-0.000905961
0.000386355
-0.00110414
0.000465633
-0.00094539
0.000495219
-0.000355509
0.000465733
0.00034853
0.000421863
0.000521493
0.000387993
0.000408503
0.000355968
0.000413687
0.000216463
0.000337091
3.05894e-05
-0.000142894
3.95569e-05
-0.000116418
4.58874e-05
-8.21977e-05
4.92272e-05
-4.33666e-05
4.94589e-05
-2.99145e-06
4.6472e-05
3.88063e-05
4.03241e-05
7.98349e-05
3.13485e-05
0.000116529
2.00245e-05
0.00014698
7.18952e-06
0.000166544
-6.00193e-06
0.000171125
-1.82054e-05
0.000158268
-2.80252e-05
0.000127319
-3.42009e-05
8.00283e-05
-3.57954e-05
2.05888e-05
-3.23102e-05
-4.53238e-05
-2.36515e-05
-0.000112448
-1.02251e-05
-0.000174306
7.11464e-06
-0.000225085
2.71172e-05
-0.000259617
4.82543e-05
-0.000274319
6.88683e-05
-0.000267518
8.72352e-05
-0.000238351
0.000101808
-0.000189117
0.000111386
-0.000124349
0.000115289
-5.08054e-05
0.000113657
2.08659e-05
0.000107711
7.66337e-05
9.98484e-05
0.000101281
9.34712e-05
8.18118e-05
9.26925e-05
9.02677e-06
0.000101831
-0.000119742
0.000124138
-0.00029075
0.000162054
-0.000493553
0.000218116
-0.000729136
0.000293843
-0.000981688
0.000386403
-0.0011967
0.000465847
-0.00102483
0.000495436
-0.000385098
0.000465818
0.000378148
0.000421832
0.000565478
0.000387959
0.000442376
0.000356325
0.000445322
0.000235225
0.000337563
3.0601e-05
-0.000153904
3.95716e-05
-0.000125389
4.5904e-05
-8.85302e-05
4.92448e-05
-4.67073e-05
4.94768e-05
-3.22348e-06
4.64894e-05
4.17937e-05
4.03399e-05
8.59843e-05
3.13614e-05
0.000125507
2.00328e-05
0.000158309
7.19147e-06
0.000179385
-6.00736e-06
0.000184324
-1.82183e-05
0.000170479
-2.80448e-05
0.000137146
-3.42256e-05
8.62091e-05
-3.58231e-05
2.21863e-05
-3.23384e-05
-4.88084e-05
-2.36773e-05
-0.000121109
-1.0246e-05
-0.000187737
7.10035e-06
-0.000242431
2.71115e-05
-0.000279628
4.82581e-05
-0.000295466
6.88819e-05
-0.000288142
8.72573e-05
-0.000256726
0.000101836
-0.000203696
0.000111418
-0.000133931
0.00011532
-5.47075e-05
0.00011368
2.25054e-05
0.00010772
8.25934e-05
9.98391e-05
0.000109163
9.34395e-05
8.82113e-05
9.26382e-05
9.82808e-06
0.000101757
-0.00012886
0.000124046
-0.000313039
0.000161948
-0.000531455
0.000217992
-0.00078518
0.000293746
-0.00105744
0.000386512
-0.00128946
0.000466113
-0.00110443
0.000495686
-0.000414671
0.00046594
0.000407894
0.000421793
0.000609625
0.000387895
0.000476273
0.000356704
0.000476513
0.000253991
0.000337938
0.000418253
-0.00030438
0.000540859
-0.000247995
0.000627379
-0.00017505
0.000673019
-9.23478e-05
0.000676231
-6.43467e-06
0.000635466
8.25581e-05
0.00055146
0.00016999
0.000428753
0.000248214
0.000273849
0.000313213
9.81685e-05
0.000355066
-8.24941e-05
0.000364987
-0.000249729
0.000337715
-0.000384394
0.00027181
-0.000469195
0.00017101
-0.000491271
4.42619e-05
-0.000443792
-9.62877e-05
-0.000325504
-0.000239397
-0.000141955
-0.000371287
9.51743e-05
-0.00047956
0.000368809
-0.000553263
0.000658014
-0.000584671
0.000940095
-0.000570223
0.00119144
-0.000508068
0.00139083
-0.000403086
0.00152177
-0.000264874
0.00157479
-0.00010773
0.00155172
4.55755e-05
0.00146906
0.000165258
0.00135964
0.000218576
0.00127008
0.000177776
0.00125681
2.31016e-05
0.00137908
-0.000251138
0.00168129
-0.000615243
0.00219678
-0.00104695
0.00296131
-0.00154971
0.0039991
-0.00209523
0.0052774
-0.00256777
0.00638002
-0.00220705
0.00678401
-0.000818661
0.0063646
0.000827295
0.0057542
0.00122003
0.00528505
0.000945421
0.00488888
0.000872681
0.000495175
0.0046477
0.000422734
-0.000456377
0.000546584
-0.000371845
0.000633859
-0.000262325
0.00067986
-0.000138349
0.00068326
-9.83475e-06
0.000642348
0.00012347
0.000557681
0.000254657
0.0004338
0.000372096
0.000277078
0.000469935
9.89118e-05
0.000533232
-8.46879e-05
0.000548586
-0.000254925
0.000507952
-0.000392246
0.000409131
-0.000479001
0.000257766
-0.000502109
6.73694e-05
-0.000454904
-0.000143492
-0.000335688
-0.000358614
-0.000150261
-0.000556714
8.95082e-05
-0.000719329
0.000366432
-0.000830186
0.000659314
-0.000877553
0.00094514
-0.000856049
0.00119982
-0.000762747
0.00140172
-0.000604982
0.00153399
-0.000397146
0.00158675
-0.000160492
0.00156045
7.18731e-05
0.00147252
0.000253187
0.00135559
0.000335508
0.0012572
0.000276163
0.00123505
4.52589e-05
0.00134981
-0.000365898
0.00164618
-0.000911618
0.00215682
-0.00155759
0.00292019
-0.00231307
0.00398275
-0.0031578
0.00531361
-0.00389863
0.00647139
-0.00336483
0.00686993
-0.00121719
0.00640036
0.00129686
0.00573964
0.00188076
0.0052613
0.00142376
0.00494166
0.00119232
0.000690196
0.00474664
0.000429349
-0.000610669
0.0005551
-0.000497595
0.000643559
-0.000350785
0.000690199
-0.000184988
0.000693824
-1.34601e-05
0.000652561
0.000164733
0.000566826
0.000340392
0.000441095
0.000497827
0.000281576
0.000629453
9.97743e-05
0.000715034
-8.80234e-05
0.000736384
-0.000262714
0.000682643
-0.000404093
0.00055051
-0.000493998
0.00034767
-0.00051893
9.2302e-05
-0.000471679
-0.000190743
-0.000351129
-0.000479164
-0.000162925
-0.000744918
8.08112e-05
-0.000963065
0.000362692
-0.00111207
0.000661018
-0.00117588
0.00095226
-0.00114729
0.00121189
-0.00102238
0.00141773
-0.000810828
0.00155207
-0.000531484
0.00160381
-0.00021223
0.00157424
0.000101446
0.00147848
0.000348944
0.00135069
0.000463295
0.00123949
0.000387362
0.00120451
8.024e-05
0.00130825
-0.000469638
0.00159551
-0.00119887
0.00209803
-0.0020601
0.0028587
-0.00307375
0.00395639
-0.00425548
0.00536933
-0.00531157
0.00661864
-0.00461415
0.00702172
-0.00162027
0.00648407
0.00183451
0.00576533
0.0025995
0.00524352
0.00194558
0.00488836
0.00154747
0.000910105
0.00466846
0.0004383
-0.000768058
0.000566558
-0.000625853
0.000656474
-0.000440702
0.000703821
-0.000232335
0.000707961
-1.76003e-05
0.000666435
0.000206259
0.000579451
0.000427376
0.00045146
0.000625818
0.000288356
0.000792558
0.000101483
0.000901907
-9.23629e-05
0.00093023
-0.000273167
0.000863447
-0.000419922
0.000697265
-0.000513725
0.000441473
-0.0005407
0.000119277
-0.00049406
-0.000237383
-0.000371649
-0.000601575
-0.000179722
-0.000936845
6.92695e-05
-0.00121206
0.000357796
-0.00140059
0.000663593
-0.00148168
0.00096246
-0.00144616
0.00122886
-0.00128878
0.00143977
-0.00102174
0.00157687
-0.000668585
0.00162839
-0.000263746
0.00159197
0.000137865
0.0014856
0.000455308
0.00134243
0.000606467
0.00121335
0.000516441
0.00116026
0.000133334
0.0012492
-0.000558581
0.00152539
-0.00147507
0.00201745
-0.00255216
0.00277397
-0.00383027
0.00391821
-0.00539973
0.00544704
-0.00684039
0.00682037
-0.00598747
0.00720042
-0.00200032
0.00655293
0.002482
0.00572441
0.00342802
0.00519175
0.00247823
0.00491837
0.00182086
0.00104097
0.0047875
0.000449418
-0.000929388
0.000580927
-0.000757362
0.000672828
-0.000532603
0.000721071
-0.000280578
0.000725364
-2.18929e-05
0.000683467
0.000248156
0.000594718
0.000516125
0.000463661
0.000756876
0.000295914
0.000960305
0.000103029
0.00109479
-9.78262e-05
0.00113109
-0.00028619
0.00105181
-0.000439868
0.000850944
-0.000539098
0.000540703
-0.000569202
0.000149381
-0.000522471
-0.000284114
-0.000397791
-0.000726255
-0.000201172
-0.00113346
5.45153e-05
-0.00146774
0.000351457
-0.00169754
0.000666431
-0.00179665
0.00097442
-0.00175415
0.00124924
-0.0015636
0.00146701
-0.00123951
0.00160784
-0.000809419
0.00165774
-0.00031364
0.00161642
0.000179183
0.0014969
0.000574826
0.00133537
0.000768003
0.0011849
0.000666905
0.00111016
0.000208073
0.00117992
-0.000628338
0.00144014
-0.00173529
0.00191514
-0.00302716
0.00266082
-0.00457594
0.00386239
-0.00660129
0.00553993
-0.00851794
0.0070856
-0.00753315
0.00748472
-0.00239944
0.00670257
0.00326415
0.00576297
0.00436763
0.00515438
0.00308682
0.00480936
0.00216587
0.00124295
0.00460738
0.000463041
-0.00109558
0.000598414
-0.000892735
0.000692418
-0.000626607
0.00074217
-0.00033033
0.000747308
-2.70307e-05
0.000704859
0.000290605
0.000614318
0.000606666
0.000479973
0.00089122
0.000306801
0.00113348
0.000106042
0.00129555
-0.000104264
0.00134139
-0.000302133
0.00124968
-0.000464132
0.00101294
-0.000569379
0.00064595
-0.000602602
0.000182604
-0.000556706
-0.000330011
-0.000429224
-0.000853737
-0.000226967
-0.00133572
3.65747e-05
-0.00173128
0.00034375
-0.00200471
0.000670247
-0.00212315
0.000990027
-0.00207393
0.00127535
-0.00184892
0.00150105
-0.00146521
0.00164647
-0.00095484
0.00169665
-0.000363814
0.00164452
0.000231312
0.00150869
0.000710659
0.00132339
0.000953294
0.00114476
0.00084554
0.00104118
0.000311651
0.0010899
-0.000677056
0.00133386
-0.00197925
0.00178858
-0.00348188
0.00251918
-0.00530654
0.00378618
-0.00786829
0.00567043
-0.0104022
0.00742048
-0.0092832
0.00776049
-0.00273944
0.00682158
0.00420306
0.00571743
0.00547178
0.00506543
0.00373882
0.00482537
0.00240594
0.0012734
0.00479492
0.000478815
-0.00126757
0.000618901
-0.00103282
0.000715487
-0.000723193
0.000765499
-0.000380342
0.00077159
-3.31215e-05
0.000728772
0.000333423
0.000635815
0.000699622
0.000497283
0.00102975
0.000317724
0.00131304
0.000108587