/*--------------------------------*- C++ -*----------------------------------*\
| =========                 |                                                 |
| \\      /  F ield         | OpenFOAM: The Open Source CFD Toolbox           |
|  \\    /   O peration     | Version:  v1912                                 |
|   \\  /    A nd           | Website:  www.openfoam.com                      |
|    \\/     M anipulation  |                                                 |
\*---------------------------------------------------------------------------*/
FoamFile
{
    version     2.0;
    format      ascii;
    class       volScalarField;
    location    "80";
    object      k;
}
// * * * * * * * * * * * * * * * * * * * * * * * * * * * * * * * * * * * * * //

dimensions      [0 2 -2 0 0 0 0];


internalField   nonuniform List<scalar> 
14268
(
0.0238454
0.0351821
0.043723
0.0482371
0.0496857
0.0510196
0.048363
0.0390794
0.0286068
0.0151152
0.00295254
0.00176425
0.00391867
0.00760791
0.010945
0.0141325
0.013251
0.00875629
0.00331882
0.00208823
0.00358216
0.00617881
0.0049979
0.00291756
0.00287748
0.00547107
0.00934721
0.0106299
0.0102366
0.0100754
0.00946869
0.00976081
0.00938024
0.00706145
0.0050495
0.00463003
0.00444129
0.00396648
0.00283894
0.00143123
0.000896563
0.00100563
0.00166646
0.00283897
0.00419664
0.00505772
0.00534139
0.00532744
0.00504168
0.00432482
0.00318941
0.00170363
0.000435467
0.00022911
0.000367535
0.00059117
0.000621915
0.000527935
0.000346987
0.000147458
4.64706e-05
1.16563e-05
2.6039e-06
6.14113e-07
1.26163e-07
2.26176e-08
3.69882e-09
5.75373e-10
8.64997e-11
1.26693e-11
1.94389e-12
4.80324e-13
3.19729e-13
3.26905e-13
3.67025e-13
4.18847e-13
4.67683e-13
5.15819e-13
5.64936e-13
6.15457e-13
6.67204e-13
7.19994e-13
7.73781e-13
8.28535e-13
8.84194e-13
9.40687e-13
9.97902e-13
1.05572e-12
1.11403e-12
1.17275e-12
1.2318e-12
1.29111e-12
1.35055e-12
1.41004e-12
1.46948e-12
1.5288e-12
1.58792e-12
1.64678e-12
1.70529e-12
1.76341e-12
1.82106e-12
1.87818e-12
1.93472e-12
1.99063e-12
2.04583e-12
2.10031e-12
2.154e-12
2.20687e-12
2.25887e-12
2.30999e-12
2.36017e-12
2.4094e-12
2.45765e-12
2.50491e-12
2.55114e-12
2.59634e-12
2.6405e-12
2.6836e-12
2.72565e-12
2.76661e-12
2.80653e-12
2.84535e-12
2.88314e-12
2.91983e-12
2.95551e-12
2.99009e-12
3.02369e-12
3.05621e-12
3.08777e-12
3.11829e-12
3.14786e-12
3.17644e-12
3.20408e-12
3.23079e-12
3.25656e-12
3.28147e-12
3.30546e-12
3.32864e-12
3.35093e-12
3.37247e-12
3.39314e-12
3.41311e-12
3.43225e-12
3.45073e-12
3.46841e-12
3.48538e-12
3.50154e-12
3.51661e-12
3.53129e-12
3.55123e-12
0.0798892
0.117263
0.144392
0.157952
0.162841
0.168386
0.160073
0.130925
0.0967313
0.0526312
0.0112991
0.00795466
0.0149277
0.0261451
0.0358926
0.0455228
0.0435655
0.0308333
0.0132227
0.00925663
0.0146326
0.0233662
0.0198979
0.0131816
0.0113138
0.0191681
0.031915
0.0368824
0.0359637
0.0352173
0.033184
0.0342864
0.0331128
0.0255404
0.0191292
0.0177426
0.0170333
0.0153639
0.0115015
0.00661194
0.0045484
0.00484688
0.00716697
0.0112568
0.0157694
0.0185732
0.0194922
0.0194287
0.0185098
0.0162092
0.0125565
0.00770514
0.00273215
0.00206526
0.00296958
0.00402566
0.00414171
0.00380773
0.00292081
0.00161012
0.000623953
0.000198193
5.46307e-05
1.46742e-05
3.09177e-06
5.49421e-07
9.13489e-08
1.46546e-08
2.26486e-09
3.39113e-10
5.31303e-11
1.35262e-11
9.18686e-12
9.43171e-12
1.06136e-11
1.21242e-11
1.35489e-11
1.4956e-11
1.6393e-11
1.78719e-11
1.93874e-11
2.09344e-11
2.25115e-11
2.4118e-11
2.57519e-11
2.74112e-11
2.90924e-11
3.07922e-11
3.25074e-11
3.42356e-11
3.59747e-11
3.77218e-11
3.9474e-11
4.12285e-11
4.29822e-11
4.47332e-11
4.64789e-11
4.82178e-11
4.99472e-11
5.16657e-11
5.33707e-11
5.50612e-11
5.67348e-11
5.83905e-11
6.00259e-11
6.16406e-11
6.32322e-11
6.48003e-11
6.63431e-11
6.78601e-11
6.93499e-11
7.08119e-11
7.22453e-11
7.36494e-11
7.50237e-11
7.63675e-11
7.76809e-11
7.89629e-11
8.02141e-11
8.14332e-11
8.26217e-11
8.37775e-11
8.49032e-11
8.59961e-11
8.70594e-11
8.80901e-11
8.90916e-11
9.00614e-11
9.10024e-11
9.19128e-11
9.27947e-11
9.36476e-11
9.44722e-11
9.52694e-11
9.60388e-11
9.67824e-11
9.74987e-11
9.81911e-11
9.88568e-11
9.95001e-11
1.00118e-10
1.00714e-10
1.01286e-10
1.01838e-10
1.02367e-10
1.02874e-10
1.03357e-10
1.03807e-10
1.04247e-10
1.04843e-10
0.127966
0.184952
0.227732
0.249114
0.254891
0.262381
0.249168
0.208536
0.155612
0.0852565
0.0195549
0.0145278
0.0228151
0.0373142
0.0516607
0.0660537
0.0652465
0.0485954
0.0239238
0.0185236
0.0252279
0.0368734
0.033661
0.0231233
0.0134943
0.0243868
0.0456504
0.0564508
0.0562823
0.0549986
0.0516549
0.0535764
0.0519345
0.0404547
0.031074
0.0290841
0.0280116
0.025417
0.0194978
0.0119096
0.00833931
0.00844869
0.0112455
0.0172108
0.0241513
0.0284946
0.0299221
0.0298445
0.0284608
0.0249768
0.0195441
0.0126263
0.00574497
0.00416312
0.0048632
0.00569055
0.00560441
0.00508693
0.00395019
0.00231027
0.00106174
0.000427337
0.000145552
4.34817e-05
1.11224e-05
2.22494e-06
4.1054e-07
7.22066e-08
1.20359e-08
1.91584e-09
3.19395e-10
8.92097e-11
6.407e-11
6.63094e-11
7.47893e-11
8.53293e-11
9.52265e-11
1.05022e-10
1.15021e-10
1.25297e-10
1.35814e-10
1.46537e-10
1.57456e-10
1.68566e-10
1.79854e-10
1.91304e-10
2.02894e-10
2.14599e-10
2.26398e-10
2.38275e-10
2.50214e-10
2.62196e-10
2.74203e-10
2.86212e-10
2.98206e-10
3.1017e-10
3.22088e-10
3.33949e-10
3.45736e-10
3.57438e-10
3.6904e-10
3.80534e-10
3.91903e-10
4.03143e-10
4.14237e-10
4.25182e-10
4.35964e-10
4.46579e-10
4.57016e-10
4.67272e-10
4.77337e-10
4.8721e-10
4.96882e-10
5.06352e-10
5.15616e-10
5.2467e-10
5.33513e-10
5.42141e-10
5.50557e-10
5.58754e-10
5.66741e-10
5.74505e-10
5.82064e-10
5.89399e-10
5.96532e-10
6.03445e-10
6.10158e-10
6.16657e-10
6.22961e-10
6.29057e-10
6.34962e-10
6.4067e-10
6.46187e-10
6.51519e-10
6.56663e-10
6.61634e-10
6.66422e-10
6.71048e-10
6.75494e-10
6.79791e-10
6.83913e-10
6.87896e-10
6.91714e-10
6.95397e-10
6.98922e-10
7.02306e-10
7.05528e-10
7.08531e-10
7.1146e-10
7.15436e-10
0.165527
0.229763
0.28204
0.309082
0.31888
0.326269
0.310671
0.262502
0.198693
0.11276
0.0278089
0.0189646
0.0246512
0.0416446
0.060901
0.0791878
0.0777658
0.0579562
0.0319483
0.0265606
0.0306742
0.0431156
0.0435556
0.0299921
0.0112414
0.0242958
0.0500131
0.0674948
0.0713908
0.0700321
0.0658189
0.0683867
0.0662772
0.0510888
0.0383613
0.0352988
0.0338885
0.0311155
0.0247724
0.0164433
0.0124599
0.012594
0.0156576
0.0221303
0.0301945
0.0355272
0.0372594
0.037147
0.0354508
0.0312346
0.0246684
0.0162656
0.00861675
0.00632655
0.00665761
0.008245
0.008752
0.00788231
0.00587976
0.00340671
0.00167458
0.000663144
0.000243584
7.82252e-05
2.03277e-05
4.72108e-06
9.78786e-07
1.8772e-07
3.33302e-08
5.56382e-09
9.78523e-10
3.00537e-10
2.28458e-10
2.38479e-10
2.69508e-10
3.06727e-10
3.41456e-10
3.75908e-10
4.11016e-10
4.47001e-10
4.83731e-10
5.21087e-10
5.59041e-10
5.97572e-10
6.36629e-10
6.7616e-10
7.16084e-10
7.56316e-10
7.96785e-10
8.37436e-10
8.78217e-10
9.19068e-10
9.59914e-10
1.00069e-09
1.04134e-09
1.08182e-09
1.12207e-09
1.16206e-09
1.20173e-09
1.24105e-09
1.27997e-09
1.31847e-09
1.35649e-09
1.39402e-09
1.43101e-09
1.46745e-09
1.5033e-09
1.53855e-09
1.57316e-09
1.60713e-09
1.64042e-09
1.67304e-09
1.70496e-09
1.73618e-09
1.76668e-09
1.79646e-09
1.82552e-09
1.85384e-09
1.88144e-09
1.9083e-09
1.93445e-09
1.95984e-09
1.98454e-09
2.0085e-09
2.03177e-09
2.05431e-09
2.07618e-09
2.09734e-09
2.11785e-09
2.13767e-09
2.15686e-09
2.1754e-09
2.19331e-09
2.2106e-09
2.22728e-09
2.24339e-09
2.2589e-09
2.27387e-09
2.28826e-09
2.30216e-09
2.31549e-09
2.32836e-09
2.34069e-09
2.35259e-09
2.36397e-09
2.37489e-09
2.38528e-09
2.39497e-09
2.40441e-09
2.41723e-09
0.196283
0.256349
0.329812
0.372063
0.387774
0.39717
0.377056
0.318905
0.243387
0.142201
0.0377934
0.0211951
0.025653
0.0498771
0.0743975
0.0957589
0.09263
0.067891
0.0328223
0.0239805
0.0270546
0.0407496
0.0519393
0.0365738
0.0128296
0.0297924
0.0567677
0.0745235
0.0825265
0.0829017
0.0789791
0.0822512
0.0788184
0.0572838
0.0393415
0.0356666
0.0342629
0.0331158
0.0275862
0.0198831
0.0162634
0.0165026
0.019873
0.0268326
0.0356488
0.0417804
0.0438315
0.0437112
0.0417017
0.0367388
0.029048
0.0194744
0.0112002
0.00880507
0.00948733
0.0116055
0.0122481
0.0111069
0.0083812
0.00487261
0.00236555
0.0011284
0.000440406
0.000124368
3.51931e-05
8.66918e-06
1.95373e-06
3.94503e-07
7.20927e-08
1.22353e-08
2.21058e-09
7.30333e-10
5.80764e-10
6.10645e-10
6.90708e-10
7.83178e-10
8.68865e-10
9.5401e-10
1.04051e-09
1.12879e-09
1.21852e-09
1.30945e-09
1.40149e-09
1.4946e-09
1.58864e-09
1.68349e-09
1.77895e-09
1.87481e-09
1.97091e-09
2.06714e-09
2.16335e-09
2.25942e-09
2.35518e-09
2.4505e-09
2.54524e-09
2.63931e-09
2.73258e-09
2.82499e-09
2.91641e-09
3.00679e-09
3.096e-09
3.18403e-09
3.27076e-09
3.35616e-09
3.44014e-09
3.52268e-09
3.6037e-09
3.68318e-09
3.76107e-09
3.83735e-09
3.91197e-09
3.98494e-09
4.0562e-09
4.12578e-09
4.19364e-09
4.25978e-09
4.32422e-09
4.38691e-09
4.44793e-09
4.5072e-09
4.56482e-09
4.62071e-09
4.67499e-09
4.72756e-09
4.77858e-09
4.82792e-09
4.87576e-09
4.92197e-09
4.96673e-09
5.00993e-09
5.05171e-09
5.09202e-09
5.13094e-09
5.16849e-09
5.20467e-09
5.23959e-09
5.27317e-09
5.30557e-09
5.33668e-09
5.36672e-09
5.3955e-09
5.42327e-09
5.44987e-09
5.47551e-09
5.50002e-09
5.52353e-09
5.54588e-09
5.56673e-09
5.587e-09
5.61459e-09
0.190663
0.240838
0.329529
0.408415
0.437199
0.449836
0.428946
0.365489
0.280792
0.168444
0.0472138
0.0209083
0.0297955
0.0622697
0.0877692
0.108737
0.105137
0.0794948
0.034134
0.0156115
0.017785
0.0316854
0.0485233
0.0345722
0.0172829
0.041696
0.0701259
0.079545
0.0864794
0.0879456
0.0868078
0.0922016
0.086848
0.0575601
0.0348178
0.0309196
0.03099
0.0314117
0.0272076
0.0216864
0.0195342
0.0199339
0.0235818
0.0308478
0.0401193
0.0467203
0.0488184
0.0486053
0.046403
0.0411099
0.0327352
0.0221613
0.0133827
0.0111326
0.0120892
0.0144961
0.0151384
0.0137713
0.0104867
0.00604449
0.00283252
0.00145148
0.000793007
0.000284796
7.42885e-05
1.77683e-05
3.88867e-06
7.65346e-07
1.36594e-07
2.27244e-08
4.12009e-09
1.45244e-09
1.20416e-09
1.2752e-09
1.44265e-09
1.62777e-09
1.79827e-09
1.96786e-09
2.13938e-09
2.31338e-09
2.48931e-09
2.66668e-09
2.84536e-09
3.02526e-09
3.20611e-09
3.38767e-09
3.56954e-09
3.75128e-09
3.93265e-09
4.11349e-09
4.29354e-09
4.47257e-09
4.65029e-09
4.82649e-09
5.00092e-09
5.17344e-09
5.34386e-09
5.51206e-09
5.67786e-09
5.84119e-09
6.00187e-09
6.15986e-09
6.31501e-09
6.46729e-09
6.61656e-09
6.76284e-09
6.90598e-09
7.04601e-09
7.18283e-09
7.31648e-09
7.44686e-09
7.57403e-09
7.69793e-09
7.81859e-09
7.936e-09
8.05018e-09
8.16116e-09
8.26893e-09
8.37357e-09
8.47503e-09
8.57348e-09
8.66878e-09
8.76119e-09
8.85051e-09
8.93706e-09
9.02061e-09
9.10151e-09
9.17951e-09
9.25497e-09
9.32768e-09
9.39793e-09
9.4656e-09
9.53086e-09
9.59373e-09
9.65425e-09
9.71258e-09
9.76862e-09
9.82265e-09
9.87446e-09
9.92443e-09
9.97227e-09
1.00184e-08
1.00625e-08
1.0105e-08
1.01456e-08
1.01846e-08
1.02215e-08
1.0256e-08
1.02895e-08
1.03351e-08
0.155101
0.212729
0.305987
0.415711
0.487851
0.507779
0.483779
0.41427
0.321018
0.195711
0.0558573
0.0209942
0.0364975
0.073357
0.0990623
0.119498
0.115045
0.0890129
0.0422388
0.0164028
0.0147411
0.0228904
0.0397301
0.0274984
0.0194662
0.0540329
0.0864693
0.0897878
0.0875
0.0860814
0.0861421
0.0963515
0.0905432
0.0578677
0.0344482
0.0324837
0.0345434
0.0343787
0.029241
0.0235019
0.0219564
0.0226902
0.0267856
0.03444
0.0440543
0.0506739
0.0524461
0.0520514
0.0496972
0.0444432
0.0359078
0.0246987
0.0154075
0.0131496
0.0142856
0.0169057
0.0175441
0.0159727
0.012271
0.00719559
0.00324797
0.00150893
0.000987024
0.00050246
0.000142043
3.26211e-05
6.77999e-06
1.27949e-06
2.19845e-07
3.5425e-08
6.45011e-09
2.49276e-09
2.17295e-09
2.32113e-09
2.62552e-09
2.9442e-09
3.2369e-09
3.528e-09
3.82075e-09
4.11555e-09
4.41161e-09
4.70826e-09
5.00535e-09
5.30272e-09
5.59995e-09
5.89654e-09
6.19181e-09
6.48529e-09
6.77663e-09
7.06554e-09
7.3517e-09
7.63475e-09
7.91432e-09
8.1901e-09
8.46179e-09
8.72923e-09
8.99217e-09
9.25052e-09
9.50405e-09
9.75271e-09
9.9963e-09
1.02348e-08
1.04681e-08
1.06962e-08
1.09189e-08
1.11363e-08
1.13482e-08
1.15548e-08
1.1756e-08
1.19518e-08
1.21423e-08
1.23274e-08
1.25073e-08
1.26819e-08
1.28513e-08
1.30156e-08
1.31749e-08
1.33291e-08
1.34786e-08
1.36231e-08
1.3763e-08
1.38981e-08
1.40288e-08
1.41549e-08
1.42768e-08
1.43943e-08
1.45078e-08
1.46171e-08
1.47226e-08
1.48241e-08
1.49219e-08
1.50161e-08
1.51067e-08
1.51939e-08
1.52778e-08
1.53584e-08
1.54358e-08
1.55103e-08
1.55817e-08
1.56504e-08
1.57162e-08
1.57795e-08
1.584e-08
1.58983e-08
1.59538e-08
1.6007e-08
1.60575e-08
1.61046e-08
1.61501e-08
1.62125e-08
0.11911
0.21284
0.27508
0.377349
0.49895
0.546872
0.528374
0.455929
0.355076
0.219405
0.0610461
0.021756
0.043398
0.0820743
0.106828
0.126033
0.12124
0.0952626
0.0509783
0.0258859
0.0231391
0.018682
0.0307027
0.0197509
0.0208793
0.0641213
0.100297
0.104581
0.0941996
0.0834834
0.0753657
0.0888638
0.0846268
0.0552588
0.0392069
0.0409985
0.0429307
0.0414444
0.0339612
0.0257856
0.0236136
0.0247937
0.0293497
0.0371221
0.0463357
0.0523666
0.0540863
0.053597
0.0510554
0.0457495
0.0378106
0.0267831
0.0172309
0.0149225
0.0161903
0.0188949
0.0194802
0.0177401
0.0137698
0.00836884
0.00389504
0.00151425
0.000935685
0.00060274
0.00020994
4.7943e-05
9.61386e-06
1.71433e-06
2.78314e-07
4.34174e-08
8.38554e-09
3.83047e-09
3.54656e-09
3.82517e-09
4.32198e-09
4.81111e-09
5.26192e-09
5.70874e-09
6.15524e-09
6.6009e-09
7.04473e-09
7.48626e-09
7.92548e-09
8.36204e-09
8.79535e-09
9.22477e-09
9.64942e-09
1.00687e-08
1.04823e-08
1.08898e-08
1.1291e-08
1.16854e-08
1.20725e-08
1.24522e-08
1.28241e-08
1.31882e-08
1.35441e-08
1.3892e-08
1.42317e-08
1.45631e-08
1.48862e-08
1.52011e-08
1.55076e-08
1.58059e-08
1.60959e-08
1.63777e-08
1.66513e-08
1.69168e-08
1.71743e-08
1.74239e-08
1.76657e-08
1.78998e-08
1.81264e-08
1.83457e-08
1.85577e-08
1.87626e-08
1.89606e-08
1.91518e-08
1.93364e-08
1.95144e-08
1.96863e-08
1.98518e-08
2.00116e-08
2.01653e-08
2.03137e-08
2.04562e-08
2.05937e-08
2.07257e-08
2.0853e-08
2.09752e-08
2.10929e-08
2.12058e-08
2.13144e-08
2.14187e-08
2.15188e-08
2.1615e-08
2.17071e-08
2.17956e-08
2.18802e-08
2.19617e-08
2.20394e-08
2.21142e-08
2.21856e-08
2.22542e-08
2.23196e-08
2.23822e-08
2.24414e-08
2.24968e-08
2.25499e-08
2.26232e-08
0.118199
0.259616
0.285138
0.333274
0.472802
0.548938
0.558652
0.498774
0.392004
0.243903
0.0627306
0.0239565
0.0502606
0.0898948
0.114736
0.133739
0.129029
0.100902
0.0585792
0.0363037
0.0360493
0.0231635
0.0240857
0.012927
0.0237331
0.073102
0.112791
0.119962
0.109829
0.0920802
0.0700223
0.0764956
0.0736259
0.0489225
0.0426461
0.0480379
0.0489169
0.0462621
0.0366109
0.0266739
0.0250043
0.0266537
0.031384
0.0387373
0.0476884
0.0540031
0.0565873
0.0562498
0.0531847
0.0466601
0.0385649
0.0282536
0.0189769
0.0165665
0.017893
0.0204417
0.020817
0.0189409
0.0148688
0.00934704
0.00475378
0.00169518
0.000764443
0.000529255
0.000255125
5.93164e-05
1.06909e-05
1.77588e-06
2.78802e-07
4.42411e-08
9.8865e-09
5.53088e-09
5.37727e-09
5.84447e-09
6.58146e-09
7.2702e-09
7.90754e-09
8.5349e-09
9.15632e-09
9.77097e-09
1.03778e-08
1.09765e-08
1.15673e-08
1.21497e-08
1.27232e-08
1.32871e-08
1.38404e-08
1.43826e-08
1.49135e-08
1.54329e-08
1.59405e-08
1.64362e-08
1.69196e-08
1.73904e-08
1.78485e-08
1.82939e-08
1.87266e-08
1.91468e-08
1.95546e-08
1.99502e-08
2.03336e-08
2.07053e-08
2.10654e-08
2.14142e-08
2.17519e-08
2.20789e-08
2.23949e-08
2.27e-08
2.29943e-08
2.32783e-08
2.3552e-08
2.38158e-08
2.407e-08
2.43149e-08
2.45506e-08
2.47776e-08
2.4996e-08
2.5206e-08
2.54081e-08
2.56023e-08
2.57892e-08
2.59685e-08
2.61411e-08
2.63065e-08
2.64657e-08
2.66182e-08
2.6765e-08
2.69054e-08
2.70405e-08
2.71698e-08
2.7294e-08
2.7413e-08
2.75271e-08
2.76364e-08
2.77412e-08
2.78417e-08
2.79378e-08
2.80301e-08
2.81183e-08
2.8203e-08
2.82838e-08
2.83614e-08
2.84354e-08
2.85066e-08
2.85742e-08
2.8639e-08
2.87001e-08
2.87575e-08
2.8812e-08
2.8888e-08
0.139585
0.301173
0.332418
0.298083
0.421459
0.503995
0.534101
0.520558
0.423675
0.265462
0.0621388
0.0267078
0.0564424
0.0966823
0.122005
0.141518
0.136957
0.105877
0.0649436
0.0445231
0.0462101
0.0323607
0.0176057
0.00956473
0.0282718
0.0807925
0.122353
0.132069
0.124213
0.107077
0.0763427
0.0689133
0.0665255
0.0470515
0.04643
0.0519946
0.0519455
0.0483231
0.0369528
0.0254264
0.0256105
0.0280913
0.0327207
0.0395391
0.0489789
0.056887
0.0606266
0.0604549
0.0568986
0.0487444
0.0390237
0.0289465
0.0205051
0.0180933
0.01947
0.0219102
0.021807
0.0195926
0.0153337
0.00985689
0.00551771
0.00215267
0.000662326
0.000360568
0.000180569
4.78847e-05
8.73313e-06
1.46059e-06
2.37392e-07
4.14507e-08
1.1541e-08
7.70713e-09
7.70572e-09
8.40527e-09
9.41047e-09
1.0318e-08
1.11564e-08
1.19741e-08
1.27759e-08
1.35612e-08
1.43291e-08
1.50795e-08
1.58131e-08
1.65298e-08
1.72293e-08
1.7911e-08
1.85742e-08
1.92184e-08
1.98437e-08
2.04503e-08
2.10386e-08
2.16088e-08
2.21612e-08
2.26963e-08
2.32138e-08
2.37129e-08
2.41936e-08
2.46567e-08
2.51024e-08
2.55314e-08
2.59438e-08
2.63404e-08
2.67213e-08
2.70873e-08
2.74385e-08
2.77756e-08
2.80991e-08
2.84101e-08
2.87087e-08
2.89957e-08
2.92711e-08
2.95358e-08
2.97897e-08
3.00335e-08
3.02675e-08
3.04921e-08
3.07075e-08
3.09142e-08
3.11125e-08
3.13025e-08
3.14849e-08
3.16596e-08
3.18273e-08
3.19878e-08
3.21419e-08
3.22892e-08
3.24308e-08
3.2566e-08
3.26959e-08
3.28201e-08
3.29392e-08
3.30531e-08
3.31623e-08
3.32668e-08
3.33667e-08
3.34625e-08
3.3554e-08
3.36417e-08
3.37254e-08
3.38058e-08
3.38823e-08
3.39558e-08
3.40257e-08
3.40929e-08
3.41567e-08
3.42178e-08
3.42753e-08
3.43296e-08
3.43804e-08
3.44526e-08
0.157627
0.339651
0.374176
0.305823
0.367954
0.452874
0.486948
0.511908
0.450058
0.286305
0.0622069
0.0296599
0.0625139
0.103429
0.128253
0.14784
0.143899
0.110289
0.0702399
0.0517116
0.0523049
0.0413177
0.0162053
0.0122396
0.0343252
0.0868922
0.125914
0.135129
0.131896
0.117527
0.0867048
0.0723794
0.0700731
0.0543242
0.0546994
0.0576594
0.0565817
0.0520499
0.0393389
0.0247047
0.0251874
0.0283657
0.0329122
0.0401198
0.0511896
0.0609029
0.0653386
0.0651966
0.0614684
0.0522852
0.0402488
0.0294057
0.0217803
0.0195421
0.0210049
0.0236141
0.023257
0.0204332
0.0154529
0.00978057
0.00594097
0.00266596
0.000758572
0.000229517
7.42283e-05
2.1608e-05
4.93811e-06
1.00813e-06
1.98997e-07
4.18192e-08
1.41929e-08
1.04602e-08
1.05591e-08
1.14907e-08
1.2772e-08
1.39037e-08
1.49402e-08
1.59397e-08
1.69089e-08
1.78478e-08
1.87561e-08
1.96345e-08
2.0484e-08
2.13054e-08
2.20991e-08
2.28661e-08
2.36068e-08
2.43203e-08
2.50048e-08
2.56609e-08
2.62893e-08
2.68905e-08
2.74648e-08
2.80126e-08
2.85351e-08
2.90349e-08
2.95127e-08
2.99697e-08
3.04065e-08
3.08243e-08
3.12237e-08
3.16056e-08
3.19707e-08
3.23199e-08
3.26538e-08
3.29732e-08
3.32787e-08
3.3571e-08
3.38506e-08
3.41181e-08
3.43739e-08
3.46188e-08
3.48529e-08
3.50769e-08
3.52912e-08
3.54962e-08
3.56923e-08
3.58799e-08
3.60594e-08
3.6231e-08
3.63953e-08
3.65522e-08
3.67026e-08
3.68461e-08
3.69837e-08
3.71149e-08
3.72408e-08
3.73608e-08
3.74759e-08
3.75857e-08
3.76909e-08
3.77913e-08
3.78874e-08
3.79793e-08
3.8067e-08
3.8151e-08
3.8231e-08
3.83078e-08
3.83808e-08
3.8451e-08
3.85176e-08
3.85816e-08
3.86424e-08
3.87008e-08
3.87562e-08
3.88093e-08
3.88589e-08
3.89062e-08
3.89497e-08
3.90129e-08
0.173684
0.365201
0.37278
0.337183
0.321478
0.395089
0.431044
0.468632
0.452092
0.301415
0.064157
0.0333167
0.0682325
0.108351
0.130998
0.150771
0.147611
0.114067
0.0707378
0.0540187
0.0528622
0.0481113
0.023113
0.0205426
0.0405244
0.0888414
0.116647
0.123553
0.123933
0.115162
0.0937
0.0830413
0.0820419
0.065564
0.0634365
0.0647766
0.0628121
0.0575373
0.0437545
0.0260626
0.0239262
0.0270697
0.0317193
0.0404329
0.05402
0.0649666
0.0695639
0.0693735
0.0655079
0.0559185
0.0421347
0.0298066
0.0227543
0.020899
0.0225083
0.0253495
0.0251036
0.021861
0.0157929
0.00949196
0.00589269
0.00304437
0.000987615
0.000242691
5.74723e-05
1.48812e-05
4.15055e-06
9.96603e-07
2.16667e-07
4.95698e-08
1.82412e-08
1.38056e-08
1.39214e-08
1.50465e-08
1.6592e-08
1.79346e-08
1.91473e-08
2.03016e-08
2.14069e-08
2.24644e-08
2.34761e-08
2.44454e-08
2.53732e-08
2.62565e-08
2.70957e-08
2.78913e-08
2.86431e-08
2.93538e-08
3.00278e-08
3.0667e-08
3.12733e-08
3.18483e-08
3.23935e-08
3.29107e-08
3.34014e-08
3.38673e-08
3.43096e-08
3.47298e-08
3.51289e-08
3.55083e-08
3.58688e-08
3.62118e-08
3.65378e-08
3.68482e-08
3.71434e-08
3.74245e-08
3.76921e-08
3.7947e-08
3.81897e-08
3.8421e-08
3.86413e-08
3.88513e-08
3.90514e-08
3.92423e-08
3.94242e-08
3.95976e-08
3.97631e-08
3.99209e-08
4.00715e-08
4.0215e-08
4.03521e-08
4.04827e-08
4.06077e-08
4.07266e-08
4.08404e-08
4.09486e-08
4.10523e-08
4.1151e-08
4.12455e-08
4.13354e-08
4.14215e-08
4.15035e-08
4.15819e-08
4.16567e-08
4.1728e-08
4.17962e-08
4.18612e-08
4.19234e-08
4.19825e-08
4.20392e-08
4.2093e-08
4.21447e-08
4.21937e-08
4.22408e-08
4.22853e-08
4.2328e-08
4.23678e-08
4.24061e-08
4.24404e-08
4.24921e-08
0.186983
0.364641
0.342417
0.355441
0.311478
0.344823
0.375101
0.414082
0.435257
0.305369
0.0668863
0.0380726
0.07376
0.109984
0.129592
0.150464
0.14766
0.117331
0.0686084
0.0519498
0.0517884
0.0559952
0.0361664
0.0319744
0.0460038
0.0843102
0.0981171
0.105758
0.107844
0.102531
0.0939093
0.0951116
0.0970803
0.0776132
0.0713705
0.0708039
0.0679641
0.0622639
0.0477724
0.0283408
0.0231178
0.0252692
0.0303383
0.0414017
0.0572703
0.0688704
0.0735239
0.0733013
0.0693021
0.0593961
0.0443889
0.0303074
0.0235767
0.0221795
0.0239854
0.02702
0.0268477
0.0234658
0.0166239
0.00927789
0.00552157
0.00318729
0.00123833
0.000328987
7.79992e-05
1.94505e-05
5.12433e-06
1.23707e-06
2.7503e-07
6.39402e-08
2.35402e-08
1.76726e-08
1.77252e-08
1.89931e-08
2.07676e-08
2.22854e-08
2.36347e-08
2.49032e-08
2.61035e-08
2.72306e-08
2.82845e-08
2.92671e-08
3.0184e-08
3.10433e-08
3.18487e-08
3.26036e-08
3.33111e-08
3.39747e-08
3.45975e-08
3.51826e-08
3.57324e-08
3.62494e-08
3.67356e-08
3.7193e-08
3.76235e-08
3.80291e-08
3.84113e-08
3.87719e-08
3.91119e-08
3.94331e-08
3.97363e-08
4.00231e-08
4.0294e-08
4.05506e-08
4.07932e-08
4.10232e-08
4.12408e-08
4.14473e-08
4.1643e-08
4.18287e-08
4.20048e-08
4.21722e-08
4.23309e-08
4.24819e-08
4.26253e-08
4.27616e-08
4.28912e-08
4.30144e-08
4.31318e-08
4.32433e-08
4.33496e-08
4.34506e-08
4.3547e-08
4.36385e-08
4.3726e-08
4.3809e-08
4.38885e-08
4.39638e-08
4.4036e-08
4.41045e-08
4.41701e-08
4.42324e-08
4.42919e-08
4.43486e-08
4.44027e-08
4.44542e-08
4.45033e-08
4.45503e-08
4.45949e-08
4.46376e-08
4.46781e-08
4.47171e-08
4.47538e-08
4.47893e-08
4.48226e-08
4.48548e-08
4.48845e-08
4.49136e-08
4.49385e-08
4.49785e-08
0.192454
0.32909
0.302617
0.336275
0.32635
0.322948
0.320416
0.352509
0.388631
0.287657
0.0664391
0.0431445
0.0787617
0.106587
0.124206
0.146996
0.144043
0.117331
0.0696496
0.0501815
0.0535098
0.0661538
0.0498988
0.0428435
0.0488978
0.0751312
0.0833338
0.0892806
0.0901493
0.0854249
0.0851852
0.103023
0.111175
0.0876885
0.0761692
0.0730509
0.0694827
0.0641094
0.0506645
0.0306263
0.0237313
0.024567
0.0302002
0.0433188
0.0605773
0.0723893
0.0770966
0.0768413
0.0727158
0.0625566
0.0467422
0.0309266
0.0242942
0.0233702
0.0254242
0.0286196
0.0284853
0.025016
0.0178431
0.00947831
0.00504185
0.0030718
0.00141919
0.000429224
0.000112278
2.85316e-05
7.10294e-06
1.6572e-06
3.61247e-07
8.24284e-08
2.96644e-08
2.19422e-08
2.18805e-08
2.3242e-08
2.51852e-08
2.68144e-08
2.82358e-08
2.954e-08
3.07337e-08
3.18297e-08
3.28371e-08
3.37643e-08
3.46202e-08
3.54117e-08
3.6144e-08
3.68224e-08
3.74507e-08
3.80332e-08
3.85738e-08
3.90762e-08
3.95435e-08
3.99785e-08
4.03836e-08
4.07612e-08
4.11134e-08
4.14422e-08
4.17492e-08
4.20363e-08
4.23048e-08
4.25565e-08
4.27925e-08
4.30143e-08
4.32225e-08
4.34185e-08
4.36029e-08
4.37768e-08
4.39405e-08
4.40952e-08
4.4241e-08
4.4379e-08
4.45092e-08
4.46326e-08
4.47492e-08
4.48597e-08
4.49644e-08
4.50636e-08
4.51578e-08
4.5247e-08
4.53319e-08
4.54123e-08
4.54889e-08
4.55614e-08
4.56306e-08
4.56961e-08
4.57587e-08
4.58179e-08
4.58746e-08
4.59283e-08
4.59797e-08
4.60283e-08
4.6075e-08
4.61192e-08
4.61615e-08
4.62016e-08
4.62399e-08
4.62764e-08
4.63111e-08
4.63444e-08
4.63758e-08
4.64061e-08
4.64347e-08
4.64622e-08
4.64881e-08
4.65132e-08
4.65366e-08
4.65595e-08
4.65802e-08
4.66012e-08
4.66178e-08
4.66476e-08
0.197505
0.256529
0.240168
0.284992
0.352666
0.349138
0.27444
0.264999
0.301716
0.233042
0.063495
0.0500999
0.0849665
0.0976719
0.114718
0.139813
0.136708
0.11274
0.0754758
0.0531101
0.0626234
0.0833741
0.0678291
0.0569529
0.0497776
0.0654332
0.0791796
0.0790801
0.0693573
0.0596413
0.0674773
0.108898
0.12916
0.0988733
0.0763044
0.0688079
0.0645173
0.0603254
0.0508676
0.0329898
0.0258941
0.0257575
0.0320274
0.0471057
0.0654507
0.0773986
0.0822032
0.0819066
0.0775853
0.0670566
0.0503753
0.0321693
0.0253445
0.0250483
0.0274449
0.0307759
0.0306424
0.0271134
0.0196941
0.0105293
0.00453346
0.0027107
0.00153008
0.000536765
0.000153365
4.10898e-05
1.02969e-05
2.37229e-06
5.0477e-07
1.11748e-07
3.93534e-08
2.88668e-08
2.86333e-08
3.01011e-08
3.21732e-08
3.38002e-08
3.51529e-08
3.63388e-08
3.73968e-08
3.83398e-08
3.91845e-08
3.99421e-08
4.06244e-08
4.124e-08
4.1796e-08
4.2299e-08
4.27542e-08
4.31667e-08
4.35412e-08
4.3882e-08
4.41925e-08
4.44758e-08
4.47345e-08
4.49716e-08
4.5189e-08
4.53891e-08
4.55737e-08
4.57443e-08
4.59025e-08
4.6049e-08
4.61848e-08
4.63109e-08
4.64279e-08
4.65371e-08
4.66386e-08
4.67336e-08
4.68221e-08
4.69053e-08
4.69829e-08
4.70562e-08
4.71246e-08
4.71894e-08
4.725e-08
4.73075e-08
4.73615e-08
4.74125e-08
4.74609e-08
4.75064e-08
4.75498e-08
4.75907e-08
4.76298e-08
4.76666e-08
4.77019e-08
4.77351e-08
4.77668e-08
4.77967e-08
4.78254e-08
4.78525e-08
4.78786e-08
4.79032e-08
4.79269e-08
4.79494e-08
4.79709e-08
4.79913e-08
4.80107e-08
4.80293e-08
4.8047e-08
4.8064e-08
4.808e-08
4.80956e-08
4.81101e-08
4.81242e-08
4.81374e-08
4.81504e-08
4.81624e-08
4.81744e-08
4.81848e-08
4.81964e-08
4.82034e-08
4.82217e-08
0.207357
0.185657
0.186917
0.211578
0.340226
0.411285
0.315255
0.193638
0.193578
0.150559
0.0608728
0.0576654
0.0849929
0.0895382
0.112451
0.139126
0.136371
0.107547
0.0835463
0.0673351
0.0771248
0.0991447
0.0866182
0.0733874
0.0525019
0.0699922
0.0931239
0.097708
0.0728807
0.0460202
0.0599679
0.115392
0.143576
0.100334
0.0581758
0.0465007
0.0421192
0.0396325
0.0356359
0.0309362
0.0296381
0.0297757
0.0364957
0.0525409
0.0711691
0.0830769
0.0879974
0.0876614
0.0831216
0.0721642
0.0549488
0.0343123
0.0264429
0.0267127
0.0292052
0.0321993
0.0320067
0.0288552
0.0216371
0.0124418
0.00495459
0.00223502
0.00136043
0.000606708
0.000186699
5.11695e-05
1.27887e-05
2.85408e-06
5.81752e-07
1.28435e-07
4.87185e-08
3.75602e-08
3.72418e-08
3.854e-08
4.02717e-08
4.15343e-08
4.25469e-08
4.3399e-08
4.41285e-08
4.47515e-08
4.52863e-08
4.57454e-08
4.61402e-08
4.64798e-08
4.67727e-08
4.7026e-08
4.72451e-08
4.74354e-08
4.76014e-08
4.77462e-08
4.7873e-08
4.79839e-08
4.80817e-08
4.8167e-08
4.82415e-08
4.83071e-08
4.83629e-08
4.8413e-08
4.84536e-08
4.84914e-08
4.85224e-08
4.85523e-08
4.85772e-08
4.86015e-08
4.86219e-08
4.86423e-08
4.86591e-08
4.86768e-08
4.86908e-08
4.87063e-08
4.87185e-08
4.8732e-08
4.87433e-08
4.87553e-08
4.87657e-08
4.87762e-08
4.87864e-08
4.87956e-08
4.88049e-08
4.88131e-08
4.88212e-08
4.88286e-08
4.88362e-08
4.88438e-08
4.88517e-08
4.88594e-08
4.88671e-08
4.88742e-08
4.88814e-08
4.88881e-08
4.88948e-08
4.89011e-08
4.89073e-08
4.89132e-08
4.8919e-08
4.89245e-08
4.89298e-08
4.8935e-08
4.89399e-08
4.89449e-08
4.89503e-08
4.89557e-08
4.89598e-08
4.89639e-08
4.89676e-08
4.89717e-08
4.89747e-08
4.89795e-08
4.89796e-08
4.89893e-08
0.220821
0.180851
0.207955
0.172309
0.287772
0.445148
0.377272
0.202766
0.1292
0.0963452
0.0605516
0.065075
0.0809414
0.0904889
0.120544
0.148713
0.146293
0.10818
0.0905068
0.081834
0.085085
0.0979156
0.100846
0.088744
0.0589098
0.0808979
0.108263
0.118046
0.0926891
0.0583336
0.0763107
0.131538
0.156023
0.100885
0.042009
0.0294383
0.0267518
0.0248894
0.0223519
0.025925
0.0303768
0.033283
0.0410683
0.0578006
0.0764877
0.0883612
0.0934314
0.0930596
0.0882863
0.0768947
0.0592707
0.0368407
0.0266192
0.0268942
0.0293123
0.0320032
0.0317367
0.0293303
0.0230855
0.0141999
0.00598041
0.00212788
0.00110085
0.000595062
0.000214084
5.70461e-05
1.35161e-05
2.87636e-06
5.69727e-07
1.28857e-07
5.47922e-08
4.4741e-08
4.44018e-08
4.53722e-08
4.65808e-08
4.73883e-08
4.79934e-08
4.84649e-08
4.88336e-08
4.91179e-08
4.93338e-08
4.94949e-08
4.96149e-08
4.97038e-08
4.9767e-08
4.98084e-08
4.9832e-08
4.98409e-08
4.98384e-08
4.98257e-08
4.98052e-08
4.97789e-08
4.97484e-08
4.97149e-08
4.96797e-08
4.96452e-08
4.9611e-08
4.95806e-08
4.95522e-08
4.95284e-08
4.95047e-08
4.94833e-08
4.94618e-08
4.94423e-08
4.94231e-08
4.9406e-08
4.93887e-08
4.93741e-08
4.93589e-08
4.93465e-08
4.93335e-08
4.93229e-08
4.93121e-08
4.93032e-08
4.92942e-08
4.92863e-08
4.92793e-08
4.92727e-08
4.92676e-08
4.92635e-08
4.92609e-08
4.92593e-08
4.92585e-08
4.92572e-08
4.92541e-08
4.92501e-08
4.92468e-08
4.92438e-08
4.92413e-08
4.9239e-08
4.92372e-08
4.92355e-08
4.92342e-08
4.9233e-08
4.9232e-08
4.92312e-08
4.92305e-08
4.923e-08
4.92296e-08
4.92291e-08
4.9227e-08
4.92248e-08
4.92249e-08
4.92256e-08
4.92261e-08
4.92272e-08
4.92275e-08
4.92297e-08
4.92278e-08
4.92342e-08
0.233013
0.203232
0.258108
0.205893
0.218643
0.411254
0.410331
0.229682
0.106089
0.0621384
0.0549034
0.0721026
0.0777763
0.0943142
0.12753
0.156431
0.154389
0.111684
0.0955376
0.0935235
0.0769153
0.0805707
0.100658
0.0937805
0.0610296
0.0904944
0.119289
0.133718
0.109303
0.0656008
0.0829001
0.143632
0.164878
0.100691
0.0352695
0.0266638
0.0262672
0.0241586
0.02004
0.0212567
0.0267708
0.0339401
0.0445256
0.0624437
0.0811871
0.0929872
0.0981681
0.0977852
0.0928372
0.0810482
0.0630938
0.0397093
0.0263487
0.0261111
0.0284815
0.0318636
0.0317987
0.0295201
0.0240838
0.0156935
0.00706258
0.00244584
0.000907281
0.000473238
0.000197459
5.43396e-05
1.22786e-05
2.50313e-06
4.8632e-07
1.17616e-07
5.81373e-08
5.03357e-08
4.99724e-08
5.0504e-08
5.11293e-08
5.14764e-08
5.16814e-08
5.17925e-08
5.1836e-08
5.18339e-08
5.17959e-08
5.1734e-08
5.16614e-08
5.15743e-08
5.14701e-08
5.13568e-08
5.12414e-08
5.11273e-08
5.10158e-08
5.0908e-08
5.08055e-08
5.0709e-08
5.0619e-08
5.05357e-08
5.04585e-08
5.0387e-08
5.03194e-08
5.02552e-08