/*--------------------------------*- C++ -*----------------------------------*\
| =========                 |                                                 |
| \\      /  F ield         | OpenFOAM: The Open Source CFD Toolbox           |
|  \\    /   O peration     | Version:  v1912                                 |
|   \\  /    A nd           | Website:  www.openfoam.com                      |
|    \\/     M anipulation  |                                                 |
\*---------------------------------------------------------------------------*/
FoamFile
{
    version     2.0;
    format      ascii;
    class       volScalarField;
    location    "80";
    object      nut;
}
// * * * * * * * * * * * * * * * * * * * * * * * * * * * * * * * * * * * * * //

dimensions      [0 2 -1 0 0 0 0];


internalField   nonuniform List<scalar> 
14268
(
0.000170476
0.000210125
0.000235694
0.00024813
0.000251903
0.000255315
0.000248203
0.000221853
0.000187947
0.000132377
4.68766e-05
3.14278e-05
5.62614e-05
8.71823e-05
0.000108884
0.000126589
0.000122282
9.63827e-05
5.1406e-05
3.66182e-05
5.36232e-05
7.63157e-05
6.62096e-05
4.53287e-05
4.49022e-05
7.03429e-05
9.87666e-05
0.000106754
0.000104362
0.000103373
9.95531e-05
0.000101414
9.90935e-05
8.32881e-05
6.71711e-05
6.34836e-05
6.17646e-05
5.72085e-05
4.51474e-05
2.65663e-05
1.79165e-05
1.96884e-05
2.95409e-05
4.43431e-05
5.86749e-05
6.66652e-05
6.91598e-05
6.90492e-05
6.6558e-05
5.99688e-05
4.8348e-05
2.99487e-05
9.21443e-06
5.20971e-06
8.18897e-06
1.26578e-05
1.32471e-05
1.14085e-05
7.69715e-06
3.36865e-06
1.07429e-06
2.69266e-07
5.95558e-08
1.38453e-08
2.82925e-09
5.07215e-10
8.29488e-11
1.29032e-11
1.93982e-12
2.84118e-13
4.35932e-14
1.07716e-14
7.17016e-15
7.33109e-15
8.23082e-15
9.39297e-15
1.04881e-14
1.15676e-14
1.26691e-14
1.38021e-14
1.49625e-14
1.61464e-14
1.73526e-14
1.85805e-14
1.98287e-14
2.10956e-14
2.23787e-14
2.36752e-14
2.49829e-14
2.62997e-14
2.76241e-14
2.8954e-14
3.02871e-14
3.16213e-14
3.29543e-14
3.42846e-14
3.56103e-14
3.69303e-14
3.82425e-14
3.95458e-14
4.08385e-14
4.21197e-14
4.33874e-14
4.46412e-14
4.58792e-14
4.7101e-14
4.83049e-14
4.94907e-14
5.06569e-14
5.18032e-14
5.29285e-14
5.40326e-14
5.51147e-14
5.61744e-14
5.72113e-14
5.82249e-14
5.92153e-14
6.01817e-14
6.11247e-14
6.20432e-14
6.29385e-14
6.3809e-14
6.46565e-14
6.54792e-14
6.62794e-14
6.7055e-14
6.78084e-14
6.85378e-14
6.92455e-14
6.993e-14
7.0593e-14
7.1234e-14
7.18537e-14
7.24527e-14
7.30307e-14
7.35893e-14
7.41273e-14
7.46473e-14
7.51471e-14
7.56301e-14
7.60936e-14
7.65415e-14
7.69708e-14
7.73851e-14
7.77816e-14
7.81622e-14
7.85246e-14
7.88625e-14
7.91919e-14
7.96389e-14
0.0015717
0.00194376
0.00217111
0.00226816
0.00230333
0.00235835
0.00230321
0.00204088
0.00173044
0.00128875
0.000470479
0.000356688
0.000592223
0.000887069
0.00106873
0.00124472
0.00122705
0.00100286
0.000564006
0.000435093
0.000626717
0.000845204
0.000716919
0.000540436
0.000498812
0.000728714
0.000987532
0.00107426
0.00104948
0.00104629
0.00101323
0.0010369
0.00102524
0.00088825
0.000754136
0.000726889
0.000718449
0.000688176
0.000591952
0.000422673
0.000313908
0.000322427
0.00041993
0.000559624
0.000685705
0.000757492
0.00078029
0.000779293
0.000756804
0.000696295
0.000589421
0.000417958
0.00016085
0.000112333
0.000155058
0.0002118
0.000220123
0.000204892
0.000166322
0.000107122
5.64471e-05
2.19941e-05
6.03547e-06
1.48641e-06
2.79754e-07
4.93104e-08
8.68892e-09
1.49471e-09
2.38816e-10
3.64109e-11
5.77673e-12
1.48542e-12
1.01684e-12
1.05072e-12
1.18909e-12
1.3652e-12
1.53263e-12
1.69896e-12
1.86953e-12
2.04569e-12
2.22684e-12
2.4124e-12
2.60229e-12
2.79644e-12
2.99454e-12
3.19637e-12
3.40153e-12
3.6096e-12
3.82023e-12
4.03317e-12
4.24813e-12
4.46478e-12
4.68272e-12
4.90158e-12
5.12097e-12
5.34065e-12
5.56027e-12
5.77962e-12
5.99836e-12
6.21628e-12
6.43304e-12
6.6485e-12
6.86231e-12
7.07436e-12
7.2843e-12
7.49205e-12
7.6973e-12
7.89996e-12
8.09978e-12
8.29666e-12
8.49041e-12
8.68092e-12
8.86806e-12
9.05172e-12
9.23182e-12
9.40824e-12
9.58096e-12
9.74983e-12
9.91492e-12
1.0076e-11
1.02333e-11
1.03865e-11
1.0536e-11
1.06813e-11
1.08228e-11
1.09602e-11
1.10938e-11
1.12234e-11
1.13493e-11
1.14712e-11
1.15895e-11
1.17039e-11
1.18147e-11
1.19219e-11
1.20255e-11
1.21257e-11
1.22223e-11
1.23157e-11
1.24056e-11
1.24926e-11
1.25761e-11
1.26569e-11
1.27344e-11
1.28092e-11
1.28809e-11
1.29497e-11
1.30153e-11
1.30765e-11
1.31362e-11
1.32177e-11
0.00388157
0.00474852
0.00531164
0.00552517
0.00556667
0.00569401
0.00558134
0.00503296
0.00429237
0.00324386
0.00125448
0.000988109
0.00142208
0.0020561
0.00252128
0.00299579
0.00303388
0.00256633
0.00160058
0.00132442
0.00165985
0.00208191
0.00185699
0.00144955
0.000959946
0.00152518
0.00227989
0.00262474
0.00261417
0.0025959
0.00250249
0.00258012
0.00257305
0.00224335
0.00193318
0.00188217
0.00188344
0.00184512
0.00166674
0.001305
0.000999998
0.000976379
0.00113769
0.00144658
0.00175496
0.00193793
0.00199602
0.00199402
0.00193699
0.00178375
0.00152074
0.00113638
0.000566848
0.000367068
0.000421828
0.000518673
0.000544184
0.000509549
0.000421914
0.000294027
0.000193016
9.99668e-05
3.43777e-05
9.33394e-06
2.18108e-06
4.49374e-07
9.2761e-08
1.81907e-08
3.19754e-09
5.24848e-10
8.94642e-11
2.54277e-11
1.85085e-11
1.93678e-11
2.20571e-11
2.53856e-11
2.85565e-11
3.17274e-11
3.49888e-11
3.83631e-11
4.1839e-11
4.54064e-11
4.90642e-11
5.28108e-11
5.66411e-11
6.05504e-11
6.45309e-11
6.85744e-11
7.26744e-11
7.68259e-11
8.10234e-11
8.52603e-11
8.95287e-11
9.38213e-11
9.81301e-11
1.0245e-10
1.06775e-10
1.111e-10
1.15419e-10
1.19726e-10
1.24015e-10
1.28284e-10
1.32525e-10
1.36735e-10
1.40907e-10
1.45041e-10
1.49128e-10
1.53168e-10
1.57155e-10
1.61086e-10
1.64959e-10
1.6877e-10
1.72516e-10
1.76196e-10
1.79807e-10
1.83347e-10
1.86815e-10
1.90209e-10
1.93528e-10
1.96769e-10
1.99936e-10
2.03022e-10
2.06034e-10
2.08964e-10
2.11819e-10
2.14592e-10
2.17291e-10
2.1991e-10
2.22454e-10
2.2492e-10
2.27312e-10
2.29628e-10
2.31871e-10
2.34043e-10
2.36141e-10
2.38172e-10
2.4013e-10
2.42025e-10
2.43849e-10
2.45614e-10
2.47309e-10
2.48949e-10
2.50523e-10
2.52043e-10
2.53499e-10
2.54898e-10
2.56232e-10
2.57474e-10
2.5869e-10
2.60346e-10
0.00644372
0.00768151
0.00862105
0.00895668
0.00905317
0.00920255
0.00905851
0.00818867
0.00702358
0.00550115
0.00224887
0.00160558
0.00200487
0.00309797
0.00405671
0.00497409
0.00497699
0.00411931
0.0027472
0.0023245
0.00253002
0.00310895
0.0029841
0.00232722
0.00108893
0.00211091
0.00335783
0.00413894
0.00433844
0.00431908
0.00415604
0.00430835
0.00431004
0.0036994
0.00308905
0.00296831
0.00298925
0.00300497
0.00285446
0.00243004
0.00201687
0.00197413
0.00216425
0.00254381
0.00299594
0.00330064
0.00339621
0.00339046
0.00329142
0.00303231
0.0025921
0.00195282
0.00115116
0.00080786
0.00087877
0.00116475
0.00131526
0.0012297
0.000982729
0.000673543
0.00045567
0.000223631
8.16057e-05
2.36516e-05
5.92898e-06
1.48819e-06
3.71208e-07
8.22661e-08
1.56932e-08
2.73342e-09
4.95723e-10
1.55927e-10
1.20765e-10
1.28069e-10
1.46784e-10
1.69208e-10
1.90607e-10
2.12172e-10
2.34416e-10
2.57465e-10
2.81242e-10
3.05687e-10
3.30794e-10
3.56554e-10
3.82936e-10
4.09905e-10
4.37405e-10
4.65379e-10
4.93784e-10
5.22586e-10
5.51746e-10
5.81219e-10
6.10945e-10
6.40873e-10
6.70953e-10
7.01147e-10
7.31407e-10
7.617e-10
7.91977e-10
8.22206e-10
8.5234e-10
8.82355e-10
9.12201e-10
9.41857e-10
9.71276e-10
1.00044e-09
1.0293e-09
1.05785e-09
1.08605e-09
1.11387e-09
1.1413e-09
1.16831e-09
1.19487e-09
1.22098e-09
1.24662e-09
1.27177e-09
1.29642e-09
1.32055e-09
1.34416e-09
1.36723e-09
1.38979e-09
1.41178e-09
1.43324e-09
1.45413e-09
1.4745e-09
1.49429e-09
1.51356e-09
1.53226e-09
1.55043e-09
1.56805e-09
1.58515e-09
1.60171e-09
1.61776e-09
1.63329e-09
1.6483e-09
1.66284e-09
1.67686e-09
1.69043e-09
1.70349e-09
1.71613e-09
1.72829e-09
1.74003e-09
1.75132e-09
1.76221e-09
1.77266e-09
1.78269e-09
1.79225e-09
1.80116e-09
1.8099e-09
1.82177e-09
0.00899813
0.0101904
0.0121365
0.0129929
0.0132049
0.0134393
0.0131988
0.0118916
0.0101974
0.00818746
0.00354464
0.00211967
0.00255772
0.00461312
0.00618239
0.00757012
0.00744242
0.00598774
0.0034209
0.00246749
0.00265149
0.003481
0.00410816
0.00327633
0.00156953
0.00329309
0.00472971
0.00555448
0.00602565
0.00611539
0.00593799
0.00619891
0.0061531
0.00496306
0.00378857
0.00360917
0.00366954
0.00391578
0.00391131
0.00357525
0.00319032
0.00314891
0.00337853
0.00382728
0.00440291
0.00483603
0.00497925
0.00497015
0.00481623
0.00442402
0.00376594
0.00285295
0.00182625
0.00145612
0.00165753
0.00216008
0.00239623
0.0022606
0.00183059
0.00124765
0.000808404
0.000464352
0.000181028
4.6342e-05
1.30094e-05
3.66651e-06
1.07138e-06
2.55758e-07
5.07276e-08
9.02917e-09
1.68738e-09
5.72656e-10
4.65809e-10
4.9971e-10
5.75638e-10
6.63756e-10
7.47985e-10
8.33464e-10
9.21812e-10
1.01338e-09
1.10791e-09
1.20516e-09
1.30513e-09
1.40778e-09
1.51299e-09
1.62061e-09
1.73041e-09
1.84215e-09
1.95568e-09
2.07084e-09
2.18747e-09
2.30538e-09
2.42435e-09
2.54417e-09
2.66464e-09
2.78559e-09
2.90682e-09
3.02821e-09
3.14955e-09
3.27072e-09
3.39152e-09
3.51184e-09
3.6315e-09
3.7504e-09
3.86835e-09
3.98528e-09
4.10101e-09
4.21546e-09
4.3285e-09
4.44004e-09
4.54997e-09
4.65823e-09
4.76471e-09
4.86935e-09
4.97208e-09
5.07283e-09
5.17158e-09
5.26824e-09
5.36283e-09
5.45522e-09
5.54552e-09
5.63356e-09
5.71948e-09
5.8031e-09
5.8846e-09
5.9638e-09
6.04088e-09
6.11567e-09
6.18836e-09
6.25882e-09
6.32719e-09
6.39341e-09
6.45754e-09
6.51962e-09
6.57962e-09
6.63769e-09
6.69371e-09
6.74792e-09
6.80011e-09
6.85059e-09
6.89911e-09
6.94602e-09
6.99107e-09
7.03456e-09
7.07625e-09
7.11628e-09
7.15447e-09
7.19e-09
7.22489e-09
7.27223e-09
0.00980166
0.0109038
0.013927
0.0165279
0.0172018
0.0175723
0.0172985
0.0155971
0.0133408
0.0109309
0.00489672
0.00237797
0.00351365
0.00678156
0.00865507
0.0103129
0.0101355
0.00830422
0.00416805
0.0019022
0.00206438
0.00313167
0.00421615
0.00338995
0.00248091
0.00544805
0.00688788
0.00690451
0.0072503
0.00740644
0.00741916
0.00792379
0.00776265
0.00573338
0.00390577
0.00367854
0.00393061
0.0044074
0.00457593
0.00452695
0.00439848
0.00437667
0.00466081
0.00517954
0.0058738
0.00642429
0.00659401
0.00657013
0.00636111
0.00585342
0.00498558
0.00377041
0.00252331
0.00219549
0.00254785
0.00324498
0.0035432
0.00335572
0.00273815
0.00183624
0.00112308
0.00067117
0.000372962
0.000127619
3.39268e-05
9.75739e-06
2.88772e-06
6.7411e-07
1.30591e-07
2.27634e-08
4.26544e-09
1.54623e-09
1.31556e-09
1.42699e-09
1.65053e-09
1.90102e-09
2.14102e-09
2.38605e-09
2.63947e-09
2.90188e-09
3.17258e-09
3.45099e-09
3.73707e-09
4.03071e-09
4.33153e-09
4.63907e-09
4.95263e-09
5.27145e-09
5.59509e-09
5.92316e-09
6.25516e-09
6.59053e-09
6.92859e-09
7.26877e-09
7.61046e-09
7.95318e-09
8.29638e-09
8.63965e-09
8.98245e-09
9.32438e-09
9.66492e-09
1.00038e-08
1.03403e-08
1.06744e-08
1.10055e-08
1.13333e-08
1.16575e-08
1.19777e-08
1.22936e-08
1.2605e-08
1.29115e-08
1.32131e-08
1.35094e-08
1.38003e-08
1.40856e-08
1.43651e-08
1.46388e-08
1.49064e-08
1.51681e-08
1.54234e-08
1.56727e-08
1.59156e-08
1.61524e-08
1.63827e-08
1.66069e-08
1.68246e-08
1.70364e-08
1.72417e-08
1.7441e-08
1.76341e-08
1.78214e-08
1.80026e-08
1.8178e-08
1.83476e-08
1.85115e-08
1.867e-08
1.88229e-08
1.89706e-08
1.91128e-08
1.92503e-08
1.93824e-08
1.951e-08
1.96325e-08
1.97507e-08
1.98639e-08
1.99726e-08
2.00763e-08
2.01727e-08
2.02674e-08
2.03956e-08
0.0087589
0.0108078
0.0144052
0.0186735
0.0215777
0.022295
0.0218495
0.0196822
0.0168596
0.0139425
0.00627546
0.00266068
0.00487219
0.00904236
0.0111768
0.0130948
0.0128137
0.0106309
0.00585054
0.00237684
0.00208987
0.00264682
0.00381176
0.00296959
0.00313487
0.00793576
0.00959547
0.00881614
0.00823419
0.00807626
0.00814001
0.00916624
0.0090047
0.00647201
0.0044383
0.0044687
0.0050626
0.00557527
0.00567326
0.00552365
0.00550268
0.00555745
0.00595786
0.00658814
0.00740492
0.0080209
0.00816735
0.00811227
0.00784275
0.00725512
0.00623083
0.00474185
0.00326536
0.00295465
0.00345614
0.00434105
0.00470151
0.00445564
0.0036579
0.00247584
0.00143705
0.000758322
0.000505022
0.000257753
7.77885e-05
2.27227e-05
6.43628e-06
1.42541e-06
2.65487e-07
4.4911e-08
8.46071e-09
3.36914e-09
3.0245e-09
3.32159e-09
3.85539e-09
4.42876e-09
4.98077e-09
5.54686e-09
6.13181e-09
6.73606e-09
7.35807e-09
7.9967e-09
8.65177e-09
9.32295e-09
1.00092e-08
1.07092e-08
1.14212e-08
1.21437e-08
1.28756e-08
1.36158e-08
1.43632e-08
1.51163e-08
1.58737e-08
1.6634e-08
1.73958e-08
1.8158e-08
1.89195e-08
1.96792e-08
2.0436e-08
2.11891e-08
2.19372e-08
2.26797e-08
2.34155e-08
2.4144e-08
2.48641e-08
2.55755e-08
2.62771e-08
2.69686e-08
2.76491e-08
2.83184e-08
2.89757e-08
2.9621e-08
3.02535e-08
3.08732e-08
3.14796e-08
3.20725e-08
3.26519e-08
3.32173e-08
3.3769e-08
3.43064e-08
3.48301e-08
3.53394e-08
3.5835e-08
3.63162e-08
3.6784e-08
3.72374e-08
3.76777e-08
3.8104e-08
3.85173e-08
3.8917e-08
3.93041e-08
3.96782e-08
4.00397e-08
4.03891e-08
4.07261e-08
4.10516e-08
4.13651e-08
4.16679e-08
4.19589e-08
4.224e-08
4.25097e-08
4.27702e-08
4.30199e-08
4.32606e-08
4.3491e-08
4.3712e-08
4.39226e-08
4.41184e-08
4.43104e-08
4.45701e-08
0.00736298
0.0121764
0.0143176
0.0184092
0.0243143
0.0265242
0.0262486
0.02365
0.0202208
0.0168289
0.00729377
0.00303722
0.00638411
0.0111826
0.0135179
0.0156547
0.0153104
0.0127375
0.0077616
0.00423517
0.00383093
0.00256793
0.00325919
0.00235769
0.00373353
0.0103006
0.0122405
0.0113515
0.00979722
0.00862158
0.00779455
0.00921326
0.00921407
0.00684734
0.00568262
0.00634464
0.00706132
0.00756598
0.00742461
0.00669198
0.00646436
0.0066435
0.00719781
0.00792855
0.00877276
0.00937085
0.00954428
0.0094686
0.00911983
0.00841084
0.00733053
0.00568581
0.00401789
0.00371506
0.0043651
0.00541604
0.00582495
0.00551794
0.0045573
0.00316522
0.00186773
0.000814772
0.000506535
0.000336355
0.00013275
4.0763e-05
1.09495e-05
2.28315e-06
4.03283e-07
6.63287e-08
1.33075e-08
6.28797e-09
6.01853e-09
6.69762e-09
7.79157e-09
8.91362e-09
1.00035e-08
1.11221e-08
1.22756e-08
1.34622e-08
1.46786e-08
1.59235e-08
1.71963e-08
1.84957e-08
1.98194e-08
2.11644e-08
2.25272e-08
2.39046e-08
2.52945e-08
2.66945e-08
2.81022e-08
2.9515e-08
3.09298e-08
3.2344e-08
3.37552e-08
3.51612e-08
3.65599e-08
3.79496e-08
3.93283e-08
4.06944e-08
4.20461e-08
4.33823e-08
4.47011e-08
4.60017e-08
4.72822e-08
4.8542e-08
4.97796e-08
5.09945e-08
5.21856e-08
5.33526e-08
5.44944e-08
5.56111e-08
5.67019e-08
5.77667e-08
5.88052e-08
5.98173e-08
6.08029e-08
6.17617e-08
6.26944e-08
6.36002e-08
6.44803e-08
6.53337e-08
6.6162e-08
6.6964e-08
6.77417e-08
6.84937e-08
6.92221e-08
6.99256e-08
7.06063e-08
7.12632e-08
7.1898e-08
7.25104e-08
7.31011e-08
7.36708e-08
7.42193e-08
7.47482e-08
7.52565e-08
7.57467e-08
7.62169e-08
7.66704e-08
7.71049e-08
7.75238e-08
7.79247e-08
7.83108e-08
7.86798e-08
7.90333e-08
7.93696e-08
7.96822e-08
7.9988e-08
8.04015e-08
0.00806497
0.0166675
0.0165155
0.0175722
0.0247731
0.0285967
0.0299256
0.0278576
0.0239149
0.0199069
0.00793589
0.00363817
0.00799948
0.013326
0.0160178
0.0184876
0.0181357
0.0148753
0.00965724
0.00644664
0.00657648
0.00370131
0.00288123
0.00172546
0.00463655
0.0126297
0.0148715
0.0141088
0.012409
0.0103457
0.00792434
0.00862628
0.00875743
0.00668193
0.00678867
0.00811905
0.0087911
0.00926481
0.00880904
0.00752076
0.00737968
0.00770968
0.00836603
0.00911
0.0100393
0.0107882
0.0111647
0.0111126
0.0106143
0.00954672
0.00825257
0.00654996
0.00480628
0.0044926
0.00527415
0.00642305
0.00682638
0.00645655
0.00536832
0.00381274
0.00241394
0.00097076
0.000432362
0.000310128
0.000175806
5.76062e-05
1.4089e-05
2.75642e-06
4.72286e-07
7.91296e-08
1.84133e-08
1.06998e-08
1.07917e-08
1.21405e-08
1.41185e-08
1.60736e-08
1.79873e-08
1.99458e-08
2.19557e-08
2.4012e-08
2.61091e-08
2.82439e-08
3.04148e-08
3.26187e-08
3.48509e-08
3.7106e-08
3.93773e-08
4.16596e-08
4.39485e-08
4.62405e-08
4.85311e-08
5.08161e-08
5.30905e-08
5.535e-08
5.75904e-08
5.98087e-08
6.20016e-08
6.4167e-08
6.6302e-08
6.8405e-08
7.04735e-08
7.25067e-08
7.45022e-08
7.64598e-08
7.83775e-08
8.02557e-08
8.20909e-08
8.38823e-08
8.56287e-08
8.73305e-08
8.89867e-08
9.05979e-08
9.21637e-08
9.36846e-08
9.51607e-08
9.65923e-08
9.79801e-08
9.93242e-08
1.00626e-07
1.01885e-07
1.03103e-07
1.04279e-07
1.05416e-07
1.06513e-07
1.07573e-07
1.08594e-07
1.09579e-07
1.10528e-07
1.11443e-07
1.12323e-07
1.13171e-07
1.13987e-07
1.14771e-07
1.15525e-07
1.1625e-07
1.16947e-07
1.17616e-07
1.1826e-07
1.18876e-07
1.1947e-07
1.20037e-07
1.20583e-07
1.21105e-07
1.21607e-07
1.22086e-07
1.22545e-07
1.2298e-07
1.23384e-07
1.23779e-07
1.24313e-07
0.0107619
0.0212437
0.0215678
0.0171656
0.0234739
0.0277241
0.0303431
0.0308987
0.0273841
0.0228081
0.00825031
0.00437406
0.00958603
0.01542
0.0186062
0.0215482
0.0211973
0.0170315
0.0114283
0.00838091
0.00898646
0.00575056
0.00238116
0.00147015
0.00596103
0.0148446
0.0172283
0.0165943
0.0149899
0.0129054
0.00941673
0.00849154
0.00868139
0.00708061
0.00799595
0.00943999
0.0100506
0.0104681
0.00966291
0.00772786
0.00808094
0.00869089
0.00939054
0.0101501
0.0113687
0.0125691
0.0132314
0.01321
0.0125574
0.0110026
0.00914266
0.00726015
0.00557627
0.00527615
0.00618695
0.0074526
0.00775271
0.00723765
0.00597417
0.00428632
0.00292625
0.00130033
0.000394216
0.000218821
0.000132108
5.14949e-05
1.30147e-05
2.59183e-06
4.61087e-07
8.50232e-08
2.47168e-08
1.71966e-08
1.78845e-08
2.0245e-08
2.34658e-08
2.65778e-08
2.96294e-08
3.27338e-08
3.58972e-08
3.91105e-08
4.23635e-08
4.56501e-08
4.89669e-08
5.2308e-08
5.56655e-08
5.90306e-08
6.23925e-08
6.57426e-08
6.90744e-08
7.23828e-08
7.56625e-08
7.89082e-08
8.21147e-08
8.52783e-08
8.83927e-08
9.14495e-08
9.44448e-08
9.73767e-08
1.00242e-07
1.0304e-07
1.05769e-07
1.08427e-07
1.11013e-07
1.13528e-07
1.15969e-07
1.18338e-07
1.20635e-07
1.22863e-07
1.25021e-07
1.27112e-07
1.29135e-07
1.31093e-07
1.32984e-07
1.34812e-07
1.36577e-07
1.3828e-07
1.39924e-07
1.41508e-07
1.43036e-07
1.44506e-07
1.45924e-07
1.47287e-07
1.486e-07
1.49862e-07
1.51077e-07
1.52244e-07
1.53366e-07
1.54443e-07
1.55479e-07
1.56473e-07
1.57427e-07
1.58343e-07
1.59221e-07
1.60064e-07
1.60872e-07
1.61647e-07
1.62389e-07
1.63101e-07
1.63782e-07
1.64436e-07
1.6506e-07
1.6566e-07
1.66232e-07
1.66782e-07
1.67304e-07
1.67805e-07
1.68278e-07
1.68719e-07
1.69145e-07
1.69726e-07
0.0134436
0.0259342
0.0265896
0.0194257
0.0217258
0.026267
0.0291385
0.031861
0.030531
0.0257002
0.00864738
0.00517759
0.0112364
0.0175792
0.0211141
0.0244689
0.024202
0.0191684
0.0130953
0.0102007
0.010711
0.00792673
0.00252583
0.00215568
0.00769626
0.0168342
0.0187625
0.0179519
0.016804
0.014978
0.0114837
0.00972204
0.00999905
0.00888908
0.0100368
0.0111122
0.0116524
0.0120549
0.0110554
0.00806307
0.00844868
0.00932139
0.0101036
0.0111683
0.0129883
0.014718
0.0155801
0.0155608
0.0148164
0.0128799
0.0102503
0.00793434
0.00631756
0.00607381
0.00712232
0.00860714
0.00888337
0.00811341
0.00645316
0.00450746
0.00326904
0.00167183
0.000484893
0.000147523
5.69059e-05
2.48906e-05
8.07242e-06
1.98801e-06
4.34837e-07
9.70646e-08
3.44378e-08
2.64746e-08
2.785e-08
3.15142e-08
3.63316e-08
4.09233e-08
4.54025e-08
4.9919e-08
5.44785e-08
5.9066e-08
6.36657e-08
6.82674e-08
7.28644e-08
7.74477e-08
8.20073e-08
8.65336e-08
9.10164e-08
9.54407e-08
9.97892e-08
1.04055e-07
1.08232e-07
1.12311e-07
1.16288e-07
1.20155e-07
1.2391e-07
1.27559e-07
1.311e-07
1.34535e-07
1.37861e-07
1.41081e-07
1.44193e-07
1.47202e-07
1.50107e-07
1.52911e-07
1.55614e-07
1.58221e-07
1.60732e-07
1.6315e-07
1.65478e-07
1.67718e-07
1.69871e-07
1.71942e-07
1.73931e-07
1.75843e-07
1.77678e-07
1.7944e-07
1.81131e-07
1.82753e-07
1.84309e-07
1.85801e-07
1.87232e-07
1.88603e-07
1.89918e-07
1.91176e-07
1.92383e-07
1.93538e-07
1.94645e-07
1.95703e-07
1.96718e-07
1.97688e-07
1.98617e-07
1.99506e-07
2.00356e-07
2.0117e-07
2.01948e-07
2.02692e-07
2.03403e-07
2.04084e-07
2.04733e-07
2.05356e-07
2.05948e-07
2.06517e-07
2.07058e-07
2.07577e-07
2.08069e-07
2.0854e-07
2.08985e-07
2.09399e-07
2.09797e-07
2.10343e-07
0.0160225
0.0298899
0.0284606
0.0237146
0.020269
0.0243268
0.0271422
0.030284
0.0318831
0.0280539
0.00926561
0.00614732
0.0128734
0.0195095
0.0231377
0.0269276
0.0267734
0.0212728
0.0138819
0.0110809
0.0112954
0.00979492
0.00404317
0.00396225
0.00954995
0.0180438
0.0183094
0.0172613
0.0165331
0.0153778
0.0131679
0.0120228
0.0126419
0.0114684
0.0122534
0.0131378
0.0136565
0.0141279
0.0130896
0.00908505
0.00851119
0.00942047
0.0103861
0.0121492
0.0148701
0.0170145
0.0179524
0.0179163
0.0170832
0.0148963
0.0115848
0.00860884
0.00699742
0.00687261
0.00807709
0.00981621
0.0102153
0.00926009
0.00702804
0.00462088
0.00335692
0.00196432
0.00067907
0.000173547
4.87442e-05
1.88579e-05
7.45631e-06
2.15051e-06
5.20158e-07
1.27895e-07
4.94525e-08
3.90825e-08
4.11217e-08
4.62755e-08
5.29869e-08
5.93129e-08
6.5419e-08
7.15048e-08
7.75756e-08
8.36101e-08
8.95911e-08
9.55112e-08
1.01358e-07
1.071e-07
1.12722e-07
1.18205e-07
1.23533e-07
1.287e-07
1.33711e-07
1.38566e-07
1.43263e-07
1.47799e-07
1.52173e-07
1.56387e-07
1.60442e-07
1.64342e-07
1.68088e-07
1.71686e-07
1.75137e-07
1.78447e-07
1.81619e-07
1.84659e-07
1.87568e-07
1.90354e-07
1.93019e-07
1.95569e-07
1.98007e-07
2.00338e-07
2.02565e-07
2.04694e-07
2.06727e-07
2.0867e-07
2.10525e-07
2.12296e-07
2.13988e-07
2.15603e-07
2.17144e-07
2.18616e-07
2.20021e-07
2.21361e-07
2.22641e-07
2.23861e-07
2.25027e-07
2.26139e-07
2.272e-07
2.28212e-07
2.29179e-07
2.301e-07
2.3098e-07
2.31819e-07
2.3262e-07
2.33384e-07
2.34113e-07
2.34809e-07
2.35472e-07
2.36105e-07
2.36708e-07
2.37285e-07
2.37833e-07
2.38358e-07
2.38857e-07
2.39334e-07
2.39788e-07
2.40222e-07
2.40634e-07
2.41027e-07
2.41396e-07
2.41743e-07
2.42071e-07
2.42527e-07
0.0183675
0.0314891
0.0277773
0.0271342
0.0212089
0.0226478
0.0248282
0.0277494
0.0317724
0.0292956
0.00999191
0.00735131
0.0145271
0.020838
0.0243829
0.0287957
0.0286643
0.0233147
0.0141691
0.0110928
0.0115395
0.0119778
0.00680288
0.00652718
0.0112923
0.0178979
0.0162745
0.0155817
0.0150855
0.0143098
0.0138717
0.0146416
0.0159153
0.0142944
0.0143664
0.0149747
0.0154546
0.0160467
0.0150425
0.0104564
0.00871858
0.00932
0.0105909
0.0133633
0.0169654
0.0193785
0.0203608
0.0203105
0.0193866
0.0169651
0.0130821
0.00932797
0.00765864
0.00767484
0.00905058
0.0110361
0.0115486
0.0105223
0.00783449
0.00475967
0.00325726
0.00211073
0.000892413
0.000265311
7.80535e-05
2.86491e-05
1.00514e-05
2.85066e-06
7.09141e-07
1.79916e-07
7.03817e-08
5.52638e-08
5.78811e-08
6.46134e-08
7.33851e-08
8.15541e-08
8.93322e-08
9.69853e-08
1.04521e-07
1.11881e-07
1.19029e-07
1.2594e-07
1.32615e-07
1.39064e-07
1.45283e-07
1.51265e-07
1.57008e-07
1.62512e-07
1.67781e-07
1.72822e-07
1.77637e-07
1.82233e-07
1.86613e-07
1.90786e-07
1.94755e-07
1.98532e-07
2.02121e-07
2.05532e-07
2.08772e-07
2.1185e-07
2.14771e-07
2.17546e-07
2.20178e-07
2.22677e-07
2.25048e-07
2.27299e-07
2.29434e-07
2.31462e-07
2.33385e-07
2.3521e-07
2.36943e-07
2.38587e-07
2.40148e-07
2.41631e-07
2.43038e-07
2.44374e-07
2.45643e-07
2.46849e-07
2.47994e-07
2.49082e-07
2.50117e-07
2.51099e-07
2.52033e-07
2.5292e-07
2.53765e-07
2.54567e-07
2.55331e-07
2.56056e-07
2.56747e-07
2.57404e-07
2.5803e-07
2.58624e-07
2.5919e-07
2.59729e-07
2.60241e-07
2.6073e-07
2.61194e-07
2.61637e-07
2.62056e-07
2.62458e-07
2.62839e-07
2.63203e-07
2.63548e-07
2.63878e-07
2.6419e-07
2.64488e-07
2.64767e-07
2.65031e-07
2.65275e-07
2.65624e-07
0.0201311
0.0297251
0.0260407
0.0274565
0.0241938
0.0228512
0.0223658
0.0245417
0.0292404
0.0282759
0.0102081
0.00865965
0.0161104
0.0211776
0.0248345
0.0300497
0.0298299
0.0247226
0.015102
0.011144
0.0123957
0.0147501
0.00982005
0.00908272
0.0124299
0.0166902
0.0147547
0.0139902
0.0132977
0.0124984
0.0131954
0.0167063
0.0191598
0.0168394
0.0158846
0.016028
0.0164389
0.0172417
0.0166741
0.0118598
0.00946019
0.00960602
0.0112372
0.0149534
0.0191859
0.0217458
0.0227723
0.0227062
0.021688
0.0190376
0.0146777
0.010101
0.00830344
0.00847022
0.010034
0.0122595
0.0128743
0.0117971
0.00884579
0.00510481
0.003083
0.00208981
0.00106006
0.000370591
0.00012749
4.63145e-05
1.46804e-05
4.02643e-06
9.94451e-07
2.50841e-07
9.67682e-08
7.49869e-08
7.80986e-08
8.64089e-08
9.72087e-08
1.07098e-07
1.16353e-07
1.25262e-07
1.33793e-07
1.41949e-07
1.49727e-07
1.57133e-07
1.64185e-07
1.70891e-07
1.77258e-07
1.83295e-07
1.89005e-07
1.944e-07
1.99493e-07
2.04298e-07
2.08829e-07
2.13098e-07
2.17117e-07
2.20898e-07
2.24454e-07
2.27799e-07
2.30942e-07
2.33898e-07
2.36677e-07
2.3929e-07
2.41748e-07
2.44061e-07
2.46237e-07
2.48286e-07
2.50214e-07
2.52031e-07
2.53742e-07
2.55355e-07
2.56874e-07
2.58309e-07
2.5966e-07
2.60937e-07
2.62141e-07
2.63278e-07
2.64353e-07
2.65368e-07
2.66328e-07
2.67235e-07
2.68094e-07
2.68906e-07
2.69676e-07
2.70403e-07
2.71093e-07
2.71746e-07
2.72366e-07
2.72952e-07
2.73509e-07
2.74036e-07
2.74537e-07
2.75012e-07
2.75464e-07
2.75892e-07
2.76299e-07
2.76685e-07
2.77051e-07
2.774e-07
2.77731e-07
2.78046e-07
2.78344e-07
2.7863e-07
2.78899e-07
2.79157e-07
2.794e-07
2.79633e-07
2.79853e-07
2.80063e-07
2.80259e-07
2.80446e-07
2.80613e-07
2.80864e-07
0.0226291
0.0249141
0.0226992
0.0256372
0.0293019
0.0279656
0.0210786
0.0197181
0.023948
0.0238156
0.0101206
0.0105653
0.018295
0.0208599
0.0251066
0.0314525
0.0310917
0.0258371
0.0175376
0.0124867
0.0152883
0.0195926
0.0140904
0.0126375
0.0133425
0.0156729
0.0156459
0.013806
0.011271
0.00949243
0.0112863
0.0189247
0.0237141
0.0200082
0.0166651
0.015861
0.01611
0.0171816
0.0177505
0.0136034
0.0111444
0.0109573
0.0130543
0.0178524
0.0227303
0.0254498
0.026543
0.0264503
0.0252787
0.0222725
0.0172744
0.0114332
0.00931408
0.00968472
0.0115181
0.0140668
0.0148151
0.0136891
0.0104479
0.00605211
0.00292847
0.00192703
0.00119849
0.000492707
0.000189299
7.12874e-05
2.28666e-05
6.30799e-06
1.54412e-06
3.81228e-07
1.44472e-07
1.11028e-07
1.14893e-07
1.25585e-07
1.39033e-07
1.50741e-07
1.61264e-07
1.71e-07
1.80059e-07
1.88464e-07
1.96257e-07
2.03474e-07
2.10162e-07
2.16357e-07
2.22089e-07
2.27388e-07
2.32281e-07
2.36796e-07
2.40962e-07
2.44808e-07
2.48358e-07
2.51634e-07
2.54659e-07
2.57452e-07
2.60033e-07
2.62419e-07
2.64626e-07
2.66671e-07
2.68565e-07
2.70322e-07
2.71951e-07
2.73464e-07
2.74869e-07
2.76176e-07
2.7739e-07
2.78522e-07
2.79576e-07
2.8056e-07
2.81477e-07
2.82336e-07
2.83137e-07
2.83887e-07
2.84589e-07
2.85248e-07
2.85864e-07
2.86443e-07
2.86987e-07
2.87497e-07
2.87978e-07
2.8843e-07
2.88856e-07
2.89257e-07
2.89635e-07
2.89991e-07
2.90328e-07
2.90645e-07
2.90945e-07
2.91228e-07
2.91496e-07
2.91749e-07
2.91989e-07
2.92216e-07
2.92431e-07
2.92635e-07
2.92828e-07
2.93011e-07
2.93184e-07
2.93349e-07
2.93505e-07
2.93654e-07
2.93794e-07
2.93928e-07
2.94053e-07
2.94175e-07
2.94288e-07
2.94398e-07
2.94498e-07
2.94597e-07
2.94677e-07
2.94816e-07
0.0264799
0.0202491
0.0205989
0.0218623
0.0317426
0.0375482
0.0281528
0.0161961
0.0166041
0.0162901
0.0103861
0.012751
0.0193727
0.0210238
0.0277138
0.0353022
0.0349027
0.0273924
0.0209561
0.0167377
0.0197237
0.0244312
0.0188077
0.0169429
0.0149831
0.018558
0.0209117
0.0194569
0.0136696
0.00847802
0.0112616
0.0216119
0.0279997
0.0214002
0.0134171
0.0114294
0.0113148
0.012202
0.01338
0.0137018
0.0138219
0.0138706
0.0164333
0.0220651
0.0273957
0.0302605
0.0314429
0.0313115
0.029934
0.0264505
0.0207814
0.0134352
0.0105645
0.0111161
0.0131299
0.0158182
0.0166855
0.0157011
0.0123356
0.00763508
0.00339689
0.00169182
0.00113287
0.00059107
0.000245813
9.66148e-05
3.17087e-05
8.6095e-06
2.02773e-06
4.97758e-07
2.01793e-07
1.62297e-07
1.67219e-07
1.79105e-07
1.9289e-07
2.04263e-07
2.14137e-07
2.22924e-07
2.30781e-07
2.37795e-07
2.44058e-07
2.4965e-07
2.5465e-07
2.59123e-07
2.63126e-07
2.66712e-07
2.69922e-07
2.728e-07
2.75382e-07
2.77703e-07
2.7979e-07
2.81668e-07
2.83361e-07
2.84885e-07
2.8626e-07
2.87501e-07
2.88618e-07
2.89633e-07
2.90543e-07
2.91374e-07
2.92124e-07
2.92813e-07
2.93437e-07
2.94012e-07
2.94535e-07
2.95018e-07
2.9546e-07
2.95868e-07
2.96244e-07
2.96589e-07
2.96911e-07
2.97207e-07
2.97483e-07
2.97739e-07
2.97978e-07
2.98199e-07
2.98407e-07
2.986e-07
2.9878e-07
2.98948e-07
2.99104e-07
2.99251e-07
2.99388e-07
2.99519e-07
2.99644e-07
2.99761e-07
2.99872e-07
2.99977e-07
3.00075e-07
3.00168e-07
3.00256e-07
3.0034e-07
3.00418e-07
3.00493e-07
3.00563e-07
3.0063e-07
3.00693e-07
3.00753e-07
3.00809e-07
3.00864e-07
3.00917e-07
3.00969e-07
3.01014e-07
3.01058e-07
3.01098e-07
3.01139e-07
3.01174e-07
3.01213e-07
3.01235e-07
3.01296e-07
0.0309627
0.0228146
0.0272656
0.0209915
0.0295967
0.0447797
0.0379132
0.0193835
0.0122599
0.0112927
0.0109853
0.0149773
0.0195405
0.0232586
0.0330707
0.0420041
0.0415726
0.0303569
0.0243141
0.0212934
0.0226111
0.0250892
0.0226083
0.0210781
0.0177338
0.0233451
0.0268976
0.0259678
0.0194912
0.0121798
0.0156912
0.0261804
0.031948
0.0224454
0.0102633
0.00789315
0.00801409
0.00861973
0.00930307
0.0123529
0.0151426
0.0166912
0.0200832
0.0264808
0.0321646
0.0351563
0.0364338
0.0362519
0.0346514
0.0306836
0.0243828
0.0157068
0.0114802
0.0119782
0.0140321
0.016766
0.0176921
0.0170402
0.0139845
0.00918084
0.00427614
0.0017001
0.000978264
0.0006179
0.000301595
0.000118539
3.76861e-05
9.79545e-06
2.22564e-06
5.52849e-07
2.48038e-07
2.10074e-07
2.15478e-07
2.26623e-07
2.38467e-07
2.47777e-07
2.55538e-07
2.62145e-07
2.67788e-07
2.72607e-07
2.76721e-07
2.8024e-07
2.83262e-07
2.85867e-07
2.88113e-07
2.90047e-07
2.91711e-07
2.93142e-07
2.94377e-07
2.95436e-07
2.96344e-07
2.97126e-07
2.97799e-07
2.98378e-07
2.98878e-07
2.99316e-07
2.99697e-07
3.00039e-07
3.00342e-07
3.0062e-07
3.00862e-07
3.0108e-07
3.01271e-07
3.01442e-07
3.01593e-07
3.0173e-07
3.0185e-07
3.01961e-07
3.02058e-07
3.02148e-07
3.02229e-07
3.02303e-07
3.0237e-07
3.02432e-07
3.02489e-07
3.02541e-07
3.0259e-07
3.02635e-07
3.02678e-07
3.02721e-07
3.02764e-07
3.02806e-07
3.02847e-07
3.02883e-07
3.02911e-07
3.02934e-07
3.02956e-07
3.02977e-07
3.02997e-07
3.03017e-07
3.03035e-07
3.03053e-07
3.03071e-07
3.03087e-07
3.03103e-07
3.03118e-07
3.03132e-07
3.03146e-07
3.03159e-07
3.03171e-07
3.03177e-07
3.03183e-07
3.03194e-07
3.03207e-07
3.03219e-07
3.03232e-07
3.03241e-07
3.03257e-07
3.03257e-07
3.03289e-07
0.0352836
0.0295098
0.0393646
0.0299986
0.0248617
0.0446793
0.0451686
0.0245273
0.0114124
0.00803487
0.0105489
0.0171616
0.0197956
0.026384
0.0383743
0.0484502
0.0479769
0.0342251
0.0271899