/*--------------------------------*- C++ -*----------------------------------*\
| =========                 |                                                 |
| \\      /  F ield         | OpenFOAM: The Open Source CFD Toolbox           |
|  \\    /   O peration     | Version:  v1912                                 |
|   \\  /    A nd           | Website:  www.openfoam.com                      |
|    \\/     M anipulation  |                                                 |
\*---------------------------------------------------------------------------*/
FoamFile
{
    version     2.0;
    format      ascii;
    class       volScalarField;
    location    "80";
    object      nut;
}
// * * * * * * * * * * * * * * * * * * * * * * * * * * * * * * * * * * * * * //

dimensions      [0 2 -1 0 0 0 0];


internalField   nonuniform List<scalar> 
14268
(
3.13452e-10
3.08442e-10
3.04337e-10
3.007e-10
2.96182e-10
2.85874e-10
2.74343e-10
2.65254e-10
1.42307e-08
1.3663e-08
1.3159e-08
1.26933e-08
1.21919e-08
1.13846e-08
1.05289e-08
1.01429e-08
8.60978e-08
8.32691e-08
8.06807e-08
7.8249e-08
7.56002e-08
7.11906e-08
6.64972e-08
6.28212e-08
1.87669e-07
1.8381e-07
1.80109e-07
1.76488e-07
1.72151e-07
1.65262e-07
1.57825e-07
1.55329e-07
2.49059e-07
2.46072e-07
2.42986e-07
2.39659e-07
2.35463e-07
2.30051e-07
2.25145e-07
2.17105e-07
2.73301e-07
2.71197e-07
2.69032e-07
2.67078e-07
2.64601e-07
2.60334e-07
2.55278e-07
2.54092e-07
2.8139e-07
2.80119e-07
2.79442e-07
2.81174e-07
2.80515e-07
2.76721e-07
2.75517e-07
2.60708e-07
2.91364e-07
2.92054e-07
2.94379e-07
3.0001e-07
3.03939e-07
3.02353e-07
2.96227e-07
2.92009e-07
3.04653e-07
3.09471e-07
3.19234e-07
3.42079e-07
3.62909e-07
3.67941e-07
3.63058e-07
3.21994e-07
3.24483e-07
3.36685e-07
3.58584e-07
3.99922e-07
4.53784e-07
4.84568e-07
4.83914e-07
4.27114e-07
3.33026e-07
3.48445e-07
3.7515e-07
4.22267e-07
4.94324e-07
5.47056e-07
5.59496e-07
5.07506e-07
3.24714e-07
3.39316e-07
3.64523e-07
4.08275e-07
4.81755e-07
5.48408e-07
5.7092e-07
5.2729e-07
3.03279e-07
3.10408e-07
3.23834e-07
3.48009e-07
3.93375e-07
4.42596e-07
4.61967e-07
4.47949e-07
2.96151e-07
2.99887e-07
3.07656e-07
3.22476e-07
3.50256e-07
3.74982e-07
3.79684e-07
3.63805e-07
2.94063e-07
2.96589e-07
3.02166e-07
3.13688e-07
3.35316e-07
3.56758e-07
3.63214e-07
3.52137e-07
2.90528e-07
2.91451e-07
2.94119e-07
3.00474e-07
3.14668e-07
3.33432e-07
3.39756e-07
3.26342e-07
2.88297e-07
2.87908e-07
2.88224e-07
2.90221e-07
2.95993e-07
3.07289e-07
3.15914e-07
3.11181e-07
2.88582e-07
2.88065e-07
2.87934e-07
2.88708e-07
2.91912e-07
2.98938e-07
3.0779e-07
3.06969e-07
2.8908e-07
2.88522e-07
2.88233e-07
2.88374e-07
2.90084e-07
2.9408e-07
3.01041e-07
3.03823e-07
2.88199e-07
2.87558e-07
2.87035e-07
2.86843e-07
2.87174e-07
2.88291e-07
2.91243e-07
2.93987e-07
2.86662e-07
2.85708e-07
2.84758e-07
2.83798e-07
2.83109e-07
2.82755e-07
2.831e-07
2.82814e-07
2.85945e-07
2.84712e-07
2.83381e-07
2.81976e-07
2.80498e-07
2.78722e-07
2.7732e-07
2.74819e-07
2.86552e-07
2.85418e-07
2.8414e-07
2.82762e-07
2.81177e-07
2.79412e-07
2.77211e-07
2.76051e-07
2.85535e-07
2.84155e-07
2.82618e-07
2.80995e-07
2.79235e-07
2.77526e-07
2.7579e-07
2.7476e-07
2.87521e-07
2.86466e-07
2.85234e-07
2.83389e-07
2.81402e-07
2.7918e-07
2.76239e-07
2.75202e-07
2.87915e-07
2.86423e-07
2.8407e-07
2.81425e-07
2.79293e-07
2.77755e-07
2.76047e-07
2.74755e-07
2.8756e-07
2.85189e-07
2.83016e-07
2.80717e-07
2.78316e-07
2.75661e-07
2.72948e-07
2.72218e-07
2.92401e-07
2.88458e-07
2.83809e-07
2.7849e-07
2.72609e-07
2.67387e-07
2.64285e-07
2.64892e-07
3.09264e-07
3.01365e-07
2.92279e-07
2.81752e-07
2.68852e-07
2.56206e-07
2.47829e-07
2.47515e-07
3.1065e-07
3.02532e-07
2.91348e-07
2.77708e-07
2.59082e-07
2.40964e-07
2.29603e-07
2.27882e-07
2.30575e-07
2.24933e-07
2.16584e-07
2.06722e-07
1.921e-07
1.79587e-07
1.76907e-07
1.88699e-07
1.36067e-07
1.30919e-07
1.24182e-07
1.17446e-07
1.09844e-07
1.0607e-07
1.10662e-07
1.29464e-07
7.60255e-08
6.99359e-08
6.27836e-08
5.54854e-08
5.06e-08
5.06105e-08
5.80264e-08
7.80845e-08
6.57731e-08
5.68114e-08
4.70044e-08
3.81496e-08
3.25884e-08
3.15673e-08
3.69127e-08
5.48408e-08
1.26418e-07
1.15182e-07
9.5934e-08
7.35393e-08
5.67032e-08
4.91597e-08
5.25367e-08
7.30993e-08
3.68733e-08
4.36898e-08
7.29612e-08
1.15906e-07
1.30624e-07
1.29603e-07
1.20896e-07
1.49596e-07
1.13948e-05
6.99048e-06
4.11971e-06
2.13455e-06
7.2691e-07
1.6166e-07
5.74716e-08
1.08254e-07
0.000519397
0.000369484
0.000242995
0.000142621
6.26381e-05
1.94612e-05
5.0956e-06
1.57022e-06
0.0052239
0.00442723
0.00343613
0.00238402
0.00136518
0.000699364
0.000365442
0.000193956
0.010961
0.00977155
0.00814119
0.00616744
0.00402873
0.00241873
0.00162691
0.00117262
0.0162237
0.0146923
0.0126567
0.00995337
0.00671956
0.00411049
0.00286639
0.00216337
0.0219945
0.0203874
0.0183826
0.0153759
0.0113757
0.00748532
0.00545738
0.00456663
0.0276781
0.0263352
0.024643
0.0218499
0.0180956
0.0139417
0.0112908
0.0100305
0.0325167
0.0318629
0.0306639
0.0283039
0.0252568
0.0216055
0.018672
0.0167556
0.0346503
0.035459
0.0355152
0.0341688
0.0318508
0.0292758
0.0263622
0.0240039
0.0327087
0.0353648
0.037102
0.0378693
0.0370519
0.0354571
0.0324997
0.0297517
0.0278778
0.0315107
0.0346804
0.037426
0.0383446
0.0386668
0.0368113
0.0343552
0.0215316
0.0254849
0.0291813
0.0330984
0.0354591
0.0378196
0.0380299
0.0367988
0.0145423
0.0182233
0.021962
0.0264074
0.0294976
0.0334504
0.0361676
0.0366938
0.00832509
0.0111119
0.0142878
0.0185868
0.0220122
0.0271508
0.0317787
0.0342679
0.0039832
0.00563666
0.00778052
0.0111192
0.0142038
0.0196493
0.02534
0.0288312
0.00162324
0.0023974
0.00351807
0.00552659
0.00768348
0.0122055
0.0176943
0.0213078
0.000584458
0.000887715
0.001357
0.00229804
0.0034772
0.00627122
0.010254
0.0131768
0.00019303
0.000299101
0.000469693
0.000832091
0.00134432
0.00263817
0.00474166
0.00646253
5.97764e-05
9.42917e-05
0.000150674
0.000273266
0.000463657
0.000938075
0.00176052
0.00246529
1.75097e-05
2.80233e-05
4.54458e-05
8.35643e-05
0.000146238
0.00029403
0.000553297
0.000771669
4.96427e-06
7.96291e-06
1.29914e-05
2.41088e-05
4.30588e-05
8.52352e-05
0.000157235
0.000215379
1.4746e-06
2.2725e-06
3.62815e-06
6.64905e-06
1.1931e-05
2.31531e-05
4.18836e-05
5.63153e-05
5.73334e-07
7.71044e-07
1.10974e-06
1.872e-06
3.23376e-06
6.01736e-06
1.05776e-05
1.39727e-05
3.5817e-07
4.03533e-07
4.82023e-07
6.59308e-07
9.83108e-07
1.62537e-06
2.65595e-06
3.40022e-06
3.10888e-07
3.20587e-07
3.37401e-07
3.75816e-07
4.46706e-07
5.8381e-07
7.99144e-07
9.49959e-07
3.01496e-07
3.03354e-07
3.06686e-07
3.14762e-07
3.29045e-07
3.56277e-07
3.98116e-07
4.25945e-07
3.00028e-07
3.00204e-07
3.00788e-07
3.02635e-07
3.05337e-07
3.10292e-07
3.1848e-07
3.22615e-07
3.00051e-07
2.99907e-07
2.99969e-07
3.00546e-07
3.01128e-07
3.01649e-07
3.03903e-07
3.03779e-07
3.00337e-07
3.00068e-07
3.00116e-07
3.0038e-07
3.00682e-07
3.00246e-07
3.01565e-07
3.00879e-07
3.00682e-07
3.00455e-07
3.00556e-07
3.00525e-07
3.00833e-07
3.0031e-07
3.01323e-07
3.0076e-07
3.01005e-07
3.00754e-07
3.00957e-07
3.00739e-07
3.01109e-07
3.00748e-07
3.01385e-07
3.00977e-07
3.01302e-07
3.00971e-07
3.01259e-07
3.01072e-07
3.01427e-07
3.0103e-07
3.01625e-07
3.01105e-07
3.01551e-07
3.01297e-07
3.01519e-07
3.01324e-07
3.01689e-07
3.01206e-07
3.01997e-07
3.0113e-07
3.01832e-07
3.01654e-07
3.01752e-07
3.01444e-07
3.01969e-07
3.01435e-07
3.02074e-07
3.01522e-07
3.02065e-07
3.01905e-07
3.02048e-07
3.01566e-07
3.02119e-07
3.01695e-07
3.02205e-07
3.01607e-07
3.02274e-07
3.02065e-07
3.0234e-07
3.01797e-07
3.02438e-07
3.01639e-07
3.0266e-07
3.01585e-07
3.0238e-07
3.02227e-07
3.0256e-07
3.02017e-07
3.02657e-07
3.01634e-07
3.02815e-07
3.01883e-07
3.02462e-07
3.02117e-07
3.0264e-07
3.01963e-07
3.02802e-07
3.01979e-07
3.02772e-07
3.02137e-07
3.02431e-07
3.0177e-07
3.02515e-07
3.0165e-07
3.02571e-07
3.02063e-07
3.02428e-07
3.02025e-07
3.02478e-07
3.0161e-07
3.02362e-07
3.01685e-07
3.02208e-07
3.01843e-07
3.02291e-07
3.01695e-07
3.02622e-07
3.02153e-07
3.024e-07
3.02176e-07
3.02382e-07
3.01959e-07
3.02413e-07
3.02028e-07
3.02664e-07
3.02703e-07
3.02589e-07
3.027e-07
3.02628e-07
3.02691e-07
3.02571e-07
3.02641e-07
3.02865e-07
3.03099e-07
3.0285e-07
3.03145e-07
3.02828e-07
3.03209e-07
3.02743e-07
3.03236e-07
3.03317e-07
3.03352e-07
3.03255e-07
3.03481e-07
3.03219e-07
3.0356e-07
3.03179e-07
3.03579e-07
3.03284e-07
3.03322e-07
3.03318e-07
3.03375e-07
3.03369e-07
3.03398e-07
3.03414e-07
3.03406e-07
3.03788e-07
3.03778e-07
3.03771e-07
3.03793e-07
3.03753e-07
3.03797e-07
3.03728e-07
3.03781e-07
3.05345e-07
3.05214e-07
3.05109e-07
3.04992e-07
3.0488e-07
3.04772e-07
3.04664e-07
3.04567e-07
3.14207e-07
3.136e-07
3.13026e-07
3.12406e-07
3.11824e-07
3.11217e-07
3.10664e-07
3.10115e-07
3.50463e-07
3.48978e-07
3.47484e-07
3.45804e-07
3.44147e-07
3.4233e-07
3.40599e-07
3.38778e-07
4.31018e-07
4.30159e-07
4.29188e-07
4.27953e-07
4.26619e-07
4.25012e-07
4.23345e-07
4.21438e-07
5.16601e-07
5.17074e-07
5.17359e-07
5.17499e-07
5.17455e-07
5.17278e-07
5.16915e-07
5.16404e-07
2.64984e-10
2.56886e-10
2.42817e-10
2.30382e-10
2.21914e-10
2.20844e-10
2.25839e-10
2.341e-10
2.4428e-10
2.52133e-10
2.56366e-10
2.56759e-10
2.53121e-10
2.45847e-10
2.36052e-10
2.2441e-10
2.11429e-10
1.97919e-10
1.85229e-10
1.74963e-10
1.69112e-10
1.69266e-10
1.74195e-10
1.81032e-10
1.8965e-10
2.00204e-10
2.12261e-10
2.25193e-10
2.37264e-10
2.48856e-10
2.59754e-10
2.6956e-10
2.78798e-10
2.87785e-10
2.98028e-10
3.10429e-10
3.23643e-10
3.35921e-10
3.45634e-10
3.52108e-10
3.55097e-10
3.54824e-10
3.49878e-10
3.41574e-10
3.32592e-10
3.22912e-10
3.14611e-10
3.10171e-10
3.14055e-10
3.19521e-10
3.2457e-10
3.28975e-10
3.31708e-10
3.33844e-10
3.36997e-10
3.40769e-10
3.47631e-10
3.55362e-10
3.64539e-10
3.76927e-10
3.89907e-10
4.01775e-10
4.12806e-10
4.22326e-10
4.29532e-10
4.3394e-10
4.33485e-10
4.27699e-10
4.16888e-10
4.00741e-10
3.81035e-10
3.57643e-10
3.3068e-10
3.01006e-10
2.70504e-10
2.41397e-10
2.14858e-10
1.91302e-10
1.71219e-10
1.55905e-10
1.46854e-10
1.44653e-10
1.45452e-10
1.47311e-10
1.50537e-10
1.55646e-10
1.62516e-10
1.69526e-10
1.75218e-10
1.80371e-10
1.87556e-10
1.95199e-10
2.00664e-10
2.03689e-10
2.05773e-10
2.08748e-10
2.13452e-10
2.17779e-10
2.22252e-10
2.27082e-10
2.30895e-10
2.32632e-10
2.32182e-10
2.3174e-10
2.3453e-10
2.38081e-10
2.39971e-10
2.40177e-10
2.3874e-10
2.36553e-10
2.34603e-10
2.34283e-10
2.37193e-10
2.42602e-10
2.48544e-10
2.53989e-10
2.57826e-10
2.59779e-10
2.60419e-10
2.602e-10
2.60254e-10
2.61551e-10
2.63702e-10
2.65908e-10
2.6676e-10
2.64996e-10
2.60625e-10
2.5488e-10
2.48991e-10
2.42154e-10
2.34124e-10
2.24546e-10
2.12895e-10
2.00667e-10
1.89045e-10
1.77636e-10
1.66096e-10
1.54081e-10
1.42543e-10
1.3249e-10
1.24455e-10
1.18671e-10
1.15194e-10
1.14256e-10
1.15016e-10
1.16086e-10
1.17492e-10
1.19017e-10
1.20583e-10
1.22408e-10
1.24947e-10
1.28569e-10
1.31992e-10
1.34138e-10
1.35284e-10
1.36166e-10
9.43885e-09
8.7358e-09
8.05449e-09
7.55527e-09
7.21477e-09
7.10462e-09
7.17444e-09
7.32214e-09
7.4935e-09
7.56518e-09
7.50025e-09
7.33765e-09
7.0834e-09
6.75869e-09
6.40915e-09
6.05683e-09
5.71244e-09
5.39072e-09
5.10879e-09
4.88379e-09
4.7321e-09
4.66667e-09
4.70864e-09
4.86345e-09
5.16326e-09
5.63716e-09
6.2855e-09
7.13497e-09
8.13959e-09
9.31688e-09
1.06758e-08
1.21274e-08
1.36301e-08
1.50805e-08
1.64145e-08
1.7558e-08
1.84511e-08
1.90726e-08
1.93953e-08
1.95478e-08
1.95301e-08
1.94032e-08
1.91134e-08
1.86707e-08
1.8167e-08
1.76007e-08
1.70365e-08
1.6469e-08
1.60297e-08
1.57373e-08
1.55558e-08
1.55059e-08
1.54604e-08
1.54624e-08
1.55394e-08
1.55272e-08
1.55946e-08
1.56822e-08
1.5844e-08
1.61622e-08
1.64897e-08
1.67273e-08
1.68793e-08
1.68861e-08
1.67779e-08
1.65819e-08
1.62368e-08
1.5743e-08
1.51115e-08
1.43195e-08
1.34137e-08
1.23818e-08
1.12351e-08
1.00272e-08
8.86147e-09
7.8476e-09
7.03226e-09
6.40487e-09
5.93012e-09
5.59652e-09
5.39294e-09
5.3157e-09
5.34944e-09
5.49677e-09
5.81039e-09
6.35559e-09
7.17288e-09
8.23135e-09
9.41028e-09
1.06361e-08
1.18963e-08
1.30207e-08
1.39244e-08
1.46028e-08
1.5214e-08
1.58895e-08
1.66407e-08
1.73335e-08
1.78705e-08
1.81702e-08
1.82947e-08
1.82698e-08
1.8049e-08
1.78483e-08
1.77431e-08
1.77062e-08
1.76295e-08
1.75056e-08
1.73101e-08
1.70652e-08
1.68247e-08
1.66652e-08
1.66144e-08
1.66505e-08
1.67278e-08
1.68151e-08
1.68604e-08
1.68378e-08
1.67612e-08
1.66331e-08
1.6478e-08
1.63395e-08
1.62118e-08
1.60965e-08
1.59362e-08
1.56719e-08
1.53025e-08
1.48778e-08
1.44404e-08
1.39626e-08
1.34511e-08
1.29021e-08
1.22913e-08
1.16768e-08
1.10951e-08
1.05296e-08
9.99892e-09
9.47171e-09
8.98835e-09
8.5621e-09
8.20344e-09
7.93011e-09
7.74585e-09
7.65391e-09
7.65453e-09
7.75316e-09
7.96398e-09
8.26765e-09
8.64491e-09
9.09989e-09
9.66396e-09
1.03756e-08
1.11491e-08
1.18752e-08
1.25484e-08
1.31705e-08
5.78655e-08
5.43104e-08
5.05742e-08
4.85175e-08
4.74685e-08
4.75758e-08
4.8421e-08
4.9602e-08
5.07504e-08
5.11765e-08
5.08424e-08
4.97023e-08
4.79303e-08
4.58451e-08
4.36429e-08
4.13957e-08
3.91495e-08
3.69915e-08
3.50463e-08
3.34483e-08
3.23524e-08
3.18909e-08
3.21624e-08
3.33373e-08
3.56713e-08
3.93243e-08
4.42598e-08
5.06437e-08
5.79128e-08
6.59049e-08
7.43901e-08
8.26011e-08
9.02e-08
9.67325e-08
1.02135e-07
1.06363e-07
1.09431e-07
1.11452e-07
1.12459e-07
1.12947e-07
1.12945e-07
1.12634e-07
1.11787e-07
1.10456e-07
1.08928e-07
1.07071e-07
1.05055e-07
1.0283e-07
1.01004e-07
9.95791e-08
9.85219e-08
9.79568e-08
9.74926e-08
9.72222e-08
9.7445e-08
9.73764e-08
9.78146e-08
9.83861e-08
9.93295e-08
1.00856e-07
1.02334e-07
1.03347e-07
1.03934e-07
1.03834e-07
1.03232e-07
1.0232e-07
1.00879e-07
9.88976e-08
9.63736e-08
9.31373e-08
8.92882e-08
8.46471e-08
7.91279e-08
7.28516e-08
6.62359e-08
5.99526e-08
5.44831e-08
4.99451e-08
4.64344e-08
4.40088e-08
4.26259e-08
4.22519e-08
4.27468e-08
4.42886e-08
4.72559e-08
5.21964e-08
5.93788e-08
6.82538e-08
7.74757e-08
8.62747e-08
9.43563e-08
1.00815e-07
1.05559e-07
1.08759e-07
1.11385e-07
1.14195e-07
1.17178e-07
1.19894e-07
1.22009e-07
1.23234e-07
1.23822e-07
1.23885e-07
1.2301e-07
1.21976e-07
1.21253e-07
1.20807e-07
1.20349e-07
1.19811e-07
1.19032e-07
1.18206e-07
1.17387e-07
1.16761e-07
1.16491e-07
1.16534e-07
1.16759e-07
1.17095e-07
1.17339e-07
1.17389e-07
1.17288e-07
1.16992e-07
1.16486e-07
1.15966e-07
1.15441e-07
1.14966e-07
1.14303e-07
1.13215e-07
1.11718e-07
1.09962e-07
1.08067e-07
1.05922e-07
1.03575e-07
1.0105e-07
9.81851e-08
9.5196e-08
9.22345e-08
8.92632e-08
8.62712e-08
8.32687e-08
8.03736e-08
7.76265e-08
7.51356e-08
7.31367e-08
7.17661e-08
7.11367e-08
7.1265e-08
7.23136e-08
7.43613e-08
7.71491e-08
8.05064e-08
8.43852e-08
8.89375e-08
9.43372e-08
9.98335e-08
1.04758e-07
1.09092e-07
1.12837e-07
1.45967e-07
1.39612e-07
1.33452e-07
1.29804e-07
1.28141e-07
1.28743e-07
1.31019e-07
1.34022e-07
1.36779e-07
1.37882e-07
1.37619e-07
1.36029e-07
1.33322e-07
1.29944e-07
1.2626e-07
1.22403e-07
1.18443e-07
1.14524e-07
1.10864e-07
1.07731e-07
1.05481e-07
1.04449e-07
1.05069e-07
1.07951e-07
1.13521e-07
1.21781e-07
1.32003e-07
1.43902e-07
1.56036e-07
1.68196e-07
1.79919e-07
1.90346e-07
1.99362e-07
2.06679e-07
2.12435e-07
2.16714e-07
2.19663e-07
2.21537e-07
2.2243e-07
2.22927e-07
2.22926e-07
2.22737e-07
2.22281e-07
2.2127e-07
2.20122e-07
2.18604e-07
2.16795e-07
2.14626e-07
2.12593e-07
2.10896e-07
2.09538e-07
2.08708e-07
2.0807e-07
2.07701e-07
2.07952e-07
2.07904e-07
2.08392e-07
2.09026e-07
2.10055e-07
2.11661e-07
2.1319e-07
2.14209e-07
2.1479e-07
2.14653e-07
2.14033e-07
2.1316e-07
2.11819e-07
2.09931e-07
2.07497e-07
2.04271e-07
2.00286e-07
1.95233e-07
1.88895e-07
1.81261e-07
1.72739e-07
1.64173e-07
1.56413e-07
1.49837e-07
1.44632e-07
1.40978e-07
1.38894e-07
1.38455e-07
1.39723e-07
1.43076e-07
1.49077e-07
1.58326e-07
1.70377e-07
1.83346e-07
1.95326e-07
2.05597e-07
2.14154e-07
2.2049e-07
2.24941e-07
2.27818e-07
2.30059e-07
2.32442e-07
2.34957e-07
2.37225e-07
2.38978e-07
2.39937e-07
2.40375e-07
2.40437e-07
2.39701e-07
2.38844e-07
2.38237e-07
2.37775e-07
2.37352e-07
2.36907e-07
2.36266e-07
2.35606e-07
2.34989e-07
2.34491e-07
2.34238e-07
2.34197e-07
2.34313e-07
2.34565e-07
2.34766e-07
2.348e-07
2.34722e-07
2.34541e-07
2.34158e-07
2.33751e-07
2.33347e-07
2.32993e-07
2.32507e-07
2.31676e-07
2.30499e-07
2.29126e-07
2.27636e-07
2.25879e-07
2.23871e-07
2.21651e-07
2.19101e-07
2.16414e-07
2.13697e-07
2.1091e-07
2.08015e-07
2.0514e-07
2.02317e-07
1.99502e-07
1.96779e-07
1.94494e-07
1.9288e-07
1.92129e-07
1.92317e-07
1.93711e-07
1.96361e-07
1.99823e-07
2.03762e-07
2.08074e-07
2.12913e-07
2.18387e-07
2.23599e-07
2.27975e-07
2.31626e-07
2.34614e-07
2.07714e-07
2.0405e-07
1.99239e-07
1.97862e-07
1.98457e-07
2.00789e-07
2.04196e-07
2.09215e-07
2.11431e-07
2.12495e-07
2.12776e-07
2.12106e-07
2.10439e-07
2.07976e-07
2.05118e-07
2.02001e-07
1.98659e-07
1.95221e-07
1.91878e-07
1.88882e-07
1.86586e-07
1.85429e-07
1.85946e-07
1.88847e-07
1.94404e-07
2.02369e-07
2.11541e-07
2.21585e-07
2.31066e-07
2.39835e-07
2.47733e-07
2.54328e-07
2.59835e-07
2.64141e-07
2.67452e-07
2.6986e-07
2.71465e-07
2.72441e-07
2.72909e-07
2.73143e-07
2.73182e-07
2.73151e-07
2.72907e-07
2.72563e-07
2.72059e-07
2.7139e-07
2.70451e-07
2.69245e-07
2.68047e-07
2.67037e-07
2.66179e-07
2.65633e-07
2.65202e-07
2.64956e-07
2.65139e-07
2.65124e-07
2.65489e-07
2.65873e-07
2.66473e-07
2.67397e-07
2.68278e-07
2.68831e-07
2.69137e-07
2.69052e-07
2.68725e-07
2.68318e-07
2.6772e-07
2.66759e-07
2.65563e-07
2.63912e-07
2.61858e-07
2.59106e-07
2.55533e-07
2.51237e-07
2.46398e-07
2.41472e-07
2.3695e-07
2.33058e-07
2.30011e-07
2.28003e-07
2.26996e-07
2.26944e-07
2.27991e-07
2.30539e-07
2.34976e-07
2.41475e-07
2.49396e-07
2.57338e-07
2.64314e-07
2.69903e-07
2.74221e-07
2.77097e-07
2.79029e-07
2.80366e-07
2.81316e-07
2.82314e-07
2.83403e-07
2.84437e-07
2.85274e-07
2.85686e-07
2.85829e-07
2.85783e-07
2.85504e-07
2.85101e-07
2.84743e-07
2.84445e-07
2.84272e-07
2.84127e-07
2.83916e-07
2.83531e-07
2.83248e-07
2.83029e-07
2.82891e-07
2.82834e-07
2.82864e-07
2.83044e-07
2.83195e-07
2.83203e-07
2.83169e-07
2.83146e-07
2.82991e-07
2.82843e-07
2.82696e-07
2.82549e-07
2.8243e-07
2.82197e-07
2.81687e-07
2.81114e-07
2.80566e-07
2.79916e-07
2.79181e-07
2.78293e-07
2.77193e-07
2.76096e-07
2.74996e-07
2.73727e-07
2.72643e-07
2.71336e-07
2.7019e-07
2.69029e-07
2.67795e-07
2.66686e-07
2.65885e-07
2.65498e-07
2.65578e-07
2.66312e-07
2.67733e-07
2.69538e-07
2.71523e-07
2.73634e-07
2.75925e-07
2.78459e-07
2.80775e-07
2.82638e-07
2.84165e-07
2.85374e-07
2.47637e-07
2.44482e-07
2.40572e-07
2.38689e-07
2.38875e-07
2.41189e-07
2.45354e-07
2.49329e-07
2.52444e-07
2.53974e-07
2.54128e-07
2.53908e-07
2.5321e-07
2.52188e-07
2.51094e-07
2.49851e-07
2.48359e-07
2.46755e-07
2.4508e-07
2.43443e-07
2.42127e-07
2.41376e-07
2.41745e-07
2.43773e-07
2.47462e-07
2.52491e-07
2.57826e-07
2.63473e-07
2.68518e-07
2.7278e-07
2.76586e-07
2.79828e-07
2.82558e-07
2.84661e-07
2.86254e-07
2.87342e-07
2.87994e-07
2.88363e-07
2.88515e-07
2.88657e-07
2.8865e-07
2.88662e-07
2.88652e-07
2.8865e-07
2.88626e-07
2.88449e-07
2.88065e-07
2.87635e-07
2.87086e-07
2.86488e-07
2.85973e-07
2.85635e-07
2.85391e-07
2.85273e-07
2.85399e-07
2.85413e-07
2.85583e-07
2.85776e-07
2.8606e-07
2.86475e-07
2.86861e-07
2.87045e-07
2.87102e-07
2.8699e-07
2.86833e-07
2.86711e-07
2.86534e-07
2.86152e-07
2.85717e-07
2.85006e-07
2.84177e-07
2.83054e-07
2.81572e-07
2.79858e-07
2.78077e-07
2.76444e-07
2.75101e-07
2.74057e-07
2.73369e-07
2.73009e-07
2.72875e-07
2.7299e-07
2.7365e-07
2.75066e-07
2.77282e-07
2.80313e-07
2.83821e-07
2.87095e-07
2.89671e-07
2.91502e-07
2.92936e-07
2.93958e-07
2.94769e-07
2.95391e-07
2.95835e-07
2.96263e-07
2.96744e-07
2.9711e-07
2.97336e-07
2.97346e-07
2.97395e-07
2.97474e-07
2.97473e-07
2.97354e-07
2.97146e-07
2.97047e-07
2.96958e-07
2.96736e-07
2.96398e-07
2.96291e-07
2.96281e-07
2.96245e-07
2.96241e-07
2.9625e-07
2.96253e-07
2.96266e-07
2.96198e-07
2.96111e-07
2.96167e-07
2.96242e-07
2.96238e-07
2.96281e-07
2.96303e-07
2.96271e-07
2.96178e-07
2.96047e-07
2.95817e-07
2.95634e-07
2.95538e-07
2.95339e-07
2.95147e-07
2.94992e-07
2.9472e-07
2.94593e-07
2.94506e-07
2.94388e-07
2.94185e-07
2.94024e-07
2.93911e-07
2.93789e-07
2.93622e-07
2.93427e-07
2.93253e-07
2.93154e-07
2.93181e-07
2.93424e-07
2.93865e-07
2.94411e-07
2.95031e-07
2.95712e-07
2.96461e-07
2.97268e-07
2.97948e-07
2.98491e-07
2.98941e-07
2.99275e-07
2.53579e-07
2.54497e-07
2.55593e-07
2.54892e-07
2.55444e-07
2.584e-07
2.62777e-07
2.65627e-07
2.68147e-07
2.70294e-07
2.71564e-07
2.71613e-07
2.7185e-07
2.71971e-07
2.71978e-07
2.71983e-07
2.71873e-07
2.71704e-07
2.71445e-07
2.71068e-07
2.70604e-07
2.70168e-07
2.70234e-07
2.71176e-07
2.72856e-07
2.75309e-07
2.77753e-07
2.80331e-07
2.82554e-07
2.84473e-07
2.86171e-07
2.87404e-07
2.88702e-07
2.89821e-07
2.90728e-07
2.91451e-07
2.91889e-07
2.92163e-07
2.92306e-07
2.92388e-07
2.92331e-07
2.92408e-07
2.92531e-07
2.92492e-07
2.92493e-07
2.92416e-07
2.92222e-07
2.91937e-07
2.91488e-07
2.9101e-07
2.90603e-07
2.90384e-07
2.90246e-07
2.90189e-07
2.90342e-07
2.90369e-07
2.90603e-07
2.90826e-07
2.91055e-07
2.91347e-07
2.91604e-07
2.91679e-07
2.91708e-07
2.91648e-07
2.91591e-07
2.916e-07
2.91581e-07
2.91484e-07
2.91389e-07
2.91107e-07
2.90785e-07
2.90348e-07
2.89771e-07
2.89223e-07
2.88891e-07
2.88934e-07
2.89331e-07
2.89936e-07
2.90683e-07
2.91484e-07
2.92066e-07
2.92411e-07
2.92718e-07
2.93225e-07
2.93926e-07
2.94767e-07
2.95668e-07
2.96564e-07
2.97433e-07
2.98133e-07
2.98635e-07
2.98895e-07
2.99122e-07
2.99331e-07
2.99446e-07
2.99588e-07
2.99787e-07
3.00065e-07
3.0033e-07
3.00423e-07
3.00439e-07
3.00397e-07
3.00235e-07
3.00118e-07
3.00086e-07
2.99988e-07
2.99986e-07
2.99963e-07
2.99851e-07
2.99798e-07
2.99701e-07
2.99636e-07
2.99621e-07
2.99624e-07
2.9965e-07
2.9972e-07
2.99747e-07
2.99704e-07
2.99768e-07
2.99765e-07
2.99743e-07
2.99746e-07
2.99751e-07
2.99794e-07
2.99777e-07
2.99719e-07
2.99682e-07
2.99623e-07
2.99584e-07
2.99509e-07
2.99463e-07
2.99466e-07
2.99395e-07
2.99485e-07
2.99606e-07
2.99689e-07
2.99839e-07
2.99994e-07
3.00236e-07
3.005e-07
3.00711e-07
3.00866e-07
3.00949e-07
3.01006e-07
3.01049e-07
3.01106e-07
3.01213e-07
3.01321e-07
3.01451e-07
3.01625e-07
3.01755e-07
3.01899e-07
3.02038e-07
3.02136e-07
3.02244e-07
3.02326e-07
2.86978e-07
2.87977e-07
2.83271e-07
2.78273e-07
2.7297e-07
2.70301e-07
2.72102e-07
2.74173e-07
2.75544e-07
2.76486e-07
2.78073e-07
2.7885e-07
2.79386e-07
2.79948e-07
2.80461e-07
2.81023e-07
2.81665e-07
2.82288e-07
2.82832e-07
2.8314e-07
2.83299e-07
2.83203e-07
2.83177e-07
2.83498e-07
2.83977e-07
2.84974e-07
2.85771e-07
2.86698e-07
2.87497e-07
2.88115e-07
2.8883e-07
2.89782e-07
2.90885e-07
2.91752e-07
2.92531e-07
2.93057e-07
2.93342e-07
2.93492e-07
2.93519e-07
2.9358e-07
2.9355e-07
2.93598e-07
2.93684e-07
2.93795e-07
2.9391e-07
2.9393e-07
2.93837e-07
2.93685e-07
2.9346e-07
2.93075e-07
2.9275e-07
2.9255e-07
2.92402e-07
2.9233e-07
2.92406e-07
2.92394e-07
2.92504e-07
2.92656e-07
2.92838e-07
2.93003e-07
2.93162e-07
2.93171e-07
2.93165e-07
2.93098e-07
2.93043e-07
2.93067e-07
2.93076e-07
2.93047e-07
2.93024e-07
2.92865e-07
2.92693e-07
2.92465e-07
2.92204e-07
2.92093e-07
2.92322e-07
2.93002e-07
2.94103e-07
2.95508e-07
2.96949e-07
2.98202e-07
2.99043e-07
2.99411e-07
2.99579e-07
2.99725e-07
2.99795e-07
2.99758e-07
2.99688e-07
2.99681e-07
2.99759e-07
2.99752e-07
2.99797e-07
2.99843e-07
3.00011e-07
3.00213e-07
3.00364e-07
3.0048e-07
3.00683e-07
3.00847e-07
3.00928e-07
3.00866e-07
3.00873e-07
3.00908e-07
3.00932e-07
3.00888e-07
3.00785e-07
3.00753e-07
3.00702e-07
3.00594e-07
3.0038e-07
3.00363e-07
3.00372e-07
3.00368e-07
3.00376e-07
3.00414e-07
3.00444e-07
3.00463e-07
3.00432e-07
3.0039e-07
3.00434e-07
3.00476e-07
3.00513e-07
3.00575e-07
3.00594e-07
3.00649e-07
3.0066e-07
3.00571e-07
3.00528e-07
3.0053e-07
3.00573e-07
3.00595e-07
3.00619e-07
3.00697e-07
3.00737e-07
3.00927e-07
3.01166e-07
3.01383e-07
3.01669e-07
3.01977e-07
3.02353e-07
3.02749e-07
3.03077e-07
3.03327e-07
3.03482e-07
3.0354e-07
3.03534e-07
3.0351e-07
3.03478e-07
3.03417e-07
3.03367e-07
3.03301e-07
3.03252e-07
3.03197e-07
3.03134e-07
3.03091e-07
3.03101e-07
3.03097e-07
2.91915e-07
3.08156e-07
3.07007e-07
2.98847e-07
2.86237e-07
2.77349e-07
2.7592e-07
2.77614e-07
2.78908e-07
2.79799e-07
2.80207e-07
2.81707e-07
2.82188e-07
2.82886e-07
2.83657e-07
2.84495e-07
2.85456e-07
2.86457e-07
2.87403e-07
2.88098e-07
2.88533e-07
2.88599e-07
2.88502e-07
2.88488e-07
2.88359e-07
2.88591e-07
2.88574e-07
2.88767e-07
2.88988e-07
2.89136e-07
2.8972e-07
2.90416e-07
2.91126e-07
2.91887e-07
2.92495e-07
2.92997e-07
2.93291e-07
2.93469e-07
2.9355e-07
2.93604e-07
2.93617e-07
2.93725e-07
2.93712e-07
2.93819e-07
2.9389e-07
2.93901e-07
2.93794e-07
2.93608e-07
2.93283e-07
2.92912e-07
2.92604e-07
2.92457e-07
2.92351e-07
2.92325e-07
2.92445e-07
2.92478e-07
2.92659e-07
2.92839e-07
2.93011e-07
2.9321e-07
2.93377e-07
2.93405e-07
2.93428e-07
2.93409e-07
2.93382e-07
2.93419e-07
2.93445e-07
2.93469e-07
2.93487e-07
2.9337e-07
2.93261e-07
2.93102e-07
2.92919e-07
2.92944e-07
2.93358e-07
2.94259e-07
2.95625e-07
2.97264e-07
2.98919e-07
3.00355e-07
3.01326e-07
3.01788e-07
3.01905e-07
3.01874e-07
3.01661e-07
3.01256e-07
3.00812e-07
3.00442e-07
3.00248e-07
3.00166e-07
3.00181e-07
3.00166e-07
3.00248e-07
3.00342e-07
3.00435e-07
3.00523e-07
3.00621e-07
3.00792e-07
3.00964e-07
3.01003e-07
3.01032e-07
3.01058e-07
3.0096e-07
3.00884e-07
3.00826e-07
3.00761e-07
3.00728e-07
3.00674e-07
3.00556e-07
3.00561e-07
3.00513e-07
3.00472e-07
3.00469e-07
3.00487e-07
3.00509e-07
3.00541e-07
3.00537e-07
3.00498e-07
3.00555e-07
3.00591e-07
3.0061e-07
3.00659e-07
3.00683e-07
3.00747e-07
3.00747e-07
3.00667e-07
3.0065e-07
3.00658e-07
3.00703e-07
3.00721e-07
3.00739e-07
3.00822e-07
3.00878e-07
3.01083e-07
3.01358e-07
3.0162e-07
3.01928e-07
3.02263e-07
3.02694e-07
3.03149e-07
3.03542e-07
3.03856e-07
3.04068e-07
3.04175e-07
3.0418e-07
3.04128e-07
3.04033e-07
3.03894e-07
3.03766e-07
3.03633e-07
3.03521e-07
3.03396e-07
3.03278e-07
3.03186e-07
3.03152e-07
3.03116e-07
3.49824e-07
3.53369e-07
3.55361e-07
3.43781e-07
3.19557e-07
2.93974e-07
2.83147e-07
2.80182e-07
2.79699e-07
2.80683e-07
2.81485e-07
2.82299e-07
2.83185e-07
2.83956e-07
2.84841e-07
2.85865e-07
2.86974e-07
2.88165e-07
2.89189e-07
2.90047e-07
2.90569e-07
2.90655e-07
2.90535e-07
2.90419e-07
2.90087e-07
2.90031e-07
2.89701e-07
2.89633e-07
2.89686e-07
2.89729e-07
2.90165e-07
2.90668e-07
2.91453e-07
2.92195e-07
2.92872e-07
2.93356e-07
2.93629e-07
2.93795e-07
2.93836e-07
2.93879e-07
2.93817e-07
2.9378e-07
2.9397e-07
2.94051e-07
2.94165e-07
2.94218e-07
2.94174e-07
2.94045e-07
2.93825e-07
2.93447e-07
2.93132e-07
2.9297e-07
2.92861e-07
2.9282e-07
2.92906e-07
2.92917e-07
2.93024e-07
2.93157e-07
2.93281e-07
2.93471e-07
2.93583e-07
2.93587e-07
2.93585e-07
2.93535e-07
2.93488e-07
2.93512e-07
2.93533e-07
2.93559e-07
2.93583e-07
2.93493e-07
2.9342e-07
2.93328e-07
2.9323e-07
2.93309e-07
2.93805e-07
2.94793e-07
2.9624e-07
2.98024e-07
2.99806e-07
3.01322e-07
3.02309e-07
3.02706e-07
3.02773e-07
3.0265e-07
3.02298e-07
3.01745e-07
3.01167e-07
3.00698e-07
3.00455e-07
3.00319e-07
3.00258e-07
3.00203e-07
3.00299e-07
3.00459e-07
3.0055e-07
3.00676e-07
3.00875e-07
3.0105e-07
3.01155e-07
3.01108e-07
3.01091e-07
3.0109e-07
3.01072e-07
3.01014e-07
3.00951e-07
3.00945e-07
3.00908e-07
3.00846e-07
3.00657e-07
3.00591e-07
3.0057e-07
3.00571e-07
3.0059e-07
3.00627e-07
3.00658e-07
3.00681e-07
3.00647e-07
3.00516e-07
3.00634e-07
3.00687e-07
3.00723e-07
3.00722e-07
3.00794e-07
3.00869e-07
3.00883e-07
3.00805e-07
3.0076e-07
3.00751e-07
3.00812e-07
3.00862e-07
3.00891e-07
3.00968e-07
3.01013e-07
3.01207e-07
3.01496e-07
3.01791e-07
3.02136e-07
3.02477e-07
3.02878e-07
3.03304e-07
3.03708e-07
3.04039e-07
3.04248e-07
3.04341e-07
3.04345e-07
3.04283e-07
3.04171e-07
3.04007e-07
3.03874e-07
3.03743e-07
3.0359e-07
3.03456e-07
3.03341e-07
3.03248e-07
3.03217e-07
3.03186e-07
3.84886e-07
3.59265e-07
3.72032e-07
3.65095e-07
3.4144e-07
3.08021e-07
2.88326e-07
2.81746e-07
2.81306e-07
2.81047e-07
2.82093e-07
2.82452e-07
2.83355e-07
2.84307e-07
2.85322e-07
2.86405e-07
2.87594e-07
2.8876e-07
2.89961e-07
2.90881e-07
2.91502e-07
2.91637e-07
2.9147e-07
2.91232e-07
2.90739e-07
2.90579e-07
2.90138e-07
2.89991e-07
2.89956e-07
2.89969e-07
2.90241e-07
2.90632e-07
2.91361e-07
2.91998e-07
2.9258e-07
2.9304e-07
2.93293e-07
2.93424e-07
2.93442e-07
2.93497e-07
2.93554e-07
2.9375e-07
2.93794e-07
2.9385e-07
2.93935e-07
2.93953e-07
2.93849e-07
2.93673e-07
2.93395e-07
2.9304e-07
2.92731e-07
2.92563e-07
2.9244e-07
2.92333e-07
2.92436e-07
2.92464e-07
2.92674e-07
2.92896e-07
2.93103e-07
2.93204e-07
2.93402e-07
2.93391e-07
2.93392e-07
2.93359e-07
2.93317e-07
2.93348e-07
2.93398e-07
2.93424e-07
2.93459e-07
2.93359e-07
2.93273e-07
2.93174e-07
2.93085e-07
2.93217e-07
2.93776e-07
2.94825e-07
2.96318e-07
2.9805e-07
2.99812e-07
3.01328e-07
3.02349e-07
3.02821e-07
3.02927e-07
3.02826e-07
3.0247e-07
3.01887e-07
3.01254e-07
3.0075e-07
3.00466e-07
3.00305e-07
3.00275e-07
3.00229e-07
3.00316e-07
3.00423e-07
3.00502e-07
3.00528e-07
3.00653e-07
3.00828e-07
3.00984e-07
3.01024e-07
3.01057e-07
3.01078e-07
3.01014e-07
3.00939e-07
3.00846e-07
3.00795e-07
3.00769e-07
3.00715e-07
3.0059e-07
3.00583e-07
3.00566e-07
3.00528e-07
3.00513e-07
3.00532e-07
3.00557e-07
3.00589e-07
3.00591e-07
3.00564e-07
3.00606e-07
3.00628e-07
3.00649e-07
3.00704e-07
3.00731e-07
3.00787e-07
3.00797e-07
3.00722e-07
3.00713e-07
3.00724e-07
3.0077e-07
3.0079e-07
3.00821e-07
3.0091e-07
3.00969e-07
3.01203e-07
3.01475e-07
3.01733e-07
3.02051e-07
3.02388e-07
3.02806e-07
3.03273e-07
3.03682e-07
3.04007e-07
3.04228e-07
3.04345e-07
3.04352e-07
3.04285e-07
3.04172e-07
3.04017e-07
3.03878e-07
3.03731e-07
3.03588e-07
3.03441e-07
3.03306e-07
3.032e-07
3.03146e-07
3.03089e-07
4.208e-07
3.59541e-07
3.74297e-07
3.7127e-07
3.50248e-07
3.17227e-07
2.92813e-07
2.83111e-07
2.81126e-07
2.81813e-07
2.82342e-07
2.82582e-07
2.83407e-07
2.84327e-07
2.85352e-07
2.86485e-07
2.87743e-07
2.89038e-07
2.9031e-07
2.91261e-07
2.91868e-07
2.91982e-07
2.91813e-07
2.91551e-07
2.90983e-07
2.90711e-07
2.9019e-07
2.89982e-07
2.89873e-07
2.89791e-07
2.90089e-07
2.90626e-07
2.91361e-07
2.9207e-07
2.92704e-07
2.93208e-07
2.93513e-07
2.93719e-07
2.93799e-07
2.93818e-07
2.93808e-07
2.93853e-07
2.93984e-07
2.94122e-07
2.94131e-07
2.94121e-07
2.94058e-07
2.93932e-07
2.93666e-07
2.93275e-07
2.92964e-07
2.92775e-07
2.92665e-07