/*--------------------------------*- C++ -*----------------------------------*\
| =========                 |                                                 |
| \\      /  F ield         | OpenFOAM: The Open Source CFD Toolbox           |
|  \\    /   O peration     | Version:  v1912                                 |
|   \\  /    A nd           | Website:  www.openfoam.com                      |
|    \\/     M anipulation  |                                                 |
\*---------------------------------------------------------------------------*/
FoamFile
{
    version     2.0;
    format      ascii;
    class       surfaceScalarField;
    location    "90";
    object      alphaPhi0.water;
}
// * * * * * * * * * * * * * * * * * * * * * * * * * * * * * * * * * * * * * //

dimensions      [0 3 -1 0 0 0 0];
oriented        oriented;


internalField   nonuniform List<scalar> 
28285
(
-0.0860796
0.00135466
-0.0784491
-0.00763048
-0.0674542
-0.0109949
-0.0546194
-0.0128348
-0.0407708
-0.0138486
-0.0264831
-0.0142877
-0.0111497
-0.0153334
0.00508657
-0.0162362
0.0190026
-0.013916
0.0321202
-0.0131176
0.0442398
-0.0121196
0.0552461
-0.0110064
0.0649948
-0.00974868
0.0733765
-0.00838167
0.0803202
-0.0069437
0.085791
-0.00547078
0.0897878
-0.00399682
0.0923413
-0.00255353
0.0935367
-0.00119542
0.0934029
0.000133815
0.0920205
0.00138242
0.0894482
0.00257227
0.0857462
0.003702
0.0809632
0.00478302
0.0751374
0.00582577
0.0683021
0.00683531
0.0604847
0.00781746
0.0517057
0.00877895
0.0420352
0.0096705
0.0315751
0.0104602
0.0204654
0.0111097
0.00888197
0.0115834
-0.00315815
0.0120401
-0.0149596
0.0118015
-0.0265605
0.0116009
-0.0377119
0.0111514
-0.0482357
0.0105238
-0.0579899
0.00975416
-0.0668711
0.00888126
-0.0748024
0.00793125
-0.0817156
0.00691322
-0.087534
0.00581845
-0.0921584
0.00462434
-0.0954567
0.00329829
-0.0972609
0.00180418
-0.0973725
0.00011169
-0.09562
-0.00175255
-0.0917928
-0.00382721
-0.0857421
-0.00605066
-0.0774071
-0.00833504
-0.0668447
-0.0105623
-0.054247
-0.0125977
-0.0399481
-0.0142989
-0.024393
-0.0155551
-0.00830481
-0.0160882
0.0087885
-0.0170933
0.0249094
-0.0161209
0.040095
-0.0151855
0.0537861
-0.0136912
0.0656008
-0.0118147
0.0752318
-0.00963104
0.0824777
-0.00724585
0.0872435
-0.00476577
0.0896159
-0.00237245
0.0895808
3.51278e-05
0.0873262
0.00225462
0.0830936
0.00423257
0.0771774
0.00591622
0.0699378
0.00723953
0.0618023
0.00813551
0.0532667
0.00853564
0.0451331
0.00813355
0.0362196
0.00891357
0.0267173
0.00950227
0.0177588
0.00895853
0.00960851
0.00815026
0.00222722
0.00738129
-0.0042994
0.00652662
-0.010322
0.00602263
-0.0165145
0.00619248
-0.0234375
0.00692295
-0.0305464
0.00710893
-0.0375678
0.00702136
-0.0447876
0.00721983
-0.0527715
0.00798391
-0.0611729
0.00840136
-0.0695399
0.00836701
-0.0773271
0.00778727
-0.0839397
0.00661257
-0.0887861
0.00484644
-0.0913544
0.00256823
-0.091286
-6.83332e-05
-0.0882838
-0.00300222
-0.0823377
-0.0059461
-0.0736037
-0.00873397
-0.0624022
-0.0112016
-0.049198
-0.0132041
-0.0345247
-0.0146733
-0.0190385
-0.0154863
-0.00289419
-0.0161443
0.0130674
-0.0159616
0.0283826
-0.0153152
0.0428783
-0.0144957
0.0563376
-0.0134593
0.0686004
-0.0122628
0.0795531
-0.0109527
0.08909
-0.00953692
0.0970968
-0.0080068
0.103434
-0.00633677
0.107933
-0.00449981
0.110409
-0.00247511
0.110673
-0.000264142
0.10857
0.00210266
0.104023
0.00454679
0.0970119
0.00701135
0.0876425
0.00936934
0.0761321
0.0115104
0.0628325
0.0132996
0.0481437
0.0146888
0.0328026
0.0153411
0.0163744
0.0164283
-0.000360255
0.0167346
-0.0155117
0.0151514
-0.0300089
0.0144972
-0.04308
0.0130711
-0.0546185
0.0115386
-0.0644036
0.00978504
-0.0723706
0.00796702
-0.0785018
0.00613126
-0.0828627
0.00436082
-0.0855484
0.00268573
-0.0866822
0.00113376
-0.08661
-7.21678e-05
-0.0854399
-0.00117004
-0.0834014
-0.00203852
-0.0807611
-0.00264033
-0.077745
-0.00301613
-0.0745396
-0.00320538
-0.0712559
-0.0032837
-0.0679319
-0.00332396
-0.0645627
-0.00336922
-0.0610702
-0.00349247
-0.0572745
-0.0037957
-0.052922
-0.00435256
-0.0477306
-0.00519135
-0.0414381
-0.00629253
-0.033863
-0.00757509
-0.0249098
-0.00895319
-0.0146963
-0.0102135
-0.00350093
-0.0111954
0.00853099
-0.0120319
0.0207491
-0.0122181
0.0327024
-0.0119533
0.0438913
-0.0111888
0.0538896
-0.00999835
0.0624036
-0.00851397
0.0692753
-0.0068717
0.0745049
-0.0052296
0.078225
-0.00372008
0.0806707
-0.00244576
0.0821109
-0.00144012
0.0828736
-0.000762774
0.0832054
-0.000331728
-8.50371e-05
-0.087875
-0.00339673
-0.0793943
-0.0161111
-0.0680456
-0.0223436
-0.0548702
-0.0260102
-0.0405642
-0.0281546
-0.0255659
-0.029286
-0.0104489
-0.0304504
0.0052442
-0.0319293
0.019439
-0.0281108
0.0327612
-0.0264398
0.0450363
-0.0243946
0.0561759
-0.022146
0.0660316
-0.0196044
0.0744934
-0.0168435
0.081489
-0.0139393
0.0869808
-0.0109626
0.0909651
-0.00798115
0.0934642
-0.00505257
0.0946154
-0.00234661
0.0943931
0.000356068
0.0929257
0.00284989
0.090276
0.00522194
0.0865153
0.00746265
0.0816956
0.00960272
0.0758499
0.0116715
0.0690053
0.0136799
0.0611781
0.0156446
0.0523434
0.0176136
0.0425776
0.0194364
0.0319815
0.0210563
0.0207057
0.0223854
0.00897525
0.0233139
-0.00334461
0.02436
-0.0153712
0.023828
-0.0271714
0.0234011
-0.0384891
0.0224691
-0.0491333
0.0211681
-0.0589601
0.0195809
-0.0678738
0.017795
-0.0758147
0.0158721
-0.0827381
0.0138366
-0.0885916
0.011672
-0.0932922
0.00932486
-0.0967087
0.00671486
-0.0986566
0.00375203
-0.0989132
0.000368347
-0.0972879
-0.00337788
-0.0935299
-0.00758522
-0.0874671
-0.0121134
-0.0790222
-0.0167799
-0.0682459
-0.0213387
-0.0553344
-0.0255092
-0.0406315
-0.0290017
-0.0246071
-0.0315795
-0.00790753
-0.0327878
0.00942013
-0.034421
0.0259938
-0.0326946
0.0415422
-0.030734
0.0555278
-0.0276767
0.0675476
-0.0238345
0.0772959
-0.0193793
0.084585
-0.014535
0.0893341
-0.00951482
0.091496
-0.00453439
0.0913414
0.000189809
0.0888783
0.00471771
0.0843739
0.00873691
0.0781333
0.0121568
0.0705091
0.0148638
0.0618913
0.0167533
0.0526798
0.0177471
0.0431183
0.017695
0.034207
0.0178249
0.0251978
0.0185115
0.0165196
0.0176367
0.00862336
0.0160465
0.00151004
0.0144946
-0.00469452
0.0127312
-0.0104973
0.0118254
-0.0162101
0.0119053
-0.0220319
0.0127447
-0.0284405
0.0135175
-0.0357212
0.0143021
-0.0438329
0.0153315
-0.0524619
0.0166129
-0.0614312
0.0173707
-0.0703356
0.0172715
-0.0786212
0.0160728
-0.0856611
0.0136525
-0.0908329
0.0100183
-0.0935894
0.00532467
-0.0935238
-0.000133851
-0.0903882
-0.00613785
-0.0841636
-0.0121707
-0.0750247
-0.0178729
-0.0633359
-0.0228904
-0.049602
-0.026938
-0.0343998
-0.0298755
-0.0183352
-0.0315509
-0.00198089
-0.0324985
0.0141335
-0.0320759
0.0296443
-0.0308261
0.0442338
-0.0290852
0.057721
-0.0269465
0.0699752
-0.024517
0.0809128
-0.0218903
0.0904525
-0.0190766
0.0984928
-0.0160471
0.104893
-0.0127374
0.109474
-0.00908074
0.112025
-0.00502587
0.112331
-0.00057022
0.11021
0.00422356
0.105566
0.0091909
0.0983647
0.0142128
0.0887116
0.0190224
0.0768346
0.0233874
0.063094
0.0270402
0.0479137
0.029869
0.0318684
0.0313864
0.0152631
0.0330335
-0.00132543
0.0333232
-0.0169649
0.0307909
-0.0316253
0.0291576
-0.0448043
0.0262501
-0.0563504
0.0230846
-0.0660782
0.0195129
-0.073931
0.0158198
-0.0799052
0.0121054
-0.0840617
0.00851732
-0.0865401
0.00516417
-0.0875305
0.00212421
-0.0871709
-0.00043179
-0.0857249
-0.00261607
-0.0834446
-0.00431878
-0.0805769
-0.00550807
-0.0773704
-0.00622258
-0.0740361
-0.00653972
-0.0707247
-0.00659505
-0.0675023
-0.00654644
-0.064332
-0.00653948
-0.0610791
-0.00674536
-0.0575188
-0.00735599
-0.0533595
-0.00851184
-0.0482845
-0.0102663
-0.0420038
-0.0125733
-0.0343163
-0.0152626
-0.0251331
-0.0181364
-0.0145887
-0.020758
-0.00294033
-0.0228437
0.00947593
-0.0244482
0.0220914
-0.0248337
0.0343524
-0.0242142
0.0457248
-0.0225612
0.0557589
-0.0200325
0.064152
-0.0169071
0.0707677
-0.0134874
0.0756445
-0.0101063
0.0789675
-0.00704311
0.0810371
-0.00451533
0.0822093
-0.00261238
0.0827993
-0.00135274
0.0830563
-0.000588733
-0.000202811
-0.090557
-0.0116832
-0.0808682
-0.0257999
-0.068904
-0.0343078
-0.0552304
-0.0396838
-0.0404314
-0.0429535
-0.0250035
-0.044714
-0.00972673
-0.0457272
0.00559938
-0.0472554
0.0200735
-0.0425849
0.0336091
-0.0399754
0.0460126
-0.0367981
0.0572833
-0.0334167
0.0672386
-0.0295597
0.075766
-0.0253709
0.0827939
-0.0209672
0.0882855
-0.0164542
0.0922411
-0.0119367
0.0947081
-0.00751958
0.0956943
-0.00333281
0.0954206
0.000629737
0.0938758
0.00439477
0.0911412
0.00795652
0.0873089
0.011295
0.0824324
0.0144791
0.0765355
0.0175685
0.0696123
0.0206031
0.0616566
0.0236004
0.0527235
0.0265467
0.0428355
0.0293244
0.0320808
0.0318109
0.0206021
0.0338641
0.0085662
0.0353498
-0.0036276
0.0365538
-0.0158606
0.0360611
-0.0278
0.0353405
-0.0392165
0.0338855
-0.0499164
0.031868
-0.0597615
0.029426
-0.0686667
0.0267002
-0.0765857
0.0237911
-0.0834887
0.0207395
-0.0893347
0.0175181
-0.0940458
0.014036
-0.0974899
0.0101589
-0.0994775
0.00573967
-0.0997365
0.000627272
-0.0981152
-0.00499914
-0.0943296
-0.0113708
-0.088197
-0.018246
-0.07964
-0.0253369
-0.0687137
-0.032265
-0.0556211
-0.0386018
-0.0407113
-0.0439115
-0.0244545
-0.0478363
-0.00734617
-0.0498962
0.009813
-0.0515801
0.026536
-0.0494176
0.0421799
-0.0463779
0.056232
-0.0417289
0.0682819
-0.0358844
0.0780271
-0.0291244
0.0852794
-0.0217873
0.0899603
-0.0141958
0.0920937
-0.00666778
0.0918374
0.000446114
0.0892756
0.00727948
0.0846706
0.013342
0.0783218
0.0185056
0.0705825
0.0226031
0.0618389
0.0254969
0.0524822
0.0271039
0.0427642
0.0274129
0.0335549
0.0270343
0.0248778
0.0271886
0.0162671
0.0262473
0.00843389
0.0238797
0.00138055
0.0215479
-0.00480219
0.0189139
-0.0105753
0.0175986
-0.0162478
0.0175777
-0.0220793
0.0185763
-0.0285086
0.0199468
-0.035797
0.0215906
-0.043922
0.0234565
-0.0526204
0.0253113
-0.0616573
0.0264075
-0.0706118
0.026226
-0.0789262
0.0243872
-0.0859741
0.0207004
-0.0911313
0.0151755
-0.0938535
0.00804689
-0.0937648
-0.000222615
-0.0905785
-0.00932416
-0.0842955
-0.0184537
-0.0750978
-0.0270706
-0.0633494
-0.0346387
-0.0495562
-0.0407312
-0.0342994
-0.0451324
-0.0181839
-0.0476663
-0.00181154
-0.0488709
0.0143372
-0.0482247
0.0298789
-0.0463678
0.0444963
-0.0437025
0.0580052
-0.0404554
0.0702741
-0.0367859
0.0812177
-0.0328339
0.0907536
-0.0286125
0.0987792
-0.0240727
0.105154
-0.0191121
0.109698
-0.0136244
0.112201
-0.00752914
0.112455
-0.000824139
0.110276
0.00640271
0.105573
0.0138935
0.0983182
0.0214676
0.0886182
0.0287224
0.0767032
0.0353025
0.062932
0.0408114
0.0477336
0.0450674
0.0316942
0.0474258
0.0150995
0.0496282
-0.00146745
0.0498901
-0.0171018
0.0464253
-0.0317505
0.0438062
-0.0449301
0.0394298
-0.056472
0.0346264
-0.0661958
0.0292368
-0.0740418
0.0236657
-0.0800074
0.0180711
-0.084163
0.0126729
-0.0866267
0.00762788
-0.0875427
0.00304012
-0.0872104
-0.000764049
-0.0857867
-0.00403977
-0.0835068
-0.00659863
-0.0806417
-0.00837322
-0.0774348
-0.00942943
-0.0740959
-0.00987862
-0.0707692
-0.00992178
-0.0675186
-0.00979704
-0.0643084
-0.00974967
-0.0610043
-0.0100495
-0.0573828
-0.0109775
-0.0531594
-0.0127352
-0.0480267
-0.0153991
-0.0417049
-0.0188951
-0.0339992
-0.0229683
-0.0248225
-0.0273131
-0.0143176
-0.0312629
-0.00272013
-0.0344411
0.0096106
-0.0367789
0.0221476
-0.0373706
0.034334
-0.0364007
0.0456491
-0.0338764
0.0556514
-0.0300347
0.0640456
-0.0253014
0.0706958
-0.0201376
0.075635
-0.0150455
0.0790345
-0.0104426
0.0811704
-0.00665123
0.0823618
-0.00380382
0.0829352
-0.00192612
0.0831564
-0.00080992
-0.000259596
-0.0939547
-0.0221886
-0.0829672
-0.0367874
-0.0702036
-0.0470714
-0.0559012
-0.0539862
-0.0405537
-0.0583011
-0.0246812
-0.0605865
-0.00898677
-0.0614216
0.00615851
-0.0624007
0.0209168
-0.0573432
0.0347196
-0.0537783
0.0474632
-0.0495417
0.0588704
-0.0448239
0.0688853
-0.0395746
0.0774281
-0.0339136
0.0844337
-0.0279728
0.0898668
-0.0218874
0.0937284
-0.0157983
0.096057
-0.00984818
0.0969133
-0.00418916
0.09657
0.00097307
0.0948684
0.00609636
0.0920183
0.0108067
0.0880976
0.0152156
0.0831568
0.01942
0.0772128
0.0235124
0.0702565
0.0275594
0.0622728
0.0315841
0.0532692
0.0355502
0.0432774
0.0393162
0.0323847
0.0427037
0.0207394
0.0455094
0.0085403
0.0475489
-0.00382975
0.0489238
-0.0162552
0.0484866
-0.0283626
0.0474479
-0.0399132
0.045436
-0.0507066
0.0426615
-0.0606067
0.039326
-0.0695368
0.0356304
-0.0774661
0.0317204
-0.0843822
0.0276556
-0.0902591
0.023395
-0.0950283
0.0188051
-0.0985571
0.0136877
-0.100644
0.00782612
-0.100998
0.000981517
-0.0994661
-0.00653085
-0.095727
-0.01511
-0.0895787
-0.0243944
-0.0809306
-0.033985
-0.0698331
-0.0433624
-0.056493
-0.0519419
-0.0412693
-0.0591352
-0.0246522
-0.0644534
-0.00716176
-0.0673866
0.0102912
-0.0690331
0.0273411
-0.0664674
0.0432604
-0.0622971
0.0575348
-0.0560033
0.0697411
-0.0480907
0.0795762
-0.0389595
0.0868556
-0.0290667
0.0915072
-0.0188474
0.0935461
-0.00870675
0.0931755
0.000816734
0.0904607
0.00999433
0.0856588
0.0181438
0.0790761
0.0250882
0.0710667
0.0306125
0.0620166
0.0345471
0.0523167
0.0368037
0.0423107
0.0374189
0.0324735
0.0368715
0.023851
0.0358111
0.0154648
0.0346335
0.00776971
0.0315749
0.000834223
0.0284834
-0.00510598
0.0248541
-0.0106957
0.0231883
-0.0161411
0.0230231
-0.021802
0.0242371
-0.0281173
0.0262621
-0.035369
0.0288423
-0.0435779
0.0316653
-0.0525144
0.0342479
-0.0618726
0.0357657
-0.0711869
0.0355402
-0.0798644
0.0330647
-0.0872439
0.0280798
-0.0926685
0.0206001
-0.095566
0.0109444
-0.0955271
-0.000261464
-0.0922856
-0.0125657
-0.0858294
-0.0249099
-0.076358
-0.036542
-0.0642642
-0.0467326
-0.050085
-0.0549104
-0.0344401
-0.0607773
-0.0179596
-0.0641468
-0.00131443
-0.0655162
0.0150419
-0.064581
0.0307517
-0.0620776
0.0454754
-0.0584263
0.0590428
-0.0540227
0.0713425
-0.0490856
0.0823088
-0.0438002
0.0918768
-0.0381805
0.0999534
-0.0321493
0.106399
-0.0255575
0.111024
-0.0182498
0.113605
-0.0101101
0.113912
-0.00113114
0.111737
0.00857831
0.106979
0.0186515
0.0995945
0.0288518
0.0896883
0.0386286
0.0774971
0.0474937
0.0633855
0.054923
0.0478124
0.0606405
0.0312705
0.0639677
0.0144712
0.0664275
-0.00223017
0.0665916
-0.0181688
0.0623639
-0.0329864
0.0586239
-0.0462956
0.052739
-0.0578908
0.0462216
-0.0676136
0.0389597
-0.075407
0.0314591
-0.081278
0.023942
-0.0852999
0.0166948
-0.0876105
0.0099385
-0.0883734
0.00380302
-0.0878416
-0.00129583
-0.0862082
-0.00567325
-0.0837231
-0.0090837
-0.0806675
-0.0114288
-0.0773038
-0.0127932
-0.0738612
-0.0133212
-0.0705028
-0.0132802
-0.0673005
-0.0129994
-0.0642112
-0.0128389
-0.0610799
-0.0131809
-0.0576531
-0.0144043
-0.0536098
-0.0167785
-0.048607
-0.0204018
-0.0423362
-0.0251659
-0.0345762
-0.0307282
-0.0252388
-0.0366505
-0.0144823
-0.0420193
-0.00251106
-0.0464124
0.0101858
-0.0494758
0.0231035
-0.0502883
0.0356117
-0.0489089
0.0471549
-0.0454196
0.057264
-0.0401438
0.0656307
-0.0336681
0.0721289
-0.0266358
0.0768163
-0.0197328
0.0799058
-0.0135321
0.0817285
-0.00847393
0.0826595
-0.00473487
0.0830632
-0.00232977
0.0831825
-0.000929225
-0.000283847
-0.0975391
-0.0340668
-0.085228
-0.0490985
-0.0715126
-0.0607869
-0.0564777
-0.0690211
-0.040541
-0.0742377
-0.0241901
-0.0769373
-0.0079423
-0.0776694
0.00691529
-0.0772583
0.0219338
-0.0723617
0.0359446
-0.0677892
0.0488012
-0.0623983
0.0603188
-0.0563415
0.0704084
-0.0496642
0.078989
-0.0424942
0.0859973
-0.0349811
0.0913988
-0.027289
0.0951951
-0.0195945
0.0974236
-0.0120767
0.0981317
-0.00489721
0.0977578
0.00134693
0.0959376
0.00791662
0.0929869
0.0137573
0.0889874
0.0192151
0.0839879
0.0244195
0.0779994
0.0295009
0.0710019
0.0345568
0.062967
0.0396191
0.0538879
0.0446293
0.0437874
0.0494167
0.0327492
0.0537418
0.0209276
0.057331
0.00854587
0.0599306
-0.00402149
0.0614912
-0.0166522
0.0611173
-0.0289414
0.059737
-0.0406366
0.0571313
-0.0515315
0.0535564
-0.0614919
0.0492864
-0.0704517
0.0445902
-0.0783956
0.0396643
-0.0853291
0.0345891
-0.0912423
0.0293082
-0.0960763
0.0236392
-0.0997014
0.0173129
-0.101911
0.0100355
-0.102321
0.00139165
-0.100906
-0.00794598
-0.0972234
-0.0187924
-0.0910607
-0.0305571
-0.0823167
-0.042729
-0.0710374
-0.0546417
-0.0574342
-0.0655451
-0.0418789
-0.0746905
-0.0248839
-0.0814484
-0.00700338
-0.0852672
0.0107823
-0.0868188
0.0281705
-0.0838557
0.0443758
-0.0785024
0.0588766
-0.0705042
0.0712397
-0.0604537
0.0811612
-0.048881
0.0884597
-0.0363652
0.0930637
-0.0234513
0.094994
-0.0106371
0.0945485
0.00126221
0.0916586
0.0128842
0.086652
0.0231504
0.0798369
0.0319034
0.0715691
0.0388803
0.0622425
0.0438737
0.0522642
0.0467821
0.0420194
0.0476637
0.0319798
0.0469111
0.0227943
0.0449965
0.014761
0.0426669
0.00715532
0.0391805
0.000241365
0.0353974
-0.00540864
0.0305041
-0.0108183
0.0285979
-0.0160858
0.0282906
-0.0216192
0.0297705
-0.0278591
0.032502
-0.0350954
0.0360786
-0.0433716
0.0399415
-0.0524852
0.0433614
-0.0621001
0.0453807
-0.0717171
0.0451572
-0.0807088
0.0420565
-0.0883802
0.0357512
-0.0940422
0.0262621
-0.0970868
0.0139889
-0.097126
-0.000222269
-0.0938337
-0.0158579
-0.0872293
-0.0315143
-0.0775252
-0.0462461
-0.0651357
-0.059122
-0.050626
-0.0694202
-0.0346481
-0.0767551
-0.0178589
-0.080936
-0.000958124
-0.082417
0.0155975
-0.0811367
0.0314574
-0.0779374
0.0462835
-0.0732524
0.0599124
-0.0676516
0.0722496
-0.0614228
0.0832442
-0.0547948
0.0928443
-0.0477807
0.100964
-0.0402692
0.107464
-0.0320578
0.11215
-0.0229353
0.114785
-0.0127456
0.115128
-0.00147335
0.112948
0.0107575
0.108142
0.023458
0.100655
0.0363391
0.0905877
0.0486954
0.0781847
0.0598967
0.0638188
0.0692889
0.0479721
0.0764872
0.0311365
0.0808033
0.0141121
0.083452
-0.00277737
0.083481
-0.0189192
0.0785057
-0.0338742
0.0735789
-0.0472873
0.066152
-0.0589344
0.0578687
-0.0686689
0.0486942
-0.076436
0.0392262
-0.0822496
0.0297556
-0.0861921
0.0206374
-0.0884042
0.0121506
-0.0890236
0.00442239
-0.0883489
-0.00197056
-0.0866052
-0.00741691
-0.0839916
-0.0116973
-0.0808117
-0.0146087
-0.0773414
-0.0162635
-0.07382
-0.0168425
-0.0704201
-0.0166801
-0.0672176
-0.0162018
-0.0641693
-0.0158872
-0.0611129
-0.0162373
-0.05778
-0.0177372
-0.0538333
-0.0207253
-0.0489114
-0.0253238
-0.0426884
-0.0313889
-0.0349249
-0.0384917
-0.0255267
-0.0460487
-0.014659
-0.0528871
-0.00251554
-0.0585558
0.0103779
-0.0623692
0.0235026
-0.0634131
0.0361973
-0.0616035
0.0478858
-0.0571081
0.0580841
-0.0503421
0.0664793
-0.0420633
0.0729482
-0.0331047
0.0775586
-0.0243433
0.0805365
-0.01651
0.0822236
-0.010161
0.0830117
-0.005523
0.083276
-0.00259405
0.0832934
-0.000946638
-0.000252906
-0.100862
-0.0463249
-0.087617
-0.0623438
-0.0730611
-0.0753427
-0.0573378
-0.0847444
-0.0408505
-0.090725
-0.0240878
-0.0937001
-0.00758962
-0.0941676
0.00770724
-0.0925552
0.0229416
-0.087596
0.0371496
-0.0819971
0.0501542
-0.075403
0.061794
-0.0679812
0.0719711
-0.0598413
0.0806034
-0.0511265
0.0876273
-0.042005
0.0930078
-0.0326695
0.0967464
-0.0233332
0.0988801
-0.0142104
0.0994439
-0.00546106
0.099029
0.00176184
0.0970932
0.00985244
0.0940451
0.0168054
0.0899688
0.0232915
0.0849135
0.0294747
0.078885
0.0355295
0.071853
0.0415889
0.0637743
0.0476977
0.0546234
0.0537803
0.0444131
0.059627
0.0332231
0.0649318
0.0212128
0.0693414
0.00862262
0.0725208
-0.0041852
0.074299
-0.017044
0.0739761
-0.0295401
0.0722331
-0.041402
0.0689932
-0.0524154
0.0645699
-0.0624484
0.0593194
-0.0714461
0.0535879
-0.0794115
0.0476297
-0.0863709
0.0415485
-0.0923333
0.0352706
-0.0972522
0.028558
-0.101001
0.0210618
-0.103369
0.0124036
-0.103875
0.00189793
-0.102623
-0.00919888
-0.0990328
-0.0223822
-0.0928795
-0.0367104
-0.0840452
-0.0515633
-0.072568
-0.0661189
-0.0586631
-0.07945
-0.042719
-0.0906346
-0.0252766
-0.0988908
-0.00695155
-0.103592
0.011313
-0.105083
0.0291259
-0.101669
0.0456991
-0.0950756
0.0604932
-0.0852983
0.0730649
-0.0730254
0.0831089
-0.0589251
0.0904481
-0.0437044
0.0950177
-0.0280209
0.0968451
-0.0124646
0.0962496
0.00185776
0.0931869
0.0159469
0.0879434
0.028394
0.0808475
0.0389992
0.0722648
0.047463
0.0626017
0.0535368
0.0522874
0.0570964
0.0417531
0.058198
0.0314804
0.0571838
0.021957
0.0545199
0.013864
0.0507599
0.00639634
0.0466482
-0.000280472
0.0420742
-0.00578092
0.0360046
-0.0109486
0.0337656
-0.0159754
0.0333174
-0.0213154
0.0351106
-0.0274323
0.0386188
-0.0346378
0.0432841
-0.0430036
0.0483074
-0.0523485
0.0527063
-0.0623108
0.0553429
-0.0723515
0.0551979
-0.0817967
0.0515016
-0.0899018
0.0438564
-0.0959293
0.0322896
-0.0992234
0.0172831
-0.0993854
-6.02566e-05
-0.0960592
-0.0191842
-0.0892702
-0.0383033
-0.079252
-0.0562643
-0.0664523
-0.0719217
-0.0514774
-0.0843951
-0.0350271
-0.0932055
-0.0177956
-0.0981674
-0.000524215
-0.0996884
0.0163231
-0.097984
0.0323927
-0.094007
0.0473608
-0.0882205
0.061073
-0.0813638
0.073461
-0.0738108
0.0844981
-0.065832
0.0941535
-0.0574361
0.102353
-0.0484692
0.10896
-0.0386645
0.113768
-0.0277435
0.116525
-0.0155021
0.116961
-0.00190949
0.114817
0.0129013
0.109975
0.0283003
0.102361
0.0439528
0.0920729
0.0589838
0.0793609
0.0726086
0.0646131
0.0840367
0.0483447
0.0927556
0.0310658
0.0980822
0.013646
0.100872
-0.00355954
0.100687
-0.02003
0.0949761
-0.035219
0.088768
-0.0488071
0.0797401
-0.0605495
0.0696111
-0.0703142
0.0584589
-0.0780508
0.0469628
-0.0837828
0.0354877
-0.0875987
0.0244533
-0.0896427
0.0141945
-0.0900486
0.00482827
-0.0891939
-0.00282525
-0.0872418
-0.00936895
-0.0843885
-0.0145506
-0.0809866
-0.0180107
-0.0773299
-0.0199201
-0.0736795
-0.020493
-0.0702267
-0.020133
-0.0670559
-0.0193726
-0.0641232
-0.0188199
-0.0612521
-0.0191084
-0.0581466
-0.0208426
-0.0544298
-0.0244421
-0.0496965
-0.0300571
-0.0435812
-0.0375042
-0.0358057
-0.0462671
-0.0262727
-0.0555817
-0.0151556
-0.0640042
-0.00260824
-0.0711032
0.0107264
-0.0757038
0.0243115
-0.0769982
0.037421
-0.074713
0.0494308
-0.0691179
0.0598186
-0.06073
0.0682523
-0.050497
0.0746133
-0.0394657
0.0789922
-0.0287222
0.0816587
-0.0191764
0.0830126
-0.011515
0.0834973
-0.00600773
0.0835292
-0.00262586
0.0833858
-0.000803295
-0.000160441
-0.104025
-0.0588128
-0.0900678
-0.0763008
-0.0747537
-0.0906569
-0.0583544
-0.101144
-0.0413017
-0.107778
-0.0240875
-0.110914
-0.00722633
-0.111029
0.00855371
-0.108335
0.0240075
-0.10305
0.0384114
-0.096401
0.0515718
-0.0885633
0.0633407
-0.0797502
0.0736152
-0.0701158
0.0823102
-0.0598215
0.0893596
-0.0490544
0.0947266
-0.0380364
0.0984129
-0.0270195
0.100461
-0.0162586
0.100926
-0.00592596
0.10034
0.00234833
0.0983372
0.0118548
0.0951998
0.0199428
0.0910493
0.0274419
0.0859427
0.0345813
0.0798809
0.0415913
0.0728215
0.0486483
0.064704
0.0558152
0.0554833
0.0630009
0.0451592
0.0699511
0.0338053
0.0762857
0.021585
0.0815617
0.00875293
0.0853529
-0.00432951
0.0873814
-0.0174489
0.0870955
-0.0301815
0.0849656
-0.0422334
0.0810451
-0.0533813
0.0757178
-0.0634953
0.0694334
-0.0725338
0.0626264
-0.0805213
0.0556172
-0.0875091
0.0485363
-0.0935288
0.0412903
-0.0985482
0.0335773
-0.102441
0.0249547
-0.104977
0.014939
-0.105677
0.00259828
-0.104603
-0.0102733
-0.101132
-0.0258525
-0.0950056
-0.042837
-0.0860808
-0.0604881
-0.0743848
-0.0778149
-0.0601369
-0.0936979
-0.0437451
-0.107026
-0.0257834
-0.116853
-0.00692364
-0.122452
0.0118962
-0.123903
0.0302078
-0.11998
0.0472136
-0.112081
0.0623508
-0.100436
0.075166
-0.0858406
0.085353
-0.069112
0.09274
-0.0510914
0.0972733
-0.0325541
0.098988
-0.0141792
0.0982054
0.00264031
0.0949524
0.0191999
0.0894431
0.0339033
0.0820295
0.0464129
0.0730918
0.0564007
0.0630531
0.0635754
0.0523682
0.0677812
0.0415061
0.0690601
0.0309641
0.0677258
0.0212128
0.0642712
0.0126666
0.0593061
0.00553749
0.0537773
-0.000778623
0.0483903
-0.00619937
0.0414253
-0.0110899
0.0386561
-0.0158393
0.0380668
-0.0209461
0.0402174
-0.0269127
0.0445854
-0.034081
0.0504525
-0.0425497
0.056776
-0.0521528
0.0623095
-0.0625076
0.0656977
-0.0730342
0.0657245
-0.0830057
0.0614732
-0.0916193
0.0524699
-0.098079
0.0387493
-0.101682
0.0208864
-0.101978
0.000235511
-0.0986317
-0.0225305
-0.0916394
-0.0452956
-0.0812658
-0.0666378
-0.0679988
-0.0851888
-0.052494
-0.0998999
-0.035505
-0.110195
-0.0177702
-0.115902
-8.49368e-05
-0.117374
0.0171035
-0.115172
0.0334072
-0.110311
0.0485309
-0.103344
0.0623321
-0.095165
0.0747728
-0.0862515
0.0858547
-0.0769139
0.0955713
-0.0671526
0.103863
-0.0567605
0.110593
-0.0453944
0.115544
-0.0326952
0.118444
-0.0184018
0.118994
-0.00245997
0.116904
0.014992
0.112034
0.0331702
0.104293
0.0516941
0.0937705
0.0695059
0.0807269
0.0856523
0.0655679
0.0991957
0.0488412
0.109482
0.0310954
0.115828
0.0132217
0.118745
-0.00436973
0.118278
-0.0211913
0.111798
-0.0366405
0.104217
-0.0504155
0.0935151
-0.062261
0.0814566
-0.0720581
0.068256
-0.0797634
0.0546681
-0.0854127
0.041137
-0.0890982
0.0281388
-0.0909791
0.0160754
-0.0911854
0.00503449
-0.0900936
-0.00391697
-0.0879271
-0.0115355
-0.0848445
-0.0176332
-0.0812155
-0.0216397
-0.0773654
-0.0237702
-0.0735769
-0.0242814
-0.0700577
-0.0236523
-0.0669041
-0.0225262
-0.0640727
-0.0216513
-0.0613773
-0.0218037
-0.0584957
-0.0237242
-0.0550143
-0.0279235
-0.0504873
-0.0345841
-0.0445075
-0.043484
-0.0367554
-0.0540192
-0.0271254
-0.0652118
-0.015783
-0.0753467
-0.0028756
-0.0840106
0.0108926
-0.0894719
0.0249276
-0.0910333
0.0384503
-0.0882357
0.050786
-0.0814535
0.0613764
-0.0713204
0.0698746
-0.0589951
0.0761657
-0.0457568
0.08036
-0.0329166
0.0827616
-0.021578
0.0838225
-0.0125758
0.0840285
-0.00621374
0.0838133
-0.00241065
0.0835046
-0.000494668
-1.63677e-05
-0.107174
-0.0715694
-0.0925879
-0.0908872
-0.0765504
-0.106694
-0.0594667
-0.118227
-0.0418174
-0.125427
-0.0241041
-0.128628
-0.00680811
-0.128325
0.00946354
-0.124607
0.0251564
-0.118743
0.0397633
-0.111008
0.0530901
-0.10189
0.0649972
-0.0916572
0.0753791
-0.0804977
0.0841468
-0.0685892
0.0912299
-0.0561375
0.0965881
-0.0433946
0.100223
-0.0306542
0.102182
-0.0182176
0.102531
-0.00627544
0.101774
0.00310536
0.0996891
0.01394
0.0964572
0.0231747
0.0922323
0.0316668
0.0870786
0.0397349
0.080992
0.0476779
0.0739153
0.055725
0.0657675
0.063963
0.0564811
0.0722873
0.0460388
0.0803933
0.0345063
0.0878182
0.0220503
0.0940177
0.00893929
0.0984639
-0.00445572
0.100776
-0.0178755
0.100515
-0.0308791
0.0979692
-0.0431477
0.0933137
-0.0544468
0.0870168
-0.0646488
0.0796354
-0.073728
0.0717057
-0.0817347
0.0636239
-0.0887504
0.055552
-0.094834
0.047374
-0.099971
0.0387144
-0.104037
0.029021
-0.10678
0.0176816
-0.10772
0.00353818
-0.106874
-0.0111186
-0.103563
-0.0291641
-0.0974863
-0.0489135
-0.0884727
-0.0695017
-0.0765347
-0.0897529
-0.061896
-0.108337
-0.0449874
-0.123935
-0.0264211
-0.135419
-0.00692503
-0.141948
0.0125417
-0.14337
0.0314398
-0.138878
0.048954
-0.129596
0.0644936
-0.115975
0.0775939
-0.098941
0.0879483
-0.0794663
0.0953925
-0.0585357
0.0998841
-0.0370457
0.101465
-0.0157605
0.100483
0.00362297
0.0970142
0.0226685
0.0911996
0.0397178
0.0834226
0.0541899
0.0740785
0.0657448
0.0636099
0.0740441
0.0524995
0.0788916
0.0412544
0.0803052
0.0303975
0.0785826
0.0204124
0.0742563
0.0116633
0.0680552
0.00454182
0.0608988
-0.00144723
0.0543794
-0.00668697
0.0466651
-0.0112456
0.0432147
-0.0156545
0.0424757
-0.020468
0.0450309
-0.0262412
0.0503586
-0.0333574
0.0575687
-0.0419455
0.0653641
-0.0518522
0.0722162
-0.0626734
0.0765189
-0.0737841
0.0768352
-0.084395
0.0720841
-0.0936326
0.0617075
-0.100631
0.0457481
-0.104627
0.0248824
-0.105089
0.000696969
-0.101735
-0.0258845
-0.0945105
-0.0525199
-0.0837154
-0.0774329
-0.0698891
-0.0990151
-0.053748
-0.116041
-0.0361101
-0.127832
-0.0177729
-0.134239
0.000414819
-0.135561
0.0180034
-0.132761
0.0345856
-0.126893
0.0498863
-0.118645
0.0637857
-0.109064
0.0762822
-0.0987479
0.0874139
-0.0880456
0.0972046
-0.0769434
0.105612
-0.0651683
0.112503
-0.0522849
0.117645
-0.0378376
0.120739
-0.0214956
0.12145
-0.00317117
0.119447
0.0169954
0.114563
0.0380543
0.106682
0.059575
0.095887
0.0803007
0.0824472
0.099092
0.0667937
0.114849
0.0495121
0.126764
0.0312103
0.13413
0.0127701
0.137186
-0.00530825
0.136356
-0.0225573
0.129047
-0.0383323
0.119992
-0.0523416
0.107524
-0.0643224
0.0934374
-0.0741684
0.078102
-0.0818454
0.062345
-0.0874035
0.0466951
-0.0909461
0.0316814
-0.0926172
0.0177466
-0.0925636
0.00498096
-0.0912042
-0.00527646
-0.0887905
-0.0139491
-0.0854114
-0.0210124
-0.0814899
-0.0255611
-0.077392
-0.0278681
-0.0734257
-0.0282477
-0.069826
-0.027252
-0.0667036
-0.0256485
-0.064018
-0.024337
-0.0615679
-0.0242538
-0.0589978
-0.0262943
-0.0558454
-0.0310759
-0.0516063
-0.0388232
-0.0458137
-0.0492766
-0.0380938
-0.0617391
-0.0283473
-0.0749582
-0.0166745
-0.0870195
-0.00327317
-0.0974119
0.011089
-0.103834
0.0257427
-0.105687
0.0398369
-0.10233
0.0526258
-0.0942424
0.0634983
-0.0821929
0.072082
-0.0675788
0.0782661
-0.0519409
0.0821875
-0.0368379
0.0842093
-0.0235998
0.0848512
-0.0132177
0.0846693
-0.00603182
0.0841185
-0.00185986
0.0835981
2.57071e-05
0.000196241
-0.110429
-0.0846817
-0.095212
-0.106104
-0.0784424
-0.123464
-0.0606442
-0.136026
-0.0423562
-0.143715
-0.0240959
-0.146888
-0.00631811
-0.146103
0.0104484
-0.141373
0.0264079
-0.134702
0.0412312
-0.125831
0.0547364
-0.115395
0.0667918
-0.103713
0.0772913
-0.0909973
0.0861414
-0.0774393
0.0932657
-0.0632617
0.0986181
-0.0487471
0.102199
-0.0342347
0.104059
-0.0200776
0.10427
-0.00648676
0.103348
0.00402769
0.101159
0.0161287
0.0978219
0.0265116
0.0935196
0.0359691
0.0883234
0.0449311
0.0822224
0.053779
0.0751416
0.0628059
0.066975
0.0721296
0.0576285
0.0816338
0.0470639
0.090958
0.035336
0.0995461
0.0226143
0.106739
0.00918326
0.111895
-0.00456641
0.114526
-0.0183329
0.114282
-0.0316473
0.111284
-0.044162
0.105828
-0.0556292
0.098484
-0.0659242
0.0899304
-0.0750402
0.0808218
-0.0830585
0.0716422
-0.0900971
0.0625906
-0.0962487
0.0535255
-0.101521
0.0439863
-0.105792
0.0332921
-0.108787
0.0206773
-0.110012
0.00476302
-0.109456
-0.0116748
-0.106348
-0.0322718
-0.100348
-0.0549138
-0.0912474
-0.0786024
-0.0790414
-0.101959
-0.0639582
-0.12342
-0.0464554
-0.141438
-0.0271893
-0.154685
-0.00694729
-0.16219
0.0132629
-0.16358
0.0328409
-0.158456
0.0509425
-0.147697
0.0669444
-0.131977
0.0803704
-0.112367
0.0909138
-0.0900098
0.0984209
-0.0660428
0.102863
-0.0414876
0.104291
-0.0171888
0.103082
0.00483183
0.0993747
0.0263761
0.0932136
0.0458789
0.0850253
0.0623782
0.0752209
0.0755491
0.0642638
0.0850013
0.0526675
0.0904879
0.0409781
0.0919946
0.029752
0.0898087
0.0194973
0.084511
0.0106011
0.0769515
0.00333946
0.0681604
-0.00228621
0.060005
-0.00725457
0.0516334
-0.0114202