/*--------------------------------*- C++ -*----------------------------------*\
| =========                 |                                                 |
| \\      /  F ield         | OpenFOAM: The Open Source CFD Toolbox           |
|  \\    /   O peration     | Version:  v1912                                 |
|   \\  /    A nd           | Website:  www.openfoam.com                      |
|    \\/     M anipulation  |                                                 |
\*---------------------------------------------------------------------------*/
FoamFile
{
    version     2.0;
    format      ascii;
    class       volScalarField;
    location    "80";
    object      omega;
}
// * * * * * * * * * * * * * * * * * * * * * * * * * * * * * * * * * * * * * //

dimensions      [0 0 -1 0 0 0 0];


internalField   nonuniform List<scalar> 
14268
(
14.2908
14.9618
15.5477
16.5061
18.198
20.8794
22.3198
21.6856
20.2355
18.3421
16.4874
14.8322
14.2129
14.7771
17.1724
24.7489
25.6346
23.0979
19.4941
24.1118
31.8697
29.1375
27.5238
20.3761
34.7385
66.2997
83.2125
88.709
109.33
132.068
130.142
89.1337
95.7499
159.857
176.379
126.896
87.6002
200.361
323.378
309.778
254.363
185.196
134.946
80.4826
94.0335
128.452
164.052
191.67
194.998
101.503
82.5414
54.2716
72.12
184.76
266.234
99.7595
53.0323
91.5284
93.5285
136.513
210.756
246.214
161.121
83.6473
64.967
105.589
161.42
166.427
158.309
121.367
96.6482
111.335
140.86
82.1655
68.2415
205.046
284.365
274.024
187.774
222.401
127.306
139.308
187.579
114.448
118.667
207.72
190.641
199.54
142.763
63.2029
158.781
257.409
203.611
100.747
57.8386
73.6277
59.7905
59.1669
154.378
212.805
219.635
193.313
187.55
205.278
5.05397
5.32279
5.59202
5.77924
6.0206
6.53174
6.88134
6.99719
6.91105
6.72059
6.31351
5.74902
5.44368
5.31999
5.68688
7.44899
9.31379
10.4954
9.14522
9.17979
12.0709
10.5706
9.28627
8.91511
19.6297
32.6998
37.829
37.769
38.1792
43.2609
45.5427
40.0309
46.023
56.5419
63.8974
50.0478
49.1635
83.8471
94.7327
97.8135
83.2688
68.7504
60.4857
40.8306
39.3237
51.5032
62.5798
68.5898
65.671
43.3127
45.8656
31.7593
35.0466
76.5969
93.3127
57.7794
41.0231
45.3427
54.3351
56.9907
74.0741
78.5833
71.2396
50.6065
37.839
47.0182
65.8599
70.3293
67.5812
56.8767
52.5494
53.2333
56.9007
53.8903
63.7104
100.522
109.424
109.475
69.8048
88.6807
51.4527
52.3567
62.7219
51.252
57.6292
72.4216
67.1583
73.4145
65.3484
47.6121
68.8127
94.1424
92.8849
54.1073
36.3564
35.3935
32.8142
35.6034
60.4537
73.9264
77.8222
67.8213
67.0805
77.5241
3.02977
3.22145
3.42131
3.52171
3.63733
3.84953
3.99174
4.13473
4.23641
4.20663
4.0478
3.76312
3.5208
3.36652
3.51068
4.39659
5.71888
7.14992
6.54898
6.15012
7.61915
6.74278
5.93913
6.45457
15.3949
23.0394
26.3025
25.6149
24.3078
26.9391
29.0691
27.3882
31.2124
36.7763
43.2223
34.9654
34.8722
57.0189
61.973
65.4083
54.5323
44.4732
45.3577
30.7112
28.1458
34.9981
41.4053
45.1139
44.285
36.192
38.2329
23.7699
26.3706
57.0642
66.6701
48.6071
39.0344
39.5155
46.89
44.8015
51.7894
51.4628
52.0016
41.7773
29.8951
37.4021
49.6476
52.1805
49.5962
47.2212
55.7219
42.0043
45.4491
136.841
56.6613
69.7214
74.4889
70.0241
46.5681
57.952
36.149
35.7904
42.7847
38.3428
41.319
48.3
45.4029
58.8234
47.1788
39.4802
50.5519
65.5132
74.7234
45.0267
31.2659
30.4192
27.95
27.1498
39.4389
48.6046
52.3829
45.896
45.6734
53.2253
2.24129
2.40067
2.56745
2.64098
2.70889
2.82998
2.91834
3.03473
3.15876
3.18474
3.10374
2.92805
2.73881
2.60067
2.69601
3.31826
4.34452
5.68382
5.37833
4.98739
5.93795
5.24358
4.69385
5.5047
14.2919
19.9318
22.3337
20.9807
18.2651
20.1107
21.9799
21.8873
25.6138
28.3608
33.6577
28.8763
31.2835
47.4755
50.0978
53.5695
44.2925
36.7402
38.9734
26.9811
23.3168
27.9611
32.4571
34.0593
35.1757
35.2926
52.6516
22.8146
23.7645
49.8926
54.7421
44.8951
40.322
36.4088
46.0569
40.3948
46.7009
41.9862
45.5584
39.8063
29.2763
35.074
43.4187
43.928
40.465
45.245
55.105
39.2988
46.7505
138.473
50.0249
56.4763
59.4247
50.933
36.9477
45.1241
36.1333
32.0712
36.44
32.4129
35.9324
40.2767
41.6765
82.2236
57.24
36.1717
42.7883
53.4555
60.5017
42.3178
29.1907
28.4103
29.5336
27.0361
32.7317
37.5756
40.3013
36.4936
37.0905
42.5914
1.83508
1.97825
2.12556
2.18625
2.2268
2.30502
2.36812
2.46173
2.57991
2.62817
2.58657
2.46919
2.32146
2.20598
2.28688
2.81361
3.66635
4.88111
4.72742
4.40646
5.12013
4.47014
4.0604
5.05977
12.9825
17.2025
19.2621
17.7649
15.1478
16.7414
18.2573
18.6999
21.6668
23.7696
27.6725
25.5545
28.7724
39.7214
41.2596
43.6422
37.0953
32.6138
32.1562
23.79
20.8475
24.4816
27.916
29.3343
33.174
37.0468
46.8733
22.8834
24.4451
46.6117
47.3582
43.2081
48.3297
35.008
45.9964
37.3748
41.5905
36.7211
43.0688
37.9808
32.5906
31.7949
39.5429
38.808
37.0681
44.0636
59.2025
36.875
58.0944
108.34
41.1172
50.0878
53.8983
43.3147
32.6912
41.4078
31.6243
35.0677
34.4291
28.7066
33.7961
35.9655
42.9204
60.9597
90.2491
60.2496
39.817
45.394
52.3465
41.9479
28.165
27.6923
30.3742
28.4577
28.4301
31.4538
33.882
30.5325
31.2552
35.2164
1.58938
1.72234
1.85635
1.91087
1.94036
1.99807
2.05187
2.12837
2.22637
2.28472
2.25882
2.17385
2.05714
1.96976
2.0573
2.55601
3.28394
4.36429
4.29673
4.06405
4.64548
4.01761
3.70928
4.86355
12.3676
15.599
17.3283
15.5546
13.2445
14.6681
15.8434
16.4905
19.0392
20.8069
24.2624
23.4758
27.246
34.6851
35.3287
36.2197
31.5292
28.9253
27.3707
21.7495
19.4655
22.3152
24.9573
27.0119
35.238
38.7738
40.8811
24.0427
27.8907
46.5365
43.4765
41.9098
44.3267
34.3679
44.7684
35.3796
34.634
33.3846
41.4817
37.2645
38.2625
33.2578
38.6668
37.4215
35.0765
41.7774
55.9348
36.0092
64.1261
97.5347
37.8939
43.8446
50.6175
40.0061
30.9409
37.8874
38.0053
41.8948
31.9409
25.4182
33.8667
33.5652
45.0273
53.7954
71.0126
49.8239
38.808
40.0461
46.7086
42.3764
27.2677
27.3357
30.7012
30.134
26.0556
28.6213
30.9789
27.6126
27.6614
30.1248
1.43025
1.55649
1.68067
1.73134
1.75386
1.80021
1.84948
1.91171
1.99182
2.05234
2.03702
1.97475
1.88192
1.82057
1.92107
2.42894
3.05842
4.0154
4.00811
3.85883
4.36767
3.72964
3.50143
4.77574
11.6152
14.335
15.5779
13.6869
12.1028
13.4663
14.3441
14.8628
17.0351
18.8702
22.1885
22.4686
29.2523
31.7134
32.6372
33.404
28.2557
26.3369
24.1877
20.4023
18.4425
20.6963
23.0467
25.065
43.849
40.956
38.7313
24.907
32.278
46.0419
43.0009
39.1036
41.3617
33.9478
42.2107
34.5641
31.4349
32.4016
37.5037
36.1558
42.4509
64.502
41.1754
37.1206
33.7295
40.2115
54.2345
35.1811
62.049
92.1281
36.6706
39.7479
48.3131
37.4249
29.9235
35.2822
44.6778
52.1716
31.0517
24.1161
32.8736
32.5424
45.3661
49.1944
66.7247
47.4143
37.989
37.019
42.4639
38.5291
25.8557
27.5472
31.4055
30.7949
25.189
27.1337
29.5638
26.252
25.6988
27.3039
1.32021
1.44122
1.5572
1.60603
1.62815
1.66944
1.71793
1.76908
1.83107
1.88757
1.87692
1.83002
1.7568
1.72076
1.84333
2.3802
2.92135
3.76094
3.79731
3.72843
4.19269
3.53843
3.37156
4.76267
11.0769
13.2872
14.0064
12.2935
11.2966
12.6416
13.3197
13.643
15.6552
17.4142
20.7423
22.0637
32.1241
29.4737
30.6738
31.1007
26.3077
25.1967
21.5727
19.4252
17.7048
19.5129
22.0604
24.0812
38.7676
41.8221
37.2989
28.1796
32.6704
42.3538
42.9329
41.3341
39.6882
33.6378
41.7559
32.5413
30.035
33.5089
34.6435
36.0429
44.4524
52.1717
41.1574
36.6479
32.2275
39.017
56.4669
34.7978
58.9807
80.3865
35.6153
42.7932
44.4644
36.0441
29.0217
34.0411
44.4969
40.4024
30.9403
27.1201
33.181
32.217
43.5578
43.5638
55.5574
46.6302
38.5273
35.7638
36.122
34.633
25.6555
26.9285
29.4753
29.7024
24.34
25.492
27.7354
25.1042
24.5438
25.8961
1.24269
1.3596
1.469
1.5167
1.5414
1.58044
1.63034
1.67029
1.71742
1.7687
1.76167
1.72572
1.6691
1.65476
1.80511
2.38559
2.83883
3.57266
3.64601
3.65442
4.0912
3.41439
3.31125
4.74133
10.5666
12.5683
12.6974
11.2882
10.8056
12.1104
12.5963
12.6835
14.5956
16.3474
19.6113
21.5397
35.1155
28.0811
29.1402
29.387
24.8458
23.5566
20.6541
18.5201
17.1069
18.8152
21.1642
22.7255
35.1644
38.7575
37.815
34.7864
32.3753
42.9603
43.8751
46.06
39.1909
33.3956
42.0309
30.9832
28.7832
37.6793
33.0385
34.4727
45.4004
49.3718
40.7152
35.9501
30.4972
38.7791
60.203
33.6642
50.4636
70.5839
36.9949
46.0627
41.2545
35.5682
28.8862
32.9168
43.3702
35.3769
30.5657
29.3338
35.492
32.0624
42.3399
39.5684
48.328
47.1675
38.0731
34.3993
33.9819
33.1861
25.8364
27.0793
28.7273
29.6167
23.32
22.8163
24.2587
23.6688
23.9462
24.9053
1.18664
1.29989
1.40338
1.45075
1.48005
1.52117
1.57367
1.60407
1.63772
1.67968
1.67407
1.64652
1.6054
1.60992
1.79372
2.42636
2.79173
3.42865
3.53096
3.61512
4.03287
3.33954
3.31245
4.73182
10.3543
12.0964
11.618
10.526
10.4113
11.6535
12.0195
12.0821
13.8096
15.496
18.56
21.0789
33.5829
27.0488
27.5779
27.438
23.6939
22.4478
20.7518
18.5308
16.7757
18.5907
20.6411
21.2017
32.5028
36.9838
38.66
40.9852
31.7264
42.2277
45.5324
50.7228
35.6674
32.4886
39.1331
29.7574
28.0803
40.3579
31.0952
33.908
42.2709
47.1743
40.3812
35.7372
29.3901
38.9766
62.0991
32.225
45.7571
62.2148
42.9603
48.537
38.8908
35.6533
30.2457
30.9273
42.6035
31.7695
30.0187
29.2904
37.8492
31.907
39.8329
37.8304
44.7718
46.7777
36.8901
33.2559
32.9289
33.5533
28.2384
27.6539
30.9115
31.2057
22.3135
20.9037
21.8079
22.353
23.6041
24.3237
1.14641
1.2564
1.35469
1.40227
1.43746
1.48286
1.5384
1.55957
1.58188
1.61485
1.60972
1.58867
1.56182
1.58178
1.80323
2.48861
2.76784
3.31831
3.44759
3.60672
4.00918
3.31031
3.3861
4.71147
10.3957
11.7444
10.7177
9.88223
10.1085
11.2871
11.5739
11.6298
13.1373
14.8388
17.5761
20.5632
33.8084
25.9902
25.3764
25.139
22.3723
21.7529
20.4145
18.9993
16.6486
18.6218
20.2445
20.6698
29.6344
34.6765
39.5868
39.9666
31.0659
40.0587
48.2404
57.5348
34.3617
32.2671
37.3378
28.4312
27.4924
42.4351
32.9255
32.9601
40.5081
47.3578
38.0044
34.3164
28.2125
39.2835
54.6082
30.7165
41.2569
55.3327
45.6439
47.0717
35.2662
34.4796
31.9653
28.1552
40.8
29.8871
28.6741
29.3129
36.9993
31.1193
38.1732
37.7203
41.4914
47.021
36.8707
31.2343
32.2812
33.4745
29.6112
28.4218
32.868
32.8771
21.3708
19.4038
19.9847
20.7554
23.0614
23.7746
1.11766
1.22451
1.31791
1.36622
1.40816
1.46089
1.51941
1.53242
1.54353
1.56663
1.56086
1.54526
1.53182
1.56562
1.82798
2.56167
2.75825
3.23203
3.38729
3.61764
4.00853
3.31942
3.5415
4.70332
10.5628
11.8201
10.0735
9.39369
9.83579
10.9751
11.1769
11.2983
12.6445
14.261
16.6033
20.1976
32.9547
24.8664
23.8313
23.3471
20.9257
21.013
20.2162
18.8519
16.3907
18.2262
19.8651
20.2464
26.7999
32.2819
38.2499
40.2111
30.7135
38.6228
47.9686
67.9787
33.0083
32.2914
36.3033
27.4306
27.4041
41.2328
39.1656
32.6699
36.9895
46.5026
36.2403
32.5132
26.917
38.1224
48.6459
29.2817
35.8341
49.352
45.0688
47.1264
31.5494
33.095
33.545
27.6132
38.734
28.8981
27.4654
29.6685
36.585
30.7703
37.5623
38.0298
40.2819
47.8441
34.8686
31.1937
31.3476
34.3611
30.6009
29.6601
34.8447
33.3932
20.5864
18.1243
18.5036
19.0304
21.9442
23.3216
1.09795
1.2018
1.29069
1.34024
1.38961
1.4517
1.51214
1.51777
1.51952
1.53301
1.52604
1.51519
1.51397
1.56004
1.86499
2.63548
2.75827
3.16495
3.34683
3.64837
4.03317
3.3721
3.8088
4.72326
10.6135
11.6947
9.66767
9.07395
9.61943
10.7535
10.8605
11.0741
12.2204
13.7632
15.6838
19.4967
31.2031
23.9745
22.6278
22.3385
19.7457
20.5693
21.7497
19.003
16.2822
18.0154
19.671
19.9445
24.5984
29.6318
37.7642
39.326
30.3933
35.8252
45.9269
67.5848
33.2393
32.4421
34.5245
26.2386
27.0373
37.9845
38.5008
33.1139
36.9457
43.939
35.2684
31.0279
26.015
32.0545
41.526
28.0438
26.2182
44.108
48.6207
43.6301
28.6501
32.602
33.7178
29.3796
38.139
28.1698
27.1363
30.0696
36.2215
29.9908
36.0114
37.6381
40.0336
48.811
32.8085
28.6209
30.6172
36.5543
31.4484
28.9116
36.179
34.0088
19.8982
17.0392
17.3073
17.7061
20.7147
22.7353
1.0852
1.18606
1.27066
1.32193
1.37924
1.45255
1.51398
1.51334
1.50613
1.51021
1.50123
1.49537
1.50488
1.56268
1.91066
2.69821
2.76855
3.11385
3.32156
3.69244
4.07224
3.47204
4.18127
4.78529
10.5802
11.6274
9.48757
8.84482
9.42126
10.5854
10.5772
10.9444
11.8753
13.3068
14.9643
18.8365
30.3885
23.3698
21.7752
21.6993
18.9123
20.304
21.9951
19.1995
16.2876
17.7918
19.7619
19.5604
22.8426
27.1371
37.2271
37.5042
29.3892
33.3799
42.3155
58.4969
32.7613
31.1768
33.614
25.2892
26.8623
36.4451
37.6027
34.0804
35.2698
40.2343
31.5258
29.4813
25.3522
29.0167
38.3916
27.0701
23.2938
40.6871
52.9917
42.9163
26.7734
32.3138
32.9982
31.0081
37.1937
27.7807
27.2212
30.4637
33.6688
28.9728
32.1989
34.8311
36.149
44.1399
31.1169
27.5081
29.9542
37.1867
32.6741
29.7909
36.1203
34.7676
19.2337
16.1136
16.2877
16.6239
19.4509
21.9168
1.07457
1.17109
1.24975
1.30425
1.37444
1.46722
1.52741
1.51877
1.50038
1.49078
1.47825
1.47992
1.50428
1.57808
1.9862
2.77086
2.79937
3.05635
3.30201
3.78338
4.14741
3.70903
4.78229
4.97226
10.935
11.6762
9.28493
8.49126
9.25651
10.4509
10.2654
10.8613
11.4841
12.7272
14.2745
18.0624
28.6398
22.7746
20.7647
20.353
17.9367
20.2492
22.0249
19.3418
16.4029
17.7089
20.1571
19.0502
21.0459
23.0001
35.2199
32.7776
28.8258
30.1773
37.0627
48.8824
32.7983
30.3036
30.027
24.1455
27.2403
28.8454
34.3786
33.5324
30.5998
35.3142
28.7262
27.0014
24.7018
25.9232
34.834
25.6683
21.461
38.3709
52.552
39.9688
24.7689
30.2512
32.1328
30.3776
36.7872
27.6566
27.1473
28.9745
30.351
24.8002
28.4503
28.7048
31.4946
36.6609
28.3934
24.799
28.2571
38.9399
33.0381
35.404
35.8501
34.2288
18.3311
14.9236
14.9835
15.2848
17.5815
19.7554
1.07686
1.16767
1.23942
1.29951
1.38932
1.51374
1.56747
1.55226
1.52054
1.4927
1.47737
1.48701
1.5291
1.62
2.09084
2.81911
2.85775
3.01465
3.31846
3.95035
4.27151
4.27523
5.34851
5.43107
11.1012
11.4892
8.92799
8.17864
9.20045
10.4348
10.0149
10.5889
11.2627
12.1374
13.6827
17.6538
25.9126
22.215
19.621
18.8952
17.0881
19.3994
22.559
19.449
16.6932
19.4296
18.0068
18.6289
19.9469
20.1364
42.3974
29.7073
27.1671
27.4262
32.7263
42.4569
34.0196
30.4589
26.4907
22.7539
25.7074
26.1499
30.9925
29.5797
28.7855
35.1752
28.517
20.9799
22.0514
24.3809
29.4964
24.1975
19.7007
33.3038
47.6092
34.9976
22.4962
29.0506
30.1153
28.9949
36.8589
27.1967
27.228
28.2384
26.736
22.9784
23.5628
23.5154
28.9963
29.2856
26.3969
22.5791
27.2115
42.9105
31.4485
37.5265
33.4439
34.8818
17.4318
13.7344
13.7725
13.9221
15.7775
17.2004
1.091
1.17627
1.24266
1.30929
1.42172
1.58268
1.6212
1.60606
1.56208
1.51723
1.50199
1.51912
1.57951
1.68125
2.18784
2.83037
2.92168
2.99071
3.38069
4.15043
4.52021
4.94361
5.54644
6.06733
10.8925
11.0075
8.56236
7.94055
9.35801
10.8029
9.92433
10.2101
10.9695
11.7831
13.2782
16.9256
23.4079
22.1355
18.5092
17.7205
16.4048
18.9953
22.3722
18.871
16.5419
22.0565
16.6213
17.0267
18.579
19.5002
38.0898
26.9187
24.3494
24.7003
30.4893
36.987
37.3106
29.9921
24.2933
23.0894
28.1446
24.8835
24.9145
26.6914
25.7866
31.8773
28.3182
18.4592
18.7838
22.4908
26.5923
22.3803
18.1125
29.0498
49.0028
30.3501
20.8676
27.7801
28.7597
24.6962
33.8766
27.479
27.2696
28.0169
22.4473
20.6234
23.0683
20.3966
26.838
23.4181
25.5436
19.4502
25.657
37.1441
31.3769
27.6606
29.0329
29.9861
16.6762
12.9044
13.0433
12.9068
14.4543
15.6788
1.11386
1.19339
1.25569
1.32955
1.46831
1.67036
1.68604
1.66579
1.61515
1.5605
1.54881
1.57386
1.65345
1.75771
2.27939
2.84643
2.97027
2.9808
3.47998
4.38893
4.88299
5.44138
5.69449
6.67105
10.4668
10.7006
8.4073
7.84726
9.72765
11.3413
9.87058
9.87742
10.7731
11.4622
12.8469
16.3036
21.5963
21.5025
17.6652
16.8363
15.941
18.9783
22.8656
18.9395
16.2629
20.1841
16.3938
16.5171
17.5511
18.5541
31.2041
23.7805
22.7348
22.7918
28.7663
31.2105
37.1547
27.3155
23.061
23.573
28.6595
23.3477
22.0103
24.1449
22.5571
29.6175
26.3371
17.6527
17.2627
18.1728
24.0048
19.8281
16.5006
25.5777
42.8294
24.73
20.1526
23.5861
24.356
20.5901
30.2165
28.4801
25.2975
25.8279
20.4924
19.3751
22.4053
18.6233
24.0868
22.7179
31.019
17.6793
23.3697
34.4871
30.4344
23.1639
29.8372
27.1474
15.8746
12.3614
12.537
12.1298
13.3099
14.6209
1.14367
1.21748
1.27689
1.35917
1.52931
1.77547
1.75911
1.72472
1.67831
1.62356
1.61734
1.65173
1.75153
1.84918
2.36872
2.89102
3.01271
2.98864
3.60697
4.66434
5.12681
5.55422
5.86296
7.06503
10.0419
10.2546
8.18312
7.92781
10.286
12.0703
9.83535
9.73529
10.5476
11.252
12.52
15.7367
20.8803
21.1969
16.8537
16.2583
15.5974
18.7943
26.6604
19.6729
16.4557
18.2261
16.4468
15.5831
16.6248
17.9895
27.0155
22.0243
21.1751
21.6032
26.7161
29.0888
37.1638
25.6397
20.1102
24.7209
23.0147
21.8196
20.4632
21.9975
21.7212
28.3788
23.894
16.6535
16.7632
16.1794
22.2912
17.406
15.6093
22.853
39.7321
23.2321
19.5099
20.0454
19.0226
18.6914
26.821
26.7301
24.2949
22.3764
19.3492
18.1476
17.3067
17.4826
21.8649
25.7481
35.8642
17.1777
18.6866
28.4702
27.3231
20.2935
30.7251
24.0217
14.8953
11.9147
12.0718
11.5459
12.3849
13.6916
1.17835
1.24675
1.30452
1.39655
1.60496
1.89797
1.83011
1.78322
1.75377
1.70311
1.70332
1.75062
1.87109
1.95499
2.46184
2.95405
3.06064
3.02914
3.77088
4.89413
5.15959
5.42557
5.98709
7.2635
9.74015
10.0084
8.22549
8.09161
10.9415
12.7949
9.81585
9.57531
10.3159
11.0889
12.3908
15.6012
20.8364
20.915
16.284
15.7336
15.5727
18.7502
29.3692
20.5883
16.5347
17.031
16.1624
15.0969
15.8638
18.3491
25.3904
20.8673
19.8899
20.6191
26.9653
28.1323
37.6863
24.8487
16.472
19.2182
18.9708
21.0644
16.8523
19.357
20.4243
28.8687
22.5888
16.3893
15.9673
15.5423
17.9639
14.9727
15.3809
20.2208
37.8644
23.7959
19.1499
18.5443
16.4722
16.9016
24.6996
25.3083
22.239
20.8936
18.6697
16.6674
15.325
16.7537
20.0611
26.461
41.2594
16.6794
15.497
21.1636
20.0572
18.3103
29.5442
21.0572
13.9306
11.5097
11.6533
11.134
11.6536
12.7394
1.21608
1.27975
1.33752
1.44137
1.69795
2.02753
1.89081
1.85166
1.85256
1.80824
1.81942
1.88167
2.01844
2.08165
2.56515
3.02566
3.13107
3.12399
3.95647
4.99758
5.07283
5.31419
6.02777
7.18515
9.41982
9.78977
8.46445
8.34498
11.5668
13.5054
10.0342
9.6629
10.2265
11.1521
12.5006
15.4446
19.8937
20.8222
15.8832
15.3975
15.7237
18.6813
29.8676
20.1125
15.8736
16.2753
16.0669
15.1989
15.2765
18.1997
24.948
19.9895
18.4536
19.9389
23.5721
26.1165
34.3754
20.6719
15.2
15.3112
17.1843
18.4513
15.0676
17.7833
19.5479
27.3724
20.1591
16.2713
15.6792
15.8317
15.1329
13.2783
15.3444
18.3894
34.9381
23.8886
18.2462
17.8896
15.1403
15.3682
24.0959
24.1714
20.9501
20.1229
18.0501
16.2468
14.6516
15.9928
18.436
26.6176
37.9221
16.0225
14.0476
18.2501
17.5646
16.8273
24.436
19.3498
13.1228
11.1348
11.2571
10.8208
11.0812
12.0391
1.46846
1.50962
1.56734
1.75077
2.18341
2.37989
2.12121
2.15151
2.34751
2.43684
2.55316
2.70511
2.87032
3.0655
3.3387
3.51711
3.46961
3.94873
4.47434
4.59437
4.54684
5.21327
5.82248
6.58025
7.45395
7.68045
8.8683
10.004
14.0487
15.5768
12.2593
11.5619
11.2537
11.9734
13.4679
16.6191
14.2496
14.6572
15.486
16.5133
16.2954
16.2085
19.0762
17.6289
14.2944
13.6741
17.861
19.7736
13.6881
14.1503
17.3656
14.7649
16.454
17.4867
20.1668
18.9531
14.1758
10.6719
10.972
11.1825
20.1926
13.1029
10.7366
13.3961
14.6103
16.0998
13.3542
12.599
15.7922
15.8086
11.6338
10.8868
15.4135
16.6584
20.4641
18.4644
12.4697
13.6234
12.371
10.961
15.925
22.7745
15.4255
17.4373
14.5647
14.5608
13.9814
12.2584
12.7294
18.2224
24.9544
13.9508
10.9704
11.9825
12.2219
11.6026
15.0794
12.9656
9.92152
9.46603
9.46482
9.35429
9.10317
9.34701
1.79813
1.8945
2.0695
2.17784
2.29986
2.43438
2.50094
2.55844
2.71952
3.01616
3.3659
3.61124
3.76079
3.86735
4.00403
4.31828
4.91696
5.46774
5.95477
6.94509
8.15054
8.57178
8.54655
7.52159
6.65801
10.1472
11.5415
14.4924
19.0954
17.4118
15.7935
17.1477
16.0463
15.6937
17.7584
23.4438
20.9663
18.3542
18.8915
19.3035
20.7631
23.7845
24.9373
20.5911
18.1412
23.5595
33.5562
42.7253
29.535
13.4019
16.6834
22.142
28.0935
29.0685
31.5428
32.5307
13.336
11.3164
13.9267
13.5563
15.1143
10.9811
12.2768
13.1804
16.0261
16.9437
16.1801
12.4986
17.2285
19.7573
19.923
15.4463
22.4189
21.8915
14.4636
13.4056
14.8863
13.2211
16.765
13.7759
10.7562
10.9681
10.9519
11.7979
11.1298
10.295
12.2452
11.0978
11.0835
12.8497
12.9349
9.73758
10.8363
9.45166
9.00094
9.00292
10.1914
9.40668
8.20135
7.99654
8.19137
8.09286
7.91681
8.04029
2.00313
2.18372
2.45348
2.69425
2.86596
3.02505
3.26188
3.69325
4.558
5.10886
5.09486
4.87555
4.93861
5.83085
6.62701
7.65921
8.01696
7.92704
7.34045
7.41796
8.08296
9.49942
11.4972
14.4593
14.1982
14.2268
14.5987
14.7809
16.9257
16.5858
16.0952
16.3021
17.1512
17.8723
18.9735
20.8518
27.1428
26.2255
25.827
26.0598
25.2593
25.4364
27.6548
25.4179
24.731
26.3234
25.4615
30.6213
32.9948
27.1543
29.2888
30.9607
30.9981
30.3661
31.1485
34.6548
26.808
19.9755
15.9233
14.2175
13.8503
15.1156
19.1156
21.1961
23.4162
20.4156
16.7497
16.9247
16.1639
16.0611
18.8893
25.8076
25.9991
28.2466
24.8752
21.3363
21.5909
22.4763
19.3948
19.9317
11.4704
9.72242
18.1107
14.8268
13.1368
10.842
12.0068
11.4344
11.7502
9.96526
9.61246
9.11465
9.15231
11.3458
12.0132
9.78281
8.63612
8.2932
7.5934
7.59563
7.77064
7.47412
7.30714
7.31204
3.31315
3.42692
3.9732
5.29091
5.90678
6.18515
6.64697
7.54316
8.83246
10.1222
10.9539
11.3098
11.7789
12.4006
12.9912
13.4396
13.9524
14.6176
14.6935
15.1286
16.2091
17.8254
19.6078
20.8155
22.0826
22.541
22.4968
22.1322
21.6891
21.2529
20.6204
19.7329
18.6593
17.3723
16.5471
16.7788
17.9394
17.67
17.219
17.2045
17.6177
18.4854
19.7369
21.4146
21.3062
20.9932
20.1893
20.9887
22.5745
22.7897
26.5299
32.7958
34.8259
35.4188
34.4562
33.9688
28.3642
31.7372
44.5856
76.8704
72.3488
57.8677
41.179
31.8855
25.3407
22.7377
20.582
18.8469
17.3308
16.0116
16.028
16.6796
17.7022
19.7054
21.4366
20.4729
19.524
19.4797
19.5675
20.3291
18.9966
14.6648
16.5986
16.3263
14.1499
15.3991
21.1243
21.1108
15.3029
10.0851
9.38208
10.1147
10.9152
11.3109
12.2934
11.5193
8.36029
8.09786
7.85621
8.3335
9.61554
8.31451
7.75275
7.01473
9.17707
9.81117
10.4754
11.2547
11.6463
12.0125
12.4975
13.2092
14.0408
14.7483
15.1386
15.7455
16.6052
17.5804
18.6933
19.7174
20.5292
20.9856
21.4841
21.494
21.2823
20.7841
20.1061
19.2498
18.1695
16.9679
16.3165
15.6299
15.2406
15.0379
14.6923
14.4693
14.339
14.2678
13.9384
14.1988
14.9956
14.5755
14.6147
14.7196
14.5708
14.1925
14.2092
14.7447
14.4472
14.4968
14.3429
14.3824
14.9727
15.3807
17.5863
22.6633
25.8633
25.0495
26.1552
27.9741
27.2944
25.9911
25.0773
23.7224
22.7426
21.7048
20.779
19.8495
19.2567
18.4428
17.2222
16.3618
15.6068
15.4366
15.2004
14.8455
14.6803
14.5599
14.7927
14.4511
14.0423
13.508
13.9573
15.1632
16.9431
16.8128
15.8913
14.5154
16.3876
32.8999
75.0149
47.9506
24.8945
12.2882
10.2351
11.3226
12.345
11.8558
11.4635
11.2882
9.50259
8.61288
8.88779
9.58287
13.1264
9.50806
10.2532
8.452
13.2716
13.6556
14.1864
14.8787
15.7555
16.6844
17.4693
18.018
18.2666
18.2777
18.2155
18.0692
17.8078
17.4001
16.766
16.009
15.2459
14.7469
14.4622
14.2882
14.1716
14.1543
14.1902
14.2124
14.1688
14.0686
13.9721
13.6888
13.2115
12.6872
12.577
12.556
12.5587
12.3663
12.0911
12.0951
12.1111
12.3332
12.8355
13.3034
13.2701
13.1861
12.9092
13.0052
13.3251
13.5206
13.3699
13.0572
12.9971
12.9488
13.6444
15.405
17.2148
17.3602
17.617
18.4242
19.7024
19.3706
18.8518
18.2802
17.8533
17.4334
17.0178
16.6264
16.174
15.6681
14.9989
14.1962
13.5928
13.3268
13.1829
13.0324
12.9435
12.8275
12.6979
12.4511
12.1403
11.7097
11.0251
10.9593
11.3682
12.4963
12.5058
12.6456
13.2002
14.0204
14.1107
14.041
15.6214
14.2247
12.2369
11.0973
11.6798
12.5947
11.9844
11.3369
10.4983
9.49792
9.5217
10.0416
10.7964
10.2672
9.83248
9.43692
22.7411
21.9588
21.0604
20.0965
19.0736
18.0488
17.0067
15.9442
15.2245
14.6787
14.2116
13.863
13.5757
13.4232
13.4312
13.5032
13.6376
13.8655
14.062
14.0571
13.9497
13.7432
13.4034
12.9617
12.5068
12.0878
11.6703
11.3835
11.0665
10.6893
10.5725
10.5066
10.4447
10.2859
10.2622
10.1766
10.2803
10.4119
10.6557
10.9162
10.9519
10.9058
10.764
10.872
10.8528
10.8913
11.0529
11.3
11.6785
11.6196
12.0033
13.1438
15.2641
16.0469
15.8717
15.444
15.3258
15.1744
15.144
15.2162
15.4595
15.4889
15.3452
15.0239
14.6187
14.1793
13.6552
13.3754
13.3097
13.3104
13.3137
13.2961
13.2112
13.043
12.7973
12.4939
12.0416
11.44
10.7734
10.1314
9.83679
9.88164
9.95198
10.0469
10.0533
9.95233
9.71331
9.52221
9.9095
11.1505
11.6915
11.7795
12.8117
12.9976
12.4547
11.5625
10.6617
9.62517
9.18489
8.74033
8.01278
7.91124
8.53521
9.65786
15.1467
14.8559
14.6327
14.4242
14.215
14.005
13.871
13.8538
13.8291
13.7264
13.5422
13.3128
13.1063
12.9912
12.8947
12.7677
12.5672
12.2703
11.8496
11.3217
10.7017
10.213
9.7366
9.37309
9.01021
8.68632
8.44429
8.20673
7.92463
7.81323
7.70969
7.63109
7.56444
7.53358
7.59699
7.63474
7.71152
7.79499
7.97711
8.04698
8.00568
8.00381
7.98609
8.11643
8.29712
8.52235
8.71757
8.97937
9.37831
9.68761
10.4254
11.6602
13.2947
13.5558
13.3385
12.9914
12.9015
12.9224
13.0321
13.3095
13.6312
13.6504
13.5831
13.4977
13.4292
13.4441
13.5129
13.6969
14.0241
14.1259
14.0642
13.8198
13.3653
12.7839
12.2079
11.6896
11.1395
10.6462
10.1483
9.71359
9.26057
9.05667
8.87724
8.73086
8.58365
8.40716
8.11797
8.08742
8.1976
8.57912
9.32726
10.2757
11.9153
13.4037
13.0465
12.1033
10.917
9.52639
8.47993
8.07327
8.07242
8.16022
8.38299
9.05249
12.4857
12.5598
12.5684
12.4805
12.2623
11.9789
11.7387
11.5161
11.2825
11.01
10.6863
10.3255
10.0046
9.70856
9.39598
9.06246
8.72761
8.40232
8.07381
7.76457
7.45244
7.19033
6.90557
6.65393
6.39636
6.18462
6.05071
5.91987
5.79626
5.74972
5.70094
5.65856
5.60972
5.58961
5.61195
5.62998
5.66886
5.71632
5.79119
5.85493
5.90123
5.95324
5.9976
6.09138
6.18064
6.32115
6.51916
6.80922
7.16424
7.52403
8.27632
9.44295
10.351
10.3423
10.1244
10.0125
10.0316
10.1481
10.4104
10.8106
11.2646
11.6645
12.0199
12.4139
12.7896
13.0932
13.3654
13.5629
13.5924
13.4477
13.0917
12.528
11.8676
11.1472
10.5673
10.1042
9.65269
9.28408
8.9646
8.67246
8.33648
8.02807
7.79691
7.64071
7.49418
7.33275
7.1316
7.01921
7.06803
7.27307
7.66349
8.30411
9.51061
11.6525
12.7166
12.3181
11.3294
9.85182
8.59439
8.13152
7.80956
7.54817
7.51927
7.59132
9.90377
9.68848
9.36872
8.97944
8.62598
8.36136
8.13362
7.91102
7.69052
7.48201
7.28307
7.08693
6.89913
6.70421
6.49252
6.26487
6.03908
5.83002
5.64001
5.4681
5.29816
5.14763
4.98483
4.85482
4.71833
4.62054
4.53883
4.45597
4.38201
4.35055
4.30472
4.28325
4.27352
4.27973
4.28918
4.30463
4.32974
4.3708
4.43278
4.49697
4.54142
4.59332
4.6567
4.74866
4.85307
4.98328
5.12253
5.3054
5.52905
5.82372
6.35528
7.05005
7.48257
7.50469
7.48582
7.54307
7.6818
7.92877
8.30607
8.79657
9.32739
9.857
10.3327
10.8333
11.2575
11.604
11.8038
11.8395
11.7099
11.3668
10.8362
10.1834
9.57645
9.01465
8.59946
8.25802
7.92378
7.65828
7.39721
7.19553
6.97563
6.74193
6.59498
6.49634
6.42504
6.36568
6.29205
6.20119
6.2134
6.31704
6.55053
6.97152
7.64994
8.9178
10.8503
11.6628
11.2747
10.3633
9.20383
8.54837
8.23079
8.07851
7.93888
7.70681
6.54497
6.39631
6.22487
6.03091
5.84215
5.67814
5.52868
5.39115
5.26523
5.1486
5.03437
4.92667
4.8266
4.72106
4.60171
4.47062
4.34062
4.22199
4.11504
4.01651
3.91934
3.82998
3.73241
3.65247
3.5667
3.50385
3.44881
3.39835
3.3621
3.34608
3.32386
3.31732
3.31242
3.31646
3.32558
3.34335
3.37016
3.40922
3.45648
3.50958
3.55981
3.61262
3.67253
3.74273
3.81926
3.91768
4.04084
4.20107
4.38477
4.60145
4.92086
5.30498
5.59156
5.70629
5.79875
5.92824
6.11547
6.38698
6.75311
7.18723
7.62799
8.03477
8.37493
8.7086
8.9986
9.18791
9.27267
9.25639
9.07814
8.73464
8.28828
7.82346
7.43799
7.08739
6.81225
6.55993
6.31894
6.1245
5.94018
5.81061
5.67452
5.58099
5.5439
5.53655
5.54311
5.56483
5.57063
5.57047
5.58755
5.65346
5.7945
6.05794
6.50013
7.21468
8.3849
9.91894
10.3977
10.1091
9.64817
9.16485
8.64181
8.23428
7.98996
7.79354
4.38633
4.3133
4.23773
4.15475
4.07031
3.98731
3.90518
3.82276
3.74541
3.67498
3.60845
3.54531
3.48435
3.42056
3.3503
3.27288
3.19596
3.12634
3.06281
3.0021
2.94215
2.88573
2.82707
2.78158
2.73295
2.70142
2.67005
2.64225
2.61939
2.60872
2.59638
2.59834
2.60565
2.61882
2.63565
2.65675
2.68471
2.72333
2.76774
2.81628
2.86304
2.91278
2.96929
3.03361
3.10447
3.18972
3.28552
3.3998
3.53021
3.69274
3.90861
4.14203
4.33008
4.44988
4.56813
4.71514
4.90044
5.13852
5.42841
5.74351
6.03459
6.29533
6.5151
6.72129
6.87609
6.97557
7.01536
6.98729
6.8601
6.64034
6.3634
6.07872
5.82781
5.59952
5.40948
5.23342
5.07784
4.96214
4.86059
4.80258
4.76507
4.76557
4.79225
4.8448
4.91817
5.0077
5.0932
5.15698
5.21156
5.27636
5.36588
5.51219
5.77259
6.1888
6.82637
7.79352
8.88364
9.14964
9.0251
8.7738
8.57531
8.40259
8.24568
8.07773
3.06427
3.02544
2.98553
2.94118
2.89318
2.84363
2.79423
2.74645
2.70211
2.6591
2.61705
2.57785
2.54183
2.50517
2.46635
2.42493
2.38403
2.34604
2.31047
2.2757
2.24102
2.20822
2.17458
2.14691
2.11756
2.09792
2.07911
2.06466
2.05473
2.0528
2.05335
2.06096
2.07242
2.08812
2.10676
2.13003
2.15929
2.19468
2.23247
2.27371
2.3148
2.35864
2.40732
2.46065
2.5201
2.59063
2.67369
2.77071
2.87841
2.99967
3.1418
3.29406
3.43422
3.55021
3.66876
3.80244
3.956
4.13882
4.34425
4.55649
4.74712
4.91673
5.06411
5.19171
5.28445
5.33925
5.35115
5.3195
5.22759
5.08463
4.91241
4.73942
4.58285
4.44395
4.32984
4.22894
4.15143
4.1048
4.0808
4.08597
4.11327
4.17257
4.26289
4.38155
4.52391
4.68133
4.84013
4.98343
5.10663
5.20158
5.26502
5.32736
5.4372
5.65113
6.00968
6.56788
7.40104
7.89512
7.96747
8.0391
8.14481
8.31862
8.41432
8.32972
2.15528
2.1359
2.11625
2.09444
2.07048
2.04502
2.01918
1.99376
1.96966
1.946
1.92314
1.90262
1.88372
1.86397
1.84304
1.8205
1.7981
1.77689
1.75666
1.73659
1.7166
1.69705
1.67793
1.66255
1.64802
1.63939
1.63124
1.62715
1.62588
1.62863
1.6344
1.64535
1.66026
1.67869
1.70008
1.72512
1.75379
1.78628
1.82062
1.85744
1.89464
1.93464
1.97861
2.02657
2.0796
2.13989
2.20674
2.28038
2.36078
2.45257
2.55751
2.66651
2.76996
2.86558
2.96362
3.07111
3.19084
3.32568
3.46988
3.60942
3.73751
3.85189
3.95051
4.02993
4.08709
4.11617
4.11786
4.0917
4.03204
3.94703
3.84845
3.75236
3.66625
3.59497
3.54159
3.50259
3.48651
3.49179
3.51692
3.5689
3.6485
3.7584
3.9
4.07317
4.27468
4.49584
4.72484
4.958
5.17524
5.31658
5.36558
5.38563
5.43305
5.53203
5.72103
6.06083
6.57086
6.97232
7.36066
7.76404
8.22927
8.62471
8.67098
8.50236
1.53666
1.52769
1.51804
1.5069
1.49457
1.4814
1.46845
1.45582
1.44382
1.43197
1.4205
1.41037
1.40103
1.39142
1.38126
1.37054
1.36003
1.35006
1.34032
1.33045
1.32044
1.31075
1.30184
1.29479
1.28888
1.28611
1.28468
1.28611
1.2897
1.29656
1.30623
1.31977
1.33613
1.35488
1.37561
1.39909
1.42535
1.45382
1.48357
1.51555
1.54835
1.58376
1.62216
1.66354
1.70902
1.75976
1.81575
1.87734
1.94394
2.01678