/*--------------------------------*- C++ -*----------------------------------*\
| =========                 |                                                 |
| \\      /  F ield         | OpenFOAM: The Open Source CFD Toolbox           |
|  \\    /   O peration     | Version:  v1912                                 |
|   \\  /    A nd           | Website:  www.openfoam.com                      |
|    \\/     M anipulation  |                                                 |
\*---------------------------------------------------------------------------*/
FoamFile
{
    version     2.0;
    format      ascii;
    class       volScalarField;
    location    "80";
    object      p;
}
// * * * * * * * * * * * * * * * * * * * * * * * * * * * * * * * * * * * * * //

dimensions      [1 -1 -2 0 0 0 0];


internalField   nonuniform List<scalar> 
14268
(
12825.7
12583.1
12335.7
12080.2
11816.4
11544
11247.1
10939.5
10647.1
10365.2
10097.4
9840.94
9588.68
9347.59
9112.22
8873.85
8603.22
8362.19
8108.19
7838.04
7544.04
7298.26
7050.35
6831.15
6563.37
6376.57
6061.01
5853.5
5683.01
5524.27
5121.55
4890.19
4502.05
4646.91
4288.18
4208.71
3734.33
3747.15
4033.94
3640.52
3177.08
2848.1
2659.33
2379.5
2215.42
2068.36
1898.42
2096.2
2060.73
1646.18
1629.29
1566.67
1588.3
1642.85
1533.27
1160.07
1083.33
960.73
963.842
934.923
779.977
765.561
674.315
582.838
585.037
497.945
529.278
450.484
400.711
355.881
323.27
303.138
332.785
270.251
229.667
224.923
240.085
241.742
197.728
206.33
194.016
188.387
170.912
134.697
118.352
111.361
101.884
88.3085
74.6261
65.8094
63.2947
66.5805
38.1389
38.8196
40.2075
28.006
22.1624
13.4416
9.98927
8.62569
6.73111
5.59641
5.4387
6.1215
12723.6
12481
12233.5
11977.9
11713.9
11441.2
11143.8
10836.2
10544.1
10262.6
9994.97
9738.72
9486.54
9245.47
9009.97
8771.27
8500.34
8259.47
8005.58
7734.8
7439.5
7194.29
6946.05
6727.96
6468.07
6265.65
5944.38
5728.74
5536.57
5343.11
4944.85
4763.16
4374.96
4444.68
4038.24
4046.6
3645.85
3626.76
3819.23
3432.17
3022.41
2754.38
2595.13
2313.2
2135.19
1967.45
1767.15
1934.89
1887.23
1567.97
1553.96
1505.88
1539.25
1584.54
1438.97
1123.58
1051.21
931.52
939.084
883.428
732.831
715.668
644.057
552.032
559.278
465.213
489.252
418.162
369.317
334.936
308.677
289.077
320.361
257.566
223.264
216.469
226.248
224.387
185.329
181.562
182.63
176.33
160.246
129.395
112.949
103.609
93.9565
80.8444
70.3562
63.1335
59.3691
59.6176
34.5397
37.0409
38.3211
25.7773
20.191
11.5795
8.12634
6.52985
4.37675
3.73881
3.56853
4.02917
12622.1
12379.5
12132
11876.4
11612.3
11339.5
11042.2
10734.6
10442.6
10160.9
9893.35
9637.11
9384.95
9143.91
8908.58
8669.95
8399.19
8158.05
7904.13
7633.09
7337.87
7092.86
6844.8
6625.69
6372.2
6170.33
5849.41
5638.13
5455.25
5246.76
4852.35
4674.69
4283.35
4353.11
3930.42
3967.49
3560.14
3547.95
3634.8
3280.72
2937.04
2696.41
2546.82
2256.62
2083.35
1919.84
1720.51
1873.61
1803.21
1525.86
1511.09
1456.43
1488.56
1560.07
1357.21
1094.58
1019.8
910.874
907.818
859.406
687.835
667.55
621.75
536.695
543.55
435.231
461.852
403.935
367.509
328.29
301.086
282.336
312.184
247.206
217.72
213.192
220.726
221.709
182.514
180.94
176.969
170.424
152.384
124.53
108.985
97.0655
90.4761
78.102
68.3515
61.1321
57.9739
56.0254
33.4731
35.5114
36.72
23.923
18.7908
9.97326
7.64082
5.97838
4.00083
3.19904
2.936
3.1682
12520.1
12277.5
12029.9
11774.2
11510.1
11237.2
10939.5
10631.9
10339.9
10058.6
9791.17
9535.05
9282.94
9042.02
8806.61
8567.83
8296.78
8055.63
7801.72
7530.26
7234.19
6989.89
6741.92
6521.07
6272.37
6065.62
5736.84
5527.6
5337.08
5103.48
4707.64
4564.24
4168.85
4202.02
3786.07
3833.88
3470.82
3318.15
3618.4
3206.23
2829.87
2639.77
2431.23
2161.16
2007.07
1843.61
1607.23
1746.38
1719.91
1448.44
1447.85
1392.19
1433.52
1503.69
1236.53
1054.72
993.126
887.445
888.644
837.502
654.744
610.588
594.077
507.286
516.869
398.777
394.259
343.497
340.567
312.386
290.89
265.997
307.429
241.083
206.92
195.45
196.248
207.355
174.891
146.137
169.375
162.558
142.989
115.698
103.389
92.1351
90.69
76.704
66.0802
58.9273
54.1874
42.1132
28.964
32.9783
33.6475
21.6908
16.7232
8.63469
6.59096
5.06291
2.93594
2.33462
2.0596
2.30228
12418.6
12176
11928.5
11672.8
11408.5
11135.5
10837.9
10530.3
10238.6
9956.92
9689.58
9433.46
9181.37
8940.45
8705.28
8466.53
8195.67
7954.34
7700.35
7428.49
7132.61
6888.61
6640.79
6417.11
6177.61
5987.85
5666.16
5453.3
5244.84
4999.37
4615.57
4480.69
4092.64
4108.89
3701.51
3753.29
3439.64
3369.36
3623.34
3255.71
2832.53
2612.52
2412.87
2104.96
1954.32
1808.16
1583.66
1663.03
1688.13
1396.91
1414.15
1326.43
1394.36
1386.72
1290.29
989.15
970.802
863.431
839.674
814.201
680.514
629.053
553.084
483.029
505.99
401.697
425.34
337.091
278.679
301.751
282.957
262.733
310.062
236.956
194.724
171.346
154.85
180.815
156.113
101.603
164.566
158.163
145.135
114.881
96.4002
91.1533
87.4693
75.1268
63.8307
57.8497
53.496
42.8043
24.0378
30.3078
30.0984
19.7005
15.7427
7.68516
5.87947
4.10407
1.73481
1.60945
1.47533
2.18141
12316.8
12074.1
11826.5
11570.8
11306.5
11033.5
10735.6
10427.8
10135.9
9854.7
9587.48
9331.47
9079.43
8838.65
8603.4
8364.53
8093.57
7852.14
7598.14
7325.79
7029.41
6785.98
6538.36
6309.75
6082.07
5884.17
5572.19
5355.93
5126.66
4866.06
4478.04
4364.74
3974.33
3936.76
3331.94
3588.27
3368.56
3361.06
3208.42
2919.73
2679.73
2489.68
2394.02
2068.62
1894.06
1741.37
1524.14
1633.03
1632.76
1304.08
1368.86
1249.29
1358.84
1298.95
1348.36
939.202
954.104
829.302
653.398
707.172
622.973
617.15
396.873
457.274
477.854
389.41
422.824
357.787
240.875
244.192
273.76
254.576
294.323
232.727
177.314
184.069
149.406
102.976
143.024
105.148
158.813
149.746
131.266
112.978
86.1277
86.7805
84.4643
70.9431
60.7196
56.8615
51.2866
44.1036
24.2134
23.9161
27.7938
15.3664
12.7298
6.32226
4.33416
0.273047
-2.84964
-1.20057
0.285079
0.86004
12215.2
11972.6
11725
11469.3
11204.9
10931.8
10633.8
10326.1
10034.7
9753.02
9485.87
9229.86
8977.82
8737.08
8502.1
8263.22
7992.41
7750.64
7496.62
7223.95
6927.69
6684.78
6437.04
6199.31
5988.43
5802.1
5498.17
5273.59
5018.34
4732.69
4357.51
4269.17
3882.83
3832.62
3162.45
3420.39
3304.36
3313.97
2864.26
2472.07
2394.52
2363.78
2369.61
2034.49
1844.31
1689.39
1469.93
1559.54
1602.13
1225.98
1334.1
1225.29
1327.42
1421.63
1353.7
963.206
932.446
773.341
631.568
450.424
557.767
615.834
382.031
362.536
466.556
370.355
429.547
359.118
246.622
184.052
261.012
225.391
241.799
229.725
160.146
186.381
183.133
78.1214
143.575
110.874
154.45
144.282
113.639
111.517
87.1131
84.3284
80.1985
69.1815
59.6964
55.8415
51.2905
45.1778
27.088
22.1896
27.4171
9.21526
7.14411
4.3692
2.64675
-0.790351
-4.18027
-3.90817
-1.47763
-1.36223
12113.5
11870.8
11623.2
11367.4
11102.9
10829.9
10531.8
10223.7
9931.92
9650.85
9383.77
9127.85
8875.86
8635.26
8400.27
8161.31
7890.56
7648.64
7394.61
7121.28
6824.81
6582.45
6335.21
6084.45
5891.15
5694.34
5393.62
5168.87
4885.33
4564.8
4192.14
4158.55
3763.19
3695.34
3104.07
3220.81
3198.87
3158.49
2911.2
2445.14
2232.97
2288.3
2311.91
1963.1
1771.14
1617.47
1394.18
1527.3
1555.33
1002.49
1282.14
1200.85
1288.71
1370.2
1315.95
978.884
881.719
749.706
724.134
414.767
478.961
592.275
402.025
222.2
433.559
359.845
383.314
312.023
256.033
151.929
236.389
177.643
114.095
226.818
147.006
179.697
167.637
93.7826
148.645
115.881
148.29
137.185
99.9103
107.394
89.37
77.9632
49.191
66.6847
55.0781
54.6112
48.9999
45.4113
24.05
23.5753
26.7842
13.2475
10.4651
5.04473
3.21824
2.29304
0.339739
-2.73027
-5.91933
-8.2798
12011.9
11769.2
11521.7
11265.9
11001.4
10728.3
10429.9
10121.9
9830.65
9549.18
9282.15
9026.24
8774.25
8533.72
8298.99
8060.04
7789.37
7547.02
7292.99
7019.35
6723.1
6481.44
6233.9
5972.73
5792.74
5603.59
5303.02
5074.42
4775.86
4479.87
4092.22
4062.04
3663.98
3582.69
3110.76
3217.84
3030.05
3049.14
3127.42
2579.74
2219.72
2325.03
2245.37
1920.3
1741.03
1574.04
1384.76
1578.63
1487.46
999.751
1216.09
1165.28
1237.51
1356.25
1290.76
958.676
823.366
775.755
805.059
461.259
490.323
577.872
423.55
254.055
341.547
340.863
250.409
178.43
202.671
118.406
225.667
160.545
104.484
225.552
135.274
174.273
101.053
122.373
155.483
125.963
138.502
132.49
104.054
104.103
87.0781
57.189
1.31158
56.9613
49.2664
53.7165
46.333
42.1012
21.1126
23.7268
25.5153
14.8894
12.0666
5.35183
3.13039
1.9545
0.132231
-3.0475
-12.1148
-12.5195
11910.1
11667.5
11419.9
11164
10899.5
10626.5
10327.9
10019.7
9727.96
9446.99
9180.03
8924.21
8672.26
8431.9
8197.27
7958.18
7687.79
7445.09
7191.09
6916.7
6620.48
6379.46
6132.25
5863.9
5692.45
5495.36
5197.17
4965.5
4662.79
4405.03
4008.07
3954.86
3526.81
3389.44
3043.81
3229.39
3030.33
2933.72
3244.86
2778.21
2276.21
2307.17
2173.3
1874.12
1690.09
1507.94
1299.79
1382.9
1427
932.94
1048.21
1135.37
1212.28
1414.21
1264.78
941.82
837.921
719.26
791.165
483.022
485.506
547.432
448.199
295.507
365.404
310.861
153.893
24.1184
180.671
129.259
140.655
144.304
140.694
223.551
122.903
171.175
68.38
163.298
154.413
105.048
129.649
124.759
104.861
99.0176
78.8922
6.12643
-15.9377
20.9921
48.0701
51.9821
36.9395
34.4468
20.9565
22.5283
24.1708
13.1132
11.6056
4.72176
2.42137
0.533442
-1.21479
-2.19387
-13.0637
-15.4093
11808.5
11565.9
11318.4
11062.5
10797.9
10524.9
10226.1
9917.8
9626.61
9345.28
9078.4
8822.58
8570.61
8330.3
8096.04
7857.06
7586.55
7343.46
7089.39
6814.72
6518.9
6278.51
6031.36
5764.36
5591.79
5389.04
5101.59
4870.74
4582.5
4335.04
3944.22
3853.31
3431.79
3319.9
3071.55
3241.42
3069.62
2997.66
3094.79
2752.67
2368.24
2249.16
2125.23
1825.99
1645.24
1442.31
1197.49
722.142
1393.01
894.665
803.902
1108.94
1180.07
1291.2
1249.64
923.231
853.912
640.3
764.469
494.006
412.424
529.142
453.03
354.973
386.849
283.901
218.464
56.919
201.844
171.553
188.532
134.648
183.718
220.629
115.453
167.506
82.6806
170.599
146.084
107.917
135.931
116.12
101.142
94.9159
76.4947
-13.8101
-3.00096
-35.7579
39.015
50.5484
20.6547
35.0371
21.5113
21.5316
22.8058
8.0438
10.8429
4.15457
1.82754
0.191552
-1.77115
-1.2885
-5.5203
-13.5691
11706.8
11464.2
11216.6
10960.8
10696.1
10423.2
10124.1
9815.65
9523.96
9243.13
8976.3
8720.56
8468.65
8228.46
7994.42
7755.5
7484.89
7241.73
6987.56
6712.08
6416.47
6176.72
5930.14
5670.13
5491.41
5268.12
4987.88
4764.14
4499.19
4257.16
3862.85
3724.39
3347.86
3280.51
3066.83
3166.02
2980.31
2997.66
2970.56
2479.78
2309.84
2143.42
2090.61
1763.56
1565.21
1338.76
1020.84
441.678
1348.24
898.936
771.924
1084.16
1154.72
770.554
1129.82
908.978
836.232
678.641
725.432
492.369
355.453
442.374
446.339
354.795
376.894
184.213
292.717
87.1353
190.833
216.073
211.786
95.8406
209.805
221.059
112.283
159.331
82.9091
156.362
141.043
109.123
133.29
109.617
102.777
92.561
60.6653
0.139485
14.8211
-39.4735
36.5187
44.5491
20.0855
36.6428
20.0515
20.5052
20.3906
-0.288912
9.53039
3.31849
0.914977
-0.64126
-2.8782
-2.32609
-4.29989
-11.9794
11605.2
11362.7
11115.1
10859.2
10594.5
10321.7
10022.3
9713.68
9422.54
9141.34
8874.55
8618.82
8366.93
8126.83
7893.23
7654.57
7383.74
7140.14
6885.83
6610.1
6314.75
6075.77
5829.46
5576.6
5388.17
5149.97
4867.8
4649.1
4426.67
4186.53
3789.41
3589.81
3270.03
3255.06
3001.87
3169.89
2895.39
2922.74
2802.48
1996.4
2116.42
2028.85
2034.66
1700.96
1536.83
1267.75
1024.55
594.67
1329.59
924.421
857.43
1082.34
1137.08
568.892
664.866
896.739
779.062
751.181
519.219
506.845
394.965
437.643
427.476
350.037
376.265
116.734
325.49
133.62
149.694
196.722
199.538
73.0101
206.88
210.891
109.942
162.164
85.7155
119.19
133.6
102.848
125.129
107.27
102.64
89.7299
17.0698
39.4139
43.4613
35.3801
50.5746
28.5325
22.9044
31.1558
18.3781
19.2073
17.976
0.914382
8.20326
2.54625
0.284997
-1.05447
-3.31932
-2.99976
-3.83009
-8.21003
11503.5
11261
11013.4
10757.5
10492.7
10220.1
9920.43
9611.56
9319.92
9039.21
8772.51
8516.85
8264.97
8024.98
7791.69
7553.23
7282.37
7038.42
6784.04
6507.49
6212.23
5973.87
5728.71
5481.93
5276.93
5032.28
4735.22
4536.72
4340.88
4106.75
3696.49
3446.34
3166.56
3198.65
2790.37
3096.92
2793.23
2708.04
2001.12
1256.81
1751.63
1984.45
1963.11
1633.37
1502.16
1281.16
1062.11
641.053
1260.24
931.552
953.6
1051.57
941.985
645.803
511.18
824.769
759.211
726.641
353.196
515.471
445.648
488.064
390.12
329.116
363.965
147.198
319.802
192.137
149.185
133.747
179.098
14.4287
164.753
155.337
107.66
157.115
89.7471
25.5759
100.84
98.1252
118.378
107.435
97.2978
83.1621
15.5281
52.9604
46.1668
48.6279
48.9785
24.5323
24.8045
18.926
17.3965
17.9758
15.8883
3.16736
4.67613
1.80067
-0.0506213
-2.0321
-4.15579
-3.93487
-3.74105
-4.76498
11351.1
11108.7
10861.2
10605.3
10340.4
10067.9
9767.79
9458.56
9167.69
8886.43
8619.78
8364.15
8112.31
7872.53
7639.9
7401.79
7131.17
6886.05
6631.43
6354.56
6059.94
5822.69
5578.06
5338.34
5101.39
4851.76
4537.2
4389.81
4211.42
3980.62
3554.42
3217.47
2972.57
3067.61
2294.69
2892.1
2419.31
2114.26
1211.27
1354.34
1505.12
2004.84
1845.95
1510.07
1461.26
1319.46
1152.05
924.86
924.645
914.856
979.46
914.685
607.234
654.731
667.156
675.326
760.29
681.939
391.222
542.4
466.488
466.946
356.852
243.562
328.092
222.071
305.151
221.91
193.88
76.2095
59.7139
18.3725
70.9988
35.0196
104.878
118.764
98.2208
-2.75826
45.8411
92.8689
103.133
109.085
87.9979
54.1681
43.2819
55.3134
43.668
48.5516
43.945
27.9056
27.4962
13.7169
14.4488
14.1605
7.96784
5.56816
-2.57132
-1.65101
-1.17047
-2.75604
-4.83833
-4.64401
-4.32239
-3.57649
11147.7
10905.4
10657.9
10402
10137.1
9864.85
9564.08
9254.33
8962.48
8682.17
8415.67
8160.17
7908.37
7668.79
7436.55
7199.66
6928.16
6682.75
6427.9
6149.61
5856.85
5619.55
5375.28
5141.13
4878.97
4644.89
4348.84
4201.13
4021.45
3798.91
3360.04
3038.03
2699.13
2794.65
2078.54
2506.44
2150.4
2077.97
1386.66
1325.87
1458.31
1875.17
1671.98
1368.73
1308.9
1257.93
1112.77
1151.81
443.062
841.911
942.464
838.485
827.511
679.718
710.806
758.855
719.502
595.135
437.868
470.392
422.295
392.159
377.967
265.507
312.97
232.061
277.465
205.894
189.443
119.211
33.0452
69.1399
42.0261
-27.3275
94.5076
62.5966
95.6577
43.5274
32.6321
87.9147
53.0754
98.2637
77.0195
47.7587
54.3998
44.2338
42.8016
45.7872
33.8394
28.0309
25.7474
18.2727
7.00387
1.00578
2.88335
5.18122
-2.05215
-10.1022
-5.3428
-4.83946
-8.17871
-6.13603
-5.48098
-5.20966
10944.5
10702.4
10454.9
10199.1
9934.14
9662.15
9360.61
9050.3
8759.34
8478.36
8211.94
7956.49
7704.68
7465.42
7233.79
6994.05
6724.21
6479.8
6224.43
5946.36
5656.8
5417.3
5164.11
4942.86
4683.04
4478.74
4194.36
4018.3
3842.57
3625.58
3184.14
2958.28
2532.64
2585.2
2098
2373.4
2235.78
2402.53
1458.03
1398.6
1390.96
1783.7
1680.39
1371.43
1249.59
1221.17
1068.68
1067.83
535.056
801.364
920.334
852.028
723.556
703.114
862.995
754.434
694.735
365.18
485.213
395.026
397.884
282.382
351.587
268.996
315.881
219.569
231.042
195.535
179.212
139.192
63.4697
98.6281
74.6068
-4.73661
59.9065
79.0203
87.1263
97.2309
88.5738
83.2091
49.7595
84.085
62.9118
61.1653
52.6848
43.119
39.1405
41.8741
7.36048
25.8163
22.9354
15.898
6.68215
5.23434
6.13812
4.06326
0.408084
-5.34304
-7.07355
-9.13595
-12.9764
-7.5763
-6.20836
-6.48217
10741.1
10499.2
10251.8
9995.85
9731.05
9459.53
9157.04
8846.16
8554.2
8274.1
8007.75
7752.47
7500.7
7261.67
7030.5
6785.79
6517.68
6276.78
6021.07
5742.52
5454.06
5214.09
4946
4743.84
4511.98
4318.84
4033.01
3834.36
3660.25
3441.99
3009.2
2879.42
2422.19
2431.93
2004.74
2453.84
2367.4
2415.89
1506.6
1461.18
1272.7
1692.38
1661.14
1387.56
1202
1157.89
1014.78
885.054
648.892
766.78
869.289
740.149
504.408
709.376
903.491
691.718
615.262
396.766
533.396
416.189
385.218
274.451
321.273
203.696
256.333
208.703
198.612
176.936
159.148
132.803
94.0591
105.09
86.3626
29.1646
72.176
100.2
79.4619
96.478
93.1873
76.3593
57.1179
47.0148
29.6788
63.5987
44.3177
40.8319
37.87
36.4421
3.86743
21.3655
20.9886
13.4687
12.9019
8.47374
6.7672
2.99976
-0.357876
-3.16949
-6.20374
-15.7798
-17.4783
-9.44706
-7.11051
-7.4702
10537.9
10296.2
10048.9
9793.07
9528.31
9257.1
8953.6
8642.26
8351.02
8070.28
7803.95
7548.72
7296.91
7058.19
6828.08
6579.09
6313.13
6073.97
5818.01
5540.71
5252.55
5012.83
4732.27
4545.49
4346.59
4158.49
3872.95
3648.37
3474.85
3253.49
2828.55
2762.94
2342.69
2360.09
1942.32
2371.52
2356.51
2243.95
1569.25
1494.81
1298.81
1526.91
1612.36
1333.52
1191.67
1108.1
945.118
903.659
716.118
730.632
819.344
520.636
594.097
684.995
761.65
582.224
448.503
458.239
521.225
402.329
373.011
297.33
335.843
220.67
132.466
190.606
191.736
169.982
151.722
124.74
97.5793
98.0994
86.1645
57.9281
78.9646
94.9697
71.5497
89.473
85.9336
72.1044
58.9829
46.3775
8.14666
54.7032
36.6934
41.0465
34.1906
22.3468
7.36473
18.4422
18.0049
12.6065
12.6476
7.52611
5.42605
2.00213
-1.80199
-3.35244
-5.88167
-17.0936
-18.1317
-12.4008
-8.07213
-7.20088
10334.5
10093.1
9845.89
9590
9325.53
9055.02
8750.24
8438.44
8146.1
7865.96
7599.88
7344.8
7093.01
6854.42
6627.27
6375.33
6110.47
5871.8
5615.43
5338.08
5051.72
4807.07
4531.14
4345.67
4179.99
3990.59
3693.59
3447.84
3286
3067.88
2636.98
2587.72
2256.62
2277.35
1868.25
2097.77
2251.65
1819.59
1578.07
1630.79
1395.31
1357.42
1462.81
1277.45
1126.82
1062.33
918.642
911.876
692.971
692.023
764.997
370.085
737.615
688.237
554.04
558.244
525.335
539.391
486.634
380.927
349.69
278.718
310.976
208.251
107.858
155.951
178.917
157.088
138.554
113.839
91.1998
90.1107
78.0787
78.995
75.487
87.7194
45.9226
74.6677
72.8223
65.4021
51.1475
46.7121
26.9191
39.2754
34.3665
38.2263
32.7505
11.7889
8.92164
15.4683
12.7215
11.704
10.7115
6.71314
4.36427
1.05677
-2.51846
-4.07201
-6.79462
-16.5539
-18.2101
-17.2055
-9.42082
-8.44962
10131.5
9890.18
9643.01
9387.35
9123.08
8852.66
8546.57
8234.72
7943
7662.2
7396.11
7141.02
6889.16
6650.88
6427.58
6176.71
5910.36
5669.86
5413.31
5136.58
4854.37
4610.17
4342.54
4143.7
3989.38
3794.93
3496.83
3251.99
3096.35
2871.95
2454.91
2422.47
2126.71
2195.66
1822.03
1896.77
2123.55
1115.91
1565.98
1594.39
1406.04
1260.75
1088.34
1221.17
1069.83
1018.92
896.704
879.743
655.894
660.227
700.396
396.631
778.169
711.988
611.083
556.431
557.519
529.477
459.766
364.45
337.448
262.389
289.338
161.181
116.805
133.187
164.685
143.407
130.104
109.379
84.2066
81.6289
71.688
80.0836
71.4548
82.0027
34.28
50.019
59.8434
49.7727
44.7196
45.6097
38.8042
30.6779
34.881
35.6354
29.5421
9.08223
10.8718
12.0572
12.1095
10.6868
8.80899
5.73178
3.3507
0.320777
-3.1029
-4.81892
-8.04709
-16.6201
-17.9452
-20.4033
-11.333
-9.42264
8907.66
8671.36
8427.14
8173.19
7913.68
7651.58
7344.93
7028.59
6731.99
6454.53
6193.4
5941.57
5693.02
5457.65
5243.68
5012.34
4738.95
4500.34
4248.75
3971.38
3696.63
3458.52
3226.92
3027.7
2937
2694.08
2387.94
2224.18
2081.64
1866.65
1552.38
1586.08
1360.45
1572.23
1306.17
1499.48
1133.89
1033.82
1295.9
1332.81
1160.34
1019.15
775.105
655.167
612.065
582.609
639.001
648.604
668.848
519.753
535.845
547.715
672.035
586.177
467.679
437.473
499.605
357.342
291.091
234.277
214.032
190.393
172.942
146.305
111.669
113.517
109.107
82.0555
71.0928
55.5164
51.0248
50.1775
39.031
37.641
39.8382
50.0385
52.5897
34.0738
27.1899
27.5913
28.8758
30.1645
28.0564
24.2942
21.4173
18.4048
18.8619
14.2737
14.1476
8.06636
8.02588
4.25877
1.12842
-1.17068
-2.98059
-5.45521
-6.50212
-8.04021
-11.7729
-16.5264
-18.1104
-21.6848
-20.3398
-17.9795
6679.44
6442.68
6206.66
5966.16
5711.75
5440.45
5148.34
4855.84
4567.22
4283.39
4017.65
3772.52
3546.34
3334.38
3130.81
2904.68
2656.24
2442.31
2247.07
2038.96
1838.12
1638.47
1517.84
1385.87
1228.88
945.586
811.437
757.09
677.704
455.836
409.771
482.375
369.655
376.994
410.342
402.901
389.56
300.92
336.556
378.486
338.341
275.8
328.743
337.219
280.567
256.252
242.025
173.018
234.918
201.411
150.594
154.907
241.484
314.773
187.676
226.641
172.557
133.97
108.809
86.3332
74.1598
41.406
31.0053
24.0567
26.1733
22.0511
14.4467
17.8135
9.33583
9.85646
6.70304
3.72939
7.41873
2.421
-2.36206
10.1363
6.725
4.46484
2.66936
2.40747
8.33555
-3.20388
-1.20245
-0.190718
-0.779351
-0.945512
0.428365
-0.119762
-0.843361
-2.46925
-4.71919
-3.55357
-4.55523
-6.97301
-8.57543
-10.7209
-12.1793
-13.4827
-17.0201
-17.9089
-18.7487
-20.5432
-24.0611
-24.7797
4447.31
4224.23
3994.56
3759.36
3519.25
3267.16
2999.89
2736.4
2492.82
2253.84
2026.34
1831.21
1657.87
1492.62
1316.29
1137.51
1024.75
955.687
823.442
672.246
534.951
423.36
350.155
281.814
216.329
113.687
100.385
108.689
130.063
46.1137
7.80428
23.4645
24.5312
48.0195
56.7287
71.1168
30.2494
-65.3585
5.59093
38.8958
39.2619
28.0336
35.7122
13.0142
-6.2758
0.323977
21.9124
31.6861
25.5626
-5.17077
-8.57075
34.3013
71.1761
87.8314
51.6794
43.2398
33.9923
18.6974
18.3501
14.8281
8.58034
-4.76578
-5.58699
-3.2187
-3.2022
-7.84954
-13.7992
-13.1033
-10.1236
-5.40093
-6.3246
-8.74783
-11.2945
-11.7601
-13.6761
-17.8878
-11.1255
-7.84029
-9.68594
-8.88864
-8.7493
-14.5864
-14.2689
-11.577
-9.90473
-9.08521
-8.59166
-8.69717
-8.39899
-8.58354
-9.96164
-9.43681
-10.502
-10.7646
-11.4033
-14.4807
-17.0775
-20.5211
-21.3757
-20.7791
-21.5113
-22.5273
-24.2257
-25.3538
2308.75
2122.29
1936.48
1744.4
1531
1297.07
1125.4
1009.64
912.171
792.112
653.36
531.664
441.167
367.577
296.943
233.814
187.593
151.451
116.353
81.7311
55.6666
44.9168
44.1452
35.64
20.0591
8.10755
6.78924
10.8854
5.03611
-5.32413
-8.38465
-5.74334
-1.93774
2.0477
5.25635
1.49385
-13.8156
-16.6927
-9.22564
-3.53619
-4.50716
-7.73431
-10.3393
-14.0442
-13.0624
-8.97044
-4.67585
-5.3302
-12.1967
-19.5922
-18.5371
-13.5851
-3.99499
3.10915
1.10547
-2.70452
-17.5213
-21.6345
-15.7484
-14.1142
-15.4578
-15.8464
-12.957
-7.86492
-9.22141
-14.9914
-18.8461
-17.506
-13.2135
-9.14261
-9.80332
-12.9947
-15.0921
-17.4298
-22.5942
-23.2916
-16.0668
-12.5718
-12.5053
-15.2845
-17.2125
-20.0781
-22.6252
-17.0851
-15.1747
-16.206
-16.5002
-14.5433
-13.2599
-13.6178
-14.9486
-15.2487
-15.2484
-16.3082
-17.8576
-19.3537
-21.1407
-23.9054
-25.2532
-25.7385
-25.4244
-25.5881
-25.7043
-25.3585
719.066
629.594
539.536
437.57
323.732
226.915
176.26
153.856
135.757
115.274
89.5929
62.103
43.6953
32.0841
23.7013
18.1998
15.3384
11.8159
8.27106
3.96644
0.318908
-1.38888
-2.24461
-3.46319
-5.04868
-6.0883
-6.61378
-3.98748
-4.63241
-7.48247
-10.0347
-10.5264
-9.01555
-6.39161
-3.34978
-5.56209
-12.9101
-17.8467
-15.9836
-10.9565
-8.99236
-10.2124
-11.8318
-14.5376
-19.0964
-17.3647
-14.5589
-10.1822
-13.7552
-18.3427
-21.7856
-18.7894
-11.5908
-7.68424
-8.09607
-11.9291
-20.1376
-23.5454
-21.5036
-20.7612
-20.2865
-19.3678
-17.1158
-14.2532
-14.5798
-17.3412
-20.0896
-20.3359
-18.0202
-15.6475
-14.9041
-16.3359
-17.845
-19.7254
-21.5787
-22.491
-19.0978
-16.7076
-16.4822
-18.3145
-20.4073
-22.0675
-23.7222
-21.4102
-20.9902
-22.3201
-20.9826
-18.7282
-16.8838
-18.8995
-22.0476
-22.5283
-19.8438
-20.3159
-21.6144
-23.0499
-24.7298
-28.1705
-30.7637
-29.6079
-28.609
-29.08
-29.7414
-29.4996
89.5098
74.127
57.65
41.28
26.8804
18.1975
15.5328
14.0678
13.094
9.98697
5.27609
0.39156
-3.01891
-4.96981
-5.95217
-6.60443
-6.92956
-6.8803
-6.93106
-7.35625
-7.80332
-7.94331
-7.64998
-7.26847
-7.54096
-8.34604
-8.75614
-9.18504
-9.68934
-10.7304
-11.4202
-11.4877
-10.8734
-10.5895
-10.5552
-11.8427
-13.8637
-14.6892
-13.6327
-12.7973
-12.9704
-13.8371
-14.8177
-15.561
-15.6554
-15.7462
-15.955
-15.904
-18.0758
-20.8608
-20.6204
-17.5413
-14.508
-13.5651
-12.9525
-15.1066
-19.553
-22.6878
-22.1592
-21.646
-21.3412
-20.841
-19.6559
-18.5261
-18.1991
-19.7009
-21.0817
-21.0138
-19.5112
-18.0233
-17.9762
-18.9633
-20.2744
-21.4579
-22.8406
-23.1784
-21.6444
-20.1487
-20.1308
-21.2583
-22.6491
-23.9313
-25.4876
-24.2933
-23.4114
-23.7175
-23.3365
-22.007
-20.9032
-22.6696
-26.3727
-27.1905
-24.7034
-23.6989
-24.6327
-26.0389
-28.02
-30.8339
-32.6766
-32.6818
-32.2394
-32.1354
-31.8224
-31.3427
0.521593
-1.22886
-3.20636
-5.29878
-6.983
-8.10567
-8.00605
-6.79024
-5.77497
-5.6032
-6.27546
-7.3695
-8.50418
-9.30254
-9.75088
-9.91898
-9.83727
-9.56006
-9.54598
-9.70635
-9.95174
-10.2406
-10.576
-11.052
-11.6995
-12.2337
-12.6413
-12.8108
-12.9744
-13.4745
-14.0082
-14.4282
-14.5386
-14.8756
-14.4475
-14.9268
-15.764
-17.0421
-17.6149
-17.3692
-16.9135
-17.2261
-17.7887
-18.372
-19.4648
-20.2575
-20.3898
-20.549
-21.0503
-23.4003
-22.9803
-20.7109
-18.135
-16.7981
-16.987
-18.6028
-20.8985
-22.7955
-23.1405
-22.9894
-22.8275
-22.6733
-22.4833
-22.3262
-22.2183
-22.8414
-23.6689
-23.67
-22.8929
-22.0137
-21.8134
-22.3302
-23.1705
-23.9797
-24.7621
-24.827
-24.2452
-23.6868
-23.8458
-24.439
-25.3155
-26.2329
-26.7681
-26.3508
-25.8925
-26.268
-25.9831
-25.2473
-24.876
-26.1027
-28.8826
-30.3737
-29.2053
-27.0974
-27.7499
-28.9815
-30.8663
-33.2964
-35.307
-35.7643
-35.2174
-34.9693
-34.6166
-34.1981
-8.89306
-9.27747
-9.61304
-10.0204
-10.337
-10.5568
-10.3387
-9.78363
-9.48456
-9.497
-9.85042
-10.4976
-11.2098
-11.8094
-12.2398
-12.5314
-12.7518
-12.9085
-13.0613
-13.2191
-13.4493
-13.6739
-13.9266
-14.1374
-14.3673
-14.6778
-15.0171
-15.3094
-15.7009
-16.0965
-16.5039
-16.7308
-16.821
-17.0865
-17.2169
-17.7171
-18.2966
-18.8977
-18.895
-18.7447
-18.9221
-19.264
-19.7852
-20.2146
-20.7804
-21.2926
-21.5896
-22.217
-23.0573
-24.2501
-24.3704
-22.9157
-21.5462
-20.5852
-20.9144
-21.7908
-22.9165
-24.0523
-24.6912
-24.8264
-24.9216
-25.2093
-25.4958
-25.6414
-25.7161
-25.8908
-26.1846
-25.9557
-25.3106
-24.8034
-24.6865
-25.0356
-25.6117
-26.2144
-26.6875
-26.8617
-26.8353
-26.7262
-26.7994
-27.0824
-27.6852
-28.1746
-28.6216
-28.5956
-28.463
-28.596
-28.5522
-28.5789
-28.4034
-29.2624
-31.1137
-32.1043
-31.4523
-30.665
-30.8123
-31.915
-33.5947
-35.7654
-37.5504
-38.2008
-37.7883
-37.3625
-36.6989
-35.7966
-11.5981
-11.9208
-12.1856
-12.4709
-12.8094
-13.0697
-13.1822
-13.2019
-13.2419
-13.3601
-13.5942
-13.9411
-14.362
-14.7698
-15.1143
-15.361
-15.5149
-15.5808
-15.6358
-15.7367
-15.9099
-16.1263
-16.3814
-16.6866
-17.0304
-17.4155
-17.7434
-18.0571
-18.3188
-18.6249
-18.9843
-19.3099
-19.5728
-19.9166
-20.0036
-20.3623
-20.7986
-21.3263
-21.6952
-21.8587
-21.9645
-22.1948
-22.6235
-22.9758
-23.6027
-24.2103
-24.7337
-25.2553
-25.7712
-26.7106
-26.436
-25.4656
-24.4813
-23.8424
-23.8659
-24.3367
-25.0573
-25.9444
-26.5666
-26.8953
-27.2609
-27.6185
-27.9275
-28.1259
-28.4983
-28.6886
-28.6137
-28.4209
-28.0442
-27.7621
-27.715
-27.9682
-28.3508
-28.7627
-29.1514
-29.3051
-29.3503
-29.3896
-29.4244
-29.6878
-30.1283
-30.4731
-30.8227
-30.9547
-30.9729
-31.1416
-31.36
-31.28
-31.5572
-32.4369
-33.545
-34.0958
-34.1779
-33.9624
-34.2061
-34.9423
-36.3965
-38.2122
-39.6409
-40.2947
-39.922
-39.3306
-38.7136
-38.123
-14.4465
-14.8115
-15.1045
-15.3691
-15.6133
-15.816
-15.9502
-15.9887
-16.0006
-16.0754
-16.2428
-16.5287
-16.862
-17.1904
-17.4754
-17.7115
-17.9063
-18.0694
-18.2211
-18.3963
-18.6064
-18.8287
-19.0904
-19.3374
-19.6124
-19.9004
-20.1855
-20.474
-20.7887
-21.1061
-21.4284
-21.7043
-21.9717
-22.1979
-22.4763
-22.821
-23.1599
-23.495
-23.6841
-23.8131
-24.0215
-24.3017
-24.6833
-25.0802
-25.5848
-26.0325
-26.4915
-26.9364
-27.4453
-27.8277
-27.9262
-27.5495
-27.0181
-26.7037
-26.7456
-27.0416
-27.5316
-28.1366
-28.6492
-29.0295
-29.4061
-29.8016
-30.2191
-30.5158
-30.8326
-31.0271
-30.9515
-30.8502
-30.6402
-30.4448
-30.3643
-30.4933
-30.7288
-31.0134
-31.289
-31.4197
-31.5765
-31.6515
-31.8258
-32.107
-32.4406
-32.7427
-33.048
-33.2761
-33.4549
-33.6947
-33.9393
-34.1591
-34.622
-35.2936
-36.0309
-36.558
-36.7932
-36.9777
-37.3003
-37.9428
-39.0383
-40.6464
-41.7969
-42.1873
-42.2742
-41.434
-40.6023
-40.0876
-16.9646
-17.2883
-17.5502
-17.7962
-18.0312
-18.2322
-18.3912
-18.5113
-18.6308
-18.7782
-18.9873
-19.246
-19.5317
-19.8145
-20.0602
-20.2778
-20.4605
-20.6153
-20.7687
-20.9374
-21.1348
-21.3478
-21.5928
-21.855
-22.1417
-22.4455
-22.7441
-23.0519
-23.338
-23.6304
-23.9325
-24.2155
-24.504
-24.7738
-25.0511
-25.3418
-25.6606
-25.9858
-26.2792
-26.5303
-26.7717
-27.0616
-27.4079
-27.7729
-28.2249
-28.6895
-29.151
-29.5691
-29.9745
-30.3064
-30.2482
-29.9352
-29.5306
-29.2767
-29.2691
-29.471
-29.8552
-30.3386
-30.796
-31.2079
-31.6251
-32.0089
-32.3926
-32.783
-33.0399
-33.1373
-33.2068
-33.1485
-33.0164
-32.906
-32.875
-32.9759
-33.1461
-33.3682
-33.5834
-33.7534
-33.9058
-34.0585
-34.2423
-34.4767
-34.7667
-35.0448
-35.3348
-35.6062
-35.855
-36.1328
-36.476
-36.8559
-37.3632
-37.9382
-38.6045
-39.1943
-39.4574
-39.7624
-40.1297
-40.6653
-41.4464
-42.7275
-43.4472
-44.084
-44.1186
-43.0356
-42.3469
-42.1327
-19.496
-19.8145
-20.0942
-20.3534
-20.5825
-20.7865
-20.9566
-21.1017
-21.2403
-21.3955
-21.5801
-21.7966
-22.0367
-22.2785
-22.5086
-22.7244
-22.9262
-23.1171
-23.3045
-23.5015
-23.714
-23.9418
-24.1948
-24.4455
-24.7202
-24.9917
-25.269
-25.5479
-25.8258
-26.1092
-26.401
-26.6803
-26.9492
-27.2152
-27.4825
-27.7587
-28.036
-28.3031
-28.5409
-28.7627
-29.0073
-29.2902
-29.6199
-29.9744
-30.378
-30.7521
-31.1433
-31.4968
-31.8256
-31.993
-32.0971
-32.0214
-31.8475
-31.763
-31.8151
-31.9948
-32.3102
-32.7016
-33.1014
-33.4919
-33.8886
-34.2673
-34.6561
-34.9928
-35.2071
-35.386
-35.4493
-35.4148
-35.3371
-35.2589
-35.2407
-35.3087
-35.4314
-35.6059
-35.7932
-35.9703
-36.1533
-36.3253
-36.5253
-36.7619
-37.0414
-37.3124
-37.5932
-37.8928
-38.2028
-38.541
-38.9511
-39.4191
-39.9727
-40.5607
-41.2147
-41.8039
-42.183
-42.4364
-42.7118
-43.116
-43.7502
-44.0936
-44.7614
-45.5795
-45.0457
-44.3083
-44.2122
-44.2359
-22.0087
-22.3083
-22.5764
-22.8224
-23.0511
-23.2607
-23.4527
-23.6316
-23.8061
-23.9892
-24.1909
-24.4124
-24.6453
-24.8772
-25.0993
-25.3064
-25.5036
-25.6933
-25.8839
-26.0814
-26.2913
-26.5113
-26.7495
-26.9932
-27.2563
-27.5241
-27.7987
-28.0772
-28.3512
-28.6266
-28.9061
-29.1696
-29.4391
-29.7075
-29.9779
-30.2516
-30.5276
-30.799
-31.0699
-31.3335
-31.6034
-31.8943
-32.2072
-32.5441
-32.9107
-33.2794
-33.6373
-33.9628
-34.2546
-34.4778
-34.4739
-34.3977
-34.2821
-34.2416
-34.3075
-34.4756
-34.7522
-35.0868
-35.4471
-35.8137
-36.1822
-36.5399
-36.8962
-37.1749
-37.384
-37.5499
-37.6227
-37.6282
-37.5969
-37.5637
-37.5755
-37.6433
-37.7563
-37.9135
-38.0841
-38.2618
-38.4483
-38.6334
-38.8402
-39.0686
-39.339
-39.6007
-39.8937
-40.2168
-40.5523
-40.9276
-41.39
-41.922
-42.5098
-43.1294
-43.7889
-44.4314
-44.8541
-45.046
-45.1701
-45.3496
-45.6641
-45.4586
-46.4186
-46.6987
-46.2897
-46.1111
-46.1448
-46.2636
-24.6083
-24.898
-25.1641
-25.4125
-25.6396
-25.8498
-26.0445
-26.2284
-26.4092