/*--------------------------------*- C++ -*----------------------------------*\
| =========                 |                                                 |
| \\      /  F ield         | OpenFOAM: The Open Source CFD Toolbox           |
|  \\    /   O peration     | Version:  v1912                                 |
|   \\  /    A nd           | Website:  www.openfoam.com                      |
|    \\/     M anipulation  |                                                 |
\*---------------------------------------------------------------------------*/
FoamFile
{
    version     2.0;
    format      ascii;
    class       surfaceScalarField;
    location    "80";
    object      phi;
}
// * * * * * * * * * * * * * * * * * * * * * * * * * * * * * * * * * * * * * //

dimensions      [0 3 -1 0 0 0 0];
oriented        oriented;


internalField   nonuniform List<scalar> 
28285
(
0.00028113
1.67413e-05
0.000265803
1.53275e-05
0.000251572
1.4231e-05
0.000244481
7.09049e-06
0.000253024
-8.54263e-06
0.000295441
-4.24171e-05
0.000356721
-6.12799e-05
0.000391337
-3.46167e-05
0.000394953
-3.61574e-06
0.000377805
1.71482e-05
0.000357505
2.03e-05
0.00034
1.75051e-05
0.000316623
2.33769e-05
0.000304327
1.22959e-05
0.000320928
-1.66006e-05
0.000353237
-3.23092e-05
0.000324886
2.83513e-05
0.000248079
7.68062e-05
0.000203277
4.48027e-05
0.000195802
7.47477e-06
0.000145229
5.0573e-05
0.000127401
1.78277e-05
0.000204408
-7.70072e-05
0.000189272
1.51359e-05
-5.21776e-05
0.00024145
-0.000237481
0.000185303
-0.000484573
0.000247092
-0.000644327
0.000159754
-0.000523456
-0.000120872
-0.000144885
-0.00037857
4.98894e-05
-0.000194775
-0.000204465
0.000254355
-0.000544624
0.000340159
-0.000360399
-0.000184226
-0.000139382
-0.000221017
-0.000135173
-4.20923e-06
-0.000660649
0.000525476
-0.00093005
0.000269403
-0.000205916
-0.000724128
0.000261978
-0.000467894
0.000246641
1.53357e-05
-2.88519e-05
0.000275492
-0.000529663
0.000500808
-0.000902118
0.000372455
-0.000931793
2.96751e-05
-0.000970255
3.84629e-05
-0.000959738
-1.05173e-05
-0.000397876
-0.000561861
0.000375144
-0.00077302
0.000416119
-4.09763e-05
8.11777e-05
0.000334942
-0.000236317
0.000317494
-0.000536478
0.000300161
-0.000139911
-0.000396567
0.000415353
-0.000555264
-0.000251829
0.000667182
-0.000911352
0.000659523
-0.000773007
-0.000138346
-0.000436791
-0.000336216
-0.000204057
-0.000232734
-0.000167779
-3.62776e-05
-8.36163e-05
-8.41628e-05
-0.000352889
0.000269275
-0.00077842
0.000425531
-0.000962659
0.00018424
-0.00114478
0.000182118
-0.00082823
-0.000316549
-0.000559632
-0.000268596
-0.000444542
-0.000115088
-0.000528981
8.44364e-05
-0.000880985
0.000352004
-0.000937985
5.70013e-05
-2.53959e-05
-0.000912601
0.000546535
-0.000571931
-0.000405725
0.000952265
-0.000883981
0.000478229
-0.000138535
-0.000745437
4.20137e-05
-0.000180546
1.21552e-05
2.98468e-05
0.000350192
-0.000338039
0.000216351
0.00013384
0.00020825
8.10092e-06
0.000503709
-0.000295459
0.0001486
0.000355112
-0.000270546
0.000419145
-0.000291621
2.10733e-05
6.98578e-06
-0.000298605
0.000412641
-0.00040566
0.000347624
6.50191e-05
-0.000431545
0.00077917
-0.000650807
0.000219261
0.000143876
-0.000794683
0.000278069
-0.00013419
-0.000288178
0.000566249
-0.000644142
0.000355963
-0.000699454
5.53134e-05
-0.00077749
7.80373e-05
-0.00104277
0.000265275
-0.00129246
0.00024969
-0.00109388
-0.000198577
-0.000865255
-0.000228633
-0.000735495
-0.000129758
-0.000701777
-3.37197e-05
-4.47788e-05
-0.000656999
0.000271587
3.44864e-05
0.000255074
3.18403e-05
0.000239288
3.00169e-05
0.000231171
1.52078e-05
0.000242126
-1.94976e-05
0.000286655
-8.69466e-05
0.000349667
-0.000124292
0.000384743
-6.96927e-05
0.000386074
-4.94688e-06
0.000368656
3.45662e-05
0.0003485
4.04556e-05
0.000331385
3.46204e-05
0.000309791
4.49705e-05
0.000297597
2.44901e-05
0.000314229
-3.32326e-05
0.000342823
-6.09031e-05
0.000313812
5.73624e-05
0.000235412
0.000155206
0.000187482
9.27329e-05
0.000170848
2.41082e-05
0.000124572
9.68491e-05
0.00012089
2.15096e-05
0.000192893
-0.00014901
0.000154965
5.30641e-05
-0.000149395
0.00054581
-0.000415726
0.000451634
-0.000605422
0.000436789
-0.000689799
0.00024413
-0.00055722
-0.00025345
-0.000216368
-0.000719422
-0.000136181
-0.000274961
-0.000380687
0.00049886
-0.000595122
0.000554594
-0.000418173
-0.000361174
-0.000273289
-0.0003659
-0.000284278
6.78059e-06
-0.000723092
0.000964292
-0.000869533
0.000415845
-0.000326331
-0.00126733
-0.000143596
-0.000650629
-0.000269574
0.000141311
-0.000331313
0.000337231
-0.000509453
0.000678948
-0.000812146
0.000675148
-0.000874134
9.16639e-05
-0.000962541
0.00012687
-0.000944786
-2.82719e-05
-0.000422794
-0.00108385
0.000117926
-0.00131374
0.000102486
-2.55371e-05
-0.000172922
0.000610349
-0.000350179
0.000494751
-0.000429225
0.000379206
4.04592e-05
-0.000866251
0.000578681
-0.00109349
-0.000131395
0.00137726
-0.000876964
0.00140509
-0.000739432
-0.000275878
-0.000352604
-0.000723044
-0.00018963
-0.000395708
-0.000307289
8.1383e-05
-0.000219674
-0.000171776
-0.000382628
0.00043223
-0.000702387
0.000745291
-0.000834462
0.000316314
-0.0010915
0.000439159
-0.000870571
-0.000537481
-0.00070355
-0.000435618
-0.000724266
-9.43725e-05
-0.000705118
6.5286e-05
-0.000896975
0.000543855
-0.000925694
8.57184e-05
-5.65337e-05
-0.00178177
0.000449152
-0.00107762
-0.000485575
0.00188699
-0.000849468
0.000842112
-0.000223127
-0.00137179
-0.000226713
-0.000176961
-0.000242706
4.58367e-05
6.1461e-05
-0.000642207
-5.5435e-05
0.000250737
-6.93821e-05
2.20481e-05
0.000280937
-0.000645777
7.75964e-05
0.000558451
-0.00030025
0.000796993
-0.000362036
8.28558e-05
-0.000128748
-0.000531891
0.000152714
-0.000687121
-2.6908e-05
0.000244642
-0.000645243
0.00139751
-0.0006664
0.000240419
-1.20841e-05
-0.001449
5.21844e-05
-0.000198458
-0.000431083
0.00104952
-0.000713828
0.000638708
-0.000910992
0.000252477
-0.00110339
0.00027043
-0.00123561
0.000397494
-0.00127927
0.000293351
-0.00110965
-0.000368198
-0.000931652
-0.000406628
-0.000807948
-0.000253461
-0.000794331
-4.73358e-05
-2.27549e-05
-0.000816356
0.000275911
5.18162e-05
0.00025948
4.82717e-05
0.000243601
4.58958e-05
0.000235995
2.28136e-05
0.000248899
-3.24014e-05
0.000293991
-0.000132038
0.000357756
-0.000188057
0.000394061
-0.000105998
0.000394689
-5.57526e-06
0.000377269
5.19868e-05
0.000356227
6.14971e-05
0.00033703
5.38173e-05
0.000314413
6.75874e-05
0.000300234
3.86696e-05
0.000316702
-4.97002e-05
0.000343877
-8.80781e-05
0.000317011
8.42282e-05
0.000237528
0.000234689
0.000189766
0.000140495
0.000174502
3.93715e-05
0.000133863
0.000137488
0.000122548
3.28246e-05
0.000179073
-0.000205535
0.000123197
0.00010894
-0.000115217
0.000784224
-0.000293282
0.000629699
-0.000522966
0.000666473
-0.000668222
0.000389386
-0.000532598
-0.000389075
-0.000193028
-0.00105899
-4.90732e-05
-0.000418915
-0.000283143
0.00073293
-0.000533511
0.000804962
-0.000373395
-0.00052129
-0.000189139
-0.000550157
-0.000212567
3.02096e-05
-0.000650751
0.00140248
-0.000806688
0.000571781
-0.000330802
-0.00174322
-1.81765e-05
-0.000963256
-5.3096e-05
0.00017623
-0.000257068
0.000541203
-0.000557504
0.000979383
-0.000846696
0.000964341
-0.000895441
0.000140409
-0.00093851
0.000169939
-0.000889329
-7.74523e-05
-0.00038371
-0.00158947
0.000227093
-0.00192454
0.000192615
8.94009e-06
-0.000140173
0.000943138
-0.000329058
0.000683636
-0.000571933
0.000622082
-0.00017354
-0.00126464
0.000525629
-0.00179265
-2.53787e-05
0.00192827
-0.00080388
0.00218359
-0.000793051
-0.000286708
-0.000497122
-0.00101897
-0.000234904
-0.000657926
-0.000260464
0.000106944
-0.000191609
-0.00024063
-0.000350422
0.000591042
-0.000667988
0.00106286
-0.000829843
0.000478169
-0.00106477
0.000674084
-0.000838791
-0.00076346
-0.000559513
-0.000714898
-0.000350246
-0.000303639
-0.000470876
0.000185911
-0.000867977
0.00094095
-0.000888159
0.000105898
0.000123854
-0.00279381
0.000652466
-0.00160624
-0.000404829
0.00294429
-0.000838047
0.00127533
-0.000121173
-0.00208867
5.01722e-05
-0.000348308
2.07534e-05
7.52449e-05
0.000306992
-0.000928446
0.000163587
0.000394142
5.4299e-05
0.000131336
0.000246581
-0.000838059
2.69322e-05
0.000778098
-0.000281902
0.00110583
-0.000347937
0.000148888
-0.000122339
-0.000757488
0.000154026
-0.000963486
-3.84533e-05
0.000437121
-0.000645947
0.002005
-0.00065442
0.000248893
9.97444e-05
-0.00220316
0.000278562
-0.000377274
-0.000312466
0.00164055
-0.000638168
0.000964409
-0.000714526
0.000328835
-0.0009691
0.000525004
-0.00129806
0.000726457
-0.00141548
0.000410763
-0.00121407
-0.000569614
-0.000970851
-0.000649853
-0.000833439
-0.000390871
-0.000734725
-0.00014605
-7.56131e-05
-0.000681866
0.000277023
6.98621e-05
0.000259719
6.55759e-05
0.000242938
6.26765e-05
0.000235303
3.04487e-05
0.000249829
-4.69276e-05
0.0002959
-0.000178109
0.000360381
-0.000252538
0.000396657
-0.000142275
0.00039607
-4.98824e-06
0.000378346
6.97107e-05
0.00035616
8.36831e-05
0.000335672
7.43061e-05
0.000312943
9.03164e-05
0.000298255
5.33573e-05
0.000314362
-6.58076e-05
0.000340371
-0.000114087
0.000314825
0.000109774
0.000234166
0.000315348
0.000185267
0.000189395
0.000169441
5.51969e-05
0.000132852
0.000174077
0.000119529
4.61475e-05
0.000168947
-0.000254953
0.0001115
0.000166387
-0.000172261
0.00106798
-0.000418107
0.000875545
-0.000604239
0.000852605
-0.000683062
0.00046821
-0.000551036
-0.000521101
-0.000245875
-0.00136415
-0.000140718
-0.000524072
-0.000355791
0.000948003
-0.000562908
0.00101208
-0.000427873
-0.000656325
-0.000269646
-0.000708383
-0.000285898
4.64622e-05
-0.000651724
0.00176831
-0.000796397
0.000716455
-0.000328045
-0.00221156
-0.000114029
-0.00117727
-0.000215682
0.000277882
-0.000356017
0.000681538
-0.000620296
0.00124366
-0.000807607
0.00115165
-0.000833441
0.000166243
-0.000920966
0.000257463
-0.000876662
-0.000121755
-0.000408102
-0.00205803
0.000203474
-0.00253612
0.000225773
-1.33603e-05
-0.000147046
0.00131596
-0.000389812
0.000926401
-0.000449198
0.000681467
-5.61728e-05
-0.00165767
0.000413362
-0.00226219
-5.7265e-05
0.00239889
-0.000692157
0.00281849
-0.00063237
-0.000346494
-0.000267587
-0.00138376
-0.000153223
-0.000772288
-0.000316939
0.000270661
-0.000251405
-0.000306163
-0.000388559
0.000728196
-0.000704662
0.00137896
-0.000849004
0.00062251
-0.00107061
0.00089569
-0.000929331
-0.000904738
-0.000826135
-0.000818098
-0.000692467
-0.000437313
-0.000425719
-8.08453e-05
-0.000681329
0.00119655
-0.000886281
0.000310846
0.000458592
-0.00413873
0.00087585
-0.00202351
-0.000367805
0.00418795
-0.000686043
0.00159357
-0.000248813
-0.00252591
-0.000286875
-0.000310248
-9.63946e-05
-0.00011524
0.000139762
-0.0011646
-7.00479e-05
0.000603952
-6.02562e-05
0.000121544
0.00013149
-0.0010298
-6.43309e-05
0.000973917
-0.000317425
0.00135892
-0.000412525
0.000243986
4.45421e-05
-0.00121456
0.000354276
-0.00127324
4.25898e-05
0.000748808
-0.000472764
0.00252036
-0.000575669
0.000351799
-0.000297304
-0.00248152
-0.000190382
-0.000484197
-0.000429547
0.00187972
-0.000612679
0.00114754
-0.000595132
0.00031129
-0.000797556
0.000727428
-0.00115737
0.00108627
-0.00136396
0.00061735
-0.00118258
-0.000750992
-0.00099975
-0.000832681
-0.000978317
-0.000412304
-0.000885224
-0.00023914
-0.000174066
-0.000786779
0.000278412
8.76589e-05
0.000261285
8.27035e-05
0.000244456
7.95054e-05
0.000236976
3.79284e-05
0.000252297
-6.22484e-05
0.000298743
-0.000224555
0.000363786
-0.00031758
0.000401575
-0.000180064
0.000401558
-4.97201e-06
0.000383665
8.76044e-05
0.000360975
0.000106373
0.000339034
9.62476e-05
0.00031547
0.00011388
0.000299141
6.96857e-05
0.000312952
-7.96187e-05
0.000337687
-0.000138821
0.0003146
0.00013286
0.000235057
0.000394891
0.000184385
0.000240066
0.000165486
7.40966e-05
0.000133631
0.000205932
0.000119287
6.04911e-05
0.000160459
-0.000296125
7.86807e-05
0.000248166
-0.000174261
0.00132093
-0.000359402
0.00106069
-0.000559261
0.00105246
-0.000666391
0.000575339
-0.000550527
-0.000636964
-0.000257433
-0.00165725
-0.000137733
-0.000643772
-0.000348297
0.00115857
-0.000552973
0.00121676
-0.000380327
-0.000828971
-0.000191885
-0.000896825
-0.000292348
0.000146926
-0.000730216
0.00220617
-0.000801547
0.000787786
-0.000258805
-0.00275431
0.000145705
-0.00158178
7.32226e-05
0.000350363
-0.00026893
0.00102369
-0.000608664
0.0015834
-0.000834523
0.00137751
-0.000838762
0.000170483
-0.000886435
0.000305136
-0.000843831
-0.000164358
-0.000400202
-0.00250166
0.000182485
-0.0031188
0.000246489
-7.73658e-05
-0.000118726
0.00168117
-0.000457177
0.00126485
-0.000459562
0.000683852
-2.64668e-05
-0.00209076
0.000517946
-0.0028066
5.35356e-05
0.0028633
-0.000550251
0.00342227
-0.000364071
-0.000532674
-0.00016744
-0.00158039
-0.000142255
-0.000797473
-0.000171456
0.000299862
-0.000193617
-0.000284001
-0.000473802
0.00100838
-0.000726819
0.00163198
-0.000796206
0.000691896
-0.00105285
0.00115234
-0.000877912
-0.00107968
-0.000710138
-0.000985873
-0.000860275
-0.000287184
-0.000657576
-0.000283547
-0.000619082
0.00115805
-0.00074089
0.000432648
0.000852624
-0.00573229
0.00108657
-0.00225748
-0.000449147
0.00572368
-0.00073777
0.00188219
-0.000335636
-0.00292805
-0.000357345
-0.000288541
-7.89718e-05
-0.000393612
-9.41919e-05
-0.00114938
-0.000287006
0.000796766
-4.25782e-05
-0.000122884
0.000189771
-0.00126215
-1.51091e-05
0.0011788
-0.000296494
0.00164031
-0.000268691
0.000216181
0.00044352
-0.00192675
0.000718668
-0.00154838
0.000312431
0.00115505
-0.000259809
0.0030926
-0.000498322
0.000590313
-0.000185655
-0.00279419
-5.72604e-05
-0.000612592
-0.000404361
0.00222682
-0.000665963
0.00140914
-0.000612396
0.000257721
-0.000702827
0.000817858
-0.000966522
0.00134996
-0.00111623
0.000767048
-0.00100302
-0.000864195
-0.000879727
-0.000955975
-0.000941036
-0.000350994
-0.000919771
-0.000260411
-0.000336624
-0.000757204
0.000278309
0.000105477
0.000261054
9.99579e-05
0.000243926
9.66335e-05
0.00023623
4.56245e-05
0.000252184
-7.82021e-05
0.000299381
-0.000271752
0.000364985
-0.000383184
0.000403599
-0.000218677
0.000403153
-4.5268e-06
0.000385129
0.000105628
0.000362664
0.000128838
0.000340036
0.000118876
0.000315837
0.000138079
0.000297841
8.76818e-05
0.000309095
-9.08727e-05
0.000332059
-0.000161785
0.000310285
0.000154634
0.000232026
0.00047315
0.000180251
0.000291842
0.000159134
9.52131e-05
0.000130661
0.000234404
0.000117503
7.36494e-05
0.000162393
-0.000341015
7.7514e-05
0.000333045
-0.000190888
0.00158933
-0.000398055
0.00126785
-0.000585308
0.00123972
-0.000676879
0.00066691
-0.000566125
-0.000747718
-0.000284186
-0.00193919
-0.000167253
-0.000760704
-0.000358016
0.00134933
-0.000533316
0.00139206
-0.000388053
-0.000974233
-0.0003338
-0.000951078
-0.000450825
0.000263952
-0.000790988
0.00254634
-0.00079499
0.000791789
-0.000472133
-0.00307717
-0.000417629
-0.00163628
-0.000425214
0.000357946
-0.000459724
0.0010582
-0.000619422
0.00174309
-0.000821257
0.00157935
-0.000824733
0.000173959
-0.000883138
0.000363541
-0.00084754
-0.000199955
-0.000399542
-0.00294966
0.000171755
-0.0036901
0.000106883
-1.24951e-05
-0.000246743
0.0020348
-0.000504061
0.00152217
-0.000575884
0.000755675
-8.36097e-05
-0.00258304
0.000541257
-0.00343147
0.000336062
0.0030685
-0.000152401
0.00391074
-0.000288568
-0.000396507
-0.000274669
-0.00159428
-0.000503315
-0.000568827
-0.000491312
0.00028786
-0.000270671
-0.000504642
-0.000526392
0.0012641
-0.000807894
0.00191348
-0.000901742
0.000785742
-0.00112588
0.00137647
-0.000909191
-0.00129637
-0.000735321
-0.00115974
-0.000842262
-0.000180247
-0.00111857
-7.24024e-06
-0.00118188
0.00122133
-0.00107161
0.000322363
0.000574628
-0.0073785
0.00118315
-0.00286604
-0.000437922
0.00734477
-0.000699268
0.00214353
-0.000234825
-0.00339249
-0.000310721
-0.000212646
-0.000102564
-0.00060177
-0.000166451
-0.0010855
-0.000454727
0.00108504
-0.000265366
-0.000312244
-5.79551e-06
-0.00152172
-9.50581e-05
0.00126806
-0.000381354
0.00192661
-0.000367108
0.00020193
5.84868e-05
-0.00235235
0.000687468
-0.00217738
0.000755869
0.00108665
-8.87128e-05
0.00393718
-0.000492247
0.000993847
-0.000188873
-0.00309756
-1.85815e-05
-0.000782882
-0.000416026
0.00262426
-0.000730064
0.00172318
-0.000744872
0.000272526
-0.00087809
0.000951069
-0.00100063
0.0014725
-0.00104975
0.000816166
-0.000983604
-0.000930349
-0.000858463
-0.00108112
-0.000850939
-0.000358516
-0.000911828
-0.00019951
-0.000383645
-0.000864814
0.000278202
0.000123071
0.000261129
0.000117031
0.00024408
0.000113683
0.000236536
5.31684e-05
0.000252936
-9.46022e-05
0.000300331
-0.000319148
0.000366043
-0.000448895
0.000405693
-0.000258328
0.000406213
-5.04699e-06
0.000388553
0.000123288
0.000366162
0.000151229
0.00034289
0.000142148
0.000318016
0.000162954
0.00029761
0.000108087
0.000304739
-9.8002e-05
0.000326324
-0.000183369
0.000307215
0.000173743
0.00023088
0.000549485
0.000178088
0.000344634
0.00015379
0.000119511
0.000129554
0.00025864
0.000120845
8.23588e-05
0.000164871
-0.000385041
5.99706e-05
0.000437945
-0.000219885
0.00186918
-0.000416527
0.00146449
-0.000584097
0.00140729
-0.000658263
0.000741077
-0.000528969
-0.000877012
-0.000246363
-0.00222179
-0.000167322
-0.000839745
-0.000369485
0.00155149
-0.00047951
0.00150208
-0.000333624
-0.00112012
-0.000294276
-0.000990425
-0.000525872
0.00049555
-0.000778636
0.0027991
-0.000657726
0.00067088
-0.000439206
-0.00329568
-0.000447479
-0.00162801
-0.000533399
0.000443865
-0.000545485
0.00107029
-0.000618946
0.00181656
-0.000760404
0.0017208
-0.000731738
0.000145293
-0.000757645
0.000389449
-0.000802397
-0.000155203
-0.00031229
-0.00343977
0.000212194
-0.00421458
-4.40629e-05
0.00024376
-0.000299631
0.00229037
-0.000549893
0.00177243
-0.000607414
0.000813196
0.000165697
-0.00335615
0.000775655
-0.00404143
0.000451751
0.0033924
4.04771e-06
0.00435844
-0.000204546
-0.000187913
-0.00026555
-0.00153328
-0.000606899
-0.000227477
-0.000621263
0.000302225
-0.000283182
-0.000842724
-0.00043535
0.00141627
-0.000832977
0.00231111
-0.00097114
0.000923905
-0.00115337
0.0015587
-0.000599169
-0.00185057
-0.000391834
-0.00136708
-0.000789747
0.000217665
-0.00117269
0.000375705
-0.00136312
0.00141172
-0.00117819
0.000137419
5.7125e-05
-0.00861378
0.000770359
-0.00357933
-0.00046657
0.00858171
-0.00070734
0.0023843
-0.000221579
-0.00387826
-0.000315131
-0.000119095
-8.3684e-05
-0.000833217
-0.000154767
-0.00101441
-0.000454957
0.00138523
-0.000265749
-0.000501453
-1.85841e-07
-0.00178728
-7.2082e-05
0.00133995
-0.000381708
0.00223624
-0.000417379
0.000237594
-0.000143312
-0.00262642
0.000374934
-0.00269562
0.000533078
0.000928508
-0.000120603
0.00459087
-0.00047482
0.00134807
-4.61423e-05
-0.00352624
0.000142941
-0.000971964
-0.000372971
0.00314018
-0.000722038
0.00207225
-0.000831448
0.000381936
-0.00109317
0.00121279
-0.00123383
0.00161316
-0.00124789
0.000830224
-0.00115549
-0.00102275
-0.00104327
-0.00119333
-0.00087889
-0.000522903
-0.000649767
-0.000428631
-0.000306117
-0.000727301
0.00027659
0.000140603
0.000259625
0.000133996
0.000242622
0.000130686
0.000234814
6.09768e-05
0.000251211
-0.000110999
0.000299204
-0.00036714
0.000365806
-0.000515497
0.000406197
-0.000298719
0.000406578
-5.42839e-06
0.000389032
0.000140835
0.000366852
0.000173409
0.000343179
0.000165821
0.000317716
0.000188416
0.000294991
0.000130812
0.000297958
-0.000100969
0.000317596
-0.000203007
0.000300605
0.000190734
0.000226746
0.000623345
0.000173383
0.000397997
0.000146078
0.000146816
0.000124573
0.000280145
0.000120856
8.60755e-05
0.000163024
-0.000427209
4.84643e-05
0.000552505
-0.000232297
0.00214994
-0.00043364
0.00166584
-0.000595792
0.00156944
-0.000652645
0.00079793
-0.00052292
-0.00100674
-0.000256111
-0.0024886
-0.000182081
-0.000913775
-0.000372099
0.00174151
-0.000468898
0.00159888
-0.000328081
-0.00126094
-0.000298048
-0.00102046
-0.000461814
0.000659316
-0.000666116
0.00300341
-0.000614262
0.000619027
-0.000392362
-0.00351759
-0.000333479
-0.0016869
-0.000436222
0.000546606
-0.000528847
0.00116291
-0.000641973
0.00192968
-0.00078778
0.00186661
-0.000764319
0.000121833
-0.000821622
0.000446751
-0.00093676
-4.0065e-05
-2.83837e-05
-0.00434815
0.000543557
-0.00478652
-0.000235724
0.00102304
-0.000466281
0.00252092
-0.000632404
0.00193855
-0.000693053
0.000873844
6.67667e-05
-0.00411597
0.000808478
-0.00478314
0.00046471
0.00373617
-0.000115494
0.00493864
-0.000262466
-4.09414e-05
-0.000244205
-0.00155154
-0.00048878
1.70985e-05
-0.000578769
0.000392214
-0.000292021
-0.00112947
-0.000446136
0.00157038
-0.000616145
0.00248112
-0.0009506
0.00125836
-0.00117935
0.00178746
-0.000773974
-0.00225595
-0.000711092
-0.00142997
-0.000792841
0.000299412
-0.00114292
0.000725784
-0.00124238
0.00151116
-0.00105063
-5.43419e-05
-0.000502071
-0.00916233
0.000264308
-0.00434571
-0.000555792
0.00940183
-0.000696306
0.00252481
-0.000100544
-0.00447403
-0.000216556
-3.08293e-06
-2.564e-05
-0.00102413
-3.21631e-05
-0.00100789
-0.000197795
0.00155087
-0.000129674
-0.000569572
-7.3913e-05
-0.00184305
-9.35673e-05
0.00135961
-0.000329777
0.00247245
-0.00045158
0.000359396
-0.000829588
-0.0022484
-0.000967507
-0.00255768
-0.000320735
0.000281736
-0.000191176
0.00446131
-0.000452371
0.00160926
-6.36949e-05
-0.00391491
0.000101925
-0.00113758
-0.000263595
0.0035057
-0.000602089
0.00241074
-0.000721272
0.000501116
-0.000864168
0.00135569
-0.00101543
0.00176441
-0.00118901
0.0010038
-0.00110135
-0.00111042
-0.000872167
-0.00142252
-0.000514701
-0.000880362
-0.000359859
-0.000583475
-1.48896e-05
-0.000651077
0.000275071
0.000157946
0.00025837
0.000150697
0.000241515
0.00014754
0.000233683
6.88087e-05
0.000250235
-0.000127551
0.000298488
-0.000415393
0.000365142
-0.000582151
0.000406108
-0.000339685
0.000407633
-6.9531e-06
0.000390888
0.00015758
0.000368881
0.000195416
0.000344918
0.000189784
0.000318792
0.000214543
0.000291851
0.000157753
0.000289577
-9.86951e-05
0.000308615
-0.000222045
0.00029455
0.000204799
0.000223466
0.000694428
0.000169844
0.000451619
0.000138696
0.000177964
0.000121374
0.000297468
0.000122269
8.51798e-05
0.000161756
-0.000466696
3.61042e-05
0.000678157
-0.000252817
0.00243887
-0.000449427
0.00186245
-0.000594128
0.00171414
-0.000626166
0.000829967
-0.000511668
-0.00112124
-0.000267775
-0.0027325
-0.000196453
-0.000985098
-0.000383167
0.00192823
-0.000469315
0.00168503
-0.0003273
-0.00140295
-0.000297501
-0.00105026
-0.000470566
0.000832382
-0.000660204
0.00319305
-0.000596281
0.000555106
-0.000336869
-0.003777
-0.000256593
-0.00176717
-0.0003603
0.000650313
-0.000467851
0.00127046
-0.000652943
0.00211477
-0.000801916
0.00201559
-0.00075563
7.55467e-05
-0.000825493
0.000516615
-0.000961738
9.61807e-05
-7.92694e-05
-0.00523061
0.000549261
-0.00541505
-0.00014642
0.00171872
-0.000644655
0.00301916
-0.00077027
0.00206417
-0.000708215
0.000811789
7.61972e-05
-0.00490038
0.00101624
-0.00572318
0.000543803
0.0042086
-0.000271396
0.00575384
-0.000242218
-7.01194e-05
-0.000102074
-0.00169169
-0.000508445
0.000423471
-0.000549634
0.000433404
-0.000241739
-0.00143737
-0.000446051
0.0017747
-0.000623861
0.00265893
-0.000861669
0.00149616
-0.000961415
0.0018872
-0.000796642
-0.00242072
-0.000921035
-0.00130558
-0.000934762
0.000313136
-0.000996628
0.000787651
-0.0010573
0.00157182
-0.00100037
-0.000111277
-0.000550136
-0.00961258
0.000247333
-0.00514329
-0.000565847
0.010215
-0.00079403
0.00275299
-0.000202747
-0.0050653
-0.000303339
9.75078e-05
-5.8405e-05
-0.00126908
8.0455e-05
-0.00114675
-0.000237538
0.00186886
-0.00021352
-0.000593591
6.43912e-05
-0.00212096
-4.45696e-05
0.00146857
-0.00026018
0.00268806
-0.000335725
0.000434936
-0.000922781
-0.00166135
-0.000846038
-0.00263444
-0.000198069
-0.000366232
-0.000346492
0.00460975
-0.000518996
0.00178176
-0.000170338
-0.00426357
1.20683e-05
-0.00131999
-0.000182074
0.00369984
-0.000476013
0.00270468
-0.000680032
0.00070514
-0.000797099
0.00147275
-0.00100271
0.00197002
-0.00116242
0.00116351
-0.000937614
-0.00133521
-0.000629238
-0.0017309
-0.000356316
-0.00115329
-0.000373918
-0.000565864
0.000333087
-0.000721903
0.000272309
0.000175297
0.000255717
0.000167289
0.000239015
0.000164242
0.00023097
7.68534e-05
0.000247486
-0.000144066
0.000296363
-0.000464271
0.000363883
-0.000649671
0.000405368
-0.000381169
0.000406585
-8.16997e-06
0.000389837
0.000174328
0.00036808
0.000217173
0.000344124
0.000213739
0.000317645
0.000241022
0.000287303
0.000188095
0.000277319
-8.87111e-05
0.000294247
-0.000238973
0.000285176
0.00021387
0.000217874
0.000761731
0.000164358
0.000505134
0.000130013
0.00021231
0.000115764
0.000311717
0.000116186
8.47571e-05
0.000150627
-0.000501136
3.46145e-05
0.000794169
-0.000253133
0.00272661
-0.000459573
0.00206889
-0.000595445
0.00185001
-0.000629775
0.000864297
-0.000527658
-0.00122335
-0.000287858
-0.0029723
-0.000222936
-0.00105002
-0.000399543
0.00210483
-0.000488189
0.00177367
-0.000372303
-0.00151884
-0.000330798
-0.00109176
-0.000501892
0.00100348
-0.000684707
0.00337586
-0.000607039
0.000477437
-0.000306141
-0.00407789
-0.000218218
-0.00185509
-0.00033627
0.000768363
-0.000466026
0.00140022
-0.000673162
0.00232191
-0.000826428
0.00216885
-0.000803652
5.2771e-05
-0.000831395
0.000544358
-0.000712024
-2.31895e-05
-8.74976e-05
-0.00585514
0.00030283
-0.00580538
-0.00013638
0.00215793
-0.00100092
0.0038837
-0.00113402
0.00219727
-0.000708867
0.000386634
0.00014706
-0.00575631
0.000971615
-0.00654773
0.000445165
0.00473505
-0.000406589
0.0066056
-0.000337337
-0.000139371
-0.000113458
-0.00191556
-0.000513833
0.000823845
-0.000610841
0.000530413
-0.000354037
-0.00169417
-0.000460765
0.00188143
-0.000697837
0.002896
-0.000605643
0.00140397
-0.000655082
0.00193663
-0.000769365
-0.00230644
-0.000867083
-0.00120786
-0.000888722
0.000334775
-0.00097503
0.000873957
-0.00114968
0.00174646
-0.00110865
-0.000152312
-0.000429463
-0.0102917
0.000508562
-0.00608131
-2.06055e-05
0.0107442
-0.000384418
0.0031168
-0.000206967
-0.00524276
-3.37239e-05
-7.57343e-05
0.000192744
-0.00149555
1.11187e-05
-0.000965128
-0.000291579
0.00217156
-0.000277881
-0.000607288
3.41082e-05
-0.00243295
0.000132673
0.00137
-0.000117379
0.00293811
-0.00039661
0.000714164
-0.000745128
-0.00131283
-0.000921956
-0.0024576
-0.000471495
-0.000816693
-0.000416225
0.00455447
-0.00060801
0.00197355
-0.000279988
-0.00459159
-0.000169224
-0.00143075
-0.000333627
0.00386426
-0.000549131
0.00292018
-0.000836657
0.000992663
-0.000820493
0.0014566
-0.000931286
0.0020808
-0.00110241
0.00133463
-0.00089614
-0.00154148
-0.000580886
-0.00204615
-0.000446161
-0.00128801
-0.00048862
-0.000523414
0.000531637
-0.000687163
0.000269732
0.000192553
0.000253299
0.000183722
0.000236719
0.000180822
0.000228641
8.49314e-05
0.000245245
-0.00016067
0.000294528
-0.000513554
0.000362295
-0.000717438
0.00040425
-0.000423124
0.000406454
-1.03741e-05
0.000390417
0.000190365
0.000368782
0.000238809
0.000344322
0.000238198
0.000317515
0.000267829
0.000283628
0.000221982
0.000262688
-6.77709e-05
0.000276356
-0.000252641
0.00027427
0.000215956
0.000211825
0.000824175
0.000159551
0.000557409
0.000120873
0.000250987
0.000110222
0.000322368
0.000106207
8.87726e-05
0.000135588
-0.000530517
4.21029e-05
0.000887654
-0.000245615
0.00301433
-0.000473175
0.00229645
-0.000604112
0.00198095
-0.000638172
0.000898357
-0.000530615
-0.00133091
-0.000278744
-0.00322417
-0.000222535
-0.00110623
-0.000401318
0.00228362
-0.000486734
0.00185909
-0.00038319
-0.00162238
-0.000329271
-0.00114568
-0.00048504
0.00115925
-0.000756167
0.00364699
-0.000700749
0.00042202
-0.000340333
-0.00443833
-0.000172502
-0.00202292
-0.00030645
0.000902311
-0.000499873
0.00159364
-0.000626849
0.00244888
-0.000743822
0.00228583
-0.000698392
7.34108e-06
-0.000613038
0.000459003
-0.000429721
-0.000206505
-0.000222223
-0.00606265
9.24016e-05
-0.00612
-0.000109019
0.00235935
-0.000940535
0.00471522
-0.00109801
0.00235474
-0.000511496
-0.000199886
-1.06175e-05
-0.00625719
0.000626683
-0.00718503
0.000501958
0.00485978
-0.000314701
0.00742226
-0.000323989
-0.000130083
-0.000141137
-0.00209842
-0.000489269
0.00117198
-0.000564929
0.000606074
-0.000298263
-0.00196083
-0.000449172
0.00203234
-0.000641349
0.00308818
-0.00055009
0.00131271
-0.00071406
0.00210061
-0.000761635
-0.00225886
-0.000784131
-0.00118536
-0.000868283
0.000418925
-0.00106476
0.00107043
-0.000907354
0.00158905
-0.000895233
-0.000164434
-0.000184946
-0.0110021
0.00103334
-0.00729965
0.000325853
0.0114517
-0.000202558
0.00364521
-0.000516481
-0.00492884
-0.000255748
-0.000336472
0.000252852
-0.00200415
-5.68873e-05
-0.00065539
-0.000351974
0.00246664
-0.000332523
-0.000626739
-0.000173008
-0.00259246
5.63791e-05
0.00114061
5.54493e-05
0.00293905
-0.000309327
0.00107894
-0.000599463
-0.00102269
-0.000925603
-0.00213146
-0.000663233
-0.00107906
-0.00048701
0.00437825
-0.00063358
0.00212012
-2.56596e-05
-0.0051995
-1.63956e-05
-0.00144002
-0.00047668
0.00432453
-0.000624981
0.00306849
-0.00108513
0.00145281
-0.00101402
0.00138547
-0.00093719
0.00200397
-0.00108102
0.00147844
-0.000952368
-0.00167014
-0.000615283
-0.00238324
-0.000392643
-0.00151065
-0.000382998
-0.000533052
0.000734373
-0.000585737
0.000266207
0.000209866
0.00024985
0.000200079
0.000233435
0.000197237
0.000225178
9.31884e-05
0.000241771
-0.000177264
0.000291784
-0.000563566
0.000360426
-0.000786081
0.000402645
-0.000465343
0.000404513
-1.22423e-05
0.000388717
0.000206161
0.000367478
0.000260047
0.000342942
0.000262734
0.000315706
0.000295066
0.000279353
0.000258334
0.000246164
-3.45812e-05
0.000254577
-0.000261054
0.000260164
0.000210368
0.000203316
0.000881023
0.000152495
0.00060823
0.000111978
0.000291504
0.000104009
0.000330337
9.2581e-05
0.000100201
0.000117595
-0.000555531
4.68097e-05
0.000958439
-0.000232035
0.00329318
-0.00047185
0.00253626
-0.000596584
0.00210568
-0.000645272
0.000947045
-0.000544713
-0.00143147
-0.000286699
-0.00348218
-0.000219031
-0.0011739
-0.00038554
0.00245013
-0.000485247
0.0019588
-0.000402784
-0.00170484
-0.000377374
-0.00117109
-0.000508885
0.00129076
-0.0007388
0.00387691
-0.000753273
0.000436495
-0.000590072
-0.00460151
-0.000459194
-0.0021538
-0.000481089
0.000924205
-0.000595118
0.00170767
-0.000495896
0.00234966
-0.000569993
0.00235992
-0.000556051
-6.60025e-06
-0.000482002
0.000384954
-0.000459698
-0.000228807
-0.000371057
-0.00615128