/*--------------------------------*- C++ -*----------------------------------*\
| =========                 |                                                 |
| \\      /  F ield         | OpenFOAM: The Open Source CFD Toolbox           |
|  \\    /   O peration     | Version:  v1912                                 |
|   \\  /    A nd           | Website:  www.openfoam.com                      |
|    \\/     M anipulation  |                                                 |
\*---------------------------------------------------------------------------*/
FoamFile
{
    version     2.0;
    format      ascii;
    class       volScalarField;
    location    "20";
    object      p_rgh;
}
// * * * * * * * * * * * * * * * * * * * * * * * * * * * * * * * * * * * * * //

dimensions      [1 -1 -2 0 0 0 0];


internalField   nonuniform List<scalar> 
14268
(
-22.4386
-23.5176
-24.6993
-25.3151
-25.5209
-25.4938
-25.5803
-25.3813
-22.4392
-23.5183
-24.7
-25.3155
-25.521
-25.4939
-25.5804
-25.3814
-22.4398
-23.5189
-24.7005
-25.3158
-25.5212
-25.494
-25.5804
-25.3813
-22.4403
-23.5196
-24.7012
-25.3162
-25.5213
-25.494
-25.5804
-25.3813
-22.4407
-23.5202
-24.7018
-25.3165
-25.5214
-25.4941
-25.5804
-25.3812
-22.4412
-23.5208
-24.7025
-25.317
-25.5216
-25.4941
-25.5805
-25.3812
-22.4416
-23.5214
-24.7032
-25.3174
-25.5217
-25.4942
-25.5805
-25.3811
-22.4421
-23.5221
-24.7041
-25.3179
-25.5219
-25.4943
-25.5805
-25.3811
-22.4425
-23.5227
-24.7048
-25.3185
-25.5222
-25.4943
-25.5806
-25.3811
-22.4429
-23.5234
-24.7058
-25.3191
-25.5224
-25.4944
-25.5807
-25.381
-22.4433
-23.524
-24.7066
-25.3197
-25.5227
-25.4945
-25.5807
-25.381
-22.4436
-23.5247
-24.7076
-25.3203
-25.5229
-25.4947
-25.5808
-25.381
-22.444
-23.5254
-24.7086
-25.321
-25.5232
-25.4948
-25.5809
-25.381
-22.4443
-23.526
-24.7097
-25.3218
-25.5236
-25.4949
-25.581
-25.381
-22.4376
-23.5189
-24.7045
-25.3197
-25.5234
-25.4948
-25.5821
-25.3833
-22.4391
-23.5232
-24.7118
-25.3243
-25.5252
-25.4954
-25.5826
-25.3833
-22.4397
-23.5273
-24.7196
-25.3297
-25.5274
-25.4961
-25.5831
-25.3832
-22.44
-23.5321
-24.7291
-25.3361
-25.5299
-25.4968
-25.5837
-25.3834
-22.4392
-23.5366
-24.7393
-25.3433
-25.5328
-25.4977
-25.5844
-25.3834
-22.4383
-23.5419
-24.7511
-25.3515
-25.536
-25.4986
-25.5852
-25.3835
-22.4361
-23.5467
-24.7637
-25.3606
-25.5397
-25.4998
-25.5861
-25.3837
-22.438
-23.5729
-24.8173
-25.3989
-25.5557
-25.5045
-25.5901
-25.3818
-22.4113
-23.6028
-24.9251
-25.4974
-25.6044
-25.5286
-25.6091
-25.389
-22.3735
-23.6444
-25.0825
-25.6107
-25.6476
-25.5307
-25.6285
-25.3912
-22.3082
-23.6878
-25.2766
-25.7971
-25.7377
-25.5762
-25.6647
-25.4046
-22.2229
-23.7461
-25.5398
-25.9795
-25.7885
-25.5685
-25.6964
-25.4101
-22.0932
-23.8087
-25.8745
-26.2778
-25.9169
-25.619
-25.7457
-25.4251
-21.9273
-23.8867
-26.238
-26.5545
-25.958
-25.5977
-25.7908
-25.4337
-21.6928
-23.9854
-26.8513
-27.0029
-26.1162
-25.6219
-25.8491
-25.4471
-21.3894
-24.0366
-27.3276
-27.4189
-26.1201
-25.5831
-25.9093
-25.4592
-21.0151
-24.256
-28.377
-28.072
-26.2779
-25.5259
-25.9745
-25.4713
-20.4471
-24.2106
-29.0342
-28.7103
-26.2114
-25.4896
-26.0456
-25.4933
-19.9279
-24.5997
-30.78
-29.6384
-26.2914
-25.2245
-26.1563
-25.5031
-18.8
-24.4308
-31.6779
-30.6248
-26.1159
-25.1803
-26.1574
-25.5331
-18.2718
-9.78522
21.7855
46.4831
58.1777
77.7239
109.779
144.586
675.564
667.685
667.902
665.304
655.437
647.699
645.402
643.638
28.4673
27.4843
26.6863
25.8099
24.8815
24.1122
23.5312
21.8194
0.0666857
0.0746777
0.0776562
0.074318
0.0819591
0.0735105
0.0909479
0.0493169
0.0440811
0.04145
0.0380812
0.0404791
0.0435098
0.0444849
0.0304058
0.0521015
0.0636525
0.0677784
0.0697632
0.0695594
0.0721304
0.0638134
0.0677017
0.046182
0.0446535
0.0430725
0.041547
0.0405335
0.0453853
0.047019
0.040453
0.0482486
0.0607953
0.0630038
0.064246
0.0635904
0.0668554
0.0582413
0.0577383
0.0430812
0.0450318
0.0438134
0.042999
0.0419238
0.0436123
0.0450975
0.0437174
0.0465899
0.0577909
0.0589223
0.0597039
0.05872
0.0603946
0.0523129
0.0509326
0.0407428
0.0452292
0.0442248
0.0437317
0.0427178
0.044106
0.0446659
0.0439446
0.044427
0.05475
0.0551953
0.0555037
0.0543779
0.0547911
0.0482439
0.0467598
0.0402125
0.0451831
0.0443677
0.0440448
0.0431063
0.044237
0.044258
0.0435818
0.04242
0.0517882
0.0518079
0.0516869
0.0505547
0.050143
0.0452481
0.0436571
0.0395815
0.0448566
0.0442074
0.0439487
0.0431008
0.0439006
0.0434793
0.0427352
0.041149
0.0489944
0.0487692
0.0483341
0.0472627
0.0465202
0.0427723
0.041672
0.0384146
0.0442336
0.0437266
0.0434356
0.0426828
0.042979
0.0421588
0.0412369
0.0396815
0.046426
0.0460763
0.0454676
0.0444951
0.0436874
0.0410961
0.0399288
0.0374123
0.0433275
0.0429207
0.0425529
0.041889
0.0417327
0.0406039
0.039678
0.0381983
0.0441075
0.0437236
0.0430314
0.042172
0.0413673
0.0396188
0.0383739
0.0364161
0.042163
0.0418257
0.0413694
0.0407897
0.0402693
0.0390788
0.0381107
0.0367732
0.0420305
0.0416727
0.040955
0.0402344
0.0394397
0.0382134
0.0369311
0.035383
0.0407858
0.0405036
0.0399585
0.0394222
0.0386252
0.0376253
0.0365698
0.0354069
0.04016
0.0398662
0.0391691
0.0386433
0.0377996
0.0368081
0.0355628
0.0343026
0.0392545
0.0390231
0.0383621
0.0378851
0.0370271
0.0361846
0.0350871
0.0340868
0.0384474
0.0382366
0.0375657
0.0371213
0.0362469
0.0354318
0.0342393
0.0331896
0.0376344
0.0374553
0.0367803
0.0363763
0.0354953
0.0347836
0.0336672
0.0328067
0.0368292
0.0366801
0.0360047
0.0356352
0.0347525
0.0340801
0.0329413
0.0320611
0.0360321
0.0359125
0.0352395
0.0349046
0.0340237
0.033417
0.0323102
0.0315597
0.0352425
0.0351516
0.0344839
0.0341819
0.0333068
0.032748
0.0316554
0.0309161
0.0344623
0.0343986
0.0337385
0.0334676
0.0326009
0.0320893
0.0310171
0.030349
0.033691
0.0336529
0.0330024
0.0327609
0.0319059
0.0314375
0.0303874
0.0297567
0.0329291
0.0329148
0.0322758
0.0320621
0.0312202
0.0307912
0.0297638
0.0291764
0.0321764
0.0321844
0.0315581
0.0313705
0.030544
0.0301514
0.0291476
0.0285984
0.0314331
0.0314617
0.0308494
0.0306863
0.0298764
0.0295169
0.0285375
0.0280239
0.030699
0.0307467
0.0301495
0.0300091
0.0292172
0.0288881
0.0279335
0.0274527
0.0299742
0.0300394
0.0294583
0.029339
0.0285659
0.0282648
0.0273354
0.0268849
0.0292588
0.0293398
0.0287754
0.0286757
0.0279224
0.027647
0.0267432
0.0263205
0.0285525
0.028648
0.0281007
0.0280192
0.0272862
0.0270343
0.0261567
0.0257593
0.027855
0.0279636
0.0274337
0.0273689
0.0266568
0.0264264
0.0255752
0.0252013
0.0271663
0.0272867
0.0267746
0.026725
0.0260342
0.0258237
0.0249987
0.0246466
0.0264866
0.0266174
0.0261234
0.0260878
0.0254185
0.0252262
0.0244275
0.0240954
0.025816
0.0259559
0.0254801
0.0254571
0.0248103
0.0246339
0.023862
0.0235481
0.0238612
0.0240233
0.0236021
0.0236114
0.0230306
0.0228971
0.0222032
0.0219385
0.0208011
0.0209774
0.0206398
0.0206796
0.0202044
0.0201154
0.0195452
0.0193364
0.0179119
0.0180829
0.0178228
0.017873
0.0174966
0.0174322
0.0169773
0.0168057
0.015164
0.0153196
0.0151268
0.015177
0.014889
0.0148385
0.0144869
0.0143422
0.0125332
0.0126665
0.0125301
0.0125735
0.0123614
0.0123184
0.0120563
0.0119331
0.00999928
0.0101074
0.010017
0.0100508
0.00990242
0.00986465
0.00967829
0.00957465
0.00754016
0.00762278
0.00756769
0.00759184
0.00749483
0.00746275
0.00733837
0.00725541
0.00513644
0.00519487
0.00516577
0.00518203
0.00512531
0.00510116
0.00502651
0.00496679
0.00277134
0.00280784
0.0027975
0.00280873
0.00278343
0.00277075
0.00273568
0.00270292
0.000432035
0.000447304
0.000450159
0.000457724
0.000456895
0.000457639
0.000454257
0.00045038
-25.3603
-25.2022
-25.0363
-24.7886
-24.3928
-23.9243
-23.3959
-22.8503
-22.2262
-21.454
-20.4999
-19.4429
-18.4213
-17.5856
-16.9784
-16.6286
-16.4708
-16.4046
-16.2903
-16.0658
-15.713
-15.3368
-15.0524
-14.9288
-14.9756
-15.1117
-15.1526
-15.0162
-14.6673
-14.1857
-13.7229
-13.4033
-13.2883
-13.3893
-13.6464
-13.9286
-14.1058
-14.1072
-13.8919
-13.4922
-12.9966
-12.5244
-12.1727
-11.9974
-12.026
-12.2482
-12.6229
-13.0852
-13.5502
-13.9253
-14.1354
-14.1246
-13.8738
-13.3733
-12.6616
-11.7962
-10.8492
-9.89541
-8.99548
-8.18947
-7.50178
-6.93919
-6.48796
-6.12386
-5.81369
-5.51507
-5.17417
-4.74102
-4.17761
-3.46036
-2.59492
-1.62053
-0.5895
0.452793
1.47375
2.47408
3.49558
4.62176
5.9775
7.7176
9.98454
12.8802
16.4766
20.7929
25.7899
31.3679
37.4163
43.7827
50.2839
56.6753
62.6131
67.7358
71.6727
74.2695
75.7275
76.4189
76.5283
75.7701
73.733
70.1148
64.9936
59.045
53.5279
50.2129
50.6549
55.6343
65.3448
77.5422
88.1819
96.0943
101.331
104.46
106.135
106.826
106.834
106.354
105.506
104.36
102.953
101.293
99.3683
97.155
94.615
91.7005
88.3584
84.5361
80.1865
75.2719
69.768
63.6658
56.9729
49.7127
41.9222
33.6457
24.9298
15.8152
6.2504
-3.482
-13.4678
-23.7005
-34.1696
-44.8691
-55.7932
-66.9281
-78.2442
-89.689
-101.182
-112.61
-123.829
-134.673
-144.964
-154.532
-163.228
-170.943
-177.617
-183.251
-25.3604
-25.2023
-25.0364
-24.7888
-24.393
-23.9245
-23.396
-22.8504
-22.2263
-21.4541
-20.5
-19.443
-18.4214
-17.5857
-16.9784
-16.6287
-16.4709
-16.4047
-16.2905
-16.066
-15.7131
-15.3369
-15.0525
-14.9289
-14.9758
-15.1119
-15.1527
-15.0163
-14.6674
-14.1858
-13.723
-13.4034
-13.2884
-13.3894
-13.6465
-13.9287
-14.1059
-14.1073
-13.892
-13.4923
-12.9968
-12.5245
-12.1728
-11.9975
-12.0261
-12.2483
-12.623
-13.0854
-13.5503
-13.9254
-14.1356
-14.1249
-13.874
-13.3735
-12.6617
-11.7963
-10.8493
-9.89552
-8.99559
-8.18958
-7.50191
-6.9393
-6.48807
-6.12397
-5.81381
-5.51519
-5.1743
-4.74115
-4.17774
-3.4605
-2.59505
-1.62065
-0.589619
0.452678
1.47363
2.47396
3.49545
4.62162
5.97734
7.71743
9.98437
12.8801
16.4764
20.7928
25.7897
31.3677
37.4161
43.7825
50.2838
56.6752
62.613
67.7358
71.6727
74.2695
75.7275
76.4189
76.5283
75.7701
73.7331
70.1148
64.9935
59.0449
53.5276
50.2124
50.6543
55.6338
65.3445
77.5422
88.1821
96.0945
101.331
104.46
106.135
106.826
106.834
106.354
105.506
104.36
102.953
101.293
99.3683
97.1549
94.6149
91.7004
88.3583
84.5361
80.1865
75.2719
69.7679
63.6657
56.9729
49.7126
41.9221
33.6456
24.9297
15.8151
6.25031
-3.48209
-13.4679
-23.7006
-34.1696
-44.8692
-55.7933
-66.9282
-78.2443
-89.6891
-101.182
-112.61
-123.829
-134.673
-144.964
-154.532
-163.229
-170.943
-177.618
-183.251
-25.3605
-25.2023
-25.0364
-24.7888
-24.393
-23.9245
-23.3961
-22.8504
-22.2264
-21.4541
-20.5001
-19.443
-18.4214
-17.5857
-16.9784
-16.6287
-16.4709
-16.4047
-16.2905
-16.066
-15.7131
-15.3369
-15.0524
-14.9289
-14.9756
-15.1118
-15.1528
-15.0164
-14.6675
-14.1859
-13.723
-13.4034
-13.2884
-13.3894
-13.6465
-13.9287
-14.1059
-14.1073
-13.8921
-13.4924
-12.9968
-12.5245
-12.1728
-11.9974
-12.0261
-12.2483
-12.623
-13.0854
-13.5504
-13.9255
-14.1356
-14.1247
-13.874
-13.3735
-12.6617
-11.7964
-10.8494
-9.89553
-8.99559
-8.18956
-7.50185
-6.93929
-6.48807
-6.12398
-5.81382
-5.51522
-5.17434
-4.7412
-4.17779
-3.46054
-2.59509
-1.62068
-0.58964
0.452662
1.47362
2.47393
3.49541
4.62154
5.97724
7.71729
9.98421
12.8799
16.4762
20.7926
25.7896
31.3676
37.416
43.7825
50.2838
56.6753
62.6133
67.7361
71.6729
74.2697
75.7277
76.419
76.5285
75.7704
73.7334
70.1151
64.9936
59.0447
53.5271
50.2116
50.6533
55.6329
65.3439
77.5423
88.1826
96.095
101.332
104.46
106.135
106.826
106.834
106.354
105.506
104.36
102.953
101.293
99.3683
97.155
94.615
91.7005
88.3584
84.5361
80.1866
75.272
69.768
63.6658
56.973
49.7127
41.9222
33.6457
24.9298
15.8151
6.25032
-3.48206
-13.4679
-23.7006
-34.1696
-44.8692
-55.7933
-66.9282
-78.2443
-89.6892
-101.182
-112.61
-123.829
-134.673
-144.964
-154.532
-163.229
-170.943
-177.618
-183.252
-25.3605
-25.2024
-25.0365
-24.7889
-24.3931
-23.9246
-23.3961
-22.8505
-22.2265
-21.4542
-20.5001
-19.443
-18.4213
-17.5856
-16.9783
-16.6287
-16.4709
-16.4047
-16.2905
-16.0661
-15.7131
-15.3369
-15.0524
-14.9289
-14.9759
-15.1121
-15.1529
-15.0165
-14.6675
-14.1859
-13.7229
-13.4033
-13.2883
-13.3894
-13.6465
-13.9288
-14.1061
-14.1075
-13.8921
-13.4924
-12.9968
-12.5245
-12.1728
-11.9974
-12.0261
-12.2482
-12.623
-13.0854
-13.5504
-13.9256
-14.1357
-14.1252
-13.8742
-13.3736
-12.6618
-11.7964
-10.8494
-9.89553
-8.99558
-8.18956
-7.5019
-6.93928
-6.48806
-6.12398
-5.81383
-5.51524
-5.17438
-4.74126
-4.17786
-3.46061
-2.59515
-1.62072
-0.58966
0.452653
1.47361
2.47391
3.49536
4.62146
5.97711
7.71712
9.98399
12.8796
16.476
20.7924
25.7893
31.3674
37.4159
43.7824
50.2838
56.6754
62.6134
67.7364
71.6733
74.2701
75.7279
76.4192
76.5287
75.7708
73.7338
70.1156
64.9938
59.0446
53.5265
50.2105
50.6519
55.6315
65.3432
77.5426
88.1834
96.0958
101.332
104.461
106.135
106.826
106.835
106.354
105.506
104.36
102.953
101.293
99.3684
97.1551
94.6151
91.7006
88.3585
84.5363
80.1867
75.2722
69.7682
63.666
56.9731
49.7129
41.9223
33.6458
24.9299
15.8153
6.25038
-3.48199
-13.4678
-23.7005
-34.1696
-44.8692
-55.7933
-66.9282
-78.2443
-89.6892
-101.182
-112.61
-123.829
-134.673
-144.965
-154.533
-163.229
-170.944
-177.618
-183.252
-25.3605
-25.2024
-25.0365
-24.7889
-24.3931
-23.9245
-23.3961
-22.8505
-22.2265
-21.4543
-20.5001
-19.443
-18.4213
-17.5855
-16.9782
-16.6286
-16.4709
-16.4047
-16.2906
-16.0661
-15.7132
-15.3369
-15.0523
-14.9288
-14.9754
-15.1118
-15.1529
-15.0165
-14.6676
-14.1859
-13.7229
-13.4033
-13.2882
-13.3892
-13.6465
-13.9288
-14.106
-14.1075
-13.8922
-13.4924
-12.9968
-12.5244
-12.1727
-11.9973
-12.0259
-12.2481
-12.6229
-13.0854
-13.5504
-13.9256
-14.1358
-14.1248
-13.8742
-13.3737
-12.6619
-11.7964
-10.8494
-9.8955
-8.99552
-8.18948
-7.50174
-6.9392
-6.48801
-6.12394
-5.81382
-5.51525
-5.1744
-4.7413
-4.17791
-3.46066
-2.59518
-1.62073
-0.589653
0.452671
1.47362
2.47391
3.49532
4.62137
5.97695
7.7169
9.98373
12.8794
16.4757
20.7921
25.7892
31.3673
37.4158
43.7824
50.2839
56.6756
62.6139
67.7369
71.6739
74.2706
75.7283
76.4195
76.5291
75.7713
73.7345
70.1161
64.9941
59.0443
53.5256
50.209
50.65
55.6297
65.3422
77.5429
88.1845
96.0969
101.333
104.462
106.136
106.826
106.835
106.355
105.506
104.36
102.953
101.293
99.3685
97.1553
94.6152
91.7008
88.3588
84.5365
80.187
75.2724
69.7685
63.6662
56.9734
49.7131
41.9225
33.646
24.9301
15.8155
6.25046
-3.48188
-13.4677
-23.7004
-34.1695
-44.8691
-55.7932
-66.9281
-78.2442
-89.6891
-101.182
-112.61
-123.83
-134.674
-144.965
-154.533
-163.229
-170.944
-177.619
-183.252
-25.3605
-25.2024
-25.0366
-24.789
-24.3932
-23.9246
-23.3962
-22.8506
-22.2266
-21.4544
-20.5002
-19.443
-18.4212
-17.5854
-16.9781
-16.6285
-16.4708
-16.4048
-16.2906
-16.0662
-15.7132
-15.3368
-15.0523
-14.9287
-14.976
-15.1122
-15.153
-15.0166
-14.6677
-14.1859
-13.7228
-13.4032
-13.2881
-13.3893
-13.6465
-13.9289
-14.1063
-14.1077
-13.8923
-13.4925
-12.9968
-12.5244
-12.1726
-11.9972
-12.0259
-12.2481
-12.6229
-13.0854
-13.5505
-13.9257
-14.1359
-14.1255
-13.8744
-13.3738
-12.662
-11.7965
-10.8494
-9.89549
-8.99549
-8.18945
-7.5018
-6.93918
-6.48798
-6.12393
-5.81382
-5.51528
-5.17447
-4.74138
-4.178
-3.46075
-2.59526
-1.62078
-0.589673
0.452668
1.47362
2.47388
3.49525
4.62124
5.97675
7.71662
9.98339
12.879
16.4753
20.7917
25.7888
31.367
37.4156
43.7823
50.284
56.6758
62.6141
67.7375
71.6746
74.2712
75.7287
76.4198
76.5295
75.772
73.7353
70.1169
64.9945
59.0441
53.5245
50.2071
50.6476
55.6275
65.3409
77.5434
88.1859
96.0983
101.334
104.462
106.136
106.827
106.835
106.355
105.506
104.36
102.953
101.293
99.3687
97.1554
94.6154
91.7011
88.359
84.5368
80.1873
75.2727
69.7688
63.6666
56.9737
49.7134
41.9228
33.6462
24.9303
15.8157
6.25056
-3.48175
-13.4676
-23.7003
-34.1693
-44.8689
-55.7931
-66.928
-78.2442
-89.6891
-101.182
-112.61
-123.83
-134.674
-144.965
-154.534
-163.23
-170.945
-177.619
-183.253
-25.3605
-25.2025
-25.0366
-24.789
-24.3932
-23.9245
-23.3961
-22.8506
-22.2267
-21.4545
-20.5003
-19.4429
-18.4211
-17.5852
-16.978
-16.6283
-16.4707
-16.4048
-16.2907
-16.0662
-15.7132
-15.3368
-15.0522
-14.9286
-14.9751
-15.1118
-15.1531
-15.0168
-14.6677
-14.1859
-13.7227
-13.403
-13.288
-13.3891
-13.6464
-13.9289
-14.1062
-14.1077
-13.8924
-13.4926
-12.9968
-12.5243
-12.1725
-11.997
-12.0257
-12.248
-12.6228
-13.0854
-13.5505
-13.9258
-14.1361
-14.125
-13.8745
-13.3739
-12.662
-11.7965
-10.8494
-9.89544
-8.99541
-8.18934
-7.50158
-6.93907
-6.4879
-6.12388
-5.81381
-5.51529
-5.17451
-4.74145
-4.17809
-3.46083
-2.59531
-1.6208
-0.589667
0.45269
1.47364
2.47387
3.49518
4.62109
5.97651
7.7163
9.98299
12.8785
16.4748
20.7913
25.7886
31.3667
37.4154
43.7822
50.2841
56.6762
62.6148
67.7383
71.6754
74.272
75.7292
76.4202
76.5301
75.7728
73.7363
70.1178
64.995
59.0438
53.5232
50.2048
50.6447
55.6248
65.3394
77.5439
88.1875
96.1
101.336
104.463
106.137
106.827
106.835
106.355
105.506
104.36
102.953
101.293
99.3689
97.1556
94.6157
91.7013
88.3593
84.5372
80.1876
75.2731
69.7692
63.6669
56.974
49.7137
41.9231
33.6465
24.9305
15.816
6.25069
-3.48159
-13.4674
-23.7001
-34.1692
-44.8688
-55.7929
-66.9279
-78.2441
-89.6891
-101.182
-112.61
-123.83
-134.674
-144.966
-154.534
-163.231
-170.945
-177.62
-183.254
-25.3606
-25.2025
-25.0367
-24.7891
-24.3933
-23.9247
-23.3962
-22.8507
-22.2268
-21.4546
-20.5003
-19.4429
-18.421
-17.5851
-16.9778
-16.6282
-16.4707
-16.4048
-16.2908
-16.0663
-15.7132
-15.3367
-15.052
-14.9285
-14.976
-15.1123
-15.1533
-15.0169
-14.6678
-14.1859
-13.7226
-13.4029
-13.2878
-13.3891
-13.6464
-13.929
-14.1065
-14.1079
-13.8925
-13.4926
-12.9968
-12.5242
-12.1724
-11.9969
-12.0256
-12.2479
-12.6228
-13.0854
-13.5506
-13.9259
-14.1363
-14.1259
-13.8748
-13.3741
-12.6622
-11.7966
-10.8494
-9.89542
-8.99536
-8.18929
-7.50165
-6.93903
-6.48786
-6.12385
-5.81381
-5.51533
-5.17459
-4.74156
-4.17822
-3.46095
-2.59541
-1.62086
-0.589692
0.45269
1.47364
2.47384
3.49509
4.62091
5.97623
7.71591
9.98252
12.878
16.4743
20.7908
25.7879
31.3663
37.4152
43.7821
50.2841
56.6765
62.6152
67.7391
71.6764
74.2728
75.7298
76.4207
76.5307
75.7737
73.7374
70.1188
64.9955
59.0434
53.5217
50.2021
50.6414
55.6217
65.3376
77.5445
88.1895
96.102
101.337
104.464
106.138
106.828
106.836
106.355
105.506
104.361
102.953
101.294
99.3691
97.1558
94.6159
91.7017
88.3597
84.5375
80.1881
75.2736
69.7696
63.6674
56.9745
49.7141
41.9235
33.6468
24.9308
15.8163
6.25084
-3.4814
-13.4672
-23.6999
-34.169
-44.8686
-55.7928
-66.9277
-78.244
-89.6891
-101.182
-112.611
-123.83
-134.675
-144.966
-154.535
-163.231
-170.946
-177.621
-183.254
-25.3606
-25.2026
-25.0367
-24.7892
-24.3933
-23.9246
-23.3962
-22.8507
-22.2269
-21.4547
-20.5004
-19.4429
-18.4208
-17.5849
-16.9776
-16.628
-16.4706
-16.4048
-16.2909
-16.0664
-15.7132
-15.3367
-15.0519
-14.9284
-14.9749
-15.1118
-15.1534
-15.0171
-14.6679
-14.1858
-13.7225
-13.4027
-13.2876
-13.3888
-13.6464
-13.929
-14.1065
-14.1081
-13.8927
-13.4927
-12.9967
-12.5241
-12.1722
-11.9967
-12.0254
-12.2477
-12.6227
-13.0854
-13.5506
-13.9261
-14.1364
-14.1253
-13.8749
-13.3743
-12.6623
-11.7967
-10.8494
-9.89536
-8.99526
-8.18914
-7.50136
-6.93889
-6.48776
-6.1238
-5.81379
-5.51535
-5.17465
-4.74166
-4.17833
-3.46106
-2.59549
-1.6209
-0.589687
0.452716
1.47366
2.47383
3.495
4.62072
5.97592
7.71547
9.98199
12.8774
16.4737
20.7902
25.7877
31.366
37.4149
43.782
50.2843
56.6769
62.616
67.7401
71.6775
74.2738
75.7305
76.4212
76.5314
75.7748
73.7387
70.12
64.9961
59.0429
53.52
50.1991
50.6376
55.6181
65.3356
77.5452
88.1917
96.1042
101.339
104.466
106.139
106.828
106.836
106.356
105.507
104.361
102.954
101.294
99.3693
97.1562
94.6163
91.702
88.3601
84.538
80.1885
75.2741
69.7701
63.6679
56.9749
49.7146
41.9239
33.6472
24.9312
15.8167
6.25101
-3.48119
-13.467
-23.6997
-34.1688
-44.8684
-55.7926
-66.9276
-78.2439
-89.689
-101.182
-112.611
-123.831
-134.675
-144.967
-154.535
-163.232
-170.947
-177.621
-183.255
-25.3607
-25.2026
-25.0368
-24.7894
-24.3935
-23.9249
-23.3963
-22.8508
-22.227
-21.4549
-20.5005
-19.4429
-18.4207
-17.5847
-16.9774
-16.6279
-16.4705
-16.4048
-16.291
-16.0665
-15.7133
-15.3366
-15.0518
-14.9283
-14.9759
-15.1125
-15.1536
-15.0173
-14.6681
-14.1858
-13.7224
-13.4025
-13.2875
-13.3888
-13.6464
-13.9292
-14.1069
-14.1083
-13.8929
-13.4928
-12.9967
-12.524
-12.172
-11.9966
-12.0253
-12.2476
-12.6226
-13.0854
-13.5507
-13.9262
-14.1367
-14.1265
-13.8752
-13.3745
-12.6625
-11.7968
-10.8494
-9.89534
-8.9952
-8.18909
-7.50144
-6.93884
-6.4877
-6.12376
-5.81379
-5.5154
-5.17475
-4.7418
-4.17849
-3.46122
-2.59562
-1.62098
-0.589717
0.452719
1.47366
2.47379
3.49489
4.62049
5.97555
7.71497
9.98138
12.8767
16.473
20.7895
25.7868
31.3655
37.4146
43.7819
50.2844
56.6773
62.6166
67.7412
71.6787
74.275
75.7313
76.4218
76.5322
75.776
73.7401
70.1213
64.9968
59.0425
53.518
50.1957
50.6333
55.6141
65.3334
77.546
88.1941
96.1067
101.341
104.467
106.14
106.829
106.837
106.356
105.507
104.361
102.954
101.294
99.3696
97.1564
94.6166
91.7024
88.3606
84.5385
80.1891
75.2746
69.7707
63.6684
56.9755
49.7151
41.9243
33.6476
24.9315
15.8171
6.25119
-3.48095
-13.4668
-23.6995
-34.1686
-44.8682
-55.7924
-66.9274
-78.2438
-89.689
-101.182
-112.611
-123.831
-134.676
-144.968
-154.536
-163.233
-170.948
-177.622
-183.256
-25.3607
-25.2027
-25.0369
-24.7894
-24.3935
-23.9247
-23.3962
-22.8508
-22.2272
-21.455
-20.5006
-19.4428
-18.4205
-17.5844
-16.9771
-16.6277
-16.4704
-16.4049
-16.2911
-16.0666
-15.7133
-15.3365
-15.0516
-14.9281
-14.9746
-15.1119
-15.1537
-15.0175
-14.6682
-14.1858
-13.7223
-13.4023
-13.2872
-13.3885
-13.6463
-13.9292
-14.1068
-14.1085
-13.893
-13.4929
-12.9967
-12.5239
-12.1718
-11.9963
-12.025
-12.2474
-12.6225
-13.0854
-13.5508
-13.9264
-14.1369
-14.1257
-13.8754
-13.3747
-12.6626
-11.7968
-10.8494
-9.89526
-8.99507
-8.1889
-7.50109
-6.93867
-6.48759
-6.12369
-5.81377
-5.51543
-5.17483
-4.74192
-4.17863
-3.46135
-2.59572
-1.62102
-0.589712
0.45275
1.47368
2.47377
3.49477
4.62025
5.97516
7.71443
9.98072
12.876
16.4722
20.7888
25.7866
31.365
37.4143
43.7818
50.2845
56.6778
62.6175
67.7425
71.6801
74.2762
75.7321
76.4225
76.5331
75.7774
73.7417
70.1228
64.9975
59.0419
53.5158
50.1919
50.6285
55.6097
65.3309
77.5469
88.1969
96.1095
101.343
104.469
106.141
106.83
106.837
106.356
105.507
104.361
102.954
101.294
99.3699
97.1568
94.6171
91.7029
88.3611
84.5391
80.1897
75.2753
69.7713
63.6691
56.9761
49.7156
41.9248
33.6481
24.932
15.8175
6.2514
-3.48068
-13.4665
-23.6993
-34.1684
-44.868
-55.7922
-66.9272
-78.2436
-89.689
-101.182
-112.611
-123.832
-134.676
-144.969
-154.537
-163.234
-170.949
-177.624
-183.257
-25.3608
-25.2028
-25.037
-24.7896
-24.3937
-23.925
-23.3964
-22.851
-22.2274
-21.4552
-20.5007
-19.4428
-18.4204
-17.5841
-16.9768
-16.6274
-16.4703
-16.4049
-16.2912
-16.0668
-15.7134
-15.3364
-15.0514
-14.9279
-14.9758
-15.1127
-15.154
-15.0177
-14.6683
-14.1858
-13.7221
-13.4021
-13.287
-13.3885
-13.6463
-13.9294
-14.1073
-14.1088
-13.8933
-13.493
-12.9967
-12.5238
-12.1717
-11.9962
-12.0249
-12.2473
-12.6225
-13.0854
-13.5509
-13.9266
-14.1372
-14.1271
-13.8758
-13.375
-12.6628
-11.7969
-10.8495
-9.89523
-8.99499
-8.18883
-7.50117
-6.93859
-6.48751
-6.12364
-5.81376
-5.51549
-5.17495
-4.74209
-4.17883
-3.46155
-2.59587
-1.62112
-0.589747
0.452754
1.47369
2.47372
3.49463
4.61997
5.97471
7.71382
9.97997
12.8752
16.4714
20.788
25.7855
31.3644
37.4139
43.7816
50.2847
56.6784
62.6183
67.7438
71.6816
74.2776
75.7331
76.4232
76.5341
75.7789
73.7435
70.1244
64.9983
59.0413
53.5135
50.1877
50.6233
55.6048
65.3281
77.5478
88.1999
96.1126
101.346
104.47
106.142
106.831
106.838
106.357
105.508
104.362
102.954
101.295
99.3703
97.1572
94.6175
91.7034
88.3616
84.5397
80.1904
75.2759
69.772
63.6698
56.9768
49.7163
41.9254
33.6486
24.9324
15.818
6.25163
-3.48039
-13.4663
-23.699
-34.1681
-44.8677
-55.7919
-66.927
-78.2435
-89.6889
-101.183
-112.611
-123.832
-134.677
-144.969
-154.538
-163.235
-170.95
-177.625
-183.258
-25.3608
-25.2028
-25.0371
-24.7897
-24.3937
-23.9248
-23.3963
-22.851
-22.2275
-21.4554
-20.5009
-19.4427
-18.4202
-17.5838
-16.9765
-16.6272
-16.4702
-16.4049
-16.2913
-16.0669
-15.7134
-15.3363
-15.0512
-14.9277
-14.9743
-15.1121
-15.1541
-15.0179
-14.6685
-14.1858
-13.7219
-13.4018
-13.2867
-13.3881
-13.6462
-13.9294
-14.1072
-14.109
-13.8935
-13.4931
-12.9967
-12.5236
-12.1714
-11.9958
-12.0245
-12.2471
-12.6223
-13.0853
-13.551
-13.9268
-14.1374
-14.1262
-13.876
-13.3752
-12.663
-11.797
-10.8495
-9.89514
-8.99484
-8.18862
-7.50078
-6.9384
-6.48738
-6.12356
-5.81374
-5.51552
-5.17504
-4.74223
-4.179
-3.46171
-2.59599
-1.62117
-0.589742
0.452791
1.47372
2.47369
3.4945
4.61968
5.97424
7.71317
9.97917
12.8743
16.4705
20.7872
25.7852
31.3639
37.4135
43.7815
50.2849
56.679
62.6194
67.7453
71.6832
74.2791
75.7341
76.424
76.5352
75.7805
73.7455
70.1262
64.9992
59.0407
53.5109
50.1831
50.6176
55.5994
65.3251
77.5489
88.2032
96.1159
101.349
104.472
106.143
106.831
106.838
106.357
105.508
104.362
102.955
101.295
99.3707
97.1577
94.618
91.704
88.3623
84.5404
80.1911
75.2767
69.7728
63.6705
56.9775
49.7169
41.926
33.6491
24.9329
15.8186
6.25189
-3.48007
-13.4659
-23.6987
-34.1678
-44.8675
-55.7917
-66.9268
-78.2433
-89.6889
-101.183
-112.612
-123.832
-134.678
-144.97
-154.539
-163.237
-170.952
-177.626
-183.26
-25.3609
-25.2029
-25.0373
-24.7899
-24.3939
-23.9252
-23.3965
-22.8511
-22.2277
-21.4557
-20.501
-19.4427
-18.4199
-17.5835
-16.9762
-16.6269
-16.4701
-16.405
-16.2915
-16.0671
-15.7135
-15.3362
-15.051
-14.9275
-14.9757
-15.113
-15.1544
-15.0182
-14.6687
-14.1858
-13.7218
-13.4015
-13.2865
-13.3881
-13.6462
-13.9296
-14.1078
-14.1093
-13.8937
-13.4933
-12.9967
-12.5235
-12.1712
-11.9956
-12.0244
-12.2469
-12.6222
-13.0854
-13.5511
-13.927
-14.1377
-14.1277
-13.8764
-13.3755
-12.6632
-11.7972
-10.8495
-9.8951
-8.99474
-8.18852
-7.50085
-6.9383
-6.48728
-6.1235
-5.81373
-5.51559
-5.17519
-4.74244
-4.17924
-3.46194
-2.59617
-1.62128
-0.589783
0.452795
1.47372
2.47364
3.49433
4.61935
5.97371
7.71244
9.97829
12.8733
16.4695
20.7862
25.7839
31.3632
37.4131
43.7813
50.285
56.6796
62.6204
67.7469
71.685
74.2807
75.7352
76.4248
76.5364
75.7822
73.7476
70.1281
65.0002
59.04
53.508
50.1782
50.6113
55.5936
65.3218
77.55
88.2067
96.1195
101.352
104.474
106.145
106.832
106.839
106.358
105.508
104.362
102.955
101.295
99.371
97.1581
94.6185
91.7045
88.3629
84.5411
80.1919
75.2775
69.7736
63.6713
56.9783
49.7177
41.9267
33.6497
24.9335
15.8192
6.25216
-3.47972
-13.4656
-23.6984
-34.1675
-44.8671
-55.7914
-66.9266
-78.2432
-89.6888
-101.183
-112.612
-123.833
-134.678
-144.971
-154.541
-163.238
-170.953
-177.628
-183.261
-25.361
-25.2031
-25.0374
-24.7901
-24.3939
-23.9248
-23.3964
-22.8512
-22.228
-21.456
-20.5012
-19.4426
-18.4196
-17.583
-16.9756
-16.6265
-16.4698
-16.405
-16.2917
-16.0673
-15.7135
-15.336
-15.0506
-14.9272
-14.9731
-15.1119
-15.1547
-15.0186
-14.6689
-14.1858
-13.7215
-13.4011
-13.286
-13.3875
-13.6461
-13.9297
-14.1077
-14.1097
-13.8941
-13.4935
-12.9966
-12.5232
-12.1708
-11.995
-12.0237
-12.2465
-12.622
-13.0853
-13.5513
-13.9273
-14.1382
-14.1264
-13.8768
-13.3759
-12.6635
-11.7973
-10.8495
-9.89495
-8.99448
-8.18816
-7.50019
-6.93796
-6.48705
-6.12336
-5.81369
-5.51565
-5.17535
-4.74269
-4.17953
-3.46222
-2.59638
-1.62138
-0.589775
0.452861
1.47377
2.47359
3.49409
4.61884
5.97289
7.7113
9.9769
12.8718
16.4679
20.7848
25.7834
31.3622
37.4124
43.7811
50.2854
56.6807
62.6222
67.7496
71.6879
74.2833
75.7371
76.4262
76.5382
75.7851
73.7509
70.1312
65.0017
59.0388
53.5035
50.1702
50.6013
55.5842
65.3165
77.5518
88.2125
96.1254
101.356
104.478
106.147
106.834
106.84
106.359
105.509
104.363
102.956
101.296
99.3717
97.1589
94.6194
91.7055
88.364
84.5423
80.1931
75.2788
69.775
63.6727
56.9795
49.7189
41.9278
33.6507
24.9344
15.8201
6.2526
-3.47916
-13.4651
-23.6979
-34.167
-44.8667
-55.7909
-66.9262
-78.2429
-89.6887
-101.183
-112.613
-123.834
-134.68
-144.973
-154.543
-163.24
-170.956
-177.63
-183.263
-25.3611
-25.2033
-25.0379
-24.7907
-24.3946
-23.9257
-23.3969
-22.8516
-22.2286
-21.4566
-20.5016
-19.4425
-18.4191
-17.5823
-16.9748
-16.6259
-16.4696
-16.4051
-16.2921
-16.0677
-15.7137
-15.3358
-15.0502
-14.9267
-14.9763
-15.1139
-15.1554
-15.0193
-14.6694
-14.1858
-13.7211
-13.4004
-13.2853
-13.3874
-13.6461
-13.9301
-14.1089
-14.1106
-13.8948
-13.4938
-12.9966
-12.5229
-12.1702
-11.9946
-12.0234
-12.2461
-12.6218
-13.0853
-13.5516
-13.9279
-14.139
-14.1298
-13.8779
-13.3767
-12.6641
-11.7977
-10.8496
-9.89484
-8.99424
-8.18791
-7.50031
-6.93772
-6.48682
-6.12321
-5.81368
-5.51582
-5.1757
-4.74319
-4.18011
-3.46278
-2.59683
-1.62165
-0.589877
0.45287
1.47378
2.47346
3.49368
4.61803
5.97159
7.70952
9.97472
12.8693
16.4654
20.7823
25.7801
31.3605
37.4113
43.7806
50.2858
56.6822
62.6246
67.7535
71.6923
74.2873
75.7398
76.4284
76.5411
75.7894
73.7561
70.1359
65.0041
59.0371
53.4965
50.158
50.5861
55.5699
65.3085
77.5546
88.2213
96.1343
101.364
104.483
106.151
106.836
106.842
106.36
105.51
104.364
102.957
101.297
99.3727
97.16
94.6206
91.707
88.3657
84.5441
80.1951
75.2809
69.777
63.6747
56.9815
49.7207
41.9294
33.6522
24.9357
15.8216
6.25327
-3.47831
-13.4642
-23.6971
-34.1662
-44.8659
-55.7902
-66.9256
-78.2425
-89.6886
-101.183
-112.613
-123.835
-134.682
-144.975
-154.546
-163.244
-170.959
-177.633
-183.266
-25.3613
-25.2035
-25.0379
-24.7909
-24.3946
-23.9251
-23.3966
-22.8516
-22.229
-21.4572
-20.5019
-19.4424
-18.4185
-17.5814
-16.9739
-16.6251
-16.4692
-16.4052
-16.2924
-16.0681
-15.7138
-15.3354
-15.0495
-14.9261
-14.9721
-15.1123
-15.156
-15.02
-14.6698
-14.1858
-13.7205
-13.3996
-13.2845
-13.3864
-13.6458
-13.9304
-14.1089
-14.1112
-13.8954
-13.4941
-12.9965
-12.5224
-12.1695
-11.9936
-12.0223
-12.2454
-12.6214
-13.0853
-13.5519
-13.9285
-14.1398
-14.128
-13.8786
-13.3774
-12.6646
-11.7979
-10.8496
-9.8946
-8.99379
-8.18731
-7.49925
-6.93716
-6.48642
-6.12298
-5.81361
-5.51592
-5.17599
-4.74363
-4.18063
-3.46327
-2.59719
-1.62182
-0.58986
0.452986
1.47387
2.47339
3.49328
4.61716
5.97018
7.70757
9.97234
12.8667
16.4627
20.7799
25.7795
31.3589
37.4102
43.7802
50.2863
56.684
62.6279
67.758
71.6973
74.2918
75.7429
76.4308
76.5443
75.7942
73.7619
70.1413
65.0068
59.0352
53.4887
50.1443
50.5689
55.5538
65.2994
77.5578
88.2312
96.1443
101.372
104.489
106.154
106.839
106.844
106.361
105.511
104.365
102.958
101.298
99.3739
97.1613
94.6221
91.7087
88.3675
84.5461
80.1972
75.2831
69.7793
63.6769
56.9837
49.7227
41.9313
33.6539
24.9372
15.8232
6.25403
-3.47734
-13.4633
-23.6962
-34.1653
-44.8651
-55.7894
-66.9249
-78.242
-89.6885
-101.183
-112.614
-123.837
-134.684
-144.978
-154.549
-163.247
-170.963