/*--------------------------------*- C++ -*----------------------------------*\
| =========                 |                                                 |
| \\      /  F ield         | OpenFOAM: The Open Source CFD Toolbox           |
|  \\    /   O peration     | Version:  v1912                                 |
|   \\  /    A nd           | Website:  www.openfoam.com                      |
|    \\/     M anipulation  |                                                 |
\*---------------------------------------------------------------------------*/
FoamFile
{
    version     2.0;
    format      ascii;
    class       volVectorField;
    location    "20";
    object      U;
}
// * * * * * * * * * * * * * * * * * * * * * * * * * * * * * * * * * * * * * //

dimensions      [0 1 -1 0 0 0 0];


internalField   nonuniform List<vector> 
114144
(
(-0.6074 -0.0843199 0)
(-0.593983 -0.0701523 0)
(-0.688212 -0.0598377 0)
(-0.777941 -0.0503778 0)
(-0.855414 -0.0429693 0)
(-0.922399 -0.0361874 0)
(-0.978692 -0.0295741 0)
(-1.0235 -0.022856 0)
(-1.05571 -0.0157801 0)
(-1.07404 -0.00812054 0)
(-1.07703 0.000271382 0)
(-1.06318 0.00937512 0)
(-1.03108 0.019056 0)
(-0.979749 0.0290374 0)
(-0.908877 0.0389001 0)
(-0.819003 0.048127 0)
(-0.71162 0.0561723 0)
(-0.589142 0.062543 0)
(-0.454694 0.0668765 0)
(-0.311184 0.0689754 0)
(-0.160919 0.0679565 0)
(-0.0243667 0.0635044 0)
(0.110883 0.0619071 0)
(0.25115 0.0565002 0)
(0.374982 0.0505458 0)
(0.487901 0.0441717 0)
(0.588996 0.0380872 0)
(0.678091 0.0324815 0)
(0.755277 0.0273645 0)
(0.820642 0.0225885 0)
(0.874044 0.0179026 0)
(0.914976 0.0130266 0)
(0.942574 0.00773565 0)
(0.955741 0.00192287 0)
(0.953383 -0.00437216 0)
(0.93471 -0.0109216 0)
(0.89944 -0.0174029 0)
(0.848047 -0.0234075 0)
(0.781853 -0.0285298 0)
(0.703005 -0.0324434 0)
(0.614293 -0.0349758 0)
(0.518806 -0.0361688 0)
(0.418499 -0.0362407 0)
(0.316013 -0.0330812 0)
(0.217875 -0.0284367 0)
(0.127043 -0.0250435 0)
(0.05276 -0.0220848 0)
(-0.0228485 -0.0203959 0)
(-0.105674 -0.0189945 0)
(-0.177187 -0.0173214 0)
(-0.243736 -0.0160538 0)
(-0.306093 -0.0150984 0)
(-0.36489 -0.0142654 0)
(-0.420026 -0.0133503 0)
(-0.47098 -0.0121909 0)
(-0.516914 -0.0107034 0)
(-0.556855 -0.00889061 0)
(-0.589859 -0.00682923 0)
(-0.615161 -0.00464629 0)
(-0.632243 -0.00248375 0)
(-0.640996 -0.000590004 0)
(-0.641416 0.00138024 0)
(-0.633622 0.00297281 0)
(-0.617966 0.00436171 0)
(-0.594645 0.00563407 0)
(-0.563743 0.00697284 0)
(-0.52516 0.00850091 0)
(-0.478763 0.0101406 0)
(-0.424498 0.0118715 0)
(-0.362485 0.0136269 0)
(-0.293139 0.0152988 0)
(-0.217489 0.0167437 0)
(-0.135561 0.0178968 0)
(-0.0535093 0.0182255 0)
(0.0284906 0.0180326 0)
(0.111788 0.0173957 0)
(0.189687 0.0159339 0)
(0.260259 0.0138854 0)
(0.321409 0.0113792 0)
(0.371715 0.008589 0)
(0.410266 0.00570249 0)
(0.436883 0.00288659 0)
(0.452111 0.000258991 0)
(0.456544 -0.00233318 0)
(0.451981 -0.00359897 0)
(0.440322 -0.00455587 0)
(0.422545 -0.00539755 0)
(0.400251 -0.00587378 0)
(0.374861 -0.00606701 0)
(0.347519 -0.00606013 0)
(0.3191 -0.00593975 0)
(0.290239 -0.00578592 0)
(0.26112 -0.00571834 0)
(0.231841 -0.0053981 0)
(0.203068 -0.0046477 0)
(0.17521 -0.00447349 0)
(0.148236 -0.00428389 0)
(0.122181 -0.00407285 0)
(0.0970257 -0.00385656 0)
(0.0727536 -0.00364832 0)
(0.0493231 -0.00346127 0)
(0.026644 -0.00331735 0)
(0.00540676 -0.00316543 0)
(-0.0175172 -0.00321092 0)
(-0.0415013 -0.00314135 0)
(-0.064019 -0.00313608 0)
(-0.0868196 -0.00314091 0)
(-0.109597 -0.00315906 0)
(-0.132559 -0.00318115 0)
(-0.155716 -0.00320799 0)
(-0.1791 -0.0032455 0)
(-0.202726 -0.0033034 0)
(-0.226592 -0.0033902 0)
(-0.250656 -0.00350712 0)
(-0.274795 -0.00364227 0)
(-0.298745 -0.00376676 0)
(-0.322041 -0.00383415 0)
(-0.343966 -0.00378356 0)
(-0.363487 -0.00354459 0)
(-0.379347 -0.00305622 0)
(-0.389851 -0.00223778 0)
(-0.39358 -0.00131755 0)
(-0.388757 0.000309733 0)
(-0.373531 0.00209021 0)
(-0.346772 0.00406344 0)
(-0.307614 0.00609027 0)
(-0.255936 0.00802953 0)
(-0.192448 0.009717 0)
(-0.11853 0.0110105 0)
(-0.0368368 0.0117687 0)
(0.0501163 0.0119556 0)
(0.138808 0.0114954 0)
(0.225387 0.0104538 0)
(0.306447 0.00891036 0)
(0.378658 0.00699338 0)
(0.439377 0.00485714 0)
(0.486532 0.00266161 0)
(0.519008 0.000562339 0)
(0.53626 -0.0013698 0)
(0.538643 -0.00278745 0)
(0.527268 -0.00404591 0)
(0.50302 -0.00490415 0)
(0.46764 -0.00543073 0)
(0.422805 -0.00568136 0)
(0.370058 -0.00571105 0)
(0.311714 -0.00563667 0)
(0.246918 -0.00540119 0)
(0.179625 -0.00457814 0)
(0.112658 -0.00422979 0)
(0.0496241 -0.00358274 0)
(-0.0141306 -0.00284621 0)
(-0.0781011 -0.00223093 0)
(-0.135087 -0.00143671 0)
(-0.187432 -0.000572076 0)
(-0.232293 0.000231164 0)
(-0.270014 0.000962297 0)
(-0.299948 0.0015492 0)
(-0.322205 0.00196997 0)
(-0.33736 0.00218914 0)
(-0.345763 0.0024249 0)
(-0.348776 0.00197406 0)
(-0.346908 0.00173261 0)
(-0.341967 0.00137748 0)
(-0.332768 0.00103725 0)
(-0.322175 0.000736024 0)
(-0.310703 0.000526198 0)
(-0.295503 0.000399289 0)
(-0.279343 0.000336592 0)
(-0.260509 0.000320514 0)
(-0.239078 0.000274616 0)
(-0.214523 4.75033e-05 0)
(-0.187342 -0.000198552 0)
(-0.157427 -0.000591367 0)
(-0.124808 -0.00111744 0)
(-0.0895053 -0.00174227 0)
(-0.0525885 -0.00246342 0)
(-0.0142134 -0.00323768 0)
(0.0255676 -0.00386179 0)
(0.0654937 -0.00448367 0)
(0.104643 -0.00497466 0)
(0.142471 -0.00532286 0)
(0.17853 -0.00552116 0)
(0.212384 -0.00556707 0)
(0.243714 -0.00546412 0)
(0.272238 -0.00522045 0)
(0.297698 -0.00482589 0)
(0.319771 -0.0042956 0)
(0.338106 -0.00360976 0)
(0.352233 -0.0027807 0)
(0.361616 -0.00177998 0)
(0.3657 -0.00066527 0)
(0.364043 0.000488841 0)
(0.35616 0.00175925 0)
(0.342005 0.00303645 0)
(0.321841 0.0042539 0)
(0.296012 0.00534897 0)
(0.265159 0.00628088 0)
(0.230187 0.00702056 0)
(0.192131 0.00751927 0)
(0.151987 0.0078187 0)
(0.110742 0.00794692 0)
(0.0692073 0.00793792 0)
(0.0280207 0.0078233 0)
(-0.0124823 0.00763116 0)
(-0.0519087 0.00738078 0)
(-0.0898568 0.00707825 0)
(-0.12612 0.00671832 0)
(-0.160362 0.00628887 0)
(-0.19217 0.00577474 0)
(-0.221039 0.00516368 0)
(-0.246407 0.00444921 0)
(-0.267729 0.00363498 0)
(-0.284525 0.00273496 0)
(-0.296392 0.0017718 0)
(-0.303062 0.000770553 0)
(-0.304386 -0.000248144 0)
(-0.300377 -0.0012277 0)
(-0.291341 -0.00214746 0)
(-0.277664 -0.00298045 0)
(-0.259865 -0.0037052 0)
(-0.238564 -0.00430677 0)
(-0.214445 -0.00477651 0)
(-0.18821 -0.00511243 0)
(-0.160564 -0.0053171 0)
(-0.132185 -0.00539759 0)
(-0.1037 -0.0053644 0)
(-0.0756804 -0.00523015 0)
(-0.0486295 -0.00500936 0)
(-0.0229624 -0.00471654 0)
(0.00105013 -0.00436625 0)
(0.0230596 -0.0039736 0)
(0.0428862 -0.00355156 0)
(0.060428 -0.00311239 0)
(0.07563 -0.00266756 0)
(0.0884877 -0.00222664 0)
(0.0990444 -0.00179782 0)
(0.107385 -0.00138777 0)
(0.113623 -0.00100184 0)
(0.117898 -0.000644045 0)
(0.120367 -0.000317156 0)
(0.121198 -2.29817e-05 0)
(0.120575 0.000237218 0)
(0.118662 0.000465434 0)
(0.115639 0.000660947 0)
(0.111667 0.000825427 0)
(0.106913 0.00096201 0)
(0.10151 0.00107617 0)
(0.0955198 0.00117089 0)
(0.0892756 0.00131886 0)
(0.0815451 0.00136886 0)
(-0.564117 -0.00326982 0)
(-0.590019 0.0155189 0)
(-0.686681 0.0235495 0)
(-0.777912 0.0294625 0)
(-0.856672 0.0299297 0)
(-0.924175 0.0275062 0)
(-0.980752 0.0233584 0)
(-1.02575 0.0179598 0)
(-1.0581 0.0115204 0)
(-1.07653 0.00416337 0)
(-1.07962 -0.00408842 0)
(-1.06582 -0.013263 0)
(-1.0337 -0.0232436 0)
(-0.982237 -0.0337313 0)
(-0.911094 -0.0443232 0)
(-0.820798 -0.0545367 0)
(-0.71284 -0.0638417 0)
(-0.589649 -0.0717117 0)
(-0.454392 -0.0776954 0)
(-0.310367 -0.0815934 0)
(-0.160139 -0.0850281 0)
(-0.0217107 -0.0897164 0)
(0.114841 -0.081149 0)
(0.254522 -0.0774397 0)
(0.378535 -0.0719301 0)
(0.491487 -0.0650856 0)
(0.59264 -0.057901 0)
(0.681731 -0.0506548 0)
(0.758897 -0.0434204 0)
(0.824265 -0.036135 0)
(0.877714 -0.0286558 0)
(0.918738 -0.0208139 0)
(0.946453 -0.0124765 0)
(0.959715 -0.00359936 0)
(0.957379 0.0057453 0)
(0.938596 0.0153216 0)
(0.903027 0.0247807 0)
(0.851118 0.0336653 0)
(0.784192 0.041493 0)
(0.70442 0.0478139 0)
(0.61463 0.0522574 0)
(0.517979 0.0545566 0)
(0.417428 0.0546491 0)
(0.31523 0.0553886 0)
(0.216182 0.057989 0)
(0.124245 0.0561627 0)
(0.0493591 0.0530575 0)
(-0.0264358 0.0479293 0)
(-0.108665 0.043617 0)
(-0.179609 0.0409505 0)
(-0.245949 0.0387208 0)
(-0.308223 0.0366713 0)
(-0.36706 0.0345828 0)
(-0.422346 0.0322483 0)
(-0.473529 0.0294969 0)
(-0.519727 0.0262165 0)
(-0.559913 0.0223749 0)
(-0.593098 0.0180211 0)
(-0.618486 0.0132693 0)
(-0.635593 0.00826909 0)
(-0.644171 0.00310489 0)
(-0.644355 -0.00187691 0)
(-0.636417 -0.00684745 0)
(-0.620575 -0.0117268 0)
(-0.597068 -0.0165453 0)
(-0.565974 -0.0213119 0)
(-0.527251 -0.0260529 0)
(-0.480742 -0.030841 0)
(-0.426289 -0.0356137 0)
(-0.36395 -0.040214 0)
(-0.29409 -0.0443908 0)
(-0.217686 -0.0478518 0)
(-0.13492 -0.0501167 0)
(-0.0518877 -0.0517219 0)
(0.0313563 -0.0515014 0)
(0.11576 -0.0490156 0)
(0.194534 -0.0453058 0)
(0.265809 -0.0401678 0)
(0.327362 -0.0339171 0)
(0.37774 -0.0269355 0)
(0.416033 -0.0196507 0)
(0.442085 -0.0124981 0)
(0.456419 -0.00586774 0)
(0.460178 -0.000203832 0)
(0.454973 0.00492622 0)
(0.442246 0.00911346 0)
(0.423552 0.0121713 0)
(0.400595 0.0143499 0)
(0.374691 0.0157806 0)
(0.346976 0.0166164 0)
(0.318299 0.0169979 0)
(0.28924 0.0170293 0)
(0.260093 0.0167327 0)
(0.231031 0.0166137 0)
(0.202187 0.0170641 0)
(0.174107 0.0169454 0)
(0.147152 0.0166103 0)
(0.121122 0.0162042 0)
(0.0959976 0.0157736 0)
(0.07177 0.0153478 0)
(0.0483958 0.0149594 0)
(0.0258029 0.0146031 0)
(0.00460369 0.014448 0)
(-0.0182486 0.0139975 0)
(-0.0421248 0.0140202 0)
(-0.0646087 0.0140332 0)
(-0.0873816 0.0141351 0)
(-0.110151 0.0142668 0)
(-0.133111 0.0144227 0)
(-0.156269 0.0145913 0)
(-0.179656 0.0147686 0)
(-0.203286 0.0149496 0)
(-0.22717 0.0151203 0)
(-0.251285 0.0152475 0)
(-0.275535 0.0152683 0)
(-0.299684 0.0150809 0)
(-0.323294 0.0145416 0)
(-0.345662 0.0134698 0)
(-0.365754 0.0116635 0)
(-0.382274 0.0089287 0)
(-0.393561 0.00510741 0)
(-0.39791 0.000137693 0)
(-0.393518 -0.00600773 0)
(-0.378633 -0.0131909 0)
(-0.351827 -0.0211539 0)
(-0.312209 -0.029497 0)
(-0.259619 -0.0377113 0)
(-0.194783 -0.0452376 0)
(-0.119151 -0.0514913 0)
(-0.0354696 -0.056005 0)
(0.0535793 -0.0583159 0)
(0.144302 -0.0582478 0)
(0.232696 -0.0557016 0)
(0.31519 -0.0508154 0)
(0.38835 -0.0438918 0)
(0.44946 -0.0353661 0)
(0.496451 -0.0257613 0)
(0.528237 -0.0156419 0)
(0.544448 -0.00548234 0)
(0.545432 0.00423905 0)
(0.532425 0.0131089 0)
(0.506561 0.021036 0)
(0.469589 0.0278338 0)
(0.423263 0.0334465 0)
(0.369143 0.0378946 0)
(0.309555 0.0411907 0)
(0.243856 0.043314 0)
(0.17553 0.0453319 0)
(0.107523 0.0453184 0)
(0.0437773 0.0447062 0)
(-0.0207288 0.0428798 0)
(-0.085222 0.0398911 0)
(-0.142419 0.036093 0)
(-0.194764 0.0316959 0)
(-0.239335 0.026678 0)
(-0.276461 0.0214044 0)
(-0.305541 0.0160887 0)
(-0.326749 0.0110241 0)
(-0.340683 0.00641625 0)
(-0.348071 0.00252893 0)
(-0.350125 -0.000804825 0)
(-0.347294 -0.00345641 0)
(-0.341744 -0.00547288 0)
(-0.332145 -0.00701571 0)
(-0.321338 -0.00835087 0)
(-0.309764 -0.00955671 0)
(-0.294494 -0.0108575 0)
(-0.278202 -0.0123243 0)
(-0.259119 -0.0139825 0)
(-0.237342 -0.0158101 0)
(-0.212274 -0.0178545 0)
(-0.184463 -0.0197871 0)
(-0.153942 -0.0215778 0)
(-0.120775 -0.0230969 0)
(-0.0850779 -0.0242206 0)
(-0.048006 -0.024885 0)
(-0.00967561 -0.0251391 0)
(0.0297845 -0.0247492 0)
(0.0691807 -0.0240739 0)
(0.107687 -0.0230183 0)
(0.144795 -0.021681 0)
(0.180128 -0.0201367 0)
(0.213308 -0.0184559 0)
(0.244058 -0.0166801 0)
(0.272126 -0.0148265 0)
(0.297267 -0.0128925 0)
(0.319161 -0.0108282 0)
(0.337451 -0.00859532 0)
(0.351651 -0.00611761 0)
(0.361191 -0.00340237 0)
(0.365466 -0.00037482 0)
(0.364036 0.00289289 0)
(0.356392 0.00628681 0)
(0.342411 0.00971752 0)
(0.322355 0.0130326 0)
(0.296562 0.016056 0)
(0.265681 0.0186554 0)
(0.230614 0.0207266 0)
(0.19243 0.0222155 0)
(0.15216 0.0231359 0)
(0.1108 0.0235481 0)
(0.0691727 0.0235469 0)
(0.0279158 0.0232281 0)
(-0.0126398 0.0226779 0)
(-0.0521088 0.0219551 0)
(-0.0900991 0.0210773 0)
(-0.126411 0.0200283 0)
(-0.160712 0.0187712 0)
(-0.192591 0.0172579 0)
(-0.221537 0.0154508 0)
(-0.246984 0.0133286 0)
(-0.268379 0.0109001 0)
(-0.285234 0.00820855 0)
(-0.297141 0.00532134 0)
(-0.303828 0.00231529 0)
(-0.305144 -0.000744838 0)
(-0.301101 -0.00368739 0)
(-0.292009 -0.00644993 0)
(-0.278258 -0.00895148 0)
(-0.260372 -0.0111275 0)
(-0.238973 -0.0129332 0)
(-0.214754 -0.0143425 0)
(-0.188418 -0.0153492 0)
(-0.160676 -0.015962 0)
(-0.132206 -0.0162017 0)
(-0.10364 -0.0161001 0)
(-0.075549 -0.015695 0)
(-0.0484378 -0.0150301 0)
(-0.0227217 -0.0141492 0)
(0.00132845 -0.0130958 0)
(0.0233651 -0.0119158 0)
(0.0432091 -0.0106477 0)
(0.0607597 -0.00932859 0)
(0.0759624 -0.00799243 0)
(0.0888141 -0.00666833 0)
(0.0993591 -0.00538087 0)
(0.107683 -0.00414989 0)
(0.113902 -0.00299138 0)
(0.118154 -0.00191744 0)
(0.120599 -0.000936537 0)
(0.121405 -5.3983e-05 0)
(0.120757 0.00072621 0)
(0.118819 0.00141059 0)
(0.115772 0.00199689 0)
(0.111778 0.00249007 0)
(0.107005 0.00289945 0)
(0.101586 0.00323928 0)
(0.0956083 0.00351832 0)
(0.0893657 0.00388685 0)
(0.0821685 0.00410464 0)
(-0.532361 0.0178259 0)
(-0.585767 0.0351507 0)
(-0.685001 0.0414723 0)
(-0.77754 0.0465451 0)
(-0.858054 0.0466711 0)
(-0.926583 0.0427518 0)
(-0.983739 0.0361218 0)
(-1.02909 0.0275372 0)
(-1.06169 0.0173907 0)
(-1.08027 0.00597579 0)
(-1.08348 -0.0060406 0)
(-1.06975 -0.0192838 0)
(-1.03759 -0.0332315 0)
(-0.985921 -0.0473746 0)
(-0.914382 -0.0611462 0)
(-0.823499 -0.0739242 0)
(-0.714776 -0.0850765 0)
(-0.590683 -0.0940304 0)
(-0.454487 -0.100369 0)
(-0.309869 -0.104033 0)
(-0.159842 -0.106291 0)
(-0.0188722 -0.11024 0)
(0.119445 -0.0991584 0)
(0.258253 -0.0934317 0)
(0.383001 -0.0859184 0)
(0.496259 -0.0771572 0)
(0.5972 -0.0681391 0)
(0.686006 -0.0591589 0)
(0.762893 -0.0502992 0)
(0.828023 -0.0414985 0)
(0.881279 -0.0326152 0)
(0.922143 -0.0234909 0)
(0.949698 -0.0140124 0)
(0.96277 -0.00416584 0)
(0.960175 0.00594311 0)
(0.941035 0.0160665 0)
(0.905009 0.0258425 0)
(0.852548 0.0348276 0)
(0.785004 0.0425785 0)
(0.704586 0.0487083 0)
(0.614162 0.052942 0)
(0.516941 0.0551713 0)
(0.416026 0.0555899 0)
(0.314518 0.0552148 0)
(0.215493 0.0571059 0)
(0.122585 0.0565824 0)
(0.0472012 0.0537043 0)
(-0.0287228 0.0480305 0)
(-0.11048 0.0435714 0)
(-0.181093 0.0406478 0)
(-0.247322 0.0381752 0)
(-0.309538 0.0358637 0)
(-0.368342 0.0335198 0)
(-0.423604 0.0309731 0)
(-0.474761 0.0280916 0)
(-0.520923 0.0247944 0)
(-0.561057 0.0210633 0)
(-0.594174 0.0169419 0)
(-0.619476 0.0125231 0)
(-0.636466 0.00792492 0)
(-0.644966 0.00331312 0)
(-0.64507 -0.00137408 0)
(-0.637001 -0.0059425 0)
(-0.621048 -0.010422 0)
(-0.597437 -0.0148282 0)
(-0.566246 -0.0192167 0)
(-0.527398 -0.0236185 0)
(-0.480727 -0.0279761 0)
(-0.4261 -0.0322183 0)
(-0.36358 -0.0362155 0)
(-0.293547 -0.039774 0)
(-0.216967 -0.0426845 0)
(-0.134194 -0.0445943 0)
(-0.0511446 -0.0461396 0)
(0.0323719 -0.0461416 0)
(0.116857 -0.0439685 0)
(0.195529 -0.0409402 0)
(0.266759 -0.0367257 0)
(0.328242 -0.0315575 0)
(0.378539 -0.0257173 0)
(0.416743 -0.01953 0)
(0.442712 -0.0133406 0)
(0.457008 -0.00744159 0)
(0.460546 -0.00215242 0)
(0.455151 0.00230748 0)
(0.442482 0.00617455 0)
(0.423772 0.00936931 0)
(0.400737 0.0118141 0)
(0.374753 0.0135864 0)
(0.346958 0.0147905 0)
(0.318203 0.0155316 0)
(0.289073 0.0159046 0)
(0.259894 0.015994 0)
(0.230899 0.0160286 0)
(0.202134 0.01623 0)
(0.173987 0.016905 0)
(0.146925 0.0168885 0)
(0.120858 0.016659 0)
(0.0957193 0.0163588 0)
(0.0714864 0.0160368 0)
(0.0481011 0.0157293 0)
(0.0255219 0.0154148 0)
(0.00425855 0.0153189 0)
(-0.018601 0.0147612 0)
(-0.0424124 0.0148044 0)
(-0.0649128 0.0147937 0)
(-0.0876832 0.0148822 0)
(-0.110458 0.0149936 0)
(-0.133425 0.0151265 0)
(-0.156597 0.0152643 0)
(-0.180003 0.0153959 0)
(-0.203664 0.0155056 0)
(-0.227586 0.0155684 0)
(-0.251745 0.0155424 0)
(-0.276037 0.0153613 0)
(-0.300218 0.0149278 0)
(-0.323838 0.0141117 0)
(-0.346182 0.0127539 0)
(-0.366202 0.0106802 0)
(-0.38261 0.0077322 0)
(-0.393632 0.00375274 0)
(-0.397798 -0.00111068 0)
(-0.393258 -0.00712047 0)
(-0.378063 -0.0140933 0)
(-0.351007 -0.0217789 0)
(-0.311168 -0.0298201 0)
(-0.258414 -0.0377577 0)
(-0.193481 -0.0450861 0)
(-0.117838 -0.0512558 0)
(-0.0342209 -0.0558257 0)
(0.0546832 -0.0583821 0)
(0.145199 -0.0586709 0)
(0.233353 -0.0566042 0)
(0.315592 -0.0522555 0)
(0.388505 -0.0458709 0)
(0.449398 -0.0378215 0)
(0.496207 -0.0285681 0)
(0.527878 -0.0186365 0)
(0.543934 -0.00843002 0)
(0.54487 0.00132991 0)
(0.531906 0.010725 0)
(0.505993 0.0192733 0)
(0.468996 0.0268245 0)
(0.422628 0.033254 0)
(0.368473 0.0385273 0)
(0.308822 0.0426547 0)
(0.243238 0.0454127 0)
(0.174936 0.0484695 0)
(0.106901 0.0489707 0)
(0.0432705 0.049085 0)
(-0.0211734 0.0475595 0)
(-0.0855138 0.0450082 0)
(-0.14254 0.0414088 0)
(-0.194739 0.0372277 0)
(-0.239238 0.0322455 0)
(-0.276333 0.026875 0)
(-0.305446 0.0212897 0)
(-0.326731 0.0157847 0)
(-0.340815 0.0105949 0)
(-0.348181 0.00587428 0)
(-0.350273 0.00187107 0)
(-0.347557 -0.00137751 0)
(-0.341906 -0.00420076 0)
(-0.33219 -0.00642858 0)
(-0.321208 -0.00836481 0)
(-0.309429 -0.0100026 0)
(-0.29398 -0.0116567 0)
(-0.277544 -0.0134104 0)
(-0.258384 -0.0153614 0)
(-0.236614 -0.0175509 0)
(-0.211635 -0.0201383 0)
(-0.183964 -0.0227541 0)
(-0.153619 -0.0254015 0)
(-0.120648 -0.0279312 0)
(-0.0851368 -0.0301684 0)
(-0.0482219 -0.032042 0)
(-0.00996152 -0.0334729 0)
(0.029475 -0.0341474 0)
(0.0688691 -0.0343768 0)
(0.107423 -0.0340221 0)
(0.144603 -0.0331442 0)
(0.180029 -0.0318075 0)
(0.213317 -0.0300791 0)
(0.244192 -0.0279962 0)
(0.272401 -0.0255837 0)
(0.297709 -0.0228112 0)
(0.319796 -0.0196498 0)
(0.338303 -0.0160175 0)
(0.35272 -0.0118567 0)
(0.362484 -0.0071074 0)
(0.367 -0.00180484 0)
(0.36569 0.0038416 0)
(0.358064 0.00981162 0)
(0.344072 0.0158255 0)
(0.323922 0.0215891 0)
(0.29795 0.026805 0)
(0.266826 0.0312447 0)
(0.231491 0.0347303 0)
(0.193032 0.0372173 0)
(0.152493 0.0387348 0)
(0.110901 0.0393961 0)
(0.0690888 0.0393665 0)
(0.0276937 0.0388099 0)
(-0.0129633 0.0378742 0)
(-0.0525144 0.036658 0)
(-0.0905868 0.0351906 0)
(-0.126994 0.0334419 0)
(-0.161413 0.0313476 0)
(-0.193431 0.0288259 0)
(-0.222532 0.0258114 0)
(-0.248137 0.0222685 0)
(-0.269676 0.0182118 0)
(-0.286649 0.0137131 0)
(-0.298636 0.0088864 0)
(-0.305356 0.00385981 0)
(-0.306654 -0.00125666 0)
(-0.302544 -0.00617621 0)
(-0.29334 -0.0107936 0)
(-0.27944 -0.0149734 0)
(-0.261378 -0.0186075 0)
(-0.239786 -0.0216214 0)
(-0.215364 -0.0239718 0)
(-0.188827 -0.0256487 0)
(-0.16089 -0.0266668 0)
(-0.132239 -0.0270618 0)
(-0.10351 -0.0268865 0)
(-0.0752765 -0.0262049 0)
(-0.0480448 -0.0250899 0)
(-0.0222305 -0.0236147 0)
(0.00189457 -0.0218524 0)
(0.0239855 -0.0198796 0)
(0.0438643 -0.0177604 0)
(0.0614323 -0.0155566 0)
(0.0766363 -0.0133252 0)
(0.0894759 -0.0111145 0)
(0.0999973 -0.00896555 0)
(0.108289 -0.00691149 0)
(0.114467 -0.00497881 0)
(0.118675 -0.00318761 0)
(0.121072 -0.001552 0)
(0.121828 -8.09968e-05 0)
(0.121129 0.00121863 0)
(0.119141 0.00235859 0)
(0.116046 0.00333446 0)
(0.112007 0.00415463 0)
(0.107195 0.00483418 0)
(0.101743 0.00539313 0)
(0.0957641 0.0058493 0)
(0.0895031 0.0063538 0)
(0.0826565 0.00668095 0)
(-0.507706 0.0434597 0)
(-0.582577 0.0548593 0)
(-0.684048 0.0580341 0)
(-0.777619 0.059835 0)
(-0.859719 0.0584413 0)
(-0.929628 0.0531472 0)
(-0.987748 0.0447479 0)
(-1.03379 0.0339904 0)
(-1.0669 0.0213331 0)
(-1.08566 0.00708479 0)
(-1.08903 -0.00757456 0)
(-1.07552 -0.0240254 0)
(-1.04327 -0.0413681 0)
(-0.99127 -0.0589621 0)
(-0.919152 -0.0761067 0)
(-0.827443 -0.092033 0)
(-0.717674 -0.105961 0)
(-0.592377 -0.117192 0)
(-0.45492 -0.125226 0)
(-0.309237 -0.129933 0)
(-0.159054 -0.132029 0)
(-0.0156972 -0.134713 0)
(0.124441 -0.123421 0)
(0.262498 -0.116038 0)
(0.387428 -0.106988 0)
(0.500696 -0.0973339 0)
(0.601666 -0.0870931 0)
(0.690431 -0.0765728 0)
(0.76726 -0.0658964 0)
(0.832363 -0.0550132 0)
(0.885646 -0.043752 0)
(0.926588 -0.0318984 0)
(0.954244 -0.0192827 0)
(0.967391 -0.00585787 0)
(0.964794 0.008219 0)
(0.945516 0.0226738 0)
(0.90916 0.0369613 0)
(0.856162 0.0504228 0)
(0.787882 0.0623706 0)
(0.706567 0.0721783 0)
(0.61516 0.0793815 0)
(0.516994 0.0837841 0)
(0.415442 0.0856291 0)
(0.313805 0.0859557 0)
(0.214748 0.0859018 0)
(0.121053 0.0860911 0)
(0.0443194 0.0825534 0)
(-0.0319665 0.0745267 0)
(-0.113035 0.0686355 0)
(-0.183133 0.0644456 0)
(-0.249167 0.0609558 0)
(-0.31132 0.0577251 0)
(-0.370167 0.0544257 0)
(-0.425564 0.0507381 0)
(-0.476921 0.046401 0)
(-0.523311 0.0412472 0)
(-0.563662 0.0352293 0)
(-0.596948 0.0284213 0)
(-0.622348 0.0209944 0)
(-0.639358 0.013173 0)
(-0.647797 0.00518722 0)
(-0.647795 -0.00276909 0)
(-0.639611 -0.0106514 0)
(-0.623539 -0.0184063 0)
(-0.599826 -0.0260859 0)
(-0.568552 -0.0337688 0)
(-0.529631 -0.0415192 0)
(-0.482871 -0.049339 0)
(-0.42809 -0.0571149 0)
(-0.365308 -0.0645999 0)
(-0.294873 -0.0714149 0)
(-0.217711 -0.0771158 0)
(-0.134329 -0.0811116 0)
(-0.0505334 -0.083735 0)
(0.0341026 -0.083682 0)
(0.119575 -0.0801526 0)
(0.198977 -0.0745102 0)
(0.270871 -0.066565 0)
(0.332808 -0.0567563 0)
(0.383315 -0.0456613 0)
(0.421472 -0.0339369 0)
(0.44715 -0.0222657 0)
(0.460894 -0.0112595 0)
(0.463886 -0.00146031 0)
(0.457952 0.00675435 0)
(0.444584 0.0138595 0)
(0.425223 0.0193855 0)
(0.401629 0.0234724 0)
(0.375182 0.0263051 0)
(0.347027 0.0281183 0)
(0.318003 0.0291455 0)
(0.28868 0.0295943 0)
(0.259396 0.0296366 0)
(0.230372 0.0295199 0)
(0.201763 0.0293689 0)
(0.173602 0.0297316 0)
(0.146302 0.0297067 0)
(0.120175 0.0292332 0)
(0.0950282 0.0286362 0)
(0.0708104 0.0280074 0)
(0.04745 0.0274159 0)
(0.0249433 0.026859 0)
(0.00366098 0.0266138 0)
(-0.0191419 0.0258933 0)
(-0.0428098 0.0259414 0)
(-0.0652858 0.0259837 0)
(-0.0880227 0.0261845 0)
(-0.110787 0.026438 0)
(-0.133751 0.0267314 0)
(-0.156926 0.0270415 0)
(-0.18034 0.0273575 0)
(-0.204015 0.0276658 0)
(-0.227971 0.0279367 0)
(-0.252197 0.0281057 0)
(-0.276613 0.0280548 0)
(-0.301003 0.0275976 0)
(-0.32494 0.0264739 0)
(-0.347726 0.0243586 0)
(-0.368314 0.0208909 0)
(-0.385392 0.0157236 0)
(-0.397175 0.00855188 0)
(-0.401968 -0.000624813 0)
(-0.397996 -0.0118553 0)
(-0.383286 -0.0250787 0)
(-0.356373 -0.0397343 0)
(-0.316308 -0.0551108 0)
(-0.262911 -0.0702875 0)
(-0.196908 -0.0842474 0)
(-0.119819 -0.0959193 0)
(-0.0344512 -0.104403 0)
(0.0563799 -0.108965 0)
(0.148866 -0.10907 0)
(0.238862 -0.104627 0)
(0.322679 -0.0958192 0)
(0.396787 -0.0831785 0)
(0.45841 -0.0674788 0)
(0.505455 -0.0496691 0)
(0.536885 -0.0307759 0)
(0.552278 -0.0116747 0)
(0.552256 0.0066252 0)
(0.538103 0.0236236 0)
(0.510858 0.0389089 0)
(0.47251 0.0521511 0)
(0.424818 0.0632188 0)
(0.36941 0.0721083 0)
(0.308523 0.0789148 0)
(0.242156 0.0833495 0)
(0.172808 0.0874483 0)
(0.103597 0.0878804 0)
(0.0391355 0.0872159 0)
(-0.0262587 0.0838356 0)
(-0.0912795 0.0786593 0)
(-0.148762 0.0715597 0)
(-0.201212 0.0633371 0)
(-0.245749 0.0538233 0)
(-0.282582 0.0437203 0)
(-0.311177 0.0334357 0)
(-0.331717 0.0235247 0)
(-0.344879 0.0144034 0)
(-0.351379 0.00650389 0)
(-0.352478 -0.000294676 0)
(-0.348897 -0.00568093 0)
(-0.342688 -0.00997195 0)
(-0.332509 -0.0132942 0)
(-0.32124 -0.0161908 0)
(-0.3093 -0.0187485 0)
(-0.293783 -0.0214666 0)
(-0.277264 -0.0244697 0)
(-0.257962 -0.0278743 0)
(-0.236016 -0.0316427 0)
(-0.2107 -0.0358797 0)
(-0.182543 -0.0400266 0)
(-0.151707 -0.0439659 0)
(-0.118236 -0.0474432 0)
(-0.0823026 -0.0501907 0)
(-0.0451104 -0.0521237 0)
(-0.00668707 -0.0531831 0)
(0.0326935 -0.0530728 0)
(0.0718445 -0.0522248 0)
(0.110062 -0.0505648 0)
(0.146822 -0.048241 0)
(0.181796 -0.0453956 0)
(0.214652 -0.0421603 0)
(0.24516 -0.0386164 0)
(0.273109 -0.0347965 0)
(0.298281 -0.0306701 0)
(0.320372 -0.0261437 0)
(0.339019 -0.0211009 0)
(0.353707 -0.0154018 0)
(0.363809 -0.00899452 0)
(0.368626 -0.00178714 0)
(0.367633 0.00594297 0)
(0.360293 0.0141021 0)
(0.346411 0.0223966 0)
(0.326212 0.0303856 0)
(0.300037 0.0376552 0)
(0.268587 0.0438782 0)
(0.232837 0.0488018 0)
(0.193937 0.052288 0)
(0.152986 0.0543986 0)
(0.111041 0.0552982 0)
(0.0689522 0.0552245 0)
(0.0273515 0.0544164 0)
(-0.0134545 0.0530869 0)
(-0.0531255 0.0513777 0)
(-0.0913182 0.0493269 0)
(-0.127868 0.0468893 0)
(-0.162462 0.043971 0)
(-0.194691 0.0404522 0)
(-0.224026 0.0362386 0)
(-0.249869 0.0312766 0)
(-0.271628 0.0255854 0)
(-0.288779 0.0192663 0)
(-0.300887 0.0124815 0)
(-0.307658 0.00541098 0)
(-0.308929 -0.00178537 0)
(-0.304718 -0.00870378 0)
(-0.295345 -0.0151952 0)
(-0.281221 -0.0210682 0)
(-0.262893 -0.026171 0)
(-0.241008 -0.0303989 0)
(-0.216282 -0.0336919 0)
(-0.18944 -0.0360369 0)
(-0.161211 -0.0374551 0)
(-0.132288 -0.0379974 0)
(-0.103313 -0.0377392 0)
(-0.0748657 -0.0367708 0)
(-0.0474531 -0.0351947 0)
(-0.0214916 -0.033114 0)
(0.00274581 -0.030632 0)
(0.0249178 -0.0278566 0)
(0.0448484 -0.0248773 0)
(0.0624422 -0.0217807 0)
(0.0776479 -0.0186467 0)
(0.0904688 -0.0155435 0)
(0.100955 -0.0125282 0)
(0.109197 -0.00964698 0)
(0.115315 -0.00693693 0)
(0.119455 -0.00442636 0)
(0.121779 -0.00213466 0)
(0.12246 -7.4628e-05 0)
(0.121685 0.00174591 0)
(0.119621 0.00334123 0)
(0.116454 0.00470578 0)
(0.112348 0.00585142 0)
(0.107476 0.00679863 0)
(0.101973 0.00757113 0)
(0.0959741 0.00819539 0)
(0.0896828 0.00880681 0)
(0.0830265 0.00922963 0)
(-0.492741 0.0686718 0)
(-0.58137 0.0728807 0)
(-0.684377 0.0721326 0)
(-0.778659 0.0698638 0)
(-0.86182 0.0660783 0)
(-0.932896 0.0593979 0)
(-0.991949 0.0498272 0)
(-1.03869 0.0378002 0)
(-1.07234 0.0236892 0)
(-1.09139 0.00771681 0)
(-1.0951 -0.00904286 0)
(-1.08206 -0.0282075 0)
(-1.04996 -0.0487412 0)
(-0.997848 -0.0699209 0)
(-0.925319 -0.0909068 0)
(-0.832885 -0.110743 0)
(-0.722094 -0.128437 0)
(-0.595534 -0.143071 0)
(-0.456695 -0.153958 0)
(-0.309721 -0.16082 0)
(-0.158854 -0.164047 0)
(-0.0129019 -0.165672 0)
(0.129181 -0.154879 0)
(0.266925 -0.146037 0)
(0.392352 -0.135051 0)
(0.505859 -0.122863 0)
(0.606915 -0.109963 0)
(0.695667 -0.0967501 0)
(0.772467 -0.0833763 0)
(0.837587 -0.0697546 0)
(0.890972 -0.0556312 0)
(0.932096 -0.0406927 0)
(0.959977 -0.0246879 0)
(0.973317 -0.00753769 0)
(0.970816 0.010555 0)
(0.951452 0.0292343 0)
(0.914747 0.0477614 0)
(0.861117 0.0652575 0)
(0.791936 0.0808098 0)
(0.709511 0.0935979 0)
(0.616884 0.103031 0)
(0.517532 0.108876 0)
(0.415019 0.111381 0)
(0.31277 0.111351 0)
(0.213687 0.109739 0)
(0.119494 0.108275 0)
(0.0410773 0.104445 0)
(-0.035644 0.0940723 0)
(-0.115815 0.0873062 0)
(-0.185422 0.0819381 0)
(-0.25121 0.0774835 0)
(-0.313284 0.0733946 0)
(-0.372189 0.0692413 0)
(-0.427763 0.0645887 0)
(-0.479381 0.0590822 0)
(-0.526068 0.052501 0)
(-0.566698 0.0447912 0)
(-0.6002 0.0360632 0)
(-0.625724 0.0265563 0)
(-0.642755 0.0165774 0)
(-0.651129 0.00644415 0)
(-0.651013 -0.00362018 0)
(-0.642689 -0.013536 0)
(-0.626481 -0.0232429 0)
(-0.602664 -0.0328247 0)
(-0.571319 -0.042409 0)
(-0.532339 -0.0520963 0)
(-0.485492 -0.0618841 0)
(-0.430552 -0.0716293 0)
(-0.367488 -0.0810171 0)
(-0.296615 -0.0895677 0)
(-0.218829 -0.0967128 0)
(-0.134781 -0.101765 0)
(-0.0501412 -0.104858 0)
(0.0357083 -0.104616 0)
(0.122251 -0.100277 0)
(0.202468 -0.0931267 0)
(0.275095 -0.0831122 0)
(0.337545 -0.070777 0)
(0.388309 -0.0568556 0)
(0.426454 -0.042174 0)
(0.451871 -0.0275789 0)
(0.465188 -0.0138306 0)
(0.467427 -0.00140685 0)
(0.460799 0.00835009 0)
(0.446929 0.0171417 0)
(0.42693 0.0239684 0)
(0.402762 0.0289978 0)
(0.375835 0.0324692 0)
(0.3473 0.0346821 0)
(0.317993 0.0359368 0)
(0.288471 0.0365017 0)
(0.259067 0.0366024 0)
(0.229994 0.0364616 0)
(0.201402 0.0362287 0)
(0.173301 0.0360642 0)
(0.145916 0.0362284 0)
(0.119636 0.0357605 0)
(0.094448 0.0350533 0)
(0.0702278 0.0342853 0)
(0.0468802 0.0335504 0)
(0.0244384 0.0328597 0)
(0.00312354 0.0325134 0)
(-0.0196281 0.0316773 0)
(-0.0431481 0.0316853 0)
(-0.0656011 0.0317084 0)
(-0.0883034 0.0319164 0)
(-0.111058 0.0321874 0)
(-0.13402 0.0325016 0)
(-0.1572 0.0328308 0)
(-0.180626 0.0331618 0)
(-0.204321 0.0334795 0)
(-0.228313 0.0337495 0)
(-0.252608 0.0338957 0)
(-0.277141 0.0337774 0)
(-0.301719 0.0331716 0)
(-0.325932 0.0317679 0)
(-0.349095 0.029179 0)
(-0.370152 0.0249773 0)
(-0.387785 0.0187584 0)
(-0.400086 0.010131 0)
(-0.405438 -0.000540676 0)
(-0.402026 -0.0140646 0)
(-0.387646 -0.0297734 0)
(-0.360861 -0.0471493 0)
(-0.320639 -0.0653451 0)
(-0.266769 -0.0832781 0)
(-0.199967 -0.0997481 0)
(-0.121791 -0.113499 0)
(-0.0351145 -0.12346 0)
(0.0571671 -0.128826 0)
(0.151137 -0.128904 0)
(0.242525 -0.123644 0)
(0.327547 -0.113264 0)
(0.402585 -0.0984004 0)
(0.46481 -0.0799717 0)
(0.512101 -0.0590869 0)
(0.543461 -0.0369608 0)
(0.558439 -0.014547 0)
(0.557828 0.00658985 0)
(0.542963 0.0266115 0)
(0.514849 0.0445252 0)
(0.475618 0.0600737 0)
(0.427037 0.0730999 0)
(0.370796 0.0835928 0)
(0.309066 0.0917095 0)
(0.242151 0.0970853 0)
(0.172127 0.101737 0)
(0.102164 0.102525 0)
(0.0371276 0.102042 0)
(-0.0289133 0.0980164 0)
(-0.0943892 0.0923893 0)
(-0.152217 0.0842767 0)
(-0.204874 0.0748884 0)
(-0.249548 0.0639746 0)
(-0.286348 0.0523326 0)
(-0.314777 0.0404343 0)
(-0.33503 0.0289044 0)
(-0.347807 0.0182507 0)
(-0.353776 0.00882787 0)
(-0.354455 0.00105663 0)
(-0.350446 -0.00522148 0)
(-0.343702 -0.0104152 0)
(-0.333177 -0.0144128 0)
(-0.321636 -0.017876 0)
(-0.309495 -0.0208586 0)
(-0.293889 -0.0239957 0)
(-0.277336 -0.0274208 0)
(-0.25805 -0.0313358 0)
(-0.236164 -0.0357043 0)
(-0.210915 -0.0406674 0)
(-0.182781 -0.0456923 0)
(-0.151936 -0.0505963 0)
(-0.118411 -0.0550963 0)
(-0.0823832 -0.0588786 0)
(-0.04508 -0.0618211 0)
(-0.00647395 -0.0637738 0)
(0.0330808 -0.0644395 0)
(0.0723681 -0.064165 0)
(0.110729 -0.062889 0)
(0.147612 -0.0607385 0)
(0.182696 -0.057855 0)
(0.215662 -0.0543726 0)
(0.246298 -0.0503642 0)
(0.274397 -0.0458656 0)
(0.299772 -0.0408197 0)
(0.322122 -0.0351375 0)
(0.341085 -0.0286622 0)
(0.356105 -0.0212361 0)
(0.36658 -0.0127734 0)
(0.371804 -0.00326889 0)
(0.371027 0.00696573 0)
(0.363752 0.0177331 0)
(0.349848 0.028657 0)
(0.329451 0.0391355 0)
(0.302912 0.0486288 0)
(0.270971 0.0567222 0)
(0.234644 0.0630729 0)
(0.195143 0.0675499 0)
(0.153633 0.0702318 0)
(0.111214 0.0713378 0)
(0.0687544 0.0711875 0)
(0.0268824 0.0700992 0)