/*--------------------------------*- C++ -*----------------------------------*\
| =========                 |                                                 |
| \\      /  F ield         | OpenFOAM: The Open Source CFD Toolbox           |
|  \\    /   O peration     | Version:  v1912                                 |
|   \\  /    A nd           | Website:  www.openfoam.com                      |
|    \\/     M anipulation  |                                                 |
\*---------------------------------------------------------------------------*/
FoamFile
{
    version     2.0;
    format      ascii;
    class       volScalarField;
    location    "20";
    object      p;
}
// * * * * * * * * * * * * * * * * * * * * * * * * * * * * * * * * * * * * * //

dimensions      [1 -1 -2 0 0 0 0];


internalField   nonuniform List<scalar> 
14268
(
43616.8
43612.3
43608.6
43605.6
43603.1
43601.2
43599.4
43597.8
43595.9
43593.6
43590.5
43586.5
43581.1
43574.4
43566.5
43557.7
43548.6
43539.2
43529.5
43519.7
43510.4
43502.1
43495.1
43489.9
43486.9
43486.1
43488
43492.5
43499.7
43509.7
43522.2
43537.1
43554.4
43574.2
43596.6
43622
43650
43681.3
43713.3
43745.9
43778.4
43811.9
43863.9
43911.2
43515.2
43510.7
43507
43504
43501.5
43499.6
43497.8
43496.2
43494.3
43492
43488.9
43484.9
43479.5
43472.8
43464.9
43456.1
43447
43437.6
43427.9
43418.1
43408.8
43400.5
43393.5
43388.3
43385.2
43384.5
43386.4
43390.9
43398.1
43408.1
43420.6
43435.5
43452.8
43472.6
43495
43520.3
43548.4
43579.7
43611.7
43644.3
43676.8
43710.3
43762.3
43809.6
43413.6
43409.1
43405.3
43402.4
43399.9
43398
43396.2
43394.6
43392.7
43390.4
43387.3
43383.3
43377.9
43371.2
43363.3
43354.5
43345.3
43336
43326.3
43316.5
43307.2
43298.9
43291.9
43286.7
43283.6
43282.9
43284.7
43289.3
43296.5
43306.5
43319
43333.9
43351.2
43371
43393.4
43418.7
43446.8
43478.1
43510.1
43542.7
43575.2
43608.7
43660.7
43708
43312
43307.4
43303.7
43300.7
43298.3
43296.4
43294.6
43293
43291.1
43288.8
43285.7
43281.7
43276.3
43269.6
43261.7
43252.9
43243.7
43234.4
43224.7
43214.9
43205.6
43197.3
43190.3
43185.1
43182
43181.3
43183.1
43187.7
43194.9
43204.8
43217.4
43232.3
43249.6
43269.4
43291.8
43317.1
43345.2
43376.5
43408.5
43441.1
43473.6
43507.1
43559.1
43606.3
43210.4
43205.8
43202.1
43199.1
43196.7
43194.7
43193
43191.4
43189.5
43187.2
43184.1
43180
43174.7
43168
43160.1
43151.2
43142.1
43132.8
43123.1
43113.3
43104
43095.6
43088.7
43083.5
43080.4
43079.7
43081.5
43086.1
43093.3
43103.2
43115.7
43130.7
43148
43167.8
43190.2
43215.5
43243.6
43274.9
43306.9
43339.5
43372
43405.5
43457.5
43504.7
43108.7
43104.2
43100.5
43097.5
43095.1
43093.1
43091.4
43089.7
43087.9
43085.6
43082.5
43078.4
43073.1
43066.4
43058.5
43049.6
43040.5
43031.2
43021.5
43011.7
43002.4
42994
42987.1
42981.9
42978.8
42978.1
42979.9
42984.5
42991.7
43001.6
43014.1
43029.1
43046.4
43066.2
43088.5
43113.9
43142
43173.3
43205.3
43237.9
43270.4
43303.9
43355.9
43403.1
43007.1
43002.6
42998.9
42995.9
42993.5
42991.5
42989.8
42988.1
42986.3
42984
42980.9
42976.8
42971.5
42964.8
42956.9
42948
42938.9
42929.6
42919.9
42910.1
42900.8
42892.4
42885.5
42880.3
42877.2
42876.5
42878.3
42882.8
42890.1
42900
42912.5
42927.5
42944.8
42964.6
42986.9
43012.3
43040.4
43071.7
43103.7
43136.3
43168.8
43202.3
43254.2
43301.5
42905.5
42901
42897.3
42894.3
42891.9
42889.9
42888.2
42886.5
42884.7
42882.4
42879.3
42875.2
42869.9
42863.2
42855.3
42846.4
42837.3
42828
42818.3
42808.5
42799.2
42790.8
42783.9
42778.7
42775.6
42774.9
42776.7
42781.2
42788.5
42798.4
42810.9
42825.9
42843.2
42863
42885.3
42910.7
42938.8
42970.1
43002.1
43034.7
43067.2
43100.7
43152.6
43199.9
42803.9
42799.4
42795.7
42792.7
42790.3
42788.3
42786.6
42784.9
42783.1
42780.8
42777.7
42773.6
42768.3
42761.6
42753.7
42744.8
42735.7
42726.4
42716.7
42706.9
42697.6
42689.2
42682.3
42677.1
42674
42673.3
42675.1
42679.6
42686.9
42696.8
42709.3
42724.3
42741.6
42761.4
42783.7
42809.1
42837.2
42868.5
42900.5
42933.1
42965.5
42999.1
43051
43098.3
42702.3
42697.8
42694.1
42691.1
42688.7
42686.7
42685
42683.3
42681.5
42679.2
42676.1
42672
42666.7
42660
42652.1
42643.2
42634.1
42624.8
42615.1
42605.3
42596
42587.6
42580.7
42575.5
42572.4
42571.7
42573.5
42578
42585.3
42595.2
42607.7
42622.7
42640
42659.8
42682.1
42707.5
42735.6
42766.9
42798.9
42831.5
42863.9
42897.5
42949.4
42996.7
42600.7
42596.2
42592.5
42589.5
42587.1
42585.1
42583.4
42581.7
42579.9
42577.6
42574.5
42570.4
42565.1
42558.4
42550.5
42541.6
42532.5
42523.2
42513.5
42503.7
42494.4
42486
42479.1
42473.9
42470.8
42470.1
42471.9
42476.4
42483.7
42493.6
42506.1
42521.1
42538.4
42558.2
42580.5
42605.9
42634
42665.2
42697.3
42729.9
42762.3
42795.9
42847.8
42895.1
42499.1
42494.6
42490.9
42487.9
42485.5
42483.5
42481.8
42480.1
42478.3
42476
42472.9
42468.8
42463.5
42456.8
42448.9
42440
42430.9
42421.6
42411.9
42402.1
42392.8
42384.4
42377.5
42372.3
42369.2
42368.5
42370.3
42374.8
42382.1
42392
42404.5
42419.4
42436.8
42456.6
42478.9
42504.3
42532.4
42563.6
42595.7
42628.3
42660.7
42694.3
42746.2
42793.5
42397.5
42393
42389.3
42386.3
42383.9
42381.9
42380.2
42378.5
42376.7
42374.4
42371.3
42367.2
42361.9
42355.2
42347.3
42338.4
42329.3
42320
42310.3
42300.5
42291.1
42282.8
42275.9
42270.7
42267.6
42266.9
42268.7
42273.2
42280.5
42290.4
42302.9
42317.8
42335.2
42354.9
42377.3
42402.7
42430.8
42462
42494.1
42526.7
42559.1
42592.6
42644.6
42691.9
42295.9
42291.4
42287.7
42284.7
42282.3
42280.3
42278.6
42276.9
42275.1
42272.7
42269.7
42265.6
42260.3
42253.6
42245.7
42236.8
42227.7
42218.4
42208.7
42198.9
42189.5
42181.2
42174.3
42169.1
42166
42165.3
42167.1
42171.6
42178.9
42188.8
42201.3
42216.2
42233.6
42253.3
42275.7
42301.1
42329.1
42360.4
42392.5
42425
42457.5
42491
42543
42590.3
42143.5
42139
42135.3
42132.3
42129.9
42127.9
42126.2
42124.5
42122.7
42120.3
42117.3
42113.2
42107.9
42101.2
42093.3
42084.4
42075.3
42066
42056.3
42046.5
42037.1
42028.8
42021.9
42016.7
42013.6
42012.8
42014.7
42019.2
42026.4
42036.4
42048.9
42063.8
42081.2
42100.9
42123.3
42148.7
42176.7
42208
42240
42272.6
42305.1
42338.6
42390.6
42437.9
41940.3
41935.8
41932.1
41929.1
41926.7
41924.7
41923
41921.3
41919.5
41917.1
41914.1
41910
41904.7
41898
41890.1
41881.2
41872.1
41862.8
41853.1
41843.3
41833.9
41825.6
41818.6
41813.5
41810.4
41809.6
41811.5
41816
41823.2
41833.2
41845.7
41860.6
41877.9
41897.7
41920.1
41945.4
41973.5
42004.8
42036.8
42069.4
42101.8
42135.4
42187.4
42234.7
41737.1
41732.6
41728.9
41725.9
41723.5
41721.5
41719.8
41718.1
41716.2
41713.9
41710.9
41706.8
41701.5
41694.8
41686.8
41678
41668.9
41659.6
41649.9
41640.1
41630.7
41622.4
41615.4
41610.2
41607.1
41606.4
41608.2
41612.8
41620
41629.9
41642.5
41657.4
41674.7
41694.5
41716.8
41742.2
41770.3
41801.6
41833.6
41866.2
41898.6
41932.1
41984.2
42031.5
41533.9
41529.4
41525.7
41522.7
41520.3
41518.3
41516.6
41514.9
41513
41510.7
41507.7
41503.6
41498.3
41491.6
41483.6
41474.8
41465.7
41456.4
41446.7
41436.9
41427.5
41419.2
41412.2
41407
41403.9
41403.2
41405
41409.5
41416.8
41426.7
41439.2
41454.2
41471.5
41491.3
41513.6
41539
41567.1
41598.4
41630.4
41663
41695.4
41728.9
41781
41828.3
41330.7
41326.2
41322.5
41319.5
41317.1
41315.1
41313.4
41311.7
41309.8
41307.5
41304.5
41300.4
41295.1
41288.4
41280.4
41271.6
41262.5
41253.2
41243.5
41233.6
41224.3
41215.9
41209
41203.8
41200.7
41200
41201.8
41206.3
41213.6
41223.5
41236
41251
41268.3
41288.1
41310.4
41335.8
41363.9
41395.2
41427.2
41459.8
41492.1
41525.7
41577.8
41625.1
41127.4
41122.9
41119.2
41116.3
41113.8
41111.9
41110.1
41108.5
41106.6
41104.3
41101.3
41097.2
41091.9
41085.2
41077.2
41068.4
41059.3
41050
41040.3
41030.4
41021.1
41012.7
41005.8
41000.6
40997.5
40996.7
40998.6
41003.1
41010.4
41020.3
41032.8
41047.7
41065.1
41084.8
41107.2
41132.6
41160.6
41191.9
41224
41256.6
41288.9
41322.4
41374.6
41421.9
40924.2
40919.7
40916
40913
40910.6
40908.7
40906.9
40905.3
40903.4
40901.1
40898.1
40894
40888.7
40882
40874
40865.2
40856.1
40846.8
40837.1
40827.2
40817.9
40809.5
40802.6
40797.4
40794.3
40793.5
40795.4
40799.9
40807.1
40817.1
40829.6
40844.5
40861.9
40881.6
40904
40929.3
40957.4
40988.7
41020.8
41053.3
41085.7
41119.2
41171.3
41218.7
39437.8
39433.3
39429.6
39426.6
39424.2
39422.3
39420.6
39418.9
39417.1
39414.8
39411.7
39407.7
39402.4
39395.6
39387.7
39378.8
39369.7
39360.4
39350.7
39340.8
39331.4
39323.1
39316.1
39310.9
39307.8
39307
39308.8
39313.4
39320.6
39330.6
39343.1
39358
39375.4
39395.1
39417.4
39442.8
39470.9
39502.2
39534.2
39566.9
39599
39632.4
39684.9
39732.5
36668.1
36663.6
36659.9
36656.9
36654.6
36652.6
36651
36649.3
36647.6
36645.3
36642.3
36638.3
36633
36626.3
36618.2
36609.3
36600.2
36590.9
36581.1
36571.2
36561.7
36553.3
36546.2
36541
36537.8
36537
36538.8
36543.4
36550.6
36560.6
36573.1
36588.1
36605.4
36625.1
36647.4
36672.8
36700.9
36732.4
36764.6
36797
36828.4
36862
36915.3
36963.5
33898.3
33893.8
33890.2
33887.3
33884.9
33883
33881.4
33879.8
33878.1
33875.9
33873
33869
33863.8
33857
33848.9
33839.8
33830.7
33821.4
33811.5
33801.5
33791.9
33783.4
33776.2
33770.9
33767.7
33766.9
33768.6
33773.1
33780.4
33790.4
33803
33817.9
33835.2
33854.9
33877.1
33902.5
33930.7
33962.3
33994.7
34026.9
34057.4
34089.9
34145.2
34195.3
31128.4
31124
31120.4
31117.5
31115.2
31113.3
31111.8
31110.3
31108.7
31106.6
31103.8
31099.9
31094.6
31087.8
31079.6
31070.3
31061.2
31052
31042
31031.7
31022
31013.3
31006.1
31000.6
30997.3
30996.4
30998.2
31002.7
31010
31020
31032.6
31047.6
31064.9
31084.5
31106.5
31131.9
31160.2
31192.1
31225.1
31257
31285.4
31318.8
31375.4
31427
28358.5
28354.1
28350.5
28347.7
28345.5
28343.7
28342.2
28340.8
28339.3
28337.3
28334.6
28330.8
28325.6
28318.8
28310.3
28300.8
28291.7
28282.6
28272.5
28261.9
28252
28243.2
28235.8
28230.2
28226.8
28225.9
28227.5
28232
28239.3
28249.4
28262.1
28277.1
28294.3
28313.8
28335.7
28361.1
28389.5
28421.7
28455.3
28486.5
28513
28544.2
28604.5
28659.6
25588.5
25584.1
25580.6
25577.8
25575.6
25574
25572.6
25571.3
25569.9
25568.1
25565.5
25561.9
25556.7
25549.8
25541.1
25531.3
25522.2
25513.3
25502.9
25492.1
25482
25472.9
25465.4
25459.6
25456.1
25455
25456.7
25461.1
25468.4
25478.6
25491.3
25506.4
25523.6
25543
25564.7
25590
25618.6
25651.2
25685.6
25716.4
25739
25772.3
25834.5
25892.3
22818.5
22814.1
22810.7
22807.9
22805.9
22804.3
22803
22801.9
22800.6
22798.9
22796.5
22793
22788
22781
22772
22761.7
22752.8
22744
22733.4
22722.2
22711.8
22702.6
22694.8
22688.9
22685.2
22684.1
22685.6
22690
22697.3
22707.6
22720.4
22735.6
22752.6
22771.8
22793.3
22818.6
22847.4
22880.4
22916.2
22945.8
22964
22994.4
23061.9
23125.7
20048.3
20044
20040.6
20037.9
20036
20034.5
20033.4
20032.4
20031.3
20029.8
20027.6
20024.3
20019.4
20012.4
20002.9
19992.1
19983.4
19974.9
19963.9
19952.3
19941.6
19932.1
19924.1
19917.9
19914
19912.7
19914.2
19918.6
19926
19936.3
19949.3
19964.6
19981.6
20000.7
20021.9
20046.9
20075.9
20109.4
20146.8
20175.5
20187.1
20220.9
20291.7
20359.5
17278.1
17273.9
17270.5
17268
17266.1
17264.7
17263.7
17262.9
17262.1
17260.8
17258.8
17255.7
17251
17243.9
17233.9
17222.4
17214.1
17205.9
17194.5
17182.3
17171.3
17161.5
17153.2
17146.9
17142.8
17141.3
17142.7
17147
17154.5
17164.9
17178
17193.4
17210.3
17228.9
17249.8
17274.7
17304
17338.2
17378.2
17404.5
17407.6
17438.6
17515.3
17593.5
14507.8
14503.6
14500.3
14497.9
14496.2
14495
14494.2
14493.5
14492.9
14491.8
14490.1
14487.3
14482.8
14475.6
14464.9
14452.5
14444.7
14437.1
14425
14412.2
14400.9
14390.7
14382.1
14375.5
14371.2
14369.6
14370.9
14375.2
14382.7
14393.3
14406.6
14422.1
14439.1
14457.6
14478
14502.5
14531.8
14566.8
14609.8
14634.3
14627.4
14662.8
14745.2
14827.4
11737.4
11733.3
11730.1
11727.7
11726.1
11725
11724.4
11724.1
11723.6
11722.9
11721.5
11719
11714.8
11707.7
11696
11682.5
11675.5
11668.5
11655.7
11642.2
11630.4
11619.9
11611
11604.1
11599.5
11597.6
11598.8
11603.1
11610.6
11621.4
11635
11650.7
11667.4
11685.1
11705
11729.4
11759
11795
11842
11863.2
11846
11874.4
11970.4
12065.5
8966.97
8962.96
8959.89
8957.68
8956.2
8955.32
8954.88
8954.69
8954.51
8954.05
8952.93
8950.8
8947
8939.85
8926.86
8912.03
8906.36
8900.1
8886.22
8871.89
8859.77
8848.78
8839.63
8832.37
8827.51
8825.71
8826.62
8830.84
8838.41
8849.39
8863.29
8879.26
8896.06
8913.81
8933
8956.55
8985.84
9023.36
9075.26
9096.21
9072.61
9104.68
9205.68
9301.7
6196.26
6192.29
6189.32
6187.22
6185.88
6185.21
6185.04
6185.2
6185.36
6185.24
6184.5
6182.83
6179.67
6172.87
6158.09
6141.29
6137.24
6132.3
6117.19
6101.73
6089.17
6077.68
6068.16
6060.51
6055.12
6052.78
6053.98
6058.09
6065.71
6076.93
6091.21
6107.49
6124.09
6140.4
6158.93
6182.23
6211.68
6249.81
6306.5
6330.01
6304.52
6337.51
6432.87
6540.26
3426.62
3422.82
3420
3418.06
3416.88
3416.35
3416.33
3416.66
3417.07
3417.24
3416.85
3415.68
3413.3
3407.14
3391.49
3374.02
3372.23
3368.25
3352.43
3336.68
3324.53
3313.03
3303.81
3296.52
3291.28
3289.16
3289.67
3293.75
3301.37
3312.72
3327.16
3343.63
3360.66
3379.06
3403.62
3437.49
3480.26
3531.73
3595.51
3627.12
3601.97
3600.71
3688.03
3789.85
1040.28
1038.39
1037.03
1036.13
1035.64
1035.51
1035.68
1036.06
1036.54
1036.97
1037.32
1037.91
1040.31
1045.67
1045.14
1037.63
1038.26
1036.37
1027.37
1020.61
1015.37
1008.02
1001.73
997.495
994.623
993.97
995.795
999.796
1005.98
1014.21
1024.16
1035.69
1049.17
1067.87
1099.41
1139.97
1175.05
1205.56
1253.61
1285.15
1290.16
1271.67
1296
1349.05
17.8395
17.7664
17.7173
17.6846
17.6655
17.6623
17.6764
17.7047
17.7627
17.9024
18.2252
19.1188
22.0437
29.4704
37.9029
40.3023
40.2452
39.0367
38.8446
40.3643
41.0509
39.6908
37.983
37.3313
37.2582
37.8049
39.0703
41.0544
43.4844
45.9685
48.5546
51.7796
56.7403
65.9008
81.8471
99.6304
107.094
107.866
118.914
133.531
148.504
148.023
130.264
133.018
-5.57325
-5.57342
-5.57408
-5.57504
-5.57627
-5.57779
-5.58054
-5.58128
-5.58159
-5.58091
-5.57803
-5.58109
-5.58837
-5.67767
-5.75095
-5.67724
-5.67168
-5.64415
-5.62005
-5.60877
-5.5949
-5.57868
-5.56719
-5.56314
-5.5628
-5.57577
-5.57091
-5.54984
-5.54689
-5.52571
-5.5028
-5.48666
-5.47432
-5.45224
-5.4214
-5.42672
-5.45967
-5.50436
-5.55928
-5.67575
-5.75146
-5.87306
-6.22485
-6.5884
-8.89851
-8.89859
-8.89923
-8.90004
-8.90057
-8.90051
-8.89822
-8.89546
-8.88811
-8.87346
-8.84573
-8.80713
-8.76642
-8.93725
-9.11261
-9.11848
-9.02976
-8.96958
-8.92464
-8.93502
-8.94759
-8.91339
-8.89102
-8.88641
-8.88513
-8.90214
-8.95486
-8.99611
-8.97259
-8.93713
-8.89186
-8.85549
-8.84186
-8.82029
-8.78177
-8.76778
-8.75073
-8.75624
-8.8651
-9.00135
-9.07269
-9.07737
-9.07661
-9.13058
-12.2232
-12.2231
-12.2234
-12.2241
-12.2249
-12.226
-12.2281
-12.2281
-12.2282
-12.2274
-12.2256
-12.2307
-12.2434
-12.3122
-12.3827
-12.317
-12.3102
-12.2892
-12.2667
-12.2586
-12.2448
-12.2313
-12.221
-12.2172
-12.2174
-12.2264
-12.223
-12.2021
-12.2
-12.1811
-12.1594
-12.1438
-12.1308
-12.1139
-12.0933
-12.0978
-12.118
-12.174
-12.2224
-12.3234
-12.3967
-12.5036
-12.7453
-12.916
-15.5484
-15.5482
-15.5485
-15.549
-15.5493
-15.549
-15.547
-15.5444
-15.5384
-15.5276
-15.5107
-15.4952
-15.4814
-15.5763
-15.6827
-15.7056
-15.6598
-15.6168
-15.5855
-15.5827
-15.5857
-15.5639
-15.5475
-15.5424
-15.5425
-15.5526
-15.5835
-15.6127
-15.5968
-15.5722
-15.5415
-15.5134
-15.498
-15.4799
-15.4576
-15.445
-15.4519
-15.4508
-15.5385
-15.6353
-15.7146
-15.7419
-15.7871
-15.8769
-18.8729
-18.8726
-18.8727
-18.8731
-18.8736
-18.8744
-18.8755
-18.8756
-18.8757
-18.8753
-18.8754
-18.8823
-18.8935
-18.9485
-18.9952
-18.9602
-18.9442
-18.9338
-18.9133
-18.9066
-18.8945
-18.8831
-18.8742
-18.8708
-18.8707
-18.8754
-18.8737
-18.8633
-18.8535
-18.8362
-18.8169
-18.8022
-18.7899
-18.7782
-18.7662
-18.769
-18.7869
-18.8396
-18.8842
-18.9661
-19.0357
-19.1235
-19.2891
-19.413
-22.198
-22.1976
-22.1977
-22.198
-22.1981
-22.1977
-22.1963
-22.194
-22.1894
-22.182
-22.1727
-22.1671
-22.1667
-22.2245
-22.2935
-22.309
-22.2898
-22.2598
-22.2385
-22.2304
-22.2279
-22.2137
-22.2011
-22.196
-22.1955
-22.2016
-22.2178
-22.2334
-22.227
-22.2103
-22.1888
-22.1678
-22.1538
-22.1402
-22.1267
-22.1229
-22.1308
-22.1412
-22.2044
-22.2798
-22.3557
-22.4002
-22.4552
-22.546
-25.5225
-25.5221
-25.522
-25.5221
-25.5224
-25.523
-25.5235
-25.5236
-25.5239
-25.5242
-25.5259
-25.5333
-25.5445
-25.5833
-25.6168
-25.6024
-25.5861
-25.5781
-25.5611
-25.554
-25.5438
-25.5334
-25.5261
-25.5226
-25.5223
-25.5251
-25.5246
-25.5174
-25.5061
-25.4907
-25.4742
-25.4606
-25.4493
-25.4405
-25.4315
-25.4375
-25.4565
-25.4978
-25.5425
-25.608
-25.6741
-25.7384
-25.8633
-25.9474
-28.8474
-28.8469
-28.8468
-28.8469
-28.8469
-28.8465
-28.8455
-28.8437
-28.8406
-28.8359
-28.8311
-28.8304
-28.836
-28.8717
-28.9177
-28.9268
-28.9217
-28.9018
-28.8865
-28.8776
-28.8725
-28.8628
-28.8527
-28.8483
-28.847
-28.8496
-28.8573
-28.8652
-28.8623
-28.8509
-28.8356
-28.8199
-28.8084
-28.7984
-28.7908
-28.7915
-28.8013
-28.8217
-28.8683
-28.9281
-28.9967
-29.0478
-29.1063
-29.1854
-32.172
-32.1714
-32.1712
-32.1712
-32.1713
-32.1716
-32.172
-32.1721
-32.1726
-32.1735
-32.1763
-32.1835
-32.1948
-32.222
-32.2463
-32.2439
-32.229
-32.2218
-32.2086
-32.2011
-32.1926
-32.1836
-32.1771
-32.1735
-32.1725
-32.1737
-32.1741
-32.1686
-32.1581
-32.1449
-32.1308
-32.1189
-32.1091
-32.1026
-32.0978
-32.1041
-32.1228
-32.1539
-32.197
-32.2509
-32.3112
-32.3596
-32.4481
-32.5104
-35.4967
-35.4961
-35.4959
-35.4958
-35.4958
-35.4955
-35.4947
-35.4935
-35.4916
-35.4889
-35.487
-35.4884
-35.4957
-35.5189
-35.5497
-35.5573
-35.5561
-35.5441
-35.5326
-35.5245
-35.5183
-35.511
-35.503
-35.4989
-35.4974
-35.4979
-35.5003
-35.5034
-35.5014
-35.4933
-35.4823
-35.4707
-35.4619
-35.4549
-35.4514
-35.4542
-35.466
-35.4881
-35.527
-35.5751
-35.6354
-35.6815
-35.7398
-35.7975
-38.8213
-38.8206
-38.8203
-38.8202
-38.8202
-38.8204
-38.8207
-38.8209
-38.8216
-38.8229
-38.8263
-38.8329
-38.8443
-38.8631
-38.8812
-38.8823
-38.8725
-38.8653
-38.8555
-38.8481
-38.841
-38.8333
-38.8274
-38.8238
-38.8222
-38.8222
-38.8225
-38.8184
-38.8097
-38.7986
-38.7868
-38.7766
-38.7684
-38.7636
-38.7619
-38.7694
-38.7863
-38.8134
-38.8512
-38.896
-38.9484
-38.9892
-39.0491
-39.096
-42.1459
-42.1452
-42.1449
-42.1447
-42.1446
-42.1444
-42.1439
-42.1432
-42.1422
-42.1409
-42.1408
-42.1431
-42.1506
-42.1662
-42.1868
-42.1936
-42.1931
-42.1869
-42.1781
-42.1711
-42.1647
-42.1588
-42.1525
-42.1486
-42.1467
-42.1462
-42.1461
-42.1457
-42.1433
-42.1372
-42.1292
-42.1208
-42.1146
-42.1102
-42.1096
-42.1141
-42.1266
-42.1479
-42.1815
-42.2214
-42.272
-42.3127
-42.3604
-42.4011
-45.4704
-45.4697
-45.4693
-45.4691
-45.4691
-45.4692
-45.4695
-45.4698
-45.4707
-45.4723
-45.4759
-45.4821
-45.4922
-45.5059
-45.5195
-45.5218
-45.5157
-45.5091
-45.5016
-45.4949
-45.4887
-45.4825
-45.4771
-45.4736
-45.4715
-45.4706
-45.4698
-45.4674
-45.4607
-45.4517
-45.4421
-45.4335
-45.4269
-45.4232
-45.4239
-45.4316
-45.4474
-45.4711
-45.5041
-45.541
-45.5857
-45.6208
-45.6665
-45.7007
-48.7949
-48.7942
-48.7938
-48.7936
-48.7935
-48.7933
-48.793
-48.7928
-48.7925
-48.7922
-48.7931
-48.7959
-48.8026
-48.8135
-48.8274
-48.8332
-48.8333
-48.8301
-48.8235
-48.8175
-48.8119
-48.8065
-48.8014
-48.7978
-48.7956
-48.7944
-48.7933
-48.791
-48.7875
-48.7827
-48.7767
-48.7707
-48.7666
-48.7644
-48.7658
-48.7714
-48.784
-48.8037
-48.8327
-48.8669
-48.9085
-48.9436
-48.9813
-49.0099
-52.1194
-52.1187
-52.1183
-52.118
-52.118
-52.1181
-52.1185
-52.1188
-52.1197
-52.1216
-52.1251
-52.1307
-52.1393
-52.1498
-52.16
-52.1627
-52.1591
-52.1533
-52.1474
-52.1417
-52.1362
-52.1309
-52.1263
-52.1229
-52.1206
-52.119
-52.1175
-52.115
-52.1108
-52.104
-52.0964
-52.0894
-52.0844
-52.0817
-52.0838
-52.0915
-52.1061
-52.1269
-52.1549
-52.1857
-52.2229
-52.2536
-52.2889
-52.3136
-55.4439
-55.4432
-55.4427
-55.4424
-55.4423
-55.4422
-55.4421
-55.4422
-55.4424
-55.4428
-55.4442
-55.4471
-55.4528
-55.4608
-55.4703
-55.475
-55.4754
-55.4738
-55.469
-55.4639
-55.459
-55.4543
-55.4499
-55.4466
-55.4442
-55.4426
-55.4409
-55.4385
-55.4348
-55.4299
-55.4251
-55.4207
-55.4182
-55.4177
-55.4205
-55.4265
-55.439
-55.4568
-55.4825
-55.5115
-55.5459
-55.5752
-55.6046
-55.6245
-58.7684
-58.7676
-58.7671
-58.7669
-58.7668
-58.767
-58.7674
-58.7678
-58.7688
-58.7706
-58.7739
-58.779
-58.7861
-58.7943
-58.8022
-58.8048
-58.8027
-58.798
-58.7933
-58.7884
-58.7836
-58.7791
-58.775
-58.7717
-58.7693
-58.7674
-58.7655
-58.763
-58.7593
-58.7546
-58.7493
-58.744
-58.7405
-58.7389
-58.7417
-58.7488
-58.7626
-58.7804
-58.8046
-58.8308
-58.8616
-58.8877
-58.915
-58.9325
-62.0928
-62.092
-62.0915
-62.0912
-62.0911
-62.091
-62.0908
-62.0914
-62.0919
-62.0928
-62.0945
-62.0973
-62.102
-62.108
-62.1147
-62.1183
-62.119
-62.1182
-62.1145
-62.1104
-62.1061
-62.102
-62.0982
-62.0951
-62.0928
-62.0908
-62.0889
-62.0865
-62.0832
-62.0791
-62.0748
-62.0712
-62.0698
-62.0703
-62.0741
-62.0808
-62.0924
-62.1088
-62.1309
-62.1555
-62.1838
-62.2082
-62.2309
-62.2447
-65.4172
-65.4164
-65.4159
-65.4157
-65.4156
-65.4158
-65.4163
-65.4167
-65.4177
-65.4195
-65.4226
-65.427
-65.4329
-65.4394
-65.4455
-65.4478
-65.4464
-65.443
-65.4392
-65.4351
-65.431
-65.427
-65.4234
-65.4203
-65.4179
-65.4158
-65.4137
-65.4112
-65.4081
-65.4043
-65.4004
-65.397
-65.3951
-65.3945
-65.3978
-65.4045
-65.4168
-65.4326
-65.4533
-65.4757
-65.5011
-65.523
-65.5438
-65.556
-68.7415
-68.7408
-68.7403
-68.74
-68.7399
-68.7399
-68.7398
-68.7404
-68.7411
-68.7423
-68.7441
-68.7467
-68.7506
-68.7552
-68.76
-68.7629
-68.7641
-68.7631
-68.7604
-68.7569
-68.7533
-68.7497
-68.7464
-68.7435
-68.7412
-68.7392
-68.7372
-68.7349
-68.732
-68.7287
-68.7254
-68.7227
-68.7215
-68.7224
-68.7269
-68.7337
-68.7447
-68.7594
-68.7783
-68.7993
-68.8225
-68.8427
-68.8601
-68.8695
-72.0659
-72.0652
-72.0647
-72.0644
-72.0643
-72.0645
-72.065
-72.0656
-72.0665
-72.0683
-72.071
-72.0748
-72.0797
-72.0849
-72.0896
-72.0916
-72.0906
-72.0883
-72.0852
-72.0818
-72.0782
-72.0747
-72.0715
-72.0687
-72.0663
-72.0642
-72.0621
-72.0597
-72.057
-72.0539
-72.051
-72.0486
-72.0478
-72.0485
-72.0523
-72.0586
-72.0696
-72.0835
-72.1012
-72.1203
-72.1413
-72.1594
-72.1752
-72.1834
-75.3902
-75.3895
-75.389
-75.3887
-75.3886
-75.3886
-75.3888
-75.3891
-75.39
-75.3914
-75.3932
-75.3956
-75.3988
-75.4024
-75.406
-75.4085
-75.4094
-75.4085
-75.4064
-75.4036
-75.4005
-75.3974
-75.3944
-75.3918
-75.3895
-75.3875
-75.3856
-75.3834
-75.381
-75.3783
-75.3759
-75.374
-75.3736
-75.3748
-75.379
-75.3857
-75.3959
-75.4091
-75.4253
-75.4431
-75.4621
-75.4787
-75.492
-75.4984
-78.7146
-78.7139
-78.7134
-78.7131
-78.713
-78.7131
-78.7136
-78.7143
-78.7153
-78.7169
-78.7193
-78.7226
-78.7266
-78.7308
-78.7344
-78.7358
-78.7355
-78.7338
-78.7314
-78.7285
-78.7254
-78.7224
-78.7195
-78.7169
-78.7146
-78.7125
-78.7105
-78.7083
-78.706
-78.7035
-78.7014
-78.6997
-78.6996
-78.7009
-78.7051
-78.7113
-78.721
-78.7334
-78.7484
-78.7647
-78.7819
-78.7968
-78.8087
-78.8141
-82.0389
-82.0381
-82.0376
-82.0374
-82.0373
-82.0373
-82.0376
-82.038
-82.0389
-82.0402
-82.0419
-82.0441
-82.0467
-82.0496
-82.0525
-82.0544
-82.055
-82.0544
-82.0527
-82.0504
-82.0477
-82.045
-82.0424
-82.04
-82.0379
-82.036
-82.0341
-82.0321
-82.0301
-82.028
-82.0262
-82.025
-82.0252
-82.0267
-82.0309
-82.0371
-82.0463
-82.058
-82.072
-82.0871
-82.1027
-82.1161
-82.1264
-82.1306
-85.3631
-85.3624
-85.362
-85.3617
-85.3616
-85.3617
-85.3621
-85.3629
-85.3641
-85.3654
-85.3675
-85.3703
-85.3736
-85.3769
-85.3795
-85.3809
-85.3809
-85.3796
-85.3777
-85.3753
-85.3726
-85.37
-85.3674
-85.365
-85.3629
-85.3609
-85.359
-85.357
-85.355
-85.3531
-85.3515
-85.3505
-85.3509
-85.3525
-85.3567
-85.3627
-85.3714
-85.3824
-85.3952
-85.409
-85.4232
-85.4353
-85.4443
-85.4478
-88.6874
-88.6867
-88.6862
-88.6859
-88.6859
-88.686
-88.6863
-88.6867
-88.6875
-88.6887
-88.6903
-88.6923
-88.6945
-88.6969
-88.6991
-88.7007
-88.7011
-88.7006
-88.6992
-88.6973
-88.695
-88.6926
-88.6903
-88.6882
-88.6862
-88.6844
-88.6826
-88.6809
-88.6792
-88.6775
-88.6763
-88.6756
-88.6763
-88.6781
-88.6821
-88.688
-88.6962
-88.7065
-88.7185
-88.7312
-88.744
-88.755
-88.7628
-88.7656
-92.0117
-92.011
-92.0105
-92.0102
-92.0101
-92.0103
-92.0106
-92.0113
-92.0124
-92.0138
-92.0156
-92.0179
-92.0206
-92.0233
-92.0254
-92.0265
-92.0266
-92.0257
-92.0241
-92.0221
-92.0198
-92.0175
-92.0152
-92.0131
-92.0111
-92.0092
-92.0074
-92.0057
-92.004
-92.0025
-92.0014
-92.0009
-92.0017
-92.0036
-92.0076
-92.0132
-92.021
-92.0307
-92.0417
-92.0534
-92.065
-92.0748
-92.0817
-92.0839
-95.3359
-95.3352
-95.3347
-95.3345
-95.3344
-95.3345
-95.3348
-95.3354
-95.3361
-95.3372
-95.3386
-95.3403
-95.3422
-95.3442
-95.346
-95.3472
-95.3476
-95.3471
-95.346
-95.3443
-95.3424
-95.3403
-95.3383
-95.3363
-95.3345
-95.3328
-95.3312
-95.3297
-95.3283
-95.327
-95.3262
-95.3259
-95.3268
-95.3288
-95.3327
-95.3382
-95.3456
-95.3546
-95.3649
-95.3756
-95.3862
-95.395
-95.4011
-95.4028
-98.6601
-98.6594
-98.659
-98.6587
-98.6586
-98.6588
-98.6591
-98.6597
-98.6606
-98.6619
-98.6636
-98.6655
-98.6677
-98.6698
-98.6715
-98.6725
-98.6726
-98.6719
-98.6707
-98.669
-98.667
-98.665
-98.663
-98.661
-98.6592
-98.6575
-98.6559
-98.6544
-98.653
-98.6519
-98.6512
-98.651
-98.6521
-98.6541
-98.6579
-98.6631
-98.6701
-98.6785
-98.688
-98.6979
-98.7075
-98.7155
-98.7207
-98.722
-101.984
-101.984
-101.983
-101.983
-101.983
-101.983
-101.983
-101.984
-101.985
-101.986
-101.987
-101.988
-101.99
-101.992
-101.993
-101.994
-101.994
-101.994
-101.993
-101.991
-101.99
-101.988
-101.986
-101.984
-101.983
-101.981
-101.98
-101.978
-101.977
-101.976
-101.976
-101.976
-101.977
-101.979
-101.983
-101.988
-101.994
-102.002
-102.011
-102.02
-102.029
-102.036
-102.041
-102.042
-105.308
-105.308
-105.307
-105.307
-105.307
-105.307
-105.307
-105.308
-105.309
-105.31
-105.311
-105.313
-105.315
-105.317
-105.318
-105.319
-105.319
-105.318
-105.317
-105.316
-105.314
-105.312
-105.311
-105.309
-105.307
-105.306
-105.304
-105.303
-105.302
-105.301
-105.301
-105.301
-105.302
-105.304
-105.308
-105.313
-105.319
-105.326
-105.334
-105.343
-105.351
-105.357
-105.361
-105.362
-108.633
-108.632
-108.632
-108.631
-108.631
-108.631
-108.632
-108.632
-108.633
-108.634
-108.635
-108.636
-108.638
-108.639
-108.64
-108.641
-108.641
-108.641
-108.64
-108.639
-108.637
-108.636
-108.634
-108.633
-108.631
-108.63
-108.628
-108.627
-108.626
-108.626
-108.625
-108.626
-108.627
-108.629
-108.632
-108.637
-108.643
-108.65
-108.657
-108.665
-108.672
-108.678
-108.682
-108.682
-111.957
-111.956
-111.956
-111.956
-111.955
-111.956
-111.956
-111.956
-111.957
-111.958
-111.959
-111.961
-111.962
-111.963
-111.965
-111.965
-111.965
-111.965
-111.964
-111.963
-111.962
-111.96
-111.958
-111.957
-111.955
-111.954
-111.953
-111.952
-111.951
-111.95
-111.95
-111.95
-111.952
-111.954
-111.957
-111.962
-111.967
-111.974
-111.981
-111.988
-111.994
-112
-112.003
-112.003
-115.281
-115.28
-115.28
-115.28
-115.28
-115.28
-115.28
-115.28
-115.281
-115.282
-115.283
-115.284
-115.285
-115.287
-115.287
-115.288
-115.288
-115.288
-115.287
-115.286
-115.285
-115.283
-115.282
-115.281
-115.279
-115.278
-115.277
-115.276
-115.275
-115.275
-115.275
-115.275
-115.276
-115.279
-115.282
-115.286
-115.291
-115.297
-115.304
-115.31
-115.316
-115.321
-115.324
-115.324
-118.605
-118.604
-118.604
-118.604
-118.604
-118.604
-118.604
-118.605
-118.605
-118.606
-118.607
-118.608
-118.609
-118.61
-118.611
-118.612
-118.612
-118.612
-118.611
-118.61
-118.609
-118.608
-118.606
-118.605
-118.603
-118.602
-118.601
-118.6
-118.6
-118.599
-118.599
-118.6
-118.601
-118.603
-118.606
-118.61
-118.615
-118.621
-118.627
-118.633
-118.638
-118.643
-118.645
-118.645
-121.929
-121.929
-121.928
-121.928
-121.928
-121.928
-121.928
-121.929
-121.929
-121.93
-121.931
-121.932
-121.933
-121.934
-121.935
-121.935
-121.935
-121.935
-121.934
-121.934
-121.932
-121.931
-121.93
-121.929
-121.927
-121.926
-121.925
-121.925
-121.924
-121.924
-121.924
-121.924
-121.926
-121.928
-121.931
-121.935
-121.939
-121.945
-121.95
-121.956
-121.961
-121.965
-121.967
-121.967
-125.253
-125.253
-125.252
-125.252
-125.252
-125.252
-125.252
-125.253
-125.253
-125.254
-125.255
-125.256
-125.257
-125.258
-125.258
-125.259
-125.259
-125.259
-125.258
-125.257
-125.256
-125.255
-125.254
-125.253
-125.252
-125.251
-125.25
-125.249
-125.248
-125.248
-125.248
-125.249
-125.25
-125.252
-125.255
-125.259
-125.263
-125.268
-125.273
-125.279
-125.283
-125.287
-125.289
-125.288
-128.577
-128.577
-128.576
-128.576
-128.576
-128.576
-128.576
-128.577
-128.577
-128.578
-128.579
-128.58
-128.581
-128.581
-128.582
-128.582
-128.583
-128.582
-128.582
-128.581
-128.58
-128.579
-128.578
-128.577
-128.576
-128.575
-128.574
-128.573
-128.573
-128.573
-128.573
-128.573
-128.575
-128.577
-128.58
-128.583
-128.587
-128.592
-128.597
-128.601
-128.606
-128.609
-128.61
-128.61
-131.901
-131.901
-131.901
-131.9
-131.9
-131.9
-131.9
-131.901
-131.901
-131.902
-131.903
-131.904
-131.904
-131.905
-131.906
-131.906
-131.906
-131.906
-131.905
-131.905
-131.904
-131.903
-131.902
-131.901
-131.9
-131.899
-131.898
-131.897
-131.897
-131.897
-131.897
-131.898
-131.899
-131.901
-131.904
-131.907
-131.911
-131.915
-131.92
-131.924
-131.928
-131.931
-131.933
-131.932
-135.225
-135.225
-135.225
-135.224
-135.224
-135.224
-135.225
-135.225
-135.225
-135.226
-135.227
-135.227
-135.228
-135.229
-135.229
-135.23
-135.23
-135.23
-135.229
-135.228
-135.228
-135.227
-135.226
-135.225
-135.224
-135.223
-135.222
-135.222
-135.221
-135.221
-135.222
-135.222
-135.224
-135.226
-135.228
-135.231
-135.235
-135.239
-135.243
-135.247
-135.251
-135.253
-135.255
-135.255
-145.07
-145.07
-145.07
-145.069
-145.069
-145.069
-145.07
-145.07
-145.07
-145.071
-145.071
-145.072
-145.072
-145.073
-145.073
-145.073
-145.073
-145.073
-145.073
-145.072
-145.072
-145.071
-145.07
-145.069
-145.069
-145.068
-145.067
-145.067
-145.067
-145.067
-145.067
-145.068
-145.07
-145.071
-145.074
-145.076
-145.079
-145.083
-145.086
-145.089
-145.092
-145.094
-145.095
-145.095
-161.436
-161.436
-161.435
-161.435
-161.435
-161.435
-161.435
-161.435
-161.436
-161.436
-161.436
-161.437
-161.437
-161.437
-161.438
-161.438
-161.438
-161.438
-161.437
-161.437
-161.436
-161.436
-161.435
-161.435
-161.434
-161.434
-161.434
-161.433
-161.434
-161.434
-161.434
-161.435
-161.436
-161.438
-161.439
-161.442
-161.444
-161.446
-161.449
-161.451
-161.453
-161.454
-161.455
-161.455