/*--------------------------------*- C++ -*----------------------------------*\
| =========                 |                                                 |
| \\      /  F ield         | OpenFOAM: The Open Source CFD Toolbox           |
|  \\    /   O peration     | Version:  v1912                                 |
|   \\  /    A nd           | Website:  www.openfoam.com                      |
|    \\/     M anipulation  |                                                 |
\*---------------------------------------------------------------------------*/
FoamFile
{
    version     2.0;
    format      ascii;
    class       volScalarField;
    location    "60";
    object      omega;
}
// * * * * * * * * * * * * * * * * * * * * * * * * * * * * * * * * * * * * * //

dimensions      [0 0 -1 0 0 0 0];


internalField   nonuniform List<scalar> 
14268
(
2.98322
2.98322
2.98321
2.98321
2.98321
2.98322
2.98321
2.98321
2.98321
2.98321
2.98322
2.98322
2.98322
2.98322
2.98322
2.98321
2.98321
2.98322
2.98322
2.98322
2.98322
2.98322
2.98322
2.98321
2.98322
2.98322
2.98322
2.98322
2.98323
2.98324
2.98327
2.98334
2.98354
2.98387
2.98413
2.98447
2.98537
2.9881
2.99238
2.99411
2.99261
2.99055
2.98852
2.98615
0.60402
0.594889
0.588476
0.597279
0.620499
0.640838
0.646147
0.635968
0.620689
0.614354
0.618335
0.623262
0.623337
0.617229
0.607466
0.599738
0.597874
0.599651
0.601737
0.603
0.601776
0.59761
0.591277
0.58579
0.586374
0.589578
0.590182
0.585465
0.5745
0.55922
0.534052
0.497918
0.455986
0.42533
0.422667
0.423938
0.418162
0.425249
0.449932
0.481279
0.494279
0.550109
0.683228
0.849588
0.279475
0.277453
0.276044
0.277121
0.281139
0.285229
0.286709
0.285152
0.282256
0.280742
0.281298
0.282386
0.282699
0.281923
0.280457
0.27913
0.278598
0.278784
0.27916
0.279407
0.279192
0.278447
0.277399
0.276604
0.27654
0.276818
0.276588
0.27536
0.272561
0.267919
0.260209
0.250606
0.242494
0.245621
0.251968
0.261556
0.279469
0.322803
0.375124
0.415618
0.412621
0.409341
0.428638
0.433461
0.223127
0.222651
0.222325
0.222608
0.22359
0.224598
0.224986
0.224618
0.223913
0.223547
0.223671
0.223905
0.22397
0.223785
0.22346
0.223167
0.223054
0.223103
0.223192
0.223276
0.223267
0.223125
0.222881
0.222701
0.222712
0.222805
0.222751
0.222477
0.221803
0.220858
0.219328
0.218977
0.222283
0.23089
0.24065
0.252698
0.273015
0.318691
0.371688
0.412027
0.410048
0.402451
0.403214
0.416781
0.213127
0.213021
0.212944
0.213018
0.213255
0.213506
0.21362
0.213543
0.213386
0.213316
0.213363
0.213414
0.213424
0.213371
0.213307
0.213248
0.213241
0.213274
0.213304
0.213345
0.213368
0.213355
0.213291
0.213268
0.213298
0.213355
0.21336
0.213335
0.213223
0.21325
0.213339
0.214999
0.220046
0.22965
0.240091
0.252055
0.272818
0.317306
0.367752
0.409996
0.411604
0.406822
0.404265
0.397399
0.211425
0.211406
0.211385
0.211411
0.211469
0.211531
0.211577
0.211572
0.211543
0.211543
0.211568
0.211575
0.211573
0.211554
0.211552
0.211553
0.211571
0.211595
0.21161
0.21164
0.211671
0.211687
0.211672
0.211677
0.211712
0.21176
0.211777
0.211814
0.211822
0.212037
0.212456
0.214505
0.219835
0.229586
0.239923
0.252201
0.273535
0.316916
0.366255
0.408932
0.421026
0.418344
0.410633
0.414949
0.21115
0.211151
0.211148
0.211161
0.211173
0.211192
0.211223
0.211236
0.211242
0.211257
0.211275
0.211269
0.211262
0.21125
0.211264
0.211276
0.211298
0.211322
0.211336
0.211365
0.211395
0.211419
0.211407
0.211426
0.211458
0.211498
0.211517
0.21157
0.211612
0.211879
0.212335
0.21438
0.219728
0.229594
0.23998
0.251972
0.273705
0.317189
0.366043
0.421025
0.437134
0.441542
0.433963
0.415936
0.211112
0.211113
0.211111
0.211124
0.211133
0.211141
0.211168
0.211185
0.211194
0.211212
0.21123
0.211222
0.211215
0.211206
0.211226
0.211242
0.211265
0.211283
0.211295
0.211324
0.211358
0.211382
0.211375
0.21138
0.211413
0.211452
0.211475
0.211524
0.21157
0.211831
0.212326
0.214418
0.219794
0.229559
0.240223
0.252315
0.274141
0.317676
0.374257
0.439787
0.462744
0.47336
0.467993
0.43652
0.211111
0.211116
0.211121
0.211131
0.211129
0.211133
0.211159
0.211177
0.211194
0.211211
0.211227
0.211219
0.211214
0.211208
0.211226
0.211243
0.211268
0.211292
0.211301
0.211329
0.211359
0.211388
0.211377
0.2114
0.211425
0.211462
0.211478
0.211539
0.211582
0.211851
0.212315
0.214418
0.219825
0.229596
0.240028
0.252239
0.274083
0.318069
0.382311
0.459198
0.497739
0.512291
0.508334
0.463654
0.211116
0.211119
0.211123
0.211132
0.211138
0.211138
0.211163
0.21118
0.211193
0.211214
0.211232
0.211224
0.211219
0.211215
0.211243
0.211263
0.211287
0.2113
0.211309
0.211338
0.211371
0.211399
0.211397
0.211395
0.211418
0.21145
0.211474
0.211523
0.21157
0.21184
0.212326
0.214398
0.219784
0.229706
0.239967
0.252306
0.27419
0.32114
0.392273
0.472113
0.542638
0.557751
0.55706
0.5021
0.211135
0.211142
0.211155
0.211157
0.211149
0.211149
0.211172
0.211194
0.211215
0.211233
0.211249
0.21124
0.211238
0.211237
0.211257
0.211287
0.211314
0.211336
0.211344
0.211367
0.211391
0.211423
0.211423
0.211446
0.211458
0.211492
0.211505
0.21157
0.211605
0.211857
0.212333
0.214415
0.219842
0.229469
0.240149
0.252756
0.274311
0.325174
0.404816
0.488994
0.583937
0.61221
0.612804
0.55161
0.211159
0.211162
0.211175
0.211178
0.211181
0.211173
0.211191
0.21121
0.21123
0.211257
0.211276
0.211269
0.211265
0.211269
0.211304
0.211335
0.211358
0.211361
0.211373
0.211398
0.211428
0.211458
0.211471
0.211463
0.211476
0.211491
0.211521
0.21156
0.211609
0.211863
0.212353
0.214449
0.219826
0.229459
0.239943
0.252632
0.274695
0.330468
0.424109
0.519049
0.62197
0.674764
0.677372
0.610271
0.211214
0.211223
0.21124
0.21123
0.211218
0.21121
0.211228
0.211257
0.211284
0.211301
0.211315
0.211307
0.21131
0.211316
0.211339
0.211383
0.211408
0.211422
0.211429
0.211444
0.211462
0.211499
0.211513
0.211541
0.211539
0.211564
0.211574
0.211641
0.211665
0.211914
0.212381
0.214466
0.219821
0.230112
0.240361
0.253254
0.275862
0.338667
0.450427
0.564498
0.660387
0.738967
0.749417
0.674076
0.211233
0.211239
0.211254
0.211254
0.211261
0.211247
0.211253
0.211269
0.211295
0.211328
0.211341
0.211332
0.211322
0.211341
0.211385
0.211418
0.211432
0.211423
0.211433
0.211445
0.211474
0.211499
0.211539
0.211527
0.211544
0.211528
0.211566
0.211587
0.211639
0.211841
0.212297
0.214426
0.219941
0.230215
0.240819
0.253525
0.276886
0.347705
0.4799
0.621809
0.707968
0.798092
0.82769
0.740846
0.211202
0.211206
0.211214
0.211216
0.211215
0.211218
0.21124
0.21126
0.211275
0.211291
0.211308
0.211302
0.211306
0.211308
0.211326
0.211352
0.211368
0.211388
0.211396
0.21142
0.211442
0.211473
0.211478
0.211507
0.211513
0.211556
0.211567
0.211641
0.211661
0.211929
0.212419
0.214507
0.219887
0.230229
0.240808
0.253845
0.279755
0.364971
0.528522
0.722476
0.803137
0.873025
0.947963
0.88227
0.211219
0.211215
0.211218
0.211219
0.211237
0.211242
0.211255
0.211262
0.21127
0.211302
0.21132
0.211317
0.211306
0.211326
0.211364
0.211382
0.211381
0.21137
0.211383
0.211407
0.211445
0.211467
0.211495
0.211491
0.211511
0.211521
0.211565
0.211599
0.211645
0.211891
0.212351
0.214428
0.22007
0.230808
0.241233
0.255287
0.285453
0.392706
0.603132
0.857413
0.956366
1.00619
1.0822
1.01023
0.211284
0.211283
0.211296
0.211288
0.211288
0.211295
0.211316
0.211331
0.211339
0.211353
0.211363
0.211365
0.211383
0.211397
0.211413
0.211436
0.211435
0.211453
0.211456
0.211476
0.211488
0.211527
0.211546
0.211593
0.211587
0.211641
0.211656
0.211742
0.211748
0.211993
0.212505
0.214637
0.220248
0.23145
0.241573
0.256595
0.2916
0.424392
0.683843
0.990689
1.10296
1.15402
1.22102
1.13339
0.211358
0.21135
0.211354
0.211346
0.211377
0.211394
0.211402
0.211395
0.211403
0.211436
0.211452
0.211464
0.211472
0.211503
0.211529
0.211535
0.211529
0.211518
0.211528
0.211558
0.21159
0.211597
0.21163
0.211635
0.211661
0.211675
0.211734
0.211765
0.211838
0.212078
0.212523
0.214794
0.220246
0.231169
0.241689
0.258289
0.300867
0.460067
0.777253
1.13748
1.2159
1.27549
1.3442
1.26252
0.211516
0.211477
0.211457
0.211453
0.211492
0.211524
0.211542
0.211525
0.211507
0.211532
0.211565
0.211592
0.211617
0.211648
0.211648
0.211658
0.211678
0.211718
0.211747
0.211744
0.211726
0.211691
0.211717
0.21178
0.211767
0.211815
0.211835
0.211926
0.21196
0.212201
0.21271
0.215038
0.221173
0.231264
0.242403
0.261392
0.312568
0.495472
0.873281
1.27873
1.31194
1.36172
1.46364
1.3936
0.211665
0.211636
0.211609
0.211593
0.21166
0.211717
0.211724
0.211688
0.211673
0.211711
0.211756
0.21179
0.211815
0.211842
0.211854
0.211858
0.211864
0.211877
0.211924
0.211935
0.21194
0.21193
0.211969
0.211983
0.212001
0.212025
0.212091
0.212153
0.212225
0.212449
0.212917
0.21511
0.22144
0.231606
0.243778
0.266744
0.327593
0.529987
0.96824
1.39362
1.39834
1.41739
1.50967
1.54581
0.211799
0.211766
0.211725
0.211699
0.211749
0.211846
0.211903
0.211876
0.211821
0.211784
0.211799
0.211859
0.211933
0.21195
0.211942
0.211939
0.21193
0.211972
0.212051
0.212111
0.212106
0.212094
0.21207
0.212125
0.212119
0.212208
0.212233
0.212349
0.212378
0.212719
0.21318
0.215548
0.222104
0.232681
0.24749
0.272061
0.342923
0.565224
1.06266
1.4871
1.47342
1.46101
1.50973
1.58121
0.211266
0.211258
0.211236
0.211245
0.211274
0.211305
0.211339
0.211334
0.211317
0.21133
0.211358
0.211367
0.211362
0.211361
0.211372
0.211371
0.211386
0.211415
0.211441
0.211463
0.211485
0.211479
0.211476
0.211481
0.211531
0.211565
0.21159
0.211639
0.211702
0.211916
0.212498
0.215154
0.224397
0.246671
0.282874
0.343191
0.490294
0.933573
1.67371
2.0615
2.04215
1.94329
1.82829
1.71794
0.212106
0.212016
0.211907
0.211881
0.21196
0.212062
0.212105
0.212049
0.211983
0.212
0.212113
0.212217
0.212264
0.212235
0.212182
0.212127
0.212144
0.212239
0.212328
0.212386
0.212387
0.212345
0.212289
0.212312
0.212424
0.212596
0.212742
0.212977
0.213213
0.214093
0.216485
0.226836
0.263938
0.338146
0.424003
0.576885
0.919293
1.85463
2.74924
3.05171
3.20837
3.1256
2.89239
2.58428
0.22215
0.221474
0.220496
0.220088
0.220505
0.221158
0.22135
0.220936
0.220385
0.220344
0.220913
0.221675
0.222091
0.222058
0.221623
0.22111
0.221034
0.221518
0.222069
0.222311
0.22214
0.22172
0.221357
0.221408
0.222024
0.223034
0.224177
0.22574
0.22784
0.232844
0.246309
0.289941
0.409135
0.549344
0.655947
0.904689
1.42177
2.66503
3.28889
3.27313
3.34182
3.64557
3.79361
4.01182
0.272347
0.269886
0.266136
0.264624
0.266042
0.267869
0.268003
0.266044
0.264022
0.264098
0.266162
0.268451
0.269595
0.269228
0.267244
0.265015
0.264878
0.266636
0.267929
0.26818
0.267339
0.265364
0.263491
0.263103
0.265027
0.268644
0.273112
0.279215
0.287639
0.306991
0.348585
0.439938
0.657205
0.94061
1.06794
1.24955
1.88041
2.99754
3.59779
3.17981
2.54153
2.37535
2.46371
2.54884
0.385618
0.386452
0.379605
0.371453
0.37088
0.372771
0.37494
0.375094
0.373297
0.370304
0.368893
0.370694
0.374525
0.377284
0.375703
0.37133
0.367533
0.365624
0.365098
0.364887
0.3634
0.35999
0.355572
0.352981
0.355614
0.362454
0.373514
0.390485
0.415124
0.45677
0.58349
0.707432
0.922744
1.48293
1.8201
2.46117
3.57541
5.43819
6.82835
7.07321
6.47437
5.98037
5.55752
5.68696
0.616722
0.625406
0.627852
0.60978
0.578575
0.561816
0.571428
0.602713
0.62245
0.615913
0.586992
0.563785
0.556406
0.575144
0.600243
0.608545
0.596355
0.57034
0.551112
0.541525
0.547063
0.554864
0.554936
0.546018
0.531898
0.519742
0.509828
0.507029
0.539651
0.692299
1.86635
2.98361
2.01879
1.41757
1.61092
1.98357
1.81932
2.81695
4.34577
4.69648
4.15732
3.1508
4.92482
3.72166
0.732664
0.736314
0.751196
0.73963
0.662955
0.629129
0.644361
0.735768
0.816246
0.822621
0.720919
0.645415
0.617075
0.647738
0.719144
0.772629
0.769266
0.689438
0.645124
0.632124
0.654425
0.690213
0.719806
0.739352
0.72532
0.690593
0.658545
0.635584
0.659631
0.731534
0.983719
1.57187
1.47043
1.4682
1.4577
1.29582
1.29763
1.45135
1.71112
1.90309
1.63445
1.76173
2.54225
3.40539
0.695257
0.656502
0.624584
0.614195
0.606114
0.597507
0.59329
0.592973
0.589531
0.59267
0.592918
0.590356
0.588018
0.582812
0.577054
0.573785
0.572929
0.573906
0.572957
0.565841
0.552696
0.541938
0.536404
0.538815
0.541743
0.537209
0.521046
0.497765
0.485077
0.483364
0.480097
0.471457
0.454799
0.468099
0.472041
0.411652
0.367189
0.382205
2.91614
2.08378
1.14176
0.619656
0.392794
0.600479
0.499425
0.483947
0.472581
0.473919
0.481487
0.489786
0.493853
0.483766
0.472289
0.464104
0.459949
0.462917
0.468867
0.469424
0.46338
0.454554
0.447006
0.446423
0.448727
0.448829
0.444964
0.440251
0.436217
0.433457
0.427925
0.419914
0.409372
0.395443
0.375997
0.350882
0.32107
0.293231
0.269919
0.258219
0.256959
0.248827
0.240713
0.237667
0.296377
0.650673
0.501956
0.339425
0.304222
0.327063
0.304866
0.298074
0.294292
0.301325
0.313528
0.3258
0.333967
0.328327
0.317473
0.310305
0.309546
0.310532
0.311263
0.310504
0.305844
0.299349
0.29554
0.294963
0.29537
0.295446
0.293919
0.290746
0.286303
0.282328
0.278495
0.273761
0.267651
0.259964
0.251213
0.242368
0.235017
0.230586
0.227641
0.226066
0.226107
0.226319
0.227356
0.226744
0.230783
0.245266
0.267906
0.274946
0.276835
0.300298
0.22763
0.225781
0.22444
0.226455
0.230405
0.234275
0.236048
0.233563
0.230038
0.228354
0.229036
0.230069
0.230467
0.230047
0.22863
0.22681
0.226331
0.226657
0.227047
0.227135
0.226893
0.22611
0.224965
0.224391
0.223901
0.223559
0.22307
0.222291
0.221282
0.220758
0.220671
0.220543
0.220761
0.221997
0.22387
0.222404
0.22314
0.225421
0.23525
0.257738
0.257249
0.25862
0.263101
0.277044
0.216544
0.216266
0.215741
0.215808
0.216505
0.21743
0.218043
0.217593
0.216799
0.216319
0.216449
0.216749
0.217102
0.217171
0.216907
0.216449
0.216293
0.216468
0.216757
0.216998
0.21707
0.21696
0.216763
0.216765
0.2168
0.217148
0.217526
0.217781
0.218022
0.218023
0.218087
0.217936
0.218245
0.219056
0.219782
0.220589
0.221898
0.222663
0.226465
0.232365
0.245974
0.263362
0.261777
0.276093
0.214535
0.214313
0.214068
0.214249
0.214691
0.215081
0.215264
0.215051
0.214768
0.214767
0.214856
0.215013
0.215216
0.215348
0.215263
0.215083
0.215185
0.215383
0.215582
0.215727
0.215801
0.215752
0.215695
0.215768
0.215938
0.216149
0.21637
0.216439
0.216375
0.216382
0.216667
0.216843
0.217448
0.218792
0.220625
0.22054
0.220375
0.223281
0.230018
0.243855
0.243103
0.246195
0.250418
0.256058
0.213357
0.213291
0.213169
0.213195
0.213361
0.213506
0.213638
0.213577
0.213466
0.213392
0.21344
0.213501
0.213566
0.213657
0.213653
0.213548
0.213592
0.213703
0.213805
0.213947
0.214025
0.214019
0.214005
0.21408
0.214236
0.214435
0.214729
0.215026
0.215245
0.215419
0.215636
0.215582
0.215919
0.216683
0.217554
0.218127
0.219384
0.220521
0.223608
0.229449
0.238414
0.248454
0.251477
0.25706
0.21258
0.212575
0.212465
0.21253
0.212686
0.212789
0.21284
0.21282
0.212747
0.212795
0.212884
0.21297
0.213043
0.213128
0.213153
0.213053
0.213067
0.213182
0.213282
0.213308
0.213313
0.213328
0.21334
0.21343
0.213638
0.213832
0.213981
0.214082
0.214192
0.214316
0.214605
0.214964
0.215789
0.21707
0.218731
0.219137
0.219882
0.221675
0.225852
0.235399
0.235741
0.238814
0.242854
0.247959
0.212215
0.21226
0.212238
0.212256
0.21231
0.212344
0.212368
0.212391
0.212377
0.212367
0.212358
0.212397
0.212421
0.212516
0.212531
0.212441
0.212443
0.212544
0.212651
0.212753
0.212791
0.212814
0.212878
0.213012
0.213148
0.213334
0.213555
0.21381
0.214102
0.214345
0.214713
0.214876
0.21507
0.215728
0.216477
0.217052
0.218283
0.219231
0.221279
0.22628
0.232497
0.239748
0.244001
0.247867
0.211705
0.211845
0.211837
0.211825
0.211836
0.211824
0.211816
0.211794
0.211816
0.211863
0.211894
0.211915
0.211925
0.211998
0.212085
0.212071
0.212058
0.212115
0.21221
0.212306
0.212383
0.212434
0.212505
0.212635
0.212809
0.212953
0.2131
0.213282
0.213511
0.213745
0.214118
0.214409
0.215158
0.216206
0.217582
0.218034
0.218972
0.220354
0.223134
0.22965
0.231292
0.234133
0.237497
0.240446
0.211633
0.21174
0.211785
0.21179
0.21179
0.211797
0.211799
0.211796
0.211789
0.211815
0.211836
0.211862
0.211925
0.211974
0.211976
0.21194
0.211942
0.212039
0.212141
0.212207
0.21223
0.212329
0.212455
0.212518
0.21261
0.212781
0.213004
0.213179
0.213404
0.21358
0.213948
0.214195
0.214474
0.214936
0.215588
0.216343
0.21757
0.21874
0.220187
0.224021
0.228602
0.234021
0.238336
0.239425
0.211389
0.211516
0.211577
0.211602
0.211595
0.21156
0.211532
0.211539
0.211524
0.211543
0.211564
0.211577
0.211608
0.211674
0.211751
0.211777
0.211824
0.211867
0.211916
0.211965
0.212008
0.212067
0.212135
0.212255
0.212444
0.212634
0.212802
0.212996
0.213282
0.213531
0.21393
0.214218
0.214692
0.215468
0.216633
0.217186
0.218218
0.219445
0.221617
0.226063
0.228002
0.230299
0.233187
0.235442
0.211327
0.21142
0.211482
0.211496
0.211495
0.211479
0.211451
0.211433
0.211416
0.211437
0.211466
0.21151
0.211571
0.211625
0.211651
0.211662
0.211688
0.211735
0.211805
0.211899
0.212013
0.212128
0.212222
0.212325
0.212429
0.212525
0.212679
0.212787
0.213014
0.213126
0.213455
0.213752
0.214178
0.214538
0.215165
0.216029
0.217135
0.21847
0.219507
0.222463
0.225913
0.229626
0.233068
0.233896
0.211197
0.21128
0.211345
0.211381
0.211393
0.211364
0.211341
0.211338
0.211348
0.211387
0.211427
0.211462
0.211514
0.211568
0.21159
0.211628
0.211659
0.211703
0.211751
0.211793
0.211841
0.211889
0.211951
0.212055
0.212188
0.21234
0.212499
0.212681
0.213027
0.213255
0.213646
0.213944
0.214331
0.214919
0.215878
0.216575
0.217568
0.218746
0.220481
0.223543
0.225466
0.22728
0.2294
0.231145
0.211165
0.211211
0.211264
0.211266
0.211255
0.211228
0.211192
0.211183
0.21119
0.21122
0.21125
0.211297
0.211368
0.211425
0.211448
0.211468
0.211504
0.211552
0.211632
0.211725
0.211819
0.211922
0.212015
0.212121
0.21224
0.212359
0.212526
0.212593
0.21284
0.212926
0.213223
0.213563
0.213988
0.214449
0.215091
0.21591
0.216795
0.218132
0.218991
0.22129
0.223906
0.226348
0.228997
0.229854
0.211096
0.211133
0.211172
0.211204
0.211218
0.211207
0.211194
0.211196
0.211227
0.211273
0.211322
0.211377
0.211438
0.211478
0.211517
0.211583
0.211618
0.211644
0.211652
0.211672
0.211703
0.211767
0.211858
0.211959
0.212052
0.212164
0.212311
0.212481
0.212832
0.213054
0.21339
0.213722
0.214108
0.214578
0.215335
0.216178
0.217038
0.218184
0.219565
0.221741
0.223543
0.224865
0.226375
0.227775
0.21108
0.211099
0.211121
0.211129
0.21112
0.211096
0.211066
0.211071
0.211094
0.211128
0.211167
0.211215
0.21126
0.211294
0.211315
0.211339
0.211359
0.211396
0.211451
0.211521
0.211593
0.211667
0.211743
0.211845
0.211964
0.212084
0.212282
0.21238
0.212704
0.212821
0.213107
0.2135
0.213916
0.214429
0.214973
0.215754
0.216473
0.217591
0.218523
0.220317
0.222276
0.223936
0.226044
0.226704
0.21103
0.211046
0.211063
0.211096
0.211109
0.211103
0.211103
0.211126
0.211169
0.211222
0.211277
0.211327
0.211375
0.211422
0.211473
0.211525
0.211555
0.211584
0.21161
0.211648
0.211701
0.211769
0.211839
0.211926
0.212019
0.212121
0.212288
0.212405
0.212686
0.2129
0.213198
0.21358
0.213924
0.214356
0.214948
0.215841
0.216592
0.217661
0.218755
0.220387
0.221873
0.222875
0.224155
0.225
0.211028
0.211037
0.211039
0.211047
0.211038
0.211016
0.211015
0.211034
0.211062
0.211094
0.211126
0.211159
0.211185
0.211207
0.211228
0.21125
0.211269
0.211294
0.211335
0.211385
0.211435
0.211499
0.211583
0.211681
0.211804
0.21193
0.212143
0.212265
0.212571
0.212761
0.213014
0.213423
0.21381
0.214242
0.214712
0.215505
0.216153
0.217088
0.217992
0.219327
0.220792
0.222081
0.223902
0.22409
0.210978
0.210989
0.210995
0.211021
0.211029
0.21104
0.211065
0.211102
0.211147
0.211192
0.211238
0.211278
0.211315
0.211355
0.211394
0.211429
0.211453
0.211483
0.211519
0.211563
0.211615
0.211674
0.211737
0.211812
0.211911
0.212016
0.212218
0.212322
0.21258
0.212808
0.213073
0.213497
0.213812
0.214243
0.214685
0.215486
0.216192
0.217122
0.218002
0.21918
0.2204
0.221292
0.222404
0.222736
0.210975
0.210983
0.21098
0.210982
0.210973
0.210977
0.210992
0.211014
0.211038
0.211062
0.211082
0.211101
0.211118
0.211139
0.211157
0.21117
0.21118
0.211198
0.211234
0.211284
0.211336
0.211399
0.21148
0.211586
0.211727
0.211846
0.212073
0.212199
0.212434
0.212698
0.21292
0.213318
0.213655
0.214064
0.21447
0.21522
0.215836
0.216604
0.217367
0.218391
0.219571
0.22064
0.222067
0.221987
0.210932
0.210942
0.210945
0.210964
0.210978
0.211008
0.211047
0.211077
0.211113
0.211145
0.211178
0.211209
0.21124
0.211274
0.211307
0.211335
0.21136
0.21139
0.211423
0.211463
0.211507
0.211563
0.211637
0.21172
0.211843
0.211941
0.212146
0.212268
0.212494
0.212791
0.212992
0.213356
0.213682
0.214112
0.214485
0.215179
0.215813
0.216568
0.217276
0.218209
0.219271
0.220029
0.220756
0.220794
0.210932
0.210935
0.210929
0.21093
0.210931
0.21095
0.210968
0.210983
0.210998
0.21101
0.21102
0.211034
0.211052
0.211071
0.211082
0.21109
0.211101
0.211122
0.211157
0.2112
0.211258
0.211327
0.211417
0.211519
0.211669
0.211787
0.211989
0.212132
0.212334
0.212675
0.212826
0.213142
0.213491
0.213918
0.214273
0.214922
0.215497
0.216126
0.216786
0.217621
0.218609
0.21943
0.220304
0.220104
0.210895
0.210895
0.210897
0.210915
0.210939
0.210976
0.211012
0.211036
0.211062
0.211082
0.211106
0.211134
0.211169
0.211204
0.211232
0.211254
0.211274
0.211302
0.211336
0.211376
0.211423
0.211481
0.211563
0.211649
0.211788
0.21189
0.212081
0.212241
0.212426
0.212772
0.212906
0.213184
0.213529
0.213981
0.214303
0.214878
0.21544
0.216056
0.216677
0.217462
0.21836
0.218889
0.219188
0.219096
0.210893
0.21089
0.210881
0.210883
0.210894
0.210917
0.210927
0.210938
0.210944
0.210947
0.210956
0.210973
0.210994
0.211014
0.211024
0.211031
0.21104
0.211058
0.211091
0.211134
0.211194
0.211269
0.211375
0.211478
0.211632
0.211738
0.211912
0.212114
0.212263
0.212625
0.212739
0.212988
0.213349
0.213787
0.214096
0.214618
0.215159
0.215707
0.216296
0.216984
0.217752
0.218267
0.218733
0.218531
0.210856
0.210856
0.210853
0.210871
0.210901
0.210935
0.210962
0.210983
0.211
0.211016
0.211042
0.211075
0.211112
0.211142
0.211165
0.211185
0.211205
0.21123
0.211262
0.211303
0.211361
0.211427
0.211519
0.211605
0.211742
0.211857
0.21202
0.212243
0.21235
0.212681
0.212811
0.213039
0.213393
0.213834
0.214115
0.214576
0.215101
0.215646
0.216199
0.216811
0.21749
0.217738
0.217855
0.217757
0.210853
0.210854
0.210839
0.210841
0.210857
0.210875
0.210878
0.210886
0.210889
0.210894
0.210907
0.21093
0.210948
0.210962
0.21097
0.210976
0.210984
0.211
0.211034
0.211081
0.211153
0.211236
0.21135
0.211448
0.211592
0.211716
0.211866
0.212128
0.212195
0.212528
0.212673
0.212878
0.213249
0.21365
0.213919
0.214344
0.214856
0.215348
0.215848
0.216373
0.216888
0.217197
0.217467
0.217312
0.210817
0.210822
0.210815
0.210832
0.210864
0.210894
0.210914
0.210933
0.210949
0.210967
0.210998
0.211032
0.211061
0.211084
0.211104
0.21112
0.211138
0.211162
0.2112
0.211249
0.211318
0.211387
0.211484
0.21157
0.211692
0.211829
0.211954
0.212213
0.212258
0.212557
0.212723
0.212918
0.213263
0.21367
0.213919
0.214309
0.214806
0.215283
0.215722
0.21616
0.216602
0.216745
0.216798
0.216702
0.210816
0.21082
0.210804
0.210805
0.21082
0.210833
0.210835
0.210837
0.210843
0.210855
0.210871
0.21089
0.210902
0.21091
0.210914
0.210918
0.210928
0.210952
0.211002
0.211065
0.211149
0.211232
0.211341
0.211442
0.211574
0.211737
0.211829
0.212112
0.212145
0.212436
0.212633
0.212798
0.21314
0.213509
0.213762
0.214122
0.214584
0.214987
0.215366
0.215754
0.216078
0.216303
0.216478
0.216368
0.210783
0.21079
0.210784
0.210799
0.210829
0.210853
0.210874
0.210889
0.210908
0.210931
0.210961
0.210987
0.211009
0.211025
0.211039
0.211054
0.211077
0.21111
0.211156
0.211207
0.211277
0.211346
0.211438
0.211535
0.211641
0.211807
0.211874
0.212142
0.212171
0.212438
0.212654
0.212818
0.213126
0.213507
0.213737
0.214069
0.214496
0.214876
0.21521
0.215522
0.215831
0.215957
0.215975
0.215862
0.210783
0.210787
0.210774
0.210773
0.210788
0.210791
0.210796
0.210799
0.210809
0.210822
0.210836
0.210848
0.210853
0.210856
0.210858
0.210868
0.210896
0.210946
0.21101
0.211078
0.211161
0.211245
0.211348
0.211464
0.211567
0.211762
0.211795
0.212074
0.212105
0.21234
0.212597
0.212728
0.213023
0.213371
0.213607
0.213908
0.214294
0.214615
0.2149
0.215193
0.215415
0.215582
0.215702
0.215599
0.210752
0.210761
0.210757
0.210773
0.210798
0.210817
0.210835
0.210854
0.210876
0.210899
0.210923
0.21094
0.210953
0.210964
0.210979
0.211001
0.211031
0.211068
0.211116
0.211168
0.211235
0.211309
0.211394
0.21151
0.21158
0.211774
0.211798
0.21207
0.212105
0.212323
0.212602
0.212738
0.213002
0.213346
0.213563
0.21383
0.214171
0.214475
0.214744
0.214991
0.215214
0.215328
0.215294
0.215167
0.210752
0.210756
0.210749
0.210745
0.210759
0.210756
0.210763
0.21077
0.210781
0.210792
0.2108
0.210803
0.210803
0.210809
0.210826
0.21086
0.210911
0.210967
0.211031
0.211099
0.211179
0.211265
0.211352
0.211483
0.211541
0.211748
0.211759
0.21203
0.21207
0.212255
0.212545
0.212662
0.212904
0.21322
0.213433
0.21368
0.213992
0.214266
0.21451
0.214716
0.21488
0.214995
0.215035
0.214931
0.210725
0.210736
0.210736
0.210754
0.210768
0.210787
0.210806
0.210827
0.210848
0.210866
0.21088
0.210889
0.210899
0.210914
0.210936
0.210962
0.210995
0.211035
0.211084
0.211137
0.211199
0.211277
0.211355
0.21149
0.211536
0.211738
0.211743
0.212015
0.212068
0.212239
0.212539
0.212666
0.212883
0.213186
0.213385
0.213604
0.21388
0.214136
0.214365
0.214535
0.214707
0.214793
0.214746
0.214605
0.210727
0.210731
0.210729
0.210726
0.21073
0.210729
0.210736
0.210745
0.210753
0.210757
0.210758
0.210759
0.21077
0.210799
0.210839
0.210884
0.210936
0.21099
0.211048
0.211112
0.211182
0.211269
0.211337
0.211485
0.211512
0.211719
0.211723
0.211983
0.21204
0.212185
0.212473
0.212591
0.212788
0.213061
0.213257
0.213466
0.213725
0.213962
0.214162
0.214318
0.214444
0.214514
0.214504
0.214378
0.210709
0.21072
0.210722
0.210736
0.210743
0.210761
0.210781
0.210801
0.210816
0.210826
0.210835
0.210846
0.210861
0.210879
0.210903
0.210932
0.210965
0.211011
0.211064
0.211124
0.211182
0.211273
0.211329
0.211476
0.211496
0.211707
0.211712
0.211966
0.212038
0.212172
0.212458
0.21259
0.21277
0.213026
0.213216
0.213405
0.213639
0.213851
0.214023
0.214155
0.214291
0.214349
0.214293
0.214142
0.210712
0.210713
0.210714
0.210706
0.210707
0.210709
0.210714
0.210718
0.210721
0.210721
0.21073
0.210754
0.210788
0.210826
0.210866
0.210908
0.210952
0.210998
0.211047
0.211109
0.211172
0.211278
0.211314
0.211477
0.211486
0.211697
0.211699
0.211933
0.21201
0.212126
0.212388
0.212515
0.212675
0.212905
0.213091
0.213275
0.213491
0.213686
0.213846
0.213992
0.214094
0.214112
0.214073
0.213941
0.2107
0.210705
0.21071
0.210719
0.210729
0.210744
0.21076
0.21077
0.210781
0.21079
0.2108
0.210813
0.21083
0.210852
0.210878
0.210914
0.210957
0.211001
0.211052
0.211123
0.211173
0.211267
0.211303
0.211464
0.211481
0.211694
0.211694
0.211911
0.212003
0.212114
0.212362
0.212504
0.212656
0.212872
0.213056
0.213224
0.213416
0.213594
0.213738
0.213853
0.213937
0.213957
0.213899
0.213752
0.210699
0.210697
0.210696
0.21069
0.210689
0.210691
0.210693
0.210697
0.210708
0.210728
0.210754
0.210781
0.210812
0.210844
0.210877
0.21091
0.210948
0.211002
0.211054
0.211115
0.211165
0.211273
0.2113
0.211469
0.211485
0.211692
0.211681
0.211876
0.211975
0.212073
0.21229
0.212426
0.212566
0.212758
0.212935
0.213101
0.213282
0.213451
0.213597
0.213712
0.213773
0.213765
0.213709
0.213574
0.21069
0.210697
0.210701
0.210708
0.21072
0.210731
0.210741
0.210746
0.210749
0.210759
0.210773
0.210791
0.210813
0.210844
0.210875
0.210915
0.210954
0.210995
0.211041
0.211107
0.211168
0.21127
0.211305
0.211476
0.211483
0.211674
0.211674
0.211854
0.211958
0.212053
0.21225
0.212402
0.212543
0.212728
0.212907
0.213061
0.213226
0.213382
0.213518
0.213582
0.213614
0.213604
0.213546
0.213413
0.210686
0.210683
0.210682
0.210678
0.210677
0.21068
0.210691
0.210708
0.210734
0.210748
0.210769
0.210795
0.210818
0.210842
0.210874
0.210917
0.210954
0.211003
0.211054
0.211119
0.211173
0.211276
0.211313
0.211468
0.211472
0.211662
0.211667
0.211827
0.211928
0.212013
0.212189
0.212336
0.212471
0.212641
0.212806
0.212956
0.213111
0.213248
0.213371
0.213437
0.213463
0.213446
0.213389
0.213263
0.210686
0.21069
0.210694
0.2107
0.210711
0.210718
0.210725
0.21073
0.21074
0.210753
0.21077
0.210793
0.210821
0.21085
0.210884
0.210914
0.210955
0.211009
0.211053
0.211114
0.211157
0.211291
0.211296
0.211438
0.211455
0.211651
0.211661
0.211806
0.211908
0.211991
0.212146
0.212306
0.21245
0.212618
0.21278
0.212917
0.21306
0.213177
0.213283
0.213304
0.213311
0.213297
0.213245
0.213124
0.210679
0.210677
0.210675
0.210675
0.210681
0.21069
0.210706
0.210722
0.210735
0.210757
0.210774
0.210787
0.210811
0.210848
0.210882
0.210915
0.210952
0.210999
0.211051
0.211124
0.211175
0.211271
0.211286
0.21142
0.211447
0.211632
0.211651
0.211788
0.211884
0.211959
0.212098
0.212253
0.212393
0.212544
0.212687
0.212815
0.212944
0.213048
0.213135
0.213171
0.213182
0.213167
0.213122
0.213009
0.210683
0.210686
0.21069
0.210696
0.210706
0.210711
0.210718
0.210727
0.210742
0.210755
0.210777
0.210809
0.210828
0.210849
0.210878
0.210921
0.210972
0.211022
0.211066
0.211127
0.211168
0.211262
0.211285
0.211408
0.211427
0.21161
0.211643
0.211773
0.211865
0.211939
0.212063
0.212216
0.21236
0.212506
0.212645
0.212762
0.212883
0.212962
0.213036
0.213057
0.213059
0.213041
0.212999
0.212901
0.210676
0.210677
0.210678
0.210681
0.210691
0.210701
0.210715
0.210729
0.210745
0.210764
0.210788
0.210815
0.210839
0.210867
0.210901
0.210938
0.210974
0.211012
0.211055
0.211115
0.211164
0.211259
0.211264
0.211377
0.211403
0.21159
0.211624
0.211753
0.211842
0.211916
0.212032
0.21217
0.212308
0.212443
0.21257
0.212677
0.212779
0.21286
0.21292
0.212948
0.212959
0.212945
0.212913
0.212827
0.210683
0.210687
0.210692
0.210698
0.210708
0.210716
0.210727
0.210738
0.210753
0.210767
0.210784
0.210796
0.210828
0.210865
0.2109
0.210928
0.210962
0.211013
0.211066
0.211125
0.211157
0.211217
0.211253
0.211371
0.211399
0.211556
0.211595
0.211729
0.21182
0.211897
0.21201
0.212135
0.212269
0.212399
0.212519
0.212616
0.212713
0.212776
0.212835
0.21286
0.212871
0.212857
0.212829
0.21276
0.210682
0.210684
0.210688
0.210693
0.210701
0.210707
0.210716
0.210724
0.210737
0.210752
0.210771
0.210793
0.210822
0.210851
0.210882
0.210917
0.210958
0.210996
0.211028
0.211078
0.211113
0.211205
0.211247
0.211365
0.211385
0.211516
0.211576
0.211708
0.211795
0.211876
0.211992
0.212102
0.212227
0.212339
0.212449
0.212543
0.21263