/*--------------------------------*- C++ -*----------------------------------*\
| =========                 |                                                 |
| \\      /  F ield         | OpenFOAM: The Open Source CFD Toolbox           |
|  \\    /   O peration     | Version:  v1912                                 |
|   \\  /    A nd           | Website:  www.openfoam.com                      |
|    \\/     M anipulation  |                                                 |
\*---------------------------------------------------------------------------*/
FoamFile
{
    version     2.0;
    format      ascii;
    class       volScalarField;
    location    "50";
    object      alpha.water;
}
// * * * * * * * * * * * * * * * * * * * * * * * * * * * * * * * * * * * * * //

dimensions      [0 0 0 0 0 0 0];


internalField   nonuniform List<scalar> 
14268
(
1
1
1
1
1
1
1
1
1
1
0.999999
0.999991
0.999945
0.999441
0.990617
0.960413
0.982998
0.995351
0.975952
0.922121
0.880147
0.880147
0.880147
0.880147
0.807555
0.744058
0.744067
0.889856
0.889853
0.819041
0.434778
0.434624
0.601935
0.794733
0.838868
0.84153
0.802064
0.738107
0.686949
0.686953
0.710383
0.845626
0.831194
0.427303
0.362377
0.362275
0.362173
0.362054
0.306861
0.306861
0.306861
0.306861
0.306885
0.435033
0.399834
0.132169
0.115682
0.115683
0.115683
0.115684
0.115685
0.198802
0.235008
0.214724
0.215374
0.180297
0.0540123
0.0469282
0.0469251
0.0469282
0.046939
0.0676863
0.0677107
0.0676796
0.0676981
0.0644839
0.0614657
0.0579591
0.0743005
0.0730535
0.0379735
0.0494492
0.0495132
0.0495233
0.0415258
0.0104151
0.00781278
0.00783258
0.00814076
0.0070769
0.00706101
0.0070531
0.007061
0.00706069
0.00706629
0.00706809
0.00708197
0.00708375
0.00708557
0.0075023
0.00866483
0.00911143
0.00843095
0.00627062
1
1
1
1
1
1
1
1
1
1
0.999999
0.999971
0.999815
0.998949
0.963618
0.946806
0.995221
0.996552
0.971216
0.982258
0.925952
0.880147
0.906888
0.83797
0.919762
0.933869
0.882287
0.758641
0.755027
0.659886
0.431663
0.549228
0.851038
0.921391
0.946742
0.939883
0.91144
0.862628
0.767622
0.769152
0.918605
0.883547
0.830001
0.607176
0.484701
0.379668
0.504297
0.509876
0.330447
0.342269
0.368359
0.320983
0.330698
0.342687
0.316379
0.316217
0.277826
0.250139
0.241948
0.239319
0.161881
0.190928
0.235001
0.0729827
0.0721124
0.214567
0.100789
0.0802859
0.0881724
0.0899195
0.0469358
0.0672432
0.0388707
0.0325793
0.0305136
0.027775
0.0309045
0.0302882
0.030375
0.0773143
0.0349458
0.0146463
0.0145905
0.0165374
0.0278948
0.0275718
0.0256478
0.0404576
0.0413727
0.0262195
0.00704959
0.007061
0.0101387
0.00775734
0.00722375
0.0134547
0.0202534
0.0162578
0.00933005
0.0163792
0.0180785
0.0182167
0.0182197
0.0179757
1
1
1
1
1
1
1
1
1
1
0.999999
0.999939
0.999684
0.998003
0.968254
0.946802
0.982879
0.996317
0.971216
0.989098
0.985999
0.925601
0.961687
0.762778
0.918094
0.988522
0.989988
0.934761
0.754945
0.736011
0.431727
0.654097
0.890748
0.933045
0.952169
0.952028
0.943099
0.943078
0.937317
0.93022
0.924125
0.791922
0.770932
0.702703
0.711889
0.664978
0.342611
0.476721
0.504814
0.5058
0.599105
0.510235
0.442291
0.248727
0.306978
0.445667
0.445687
0.445682
0.445697
0.44438
0.260981
0.153656
0.235005
0.0600686
0.0589837
0.215986
0.215862
0.182867
0.156979
0.136566
0.0982785
0.036465
0.0274334
0.0274229
0.0274334
0.0538447
0.0583612
0.0563772
0.0577757
0.0773202
0.0596728
0.0176744
0.0121153
0.0121151
0.0121153
0.0338645
0.0582044
0.0679884
0.0679856
0.0679564
0.00706589
0.00741768
0.0167643
0.0153162
0.0127799
0.0251177
0.0299124
0.0299008
0.0230514
0.0230611
0.0218001
0.012782
0.00971216
0.0121559
1
1
1
1
1
1
1
1
1
1
1
0.999833
0.999414
0.998497
0.982569
0.946806
0.968672
0.985368
0.976817
0.990714
0.99244
0.971911
0.982263
0.762833
0.843837
0.992512
0.992512
0.979861
0.826614
0.890407
0.628059
0.758367
0.932594
0.952169
0.952168
0.906713
0.906766
0.943056
0.943035
0.943013
0.839792
0.542032
0.529334
0.744997
0.850269
0.850269
0.40203
0.367456
0.50428
0.392046
0.490238
0.653143
0.653143
0.244358
0.29038
0.445672
0.445667
0.445687
0.378916
0.138521
0.299861
0.153761
0.202198
0.203525
0.160956
0.215862
0.187236
0.0792314
0.0351907
0.0145571
0.0272972
0.0230113
0.0294254
0.0274334
0.0367334
0.0613842
0.0442805
0.0347915
0.0773202
0.0773143
0.0773202
0.0414006
0.0208405
0.0154275
0.0164333
0.0299744
0.0649709
0.0632254
0.0496564
0.0202797
0.0097902
0.00755954
0.0123921
0.0153751
0.0254185
0.0253057
0.0135624
0.0169706
0.0240682
0.0165791
0.00983268
0.00703699
0.00467066
0.00831152
1
1
1
1
1
1
1
1
1
1
1
0.999861
0.99974
0.999385
0.991049
0.959024
0.995285
0.983573
0.986039
0.985333
0.993947
0.991792
0.99014
0.786392
0.709378
0.966723
0.992512
0.990162
0.924183
0.924974
0.915617
0.841507
0.941112
0.944789
0.928055
0.959111
0.923552
0.943035
0.935811
0.85421
0.792286
0.760211
0.42972
0.645465
0.844402
0.850269
0.832862
0.377289
0.461255
0.159368
0.0754421
0.653123
0.653143
0.181268
0.218886
0.303811
0.377663
0.35551
0.16485
0.138291
0.49943
0.328018
0.116494
0.212464
0.184409
0.13592
0.09737
0.05084
0.017633
0.0146351
0.0650807
0.0223295
0.0524643
0.0875605
0.08842
0.0462422
0.009085
0.00908262
0.0279774
0.0686987
0.0621398
0.00689878
0.00588008
0.0260348
0.0264112
0.0278946
0.0438952
0.0110426
0.00587569
0.00362187
0.0320458
0.00834486
0.00658671
0.011553
0.0237162
0.0134109
0.00224262
0.00777487
0.0240572
0.00738733
0.00516355
0.0039077
0.00354893
0.00354471
1
1
1
1
1
1
1
1
1
1
1
0.999938
0.9999
0.999778
0.994895
0.984287
0.998853
0.985316
0.99182
0.990584
0.995582
0.996365
0.974342
0.882141
0.707182
0.892327
0.992512
0.990983
0.906598
0.925008
0.911871
0.926177
0.946425
0.912611
0.912505
0.965756
0.955463
0.932603
0.884421
0.82387
0.821616
0.886695
0.403366
0.501016
0.372408
0.794749
0.756358
0.365459
0.494875
0.0754583
0.0754421
0.361417
0.609689
0.131895
0.0899141
0.106989
0.160699
0.110549
0.124053
0.319597
0.49946
0.103572
0.0633083
0.168681
0.0634116
0.0276443
0.0308287
0.0343747
0.0204112
0.0306419
0.0928918
0.0223235
0.034059
0.0954061
0.095459
0.0343832
0.00908262
0.0295431
0.0059914
0.0258316
0.0281387
0.00424431
0.0042125
0.00610768
0.0310294
0.0323715
0.0101294
0.00362039
0.00362225
0.00361954
0.038589
0.0234497
0.00658596
0.00672185
0.0109171
0.00587948
0.00224467
0.00367652
0.0156398
0.00729964
0.00730172
0.00625092
0.00651244
0.00282307
1
1
1
1
1
1
1
1
1
0.999996
0.999997
0.99998
0.999955
0.999888
0.9971
0.996433
0.999387
0.99718
0.995912
0.996697
0.993609
0.996365
0.961855
0.936449
0.707231
0.821344
0.991512
0.992237
0.847036
0.710234
0.694969
0.941954
0.946411
0.912505
0.955232
0.965768
0.955921
0.899537
0.95461
0.95461
0.954415
0.954427
0.402052
0.277824
0.0827699
0.206025
0.169649
0.158675
0.494737
0.111844
0.0754421
0.0785113
0.230952
0.0984591
0.0753948
0.0780604
0.0971599
0.103521
0.19487
0.517883
0.210603
0.0401933
0.0266618
0.0209818
0.0196782
0.0187406
0.0187406
0.0215272
0.0487939
0.110907
0.0929553
0.0223267
0.0223231
0.0666014
0.0797099
0.0219842
0.0264896
0.0873459
0.00485436
0.00424073
0.00845106
0.00677546
0.0164307
0.00603524
0.0229194
0.0324447
0.00362122
0.00362304
0.00362039
0.00578
0.0385877
0.038589
0.0108753
0.00897209
0.00214952
0.00214076
0.0025174
0.00612883
0.00715506
0.00950754
0.0128598
0.0130285
0.0130563
0.00476076
1
1
1
1
1
1
1
1
1
0.999977
0.99998
0.99995
0.99994
0.999921
0.998626
0.999195
0.999355
0.999286
0.998995
0.995042
0.994323
0.995769
0.972922
0.97386
0.870661
0.974612
0.992513
0.992512
0.827121
0.494042
0.577109
0.931598
0.920615
0.932691
0.970259
0.965779
0.931253
0.842735
0.90557
0.95461
0.95461
0.908963
0.562176
0.109996
0.0827561
0.0827495
0.0827372
0.0827356
0.36755
0.30732
0.122614
0.0753895
0.0753771
0.0753894
0.0753826
0.196501
0.143646
0.347446
0.330362
0.517622
0.0248262
0.241702
0.0187414
0.0187406
0.0187406
0.0187343
0.0187406
0.030049
0.122985
0.122892
0.0404765
0.0223176
0.0289866
0.018981
0.0259251
0.0156028
0.0456094
0.0996634
0.0122201
0.00370927
0.00371289
0.0215836
0.0633318
0.014072
0.0166805
0.0284149
0.0039007
0.00489531
0.00468487
0.0175887
0.0331773
0.0385317
0.0219013
0.0125852
0.00214076
0.00499106
0.0108728
0.0115966
0.0272739
0.0285124
0.0160108
0.0140274
0.0126461
0.0103796
1
1
1
1
1
1
1
1
1
0.999987
0.999874
0.999872
0.999847
0.999919
0.999551
0.999892
0.996385
0.99925
0.99809
0.968332
0.996023
0.996022
0.992288
0.992302
0.984355
0.989944
0.992511
0.99171
0.878026
0.493336
0.817459
0.905016
0.883532
0.969718
0.970248
0.941122
0.884396
0.841902
0.841899
0.937709
0.946395
0.776301
0.7956
0.0827649
0.0827579
0.0827445
0.0827391
0.0827288
0.0827391
0.394887
0.534201
0.153563
0.0753895
0.0753805
0.0901544
0.275995
0.276764
0.520898
0.455773
0.421181
0.0228604
0.415622
0.0187404
0.0187414
0.0237741
0.0187367
0.0187343
0.053983
0.122892
0.120738
0.0223176
0.0223021
0.0594667
0.0117295
0.0116874
0.0157806
0.0702529
0.0996574
0.0129164
0.0040446
0.00372453
0.0408881
0.0872774
0.0290647
0.0110934
0.0209848
0.0201818
0.0248787
0.0103611
0.023569
0.00997237
0.0268417
0.0231826
0.025561
0.00559322
0.0157909
0.0235247
0.0190811
0.0214879
0.0401284
0.0257576
0.00751993
0.00344642
0.00351642
1
1
1
1
1
1
1
1
1
0.999996
0.999939
0.999822
0.999707
0.999877
0.999892
0.999892
0.993838
0.998627
0.995845
0.937253
0.996022
0.995544
0.995538
0.987901
0.934903
0.991859
0.979193
0.963429
0.918131
0.599407
0.941596
0.84361
0.829874
0.97025
0.970292
0.970259
0.937297
0.886397
0.841902
0.854548
0.93936
0.776301
0.845164
0.0904864
0.0855741
0.0827579
0.0956994
0.162409
0.109449
0.313195
0.621383
0.29926
0.114782
0.166627
0.0754777
0.167569
0.350267
0.520898
0.51943
0.0442652
0.022619
0.416407
0.0292721
0.0203584
0.120925
0.018733
0.0574628
0.0757975
0.0986245
0.0352248
0.0573435
0.0351618
0.147302
0.0176275
0.0117295
0.0472557
0.0993835
0.0543781
0.0104493
0.0322761
0.00682833
0.0774387
0.0873019
0.0527652
0.00468045
0.0193595
0.056278
0.0543473
0.0134942
0.0206162
0.00228303
0.00787131
0.0201888
0.0356199
0.0297344
0.0335119
0.0332417
0.0292567
0.0135359
0.0401284
0.0400273
0.0184775
0.00344124
0.0075855
1
1
1
1
1
1
1
1
1
1
0.999983
0.999857
0.999544
0.99981
0.999892
0.999892
0.994538
0.997099
0.975971
0.937237
0.996022
0.993697
0.988474
0.976837
0.888671
0.992593
0.968917
0.914203
0.893944
0.915291
0.944511
0.824607
0.824573
0.970259
0.970248
0.970292
0.969675
0.938245
0.841899
0.841903
0.940693
0.927535
0.845428
0.152943
0.41456
0.0827649
0.381849
0.461002
0.437992
0.116153
0.621383
0.157055
0.0753574
0.355481
0.0754875
0.0754777
0.373943
0.504388
0.422759
0.0226197
0.0226198
0.401085
0.33776
0.0884213
0.260966
0.0187301
0.0414113
0.0608345
0.0211709
0.0212438
0.0615103
0.152903
0.169116
0.119507
0.0930236
0.0821958
0.100189
0.00843011
0.00778369
0.0650548
0.0105128
0.0873294
0.0873091
0.0752268
0.00468039
0.0222832
0.0600402
0.0600456
0.00322174
0.00318653
0.0022814
0.00228169
0.0152648
0.0356242
0.0356199
0.0125618
0.00364478
0.00845266
0.00850191
0.0223144
0.0400505
0.0200105
0.00586943
0.0114714
1
1
1
1
1
1
1
1
1
1
0.999997
0.999846
0.999233
0.999698
0.999892
0.999892
0.998903
0.994929
0.965098
0.946449
0.991935
0.98846
0.956239
0.96934
0.888695
0.992596
0.992595
0.96235
0.844803
0.944511
0.944612
0.812141
0.879645
0.968553
0.970301
0.970245
0.963868
0.847572
0.847198
0.920839
0.922664
0.864306
0.515495
0.344097
0.7687
0.125852
0.461389
0.461414
0.223531
0.0827811
0.621383
0.0753166
0.0753168
0.355224
0.0754777
0.0754875
0.332034
0.157723
0.356022
0.0226206
0.0226197
0.343325
0.48072
0.232897
0.355241
0.0187185
0.0201599
0.0610101
0.0212438
0.0215759
0.0274691
0.169166
0.169076
0.169116
0.0629745
0.0333354
0.100085
0.00712551
0.00718658
0.065153
0.0368027
0.0873339
0.0569037
0.042903
0.0125963
0.0279651
0.0600456
0.0502045
0.00799064
0.0022814
0.00228157
0.00228075
0.00910488
0.0266304
0.0300224
0.00474923
0.00365751
0.00519679
0.0144079
0.0393098
0.0392694
0.0118341
0.00882117
0.00896186
1
1
1
1
1
1
1
1
1
1
0.999997
0.999461
0.997707
0.999265
0.999892
0.999892
0.99956
0.990721
0.984935
0.978932
0.979569
0.972501
0.829102
0.969338
0.948963
0.992594
0.99261
0.983792
0.773991
0.803058
0.929569
0.721795
0.883325
0.93403
0.970244
0.970301
0.970248
0.964252
0.950952
0.824079
0.637111
0.672626
0.131867
0.727567
0.782766
0.301492
0.461414
0.244504
0.0827828
0.0827887
0.444602
0.0753168
0.075317
0.149127
0.257113
0.179955
0.37726
0.100981
0.32856
0.0226205
0.0226206
0.245381
0.481266
0.371241
0.363652
0.0187372
0.0187185
0.133143
0.0322637
0.068904
0.0271497
0.169101
0.169166
0.122813
0.0262725
0.0261447
0.100189
0.0103079
0.00998081
0.0515788
0.0192062
0.0502348
0.0108004
0.0261951
0.0251355
0.0320897
0.0591016
0.0278582
0.0240248
0.00351143
0.00228005
0.00228083
0.00482591
0.0124551
0.0115927
0.00154974
0.00510804
0.0160508
0.033212
0.0386252
0.0272674
0.0105379
0.0105316
0.00253455
1
1
1
1
1
1
1
1
1
1
0.999993
0.999306
0.996069
0.998568
0.999877
0.999134
0.999558
0.990722
0.995701
0.990655
0.969385
0.94704
0.81868
0.947497
0.992576
0.99261
0.992595
0.986074
0.705694
0.481497
0.908007
0.810537
0.876208
0.890587
0.930728
0.967554
0.970242
0.970246
0.930707
0.290957
0.20233
0.286333
0.130953
0.782745
0.782781
0.431496
0.407199
0.156325
0.0827887
0.08278
0.62112
0.0892481
0.132921
0.123912
0.478944
0.490644
0.455745
0.089129
0.307266
0.0380138
0.0717996
0.152833
0.327273
0.369239
0.231359
0.0851789
0.0195906
0.139634
0.103908
0.108935
0.0320217
0.169216
0.169101
0.036313
0.0200135
0.0751371
0.0820295
0.038518
0.0133396
0.0123379
0.0108889
0.0105907
0.00494685
0.024119
0.0422258
0.0364835
0.060046
0.060046
0.0487868
0.00904239
0.00228006
0.00227933
0.00552008
0.00527869
0.00206391
0.00155576
0.0132857
0.0197891
0.0163162
0.0186972
0.0161433
0.00807485
0.00488885
0.000522913
1
1
1
1
1
1
1
1
1
1
0.999925
0.999658
0.996068
0.996195
0.999485
0.980963
0.998724
0.995482
0.997258
0.993664
0.966979
0.931725
0.818734
0.824289
0.949782
0.991359
0.992605
0.971868
0.788337
0.479179
0.648955
0.926123
0.935907
0.890526
0.891598
0.920527
0.929656
0.968634
0.703194
0.148427
0.148427
0.148427
0.227234
0.782781
0.782768
0.463036
0.140775
0.397024
0.0827842
0.388794
0.621103
0.391704
0.459174
0.154018
0.423663
0.490848
0.403706
0.0764786
0.257635
0.245017
0.245441
0.0523801
0.055891
0.249808
0.0808827
0.155849
0.0275167
0.108281
0.126652
0.126751
0.0460618
0.169151
0.0930003
0.00757063
0.0202641
0.100095
0.0828673
0.0858817
0.0229524
0.0101973
0.0232777
0.00446124
0.00352091
0.019462
0.0492615
0.0471694
0.060046
0.060046
0.060046
0.0153683
0.00227876
0.00294532
0.0150128
0.00835094
0.00206256
0.00444422
0.0193215
0.0198056
0.00698124
0.00549764
0.00779178
0.00615637
0.00289879
0.000477522
1
1
1
1
1
1
1
1
1
1
0.999957
0.999918
0.99693
0.99474
0.999119
0.976515
0.997763
0.998921
0.998135
0.989553
0.963128
0.979341
0.918386
0.801398
0.808466
0.990514
0.992594
0.961275
0.842856
0.479167
0.479287
0.954833
0.954832
0.954832
0.954832
0.90254
0.884013
0.866714
0.364407
0.148427
0.148427
0.160339
0.351875
0.604714
0.782781
0.450203
0.140775
0.316496
0.219229
0.580783
0.581077
0.597643
0.597396
0.401835
0.219624
0.405617
0.19129
0.0763345
0.194986
0.425201
0.416063
0.0231811
0.0231813
0.127375
0.0318927
0.108176
0.0333527
0.0577312
0.126751
0.0269837
0.0295358
0.0812055
0.0204417
0.00686479
0.0288673
0.100096
0.100095
0.100096
0.0460933
0.0337242
0.0338002
0.00352091
0.00352125
0.0106412
0.0492423
0.0491966
0.0282602
0.0408693
0.0181172
0.00920631
0.00577621
0.0041278
0.0150321
0.0105385
0.0137498
0.0154626
0.020347
0.00954958
0.00373963
0.00132563
0.00289018
0.00379517
0.00146635
0.000478265
1
1
1
1
1
1
1
1
0.999999
0.999999
0.999995
0.999981
0.999259
0.994741
0.995281
0.981556
0.99797
0.998921
0.997182
0.97229
0.911276
0.965878
0.965841
0.871103
0.807408
0.987274
0.974854
0.93057
0.900508
0.538657
0.627295
0.950483
0.954832
0.954831
0.943351
0.924434
0.860343
0.613159
0.166502
0.148427
0.175758
0.31813
0.336916
0.250365
0.744314
0.535427
0.140775
0.140775
0.580691
0.580808
0.344573
0.459074
0.151267
0.151553
0.179196
0.0804156
0.0800084
0.0871374
0.103357
0.425201
0.425167
0.0231813
0.0231811
0.0300012
0.0240895
0.0266942
0.139481
0.0576457
0.117857
0.0258844
0.02817
0.00944677
0.00686479
0.00686421
0.0196284
0.0529826
0.0996623
0.100095
0.0577602
0.0203746
0.0283305
0.00352125
0.00352091
0.01325
0.0492615
0.0321942
0.0113462
0.0138704
0.00926478
0.00923564
0.0155854
0.00514919
0.00900198
0.00718981
0.00719323
0.00903754
0.020357
0.0087579
0.00147532
0.00110243
0.00110217
0.00196224
0.000932936
0.000777054
1
1
1
1
1
1
1
0.999999
0.999991
0.999992
0.999995
0.999958
0.99818
0.996192
0.99687
0.996131
0.999465
0.997998
0.995375
0.933755
0.911271
0.916124
0.965822
0.960294
0.880953
0.974285
0.931644
0.880099
0.880498
0.883252
0.908479
0.94885
0.94499
0.946636
0.720251
0.844283
0.889724
0.470359
0.380879
0.312669
0.406115
0.592107
0.414379
0.250028
0.612573
0.678477
0.140775
0.140775
0.285097
0.265409
0.2748
0.128172
0.128185
0.128184
0.37482
0.197871
0.207545
0.273335
0.315492
0.425201
0.359542
0.0304932
0.0234789
0.0703989
0.0240947
0.0240895
0.225252
0.0721314
0.0475448
0.0258297
0.0257719
0.00686479
0.00686421
0.0162108
0.0177842
0.0212311
0.0477765
0.099009
0.026843
0.00522814
0.00898071
0.00512696
0.00933191
0.0156609
0.0329278
0.0218181
0.0113491
0.0129941
0.0150958
0.00927875
0.0197992
0.0168499
0.0120969
0.0101586
0.00483494
0.00663112
0.020347
0.0139906
0.00127739
0.00110241
0.00110236
0.0011399
0.00243668
0.00274673
1
1
1
1
1
1
1
0.999999
0.999963
0.999967
0.999966
0.999833
0.995002
0.997241
0.998939
0.999471
0.999471
0.998536
0.992812
0.923765
0.924287
0.914715
0.964535
0.886679
0.977808
0.953308
0.874835
0.793871
0.822504
0.964498
0.964496
0.964498
0.889277
0.809326
0.489298
0.729418
0.927312
0.89872
0.686899
0.549934
0.540769
0.70034
0.700064
0.420838
0.720221
0.720221
0.226359
0.140775
0.140775
0.140775
0.540813
0.128185
0.128182
0.12823
0.374943
0.374943
0.374944
0.353826
0.224066
0.425201
0.13922
0.104632
0.0428668
0.211137
0.0451166
0.0819278
0.225256
0.127967
0.045699
0.0456121
0.0173582
0.0123844
0.0275499
0.0697447
0.0259695
0.0212333
0.0293524
0.0529182
0.0203559
0.00352401
0.00389423
0.0198912
0.0209354
0.0121877
0.0115714
0.0118161
0.0127543
0.0221265
0.0316181
0.011519
0.0157938
0.0250619
0.0244743
0.020993
0.00483489
0.00607584
0.0175348
0.0137381
0.00152686
0.00110236
0.0011021
0.00215129
0.00529649
0.00498086
1
1
1
1
1
1
1
0.999999
0.9999
0.999927
0.999902
0.995645
0.9914
0.997808
0.999471
0.999471
0.999471
0.998865
0.979615
0.956965
0.976852
0.919858
0.88904
0.883344
0.989877
0.933982
0.8317
0.744698
0.770272
0.964496
0.964498
0.9571
0.946371
0.660785
0.489365
0.612284
0.927282
0.927312
0.798758
0.61924
0.499056
0.606728
0.720218
0.720219
0.720221
0.720219
0.478308
0.27196
0.18623
0.395927
0.592612
0.15688
0.211779
0.194589
0.294094
0.374943
0.374943
0.310334
0.184171
0.334493
0.115126
0.181217
0.0633817
0.236428
0.0795897
0.220453
0.225253
0.152246
0.048397
0.0752164
0.0184404
0.0363165
0.0787623
0.0787657
0.0744999
0.0464214
0.0409924
0.0305831
0.0356951
0.003524
0.00914012
0.0382778
0.0343678
0.0166963
0.0115691
0.0126784
0.011653
0.0298097
0.0322113
0.0192125
0.0128
0.0250653
0.0250614
0.0100685
0.00483494
0.00483522
0.0108622
0.0101571
0.0024168
0.0011023
0.00111513
0.00490734
0.00768734
0.00671989
1
1
1
1
1
1
1
1
0.999863
0.999807
0.999807
0.992868
0.992657
0.998807
0.999471
0.999379
0.999471
0.998457
0.974476
0.979318
0.979315
0.937844
0.888325
0.92835
0.989898
0.91509
0.82329
0.744295
0.760404
0.964498
0.964496
0.938435
0.946564
0.838104
0.489298
0.515952
0.845436
0.927282
0.840063
0.628847
0.498354
0.53404
0.650892
0.720218
0.657695
0.720219
0.515157
0.411384
0.402544
0.586882
0.591786
0.361613
0.355808
0.225873
0.120436
0.374943
0.374943
0.343636
0.144531
0.15113
0.10937
0.181222
0.151357
0.236936
0.0908324
0.22038
0.0941912
0.126992
0.0831678
0.0901279
0.0333326
0.0237429
0.0478773
0.0787623
0.0787657
0.069547
0.0470988
0.0256317
0.0383037
0.0140218
0.0231911
0.038812
0.0388106
0.0261423
0.0192065
0.0171433
0.0116257
0.0214982
0.0321885
0.024517
0.0125146
0.0250619
0.0195873
0.00959228
0.00731958
0.00528967
0.00527471
0.00620655
0.00328285
0.0011024
0.00189883
0.00735344
0.00768736
0.00741132
0.999995
1
1
0.999999
0.999994
0.999809
0.999771
0.999883
0.999799
0.999449
0.996354
0.992018
0.993828
0.995681
0.994459
0.992985
0.992789
0.984287
0.974397
0.979316
0.979318
0.971247
0.953847
0.963454
0.953325
0.839425
0.812941
0.856628
0.856714
0.883761
0.918783
0.834412
0.692583
0.693825
0.662986
0.710636
0.835905
0.763202
0.600318
0.600684
0.600305
0.556612
0.405045
0.391751
0.362262
0.43629
0.514918
0.448304
0.246974
0.340224
0.357422
0.361067
0.360452
0.279362
0.105224
0.0993251
0.162165
0.187573
0.11879
0.0854683
0.0906543
0.178853
0.178814
0.145101
0.0890171
0.0546829
0.0315026
0.0751249
0.0901279
0.090114
0.0605694
0.0176478
0.0152093
0.0271165
0.0350242
0.0294197
0.0198376
0.0173558
0.031875
0.0388115
0.0388126
0.038811
0.038812
0.0342141
0.0269508
0.0210329
0.0129113
0.0113298
0.0222921
0.0246754
0.0105346
0.00706052
0.00788576
0.00859611
0.00860305
0.0082601
0.00298004
0.00297828
0.00302779
0.00329054
0.0062206
0.00768736
0.00768734
0.00762855
0.999631
0.999652
0.999689
0.999638
0.997838
0.994742
0.99334
0.993047
0.992332
0.98933
0.982672
0.978343
0.97607
0.9685
0.947383
0.915931
0.89588
0.92068
0.928119
0.919447
0.911971
0.888342
0.867297
0.869239
0.850381
0.795416
0.714962
0.553089
0.410554
0.540841
0.581535
0.415918
0.255723
0.167263
0.223654
0.365391
0.5362
0.40766
0.311145
0.257853
0.308188
0.225158
0.24251
0.250061
0.169411
0.131231
0.0732661
0.0734204
0.134206
0.0981413
0.0755287
0.0985271
0.0549401
0.0380446
0.0531414
0.0492219
0.0713524
0.0957264
0.082944
0.0374484
0.0381821
0.0428865
0.0516118
0.0285131
0.0229352
0.0239485
0.0205772
0.0292008
0.0322562
0.0279611
0.0236667
0.0134607
0.00954717
0.0103593
0.00595341
0.00431224
0.00395623
0.00763799
0.00955883
0.0150748
0.0154934
0.0113303
0.00621105
0.00320463
0.00223768
0.00422299
0.00513514
0.00511495
0.00450549
0.00391863
0.00412889
0.00391045
0.00229687
0.00159731
0.00203554
0.00192253
0.0029809
0.0024896
0.00151105
0.00121558
0.00234962
0.00313169
0.00214894
0.000755481
0.990754
0.988511
0.983413
0.971694
0.955046
0.940324
0.932446
0.925415
0.909343
0.884729
0.854746
0.821031
0.782017
0.745575
0.698696
0.626629
0.520109
0.470544
0.508032
0.537557
0.514749
0.468675
0.419219
0.367935
0.310747
0.228131
0.15247
0.0916479
0.0587983
0.0755252
0.068619
0.0466038
0.0258831
0.0259483
0.0288217
0.0510272
0.0984688
0.0956048
0.0938311
0.0885171
0.0831971
0.0692492
0.0709352
0.0886043
0.152673
0.152871
0.105401
0.0306065
0.0278745
0.0327697
0.0425254
0.0231791
0.00984459
0.0069039
0.00644527
0.00821143
0.0131229
0.0265488
0.0345858
0.0278926
0.0248881
0.013329
0.010979
0.00507874
0.00545273
0.0092864
0.0105334
0.0122792
0.0151151
0.0133301
0.0087005
0.00461425
0.00223768
0.00102464
0.00059219
0.000331925
0.000408026
0.00103147
0.00113634
0.00139722
0.00118284
0.00139778
0.00146983
0.00108277
0.000545303
0.000505319
0.00122974
0.0026213
0.00261124
0.00175648
0.00164295
0.00122508
0.0010607
0.000742477
0.000474119
0.000501041
0.000534599
0.000503331
0.00045643
0.00044056
0.000464512
0.000495241
0.000381218
0.000313207
0.857016
0.831815
0.799402
0.759979
0.717063
0.670938
0.629155
0.589216
0.538836
0.470173
0.394424
0.33208
0.274346
0.212868
0.154499
0.110549
0.0826673
0.0717168
0.0760365
0.0884846
0.0870579
0.0814644
0.0696071
0.0550743
0.0398502
0.025834
0.0163388
0.00953685
0.00651888
0.00620096
0.00536912
0.00390945
0.00234248
0.00238035
0.00242589
0.002383
0.00254284
0.00241608
0.00247843
0.00367921
0.00353236
0.00347958
0.00367711
0.00579831
0.018566
0.0307481
0.0353546
0.035328
0.0335241
0.0190527
0.00732712
0.00178622
0.000528267
0.000627494
0.000744912
0.000748318
0.000718472
0.000783698
0.000722377
0.00177741
0.00432349
0.00332441
0.00160904
0.000695315
0.000487796
0.000916115
0.00207682
0.00332018
0.00317828
0.0025897
0.00220285
0.00169913
0.00111818
0.000497176
0.000111415
1.52592e-05
1.52043e-05
1.74888e-05
2.51976e-05
3.6542e-05
4.92399e-05
5.50956e-05
5.73639e-05
8.44111e-05
0.000212736
0.000458056
0.00048417
0.000496236
0.000333796
0.000232457
0.00022063
0.000170122
9.14253e-05
3.47286e-05
1.2908e-05
1.39379e-05
1.68615e-05
1.96801e-05
2.26032e-05
3.79338e-05
4.85364e-05
6.14127e-05
5.85169e-05
6.39605e-05
0.384064
0.340897
0.290079
0.2356
0.191201
0.157511
0.132476
0.111874
0.0913739
0.0707917
0.0531009
0.0395575
0.0290281
0.0207656
0.0145023
0.0102983
0.00764014
0.00681327
0.00638012
0.00603594
0.00584657
0.00536658
0.00459055
0.00366404
0.00269449
0.00179052
0.00115585
0.000723967
0.000478375
0.000471932
0.000421733
0.000331656
0.000213875
0.000209655
0.000211672
0.000204152
0.000211347
0.000214899
0.000246136
0.000255281
0.000252351
0.000250254
0.000250924
0.000245773
0.000244514
0.000259211
0.000242544
0.000279105
0.000343961
0.00040538
0.00038579
0.00034114
0.000239084
0.000108126
3.24474e-05
2.90551e-05
3.15413e-05
4.23249e-05
7.2384e-05
8.67882e-05
8.04932e-05
5.41519e-05
2.49254e-05
9.65046e-06
8.27214e-06
7.77383e-06
6.13556e-06
1.54488e-05
7.46072e-06
4.20809e-06
5.42281e-06
1.48586e-05
1.79032e-05
1.62759e-05
1.72107e-05
1.73812e-05
1.29739e-05
4.23347e-06
3.38568e-06
5.94959e-06
2.06584e-05
3.25072e-05
2.28255e-05
6.15253e-06
1.86716e-05
0.000113384
0.000140897
0.0001621
0.000281782
0.000191358
4.8967e-05
3.44404e-07
2.78375e-08
2.86914e-08
1.77513e-08
1.77658e-08
3.96093e-08
5.45895e-08
5.09005e-08
4.58707e-08
3.41305e-08
3.25415e-08
2.61411e-08
3.21695e-07
0.0453323
0.0370233
0.0293508
0.022977
0.0181811
0.0146927
0.0121102
0.00993538
0.00792247
0.00604078
0.00444529
0.00321039
0.0022882
0.00160578
0.00112775
0.000808699
0.000604054
0.000531818
0.000495818
0.000473203
0.000461517
0.0004254
0.000364109
0.000291948
0.000218368
0.000146908
9.05573e-05
5.30356e-05
3.14073e-05
2.75457e-05
2.22939e-05
1.73689e-05
1.21239e-05
1.26236e-05
1.34102e-05
1.32328e-05
1.34816e-05
1.45033e-05
1.43063e-05
1.40247e-05
1.40111e-05
1.38963e-05
1.38227e-05
1.33986e-05
1.29531e-05
1.31215e-05
1.46783e-05
1.74628e-05
1.88267e-05
1.82344e-05
1.67321e-05
1.35492e-05
1.0994e-05
8.56395e-06
6.20768e-06
4.9392e-06
4.97166e-06
5.11028e-06
5.76862e-06
7.07569e-06
8.96293e-06
9.73226e-06
7.50815e-06
3.11637e-06
2.97263e-06
4.93091e-06
4.35197e-06
2.11026e-06
4.4756e-07
3.13037e-07
4.82375e-07
7.59582e-07
7.7213e-07
6.68534e-07
4.56503e-07
2.54715e-07
1.1553e-07
8.48647e-08
8.64885e-08
2.85438e-07
1.46912e-06
2.61882e-06
2.56746e-06
1.65071e-06
4.93438e-07
5.94557e-07
2.82958e-06
8.38376e-06
3.88508e-05
0.000151372
9.42292e-05
2.07579e-05
7.23058e-08
9.65656e-07
1.21042e-05
1.40707e-05
5.69409e-06
2.71104e-07
7.42935e-08
1.47686e-07
1.33971e-07
6.44069e-08
1.82807e-08
1.52535e-08
0.00352499
0.00276136
0.00211691
0.00163428
0.00127918
0.00102054
0.000835473
0.000684137
0.000553056
0.00043499
0.00033123
0.000245008
0.000174656
0.00011987
8.06541e-05
5.44243e-05
3.85084e-05
3.22548e-05
3.01425e-05
3.02375e-05
3.15596e-05
3.00901e-05
2.62439e-05
2.02458e-05
1.32406e-05
7.09115e-06
3.22291e-06
1.16945e-06
7.73123e-07
9.48062e-07
1.16638e-06
1.18158e-06
9.90302e-07
7.79985e-07
5.19428e-07
4.22915e-07
4.25487e-07
4.99919e-07
6.95115e-07
9.13452e-07
9.42684e-07
9.20115e-07
8.56776e-07
7.4477e-07
6.12702e-07
5.27334e-07
4.79168e-07
4.30127e-07
3.82738e-07
3.42293e-07
3.17854e-07
3.09919e-07
3.56582e-07
4.09135e-07
4.02598e-07
3.78094e-07
3.43901e-07
3.35577e-07
3.53029e-07
3.88508e-07
4.45927e-07
5.33584e-07
5.84625e-07
5.52308e-07
5.20476e-07
6.79209e-07
9.62656e-07
8.7741e-07
3.93999e-07
5.25815e-08
4.70516e-08
1.12636e-07
1.78039e-07
1.60238e-07
9.44606e-08
9.24452e-08
9.28447e-08
8.54154e-08
5.65658e-08
5.62639e-08
5.62793e-08
5.62627e-08
5.62781e-08
9.0308e-08
1.17916e-07
8.84494e-08
3.75902e-08
2.48619e-08
8.42586e-07
3.38238e-05
9.09218e-05
6.89711e-05
1.78296e-05
2.53101e-05
0.000100324
0.000122395
6.45813e-05
1.05013e-05
4.70387e-07
8.84739e-07
2.18749e-06
1.70028e-06
6.25305e-07
4.01883e-08
0.000239994
0.00018493
0.000141073
0.000108466
8.36809e-05
6.51207e-05
5.19907e-05
4.23867e-05
3.46459e-05
2.72609e-05
1.99202e-05
1.33507e-05
8.22309e-06
4.80446e-06
2.84786e-06
1.92845e-06
1.60679e-06
1.82905e-06
1.93359e-06
1.77952e-06
1.27899e-06
6.78886e-07
3.30652e-07
2.32784e-07
2.0087e-07
1.68687e-07
1.28891e-07
8.58056e-08
4.56094e-08
3.86224e-08
3.66713e-08
3.53919e-08
3.00667e-08
2.62841e-08
2.17222e-08
1.98278e-08
1.91138e-08
1.92741e-08
1.96173e-08
1.92487e-08
2.04155e-08
2.22528e-08
2.15914e-08
2.04877e-08
1.91548e-08
1.77309e-08
1.73167e-08
1.77821e-08
2.01002e-08
2.29887e-08
2.29512e-08
2.21032e-08
2.14588e-08
2.13007e-08
2.11983e-08
2.12123e-08
2.12259e-08
2.12386e-08
2.1252e-08
2.12651e-08
2.12785e-08
2.12918e-08
2.1305e-08
2.13181e-08
2.13316e-08
3.31794e-08
5.13918e-08
7.47462e-08
6.51676e-08
3.61723e-08
3.13031e-08
3.13224e-08
3.45649e-08
8.81382e-08
4.57923e-07
8.55887e-07
6.54641e-07
2.03852e-07
1.18219e-07
2.7389e-07
1.26294e-06
1.39413e-06
1.01885e-06
5.97313e-07
2.70268e-07
4.36198e-08
2.1452e-08
2.20792e-08
5.16765e-08
2.66529e-06
3.14441e-05
3.51166e-05
3.67252e-05
8.58366e-05
0.000206137
0.000206148
0.000169215
4.56764e-05
1.24511e-06
1.36126e-06
5.03852e-06
4.86971e-06
1.84412e-06
1.06299e-07
8.82674e-06
6.57102e-06
5.12557e-06
4.14841e-06
3.49099e-06
3.0378e-06
2.60629e-06
2.0482e-06
1.36543e-06
7.66244e-07
4.03528e-07
2.61612e-07
2.26599e-07
1.93149e-07
1.27721e-07
5.34942e-08
2.12696e-08
2.46393e-08
2.98348e-08
2.92347e-08
2.55069e-08
1.90695e-08
1.29151e-08
9.16678e-09
6.68657e-09
4.44243e-09
2.55187e-09
1.17294e-09
8.96567e-10
9.63627e-10
9.08084e-10
7.93675e-10
5.04948e-10
5.50284e-10
7.07482e-10
8.30898e-10
8.31529e-10
1.69992e-09
4.74356e-09
4.20315e-09
2.42487e-09
1.25799e-09
1.21113e-09
1.211e-09
1.21113e-09
1.211e-09
1.21113e-09
1.2337e-09
2.2764e-09
8.21037e-09
1.93738e-08
2.11415e-08
2.11558e-08
2.11701e-08
2.11843e-08
2.11984e-08
2.12123e-08
2.12263e-08
2.124e-08
2.12537e-08
2.12673e-08
2.18156e-08
4.2146e-08
2.55236e-07
5.09735e-07
5.11989e-07
2.61467e-07
4.25441e-08
3.13403e-08
3.13317e-08
3.26524e-08
5.80107e-08
4.15335e-07
3.1301e-06
4.81656e-06
2.64085e-06