/*--------------------------------*- C++ -*----------------------------------*\
| =========                 |                                                 |
| \\      /  F ield         | OpenFOAM: The Open Source CFD Toolbox           |
|  \\    /   O peration     | Version:  v1912                                 |
|   \\  /    A nd           | Website:  www.openfoam.com                      |
|    \\/     M anipulation  |                                                 |
\*---------------------------------------------------------------------------*/
FoamFile
{
    version     2.0;
    format      ascii;
    class       volScalarField;
    location    "50";
    object      p;
}
// * * * * * * * * * * * * * * * * * * * * * * * * * * * * * * * * * * * * * //

dimensions      [1 -1 -2 0 0 0 0];


internalField   nonuniform List<scalar> 
14268
(
12433.7
12192.1
11949.6
11706
11466.6
11224.2
10977.9
10738.3
10495.1
10246.7
9995.82
9746.69
9498.59
9245.19
9020.16
8794.44
8576.39
8373.76
8213.87
8047.28
7801.91
7594.54
7347.31
7086.65
6828.49
6593.29
6245.18
5910.42
5607.87
5326.15
5177.99
5069.56
5006.87
4788.55
4693.37
4643.01
4630.14
4594.92
4307.23
3907.85
3653.73
3281.42
3089.37
2899.25
3087.28
2855.75
2258.28
1971.15
1865.26
1914.73
1998.72
1777.85
1586.79
1246.43
1142.02
1155.6
1282.63
1241.68
1132.77
1156.52
942.129
885.457
760.496
783.052
585.735
489.019
439.085
424.161
414.057
361.717
291.384
268.07
244.337
218.857
186.646
205.633
226.466
213.349
140.557
157.329
154.141
164.706
158.825
132.366
126.409
121.682
117.061
114.635
93.235
68.0936
56.0702
52.2514
48.9293
48.8586
38.8401
34.2007
38.4071
35.7438
30.0025
34.3242
35.1331
23.8963
19.8656
19.5741
12332.1
12090.5
11848
11604.5
11365.1
11122.5
10876
10636.5
10393.3
10144.9
9894.12
9644.94
9395.91
9142.28
8916.97
8691.02
8464.31
8263.86
8107.33
7932.04
7679.67
7472.93
7224.91
6990.02
6719.1
6435.75
6091.26
5756.18
5474.53
5235.31
5069.05
4906.14
4850.9
4641.96
4536.06
4503.7
4510.21
4478.62
4171.87
3766.22
3520.69
3159.04
3002.43
2810.96
2922.48
2661.32
2126.71
1906.28
1823.81
1851.55
1893.14
1703.53
1540.88
1205.25
1104.2
1102.59
1203.67
1158.19
1056.94
1085.38
868.584
843.17
732.24
746.476
563.911
466.448
418.379
402.191
394.391
341.402
281.176
260.321
234.031
207.805
175.138
192.763
214.428
200.46
132.147
148.985
148.694
160.663
154.601
128.054
121.444
113.363
106.014
102.673
82.4362
59.65
53.675
50.8222
45.907
45.3152
35.8544
30.3667
34.1467
31.459
26.7209
30.5584
31.1931
21.2387
17.605
17.3373
12230.5
11988.9
11746.4
11502.9
11263.5
11020.8
10774.4
10534.9
10291.7
10043.3
9792.49
9543.25
9294.57
9040.7
8814.25
8589.93
8364.82
8162.83
8008.24
7839.14
7589.47
7377.3
7133.25
6899.64
6634.63
6354.33
6009.04
5653.81
5376.83
5145.9
4997.99
4816.19
4776.4
4558.52
4451.41
4419.07
4432.46
4397.98
4091.04
3686.84
3447.3
3070.25
2924.81
2756.54
2824.7
2525.58
2090.2
1873.6
1781.77
1818.27
1838
1642.7
1486.53
1173.65
1073.88
1073.42
1157.68
1101.8
1006
1036.59
808.941
818.345
711.099
726.781
540.612
443.469
403.426
394.241
388.565
338.595
274.92
254.823
228.968
201.544
169.303
180.712
201.565
190.505
124.796
140.942
141.384
153.598
149.174
123.828
117.924
108.644
95.8223
96.311
78.0253
56.5546
52.5736
49.2998
43.9251
42.4309
33.1122
28.1017
32.5623
29.6369
23.5327
28.1705
29.3943
20.1584
16.6698
16.5969
12128.9
11887.3
11644.8
11401.3
11161.8
10919.2
10672.7
10433.2
10190
9941.57
9690.81
9441.5
9192.03
8938.07
8711.87
8484.43
8252.06
8055.09
7902.38
7732.68
7485.14
7267.56
7025.76
6791.97
6529.79
6229.97
5895.78
5540.01
5251.06
5047.09
4854.52
4665.27
4654.3
4439.14
4331.64
4300.62
4320.95
4308.06
4003.98
3587.92
3325.39
2949.53
2842.81
2684.96
2737.99
2387.63
1962.51
1816.47
1725.89
1789.37
1845.83
1587.03
1430.93
1147.32
1039.88
1040.28
1115.36
1064.72
966.607
1031.19
747.641
781.202
689.769
649.354
498.884
420.475
392.116
388.538
382.198
328.24
269.085
249.591
216.396
188.889
153.714
172.303
196.294
187.606
119.669
133.077
135.444
146.656
142.345
118.127
110.837
102.32
92.55
95.7763
77.8285
56.0312
49.0792
47.3843
42.0789
39.6179
29.7338
26.6947
32.0639
27.7823
21.5049
26.0785
26.8727
17.9106
14.4901
15.2313
12027.3
11785.7
11543.2
11299.7
11060.2
10817.5
10571
10331.6
10088.4
9839.96
9589.16
9339.78
9090.74
8836.81
8612.37
8382.34
8153.29
7952.26
7804.12
7637.02
7398.05
7185.14
6940.24
6692.82
6426.57
6142.16
5820.34
5471.77
5176.87
4968.93
4768.32
4602.06
4583.68
4357.14
4241.85
4210.54
4237.52
4225.64
3939.53
3515.65
3227.63
2813.74
2760.98
2639.3
2716.55
2406.22
1851.03
1771.27
1681
1758.27
1835.53
1582.72
1388.62
1122.9
1015.6
1011.74
1086.28
1035.18
956.193
966.513
672.995
731.345
671.778
657.095
503.597
401.427
379.76
380.537
370.957
320.29
255.155
244.923
204.348
165.526
134.514
172.796
202.633
187.961
117.748
125.493
131.197
149.631
145.815
112.615
103.87
97.8314
93.7623
94.8301
75.3512
55.169
44.6481
44.5272
40.7088
38.8194
30.5033
26.2166
29.9276
26.2929
20.5185
23.563
25.3418
16.4944
13.0601
13.8237
11925.7
11684.1
11441.6
11198.1
10958.6
10715.8
10469.3
10229.9
9986.7
9738.28
9487.47
9238.07
8988.48
8734.77
8511.74
8280.99
8048.04
7845.26
7700.77
7530.05
7292.03
7081.88
6832.83
6589.75
6303.57
6008.44
5707.44
5367.28
5091.78
4893.97
4711.01
4477.14
4469.12
4242.96
4125.92
4107.69
4125.49
4131.29
3837.79
3390.17
3090.93
2705.06
2677.12
2554.3
2692.36
2381.62
1889.02
1737.57
1629.99
1720.81
1773.44
1524.04
1325.81
1093.04
995.775
976.722
1046.31
1024.24
879.538
809.583
710.237
767.364
661.191
679.627
515.544
391.298
372.829
366.382
354.775
292.767
245.47
240.147
203.022
163.968
129.628
165.004
188.162
157.982
113.91
120.344
126.182
146.485
140.402
115.705
99.7398
87.8185
90.4055
89.1995
71.5134
51.2087
41.9293
38.4298
37.075
36.2965
29.2433
23.3011
27.7475
23.5745
18.5645
19.9026
19.6283
12.7025
9.42192
12.1426
11824
11582.5
11340
11096.5
10857
10614.1
10367.7
10128.4
9885.11
9636.66
9385.79
9136.38
8887.23
8633.6
8412.24
8184.66
7953.93
7745.28
7603.33
7435.5
7199.83
6996.56
6738.32
6500.49
6189.65
5894.9
5622.48
5287.85
5023.76
4810.51
4681.97
4449.06
4392.06
4148.29
4029.14
4027.21
4054.97
4039.92
3757.75
3299.1
2997.79
2665.25
2596.07
2484.73
2669
2387.05
1931.82
1718.18
1576.93
1662.7
1748.07
1504.02
1286.57
1065.68
973.821
937.921
1011.97
946.427
772.758
706.088
732.145
746.651
658.678
693.392
501.12
385.456
367.969
360.158
320.826
238.671
246.414
234.522
200.106
176.063
140.583
160.472
154.404
106.244
110.331
117.622
122.982
135.857
119.001
111.021
98.9432
82.7361
89.58
86.5901
68.5342
48.4636
41.4497
35.3103
31.8264
32.0124
27.4754
22.1361
24.9663
19.5208
15.6955
13.9221
13.0573
8.04444
5.99401
9.48689
11722.4
11480.9
11238.4
10994.9
10755.4
10512.4
10266
10026.7
9783.45
9534.99
9284.09
9034.7
8785.31
8531.7
8311.42
8087.12
7848.66
7642.91
7501.59
7332.48
7095.15
6891.42
6628.58
6412.17
6060.24
5750.85
5516.14
5186.34
4918.22
4705.13
4562.58
4343.5
4279.81
4034.73
3934.9
3925.78
3944.87
3934.64
3662.79
3217.12
2911.28
2613.68
2468.87
2432.26
2561.81
2336.6
1843.16
1668.01
1533.26
1540.12
1644.45
1458.21
1258.54
1038.86
947.536
851.949
897.089
674.612
587.303
740.461
721.152
603.586
641.243
671.433
487.394
378.963
362.344
338.764
257.338
233.635
240.93
226.304
182.279
169.757
135.99
153.983
109.528
97.6996
103.095
116.661
121.365
107.496
54.0618
93.9746
96.8972
77.1122
81.1062
79.2633
65.4541
38.7826
38.9
35.2807
23
24.6532
25.4735
16.5857
14.6478
11.8843
8.21445
-4.66828
7.53895
7.08989
6.66331
6.15162
11620.8
11379.3
11136.8
10893.3
10653.7
10410.7
10164.3
9925.12
9681.86
9433.35
9182.36
8932.98
8683.91
8430.39
8211.51
7989.97
7752.21
7545.07
7403.62
7233.37
7001.68
6801.37
6535.12
6330.02
5978.99
5669.14
5425.42
5100.26
4835.04
4596.11
4422.11
4301.04
4192.21
3947.12
3852.06
3838.93
3862.01
3833.86
3563.93
3149.9
2850.28
2565.82
2370.31
2397.79
2527.97
2254.62
1814.47
1631.32
1501.92
1532.14
1332.66
1409.89
1226.65
1006.35
927.333
812.315
707.881
528.007
481.065
816.214
708.693
512.687
643.25
662.617
462.564
374.076
354.119
305.96
268.766
254.321
233.549
221.691
139.729
170.501
135.768
144.608
67.8933
111.409
100.689
112.691
118.159
69.6219
33.6846
71.8307
95.0947
74.8885
44.2667
41.142
56.5547
37.8631
36.6368
35.4406
24.4844
12.5071
18.5164
4.84096
2.51593
5.00303
9.34725
-10.9265
-1.48363
9.81607
9.73159
8.37786
11519.1
11277.7
11035.2
10791.6
10552.1
10309
10062.6
9823.5
9580.21
9331.69
9080.61
8831.26
8582.13
8328.63
8110.5
7890.7
7646.18
7442.55
7302.18
7119.41
6897.67
6696.73
6434.93
6245.67
5923.62
5579.63
5318.63
4999.42
4740.39
4465.68
4313.03
4169.86
4066.67
3854.54
3764.69
3737.55
3741.73
3730.47
3448.08
3059.2
2760.6
2466.26
2342.29
2317.09
2406.12
2189.52
1711.29
1505.13
1472.44
1559.96
1258.52
1363.45
1183.12
897.694
899.438
841.077
603.926
595.626
455.968
847.869
691.872
534.478
599.166
641.416
323.834
370.318
337.724
279.421
301.452
272.604
218.669
195.156
65.7305
147.396
120.606
86.7382
23.5762
135.156
100.079
102.652
113.566
31.3157
47.3433
41.6269
95.8401
68.0613
-30.4851
-3.30679
55.0797
42.3011
35.3611
34.1204
26.9141
6.34106
-4.01343
-5.43549
3.69137
0.134172
9.47913
-6.53726
-10.3165
3.76206
7.33185
5.56206
11417.5
11176.1
10933.6
10690
10450.4
10207.3
9960.88
9721.9
9478.6
9230.04
8978.88
8729.5
8480.62
8227.47
8010.04
7791.2
7546.82
7343.48
7199.45
7011.52
6804.93
6604.72
6344.29
6156.61
5849.39
5497.53
5221.3
4898.7
4672.68
4345.24
4258.23
4088.53
3961.27
3771.7
3681.08
3651.98
3664.74
3645.91
3339.82
2963.17
2692.45
2392.08
2352.2
2167.02
1548.75
2146.75
1324.04
1296.31
1423.91
1602.17
1317.39
1406.53
1178.62
764.031
893.478
849.144
607.463
682.703
546.336
843.21
682.665
545.946
416.754
515.346
184.495
365.481
339.082
290.966
319.622
277.432
217.559
133.539
60.1952
72.7622
69.0714
41.8137
26.1619
146.807
99.6625
97.1402
104.854
25.5122
61.3137
31.4762
90.4266
56.6472
-28.8622
-4.44485
63.4118
45.6092
34.1549
32.9278
29.3796
12.0285
-3.79588
11.1679
19.3599
14.2745
7.77782
2.8147
-6.45356
4.90666
4.623
2.0945
11315.8
11074.5
10832
10588.4
10348.7
10105.6
9859.17
9620.28
9376.95
9128.38
8877.13
8627.78
8378.97
8125.85
7908.62
7690.31
7442.39
7239.99
7091.71
6898.82
6701.18
6499.96
6238.01
6061.76
5753.3
5407.06
5119.53
4786.9
4583.19
4304.26
4190.55
3941.02
3833.21
3680.72
3594.18
3559.67
3565.88
3551.41
3224.38
2872.45
2606.16
2338.55
2346.88
1767.66
594.746
1956.16
1223.22
1336.78
1417.08
1564.75
1345.3
1382.88
1146.2
796.61
845.401
818.719
622.956
807.685
593.586
805.836
673.982
563.641
392.537
293.702
162.235
363.867
341.738
280.551
317.667
262.793
217.389
125.914
74.0438
58.9472
89.3735
109.453
33.9569
145.281
95.984
100.014
84.0777
53.0875
86.9463
63.6228
65.4651
43.0221
-18.2272
20.9269
56.5655
44.4034
32.8403
31.7016
29.1209
19.3412
5.72334
14.3398
19.198
13.598
2.98925
-1.78466
-2.21297
6.28548
1.41245
4.13313
11214.2
10972.9
10730.4
10486.7
10247
10004
9757.47
9518.69
9275.34
9026.73
8775.39
8525.95
8277.2
8024.72
7807.58
7589.55
7343.55
7139.05
6987.22
6800.38
6604.84
6402.64
6125.3
5967.7
5653.05
5323.4
5022.9
4692.61
4495.25
4287.47
4114.82
3861.6
3745.59
3592.99
3506.83
3472.14
3487.63
3454.66
3115.95
2793.67
2514.36
2263.58
2300.27
1179.29
722.788
1386.27
1315.75
1472.67
1398.92
1541.53
1356.62
1352.41
1106.41
872.976
669.066
637.123
606.455
810.185
599.513
804.648
655.103
567.203
457.347
178.405
219.504
353.553
337.008
213.937
279.634
237.681
211.932
135.016
84.5509
104.433
106.641
110.995
41.0859
128.623
89.0554
100.057
99.9051
88.429
101.938
77.4266
31.7836
33.0377
-10.2906
39.0835
32.1977
41.1715
31.5648
30.4324
28.4765
23.5392
13.626
14.3152
14.252
6.76278
-2.14754
0.872794
3.18274
6.10189
0.930118
5.83734
11112.5
10871.3
10628.7
10385
10145.3
9902.26
9655.77
9417.07
9173.68
8925.05
8673.63
8424.07
8174.97
7922.97
7705.95
7488.03
7241.12
7034.1
6886.25
6700.98
6498.18
6291.78
5993.31
5870.77
5567.86
5232.47
4926.48
4600.92
4385.06
4212.05
4031.64
3679.28
3638.82
3485.41
3410.09
3381.02
3395.15
3370.81
3019.14
2697.78
2439.43
2166.43
2228.49
1219.05
853.707
978.634
1403.73
1465.18
1369.87
1490.95
1312.82
1287.43
1003.35
865.364
524.972
369.719
551.617
775.905
596.684
743.204
572.837
555.649
499.028
257.034
308.114
328.211
330.134
213.676
211.619
218.618
202.666
135.48
92.5736
124.835
98.8122
42.8438
58.1695
90.9166
79.4553
96.1323
105.578
107.693
100.646
72.8434
-8.62625
24.9792
-1.76745
20.2713
10.9438
36.4689
30.5124
29.4512
24.9206
22.2694
14.9229
12.5429
7.61482
4.48338
2.95375
2.5953
4.88232
5.61075
3.28425
5.81238
10960
10718.9
10476.3
10232.6
9992.81
9749.75
9503.2
9264.68
9021.26
8772.56
8520.97
8271.24
8021.51
7770.76
7553.86
7334.04
7091.53
6880.99
6737.8
6571.26
6344.78
6134.5
5814.58
5720.38
5455.72
5100.76
4782.31
4465.7
4222.51
4050.17
3912.83
3510.17
3494.26
3329.09
3261.17
3243.7
3272.79
3250.88
2874.55
2572.49
2314.1
2062.52
2041.71
1395.43
975.067
987.413
1580.16
1318.66
1311.2
1207.51
1244.44
979.468
606.024
735.14
558.08
370.257
626.345
748.348
579.271
339.321
336.129
536.943
500.029
413.46
351.732
307.905
320.986
254.101
171.277
215.455
190.791
130.084
102.561
127.278
90.0325
6.27218
62.7797
29.1123
60.2611
89.6976
94.3828
109.003
93.5279
74.0785
-13.1421
9.21996
10.8382
21.8647
16.0858
31.4698
28.5201
26.7349
13.9445
17.3596
11.2697
6.77504
0.902636
6.95938
3.31326
1.1139
4.06584
4.82841
3.07625
3.37348
10756.7
10515.6
10272.9
10029.1
9789.41
9546.4
9299.79
9061.41
8817.92
8569.19
8317.4
8067.78
7817.65
7565.71
7350.15
7121.55
6887
6675.55
6539.76
6374.98
6135.6
5924.44
5589.69
5493.47
5250.87
4916.83
4587.5
4282.09
4019.39
3823.97
3682.6
3331.66
3316.72
3127.8
3064.44
3052.69
3074.68
3020.3
2710.51
2373.99
2153.61
1865.06
1861.89
1697.33
1147.81
1050
1505.81
1328.57
1181.34
1095.83
1211.33
909.683
662.295
585.239
599.708
542.764
686.732
682.114
543.872
64.9651
258.377
502.739
479.95
476.913
327.326
309.916
291.834
254.413
203.75
219.764
184.395
111.209
92.0654
114.219
72.7175
39.2347
52.2478
33.0076
32.0916
78.8492
90.9542
97.9315
90.7337
70.1408
-1.53087
14.9426
36.1394
40.3591
40.4512
33.5599
21.7666
23.5066
13.0388
12.2712
0.471508
-4.42899
3.58877
6.88349
1.6491
0.0331026
2.55254
2.79654
1.48838
1.25985
10553.3
10312.6
10069.6
9825.74
9585.99
9343.05
9096.36
8858.21
8614.71
8365.86
8113.82
7864.42
7615.21
7361.46
7146.08
6911.18
6684.63
6475.26
6341.41
6196.33
5922.29
5747.52
5424.28
5281.74
5013.38
4734.05
4393.63
4105.15
3863.87
3544.17
3338.76
3225.18
3177.43
2969.95
2870.48
2872.68
2887.01
2806.19
2537.04
2228.81
1982.84
1483.88
1790.66
1781.13
1291.91
935.484
1375.84
1272.96
1080.21
1180.03
1159.29
1084.19
868.451
685.448
548.204
552.329
651.598
609.177
500.131
175.533
300.717
482.514
465.733
461.969
305.626
298.821
231.122
236.379
214.647
211.729
175.207
99.144
85.4738
110.618
74.0388
74.2435
64.4558
42.7094
30.6487
84.9654
92.4782
96.2267
81.4515
61.2275
13.177
34.8795
40.1429
39.0062
41.5199
30.4805
12.3228
17.8768
15.0945
12.33
6.01691
3.78384
1.54153
4.29295
0.838155
-0.793582
1.62182
1.23077
-0.39694
-1.17596
10349.9
10109.1
9866.08
9622.17
9382.57
9139.74
8892.88
8654.92
8411.41
8162.62
7910.19
7661.35
7413.78
7156.95
6940.99
6707.51
6481.4
6270.83
6143.58
5979.49
5694.11
5542.79
5265.51
5100.3
4774.28
4543.28
4194.93
3919.1
3708.94
3209.78
3003.58
3061.31
3012.79
2813.96
2692.46
2688.64
2680.44
2523.2
2019.75
1670.76
1406.58
1013.64
1599.71
1650.55
1408.85
745.098
1308.57
1171.11
1133.35
1211.89
1078.4
1053.14
803.876
654.893
429.499
439.805
414.127
304.554
353.835
223.36
337.294
432.264
436.186
373.945
279.517
282.271
191.248
192.471
223.852
192.534
169.671
91.8877
76.2557
81.5476
69.9533
80.2499
72.4321
50.3461
55.5766
81.8322
90.3361
81.3653
58.1194
49.7026
36.4089
41.6111
35.7994
36.4909
31.0825
27.4144
9.45565
1.68565
6.88832
4.93596
6.3981
5.67881
2.14702
0.59843
-0.781703
-1.74271
0.203674
-0.802952
-6.25479
-10.4841
10146.5
9906.15
9662.74
9418.79
9179.15
8936.37
8689.55
8451.63
8208.29
7959.45
7706.51
7458.34
7211.69
6953.86
6736.88
6508.09
6278.65
6068.74
5946.1
5768.68
5481.4
5340.08
5124.54
4929.73
4581.12
4352.8
4011.34
3753.01
3578.02
3063.02
2880.87
2931
2853.65
2645
2562.59
2524.42
2505.37
2116.2
1261.5
1015.01
1185.6
985.101
1303.37
1272.09
1357.95
760.044
1040.25
1048.74
1090.52
1134.85
960.264
978.297
669.036
544.714
386.741
272.213
213.051
224.733
388.88
264.009
336.087
258.928
394.518
153.567
231.913
240.346
182.208
142.276
218.345
169.896
171.401
77.3778
47.0839
11.6007
41.1848
62.89
65.1193
54.364
55.5088
79.2111
84.2024
29.6279
10.5508
52.4611
47.492
43.0336
33.1097
27.902
21.138
22.3421
12.0059
-5.24098
-4.51468
-0.0650846
3.99433
4.79374
0.85833
-0.0837316
-2.06224
-2.61064
-0.849348
-4.53894
-15.625
-18.9072
9943.01
9702.43
9459.02
9215.31
8975.78
8733.06
8486.24
8248.26
8005.13
7756.29
7502.83
7255.48
7008.08
6750.24
6533.03
6309.79
6075.72
5865.46
5748.04
5550.71
5278.92
5133.86
4959.14
4737.68
4421.59
4155.33
3833.25
3579.14
3408.87
3023.21
2805.46
2772.95
2668.41
2465.6
2463.54
2383.11
2333.4
2010.63
1109.13
918.923
1302.71
1214.53
1332.27
944.35
1349.35
848.701
619.77
803.064
977.431
977.943
877.022
825.893
493.565
422.271
409.504
283.025
234.835
297.092
395.655
335.216
313.183
127.693
328.929
154.693
170.922
184.278
162.208
127.818
196.309
143.08
158.842
61.6472
20.1699
12.0379
-22.6743
26.4881
51.6703
49.1572
35.761
71.6376
66.4447
-24.7955
-25.8881
38.8699
40.8048
35.9182
30.0789
24.8922
19.3574
14.5311
11.4419
-2.62961
-1.91452
4.26736
2.10074
4.08289
-1.19339
-1.20224
-3.79143
-3.33001
-2.05086
-11.6362
-21.3069
-24.1737
9739.56
9499.56
9255.64
9011.86
8772.41
8529.65
8283.02
8045.03
7802.18
7553.3
7299.22
7052.04
6804.84
6548.12
6329.82
6109.53
5872.24
5663.28
5546.53
5365.81
5104.94
4948.92
4780.6
4546.37
4263.32
3967.82
3663.88
3420.68
3261.67
2926.13
2696.91
2633.11
2509.28
2291.45
2344.29
2261.38
2181.13
1974.45
1089.02
932.875
1335.42
1286.39
1390.96
925.529
1353.3
881.821
611.544
596.41
845.43
884.903
807.615
614.609
222.551
343.128
387.119
279.022
259.508
268.983
372.467
346.683
291.006
168.565
204.615
184.633
163.009
160.369
137.254
136.158
179.541
131.296
143.682
60.4136
34.0377
24.3409
-25.1119
3.56738
43.3686
42.881
30.6626
51.1614
32.5691
-16.684
-28.4299
23.3488
28.95
30.3787
27.604
20.1634
17.8808
11.1157
9.18503
-1.35043
1.54301
4.52772
-1.30651
1.93137
-3.42955
-2.85602
-4.8252
-4.00236
-3.42011
-15.664
-20.1409
-24.5674
8513.89
8275.25
8034.84
7794.73
7559.21
7318.51
7073.43
6838.31
6598.71
6351.33
6098.94
5855.18
5613.89
5359.41
5145.68
4937.81
4727.14
4521.77
4408.53
4269.14
4079.54
3848.97
3672
3507.55
3280.78
2949.3
2691.92
2462.39
2166.69
2261.14
1971.88
1645.7
1772.66
1525.91
1647.5
1435.74
1155.7
1411.3
1490.32
1282.56
1170.22
1112
1092.04
1149.56
1086.38
1015.81
809.451
627.35
522.271
618.63
578.871
440.15
429.669
336.533
282.108
283.068
297.671
329.492
322.02
246.977
235.521
226.296
192.857
181.684
150.697
155.656
117.125
112.597
107.374
99.296
82.5606
70.0971
65.0391
44.6674
39.9468
30.9205
24.4532
24.1164
26.6775
15.0966
23.9495
25.3248
19.5655
20.2505
17.7788
14.0322
12.2921
8.91318
6.98687
6.11571
3.20642
1.02193
-2.85333
-5.88795
-4.57797
-4.48914
-6.44919
-5.99776
-7.74689
-7.91861
-10.1825
-13.0089
-13.2407
-15.5885
6279.11
6041.11
5796.73
5562.93
5335.93
5104.75
4875.69
4649.71
4417.84
4178.82
3938.28
3705.69
3459.39
3226.98
3015.9
2824.05
2635.82
2467.47
2352.16
2255.91
2144.02
2001.27
1844.96
1660.28
1431.53
1253.2
1108.3
1002.14
969.313
757.455
469.981
373.855
528.641
460.331
481.332
296.883
134.249
499.137
691.034
620.336
368.519
286.388
481.449
460.526
395.762
364.744
344.088
250.043
205.239
155.539
104.615
123.641
98.8217
85.9009
88.7126
69.5963
87.3361
96.2713
94.0114
79.55
81.4908
56.1719
61.4705
49.3776
52.2967
45.2399
33.6569
25.1402
30.2928
28.5237
36.5136
24.2671
6.38139
-1.40753
-6.10327
-3.08197
-3.17399
-1.31481
-2.34939
-3.91258
-6.52981
-7.30343
-4.29646
-4.39422
-6.64145
-7.11632
-9.64743
-12.6084
-14.5155
-13.8296
-12.0514
-12.8851
-13.9098
-14.305
-14.7363
-15.6178
-14.9593
-14.848
-13.0245
-14.0698
-16.4681
-18.3725
-19.03
-17.3045
4023.76
3805.76
3586.06
3370.02
3158.04
2946.08
2729.8
2520.75
2313.75
2100.39
1907.48
1723.06
1501.48
1318.93
1188.55
1059.97
995.569
871.439
793.494
700.387
630.375
556.877
501.313
406.965
288.981
206.157
147.536
162.312
173.32
96.7518
-34.8963
15.9642
96.1671
95.6431
90.5076
35.8921
26.9077
57.208
106.321
121.989
80.9001
67.4172
95.5543
128.686
205.475
159.38
112.486
92.1784
95.837
78.4601
21.6308
4.169
12.7651
20.2878
13.3231
6.1438
1.50528
-2.09078
15.6667
22.6655
6.13377
-4.26684
0.00323386
-0.506555
3.29136
4.98836
2.25409
-5.32086
-6.2944
-2.5998
-0.68553
-0.369066
-8.79544
-12.1092
-12.2776
-11.4486
-10.279
-12.6461
-17.3724
-21.3285
-21.2925
-16.2541
-11.9251
-11.5988
-14.2937
-16.5397
-18.2277
-20.2768
-22.5226
-22.105
-19.9314
-19.9778
-20.6719
-21.1993
-20.3094
-19.4169
-18.8971
-18.5169
-18.033
-18.1479
-20.1577
-22.634
-22.4842
-20.5141
1947.94
1764.19
1579.18
1435.51
1307.94
1158.12
1011.94
870.773
733.97
627.873
542.444
448.651
346.884
260.064
205.472
183.157
184.736
172.508
112.159
72.9065
58.9828
58.4476
46.9364
29.0203
12.421
14.3364
18.6959
23.9408
19.736
5.7241
-6.77901
-1.50095
10.2611
10.0412
1.72097
-13.9214
-23.053
-8.57897
5.69723
2.6168
-5.97144
-3.39312
6.90032
16.7254
9.41625
-16.0065
7.82523
19.5775
7.93385
-8.0078
-16.221
-9.94298
0.042502
2.3424
-2.81385
-9.05848
-14.9774
-19.4013
-18.4971
-13.8849
-15.8081
-17.467
-13.3746
-7.33986
-4.09723
-6.19067
-10.2585
-15.116
-16.1503
-13.7166
-11.6592
-12.1341
-15.4081
-17.0377
-16.6026
-15.2587
-14.4738
-16.3892
-19.1902
-21.1137
-22.0603
-20.7465
-18.2519
-16.3959
-16.6799
-19.3725
-22.6545
-26.0648
-26.5813
-24.5115
-23.5365
-23.5884
-23.2219
-22.8883
-22.4142
-22.0603
-21.9496
-21.7681
-21.2502
-21.3731
-22.8309
-24.3764
-24.4534
-23.6422
537.453
444.086
369.827
312.385
262.531
213.367
164.44
120.861
88.6366
69.1566
56.7883
44.6249
33.5195
27.4783
22.4926
20.5844
18.1957
11.5461
2.65894
-2.3199
-5.0201
-6.53276
-7.39178
-8.43861
-8.83753
-8.24764
-6.19982
-4.46654
-2.25749
-5.38889
-9.62975
-9.46492
-5.68165
-2.50681
-4.76979
-9.35806
-14.9153
-14.1915
-10.0955
-8.94562
-9.77183
-10.3678
-10.2268
-11.4251
-18.9056
-25.9962
-23.7548
-20.054
-17.451
-15.2328
-14.7963
-13.1037
-9.73658
-7.89624
-9.74011
-13.3208
-17.1211
-19.6934
-20.4245
-19.0431
-19.3698
-18.8454
-15.4994
-12.1361
-10.9475
-11.7324
-15.0584
-19.7754
-21.6385
-20.1363
-18.3746
-17.7267
-18.2968
-18.8111
-18.3195
-17.7425
-17.639
-19.0403
-21.2099
-22.8343
-23.3369
-22.1706
-20.5504
-19.8442
-21.0096
-23.8271
-26.3069
-28.0809
-28.4494
-27.4578
-26.4714
-26.0734
-26.2599
-26.3973
-25.6488
-24.8351
-24.2485
-23.9859
-23.8916
-24.123
-24.977
-25.8834
-26.3574
-26.1245
55.3063
41.4504
33.3127
28.0723
23.2059
16.7404
10.0439
5.13111
1.78223
-0.222375
-1.42039
-2.30079
-3.1806
-3.58377
-3.1087
-2.58564
-1.98619
-2.9599
-4.87951
-7.8951
-10.3901
-11.3519
-11.5724
-11.6517
-11.3058
-10.638
-9.37308
-8.20668
-8.03882
-9.22963
-10.315
-10.1915
-10.0718
-9.74848
-10.7999
-12.9665
-14.9352
-14.573
-12.3843
-11.3409
-12.6051
-13.4883
-13.4886
-14.182
-17.7663
-21.8045
-23.7742
-22.1791
-21.6075
-21.3544
-20.3316
-17.7209
-15.0767
-13.5379
-14.3711
-16.7155
-19.1045
-20.765
-21.1361
-20.3739
-20.3313
-20.7429
-18.3016
-15.7784
-14.5347
-15.6232
-17.7862
-20.2112
-20.9797
-20.4094
-19.5655
-19.4921
-20.2187
-20.8553
-20.9885
-21.0133
-21.6349
-22.652
-23.8106
-24.8544
-25.3643
-25.2694
-24.9478
-24.5233
-25.3143
-27.0732
-28.7157
-29.9101
-30.2491
-29.3129
-28.1631
-27.9269
-28.178
-28.2317
-27.7606
-26.9326
-26.4789
-26.3385
-26.4073
-26.69
-27.2948
-28.0128
-28.419
-28.5651
-0.690529
-2.66656
-3.86445
-4.75346
-5.49144
-6.26989
-7.08139
-7.8661
-8.51686
-8.69277
-8.50922
-8.28984
-8.1808
-8.01377
-7.64969
-7.49413
-8.06613
-9.06013
-10.2755
-11.5054
-12.1445
-12.5897
-12.7512
-12.7746
-12.7034
-12.575
-12.3914
-12.3734
-12.4864
-12.724
-13.5135
-13.8838
-14.1064
-13.6696
-14.0301
-14.9539
-15.9982
-16.1903
-15.6481
-15.7133
-16.4863
-17.2903
-17.9329
-18.899
-20.4169
-22.5012
-23.5939
-22.5891
-21.3677
-20.388
-19.6598
-19.234
-18.4871
-18.2735
-19.0394
-20.5373
-21.8362
-22.7118
-23.1499
-22.6677
-22.0148
-21.1744
-19.6693
-18.5168
-18.5117
-19.2668
-20.5607
-22.0253
-23.2869
-23.4225
-23.046
-22.8403
-23.0838
-23.3379
-23.5717
-23.9339
-24.4206
-25.2046
-26.1574
-27.1506
-27.7459
-28.0217
-27.8547
-28.1583
-29.0175
-30.0974
-31.2554
-32.1313
-32.212
-31.4861
-30.6069
-30.3409
-30.8396
-31.286
-30.8449
-29.6839
-28.9238
-28.7404
-28.8398
-29.2083
-29.7033
-30.2001
-30.5921
-30.8653
-7.65824
-8.31553
-8.82994
-9.06233
-9.26708
-9.6266
-10.1111
-10.6035
-10.8995
-10.9884
-10.9856
-11.0106
-11.1004
-11.2082
-11.3617
-11.5882
-11.9352
-12.2556
-12.9386
-13.5957
-14.2561
-14.7414
-15.0312
-15.2635
-15.4084
-15.4401
-15.3481
-15.2302
-15.3304
-15.5838
-15.9321
-16.1596
-16.4171
-16.5258
-17.0274
-17.8411
-18.6266
-18.8985
-18.6197
-18.6381
-19.1425
-19.8646
-20.5496
-21.2456
-22.3435
-23.6423
-24.6778
-24.6016
-24.2728
-24.3118
-24.166
-23.6157
-22.6846
-22.5714
-22.8544
-23.6919
-24.5344
-25.2442
-25.2719
-24.5846
-23.5553
-22.778
-22.2133
-21.7942
-22.0003
-22.5641
-23.4228
-24.3153
-24.9512
-25.0291
-24.8837
-24.9074
-25.2143
-25.657
-26.0624
-26.6062
-27.1607
-27.8178
-28.6831
-29.565
-30.2677
-30.7813
-31.2473
-31.8181
-32.493
-33.2977
-34.0308
-34.5533
-34.4905
-33.8283
-33.0595
-32.7553
-33.0283
-33.355
-33.0057
-31.844
-31.0415
-30.9139
-31.1652
-31.5627
-32.0045
-32.4333
-32.7575
-33.0724
-10.5943
-11.169
-11.6443
-12.0406
-12.4294
-12.8277
-13.2217
-13.5472
-13.783
-13.9488
-14.057
-14.1324
-14.2121
-14.3196
-14.4366
-14.5946
-14.941
-15.3991
-15.9631
-16.5736
-16.9954
-17.2672
-17.4604
-17.6169
-17.724
-17.7866
-17.8154
-17.883
-18.071
-18.3223
-18.6656
-18.9856
-19.319
-19.4451
-19.7859
-20.3031
-20.7703
-20.9912
-21.139
-21.3961
-21.9121
-22.5717
-23.2499
-24.0401
-25.0826
-26.148
-26.7474
-26.7651
-26.5232
-26.2608
-25.9485
-25.6817
-25.286
-25.2469
-25.5947
-26.2092
-26.7257
-27.2901
-27.2993
-26.6621
-25.9813
-25.2955
-24.8317
-24.601
-24.8403
-25.3437
-25.9677
-26.5787
-27.145
-27.4414
-27.5906
-27.7356
-27.9952
-28.3305
-28.6585
-29.1263
-29.6477
-30.3128
-31.0944
-31.9434
-32.7827
-33.5833
-34.4133
-35.0881
-35.6627
-36.3906
-36.8294
-37.0445
-36.8111
-36.1173
-35.4383
-35.0626
-34.9156
-34.924
-34.6138
-33.7887
-33.1943
-33.1962
-33.4975
-33.8343
-34.3059
-34.7263
-35.0342
-35.353
-13.8083
-14.2203
-14.6111
-14.9575
-15.2668
-15.5673
-15.8533
-16.1045
-16.3137
-16.4636
-16.5723
-16.6726
-16.7943
-16.939
-17.1361
-17.3639
-17.6714
-17.9774
-18.3661
-18.7549
-19.1312
-19.449
-19.7243
-19.9022
-20.0859
-20.2241
-20.3404
-20.4791
-20.6697
-20.8794
-21.1401
-21.3881
-21.6869
-21.9318
-22.3163
-22.8056
-23.2219
-23.5197
-23.7351
-24.0249
-24.4842
-25.0508
-25.6539
-26.3443
-27.1485
-27.8759
-28.5251
-28.7466
-28.7004
-28.5866
-28.4727
-28.282
-28.0383
-28.036
-28.2984
-28.7332
-29.1361
-29.4392
-29.4158
-28.9825
-28.4346
-27.9059
-27.4973
-27.3996
-27.5906
-27.9494
-28.4077
-28.8994
-29.3523
-29.6315
-29.7822
-29.9328
-30.1709
-30.5121
-30.9401
-31.4078
-32.0046
-32.6701
-33.4119
-34.2523
-35.1911
-36.2832
-37.4143
-38.2012
-38.7722
-39.4314
-39.6406
-39.6317
-39.2786
-38.4172
-37.6219
-37.0422
-36.5036
-36.3556
-36.1172
-35.563
-35.2544
-35.4041
-35.763
-36.1437
-36.5245
-36.8644
-37.1958
-37.4664
-16.4628
-16.823
-17.1677
-17.4842
-17.7847
-18.0813
-18.3685
-18.6161
-18.826
-18.9943
-19.1424
-19.2911
-19.4496
-19.6321
-19.8382
-20.068
-20.3457
-20.6761
-21.0368
-21.3997
-21.7025
-21.9605
-22.1687
-22.3656
-22.5477
-22.7045
-22.8572
-23.0288
-23.2393
-23.479
-23.7591
-24.037
-24.348
-24.6064
-24.9321
-25.306
-25.6463
-25.9333
-26.2212
-26.5786
-27.0329
-27.5724
-28.1617
-28.8239
-29.4986
-30.1018
-30.5839
-30.7675
-30.7758
-30.6898
-30.557
-30.4146
-30.2853
-30.3383
-30.5268
-30.8475
-31.1774
-31.4289
-31.4163
-31.1497
-30.742
-30.3384
-30.0413
-29.9612
-30.0951
-30.3534
-30.7434
-31.1639
-31.5396
-31.8315
-32.061
-32.285
-32.5493
-32.8981
-33.3122
-33.7815
-34.3554
-34.9776
-35.6761
-36.5266
-37.6535
-39.0872
-40.4394
-41.297
-41.8587
-42.4943
-42.538
-42.1927
-41.7881
-40.8324
-39.8227
-38.8598
-38.1696
-38.0733
-37.7537
-37.3359
-37.2673
-37.5777
-38.0111
-38.3997
-38.7548
-39.0843
-39.4408
-39.7582
-19.172
-19.4924
-19.8096
-20.1084
-20.3906
-20.6589
-20.9061
-21.1378
-21.3415
-21.5218
-21.6925
-21.8612
-22.0369
-22.2269
-22.4437
-22.6797
-22.9484
-23.2365
-23.5361
-23.8304
-24.11
-24.3636
-24.5939
-24.8134
-25.0048
-25.1951
-25.3814
-25.5798
-25.796
-26.029
-26.2792
-26.5367
-26.8368
-27.0964
-27.4204
-27.7775
-28.0992
-28.4087
-28.73
-29.096
-29.5233
-30.0089
-30.5324
-31.0925
-31.6471
-32.1499
-32.5216
-32.7316
-32.7967
-32.799
-32.7606
-32.7249
-32.7173
-32.8092
-32.9904
-33.2316
-33.4337
-33.5669
-33.5282
-33.3205
-33.009
-32.6994
-32.4917
-32.4564
-32.5812
-32.8239
-33.1286
-33.4717
-33.7893
-34.0673
-34.3118
-34.5467
-34.8119
-35.167
-35.5579
-35.9797
-36.5352
-37.1603
-37.8789
-38.8131
-40.1762
-41.8978
-43.3479
-44.2395
-44.9837
-45.5586
-45.4839
-44.8625
-44.1744
-43.1828
-41.986
-40.7525
-40.1484
-39.7961
-39.3871
-39.1449
-39.3129
-39.7862
-40.2332
-40.5949
-40.9381
-41.2513
-41.5433
-41.8246
-21.8234
-22.1068
-22.3909
-22.6668
-22.9379
-23.2006
-23.4516
-23.6835
-23.8954
-24.0918
-24.2804
-24.4682
-24.6628
-24.8708
-25.0909
-25.3275
-25.5746
-25.8418
-26.1175
-26.3888
-26.6447
-26.8828
-27.1033
-27.3165
-27.5145
-27.7156
-27.9151
-28.1243
-28.3469
-28.5853
-28.8409
-29.1063
-29.3888
-29.6633
-29.9678
-30.2914
-30.6038
-30.9151
-31.2468
-31.6094
-32.0146
-32.457
-32.929
-33.4187
-33.8776
-34.2977
-34.6227
-34.8328
-34.9309
-34.9684
-34.9743
-34.9754
-34.996
-35.0862
-35.2285
-35.409
-35.5783
-35.6835
-35.6501
-35.4963
-35.2766
-35.0547
-34.9115
-34.8958
-35.0118
-35.2218
-35.4825
-35.7738
-36.0613
-36.3229
-36.5687
-36.8183
-37.091
-37.4315
-37.8125
-38.2055
-38.7628
-39.4375
-40.2226
-41.2672
-42.8223
-44.6478
-46.1085
-47.1185
-48.0411
-48.4426
-48.2923
-47.5325
-46.5165
-45.3423
-44.0317
-42.7305
-42.1281
-41.5684
-41.1975
-41.1146
-41.4836
-42.0145
-42.4382
-42.7932
-43.1169
-43.4218
-43.7
-43.9837
-24.5026
-24.7724
-25.0429
-25.3078
-25.5656
-25.8125
-26.0482
-26.2717
-26.4807