/*--------------------------------*- C++ -*----------------------------------*\
| =========                 |                                                 |
| \\      /  F ield         | OpenFOAM: The Open Source CFD Toolbox           |
|  \\    /   O peration     | Version:  v1912                                 |
|   \\  /    A nd           | Website:  www.openfoam.com                      |
|    \\/     M anipulation  |                                                 |
\*---------------------------------------------------------------------------*/
FoamFile
{
    version     2.0;
    format      ascii;
    class       volScalarField;
    location    "70";
    object      p_rgh;
}
// * * * * * * * * * * * * * * * * * * * * * * * * * * * * * * * * * * * * * //

dimensions      [1 -1 -2 0 0 0 0];


internalField   nonuniform List<scalar> 
14268
(
7.21855
56.4797
98.289
128.526
148.101
155.71
151.417
120.059
79.5171
37.2266
-5.08809
-44.4504
-76.2447
-96.4299
-106.06
-117.785
-138.271
-181.648
-137.875
-105.544
-79.3753
129.919
840.456
757.359
1179.85
1197.93
1263.14
1292
937.856
917.58
1278.03
2470.21
2436.51
2298.06
2252.05
2184.07
2090.96
2119.68
2128.02
1798.66
1522.92
1286.84
1072.62
1122.76
1061.48
1511.44
1293.4
1314.73
1263.67
1407.91
1325.38
1313.5
1327.26
1610.7
1562.68
1601.28
1405.27
1242.35
1084.22
1088.88
1038.32
1120.87
911.362
756.914
916.013
863.04
723.95
678.814
775.237
794.98
823.753
646.576
834.838
892.399
878.466
605.137
575.734
595.852
637.612
682.051
666.799
639.565
450.14
437.682
469.556
461.825
304.807
245.859
229.726
225.156
232.326
290.458
339.392
325.327
254.377
240.97
243.811
242.901
380.579
379.08
366.672
144.07
108.385
111.857
7.43114
56.6777
98.4553
128.645
148.138
155.558
151.044
119.265
78.6872
36.405
-5.79983
-45.0863
-76.7768
-96.9049
-106.587
-118.459
-139.371
-183.096
-138.686
-106.323
-80.38
262.786
793.802
841.778
853.075
408.288
908.784
1258.64
1214.87
1166.32
1071.69
1809.14
838.128
1199.89
942.621
820.729
830.875
833.882
1852.07
2390.54
2176.31
1707.28
1421.54
1085.16
1344.83
1469.78
1291.52
1314.19
1255.38
1380.5
1169.26
1195.04
1277.59
1616.98
1590.74
1521.99
1330.93
1189.79
1067.34
1071.76
1377.55
1474.99
1143.36
736.649
885.615
1047.97
690.975
638.334
757.409
903.706
999.227
643.172
862.417
891.81
871.878
662.481
478.236
506.207
358.244
381.463
388.138
580.487
359.479
307.583
385.782
485.87
486.025
364.79
307.724
222.022
288.137
622.164
757.665
653.573
319.068
235.454
240.407
282.809
350.852
374.563
275.574
137.148
135.726
195.556
7.635
56.8789
98.6336
128.774
148.201
155.628
150.991
119.225
78.5968
36.3614
-5.90255
-45.2148
-76.9209
-96.9974
-106.603
-118.506
-139.539
-182.416
-138.343
-105.875
-77.6756
202.096
617.41
828.523
600.507
409.969
422.083
294.234
675.269
1380.5
995.247
805.434
175.788
193.839
247.38
1081.43
1912.09
1933.44
1357.26
1707.52
2221.48
2096.69
1164.21
1533.22
1312.04
1360.05
1457.67
1334.57
1414.03
1360.56
1151.9
1235.49
1302.11
1666.17
1706.91
1546.84
1336.82
1209.33
1250.42
1416.5
1453.99
1432.77
1530.53
733.177
1051.96
1523.03
795.781
635.659
650.245
917.085
932.079
909.943
862.462
865.174
763.276
531.142
431.878
414.188
314.81
360.749
378.832
422.875
312.982
267.612
266.586
359.969
488.019
514.521
507.308
373.702
367.008
735.571
783.491
801.339
761.353
429.866
407.273
230.017
210.581
247.28
265.04
157.869
173.885
222.13
7.8313
57.0864
98.8303
128.909
148.261
155.557
150.823
118.813
78.1331
35.763
-6.46782
-45.7365
-77.3392
-97.3499
-106.945
-118.865
-140.245
-183.965
-138.767
-106.255
-66.9847
127.204
285.08
798.255
602.781
570.36
439.094
-5.4684
10.2543
1339.31
1153.93
44.2432
116.9
102.216
1168.9
2808.91
2949.01
2804.6
1783.14
930.948
781.697
1329.06
609.553
1480.09
1022.61
966.513
1421.48
1420.34
1319.89
1252.08
1165.29
1214.65
1200.9
1470.84
1587.36
1636.19
1381.05
1176.81
1148.02
1446.69
1368.32
828.285
1549.31
818.285
1264.69
1530.83
1375.49
626.745
637.739
845.099
670.326
898.566
862.523
891.785
527.744
396.481
473.918
412.86
324.352
385.206
365.505
293.89
272.657
258.194
229.603
216.043
235.998
163.505
147.49
591.502
603.346
501.082
438.847
662.631
809.867
791.793
355.483
112.605
119.568
187.23
252.903
197.743
139.628
158.302
8.01687
57.3009
99.039
129.054
148.356
155.676
150.798
118.75
78.0384
35.7819
-6.50381
-45.8294
-77.4881
-97.4132
-106.987
-118.944
-140.543
-182.917
-138.409
-105.868
-19.5236
69.187
64.2043
664.523
454.28
251.787
219.966
24.9916
-47.4639
1102.11
1420
344.561
366.364
330.029
1806.58
2330.26
1160.85
2294.37
2861.17
2626.49
863.833
642.758
678.238
1377.93
501.195
964.149
1179.61
1496.41
1126.48
1125.96
1163.78
1177.81
1146.48
1542.44
1530.44
1783.4
1664.6
1381.85
1038.58
1465.53
1002.28
759.715
1044.7
1343.89
1452.72
1553.58
1511.25
663.624
628.198
756.101
648.396
554.841
691.341
891.976
371.311
333.118
475.082
364.233
374.607
660.895
295.365
250.452
222.817
320.148
258.28
166.514
146.266
107.468
89.5644
472.92
607.666
487.785
382.899
414.977
751.182
804.094
212.94
97.6763
91.4681
139.467
273.471
260.567
85.3149
61.3919
8.19007
57.5169
99.2488
129.204
148.446
155.683
150.725
118.517
77.7258
35.2642
-7.02654
-46.3303
-77.8887
-97.7628
-107.243
-119.192
-141.203
-184.605
-138.608
-106.224
-43.7514
1.07183
-63.2248
154.957
184.156
-25.8009
137.839
87.6897
-5.49735
862.409
2415.67
1575.21
1324.79
698.62
1620.79
465.121
-236.976
294.591
2655.57
2712.58
1242.04
690.727
801.113
778.183
475.29
1204.41
1194.43
1666.57
1145.93
1145.18
1168.42
1113.53
1151.36
1587.71
1516.15
1871.78
1779.23
1785.98
959.694
1031.62
768.299
742.848
775.633
1075.58
944.195
1564.41
1203.15
1234.9
1138.04
910.539
969.897
395.1
391.211
753.886
307.566
327.213
352.39
291.516
438.798
664.331
300.377
248.195
233.353
473.468
472.712
208.419
128.719
102.064
92.2263
325.671
609.558
438.767
367.445
326.463
428.329
591.291
139.949
98.3858
88.6093
124.294
261.599
299.857
137.673
57.8744
8.3631
57.7321
99.4675
129.374
148.572
155.824
150.739
118.453
77.612
35.2776
-7.06174
-46.4256
-78.0535
-97.8193
-107.303
-119.304
-141.659
-183.772
-138.359
-105.823
-61.097
-42.3331
-75.1104
-103.666
13.0676
-7.63348
115.395
956.333
860.92
615.996
2829.88
2763.32
2652.07
2476.7
2149.35
32.4456
-57.7749
-56.906
1364.31
2575.11
2496.67
1102.43
1576.24
786.592
572.579
1541.69
1394.9
1687.56
1162.34
1186.09
1175.13
1118.42
1242.65
1665.12
1685.2
1940.34
1578.28
1116.13
875.27
813.872
747.959
741.33
722.846
708.852
1029.26
1592.08
582.602
1103.86
951.722
1032.52
1340.47
386.683
292.986
423.869
292.146
323.892
303.878
243.188
588.593
607.395
524.53
244.516
279.502
678.472
699.027
340.791
181.825
140.976
107.74
260.56
593.748
276.651
220.989
204.106
207.736
287.004
229.396
247.022
125.814
94.0798
174.251
302.44
248.475
57.414
8.53168
57.9482
99.6937
129.544
148.687
155.904
150.735
118.308
77.3613
34.8343
-7.54953
-46.9353
-78.4806
-98.1787
-107.497
-119.52
-142.33
-185.127
-138.458
-105.848
-68.3085
-66.6264
-83.9775
-147.509
-95.0459
99.8096
83.0859
469.919
808.509
411.151
2728.96
1445.98
2209.25
2350.95
1386.58
236.959
1074.39
1282.6
164.035
1594.63
2308.79
2104.66
1887.34
968.629
634.457
1731.42
1670.3
1655.73
1201.86
1205.24
1162.42
1198.06
1304.05
1632.82
1745.96
1475.01
1122.19
1010.06
883.328
806.291
730.902
724.791
835.987
690.887
1420.88
1491.68
576.081
627.18
631.161
745.508
1364.69
379.298
288.401
286.2
287.566
321.74
301.045
255.884
543.685
395.767
803
245.417
299.507
439.95
222.504
440.1
312.845
255.077
126.78
150.097
326.282
145.569
134.267
144.367
131.682
114.16
318.653
401.556
137.224
67.0789
86.8202
189.714
158.446
62.7667
8.7007
58.1736
99.9363
129.742
148.846
156.071
150.788
118.264
77.276
34.8028
-7.61524
-47.0486
-78.6567
-98.2431
-107.593
-119.638
-142.871
-184.699
-138.296
-105.601
-72.2823
-77.1279
-78.0021
-133.049
-59.09
368.031
86.0999
-236.611
729.393
416.643
1448.53
404.248
1772.42
2214.32
464.205
891.984
1984.34
1852.86
376.463
-341.113
1365.98
2136.57
1818.26
1037.89
789.753
1763.38
1705.57
1614.95
1275.63
1205.21
1173.29
1211.46
1029.5
1328.47
1709.58
1302.7
1119.68
966.819
896.477
830.875
951.724
875.977
926.511
678.862
1455.28
812.657
561.401
535.326
545.555
603.613
1395.83
373.706
285.445
285.419
284.939
315.981
310.46
368.536
351.251
393.639
822.256
246.455
304.579
257.548
193.347
450.852
562.734
387.879
138.069
77.1083
105.682
74.9764
103.31
108.115
109.626
111.759
373.49
411.487
231.079
65.1608
61.4391
93.4192
123.041
183.659
8.86389
58.4003
100.184
129.932
148.984
156.211
150.854
118.189
77.0487
34.4635
-8.06422
-47.5681
-79.1248
-98.6056
-107.785
-119.828
-143.753
-185.648
-138.292
-105.434
-76.9544
-85.1333
-73.4411
-133.448
7.3954
788.432
161.038
-282.6
238.909
793.197
-24.5212
75.4428
874.662
432.178
325.576
1312.01
1829.95
1662.26
1661.92
-199.345
-21.9132
597.868
1346.51
1131.36
1133.88
1670.05
1654.14
1390.89
1276.69
1187.88
1120.73
1088.04
991.089
1268.2
1362.02
1239.68
1036.67
954.208
1305.16
1392.49
1390.61
1256.77
881.347
706.132
1486.03
828.788
560.903
522.48
541.992
501.509
1410.95
465.675
304.734
283.262
319.463
452.236
294.074
370.849
273.806
721.675
840.047
592.597
306.928
191.985
184.99
240.069
599.518
507.284
207.969
67.1344
61.3916
57.8393
150.351
195.771
130.929
136.167
313.675
361.855
349.282
116.141
59.3002
56.3903
123.817
256.932
9.02947
58.6371
100.448
130.157
149.174
156.414
150.941
118.169
76.9896
34.365
-8.19628
-47.7205
-79.3179
-98.691
-107.877
-119.946
-144.639
-185.702
-138.178
-105.139
-80.843
-90.1877
-41.6885
-131.926
75.0771
1188.48
177.374
-249.783
64.7103
1453.09
-119.202
329.868
785.118
52.9761
427.733
1688.1
1728.85
710.215
1192.21
-15.7259
141.16
138.784
490.663
1461.03
1333.5
1628.49
1588.92
969.463
1263.06
1167.78
1077.09
1043.71
950.671
1514.9
1320.97
1228.28
1193.06
931.839
1442.2
1519.87
1481.88
1438.93
816.208
827.852
1523.97
1521.71
545.879
734.665
533.371
618.287
1233.9
904.553
470.631
281.488
389.307
852.469
292.547
322.473
265.799
813.001
590.373
823.031
599.688
186.108
183.586
198.28
621.835
607.011
353.544
77.3345
59.3982
63.556
188.485
305.591
172.835
117.053
140.069
233.133
301.44
183.564
83.9772
62.5307
152.156
264.157
9.18757
58.8746
100.715
130.365
149.336
156.608
151.079
118.16
76.7884
34.0947
-8.55803
-48.2335
-79.8222
-99.0571
-108.087
-120.305
-145.725
-186.5
-138.025
-104.873
-84.335
-95.4926
-9.09665
-107.988
359.728
1216.12
216.331
-241.069
3.47886
1396.09
-15.9956
1286.17
1076.19
144.827
1034.71
1763.33
768.35
-137.789
-0.0849685
134.121
252.014
290.584
437.251
1543.93
1203
1339.51
1533.74
898.786
1250.28
1150.35
1036.24
1015.75
965.223
1572.45
1665.17
1356.59
1452.14
960.373
1427.77
1593.51
1176.63
1538.93
801.992
730.531
1563.08
1565.77
711.966
1115.74
533.274
1083.04
1157.74
1175.58
1500.14
276.775
412.766
980.964
313.681
218.991
310.733
824.639
303.921
839.376
815.623
179.663
213.414
195.213
632.438
621.923
524.798
139.145
76.0123
91.8311
307.41
427.871
109.314
69.9265
75.8222
159.581
198.651
193.956
179.087
96.8168
215.5
269.82
9.34965
59.1221
101.001
130.616
149.554
156.85
151.203
118.167
76.7403
33.9655
-8.77767
-48.4343
-80.0378
-99.1726
-108.177
-120.512
-146.649
-186.826
-138.005
-104.506
-86.2631
-98.8235
181.057
451.661
1319.4
1167.23
354.293
-207.797
-85.7033
1350.35
112.808
1582.41
1448.39
1323.98
1909.38
1760.32
-205.518
5.12256
97.2747
230.338
374.341
727.519
1477.58
1516.5
686.519
511.828
1131.16
962.342
1235.28
1136.3
999.922
1002.99
1027.38
1667.76
1453.42
1552.69
1685.21
1204.6
933.075
1154.93
923.839
1466.8
937.073
725.659
1596.12
1616.7
1072.33
1150.6
514.995
1397.42
1463.78
1270.75
935.07
458.131
382.42
1011.86
470.899
217.194
325.488
827.746
269.164
854.698
825.697
266.615
387.077
218.369
652.946
638.45
630.988
384.614
186.737
160.83
380.835
492.693
128.211
54.2184
62.1492
77.209
184.317
296.217
246.894
136.097
102.391
182.145
9.50418
59.3693
101.284
130.844
149.741
157.099
151.413
118.224
76.5784
33.731
-9.09791
-48.9334
-80.5637
-99.5301
-108.419
-120.854
-147.728
-187.153
-137.616
-104.14
-88.0369
-101.322
461.895
1193.75
1256.84
1105.96
383.095
-200.825
-219.157
1134.48
1002.31
1408.69
1071.49
1848.89
1788.55
1635.02
-102.841
66.9059
170.706
296.291
598.391
1317.76
1639.19
1588.53
748.246
513.155
822.733
1002.62
1221.78
1104.99
1012.99
992.607
1097.91
1340.64
1196.69
1712.75
1099.04
954.719
876.522
828.16
895.99
813.56
1017.06
1201.85
1638.74
1643.06
1435.4
757.756
1065.11
864.8
1484.73
1352.81
353.591
389.396
380.055
1034.07
929.265
212.526
360.397
836.733
255.08
854.095
797.199
400.81
604.601
209.753
415.868
653.715
646.934
574.311
331.394
182.499
436.157
501.068
202.333
51.7982
59.7765
62.0216
167.768
318.767
298.207
95.5878
95.4434
107.888
9.7445
59.7574
101.746
131.257
150.111
157.516
151.667
118.276
76.4948
33.5305
-9.48513
-49.347
-80.9912
-99.762
-108.553
-121.243
-149.189
-187.478
-137.327
-103.18
-88.0249
34.128
590.153
1229.82
1166.57
886.001
572.108
5.55458
-189.36
243.517
1208.93
627.905
292.017
1047.89
1035.79
978.755
36.7273
191.568
326.641
486.964
685.674
1529.89
1488
1516.81
1168.92
772.631
1001.39
1069.12
1172.13
1176.97
1142.98
994.779
1142.7
1087.53
1097.13
1704.86
1110.31
1037.2
1140.28
844.09
1253.3
816.529
1008.02
1331.75
1019.4
1519.41
1542.9
512.309
1364.32
732.863
1528.54
1131.74
256.017
279.434
378.908
1057.86
1067.59
450.58
558.611
524.265
246.586
322.804
322.733
526.778
722.148
317.147
259.437
505.866
290.714
157.577
127.603
168.026
288.562
312.684
315.383
50.9707
58.0885
55.3773
87.6588
224.212
305.55
88.74
91.8207
94.7826
10.0535
60.2804
102.356
131.764
150.572
158.224
152.294
118.585
76.323
33.0651
-10.1374
-50.321
-82.0371
-100.486
-109.111
-122.22
-149.696
-174.146
-133.799
-100.978
-90.0914
424.576
239.44
176.525
1080.35
399.392
1339.26
750.18
-84.3964
-113.171
889.694
-21.0723
58.3791
116.481
499.509
212.986
161.265
356.78
570.199
702.672
796.04
1085.13
831.008
1115.49
1197.92
992.746
1239.67
1221.49
1102.38
1301.12
1006.63
1075.77
1155.67
1033.94
1199.13
1529.12
893.291
893.472
1527.56
1536.89
1315.03
771.867
874.715
1259.44
826.346
790.721
806.707
476.574
1117.96
771.548
1573.01
802.144
241.157
265.243
678.006
1077.94
893.206
522.49
757.072
846.773
345.578
182.45
148.136
443.185
754.015
502.148
244.868
235.165
200.749
140.359
126.09
131.26
228.13
242.281
318.421
54.0173
55.0483
52.9039
50.5059
94.6037
281.07
263.276
216.405
260.208
10.3511
60.8236
103.05
132.396
151.165
158.861
152.87
118.791
76.2144
32.8763
-10.6556
-51.0289
-82.7974
-100.904
-109.258
-123.229
-138.276
-107.188
-123.141
-94.6361
-92.2575
373.788
-16.3194
-111.12
873.825
404.538
1387.33
1334.81
272.595
-43.8037
98.3334
-144.823
-47.7487
-11.6982
591.431
87.6898
362.384
615.173
812.391
964.919
947.539
708.251
497.387
1174.72
1230.56
1258.54
1423.77
1420.65
1339.65
1128.3
980.162
1129.11
1003.6
983.379
1400.24
1265.15
1289.35
1398.51
1050.42
1571.06
796.596
748.88
830.068
748.332
1198.29
782.442
1387.78
482.197
505.464
1209.61
726.074
608.959
413.276
558.744
1014.81
1083.64
401.592
233.875
790.528
849.432
474.299
175.345
142.944
590.402
788.545
744.28
240.925
137.209
137.453
135.072
195.17
218.01
149.424
170.01
258.281
127.238
74.7419
52.5906
48.318
66.6309
250.139
295.427
302.257
306.898
10.6674
61.3747
103.707
132.973
151.77
159.993
153.819
119.39
76.182
32.3626
-11.3857
-52.0339
-83.8891
-101.698
-109.982
-124.708
-113.725
56.299
-99.0016
-80.2099
-92.5517
230.502
-103.709
-33.5894
-13.1838
274.939
1149.87
1158.92
998.979
48.1729
43.7351
-18.6618
141.453
283.858
567.74
213.199
472.045
586.438
732.235
914.822
943.883
849.003
1050.69
1499.34
1194.56
1318.98
1309.45
1482.24
1293.69
1018.23
1116.96
1093.7
751.896
1015.64
1585.77
1255.13
1438.07
1493.79
725.353
1620.6
777.852
1140.31
811.972
723.187
1541.78
1218.82
1312.99
526.082
586.648
1373.99
414.087
447.375
385.871
971.806
1019.46
814.006
229.207
198.695
787.769
862.373
602.024
169.434
141.217
775.456
823.863
813.202
760.826
203.655
134.597
150.207
246.095
249.182
135.359
92.3676
178.315
185.255
113.997
51.8631
46.5466
50.194
185.751
247.447
56.4551
150.879
10.9247
61.9308
104.454
133.669
152.453
160.622
154.661
119.75
76.1639
32.3021
-11.8365
-52.8313
-84.7874
-102.209
-110.318
-126.039
-103.712
206.43
95.1997
-57.6706
-84.5031
-105.084
-78.3877
364.566
-195.909
-197.218
-170.167
1030.13
1254.32
146.405
139.669
180.42
706.66
863.832
570.421
385.661
558.127
662.043
811.909
979.7
986.308
1134.39
1391.72
1424.02
1156.88
1155.21
1171.49
1244.47
1058.29
958.069
1052.15
888.974
712.337
1077.41
1688.87
1771.76
1615.6
1657.19
697.76
796.065
842.09
1342.39
1154.75
1312.02
1617.4
573.626
549.608
584.137
1453.37
1442.61
409.513
395.465
262.518
588.282
530.693
545.19
224.717
201.291
624.646
872.13
715.762
166.093
178.727
811.437
609.679
836.565
623.34
312.144
240.489
213.545
253.804
198.457
74.1453
60.3008
153.551
191.838
178.244
73.3405
45.1177
42.3164
90.2422
114.899
56.5794
87.5669
11.2512
62.4968
105.152
134.318
153.265
162.355
156.085
120.707
76.2525
31.7094
-12.5758
-53.8491
-85.9198
-103.086
-111.346
-127.607
-144.617
59.208
342.583
58.1545
-67.0659
-193.854
-29.7107
680.958
-125.165
-170.494
-391.786
103.58
1040.3
380.712
236.981
483.9
607.66
905.758
563.003
497.621
668.897
781.587
915.597
1062.37
1100.69
1311.21
1306.93
1174.49
1129.2
1224.37
1142.39
1100.2
1048.54
1149.43
927.763
905.752
698.209
1196.22
1625.68
1709.33
1742.66
1773.97
658.758
572.489
1342.92
1406.93
1417.05
1442.45
1046
532.092
535.171
556.531
1125.79
1199.16
446.972
360.6
244.937
254.418
247.476
318.439
242.976
463.921
424.237
885.442
803.442
205.82
203.946
573.53
368.579
548.889
344.276
170.723
160.509
217.751
160.497
87.5088
56.4348
43.1921
111.481
180.243
183.016
148.217
77.3328
49.1121
48.3704
50.2301
62.3862
69.4057
11.4772
63.0786
105.958
135.075
154.042
162.932
157.077
121.237
76.5429
31.9006
-12.9225
-54.6491
-86.8982
-103.715
-112.055
-128.121
-147.862
50.9711
337.453
261.044
-24.3588
-169.372
-11.8189
671.815
-71.2316
-80.3614
-314.224
3.70523
912.372
859.602
427.311
730.023
627.364
926.266
584.816
644.187
776.144
864.268
1003.89
1175.51
1219.12
1373.34
1201.56
1038.64
1116.54
1236.09
1216.4
1077.09
1030.32
1191.9
1046.51
1003.09
691.699
1311.77
1511.61
1607.48
1828.34
1694.3
793.093
559.183
1366.61
1442.62
1495.24
1187.36
671.279
530.316
543.226
823.145
821.292
747.384
491.275
447.601
314.592
250.295
282.372
303.165
473.085
503.71
351.366
724.274
827.69
353.389
217.431
219.353
238.232
265.956
157.548
116.23
136.743
171.397
87.5769
78.0417
52.3166
37.6992
75.6126
152.355
191.405
184.586
116.282
57.5619
47.97
49.0045
120.09
69.4694
13.0337
65.9795
109.983
139.459
160.645
177.408
168.978
128.387
79.0034
33.4675
-8.02075
-50.4759
-84.1566
-100.712
-109.027
-93.7244
-19.0527
39.7161
-19.5092
-35.8118
-45.2856
-6.23274
39.9561
194.876
314.817
183.878
284.875
350.378
379.237
690.145
780.91
876.963
1014.15
972.491
910.851
1074.59
1277.47
1325.03
1475.66
1536.17
1459.1
1272.36
1349.53
1412.16
1170.62
1173.88
1234.67
1093.42
1130.12
1464.24
1270.91
1269.72
850.028
1550.98
1299.29
1515.12
1459.84
832.756
1018.14
621.468
931.161
1110.09
1188.12
728.331
655.073
572.107
799.521
1000.65
895.622
438.311
421.76
479.611
484.337
425.308
453.879
353.194
509.901
408.225
354.695
446.242
414.229
381.479
287.257
164.81
197.874
193.338
99.8042
75.7574
97.8672
102.655
67.472
65.922
53.7865
36.365
67.2313
158.675
205.164
214.753
181.074
72.2288
47.3571
90.0215
126.912
132.355
21.1709
83.7367
133.379
170.65
205.5
225.042
216.442
186.898
155.189
113.4
54.1364
-7.3173
-49.0365
-45.053
9.84121
84.9747
137.529
163.339
209.197
345.726
469.857
517.278
543.252
573.471
590.5
708.453
937.62
975.332
969.63
1021.83
955.822
955.376
927.084
1049.57
1090.11
852.751
781.864
778.128
1065.54
1240.16
1043.09
1041.33
1227.31
1202.3
1113.49
1322.54
1366.08
1332.74
1234.11
902.621
855.603
1087.9
1028.19
546.139
504.526
697.034
445.608
415.963
328.252
309.326
253.474
278.201
276.6
428.991
424.078
541.484
521.514
734.627
756.248
516.196
246.74
348.443
405.943
429.795
402.652
418.433
406.365
356.436
351.287
314.944
258.58
176.186
133.805
105.893
106.538
145.016
81.4085
34.2435
33.45
53.8524
34.1202
32.4789
35.4476
39.8386
45.7997
46.0884
28.352
11.3844
9.28918
26.7037
47.9072
46.3134
16.3319
20.2336
39.9056
101.096
163.173
223.599
260.03
278.376
268.173
243.018
257.647
321.951
365.544
378.371
394.757
427.316
495.892
581.054
647.508
665.815
675.494
705.578
744.84
745.463
685.71
621.908
566.458
484.343
478.092
431.777
395.126
383.244
332.186
296.913
263.97
269.522
177.426
159.011
173.799
167.948
174.364
189.805
221.468
297.548
299.145
271.239
320.216
541.137
982.708
914.49
473.579
227.175
193.795
192.64
170.453
91.5892
94.7882
129.083
115.113
123.369
114.574
86.5099
61.5436
63.2166
73.9698
102.624
89.2454
125.667
162.216
224.948
276.81
208.678
173.506
120.369
49.0968
36.2484
50.6514
157.671
208.116
199.341
108.895
58.6144
96.0064
163.451
169.508
134.149
62.915
58.9479
57.3862
30.2685
28.6089
55.0456
60.7794
38.8021
14.9932
13.1229
13.3622
24.9529
31.3678
21.2687
5.53339
5.26568
7.80079
4.1224
1.75747
2.50816
277.105
378.128
480.626
561.225
583.778
584.266
571.159
627.43
726.559
767.732
724.971
638.693
554.252
484.045
427.24
385.642
354.1
324.244
291.012
263.385
237.232
211.318
182.114
151.498
124.287
105.436
92.704
82.8403
65.9755
53.4894
47.5416
41.1572
43.7699
34.8868
21.9496
17.8658
21.9923
27.4116
22.7043
16.74
13.5836
13.8226
17.3649
22.17
26.6593
45.1253
120.842
113.455
93.9955
65.7756
40.5324
23.0185
11.4845
5.38096
1.50907
-2.59025
-0.925202
8.07213
17.9169
13.2568
5.90002
2.65322
5.2387
6.51026
7.07889
9.21077
9.57259
7.66217
11.2979
16.5983
43.166
39.3613
41.2353
31.407
15.7841
5.9525
3.12149
4.86499
6.92292
8.94196
10.7105
12.1707
18.7912
56.5933
65.667
65.039
41.8266
14.5598
8.2077
8.64251
9.37755
26.9284
22.0477
9.97415
2.56063
0.102542
3.90361
17.4195
22.365
20.6735
6.80551
-0.169644
0.930788
2.42939
739.878
762.024
772.53
746.409
679.169
596.171
503.506
398.509
311.235
238.528
182.186
143.004
112.42
92.1786
75.9223
65.5058
56.4627
48.5046
41.4658
35.8415
30.6318
25.5471
20.3808
15.6134
12.52
11.0289
10.4278
11.0182
8.56276
4.80941
2.93569
3.03167
5.34754
4.75085
1.75903
0.285474
2.38802
5.29165
4.53581
2.77607
1.27362
-0.607158
-2.09897
-0.253442
3.50618
3.88307
0.49447
-0.862872
0.144986
1.3233
0.716712
-1.11846
-2.38563
-3.43404
-2.62402
-3.70874
-2.63574
1.7808
4.45418
2.3729
-0.882391
-2.65333
-2.1419
-1.19167
-0.416384
2.34236
2.21428
-0.0718837
-2.06934
-0.651685
0.929326
-0.478192
-1.13298
0.176439
2.0926
1.08627
-0.165971
0.250843
1.15677
2.21017
3.05484
3.29969
2.93117
3.23907
4.95807
10.4346
12.2318
7.6991
1.79246
1.11039
5.17159
20.7404
22.2227
16.6979
3.78718
-1.2825
-0.20058
1.21156
3.57531
12.7762
13.3195
11.3464
3.57417
0.696108
261.789
247.526
227.52
199.867
168.386
135.08
104.174
77.4369
55.9185
40.3222
29.0952
21.2999
14.9412
11.3107
9.3864
7.88603
6.46955
5.12164
3.73341
2.65092
2.09895
1.79801
1.5195
1.13323
0.823845
1.38333
2.59487
2.70617
1.59905
0.435045
-0.392192
0.202208
1.11696
1.08072
-0.132081
-0.242095
0.716285
1.43911
1.05618
0.0707805
-0.812127
-0.929939
0.0647626
0.891631
2.35332
3.03338
2.906
-0.105199
-1.00674
-0.327582
-0.651677
-1.62746
-2.33599
-3.06334
-3.65769
-4.16209
-3.37853
-1.27944
0.968858
0.790968
-0.67515
-2.01336
-2.28157
-1.7843
-1.21241
-0.354762
0.488136
-0.217976
-0.690421
-0.236121
0.299785
-0.544932
-0.827357
-0.396025
-0.320626
-0.329687
-0.360506
0.0994377
0.768975
1.44936
1.99299
2.44572
2.30389
1.56775
1.1051
0.522737
0.416632
0.601468
0.368747
0.390212
0.852097
0.693033
0.803553
1.06476
0.646306
-0.654584
-0.978523
-0.269648
-0.140103
0.294339
3.60831
10.339
11.1043
8.75927
36.5248
31.6757
26.349
20.925
15.182
10.1936
5.84124
3.77424
3.5589
3.68286
3.84858
3.5028
3.05804
2.57807
2.42814
2.11626
1.64523
0.999154
0.365994
-0.0969343
-0.227765
-0.245765
-0.318812
-0.419655
-0.374122
-0.172966
0.0371456
-0.0270829
-0.140048
-0.651996
-0.864372
-0.826233
-0.62427
-0.604738
-0.868258
-0.852157
-0.506115
0.0084817
-0.0704759
-0.460925
-0.858064
-1.02689
-1.53912
-1.57677
-0.662257
0.724308
1.6206
0.788755
0.338424
-0.260119
-0.79522
-1.22959
-2.00786
-2.95392
-3.4147
-3.77269
-3.44188
-2.03216
-0.957216
-0.794354
-1.39468
-2.15588
-2.62006
-2.82072
-2.53826
-2.08742
-1.19656
-0.760444
-0.428454
0.168758
0.949811
0.55153
-0.0773966
0.0150115
0.126845
0.0944557
-0.0692535
0.0244136
0.335241
0.75511
1.08191
1.20704
1.01777
0.758778
0.677002
0.353892
0.0261901
0.0732596
-0.275998
-0.447244
-0.858594
-1.12386
-1.47018
-1.75121
-1.96743
-1.9205
-1.67146
-1.33191
-1.21418
-1.30953
-1.0385
0.279101
3.92342
7.09594
2.86045
1.81679
1.05385
0.386208
-0.329802
-0.844098
-1.35247
-1.18232
-0.44603
0.32529
0.880929
1.12493
1.05509
0.844954
0.587324
0.31796
0.0597617
-0.212963
-0.458978
-0.651804
-0.761662
-0.813931
-0.79781
-0.770329
-0.678257
-0.531972
-0.325637
-0.205046
-0.274409
-0.483659
-0.620169
-0.540578
-0.385994
-0.265528
-0.418678
-0.414312
-0.187476
0.000655127
-0.0947913
-0.415964
-0.725493
-0.820814
-0.658888
-0.394278
0.0595217
0.761703
1.05737
0.597207
0.0924076
-0.247961
-0.682965
-1.13128
-1.77952
-2.54804
-3.02409
-3.28576
-3.16955
-2.22757
-1.596
-1.35457
-1.61587
-2.11154
-2.63189
-3.06455
-2.96492
-2.25219
-1.52628
-0.66936
-0.133724
0.54994
1.27359
0.693709
0.193925
-0.00773536
-0.146825
-0.280734
-0.344257
-0.209215
0.0633264
0.3567
0.633928
0.685564
0.656931
0.421134
0.270652
0.0628614
-0.132524
-0.235778
-0.41252
-0.687374
-1.06577
-1.35518
-1.75396
-2.10185
-2.33423
-2.4186
-2.23432
-2.02471
-1.73604
-1.5502
-1.32423
-0.970726
-0.140516
1.74894
-0.120749
-0.511882
-0.75804
-1.00444
-1.28536
-1.52948
-1.5904
-1.37681
-0.956195
-0.48602
-0.119304
0.107271
0.181147
0.171237
0.144756
0.0802275
-0.0473887
-0.221054
-0.420707
-0.578576
-0.660623
-0.679684
-0.669512
-0.650373
-0.607744
-0.531128
-0.464872
-0.489795
-0.53114
-0.627286
-0.674778
-0.672829
-0.631793
-0.628392
-0.641983
-0.59633
-0.501915
-0.406777
-0.452053
-0.564337
-0.680061
-0.7407
-0.804906
-0.619524
-0.262507
0.273917
0.60687
0.517109
0.232719
-0.0205279
-0.429058
-0.969697
-1.48856
-2.09012
-2.61666
-2.86153
-2.78189
-2.42841
-1.97687
-1.74801
-1.84541
-2.18406
-2.63371
-2.94365
-2.90895
-2.58861
-1.78136
-0.839583
-0.107636
0.552305
0.82543
0.59298
0.392451
0.154733
0.0458401
0.0196587
-0.0492344
-0.0351851
0.0603412
0.185014
0.318129
0.322719
0.187969
0.0606617
0.00289979
-0.142743
-0.239291
-0.298558
-0.552571
-0.864589
-1.14239
-1.55734
-1.93893
-2.29074
-2.601
-2.73005
-2.68812
-2.57402
-2.2569
-1.94068
-1.63234
-1.16649
-0.549579
0.118795
-0.456949
-0.774998
-1.04505
-1.25044
-1.42256
-1.45936
-1.41268
-1.22091
-0.907313
-0.545053
-0.225027
-0.0241699
0.0706015
0.080223
0.0362763
-0.0458689
-0.163284
-0.302179
-0.429162
-0.525391
-0.581719
-0.601936
-0.597616
-0.58213
-0.543715
-0.499623
-0.453333
-0.375749
-0.368613
-0.397252
-0.413333
-0.379858
-0.339194
-0.281372
-0.286186
-0.2696
-0.214217
-0.190788
-0.230295
-0.353966
-0.467442
-0.516551
-0.494963
-0.356511
-0.120844
0.201464
0.420055
0.412855
0.230865
-0.0464976
-0.427987
-0.848445
-1.3119
-1.80881
-2.20875
-2.40919
-2.34788
-2.09084
-1.82253
-1.70389
-1.76928
-1.98516
-2.28307
-2.49158
-2.53411
-2.25473
-1.65451
-0.937863
-0.287896
0.271149
0.461195
0.531901
0.487003
0.284502
0.163809
0.0747209
-0.00286905
-0.0168026
0.034672
0.0750641
0.148457
0.155882
0.0962492
-0.0125763
-0.113516
-0.223881
-0.30909
-0.419699
-0.638194
-0.911066
-1.24068
-1.59704
-1.94346
-2.35642
-2.7368
-2.94095
-2.97747
-2.88617
-2.61445
-2.21532
-1.79708
-1.27651
-0.651058
-0.022684
-0.424496
-0.652139
-0.811885
-0.926941
-1.00288
-1.05009
-1.02584
-0.889262
-0.680709
-0.452247
-0.259512
-0.128593
-0.0652381
-0.0460733
-0.0616701
-0.10148
-0.161233
-0.245688
-0.32311
-0.388796
-0.433134
-0.454521
-0.461532
-0.460739
-0.446672
-0.427578
-0.40971
-0.407247
-0.427286
-0.45641
-0.467737
-0.462639
-0.454704
-0.446328
-0.437978
-0.414188
-0.393745
-0.378235
-0.39847
-0.434495
-0.46335
-0.465171
-0.415198
-0.292681
-0.0967732
0.139685
0.289485
0.292186
0.149668
-0.0989721
-0.432793
-0.799795
-1.19936
-1.60054
-1.93786
-2.11869
-2.13049
-2.03322
-1.89952
-1.86031
-1.90904
-2.07432
-2.28297
-2.36183
-2.33157
-2.05521
-1.54191
-0.953011
-0.367107
0.127702
0.397305
0.493748
0.44014
0.39951
0.330154
0.253615
0.139503
0.0850145
0.0719495
0.0752158
0.0558959
0.00661151
-0.0789269
-0.142039
-0.202833
-0.278579
-0.344511
-0.439046
-0.627184
-0.876371
-1.20912
-1.57284
-1.97664
-2.45867
-2.88287
-3.18026
-3.34022
-3.29234
-2.98074
-2.48403
-1.96161
-1.3825
-0.726333
-0.0823287
-0.362904
-0.523713
-0.655443
-0.76117
-0.823761
-0.832233
-0.781748
-0.675648
-0.532761
-0.378401
-0.241461
-0.13855
-0.0771292
-0.052908
-0.061677
-0.0964148
-0.149866
-0.217472
-0.280863
-0.333117
-0.36933
-0.389647
-0.396122
-0.395564
-0.386828
-0.374213
-0.349531
-0.33014
-0.314662
-0.304175
-0.290681
-0.272962
-0.252724
-0.2227
-0.212809
-0.202257
-0.191327
-0.195018
-0.218024
-0.259138
-0.298958
-0.303623
-0.266101
-0.179225
-0.0526016
0.0974411
0.198109
0.188137
0.0687257
-0.1365
-0.409844
-0.716324
-1.0469
-1.36535
-1.62353
-1.77024
-1.79321
-1.74309
-1.68773
-1.66898
-1.70197
-1.77241
-1.9297
-2.0146
-1.97311
-1.73973
-1.31303
-0.839719
-0.331386
0.092789
0.356876
0.494347
0.467638
0.464863
0.39731
0.293879
0.202511
0.13388
0.0961423
0.078972
0.0343525
-0.0115977
-0.0723132
-0.138296
-0.20676
-0.27125
-0.348082
-0.443158
-0.60347
-0.836086
-1.14415
-1.48056
-1.87762
-2.36904
-2.8819
-3.28943
-3.51476
-3.48522
-3.1689
-2.65709
-2.06953
-1.46334
-0.779066
-0.147963
-0.247004
-0.362862
-0.457054
-0.529016
-0.565368
-0.577989
-0.558964
-0.49424
-0.402768
-0.30094
-0.208578
-0.139498
-0.0986475
-0.0831732
-0.0896439
-0.111505
-0.144915
-0.188095
-0.228446
-0.26365
-0.290038
-0.30668
-0.315114
-0.317147
-0.31503
-0.309827
-0.300721
-0.297816
-0.304084
-0.312276
-0.313939
-0.311367
-0.308841
-0.302637
-0.296653
-0.287883
-0.285879
-0.284532
-0.291057
-0.301378
-0.304467
-0.283816
-0.240854
-0.169507
-0.0645902
0.0331093
0.0776869
0.0595656
-0.0454921
-0.225724
-0.466806
-0.71897
-0.994034
-1.25501
-1.46977
-1.60689
-1.66739
-1.6876
-1.68908
-1.69539
-1.75745
-1.87094
-1.89201
-1.8687
-1.75776
-1.51311
-1.13344
-0.728365
-0.29697