/*--------------------------------*- C++ -*----------------------------------*\
| =========                 |                                                 |
| \\      /  F ield         | OpenFOAM: The Open Source CFD Toolbox           |
|  \\    /   O peration     | Version:  v1912                                 |
|   \\  /    A nd           | Website:  www.openfoam.com                      |
|    \\/     M anipulation  |                                                 |
\*---------------------------------------------------------------------------*/
FoamFile
{
    version     2.0;
    format      ascii;
    class       volScalarField;
    location    "20";
    object      omega;
}
// * * * * * * * * * * * * * * * * * * * * * * * * * * * * * * * * * * * * * //

dimensions      [0 0 -1 0 0 0 0];


internalField   nonuniform List<scalar> 
14268
(
0.012651
0.012642
0.0126315
0.0126193
0.012606
0.0125919
0.0125765
0.0125596
0.0125413
0.012522
0.0125015
0.0124801
0.0124582
0.012436
0.0124138
0.012392
0.0123711
0.0123526
0.0123364
0.0123224
0.0123105
0.0123003
0.0122915
0.0122838
0.0122771
0.0122713
0.0122657
0.0122603
0.0122551
0.0122504
0.0122461
0.0122422
0.0122389
0.0122359
0.0122332
0.0122307
0.0122283
0.012226
0.0122238
0.0122217
0.0122197
0.0122178
0.012216
0.0122143
0.0122136
0.0122152
0.0122187
0.0122241
0.012231
0.0122393
0.0122486
0.0122588
0.0122696
0.0122807
0.0122919
0.012303
0.0123138
0.0123241
0.0123339
0.0123432
0.0123517
0.0123595
0.0123667
0.0123732
0.0123791
0.0123845
0.0123894
0.012394
0.0123983
0.0124025
0.0124066
0.0124107
0.0124149
0.0124192
0.0124237
0.0124285
0.0124335
0.0124388
0.0124442
0.01245
0.0124559
0.0124609
0.0124628
0.0124601
0.012457
0.0124907
0.409799
0.410823
0.412047
0.413474
0.415137
0.41703
0.419194
0.421615
0.424326
0.427323
0.430627
0.434263
0.438246
0.442576
0.447217
0.452111
0.457184
0.462349
0.467521
0.472624
0.47759
0.482342
0.486806
0.490891
0.494562
0.49782
0.500688
0.503211
0.505453
0.507469
0.509305
0.510996
0.512579
0.514084
0.515523
0.516891
0.518172
0.519344
0.520386
0.521275
0.521992
0.522521
0.522853
0.52298
0.522992
0.522993
0.522982
0.52296
0.522929
0.52289
0.522844
0.522795
0.522742
0.522689
0.522635
0.522584
0.522535
0.522489
0.522446
0.522408
0.522374
0.522343
0.522316
0.522292
0.522271
0.522253
0.522237
0.522223
0.52221
0.522198
0.522187
0.522177
0.522166
0.522154
0.522142
0.522129
0.522116
0.522101
0.522086
0.522069
0.52205
0.522037
0.522035
0.521985
0.52185
0.522121
0.514495
0.514525
0.514602
0.514698
0.51482
0.514976
0.515177
0.515414
0.515689
0.515998
0.516348
0.516741
0.517181
0.517661
0.518173
0.518705
0.519247
0.51979
0.520316
0.520824
0.521309
0.521762
0.522183
0.522541
0.522811
0.523009
0.523155
0.523266
0.523358
0.523447
0.523515
0.523552
0.523568
0.523561
0.523543
0.52352
0.52349
0.523456
0.523421
0.523388
0.523359
0.523337
0.523323
0.523319
0.523327
0.523327
0.523314
0.523292
0.52326
0.52322
0.523173
0.523123
0.523069
0.523014
0.52296
0.522906
0.522855
0.522808
0.522764
0.522723
0.522687
0.522654
0.522625
0.522599
0.522577
0.522557
0.522539
0.522523
0.522509
0.522496
0.522484
0.522472
0.52246
0.522448
0.522435
0.522422
0.522408
0.522393
0.522377
0.52236
0.52234
0.522326
0.522323
0.522284
0.522208
0.52249
0.527171
0.52696
0.526756
0.526512
0.526254
0.525981
0.52573
0.525462
0.525204
0.524932
0.524683
0.524432
0.524205
0.523993
0.523808
0.523649
0.523534
0.52345
0.523408
0.523401
0.52343
0.523492
0.523583
0.523663
0.523702
0.523718
0.523721
0.523718
0.523718
0.523738
0.523749
0.523745
0.523719
0.523679
0.523635
0.523591
0.523544
0.523497
0.523453
0.523412
0.523378
0.523352
0.523335
0.523328
0.523334
0.523336
0.523326
0.523305
0.523274
0.523235
0.523189
0.523138
0.523085
0.523029
0.522974
0.52292
0.522868
0.522819
0.522774
0.522733
0.522695
0.522662
0.522632
0.522605
0.522582
0.522561
0.522543
0.522527
0.522513
0.5225
0.522488
0.522476
0.522465
0.522453
0.52244
0.522427
0.522414
0.522399
0.522384
0.522367
0.522347
0.52233
0.522317
0.522255
0.52218
0.522258
0.529193
0.528922
0.528654
0.528334
0.527983
0.527606
0.527244
0.526857
0.526479
0.526076
0.525705
0.525324
0.524977
0.524649
0.524355
0.524099
0.523884
0.523723
0.523613
0.523553
0.523542
0.523573
0.523643
0.523704
0.523735
0.523747
0.523748
0.523746
0.523751
0.523773
0.523785
0.523782
0.523756
0.523716
0.523672
0.523626
0.523578
0.52353
0.523483
0.523441
0.523405
0.523376
0.523356
0.523347
0.52335
0.523355
0.523346
0.523326
0.523297
0.523258
0.523212
0.523161
0.523107
0.523051
0.522995
0.52294
0.522887
0.522837
0.522791
0.522748
0.52271
0.522675
0.522644
0.522617
0.522593
0.522572
0.522553
0.522537
0.522523
0.52251
0.522498
0.522486
0.522475
0.522463
0.522451
0.522438
0.522425
0.52241
0.522395
0.522378
0.522359
0.52234
0.522324
0.522271
0.522233
0.522315
0.529315
0.529035
0.528763
0.528438
0.528079
0.527692
0.527321
0.526926
0.526542
0.526135
0.525759
0.525376
0.525026
0.524692
0.524396
0.524136
0.523928
0.523772
0.52367
0.523618
0.523612
0.523652
0.52373
0.52379
0.523817
0.523824
0.523818
0.52381
0.523809
0.523828
0.523835
0.523829
0.523798
0.523758
0.523714
0.523667
0.523616
0.523565
0.523516
0.52347
0.523431
0.523399
0.523376
0.523364
0.523365
0.523371
0.523364
0.523346
0.523317
0.523278
0.523233
0.523182
0.523127
0.52307
0.523013
0.522956
0.522902
0.522851
0.522803
0.52276
0.52272
0.522684
0.522653
0.522624
0.5226
0.522578
0.52256
0.522543
0.522529
0.522516
0.522504
0.522493
0.522482
0.52247
0.522459
0.522446
0.522433
0.522419
0.522404
0.522387
0.522368
0.522349
0.522328
0.522278
0.522241
0.522242
0.529433
0.52915
0.528878
0.528555
0.528195
0.527805
0.527432
0.527033
0.526644
0.526233
0.52585
0.525463
0.52511
0.524773
0.524472
0.524208
0.523989
0.52383
0.523722
0.523664
0.523655
0.52369
0.52376
0.523814
0.52384
0.523845
0.523838
0.523829
0.52383
0.523851
0.523862
0.523861
0.523834
0.523796
0.52375
0.523703
0.523652
0.5236
0.523549
0.523502
0.523461
0.523427
0.523401
0.523387
0.523385
0.523392
0.523386
0.523369
0.523341
0.523302
0.523257
0.523205
0.523149
0.523091
0.523033
0.522975
0.52292
0.522867
0.522818
0.522773
0.522732
0.522695
0.522663
0.522634
0.522609
0.522587
0.522568
0.522552
0.522537
0.522524
0.522513
0.522502
0.522491
0.52248
0.522468
0.522456
0.522444
0.52243
0.522415
0.522398
0.522379
0.52236
0.522337
0.522298
0.52227
0.522266
0.529483
0.5292
0.528932
0.528616
0.528259
0.52787
0.527496
0.527099
0.52671
0.526297
0.525912
0.525524
0.525164
0.524821
0.524515
0.524245
0.524037
0.523884
0.523783
0.523734
0.523735
0.523785
0.523873
0.523935
0.523958
0.52396
0.523947
0.523931
0.523925
0.523939
0.523943
0.523933
0.523898
0.523859
0.523813
0.523764
0.523708
0.523651
0.523596
0.523543
0.523496
0.523458
0.523427
0.523411
0.523407
0.523413
0.523409
0.523393
0.523365
0.523327
0.52328
0.523228
0.523171
0.523112
0.523052
0.522993
0.522936
0.522882
0.522831
0.522785
0.522743
0.522705
0.522671
0.522642
0.522616
0.522594
0.522575
0.522558
0.522544
0.522531
0.52252
0.522509
0.522499
0.522488
0.522477
0.522465
0.522453
0.522439
0.522425
0.522408
0.52239
0.52237
0.522346
0.522314
0.522289
0.522267
0.529556
0.529271
0.529007
0.528695
0.528342
0.527953
0.527578
0.527181
0.526789
0.526373
0.525985
0.525594
0.525233
0.524888
0.524583
0.524313
0.5241
0.523945
0.523843
0.52379
0.523788
0.523829
0.523902
0.523953
0.523977
0.523971
0.523953
0.523932
0.523923
0.523934
0.523944
0.523945
0.523916
0.523883
0.523834
0.523786
0.523735
0.523679
0.523624
0.523571
0.523525
0.523487
0.523457
0.523439
0.523432
0.523438
0.523435
0.52342
0.523392
0.523353
0.523306
0.523253
0.523195
0.523134
0.523073
0.523012
0.522953
0.522897
0.522845
0.522797
0.522754
0.522715
0.52268
0.52265
0.522624
0.522601
0.522582
0.522565
0.522551
0.522539
0.522528
0.522517
0.522507
0.522497
0.522487
0.522476
0.522464
0.52245
0.522436
0.52242
0.522402
0.522381
0.522356
0.52233
0.52231
0.522276
0.529632
0.529346
0.529087
0.528783
0.528433
0.528046
0.527671
0.527274
0.526881
0.526463
0.526073
0.525677
0.525309
0.524957
0.524637
0.524367
0.524159
0.524011
0.523915
0.523872
0.523884
0.523944
0.524046
0.524113
0.524136
0.524133
0.524116
0.5241
0.5241
0.524106
0.524106
0.524082
0.524039
0.524
0.523951
0.523895
0.52383
0.523765
0.523701
0.52364
0.523584
0.523534
0.523493
0.523469
0.52346
0.523464
0.523463
0.523448
0.52342
0.523381
0.523333
0.523279
0.523219
0.523157
0.523093
0.52303
0.522969
0.522912
0.522858
0.522809
0.522764
0.522724
0.522689
0.522658
0.522631
0.522608
0.522589
0.522572
0.522558
0.522546
0.522535
0.522525
0.522516
0.522506
0.522496
0.522485
0.522474
0.522461
0.522447
0.522431
0.522413
0.522393
0.522368
0.522344
0.522327
0.522289
0.52971
0.529421
0.529164
0.528861
0.528514
0.528127
0.527751
0.527355
0.526961
0.526544
0.526151
0.525753
0.525384
0.525029
0.52471
0.524438
0.524229
0.524081
0.523987
0.523942
0.523946
0.523996
0.524072
0.524119
0.524136
0.524111
0.524077
0.524047
0.524031
0.524037
0.524044
0.524046
0.524008
0.523975
0.523923
0.523872
0.523819
0.52376
0.5237
0.523644
0.523595
0.523555
0.523522
0.523502
0.523491
0.523493
0.523494
0.523479
0.523451
0.523412
0.523362
0.523306
0.523245
0.52318
0.523115
0.52305
0.522987
0.522927
0.522872
0.522821
0.522774
0.522733
0.522697
0.522665
0.522638
0.522615
0.522595
0.522579
0.522565
0.522553
0.522543
0.522534
0.522525
0.522516
0.522506
0.522496
0.522485
0.522473
0.522459
0.522443
0.522426
0.522406
0.522381
0.522359
0.522342
0.522304
0.529797
0.529507
0.529253
0.528956
0.528613
0.528228
0.527855
0.527465
0.52707
0.526655
0.526261
0.525862
0.525485
0.525117
0.524782
0.524512
0.524304
0.52416
0.524071
0.524036
0.524058
0.524125
0.524246
0.524321
0.524349
0.524351
0.524341
0.524326
0.524336
0.524344
0.524341
0.524299
0.524254
0.524201
0.524143
0.524076
0.523998
0.52392
0.523843
0.523768
0.523698
0.523634
0.523579
0.523544
0.523528
0.523529
0.52353
0.523515
0.523487
0.523446
0.523395
0.523336
0.523272
0.523205
0.523137
0.523069
0.523003
0.522941
0.522884
0.522831
0.522784
0.522741
0.522704
0.522672
0.522644
0.522621
0.522602
0.522585
0.522572
0.522561
0.522551
0.522542
0.522534
0.522526
0.522517
0.522508
0.522497
0.522485
0.522472
0.522457
0.52244
0.52242
0.522396
0.522375
0.522357
0.522321
0.529877
0.529585
0.52933
0.529032
0.528685
0.528299
0.527933
0.527544
0.527144
0.52673
0.526334
0.525934
0.525554
0.525183
0.524848
0.524573
0.524373
0.524238
0.524153
0.524119
0.524136
0.5242
0.52428
0.524318
0.524313
0.524274
0.524232
0.524208
0.524174
0.52416
0.524161
0.524155
0.524125
0.524088
0.524038
0.523978
0.523919
0.523851
0.523782
0.523719
0.523665
0.523622
0.523588
0.523568
0.523551
0.52355
0.523552
0.523538
0.52351
0.523468
0.523416
0.523356
0.523291
0.523222
0.523152
0.523083
0.523015
0.522951
0.522892
0.522838
0.522789
0.522746
0.522708
0.522675
0.522648
0.522624
0.522605
0.52259
0.522577
0.522566
0.522557
0.522549
0.522542
0.522534
0.522526
0.522517
0.522507
0.522496
0.522483
0.522469
0.522452
0.522433
0.52241
0.52239
0.522372
0.522338
0.529969
0.529675
0.52942
0.529126
0.528779
0.528411
0.528059
0.527677
0.527276
0.526863
0.52647
0.526071
0.525692
0.525319
0.524978
0.524699
0.524498
0.524363
0.524285
0.524259
0.524277
0.524339
0.524457
0.524543
0.524581
0.524576
0.524558
0.524541
0.524575
0.524594
0.524584
0.524544
0.524499
0.524432
0.524357
0.524277
0.524183
0.524085
0.523987
0.523891
0.523799
0.523719
0.523644
0.523589
0.52357
0.523564
0.523567
0.523554
0.523527
0.523487
0.523436
0.523376
0.523311
0.523242
0.523171
0.5231
0.523031
0.522967
0.522906
0.522851
0.522801
0.522757
0.522718
0.522684
0.522655
0.522631
0.522611
0.522595
0.522581
0.52257
0.522561
0.522552
0.522545
0.522537
0.522529
0.52252
0.52251
0.522499
0.522486
0.522472
0.522457
0.522438
0.522416
0.522397
0.522379
0.522348
0.530032
0.529737
0.529484
0.529193
0.528853
0.528506
0.528164
0.527789
0.527385
0.526968
0.526579
0.526187
0.5258
0.525401
0.525037
0.524746
0.524548
0.524415
0.524324
0.524285
0.5243
0.524349
0.524425
0.524473
0.524457
0.524419
0.524394
0.524306
0.52422
0.524181
0.524137
0.524082
0.524027
0.523973
0.523932
0.52388
0.523821
0.523766
0.52372
0.523679
0.523651
0.523638
0.523631
0.523633
0.523615
0.523604
0.523605
0.523598
0.523574
0.523535
0.523483
0.523421
0.523353
0.523279
0.523203
0.523127
0.523055
0.522988
0.522925
0.522867
0.522815
0.522768
0.522727
0.522692
0.522661
0.522636
0.522615
0.522597
0.522583
0.522572
0.522562
0.522554
0.522546
0.522538
0.52253
0.522521
0.522511
0.5225
0.522488
0.522474
0.522458
0.52244
0.522418
0.522399
0.522381
0.522349
0.530055
0.529758
0.529504
0.529207
0.528876
0.528538
0.528197
0.527819
0.52741
0.526987
0.526596
0.526194
0.525791
0.525386
0.525022
0.524734
0.524541
0.524409
0.524323
0.52429
0.524309
0.524381
0.524523
0.52461
0.524641
0.524663
0.524653
0.5247
0.524784
0.52484
0.524838
0.524843
0.524834
0.524811
0.524773
0.524703
0.52463
0.52454
0.524429
0.524315
0.524201
0.52409
0.523991
0.523889
0.523827
0.523805
0.523793
0.52376
0.523711
0.52365
0.523579
0.523502
0.52342
0.523335
0.523247
0.523167
0.523092
0.523022
0.522958
0.522899
0.522847
0.522801
0.522761
0.522727
0.522699
0.522676
0.522657
0.522642
0.522631
0.522622
0.522615
0.522609
0.522603
0.522597
0.52259
0.522581
0.522571
0.522559
0.522546
0.52253
0.522513
0.522492
0.522469
0.522449
0.522427
0.522393
0.530084
0.529786
0.529532
0.529229
0.528909
0.528577
0.528236
0.527857
0.527447
0.527021
0.526619
0.526211
0.525809
0.525408
0.525046
0.524756
0.524563
0.524431
0.524347
0.524319
0.524356
0.52446
0.524613
0.524683
0.524694
0.524628
0.524588
0.524602
0.524672
0.524722
0.524691
0.524662
0.524612
0.524568
0.524517
0.524461
0.524425
0.524391
0.524361
0.524349
0.524359
0.524375
0.524407
0.524413
0.524375
0.524337
0.524257
0.524141
0.524004
0.523861
0.52372
0.523588
0.523471
0.523375
0.523293
0.523208
0.523123
0.523046
0.522978
0.522917
0.522863
0.522816
0.522776
0.522742
0.522715
0.522693
0.522675
0.522661
0.52265
0.522641
0.522633
0.522627
0.522622
0.522617
0.52261
0.522602
0.522592
0.52258
0.522567
0.522552
0.522535
0.522515
0.522492
0.522473
0.522452
0.522421
0.530112
0.529814
0.529561
0.529257
0.528943
0.528614
0.528275
0.527898
0.527486
0.52706
0.526662
0.526262
0.525865
0.525454
0.525079
0.524784
0.524598
0.52448
0.524416
0.524414
0.524442
0.524496
0.524595
0.524695
0.524742
0.524784
0.524819
0.52496
0.525102
0.525211
0.525292
0.525395
0.525492
0.525612
0.525749
0.525887
0.526077
0.526264
0.526444
0.526624
0.52679
0.526926
0.527021
0.52706
0.526907
0.526646
0.526293
0.525866
0.52542
0.524996
0.524625
0.524313
0.524044
0.52381
0.523607
0.523436
0.52329
0.523168
0.523063
0.522975
0.5229
0.522836
0.522781
0.522735
0.522696
0.522664
0.522638
0.522616
0.522597
0.522581
0.522567
0.522554
0.522541
0.52253
0.522519
0.522508
0.522496
0.522484
0.52247
0.522455
0.522439
0.522419
0.522396
0.522376
0.522355
0.522325
0.530139
0.52984
0.529586
0.529287
0.528984
0.528665
0.52833
0.527958
0.527563
0.527142
0.526738
0.526324
0.525894
0.525476
0.5251
0.524813
0.524646
0.524532
0.524449
0.524421
0.524444
0.52453
0.524731
0.524961
0.525182
0.525426
0.52575
0.5262
0.526721
0.527231
0.527827
0.528516
0.529259
0.530109
0.531084
0.532197
0.533465
0.534789
0.536118
0.537403
0.538564
0.539516
0.540191
0.540541
0.540227
0.53929
0.53783
0.535925
0.533852
0.531815
0.529967
0.528396
0.527135
0.526172
0.525429
0.524867
0.524445
0.524125
0.52388
0.523691
0.523544
0.523427
0.523333
0.523256
0.523193
0.523143
0.523103
0.523071
0.523044
0.523023
0.523005
0.522987
0.522969
0.522948
0.522924
0.522899
0.522871
0.522842
0.522812
0.52278
0.522746
0.522708
0.522665
0.522624
0.522579
0.522524
0.530166
0.529865
0.529611
0.529318
0.529017
0.528698
0.528361
0.527982
0.527565
0.52714
0.526715
0.526304
0.525907
0.525511
0.525153
0.524877
0.524706
0.524583
0.524518
0.52455
0.524686
0.524943
0.525463
0.5262
0.527171
0.528347
0.529914
0.531749
0.533788
0.535996
0.538369
0.541121
0.544288
0.547981
0.552209
0.556947
0.562114
0.567557
0.573087
0.578459
0.583364
0.587478
0.590509
0.592214
0.591742
0.588558
0.583237
0.576458
0.568955
0.561362
0.554158
0.54771
0.542228
0.537769
0.534266
0.531586
0.529581
0.528104
0.527016
0.526191
0.525566
0.525091
0.524731
0.524459
0.524253
0.524098
0.523978
0.523881
0.523801
0.523732
0.523672
0.523619
0.523567
0.523519
0.523473
0.52343
0.523389
0.523346
0.523302
0.523256
0.523209
0.523161
0.523114
0.523069
0.523024
0.522965
0.530194
0.529891
0.529632
0.529346
0.529053
0.52875
0.528432
0.528072
0.527667
0.527201
0.526823
0.526455
0.526042
0.525614
0.525231
0.524948
0.524801
0.524745
0.524793
0.525015
0.525533
0.526622
0.528681
0.531767
0.535804
0.540673
0.546528
0.552671
0.559343
0.566662
0.57464
0.583742
0.594229
0.606341
0.620284
0.636088
0.653596
0.672405
0.691776
0.710783
0.728292
0.743072
0.754041
0.760349
0.759235
0.749723
0.733406
0.712381
0.689218
0.665689
0.642901
0.621706
0.602817
0.586612
0.57332
0.56267
0.554278
0.547732
0.542675
0.5388
0.535847
0.533601
0.531891
0.530585
0.529577
0.52879
0.528162
0.527645
0.527203
0.526812
0.526453
0.526116
0.525792
0.525476
0.525169
0.524872
0.524591
0.524326
0.52408
0.523857
0.523661
0.523492
0.523348
0.523228
0.523129
0.523043
0.530225
0.52992
0.529657
0.529378
0.529096
0.528799
0.528472
0.528094
0.527668
0.527302
0.526897
0.526479
0.526067
0.525689
0.525368
0.525194
0.525207
0.525502
0.526371
0.528104
0.531348
0.537023
0.546304
0.558315
0.572392
0.588658
0.608027
0.630747
0.656134
0.683921
0.715638
0.751751
0.794303
0.844391
0.903294
0.971245
1.0472
1.12798
1.20857
1.28279
1.34446
1.38719
1.40657
1.39629
1.35862
1.29955
1.22594
1.14406
1.06232
0.988704
0.924606
0.865413
0.810696
0.761619
0.718572
0.682065
0.652987
0.630073
0.611695
0.596985
0.585283
0.576009
0.568669
0.562921
0.558419
0.554829
0.551898
0.54944
0.547319
0.545429
0.543694
0.542052
0.54046
0.538896
0.537347
0.535816
0.534312
0.532853
0.531465
0.530167
0.52898
0.527919
0.526985
0.526172
0.52549
0.524945
0.530259
0.529953
0.529687
0.529413
0.529135
0.528838
0.528514
0.528139
0.527711
0.527297
0.526892
0.526534
0.526224
0.526001
0.526
0.526525
0.527981
0.530969
0.536094
0.54429
0.557971
0.578542
0.605316
0.636426
0.676878
0.727643
0.791908
0.868775
0.948887
1.03366
1.12555
1.2255
1.33958
1.47797
1.65271
1.8784
2.17198
2.54173
2.9513
3.35697
3.74157
4.08808
4.33486
4.38857
4.22898
3.91856
3.50878
3.06342
2.64041
2.26545
1.95721
1.73525
1.54534
1.38385
1.24118
1.11095
1.00331
0.928662
0.873143
0.826774
0.78825
0.75627
0.729703
0.707657
0.689377
0.674179
0.661423
0.650553
0.641198
0.632973
0.62551
0.618495
0.611676
0.604866
0.597985
0.591038
0.584083
0.577184
0.570426
0.56391
0.557737
0.552005
0.546847
0.542267
0.538305
0.53505
0.530297
0.529988
0.529722
0.529455
0.52919
0.528913
0.528609
0.528247
0.527839
0.527467
0.527172
0.527028
0.527079
0.527563
0.529015
0.53263
0.540098
0.552351
0.570046
0.59439
0.627705
0.672063
0.732015
0.809961
0.906665
1.01852
1.14407
1.28296
1.41791
1.55611
1.70566
1.87765
2.0518
2.26093
2.54487
2.9736
3.69581
5.06003
6.6601
7.2731
7.87443
8.49048
9.13216
9.84444
10.6513
11.4873
12.1729
12.493
12.3179
10.7815
4.07666
3.44796
3.12492
2.90492
2.70505
2.5071
2.28714
2.06834
1.87558
1.72131
1.59772
1.49709
1.41163
1.33636
1.26916
1.20849
1.15327
1.10255
1.05578
1.0136
0.976646
0.944665
0.917753
0.892775
0.867172
0.840725
0.813734
0.786507
0.759407
0.732758
0.706889
0.682165
0.658769
0.636942
0.617098
0.599984
0.530359
0.530046
0.529792
0.529544
0.529306
0.529057
0.528787
0.528463
0.52811
0.52802
0.528185
0.528828
0.530224
0.533201
0.539583
0.552376
0.575416
0.607992
0.649776
0.702661
0.772084
0.863228
0.980522
1.11792
1.28569
1.44177
1.52915
1.64029
1.76878
1.95821
2.31501
3.42957
3.78622
4.17194
4.61031
5.11903
5.70798
6.23312
6.65138
7.17214
7.91532
8.90221
10.0237
11.3455
13.2145
16.1773
21.231
31.1462
58.4425
106.169
31.473
4.81283
3.52556
3.16534
3.05998
3.11348
3.18873
3.20908
3.19644
3.1683
3.13576
3.105
3.07923
3.05922
3.03709
3.0104
2.97285
2.92311
2.86036
2.78467
2.69596
2.59248
2.47273
2.34595
2.21597
2.08346
1.95005
1.81777
1.68898
1.56449
1.44448
1.32848
1.21641
1.11111
1.02284
0.948524
0.5305
0.530184
0.529946
0.529702
0.529464
0.529219
0.528995
0.528881
0.529115
0.53019
0.532299
0.535785
0.54142
0.551328
0.569707
0.60247
0.656096
0.729271
0.82255
0.938415
1.0752
1.22483
1.41943
1.48218
1.62099
2.06148
2.73001
2.98323
3.2268
3.45765
3.68751
3.87572
4.01093
4.15167
4.27143
4.32533
4.24328
3.94594
3.49663
3.05358
2.62307
2.22808
1.93257
1.81974
1.82384
1.86202
1.93331
2.03487
2.16245
2.31402
2.47826
2.80114
3.0895
3.21758
3.21517
3.1285
3.02274
2.94555
2.90509
2.89881
2.92392
2.9712
3.03482
3.11344
3.21176
3.33075
3.45245
3.57046
3.68536
3.79665
3.90354
4.00507
4.09887
4.18231
4.25212
4.30891
4.35315
4.3832
4.39834
4.39253
4.34196
4.23433
4.05522
3.78695
3.41101
3.03373
0.530132
0.529879
0.529772
0.529779
0.529972
0.530315
0.530953
0.532351
0.535045
0.5399
0.547508
0.558289
0.573645
0.598805
0.644445
0.721736
0.842208
1.00607
1.20598
1.42489
1.69635
1.73875
1.90422
2.77015
2.94707
3.15462
3.23175
3.25623
3.27559
3.28601
3.25562
3.16905
3.02014
2.78902
2.46261
2.09623
1.72919
1.41794
1.20878
1.06663
0.972376
0.914552
0.884278
0.873278
0.874271
0.885161
0.905505
0.935609
0.975245
1.02497
1.08578
1.1589
1.24431
1.33802
1.43586
1.53267
1.6249
1.71385
1.80244
1.8954
1.99442
2.09268
2.19032
2.28741
2.38676
2.49104
2.60306
2.72527
2.8513
2.97694
3.10323
3.23191
3.36396
3.50104
3.64471
3.79732
3.96278
4.1416
4.33419
4.54356
4.78181
5.05365
5.36121
5.70675
6.09349
6.53983
0.530489
0.53075
0.531364
0.532476
0.534301
0.536957
0.540976
0.547188
0.556595
0.570366
0.58923
0.614752
0.651545
0.7135
0.825733
1.00642
1.26097
1.55603
1.92626
2.06719
2.30099
3.11041
2.97441
3.01042
2.95117
2.92371
2.845
2.71195
2.52277
2.27558
2.00568
1.72087
1.44809
1.21663
1.04244
0.903389
0.796079
0.717735
0.666161
0.634156
0.613873
0.601149
0.594103
0.59149
0.59196
0.595013
0.600459
0.608433
0.619152
0.633371
0.651717
0.674801
0.70387
0.739597
0.782268
0.831795
0.887939
0.950311
1.01803
1.09057
1.16645
1.24371
1.32066
1.39539
1.46658
1.53363
1.59723
1.65866
1.71971
1.7826
1.84892
1.92078
2.00122
2.09278
2.19809
2.32082
2.46513
2.63587
2.83835
3.07776
3.36023
3.69297
4.08366
4.53971
5.06623
5.67315
0.535333
0.537224
0.53993
0.543764
0.549137
0.556805
0.568084
0.584195
0.607459
0.639823
0.683239
0.744482
0.839612
1.00122
1.26933
1.62628
2.05902
2.31046
2.5425
3.49111
3.43325
3.18393
2.84656
2.63684
2.4544
2.22957
1.9397
1.63359
1.3458
1.1139
0.958115
0.835863
0.743587
0.676582
0.628275
0.593921
0.570012
0.553641
0.543271
0.537104
0.533299
0.530899
0.529592
0.529115
0.529073
0.529167
0.529337
0.529716
0.530166
0.530959
0.532078
0.533529
0.535221
0.537127
0.539362
0.541773
0.544344
0.547135
0.550132
0.553286
0.556488
0.559607
0.562613
0.5654
0.567949
0.570209
0.572171
0.57383
0.575269
0.576598
0.57782
0.579039
0.580333
0.581717
0.583256
0.584971
0.586929
0.589157
0.591675
0.594494
0.597585
0.600921
0.604463
0.608086
0.611761
0.615277
0.549272
0.5547
0.561872
0.571485
0.584615
0.603037
0.629293
0.666637
0.720537
0.795794
0.901939
1.06362
1.31679
1.68774
2.16615
2.60334
2.69236
3.7817
3.83823
3.64946
3.29033
2.84466
2.37384
1.99499
1.63553
1.31957
1.06693
0.892606
0.764306
0.679095
0.626515
0.591072
0.567792
0.552547
0.542454
0.535846
0.531508
0.528745
0.527181
0.526373
0.525921
0.52565
0.525533
0.525485
0.525276
0.525122
0.524952
0.524846
0.524659
0.524687
0.524785
0.524908
0.525038
0.525123
0.525241
0.525271
0.525296
0.525325
0.525339
0.525317
0.52526
0.525177
0.525106
0.525064
0.525036
0.525031
0.525029
0.52501
0.524982
0.524963
0.524968
0.524981
0.524997
0.524984
0.524945
0.524892
0.524855
0.524868
0.524935
0.524984
0.524996
0.524961
0.524887
0.524828
0.524841
0.524774
0.581367
0.594332
0.611236
0.633808
0.664754
0.708057
0.769311
0.858447
0.991605
1.18472
1.46246
1.86062
2.34228
2.89252
2.84396
3.82001
4.01971
3.95055
3.73082
3.28551
2.72568
2.18566
1.68323
1.2586
0.986184
0.814003
0.699739
0.629079
0.58478
0.559483
0.545658
0.537509
0.532583
0.529645
0.527714
0.526444
0.525536
0.525014
0.524777
0.524576
0.524409
0.524269
0.524176
0.524132
0.524011
0.523926
0.523854
0.523861
0.523841
0.523925
0.523985
0.524022
0.524063
0.524095
0.52416
0.524183
0.524205
0.524235
0.524263
0.524277
0.524259
0.524224
0.524206
0.524216
0.524224
0.524221
0.524202
0.524167
0.52413
0.524097
0.524088
0.524079
0.524073
0.524057
0.524031
0.52404
0.524051
0.524049
0.524047
0.524041
0.524008
0.523937
0.523831
0.523727
0.52366
0.523587
0.653812
0.685399
0.727219
0.78368
0.861909
0.974087
1.13641
1.37032
1.70561
2.16075
2.6556
3.10662
3.01737
3.27967
4.02414
4.14271
3.92958
3.62404
3.09993
2.47141
1.85953
1.4108
1.07071
0.827352
0.692231
0.617982
0.575134
0.551676
0.538735
0.532455
0.529093
0.527142
0.52603
0.525391
0.524851
0.524458
0.524191
0.523959
0.52385
0.523796
0.523759
0.523753
0.523777
0.523736
0.523573
0.523457
0.523384
0.52337
0.523337
0.52339
0.523431
0.523465
0.523486
0.523487
0.523513
0.523503
0.523493
0.523496
0.523504
0.523505
0.523485
0.523464
0.523472
0.523505
0.523525
0.523533
0.523532
0.523525
0.523517
0.523498
0.523491
0.523483
0.523483
0.523479
0.523443
0.523398
0.523368
0.523352
0.52334
0.523323
0.523279
0.523204
0.523118
0.523038
0.522982
0.522918
0.840042
0.929199
1.05082
1.21886
1.44525
1.74483
2.14931
2.65273
3.16321
3.56488
3.42994
3.58488
5.03094
5.23723
3.97651
3.6863
3.34375
2.75037
2.06624
1.52472
1.16724
0.92821
0.749902
0.635747
0.579321
0.551713
0.537811
0.531069
0.527825
0.526319
0.525441
0.524885
0.524683
0.52444
0.524072
0.523833
0.52363
0.523488
0.523447
0.523384
0.523327
0.523299
0.523294
0.523259
0.523161
0.523154
0.523126
0.523084
0.523023
0.523036
0.523038
0.523044
0.523055
0.523071
0.523107
0.523119
0.523125
0.523141
0.523157
0.523166
0.523159
0.523149
0.523153
0.523165
0.523168
0.523164
0.523157
0.523155
0.523167
0.523171
0.52317
0.523155
0.52313
0.523088
0.523036
0.522992
0.522962
0.52294
0.522915
0.522882
0.522832
0.522773
0.522709
0.522649
0.522599
0.522541
1.47814
1.75925
2.10896
2.54607
3.07379
3.60624
4.11921
4.42381
4.52903
4.83319
9.68027
9.62153
5.2175
3.92584
3.28979
2.9056
2.31935
1.66006
1.24212
0.981033
0.807335
0.689753
0.607918
0.561678
0.541461
0.53246
0.528277
0.526156
0.525099
0.524688
0.524452
0.524171
0.524064
0.523869
0.523702
0.523597
0.523495
0.523438
0.523403
0.523324
0.523253
0.523193
0.523134
0.523053
0.522945
0.522906
0.522875
0.52285
0.522812
0.522811
0.522803
0.522794
0.52278
0.522761
0.522756
0.522746
0.522748
0.522762
0.522783
0.522802
0.522818
0.522837
0.522859
0.522877
0.522883
0.522879
0.52287
0.522856
0.522839
0.522813
0.522786
0.522755
0.522722
0.522681
0.522638
0.522605
0.522583
0.522565
0.522545
0.522518
0.522482
0.522439
0.522401
0.522366
0.52233
0.522299
3.7705
4.56934
5.37203
6.23721
6.5359
6.47811
6.70316
21.0523
33.839
54.2774
14.5038
6.47444
3.75444
2.77817
2.32555
1.8591
1.3754
1.02922
0.834176
0.716301
0.637878
0.585828
0.552657
0.536074
0.529401
0.526508
0.525152
0.524638
0.524378
0.524199
0.524069
0.523918
0.523671
0.523501
0.52343
0.523356
0.523312
0.523242
0.523174
0.523119
0.52308
0.523054
0.523033
0.522994
0.522938
0.522893
0.522846
0.522801
0.522754
0.522736
0.522717
0.522703
0.52269
0.52268
0.52268
0.522668
0.522654
0.522647
0.522641
0.522634
0.522625
0.52262
0.522621
0.522629
0.522635
0.522636
0.522635
0.52263
0.522619
0.522601
0.522581
0.522558
0.522534
0.522509
0.522483
0.52246
0.52244
0.522421
0.522399
0.522375
0.522348
0.522322
0.522292
0.52227
0.522244
0.522229
11.7344
11.1777
11.2728
27.6293
33.374
32.6843
37.0452
52.5366
76.6524
27.93
6.54068
3.29025
2.39018
1.84471
1.47581
1.15659
0.896796
0.73384
0.648538
0.598745
0.566252
0.545376
0.533278
0.527907
0.52601
0.52511
0.524549
0.524153
0.524049
0.523984
0.523895
0.52376
0.523572
0.523483
0.523457
0.523404
0.523345
0.523305
0.523261
0.523201
0.523139
0.523079
0.523013
0.522934
0.522868
0.522822
0.522779
0.522737
0.522697
0.522675
0.522653
0.522636
0.522621
0.522612
0.522614
0.522612
0.522607
0.522603
0.5226
0.522592
0.522581
0.522568
0.522557
0.522545
0.522529
0.522509
0.522485
0.522458
0.52243
0.522399
0.522369
0.522341
0.52232
0.522301
0.522285
0.522274
0.522266
0.522258
0.522252
0.522245
0.522238
0.522235
0.522229
0.522227
0.522216
0.522214
60.2843
52.5656
44.8046
39.7128
33.337
31.9341
35.4137
37.956
24.1884
5.7403
2.78338
2.04175
1.591
1.22918
0.986171
0.80445
0.676931
0.606047
0.570981
0.551163
0.538815
0.531205
0.527099
0.525455
0.524804
0.524407
0.524073
0.523905
0.523775
0.523734
0.523648
0.523585
0.523466
0.523426
0.523357
0.523282
0.523228
0.523158
0.523099
0.523037
0.522981
0.522938
0.522902
0.522866
0.522821
0.522781
0.522741
0.522702
0.522665
0.522635
0.52261
0.52259
0.52257
0.522554
0.522541
0.522528
0.52251
0.522494
0.522478
0.522462
0.522448
0.522435
0.522425
0.522418
0.522414
0.522411
0.522411
0.522409
0.522404
0.522394
0.522382
0.522368
0.522353
0.522338
0.522325
0.522312
0.5223
0.522287
0.522274
0.522261
0.52225
0.522243
0.522231
0.522226
0.522214
0.522212
38.3857
31.2277
25.8683
22.1212
20.4774
19.4867
17.0845
10.6951
4.61822
2.23513
1.65974
1.36108
1.09
0.870789
0.732528
0.640584
0.583909
0.555185
0.541187
0.533587
0.529215
0.526566
0.52515
0.524662
0.524461
0.524242
0.52398
0.52379
0.52375
0.523706
0.52365
0.523576
0.523441
0.523409
0.523368
0.523309
0.523257
0.523219
0.523176
0.523125
0.523072
0.523025
0.522973
0.52292
0.522868
0.522816
0.522766
0.522719
0.522677
0.522643
0.522615
0.522593
0.522575
0.522562
0.522555
0.522546
0.522532
0.522517
0.522501
0.522482
0.522462
0.522441
0.522419
0.522399
0.52238
0.522362
0.522346
0.522333
0.522322
0.522315
0.522312
0.522311
0.522307
0.522301
0.522295
0.522287
0.522278
0.522268
0.522258
0.522248
0.522238
0.522232
0.522221
0.522216
0.522203
0.522203
13.9476
12.2706
10.7266
9.40315
8.13552
6.73141
4.80667
2.82164
1.70848
1.31906
1.11727
0.9554
0.799853
0.68176
0.61195
0.570126
0.547197
0.536175
0.530485
0.527485
0.525993
0.525086
0.524552
0.524346
0.524202
0.524055
0.523846
0.523703
0.523641
0.523593
0.523545
0.523477
0.523418
0.523357
0.523287
0.523215
0.523167
0.523108
0.523055
0.522998
0.522943
0.522896
0.522852
0.522806
0.522763
0.522725
0.522689
0.522654
0.522622
0.522593
0.522569
0.522549
0.522532
0.52252
0.522509
0.522499