/*--------------------------------*- C++ -*----------------------------------*\
| =========                 |                                                 |
| \\      /  F ield         | OpenFOAM: The Open Source CFD Toolbox           |
|  \\    /   O peration     | Version:  v1912                                 |
|   \\  /    A nd           | Website:  www.openfoam.com                      |
|    \\/     M anipulation  |                                                 |
\*---------------------------------------------------------------------------*/
FoamFile
{
    version     2.0;
    format      ascii;
    class       volScalarField;
    location    "100";
    object      k;
}
// * * * * * * * * * * * * * * * * * * * * * * * * * * * * * * * * * * * * * //

dimensions      [0 2 -2 0 0 0 0];


internalField   nonuniform List<scalar> 
14268
(
5.14774e-07
5.14386e-07
5.14057e-07
5.13692e-07
5.13323e-07
5.12788e-07
5.12243e-07
5.1148e-07
5.10773e-07
5.09834e-07
5.09097e-07
5.07922e-07
5.07304e-07
5.0619e-07
5.05735e-07
5.04909e-07
5.04417e-07
5.03969e-07
5.03284e-07
5.02944e-07
5.0248e-07
5.01902e-07
5.01542e-07
5.01056e-07
5.00642e-07
5.0015e-07
4.99881e-07
4.98926e-07
4.98884e-07
4.97765e-07
4.97384e-07
4.96476e-07
4.9579e-07
4.94937e-07
4.94282e-07
4.93154e-07
4.92563e-07
4.91469e-07
4.90634e-07
4.89443e-07
4.88606e-07
4.87309e-07
4.86434e-07
4.85214e-07
4.83989e-07
4.82866e-07
4.81472e-07
4.80148e-07
4.78778e-07
4.77108e-07
4.75476e-07
4.73713e-07
4.7171e-07
4.69685e-07
4.6758e-07
4.65289e-07
4.63086e-07
4.60839e-07
4.58552e-07
4.56375e-07
4.54045e-07
4.51815e-07
4.4964e-07
4.47243e-07
4.45032e-07
4.42827e-07
4.40402e-07
4.38087e-07
4.35925e-07
4.33445e-07
4.31127e-07
4.29029e-07
4.26485e-07
4.24215e-07
4.22238e-07
4.19509e-07
4.17179e-07
4.15234e-07
4.12353e-07
4.09862e-07
4.07751e-07
4.0495e-07
4.0226e-07
4.00041e-07
3.97424e-07
3.94827e-07
3.92466e-07
3.89968e-07
3.87457e-07
3.85102e-07
3.82664e-07
3.80205e-07
3.77806e-07
3.75337e-07
3.72981e-07
3.70524e-07
3.68002e-07
3.65478e-07
3.63119e-07
3.60712e-07
3.58162e-07
3.55318e-07
3.52263e-07
3.4895e-07
3.45442e-07
3.41771e-07
3.37529e-07
3.32988e-07
3.27966e-07
3.22491e-07
3.15583e-07
3.09528e-07
3.0125e-07
2.93092e-07
2.84375e-07
2.74819e-07
2.65653e-07
2.55053e-07
2.45355e-07
2.3311e-07
2.20868e-07
2.07024e-07
1.92427e-07
1.76142e-07
1.58002e-07
1.37967e-07
1.14133e-07
8.65615e-08
5.85776e-08
3.51662e-08
1.9094e-08
9.8229e-09
4.98005e-09
2.27143e-09
2.57267e-07
2.53138e-07
2.49536e-07
2.46403e-07
2.43656e-07
2.4152e-07
2.39779e-07
2.38437e-07
2.37454e-07
2.37011e-07
2.36694e-07
2.36911e-07
2.37171e-07
2.38089e-07
2.38705e-07
2.39943e-07
2.40912e-07
2.42082e-07
2.43606e-07
2.44808e-07
2.46369e-07
2.48047e-07
2.49498e-07
2.51289e-07
2.53176e-07
2.549e-07
2.56819e-07
2.58845e-07
2.60627e-07
2.6278e-07
2.64632e-07
2.66611e-07
2.68728e-07
2.70788e-07
2.72904e-07
2.75173e-07
2.77264e-07
2.79416e-07
2.81512e-07
2.83439e-07
2.85262e-07
2.87138e-07
2.88876e-07
2.90689e-07
2.92369e-07
2.93945e-07
2.95424e-07
2.96704e-07
2.97879e-07
2.98838e-07
2.9958e-07
3.00135e-07
3.0044e-07
3.00513e-07
3.00344e-07
2.99903e-07
2.99211e-07
2.98263e-07
2.97093e-07
2.95733e-07
2.94141e-07
2.92352e-07
2.90425e-07
2.88271e-07
2.85952e-07
2.83541e-07
2.80906e-07
2.78165e-07
2.75383e-07
2.72455e-07
2.69539e-07
2.66693e-07
2.63779e-07
2.60962e-07
2.58277e-07
2.55569e-07
2.52924e-07
2.50534e-07
2.48127e-07
2.45895e-07
2.43839e-07
2.41911e-07
2.40242e-07
2.38633e-07
2.37253e-07
2.36143e-07
2.35084e-07
2.34311e-07
2.33682e-07
2.33177e-07
2.3284e-07
2.32555e-07
2.32423e-07
2.32368e-07
2.32378e-07
2.32465e-07
2.32617e-07
2.328e-07
2.33023e-07
2.3324e-07
2.33484e-07
2.33681e-07
2.33815e-07
2.3383e-07
2.33683e-07
2.3335e-07
2.32794e-07
2.31967e-07
2.3081e-07
2.29267e-07
2.27321e-07
2.24861e-07
2.21952e-07
2.18522e-07
2.14569e-07
2.10112e-07
2.05127e-07
1.99687e-07
1.93711e-07
1.87202e-07
1.79943e-07
1.71709e-07
1.62196e-07
1.51209e-07
1.38536e-07
1.23909e-07
1.07033e-07
8.79793e-08
6.71816e-08
4.77689e-08
3.41242e-08
2.42858e-08
1.59837e-08
8.53824e-09
1.03965e-07
1.01879e-07
1.00111e-07
9.86287e-08
9.73474e-08
9.64136e-08
9.5676e-08
9.51421e-08
9.47775e-08
9.47122e-08
9.46849e-08
9.49481e-08
9.52082e-08
9.5837e-08
9.62646e-08
9.70496e-08
9.76654e-08
9.83924e-08
9.93387e-08
1.00077e-07
1.01045e-07
1.02091e-07
1.02984e-07
1.04109e-07
1.053e-07
1.06375e-07
1.07593e-07
1.0891e-07
1.10046e-07
1.11496e-07
1.12708e-07
1.14049e-07
1.1551e-07
1.16915e-07
1.18374e-07
1.19986e-07
1.2145e-07
1.23014e-07
1.24562e-07
1.26004e-07
1.27403e-07
1.28904e-07
1.3028e-07
1.31778e-07
1.33169e-07
1.34518e-07
1.35854e-07
1.37042e-07
1.38238e-07
1.39289e-07
1.4022e-07
1.41082e-07
1.4177e-07
1.42345e-07
1.42761e-07
1.42993e-07
1.43055e-07
1.42932e-07
1.42642e-07
1.42207e-07
1.41595e-07
1.40819e-07
1.39937e-07
1.38888e-07
1.37697e-07
1.36449e-07
1.35036e-07
1.33541e-07
1.32024e-07
1.30403e-07
1.28792e-07
1.27237e-07
1.25645e-07
1.24132e-07
1.22725e-07
1.21358e-07
1.19994e-07
1.18875e-07
1.17749e-07
1.16752e-07
1.1591e-07
1.15118e-07
1.14593e-07
1.14054e-07
1.13671e-07
1.13575e-07
1.13396e-07
1.13509e-07
1.13705e-07
1.13978e-07
1.14399e-07
1.14829e-07
1.15393e-07
1.16017e-07
1.16704e-07
1.17466e-07
1.18296e-07
1.1918e-07
1.20132e-07
1.21102e-07
1.22137e-07
1.23174e-07
1.24239e-07
1.25279e-07
1.26297e-07
1.27274e-07
1.28172e-07
1.28996e-07
1.29698e-07
1.30228e-07
1.30602e-07
1.30783e-07
1.30758e-07
1.30493e-07
1.29985e-07
1.29259e-07
1.28323e-07
1.27098e-07
1.25575e-07
1.2378e-07
1.21671e-07
1.1916e-07
1.16113e-07
1.12341e-07
1.07484e-07
1.01023e-07
9.23406e-08
8.07352e-08
6.58754e-08
5.33372e-08
4.51535e-08
3.73762e-08
2.84165e-08
1.70798e-08
5.80947e-08
5.7217e-08
5.64884e-08
5.58855e-08
5.53803e-08
5.50155e-08
5.47397e-08
5.4544e-08
5.44254e-08
5.44118e-08
5.4437e-08
5.45496e-08
5.46967e-08
5.4954e-08
5.51694e-08
5.54988e-08
5.57764e-08
5.61038e-08
5.65091e-08
5.68508e-08
5.72827e-08
5.77498e-08
5.81641e-08
5.86742e-08
5.92225e-08
5.97292e-08
6.03045e-08
6.09281e-08
6.14843e-08
6.21817e-08
6.27833e-08
6.3443e-08
6.41734e-08
6.48861e-08
6.56352e-08
6.64692e-08
6.72399e-08
6.80661e-08
6.88943e-08
6.96745e-08
7.04387e-08
7.12678e-08
7.20416e-08
7.28898e-08
7.36907e-08
7.4477e-08
7.52696e-08
7.59913e-08
7.67292e-08
7.73955e-08
7.80002e-08
7.85771e-08
7.90612e-08
7.94887e-08
7.98315e-08
8.00691e-08
8.02117e-08
8.02439e-08
8.01835e-08
8.00394e-08
7.97915e-08
7.94474e-08
7.9042e-08
7.85393e-08
7.79521e-08
7.73338e-08
7.6621e-08
7.5862e-08
7.50944e-08
7.42671e-08
7.34544e-08
7.26863e-08
7.19037e-08
7.11724e-08
7.05043e-08
6.98569e-08
6.92079e-08
6.87026e-08
6.81878e-08
6.77462e-08
6.73921e-08
6.70578e-08
6.68769e-08
6.66827e-08
6.65707e-08
6.66208e-08
6.66232e-08
6.67882e-08
6.7e-08
6.72561e-08
6.75938e-08
6.79419e-08
6.83693e-08
6.88357e-08
6.93423e-08
6.99023e-08
7.05107e-08
7.11659e-08
7.18747e-08
7.26127e-08
7.34062e-08
7.42229e-08
7.50828e-08
7.59522e-08
7.6835e-08
7.77178e-08
7.85644e-08
7.94007e-08
8.01963e-08
8.09217e-08
8.15754e-08
8.21243e-08
8.25737e-08
8.28946e-08
8.31001e-08
8.31816e-08
8.31696e-08
8.30938e-08
8.29434e-08
8.26869e-08
8.2304e-08
8.1759e-08
8.10092e-08
7.99089e-08
7.84416e-08
7.6504e-08
7.35807e-08
6.90033e-08
6.29711e-08
5.98292e-08
5.74442e-08
5.32265e-08
4.42048e-08
2.81978e-08
4.38623e-08
4.35272e-08
4.32547e-08
4.30323e-08
4.28614e-08
4.27317e-08
4.26446e-08
4.25803e-08
4.25597e-08
4.25499e-08
4.25879e-08
4.26187e-08
4.27055e-08
4.27803e-08
4.28926e-08
4.30012e-08
4.31166e-08
4.32532e-08
4.33894e-08
4.35405e-08
4.37131e-08
4.38869e-08
4.40689e-08
4.42732e-08
4.4493e-08
4.47101e-08
4.49534e-08
4.52066e-08
4.54631e-08
4.57515e-08
4.60265e-08
4.63193e-08
4.66455e-08
4.69719e-08
4.7321e-08
4.77048e-08
4.8077e-08
4.84704e-08
4.88709e-08
4.92525e-08
4.96322e-08
5.00414e-08
5.04369e-08
5.08678e-08
5.12807e-08
5.16897e-08
5.21003e-08
5.24808e-08
5.28712e-08
5.32281e-08
5.35574e-08
5.38747e-08
5.41479e-08
5.43933e-08
5.45961e-08
5.47452e-08
5.48449e-08
5.48861e-08
5.48782e-08
5.4827e-08
5.47205e-08
5.45618e-08
5.43704e-08
5.4127e-08
5.38384e-08
5.35332e-08
5.31791e-08
5.28003e-08
5.24184e-08
5.20076e-08
5.16043e-08
5.12227e-08
5.08344e-08
5.04701e-08
5.01417e-08
4.98245e-08
4.9515e-08
4.92755e-08
4.9039e-08
4.88384e-08
4.86792e-08
4.85383e-08
4.84662e-08
4.83937e-08
4.83656e-08
4.84079e-08
4.84437e-08
4.85468e-08
4.86809e-08
4.88405e-08
4.90372e-08
4.92463e-08
4.94918e-08
4.9762e-08
5.00564e-08
5.03804e-08
5.07311e-08
5.11121e-08
5.15235e-08
5.19582e-08
5.2426e-08
5.29176e-08
5.34394e-08
5.39789e-08
5.45419e-08
5.51168e-08
5.56947e-08
5.6273e-08
5.68359e-08
5.7382e-08
5.7909e-08
5.84052e-08
5.88673e-08
5.92882e-08
5.96715e-08
6.00221e-08
6.03448e-08
6.06055e-08
6.08438e-08
6.1046e-08
6.11942e-08
6.12745e-08
6.12601e-08
6.11384e-08
6.08231e-08
6.03437e-08
6.02578e-08
6.06562e-08
6.21401e-08
6.6317e-08
6.8981e-08
6.64848e-08
5.67229e-08
3.80411e-08
3.93276e-08
3.92176e-08
3.91322e-08
3.90668e-08
3.90289e-08
3.89958e-08
3.89818e-08
3.89701e-08
3.89808e-08
3.8981e-08
3.90078e-08
3.90195e-08
3.90595e-08
3.90753e-08
3.9126e-08
3.91494e-08
3.91953e-08
3.92431e-08
3.92661e-08
3.93331e-08
3.93916e-08
3.94345e-08
3.95139e-08
3.95811e-08
3.96493e-08
3.97356e-08
3.98263e-08
3.9906e-08
4.00209e-08
4.01151e-08
4.02353e-08
4.03526e-08
4.04796e-08
4.06148e-08
4.07647e-08
4.0921e-08
4.10938e-08
4.12677e-08
4.14477e-08
4.16213e-08
4.17984e-08
4.19822e-08
4.21776e-08
4.23811e-08
4.25828e-08
4.27855e-08
4.29854e-08
4.31807e-08
4.33786e-08
4.35635e-08
4.37353e-08
4.38977e-08
4.40419e-08
4.41714e-08
4.42791e-08
4.43594e-08
4.44129e-08
4.44362e-08
4.44332e-08
4.44071e-08
4.4352e-08
4.42701e-08
4.41713e-08
4.40458e-08
4.38976e-08
4.37397e-08
4.35587e-08
4.33656e-08
4.3171e-08
4.29645e-08
4.2764e-08
4.25772e-08
4.23935e-08
4.22211e-08
4.20722e-08
4.19264e-08
4.17923e-08
4.16803e-08
4.15796e-08
4.14946e-08
4.14239e-08
4.13751e-08
4.13431e-08
4.13206e-08
4.13226e-08
4.13388e-08
4.13765e-08
4.14262e-08
4.14989e-08
4.15861e-08
4.16829e-08
4.17961e-08
4.19199e-08
4.2061e-08
4.2215e-08
4.23864e-08
4.25754e-08
4.27841e-08
4.30096e-08
4.32555e-08
4.35185e-08
4.38029e-08
4.41049e-08
4.44232e-08
4.47566e-08
4.5104e-08
4.54527e-08
4.58168e-08
4.61923e-08
4.65694e-08
4.69448e-08
4.73018e-08
4.76386e-08
4.79462e-08
4.82297e-08
4.84845e-08
4.87069e-08
4.89334e-08
4.91435e-08
4.93409e-08
4.95734e-08
4.98862e-08
5.02723e-08
5.06867e-08
5.1301e-08
5.2241e-08
5.38607e-08
5.70562e-08
6.28893e-08
7.19668e-08
7.53276e-08
7.30173e-08
6.3714e-08
4.51293e-08
3.78858e-08
3.78736e-08
3.78692e-08
3.78638e-08
3.78783e-08
3.78865e-08
3.78976e-08
3.79131e-08
3.79319e-08
3.79402e-08
3.79589e-08
3.79671e-08
3.79872e-08
3.79873e-08
3.80038e-08
3.80008e-08
3.80118e-08
3.80248e-08
3.80138e-08
3.80381e-08
3.80477e-08
3.80434e-08
3.80742e-08
3.80858e-08
3.80908e-08
3.81227e-08
3.8147e-08
3.81548e-08
3.82016e-08
3.82147e-08
3.82608e-08
3.83021e-08
3.83426e-08
3.83941e-08
3.84543e-08
3.8506e-08
3.85801e-08
3.86507e-08
3.87244e-08
3.87974e-08
3.88759e-08
3.89491e-08
3.90412e-08
3.91321e-08
3.92263e-08
3.93218e-08
3.94099e-08
3.9504e-08
3.95977e-08
3.96877e-08
3.97732e-08
3.98497e-08
3.992e-08
3.99826e-08
4.00344e-08
4.00727e-08
4.00967e-08
4.01056e-08
4.01008e-08
4.00839e-08
4.00517e-08
4.00058e-08
3.99517e-08
3.98837e-08
3.98052e-08
3.9722e-08
3.96273e-08
3.95277e-08
3.94279e-08
3.93252e-08
3.92276e-08
3.91345e-08
3.90467e-08
3.89629e-08
3.88931e-08
3.88197e-08
3.87636e-08
3.8707e-08
3.86674e-08
3.8635e-08
3.86022e-08
3.85954e-08
3.85785e-08
3.85783e-08
3.85931e-08
3.8593e-08
3.8628e-08
3.86462e-08
3.86836e-08
3.87299e-08
3.87685e-08
3.88279e-08
3.8882e-08
3.89479e-08
3.90203e-08
3.9099e-08
3.91868e-08
3.9285e-08
3.93889e-08
3.95066e-08
3.96279e-08
3.97689e-08
3.99152e-08
4.00798e-08
4.02538e-08
4.0441e-08
4.0641e-08
4.08396e-08
4.10431e-08
4.12492e-08
4.1451e-08
4.16501e-08
4.18421e-08
4.20287e-08
4.22154e-08
4.2413e-08
4.26243e-08
4.28462e-08
4.31241e-08
4.34907e-08
4.38283e-08
4.41824e-08
4.4652e-08
4.53442e-08
4.64442e-08
4.83028e-08
5.14588e-08
5.65386e-08
6.44853e-08
7.40688e-08
7.66527e-08
7.42445e-08
6.55848e-08
4.90101e-08
3.74362e-08
3.74665e-08
3.74962e-08
3.75163e-08
3.75517e-08
3.75765e-08
3.76002e-08
3.76282e-08
3.76532e-08
3.76628e-08
3.76803e-08
3.76907e-08
3.77078e-08
3.77023e-08
3.77082e-08
3.76931e-08
3.769e-08
3.76931e-08
3.76738e-08
3.76776e-08
3.76658e-08
3.76493e-08
3.76596e-08
3.76449e-08
3.76276e-08
3.76339e-08
3.76279e-08
3.76081e-08
3.76225e-08
3.76053e-08
3.76189e-08
3.76244e-08
3.76268e-08
3.76416e-08
3.76611e-08
3.76657e-08
3.76925e-08
3.77149e-08
3.77394e-08
3.77666e-08
3.78003e-08
3.78246e-08
3.78653e-08
3.79035e-08
3.79469e-08
3.79926e-08
3.80289e-08
3.8074e-08
3.81163e-08
3.8158e-08
3.81993e-08
3.82326e-08
3.82651e-08
3.8293e-08
3.8315e-08
3.83302e-08
3.83373e-08
3.83366e-08
3.83284e-08
3.83141e-08
3.82911e-08
3.82604e-08
3.82265e-08
3.81854e-08
3.81404e-08
3.8093e-08
3.80405e-08
3.79878e-08
3.79353e-08
3.78813e-08
3.78331e-08
3.77867e-08
3.77491e-08
3.77137e-08
3.76883e-08
3.7658e-08
3.7645e-08
3.76258e-08
3.76223e-08
3.76195e-08
3.76132e-08
3.76246e-08
3.76225e-08
3.76383e-08
3.76548e-08
3.7657e-08
3.76857e-08
3.76953e-08
3.77174e-08
3.77445e-08
3.77573e-08
3.77906e-08
3.7812e-08
3.78431e-08
3.78729e-08
3.79e-08
3.793e-08
3.79649e-08
3.80007e-08
3.80493e-08
3.80933e-08
3.8157e-08
3.82202e-08
3.83038e-08
3.83896e-08
3.84836e-08
3.859e-08
3.87023e-08
3.88243e-08
3.89499e-08
3.90745e-08
3.92106e-08
3.93409e-08
3.94828e-08
3.96456e-08
3.98436e-08
4.00778e-08
4.032e-08
4.05874e-08
4.09078e-08
4.13083e-08
4.18274e-08
4.25224e-08
4.35013e-08
4.4991e-08
4.73523e-08
5.10592e-08
5.67857e-08
6.51889e-08
7.33332e-08
7.53242e-08
7.32136e-08
6.52135e-08
5.06233e-08
3.73016e-08
3.73529e-08
3.73981e-08
3.74283e-08
3.74767e-08
3.7511e-08
3.75407e-08
3.75755e-08
3.76051e-08
3.76151e-08
3.76338e-08
3.76463e-08
3.76642e-08
3.76574e-08
3.76598e-08
3.76427e-08
3.76351e-08
3.76352e-08
3.76155e-08
3.76127e-08
3.75922e-08
3.75733e-08
3.75786e-08
3.75538e-08
3.75295e-08
3.75277e-08
3.75098e-08
3.74823e-08
3.74814e-08
3.74564e-08
3.74561e-08
3.74444e-08
3.74309e-08
3.74328e-08
3.74318e-08
3.7419e-08
3.74266e-08
3.74256e-08
3.74259e-08
3.7431e-08
3.74412e-08
3.74427e-08
3.74589e-08
3.74718e-08
3.74896e-08
3.75122e-08
3.75243e-08
3.75445e-08
3.7563e-08
3.75818e-08
3.76028e-08
3.76157e-08
3.76298e-08
3.7641e-08
3.76485e-08
3.76524e-08
3.76515e-08
3.76457e-08
3.76362e-08
3.76241e-08
3.76067e-08
3.75854e-08
3.75627e-08
3.75354e-08
3.75087e-08
3.74799e-08
3.74484e-08
3.74201e-08
3.73914e-08
3.73647e-08
3.7345e-08
3.73236e-08
3.73115e-08
3.73007e-08
3.72965e-08
3.72872e-08
3.7294e-08
3.7292e-08
3.73029e-08
3.73129e-08
3.7319e-08
3.7339e-08
3.73459e-08
3.73694e-08
3.73911e-08
3.73992e-08
3.74281e-08
3.74393e-08
3.74594e-08
3.748e-08
3.74835e-08
3.75015e-08
3.75054e-08
3.7519e-08
3.75332e-08
3.75453e-08
3.75603e-08
3.75783e-08
3.75929e-08
3.76177e-08
3.76313e-08
3.76592e-08
3.76831e-08
3.77211e-08
3.77636e-08
3.78083e-08
3.78677e-08
3.79375e-08
3.80217e-08
3.81244e-08
3.82463e-08
3.83916e-08
3.85462e-08
3.87091e-08
3.88828e-08
3.90774e-08
3.93039e-08
3.95837e-08
3.99384e-08
4.03825e-08
4.09242e-08
4.15813e-08
4.24031e-08
4.35194e-08
4.51465e-08
4.76382e-08
5.15089e-08
5.72107e-08
6.46854e-08
6.99872e-08
7.12645e-08
6.9714e-08
6.3274e-08
5.09749e-08
3.72525e-08
3.73249e-08
3.73807e-08
3.74156e-08
3.74772e-08
3.75203e-08
3.75559e-08
3.75981e-08
3.76335e-08
3.76434e-08
3.76653e-08
3.76826e-08
3.77068e-08
3.76984e-08
3.76959e-08
3.76817e-08
3.76723e-08
3.76723e-08
3.76506e-08
3.76404e-08
3.76181e-08
3.75967e-08
3.75991e-08
3.75741e-08
3.75458e-08
3.75375e-08
3.7518e-08
3.74873e-08
3.74803e-08
3.74548e-08
3.74477e-08
3.74312e-08
3.74137e-08
3.74122e-08
3.74027e-08
3.73849e-08
3.73855e-08
3.73771e-08
3.73675e-08
3.73637e-08
3.73618e-08
3.73555e-08
3.73625e-08
3.73639e-08
3.73693e-08
3.73788e-08
3.73791e-08
3.7386e-08
3.73921e-08
3.73974e-08
3.74058e-08
3.74072e-08
3.74107e-08
3.74135e-08
3.74136e-08
3.74115e-08
3.74059e-08
3.73977e-08
3.73887e-08
3.7378e-08
3.73633e-08
3.7348e-08
3.73318e-08
3.73111e-08
3.72949e-08
3.72754e-08
3.72564e-08
3.72407e-08
3.72243e-08
3.72111e-08
3.72054e-08
3.71953e-08
3.71955e-08
3.71951e-08
3.72026e-08
3.72029e-08
3.72208e-08
3.72288e-08
3.72483e-08
3.72671e-08
3.72808e-08
3.73076e-08
3.73209e-08
3.73495e-08
3.7377e-08
3.73906e-08
3.74219e-08
3.74323e-08
3.74478e-08
3.74662e-08
3.74677e-08
3.74841e-08
3.74862e-08
3.74982e-08
3.75139e-08
3.75271e-08
3.75425e-08
3.75612e-08
3.75735e-08
3.75958e-08
3.76068e-08
3.76304e-08
3.76513e-08
3.76777e-08
3.77144e-08
3.77598e-08
3.78159e-08
3.78823e-08
3.79599e-08
3.8046e-08
3.8137e-08
3.82494e-08
3.8384e-08
3.85425e-08
3.87284e-08
3.89496e-08
3.92035e-08
3.94933e-08
3.98295e-08
4.02348e-08
4.07344e-08
4.13647e-08
4.21883e-08
4.33126e-08
4.49535e-08
4.74477e-08
5.1209e-08
5.65488e-08
6.18289e-08
6.43738e-08
6.50004e-08
6.38897e-08
5.95191e-08
5.03587e-08
3.72755e-08
3.737e-08
3.74417e-08
3.74894e-08
3.75726e-08
3.76332e-08
3.76795e-08
3.77363e-08
3.7782e-08
3.7795e-08
3.78215e-08
3.78436e-08
3.78749e-08
3.78683e-08
3.78626e-08
3.78413e-08
3.78284e-08
3.78291e-08
3.7803e-08
3.77857e-08
3.7761e-08
3.77334e-08
3.7729e-08
3.77071e-08
3.76754e-08
3.76544e-08
3.76324e-08
3.75973e-08
3.75779e-08
3.75504e-08
3.75318e-08
3.75097e-08
3.74881e-08
3.74789e-08
3.74652e-08
3.74453e-08
3.74381e-08
3.74278e-08
3.74124e-08
3.73992e-08
3.73934e-08
3.73824e-08
3.73875e-08
3.73864e-08
3.73875e-08
3.73918e-08
3.73887e-08
3.73919e-08
3.73945e-08
3.73958e-08
3.73994e-08
3.73968e-08
3.73961e-08
3.73954e-08
3.73914e-08
3.73856e-08
3.73767e-08
3.73673e-08
3.73579e-08
3.73465e-08
3.7332e-08
3.73197e-08
3.73055e-08
3.72873e-08
3.72752e-08
3.72583e-08
3.72446e-08
3.72335e-08
3.72212e-08
3.72136e-08
3.7213e-08
3.72088e-08
3.72157e-08
3.72224e-08
3.72374e-08
3.72456e-08
3.72733e-08
3.7291e-08
3.73187e-08
3.73472e-08
3.7371e-08
3.74077e-08
3.74299e-08
3.74647e-08
3.74998e-08
3.75196e-08
3.75539e-08
3.7569e-08
3.75892e-08
3.76142e-08
3.76242e-08
3.76492e-08
3.76591e-08
3.76723e-08
3.76827e-08
3.76851e-08
3.76844e-08
3.76904e-08
3.76892e-08
3.77058e-08
3.77087e-08
3.77268e-08
3.77453e-08
3.77687e-08
3.77998e-08
3.78367e-08
3.78866e-08
3.79556e-08
3.8042e-08
3.81431e-08
3.82577e-08
3.83917e-08
3.85449e-08
3.87168e-08
3.89093e-08
3.91312e-08
3.93862e-08
3.96823e-08
4.00362e-08
4.04615e-08
4.09666e-08
4.15789e-08
4.23643e-08
4.3454e-08
4.50241e-08
4.73163e-08
5.05751e-08
5.4479e-08
5.66587e-08
5.72397e-08
5.70851e-08
5.6096e-08
5.41347e-08
4.9045e-08
3.73534e-08
3.74748e-08
3.75653e-08
3.76258e-08
3.77265e-08
3.77975e-08
3.78466e-08
3.79154e-08
3.79692e-08
3.79859e-08
3.80158e-08
3.80415e-08
3.80777e-08
3.80802e-08
3.8078e-08
3.80544e-08
3.80382e-08
3.80431e-08
3.80156e-08
3.79969e-08
3.79749e-08
3.79458e-08
3.79389e-08
3.79207e-08
3.78925e-08
3.78647e-08
3.78296e-08
3.77888e-08
3.77617e-08
3.77232e-08
3.77011e-08
3.76683e-08
3.76388e-08
3.7621e-08
3.75996e-08
3.75755e-08
3.75572e-08
3.75357e-08
3.7509e-08
3.74862e-08
3.7476e-08
3.74581e-08
3.74582e-08
3.74544e-08
3.74501e-08
3.74495e-08
3.74415e-08
3.74398e-08
3.7439e-08
3.7436e-08
3.74361e-08
3.74303e-08
3.74268e-08
3.74239e-08
3.74174e-08
3.741e-08
3.73997e-08
3.73902e-08
3.73809e-08
3.73693e-08
3.73557e-08
3.73457e-08
3.73331e-08
3.73175e-08
3.73091e-08
3.72948e-08
3.7286e-08
3.72805e-08
3.72745e-08
3.72749e-08
3.72828e-08
3.7288e-08
3.73044e-08
3.73208e-08
3.73449e-08
3.73616e-08
3.73986e-08
3.7424e-08
3.7456e-08
3.74887e-08
3.75161e-08
3.75556e-08
3.75796e-08
3.76128e-08
3.76487e-08
3.76695e-08
3.77028e-08
3.77188e-08
3.7736e-08
3.77563e-08
3.77646e-08
3.77862e-08
3.77929e-08
3.78035e-08
3.7812e-08
3.78153e-08
3.7813e-08
3.7821e-08
3.782e-08
3.78353e-08
3.78394e-08
3.78592e-08
3.78731e-08
3.78975e-08
3.79309e-08
3.79715e-08
3.80207e-08
3.80759e-08
3.81376e-08
3.82095e-08
3.82942e-08
3.83982e-08
3.85237e-08
3.86751e-08
3.88547e-08
3.90645e-08
3.93024e-08
3.95701e-08
3.98714e-08
4.02214e-08
4.06514e-08
4.12041e-08
4.19329e-08
4.29032e-08
4.42467e-08
4.61732e-08
4.88153e-08
5.0715e-08
5.11564e-08
5.10264e-08
5.03997e-08
4.92643e-08
4.88803e-08
4.74301e-08
3.74212e-08
3.75602e-08
3.76594e-08
3.77201e-08
3.78291e-08
3.79019e-08
3.79458e-08
3.80186e-08
3.8077e-08
3.80991e-08
3.81273e-08
3.81567e-08
3.81991e-08
3.8212e-08
3.82112e-08
3.8195e-08
3.81775e-08
3.81878e-08
3.81624e-08
3.8143e-08
3.81317e-08
3.81065e-08
3.81025e-08
3.80977e-08
3.80778e-08
3.80572e-08
3.80341e-08
3.79991e-08
3.79761e-08
3.79434e-08
3.79194e-08
3.78911e-08
3.78667e-08
3.7848e-08
3.78272e-08
3.78002e-08
3.77819e-08
3.77571e-08
3.77214e-08
3.76867e-08
3.7671e-08
3.76447e-08
3.76374e-08
3.76279e-08
3.76142e-08
3.76027e-08
3.75846e-08
3.75762e-08
3.7568e-08
3.75556e-08
3.75501e-08
3.75387e-08
3.75314e-08
3.75252e-08
3.75144e-08
3.7505e-08
3.74931e-08
3.74839e-08
3.74756e-08
3.74648e-08
3.74548e-08
3.74501e-08
3.74414e-08
3.74309e-08
3.74282e-08
3.7417e-08
3.74119e-08
3.74103e-08
3.74062e-08
3.74069e-08
3.74151e-08
3.74185e-08
3.7431e-08
3.74416e-08
3.74591e-08
3.74676e-08
3.74958e-08
3.75132e-08
3.75372e-08
3.7562e-08
3.75826e-08
3.76165e-08
3.76358e-08
3.76626e-08
3.76924e-08
3.77088e-08
3.77369e-08
3.7748e-08
3.77606e-08
3.77745e-08
3.77791e-08
3.77993e-08
3.78069e-08
3.78189e-08
3.78281e-08
3.78374e-08
3.78407e-08
3.7856e-08
3.78614e-08
3.78846e-08
3.78986e-08
3.79292e-08
3.79555e-08
3.7991e-08
3.80309e-08
3.80742e-08
3.81225e-08
3.81718e-08
3.82234e-08
3.82814e-08
3.83466e-08
3.84261e-08
3.85193e-08
3.86325e-08
3.87696e-08
3.89323e-08
3.91143e-08
3.93113e-08
3.95257e-08
3.97703e-08
4.00658e-08
4.04461e-08
4.09637e-08
4.16884e-08
4.26943e-08
4.40327e-08
4.53535e-08
4.63882e-08
4.71144e-08
4.72689e-08
4.69102e-08
4.60003e-08
4.62208e-08
4.61941e-08
3.7415e-08
3.75589e-08
3.76559e-08
3.77161e-08
3.78297e-08
3.79037e-08
3.79427e-08
3.80203e-08
3.8084e-08
3.81131e-08
3.81378e-08
3.81714e-08
3.82195e-08
3.82394e-08
3.82385e-08
3.82331e-08
3.82125e-08
3.82249e-08
3.82034e-08
3.81842e-08
3.81791e-08
3.81562e-08
3.81547e-08
3.81626e-08
3.81478e-08
3.81339e-08
3.8126e-08
3.81008e-08
3.80803e-08
3.80557e-08
3.80362e-08
3.80142e-08
3.79973e-08
3.79828e-08
3.79703e-08
3.79521e-08
3.79398e-08
3.79226e-08
3.78946e-08
3.78626e-08
3.78529e-08
3.78317e-08
3.78296e-08
3.78255e-08
3.78156e-08
3.78061e-08
3.7787e-08
3.77784e-08
3.77702e-08
3.77549e-08
3.77479e-08
3.77345e-08
3.77231e-08
3.77127e-08
3.76947e-08
3.76786e-08
3.76595e-08
3.76429e-08
3.76283e-08
3.761e-08
3.75905e-08
3.75761e-08
3.75573e-08
3.75318e-08
3.75147e-08
3.74907e-08
3.74701e-08
3.74553e-08
3.74378e-08
3.74253e-08
3.74234e-08
3.74164e-08
3.74186e-08
3.7417e-08
3.74236e-08
3.74186e-08
3.74317e-08
3.74328e-08
3.7438e-08
3.7442e-08
3.7439e-08
3.74492e-08
3.74454e-08
3.74466e-08
3.74512e-08
3.74474e-08
3.74562e-08
3.74541e-08
3.74608e-08
3.74652e-08
3.74611e-08
3.7472e-08
3.74709e-08
3.74746e-08
3.74722e-08
3.74793e-08
3.74791e-08
3.74923e-08
3.74962e-08
3.75213e-08
3.75352e-08
3.75679e-08
3.75958e-08
3.76346e-08
3.76786e-08
3.77278e-08
3.77834e-08
3.78424e-08
3.79028e-08
3.79653e-08
3.80299e-08
3.80967e-08
3.81703e-08
3.8258e-08
3.83621e-08
3.8482e-08
3.86152e-08
3.87619e-08
3.89264e-08
3.91192e-08
3.93594e-08
3.96697e-08
4.0073e-08
4.05881e-08
4.1205e-08
4.1796e-08
4.23859e-08
4.29168e-08
4.33795e-08
4.35778e-08
4.34642e-08
4.29963e-08
4.3385e-08
4.48059e-08
3.73861e-08
3.75285e-08
3.76226e-08
3.76783e-08
3.77885e-08
3.78573e-08
3.78847e-08
3.79612e-08
3.80301e-08
3.80632e-08
3.80802e-08
3.81175e-08
3.81747e-08
3.82011e-08
3.82004e-08
3.82071e-08
3.81822e-08
3.81941e-08
3.8179e-08
3.81567e-08
3.81564e-08
3.81379e-08
3.8138e-08
3.81549e-08
3.81418e-08
3.81346e-08
3.81357e-08
3.81143e-08
3.80939e-08
3.8074e-08
3.80581e-08
3.8039e-08
3.80254e-08
3.8012e-08
3.80045e-08
3.79917e-08
3.79827e-08
3.79706e-08
3.79479e-08
3.79187e-08
3.79125e-08
3.78956e-08
3.78963e-08
3.78959e-08
3.78902e-08
3.78831e-08
3.78644e-08
3.78533e-08
3.78437e-08
3.78276e-08
3.7816e-08
3.77969e-08
3.77778e-08
3.7762e-08
3.77392e-08
3.77165e-08
3.76908e-08
3.76668e-08
3.76463e-08
3.76228e-08
3.75966e-08
3.75765e-08
3.75534e-08
3.7523e-08
3.74998e-08
3.74706e-08
3.74417e-08
3.74183e-08
3.73916e-08
3.73661e-08
3.73509e-08
3.73283e-08
3.73121e-08
3.72909e-08
3.72812e-08
3.72589e-08
3.72579e-08
3.72461e-08
3.7243e-08
3.724e-08
3.72329e-08
3.72434e-08
3.72407e-08
3.72477e-08
3.72548e-08
3.72553e-08
3.72669e-08
3.72644e-08
3.72654e-08
3.72547e-08
3.72391e-08
3.72367e-08
3.72251e-08
3.72167e-08
3.72003e-08
3.71909e-08
3.71712e-08
3.71645e-08
3.7141e-08
3.71394e-08
3.71185e-08
3.71195e-08
3.71074e-08
3.71043e-08
3.70988e-08
3.70917e-08
3.70881e-08
3.70842e-08
3.70797e-08
3.70745e-08
3.70662e-08
3.70586e-08
3.70494e-08
3.70438e-08
3.70406e-08
3.70428e-08
3.70502e-08
3.70673e-08
3.70977e-08
3.71471e-08
3.72196e-08
3.73185e-08
3.74457e-08
3.75855e-08
3.77436e-08
3.79561e-08
3.82501e-08
3.86775e-08
3.92588e-08
3.96989e-08
3.98313e-08
3.97735e-08
3.95678e-08
3.9858e-08
3.73242e-08
3.74565e-08
3.75479e-08
3.75985e-08
3.77062e-08
3.7765e-08
3.77883e-08
3.78612e-08
3.79416e-08
3.79785e-08
3.79966e-08
3.80365e-08
3.80999e-08
3.81315e-08
3.81322e-08
3.81434e-08
3.81175e-08
3.81295e-08
3.81211e-08
3.80953e-08
3.80966e-08
3.80808e-08
3.80797e-08
3.8103e-08
3.8091e-08
3.80972e-08
3.81117e-08
3.80938e-08
3.80743e-08
3.80582e-08
3.80451e-08
3.80272e-08
3.8015e-08
3.80001e-08
3.79967e-08
3.79865e-08
3.79788e-08
3.7969e-08
3.79484e-08
3.79198e-08
3.79144e-08
3.78981e-08
3.78985e-08
3.78992e-08
3.78937e-08
3.78868e-08
3.78676e-08
3.78546e-08
3.78441e-08
3.78263e-08
3.78128e-08
3.7792e-08
3.77697e-08
3.77519e-08
3.77275e-08
3.77027e-08
3.76757e-08
3.76476e-08
3.76238e-08
3.75971e-08
3.75663e-08
3.75397e-08
3.75109e-08
3.74733e-08
3.74408e-08
3.74028e-08
3.73619e-08
3.7326e-08
3.72862e-08
3.72484e-08
3.72265e-08
3.71984e-08
3.71843e-08
3.71674e-08
3.71669e-08
3.7153e-08
3.71654e-08
3.71621e-08
3.71707e-08
3.71767e-08
3.7176e-08
3.71931e-08
3.71923e-08
3.72046e-08
3.72145e-08
3.72171e-08
3.7231e-08
3.72293e-08
3.72352e-08
3.72212e-08
3.72006e-08
3.71956e-08
3.71749e-08
3.7154e-08
3.71258e-08
3.71047e-08
3.70692e-08
3.70508e-08
3.70071e-08
3.69883e-08
3.69437e-08
3.69249e-08
3.68901e-08
3.68658e-08
3.68392e-08
3.681e-08
3.67874e-08
3.6763e-08
3.67404e-08
3.67198e-08
3.66953e-08
3.66741e-08
3.66497e-08
3.66315e-08
3.66116e-08
3.65996e-08
3.65907e-08
3.65893e-08
3.65898e-08
3.6595e-08
3.66066e-08
3.66305e-08
3.66699e-08
3.67445e-08
3.68598e-08
3.69964e-08
3.71702e-08
3.74266e-08
3.77909e-08
3.80951e-08
3.82221e-08
3.82086e-08
3.80075e-08
3.75955e-08
3.72289e-08
3.73458e-08
3.74159e-08
3.74934e-08
3.75826e-08
3.76511e-08
3.76747e-08
3.77474e-08
3.78424e-08
3.78884e-08
3.79155e-08
3.79586e-08
3.80271e-08
3.8066e-08
3.80696e-08
3.80839e-08
3.806e-08
3.80756e-08
3.80763e-08
3.80481e-08
3.80539e-08
3.80392e-08
3.80322e-08
3.80594e-08
3.8048e-08
3.80585e-08
3.80826e-08
3.80671e-08
3.80491e-08
3.80356e-08
3.80248e-08
3.80042e-08
3.79906e-08
3.79679e-08
3.79683e-08
3.7958e-08
3.79483e-08
3.7944e-08
3.79285e-08
3.79011e-08
3.78972e-08
3.78826e-08
3.78827e-08
3.78849e-08
3.78804e-08
3.78755e-08
3.78584e-08
3.7844e-08
3.7833e-08
3.78148e-08
3.78008e-08
3.7779e-08
3.77533e-08
3.7734e-08
3.77066e-08
3.76763e-08
3.76428e-08
3.7607e-08
3.75766e-08
3.75427e-08
3.75025e-08
3.74669e-08
3.74292e-08
3.73824e-08
3.73445e-08
3.73022e-08
3.72602e-08
3.72282e-08
3.71955e-08
3.71678e-08
3.71587e-08
3.71416e-08
3.71392e-08
3.71314e-08
3.71394e-08
3.71318e-08
3.71525e-08
3.71554e-08
3.71702e-08
3.7182e-08
3.71865e-08
3.72095e-08
3.72101e-08
3.72251e-08
3.72393e-08
3.72436e-08
3.72588e-08
3.72539e-08
3.72596e-08
3.72403e-08
3.7216e-08
3.72099e-08
3.7184e-08
3.71603e-08
3.71306e-08
3.71102e-08
3.70714e-08
3.70519e-08
3.70037e-08
3.6983e-08
3.69296e-08
3.6903e-08
3.68562e-08
3.68217e-08
3.67843e-08
3.67454e-08
3.67152e-08
3.66849e-08
3.66605e-08
3.66406e-08
3.66191e-08
3.66026e-08
3.65826e-08
3.65676e-08
3.65503e-08
3.6537e-08
3.6522e-08
3.65088e-08
3.64912e-08
3.64713e-08
3.64524e-08
3.64456e-08
3.64533e-08
3.64453e-08
3.64548e-08
3.65033e-08
3.66165e-08
3.67945e-08
3.70307e-08
3.72574e-08
3.7393e-08
3.74273e-08
3.73458e-08
3.71558e-08
3.71078e-08
3.71915e-08
3.72545e-08
3.73322e-08
3.74436e-08
3.75177e-08
3.75473e-08
3.76228e-08
3.773e-08
3.77923e-08
3.78279e-08
3.78736e-08
3.79496e-08
3.79992e-08
3.80084e-08
3.8028e-08
3.80052e-08
3.80292e-08
3.80409e-08
3.80122e-08
3.80232e-08
3.80132e-08
3.80013e-08
3.80337e-08
3.80265e-08
3.80363e-08
3.80703e-08
3.8058e-08
3.80408e-08
3.8029e-08
3.80196e-08
3.79972e-08
3.79817e-08
3.79572e-08
3.79541e-08
3.79408e-08
3.79249e-08
3.79183e-08
3.79021e-08
3.78742e-08
3.78701e-08
3.78544e-08
3.78492e-08
3.785e-08
3.78428e-08
3.78343e-08
3.78137e-08
3.77973e-08
3.77856e-08
3.77647e-08
3.7747e-08
3.77218e-08
3.76916e-08
3.76691e-08
3.76396e-08
3.76072e-08
3.75713e-08
3.7532e-08
3.75e-08
3.74658e-08
3.74284e-08
3.74008e-08
3.73712e-08
3.73327e-08
3.73061e-08
3.72737e-08
3.72417e-08
3.7219e-08
3.71935e-08
3.71737e-08
3.71736e-08
3.71671e-08
3.7177e-08
3.71853e-08
3.7211e-08
3.72222e-08
3.72665e-08
3.72945e-08
3.73363e-08
3.73763e-08
3.74104e-08
3.74653e-08
3.74902e-08
3.75356e-08
3.7578e-08
3.76026e-08
3.76371e-08
3.76448e-08
3.76628e-08
3.76414e-08
3.76103e-08
3.75989e-08
3.75584e-08
3.75216e-08
3.74774e-08
3.74468e-08
3.73947e-08
3.73745e-08
3.73189e-08
3.72978e-08
3.72382e-08
3.72062e-08
3.71539e-08
3.71087e-08
3.70619e-08
3.70128e-08
3.69676e-08
3.69186e-08
3.68763e-08
3.68383e-08
3.67969e-08
3.67624e-08
3.67241e-08
3.66962e-08
3.66668e-08
3.66443e-08
3.66204e-08
3.66016e-08
3.65799e-08
3.65563e-08
3.6534e-08
3.65175e-08
3.64938e-08
3.65037e-08
3.65346e-08
3.65617e-08
3.65994e-08
3.66587e-08
3.67543e-08
3.68691e-08
3.69538e-08
3.69886e-08
3.69488e-08
3.68258e-08
3.69368e-08
3.6986e-08
3.70486e-08
3.71492e-08
3.72439e-08
3.7318e-08
3.73767e-08
3.74326e-08
3.75652e-08
3.76482e-08
3.76983e-08
3.77447e-08
3.78328e-08
3.7902e-08
3.79264e-08
3.79535e-08
3.79401e-08
3.79736e-08
3.79997e-08
3.79738e-08
3.79929e-08
3.79922e-08
3.79762e-08
3.80133e-08
3.80126e-08
3.80246e-08
3.80677e-08
3.80578e-08
3.80429e-08
3.80416e-08
3.80387e-08
3.80217e-08
3.80057e-08
3.79821e-08
3.79752e-08
3.79608e-08
3.79386e-08
3.79274e-08
3.79072e-08
3.7877e-08