/*--------------------------------*- C++ -*----------------------------------*\
| =========                 |                                                 |
| \\      /  F ield         | OpenFOAM: The Open Source CFD Toolbox           |
|  \\    /   O peration     | Version:  v1912                                 |
|   \\  /    A nd           | Website:  www.openfoam.com                      |
|    \\/     M anipulation  |                                                 |
\*---------------------------------------------------------------------------*/
FoamFile
{
    version     2.0;
    format      ascii;
    class       volScalarField;
    location    "100";
    object      p;
}
// * * * * * * * * * * * * * * * * * * * * * * * * * * * * * * * * * * * * * //

dimensions      [1 -1 -2 0 0 0 0];


internalField   nonuniform List<scalar> 
14268
(
127801
126087
124443
122877
121398
120013
118726
117540
116458
115479
114599
113816
113126
112525
112005
111559
111183
110870
110616
110413
110258
110145
110070
110028
110016
110031
110068
110124
110198
110284
110381
110484
110626
110742
110858
110974
111086
111192
111288
111373
111444
111498
111532
111544
111530
111490
111418
111314
111175
110997
110779
110517
110211
109859
109458
109008
108506
107957
107357
106707
106008
105261
104468
103631
102752
101836
100885
99902.8
98894.1
97863.6
96816.1
95756.7
94690.7
93623.6
92560.8
91507.5
90469.3
89451
88457.3
87491.9
86560.6
85666.1
84811.4
83999.1
83231.2
82509.4
81834.8
81207.7
80628.2
80095.8
79610.3
79169
78770.6
78413
78093.7
77810.3
77559.4
77338.1
77142.4
76969.1
76813.5
76672.3
76540.5
76419.3
76297.4
76173.4
76044.6
75908.2
75761.8
75603.6
75432.8
75249.6
75055
74851.7
74643
74433.7
74229.2
74035.9
73860.5
73710.1
73591.3
73510
73470.7
73475.3
73522.8
73607.9
73721.2
73847.4
73968.6
74058.5
74092.9
74040.6
73867.6
73538.6
123029
121349
119740
118210
116768
115419
114169
113022
111978
111036
110194
109449
108798
108234
107751
107343
107004
106729
106511
106345
106226
106149
106110
106104
106128
106178
106250
106342
106451
106573
106704
106838
107024
107170
107321
107472
107619
107759
107891
108010
108116
108204
108272
108319
108340
108333
108296
108227
108121
107978
107793
107566
107294
106975
106609
106192
105725
105209
104643
104027
103362
102648
101889
101086
100241
99358.7
98441.6
97493.6
96519
95522.6
94509.4
93484.3
92452.9
91420.3
90392
89373.4
88369.8
87386.3
86427.4
85497
84600.7
83741.2
82921.6
82144.4
81411.7
80724.9
80085.5
79493.5
78949.1
78451.9
78001.4
77595.2
77231.8
76909.3
76625
76376.4
76160.4
75974
75813.1
75674.6
75553.8
75447.2
75350.2
75263.6
75176.3
75086.9
74992.7
74890.8
74778.9
74655.2
74518.9
74370.2
74210.1
74041.3
73867.2
73692.4
73522.5
73363.8
73223
73107.2
73023
72976.4
72971.8
73011.1
73093.1
73212.8
73360.7
73521.4
73677.1
73801.5
73870.2
73852.3
73713.6
73418.9
118237
116590
115014
113520
112113
110802
109590
108480
107475
106572
105770
105065
104453
103928
103484
103115
102814
102577
102397
102268
102187
102147
102144
102175
102235
102321
102429
102557
102701
102859
103027
103201
103410
103596
103783
103969
104152
104327
104493
104648
104788
104911
105015
105096
105151
105180
105177
105142
105071
104962
104812
104619
104381
104096
103763
103381
102947
102465
101933
101351
100719
100039
99312.9
98543.2
97732.3
96883.3
95999.9
95085.6
94144.7
93182.2
92202.8
91211.8
90214.5
89216.1
88222.2
87238
86269.1
85320.1
84396
83500.5
82639.1
81814.6
81030.1
80288
79590.4
78938.9
78334.7
77777.9
77268.7
76806.7
76391.4
76020.4
75692.1
75404.6
75155.4
74941.8
74760.8
74609.4
74483.4
74379.8
74293.8
74222
74159.7
74107.8
74055.2
74000.4
73940.8
73873.5
73796.1
73706.9
73605.1
73490.9
73365.3
73231
73091.3
72951
72815.7
72691.6
72585.4
72504.2
72454.6
72442.7
72472.7
72546.7
72663.4
72817.7
73000.2
73195.4
73385.6
73544.4
73647.6
73664
73559.7
73299.3
113423
111808
110266
108806
107435
106161
104987
103917
102951
102088
101327
100662
100090
99606.9
99203.1
98873.5
98612.8
98414.7
98273.2
98183.5
98139.7
98137.4
98172.6
98240.3
98337.1
98459.7
98604.6
98768.5
98949
99142.7
99347
99559.5
99797.4
100022
100245
100466
100684
100895
101097
101287
101462
101620
101759
101875
101966
102029
102061
102061
102025
101950
101834
101676
101472
101221
100922
100574
100174
99725.4
99226.7
98677.5
98079
97432.5
96739.7
96003.3
95225.6
94409.9
93559.7
92678.8
91771.3
90842.3
89896.5
88939.2
87975.6
87011.2
86051.4
85101.5
84167
83252.6
82363.1
81502.5
80675.9
79886.4
79136.9
78430
77767.6
77151.3
76582.3
76060.8
75586.9
75160.2
74780.2
74444.4
74151.3
73899
73685
73506.6
73360.6
73244.3
73153.3
73084.6
73033.5
72996.6
72969.1
72952
72934
72913.9
72889
72856.2
72813.4
72758.7
72691.4
72611.6
72520.5
72420.7
72315.5
72209.7
72108.9
72019.3
71947.6
71901
71886.1
71908.8
71973.5
72082.1
72233.6
72422.5
72639.6
72869.4
73094.2
73287.4
73425
73475.8
73405.8
73179.6
108588
107004
105494
104068
102733
101496
100360
99330
98405.2
97584
96864.3
96241.2
95711.8
95270.5
94908.4
94620
94400.1
94242.4
94140.7
94090.3
94085.5
94121.7
94194.8
94300.3
94434.5
94594.2
94776
94976.7
95193.8
95424
95665.2
95915
96184.5
96445.9
96705.5
96963.1
97216.9
97463.5
97700.7
97926.2
98137.1
98330.7
98504.6
98656
98782.2
98880.4
98948.1
98982.7
98981.3
98941.3
98860.4
98736.3
98566.8
98350.4
98085.3
97770.7
97404.1
96989.4
96524
96008.1
95442.6
94829.1
94169.4
93465.8
92721.1
91938.2
91121
90273
89398.7
88502.8
87590.3
86666.4
85736.4
84805.7
83879.8
82964
82063.6
81183.6
80328.7
79502.8
78711
77956.5
77242.1
76570.3
75943.1
75362.1
74828.4
74342.3
73903.8
73512.4
73167.8
72867.3
72609.6
72392.6
72213.7
72070.6
71959.8
71878.6
71822.6
71789
71772.9
71770.9
71778.4
71796
71812.9
71827.5
71837.2
71839.1
71830.8
71810.6
71777.8
71732.5
71675.8
71610.4
71539.6
71468.3
71401.9
71346.8
71309.8
71297.7
71317.5
71374.9
71474.2
71617.5
71803.6
72027.2
72279
72543.4
72802.7
73030.4
73202.5
73287.6
73251.9
73060
103727
102176
100699
99305.9
98006.3
96806.4
95710.3
94720.4
93837.5
93058.9
92382.3
91802.3
91317.4
90919.1
90599.9
90354
90176.1
90059.9
89999.1
89989
90024
90099.3
90211.2
90355.1
90527.1
90724.5
90943.7
91181.5
91435.7
91702.9
91981.1
92267.9
92570.9
92869.2
93165.4
93459.4
93749.4
94032
94305.2
94566.6
94813.3
95042.7
95252.4
95439.4
95601.2
95734.9
95838
95907.8
95941.5
95936.5
95890.4
95800.9
95665.9
95483.6
95252.6
94971.7
94638.6
94257.3
93825
93342.2
92809.6
92228.9
91601.8
90930.8
90218.7
89468.4
88683.8
87868.5
87026.8
86163.8
85284.3
84393.5
83496.8
82599.5
81707.3
80825.3
79959
79113.3
78292.8
77501.5
76744.5
76024.9
75345.5
74708.9
74117
73571.3
73073.1
72622.3
72219.3
71863.4
71554.2
71289.2
71066.8
70885.2
70741.7
70633.9
70558.4
70512.4
70491.6
70493.1
70512
70545.1
70587.5
70640
70691.7
70741
70785.4
70822
70848.2
70862.6
70864.3
70853.4
70831.2
70800.1
70763.8
70726.9
70694.9
70674.4
70671.8
70694.3
70748.7
70840.7
70974.8
71152.8
71373.6
71631.9
71918.3
72217.4
72511.2
72773.5
72980
73099.5
73098.1
72940.4
98833.3
97326.5
95879.9
94519
93254.6
92092.4
91035.9
90087.5
89247.6
88512.8
87880.7
87345.1
86907.2
86552.8
86277.7
86075.7
85940.9
85867.3
85848.4
85879.6
85955.2
86070.5
86221.8
86404.6
86615.1
86850.6
87107.7
87383.1
87674.7
87979.3
88294.7
88618.6
88956.5
89291.7
89624.7
89955.3
90281.9
90600.8
90910.3
91208
91490.9
91756.3
92002.1
92225
92422.6
92592.2
92730.9
92836.2
92905.3
92935.4
92924.3
92869.5
92769
92620.9
92423.9
92176.7
91877.1
91529
91129.9
90679.8
90179.9
89631.7
89037
88398.3
87718.4
87000.4
86248
85465
84655.7
83825.2
82978.3
82120.3
81256.7
80392.6
79533.9
78685.5
77853.2
77041.5
76255.3
75498.6
74776.4
74091.7
73447.3
72845.9
72289.3
71779
71316.2
70900.9
70533.4
70213
69939.4
69709.9
69523.1
69377
69268.9
69196.4
69156.3
69145.6
69160.1
69196.8
69250.9
69319
69396.5
69483.9
69570.5
69654.6
69733.7
69804.9
69865.8
69914.7
69950.8
69974.4
69986.5
69989.9
69987.9
69985.4
69987.9
70001.8
70033.7
70090.8
70179.8
70306.5
70475.2
70688
70943.5
71236.5
71557.7
71891.4
72219.8
72516.6
72757.5
72911.4
72944.3
72820.9
93955.7
92456.4
91036.1
89706.5
88477.1
87352.9
86336.8
85430.8
84635.2
83945.6
83359.5
82869.1
82481.2
82171.4
81941.9
81785
81694.6
81664.9
81688.9
81762.2
81879.3
82035.2
82226.6
82449
82698.5
82972.6
83268
83581.4
83910.8
84253.1
84606.1
84967.2
85341
85713.3
86083.3
86450.9
86814.3
87169.9
87516.1
87850.3
88169.6
88471.5
88753.6
89012.8
89246.6
89452.1
89626.8
89767.8
89872.5
89938
89962
89942.1
89876.2
89762.5
89599.4
89386
89119.7
88804.8
88438.5
88021.1
87553.6
87037.6
86475
85868.3
85220.3
84534.2
83813.7
83062.6
82285.4
81487
80672.5
79847.1
79016.1
78185
77359.5
76544.6
75746
74968.3
74216.3
73494.1
72806.6
72156.7
71547.4
70981.2
70459.9
69985
69557.7
69178.1
68846.1
68561.5
68323.4
68129.6
67978.3
67867.8
67795.3
67758.3
67753.6
67778.3
67828.2
67900.2
67989.5
68092.8
68205.3
68327.7
68449.2
68568.2
68682.1
68788
68883.4
68966.9
69037.5
69095.4
69142
69179.7
69212.1
69243.9
69280.8
69329.1
69395.5
69487.1
69610.7
69772
69975.5
70223
70513.3
70841.1
71196.9
71565.3
71928.4
72259.7
72535.1
72723.3
72790.6
72701.3
89045.4
87561.2
86166.2
84867.3
83673
82587.3
81612.4
80750
80000.1
79357.1
78818.6
78376.6
78037.4
77774.8
77592.4
77482
77437.3
77452.5
77520.5
77636.9
77796.3
77993.6
78225.8
78488.3
78777.3
79090.5
79424.7
79776.5
80144.1
80524.5
80915.3
81313.9
81724.3
82133.9
82541.3
82946.1
83346.7
83739.3
84122.4
84493.5
84849.6
85188.3
85507
85802.8
86073
86314.9
86525.7
86702.8
86843.2
86944.3
87003.7
87018.7
86987.5
86908.2
86779.2
86599.4
86366.4
86084.5
85751
85365.9
84930.6
84446.6
83915.8
83340.8
82724.4
82069.8
81380.9
80661.4
79915.9
79149.3
78366.8
77573.6
76775.1
75976.7
75184.2
74402.6
73637.5
72893.6
72175.7
71488
70835.1
70220.1
69645.8
69114.8
68628.9
68189.5
67797.8
67453.8
67157.5
66908.6
66706.3
66548.2
66432.6
66357.7
66320.8
66319.4
66350.3
66410.5
66495.8
66603.2
66727.8
66866.3
67014
67171.5
67328
67481.8
67630.5
67771.1
67901.2
68019.1
68124.2
68216.6
68297.5
68369.5
68436.2
68502.3
68573.6
68656.3
68757.2
68883.3
69041.5
69237.5
69475.7
69757.9
70083
70445.6
70836.2
71239.3
71637
72002.8
72312.7
72535.3
72636.8
72581.8
84105.6
82638.2
81268.9
80000.4
78841.4
77794.8
76862.1
76044.5
75341.7
74746.8
74257.6
73867.9
73575.7
73363.1
73229.3
73166.9
73169.2
73230.4
73343.4
73503.8
73706.3
73945.7
74219.3
74522.5
74851.6
75204.3
75577.7
75968.4
76374.6
76793.3
77222.3
77658.8
78106.4
78553.7
78998.6
79441
79879
80309
80729.3
81137.6
81530.9
81906.6
82262.3
82594.9
82901.9
83180.4
83427.6
83641
83817.5
83954.4
84049.2
84099.4
84103
84058.1
83963.1
83817
83617.2
83368.2
83067.2
82714.4
82311
81858.7
81359.4
80815.7
80230.6
79607.2
78949.5
78261.3
77547.2
76812.1
76061.3
75299.9
74533.6
73767.7
73007.9
72259.4
71527.7
70817.5
70133.6
69480.2
68861.9
68281.7
67742.5
67246.8
66796.3
66392.4
66036.3
65728
65467.5
65254.5
65087.9
64965.6
64885.8
64846.7
64845.5
64879.9
64946.3
65042.1
65162.9
65305.8
65465.8
65639.6
65822.6
66015.2
66206.7
66395.5
66579
66754.3
66919
67071.5
67211
67337.8
67453
67559.3
67660.3
67760.8
67866.3
67983.4
68118.8
68279.4
68472.2
68702.8
68975.7
69292.7
69652.6
70050
70475.4
70913.2
71345.6
71746
72090.3
72347.4
72483.1
72462.4
79135.7
77686.5
76342.7
75104.4
73981
72974.6
72085.1
71313.6
70659.7
70114.3
69675.9
69341.4
69098.1
68936.3
68852.8
68839.7
68890.2
68998.7
69157.8
69363.1
69609.5
69891.7
70207.2
70551.8
70921.4
71314.1
71727.2
72157
72602.2
73059.8
73527.1
74001.8
74487.3
74972.5
75455.2
75935.5
76411.4
76878.9
77336.9
77782.7
78213.4
78626.4
79019.4
79389.2
79733.2
80048.7
80332.7
80582.6
80795.3
80968.2
81098.7
81184.2
81222.7
81212.3
81151.4
81038.8
80872.2
80655.9
80387.3
80066.5
79694.8
79273.9
78805.8
78293.2
77739
77146.4
76519.6
75862.3
75179.2
74475.2
73755.8
73026
72291.6
71557.9
70830.6
70115
69416.5
68739.9
68089.9
67470.8
66887
66341.6
65837.5
65377
64962
64593.6
64273.3
64000.8
63776.1
63599
63468.4
63382
63338.1
63334.9
63369.5
63439.6
63541.8
63673.3
63829.7
64008.1
64203.6
64412.8
64631
64858.8
65085.4
65309.1
65527.5
65737.5
65936.9
66124
66297.9
66459.1
66608.6
66749.2
66884.4
67019.1
67159
67310.4
67480.2
67675.4
67902.7
68168
68475.6
68827.4
69222.2
69654.4
70114.6
70587.1
71054.2
71489.1
71868
72159.4
72329.5
72342.9
74135.7
72705.6
71384.8
70177.8
69090.7
68125.4
67280.5
66556.7
65953.5
65459.5
65073.1
64797.5
64604
64494.6
64462.7
64500.5
64600.5
64757.5
64963.7
65214.7
65506
65831.7
66189.7
66576.2
66986.8
67419.9
67873.1
68342.6
68827
69323.7
69829.9
70343.1
70866.8
71390.3
71911.2
72429.8
72943.7
73449.2
73945.1
74428.7
74897.2
75347.9
75778.5
76185.7
76567.1
76919.7
77240.7
77527.4
77776.7
77985.8
78152.1
78273.1
78346.6
78370.7
78343.8
78264.9
78131.3
77947.5
77711.2
77422.3
77082
76692.3
76255
75773.1
75249.5
74687.5
74091.1
73464.4
72811.9
72138.8
71450.3
70751.9
70049.1
69347.3
68652.3
67969.4
67304
66660.9
66044.6
65459.7
64910.4
64399.8
63930.8
63505.6
63126
62793.3
62508.7
62272.1
62083.4
61942.3
61847.7
61797.3
61789.4
61822.1
61892.6
61998.6
62136.6
62303.9
62496
62710.1
62941
63185.7
63439.3
63702.3
63964
64222.8
64476.1
64720.9
64954.9
65176.5
65384.9
65580.4
65764.2
65939.1
66108.5
66277.5
66451.6
66637.4
66841.5
67071.2
67333.1
67633
67975.4
68362
68791.6
69258.7
69753.8
70261.1
70762.8
71232.4
71645.7
71971.5
72175.9
72223.5
69105.3
67693.2
66392.6
65219.3
64169.1
63246.3
62447.3
61773.2
61222.4
60781.7
60453.5
60232.9
60093
60037.8
60059.3
60149.5
60300.3
60507
60761.3
61059
61395.9
61765.8
62166.9
62595.8
63047.9
63521.8
64015.5
64525
65049
65585.2
66130.5
66682.6
67245
67807.2
68366.6
68923.6
69476
70019.8
70553.8
71075.7
71582.2
72070.8
72539.4
72984.4
73403.4
73793.6
74151.9
74475.6
74761.7
75007.2
75209.6
75366.2
75474.8
75533.5
75540.6
75495.2
75394.6
75243.3
75039.1
74781.7
74472.7
74113.8
73707.1
73255.6
72762.2
72230.3
71664.1
71067.6
70445.4
69802.7
69145
68477.5
67806
67135.9
66473.1
65822.6
65190.2
64580.3
63997.7
63446.9
62932
62456.3
62022.3
61632.4
61288.4
60991.4
60742.7
60542
60389.3
60284.4
60225.8
60211.5
60239.7
60308.4
60415
60556.9
60730.8
60934
61161.9
61411.7
61678.3
61958.5
62247.5
62545.8
62842.7
63136.5
63424.7
63704.3
63973
64229.2
64472
64701.8
64919.9
65129
65332.6
65535.8
65744.1
65964.2
66202.7
66466.9
66763.3
67098
67475.1
67896.5
68360.9
68862.9
69392.8
69934.9
70471.5
70975.6
71423.5
71783.7
72022.3
72104.1
64042.2
62643.6
61366.9
60227.8
59214.7
58336
57584.6
56962.2
56465.4
56079.5
55818.5
55647.3
55565
55566
55642.6
55786.7
55989.8
56247.2
56550.7
56896.1
57279.3
57694
58138.8
58610.7
59104.7
59619.8
60154.4
60704.2
61268.3
61844.3
62429
63020.5
63621.9
64223.1
64821.2
65417.1
66008.3
66590.6
67163.2
67723.5
68268.4
68795.4
69302.1
69785.2
70242.3
70670.2
71066.1
71427.2
71750.3
72032.4
72271
72463.4
72607.2
72700.6
72741.9
72729.9
72662.1
72543.2
72370.9
72144.9
71866.8
71538.4
71162
70740.5
70277.1
69775
69238.5
68671.7
68079.5
67466.9
66839.5
66202.7
65562.3
64923.6
64292.6
63674.5
63074.8
62498.2
61949.2
61432.5
60952
60511.1
60112.2
59757.6
59449.1
59187.9
58975.1
58810.3
58693.8
58625.1
58602.8
58624.7
58689
58793.9
58936.5
59114.6
59324.5
59563.6
59827.3
60112.9
60415.2
60731
61055.5
61389.2
61721.3
62050.2
62373.3
62687.8
62991.1
63281.8
63559.1
63823.3
64075.6
64318.9
64556.7
64794
65036.6
65290.9
65563.8
65862.4
66193.4
66562.7
66974.6
67430.9
67930.2
68467.1
69031.9
69608.8
70180.1
70718.9
71201.3
71595.9
71868.8
71984.7
60108.8
58710.1
57446.7
56321.6
55328.8
54476.1
53753.6
53163.7
52699.8
52356.5
52130.8
51994
51948.6
51985.8
52097.5
52275.7
52511.5
52800.5
53134.1
53508.2
53919.1
54360.4
54830.6
55327.3
55845.3
56383.8
56941.7
57514.3
58100.8
58699.2
59306
59919.4
60542.7
61165.7
61785.5
62403.1
63015.8
63619.7
64213.8
64795.6
65361.9
65910.3
66438.5
66942.8
67421.1
67870.1
68286.9
68668.6
69012.1
69314.3
69572.6
69784.2
69946.7
70058.2
70116.9
70122
70070.5
69967.2
69810.2
69598.9
69334.9
69020.3
68657.3
68248.8
67798.2
67308.8
66784.9
66230.8
65651.1
65051.4
64437
63813.5
63186.6
62561.9
61945.4
61342.2
60758
60197.3
59664.5
59164.6
58701.5
58278.2
57897.3
57561.2
57271.4
57029
56835.4
56690
56593
56544.1
56541.3
56583
56667
56791.7
56954.2
57152
57381.6
57640.4
57923.8
58229
58550.7
58885.9
59229.7
59582.5
59933.5
60281.1
60622.6
60955.3
61276.7
61585.1
61880
62161.6
62431
62691.3
62946
63200.2
63459.7
63731.1
64021.2
64337.3
64686.1
65073.5
65503.9
65979.1
66497.7
67054
67638.4
68235.2
68826
69383.7
69884.5
70296.4
70585
70714.3
57333.2
55921.8
54655.7
53527
52536.3
51689.9
50976
50397.7
49944.4
49624.3
49406.7
49285.2
49254.7
49306.6
49432.1
49623.5
49871.6
50171.8
50515.8
50899.2
51318.7
51767.5
52244.6
52747.7
53271.6
53815.4
54378.5
54956.1
55547.3
56150.4
56761.7
57379.6
58007.3
58634.7
59258.7
59880.7
60497.8
61106
61704.4
62290.7
62861.3
63414.1
63946.7
64455.5
64938.1
65391.4
65812.4
66198.2
66545.5
66851.2
67112.7
67327.1
67491.9
67605.1
67665
67670.6
67619.1
67515.2
67357
67143.8
66877.5
66560.1
66193.7
65781.5
65327
64833.3
64304.9
63746.3
63162.1
62557.8
61939
61311.3
60680.6
60052.5
59432.9
58827
58240.7
57678.3
57144.2
56643.7
56180.5
55757.6
55377.5
55042.6
54754.4
54514
54322.7
54179.8
54085.5
54039.8
54040
54084.7
54172
54300
54465.7
54666.9
54899.9
55162.2
55448.9
55757.6
56082.6
56421
56767.9
57123.7
57477.4
57827.5
58171.2
58505.8
58828.7
59138.3
59433.8
59715.6
59985
60244.9
60499
60752.3
61011
61281.5
61571.1
61886.8
62235.7
62623.8
63055.5
63532.7
64054.2
64613.8
65202.1
65803
66398.3
66960.6
67465.5
67881
68172
68302.2
54545.7
53121.6
51850.2
50723.6
49732.2
48892.3
48187.9
47622.4
47184.1
46880.9
46675.4
46569.9
46554.9
46622
46762
46967.2
47227.9
47539.9
47894.6
48287.6
48715.8
49172.5
49656.5
50166.2
50696
51245.3
51813.8
52396.4
52992.5
53600.4
54216.4
54838.8
55471.1
56103.1
56731.5
57358.1
57979.8
58592.4
59195.4
59786.2
60361.4
60918.9
61456.1
61969.5
62456.6
62914.5
63339.9
63729.9
64081.3
64390.7
64655.6
64873
65040.3
65155.4
65216.6
65222.9
65171.3
65066.7
64907.2
64692.2
64423.3
64102.8
63733
63316.8
62858
62359.7
61826.6
61263
60673.8
60064.7
59441.1
58808.9
58173.9
57541.9
56918.8
56310
55721.2
55156.9
54621.2
54120
53656.5
53233.9
52854.6
52520.9
52234.2
51995.8
51806.8
51666.4
51574.7
51532.3
51535.6
51583.6
51674.3
51805.7
51974.9
52179.7
52416.3
52682.2
52972.6
53284.8
53613.4
53955.3
54305.4
54664.6
55021.2
55373.9
55720.1
56056.7
56381.2
56691.9
56988.1
57270.1
57539.2
57798.4
58051.5
58303.7
58560.9
58830.2
59118.6
59433.5
59782.1
60170.5
60603.3
61082.4
61606.7
62170.3
62763.7
63370.6
63972.4
64540.9
65053.2
65474.5
65769.7
65903
51745.9
50308.8
49030.3
47911.8
46914.8
46083
45387.9
44836.6
44421.2
44126
43936.8
43848
43849.1
43932.1
44087.3
44306.7
44580.6
44904.7
45270.4
45673.3
46110.6
46575.3
47066.4
47582.8
48118.8
48673.6
49247.6
49835.4
50436.4
51049.3
51670.1
52297.3
52934.3
53571
54204
54835.3
55461.7
56078.9
56686.6
57282.2
57862.2
58424.4
58966.5
59484.8
59976.7
60439.3
60869.4
61264
61619.5
61933
62201.5
62422
62591.9
62709.1
62771.6
62778.6
62727
62621.8
62460.9
62243.8
61972.3
61648.6
61274.9
60854.6
60391.1
59888
59349.7
58780.9
58186.4
57571.9
56943.2
56306
55666.4
55030.1
54403.2
53791.1
53199.6
52633.2
52095.6
51593.4
51129.6
50707.2
50328.5
49995.9
49710.8
49474.3
49287.6
49149.9
49060.9
49022.1
49028.5
49079.9
49174
49308.9
49481.8
49690.4
49930.7
50200.5
50494.7
50810.8
51143.2
51488.8
51842.5
52205.2
52564.9
52920.6
53269.4
53608.1
53934.4
54246.4
54543.3
54825.5
55094.3
55352.6
55604.4
55854.9
56110.4
56377.9
56664.7
56978.4
57326.2
57714.6
58148.2
58629.3
59156.8
59724.8
60324.2
60937.7
61547.6
62123.7
62644.4
63072.3
63375.1
63513.3
48933.2
47483
46199.8
45082.3
44088.2
43261.6
42575
42046.3
41646.6
41362.7
41190.7
41118.4
41137.3
41237
41407.8
41642.1
41929.7
42266.3
42643.4
43056.5
43503
43975.9
44474.4
44997.6
45539.8
46100.3
46679.8
47273
47879.1
48497.1
49122.8
49754.9
50396.9
51038.4
51676.1
52312.2
52943.6
53565.6
54178.2
54778.7
55363.6
55930.9
56478
57001.3
57498.3
57965.9
58400.9
58800.2
59160.3
59478
59750.3
59974.2
60146.9
60266.2
60330.1
60337.9
60286.3
60180.4
60018.1
59798.8
59524.5
59197.3
58819.7
58394.8
57926.5
57418.2
56874.4
56299.9
55699.7
55079.5
54445.2
53802.7
53158
52517
51886
51270.3
50675.8
50107.1
49567.2
49064
48599.8
48177.3
47799.2
47467.7
47184.2
46949.6
46765.3
46630.1
46543.9
46509
46518.4
46573.3
46671
46809.8
46986.5
47198.9
47443.2
47717.1
48015.3
48335.5
48671.9
49021.6
49379.1
49745.6
50108.7
50467.5
50819
51160.1
51488.2
51801.5
52099.1
52381.4
52649.6
52907
53157.1
53405.6
53658.9
53924.1
54208.8
54520.8
54867.4
55255.4
55689.7
56172.6
56703.5
57276.9
57882.9
58504.1
59123.7
59709.5
60241.3
60679.3
60991.9
61137.5
46106.6
44644.6
43356.4
42234.5
41254.2
40422.9
39759.8
39246.7
38857.3
38591.1
38437.2
38383.1
38419.6
38536.6
38723.8
38973.5
39275.2
39624.7
40013.7
40437.2
40893.1
41374.5
41880.4
42410.6
42959.2
43525.4
44110.6
44709.3
45320.5
45943.7
46574.6
47211.7
47858.7
48505.3
49147.9
49789
50425.4
51052.4
51670
52275.6
52865.7
53438.2
53990.6
54519.2
55021.5
55494.3
55934.4
56338.7
56703.5
57025.7
57302
57529.5
57705.2
57826.8
57892.1
57900.8
57849.1
57742.6
57578.8
57357.3
57079.9
56749.1
56367.2
55937.6
55464.1
54950.2
54400.6
53820
53213.7
52587.3
51947
51298.7
50648.6
50002.6
49367.1
48747.5
48149.7
47578.3
47036.4
46531.7
46067
45644.4
45266.7
44936.3
44654.2
44421.6
44239.7
44107.2
44024
43992.7
44005.5
44064
44165.5
44308.1
44488.8
44705.3
44953.8
45231.9
45534.4
45859
46199.7
46553.6
46915.1
47285.7
47652.4
48014.6
48369.1
48712.7
49042.8
49357.5
49655.8
49938.2
50205.7
50461.6
50709.9
50956.1
51206.7
51469.2
51751.3
52061
52406
52793.3
53227.9
53712.8
54247.6
54826.4
55439.6
56069.8
56700.6
57297.8
57842.7
58292.9
58617.7
58772.9
43265.9
41792.9
40499.2
39372.7
38401.2
37579.4
36937
36431.1
36058.7
35811.1
35676.2
35641
35696
35831
36035.2
36300.9
36617.2
36980
37381.2
37815.4
38281
38771.1
39284.5
39821.8
40376.9
40948.9
41539.8
42144.2
42760.8
43389.3
44025.4
44667.6
45319.9
45971.7
46619.3
47265.6
47907.1
48539.2
49162.1
49773
50368.4
50946.4
51504.2
52038.4
52546.2
53024.5
53470
53879.5
54249.3
54576.1
54856.7
55088
55266.9
55390.9
55457.8
55467.4
55415.6
55308.4
55143
54919.1
54638.6
54303.9
53917.5
53482.8
53003.8
52483.9
51928.1
51341.1
50728.2
50095.4
49448.6
48794.1
48138.2
47486.9
46846.5
46222.7
45621.3
45046.9
44502.8
43996.4
43531.1
43108.3
42731
42401.5
42120.9
41890.2
41710.8
41581.1
41501.3
41472.9
41489.6
41551.8
41657.2
41803.9
41988.7
42209.5
42462.3
42744.9
43052
43381.1
43726.4
44084.8
44450.7
44825.6
45196.2
45561.9
45919.6
46265.9
46598.1
46914.3
47213.4
47495.6
47762.3
48016.7
48262.7
48506.1
48753.6
49012.8
49291.9
49598.9
49941.8
50327.9
50762.8
51249.6
51788.2
52372.8
52994.2
53634.6
54278.5
54888.7
55449.2
55913.7
56251.4
56420.2
40264.4
38778.2
37483.2
36347.9
35382
34585.3
33948.2
33457
33102.8
32875.1
32760.8
32745.9
32820.4
32974.6
33196.9
33479.5
33811.4
34188
34601.9
35047.2
35522.7
36021.5
36542.5
37086.8
37648.3
38226
38822.6
39432.5
40054.2
40688
41329.2
41976.6
42634
43290.9
43943.4
44594.8
45241.5
45878.7
46506.8
47123
47723.6
48307.1
48870.4
49410.1
49923.4
50407.3
50858.2
51273
51647.9
51979.4
52264.2
52499.3
52681.1
52807.4
52875.1
52885.7
52833.3
52724.8
52557.1
52329.9
52045.3
51705.7
51313.8
50872.8
50387.1
49860
49296.6
48701.8
48081
47440.2
46785.6
46123.6
45460.5
44802.5
44156.1
43526.8
42920.7
42342.2
41795
41286.3
40819.4
40395.7
40018.2
39689.1
39409.6
39180.4
39003
38875.9
38799.3
38773.8
38794
38859.8
38969
39119.6
39308.5
39533.5
39790.6
40077.7
40389.3
40723
41072.9
41435.9
41806.2
42185.4
42559.9
42929.2
43289.9
43638.8
43972.9
44290.2
44589.5
44871.1
45136.1
45388
45630.6
45870.1
46113.2
46367.8
46642.3
46945.2
47284.8
47668.7
48103
48591.1
49132.7
49724.3
50355.2
51007.2
51666.5
52292
52871.4
53353.4
53709.2
53893
37097.5
35596.3
34301.3
33158.8
32201.6
31422.3
30796.4
30321.8
29987.3
29781.3
29689.3
29696.2
29791.7
29966.4
30208.1
30508.7
30856.9
31248.1
31675.2
32132.1
32617.6
33125.4
33654
34205.1
34773.1
35356.4
35958.3
36573.8
37200.7
37839.5
38485.9
39138.2
39800.7
40462.7
41120.2
41776.7
42428.4
43070.7
43703.9
44325.4
44931.4
45520.3
46089.2
46634.6
47153.7
47643.1
48099.7
48519.9
48899.9
49236.3
49525.4
49764.2
49949
50077.4
50145.9
50156.8
50103.2
49992.8
49822.1
49590.8
49301.1
48955.6
48556.9
48108.4
47614.6
47079
46506.6
45902.5
45272.2
44621.9
43958
43286.9
42615.1
41949
41295.1
40659.2
40047.2
39463.6
38912.2
38400.3
37931
37505.6
37127.3
36798.1
36519.1
36291
36115.4
35990.5
35916.9
35894.2
35917.7
35987.1
36100
36254.3
36447.3
36676.5
36937.9
37229.6
37545.8
37884.2
38239
38606.5
38981.4
39365.2
39743.6
40116.6
40480.4
40831.7
41167.5
41485.5
41784.7
42064.9
42327.5
42575.9
42814
43048.2
43285.3
43533.8
43802.2
44099.5
44434.3
44814.7
45247.4
45736.3
46281.9
46880.1
47521.4
48187
48864.5
49508.3
50111
50613.8
50991.7
51194.1
33910.7
32396.7
31096.4
29953.2
29006.6
28240.3
27629.3
27173.2
26859.7
26676.7
26608.7
26638.2
26755.8
26951.9
27213.9
27533.2
27898.4
28304.7
28745.5
29214.2
29710
30227
30763.3
31321.4
31895.9
32484.9
33092.3
33713.3
34345.5
34989.7
35641.3
36298.8
36966.6
37633.9
38296.5
38958.2
39615.3
40262.7
40901.4
41528.4
42139.9
42734.6
43309.3
43860.7
44385.7
44881.2
45343.6
45769.5
46155.1
46496.6
46790.4
47033.2
47221.3
47352.1
47424.5
47432.8
47377.9
47265.6
47091.7
46856.2
46561.1
46209.4
45803.6
45347.2
44844.9
44300.3
43718.4
43104.5
42464.2
41803.8
41130
40449.3
39768.4
39093.6
38431.9
37788.8
37170.6
36581.4
36025.6
35510.2
35038.3
34611.2
34231.9
33902.5
33624.1
33397.2
33223.4
33100.7
33030.5
33010.7
33037.6
33110.6
33227.4
33385.8
33582.9
33816.6
34082.7
34379.1
34700.3
35043.7
35403.6
35776.2
36156.1
36544.6
36927.4
37304.3
37671.5
38025.5
38363.2
38682.2
38981.1
39260
39519.9
39764.4
39997.6
40225.8
40456.5
40698.1
40959.6
41250.4
41579.6
41955.9
42386.5
42876
43426.2
44030.7
44683.8
45364.7
46062.8
46727.3
47356.9
47883.7
48288.4
48514.2
30702.5
29179.1
27868.7
26730.7
25793.8
25041.2
24447.3
24011
23719.8
23561.3
23518.8
23572.1
23712.6
23931.1
24214.3
24553.1
24935.9
25357.8
25812.7
26293.7
26800
27326.4
27870.5
28435.6
29016.8
29611.5
30224.3
30851.2
31488.9
32138.4
32795.5
33458.4
34131.7
34804.4
35472.2
36139.4
36802
37454.8
38099.1
38731.9
39349.2
39950
40530.8
41088.4
41619.7
42121.5
42590.1
43022.1
43413.5
43760.5
44059.2
44306.4
44497.9
44631.2
44703.4
44713.4
44657.4
44543
44365.9
44126
43825.4
43467.1
43053.9
42589.3
42078.1
41524
40932.1
40307.9
39657.1
38986.1
38301.8
37610.8
36920.2
36236.3
35566.1
34915.5
34290.6
33695.5
33135.1
32616.1
32141.3
31712.4
31332.1
31002.5
30724.5
30498.8
30326.9
30206.4
30139.9
30123.1
30153.7
30230.5
30351.3
30513.9
30715.5
30953.8
31224.8
31526.2
31852.8
32201.4
32566.9
32944.9
33330.2
33723.8
34111.3
34492.5
34863.4
35220.4
35560.2
35880.3
36179
36456.4
36713.5
36953.7
37181.4
37403.2
37626.5
37860.4
38114.2
38397.8
38720.7
39092.2
39520
40009.6
40563.1
41176.8
41842.8
42540.2
43261.3
43948.7
44608.9
45162.4
45597.2
45845.7
27472.2
25939.7
24619.6
23488.8
22562
21823.7
21249.6
20834.1
20566.8
20434.6
20419.8
20497.7
20662.1
20904
21209.4
21568.5
21969.6
22407.6
22876.8
23370.5
23887.6
24423.6
24975.7
25547.8
26135.8
26736.3
27354.5
27987.3
28630.7
29285.8
29948.4
30616.9
31295.8
31974.2
32647.5
33320.3
33988.5
34647
35297.1
35935.8
36559.1
37166.2
37753.4
38317.5
38855.6
39363.9
39839.1
40277.5
40675.1
41028
41332
41583.8
41779.1
41915.2
41990.9
41999.6
41942.1
41825.7
41645.1
41400.6
41094.2
40729.1
40308.1
39834.8
39314.3
38750.2
38147.8
37512.7
36850.7
36168.5
35473
34771.4
34070.4
33376.9
32697.8
32039.2
31407.3
30805.9
30240.6
29717.8
29239.9
28809.1
28427.8
28097.8
27820.3
27595.9
27425.9
27307.6
27245.2
27231.5
27265.8
27346.5
27471.6
27638.7
27844.9
28088.1
28364.2
28670.9
29003.2
29357.4
29728.9
30112.6
30503.7
30902.8
31295.3
31681.2
32056.1
32416.4
32758.6
33079.9
33378.5
33654.3
33908.3
34144
34365.7
34580.4
34795.8
35021.2
35266.5
35542
35857.8
36223.7
36648.3
37137.8
37694.3
38317.9
38997.6
39713.4
40459.8
41172.4
41867.2
42450
42920.1
43198.5
24218.6
22675.6
21349.7
20227
19312.7
18589.4
18037.6
17644.6
17403
17298.5
17314.5
17414.7
17604.4
17870.7
18199.3
18579.7
18999.7
19454.2
19938.2
20444.7
20972.9
21518.6
22078.7
22658
23252.7
23859.2
24482.7
25121.6
25770.8
26431.7
27100.1
27774.4
28459
29143.3
29822.3
30500.8
31174.9
31839.2
32495.3
33140.1
33769.8
34383.4
34977.2
35548.2
36093.2
36608.5
37090.5
37535.7
37939.9
38299
38608.6
38865.3
39064.7
39203.5
39279
39289.3
39231.2
39112.7
38928.8
38679.6
38367.2
37994.9
37565.8
37083.5
36553.1
35978.6
35365.1
34718.6
34044.9
33350.9
32643.8
31930.8
31219
30515.3
29826.9
29159.9
28520.6
27912.5
27342.1
26815.3
26333.9
25901.3
25518.7
25188.3
24911.3
24688.3
24520.2
24404.1
24346.3
24335.9
24374
24458.9
24588.4
24760
24971.2
25219.4
25500.9
25813.2
26151.5
26511.6
26889.5
27279.3
27676.7
28081.5
28479.5
28870.4
29249.6
29613.5
29958.3
30281
30579.6
30853.8
31104.5
31335.2
31550.5
31757.5
31964.2
32180.3
32416.1
32682.5
32990.3
33349.8
33770.6
34259.5
34821.2
35452.8
36147.3
36883.1
37657.1
38397.6
39131
39746
40256
40564.4
20940.8
19386.7
18057.1
16943.1
16042.9
15334.9
14806.3
14438.2
14222.4
14145.9
14187.8
14323.5
14539.7
14831.5
15184.3
15586.8
16026.5
16498
16996.9
17516.7
18056
18611.6
19179.8
19766.2
20367.8
20980.2
21608.9
22254.1
22909.4
23576.1
24250.5
24930.7
25621.3
26311.6
26996.5
27681
28361.1
29031.4
29693.7
30344.9
30981.1
31601.5
32202.3
32780.3
33332.6
33855.1
34344.3
34796.6
35207.8
35573.5
35889.2
36151.2
36355
36497.1
36575.4
36586
36526.3
36405.5
36217.9
35963.7
35645
35265.1
34827.5
34335.7
33795.1
33209.6
32584.6
31926
31240
30533.5
29814.1
29089.2
28365.9
27651.5
26953.1
26277.3
25630.3
25015
24439.4
23908.1
23423.6
22988.8
22605.1
22274.2
21997.7
21776.1
21610.1
21497.2
21443.3
21436
21478.2
21567.3
21701.4
21877.8
22094
22347.6
22634.8
22953
23297.8
23664.1
24048.7
24445
24849.2
25260
25663.9
26060.1
26444.1
26811.9
27159.7
27483.9
27782.6
28055
28302.2
28527.6
28735.9
28934.5
29131.8
29337.5
29563.1
29819.5
30118.3
30470.5
30886.6
31374.8
31940.2
32581.8
33291.9
34049.2
34853
35624
36400.2
37050.2
37605.3
37947.1
17637.8
16074.9
14742.2
13640.4
12756.7
12066.8
11564.2
11224.6