/*--------------------------------*- C++ -*----------------------------------*\
| =========                 |                                                 |
| \\      /  F ield         | OpenFOAM: The Open Source CFD Toolbox           |
|  \\    /   O peration     | Version:  v1912                                 |
|   \\  /    A nd           | Website:  www.openfoam.com                      |
|    \\/     M anipulation  |                                                 |
\*---------------------------------------------------------------------------*/
FoamFile
{
    version     2.0;
    format      ascii;
    class       volScalarField;
    location    "30";
    object      alpha.water;
}
// * * * * * * * * * * * * * * * * * * * * * * * * * * * * * * * * * * * * * //

dimensions      [0 0 0 0 0 0 0];


internalField   nonuniform List<scalar> 
14268
(
1
1
1
1
1
1
1
1
1
1
1
1
1
1
1
1
1
1
1
1
1
1
1
1
1
1
1
1
1
1
1
1
1
1
1
1
1
1
1
1
1
1
1
1
1
1
1
1
1
1
1
1
1
1
1
1
1
1
1
1
1
1
1
1
1
1
1
1
1
1
1
1
1
1
1
1
1
1
1
1
1
1
1
1
1
1
1
1
1
1
1
1
1
1
1
1
1
1
1
1
1
1
1
1
1
1
1
1
1
1
1
1
1
1
1
1
1
1
1
1
1
1
1
1
1
1
1
1
1
1
1
1
1
1
1
1
1
1
1
1
1
1
1
1
1
1
1
1
1
1
1
1
1
1
1
1
1
1
1
1
1
1
1
1
1
1
1
1
1
1
1
1
1
1
1
1
1
1
1
1
1
1
1
1
1
1
1
1
1
1
1
1
1
1
1
1
1
1
1
1
1
1
1
1
1
1
1
1
1
1
1
1
1
1
1
1
1
1
1
1
1
1
1
1
1
1
1
1
1
1
1
1
1
1
1
1
1
1
1
1
1
1
1
1
1
1
1
1
1
1
1
1
1
1
1
1
1
1
1
1
1
1
1
1
1
1
1
1
1
1
1
1
1
1
1
1
1
1
1
1
1
1
1
1
1
1
1
1
1
1
1
1
1
1
1
1
1
1
1
1
1
1
1
1
1
1
1
1
1
1
1
1
1
1
1
1
1
1
1
1
1
1
1
1
1
1
1
1
1
1
1
1
1
1
1
1
1
1
1
1
1
1
1
1
1
1
1
1
1
1
1
1
1
1
1
1
1
1
1
1
1
1
1
1
1
1
1
1
1
1
1
1
1
1
1
1
1
1
1
1
1
1
1
1
1
1
1
1
1
1
1
1
1
1
1
1
1
1
1
1
1
1
1
1
1
1
1
1
1
1
1
1
1
1
1
1
1
1
1
1
1
1
1
1
1
1
1
1
1
1
1
1
1
1
1
1
1
1
1
1
1
1
1
1
1
1
1
1
1
1
1
1
1
1
1
1
1
1
1
1
1
1
1
1
1
1
1
1
1
1
1
1
1
1
1
1
1
1
1
1
1
1
1
1
1
1
1
1
1
1
1
1
1
1
1
1
1
1
1
1
1
1
1
1
1
1
1
1
1
1
1
1
1
1
1
1
1
1
1
1
1
1
1
1
1
1
1
1
1
1
1
1
1
1
1
1
1
1
1
1
1
1
1
1
1
1
1
1
1
1
1
1
1
1
1
1
1
1
1
1
1
1
1
1
1
1
1
1
1
1
1
1
1
1
1
1
1
1
1
1
1
1
1
1
1
1
1
1
1
1
1
1
1
1
1
1
1
1
1
1
1
1
1
1
1
1
1
1
1
1
1
1
1
1
1
1
1
1
1
1
1
1
1
1
1
1
1
1
1
1
1
1
1
1
1
1
1
1
1
1
1
1
1
1
1
1
1
1
1
1
1
1
1
1
1
1
1
1
1
1
1
1
1
1
1
1
1
1
1
1
1
1
1
1
1
1
1
1
1
1
1
1
1
1
1
1
1
1
1
1
1
1
1
1
1
1
1
1
1
1
1
1
1
1
1
1
1
1
1
1
1
1
1
1
1
1
1
1
1
1
1
1
1
1
1
1
1
1
1
1
1
1
1
1
1
1
1
1
1
1
1
1
1
1
1
1
1
1
1
1
1
1
1
1
1
1
1
1
1
1
1
1
1
1
1
1
1
1
1
1
1
1
1
1
1
1
1
1
1
1
1
1
1
1
1
1
1
1
1
1
1
1
1
1
1
1
1
1
1
1
1
1
1
1
1
1
1
1
1
1
1
1
1
1
1
1
1
1
1
1
1
1
1
1
1
1
1
1
1
1
1
1
1
1
1
1
1
1
1
1
1
1
1
1
1
1
1
1
1
1
1
1
1
1
1
1
1
1
1
1
1
1
1
1
1
1
1
1
1
1
1
1
1
1
1
1
1
1
1
1
1
1
1
1
1
1
1
1
1
1
1
1
1
1
1
1
1
1
1
1
1
1
1
1
1
1
1
1
1
1
1
1
1
1
1
1
1
1
1
1
1
1
1
1
1
1
1
1
1
1
1
1
1
1
1
1
1
1
1
1
1
1
1
1
1
1
1
1
1
1
1
1
1
1
1
1
1
1
1
1
1
1
1
1
1
1
1
1
1
1
1
1
1
1
1
1
1
1
1
1
1
1
1
1
1
1
1
1
1
1
1
1
1
1
1
1
1
1
1
1
1
1
1
1
1
1
1
1
1
1
1
1
1
1
1
1
1
1
1
1
1
1
1
1
1
1
1
1
1
1
1
1
1
1
1
1
1
1
1
1
1
1
1
1
1
1
1
1
1
1
1
1
1
1
1
1
1
1
1
1
1
1
1
1
1
1
1
1
1
1
1
1
1
1
1
1
1
1
1
1
1
1
1
1
1
1
1
1
1
1
1
1
1
1
1
1
1
1
1
1
1
1
1
1
1
1
1
1
1
1
1
1
1
1
1
1
1
1
1
1
1
1
1
1
1
1
1
1
1
1
1
1
1
1
1
1
1
1
1
1
1
1
1
1
1
1
1
1
1
1
1
1
1
1
1
1
1
1
1
1
1
1
1
1
1
1
1
1
1
1
1
1
1
1
1
1
1
1
1
1
1
1
1
1
1
1
1
1
1
1
1
1
1
1
1
1
1
1
1
1
1
1
1
1
1
1
1
1
1
1
1
1
1
1
1
1
1
1
1
1
1
1
1
1
1
1
1
1
1
1
1
1
1
1
1
1
1
1
1
1
1
1
1
1
1
1
1
1
1
1
1
1
1
1
1
1
1
1
1
1
1
1
1
1
1
1
1
1
1
1
1
1
1
1
1
1
1
1
1
1
1
1
1
1
1
1
1
1
1
1
1
1
1
1
1
1
1
1
1
1
1
1
1
1
1
1
1
1
1
1
1
1
1
1
1
1
1
1
1
1
1
1
1
1
1
1
1
1
1
1
1
1
1
1
1
1
1
1
1
1
1
1
1
1
1
1
1
1
1
1
1
1
1
1
1
1
1
1
1
1
1
1
1
1
1
1
1
1
1
1
1
1
1
1
1
1
1
1
1
1
1
1
1
1
1
1
1
1
1
1
1
1
1
1
1
1
1
1
1
1
1
1
1
1
1
1
1
1
1
1
1
1
1
1
1
1
1
1
1
1
1
1
1
1
1
1
1
1
1
1
1
1
1
1
1
1
1
1
1
1
1
1
1
1
1
1
1
1
1
1
1
1
1
1
1
1
1
1
1
1
1
1
1
1
1
1
1
1
1
1
1
1
1
1
1
1
1
1
1
1
1
1
1
1
1
1
1
1
1
1
1
1
1
1
1
1
1
1
1
1
1
1
1
1
1
1
1
1
1
1
1
1
1
1
1
1
1
1
1
1
1
1
1
1
1
1
1
1
1
1
1
1
1
1
1
1
1
1
1
1
1
1
1
1
1
1
1
1
1
1
1
1
1
1
1
1
1
1
1
1
1
1
1
1
1
1
1
1
1
1
1
1
1
1
1
1
1
1
1
1
1
1
1
1
1
1
1
1
1
1
1
1
1
1
1
1
1
1
1
1
1
1
1
1
1
1
1
1
1
1
1
1
1
1
1
1
1
1
1
1
1
1
1
1
1
1
1
1
1
1
1
1
1
1
1
1
1
1
1
1
1
1
1
1
1
1
1
1
1
1
1
1
1
1
1
1
1
1
1
1
1
1
1
1
1
1
1
1
1
1
1
1
1
1
1
1
1
1
1
1
1
1
1
1
1
1
1
1
1
1
1
1
1
1
1
1
1
1
1
1
1
1
1
1
1
1
1
1
1
1
1
1
1
1
1
1
1
1
1
1
1
1
1
1
1
1
1
1
1
1
1
1
1
1
1
1
1
1
1
1
1
1
1
1
1
1
1
1
1
1
1
1
1
1
1
1
1
1
1
1
1
1
1
1
1
1
1
1
1
1
1
1
1
1
1
1
1
1
1
1
1
1
1
1
1
1
1
1
1
1
1
1
1
1
1
1
1
1
1
1
1
1
1
1
1
1
1
1
1
1
1
1
1
1
1
1
1
1
1
1
1
1
1
1
1
1
1
1
1
1
1
1
1
1
1
1
1
1
1
1
1
1
1
1
1
1
1
1
1
1
1
1
1
1
1
1
1
1
1
1
1
1
1
1
1
1
1
1
1
1
1
1
1
1
1
1
1
1
1
1
1
1
1
1
1
1
1
1
1
1
1
1
1
1
1
1
1
1
1
1
1
1
1
1
1
1
1
1
1
1
1
1
1
1
1
1
1
1
1
1
1
1
1
1
1
1
1
1
1
1
1
1
1
1
1
1
1
1
1
1
1
1
1
1
1
1
1
1
1
1
1
1
1
1
1
1
1
1
1
1
1
1
1
1
1
1
1
1
1
1
1
1
1
1
1
1
1
1
1
1
1
1
1
1
1
1
1
1
1
1
1
1
1
1
1
1
1
1
1
1
1
1
1
1
1
1
1
1
1
1
1
1
1
1
1
1
1
1
1
1
1
1
1
1
1
1
1
1
1
1
1
1
1
1
1
1
1
1
1
1
1
1
1
1
1
1
1
1
1
1
1
1
1
1
1
1
1
1
1
1
1
1
1
1
1
1
1
1
1
1
1
1
1
1
1
1
1
1
1
1
1
1
1
1
1
1
1
1
1
1
1
1
1
1
1
1
1
1
1
1
1
1
1
1
1
1
1
1
1
1
1
1
1
1
1
1
1
1
1
1
1
1
1
1
1
1
1
1
1
1
1
1
1
1
1
1
1
1
1
1
1
1
1
1
1
1
1
1
1
1
1
1
1
1
1
1
1
1
1
1
1
1
1
1
1
1
1
1
1
1
1
1
1
1
1
1
1
1
1
1
1
1
1
1
1
1
1
1
1
1
1
1
1
1
1
1
1
1
1
1
1
1
1
1
1
1
1
1
1
1
1
1
1
1
1
1
1
1
1
1
1
1
1
1
1
1
1
1
1
1
1
1
1
1
1
1
1
1
1
1
1
1
1
1
1
1
1
1
1
1
1
1
1
1
1
1
1
1
1
1
1
1
1
1
1
1
1
1
1
1
1
1
1
1
1
1
1
1
1
1
1
1
1
1
1
1
1
1
1
1
1
1
1
1
1
1
1
1
1
1
1
1
1
1
1
1
1
1
1
1
1
1
1
1
1
1
1
1
1
1
1
1
1
1
1
1
1
1
1
1
1
1
1
1
1
1
1
1
1
1
1
1
1
1
1
1
1
1
1
1
1
1
1
1
1
1
1
1
1
1
1
1
1
1
1
1
1
1
1
1
1
1
1
1
1
1
1
1
1
1
1
1
1
1
1
1
1
1
1
1
1
1
1
1
1
1
1
1
1
1
1
1
1
1
1
1
1
1
1
1
1
1
1
1
1
1
1
1
1
1
1
1
1
1
1
1
1
1
1
1
1
1
1
1
1
1
1
1
1
1
1
1
1
1
1
1
1
1
1
1
1
1
1
1
1
1
1
1
1
1
1
1
1
1
1
1
1
1
1
1
1
1
1
1
1
1
1
1
1
1
1
1
1
1
1
1
1
1
1
1
1
1
1
1
1
1
1
1
1
1
1
1
1
1
1
1
1
1
1
1
1
1
1
1
1
1
1
1
1
1
1
1
1
1
1
1
1
1
1
1
1
1
1
1
1
1
1
1
1
1
1
1
1
1
1
1
1
1
1
1
1
1
1
1
1
1
1
1
1
1
1
1
1
1
1
1
1
1
1
1
1
1
1
1
1
1
1
1
1
1
1
1
1
1
1
1
1
1
1
1
1
1
1
1
1
1
1
1
1
1
1
1
1
1
1
1
1
1
1
1
1
1
1
1
1
1
1
1
1
1
1
1
1
1
1
1
1
1
1
1
1
1
1
1
1
1
1
1
1
1
1
1
1
1
1
1
1
1
1
1
1
1
1
1
1
1
1
1
1
1
1
1
1
1
1
1
0.999307
0.996628
0.988555
0.972764
0.953795
0.944419
0.957317
0.982724
0.999952
1
1
1
1
1
1
1
1
1
1
1
1
1
1
1
1
1
1
1
1
1
1
1
1
1
1
1
1
1
1
1
1
1
1
1
1
1
1
1
1
1
1
1
1
1
1
1
1
1
1
1
1
1
1
1
1
1
1
1
1
1
1
1
1
1
1
1
1
1
1
1
1
1
1
1
1
1
0.816394
0.604717
0.447465
0.357434
0.334274
0.37228
0.45914
0.596757
0.771803
0.901396
0.9845
1
1
1
1
1
1
1
1
1
1
1
1
1
1
1
1
1
1
1
1
1
1
1
1
1
1
1
1
1
1
1
1
1
1
1
1
1
0.999999
0.999973
0.999893
0.999703
0.999323
0.998726
0.998085
0.997689
0.998214
0.999765
1
1
1
1
1
1
1
1
1
1
1
1
1
1
1
1
1
1
1
1
1
1
1
1
1
1
1
1
0.131464
0.0586104
0.0225978
0.00903131
0.00577298
0.00871813
0.0168702
0.0403119
0.114334
0.327276
0.623387
0.871389
0.987356
1
1
1
1
1
1
1
1
1
1
1
1
1
1
1
1
0.999999
0.999999
0.999999
0.999998
0.999996
0.999993
0.999986
0.999969
0.999929
0.999843
0.99967
0.999372
0.998945
0.998441
0.997925
0.997403
0.996783
0.995865
0.994162
0.990643
0.98304
0.966921
0.935947
0.884946
0.819039
0.762063
0.73386
0.740334
0.773971
0.821439
0.869953
0.916158
0.954797
0.982348
0.997117
1
1
1
1
1
1
1
1
1
1
1
1
1
1
1
1
1
1
1
0.999999
0.999999
0.999999
5.81963e-06
1.37456e-05
2.97245e-05
5.89373e-05
0.000103563
0.000168895
0.000321012
0.000759451
0.0024292
0.0105672
0.0564056
0.276579
0.644675
0.904589
0.99867
1
1
1
0.999999
0.999999
0.999998
0.999998
0.999997
0.999996
0.999995
0.999994
0.999992
0.99999
0.999988
0.999984
0.999978
0.999969
0.999953
0.999922
0.999858
0.99972
0.999406
0.998686
0.997074
0.993615
0.986868
0.976008
0.9621
0.947131
0.931568
0.912934
0.885094
0.83681
0.753442
0.640372
0.507426
0.371974
0.25546
0.176838
0.136078
0.118319
0.12278
0.149605
0.205278
0.289125
0.390983
0.503614
0.618767
0.726814
0.814995
0.879411
0.932488
0.97288
0.996146
0.999992
0.999992
0.999991
0.999991
0.999991
0.999991
0.999991
0.999991
0.999991
0.999991
0.999991
0.999991
0.99999
0.999989
0.999986
0.999979
0.999966
8.16616e-08
2.53124e-07
6.59863e-07
1.35341e-06
2.4635e-06
4.35996e-06
8.49114e-06
1.90973e-05
5.78447e-05
0.000236808
0.00123866
0.00850763
0.0674346
0.358846
0.746274
0.946913
0.999996
0.999992
0.999987
0.99998
0.999971
0.999959
0.999946
0.99993
0.999914
0.999895
0.99987
0.999839
0.9998
0.999747
0.999667
0.999534
0.9993
0.998849
0.997896
0.995664
0.989829
0.973691
0.932669
0.845157
0.713737
0.5946
0.501899
0.434293
0.382812
0.335848
0.283266
0.222069
0.160911
0.102158
0.0520204
0.018722
0.00494598
0.00396727
0.00403925
0.00406756
0.00427859
0.00529643
0.0075887
0.0121329
0.0207804
0.0368249
0.0656214
0.115422
0.197977
0.309381
0.435013
0.573181
0.715266
0.833052
0.916284
0.974077
0.999017
0.999881
0.999873
0.999869
0.999867
0.999865
0.999863
0.999861
0.99986
0.999856
0.999834
0.999781
0.999678
0.999466
1.49562e-09
4.68297e-09
1.32309e-08
3.33337e-08
6.90364e-08
1.22956e-07
2.31315e-07
5.37942e-07
1.64882e-06
6.15552e-06
3.05761e-05
0.000204344
0.00157316
0.0145478
0.122764
0.475627
0.809347
0.955547
0.999288
0.999672
0.999512
0.999326
0.999113
0.998882
0.998638
0.998349
0.997972
0.997505
0.996914
0.996096
0.994807
0.992544
0.988149
0.978635
0.956203
0.900883
0.77075
0.582802
0.389381
0.230585
0.13728
0.0816365
0.0489828
0.0304049
0.0191712
0.0110629
0.00441836
0.000454508
0.00020718
0.000197138
0.000190475
0.000182857
0.000175693
0.000175675
0.000176691
0.000177523
0.000188541
0.00023579
0.000336765
0.000522157
0.000847415
0.00142112
0.00243547
0.00422025
0.00745886
0.013664
0.0261066
0.0521184
0.107926
0.224509
0.390947
0.577669
0.755969
0.874955
0.949757
0.989268
0.99841
0.998268
0.998167
0.998106
0.998066
0.998004
0.997664
0.996837
0.995108
0.991227
3.40154e-11
9.62977e-11
2.67382e-10
6.79194e-10
1.57232e-09
3.22473e-09
6.30953e-09
1.44166e-08
4.32337e-08
1.6754e-07
8.50188e-07
5.29917e-06
4.04771e-05
0.00035865
0.00314644
0.0283931
0.184074
0.501268
0.762062
0.884442
0.937786
0.960749
0.970254
0.972443
0.968798
0.961266
0.9516
0.939905
0.92523
0.90517
0.874101
0.822093
0.737854
0.622935
0.477303
0.312697
0.171805
0.0781643
0.0208665
0.000537671
2.93006e-05
2.48409e-05
2.017e-05
1.64479e-05
1.39695e-05
1.21842e-05
1.06106e-05
9.41943e-06
8.39098e-06
7.44109e-06
7.30734e-06
7.78475e-06
7.60432e-06
7.48629e-06
7.51195e-06
7.57915e-06
8.18993e-06
1.05077e-05
1.52472e-05
2.40336e-05
3.99638e-05
6.86242e-05
0.000119959
0.000203914
0.000339921
0.000576642
0.00101344
0.00189134
0.00381217
0.00843442
0.0205297
0.0527432
0.13492
0.298945
0.487945
0.665985
0.800145
0.875768
0.92194
0.948131
0.959464
0.959444
0.950958
0.930157
0.886459
0.797775
1.22748e-12
2.87625e-12
6.67556e-12
1.40369e-11
3.12844e-11
6.61779e-11
1.40882e-10
3.45428e-10
1.03411e-09
3.99019e-09
2.08905e-08
1.3607e-07
1.04502e-06
8.97635e-06
7.86285e-05
0.000663605
0.00495433
0.0316026
0.133796
0.318647
0.46575
0.547068
0.571585
0.560772
0.529413
0.488794
0.446173
0.404535
0.362429
0.316789
0.264425
0.206661
0.150515
0.0938487
0.0423825
0.00771159
1.58982e-06
1.73809e-06
1.69055e-06
1.41747e-06
1.15909e-06
9.73158e-07
8.00303e-07
6.32969e-07
5.18613e-07
4.58035e-07
4.09349e-07
3.68148e-07
3.26789e-07
2.71454e-07
2.87554e-07
3.64719e-07
3.44494e-07
3.18943e-07
3.11885e-07
3.11864e-07
3.36769e-07
4.36257e-07
6.31367e-07
9.98209e-07
1.69744e-06
2.96943e-06
5.39284e-06
9.16337e-06
1.47694e-05
2.50173e-05
4.43627e-05
8.33848e-05
0.000166014
0.000348341
0.000779092
0.00186094
0.00469355
0.012563
0.0337012
0.0830771
0.177403
0.299076
0.399771
0.46712
0.498062
0.494567
0.454923
0.382168
0.286227
0.189334
2.8097e-14
7.52914e-14
1.76582e-13
3.82714e-13
8.90262e-13
1.86188e-12
3.77981e-12
8.64517e-12
2.38677e-11
8.85876e-11
4.57691e-10
2.83572e-09
2.03068e-08
1.58999e-07
1.21754e-06
9.64942e-06
8.72325e-05
0.000648698
0.00316942
0.0118709
0.0307175
0.0543921
0.0695827
0.0696467
0.0593047
0.045953
0.0337204
0.023578
0.0151216
0.00797072
0.0024105
2.63655e-06
2.67662e-08
2.78477e-08
2.92371e-08
3.1516e-08
3.45475e-08
3.60625e-08
3.45168e-08
2.90363e-08
2.4411e-08
2.17538e-08
1.87129e-08
1.51769e-08
1.29848e-08
1.2337e-08
1.16797e-08
1.09357e-08
9.68628e-09
8.07976e-09
9.69134e-09
1.25154e-08
1.03683e-08
8.84601e-09
8.44501e-09
8.24185e-09
8.77652e-09
1.14562e-08
1.67206e-08
2.66558e-08
4.62536e-08
8.17654e-08
1.50843e-07
2.53772e-07
3.95734e-07
6.7114e-07
1.22128e-06
2.3762e-06
4.92223e-06
1.08464e-05
2.57936e-05
6.59937e-05
0.000176302
0.000476899
0.00125746
0.00315753
0.00740066
0.0155542
0.0277692
0.0408299
0.048854
0.04776
0.0364569
0.0194228
0.00456592
2.59865e-16
5.86187e-16
2.04014e-15
5.8455e-15
1.53369e-14
4.10204e-14
9.28245e-14
1.95864e-13
4.64852e-13
1.27261e-12
4.11136e-12
1.63207e-11
8.35966e-11
5.68531e-10
4.29137e-09
3.27034e-08
1.40125e-07
1.61606e-07
2.55048e-10
-4.49621e-32
-7.61346e-32
-2.59247e-38
6.9436e-17
2.87279e-17
3.81973e-17
3.11625e-17
1.10886e-17
1.37794e-17
4.15065e-18
4.27757e-18
8.78869e-19
3.09319e-19
2.64094e-22
1.62443e-22
1.59816e-22
1.51781e-22
1.63019e-22
7.06457e-22
2.87422e-22
2.1552e-22
4.43437e-22
1.74845e-22
9.44298e-23
2.65015e-22
8.67589e-23
2.04726e-22
6.87384e-23
4.33546e-23
1.99577e-23
1.26814e-22
4.07568e-23
1.24499e-22
2.83651e-23
4.64252e-24
8.29975e-23
7.64474e-24
2.3689e-26
-7.38897e-26
-2.34364e-26
1.68036e-22
5.5604e-43
-5.72139e-29
7.90588e-22
8.26386e-42
-3.66214e-32
3.70013e-21
1.97154e-42
1.1122e-20
3.33981e-41
-7.67817e-34
-1.9848e-32
1.73441e-19
6.68205e-42
1.25805e-18
2.17749e-39
4.15201e-18
5.31659e-18
-2.19516e-26
-6.71071e-27
-1.18034e-27
-1.90304e-30
3.57835e-17
1.17024e-17
1.5414e-17
1.24854e-17
3.97993e-19
1.61527e-31
-4.95881e-39
2.58706e-28
6.98423e-29
1.95426e-27
2.61924e-28
9.12976e-27
1.09863e-26
1.61953e-26
2.92502e-48
2.17533e-25
-1.63754e-45
-2.32455e-26
-6.31545e-28
-6.71165e-44
1.82408e-22
1.45032e-43
2.11497e-23
-5.32574e-32
-1.80584e-31
-4.76045e-31
-8.67852e-31
-1.04559e-30
-7.23871e-31
-1.64319e-31
-1.89608e-43
-1.74737e-41
-6.09413e-40
-8.17288e-38
4.64547e-34
5.29367e-37
1.75468e-35
1.14868e-41
3.01544e-37
2.79442e-37
2.45934e-37
2.76776e-42
2.44122e-36
3.09146e-42
-2.80836e-43
1.23786e-36
4.54242e-43
8.07044e-38
3.2662e-39
4.2485e-46
5.10704e-37
3.46038e-38
3.43207e-38
6.28061e-40
1.30705e-37
8.08663e-39
1.8537e-37
-7.74317e-43
9.4669e-40
3.38131e-38
1.15118e-39
-6.81871e-26
-6.83147e-26
-2.35239e-26
-4.08949e-27
-7.24081e-28
-1.04753e-28
-9.44491e-30
-9.55724e-31
-7.57302e-32
-3.91624e-33
-2.1155e-34
-1.43898e-35
-2.74191e-35
-1.15428e-33
-4.11301e-32
-8.50561e-31
-2.17754e-29
-2.4497e-28
-2.73863e-27
-1.56813e-26
-6.06755e-26
-1.08417e-25
-4.343e-26
-1.5908e-26
-1.68305e-29
-1.18589e-29
1.33836e-38
2.14757e-35
1.41412e-33
1.90863e-38
-8.43044e-26
-1.39856e-31
-1.34557e-47
5.90708e-49
5.03389e-43
-4.24377e-48
1.29252e-44
-3.20519e-31
-6.00301e-30
-1.02178e-28
-7.83727e-28
-5.08039e-27
-1.07214e-26
-2.51894e-28
-6.60302e-29
-1.06847e-31
-1.69274e-30
-2.71533e-32
-1.30727e-31
-5.32685e-31
-1.72759e-30
-4.42504e-30
-8.9135e-30
-1.40588e-29
-1.65582e-29
-1.25752e-29
-6.8203e-30
-3.92149e-30
-9.2508e-30
-4.54097e-29
-2.01641e-28
-7.21169e-28
-1.93642e-27
-3.47838e-27
-3.22456e-27
-2.06327e-27
-1.05198e-27
-4.50219e-28
-1.61152e-28
-4.88848e-29
-1.26609e-29
-2.70936e-30
-4.81634e-31
-7.35436e-32
-9.84346e-33
-1.18217e-33
-1.3671e-34
-9.15956e-35
-1.60192e-33
-2.94553e-32
-4.83066e-31
-6.61413e-30
-7.59101e-29
-7.32007e-28
-5.08545e-27
-2.32141e-26
-5.70496e-26
-5.17418e-26
-1.86003e-26
-4.23374e-27
-7.26174e-28
-1.01542e-28
-1.17422e-29
-1.09608e-30
-8.5933e-32
-5.65412e-33
-3.16104e-34
-2.09968e-35
-2.59901e-35
-8.33107e-34
-3.19544e-32
-1.006e-30
-2.20001e-29
-3.34257e-28
-3.52694e-27
-2.51668e-26
-1.12643e-25
-2.60161e-25
-1.56162e-25
-1.01545e-25
-3.24477e-28
-1.90954e-27
-1.46055e-26
-6.23408e-26
-9.72858e-29
-2.90067e-27
-7.68635e-26
-1.8415e-31
-6.636e-32
-8.12129e-32
-1.98449e-31
-4.43234e-31
-1.37906e-31
-9.32598e-32
-1.98492e-30
-3.15274e-29
-2.94626e-28
-1.50718e-27
-3.2672e-27
-6.87674e-29
-5.16182e-30
-9.4355e-34
-7.57776e-33
-4.70232e-32
-2.50312e-31
-1.16371e-30
-4.45487e-30
-1.39288e-29
-3.50159e-29
-6.81185e-29
-9.26705e-29
-7.26657e-29
-3.87902e-29
-2.01143e-29
-4.05332e-29
-2.03345e-28
-9.37692e-28
-3.4247e-27
-9.15798e-27
-1.59183e-26
-1.40923e-26
-8.49397e-27
-4.00545e-27
-1.55584e-27
-5.02122e-28
-1.37422e-28
-3.20853e-29
-6.26696e-30
-1.03771e-30
-1.50082e-31
-1.93861e-32
-2.29182e-33
-2.64344e-34
-1.75909e-34
-2.92143e-33
-4.96027e-32
-7.24768e-31
-9.01266e-30
-9.31613e-29
-7.56966e-28
-4.55235e-27
-1.8385e-26
-4.18618e-26
-3.4942e-26
-1.29423e-26
-3.05901e-27
-5.41455e-28
-7.83601e-29
-9.46578e-30
-9.32598e-31
-7.77393e-32
-5.46951e-33
-3.33455e-34
-2.28671e-35
-1.71707e-35
-4.08003e-34
-1.40232e-32
-4.49959e-31
-1.07038e-29
-1.81093e-28
-2.1463e-27
-1.72967e-26
-8.79279e-26
-2.30891e-25
-1.46279e-25
-1.02645e-25
-3.96877e-28
-1.47117e-27
-1.27636e-26
-6.13481e-26
-5.07703e-29
-1.4844e-27
-3.5937e-26
-1.25445e-31
-5.48866e-32
-4.0266e-32
-4.96834e-32
-4.82239e-32
-7.54585e-33
-1.20034e-32
-3.13352e-31
-5.20712e-30
-5.05736e-29
-2.68305e-28
-6.02758e-28
-1.22255e-29
-7.69103e-32
-1.112e-33
-9.78741e-33
-6.73699e-32
-3.95639e-31
-2.02145e-30
-8.62408e-30
-3.03043e-29
-8.55614e-29
-1.83819e-28
-2.66351e-28
-2.10867e-28
-1.10917e-28
-5.37294e-29
-9.55548e-29
-4.84952e-28
-2.28108e-27
-8.35131e-27
-2.19448e-26
-3.67556e-26
-3.12058e-26
-1.78292e-26
-7.8533e-27
-2.80988e-27
-8.32084e-28
-2.08711e-28
-4.47312e-29
-8.11083e-30
-1.26651e-30
-1.74985e-31
-2.18791e-32
-2.5394e-33
-2.90099e-34
-1.90314e-34
-3.03486e-33
-4.86254e-32
-6.56238e-31
-7.6529e-30
-7.42914e-29
-5.56191e-28
-3.17507e-27
-1.24271e-26
-2.76641e-26
-2.15907e-26
-8.22936e-27
-2.01679e-27
-3.68635e-28
-5.49239e-29
-6.85375e-30
-7.05008e-31
-6.19268e-32
-4.64648e-33
-3.07944e-34
-2.18497e-35
-1.0927e-35
-1.96387e-34
-5.47715e-33
-1.57481e-31
-3.75108e-30
-6.72617e-29
-8.6826e-28
-7.70615e-27
-4.33284e-26
-1.25659e-25
-8.0203e-26
-5.80204e-26
-3.59602e-28
-6.23483e-28
-5.90897e-27
-3.20458e-26
-1.81431e-29
-5.00079e-28
-1.19935e-26
-5.89868e-32
-2.49549e-32
-1.10586e-32
-6.65142e-33
-2.86667e-33
-2.49753e-34
-1.15598e-33
-3.38747e-32
-5.92705e-31
-6.02463e-30
-3.33035e-29
-7.79141e-29
-1.57033e-30
-5.42263e-33
-1.18153e-33
-1.12068e-32
-8.37543e-32
-5.31136e-31
-2.91339e-30
-1.33954e-29
-5.06958e-29
-1.53104e-28
-3.46278e-28
-5.15902e-28
-4.0855e-28
-2.12199e-28
-9.83893e-29
-1.58415e-28
-8.01454e-28
-3.79544e-27
-1.38235e-26
-3.56309e-26
-5.77203e-26
-4.72034e-26
-2.56907e-26
-1.06588e-26
-3.55494e-27
-9.78423e-28
-2.28082e-28
-4.55942e-29
-7.80178e-30
-1.16434e-30
-1.55179e-31
-1.89026e-32
-2.15958e-33
-2.43982e-34
-1.54939e-34
-2.38989e-33
-3.68019e-32
-4.71625e-31
-5.27117e-30
-4.92358e-29
-3.53401e-28
-1.96388e-27
-7.55526e-27
-1.65845e-26
-1.22911e-26
-4.74387e-27
-1.18765e-27
-2.21922e-28
-3.38323e-29
-4.33955e-30
-4.63219e-31
-4.25826e-32
-3.38047e-33
-2.40594e-34
-1.77729e-35
-6.75042e-36
-1.03387e-34
-2.48828e-33
-5.98423e-32
-1.2709e-30
-2.20479e-29
-2.89371e-28
-2.6879e-27
-1.60974e-26
-5.00087e-26
-3.18284e-26
-2.31605e-26
-2.80156e-28
-2.09282e-28
-1.91814e-27
-1.16051e-26
-6.45462e-30
-1.4955e-28
-3.38394e-27
-2.15118e-32
-8.19463e-33
-2.33413e-33
-6.79622e-34
-1.30545e-34
-7.54145e-36
-8.99896e-35
-2.82648e-33
-5.15402e-32
-5.41571e-31
-3.0811e-30
-7.39864e-30
-1.42618e-31
-5.24975e-34
-1.13891e-33
-1.14847e-32
-9.18228e-32
-6.1871e-31
-3.57889e-30
-1.7343e-29
-6.89106e-29
-2.16741e-28
-5.03905e-28
-7.59587e-28
-5.99416e-28
-3.07951e-28
-1.38261e-28
-2.04347e-28
-1.02167e-27
-4.84099e-27
-1.75022e-26
-4.43422e-26
-6.98283e-26
-5.52096e-26
-2.8754e-26
-1.13326e-26
-3.56571e-27
-9.24526e-28
-2.03452e-28
-3.85167e-29
-6.29812e-30
-9.06599e-31
-1.17291e-31
-1.39537e-32
-1.56664e-33
-1.74326e-34
-1.05353e-34
-1.57866e-33
-2.36313e-32
-2.92162e-31
-3.16072e-30
-2.86702e-29
-1.99586e-28
-1.08447e-27
-4.11476e-27
-8.96412e-27
-6.44147e-27
-2.50953e-27
-6.4053e-28
-1.22373e-28
-1.90916e-29
-2.51627e-30
-2.78674e-31
-2.67626e-32
-2.24233e-33
-1.70039e-34
-1.3019e-35
-3.76465e-36
-4.9821e-35
-1.10758e-33
-2.32192e-32
-4.27304e-31
-6.7363e-30
-8.51509e-29
-7.96116e-28
-4.9292e-27
-1.60319e-26
-1.02157e-26
-7.33482e-27
-1.86338e-28
-6.8918e-29
-4.82881e-28
-3.22557e-27
-2.5361e-30
-4.60881e-29
-9.11093e-28
-6.46941e-33
-2.16799e-33
-4.35785e-34
-6.73758e-35
-6.23822e-36
-3.77671e-37
-5.36549e-36
-1.74134e-34
-3.32621e-33
-3.64472e-32
-2.15339e-31
-5.3617e-31
-1.06036e-32
-1.08112e-34
-9.93889e-34
-1.05784e-32
-8.92427e-32
-6.31e-31
-3.80618e-30
-1.91748e-29
-7.88145e-29
-2.54494e-28
-6.01076e-28
-9.09962e-28
-7.14472e-28
-3.63555e-28
-1.59012e-28
-2.17508e-28
-1.06972e-27
-5.05644e-27
-1.81455e-26
-4.53102e-26
-6.96985e-26
-5.34591e-26
-2.67586e-26
-1.00963e-26
-3.02806e-27
-7.47704e-28
-1.56929e-28
-2.84075e-29
-4.47442e-30
-6.24786e-31
-7.87671e-32
-9.17368e-33
-1.01296e-33
-1.10867e-34
-6.25448e-35
-9.10569e-34
-1.33281e-32
-1.60279e-31
-1.68526e-30
-1.49026e-29
-1.01137e-28
-5.3874e-28
-2.02243e-27
-4.3884e-27
-3.08668e-27
-1.20402e-27
-3.10957e-28
-6.04093e-29
-9.61143e-30
-1.29824e-30
-1.48643e-31
-1.48573e-32
-1.30712e-33
-1.04806e-34
-8.33208e-36
-1.92752e-36
-2.21962e-35
-4.80997e-34
-9.43157e-33
-1.54516e-31
-2.14506e-30
-2.46478e-29
-2.19457e-28
-1.34665e-27
-4.46082e-27
-2.89628e-27
-2.0112e-27
-1.05994e-28
-2.58459e-29
-9.99075e-29
-7.24896e-28
-1.03243e-30
-1.51517e-29
-2.49944e-28
-1.66382e-33
-4.88322e-34
-7.59279e-35
-7.6059e-36
-4.58014e-37
-6.50578e-38
-3.43789e-37
-9.0201e-36
-1.747e-34
-1.95836e-33
-1.18272e-32
-3.00787e-32
-5.68693e-34
-5.80612e-35
-7.92975e-34
-8.7911e-33
-7.76423e-32
-5.71695e-31
-3.56505e-30
-1.84971e-29
-7.79361e-29
-2.56279e-28
-6.11258e-28
-9.26452e-28
-7.2354e-28
-3.65035e-28
-1.5605e-28
-1.9841e-28
-9.57711e-28
-4.51225e-27
-1.60858e-26
-3.96939e-26
-5.99035e-26
-4.47089e-26
-2.15923e-26
-7.85188e-27
-2.26361e-27
-5.36733e-28
-1.08305e-28
-1.88767e-29
-2.87658e-30
-3.90705e-31
-4.80895e-32
-5.48828e-33
-5.95858e-34
-6.40668e-35
-3.31044e-35
-4.66838e-34
-6.70024e-33
-7.87357e-32
-8.06069e-31
-6.96139e-30
-4.61485e-29
-2.41191e-28
-8.96886e-28
-1.94368e-27
-1.35158e-27
-5.28111e-28
-1.38034e-28
-2.72843e-29
-4.42631e-30
-6.12037e-31
-7.23132e-32
-7.49893e-33
-6.89964e-34
-5.81505e-35
-4.79274e-36
-9.03813e-37
-8.74072e-36
-1.88786e-34
-3.63508e-33
-5.6416e-32
-7.16786e-31
-7.44582e-30
-6.09843e-29
-3.55781e-28
-1.16207e-27
-7.90998e-28
-5.21945e-28
-5.21327e-29
-1.07444e-29
-1.79482e-29
-1.36025e-28
-4.01224e-31
-5.06455e-30
-6.99166e-29
-3.7449e-34
-9.65124e-35
-1.24059e-35
-9.65231e-37
-5.34096e-38
-2.55767e-38
-5.83806e-38
-4.51111e-37
-7.33697e-36
-8.25036e-35
-5.11066e-34
-1.338e-33
-2.99684e-35
-4.00585e-35
-5.8179e-34
-6.69757e-33
-6.13032e-32
-4.65934e-31
-2.98532e-30
-1.58547e-29
-6.8083e-29
-2.26913e-28
-5.44928e-28
-8.25983e-28
-6.41821e-28
-3.21313e-28
-1.34512e-28
-1.59206e-28
-7.53518e-28
-3.5401e-27
-1.25515e-26
-3.06797e-26
-4.55898e-26
-3.31943e-26
-1.55174e-26
-5.46647e-27
-1.52372e-27
-3.48763e-28
-6.79354e-29
-1.14358e-29
-1.69003e-30
-2.23589e-31
-2.68881e-32
-3.0075e-33
-3.20971e-34
-3.38837e-35
-1.58056e-35
-2.14883e-34
-3.0287e-33
-3.48767e-32
-3.48147e-31
-2.94105e-30
-1.90762e-29
-9.79815e-29
-3.6142e-28
-7.83203e-28
-5.40294e-28
-2.11059e-28
-5.56784e-29
-1.11741e-29
-1.84571e-30
-2.60837e-31
-3.17286e-32
-3.40401e-33
-3.26206e-34
-2.87507e-35
-2.45514e-36
-3.9355e-37
-3.12493e-36
-6.76754e-35
-1.30964e-33
-1.99882e-32
-2.43042e-31
-2.36125e-30
-1.78679e-29
-9.71394e-29
-3.04469e-28
-2.22536e-28
-1.39064e-28
-2.24519e-29
-4.42948e-30
-3.0475e-30
-2.1807e-29
-1.43052e-31
-1.62943e-30
-1.93202e-29
-7.49294e-35
-1.70344e-35
-1.88279e-36
-1.25019e-37
-8.84042e-39
-1.17782e-38
-2.56051e-38
-7.48583e-38
-4.36374e-37
-3.33154e-36
-1.88083e-35
-4.90319e-35
-3.87095e-36
-2.65968e-35
-3.93942e-34
-4.66793e-33
-4.41447e-32
-3.45312e-31
-2.26386e-30
-1.22555e-29
-5.34396e-29
-1.80015e-28
-4.34615e-28
-6.58717e-28
-5.0951e-28
-2.53291e-28
-1.03978e-28
-1.14559e-28
-5.31166e-28
-2.49044e-27
-8.79272e-27
-2.13296e-26
-3.13015e-26
-2.22773e-26
-1.01036e-26
-3.46049e-27
-9.36142e-28
-2.07481e-28
-3.91114e-29
-6.37093e-30
-9.13857e-31
-1.17804e-31
-1.38426e-32
-1.51739e-33
-1.59158e-34
-1.64869e-35
-6.86531e-36
-8.94474e-35
-1.23967e-33
-1.40086e-32
-1.36541e-31
-1.12989e-30
-7.17288e-30
-3.62284e-29
-1.3263e-28
-2.87739e-28
-1.97776e-28
-7.73727e-29
-2.06155e-29
-4.2017e-30
-7.06706e-31
-1.01968e-31
-1.27418e-32
-1.41157e-33
-1.40422e-34
-1.28881e-35
-1.13894e-36
-1.59831e-37
-9.99588e-37
-2.18197e-35
-4.27868e-34
-6.54801e-33
-7.89367e-32
-7.46101e-31
-5.39111e-30
-2.77319e-29
-8.31387e-29
-6.52432e-29
-3.91994e-29
-8.56397e-30
-1.69143e-30
-5.59994e-31
-3.04512e-30
-4.62659e-32
-4.89442e-31
-5.1249e-30
-1.34778e-35
-2.71524e-36
-2.63586e-37
-1.56229e-38
-2.1924e-39
-5.26899e-39
-1.241e-38
-3.61755e-38
-1.29463e-37
-4.21809e-37
-1.20532e-36
-2.45519e-36
-1.96534e-36
-1.64461e-35
-2.48788e-34
-3.02797e-33
-2.93751e-32
-2.35096e-31
-1.5715e-30
-8.64594e-30
-3.81878e-29
-1.29788e-28
-3.14789e-28
-4.77133e-28
-3.67528e-28
-1.81537e-28
-7.31684e-29
-7.49843e-29
-3.40213e-28
-1.59317e-27
-5.60652e-27
-1.35157e-26
-1.96296e-26
-1.36733e-26
-6.02551e-27
-2.01123e-27
-5.29204e-28
-1.13755e-28
-2.07769e-29
-3.27803e-30
-4.5671e-31
-5.73826e-32
-6.5882e-33
-7.07509e-34
-7.28852e-35
-7.40421e-36
-2.73145e-36
-3.38714e-35
-4.621e-34
-5.12516e-33
-4.88619e-32
-3.96662e-31
-2.46568e-30
-1.22601e-29
-4.45796e-29
-9.68679e-29
-6.64378e-29
-2.60318e-29
-6.99976e-30
-1.44743e-30
-2.4765e-31
-3.64456e-32
-4.67115e-33
-5.33053e-34
-5.48881e-35
-5.2274e-36
-4.77244e-37
-6.07808e-38
-2.92423e-37
-6.41029e-36
-1.27375e-34
-1.97024e-33
-2.38838e-32
-2.24768e-31
-1.59704e-30
-7.98662e-30
-2.32606e-29
-1.92186e-29
-1.13243e-29
-2.9215e-30
-5.85412e-31
-1.24478e-31
-3.78452e-31
-1.35725e-32
-1.35563e-31
-1.28334e-30
-2.19819e-36
-3.9403e-37
-3.40004e-38
-1.89172e-39
-7.28858e-40
-2.22207e-39
-5.80837e-39
-1.9434e-38
-7.16758e-38
-2.0849e-37
-4.45182e-37
-7.15123e-37
-1.19025e-36
-9.57583e-36
-1.46286e-34
-1.82031e-33
-1.81009e-32
-1.48053e-31
-1.00699e-30
-5.61921e-30
-2.50983e-29
-8.59593e-29
-2.09342e-28
-3.17382e-28
-2.43532e-28
-1.19576e-28
-4.7378e-29
-4.5111e-29
-1.99949e-28
-9.35726e-28
-3.28466e-27
-7.87608e-27
-1.1337e-26
-7.73459e-27
-3.31478e-27
-1.07989e-27
-2.76705e-28
-5.77344e-29
-1.02233e-29
-1.56309e-30
-2.1158e-31
-2.59096e-32
-2.90605e-33
-3.05656e-34
-3.09105e-35
-3.07756e-36
-1.00115e-36
-1.17288e-35
-1.57637e-34
-1.7155e-33
-1.60281e-32
-1.27775e-31
-7.77906e-31
-3.81035e-30
-1.37637e-29
-2.99706e-29
-2.05565e-29
-8.07911e-30
-2.19381e-30
-4.60333e-31
-8.00999e-32
-1.20131e-32
-1.57705e-33
-1.851e-34
-1.96771e-35
-1.93853e-36
-1.82611e-37
-2.16818e-38
-7.80162e-38
-1.71193e-36
-3.4489e-35
-5.41486e-34
-6.64472e-33
-6.29841e-32
-4.47694e-31
-2.22181e-30
-6.39884e-30
-5.45185e-30
-3.19098e-30
-8.98684e-31
-1.83278e-31
-3.21951e-32
-4.33451e-32
-3.62461e-33
-3.44996e-32
-3.00919e-31
-3.27349e-37
-5.23949e-38
-4.05215e-39
-2.39126e-40
-2.6281e-40
-8.82459e-40
-2.61868e-39
-1.01023e-38
-3.94955e-38
-1.17263e-37
-2.51525e-37
-4.04508e-37
-6.91219e-37
-5.24094e-36
-8.09518e-35
-1.02785e-33
-1.04247e-32
-8.68166e-32
-5.99599e-31
-3.38827e-30
-1.5285e-29
-5.27098e-29
-1.28853e-28
-1.95425e-28
-1.49395e-28
-7.29409e-29
-2.84463e-29
-2.514e-29
-1.08611e-28
-5.08107e-28
-1.77997e-27
-4.24719e-27
-6.064e-27
-4.05329e-27
-1.69025e-27
-5.37968e-28
-1.34326e-28
-2.72178e-29
-4.67453e-30
-6.9291e-31
-9.11474e-32
-1.08786e-32
-1.19176e-33
-1.22714e-34
-1.21739e-35
-1.18727e-36
-3.39798e-37
-3.7314e-36
-4.94174e-35
-5.27603e-34
-4.839e-33
-3.7892e-32
-2.26111e-31
-1.09214e-30
-3.92071e-30
-8.55715e-30
-5.87528e-30
-2.31766e-30
-6.3543e-31
-1.352e-31
-2.39229e-32
-3.65564e-33
-4.90823e-34
-5.91346e-35
-6.47581e-36
-6.58613e-37
-6.39034e-38
-7.24697e-39
-1.91381e-38
-4.18513e-37
-8.55602e-36
-1.36329e-34
-1.6971e-33
-1.62801e-32
-1.16699e-31
-5.8116e-31
-1.67435e-30
-1.45122e-30
-8.48406e-31
-2.51011e-31
-5.21094e-32
-8.6153e-33
-4.90253e-33
-8.85332e-34
-8.06948e-33
-6.58217e-32
-4.47716e-38
-6.41933e-39
-4.48707e-40
-3.69968e-41
-9.26058e-41
-3.32595e-40
-1.14595e-39
-5.04901e-39
-2.07584e-38
-6.31411e-38
-1.3823e-37
-2.26614e-37
-3.82e-37
-2.70879e-36
-4.20028e-35
-5.43051e-34
-5.61745e-33
-4.76054e-32
-3.33474e-31
-1.90616e-30
-8.67629e-30
-3.01035e-29
-7.38433e-29
-1.12035e-28
-8.53323e-29
-4.14341e-29
-1.59235e-29
-1.30524e-29
-5.48077e-29
-2.56357e-28
-8.96504e-28
-2.12897e-27
-3.0162e-27
-1.97521e-27
-8.01746e-28
-2.49475e-28
-6.07235e-29
-1.19529e-29
-1.9917e-30
-2.86317e-31
-3.6606e-32
-4.25808e-33
-4.55539e-34
-4.5901e-35
-4.46422e-36
-4.26267e-37
-1.0731e-37
-1.09531e-36
-1.42892e-35
-1.49721e-34
-1.3494e-33
-1.03775e-32
-6.07721e-32
-2.89641e-31
-1.03362e-30
-2.26143e-30
-1.55626e-30
-6.16843e-31
-1.70852e-31
-3.68466e-32
-6.62658e-33
-1.03169e-33
-1.41516e-34
-1.74781e-35
-1.96805e-36
-2.06192e-37
-2.05812e-38
-2.2705e-39
-4.34631e-39
-9.38259e-38
-1.94897e-36
-3.15514e-35
-3.98568e-34
-3.87691e-33
-2.81239e-32
-1.41274e-31
-4.09576e-31
-3.5855e-31
-2.09724e-31
-6.404e-32
-1.35247e-32
-2.21162e-33
-6.14979e-34
-1.98747e-34
-1.73812e-33
-1.341e-32
-5.65287e-39
-7.28245e-40
-4.66343e-41
-7.83138e-42
-3.09839e-41
-1.20111e-40
-4.88752e-40
-2.42046e-39
-1.03793e-38
-3.23009e-38
-7.21976e-38
-1.20735e-37
-2.00832e-37
-1.32525e-36
-2.06068e-35
-2.70819e-34
-2.84832e-33
-2.45075e-32
-1.73899e-31
-1.0045e-30
-4.60967e-30
-1.60827e-29
-3.95742e-29
-6.00581e-29
-4.55751e-29
-2.20076e-29
-8.34349e-30
-6.34134e-30
-2.57946e-29
-1.2063e-28
-4.21215e-28
-9.95423e-28
-1.39944e-27
-8.97715e-28
-3.54787e-28
-1.0799e-28
-2.56294e-29
-4.90247e-30
-7.92826e-31
-1.10568e-31
-1.3742e-32
-1.55787e-33
-1.6273e-34
-1.60385e-35
-1.52818e-36
-1.42807e-37
-3.16753e-38
-2.97791e-37
-3.8242e-36
-3.93524e-35
-3.48631e-34
-2.63295e-33
-1.51539e-32
-7.13044e-32
-2.53041e-31
-5.54952e-31
-3.83125e-31
-1.52693e-31
-4.27377e-32
-9.34284e-33
-1.7065e-33
-2.7056e-34
-3.78986e-35
-4.79145e-36
-5.53939e-37
-5.96797e-38
-6.12052e-39
-6.65386e-40
-9.16859e-40
-1.9435e-38
-4.09514e-37
-6.73516e-36