/*--------------------------------*- C++ -*----------------------------------*\
| =========                 |                                                 |
| \\      /  F ield         | OpenFOAM: The Open Source CFD Toolbox           |
|  \\    /   O peration     | Version:  v1912                                 |
|   \\  /    A nd           | Website:  www.openfoam.com                      |
|    \\/     M anipulation  |                                                 |
\*---------------------------------------------------------------------------*/
FoamFile
{
    version     2.0;
    format      ascii;
    class       volScalarField;
    location    "10";
    object      alpha.water;
}
// * * * * * * * * * * * * * * * * * * * * * * * * * * * * * * * * * * * * * //

dimensions      [0 0 0 0 0 0 0];


internalField   nonuniform List<scalar> 
14268
(
1
1
1
1
1
1
1
1
1
1
1
1
1
1
1
1
1
1
1
1
1
1
1
1
1
1
1
1
1
1
1
1
1
1
1
1
1
1
1
1
1
1
1
1
1
1
1
1
1
1
1
1
1
1
1
1
1
1
1
1
1
1
1
1
1
1
1
1
1
1
1
1
1
1
1
1
1
1
1
1
1
1
1
1
1
1
1
1
1
1
1
1
1
1
1
1
1
1
1
1
1
1
1
1
1
1
1
1
1
1
1
1
1
1
1
1
1
1
1
1
1
1
1
1
1
1
1
1
1
1
1
1
1
1
1
1
1
1
1
1
1
1
1
1
1
1
1
1
1
1
1
1
1
1
1
1
1
1
1
1
1
1
1
1
1
1
1
1
1
1
1
1
1
1
1
1
1
1
1
1
1
1
1
1
1
1
1
1
1
1
1
1
1
1
1
0.999999
0.996021
0.979017
0.967585
0.95958
0.451627
0.42875
0.405691
0.382465
0.361517
0.350266
0.336126
0.319922
0.010445
0.00951216
0.00867267
0.00789373
0.00731141
0.00705547
0.00673178
0.00650554
-7.67972e-30
-1.05864e-29
-1.27114e-29
-3.29909e-29
-1.95492e-28
-1.49951e-27
-5.19247e-27
-8.19343e-27
-2.78878e-31
-2.52611e-30
-5.20809e-30
-5.88264e-29
-5.14145e-28
-4.64722e-27
-1.49834e-26
-1.82103e-26
4.89609e-32
-6.92662e-32
-4.45426e-30
-5.91402e-29
-5.51306e-28
-3.09245e-27
-5.3875e-27
-8.4915e-27
-2.77284e-33
-1.20564e-31
-2.36859e-30
-3.45217e-29
-4.14356e-28
-1.62405e-27
-1.80091e-27
-1.40205e-27
-2.57614e-34
-5.78006e-33
-9.76104e-32
-1.28088e-30
-1.2696e-29
-9.80594e-29
-2.50806e-28
-3.99305e-28
-1.17019e-34
-2.69347e-33
-4.46827e-32
-5.46405e-31
-5.06201e-30
-3.62747e-29
-6.95129e-29
-8.61027e-29
-6.10164e-36
-1.52567e-34
-2.926e-33
-4.46851e-32
-4.91636e-31
-3.94194e-30
-1.14539e-29
-1.74885e-29
-1.98617e-36
-4.92892e-35
-9.06551e-34
-1.32179e-32
-1.31257e-31
-9.5506e-31
-2.46987e-30
-3.53819e-30
-1.19226e-37
-3.39056e-36
-7.38044e-35
-1.27695e-33
-1.46141e-32
-1.17493e-31
-3.7208e-31
-6.08595e-31
-2.46306e-38
-6.86919e-37
-1.4206e-35
-2.30147e-34
-2.43778e-33
-1.94608e-32
-6.07279e-32
-9.95188e-32
-1.60714e-39
-5.00211e-38
-1.17344e-36
-2.17958e-35
-2.62251e-34
-2.23151e-33
-7.80274e-33
-1.36385e-32
-2.21647e-40
-6.98299e-39
-1.60491e-37
-2.85263e-36
-3.25515e-35
-2.68187e-34
-9.61343e-34
-1.75219e-33
-1.39453e-41
-4.68417e-40
-1.17363e-38
-2.32202e-37
-2.93416e-36
-2.62777e-35
-1.02448e-34
-1.92217e-34
-1.38235e-42
-4.81611e-41
-1.21166e-39
-2.32762e-38
-2.82916e-37
-2.42371e-36
-9.7477e-36
-1.96024e-35
-7.74324e-44
-2.83322e-42
-7.59547e-41
-1.58702e-39
-2.11349e-38
-1.97331e-37
-8.55842e-37
-1.73332e-36
-5.8669e-45
-2.22386e-43
-6.10522e-42
-1.25831e-40
-1.63035e-39
-1.46874e-38
-6.55262e-38
-1.42309e-37
-2.89789e-46
-1.142e-44
-3.27157e-43
-7.203e-42
-1.02415e-40
-1.00002e-39
-4.72525e-39
-1.03136e-38
-1.72789e-47
-7.13022e-46
-2.12319e-44
-4.63472e-43
-6.42935e-42
-6.1028e-41
-2.97596e-40
-6.93e-40
-7.54475e-49
-3.19147e-47
-9.8121e-46
-2.28506e-44
-3.43004e-43
-3.46937e-42
-1.77463e-41
-4.17882e-41
-3.63608e-50
-1.63763e-48
-5.1928e-47
-1.1962e-45
-1.77437e-44
-1.77244e-43
-9.3639e-43
-2.33552e-42
-1.40618e-51
-6.43685e-50
-2.10638e-48
-5.09856e-47
-8.04701e-46
-8.46325e-45
-4.66761e-44
-1.1876e-43
-5.629e-53
-2.68204e-51
-9.04799e-50
-2.20305e-48
-3.4897e-47
-3.68075e-46
-2.09263e-45
-5.59761e-45
-1.93848e-54
-9.3834e-53
-3.23564e-51
-8.14848e-50
-1.35277e-48
-1.4907e-47
-8.81314e-47
-2.42434e-46
-6.46403e-56
-3.22748e-54
-1.14896e-52
-2.94657e-51
-4.97591e-50
-5.55698e-49
-3.38465e-48
-9.73101e-48
-1.96004e-57
-9.98965e-56
-3.62821e-54
-9.51209e-53
-1.66322e-51
-1.92135e-50
-1.21428e-49
-3.61359e-49
-5.56898e-59
-2.91082e-57
-1.08731e-55
-2.91985e-54
-5.23021e-53
-6.15601e-52
-4.01785e-51
-1.24702e-50
-1.46752e-60
-7.856e-59
-3.00178e-57
-8.25368e-56
-1.51677e-54
-1.83504e-53
-1.2421e-52
-4.00397e-52
-3.60681e-62
-1.97866e-60
-7.7449e-59
-2.18195e-57
-4.11612e-56
-5.097e-55
-3.57035e-54
-1.19864e-53
-8.27603e-64
-4.64899e-62
-1.86805e-60
-5.37448e-59
-1.03981e-57
-1.32296e-56
-9.58867e-56
-3.35124e-55
-1.77921e-65
-1.02069e-63
-4.21291e-62
-1.23773e-60
-2.45407e-59
-3.20974e-58
-2.40603e-57
-8.76462e-57
-3.5833e-67
-2.10244e-65
-8.85793e-64
-2.66325e-62
-5.43015e-61
-7.29233e-60
-5.65505e-59
-2.14804e-58
-6.76704e-69
-4.0542e-67
-1.74805e-65
-5.381e-64
-1.1263e-62
-1.55379e-61
-1.24657e-60
-4.94117e-60
-1.19984e-70
-7.34232e-69
-3.23961e-67
-1.02087e-65
-2.19369e-64
-3.10994e-63
-2.58143e-62
-1.06853e-61
-2.00031e-72
-1.25063e-70
-5.64656e-69
-1.82129e-67
-4.01814e-66
-5.85534e-65
-5.02925e-64
-2.17551e-63
-3.14077e-74
-2.00567e-72
-9.26555e-71
-3.05966e-69
-6.9306e-68
-1.03844e-66
-9.2309e-66
-4.17609e-65
-4.64888e-76
-3.03203e-74
-1.43321e-72
-4.84581e-71
-1.12705e-69
-1.73693e-68
-1.59828e-67
-7.5683e-67
-6.4947e-78
-4.32565e-76
-2.09218e-74
-7.24448e-73
-1.7302e-71
-2.74346e-70
-2.61392e-69
-1.29665e-68
-8.57304e-80
-5.83283e-78
-2.88569e-76
-1.02353e-74
-2.51054e-73
-4.09711e-72
-4.04333e-71
-2.10299e-70
-1.07013e-81
-7.44205e-80
-3.76499e-78
-1.36823e-76
-3.44735e-75
-5.79225e-74
-5.92311e-73
-3.23299e-72
-1.26407e-83
-8.98639e-82
-4.653e-80
-1.73244e-78
-4.48488e-77
-7.7612e-76
-8.22746e-75
-4.7171e-74
-1.41566e-85
-1.02807e-83
-5.45299e-82
-2.08019e-80
-5.53439e-79
-9.8682e-78
-1.08499e-76
-6.54024e-76
-1.50471e-87
-1.11654e-85
-6.06414e-84
-2.37122e-82
-6.48503e-81
-1.19197e-79
-1.36e-78
-8.62749e-78
-1.51991e-89
-1.15183e-87
-6.40442e-86
-2.56889e-84
-7.22351e-83
-1.36928e-81
-1.62219e-80
-1.08404e-79
-1.45934e-91
-1.12989e-89
-6.43237e-88
-2.64725e-86
-7.65646e-85
-1.49754e-83
-1.84339e-82
-1.29889e-81
-1.33315e-93
-1.05492e-91
-6.15037e-90
-2.59765e-88
-7.73046e-87
-1.56096e-85
-1.99783e-84
-1.48576e-83
-1.15977e-95
-9.38235e-94
-5.60331e-92
-2.4294e-90
-7.44225e-89
-1.55234e-87
-2.06737e-86
-1.62411e-85
-9.61822e-98
-7.95736e-96
-4.86959e-94
-2.16795e-92
-6.83947e-91
-1.47456e-89
-2.04499e-88
-1.69863e-87
-7.60204e-100
-6.43514e-98
-4.0369e-96
-1.84644e-94
-6.00308e-93
-1.3388e-91
-1.93503e-90
-1.7013e-89
-5.6881e-102
-4.93628e-100
-3.17995e-98
-1.49676e-96
-5.02292e-95
-1.16072e-93
-1.7513e-92
-1.63217e-91
-4.01667e-104
-3.5792e-102
-2.37139e-100
-1.15025e-98
-3.9896e-97
-9.56406e-96
-1.50881e-94
-1.49232e-93
-1.11567e-106
-1.03063e-104
-7.12105e-103
-3.61562e-101
-1.31911e-99
-3.33592e-98
-5.57935e-97
-5.85428e-96
-1.02683e-109
-1.03172e-107
-7.8199e-106
-4.39044e-104
-1.78253e-102
-5.04233e-101
-9.45055e-100
-1.10651e-98
-8.20809e-113
-9.10588e-111
-7.70896e-109
-4.86796e-107
-2.23438e-105
-7.17274e-104
-1.52608e-102
-2.01308e-101
-5.49297e-116
-6.77466e-114
-6.52377e-112
-4.71869e-110
-2.49157e-108
-9.22461e-107
-2.26017e-105
-3.39584e-104
-2.94167e-119
-4.11051e-117
-4.54492e-115
-3.85067e-113
-2.39253e-111
-1.0439e-109
-3.00426e-108
-5.22193e-107
-1.1317e-122
-1.89165e-120
-2.50658e-118
-2.54913e-116
-1.91772e-114
-1.01537e-112
-3.5272e-111
-7.25002e-110
-2.77896e-126
-5.87452e-124
-9.86161e-122
-1.27314e-119
-1.21655e-117
-8.17268e-116
-3.57497e-114
-9.00019e-113
-3.49341e-130
-1.01851e-127
-2.35769e-125
-4.19628e-123
-5.52076e-121
-5.08532e-119
-3.0137e-117
-9.89424e-116
-1.28637e-134
-6.11475e-132
-2.30123e-129
-6.63872e-127
-1.40975e-124
-2.08038e-122
-1.94161e-120
-9.51558e-119
-2.34249e-140
-2.6333e-137
-2.37228e-134
-1.6577e-131
-8.60819e-129
-3.11913e-126
-7.07753e-124
-7.91019e-122
1
1
1
1
1
1
1
1
1
1
1
1
1
1
1
1
1
1
1
1
1
1
1
1
1
1
1
1
1
1
1
1
1
1
1
1
1
1
1
1
1
1
1
1
1
1
1
1
1
1
1
1
1
1
1
1
1
1
1
1
1
1
1
1
1
1
1
1
1
1
1
1
1
1
1
1
1
1
1
1
1
1
1
1
1
1
1
1
1
1
1
1
1
1
1
1
1
1
1
1
1
1
1
1
1
1
1
1
1
1
1
1
1
1
1
1
1
1
1
1
1
1
1
1
1
1
1
1
1
1
1
1
1
1
1
1
1
1
1
1
1
1
1
1
1
1
1
1
1
1
1
1
1
1
1
1
1
1
1
1
1
1
1
1
1
1
1
1
1
1
1
1
1
1
1
1
1
1
1
1
1
1
1
1
1
1
1
1
1
1
1
1
1
1
1
1
1
1
1
1
1
1
1
1
1
1
1
1
1
1
1
1
1
1
1
1
1
1
1
1
1
1
1
1
1
1
1
1
1
1
1
1
1
1
1
1
1
1
1
1
1
1
1
1
1
1
1
1
1
1
1
1
1
1
1
1
1
1
1
1
1
1
1
1
1
1
1
1
1
1
1
1
1
1
1
1
1
1
1
1
1
1
1
1
1
1
1
1
1
1
1
1
1
1
1
1
1
1
1
1
1
1
1
1
1
1
1
1
1
1
1
1
1
1
1
1
1
1
1
1
1
1
1
1
1
1
1
1
1
1
1
1
1
1
1
1
1
1
1
1
1
1
1
1
1
1
1
1
1
1
1
1
1
1
1
1
1
1
1
1
1
1
1
1
1
1
1
1
1
1
1
1
1
1
1
1
1
1
1
1
1
1
1
1
1
1
1
1
1
1
1
1
1
1
1
1
1
1
1
1
1
1
1
1
1
1
1
1
1
1
1
1
1
1
1
1
1
1
1
1
1
1
1
1
1
1
1
1
1
1
1
1
1
1
1
1
1
1
1
1
1
1
1
1
1
1
1
1
1
1
1
1
1
1
1
1
1
1
1
1
1
1
1
1
1
1
1
1
1
1
1
1
1
1
1
1
1
1
1
1
1
1
1
1
1
1
1
1
1
1
1
1
1
1
1
1
1
1
1
1
1
1
1
1
1
1
1
1
1
1
1
1
1
1
1
1
1
1
1
1
1
1
1
1
1
1
1
1
1
1
1
1
1
1
1
1
1
1
1
1
1
1
1
1
1
1
1
1
1
1
1
1
1
1
1
1
1
1
1
1
1
1
1
1
1
1
1
1
1
1
1
1
1
1
1
1
1
1
1
1
1
1
1
1
1
1
1
1
1
1
1
1
1
1
1
1
1
1
1
1
1
1
1
1
1
1
1
1
1
1
1
1
1
1
1
1
1
1
1
1
1
1
1
1
1
1
1
1
1
1
1
1
1
1
1
1
1
1
1
1
1
1
1
1
1
1
1
1
1
1
1
1
1
1
1
1
1
1
1
1
1
1
1
1
1
1
1
1
1
1
1
1
1
1
1
1
1
1
1
1
1
1
1
1
1
1
1
1
1
1
1
1
1
1
1
1
1
1
1
1
1
1
1
1
1
1
1
1
1
1
1
1
1
1
1
1
1
1
1
1
1
1
1
1
1
1
1
1
1
1
1
1
1
1
1
1
1
1
1
1
1
1
1
1
1
1
1
1
1
1
1
1
1
1
1
1
1
1
1
1
1
1
1
1
1
1
1
1
1
1
1
1
1
1
1
1
1
1
1
1
1
1
1
1
1
1
1
1
1
1
1
1
1
1
1
1
1
1
1
1
1
1
1
1
1
1
1
1
1
1
1
1
1
1
1
1
1
1
1
1
1
1
1
1
1
1
1
1
1
1
1
1
1
1
1
1
1
1
1
1
1
1
1
1
1
1
1
1
1
1
1
1
1
1
1
1
1
1
1
1
1
1
1
1
1
1
1
1
1
1
1
1
1
1
1
1
1
1
1
1
1
1
1
1
1
1
1
1
1
1
1
1
1
1
1
1
1
1
1
1
1
1
1
1
1
1
1
1
1
1
1
1
1
1
1
1
1
1
1
1
1
1
1
1
1
1
1
1
1
1
1
1
1
1
1
1
1
1
1
1
1
1
1
1
1
1
1
1
1
1
1
1
1
1
1
1
1
1
1
1
1
1
1
1
1
1
1
1
1
1
1
1
1
1
1
1
1
1
1
1
1
1
1
1
1
1
1
1
1
1
1
1
1
1
1
1
1
1
1
1
1
1
1
1
1
1
1
1
1
1
1
1
1
1
1
1
1
1
1
1
1
1
1
1
1
1
1
1
1
1
1
1
1
1
1
1
1
1
1
1
1
1
1
1
1
1
1
1
1
1
1
1
1
1
1
1
1
1
1
1
1
1
1
1
1
1
1
1
1
1
1
1
1
1
1
1
1
1
1
1
1
1
1
1
1
1
1
1
1
1
1
1
1
1
1
1
1
1
1
1
1
1
1
1
1
1
1
1
1
1
1
1
1
1
1
1
1
1
1
1
1
1
1
1
1
1
1
1
1
1
1
1
1
1
1
1
1
1
1
1
1
1
1
1
1
1
1
1
1
1
1
1
1
1
1
1
1
1
1
1
1
1
1
1
1
1
1
1
1
1
1
1
1
1
1
1
1
1
1
1
1
1
1
1
1
1
1
1
1
1
1
1
1
1
1
1
1
1
1
1
1
1
1
1
1
1
1
1
1
1
1
1
1
1
1
1
1
1
1
1
1
1
1
1
1
1
1
1
1
1
1
1
1
1
1
1
1
1
1
1
1
1
1
1
1
1
1
1
1
1
1
1
1
1
1
1
1
1
1
1
1
1
1
1
1
1
1
1
1
1
1
1
1
1
1
1
1
1
1
1
1
1
1
1
1
1
1
1
1
1
1
1
1
1
1
1
1
1
1
1
1
1
1
1
1
1
1
1
1
1
1
1
1
1
1
1
1
1
1
1
1
1
1
1
1
1
1
1
1
1
1
1
1
1
1
1
1
1
1
1
1
1
1
1
1
1
1
1
1
1
1
1
1
1
1
1
1
1
1
1
1
1
1
1
1
1
1
1
1
1
1
1
1
1
1
1
1
1
1
1
1
1
1
1
1
1
1
1
1
1
1
1
1
1
1
1
1
1
1
1
1
1
1
1
1
1
1
1
1
1
1
1
1
1
1
1
1
1
1
1
1
1
1
1
1
1
1
1
1
1
1
1
1
1
1
1
1
1
1
1
1
1
1
1
1
1
1
1
1
1
1
1
1
1
1
1
1
1
1
1
1
1
1
1
1
1
1
1
1
1
1
1
1
1
1
1
1
1
1
1
1
1
1
1
1
1
1
1
1
1
1
1
1
1
1
1
1
1
1
1
1
1
1
1
1
1
1
1
1
1
1
1
1
1
1
1
1
1
1
1
1
1
1
1
1
1
1
1
1
1
1
1
1
1
1
1
1
1
1
1
1
1
1
1
1
1
1
1
1
1
1
1
1
1
1
1
1
1
1
1
1
1
1
1
1
1
1
1
1
1
1
1
1
1
1
1
1
1
1
1
1
1
1
1
1
1
1
1
1
1
1
1
1
1
1
1
1
1
1
1
1
1
1
1
1
1
1
1
1
1
1
1
1
1
1
1
1
1
1
1
1
1
1
1
1
1
1
1
1
1
1
1
1
1
1
1
1
1
1
1
1
1
1
1
1
1
1
1
1
1
1
1
1
1
1
1
1
1
1
1
1
1
1
1
1
1
1
1
1
1
1
1
1
1
1
1
1
1
1
1
1
1
1
1
1
1
1
1
1
1
1
1
1
1
1
1
1
1
1
1
1
1
1
1
1
1
1
1
1
1
1
1
1
1
1
1
1
1
1
1
1
1
1
1
1
1
1
1
1
1
1
1
1
1
1
1
1
1
1
1
1
1
1
1
1
1
1
1
1
1
1
1
1
1
1
1
1
1
1
1
1
1
1
1
1
1
1
1
1
1
1
1
1
1
1
1
1
1
1
1
1
1
1
1
1
1
1
1
1
1
1
1
1
1
1
1
1
1
1
1
1
1
1
1
1
1
1
1
1
1
1
1
1
1
1
1
1
1
1
1
1
1
1
1
1
1
1
1
1
1
1
1
1
1
1
1
1
1
1
1
1
1
1
1
1
1
1
1
1
1
1
1
1
1
1
1
1
1
1
1
1
1
1
1
1
1
1
1
1
1
1
1
1
1
1
1
1
1
1
1
1
1
1
1
1
1
1
1
1
1
1
1
1
1
1
1
1
1
1
1
1
1
1
1
1
1
1
1
1
1
1
1
1
1
1
1
1
1
1
1
1
1
1
1
1
1
1
1
1
1
1
1
1
1
1
1
1
1
1
1
1
1
1
1
1
1
1
1
1
1
1
1
1
1
1
1
1
1
1
1
1
1
1
1
1
1
1
1
1
1
1
1
1
1
1
1
1
1
1
1
1
1
1
1
1
1
1
1
1
1
1
1
1
1
1
1
1
1
1
1
1
1
1
1
1
1
1
1
1
1
1
1
1
1
1
1
1
1
1
1
1
1
1
1
1
1
1
1
1
1
1
1
1
1
1
1
1
1
1
1
1
1
1
1
1
1
1
1
1
1
1
1
1
1
1
1
1
1
1
1
1
1
1
1
1
1
1
1
1
1
1
1
1
1
1
1
1
1
1
1
1
1
1
1
1
1
1
1
1
1
1
1
1
1
1
1
1
1
1
1
1
1
1
1
1
1
1
1
1
1
1
1
1
1
1
1
1
1
1
1
1
1
1
1
1
1
1
1
1
1
1
1
1
1
1
1
1
1
1
1
1
1
1
1
1
1
1
1
1
1
1
1
1
1
1
1
1
1
1
1
1
1
1
1
1
1
1
1
1
1
1
1
1
1
1
1
1
1
1
1
1
1
1
1
1
1
1
1
1
1
1
1
1
1
1
1
1
1
1
1
1
1
1
1
1
1
1
1
1
1
1
1
1
1
1
1
1
1
1
1
1
1
1
1
1
1
1
1
1
1
1
1
1
1
1
1
1
1
1
1
1
1
1
1
1
1
1
1
1
1
1
1
1
1
1
1
1
1
1
1
1
1
1
1
1
1
1
1
1
1
1
1
1
1
1
1
1
1
1
1
1
1
1
1
1
1
1
1
1
1
1
1
1
1
1
1
1
1
1
1
1
1
1
1
1
1
1
1
1
1
1
1
1
1
1
1
1
1
1
1
1
1
1
1
1
1
1
1
1
1
1
1
1
1
1
1
1
1
1
1
1
1
1
1
1
1
1
1
1
1
1
1
1
1
1
1
1
1
1
1
1
1
1
1
1
1
1
1
1
1
1
1
1
1
1
1
1
1
1
1
1
1
1
1
1
1
1
1
1
1
1
1
1
1
1
1
1
1
1
1
1
1
1
1
1
1
1
1
1
1
1
1
1
1
1
1
1
1
1
1
1
1
1
1
1
1
1
1
1
1
1
1
1
1
1
1
1
1
1
1
1
1
1
1
1
1
1
1
1
1
1
1
1
1
1
1
1
1
1
1
1
1
1
1
1
1
1
1
1
1
1
1
1
1
1
1
1
1
1
1
1
1
1
1
1
1
1
1
1
1
1
1
1
1
1
1
1
1
1
1
1
1
1
1
1
1
1
1
1
1
1
1
1
1
1
1
1
1
1
1
1
1
1
1
1
1
1
1
1
1
1
1
1
1
1
1
1
1
1
1
1
1
1
1
1
1
1
1
1
1
1
1
1
1
1
1
1
1
1
1
1
1
1
1
1
1
1
1
1
1
1
1
1
1
1
1
1
1
1
1
1
1
1
1
1
1
1
1
1
1
1
1
1
1
1
1
1
1
1
1
1
1
1
1
1
1
1
1
1
1
1
1
1
1
1
1
1
1
1
1
1
1
1
1
1
1
1
1
1
1
1
1
1
1
1
1
1
1
1
1
1
1
1
1
1
1
1
1
1
1
1
1
1
1
1
1
1
1
1
1
1
1
1
1
1
1
1
1
1
1
1
1
1
1
1
1
1
1
1
1
1
1
1
1
1
1
1
1
1
1
1
1
1
1
1
1
1
1
1
1
1
1
1
1
1
1
1
1
1
1
1
1
1
1
1
1
1
1
1
1
1
1
1
1
1
1
1
1
1
1
1
1
1
1
1
1
1
1
1
1
1
1
1
1
1
1
1
1
1
1
1
1
1
1
1
1
1
1
1
1
1
1
1
1
1
1
1
1
1
1
1
1
1
1
1
1
1
1
1
1
1
1
1
1
1
1
1
1
1
1
1
1
1
1
1
1
1
1
1
1
1
1
1
1
1
1
1
1
1
1
1
1
1
1
1
1
1
1
1
1
1
1
1
1
1
1
1
1
1
1
1
1
1
1
1
1
1
1
1
1
1
1
1
1
1
1
1
1
1
1
1
1
1
1
1
1
1
1
1
1
1
1
1
1
1
1
1
1
1
1
1
1
1
1
1
1
1
1
1
1
1
1
1
1
1
1
1
1
1
1
1
1
1
1
1
1
1
1
1
1
1
1
1
1
1
1
1
1
1
1
1
1
1
1
1
1
1
1
1
1
1
1
1
1
1
1
1
1
1
1
1
1
1
1
1
1
1
1
1
1
1
1
1
1
1
1
1
1
1
1
1
1
1
1
1
1
1
1
1
1
1
1
1
1
1
1
1
1
1
1
1
1
1
1
1
1
1
1
1
1
1
1
1
1
1
1
1
1
1
1
1
1
1
1
1
1
1
1
1
1
1
1
1
1
1
1
1
1
1
1
1
1
1
1
1
1
1
1
1
1
1
1
1
1
1
1
1
1
1
1
1
1
1
1
1
1
1
1
1
1
1
1
1
1
1
1
1
1
1
1
1
1
1
1
1
1
1
1
1
1
1
1
1
1
1
1
1
1
1
1
1
1
1
1
1
1
1
1
1
1
1
1
1
1
1
1
1
1
1
1
1
1
1
1
1
1
1
1
1
1
1
1
1
1
1
1
1
1
1
1
1
1
1
1
1
1
1
1
1
1
1
1
1
1
1
1
1
1
1
1
1
1
1
1
1
1
1
1
1
1
1
1
1
1
1
1
1
1
1
1
1
1
1
1
1
1
1
1
1
1
1
1
1
1
1
1
1
1
1
1
1
1
1
1
1
1
1
1
1
1
1
1
1
1
1
1
1
1
1
1
1
1
1
1
1
1
1
1
1
1
1
1
1
1
1
1
1
1
1
1
1
1
1
1
1
1
1
1
1
1
1
1
1
1
1
1
1
1
1
1
1
1
1
1
1
1
1
1
1
1
1
1
1
1
1
1
1
1
1
1
1
1
1
1
1
1
1
1
1
1
1
1
1
1
1
1
1
1
1
1
1
1
1
1
1
1
1
1
1
1
1
1
1
1
1
1
1
1
1
1
1
1
1
1
1
1
1
1
1
1
1
1
1
1
1
1
1
1
1
1
1
1
1
1
1
1
1
1
1
1
1
1
1
1
1
1
1
1
1
1
1
1
1
1
1
1
1
1
1
1
1
1
1
1
1
1
1
1
1
1
1
1
1
1
1
1
1
1
1
1
1
1
1
1
1
1
1
1
1
1
1
1
1
1
1
1
1
1
1
1
1
1
1
1
1
1
1
1
1
1
1
1
1
1
1
1
1
1
1
1
1
1
1
1
1
1
1
1
1
1
1
1
1
1
1
1
1
1
1
1
1
1
1
1
1
1
1
1
1
1
1
1
1
1
1
1
1
1
1
1
1
1
1
1
1
1
1
1
1
1
1
1
1
1
1
1
1
1
1
1
1
1
1
1
1
1
1
1
1
1
1
1
1
1
1
1
1
1
1
1
1
1
1
1
1
1
1
1
1
1
1
1
1
1
1
1
1
1
1
1
1
1
1
1
1
1
1
1
1
1
1
1
1
1
1
1
1
1
1
1
1
1
1
1
1
1
1
1
1
1
1
1
1
1
1
1
1
1
1
1
1
1
1
1
1
1
1
1
1
1
1
1
1
1
1
1
1
1
1
1
1
1
1
1
1
1
1
1
1
1
1
1
1
1
1
1
1
1
1
1
1
1
1
1
1
1
1
1
1
1
1
1
1
1
1
1
1
1
1
1
1
1
1
1
1
1
1
1
1
1
1
1
1
1
1
1
1
1
1
1
1
1
1
1
1
1
1
1
1
1
1
1
1
1
1
1
1
1
1
1
1
1
1
1
1
1
1
1
1
1
1
1
1
1
1
1
1
1
1
1
1
1
1
1
1
1
1
1
1
1
1
1
1
1
1
1
1
1
1
1
1
1
1
1
1
1
1
1
1
1
1
1
1
1
1
1
1
1
1
1
1
1
1
1
1
1
1
1
1
1
1
1
1
1
1
1
1
1
1
1
1
1
1
1
1
1
1
1
1
1
1
1
1
1
1
1
1
1
1
1
1
1
1
1
0.95494
0.956459
0.95851
0.965883
0.975302
0.983681
0.989265
0.99164
0.99247
0.99269
0.99306
0.993666
0.994267
0.994664
0.994753
0.994726
0.994709
0.994882
0.995307
0.995922
0.996608
0.997226
0.997715
0.998053
0.998255
0.998338
0.998349
0.998323
0.998285
0.998237
0.998182
0.998125
0.998067
0.998005
0.997943
0.997873
0.997799
0.997721
0.997643
0.997559
0.997468
0.997372
0.997271
0.997165
0.997056
0.996928
0.996795
0.996646
0.996504
0.996362
0.996407
0.996993
0.998078
0.999325
0.999991
1
1
1
1
1
1
1
1
1
1
1
1
1
1
1
1
1
1
1
1
1
1
1
1
1
1
1
1
1
1
1
1
1
1
1
1
1
1
1
1
1
1
1
1
1
1
1
1
1
1
1
1
1
1
1
1
1
1
0.999999
0.999999
0.999999
0.999999
0.999999
0.999998
0.999998
0.999998
0.999997
0.999997
0.999996
0.999996
0.999995
0.999995
0.999994
0.999994
0.999993
0.999993
0.999992
0.999991
0.999991
0.99999
0.999989
0.999988
0.999987
0.999987
0.999986
0.999985
0.999983
0.999982
0.999981
0.99998
0.999979
0.999979
0.999978
0.999978
0.999978
0.999977
0.999977
0.999977
0.999977
0.999976
0.999976
0.312002
0.310091
0.308114
0.302056
0.295571
0.289941
0.285915
0.283568
0.282153
0.28147
0.281575
0.282143
0.282809
0.283199
0.283274
0.283098
0.283037
0.283264
0.283819
0.284585
0.285429
0.286209
0.286842
0.287283
0.287563
0.287726
0.287822
0.287887
0.287941
0.287994
0.288048
0.28811
0.288183
0.288253
0.288314
0.288377
0.28842
0.288446
0.288474
0.288508
0.28853
0.288562
0.288612
0.288629
0.288563
0.288313
0.287634
0.286504
0.285337
0.284724
0.284971
0.286045
0.287908
0.289969
0.291091
0.290455
0.288893
0.287839
0.287213
0.286827
0.286582
0.286422
0.286315
0.286239
0.286185
0.286144
0.286112
0.286086
0.286066
0.286048
0.286034
0.286021
0.28601
0.286001
0.285992
0.285985
0.285978
0.285972
0.285966
0.285961
0.285957
0.285953
0.285949
0.285945
0.285942
0.285939
0.285936
0.285934
0.285931
0.285929
0.285927
0.285924
0.285923
0.285921
0.285919
0.285917
0.285916
0.285914
0.285913
0.285911
0.28591
0.285909
0.285908
0.285907
0.285905
0.285904
0.285903
0.285902
0.285901
0.2859
0.2859
0.285899
0.285898
0.285897
0.285896
0.285895
0.285894
0.285894
0.285893
0.285892
0.285892
0.285891
0.28589
0.28589
0.285889
0.285888
0.285888
0.285887
0.285886
0.285885
0.285884
0.285883
0.285883
0.285882
0.285881
0.285879
0.285878
0.285877
0.285876
0.285874
0.285873
0.285871
0.28587
0.285868
0.285866
0.285865
0.285864
0.285865
0.285868
0.285876
0.285892
0.285921
0.285967
0.286043
0.286162
0.286344
0.00648466
0.00648284
0.00651786
0.00661548
0.00671159
0.00666942
0.00653615
0.00637737
0.00621448
0.00604025
0.00585145
0.00565217
0.00544533
0.00524052
0.005046
0.00485364
0.0046506
0.00443679
0.0042213
0.00401905
0.0038461
0.00371635
0.00362932
0.00357202
0.00356098
0.00356258
0.00356897
0.00358435
0.00361024
0.00364209
0.00365792
0.00365644
0.00364978
0.00362958
0.0035736
0.00345718
0.00327189
0.00303001
0.0027559
0.00247485
0.00220711
0.00196558
0.00175517
0.00157943
0.00143342
0.00130339
0.00118871
0.00109499
0.0010081
0.000955879
0.000973376
0.00112965
0.00249848
0.00810928
0.00926622
0.00411805
0.000295825
0.000106515
6.93122e-05
4.84714e-05
3.55776e-05
2.73078e-05
2.1767e-05
1.78951e-05
1.50789e-05
1.29542e-05
1.12996e-05
9.97582e-06
8.89309e-06
7.99052e-06
7.22652e-06
6.57105e-06
6.00267e-06
5.50487e-06
5.06539e-06
4.67448e-06
4.32454e-06
4.00935e-06
3.72423e-06
3.46462e-06
3.2279e-06
3.01033e-06
2.81065e-06
2.62574e-06
2.45509e-06
2.29611e-06
2.14852e-06
2.01047e-06
1.88134e-06
1.76047e-06
1.64669e-06
1.54e-06
1.43921e-06
1.34424e-06
1.25458e-06
1.16947e-06
1.08925e-06
1.01266e-06
9.4043e-07
8.7111e-07
8.06118e-07
7.43708e-07
6.85077e-07
6.27977e-07
5.73522e-07
5.21248e-07
4.71043e-07
4.23063e-07
3.7677e-07
3.3357e-07
2.91308e-07
2.51662e-07
2.1259e-07
1.76978e-07
1.42316e-07
1.09796e-07
7.94636e-08
5.24448e-08
2.80445e-08
9.56712e-09
5.68488e-10
3.1339e-26
3.31636e-47
-9.5869e-47
-4.97013e-49
-1.35919e-51
-2.60986e-54
-3.94623e-57
-4.99459e-60
-5.48986e-63
-5.37293e-66
-4.77249e-69
-3.90658e-72
-2.98414e-75
-2.14987e-78
-1.47413e-81
-9.69732e-85
-6.16365e-88
-3.8092e-91
-2.30196e-94
-1.3672e-97
-8.01706e-101
-4.66026e-104
-2.69511e-107
-1.55553e-110
-8.98417e-114
-5.20633e-117
4.0661e-08
2.06864e-07
5.87138e-07
1.31545e-06
2.59254e-06
4.70933e-06
8.13625e-06
1.35364e-05
2.18721e-05
2.84848e-14
7.1844e-14
1.36557e-13
1.90069e-13
2.26442e-13
2.81058e-13
3.64677e-13
3.89005e-13
3.58716e-13
2.52802e-13
1.39413e-13
6.7438e-14
3.81745e-14
3.43026e-14
3.3011e-14
3.22541e-14
3.16389e-14
3.06599e-14
2.81301e-14
2.29478e-14
1.52901e-14
7.26992e-15
2.50412e-15
2.11797e-15
2.10504e-15
2.07471e-15
1.98102e-15
1.79679e-15
1.52786e-15
1.22463e-15
9.42182e-16
7.235e-16
5.78816e-16
4.95314e-16
4.78356e-16
4.745e-16
4.75455e-16
4.82409e-16
5.16923e-16
6.91916e-16
1.46525e-15
3.79294e-15
7.76913e-15
1.03076e-14
8.99411e-15
3.59297e-15
1.03243e-15
1.63184e-15
1.2555e-14
1.57333e-13
1.69091e-12
1.01024e-11
1.46528e-11
8.04571e-12
1.06015e-12
1.14416e-13
6.48974e-15
1.46777e-15
5.2933e-16
2.50066e-16
1.42518e-16
9.07446e-17
6.20828e-17
4.46526e-17
3.33223e-17
2.55796e-17
2.00805e-17
1.60509e-17
1.30227e-17
1.06971e-17
8.87985e-18
7.43617e-18
6.2758e-18
5.33036e-18
4.55377e-18
3.90845e-18
3.36954e-18
2.91475e-18
2.53e-18
2.20126e-18
1.92025e-18
1.67776e-18
1.46876e-18
1.28714e-18
1.1294e-18
9.91451e-19
8.71047e-19
7.65302e-19
6.72578e-19
5.90821e-19
5.18942e-19
4.55278e-19
3.99285e-19
3.49619e-19
3.05802e-19
2.66893e-19
2.32594e-19
2.02057e-19
1.75195e-19
1.51386e-19
1.30418e-19
1.11784e-19
9.53576e-20
8.09656e-20
6.82769e-20
5.70903e-20
4.73213e-20
3.8818e-20
3.14711e-20
2.51353e-20
1.97421e-20
1.51709e-20
1.13504e-20
8.20239e-21
5.67542e-21
3.66577e-21
2.16127e-21
1.09612e-21
4.12245e-22
8.05613e-23
1.17608e-24
1.4061e-40
2.07343e-62
-1.69134e-50
-6.66649e-53
-1.45951e-55
-2.27081e-58
-2.76584e-61
-2.90319e-64
-2.75726e-67
-2.40172e-70
-1.94071e-73
-1.4692e-76
-1.05121e-79
-7.16493e-83
-4.68535e-86
-2.95863e-89
-1.81474e-92
-1.08703e-95
-6.38994e-99
-3.70261e-102
-2.12339e-105
-1.2096e-108
-6.8668e-112
-3.89599e-115
-2.21468e-118
-1.26397e-121
-7.2547e-125
-4.19427e-128
-2.44738e-131
1.36799e-21
2.08084e-20
1.08932e-19
4.09156e-19
1.28533e-18
3.6024e-18
-8.13426e-27
-5.09828e-27
-2.64075e-27
-1.41121e-27
-5.8442e-28
-1.86634e-28
-3.45267e-29
-2.34794e-31
6.87143e-34
-1.2315e-34
-7.01531e-29
-8.31854e-29
-1.3091e-28
-2.36983e-28
-4.41067e-28
-5.46947e-28
-6.60356e-28
-6.50999e-28
-6.17334e-28
-5.21582e-28
-3.99855e-28
-2.89351e-28
-1.97724e-28
-1.28483e-28
-8.12492e-29
-4.94899e-29
-3.03673e-29
-1.81751e-29
-1.02305e-29
-5.67061e-30
-3.24205e-30
-1.76079e-30
-9.84713e-31
-5.23678e-31
-2.84274e-31
-1.50666e-31
-7.62888e-32
-3.78468e-32
-1.86347e-32
-8.72985e-33
-4.07525e-33
-1.81062e-33
-8.09516e-34
-3.54544e-34
-1.42095e-34
-5.37262e-35
-2.32959e-35
-1.11247e-35
-8.15e-36
-4.70781e-36
-2.26931e-36
-2.45395e-37
-1.49085e-48
-3.75511e-60
-3.85043e-72
-2.38219e-84
-1.39775e-96
-7.00399e-109
-4.48197e-111
-1.04281e-123
-3.35634e-126
-4.34698e-139
-8.42805e-142
-6.99256e-155
6.54994e-164
3.83851e-163
-2.24513e-161
1.34871e-159
-8.35876e-158
5.31089e-156
-3.42815e-154
2.25475e-152
-4.21356e-137
2.90985e-118
-1.90298e-116
1.20735e-114
-7.51479e-113
4.57009e-111
-2.6901e-109
1.43875e-107
-2.13721e-93
1.26276e-74
-4.55383e-73
1.27719e-71
-2.4936e-70
2.52778e-69
4.9863e-63
4.43069e-64
-1.2493e-68
-4.87316e-80
-1.71626e-81
-8.58101e-60
-2.69777e-60
-5.06536e-66
-2.89663e-67
-1.74617e-58
-9.40933e-60
-4.16896e-58
-1.86095e-57
1.59098e-61
-1.46667e-59
6.96398e-58
-1.7271e-56
1.37629e-57
5.21203e-57
2.27726e-58
-1.44809e-57
4.67447e-59
7.94366e-60
4.19311e-61
-2.81955e-56
-2.48188e-58
3.93743e-57
-1.85484e-55
-3.55805e-57
9.89202e-58
-5.73144e-56
-1.73073e-58
1.61296e-54
9.35442e-57
9.40798e-63
1.05295e-67
-6.60174e-52
-3.64147e-54
-9.60482e-57
-1.67176e-59
-2.15746e-62
-2.20166e-65
-1.91844e-68
-1.5456e-71
-1.16195e-74
-8.21852e-78
-5.51117e-81
-3.52868e-84
-2.17125e-87
-1.29154e-90
-7.46752e-94
-4.21791e-97
-2.33823e-100
-1.27764e-103
-6.90828e-107
-3.70972e-110
-1.98492e-113
-1.06134e-116
-5.68598e-120
-3.05899e-123
-1.6557e-126
-9.02893e-130
-4.96621e-133
-2.75683e-136
-1.54453e-139
-8.7354e-143
-2.08366e-146
-3.10186e-151
-2.67806e-156
-1.27364e-161
-5.49278e-27
-3.11646e-27
-1.99065e-27
-1.24031e-27
-7.66216e-28
-4.89038e-28
-2.97658e-28
-1.64048e-28
-8.2055e-29
-3.77157e-29
-1.63644e-29
-6.87605e-30
-2.8196e-30
-1.13137e-30
-4.4783e-31
-1.76159e-31
-6.95242e-32
-2.78279e-32
-1.15308e-32
-5.11458e-33
-2.5332e-33
-1.44844e-33
-9.55223e-34
-7.13714e-34
-5.75225e-34
-4.81317e-34
-4.02577e-34
-3.24609e-34
-2.4663e-34
-1.77713e-34
-1.2339e-34
-8.46004e-35
-5.79202e-35
-3.98337e-35
-2.72782e-35
-1.8254e-35
-1.18128e-35
-7.35803e-36
-4.53622e-36
-2.82608e-36
-1.82492e-36
-1.19583e-36
-8.03275e-37
-5.99188e-37
-5.15753e-37
-4.29412e-37
-3.91871e-37
-4.83001e-37
-5.1828e-37
-5.29246e-37
-3.88945e-37
-6.27815e-38
-2.10998e-39
-3.48648e-41
-4.69005e-43
-7.24416e-45
-1.55368e-46
-3.73719e-48
-7.75501e-50
-1.282e-51
-1.6737e-53
-1.75121e-55
-1.49985e-57
-1.07361e-59
-6.54265e-62
-3.44856e-64
-1.59326e-66
-6.52371e-69
-2.38853e-71
-7.87472e-74
-2.3503e-76
-6.3756e-79
-1.57655e-81
-3.56165e-84
-7.36414e-87
-1.39566e-89
-2.4279e-92
-3.88207e-95
-5.71294e-98
-7.7484e-101
-9.67713e-96
-1.54001e-97
-2.12646e-75
8.12515e-93
-1.97368e-72
-2.23897e-91
-3.68534e-88
-1.72433e-90
-1.44142e-70
-5.12621e-72
-1.1814e-73
-8.80824e-62
-2.5444e-62
-6.85779e-64
-1.23213e-65
-1.38046e-60
-7.18859e-62
-3.08696e-60
-1.15518e-59
-2.37806e-61
-3.37732e-62
2.76389e-80
-7.99259e-59
-2.13162e-80
4.39685e-82
-2.6615e-84
-4.85608e-60
8.62044e-61
5.36199e-63
-8.79667e-63
2.65684e-56
6.91455e-58
3.4703e-63
1.04094e-55
-3.69577e-54
-3.51414e-53
-4.02254e-55
-2.13344e-52
1.84778e-52
-2.60889e-49
-3.64075e-51
-3.44959e-53
-2.12531e-55
-6.79971e-58
-1.37159e-60
-1.96372e-63
-2.12999e-66
-1.82625e-69
-1.34656e-72
-9.31048e-76
-6.09286e-79
-3.79802e-82
-2.26804e-85
-1.3046e-88
-7.26625e-92
-3.93824e-95
-2.08677e-98
-1.08573e-101
-5.56952e-105
-2.82754e-108
-1.4257e-111
-7.16277e-115
-3.59631e-118
-1.80931e-121
-9.14289e-125
-4.6501e-128
-2.38454e-131
-1.2346e-134
-6.46209e-138
-3.42332e-141
-1.83751e-144
-1.00028e-147
-7.51592e-151
-4.01542e-154
-2.24224e-157
-1.3236e-160
-1.47626e-29
-1.83151e-31
-3.51438e-33
-3.68205e-33
-6.56697e-33
-8.3517e-33
-7.46374e-33
-4.96216e-33
-2.81259e-33
-1.47069e-33
-7.93247e-34
-4.72062e-34
-3.5236e-34
-3.19977e-34
-2.35931e-34
-2.29247e-34
-1.8976e-34
-2.20334e-34
-1.55345e-34
-1.00414e-34
-1.14418e-34
-9.86987e-35
-7.14678e-35
-7.73488e-35
-6.08754e-35
-5.29014e-35
-3.55677e-35
-1.86036e-35
-8.93978e-36
-7.71094e-36
-6.18391e-36
-5.31814e-36
-3.7126e-36
-2.71964e-36
-1.73918e-36
-9.77144e-37
-5.7965e-37
-3.49504e-37
-3.11564e-37
-2.34692e-37
-1.87762e-37
-1.28393e-37
-1.01687e-37
-1.13487e-37
-1.21963e-37
-9.12358e-38
-8.31417e-38
-1.27455e-37
-1.122e-37
-9.36128e-38
-7.28179e-38
-1.00759e-38
-3.0011e-40
-5.45642e-42
-1.06828e-43
-2.49539e-45
-7.15108e-47
-1.9521e-48
-4.18829e-50
-6.88905e-52
-8.83731e-54
-9.07563e-56
-7.65319e-58
-5.41834e-60
-3.28156e-62
-1.72653e-64
-7.98986e-67
-3.28421e-69
-1.2082e-71
-4.00091e-74
-1.19781e-76
-3.25304e-79
-8.03568e-82
-1.80954e-84
-3.72213e-87
-7.00652e-90
-1.20912e-92
-1.91618e-95
-2.79345e-98
-3.75229e-101
-3.85411e-98
-1.01394e-99
-1.05133e-77
-1.75287e-79
-1.40068e-74
-3.12902e-76
-5.37215e-78
-4.4854e-77
-1.16109e-72
-5.43703e-74
-1.37585e-75
-6.01589e-64
-1.62645e-64
-5.65499e-66
-1.11306e-67
-7.26117e-63
-3.65539e-64
-1.45012e-62
-4.88728e-62
-1.32072e-63
-8.19282e-65
-6.35772e-67
-2.51727e-61
-2.69417e-63
-2.12449e-65
-1.30831e-67
-1.10201e-62
-1.85334e-82
-4.34945e-65
-3.24504e-65
8.29665e-59
2.00504e-60
1.3122e-67
2.27452e-58
-7.06562e-57
-5.83909e-56
-6.61667e-58
-2.4297e-55
1.4908e-55
-1.59528e-52
-1.89288e-54
-1.24721e-56
-4.87535e-59
-1.18209e-61
-1.96208e-64
-2.39573e-67
-2.25909e-70
-1.71e-73
-1.1143e-76
-6.86545e-80
-4.02725e-83
-2.26322e-86
-1.22538e-89
-6.42538e-93
-3.27888e-96
-1.63579e-99
-8.01237e-103
-3.86868e-106
-1.84826e-109
-8.7675e-113
-4.14304e-116
-1.95614e-119
-9.25359e-123
-4.39671e-126
-2.10288e-129
-1.0144e-132
-4.94334e-136
-2.43685e-139
-1.21651e-142
-6.15481e-146
-3.15661e-149
-1.64097e-152
-8.64519e-156
-1.20227e-158
-1.94422e-161
-2.57242e-164
-4.91547e-29
-1.25549e-30
-6.54211e-33
-3.88918e-34
-2.21152e-34
-1.78006e-34
-1.29537e-34
-8.11514e-35
-4.77151e-35
-3.59182e-35
-3.44637e-35
-3.88487e-35
-5.3004e-35
-4.79913e-35
-2.78687e-35
-3.94987e-35
-2.56602e-35
-3.74345e-35
-7.13193e-36
-1.15223e-35
-2.18613e-35
-1.05265e-35
-7.11458e-36
-1.36009e-35
-5.70073e-36
-7.35811e-36
-2.3139e-36
-6.58327e-37
-5.84861e-37
-1.26276e-36
-7.65521e-37
-7.39908e-37
-4.18504e-37
-3.42197e-37
-1.7537e-37
-8.88909e-38
-6.37303e-38
-4.63911e-38
-5.25815e-38
-3.74129e-38
-3.02373e-38
-2.11973e-38
-2.06863e-38
-2.72988e-38
-2.71029e-38
-1.93523e-38
-1.91867e-38
-2.7974e-38
-2.4794e-38
-1.92701e-38
-1.29262e-38
-1.55331e-39
-4.09271e-41
-6.91014e-43
-1.78502e-44
-5.30789e-46
-1.65694e-47
-4.48477e-49
-9.44018e-51
-1.52435e-52
-1.92366e-54
-1.95017e-56
-1.62995e-58
-1.14825e-60
-6.94226e-63
-3.65442e-65
-1.69384e-67
-6.97321e-70
-2.56675e-72
-8.49094e-75
-2.53461e-77
-6.85014e-80
-1.68097e-82
-3.7549e-85
-7.65317e-88
-1.42643e-90
-2.43636e-93
-3.8212e-96
-5.51406e-99
-7.33455e-102
-1.62125e-100
-5.62528e-102
-5.39002e-80
-1.49577e-81
-9.34137e-77
-3.25736e-78
-6.7918e-80
-9.8592e-79
-7.88248e-75
-4.06075e-76
-1.06689e-77
-3.41934e-66
-8.69353e-67
-3.28559e-68
-6.70131e-70
-3.17853e-65
-1.54727e-66
-5.60531e-65
-1.73152e-64
-5.14405e-66
-2.04439e-67
-2.30762e-69
-6.63705e-64
-1.04598e-65
-9.64796e-68
-6.41367e-70
-2.08996e-65
-1.29251e-67
-1.67953e-67
-7.17564e-68
-1.56146e-80
2.16274e-83
8.51703e-86
7.58707e-88
-8.41789e-60
-6.04251e-59
-6.72853e-61
-1.72364e-58
-1.457e-78
-6.13251e-56
-6.27026e-58
-3.21777e-60
-9.83052e-63
-1.96719e-65
-2.79013e-68
-2.96816e-71
-2.46424e-74
-1.64519e-77
-9.49433e-81
-5.21345e-84
-2.74773e-87
-1.39749e-90
-6.88931e-94
-3.30628e-97
-1.55129e-100
-7.14538e-104
-3.24364e-107
-1.45654e-110
-6.49223e-114
-2.88177e-117
-1.27772e-120
-5.6747e-124
-2.531e-127
-1.1363e-130
-5.14571e-134
-2.35472e-137
-1.09055e-140
-5.11824e-144
-2.43691e-147
-1.17814e-150
-5.78872e-154
-2.89394e-157
-1.47367e-160
-1.14682e-163
-7.78401e-166
-2.60707e-168
-4.33816e-30
-1.68196e-31
-5.28952e-33
-3.0418e-34
-5.28102e-35
-1.5525e-35
-7.43048e-36
-4.65401e-36
-3.09399e-36
-3.06494e-36
-3.82777e-36
-5.91917e-36
-9.224e-36
-7.92079e-36
-4.20457e-36
-5.85563e-36
-3.73214e-36
-4.81617e-36
-8.68593e-37
-1.86823e-36
-3.11937e-36
-1.77148e-36
-1.05264e-36
-1.7086e-36
-7.89481e-37
-9.0081e-37
-2.42975e-37
-6.72862e-38
-9.06826e-38
-1.69597e-37
-1.10468e-37
-1.00566e-37
-6.17011e-38
-4.74045e-38
-2.58486e-38
-1.30631e-38
-9.76906e-39
-7.73038e-39
-8.36076e-39
-6.77456e-39
-5.30297e-39
-4.13912e-39
-4.06074e-39
-5.45077e-39
-5.65737e-39
-4.49603e-39
-4.19954e-39