/*--------------------------------*- C++ -*----------------------------------*\
| =========                 |                                                 |
| \\      /  F ield         | OpenFOAM: The Open Source CFD Toolbox           |
|  \\    /   O peration     | Version:  v1912                                 |
|   \\  /    A nd           | Website:  www.openfoam.com                      |
|    \\/     M anipulation  |                                                 |
\*---------------------------------------------------------------------------*/
FoamFile
{
    version     2.0;
    format      ascii;
    class       volScalarField;
    location    "10";
    object      nut;
}
// * * * * * * * * * * * * * * * * * * * * * * * * * * * * * * * * * * * * * //

dimensions      [0 2 -1 0 0 0 0];


internalField   nonuniform List<scalar> 
14268
(
2.90562e-08
2.90595e-08
2.91151e-08
2.93845e-08
3.02586e-08
3.03975e-08
2.89311e-08
2.7877e-08
3.7745e-07
3.77586e-07
3.79408e-07
3.82882e-07
3.87116e-07
3.87915e-07
3.72265e-07
3.37465e-07
4.67669e-07
4.67672e-07
4.6788e-07
4.682e-07
4.68754e-07
4.69001e-07
4.67187e-07
4.61687e-07
4.72093e-07
4.72055e-07
4.72133e-07
4.72158e-07
4.7242e-07
4.72528e-07
4.72227e-07
4.71843e-07
4.72999e-07
4.72984e-07
4.72999e-07
4.72942e-07
4.73022e-07
4.73186e-07
4.73016e-07
4.73361e-07
4.7228e-07
4.72242e-07
4.72274e-07
4.72252e-07
4.72541e-07
4.72686e-07
4.72553e-07
4.72825e-07
4.72995e-07
4.72979e-07
4.73001e-07
4.72947e-07
4.72995e-07
4.73171e-07
4.73026e-07
4.73287e-07
4.72302e-07
4.72265e-07
4.72256e-07
4.72198e-07
4.72537e-07
4.72757e-07
4.72629e-07
4.72938e-07
4.72982e-07
4.72966e-07
4.72995e-07
4.72945e-07
4.72967e-07
4.73143e-07
4.7304e-07
4.73229e-07
4.72362e-07
4.72327e-07
4.72268e-07
4.72154e-07
4.72514e-07
4.72806e-07
4.72685e-07
4.72974e-07
4.72964e-07
4.72948e-07
4.72983e-07
4.72939e-07
4.72937e-07
4.73112e-07
4.73056e-07
4.73256e-07
4.72436e-07
4.72396e-07
4.72275e-07
4.72071e-07
4.7235e-07
4.72677e-07
4.72677e-07
4.72877e-07
4.72934e-07
4.72884e-07
4.72876e-07
4.72748e-07
4.72567e-07
4.72669e-07
4.72942e-07
4.73069e-07
4.72625e-07
4.72545e-07
4.72188e-07
4.71732e-07
4.71695e-07
4.71466e-07
4.72148e-07
4.74645e-07
4.72947e-07
4.72953e-07
4.72982e-07
4.72918e-07
4.7273e-07
4.72083e-07
4.7265e-07
4.76501e-07
4.72924e-07
4.72909e-07
4.72877e-07
4.72588e-07
4.7269e-07
4.7296e-07
4.73046e-07
4.74186e-07
4.72721e-07
4.72658e-07
4.72735e-07
4.72784e-07
4.72891e-07
4.73191e-07
4.73101e-07
4.73502e-07
4.7294e-07
4.72922e-07
4.72883e-07
4.72388e-07
4.72335e-07
4.72753e-07
4.73067e-07
4.7336e-07
4.72632e-07
4.72546e-07
4.72624e-07
4.72695e-07
4.729e-07
4.7325e-07
4.73022e-07
4.73056e-07
4.7295e-07
4.72938e-07
4.72843e-07
4.72299e-07
4.72082e-07
4.72564e-07
4.73173e-07
4.73657e-07
4.72628e-07
4.72523e-07
4.72702e-07
4.72778e-07
4.73117e-07
4.7387e-07
4.73094e-07
4.7234e-07
4.7283e-07
4.72746e-07
4.72562e-07
4.72026e-07
4.72079e-07
4.72829e-07
4.73447e-07
4.73275e-07
4.72839e-07
4.72723e-07
4.72736e-07
4.72305e-07
4.71662e-07
4.65231e-07
4.72973e-07
4.73085e-07
4.73393e-07
4.74622e-07
4.75654e-07
4.73477e-07
4.26101e-07
3.0628e-07
2.70153e-07
2.69086e-07
1.71738e-07
1.37666e-07
1.11198e-07
1.06213e-07
3.01899e-07
5.30649e-07
4.07347e-07
3.33076e-07
2.04132e-06
2.12581e-06
2.14976e-06
2.19055e-06
2.23837e-06
2.22768e-06
1.90654e-06
1.12053e-06
1.03522e-07
1.37735e-07
2.06358e-07
3.34455e-07
4.7159e-07
6.1976e-07
8.92435e-07
9.44569e-07
9.94482e-06
1.37517e-05
2.07504e-05
3.06065e-05
4.14194e-05
5.60112e-05
6.33767e-05
6.08473e-05
5.44357e-07
6.10633e-07
6.4484e-07
8.17236e-07
1.01393e-06
1.48735e-06
9.08805e-07
3.7882e-07
4.40704e-07
4.42454e-07
4.38934e-07
4.46917e-07
4.51651e-07
4.6916e-07
4.75671e-07
3.27588e-07
4.30772e-07
4.35232e-07
4.44602e-07
4.44726e-07
4.56005e-07
4.68378e-07
4.59053e-07
4.3987e-07
4.60245e-07
4.60129e-07
4.59576e-07
4.58733e-07
4.61308e-07
4.62838e-07
4.79466e-07
4.77507e-07
4.39445e-07
4.42881e-07
4.45715e-07
4.46946e-07
4.53993e-07
4.59825e-07
4.60563e-07
4.51463e-07
4.65753e-07
4.65535e-07
4.64709e-07
4.64253e-07
4.63444e-07
4.56344e-07
4.66113e-07
4.60823e-07
4.47078e-07
4.50185e-07
4.5275e-07
4.55253e-07
4.61472e-07
4.62971e-07
4.59547e-07
4.62644e-07
4.6932e-07
4.69046e-07
4.68284e-07
4.6784e-07
4.67832e-07
4.60174e-07
4.64874e-07
4.62022e-07
4.53121e-07
4.56035e-07
4.58653e-07
4.61328e-07
4.66902e-07
4.67232e-07
4.6554e-07
4.6855e-07
4.71268e-07
4.71005e-07
4.70243e-07
4.69761e-07
4.69144e-07
4.63249e-07
4.65572e-07
4.64345e-07
4.57962e-07
4.60666e-07
4.6313e-07
4.65095e-07
4.69045e-07
4.70077e-07
4.6964e-07
4.71321e-07
4.72097e-07
4.71781e-07
4.7093e-07
4.70941e-07
4.69435e-07
4.65925e-07
4.65806e-07
4.66725e-07
4.61904e-07
4.6425e-07
4.6596e-07
4.67711e-07
4.70042e-07
4.71203e-07
4.7105e-07
4.72147e-07
4.72481e-07
4.72198e-07
4.71264e-07
4.70874e-07
4.6954e-07
4.68098e-07
4.67271e-07
4.68453e-07
4.65213e-07
4.67415e-07
4.68879e-07
4.70424e-07
4.70846e-07
4.71909e-07
4.7199e-07
4.73145e-07
4.72472e-07
4.71988e-07
4.70781e-07
4.70281e-07
4.69753e-07
4.69748e-07
4.69038e-07
4.7012e-07
4.68196e-07
4.7008e-07
4.71031e-07
4.71753e-07
4.71606e-07
4.72528e-07
4.72766e-07
4.73886e-07
4.72024e-07
4.71717e-07
4.70753e-07
4.70604e-07
4.70324e-07
4.70876e-07
4.70465e-07
4.71502e-07
4.70227e-07
4.71787e-07
4.72259e-07
4.72581e-07
4.72375e-07
4.7314e-07
4.73283e-07
4.74401e-07
4.72071e-07
4.71962e-07
4.71229e-07
4.71341e-07
4.71102e-07
4.71807e-07
4.71638e-07
4.72657e-07
4.71326e-07
4.72676e-07
4.72824e-07
4.73172e-07
4.72991e-07
4.73656e-07
4.7361e-07
4.74607e-07
4.72158e-07
4.7226e-07
4.71755e-07
4.72101e-07
4.71887e-07
4.7263e-07
4.72601e-07
4.73456e-07
4.71803e-07
4.72984e-07
4.72958e-07
4.73442e-07
4.73247e-07
4.73874e-07
4.73661e-07
4.74537e-07
4.72376e-07
4.72585e-07
4.72144e-07
4.72665e-07
4.72392e-07
4.73272e-07
4.73223e-07
4.739e-07
4.72037e-07
4.72878e-07
4.72775e-07
4.7347e-07
4.73181e-07
4.73913e-07
4.73564e-07
4.74392e-07
4.72467e-07
4.72839e-07
4.72537e-07
4.7311e-07
4.7273e-07
4.73569e-07
4.73303e-07
4.74008e-07
4.72284e-07
4.72895e-07
4.72705e-07
4.73287e-07
4.73159e-07
4.73805e-07
4.73607e-07
4.74245e-07
4.72486e-07
4.72907e-07
4.72769e-07
4.73213e-07
4.73118e-07
4.73741e-07
4.73495e-07
4.74084e-07
4.72473e-07
4.72906e-07
4.72809e-07
4.73336e-07
4.73103e-07
4.73769e-07
4.73566e-07
4.74096e-07
4.72554e-07
4.72968e-07
4.7281e-07
4.73358e-07
4.73161e-07
4.73736e-07
4.73548e-07
4.74037e-07
4.72595e-07
4.72981e-07
4.72887e-07
4.73339e-07
4.73189e-07
4.7373e-07
4.73556e-07
4.74005e-07
4.72647e-07
4.73016e-07
4.72913e-07
4.73358e-07
4.73216e-07
4.73715e-07
4.73559e-07
4.73968e-07
4.72695e-07
4.73045e-07
4.72954e-07
4.73366e-07
4.73242e-07
4.73702e-07
4.73564e-07
4.73938e-07
4.72744e-07
4.73064e-07
4.7299e-07
4.73376e-07
4.73266e-07
4.7369e-07
4.73567e-07
4.73909e-07
4.72785e-07
4.73083e-07
4.73022e-07
4.73386e-07
4.73288e-07
4.73677e-07
4.7357e-07
4.73881e-07
4.72829e-07
4.731e-07
4.73059e-07
4.73393e-07
4.73312e-07
4.73665e-07
4.73573e-07
4.73855e-07
4.72878e-07
4.7312e-07
4.73088e-07
4.73398e-07
4.73333e-07
4.73654e-07
4.73576e-07
4.73831e-07
4.72911e-07
4.73154e-07
4.73107e-07
4.73405e-07
4.73344e-07
4.73644e-07
4.73572e-07
4.73809e-07
4.7293e-07
4.73182e-07
4.73131e-07
4.73407e-07
4.73357e-07
4.73634e-07
4.73571e-07
4.73789e-07
4.72966e-07
4.7319e-07
4.73162e-07
4.73407e-07
4.73371e-07
4.73624e-07
4.73572e-07
4.73771e-07
4.73004e-07
4.73196e-07
4.73191e-07
4.73412e-07
4.73385e-07
4.73614e-07
4.73571e-07
4.73755e-07
4.73035e-07
4.73206e-07
4.73212e-07
4.73419e-07
4.73392e-07
4.73604e-07
4.73567e-07
4.73736e-07
4.73057e-07
4.73219e-07
4.73218e-07
4.73413e-07
4.73395e-07
4.73593e-07
4.73562e-07
4.73718e-07
4.73084e-07
4.73233e-07
4.73232e-07
4.73412e-07
4.734e-07
4.73583e-07
4.73557e-07
4.73702e-07
4.73139e-07
4.73273e-07
4.73275e-07
4.73433e-07
4.73425e-07
4.7359e-07
4.73571e-07
4.73698e-07
4.73187e-07
4.73316e-07
4.73322e-07
4.7347e-07
4.73466e-07
4.73612e-07
4.73604e-07
4.73716e-07
4.73155e-07
4.73281e-07
4.73288e-07
4.73436e-07
4.73439e-07
4.73584e-07
4.73577e-07
4.73696e-07
4.73084e-07
4.73197e-07
4.73207e-07
4.73342e-07
4.7335e-07
4.7349e-07
4.73483e-07
4.73593e-07
4.73104e-07
4.73202e-07
4.73224e-07
4.7334e-07
4.73362e-07
4.73479e-07
4.73483e-07
4.73576e-07
4.73206e-07
4.73285e-07
4.7331e-07
4.73401e-07
4.7342e-07
4.73515e-07
4.73527e-07
4.73598e-07
4.73297e-07
4.73346e-07
4.73368e-07
4.73429e-07
4.73451e-07
4.73513e-07
4.73528e-07
4.73581e-07
4.73332e-07
4.73368e-07
4.73393e-07
4.73434e-07
4.73457e-07
4.73499e-07
4.7352e-07
4.73554e-07
4.73346e-07
4.73372e-07
4.73395e-07
4.73425e-07
4.73447e-07
4.73478e-07
4.73497e-07
4.73522e-07
4.73365e-07
4.73387e-07
4.73407e-07
4.7343e-07
4.7345e-07
4.73473e-07
4.7349e-07
4.73508e-07
4.73364e-07
4.73383e-07
4.73401e-07
4.73421e-07
4.73438e-07
4.73457e-07
4.73472e-07
4.73487e-07
4.73366e-07
4.73385e-07
4.73404e-07
4.73421e-07
4.73436e-07
4.73452e-07
4.73465e-07
4.73477e-07
4.73386e-07
4.73402e-07
4.73418e-07
4.73433e-07
4.73446e-07
4.73458e-07
4.73469e-07
4.73479e-07
4.74337e-07
4.74319e-07
4.74298e-07
4.74276e-07
4.74251e-07
4.74224e-07
4.74194e-07
4.74162e-07
4.97839e-07
4.97553e-07
4.97246e-07
4.96915e-07
4.96558e-07
4.96173e-07
4.95757e-07
4.95309e-07
2.82145e-08
2.9415e-08
3.06645e-08
3.07132e-08
3.05257e-08
3.01402e-08
2.98757e-08
2.97255e-08
2.9665e-08
2.9645e-08
2.96343e-08
2.96186e-08
2.96056e-08
2.9596e-08
2.95969e-08
2.96029e-08
2.96094e-08
2.96086e-08
2.96002e-08
2.95833e-08
2.95632e-08
2.95444e-08
2.95276e-08
2.95142e-08
2.95061e-08
2.95021e-08
2.95005e-08
2.95001e-08
2.95003e-08
2.9501e-08
2.95017e-08
2.95025e-08
2.95034e-08
2.95045e-08
2.95057e-08
2.95069e-08
2.95085e-08
2.95106e-08
2.9513e-08
2.95156e-08
2.95186e-08
2.9522e-08
2.95257e-08
2.953e-08
2.95351e-08
2.9542e-08
2.95514e-08
2.95635e-08
2.95759e-08
2.95863e-08
2.95875e-08
2.95699e-08
2.95361e-08
2.94959e-08
2.94728e-08
2.94737e-08
2.94796e-08
2.94845e-08
2.94879e-08
2.949e-08
2.94914e-08
2.94923e-08
2.94929e-08
2.94933e-08
2.94936e-08
2.94938e-08
2.94939e-08
2.9494e-08
2.94941e-08
2.94942e-08
2.94943e-08
2.94943e-08
2.94944e-08
2.94944e-08
2.94944e-08
2.94945e-08
2.94945e-08
2.94945e-08
2.94946e-08
2.94946e-08
2.94946e-08
2.94946e-08
2.94946e-08
2.94946e-08
2.94946e-08
2.94947e-08
2.94947e-08
2.94947e-08
2.94947e-08
2.94947e-08
2.94947e-08
2.94947e-08
2.94947e-08
2.94947e-08
2.94947e-08
2.94947e-08
2.94948e-08
2.94948e-08
2.94948e-08
2.94948e-08
2.94948e-08
2.94948e-08
2.94948e-08
2.94948e-08
2.94948e-08
2.94948e-08
2.94948e-08
2.94948e-08
2.94948e-08
2.94948e-08
2.94948e-08
2.94948e-08
2.94948e-08
2.94948e-08
2.94948e-08
2.94948e-08
2.94949e-08
2.94949e-08
2.94949e-08
2.94949e-08
2.94949e-08
2.94949e-08
2.94949e-08
2.94949e-08
2.94949e-08
2.94949e-08
2.94949e-08
2.94949e-08
2.9495e-08
2.9495e-08
2.9495e-08
2.9495e-08
2.9495e-08
2.9495e-08
2.9495e-08
2.9495e-08
2.94951e-08
2.94951e-08
2.94951e-08
2.94951e-08
2.94951e-08
2.94952e-08
2.94952e-08
2.94952e-08
2.94952e-08
2.94952e-08
2.94952e-08
2.94952e-08
2.94952e-08
2.94951e-08
2.9495e-08
2.94948e-08
2.94946e-08
2.94941e-08
2.94934e-08
2.94924e-08
3.41997e-07
3.76259e-07
3.88328e-07
3.88149e-07
3.8778e-07
3.86678e-07
3.8617e-07
3.85766e-07
3.85708e-07
3.85643e-07
3.85662e-07
3.85617e-07
3.8561e-07
3.85573e-07
3.85567e-07
3.85554e-07
3.85557e-07
3.85534e-07
3.8551e-07
3.85458e-07
3.85403e-07
3.85362e-07
3.85321e-07
3.8527e-07
3.85237e-07
3.85215e-07
3.85197e-07
3.85172e-07
3.85151e-07
3.85129e-07
3.85105e-07
3.85079e-07
3.85051e-07
3.85026e-07
3.85004e-07
3.84971e-07
3.84942e-07
3.84917e-07
3.84894e-07
3.84866e-07
3.84837e-07
3.84806e-07
3.84774e-07
3.84752e-07
3.8475e-07
3.84784e-07
3.84892e-07
3.85076e-07
3.85263e-07
3.85338e-07
3.85303e-07
3.85223e-07
3.85111e-07
3.84978e-07
3.84868e-07
3.84916e-07
3.85134e-07
3.85322e-07
3.85454e-07
3.8554e-07
3.85595e-07
3.85631e-07
3.85655e-07
3.85672e-07
3.85683e-07
3.85692e-07
3.85699e-07
3.85705e-07
3.85709e-07
3.85713e-07
3.85716e-07
3.85718e-07
3.85721e-07
3.85723e-07
3.85724e-07
3.85726e-07
3.85727e-07
3.85729e-07
3.8573e-07
3.85731e-07
3.85732e-07
3.85733e-07
3.85733e-07
3.85734e-07
3.85735e-07
3.85735e-07
3.85736e-07
3.85737e-07
3.85737e-07
3.85737e-07
3.85738e-07
3.85738e-07
3.85739e-07
3.85739e-07
3.85739e-07
3.8574e-07
3.8574e-07
3.8574e-07
3.8574e-07
3.85741e-07
3.85741e-07
3.85741e-07
3.85741e-07
3.85742e-07
3.85742e-07
3.85742e-07
3.85742e-07
3.85742e-07
3.85742e-07
3.85743e-07
3.85743e-07
3.85743e-07
3.85743e-07
3.85743e-07
3.85743e-07
3.85743e-07
3.85743e-07
3.85743e-07
3.85743e-07
3.85744e-07
3.85744e-07
3.85744e-07
3.85744e-07
3.85744e-07
3.85744e-07
3.85744e-07
3.85744e-07
3.85744e-07
3.85744e-07
3.85744e-07
3.85744e-07
3.85744e-07
3.85744e-07
3.85744e-07
3.85744e-07
3.85744e-07
3.85744e-07
3.85744e-07
3.85744e-07
3.85744e-07
3.85744e-07
3.85744e-07
3.85744e-07
3.85744e-07
3.85744e-07
3.85744e-07
3.85744e-07
3.85743e-07
3.85742e-07
3.8574e-07
3.85735e-07
3.85728e-07
3.85716e-07
3.85698e-07
3.8567e-07
3.85629e-07
4.62509e-07
4.67585e-07
4.6905e-07
4.68907e-07
4.6891e-07
4.68682e-07
4.68661e-07
4.6857e-07
4.68584e-07
4.68553e-07
4.68567e-07
4.68545e-07
4.68546e-07
4.68525e-07
4.6853e-07
4.68522e-07
4.68529e-07
4.6852e-07
4.68517e-07
4.68505e-07
4.68498e-07
4.68486e-07
4.68479e-07
4.68472e-07
4.68466e-07
4.6846e-07
4.6846e-07
4.68462e-07
4.68464e-07
4.68464e-07
4.68464e-07
4.68462e-07
4.68459e-07
4.68457e-07
4.68456e-07
4.68451e-07
4.68447e-07
4.68444e-07
4.68441e-07
4.68438e-07
4.68434e-07
4.68429e-07
4.68424e-07
4.6842e-07
4.68419e-07
4.68419e-07
4.68424e-07
4.68436e-07
4.6845e-07
4.68456e-07
4.68449e-07
4.68437e-07
4.68426e-07
4.68412e-07
4.68397e-07
4.68399e-07
4.68419e-07
4.68433e-07
4.68441e-07
4.68446e-07
4.68447e-07
4.68448e-07
4.68448e-07
4.68448e-07
4.68448e-07
4.68447e-07
4.68447e-07
4.68446e-07
4.68446e-07
4.68445e-07
4.68445e-07
4.68444e-07
4.68444e-07
4.68444e-07
4.68443e-07
4.68443e-07
4.68443e-07
4.68442e-07
4.68442e-07
4.68442e-07
4.68442e-07
4.68441e-07
4.68441e-07
4.68441e-07
4.68441e-07
4.68441e-07
4.6844e-07
4.6844e-07
4.6844e-07
4.6844e-07
4.6844e-07
4.6844e-07
4.6844e-07
4.68439e-07
4.68439e-07
4.68439e-07
4.68439e-07
4.68439e-07
4.68439e-07
4.68439e-07
4.68439e-07
4.68439e-07
4.68439e-07
4.68439e-07
4.68439e-07
4.68439e-07
4.68439e-07
4.68438e-07
4.68438e-07
4.68438e-07
4.68438e-07
4.68438e-07
4.68438e-07
4.68438e-07
4.68439e-07
4.68438e-07
4.68439e-07
4.68439e-07
4.68439e-07
4.68439e-07
4.68439e-07
4.68439e-07
4.68439e-07
4.68439e-07
4.68438e-07
4.68439e-07
4.68439e-07
4.68439e-07
4.68439e-07
4.68439e-07
4.68439e-07
4.68439e-07
4.68439e-07
4.68439e-07
4.68439e-07
4.68439e-07
4.68439e-07
4.6844e-07
4.6844e-07
4.6844e-07
4.6844e-07
4.6844e-07
4.68441e-07
4.68441e-07
4.68441e-07
4.68441e-07
4.68441e-07
4.68441e-07
4.68442e-07
4.68442e-07
4.68442e-07
4.68443e-07
4.68444e-07
4.68444e-07
4.68444e-07
4.68444e-07
4.71718e-07
4.71802e-07
4.72358e-07
4.72209e-07
4.72462e-07
4.72213e-07
4.7239e-07
4.72284e-07
4.72405e-07
4.72371e-07
4.72451e-07
4.72441e-07
4.72502e-07
4.72491e-07
4.72514e-07
4.72502e-07
4.72526e-07
4.72527e-07
4.7255e-07
4.72554e-07
4.72564e-07
4.72568e-07
4.72578e-07
4.72579e-07
4.72584e-07
4.72585e-07
4.72585e-07
4.7258e-07
4.72578e-07
4.72578e-07
4.72578e-07
4.72578e-07
4.72578e-07
4.72581e-07
4.72585e-07
4.72586e-07
4.72588e-07
4.72592e-07
4.72597e-07
4.72598e-07
4.72602e-07
4.72606e-07
4.7261e-07
4.72616e-07
4.7262e-07
4.72625e-07
4.72628e-07
4.72632e-07
4.72639e-07
4.72644e-07
4.72652e-07
4.72655e-07
4.72664e-07
4.72667e-07
4.72663e-07
4.72668e-07
4.7268e-07
4.72686e-07
4.72691e-07
4.72694e-07
4.72697e-07
4.72699e-07
4.72701e-07
4.72703e-07
4.72704e-07
4.72705e-07
4.72707e-07
4.72708e-07
4.72709e-07
4.7271e-07
4.7271e-07
4.72711e-07
4.72712e-07
4.72712e-07
4.72713e-07
4.72714e-07
4.72714e-07
4.72715e-07
4.72715e-07
4.72715e-07
4.72716e-07
4.72716e-07
4.72717e-07
4.72717e-07
4.72717e-07
4.72718e-07
4.72718e-07
4.72718e-07
4.72718e-07
4.72719e-07
4.72719e-07
4.72719e-07
4.72719e-07
4.72719e-07
4.7272e-07
4.7272e-07
4.7272e-07
4.7272e-07
4.7272e-07
4.7272e-07
4.7272e-07
4.72721e-07
4.72721e-07
4.72721e-07
4.72721e-07
4.72721e-07
4.72721e-07
4.72721e-07
4.72721e-07
4.72721e-07
4.72722e-07
4.72722e-07
4.72722e-07
4.72722e-07
4.72722e-07
4.72722e-07
4.72722e-07
4.72722e-07
4.72722e-07
4.72722e-07
4.72722e-07
4.72722e-07
4.72722e-07
4.72722e-07
4.72722e-07
4.72722e-07
4.72721e-07
4.72721e-07
4.72721e-07
4.72721e-07
4.72721e-07
4.72721e-07
4.72721e-07
4.7272e-07
4.7272e-07
4.7272e-07
4.7272e-07
4.7272e-07
4.72719e-07
4.72719e-07
4.72719e-07
4.72719e-07
4.72718e-07
4.72718e-07
4.72718e-07
4.72717e-07
4.72717e-07
4.72717e-07
4.72717e-07
4.72716e-07
4.72715e-07
4.72714e-07
4.72712e-07
4.72711e-07
4.72708e-07
4.72705e-07
4.73219e-07
4.72907e-07
4.7318e-07
4.73056e-07
4.73122e-07
4.72981e-07
4.73026e-07
4.72966e-07
4.72996e-07
4.72967e-07
4.72983e-07
4.72963e-07
4.72964e-07
4.72951e-07
4.72956e-07
4.7295e-07
4.72954e-07
4.7295e-07
4.7295e-07
4.72946e-07
4.72946e-07
4.72942e-07
4.72941e-07
4.7294e-07
4.7294e-07
4.72939e-07
4.7294e-07
4.72943e-07
4.72944e-07
4.72945e-07
4.72946e-07
4.72946e-07
4.72945e-07
4.72945e-07
4.72945e-07
4.72945e-07
4.72944e-07
4.72943e-07
4.72942e-07
4.72941e-07
4.7294e-07
4.72939e-07
4.72937e-07
4.72936e-07
4.72935e-07
4.72934e-07
4.72931e-07
4.72928e-07
4.72927e-07
4.72927e-07
4.72926e-07
4.72924e-07
4.72926e-07
4.72925e-07
4.7292e-07
4.72919e-07
4.72922e-07
4.72921e-07
4.7292e-07
4.72919e-07
4.72919e-07
4.72918e-07
4.72918e-07
4.72917e-07
4.72917e-07
4.72916e-07
4.72916e-07
4.72916e-07
4.72915e-07
4.72915e-07
4.72915e-07
4.72915e-07
4.72915e-07
4.72914e-07
4.72914e-07
4.72914e-07
4.72914e-07
4.72914e-07
4.72914e-07
4.72913e-07
4.72913e-07
4.72913e-07
4.72913e-07
4.72913e-07
4.72913e-07
4.72913e-07
4.72913e-07
4.72913e-07
4.72913e-07
4.72913e-07
4.72912e-07
4.72912e-07
4.72912e-07
4.72912e-07
4.72912e-07
4.72912e-07
4.72912e-07
4.72912e-07
4.72912e-07
4.72912e-07
4.72912e-07
4.72912e-07
4.72912e-07
4.72912e-07
4.72912e-07
4.72912e-07
4.72912e-07
4.72912e-07
4.72912e-07
4.72912e-07
4.72911e-07
4.72911e-07
4.72911e-07
4.72911e-07
4.72911e-07
4.72911e-07
4.72911e-07
4.72911e-07
4.72911e-07
4.72911e-07
4.72911e-07
4.72911e-07
4.72911e-07
4.72911e-07
4.72911e-07
4.72911e-07
4.72912e-07
4.72912e-07
4.72912e-07
4.72912e-07
4.72912e-07
4.72912e-07
4.72912e-07
4.72912e-07
4.72912e-07
4.72912e-07
4.72912e-07
4.72912e-07
4.72912e-07
4.72912e-07
4.72912e-07
4.72913e-07
4.72913e-07
4.72913e-07
4.72913e-07
4.72913e-07
4.72913e-07
4.72913e-07
4.72913e-07
4.72913e-07
4.72914e-07
4.72914e-07
4.72914e-07
4.72915e-07
4.72916e-07
4.72916e-07
4.72565e-07
4.71951e-07
4.72486e-07
4.72368e-07
4.72605e-07
4.72338e-07
4.72504e-07
4.72394e-07
4.72509e-07
4.72479e-07
4.72562e-07
4.72562e-07
4.72644e-07
4.72637e-07
4.7266e-07
4.72648e-07
4.72673e-07
4.72675e-07
4.72701e-07
4.72702e-07
4.72711e-07
4.72715e-07
4.72727e-07
4.72724e-07
4.72729e-07
4.72731e-07
4.72728e-07
4.72719e-07
4.72716e-07
4.72714e-07
4.72715e-07
4.72717e-07
4.72719e-07
4.72723e-07
4.72728e-07
4.72731e-07
4.72736e-07
4.72742e-07
4.72749e-07
4.72752e-07
4.72758e-07
4.72765e-07
4.72771e-07
4.72779e-07
4.72784e-07
4.7279e-07
4.72791e-07
4.72794e-07
4.72801e-07
4.72807e-07
4.72814e-07
4.72816e-07
4.72826e-07
4.72831e-07
4.72828e-07
4.72832e-07
4.72842e-07
4.72846e-07
4.72849e-07
4.72852e-07
4.72854e-07
4.72856e-07
4.72858e-07
4.7286e-07
4.72861e-07
4.72863e-07
4.72864e-07
4.72865e-07
4.72866e-07
4.72867e-07
4.72868e-07
4.72869e-07
4.7287e-07
4.72871e-07
4.72872e-07
4.72872e-07
4.72873e-07
4.72874e-07
4.72874e-07
4.72875e-07
4.72875e-07
4.72876e-07
4.72876e-07
4.72877e-07
4.72877e-07
4.72878e-07
4.72878e-07
4.72878e-07
4.72879e-07
4.72879e-07
4.72879e-07
4.7288e-07
4.7288e-07
4.7288e-07
4.7288e-07
4.72881e-07
4.72881e-07
4.72881e-07
4.72881e-07
4.72882e-07
4.72882e-07
4.72882e-07
4.72882e-07
4.72882e-07
4.72883e-07
4.72883e-07
4.72883e-07
4.72883e-07
4.72883e-07
4.72883e-07
4.72884e-07
4.72884e-07
4.72884e-07
4.72884e-07
4.72884e-07
4.72884e-07
4.72884e-07
4.72884e-07
4.72884e-07
4.72884e-07
4.72884e-07
4.72884e-07
4.72884e-07
4.72884e-07
4.72884e-07
4.72883e-07
4.72883e-07
4.72883e-07
4.72883e-07
4.72883e-07
4.72882e-07
4.72882e-07
4.72882e-07
4.72881e-07
4.72881e-07
4.72881e-07
4.7288e-07
4.7288e-07
4.7288e-07
4.72879e-07
4.72879e-07
4.72878e-07
4.72878e-07
4.72877e-07
4.72877e-07
4.72877e-07
4.72876e-07
4.72876e-07
4.72875e-07
4.72875e-07
4.72874e-07
4.72873e-07
4.72871e-07
4.72869e-07
4.72867e-07
4.72865e-07
4.73118e-07
4.72862e-07
4.73159e-07
4.73039e-07
4.73115e-07
4.72982e-07
4.73034e-07
4.72977e-07
4.73008e-07
4.72979e-07
4.72994e-07
4.72973e-07
4.7297e-07
4.72955e-07
4.7296e-07
4.72954e-07
4.72958e-07
4.72954e-07
4.72954e-07
4.72951e-07
4.72952e-07
4.72948e-07
4.72947e-07
4.72948e-07
4.72948e-07
4.72947e-07
4.72949e-07
4.72952e-07
4.72954e-07
4.72955e-07
4.72956e-07
4.72956e-07
4.72955e-07
4.72955e-07
4.72955e-07
4.72953e-07
4.72952e-07
4.7295e-07
4.72949e-07
4.72948e-07
4.72946e-07
4.72944e-07
4.72942e-07
4.7294e-07
4.72939e-07
4.72937e-07
4.72935e-07
4.72931e-07
4.72931e-07
4.7293e-07
4.72929e-07
4.72927e-07
4.72929e-07
4.72929e-07
4.72924e-07
4.72922e-07
4.72926e-07
4.72926e-07
4.72925e-07
4.72925e-07
4.72924e-07
4.72924e-07
4.72923e-07
4.72923e-07
4.72922e-07
4.72922e-07
4.72921e-07
4.72921e-07
4.72921e-07
4.72921e-07
4.7292e-07
4.7292e-07
4.7292e-07
4.7292e-07
4.72919e-07
4.72919e-07
4.72919e-07
4.72919e-07
4.72919e-07
4.72919e-07
4.72918e-07
4.72918e-07
4.72918e-07
4.72918e-07
4.72918e-07
4.72918e-07
4.72918e-07
4.72918e-07
4.72918e-07
4.72917e-07
4.72917e-07
4.72917e-07
4.72917e-07
4.72917e-07
4.72917e-07
4.72917e-07
4.72917e-07
4.72917e-07
4.72917e-07
4.72917e-07
4.72917e-07
4.72917e-07
4.72916e-07
4.72916e-07
4.72916e-07
4.72916e-07
4.72916e-07
4.72916e-07
4.72916e-07
4.72916e-07
4.72916e-07
4.72916e-07
4.72916e-07
4.72916e-07
4.72916e-07
4.72916e-07
4.72916e-07
4.72916e-07
4.72916e-07
4.72916e-07
4.72916e-07
4.72916e-07
4.72916e-07
4.72916e-07
4.72916e-07
4.72916e-07
4.72916e-07
4.72916e-07
4.72916e-07
4.72916e-07
4.72916e-07
4.72917e-07
4.72917e-07
4.72917e-07
4.72917e-07
4.72917e-07
4.72917e-07
4.72917e-07
4.72917e-07
4.72917e-07
4.72917e-07
4.72918e-07
4.72918e-07
4.72918e-07
4.72918e-07
4.72918e-07
4.72918e-07
4.72918e-07
4.72918e-07
4.72919e-07
4.72919e-07
4.72919e-07
4.72919e-07
4.7292e-07
4.7292e-07
4.72921e-07
4.7264e-07
4.71884e-07
4.72547e-07
4.72447e-07
4.72634e-07
4.72335e-07
4.72477e-07
4.72359e-07
4.72464e-07
4.72437e-07
4.72521e-07
4.72529e-07
4.72631e-07
4.72629e-07
4.7265e-07
4.72637e-07
4.72665e-07
4.72664e-07
4.7269e-07
4.7269e-07
4.72696e-07
4.72702e-07
4.72715e-07
4.72705e-07
4.72714e-07
4.72715e-07
4.7271e-07
4.72697e-07
4.72691e-07
4.72689e-07
4.72691e-07
4.72695e-07
4.72699e-07
4.72702e-07
4.72708e-07
4.72715e-07
4.72722e-07
4.72729e-07
4.72736e-07
4.72743e-07
4.72752e-07
4.7276e-07
4.72768e-07
4.72775e-07
4.72784e-07
4.7279e-07
4.72792e-07
4.72795e-07
4.72802e-07
4.7281e-07
4.72816e-07
4.72818e-07
4.72828e-07
4.72832e-07
4.72829e-07
4.72832e-07
4.72841e-07
4.72844e-07
4.72847e-07
4.72849e-07
4.72852e-07
4.72853e-07
4.72855e-07
4.72857e-07
4.72858e-07
4.7286e-07
4.72861e-07
4.72863e-07
4.72864e-07
4.72865e-07
4.72866e-07
4.72867e-07
4.72868e-07
4.72869e-07
4.7287e-07
4.7287e-07
4.72871e-07
4.72872e-07
4.72873e-07
4.72873e-07
4.72874e-07
4.72874e-07
4.72875e-07
4.72876e-07
4.72876e-07
4.72877e-07
4.72877e-07
4.72878e-07
4.72878e-07
4.72878e-07
4.72879e-07
4.72879e-07
4.72879e-07
4.7288e-07
4.7288e-07
4.72881e-07
4.72881e-07
4.72881e-07
4.72881e-07
4.72882e-07
4.72882e-07
4.72882e-07
4.72882e-07
4.72883e-07
4.72883e-07
4.72883e-07
4.72883e-07
4.72884e-07
4.72884e-07
4.72884e-07
4.72884e-07
4.72884e-07
4.72885e-07
4.72885e-07
4.72885e-07
4.72885e-07
4.72885e-07
4.72885e-07
4.72885e-07
4.72885e-07
4.72885e-07
4.72885e-07
4.72885e-07
4.72884e-07
4.72884e-07
4.72884e-07
4.72883e-07
4.72883e-07
4.72883e-07
4.72883e-07
4.72882e-07
4.72882e-07
4.72881e-07
4.72881e-07
4.72881e-07
4.7288e-07
4.7288e-07
4.72879e-07
4.72879e-07
4.72878e-07
4.72878e-07
4.72877e-07
4.72876e-07
4.72876e-07
4.72875e-07
4.72875e-07
4.72874e-07
4.72874e-07
4.72873e-07
4.72872e-07
4.72872e-07
4.72871e-07
4.72869e-07
4.72868e-07
4.72866e-07
4.72864e-07
4.73043e-07
4.72824e-07
4.73124e-07
4.73011e-07
4.73099e-07
4.72977e-07
4.73038e-07
4.72982e-07
4.73016e-07
4.72986e-07
4.73001e-07
4.72979e-07
4.72972e-07
4.72956e-07
4.72961e-07
4.72955e-07
4.72958e-07
4.72955e-07
4.72956e-07
4.72953e-07
4.72955e-07
4.72951e-07
4.7295e-07
4.72952e-07
4.72951e-07
4.7295e-07
4.72953e-07
4.72958e-07
4.7296e-07
4.72962e-07
4.72963e-07
4.72962e-07
4.7296e-07
4.7296e-07
4.7296e-07
4.72958e-07
4.72955e-07
4.72954e-07
4.72952e-07
4.7295e-07
4.72947e-07
4.72945e-07
4.72942e-07
4.72941e-07
4.72938e-07
4.72936e-07
4.72932e-07
4.72929e-07
4.72929e-07
4.72928e-07
4.72927e-07
4.72925e-07
4.72928e-07
4.72928e-07
4.72923e-07
4.72922e-07
4.72926e-07
4.72926e-07
4.72926e-07
4.72925e-07
4.72925e-07
4.72924e-07
4.72924e-07
4.72923e-07
4.72923e-07
4.72922e-07
4.72922e-07
4.72922e-07
4.72921e-07
4.72921e-07
4.72921e-07
4.72921e-07
4.7292e-07
4.7292e-07
4.7292e-07
4.7292e-07
4.7292e-07
4.72919e-07
4.72919e-07
4.72919e-07
4.72919e-07
4.72919e-07
4.72919e-07
4.72919e-07
4.72918e-07
4.72918e-07
4.72918e-07
4.72918e-07
4.72918e-07
4.72918e-07
4.72918e-07
4.72918e-07
4.72917e-07
4.72917e-07
4.72917e-07
4.72917e-07
4.72917e-07
4.72917e-07
4.72917e-07
4.72917e-07
4.72917e-07
4.72917e-07
4.72917e-07
4.72917e-07
4.72916e-07
4.72916e-07
4.72916e-07
4.72916e-07
4.72916e-07
4.72916e-07
4.72916e-07
4.72916e-07
4.72916e-07
4.72916e-07
4.72916e-07
4.72916e-07
4.72916e-07
4.72916e-07
4.72916e-07
4.72916e-07
4.72916e-07
4.72916e-07
4.72916e-07
4.72916e-07
4.72916e-07
4.72916e-07
4.72916e-07
4.72916e-07
4.72917e-07
4.72917e-07
4.72917e-07
4.72917e-07
4.72917e-07
4.72917e-07
4.72917e-07
4.72917e-07
4.72917e-07
4.72918e-07
4.72918e-07
4.72918e-07
4.72918e-07
4.72918e-07
4.72918e-07
4.72918e-07
4.72919e-07
4.72919e-07
4.72919e-07
4.72919e-07
4.72919e-07
4.72919e-07
4.72919e-07
4.72919e-07
4.7292e-07
4.7292e-07
4.72921e-07
4.72921e-07
4.7267e-07
4.71806e-07
4.72591e-07
4.7251e-07
4.72654e-07
4.72318e-07
4.72441e-07
4.72318e-07
4.72415e-07
4.72389e-07
4.72475e-07
4.7249e-07
4.72609e-07
4.72611e-07
4.72631e-07
4.72617e-07
4.72645e-07
4.72643e-07
4.7267e-07
4.7267e-07
4.72675e-07
4.72682e-07
4.72696e-07
4.72681e-07
4.72694e-07
4.72697e-07
4.7269e-07
4.72672e-07
4.72665e-07
4.72662e-07
4.72665e-07
4.72671e-07
4.72678e-07
4.72679e-07
4.72686e-07
4.72697e-07
4.72707e-07
4.72715e-07
4.72722e-07
4.72733e-07
4.72744e-07
4.72754e-07
4.72763e-07
4.7277e-07
4.72782e-07
4.72789e-07
4.72794e-07
4.72796e-07
4.72803e-07
4.72813e-07
4.72819e-07
4.7282e-07
4.72829e-07
4.72832e-07
4.72828e-07
4.72831e-07
4.72839e-07
4.72843e-07
4.72845e-07
4.72847e-07
4.72849e-07
4.72851e-07
4.72853e-07
4.72854e-07
4.72856e-07
4.72857e-07
4.72859e-07
4.7286e-07
4.72862e-07
4.72863e-07
4.72864e-07
4.72865e-07
4.72866e-07
4.72867e-07
4.72868e-07
4.72869e-07
4.7287e-07
4.7287e-07
4.72871e-07
4.72872e-07
4.72873e-07
4.72873e-07
4.72874e-07
4.72874e-07
4.72875e-07
4.72876e-07
4.72876e-07
4.72877e-07
4.72877e-07
4.72878e-07
4.72878e-07
4.72878e-07
4.72879e-07
4.72879e-07
4.7288e-07
4.7288e-07
4.72881e-07
4.72881e-07
4.72881e-07
4.72882e-07
4.72882e-07
4.72882e-07
4.72882e-07
4.72883e-07
4.72883e-07
4.72883e-07
4.72884e-07
4.72884e-07
4.72884e-07
4.72884e-07
4.72885e-07
4.72885e-07
4.72885e-07
4.72885e-07
4.72885e-07
4.72885e-07
4.72886e-07
4.72886e-07
4.72886e-07
4.72886e-07
4.72886e-07
4.72885e-07
4.72885e-07
4.72885e-07
4.72884e-07
4.72884e-07
4.72883e-07
4.72883e-07
4.72883e-07
4.72882e-07
4.72882e-07
4.72881e-07
4.72881e-07
4.7288e-07
4.7288e-07
4.72879e-07
4.72879e-07
4.72878e-07
4.72878e-07
4.72877e-07
4.72876e-07
4.72876e-07
4.72875e-07
4.72874e-07
4.72873e-07
4.72873e-07
4.72872e-07
4.72871e-07
4.72871e-07
4.7287e-07
4.72869e-07
4.72868e-07
4.72867e-07
4.72866e-07
4.72864e-07
4.72863e-07
4.72992e-07
4.72789e-07
4.73089e-07
4.72985e-07
4.73079e-07
4.72975e-07
4.73042e-07
4.72988e-07
4.73025e-07
4.72994e-07
4.7301e-07
4.72986e-07
4.72976e-07
4.72959e-07
4.72965e-07
4.72959e-07
4.72962e-07
4.72959e-07
4.72959e-07
4.72957e-07
4.72959e-07
4.72955e-07
4.72954e-07
4.72957e-07
4.72956e-07
4.72954e-07
4.72957e-07
4.72964e-07
4.72967e-07
4.72969e-07
4.72969e-07
4.72968e-07
4.72966e-07
4.72966e-07
4.72966e-07
4.72963e-07
4.72959e-07
4.72958e-07
4.72956e-07
4.72953e-07
4.7295e-07
4.72947e-07
4.72943e-07
4.72942e-07
4.72937e-07
4.72935e-07
4.72931e-07
4.72928e-07
4.72928e-07
4.72925e-07
4.72925e-07
4.72923e-07
4.72927e-07
4.72927e-07
4.72922e-07
4.72922e-07
4.72926e-07
4.72926e-07
4.72926e-07
4.72925e-07
4.72925e-07
4.72925e-07
4.72924e-07
4.72924e-07
4.72923e-07
4.72923e-07
4.72923e-07
4.72922e-07
4.72922e-07
4.72922e-07
4.72921e-07
4.72921e-07
4.72921e-07
4.72921e-07
4.72921e-07
4.7292e-07
4.7292e-07
4.7292e-07
4.7292e-07
4.7292e-07
4.72919e-07
4.72919e-07
4.72919e-07
4.72919e-07
4.72919e-07
4.72919e-07
4.72918e-07
4.72918e-07
4.72918e-07
4.72918e-07
4.72918e-07
4.72918e-07
4.72918e-07
4.72918e-07
4.72918e-07
4.72917e-07
4.72917e-07
4.72917e-07
4.72917e-07
4.72917e-07
4.72917e-07
4.72917e-07
4.72917e-07
4.72917e-07
4.72917e-07
4.72916e-07
4.72916e-07
4.72916e-07
4.72916e-07
4.72916e-07
4.72916e-07
4.72916e-07
4.72916e-07
4.72916e-07
4.72916e-07
4.72916e-07
4.72916e-07
4.72916e-07
4.72916e-07
4.72916e-07
4.72916e-07
4.72916e-07
4.72916e-07
4.72916e-07
4.72916e-07
4.72916e-07
4.72916e-07
4.72917e-07
4.72917e-07
4.72917e-07
4.72917e-07
4.72917e-07
4.72917e-07
4.72917e-07
4.72917e-07
4.72918e-07
4.72918e-07
4.72918e-07
4.72918e-07
4.72918e-07
4.72918e-07
4.72918e-07
4.72919e-07
4.72919e-07
4.72919e-07
4.72919e-07
4.72919e-07
4.72919e-07
4.72919e-07
4.7292e-07
4.7292e-07
4.7292e-07
4.7292e-07
4.72921e-07
4.72921e-07
4.72921e-07
4.72662e-07
4.717e-07
4.72543e-07
4.72519e-07
4.72646e-07
4.72273e-07
4.7239e-07
4.72265e-07
4.72358e-07
4.72334e-07
4.72421e-07
4.72442e-07
4.72575e-07
4.72582e-07
4.726e-07
4.72584e-07
4.72613e-07
4.7261e-07
4.7264e-07
4.72641e-07
4.72644e-07
4.72654e-07
4.72669e-07
4.7265e-07
4.72666e-07
4.72671e-07
4.72663e-07
4.7264e-07
4.72632e-07
4.7263e-07
4.72633e-07
4.72641e-07
4.72651e-07
4.72649e-07
4.72657e-07
4.72671e-07
4.72686e-07