/*--------------------------------*- C++ -*----------------------------------*\
| =========                 |                                                 |
| \\      /  F ield         | OpenFOAM: The Open Source CFD Toolbox           |
|  \\    /   O peration     | Version:  v1912                                 |
|   \\  /    A nd           | Website:  www.openfoam.com                      |
|    \\/     M anipulation  |                                                 |
\*---------------------------------------------------------------------------*/
FoamFile
{
    version     2.0;
    format      ascii;
    class       volScalarField;
    location    "100";
    object      p;
}
// * * * * * * * * * * * * * * * * * * * * * * * * * * * * * * * * * * * * * //

dimensions      [1 -1 -2 0 0 0 0];


internalField   nonuniform List<scalar> 
14268
(
1784.47
1515.34
1269.56
1104.42
1063.75
1067.33
1140.78
1276.83
1427.19
1613.14
1677.53
1613.88
1422.64
1259.57
1115.2
972.45
856.953
701.198
561.008
468.092
529.189
617.464
645.055
803.849
931.113
831.456
686.607
517.595
392.545
341.05
333.107
338.397
409.724
432.992
416.278
311.818
203.988
121.828
96.1717
88.2858
74.5195
97.7642
114.614
126.544
129.073
123.071
83.5203
79.2866
93.5612
98.5574
98.511
80.0667
64.2403
51.1186
33.885
28.2176
21.5585
25.4713
30.8291
33.9313
23.3286
-2.47787
-18.2015
-23.4284
-26.8924
-30.254
-28.9022
-29.6388
-32.8616
-28.9852
-29.0319
-31.6827
-33.2707
-34.3225
-35.0564
-35.6308
-36.0195
-36.3552
-36.7538
-37.2038
-37.717
-38.1479
-38.5306
-38.9093
-39.2995
-39.6111
-39.7772
-39.9076
-40.0992
-40.2821
-40.5026
-40.7982
-41.1229
-41.4947
-41.8472
-42.2621
-42.5549
-42.8794
-43.4382
-43.8401
-44.3038
-44.7856
-45.2468
-45.6263
1588.07
1338.73
1084.5
903.309
860.731
884.413
979.23
1134.42
1267.33
1430.54
1454.21
1363.86
1189.75
1052.85
914.409
784.905
689.352
549.038
462.759
397.003
442.728
519.949
541.066
690.799
812.363
712.572
580.102
455.572
362.713
324.692
311.74
297.828
343.709
372.077
361.381
267.438
161.658
85.5714
65.7937
57.6392
42.9777
53.8995
61.5196
69.4832
71.3314
74.5803
58.7384
61.7716
74.4648
81.18
75.6118
57.6696
42.1595
25.3663
12.4411
15.6811
10.6915
14.716
21.1865
24.4358
13.9001
-12.1607
-26.7179
-29.0783
-28.9495
-31.3823
-29.7391
-30.4207
-33.3947
-29.3721
-29.2702
-31.9438
-33.4737
-34.4736
-35.1936
-35.7684
-36.1807
-36.5475
-36.9499
-37.3852
-37.8762
-38.3031
-38.6868
-39.0676
-39.4592
-39.7965
-40.0252
-40.1925
-40.3885
-40.5742
-40.7879
-41.0544
-41.3313
-41.6752
-42.0172
-42.4335
-42.7493
-43.0681
-43.598
-43.9858
-44.4434
-44.9327
-45.3885
-45.7718
1505
1262.51
1020.66
841.358
792.871
807.669
923.124
1061.87
1196.19
1333.74
1341.49
1188.86
947.084
771.331
635.722
497.743
413.022
437.384
391.008
347.388
380.23
466.193
481.09
599.91
700.034
588.047
434.082
311.22
331.647
319.325
298.161
291.639
345.724
358.124
331.365
229.362
127.428
61.9813
41.5312
39.4725
33.5922
38.5969
33.7739
29.5261
26.1407
42.3939
42.7454
53.2167
63.6987
66.4872
67.0142
45.9445
30.4068
20.4452
6.15463
-7.36415
-12.507
0.606306
14.4012
20.5494
10.2927
-15.3734
-32.1789
-38.5471
-36.2878
-32.1985
-30.2193
-30.6823
-33.7601
-29.7291
-29.501
-32.1314
-33.6064
-34.6021
-35.3236
-35.8991
-36.3113
-36.6837
-37.0861
-37.5198
-37.995
-38.4346
-38.8247
-39.2025
-39.5802
-39.9219
-40.1537
-40.3245
-40.5234
-40.7164
-40.9294
-41.1954
-41.4762
-41.8289
-42.1615
-42.5701
-42.891
-43.2112
-43.7386
-44.1277
-44.5857
-45.0746
-45.5264
-45.907
1381.99
1144.32
899.125
704.281
659.024
691.768
807.349
961.4
1079.59
1213.57
1167.92
1021.79
809.054
668.317
557.994
415.288
269.138
63.8644
238.006
276.092
318.55
380.965
424.277
576.743
696.996
596.539
446.657
247.702
264.332
302.853
281.032
252.199
236.039
179.488
212.768
176.093
71.4785
-22.0061
-19.2972
3.47855
14.2696
22.6129
27.9042
28.5572
28.8503
28.3716
10.3922
11.7821
21.0583
34.2692
41.8841
26.2947
18.9133
6.42622
-0.454063
-0.359254
-7.73029
-1.21626
12.2138
20.4839
10.0248
-15.1524
-29.6387
-33.8696
-40.7486
-39.8314
-32.3666
-31.4318
-34.0866
-30.0049
-29.7357
-32.3407
-33.7716
-34.7482
-35.4614
-36.041
-36.4741
-36.861
-37.2683
-37.6935
-38.1475
-38.5664
-38.9597
-39.3373
-39.7228
-40.0997
-40.3773
-40.5698
-40.7627
-40.944
-41.1539
-41.3981
-41.6655
-42.004
-42.3111
-42.7203
-43.0764
-43.391
-43.8973
-44.2713
-44.7279
-45.2153
-45.6644
-46.0552
1316.06
985.701
683.088
482.352
466.387
550.186
737.228
898.877
1025.17
1136.48
1148.54
1015.71
857.201
685.195
568.796
478.828
338.574
110.689
116.382
235.107
271.843
334.252
389.794
561.206
706.226
616.926
483.747
348.85
267.186
284.598
264.127
219.918
124.129
166.486
231.839
199.062
105.329
19.2909
-21.6124
-24.3698
1.60139
9.67546
10.7979
12.3257
14.598
27.4667
9.56644
-27.8245
-25.5412
-28.7431
-19.2333
-3.01013
7.54473
4.73258
-4.25604
-0.998893
-4.85239
0.877733
11.6853
19.6202
8.45337
-16.365
-30.9323
-33.6061
-34.2049
-35.9179
-33.4699
-32.3024
-34.3694
-30.1819
-29.9238
-32.5312
-33.9276
-34.8874
-35.5972
-36.1752
-36.6013
-36.9943
-37.4037
-37.8332
-38.2887
-38.6923
-39.0793
-39.4583
-39.8495
-40.2458
-40.5251
-40.7231
-40.9205
-41.0942
-41.2675
-41.4988
-41.7676
-42.1202
-42.4317
-42.8422
-43.2033
-43.523
-44.0346
-44.4097
-44.8667
-45.3492
-45.7969
-46.1995
1139.92
860.933
504.359
258.078
156.15
297.627
548.966
761.566
867.06
1034.51
1102.13
1054.62
870.807
719.083
606.616
463.366
382.792
164.405
90.0553
189.61
227.107
259.556
321.429
491.906
634.069
537.602
405.89
280.042
246.267
273.759
252.957
193.776
121.476
175.59
256.729
218.652
116.286
24.7517
6.30484
-1.5569
-1.94169
-2.31671
-2.38776
-1.34797
0.848848
10.8243
13.2947
7.30832
17.2157
11.7799
-11.9952
-40.8964
-22.3526
-6.26119
-8.47396
-6.27145
-11.1841
-4.78426
9.93986
17.136
5.21818
-19.0644
-33.1799
-34.517
-34.6999
-34.6935
-33.0821
-33.1845
-34.8004
-30.3901
-30.18
-32.7845
-34.1199
-35.0413
-35.736
-36.3105
-36.7535
-37.1517
-37.5619
-37.99
-38.4489
-38.8329
-39.2237
-39.6035
-40.0099
-40.4212
-40.7305
-40.9527
-41.1589
-41.3408
-41.5177
-41.6987
-41.9008
-42.2525
-42.5846
-43.0044
-43.372
-43.6706
-44.184
-44.5525
-45.008
-45.4897
-45.9269
-46.3438
959.982
794.615
497.582
269.98
148.528
207.239
500.116
695.75
842.507
1018.65
1041.43
949.232
757.445
670.346
581.938
533.651
407.854
268.716
175.165
181.666
197.447
217.784
268.334
411.853
560.432
484.632
347.783
192.724
204.618
254.851
211.682
100.951
151.625
208.353
259.256
193.714
99.8456
28.429
4.06038
-5.62071
-9.73193
-10.4046
-7.51834
-4.77681
-1.09398
7.95618
12.7846
20.0529
32.5355
36.7582
25.4063
-3.79317
-20.882
-15.6092
-10.5821
-6.44064
-12.1262
-4.56993
7.31923
12.4053
1.26896
-21.008
-33.838
-34.8644
-34.8077
-34.8482
-32.939
-33.4081
-35.4445
-30.6069
-30.414
-32.9919
-34.2839
-35.1825
-35.8646
-36.4387
-36.8779
-37.2837
-37.6957
-38.124
-38.5829
-38.9705
-39.3518
-39.7325
-40.1472
-40.5566
-40.8632
-41.0919
-41.3003
-41.4963
-41.6753
-41.8553
-42.0181
-42.3705
-42.7226
-43.1617
-43.5414
-43.8174
-44.3243
-44.6983
-45.1488
-45.6298
-46.0557
-46.4815
840.909
705.042
470.896
226.936
111.786
127.631
461.875
615.235
684.352
792.004
632.255
130.328
-95.0917
-102.754
50.9189
303.975
330.309
248.321
202.374
166.839
157.42
166.482
182.941
369.824
563.171
517.832
391.95
247.146
166.185
158.304
53.5009
35.2802
132.907
174.712
128.966
46.1839
36.1448
15.2903
1.41035
-7.72237
-13.2822
-15.3138
-13.0294
-9.82729
-7.80917
-0.821676
5.27689
16.9004
31.0791
34.3029
27.9372
9.79683
-4.72602
-14.2405
-19.1564
-10.8268
-16.1167
-11.5155
-9.77539
-9.03139
-13.9115
-25.6888
-34.5284
-35.5794
-35.2885
-35.292
-33.5857
-33.8488
-36.4295
-30.8898
-30.6797
-33.2177
-34.4524
-35.3176
-35.991
-36.5703
-37.026
-37.4336
-37.8459
-38.2727
-38.7313
-39.1169
-39.495
-39.8796
-40.3027
-40.7203
-41.0507
-41.2946
-41.5159
-41.7131
-41.8854
-42.0623
-42.1974
-42.523
-42.8834
-43.3367
-43.7267
-43.9864
-44.4806
-44.8522
-45.2899
-45.7673
-46.1868
-46.6178
781.82
645.179
422.222
215.366
133.236
106.414
225.061
477.351
573.914
486.837
143.213
-91.1449
-106.791
-153.094
-334.392
-200.436
196.073
213.898
191.65
157.009
116.533
93.9009
131.745
347.457
543.267
501.688
382.447
254.28
202.791
189.476
130.301
116.8
160.916
111.816
-18.9779
-127.192
-98.5126
-12.0741
0.833776
-8.80822
-14.0707
-16.6928
-14.86
-11.6179
-8.06874
-1.77679
2.44956
11.0202
22.9127
28.135
25.427
9.79883
-1.13959
-7.32197
-16.035
-14.9524
-22.048
-26.1134
-46.8152
-50.623
-38.6065
-28.3676
-34.3413
-35.6811
-35.4705
-35.4078
-33.924
-34.3662
-37.3415
-31.4987
-30.9431
-33.4104
-34.5923
-35.4413
-36.1169
-36.7004
-37.1514
-37.5643
-37.978
-38.4045
-38.8607
-39.2504
-39.6325
-40.0157
-40.4355
-40.8505
-41.1802
-41.4314
-41.6328
-41.7811
-41.9736
-42.1922
-42.3533
-42.6813
-43.042
-43.4859
-43.8851
-44.1316
-44.6139
-45
-45.4304
-45.904
-46.3169
-46.7494
716.273
546.074
343.575
166.45
108.033
77.7404
-12.1663
102.822
63.7332
7.9899
-61.546
-89.7075
-83.0771
-116.535
-282.185
-479.511
-163.646
123.754
159.06
88.2825
7.69719
-23.5171
114.699
317.269
530.416
479.879
350.123
216.138
167.47
187.55
160.696
128.631
142.485
47.1504
-70.5204
-94.8416
-148.47
-57.9315
-2.24823
-10.2018
-15.4192
-17.4861
-17.0187
-15.0779
-12.6923
-9.78926
-8.91253
-15.0929
-7.38412
10.3309
16.2292
2.52164
-5.96301
-10.9762
-16.1056
-17.7724
-31.5037
-48.2274
-99.6321
-111.644
-74.805
-33.6441
-34.9137
-36.1822
-35.8457
-35.7117
-34.276
-34.935
-37.6838
-32.6686
-31.3124
-33.6153
-34.748
-35.5793
-36.2517
-36.8348
-37.2953
-37.71
-38.1241
-38.5488
-39.0028
-39.3896
-39.7702
-40.1566
-40.5817
-41.008
-41.3567
-41.6198
-41.8354
-41.9816
-42.1373
-42.3563
-42.5286
-42.8596
-43.2153
-43.6431
-44.0462
-44.2889
-44.7473
-45.1443
-45.576
-46.0473
-46.4514
-46.8873
707.406
539.461
338.333
191.159
148.319
110.701
-33.9129
-235.449
-226.811
-113.88
-50.6592
-79.4263
-48.0511
-96.7515
-234.206
-345.821
-355.352
17.3072
149.495
62.3255
-23.4439
-3.2508
112.797
294.351
499.433
450.043
338.405
188.234
78.5981
122.606
117.431
112.431
94.073
-15.3255
-63.0858
-57.978
-59.8785
-22.9065
-3.06134
-11.0292
-15.8992
-17.7794
-17.5334
-15.5916
-12.8122
-10.8605
-38.1263
-82.4229
-86.4734
-58.4411
-5.9278
-4.28648
-10.5509
-14.5661
-20.2109
-22.0231
-41.6694
-73.2418
-130.417
-141.083
-106.759
-43.8595
-34.8276
-36.2627
-35.9731
-35.8659
-34.4285
-35.3436
-37.5937
-33.5885
-31.7889
-33.8181
-34.9035
-35.722
-36.3869
-36.9658
-37.4224
-37.8408
-38.2555
-38.6799
-39.1311
-39.5199
-39.9029
-40.2878
-40.7123
-41.1358
-41.4857
-41.7558
-41.973
-42.1366
-42.2855
-42.4753
-42.6871
-43.0263
-43.3664
-43.7766
-44.1778
-44.4417
-44.8784
-45.2772
-45.7248
-46.1867
-46.5837
-47.0232
690.712
495.446
313.315
177.173
160.067
148.039
-15.8879
-253.085
-265.424
-139.882
-105.071
-69.4401
-17.4752
-53.5971
-176.137
-222.746
-99.4664
108.088
138.921
87.8723
20.8417
39.7458
102.136
260.68
349.492
289.572
306.618
180.504
-0.770555
-36.362
-32.3761
-16.1446
-66.8126
-62.0588
-39.6121
-12.3127
-1.78425
-1.74059
-1.94636
-12.1953
-16.8748
-18.4043
-18.4989
-17.0944
-16.7079
-26.2639
-81.4076
-86.4159
-84.9265
-100.813
-63.1693
-16.1216
-15.4357
-20.054
-27.1581
-34.602
-69.6188
-100.32
-127.846
-128.911
-125.28
-60.7275
-35.7489
-36.5768
-36.2703
-36.1229
-34.7108
-35.6305
-37.4913
-33.7511
-31.9116
-34.0039
-35.0728
-35.8699
-36.5226
-37.0994
-37.563
-37.9838
-38.399
-38.8214
-39.2693
-39.6558
-40.0373
-40.4257
-40.8535
-41.2894
-41.6547
-41.9385
-42.1673
-42.3317
-42.4943
-42.6593
-42.8531
-43.1934
-43.5101
-43.9266
-44.3484
-44.6131
-45.0316
-45.4194
-45.8696
-46.3234
-46.7176
-47.1609
679.257
502.003
282.173
126.421
115.665
137
65.1089
-151.003
-228.453
-160.721
-109.071
-47.6522
6.4221
-18.4026
-79.2235
-12.8446
130.311
160.956
133.319
84.5224
46.0931
48.438
93.2921
198.776
-81.2622
-332.082
125.014
158.441
92.8129
-31.8937
-88.6374
-125.202
-169.89
-39.9465
-8.86585
19.8983
2.54992
-2.55877
-2.5723
-12.7646
-17.0754
-18.5185
-18.6189
-17.2538
-18.5387
-29.0106
-26.8054
-31.2093
-57.0923
-84.5784
-94.1538
-38.6717
-12.3203
-14.4662
-19.6027
-26.719
-92.7873
-118.353
-119.401
-119.328
-133.544
-77.1837
-37.7883
-36.5869
-36.3782
-36.2881
-34.9241
-35.8713
-37.6575
-33.9374
-31.948
-34.0665
-35.2163
-36.0134
-36.6558
-37.2299
-37.6917
-38.1147
-38.5302
-38.9522
-39.3974
-39.7851
-40.1682
-40.5548
-40.9837
-41.4162
-41.7838
-42.0721
-42.3062
-42.4845
-42.6461
-42.8054
-42.9973
-43.3483
-43.654
-44.0709
-44.5154
-44.7722
-45.1876
-45.5712
-46.0109
-46.4552
-46.8489
-47.2938
647.618
454.282
217.053
95.1803
99.7186
107.075
96.1327
-49.8631
-185.282
-150.899
-78.5617
-0.774561
50.0524
49.7005
30.1799
93.4746
152.777
158.549
128.998
79.0811
40.0007
42.7999
78.9496
66.6421
-349.858
-601.512
-186.307
127.705
116.109
63.5109
-10.0641
-16.3017
-40.9904
-38.6184
-2.16085
25.595
-0.594501
-4.35744
-4.03568
-13.7774
-17.7981
-18.9788
-19.1913
-18.6315
-18.3468
-14.21
-10.8041
-6.29328
-6.97088
-57.4965
-92.364
-58.3643
-17.0818
-15.1275
-19.0211
-16.4573
-45.5605
-98.2345
-109.238
-110.105
-126.85
-92.6415
-42.613
-36.7376
-36.5976
-36.5129
-35.1694
-36.1174
-37.8895
-34.1547
-32.1627
-34.1736
-35.3525
-36.1549
-36.7897
-37.3626
-37.8301
-38.2561
-38.672
-39.0918
-39.5331
-39.9188
-40.301
-40.6901
-41.1218
-41.5667
-41.9478
-42.2477
-42.4892
-42.6688
-42.838
-42.9977
-43.1485
-43.5043
-43.8155
-44.2373
-44.6864
-44.9348
-45.3495
-45.727
-46.1522
-46.578
-46.9809
-47.4178
608.179
377.573
153.271
80.7815
90.0006
90.7919
141.084
158.935
-3.77739
-52.575
26.7098
73.9218
128.353
116.452
75.1438
98.0994
150.381
149.949
125.236
76.6594
35.0058
32.1584
28.8828
-183.103
-337.075
-454.088
-542.861
61.5925
99.1409
101.334
66.1642
56.3894
33.327
-7.89201
13.7034
14.2275
-3.7574
-5.04576
-4.68458
-14.3019
-18.0543
-19.2099
-19.5499
-18.6675
-16.3566
-10.7249
-11.8398
-4.04475
7.36027
-8.08458
-47.7217
-61.5011
-31.7566
-17.3544
-19.2835
-15.5312
-24.5451
-45.3647
-87.6884
-94.3096
-103.394
-90.4334
-45.7049
-36.692
-36.7439
-36.8058
-35.48
-36.3851
-38.1542
-34.4351
-32.512
-34.372
-35.5269
-36.3553
-36.9872
-37.5582
-38.0251
-38.4523
-38.8684
-39.2877
-39.7252
-40.1122
-40.496
-40.8857
-41.3174
-41.7568
-42.1414
-42.4523
-42.7035
-42.8907
-43.0608
-43.2312
-43.3575
-43.7278
-44.0558
-44.4648
-44.8884
-45.1514
-45.5851
-45.961
-46.3556
-46.751
-47.1706
-47.5806
474.839
259.006
109.298
72.332
74.2757
68.1227
93.2176
202.783
189.253
150.093
196.553
218.191
160.093
76.5381
49.109
86.3159
137.586
144.311
116.715
71.8949
34.0066
18.0995
-92.1093
-327.909
-252.824
-356.084
-688.352
-333.486
13.1298
66.668
40.8487
34.521
28.944
29.908
20.8164
1.38399
-8.43036
-12.5634
-11.7441
-17.6438
-19.0989
-20.1002
-20.4594
-20.7131
-22.5218
-21.8273
-22.9543
-18.8688
-6.55566
0.687068
-11.9303
-37.3667
-40.4618
-26.7738
-21.8087
-18.0493
-25.3718
-26.4958
-45.62
-59.6232
-54.4978
-44.5423
-38.6431
-36.8545
-37.0225
-37.184
-35.8196
-36.6872
-38.2948
-34.7562
-33.0223
-34.7224
-35.7812
-36.6076
-37.246
-37.8231
-38.2987
-38.7316
-39.1482
-39.5633
-39.9928
-40.3765
-40.7595
-41.1503
-41.5886
-42.0496
-42.4568
-42.7821
-43.046
-43.2383
-43.414
-43.5916
-43.6755
-44.0267
-44.3546
-44.7012
-45.0785
-45.4176
-45.8422
-46.2033
-46.5767
-47
-47.3997
-47.7916
386.696
212.439
93.1103
62.5875
55.7794
46.5641
71.4769
177.259
210.15
276.426
309.011
213.312
105.591
63.4507
42.7492
72.3033
113.609
126.767
113.369
67.5609
31.3503
23.7304
-27.3461
-192.644
-166.483
-248.631
-487.067
-559.912
-197.514
-71.3172
-49.5098
7.36482
23.9772
14.1679
4.09159
-4.82846
-12.7049
-25.5857
-24.6392
-22.2544
-19.4224
-20.4126
-20.8691
-22.2002
-30.4998
-35.902
-39.503
-32.3239
-11.4469
-4.60529
-5.66512
-21.818
-28.4407
-27.1788
-23.809
-18.8662
-26.4309
-25.3402
-29.9016
-35.4963
-36.0573
-36.3127
-37.3613
-36.9188
-37.211
-37.4454
-36.124
-36.914
-38.3624
-35.0786
-33.518
-35.0636
-36.058
-36.8701
-37.5053
-38.0833
-38.5596
-38.9948
-39.4097
-39.8224
-40.2474
-40.633
-41.0173
-41.4114
-41.8468
-42.3
-42.7123
-43.0518
-43.3272
-43.524
-43.7018
-43.8798
-43.9913
-44.2786
-44.5861
-44.8739
-45.2453
-45.6403
-46.0532
-46.4045
-46.8152
-47.2602
-47.6426
-48.0184
321.306
181.052
85.054
55.6274
9.1518
-32.8061
31.7294
137.412
169.927
234.944
256.664
176.167
88.8771
56.0561
25.7381
31.126
47.0249
67.7089
97.3204
63.1379
28.9717
27.2614
28.313
-13.4296
-60.6464
-96.9554
-175.673
-166.921
-58.8423
-10.2529
-31.9465
0.918278
3.36973
1.92561
-2.5504
-8.75517
-22.2454
-49.0108
-45.5063
-29.0072
-20.7082
-20.9785
-21.7837
-25.9629
-43.0224
-37.067
-37.8999
-37.1382
-28.9883
-14.9992
-11.7363
-21.572
-24.9898
-23.6098
-25.3275
-21.1847
-28.7455
-27.3473
-27.4157
-30.0579
-31.6479
-34.8981
-38.3354
-37.2352
-37.4679
-37.6634
-36.4298
-37.0865
-38.4712
-35.4334
-34.0003
-35.421
-36.3545
-37.1481
-37.7716
-38.3486
-38.8308
-39.2695
-39.6872
-40.0953
-40.5121
-40.8953
-41.2796
-41.674
-42.1136
-42.5865
-43.0195
-43.3722
-43.657
-43.8575
-44.0324
-44.2141
-44.32
-44.482
-44.774
-45.0939
-45.4628
-45.862
-46.2881
-46.6353
-47.0737
-47.5226
-47.8991
-48.2733
297.831
169.281
80.5741
45.079
-27.468
-88.1954
-14.3377
111.036
145.679
215.128
241.616
164.541
81.1891
48.5343
15.4046
27.9755
48.4994
19.2498
62.9587
60.0422
27.6116
26.4202
38.086
39.532
44.0674
40.0287
12.0175
1.48595
19.3242
30.6941
5.21836
-6.98331
-6.07902
-4.77705
-6.5101
-10.7906
-20.7817
-47.0642
-58.8356
-36.1679
-21.086
-21.0924
-22.0946
-26.232
-29.825
-28.5605
-31.9161
-30.351
-27.2549
-22.9955
-13.3234
-22.1495
-24.9246
-22.4986
-26.0385
-24.0752
-32.338
-28.8975
-27.6665
-29.4643
-30.9278
-33.5354
-37.549
-37.4524
-37.6326
-37.871
-36.6532
-37.3023
-38.6582
-35.7864
-34.4563
-35.7593
-36.6406
-37.4253
-38.0377
-38.6093
-39.0936
-39.5348
-39.951
-40.3534
-40.7659
-41.1513
-41.5369
-41.9331
-42.371
-42.8369
-43.2782
-43.643
-43.9414
-44.1434
-44.3155
-44.4945
-44.6246
-44.7289
-44.9852
-45.3488
-45.7433
-46.1064
-46.5368
-46.8907
-47.3378
-47.7818
-48.1539
-48.5249
273.554
160.144
78.4494
2.83404
-58.1752
-90.7796
-72.1819
69.5701
113.129
190.38
227.148
156.882
72.7956
39.0281
15.6544
37.0892
72.3409
28.153
29.1892
52.9458
25.7454
24.3878
33.6251
35.9566
46.9646
40.9775
18.6554
12.7251
22.2053
32.5388
6.06482
-12.5886
-11.6611
-9.70627
-9.92068
-12.8515
-14.1254
-31.4404
-52.8993
-42.9818
-22.478
-21.4655
-22.0343
-22.7356
-24.9359
-21.7716
-26.723
-29.9436
-24.2291
-25.4617
-19.8151
-23.9639
-26.9619
-25.2413
-26.6144
-28.7532
-40.4578
-36.6932
-29.9045
-29.9561
-31.5104
-34.0507
-37.6698
-37.8222
-37.8368
-38.0927
-36.8638
-37.5839
-38.9159
-36.1335
-34.905
-36.1063
-36.9338
-37.7016
-38.3055
-38.8745
-39.3648
-39.81
-40.2259
-40.6252
-41.0287
-41.4122
-41.7979
-42.1943
-42.6343
-43.1188
-43.5771
-43.9556
-44.2617
-44.4663
-44.6358
-44.8179
-44.9321
-45.0291
-45.254
-45.6422
-46.0551
-46.3912
-46.8029
-47.1554
-47.6012
-48.0404
-48.4104
-48.7733
247.521
153.054
75.7392
25.26
-26.9478
-75.4936
-69.9809
37.9454
72.285
158.348
206.96
149.637
68.1877
29.0738
5.18883
33.7505
77.3702
42.9552
24.4967
46.7056
24.3686
22.9521
33.1679
32.576
39.2245
35.7738
13.7431
13.932
22.0807
27.0696
-0.788202
-13.8248
-12.1845
-10.3534
-10.8545
-13.81
-13.4947
-21.5097
-43.1329
-41.6418
-22.9601
-21.7507
-22.0507
-22.1693
-24.5063
-19.4473
-22.0504
-25.4609
-23.6279
-22.7142
-16.8787
-24.4724
-27.1454
-24.3191
-26.3725
-29.1615
-40.1517
-38.993
-31.203
-30.4331
-31.9041
-33.9302
-37.3921
-38.0134
-38.0254
-38.2691
-37.1501
-37.8611
-39.1266
-36.4615
-35.3256
-36.4376
-37.2265
-37.9726
-38.5693
-39.1366
-39.6281
-40.0762
-40.4908
-40.8837
-41.2824
-41.6678
-42.0552
-42.4537
-42.8928
-43.369
-43.8396
-44.2276
-44.5456
-44.752
-44.9205
-45.0909
-45.2244
-45.3286
-45.5539
-45.9219
-46.3219
-46.6513
-47.0624
-47.4197
-47.8613
-48.2954
-48.6628
-49.0181
134.718
77.035
57.5448
89.1254
57.7411
2.94101
-13.4811
20.8005
31.1214
97.215
132.885
80.9424
33.0518
9.66475
0.833701
13.6793
54.041
80.6956
55.7751
31.6347
16.3418
15.4081
3.60149
-14.6373
3.85445
2.74103
-0.273042
-5.8832
-1.05449
4.08177
-11.178
-18.0401
-18.1816
-17.8409
-17.8923
-17.2523
-17.3244
-16.5912
-20.7477
-24.1833
-23.5817
-22.8145
-23.5141
-26.6522
-28.4533
-29.8581
-28.2152
-27.1947
-24.2772
-25.1441
-35.2311
-32.067
-31.3485
-33.4495
-31.7246
-31.6329
-34.8689
-40.9388
-36.6179
-33.2372
-34.9557
-37.8484
-39.8465
-39.8999
-39.479
-39.3331
-38.7305
-39.3718
-39.9649
-38.0408
-37.5059
-38.2054
-38.7889
-39.3904
-39.9497
-40.5153
-41.0419
-41.4956
-41.909
-42.2761
-42.6336
-43.0038
-43.3904
-43.7822
-44.2195
-44.7912
-45.3709
-45.8498
-46.1889
-46.3609
-46.4802
-46.6232
-46.7166
-46.8423
-47.0285
-47.3675
-47.638
-47.9399
-48.3086
-48.7135
-49.1505
-49.5567
-49.9078
-50.2293
-5.09323
-7.25709
-4.56791
-33.6648
-26.3497
-15.7735
-12.9482
-11.4023
-11.4434
31.0235
26.5145
16.0274
6.95985
-4.06438
-9.38315
-14.0444
2.10061
6.11445
6.70986
4.49012
4.47178
5.9622
-16.4335
-36.1482
-31.8702
-30.4779
-30.8591
-29.6411
-27.6879
-26.9649
-26.5349
-24.9384
-22.4937
-21.7244
-22.2446
-22.2167
-22.0382
-23.5262
-23.6337
-24.241
-24.7952
-25.2882
-26.255
-26.6888
-27.6644
-28.9921
-31.5114
-33.5056
-34.2583
-33.9575
-33.13
-32.5528
-30.5699
-29.9188
-34.4041
-38.2005
-41.5381
-41.8365
-38.7817
-37.3307
-38.4356
-39.3238
-40.4808
-41.1794
-41.6425
-41.8655
-41.6077
-41.8953
-41.9163
-40.9338
-40.8126
-41.1739
-41.5811
-42.0204
-42.4736
-42.9439
-43.4621
-43.9436
-44.3476
-44.6207
-44.9481
-45.3271
-45.7037
-46.1072
-46.4945
-46.8684
-47.3452
-47.8634
-48.3894
-48.7596
-49.0079
-49.099
-49.2231
-49.3512
-49.4782
-49.665
-49.9197
-50.187
-50.5246
-50.9345
-51.3918
-51.7774
-52.1269
-52.447
-36.7662
-33.5443
-31.5033
-34.4325
-28.1963
-28.3049
-27.8034
-31.2668
-26.7045
-21.3538
-15.9601
-12.1003
-12.5897
-16.6285
-21.0346
-21.9285
-15.1751
-9.64825
-5.00739
-11.9455
-10.5912
-15.97
-25.1332
-30.8659
-28.8324
-27.8976
-28.508
-29.1557
-30.752
-30.2845
-30.6876
-31.7689
-32.1962
-30.9717
-29.3594
-27.9888
-27.3809
-27.4353
-28.3086
-28.5178
-28.9641
-29.4044
-30.0813
-31.4714
-32.603
-33.4706
-34.7232
-36.6741
-38.8736
-39.8042
-39.1166
-37.5305
-36.9454
-37.9478
-39.4655
-42.7189
-45.8873
-47.1516
-44.0291
-43.0885
-43.07
-43.3554
-43.8267
-44.1137
-44.2412
-44.2756
-44.1997
-44.3326
-44.2559
-43.8227
-43.7347
-44.013
-44.3274
-44.6533
-45.0076
-45.4215
-45.8496
-46.3046
-46.719
-47.0337
-47.3364
-47.701
-48.0868
-48.4708
-48.8185
-49.1101
-49.3283
-49.6594
-50.1317
-50.7565
-51.341
-51.6189
-51.7468
-51.8547
-51.9631
-52.1243
-52.3574
-52.6162
-52.8552
-53.2284
-53.6452
-54.0204
-54.3307
-54.6409
-31.5123
-32.1013
-34.4271
-36.4743
-36.5853
-33.5512
-30.2551
-28.8761
-28.5619
-27.1284
-24.8445
-22.9239
-23.9127
-24.0961
-23.75
-20.185
-24.2778
-22.1257
-17.3479
-17.5713
-18.2082
-20.0274
-28.956
-35.1339
-35.3994
-34.8869
-35.3644
-35.4946
-34.6834
-33.5473
-33.0959
-33.9016
-34.5356
-34.2291
-34.5172
-33.8152
-32.4811
-31.389
-30.7657
-31.3625
-31.885
-32.9714
-33.6348
-34.2253
-35.2025
-36.3743
-37.6785
-39.5306
-40.6296
-40.5576
-40.0343
-39.3095
-39.0174
-39.6608
-41.4242
-43.3886
-45.1003
-46.3642
-45.7949
-45.9621
-46.0281
-46.2051
-46.527
-46.7249
-46.795
-46.7746
-46.7671
-46.7933
-46.7066
-46.5219
-46.501
-46.6898
-46.9754
-47.2567
-47.5372
-47.8364
-48.1648
-48.5099
-48.932
-49.3224
-49.6451
-49.9777
-50.3253
-50.6676
-50.9324
-51.1528
-51.3275
-51.534
-51.843
-52.3196
-52.9673
-53.6793
-53.9879
-54.1871
-54.3728
-54.5457
-54.7389
-54.927
-55.1435
-55.5172
-55.8821
-56.2084
-56.5123
-56.8194
-42.1511
-41.5881
-41.8825
-41.6656
-40.3626
-37.5522
-36.0955
-35.2293
-33.3793
-32.7585
-32.856
-32.4609
-34.826
-34.5576
-32.4633
-31.354
-32.4736
-33.7501
-33.334
-31.5315
-34.268
-34.126
-35.7961
-37.1333
-36.7528
-35.8941
-36.2136
-36.7244
-37.1173
-36.7682
-36.6521
-38.705
-40.3964
-40.7251
-40.9467
-40.2521
-39.0048
-36.6695
-35.3323
-35.3671
-35.8476
-36.519
-36.9818
-37.3868
-38.1212
-39.0105
-40.3004
-42.0637
-43.2833
-43.5429
-43.3851
-43.4095
-43.866
-44.6543
-46.0085
-47.4187
-48.4201
-48.9174
-48.6986
-48.9776
-48.9927
-49.073
-49.2088
-49.2855
-49.2783
-49.2248
-49.2164
-49.2357
-49.2087
-49.1425
-49.1189
-49.2007
-49.4551
-49.7631
-50.0442
-50.2704
-50.499
-50.7705
-51.1444
-51.6428
-51.9625
-52.3396
-52.6922
-53.0499
-53.3484
-53.4975
-53.6752
-53.8846
-54.1051
-54.3926
-54.7989
-55.4241
-56.0867
-56.4223
-56.7041
-56.9282
-57.1782
-57.3391
-57.522
-57.8106
-58.1222
-58.4201
-58.7245
-59.0128
-38.7003
-38.9963
-39.2253
-39.8815
-39.8178
-38.8502
-37.4732
-36.3601
-35.155
-34.9806
-36.8721
-38.596
-38.4705
-37.8563
-37.0947
-38.7806
-39.3673
-40.4589
-39.0714
-37.4043
-38.1482
-39.2731
-39.8639
-40.2337
-39.9884
-40.0766
-40.4008
-40.5246
-40.6649
-40.3007
-40.3857
-42.1977
-43.7926
-43.9047
-43.4522
-43.2915
-42.1431
-40.3666
-38.8562
-38.606
-39.4504
-39.8921
-40.1019
-40.4163
-41.0833
-41.8423
-42.9165
-44.0893
-44.9536
-45.4292
-45.6659
-46.0018
-46.4689
-47.2119
-48.2307
-49.3034
-50.6061
-51.2925
-51.382
-51.6878
-51.8179
-51.911
-51.9273
-51.9154
-51.8299
-51.7395
-51.7091
-51.7215
-51.718
-51.7276
-51.7575
-51.8202
-51.9372
-52.1428
-52.4139
-52.6907
-52.9363
-53.1196
-53.3802
-53.7549
-54.1929
-54.6102
-54.9753
-55.2636
-55.4579
-55.6266
-55.7968
-56.0021
-56.2717
-56.5697
-56.8963
-57.3012
-57.9011
-58.4974
-58.9031
-59.1864
-59.4458
-59.6399
-59.8488
-60.0949
-60.368
-60.6504
-60.9375
-61.2039
-47.0551
-46.5185
-47.2261
-46.6162
-44.9563
-43.125
-41.8406
-40.6141
-39.5893
-38.6915
-41.0616
-43.2183
-45.2771
-43.9967
-42.8768
-44.3658
-45.592
-45.3242
-42.9108
-41.6211
-41.35
-42.0132
-42.5721
-42.9349
-43.1163
-43.3326
-43.6261
-43.7948
-44.106
-44.8125
-44.3899
-45.4842
-46.7207
-46.785
-46.9742
-46.9551
-46.5984
-45.2332
-43.484
-42.6616
-42.7459
-43.0751
-43.3494
-43.5436
-44.0596
-44.8157
-45.7895
-46.9047
-47.8591
-48.4491
-48.9364
-49.7033
-50.4048
-51.0381
-51.6433
-52.2832
-53.0771
-53.7058
-54.0375
-54.3622
-54.5595
-54.697
-54.6924
-54.5657
-54.3764
-54.2379
-54.1971
-54.2273
-54.2686
-54.3015
-54.3276
-54.3728
-54.4644
-54.5951
-54.7754
-55.0302
-55.3141
-55.5622
-55.7487
-55.995
-56.4447
-56.8918
-57.3439
-57.6458
-57.8175
-57.9633
-58.1165
-58.3033
-58.5577
-58.8548
-59.1904
-59.5551
-59.9847
-60.4739
-60.9644
-61.3536
-61.6593
-61.9014
-62.1382
-62.3783
-62.6259
-62.8832
-63.1493
-63.4243
-44.367
-43.5187
-43.2703
-43.5252
-43.4318
-42.9603
-42.4653
-42.2803
-42.1521
-42.7717
-44.7362
-45.925
-45.9859
-46.3178
-46.1167
-46.6932
-46.9766
-45.9942
-45.1051
-44.3343
-44.3657
-44.8387
-45.4165
-45.9086
-46.2636
-46.4878
-46.7168
-47.0475
-47.1033
-47.499
-47.606
-48.5105
-49.4532
-49.5503
-49.6614
-49.6365
-51.1115
-49.7546
-48.7371
-47.1318
-45.8137
-45.8394
-46.3844
-46.6204
-47.0149
-47.7103
-48.4639
-49.5102
-50.6699
-51.3365
-51.9858
-52.6939
-53.3888
-53.8627
-54.3816
-54.9728
-55.5982
-56.1958
-56.6949
-57.0794
-57.3571
-57.4948
-57.4119
-57.1791
-56.8482
-56.5949
-56.5575
-56.6508
-56.7806
-56.8808
-56.9205
-56.9492
-57.0116
-57.1006
-57.221
-57.4041
-57.6341
-57.8983
-58.1615
-58.4288
-58.7552
-59.1714
-59.5325
-59.7712
-59.9583
-60.0937
-60.2546
-60.4722
-60.7219
-61.0162
-61.3637
-61.774
-62.1916
-62.5818
-62.9937
-63.4239
-63.7926
-64.0832
-64.35
-64.5981
-64.8378
-65.0625
-65.3013
-65.5701
-52.0843
-51.5632
-51.0755
-50.2849
-49.0518
-48.1784
-47.8142
-47.5642
-47.3906
-48.001
-49.1561
-50.2357
-50.8704
-50.5378
-49.9659
-49.9945
-49.6151
-48.3254
-47.6064
-47.0985
-47.3077
-47.9056
-48.5495
-49.1284
-49.5642
-49.9939
-50.3425
-50.6743
-51.1659
-51.0739
-51.4318
-52.0473
-52.7022
-52.8832
-52.9144
-53.1721
-53.6015
-53.8308
-52.8814
-51.9278
-49.957
-49.6297
-49.9884
-50.1596
-50.4158
-51.1005
-51.8016
-52.6391
-53.8036
-54.5214
-55.2056
-55.7742
-56.1543
-56.4687
-56.9633
-57.5351
-58.1404
-58.7695
-59.3345
-59.7804
-60.1733
-60.403
-60.3072
-60.0398
-59.6054
-59.2659
-59.0871
-59.1268
-59.3031
-59.4558
-59.4776
-59.4699
-59.5115
-59.5729
-59.661
-59.8071
-60.009
-60.2461
-60.499
-60.7619
-61.0862
-61.4579
-61.7599
-62.0575
-62.2775
-62.4267
-62.6132
-62.8412
-63.0916
-63.3723
-63.691
-64.0487
-64.4303
-64.7896
-65.1372
-65.5004
-65.8706
-66.2144
-66.52
-66.7939
-67.0434
-67.2692
-67.488
-67.7356
-50.2051
-49.4662
-49.2651
-49.2658
-49.2731
-49.4856
-49.6359
-49.6209
-49.6724
-49.9722
-50.3441
-50.8316
-51.149
-51.2745
-51.3525
-51.1572
-51.0742
-50.5848
-50.1727
-50.1238
-50.4654
-50.9987
-51.5388
-52.1062
-52.6127
-52.9548
-53.3847
-54.0556
-54.5085
-54.4272
-54.8936
-55.3171
-55.6944
-55.8527
-55.8012
-55.8367
-55.3307
-57.0488
-54.705
-55.1387
-53.9805
-53.5628
-53.0521
-53.3195
-53.5601
-54.2904
-55.1026
-55.8693
-56.8008
-57.4594
-57.8906
-58.3813
-58.7052
-59.068
-59.574
-60.1543
-60.7536
-61.382
-61.9507
-62.4675
-63.0468
-63.328
-63.1996
-62.9847
-62.5808
-62.2372
-61.9954
-61.8878
-61.9113
-61.9781
-62.0109
-62.0101
-62.0093
-62.0283
-62.0966
-62.2144
-62.3804
-62.5922
-62.8476
-63.1107
-63.3908
-63.6942
-64.0002
-64.27
-64.4631
-64.6444
-64.8456
-65.0664
-65.3161
-65.5917
-65.9051
-66.2554
-66.6184
-66.9688
-67.3133
-67.6403
-67.9722
-68.3121
-68.6474
-68.9492
-69.2172
-69.4609
-69.6754
-69.9
-56.0518
-55.3402
-54.9465
-54.6532
-54.4135
-54.2061
-53.9652
-53.788
-53.7894
-54.0867
-54.5617
-55.1497
-55.2123
-54.8664
-54.689
-54.3637
-53.8971
-53.3995
-53.0927
-53.1036
-53.4289
-53.9166
-54.4731
-55.1225
-55.6277
-56.0726
-56.8234
-57.7989
-57.8245
-57.9478
-58.7805
-58.9585
-58.8376
-59.3356
-59.1457
-58.8985
-58.6122
-59.6938
-57.3863
-58.2374
-57.9778
-57.4667
-56.412
-56.707
-56.9903
-57.5388
-58.3772
-59.1299
-59.7832
-60.3291
-60.5508
-60.94
-61.2519
-61.6393
-62.186
-62.7994
-63.4261
-64.0388
-64.5878
-65.1211
-65.7679
-66.0921
-66.2222
-65.978
-65.7469
-65.4624
-65.1677
-64.95
-64.7655
-64.663
-64.6392
-64.5577
-64.4708
-64.4521
-64.4888
-64.5876
-64.758
-64.9576
-65.1786
-65.4084
-65.698
-65.9865
-66.2792
-66.5341
-66.7538
-66.9584
-67.1794
-67.4131
-67.6629
-67.9426
-68.2383
-68.5592
-68.8884
-69.2052
-69.5201
-69.8343
-70.1434
-70.4467
-70.7615
-71.0802
-71.3663
-71.6324
-71.8725
-72.0936
-56.272
-55.8706
-55.6503
-55.6524
-55.7491
-55.6957
-55.5855
-55.4882
-55.4533
-55.5393
-55.7138
-55.9348
-56.1228
-56.2903
-56.3639
-56.3338
-56.2328
-55.9936
-55.841
-55.9218
-56.2859
-56.8183
-57.4084
-57.9881
-58.5225
-59.3745
-60.5511
-61.1925
-61.1283
-61.7208
-62.5795
-62.347
-62.008
-62.4683
-62.3835
-61.9809