/*--------------------------------*- C++ -*----------------------------------*\
| =========                 |                                                 |
| \\      /  F ield         | OpenFOAM: The Open Source CFD Toolbox           |
|  \\    /   O peration     | Version:  v1912                                 |
|   \\  /    A nd           | Website:  www.openfoam.com                      |
|    \\/     M anipulation  |                                                 |
\*---------------------------------------------------------------------------*/
FoamFile
{
    version     2.0;
    format      ascii;
    class       volVectorField;
    location    "100";
    object      U;
}
// * * * * * * * * * * * * * * * * * * * * * * * * * * * * * * * * * * * * * //

dimensions      [0 1 -1 0 0 0 0];


internalField   nonuniform List<vector> 
14268
(
(2.66126 0.072704 0)
(2.67011 0.096361 0)
(2.60086 0.0849686 0)
(2.46385 0.0344056 0)
(2.35943 0.00836561 0)
(2.29665 0.0548544 0)
(2.23502 0.0954579 0)
(2.09741 0.0809636 0)
(2.06939 0.0372151 0)
(2.1455 0.0208302 0)
(2.3135 0.0424332 0)
(2.53124 0.0116724 0)
(2.73368 0.0455136 0)
(2.89379 0.0904056 0)
(3.0711 0.148386 0)
(3.27916 0.156866 0)
(3.54583 0.152086 0)
(3.78558 0.106902 0)
(3.80224 0.19692 0)
(3.75719 0.194245 0)
(3.63809 0.184469 0)
(3.43857 0.17419 0)
(3.13681 0.154157 0)
(2.90914 0.125978 0)
(3.17355 0.159773 0)
(3.63793 0.187307 0)
(4.18092 0.239891 0)
(4.80625 0.372665 0)
(4.67488 0.351124 0)
(4.17174 0.210615 0)
(3.45287 0.118304 0)
(3.16172 0.11322 0)
(3.1333 0.0590003 0)
(3.19103 0.0289522 0)
(3.35181 0.0913851 0)
(3.61691 0.128218 0)
(3.9308 0.184661 0)
(4.17247 0.198087 0)
(4.34615 0.200448 0)
(4.43543 0.184265 0)
(4.43378 0.162383 0)
(4.40514 0.127071 0)
(4.35861 0.0847973 0)
(4.27346 0.074889 0)
(4.29424 0.142278 0)
(4.36624 0.196744 0)
(4.41537 0.274343 0)
(4.50464 0.324583 0)
(4.67875 0.379887 0)
(4.95626 0.417664 0)
(5.317 0.383303 0)
(5.56119 0.307264 0)
(5.66939 0.295759 0)
(5.67704 0.297437 0)
(5.61618 0.289084 0)
(5.38546 0.310699 0)
(5.24917 0.336885 0)
(5.23364 0.293971 0)
(5.36343 0.292277 0)
(5.72411 0.298464 0)
(6.33035 0.315361 0)
(6.7805 0.322674 0)
(6.84451 0.303368 0)
(6.90712 0.331138 0)
(7.02465 0.510934 0)
(6.83602 0.330726 0)
(6.54319 0.474928 0)
(6.48163 0.562891 0)
(6.1589 0.571611 0)
(4.91479 0.474134 0)
(2.1647 0.121882 0)
(1.55422 0.0513972 0)
(1.36372 0.0721421 0)
(1.18891 0.0826376 0)
(0.910113 0.0717249 0)
(0.705745 0.0457704 0)
(0.694402 0.0266919 0)
(0.7673 0.017449 0)
(0.915918 0.0247233 0)
(1.0926 0.054529 0)
(1.09434 0.0724136 0)
(1.01519 0.0684044 0)
(0.815857 0.0445473 0)
(0.636696 0.0177694 0)
(0.536768 -0.0112282 0)
(0.500304 -0.0243055 0)
(0.539774 -0.0490757 0)
(0.629675 -0.0533791 0)
(0.70538 -0.0467323 0)
(0.773601 -0.0415707 0)
(0.870925 -0.0401043 0)
(0.995488 0.00671166 0)
(0.951482 0.0274937 0)
(0.739875 0.0142239 0)
(0.531528 -0.000487227 0)
(0.486807 0.00339306 0)
(0.549598 -0.0132011 0)
(0.723973 0.00754409 0)
(0.735643 0.0301691 0)
(0.634317 0.0493656 0)
(0.28954 0.0313498 0)
(0.00338416 -0.0114734 0)
(-0.106925 -0.0209306 0)
(-0.158666 -0.0346216 0)
(2.463 0.418523 0)
(2.46663 0.408473 0)
(2.41824 0.413933 0)
(2.33441 0.444415 0)
(2.26098 0.449517 0)
(2.22141 0.392409 0)
(2.18964 0.344208 0)
(2.12937 0.336757 0)
(2.14177 0.366604 0)
(2.20492 0.385861 0)
(2.31828 0.381833 0)
(2.47173 0.442799 0)
(2.66902 0.458433 0)
(2.87578 0.459019 0)
(3.08126 0.437416 0)
(3.31105 0.475743 0)
(3.5605 0.547581 0)
(3.72467 0.623261 0)
(3.76923 0.559667 0)
(3.7134 0.559029 0)
(3.55833 0.542774 0)
(3.29971 0.509746 0)
(3.10103 0.475915 0)
(3.09203 0.410404 0)
(3.20557 0.370839 0)
(3.45423 0.412448 0)
(3.78258 0.443432 0)
(4.02441 0.476105 0)
(4.08641 0.530531 0)
(3.94845 0.631367 0)
(3.58735 0.626687 0)
(3.22203 0.530582 0)
(3.10728 0.54903 0)
(3.17102 0.586442 0)
(3.38221 0.551779 0)
(3.76514 0.58051 0)
(4.18092 0.598166 0)
(4.2972 0.626714 0)
(4.33516 0.658411 0)
(4.34454 0.689345 0)
(4.33366 0.712085 0)
(4.30743 0.726738 0)
(4.26455 0.751498 0)
(4.21184 0.743305 0)
(4.21746 0.673427 0)
(4.2324 0.630598 0)
(4.23465 0.577039 0)
(4.27585 0.536945 0)
(4.42741 0.508931 0)
(4.67709 0.525694 0)
(4.97338 0.615008 0)
(5.19611 0.751572 0)
(5.32002 0.794733 0)
(5.35674 0.798187 0)
(5.35605 0.775254 0)
(5.3579 0.703808 0)
(5.31095 0.677138 0)
(5.29621 0.694491 0)
(5.38899 0.72367 0)
(5.65358 0.759708 0)
(6.07258 0.8403 0)
(6.32609 0.932746 0)
(6.37546 0.963526 0)
(6.37483 0.926836 0)
(6.31029 0.845285 0)
(6.0607 0.962575 0)
(6.03364 0.777264 0)
(6.09381 0.70249 0)
(5.88771 0.69416 0)
(4.72113 0.633711 0)
(2.01639 0.413524 0)
(1.41326 0.270902 0)
(1.2361 0.195099 0)
(1.07058 0.157632 0)
(0.84893 0.121792 0)
(0.704857 0.103509 0)
(0.701817 0.108562 0)
(0.765685 0.121531 0)
(0.892753 0.136396 0)
(1.06609 0.149648 0)
(1.094 0.147746 0)
(1.04398 0.14541 0)
(0.918828 0.140223 0)
(0.764544 0.129417 0)
(0.629188 0.130712 0)
(0.549654 0.127303 0)
(0.568834 0.149492 0)
(0.637365 0.165865 0)
(0.710163 0.176088 0)
(0.778388 0.183033 0)
(0.864098 0.196092 0)
(0.97641 0.181421 0)
(0.941811 0.166526 0)
(0.797613 0.151408 0)
(0.569473 0.116582 0)
(0.478231 0.0916436 0)
(0.525883 0.106217 0)
(0.653507 0.116951 0)
(0.626024 0.109181 0)
(0.515679 0.0813684 0)
(0.252034 0.0473806 0)
(0.0574185 0.0313595 0)
(0.0137235 0.0176905 0)
(-0.00200037 0.0127856 0)
(2.57394 0.0824933 0)
(2.57371 0.107301 0)
(2.52591 0.105458 0)
(2.42982 0.0622261 0)
(2.34105 0.0316978 0)
(2.30321 0.0742849 0)
(2.27223 0.122294 0)
(2.20952 0.113617 0)
(2.16811 0.0664168 0)
(2.20984 0.0468511 0)
(2.32511 0.0699654 0)
(2.50354 0.0337427 0)
(2.69694 0.0385019 0)
(2.87552 0.0665786 0)
(3.05386 0.120566 0)
(3.25802 0.118374 0)
(3.48409 0.0893681 0)
(3.65533 0.117262 0)
(3.73447 0.201993 0)
(3.69623 0.20632 0)
(3.58964 0.204857 0)
(3.37264 0.207119 0)
(3.14648 0.196762 0)
(3.13973 0.209707 0)
(3.256 0.214137 0)
(3.50333 0.208867 0)
(3.84934 0.218972 0)
(4.05985 0.269982 0)
(4.04226 0.327985 0)
(4.00803 0.264373 0)
(3.72498 0.194889 0)
(3.05391 0.160903 0)
(3.07958 0.128999 0)
(3.27074 0.101663 0)
(3.40018 0.113632 0)
(3.71353 0.115063 0)
(4.11755 0.197164 0)
(4.29262 0.229894 0)
(4.3219 0.206201 0)
(4.38261 0.189941 0)
(4.47418 0.178433 0)
(4.46967 0.163131 0)
(4.42924 0.133751 0)
(4.34727 0.120893 0)
(4.30329 0.175529 0)
(4.30424 0.219583 0)
(4.30648 0.279108 0)
(4.34268 0.345299 0)
(4.56906 0.39279 0)
(4.9268 0.418441 0)
(5.37247 0.410746 0)
(5.72498 0.335502 0)
(5.73842 0.307171 0)
(5.68362 0.314229 0)
(5.54007 0.339934 0)
(5.3709 0.36896 0)
(5.31705 0.382396 0)
(5.33905 0.351096 0)
(5.44109 0.333769 0)
(5.68293 0.319886 0)
(6.09323 0.321172 0)
(6.50526 0.336204 0)
(6.65243 0.339334 0)
(6.67422 0.357119 0)
(6.66149 0.398834 0)
(6.45175 0.405124 0)
(6.05088 0.458306 0)
(6.02445 0.549423 0)
(5.74902 0.616045 0)
(4.13678 0.558995 0)
(1.67944 0.238732 0)
(1.35121 0.0936937 0)
(1.22956 0.086677 0)
(1.10812 0.100456 0)
(0.905976 0.0919646 0)
(0.740614 0.0595069 0)
(0.722584 0.0314173 0)
(0.783174 0.0218822 0)
(0.918563 0.0261796 0)
(1.07081 0.0531681 0)
(1.06629 0.0762432 0)
(0.998005 0.0808639 0)
(0.814612 0.0630355 0)
(0.632831 0.0361663 0)
(0.536123 0.00542602 0)
(0.505692 -0.0159313 0)
(0.540743 -0.0410377 0)
(0.622852 -0.044611 0)
(0.698213 -0.0387274 0)
(0.775109 -0.0328332 0)
(0.879605 -0.0303481 0)
(0.998759 0.0145256 0)
(0.965636 0.0481587 0)
(0.788466 0.0452551 0)
(0.528696 0.019738 0)
(0.496548 0.010165 0)
(0.561199 -0.00872974 0)
(0.720859 0.0112906 0)
(0.726836 0.0409755 0)
(0.570011 0.0619474 0)
(0.234263 0.0444215 0)
(0.00818736 0.00279853 0)
(-0.0521081 -0.0121673 0)
(-0.0338339 -0.0229305 0)
(2.49893 0.402523 0)
(2.53297 0.412016 0)
(2.50227 0.424668 0)
(2.3945 0.449815 0)
(2.24135 0.44411 0)
(2.18781 0.384864 0)
(2.17991 0.331045 0)
(2.15236 0.332045 0)
(2.15573 0.358046 0)
(2.21726 0.364984 0)
(2.34186 0.343399 0)
(2.4959 0.406029 0)
(2.68181 0.450175 0)
(2.88203 0.475008 0)
(3.08907 0.457525 0)
(3.31372 0.495574 0)
(3.55388 0.556023 0)
(3.60933 0.545199 0)
(3.56345 0.515326 0)
(3.47278 0.522549 0)
(3.4051 0.531202 0)
(3.27821 0.503045 0)
(3.10177 0.472803 0)
(3.11062 0.410914 0)
(3.2381 0.3845 0)
(3.4907 0.428405 0)
(3.85704 0.481183 0)
(4.05999 0.509169 0)
(4.02807 0.485366 0)
(3.90485 0.586698 0)
(3.62471 0.629919 0)
(3.29732 0.498031 0)
(3.28903 0.446929 0)
(3.24205 0.440262 0)
(3.31374 0.450257 0)
(3.61901 0.507397 0)
(4.04286 0.524919 0)
(4.20654 0.558516 0)
(4.22391 0.605755 0)
(4.21466 0.64386 0)
(4.2236 0.687206 0)
(4.27229 0.722382 0)
(4.26013 0.757352 0)
(4.23122 0.754583 0)
(4.22161 0.679752 0)
(4.24089 0.631062 0)
(4.30369 0.565021 0)
(4.46095 0.462149 0)
(4.68739 0.42426 0)
(4.96451 0.459309 0)
(5.12814 0.547778 0)
(5.24793 0.69785 0)
(5.45465 0.797659 0)
(5.51617 0.806328 0)
(5.46797 0.795152 0)
(5.37699 0.739051 0)
(5.31856 0.711697 0)
(5.29226 0.70582 0)
(5.30514 0.704217 0)
(5.4994 0.729768 0)
(6.45157 0.870014 0)
(6.62058 0.950982 0)
(6.52055 0.977721 0)
(6.4565 0.961997 0)
(6.3952 0.922689 0)
(6.27777 0.851566 0)
(5.90021 0.727219 0)
(5.72842 0.649849 0)
(5.42651 0.718952 0)
(3.52671 0.676757 0)
(1.61197 0.46897 0)
(1.37999 0.273482 0)
(1.21852 0.190976 0)
(1.10467 0.164327 0)
(0.930664 0.137968 0)
(0.735765 0.108607 0)
(0.711885 0.101685 0)
(0.769757 0.101034 0)
(0.896075 0.108823 0)
(1.05255 0.130599 0)
(1.06647 0.142426 0)
(1.0075 0.15076 0)
(0.868788 0.145832 0)
(0.708455 0.130117 0)
(0.620898 0.127278 0)
(0.556097 0.122737 0)
(0.564899 0.130717 0)
(0.622952 0.139968 0)
(0.688255 0.15177 0)
(0.751997 0.157024 0)
(0.83944 0.166053 0)
(0.962849 0.166349 0)
(0.936597 0.160257 0)
(0.7681 0.153098 0)
(0.535632 0.117402 0)
(0.509875 0.0910402 0)
(0.553069 0.0867668 0)
(0.670559 0.0998081 0)
(0.637788 0.110293 0)
(0.493921 0.0945199 0)
(0.203568 0.0669989 0)
(0.0240203 0.0374713 0)
(-0.0191768 0.0152118 0)
(-0.0367412 -0.000335214 0)
(2.57713 0.0952587 0)
(2.55951 0.0993481 0)
(2.49618 0.0868308 0)
(2.40302 0.0524451 0)
(2.32955 0.0380216 0)
(2.23327 0.0756031 0)
(2.21433 0.13555 0)
(2.21107 0.127067 0)
(2.19328 0.076282 0)
(2.20665 0.0530225 0)
(2.29712 0.0868561 0)
(2.48661 0.0436522 0)
(2.69603 0.0458966 0)
(2.89487 0.0537545 0)
(3.09048 0.103493 0)
(3.30743 0.113095 0)
(3.5749 0.110231 0)
(3.73719 0.179877 0)
(3.71348 0.214937 0)
(3.56653 0.221295 0)
(3.33928 0.19868 0)
(3.1892 0.226291 0)
(3.08336 0.2112 0)
(3.08504 0.199777 0)
(3.19457 0.19591 0)
(3.47886 0.192702 0)
(3.85526 0.212093 0)
(4.15724 0.30564 0)
(4.15546 0.391288 0)
(4.06588 0.292543 0)
(3.79463 0.234185 0)
(3.42448 0.261709 0)
(3.28808 0.193861 0)
(3.28205 0.19956 0)
(3.38971 0.171854 0)
(3.64702 0.134884 0)
(4.08393 0.231423 0)
(4.29662 0.280315 0)
(4.31269 0.240647 0)
(4.30335 0.195518 0)
(4.28908 0.161387 0)
(4.29092 0.137185 0)
(4.29455 0.111382 0)
(4.27659 0.110645 0)
(4.25209 0.165677 0)
(4.27142 0.21649 0)
(4.35548 0.29522 0)
(4.49901 0.368831 0)
(4.71498 0.40464 0)
(4.99364 0.385167 0)
(5.16586 0.325683 0)
(5.22913 0.274763 0)
(5.26965 0.269831 0)
(5.34486 0.307887 0)
(5.37309 0.333382 0)
(5.35552 0.369001 0)
(5.32995 0.38873 0)
(5.25045 0.347841 0)
(5.1418 0.305744 0)
(5.83032 0.287434 0)
(7.77962 0.414328 0)
(8.89201 0.580178 0)
(8.47721 0.546204 0)
(7.26186 0.422952 0)
(6.74148 0.445957 0)
(6.46813 0.556133 0)
(6.1657 0.527453 0)
(5.75868 0.547362 0)
(5.19746 0.682309 0)
(2.93332 0.626799 0)
(1.59141 0.347967 0)
(1.42009 0.133111 0)
(1.23438 0.107407 0)
(1.10686 0.121097 0)
(0.925427 0.113442 0)
(0.734161 0.0731727 0)
(0.718573 0.0362063 0)
(0.779657 0.0266421 0)
(0.907599 0.028862 0)
(1.04992 0.0547865 0)
(1.05879 0.0820793 0)
(1.00161 0.0923078 0)
(0.860022 0.0885206 0)
(0.697075 0.0604215 0)
(0.596295 0.0261374 0)
(0.535066 -0.00570661 0)
(0.555399 -0.0287434 0)
(0.623804 -0.0318605 0)
(0.694293 -0.0284196 0)
(0.758194 -0.0241377 0)
(0.845567 -0.0209155 0)
(0.97176 0.0203708 0)
(0.956916 0.0719706 0)
(0.792019 0.0805332 0)
(0.585161 0.0469533 0)
(0.497285 0.012411 0)
(0.546481 -0.00143521 0)
(0.687904 0.0160349 0)
(0.68193 0.0526631 0)
(0.526142 0.0817409 0)
(0.204271 0.0652574 0)
(0.0275925 0.0189759 0)
(0.0456014 0.00133693 0)
(-0.0469996 -0.025463 0)
(2.51596 0.378403 0)
(2.55126 0.420931 0)
(2.5119 0.438066 0)
(2.40724 0.457745 0)
(2.31433 0.438542 0)
(2.23047 0.374782 0)
(2.18084 0.307278 0)
(2.11874 0.313304 0)
(2.00708 0.32924 0)
(2.01196 0.319441 0)
(2.18999 0.304611 0)
(2.46245 0.402597 0)
(2.71271 0.441235 0)
(2.90582 0.469368 0)
(3.11116 0.451138 0)
(3.30806 0.433154 0)
(3.53701 0.518688 0)
(3.65964 0.521126 0)
(3.65021 0.535065 0)
(3.54306 0.523975 0)
(3.24734 0.521297 0)
(3.05412 0.465965 0)
(2.94718 0.444306 0)
(2.94673 0.377144 0)
(3.12532 0.308431 0)
(3.4322 0.316231 0)
(3.78758 0.349622 0)
(4.04118 0.42377 0)
(4.02541 0.468154 0)
(3.91938 0.641648 0)
(3.7763 0.741131 0)
(3.48363 0.5693 0)
(3.23704 0.465232 0)
(3.2264 0.414568 0)
(3.3106 0.425891 0)
(3.75988 0.548685 0)
(4.87691 0.657554 0)
(4.48415 0.581492 0)
(4.28193 0.625752 0)
(4.29389 0.670408 0)
(4.31924 0.702042 0)
(4.35164 0.731428 0)
(4.3717 0.765123 0)
(4.35449 0.758342 0)
(4.26128 0.676165 0)
(4.25394 0.6077 0)
(4.30362 0.554729 0)
(4.42204 0.495398 0)
(4.64615 0.476224 0)
(4.99641 0.544719 0)
(5.22525 0.641864 0)
(5.2601 0.68282 0)
(5.23306 0.723171 0)
(5.2007 0.733007 0)
(5.18623 0.742738 0)
(5.20291 0.693016 0)
(5.01404 0.650261 0)
(4.41483 0.583256 0)
(4.59561 0.595644 0)
(5.70137 0.612621 0)
(6.8696 0.724201 0)
(7.91038 0.970835 0)
(7.71202 1.07542 0)
(6.92983 1.02106 0)
(6.54389 0.909678 0)
(6.28088 0.845278 0)
(6.00562 0.775606 0)
(5.66086 0.673127 0)
(5.12017 0.788317 0)
(2.72187 0.69455 0)
(1.537 0.475345 0)
(1.36711 0.266043 0)
(1.19137 0.187068 0)
(1.08042 0.164189 0)
(0.908329 0.145988 0)
(0.730821 0.113045 0)
(0.716241 0.0937006 0)
(0.774762 0.0826975 0)
(0.900928 0.0857323 0)
(1.04271 0.114323 0)
(1.04645 0.137095 0)
(1.0019 0.150019 0)
(0.879398 0.14672 0)
(0.73716 0.132258 0)
(0.635187 0.124422 0)
(0.555654 0.118827 0)
(0.563774 0.1138 0)
(0.621183 0.116401 0)
(0.685669 0.128872 0)
(0.756975 0.132244 0)
(0.838531 0.131394 0)
(0.914788 0.142963 0)
(0.917094 0.152933 0)
(0.799385 0.157231 0)
(0.614242 0.12388 0)
(0.49938 0.0886383 0)
(0.546837 0.0659929 0)
(0.666599 0.0860815 0)
(0.644478 0.110815 0)
(0.507585 0.112061 0)
(0.199617 0.0819092 0)
(0.0233711 0.0381604 0)
(0.114405 0.0304641 0)
(-0.0316134 -0.00279688 0)
(2.483 0.082496 0)
(2.54377 0.105051 0)
(2.51731 0.117103 0)
(2.44897 0.0984218 0)
(2.3533 0.0857094 0)
(2.27372 0.109494 0)
(2.10954 0.154252 0)
(1.94587 0.125602 0)
(1.82729 0.067135 0)
(1.8893 0.0573332 0)
(2.20858 0.0970228 0)
(2.46545 0.0504165 0)
(2.61587 0.0506386 0)
(2.79238 0.0755077 0)
(2.94618 0.125657 0)
(3.20578 0.177449 0)
(3.6194 0.130145 0)
(3.72858 0.195435 0)
(3.70315 0.228691 0)
(3.62361 0.268616 0)
(3.33979 0.238827 0)
(2.89857 0.242128 0)
(2.79334 0.211089 0)
(2.90852 0.170207 0)
(3.13147 0.174861 0)
(3.42176 0.200662 0)
(3.77686 0.21853 0)
(3.98974 0.293109 0)
(3.95496 0.364521 0)
(3.91875 0.31421 0)
(3.82937 0.260208 0)
(3.46709 0.199034 0)
(3.22465 0.199031 0)
(3.21635 0.208912 0)
(3.32815 0.194195 0)
(3.16789 0.0901185 0)
(3.20237 0.0794502 0)
(4.61232 0.366385 0)
(4.46989 0.222553 0)
(4.27916 0.167706 0)
(4.30341 0.154447 0)
(4.31142 0.140445 0)
(4.29391 0.124352 0)
(4.19453 0.122903 0)
(4.11007 0.169759 0)
(4.13611 0.223682 0)
(4.19352 0.275291 0)
(4.29779 0.329665 0)
(4.53778 0.364737 0)
(4.86536 0.366901 0)
(5.20064 0.340545 0)
(5.32698 0.352713 0)
(5.36476 0.326014 0)
(5.3681 0.325106 0)
(5.27037 0.366817 0)
(4.5276 0.345043 0)
(4.28424 0.379734 0)
(4.5771 0.388261 0)
(5.64849 0.390942 0)
(5.61142 0.266727 0)
(5.64991 0.243759 0)
(6.79273 0.441072 0)
(7.37633 0.58494 0)
(6.87375 0.503055 0)
(6.48025 0.497522 0)
(6.19966 0.527117 0)
(5.87849 0.520737 0)
(5.52275 0.59139 0)
(5.03905 0.797765 0)
(2.65991 0.775028 0)
(1.5306 0.433425 0)
(1.36953 0.165779 0)
(1.18596 0.126637 0)
(1.062 0.135576 0)
(0.887363 0.130544 0)
(0.728546 0.0848156 0)
(0.719299 0.0409193 0)
(0.778852 0.0280587 0)
(0.903847 0.026984 0)
(1.04326 0.055959 0)
(1.04397 0.0885913 0)
(1.00207 0.105285 0)
(0.900808 0.115142 0)
(0.754277 0.087007 0)
(0.624919 0.0472008 0)
(0.550645 0.00551267 0)
(0.567077 -0.0169272 0)
(0.626978 -0.0191903 0)
(0.705758 -0.0150294 0)
(0.791976 -0.00859002 0)
(0.875258 -0.0021632 0)
(0.931457 0.0248176 0)
(0.912289 0.0835882 0)
(0.823716 0.109948 0)
(0.670011 0.0804077 0)
(0.53021 0.0214944 0)
(0.561904 -0.00124078 0)
(0.678051 0.015055 0)
(0.659254 0.0644767 0)
(0.518753 0.0978544 0)
(0.201983 0.0889214 0)
(0.0933521 0.0329065 0)
(0.163846 0.0164354 0)
(-0.017501 -0.0191515 0)
(2.50795 0.377032 0)
(2.53749 0.409056 0)
(2.5076 0.42807 0)
(2.42386 0.438278 0)
(2.30749 0.419245 0)
(2.23826 0.371048 0)
(2.13173 0.32491 0)
(1.82462 0.295965 0)
(1.83141 0.285405 0)
(2.18458 0.261712 0)
(2.46876 0.220859 0)
(2.51336 0.239231 0)
(2.56501 0.270463 0)
(2.68109 0.268389 0)
(2.71964 0.232349 0)
(2.68384 0.22959 0)
(2.92561 0.380321 0)
(3.52293 0.475574 0)
(3.62608 0.531248 0)
(3.57461 0.529057 0)
(3.31244 0.52845 0)
(2.82471 0.446621 0)
(2.81968 0.391179 0)
(2.91983 0.377769 0)
(3.12029 0.333501 0)
(3.41279 0.338719 0)
(3.92199 0.404782 0)
(4.06633 0.470777 0)
(4.03502 0.469573 0)
(3.95792 0.525517 0)
(3.77186 0.592472 0)
(3.38508 0.60273 0)
(3.18467 0.447756 0)
(3.27822 0.380549 0)
(3.25815 0.273304 0)
(2.94869 0.122133 0)
(2.46234 0.114607 0)
(2.64053 0.241148 0)
(4.4966 0.652153 0)
(4.98174 0.749591 0)
(4.78189 0.746826 0)
(4.52879 0.745193 0)
(4.23544 0.741827 0)
(4.02877 0.715195 0)
(3.95819 0.633424 0)
(3.90346 0.540875 0)
(3.83198 0.468375 0)
(3.91716 0.393573 0)
(4.46277 0.393179 0)
(5.13298 0.410055 0)
(5.2618 0.597091 0)
(5.25417 0.669957 0)
(5.25047 0.728538 0)
(5.26108 0.752668 0)
(5.3127 0.718325 0)
(5.25749 0.66153 0)
(5.33559 0.625797 0)
(5.91034 0.591891 0)
(5.99798 0.536355 0)
(5.41633 0.398377 0)
(4.96711 0.319267 0)
(5.85003 0.580522 0)
(7.02366 0.933933 0)
(6.60953 0.956202 0)
(6.25039 0.858733 0)
(5.97983 0.823584 0)
(5.64612 0.73271 0)
(5.28505 0.654318 0)
(4.84786 0.849841 0)
(2.9527 0.878672 0)
(1.54652 0.512498 0)
(1.31641 0.262598 0)
(1.13603 0.185339 0)
(1.0196 0.16877 0)
(0.868618 0.154734 0)
(0.728005 0.116456 0)
(0.717957 0.0853667 0)
(0.775748 0.0674043 0)
(0.899432 0.0668993 0)
(1.03544 0.100935 0)
(1.03261 0.131843 0)
(0.988118 0.148768 0)
(0.892896 0.147798 0)
(0.759691 0.135103 0)
(0.638972 0.123521 0)
(0.560205 0.114773 0)
(0.569582 0.0985317 0)
(0.623475 0.0951899 0)
(0.688552 0.104903 0)
(0.744145 0.106049 0)
(0.835159 0.107054 0)
(0.921211 0.130839 0)
(0.903817 0.140698 0)
(0.842455 0.159316 0)
(0.71296 0.133889 0)
(0.542911 0.0932697 0)
(0.564129 0.0560859 0)
(0.65828 0.0733512 0)
(0.638524 0.107782 0)
(0.504961 0.124694 0)
(0.219914 0.102551 0)
(0.200161 0.0581875 0)
(0.191535 0.0409818 0)
(-0.0115309 0.00109652 0)
(2.54522 0.087752 0)
(2.55557 0.113959 0)
(2.51919 0.121036 0)
(2.43821 0.122944 0)
(2.33754 0.109121 0)
(2.29828 0.130345 0)
(2.28918 0.144769 0)
(2.0639 0.158408 0)
(2.24064 0.136506 0)
(2.45094 0.119053 0)
(2.5026 0.133663 0)
(2.53146 0.172913 0)
(2.64081 0.175476 0)
(2.80883 0.205337 0)
(2.81359 0.184972 0)
(2.71733 0.0937424 0)
(2.63159 0.0564744 0)
(3.06382 0.127533 0)
(3.47969 0.198067 0)
(3.4514 0.294622 0)
(3.26121 0.312812 0)
(2.83847 0.244885 0)
(2.80819 0.24077 0)
(2.87415 0.157977 0)
(2.98003 0.116847 0)
(3.56277 0.16634 0)
(4.44186 0.273043 0)
(4.11002 0.29451 0)
(4.07594 0.428864 0)
(4.04438 0.464854 0)
(3.85896 0.477249 0)
(3.43043 0.308394 0)
(3.33814 0.244735 0)
(3.48779 0.233782 0)
(3.36488 0.260525 0)
(3.03944 0.253721 0)
(2.66233 0.118189 0)
(2.45248 0.0318432 0)
(3.33635 0.0992593 0)
(5.36527 0.281152 0)
(5.32831 0.291368 0)
(4.95093 0.237384 0)
(4.40069 0.175787 0)
(4.02263 0.139953 0)
(3.73192 0.157596 0)
(3.47741 0.199917 0)
(3.51333 0.267826 0)
(4.45893 0.40585 0)
(4.9995 0.430991 0)
(5.30915 0.481553 0)
(5.51966 0.333804 0)
(5.47099 0.354156 0)
(5.29763 0.32044 0)
(5.16027 0.318132 0)
(5.18512 0.442306 0)
(5.50723 0.478337 0)
(6.10349 0.552782 0)
(6.35327 0.536111 0)
(6.18569 0.480282 0)
(5.46214 0.335856 0)
(4.81597 0.194706 0)
(5.33783 0.314389 0)
(6.70895 0.550775 0)
(6.43686 0.568248 0)
(6.12428 0.544749 0)
(5.83585 0.574384 0)
(5.52004 0.543746 0)
(4.98417 0.572275 0)
(4.56079 0.877047 0)
(3.40902 0.928307 0)
(1.53166 0.517754 0)
(1.28715 0.187001 0)
(1.12692 0.142854 0)
(1.01337 0.14811 0)
(0.866927 0.141811 0)
(0.725711 0.0929405 0)
(0.718517 0.0448676 0)
(0.777677 0.026864 0)
(0.900181 0.0220926 0)
(1.03447 0.0552353 0)
(1.03174 0.0945184 0)
(0.985966 0.11618 0)
(0.889239 0.129975 0)
(0.755443 0.106249 0)
(0.63658 0.0659114 0)
(0.564769 0.0168039 0)
(0.577627 -0.00680964 0)
(0.631557 -0.0100267 0)
(0.681919 -0.00494275 0)
(0.715316 -0.000455126 0)
(0.797334 0.0023039 0)
(0.918175 0.0326895 0)
(0.918595 0.0995542 0)
(0.884528 0.130659 0)
(0.743404 0.108166 0)
(0.552959 0.0357821 0)
(0.568166 0.00216885 0)
(0.654878 0.0182162 0)
(0.635513 0.0785855 0)
(0.504371 0.118741 0)
(0.262796 0.108191 0)
(0.275943 0.0513843 0)
(0.196581 0.0306688 0)
(-0.00740035 -0.0125652 0)
(2.53212 0.361752 0)
(2.53642 0.399968 0)
(2.4977 0.422669 0)
(2.41241 0.424487 0)
(2.32575 0.406309 0)
(2.28799 0.364955 0)
(2.31432 0.362512 0)
(2.40306 0.310706 0)
(2.41331 0.265079 0)
(2.37883 0.234392 0)
(2.42612 0.24656 0)
(2.52197 0.219353 0)
(2.65308 0.228253 0)
(2.83665 0.247514 0)
(2.86088 0.297133 0)
(2.7963 0.304925 0)
(2.67754 0.234248 0)
(2.73738 0.318804 0)
(3.31942 0.479081 0)
(3.36357 0.443546 0)
(3.18052 0.447534 0)
(2.84765 0.437061 0)
(2.81872 0.391555 0)
(2.69701 0.339494 0)
(2.73293 0.3131 0)
(3.70051 0.245998 0)
(4.39767 0.25488 0)
(4.03228 0.429446 0)
(4.00365 0.424087 0)
(3.94431 0.50453 0)
(3.78133 0.577029 0)
(3.40131 0.552201 0)
(3.45954 0.451493 0)
(3.51323 0.413408 0)
(3.34747 0.344625 0)
(3.01761 0.253626 0)
(2.71987 0.262186 0)
(2.63378 0.223572 0)
(2.66939 0.177309 0)
(4.96536 0.634493 0)
(5.28305 0.77389 0)
(5.05709 0.811603 0)
(4.51598 0.777272 0)
(3.7709 0.68556 0)
(3.37107 0.565847 0)
(3.47954 0.452893 0)
(4.35284 0.442936 0)
(5.12691 0.321433 0)
(5.23647 0.295713 0)
(5.22821 0.407976 0)
(5.19191 0.615742 0)
(5.20624 0.614058 0)
(5.12736 0.680859 0)
(5.11468 0.699857 0)
(5.169 0.67429 0)
(5.71424 0.68438 0)
(6.39985 0.687749 0)
(6.50444 0.653863 0)
(6.19436 0.599594 0)
(5.44277 0.444181 0)
(4.65147 0.277656 0)
(4.62027 0.341144 0)
(5.95498 0.721223 0)
(6.07591 0.855022 0)
(5.89275 0.795477 0)
(5.6313 0.763398 0)
(5.28403 0.700245 0)
(4.56925 0.612532 0)
(4.20135 0.880824 0)
(3.02997 0.970151 0)
(1.56631 0.581248 0)
(1.24376 0.266256 0)
(1.10313 0.185093 0)
(0.998809 0.169077 0)
(0.858005 0.160346 0)
(0.721875 0.119572 0)
(0.71681 0.0776516 0)
(0.775405 0.0544862 0)
(0.896372 0.0508272 0)
(1.02609 0.0897419 0)
(1.0214 0.128122 0)
(0.974835 0.148135 0)
(0.881066 0.15365 0)
(0.757237 0.139665 0)
(0.645405 0.124293 0)
(0.570339 0.111329 0)
(0.57797 0.0860056 0)
(0.625742 0.0792685 0)
(0.679552 0.0844006 0)
(0.729987 0.0785475 0)
(0.783442 0.0777434 0)
(0.875619 0.11155 0)
(0.926708 0.13615 0)
(0.899819 0.163322 0)
(0.75204 0.141357 0)
(0.539392 0.094717 0)
(0.548516 0.0451613 0)
(0.637117 0.062531 0)
(0.617586 0.108841 0)
(0.491508 0.137422 0)
(0.29948 0.113604 0)
(0.280446 0.0648701 0)
(0.194398 0.0498599 0)
(0.00518732 0.00482888 0)
(2.57243 0.098006 0)
(2.57272 0.129521 0)
(2.52165 0.146978 0)
(2.41815 0.154318 0)
(2.3299 0.135892 0)
(2.32197 0.146864 0)
(2.34233 0.1749 0)
(2.36649 0.198594 0)
(2.29708 0.181418 0)
(2.33634 0.155519 0)
(2.44349 0.129145 0)
(2.53767 0.150469 0)
(2.64787 0.161054 0)
(2.81784 0.181372 0)
(2.86493 0.160978 0)
(2.81753 0.154806 0)
(2.75763 0.116872 0)
(2.79731 0.0633198 0)
(3.37971 0.177729 0)
(3.4364 0.360415 0)
(3.22722 0.409334 0)
(2.94591 0.344528 0)
(2.7004 0.240196 0)
(2.00489 0.0952807 0)
(2.71873 0.120118 0)
(3.30176 0.257537 0)
(4.20619 0.423186 0)
(4.17411 0.341186 0)
(4.04586 0.41635 0)
(3.86453 0.421154 0)
(3.68434 0.463367 0)
(3.56719 0.397994 0)
(3.6622 0.289274 0)
(3.55393 0.243466 0)
(3.33611 0.273103 0)
(3.02244 0.233968 0)
(2.63712 0.167408 0)
(2.51954 0.180575 0)
(3.40762 0.0940185 0)
(5.16946 0.217741 0)
(5.18642 0.326505 0)
(4.94664 0.307153 0)
(4.18308 0.250512 0)
(3.28232 0.159125 0)
(3.26115 0.171207 0)
(4.02593 0.295453 0)
(4.87826 0.281825 0)
(5.07229 0.376697 0)
(5.16395 0.385714 0)
(5.16316 0.281521 0)
(5.02978 0.260104 0)
(4.98571 0.373258 0)
(5.0961 0.334762 0)
(5.30053 0.352266 0)
(5.61408 0.421025 0)
(6.12025 0.489323 0)
(6.61697 0.605797 0)
(6.53568 0.578303 0)
(6.14634 0.559274 0)
(5.45155 0.451491 0)
(4.71739 0.2448 0)
(4.26819 0.137148 0)
(5.12435 0.380799 0)
(5.74629 0.562425 0)
(5.66733 0.566959 0)
(5.4534 0.607578 0)
(5.04298 0.580684 0)
(4.19589 0.539149 0)
(3.74762 0.871869 0)
(2.71061 1.04846 0)
(1.38925 0.560955 0)
(1.2057 0.198929 0)
(1.0948 0.153111 0)
(0.988341 0.157915 0)
(0.849063 0.15375 0)
(0.719206 0.100563 0)
(0.717457 0.0472786 0)
(0.776433 0.023652 0)
(0.895827 0.0154782 0)
(1.0239 0.0529378 0)
(1.01929 0.099443 0)
(0.972638 0.124907 0)
(0.878205 0.140307 0)
(0.756207 0.121292 0)
(0.646553 0.0810731 0)
(0.576693 0.0275016 0)
(0.586232 0.00123919 0)
(0.630295 -0.00410569 0)
(0.691286 0.00461647 0)
(0.748663 0.0118128 0)
(0.808052 0.00651225 0)
(0.86514 0.0311341 0)
(0.939121 0.106414 0)
(0.910254 0.14901 0)
(0.747278 0.133814 0)
(0.537886 0.0491493 0)
(0.561354 0.00499071 0)
(0.651148 0.0186915 0)
(0.624309 0.0872275 0)
(0.488276 0.138502 0)
(0.319108 0.122064 0)
(0.281349 0.0600601 0)
(0.199301 0.0447211 0)
(0.0220702 -0.00458397 0)
(2.551 0.350384 0)
(2.54222 0.390838 0)
(2.48608 0.417659 0)
(2.35581 0.419768 0)
(2.21226 0.398569 0)
(2.26571 0.36412 0)
(2.3036 0.34338 0)
(2.27436 0.324933 0)
(2.28924 0.258456 0)
(2.36427 0.215374 0)
(2.45562 0.217269 0)
(2.5292 0.210269 0)
(2.64009 0.214842 0)
(2.80832 0.245531 0)
(2.84581 0.291365 0)
(2.7846 0.265679 0)
(2.70381 0.305235 0)
(2.756 0.377623 0)
(3.1844 0.420489 0)
(3.44581 0.47533 0)
(3.23907 0.487904 0)
(2.96056 0.465318 0)
(2.1038 0.343867 0)
(2.59187 0.325073 0)
(3.0866 0.0839151 0)
(2.674 -0.0861178 0)
(2.82568 0.100885 0)
(4.22686 0.481579 0)
(4.12362 0.452151 0)
(3.91535 0.463533 0)
(3.70363 0.479072 0)
(3.65315 0.466183 0)
(3.61352 0.431514 0)
(3.47894 0.419507 0)
(3.30367 0.355027 0)
(2.99505 0.291316 0)
(2.77757 0.278916 0)
(2.57131 0.26884 0)
(4.22377 0.300546 0)
(5.36173 0.543955 0)
(5.16585 0.721031 0)
(4.70139 0.761442 0)
(3.49077 0.687261 0)
(3.08365 0.590734 0)
(3.57153 0.507101 0)
(4.4893 0.36947 0)
(4.75938 0.412122 0)
(4.96363 0.43064 0)
(5.1756 0.460297 0)
(5.20535 0.520091 0)
(5.1295 0.541871 0)
(4.92309 0.570775 0)
(5.02905 0.63829 0)
(5.18752 0.666781 0)
(5.39751 0.664099 0)
(6.00305 0.616632 0)
(6.55903 0.629632 0)
(6.44124 0.660256 0)
(6.11522 0.654619 0)
(5.50879 0.542997 0)
(4.86889 0.363751 0)
(4.25999 0.267546 0)
(4.34215 0.469183 0)
(5.30377 0.708991 0)
(5.38491 0.710687 0)
(5.2042 0.709634 0)
(4.68627 0.647765 0)
(3.68901 0.577348 0)
(3.30445 0.857086 0)
(2.28377 1.011 0)
(1.21282 0.652863 0)
(1.17166 0.268716 0)
(1.08064 0.186095 0)
(0.97243 0.174817 0)
(0.837304 0.168886 0)
(0.717686 0.122767 0)
(0.716774 0.0712171 0)
(0.774751 0.0434402 0)
(0.892399 0.0366601 0)
(1.01566 0.0802547 0)
(1.00931 0.125615 0)
(0.962811 0.149174 0)
(0.870763 0.159473 0)
(0.755378 0.144174 0)
(0.652981 0.12717 0)
(0.581604 0.108547 0)
(0.588354 0.076404 0)
(0.629624 0.0661208 0)
(0.681217 0.069166 0)
(0.734175 0.0659903 0)
(0.808101 0.065737 0)
(0.837188 0.0915337 0)
(0.921631 0.129353 0)
(0.903081 0.167774 0)
(0.732067 0.15381 0)
(0.548785 0.0975204 0)
(0.579125 0.0350798 0)
(0.63915 0.0548365 0)
(0.615805 0.107431 0)
(0.482172 0.142463 0)
(0.323399 0.127911 0)
(0.28344 0.0690065 0)
(0.203838 0.0596479 0)
(0.0483241 0.0122441 0)
(2.56875 0.0988194 0)
(2.58576 0.146012 0)
(2.58197 0.168253 0)
(2.51811 0.158537 0)
(2.1826 0.099887 0)
(2.2572 0.13243 0)
(2.30999 0.184381 0)
(2.30043 0.188387 0)
(2.32439 0.175627 0)
(2.39 0.146133 0)
(2.46197 0.132995 0)
(2.53399 0.142279 0)
(2.6444 0.14528 0)
(2.80211 0.160777 0)
(2.81184 0.167967 0)
(2.75092 0.190153 0)
(2.62818 0.126741 0)
(3.00485 0.118204 0)
(3.86285 0.218822 0)
(3.61393 0.327968 0)
(3.16965 0.426205 0)
(2.45816 0.340314 0)
(1.57605 0.165331 0)
(3.5814 0.219727 0)
(3.16051 0.104575 0)
(2.56058 0.0145043 0)
(1.99179 -0.101334 0)
(3.52084 0.196273 0)
(4.15943 0.50735 0)
(3.98532 0.542413 0)
(3.7207 0.575199 0)
(3.63049 0.44145 0)
(3.59783 0.302563 0)
(3.50713 0.270779 0)
(3.31416 0.293414 0)
(3.01922 0.254798 0)
(3.0256 0.151493 0)
(3.77966 -0.0522645 0)
(4.27265 -0.0382394 0)
(5.32974 0.246262 0)
(5.20007 0.410439 0)
(4.58767 0.412229 0)
(3.19495 0.29452 0)
(3.13013 0.221093 0)
(3.85102 0.203221 0)
(4.39761 0.353296 0)
(4.67769 0.438403 0)
(4.98053 0.408885 0)
(5.21684 0.333583 0)
(5.24353 0.34986 0)
(5.18441 0.367068 0)
(4.96491 0.337543 0)
(4.9589 0.364686 0)
(5.15879 0.371602 0)
(5.34982 0.41137 0)
(5.98648 0.50491 0)
(6.46987 0.566867 0)
(6.40541 0.57856 0)
(6.13488 0.584213 0)
(5.57023 0.482288 0)
(4.95531 0.311953 0)
(4.38616 0.199548 0)
(3.93741 0.230668 0)
(4.89036 0.475084 0)
(5.12427 0.556394 0)
(4.92462 0.617217 0)
(4.24873 0.593715 0)
(2.98288 0.47775 0)
(2.791 0.797242 0)
(1.5611 0.958946 0)
(1.12825 0.583701 0)
(1.16767 0.219429 0)
(1.07696 0.166072 0)
(0.966813 0.168308 0)
(0.833126 0.163946 0)
(0.716849 0.106971 0)
(0.717332 0.0482825 0)
(0.775094 0.0192237 0)
(0.891026 0.00798117 0)
(1.01272 0.0497296 0)
(1.00637 0.103264 0)
(0.9598 0.132243 0)
(0.868233 0.149604 0)
(0.755158 0.134438 0)
(0.654664 0.093338 0)
(0.588189 0.0373873 0)
(0.596829 0.00776558 0)
(0.637969 0.00100112 0)
(0.691902 0.00922606 0)
(0.73961 0.012624 0)
(0.808938 0.012361 0)
(0.836573 0.0328337 0)
(0.909928 0.105226 0)
(0.898154 0.159234 0)
(0.729505 0.146889 0)
(0.57134 0.0634823 0)
(0.588677 0.00768558 0)
(0.640032 0.0202065 0)
(0.617897 0.0967732 0)
(0.475197 0.14752 0)
(0.321026 0.131307 0)
(0.280425 0.0647161 0)
(0.216446 0.0576687 0)
(0.0782093 0.00455466 0)
(2.53087 0.333091 0)
(2.59649 0.384622 0)
(2.63364 0.417314 0)
(2.60039 0.461445 0)
(2.06245 0.409137 0)
(2.28381 0.344308 0)
(2.27062 0.322882 0)
(2.26154 0.312349 0)
(2.30841 0.247897 0)
(2.38866 0.211874 0)
(2.45673 0.209603 0)