/*--------------------------------*- C++ -*----------------------------------*\
| =========                 |                                                 |
| \\      /  F ield         | OpenFOAM: The Open Source CFD Toolbox           |
|  \\    /   O peration     | Version:  v1912                                 |
|   \\  /    A nd           | Website:  www.openfoam.com                      |
|    \\/     M anipulation  |                                                 |
\*---------------------------------------------------------------------------*/
FoamFile
{
    version     2.0;
    format      ascii;
    class       surfaceScalarField;
    location    "100";
    object      alphaPhi0.water;
}
// * * * * * * * * * * * * * * * * * * * * * * * * * * * * * * * * * * * * * //

dimensions      [0 3 -1 0 0 0 0];
oriented        oriented;


internalField   nonuniform List<scalar> 
28285
(
0.000650456
-1.77521e-05
0.000668726
-1.82708e-05
0.000688706
-1.99799e-05
0.000710402
-2.16955e-05
0.000732922
-2.25196e-05
0.000755192
-2.22706e-05
0.000776026
-2.08336e-05
0.000794762
-1.87358e-05
0.000811401
-1.66398e-05
0.000826721
-1.53202e-05
0.000841642
-1.49202e-05
0.000857377
-1.57353e-05
0.000875495
-1.81183e-05
0.000896498
-2.10025e-05
0.000920279
-2.37807e-05
0.000943676
-2.33979e-05
0.000963091
-1.94145e-05
0.000975909
-1.28178e-05
0.000981871
-5.96191e-06
0.000980992
8.78264e-07
0.000975915
5.07724e-06
0.000969314
6.60128e-06
0.000963513
5.80092e-06
0.000960125
3.38827e-06
0.000958918
1.20687e-06
0.000959453
-5.35584e-07
0.000958045
1.40816e-06
0.000951949
6.09656e-06
0.000938515
1.34334e-05
0.00091791
2.06048e-05
0.000891547
2.63631e-05
0.000862739
2.88082e-05
0.000835647
2.70923e-05
0.000815467
2.01797e-05
0.000807464
8.00336e-06
0.000816488
-9.02425e-06
0.000840581
-2.40931e-05
0.000874909
-3.43275e-05
0.000908837
-3.3928e-05
0.00093427
-2.5433e-05
0.000951281
-1.70111e-05
0.000970503
-1.92224e-05
0.000944287
2.62165e-05
2.52582e-05
0.000919028
0.000650425
-3.55081e-05
0.000668696
-3.65421e-05
0.000688675
-3.99594e-05
0.000710369
-4.33896e-05
0.000732886
-4.50365e-05
0.000755154
-4.45384e-05
0.000775987
-4.16671e-05
0.000794723
-3.74717e-05
0.000811363
-3.32796e-05
0.000826683
-3.06403e-05
0.000841609
-2.98459e-05
0.000857344
-3.14702e-05
0.000875461
-3.62357e-05
0.000896463
-4.20044e-05
0.000920238
-4.75552e-05
0.000943632
-4.6792e-05
0.000963046
-3.88291e-05
0.000975866
-2.56376e-05
0.00098183
-1.19259e-05
0.000980953
1.75523e-06
0.000975877
1.01529e-05
0.000969277
1.32022e-05
0.000963475
1.16024e-05
0.000960085
6.77841e-06
0.000958877
2.41479e-06
0.000959411
-1.0694e-06
0.000958002
2.81696e-06
0.000951906
1.21929e-05
0.000938474
2.68656e-05
0.00091787
4.12082e-05
0.000891509
5.27241e-05
0.000862702
5.76153e-05
0.00083561
5.41846e-05
0.000815429
4.03608e-05
0.000807423
1.60087e-05
0.000816448
-1.80486e-05
0.00084054
-4.81854e-05
0.000874864
-6.86519e-05
0.00090879
-6.78537e-05
0.000934253
-5.08963e-05
0.000951239
-3.39964e-05
0.00097051
-3.84937e-05
0.000947017
4.97095e-05
4.97321e-05
0.000922543
0.000650403
-5.32636e-05
0.000668674
-5.48134e-05
0.000688654
-5.99393e-05
0.000710349
-6.50846e-05
0.000732867
-6.75544e-05
0.000755136
-6.68073e-05
0.00077597
-6.25008e-05
0.000794705
-5.62071e-05
0.000811344
-4.99182e-05
0.000826662
-4.59584e-05
0.000841585
-4.47688e-05
0.000857318
-4.72031e-05
0.000875434
-5.43515e-05
0.000896435
-6.30054e-05
0.00092021
-7.13306e-05
0.000943606
-7.01876e-05
0.000963021
-5.82449e-05
0.000975842
-3.8458e-05
0.000981806
-1.78904e-05
0.000980928
2.63316e-06
0.000975851
1.52302e-05
0.000969248
1.98048e-05
0.000963445
1.74056e-05
0.000960053
1.01705e-05
0.000958843
3.62532e-06
0.000959375
-1.6019e-06
0.000957966
4.22641e-06
0.00095187
1.82889e-05
0.000938438
4.02975e-05
0.000917834
6.18121e-05
0.000891469
7.90885e-05
0.00086266
8.64245e-05
0.000835567
8.12782e-05
0.000815385
6.05428e-05
0.00080738
2.40138e-05
0.000816406
-2.7075e-05
0.000840493
-7.22725e-05
0.000874808
-0.000102967
0.000908733
-0.000101778
0.000934209
-7.63727e-05
0.000951194
-5.09815e-05
0.000970468
-5.77678e-05
0.000946621
7.35568e-05
7.27113e-05
0.000923642
0.000650401
-7.10202e-05
0.000668672
-7.30852e-05
0.000688652
-7.99193e-05
0.000710347
-8.67791e-05
0.000732864
-9.00719e-05
0.000755134
-8.90769e-05
0.000775969
-8.33358e-05
0.000794704
-7.49426e-05
0.000811342
-6.65558e-05
0.000826658
-6.12749e-05
0.000841583
-5.96935e-05
0.000857316
-6.2936e-05
0.000875432
-7.24674e-05
0.000896433
-8.40062e-05
0.000920205
-9.51028e-05
0.000943601
-9.35837e-05
0.000963018
-7.76623e-05
0.00097584
-5.12792e-05
0.000981804
-2.38546e-05
0.000980925
3.51181e-06
0.000975849
2.03065e-05
0.000969247
2.6407e-05
0.000963442
2.32106e-05
0.000960047
1.35656e-05
0.000958835
4.83695e-06
0.000959367
-2.13367e-06
0.000957957
5.63641e-06
0.000951859
2.43869e-05
0.000938425
5.37313e-05
0.000917821
8.24167e-05
0.000891466
0.000105443
0.000862657
0.000115233
0.000835556
0.00010838
0.000815368
8.07301e-05
0.000807361
3.20211e-05
0.000816385
-3.6099e-05
0.000840474
-9.6361e-05
0.000874794
-0.000137287
0.000908717
-0.000135702
0.000934215
-0.000101871
0.000951171
-6.79373e-05
0.00097071
-7.73069e-05
0.000948911
9.53554e-05
9.55175e-05
0.000926105
0.000650414
-8.8784e-05
0.000668683
-9.13538e-05
0.00068866
-9.98967e-05
0.000710356
-0.000108475
0.000732868
-0.000112584
0.000755134
-0.000111343
0.000775972
-0.000104174
0.000794709
-9.368e-05
0.000811347
-8.31939e-05
0.000826664
-7.65916e-05
0.0008416
-7.46293e-05
0.000857327
-7.86638e-05
0.000875442
-9.05821e-05
0.000896443
-0.000105007
0.000920213
-0.000118873
0.000943599
-0.00011697
0.000963018
-9.70814e-05
0.000975844
-6.41047e-05
0.000981814
-2.98243e-05
0.000980937
4.38847e-06
0.000975862
2.53811e-05
0.000969262
3.30077e-05
0.000963458
2.90142e-05
0.000960064
1.696e-05
0.000958852
6.04841e-06
0.000959384
-2.66579e-06
0.000957975
7.04587e-06
0.000951877
3.04842e-05
0.000938443
6.71658e-05
0.000917836
0.000103023
0.000891482
0.000131797
0.000862674
0.000144041
0.00083557
0.000135483
0.00081538
0.000100921
0.000807368
4.00329e-05
0.000816389
-4.51199e-05
0.000840478
-0.00012045
0.000874803
-0.000171612
0.000908732
-0.000169631
0.00093423
-0.000127368
0.000951185
-8.48923e-05
0.000971022
-9.71443e-05
0.000949724
0.000116654
0.000117384
0.000927857
0.000650415
-0.000106543
0.000668682
-0.00010962
0.000688659
-0.000119874
0.000710358
-0.000130174
0.000732874
-0.0001351
0.000755144
-0.000133612
0.000775982
-0.000125012
0.000794719
-0.000112417
0.000811357
-9.98313e-05
0.000826672
-9.19067e-05
0.000841599
-8.95562e-05
0.000857324
-9.43896e-05
0.000875437
-0.000108695
0.000896438
-0.000126007
0.000920217
-0.000142652
0.000943609
-0.000140363
0.000963029
-0.000116501
0.000975854
-7.69289e-05
0.000981821
-3.57922e-05
0.000980945
5.26468e-06
0.000975871
3.04555e-05
0.000969268
3.96106e-05
0.000963464
3.48176e-05
0.000960073
2.03516e-05
0.000958867
7.25414e-06
0.000959401
-3.1994e-06
0.000957993
8.45326e-06
0.000951899
3.65788e-05
0.000938467
8.05981e-05
0.000917859
0.000123631
0.000891494
0.000158163
0.000862682
0.000172853
0.000835582
0.000162583
0.000815392
0.000121111
0.000807379
4.80462e-05
0.000816398
-5.41388e-05
0.000840486
-0.000144539
0.000874806
-0.000205931
0.000908731
-0.000203556
0.000934238
-0.000152876
0.000951205
-0.000101859
0.000971441
-0.00011738
0.000951781
0.000136314
0.000139211
0.000929955
0.000650412
-0.000124297
0.000668679
-0.000127888
0.000688657
-0.000139852
0.000710354
-0.000151871
0.000732875
-0.000157621
0.000755142
-0.000155879
0.000775981
-0.000145851
0.000794723
-0.000131159
0.000811356
-0.000116464
0.000826667
-0.000107218
0.0008416
-0.000104489
0.000857328
-0.000110118
0.000875441
-0.000126807
0.000896441
-0.000147007
0.000920212
-0.000166423
0.000943606
-0.000163757
0.000963026
-0.000135922
0.000975852
-8.97544e-05
0.000981823
-4.17632e-05
0.000980945
6.14281e-06
0.000975872
3.5528e-05
0.000969273
4.62098e-05
0.000963471
4.062e-05
0.000960078
2.37443e-05
0.000958868
8.46415e-06
0.000959404
-3.73571e-06
0.000957999
9.85861e-06
0.000951907
4.26703e-05
0.000938477
9.40287e-05
0.000917868
0.00014424
0.000891503
0.000184528
0.0008627
0.000201656
0.000835601
0.000189683
0.000815403
0.000141308
0.00080738
5.60694e-05
0.000816393
-6.31518e-05
0.000840491
-0.000168637
0.000874814
-0.000240254
0.000908731
-0.000237474
0.00093424
-0.000178384
0.000951223
-0.000118842
0.000971702
-0.000137859
0.000952936
0.000155079
0.000160096
0.000932051
0.000650406
-0.00014205
0.000668673
-0.000146155
0.000688651
-0.00015983
0.000710349
-0.000173569
0.000732872
-0.000180145
0.000755139
-0.000178146
0.000775979
-0.000166691
0.00079472
-0.000149901
0.000811352
-0.000133096
0.000826662
-0.000122528
0.000841596
-0.000119423
0.000857322
-0.000125844
0.000875434
-0.000144919
0.000896435
-0.000168008
0.000920207
-0.000190195
0.000943599
-0.000187148
0.000963015
-0.000155339
0.000975846
-0.000102585
0.000981816
-4.77333e-05
0.000980935
7.0244e-06
0.000975861
4.06011e-05
0.000969262
5.28093e-05
0.00096346
4.64224e-05
0.000960067
2.71373e-05
0.000958862
9.66902e-06
0.000959396
-4.27034e-06
0.000957992
1.1263e-05
0.000951901
4.87608e-05
0.000938471
0.00010746
0.000917861
0.000164849
0.000891495
0.000210894
0.00086269
0.00023046
0.00083559
0.000216783
0.00081539
0.000161508
0.000807365
6.4095e-05
0.000816377
-7.21642e-05
0.000840482
-0.000192742
0.000874819
-0.000274591
0.000908746
-0.000271401
0.000934253
-0.000203891
0.000951237
-0.000135825
0.000971955
-0.000158578
0.000954488
0.000172546
0.000180651
0.000933932
0.0006504
-0.000159798
0.000668666
-0.000164421
0.000688644
-0.000179808
0.000710343
-0.000195268
0.000732871
-0.000202673
0.000755149
-0.000200424
0.00077598
-0.000187523
0.000794708
-0.000168629
0.000811347
-0.000149734
0.000826666
-0.000137847
0.000841584
-0.00013434
0.00085731
-0.000141571
0.000875422
-0.000163031
0.000896422
-0.000189009
0.000920208
-0.000213981
0.000943613
-0.000210553
0.000963031
-0.000174757
0.000975855
-0.000115409
0.000981819
-5.36971e-05
0.000980931
7.91265e-06
0.000975855
4.56773e-05
0.00096925
5.94134e-05
0.000963448
5.2225e-05
0.000960058
3.05271e-05
0.000958854
1.08731e-05
0.000959392
-4.80792e-06
0.000957988
1.26666e-05
0.000951896
5.48525e-05
0.000938462
0.000120894
0.000917854
0.000185457
0.000891482
0.000237266
0.000862664
0.000259278
0.000835557
0.000243891
0.000815358
0.000181706
0.000807339
7.2114e-05
0.000816356
-8.11811e-05
0.000840462
-0.000216847
0.000874809
-0.000308939
0.000908752
-0.000305343
0.000934265
-0.000229404
0.000951242
-0.000152802
0.000972132
-0.000179467
0.00095562
0.000189058
0.000200305
0.000935967
0.000650399
-0.000177556
0.000668665
-0.000182687
0.00068864
-0.000199784
0.000710335
-0.000216963
0.000732856
-0.000225193
0.00075513
-0.000222698
0.000775962
-0.000208354
0.000794698
-0.000187364
0.000811347
-0.000166383
0.000826667
-0.000153167
0.00084158
-0.000149254
0.000857308
-0.000157299
0.000875419
-0.000181143
0.000896421
-0.00021001
0.000920201
-0.000237761
0.000943605
-0.000233956
0.000963024
-0.000194177
0.000975845
-0.00012823
0.000981809
-5.96609e-05
0.000980929
8.79272e-06
0.000975852
5.07535e-05
0.000969246
6.60198e-05
0.000963441
5.80298e-05
0.000960053
3.39157e-05
0.000958854
1.20723e-05
0.000959395
-5.34942e-06
0.000957995
1.4067e-05
0.000951901
6.09459e-05
0.000938466
0.000134329
0.000917856
0.000206067
0.000891482
0.000263641
0.000862664
0.000288096
0.000835548
0.000271006
0.000815342
0.000201912
0.000807318
8.01373e-05
0.000816334
-9.01969e-05
0.000840442
-0.000240955
0.000874788
-0.000343285
0.000908747
-0.000339302
0.000934255
-0.000254912
0.000951246
-0.000169794
0.000972297
-0.000200518
0.000956894
0.000204461
0.000219399
0.000937799
0.000650401
-0.00019533
0.00066867
-0.000200955
0.000688641
-0.000219755
0.000710331
-0.000238654
0.000732845
-0.000247706
0.00075512
-0.000244974
0.000775968
-0.000229202
0.000794712
-0.000206109
0.000811354
-0.000183025
0.000826658
-0.00016847
0.000841584
-0.00016418
0.000857309
-0.000173024
0.00087542
-0.000199253
0.000896423
-0.000231013
0.000920182
-0.00026152
0.000943577
-0.000257352
0.000963012
-0.000213612
0.000975839
-0.000141057
0.000981812
-6.56331e-05
0.000980927
9.67759e-06
0.00097585
5.58307e-05
0.000969245
7.26243e-05
0.000963443
6.38318e-05
0.000960051
3.73076e-05
0.000958848
1.32757e-05
0.000959392
-5.89379e-06
0.000957993
1.54665e-05
0.000951908
6.70306e-05
0.000938477
0.00014776
0.000917854
0.00022669
0.000891501
0.000289994
0.000862687
0.00031691
0.00083556
0.000298133
0.000815337
0.000222136
0.000807301
8.81728e-05
0.000816313
-9.9209e-05
0.000840425
-0.000265067
0.000874781
-0.00037764
0.000908748
-0.00037327
0.00093426
-0.000280424
0.000951259
-0.000186793
0.000972423
-0.000221682
0.000957975
0.000218908
0.000237595
0.00093978
0.000650393
-0.000213092
0.00066866
-0.000219222
0.000688634
-0.000239729
0.00071033
-0.000260349
0.000732854
-0.00027023
0.000755135
-0.000267255
0.000775986
-0.000250053
0.000794724
-0.000224847
0.000811354
-0.000199656
0.000826654
-0.00018377
0.000841579
-0.000179105
0.000857314
-0.000188759
0.000875433
-0.000217372
0.000896434
-0.000252015
0.000920176
-0.000285262
0.000943586
-0.000280761
0.000963027
-0.000233053
0.000975852
-0.000153882
0.000981813
-7.15944e-05
0.000980927
1.05637e-05
0.000975853
6.09053e-05
0.000969245
7.92317e-05
0.000963437
6.96403e-05
0.000960042
4.07027e-05
0.000958844
1.44737e-05
0.000959385
-6.4355e-06
0.000957988
1.6864e-05
0.0009519
7.31182e-05
0.000938472
0.000161188
0.000917848
0.000247315
0.000891492
0.000316349
0.000862677
0.000345725
0.000835549
0.000325261
0.000815318
0.000242367
0.000807278
9.62131e-05
0.00081629
-0.000108222
0.000840409
-0.000289187
0.000874781
-0.000412012
0.000908755
-0.000407244
0.000934276
-0.000305944
0.000951268
-0.000203785
0.00097254
-0.000242953
0.000959162
0.000232286
0.00025562
0.000941138
0.000650385
-0.000230835
0.000668647
-0.000237485
0.000688625
-0.000259707
0.000710328
-0.000282052
0.000732861
-0.000292764
0.000755144
-0.000289538
0.000775991
-0.000270899
0.000794728
-0.000243584
0.000811362
-0.000216289
0.000826665
-0.000199073
0.000841567
-0.000194008
0.000857299
-0.000204491
0.000875415
-0.000235488
0.000896414
-0.000273014
0.000920181
-0.000309029
0.000943607
-0.000304187
0.000963038
-0.000252484
0.00097586
-0.000166703
0.000981826
-7.7561e-05
0.000980931
1.14589e-05
0.000975857
6.59797e-05
0.000969251
8.58377e-05
0.000963437
7.54541e-05
0.000960036
4.41031e-05
0.000958838
1.56724e-05
0.000959381
-6.97839e-06
0.000957987
1.82579e-05
0.0009519
7.9205e-05
0.000938466
0.000174622
0.000917846
0.000267935
0.000891461
0.000342734
0.000862632
0.000374554
0.000835504
0.000352389
0.000815279
0.000262592
0.000807245
0.000104246
0.000816264
-0.00011724
0.00084039
-0.000313313
0.000874773
-0.000446395
0.000908751
-0.000441222
0.000934275
-0.000331468
0.000951285
-0.000220795
0.000972629
-0.000264297
0.000960256
0.000244658
0.000273448
0.000942428
0.000650389
-0.000248566
0.000668649
-0.000255745
0.000688627
-0.000279685
0.000710334
-0.000303759
0.000732872
-0.000315301
0.000755164
-0.00031183
0.000776011
-0.000291747
0.000794748
-0.00026232
0.00081138
-0.000232921
0.000826681
-0.000214373
0.000841563
-0.00020889
0.000857278
-0.000220206
0.000875379
-0.00025359
0.000896375
-0.00029401
0.000920188
-0.000332842
0.000943625
-0.000327624
0.000963062
-0.000271921
0.00097588
-0.000179521
0.000981835
-8.35163e-05
0.000980944
1.23499e-05
0.000975865
7.1059e-05
0.000969256
9.24469e-05
0.000963444
8.12654e-05
0.00096004
4.75072e-05
0.000958841
1.68721e-05
0.000959391
-7.52834e-06
0.000958
1.96484e-05
0.000951912
8.52929e-05
0.000938472
0.000188062
0.000917846
0.000288561
0.000891477
0.000369103
0.000862643
0.000403388
0.000835497
0.000379535
0.000815261
0.000282828
0.000807218
0.000112289
0.000816229
-0.000126251
0.000840372
-0.000337455
0.000874775
-0.000480798
0.000908775
-0.000475222
0.000934277
-0.000356971
0.000951297
-0.000237815
0.000972699
-0.000285699
0.000961339
0.000256019
0.000291207
0.00094358
0.00130081
-0.000284027
0.00133733
-0.00029226
0.00137728
-0.000319638
0.0014207
-0.000347172
0.00146577
-0.000360378
0.00151036
-0.000356419
0.00155206
-0.000333451
0.00158954
-0.000299797
0.00162281
-0.000266185
0.0016534
-0.000244968
0.00168316
-0.00023865
0.00171459
-0.000251631
0.00175078
-0.000289787
0.00179277
-0.000335999
0.0018404
-0.000380465
0.00188728
-0.000374509
0.00192616
-0.000310802
0.0019518
-0.000205158
0.00196373
-9.54532e-05
0.00196192
1.41695e-05
0.00195174
8.12301e-05
0.00193851
0.000105681
0.00192688
9.28914e-05
0.00192009
5.42982e-05
0.0019177
1.92682e-05
0.00191882
-8.65042e-06
0.00191605
2.24163e-05
0.0019039
9.74423e-05
0.00187703
0.000214933
0.00183575
0.000329844
0.00178296
0.000421891
0.00172528
0.000461068
0.00167096
0.00043385
0.00163046
0.000323333
0.00161437
0.000128384
0.00163239
-0.000144272
0.00168068
-0.000385749
0.00174955
-0.000549669
0.00181761
-0.000543278
0.00186857
-0.000407933
0.00190263
-0.000271877
0.00194551
-0.00032858
0.00192579
0.000275743
0.000326351
0.00189064
0.00130091
-0.000319489
0.00133742
-0.000328767
0.00137736
-0.000359582
0.00142077
-0.000390578
0.00146584
-0.000405447
0.00151042
-0.000401007
0.00155214
-0.000375166
0.00158963
-0.000337284
0.0016229
-0.000299456
0.00165349
-0.000275559
0.00168325
-0.000268411
0.00171466
-0.000283044
0.00175084
-0.00032597
0.00179282
-0.000377978
0.00184043
-0.000428076
0.00188733
-0.000421401
0.00192622
-0.000349693
0.00195185
-0.000230795
0.00196375
-0.000107345
0.00196196
1.59558e-05
0.00195178
9.14107e-05
0.00193853
0.000118932
0.0019269
0.000104519
0.00192012
6.10816e-05
0.00191775
2.16306e-05
0.00191889
-9.78308e-06
0.00191614
2.5164e-05
0.00190399
0.000109591
0.00187712
0.000241804
0.00183582
0.000371143
0.00178298
0.000474731
0.00172526
0.000518784
0.00167094
0.000488175
0.00163041
0.000363867
0.00161428
0.00014451
0.0016323
-0.000162287
0.0016806
-0.000434055
0.00174952
-0.000618582
0.00181764
-0.000611398
0.00186859
-0.000458889
0.0019027
-0.000305986
0.0019456
-0.00037148
0.0019299
0.000291447
0.000360944
0.0018953
0.00130118
-0.000354957
0.00133768
-0.000365273
0.00137762
-0.000399518
0.00142101
-0.000433973
0.00146607
-0.000450503
0.00151065
-0.000445588
0.00155236
-0.000416879
0.00158985
-0.000374769
0.00162312
-0.000332721
0.00165369
-0.000306137
0.00168344
-0.000298153
0.00171482
-0.000314432
0.00175098
-0.000362127
0.00179294
-0.000419939
0.00184055
-0.000475687
0.00188746
-0.000468303
0.00192635
-0.000388585
0.00195197
-0.000256417
0.00196389
-0.000119272
0.00196202
1.78275e-05
0.00195184
0.000101595
0.00193859
0.000132181
0.00192696
0.000116152
0.00192017
6.78707e-05
0.0019178
2.39966e-05
0.00191896
-1.09451e-05
0.00191623
2.78936e-05
0.00190411
0.000121711
0.00187724
0.000268677
0.00183591
0.000412476
0.00178303
0.000527609
0.00172529
0.000576526
0.00167092
0.000542539
0.00163034
0.000404454
0.00161418
0.000160663
0.0016322
-0.000180304
0.00168052
-0.000482377
0.00174947
-0.000687532
0.00181768
-0.000679609
0.00186864
-0.000509848
0.0019028
-0.000340139
0.00194559
-0.000414279
0.00193376
0.000303281
0.000394482
0.00190022
0.00130192
-0.000390489
0.00133844
-0.000401796
0.00137836
-0.000439438
0.00142172
-0.000477328
0.00146671
-0.000495497
0.00151123
-0.000490109
0.0015529
-0.000458547
0.00159034
-0.000412212
0.00162357
-0.000365952
0.00165412
-0.000336679
0.00168383
-0.000327864
0.00171518
-0.000345781
0.00175129
-0.000398244
0.00179322
-0.000461865
0.00184081
-0.000523277
0.00188771
-0.000515199
0.00192659
-0.000427469
0.00195219
-0.000282019
0.00196404
-0.000131115
0.00196221
1.96584e-05
0.00195201
0.000111795
0.00193873
0.000145453
0.0019271
0.000127782
0.00192034
7.46391e-05
0.00191801
2.6322e-05
0.00191919
-1.21239e-05
0.00191648
3.06027e-05
0.00190435
0.000133842
0.00187746
0.000295569
0.00183608
0.000453852
0.00178318
0.000580513
0.0017254
0.000634302
0.00167098
0.000596963
0.0016303
0.00044513
0.00161409
0.000176877
0.00163209
-0.000198308
0.00168045
-0.000530739
0.00174949
-0.000756572
0.00181777
-0.000747888
0.00186873
-0.00056081
0.00190294
-0.000374343
0.00194553
-0.000456866
0.00193718
0.00031163
0.000427016
0.00190464
0.00130343
-0.000426193
0.00134001
-0.000438369
0.00137988
-0.000479313
0.00142314
-0.000520592
0.001468
-0.000540357
0.00151239
-0.000534494
0.00155393
-0.000500091
0.00159124
-0.000449517
0.00162435
-0.000399065
0.00165481
-0.000367135
0.00168449
-0.000357542
0.00171578
-0.000377075
0.00175185
-0.000434311
0.00179374
-0.000503754
0.00184129
-0.00057083
0.00188817
-0.000562083
0.00192704
-0.000466339
0.00195261
-0.000307592
0.00196449
-0.000142995
0.00196255
2.16035e-05
0.00195235
0.000121995
0.00193908
0.00015872
0.00192747
0.000139395
0.00192073
8.13811e-05
0.00191843
2.86235e-05
0.00191964
-1.33332e-05
0.00191694
3.3293e-05
0.00190483
0.000145957
0.0018779
0.000322495
0.00183645
0.000495303
0.00178347
0.000633499
0.00172561
0.000692158
0.00167112
0.000651454
0.00163038
0.000485874
0.00161407
0.000193182
0.00163202
-0.000216256
0.00168043
-0.000579148
0.00174956
-0.000825703
0.00181789
-0.000816217
0.00186886
-0.000611787
0.00190313
-0.000408613
0.00194537
-0.000499105
0.00194049
0.000316517
0.000459609
0.00190789
0.00130525
-0.000462072
0.00134187
-0.000474982
0.00138165
-0.000519096
0.0014248
-0.000563746
0.00146953
-0.000585089
0.00151379
-0.000578755
0.00155524
-0.000541541
0.00159241
-0.000486687
0.00162538
-0.000432032
0.00165572
-0.000397473
0.00168541
-0.000387233
0.00171666
-0.00040832
0.00175267
-0.000470329
0.00179453
-0.00054561
0.001842
-0.000618302
0.00188885
-0.000608929
0.00192771
-0.000505196
0.00195325
-0.00033314
0.00196503
-0.000154767
0.00196313
2.34958e-05
0.00195294
0.000132191
0.00193966
0.000171992
0.00192807
0.000150991
0.00192136
8.80894e-05
0.00191911
3.08775e-05
0.00192032
-1.45462e-05
0.00191767
3.59453e-05
0.00190556
0.00015806
0.00187863
0.000349426
0.00183715
0.00053679
0.00178413
0.000686515
0.00172619
0.000750095
0.00167158
0.000706068
0.00163072
0.000526735
0.0016143
0.000209603
0.00163215
-0.000234113
0.00168057
-0.000627565
0.00174974
-0.000894875
0.00181815
-0.000884624
0.00186915
-0.000662784
0.00190347
-0.000442936
0.00194529
-0.000540929
0.00194431
0.000317497
0.00049242
0.0019115
0.00130668
-0.000497946
0.0013433
-0.000511603
0.00138312
-0.000558918
0.0014263
-0.000606921
0.00147103
-0.00062982
0.00151527
-0.000622995
0.00155664
-0.000582915
0.00159369
-0.000523737
0.00162653
-0.000464872
0.00165674
-0.000427682
0.00168626
-0.000416754
0.00171744
-0.000439493
0.00175341
-0.000506303
0.00179525
-0.000587446
0.00184281
-0.000665865
0.00188973
-0.000655853
0.00192861
-0.000544069
0.00195412
-0.000358657
0.00196591
-0.000166557
0.00196386
2.55536e-05
0.00195362
0.000142427
0.00194032
0.000185294
0.0019287
0.000162613
0.00192198
9.48024e-05
0.00191975
3.31096e-05
0.00192104
-1.58291e-05
0.00191847
3.8511e-05
0.00190646
0.000170067
0.0018796
0.000376293
0.00183814
0.00057825
0.00178513
0.000739523
0.00172715
0.000808075
0.00167243
0.000760786
0.00163143
0.000567736
0.00161486
0.000226174
0.00163259
-0.000251844
0.00168101
-0.000675989
0.00175028
-0.000964144
0.00181874
-0.000953081
0.00186964
-0.00071369
0.00190406
-0.000477356
0.00194535
-0.000582216
0.00194862
0.000314224
0.000521131
0.00191991
0.0179425
-0.000988139
0.0184444
-0.00101358
0.0189909
-0.00110539
0.0195811
-0.00119712
0.0201896
-0.00123832
0.0207888
-0.00122217
0.0213452
-0.00113935
0.021839
-0.00101748
0.0222745
-0.000900381
0.0226736
-0.00082685
0.0230647
-0.000807779
0.0234839
-0.000858767
0.0239709
-0.000993283
0.0245397
-0.00115621
0.0251899
-0.00131606
0.0258326
-0.00129855
0.0263642
-0.00107574
0.0267101
-0.000704511
0.0268595
-0.000315942
0.0268344
5.06331e-05
0.0266892
0.00028759
0.0265018
0.000372681
0.0263412
0.000323303
0.0262511
0.00018485
0.0262267
5.75465e-05
0.0262499
-3.90428e-05
0.0262219
6.65174e-05
0.0260651
0.000326875
0.0257062
0.000735177
0.025145
0.00113945
0.0244215
0.00146298
0.0236285
0.00160113
0.0228771
0.00151215
0.0223095
0.00113537
0.0220737
0.000461915
0.0223089
-0.000487043
0.022968
-0.00133505
0.0239156
-0.00191175
0.0248521
-0.00188955
0.0255354
-0.00139697
0.0260124
-0.000954419
0.0265102
-0.00108003
0.0267535
7.09399e-05
0.000695047
0.0265796
0.0184469
-0.00150123
0.0189675
-0.00153414
0.0195181
-0.00165596
0.0201059
-0.00178498
0.0207038
-0.00183622
0.0212914
-0.00180971
0.0218373
-0.00168528
0.0223111
-0.00149125
0.0227153
-0.00130461
0.0230703
-0.00118183
0.023418
-0.00115549
0.0238064
-0.00124721
0.0242717
-0.00145856
0.0248298
-0.00171429
0.0254803
-0.00196656
0.0261308
-0.00194911
0.0266667
-0.00161164
0.027012
-0.00104983
0.0271509
-0.000454765
0.0270815
0.000119984
0.0269107
0.000458416
0.0266998
0.000583611
0.0265201
0.000502931
0.0264212
0.000283805
0.0264069
7.18546e-05
0.0264458
-7.79385e-05
0.0264553
5.69805e-05
0.0263312
0.000450987
0.0259928
0.00107361
0.0254378
0.00169439
0.024711
0.00218979
0.0239134
0.00239878
0.0231469
0.0022786
0.0225532
0.00172912
0.0222981
0.000716934
0.0225174
-0.000706301
0.0231816
-0.00199921
0.0241446
-0.00287475
0.02509
-0.00283495
0.0257488
-0.0020558
0.0261625
-0.00136812
0.0265414
-0.00145895
0.0267656
-0.000153254
0.000758205
0.0267025
0.0197347
-0.00201633
0.0202602
-0.00205957
0.0208212
-0.00221702
0.0214062
-0.00236993
0.0219883
-0.00241837
0.0225475
-0.00236884
0.0230479
-0.00218569
0.023469
-0.00191237
0.0238211
-0.00165667
0.024127
-0.00148779
0.0244231
-0.00145159
0.0247573
-0.00158134
0.0251693
-0.00187063
0.0256796
-0.0022246
0.0263014
-0.00258829
0.0269328
-0.00258057
0.0274366
-0.00211535
0.0277261
-0.00133934
0.027798
-0.000526716
0.0276894
0.000228611
0.0274592
0.000688606
0.0271875
0.00085529
0.0269661
0.000724363
0.0268531
0.000396757
0.026855
7.00033e-05
0.0269319
-0.000154865
0.0269562
3.2705e-05
0.0268712
0.000535978
0.0265715
0.00137327
0.0260309
0.00223506
0.0253043
0.00291639
0.0244907
0.00321238
0.0236924
0.00307684
0.0230576
0.00236393
0.0227586
0.0010159
0.0229697
-0.000917326
0.0236485
-0.00267807
0.0246432
-0.00386944
0.0256218
-0.00381354
0.0262375
-0.00267147
0.0265571
-0.00168772
0.0266878
-0.00158969
0.0267328
-0.000198247
0.000946573
0.0265444
0.0236217
-0.00240609
0.0241015
-0.00253936
0.0246352
-0.00275074
0.025192
-0.00292678
0.0257227
-0.00294922
0.0262255
-0.00287177
0.0266619
-0.00262211
0.0269807
-0.00223115
0.027205
-0.00188101
0.0273559
-0.00163858
0.027478
-0.00157364
0.0276352
-0.00173858
0.027882
-0.00211746
0.0282581
-0.00260071
0.028775
-0.00310528
0.029322
-0.00312751
0.0297641
-0.00255755
0.0299775
-0.00155265
0.0299284
-0.000477506
0.029689
0.000468088
0.0293397
0.00103794
0.0289467
0.00124829
0.0286172
0.00105375
0.0283694
0.000644534
0.0282657
0.000173671
0.0282837
-0.000172884
0.0282821
3.44098e-05
0.0281203
0.000697718
0.0277258
0.00176771
0.0270839
0.00287684
0.0262657
0.00373441
0.0253836
0.00409429
0.0245108
0.00394946
0.023786
0.00308865
0.0233935
0.00140843
0.0235318
-0.0010557
0.0242521
-0.00339827
0.0253004
-0.00491779
0.0263198
-0.00483291
0.026935
-0.00328661
0.0271378
-0.00189054
0.0271094
-0.00156136
0.0270545
-0.000143402
0.00117937
0.0268217
0.0395213
-0.00186404
0.0396326
-0.00220522
0.0398413
-0.00251654
0.040076
-0.00272176
0.0402947
-0.00274625
0.0403766
-0.00256459
0.0403184
-0.0022275
0.0401598
-0.00180687
0.0398536
-0.00138444
0.0394024
-0.00106369
0.0388745
-0.000968024
0.0384001
-0.0012118
0.0381089
-0.00178891
0.0380715
-0.00254122
0.0382239
-0.00325799
0.0383576
-0.00326158
0.0384275
-0.00262781
0.0383042
-0.00142949
0.0379556
-0.00012888
0.0374531
0.000970452
0.0367819
0.00170901
0.0360359
0.00199426
0.0353116
0.00177804
0.0347097
0.00124623
0.0342231
0.000659917
0.0338029
0.000246807
0.0333934
0.000443835
0.0328739
0.00121711
0.0320967
0.00254455
0.030977
0.00399581
0.0296468
0.00506344
0.0282628
0.00547718
0.0269542
0.0052571
0.0258303
0.00421186
0.0250591
0.0021793
0.025022
-0.0010187
0.025703
-0.00407911
0.0267717
-0.00598643
0.0278179
-0.00587891
0.0283577
-0.00382641
0.0284622
-0.00199505
0.028324
-0.00142326
0.0282029
-2.22742e-05
0.00129067
0.0280917
0.0399597
-0.000312793
0.0409875
-0.00039216
0.0418184
-0.000477061
0.0425642
-0.000536663
0.0432881
-0.000546948
0.0440826
-0.000503107
0.0449888
-0.000423558
0.0460001
-0.000330637
0.0471396
-0.000257471
0.0483091
-0.000191286
0.049358
-0.000184484
0.0501596
-0.000288577
0.0506328
-0.00051546
0.0508469
-0.000824682
0.0509054
-0.00109213
0.0510786
-0.0011443
0.0513969
-0.000954966
0.0517738
-0.000405073
0.0520708
0.000318422
0.0522384
0.00104714
0.0521853
0.00166742
0.0519138
0.00205826
0.0514896
0.00204589
0.0509998
0.00167262
0.050493
0.00113498
0.0497215
0.000940632
0.0485193
0.00148889
0.0468427
0.00260636
0.0448552
0.00408841
0.0426353
0.00566829
0.040134
0.00702458
0.0373813
0.0077694
0.0346749
0.00761072
0.0324595
0.00619844
0.030766
0.00378192
0.0300255
-0.000188249
0.0302482
-0.00417576
0.0309357
-0.00658458
0.0315214
-0.00642471
0.0317107
-0.00400802
0.0315146
-0.00179794
0.0311898
-0.00109737
0.0310219
0.000148769
0.00110784
0.0312111
0.00265876
-6.07751e-06
0.00298427
-6.24565e-06
0.00328976
-6.97786e-06
0.00356611
-9.59462e-06
0.00382469
-1.34743e-05
0.00410027
-1.59046e-05
0.00445028
-1.34756e-05
0.00492886
-7.32507e-06
0.00553205
-2.04989e-06
0.0063002
-6.34485e-07
0.00725825
-3.42372e-06
0.00832716
-7.66696e-06
0.00935223
-1.37025e-05
0.0102233
-2.04163e-05
0.010948
-2.60913e-05
0.0116163
-2.81135e-05
0.0123624
-2.43855e-05
0.0134894
-1.22132e-05
0.015163
-1.29947e-06
0.0174075
-5.38976e-06
0.0200148
1.27653e-05
0.0227719
0.000129482
0.0254189
0.000233289
0.0277449
0.000252206
0.0296639
0.000198409
0.0313035
0.000210943
0.0330821
0.000376194
0.0352022
0.000714461
0.037647
0.00123641
0.0403272
0.00192518
0.0431632
0.00270782
0.0458467
0.00346159
0.0479473
0.00399223
0.0490463
0.00410652
0.0485299
0.00393487
0.0465544
0.00211068
0.0438401
-0.000410746
0.0414695
-0.00267716
0.0395497
-0.0031377
0.0381602
-0.00187069
0.0367416
-0.000189553
0.0356944
0.000203535
0.0356905
0.000769368
0.00159081
0.0355819
3.61002e-05
-1.60432e-08
3.46572e-05
-4.1045e-09
3.752e-05
-2.13173e-09
4.92458e-05
-2.07856e-10
6.31458e-05