/*--------------------------------*- C++ -*----------------------------------*\
| =========                 |                                                 |
| \\      /  F ield         | OpenFOAM: The Open Source CFD Toolbox           |
|  \\    /   O peration     | Version:  v1912                                 |
|   \\  /    A nd           | Website:  www.openfoam.com                      |
|    \\/     M anipulation  |                                                 |
\*---------------------------------------------------------------------------*/
FoamFile
{
    version     2.0;
    format      ascii;
    class       volScalarField;
    location    "100";
    object      nut;
}
// * * * * * * * * * * * * * * * * * * * * * * * * * * * * * * * * * * * * * //

dimensions      [0 2 -1 0 0 0 0];


internalField   nonuniform List<scalar> 
14268
(
7.42736e-11
7.61644e-11
7.90671e-11
8.1447e-11
8.24842e-11
8.22594e-11
8.13435e-11
8.02104e-11
7.8964e-11
7.76608e-11
7.62549e-11
7.47566e-11
7.33991e-11
7.19081e-11
7.03149e-11
6.90449e-11
6.80624e-11
6.6894e-11
6.56908e-11
6.43077e-11
6.30308e-11
6.15254e-11
5.96914e-11
5.75773e-11
5.48869e-11
5.39106e-11
5.30521e-11
5.1901e-11
5.07507e-11
4.99072e-11
4.89669e-11
4.77549e-11
4.63278e-11
4.4765e-11
4.27611e-11
4.03328e-11
3.89277e-11
3.88321e-11
3.93791e-11
4.09606e-11
4.44738e-11
5.30656e-11
1.2296e-10
9.36846e-11
6.79562e-09
6.90511e-09
7.04858e-09
7.13968e-09
7.14456e-09
7.06377e-09
6.90466e-09
6.75442e-09
6.60408e-09
6.45668e-09
6.30948e-09
6.16048e-09
6.02047e-09
5.87756e-09
5.74757e-09
5.62411e-09
5.53945e-09
5.45004e-09
5.34785e-09
5.21588e-09
5.04196e-09
4.83405e-09
4.60473e-09
4.37399e-09
4.16552e-09
4.04445e-09
3.92132e-09
3.76961e-09
3.61915e-09
3.4784e-09
3.32562e-09
3.14718e-09
2.95575e-09
2.7729e-09
2.61011e-09
2.44101e-09
2.28076e-09
2.1576e-09
2.12205e-09
2.17191e-09
2.32806e-09
2.76439e-09
4.96342e-09
1.45617e-08
5.31724e-08
5.38064e-08
5.46556e-08
5.51175e-08
5.50401e-08
5.43518e-08
5.30997e-08
5.19089e-08
5.0767e-08
4.97122e-08
4.86911e-08
4.76834e-08
4.67486e-08
4.57898e-08
4.49329e-08
4.40243e-08
4.34025e-08
4.27392e-08
4.19501e-08
4.09225e-08
3.96317e-08
3.80954e-08
3.63758e-08
3.4613e-08
3.27843e-08
3.17199e-08
3.06937e-08
2.95984e-08
2.86035e-08
2.76698e-08
2.66409e-08
2.53892e-08
2.39753e-08
2.25485e-08
2.11496e-08
1.97208e-08
1.82806e-08
1.69979e-08
1.6688e-08
1.6962e-08
1.80204e-08
2.10856e-08
3.30177e-08
3.3908e-05
1.38421e-07
1.39387e-07
1.4066e-07
1.41316e-07
1.41197e-07
1.40177e-07
1.38252e-07
1.36355e-07
1.34565e-07
1.32971e-07
1.31423e-07
1.29882e-07
1.28442e-07
1.26942e-07
1.25578e-07
1.24058e-07
1.23008e-07
1.21865e-07
1.20479e-07
1.18633e-07
1.16231e-07
1.13289e-07
1.0995e-07
1.06524e-07
1.02967e-07
1.00895e-07
9.88057e-08
9.65466e-08
9.43868e-08
9.22748e-08
8.98571e-08
8.67928e-08
8.32175e-08
7.95269e-08
7.59019e-08
7.22101e-08
6.82301e-08
6.38123e-08
6.29245e-08
6.36208e-08
6.64464e-08
7.50787e-08
8.9401e-08
1.15246e-08
2.07851e-07
2.08616e-07
2.09601e-07
2.10077e-07
2.09942e-07
2.0912e-07
2.07564e-07
2.05991e-07
2.04588e-07
2.03343e-07
2.02124e-07
2.00953e-07
1.99943e-07
1.9886e-07
1.97851e-07
1.96602e-07
1.95687e-07
1.94673e-07
1.93424e-07
1.91763e-07
1.89585e-07
1.86966e-07
1.84049e-07
1.811e-07
1.78036e-07
1.76231e-07
1.74294e-07
1.72084e-07
1.70006e-07
1.68005e-07
1.65689e-07
1.62671e-07
1.5901e-07
1.55088e-07
1.51148e-07
1.47058e-07
1.4244e-07
1.36697e-07
1.35511e-07
1.36278e-07
1.4e-07
1.51222e-07
1.56639e-07
1.18796e-08
2.42993e-07
2.43494e-07
2.44005e-07
2.44225e-07
2.44095e-07
2.4357e-07
2.42655e-07
2.41742e-07
2.40891e-07
2.40257e-07
2.39629e-07
2.39004e-07
2.38455e-07
2.37859e-07
2.37325e-07
2.36546e-07
2.35924e-07
2.35259e-07
2.34469e-07
2.33424e-07
2.32048e-07
2.30382e-07
2.28562e-07
2.26797e-07
2.25028e-07
2.24024e-07
2.2292e-07
2.2168e-07
2.2043e-07
2.1915e-07
2.17623e-07
2.15651e-07
2.13278e-07
2.10763e-07
2.08333e-07
2.05856e-07
2.02867e-07
1.98754e-07
1.97974e-07
1.98629e-07
2.01882e-07
2.12454e-07
1.99418e-07
2.76884e-08
2.56017e-07
2.56178e-07
2.56417e-07
2.5656e-07
2.56478e-07
2.5612e-07
2.55559e-07
2.55022e-07
2.54695e-07
2.54362e-07
2.53906e-07
2.53453e-07
2.53294e-07
2.5311e-07
2.52967e-07
2.52661e-07
2.5231e-07
2.51884e-07
2.51407e-07
2.50882e-07
2.50233e-07
2.49502e-07
2.48741e-07
2.48002e-07
2.47209e-07
2.46869e-07
2.466e-07
2.46137e-07
2.45618e-07
2.45103e-07
2.44511e-07
2.43731e-07
2.4274e-07
2.41669e-07
2.40729e-07
2.39833e-07
2.38586e-07
2.36667e-07
2.36294e-07
2.36757e-07
2.38904e-07
2.46859e-07
2.43068e-07
7.71386e-08
2.60421e-07
2.60638e-07
2.60833e-07
2.60905e-07
2.6076e-07
2.60382e-07
2.59847e-07
2.59581e-07
2.59278e-07
2.59081e-07
2.58918e-07
2.58863e-07
2.58838e-07
2.58716e-07
2.58639e-07
2.58441e-07
2.58231e-07
2.57974e-07
2.57667e-07
2.57288e-07
2.56889e-07
2.5651e-07
2.56154e-07
2.55846e-07
2.55554e-07
2.55582e-07
2.55703e-07
2.5583e-07
2.55882e-07
2.55853e-07
2.55769e-07
2.5567e-07
2.55549e-07
2.55451e-07
2.5564e-07
2.56077e-07
2.56089e-07
2.55591e-07
2.55588e-07
2.55722e-07
2.57384e-07
2.64316e-07
2.73494e-07
1.22139e-07
2.62136e-07
2.62255e-07
2.62399e-07
2.62452e-07
2.62376e-07
2.62112e-07
2.61771e-07
2.61439e-07
2.61184e-07
2.61105e-07
2.60942e-07
2.60715e-07
2.60727e-07
2.60795e-07
2.60923e-07
2.60778e-07
2.60576e-07
2.60306e-07
2.59975e-07
2.59606e-07
2.59271e-07
2.591e-07
2.59101e-07
2.59156e-07
2.59093e-07
2.59324e-07
2.59603e-07
2.59649e-07
2.59748e-07
2.59899e-07
2.6016e-07
2.60519e-07
2.60922e-07
2.61431e-07
2.62279e-07
2.63408e-07
2.64071e-07
2.6451e-07
2.64428e-07
2.64196e-07
2.65593e-07
2.72303e-07
2.93681e-07
1.89465e-07
2.62703e-07
2.62741e-07
2.62772e-07
2.62798e-07
2.62823e-07
2.62698e-07
2.62209e-07
2.61681e-07
2.61379e-07
2.61251e-07
2.61166e-07
2.61186e-07
2.6132e-07
2.61332e-07
2.6135e-07
2.61267e-07
2.61165e-07
2.61024e-07
2.60877e-07
2.60743e-07
2.60616e-07
2.60567e-07
2.60622e-07
2.60752e-07
2.60717e-07
2.60906e-07
2.61182e-07
2.61473e-07
2.61773e-07
2.62079e-07
2.62424e-07
2.62862e-07
2.63378e-07
2.64015e-07
2.65e-07
2.66311e-07
2.67404e-07
2.68226e-07
2.68268e-07
2.67903e-07
2.69201e-07
2.76815e-07
3.06967e-07
2.50844e-07
2.62108e-07
2.62206e-07
2.62321e-07
2.62363e-07
2.62312e-07
2.62163e-07
2.61898e-07
2.61858e-07
2.61788e-07
2.61673e-07
2.61515e-07
2.61366e-07
2.61329e-07
2.61269e-07
2.61302e-07
2.61107e-07
2.60905e-07
2.60705e-07
2.60506e-07
2.60322e-07
2.60276e-07
2.60324e-07
2.60402e-07
2.60447e-07
2.60424e-07
2.60681e-07
2.61139e-07
2.61574e-07
2.61906e-07
2.6226e-07
2.62689e-07
2.63221e-07
2.63883e-07
2.64717e-07
2.65955e-07
2.676e-07
2.68973e-07
2.70079e-07
2.7011e-07
2.69673e-07
2.71126e-07
2.80241e-07
3.1975e-07
3.24605e-07
2.63083e-07
2.63129e-07
2.63174e-07
2.63182e-07
2.63122e-07
2.62961e-07
2.62738e-07
2.62487e-07
2.62243e-07
2.62066e-07
2.61741e-07
2.61616e-07
2.61683e-07
2.61735e-07
2.6181e-07
2.61737e-07
2.61655e-07
2.61502e-07
2.61297e-07
2.61037e-07
2.60723e-07
2.60572e-07
2.60631e-07
2.60817e-07
2.60982e-07
2.61415e-07
2.61806e-07
2.62044e-07
2.62347e-07
2.62723e-07
2.63208e-07
2.63778e-07
2.64452e-07
2.65298e-07
2.6645e-07
2.67939e-07
2.69315e-07
2.70384e-07
2.70461e-07
2.70052e-07
2.71628e-07
2.83047e-07
3.36611e-07
3.89388e-07
2.62359e-07
2.62638e-07
2.62956e-07
2.63194e-07
2.63134e-07
2.62761e-07
2.62106e-07
2.61665e-07
2.6136e-07
2.61282e-07
2.61207e-07
2.61115e-07
2.61065e-07
2.61004e-07
2.61004e-07
2.60876e-07
2.60677e-07
2.60465e-07
2.60262e-07
2.60077e-07
2.59994e-07
2.59941e-07
2.59985e-07
2.60124e-07
2.60238e-07
2.60519e-07
2.60913e-07
2.61285e-07
2.61639e-07
2.62048e-07
2.62597e-07
2.63346e-07
2.64194e-07
2.6518e-07
2.66472e-07
2.68165e-07
2.69617e-07
2.70796e-07
2.70896e-07
2.70595e-07
2.72627e-07
2.87217e-07
3.58448e-07
4.60452e-07
2.6689e-07
2.67582e-07
2.68394e-07
2.68999e-07
2.69126e-07
2.68602e-07
2.67534e-07
2.66369e-07
2.65414e-07
2.64679e-07
2.63908e-07
2.63339e-07
2.63191e-07
2.63084e-07
2.63055e-07
2.62911e-07
2.62764e-07
2.6256e-07
2.62319e-07
2.62058e-07
2.61761e-07
2.61587e-07
2.6159e-07
2.61683e-07
2.61593e-07
2.61767e-07
2.62129e-07
2.62284e-07
2.62459e-07
2.62708e-07
2.63037e-07
2.6351e-07
2.64121e-07
2.64978e-07
2.66177e-07
2.67779e-07
2.69386e-07
2.70534e-07
2.70625e-07
2.70298e-07
2.72655e-07
2.90932e-07
3.82469e-07
5.32209e-07
2.82156e-07
2.87308e-07
2.93507e-07
2.9808e-07
2.98638e-07
2.95183e-07
2.87365e-07
2.79579e-07
2.73922e-07
2.70425e-07
2.67829e-07
2.65927e-07
2.64866e-07
2.64086e-07
2.6373e-07
2.63281e-07
2.62904e-07
2.62436e-07
2.61949e-07
2.61405e-07
2.61113e-07
2.60957e-07
2.60954e-07
2.61025e-07
2.61231e-07
2.61643e-07
2.62172e-07
2.62676e-07
2.63076e-07
2.6346e-07
2.63878e-07
2.64379e-07
2.6499e-07
2.65741e-07
2.66833e-07
2.68263e-07
2.6971e-07
2.70815e-07
2.70942e-07
2.70879e-07
2.74299e-07
3.00732e-07
4.28795e-07
6.61724e-07
4.87037e-07
5.37056e-07
5.95617e-07
6.37738e-07
6.40374e-07
6.02597e-07
5.21791e-07
4.44254e-07
3.91696e-07
3.58652e-07
3.34421e-07
3.1726e-07
3.06924e-07
2.99573e-07
2.94591e-07
2.9086e-07
2.88652e-07
2.86443e-07
2.8417e-07
2.81333e-07
2.78332e-07
2.75428e-07
2.72748e-07
2.70966e-07
2.69263e-07
2.692e-07
2.69511e-07
2.69488e-07
2.69275e-07
2.6904e-07
2.68788e-07
2.68483e-07
2.68109e-07
2.68158e-07
2.68509e-07
2.69291e-07
2.70167e-07
2.70814e-07
2.70801e-07
2.7073e-07
2.7581e-07
3.15905e-07
5.01188e-07
8.65175e-07
2.39741e-06
2.86095e-06
3.33931e-06
3.62668e-06
3.58153e-06
3.15549e-06
2.36466e-06
1.66514e-06
1.22279e-06
9.63065e-07
7.85877e-07
6.63231e-07
5.88166e-07
5.36301e-07
5.00585e-07
4.70953e-07
4.53041e-07
4.35637e-07
4.16716e-07
3.94924e-07
3.74127e-07
3.53782e-07
3.36235e-07
3.25935e-07
3.17722e-07
3.18826e-07
3.21791e-07
3.23046e-07
3.21361e-07
3.18318e-07
3.13454e-07
3.06289e-07
2.97934e-07
2.90567e-07
2.82967e-07
2.77323e-07
2.75313e-07
2.73739e-07
2.72684e-07
2.7302e-07
2.81386e-07
3.43741e-07
6.06159e-07
1.11222e-06
1.86938e-05
2.21098e-05
2.47632e-05
2.57931e-05
2.48367e-05
2.1151e-05
1.5099e-05
9.81575e-06
6.57999e-06
4.77899e-06
3.6301e-06
2.8607e-06
2.3971e-06
2.08192e-06
1.86081e-06
1.65779e-06
1.532e-06
1.40657e-06
1.27222e-06
1.12267e-06
9.80713e-07
8.45361e-07
7.45789e-07
6.90962e-07
6.5267e-07
6.65614e-07
6.91398e-07
7.09172e-07
6.99614e-07
6.80753e-07
6.47026e-07
5.93944e-07
5.31144e-07
4.71928e-07
4.10125e-07
3.53128e-07
3.24505e-07
3.03774e-07
2.89934e-07
2.87832e-07
3.00182e-07
3.99852e-07
7.6591e-07
1.42008e-06
9.7251e-05
0.000109113
0.000116314
0.00011764
0.000112744
9.78567e-05
7.37594e-05
4.92515e-05
3.30092e-05
2.37932e-05
1.79922e-05
1.4109e-05
1.1779e-05
1.01904e-05
9.05563e-06
7.97195e-06
7.2472e-06
6.49405e-06
5.68421e-06
4.79779e-06
3.93183e-06
3.20431e-06
2.74841e-06
2.51005e-06
2.39748e-06
2.50085e-06
2.69652e-06
2.90727e-06
2.93456e-06
2.88767e-06
2.72564e-06
2.41594e-06
2.0338e-06
1.66548e-06
1.28352e-06
8.93357e-07
6.90377e-07
5.44061e-07
4.3872e-07
4.09719e-07
4.23954e-07
6.02105e-07
1.09222e-06
1.81407e-06
0.000256025
0.000276821
0.000287986
0.000289274
0.000280312
0.000253939
0.000209569
0.00015578
0.000112361
8.57215e-05
6.7984e-05
5.5453e-05
4.76504e-05
4.20965e-05
3.78947e-05
3.39348e-05
3.09293e-05
2.77456e-05
2.41989e-05
2.01647e-05
1.59834e-05
1.29787e-05
1.12514e-05
1.03246e-05
1.03521e-05
1.09953e-05
1.21829e-05
1.36313e-05
1.44233e-05
1.49454e-05
1.43266e-05
1.28554e-05
1.09039e-05
8.89773e-06
6.76928e-06
4.43393e-06
3.17063e-06
2.28837e-06
1.61137e-06
1.32365e-06
1.24413e-06
1.57051e-06
2.04092e-06
2.65603e-06
0.000447313
0.000476118
0.000490932
0.000492651
0.000481375
0.000447691
0.000389764
0.000315083
0.000245195
0.00019956
0.00016764
0.000144093
0.000128878
0.000117542
0.000108454
9.96738e-05
9.21398e-05
8.39341e-05
7.43783e-05
6.29265e-05
5.06423e-05
4.24301e-05
3.76898e-05
3.58624e-05
3.6506e-05
3.93121e-05
4.40965e-05
5.01725e-05
5.49999e-05
5.94142e-05
5.81885e-05
5.41595e-05
4.82124e-05
4.15515e-05
3.39911e-05
2.45671e-05
1.80952e-05
1.34316e-05
9.84822e-06
7.59202e-06
6.10021e-06
6.40323e-06
5.77157e-06
3.8981e-06
0.00176511
0.00184453
0.00188321
0.00188998
0.00187048
0.00180521
0.00168324
0.00150848
0.00130153
0.00114834
0.00103593
0.000951007
0.000894076
0.000849246
0.000810686
0.000770738
0.00073022
0.000684439
0.000627881
0.000554108
0.000476582
0.000430321
0.000405989
0.000401175
0.000406952
0.000431058
0.000477322
0.000542361
0.000611912
0.000682943
0.000708553
0.000706349
0.000690216
0.000655551
0.000594676
0.000504026
0.000413143
0.000332629
0.000266172
0.00020615
0.000149583
0.000124033
8.87696e-05
5.45329e-05
0.00479935
0.00497423
0.00506396
0.00510054
0.00510484
0.00506987
0.00496455
0.00477744
0.00450102
0.00421715
0.00399778
0.00383145
0.00372319
0.00363052
0.00354143
0.00344915
0.0033486
0.0032368
0.00309028
0.00288181
0.00266156
0.00254386
0.00250256
0.00251956
0.00258095
0.00271601
0.00294829
0.00325558
0.00359713
0.00391046
0.00412276
0.00416842
0.00417371
0.00413577
0.00403071
0.00383369
0.00353107
0.00317924
0.00282184
0.00240241
0.001923
0.00150894
0.00101442
0.000616231
0.00556875
0.00591361
0.00612119
0.00624251
0.00633304
0.00640614
0.00643649
0.00640731
0.00632036
0.00618822
0.00604502
0.00591079
0.00580251
0.00570345
0.00560566
0.00550417
0.00537374
0.00523128
0.00506901
0.00487198
0.00471397
0.00464671
0.00464984
0.0047076
0.00481326
0.00499189
0.00528452
0.00568355
0.0061676
0.00667922
0.00711104
0.00738841
0.00751808
0.00762369
0.00769153
0.0077106
0.00763821
0.00746097
0.00722951
0.00680321
0.00614727
0.00530015
0.00413398
0.0026417
0.0035886
0.00391802
0.0042301
0.00441994
0.00456168
0.00467112
0.0047659
0.0048543
0.00493563
0.00498948
0.00500761
0.00500823
0.00499094
0.00495204
0.00488557
0.00481234
0.00468829
0.00453154
0.00435589
0.0041847
0.00404409
0.0039813
0.00399627
0.00406818
0.00416468
0.00426223
0.00446293
0.00482752
0.0053471
0.0059394
0.00655322
0.00712685
0.00755205
0.00794927
0.00822996
0.00843236
0.0085984
0.00870669
0.00880198
0.00866995
0.00832489
0.00778617
0.00700273
0.00556483
0.000809654
0.000988358
0.00117232
0.00136615
0.00159347
0.00185755
0.00214485
0.00238937
0.00257516
0.00272429
0.00286358
0.00299729
0.00307754
0.00308774
0.00307508
0.00305248
0.00297274
0.00284458
0.00268993
0.00252305
0.00238248
0.00226853
0.0022016
0.00217911
0.00219188
0.00223373
0.00231641
0.00248619
0.00279384
0.00322549
0.00375362
0.00431739
0.00484951
0.00534646
0.00580011
0.00620206
0.00655737
0.00683319
0.00704968
0.00715224
0.00711636
0.00697532
0.0068195
0.00640731
1.26024e-05
1.33471e-05
1.51037e-05
1.83656e-05
2.41941e-05
3.58366e-05
6.22442e-05
0.000118508
0.000203095
0.00029485
0.000355609
0.000403698
0.000448399
0.00052718
0.000699323
0.00102468
0.00140732
0.00159659
0.00170764
0.00175557
0.00174862
0.00170544
0.00161078
0.00147245
0.00129717
0.00115324
0.00110539
0.001112
0.00115575
0.00126202
0.00145461
0.00174595
0.00214333
0.00256922
0.00302227
0.00342874
0.00377421
0.00414983
0.00442758
0.00467934
0.004815
0.00491428
0.00505208
0.00510559
2.7518e-05
2.67863e-05
2.49978e-05
2.27095e-05
2.08283e-05
2.0634e-05
2.07972e-05
2.15718e-05
2.06176e-05
1.58796e-05
9.9645e-06
6.78566e-06
5.98338e-06
6.85057e-06
1.0663e-05
1.98658e-05
3.57648e-05
5.25205e-05
7.05483e-05
0.000116166
0.000181847
0.000243479
0.000281667
0.000266378
0.00022373
0.000167199
0.000110165
5.80109e-05
4.30344e-05
4.42071e-05
4.9459e-05
7.19863e-05
0.000120717
0.000214355
0.000364201
0.000444081
0.000527875
0.000633369
0.00079314
0.00104322
0.00123304
0.00148837
0.00175788
0.00236424
0.00861091
0.00777348
0.00565606
0.00256874
0.000756089
0.000491369
0.000435573
0.000417099
0.000422065
0.000392546
0.000337011
0.000243782
0.000123674
4.48381e-05
1.90238e-05
8.03461e-06
3.2821e-06
1.09236e-06
4.98253e-07
2.18341e-06
2.28404e-05
0.000126113
0.000391024
0.000976759
0.00174238
0.00220498
0.00253208
0.0029227
0.00372773
0.00476823
0.00357475
0.00293492
0.00223041
0.000808115
0.000260864
9.42298e-05
4.14835e-05
3.17244e-05
3.33037e-05
4.15346e-05
5.84236e-05
8.42042e-05
7.80652e-05
0.000129037
0.0523361
0.0527456
0.0494668
0.0425996
0.0333829
0.0276619
0.0248441
0.0227921
0.0209214
0.0191288
0.017073
0.0146717
0.0117067
0.00849661
0.00580446
0.00331019
0.00162158
0.00085637
0.000365949
0.000114936
0.000155824
0.00139272
0.006135
0.0137718
0.0235303
0.0220935
0.011879
0.00885893
0.0145573
0.035263
0.0725933
0.10208
0.142682
0.181964
0.0429322
0.00589865
0.000996914
0.000244928
5.07027e-05
1.16663e-05
4.1633e-06
2.67302e-06
1.50148e-06
4.51556e-06
0.103641
0.108086
0.107776
0.10496
0.101006
0.0981549
0.0954053
0.0918195
0.0869846
0.0809473
0.0756416
0.070883
0.067161
0.0649568
0.0621225
0.0578335
0.0515436
0.0435395
0.0305663
0.0145569
0.00567038
0.00423969
0.00672285
0.0195571
0.0485623
0.0735092
0.082453
0.101219
0.141628
0.256618
0.411295
0.571889
0.911465
1.07395
0.44747
0.17876
0.13898
0.110426
0.0798726
0.0477323
0.0266585
0.0193352
0.00904157
0.00500781
0.141434
0.144401
0.14401
0.141822
0.140228
0.139414
0.138058
0.134532
0.127185
0.117476
0.113304
0.109888
0.107992
0.110398
0.109174
0.105452
0.0999864
0.0945903
0.0852621
0.0624935
0.0340318
0.013805
0.0129532
0.0265297
0.0671256
0.122711
0.189178
0.276898
0.390787
0.528859
0.670522
0.867816
1.32894
1.6715
1.36519
0.955842
0.658351
0.616586
0.606167
0.508606
0.368148
0.231114
0.111439
0.0560051
0.172303
0.173607
0.173035
0.172633
0.173432
0.173914
0.170329
0.161277
0.146733
0.13826
0.140091
0.141844
0.143932
0.14845
0.148265
0.144606
0.140921
0.137445
0.1327
0.113496
0.0775586
0.0395869
0.0297647
0.0396775
0.0797224
0.154481
0.253435
0.384079
0.540767
0.698523
0.846407
1.03677
1.47476
1.88829
1.74237
1.37504
1.05788
1.01492
1.03108
0.91129
0.679801
0.43108
0.22433
0.115406
0.196364
0.196694
0.197437
0.199486
0.201081
0.196072
0.182733
0.163257
0.152666
0.154739
0.161891
0.164344
0.166509
0.170297
0.169366
0.167509
0.165712
0.16457
0.166167
0.157507
0.12637
0.0844234
0.0624756
0.0630528
0.0935834
0.173545
0.291283
0.449505
0.634039
0.805499
0.965203
1.12345
1.43366
1.76228
1.84137
1.6495
1.39374
1.36406
1.4093
1.26656
0.951046
0.589235
0.304474
0.149203
0.215115
0.216108
0.218989
0.220413
0.212847
0.193773
0.169928
0.159547
0.161844
0.168698
0.17374
0.171807
0.173265
0.177434
0.178305
0.178214
0.178913
0.181372
0.186001
0.188334
0.166475
0.13089
0.103838
0.0933892
0.110808
0.186312
0.312083
0.484843
0.689847
0.876439
1.04872
1.14499
1.2386
1.50123
1.73722
1.7819
1.66825
1.67208
1.71726
1.50889
1.12427
0.68224
0.345221
0.16477
0.228785
0.231472
0.231993
0.222081
0.199316
0.172637
0.161504
0.166034
0.171984
0.174614
0.170734
0.162387
0.1628
0.167218
0.169143
0.173014
0.178726
0.186756
0.19745
0.208438
0.202838
0.174761
0.145153
0.125344
0.1292
0.194954
0.319685
0.497069
0.714388
0.912493
1.09825
1.13529
0.998215
1.2142
1.55574
1.83224
1.8846
1.92815
1.91134
1.58323
1.11348
0.686344
0.356704
0.173508
0.237628
0.23643
0.224985
0.201421
0.174018
0.162079
0.166601
0.172743
0.172603
0.165206
0.146317
0.131925
0.133315
0.137643
0.144654
0.155454
0.168262
0.183541
0.200669
0.218818
0.227216
0.209845
0.182966
0.156813
0.147797
0.200244
0.319131
0.494375
0.71821
0.925345
1.12097
1.12177
0.869368
0.933124
1.29835
1.76154
2.01278
2.05595
1.90398
1.54708
1.05308
0.663112
0.356337
0.180817
0.231815
0.218611
0.197296
0.174095
0.162356
0.166385
0.171257
0.169897
0.157864
0.136178
0.105901
0.0901183
0.0907238
0.094702
0.105358
0.123213
0.144959
0.1695
0.19546
0.222215
0.243352
0.237816
0.21557
0.18598
0.165733
0.204182
0.314345
0.482426
0.707226
0.917285
1.12557
1.13234
0.91181
0.764665
0.988669
1.46691
1.8329
1.85066
1.72407
1.54213
1.11639
0.67736
0.357974
0.192059
0.213643
0.193658
0.174519
0.164586
0.166089
0.170456
0.166509
0.151165
0.123873
0.092573
0.0656432
0.0560007
0.0557277
0.0576514
0.0657756
0.0846259
0.1125
0.146166
0.182192
0.219348
0.253217
0.260191
0.242747
0.211582
0.182493
0.207921
0.308305
0.468144
0.692325
0.905061
1.12765
1.16728
0.998508
0.746155
0.723199
1.02911
1.40855
1.49276
1.45827
1.47597
1.18681
0.709603
0.365072
0.206011
0.200293
0.182709
0.171813
0.168535
0.168338
0.163675
0.14536
0.113468
0.0794831
0.0540222
0.0450612
0.0474815
0.0496292
0.048056
0.0477233
0.0558746
0.0793048
0.117103
0.162744
0.211506
0.258755
0.278762
0.265345
0.233568
0.197761
0.212124
0.302868
0.455795
0.677167
0.894233
1.12901
1.22807
1.09376
0.791774
0.611406
0.726098
0.992894
1.07912
1.14364
1.2248
1.11337
0.720813
0.373419
0.221876
0.193699
0.181198
0.173495
0.168049
0.16077
0.141141
0.106924
0.068855
0.0458227
0.0396468
0.0469346
0.0756469
0.088188
0.0829655
0.0671536
0.056598
0.0641876
0.0931328
0.141836
0.200618
0.261025
0.294234
0.283942
0.251911
0.211094
0.216638
0.299252
0.449852
0.673978
0.90014
1.14272
1.32929
1.23965
0.953274
0.708244
0.696558
0.78879
0.752649
0.793695
0.868736
0.902987
0.690712
0.388185
0.239008
0.186508
0.176978
0.168511
0.157698
0.13748
0.100916
0.0617846
0.038463
0.0361871
0.04668
0.0816252
0.140262
0.155357
0.148156
0.126232
0.0895904
0.0769715
0.089224
0.128324
0.190506
0.261131
0.30775
0.299836
0.267316
0.22322
0.222453
0.301581
0.454607
0.682738
0.917146
1.17448
1.44446
1.44233
1.23515
0.949583
0.80067
0.770394
0.663835
0.546774
0.577379
0.679975
0.622534
0.404953
0.254899
0.177314
0.168014
0.155796
0.135146
0.0972353
0.0553823
0.0315735
0.031141
0.0444975
0.0799558
0.139001
0.209028
0.221856
0.212815
0.188077
0.143673
0.104176
0.10325
0.128864
0.186173
0.261898
0.320178
0.314516
0.280641
0.233999
0.230329
0.311095
0.474653
0.70986
0.94741
1.22098
1.51382
1.55818
1.42754
1.16872
0.921483
0.808248
0.68235
0.537429
0.505328
0.54154
0.548959
0.414399
0.265159
0.163943
0.151874
0.132158
0.096468
0.0511217
0.0254629
0.0242397
0.0382808
0.0750791
0.129835
0.200588
0.274228
0.283852
0.273323
0.245959
0.198987
0.141636
0.126211
0.140372
0.188665
0.264314
0.332126
0.329035
0.292234
0.244352
0.242808
0.331753
0.513492
0.755442
0.978216
1.24069
1.42542
1.43412
1.35222
1.18215
0.969665
0.833358
0.716663
0.57707
0.518801
0.493961
0.492555
0.406432
0.272555
0.144456
0.126411
0.0953858
0.0494424
0.0210826
0.0177495
0.0282675
0.0636089
0.11796
0.183164
0.261091
0.333689
0.339836
0.327362
0.297971
0.249318
0.183078
0.153821
0.159659
0.196289
0.26662
0.336001
0.340858
0.302383
0.254931
0.258695
0.365327
0.57283
0.823668
1.00115
1.13733
1.1891
1.17428
1.10225
0.946553
0.849098
0.817627
0.742087
0.621464
0.529575
0.48653
0.460784
0.391075
0.278748
0.11596
0.0889453
0.0479726
0.018026
0.0123702
0.0188357
0.0464646
0.0988953
0.163996
0.234949
0.319012
0.384549
0.388683
0.374765
0.343824
0.29395
0.223452
0.183369
0.183231
0.208604
0.265055
0.329294
0.34262
0.311172
0.268548
0.284294
0.416159
0.65345
0.906352
1.01709
0.954977
0.902794
0.883607
0.813441
0.698987
0.728347
0.797246
0.759286
0.657493
0.548893
0.508261
0.469233
0.392765
0.288534
0.0775547
0.0428179
0.0151181
0.00783184
0.0114019
0.0305582
0.0737476
0.137841
0.20905
0.283614
0.370057
0.428819
0.431001
0.416375
0.383919
0.33313
0.260785
0.213287
0.208363
0.225822
0.267326
0.321061
0.338783
0.317625
0.287993
0.323116
0.488068
0.751855
0.989325
1.04379
0.898149
0.722354
0.645025
0.60606
0.630792
0.732016
0.805658
0.775715
0.685711
0.571518
0.532554
0.490306
0.406203
0.304142
0.0339443
0.0114138
0.00453345
0.00608772
0.0180121
0.0497874
0.105399
0.176246
0.252017
0.327844
0.414779
0.466879
0.467617
0.451742
0.418554
0.367368
0.294366
0.242559
0.234029
0.246886
0.280195
0.32155
0.338387
0.327223
0.317422
0.382
0.581285
0.859065
1.06585
1.09425
0.968232
0.761551
0.629936
0.626007
0.681434
0.775518
0.822181
0.792498
0.709405
0.590024
0.535712
0.493789
0.416483
0.321849
0.00721719
0.00242002
0.00287072
0.00896894
0.0298274
0.0734609
0.137951
0.212716
0.291916
0.367417
0.453319
0.499428
0.498651
0.481642
0.448407
0.397374
0.324403
0.270492
0.259855
0.27044
0.300559
0.335921
0.352423
0.353779
0.366929
0.465099
0.691362
0.963965
1.12188
1.13143
1.04297
0.918634
0.807369
0.741027
0.756082
0.811674
0.840495
0.808162
0.728694
0.603935
0.522585
0.474271
0.410921
0.333242
0.0011323
0.00129225
0.00380075
0.0148929
0.0452251
0.0993069
0.169212
0.247498
0.327836
0.402036
0.485829
0.526895
0.524849
0.507056
0.474189
0.423922
0.351525
0.296839
0.28563
0.295786
0.326409
0.363723
0.389121
0.408296
0.447191
0.573858
0.81269
1.04605
1.14807
1.15304
1.11816
1.05861
0.967884
0.860399
0.820159
0.840812
0.856118
0.821821
0.744348
0.61844
0.507645
0.445958
0.396658
0.339454
0.000594662
0.00160005
0.00631936
0.0232068
0.0633229
0.12543
0.199188
0.280044
0.35957
0.431605
0.512602
0.549967
0.547079
0.52834
0.496818
0.447883
0.376495
0.321723
0.311349
0.323103
0.358188
0.404882
0.448595
0.492089
0.556379
0.701824
0.929165
1.09498
1.15716
1.17416
1.19846
1.18353
1.10211
0.965378
0.87669
0.868679
0.867781
0.832524
0.75613
0.633065
0.510219
0.439286
0.39555
0.345828
0.000731915
0.00250695
0.00990356
0.0337304
0.0827863
0.150644
0.22741
0.30962
0.386794
0.455892
0.534081
0.568961
0.566085
0.547746
0.517084
0.470279
0.400416
0.345169
0.337101
0.353159
0.398245
0.461962
0.530172
0.600126
0.683966
0.836285
1.03142
1.14329
1.18195
1.20705
1.27255
1.28373
1.20313
1.04431
0.927483
0.896419
0.879852
0.840591
0.764041
0.645239
0.524675
0.452899
0.404964
0.352883
0.00102234
0.00374347
0.0147762
0.0460785
0.102653
0.174614
0.253945
0.336089
0.409326
0.474958
0.549539
0.584733
0.582513
0.564053
0.536026
0.492001
0.424155
0.367897
0.363085
0.38758
0.449914
0.536997
0.631151
0.717056
0.809229
0.959648
1.12688
1.21045
1.22706
1.24361
1.3104
1.32796
1.2522
1.0957
0.9682
0.921313
0.891424
0.84579
0.768454
0.654121
0.540869
0.470357
0.416997
0.360013
0.0013807
0.00544085
0.0208859
0.0595242
0.121757
0.196506
0.278089
0.358748
0.427329
0.488693
0.558105
0.596479
0.596286
0.579586
0.554807
0.513782
0.448362
0.39222
0.390856
0.429012
0.51501
0.624316
0.73032
0.823169
0.920891
1.07519
1.22346
1.2775
1.26659
1.24563
1.26484
1.29087
1.25463
1.13298
0.998151
0.939539
0.899766
0.848018
0.76958
0.660116
0.554661
0.485372
0.428069
0.36638
0.0018522
0.00768122
0.0280063
0.0731381
0.139395
0.216841
0.29954
0.377138
0.441258
0.498135
0.559318
0.603443
0.607729
0.595876
0.573051
0.536131
0.474005
0.420609
0.421035
0.476781
0.577229
0.699378
0.816902
0.92424
1.0387
1.19801
1.31669
1.33243
1.28858
1.20675
1.15816
1.21629
1.23423
1.15234
1.01682
0.950039
0.903434
0.847087
0.767783
0.663447
0.565782
0.497502
0.43785
0.371631
0.00243944
0.0103911
0.0356199
0.0860119
0.15504
0.23525
0.317821
0.391017
0.451557
0.504742
0.555135
0.605099
0.616648
0.610965
0.591245
0.559292
0.501935
0.45424
0.455575
0.510256
0.623576
0.765761
0.908561
1.04219
1.17561
1.32123
1.39382
1.36681
1.28459
1.17022
1.12618
1.1649
1.18542
1.13006
1.01905
0.95316
0.902176
0.842858
0.763493
0.664667
0.574917
0.507789
0.44664
0.375717
0.00317827
0.0135459
0.0432872
0.0979676
0.169205
0.25142
0.332216
0.400913
0.458454
0.509422
0.551915
0.601017
0.623719
0.623595
0.609745
0.583439
0.533201
0.494169
0.499717
0.550443
0.680856
0.850992
1.02415
1.18479
1.32011
1.43074
1.44825
1.37734
1.2661
1.15445
1.14155
1.09838
1.08589
1.0635
1.00475
0.949634
0.896285
0.8355
0.757045
0.664317
0.582677
0.517151
0.454587
0.378609
0.00409611
0.0169765
0.0507211
0.108514
0.181727
0.265028
0.342341
0.407077
0.4621
0.512739
0.552095
0.593552
0.626117
0.63333
0.626708
0.60831
0.568511
0.541185
0.557598
0.629959
0.777933
0.96949
1.1664
1.33583
1.45398
1.5222
1.48108
1.3707
1.24425
1.13528
1.06691
0.981744
0.952519
0.978877
0.979413
0.94147
0.886556
0.825116
0.748793
0.663002
0.589486
0.526456
0.462059
0.378952
0.00518729
0.0206082
0.0578738
0.117681
0.192463
0.275634
0.348389
0.409905
0.464338
0.513728
0.553042
0.585091
0.624599
0.640439
0.642018
0.633832
0.607651
0.594779
0.628749
0.735733
0.907872
1.1114
1.31498
1.47832
1.57589
1.59324
1.49198
1.3423
1.21423
1.10642
0.971813
0.854858
0.849077
0.919446
0.957165
0.927614
0.872787
0.812053
0.739189
0.661417
0.595966
0.53586
0.468816
0.369822
0.00644676
0.0243303
0.0641971
0.125377
0.20101
0.282626
0.350908
0.410777
0.463673
0.512101
0.552531
0.580659
0.621679
0.647087
0.655849
0.659252
0.649814
0.652963
0.708656
0.847342
1.04094
1.2507
1.45413
1.61101
1.68656
1.64062
1.46802
1.29327
1.17841
1.07148
0.922327
0.799265
0.82339
0.907627
0.941859
0.910107
0.854675
0.796645
0.7288
0.660174
0.602718
0.545478
0.467002
0.342965
0.00777319
0.0278991
0.0695985
0.131574
0.207099
0.286018
0.351001
0.407997
0.460286
0.508472
0.550233
0.579757
0.621155
0.654773
0.667658
0.683815
0.693539
0.712832
0.792323
0.95538
1.16366
1.37841
1.58243
1.73496
1.78088
1.63949
1.39957
1.23707
1.14005
1.03982
0.912894
0.839436
0.863321
0.919358
0.928623
0.888647
0.832732
0.779028
0.718009
0.659767
0.609611
0.547017
0.444453
0.300285
0.00912334
0.0309322
0.073859
0.136175
0.210653
0.286465
0.346907
0.402044
0.454392
0.503119
0.545944
0.579151
0.622363
0.661161
0.675864
0.701514
0.734278
0.772982
0.874821
1.05633
1.27549
1.49677
1.70109
1.84499
1.81009
1.55856
1.30049
1.18268
1.10387
1.02373
0.944427
0.914053
0.924478
0.937103
0.915584
0.862542
0.807717
0.759493
0.707419
0.660181
0.610617
0.525848
0.400496
0.257532
0.0103477
0.0333269
0.0771146
0.138953
0.211876
0.282762
0.339234
0.393121
0.445932
0.495999
0.540455
0.576963
0.617059
0.662292
0.682732
0.71197
0.765301
0.830677
0.952073
1.14785
1.37755
1.60682
1.80783
1.88602
1.71051
1.40468
1.2036
1.13243
1.0733
1.02254
0.996115
0.99382
0.982212
0.950799
0.897536
0.832538
0.779721
0.737902
0.696941
0.656231
0.589582
0.481777
0.348318
0.225621
0.0114012
0.0351522
0.0793143
0.139868
0.210467
0.275091
0.328104
0.381157
0.435008
0.487109
0.533835
0.57307
0.606219
0.659591
0.689693
0.719918
0.782085
0.875016
1.01837
1.2285
1.47123
1.70867
1.87383
1.7811
1.50214
1.23306
1.12854
1.08621
1.04912
1.03224
1.0563
1.06809
1.0306
0.956239
0.872581
0.800081
0.748899
0.711659
0.678872
0.629793
0.544388
0.428735
0.306453
0.199558
0.0122624
0.0364374
0.0803748
0.139288
0.205348
0.263982
0.31365
0.366168
0.421451
0.476406
0.526149
0.568072
0.598532
0.655784
0.694936
0.728751
0.787166
0.898796
1.06603
1.29768
1.55801
1.78994
1.79991
1.57079
1.26735
1.10382
1.06881
1.04467
1.03149
1.05303
1.12235
1.1391
1.07029
0.951223
0.842007
0.765165
0.714707
0.674214
0.63504
0.57652
0.486283
0.383947
0.274258
0.176366
0.0128963
0.0371875
0.0803524
0.136336
0.19719
0.249421
0.295939
0.348222