/*--------------------------------*- C++ -*----------------------------------*\
| =========                 |                                                 |
| \\      /  F ield         | OpenFOAM: The Open Source CFD Toolbox           |
|  \\    /   O peration     | Version:  v1912                                 |
|   \\  /    A nd           | Website:  www.openfoam.com                      |
|    \\/     M anipulation  |                                                 |
\*---------------------------------------------------------------------------*/
FoamFile
{
    version     2.0;
    format      ascii;
    class       volScalarField;
    location    "30";
    object      k;
}
// * * * * * * * * * * * * * * * * * * * * * * * * * * * * * * * * * * * * * //

dimensions      [0 2 -2 0 0 0 0];


internalField   nonuniform List<scalar> 
14268
(
5.4684e-09
5.5394e-09
5.73191e-09
5.96248e-09
6.14756e-09
6.22845e-09
6.17846e-09
6.0493e-09
5.91362e-09
5.77893e-09
5.65054e-09
5.53138e-09
5.42073e-09
5.31648e-09
5.21502e-09
5.11687e-09
5.01952e-09
4.92781e-09
4.83746e-09
4.74801e-09
4.64902e-09
4.54616e-09
4.44611e-09
4.37113e-09
4.40008e-09
4.63071e-09
4.8932e-09
5.02378e-09
4.99004e-09
4.93373e-09
4.8857e-09
4.88084e-09
4.99458e-09
5.59512e-09
7.14767e-09
1.12026e-08
2.03599e-08
3.48756e-08
5.08859e-08
6.2062e-08
5.65458e-08
4.68368e-08
3.55258e-08
2.05212e-08
8.19229e-08
8.20599e-08
8.25013e-08
8.30552e-08
8.35261e-08
8.37777e-08
8.37408e-08
8.3428e-08
8.28977e-08
8.22646e-08
8.163e-08
8.10736e-08
8.06021e-08
8.01645e-08
7.96795e-08
7.91328e-08
7.85245e-08
7.79362e-08
7.73176e-08
7.66042e-08
7.56078e-08
7.44067e-08
7.32471e-08
7.26262e-08
7.27195e-08
7.34879e-08
7.4331e-08
7.48194e-08
7.46987e-08
7.41949e-08
7.36342e-08
7.35846e-08
7.43916e-08
7.72596e-08
8.34723e-08
9.63555e-08
1.17696e-07
1.46467e-07
1.78619e-07
2.08889e-07
2.07801e-07
2.02067e-07
1.91684e-07
1.61283e-07
1.33362e-07
1.33439e-07
1.3362e-07
1.33845e-07
1.34037e-07
1.34147e-07
1.34152e-07
1.34039e-07
1.33804e-07
1.3352e-07
1.33232e-07
1.32995e-07
1.32802e-07
1.32627e-07
1.32408e-07
1.32162e-07
1.3187e-07
1.31612e-07
1.31306e-07
1.30965e-07
1.30419e-07
1.29792e-07
1.29157e-07
1.2891e-07
1.28992e-07
1.29382e-07
1.29712e-07
1.29937e-07
1.29843e-07
1.29568e-07
1.29198e-07
1.29183e-07
1.29563e-07
1.3096e-07
1.33683e-07
1.39613e-07
1.50918e-07
1.71043e-07
1.97978e-07
2.25341e-07
2.27434e-07
2.24548e-07
2.18157e-07
1.86948e-07
1.4418e-07
1.44199e-07
1.4425e-07
1.44312e-07
1.44372e-07
1.4441e-07
1.44415e-07
1.44387e-07
1.4432e-07
1.44242e-07
1.44161e-07
1.44102e-07
1.44054e-07
1.44012e-07
1.43939e-07
1.43884e-07
1.43792e-07
1.43743e-07
1.43646e-07
1.43574e-07
1.43384e-07
1.43216e-07
1.43016e-07
1.42995e-07
1.43014e-07
1.43152e-07
1.43183e-07
1.43237e-07
1.43149e-07
1.43063e-07
1.42902e-07
1.42922e-07
1.4299e-07
1.43449e-07
1.44286e-07
1.47102e-07
1.55091e-07
1.73216e-07
1.99109e-07
2.25288e-07
2.29156e-07
2.2657e-07
2.20861e-07
2.03416e-07
1.45836e-07
1.45835e-07
1.45842e-07
1.45858e-07
1.45874e-07
1.45882e-07
1.45877e-07
1.45866e-07
1.45846e-07
1.45827e-07
1.45809e-07
1.45804e-07
1.45794e-07
1.45787e-07
1.45758e-07
1.45746e-07
1.45732e-07
1.45745e-07
1.45719e-07
1.45724e-07
1.45668e-07
1.45672e-07
1.4563e-07
1.45692e-07
1.45672e-07
1.45722e-07
1.45651e-07
1.4565e-07
1.45565e-07
1.45557e-07
1.45478e-07
1.45517e-07
1.4549e-07
1.45638e-07
1.45925e-07
1.48001e-07
1.55397e-07
1.73297e-07
1.99199e-07
2.25591e-07
2.28294e-07
2.2679e-07
2.21237e-07
2.09766e-07
1.45952e-07
1.45946e-07
1.45947e-07
1.4597e-07
1.4598e-07
1.45988e-07
1.45984e-07
1.45975e-07
1.45959e-07
1.45951e-07
1.4594e-07
1.45941e-07
1.45941e-07
1.45939e-07
1.45917e-07
1.4593e-07
1.45896e-07
1.45926e-07
1.45905e-07
1.45935e-07
1.45897e-07
1.45929e-07
1.45916e-07
1.45986e-07
1.45979e-07
1.46002e-07
1.45917e-07
1.45913e-07
1.45818e-07
1.45826e-07
1.45762e-07
1.45802e-07
1.45748e-07
1.4584e-07
1.46063e-07
1.48056e-07
1.55389e-07
1.73317e-07
1.99477e-07
2.23936e-07
2.28675e-07
2.26661e-07
2.21007e-07
2.08992e-07
1.46036e-07
1.46037e-07
1.46041e-07
1.4605e-07
1.46065e-07
1.46071e-07
1.46067e-07
1.4606e-07
1.46048e-07
1.46041e-07
1.46031e-07
1.46033e-07
1.46032e-07
1.46032e-07
1.46013e-07
1.46009e-07
1.4601e-07
1.4603e-07
1.46014e-07
1.46042e-07
1.46009e-07
1.46047e-07
1.46047e-07
1.46123e-07
1.46081e-07
1.4612e-07
1.46034e-07
1.46015e-07
1.4593e-07
1.45938e-07
1.45878e-07
1.45918e-07
1.4586e-07
1.45942e-07
1.46127e-07
1.48077e-07
1.55386e-07
1.73261e-07
1.99572e-07
2.22569e-07
2.28395e-07
2.26593e-07
2.20337e-07
2.08329e-07
1.46014e-07
1.46003e-07
1.46007e-07
1.46017e-07
1.46031e-07
1.46036e-07
1.46031e-07
1.46022e-07
1.46011e-07
1.46001e-07
1.45993e-07
1.45996e-07
1.45994e-07
1.45992e-07
1.45966e-07
1.45971e-07
1.45959e-07
1.45991e-07
1.45978e-07
1.46002e-07
1.45976e-07
1.46019e-07
1.46012e-07
1.46088e-07
1.46081e-07
1.46101e-07
1.45998e-07
1.4599e-07
1.45899e-07
1.45909e-07
1.45847e-07
1.4589e-07
1.45828e-07
1.45901e-07
1.4609e-07
1.48054e-07
1.55356e-07
1.73242e-07
2.00932e-07
2.1995e-07
2.28829e-07
2.26475e-07
2.1989e-07
2.07766e-07
1.46032e-07
1.46027e-07
1.46028e-07
1.46045e-07
1.46055e-07
1.46061e-07
1.46059e-07
1.46053e-07
1.46036e-07
1.46034e-07
1.46025e-07
1.46027e-07
1.46023e-07
1.46025e-07
1.46012e-07
1.46023e-07
1.45994e-07
1.46025e-07
1.46007e-07
1.46044e-07
1.46007e-07
1.4604e-07
1.46041e-07
1.46111e-07
1.4608e-07
1.46108e-07
1.46025e-07
1.4601e-07
1.4592e-07
1.45935e-07
1.45873e-07
1.45907e-07
1.4585e-07
1.45931e-07
1.46117e-07
1.48039e-07
1.55348e-07
1.73236e-07
2.01504e-07
2.18954e-07
2.2859e-07
2.26776e-07
2.19945e-07
2.06551e-07
1.46016e-07
1.46013e-07
1.46016e-07
1.46027e-07
1.46039e-07
1.4605e-07
1.46043e-07
1.46033e-07
1.46025e-07
1.46016e-07
1.46007e-07
1.46011e-07
1.46008e-07
1.46011e-07
1.45989e-07
1.45986e-07
1.4599e-07
1.46009e-07
1.46003e-07
1.4602e-07
1.46005e-07
1.46057e-07
1.46053e-07
1.46122e-07
1.46098e-07
1.46123e-07
1.46028e-07
1.46019e-07
1.45929e-07
1.45934e-07
1.45881e-07
1.45927e-07
1.45862e-07
1.45924e-07
1.46091e-07
1.4805e-07
1.55318e-07
1.73174e-07
2.01307e-07
2.16562e-07
2.26653e-07
2.24557e-07
2.18293e-07
2.06716e-07
1.4603e-07
1.46024e-07
1.46025e-07
1.46037e-07
1.46051e-07
1.46055e-07
1.46057e-07
1.46048e-07
1.46038e-07
1.46026e-07
1.46016e-07
1.46017e-07
1.4602e-07
1.46014e-07
1.45987e-07
1.45996e-07
1.45981e-07
1.46012e-07
1.45987e-07
1.46019e-07
1.45978e-07
1.46018e-07
1.46019e-07
1.46103e-07
1.46074e-07
1.46104e-07
1.46018e-07
1.45997e-07
1.45913e-07
1.45923e-07
1.45862e-07
1.45898e-07
1.45829e-07
1.459e-07
1.46081e-07
1.48002e-07
1.55298e-07
1.73109e-07
2.01219e-07
2.17894e-07
2.2172e-07
2.20318e-07
2.15328e-07
2.0387e-07
1.46023e-07
1.46019e-07
1.46021e-07
1.46033e-07
1.46049e-07
1.4605e-07
1.46048e-07
1.46045e-07
1.4603e-07
1.46032e-07
1.46027e-07
1.46035e-07
1.46033e-07
1.46036e-07
1.46026e-07
1.46034e-07
1.4602e-07
1.46045e-07
1.46039e-07
1.46077e-07
1.46043e-07
1.46081e-07
1.46069e-07
1.46145e-07
1.46121e-07
1.46142e-07
1.46048e-07
1.46042e-07
1.45953e-07
1.4597e-07
1.45907e-07
1.4594e-07
1.4588e-07
1.45942e-07
1.46108e-07
1.48039e-07
1.55286e-07
1.73065e-07
2.01016e-07
2.18702e-07
2.17097e-07
2.12817e-07
2.07572e-07
2.00442e-07
1.46027e-07
1.46021e-07
1.4602e-07
1.46033e-07
1.46039e-07
1.46052e-07
1.46039e-07
1.46031e-07
1.46021e-07
1.46005e-07
1.45991e-07
1.45988e-07
1.45983e-07
1.45978e-07
1.45949e-07
1.45953e-07
1.45938e-07
1.45965e-07
1.45949e-07
1.45969e-07
1.4594e-07
1.45984e-07
1.4599e-07
1.46058e-07
1.46029e-07
1.46065e-07
1.45981e-07
1.45968e-07
1.45877e-07
1.45889e-07
1.45827e-07
1.45864e-07
1.45797e-07
1.45876e-07
1.46053e-07
1.47971e-07
1.55279e-07
1.72859e-07
1.97285e-07
2.11928e-07
2.12521e-07
2.08096e-07
2.01372e-07
1.92657e-07
1.46039e-07
1.46032e-07
1.46031e-07
1.46051e-07
1.46067e-07
1.46076e-07
1.46083e-07
1.46077e-07
1.46071e-07
1.46076e-07
1.4607e-07
1.46081e-07
1.46089e-07
1.46098e-07
1.46088e-07
1.46098e-07
1.46088e-07
1.46124e-07
1.46106e-07
1.46141e-07
1.46111e-07
1.46148e-07
1.46137e-07
1.46217e-07
1.46194e-07
1.4621e-07
1.46107e-07
1.46098e-07
1.46015e-07
1.46024e-07
1.45963e-07
1.45996e-07
1.45931e-07
1.45974e-07
1.46122e-07
1.48033e-07
1.55276e-07
1.72651e-07
1.89119e-07
2.06409e-07
2.08941e-07
2.05448e-07
1.98702e-07
1.89563e-07
1.4599e-07
1.45982e-07
1.45989e-07
1.45997e-07
1.4601e-07
1.46017e-07
1.46011e-07
1.46e-07
1.45978e-07
1.45965e-07
1.45953e-07
1.45951e-07
1.45944e-07
1.45938e-07
1.45911e-07
1.45911e-07
1.45894e-07
1.45917e-07
1.45904e-07
1.45934e-07
1.45906e-07
1.45953e-07
1.45954e-07
1.4603e-07
1.46004e-07
1.46032e-07
1.45942e-07
1.4593e-07
1.45834e-07
1.45846e-07
1.45781e-07
1.45816e-07
1.45745e-07
1.4582e-07
1.45993e-07
1.47907e-07
1.55234e-07
1.72796e-07
1.8326e-07
1.97193e-07
2.0493e-07
2.03558e-07
1.97195e-07
1.83529e-07
1.4609e-07
1.4609e-07
1.46088e-07
1.46103e-07
1.46114e-07
1.46122e-07
1.46121e-07
1.46125e-07
1.4613e-07
1.46132e-07
1.4613e-07
1.4614e-07
1.46146e-07
1.46154e-07
1.4614e-07
1.46153e-07
1.4615e-07
1.46181e-07
1.46166e-07
1.46194e-07
1.46157e-07
1.46181e-07
1.4617e-07
1.46237e-07
1.46203e-07
1.46231e-07
1.46141e-07
1.46127e-07
1.46059e-07
1.46073e-07
1.46015e-07
1.46045e-07
1.45976e-07
1.46014e-07
1.46138e-07
1.47985e-07
1.55307e-07
1.7156e-07
1.77816e-07
1.8765e-07
1.99666e-07
2.10335e-07
2.05318e-07
1.88779e-07
1.45941e-07
1.45923e-07
1.45924e-07
1.45936e-07
1.45954e-07
1.45962e-07
1.45956e-07
1.45933e-07
1.45905e-07
1.4589e-07
1.45873e-07
1.45868e-07
1.45855e-07
1.45848e-07
1.45821e-07
1.45816e-07
1.45792e-07
1.4582e-07
1.45808e-07
1.45843e-07
1.45832e-07
1.45901e-07
1.45909e-07
1.4599e-07
1.45971e-07
1.45989e-07
1.45892e-07
1.45882e-07
1.45773e-07
1.45777e-07
1.45712e-07
1.45745e-07
1.45669e-07
1.45736e-07
1.45908e-07
1.47828e-07
1.55053e-07
1.66666e-07
1.73611e-07
1.85182e-07
1.97792e-07
2.26747e-07
2.24692e-07
1.99024e-07
1.46125e-07
1.46131e-07
1.46132e-07
1.46134e-07
1.46137e-07
1.46144e-07
1.46148e-07
1.46161e-07
1.46166e-07
1.46168e-07
1.46169e-07
1.4618e-07
1.46192e-07
1.46204e-07
1.46193e-07
1.46207e-07
1.46199e-07
1.46228e-07
1.46212e-07
1.46236e-07
1.46186e-07
1.46197e-07
1.46181e-07
1.46249e-07
1.46217e-07
1.46235e-07
1.46135e-07
1.46116e-07
1.46053e-07
1.46074e-07
1.46015e-07
1.46046e-07
1.45974e-07
1.45993e-07
1.46072e-07
1.47827e-07
1.54353e-07
1.58596e-07
1.68754e-07
1.83971e-07
2.01453e-07
2.3981e-07
2.491e-07
2.1855e-07
1.45836e-07
1.45811e-07
1.45811e-07
1.45836e-07
1.45857e-07
1.45861e-07
1.45848e-07
1.45817e-07
1.45789e-07
1.45774e-07
1.45748e-07
1.45734e-07
1.45711e-07
1.45692e-07
1.45661e-07
1.4566e-07
1.45646e-07
1.45675e-07
1.45664e-07
1.457e-07
1.457e-07
1.45777e-07
1.45784e-07
1.45843e-07
1.45814e-07
1.45844e-07
1.4576e-07
1.45752e-07
1.45639e-07
1.45639e-07
1.45584e-07
1.45616e-07
1.45537e-07
1.45596e-07
1.45714e-07
1.47418e-07
1.53077e-07
1.51262e-07
1.62209e-07
1.82885e-07
2.0359e-07
2.43137e-07
2.78049e-07
2.44377e-07
1.46215e-07
1.4621e-07
1.46188e-07
1.4616e-07
1.4614e-07
1.46135e-07
1.46136e-07
1.46155e-07
1.46157e-07
1.46164e-07
1.46176e-07
1.462e-07
1.46222e-07
1.46238e-07
1.46228e-07
1.46235e-07
1.46221e-07
1.46251e-07
1.46239e-07
1.46265e-07
1.46216e-07
1.46236e-07
1.46232e-07
1.46322e-07
1.46289e-07
1.46258e-07
1.46106e-07
1.46058e-07
1.45991e-07
1.46004e-07
1.45939e-07
1.45969e-07
1.45885e-07
1.45827e-07
1.45725e-07
1.46894e-07
1.50118e-07
1.4699e-07
1.59694e-07
1.83971e-07
2.12637e-07
2.52752e-07
3.06639e-07
2.74533e-07
1.45575e-07
1.45544e-07
1.45518e-07
1.45516e-07
1.45506e-07
1.45483e-07
1.45445e-07
1.45405e-07
1.45379e-07
1.4536e-07
1.45327e-07
1.45312e-07
1.45289e-07
1.45269e-07
1.45238e-07
1.45249e-07
1.45253e-07
1.45284e-07
1.45271e-07
1.45309e-07
1.45314e-07
1.45387e-07
1.45388e-07
1.45428e-07
1.45372e-07
1.4536e-07
1.45211e-07
1.45171e-07
1.45036e-07
1.45044e-07
1.45012e-07
1.4505e-07
1.44958e-07
1.44944e-07
1.44756e-07
1.45492e-07
1.47273e-07
1.44789e-07
1.58585e-07
1.84461e-07
2.17914e-07
2.61597e-07
3.30515e-07
3.05878e-07
1.45769e-07
1.45724e-07
1.4566e-07
1.45593e-07
1.45536e-07
1.45494e-07
1.45483e-07
1.45482e-07
1.45474e-07
1.45472e-07
1.45465e-07
1.45468e-07
1.45464e-07
1.45463e-07
1.45447e-07
1.45455e-07
1.45447e-07
1.45485e-07
1.45483e-07
1.45518e-07
1.45492e-07
1.45537e-07
1.45541e-07
1.45613e-07
1.45556e-07
1.45499e-07
1.45298e-07
1.4521e-07
1.45088e-07
1.45062e-07
1.44944e-07
1.44899e-07
1.44663e-07
1.44358e-07
1.43448e-07
1.41626e-07
1.35519e-07
1.48051e-07
1.8695e-07
2.52813e-07
3.35375e-07
4.31929e-07
5.58754e-07
5.94011e-07
1.37719e-07
1.37276e-07
1.36517e-07
1.35618e-07
1.34773e-07
1.34149e-07
1.33849e-07
1.33822e-07
1.3389e-07
1.34001e-07
1.3411e-07
1.34202e-07
1.34255e-07
1.34297e-07
1.34324e-07
1.34402e-07
1.34484e-07
1.34611e-07
1.3471e-07
1.349e-07
1.35126e-07
1.35503e-07
1.35803e-07
1.35987e-07
1.35636e-07
1.34701e-07
1.33408e-07
1.32478e-07
1.32004e-07
1.31907e-07
1.31701e-07
1.31282e-07
1.29754e-07
1.2622e-07
1.17232e-07
1.03469e-07
1.15564e-07
1.93708e-07
3.39295e-07
4.76103e-07
6.98997e-07
1.26912e-06
2.66491e-06
4.8693e-06
7.97956e-08
7.85598e-08
7.66521e-08
7.44966e-08
7.25358e-08
7.10815e-08
7.02857e-08
7.01161e-08
7.03709e-08
7.08233e-08
7.12578e-08
7.15354e-08
7.16326e-08
7.16822e-08
7.18244e-08
7.21661e-08
7.26157e-08
7.30892e-08
7.3539e-08
7.42855e-08
7.55918e-08
7.75451e-08
7.92819e-08
7.98814e-08
7.86148e-08
7.5578e-08
7.20432e-08
6.94557e-08
6.83431e-08
6.82482e-08
6.80471e-08
6.61176e-08
6.12629e-08
5.32164e-08
4.9696e-08
7.35507e-08
1.67768e-07
3.24741e-07
5.14371e-07
7.28467e-07
1.28366e-06
2.9756e-06
9.47913e-06
3.88257e-05
2.95321e-08
2.79386e-08
2.59716e-08
2.39623e-08
2.2199e-08
2.0826e-08
1.98672e-08
1.9305e-08
1.90723e-08
1.89977e-08
1.89303e-08
1.8769e-08
1.85178e-08
1.82528e-08
1.80843e-08
1.80323e-08
1.80568e-08
1.80156e-08
1.79394e-08
1.78649e-08
1.80284e-08
1.84134e-08
1.88903e-08
1.8659e-08
1.74712e-08
1.53681e-08
1.31926e-08
1.08886e-08
8.91118e-09
7.46062e-09
7.38787e-09
8.08393e-09
8.42887e-09
8.6589e-09
2.69444e-08
1.28391e-07
2.28782e-07
2.61695e-07
2.92568e-07
3.54434e-07
4.70357e-07
8.10489e-07
1.73934e-06
5.41085e-06
3.4687e-09
3.05255e-09
2.6541e-09
2.30097e-09
2.01026e-09
1.76958e-09
1.56057e-09
1.47676e-09
1.57517e-09
1.73673e-09
1.86396e-09
1.90087e-09
1.86088e-09
1.79573e-09
1.75862e-09
1.7679e-09
1.78686e-09
1.76468e-09
1.74748e-09
1.77691e-09
1.90674e-09
2.09385e-09
2.26373e-09
2.18047e-09
1.86886e-09
1.54314e-09
1.26052e-09
9.23806e-10
7.17237e-10
7.71725e-10
1.23233e-09
2.47865e-09
4.3162e-09
6.29524e-09
1.03723e-08
2.64909e-08
7.62913e-08
2.06265e-07
5.07218e-07
9.16604e-07
1.16002e-06
1.20449e-06
1.25855e-06
2.92917e-06
1.85954e-09
1.80983e-09
1.83231e-09
1.90269e-09
1.96639e-09
1.95875e-09
1.83929e-09
1.6719e-09
1.55036e-09
1.48758e-09
1.46214e-09
1.44668e-09
1.43237e-09
1.42678e-09
1.43446e-09
1.4397e-09
1.41671e-09
1.35579e-09
1.27622e-09
1.16992e-09
1.01512e-09
8.8479e-10
8.18389e-10
7.55061e-10
6.95061e-10
6.83097e-10
6.93007e-10
6.69913e-10
5.85068e-10
4.53772e-10
3.47336e-10
3.99645e-10
6.12893e-10
8.89077e-10
1.05104e-09
2.02576e-09
5.54353e-09
3.04028e-08
1.10497e-07
1.9811e-07
2.48437e-07
4.01314e-07
4.51459e-07
5.83309e-07
6.35826e-08
6.61919e-08
7.05859e-08
7.56163e-08
7.97318e-08
8.19642e-08
8.21593e-08
8.04011e-08
7.71854e-08
7.35831e-08
7.04873e-08
6.83066e-08
6.68869e-08
6.57468e-08
6.43936e-08
6.2523e-08
6.06938e-08
5.93951e-08
5.83431e-08
5.62981e-08
5.20136e-08
4.5917e-08
4.04067e-08
3.72965e-08
3.92237e-08
4.85605e-08
6.17559e-08
7.30836e-08
7.84538e-08
7.85558e-08
7.6743e-08
7.33432e-08
7.32715e-08
7.98494e-08
8.70104e-08
8.16008e-08
6.68037e-08
6.06885e-08
6.29939e-08
6.87661e-08
7.47637e-08
9.29885e-08
1.13346e-07
2.30757e-07
1.43779e-07
1.45266e-07
1.46884e-07
1.48543e-07
1.50341e-07
1.52254e-07
1.54243e-07
1.55858e-07
1.56614e-07
1.56731e-07
1.56745e-07
1.57188e-07
1.58104e-07
1.59169e-07
1.59926e-07
1.60185e-07
1.60373e-07
1.61302e-07
1.63281e-07
1.65135e-07
1.65127e-07
1.62339e-07
1.59956e-07
1.62666e-07
1.71635e-07
1.81031e-07
1.90366e-07
1.99851e-07
2.08918e-07
2.11365e-07
2.10834e-07
2.08444e-07
2.05501e-07
1.94825e-07
1.78378e-07
1.59893e-07
1.46154e-07
1.39776e-07
1.39823e-07
1.42451e-07
1.51228e-07
1.6606e-07
1.89331e-07
2.47e-07
1.44677e-07
1.44718e-07
1.44863e-07
1.45078e-07
1.45294e-07
1.45464e-07
1.45522e-07
1.45631e-07
1.45888e-07
1.46218e-07
1.46565e-07
1.469e-07
1.47236e-07
1.47642e-07
1.48092e-07
1.48606e-07
1.4917e-07
1.49745e-07
1.50489e-07
1.51448e-07
1.52686e-07
1.53885e-07
1.54833e-07
1.55568e-07
1.56173e-07
1.56763e-07
1.5738e-07
1.58067e-07
1.58992e-07
1.60109e-07
1.60255e-07
1.58524e-07
1.55501e-07
1.52621e-07
1.50672e-07
1.48585e-07
1.48322e-07
1.49516e-07
1.51251e-07
1.54301e-07
1.62249e-07
1.75147e-07
1.93966e-07
2.53672e-07
1.45609e-07
1.45439e-07
1.45257e-07
1.45078e-07
1.4496e-07
1.4492e-07
1.44955e-07
1.45041e-07
1.45107e-07
1.45199e-07
1.45286e-07
1.45324e-07
1.45352e-07
1.45421e-07
1.45587e-07
1.45785e-07
1.4591e-07
1.4601e-07
1.45997e-07
1.45911e-07
1.45912e-07
1.4609e-07
1.46368e-07
1.46496e-07
1.46382e-07
1.46105e-07
1.45885e-07
1.4583e-07
1.46055e-07
1.464e-07
1.46728e-07
1.4685e-07
1.46928e-07
1.46718e-07
1.4658e-07
1.46688e-07
1.47804e-07
1.48975e-07
1.51215e-07
1.54099e-07
1.57855e-07
1.66215e-07
1.7717e-07
2.0452e-07
1.45466e-07
1.45472e-07
1.45547e-07
1.45672e-07
1.45792e-07
1.45868e-07
1.4589e-07
1.45824e-07
1.4574e-07
1.45634e-07
1.45512e-07
1.45414e-07
1.45329e-07
1.45254e-07
1.45175e-07
1.45103e-07
1.45052e-07
1.44966e-07
1.44929e-07
1.45052e-07
1.45327e-07
1.45602e-07
1.45753e-07
1.45707e-07
1.45686e-07
1.45795e-07
1.46006e-07
1.46247e-07
1.46491e-07
1.46786e-07
1.47042e-07
1.4731e-07
1.4755e-07
1.47558e-07
1.47942e-07
1.4771e-07
1.48709e-07
1.50821e-07
1.52122e-07
1.54373e-07
1.59683e-07
1.70331e-07
1.78813e-07
2.06366e-07
1.45827e-07
1.45753e-07
1.45646e-07
1.45523e-07
1.45413e-07
1.45342e-07
1.45311e-07
1.45358e-07
1.45422e-07
1.45491e-07
1.45556e-07
1.45596e-07
1.45624e-07
1.45657e-07
1.45719e-07
1.45781e-07
1.45823e-07
1.45867e-07
1.45899e-07
1.45887e-07
1.45792e-07
1.45715e-07
1.4564e-07
1.45627e-07
1.45567e-07
1.45415e-07
1.45283e-07
1.45266e-07
1.45344e-07
1.45573e-07
1.45941e-07
1.46461e-07
1.47092e-07
1.4755e-07
1.48055e-07
1.48235e-07
1.48788e-07
1.49472e-07
1.50863e-07
1.53552e-07
1.56308e-07
1.62619e-07
1.70204e-07
1.79948e-07
1.4564e-07
1.45616e-07
1.45636e-07
1.45696e-07
1.45783e-07
1.45861e-07
1.45912e-07
1.45891e-07
1.45817e-07
1.45733e-07
1.45655e-07
1.45576e-07
1.45496e-07
1.45436e-07
1.45409e-07
1.45387e-07
1.45358e-07
1.45312e-07
1.45277e-07
1.45293e-07
1.4543e-07
1.45676e-07
1.45913e-07
1.46067e-07
1.46116e-07
1.46218e-07
1.46392e-07
1.46598e-07
1.46889e-07
1.47142e-07
1.47289e-07
1.47242e-07
1.47137e-07
1.46813e-07
1.46936e-07
1.46842e-07
1.47541e-07
1.49832e-07
1.51692e-07
1.53892e-07
1.57207e-07
1.63955e-07
1.73044e-07
1.83176e-07
1.45811e-07
1.45788e-07
1.45749e-07
1.45705e-07
1.45639e-07
1.45586e-07
1.45561e-07
1.45583e-07
1.45638e-07
1.45708e-07
1.45782e-07
1.45833e-07
1.45867e-07
1.45911e-07
1.45954e-07
1.45996e-07
1.46039e-07
1.46071e-07
1.46104e-07
1.46129e-07
1.46142e-07
1.46096e-07
1.46009e-07
1.45862e-07
1.4578e-07
1.45701e-07
1.45628e-07
1.45606e-07
1.45578e-07
1.45672e-07
1.46012e-07
1.46512e-07
1.47219e-07
1.47796e-07
1.48467e-07
1.48822e-07
1.49344e-07
1.50232e-07
1.50526e-07
1.52553e-07
1.54725e-07
1.58716e-07
1.64142e-07
1.72807e-07
1.45801e-07
1.45761e-07
1.45749e-07
1.45748e-07
1.45779e-07
1.45829e-07
1.45875e-07
1.4588e-07
1.45851e-07
1.45807e-07
1.45737e-07
1.45658e-07
1.45598e-07
1.45549e-07
1.45525e-07
1.45503e-07
1.45484e-07
1.45478e-07
1.45471e-07
1.45497e-07
1.45576e-07
1.45685e-07
1.45873e-07
1.46079e-07
1.46205e-07
1.46274e-07
1.46355e-07
1.46489e-07
1.46755e-07
1.47064e-07
1.47236e-07
1.47144e-07
1.47001e-07
1.46565e-07
1.4664e-07
1.46763e-07
1.47161e-07
1.48751e-07
1.50437e-07
1.52574e-07
1.55042e-07
1.59762e-07
1.66009e-07
1.72731e-07
1.45796e-07
1.45795e-07
1.4578e-07
1.45779e-07
1.45775e-07
1.45765e-07
1.45748e-07
1.45758e-07
1.4579e-07
1.45815e-07
1.45851e-07
1.45909e-07
1.45965e-07
1.46014e-07
1.46052e-07
1.46104e-07
1.46156e-07
1.46178e-07
1.46196e-07
1.46216e-07
1.46239e-07
1.46276e-07
1.46265e-07
1.46143e-07
1.46015e-07
1.45929e-07
1.45912e-07
1.45904e-07
1.45869e-07
1.45866e-07
1.46037e-07
1.46393e-07
1.46987e-07
1.47528e-07
1.48146e-07
1.48754e-07
1.4904e-07
1.50122e-07
1.50398e-07
1.51807e-07
1.53363e-07
1.55983e-07
1.60657e-07
1.6715e-07
1.45882e-07
1.45844e-07
1.45828e-07
1.45814e-07
1.45814e-07
1.45822e-07
1.45839e-07
1.45847e-07
1.4583e-07
1.45811e-07
1.45793e-07
1.45746e-07
1.45689e-07
1.45643e-07
1.45624e-07
1.45603e-07
1.45576e-07
1.4557e-07
1.45568e-07
1.45583e-07
1.45623e-07
1.45673e-07
1.45729e-07
1.45839e-07
1.45971e-07
1.46056e-07
1.46134e-07
1.46258e-07
1.4647e-07
1.46723e-07
1.46983e-07
1.46998e-07
1.4699e-07
1.46664e-07
1.46606e-07
1.46825e-07
1.46964e-07
1.48174e-07
1.49207e-07
1.51055e-07
1.53391e-07
1.56754e-07
1.61162e-07
1.65908e-07
1.45815e-07
1.45813e-07
1.458e-07
1.45802e-07
1.45806e-07
1.4581e-07
1.45816e-07
1.45823e-07
1.45845e-07
1.45866e-07
1.45881e-07
1.45913e-07
1.45953e-07
1.45999e-07
1.46039e-07
1.46081e-07
1.46122e-07
1.4615e-07
1.46175e-07
1.46201e-07
1.46234e-07
1.46279e-07
1.46321e-07
1.46304e-07
1.4616e-07
1.4609e-07
1.46044e-07
1.46011e-07
1.45991e-07
1.45979e-07
1.46047e-07
1.46205e-07
1.46655e-07
1.47145e-07
1.47643e-07
1.48405e-07
1.48437e-07
1.49321e-07
1.49648e-07
1.50962e-07
1.52229e-07
1.54018e-07
1.57607e-07
1.62339e-07
1.45866e-07
1.45845e-07
1.45834e-07
1.45827e-07
1.45824e-07
1.45828e-07
1.45825e-07
1.45826e-07
1.45823e-07
1.4581e-07
1.45798e-07
1.45779e-07
1.45754e-07
1.45721e-07
1.4569e-07
1.4567e-07
1.45644e-07
1.45625e-07
1.45605e-07
1.45596e-07
1.45593e-07
1.456e-07
1.45611e-07
1.45623e-07
1.45747e-07
1.45839e-07
1.45938e-07
1.46078e-07
1.4628e-07
1.46528e-07
1.46827e-07
1.46971e-07
1.47052e-07
1.46811e-07
1.4658e-07
1.46876e-07
1.46818e-07
1.47736e-07
1.485e-07
1.49954e-07
1.51708e-07
1.54342e-07
1.57589e-07
1.60884e-07
1.45894e-07
1.45884e-07
1.45873e-07
1.45868e-07
1.45868e-07
1.45868e-07
1.4588e-07
1.45883e-07
1.45885e-07
1.45899e-07
1.45907e-07
1.45915e-07
1.45927e-07
1.45951e-07
1.45983e-07
1.46011e-07
1.46046e-07
1.4608e-07
1.46111e-07
1.46141e-07
1.46183e-07
1.46239e-07
1.46287e-07
1.46336e-07
1.46237e-07
1.46167e-07
1.46108e-07
1.46052e-07
1.46023e-07
1.45992e-07
1.45982e-07
1.46008e-07
1.46234e-07
1.46634e-07
1.47033e-07
1.47882e-07
1.47839e-07
1.48558e-07
1.48872e-07
1.49976e-07
1.51193e-07
1.52499e-07
1.54995e-07
1.58359e-07
1.45794e-07
1.45782e-07
1.45767e-07
1.45762e-07
1.45761e-07
1.45763e-07
1.45757e-07
1.45761e-07
1.45765e-07
1.45759e-07
1.45755e-07
1.45746e-07
1.45732e-07
1.45715e-07
1.45693e-07
1.45678e-07
1.45652e-07
1.45637e-07
1.4562e-07
1.45616e-07
1.45606e-07
1.4559e-07
1.45569e-07
1.45556e-07
1.45612e-07
1.45707e-07
1.45807e-07
1.45942e-07
1.46126e-07
1.46343e-07
1.46625e-07
1.46812e-07
1.46926e-07
1.46974e-07
1.46624e-07
1.46871e-07
1.46668e-07
1.47358e-07
1.47913e-07
1.49023e-07
1.50418e-07
1.52331e-07
1.54793e-07
1.57093e-07
1.45969e-07
1.45959e-07
1.45953e-07
1.45947e-07
1.45942e-07
1.45939e-07
1.45942e-07
1.45939e-07
1.45938e-07
1.45941e-07
1.45941e-07
1.45945e-07
1.4595e-07
1.45956e-07
1.45968e-07
1.4598e-07
1.45999e-07
1.46014e-07
1.46028e-07
1.46046e-07
1.46082e-07
1.46139e-07
1.46192e-07
1.46235e-07
1.46226e-07
1.46154e-07
1.46089e-07
1.46033e-07
1.45992e-07
1.45961e-07
1.4596e-07
1.45955e-07
1.4605e-07
1.46312e-07
1.46337e-07
1.47184e-07
1.47282e-07
1.47893e-07
1.48246e-07
1.49146e-07
1.50188e-07
1.51266e-07
1.52996e-07
1.55423e-07
1.45729e-07
1.4572e-07
1.45706e-07
1.45695e-07
1.45693e-07
1.45693e-07
1.45692e-07
1.45696e-07
1.45697e-07
1.45692e-07
1.45683e-07
1.45668e-07
1.45655e-07
1.45647e-07
1.45637e-07
1.45631e-07
1.4562e-07
1.45618e-07
1.45616e-07
1.45621e-07
1.45618e-07
1.45616e-07
1.45608e-07
1.45596e-07
1.45597e-07
1.45674e-07
1.45781e-07
1.45913e-07
1.46064e-07
1.4622e-07
1.46407e-07
1.46589e-07
1.46625e-07
1.46826e-07
1.46546e-07
1.46933e-07
1.46571e-07
1.46995e-07
1.47407e-07
1.48274e-07
1.49388e-07
1.50718e-07
1.52685e-07
1.54481e-07
1.46016e-07
1.46007e-07
1.46002e-07
1.46e-07
1.45996e-07
1.45994e-07
1.45991e-07
1.45986e-07
1.45983e-07
1.45982e-07
1.45982e-07
1.45983e-07
1.45982e-07
1.45982e-07
1.45985e-07
1.45991e-07
1.45997e-07
1.46006e-07
1.46013e-07
1.46025e-07
1.46044e-07
1.46073e-07
1.46102e-07
1.46131e-07
1.46142e-07
1.46096e-07
1.46032e-07
1.45985e-07
1.45945e-07
1.45927e-07
1.45907e-07
1.45936e-07
1.45893e-07
1.46178e-07
1.45988e-07
1.46588e-07
1.46736e-07
1.47283e-07
1.47667e-07
1.48403e-07
1.49271e-07
1.50137e-07
1.51486e-07
1.53274e-07
1.45694e-07
1.4568e-07
1.45666e-07
1.45652e-07
1.45643e-07
1.45638e-07
1.45636e-07
1.45635e-07
1.45634e-07
1.45634e-07
1.45627e-07
1.45618e-07
1.45611e-07
1.45607e-07
1.45603e-07
1.45604e-07
1.45604e-07
1.45605e-07
1.45607e-07
1.45613e-07
1.45617e-07
1.4563e-07
1.45639e-07
1.45645e-07
1.4564e-07
1.45686e-07
1.45764e-07
1.4586e-07
1.4595e-07
1.46065e-07
1.46163e-07
1.46331e-07
1.46274e-07
1.46575e-07
1.46275e-07
1.4673e-07
1.46554e-07
1.46748e-07
1.47002e-07
1.47644e-07
1.48555e-07
1.49617e-07
1.51205e-07
1.52557e-07
1.46027e-07
1.46023e-07
1.46021e-07
1.46019e-07
1.4602e-07
1.46019e-07
1.46017e-07
1.46013e-07
1.46008e-07
1.46004e-07
1.46003e-07
1.46001e-07
1.45999e-07
1.45996e-07
1.45996e-07
1.45994e-07
1.45991e-07
1.45993e-07
1.45996e-07
1.46003e-07
1.46011e-07
1.46019e-07
1.46026e-07
1.4604e-07
1.4604e-07
1.46031e-07
1.45985e-07
1.45947e-07
1.45914e-07
1.45912e-07
1.45861e-07
1.45929e-07
1.45768e-07
1.46091e-07
1.45801e-07
1.46261e-07
1.46284e-07
1.46659e-07
1.47109e-07
1.47731e-07
1.48431e-07
1.49159e-07
1.50282e-07
1.51753e-07
1.45684e-07
1.45668e-07
1.45651e-07
1.45638e-07
1.45628e-07
1.45623e-07
1.4562e-07
1.4562e-07
1.45621e-07
1.4562e-07
1.45616e-07
1.45613e-07
1.4561e-07
1.45609e-07
1.45609e-07
1.45613e-07
1.45616e-07
1.4562e-07
1.45622e-07
1.45626e-07
1.45633e-07
1.45643e-07
1.45643e-07
1.45654e-07
1.45662e-07
1.45689e-07
1.45711e-07
1.45774e-07
1.45797e-07
1.45879e-07
1.4588e-07
1.46077e-07
1.4595e-07
1.46314e-07
1.46025e-07
1.46396e-07
1.46377e-07
1.46582e-07
1.46739e-07
1.47204e-07
1.47943e-07
1.48823e-07
1.50014e-07
1.51122e-07
1.46019e-07
1.46016e-07
1.46016e-07
1.46015e-07
1.46016e-07
1.46013e-07
1.46011e-07
1.46006e-07
1.46003e-07
1.46e-07
1.45995e-07
1.45989e-07
1.45983e-07
1.45978e-07
1.45973e-07
1.45966e-07
1.45961e-07
1.45959e-07
1.45956e-07
1.45958e-07
1.45959e-07
1.45967e-07
1.45968e-07
1.45965e-07
1.45945e-07
1.4593e-07
1.45909e-07
1.4591e-07
1.45887e-07
1.45924e-07
1.45843e-07
1.45964e-07
1.45685e-07
1.46003e-07
1.45697e-07
1.45998e-07
1.46056e-07
1.46288e-07
1.46564e-07
1.47041e-07
1.47693e-07
1.48379e-07
1.49345e-07
1.50501e-07
1.45691e-07
1.45678e-07
1.45664e-07
1.45652e-07
1.45644e-07
1.45643e-07
1.45641e-07
1.45641e-07
1.45638e-07
1.45638e-07
1.45638e-07
1.45638e-07
1.45638e-07
1.45638e-07
1.45639e-07
1.45643e-07
1.45643e-07
1.45644e-07
1.45644e-07
1.45646e-07
1.4564e-07
1.45641e-07
1.45645e-07
1.45659e-07
1.45666e-07
1.45685e-07
1.45677e-07
1.45694e-07
1.45663e-07
1.45729e-07
1.4564e-07
1.45834e-07
1.45625e-07
1.45984e-07
1.45787e-07
1.46068e-07
1.4614e-07
1.4631e-07
1.465e-07
1.46875e-07
1.47461e-07
1.48191e-07
1.49094e-07
1.49998e-07
1.45995e-07
1.45995e-07
1.45993e-07
1.45992e-07
1.45989e-07
1.45984e-07
1.45978e-07
1.45974e-07
1.4597e-07
1.45963e-07
1.45955e-07
1.45945e-07
1.45936e-07
1.45929e-07
1.4592e-07
1.45913e-07
1.45907e-07
1.45905e-07
1.45902e-07
1.45902e-07
1.45901e-07
1.45901e-07
1.45889e-07
1.45871e-07
1.45843e-07
1.4583e-07
1.45803e-07
1.45815e-07
1.45779e-07
1.4585e-07
1.45729e-07
1.45917e-07
1.4563e-07
1.45932e-07
1.45662e-07
1.45791e-07
1.45886e-07
1.46035e-07
1.46235e-07
1.46613e-07
1.47172e-07
1.47773e-07
1.48594e-07
1.49555e-07
1.45715e-07
1.45703e-07
1.45693e-07
1.45682e-07
1.45677e-07
1.45675e-07
1.45677e-07
1.45673e-07
1.45672e-07
1.45673e-07
1.45675e-07
1.45676e-07
1.45676e-07
1.45677e-07
1.45677e-07
1.45674e-07
1.45668e-07
1.45663e-07
1.45656e-07
1.4565e-07
1.45643e-07
1.45644e-07
1.45646e-07
1.45658e-07
1.45652e-07
1.45656e-07
1.45631e-07
1.45648e-07
1.45591e-07
1.45664e-07
1.45514e-07
1.45712e-07
1.45456e-07
1.45756e-07
1.45572e-07
1.45722e-07
1.45911e-07
1.46055e-07
1.46231e-07
1.46564e-07
1.47057e-07
1.47666e-07
1.48375e-07
1.49163e-07
1.45961e-07
1.45959e-07
1.45955e-07
1.45952e-07
1.45947e-07
1.45941e-07
1.4593e-07
1.45928e-07
1.45922e-07
1.45912e-07
1.45901e-07
1.45889e-07
1.45879e-07
1.45871e-07
1.45862e-07
1.4586e-07
1.45855e-07
1.4585e-07
1.45847e-07
1.45839e-07
1.45829e-07
1.45816e-07
1.45788e-07
1.45777e-07
1.45752e-07
1.45746e-07
1.45711e-07
1.45723e-07
1.45661e-07
1.45749e-07
1.45591e-07
1.45797e-07
1.45518e-07
1.45772e-07
1.45591e-07
1.45661e-07
1.45731e-07
1.45821e-07
1.45984e-07
1.46288e-07
1.46761e-07
1.47296e-07
1.48005e-07
1.4883e-07
1.45746e-07
1.45738e-07
1.45728e-07
1.45721e-07
1.45717e-07
1.45714e-07
1.45716e-07
1.4571e-07
1.45708e-07
1.4571e-07
1.45711e-07
1.45711e-07
1.45708e-07
1.45703e-07
1.45695e-07
1.45685e-07
1.45673e-07
1.45667e-07
1.45656e-07
1.45651e-07
1.45645e-07
1.4564e-07
1.45644e-07
1.45643e-07
1.45625e-07
1.45616e-07
1.45578e-07
1.45597e-07
1.45518e-07
1.45599e-07
1.45415e-07
1.45608e-07
1.45353e-07
1.4559e-07
1.45458e-07
1.45521e-07
1.45662e-07
1.45827e-07
1.46001e-07
1.46293e-07
1.4672e-07
1.47231e-07
1.4784e-07
1.48515e-07
1.45925e-07
1.45917e-07
1.45913e-07
1.45906e-07
1.459e-07
1.45893e-07
1.45883e-07
1.45879e-07
1.45871e-07
1.4586e-07
1.45848e-07
1.45835e-07
1.45827e-07
1.45822e-07
1.45816e-07
1.45808e-07
1.45801e-07
1.45791e-07
1.45777e-07
1.45766e-07
1.45748e-07
1.45737e-07
1.45714e-07
1.45696e-07
1.45665e-07
1.45662e-07
1.45619e-07
1.45635e-07
1.45549e-07
1.45646e-07
1.45467e-07
1.45665e-07
1.45415e-07
1.45606e-07
1.45484e-07
1.455e-07
1.45591e-07
1.45664e-07
1.45798e-07
1.46039e-07
1.46437e-07
1.46914e-07
1.47541e-07
1.48245e-07
1.45768e-07
1.45767e-07
1.4576e-07
1.45752e-07
1.45748e-07
1.45744e-07
1.45742e-07
1.45737e-07
1.45733e-07
1.45732e-07
1.4573e-07
1.45722e-07
1.45711e-07
1.45699e-07
1.45686e-07
1.45677e-07
1.45665e-07
1.45665e-07
1.45661e-07
1.45658e-07
1.45647e-07
1.45643e-07
1.45627e-07
1.45616e-07
1.45593e-07
1.45582e-07
1.45534e-07
1.45555e-07
1.45453e-07
1.45541e-07