/*--------------------------------*- C++ -*----------------------------------*\
| =========                 |                                                 |
| \\      /  F ield         | OpenFOAM: The Open Source CFD Toolbox           |
|  \\    /   O peration     | Version:  v1912                                 |
|   \\  /    A nd           | Website:  www.openfoam.com                      |
|    \\/     M anipulation  |                                                 |
\*---------------------------------------------------------------------------*/
FoamFile
{
    version     2.0;
    format      ascii;
    class       surfaceScalarField;
    location    "60";
    object      alphaPhi0.water;
}
// * * * * * * * * * * * * * * * * * * * * * * * * * * * * * * * * * * * * * //

dimensions      [0 3 -1 0 0 0 0];
oriented        oriented;


internalField   nonuniform List<scalar> 
28285
(
0.00472912
-0.000308133
0.00509529
-0.00036617
0.00533906
-0.000243768
0.0053501
-1.10366e-05
0.00529203
5.80714e-05
0.0051429
0.000149124
0.00506887
7.40276e-05
-1.61014e-05
0.00508498
0.00475364
-0.000590668
0.00511046
-0.000722992
0.00534103
-0.000474334
0.00536282
-3.28266e-05
0.00530244
0.000118445
0.00516918
0.000282392
0.00509647
0.000146731
-6.69714e-06
0.00508707
0.00473775
-0.000887447
0.00510138
-0.00108662
0.00532601
-0.000698966
0.00534647
-5.32805e-05
0.00528046
0.00018445
0.00513559
0.000427266
0.00506841
0.000213905
2.88845e-06
0.00505883
0.00473799
-0.00117335
0.0051002
-0.00144884
0.00533185
-0.000930615
0.00535943
-8.08549e-05
0.00529973
0.000244144
0.00516967
0.000557325
0.00509483
0.000288749
2.53436e-05
0.00507237
0.00473577
-0.00146593
0.00509561
-0.00180868
0.005319
-0.00115401
0.00534213
-0.000103986
0.00527713
0.000309154
0.00513517
0.000699279
0.00507816
0.000345764
4.08441e-05
0.00506265
0.00472868
-0.00175563
0.00509075
-0.00217075
0.00532049
-0.00138374
0.00534823
-0.000131726
0.00528803
0.000369353
0.00515601
0.000831302
0.00507976
0.000422008
6.3538e-05
0.00505707
0.00472985
-0.0020459
0.00508858
-0.00252948
0.00531437
-0.00160953
0.00534099
-0.000158351
0.00527928
0.000431066
0.00514473
0.000965857
0.00507765
0.000489085
8.23066e-05
0.00505888
0.00472228
-0.00233661
0.00508105
-0.00288825
0.00530698
-0.00183546
0.00533385
-0.000185217
0.00527239
0.000492527
0.00513955
0.00109869
0.0050674
0.000561242
0.000102648
0.00504706
0.00472358
-0.00262637
0.00508123
-0.0032459
0.00530817
-0.0020624
0.00533713
-0.000214175
0.00527673
0.000552923
0.00514537
0.00123005
0.00507606
0.000630555
0.000124554
0.00505415
0.00471634
-0.00291635
0.00507155
-0.00360111
0.00529587
-0.00228672
0.00532409
-0.000242397
0.00526375
0.00061326
0.00513279
0.00136102
0.005062
0.000701345
0.000144994
0.00504156
0.00471854
-0.00320631
0.00507324
-0.0039558
0.00529842
-0.0025119
0.00532828
-0.000272255
0.00526815
0.000673391
0.00513858
0.00149059
0.00507038
0.000769551
0.0001671
0.00504827
0.00471377
-0.00349693
0.00506494
-0.00430698
0.00528595
-0.00273291
0.00531422
-0.00030052
0.00525356
0.000734044
0.0051252
0.00161895
0.00505887
0.000835877
0.00018683
0.00503914
0.00471919
-0.00378813
0.00506857
-0.00465635
0.00529092
-0.00295526
0.0053221
-0.000331701
0.00526513
0.000791017
0.00514085
0.00174322
0.00508441
0.000892321
0.00021801
0.00505323
0.00471539
-0.00407079
0.00503998
-0.00498095
0.0052468
-0.00316207
0.00528214
-0.000367042
0.00522663
0.000846521
0.00508522
0.00188464
0.00500751
0.000970023
0.000246109
0.00497941
0.0291214
-0.00281308
0.0282053
-0.00406481
0.0267907
-0.00174752
0.0241052
0.0023185
0.0205403
0.00441139
0.0170089
0.00541603
0.0139936
0.00398529
0.00338062
0.0108591
0.0274371
-0.00237705
0.0262527
-0.00288035
0.023964
0.000541094
0.0212434
0.00503913
0.0183308
0.00732396
0.0152131
0.00853373
0.0121846
0.00701384
0.00622335
0.00934185
0.0292021
-0.00112781
0.0281618
-0.00184006
0.0267222
0.00198065
0.0241019
0.00765949
0.0205368
0.0108891
0.0170073
0.0120632
0.0139918
0.0100293
0.00935738
0.0108578
0.0271911
-0.000463601
0.0260627
-0.000711646
0.0239508
0.00409258
0.0212587
0.0103516
0.0183374
0.0138104
0.0152203
0.0151802
0.0121908
0.0130589
0.012206
0.00934223
0.0292058
0.000693093
0.0281633
0.000330813
0.0263134
0.00594246
0.0233267
0.0133383
0.019709
0.0174281
0.0162591
0.0186302
0.0133168
0.0160011
0.0151598
0.0103629
0.027075
0.0018144
0.0260564
0.00134944
0.0244725
0.00752626
0.0219786
0.0158323
0.0189782
0.0204284
0.0158225
0.0217859
0.0128425
0.0189811
0.0181301
0.00987226
0.029059
0.002733
0.0276908
0.00271768
0.0253803
0.00983678
0.0224003
0.0188122
0.0191567
0.0236721
0.0158856
0.025057
0.0129452
0.0219214
0.0210364
0.0100389
0.131545
-0.00137042
0.134646
-0.000381521
0.136681
0.00780905
0.136309
0.0191894
0.135255
0.0247261
0.134375
0.0259372
0.133804
0.0224922
0.0225071
0.132334
0.129411
-0.000134214
0.130097
-0.000942459
0.132878
0.00578341
0.133657
0.0189101
0.132504
0.0258792
0.129808
0.0286333
0.127846
0.0244544
0.0218747
0.128477
0.108964
0.000904647
0.11254
-0.000862171
0.120786
0.00409236
0.124165
0.0172511
0.124145
0.025899
0.124242
0.028536
0.124992
0.0237037
0.022155
0.124709
0.0731175
0.00394263
0.095582
9.34898e-06
0.114444
0.00191394
0.118194
0.0149071
0.119976
0.0241167
0.120824
0.0276868
0.121261
0.0232638
0.0221793
0.121205
0.0798988
0.00988998
0.0716206
0.00828754
0.095915
0.00481441
0.107488
0.0140245
0.109986
0.0216138
0.113558
0.0240894
0.116834
0.0197803
0.0194531
0.117969
0.0749383
0.018032
0.0718214
0.0114044
0.0760294
0.00909722
0.0990166
0.0140794
0.109225
0.0192578
0.112032
0.0210114
0.111855
0.0157526
0.0155676
0.110837
0.0776752
0.0329296
0.0678857
0.0192638
0.0655055
0.0115077
0.0668646
0.01269
0.100626
0.0168324
0.109485
0.0170708
0.112915
0.0111575
0.0120612
0.113352
0.109934
0.0455988
0.0842988
0.0345997
0.0748288
0.0238699
0.0807921
0.0198979
0.0955753
0.015304
0.105977
0.0117857
0.111419
0.00580539
0.00844405
0.115125
0.11899
0.0528225
0.104965
0.0472551
0.093039
0.0374114
0.0903745
0.0250438
0.0953379
0.0124972
0.102522
0.00625642
0.108662
0.000270168
0.00311478
0.113991
0.116768
0.056976
0.1101
0.0539198
0.102057
0.0454391
0.0985375
0.0285202
0.100345
0.0105046
0.10406
0.00219686
0.107496
-0.00322911
-0.00153837
0.111999
0.112924
0.0590379
0.108649
0.058194
0.10359
0.0504819
0.101519
0.0304298
0.103635
0.00745293
0.105398
-0.00180315
0.0989061
-0.00239843
5.95622e-05
0.0857089
0.109852
0.0597813
0.108136
0.0598959
0.107387
0.0510871
0.108001
0.0284667
0.102334
0.0054099
0.0729191
0.000220701
0.0328538
0.00122132
0.000520601
0.00839803
0.106409
0.0574328
0.107736
0.0583305
0.110058
0.0468965
0.0999289
0.0194268
0.0457784
0.00271014
0.00838326
0.000986379
3.19656e-05
-5.15625e-12
-5.30249e-09
-2.94661e-05
0.101875
0.0475786
0.105319
0.0482683
0.0887454
0.0276082
0.0277047
0.00410756
4.18444e-05
1.51927e-07
-4.69751e-12
2.755e-13
-7.5067e-12
5.46619e-16
5.62193e-09
1.04082e-07
0.0576725
0.011562
0.0491151
0.0111494
0.0162459
0.00235404
-1.51925e-07
-4.16708e-10
7.12636e-13
1.12392e-12
8.91396e-12
2.9245e-11
1.61681e-11
2.11369e-11
2.03089e-13
5.64632e-09
0.00629845
-1.09367e-08
0.002896
-7.09732e-09
-1.10173e-08
-3.78648e-10
3.77751e-11
-2.16833e-10
6.44758e-12
3.2712e-11
1.34406e-11
2.19916e-11
3.24599e-11
8.22628e-12
1.67599e-11
2.43471e-11
3.15598e-08
-3.79831e-14
9.45685e-09
-5.75755e-15
6.77454e-09
6.41923e-14
1.80092e-12
3.72275e-09
5.7531e-12
2.95681e-11
1.50333e-11
2.36809e-11
1.87614e-11
4.12772e-12
1.37767e-11
2.72495e-11
8.68246e-09
1.19264e-09
5.08645e-09
3.50962e-09
1.5037e-09
1.95806e-09
3.2683e-12
6.4636e-10
5.98544e-12
1.18529e-11
9.35487e-12
8.09126e-12
6.19704e-12
1.2504e-12
1.00277e-10
2.90401e-10
3.34789e-09
3.31784e-09
1.86858e-09
2.87958e-09
2.10727e-11
1.2065e-12
9.26423e-13
2.6569e-14
1.14426e-12
2.72878e-13
1.56372e-12
2.76913e-13
3.20283e-12
3.09531e-13
2.04061e-10
1.34736e-09
9.61095e-10
2.04909e-09
1.1402e-10
1.10338e-14
1.80123e-14
6.71431e-15
2.09267e-14
4.87034e-14
1.43178e-13
1.37076e-13
2.38413e-13
1.16109e-13
7.66685e-13
5.48437e-14
1.28601e-13
1.81086e-10
-9.80659e-15
1.22063e-12
5.55337e-16
1.99952e-15
6.2193e-15
9.85735e-15
2.7057e-14
4.91453e-14
6.26824e-14
8.24022e-14
8.40132e-14
5.82092e-14
1.93828e-13
1.28157e-14
8.1419e-14
4.91514e-12
4.13573e-16
1.57697e-13
6.33153e-16
3.11044e-15
4.59859e-15
8.22237e-15
1.6091e-14
2.4921e-14
2.48364e-14
2.78818e-14
2.68217e-14
1.32981e-14
3.32954e-14
1.82726e-15
3.80002e-14
2.80419e-12
2.93163e-16
1.82957e-13
4.59928e-16
2.4544e-15
2.11503e-15
3.52382e-15
3.99931e-15
3.81944e-15
4.24275e-15
8.45136e-16
3.88947e-15
7.46292e-16
5.51063e-15
2.42734e-16
1.05605e-16
9.54288e-14
1.13324e-16
1.73574e-13
1.91974e-16
4.88546e-16
3.53545e-16
1.07189e-16
2.93295e-16
9.25206e-17
3.81645e-16
1.35883e-16
5.84857e-16
1.2642e-16
9.64419e-16
2.92754e-17
-5.22687e-17
1.3532e-14
5.86231e-18
5.9412e-14
7.46275e-18
1.16453e-18
9.69559e-18
5.02034e-18
3.8828e-17
1.32305e-17
7.2098e-17
1.89417e-17
9.41512e-17
1.97114e-17
1.19406e-16
2.97184e-18
-1.47852e-17
1.70425e-15
9.90159e-21
8.8217e-19
1.81704e-19
1.28548e-19
1.99062e-18
6.78739e-19
5.79992e-18
1.72875e-18
1.0964e-17
2.41895e-18
1.38994e-17
2.88707e-18
1.30857e-17
3.0483e-19
-1.70895e-18
1.53565e-16
1.00337e-20
4.75898e-21
1.91768e-20
1.03763e-20
2.58382e-19
7.00456e-20
7.63177e-19
1.653e-19
1.48947e-18
2.88959e-19
2.03874e-18
3.3268e-19
1.50344e-18
2.89076e-20
-9.63741e-20
1.04354e-17
5.9028e-22
5.42134e-23
2.55587e-21
5.68342e-22
2.66756e-20
5.77833e-21
8.2308e-20
1.26526e-20
1.8778e-19
3.2513e-20
2.39334e-19
3.17468e-20
1.51611e-19
2.60389e-21
-3.43001e-21
3.79057e-19
7.85398e-24
5.77238e-27
1.72054e-22
1.49168e-23
2.14677e-21
2.60931e-22
7.02996e-21
7.35725e-22
2.04761e-20
2.33939e-21
2.29294e-20
2.65064e-21
1.03827e-20
2.35062e-22
-3.64631e-22
7.99702e-21
1.94367e-27
7.3866e-28
5.06559e-24
9.62049e-26
1.12731e-22
6.49168e-24
4.44501e-22
2.61359e-23
1.64678e-21
9.1978e-23
1.96289e-21
1.54188e-22
9.59029e-22
2.20771e-23
-4.32856e-23
7.85743e-22
1.15887e-28
2.9351e-31
3.33176e-26
2.70252e-31
3.01058e-24
3.36709e-28
1.68443e-23
3.89909e-25
7.44708e-23
1.96162e-24
1.15657e-22
7.20533e-24
1.14661e-22
2.78017e-24
-6.28392e-24
8.58712e-23
2.91461e-32
2.69218e-31
4.90313e-32
2.50366e-31
3.36507e-28
2.51258e-31
2.91643e-25
1.34333e-28
2.09344e-24
6.15462e-26
8.76534e-24
5.45583e-25
1.41029e-23
3.75284e-25
-9.28406e-25
1.34195e-23
2.85007e-32
1.89352e-28
4.58829e-32
2.32984e-31
1.78333e-30
3.72183e-30
1.28375e-28
8.88074e-30
7.17012e-26
6.31197e-27
8.24596e-25
5.97958e-26
2.01715e-24
4.55892e-26
-1.16383e-25
1.99001e-24
1.68388e-31
1.15902e-28
2.65117e-31
1.64105e-30
1.50921e-30
3.49884e-30
5.24133e-30
5.637e-32
7.48468e-27
3.83075e-28
9.28973e-26
4.18552e-27
2.50263e-25
3.43813e-27
-1.15259e-26
2.48521e-25
3.89953e-30
1.15301e-33
2.23545e-31
1.54051e-30
1.93676e-31
2.73433e-31
2.2269e-32
3.41964e-34
4.66336e-28
1.01346e-29
6.76872e-27
1.50475e-28
2.12958e-26
1.42325e-28
-7.55913e-28
2.36645e-26
1.00549e-33
5.45866e-35
4.89933e-32
2.30476e-35
1.15817e-34
7.08029e-36
1.3641e-34
3.91578e-37
1.26806e-29
1.36009e-33
2.53244e-28
6.85771e-31
9.90545e-28
2.04365e-30
-2.61976e-29
1.67635e-27
6.47068e-36
1.24089e-36
4.86715e-36
8.00418e-37
5.88314e-37
3.96854e-37
1.95352e-39
5.17941e-38
1.36009e-33
3.15894e-39
1.24908e-30
1.2884e-34
1.77138e-29
1.4986e-32
-6.16286e-31
8.64028e-29
1.68925e-37
3.79005e-38
1.36584e-37
2.77776e-38
5.74001e-38
1.6763e-38
1.85842e-39
4.09463e-39
5.60177e-40
2.93969e-39
1.2884e-34
6.15398e-40
1.36146e-31
1.37355e-35
-5.25437e-33
2.61044e-30
5.391e-39
5.76496e-40
5.30323e-39
7.95804e-40
3.12115e-39
6.9236e-40
4.24341e-40
2.51807e-40
3.4158e-40
3.16735e-41
5.84646e-40
5.65591e-40
1.37361e-35
1.10662e-40
-3.49611e-43
2.65215e-32
1.17597e-40
1.85381e-42
1.83677e-40
1.12962e-41
1.68946e-40
2.0171e-41
5.50641e-41
1.13143e-41
2.19182e-41
2.53901e-42
4.72303e-41
2.12172e-43
1.36312e-38
2.27095e-39
-3.28577e-43
1.35968e-38
5.94579e-43
7.31313e-44
3.78511e-42
4.03439e-43
6.09037e-42
8.04638e-43
3.66554e-42
4.9328e-43
4.69636e-43
1.20446e-43
2.16994e-43
2.70029e-45
3.56079e-41
2.16412e-46
-1.37849e-42
1.34232e-42
2.36187e-44
2.75431e-48
1.44086e-43
8.45298e-46
2.50279e-43
7.50008e-45
1.72108e-43
1.08273e-44
2.64989e-44
2.63132e-45
1.66109e-48
2.47302e-45
1.81938e-48
2.41472e-49
1.8556e-44
5.39346e-42
2.75431e-48
7.22762e-66
4.4844e-46
9.70994e-48
3.43917e-45
1.2215e-46
5.07204e-45
1.91569e-47
1.94812e-45
2.4682e-45
-1.37317e-44
-1.12753e-44
-4.3291e-44
-5.02492e-45
1.07503e-44
-6.76437e-44
5.84861e-64
1.13141e-51
5.07348e-48
7.23858e-52
4.03259e-47
0
9.22304e-48
1.78615e-47
-5.31717e-46
-6.58016e-46
-8.33614e-45
-6.50241e-45
-2.18801e-44
-2.21282e-45
5.55898e-45
-3.58918e-44
-7.23858e-52
7.11662e-45
-4.86621e-66
0
4.59089e-83
0
-6.274e-47
-1.17922e-46
-6.85338e-46
-8.27139e-46
-3.83325e-45
-2.8237e-45
-9.57168e-45
-8.4027e-46
2.55798e-45
-1.66378e-44
1.04589e-48
1.67249e-44
1.65083e-48
1.13822e-47
-3.67708e-48
-9.78632e-48
-5.59449e-47
-1.02024e-46
-3.74198e-46
-4.39871e-46
-1.5202e-45
-1.05039e-45
-3.73563e-45
-2.7714e-46
1.04803e-45
-6.85296e-45
1.01655e-47
1.57261e-44
1.31475e-47
4.41282e-47
-1.41505e-48
-3.65168e-48
-2.60397e-47
-4.59802e-47
-1.42072e-46
-1.62281e-46
-5.25393e-46
-3.38272e-46
-1.31418e-45
-7.62212e-47
3.84933e-46
-2.53872e-45
1.76624e-46
1.50563e-50
4.96445e-48
5.86861e-48
-9.12422e-49
-2.28305e-48
-9.1037e-48
-1.55451e-47
-4.54232e-47
-5.02342e-47
-1.63196e-46
-9.71838e-47
-4.21323e-46
-1.63164e-47
1.28492e-46
-8.5592e-46
1.50562e-50
-3.62447e-65
2.63432e-50
8.35631e-50
-3.76213e-49
-9.08963e-49
-2.65615e-48
-4.36305e-48
-1.28522e-47
-1.36652e-47
-4.62038e-47
-2.52046e-47
-1.24605e-46
-1.96836e-48
3.94838e-47
-2.65792e-46
-5.527e-52
-2.42503e-51
-5.79624e-51
-1.77997e-50
-1.05183e-49
-2.44641e-49
-6.77529e-49
-1.06601e-48
-3.29427e-48
-3.34173e-48
-1.20977e-47
-5.96815e-48
-3.43966e-47
1.07418e-49
1.12626e-47
-7.69343e-47
-2.34152e-52
-9.86769e-52
-2.34918e-51
-6.95487e-51
-2.46081e-50
-5.48359e-50
-1.55256e-49
-2.32553e-49
-7.74748e-49
-7.42138e-49
-2.9484e-48
-1.29635e-48
-8.89745e-48
9.52544e-50
3.00188e-48
-2.0936e-47
-6.18925e-53
-2.51937e-52
-5.62147e-52
-1.61055e-51
-5.08837e-51
-1.08872e-50
-3.23611e-50
-4.61597e-50
-1.67909e-49
-1.51093e-49
-6.69285e-49
-2.58029e-49
-2.15152e-48
3.92502e-50
7.46231e-49
-5.34311e-48
-1.33009e-53
-5.25812e-53
-1.09989e-52
-3.06101e-52
-9.52434e-52
-1.96107e-51
-6.18159e-51
-8.39583e-51
-3.3534e-50
-2.82013e-50
-1.40829e-49
-4.66173e-50
-4.82869e-49
1.25238e-50
1.75252e-49
-1.26714e-48
-2.52245e-54
-9.82626e-54
-1.9113e-53
-5.23364e-53
-1.61919e-52
-3.25075e-52
-1.07657e-51
-1.41326e-51
-6.13113e-51
-4.8808e-51
-2.73252e-50
-7.69486e-51
-1.00221e-49
3.72561e-51
4.28981e-50
-2.78383e-49
-4.46999e-55
-1.71935e-54
-3.10443e-54
-8.37269e-54
-2.58113e-53
-5.05731e-53
-1.78736e-52
-2.26947e-52
-1.09422e-51
-8.22431e-52
-5.32245e-51
-1.23655e-51
-2.11541e-50
1.57145e-51
1.606e-50
-6.26284e-50
-8.11048e-56
-3.06431e-55
-5.33771e-55
-1.40962e-54
-4.58893e-54
-8.72525e-54
-3.71847e-53
-4.53395e-53
-2.72275e-52
-1.91053e-52
-1.56195e-51
-2.8092e-52
-6.83851e-51
1.25554e-51
1.13337e-50
-2.16468e-50
-7.41984e-56
-4.26631e-56
-6.12548e-55
-2.44425e-55
-6.92217e-54
-1.89858e-54
-7.84896e-53
-1.26741e-53
-7.01995e-52
-4.95065e-53
-4.49334e-51
3.8848e-54
-2.03631e-50
9.47755e-53
6.15072e-52
-6.57369e-50
-5.11255e-57
-2.19273e-57
-3.31353e-56
-9.52442e-57
-2.78482e-55
-4.99585e-56
-2.601e-54
-2.12593e-55
-2.21507e-53
1.41195e-57
-1.52818e-52
5.06536e-55
-7.74021e-52
5.46561e-54
3.13864e-53
-2.72066e-51
-1.93321e-58
-5.69475e-59
-1.07049e-57
-1.88632e-58
-6.92289e-57
-5.54639e-58
-6.05005e-56
1.35037e-59
-5.9164e-55
1.64969e-57
-4.82318e-54
2.86116e-56
-2.7422e-53
2.66147e-55
1.4806e-54
-1.05247e-52
-5.91901e-60
-8.53333e-61
-3.25827e-59
-1.62331e-60
-1.78854e-58
2.11117e-61
-1.44498e-57
5.08225e-60
-1.55562e-56
8.66581e-59
-1.4103e-55
1.20991e-57
-8.99269e-55
1.11926e-56
6.37094e-56
-3.77269e-54
-1.66519e-61
1.04606e-64
-1.00892e-60
3.58268e-63
-5.28864e-60
3.36828e-62
-3.71882e-59
2.82541e-61
-3.78044e-58
3.27053e-60
-3.74098e-57
4.25865e-59
-2.68457e-56
4.14033e-58
2.49341e-57
-1.23839e-55
-4.41834e-63
2.84181e-65
-3.1417e-62
3.00746e-64
-1.65655e-61
1.97135e-63
-9.61347e-61
1.22111e-62
-8.48535e-60
1.04951e-61
-8.86159e-59
1.2812e-60
-7.16187e-58
1.34558e-59
8.82496e-59
-3.66416e-57
-1.14003e-64
1.40977e-66
-9.27148e-64
1.44811e-65
-4.83681e-63
8.71331e-65
-2.45162e-62
4.7062e-64
-1.76552e-61
3.13926e-63
-1.83694e-60
3.40572e-62
-1.66932e-59
3.87265e-61
2.82869e-60
-9.57634e-59
-2.60441e-66
4.53339e-68
-2.36202e-65
5.25441e-67
-1.24011e-64
3.13324e-66
-5.83603e-64
1.59444e-65
-3.40558e-63
8.69161e-65
-3.24918e-62
7.67991e-64
-3.27045e-61
9.4326e-63
8.03723e-62
-2.12668e-60
-4.67631e-68
1.17435e-69
-4.88756e-67
1.6073e-68
-2.59004e-66
9.75673e-68
-1.16519e-65
4.88403e-67
-5.61664e-65
2.41039e-66
-4.40026e-64
1.69101e-65
-4.81187e-63
2.07899e-64
2.06288e-63
-3.66631e-62
-5.58787e-70
-6.73007e-69
-3.5587e-68
-1.54791e-67
-6.65134e-67
-4.07966e-66
-4.40825e-65
-3.86515e-64
0.00486123
0.000223742
0.00474376
0.000117475
0.00458437
0.000159389
0.00439303
0.000191342
0.00418828
0.000204749
0.00403504
0.000153234
0.00396128
7.3759e-05
0.00390438
5.69059e-05
0.00381292
9.146e-05
0.00367532
0.000137599
0.0034974
0.000177924
0.00325561
0.000241781
0.0030039
0.000251717
0.00279459
0.00020931
0.00256281
0.000231781
0.0022588
0.000304009
0.00191085
0.000347952
0.00162599
0.00028486
0.0014865
0.000139487
0.00146885
1.76522e-05
0.00150423
-3.53854e-05
0.00153546
-3.12303e-05
0.00151113
2.43357e-05
0.00145208
5.90483e-05
0.00136653
8.55504e-05
0.00128999
7.65399e-05
0.0012654
2.45883e-05
0.00129176
-2.63629e-05
0.00137599
-8.42281e-05
0.00153506
-0.000159067
0.00167877
-0.000143713
0.00170797
-2.91977e-05
0.00156016
0.000147811
0.00132705
0.000233107
0.00117903
0.000148023
0.00118017
-1.14285e-06
0.00129521
-0.000115035
0.00149287
-0.000197668
0.00173406
-0.000241183
0.00197401
-0.000239951
0.00217613
-0.000202122
0.00231887
-0.000142737
0.0023748
-5.59322e-05
0.00233669
3.81073e-05
0.00221004
0.00012665
0.00199149
0.000218556
0.00167915
0.000312338
0.00130449
0.00037466
0.00093364
0.000370849
0.000620166
0.000313473
0.00037489
0.000245276
0.000174123
0.000200767
4.26925e-06
0.000169854
-0.000134151
0.00013842
-0.000237252
0.000103101
-0.000308063
7.08117e-05
-0.000356583
4.852e-05
-0.000389171
3.25873e-05
-0.00040059
1.14196e-05
-0.000372264
-2.83266e-05
-0.000322817
-4.94465e-05
-0.000297414
-2.54032e-05
-0.000286335
-1.10791e-05
-0.000273226
-1.31089e-05
-0.000257607
-1.56187e-05
-0.000242235
-1.53726e-05
-0.000227505
-1.47294e-05
-0.000212572
-1.49336e-05
-0.00019663
-1.59416e-05
-0.000178273
-1.83571e-05
-0.000155998
-2.22752e-05
-0.000129172
-2.68261e-05
-9.99826e-05
-2.91892e-05
-7.19504e-05
-2.80322e-05
-4.85745e-05
-2.33759e-05
-3.20335e-05
-1.65409e-05
-2.25217e-05
-9.51183e-06
-1.87891e-05
-3.73261e-06
-1.88948e-05
1.05703e-07
-2.12605e-05
2.36565e-06
-2.47e-05
3.43955e-06
-2.79164e-05
3.21635e-06
-2.94948e-05
1.57844e-06
-2.84083e-05
-1.08652e-06
-2.44395e-05
-3.9688e-06
-1.77855e-05
-6.65395e-06
-8.99003e-06
-8.79548e-06
1.18553e-06
-1.01756e-05
1.27028e-05
-1.15173e-05
2.49993e-05
-1.22965e-05
3.70304e-05
-1.20311e-05
4.79352e-05
-1.09048e-05
5.65667e-05
-8.63152e-06
6.17712e-05
-5.20445e-06
6.31245e-05
-1.35331e-06
6.10641e-05
2.06034e-06
5.70113e-05
4.0528e-06
5.1868e-05
5.14334e-06
4.65233e-05
5.34468e-06
4.17885e-05
4.7348e-06
3.79992e-05
3.78936e-06
3.52588e-05
2.74041e-06
3.45382e-05
7.20528e-07
3.66429e-05
-2.10472e-06
4.0127e-05
-3.4841e-06
4.31326e-05
-3.00558e-06
4.48059e-05
-1.67332e-06
4.453e-05
2.75923e-07
4.2081e-05
2.44896e-06
3.77697e-05
4.31136e-06
3.23289e-05
5.4408e-06
2.70434e-05
5.28544e-06
2.37616e-05
3.28181e-06
2.29373e-05
8.2431e-07
2.35659e-05
-6.28545e-07
2.40037e-05
-4.37866e-07
2.25995e-05
1.40418e-06
1.83657e-05
4.23383e-06
1.16632e-05
6.70253e-06
2.0437e-06
9.61949e-06
-9.62048e-06
1.16642e-05
-2.06725e-05
1.1052e-05
-2.87513e-05
8.0788e-06
-3.24911e-05
3.73983e-06
-3.24929e-05
1.78438e-09
-3.0455e-05
-2.03792e-06
-2.805e-05
-2.40496e-06
-2.63668e-05
-1.68319e-06
-2.56588e-05
-7.08048e-07
-2.544e-05
-2.18789e-07
-2.4873e-05
-5.67023e-07
-2.31058e-05
-1.7672e-06
-1.97301e-05
-3.37563e-06
-1.53729e-05
-4.3572e-06
-1.16031e-05
-3.76984e-06
-1.02186e-05
-1.38448e-06
-1.20189e-05
1.80029e-06
-1.57516e-05
3.73268e-06
-1.89955e-05
3.24391e-06
-1.88692e-05
-1.26282e-07
-1.39016e-05
-4.96756e-06
-5.34868e-06
-8.55297e-06
3.94536e-06
-9.29404e-06
1.06517e-05
-6.70629e-06
1.22882e-05
-1.63658e-06
8.59108e-06
3.69715e-06
1.61194e-06
6.97915e-06
-5.83422e-06
7.44615e-06
-1.15187e-05
5.68449e-06
-1.5058e-05
3.53925e-06
-1.69709e-05
1.91291e-06
-1.76e-05
6.29172e-07
-1.63043e-05
-1.29574e-06
-1.21673e-05
-4.137e-06
-5.03693e-06
-7.13037e-06
-8.55116e-06
0.0049144
0.000396408
0.00477266
0.000259214
0.00462875
0.000303307
0.00445756
0.000362524
0.00426812
0.000394193
0.00412511
0.000296243
0.00405177
0.000147096
0.00399178
0.000116905
0.00390232
0.000180919
0.00376909
0.00027083
0.00359198
0.000355027
0.00335304
0.000480723
0.00310423
0.000500528
0.00289701
0.000416532
0.00267488
0.000453908
0.00237798
0.000600913
0.00202961
0.000696321
0.001742
0.000572465
0.00159581
0.00028568
0.00156625
4.72089e-05
0.00159209
-6.12267e-05
0.00161988
-5.90166e-05
0.0016026
4.16167e-05
0.00154275
0.000118895
0.00145223
0.000176067
0.00136517
0.000163602
0.00131844
7.13247e-05
0.00132277
-3.07008e-05
0.00139282
-0.000154279
0.00154197
-0.000308208
0.0016783
-0.000280042
0.00170744
-5.83447e-05
0.00156005
0.000295204
0.00132702
0.000466135
0.00117901
0.000296036
0.00118015
-2.28397e-06
0.00129519
-0.000230077
0.00149288
-0.000395352
0.00173406
-0.000482363
0.00197398
-0.000479879
0.00217609
-0.000404233
0.00231883
-0.000285468
0.00237477
-0.000111873
0.00233663
7.62451e-05
0.00220995
0.000253329
0.00199137
0.000437135
0.00167905
0.000624657
0.00130445
0.000749266
0.000933598
0.000741697
0.000620139
0.000626933
0.000374856
0.000490559
0.000174099
0.000401524
4.25461e-06
0.000339698
-0.000134161
0.000276836
-0.000237262
0.000206201
-0.000308074
0.000141623
-0.000356594
9.70402e-05
-0.000389182
6.51754e-05
-0.000400602
2.28398e-05
-0.000372275
-5.66538e-05
-0.00032283
-9.88917e-05
-0.000297425
-5.08085e-05
-0.000286347
-2.21571e-05
-0.000273239
-2.62166e-05
-0.00025762
-3.12376e-05
-0.000242247
-3.07455e-05
-0.000227518
-2.9459e-05
-0.000212583
-2.98684e-05
-0.00019664
-3.18843e-05
-0.000178283
-3.67139e-05
-0.000156008
-4.45503e-05
-0.000129182
-5.36523e-05
-9.99929e-05
-5.83781e-05
-7.19614e-05
-5.60637e-05
-4.8585e-05
-4.67523e-05
-3.20438e-05
-3.30821e-05
-2.2532e-05
-1.90236e-05
-1.87996e-05
-7.46501e-06
-1.89054e-05
2.11544e-07
-2.12713e-05
4.73146e-06
-2.47108e-05
6.87911e-06
-2.79272e-05
6.43273e-06
-2.95057e-05
3.15696e-06
-2.84193e-05
-2.17297e-06
-2.44506e-05
-7.93746e-06
-1.77966e-05
-1.3308e-05
-9.00094e-06
-1.75911e-05
1.17352e-06
-2.035e-05
1.26916e-05
-2.30354e-05
2.49884e-05
-2.45933e-05
3.70195e-05
-2.40622e-05
4.79242e-05
-2.18095e-05
5.65558e-05
-1.72631e-05
6.17603e-05
-1.0409e-05
6.31136e-05
-2.70664e-06
6.1053e-05
4.12089e-06
5.7e-05
8.10584e-06
5.18569e-05
1.02864e-05
4.65124e-05
1.06892e-05
4.17776e-05
9.4696e-06
3.79881e-05
7.57888e-06
3.52476e-05
5.48091e-06
3.4527e-05
1.44111e-06
3.66319e-05
-4.20958e-06
4.01159e-05
-6.96814e-06
4.31215e-05
-6.01122e-06
4.47949e-05
-3.34664e-06
4.45189e-05
5.51852e-07
4.20699e-05
4.89799e-06
3.77587e-05
8.62257e-06
3.2318e-05
1.08815e-05
2.70324e-05
1.0571e-05
2.37504e-05
6.5638e-06
2.29263e-05
1.64847e-06
2.35549e-05
-1.25713e-06
2.39929e-05
-8.75872e-07
2.25887e-05
2.80835e-06
1.83548e-05
8.46772e-06
1.16524e-05
1.3405e-05
2.03302e-06
1.92388e-05
-9.63141e-06
2.33286e-05
-2.06836e-05
2.21042e-05
-2.87625e-05
1.61577e-05
-3.25023e-05
7.47963e-06
-3.25039e-05
3.37915e-09
-3.04657e-05
-4.07607e-06
-2.80607e-05
-4.81001e-06
-2.63774e-05
-3.36648e-06
-2.56694e-05
-1.41606e-06
-2.54507e-05
-4.37456e-07
-2.48838e-05
-1.13395e-06
-2.31165e-05
-3.5345e-06
-1.97408e-05
-6.75129e-06
-1.53835e-05
-8.71451e-06
-1.16135e-05
-7.53984e-06
-1.0229e-05
-2.76902e-06
-1.20293e-05
3.60066e-06
-1.57622e-05
7.46553e-06
-1.90063e-05
6.48802e-06
-1.88802e-05
-2.52408e-07
-1.39126e-05
-9.93514e-06
-5.3592e-06
-1.71064e-05
3.93488e-06
-1.85881e-05
1.06416e-05
-1.3413e-05
1.22782e-05
-3.2732e-06
8.58096e-06
7.39438e-06
1.60176e-06
1.39583e-05
-5.84505e-06
1.4893e-05
-1.15294e-05
1.13689e-05
-1.50685e-05
7.07837e-06
-1.69814e-05
3.8258e-06
-1.76107e-05
1.25844e-06
-1.63151e-05
-2.59132e-06
-1.21781e-05
-8.27403e-06
-5.04736e-06
-1.42611e-05
-1.71024e-05
0.00488912
0.000566113
0.00472907
0.000419265
0.00458175
0.00045063
0.00439885
0.000545424
0.00419392
0.000599118
0.00404387
0.000446301
0.00396885
0.000222117
0.00390837
0.000177385
0.00381915
0.000270133
0.0036866
0.000403379
0.00351086
0.000530773
0.00327473
0.000716851
0.0030251
0.000750157
0.00281277
0.000628865
0.00258716
0.000679521
0.00228955
0.000898516
0.00194524
0.00104063
0.00166488
0.000852824
0.0015251
0.000425459
0.00150279
6.95211e-05
0.00153204
-9.04756e-05
0.00155508
-8.20625e-05
0.0015335
6.32059e-05
0.00146862
0.000183775
0.00137568
0.000269007
0.00129195
0.000247328
0.00125474
0.000108534
0.00127828
-5.4244e-05
0.0013762
-0.0002522
0.00154101
-0.000473018
0.00167937
-0.000418402
0.00170641
-8.53821e-05
0.00156012
0.000441493
0.00132701
0.000699245
0.00117896
0.000444089
0.00118011
-3.43554e-06
0.00129514
-0.000345103
0.00149278
-0.000592993
0.00173393
-0.00072352
0.00197389
-0.000719834
0.00217604
-0.000606387
0.00231873
-0.000428152
0.00237468
-0.000167826
0.0023366
0.000114325
0.00220996
0.00037997
0.00199137
0.000655723
0.0016789
0.000937132
0.00130419
0.00112397
0.000933538
0.00111235
0.00062013
0.000940341
0.000374821
0.000735868
0.000174073
0.000602272
4.23556e-06
0.000509536
-0.000134182
0.000415254
-0.000237285
0.000309305
-0.000308095
0.000212433
-0.000356612
0.000145557
-0.000389199
9.77628e-05
-0.00040062
3.42608e-05
-0.00037229
-8.49842e-05
-0.000322844
-0.000148338
-0.000297435
-7.62175e-05
-0.00028636
-3.32315e-05
-0.000273255
-3.93224e-05
-0.000257635
-4.68569e-05
-0.000242262
-4.6119e-05
-0.000227532
-4.41891e-05
-0.000212595
-4.48053e-05
-0.000196651
-4.78286e-05
-0.000178294
-5.50704e-05
-0.000156019
-6.68255e-05
-0.000129192
-8.04789e-05
-0.000100003
-8.75668e-05
-7.19726e-05
-8.40947e-05
-4.85954e-05
-7.01295e-05
-3.20538e-05
-4.96236e-05
-2.2542e-05
-2.85355e-05
-1.88099e-05
-1.11971e-05
-1.89162e-05
3.17868e-07
-2.12826e-05
7.0978e-06
-2.47225e-05
1.0319e-05
-2.79391e-05
9.64934e-06
-2.95177e-05
4.73561e-06
-2.84314e-05
-3.25932e-06
-2.44627e-05
-1.19061e-05
-1.78084e-05
-1.99623e-05
-9.01248e-06
-2.63871e-05
1.16184e-06
-3.05244e-05
1.26811e-05
-3.45546e-05
2.49774e-05
-3.68895e-05
3.70085e-05
-3.60933e-05
4.79134e-05
-3.27144e-05
5.65453e-05
-2.5895e-05
6.175e-05
-1.56136e-05
6.31035e-05
-4.06015e-06
6.10428e-05
6.18154e-06
5.69893e-05
1.21593e-05
5.18462e-05
1.54295e-05
4.65017e-05
1.60337e-05
4.17668e-05
1.42045e-05
3.7977e-05
1.13687e-05
3.52363e-05
8.22164e-06
3.45156e-05
2.16174e-06
3.66207e-05
-6.31468e-06
4.01049e-05
-1.04523e-05
4.31108e-05
-9.01708e-06
4.47843e-05
-5.02017e-06
4.45085e-05
8.27675e-07
4.20592e-05
7.34728e-06
3.77478e-05
1.2934e-05
3.23069e-05
1.63225e-05
2.70211e-05
1.58568e-05
2.37389e-05
9.84596e-06
2.2915e-05
2.47239e-06
2.35439e-05
-1.88604e-06
2.39821e-05
-1.3141e-06
2.2578e-05
4.21249e-06
1.83441e-05
1.27016e-05
1.16416e-05
2.01075e-05
2.02202e-06
2.88584e-05
-9.64304e-06
3.49937e-05
-2.06956e-05
3.31568e-05
-2.87747e-05
2.42368e-05
-3.25145e-05
1.12194e-05
-3.25159e-05
4.70194e-09
-3.04774e-05
-6.11455e-06
-2.80722e-05
-7.2152e-06
-2.63888e-05
-5.04985e-06
-2.56809e-05
-2.124e-06
-2.54623e-05
-6.55989e-07
-2.48956e-05
-1.70069e-06
-2.31282e-05
-5.30185e-06
-1.97525e-05
-1.0127e-05
-1.53949e-05
-1.30721e-05
-1.16246e-05
-1.13102e-05
-1.024e-05
-4.15366e-06
-1.20406e-05
5.40128e-06
-1.5774e-05
1.11989e-05
-1.90186e-05
9.73269e-06
-1.88927e-05
-3.78336e-07
-1.39248e-05
-1.4903e-05
-5.37058e-06
-2.56606e-05
3.92383e-06
-2.78825e-05
1.06309e-05
-2.01201e-05
1.22676e-05
-4.90991e-06
8.57032e-06
1.10917e-05
1.59086e-06
2.09378e-05
-5.8569e-06
2.23407e-05
-1.15413e-05
1.70533e-05
-1.50804e-05
1.06174e-05
-1.69932e-05
5.73868e-06
-1.76226e-05
1.88786e-06
-1.63272e-05
-3.88681e-06
-1.219e-05
-1.24112e-05
-5.05875e-06
-2.13923e-05
-2.56538e-05
0.004925
0.000713488
0.0047681
0.000576161
0.00462307
0.000595663
0.00445082
0.000717679
0.00425723
0.000792708
0.00411016
0.000593364
0.00403396
0.000298318
0.00397256
0.000238792
0.0038829
0.000359783
0.00374829
0.000537996
0.00356696
0.000712097
0.00332578
0.000958032
0.00307597
0.00099997
0.00286412
0.000840709
0.00263622
0.000907422
0.00233276
0.00120198
0.00197775
0.00139564
0.00168481
0.00114577
0.00153348
0.000576796
0.00150342
9.95748e-05
0.0015283
-0.00011535
0.00154628
-0.000100044
0.00151821
9.12748e-05
0.00144312
0.000258861
0.00133897
0.000373158
0.00124868
0.000337616
0.00121373
0.000143485
0.00124985
-9.03567e-05
0.00136553
-0.000367885
0.00154029
-0.000647779
0.00168071
-0.000558815
0.00170498
-0.000109658
0.00155991
0.000586565
0.00132694
0.000932214
0.0011789
0.000592126
0.00118006
-4.59278e-06
0.00129511
-0.000460155
0.00149275
-0.000790634
0.00173391
-0.00096468
0.00197395
-0.000959867
0.00217613
-0.00080857
0.00231876
-0.000570786
0.00237463
-0.000223688
0.00233634
0.000152616
0.00220953
0.000506775
0.00199091
0.000874344
0.00167846
0.00124958
0.00130393
0.0014985
0.000933508
0.00148277
0.00062013
0.00125372
0.000374803
0.000981194
0.000174056
0.000803019
4.21808e-06
0.000679373
-0.0001342
0.000553672
-0.000237304
0.000412409
-0.000308111
0.00028324
-0.000356625
0.000194071
-0.000389213
0.000130351
-0.000400637
4.56849e-05
-0.000372303
-0.000113319
-0.000322849
-0.000197792
-0.000297437
-0.000101629
-0.000286368
-4.43e-05
-0.000273264
-5.24265e-05
-0.000257645
-6.24759e-05
-0.000242271
-6.14929e-05
-0.00022754
-5.89201e-05
-0.000212602
-5.97439e-05
-0.000196657
-6.37734e-05
-0.000178301
-7.34263e-05
-0.000156026
-8.91006e-05
-0.000129199
-0.000107306
-0.000100009
-0.000116757
-7.19773e-05
-0.000112126