/*--------------------------------*- C++ -*----------------------------------*\
| =========                 |                                                 |
| \\      /  F ield         | OpenFOAM: The Open Source CFD Toolbox           |
|  \\    /   O peration     | Version:  v1912                                 |
|   \\  /    A nd           | Website:  www.openfoam.com                      |
|    \\/     M anipulation  |                                                 |
\*---------------------------------------------------------------------------*/
FoamFile
{
    version     2.0;
    format      ascii;
    class       surfaceScalarField;
    location    "60";
    object      phi;
}
// * * * * * * * * * * * * * * * * * * * * * * * * * * * * * * * * * * * * * //

dimensions      [0 3 -1 0 0 0 0];
oriented        oriented;


internalField   nonuniform List<scalar> 
28285
(
0.00472789
-0.000307428
0.00509445
-0.000366554
0.00533942
-0.000244971
0.0053515
-1.20839e-05
0.00529371
5.77898e-05
0.00514497
0.000148741
0.00507078
7.41887e-05
-1.58673e-05
0.00508665
0.00475254
-0.000589159
0.00510965
-0.000723671
0.00534137
-0.000476692
0.00536417
-3.4879e-05
0.00530408
0.000117878
0.00517117
0.000281647
0.00509831
0.000147052
-6.20988e-06
0.00508865
0.00473658
-0.000885223
0.00510056
-0.00108765
0.00532644
-0.000702573
0.00534783
-5.62668e-05
0.00528217
0.00018354
0.00513764
0.000426174
0.00507023
0.00021446
3.61556e-06
0.00506041
0.00473688
-0.00117034
0.00509934
-0.00145011
0.00533222
-0.000935447
0.00536073
-8.47785e-05
0.00530138
0.00024289
0.00517168
0.000555877
0.0050967
0.000289439
2.63719e-05
0.00507394
0.00473464
-0.00146222
0.00509479
-0.00181026
0.00531943
-0.00116009
0.00534346
-0.000108807
0.00527883
0.00030752
0.00513718
0.000697525
0.0050799
0.000346724
4.19877e-05
0.00506428
0.00472756
-0.00175114
0.0050899
-0.0021726
0.00532088
-0.00139107
0.00534953
-0.000137458
0.0052897
0.00036735
0.00515802
0.000829198
0.00508162
0.000423129
6.49732e-05
0.00505863
0.00472874
-0.00204065
0.00508775
-0.00253161
0.00531477
-0.00161809
0.00534229
-0.00016498
0.00528096
0.000428684
0.00514673
0.000963429
0.00507947
0.000490387
8.39965e-05
0.00506045
0.00472117
-0.00233059
0.00508022
-0.00289065
0.00530739
-0.00184527
0.00533515
-0.00019274
0.00527407
0.000489765
0.00514156
0.00109593
0.00506924
0.000562709
0.000104622
0.00504862
0.00472248
-0.00261959
0.00508039
-0.00324857
0.00530856
-0.00207344
0.00533842
-0.000222598
0.0052784
0.000549778
0.00514737
0.00122697
0.00507789
0.000632184
0.000126804
0.00505571
0.00471525
-0.00290883
0.00507072
-0.00360404
0.00529627
-0.00229898
0.00532538
-0.000251712
0.00526543
0.000609732
0.00513478
0.00135761
0.00506383
0.000703132
0.000147527
0.00504311
0.00471745
-0.00319805
0.00507241
-0.003959
0.00529882
-0.00252538
0.00532957
-0.000282465
0.00526982
0.000669477
0.00514057
0.00148687
0.00507221
0.000771492
0.000169911
0.00504983
0.00471269
-0.00348794
0.00506415
-0.00431046
0.00528635
-0.00274759
0.0053155
-0.000311615
0.00525523
0.00072975
0.00512717
0.00161493
0.00506072
0.000837946
0.000189912
0.00504072
0.00471813
-0.00377845
0.00506778
-0.00466011
0.0052913
-0.00297111
0.00532338
-0.000343686
0.00526677
0.00078635
0.0051428
0.0017389
0.00508633
0.000894416
0.00022134
0.00505491
0.00471442
-0.00406048
0.00503929
-0.00498498
0.00524718
-0.003179
0.00528337
-0.000379875
0.00522831
0.000841407
0.00508724
0.00187997
0.00500942
0.000972237
0.000249749
0.00498101
0.0291173
-0.00279897
0.0281995
-0.00406721
0.0267892
-0.0017687
0.0241103
0.00229906
0.0205472
0.00440445
0.0170142
0.00541302
0.0139968
0.00398956
0.00338482
0.0108618
0.0274307
-0.00236098
0.026252
-0.00288851
0.0239672
0.000516098
0.0212485
0.00501779
0.018336
0.00731691
0.0152185
0.0085305
0.0121909
0.00701725
0.00622942
0.00934626
0.0291983
-0.00110818
0.028157
-0.0018472
0.02672
0.00195306
0.0241068
0.00763101
0.0205432
0.0108805
0.0170123
0.0120613
0.0139931
0.0100365
0.0093639
0.0108586
0.0271854
-0.000441653
0.026061
-0.00072279
0.0239545
0.00405954
0.0212649
0.0103207
0.0183449
0.0138005
0.015228
0.0151782
0.0121982
0.0130663
0.0122145
0.00934765
0.0292017
0.00071776
0.0281599
0.000318988
0.0263148
0.00590465
0.0233327
0.0133028
0.0197162
0.0174171
0.0162643
0.01863
0.01332
0.0160106
0.015169
0.0103654
0.0270704
0.00184273
0.0260526
0.00133672
0.0244731
0.00748419
0.0219836
0.0157922
0.0189839
0.0204168
0.0158279
0.0217861
0.0128469
0.0189916
0.0181403
0.00987565
0.0290537
0.00276268
0.0276897
0.00270075
0.0253839
0.00979002
0.0224063
0.0187698
0.0191631
0.02366
0.0158912
0.025058
0.0129494
0.0219334
0.0210476
0.010042
0.131559
-0.00133929
0.134674
-0.000413541
0.136711
0.00775258
0.136347
0.0191337
0.135295
0.024712
0.13442
0.0259331
0.133851
0.022503
0.0225179
0.13238
0.130973
-0.000108798
0.131529
-0.000969742
0.133445
0.0058373
0.133692
0.0188866
0.13255
0.0258536
0.129862
0.0286212
0.127892
0.0244734
0.0218933
0.128516
0.121175
0.00118784
0.121163
-0.000957887
0.12255
0.00444955
0.12419
0.0172468
0.124181
0.0258626
0.124276
0.0285261
0.125027
0.0237229
0.0221693
0.124751
0.1147
0.00653463
0.113716
2.56516e-05
0.115805
0.0023605
0.118209
0.0148428
0.120004
0.024068
0.120858
0.0276716
0.1213
0.0232815
0.0222082
0.121261
0.128712
0.0157755
0.115291
0.0134474
0.108386
0.00926478
0.107514
0.0157149
0.110007
0.0215756
0.113595
0.0240829
0.117041
0.0198358
0.0198481
0.119401
0.121359
0.0224752
0.116329
0.0184776
0.110986
0.0146075
0.108544
0.0181566
0.109367
0.0207526
0.112357
0.021093
0.116223
0.0159703
0.016329
0.119742
0.116129
0.0351282
0.109919
0.0246872
0.105945
0.0185811
0.104583
0.0195192
0.105898
0.0194369
0.109526
0.0174652
0.114263
0.0112341
0.0122184
0.118373
0.119206
0.0456071
0.107961
0.035932
0.0997013
0.026841
0.0974764
0.0217441
0.100773
0.0161405
0.10624
0.0119977
0.111648
0.00582671
0.00846299
0.115403
0.119134
0.0528077
0.107788
0.0472784
0.0971962
0.0374323
0.0938699
0.0250704
0.0974998
0.0125106
0.103193
0.00630424
0.108737
0.000282645
0.00313054
0.11407
0.116816
0.0569504
0.110161
0.0539332
0.102126
0.0454672
0.0986323
0.0285641
0.100581
0.0105618
0.10466
0.00222527
0.10816
-0.00321756
-0.00152239
0.112813
0.112957
0.0590064
0.108696
0.0581943
0.103643
0.0505202
0.101667
0.03054
0.104623
0.00760576
0.108658
-0.00180978
0.108394
-0.00295326
0.00011235
0.106759
0.109877
0.059744
0.108172
0.0598993
0.107504
0.0511879
0.109084
0.0289604
0.11053
0.00615923
0.108289
0.000431117
0.0997942
0.00554173
0.0289198
0.0709867
0.106473
0.0574752
0.107885
0.0584871
0.111306
0.0477673
0.11573
0.024536
0.112821
0.00906837
0.0900972
0.0231549
0.015089
0.0805499
0.0805505
-0.0365416
0.103952
0.0511138
0.109333
0.0531058
0.114444
0.0426562
0.116501
0.022479
0.0635858
0.0619837
-0.00662665
0.0933673
-0.00528279
0.079206
0.0719999
0.00326774
0.101315
0.0462034
0.10527
0.0491511
0.106196
0.0417301
0.0750002
0.0536746
0.00886292
0.128121
0.00582098
0.0964093
0.0418317
0.0431953
0.0640946
0.049737
0.0949893
0.0608876
0.0748477
0.0692926
0.0347237
0.0818541
0.0204894
0.0679089
0.0329194
0.115691
0.0475521
0.0817766
0.0555487
0.0351987
0.0508143
0.068829
0.0321518
0.109618
0.0135733
0.0878712
0.0193572
0.0760702
0.027216
0.0600501
0.0378149
0.105092
0.0463123
0.0732792
0.0580321
0.0234789
0.0338474
0.0749991
0.0233897
0.126676
0.0233072
0.0879536
0.0266595
0.0727179
0.0280876
0.0586221
0.0405254
0.0926543
0.0471238
0.0666808
0.0506131
0.0199895
0.0201815
0.064279
0.0209717
0.117821
0.022509
0.0864163
0.0246027
0.0706242
0.0255321
0.0576927
0.035972
0.0822144
0.0419414
0.0607115
0.0465339
0.015397
0.00917629
0.0575391
0.0206123
0.10491
0.0216312
0.0853974
0.0227014
0.069554
0.0236455
0.0567486
0.0335326
0.0723272
0.0401089
0.0541353
0.0399225
0.0155833
0.00407105
0.0450278
0.0146917
0.094762
0.0173733
0.0827157
0.0194065
0.0675208
0.0205486
0.0556065
0.0290958
0.0637801
0.0348477
0.0483834
0.0370701
0.0133609
0.00229137
0.0388498
0.0119784
0.0856017
0.0159938
0.0787003
0.018138
0.0653766
0.0196459
0.0540986
0.0270159
0.0564101
0.0328006
0.0425987
0.0342359
0.0119256
0.00157786
0.0349494
0.00809935
0.0781297
0.0126344
0.0741652
0.0156986
0.0623124
0.0177442
0.052053
0.0239524
0.0502019
0.0286549
0.0378962
0.031403
0.0091775
0.000573409
0.0324074
0.00722447
0.0714201
0.0120943
0.0692954
0.0150521
0.0593547
0.0172326
0.0498725
0.0226369
0.0447977
0.0262613
0.0342718
0.0283565
0.00708236
-0.000723131
0.029653
0.00555282
0.0658749
0.0103211
0.0645271
0.0134229
0.0562529
0.015929
0.0473665
0.0205991
0.0401275
0.0235743
0.0312966
0.025325
0.00533171
-0.00218686
0.0267887
0.00540045
0.0608155
0.0100449
0.0598827
0.0128531
0.0534446
0.0154371
0.0447825
0.0195398
0.0360249
0.0220017
0.0288346
0.0230235
0.0043099
-0.00317239
0.024009
0.0046541
0.0565057
0.00891027
0.0556265
0.0118199
0.050535
0.0145856
0.0420168
0.0179987
0.0326118
0.0202999
0.0265335
0.020816
0.00379374
-0.00379127
0.0214349
0.00473964
0.0525513
0.00881795
0.0515482
0.0114585
0.0478945
0.014152
0.0393233
0.0170053
0.0297585
0.0190298
0.024509
0.0194859
0.00333771
-0.00397273
0.0196673
0.00444212
0.0491418
0.00815539
0.0478349
0.0107993
0.0452506
0.0134023
0.0367203
0.0157536
0.0274072
0.0176465
0.022616
0.0177645
0.00321973
-0.00406463
0.0178564
0.00452783
0.0460552
0.0080826
0.0442801
0.0105115
0.0428217
0.0129108
0.0343209
0.0149725
0.0253456
0.0166954
0.020893
0.0168549
0.00306023
-0.00387708
0.0166674
0.00436905
0.043353
0.0075896
0.0410596
0.00994162
0.0404697
0.0122227
0.0320398
0.0140444
0.0235239
0.0156226
0.0193148
0.0156754
0.00300746
-0.00368967
0.015488
0.00441139
0.0408769
0.00743337
0.0380376
0.00972387
0.0381792
0.0118787
0.029885
0.0134401
0.0219625
0.0148824
0.0178725
0.0149934
0.00289652
-0.00343231
0.014736
0.00431422
0.0386536
0.00695618
0.0353956
0.00923452
0.0359008
0.0112701
0.0278494
0.0127414
0.0204912
0.0140944
0.0165194
0.014141
0.00285
-0.00324585
0.0139545
0.00434679
0.0365212
0.00679708
0.0329454
0.00894731
0.0337506
0.0107726
0.0260242
0.012128
0.0191358
0.0133507
0.0152967
0.0134455
0.00275516
-0.00315549
0.0133552
0.00427185
0.0345319
0.00647761
0.0307396
0.00861103
0.0316172
0.0102625
0.0243727
0.011615
0.0177833
0.0127816
0.0141301
0.0127929
0.00274384
-0.00305911
0.0126966
0.00427084
0.0326067
0.00630465
0.0287058
0.00826139
0.0296604
0.00970506
0.022929
0.0110724
0.016416
0.0121453
0.0130572
0.0122226
0.00266654
-0.00293592
0.0120994
0.00421613
0.030777
0.00605104
0.0268709
0.00797112
0.0277403
0.00934423
0.0215559
0.0105344
0.0152258
0.0115851
0.0120065
0.0117142
0.00253742
-0.00276115
0.0115395
0.00418015
0.0290278
0.00584351
0.0252075
0.0076665
0.0259173
0.0089412
0.0202812
0.0100027
0.0141644
0.010977
0.0110322
0.0112218
0.00229254
-0.00257972
0.0110404
0.00412002
0.0273749
0.00563798
0.0236896
0.00737258
0.0241827
0.00859678
0.019057
0.00955515
0.013206
0.0104463
0.0101411
0.0107338
0.00200504
-0.00242837
0.0105824
0.00405726
0.025799
0.00545879
0.022288
0.00707993
0.0225616
0.008244
0.0178929
0.00911975
0.0123303
0.00995085
0.00930996
0.0102268
0.00172906
-0.00235832
0.0101568
0.00399131
0.0243016
0.00528956
0.0209898
0.00680167
0.0210495
0.00793609
0.0167585
0.00872142
0.0115449
0.00949156
0.00853982
0.00973986
0.00148077
-0.00236846
0.00975001
0.00391656
0.0228843
0.00512748
0.0197789
0.00653743
0.0196396
0.0076283
0.0156676
0.00834704
0.0108262
0.00906563
0.00782123
0.00929158
0.00125482
-0.00244643
0.00936955
0.00383527
0.0215425
0.00497337
0.0186408
0.00628602
0.0183269
0.00732804
0.0146256
0.0079993
0.0101549
0.00867468
0.00714585
0.00887893
0.00105057
-0.00257433
0.00900684
0.00374778
0.0202727
0.00482054
0.017568
0.00604155
0.0171059
0.00703067
0.0136365
0.00767231
0.00951329
0.00831287
0.00650529
0.00848669
0.000876759
-0.0027576
0.00866996
0.00365769
0.0190733
0.00466974
0.0165559
0.00581329
0.0159623
0.00674789
0.0127019
0.00736055
0.00890063
0.00797324
0.0058926
0.00812005
0.000729946
-0.0029528
0.00831526
0.00356044
0.0179402
0.00451847
0.0155979
0.00558807
0.0148928
0.0064713
0.0118187
0.00705865
0.00831329
0.00764875
0.0053025
0.00778526
0.000593437
-0.00312901
0.00796146
0.00346452
0.0168687
0.00437137
0.0146911
0.00537494
0.0138892
0.00621087
0.0109827
0.00677308
0.00775108
0.00733624
0.00473934
0.00748108
0.000448596
-0.00326947
0.00762155
0.00336044
0.0158541
0.0042242
0.0138273
0.00516719
0.0129462
0.00595948
0.0101904
0.00650415
0.00720642
0.00703795
0.00420554
0.00719433
0.000292217
-0.00338018
0.00730504
0.0032695
0.0148896
0.0040941
0.0130027
0.00498379
0.0120565
0.00573725
0.00943698
0.0062675
0.00667617
0.00676804
0.003705
0.00693809
0.000122171
-0.00346407
0.00702199
0.00317987
0.0139719
0.00397169
0.0122109
0.00481514
0.011213
0.00553385
0.00871828
0.00605584
0.00615417
0.00652854
0.0032323
0.00671786
-6.71432e-05
-0.0035217
0.00677549
0.00310367
0.0130973
0.00386356
0.011451
0.0046663
0.0104103
0.00535435
0.00803024
0.00587287
0.00563565
0.00631729
0.00278789
0.00651947
-0.000269314
-0.00357118
0.00656894
0.00300953
0.0122663
0.00373848
0.0107221
0.00450313
0.00964566
0.00516175
0.00737162
0.00567859
0.0051188
0.00610407
0.00236241
0.00632148
-0.000486725
-0.00362582
0.00637613
0.00289975
0.0114776
0.00359809
0.0100237
0.00432634
0.00891741
0.00495722
0.00674074
0.00546892
0.00460711
0.00587768
0.00195365
0.00610571
-0.000714748
-0.0036941
0.00617399
0.0027519
0.0107334
0.00341502
0.0093606
0.00409754
0.00823488
0.00468331
0.00615497
0.00516874
0.00412169
0.00555189
0.00157049
0.00578868
-0.000951537
-0.00378786
0.00588244
0.00260416
0.0100292
0.00323398
0.00873078
0.00387289
0.00759597
0.00441533
0.00561254
0.00487024
0.00366678
0.00522146
0.00121927
0.00544649
-0.00117657
-0.00388326
0.0055419
0.00247413
0.00935937
0.00307535
0.00812956
0.00367567
0.00699566
0.00418272
0.00510549
0.00460956
0.00323994
0.00493577
0.000893065
0.00514969
-0.00139049
-0.00397745
0.00524388
0.0113621
0.00653805
0.0139302
0.00556148
0.01642
0.00450584
0.0185315
0.00299396
0.0203357
0.00143583
0.0216934
-0.000464663
0.0226492
-0.00234629
-0.00443547
0.0231072
0.00995685
0.00427025
0.0120545
0.0034638
0.0140426
0.00251776
0.0157507
0.00128586
0.0172218
-3.52114e-05
0.0183545
-0.00159736
0.0191835
-0.00317534
-0.00488583
0.0196339
0.00835181
0.0024565
0.010049
0.00176661
0.0116384
0.000928328
0.0130293
-0.000104973
0.014247
-0.00125294
0.0152026
-0.00255296
0.015931
-0.00390375
-0.00534047
0.0163857
0.00709099
0.00101567
0.00844345
0.000414148
0.00969738
-0.000325591
0.0108134
-0.00122104
0.0117825
-0.00222199
0.0125697
-0.00334015
0.0131829
-0.00451694
-0.00576203
0.0136045
0.00592762
-0.000124597
0.00700183
-0.000660067
0.00800109
-0.00132484
0.00889271
-0.00211267
0.00967095
-0.00300023
0.0103136
-0.00398283
0.010825
-0.00502835
-0.00613162
0.0111946
0.00489353
-0.000992021
0.00571577
-0.00148231
0.00647779
-0.00208686
0.00716419
-0.00279907
0.00776734
-0.00360338
0.00827573
-0.00449121
0.00868941
-0.00544204
-0.00644685
0.00900465
0.00393904
-0.00162758
0.00454066
-0.00208393
0.00509877
-0.00264497
0.00560353
-0.00330383
0.0060494
-0.00404925
0.0064299
-0.00487171
0.00674419
-0.00575632
-0.00669309
0.00699043
0.00298671
-0.00204525
0.00338265
-0.00247986
0.00375113
-0.00301345
0.00408631
-0.00363901
0.00438422
-0.00434716
0.004641
-0.00512849
0.00485587
-0.00597119
-0.00686513
0.00502791
0.00209855
-0.00225342
0.00229736
-0.00267868
0.00248329
-0.00319937
0.00265302
-0.00380873
0.00280408
-0.00449822
0.00293428
-0.00525869
0.00304282
-0.00607972
-0.00695139
0.00312907
0.00106756
0.00111784
0.00116393
0.00120473
0.00123939
0.00126723
0.00128802
0.00130162
0.00486263
0.000224027
0.00474497
0.000117655
0.00458553
0.00015944
0.00439422
0.000191312
0.00418933
0.000204885
0.00403573
0.000153602
0.0039618
7.39358e-05
0.003905
5.67992e-05
0.00381376
9.1231e-05
0.00367642
0.000137345
0.00349876
0.000177663
0.00325727
0.000241491
0.00300556
0.000251704
0.0027962
0.000209366
0.00256458
0.000231611
0.00226073
0.000303851
0.00191269
0.000348046
0.00162731
0.000285381
0.00148738
0.000139927
0.00146951
1.78725e-05
0.00150485
-3.53466e-05
0.00153645
-3.1599e-05
0.00151234
2.41129e-05
0.0014534
5.89377e-05
0.00136784
8.55641e-05
0.00129089
7.69501e-05
0.00126576
2.51223e-05
0.0012918
-2.60325e-05
0.00137551
-8.37159e-05
0.00153446
-0.000158944
0.00167854
-0.000144081
0.00170865
-3.01079e-05
0.00156159
0.000147059
0.00132853
0.000233059
0.00117987
0.00014866
0.0011802
-3.27952e-07
0.00129462
-0.000114424
0.0014918
-0.000197186
0.00173273
-0.000240921
0.0019727
-0.000239972
0.00217508
-0.000202387
0.0023183
-0.000143212
0.00237492
-5.66259e-05
0.00233747
3.74505e-05
0.00221164
0.000125832
0.00199389
0.000217746
0.00168225
0.000311646
0.00130786
0.000374393
0.000936745
0.00037111
0.000622647
0.000314098
0.000376811
0.000245836
0.000175667
0.000201144
5.63597e-06
0.000170031
-0.000133144
0.00013878
-0.000236692
0.000103548
-0.000307802
7.11097e-05
-0.000356474
4.86718e-05
-0.00038914
3.26659e-05
-0.000400664
1.15249e-05
-0.0003724
-2.82647e-05
-0.000322757
-4.96431e-05
-0.000297128
-2.56288e-05
-0.000286061
-1.10665e-05
-0.000273037
-1.30246e-05
-0.000257492
-1.55447e-05
-0.000242168
-1.53244e-05
-0.000227465
-1.47027e-05
-0.000212542
-1.49225e-05
-0.000196601
-1.59415e-05
-0.000178238
-1.83623e-05
-0.000155957
-2.22819e-05
-0.000129125
-2.68314e-05
-9.99326e-05
-2.91926e-05
-7.19002e-05
-2.80324e-05
-4.85283e-05
-2.33718e-05
-3.19996e-05
-1.65287e-05
-2.25097e-05
-9.48993e-06
-1.88062e-05
-3.70343e-06
-1.89416e-05
1.35399e-07
-2.13299e-05
2.38828e-06
-2.47763e-05
3.44639e-06
-2.79816e-05
3.2053e-06
-2.9534e-05
1.55236e-06
-2.8413e-05
-1.12097e-06
-2.44117e-05
-4.0013e-06
-1.77339e-05
-6.67779e-06
-8.92739e-06
-8.80651e-06
1.24681e-06
-1.01742e-05
1.27547e-05
-1.15079e-05
2.50389e-05
-1.22842e-05
3.70597e-05
-1.20209e-05
4.79577e-05
-1.0898e-05
5.65849e-05
-8.62714e-06
6.17853e-05
-5.20042e-06
6.31323e-05
-1.34702e-06
6.10618e-05
2.07048e-06
5.69965e-05
4.06531e-06
5.18413e-05
5.15528e-06
4.64884e-05
5.35286e-06
4.17515e-05
4.73688e-06
3.7967e-05
3.78454e-06
3.52364e-05
2.73054e-06
3.45283e-05
7.08175e-07
3.66455e-05
-2.11729e-06
4.0139e-05
-3.49346e-06
4.3148e-05
-3.00901e-06
4.48166e-05
-1.66861e-06
4.45278e-05
2.88839e-07
4.20611e-05
2.46666e-06
3.77334e-05
4.32774e-06
3.22829e-05
5.45045e-06
2.69982e-05
5.28471e-06
2.37263e-05
3.27193e-06
2.29171e-05
8.09213e-07
2.35596e-05
-6.42543e-07
2.40044e-05
-4.44748e-07
2.25978e-05
1.40658e-06
1.83528e-05
4.24496e-06
1.16339e-05
6.71897e-06
1.99657e-06
9.63729e-06
-9.68244e-06
1.1679e-05
-2.07426e-05
1.10602e-05
-2.88219e-05
8.07928e-06
-3.25544e-05
3.73253e-06
-3.25403e-05
-1.41114e-08
-3.04801e-05
-2.06018e-06
-2.80492e-05
-2.43095e-06
-2.63416e-05
-1.70756e-06
-2.56171e-05
-7.24529e-07
-2.53939e-05
-2.23207e-07
-2.48343e-05
-5.59641e-07
-2.30826e-05
-1.75163e-06
-1.97264e-05
-3.35626e-06
-1.5388e-05
-4.33836e-06
-1.1633e-05
-3.75498e-06
-1.02565e-05
-1.37655e-06
-1.20551e-05
1.79858e-06
-1.57742e-05
3.71919e-06
-1.89934e-05
3.21917e-06
-1.88388e-05
-1.54588e-07
-1.38444e-05
-4.99448e-06
-5.27915e-06
-8.56521e-06
4.00796e-06
-9.28711e-06
1.06873e-05
-6.67933e-06
1.22873e-05
-1.60005e-06
8.55664e-06
3.7307e-06
1.56022e-06
6.99642e-06
-5.88552e-06
7.44574e-06
-1.15538e-05
5.66832e-06
-1.50711e-05
3.51725e-06
-1.69624e-05
1.89132e-06
-1.75728e-05
6.10386e-07
-1.62606e-05
-1.31222e-06
-1.21123e-05
-4.14828e-06
-4.98195e-06
-7.13036e-06
-8.5344e-06
0.00491576
0.000396916
0.00477383
0.000259591
0.00462983
0.000303439
0.00445867
0.000362471
0.00426909
0.00039447
0.00412575
0.000296938
0.00405227
0.000147419
0.00399236
0.000116702
0.00390312
0.000180477
0.00377014
0.000270327
0.0035933
0.000354499
0.00335466
0.000480128
0.00310588
0.000500491
0.00289858
0.000416664
0.0026766
0.000453593
0.00237989
0.000600559
0.00203143
0.000696506
0.00174333
0.000573476
0.00159673
0.000286528
0.00156698
4.76288e-05
0.0015928
-6.11712e-05
0.00162088
-5.96749e-05
0.00160385
4.11398e-05
0.00154416
0.000118631
0.00145364
0.000176086
0.00136623
0.000164355
0.00131901
7.23442e-05
0.00132293
-2.99531e-05
0.00139246
-0.00015325
0.00154137
-0.000307853
0.0016781
-0.000280809
0.00170811
-6.01186e-05
0.00156148
0.000293691
0.0013285
0.000466039
0.00117985
0.00029731
0.00118017
-6.53978e-07
0.0012946
-0.000228855
0.00149181
-0.00039439
0.00173273
-0.000481838
0.00197267
-0.000479921
0.00217505
-0.000404763
0.00231826
-0.000286418
0.00237489
-0.00011326
0.00233741
7.49314e-05
0.00221155
0.000251692
0.00199378
0.000435516
0.00168215
0.000623273
0.00130781
0.000748733
0.000936704
0.000742219
0.000622619
0.000628183
0.000376777
0.000491678
0.000175643
0.000402278
5.62127e-06
0.000340052
-0.000133154
0.000277556
-0.000236702
0.000207096
-0.000307812
0.000142219
-0.000356484
9.73438e-05
-0.000389151
6.53327e-05
-0.000400676
2.30504e-05
-0.000372411
-5.653e-05
-0.000322769
-9.92849e-05
-0.000297138
-5.12598e-05
-0.000286073
-2.2132e-05
-0.00027305
-2.60479e-05
-0.000257505
-3.10896e-05
-0.00024218
-3.06491e-05
-0.000227477
-2.94056e-05
-0.000212553
-2.98464e-05
-0.000196611
-3.18843e-05
-0.000178248
-3.67244e-05
-0.000155967
-4.45637e-05
-0.000129135
-5.36629e-05
-9.99429e-05
-5.83848e-05
-7.19112e-05
-5.60641e-05
-4.85389e-05
-4.67442e-05
-3.20099e-05
-3.30577e-05
-2.252e-05
-1.89799e-05
-1.88167e-05
-7.40665e-06
-1.89523e-05
2.70938e-07
-2.13407e-05
4.77672e-06
-2.47871e-05
6.8928e-06
-2.79925e-05
6.41062e-06
-2.95449e-05
3.10481e-06
-2.8424e-05
-2.24187e-06
-2.44228e-05
-8.00247e-06
-1.77449e-05
-1.33557e-05
-8.9383e-06
-1.76132e-05
1.23485e-06
-2.03474e-05
1.27435e-05
-2.30165e-05
2.5028e-05
-2.45686e-05
3.70488e-05
-2.40417e-05
4.79467e-05
-2.1796e-05
5.65739e-05
-1.72543e-05
6.17744e-05
-1.04009e-05
6.31214e-05
-2.69406e-06
6.10507e-05
4.14116e-06
5.69852e-05
8.13087e-06
5.18302e-05
1.03103e-05
4.64775e-05
1.07056e-05
4.17406e-05
9.47377e-06
3.79559e-05
7.56926e-06
3.52252e-05
5.46117e-06
3.4517e-05
1.4164e-06
3.66345e-05
-4.23474e-06
4.01279e-05
-6.98686e-06
4.31369e-05
-6.01809e-06
4.48056e-05
-3.33722e-06
4.45167e-05
5.77684e-07
4.205e-05
4.93339e-06
3.77224e-05
8.65532e-06
3.2272e-05
1.09008e-05
2.69872e-05
1.05695e-05
2.37151e-05
6.54404e-06
2.2906e-05
1.61828e-06
2.35486e-05
-1.28513e-06
2.39935e-05
-8.89637e-07
2.25869e-05
2.81313e-06
1.83419e-05
8.48997e-06
1.1623e-05
1.34379e-05
1.98589e-06
1.92744e-05
-9.69338e-06
2.33583e-05
-2.07537e-05
2.21205e-05
-2.88331e-05
1.61587e-05
-3.25656e-05
7.46503e-06
-3.25513e-05
-2.84139e-08
-3.04909e-05
-4.12059e-06
-2.80599e-05
-4.86198e-06
-2.63522e-05
-3.41522e-06
-2.56277e-05
-1.44902e-06
-2.54046e-05
-4.46291e-07
-2.48451e-05
-1.11919e-06
-2.30933e-05
-3.50336e-06
-1.97371e-05
-6.71255e-06
-1.53986e-05
-8.67682e-06
-1.16435e-05
-7.51012e-06
-1.02668e-05
-2.75317e-06
-1.20655e-05
3.59723e-06
-1.57849e-05
7.43857e-06
-1.90042e-05
6.43854e-06
-1.88498e-05
-3.09019e-07
-1.38553e-05
-9.98897e-06
-5.28966e-06
-1.71309e-05
3.99749e-06
-1.85743e-05
1.06772e-05
-1.33591e-05
1.22773e-05
-3.20013e-06
8.54652e-06
7.46148e-06
1.55005e-06
1.39929e-05
-5.89635e-06
1.48921e-05
-1.15646e-05
1.13365e-05
-1.50817e-05
7.03437e-06
-1.6973e-05
3.78262e-06
-1.75835e-05
1.22087e-06
-1.62714e-05
-2.62427e-06
-1.21231e-05
-8.29661e-06
-4.99238e-06
-1.42611e-05
-1.70688e-05
0.00489059
0.000566732
0.00473031
0.000419872
0.00458288
0.000450869
0.00440003
0.000545317
0.00419496
0.000599543
0.00404453
0.000447368
0.00396935
0.000222595
0.00390897
0.000177085
0.00381997
0.000269476
0.00368767
0.000402629
0.00351218
0.000529988
0.00327635
0.000715961
0.00302676
0.000750082
0.00281436
0.000629064
0.00258888
0.000679065
0.00229146
0.000897979
0.00194703
0.00104094
0.00166618
0.000854329
0.00152598
0.000426731
0.00150346
7.01488e-05
0.00153273
-9.0447e-05
0.00155607
-8.301e-05
0.00153475
6.24606e-05
0.00147003
0.000183344
0.00137705
0.000269067
0.00129293
0.000248474
0.00125519
0.000110091
0.00127821
-5.29805e-05
0.00137565
-0.000250686
0.00154036
-0.000472557
0.00167924
-0.00041969
0.00170706
-8.79404e-05
0.00156155
0.000439203
0.00132849
0.000699098
0.0011798
0.000445999
0.00118013
-9.90466e-07
0.00129455
-0.00034327
0.00149171
-0.000591551
0.0017326
-0.000722732
0.00197258
-0.000719896
0.002175
-0.000607182
0.00231816
-0.000429577
0.0023748
-0.000169906
0.00233738
0.000112355
0.00221156
0.000377514
0.00199378
0.000653295
0.001682
0.000935057
0.00130756
0.00112317
0.000936642
0.00111313
0.000622611
0.000942215
0.000376742
0.000737548
0.000175617
0.000603403
5.60218e-06
0.000510067
-0.000133175
0.000416333
-0.000236726
0.000310647
-0.000307833
0.000213327
-0.000356502
0.000146013
-0.000389168
9.79987e-05
-0.000400695
3.45767e-05
-0.000372426
-8.47986e-05
-0.000322783
-0.000148927
-0.000297149
-7.68945e-05
-0.000286087
-3.31938e-05
-0.000273065
-3.90694e-05
-0.00025752
-4.66349e-05
-0.000242195
-4.59745e-05
-0.000227491
-4.4109e-05
-0.000212565
-4.47722e-05
-0.000196621
-4.78285e-05
-0.000178259
-5.50862e-05
-0.000155978
-6.68456e-05
-0.000129146
-8.04948e-05
-9.99535e-05
-8.75769e-05
-7.19224e-05
-8.40952e-05
-4.85493e-05
-7.01173e-05
-3.20199e-05
-4.95871e-05
-2.253e-05
-2.84698e-05
-1.8827e-05
-1.11096e-05
-1.89631e-05
4.06962e-07
-2.1352e-05
7.16569e-06
-2.47988e-05
1.03396e-05
-2.80043e-05
9.61618e-06
-2.95569e-05
4.65738e-06
-2.84361e-05
-3.36267e-06
-2.4435e-05
-1.20036e-05
-1.77568e-05
-2.00338e-05
-8.94983e-06
-2.64201e-05
1.22318e-06
-3.05204e-05
1.2733e-05
-3.45263e-05
2.50169e-05
-3.68526e-05
3.70378e-05
-3.60626e-05
4.7936e-05
-3.26941e-05
5.65634e-05
-2.58818e-05
6.17641e-05
-1.56016e-05
6.31113e-05
-4.04128e-06
6.10405e-05
6.21196e-06
5.69745e-05
1.21969e-05
5.18195e-05
1.54653e-05
4.64668e-05
1.60583e-05
4.17298e-05
1.42108e-05
3.79448e-05
1.13542e-05
3.52139e-05
8.19203e-06
3.45057e-05
2.12468e-06
3.66233e-05
-6.35241e-06
4.01169e-05
-1.04804e-05
4.31262e-05
-9.02739e-06
4.4795e-05
-5.00604e-06
4.45063e-05
8.66424e-07
4.20393e-05
7.40038e-06
3.77115e-05
1.29831e-05
3.22609e-05
1.63514e-05
2.69759e-05
1.58546e-05
2.37036e-05
9.81633e-06
2.28948e-05
2.4271e-06
2.35377e-05
-1.92803e-06
2.39828e-05
-1.33475e-06
2.25762e-05
4.21967e-06
1.83312e-05
1.2735e-05
1.16123e-05
2.01568e-05
1.9749e-06
2.89118e-05
-9.705e-06
3.50382e-05
-2.07658e-05
3.31813e-05
-2.88454e-05
2.42383e-05
-3.25779e-05
1.11975e-05
-3.25633e-05
-4.29868e-08
-3.05025e-05
-6.18133e-06
-2.80714e-05
-7.29316e-06
-2.63636e-05
-5.12296e-06
-2.56392e-05
-2.17345e-06
-2.54162e-05
-6.69242e-07
-2.48569e-05
-1.67854e-06
-2.31051e-05
-5.25515e-06
-1.97487e-05
-1.00689e-05
-1.541e-05
-1.30155e-05
-1.16545e-05
-1.12656e-05
-1.02778e-05
-4.12988e-06
-1.20767e-05
5.39613e-06
-1.57966e-05
1.11585e-05
-1.90165e-05
9.65846e-06
-1.88623e-05
-4.63253e-07
-1.38675e-05
-1.49838e-05
-5.30104e-06
-2.56973e-05
3.98644e-06
-2.78617e-05
1.06666e-05
-2.00392e-05
1.22668e-05
-4.80031e-06
8.53587e-06
1.11924e-05
1.53916e-06
2.09896e-05
-5.90821e-06
2.23395e-05
-1.15765e-05
1.70048e-05
-1.50935e-05
1.05514e-05
-1.69848e-05
5.6739e-06
-1.75954e-05
1.8315e-06
-1.62834e-05
-3.93623e-06
-1.2135e-05
-1.24451e-05
-5.00376e-06
-2.13923e-05
-2.56036e-05
0.00492637
0.000714306
0.0047693
0.000576943
0.00462418
0.000595989
0.00445194
0.000717549
0.00425822
0.000793265
0.00411082
0.000594764
0.00403448
0.000298943
0.00397316
0.000238403
0.00388372
0.000358913
0.00374936
0.000536989
0.00356831
0.000711036
0.00332742
0.000956853
0.00307764
0.000999866
0.00286574
0.000840967
0.00263799
0.000906813
0.00233473
0.00120124
0.00197962
0.00139605
0.00168619
0.00114776
0.00153442
0.0005785
0.00150414
0.000100427
0.00152905
-0.000115357
0.00154733
-0.000101287
0.00151955
9.02339e-05
0.00144465
0.000258245
0.00134043
0.000373291
0.00124967
0.000339228
0.0012141
0.000145663
0.00124963
-8.85093e-05
0.00136485
-0.000365909
0.0015396
-0.000647302
0.00168059
-0.000560675
0.00170561
-0.000112961
0.00156133
0.000583478
0.00132842
0.000932014
0.00117974
0.00059467
0.00118009
-1.3326e-06
0.00129453
-0.00045771
0.00149169
-0.00078871
0.00173258
-0.000963629
0.00197264
-0.000959949
0.00217508
-0.00080963
0.00231819
-0.000572686
0.00237475
-0.000226462
0.00233712
0.000149987
0.00221113
0.000503502
0.00199332
0.000871105
0.00168156
0.00124682
0.00130729
0.00149744
0.000936612
0.00148381
0.000622611
0.00125622
0.000376723
0.000983435
0.000175599
0.000804528
5.58468e-06
0.000680081
-0.000133193
0.000555111
-0.000236745
0.000414198
-0.00030785
0.000284432
-0.000356515
0.000194678
-0.000389182
0.000130665
-0.000400711
4.61062e-05
-0.000372439
-0.000113071
-0.000322788
-0.000198578
-0.000297151
-0.000102532
-0.000286095
-4.42496e-05
-0.000273075
-5.20892e-05
-0.00025753
-6.21799e-05
-0.000242204
-6.13001e-05
-0.0002275
-5.88133e-05
-0.000212572
-5.96998e-05
-0.000196628
-6.37733e-05
-0.000178267
-7.34474e-05
-0.000155985
-8.91275e-05
-0.000129152
-0.000107327
-9.99588e-05
-0.00011677
-7.19272e-05
-0.000112127
-4.85536e-05
-9.34909e-05
-3.20241e-05
-6.61166e-05
-2.25342e-05
-3.79597e-05
-1.88318e-05
-1.4812e-05
-1.89684e-05
5.43582e-07
-2.13581e-05
9.55535e-06
-2.48053e-05
1.37868e-05
-2.80112e-05
1.28221e-05
-2.9564e-05
6.21021e-06
-2.84433e-05
-4.48339e-06
-2.44422e-05
-1.60047e-05
-1.77638e-05
-2.67123e-05
-8.95639e-06
-3.52275e-05
1.21657e-06
-4.06933e-05
1.2727e-05
-4.60368e-05
2.5011e-05
-4.91365e-05
3.70324e-05
-4.8084e-05
4.79312e-05
-4.35929e-05
5.6559e-05
-3.45097e-05
6.17597e-05
-2.08023e-05
6.31069e-05
-5.38846e-06
6.10358e-05
8.28303e-06
5.69693e-05
1.62634e-05
5.18141e-05
2.06205e-05
4.64612e-05
2.14112e-05
4.17241e-05
1.89479e-05
3.79389e-05
1.51395e-05
3.52077e-05
1.09231e-05
3.44994e-05
2.83304e-06
3.66173e-05
-8.4703e-06
4.0111e-05
-1.39742e-05
4.31206e-05
-1.2037e-05
4.47898e-05
-6.67524e-06
4.45013e-05
1.15494e-06
4.20341e-05
9.86762e-06
3.7706e-05
1.73111e-05
3.2255e-05
2.18025e-05
2.69696e-05
2.114e-05
2.36972e-05
1.30887e-05
2.28887e-05
3.23564e-06
2.3532e-05
-2.57134e-06
2.39776e-05
-1.7804e-06
2.25712e-05
5.62605e-06
1.83259e-05
1.69803e-05
1.16069e-05
2.68759e-05
1.96941e-06
3.85493e-05
-9.71124e-06
4.67188e-05
-2.07728e-05
4.42429e-05
-2.88529e-05
3.23184e-05
-3.25853e-05
1.49299e-05
-3.25702e-05
-5.80678e-08
-3.05089e-05
-8.24263e-06
-2.80775e-05
-9.72461e-06
-2.63697e-05
-6.83075e-06
-2.56455e-05
-2.89762e-06
-2.54229e-05
-8.91842e-07
-2.48637e-05
-2.23777e-06
-2.31118e-05