/*--------------------------------*- C++ -*----------------------------------*\
| =========                 |                                                 |
| \\      /  F ield         | OpenFOAM: The Open Source CFD Toolbox           |
|  \\    /   O peration     | Version:  v1912                                 |
|   \\  /    A nd           | Website:  www.openfoam.com                      |
|    \\/     M anipulation  |                                                 |
\*---------------------------------------------------------------------------*/
FoamFile
{
    version     2.0;
    format      ascii;
    class       volSymmTensorField;
    location    "60";
    object      R;
}
// * * * * * * * * * * * * * * * * * * * * * * * * * * * * * * * * * * * * * //

dimensions      [0 2 -2 0 0 0 0];


internalField   nonuniform List<symmTensor> 
14268
(
(0.0181614 -0.00172955 0 0.0181024 0 0.0188149)
(0.0178598 -0.00128061 0 0.0184078 0 0.0187805)
(0.0168969 -0.000760826 0 0.0173131 0 0.017648)
(0.0150463 -0.000334636 0 0.0147703 0 0.015302)
(0.012723 -5.19854e-05 0 0.0116444 0 0.0123994)
(0.011552 -0.000123681 0 0.00992044 0 0.010865)
(0.0116455 -0.000251913 0 0.00994594 0 0.0109189)
(0.01247 -0.000195716 0 0.0108996 0 0.0118375)
(0.0580572 -0.00702052 0 0.0568566 0 0.0611169)
(0.0565594 -0.00515287 0 0.0580791 0 0.0608731)
(0.0537483 -0.00264766 0 0.0547793 0 0.0573402)
(0.0488831 -0.000641643 0 0.0467809 0 0.0501387)
(0.0424462 0.000725661 0 0.0366315 0 0.0409089)
(0.0392068 0.000636948 0 0.0309129 0 0.0359573)
(0.0394315 0.000438864 0 0.0309024 0 0.0360273)
(0.0418068 0.000109862 0 0.0337261 0 0.0387892)
(0.0860295 -0.0110372 0 0.0852424 0 0.0906973)
(0.0837254 -0.00814983 0 0.0874879 0 0.0904273)
(0.0796657 -0.00430587 0 0.0825591 0 0.0853017)
(0.0730629 -0.00122793 0 0.0707265 0 0.074947)
(0.0641964 0.00107672 0 0.0554005 0 0.0615093)
(0.0598844 0.000876111 0 0.0467708 0 0.0543328)
(0.0601009 0.000430713 0 0.0465447 0 0.0542965)
(0.0630655 0.000353075 0 0.0503344 0 0.0579709)
(0.107355 -0.0157366 0 0.102923 0 0.112672)
(0.103913 -0.011501 0 0.105807 0 0.112134)
(0.0988256 -0.00596427 0 0.100542 0 0.10593)
(0.0912275 -0.00168618 0 0.0867399 0 0.0935235)
(0.0810361 0.00149665 0 0.0683243 0 0.0773076)
(0.0760971 0.0013172 0 0.0575901 0 0.0685619)
(0.0763752 0.000593738 0 0.0573696 0 0.0684803)
(0.0796825 0.000362961 0 0.0618362 0 0.0727388)
(0.126349 -0.020068 0 0.119829 0 0.131941)
(0.122014 -0.0146834 0 0.123626 0 0.131298)
(0.115816 -0.00755545 0 0.117712 0 0.124041)
(0.107198 -0.0021166 0 0.101682 0 0.109751)
(0.095938 0.00191301 0 0.0804263 0 0.0912072)
(0.0906069 0.00181063 0 0.0682025 0 0.0812584)
(0.090824 0.000807988 0 0.0676473 0 0.0810373)
(0.0941676 0.000961716 0 0.0724114 0 0.0856145)
(0.142804 -0.0245012 0 0.131974 0 0.148244)
(0.137354 -0.017851 0 0.136391 0 0.147326)
(0.130156 -0.00911684 0 0.130428 0 0.139241)
(0.120935 -0.00266287 0 0.11328 0 0.123607)
(0.109004 0.00214657 0 0.0899928 0 0.103288)
(0.103349 0.00212069 0 0.0762899 0 0.0922929)
(0.103667 0.000666902 0 0.0757183 0 0.092061)
(0.107006 0.00113865 0 0.0809645 0 0.0969066)
(0.158447 -0.0288947 0 0.144185 0 0.163462)
(0.151957 -0.0210252 0 0.149364 0 0.16233)
(0.143645 -0.0105584 0 0.143243 0 0.153408)
(0.133738 -0.00304642 0 0.1247 0 0.136454)
(0.121297 0.00251318 0 0.0996343 0 0.114619)
(0.115427 0.00270799 0 0.0848863 0 0.102772)
(0.115729 0.000920038 0 0.0840457 0 0.102457)
(0.118976 0.00101389 0 0.0892054 0 0.107388)
(0.172672 -0.0332623 0 0.153584 0 0.177)
(0.16504 -0.0241558 0 0.159428 0 0.17558)
(0.155661 -0.0120031 0 0.153432 0 0.165928)
(0.145296 -0.00357732 0 0.134097 0 0.14795)
(0.1325 0.00266416 0 0.107525 0 0.124851)
(0.126433 0.00308656 0 0.0916776 0 0.112228)
(0.126835 0.000849092 0 0.0908323 0 0.111935)
(0.130026 0.00082083 0 0.0963191 0 0.117007)
(0.186481 -0.0376511 0 0.16305 0 0.189903)
(0.177685 -0.0272909 0 0.169574 0 0.188191)
(0.167161 -0.0133361 0 0.163708 0 0.177813)
(0.156319 -0.00401103 0 0.143487 0 0.158855)
(0.143307 0.00286637 0 0.115715 0 0.134697)
(0.137105 0.00359453 0 0.0990818 0 0.121418)
(0.137547 0.000874912 0 0.0980293 0 0.121101)
(0.140546 0.000585217 0 0.103286 0 0.126147)
(0.199402 -0.0420117 0 0.17068 0 0.201722)
(0.189387 -0.0304154 0 0.177845 0 0.199678)
(0.177695 -0.0146243 0 0.172257 0 0.188612)
(0.166501 -0.0044613 0 0.151491 0 0.168849)
(0.153343 0.00301555 0 0.122583 0 0.143769)
(0.147007 0.00413783 0 0.105133 0 0.129886)
(0.147549 0.000848903 0 0.104032 0 0.129608)
(0.15046 0.000329744 0 0.109513 0 0.134726)
(0.212032 -0.0463805 0 0.178266 0 0.213076)
(0.200772 -0.0335217 0 0.186117 0 0.210701)
(0.187876 -0.0158424 0 0.180863 0 0.198965)
(0.176335 -0.00491561 0 0.159512 0 0.17844)
(0.163139 0.00310462 0 0.129758 0 0.152596)
(0.156705 0.0046949 0 0.111718 0 0.13819)
(0.157323 0.000757582 0 0.110455 0 0.137932)
(0.160018 5.04125e-06 0 0.115659 0 0.142983)
(0.224057 -0.0506977 0 0.184612 0 0.223673)
(0.211481 -0.0365565 0 0.193108 0 0.220926)
(0.197345 -0.0169584 0 0.18823 0 0.208525)
(0.185553 -0.00536022 0 0.166506 0 0.187363)
(0.172357 0.00314394 0 0.135894 0 0.160839)
(0.165824 0.00527616 0 0.117251 0 0.145952)
(0.166547 0.000632198 0 0.115905 0 0.145746)
(0.169124 -0.000301133 0 0.121236 0 0.150827)
(0.235785 -0.0549293 0 0.190827 0 0.23386)
(0.221889 -0.0395045 0 0.199989 0 0.230753)
(0.206517 -0.0179528 0 0.19561 0 0.217728)
(0.194506 -0.00575387 0 0.173537 0 0.195986)
(0.1814 0.00318437 0 0.1423 0 0.168905)
(0.174787 0.0060303 0 0.123232 0 0.153603)
(0.175585 0.000604613 0 0.121727 0 0.153422)
(0.177901 -0.000228455 0 0.126818 0 0.158424)
(0.246906 -0.0589372 0 0.196058 0 0.243386)
(0.231855 -0.0424897 0 0.205902 0 0.240009)
(0.215321 -0.0193782 0 0.201995 0 0.226389)
(0.203072 -0.00658972 0 0.179709 0 0.204114)
(0.190018 0.00290618 0 0.147843 0 0.176508)
(0.183322 0.00656722 0 0.128404 0 0.160836)
(0.184306 -0.000189343 0 0.126697 0 0.160713)
(0.186443 -0.000881977 0 0.131912 0 0.165736)
(0.284899 -0.0714459 0 0.214988 0 0.275969)
(0.264061 -0.0516999 0 0.225991 0 0.26981)
(0.241437 -0.0226194 0 0.222345 0 0.252182)
(0.225873 -0.005573 0 0.19776 0 0.226231)
(0.211129 0.00587735 0 0.163151 0 0.195557)
(0.201991 0.010334 0 0.141197 0 0.176941)
(0.200291 0.00190925 0 0.137287 0 0.174441)
(0.199271 0.00285593 0 0.140656 0 0.177186)
(0.34895 -0.100868 0 0.230753 0 0.324031)
(0.312426 -0.0705809 0 0.243927 0 0.310538)
(0.280428 -0.0343308 0 0.241647 0 0.286152)
(0.258349 -0.0108871 0 0.215213 0 0.254758)
(0.239206 0.00489581 0 0.179097 0 0.219989)
(0.2269 0.0100558 0 0.15494 0 0.197878)
(0.222136 0.00343951 0 0.148843 0 0.192686)
(0.215949 0.00334042 0 0.150366 0 0.191998)
(0.409698 -0.12834 0 0.244627 0 0.367222)
(0.355247 -0.0853424 0 0.261072 0 0.345864)
(0.314644 -0.0427751 0 0.260795 0 0.316191)
(0.289457 -0.0132643 0 0.236041 0 0.281904)
(0.267899 0.00541944 0 0.198631 0 0.244534)
(0.252102 0.0114513 0 0.171516 0 0.218814)
(0.243701 0.00541125 0 0.163194 0 0.210901)
(0.232919 0.00407707 0 0.161847 0 0.206812)
(0.465204 -0.155122 0 0.24915 0 0.405025)
(0.394526 -0.099473 0 0.267422 0 0.375944)
(0.34527 -0.0476477 0 0.27036 0 0.341007)
(0.31591 -0.0115226 0 0.246125 0 0.303752)
(0.292346 0.00892939 0 0.211059 0 0.265313)
(0.274492 0.0148482 0 0.183351 0 0.237418)
(0.263347 0.00827503 0 0.173316 0 0.227431)
(0.248272 0.00555296 0 0.169837 0 0.220255)
(0.520607 -0.182004 0 0.251937 0 0.440816)
(0.431177 -0.110971 0 0.270897 0 0.402638)
(0.375229 -0.0509099 0 0.281667 0 0.364868)
(0.344193 -0.0143146 0 0.26148 0 0.326521)
(0.317891 0.00633025 0 0.227319 0 0.286592)
(0.296516 0.0111335 0 0.19772 0 0.25562)
(0.282841 0.00481542 0 0.18605 0 0.243865)
(0.264375 -0.000275852 0 0.180137 0 0.233989)
(0.571166 -0.20673 0 0.247743 0 0.472119)
(0.467239 -0.121846 0 0.267016 0 0.426757)
(0.401032 -0.049601 0 0.283206 0 0.384098)
(0.367099 -0.00717972 0 0.268039 0 0.344789)
(0.340106 0.0125288 0 0.238008 0 0.305378)
(0.316782 0.0148341 0 0.208199 0 0.272483)
(0.300787 0.00815599 0 0.195054 0 0.259035)
(0.278708 0.00234588 0 0.187046 0 0.246458)
(0.623646 -0.232423 0 0.242454 0 0.503224)
(0.504263 -0.132057 0 0.259955 0 0.4498)
(0.431031 -0.0521851 0 0.287411 0 0.404733)
(0.39256 -0.00627362 0 0.279698 0 0.364377)
(0.362975 0.0134541 0 0.253085 0 0.324569)
(0.337246 0.0168119 0 0.22216 0 0.289603)
(0.31884 0.00824934 0 0.207278 0 0.274428)
(0.293724 0.00177382 0 0.197087 0 0.259523)
(0.69459 -0.271516 0 0.192201 0 0.541316)
(0.564574 -0.12549 0 0.205938 0 0.484379)
(0.501235 -0.0288086 0 0.266892 0 0.450278)
(0.468556 0.014757 0 0.290784 0 0.420819)
(0.443037 0.0292963 0 0.285218 0 0.390477)
(0.420353 0.0302338 0 0.263715 0 0.358691)
(0.405001 0.0130285 0 0.246806 0 0.347122)
(0.38283 0.00640538 0 0.231146 0 0.336251)
(0.73138 -0.306076 0 0.0553856 0 0.533661)
(0.653838 -0.083194 0 0.0811066 0 0.516535)
(0.626403 0.00551155 0 0.198073 0 0.517575)
(0.583085 0.0568334 0 0.34208 0 0.502054)
(0.565206 0.0587466 0 0.363606 0 0.487485)
(0.545052 0.0492356 0 0.35861 0 0.464856)
(0.526269 0.0192486 0 0.332839 0 0.452869)
(0.499367 -0.00558458 0 0.308995 0 0.443954)
(0.804705 -0.461702 0 0.257963 0 0.505996)
(0.758739 -0.00686562 0 0.165349 0 0.531269)
(0.745791 0.142942 0 0.241555 0 0.56619)
(0.685873 0.153341 0 0.392876 0 0.571941)
(0.653851 0.121581 0 0.418177 0 0.559962)
(0.615576 0.0758656 0 0.419364 0 0.536093)
(0.590525 0.0134316 0 0.377643 0 0.522765)
(0.57386 -0.0330994 0 0.306828 0 0.518432)
(0.968855 -0.719847 0 2.16864 0 0.495323)
(0.846315 -0.0458416 0 1.35066 0 0.465398)
(0.841242 0.338834 0 0.520431 0 0.586224)
(0.782467 0.290678 0 0.485592 0 0.633015)
(0.7209 0.187327 0 0.529822 0 0.624458)
(0.671141 0.1035 0 0.524169 0 0.601814)
(0.63941 0.0156513 0 0.451393 0 0.586125)
(0.626686 -0.0524584 0 0.32623 0 0.582588)
(0.904583 -0.890421 0 5.43795 0 0.359035)
(0.828963 -0.213343 0 3.98714 0 0.327371)
(0.871031 0.444121 0 1.53773 0 0.526875)
(0.847752 0.490829 0 0.614074 0 0.659794)
(0.751768 0.279149 0 0.632405 0 0.664599)
(0.683913 0.118994 0 0.627263 0 0.642402)
(0.650333 -0.00139176 0 0.51593 0 0.629206)
(0.649558 -0.0949199 0 0.340878 0 0.633987)
(0.834691 -0.895344 0 8.17704 0 0.272394)
(0.819551 -0.34193 0 6.8523 0 0.288907)
(0.872038 0.353959 0 4.18709 0 0.457489)
(0.888616 0.664884 0 1.496 0 0.662546)
(0.785235 0.429439 0 0.876987 0 0.700091)
(0.696137 0.146664 0 0.806 0 0.680139)
(0.656916 -0.0290726 0 0.733212 0 0.667999)
(0.656093 -0.084172 0 0.717163 0 0.670939)
(0.753733 -0.974385 0 9.32955 0 0.158714)
(0.75757 -0.530683 0 9.14872 0 0.195503)
(0.822867 0.164882 0 7.2861 0 0.373075)
(0.903067 0.667538 0 4.26954 0 0.638451)
(0.81178 0.557549 0 1.76365 0 0.727102)
(0.692557 0.206505 0 1.0781 0 0.700116)
(0.642486 0.0120268 0 1.01375 0 0.682327)
(0.635989 -0.035218 0 1.12868 0 0.679217)
(0.772582 -0.784805 0 8.78906 0 0.192729)
(0.732264 -0.550544 0 9.64291 0 0.15045)
(0.790979 -0.0295574 0 8.77298 0 0.317516)
(0.871679 0.441958 0 6.4776 0 0.60181)
(0.804752 0.433371 0 3.05046 0 0.727063)
(0.67794 0.190162 0 1.39702 0 0.706262)
(0.617187 0.0398956 0 1.07481 0 0.675434)
(0.60745 -1.59485e-05 0 1.09173 0 0.665532)
(0.776761 -0.462611 0 7.55608 0 0.252046)
(0.702321 -0.404512 0 8.3693 0 0.145183)
(0.739931 -0.16184 0 7.95488 0 0.272214)
(0.815873 0.128124 0 6.09181 0 0.551735)
(0.752041 0.168863 0 3.16744 0 0.684295)
(0.632018 0.0843605 0 1.40568 0 0.667327)
(0.565764 0.0230115 0 0.890762 0 0.629766)
(0.546175 -0.00313845 0 0.749129 0 0.611578)
(0.830355 -0.191663 0 6.37025 0 0.378591)
(0.77855 -0.255531 0 6.87766 0 0.288799)
(0.793651 -0.213994 0 6.46632 0 0.366824)
(0.825959 -0.0891841 0 4.9057 0 0.572543)
(0.720818 -0.0248976 0 2.55604 0 0.64841)
(0.584743 -0.0163384 0 1.048 0 0.607522)
(0.496821 -0.0194222 0 0.478106 0 0.548652)
(0.452841 -0.0242694 0 0.137383 0 0.510163)
(0.830562 -0.0304622 0 5.2173 0 0.455219)
(0.775875 -0.146528 0 5.4397 0 0.369827)
(0.78567 -0.213538 0 4.97095 0 0.425125)
(0.79069 -0.211488 0 3.56638 0 0.56396)
(0.665275 -0.133881 0 1.60247 0 0.588726)
(0.511399 -0.0798141 0 0.248885 0 0.512691)
(0.408387 -0.0840831 0 1e-15 0 0.441411)
(0.301403 -0.105296 0 1e-15 0 0.356684)
(0.829432 0.0467062 0 4.0572 0 0.533092)
(0.792147 -0.0863439 0 4.12901 0 0.479528)
(0.785118 -0.223668 0 3.57671 0 0.508377)
(0.756931 -0.273064 0 2.15182 0 0.570266)
(0.584541 -0.177006 0 0.328084 0 0.50398)
(0.416336 -0.199103 0 1e-15 0 0.395995)
(0.183788 -0.212045 0 1e-15 0 0.257904)
(0.000479257 -0.0757483 0 1e-15 0 0.0637668)
(0.762503 0.0698577 0 2.68598 0 0.549074)
(0.730968 -0.0777153 0 2.66933 0 0.510837)
(0.722177 -0.228482 0 1.96569 0 0.52772)
(0.629794 -0.293969 0 0.461945 0 0.498465)
(0.34513 -0.24138 0 1e-15 0 0.334473)
(0.0276476 -0.0581596 0 0.000122248 0 0.0505617)
(0.00216964 -0.0377261 0 1e-15 0 0.018949)
(1e-15 -0.134256 0 1e-15 0 0.0200387)
(0.658943 0.0435153 0 0.763305 0 0.529534)
(0.624901 -0.0934931 0 0.701178 0 0.495522)
(0.531762 -0.20975 0 0.233647 0 0.433186)
(0.295897 -0.26017 0 1e-15 0 0.28365)
(0.10572 -0.252165 0 1e-15 0 0.164112)
(1e-15 -0.0958776 0 1e-15 0 0.0350886)
(0.0430124 -0.112916 0 1e-15 0 0.0908491)
(0.376057 -0.176933 0 1e-15 0 0.317366)
(0.499718 0.0370587 0 1e-15 0 0.4415)
(0.412354 -0.0840699 0 1e-15 0 0.376546)
(0.197062 -0.148734 0 1e-15 0 0.225846)
(0.0687845 -0.20968 0 1e-15 0 0.141064)
(0.00677147 -0.218391 0 1e-15 0 0.0925471)
(0.160359 -0.0704637 0 1e-15 0 0.169617)
(0.191999 -0.0846071 0 0.0553773 0 0.20724)
(0.377736 -0.143842 0 0.0544301 0 0.334426)
(0.555236 0.0754237 0 1e-15 0 0.47658)
(0.363841 -0.0838001 0 1e-15 0 0.344714)
(0.170252 -0.157676 0 1e-15 0 0.203597)
(0.0169802 -0.116533 0 1e-15 0 0.0737636)
(0.081892 -0.109299 0 0.00863786 0 0.121333)
(0.158581 -0.0126213 0 0.0217148 0 0.157435)
(0.146221 -0.0011468 0 0.0591622 0 0.162709)
(0.217719 -0.0439299 0 0.0744826 0 0.222343)
(0.605175 0.0919108 0 1e-15 0 0.501487)
(0.242419 -0.0649599 0 1e-15 0 0.245558)
(0.0798313 -0.04242 0 1e-15 0 0.0911135)
(0.0740719 -0.0346676 0 0.0178791 0 0.0829251)
(0.108147 -0.0155135 0 0.0225226 0 0.112803)
(0.135065 0.0329401 0 0.0450955 0 0.125989)
(0.101787 0.0367183 0 0.0857745 0 0.115842)
(0.107524 0.0501089 0 0.124415 0 0.138156)
(0.371153 0.031725 0 1e-15 0 0.320266)
(0.115419 -0.0160963 0 0.00763156 0 0.110451)
(0.0774417 0.00121892 0 0.0181809 0 0.0693858)
(0.0735297 0.00683292 0 0.0261162 0 0.0672638)
(0.0886459 0.0166147 0 0.035022 0 0.0845515)
(0.0903473 0.0362827 0 0.0459708 0 0.0824386)
(0.0734162 0.0328935 0 0.0634198 0 0.0772172)
(0.0795147 0.0775034 0 0.138023 0 0.107799)
(0.153031 0.0156946 0 0.0202288 0 0.140837)
(0.0940907 0.0131027 0 0.0283287 0 0.0804848)
(0.0727142 0.0153371 0 0.0247517 0 0.0592611)
(0.0545263 0.0172795 0 0.0261869 0 0.0464879)
(0.0553076 0.0232933 0 0.0318664 0 0.0506227)
(0.056053 0.0323945 0 0.0414034 0 0.0519084)
(0.0569181 0.0253205 0 0.0539183 0 0.0577416)
(0.0636376 0.0501028 0 0.110967 0 0.0903646)
(0.101669 0.024861 0 0.0386042 0 0.0912226)
(0.0849012 0.022347 0 0.034071 0 0.0692095)
(0.0573215 0.0177158 0 0.0234235 0 0.0455381)
(0.0335617 0.0148016 0 0.0201312 0 0.0281322)
(0.0318537 0.0173819 0 0.0248411 0 0.0292583)
(0.0378331 0.0257363 0 0.0317218 0 0.0345947)
(0.0472899 0.0231226 0 0.042832 0 0.0456632)
(0.0612314 0.0274665 0 0.0843921 0 0.0844775)
(0.0847531 0.0289577 0 0.0424556 0 0.0732171)
(0.067837 0.0227441 0 0.0323806 0 0.0554673)
(0.0337579 0.0133894 0 0.0175076 0 0.0274529)
(0.0190078 0.00964123 0 0.0129142 0 0.0160656)
(0.0188343 0.0110757 0 0.015898 0 0.0173089)
(0.0283065 0.0199111 0 0.0234761 0 0.0249025)
(0.0396736 0.0225213 0 0.0375438 0 0.0380126)
(0.0548451 0.0180305 0 0.0729765 0 0.075821)
(0.0642564 0.0261053 0 0.0395318 0 0.0566729)
(0.0417156 0.0169044 0 0.0246752 0 0.0353698)
(0.0162293 0.00762357 0 0.0103715 0 0.0137226)
(0.0105217 0.00564157 0 0.00762239 0 0.00895239)
(0.0116204 0.00666833 0 0.00987488 0 0.0105311)
(0.0208173 0.0136656 0 0.0163012 0 0.0175998)
(0.0324733 0.019345 0 0.0286203 0 0.0298849)
(0.0470803 0.0175974 0 0.0654314 0 0.0635921)
(0.0391312 0.0184806 0 0.028661 0 0.0360181)
(0.0183466 0.00878398 0 0.0130387 0 0.0163269)
(0.00717774 0.00380279 0 0.00526263 0 0.00628883)
(0.00575796 0.00314586 0 0.00421925 0 0.00489347)
(0.00750855 0.00415803 0 0.00593744 0 0.00658739)
(0.0152849 0.00913069 0 0.0108787 0 0.0125648)
(0.0263883 0.0157047 0 0.0215237 0 0.0232706)
(0.0388175 0.0192867 0 0.0549815 0 0.0507847)
(0.0186995 0.0101228 0 0.0165497 0 0.0182385)
(0.00701228 0.00376865 0 0.00588089 0 0.0065489)
(0.00310826 0.00171386 0 0.00242676 0 0.00274051)
(0.00307509 0.00165489 0 0.00224746 0 0.00258829)
(0.00475761 0.00253479 0 0.00357657 0 0.00406037)
(0.0106096 0.00570163 0 0.00706326 0 0.00852366)
(0.0200192 0.011051 0 0.0144423 0 0.0167697)
(0.0322654 0.0186263 0 0.0424435 0 0.0385373)
(0.00763023 0.00450336 0 0.00753613 0 0.00771517)
(0.00240659 0.0013816 0 0.00217334 0 0.00229744)
(0.00135445 0.000750906 0 0.00103338 0 0.00117736)
(0.00163094 0.000858328 0 0.00111487 0 0.00135269)
(0.00297957 0.00155363 0 0.00206702 0 0.0024783)
(0.0071788 0.00358546 0 0.00445008 0 0.00565508)
(0.0143133 0.00740286 0 0.00944734 0 0.0116236)
(0.0257542 0.0158395 0 0.0296987 0 0.0278739)
(0.00261162 0.00162613 0 0.00274707 0 0.00269518)
(0.00077278 0.000451463 0 0.000707089 0 0.000733295)
(0.000582762 0.000313263 0 0.000429765 0 0.000494047)
(0.000824731 0.000421413 0 0.000567011 0 0.000674463)
(0.00170432 0.000858064 0 0.00116789 0 0.00139323)
(0.00444247 0.00212559 0 0.00271919 0 0.00347338)
(0.00950897 0.00444095 0 0.00575588 0 0.00746099)
(0.0198582 0.0116472 0 0.0190759 0 0.0192092)
(0.000754904 0.000479423 0 0.000802572 0 0.000777393)
(0.000241565 0.000137198 0 0.000206011 0 0.000220466)
(0.000247111 0.000130116 0 0.00017392 0 0.000205649)
(0.000405704 0.000206381 0 0.000266202 0 0.000331135)
(0.000933937 0.000460179 0 0.000585535 0 0.000750112)
(0.00261083 0.00122447 0 0.00153703 0 0.00201848)
(0.00597578 0.0026776 0 0.00341003 0 0.00461514)
(0.0142193 0.00772642 0 0.0117347 0 0.0126891)
(0.00019256 0.000121402 0 0.000199717 0 0.000194675)
(7.68706e-05 4.12653e-05 0 5.90804e-05 0 6.68503e-05)
(0.000100871 5.18196e-05 0 7.11889e-05 0 8.28476e-05)
(0.000186656 9.11891e-05 0 0.000123765 0 0.000150417)
(0.000457603 0.000214876 0 0.000295429 0 0.000363091)
(0.00137631 0.000631639 0 0.000811902 0 0.00106207)
(0.0034388 0.00145657 0 0.00190405 0 0.00261959)
(0.00955541 0.00473201 0 0.00667882 0 0.00797199)
(4.60945e-05 2.79895e-05 0 4.43897e-05 0 4.47186e-05)
(2.5263e-05 1.25874e-05 0 1.72385e-05 0 2.07429e-05)
(4.11439e-05 2.01613e-05 0 2.72783e-05 0 3.33216e-05)
(8.26151e-05 3.83539e-05 0 5.0142e-05 0 6.51922e-05)
(0.000217573 9.73803e-05 0 0.000123649 0 0.00017071)
(0.000681625 0.00030545 0 0.000392553 0 0.000520995)
(0.00184486 0.000774869 0 0.000998249 0 0.0013897)
(0.00580566 0.00270137 0 0.00389861 0 0.00469041)
(1.11527e-05 6.35624e-06 0 9.63586e-06 0 1.0191e-05)
(8.27233e-06 4.0751e-06 0 5.40567e-06 0 6.79354e-06)
(1.60731e-05 7.70648e-06 0 1.03256e-05 0 1.29654e-05)
(3.35165e-05 1.53652e-05 0 2.03214e-05 0 2.63034e-05)
(9.27651e-05 3.94385e-05 0 5.51933e-05 0 7.05987e-05)
(0.000301654 0.00012974 0 0.000170035 0 0.000230724)
(0.000879948 0.000353365 0 0.000448808 0 0.000658559)
(0.00315733 0.00141596 0 0.00189764 0 0.00250375)
(2.89312e-06 1.50491e-06 0 2.16487e-06 0 2.48424e-06)
(2.73887e-06 1.25651e-06 0 1.73013e-06 0 2.15019e-06)
(5.83804e-06 2.84479e-06 0 3.9982e-06 0 4.71208e-06)
(1.27281e-05 5.89631e-06 0 7.49041e-06 0 1.00197e-05)
(3.6712e-05 1.67724e-05 0 2.10337e-05 0 2.91115e-05)
(0.000124872 5.29353e-05 0 6.99426e-05 0 9.44079e-05)
(0.000376425 0.000152807 0 0.000209012 0 0.000283783)
(0.00148196 0.000633754 0 0.000937734 0 0.00116209)
(8.16699e-07 3.88415e-07 0 5.59367e-07 0 6.7308e-07)
(8.93677e-07 3.97788e-07 0 5.46238e-07 0 7.16586e-07)
(2.08953e-06 9.20579e-07 0 1.30025e-06 0 1.6683e-06)
(4.5852e-06 1.92382e-06 0 2.55197e-06 0 3.42373e-06)
(1.36504e-05 5.39813e-06 0 7.59353e-06 0 1.00686e-05)
(4.55146e-05 1.91994e-05 0 2.61316e-05 0 3.47045e-05)
(0.000146833 5.72423e-05 0 7.49293e-05 0 0.000110542)
(0.000613987 0.000259165 0 0.00034847 0 0.000478184)
(2.62384e-07 1.0807e-07 0 1.7408e-07 0 2.13949e-07)
(3.0686e-07 1.23688e-07 0 1.92321e-07 0 2.4445e-07)
(7.16854e-07 3.11284e-07 0 4.46902e-07 0 5.60321e-07)
(1.51261e-06 6.22526e-07 0 8.25112e-07 0 1.19008e-06)
(4.60286e-06 1.85947e-06 0 2.42172e-06 0 3.5679e-06)
(1.59578e-05 6.21901e-06 0 8.34316e-06 0 1.20555e-05)
(5.22901e-05 2.02959e-05 0 2.84338e-05 0 3.87159e-05)
(0.000221475 8.89852e-05 0 0.000135254 0 0.000171817)
(1.10848e-07 3.5005e-08 0 7.60744e-08 0 9.2049e-08)
(1.27985e-07 3.99712e-08 0 8.30766e-08 0 1.04733e-07)
(2.56543e-07 9.41463e-08 0 1.55675e-07 0 2.0182e-07)
(5.02103e-07 1.9102e-07 0 2.90449e-07 0 3.74386e-07)
(1.45812e-06 5.59622e-07 0 8.30845e-07 0 1.07843e-06)
(4.91465e-06 1.96596e-06 0 2.80478e-06 0 3.70226e-06)
(1.6268e-05 6.48717e-06 0 8.87771e-06 0 1.2717e-05)
(7.08206e-05 2.85211e-05 0 4.06654e-05 0 5.50323e-05)
(6.98736e-08 1.49841e-08 0 4.97117e-08 0 5.94114e-08)
(7.57088e-08 1.55992e-08 0 5.12639e-08 0 6.32058e-08)
(1.12713e-07 2.99882e-08 0 7.15463e-08 0 9.0621e-08)
(1.83364e-07 5.62737e-08 0 1.02727e-07 0 1.44456e-07)
(4.56458e-07 1.56092e-07 0 2.43298e-07 0 3.50232e-07)
(1.43888e-06 5.1818e-07 0 7.65179e-07 0 1.09324e-06)
(4.90717e-06 1.76372e-06 0 2.55211e-06 0 3.56912e-06)
(2.02963e-05 7.92195e-06 0 1.19353e-05 0 1.56654e-05)
(5.8934e-08 9.58475e-09 0 4.36532e-08 0 5.09246e-08)
(6.11289e-08 8.09143e-09 0 4.28773e-08 0 5.19762e-08)
(7.11888e-08 1.1107e-08 0 4.80128e-08 0 5.9063e-08)
(8.99036e-08 1.69891e-08 0 5.69559e-08 0 7.2602e-08)
(1.61814e-07 4.34135e-08 0 9.6547e-08 0 1.2581e-07)
(4.24498e-07 1.406e-07 0 2.30172e-07 0 3.19298e-07)
(1.29049e-06 4.59524e-07 0 6.94472e-07 0 9.94232e-07)
(5.11273e-06 1.93797e-06 0 2.95807e-06 0 4.00431e-06)
(5.60457e-08 7.63769e-09 0 4.15755e-08 0 4.8643e-08)
(5.68209e-08 5.98149e-09 0 4.05037e-08 0 4.87098e-08)
(5.95738e-08 5.91529e-09 0 4.18429e-08 0 5.04284e-08)
(6.5086e-08 6.25255e-09 0 4.30702e-08 0 5.4022e-08)
(8.18998e-08 1.09287e-08 0 5.24187e-08 0 6.67438e-08)
(1.43951e-07 3.31239e-08 0 8.61561e-08 0 1.14141e-07)
(3.55688e-07 1.05445e-07 0 1.969e-07 0 2.67852e-07)
(1.23169e-06 4.21642e-07 0 6.93528e-07 0 9.38525e-07)
(5.51124e-08 6.57226e-09 0 4.13379e-08 0 4.80199e-08)
(5.54868e-08 4.98032e-09 0 4.00694e-08 0 4.77995e-08)
(5.64332e-08 4.22468e-09 0 4.03127e-08 0 4.81901e-08)
(5.83282e-08 3.30773e-09 0 3.98357e-08 0 4.90729e-08)
(6.19468e-08 3.05147e-09 0 4.25451e-08 0 5.19645e-08)
(7.58928e-08 7.21964e-09 0 5.06689e-08 0 6.26818e-08)
(1.22821e-07 2.33462e-08 0 7.50328e-08 0 9.8167e-08)
(3.04308e-07 8.90363e-08 0 1.7595e-07 0 2.38358e-07)
(5.4618e-08 5.87322e-09 0 4.10578e-08 0 4.77048e-08)
(5.49023e-08 4.40454e-09 0 3.99735e-08 0 4.74666e-08)
(5.55009e-08 3.73645e-09 0 4.01072e-08 0 4.76096e-08)
(5.6259e-08 2.17616e-09 0 3.92513e-08 0 4.77707e-08)
(5.68611e-08 7.72114e-10 0 3.98282e-08 0 4.82952e-08)
(5.94253e-08 7.51917e-10 0 4.18882e-08 0 5.06062e-08)
(6.82732e-08 3.41522e-09 0 4.82401e-08 0 5.79654e-08)
(1.04485e-07 1.5996e-08 0 6.96824e-08 0 8.60195e-08)
(5.41375e-08 5.27044e-09 0 4.1241e-08 0 4.7532e-08)
(5.44568e-08 3.9378e-09 0 4.00404e-08 0 4.72922e-08)
(5.50639e-08 3.07564e-09 0 4.00694e-08 0 4.74098e-08)
(5.54413e-08 1.85241e-09 0 3.93799e-08 0 4.73903e-08)
(5.54523e-08 2.36463e-10 0 3.96111e-08 0 4.74594e-08)
(5.55216e-08 -7.79198e-10 0 4.04864e-08 0 4.78691e-08)
(5.65377e-08 -1.22649e-09 0 4.20579e-08 0 4.92245e-08)
(6.27544e-08 6.91006e-10 0 4.71014e-08 0 5.48353e-08)
(5.37769e-08 4.80009e-09 0 4.12587e-08 0 4.73824e-08)
(5.40672e-08 3.55363e-09 0 4.0252e-08 0 4.71846e-08)
(5.45597e-08 2.49209e-09 0 4.02439e-08 0 4.72706e-08)
(5.49871e-08 1.83217e-09 0 3.95991e-08 0 4.72535e-08)
(5.47232e-08 -3.31836e-10 0 3.96211e-08 0 4.71558e-08)
(5.44432e-08 -1.25425e-09 0 4.01251e-08 0 4.72055e-08)
(5.36996e-08 -2.28282e-09 0 4.09777e-08 0 4.73296e-08)
(5.41148e-08 -2.64676e-09 0 4.25401e-08 0 4.82796e-08)
(5.34606e-08 4.36325e-09 0 4.13009e-08 0 4.72517e-08)
(5.37697e-08 3.24025e-09 0 4.0312e-08 0 4.70811e-08)
(5.41496e-08 2.09621e-09 0 4.04217e-08 0 4.71677e-08)
(5.45221e-08 1.50502e-09 0 3.98739e-08 0 4.71531e-08)
(5.43544e-08 -3.14966e-10 0 3.97439e-08 0 4.70438e-08)
(5.39352e-08 -1.57488e-09 0 4.03482e-08 0 4.70491e-08)
(5.29159e-08 -2.56637e-09 0 4.08962e-08 0 4.68983e-08)
(5.22295e-08 -3.26519e-09 0 4.18869e-08 0 4.70154e-08)
(5.31116e-08 4.03968e-09 0 4.14018e-08 0 4.71349e-08)
(5.34252e-08 2.94845e-09 0 4.05125e-08 0 4.69908e-08)
(5.37953e-08 1.8135e-09 0 4.05376e-08 0 4.70652e-08)
(5.40727e-08 1.15568e-09 0 4.01576e-08 0 4.70574e-08)
(5.38621e-08 -4.30121e-10 0 4.00026e-08 0 4.69461e-08)
(5.36551e-08 -1.61306e-09 0 4.04832e-08 0 4.69775e-08)
(5.27643e-08 -2.52506e-09 0 4.07805e-08 0 4.67849e-08)
(5.1601e-08 -3.50305e-09 0 4.19984e-08 0 4.67496e-08)
(5.27921e-08 3.75346e-09 0 4.14664e-08 0 4.70259e-08)
(5.3125e-08 2.69829e-09 0 4.06395e-08 0 4.6906e-08)
(5.35011e-08 1.6175e-09 0 4.05919e-08 0 4.69701e-08)
(5.36994e-08 9.18764e-10 0 4.03332e-08 0 4.69627e-08)
(5.3447e-08 -5.5493e-10 0 4.02834e-08 0 4.68713e-08)
(5.32999e-08 -1.61275e-09 0 4.06719e-08 0 4.69114e-08)
(5.25695e-08 -2.43276e-09 0 4.09076e-08 0 4.67489e-08)
(5.14963e-08 -3.5316e-09 0 4.19633e-08 0 4.6686e-08)
(5.24768e-08 3.5019e-09 0 4.16035e-08 0 4.69396e-08)
(5.2767e-08 2.50089e-09 0 4.08618e-08 0 4.6828e-08)
(5.31258e-08 1.46837e-09 0 4.08597e-08 0 4.68993e-08)
(5.32999e-08 7.87852e-10 0 4.05389e-08 0 4.68725e-08)
(5.30609e-08 -6.96182e-10 0 4.05147e-08 0 4.67909e-08)
(5.29193e-08 -1.58434e-09 0 4.09013e-08 0 4.68395e-08)
(5.22171e-08 -2.40126e-09 0 4.11692e-08 0 4.67033e-08)
(5.13678e-08 -3.40524e-09 0 4.20729e-08 0 4.6666e-08)
(5.22148e-08 3.26538e-09 0 4.16607e-08 0 4.68522e-08)
(5.24855e-08 2.28301e-09 0 4.09997e-08 0 4.67552e-08)
(5.28417e-08 1.30572e-09 0 4.09334e-08 0 4.68195e-08)
(5.29263e-08 5.82202e-10 0 4.07566e-08 0 4.67961e-08)
(5.27271e-08 -7.24337e-10 0 4.0705e-08 0 4.67237e-08)
(5.25582e-08 -1.60265e-09 0 4.11137e-08 0 4.67667e-08)
(5.19465e-08 -2.41322e-09 0 4.13554e-08 0 4.66545e-08)
(5.11523e-08 -3.23566e-09 0 4.22009e-08 0 4.66299e-08)
(5.19486e-08 3.01824e-09 0 4.17813e-08 0 4.67817e-08)
(5.21999e-08 2.08175e-09 0 4.11643e-08 0 4.66911e-08)
(5.25118e-08 1.14381e-09 0 4.11511e-08 0 4.67555e-08)
(5.26092e-08 4.55185e-10 0 4.09405e-08 0 4.67313e-08)
(5.2382e-08 -8.18226e-10 0 4.09731e-08 0 4.66705e-08)
(5.22232e-08 -1.6423e-09 0 4.13097e-08 0 4.67027e-08)
(5.17128e-08 -2.40372e-09 0 4.15344e-08 0 4.66173e-08)
(5.0982e-08 -3.23079e-09 0 4.22276e-08 0 4.65809e-08)
(5.17297e-08 2.76203e-09 0 4.18301e-08 0 4.67108e-08)
(5.19547e-08 1.83088e-09 0 4.12853e-08 0 4.66308e-08)
(5.22678e-08 9.45206e-10 0 4.12253e-08 0 4.66901e-08)
(5.23318e-08 2.36623e-10 0 4.10653e-08 0 4.66676e-08)
(5.21606e-08 -9.77677e-10 0 4.10841e-08 0 4.66254e-08)
(5.2051e-08 -1.73254e-09 0 4.13509e-08 0 4.66608e-08)
(5.14843e-08 -2.46317e-09 0 4.17271e-08 0 4.65923e-08)
(5.08774e-08 -3.27031e-09 0 4.22739e-08 0 4.65595e-08)
(5.15266e-08 2.48236e-09 0 4.18949e-08 0 4.66494e-08)
(5.1724e-08 1.57239e-09 0 4.14061e-08 0 4.65765e-08)
(5.20148e-08 7.13234e-10 0 4.13764e-08 0 4.66395e-08)
(5.20364e-08 -7.03044e-11 0 4.12434e-08 0 4.66143e-08)
(5.19398e-08 -1.08564e-09 0 4.12847e-08 0 4.66009e-08)
(5.18297e-08 -1.87398e-09 0 4.15309e-08 0 4.66341e-08)
(5.13269e-08 -2.57495e-09 0 4.18873e-08 0 4.65826e-08)
(5.08231e-08 -3.33101e-09 0 4.23159e-08 0 4.65564e-08)
(5.12812e-08 2.18121e-09 0 4.20145e-08 0 4.65884e-08)
(5.14583e-08 1.28213e-09 0 4.15846e-08 0 4.65256e-08)
(5.17298e-08 4.98806e-10 0 4.15554e-08 0 4.65861e-08)
(5.17101e-08 -3.48469e-10 0 4.14924e-08 0 4.65665e-08)
(5.16686e-08 -1.1781e-09 0 4.1526e-08 0 4.65697e-08)
(5.15459e-08 -2.1045e-09 0 4.1737e-08 0 4.65995e-08)
(5.11301e-08 -2.75026e-09 0 4.20964e-08 0 4.65761e-08)
(5.07743e-08 -3.37215e-09 0 4.23907e-08 0 4.65612e-08)
(5.0983e-08 1.99151e-09 0 4.22209e-08 0 4.65345e-08)
(5.11137e-08 1.12387e-09 0 4.18864e-08 0 4.64804e-08)
(5.13812e-08 4.71589e-10 0 4.18472e-08 0 4.65392e-08)
(5.13319e-08 -4.53811e-10 0 4.17898e-08 0 4.65149e-08)
(5.13518e-08 -1.13064e-09 0 4.18199e-08 0 4.65326e-08)
(5.11944e-08 -2.10026e-09 0 4.20416e-08 0 4.65572e-08)
(5.08568e-08 -2.83866e-09 0 4.23942e-08 0 4.65624e-08)
(5.06903e-08 -3.33158e-09 0 4.24691e-08 0 4.65518e-08)
(5.06631e-08 1.89334e-09 0 4.24502e-08 0 4.6486e-08)
(5.08054e-08 1.11979e-09 0 4.21052e-08 0 4.64347e-08)
(5.10268e-08 5.17302e-10 0 4.20642e-08 0 4.64795e-08)
(5.09284e-08 -3.27485e-10 0 4.20353e-08 0 4.64443e-08)
(5.09374e-08 -1.00236e-09 0 4.20824e-08 0 4.64622e-08)
(5.07269e-08 -1.85255e-09 0 4.22737e-08 0 4.64624e-08)
(5.05517e-08 -2.48022e-09 0 4.24796e-08 0 4.64765e-08)
(5.0333e-08 -3.04674e-09 0 4.26561e-08 0 4.64746e-08)
(5.04534e-08 1.94588e-09 0 4.24855e-08 0 4.6432e-08)
(5.05528e-08 1.24293e-09 0 4.2197e-08 0 4.63795e-08)
(5.07024e-08 6.66861e-10 0 4.21895e-08 0 4.641e-08)
(5.05955e-08 -4.43166e-11 0 4.21679e-08 0 4.63709e-08)
(5.05772e-08 -6.45805e-10 0 4.22284e-08 0 4.63801e-08)
(5.03791e-08 -1.33333e-09 0 4.24024e-08 0 4.63712e-08)
(5.01801e-08 -1.88519e-09 0 4.26522e-08 0 4.6381e-08)
(4.98824e-08 -2.46588e-09 0 4.28929e-08 0 4.63676e-08)
(5.0263e-08 1.93778e-09 0 4.26035e-08 0 4.64007e-08)
(5.03698e-08 1.28608e-09 0 4.23315e-08 0 4.63544e-08)
(5.04964e-08 7.31401e-10 0 4.23357e-08 0 4.6381e-08)
(5.0406e-08 1.1055e-10 0 4.23081e-08 0 4.63442e-08)
(5.03357e-08 -4.60099e-10 0 4.24101e-08 0 4.63468e-08)
(5.01371e-08 -1.05143e-09 0 4.25429e-08 0 4.63251e-08)
(4.98894e-08 -1.58981e-09 0 4.27917e-08 0 4.63193e-08)
(4.95871e-08 -2.13445e-09 0 4.30124e-08 0 4.6297e-08)
(5.00636e-08 1.71666e-09 0 4.27151e-08 0 4.63585e-08)
(5.01958e-08 1.07845e-09 0 4.24525e-08 0 4.6324e-08)
(5.03263e-08 5.58807e-10 0 4.24642e-08 0 4.63561e-08)
(5.02668e-08 -7.73861e-12 0 4.24241e-08 0 4.63274e-08)
(5.01952e-08 -5.49787e-10 0 4.25333e-08 0 4.63331e-08)
(4.9989e-08 -1.09787e-09 0 4.26687e-08 0 4.63106e-08)
(4.97351e-08 -1.56929e-09 0 4.29347e-08 0 4.63062e-08)
(4.94461e-08 -2.03828e-09 0 4.31414e-08 0 4.62822e-08)
(4.99449e-08 1.3885e-09 0 4.28629e-08 0 4.6348e-08)