/*--------------------------------*- C++ -*----------------------------------*\
| =========                 |                                                 |
| \\      /  F ield         | OpenFOAM: The Open Source CFD Toolbox           |
|  \\    /   O peration     | Version:  v1912                                 |
|   \\  /    A nd           | Website:  www.openfoam.com                      |
|    \\/     M anipulation  |                                                 |
\*---------------------------------------------------------------------------*/
FoamFile
{
    version     2.0;
    format      ascii;
    class       volScalarField;
    location    "20";
    object      k;
}
// * * * * * * * * * * * * * * * * * * * * * * * * * * * * * * * * * * * * * //

dimensions      [0 2 -2 0 0 0 0];


internalField   nonuniform List<scalar> 
14268
(
1.24803e-08
1.512e-08
1.89804e-08
1.76407e-08
1.51934e-08
1.40246e-08
1.31057e-08
1.25159e-08
1.13825e-08
8.84322e-09
8.36588e-09
1.65682e-08
4.07851e-08
8.5863e-08
2.70512e-07
3.1823e-06
2.27774e-06
7.12284e-07
1.97735e-06
3.22165e-05
0.000169387
0.000565362
0.0010931
0.00135889
0.00143375
0.00174499
0.00198444
0.00204271
0.0021233
0.00259852
0.00301025
0.0034253
0.00381475
0.00421429
0.00449255
0.00465462
0.00462746
0.00593115
0.00830857
0.00976476
0.00960621
0.00875717
0.00874512
0.0111471
0.0127194
0.0103495
0.00912656
0.012971
0.0198346
0.020717
0.0150511
0.0124892
0.012282
0.0132789
0.0137059
0.0144228
0.0173562
0.0226329
0.0264351
0.0273904
0.0269659
0.0275261
0.0295993
0.0314912
0.033565
0.0398186
0.0543184
0.0662865
0.0590507
0.0599289
0.0696415
0.0881768
0.0812178
0.0348945
0.0194093
0.0357926
0.0592074
0.0800783
0.0640535
0.0667557
0.067947
0.0654664
0.0635987
0.0622535
0.0654927
0.0751124
0.0894436
0.100613
0.0488997
0.0275025
0.0169721
0.0781188
0.0882234
0.0953516
0.0300147
0.0622418
0.069754
0.0937698
0.119438
0.22649
0.365331
0.411637
0.402797
0.268238
1.08879e-07
1.18341e-07
1.30226e-07
1.25479e-07
1.18035e-07
1.15009e-07
1.09521e-07
9.9814e-08
8.28835e-08
5.9586e-08
6.14496e-08
1.02077e-07
1.61432e-07
3.18343e-07
2.04133e-06
2.83817e-05
2.29507e-05
7.74541e-06
6.74477e-06
0.000102141
0.000571699
0.00201873
0.00395552
0.00507564
0.00534868
0.00627051
0.00711702
0.00750201
0.00780163
0.00895133
0.010146
0.0113816
0.0124438
0.0134216
0.0140681
0.0145062
0.0147454
0.0190735
0.0254735
0.0290921
0.0287306
0.0270906
0.0275124
0.0333172
0.0362577
0.0303178
0.0279988
0.0400989
0.0617481
0.0664539
0.0479408
0.0385417
0.0364538
0.0365088
0.0358804
0.0370396
0.0431469
0.0546119
0.0616879
0.0622393
0.0596705
0.0588088
0.0605805
0.062539
0.0647738
0.0744851
0.097495
0.108627
0.0899801
0.090392
0.117682
0.191323
0.253971
0.14004
0.0982941
0.168618
0.328039
0.698945
0.900611
0.873565
0.865893
0.744244
0.66421
0.742006
0.879865
0.915749
1.01575
0.806834
0.259229
0.218557
0.210948
0.66275
0.549281
0.47608
0.0843373
0.135409
0.196962
0.319043
0.420509
0.636927
0.909266
1.00932
0.979409
0.622553
1.88093e-07
1.92339e-07
1.97552e-07
1.94893e-07
1.90895e-07
1.88789e-07
1.85411e-07
1.79004e-07
1.64965e-07
1.36533e-07
1.41895e-07
1.75387e-07
2.36683e-07
7.42739e-07
9.90401e-06
9.69406e-05
7.88289e-05
2.76655e-05
1.27468e-05
0.000173781
0.000937219
0.00319287
0.00592138
0.00766119
0.00813719
0.00881333
0.0100252
0.011061
0.0115732
0.0123036
0.0140876
0.0158662
0.0170851
0.0178646
0.0183162
0.0187894
0.020026
0.0270273
0.0351674
0.0397754
0.0383935
0.0356974
0.0374816
0.0448012
0.0491567
0.0408352
0.0380121
0.056537
0.0893366
0.0968105
0.068237
0.0530686
0.0474053
0.0443139
0.0421945
0.0416861
0.047904
0.0623406
0.0707762
0.0694898
0.0633489
0.0587056
0.0575136
0.0573499
0.0576263
0.065918
0.0872732
0.0936991
0.0710676
0.068964
0.087037
0.140328
0.246843
0.273209
0.196092
0.262783
0.781323
1.35468
1.44688
1.27914
1.35336
1.27369
0.968936
0.775628
0.972692
1.09396
1.30055
1.88589
1.9944
1.31801
0.612515
0.675099
0.613651
0.677498
0.116198
0.112355
0.152791
0.319623
0.539077
0.817804
1.13597
1.30122
1.29015
0.7864
2.09998e-07
2.11364e-07
2.13249e-07
2.12288e-07
2.1095e-07
2.09717e-07
2.08393e-07
2.06421e-07
2.0197e-07
1.94128e-07
1.96299e-07
2.10361e-07
3.25745e-07
2.61436e-06
3.44559e-05
0.000212559
0.000147683
5.43563e-05
1.89344e-05
0.000214738
0.00112511
0.0035188
0.00621808
0.00785853
0.00811731
0.00826165
0.00922929
0.0104404
0.0113797
0.0128738
0.0156533
0.0179746
0.0194512
0.0203952
0.0210983
0.021909
0.0238537
0.032909
0.0432116
0.0490418
0.0461945
0.0422035
0.0442382
0.0544701
0.0599115
0.0496213
0.045737
0.0694413
0.113708
0.12494
0.0865981
0.0655639
0.0573426
0.0528533
0.0496567
0.0486695
0.0563497
0.0741177
0.0839536
0.0803255
0.0707202
0.0624465
0.0585862
0.0562592
0.0526313
0.0556405
0.072151
0.0706436
0.0494243
0.042585
0.0432356
0.0745298
0.156802
0.207032
0.175459
0.203795
1.19959
1.56208
1.47959
1.43307
1.54047
1.4548
1.0771
0.662651
0.724479
0.830486
0.996348
1.45589
2.59663
2.63616
0.964655
0.645359
0.588337
0.554635
0.11112
0.0773335
0.113429
0.296032
0.589049
0.984737
1.93055
2.24965
2.24174
1.37372
2.17323e-07
2.16788e-07
2.16968e-07
2.16343e-07
2.16064e-07
2.15583e-07
2.15543e-07
2.1583e-07
2.16722e-07
2.18546e-07
2.18314e-07
2.32568e-07
6.33518e-07
8.9878e-06
8.58119e-05
0.000322291
0.000256889
9.99497e-05
2.72253e-05
0.000250667
0.00120186
0.00351278
0.00603578
0.00753348
0.00778014
0.00762622
0.00838286
0.00971146
0.0111363
0.0137172
0.0173116
0.0201864
0.0221027
0.0234067
0.0244223
0.0255482
0.0282064
0.0388987
0.0512868
0.0589919
0.0553823
0.0495518
0.0517586
0.0640459
0.0713074
0.0592719
0.0541531
0.0820687
0.137874
0.152561
0.105488
0.079108
0.0685951
0.0632079
0.0599998
0.0593404
0.0700336
0.0923679
0.10421
0.0980303
0.0851537
0.0735783
0.0678436
0.064249
0.0571994
0.0533922
0.0695964
0.075707
0.0552295
0.0644662
0.0921416
0.110779
0.141714
0.201679
0.460558
1.08975
1.74381
1.56971
1.45974
1.50095
1.5784
1.63043
1.43152
0.857499
0.566146
0.628862
0.725073
1.01975
1.74263
3.20143
1.63419
0.718903
0.663423
0.364781
0.116549
0.146864
0.177264
0.317342
0.651973
1.17154
2.35489
2.72445
3.10975
2.17964
2.17636e-07
2.16571e-07
2.16727e-07
2.16393e-07
2.16363e-07
2.15669e-07
2.16001e-07
2.17151e-07
2.21436e-07
2.33529e-07
2.30851e-07
2.78844e-07
1.5785e-06
2.38323e-05
0.000148401
0.000371971
0.000439386
0.000176352
3.79564e-05
0.000277427
0.00120516
0.00323131
0.0052782
0.00648493
0.00681334
0.00694938
0.0078487
0.00919123
0.0110375
0.0146582
0.0190699
0.0224703
0.0247705
0.0264027
0.0277311
0.0291943
0.0322675
0.0441007
0.058823
0.0682955
0.0644585
0.0567604
0.0583443
0.0728544
0.0815433
0.0682684
0.0616474
0.0927474
0.160654
0.178687
0.123638
0.0918888
0.0791043
0.0728827
0.06963
0.0699709
0.0843004
0.11111
0.124813
0.116231
0.100509
0.0863745
0.0800451
0.0763644
0.06663
0.0539165
0.0644345
0.078604
0.0849803
0.123067
0.224901
0.268095
0.350516
0.448462
1.23849
2.43552
2.39151
1.81091
1.41241
1.42293
1.50918
1.85065
1.74123
1.39635
0.596003
0.496987
0.56375
0.689827
1.05208
2.11021
2.61594
1.16875
0.966528
0.195154
0.101079
0.287113
0.366711
0.412421
0.711364
1.26026
2.47062
2.8682
3.45435
2.42754
2.18292e-07
2.17451e-07
2.17197e-07
2.16883e-07
2.16989e-07
2.16493e-07
2.16839e-07
2.18269e-07
2.2392e-07
2.37703e-07
2.37668e-07
3.96611e-07
3.80846e-06
4.68502e-05
0.000198374
0.000359852
0.000563348
0.000261782
5.05652e-05
0.00030517
0.00122943
0.00299426
0.00467184
0.0057454
0.00634819
0.00698322
0.00810041
0.00952017
0.0116836
0.0161241
0.0211601
0.0250431
0.0277111
0.0296209
0.0312347
0.0330073
0.036521
0.0492548
0.0663361
0.0777452
0.074257
0.0639875
0.065083
0.0815117
0.0922166
0.0777825
0.0693064
0.103115
0.184079
0.204766
0.142532
0.105258
0.0898893
0.0826718
0.079712
0.0820454
0.101114
0.132997
0.148483
0.137401
0.118964
0.102783
0.0972357
0.0943987
0.0825816
0.0609721
0.0634549
0.0818995
0.128068
0.230939
0.674143
0.900362
0.988689
1.43242
2.32886
2.825
2.66006
2.16789
1.58475
1.50189
1.64522
2.02791
1.67255
1.47306
1.16244
0.501515
0.427765
0.572912
0.702213
1.22657
3.95033
2.8275
1.71142
0.163969
0.0923654
0.353638
0.455079
0.524379
0.807546
1.38316
3.01099
3.64477
3.68199
2.49827
2.18008e-07
2.1661e-07
2.16645e-07
2.16422e-07
2.16436e-07
2.15855e-07
2.16346e-07
2.18171e-07
2.23934e-07
2.40824e-07
2.4692e-07
6.70333e-07
7.9408e-06
7.12154e-05
0.000228844
0.000303461
0.000600245
0.00034602
6.39818e-05
0.00033286
0.00126804
0.00277861
0.00406483
0.00498016
0.00589733
0.00713542
0.00850512
0.00999745
0.0124538
0.017477
0.0230697
0.0273873
0.0303939
0.032638
0.0345799
0.0367298
0.0404484
0.0538074
0.0732367
0.086516
0.0839648
0.0708008
0.0709415
0.0893879
0.102149
0.0868536
0.0759058
0.112193
0.206599
0.22871
0.160792
0.117855
0.0997901
0.0917766
0.0891759
0.0944814
0.11899
0.155777
0.17224
0.158843
0.138021
0.12057
0.1178
0.117217
0.103536
0.0719846
0.0721626
0.10325
0.195484
0.49427
2.18744
2.20849
2.02714
2.28588
2.92698
3.02239
2.84335
2.42087
1.87011
1.75928
2.02403
1.9493
1.45318
1.36264
1.33878
0.927194
0.356934
0.414302
0.56888
0.86649
3.07944
5.23176
2.78599
0.336203
0.122969
0.492577
0.614342
0.693371
0.971762
1.6204
3.89481
4.21976
3.53986
2.8922
2.17868e-07
2.17051e-07
2.16811e-07
2.16647e-07
2.16862e-07
2.16417e-07
2.16872e-07
2.18259e-07
2.24127e-07
2.41455e-07
2.66492e-07
1.16937e-06
1.44366e-05
9.7006e-05
0.000235995
0.000237872
0.00058434
0.000405419
7.83746e-05
0.00036295
0.00132913
0.00269322
0.00382566
0.00473805
0.00596107
0.00759365
0.00918327
0.0107957
0.0134909
0.0189946
0.0251254
0.0298811
0.0332356
0.0357642
0.0380188
0.0405501
0.0444243
0.0581882
0.0795791
0.0951723
0.0940789
0.0774179
0.0768231
0.0970534
0.112402
0.0962925
0.0819963
0.12109
0.230056
0.251371
0.1798
0.131065
0.109932
0.101024
0.0991749
0.108719
0.139405
0.181048
0.197207
0.181633
0.158543
0.140305
0.142428
0.144829
0.123463
0.0873863
0.0841119
0.132269
0.378919
1.72377
2.99215
3.14854
2.76782
2.83967
3.23337
3.18683
3.04246
2.66148
2.15528
2.1063
2.2584
1.78316
1.30991
1.28269
1.35445
1.20766
0.534372
0.295176
0.438704
0.640381
1.71209
5.76691
3.44812
0.827174
0.237373
0.829874
1.01795
1.01125
1.18459
2.0067
4.52132
4.13696
3.37239
3.36682
2.17862e-07
2.16563e-07
2.16336e-07
2.16211e-07
2.1624e-07
2.15658e-07
2.16241e-07
2.17987e-07
2.24146e-07
2.42586e-07
2.98783e-07
1.93912e-06
2.40021e-05
0.000119711
0.000203311
0.000184484
0.000561664
0.000448978
9.28483e-05
0.000393936
0.0013912
0.00263211
0.0036362
0.00452184
0.00606018
0.008059
0.00983191
0.01157
0.0144705
0.0203534
0.0269588
0.032122
0.0358003
0.0386482
0.0412302
0.0442287
0.0480591
0.0619181
0.0847642
0.102748
0.103726
0.0834434
0.0818675
0.10358
0.121661
0.105234
0.0870533
0.127991
0.252843
0.270518
0.197982
0.143491
0.119201
0.109629
0.108741
0.123555
0.160956
0.207258
0.221244
0.20467
0.179718
0.161201
0.167757
0.167049
0.144695
0.106316
0.105867
0.191585
1.266
2.21859
3.47134
3.60332
3.03657
3.07292
3.37946
3.2861
3.16537
2.87472
2.41986
2.386
2.24535
1.79863
1.36594
1.25726
1.31998
1.30005
0.908038
0.245054
0.298046
0.497642
1.20241
4.10955
3.71677
1.47708
0.563654
1.20931
1.2752
1.16187
1.35992
2.63895
4.628
3.97412
3.26894
3.35031
2.1736e-07
2.16248e-07
2.163e-07
2.16239e-07
2.16534e-07
2.16116e-07
2.16605e-07
2.18181e-07
2.24125e-07
2.44249e-07
3.55976e-07
3.05863e-06
3.42468e-05
0.000132094
0.000152551
0.000149569
0.000556441
0.00048757
0.000107741
0.000428118
0.00146529
0.00264548
0.00363145
0.00457405
0.00635487
0.00865034
0.010601
0.0124762
0.015551
0.021773
0.0288767
0.0344559
0.0384563
0.0415696
0.0444275
0.0479166
0.0516272
0.0652374
0.0891011
0.109969
0.113026
0.0893123
0.0868614
0.109328
0.130377
0.114062
0.091617
0.133184
0.275967
0.286544
0.216946
0.156617
0.12864
0.11816
0.118853
0.140012
0.184004
0.235471
0.246801
0.227485
0.199745
0.180832
0.185835
0.190985
0.166104
0.132221
0.177875
1.21929
2.29635
2.60872
3.87597
3.65523
3.02079
3.08538
3.39535
3.41942
3.31351
3.09125
2.68284
2.59938
2.31291
1.94797
1.67714
1.4472
1.35831
1.3438
1.16298
0.48737
0.200328
0.347376
0.765765
1.92811
3.77762
1.71966
1.00476
1.37545
1.2874
1.19044
1.56206
3.21543
4.47898
3.82662
3.14916
3.26156
2.17593e-07
2.16232e-07
2.15823e-07
2.15733e-07
2.15829e-07
2.15288e-07
2.1596e-07
2.17836e-07
2.23957e-07
2.46582e-07
4.33548e-07
4.58067e-06
4.19345e-05
0.000131384
0.000112407
0.000132644
0.000573387
0.000516812
0.000118971
0.000463719
0.00153908
0.00266803
0.00362524
0.00462309
0.00665737
0.00918838
0.0112921
0.0133118
0.016547
0.0230369
0.0305739
0.0365441
0.0408416
0.0442101
0.0473139
0.0513402
0.0547856
0.0681027
0.0931813
0.117143
0.12126
0.0946567
0.091004
0.112906
0.136992
0.121273
0.0950554
0.13516
0.294681
0.294346
0.234921
0.168956
0.137045
0.125742
0.128592
0.156628
0.207673
0.261716
0.26702
0.245062
0.215652
0.192882
0.19958
0.211733
0.19703
0.264234
1.4946
2.12551
2.80038
2.89079
3.94047
3.31386
2.77411
2.86843
3.20067
3.45327
3.40292
3.2548
2.92174
2.77525
2.44836
2.15608
1.97741
1.84009
1.54253
1.41884
1.27939
0.858527
0.214338
0.235675
0.550051
1.09849
3.37202
1.72202
1.22767
1.41774
1.25323
1.16439
1.74161
3.35332
4.26885
3.64492
3.03202
3.15128
2.16666e-07
2.1563e-07
2.15648e-07
2.15579e-07
2.16024e-07
2.15658e-07
2.16107e-07
2.17624e-07
2.24018e-07
2.50364e-07
5.49591e-07
6.67031e-06
4.63597e-05
0.000110086
8.53351e-05
0.000127855
0.000599451
0.000535859
0.000128694
0.00050203
0.00162443
0.00273887
0.00370648
0.00478948
0.00704322
0.00978847
0.0120483
0.0142008
0.017576
0.0243189
0.0323223
0.0386916
0.0432641
0.046797
0.0500546
0.0545898
0.0577981
0.0710866
0.0980875
0.12586
0.128846
0.10012
0.0949183
0.11469
0.142203
0.126691
0.0980117
0.133505
0.308117
0.295493
0.253159
0.181924
0.14546
0.133032
0.138832
0.174316
0.228961
0.276912
0.277207
0.256041
0.227434
0.20288
0.203307
0.233808
0.284989
1.63214
2.37371
2.73292
3.21845
3.20365
3.88722
3.02148
2.57348
2.66048
3.00619
3.29076
3.40939
3.30454
3.07501
2.93155
2.67911
2.44271
2.32237
2.19978
1.94783
1.57317
1.33549
0.970281
0.578393
0.202956
0.398685
0.875846
2.98281
1.74847
1.37679
1.40597
1.17218
1.05996
1.57449
3.21672
4.04275
3.46016
2.90442
3.02742
2.17275e-07
2.15957e-07
2.15584e-07
2.15454e-07
2.15382e-07
2.14772e-07
2.15615e-07
2.1758e-07
2.24241e-07
2.55255e-07
7.00983e-07
8.71862e-06
4.81624e-05
9.02341e-05
7.29133e-05
0.000129559
0.000591189
0.000556689
0.000139016
0.000542865
0.00170974
0.00281561
0.00378597
0.00495337
0.00740996
0.0103244
0.0127302
0.0150301
0.0185313
0.0254487
0.0338495
0.0405929
0.0453827
0.0489874
0.0523322
0.0572728
0.0606184
0.0740896
0.102112
0.133777
0.135974
0.105252
0.097754
0.113553
0.145176
0.129592
0.0994521
0.127957
0.296902
0.29384
0.26921
0.194399
0.1528
0.139328
0.148489
0.191876
0.234274
0.278773
0.281632
0.26566
0.237904
0.201175
0.197898
0.275996
1.18738
2.27914
2.58832
2.82035
3.38289
3.44513
3.77954
2.75111
2.37659
2.48062
2.8052
3.06369
3.26893
3.2432
3.10224
3.02281
2.86991
2.68855
2.58389
2.51445
2.36474
1.86998
1.39281
0.971182
0.812728
0.52294
0.331979
0.761918
2.61422
1.85933
1.27877
1.30542
0.997192
0.943895
1.60171
3.04715
3.82355
3.3327
2.76931
2.89692
2.16144e-07
2.15169e-07
2.15179e-07
2.15119e-07
2.15736e-07
2.15414e-07
2.15727e-07
2.17161e-07
2.24065e-07
2.68249e-07
1.0048e-06
1.16619e-05
4.99872e-05
7.26883e-05
6.94466e-05
0.000145789
0.000529685
0.000575094
0.000153346
0.00060923
0.00184978
0.00297669
0.00399216
0.00529371
0.00801065
0.0111756
0.01379
0.016282
0.0199542
0.0271421
0.0361809
0.0434888
0.0485452
0.0520912
0.0552625
0.0604676
0.0647459
0.0778065
0.105147
0.140895
0.145455
0.113271
0.101049
0.10844
0.147087
0.132374
0.101027
0.125327
0.231075
0.283684
0.291367
0.214572
0.163602
0.147696
0.162766
0.204353
0.2152
0.270251
0.295547
0.277924
0.242261
0.189007
0.184678
0.371715
1.62559
2.36638
2.35168
2.54768
3.19209
3.70841
3.64002
2.42933
2.12281
2.24242
2.56383
2.74655
2.91317
3.02241
2.99744
3.00178
2.99268
2.85069
2.58014
2.53553
2.61215
2.31743
1.57778
1.11096
0.90139
0.882294
0.492082
0.709798
1.88859
1.93209
1.40628
1.11728
0.842039
0.93517
1.64171
2.95341
3.55824
3.20442
2.63062
2.69054
2.16723e-07
2.15488e-07
2.15326e-07
2.15256e-07
2.15039e-07
2.14207e-07
2.15289e-07
2.17347e-07
2.25009e-07
2.90957e-07
1.47654e-06
1.50592e-05
4.93471e-05
5.48688e-05
7.11891e-05
0.00018571
0.000467469
0.000574957
0.000172292
0.000697321
0.00202804
0.0031955
0.00426737
0.00573307
0.00872223
0.0121187
0.0149845
0.0177288
0.0215752
0.0288572
0.0385045
0.0464279
0.0516661
0.0548768
0.0573363
0.062655
0.0689962
0.0796613
0.0969635
0.134659
0.148621
0.12311
0.100058
0.0904552
0.123331
0.135186
0.0976375
0.132403
0.120894
0.22761
0.297224
0.240197
0.173935
0.153926
0.166228
0.164108
0.184243
0.23596
0.265065
0.249522
0.219274
0.163809
0.1628
0.432617
1.53494
1.98618
1.98259
2.19278
2.84374
3.53985
3.42988
2.09319
1.79242
1.89185
2.23082
2.41087
2.48406
2.63044
2.75338
2.87908
2.84798
2.55988
2.16702
2.17079
2.37865
2.39879
2.02384
1.35731
0.752803
0.777045
0.849158
1.05485
1.3856
1.55689
1.36724
1.09002
0.846401
1.1973
1.46648
2.84624
3.37562
2.93816
2.58524
2.41651
2.16107e-07
2.15134e-07
2.15397e-07
2.15135e-07
2.15454e-07
2.1464e-07
2.1435e-07
2.16048e-07
2.25479e-07
3.19404e-07
2.0162e-06
1.73301e-05
3.94961e-05
4.64818e-05
8.07831e-05
0.000204839
0.000419861
0.000565058
0.000191382
0.000790375
0.00221666
0.00344991
0.00460389
0.0062089
0.00939452
0.0129959
0.016084
0.0190412
0.0230068
0.0303075
0.0404831
0.0490077
0.054371
0.0570497
0.0587785
0.0646588
0.0724203
0.0788639
0.0806458
0.118755
0.14304
0.133681
0.0973768
0.0765562
0.0668099
0.125193
0.0852466
0.0770525
0.0570035
0.158066
0.283325
0.258289
0.179904
0.15569
0.128313
0.127208
0.159277
0.194418
0.21508
0.197791
0.320456
0.594469
0.469104
0.572017
1.26774
1.55345
1.68534
1.9228
2.49738
3.19121
3.19865
1.67276
1.44306
1.53525
1.8181
2.031
2.11843
2.20874
2.32444
2.45936
2.43233
2.1585
1.77052
1.79577
2.08571
2.26781
2.28418
1.85514
1.07449
0.690057
0.810528
1.17018
1.16999
1.38647
1.53021
1.17712
0.969843
1.39381
1.21338
2.73696
3.31434
2.65782
2.35483
2.27625
2.17664e-07
2.1616e-07
2.15978e-07
2.16085e-07
2.15142e-07
2.13734e-07
2.14516e-07
2.16678e-07
2.26467e-07
3.50751e-07
2.54648e-06
1.81205e-05
3.37685e-05
4.49837e-05
8.46513e-05
0.000182259
0.000387853
0.000541502
0.000208386
0.000881573
0.0023843
0.00366918
0.0048899
0.00662376
0.00993877
0.0136336
0.0168798
0.0200102
0.0240498
0.0311036
0.041414
0.0503608
0.0557714
0.0579364
0.0598125
0.0657597
0.073198
0.076044
0.0611697
0.0673779
0.130212
0.140319
0.0931816
0.0700224
0.0364949
0.104263
0.0707689
0.0301224
0.0205761
0.0913711
0.249896
0.259929
0.175599
0.123871
0.0805295
0.0769155
0.130593
0.135464
0.136144
0.239732
0.650643
0.869157
0.699887
0.628061
0.858023
1.15911
1.34238
1.61841
2.15084
2.79584
2.81171
1.48652
1.09836
1.14478
1.38279
1.58869
1.72756
1.81717
1.83333
1.88789
1.89984
1.74999
1.44008
1.49403
1.75102
1.9712
2.1332
2.03086
1.65038
0.814549
0.727561
1.11578
1.2225
1.62319
1.55557
1.11059
1.09926
1.66715
1.1564
2.49592
3.2508
2.46204
2.26224
2.59182
2.17559e-07
2.15203e-07
2.19608e-07
2.24144e-07
2.25869e-07
2.22349e-07
2.17818e-07
2.18499e-07
2.28623e-07
3.8703e-07
3.13917e-06
1.83433e-05
3.18879e-05
4.52732e-05
7.91392e-05
0.000166316
0.000371783
0.000497946
0.000225799
0.000975394
0.00254702
0.00389007
0.00518821
0.00699891
0.010336
0.0140641
0.0174248
0.0207077
0.0247982
0.0315603
0.0417536
0.0509589
0.0564323
0.0578684
0.0587186
0.0624177
0.0692883
0.0706873
0.0467411
0.0294079
0.103963
0.145293
0.0858886
0.057546
0.0283448
0.0803135
0.0588709
0.0173715
0.00991436
0.0355572
0.204114
0.248128
0.163618
0.0869434
0.0423945
0.0379653
0.0517518
0.0538311
0.0821102
0.292507
0.562179
0.734973
0.78005
0.560847
0.584012
0.777238
0.955826
1.26223
1.8033
2.39286
2.36633
1.31096
0.826178
0.84527
1.07332
1.22638
1.34494
1.46766
1.47358
1.51796
1.53473
1.38111
1.09559
1.15059
1.42731
1.65603
1.78794
1.5895
1.39048
1.11277
0.727706
0.869894
1.17991
1.93958
1.43019
1.04243
1.10647
1.93415
1.27811
2.23382
3.14653
2.28282
2.26172
2.94106
2.20925e-07
2.23585e-07
2.51907e-07
2.84162e-07
2.93432e-07
2.78218e-07
2.49568e-07
2.3241e-07
2.36009e-07
4.2163e-07
3.47291e-06
1.8236e-05
3.05517e-05
4.34319e-05
7.40624e-05
0.000157233
0.000327627
0.000444786
0.000244409
0.00107157
0.00266949
0.00403603
0.00538154
0.00726152
0.0105344
0.014198
0.0176657
0.0211486
0.0251475
0.0312996
0.0406851
0.0495796
0.054807
0.0554309
0.0531303
0.0522782
0.0602194
0.061133
0.035963
0.020263
0.0731967
0.147382
0.0749628
0.0387959
0.0231725
0.0552871
0.0396077
0.0128774
0.00724796
0.00979024
0.139224
0.214914
0.147321
0.0609256
0.0236404
0.0237346
0.0536774
0.0330133
0.0424953
0.164258
0.341727
0.430681
0.531072
0.379954
0.358296
0.489215
0.647441
0.923886
1.4279
2.0147
1.95279
1.25466
0.609089
0.615935
0.823056
0.91277
1.01322
1.17858
1.1715
1.19276
1.21861
1.06811
0.820383
0.871129
1.13342
1.36917
1.46305
1.33582
1.16904
1.15165
0.768002
0.740898
0.910885
1.63627
1.38888
1.00041
1.12137
2.01938
1.63806
2.07205
2.971
2.11789
2.15445
2.73826
2.1882e-07
2.32056e-07
3.30176e-07
4.05631e-07
4.58488e-07
4.56365e-07
3.63128e-07
2.80305e-07
2.5568e-07
4.65003e-07
4.07042e-06
1.9275e-05
3.00951e-05
4.21131e-05
7.21682e-05
0.000146083
0.000255974
0.000372653
0.000266647
0.00117045
0.00275711
0.00412711
0.00548932
0.00732326
0.0104569
0.0140234
0.0175842
0.0213227
0.025152
0.0306602
0.0387661
0.0468776
0.0516748
0.0513907
0.0446171
0.0406026
0.0498951
0.0485501
0.0277762
0.018576
0.0466562
0.139169
0.0657457
0.0298753
0.019134
0.0348448
0.0240306
0.00938418
0.00621408
0.00710966
0.0732495
0.179232
0.113825
0.0425536
0.0178584
0.0222793
0.026899
0.0226732
0.0163158
0.0549767
0.151276
0.209248
0.326655
0.265355
0.21315
0.291234
0.412138
0.637279
1.067
1.66824
1.67019
1.18568
0.572573
0.527754
0.624916
0.612902
0.692736
0.947215
0.956874
0.949859
0.941567
0.808112
0.610797
0.681388
0.92214
1.13381
1.2485
1.19571
1.07188
1.05065
0.786287
0.641103
0.724381
1.12981
1.35853
0.955975
1.10923
1.87578
2.02045
2.09556
2.75492
1.9728
2.00098
2.54509
3.54504e-07
5.04824e-07
6.24931e-07
6.25989e-07
7.04213e-07
8.73969e-07
1.06854e-06
1.27572e-06
1.31507e-06
2.7699e-06
1.1253e-05
1.8252e-05
2.34421e-05
3.48184e-05
6.55492e-05
0.000132306
0.000234787
0.00038671
0.000725347
0.00177587
0.00273552
0.0038854
0.00498408
0.00616472
0.00782981
0.00961458
0.0125247
0.0159517
0.0175473
0.0178159
0.0182451
0.0197274
0.0233149
0.023166
0.0191604
0.0157193
0.0173704
0.0176946
0.0146903
0.0118958
0.0152599
0.0378359
0.0287807
0.0187318
0.0119274
0.0121467
0.00987886
0.00650094
0.00576389
0.00588523
0.00934044
0.0468118
0.0343836
0.020631
0.0160481
0.016071
0.0164307
0.0164233
0.0122561
0.00926924
0.00973199
0.0118733
0.0168392
0.0219387
0.0284382
0.0357603
0.0548904
0.117964
0.257881
0.469195
0.527213
0.486152
0.343121
0.24649
0.217748
0.230518
0.270554
0.294235
0.319247
0.349043
0.314415
0.232728
0.210401
0.22588
0.292948
0.336355
0.353079
0.411391
0.493105
0.631032
0.579031
0.455555
0.411545
0.450334
1.01151
0.920705
0.678195
1.20319
1.97903
2.33016
1.88636
1.36275
1.32619
1.58692
1.1096e-06
1.17096e-06
9.60939e-07
6.95948e-07
6.32588e-07
7.03084e-07
1.08755e-06
1.83259e-06
3.12721e-06
4.52535e-06
6.08334e-06
6.71236e-06
7.29109e-06
1.22365e-05
2.62516e-05
5.82568e-05
0.000108489
0.000186075
0.000274925
0.000409282
0.000629596
0.000964124
0.00139435
0.00167951
0.00183132
0.00186226
0.00200144
0.00236706
0.00247938
0.00194228
0.00152982
0.00130392
0.00119276
0.00106753
0.000920532
0.000883397
0.000896355
0.000936564
0.000962368
0.00102019
0.00131342
0.00243484
0.00229347
0.00230185
0.00259222
0.00273838
0.00327758
0.00480338
0.00712868
0.00666885
0.00614489
0.00545802
0.00696669
0.0119508
0.0222394
0.0436831
0.0530849
0.0424264
0.0336364
0.0384707
0.0585273
0.0675906
0.0579142
0.0324244
0.0240896
0.0299108
0.050103
0.0865624
0.117333
0.11744
0.0988126
0.0802146
0.0815524
0.0995527
0.137851
0.204339
0.224714
0.209069
0.172159
0.127216
0.105649
0.102655
0.108727
0.117757
0.126926
0.13438
0.142414
0.139349
0.132651
0.144306
0.182124
0.18867
0.241523
0.346014
0.519264
0.446549
0.333683
0.514027
1.19712
1.7831
1.04686
0.554437
0.426177
0.448482
5.83408e-07
5.36211e-07
5.1797e-07
5.1783e-07
5.87097e-07
7.01362e-07
8.39918e-07
1.03753e-06
1.20202e-06
1.29548e-06
1.20669e-06
1.48644e-06
1.77715e-06
2.1653e-06
3.11879e-06
4.71008e-06
3.88806e-06
5.13144e-06
7.85752e-06
6.62274e-06
9.65329e-06
2.14962e-05
4.46839e-05
6.53228e-05
5.92343e-05
4.18682e-05
3.58179e-05
3.85781e-05
5.00387e-05
7.60507e-05
0.000125141
0.000202886
0.000323975
0.00053184
0.000895235
0.00149236
0.00230138
0.00336173
0.00540948
0.00854439
0.00803399
0.00725129
0.00990842
0.0176925
0.0323611
0.0481095
0.0724196
0.109567
0.161434
0.155533
0.140952
0.142544
0.183752
0.279109
0.420175
0.602508
0.630194
0.580015
0.549281
0.60752
0.670157
0.646885
0.54257
0.411609
0.420504
0.528267
0.715889
0.800773
0.801083
0.759444
0.710091
0.739483
0.841723
0.948991
0.974282
0.971088
0.85094
0.622055
0.512886
0.503765
0.560992
0.679599
0.703017
0.6281
0.548004
0.563896
0.549292
0.484001
0.422582
0.397239
0.397084
0.400969
0.391963
0.366749
0.349601
0.262702
0.20475
0.25309
0.49839
0.975612
0.650002
0.280712
0.191845
0.151649
9.04696e-07
1.79636e-06
2.64161e-06
3.17349e-06
3.5101e-06
3.68995e-06
3.64012e-06
3.84035e-06
4.7986e-06
5.82672e-06
7.01366e-06
7.25198e-06
7.4909e-06
8.15478e-06
9.6778e-06
1.25181e-05
1.73894e-05
2.55326e-05
3.94163e-05
5.91485e-05
7.87408e-05
8.16312e-05
8.83748e-05
0.00011045
0.000164737
0.000278848
0.000483717
0.000827235
0.00142175
0.00251413
0.00450111
0.0077155
0.0127155
0.0208623
0.0333627
0.050852
0.0715092
0.0948638
0.124691
0.168743
0.17625
0.183438
0.218242
0.289608
0.399363
0.516478
0.644542
0.789034
0.910802
0.851786
0.765693
0.796766
0.956169
1.18983
1.4514
1.52051
1.4963
1.48446
1.50745
1.5193
1.47026
1.32508
1.20586
1.21897
1.35323
1.56606
1.60989
1.53309
1.40801
1.38219
1.4363
1.5654
1.6349
1.64819
1.6247
1.55269
1.43771
1.28683
1.22982
1.25116
1.3494
1.4882
1.50395
1.39135
1.16443
1.00788
0.943487
0.937251
0.981051
0.997942
0.965539
0.854592
0.669292
0.485758
0.383273
0.24446
0.189155
0.19448
0.287981
0.429722
0.346166
0.256956
0.197446
0.116829
9.25321e-06
1.27521e-05
1.5144e-05
1.675e-05
1.87212e-05
2.16867e-05
2.61683e-05
3.22428e-05
4.01576e-05
4.91633e-05
5.48403e-05
5.56812e-05
5.82938e-05
6.84438e-05
9.36912e-05
0.000148921
0.000258555
0.000476331
0.000849916
0.00144456
0.00215171
0.00275591
0.00351015
0.00484919
0.00733649
0.0119579
0.0201164
0.03371
0.054998
0.0878709
0.139865
0.203695
0.273227
0.348325
0.427832
0.512434
0.599284
0.686922
0.778982
0.891108
0.900537
0.9133
0.975659
1.0986
1.25871
1.36612
1.42519
1.4947
1.52805
1.51595
1.50194
1.54486
1.62399
1.68335
1.70302
1.68422
1.64123
1.60536
1.58658
1.56035
1.52605
1.50639
1.51724
1.56219
1.58827
1.56832
1.50474
1.45006
1.43666
1.45094
1.48834
1.51306
1.51601
1.51201
1.50886
1.51708
1.54188
1.57767
1.61549
1.66173
1.71508
1.72173
1.65718
1.51848
1.40667
1.35326
1.32252
1.29675
1.27944
1.24767
1.17766
1.03336
0.80578
0.571422
0.413046
0.266465
0.204165
0.200981
0.250605
0.263718
0.228148
0.190834
0.184317
0.146278
8.87815e-05
0.00012751
0.000172627
0.000221614
0.000284168
0.000367371
0.000488196
0.000668556
0.000887029
0.00116294
0.00144186
0.0016238
0.00185289
0.00234637
0.00332243
0.00526633
0.00901633
0.0162677
0.0280246
0.0454754
0.0659616
0.0876975
0.112515
0.146691
0.195501
0.265123
0.360041
0.477899
0.613764
0.765608
0.91986
1.02503
1.10555
1.18228
1.25836
1.33005
1.37148
1.40741
1.42928
1.46733
1.45878
1.45705
1.47975
1.51053
1.54915
1.56731
1.54862
1.53089
1.50091
1.4696
1.43732
1.45361
1.47408
1.46583
1.43819
1.39232
1.35631
1.33281
1.30513
1.27797
1.26986
1.28151
1.31174
1.32933
1.3238
1.29944
1.27626
1.27439
1.29071
1.31803
1.33325
1.33895
1.35112
1.37593
1.40194
1.41396
1.42874
1.46075
1.50824
1.54397
1.55295
1.53178
1.47059
1.39214
1.33313
1.29644
1.27268
1.2598
1.24676
1.2105
1.13522
1.0089
0.837127
0.642019
0.478724
0.354466
0.264165
0.226115
0.238293
0.256355
0.232282
0.189039
0.142363
0.135098
0.00249448
0.003835
0.00555073
0.00756612
0.0101128
0.0134991
0.0182763
0.0248243
0.0323086
0.0410555
0.0506242
0.0580782
0.0655022
0.0768368
0.0947748
0.124857
0.175163
0.252084
0.352956
0.471928
0.599525
0.690606
0.764797
0.853948
0.964771
1.09027
1.2242
1.32866
1.3856
1.42079
1.45163
1.47165
1.49134
1.50871
1.52053
1.51065
1.48275
1.44095
1.3914
1.34507
1.28893
1.27796
1.26905
1.26092
1.24418
1.21382
1.20432
1.2111
1.20042
1.18307
1.16093
1.16476
1.15826
1.14008
1.11164
1.07903
1.05438
1.03985
1.0349
1.03635
1.04776
1.07088
1.09154
1.09501
1.0874
1.0818
1.08737
1.10565
1.12407
1.12622
1.11771
1.11677
1.13565
1.17086
1.21275
1.23919
1.25404
1.27375
1.29812
1.3102
1.30586
1.28162
1.23852
1.19899
1.17461
1.1646
1.15797
1.15076
1.13181
1.0922
1.02815
0.941012
0.833741
0.721765
0.609722
0.507118
0.399117
0.29758
0.278687
0.283032
0.268229
0.227748
0.147448
0.123923
0.0753683
0.106528
0.139516
0.167888
0.197183
0.230155
0.269123
0.314879
0.361705
0.411397
0.456231
0.482047
0.507442
0.548911
0.621191
0.727441
0.85596
0.99676
1.12308
1.21489
1.25787
1.2862
1.32024
1.36859
1.4108
1.42632
1.4274
1.4172
1.39473
1.37844
1.36411
1.3409
1.30911
1.26917
1.22425
1.17021
1.119
1.06917
1.03746
1.01981
1.00076
0.999467
0.992451
0.977929
0.957132
0.941741
0.936919
0.937228
0.928762
0.912407
0.882914
0.868604
0.847893
0.824136
0.799654
0.78683
0.785478
0.788972
0.793485
0.797933
0.804549
0.812177
0.813765
0.811079
0.812888
0.823635
0.847253
0.874863
0.880417
0.87916
0.882913
0.901794
0.940755
0.989065
1.0353
1.05948
1.07001
1.07398
1.06963
1.05826
1.03915
1.00934
0.977684
0.959086
0.953789
0.95442
0.956668
0.956087
0.948163
0.929436
0.901053
0.862608
0.813396
0.761076
0.708254
0.643746
0.557615
0.438533
0.353786
0.325476
0.293196
0.242934
0.194688
0.189825
0.596088
0.690201
0.742339
0.7864
0.836817
0.89165
0.947234
1.00085
1.03564
1.06158
1.0889
1.12227
1.16398
1.21533
1.2583
1.27348
1.28463
1.28654
1.2821
1.26756
1.2389
1.19769
1.16095
1.13612
1.11538
1.09364
1.06541
1.03053
0.990135
0.956988
0.933442
0.914043
0.898026
0.881152
0.861022
0.832671
0.800207
0.763042
0.735513
0.717562