/*--------------------------------*- C++ -*----------------------------------*\
| =========                 |                                                 |
| \\      /  F ield         | OpenFOAM: The Open Source CFD Toolbox           |
|  \\    /   O peration     | Version:  v1912                                 |
|   \\  /    A nd           | Website:  www.openfoam.com                      |
|    \\/     M anipulation  |                                                 |
\*---------------------------------------------------------------------------*/
FoamFile
{
    version     2.0;
    format      ascii;
    class       surfaceScalarField;
    location    "40";
    object      phi;
}
// * * * * * * * * * * * * * * * * * * * * * * * * * * * * * * * * * * * * * //

dimensions      [0 3 -1 0 0 0 0];
oriented        oriented;


internalField   nonuniform List<scalar> 
28285
(
0.000311938
1.38522e-05
0.00031246
-5.22526e-07
0.000322799
-1.03384e-05
0.000320135
2.66401e-06
0.000289301
3.08334e-05
0.000179695
0.000109607
0.000121729
5.79656e-05
0.000188729
-6.69999e-05
0.000201331
-1.26017e-05
0.000109239
9.20917e-05
8.43619e-05
2.48771e-05
0.00012311
-3.87484e-05
0.000123933
-8.22642e-07
1.35909e-05
0.000110342
-8.92607e-05
0.000102852
-6.53017e-05
-2.39591e-05
1.22029e-05
-7.75046e-05
-2.3678e-05
3.5881e-05
-0.000142571
0.000118893
-3.76143e-05
-0.000104957
-2.31354e-05
-1.44789e-05
-0.000234551
0.000211416
-0.000221142
-1.34089e-05
-0.000162546
-5.85964e-05
-2.71372e-05
-0.000135409
0.000269021
-0.000296158
0.000258325
1.06957e-05
-0.000122951
0.000381276
-0.000263208
0.000140257
-0.000144767
-0.00011844
-0.0002209
7.61324e-05
-0.00021211
-8.78936e-06
-5.51085e-05
-0.000157002
0.000109068
-0.000164176
-7.49355e-05
0.000184003
-0.00033669
0.000261754
-0.000288296
-4.83941e-05
-3.83553e-05
-0.000249941
-8.17398e-05
4.33845e-05
-0.00013103
4.92906e-05
-4.15027e-05
-8.95279e-05
-0.000593125
0.000551622
-0.00111883
0.000525705
-0.00120668
8.78533e-05
-0.000945323
-0.000261361
-0.00059814
-0.000347182
-0.000671234
7.3093e-05
-0.0010518
0.00038057
-0.00142053
0.000368724
-0.00142891
8.37947e-06
-0.00142592
-2.98308e-06
-0.0012795
-0.000146425
-0.00127183
-7.67302e-06
-0.00120665
-6.51735e-05
-0.00120944
2.78327e-06
-0.00121024
8.03602e-07
-0.00126764
5.73961e-05
-0.00113423
-0.000133405
-0.000928104
-0.000206127
-0.000797269
-0.000130835
-0.000672324
-0.000124945
-0.000238788
-0.000433537
0.000220731
-0.00045952
0.00025038
-2.9648e-05
-0.000395812
0.000646191
-0.000530555
0.000134743
-0.000463707
-6.68466e-05
-0.00116912
0.000705411
-0.00142866
0.000259539
-0.00154115
0.0001125
-0.00128248
-0.000258669
-0.000838557
-0.000443928
-0.000411301
-0.000427256
-0.000167992
-0.000243308
-0.000160272
-7.72073e-06
-0.000452887
0.000292615
-0.000750846
0.00029796
-0.000923987
0.000173141
-0.00094018
1.61936e-05
-0.000946031
5.85072e-06
-0.000956506
1.04747e-05
-0.00112192
0.000165414
-0.001134
1.20822e-05
-0.00102989
-0.000104115
-0.000892576
-0.000137312
-0.000628718
-0.000263859
-0.000678798
5.00808e-05
-0.000417964
-0.000260836
7.12869e-05
-0.000489249
-1.55722e-05
8.68635e-05
-0.000210077
0.000194504
3.06915e-05
-0.000240767
-0.000301531
0.000332223
-0.00098727
0.000685739
-0.00120637
0.0002191
-0.00138704
0.000180669
-0.00125348
-0.00013356
-0.000943758
-0.000309723
-0.000994337
5.05788e-05
-0.00135469
0.000360354
-0.00166492
0.000310234
-0.00177606
0.000111138
-0.00188277
0.000106711
0.000203229
-0.002086
0.000311253
2.75612e-05
0.000311917
-1.18671e-06
0.000322279
-2.07005e-05
0.000319531
5.41241e-06
0.000288613
6.17508e-05
0.000178242
0.000219978
0.000115248
0.00012096
0.000164942
-0.000116695
0.000169695
-1.73538e-05
8.19655e-05
0.000179821
5.37697e-05
5.30728e-05
6.60454e-05
-5.1024e-05
1.97689e-05
4.54538e-05
-8.87237e-05
0.000218835
-0.000154914
0.000169042
-0.000108002
-7.08712e-05
-4.03717e-05
-0.000145135
-6.96667e-05
6.51759e-05
-0.000173041
0.000222268
-0.000125633
-0.000152365
-0.000122429
-1.76825e-05
-0.000286303
0.000375289
-0.000263109
-3.66029e-05
-0.000195727
-0.000125978
-4.57471e-05
-0.000285389
0.000223405
-0.00056531
0.000214738
1.93632e-05
-0.000128725
0.000724739
-0.000318863
0.000330395
-0.000302323
-0.000134981
-0.000381782
0.000155591
-0.000338264
-5.23071e-05
-0.000212763
-0.000282502
-9.79226e-05
-0.000279017
-0.000191113
0.000277194
-0.000262047
0.000332689
-0.000193931
-0.00011651
-5.982e-05
-0.000384052
-2.77784e-05
1.13427e-05
-6.74183e-05
8.89303e-05
-9.66926e-05
-6.02537e-05
-0.000523935
0.000978864
-0.000909892
0.000911663
-0.00103848
0.00021644
-0.000860718
-0.000439121
-0.000529507
-0.000678393
-0.000582413
0.000125999
-0.00084291
0.000641067
-0.00107884
0.000604651
-0.00111519
4.47294e-05
-0.00123126
0.000113094
-0.00110244
-0.000275252
-0.000975908
-0.000134202
-0.000769036
-0.000272045
-0.000635522
-0.000130731
-0.000497333
-0.000137385
-0.000805087
0.00036515
-0.00103963
0.000101139
-0.000861167
-0.000384591
-0.000670239
-0.000321762
-0.000577221
-0.000217963
-0.000229806
-0.000780953
0.000179388
-0.000868714
9.67039e-05
5.30383e-05
-0.000480815
0.00122371
-0.000406798
6.07282e-05
-0.000307242
-0.000166399
-0.000957461
0.00135563
-0.00123928
0.000541358
-0.00145478
0.000327998
-0.00132772
-0.000385727
-0.000935652
-0.000835993
-0.000469291
-0.000893616
-0.000232561
-0.000480037
-0.000209818
-3.04638e-05
-0.000334623
0.00041742
-0.00035572
0.000319058
-0.000386269
0.00020369
-0.000553845
0.00018377
-0.000771576
0.000223582
-0.000931145
0.000170043
-0.00115334
0.000387613
-0.00125471
0.000113444
-0.00122822
-0.000130598
-0.00109692
-0.000268618
-0.000838917
-0.000521862
-0.000753449
-3.53864e-05
-0.000564572
-0.000449712
-0.000277578
-0.000776243
-0.000303356
0.000112644
-0.000426955
0.000318104
-0.000498976
-0.000168746
-0.000745337
0.000578583
-0.00100984
0.000950237
-0.00104713
0.000256392
-0.00110667
0.00024021
-0.00102142
-0.00021881
-0.000783733
-0.00054741
-0.000890096
0.000156943
-0.00124981
0.000720071
-0.001491
0.000551426
-0.00160123
0.000221362
-0.001774
0.000279483
0.000614756
-0.00218553
0.000311143
4.12009e-05
0.000311921
-1.96455e-06
0.000322298
-3.1077e-05
0.000319429
8.28093e-06
0.000288164
9.30158e-05
0.000180318
0.000327824
0.000113883
0.000187395
0.000154616
-0.000157428
0.000161978
-2.47161e-05
9.36048e-05
0.000248194
7.59871e-05
7.06906e-05
0.000106611
-8.16476e-05
0.000100183
5.18812e-05
-9.80564e-06
0.000328824
-0.000107898
0.000267134
-7.84233e-05
-0.000100346
-1.28915e-05
-0.000210666
-5.3532e-05
0.000105816
-0.000163636
0.000332372
-6.87546e-05
-0.000247247
-4.98583e-05
-3.65788e-05
-0.000234703
0.000560134
-0.000222915
-4.83906e-05
-0.00016161
-0.000187284
-2.13844e-05
-0.000425614
0.000235341
-0.000822036
0.00021671
3.79944e-05
-0.000123698
0.00106515
-0.000267884
0.00047458
-0.000192869
-0.000209995
-0.000256136
0.000218858
-0.000238212
-7.02309e-05
-8.46408e-05
-0.000436073
7.59185e-05
-0.000439576
-6.62439e-05
0.000419356
-0.000243228
0.000509673
-0.000186965
-0.000172774
-1.67801e-05
-0.000554237
-9.23839e-05
8.69463e-05
-0.00012698
0.000123527
4.84746e-06
-0.000192082
-0.000343392
0.0013271
-0.000805538
0.00137381
-0.00102319
0.000434089
-0.000856112
-0.000606197
-0.000521159
-0.00101335
-0.000429813
3.46531e-05
-0.000475832
0.000687086
-0.000633013
0.000761832
-0.000783317
0.000195034
-0.00101985
0.000349626
-0.000985618
-0.000309482
-0.000912471
-0.000207349
-0.000761532
-0.000422984
-0.000861848
-3.04157e-05
-0.00101296
1.3726e-05
-0.00116763
0.000519816
-0.00117237
0.00010588
-0.000992274
-0.000564685
-0.000798395
-0.000515642
-0.000600398
-0.00041596
-0.000232165
-0.00114919
3.70491e-05
-0.00113793
8.41268e-06
8.16765e-05
-0.000522585
0.00175471
-0.000136607
-0.000325248
0.000507373
-0.000810384
-0.000416478
0.00227949
-0.00116662
0.0012915
-0.00144823
0.000609608
-0.00156429
-0.000269668
-0.0011413
-0.00125899
-0.000465704
-0.00156921
-0.000194839
-0.000750904
-5.48842e-05
-0.000170417
-0.000171586
0.000534121
-0.000260097
0.000407571
-0.00059071
0.000534302
-0.000769878
0.000362937
-0.000709185
0.000162889
-0.000879283
0.000340141
-0.00110905
0.00061738
-0.0011654
0.00016979
-0.00111373
-0.000182268
-0.00099023
-0.000392117
-0.000692152
-0.00081994
-0.000600459
-0.000127078
-0.000396114
-0.000654055
-0.000129174
-0.00104318
-0.000203986
0.000187457
-0.000336614
0.000450731
-0.000346244
-0.000159116
-0.000577404
0.000809744
-0.000974792
0.00134762
-0.00115054
0.000432138
-0.00118813
0.000277795
-0.00105102
-0.000355919
-0.00088313
-0.000715295
-0.000894568
0.000168381
-0.00101314
0.000838639
-0.00104901
0.000587302
-0.00121566
0.000388011
-0.00183416
0.000897975
0.00121474
-0.00243415
0.000311028
5.47874e-05
0.000311909
-2.84562e-06
0.00032232
-4.14874e-05
0.00031939
1.12106e-05
0.000287758
0.000124648
0.00018319
0.000432392
0.000119309
0.000251276
0.000163637
-0.000201756
0.000170818
-3.18975e-05
8.68332e-05
0.00033218
5.98601e-05
9.76636e-05
7.92174e-05
-0.000101005
3.73127e-05
9.37859e-05
-7.70222e-05
0.000443158
-0.000145255
0.000335367
-9.63445e-05
-0.000149257
-3.80374e-05
-0.000268973
-7.46378e-05
0.000142417
-0.000174977
0.000432711
-0.000108398
-0.000313826
-9.7624e-05
-4.73528e-05
-0.000265249
0.00072776
-0.000256685
-5.69548e-05
-0.000187818
-0.000256151
-3.3786e-05
-0.000579646
0.000210741
-0.00106656
0.000187881
6.08547e-05
-0.000129221
0.00138225
-0.000302562
0.000647921
-0.000286867
-0.00022569
-0.000348055
0.000280046
-0.000297153
-0.000121134
-0.000148584
-0.000584642
-1.66367e-05
-0.000571524
-0.000133565
0.000536284
-0.000291183
0.000667291
-0.000218613
-0.000245344
-5.60226e-05
-0.000716827
-0.00014506
0.000175983
-0.000204451
0.000182918
-0.000100774
-0.000295759
-0.000251611
0.00147794
-0.0006468
0.001769
-0.00101776
0.000805046
-0.00094216
-0.000681792
-0.000649497
-0.00130601
-0.000482514
-0.00013233
-0.000186901
0.000391472
-0.000291031
0.000865962
-0.000667895
0.000571897
-0.000910953
0.000592684
-0.000843762
-0.000376673
-0.000750463
-0.000300648
-0.000656405
-0.000517043
-0.0007891
0.000102279
-0.00107564
0.000300264
-0.0013694
0.000813581
-0.00128403
2.05073e-05
-0.000893695
-0.000955021
-0.000710235
-0.000699102
-0.000590756
-0.000535441
-0.000230802
-0.00150914
-9.24153e-05
-0.00127632
-0.000693232
0.000682495
-0.00132025
0.00238172
-0.000206241
-0.00143925
0.000954968
-0.00197158
-0.000101982
0.00333644
-0.00112252
0.00231204
-0.0016204
0.00110749
-0.00130576
-0.000584306
-0.000568517
-0.00199623
-0.000582444
-0.00155528
-0.000126172
-0.00120717
0.000392072
-0.000688665
0.0001149
0.000811295
-0.000244829
0.000767302
-0.000566466
0.000855943
-0.000554395
0.000350864
-0.000639265
0.00024776
-0.000912643
0.000613519
-0.00115191
0.000856649
-0.00122254
0.000240413
-0.00117118
-0.000233622
-0.000972232
-0.00059107
-0.000538823
-0.00125335
-0.000541763
-0.000124138
-0.000543549
-0.000652267
-0.000276846
-0.00130989
-0.000359457
0.000270071
-0.000434796
0.000526069
-0.00033509
-0.000258821
-0.00040919
0.000883844
-0.00069857
0.001637
-0.000972079
0.000705646
-0.00104818
0.000353894
-0.00096108
-0.000443017
-0.00094081
-0.000735564
-0.00102229
0.000249862
-0.0011338
0.000950151
-0.0011841
0.0006376
-0.00125023
0.000454136
-0.00147412
0.00112186
0.00148542
-0.0017448
0.000310916
6.83299e-05
0.000311898
-3.8282e-06
0.000322361
-5.19501e-05
0.000319429
1.41429e-05
0.000287564
0.000156512
0.000186524
0.000533433
0.000124814
0.000312986
0.000161384
-0.000238326
0.00016412
-3.46335e-05
9.08671e-05
0.000405432
7.07251e-05
0.000117806
9.41818e-05
-0.000124462
5.79778e-05
0.00012999
-5.21995e-05
0.000553336
-0.000120758
0.000403926
-8.44531e-05
-0.000185561
-3.70151e-05
-0.000316411
-8.04518e-05
0.000185854
-0.000168905
0.000521165
-7.59214e-05
-0.00040681
-6.30414e-05
-6.02328e-05
-0.000232386
0.000897104
-0.000224039
-6.53012e-05
-0.000166718
-0.000313473
-2.14943e-05
-0.000724869
0.000201182
-0.00128924
0.000175775
8.62618e-05
-0.000121762
0.00167979
-0.000271398
0.000797556
-0.000228978
-0.00026811
-0.000265347
0.000316415
-0.000236231
-0.00015025
-0.000104275
-0.000716597
3.31399e-05
-0.000708939
-7.70709e-05
0.000646495
-0.000216443
0.000806663
-0.000153905
-0.000307882
2.64066e-06
-0.000873372
1.06828e-06
0.000177555
-8.46767e-05
0.000268662
-8.82423e-05
-0.000292193
-0.000220457
0.00161015
-0.00061566
0.0021642
-0.0011037
0.00129309
-0.000910017
-0.000875482
-0.000442388
-0.00177364
-0.000231998
-0.00034272
-5.05428e-06
0.000164529
-0.000391375
0.00125228
-0.000887005
0.00106753
-0.00101987
0.000725548
-0.000864127
-0.000532415
-0.000761189
-0.000403586
-0.000741751
-0.000536481
-0.000874943
0.000235471
-0.000896598
0.000321919
-0.00103557
0.000952556
-0.0010343
1.92289e-05
-0.000950375
-0.00103894
-0.000780177
-0.000869302
-0.000508551
-0.000807069
-0.000235888
-0.0017818
7.14961e-05
-0.0015837
-0.00049464
0.00124863
-0.00124883
0.00313592
-0.000222901
-0.00246517
0.00128295
-0.00347743
0.000429544
0.00418986
-0.00101537
0.00375695
-0.00133263
0.00142475
-0.000736352
-0.00118058
-0.000355628
-0.00237695
-0.000350512
-0.0015604
-1.99396e-06
-0.00155569
0.000329864
-0.00102051
0.000281952
0.000859204
-9.2324e-05
0.00114159
-0.00056258
0.00132619
-0.000571809
0.000360092
-0.00042686
0.000102811
-0.000725694
0.00091235
-0.0010918
0.00122276
-0.00113823
0.00028684
-0.00106499
-0.000306861
-0.000877813
-0.00077825
-0.000615586
-0.00151558
-0.00064463
-9.50936e-05
-0.00053531
-0.000761586
-0.000153846
-0.00169135
-0.000194104
0.00031033
-0.000355287
0.000687252
-0.000332948
-0.000281159
-0.000421485
0.00097238
-0.000677812
0.00189333
-0.000914739
0.000942573
-0.00104708
0.000486233
-0.000996053
-0.000494044
-0.000851661
-0.000879957
-0.000940017
0.000338219
-0.00116808
0.00117821
-0.00124133
0.000710853
-0.00136665
0.000579449
-0.00163942
0.00139464
0.00186469
-0.0020187
0.000310806
8.18436e-05
0.000311878
-4.90018e-06
0.000322405
-6.24767e-05
0.000319495
1.70527e-05
0.000287389
0.000188618
0.000190146
0.000630676
0.000127155
0.000375978
0.000158853
-0.000270024
0.000163312
-3.90926e-05
8.74893e-05
0.000481255
6.62214e-05
0.000139073
8.64699e-05
-0.00014471
4.38492e-05
0.000172611
-6.74701e-05
0.000664655
-0.00013364
0.000470096
-9.15941e-05
-0.000227607
-4.43467e-05
-0.000363659
-8.67713e-05
0.000228278
-0.000169114
0.000603508
-9.5043e-05
-0.000480881
-9.38987e-05
-6.13771e-05
-0.000260868
0.00106407
-0.000257943
-6.82263e-05
-0.000188673
-0.000382743
-2.36978e-05
-0.000889845
0.000181889
-0.00149483
0.000149638
0.000118513
-0.000126766
0.00195619
-0.000272377
0.000943167
-0.000246777
-0.00029371
-0.000317505
0.000387143
-0.000312294
-0.000155461
-0.000209139
-0.000819753
-5.34508e-05
-0.000864627
-0.000101723
0.000694768
-0.000201581
0.00090652
-0.000141065
-0.000368398
-3.99682e-05
-0.00097447
-3.47417e-05
0.000172329
-9.86273e-05
0.000332548
-7.9377e-05
-0.000311444
-0.000219687
0.00175046
-0.000683945
0.00262846
-0.00114372
0.00175286
-0.000767324
-0.00125188
-0.000497813
-0.00204315
-0.000136081
-0.000704454
0.0002547
-0.000226252
-0.000511118
0.0020181
-0.00109512
0.00165153
-0.00112862
0.000759049
-0.000863985
-0.000797052
-0.000805492
-0.000462079
-0.000824212
-0.00051776
-0.000931576
0.000342836
-0.00050653
-0.000103127
-0.00041511
0.000861135
-0.000766435
0.000370552
-0.00100813
-0.000797249
-0.000844786
-0.00103264
-0.000493035
-0.00115882
-0.000253769
-0.00202107
-8.39487e-05
-0.00175352
-0.000407834
0.00157252
-0.000815798
0.00354388
-0.000535329
-0.00274563
0.000946178
-0.00495895
0.000751401
0.00438464
-0.000970729
0.00547908
-0.000915295
0.00136932
-0.000364383
-0.00173149
-0.000514645
-0.00222669
-0.000113333
-0.00196171
-0.00074754
-0.000921486
-0.000834949
-0.000933101
-0.00012348
0.000147733
-0.000431234
0.00144934
-0.000619882
0.00151484
-0.000676293
0.000416502
-0.000437122
-0.000136359
-0.000518018
0.000993247
-0.00101086
0.0017156
-0.00117722
0.000453206
-0.00116099
-0.00032309
-0.000986352
-0.000952892
-0.000610962
-0.00189097
-0.000582444
-0.000123611
-0.000564196
-0.000779833
-0.000204144
-0.0020514
-0.000242119
0.00034831
-0.000443307
0.000888439
-0.000489007
-0.000235459
-0.000609265
0.00109264
-0.000743049
0.00202711
-0.000889743
0.00108927
-0.00104323
0.000639715
-0.000988684
-0.000548585
-0.000906322
-0.000962319
-0.0010159
0.000447792
-0.00100904
0.00117137
-0.00101485
0.00071666
-0.00133678
0.000901372
-0.00180506
0.00186292
0.00228061
-0.00222097
0.000310684
9.53425e-05
0.000311815
-6.03113e-06
0.000322378
-7.30401e-05
0.00031956
1.98712e-05
0.000287381
0.000220797
0.000194587
0.000723469
0.000125719
0.000444846
0.000147396
-0.000291702
0.000156126
-4.78219e-05
8.84633e-05
0.000548918
7.45544e-05
0.000152982
9.54434e-05
-0.000165599
4.84845e-05
0.00021957
-6.49548e-05
0.000778094
-0.000127348
0.000532489
-8.31068e-05
-0.000271849
-4.92862e-05
-0.000397479
-9.87544e-05
0.000277746
-0.000160381
0.000665134
-8.44682e-05
-0.000556794
-8.42102e-05
-6.16351e-05
-0.000234832
0.0012147
-0.000226254
-7.68047e-05
-0.000170531
-0.000438466
-1.86158e-05
-0.00104176
0.000162076
-0.00167552
0.000138264
0.000142326
-0.000107154
0.00220161
-0.000269298
0.00110531
-0.000291211
-0.000271796
-0.000312904
0.000408836
-0.000248175
-0.000220189
-0.00016193
-0.000905997
-3.80667e-05
-0.000988491
-0.000122499
0.0007792
-0.000211089
0.00099511
-0.000131799
-0.000447688
-1.49123e-05
-0.00109136
-6.08423e-07
0.000158025
-7.47484e-05
0.000406688
-3.86404e-05
-0.000347552
-0.000192948
0.00190477
-0.000746032
0.00318154
-0.000848772
0.0018556
-0.000467253
-0.00163339
-0.000637383
-0.00187302
-0.000462572
-0.000879265
-0.000113593
-0.000575231
-0.000633759
0.00253827
-0.0010259
0.00204367
-0.000925093
0.000658242
-0.000773531
-0.000948614
-0.000741432
-0.000494178
-0.00084079
-0.000418401
-0.000907351
0.000409397
-0.000557405
-0.000453073
-0.000630985
0.000934714
-0.00103502
0.000774591
-0.000795331
-0.00103694
-0.000448891
-0.00137908
-0.000504411
-0.0011033
-0.000189551
-0.00233593
0.000144887
-0.00208796
2.18658e-05
0.00169555
-0.000461049
0.0040268
-0.000620354
-0.00258632
3.07025e-05
-0.00561
0.000235187
0.00418016
-0.000585151
0.00629942
-0.000681573
0.00146576
-0.000474672
-0.00193839
-0.000422231
-0.00227913
-0.000125866
-0.00225807
-0.00086548
-0.00018187
-0.000778913
-0.00101966
-0.000202007
-0.000429173
-0.000485036
0.00173237
-0.000568576
0.00159839
-0.000531739
0.000379664
-0.000305525
-0.000362572
-0.000513993
0.00120171
-0.000980278
0.00218188
-0.00116498
0.000637909
-0.0011642
-0.000323875
-0.000989785
-0.00112731
-0.000554698
-0.00232606
-0.000547245
-0.000131063
-0.000453297
-0.000873781
-0.000204295
-0.0023004
-0.00034713
0.000491147
-0.000508912
0.00105022
-0.000492966
-0.000251405
-0.000594236
0.00119391
-0.000761522
0.0021944
-0.000928778
0.00125652
-0.00095282
0.000663754
-0.000833037
-0.000668367
-0.000750687
-0.00104467
-0.000718224
0.00041533
-0.000922774
0.00137592
-0.00110289
0.00089678
-0.00137761
0.0011761
-0.0018622
0.00234751
0.00258538
-0.00216697
0.000310522
0.000108832
0.000311655
-7.16396e-06
0.000322127
-8.35118e-05
0.000319361
2.26365e-05
0.000287145
0.000253013
0.000199189
0.000811425
0.000119469
0.000524566
0.000130115
-0.000302349
0.000146465
-6.41719e-05
8.64453e-05
0.000608938
7.71443e-05
0.000162283
9.37941e-05
-0.000182249
3.80548e-05
0.000275309
-7.30853e-05
0.000889234
-0.000128899
0.000588303
-8.60783e-05
-0.00031467
-5.72232e-05
-0.000426335
-0.000104057
0.00032458
-0.000158054
0.000719131
-9.38214e-05
-0.000621027
-9.26934e-05
-6.27631e-05
-0.000244856
0.00136686
-0.000241631
-8.00299e-05
-0.000179769
-0.000500328
-2.46464e-05
-0.00119688
0.000137661
-0.00183783
0.000125802
0.000154185
-6.56116e-05
0.00239302
-0.000239998
0.0012797
-0.000274787
-0.000237007
-0.000339148
0.000473196
-0.000325652
-0.000233686
-0.000189343
-0.00104231
-2.55007e-05
-0.00115233
-0.000116429
0.000870128
-0.000210516
0.0010892
-0.000181311
-0.000476892
-6.16976e-05
-0.00121097
-2.13559e-05
0.000117683
-0.000129134
0.000514466
-9.77094e-05
-0.000378977
-0.000157581
0.00196464
-0.000415299
0.00343926
-0.000481345
0.00192165
-0.000462213
-0.00165253
-0.000459355
-0.00187587
-0.000566632
-0.000771987
-0.000416358
-0.000725505
-0.000627456
0.00274936
-0.000905452
0.00232167
-0.000856485
0.000609275
-0.00087124
-0.000933858
-0.000700649
-0.00066477
-0.000560334
-0.000558716
-0.000518357
0.000367419
-0.000291028
-0.000680403
-0.000561647
0.00120533
-0.00104113
0.00125407
-0.000563751
-0.00151432
-0.000323629
-0.00161921
-0.000538035
-0.000888895
0.000166933
-0.0030409
0.00108408
-0.00300511
0.000695971
0.00208366
-0.000245174
0.00496795
-0.000460901
-0.00237058
-0.000945997
-0.00512491
-0.000369038
0.00360321
0.000416227
0.00551416
-0.000244003
0.00212598
-0.000695271
-0.00148713
-0.000390466
-0.00258394
-0.000166951
-0.00248159
-0.000296618
-5.2205e-05
-0.000150222
-0.00116605
-0.000174123
-0.000405273
-0.000231187
0.00178943
-0.000383176
0.00175037
-0.000391222
0.000387709
-0.000299388
-0.000454407
-0.000645386
0.00154771
-0.00101363
0.00255013
-0.0012374
0.000861679
-0.00127636
-0.000284918
-0.00102066
-0.001383
-0.000518693
-0.00282802
-0.000517996
-0.000131761
-0.000409791
-0.000981987
-0.000280195
-0.00243
-0.000452456
0.000663406
-0.000589269
0.00118703
-0.000606882
-0.000233791
-0.000564958
0.00115198
-0.000738616
0.00236806
-0.000920163
0.00143807
-0.000922056
0.000665648
-0.000909346
-0.000681077
-0.00093439
-0.00101963
-0.00100071
0.000481647
-0.00111608
0.00149129
-0.00128235
0.00106304
-0.00130882
0.00120257
-0.00157638
0.00261507
0.00302803
-0.00201904
0.000310305
0.000122357
0.000311265
-8.12376e-06
0.000321187
-9.34333e-05
0.000318432
2.53907e-05
0.000286284
0.000285162
0.00020354
0.000894169
0.000112307
0.000615799
0.000113422
-0.000303464
0.00013949
-9.02393e-05
8.88114e-05
0.000659616
8.61315e-05
0.000164963
0.000100877
-0.000196995
3.67851e-05
0.000339401
-7.75619e-05
0.00100358
-0.00012578
0.000636521
-8.51236e-05
-0.000355326
-6.54922e-05
-0.000445966
-0.000109238
0.000368325
-0.000146681
0.000756574
-8.45707e-05
-0.000683136
-9.36708e-05
-5.3663e-05
-0.000241326
0.00151451
-0.000227509
-9.38477e-05
-0.000170529
-0.000557307
-2.90529e-05
-0.00133836
0.00012061
-0.00198749
0.000118886
0.000155909
-6.78829e-05
0.00257979
-0.00022277
0.00143458
-0.000225768
-0.000234009
-0.000278632
0.00052606
-0.000254676
-0.000257642
-0.0001364
-0.00116058
-8.58242e-06
-0.00128015
-9.86097e-05
0.000960155
-0.000209061
0.00119965
-0.000169842
-0.000516111
-2.64039e-05
-0.00135441
8.92926e-06
8.23497e-05
-9.78323e-05
0.000621227
-0.000143117
-0.000333692
-0.000173805
0.00199533
-0.0002378
0.00350325
-0.000363419
0.00204727
-0.000447717
-0.00156823
-0.000378178
-0.00194541
-0.00068399
-0.000466177
-0.000549817
-0.000859678
-0.00043983
0.00263938
-0.000768345
0.00265018
-0.00104601
0.000886942
-0.000983278
-0.000996593
-0.000677938
-0.00097011
-0.000514358
-0.000722296
-0.000506333
0.000359395
-0.000269121
-0.000917616
-0.000565979
0.00150219
-0.000724076
0.00141217
-0.000237594
-0.0020008
-0.000426137
-0.00143066
-0.000585028
-0.000730005
0.000196077
-0.003822
0.00161612
-0.00442516
0.00111121
0.00258859
-0.000259987
0.00633915
-0.000428194
-0.00220238
-0.00101978
-0.00453332
-0.000143433
0.00272687
0.000761166
0.00460955
-2.4654e-05
0.00291183
-0.000435447
-0.00107632
-0.000349025
-0.00267036
-0.000123705
-0.00270691
0.000116644
-0.000292552
0.00025166
-0.00130107
-0.000185885
3.22717e-05
-0.000281893
0.00188544
-0.00038726
0.00185574
-0.00042212
0.000422569
-0.000363045
-0.000513481
-0.000695021
0.00187968
-0.00112681
0.00298192
-0.00119068
0.000925545
-0.0010199
-0.000455689
-0.000830488
-0.00157242
-0.000489645
-0.00316888
-0.00038571
-0.000235694
-0.000275055
-0.00109264
-0.000196754
-0.0025083
-0.000359359
0.000826013
-0.000571861
0.00139954
-0.000574358
-0.000231295
-0.000440009
0.00101763
-0.000647345
0.00257539
-0.000819147
0.00160988
-0.000875355
0.000721854
-0.000898882
-0.00065755
-0.00081942
-0.00109909
-0.000863239
0.000525465
-0.000945025
0.00157307
-0.00101306
0.00113107
-0.00101853
0.00120803
-0.00131789
0.00291443
0.00334556
-0.00163542
0.000310025
0.000135995
0.000310511
-8.61008e-06
0.000319167
-0.000102089
0.000316279
2.82797e-05
0.000284859
0.000316582
0.000207581
0.000971448
0.000109783
0.000713597
9.6594e-05
-0.000290275
0.000125897
-0.000119543
8.73835e-05
0.00069813
8.94368e-05
0.00016291
9.95616e-05
-0.000207119
3.2723e-05
0.00040624
-7.66344e-05
0.00111294
-0.000125801
0.000685688
-9.57027e-05
-0.000385425
-7.61431e-05
-0.000465526
-0.000108206
0.000400388
-0.000147159
0.000795527
-9.63249e-05
-0.00073397
-0.000101362
-4.86261e-05
-0.000251039
0.00166419
-0.000241494
-0.000103392
-0.00017513
-0.000623672
-3.0199e-05
-0.00148329
0.000102963
-0.00212065
0.000100681
0.000158191
-6.97792e-05
0.00275025
-0.00022821
0.00159302
-0.000243014
-0.000219205
-0.000305133
0.000588179
-0.000288715
-0.00027406
-0.000170432
-0.00127886
-3.00911e-05
-0.00142049
-8.23551e-05
0.00101242
-0.000218412
0.0013357
-0.000113617
-0.000620905
-3.32907e-05
-0.00143474
-0.000106583
0.000155642
-0.000155842
0.000670487
-0.000154813
-0.000334722
-0.0001672
0.00200772
-0.000268669
0.00360473
-0.00040918
0.00218778
-0.000450913
-0.00152649
-0.00042379
-0.00197254
-0.000598732
-0.000291235
-0.000386627
-0.00107178
-0.000335602
0.00258835
-0.000716318
0.0030309
-0.00108084
0.00125146
-0.00093633
-0.0011411
-0.000619485
-0.00128696
-0.000564665
-0.000777115
-0.000377251
0.00017198
-0.000132585
-0.00116228
-0.00057199
0.00194159
-0.000521674
0.00136185
-0.000168218
-0.00235425
-0.000482237
-0.00111665
-0.00059745
-0.000614793
0.000107203
-0.00452664
0.00164662
-0.00596457
0.00119458
0.00304062
-0.000166692
0.00770043
-0.000292961
-0.00207611
-0.000772563
-0.00405372
0.000331985
0.00162233
0.00117568
0.00376587
0.000146238
0.00394125
-0.00049786
-0.00043223
-0.000468475
-0.00269975
-0.000188382
-0.002987
0.000131003
-0.000611937
0.000226347
-0.00139641
-0.000128651
0.000387269
-0.000197511
0.0019543
-0.000307563
0.00196579
-0.000299797
0.000414802
-0.000260307
-0.000552972
-0.000655186
0.00227456
-0.00125302
0.00357975
-0.000982836
0.000655357
-0.000703175
-0.000735359
-0.000774532
-0.00150106
-0.000506184
-0.00343723
-0.000435775
-0.000306105
-0.000308965
-0.00121945
-0.000160189
-0.0026571
-0.000357853
0.00102368
-0.000541358
0.00158304
-0.000286127
-0.000486525
-3.47467e-05
0.000766252
-0.000334752
0.0028754
-0.000644742
0.00191986
-0.000768418
0.000845527
-0.000705319
-0.000720649
-0.000654706
-0.0011497
-0.0008303
0.00070106
-0.0010199
0.00176268
-0.00101274
0.00112391
-0.000941449
0.00113674
-0.00122683
0.0031998
0.00322345
-0.00110473
0.000309562
0.000150037
0.000309145
-8.1927e-06
0.000316169
-0.000109114
0.000312908
3.15408e-05
0.000282564
0.000346926
0.000210346
0.00104367
0.000108156
0.000815786
8.01962e-05
-0.000262315
0.000111348
-0.000150695
8.97902e-05
0.000719688
9.72156e-05
0.000155485
0.000103566
-0.000213469
3.23645e-05
0.000477441
-7.82027e-05
0.00122351
-0.000125806
0.000733291
-9.57142e-05
-0.000415516
-7.81475e-05
-0.000483092
-0.000109792
0.000432033
-0.000146126
0.000831861
-8.58067e-05
-0.00079429
-9.74009e-05
-3.7032e-05
-0.000253764
0.00182055
-0.000231404
-0.000125752
-0.000159194
-0.000695882
-2.64069e-05
-0.00161608
7.07831e-05
-0.00221784
7.02074e-05
0.000158766
-8.11486e-05
0.00290161
-0.000237915
0.00174978
-0.000247753
-0.000209368
-0.000287496
0.000627923
-0.00025564
-0.000305916
-0.000138417
-0.00139609
-5.68635e-06
-0.00155322
-6.54127e-05
0.00107215
-0.0002436
0.00151389
-8.73243e-05
-0.000777181
-0.000100951
-0.00142111
-0.000199655
0.000254346
-0.000135324
0.000606156
-5.69851e-05
-0.000413061
-8.62462e-05
0.00203698
-0.000215249
0.00373373
-0.000341003
0.00231354
-0.000405489
-0.00146201
-0.000396676
-0.00198135
-0.000599129
-8.87827e-05
-0.000570811
-0.0011001
-0.00054022
0.00255776
-0.000842296
0.00333298
-0.000934175
0.00134334
-0.00073256
-0.00134271
-0.000678107
-0.00134141
-0.000610321
-0.000844902
-3.7019e-05
-0.000401322
0.000107199
-0.0013065
-0.000516013
0.00256481
-0.000304066
0.0011499
3.378e-06
-0.0026617
-0.000344556
-0.000768711
-0.000586675
-0.000372674
0.000146056
-0.00525942
0.00173982
-0.00755835
0.00120787
0.00357259
-0.00026993
0.00917823
-0.000386202
-0.00195983
-0.00046958
-0.00397034
0.000214234
0.000938531
0.000545153
0.00343495
2.29124e-06
0.00448414
-0.000216212
-0.000213726
-0.00033796
-0.00257799
-0.000191893
-0.00313306
0.000130005
-0.000933834
0.000224364
-0.00149077
9.36006e-05
0.000518033
-1.3618e-05
0.00206152
-0.000286848
0.00223902
-0.000237551
0.000365506
-0.000269267
-0.000521256
-0.000648659
0.00265395
-0.0010399
0.00397099
-0.000796279
0.000411737
-0.000668434
-0.000863208
-0.000659239
-0.00151026
-0.000480373
-0.00361607
-0.000590452
-0.000196019
-0.000442944
-0.00136695
-0.000234309
-0.00286573
-0.000426072
0.00121544
-0.000380086
0.00153706
-0.000240539
-0.000626071
-0.000113623
0.000639335
-0.000231635
0.0029934
-0.000579432
0.00226766
-0.000787234
0.00105333
-0.000637297
-0.000870587
9.38691e-06
-0.00179638
8.99633e-05
0.000620484
-0.000730234
0.00258288
-0.00111516
0.00150883
-0.000987595
0.00100917
-0.00107341
0.00328561
0.00329573
-0.0011457
0.000308783
0.000164825
0.000306964
-6.37334e-06
0.000312066
-0.000114215
0.000308274
3.53327e-05
0.000279277
0.000375922
0.000212631
0.00111031
0.000107939
0.000920478
6.54786e-05
-0.000219854
9.68215e-05
-0.000182038
8.85047e-05
0.000728005
0.000100076
0.000143913
0.000102318
-0.000215711
2.87381e-05
0.00055102
-7.67843e-05
0.00132903
-0.00012424
0.000780747
-0.000104441
-0.000435315
-8.85434e-05
-0.00049899
-0.000111202
0.000454691
-0.000147572
0.000868231
-9.80085e-05
-0.000843853
-0.000106132
-2.89083e-05
-0.000249096
0.00196352
-0.000230185
-0.000144663
-0.000160988
-0.00076508
-3.76493e-05
-0.00173941
4.76523e-05
-0.00230314
5.70127e-05
0.000149406
-7.16652e-05
0.00303028
-0.000242695
0.00192081
-0.000268669
-0.000183393
-0.000312475
0.000671728
-0.000295244
-0.000323147
-0.000179892
-0.00151144
-1.33348e-05
-0.00171978
-4.48278e-05
0.00110364
-0.000180311
0.00164938
-6.59404e-05
-0.000891552
-0.000152129
-0.00133492
-0.000202771
0.000304988
-0.000160611
0.000563996
-0.000121052