/*--------------------------------*- C++ -*----------------------------------*\
| =========                 |                                                 |
| \\      /  F ield         | OpenFOAM: The Open Source CFD Toolbox           |
|  \\    /   O peration     | Version:  v1912                                 |
|   \\  /    A nd           | Website:  www.openfoam.com                      |
|    \\/     M anipulation  |                                                 |
\*---------------------------------------------------------------------------*/
FoamFile
{
    version     2.0;
    format      ascii;
    class       volScalarField;
    location    "40";
    object      alpha.water;
}
// * * * * * * * * * * * * * * * * * * * * * * * * * * * * * * * * * * * * * //

dimensions      [0 0 0 0 0 0 0];


internalField   nonuniform List<scalar> 
14268
(
0.000281339
0.000275384
0.000275384
0.000275384
0.00033763
0.000341672
0.000332348
0.000343404
0.000379399
0.000450923
0.000582731
0.000819472
0.00118096
0.00145385
0.00146032
0.00146032
0.00146032
0.00123855
0.000666573
0.000506461
0.000465175
0.000537889
0.000540221
0.000540266
0.000488053
0.000430978
0.000398528
0.000398346
0.000398327
0.000393903
0.000339943
0.000301398
0.000300703
0.000300123
0.000289733
0.000255999
0.000218777
0.000216174
0.00021616
0.000206018
0.000155081
0.000105824
8.36819e-05
7.32017e-05
6.52744e-05
5.88768e-05
5.35377e-05
4.87487e-05
4.46284e-05
4.14682e-05
3.93608e-05
3.80263e-05
3.73239e-05
3.64612e-05
3.37088e-05
2.54325e-05
9.94594e-06
5.85459e-07
7.39382e-10
2.0918e-23
3.26985e-42
-4.02109e-29
-5.31903e-29
-4.93941e-29
-3.81933e-29
-2.57605e-29
-1.54661e-29
-8.35928e-30
-4.09888e-30
-1.83464e-30
-7.53317e-31
-2.84837e-31
-9.94658e-32
-3.21522e-32
-9.63856e-33
-2.68368e-33
-6.94876e-34
-1.67495e-34
-3.76196e-35
-7.87934e-36
-1.54008e-36
-2.81102e-37
-4.79412e-38
-7.64411e-39
-1.14011e-39
-1.59142e-40
-2.07988e-41
-2.54625e-42
-2.92114e-43
-3.14168e-44
-3.16877e-45
-2.9984e-46
-2.66255e-47
-2.21947e-48
-1.73728e-49
-1.27723e-50
-8.82176e-52
-5.7257e-53
-3.49284e-54
-2.00304e-55
-1.08004e-56
-5.4764e-58
-2.61169e-59
-1.17159e-60
-4.94437e-62
-1.96323e-63
-7.33501e-65
-2.57889e-66
-8.53303e-68
-2.65728e-69
-7.78862e-71
-2.14878e-72
-5.58022e-74
-1.36411e-75
-3.13907e-77
-6.80003e-79
-1.38671e-80
-2.66212e-82
-4.81104e-84
-8.18497e-86
-1.31087e-87
-1.97632e-89
-2.80483e-91
-3.74712e-93
-4.71214e-95
-5.5777e-97
-6.21435e-99
-6.51662e-101
-6.43161e-103
-5.97404e-105
-5.22212e-107
-4.29572e-109
-3.32515e-111
-2.42186e-113
-1.65968e-115
-1.07007e-117
-6.49056e-120
-3.70345e-122
-1.98772e-124
-1.00345e-126
-4.76426e-129
-2.12727e-131
-8.93181e-134
-3.52624e-136
-1.30888e-138
-4.56735e-141
-1.49815e-143
-4.61868e-146
-1.33799e-148
-3.64148e-151
0.000552035
0.000485644
0.000416511
0.00029827
0.000164658
0.000132975
0.000132973
0.000140746
0.000107247
0.000116992
0.00013851
0.000165597
0.000252439
0.000404965
0.000625474
0.000895271
0.00110539
0.00112346
0.00112326
0.000790221
0.000402153
0.000300408
0.000300429
0.000305519
0.000298699
0.000285805
0.000264924
0.000265416
0.000284928
0.000287739
0.000279991
0.000260752
0.000239239
0.000212869
0.000181874
0.000151003
0.000127852
0.000130572
0.000146119
0.000146594
0.000127487
8.99601e-05
5.65467e-05
3.42728e-05
2.07496e-05
1.2882e-05
8.90521e-06
6.74764e-06
5.88065e-06
5.34991e-06
5.33881e-06
5.41181e-06
5.74461e-06
6.47407e-06
7.92655e-06
1.00373e-05
1.00821e-05
6.03117e-06
1.20883e-06
2.53152e-10
4.24942e-32
-6.8084e-30
-1.38817e-29
-1.53825e-29
-1.28778e-29
-9.0707e-30
-5.62475e-30
-3.12889e-30
-1.57541e-30
-7.22561e-31
-3.0345e-31
-1.17147e-31
-4.16988e-32
-1.37189e-32
-4.17994e-33
-1.18133e-33
-3.10098e-34
-7.56896e-35
-1.71952e-35
-3.63907e-36
-7.18009e-37
-1.32173e-37
-2.27156e-38
-3.6472e-39
-5.47407e-40
-7.68469e-41
-1.00958e-41
-1.24186e-42
-1.43097e-43
-1.54528e-44
-1.56453e-45
-1.48568e-46
-1.32371e-47
-1.10694e-48
-8.69076e-50
-6.40787e-51
-4.43819e-52
-2.88826e-53
-1.76644e-54
-1.0155e-55
-5.48858e-57
-2.78937e-58
-1.33317e-59
-5.99311e-61
-2.53432e-62
-1.00822e-63
-3.77381e-65
-1.32913e-66
-4.40507e-68
-1.37392e-69
-4.0329e-71
-1.11415e-72
-2.89704e-74
-7.09031e-76
-1.63338e-77
-3.54185e-79
-7.22933e-81
-1.38898e-82
-2.51203e-84
-4.27645e-86
-6.85282e-88
-1.03366e-89
-1.46758e-91
-1.96126e-93
-2.46698e-95
-2.92067e-97
-3.2544e-99
-3.41284e-101
-3.36825e-103
-3.12835e-105
-2.73421e-107
-2.2487e-109
-1.74018e-111
-1.26705e-113
-8.6798e-116
-5.5939e-118
-3.39141e-120
-1.93411e-122
-1.03749e-124
-5.23436e-127
-2.48361e-129
-1.10818e-131
-4.64957e-134
-1.83423e-136
-6.80293e-139
-2.37191e-141
-7.77349e-144
-2.39436e-146
-6.92984e-149
-1.88425e-151
0.000799213
0.000799213
0.000799213
0.000771843
0.00062957
0.000490062
0.000366596
0.000113689
2.40414e-05
2.40186e-05
3.01936e-05
3.6176e-05
7.10565e-05
0.000124817
0.000157083
0.000186145
0.000226406
0.000390628
0.000739951
0.000796039
0.000795985
0.00070627
0.000338561
0.000157924
0.000157591
0.000157583
0.000161888
0.000162052
0.000159742
0.000151099
0.0001414
0.000141048
0.00013977
0.00013242
0.000108607
8.08201e-05
6.2078e-05
6.15197e-05
6.63645e-05
7.16632e-05
6.98529e-05
5.8862e-05
4.15262e-05
2.09132e-05
5.52949e-06
4.77732e-06
4.77778e-06
4.77732e-06
4.77779e-06
4.77742e-06
4.7778e-06
4.85406e-06
5.2658e-06
4.80167e-06
4.38609e-06
4.58951e-06
5.60658e-06
5.73082e-06
3.24992e-06
5.14672e-07
3.50081e-11
-8.37399e-33
-2.59652e-30
-3.7529e-30
-3.64408e-30
-2.88637e-30
-1.9671e-30
-1.17949e-30
-6.30695e-31
-3.04002e-31
-1.33203e-31
-5.33677e-32
-1.96334e-32
-6.65348e-33
-2.08217e-33
-6.02932e-34
-1.61816e-34
-4.03075e-35
-9.3302e-36
-2.00915e-36
-4.02881e-37
-7.52968e-38
-1.31271e-38
-2.13646e-39
-3.24832e-40
-4.61688e-41
-6.13806e-42
-7.63753e-43
-8.89903e-44
-9.71433e-45
-9.93939e-46
-9.53596e-47
-8.58212e-48
-7.24779e-49
-5.74564e-50
-4.27686e-51
-2.99009e-52
-1.96394e-53
-1.21215e-54
-7.03173e-56
-3.83469e-57
-1.96624e-58
-9.4809e-60
-4.29967e-61
-1.83421e-62
-7.36112e-64
-2.77948e-65
-9.87531e-67
-3.30173e-68
-1.03888e-69
-3.07648e-71
-8.5749e-73
-2.24962e-74
-5.55538e-76
-1.29138e-77
-2.82581e-79
-5.82083e-81
-1.12872e-82
-2.06038e-84
-3.54053e-86
-5.72727e-88
-8.72124e-90
-1.25013e-91
-1.6868e-93
-2.14239e-95
-2.5612e-97
-2.88192e-99
-3.05211e-101
-3.04214e-103
-2.85362e-105
-2.51903e-107
-2.0925e-109
-1.63556e-111
-1.20286e-113
-8.32302e-116
-5.41797e-118
-3.31781e-120
-1.91116e-122
-1.03547e-124
-5.27646e-127
-2.52857e-129
-1.13947e-131
-4.8282e-134
-1.92347e-136
-7.20386e-139
-2.53618e-141
-8.3923e-144
-2.6098e-146
-7.6254e-149
-2.09298e-151
0.000681998
0.000383024
0.000354281
0.000727392
0.000871681
0.00087171
0.000525104
0.000245265
0.00010621
1.96146e-05
1.06904e-05
1.06904e-05
1.4333e-05
2.77464e-05
2.96507e-05
2.74508e-05
3.11545e-05
8.61014e-05
0.000277017
0.000445613
0.000509525
0.0005542
0.000582124
0.000524062
0.000264206
0.000103371
0.000100253
0.000104838
0.000105941
9.48805e-05
6.81838e-05
6.06025e-05
6.73044e-05
6.96428e-05
6.10647e-05
4.14767e-05
2.93541e-05
2.64011e-05
2.70419e-05
2.86022e-05
2.91164e-05
2.75271e-05
2.37278e-05
1.41788e-05
1.1304e-05
1.23105e-05
1.36122e-05
1.36741e-05
1.24248e-05
1.04977e-05
1.20521e-05
1.20545e-05
7.98648e-06
4.38821e-06
2.66435e-06
2.61162e-06
2.67077e-06
2.75965e-06
2.65758e-06
1.39196e-06
1.47416e-07
9.8111e-21
-5.7808e-40
-4.30527e-30
-5.01425e-30
-3.43938e-30
-1.8511e-30
-8.85486e-31
-4.01828e-31
-1.76758e-31
-7.48042e-32
-2.99479e-32
-1.11928e-32
-3.87813e-33
-1.24263e-33
-3.68175e-34
-1.00961e-34
-2.56556e-35
-6.0493e-36
-1.32513e-36
-2.69985e-37
-5.12148e-38
-9.05396e-39
-1.49296e-39
-2.2981e-40
-3.30459e-41
-4.44205e-42
-5.58512e-43
-6.57222e-44
-7.24185e-45
-7.47573e-46
-7.23299e-47
-6.56176e-48
-5.58374e-49
-4.45846e-50
-3.34148e-51
-2.35134e-52
-1.55394e-53
-9.64725e-55
-5.6276e-56
-3.08522e-57
-1.58992e-58
-7.70314e-60
-3.50941e-61
-1.50361e-62
-6.05943e-64
-2.29706e-65
-8.19228e-67
-2.74897e-68
-8.67968e-70
-2.57892e-71
-7.21107e-73
-1.89764e-74
-4.69999e-76
-1.09564e-77
-2.40403e-79
-4.96501e-81
-9.65199e-83
-1.76617e-84
-3.04206e-86
-4.93199e-88
-7.52645e-90
-1.0811e-91
-1.46164e-93
-1.85996e-95
-2.22763e-97
-2.51098e-99
-2.66371e-101
-2.65924e-103
-2.49824e-105
-2.2085e-107
-1.83706e-109
-1.43776e-111
-1.05868e-113
-7.3338e-116
-4.77916e-118
-2.92956e-120
-1.68909e-122
-9.15941e-125
-4.67108e-127
-2.24009e-129
-1.01013e-131
-4.28269e-134
-1.70705e-136
-6.39625e-139
-2.25275e-141
-7.45693e-144
-2.31956e-146
-6.77881e-149
-1.8609e-151
0.000524641
0.000207686
0.000105803
0.000140572
0.000335917
0.000368449
0.000368236
0.000564471
0.000635144
0.000451766
0.000135843
2.04927e-05
1.07623e-05
1.06746e-05
1.06745e-05
1.06745e-05
1.06743e-05
1.3121e-05
3.86028e-05
5.20058e-05
5.62427e-05
9.34668e-05
0.000201511
0.000252729
0.00024769
0.000193249
0.000102301
8.36501e-05
0.000100053
7.28162e-05
3.70712e-05
3.69518e-05
3.69438e-05
3.81966e-05
3.2055e-05
1.95168e-05
1.18906e-05
1.04848e-05
1.003e-05
9.39067e-06
8.90278e-06
8.56317e-06
8.80132e-06
1.7318e-05
1.96947e-05
1.96919e-05
1.96947e-05
1.96919e-05
1.9531e-05
1.86227e-05
1.38747e-05
7.16647e-06
2.93717e-06
1.37138e-06
1.33099e-06
1.53132e-06
1.66853e-06
1.58573e-06
1.27131e-06
8.31737e-07
3.26391e-07
1.81552e-08
4.85578e-28
-2.54051e-29
-1.11327e-29
-8.21915e-30
-5.17444e-30
-2.69464e-30
-1.20858e-30
-4.82841e-31
-1.76318e-31
-5.99722e-32
-1.92303e-32
-5.84716e-33
-1.68776e-33
-4.6164e-34
-1.19286e-34
-2.90243e-35
-6.63136e-36
-1.41964e-36
-2.84344e-37
-5.32359e-38
-9.31237e-39
-1.52182e-39
-2.32362e-40
-3.31582e-41
-4.42389e-42
-5.52079e-43
-6.44742e-44
-7.04967e-45
-7.22034e-46
-6.93032e-47
-6.2366e-48
-5.26406e-49
-4.16911e-50
-3.09936e-51
-2.16348e-52
-1.41846e-53
-8.73755e-55
-5.05803e-56
-2.75229e-57
-1.40805e-58
-6.77384e-60
-3.06493e-61
-1.30448e-62
-5.22336e-64
-1.96791e-65
-6.97667e-67
-2.32767e-68
-7.30895e-70
-2.16014e-71
-6.00929e-73
-1.57362e-74
-3.87909e-76
-9.00166e-78
-1.96648e-79
-4.0442e-81
-7.82995e-83
-1.42714e-84
-2.44878e-86
-3.95556e-88
-6.01493e-90
-8.61012e-92
-1.1602e-93
-1.47158e-95
-1.75691e-97
-1.9743e-99
-2.08812e-101
-2.07852e-103
-1.94711e-105
-1.71648e-107
-1.42388e-109
-1.11141e-111
-8.16216e-114
-5.63955e-116
-3.66573e-118
-2.24142e-120
-1.28914e-122
-6.97359e-125
-3.54782e-127
-1.69738e-129
-7.6361e-132
-3.23e-134
-1.2845e-136
-4.80204e-139
-1.68747e-141
-5.5733e-144
-1.7298e-146
-5.04418e-149
-1.3817e-151
0.00025175
0.000113159
8.16419e-05
8.16419e-05
8.16419e-05
9.00944e-05
0.00063571
0.00115494
0.001431
0.00145609
0.00095875
0.000558066
0.000145546
1.06744e-05
1.06745e-05
1.06743e-05
1.10502e-05
1.07745e-05
1.07727e-05
1.11747e-05
1.12324e-05
1.34521e-05
2.75296e-05
3.84081e-05
4.11959e-05
3.92571e-05
3.49629e-05
3.86866e-05
7.34472e-05
9.04906e-05
9.04893e-05
6.40409e-05
2.5111e-05
1.60647e-05
1.60639e-05
1.00629e-05
5.78192e-06
5.63034e-06
5.62946e-06
5.32847e-06
5.27754e-06
5.80046e-06
5.31411e-06
1.04893e-05
1.79066e-05
1.645e-05
1.06993e-05
5.45795e-06
4.20394e-06
4.28748e-06
4.33228e-06
2.75511e-06
1.39091e-06
8.41521e-07
7.82207e-07
7.81388e-07
9.97145e-07
1.03133e-06
7.73195e-07
2.9254e-07
2.3779e-08
4.95824e-10
3.68359e-12
-1.84449e-31
-2.7902e-30
-3.09194e-30
-2.26978e-30
-1.33031e-30
-6.64555e-31
-2.94082e-31
-1.18256e-31
-4.38982e-32
-1.51774e-32
-4.90774e-33
-1.48603e-33
-4.21175e-34
-1.11617e-34
-2.76263e-35
-6.38017e-36
-1.37398e-36
-2.75826e-37
-5.16161e-38
-9.00577e-39
-1.46557e-39
-2.22566e-40
-3.15585e-41
-4.18061e-42
-5.17719e-43
-5.99713e-44
-6.50194e-45
-6.60146e-46
-6.28011e-47
-5.60072e-48
-4.68462e-49
-3.67662e-50
-2.70858e-51
-1.87376e-52
-1.21762e-53
-7.43472e-55
-4.26676e-56
-2.30207e-57
-1.16795e-58
-5.57316e-60
-2.50166e-61
-1.05651e-62
-4.19851e-64
-1.57018e-65
-5.52686e-67
-1.83115e-68
-5.71109e-70
-1.67684e-71
-4.63516e-73
-1.2063e-74
-2.95583e-76
-6.81941e-78
-1.48137e-79
-3.02994e-81
-5.83522e-83
-1.05811e-84
-1.80655e-86
-2.90408e-88
-4.39535e-90
-6.26315e-92
-8.40222e-94
-1.06116e-95
-1.26163e-97
-1.41199e-99
-1.4875e-101
-1.47498e-103
-1.37656e-105
-1.20908e-107
-9.99412e-110
-7.77379e-112
-5.68972e-114
-3.91822e-116
-2.53861e-118
-1.54732e-120
-8.87168e-123
-4.78455e-125
-2.42689e-127
-1.1577e-129
-5.19326e-132
-2.19051e-134
-8.68706e-137
-3.23878e-139
-1.13508e-141
-3.73903e-144
-1.15749e-146
-3.36666e-149
-9.19872e-152
0.00014862
0.00014849
8.39615e-05
0.00010976
0.000132568
0.000182991
0.00113741
0.00161304
0.0018686
0.00187912
0.00188069
0.00165009
0.000812659
0.000105563
4.42995e-05
8.77e-05
0.000109336
9.17391e-05
7.77245e-05
8.81706e-05
9.02258e-05
7.85387e-05
4.74515e-05
2.0505e-05
9.3966e-06
9.3843e-06
9.38355e-06
1.1441e-05
3.141e-05
8.94458e-05
9.63538e-05
9.63603e-05
5.72211e-05
1.8826e-05
2.04494e-05
2.74404e-05
2.49697e-05
1.3704e-05
5.26716e-06
4.88487e-06
4.88488e-06
4.88443e-06
4.88475e-06
5.6255e-06
9.63053e-06
7.15247e-06
2.95215e-06
1.84643e-06
2.00196e-06
2.78746e-06
4.20999e-06
5.5047e-06
5.51861e-06
4.46984e-06
1.77907e-06
5.73057e-07
5.00725e-07
5.99974e-07
5.52706e-07
2.40314e-07
1.27186e-08
1.23678e-11
5.47101e-12
1.08821e-12
3.72412e-32
-4.64541e-31
-5.93236e-31
-4.60667e-31
-2.77539e-31
-1.42038e-31
-6.44359e-32
-2.64589e-32
-9.93926e-33
-3.43484e-33
-1.09532e-33
-3.22857e-34
-8.80663e-35
-2.22502e-35
-5.21133e-36
-1.13248e-36
-2.2854e-37
-4.28688e-38
-7.48106e-39
-1.21571e-39
-1.84131e-40
-2.60153e-41
-3.43158e-42
-4.22922e-43
-4.87356e-44
-5.25474e-45
-5.30462e-46
-5.01664e-47
-4.44699e-48
-3.69689e-49
-2.88353e-50
-2.11113e-51
-1.45137e-52
-9.3728e-54
-5.68754e-55
-3.24393e-56
-1.7395e-57
-8.77169e-59
-4.16045e-60
-1.85642e-61
-7.79404e-63
-3.07937e-64
-1.14507e-65
-4.0079e-67
-1.32057e-68
-4.09636e-70
-1.19635e-71
-3.28977e-73
-8.51801e-75
-2.07679e-76
-4.76803e-78
-1.03082e-79
-2.09861e-81
-4.02328e-83
-7.2632e-85
-1.23472e-86
-1.97649e-88
-2.97917e-90
-4.22819e-92
-5.65013e-94
-7.10869e-96
-8.42033e-98
-9.38977e-100
-9.85701e-102
-9.74039e-104
-9.05986e-106
-7.9315e-108
-6.53505e-110
-5.06725e-112
-3.69741e-114
-2.53858e-116
-1.63991e-118
-9.96673e-121
-5.69842e-123
-3.06471e-125
-1.55032e-127
-7.37583e-130
-3.30007e-132
-1.38841e-134
-5.49228e-137
-2.04262e-139
-7.14134e-142
-2.3468e-144
-7.24798e-147
-2.1033e-149
-5.73382e-152
0.000337218
0.000118157
0.000335895
0.000335373
0.000421848
0.000568337
0.000401713
0.000272035
0.000288695
0.00116387
0.00188198
0.001883
0.00169906
0.000514155
0.000229189
0.000298568
0.000324583
0.000275541
0.000250058
0.000216466
0.000208903
0.000202077
0.00015184
9.94855e-05
5.91451e-05
1.80768e-05
9.37361e-06
9.3732e-06
1.18158e-05
3.63227e-05
7.08684e-05
7.4913e-05
7.41427e-05
3.85148e-05
4.17467e-05
6.23762e-05
6.0513e-05
3.5387e-05
1.00885e-05
4.88527e-06
4.88482e-06
4.88488e-06
4.88447e-06
4.88489e-06
5.19432e-06
2.42696e-06
3.52028e-07
2.67846e-07
3.20514e-07
7.03894e-07
2.19917e-06
5.99738e-06
7.04002e-06
7.04076e-06
5.5005e-06
2.01889e-06
3.93725e-07
3.05871e-07
3.4815e-07
2.55038e-07
5.14294e-08
3.52936e-12
8.24548e-13
3.47922e-14
3.28358e-19
2.80374e-33
-1.20164e-31
-1.46973e-31
-1.11675e-31
-6.67685e-32
-3.39832e-32
-1.52299e-32
-6.11526e-33
-2.22254e-33
-7.3595e-34
-2.2304e-34
-6.20762e-35
-1.5909e-35
-3.76279e-36
-8.22954e-37
-1.6672e-37
-3.13342e-38
-5.47104e-39
-8.88588e-40
-1.34404e-40
-1.89526e-41
-2.49394e-42
-3.06516e-43
-3.52148e-44
-3.78466e-45
-3.80764e-46
-3.58829e-47
-3.16935e-48
-2.62503e-49
-2.03981e-50
-1.48773e-51
-1.01886e-52
-6.5541e-54
-3.96157e-55
-2.25064e-56
-1.20211e-57
-6.03788e-59
-2.85249e-60
-1.26779e-61
-5.30181e-63
-2.08653e-64
-7.72867e-66
-2.69473e-67
-8.84505e-69
-2.73336e-70
-7.95309e-72
-2.17894e-73
-5.62138e-75
-1.36568e-76
-3.12442e-78
-6.7316e-80
-1.36583e-81
-2.60978e-83
-4.69611e-85
-7.95783e-87
-1.26988e-88
-1.90824e-90
-2.70016e-92
-3.59765e-94
-4.51337e-96
-5.3311e-98
-5.92849e-100
-6.20668e-102
-6.11701e-104
-5.67486e-106
-4.95544e-108
-4.07277e-110
-3.15028e-112
-2.29313e-114
-1.57071e-116
-1.01232e-118
-6.13852e-121
-3.50183e-123
-1.87922e-125
-9.48578e-128
-4.50345e-130
-2.01074e-132
-8.4424e-135
-3.33299e-137
-1.23714e-139
-4.31694e-142
-1.41597e-144
-4.36509e-147
-1.26442e-149
-3.44085e-152
0.000604333
0.000118489
0.000228132
0.000616192
0.000616182
0.000616192
0.000334952
0.000268272
0.000268376
0.000418465
0.000928118
0.000978209
0.000764036
0.000737697
0.000546049
0.000523958
0.000510403
0.000422682
0.000257166
8.81334e-05
3.01352e-05
3.28826e-05
5.68503e-05
0.000110443
0.000113688
8.03606e-05
2.0153e-05
9.37361e-06
9.37332e-06
9.99855e-06
1.81786e-05
2.99041e-05
3.71382e-05
6.50368e-05
8.04786e-05
8.04765e-05
8.04786e-05
6.2818e-05
2.15995e-05
5.69188e-06
5.1465e-06
4.88456e-06
6.00725e-06
6.97455e-06
5.00512e-06
6.18193e-07
2.2872e-08
1.97377e-08
2.1475e-08
3.73425e-08
1.26244e-07
6.14888e-07
2.97606e-06
5.77844e-06
6.08155e-06
4.73627e-06
1.61559e-06
2.27476e-07
1.83527e-07
1.97675e-07
1.09941e-07
1.10407e-08
5.35021e-15
2.05094e-19
5.03112e-21
5.3148e-33
-3.73566e-32
-5.73575e-32
-5.04772e-32
-3.34154e-32
-1.83011e-32
-8.65817e-33
-3.62026e-33
-1.3564e-33
-4.59508e-34
-1.41651e-34
-3.9924e-35
-1.03268e-35
-2.45884e-36
-5.40315e-37
-1.09815e-37
-2.06823e-38
-3.61557e-39
-5.87546e-40
-8.88716e-41
-1.25271e-41
-1.64726e-42
-2.02263e-43
-2.32105e-44
-2.49121e-45
-2.50267e-46
-2.35477e-47
-2.07635e-48
-1.7167e-49
-1.33151e-50
-9.69273e-52
-6.6248e-53
-4.25291e-54
-2.56525e-55
-1.45425e-56
-7.75051e-58
-3.88429e-59
-1.83096e-60
-8.11929e-62
-3.38772e-63
-1.33019e-64
-4.91588e-66
-1.71009e-67
-5.60031e-69
-1.72672e-70
-5.01281e-72
-1.37031e-73
-3.52738e-75
-8.55074e-77
-1.95202e-78
-4.19663e-80
-8.49687e-82
-1.62017e-83
-2.90938e-85
-4.9201e-87
-7.8356e-89
-1.17513e-90
-1.65957e-92
-2.20694e-94
-2.76344e-96
-3.25802e-98
-3.61644e-100
-3.77927e-102
-3.718e-104
-3.44318e-106
-3.00144e-108
-2.46259e-110
-1.90159e-112
-1.38189e-114
-9.44998e-117
-6.08072e-119
-3.6814e-121
-2.09686e-123
-1.12355e-125
-5.66292e-128
-2.6846e-130
-1.19694e-132
-5.01856e-135
-1.97861e-137
-7.33458e-140
-2.55611e-142
-8.37382e-145
-2.57838e-147
-7.46014e-150
-2.02789e-152
0.000873462
0.000176745
0.00012603
0.000284384
0.000426708
0.000466054
0.000908109
0.000943779
0.000743728
0.000526994
0.000326878
0.000312388
0.000312524
0.000680673
0.000768557
0.000709913
0.000297375
4.58039e-05
4.60274e-06
3.31355e-06
3.31304e-06
3.3131e-06
3.40284e-06
9.27421e-06
3.91415e-05
6.49331e-05
3.36251e-05
1.03567e-05
9.37372e-06
9.37342e-06
9.3738e-06
1.06644e-05
1.42392e-05
3.10465e-05
4.76449e-05
4.49976e-05
4.56593e-05
4.78897e-05
3.07427e-05
8.75786e-06
5.32118e-06
1.1585e-05
1.39579e-05
1.40657e-05
5.33632e-06
1.36176e-07
8.1916e-09
8.53386e-09
8.39808e-09
1.08971e-08
2.55823e-08
8.65636e-08
3.27528e-07
1.36942e-06
4.10911e-06
4.73388e-06
3.24383e-06
9.11247e-07
7.88707e-08
7.303e-08
7.26855e-08
3.50009e-08
2.43792e-09
8.46095e-23
1.83023e-28
2.8606e-29
-2.48712e-48
-2.17895e-32
-2.38735e-32
-1.70122e-32
-9.72126e-33
-4.74168e-33
-2.02995e-33
-7.74884e-34
-2.66452e-34
-8.31278e-35
-2.36562e-35
-6.16659e-36
-1.47751e-36
-3.26314e-37
-6.65911e-38
-1.25828e-38
-2.20545e-39
-3.59151e-40
-5.44159e-41
-7.68044e-42
-1.01098e-42
-1.24231e-43
-1.4264e-44
-1.53154e-45
-1.53891e-46
-1.44806e-47
-1.27677e-48
-1.05544e-49
-8.18396e-51
-5.95528e-52
-4.06846e-53
-2.61042e-54
-1.5736e-55
-8.91481e-57
-4.74778e-58
-2.37759e-59
-1.11983e-60
-4.96164e-62
-2.0684e-63
-8.11431e-65
-2.99597e-66
-1.04123e-67
-3.40668e-69
-1.04936e-70
-3.04345e-72
-8.31153e-74
-2.13744e-75
-5.17632e-77
-1.18053e-78
-2.53553e-80
-5.12862e-82
-9.76955e-84
-1.75262e-85
-2.96097e-87
-4.7109e-89
-7.05808e-91
-9.95793e-93
-1.32292e-94
-1.65487e-96
-1.94913e-98
-2.16143e-100
-2.25653e-102
-2.21779e-104
-2.05187e-106
-1.78692e-108
-1.46473e-110
-1.13e-112
-8.20421e-115
-5.60536e-117
-3.6037e-119
-2.1799e-121
-1.24061e-123
-6.64222e-126
-3.34528e-128
-1.58474e-130
-7.06081e-133
-2.95857e-135
-1.16575e-137
-4.31898e-140
-1.50442e-142
-4.9263e-145
-1.51627e-147
-4.38564e-150
-1.19182e-152
0.000163791
0.000147532
6.89692e-05
5.67626e-05
0.00011128
0.000141293
0.00135236
0.00135249
0.00100909
0.000525942
0.000338012
0.000312524
0.000707989
0.0010824
0.00097651
0.000527039
0.00011202
5.40328e-06
3.34353e-06
3.31395e-06
3.31375e-06
3.31268e-06
3.31271e-06
4.49086e-06
1.74049e-05
5.01913e-05
4.73828e-05
1.59285e-05
9.37342e-06
9.3738e-06
1.05077e-05
1.13346e-05
1.13472e-05
1.3599e-05
1.39736e-05
1.64951e-05
2.21209e-05
3.33681e-05
2.64032e-05
1.10253e-05
5.33742e-06
6.23647e-06
1.40762e-05
1.4077e-05
3.93635e-06
1.35304e-08
4.53682e-09
5.22304e-09
4.91585e-09
5.83448e-09
1.29738e-08
4.44129e-08
1.64268e-07
4.70879e-07
1.10648e-06
2.60157e-06
3.15396e-06
1.95983e-06
3.91179e-07
1.66296e-08
1.65797e-08
1.4162e-08
5.23645e-09
1.5431e-10
8.92961e-24
3.82886e-30
9.1625e-50
-6.64928e-33
-9.40104e-33
-7.72451e-33
-4.76179e-33
-2.42195e-33
-1.06388e-33
-4.13509e-34
-1.44204e-34
-4.55161e-35
-1.30819e-35
-3.43938e-36
-8.30185e-37
-1.8453e-37
-3.78682e-38
-7.1904e-39
-1.26569e-39
-2.06888e-40
-3.14498e-41
-4.45191e-42
-5.87525e-43
-7.23622e-44
-8.3255e-45
-8.95549e-46
-9.01322e-47
-8.49343e-48
-7.49843e-49
-6.20567e-50
-4.81685e-51
-3.50831e-52
-2.39871e-53
-1.54017e-54
-9.2903e-56
-5.26617e-57
-2.80603e-58
-1.40583e-59
-6.62404e-61
-2.93596e-62
-1.22433e-63
-4.80437e-65
-1.77432e-66
-6.1679e-68
-2.01838e-69
-6.21827e-71
-1.80373e-72
-4.92646e-74
-1.26703e-75
-3.0686e-77
-6.9986e-79
-1.50317e-80
-3.04041e-82
-5.79146e-84
-1.03889e-85
-1.755e-87
-2.79188e-89
-4.18234e-91
-5.89974e-93
-7.83648e-95
-9.80094e-97
-1.15413e-98
-1.27956e-100
-1.33556e-102
-1.31234e-104
-1.21388e-106
-1.05691e-108
-8.66157e-111
-6.68084e-113
-4.84966e-115
-3.31291e-117
-2.12959e-119
-1.28807e-121
-7.33012e-124
-3.92442e-126
-1.97652e-128
-9.36382e-131
-4.17251e-133
-1.74863e-135
-6.89155e-138
-2.55398e-140
-8.89934e-143
-2.91535e-145
-8.97753e-148
-2.59811e-150
-7.06498e-153
7.38035e-05
0.000167436
3.47908e-05
3.09983e-05
3.25186e-05
0.000135502
0.000849237
0.000356895
3.17693e-05
8.19976e-05
0.000416755
0.000750094
0.00131779
0.00131783
0.00131779
0.000533292
4.14146e-05
3.32053e-06
3.31437e-06
3.60204e-06
3.60226e-06
3.31417e-06
3.31266e-06
3.97689e-06
1.21481e-05
3.67581e-05
4.11172e-05
2.70878e-05
9.43306e-06
9.37349e-06
1.70619e-05
2.43879e-05
1.84049e-05
1.36053e-05
2.44206e-05
4.26952e-05
3.94043e-05
4.00006e-05
3.91694e-05
2.29608e-05
7.22058e-06
6.09276e-06
1.08464e-05
8.41975e-06
1.73675e-06
9.94271e-09
3.11649e-09
3.34411e-09
2.91306e-09
3.23269e-09
6.94201e-09
2.57546e-08
1.06791e-07
3.5408e-07
7.18582e-07
1.06593e-06
1.54247e-06
1.72248e-06
9.56599e-07
1.0688e-07
2.19762e-09
2.18619e-09
1.67591e-09
4.44415e-10
3.13983e-13
3.30468e-27
8.07039e-42
-2.6624e-33
-4.16108e-33
-3.59661e-33
-2.28314e-33
-1.18565e-33
-5.29833e-34
-2.09088e-34
-7.39206e-35
-2.36214e-35
-6.86461e-36
-1.82273e-36
-4.43873e-37
-9.94458e-38
-2.05527e-38
-3.92741e-39
-6.95285e-40
-1.14238e-40
-1.74471e-41
-2.48024e-42
-3.28589e-43
-4.0614e-44
-4.68796e-45
-5.05779e-46
-5.10447e-47
-4.82243e-48
-4.26764e-49
-3.53975e-50
-2.75329e-51
-2.00927e-52
-1.37633e-53
-8.85277e-55
-5.34891e-56
-3.03686e-57
-1.62064e-58
-8.13143e-60
-3.83681e-61
-1.7029e-62
-7.11062e-64
-2.79381e-65
-1.03306e-66
-3.59535e-68
-1.17788e-69
-3.63278e-71
-1.05485e-72
-2.88396e-74
-7.42425e-76
-1.79969e-77
-4.1081e-79
-8.83055e-81
-1.78749e-82
-3.40731e-84
-6.11628e-86
-1.03388e-87
-1.64569e-89
-2.46669e-91
-3.48143e-93
-4.62663e-95
-5.78922e-97
-6.82037e-99
-7.56501e-101
-7.89962e-103
-7.76565e-105
-7.18625e-107
-6.25975e-109
-5.13239e-111
-3.96063e-113
-2.87651e-115
-1.96606e-117
-1.26454e-119
-7.65315e-122
-4.35807e-124
-2.33487e-126
-1.17684e-128
-5.5798e-131
-2.48851e-133
-1.04386e-135
-4.11806e-138
-1.52776e-140
-5.32948e-143
-1.74799e-145
-5.38961e-148
-1.56186e-150
-4.25315e-153
4.16011e-05
0.00016729
0.00010603
3.1e-05
3.09983e-05
0.000377981
0.0006787
0.000288413
1.83433e-05
2.35935e-05
0.000103063
0.000652284
0.00120866
0.00131779
0.00105996
0.000421688
2.87823e-05
3.31424e-06
3.31437e-06
3.31388e-06
3.31382e-06
3.31314e-06
3.31317e-06
3.3734e-06
1.2593e-05
3.14915e-05
2.62836e-05
1.33424e-05
9.42126e-06
1.02798e-05
3.06271e-05
4.50684e-05
3.32258e-05
2.2354e-05
4.61427e-05
7.95233e-05
6.29714e-05
5.16094e-05
5.30696e-05
5.3078e-05
2.36074e-05
6.09358e-06
2.74229e-06
2.74947e-06
6.24452e-07
6.14096e-09
1.88111e-09
2.08489e-09
1.81741e-09
1.9054e-09
3.74434e-09
1.40689e-08
6.15859e-08
2.44143e-07
5.84305e-07
8.50066e-07
8.63676e-07
8.25672e-07
6.68364e-07
2.70873e-07
1.21027e-08
1.13662e-10
1.78291e-10
1.33978e-10
2.54683e-11
5.89425e-24
3.55421e-37
-1.36282e-33
-2.02094e-33
-1.70623e-33
-1.07892e-33
-5.64168e-34
-2.55084e-34
-1.02011e-34
-3.65484e-35
-1.1828e-35
-3.478e-36
-9.33522e-37
-2.29581e-37
-5.18985e-38
-1.08138e-38
-2.08181e-39
-3.71056e-40
-6.13448e-41
-9.42234e-42
-1.34649e-42
-1.7925e-43
-2.22549e-44
-2.57955e-45
-2.7939e-46
-2.82999e-47
-2.68282e-48
-2.38191e-49
-1.98176e-50
-1.546e-51
-1.13141e-52
-7.77107e-54
-5.01154e-55
-3.03566e-56
-1.72773e-57
-9.24203e-59
-4.64782e-60
-2.19799e-61
-9.77666e-63
-4.09099e-64
-1.61068e-65
-5.96764e-67
-2.08094e-68
-6.83013e-70
-2.11033e-71
-6.13846e-73
-1.68106e-74
-4.33454e-76
-1.05235e-77
-2.40571e-79
-5.1785e-81
-1.04966e-82
-2.00346e-84
-3.60079e-86
-6.09396e-88
-9.71132e-90
-1.45723e-91
-2.05892e-93
-2.73907e-95
-3.43087e-97
-4.04605e-99
-4.49228e-101
-4.69564e-103
-4.6206e-105
-4.28013e-107
-3.7321e-109
-3.06311e-111
-2.36627e-113
-1.72043e-115
-1.1772e-117
-7.58029e-120
-4.59316e-122
-2.6188e-124
-1.40484e-126
-7.09017e-129
-3.36635e-131
-1.5035e-133
-6.31616e-136
-2.4956e-138
-9.27322e-141
-3.24027e-143
-1.06458e-145
-3.28825e-148
-9.54642e-151
-2.60449e-153
3.69818e-05
0.00014242
0.000143645
9.99329e-05
3.41701e-05
0.000685
0.000623057
0.000198491
5.8197e-06
7.05683e-06
2.51267e-05
6.07378e-05
0.000377094
0.00101194
0.000767938
0.000285436
1.678e-05
3.31428e-06
3.31381e-06
3.31391e-06
3.3134e-06
3.31353e-06
3.31302e-06
3.31307e-06
8.61217e-06
3.10171e-05
3.06429e-05
1.80346e-05
9.63904e-06
1.56991e-05
5.34652e-05
0.00010404
0.000101506
9.92456e-05
0.000123175
0.000127457
8.56084e-05
5.08376e-05
5.1997e-05
5.31127e-05
5.31102e-05
2.63257e-05
4.74317e-06
3.62865e-07
3.65827e-08
1.57097e-09
1.31266e-09
1.31201e-09
1.23277e-09
1.27864e-09
2.24521e-09
8.14421e-09
3.7251e-08
1.62004e-07
4.51e-07
7.11417e-07
7.17647e-07
5.66525e-07
2.76126e-07
5.35336e-08
1.06703e-09
6.66106e-12
1.02485e-11
1.58016e-11
9.15173e-12
9.6735e-13
1.24177e-37
-7.92294e-34
-9.79181e-34
-7.80747e-34
-4.91802e-34
-2.60349e-34
-1.19568e-34
-4.85618e-35
-1.76533e-35
-5.79059e-36
-1.72404e-36
-4.68079e-37
-1.16333e-37
-2.65533e-38
-5.58209e-39
-1.08344e-39
-1.94566e-40
-3.23905e-41
-5.00712e-42
-7.19818e-43
-9.63596e-44
-1.20259e-44
-1.40074e-45
-1.52413e-46
-1.55056e-47
-1.47603e-48
-1.31567e-49
-1.0988e-50
-8.60323e-52
-6.31831e-53
-4.35452e-54
-2.81751e-55
-1.71215e-56
-9.77507e-58
-5.24484e-59
-2.64545e-60
-1.25466e-61
-5.59641e-63
-2.34817e-64
-9.2696e-66
-3.44323e-67
-1.20365e-68
-3.96016e-70
-1.22642e-71
-3.57535e-73
-9.81241e-75
-2.53533e-76
-6.16758e-78
-1.41263e-79
-3.04643e-81
-6.18595e-83
-1.18271e-84
-2.12919e-86
-3.60917e-88
-5.76048e-90
-8.6569e-92
-1.22493e-93
-1.63193e-95
-2.047e-97
-2.41742e-99
-2.68776e-101
-2.81331e-103
-2.77218e-105
-2.57147e-107
-2.24534e-109
-1.84546e-111
-1.42766e-113
-1.0395e-115
-7.12324e-118
-4.59369e-120
-2.78772e-122
-1.59189e-124
-8.55316e-127
-4.32373e-129
-2.05626e-131
-9.19921e-134
-3.87118e-136
-1.53222e-138
-5.70357e-141
-1.99654e-143
-6.57153e-146
-2.03355e-148
-5.9148e-151
-1.61673e-153
3.69694e-05
5.13236e-05
0.00011572
0.000161337
0.00011646
0.000685453
0.000468647
0.000112812
2.27403e-06
2.91718e-06
8.21075e-06
2.69706e-05
0.000134506
0.000369101
0.000336774
0.000145149
1.57568e-05
4.12756e-06
4.71245e-06
5.23902e-06
5.02272e-06
3.94601e-06
3.31319e-06
3.31325e-06
3.511e-06
1.89077e-05
5.52281e-05
6.48344e-05
7.78001e-05
9.86189e-05
0.000158866
0.000190488
0.00019045
0.000190496
0.00019045
0.000150439
0.000103145
5.09137e-05
3.4924e-05
4.8256e-05
5.31127e-05
5.31101e-05
3.18775e-05
5.17706e-06
3.42048e-09
2.06857e-09
3.15053e-09
2.10007e-09
9.6552e-10
9.21671e-10
1.36115e-09
4.32056e-09
2.02841e-08
9.5465e-08
3.16767e-07
5.65048e-07
5.81857e-07
4.51363e-07
1.84142e-07
1.27243e-08
9.45586e-13
9.37908e-13
1.11376e-12
1.30515e-12
1.0436e-12
2.67235e-13
2.59069e-17
-1.82356e-36
-2.10247e-34
-1.99397e-34
-1.33551e-34
-7.35644e-35
-3.48472e-35
-1.45231e-35
-5.39895e-36
-1.80654e-36
-5.47629e-37
-1.51147e-37
-3.81377e-38
-8.82757e-39
-1.87994e-39
-3.69295e-40
-6.70648e-41
-1.12818e-41
-1.76111e-42
-2.55502e-43
-3.44988e-44
-4.34067e-45
-5.0949e-46
-5.58442e-47
-5.72108e-48
-5.48266e-49
-4.91854e-50
-4.13337e-51
-3.25578e-52
-2.40504e-53
-1.66694e-54
-1.08451e-55
-6.62574e-57
-3.80255e-58
-2.05064e-59
-1.03943e-60
-4.9534e-62
-2.21975e-63
-9.35577e-65
-3.70939e-66
-1.38368e-67
-4.85661e-69
-1.60414e-70
-4.98662e-72
-1.459e-73
-4.01813e-75
-1.04168e-76
-2.54219e-78
-5.84066e-80
-1.26331e-81
-2.57254e-83
-4.93206e-85
-8.90252e-87
-1.51293e-88
-2.42073e-90
-3.64667e-92
-5.17206e-94
-6.90629e-96
-8.68225e-98
-1.02759e-99
-1.14497e-101
-1.201e-103
-1.18593e-105
-1.10235e-107
-9.64532e-110
-7.94376e-112
-6.15786e-114
-4.4927e-116
-3.08486e-118
-1.99338e-120
-1.21212e-122
-6.93547e-125
-3.73378e-127
-1.8912e-129
-9.0117e-132
-4.03948e-134
-1.70316e-136
-6.75404e-139
-2.51889e-141
-8.83381e-144
-2.91296e-146
-9.03036e-149
-2.63125e-151
-7.20447e-154
5.57984e-05
2.72485e-05
2.58118e-05
6.44772e-05
0.000440683
0.000573281
0.000253225
3.45706e-05
2.10377e-06
2.10377e-06
2.38535e-06
6.6808e-06
3.76506e-05
9.61562e-05
8.27951e-05
3.97663e-05
1.6995e-05
1.53732e-05
1.61147e-05
1.62992e-05
1.57132e-05
1.37932e-05
1.00918e-05
4.86318e-06
3.51441e-06
6.52077e-06
6.00632e-05
0.000139825
0.000139814
0.000139825
9.7998e-05
7.74251e-05
0.000116373
0.000179072
0.000159765
7.86492e-05
2.7733e-05
2.33257e-05
1.93151e-05
2.08017e-05
3.42909e-05
4.06629e-05
3.02569e-05
5.14772e-06
5.79757e-09
1.1966e-08
2.52377e-08
1.46471e-08
1.52118e-09
6.57979e-10
7.37793e-10
1.36419e-09
5.43338e-09
3.00469e-08
1.50082e-07
3.79778e-07
4.12481e-07
2.78624e-07
9.12583e-08
2.21791e-09
2.68981e-11
1.94299e-11
1.018e-11
1.7724e-12
5.95824e-15
5.82489e-15
1.56401e-15