/*--------------------------------*- C++ -*----------------------------------*\
| =========                 |                                                 |
| \\      /  F ield         | OpenFOAM: The Open Source CFD Toolbox           |
|  \\    /   O peration     | Version:  v1912                                 |
|   \\  /    A nd           | Website:  www.openfoam.com                      |
|    \\/     M anipulation  |                                                 |
\*---------------------------------------------------------------------------*/
FoamFile
{
    version     2.0;
    format      ascii;
    class       volScalarField;
    location    "40";
    object      p_rgh;
}
// * * * * * * * * * * * * * * * * * * * * * * * * * * * * * * * * * * * * * //

dimensions      [1 -1 -2 0 0 0 0];


internalField   nonuniform List<scalar> 
14268
(
14.1821
13.5046
13.3345
13.3504
16.2529
16.6608
16.4258
16.906
18.7398
22.4858
29.2073
41.0431
59.1514
72.985
73.7095
73.9219
74.2395
63.5269
34.8085
26.8164
24.8991
28.953
29.3623
29.6151
26.9772
24.0039
22.3731
22.5846
22.8171
22.7666
19.8811
17.9039
18.1016
18.2869
17.8677
16.0069
13.9138
13.8425
13.8947
13.2991
10.1679
7.10082
5.68496
4.96871
4.4037
3.94623
3.57333
3.26187
3.02901
2.86991
2.78872
2.7577
2.7668
2.7594
2.62001
2.09466
1.05626
0.429431
0.410368
0.429332
0.445512
0.458246
0.469014
0.477871
0.484554
0.488875
0.490957
0.491138
0.489658
0.486661
0.482369
0.476998
0.470675
0.463526
0.455671
0.447217
0.43826
0.428888
0.419177
0.409195
0.399005
0.388658
0.378203
0.367688
0.35715
0.34662
0.336135
0.325716
0.315396
0.305184
0.295114
0.28518
0.275427
0.265826
0.25644
0.247209
0.238227
0.229393
0.220843
0.212422
0.20432
0.196322
0.188674
0.181107
0.173909
0.16678
0.160016
0.153335
0.146978
0.140758
0.134773
0.129026
0.12338
0.118106
0.112773
0.107958
0.102931
0.0985398
0.0938284
0.0898057
0.0854353
0.0817174
0.0777124
0.0742445
0.0706123
0.067363
0.0640832
0.0610508
0.0580768
0.0552799
0.0525545
0.0500133
0.047489
0.0452066
0.04286
0.0408143
0.0386467
0.036798
0.0348221
0.0331293
0.0313529
0.0297875
0.0282035
0.0267543
0.0253421
0.0240089
0.022743
0.0215281
0.0203862
0.0192882
25.5437
22.437
19.3766
14.2537
8.48481
7.17692
7.19287
7.36249
5.84701
6.54964
7.88902
9.52263
14.1475
21.6941
32.4689
45.8283
56.4439
57.6975
58.118
41.4172
21.5616
16.4231
16.6163
17.0362
16.7421
16.0871
15.0218
15.2056
16.4668
16.7692
16.4645
15.5667
14.5384
13.1862
11.5099
9.76643
8.46519
8.67092
9.62901
9.65086
8.46019
6.11118
3.97905
2.50229
1.56098
0.986487
0.678501
0.516592
0.477066
0.473718
0.516045
0.563751
0.627085
0.712881
0.847861
1.02897
1.06582
0.811815
0.49582
0.429387
0.445543
0.458272
0.469035
0.477887
0.484566
0.488882
0.49096
0.491137
0.489653
0.486654
0.48236
0.476986
0.470661
0.463511
0.455654
0.447199
0.438241
0.428868
0.419156
0.409174
0.398983
0.388636
0.378181
0.367666
0.357128
0.346598
0.336114
0.325695
0.315375
0.305163
0.295093
0.28516
0.275407
0.265806
0.256421
0.24719
0.238209
0.229375
0.220825
0.212405
0.204303
0.196305
0.188658
0.181091
0.173894
0.166765
0.160002
0.153322
0.146965
0.140746
0.134761
0.129014
0.123368
0.118095
0.112762
0.107948
0.102921
0.0985305
0.0938192
0.0897971
0.0854269
0.0817094
0.0777047
0.0742371
0.0706052
0.0673562
0.0640767
0.0610445
0.0580708
0.0552742
0.052549
0.0500082
0.047484
0.0452018
0.0428554
0.04081
0.0386425
0.0367941
0.0348183
0.0331257
0.0313494
0.0297842
0.0282004
0.0267513
0.0253392
0.0240062
0.0227404
0.0215256
0.0203839
0.019286
36.0707
35.9386
36.0269
35.0487
29.0866
23.1499
17.7223
6.06376
1.93302
2.12969
2.68714
3.25226
5.29472
7.93396
9.31964
10.4665
12.2885
20.5396
38.5285
41.7661
42.1426
37.8072
18.6225
9.08734
9.09267
9.08143
9.34251
9.45759
9.44374
9.03687
8.5545
8.67706
8.76414
8.47384
7.17655
5.57894
4.51031
4.4912
4.76374
5.04329
4.8881
4.16864
3.03333
1.65463
0.585553
0.460596
0.406616
0.383841
0.400877
0.432564
0.476004
0.524832
0.593821
0.597965
0.603845
0.651286
0.753415
0.790755
0.640375
0.466098
0.445577
0.458299
0.469057
0.477905
0.484578
0.48889
0.490963
0.491136
0.489649
0.486646
0.48235
0.476974
0.470647
0.463495
0.455637
0.44718
0.438222
0.428848
0.419136
0.409153
0.398962
0.388614
0.378159
0.367644
0.357106
0.346576
0.336092
0.325673
0.315353
0.305141
0.295072
0.285139
0.275387
0.265787
0.256401
0.247171
0.23819
0.229357
0.220807
0.212387
0.204286
0.196289
0.188643
0.181076
0.173879
0.166751
0.159988
0.153308
0.146951
0.140733
0.134749
0.129002
0.123357
0.118084
0.112752
0.107938
0.102911
0.0985211
0.09381
0.0897883
0.0854184
0.0817014
0.0776969
0.0742296
0.0705981
0.0673493
0.0640701
0.0610382
0.0580648
0.0552684
0.0525435
0.0500029
0.0474789
0.0451971
0.0428507
0.0408056
0.0386382
0.0367901
0.0348145
0.033122
0.0313459
0.0297809
0.0281972
0.0267482
0.0253364
0.0240035
0.0227378
0.0215232
0.0203816
0.0192838
31.1033
18.0421
16.685
33.1467
39.902
40.2717
24.7682
11.8392
5.43595
1.60356
1.42864
1.69972
2.25894
2.90178
2.75984
2.3724
2.3279
5.0157
14.7596
23.5969
27.183
29.8132
31.618
28.7708
14.8661
6.1063
5.93787
6.26962
6.42003
5.84881
4.36186
4.02682
4.53487
4.77426
4.34418
3.21202
2.5254
2.34829
2.3523
2.38586
2.35691
2.20762
1.9108
1.22533
0.952705
0.943982
0.978445
0.96426
0.903072
0.810753
0.962501
1.01103
0.778812
0.569092
0.484421
0.513546
0.548139
0.58161
0.598431
0.528771
0.456204
0.458328
0.469081
0.477922
0.484591
0.488898
0.490967
0.491136
0.489645
0.486639
0.48234
0.476962
0.470633
0.46348
0.45562
0.447162
0.438203
0.428828
0.419115
0.409132
0.39894
0.388592
0.378137
0.367622
0.357084
0.346554
0.33607
0.325651
0.315332
0.30512
0.295051
0.285118
0.275366
0.265766
0.256381
0.247152
0.238171
0.229338
0.22079
0.21237
0.204269
0.196272
0.188627
0.18106
0.173864
0.166736
0.159973
0.153294
0.146938
0.14072
0.134736
0.12899
0.123345
0.118073
0.112741
0.107928
0.102901
0.0985115
0.0938007
0.0897795
0.0854098
0.0816932
0.0776891
0.074222
0.0705909
0.0673423
0.0640635
0.0610318
0.0580587
0.0552626
0.0525378
0.0499976
0.0474737
0.0451922
0.042846
0.0408012
0.0386339
0.036786
0.0348106
0.0331183
0.0313424
0.0297775
0.028194
0.0267452
0.0253335
0.0240007
0.0227352
0.0215207
0.0203792
0.0192815
24.4243
10.5068
5.87545
7.33029
16.1252
17.7281
17.6885
26.4573
29.8463
21.6963
7.25138
2.09914
2.00008
1.97589
1.71703
1.40306
1.19409
1.22587
2.49143
3.18852
3.45343
5.46549
11.3299
14.1926
13.9878
11.0404
6.05127
5.08701
6.08813
4.58786
2.56333
2.64065
2.74299
2.90135
2.60023
1.87696
1.45496
1.3657
1.29749
1.189
1.09059
1.01381
0.966235
1.42489
1.49161
1.4222
1.37601
1.36064
1.3744
1.35311
1.08578
0.681362
0.435011
0.361467
0.391459
0.43774
0.477726
0.498837
0.500051
0.488765
0.469122
0.459674
0.469105
0.477941
0.484605
0.488907
0.490972
0.491136
0.489641
0.486632
0.48233
0.47695
0.470619
0.463464
0.455603
0.447144
0.438183
0.428807
0.419094
0.40911
0.398918
0.38857
0.378115
0.3676
0.357061
0.346532
0.336047
0.325629
0.31531
0.305098
0.29503
0.285097
0.275346
0.265746
0.256362
0.247132
0.238152
0.22932
0.220771
0.212352
0.204252
0.196256
0.18861
0.181044
0.173849
0.166721
0.159959
0.15328
0.146925
0.140707
0.134724
0.128978
0.123333
0.118062
0.11273
0.107918
0.102891
0.0985019
0.0937914
0.0897706
0.0854012
0.0816849
0.0776812
0.0742143
0.0705836
0.0673353
0.0640568
0.0610253
0.0580525
0.0552567
0.0525322
0.0499923
0.0474685
0.0451874
0.0428412
0.0407967
0.0386296
0.0367819
0.0348067
0.0331146
0.0313389
0.0297741
0.0281908
0.0267421
0.0253306
0.0239979
0.0227325
0.0215181
0.0203768
0.0192792
12.6909
6.38389
4.7585
4.60314
4.64491
5.01437
29.6931
53.505
66.6921
68.5073
45.7387
27.3587
8.22754
1.71887
1.48338
1.26639
1.12196
1.02654
0.982928
1.00049
1.03554
1.18046
2.00349
2.62152
2.74257
2.58145
2.31673
2.56874
4.58544
5.58769
5.61845
4.1917
2.02662
1.57063
1.62436
1.28757
1.06816
1.05487
1.01446
0.925749
0.854107
0.832946
0.741513
0.989166
1.37843
1.21353
0.789004
0.423991
0.358158
0.395937
0.443621
0.38165
0.328595
0.323903
0.35254
0.384796
0.43027
0.459611
0.464647
0.450197
0.447342
0.458424
0.46913
0.477961
0.484619
0.488917
0.490977
0.491137
0.489637
0.486625
0.48232
0.476938
0.470605
0.463448
0.455585
0.447125
0.438163
0.428787
0.419073
0.409089
0.398896
0.388548
0.378092
0.367577
0.357038
0.346509
0.336025
0.325607
0.315288
0.305076
0.295008
0.285076
0.275325
0.265726
0.256342
0.247113
0.238133
0.229301
0.220753
0.212334
0.204235
0.196239
0.188594
0.181028
0.173833
0.166706
0.159945
0.153266
0.146911
0.140694
0.134711
0.128966
0.123321
0.11805
0.112719
0.107907
0.10288
0.0984921
0.0937819
0.0897615
0.0853926
0.0816765
0.0776732
0.0742066
0.0705763
0.0673281
0.0640501
0.0610188
0.0580463
0.0552508
0.0525264
0.0499868
0.0474632
0.0451824
0.0428364
0.0407922
0.0386253
0.0367778
0.0348027
0.0331108
0.0313353
0.0297706
0.0281876
0.0267389
0.0253276
0.0239951
0.0227299
0.0215156
0.0203743
0.0192769
8.19598
7.90426
4.8396
5.81333
6.86398
9.13574
52.6999
74.9893
87.5876
88.8957
89.6213
79.5772
40.2947
6.25112
3.05765
5.01192
6.02602
5.11696
4.40733
4.99804
5.17723
4.61577
3.03988
1.61602
0.977345
0.916431
0.882715
1.02904
2.19887
5.52762
5.95892
6.06373
3.88643
1.70692
1.8602
2.30963
2.21448
1.53465
0.98104
0.888291
0.820882
0.769077
0.710647
0.67671
0.845804
0.60987
0.280232
0.182575
0.208424
0.292298
0.432844
0.56679
0.610255
0.573086
0.420886
0.369543
0.394949
0.428979
0.448937
0.446475
0.446573
0.45842
0.469156
0.477981
0.484634
0.488927
0.490982
0.491138
0.489633
0.486618
0.482311
0.476926
0.470591
0.463432
0.455568
0.447106
0.438144
0.428766
0.419051
0.409067
0.398874
0.388525
0.378069
0.367554
0.357015
0.346486
0.336002
0.325584
0.315265
0.305054
0.294986
0.285055
0.275304
0.265705
0.256321
0.247093
0.238114
0.229282
0.220735
0.212316
0.204217
0.196222
0.188577
0.181012
0.173818
0.166691
0.15993
0.153252
0.146897
0.140681
0.134698
0.128954
0.123309
0.118039
0.112708
0.107896
0.10287
0.0984823
0.0937724
0.0897523
0.0853838
0.081668
0.0776652
0.0741987
0.0705689
0.0673209
0.0640433
0.0610122
0.05804
0.0552448
0.0525207
0.0499814
0.0474579
0.0451774
0.0428316
0.0407876
0.0386209
0.0367736
0.0347988
0.0331069
0.0313317
0.0297671
0.0281843
0.0267358
0.0253246
0.0239922
0.0227271
0.021513
0.0203719
0.0192746
16.1768
6.55101
15.8819
15.7534
19.7501
26.4499
19.1016
13.1715
14.0748
55.5923
90.1699
91.1599
83.2551
25.9039
11.9519
15.453
16.893
14.5057
13.3082
11.6956
11.4348
11.1854
8.62762
5.86945
3.67233
1.3759
0.866447
0.897048
1.07008
2.48485
4.48918
4.81737
4.86955
2.84847
3.10933
4.39769
4.36359
2.85199
1.26867
0.879535
0.812986
0.763155
0.707483
0.62667
0.557608
0.299417
0.105489
0.0739694
0.0923027
0.149023
0.294727
0.599869
0.715394
0.751187
0.679263
0.470174
0.386938
0.407975
0.434339
0.447558
0.449402
0.458453
0.469182
0.478001
0.48465
0.488938
0.490988
0.491139
0.48963
0.486611
0.482301
0.476914
0.470577
0.463416
0.45555
0.447087
0.438124
0.428745
0.41903
0.409045
0.398851
0.388502
0.378046
0.367531
0.356992
0.346463
0.335979
0.325561
0.315243
0.305032
0.294965
0.285033
0.275283
0.265684
0.256301
0.247073
0.238094
0.229263
0.220716
0.212298
0.2042
0.196205
0.188561
0.180996
0.173802
0.166676
0.159915
0.153238
0.146883
0.140668
0.134685
0.128941
0.123297
0.118027
0.112696
0.107886
0.10286
0.0984723
0.0937629
0.0897431
0.085375
0.0816594
0.0776571
0.0741908
0.0705614
0.0673137
0.0640364
0.0610056
0.0580337
0.0552387
0.0525148
0.0499758
0.0474526
0.0451723
0.0428267
0.040783
0.0386165
0.0367693
0.0347948
0.033103
0.0313281
0.0297636
0.028181
0.0267326
0.0253216
0.0239893
0.0227244
0.0215104
0.0203694
0.0192722
27.6665
6.55794
11.2148
28.3464
28.6023
28.7491
15.9987
12.947
13.1568
20.6721
45.299
48.274
38.4156
36.9002
27.5407
26.7516
26.4056
22.136
13.7448
5.02196
2.02291
2.18998
3.5274
6.46764
6.66149
4.81249
1.45623
0.884217
0.912039
0.958219
1.4342
2.18637
2.69058
4.40563
5.41106
5.48887
5.58466
4.53345
1.9727
0.92209
0.822443
0.757749
0.776376
0.758686
0.542988
0.177987
0.0800963
0.0540531
0.0690288
0.100992
0.15198
0.23267
0.4377
0.665851
0.720979
0.660713
0.472833
0.402204
0.422566
0.443466
0.453672
0.459292
0.46921
0.478023
0.484666
0.488949
0.490995
0.49114
0.489627
0.486604
0.482292
0.476902
0.470562
0.4634
0.455533
0.447068
0.438104
0.428724
0.419008
0.409022
0.398829
0.388479
0.378023
0.367508
0.356969
0.34644
0.335956
0.325538
0.31522
0.30501
0.294942
0.285011
0.275261
0.265663
0.25628
0.247053
0.238075
0.229244
0.220697
0.21228
0.204182
0.196187
0.188544
0.18098
0.173786
0.166661
0.1599
0.153224
0.146869
0.140654
0.134672
0.128929
0.123285
0.118016
0.112685
0.107875
0.102849
0.0984622
0.0937533
0.0897337
0.0853662
0.0816507
0.0776489
0.0741828
0.0705539
0.0673063
0.0640295
0.0609989
0.0580273
0.0552326
0.052509
0.0499702
0.0474472
0.0451672
0.0428218
0.0407783
0.038612
0.036765
0.0347907
0.0330991
0.0313244
0.02976
0.0281777
0.0267293
0.0253186
0.0239864
0.0227216
0.0215077
0.0203669
0.0192698
39.374
9.06954
6.71502
13.646
20.1474
21.9431
42.1257
44.1953
35.4053
25.7741
16.5995
16.2298
16.5084
34.1509
38.5348
36.1928
15.6994
2.82911
0.636545
0.543418
0.562265
0.57057
0.617487
0.953106
2.57243
3.96662
2.20214
0.927794
0.893835
0.899245
0.900735
1.0402
1.32326
2.38247
3.44704
3.3528
3.47867
3.62829
2.53613
1.10613
0.8267
1.1768
1.28191
1.2138
0.56241
0.142701
0.0753863
0.0497196
0.0646003
0.0958439
0.142153
0.194316
0.255232
0.362188
0.585175
0.66175
0.58809
0.450692
0.415057
0.434524
0.451007
0.461077
0.469418
0.478045
0.484683
0.488961
0.491001
0.491142
0.489624
0.486597
0.482282
0.47689
0.470548
0.463384
0.455515
0.447049
0.438083
0.428703
0.418986
0.409
0.398806
0.388456
0.378
0.367484
0.356945
0.346416
0.335933
0.325515
0.315197
0.304987
0.29492
0.284989
0.27524
0.265642
0.25626
0.247033
0.238055
0.229224
0.220678
0.212262
0.204164
0.19617
0.188527
0.180964
0.17377
0.166645
0.159885
0.153209
0.146855
0.140641
0.134659
0.128916
0.123273
0.118004
0.112674
0.107864
0.102839
0.098452
0.0937436
0.0897242
0.0853572
0.0816419
0.0776407
0.0741747
0.0705464
0.0672989
0.0640225
0.0609921
0.0580209
0.0552264
0.052503
0.0499646
0.0474418
0.0451621
0.0428169
0.0407736
0.0386076
0.0367607
0.0347867
0.0330951
0.0313208
0.0297564
0.0281743
0.0267261
0.0253155
0.0239835
0.0227188
0.0215051
0.0203643
0.0192675
8.81655
7.80829
4.19212
3.504
5.95453
7.16946
62.8017
63.5371
48.1604
25.8969
17.2782
16.3237
35.7851
53.9946
49.027
27.1833
6.29526
0.714895
0.535633
0.519147
0.539448
0.544425
0.580474
0.660259
1.35886
3.15136
2.97123
1.23222
0.877392
0.879593
0.944223
1.05433
1.12802
1.32554
1.41487
1.61959
2.04177
2.74033
2.26842
1.24198
0.821398
0.834644
1.29018
1.21625
0.470099
0.1315
0.0722509
0.0467878
0.0617142
0.0927941
0.138738
0.189363
0.24276
0.299912
0.376718
0.513169
0.582568
0.525513
0.437444
0.430491
0.446971
0.459592
0.469654
0.47808
0.4847
0.488973
0.491009
0.491144
0.489621
0.486591
0.482273
0.476878
0.470534
0.463367
0.455497
0.44703
0.438063
0.428682
0.418964
0.408977
0.398783
0.388433
0.377976
0.36746
0.356922
0.346393
0.335909
0.325492
0.315174
0.304964
0.294897
0.284967
0.275218
0.265621
0.256239
0.247012
0.238035
0.229205
0.220659
0.212243
0.204146
0.196152
0.18851
0.180947
0.173754
0.16663
0.15987
0.153195
0.146841
0.140627
0.134646
0.128903
0.12326
0.117992
0.112662
0.107853
0.102828
0.0984417
0.0937338
0.0897146
0.0853483
0.0816331
0.0776325
0.0741666
0.0705387
0.0672914
0.0640154
0.0609853
0.0580144
0.0552202
0.0524971
0.0499589
0.0474363
0.0451569
0.0428119
0.0407688
0.038603
0.0367563
0.0347826
0.0330911
0.031317
0.0297527
0.0281709
0.0267228
0.0253124
0.0239805
0.022716
0.0215024
0.0203618
0.019265
4.82132
8.66034
2.64427
2.30603
2.29345
6.75284
39.7749
17.1741
2.02019
4.64005
21.0513
37.5847
65.7379
65.7628
66.2145
27.6247
2.65977
0.553369
0.486363
0.497398
0.522452
0.512881
0.548959
0.600198
1.04517
2.40184
2.621
1.85465
0.864009
0.861088
1.3059
1.79625
1.52074
1.29945
2.01534
3.18478
3.08638
3.14722
3.06001
1.98339
0.933754
0.820438
1.0837
0.852563
0.325164
0.128128
0.0691841
0.0437694
0.0587515
0.0899169
0.135921
0.18617
0.237767
0.291477
0.349816
0.405785
0.469176
0.509074
0.47814
0.437067
0.445967
0.458756
0.469422
0.478125
0.484718
0.488986
0.491016
0.491147
0.489618
0.486584
0.482263
0.476866
0.470519
0.463351
0.455479
0.44701
0.438042
0.42866
0.418942
0.408954
0.398759
0.388409
0.377952
0.367437
0.356898
0.346369
0.335885
0.325468
0.315151
0.304941
0.294875
0.284945
0.275196
0.265599
0.256217
0.246991
0.238014
0.229185
0.22064
0.212224
0.204127
0.196135
0.188492
0.18093
0.173738
0.166614
0.159855
0.15318
0.146827
0.140613
0.134632
0.128891
0.123248
0.11798
0.112651
0.107842
0.102818
0.0984312
0.093724
0.0897049
0.0853392
0.0816241
0.0776241
0.0741583
0.070531
0.0672838
0.0640083
0.0609784
0.0580078
0.0552139
0.052491
0.0499532
0.0474308
0.0451516
0.0428069
0.0407639
0.0385985
0.0367518
0.0347785
0.0330871
0.0313133
0.0297491
0.0281675
0.0267195
0.0253093
0.0239775
0.0227132
0.0214997
0.0203592
0.0192626
3.33183
8.66833
5.79609
2.29741
2.18654
17.7783
32.0538
14.0189
1.41323
1.88621
6.01968
33.0534
60.7834
66.2094
53.7801
22.1009
1.97527
0.519586
0.464401
0.465486
0.491191
0.494968
0.526105
0.543374
1.04946
2.10299
1.78632
1.06808
0.847285
0.895967
2.08027
2.9936
2.37795
1.79572
3.29923
5.40892
4.52503
3.86508
3.92881
3.87065
1.96301
0.815491
0.562509
0.485418
0.250342
0.125257
0.0666825
0.041402
0.0564075
0.0875159
0.133546
0.183664
0.233687
0.283552
0.340477
0.390793
0.421383
0.445418
0.45765
0.449016
0.446738
0.458647
0.469344
0.478126
0.484739
0.488999
0.491024
0.491149
0.489616
0.486578
0.482254
0.476854
0.470505
0.463335
0.455461
0.446991
0.438021
0.428639
0.418919
0.408931
0.398736
0.388385
0.377928
0.367412
0.356874
0.346345
0.335861
0.325444
0.315127
0.304918
0.294852
0.284922
0.275174
0.265577
0.256196
0.246971
0.237994
0.229165
0.220621
0.212205
0.204109
0.196117
0.188475
0.180913
0.173721
0.166598
0.159839
0.153165
0.146812
0.140599
0.134619
0.128878
0.123235
0.117968
0.112639
0.10783
0.102807
0.0984207
0.0937141
0.0896952
0.0853301
0.0816151
0.0776157
0.07415
0.0705233
0.0672762
0.0640012
0.0609714
0.0580012
0.0552075
0.0524849
0.0499474
0.0474252
0.0451463
0.0428019
0.040759
0.0385939
0.0367474
0.0347743
0.033083
0.0313095
0.0297454
0.0281641
0.0267161
0.0253062
0.0239745
0.0227103
0.021497
0.0203566
0.0192602
3.04341
7.55838
7.47409
5.37289
2.24315
31.8179
29.4747
9.75872
0.74253
0.971494
2.10218
4.16787
20.0219
51.3738
39.4413
15.2555
1.31424
0.475509
0.427744
0.438612
0.466262
0.471113
0.501424
0.514934
0.80958
2.07015
2.02685
1.32219
0.842418
1.19232
3.40231
6.45236
6.40988
6.3649
7.92537
8.32754
5.91885
3.82377
3.87225
3.88558
3.83032
2.1005
0.686354
0.328342
0.20931
0.122299
0.0640958
0.0388546
0.0539511
0.0851483
0.131353
0.181625
0.231134
0.277527
0.331165
0.381135
0.411162
0.427046
0.429566
0.433358
0.445984
0.458685
0.469365
0.478143
0.484757
0.489014
0.491033
0.491152
0.489613
0.486571
0.482245
0.476842
0.470491
0.463318
0.455442
0.446971
0.438
0.428617
0.418896
0.408908
0.398712
0.388361
0.377904
0.367388
0.356849
0.34632
0.335837
0.32542
0.315103
0.304894
0.294829
0.2849
0.275151
0.265555
0.256175
0.24695
0.237973
0.229145
0.220601
0.212186
0.20409
0.196099
0.188457
0.180896
0.173705
0.166582
0.159824
0.15315
0.146798
0.140585
0.134605
0.128865
0.123223
0.117956
0.112627
0.107819
0.102796
0.09841
0.0937042
0.0896853
0.085321
0.0816059
0.0776073
0.0741416
0.0705155
0.0672685
0.063994
0.0609644
0.0579945
0.0552011
0.0524788
0.0499415
0.0474196
0.0451409
0.0427968
0.0407541
0.0385893
0.0367428
0.0347702
0.0330788
0.0313057
0.0297416
0.0281606
0.0267127
0.025303
0.0239714
0.0227074
0.0214942
0.020354
0.0192577
2.92683
3.53591
6.26743
8.18164
5.95184
32.0871
22.4164
5.78718
0.604186
0.823663
1.32847
2.46532
8.13727
19.7845
18.0534
8.15129
1.20336
0.476719
0.475758
0.52024
0.538259
0.483546
0.473707
0.485393
0.499809
1.38419
3.41201
3.96944
4.73017
5.97117
9.5603
11.5721
11.7157
11.84
12.014
9.7702
7.02131
3.83714
2.82183
3.60055
3.85119
3.81621
2.42805
0.636203
0.203295
0.11889
0.0609854
0.0358386
0.0508416
0.0819923
0.128396
0.17908
0.228704
0.272413
0.32173
0.370911
0.401643
0.418915
0.423027
0.430484
0.445976
0.458753
0.469416
0.478182
0.484787
0.489035
0.491046
0.491157
0.48961
0.486562
0.482231
0.476824
0.470469
0.463293
0.455415
0.446941
0.437969
0.428583
0.418862
0.408873
0.398676
0.388325
0.377867
0.367351
0.356812
0.346284
0.3358
0.325384
0.315067
0.304859
0.294794
0.284865
0.275117
0.265522
0.256142
0.246918
0.237942
0.229115
0.220571
0.212157
0.204062
0.196071
0.188431
0.180871
0.173679
0.166558
0.1598
0.153127
0.146776
0.140564
0.134585
0.128845
0.123204
0.117937
0.11261
0.107802
0.10278
0.0983939
0.0936891
0.0896703
0.0853071
0.081592
0.0775945
0.0741288
0.0705037
0.0672569
0.063983
0.0609537
0.0579845
0.0551914
0.0524695
0.0499326
0.0474112
0.0451328
0.0427891
0.0407466
0.0385824
0.036736
0.0347638
0.0330726
0.0313
0.0297359
0.0281554
0.0267076
0.0252982
0.0239668
0.022703
0.0214901
0.02035
0.0192539
3.61715
2.36279
2.22142
3.80839
20.7865
27.0905
12.2496
2.02199
0.475134
0.579046
0.793786
1.30695
3.16961
6.09729
5.21487
2.67984
1.18379
0.991308
1.02202
1.07017
1.07649
0.982008
0.806149
0.531722
0.4632
0.667848
3.70741
8.28304
8.33578
8.41389
6.07013
4.98032
7.40321
11.2573
10.2557
5.45251
2.40743
2.13021
1.84611
1.88449
2.68184
3.04675
2.33735
0.633088
0.19876
0.114983
0.0580721
0.0323733
0.0467284
0.0779005
0.124664
0.176015
0.226094
0.267193
0.309882
0.357866
0.389658
0.40661
0.416414
0.429822
0.446069
0.458848
0.469489
0.478238
0.484829
0.489066
0.491065
0.491165
0.489607
0.48655
0.482213
0.4768
0.47044
0.463259
0.455377
0.446901
0.437926
0.428539
0.418816
0.408825
0.398627
0.388275
0.377817
0.367301
0.356762
0.346234
0.335751
0.325335
0.315018
0.30481
0.294746
0.284818
0.275072
0.265477
0.256098
0.246875
0.2379
0.229074
0.220531
0.212118
0.204024
0.196034
0.188395
0.180836
0.173645
0.166525
0.159768
0.153097
0.146746
0.140535
0.134557
0.128818
0.123178
0.117912
0.112586
0.107778
0.102757
0.0983722
0.0936686
0.0896501
0.0852882
0.0815734
0.0775771
0.0741116
0.0704876
0.0672411
0.0639682
0.0609393
0.0579707
0.0551783
0.0524569
0.0499207
0.0473996
0.0451218
0.0427786
0.0407365
0.0385728
0.0367267
0.0347552
0.0330641
0.0312922
0.0297282
0.0281482
0.0267006
0.0252917
0.0239606
0.0226971
0.0214844
0.0203446
0.0192489
6.2258
4.92033
1.94118
1.69357
11.9771
13.4317
5.31353
0.813305
0.532357
0.671852
0.874674
1.10113
1.69865
2.15466
2.01289
1.62624
1.75332
1.84254
1.82884
1.79783
1.77352
1.69081
1.52821
1.1948
0.641369
0.605399
1.43256
4.60444
7.1318
5.88627
2.4727
1.46414
2.65073
5.19148
4.54933
2.51102
1.37874
1.36831
1.32759
1.07078
1.1165
1.21362
0.930385
0.388934
0.195483
0.114109
0.0599787
0.0319552
0.0432667
0.0741835
0.12122
0.173259
0.224301
0.265008
0.302942
0.348086
0.386351
0.399609
0.411932
0.429771
0.446169
0.458955
0.469569
0.478297
0.484874
0.489098
0.491086
0.491174
0.489604
0.486538
0.482195
0.476775
0.47041
0.463226
0.45534
0.44686
0.437882
0.428493
0.418768
0.408776
0.398578
0.388225
0.377766
0.36725
0.356711
0.346183
0.3357
0.325285
0.314969
0.304761
0.294698
0.284771
0.275025
0.265431
0.256053
0.246831
0.237857
0.229032
0.22049
0.212078
0.203985
0.195997
0.188358
0.1808
0.173611
0.166492
0.159735
0.153065
0.146715
0.140506
0.134528
0.12879
0.123151
0.117887
0.112561
0.107754
0.102735
0.09835
0.0936477
0.0896295
0.085269
0.0815543
0.0775594
0.074094
0.0704713
0.067225
0.0639531
0.0609247
0.0579568
0.0551649
0.0524441
0.0499084
0.0473879
0.0451106
0.0427679
0.0407263
0.0385632
0.0367173
0.0347465
0.0330555
0.0312842
0.0297204
0.028141
0.0266936
0.025285
0.0239542
0.022691
0.0214787
0.0203391
0.0192437
7.29569
6.08196
2.59904
0.908411
4.60282
4.43821
1.43719
0.381778
0.455133
0.691872
0.965075
1.20518
1.47029
1.45274
1.44223
2.39565
3.24125
3.15726
2.82747
2.51781
2.52544
2.56901
2.52454
2.19309
1.43965
0.646136
0.626694
1.55706
2.60221
1.91231
1.06793
1.13019
1.23095
1.41421
1.28333
1.10521
1.07597
1.06387
0.976892
0.729554
0.566534
0.460659
0.386313
0.292305
0.19308
0.119055
0.0718945
0.0381218
0.0403687
0.0704461
0.117806
0.17059
0.222681
0.263877
0.299851
0.338416
0.38158
0.409584
0.423774
0.432296
0.446261
0.459055
0.469647
0.47836
0.484923
0.489133
0.491108
0.491184
0.489602
0.486527
0.482177
0.476751
0.47038
0.463191
0.455301
0.446818
0.437838
0.428447
0.41872
0.408727
0.398527
0.388174
0.377715
0.367198
0.356659
0.346131
0.335649
0.325234
0.314918
0.304712
0.294649
0.284722
0.274977
0.265385
0.256007
0.246786
0.237813
0.228989
0.220449
0.212038
0.203946
0.195959
0.188321
0.180764
0.173576
0.166458
0.159702
0.153034
0.146684
0.140476
0.134499
0.128763
0.123124
0.117861
0.112536
0.10773
0.102712
0.0983275
0.0936266
0.0896086
0.0852496
0.0815349
0.0775415
0.0740762
0.0704548
0.0672086
0.0639378
0.0609097
0.0579426
0.0551513
0.052431
0.049896
0.0473759
0.0450992
0.0427571
0.0407158
0.0385534
0.0367076
0.0347376
0.0330467
0.0312761
0.0297124
0.0281336
0.0266864
0.0252783
0.0239477
0.0226849
0.0214728
0.0203335
0.0192384
8.03345
3.05293
1.29195
0.901566
1.18435
0.805686
0.444713
0.377329
0.474034
1.15005
1.75124
1.85452
1.73538
1.9321
3.16164
5.5793
5.77766
5.17836
4.05772
3.32826
3.37964
3.59774
3.8024
3.60924
2.62889
1.14904
0.531091
0.89269
0.931223
1.08601
2.48579
2.87346
1.81934
1.02904
1.09159
1.15309
1.17882
1.129
1.0456
0.84501
0.572038
0.439508
0.375798
0.287263
0.193655
0.137517
0.1074
0.0666577
0.0426902
0.0669116
0.114502
0.167968
0.221097
0.263061
0.298793
0.332575
0.373079
0.40979
0.431771
0.438423
0.446776
0.459147
0.469744
0.478425
0.484974
0.48917
0.491132
0.491194
0.4896
0.486516
0.482159
0.476727
0.470351
0.463156
0.455263
0.446776
0.437793
0.4284
0.418672
0.408677
0.398476
0.388122
0.377662
0.367146
0.356607
0.346079
0.335597
0.325182
0.314867
0.304661
0.294599
0.284674
0.274929
0.265338
0.255961
0.246741
0.237769
0.228946
0.220406
0.211997
0.203905
0.19592
0.188282
0.180727
0.173539
0.166423
0.159668
0.153001
0.146652
0.140446
0.13447
0.128734
0.123097
0.117834
0.112511
0.107705
0.102689
0.0983044
0.0936051
0.0895871
0.0852298
0.0815151
0.0775233
0.0740579
0.0704379
0.067192
0.0639222
0.0608946
0.0579283
0.0551375
0.0524178
0.0498834
0.0473639
0.0450876
0.0427461
0.0407051
0.0385434
0.0366978
0.0347286
0.0330377
0.0312679
0.0297043
0.0281261
0.026679
0.0252714
0.0239411
0.0226786
0.0214669
0.0203278
0.0192331
13.448
6.39389
1.99789
0.921153
0.708969
0.495527
0.342034
0.313205
0.302936
0.841104
2.31357
2.77583
2.89479
3.16402
6.17543
10.5774
9.56613
7.46986
5.55845
4.54704
4.53737
4.65303
5.23195
5.41083
4.2263
1.89326
0.523985
0.582774
2.16889
3.7287
3.73991
3.8601
3.07218
1.54102
1.46966
1.63465
1.50619
1.31791
1.24412
1.09862
0.739827
0.460685
0.369681
0.28239
0.197137
0.167268
0.176579
0.131766
0.0627324
0.0649286
0.111184
0.165353
0.219479
0.262312
0.298365
0.331241
0.362828
0.399453
0.428911
0.443082
0.449485
0.459232
0.469864
0.478494
0.485027
0.489209
0.491157
0.491206
0.4896
0.486506
0.482142
0.476703
0.470321
0.463122
0.455224
0.446734
0.437748
0.428353
0.418623
0.408627
0.398425
0.38807
0.37761
0.367093
0.356554
0.346026
0.335544
0.32513
0.314816
0.30461
0.294549
0.284624
0.27488
0.26529
0.255914
0.246695
0.237724
0.228902
0.220363
0.211956
0.203865
0.195881
0.188244
0.180691
0.173504
0.166389
0.159635
0.152969
0.146621
0.140416
0.13444
0.128706
0.12307
0.117808
0.112486
0.107681
0.102665
0.0982812
0.0935836
0.0895655
0.08521
0.0814951
0.077505
0.0740396
0.0704209
0.0671752
0.0639066
0.0608793
0.0579138
0.0551235
0.0524044
0.0498706
0.0473516
0.0450758
0.042735
0.0406943
0.0385334
0.0366879
0.0347195
0.0330286
0.0312596
0.029696
0.0281185
0.0266716
0.0252644
0.0239344
0.0226722
0.0214608
0.020322
0.0192276
19.3496
9.2808
2.70148
1.04234
0.708399
0.519917
0.374951
0.345784
0.352555
0.565613
2.0538
3.78873
5.37408
6.34394
11.1609
13.6666
12.3417
9.27882
7.10137
6.13173
6.02865
5.42383
6.12355
6.93495
5.74014
2.65459
0.611599
0.45423
1.23438
2.34551
3.78732
3.87647
3.88803
3.63735
3.15177
2.41211
1.90338
1.87718
1.7817
1.54311
1.02103
0.529348
0.364505
0.279135
0.214051
0.426719
0.388923
0.230289
0.0952026
0.0839352
0.112534
0.162736
0.217829
0.261538
0.298049
0.330967
0.361408
0.390657
0.419791
0.441933
0.451811
0.459664
0.469992
0.478568
0.485083
0.489249
0.491183
0.491219
0.4896
0.486497
0.482125
0.476679
0.47029
0.463086
0.455183
0.44669
0.437701
0.428303
0.418571
0.408573
0.39837
0.388015
0.377556
0.367037
0.356498
0.34597
0.335489
0.325075
0.314761
0.304557
0.294496
0.284572
0.27483
0.26524
0.255865
0.246648
0.237677
0.228857
0.220319
0.211914
0.203823
0.195841
0.188205
0.180653
0.173467
0.166354
0.1596
0.152936
0.146588
0.140385
0.13441
0.128677
0.123041
0.11778
0.112459
0.107655
0.102641
0.0982572
0.0935615
0.0895433
0.0851896
0.0814745
0.0774862
0.0740207
0.0704035
0.0671579
0.0638903
0.0608634
0.0578987
0.0551091
0.0523907
0.0498574
0.0473391
0.0450637
0.0427236
0.0406831
0.0385231
0.0366776
0.0347101
0.0330193
0.0312511
0.0296876
0.0281107
0.026664
0.0252573
0.0239276
0.0226657
0.0214547
0.020316
0.0192221
24.5182
12.2928
2.88625
0.937286
0.606406
0.311066
0.281779
0.210664
0.0286986
-0.102833
0.277738
2.96733
9.28535
13.5837
13.9209
13.9497
13.2507
8.67846
3.82596
2.1062
2.35576
4.02498
6.69406
7.10517
7.0751
4.18971
0.898783
0.352002
0.472477
0.705251
0.920219
1.49308
3.65768
4.06558
4.13103
3.28562
3.38104
3.80371
3.25457
1.70741
0.785412
0.486755
0.387828
0.470392
0.751175
0.874515
0.823941
0.38403
0.149928
0.167836
0.176238
0.180884
0.213821
0.259482
0.29726
0.330718
0.361041
0.388636
0.413762
0.435133
0.451032
0.461012
0.470348
0.478748
0.485217
0.489348
0.491248
0.491251
0.489605
0.486481
0.482093
0.476632
0.470231
0.463017
0.455107
0.446607
0.437614
0.428213
0.418479
0.408481
0.398278
0.387925
0.37747
0.366946
0.356408
0.345881
0.335402
0.32499
0.314678
0.304476
0.294417
0.284496
0.274756
0.265169
0.255796
0.246581
0.237613
0.228796
0.220259
0.211856
0.203768
0.195789
0.188155
0.180606
0.173421
0.166312
0.15956
0.152898
0.146553
0.140352
0.134379
0.128648
0.123014
0.117755
0.112436
0.107633
0.102622
0.0982379
0.093545
0.0895268
0.0851758
0.0814608
0.0774748
0.0740096
0.0703943
0.0671492
0.0638831
0.060857
0.0578934
0.0551046
0.0523871
0.0498546
0.0473372
0.0450624
0.0427234