/*--------------------------------*- C++ -*----------------------------------*\
| =========                 |                                                 |
| \\      /  F ield         | OpenFOAM: The Open Source CFD Toolbox           |
|  \\    /   O peration     | Version:  v1912                                 |
|   \\  /    A nd           | Website:  www.openfoam.com                      |
|    \\/     M anipulation  |                                                 |
\*---------------------------------------------------------------------------*/
FoamFile
{
    version     2.0;
    format      ascii;
    class       volSymmTensorField;
    location    "40";
    object      R;
}
// * * * * * * * * * * * * * * * * * * * * * * * * * * * * * * * * * * * * * //

dimensions      [0 2 -2 0 0 0 0];


internalField   nonuniform List<symmTensor> 
14268
(
(0.00889355 -0.00148556 0 0.0119162 0 0.00767854)
(0.00681407 -0.000907902 0 0.00844296 0 0.0056876)
(0.00688759 -0.00133977 0 0.008688 0 0.00571306)
(0.00792421 -0.00193811 0 0.012964 0 0.00687631)
(0.00995277 -0.00274525 0 0.0149274 0 0.00851772)
(0.0124918 -0.00274456 0 0.0195004 0 0.0110673)
(0.0166184 -0.0027532 0 0.0296857 0 0.0156247)
(0.0194171 -0.00344784 0 0.0380118 0 0.0189126)
(0.0211083 -0.00465198 0 0.042602 0 0.0206748)
(0.0226535 -0.00543026 0 0.0444432 0 0.0218407)
(0.0229439 -0.00551679 0 0.0439031 0 0.0219983)
(0.0213889 -0.00498028 0 0.039263 0 0.0208877)
(0.0185519 -0.00452384 0 0.0278785 0 0.018081)
(0.0175365 -0.0038662 0 0.0229467 0 0.016861)
(0.0154383 -0.00235858 0 0.0180765 0 0.0150229)
(0.0115183 -0.00183449 0 0.00407839 0 0.0107949)
(0.00897453 -0.000810813 0 0.000714682 0 0.00785658)
(0.0072965 -0.000476872 0 0.00149307 0 0.0061537)
(0.00669919 -0.000582335 0 0.00524939 0 0.0057221)
(0.0069186 -0.000980044 0 0.00608389 0 0.00589605)
(0.00780538 -0.00132166 0 0.00711179 0 0.00664554)
(0.00771225 -0.00123254 0 0.00532874 0 0.00648036)
(0.00810522 -0.00116799 0 0.00255296 0 0.00647088)
(0.00810313 -0.000817783 0 0.000661809 0 0.00623095)
(0.00709907 -0.000429507 0 6.38422e-05 0 0.00536977)
(0.00544464 -0.000210839 0 5.72099e-05 0 0.004111)
(0.00449727 -0.00013341 0 1.30605e-05 0 0.00339176)
(0.00380381 -0.000104735 0 1e-15 0 0.00287068)
(0.00339221 -0.00010632 0 1e-15 0 0.00256387)
(0.00345926 -0.000129119 0 1e-15 0 0.00261189)
(0.00387303 -0.000230163 0 0.000195042 0 0.00292763)
(0.00475808 -0.000377441 0 0.000468849 0 0.00357771)
(0.00472029 -0.000335792 0 0.000360698 0 0.00353954)
(0.00445616 -0.000327882 0 0.000203068 0 0.00332034)
(0.00384038 -0.000311285 0 6.28923e-05 0 0.00288379)
(0.00299975 -0.000262601 0 1.74924e-05 0 0.00229909)
(0.00237567 -0.00019521 0 1.66015e-05 0 0.00185464)
(0.00192552 -0.000118907 0 1.23862e-05 0 0.00151339)
(0.00154974 -6.82736e-05 0 3.02571e-05 0 0.00121107)
(0.00118952 -4.38246e-05 0 3.72603e-05 0 0.000916954)
(0.000829515 -3.84751e-05 0 7.99233e-05 0 0.000640062)
(0.000652256 -3.48196e-05 0 7.93263e-05 0 0.000508039)
(0.000600174 -3.18427e-05 0 5.62713e-05 0 0.000474194)
(0.000637252 -3.4717e-05 0 4.75915e-05 0 0.000510543)
(0.000751679 -4.9777e-05 0 5.4288e-05 0 0.000616842)
(0.000895547 -0.000103216 0 0.000123952 0 0.000753226)
(0.000992921 -0.000156191 0 0.000208129 0 0.000852103)
(0.00106689 -0.00019663 0 0.000264773 0 0.000923424)
(0.00111327 -0.000220983 0 0.000283656 0 0.000957684)
(0.00106451 -0.00021085 0 0.000237288 0 0.000899278)
(0.000669212 -0.000122118 0 8.98801e-05 0 0.000552707)
(0.000155988 -2.55943e-05 0 1.61242e-05 0 0.000129932)
(3.90495e-05 -5.93452e-06 0 5.11997e-06 0 3.49822e-05)
(1.34184e-05 -1.51174e-06 0 2.32387e-06 0 1.34955e-05)
(4.56502e-06 -2.09793e-07 0 9.84346e-07 0 5.03224e-06)
(1.30647e-06 3.3832e-08 0 3.57134e-07 0 1.50463e-06)
(3.83824e-07 2.51768e-08 0 1.97362e-07 0 4.41057e-07)
(1.22085e-07 1.00324e-08 0 1.06244e-07 0 1.37115e-07)
(3.83189e-08 3.34316e-09 0 3.87516e-08 0 4.20222e-08)
(1.14179e-08 9.68571e-10 0 1.16392e-08 0 1.226e-08)
(3.26481e-09 2.5862e-10 0 3.25554e-09 0 3.44281e-09)
(9.08512e-10 6.60461e-11 0 8.84063e-10 0 9.43421e-10)
(2.43182e-10 1.56884e-11 0 2.31482e-10 0 2.49111e-10)
(6.22692e-11 3.56519e-12 0 5.81767e-11 0 6.30146e-11)
(1.55884e-11 8.15642e-13 0 1.43288e-11 0 1.55819e-11)
(4.30692e-12 2.06441e-13 0 3.88696e-12 0 4.22695e-12)
(1.84714e-12 7.64765e-14 0 1.63143e-12 0 1.7639e-12)
(1.45117e-12 5.26798e-14 0 1.2675e-12 0 1.36329e-12)
(1.47475e-12 5.09614e-14 0 1.28631e-12 0 1.3813e-12)
(1.63656e-12 5.41389e-14 0 1.42942e-12 0 1.53245e-12)
(1.89019e-12 6.00103e-14 0 1.65575e-12 0 1.77191e-12)
(2.15531e-12 6.59747e-14 0 1.89412e-12 0 2.02349e-12)
(2.40566e-12 7.12155e-14 0 2.12087e-12 0 2.26198e-12)
(2.65719e-12 7.60739e-14 0 2.35025e-12 0 2.50239e-12)
(2.91516e-12 8.0652e-14 0 2.58705e-12 0 2.74975e-12)
(3.18026e-12 8.49456e-14 0 2.83193e-12 0 3.00472e-12)
(3.45036e-12 8.89052e-14 0 3.08298e-12 0 3.26529e-12)
(3.72356e-12 9.24971e-14 0 3.33845e-12 0 3.52961e-12)
(3.99884e-12 9.57102e-14 0 3.59737e-12 0 3.79672e-12)
(4.27554e-12 9.85423e-14 0 3.8591e-12 0 4.06594e-12)
(4.553e-12 1.00994e-13 0 4.12297e-12 0 4.33663e-12)
(4.83059e-12 1.03071e-13 0 4.38837e-12 0 4.60814e-12)
(5.10773e-12 1.04777e-13 0 4.65469e-12 0 4.8799e-12)
(5.38386e-12 1.06125e-13 0 4.92132e-12 0 5.15131e-12)
(5.65864e-12 1.07126e-13 0 5.18792e-12 0 5.42203e-12)
(5.93171e-12 1.07794e-13 0 5.45406e-12 0 5.69167e-12)
(6.20273e-12 1.08142e-13 0 5.71938e-12 0 5.95989e-12)
(6.47142e-12 1.08186e-13 0 5.98355e-12 0 6.22635e-12)
(6.7375e-12 1.0794e-13 0 6.24624e-12 0 6.49078e-12)
(7.00075e-12 1.07421e-13 0 6.50717e-12 0 6.75292e-12)
(7.26094e-12 1.06644e-13 0 6.76608e-12 0 7.01251e-12)
(7.51788e-12 1.05626e-13 0 7.02271e-12 0 7.26934e-12)
(7.7714e-12 1.04381e-13 0 7.27684e-12 0 7.52321e-12)
(8.02132e-12 1.02926e-13 0 7.52825e-12 0 7.77392e-12)
(8.26751e-12 1.01275e-13 0 7.77675e-12 0 8.02131e-12)
(8.50983e-12 9.94446e-14 0 8.02215e-12 0 8.26521e-12)
(8.74816e-12 9.74476e-14 0 8.26428e-12 0 8.50548e-12)
(8.98238e-12 9.53009e-14 0 8.50298e-12 0 8.74198e-12)
(9.2124e-12 9.30153e-14 0 8.7381e-12 0 8.97459e-12)
(9.43813e-12 9.06078e-14 0 8.9695e-12 0 9.2032e-12)
(9.65949e-12 8.80874e-14 0 9.19707e-12 0 9.4277e-12)
(9.87643e-12 8.54711e-14 0 9.42069e-12 0 9.64802e-12)
(1.00889e-11 8.27662e-14 0 9.64027e-12 0 9.86406e-12)
(1.02968e-11 7.99893e-14 0 9.8557e-12 0 1.00758e-11)
(1.05001e-11 7.71462e-14 0 1.00669e-11 0 1.02831e-11)
(1.06989e-11 7.42529e-14 0 1.02738e-11 0 1.04859e-11)
(1.0893e-11 7.13138e-14 0 1.04764e-11 0 1.06843e-11)
(1.10824e-11 6.8344e-14 0 1.06746e-11 0 1.08782e-11)
(1.12673e-11 6.5347e-14 0 1.08684e-11 0 1.10675e-11)
(1.14475e-11 6.23365e-14 0 1.10576e-11 0 1.12523e-11)
(1.16231e-11 5.93155e-14 0 1.12424e-11 0 1.14325e-11)
(1.1794e-11 5.6296e-14 0 1.14227e-11 0 1.16081e-11)
(1.19604e-11 5.32807e-14 0 1.15985e-11 0 1.17792e-11)
(1.21222e-11 5.02801e-14 0 1.17698e-11 0 1.19458e-11)
(1.22796e-11 4.72961e-14 0 1.19367e-11 0 1.21079e-11)
(1.24324e-11 4.43383e-14 0 1.2099e-11 0 1.22655e-11)
(1.25808e-11 4.14077e-14 0 1.22569e-11 0 1.24187e-11)
(1.27248e-11 3.85127e-14 0 1.24104e-11 0 1.25675e-11)
(1.28646e-11 3.56539e-14 0 1.25595e-11 0 1.27119e-11)
(1.3e-11 3.28385e-14 0 1.27043e-11 0 1.2852e-11)
(1.31313e-11 3.00668e-14 0 1.28447e-11 0 1.29879e-11)
(1.32584e-11 2.73443e-14 0 1.2981e-11 0 1.31196e-11)
(1.33814e-11 2.46721e-14 0 1.31131e-11 0 1.32472e-11)
(1.35006e-11 2.20528e-14 0 1.32411e-11 0 1.33708e-11)
(1.36157e-11 1.94897e-14 0 1.3365e-11 0 1.34903e-11)
(1.37271e-11 1.69813e-14 0 1.34849e-11 0 1.3606e-11)
(1.38346e-11 1.45341e-14 0 1.36009e-11 0 1.37177e-11)
(1.39386e-11 1.21426e-14 0 1.37131e-11 0 1.38258e-11)
(1.40389e-11 9.81576e-15 0 1.38215e-11 0 1.39302e-11)
(1.41357e-11 7.54513e-15 0 1.39263e-11 0 1.4031e-11)
(1.42291e-11 5.34087e-15 0 1.40274e-11 0 1.41283e-11)
(1.43192e-11 3.19348e-15 0 1.4125e-11 0 1.42221e-11)
(1.4406e-11 1.11224e-15 0 1.42192e-11 0 1.43126e-11)
(1.44896e-11 -9.11086e-16 0 1.431e-11 0 1.43998e-11)
(1.45702e-11 -2.87012e-15 0 1.43976e-11 0 1.44839e-11)
(1.46477e-11 -4.77009e-15 0 1.44819e-11 0 1.45648e-11)
(1.47224e-11 -6.60859e-15 0 1.45632e-11 0 1.46428e-11)
(1.47941e-11 -8.38735e-15 0 1.46413e-11 0 1.47177e-11)
(1.48632e-11 -1.01076e-14 0 1.47166e-11 0 1.47899e-11)
(1.49295e-11 -1.17685e-14 0 1.4789e-11 0 1.48593e-11)
(1.49933e-11 -1.33735e-14 0 1.48586e-11 0 1.4926e-11)
(1.50546e-11 -1.49205e-14 0 1.49255e-11 0 1.49901e-11)
(1.51135e-11 -1.6414e-14 0 1.49898e-11 0 1.50517e-11)
(1.51699e-11 -1.78514e-14 0 1.50516e-11 0 1.51108e-11)
(1.5224e-11 -1.92371e-14 0 1.51108e-11 0 1.51674e-11)
(1.52758e-11 -2.05658e-14 0 1.51675e-11 0 1.52217e-11)
(1.53249e-11 -2.18472e-14 0 1.52213e-11 0 1.52732e-11)
(1.53711e-11 -2.30476e-14 0 1.52718e-11 0 1.53214e-11)
(1.54155e-11 -2.42292e-14 0 1.53207e-11 0 1.53682e-11)
(1.54769e-11 -2.55307e-14 0 1.53877e-11 0 1.54322e-11)
(0.027202 -0.00334669 0 0.0381459 0 0.0219696)
(0.0221273 -0.000297937 0 0.0285746 0 0.0172291)
(0.0216961 -0.00276301 0 0.031323 0 0.0166639)
(0.0224456 -0.0061323 0 0.0520902 0 0.0180843)
(0.0296276 -0.0104917 0 0.0666986 0 0.0234278)
(0.0368831 -0.0101409 0 0.0866536 0 0.0307856)
(0.0477584 -0.0100944 0 0.12805 0 0.043396)
(0.054591 -0.0143256 0 0.164936 0 0.0523546)
(0.0593085 -0.0206402 0 0.191387 0 0.0576202)
(0.0648989 -0.0248402 0 0.204595 0 0.0616098)
(0.0685842 -0.0263709 0 0.21009 0 0.0644835)
(0.067635 -0.0247356 0 0.19877 0 0.0658175)
(0.0644724 -0.0220254 0 0.150559 0 0.0633658)
(0.0641963 -0.0187221 0 0.1247 0 0.0616889)
(0.0561594 -0.0109536 0 0.0921475 0 0.0547343)
(0.0482201 -0.0105792 0 0.017018 0 0.0444486)
(0.0406724 -0.00421804 0 1e-15 0 0.0341742)
(0.0329294 -0.00208591 0 1e-15 0 0.0261336)
(0.0248377 -0.00245205 0 0.00735302 0 0.019505)
(0.024123 -0.00319209 0 0.0140626 0 0.0191149)
(0.0273278 -0.00477557 0 0.0277572 0 0.0217484)
(0.029908 -0.00548152 0 0.0238021 0 0.0233533)
(0.0361623 -0.00638373 0 0.0111918 0 0.0266564)
(0.040877 -0.00459357 0 0.00325774 0 0.0288851)
(0.0381484 -0.00214181 0 1e-15 0 0.0265526)
(0.0297 -0.000691965 0 1e-15 0 0.0205831)
(0.0243612 -0.000230762 0 1e-15 0 0.0168334)
(0.0209428 -9.73733e-05 0 1e-15 0 0.0144431)
(0.0191159 -0.000124006 0 1e-15 0 0.0131763)
(0.0197671 -0.000225692 0 1e-15 0 0.0135972)
(0.0215821 -0.000500556 0 1e-15 0 0.0148566)
(0.0252716 -0.00114634 0 0.00017121 0 0.0173187)
(0.0248992 -0.00112655 0 1e-15 0 0.0170269)
(0.0232033 -0.00141296 0 1e-15 0 0.0157611)
(0.0195472 -0.00158513 0 1e-15 0 0.0134403)
(0.0155041 -0.00144258 0 1e-15 0 0.0109606)
(0.0127269 -0.00106594 0 1e-15 0 0.00921744)
(0.0111092 -0.000612822 0 1e-15 0 0.00808117)
(0.00967863 -0.000274861 0 1e-15 0 0.0069857)
(0.00837603 -0.000129302 0 1e-15 0 0.00592681)
(0.00650097 -7.26273e-05 0 1e-15 0 0.00457957)
(0.00530142 -6.16513e-05 0 1e-15 0 0.00376505)
(0.00488929 -7.7244e-05 0 1e-15 0 0.00353285)
(0.00491643 -0.000106902 0 1e-15 0 0.00362104)
(0.00530559 -0.000207737 0 1e-15 0 0.00403918)
(0.00577414 -0.000570695 0 0.000384442 0 0.00456342)
(0.00599468 -0.000937062 0 0.000982632 0 0.0048947)
(0.00619516 -0.00122071 0 0.00133116 0 0.00514281)
(0.00637175 -0.00142102 0 0.0014156 0 0.00526311)
(0.00630999 -0.00145435 0 0.00113822 0 0.0050906)
(0.00494762 -0.00105577 0 0.000357809 0 0.00387611)
(0.0018836 -0.000360349 0 1e-15 0 0.00147379)
(0.000616007 -0.000113873 0 1e-15 0 0.00052519)
(0.000246261 -3.37994e-05 0 1e-15 0 0.000249724)
(9.77897e-05 -2.99081e-06 0 1e-15 0 0.000114573)
(3.115e-05 2.22756e-06 0 1e-15 0 3.85093e-05)
(9.40698e-06 1.12144e-06 0 1.68745e-06 0 1.16203e-05)
(3.00178e-06 3.98105e-07 0 2.39386e-06 0 3.61432e-06)
(9.6576e-07 1.3796e-07 0 1.02222e-06 0 1.12578e-06)
(2.97482e-07 4.33197e-08 0 3.09896e-07 0 3.35728e-07)
(8.7882e-08 1.21841e-08 0 8.69007e-08 0 9.63141e-08)
(2.4892e-08 3.17337e-09 0 2.35376e-08 0 2.65903e-08)
(6.72849e-09 7.59766e-10 0 6.1285e-09 0 7.02596e-09)
(1.73673e-09 1.73372e-10 0 1.53334e-09 0 1.77667e-09)
(4.3881e-10 3.97446e-11 0 3.77057e-10 0 4.39519e-10)
(1.23267e-10 1.00848e-11 0 1.02774e-10 0 1.19599e-10)
(5.4284e-11 3.75798e-12 0 4.37478e-11 0 5.02585e-11)
(4.32858e-11 2.59846e-12 0 3.43169e-11 0 3.90015e-11)
(4.40999e-11 2.51103e-12 0 3.49059e-11 0 3.95418e-11)
(4.89793e-11 2.66204e-12 0 3.88742e-11 0 4.38991e-11)
(5.65256e-11 2.94277e-12 0 4.50978e-11 0 5.07573e-11)
(6.43732e-11 3.22666e-12 0 5.16515e-11 0 5.79496e-11)
(7.17906e-11 3.47561e-12 0 5.79233e-11 0 6.47909e-11)
(7.9243e-11 3.7059e-12 0 6.42975e-11 0 7.17021e-11)
(8.68857e-11 3.92252e-12 0 7.09063e-11 0 7.88263e-11)
(9.47357e-11 4.12523e-12 0 7.77668e-11 0 8.61805e-11)
(1.02729e-10 4.31169e-12 0 8.48263e-11 0 9.37065e-11)
(1.10811e-10 4.48032e-12 0 9.20359e-11 0 1.01352e-10)
(1.18951e-10 4.6306e-12 0 9.93685e-11 0 1.09088e-10)
(1.27128e-10 4.76246e-12 0 1.06805e-10 0 1.16896e-10)
(1.35323e-10 4.87593e-12 0 1.14327e-10 0 1.24755e-10)
(1.43517e-10 4.97125e-12 0 1.21914e-10 0 1.32647e-10)
(1.51693e-10 5.04874e-12 0 1.2955e-10 0 1.40554e-10)
(1.59835e-10 5.10891e-12 0 1.37217e-10 0 1.4846e-10)
(1.67932e-10 5.15239e-12 0 1.44902e-10 0 1.56353e-10)
(1.75974e-10 5.17981e-12 0 1.52594e-10 0 1.64222e-10)
(1.83951e-10 5.19184e-12 0 1.60281e-10 0 1.72056e-10)
(1.91855e-10 5.18925e-12 0 1.67952e-10 0 1.79845e-10)
(1.99678e-10 5.17274e-12 0 1.75597e-10 0 1.87582e-10)
(2.07413e-10 5.14313e-12 0 1.83208e-10 0 1.95257e-10)
(2.15054e-10 5.10114e-12 0 1.90776e-10 0 2.02863e-10)
(2.22595e-10 5.04758e-12 0 1.98292e-10 0 2.10394e-10)
(2.30032e-10 4.98316e-12 0 2.05749e-10 0 2.17843e-10)
(2.37359e-10 4.9087e-12 0 2.13141e-10 0 2.25205e-10)
(2.44573e-10 4.82488e-12 0 2.2046e-10 0 2.32474e-10)
(2.5167e-10 4.73249e-12 0 2.277e-10 0 2.39645e-10)
(2.58647e-10 4.63216e-12 0 2.34856e-10 0 2.46714e-10)
(2.65501e-10 4.52469e-12 0 2.41922e-10 0 2.53675e-10)
(2.72228e-10 4.41061e-12 0 2.48893e-10 0 2.60526e-10)
(2.78827e-10 4.29074e-12 0 2.55763e-10 0 2.67263e-10)
(2.85295e-10 4.16554e-12 0 2.62531e-10 0 2.73883e-10)
(2.91631e-10 4.03578e-12 0 2.6919e-10 0 2.80382e-10)
(2.97834e-10 3.90185e-12 0 2.75737e-10 0 2.86759e-10)
(3.03901e-10 3.76453e-12 0 2.8217e-10 0 2.93011e-10)
(3.09833e-10 3.62412e-12 0 2.88484e-10 0 2.99136e-10)
(3.15628e-10 3.48136e-12 0 2.94678e-10 0 3.05132e-10)
(3.21286e-10 3.3365e-12 0 3.00749e-10 0 3.10998e-10)
(3.26807e-10 3.19023e-12 0 3.06695e-10 0 3.16733e-10)
(3.32191e-10 3.04275e-12 0 3.12515e-10 0 3.22336e-10)
(3.37438e-10 2.89468e-12 0 3.18206e-10 0 3.27807e-10)
(3.42549e-10 2.7462e-12 0 3.23769e-10 0 3.33145e-10)
(3.47524e-10 2.59788e-12 0 3.29201e-10 0 3.3835e-10)
(3.52365e-10 2.44983e-12 0 3.34503e-10 0 3.43422e-10)
(3.57071e-10 2.30257e-12 0 3.39674e-10 0 3.48361e-10)
(3.61645e-10 2.15618e-12 0 3.44714e-10 0 3.5317e-10)
(3.66087e-10 2.01113e-12 0 3.49623e-10 0 3.57846e-10)
(3.704e-10 1.86747e-12 0 3.54402e-10 0 3.62393e-10)
(3.74584e-10 1.7256e-12 0 3.59051e-10 0 3.6681e-10)
(3.78641e-10 1.58554e-12 0 3.63571e-10 0 3.71099e-10)
(3.82575e-10 1.44765e-12 0 3.67963e-10 0 3.75263e-10)
(3.86385e-10 1.31192e-12 0 3.72227e-10 0 3.79301e-10)
(3.90075e-10 1.17863e-12 0 3.76367e-10 0 3.83217e-10)
(3.93645e-10 1.04783e-12 0 3.80381e-10 0 3.87009e-10)
(3.97101e-10 9.19648e-13 0 3.84275e-10 0 3.90684e-10)
(4.0044e-10 7.94228e-13 0 3.88045e-10 0 3.94239e-10)
(4.0367e-10 6.71518e-13 0 3.91699e-10 0 3.97682e-10)
(4.06788e-10 5.51797e-13 0 3.95233e-10 0 4.01009e-10)
(4.09802e-10 4.34836e-13 0 3.98655e-10 0 4.04227e-10)
(4.12709e-10 3.21032e-13 0 4.01962e-10 0 4.07334e-10)
(4.15515e-10 2.10004e-13 0 4.05159e-10 0 4.10336e-10)
(4.18221e-10 1.02216e-13 0 4.08247e-10 0 4.13233e-10)
(4.2083e-10 -2.7699e-15 0 4.11229e-10 0 4.16029e-10)
(4.23344e-10 -1.04526e-13 0 4.14107e-10 0 4.18725e-10)
(4.25766e-10 -2.03436e-13 0 4.16883e-10 0 4.21324e-10)
(4.28099e-10 -2.99203e-13 0 4.19562e-10 0 4.23831e-10)
(4.30343e-10 -3.92077e-13 0 4.22141e-10 0 4.26242e-10)
(4.32505e-10 -4.81942e-13 0 4.24629e-10 0 4.28568e-10)
(4.34581e-10 -5.68886e-13 0 4.27023e-10 0 4.30803e-10)
(4.36581e-10 -6.52966e-13 0 4.2933e-10 0 4.32956e-10)
(4.385e-10 -7.34144e-13 0 4.31547e-10 0 4.35025e-10)
(4.40347e-10 -8.12588e-13 0 4.33683e-10 0 4.37016e-10)
(4.42119e-10 -8.882e-13 0 4.35734e-10 0 4.38928e-10)
(4.43822e-10 -9.6119e-13 0 4.37707e-10 0 4.40766e-10)
(4.45456e-10 -1.03144e-12 0 4.39601e-10 0 4.4253e-10)
(4.47021e-10 -1.09917e-12 0 4.41418e-10 0 4.44221e-10)
(4.48519e-10 -1.1641e-12 0 4.43158e-10 0 4.4584e-10)
(4.49939e-10 -1.22673e-12 0 4.44811e-10 0 4.47377e-10)
(4.51276e-10 -1.28534e-12 0 4.46359e-10 0 4.48818e-10)
(4.52556e-10 -1.34302e-12 0 4.47867e-10 0 4.50218e-10)
(4.54338e-10 -1.40694e-12 0 4.49925e-10 0 4.52127e-10)
(0.0464572 -0.00891564 0 0.0223746 0 0.0348748)
(0.041174 -0.00265243 0 0.00618945 0 0.029722)
(0.0375318 -0.00311354 0 0.00916808 0 0.0271076)
(0.0320281 -0.00442097 0 0.0452178 0 0.0251433)
(0.0386293 -0.00977322 0 0.0821994 0 0.0303044)
(0.0494334 -0.0108663 0 0.126825 0 0.0409239)
(0.0660108 -0.0144483 0 0.202974 0 0.0590687)
(0.0778628 -0.0247678 0 0.297171 0 0.0734394)
(0.0851171 -0.036074 0 0.359185 0 0.0815505)
(0.0933161 -0.043318 0 0.390623 0 0.0875773)
(0.0987091 -0.0451502 0 0.412439 0 0.0921532)
(0.0969414 -0.0434239 0 0.408002 0 0.0939074)
(0.0920367 -0.0393605 0 0.34475 0 0.0905136)
(0.0927512 -0.0339209 0 0.312253 0 0.0895975)
(0.0842944 -0.0236243 0 0.251175 0 0.0820623)
(0.072098 -0.0220955 0 0.107856 0 0.0681594)
(0.0594079 -0.0121869 0 0.0111899 0 0.053687)
(0.0524156 -0.00679233 0 1e-15 0 0.0430834)
(0.0427965 -0.00172599 0 1e-15 0 0.0332392)
(0.0407976 -0.00202368 0 1e-15 0 0.031454)
(0.0419074 -0.00364186 0 0.017358 0 0.0325728)
(0.0441354 -0.00487975 0 0.0241572 0 0.0341249)
(0.0479185 -0.0073228 0 0.0299874 0 0.0362784)
(0.050333 -0.00740478 0 0.0275065 0 0.0369504)
(0.0501405 -0.00547737 0 0.00791961 0 0.0355188)
(0.0417987 -0.00197648 0 1e-15 0 0.0290425)
(0.0343222 -0.000685376 0 1e-15 0 0.0236482)
(0.0288983 -0.000387933 0 1e-15 0 0.0198285)
(0.0251912 -0.000379195 0 1e-15 0 0.0173449)
(0.0247426 -0.000623665 0 1e-15 0 0.0171177)
(0.0257177 -0.0011319 0 1e-15 0 0.0179168)
(0.0294911 -0.00211023 0 1e-15 0 0.0205283)
(0.0305777 -0.00287857 0 1e-15 0 0.0209438)
(0.028504 -0.00382745 0 0.00175387 0 0.0192637)
(0.0230375 -0.00400145 0 0.0057603 0 0.0160231)
(0.0186749 -0.00339149 0 0.00739062 0 0.0135794)
(0.0153645 -0.00250904 0 0.00556916 0 0.0116125)
(0.0140139 -0.00171498 0 0.00103358 0 0.0106349)
(0.0128428 -0.000951349 0 1e-15 0 0.00962075)
(0.0114761 -0.000528693 0 1e-15 0 0.00834457)
(0.00916827 -0.000138505 0 1e-15 0 0.00658232)
(0.00733929 9.40732e-05 0 1e-15 0 0.00533802)
(0.00686361 4.37325e-05 0 1e-15 0 0.00510756)
(0.00695918 -0.000123171 0 1e-15 0 0.0052985)
(0.0074357 -0.000411418 0 0.00178868 0 0.00586335)
(0.00776404 -0.000801146 0 0.00361341 0 0.00650724)
(0.00775007 -0.00122885 0 0.0046074 0 0.0068693)
(0.00773925 -0.00165481 0 0.00498953 0 0.00710222)
(0.00779912 -0.00203406 0 0.00486999 0 0.00717428)
(0.00773676 -0.00229879 0 0.0041113 0 0.00688835)
(0.0065093 -0.00200009 0 0.00245436 0 0.00549273)
(0.00288406 -0.000890651 0 0.00105527 0 0.00239713)
(0.000940052 -0.000329725 0 0.000659657 0 0.0008663)
(0.000427229 -0.000129827 0 0.000567496 0 0.000478775)
(0.000246433 -3.28188e-05 0 0.000298424 0 0.000313712)
(0.000115488 2.85866e-06 0 3.25451e-05 0 0.000152578)
(3.92393e-05 6.09923e-06 0 1e-15 0 5.15153e-05)
(1.28858e-05 2.34206e-06 0 1e-15 0 1.64916e-05)
(4.30762e-06 6.82627e-07 0 3.09454e-06 0 5.30906e-06)
(1.41045e-06 2.25367e-07 0 1.36081e-06 0 1.66923e-06)
(4.41158e-07 7.37031e-08 0 3.96096e-07 0 5.02578e-07)
(1.31002e-07 2.14881e-08 0 1.1025e-07 0 1.44242e-07)
(3.6822e-08 5.63809e-09 0 2.96353e-08 0 3.93227e-08)
(9.83703e-09 1.37937e-09 0 7.65317e-09 0 1.02103e-08)
(2.58273e-09 3.3072e-10 0 1.95266e-09 0 2.59783e-09)
(7.72959e-10 8.68777e-11 0 5.67397e-10 0 7.39583e-10)
(3.72311e-10 3.37114e-11 0 2.66058e-10 0 3.32397e-10)
(3.11257e-10 2.39118e-11 0 2.20355e-10 0 2.68051e-10)
(3.19958e-10 2.31283e-11 0 2.26697e-10 0 2.73826e-10)
(3.56902e-10 2.43652e-11 0 2.54255e-10 0 3.0533e-10)
(4.1141e-10 2.66352e-11 0 2.95496e-10 0 3.52918e-10)
(4.66931e-10 2.88585e-11 0 3.38237e-10 0 4.01966e-10)
(5.19365e-10 3.07665e-11 0 3.79342e-10 0 4.48706e-10)
(5.71965e-10 3.24929e-11 0 4.21282e-10 0 4.95959e-10)
(6.25697e-10 3.40756e-11 0 4.64824e-10 0 5.44585e-10)
(6.80621e-10 3.5513e-11 0 5.1004e-10 0 5.94648e-10)
(7.36292e-10 3.67901e-11 0 5.56584e-10 0 6.45752e-10)
(7.92335e-10 3.78992e-11 0 6.04147e-10 0 6.97556e-10)
(8.48544e-10 3.88402e-11 0 6.52552e-10 0 7.49867e-10)
(9.04782e-10 3.96159e-11 0 7.01667e-10 0 8.02552e-10)
(9.60915e-10 4.02301e-11 0 7.51362e-10 0 8.55476e-10)
(1.01682e-09 4.06879e-11 0 8.01512e-10 0 9.08516e-10)
(1.07239e-09 4.09952e-11 0 8.51993e-10 0 9.61554e-10)
(1.12751e-09 4.11588e-11 0 9.02689e-10 0 1.01448e-09)
(1.18213e-09 4.11862e-11 0 9.53524e-10 0 1.06723e-09)
(1.23618e-09 4.10848e-11 0 1.00441e-09 0 1.11972e-09)
(1.28961e-09 4.0862e-11 0 1.05527e-09 0 1.17188e-09)
(1.34237e-09 4.05255e-11 0 1.10604e-09 0 1.22366e-09)
(1.39442e-09 4.00827e-11 0 1.15663e-09 0 1.275e-09)
(1.44571e-09 3.95411e-11 0 1.207e-09 0 1.32586e-09)
(1.49622e-09 3.89078e-11 0 1.25708e-09 0 1.37617e-09)
(1.54591e-09 3.81902e-11 0 1.30683e-09 0 1.42591e-09)
(1.59477e-09 3.7395e-11 0 1.35618e-09 0 1.47504e-09)
(1.64277e-09 3.6529e-11 0 1.40509e-09 0 1.52352e-09)
(1.68989e-09 3.55983e-11 0 1.45352e-09 0 1.57131e-09)
(1.73612e-09 3.46096e-11 0 1.50142e-09 0 1.6184e-09)
(1.78145e-09 3.35685e-11 0 1.54876e-09 0 1.66476e-09)
(1.82585e-09 3.24809e-11 0 1.5955e-09 0 1.71035e-09)
(1.86933e-09 3.13521e-11 0 1.64161e-09 0 1.75516e-09)
(1.91187e-09 3.01877e-11 0 1.68704e-09 0 1.79916e-09)
(1.95347e-09 2.89921e-11 0 1.73179e-09 0 1.84235e-09)
(1.99412e-09 2.77706e-11 0 1.77581e-09 0 1.88471e-09)
(2.03382e-09 2.65271e-11 0 1.81909e-09 0 1.92622e-09)
(2.07258e-09 2.52664e-11 0 1.8616e-09 0 1.96686e-09)
(2.11038e-09 2.3992e-11 0 1.90333e-09 0 2.00665e-09)
(2.14724e-09 2.27083e-11 0 1.94424e-09 0 2.04555e-09)
(2.18316e-09 2.1418e-11 0 1.98435e-09 0 2.08357e-09)
(2.21813e-09 2.01253e-11 0 2.02361e-09 0 2.1207e-09)
(2.25218e-09 1.88325e-11 0 2.06204e-09 0 2.15695e-09)
(2.28529e-09 1.75432e-11 0 2.09961e-09 0 2.1923e-09)
(2.31749e-09 1.62592e-11 0 2.13632e-09 0 2.22677e-09)
(2.34878e-09 1.4984e-11 0 2.17216e-09 0 2.26035e-09)
(2.37917e-09 1.37188e-11 0 2.20714e-09 0 2.29304e-09)
(2.40867e-09 1.24667e-11 0 2.24125e-09 0 2.32485e-09)
(2.43729e-09 1.12286e-11 0 2.27449e-09 0 2.35579e-09)
(2.46505e-09 1.00073e-11 0 2.30685e-09 0 2.38586e-09)
(2.49196e-09 8.80316e-12 0 2.33835e-09 0 2.41508e-09)
(2.51803e-09 7.61881e-12 0 2.36899e-09 0 2.44344e-09)
(2.54328e-09 6.45424e-12 0 2.39877e-09 0 2.47096e-09)
(2.56772e-09 5.31173e-12 0 2.42771e-09 0 2.49765e-09)
(2.59136e-09 4.19117e-12 0 2.45579e-09 0 2.52352e-09)
(2.61423e-09 3.09426e-12 0 2.48306e-09 0 2.5486e-09)
(2.63633e-09 2.02107e-12 0 2.50949e-09 0 2.57287e-09)
(2.6577e-09 9.72497e-13 0 2.53512e-09 0 2.59637e-09)
(2.67833e-09 -5.08939e-14 0 2.55993e-09 0 2.61909e-09)
(2.69826e-09 -1.04931e-12 0 2.58397e-09 0 2.64108e-09)
(2.71748e-09 -2.02148e-12 0 2.60723e-09 0 2.66232e-09)
(2.73603e-09 -2.96858e-12 0 2.62973e-09 0 2.68286e-09)
(2.75391e-09 -3.88872e-12 0 2.65148e-09 0 2.70268e-09)
(2.77116e-09 -4.78398e-12 0 2.6725e-09 0 2.72182e-09)
(2.78777e-09 -5.65211e-12 0 2.69281e-09 0 2.74028e-09)
(2.80378e-09 -6.49555e-12 0 2.71241e-09 0 2.75808e-09)
(2.81919e-09 -7.31223e-12 0 2.73133e-09 0 2.77525e-09)
(2.83402e-09 -8.10434e-12 0 2.74957e-09 0 2.79179e-09)
(2.84831e-09 -8.87053e-12 0 2.76717e-09 0 2.80774e-09)
(2.86203e-09 -9.61225e-12 0 2.78412e-09 0 2.82307e-09)
(2.87524e-09 -1.03292e-11 0 2.80046e-09 0 2.83785e-09)
(2.88792e-09 -1.10219e-11 0 2.81618e-09 0 2.85206e-09)
(2.90013e-09 -1.16911e-11 0 2.83134e-09 0 2.86574e-09)
(2.91184e-09 -1.23364e-11 0 2.84589e-09 0 2.87887e-09)
(2.9231e-09 -1.29594e-11 0 2.85992e-09 0 2.89152e-09)
(2.93389e-09 -1.35594e-11 0 2.87338e-09 0 2.90365e-09)
(2.94427e-09 -1.4138e-11 0 2.88634e-09 0 2.91531e-09)
(2.95421e-09 -1.46945e-11 0 2.89877e-09 0 2.9265e-09)
(2.96373e-09 -1.52305e-11 0 2.91069e-09 0 2.93722e-09)
(2.97284e-09 -1.57438e-11 0 2.92211e-09 0 2.94748e-09)
(2.98146e-09 -1.62386e-11 0 2.93296e-09 0 2.95723e-09)
(2.9896e-09 -1.66984e-11 0 2.94311e-09 0 2.96636e-09)
(2.99734e-09 -1.71507e-11 0 2.95302e-09 0 2.97524e-09)
(3.00821e-09 -1.76728e-11 0 2.9665e-09 0 2.98732e-09)
(0.0669069 -0.013692 0 1.11315e-05 0 0.0488341)
(0.0613817 -0.0038392 0 1e-15 0 0.0434106)
(0.0562496 -0.00237105 0 1e-15 0 0.0393564)
(0.0456894 -0.0036101 0 1e-15 0 0.0336757)
(0.0495252 -0.00945931 0 0.0245698 0 0.0369392)
(0.0594694 -0.0117145 0 0.0854471 0 0.0474179)
(0.0765981 -0.0188141 0 0.222193 0 0.0665141)
(0.0864671 -0.0317177 0 0.380161 0 0.0797965)
(0.0927341 -0.0480423 0 0.478664 0 0.0870466)
(0.103223 -0.0615137 0 0.539761 0 0.0943703)
(0.109697 -0.0660789 0 0.576513 0 0.0995439)
(0.107326 -0.0637343 0 0.575772 0 0.101794)
(0.104325 -0.0589085 0 0.507676 0 0.100865)
(0.108141 -0.0527296 0 0.485433 0 0.102911)
(0.100214 -0.039599 0 0.427341 0 0.0963401)
(0.0874811 -0.0350066 0 0.256449 0 0.0827663)
(0.0699847 -0.0217339 0 0.115647 0 0.0659694)
(0.062876 -0.016842 0 0.0315651 0 0.0545621)
(0.0593975 -0.00599615 0 1e-15 0 0.0466497)
(0.0604977 -0.00302453 0 1e-15 0 0.0458479)
(0.0625047 -0.00353029 0 1e-15 0 0.0468655)
(0.0650456 -0.00463295 0 1e-15 0 0.048303)
(0.0650533 -0.00773709 0 0.00824667 0 0.048052)
(0.0641835 -0.00800834 0 0.0185659 0 0.0468032)
(0.0629298 -0.00740519 0 0.0119858 0 0.0446439)
(0.0525727 -0.00456849 0 0.00565627 0 0.0365385)
(0.0418319 -0.00177101 0 1e-15 0 0.0287769)
(0.0343413 -0.00119586 0 1e-15 0 0.0234564)
(0.0280609 -0.00115223 0 1e-15 0 0.01937)
(0.0254722 -0.00166469 0 0.000365391 0 0.0179149)
(0.0254001 -0.00286631 0 0.00399061 0 0.0182071)
(0.0284636 -0.00468911 0 0.00735404 0 0.0205536)
(0.0302974 -0.00613827 0 0.0103369 0 0.0211901)
(0.0290311 -0.00666051 0 0.0150285 0 0.0197178)
(0.0249046 -0.00577181 0 0.0220458 0 0.0175053)
(0.0214942 -0.00494763 0 0.0240024 0 0.0157592)
(0.0179915 -0.00388078 0 0.0196253 0 0.0137232)
(0.0162574 -0.00299588 0 0.0122747 0 0.0125635)
(0.0147645 -0.00209221 0 0.00682214 0 0.0113411)
(0.0127589 -0.00145059 0 0.00378364 0 0.00959163)
(0.0103319 -0.000615473 0 0.00138663 0 0.00758848)
(0.0087502 0.000115623 0 1e-15 0 0.00646817)
(0.00850451 0.000178721 0 1e-15 0 0.00641534)
(0.00878692 -0.000125786 0 0.000783937 0 0.00676577)
(0.00940066 -0.000533738 0 0.00371647 0 0.00745792)
(0.00980419 -0.00109352 0 0.00540007 0 0.00826028)
(0.00976611 -0.00169802 0 0.00612144 0 0.00874083)
(0.00968046 -0.00228206 0 0.0063567 0 0.00902687)
(0.00967708 -0.00279212 0 0.00624942 0 0.00908725)
(0.00952723 -0.00315091 0 0.00536103 0 0.00867242)
(0.00819417 -0.00277835 0 0.00282634 0 0.00703313)
(0.00406618 -0.00132165 0 0.000655413 0 0.00338867)
(0.00133722 -0.000500889 0 0.000574456 0 0.00120589)
(0.000582948 -0.000235023 0 0.00103993 0 0.000633475)
(0.000345149 -9.82626e-05 0 0.000945982 0 0.000429922)
(0.000206275 -2.45388e-05 0 0.000455046 0 0.000271363)
(8.0364e-05 4.79052e-06 0 4.34857e-05 0 0.000106865)
(2.76046e-05 4.74118e-06 0 1e-15 0 3.60332e-05)
(9.31289e-06 1.73297e-06 0 1e-15 0 1.17638e-05)
(3.11673e-06 5.11226e-07 0 1.03369e-06 0 3.78372e-06)
(1.01112e-06 1.59885e-07 0 4.98503e-07 0 1.17888e-06)
(3.13107e-07 4.92388e-08 0 1.64872e-07 0 3.51434e-07)
(9.18805e-08 1.39629e-08 0 5.03997e-08 0 9.95471e-08)
(2.56504e-08 3.6966e-09 0 1.44897e-08 0 2.68516e-08)
(7.11828e-09 9.54193e-10 0 4.12715e-09 0 7.14942e-09)
(2.34475e-09 2.73236e-10 0 1.40925e-09 0 2.19791e-09)
(1.27584e-09 1.18036e-10 0 7.99093e-10 0 1.0981e-09)
(1.12708e-09 8.93055e-11 0 7.1974e-10 0 9.34194e-10)
(1.17103e-09 8.71698e-11 0 7.53138e-10 0 9.64439e-10)
(1.31266e-09 9.16083e-11 0 8.52464e-10 0 1.08108e-09)
(1.5089e-09 9.91339e-11 0 9.91133e-10 0 1.24709e-09)
(1.70233e-09 1.06156e-10 0 1.13062e-09 0 1.41313e-09)
(1.88534e-09 1.12082e-10 0 1.26568e-09 0 1.57201e-09)
(2.0684e-09 1.17312e-10 0 1.40379e-09 0 1.73251e-09)
(2.25417e-09 1.21942e-10 0 1.54694e-09 0 1.8969e-09)
(2.44254e-09 1.25968e-10 0 1.69514e-09 0 2.06515e-09)
(2.63208e-09 1.2936e-10 0 1.8473e-09 0 2.23599e-09)
(2.82161e-09 1.32111e-10 0 2.00247e-09 0 2.40835e-09)
(3.01047e-09 1.34236e-10 0 2.16009e-09 0 2.58162e-09)
(3.19822e-09 1.35757e-10 0 2.31971e-09 0 2.75535e-09)
(3.38441e-09 1.36697e-10 0 2.48085e-09 0 2.92908e-09)
(3.56866e-09 1.37087e-10 0 2.6431e-09 0 3.10241e-09)
(3.75072e-09 1.36956e-10 0 2.80612e-09 0 3.27503e-09)
(3.93028e-09 1.36336e-10 0 2.96953e-09 0 3.44661e-09)
(4.1072e-09 1.3526e-10 0 3.13307e-09 0 3.61694e-09)
(4.28131e-09 1.3376e-10 0 3.29645e-09 0 3.78579e-09)
(4.45246e-09 1.31866e-10 0 3.45943e-09 0 3.95297e-09)
(4.62057e-09 1.2961e-10 0 3.62177e-09 0 4.11831e-09)
(4.78554e-09 1.2702e-10 0 3.78329e-09 0 4.28167e-09)
(4.9473e-09 1.24126e-10 0 3.94376e-09 0 4.44291e-09)
(5.10581e-09 1.20954e-10 0 4.10304e-09 0 4.60192e-09)
(5.26103e-09 1.17531e-10 0 4.26093e-09 0 4.75859e-09)
(5.41292e-09 1.13882e-10 0 4.4173e-09 0 4.91284e-09)
(5.56147e-09 1.1003e-10 0 4.57201e-09 0 5.06458e-09)
(5.70666e-09 1.05998e-10 0 4.72492e-09 0 5.21374e-09)
(5.84849e-09 1.01809e-10 0 4.87591e-09 0 5.36027e-09)
(5.98697e-09 9.7481e-11 0 5.02488e-09 0 5.5041e-09)
(6.12209e-09 9.3035e-11 0 5.1717e-09 0 5.64517e-09)
(6.25386e-09 8.84883e-11 0 5.31631e-09 0 5.78347e-09)
(6.38231e-09 8.38588e-11 0 5.45859e-09 0 5.91893e-09)
(6.50745e-09 7.9162e-11 0 5.59848e-09 0 6.05154e-09)
(6.62931e-09 7.44135e-11 0 5.73591e-09 0 6.18128e-09)
(6.74792e-09 6.96271e-11 0 5.87081e-09 0 6.30812e-09)
(6.8633e-09 6.48168e-11 0 6.00313e-09 0 6.43205e-09)
(6.97548e-09 5.99941e-11 0 6.13281e-09 0 6.55307e-09)
(7.08451e-09 5.51715e-11 0 6.25982e-09 0 6.67116e-09)
(7.19043e-09 5.03588e-11 0 6.38411e-09 0 6.78634e-09)
(7.29326e-09 4.55668e-11 0 6.50566e-09 0 6.8986e-09)
(7.39307e-09 4.08037e-11 0 6.62445e-09 0 7.00796e-09)
(7.48989e-09 3.60792e-11 0 6.74045e-09 0 7.11443e-09)
(7.58378e-09 3.13993e-11 0 6.85367e-09 0 7.21804e-09)
(7.67476e-09 2.67729e-11 0 6.96407e-09 0 7.31879e-09)
(7.76292e-09 2.22044e-11 0 7.07169e-09 0 7.41673e-09)
(7.84829e-09 1.77018e-11 0 7.17649e-09 0 7.51187e-09)
(7.93093e-09 1.32676e-11 0 7.27852e-09 0 7.60425e-09)