/*--------------------------------*- C++ -*----------------------------------*\
| =========                 |                                                 |
| \\      /  F ield         | OpenFOAM: The Open Source CFD Toolbox           |
|  \\    /   O peration     | Version:  v1912                                 |
|   \\  /    A nd           | Website:  www.openfoam.com                      |
|    \\/     M anipulation  |                                                 |
\*---------------------------------------------------------------------------*/
FoamFile
{
    version     2.0;
    format      ascii;
    class       volScalarField;
    location    "40";
    object      omega;
}
// * * * * * * * * * * * * * * * * * * * * * * * * * * * * * * * * * * * * * //

dimensions      [0 0 -1 0 0 0 0];


internalField   nonuniform List<scalar> 
14268
(
0.0184221
0.018532
0.0186408
0.0187491
0.0188564
0.0189634
0.01907
0.0191772
0.0192844
0.0193926
0.019501
0.0196105
0.0197231
0.0198416
0.0199657
0.0200953
0.0202302
0.0203702
0.0205151
0.0206644
0.0208179
0.0209753
0.0211364
0.0213011
0.0214689
0.0216399
0.021814
0.0219909
0.0221701
0.0223518
0.0225363
0.0227237
0.022914
0.0231071
0.0233035
0.0235033
0.0237065
0.0239131
0.0241231
0.0243374
0.0245583
0.0247857
0.0250195
0.0252597
0.0255064
0.0257599
0.0260203
0.0262873
0.0265608
0.0268418
0.027131
0.0274278
0.0277317
0.028044
0.0283652
0.0286956
0.0290334
0.0293792
0.0297361
0.0301042
0.0304813
0.0308679
0.0312668
0.0316786
0.0320994
0.0325335
0.0329823
0.0334432
0.0339183
0.0344075
0.0349129
0.0354346
0.0359724
0.0365275
0.0371025
0.0376943
0.0383081
0.0389422
0.0395987
0.0402783
0.0409824
0.0417128
0.0424703
0.043256
0.0440727
0.0449215
0.0458038
0.0467225
0.0476793
0.048677
0.0497177
0.0508049
0.051941
0.0531296
0.0543741
0.0556789
0.0570501
0.0584908
0.0600059
0.0616046
0.0632916
0.0650757
0.0669654
0.0689709
0.0711036
0.0733768
0.075806
0.0784082
0.0812044
0.0842182
0.0874788
0.0910193
0.0948809
0.0991122
0.103776
0.108941
0.114712
0.121193
0.128556
0.136981
0.14676
0.158232
0.171937
0.188563
0.209222
0.235519
0.270022
0.316929
0.383127
0.480534
0.630124
0.873308
1.30156
2.15384
0.195916
0.199364
0.20312
0.207153
0.211432
0.215914
0.220563
0.22533
0.230168
0.235042
0.239897
0.244694
0.24939
0.253954
0.258357
0.262577
0.26659
0.270378
0.273927
0.277236
0.280301
0.28311
0.285648
0.287927
0.28996
0.291763
0.293352
0.294748
0.295966
0.297017
0.297916
0.298674
0.299305
0.299819
0.300225
0.300534
0.300754
0.30089
0.300952
0.30095
0.300945
0.300943
0.300944
0.300947
0.300952
0.300959
0.300965
0.30097
0.300975
0.300983
0.300999
0.301024
0.301043
0.301055
0.301064
0.301074
0.30108
0.301077
0.301065
0.301085
0.301098
0.301088
0.301086
0.301112
0.301094
0.301067
0.301096
0.301106
0.301064
0.301035
0.301056
0.301028
0.301006
0.301016
0.300979
0.300945
0.300936
0.300928
0.30089
0.300854
0.300836
0.300809
0.300772
0.300739
0.300705
0.300667
0.30063
0.300589
0.300548
0.300504
0.30046
0.300413
0.300365
0.300314
0.300264
0.300213
0.300156
0.300098
0.300044
0.299981
0.299921
0.299857
0.299791
0.299724
0.299655
0.299585
0.299512
0.299437
0.29936
0.299282
0.2992
0.299117
0.299032
0.298943
0.298854
0.298763
0.298673
0.298578
0.298493
0.298403
0.298334
0.298271
0.29826
0.298302
0.298432
0.298681
0.299065
0.300202
0.302109
0.305296
0.310783
0.320326
0.348274
0.465201
0.2858
0.28687
0.287976
0.289096
0.290215
0.291312
0.292374
0.293391
0.29435
0.295245
0.296079
0.296846
0.297547
0.298182
0.298751
0.299258
0.299707
0.300104
0.300453
0.30076
0.301032
0.301248
0.301406
0.301518
0.301594
0.30164
0.301663
0.301669
0.301661
0.301643
0.30162
0.301594
0.30157
0.301549
0.301533
0.301522
0.301516
0.301509
0.301503
0.301497
0.301492
0.301488
0.301488
0.301491
0.3015
0.301517
0.301543
0.301569
0.301592
0.301609
0.301617
0.301616
0.301607
0.301613
0.301659
0.301714
0.301744
0.301753
0.301762
0.301777
0.301791
0.301797
0.301786
0.301774
0.301796
0.3018
0.301772
0.301773
0.301802
0.301812
0.301795
0.301801
0.30178
0.301763
0.30178
0.301784
0.301732
0.301714
0.301727
0.301725
0.301684
0.301661
0.301656
0.301641
0.301615
0.301593
0.301573
0.30155
0.301526
0.301501
0.301476
0.30145
0.301424
0.301396
0.301369
0.301344
0.301313
0.301283
0.301258
0.301226
0.301197
0.301167
0.301138
0.301108
0.301079
0.30105
0.301021
0.300993
0.300964
0.300937
0.300909
0.300881
0.300856
0.300829
0.300806
0.300778
0.300762
0.300731
0.300722
0.300691
0.30069
0.30066
0.300672
0.30066
0.300704
0.300769
0.300898
0.301321
0.301991
0.303262
0.304897
0.305543
0.306467
0.31401
0.304632
0.304528
0.304387
0.304221
0.304023
0.303808
0.303577
0.303337
0.303097
0.302859
0.302637
0.302434
0.302253
0.3021
0.301976
0.301883
0.301821
0.301787
0.301778
0.301792
0.301824
0.301843
0.301839
0.301822
0.301796
0.301763
0.301727
0.30169
0.301655
0.30162
0.301587
0.301554
0.301524
0.301494
0.301466
0.301439
0.301416
0.301399
0.301388
0.301383
0.301386
0.30139
0.301393
0.301396
0.301398
0.301398
0.301396
0.301395
0.301399
0.301416
0.301451
0.301516
0.301591
0.30163
0.301629
0.301572
0.301544
0.301546
0.301588
0.3016
0.301576
0.301568
0.30162
0.30165
0.301651
0.301647
0.301675
0.301679
0.301651
0.301638
0.30163
0.301624
0.301648
0.301642
0.30159
0.301587
0.301629
0.301619
0.301553
0.301545
0.301566
0.301555
0.301507
0.301491
0.301484
0.301459
0.301434
0.301412
0.301388
0.301363
0.301338
0.301312
0.301286
0.301259
0.301233
0.301205
0.301175
0.301146
0.301118
0.301087
0.301057
0.301027
0.300996
0.300965
0.300935
0.300904
0.300873
0.300842
0.300811
0.300781
0.30075
0.30072
0.30069
0.300662
0.300633
0.300606
0.300578
0.300551
0.300525
0.300501
0.300479
0.300459
0.300451
0.300441
0.300467
0.300544
0.300746
0.301236
0.302071
0.303389
0.30464
0.30483
0.304177
0.302713
0.308968
0.30845
0.307897
0.307312
0.306706
0.306099
0.305502
0.304937
0.304402
0.303911
0.303469
0.303083
0.302752
0.302476
0.302255
0.302083
0.301961
0.301886
0.301847
0.301838
0.301855
0.301873
0.301872
0.301855
0.30183
0.301795
0.301755
0.301712
0.301669
0.301628
0.301591
0.301558
0.301532
0.301512
0.301497
0.301485
0.301471
0.301456
0.301442
0.30143
0.301421
0.301415
0.301414
0.301424
0.301443
0.301472
0.301506
0.301539
0.30157
0.301594
0.301605
0.301599
0.301544
0.301504
0.301497
0.301548
0.301622
0.301653
0.301649
0.301636
0.301727
0.301783
0.301776
0.301738
0.301702
0.301715
0.301747
0.301745
0.301723
0.30172
0.301762
0.301754
0.301695
0.301727
0.301755
0.30171
0.301643
0.301653
0.30169
0.301658
0.301586
0.301584
0.301619
0.301587
0.301542
0.301532
0.301518
0.30149
0.301463
0.301437
0.301411
0.301384
0.301356
0.301327
0.301301
0.301274
0.301242
0.301213
0.301186
0.301155
0.301125
0.301095
0.301065
0.301036
0.301008
0.30098
0.300952
0.300925
0.300897
0.300871
0.300845
0.300819
0.300794
0.300771
0.300745
0.300724
0.300703
0.300682
0.300666
0.300647
0.300638
0.300624
0.30063
0.300631
0.300679
0.300729
0.300743
0.300972
0.301674
0.30308
0.304677
0.30505
0.304435
0.302089
0.309908
0.309269
0.308595
0.307892
0.307189
0.306496
0.305821
0.30518
0.304584
0.304043
0.303565
0.303151
0.302802
0.302514
0.302287
0.302115
0.301992
0.301913
0.301871
0.30186
0.301875
0.301884
0.301876
0.301857
0.301831
0.301803
0.301774
0.301743
0.301709
0.301673
0.301637
0.301602
0.301569
0.301537
0.30151
0.301487
0.30147
0.301461
0.30146
0.30146
0.301456
0.301451
0.301445
0.301437
0.301427
0.30142
0.301417
0.301415
0.301413
0.301411
0.301413
0.301427
0.301479
0.3016
0.301699
0.301742
0.301745
0.301724
0.301729
0.301766
0.301719
0.301644
0.301627
0.301633
0.30172
0.30175
0.301665
0.30164
0.30171
0.301754
0.301678
0.301651
0.3017
0.30168
0.301625
0.301666
0.301685
0.301624
0.301603
0.301629
0.301649
0.301602
0.301527
0.301548
0.301549
0.301498
0.301474
0.301459
0.30144
0.301416
0.301393
0.301369
0.301342
0.301314
0.301288
0.301263
0.301232
0.301204
0.301176
0.301145
0.301115
0.301084
0.301053
0.301022
0.300991
0.30096
0.300929
0.300898
0.300867
0.300836
0.300805
0.300774
0.300745
0.300715
0.300686
0.300659
0.300631
0.300605
0.300579
0.300554
0.300532
0.300511
0.300501
0.300489
0.300516
0.300631
0.30095
0.301472
0.30217
0.303465
0.304721
0.30493
0.304178
0.301895
0.310158
0.309482
0.308777
0.308044
0.307307
0.30658
0.305882
0.305225
0.304616
0.304064
0.303579
0.303159
0.302806
0.302514
0.302283
0.302108
0.301986
0.301911
0.301872
0.301865
0.301881
0.301892
0.301885
0.301865
0.301833
0.301796
0.301756
0.301716
0.301677
0.301639
0.301605
0.301576
0.301552
0.301531
0.301512
0.301492
0.301472
0.301454
0.301439
0.301429
0.301422
0.301422
0.301432
0.301447
0.30147
0.301498
0.301522
0.301546
0.301573
0.301616
0.301684
0.30173
0.301747
0.301729
0.30162
0.301534
0.301503
0.301512
0.301526
0.301515
0.3015
0.301549
0.301643
0.301685
0.301661
0.301596
0.301677
0.301762
0.301745
0.301629
0.301612
0.301686
0.301664
0.301582
0.301648
0.301643
0.301638
0.301683
0.301655
0.301557
0.301544
0.301556
0.301576
0.301489
0.301479
0.301484
0.301452
0.301421
0.301402
0.301382
0.30136
0.301338
0.301315
0.301289
0.301265
0.301241
0.301212
0.301187
0.301162
0.301132
0.301104
0.301075
0.301046
0.301017
0.300989
0.300961
0.300932
0.300904
0.300876
0.300848
0.300821
0.300794
0.300768
0.300744
0.300719
0.300697
0.300673
0.300652
0.300632
0.300613
0.300601
0.300588
0.300592
0.300594
0.300626
0.300627
0.300601
0.300967
0.301773
0.303086
0.304634
0.304979
0.304354
0.302059
0.310275
0.309584
0.308864
0.308117
0.307369
0.306628
0.305923
0.305258
0.304639
0.304087
0.303595
0.303169
0.30281
0.302517
0.302285
0.302109
0.301984
0.301904
0.301862
0.301854
0.301872
0.301882
0.301876
0.301857
0.301828
0.301793
0.301757
0.301718
0.301678
0.301637
0.301598
0.301562
0.301532
0.301506
0.301485
0.30147
0.30146
0.301454
0.301447
0.301441
0.301437
0.301436
0.301437
0.301441
0.301443
0.301444
0.301449
0.301461
0.301467
0.30146
0.301426
0.301394
0.301389
0.301399
0.301445
0.301554
0.301638
0.301669
0.301678
0.301728
0.301867
0.301911
0.301848
0.301764
0.301742
0.301794
0.301803
0.301667
0.301598
0.301678
0.30178
0.301705
0.301671
0.301792
0.301755
0.301662
0.30163
0.301581
0.301574
0.301668
0.301663
0.301581
0.301576
0.301595
0.301524
0.301487
0.301472
0.301442
0.301405
0.301377
0.301356
0.301331
0.301307
0.301281
0.301256
0.301232
0.301204
0.301179
0.301155
0.301126
0.301098
0.30107
0.301042
0.301013
0.300984
0.300955
0.300926
0.300897
0.300869
0.30084
0.300812
0.300784
0.300757
0.300729
0.300702
0.300677
0.300651
0.300627
0.300603
0.30058
0.300559
0.300539
0.300532
0.300525
0.300581
0.300799
0.30099
0.301216
0.301979
0.303358
0.30474
0.304987
0.3043
0.301938
0.310403
0.309697
0.30896
0.3082
0.307438
0.306687
0.305972
0.305297
0.304668
0.304106
0.303608
0.303178
0.302817
0.30252
0.302287
0.30211
0.301985
0.301905
0.301862
0.301853
0.301869
0.301876
0.301865
0.301843
0.301813
0.301778
0.301741
0.301705
0.30167
0.301636
0.301604
0.301573
0.301546
0.301521
0.301499
0.301478
0.30146
0.301445
0.301436
0.301435
0.301441
0.301441
0.301437
0.301434
0.301435
0.301442
0.30146
0.301486
0.301511
0.301543
0.301609
0.301725
0.301806
0.301848
0.301861
0.301846
0.301799
0.301781
0.301788
0.301768
0.301595
0.301509
0.301506
0.301589
0.301683
0.301706
0.301667
0.301706
0.301848
0.301866
0.301743
0.301739
0.301824
0.301691
0.3016
0.301622
0.301622
0.301619
0.301633
0.301553
0.30153
0.301585
0.301564
0.301587
0.301607
0.30157
0.301533
0.301508
0.301488
0.301439
0.301393
0.301355
0.301319
0.301288
0.301262
0.301238
0.301204
0.301176
0.301152
0.301122
0.301094
0.301065
0.301036
0.301007
0.300978
0.30095
0.300921
0.300892
0.300864
0.300835
0.300807
0.30078
0.300753
0.300727
0.300699
0.300674
0.300648
0.300625
0.300603
0.300583
0.300569
0.300553
0.300552
0.30054
0.300539
0.300526
0.300696
0.301345
0.301974
0.303268
0.304633
0.304921
0.304309
0.30203
0.310529
0.309812
0.309063
0.308289
0.307514
0.306753
0.306026
0.305339
0.304705
0.304132
0.303626
0.303191
0.302826
0.302525
0.302287
0.302107
0.30198
0.3019
0.301859
0.301849
0.301863
0.301868
0.301859
0.301841
0.301814
0.301781
0.301744
0.301701
0.301657
0.301617
0.301581
0.301547
0.301518
0.301496
0.301479
0.301463
0.301447
0.301428
0.301407
0.301389
0.301379
0.301377
0.301383
0.301399
0.301422
0.301441
0.301453
0.301463
0.301472
0.301484
0.301492
0.301478
0.301406
0.301344
0.301332
0.301337
0.301352
0.301375
0.301387
0.301394
0.301486
0.301621
0.301682
0.30168
0.301614
0.301579
0.301634
0.301665
0.301564
0.301486
0.301542
0.301599
0.301529
0.30156
0.301765
0.301818
0.30182
0.301815
0.301744
0.301693
0.301699
0.301703
0.301629
0.301539
0.301533
0.30155
0.301535
0.301528
0.301491
0.301493
0.301472
0.301433
0.301398
0.301367
0.301335
0.301296
0.301259
0.301221
0.301179
0.301141
0.301105
0.301073
0.301042
0.301012
0.300983
0.300955
0.300927
0.300897
0.300868
0.30084
0.300813
0.300786
0.300759
0.300734
0.300707
0.300683
0.300656
0.300632
0.300608
0.300584
0.300564
0.300547
0.300546
0.300547
0.300615
0.300733
0.300843
0.301108
0.301788
0.303254
0.304888
0.30525
0.30472
0.302001
0.310741
0.309983
0.309202
0.308402
0.307609
0.306832
0.306089
0.305388
0.304745
0.304162
0.303647
0.303206
0.302836
0.30253
0.302291
0.30211
0.301982
0.301901
0.301857
0.301845
0.301862
0.301875
0.301871
0.301854
0.301829
0.301795
0.301757
0.301721
0.301687
0.301652
0.301617
0.301584
0.301553
0.301525
0.301499
0.301478
0.301463
0.301453
0.30145
0.301454
0.301468
0.301477
0.301478
0.301473
0.301462
0.301444
0.301437
0.301437
0.301436
0.301439
0.301445
0.301461
0.30151
0.301646
0.301773
0.301853
0.301879
0.301869
0.301856
0.301912
0.301955
0.301939
0.301897
0.301886
0.301892
0.301908
0.301852
0.301762
0.301767
0.301906
0.301949
0.301877
0.301899
0.301964
0.301788
0.301645
0.301604
0.301575
0.301592
0.301671
0.301615
0.301532
0.301546
0.301515
0.301465
0.301473
0.301463
0.301471
0.301472
0.301434
0.301429
0.30142
0.301399
0.30136
0.301357
0.30138
0.301324
0.301272
0.301253
0.301208
0.301166
0.301122
0.301083
0.301046
0.301007
0.300965
0.300925
0.300888
0.300853
0.300816
0.300779
0.300744
0.300713
0.300682
0.300651
0.300622
0.300593
0.300565
0.300536
0.300508
0.300482
0.30046
0.300449
0.300438
0.300483
0.300793
0.301109
0.301281
0.302118
0.303554
0.305175
0.305499
0.305381
0.302192
0.310787
0.31005
0.309282
0.308488
0.307692
0.306908
0.306156
0.30544
0.304788
0.304195
0.303674
0.303226
0.302849
0.302539
0.302298
0.302114
0.301984
0.3019
0.301853
0.301838
0.301852
0.301861
0.301851
0.301828
0.301801
0.301771
0.301739
0.301705
0.301669
0.301634
0.301602
0.301573
0.301545
0.301521
0.301503
0.30149
0.301479
0.301471
0.301465
0.301461
0.301455
0.301449
0.301444
0.301446
0.301462
0.301506
0.301554
0.301596
0.301632
0.301672
0.301721
0.301756
0.301767
0.301749
0.301681
0.301629
0.301621
0.301678
0.301717
0.301676
0.301583
0.301569
0.301591
0.301623
0.30166
0.301678
0.301717
0.301825
0.301872
0.30175
0.301654
0.301691
0.301662
0.301459
0.301447
0.301488
0.301485
0.3015
0.301497
0.301455
0.301479
0.301502
0.301493
0.301577
0.301525
0.301449
0.301417
0.301371
0.301361
0.301364
0.30135
0.301349
0.301342
0.301349
0.30128
0.301217
0.301258
0.301258
0.301237
0.301211
0.301197
0.301165
0.301139
0.301114
0.301088
0.30106
0.301032
0.301006
0.300978
0.300946
0.300914
0.300885
0.30086
0.300837
0.300811
0.300787
0.300763
0.300741
0.300722
0.300701
0.300687
0.300669
0.300674
0.300681
0.30074
0.300754
0.300966
0.30131
0.302012
0.303504
0.305431
0.305915
0.305877
0.302472
0.311233
0.310449
0.309617
0.308749
0.307889
0.307046
0.30625
0.305505
0.304832
0.304225
0.303693
0.303239
0.302855
0.302542
0.302296
0.302108
0.301977
0.301893
0.301846
0.30183
0.301843
0.301852
0.301846
0.30183
0.301806
0.301775
0.301735
0.30169
0.301648
0.301611
0.30158
0.301552
0.301529
0.301508
0.301488
0.301468
0.301452
0.30144
0.301432
0.301424
0.301419
0.301418
0.301418
0.301415
0.301411
0.30141
0.301414
0.30142
0.301419
0.301418
0.301423
0.301442
0.301452
0.301451
0.301451
0.301464
0.301478
0.301473
0.301469
0.301486
0.301541
0.301571
0.301577
0.301576
0.301566
0.301567
0.301562
0.301511
0.301475
0.301497
0.301536
0.301517
0.301498
0.301687
0.301832
0.301894
0.301914
0.301863
0.301759
0.301779
0.301826
0.301793
0.301658
0.301621
0.301625
0.301621
0.301586
0.301562
0.301485
0.301429
0.301372
0.301317
0.30127
0.301234
0.301262
0.301287
0.301116
0.301117
0.301092
0.301072
0.301058
0.30105
0.301028
0.301004
0.300995
0.300997
0.300984
0.300967
0.300951
0.300931
0.300911
0.300885
0.300867
0.300845
0.300828
0.300812
0.300798
0.300785
0.300775
0.300765
0.300765
0.30075
0.300758
0.300778
0.300904
0.301108
0.301316
0.301674
0.302653
0.304316
0.305495
0.305771
0.305298
0.302577
0.311312
0.310466
0.309612
0.308746
0.307904
0.307086
0.30631
0.305575
0.3049
0.30429
0.303751
0.303287
0.302895
0.302573
0.302317
0.302121
0.30198
0.301887
0.301833
0.301809
0.301816
0.30183
0.301828
0.301812
0.301784
0.30175
0.301715
0.30168
0.301649
0.301621
0.301599
0.301579
0.30156
0.301541
0.301526
0.301516
0.30151
0.301507
0.301507
0.301513
0.301518
0.30152
0.301522
0.301524
0.30153
0.301543
0.301573
0.301619
0.301664
0.301707
0.301755
0.301803
0.301837
0.301855
0.301863
0.301864
0.301867
0.301895
0.301932
0.301954
0.30196
0.301956
0.301957
0.301965
0.301972
0.301964
0.301962
0.301998
0.302058
0.302078
0.302029
0.302013
0.302024
0.301955
0.3018
0.301685
0.301638
0.301678
0.301762
0.301713
0.301602
0.30163
0.301756
0.30172
0.301697
0.301694
0.301673
0.301671
0.301677
0.301642
0.301623
0.30157
0.30148
0.301338
0.301244
0.301233
0.301236
0.30114
0.301041
0.301028
0.300968
0.300933
0.300907
0.30088
0.300822
0.300788
0.300778
0.300774
0.300749
0.300708
0.300685
0.30069
0.300661
0.300629
0.300595
0.300587
0.300584
0.300571
0.300558
0.300553
0.300577
0.300604
0.300632
0.300614
0.300601
0.300686
0.300757
0.301144
0.301982
0.303579
0.304956
0.305363
0.304828
0.302361
0.311197
0.310458
0.309703
0.308929
0.30815
0.307362
0.306556
0.305773
0.30505
0.304397
0.303829
0.303342
0.302932
0.302596
0.30233
0.302126
0.301981
0.301885
0.301829
0.301806
0.301814
0.301829
0.301828
0.301815
0.301793
0.301767
0.301736
0.301701
0.301669
0.301644
0.301623
0.301605
0.301588
0.301574
0.301562
0.30155
0.301535
0.301521
0.30151
0.3015
0.301485
0.301471
0.301458
0.301445
0.301433
0.301427
0.301433
0.30144
0.301446
0.301448
0.301442
0.301432
0.301427
0.301431
0.301438
0.301443
0.301444
0.301448
0.301461
0.301467
0.301471
0.301483
0.301505
0.301515
0.301525
0.301585
0.301652
0.30167
0.301593
0.301485
0.301477
0.301487
0.301431
0.301404
0.301408
0.301434
0.301449
0.301406
0.301366
0.301357
0.30138
0.30136
0.301313
0.301322
0.301295
0.301226
0.301205
0.30119
0.301182
0.301205
0.301217
0.301236
0.30125
0.301277
0.301185
0.301122
0.301227
0.301223
0.301175
0.301144
0.301118
0.301078
0.301042
0.301008
0.300981
0.300929
0.300884
0.300856
0.300846
0.300845
0.300813
0.300767
0.300744
0.30073
0.300691
0.300652
0.300608
0.300572
0.300541
0.300495
0.300455
0.30042
0.300417
0.300404
0.300406
0.300455
0.300564
0.300966
0.301666
0.303225
0.304873
0.305275
0.304616
0.301929
0.311809
0.311064
0.310227
0.309321
0.308372
0.307418
0.306536
0.305724
0.305004
0.304364
0.303806
0.303325
0.302919
0.302583
0.302317
0.302114
0.301971
0.301878
0.301829
0.301812
0.301828
0.301846
0.301852
0.301848
0.301838
0.301821
0.301804
0.301793
0.301798
0.301834
0.301899
0.301977
0.302049
0.302107
0.302148
0.302173
0.302185
0.30219
0.302188
0.30218
0.302138
0.302045
0.30194
0.301845
0.301759
0.301695
0.301662
0.301648
0.301642
0.301645
0.301653
0.301685
0.301772
0.301836
0.301864
0.301871
0.30186
0.301806
0.301765
0.301757
0.301768
0.301772
0.301763
0.301768
0.301774
0.301738
0.301655
0.301624
0.301656
0.301739
0.301754
0.301739
0.301771
0.30186
0.301921
0.301941
0.301878
0.301822
0.301811
0.301811
0.301754
0.301691
0.301652
0.301619
0.301611
0.301624
0.301582
0.301546
0.301487
0.301407
0.301351
0.301315
0.301296
0.301293
0.301374
0.301393
0.30125
0.301233
0.301249
0.301192
0.301165
0.301134
0.301094
0.301059
0.301041
0.301025
0.300985
0.300919
0.300862
0.300823
0.300803
0.300772
0.300751
0.300733
0.300739
0.300733
0.300739
0.300722
0.300716
0.300701
0.300702
0.300662
0.300603
0.300637
0.300699
0.300816
0.300951
0.301315
0.302215
0.303913
0.305329
0.305619
0.304782
0.301981
0.311925
0.310973
0.309999
0.309038
0.308116
0.307258
0.306471
0.30573
0.30504
0.304401
0.303832
0.303335
0.30292
0.302582
0.30232
0.302125
0.30199
0.301905
0.301859
0.301841
0.301845
0.301867
0.301893
0.301913
0.301932
0.301952
0.301989
0.302069
0.302237
0.302562
0.303082
0.303588
0.30402
0.30437
0.304637
0.304828
0.304954
0.305018
0.305034
0.304997
0.304694
0.304049
0.303452
0.303038
0.302783
0.302638
0.302555
0.302496
0.302455
0.30243
0.302417
0.302404
0.302365
0.302302
0.302248
0.302213
0.302202
0.302215
0.302225
0.302208
0.302162
0.302132
0.302109
0.302072
0.302037
0.302024
0.302029
0.302039
0.302027
0.301978
0.301951
0.301939
0.301918
0.301865
0.301784
0.301745
0.301764
0.301804
0.301808
0.301782
0.301787
0.301817
0.301827
0.301826
0.301809
0.301782
0.301766
0.301747
0.301729
0.301714
0.30169
0.301653
0.301595
0.30153
0.301471
0.301439
0.30146
0.301418
0.301382
0.301367
0.301326
0.301295
0.301266
0.301237
0.301186
0.301151
0.301125
0.301097
0.301054
0.300989
0.300939
0.300901
0.3008
0.30072
0.300658
0.300606
0.300553
0.300518
0.300483
0.300468
0.300458
0.300489
0.300551
0.300465
0.300426
0.300451
0.300511
0.300908
0.301683
0.303474
0.3053
0.306009
0.305222
0.302223
0.311672
0.310831
0.310018
0.3092
0.308421
0.307599
0.306748
0.305918
0.305147
0.304454
0.303864
0.303366
0.302965
0.30264
0.302385
0.302195
0.302061
0.301982
0.301942
0.30194
0.301976
0.302057
0.302168
0.302295
0.302461
0.302686
0.30302
0.303566
0.304509
0.306122
0.308415
0.310523
0.312321
0.313769
0.314865
0.315618
0.316067
0.316272
0.316269
0.316082
0.314948
0.312502
0.310079
0.308306
0.307095
0.306297
0.305758
0.305363
0.305053
0.304804
0.304603
0.304442
0.304304
0.304174
0.304042
0.3039
0.303741
0.303566
0.30336
0.303133
0.302921
0.302735
0.302582
0.302459
0.30236
0.302275
0.302191
0.302077
0.301975
0.301896
0.301825
0.301751
0.301688
0.301646
0.301626
0.301613
0.301572
0.301502
0.30145
0.301414
0.301374
0.301321
0.301273
0.301242
0.301215
0.301178
0.301131
0.301068
0.301009
0.300968
0.300941
0.300928
0.300927
0.300938
0.300946
0.30095
0.300938
0.300948
0.300966
0.300955
0.300953
0.300936
0.300907
0.300884
0.300874
0.300854
0.30083
0.300813
0.300806
0.300813
0.300798
0.300777
0.300806
0.30082
0.300793
0.300776
0.300753
0.300731
0.300695
0.300633
0.300576
0.300513
0.300515
0.300499
0.300521
0.300597
0.300709
0.301051
0.302027
0.304112
0.306144
0.306859
0.306129
0.302602
0.31201
0.311318
0.310523
0.309604
0.308591
0.307585
0.306663
0.305827
0.305099
0.304459
0.303902
0.303422
0.303025
0.302707
0.302497
0.30238
0.302355
0.302431
0.302611
0.302912
0.303337
0.303895
0.304568
0.305373
0.306349
0.307559
0.309168
0.311528
0.315308
0.321515
0.329887
0.33744
0.343832
0.348952
0.352825
0.355524
0.357195
0.357983
0.358034
0.357459
0.353753
0.34557
0.33709
0.330898
0.326633
0.32376
0.321755
0.320267
0.319109
0.318183
0.317431
0.3168
0.316235
0.315686
0.315125
0.314522
0.313856
0.313111
0.312246
0.311233
0.310258
0.309391
0.308641
0.307993
0.30742
0.306904
0.306441
0.306027
0.305636
0.305239
0.304826
0.304436
0.304091
0.303791
0.303526
0.303293
0.303103
0.302955
0.30283
0.302705
0.302575
0.30246
0.302367
0.302281
0.302207
0.302159
0.302146
0.302188
0.302246
0.302255
0.302182
0.302058
0.301951
0.301841
0.301707
0.301583
0.301481
0.301368
0.301257
0.301182
0.301123
0.301066
0.301019
0.30098
0.30093
0.300888
0.30085
0.300814
0.300755
0.300706
0.300673
0.300655
0.300642
0.300622
0.300603
0.300587
0.300573
0.300563
0.300565
0.300572
0.300577
0.300546
0.30048
0.300476
0.300474
0.300516
0.300587
0.300948
0.30193
0.304411
0.307015
0.308247
0.307732
0.303219
0.312508
0.311523
0.310489
0.309445
0.308454
0.307539
0.30671
0.305944
0.305245
0.304605
0.30404
0.303583
0.30328
0.303138
0.303165
0.303327
0.303733
0.30445
0.305548
0.307057
0.308964
0.311316
0.31412
0.31748
0.321491
0.326383
0.332587
0.34118
0.354364
0.37497
0.400271
0.422303
0.440461
0.454694
0.465298
0.472629
0.477115
0.479247
0.47944
0.477911
0.468371
0.446973
0.423447
0.406158
0.394131
0.385816
0.37978
0.375139
0.371442
0.368412
0.365849
0.363596
0.361522
0.3595
0.357443
0.355274
0.352909
0.350198
0.346904
0.342875
0.338906
0.335366
0.332286
0.32963
0.327306
0.325194
0.32319
0.32122
0.319247
0.317249
0.315254
0.313343
0.311595
0.310075
0.308814
0.307798
0.306975
0.306277
0.305648
0.30507
0.304542
0.304044
0.303576
0.303198
0.302973
0.302904
0.302977
0.303444
0.303994
0.304173
0.304034
0.303635
0.303447
0.303312
0.302995
0.302723
0.302569
0.302369
0.302076
0.301849
0.301685
0.301604
0.301557
0.301559
0.301596
0.301614
0.301561
0.301419
0.301327
0.301283
0.301234
0.301175
0.301101
0.301043
0.300991
0.300935
0.300872
0.300822
0.300776
0.30074
0.300697
0.300672
0.300661
0.300564
0.300502
0.300491
0.300568
0.300929
0.302012
0.304908
0.308371
0.3104
0.309325
0.303767
0.312329
0.31135
0.310413
0.309491
0.30862
0.307786
0.306967
0.306155
0.305426
0.304806
0.304362
0.304145
0.304099
0.304212
0.304871
0.30643
0.308868
0.312661
0.317541
0.323502
0.330646
0.339114
0.349012
0.360533
0.37393
0.38993
0.409783
0.436145
0.473667
0.528083
0.587485
0.637845
0.678282
0.709455
0.732537
0.748582
0.758737
0.764128
0.765875
0.764033
0.74739
0.707945
0.659779
0.623585
0.597655
0.578919
0.564581
0.553024
0.543551
0.53571
0.52909
0.523267
0.517804
0.512358
0.506719
0.500668
0.49391
0.485935
0.475998
0.463465
0.450532
0.438991
0.428867
0.420044
0.412174
0.404859
0.397772
0.390713
0.383567
0.376101
0.368172
0.360358
0.353054
0.346541
0.340954
0.336254
0.332263
0.32873
0.32545
0.322303
0.31926
0.316366
0.313751
0.311653
0.310347
0.309896
0.310319
0.313447
0.31722
0.318465
0.317677
0.315239
0.314029
0.313099
0.310876
0.308955
0.307874
0.306438
0.304381
0.302942
0.30207
0.301718
0.301558
0.301691
0.302075
0.302279
0.302163
0.301478
0.30109
0.300993
0.300925
0.300875
0.300841
0.300808
0.300776
0.300753
0.300745
0.300705
0.300662
0.300608
0.300578
0.300531
0.300485
0.300459
0.300441
0.300445
0.300559
0.301015
0.302646
0.307352
0.314476
0.318742
0.316222
0.305352
0.312391
0.311549
0.310744
0.309933
0.309012
0.308021
0.307129
0.30636
0.305781
0.305497
0.305556
0.305901
0.306801
0.309882
0.314851
0.322026
0.331913
0.344794
0.360917
0.380505
0.40389
0.431083
0.462559
0.498727
0.540058
0.587823
0.643788
0.711668
0.797587
0.90651
1.01172
1.10097
1.17376
1.23101
1.27373
1.30294
1.32032
1.32882
1.33141
1.32624
1.31003
1.2646
1.19935
1.14898
1.11198
1.08362
1.0596
1.03805
1.01902
1.00269
0.988933
0.977109
0.965964
0.954587
0.942386
0.928864
0.913259
0.893772
0.868796
0.836721
0.80291
0.772563
0.745977
0.722873
0.701903
0.681608
0.661061
0.639955
0.618432
0.595766
0.570961
0.545231
0.520747
0.498371
0.478791
0.462069
0.4476
0.434463
0.421844
0.409224
0.396288
0.383388
0.371526
0.362118
0.356627
0.355135
0.359011
0.379324
0.402591
0.41074
0.407821
0.395968
0.390291
0.385921
0.373283
0.361914
0.355448
0.346141
0.331462
0.320765
0.313933
0.310947
0.309574
0.310971
0.314485
0.316291
0.31535
0.309408
0.3059
0.305111
0.304559
0.304008
0.303448
0.302975
0.302554
0.302158
0.301795
0.301485
0.301227
0.301012
0.300831
0.300694
0.3006
0.300541
0.300526
0.300552
0.300632
0.30128
0.304231
0.315862
0.340988
0.353766
0.338669
0.308945
0.313045
0.31223
0.311242
0.310124
0.309095
0.308187
0.307473
0.307073
0.307128
0.307884
0.309531
0.312514
0.320147
0.332021
0.348644
0.371888
0.402456
0.441267
0.48942
0.548369
0.619661
0.704499
0.804296
0.91835
1.04614
1.18558
1.33727
1.50875
1.7004
1.89501
2.07053
2.22414
2.36937
2.50762
2.62605
2.71598
2.78368
2.83876
2.87578
2.89006
2.87345
2.86245
2.84911
2.83245
2.8078
2.77584
2.73353
2.68066
2.62455
2.56784
2.51227
2.46074
2.4134
2.36349
2.31189
2.25868
2.20383
2.13852
2.06156
1.97332
1.88376
1.79797
1.72069
1.65497
1.59611
1.5387
1.4786
1.41384
1.34863
1.28389
1.21507
1.14711
1.0824
1.02236
0.968469
0.921576
0.880051
0.841264
0.80303
0.762952
0.719645
0.67241
0.627527
0.591549
0.5712
0.566555
0.588535
0.688156
0.799281
0.840441
0.833719
0.792041
0.773056
0.758339
0.704737
0.65422
0.624673
0.578532
0.498949
0.438772
0.398126
0.378298
0.368916
0.378414
0.401496
0.413436
0.408239
0.369981
0.346205
0.340714
0.336942
0.333195
0.329371
0.32608
0.323038
0.32006
0.317175
0.314499
0.312091
0.309965
0.308129
0.306581
0.305322
0.304353
0.303773
0.303531
0.303503
0.306831
0.32103
0.372072
0.46176
0.502445
0.435313
0.33008
0.313286
0.312211
0.311149
0.310173
0.309374
0.308826
0.308708
0.309306
0.311205
0.315145
0.322205
0.33567
0.358448
0.390432
0.433532
0.489332
0.56024
0.650277
0.762808
0.898037
1.0509
1.21127
1.38735
1.58994
1.82202
2.07266
2.31363
2.53273
2.70852
2.80236
2.84191
2.89667
2.96396
3.04411
3.13895
3.26674
3.43212
3.65724
3.97984
4.51928
5.18318
5.70516
6.09373
6.38445
6.59453
6.72756
6.7667
6.62742
6.2582
5.95876
5.78746
5.6241
5.48053
5.36372
5.26398
5.17527
5.11566
5.09952
5.11923
5.1349
5.1077
5.01222
4.84488
4.64602
4.45306
4.27661
4.11713
3.96262
3.79611
3.61984
3.4395
3.24473
3.05232
2.86323
2.69295
2.5469
2.41293
2.28763
2.16692
2.04147
1.91214
1.76645
1.62075
1.49817
1.42256
1.39848
1.46009
1.77506
2.10283
2.22585
2.21257
2.12671
2.08504
2.04831
1.90846
1.76625
1.67726
1.52468
1.23453
1.01195
0.845519
0.750852
0.703476
0.745909
0.843217
0.891603
0.869825
0.702597
0.590946
0.562449
0.542815
0.523395
0.503755
0.486515
0.470115
0.453111
0.436
0.419697
0.404385
0.390115
0.376837
0.364813
0.354349
0.346162
0.341583
0.340054
0.338366
0.363888
0.4387
0.613135
0.776111
0.812547
0.719088
0.450873
0.3132
0.312259
0.311446
0.31083
0.310534
0.310768
0.312062
0.315418
0.322461
0.335162
0.356803
0.392454
0.442997
0.509667
0.595738
0.70823
0.853146
1.02644
1.20878
1.40691
1.62985
1.81185
2.02637
2.32274
2.86862
4.69286
7.0048
7.61933
8.31189
8.75189
8.80206
7.24539
4.73305
3.85647
3.81
4.02503
4.94617
7.67931
12.9019
16.5021
17.9812
19.8566
22.4105
26.8899
33.5052
44.3297
63.9431
97.0994
128.44
67.6609
40.7361
25.2228
16.1404
11.5006
9.47572
8.31468
7.66886
7.39312
7.28358
7.22882
7.1725
7.1036
6.97183
6.77528
6.59977
6.47036
6.3976
6.3631
6.30121
6.13254
5.84795
5.48746