/*--------------------------------*- C++ -*----------------------------------*\
| =========                 |                                                 |
| \\      /  F ield         | OpenFOAM: The Open Source CFD Toolbox           |
|  \\    /   O peration     | Version:  v1912                                 |
|   \\  /    A nd           | Website:  www.openfoam.com                      |
|    \\/     M anipulation  |                                                 |
\*---------------------------------------------------------------------------*/
FoamFile
{
    version     2.0;
    format      ascii;
    class       surfaceScalarField;
    location    "40";
    object      phi;
}
// * * * * * * * * * * * * * * * * * * * * * * * * * * * * * * * * * * * * * //

dimensions      [0 3 -1 0 0 0 0];
oriented        oriented;


internalField   nonuniform List<scalar> 
28285
(
0.134537
0.00719023
0.12687
0.00766659
0.118784
0.00808616
0.110342
0.00844199
0.101616
0.00872621
0.0926785
0.00893725
0.0836098
0.00906873
0.0744862
0.00912356
0.065384
0.00910223
0.0563857
0.00899824
0.0475627
0.00882304
0.0389826
0.00858007
0.0307045
0.00827816
0.0227798
0.00792469
0.0152498
0.00752996
0.00814974
0.00710007
0.00150197
0.00664777
-0.00467918
0.00618114
-0.0103851
0.00570596
-0.0156167
0.00523153
-0.020381
0.00476433
-0.024691
0.00430999
-0.028564
0.00387305
-0.0320211
0.00345708
-0.0350859
0.00306476
-0.0377838
0.00269792
-0.040141
0.00235723
-0.042184
0.00204293
-0.0439387
0.00175475
-0.0454307
0.00149197
-0.0466842
0.00125351
-0.0477222
0.00103804
-0.0485663
0.000844097
-0.0492364
0.000670095
-0.0497509
0.000514483
-0.0501265
0.000375628
-0.0503785
0.000252
-0.0505206
0.000142115
-0.0505652
4.45138e-05
-0.0505235
-4.16199e-05
-0.0504055
-0.000118001
-0.0502199
-0.0001856
-0.0499745
-0.000245445
-0.049676
-0.000298457
-0.0493306
-0.000345465
-0.0489434
-0.000387136
-0.0485192
-0.000424237
-0.0480617
-0.000457455
-0.0475744
-0.000487319
-0.0470609
-0.000513518
-0.0465215
-0.000539444
-0.04596
-0.000561493
-0.0453781
-0.000581902
-0.044778
-0.000600026
-0.0441611
-0.000616916
-0.0435288
-0.000632332
-0.0428826
-0.000646227
-0.0422229
-0.000659692
-0.0415511
-0.000671752
-0.040868
-0.000683069
-0.0401749
-0.000693143
-0.0394726
-0.000702339
-0.0387607
-0.000711884
-0.0380414
-0.00071927
-0.0373148
-0.00072663
-0.0365806
-0.000734134
-0.035841
-0.000739668
-0.0350956
-0.00074542
-0.0343455
-0.000750022
-0.0335912
-0.000754342
-0.0328336
-0.000757638
-0.0320735
-0.000760051
-0.0313116
-0.000761949
-0.0305482
-0.000763393
-0.0297846
-0.000763542
-0.029021
-0.000763601
-0.0282582
-0.000762864
-0.0274964
-0.000761744
-0.0267363
-0.000760076
-0.0259787
-0.000757646
-0.0252239
-0.000754834
-0.0244727
-0.000751187
-0.0237255
-0.000747212
-0.0229829
-0.000742515
-0.0222456
-0.000737364
-0.0215142
-0.000731411
-0.0207891
-0.000725071
-0.0200711
-0.000718043
-0.0193606
-0.000710426
-0.0186585
-0.00070217
-0.017965
-0.000693437
-0.0172809
-0.000684128
-0.0166065
-0.00067435
-0.0159424
-0.000664101
-0.0152886
-0.000653877
-0.0146454
-0.000643192
-0.0140136
-0.000631728
-0.0133933
-0.00062036
-0.0127844
-0.000608885
-0.0121877
-0.000596741
-0.0116032
-0.000584412
-0.0110316
-0.000571664
-0.010473
-0.00055855
-0.00992796
-0.000545075
-0.00939667
-0.000531284
-0.00887944
-0.000517233
-0.00837655
-0.000502893
-0.00788819
-0.000488358
-0.00741449
-0.000473697
-0.0069555
-0.000458997
-0.00651127
-0.000444225
-0.00608183
-0.000429444
-0.00566712
-0.000414706
-0.00526711
-0.000400012
-0.00488178
-0.000385325
-0.00451116
-0.000370622
-0.00415519
-0.000355973
-0.00381402
-0.00034117
-0.00348751
-0.000326512
-0.00317585
-0.000311658
-0.00287863
-0.000297216
-0.00259579
-0.000282838
-0.00232628
-0.000269519
-0.00206926
-0.00025701
-0.00182292
-0.000246341
-0.00158507
-0.000237849
-0.00135288
-0.000232195
-0.00112396
-0.000228922
-0.000898874
-0.000225084
-0.000687785
-0.000211089
-0.000514206
-0.000173579
-0.000385961
-0.000128245
-0.000288785
-9.71759e-05
-8.15906e-05
-0.000207194
0.134176
0.0144062
0.126485
0.0153576
0.118377
0.0161947
0.109915
0.0169038
0.101171
0.0174697
0.09222
0.0178887
0.0831399
0.0181488
0.0740102
0.0182533
0.0649111
0.0182013
0.0559223
0.0179871
0.0471128
0.0176325
0.0385485
0.0171444
0.0302887
0.016538
0.0223826
0.0158308
0.0148732
0.0150394
0.00779351
0.0141797
0.00116831
0.013273
-0.00498811
0.0123376
-0.0106693
0.0113872
-0.0158756
0.0104379
-0.0206147
0.00950344
-0.0248999
0.00859511
-0.0287487
0.00772192
-0.0321826
0.00689094
-0.0352253
0.00610751
-0.0379026
0.00537522
-0.0402408
0.00469537
-0.0422662
0.00406837
-0.0440051
0.00349358
-0.0454826
0.00296952
-0.0467231
0.00249402
-0.0477495
0.00206446
-0.0485833
0.00167785
-0.0492442
0.00133103
-0.0497506
0.00102086
-0.0501191
0.000744134
-0.0503649
0.00049779
-0.0505017
0.000278967
-0.0505422
8.49696e-05
-0.0504967
-8.70886e-05
-0.0503756
-0.000239163
-0.0501872
-0.000373923
-0.0499394
-0.000493256
-0.049639
-0.00059888
-0.049292
-0.000692502
-0.0489034
-0.000775673
-0.0484779
-0.000849826
-0.0480194
-0.000915921
-0.0475316
-0.000975066
-0.047018
-0.00102718
-0.0464782
-0.00107925
-0.045916
-0.00112366
-0.045334
-0.00116389
-0.0447343
-0.00119971
-0.0441175
-0.0012337
-0.0434848
-0.00126506
-0.0428385
-0.00129255
-0.0421792
-0.00131901
-0.0415078
-0.00134315
-0.040826
-0.00136484
-0.0401323
-0.00138691
-0.0394297
-0.00140493
-0.0387198
-0.0014217
-0.0380002
-0.00143889
-0.0372733
-0.00145354
-0.0365408
-0.00146662
-0.035802
-0.00147851
-0.0350563
-0.00149111
-0.0343064
-0.00149991
-0.0335537
-0.00150706
-0.0327963
-0.001515
-0.0320366
-0.00151982
-0.0312758
-0.00152272
-0.0305129
-0.00152624
-0.0297497
-0.00152682
-0.0289871
-0.00152615
-0.0282251
-0.00152484
-0.027464
-0.00152292
-0.0267045
-0.00151955
-0.0259477
-0.0015144
-0.0251937
-0.00150889
-0.0244432
-0.00150166
-0.0236967
-0.00149367
-0.022955
-0.00148423
-0.0222184
-0.00147395
-0.0214878
-0.00146204
-0.0207635
-0.00144935
-0.0200463
-0.00143528
-0.0193367
-0.00142005
-0.0186353
-0.00140355
-0.0179427
-0.00138608
-0.0172593
-0.00136746
-0.0165858
-0.00134791
-0.0159224
-0.00132741
-0.0152693
-0.00130698
-0.0146269
-0.00128561
-0.013996
-0.00126269
-0.0133764
-0.00123997
-0.0127682
-0.00121703
-0.0121722
-0.00119275
-0.0115885
-0.0011681
-0.0110176
-0.00114262
-0.0104597
-0.0011164
-0.00991533
-0.00108946
-0.00938472
-0.00106189
-0.00886816
-0.0010338
-0.00836592
-0.00100513
-0.00787819
-0.000976081
-0.00740512
-0.000946775
-0.00694672
-0.000917392
-0.00650308
-0.000887866
-0.0060742
-0.000858323
-0.00566004
-0.000828866
-0.00526056
-0.000799497
-0.00487574
-0.00077014
-0.00450561
-0.000740755
-0.00415011
-0.000711474
-0.00380939
-0.00068189
-0.00348331
-0.000652587
-0.00317206
-0.000622906
-0.00287525
-0.000594035
-0.00259277
-0.00056531
-0.00232362
-0.000538677
-0.00206693
-0.000513697
-0.00182086
-0.000492411
-0.00158328
-0.00047543
-0.00135133
-0.000464145
-0.00112265
-0.000457602
-0.000897809
-0.000449923
-0.000687004
-0.000421895
-0.000513632
-0.00034695
-0.000385545
-0.000256333
-0.000288511
-0.00019421
-0.000163126
-0.000206976
0.134156
0.0216632
0.126422
0.0230908
0.118271
0.0243458
0.109767
0.0254079
0.100981
0.0262556
0.0919908
0.0268791
0.0828742
0.0272655
0.0737125
0.027415
0.0645874
0.0273264
0.0555698
0.0270047
0.0467368
0.0264655
0.038153
0.0257282
0.0298812
0.0248098
0.0219711
0.0237409
0.0144636
0.0225469
0.00739332
0.02125
0.000777868
0.0198884
-0.00536263
0.0184781
-0.0110243
0.0170488
-0.0162089
0.0156224
-0.020925
0.0142195
-0.0251865
0.0128566
-0.0290117
0.0115471
-0.0324223
0.0103015
-0.0354425
0.0091277
-0.0380982
0.00803097
-0.040416
0.00701314
-0.0424224
0.00607477
-0.0441437
0.00521483
-0.0456051
0.004431
-0.0468311
0.00371997
-0.0478444
0.00307775
-0.0486664
0.00249985
-0.0493169
0.00198154
-0.049814
0.00151799
-0.0501743
0.00110438
-0.0504127
0.000736204
-0.0505429
0.000409142
-0.0505768
0.00011893
-0.0505265
-0.000137368
-0.0504009
-0.000364795
-0.0502087
-0.000566133
-0.0499576
-0.000744408
-0.0496542
-0.000902195
-0.0493047
-0.001042
-0.0489142
-0.00116618
-0.0484871
-0.00127698
-0.048027
-0.00137597
-0.0475375
-0.0014646
-0.047022
-0.00154271
-0.0464809
-0.00162031
-0.0459184
-0.00168614
-0.0453357
-0.00174662
-0.0447349
-0.00180054
-0.0441174
-0.00185118
-0.0434848
-0.00189761
-0.0428372
-0.0019402
-0.0421773
-0.00197893
-0.0415061
-0.0020143
-0.0408229
-0.00204802
-0.0401289
-0.0020809
-0.039427
-0.00210685
-0.0387151
-0.00213363
-0.0379966
-0.00215734
-0.0372699
-0.00218029
-0.0365359
-0.00220063
-0.0357965
-0.00221784
-0.0350517
-0.00223593
-0.0343023
-0.00224936
-0.0335476
-0.00226174
-0.032791
-0.00227152
-0.0320315
-0.00227941
-0.0312697
-0.00228447
-0.0305073
-0.00228865
-0.0297445
-0.0022896
-0.0289813
-0.0022894
-0.0282191
-0.00228705
-0.0274583
-0.00228369
-0.026699
-0.00227885
-0.0259419
-0.00227151
-0.0251878
-0.00226293
-0.0244376
-0.00225192
-0.0236911
-0.00224012
-0.0229495
-0.00222591
-0.0222129
-0.00221047
-0.0214824
-0.00219257
-0.0207582
-0.00217355
-0.0200411
-0.00215242
-0.0193315
-0.00212957
-0.0186303
-0.0021048
-0.0179378
-0.0020786
-0.0172546
-0.00205066
-0.0165812
-0.00202133
-0.015918
-0.00199058
-0.015265
-0.00195993
-0.0146228
-0.00192789
-0.013992
-0.0018935
-0.0133725
-0.00185941
-0.0127645
-0.00182502
-0.0121687
-0.0017886
-0.0115851
-0.00175164
-0.0110143
-0.00171341
-0.0104566
-0.00167409
-0.00991241
-0.00163369
-0.00938196
-0.00159234
-0.00886554
-0.00155022
-0.00836345
-0.00150722
-0.00787588
-0.00146365
-0.00740295
-0.0014197
-0.0069447
-0.00137564
-0.0065012
-0.00133137
-0.00607245
-0.00128707
-0.00565842
-0.0012429
-0.00525906
-0.00119886
-0.00487436
-0.00115484
-0.00450434
-0.00111078
-0.00414894
-0.00106687
-0.00380832
-0.00102251
-0.00348234
-0.00097857
-0.00317118
-0.000934061
-0.00287445
-0.000890772
-0.00259206
-0.000847698
-0.00232297
-0.000807766
-0.00206635
-0.000770313
-0.00182036
-0.000738407
-0.00158282
-0.000712966
-0.00135091
-0.000696053
-0.00112228
-0.00068624
-0.000897475
-0.000674725
-0.000686695
-0.000632674
-0.000513405
-0.00052024
-0.000385401
-0.000384337
-0.000288423
-0.000291187
-0.000244607
-0.000206942
0.134226
0.0289798
0.126431
0.0308857
0.118217
0.0325601
0.10965
0.0339742
0.100804
0.0351023
0.0917549
0.0359278
0.0825839
0.0364365
0.0733727
0.0366262
0.0642034
0.0364957
0.0551511
0.036057
0.0462898
0.0353267
0.0376885
0.0343295
0.0294025
0.0330957
0.021487
0.0316565
0.0139814
0.0300525
0.00691453
0.0283168
0.000318676
0.0264843
-0.0058097
0.0246064
-0.0114511
0.0226903
-0.0166123
0.0207836
-0.021303
0.0189101
-0.0255377
0.0170914
-0.0293356
0.015345
-0.0327188
0.0136848
-0.0357123
0.0121211
-0.0383422
0.0106609
-0.0406354
0.00930635
-0.0426186
0.00805802
-0.0443183
0.00691447
-0.0457598
0.00587249
-0.0469674
0.00492761
-0.0479641
0.00407441
-0.048771
0.00330682
-0.049408
0.00261854
-0.0498931
0.0020031
-0.0502429
0.00145416
-0.0504723
0.000965561
-0.0505946
0.000531485
-0.0506222
0.000146546
-0.0505653
-0.000194346
-0.0504341
-0.000495989
-0.050237
-0.000763171
-0.0499817
-0.000999743
-0.0496747
-0.00120916
-0.049322
-0.00139477
-0.0489286
-0.00155955
-0.0484991
-0.00170642
-0.0480374
-0.00183775
-0.0475466
-0.00195534
-0.0470301
-0.00205928
-0.0464876
-0.00216274
-0.0459236
-0.0022502
-0.0453394
-0.00233077
-0.0447369
-0.00240309
-0.0441179
-0.00247018
-0.0434851
-0.00253033
-0.0428384
-0.00258697
-0.0421786
-0.0026387
-0.0415043
-0.00268862
-0.040821
-0.00273128
-0.0401275
-0.00277441
-0.0394256
-0.00280876
-0.0387139
-0.00284532
-0.0379933
-0.00287795
-0.0372666
-0.00290699
-0.0365336
-0.00293367
-0.0357931
-0.00295832
-0.0350477
-0.00298131
-0.0342977
-0.00299937
-0.0335441
-0.00301536
-0.0327862
-0.00302941
-0.0320268
-0.00303879
-0.0312657
-0.00304565
-0.030502
-0.00305231
-0.0297391
-0.00305254
-0.0289769
-0.00305151
-0.0282144
-0.00304962
-0.027453
-0.00304511
-0.0266936
-0.00303823
-0.025937
-0.00302806
-0.0251829
-0.00301701
-0.0244324
-0.00300244
-0.023686
-0.00298653
-0.0229445
-0.00296742
-0.022208
-0.002947
-0.0214775
-0.00292306
-0.0207534
-0.00289768
-0.0200363
-0.00286949
-0.0193269
-0.002839
-0.0186257
-0.00280597
-0.0179333
-0.00277101
-0.0172502
-0.00273374
-0.0165769
-0.00269463
-0.0159139
-0.0026536
-0.0152611
-0.00261275
-0.0146189
-0.00257003
-0.0139882
-0.00252417
-0.0133689
-0.00247871
-0.0127611
-0.00243288
-0.0121654
-0.00238431
-0.011582
-0.00233503
-0.0110113
-0.00228407
-0.0104538
-0.00223164
-0.00990969
-0.00217777
-0.00937938
-0.00212264
-0.00886312
-0.00206648
-0.00836118
-0.00200917
-0.00787375
-0.00195108
-0.00740097
-0.00189249
-0.00694286
-0.00183375
-0.0064995
-0.00177473
-0.00607089
-0.00171568
-0.00565699
-0.0016568
-0.00525775
-0.0015981
-0.00487318
-0.00153942
-0.00450327
-0.00148068
-0.00414799
-0.00142215
-0.00380748
-0.00136302
-0.0034816
-0.00130445
-0.00317054
-0.00124512
-0.0028739
-0.00118741
-0.0025916
-0.00113
-0.0023226
-0.00107677
-0.00206604
-0.00102687
-0.00182009
-0.000984366
-0.00158259
-0.000950459
-0.0013507
-0.000927947
-0.00112206
-0.000914879
-0.000897253
-0.000899531
-0.000686491
-0.000843436
-0.000513286
-0.000693445
-0.000385371
-0.000512252
-0.000288447
-0.000388112
-0.0003261
-0.000206954
0.134431
0.0363672
0.126562
0.0387545
0.118271
0.0408511
0.109627
0.042619
0.100702
0.0440267
0.0915782
0.0450517
0.0823359
0.0456789
0.0730595
0.0459026
0.0638301
0.0457251
0.0547274
0.0451597
0.045825
0.0442291
0.0371902
0.0429644
0.0288826
0.0414034
0.0209516
0.0395874
0.0134407
0.0375634
0.00637501
0.0353825
-0.000218104
0.0330774
-0.00632449
0.0307128
-0.0119444
0.0283101
-0.0170803
0.0259196
-0.0217428
0.0235726
-0.0259474
0.021296
-0.029714
0.0191116
-0.0330657
0.0170365
-0.0360279
0.0150833
-0.0386275
0.0132606
-0.0408919
0.0115707
-0.0428482
0.0100142
-0.0445227
0.008589
-0.0459411
0.00729088
-0.0471276
0.00611413
-0.0481051
0.0050519
-0.0488948
0.00409656
-0.0495164
0.00324009
-0.0499876
0.00247437
-0.050325
0.00179147
-0.0505432
0.00118381
-0.0506558
0.000644033
-0.0506743
0.000165135
-0.0506107
-0.000257966
-0.0504733
-0.000633418
-0.0502708
-0.000965696
-0.0500106
-0.00125986
-0.0496996
-0.00152018
-0.0493435
-0.00175094
-0.0489471
-0.00195592
-0.0485148
-0.00213868
-0.0480505
-0.00230211
-0.0475574
-0.00244838
-0.0470384
-0.00257835
-0.0464938
-0.00270728
-0.0459282
-0.00281585
-0.0453441
-0.00291479
-0.0447421
-0.00300513
-0.044123
-0.00308929
-0.0434888
-0.00316457
-0.0428394
-0.00323638
-0.0421784
-0.0032997
-0.0415052
-0.00336177
-0.0408222
-0.00341434
-0.040128
-0.00346854
-0.0394226
-0.00351422
-0.0387116
-0.00355631
-0.0379915
-0.00359803
-0.0372653
-0.00363319
-0.0365306
-0.00366841
-0.0357893
-0.00369956
-0.0350446
-0.00372597
-0.0342945
-0.00374948
-0.0335403
-0.0037696
-0.0327824
-0.00378731
-0.0320222
-0.00379899
-0.0312616
-0.00380622
-0.0304977
-0.00381625
-0.0297352
-0.00381507
-0.0289712
-0.00381552
-0.0282093
-0.00381149
-0.0274487
-0.00380566
-0.0266887
-0.00379825
-0.0259315
-0.00378526
-0.0251778
-0.00377076
-0.0244277
-0.00375251
-0.0236812
-0.00373308
-0.0229395
-0.0037091
-0.0222031
-0.00368336
-0.0214727
-0.00365348
-0.0207486
-0.00362178
-0.0200316
-0.0035865
-0.0193222
-0.00354837
-0.0186211
-0.00350705
-0.0179288
-0.00346333
-0.0172459
-0.0034167
-0.0165727
-0.00336782
-0.0159098
-0.00331648
-0.0152571
-0.00326544
-0.0146151
-0.00321204
-0.0139846
-0.00315469
-0.0133654
-0.00309786
-0.0127577
-0.00304061
-0.0121621
-0.00297989
-0.0115789
-0.00291829
-0.0110084
-0.00285459
-0.010451
-0.00278904
-0.00990702
-0.00272171
-0.00937686
-0.0026528
-0.00886074
-0.00258261
-0.00835894
-0.00251096
-0.00787166
-0.00243835
-0.00739903
-0.00236512
-0.00694106
-0.00229172
-0.00649783
-0.00221796
-0.00606935
-0.00214416
-0.00565558
-0.00207057
-0.00525646
-0.00199722
-0.00487199
-0.00192388
-0.00450219
-0.00185048
-0.004147
-0.00177734
-0.00380659
-0.00170344
-0.0034808
-0.00163023
-0.00316983
-0.00155609
-0.00287327
-0.00148397
-0.00259105
-0.00141222
-0.00232212
-0.0013457
-0.00206563
-0.00128335
-0.00181974
-0.00123026
-0.00158226
-0.00118793
-0.00135039
-0.00115981
-0.00112175
-0.00114352
-0.000896961
-0.00112432
-0.000686251
-0.00105415
-0.000513098
-0.000866598
-0.000385255
-0.000640095
-0.00028838
-0.000484987
-0.000407557
-0.000206923
0.134769
0.0438349
0.126813
0.0467109
0.118431
0.0492323
0.109693
0.0513574
0.100675
0.0530442
0.0914592
0.054268
0.0821284
0.0550097
0.0727687
0.0552623
0.0634646
0.0550292
0.0542944
0.0543299
0.0453354
0.053188
0.0366554
0.0516444
0.0283152
0.0497436
0.0203632
0.0475394
0.0128363
0.0450903
0.00577473
0.0424441
-0.000813921
0.039666
-0.00690552
0.0368044
-0.0125032
0.0339078
-0.0176122
0.0310286
-0.022244
0.0282044
-0.0264154
0.0254674
-0.0301473
0.0228435
-0.0334638
0.020353
-0.0363911
0.0180106
-0.0389567
0.0158262
-0.0411884
0.0138025
-0.0431136
0.0119395
-0.0447591
0.0102345
-0.0461507
0.00868242
-0.0473127
0.00727613
-0.0482679
0.00600713
-0.0490376
0.00486626
-0.0496413
0.00384374
-0.0500967
0.00292981
-0.0504201
0.00211488
-0.0506261
0.00138977
-0.0507277
0.000745687
-0.0507369
0.000174322
-0.0506642
-0.000330639
-0.0505192
-0.00077842
-0.0503102
-0.00117477
-0.0500445
-0.00152557
-0.0497286
-0.001836
-0.0493684
-0.00211122
-0.0489684
-0.00235585
-0.048533
-0.00257414
-0.0480657
-0.0027694
-0.0475701
-0.00294393
-0.0470492
-0.00309924
-0.0465048
-0.00325174
-0.0459392
-0.00338138
-0.0453536
-0.0035004
-0.0447489
-0.00360986
-0.0441269
-0.00371129
-0.0434908
-0.00380065
-0.0428429
-0.00388432
-0.0421805
-0.00396207
-0.0415082
-0.00403407
-0.0408207
-0.00410183
-0.0401258
-0.00416346
-0.0394243
-0.00421575
-0.038712
-0.00426859
-0.0379919
-0.00431807
-0.037263
-0.00436214
-0.0365264
-0.004405
-0.0357884
-0.0044376
-0.0350441
-0.00447026
-0.034292
-0.00450154
-0.0335349
-0.00452673
-0.03278
-0.0045422
-0.0320204
-0.00455857
-0.0312564
-0.00457028
-0.0304941
-0.00457852
-0.0297314
-0.00457775
-0.028967
-0.00457993
-0.0282053
-0.00457315
-0.0274444
-0.00456656
-0.026684
-0.00455865
-0.0259278
-0.00454146
-0.0251736
-0.00452497
-0.0244226
-0.00450352
-0.0236768
-0.00447889
-0.0229352
-0.00445069
-0.0221985
-0.00442004
-0.0214682
-0.00438383
-0.0207441
-0.00434587
-0.0200271
-0.0043035
-0.0193178
-0.00425769
-0.0186167
-0.00420808
-0.0179245
-0.00415557
-0.0172416
-0.00409956
-0.0165685
-0.00404091
-0.0159058
-0.00397923
-0.0152532
-0.00391801
-0.0146113
-0.00385394
-0.0139809
-0.00378509
-0.0133619
-0.00371687
-0.0127543
-0.00364821
-0.0121589
-0.00357533
-0.0115757
-0.00350141
-0.0110053
-0.00342498
-0.0104481
-0.00334632
-0.00990427
-0.00326552
-0.00937425
-0.00318281
-0.00885827
-0.00309859
-0.00835661
-0.00301262
-0.00786948
-0.00292549
-0.00739698
-0.00283762
-0.00693915
-0.00274955
-0.00649606
-0.00266105
-0.00606771
-0.0025725
-0.00565407
-0.00248421
-0.00525507
-0.00239621
-0.00487073
-0.00230823
-0.00450104
-0.00222017
-0.00414596
-0.00213241
-0.00380565
-0.00204375
-0.00347997
-0.00195592
-0.00316909
-0.00186697
-0.00287263
-0.00178042
-0.0025905
-0.00169436
-0.00232166
-0.00161454
-0.00206525
-0.00153976
-0.00181941
-0.0014761
-0.00158202
-0.00142532
-0.00135023
-0.0013916
-0.00112159
-0.00137216
-0.000896738
-0.00134917
-0.000686002
-0.00126488
-0.000512916
-0.00103968
-0.000385185
-0.000767826
-0.000288374
-0.000581798
-0.000489008
-0.000206923
0.135238
0.0513968
0.127181
0.0547684
0.118692
0.0577209
0.109844
0.0602056
0.100714
0.0621737
0.0913876
0.0635948
0.0819506
0.0644467
0.0724909
0.064722
0.0630944
0.0644257
0.053844
0.0635803
0.0448165
0.0622156
0.0360804
0.0603806
0.027696
0.058128
0.0197139
0.0555215
0.0121752
0.052629
0.00510247
0.0495168
-0.00147849
0.046247
-0.00755619
0.0428821
-0.0131306
0.0394823
-0.0182104
0.0361083
-0.0228084
0.0328024
-0.0269428
0.0296018
-0.0306358
0.0265366
-0.0339127
0.0236298
-0.0368004
0.0208983
-0.0393276
0.0183534
-0.0415224
0.0159973
-0.0434129
0.0138299
-0.045026
0.0118476
-0.0463875
0.0100439
-0.0475219
0.00841055
-0.0484521
0.00693732
-0.0491991
0.00561334
-0.0497825
0.00442705
-0.0502197
0.00336709
-0.0505271
0.00242222
-0.0507189
0.00158163
-0.0508083
0.000835084
-0.0508069
0.000172842
-0.050725
-0.000412509
-0.0505718
-0.000931584
-0.0503556
-0.00139095
-0.0500838
-0.00179738
-0.0497627
-0.00215715
-0.0493977
-0.00247618
-0.0489936
-0.00275994
-0.0485548
-0.00301298
-0.048085
-0.00323918
-0.0475878
-0.00344117
-0.0470644
-0.00362265
-0.0465171
-0.00379903
-0.0459474
-0.00395102
-0.0453581
-0.00408977
-0.0447519
-0.00421599
-0.0441328
-0.0043304
-0.0434982
-0.00443529
-0.0428494
-0.0045331
-0.0421844
-0.00462709
-0.0415085
-0.00470995
-0.0408245
-0.00478583
-0.0401312
-0.00485674
-0.0394266
-0.00492037
-0.0387114
-0.00498386
-0.03799
-0.00503939
-0.0372608
-0.00509136
-0.0365289
-0.00513688
-0.035788
-0.00517849
-0.0350399
-0.00521836
-0.034289
-0.00525242
-0.0335355
-0.00528026
-0.0327785
-0.00529917
-0.0320168
-0.00532036
-0.0312522
-0.00533487
-0.0304933
-0.00533736
-0.029727
-0.00534404
-0.0289638
-0.0053432
-0.0282013
-0.00533567
-0.0274393
-0.00532852
-0.0266806
-0.00531738
-0.0259241
-0.00529796
-0.0251686
-0.00528046
-0.0244193
-0.00525284
-0.0236722
-0.00522592
-0.022931
-0.00519189
-0.0221945
-0.00515655
-0.0214641
-0.00511428
-0.0207399
-0.00507006
-0.0200229
-0.00502046
-0.0193136
-0.00496699
-0.0186126
-0.00490909
-0.0179204
-0.00484775
-0.0172376
-0.00478232
-0.0165646
-0.00471392
-0.015902
-0.00464186
-0.0152495
-0.0045705
-0.0146077
-0.00449574
-0.0139774
-0.00441537
-0.0133585
-0.00433575
-0.0127511
-0.00425569
-0.0121557
-0.00417066
-0.0115727
-0.00408442
-0.0110025
-0.00399525
-0.0104453
-0.00390346
-0.00990165
-0.00380919
-0.00937177
-0.00371269
-0.00885592
-0.00361444
-0.00835441
-0.00351413
-0.00786742
-0.00341248
-0.00739507
-0.00330997
-0.00693738
-0.00320724
-0.00649442
-0.00310401
-0.00606621
-0.00300072
-0.00565269
-0.00289773
-0.00525381
-0.00279509
-0.00486958
-0.00269246
-0.0045
-0.00258975
-0.00414503
-0.00248739
-0.00380481
-0.00238397
-0.00347922
-0.00228151
-0.00316843
-0.00217775
-0.00287206
-0.00207679
-0.00259001
-0.00197641
-0.00232125
-0.00188329
-0.00206492
-0.0017961
-0.00181915
-0.00172187
-0.00158175
-0.00166272
-0.00134991
-0.00162345
-0.00112129
-0.00160078
-0.000896451
-0.00157401
-0.00068575
-0.00147559
-0.000512732
-0.0012127
-0.000385082
-0.000895476
-0.000288322
-0.000678557
-0.000570432
-0.000206898
0.135841
0.0590655
0.127668
0.0629417
0.119056
0.0663328
0.110079
0.0691826
0.10082
0.0714327
0.0913651
0.07305
0.0818033
0.0740084
0.0722264
0.0742989
0.0627212
0.0739309
0.0533743
0.0729271
0.0442643
0.0713256
0.0354609
0.069184
0.0270243
0.0665645
0.0190077
0.0635381
0.0114465
0.0601901
0.00436601
0.0565973
-0.00221186
0.0528249
-0.00827634
0.0489466
-0.0138261
0.0450321
-0.0188746
0.0411568
-0.0234358
0.0373637
-0.0275296
0.0336956
-0.0311798
0.0301867
-0.0344128
0.0268628
-0.0372568
0.0237424
-0.0397412
0.0208378
-0.041895
0.0181511
-0.0437465
0.0156814
-0.0453232
0.0134242
-0.0466511
0.0113718
-0.0477549
0.00951429
-0.0486573
0.0078397
-0.0493793
0.00633541
-0.0499403
0.00498806
-0.0503577
0.00378445
-0.0506472
0.00271177
-0.0508232
0.0017576
-0.0508985
0.000910379
-0.0508847
0.000159064
-0.0507921
-0.000505148
-0.0506298
-0.00109387
-0.0504057
-0.00161504
-0.0501269
-0.00207622
-0.0497996
-0.00248444
-0.0494294
-0.00284635
-0.049021
-0.00316833
-0.0485782
-0.00345581
-0.0481043
-0.00371308
-0.0476032
-0.00394226
-0.0470761
-0.00414972
-0.0465269
-0.00434829
-0.045958
-0.00451986
-0.0453713
-0.00467648
-0.044767
-0.00482031
-0.0441448
-0.00495259
-0.0435057
-0.00507442
-0.0428509
-0.00518782
-0.0421883
-0.00528968
-0.041515
-0.00538333
-0.0408292
-0.00547163
-0.0401329
-0.00555298
-0.0394234
-0.00562986
-0.0387119
-0.00569539
-0.0379916
-0.00575967
-0.0372642
-0.00581875
-0.0365279
-0.00587321
-0.035785
-0.00592137
-0.0350404
-0.00596295
-0.0342911
-0.00600174
-0.0335357
-0.0060357
-0.0327729
-0.00606191
-0.0320135
-0.00607982
-0.0312545
-0.00609385
-0.0304876
-0.00610424
-0.0297223
-0.00610936
-0.0289609
-0.00610459
-0.0281978
-0.00609877
-0.0274362
-0.00609009
-0.0266777
-0.00607585
-0.0259196
-0.00605613
-0.025166
-0.00603406
-0.0244152
-0.00600356
-0.0236682
-0.00597295
-0.0229266
-0.00593345
-0.0221906
-0.00589254
-0.0214599
-0.00584504
-0.0207356
-0.00579432
-0.0200187
-0.00573737
-0.0193095
-0.00567625
-0.0186085
-0.00561006
-0.0179164
-0.00553987
-0.0172337
-0.00546502
-0.0165607
-0.00538689
-0.0158982
-0.00530439
-0.0152458
-0.00522288
-0.0146041
-0.00513744
-0.0139739
-0.00504555
-0.0133552
-0.00495447
-0.0127478
-0.00486309
-0.0121526
-0.00476588
-0.0115697
-0.00466731
-0.0109995
-0.00456541
-0.0104425
-0.00446049
-0.00989895
-0.00435274
-0.0093692
-0.00424244
-0.00885348
-0.00413016
-0.0083521
-0.00401552
-0.00786524
-0.00389934
-0.00739303
-0.00378218
-0.00693547
-0.0036648
-0.00649264
-0.00354683
-0.00606456
-0.0034288
-0.00565117
-0.00331112
-0.00525241
-0.00319385
-0.00486829
-0.00307658
-0.00449881
-0.00295922
-0.00414395
-0.00284226
-0.00380383
-0.00272408
-0.00347833
-0.00260701
-0.00316764
-0.00248845
-0.00287137
-0.00237307
-0.00258941
-0.00225837
-0.00232075
-0.00215195
-0.00206449
-0.00205235
-0.00181881
-0.00196755
-0.00158158
-0.00189995
-0.0013498
-0.00185522
-0.00112118
-0.0018294
-0.000896285
-0.0017989
-0.000685482
-0.00168639
-0.00051252
-0.00138566
-0.000384999
-0.001023
-0.000288298
-0.000775259
-0.000651838
-0.000206892
0.13658
0.0668537
0.128276
0.071246
0.119523
0.0750853
0.110401
0.0783045
0.100994
0.0808401
0.0913909
0.0826531
0.0816865
0.0837128
0.0719737
0.0840117
0.062343
0.0835616
0.0528853
0.0823848
0.0436784
0.0805326
0.0347957
0.0780667
0.0262995
0.0750607
0.018236
0.0716016
0.0106467
0.0677794
0.00355854
0.0636855
-0.00301714
0.0594006
-0.00906862
0.0549981
-0.0145924
0.0505559
-0.0196067
0.046171
-0.0241276
0.0418846
-0.0281769
0.0377449
-0.0317799
0.0337897
-0.0349645
0.0300474
-0.0377603
0.0265381
-0.0401974
0.0232749
-0.0423058
0.0202595
-0.0441143
0.0174899
-0.0456508
0.0149607
-0.0469415
0.0126626
-0.0480113
0.010584
-0.0488829
0.00871127
-0.0495772
0.0070297
-0.0501132
0.0055241
-0.0505084
0.00417967
-0.0507785
0.00298181
-0.0509373
0.00191646
-0.0509976
0.000970645
-0.0509704
0.000131848
-0.0508658
-0.000609729
-0.050693
-0.00126668
-0.0504602
-0.00184782
-0.0501744
-0.002362
-0.0498415
-0.00281735
-0.0494663
-0.00322159
-0.049053
-0.00358163
-0.0486058
-0.00390303
-0.0481289
-0.00418998
-0.0476265
-0.00444462
-0.0470978
-0.00467838
-0.0465465
-0.00489964
-0.0459747
-0.00509164
-0.0453836
-0.00526755
-0.0447741
-0.00542983
-0.0441473
-0.00557943
-0.0435071
-0.00571461
-0.042857
-0.00583792
-0.0421949
-0.00595172
-0.0415182
-0.00606003
-0.0408279
-0.00616198
-0.0401339
-0.00624699
-0.0394319
-0.00633186
-0.0387173
-0.00640997
-0.0379935
-0.00648344
-0.0372629
-0.00654941
-0.0365269
-0.00660914
-0.0357887
-0.00665964
-0.0350426
-0.00670901
-0.0342874
-0.006757
-0.0335291
-0.00679399
-0.0327731
-0.00681789
-0.0320134
-0.00683949
-0.0312483
-0.00685896
-0.030484
-0.0068686
-0.0297236
-0.00686974
-0.0289579
-0.00687031
-0.0281934
-0.00686321
-0.0274345
-0.00684898
-0.0266732
-0.00683721
-0.0259144
-0.00681496
-0.0251628
-0.00678564
-0.0244108
-0.00675549
-0.0236643
-0.00671955
-0.0229221
-0.00667559
-0.0221862
-0.00662848
-0.0214554
-0.00657586
-0.0207312
-0.00651852
-0.0200144
-0.00645416
-0.0193052
-0.00638542
-0.0186042
-0.00631102
-0.0179123
-0.00623186
-0.0172296
-0.00614767
-0.0165567
-0.00605979
-0.0158943
-0.0059668
-0.015242
-0.00587515
-0.0146005
-0.00577899
-0.0139704
-0.00567561
-0.0133518
-0.00557306
-0.0127446
-0.00547036
-0.0121495
-0.00536098
-0.0115667
-0.00525007
-0.0109966
-0.00513545
-0.0104397
-0.0050174
-0.00989632
-0.00489616
-0.00936671
-0.00477205
-0.00885112
-0.00464574
-0.00834988
-0.00451676
-0.00786316
-0.00438605
-0.0073911
-0.00425425
-0.00693368
-0.00412221
-0.006491
-0.00398952
-0.00606305
-0.00385675
-0.00564979
-0.00372438
-0.00525115
-0.00359249
-0.00486715
-0.00346059
-0.00449779
-0.00332858
-0.00414302
-0.00319702
-0.003803
-0.0030641
-0.00347761
-0.00293241
-0.003167
-0.00279905
-0.00287082
-0.00266925
-0.00258895
-0.00254024
-0.00232039
-0.00242052
-0.00206422
-0.00230852
-0.00181856
-0.00221321
-0.00158129
-0.00213723
-0.0013495
-0.00208701
-0.0011209
-0.00205801
-0.000895972
-0.00202383
-0.000685179
-0.00189718
-0.000512303
-0.00155854
-0.000384881
-0.00115042
-0.000288247
-0.000871893
-0.000733212
-0.000206873
0.137463
0.0747769
0.129011
0.0796982
0.120101
0.083995
0.110814
0.0875917
0.101237
0.0904167
0.0914665
0.0924241
0.0815976
0.0935816
0.0717298
0.0938795
0.0619582
0.0933332
0.0523723
0.0919707
0.0430553
0.0898496
0.0340807
0.0870413
0.0255115
0.0836299
0.0173997
0.0797134
0.00977975
0.0753994
0.00267901
0.0707862
-0.0038949
0.0659745
-0.00993353
0.0610367
-0.01543
0.0560523
-0.0204076
0.0511486
-0.0248847
0.0463618
-0.0288852
0.0417454
-0.0324364
0.0373409
-0.035568
0.033179
-0.0383108
0.0292809
-0.0406961
0.0256603
-0.0427547
0.0223181
-0.0445163
0.0192515
-0.0460089
0.0164533
-0.0472592
0.0139129
-0.0482919
0.0116168
-0.0491298
0.0095492
-0.0497938
0.00769365
-0.0503027
0.00603305
-0.0506738
0.0045507
-0.0509222
0.00323026
-0.051062
0.00205624
-0.0511054
0.00101402
-0.0510637
9.01735e-05
-0.050947
-0.000726444
-0.0507639
-0.00144973
-0.0505222
-0.00208954
-0.0502281
-0.00265608
-0.0498874
-0.00315813
-0.0495048
-0.00360415
-0.0490854
-0.00400105
-0.0486336
-0.00435485
-0.0481532
-0.00467039
-0.0476475
-0.0049503
-0.0471141
-0.00521178
-0.0465589
-0.00545487
-0.0459841
-0.0056664
-0.0453918
-0.00585983
-0.0447835
-0.0060382
-0.04416
-0.00620286
-0.0435217
-0.00635295
-0.0428683
-0.00649128
-0.0422013
-0.00661873
-0.041524
-0.00673735
-0.0408399
-0.00684606
-0.0401421
-0.00694477
-0.0394346
-0.00703941
-0.038717
-0.00712756
-0.0379941
-0.0072063
-0.0372649
-0.00727868
-0.0365317
-0.00734234
-0.0357881
-0.00740324
-0.035037
-0.0074601
-0.0342849
-0.00750903
-0.0335319
-0.00754699
-0.0327729
-0.00757697
-0.032009
-0.00760333
-0.0312467
-0.00762131
-0.0304871
-0.00762816
-0.0297179
-0.00763896
-0.0289545
-0.00763371
-0.0281917
-0.00762604
-0.0274295
-0.00761108
-0.0266702
-0.0075966
-0.0259126
-0.00757254
-0.0251587
-0.00753951
-0.0244074
-0.00750675
-0.0236593
-0.00746773
-0.0229184