/*--------------------------------*- C++ -*----------------------------------*\
| =========                 |                                                 |
| \\      /  F ield         | OpenFOAM: The Open Source CFD Toolbox           |
|  \\    /   O peration     | Version:  v1912                                 |
|   \\  /    A nd           | Website:  www.openfoam.com                      |
|    \\/     M anipulation  |                                                 |
\*---------------------------------------------------------------------------*/
FoamFile
{
    version     2.0;
    format      ascii;
    class       volVectorField;
    location    "40";
    object      U;
}
// * * * * * * * * * * * * * * * * * * * * * * * * * * * * * * * * * * * * * //

dimensions      [0 1 -1 0 0 0 0];


internalField   nonuniform List<vector> 
14268
(
(2.86949 0.173278 4.7987e-23)
(2.73498 0.169182 0)
(2.58899 0.164221 -2.76211e-23)
(2.43254 0.158424 3.23088e-23)
(2.26698 0.151814 0)
(2.09353 0.144421 5.79524e-24)
(1.91371 0.1363 0)
(1.72907 0.127525 2.49029e-24)
(1.54126 0.118372 0)
(1.35191 0.109375 0)
(1.16274 0.100034 3.58387e-23)
(0.975331 0.0903542 -7.25949e-23)
(0.791136 0.0804478 0)
(0.611523 0.0702723 0)
(0.437691 0.0599862 0)
(0.270646 0.0497438 -4.92558e-23)
(0.111206 0.0396993 0)
(-0.0398651 0.0299455 -5.27228e-23)
(-0.182151 0.0205525 -5.30843e-23)
(-0.315477 0.0115966 -6.2464e-23)
(-0.439631 0.00313205 0)
(-0.554628 -0.00481222 -4.94372e-23)
(-0.660606 -0.0122191 0)
(-0.757815 -0.0190784 -4.44691e-23)
(-0.846582 -0.0253911 -4.15903e-23)
(-0.927284 -0.0311708 -3.85875e-23)
(-1.0004 -0.0364417 -5.2252e-24)
(-1.06639 -0.0412262 0)
(-1.12574 -0.0455512 -2.95924e-23)
(-1.17894 -0.0494504 2.67774e-23)
(-1.22648 -0.0529576 0)
(-1.26884 -0.0561017 2.16207e-23)
(-1.30647 -0.0589039 0)
(-1.33979 -0.0613866 -3.64918e-23)
(-1.36922 -0.0635885 0)
(-1.39512 -0.0655365 0)
(-1.41784 -0.0672516 -1.1992e-23)
(-1.43769 -0.0687461 0)
(-1.45497 -0.0700467 0)
(-1.46993 -0.0712004 8.35072e-24)
(-1.48282 -0.0722118 -7.80667e-24)
(-1.49384 -0.0730987 0)
(-1.50318 -0.0738659 5.64919e-24)
(-1.51102 -0.0745199 0)
(-1.51749 -0.0750718 -4.41862e-24)
(-1.52273 -0.0755389 -3.92672e-24)
(-1.52684 -0.0759322 -3.50347e-24)
(-1.52994 -0.0762389 0)
(-1.53209 -0.0764578 -2.56724e-24)
(-1.53336 -0.0766284 0)
(-1.53385 -0.0768162 0)
(-1.53353 -0.0769506 -2.07965e-24)
(-1.53251 -0.0769788 0)
(-1.53081 -0.0769585 0)
(-1.52845 -0.0769708 -1.6795e-24)
(-1.52549 -0.0769675 6.13883e-25)
(-1.52195 -0.0768372 0)
(-1.51781 -0.0766032 -1.36207e-24)
(-1.51311 -0.0764243 0)
(-1.50786 -0.0763343 0)
(-1.50208 -0.0761411 -1.19914e-24)
(-1.49578 -0.0757675 0)
(-1.48896 -0.0755123 0)
(-1.48163 -0.075306 0)
(-1.4738 -0.0748679 0)
(-1.46546 -0.0744602 0)
(-1.45662 -0.0741696 0)
(-1.4473 -0.073778 0)
(-1.43749 -0.073251 0)
(-1.4272 -0.0727488 9.36518e-25)
(-1.41644 -0.0723164 0)
(-1.40523 -0.0717616 8.12018e-25)
(-1.39357 -0.0711885 0)
(-1.38147 -0.0706551 0)
(-1.36895 -0.0700381 6.91518e-25)
(-1.35602 -0.0693751 0)
(-1.34268 -0.0687503 0)
(-1.32892 -0.0681026 5.88123e-25)
(-1.31477 -0.067398 0)
(-1.30023 -0.0666693 0)
(-1.2853 -0.0659434 0)
(-1.27 -0.0651903 0)
(-1.25433 -0.0644088 5.09139e-25)
(-1.2383 -0.0636083 -4.9035e-25)
(-1.22194 -0.0627919 0)
(-1.20524 -0.0619544 0)
(-1.18823 -0.0610989 0)
(-1.17091 -0.0602252 3.537e-25)
(-1.1533 -0.0593345 -3.21248e-25)
(-1.13542 -0.0584274 0)
(-1.1173 -0.0575058 2.67228e-25)
(-1.09894 -0.0565699 0)
(-1.08036 -0.0556213 0)
(-1.06158 -0.0546601 0)
(-1.04258 -0.0536888 0)
(-1.0234 -0.0527061 0)
(-1.00405 -0.0517111 -1.75066e-25)
(-0.984526 -0.0507081 0)
(-0.96483 -0.0496964 0)
(-0.94498 -0.0486738 0)
(-0.924989 -0.0476435 1.32278e-24)
(-0.904874 -0.0466049 0)
(-0.884655 -0.0455594 0)
(-0.864352 -0.0445081 0)
(-0.843987 -0.0434522 0)
(-0.823582 -0.0423931 0)
(-0.803157 -0.0413317 0)
(-0.782735 -0.0402696 0)
(-0.762329 -0.0392079 0)
(-0.741953 -0.0381474 0)
(-0.721615 -0.0370884 0)
(-0.701323 -0.0360317 -2.21251e-26)
(-0.681081 -0.0349776 0)
(-0.660892 -0.0339264 2.59946e-26)
(-0.640759 -0.032878 -2.90616e-26)
(-0.620689 -0.0318326 0)
(-0.600691 -0.0307911 -3.81968e-26)
(-0.580782 -0.0297533 0)
(-0.560979 -0.0287215 0)
(-0.541303 -0.027695 -1.16925e-24)
(-0.521762 -0.0266774 0)
(-0.502341 -0.0256663 0)
(-0.482973 -0.0246634 0)
(-0.463475 -0.0236591 0)
(-0.443431 -0.0226377 0)
(-0.422354 -0.0215781 0)
(-0.399286 -0.0204363 -3.14294e-26)
(-0.372523 -0.0191266 -2.71666e-26)
(-0.340849 -0.0175737 0)
(-0.301857 -0.0156159 0)
(-0.262249 -0.013514 0)
(-0.230456 -0.0117438 -7.87988e-26)
(-0.21258 -0.010731 1.19688e-26)
(-0.203711 -0.0102349 0)
(2.86245 0.238003 0)
(2.72735 0.239191 0)
(2.58081 0.239029 -7.98153e-23)
(2.42383 0.237439 -4.79265e-23)
(2.2578 0.234364 2.51673e-23)
(2.08392 0.229849 1.51524e-23)
(1.90374 0.223842 -2.3156e-23)
(1.7188 0.216449 4.71697e-23)
(1.53081 0.207567 0)
(1.34154 0.196823 -9.12015e-23)
(1.15255 0.184999 2.11571e-22)
(0.965373 0.172322 -1.18751e-22)
(0.781484 0.159016 -1.49875e-22)
(0.602211 0.145366 -1.64497e-22)
(0.428741 0.131525 1.75563e-22)
(0.262096 0.117573 -1.8327e-22)
(0.103109 0.103682 -1.87922e-22)
(-0.0474777 0.089999 1.88126e-22)
(-0.189249 0.0766176 -1.8655e-22)
(-0.322034 0.0636541 -3.55045e-22)
(-0.445633 0.0512062 0)
(-0.560067 0.0393552 1.68549e-22)
(-0.665485 0.0281601 -1.59554e-22)
(-0.762145 0.0176573 -1.49695e-22)
(-0.85038 0.00787039 1.39303e-22)
(-0.930574 -0.00118692 -1.28675e-22)
(-1.00321 -0.00952197 -2.30915e-22)
(-1.06875 -0.0171509 -1.07649e-22)
(-1.12768 -0.0240986 9.76041e-23)
(-1.1805 -0.0303915 0)
(-1.22769 -0.0360631 -7.90377e-23)
(-1.26973 -0.041155 7.06511e-23)
(-1.30707 -0.0457177 -6.29021e-23)
(-1.34013 -0.0497996 -1.09634e-22)
(-1.36932 -0.0534321 0)
(-1.39501 -0.0566553 4.36294e-23)
(-1.41754 -0.0595117 -3.84141e-23)
(-1.43723 -0.0620484 -3.37461e-23)
(-1.45436 -0.0642932 0)
(-1.4692 -0.0662503 -2.58878e-23)
(-1.48198 -0.0679581 -4.48465e-23)
(-1.49291 -0.0694412 -1.9816e-23)
(-1.50217 -0.0707334 1.73056e-23)
(-1.50993 -0.0718627 -1.51156e-23)
(-1.51633 -0.072848 -1.32118e-23)
(-1.52151 -0.0736976 1.15587e-23)
(-1.52557 -0.0744265 -1.01208e-23)
(-1.52861 -0.07507 0)
(-1.53072 -0.0756481 -8.09049e-24)
(-1.53197 -0.0761201 0)
(-1.53245 -0.0764916 0)
(-1.53209 -0.0767557 0)
(-1.53103 -0.0770329 4.74219e-24)
(-1.52932 -0.077269 0)
(-1.52697 -0.0773872 -3.70935e-24)
(-1.52399 -0.0774288 -3.88923e-24)
(-1.52039 -0.0774954 0)
(-1.51623 -0.0775997 0)
(-1.51156 -0.0776007 0)
(-1.50633 -0.0774421 0)
(-1.5005 -0.0772825 0)
(-1.49418 -0.0772511 0)
(-1.48739 -0.0770702 0)
(-1.48004 -0.0767229 1.36513e-24)
(-1.47218 -0.07659 0)
(-1.46387 -0.0763944 0)
(-1.45506 -0.0759577 0)
(-1.44569 -0.07556 0)
(-1.43587 -0.0752978 0)
(-1.42561 -0.0749594 0)
(-1.41485 -0.0744255 3.01032e-25)
(-1.40363 -0.0740002 0)
(-1.39198 -0.073538 -8.16053e-27)
(-1.37989 -0.0729462 0)
(-1.36736 -0.0724132 -3.20799e-25)
(-1.35444 -0.0719062 0)
(-1.34111 -0.0712567 0)
(-1.32737 -0.0705844 0)
(-1.31322 -0.0699523 0)
(-1.29868 -0.0692976 8.8076e-25)
(-1.28376 -0.0685678 0)
(-1.26847 -0.0678184 9.97316e-25)
(-1.25282 -0.0670704 0)
(-1.23681 -0.0662901 0)
(-1.22045 -0.0654805 0)
(-1.20377 -0.0646471 0)
(-1.18677 -0.0637954 0)
(-1.16947 -0.0629192 1.69308e-24)
(-1.15188 -0.0620218 1.80232e-24)
(-1.13402 -0.061103 0)
(-1.11591 -0.0601658 1.98622e-24)
(-1.09757 -0.0592096 2.0619e-24)
(-1.07901 -0.058237 0)
(-1.06025 -0.0572481 0)
(-1.04128 -0.0562503 0)
(-1.02211 -0.0552371 0)
(-1.00279 -0.0542052 0)
(-0.983285 -0.0531671 2.32722e-24)
(-0.963611 -0.0521195 0)
(-0.943784 -0.0510552 2.42295e-24)
(-0.923818 -0.049982 -1.3216e-24)
(-0.903727 -0.048897 2.5432e-24)
(-0.883532 -0.047802 0)
(-0.863255 -0.0466979 0)
(-0.842916 -0.0455864 0)
(-0.822536 -0.0444691 2.7284e-24)
(-0.802139 -0.0433466 2.74312e-24)
(-0.781743 -0.0422211 0)
(-0.761365 -0.0410942 -2.73684e-24)
(-0.741016 -0.0399679 0)
(-0.720706 -0.0388423 0)
(-0.700443 -0.0377186 0)
(-0.680229 -0.0365977 0)
(-0.660068 -0.0354797 0)
(-0.639964 -0.0343644 -2.63377e-24)
(-0.619923 -0.0332515 2.62115e-24)
(-0.599954 -0.0321426 0)
(-0.580073 -0.0310352 0)
(-0.5603 -0.0299346 0)
(-0.540654 -0.0288365 1.11442e-24)
(-0.521142 -0.0277505 0)
(-0.501751 -0.0266704 0)
(-0.482414 -0.0256084 0)
(-0.462948 -0.0245521 0)
(-0.442935 -0.0234992 0)
(-0.421882 -0.0224316 0)
(-0.398842 -0.0213174 0)
(-0.372107 -0.0200768 -2.16422e-24)
(-0.340463 -0.0186113 0)
(-0.301508 -0.0166652 1.72773e-24)
(-0.261944 -0.0143328 0)
(-0.230199 -0.0122385 0)
(-0.212372 -0.0109663 0)
(-0.203527 -0.0103247 1.70665e-24)
(2.86247 0.294971 -1.56327e-22)
(2.72651 0.301179 0)
(2.57907 0.30551 0)
(2.42116 0.307863 -1.16732e-22)
(2.25421 0.308086 2.51499e-23)
(2.07943 0.306151 -1.52103e-23)
(1.89839 0.302011 -5.58801e-23)
(1.71268 0.295736 9.55873e-23)
(1.52401 0.287453 0)
(1.33403 0.277385 -1.67214e-22)
(1.14436 0.265614 1.99982e-22)
(0.956625 0.252228 2.42591e-22)
(0.772301 0.237424 -2.53744e-22)
(0.592743 0.221444 -2.74381e-22)
(0.419158 0.20456 5.92567e-22)
(0.252555 0.187046 -3.00413e-22)
(0.0937441 0.169243 -6.24968e-22)
(-0.0565644 0.151368 -1.12043e-23)
(-0.197978 0.133663 -3.02474e-22)
(-0.330336 0.116341 -2.95347e-22)
(-0.453458 0.099588 0)
(-0.567386 0.0835435 2.7231e-22)
(-0.672281 0.0683155 -5.23053e-22)
(-0.768415 0.0539863 -2.41669e-22)
(-0.856128 0.0406095 -6.39936e-24)
(-0.935814 0.0282098 -4.21149e-22)
(-1.00796 0.0167783 -1.90561e-22)
(-1.07303 0.00629977 -3.52159e-22)
(-1.13153 -0.00325567 -4.08777e-24)
(-1.18394 -0.0119329 0)
(-1.23076 -0.0197824 -1.27652e-22)
(-1.27245 -0.0268541 -2.75625e-24)
(-1.30948 -0.0331957 -1.01679e-22)
(-1.34226 -0.0388595 -9.02946e-23)
(-1.3712 -0.0439081 0)
(-1.39666 -0.0484002 7.05971e-23)
(-1.41899 -0.0523824 -1.25665e-22)
(-1.43849 -0.0558928 -5.47251e-23)
(-1.45545 -0.0589844 0)
(-1.47014 -0.061722 -8.50268e-23)
(-1.48279 -0.0641446 -3.70002e-23)
(-1.4936 -0.0662856 -3.24284e-23)
(-1.50276 -0.0681663 2.8425e-23)
(-1.51043 -0.0698067 1.24791e-25)
(-1.51676 -0.0712352 2.58707e-26)
(-1.52187 -0.0724859 6.29609e-26)
(-1.52589 -0.0735807 -1.42969e-25)
(-1.52888 -0.07451 0)
(-1.53094 -0.0752841 1.31291e-23)
(-1.53213 -0.0759529 0)
(-1.53255 -0.076663 0)
(-1.53217 -0.0772766 9.01974e-24)
(-1.53111 -0.0777438 8.46619e-24)
(-1.52936 -0.0780745 0)
(-1.52697 -0.0783787 -5.77296e-25)
(-1.52396 -0.0786741 0)
(-1.52037 -0.0788501 0)
(-1.5162 -0.0789441 4.70187e-24)
(-1.51147 -0.0790115 0)
(-1.50621 -0.0791277 0)
(-1.50041 -0.0792277 3.59121e-24)
(-1.49406 -0.0790864 0)
(-1.48722 -0.0790396 0)
(-1.4799 -0.0791415 3.3886e-24)
(-1.47206 -0.0788406 2.29342e-24)
(-1.46368 -0.0785588 2.00426e-24)
(-1.45484 -0.0785111 0)
(-1.4455 -0.0784156 0)
(-1.43569 -0.0779424 0)
(-1.42538 -0.0774996 0)
(-1.4146 -0.077317 1.82393e-24)
(-1.4034 -0.0768464 0)
(-1.39173 -0.0763588 -1.07792e-24)
(-1.37963 -0.0760357 0)
(-1.36712 -0.0754544 1.05695e-24)
(-1.35418 -0.0747965 -3.3132e-25)
(-1.34083 -0.0743261 0)
(-1.32708 -0.0738123 -6.36539e-25)
(-1.31294 -0.0731163 0)
(-1.2984 -0.0723968 -1.9489e-25)
(-1.28347 -0.0717675 0)
(-1.26818 -0.0710755 7.34575e-26)
(-1.25252 -0.070298 -1.40421e-24)
(-1.23651 -0.0695114 0)
(-1.22015 -0.0687204 0)
(-1.20347 -0.0678832 -2.00422e-24)
(-1.18647 -0.0670198 -2.1945e-24)
(-1.16916 -0.0661293 1.10614e-24)
(-1.15157 -0.0652127 1.28047e-24)
(-1.13371 -0.0642685 0)
(-1.11561 -0.063302 1.5739e-24)
(-1.09726 -0.0623115 -1.31532e-24)
(-1.07871 -0.0613005 0)
(-1.05995 -0.0602691 0)
(-1.04098 -0.0592299 0)
(-1.02182 -0.0581712 0)
(-1.0025 -0.057086 -3.38391e-24)
(-0.983001 -0.0559961 2.12851e-24)
(-0.963331 -0.0548964 0)
(-0.943508 -0.0537737 -1.32412e-24)
(-0.923546 -0.0526405 -2.39189e-24)
(-0.90346 -0.0514916 -1.31868e-24)
(-0.883271 -0.0503292 0)
(-0.862999 -0.0491543 0)
(-0.842665 -0.047969 0)
(-0.822292 -0.0467755 2.84671e-24)
(-0.801901 -0.0455742 2.88436e-24)
(-0.781512 -0.0443685 4.17465e-24)
(-0.761141 -0.043161 -2.90284e-24)
(-0.740799 -0.0419538 0)
(-0.720496 -0.0407464 0)
(-0.70024 -0.0395407 0)
(-0.680033 -0.0383382 -4.06898e-24)
(-0.659879 -0.0371389 0)
(-0.639781 -0.0359422 -2.83133e-24)
(-0.619746 -0.0347477 2.82923e-24)
(-0.599784 -0.0335575 -3.9901e-24)
(-0.57991 -0.0323674 0)
(-0.560143 -0.0311852 -3.9535e-24)
(-0.540502 -0.0300037 -1.11468e-24)
(-0.520996 -0.0288378 0)
(-0.501611 -0.0276791 0)
(-0.482278 -0.0265484 -3.80672e-24)
(-0.462816 -0.0254337 0)
(-0.442806 -0.0243417 0)
(-0.421757 -0.023261 0)
(-0.398716 -0.0221719 0)
(-0.371982 -0.0209855 -2.4941e-24)
(-0.340336 -0.01958 3.20976e-24)
(-0.30138 -0.0176217 1.87502e-24)
(-0.261824 -0.0150655 -2.32857e-24)
(-0.230102 -0.0126339 2.2651e-24)
(-0.212297 -0.0111426 -2.46805e-24)
(-0.203473 -0.0104108 -7.93579e-25)
(2.86447 0.361466 -2.32128e-22)
(2.72725 0.372903 0)
(2.5785 0.381885 0)
(2.41927 0.388195 -8.74661e-23)
(2.25099 0.391658 1.98337e-23)
(2.0749 0.392204 3.80837e-23)
(1.8926 0.389747 0)
(1.70571 0.384342 -1.53788e-22)
(1.51597 0.376036 0)
(1.32506 0.364974 0)
(1.13464 0.351375 0)
(0.946307 0.33556 3.32208e-22)
(0.761543 0.317815 -3.79385e-22)
(0.581704 0.298494 4.05827e-22)
(0.407968 0.277967 4.12536e-22)
(0.241365 0.256545 4.38402e-22)
(0.0826902 0.234621 1.18168e-23)
(-0.0673733 0.212561 -8.7423e-22)
(-0.208432 0.190563 0)
(-0.340349 0.168972 0)
(-0.46296 0.148014 0)
(-0.576327 0.127875 0)
(-0.680628 0.108704 -7.31847e-22)
(-0.776151 0.0906049 0)
(-0.863251 0.0736546 6.35883e-24)
(-0.942332 0.0579036 -5.8842e-22)
(-1.01389 0.0433574 0)
(-1.0784 0.0300045 -2.43559e-22)
(-1.13636 0.0178143 -2.20775e-22)
(-1.18827 0.00674495 0)
(-1.23462 -0.00325898 0)
(-1.27588 -0.012266 -1.59791e-22)
(-1.31252 -0.0203527 0)
(-1.34494 -0.0275954 0)
(-1.37355 -0.0340616 1.13552e-22)
(-1.39872 -0.0398166 0)
(-1.42079 -0.044931 -8.69888e-23)
(-1.44008 -0.0494759 0)
(-1.45685 -0.0535022 0)
(-1.47136 -0.0570461 -5.90177e-23)
(-1.48385 -0.0601545 0)
(-1.49451 -0.0628799 0)
(-1.50355 -0.0652754 0)
(-1.5111 -0.0673862 3.47976e-23)
(-1.51733 -0.0692457 3.05587e-23)
(-1.52236 -0.0708761 -2.68841e-23)
(-1.52629 -0.0723097 2.36999e-23)
(-1.52923 -0.0735987 2.07211e-23)
(-1.53125 -0.0747666 1.85711e-23)
(-1.53241 -0.0757571 0)
(-1.5328 -0.076622 0)
(-1.53238 -0.0772674 1.31364e-23)
(-1.53126 -0.0778526 0)
(-1.52945 -0.0784061 0)
(-1.527 -0.0789413 5.7864e-25)
(-1.52399 -0.0794345 0)
(-1.52042 -0.0798865 0)
(-1.51625 -0.0802119 7.30932e-24)
(-1.51146 -0.0804401 0)
(-1.50616 -0.0805974 0)
(-1.50034 -0.0807551 5.8559e-24)
(-1.49404 -0.0809251 0)
(-1.48718 -0.0808887 0)
(-1.47979 -0.0805802 0)
(-1.47194 -0.0808094 4.34471e-24)
(-1.4636 -0.0808955 3.77724e-24)
(-1.45471 -0.0805297 0)
(-1.44534 -0.0801733 0)
(-1.43553 -0.080222 0)
(-1.42522 -0.0801445 0)
(-1.41442 -0.0796478 0)
(-1.40321 -0.0793961 0)
(-1.39155 -0.0790503 1.81786e-24)
(-1.37942 -0.0784512 0)
(-1.36688 -0.0781561 1.77785e-25)
(-1.35397 -0.07782 1.10099e-24)
(-1.34062 -0.0770622 0)
(-1.32685 -0.076387 4.22953e-25)
(-1.31269 -0.0760105 0)
(-1.29815 -0.0754324 0)
(-1.28323 -0.0746316 0)
(-1.26793 -0.0738745 -1.4809e-24)
(-1.25226 -0.0732596 -5.20017e-25)
(-1.23624 -0.0724984 0)
(-1.21989 -0.0716601 0)
(-1.2032 -0.0708313 -1.18226e-24)
(-1.18619 -0.0699798 -1.44862e-24)
(-1.16889 -0.0690808 -3.00301e-24)
(-1.1513 -0.0681522 0)
(-1.13344 -0.0671934 0)
(-1.11533 -0.0662079 0)
(-1.09699 -0.0651934 -2.5402e-24)
(-1.07844 -0.064155 0)
(-1.05968 -0.0630924 4.1046e-24)
(-1.04071 -0.0620234 0)
(-1.02156 -0.0609309 0)
(-1.00224 -0.059805 -3.0561e-24)
(-0.982741 -0.0586762 0)
(-0.963074 -0.0575375 0)
(-0.943256 -0.0563695 -3.38317e-24)
(-0.923297 -0.0551899 -4.8462e-24)
(-0.903216 -0.0539912 -3.67611e-24)
(-0.883031 -0.052776 0)
(-0.862764 -0.0515453 0)
(-0.842436 -0.0503014 0)
(-0.822068 -0.049047 0)
(-0.801684 -0.0477817 -5.48915e-24)
(-0.781302 -0.0465095 4.22674e-24)
(-0.760938 -0.0452329 0)
(-0.740604 -0.0439561 0)
(-0.720309 -0.0426784 0)
(-0.70006 -0.0414023 0)
(-0.679862 -0.0401296 -4.15995e-24)
(-0.659716 -0.0388604 5.34958e-24)
(-0.639626 -0.0375933 -5.32511e-24)
(-0.619599 -0.0363281 0)
(-0.599645 -0.0350675 -4.12269e-24)
(-0.57978 -0.0338049 0)
(-0.560022 -0.0325514 -4.11252e-24)
(-0.540391 -0.0312958 -4.10286e-24)
(-0.520895 -0.0300598 0)
(-0.50152 -0.0288306 0)
(-0.482197 -0.0276407 -4.00795e-24)
(-0.462745 -0.0264743 0)
(-0.442743 -0.0253532 0)
(-0.421702 -0.0242671 0)
(-0.398663 -0.0231896 0)
(-0.371927 -0.0220665 -4.38998e-24)
(-0.340266 -0.0207108 3.18629e-24)
(-0.301294 -0.0187758 0)
(-0.261747 -0.015985 -2.21751e-24)
(-0.230064 -0.0131973 2.16221e-24)
(-0.212306 -0.0114221 8.11159e-25)
(-0.203499 -0.0105221 -2.67686e-24)
(2.86947 0.424451 0)
(2.73076 0.441173 -2.37573e-22)
(2.58044 0.454875 1.7431e-22)
(2.41957 0.46527 -1.0603e-22)
(2.24962 0.472128 1.23123e-23)
(2.07186 0.475288 2.80834e-23)
(1.88795 0.474649 -1.16389e-22)
(1.69953 0.470241 -1.76999e-22)
(1.50836 0.462118 0)
(1.31618 0.450489 -3.29205e-22)
(1.12465 0.435612 0)
(0.935403 0.417829 4.42679e-22)
(0.749913 0.397521 1.36668e-23)
(0.56955 0.375104 -1.33334e-23)
(0.395487 0.351047 5.47478e-22)
(0.228736 0.325796 1.11551e-21)
(0.0701165 0.299725 5.61118e-22)
(-0.0797524 0.273423 -1.13124e-21)
(-0.220495 0.247048 5.62344e-22)
(-0.351946 0.221101 5.47405e-22)
(-0.474004 0.19586 0)
(-0.586749 0.17156 5.02257e-22)
(-0.69038 0.148396 -4.66594e-22)
(-0.785202 0.126516 0)
(-0.871589 0.106021 -6.30793e-24)
(-0.949962 0.0869671 -3.74647e-22)
(-1.02083 0.0693549 0)
(-1.08468 0.0531732 0)
(-1.14202 0.0383885 0)
(-1.19335 0.0249451 2.59044e-22)
(-1.23916 0.0127732 2.32387e-22)
(-1.27993 0.00180248 2.07619e-22)
(-1.3161 -0.00804325 0)
(-1.34811 -0.0168477 0)
(-1.37635 -0.0246999 -1.70771e-24)
(-1.40118 -0.0316911 0)
(-1.42295 -0.0378969 1.12683e-22)
(-1.44195 -0.0433865 0)
(-1.45847 -0.0482388 0)
(-1.47278 -0.0525313 0)
(-1.48509 -0.0563455 0)
(-1.49559 -0.0597174 0)
(-1.50448 -0.0626863 0)
(-1.51192 -0.0652893 4.46212e-23)
(-1.51804 -0.067569 0)
(-1.52298 -0.0695764 0)
(-1.52683 -0.0713464 0)
(-1.52969 -0.0728758 5.33265e-23)
(-1.53163 -0.0741815 0)
(-1.53272 -0.0753342 0)
(-1.53303 -0.0765561 1.8347e-23)
(-1.53254 -0.0776336 0)
(-1.53139 -0.0786285 0)
(-1.52963 -0.0795128 0)
(-1.52723 -0.0801655 -1.216e-23)
(-1.52415 -0.0806089 1.03561e-23)
(-1.52048 -0.0809353 0)
(-1.51624 -0.0812611 8.62608e-24)
(-1.51147 -0.0817656 0)
(-1.50623 -0.0822032 0)
(-1.50037 -0.0823297 0)
(-1.49394 -0.0822587 0)
(-1.48708 -0.0826128 5.58589e-24)
(-1.47974 -0.083141 0)
(-1.47188 -0.0829875 0)
(-1.4635 -0.0826919 0)
(-1.45457 -0.0828947 0)
(-1.44522 -0.0830993 3.23913e-24)
(-1.4354 -0.0827693 0)
(-1.42507 -0.082409 2.00338e-24)
(-1.41426 -0.0822887 0)
(-1.40304 -0.0819664 0)
(-1.39137 -0.0817432 0)
(-1.37923 -0.081505 7.72982e-25)
(-1.3667 -0.0808387 1.11729e-24)
(-1.35375 -0.0802385 0)
(-1.34037 -0.0801864 -1.46736e-25)
(-1.32663 -0.0797488 -7.93115e-25)
(-1.31247 -0.0788148 -1.24162e-24)
(-1.2979 -0.0781825 0)
(-1.28297 -0.0778534 0)
(-1.26767 -0.0771907 1.22857e-24)
(-1.25201 -0.0762019 0)
(-1.23599 -0.0754723 -2.45779e-24)
(-1.21962 -0.0748074 0)
(-1.20293 -0.0739211 0)
(-1.18593 -0.0730289 0)
(-1.16862 -0.0721296 -2.44827e-24)
(-1.15102 -0.0711881 4.04701e-24)
(-1.13317 -0.0702021 0)
(-1.11506 -0.0691884 0)
(-1.09672 -0.0681418 0)
(-1.07817 -0.0670676 -4.98644e-24)
(-1.05941 -0.065964 3.80006e-24)
(-1.04044 -0.0648554 0)
(-1.02129 -0.0637191 5.35558e-24)
(-1.00197 -0.0625417 0)
(-0.982483 -0.0613631 0)
(-0.96282 -0.0601747 -5.72398e-24)
(-0.943005 -0.0589502 0)
(-0.92305 -0.0577129 -4.73714e-24)
(-0.902973 -0.0564524 0)
(-0.882792 -0.0551715 6.43683e-24)
(-0.862531 -0.0538715 -6.60634e-24)
(-0.842208 -0.0525551 0)
(-0.821847 -0.0512257 0)
(-0.801469 -0.0498827 -5.60648e-24)
(-0.781094 -0.0485312 0)
(-0.760737 -0.0471749 0)
(-0.740409 -0.0458179 0)
(-0.720122 -0.0444589 0)
(-0.699881 -0.0431011 0)
(-0.67969 -0.0417471 0)
(-0.659551 -0.0403972 5.5181e-24)
(-0.639469 -0.0390501 -5.50231e-24)
(-0.619449 -0.0377046 0)
(-0.599502 -0.0363636 0)
(-0.579643 -0.0350188 0)
(-0.559891 -0.0336836 0)
(-0.540267 -0.0323445 0)
(-0.520778 -0.0310276 0)
(-0.50141 -0.0297184 0)
(-0.482095 -0.0284566 0)
(-0.462649 -0.0272278 0)
(-0.442654 -0.0260615 0)
(-0.421617 -0.0249608 0)
(-0.398582 -0.0239905 0)
(-0.371853 -0.0229533 9.13224e-25)
(-0.340184 -0.0217417 -5.1973e-24)
(-0.301193 -0.0197207 0)
(-0.261645 -0.0166491 0)
(-0.229983 -0.0135408 0)
(-0.212251 -0.0115644 3.30785e-24)
(-0.203456 -0.0105984 0)
(2.87732 0.488292 0)
(2.73691 0.510251 -2.99099e-22)
(2.58476 0.528641 3.27542e-22)
(2.42196 0.543087 -1.38876e-22)
(2.25002 0.553274 -5.07697e-23)
(2.07026 0.558996 -2.67924e-23)
(1.88437 0.560148 -5.96616e-23)
(1.69404 0.556718 0)
(1.50108 0.548782 0)
(1.30725 0.536563 -3.92875e-22)
(1.11427 0.520334 0)
(0.923791 0.500499 5.31609e-22)
(0.737311 0.477519 5.85769e-22)
(0.556209 0.451908 -9.49551e-22)
(0.381666 0.424235 6.59798e-22)
(0.214647 0.395032 6.79554e-22)
(0.055994 0.364802 0)
(-0.0937109 0.334139 -6.91341e-22)
(-0.234137 0.303395 6.78397e-22)
(-0.365106 0.273086 6.60176e-22)
(-0.486572 0.243557 -3.22222e-22)
(-0.598638 0.215104 6.05403e-22)
(-0.70153 0.187957 0)
(-0.795576 0.162284 0)
(-0.881173 0.138212 -7.4814e-22)
(-0.958755 0.115828 0)
(-1.02885 0.0951456 2.12239e-22)
(-1.09195 0.0761519 -1.93202e-22)
(-1.14857 0.0588042 0)
(-1.19922 0.0430408 3.11646e-22)
(-1.2444 0.0287843 1.38251e-22)
(-1.28459 0.0159362 2.49749e-22)
(-1.32024 0.00439011 1.12307e-22)
(-1.35177 -0.00595903 0)
(-1.37958 -0.0152032 -1.74535e-22)
(-1.40403 -0.0234344 -7.77334e-23)
(-1.42546 -0.0307542 1.35693e-22)
(-1.44416 -0.0372557 6.01358e-23)
(-1.46041 -0.0430153 -5.27557e-23)
(-1.47446 -0.0481019 0)
(-1.48655 -0.0525624 0)
(-1.49686 -0.0564872 -3.54212e-23)
(-1.50558 -0.0599529 0)
(-1.51287 -0.0630254 8.12856e-23)
(-1.51887 -0.0657601 0)
(-1.52369 -0.0681812 -2.08721e-23)
(-1.52745 -0.0703213 0)
(-1.53021 -0.0722471 3.25511e-23)
(-1.53207 -0.073994 0)
(-1.53309 -0.0755185 -1.25266e-23)
(-1.53337 -0.0769111 2.29587e-23)
(-1.53292 -0.0779822 0)
(-1.53177 -0.0788693 -8.81265e-24)
(-1.52992 -0.0795947 7.86791e-24)
(-1.52739 -0.0803079 0)
(-1.52424 -0.0811442 1.35508e-23)
(-1.52054 -0.0820543 -5.90551e-24)
(-1.51638 -0.0828287 1.13684e-23)
(-1.51162 -0.0832321 4.80993e-24)
(-1.50618 -0.0833207 -4.42491e-24)
(-1.50028 -0.0839945 0)
(-1.49396 -0.0848042 0)
(-1.48714 -0.0848458 7.57953e-24)
(-1.47979 -0.0846503 -2.94748e-24)
(-1.47182 -0.0848287 2.79837e-24)
(-1.46333 -0.0852121 0)
(-1.45451 -0.0853102 0)
(-1.44524 -0.0850484 2.74629e-24)
(-1.43531 -0.0850465 0)
(-1.42486 -0.0849776 5.66073e-24)
(-1.41415 -0.0850014 -1.25655e-24)
(-1.40296 -0.0848737 0)
(-1.39118 -0.084211 0)
(-1.37904 -0.084037 1.68974e-24)
(-1.36656 -0.0839844 -1.29777e-24)
(-1.35355 -0.0836415 0)
(-1.34019 -0.0826695 6.55331e-25)
(-1.32644 -0.0821413 2.99614e-25)
(-1.31225 -0.0820304 7.3165e-25)
(-1.29769 -0.0814442 0)
(-1.28277 -0.0804045 -1.03631e-24)
(-1.26745 -0.0797615 1.84001e-24)
(-1.25177 -0.0795561 0)
(-1.23576 -0.078619 -1.37655e-24)
(-1.21939 -0.0776656 1.66919e-24)
(-1.20269 -0.0769735 -1.79856e-24)
(-1.18567 -0.076129 0)
(-1.16836 -0.0751823 0)
(-1.15076 -0.0742224 6.03082e-24)
(-1.1329 -0.0732287 0)
(-1.11479 -0.0721923 -2.76057e-24)
(-1.09645 -0.0711167 0)
(-1.0779 -0.070012 -1.68999e-24)
(-1.05915 -0.0688742 0)
(-1.04018 -0.0677335 0)
(-1.02103 -0.0665602 8.33324e-24)
(-1.00171 -0.0653382 -3.28214e-24)
(-0.982225 -0.0641176 0)
(-0.962565 -0.0628881 -2.11007e-24)
(-0.942752 -0.0616154 0)
(-0.922801 -0.0603294 0)
(-0.902727 -0.059017 -3.75563e-24)
(-0.88255 -0.0576816 6.42157e-24)
(-0.862292 -0.0563246 -2.66252e-24)
(-0.841974 -0.0549486 0)
(-0.821618 -0.0535579 0)
(-0.801245 -0.0521509 0)
(-0.780876 -0.0507336 0)
(-0.760526 -0.0493103 0)
(-0.740205 -0.0478862 4.13066e-24)
(-0.719925 -0.0464596 0)
(-0.699691 -0.045034 -4.08332e-24)
(-0.679507 -0.0436122 0)
(-0.659376 -0.0421942 4.03729e-24)
(-0.639302 -0.0407776 0)
(-0.61929 -0.0393622 0)
(-0.59935 -0.0379522 0)
(-0.579499 -0.0365367 0)
(-0.559756 -0.0351323 0)
(-0.54014 -0.0337213 0)
(-0.520659 -0.0323374 3.91893e-24)
(-0.501301 -0.0309616 0)
(-0.481995 -0.0296467 -3.84061e-24)
(-0.46256 -0.0283749 0)
(-0.442573 -0.0271897 3.71496e-24)
(-0.421545 -0.0260804 0)
(-0.398527 -0.0249286 0)
(-0.371781 -0.0238836 9.37222e-24)
(-0.340108 -0.0226713 -5.57029e-24)
(-0.30109 -0.020808 0)
(-0.261542 -0.017589 0)
(-0.229916 -0.014133 2.22856e-24)
(-0.212233 -0.0118683 0)
(-0.203466 -0.0107188 -2.61546e-24)
(2.88804 0.553517 0)
(2.74566 0.580843 1.6997e-22)
(2.59137 0.603989 2.52623e-22)
(2.4263 0.622522 0)
(2.25201 0.636049 2.04604e-23)
(2.06987 0.644318 -6.21527e-23)
(1.88162 0.647182 8.2765e-23)
(1.68901 0.644604 -1.43854e-22)
(1.49388 0.63669 -1.95939e-22)
(1.29808 0.623676 0)
(1.10335 0.605893 -2.8818e-22)
(0.911382 0.583831 -3.26292e-22)
(0.723682 0.558021 -3.57986e-22)
(0.541653 0.529078 -3.761e-22)
(0.366448 0.497672 -4.00605e-22)
(0.199041 0.464396 -4.11361e-22)
(0.0402885 0.429901 0)
(-0.10933 0.394765 -4.17136e-22)
(-0.249435 0.359538 -4.08308e-22)
(-0.379896 0.324793 0)
(-0.500716 0.290927 -7.5834e-22)
(-0.612032 0.258277 -3.62886e-22)
(-0.7141 0.227117 0)
(-0.807274 0.197661 -3.19818e-22)
(-0.891975 0.170054 -5.90232e-22)
(-0.968662 0.144379 0)
(-1.03788 0.120641 -2.47871e-24)
(-1.10014 0.098827 -4.5278e-22)
(-1.15596 0.078895 0)
(-1.20585 0.0607759 -1.85347e-22)
(-1.25033 0.0443794 -3.30793e-22)
(-1.28987 0.0296063 0)
(-1.32493 0.0163498 -1.1257e-24)
(-1.35591 0.00449502 -1.1702e-22)
(-1.38323 -0.00608248 -1.03476e-22)
(-1.40724 -0.015503 -9.05838e-23)
(-1.42827 -0.0238721 -8.03462e-23)
(-1.44662 -0.0312885 7.01207e-23)
(-1.46257 -0.0378624 -1.23425e-22)
(-1.47636 -0.0436994 -5.43072e-23)
(-1.48821 -0.0488794 -4.75518e-23)
(-1.49831 -0.0534577 -4.14343e-23)
(-1.50685 -0.0574921 -3.63806e-23)
(-1.51398 -0.0610304 -4.54014e-26)
(-1.51984 -0.0641189 0)
(-1.52454 -0.0668255 -4.90877e-23)
(-1.52818 -0.069219 -2.15741e-23)
(-1.53086 -0.0713287 0)
(-1.53266 -0.0731702 -1.67179e-23)
(-1.53363 -0.0747942 -2.97491e-23)
(-1.53383 -0.076418 0)
(-1.53326 -0.0778638 -1.17485e-23)
(-1.53196 -0.0792674 -2.12674e-23)
(-1.52999 -0.0806513 9.72592e-24)
(-1.5275 -0.0819175 -8.50389e-24)
(-1.5245 -0.0828703 -7.64e-24)
(-1.52087 -0.0834462 -7.2053e-24)
(-1.51656 -0.0839045 -6.25183e-24)
(-1.51165 -0.0846199 3.61752e-25)
(-1.50628 -0.0857189 -5.73214e-24)
(-1.50052 -0.0859414 -4.69507e-24)
(-1.49415 -0.0857214 -4.25715e-24)
(-1.48719 -0.0861979 -3.99379e-24)
(-1.47966 -0.0867777 -4.07595e-24)
(-1.47173 -0.0871674 4.48157e-25)
(-1.46344 -0.087431 -2.92152e-24)
(-1.45456 -0.0872749 0)
(-1.44507 -0.0873797 -5.12714e-24)
(-1.43514 -0.0875384 -2.25587e-24)
(-1.42488 -0.0878583 2.26907e-24)
(-1.41417 -0.0874603 -2.81565e-24)
(-1.40279 -0.0869395 -1.12666e-24)
(-1.39101 -0.0873808 0)
(-1.37899 -0.0871384 -1.05678e-24)
(-1.36641 -0.0861261 -2.65858e-25)
(-1.35339 -0.0858859 0)
(-1.34001 -0.0859934 3.51773e-25)
(-1.32621 -0.0854676 3.10768e-25)
(-1.31205 -0.0847653 -8.28748e-26)
(-1.29753 -0.0842278 9.47342e-25)
(-1.28255 -0.0839753 6.07785e-25)
(-1.26722 -0.0833367 5.71509e-25)
(-1.25158 -0.0819784 1.43493e-24)
(-1.23553 -0.0816665 1.53481e-24)
(-1.21916 -0.080966 2.84941e-24)
(-1.20246 -0.0799113 -1.56082e-24)
(-1.18544 -0.0790423 2.38706e-24)
(-1.16812 -0.0781793 2.60286e-24)
(-1.15052 -0.0772021 2.18367e-24)
(-1.13265 -0.0761741 3.06374e-24)
(-1.11454 -0.0751254 6.56557e-25)
(-1.0962 -0.0740265 0)
(-1.07765 -0.0728876 6.38647e-24)
(-1.05889 -0.0717103 3.61395e-24)
(-1.03993 -0.0705338 0)
(-1.02077 -0.0693243 6.87411e-24)
(-1.00146 -0.0680602 6.63216e-25)
(-0.981978 -0.066794 0)
(-0.96232 -0.0655173 7.38592e-24)
(-0.94251 -0.064191 4.13611e-24)
(-0.922562 -0.0628485 0)
(-0.90249 -0.0614754 6.59958e-25)
(-0.882317 -0.060075 4.53066e-24)
(-0.862064 -0.0586488 3.99688e-24)
(-0.841751 -0.0572001 4.74646e-24)
(-0.8214 -0.0557337 4.81398e-24)
(-0.801033 -0.0542476 4.8512e-24)
(-0.78067 -0.052749 4.86117e-24)
(-0.760327 -0.0512428 4.85236e-24)
(-0.740014 -0.049735 9.04035e-24)
(-0.719741 -0.0482234 0)
(-0.699515 -0.0467123 6.14905e-25)
(-0.67934 -0.0452054 4.74681e-24)
(-0.659217 -0.0437031 4.1187e-24)
(-0.63915 -0.0422026 4.69967e-24)
(-0.619145 -0.0407029 4.68714e-24)
(-0.599213 -0.0392082 0)
(-0.57937 -0.0377065 4.65373e-24)
(-0.559633 -0.036217 4.64376e-24)
(-0.540025 -0.0347192 0)
(-0.520552 -0.0332501 8.62006e-24)
(-0.501203 -0.031789 4.55385e-24)
(-0.481906 -0.030394 -3.96787e-24)
(-0.462481 -0.0290483 4.4371e-24)
(-0.442505 -0.0278068 8.20821e-24)
(-0.421486 -0.0267109 4.23765e-24)
(-0.398458 -0.0259182 4.00263e-24)
(-0.371699 -0.0250446 7.48259e-24)
(-0.340016 -0.0239347 0)
(-0.300992 -0.0218528 3.12158e-24)
(-0.26144 -0.0182734 2.65192e-24)
(-0.229839 -0.0144677 4.78849e-24)
(-0.212189 -0.0119965 0)
(-0.203435 -0.0107852 3.97004e-25)
(2.90169 0.619743 -2.44883e-22)
(2.75707 0.652514 5.32866e-24)
(2.60034 0.680469 5.72391e-24)
(2.43266 0.703143 0)
(2.25563 0.720032 6.41595e-24)
(2.07074 0.730834 -7.85412e-23)
(1.87973 0.735371 1.06971e-22)
(1.68443 0.733601 7.06996e-24)
(1.48678 0.725624 -4.54344e-22)
(1.28866 0.711722 0)
(1.09184 0.692287 7.17732e-24)
(0.898088 0.66787 7.08819e-24)
(0.708923 0.63909 6.94126e-24)
(0.525766 0.606661 4.4656e-22)
(0.349768 0.571365 6.49573e-24)
(0.181878 0.533936 -4.72314e-22)
(0.0229853 0.495045 -4.84775e-22)
(-0.1266 0.455367 5.5444e-24)
(-0.26638 0.41557 5.18458e-24)
(-0.396304 0.376321 4.59512e-22)
(-0.516432 0.338051 4.44847e-24)
(-0.626931 0.301161 -8.34433e-22)
(-0.72809 0.265966 3.94861e-22)
(-0.820302 0.232689 3.37578e-24)
(-0.904016 0.201498 3.04578e-24)
(-0.979711 0.172509 3.14542e-22)
(-1.04795 0.145737 -2.85217e-22)
(-1.10927 0.121162 -5.2089e-22)
(-1.16419 0.098725 2.365e-22)
(-1.21324 0.0783389 1.68071e-24)
(-1.25693 0.0599019 -3.79906e-22)
(-1.29575 0.0432869 1.70178e-22)
(-1.33015 0.0283575 -1.50237e-22)
(-1.36054 0.0149819 9.43232e-25)
(-1.38732 0.00303555 -1.17802e-22)
(-1.41084 -0.00760005 1.04601e-22)
(-1.43144 -0.0170547 5.60133e-25)
(-1.44939 -0.0254516 8.08852e-23)
(-1.46499 -0.0328859 -1.41429e-22)
(-1.47847 -0.0394444 2.86075e-25)
(-1.49005 -0.0452179 2.13428e-25)
(-1.49992 -0.050316 -4.76123e-23)
(-1.50825 -0.0548206 9.09807e-26)
(-1.51519 -0.0588078 -3.64564e-23)
(-1.52089 -0.0623706 3.20234e-23)
(-1.52545 -0.0655793 -5.63206e-23)
(-1.52898 -0.0684544 -8.6418e-26)
(-1.53154 -0.0710141 -2.18254e-23)