/*--------------------------------*- C++ -*----------------------------------*\
| =========                 |                                                 |
| \\      /  F ield         | OpenFOAM: The Open Source CFD Toolbox           |
|  \\    /   O peration     | Version:  v1912                                 |
|   \\  /    A nd           | Website:  www.openfoam.com                      |
|    \\/     M anipulation  |                                                 |
\*---------------------------------------------------------------------------*/
FoamFile
{
    version     2.0;
    format      ascii;
    class       surfaceScalarField;
    location    "40";
    object      phi;
}
// * * * * * * * * * * * * * * * * * * * * * * * * * * * * * * * * * * * * * //

dimensions      [0 3 -1 0 0 0 0];
oriented        oriented;


internalField   nonuniform List<scalar> 
28285
(
-7.38647e-06
5.24035e-06
-1.24417e-05
5.05525e-06
-1.73337e-05
4.89197e-06
-2.21192e-05
4.78548e-06
-2.67803e-05
4.66117e-06
-3.14463e-05
4.66601e-06
-3.62131e-05
4.76678e-06
4.59733e-06
-4.08104e-05
-7.39606e-06
1.04746e-05
-1.24456e-05
1.01048e-05
-1.73322e-05
9.77856e-06
-2.21126e-05
9.56593e-06
-2.67693e-05
9.31782e-06
-3.14325e-05
9.32919e-06
-3.62012e-05
9.53551e-06
9.20016e-06
-4.0804e-05
-7.41448e-06
1.57085e-05
-1.24636e-05
1.51539e-05
-1.73498e-05
1.46647e-05
-2.21297e-05
1.43459e-05
-2.67859e-05
1.3974e-05
-3.14487e-05
1.3992e-05
-3.62136e-05
1.43004e-05
1.37989e-05
-4.08123e-05
-7.42767e-06
2.09421e-05
-1.24766e-05
2.02029e-05
-1.73626e-05
1.95507e-05
-2.21425e-05
1.91258e-05
-2.67988e-05
1.86302e-05
-3.14623e-05
1.86555e-05
-3.62213e-05
1.90594e-05
1.8388e-05
-4.08105e-05
-7.43466e-06
2.61755e-05
-1.24835e-05
2.52517e-05
-1.73695e-05
2.44367e-05
-2.21493e-05
2.39057e-05
-2.68056e-05
2.32865e-05
-3.14694e-05
2.33193e-05
-3.62235e-05
2.38136e-05
2.29719e-05
-4.08074e-05
-7.44125e-06
3.14087e-05
-1.24898e-05
3.03003e-05
-1.73756e-05
2.93225e-05
-2.21554e-05
2.86855e-05
-2.68117e-05
2.79428e-05
-3.14752e-05
2.79829e-05
-3.6223e-05
2.85614e-05
2.75498e-05
-4.08009e-05
-7.44626e-06
3.66416e-05
-1.24947e-05
3.53487e-05
-1.73804e-05
3.42082e-05
-2.216e-05
3.34651e-05
-2.68163e-05
3.2599e-05
-3.14799e-05
3.26465e-05
-3.62221e-05
3.33036e-05
3.21227e-05
-4.07951e-05
-7.45235e-06
4.18743e-05
-1.25005e-05
4.03969e-05
-1.7386e-05
3.90936e-05
-2.21655e-05
3.82446e-05
-2.68216e-05
3.72551e-05
-3.14849e-05
3.73098e-05
-3.6221e-05
3.80397e-05
3.66906e-05
-4.07889e-05
-7.45733e-06
4.71068e-05
-1.25054e-05
4.5445e-05
-1.73907e-05
4.3979e-05
-2.21701e-05
4.3024e-05
-2.68262e-05
4.19112e-05
-3.14895e-05
4.19731e-05
-3.622e-05
4.27702e-05
4.12533e-05
-4.07827e-05
-7.46339e-06
5.2339e-05
-1.25111e-05
5.04927e-05
-1.73963e-05
4.88641e-05
-2.21754e-05
4.78032e-05
-2.68313e-05
4.6567e-05
-3.14944e-05
4.66362e-05
-3.62191e-05
4.74949e-05
4.58115e-05
-4.07772e-05
-7.46805e-06
5.75709e-05
-1.25157e-05
5.55403e-05
-1.74007e-05
5.37491e-05
-2.21799e-05
5.25823e-05
-2.68358e-05
5.1223e-05
-3.14988e-05
5.12991e-05
-3.6218e-05
5.22141e-05
5.03643e-05
-4.07709e-05
-7.47269e-06
6.28024e-05
-1.252e-05
6.05876e-05
-1.74049e-05
5.8634e-05
-2.21841e-05
5.73616e-05
-2.68411e-05
5.58799e-05
-3.15041e-05
5.59622e-05
-3.62176e-05
5.69276e-05
5.49132e-05
-4.07665e-05
-7.4802e-06
6.80351e-05
-1.25295e-05
6.56369e-05
-1.74174e-05
6.35219e-05
-2.22012e-05
6.21454e-05
-2.68651e-05
6.05438e-05
-3.15352e-05
6.06323e-05
-3.62376e-05
6.16299e-05
5.94522e-05
-4.07765e-05
-7.52929e-06
7.32945e-05
-1.26144e-05
7.0722e-05
-1.75514e-05
6.84589e-05
-2.24043e-05
6.69983e-05
-2.71651e-05
6.53046e-05
-3.19681e-05
6.54353e-05
-3.65996e-05
6.62615e-05
6.38158e-05
-4.09632e-05
-4.49875e-05
0.000103798
-6.84425e-05
9.41769e-05
-8.53138e-05
8.53302e-05
-9.61562e-05
7.78408e-05
-0.000101219
7.03676e-05
-0.000100833
6.50486e-05
-9.42685e-05
5.96975e-05
5.13099e-05
-8.17626e-05
-4.47329e-05
0.000134074
-6.7967e-05
0.000117411
-8.45995e-05
0.000101963
-9.51451e-05
8.83864e-05
-9.97793e-05
7.50019e-05
-9.8912e-05
6.41812e-05
-9.28011e-05
5.35866e-05
3.96776e-05
-8.11688e-05
-4.51523e-05
0.000164264
-6.8284e-05
0.000140543
-8.47988e-05
0.000118477
-9.52293e-05
9.88169e-05
-9.9768e-05
7.95406e-05
-9.87986e-05
6.32118e-05
-9.2621e-05
4.7409e-05
2.81279e-05
-8.10714e-05
-4.51276e-05
0.000194434
-6.82696e-05
0.000163685
-8.48114e-05
0.000135019
-9.52702e-05
0.000109276
-9.98196e-05
8.409e-05
-9.88419e-05
6.22342e-05
-9.2623e-05
4.11901e-05
1.65637e-05
-8.10588e-05
-4.56632e-05
0.000224487
-6.86801e-05
0.000186702
-8.51087e-05
0.000151448
-9.54691e-05
0.000119636
-9.99403e-05
8.85612e-05
-9.8914e-05
6.12078e-05
-9.26407e-05
3.49169e-05
4.96186e-06
-8.10388e-05
-4.55199e-05
0.000254539
-6.85615e-05
0.000209743
-8.50202e-05
0.000167907
-9.5416e-05
0.000130032
-9.9923e-05
9.30682e-05
-9.89238e-05
6.02086e-05
-9.26395e-05
2.86325e-05
-6.6459e-06
-8.10317e-05
-4.61635e-05
0.000284441
-6.90549e-05
0.000232635
-8.5381e-05
0.000184233
-9.56521e-05
0.000140303
-0.000100049
9.74655e-05
-9.8981e-05
5.91402e-05
-9.26847e-05
2.23363e-05
-1.82967e-05
-8.10339e-05
-0.000213156
0.000425692
-0.000349517
0.000368995
-0.000481681
0.000316397
-0.000611115
0.000269737
-0.000737233
0.000223584
-0.000863485
0.000185392
-0.000987663
0.000146514
0.00010286
-0.00110882
-0.000221111
0.000567341
-0.000357479
0.000505363
-0.000489304
0.000448222
-0.000618015
0.000398447
-0.00074326
0.000348829
-0.000868111
0.000310244
-0.0009873
0.000265703
0.000217675
-0.00110212
-0.000223781
0.000707509
-0.000359258
0.00064084
-0.000490891
0.000579856
-0.00061972
0.000527275
-0.000745417
0.000474527
-0.000871759
0.000436586
-0.000994026
0.00038797
0.000339727
-0.00111608
-0.00023343
0.000848005
-0.000368558
0.000775969
-0.000499346
0.000710644
-0.000627091
0.00065502
-0.000751574
0.00059901
-0.000876084
0.000561096
-0.000992046
0.000503931
0.000451745
-0.00110406
-0.000235888
0.000986662
-0.000370135
0.000910215
-0.000501019
0.000841528
-0.000628887
0.000782888
-0.000753866
0.000723989
-0.000880628
0.000687858
-0.00100467
0.000627978
0.000580166
-0.0011331
-0.000247319
0.00112551
-0.00038076
0.00104366
-0.000510232
0.000971
-0.000636687
0.000909343
-0.00076025
0.000847552
-0.000885061
0.000812669
-0.00100072
0.000743639
0.000693152
-0.00111371
-0.000249495
0.00126226
-0.000382244
0.00117641
-0.0005123
0.00110106
-0.000638896
0.00103594
-0.000762963
0.00097162
-0.000890278
0.000939983
-0.00101995
0.000873312
0.000833282
-0.00116008
-0.000262718
0.00139877
-0.000394034
0.00130772
-0.000522
0.00122902
-0.000646777
0.00116072
-0.000768945
0.00109379
-0.000894704
0.00106574
-0.00101307
0.000991676
0.000950796
-0.00113058
-0.000264513
0.00153322
-0.000395492
0.0014387
-0.000524632
0.00135816
-0.000649483
0.00128557
-0.000772316
0.00121662
-0.000898998
0.00119242
-0.00103743
0.00113011
0.00111096
-0.00119759
-0.000279424
0.00166628
-0.000408039
0.00156731
-0.000534547
0.00148467
-0.000657322
0.00140834
-0.00077744
0.00133674
-0.000905327
0.00132031
-0.00102698
0.00125177
0.00123752
-0.00115355
-0.000281062
0.00179769
-0.000409871
0.00169612
-0.000538183
0.00161298
-0.000660634
0.00153079
-0.000781009
0.00145711
-0.000903671
0.00144297
-0.00105677
0.00140487
0.0014333
-0.00125255
-0.000297391
0.00192552
-0.000422623
0.00182136
-0.000548587
0.00173895
-0.000669563
0.00165177
-0.000788531
0.00157608
-0.000921214
0.00157566
-0.00104615
0.00152981
0.00157324
-0.00118609
-0.000287059
0.00205153
-0.00041528
0.00194958
-0.000541703
0.00186537
-0.000660764
0.00177083
-0.000773361
0.00168868
-0.000879158
0.00168145
-0.00104557
0.00169621
0.00181047
-0.0012828
-0.0020504
0.00228634
-0.00227645
0.00217563
-0.0024563
0.00204523
-0.00257276
0.00188728
-0.00259919
0.00171511
-0.00249404
0.0015763
-0.00222939
0.00143157
0.0015264
-0.00194532
-0.00881907
0.00161694
-0.00807352
0.00143007
-0.00722606
0.00119777
-0.00623766
0.000898885
-0.00507268
0.00055013
-0.00368982
0.000193438
-0.00216515
-9.3096e-05
-0.000456425
-0.000182324
0.037947
-0.00186342
0.0419341
-0.00255701
0.0464263
-0.0032944
0.0512997
-0.00397453
0.0562909
-0.00444104
0.0610086
-0.00452426
0.0660847
-0.00516927
-0.00378602
0.0694143
0.169493
-0.00415788
0.17071
-0.00377427
0.170974
-0.0035585
0.170327
-0.00332734
0.170023
-0.00413665
0.169998
-0.00449908
0.169925
-0.00509661
-0.00280645
0.168945
0.0529598
-0.0051853
0.0540235
-0.004838
0.0552304
-0.00476537
0.0562342
-0.0043311
0.0573811
-0.00528357
0.0581206
-0.00523863
0.0585416
-0.0055176
-0.00293885
0.058674
0.0822168
-0.00810374
0.084746
-0.00736726
0.0870771
-0.00709647
0.0892416
-0.00649561
0.0910249
-0.00706686
0.0923888
-0.00660256
0.093562
-0.0066908
-0.00448982
0.095113
0.0513669
-0.00938909
0.0525254
-0.00852575
0.0536148
-0.00818587
0.0545519
-0.00743265
0.0553017
-0.0078167
0.0559833
-0.00728417
0.0564041
-0.0071116
-0.00492515
0.0568394
0.0496561
-0.0115329
0.0515929
-0.0104626
0.0534154
-0.0100083
0.0550874
-0.00910469
0.056493
-0.00922228
0.0576572
-0.00844834
0.0587035
-0.0081579
-0.00628291
0.0600612
0.0385641
-0.0132237
0.0400907
-0.0119892
0.0415319
-0.0114494
0.0428209
-0.0103937
0.043933
-0.0103344
0.0449202
-0.00943547
0.0457286
-0.00896633
-0.00727285
0.0467185
0.031788
-0.0149491
0.0333857
-0.0135869
0.0349134
-0.0129772
0.0363072
-0.0117875
0.0375242
-0.0115514
0.0386283
-0.0105396
0.0396258
-0.00996384
-0.00848773
0.0408407
0.025211
-0.0165833
0.0267461
-0.015122
0.0282249
-0.014456
0.0295897
-0.0131523
0.0308028
-0.0127645
0.0319401
-0.0116769
0.0329576
-0.0109813
-0.00961934
0.0340892
0.0197144
-0.0180605
0.0211467
-0.0165543
0.0225594
-0.0158687
0.0238819
-0.0144748
0.0250875
-0.0139701
0.0262468
-0.0128363
0.0273115
-0.012046
-0.010807
0.0284992
0.0148058
-0.0194227
0.016138
-0.0178865
0.0174603
-0.017191
0.018742
-0.0157565
0.0199258
-0.0151539
0.0210855
-0.0139959
0.0221593
-0.0131198
-0.0119412
0.0232934
0.0108964
-0.0205768
0.0120393
-0.0190294
0.0132187
-0.0183705
0.014388
-0.0169257
0.0154938
-0.0162597
0.0166053
-0.0151074
0.01764
-0.0141545
-0.0130607
0.0187595
0.00738621
-0.0215853
0.00839638
-0.0200395
0.00946095
-0.019435
0.010538
-0.0180028
0.0115394
-0.0172611
0.0125785
-0.0161466
0.0135665
-0.0151425
-0.0141023
0.0146081
0.00475645
-0.0223572
0.00558679
-0.0208699
0.0064885
-0.0203367
0.00739637
-0.0189106
0.00825248
-0.0181172
0.00920424
-0.0170983
0.0100932
-0.0160315
-0.0150416
0.0110326
0.00249613
-0.0230382
0.00321698
-0.0215907
0.00388767
-0.0210074
0.0046394
-0.0196624
0.00539306
-0.0188709
0.00625577
-0.017961
0.00704609
-0.0168219
-0.0158558
0.0078603
0.000935775
-0.0235493
0.00156039
-0.0222153
0.00196465
-0.0214117
0.0025844
-0.0202821
0.00323562
-0.0195221
0.00389435
-0.0186198
0.00450633
-0.0174338
-0.0165677
0.00521825
-0.000217236
-0.0235457
-0.000148927
-0.0222837
2.72782e-05
-0.0215879
0.000716231
-0.0209711
0.0014924
-0.0202983
0.00195571
-0.0190831
0.00248687
-0.017965
-0.017169
0.00308817
-0.000943974
-0.0233304
-0.000914822
-0.0223128
-0.000698808
-0.0218039
-0.000574947
-0.0210949
-0.000646543
-0.0202267
-0.000481345
-0.0192483
0.000392888
-0.0188392
-0.0181683
0.00139214
-0.000745076
-0.0231431
-0.000863246
-0.0221946
-0.000952022
-0.0217151
-0.00112099
-0.020926
-0.00109739
-0.0202503
-0.000800137
-0.0195455
-0.000597247
-0.0190421
-0.0181233
-0.000642218
-0.000728949
-0.0229124
-0.00087354
-0.02205
-0.00105262
-0.0215361
-0.0011461
-0.0208325
-0.00115167
-0.0202447
-0.00115855
-0.0195386
-0.00124966
-0.018951
-0.0182178
-0.00115512
-0.000634985
-0.0227013
-0.000787339
-0.0218977
-0.000927694
-0.0213957
-0.00105845
-0.0207017
-0.00117422
-0.020129
-0.00125459
-0.0194583
-0.00128264
-0.0189229
-0.0182834
-0.00121706
-0.00059825
-0.0224845
-0.000750713
-0.0217452
-0.000902529
-0.0212439
-0.00100851
-0.0205957
-0.00109072
-0.0200467
-0.00116009
-0.0193889
-0.00121526
-0.0188678
-0.018284
-0.00121472
-0.000539752
-0.0222681
-0.000694433
-0.0215905
-0.000839596
-0.0210987
-0.000963445
-0.0204719
-0.0010699
-0.0199403
-0.00112485
-0.0193339
-0.00115656
-0.0188361
-0.0182718
-0.00116869
-0.00049169
-0.0220608
-0.000658257
-0.021424
-0.000815927
-0.020941
-0.000922831
-0.020365
-0.00100843
-0.0198547
-0.00107326
-0.0192691
-0.00113524
-0.0187741
-0.0182623
-0.00114478
-0.000431618
-0.0218462
-0.00059099
-0.0212646
-0.000730543
-0.0208015
-0.000850988
-0.0202446
-0.000963768
-0.0197419
-0.00103266
-0.0192002
-0.00106564
-0.0187411
-0.0182498
-0.00107812
-0.000413357
-0.0216479
-0.00058221
-0.0210958
-0.000737445
-0.0206463
-0.00085064
-0.0201314
-0.000935889
-0.0196567
-0.000991117
-0.019145
-0.00105095
-0.0186813
-0.0182205
-0.00108024
-0.000334904
-0.0214312
-0.000502383
-0.0209283
-0.000643282
-0.0205054
-0.000766309
-0.0200083
-0.000876258
-0.0195467
-0.000954275
-0.019067
-0.00100455
-0.018631
-0.0182001
-0.00102492
-0.000330413
-0.021239
-0.000490317
-0.0207684
-0.000638648
-0.020357
-0.000756503
-0.0198905
-0.000845895
-0.0194573
-0.000908571
-0.0190043
-0.000962255
-0.0185773
-0.0181663
-0.000996099
-0.000267287
-0.0210249
-0.000439041
-0.0205966
-0.000587418
-0.0202087
-0.000708409
-0.0197695
-0.000812584
-0.0193532
-0.00089327
-0.0189236
-0.000948848
-0.0185217
-0.0181324
-0.000982757
-0.000234217
-0.0208379
-0.000392811
-0.020438
-0.000538209
-0.0200633
-0.000657337
-0.0196504
-0.000756927
-0.0192536
-0.000832473
-0.0188481
-0.00088938
-0.0184648
-0.0180938
-0.000928
-0.00021216
-0.0206374
-0.000378545
-0.0202716
-0.000524382
-0.0199174
-0.000647589
-0.0195271
-0.000751207
-0.0191499
-0.000831305
-0.018768
-0.000892104
-0.018404
-0.0180507
-0.000935128
-0.000150261
-0.0204516
-0.000308747
-0.0201132
-0.000452453
-0.0197737
-0.000576201
-0.0194034
-0.000682685
-0.0190435
-0.000767286
-0.0186834
-0.000832058
-0.0183393
-0.0180037
-0.000879123
-0.000156807
-0.020267
-0.000314454
-0.0199555
-0.00045463
-0.0196335
-0.000577469
-0.0192806
-0.000686697
-0.0189342
-0.000775482
-0.0185946
-0.000844438
-0.0182703
-0.0179541
-0.000893972
-9.41081e-05
-0.02009
-0.000247107
-0.0198025
-0.000384376
-0.0194963
-0.000507064
-0.0191579
-0.000619278
-0.018822
-0.000715914
-0.0184979
-0.000794386
-0.0181918
-0.0178949
-0.00085363
-0.000117927
-0.0199166
-0.000268369
-0.0196521
-0.000402103
-0.0193625
-0.000519949
-0.01904
-0.000628553
-0.0187134
-0.00072833
-0.0183982
-0.000815081
-0.0181051
-0.0178291
-0.000880835
-6.94286e-05
-0.0197455
-0.000219864
-0.0195016
-0.000353718
-0.0192287
-0.000470808
-0.0189229
-0.000573702
-0.0186105
-0.000670883
-0.018301
-0.000765493
-0.0180105
-0.0177484
-0.000846235
-9.70762e-05
-0.0195766
-0.000247768
-0.0193509
-0.000381785
-0.0190947
-0.000496858
-0.0188079
-0.000596335
-0.018511
-0.000686961
-0.0182104
-0.000778749
-0.0179187
-0.0176604
-0.000866708
-5.77752e-05
-0.0194076
-0.000210822
-0.0191979
-0.000347634
-0.0189579
-0.00046452
-0.018691
-0.000564309
-0.0184113
-0.000650049
-0.0181246
-0.000728599
-0.0178401
-0.0175781
-0.000810908
-8.41601e-05
-0.0192387
-0.000236552
-0.0190455
-0.000370998
-0.0188234
-0.000483866
-0.0185781
-0.000579228
-0.0183159
-0.000661593
-0.0180423
-0.000735999
-0.0177657
-0.0175043
-0.000809849
-3.62151e-05
-0.0190741
-0.000188485
-0.0188932
-0.000328107
-0.0186838
-0.000449243
-0.018457
-0.000550011
-0.0182151
-0.00063049
-0.0179618
-0.00069567
-0.0177005
-0.0174412
-0.000758725
-4.88032e-05
-0.0189146
-0.000192778
-0.0187493
-0.000322736
-0.0185538
-0.000438968
-0.0183407
-0.000542666
-0.0181114
-0.000634154
-0.0178703
-0.000709834
-0.0176249
-0.0173819
-0.000769131
0.000121221
-0.0182007
-0.000521889
-0.0181061
-0.00109628
-0.0179794
-0.00161301
-0.017824
-0.0020796
-0.0176448
-0.00249989
-0.01745
-0.00287888
-0.0172459
-0.0170396
-0.00322122
0.000360763
-0.0176195
-0.000173059
-0.0175723
-0.000663024
-0.0174895
-0.0011124
-0.0173746
-0.00152532
-0.0172319
-0.00190629
-0.017069
-0.00226195
-0.0168902
-0.0167036
-0.00259794
0.000324469
-0.0170713
-0.000195976
-0.0170519
-0.000687324
-0.0169981
-0.00114876
-0.0169132
-0.00157786
-0.0168028
-0.00197684
-0.01667
-0.00234591
-0.0165212
-0.0163616
-0.00268788
0.000461607
-0.0166408
5.72678e-05
-0.0166475
-0.000321705
-0.0166192
-0.000674773
-0.0165601
-0.00100395
-0.0164736
-0.00131181
-0.0163622
-0.00160566
-0.0162273
-0.0160696
-0.00189771
0.00039672
-0.0162611
2.88975e-05
-0.0162797
-0.000325799
-0.0162645
-0.000667742
-0.0162182
-0.000995752
-0.0161456
-0.00130857
-0.0160494
-0.00160214
-0.0159337
-0.0158017
-0.00187004
0.000411268
-0.0159728
0.000134051
-0.0160025
-0.000131094
-0.0159993
-0.000383023
-0.0159663
-0.000623222
-0.0159054
-0.000854846
-0.0158178
-0.00108374
-0.0157048
-0.0155723
-0.00131315
0.000311682
-0.0157443
8.9935e-05
-0.0157808
-0.000123409
-0.015786
-0.000328896
-0.0157608
-0.000528007
-0.0157063
-0.000722109
-0.0156237
-0.000912183
-0.0155148
-0.0153854
-0.00109903
0.000240601
-0.0155972
9.85997e-05
-0.0156388
-3.97924e-05
-0.0156476
-0.000176165
-0.0156244
-0.000310928
-0.0155715
-0.000442848
-0.0154917
-0.000569782
-0.0153878
-0.0152603
-0.000694878
2.55466e-05
-0.0154948
-7.50314e-05
-0.0155382
-0.000172015
-0.0155506
-0.000263144
-0.0155333
-0.000346555
-0.0154881
-0.00042035
-0.0154179
-0.000485424
-0.0153228
-0.0152002
-0.000545534
-6.57174e-05
-9.8871e-05
-0.000127014
-0.000149633
-0.000167091
-0.000181236
-0.000194085
-0.000205753
-4.34602e-05
2.64974e-06
-4.47596e-05
1.29944e-06
-4.56644e-05
9.04737e-07
-4.57857e-05
1.21387e-07
-4.53347e-05
-4.51044e-07
-4.43902e-05
-9.44463e-07
-4.30347e-05
-1.35553e-06
-4.12992e-05
-1.73551e-06
-3.91933e-05
-2.10588e-06
-3.67506e-05
-2.44275e-06
-3.40491e-05
-2.7015e-06
-3.12487e-05
-2.80034e-06
-2.85361e-05
-2.71261e-06
-2.605e-05
-2.4861e-06
-2.37159e-05
-2.3341e-06
-2.14098e-05
-2.30613e-06
-1.90675e-05
-2.3423e-06
-1.67124e-05
-2.35513e-06
-1.4542e-05
-2.17041e-06
-1.2573e-05
-1.969e-06
-1.07064e-05
-1.86655e-06
-8.78753e-06
-1.91889e-06
-6.69499e-06
-2.09254e-06
-4.33453e-06
-2.36046e-06
-1.76227e-06
-2.57226e-06
8.69351e-07
-2.63162e-06
3.39625e-06
-2.5269e-06
5.52712e-06
-2.13088e-06
7.12667e-06
-1.59954e-06
8.25295e-06
-1.12628e-06
9.1034e-06
-8.50449e-07
9.97934e-06
-8.75945e-07
1.10865e-05
-1.10719e-06
1.23919e-05
-1.30533e-06
1.33879e-05
-9.96008e-07
1.35563e-05
-1.6843e-07
1.28629e-05
6.93353e-07
1.17478e-05
1.11513e-06
1.07201e-05
1.02772e-06
1.01721e-05
5.4802e-07
1.03356e-05
-1.63475e-07
1.12159e-05
-8.80364e-07
1.26241e-05
-1.40815e-06
1.41804e-05
-1.55636e-06
1.54699e-05
-1.28943e-06
1.61857e-05
-7.15889e-07
1.61991e-05
-1.33568e-08
1.55993e-05
5.9979e-07
1.46895e-05
9.09812e-07
1.38173e-05
8.72232e-07
1.32323e-05
5.84922e-07
1.30375e-05
1.94806e-07
1.31303e-05
-9.27886e-08
1.32561e-05
-1.25779e-07
1.31611e-05
9.50067e-08
1.26845e-05
4.76595e-07
1.17802e-05
9.04267e-07
1.0508e-05
1.27226e-06
8.96996e-06
1.53801e-06
7.2729e-06
1.69706e-06
5.49534e-06
1.77756e-06
3.68379e-06
1.81155e-06
1.85543e-06
1.82836e-06
-4.02293e-08
1.89565e-06
-2.18534e-06
2.14511e-06
-4.82366e-06
2.63832e-06
-8.06206e-06
3.2384e-06
-1.17587e-05
3.69668e-06
-1.54401e-05
3.6814e-06
-1.88189e-05
3.37873e-06
-2.19831e-05
3.1642e-06
-2.53145e-05
3.33138e-06
-2.87815e-05
3.467e-06
-3.22437e-05
3.46225e-06
-3.55279e-05
3.28424e-06
-3.84988e-05
2.97082e-06
-4.1152e-05
2.65326e-06
-4.32805e-05
2.12852e-06
-4.46125e-05
1.33201e-06
-4.51968e-05
5.84303e-07
-4.52753e-05
7.84617e-08
-4.49848e-05
-2.90469e-07
-4.43337e-05
-6.51142e-07
-4.32866e-05
-1.0471e-06
-4.17556e-05
-1.53102e-06
-3.96624e-05
-2.09323e-06
-3.69512e-05
-2.7112e-06
-3.36183e-05
-3.33281e-06
-2.9696e-05
-3.92236e-06
-2.52351e-05
-4.46085e-06
-2.03108e-05
-4.92434e-06
-1.50305e-05
-5.28026e-06
-9.51987e-06
-5.51067e-06
-3.95084e-06
-5.56903e-06
1.48237e-06
-5.4332e-06
6.57901e-06
-5.09664e-06
1.11409e-05
-4.56186e-06
1.50086e-05
-3.86777e-06
1.80754e-05
-3.06681e-06
2.02984e-05
-2.22299e-06
2.16832e-05
-1.38479e-06
2.22792e-05
-5.95944e-07
2.21534e-05
1.25801e-07
2.13818e-05
7.71551e-07
2.0045e-05
1.33685e-06
1.82193e-05
1.82563e-06
1.59889e-05
2.23046e-06
1.34492e-05
2.53971e-06
1.07016e-05
2.74757e-06
7.85913e-06
2.84245e-06
5.04506e-06
2.81407e-06
2.40666e-06
2.6384e-06
1.05468e-07
2.30119e-06
-1.66716e-06
1.77262e-06
-2.74884e-06
1.08168e-06
-2.98139e-06
2.32553e-07
-2.25467e-06
-7.26718e-07
-5.03213e-07
-1.75146e-06
2.29057e-06
-2.79378e-06
6.07718e-06
-3.78662e-06
1.07335e-05
-4.65631e-06
1.60606e-05
-5.32715e-06
2.17887e-05
-5.72806e-06
2.75892e-05
-5.80054e-06
3.30937e-05
-5.50446e-06
3.79149e-05
-4.82121e-06
4.16721e-05
-3.75719e-06
4.40205e-05
-2.34836e-06
4.46818e-05
-6.61324e-07
4.34768e-05
1.20495e-06
4.03697e-05
3.1071e-06
3.54834e-05
4.88633e-06
2.90962e-05
6.3872e-06
2.1634e-05
7.46218e-06
1.36493e-05
7.98471e-06
5.78723e-06
7.8621e-06
-1.26771e-06
7.05493e-06
-6.90845e-06
5.64074e-06
-1.05949e-05
3.68648e-06
-1.19495e-05
1.35462e-06
-1.08165e-05
-1.13301e-06
-7.28167e-06
-3.53487e-06
-1.67138e-06
-5.61029e-06
5.48427e-06
-7.15565e-06
1.34273e-05
-7.94304e-06
2.13531e-05
-7.92577e-06
2.8444e-05
-7.09096e-06
3.39577e-05
-5.51363e-06
3.73115e-05
-3.35382e-06
3.81345e-05
-8.23002e-07
3.62931e-05
1.84134e-06
3.19188e-05
4.37436e-06
2.53632e-05
6.55556e-06
1.71599e-05
8.20332e-06
7.96222e-06
9.19768e-06
9.5062e-06
-4.34666e-05
5.31228e-06
-4.47739e-05
2.60675e-06
-4.56786e-05
1.80946e-06
-4.58002e-05
2.42945e-07
-4.53492e-05
-9.0204e-07
-4.44047e-05
-1.88891e-06
-4.30492e-05
-2.71105e-06
-4.13137e-05
-3.471e-06
-3.92078e-05
-4.21176e-06
-3.67651e-05
-4.88547e-06
-3.40637e-05
-5.40292e-06
-3.12634e-05
-5.60063e-06
-2.85507e-05
-5.4253e-06
-2.60645e-05
-4.97228e-06
-2.37304e-05
-4.6682e-06
-2.14244e-05
-4.61217e-06
-1.90821e-05
-4.68462e-06
-1.67269e-05
-4.71024e-06
-1.45565e-05
-4.34088e-06
-1.25874e-05
-3.93808e-06
-1.07208e-05
-3.73317e-06
-8.80184e-06
-3.8378e-06
-6.70931e-06
-4.18507e-06
-4.34887e-06
-4.7209e-06
-1.77664e-06
-5.14449e-06
8.55195e-07
-5.26345e-06
3.38197e-06
-5.05367e-06
5.51282e-06
-4.26173e-06
7.11232e-06
-3.19904e-06
8.23858e-06
-2.25254e-06
9.08904e-06
-1.70091e-06
9.96503e-06
-1.75193e-06
1.10722e-05
-2.21441e-06
1.23776e-05
-2.61066e-06
1.33735e-05
-1.99192e-06
1.35419e-05
-3.36801e-07
1.28484e-05
1.38679e-06
1.17332e-05
2.23035e-06
1.07055e-05
2.05546e-06
1.01575e-05
1.096e-06
1.0321e-05
-3.26953e-07
1.12014e-05
-1.76077e-06
1.26096e-05
-2.81634e-06
1.41659e-05
-3.11267e-06
1.54553e-05
-2.57882e-06
1.61712e-05
-1.43178e-06
1.61845e-05
-2.66972e-08
1.55847e-05
1.19958e-06
1.46749e-05
1.81958e-06
1.38027e-05
1.74445e-06
1.32178e-05
1.16985e-06
1.3023e-05
3.8961e-07
1.31158e-05
-1.85545e-07
1.32415e-05
-2.51521e-07
1.31465e-05
1.89994e-07
1.26699e-05
9.53187e-07
1.17656e-05
1.80854e-06
1.04934e-05
2.54451e-06
8.95541e-06
3.076e-06
7.25837e-06
3.39409e-06
5.48081e-06
3.55513e-06
3.66927e-06
3.62309e-06
1.84095e-06
3.65668e-06
-5.66675e-08
3.79327e-06
-2.19889e-06
4.28733e-06
-4.83808e-06
5.27751e-06
-8.07652e-06
6.47685e-06
-1.17733e-05
7.39343e-06
-1.54547e-05
7.36281e-06
-1.88334e-05
6.75746e-06
-2.19976e-05
6.32837e-06
-2.53291e-05
6.66291e-06
-2.87966e-05
6.93454e-06
-3.22582e-05
6.92378e-06
-3.55424e-05
6.56847e-06
-3.85132e-05
5.94165e-06
-4.11665e-05
5.3065e-06
-4.3295e-05
4.25704e-06
-4.4627e-05
2.66401e-06
-4.52113e-05
1.16858e-06
-4.52897e-05
1.56897e-07
-4.49992e-05
-5.80958e-07
-4.43481e-05
-1.30229e-06
-4.3301e-05
-2.0942e-06
-4.177e-05
-3.06203e-06
-3.96767e-05
-4.18645e-06
-3.69655e-05
-5.4224e-06
-3.36327e-05
-6.66561e-06
-2.97104e-05
-7.84472e-06
-2.52495e-05
-8.9217e-06
-2.03252e-05
-9.84865e-06
-1.5045e-05
-1.05604e-05
-9.53435e-06
-1.10214e-05
-3.96526e-06
-1.11381e-05
1.46763e-06
-1.08661e-05
6.56453e-06
-1.01935e-05
1.11265e-05
-9.12378e-06
1.49942e-05
-7.73549e-06
1.8061e-05
-6.13362e-06
2.0284e-05
-4.44597e-06
2.16688e-05
-2.76957e-06
2.22647e-05
-1.19189e-06
2.21389e-05
2.5161e-07
2.13673e-05
1.54312e-06
2.00305e-05
2.67364e-06
1.82049e-05
3.65122e-06
1.59745e-05
4.4609e-06
1.34348e-05
5.07942e-06
1.06872e-05
5.49513e-06
7.84478e-06
5.68491e-06
5.0307e-06
5.62815e-06
2.39231e-06
5.2768e-06
9.15859e-08
4.60191e-06
-1.68171e-06
3.54592e-06
-2.76336e-06
2.16333e-06
-2.99593e-06
4.65118e-07
-2.26921e-06
-1.45344e-06
-5.17731e-07
-3.50293e-06
2.27593e-06
-5.58744e-06
6.0626e-06
-7.57329e-06
1.07189e-05
-9.31264e-06
1.60461e-05
-1.06543e-05
2.17742e-05
-1.14561e-05
2.75747e-05
-1.16011e-05
3.30792e-05
-1.10089e-05
3.79004e-05
-9.64244e-06
4.16576e-05
-7.51441e-06
4.4006e-05
-4.69676e-06
4.46674e-05
-1.32267e-06
4.34625e-05
2.40987e-06
4.03554e-05
6.21419e-06
3.54691e-05
9.77265e-06
2.9082e-05
1.27743e-05
2.16198e-05
1.49243e-05
1.36351e-05
1.59695e-05
5.77292e-06
1.57242e-05
-1.28272e-06
1.41106e-05
-6.92298e-06
1.1281e-05
-1.06095e-05
7.37298e-06
-1.19641e-05
2.70923e-06
-1.08311e-05
-2.26602e-06
-7.29617e-06
-7.06978e-06
-1.68567e-06
-1.12208e-05
5.46974e-06
-1.43111e-05
1.34129e-05
-1.58862e-05
2.13387e-05
-1.58516e-05
2.84297e-05
-1.4182e-05
3.39434e-05
-1.10273e-05
3.72973e-05
-6.70768e-06
3.81203e-05
-1.64603e-06
3.6279e-05
3.68266e-06
3.19046e-05
8.74872e-06
2.53491e-05
1.3111e-05
1.71458e-05
1.64066e-05
7.94813e-06
1.83954e-05
1.90151e-05
-4.34751e-05
7.97505e-06
-4.47883e-05
3.91999e-06
-4.56927e-05
2.7138e-06
-4.5814e-05
3.64222e-07
-4.53628e-05
-1.35323e-06
-4.44182e-05
-2.83346e-06
-4.30626e-05
-4.06667e-06
-4.1327e-05
-5.20657e-06
-3.92211e-05
-6.31772e-06
-3.67783e-05
-7.32825e-06
-3.40769e-05
-8.10437e-06
-3.12766e-05
-8.40093e-06
-2.85638e-05
-8.13809e-06
-2.60775e-05
-7.4585e-06
-2.37435e-05
-7.00225e-06
-2.14376e-05
-6.91804e-06
-1.90954e-05
-7.02684e-06
-1.67404e-05
-7.06522e-06
-1.45701e-05
-6.51123e-06
-1.26011e-05
-5.90702e-06
-1.07346e-05
-5.59969e-06
-8.81577e-06
-5.75666e-06
-6.72325e-06
-6.27759e-06
-4.3628e-06
-7.08135e-06
-1.79056e-06
-7.71674e-06
8.41519e-07
-7.89553e-06
3.36823e-06
-7.58038e-06
5.4991e-06
-6.3926e-06
7.09859e-06
-4.79853e-06
8.22486e-06
-3.37881e-06
9.07537e-06
-2.55142e-06
9.95144e-06
-2.628e-06
1.10588e-05
-3.32174e-06
1.23642e-05
-3.91612e-06
1.33602e-05
-2.98788e-06
1.35286e-05
-5.05199e-07
1.28351e-05
2.08027e-06
1.17198e-05
3.34563e-06
1.06921e-05
3.08322e-06
1.01441e-05
1.64395e-06
1.03076e-05
-4.9044e-07
1.11881e-05
-2.64123e-06
1.25963e-05
-4.2246e-06
1.41527e-05
-4.66901e-06
1.54421e-05
-3.86824e-06
1.6158e-05
-2.1477e-06
1.61713e-05
-4.0013e-08
1.55715e-05
1.79942e-06
1.46617e-05
2.72939e-06
1.37894e-05
2.61671e-06
1.32045e-05
1.75479e-06
1.30097e-05
5.84403e-07
1.31024e-05
-2.78309e-07
1.32282e-05
-3.77271e-07
1.31332e-05
2.84952e-07
1.26566e-05
1.42979e-06
1.17523e-05
2.71283e-06
1.04801e-05
3.81677e-06
8.94207e-06
4.614e-06
7.24502e-06
5.09114e-06
5.46744e-06
5.33271e-06
3.6559e-06
5.43462e-06
1.82761e-06
5.48498e-06
-7.0178e-08
5.69106e-06
-2.21205e-06
6.4292e-06
-4.85139e-06
7.91685e-06
-8.08987e-06
9.71532e-06
-1.17868e-05
1.10904e-05
-1.54683e-05
1.10443e-05
-1.8847e-05
1.01362e-05
-2.20111e-05
9.49247e-06
-2.53426e-05
9.99443e-06
-2.88102e-05
1.04021e-05
-3.22718e-05
1.03854e-05
-3.55561e-05
9.85274e-06
-3.85269e-05
8.91247e-06
-4.11802e-05
7.95981e-06
-4.33088e-05
6.38561e-06
-4.46408e-05
3.99602e-06
-4.5225e-05
1.75282e-06
-4.53035e-05
2.3531e-07
-4.5013e-05
-8.71408e-07
-4.43619e-05
-1.95342e-06
-4.33148e-05
-3.14128e-06
-4.17838e-05
-4.59303e-06
-3.96906e-05
-6.27968e-06
-3.69793e-05
-8.13362e-06
-3.36465e-05
-9.99844e-06
-2.97241e-05
-1.17671e-05
-2.52633e-05
-1.33826e-05
-2.03389e-05
-1.4773e-05
-1.50588e-05
-1.58406e-05
-9.54804e-06
-1.65321e-05
-3.97885e-06
-1.67073e-05
1.45353e-06
-1.62985e-05
6.55068e-06
-1.52907e-05
1.11128e-05
-1.36859e-05
1.49807e-05
-1.16034e-05
1.80475e-05
-9.20043e-06
2.02705e-05
-6.66897e-06
2.16553e-05
-4.15438e-06
2.22512e-05
-1.78784e-06
2.21254e-05
3.7745e-07
2.13538e-05
2.31469e-06
2.00171e-05
4.01044e-06
1.81915e-05
5.47679e-06
1.5961e-05
6.69135e-06
1.34213e-05
7.61915e-06
1.06737e-05
8.24271e-06
7.83122e-06
8.52741e-06
5.01711e-06
8.44226e-06
2.37868e-06
7.91523e-06
7.84282e-08
6.90216e-06
-1.69555e-06
5.3199e-06
-2.77722e-06
3.245e-06
-3.0098e-06
6.97697e-07
-2.28308e-06
-2.18016e-06
-5.31572e-07
-5.25444e-06
2.26219e-06
-8.38121e-06
6.0488e-06
-1.13599e-05
1.07051e-05
-1.3969e-05
1.60324e-05
-1.59815e-05
2.17605e-05
-1.71843e-05
2.75611e-05
-1.74017e-05
3.30657e-05
-1.65135e-05
3.7887e-05
-1.44637e-05
4.16443e-05
-1.12717e-05
4.39928e-05
-7.04525e-06
4.46542e-05
-1.98409e-06
4.34493e-05
3.61475e-06
4.03422e-05
9.3213e-06
3.54558e-05
1.4659e-05
2.90687e-05
1.91615e-05
2.16064e-05
2.23866e-05
1.36215e-05
2.39543e-05
5.75925e-06
2.35865e-05
-1.29673e-06
2.11665e-05
-6.93705e-06
1.69213e-05
-1.06236e-05
1.10596e-05
-1.19783e-05
4.06386e-06
-1.08452e-05
-3.39909e-06
-7.3102e-06
-1.06048e-05
-1.69938e-06
-1.68316e-05
5.45591e-06
-2.14663e-05
1.33993e-05
-2.38295e-05
2.13252e-05
-2.37776e-05
2.84164e-05
-2.12731e-05
3.39302e-05
-1.65412e-05
3.72842e-05
-1.00617e-05
3.81073e-05
-2.46913e-06
3.6266e-05
5.52398e-06
3.18916e-05
1.31231e-05
2.5336e-05
1.96666e-05
1.71326e-05
2.461e-05
7.93479e-06
2.75932e-05
2.85248e-05
-4.3475e-05
1.06396e-05
-4.47946e-05
5.23956e-06
-4.56986e-05
3.6178e-06
-4.58198e-05
4.85444e-07
-4.53686e-05
-1.8045e-06
-4.44239e-05
-3.77808e-06
-4.30683e-05
-5.42234e-06
-4.13327e-05
-6.94217e-06
-3.92266e-05
-8.42373e-06
-3.67838e-05
-9.77107e-06
-3.40823e-05
-1.08059e-05
-3.1282e-05
-1.12013e-05
-2.85691e-05
-1.0851e-05
-2.60829e-05
-9.94473e-06
-2.37489e-05
-9.33623e-06
-2.14431e-05
-9.2238e-06
-1.9101e-05
-9.369e-06
-1.67461e-05
-9.42007e-06
-1.45759e-05
-8.68141e-06
-1.26071e-05
-7.87582e-06
-1.07407e-05
-7.46611e-06
-8.82191e-06
-7.67546e-06
-6.72942e-06
-8.37008e-06
-4.36894e-06
-9.44183e-06
-1.79664e-06
-1.0289e-05
8.35614e-07
-1.05278e-05
3.36235e-06
-1.01071e-05
5.49326e-06
-8.52351e-06
7.09275e-06
-6.39802e-06
8.21901e-06
-4.50507e-06
9.06951e-06
-3.40192e-06
9.94561e-06
-3.5041e-06
1.1053e-05
-4.42915e-06
1.23586e-05
-5.22174e-06
1.33547e-05
-3.98397e-06
1.35232e-05
-6.73653e-07
1.28296e-05
2.77384e-06
1.17142e-05
4.46104e-06
1.06864e-05
4.11106e-06
1.01384e-05
2.19194e-06
1.03019e-05
-6.53933e-07
1.11824e-05
-3.52177e-06
1.25908e-05
-5.63298e-06
1.41472e-05
-6.22545e-06
1.54367e-05
-5.15772e-06
1.61527e-05
-2.86366e-06
1.6166e-05
-5.33046e-08
1.5566e-05
2.39934e-06
1.46562e-05
3.63927e-06
1.37838e-05
3.48904e-06
1.31988e-05
2.33977e-06
1.30041e-05
7.79175e-07
1.30969e-05
-3.71123e-07
1.32227e-05