/*--------------------------------*- C++ -*----------------------------------*\
| =========                 |                                                 |
| \\      /  F ield         | OpenFOAM: The Open Source CFD Toolbox           |
|  \\    /   O peration     | Version:  v1912                                 |
|   \\  /    A nd           | Website:  www.openfoam.com                      |
|    \\/     M anipulation  |                                                 |
\*---------------------------------------------------------------------------*/
FoamFile
{
    version     2.0;
    format      ascii;
    class       surfaceScalarField;
    location    "50";
    object      alphaPhi0.water;
}
// * * * * * * * * * * * * * * * * * * * * * * * * * * * * * * * * * * * * * //

dimensions      [0 3 -1 0 0 0 0];
oriented        oriented;


internalField   nonuniform List<scalar> 
28285
(
1.10733e-05
3.44947e-06
1.3431e-06
9.73019e-06
-1.01805e-05
1.15236e-05
-1.9192e-05
9.01146e-06
-2.3522e-05
4.33001e-06
-2.35625e-05
4.04837e-08
-2.07083e-05
-2.85417e-06
-1.73615e-05
-3.34674e-06
-1.57706e-05
-1.59092e-06
-1.53989e-05
-3.7168e-07
-1.36868e-05
-1.71215e-06
-8.82293e-06
-4.86386e-06
-2.57631e-06
-6.24662e-06
1.56269e-06
-4.139e-06
1.32895e-06
2.33744e-07
-3.04355e-06
4.3725e-06
-7.4823e-06
4.43874e-06
-7.62707e-06
1.44778e-07
-1.11939e-06
-6.50769e-06
1.00881e-05
-1.12074e-05
2.11149e-05
-1.10269e-05
2.82013e-05
-7.08643e-06
2.99251e-05
-1.72376e-06
2.89121e-05
1.013e-06
2.96627e-05
-7.50634e-07
3.52767e-05
-5.61392e-06
4.37321e-05
-8.45543e-06
4.92206e-05
-5.4885e-06
4.78408e-05
1.37976e-06
4.32526e-05
4.58819e-06
4.30859e-05
1.66683e-07
5.38751e-05
-1.07892e-05
7.67507e-05
-2.28755e-05
0.000107405
-3.06548e-05
0.00014723
-3.98249e-05
0.000210317
-6.30871e-05
0.000298038
-8.77201e-05
0.000404237
-0.000106199
0.000518689
-0.000114452
0.000626913
-0.000108225
0.000731227
-0.000104314
0.0008151
-8.38726e-05
0.00082174
-6.64071e-06
2.30518e-05
0.000798689
1.10625e-05
6.89881e-06
1.33246e-06
1.94602e-05
-1.01922e-05
2.30483e-05
-1.92038e-05
1.80231e-05
-2.35337e-05
8.65989e-06
-2.35738e-05
8.0599e-08
-2.07194e-05
-5.70862e-06
-1.73727e-05
-6.6934e-06
-1.57818e-05
-3.18179e-06
-1.54103e-05
-7.43226e-07
-1.36983e-05
-3.42416e-06
-8.83421e-06
-9.72792e-06
-2.5871e-06
-1.24937e-05
1.55168e-06
-8.27778e-06
1.31784e-06
4.67585e-07
-3.05475e-06
8.74509e-06
-7.49385e-06
8.87785e-06
-7.63888e-06
2.89802e-07
-1.13082e-06
-1.30157e-05
1.00767e-05
-2.2415e-05
2.1104e-05
-2.20541e-05
2.81906e-05
-1.4173e-05
2.99144e-05
-3.44756e-06
2.89009e-05
2.02648e-06
2.96513e-05
-1.501e-06
3.52651e-05
-1.12277e-05
4.37209e-05
-1.69112e-05
4.92097e-05
-1.09774e-05
4.783e-05
2.75955e-06
4.32414e-05
9.17675e-06
4.30738e-05
3.34247e-07
5.38627e-05
-2.1578e-05
7.67378e-05
-4.57506e-05
0.000107392
-6.13093e-05
0.000147222
-7.96547e-05
0.000210313
-0.000126178
0.000298041
-0.000175448
0.000404225
-0.000212383
0.000518682
-0.000228909
0.000626914
-0.000216456
0.000727794
-0.000205194
0.000816227
-0.000172305
0.000828028
-1.84422e-05
4.93784e-05
0.000801702
1.10518e-05
1.03481e-05
1.32136e-06
2.91906e-05
-1.02049e-05
3.45745e-05
-1.92169e-05
2.70352e-05
-2.35468e-05
1.29898e-05
-2.35865e-05
1.20289e-07
-2.07316e-05
-8.56357e-06
-1.73847e-05
-1.00403e-05
-1.57939e-05
-4.77252e-06
-1.54226e-05
-1.11452e-06
-1.37108e-05
-5.13599e-06
-8.84641e-06
-1.45923e-05
-2.59841e-06
-1.87417e-05
1.54032e-06
-1.24165e-05
1.30598e-06
7.01919e-07
-3.0671e-06
1.31182e-05
-7.50677e-06
1.33175e-05
-7.65211e-06
4.35141e-07
-1.14353e-06
-1.95243e-05
1.00646e-05
-3.36232e-05
2.10927e-05
-3.30822e-05
2.81794e-05
-2.12597e-05
2.99031e-05
-5.17117e-06
2.88889e-05
3.04067e-06
2.96388e-05
-2.25097e-06
3.52528e-05
-1.68417e-05
4.37096e-05
-2.5368e-05
4.91993e-05
-1.64671e-05
4.78191e-05
4.13974e-06
4.32297e-05
1.37661e-05
4.30612e-05
5.02764e-07
5.38504e-05
-3.23672e-05
7.67257e-05
-6.8626e-05
0.00010738
-9.19638e-05
0.000147217
-0.000119491
0.000210309
-0.000189271
0.000298033
-0.000263171
0.000404218
-0.000318568
0.000518677
-0.000343368
0.000626914
-0.000324693
0.000727297
-0.000305577
0.000815556
-0.000260564
0.000828227
-3.1113e-05
7.53257e-05
0.00080228
1.1047e-05
1.37978e-05
1.31562e-06
3.8922e-05
-1.02124e-05
4.61025e-05
-1.9225e-05
3.60477e-05
-2.35547e-05
1.73195e-05
-2.3594e-05
1.59547e-07
-2.07383e-05
-1.14192e-05
-1.73908e-05
-1.33878e-05
-1.58003e-05
-6.36306e-06
-1.54298e-05
-1.48504e-06
-1.37183e-05
-6.84742e-06
-8.85333e-06
-1.94573e-05
-2.60434e-06
-2.49907e-05
1.53482e-06
-1.65557e-05
1.30038e-06
9.36356e-07
-3.07365e-06
1.74922e-05
-7.51456e-06
1.77584e-05
-7.66047e-06
5.81047e-07
-1.1512e-06
-2.60336e-05
1.00583e-05
-4.48326e-05
2.10876e-05
-4.41115e-05
2.81744e-05
-2.83465e-05
2.98973e-05
-6.89406e-06
2.88819e-05
4.05607e-06
2.96314e-05
-3.00046e-06
3.5246e-05
-2.24564e-05
4.37043e-05
-3.38263e-05
4.91951e-05
-2.19579e-05
4.78141e-05
5.52076e-06
4.32229e-05
1.83573e-05
4.30529e-05
6.72809e-07
5.38422e-05
-4.31565e-05
7.67193e-05
-9.15031e-05
0.000107375
-0.00012262
0.000147207
-0.000159323
0.0002103
-0.000252364
0.000298024
-0.000350895
0.000404212
-0.000424756
0.000518662
-0.000457819
0.00062689
-0.000432921
0.000725765
-0.000404453
0.000815741
-0.00035054
0.000832392
-4.77638e-05
0.000101458
0.00080626
1.1047e-05
1.72482e-05
1.31398e-06
4.86551e-05
-1.02159e-05
5.76324e-05
-1.92292e-05
4.5061e-05
-2.3559e-05
2.16492e-05
-2.35976e-05
1.9822e-07
-2.07408e-05
-1.4276e-05
-1.73926e-05
-1.6736e-05
-1.58025e-05
-7.95321e-06
-1.54329e-05
-1.85459e-06
-1.37217e-05
-8.55863e-06
-8.85631e-06
-2.43227e-05
-2.60607e-06
-3.1241e-05
1.53407e-06
-2.06958e-05
1.29895e-06
1.17148e-06
-3.07641e-06
2.18676e-05
-7.51871e-06
2.22007e-05
-7.6653e-06
7.27635e-07
-1.15524e-06
-3.25437e-05
1.00559e-05
-5.60437e-05
2.10866e-05
-5.51422e-05
2.81738e-05
-3.54337e-05
2.98958e-05
-8.61606e-06
2.88789e-05
5.07296e-06
2.96273e-05
-3.74891e-06
3.52428e-05
-2.80718e-05
4.37032e-05
-4.22867e-05
4.91951e-05
-2.74498e-05
4.78128e-05
6.90312e-06
4.32191e-05
2.2951e-05
4.30467e-05
8.4519e-07
5.38359e-05
-5.39457e-05
7.67154e-05
-0.000114383
0.000107372
-0.000153277
0.000147196
-0.000199146
0.000210279
-0.000315448
0.000298002
-0.000438618
0.000404191
-0.000530946
0.000518618
-0.000572246
0.000626836
-0.000541139
0.000725909
-0.000503526
0.000815364
-0.000439995
0.000832446
-6.4846e-05
0.000125838
0.000808066
1.10493e-05
2.0699e-05
1.31417e-06
5.83902e-05
-1.0218e-05
6.91646e-05
-1.92323e-05
5.40753e-05
-2.35618e-05
2.59788e-05
-2.35997e-05
2.36098e-07
-2.07418e-05
-1.7134e-05
-1.73927e-05
-2.00851e-05
-1.58029e-05
-9.54303e-06
-1.54345e-05
-2.22294e-06
-1.37239e-05
-1.02692e-05
-8.85766e-06
-2.91889e-05
-2.60587e-06
-3.74928e-05
1.5353e-06
-2.4837e-05
1.29996e-06
1.40682e-06
-3.07729e-06
2.62448e-05
-7.52182e-06
2.66453e-05
-7.6691e-06
8.74909e-07
-1.15802e-06
-3.90547e-05
1.00552e-05
-6.7257e-05
2.10877e-05
-6.61748e-05
2.81751e-05
-4.25211e-05
2.98959e-05
-1.03369e-05
2.88773e-05
6.09164e-06
2.96247e-05
-4.49636e-06
3.52414e-05
-3.36885e-05
4.37042e-05
-5.07495e-05
4.91972e-05
-3.29429e-05
4.78133e-05
8.28707e-06
4.32163e-05
2.7548e-05
4.30413e-05
1.02016e-06
5.38303e-05
-6.47347e-05
7.67111e-05
-0.000137263
0.000107367
-0.000183932
0.000147187
-0.000238966
0.000210264
-0.000378524
0.000297969
-0.000526323
0.000404133
-0.00063711
0.000518516
-0.000686629
0.000626696
-0.000649319
0.000726108
-0.000602938
0.000814346
-0.000528232
0.00083239
-8.28907e-05
0.000148351
0.000809877
1.10527e-05
2.41506e-05
1.31519e-06
6.81277e-05
-1.02194e-05
8.06992e-05
-1.9235e-05
6.30908e-05
-2.35645e-05
3.03083e-05
-2.36016e-05
2.73152e-07
-2.07421e-05
-1.99934e-05
-1.73921e-05
-2.34352e-05
-1.58026e-05
-1.11325e-05
-1.54355e-05
-2.59008e-06
-1.37256e-05
-1.19791e-05
-8.85853e-06
-3.4056e-05
-2.60449e-06
-4.37468e-05
1.53801e-06
-2.89795e-05
1.30143e-06
1.6434e-06
-3.0777e-06
3.06239e-05
-7.52428e-06
3.10918e-05
-7.67286e-06
1.02349e-06
-1.16074e-06
-4.55668e-05
1.00548e-05
-7.84725e-05
2.10897e-05
-7.72096e-05
2.81781e-05
-4.96095e-05
2.98974e-05
-1.20561e-05
2.88763e-05
7.11272e-06
2.96222e-05
-5.24225e-06
3.524e-05
-3.93063e-05
4.37058e-05
-5.92153e-05
4.92005e-05
-3.84375e-05
4.78144e-05
9.67319e-06
4.32136e-05
3.21488e-05
4.3035e-05
1.19875e-06
5.38237e-05
-7.55233e-05
7.67054e-05
-0.000160145
0.000107362
-0.000214589
0.000147172
-0.000278777
0.000210238
-0.000441589
0.00029791
-0.000613995
0.000404007
-0.000743207
0.000518287
-0.000800909
0.00062637
-0.000757401
0.000725907
-0.000702476
0.000813789
-0.000616115
0.000832046
-0.000101147
0.000170115
0.000810282
1.10569e-05
2.76029e-05
1.31647e-06
7.78682e-05
-1.02211e-05
9.22368e-05
-1.92379e-05
7.21077e-05
-2.35675e-05
3.46379e-05
-2.36037e-05
3.09388e-07
-2.07426e-05
-2.28545e-05
-1.73912e-05
-2.67866e-05
-1.5802e-05
-1.27217e-05
-1.54365e-05
-2.95556e-06
-1.37277e-05
-1.36879e-05
-8.85947e-06
-3.89243e-05
-2.60319e-06
-5.00031e-05
1.54083e-06
-3.31235e-05
1.30392e-06
1.88031e-06
-3.07772e-06
3.50056e-05
-7.52739e-06
3.55415e-05
-7.67721e-06
1.17331e-06
-1.16353e-06
-5.20805e-05
1.00549e-05
-8.96909e-05
2.10921e-05
-8.82468e-05
2.8181e-05
-5.66985e-05
2.98986e-05
-1.37737e-05
2.88747e-05
8.1366e-06
2.96193e-05
-5.98691e-06
3.5239e-05
-4.4926e-05
4.3708e-05
-6.76843e-05
4.92043e-05
-4.39338e-05
4.78157e-05
1.10617e-05
4.32103e-05
3.67542e-05
4.30281e-05
1.38093e-06
5.38163e-05
-8.63115e-05
7.66991e-05
-0.000183028
0.000107354
-0.000245244
0.000147158
-0.000318581
0.000210199
-0.00050463
0.000297798
-0.000701594
0.000403762
-0.000849171
0.000517839
-0.000914986
0.000625696
-0.000865258
0.000725323
-0.000802102
0.000812374
-0.000703166
0.000831591
-0.000120364
0.000190328
0.000811379
1.10617e-05
3.10562e-05
1.31797e-06
8.76119e-05
-1.02228e-05
0.000103778
-1.92414e-05
8.11262e-05
-2.3571e-05
3.89675e-05
-2.36059e-05
3.44239e-07
-2.07428e-05
-2.57175e-05
-1.73902e-05
-3.01392e-05
-1.58015e-05
-1.43104e-05
-1.54375e-05
-3.31956e-06
-1.37296e-05
-1.53958e-05
-8.8604e-06
-4.37935e-05
-2.60125e-06
-5.62622e-05
1.54461e-06
-3.72694e-05
1.30594e-06
2.11897e-06
-3.07835e-06
3.93899e-05
-7.53051e-06
3.99937e-05
-7.68189e-06
1.32468e-06
-1.16684e-06
-5.85956e-05
1.00545e-05
-0.000100912
2.10948e-05
-9.92871e-05
2.81852e-05
-6.37888e-05
2.99007e-05
-1.54892e-05
2.88735e-05
9.1638e-06
2.9616e-05
-6.72945e-06
3.52373e-05
-5.05472e-05
4.37103e-05
-7.61573e-05
4.92086e-05
-4.94321e-05
4.78172e-05
1.24532e-05
4.3207e-05
4.13644e-05
4.30198e-05
1.56812e-06
5.38078e-05
-9.70995e-05
7.66916e-05
-0.000205912
0.000107346
-0.000275898
0.000147139
-0.000358375
0.000210139
-0.00056763
0.000297616
-0.000789071
0.000403361
-0.000954917
0.000517083
-0.00102871
0.00062454
-0.000972715
0.000723757
-0.00090132
0.000810919
-0.000790328
0.000831028
-0.000140473
0.000210199
0.000811157
1.10672e-05
3.45105e-05
1.31976e-06
9.73593e-05
-1.0225e-05
0.000115322
-1.92454e-05
9.01466e-05
-2.35748e-05
4.3297e-05
-2.36085e-05
3.77931e-07
-2.07435e-05
-2.85826e-05
-1.7389e-05
-3.34937e-05
-1.58006e-05
-1.58988e-05
-1.5439e-05
-3.68122e-06
-1.37326e-05
-1.71022e-05
-8.86156e-06
-4.86645e-05
-2.59959e-06
-6.25242e-05
1.54808e-06
-4.1417e-05
1.30932e-06
2.35773e-06
-3.07827e-06
4.37775e-05
-7.53454e-06
4.44499e-05
-7.68741e-06
1.47756e-06
-1.17078e-06
-6.51122e-05
1.00546e-05
-0.000112138
2.10982e-05
-0.000110331
2.81891e-05
-7.08797e-05
2.99023e-05
-1.72025e-05
2.88715e-05
1.01947e-05
2.96124e-05
-7.47038e-06
3.5236e-05
-5.61708e-05
4.37128e-05
-8.46342e-05
4.92132e-05
-5.49325e-05
4.78187e-05
1.38477e-05
4.32026e-05
4.59805e-05
4.30109e-05
1.75982e-06
5.3798e-05
-0.000107887
7.66807e-05
-0.000228794
0.000107327
-0.000306544
0.000147123
-0.000398172
0.00021005
-0.000630557
0.000297332
-0.000876352
0.000402742
-0.00106033
0.000515967
-0.00114193
0.00062287
-0.00107962
0.000721749
-0.0010002
0.00080891
-0.000877489
0.000830402
-0.000161965
0.00022933
0.00081127
1.10732e-05
3.79662e-05
1.32153e-06
0.000107111
-1.02272e-05
0.000126871
-1.92495e-05
9.9169e-05
-2.35792e-05
4.76266e-05
-2.36115e-05
4.10214e-07
-2.07437e-05
-3.14504e-05
-1.73876e-05
-3.68498e-05
-1.58e-05
-1.74863e-05
-1.54404e-05
-4.04089e-06
-1.3735e-05
-1.88076e-05
-8.86252e-06
-5.35369e-05
-2.59687e-06
-6.87899e-05
1.55293e-06
-4.55668e-05
1.31189e-06
2.59877e-06
-3.07914e-06
4.81685e-05
-7.53858e-06
4.89094e-05
-7.69336e-06
1.63234e-06
-1.17508e-06
-7.16305e-05
1.00541e-05
-0.000123367
2.1102e-05
-0.000121379
2.81945e-05
-7.79722e-05
2.99049e-05
-1.89129e-05
2.88701e-05
1.12296e-05
2.96084e-05
-8.20874e-06
3.52338e-05
-6.17962e-05
4.37156e-05
-9.31161e-05
4.92189e-05
-6.04357e-05
4.78207e-05
1.52458e-05
4.31982e-05
5.06031e-05
4.30002e-05
1.95778e-06
5.37874e-05
-0.000118674
7.66723e-05
-0.000251679
0.000107317
-0.000337188
0.000147095
-0.00043795
0.000209915
-0.000693377
0.000296909
-0.000963346
0.000401862
-0.00116528
0.000514514
-0.00125458
0.00062086
-0.00118596
0.000719242
-0.00109858
0.000806637
-0.000964884
0.000829639
-0.000184966
0.000247858
0.000811112
1.10799e-05
4.14226e-05
1.32382e-06
0.000116867
-1.02299e-05
0.000138425
-1.92545e-05
0.000108194
-2.35841e-05
5.19562e-05
-2.36147e-05
4.40828e-07
-2.07442e-05
-3.43208e-05
-1.73861e-05
-4.02079e-05
-1.57991e-05
-1.90733e-05
-1.54422e-05
-4.39776e-06
-1.37385e-05
-2.05113e-05
-8.86385e-06
-5.84116e-05
-2.595e-06
-7.50587e-05
1.55702e-06
-4.97188e-05
1.3159e-06
2.83989e-06
-3.07896e-06
5.25634e-05
-7.54319e-06
5.33736e-05
-7.70006e-06
1.78921e-06
-1.18004e-06
-7.81505e-05
1.00541e-05
-0.000134601
2.1106e-05
-0.000132431
2.81992e-05
-8.50654e-05
2.99071e-05
-2.06209e-05
2.88676e-05
1.22691e-05
2.96037e-05
-8.94485e-06
3.52321e-05
-6.74245e-05
4.37186e-05
-0.000101603
4.92244e-05
-6.59415e-05
4.78227e-05
1.66475e-05
4.31926e-05
5.52332e-05
4.29895e-05
2.1609e-06
5.37752e-05
-0.000129459
7.66627e-05
-0.000274567
0.000107309
-0.000367834
0.000147044
-0.000477685
0.000209718
-0.000756052
0.000296327
-0.00104996
0.000400688
-0.00126964
0.000512758
-0.00136666
0.000618644
-0.00129185
0.000716496
-0.00119643
0.000803919
-0.00105231
0.000828676
-0.000209723
0.000265341
0.000811192
1.1087e-05
4.48809e-05
1.32582e-06
0.000126628
-1.02325e-05
0.000149983
-1.92594e-05
0.00011722
-2.35892e-05
5.6286e-05
-2.36184e-05
4.70007e-07
-2.07446e-05
-3.71945e-05
-1.73843e-05
-4.35682e-05
-1.57984e-05
-2.06592e-05
-1.54439e-05
-4.75228e-06
-1.37412e-05
-2.2214e-05
-8.86511e-06
-6.32877e-05
-2.59173e-06
-8.13321e-05
1.56307e-06
-5.38736e-05
1.31871e-06
3.08424e-06
-3.08037e-06
5.69624e-05
-7.5482e-06
5.78414e-05
-7.70721e-06
1.94821e-06
-1.18489e-06
-8.46728e-05
1.00539e-05
-0.00014584
2.11103e-05
-0.000143487
2.82051e-05
-9.21602e-05
2.99102e-05
-2.2326e-05
2.88661e-05
1.33132e-05
2.95991e-05
-9.67784e-06
3.52293e-05
-7.30547e-05
4.37217e-05
-0.000110095
4.92313e-05
-7.14511e-05
4.78253e-05
1.80534e-05
4.31874e-05
5.98711e-05
4.29764e-05
2.37189e-06
5.37619e-05
-0.000140245
7.66479e-05
-0.000297453
0.000107294
-0.000398481
0.000146971
-0.000517362
0.000209437
-0.000818517
0.000295567
-0.00113608
0.000399199
-0.00137327
0.00051064
-0.0014781
0.000616111
-0.00139732
0.000713276
-0.0012936
0.000800597
-0.00113963
0.00082727
-0.000236396
0.000281328
0.000811283
1.10947e-05
4.83401e-05
1.32869e-06
0.000136394
-1.02356e-05
0.000161547
-1.92655e-05
0.00012625
-2.35949e-05
6.06154e-05
-2.36217e-05
4.9687e-07
-2.0745e-05
-4.00713e-05
-1.73828e-05
-4.69305e-05
-1.57975e-05
-2.22445e-05
-1.54461e-05
-5.10371e-06
-1.37455e-05
-2.39146e-05
-8.86716e-06
-6.8166e-05
-2.58988e-06
-8.76094e-05
1.56792e-06
-5.80314e-05
1.32348e-06
3.32869e-06
-3.08021e-06
6.13661e-05
-7.55353e-06
6.23148e-05
-7.71499e-06
2.10967e-06
-1.19087e-06
-9.11969e-05
1.00539e-05
-0.000157085
2.11151e-05
-0.000154548
2.82108e-05
-9.92559e-05
2.99128e-05
-2.4028e-05
2.88628e-05
1.43632e-05
2.95933e-05
-1.04083e-05
3.52276e-05
-7.8689e-05
4.37252e-05
-0.000118593
4.92375e-05
-7.69634e-05
4.78275e-05
1.94634e-05
4.31808e-05
6.45177e-05
4.29637e-05
2.58898e-06
5.37472e-05
-0.000151028
7.6634e-05
-0.00032034
0.000107279
-0.000429125
0.000146877
-0.00055696
0.00020908
-0.000880721
0.00029459
-0.00122159
0.000397404
-0.00147609
0.000508123
-0.00158882
0.000612967
-0.00150216
0.000709528
-0.00139016
0.000796408
-0.00122651
0.000824806
-0.000264794
0.000295259
0.000810875
2.22146e-05
5.52662e-05
2.66385e-06
0.000155945
-2.04809e-05
0.000184692
-3.85483e-05
0.000144318
-4.72082e-05
6.92752e-05
-4.72564e-05
5.45147e-07
-4.14917e-05
-4.5836e-05
-3.47589e-05
-5.36632e-05
-3.15917e-05
-2.54117e-05
-3.08983e-05
-5.79715e-06
-2.75013e-05
-2.73116e-05
-1.77389e-05
-7.79284e-05
-5.16734e-06
-0.000100181
3.15769e-06
-6.63565e-05
2.65743e-06
3.82895e-06
-6.16544e-06
7.0189e-05
-1.5126e-05
7.12754e-05
-1.54561e-05
2.43973e-06
-2.39786e-06
-0.000104255
2.01083e-05
-0.000179591
4.22464e-05
-0.000176686
5.64425e-05
-0.000113452
5.98349e-05
-2.74204e-05
5.77203e-05
1.64778e-05
5.91703e-05
-1.18583e-05
7.04465e-05
-8.99652e-05
8.74637e-05
-0.00013561
9.85016e-05
-8.80013e-05
9.56649e-05
2.23001e-05
8.6344e-05
7.38386e-05
8.58816e-05
3.05136e-06
0.000107451
-0.000172598
0.000153236
-0.000366125
0.000214506
-0.000490395
0.000293447
-0.000635901
0.000416919
-0.00100419
0.000585761
-0.00139044
0.000788022
-0.00167835
0.00100668
-0.00180747
0.00121476
-0.00171025
0.00140588
-0.00158128
0.00157783
-0.00139846
0.00163763
-0.00032459
0.000317736
0.00161515
2.22537e-05
6.21941e-05
2.67823e-06
0.00017552
-2.04973e-05
0.000207868
-3.858e-05
0.0001624
-4.72375e-05
7.79328e-05
-4.72729e-05
5.80612e-07
-4.14939e-05
-5.1615e-05
-3.47517e-05
-6.04055e-05
-3.1587e-05
-2.85764e-05
-3.09089e-05
-6.47531e-06
-2.75219e-05
-3.06986e-05
-1.77483e-05
-8.77019e-05
-5.1595e-06
-0.00011277
3.17922e-06
-7.46952e-05
2.68216e-06
4.32601e-06
-6.16194e-06
7.90331e-05
-1.5152e-05
8.02655e-05
-1.54951e-05
2.78282e-06
-2.42748e-06
-0.000117323
2.01072e-05
-0.000202125
4.22685e-05
-0.000198848
5.64683e-05
-0.000127652
5.98452e-05
-3.07973e-05
5.77033e-05
1.86198e-05
5.91428e-05
-1.32979e-05
7.04381e-05
-0.00010126
8.74812e-05
-0.000152653
9.8531e-05
-9.90511e-05
9.56736e-05
2.51574e-05
8.631e-05
8.32022e-05
8.58223e-05
3.53906e-06
0.000107384
-0.000194159
0.000153172
-0.000411914
0.000214407
-0.000551629
0.000292817
-0.00071431
0.000414566
-0.00112594
0.000579515
-0.00155538
0.000775837
-0.00187467
0.000989218
-0.00202086
0.00119421
-0.00191524
0.00138314
-0.00177021
0.00155083
-0.00156614
0.00161314
-0.000386903
0.000333709
0.00159717
2.22966e-05
6.91371e-05
2.68887e-06
0.000195128
-2.05125e-05
0.000231069
-3.86068e-05
0.000180495
-4.7266e-05
8.6592e-05
-4.72959e-05
6.10492e-07
-4.14982e-05
-5.74127e-05
-3.47408e-05
-6.71629e-05
-3.1581e-05
-3.17362e-05
-3.09186e-05
-7.13765e-06
-2.75388e-05
-3.40784e-05
-1.77543e-05
-9.74864e-05
-5.13694e-06
-0.000125387
3.21766e-06
-8.30498e-05
2.70003e-06
4.84364e-06
-6.17156e-06
8.79047e-05
-1.5185e-05
8.92789e-05
-1.55395e-05
3.13737e-06
-2.45459e-06
-0.000130408
2.01086e-05
-0.000224689
4.22967e-05
-0.000221036
5.65059e-05
-0.000141861
5.98635e-05
-3.4155e-05
5.7695e-05
2.07883e-05
5.91157e-05
-1.47186e-05
7.04217e-05
-0.000112566
8.75013e-05
-0.000169733
9.85754e-05
-0.000110125
9.56935e-05
2.80393e-05
8.62835e-05
9.26123e-05
8.5743e-05
4.07953e-06
0.000107305
-0.000215721
0.000153099
-0.000457708
0.000214261
-0.000612791
0.000291855
-0.000791904
0.000411295
-0.00124538
0.000571118
-0.00171521
0.000759636
-0.00206319
0.000965419
-0.00222664
0.00116552
-0.00211534
0.00135236
-0.00195705
0.00151882
-0.0017326
0.00158507
-0.000453152
0.000344569
0.00157421
2.23453e-05
7.60797e-05
2.70886e-06
0.000214765
-2.05328e-05
0.000254311
-3.86491e-05
0.000198611
-4.73066e-05
9.52495e-05
-4.73162e-05
6.20124e-07
-4.14992e-05
-6.32297e-05
-3.4733e-05
-7.39291e-05
-3.15781e-05
-3.48911e-05
-3.09313e-05
-7.78443e-06
-2.75625e-05
-3.74472e-05
-1.77661e-05
-0.000107283
-5.12849e-06
-0.000138025
3.24326e-06
-9.14215e-05
2.73036e-06
5.35654e-06
-6.16628e-06
9.68013e-05
-1.52153e-05
9.83279e-05
-1.55866e-05
3.5087e-06
-2.49246e-06
-0.000143502
2.01048e-05
-0.000247286
4.23234e-05
-0.000243254
5.65406e-05
-0.000156078
5.988e-05
-3.74943e-05
5.76749e-05
2.29934e-05
5.90811e-05
-1.61248e-05
7.04107e-05
-0.000123896
8.75242e-05
-0.000186846
9.86124e-05
-0.000121213
9.57037e-05
3.0948e-05
8.62398e-05
0.000102076
8.56697e-05
4.64968e-06
0.000107218
-0.000237269
0.000152976
-0.000503466
0.000213945
-0.000673759
0.000290464
-0.000868423
0.000407141
-0.00136206
0.000561239
-0.00186931
0.000740649
-0.0022426
0.000936774
-0.00242276
0.00112974
-0.00230831
0.00131136
-0.00213867
0.00147824
-0.00189948
0.001553
-0.000527904
0.000349404
0.00154816
2.23983e-05
8.3044e-05
2.7189e-06
0.000234444
-2.05519e-05
0.000277581
-3.86754e-05
0.000216735
-4.73324e-05
0.000103907
-4.73429e-05
6.30641e-07
-4.15053e-05
-6.90673e-05
-3.47169e-05
-8.07175e-05
-3.15668e-05
-3.80412e-05
-3.09443e-05
-8.40695e-06
-2.75861e-05
-4.08054e-05
-1.77728e-05
-0.000117096
-5.09769e-06
-0.0001507
3.29355e-06
-9.98128e-05
2.75371e-06
5.89637e-06
-6.17869e-06
0.000105734
-1.52563e-05
0.000107405
-1.56399e-05
3.89233e-06
-2.5231e-06
-0.000156619
2.01097e-05
-0.000269919
4.23599e-05
-0.000265504
5.6586e-05
-0.000170304
5.99018e-05
-4.08101e-05
5.76669e-05
2.52283e-05
5.905e-05
-1.75079e-05
7.03921e-05
-0.000135238
8.75488e-05
-0.000204003
9.86689e-05
-0.000132333
9.57301e-05
3.38867e-05
8.62065e-05
0.0001116
8.55656e-05
5.29053e-06
0.0001071
-0.000258804
0.000152771
-0.000549137
0.000213398
-0.000734387
0.000288596
-0.00094362
0.000402086
-0.00147555
0.000550655
-0.00201787
0.000720201
-0.00241214
0.000903228
-0.00260579
0.00108414
-0.00248922
0.00125504
-0.00230957
0.00142088
-0.00206532
0.00151076
-0.000617783
0.000345971
0.00151419
2.24566e-05
9.00049e-05
2.74554e-06
0.000254155
-2.05732e-05
0.0003009
-3.87218e-05
0.000234883
-4.7374e-05
0.000112559
-4.73547e-05
6.1129e-07
-4.14992e-05
-7.49228e-05
-3.47075e-05
-8.75092e-05
-3.15646e-05
-4.11841e-05
-3.09548e-05
-9.01679e-06
-2.76068e-05
-4.41533e-05
-1.77833e-05
-0.00012692
-5.0865e-06
-0.000163397
3.32783e-06
-0.000108227
2.79565e-06
6.42854e-06
-6.16617e-06
0.000114696
-1.52853e-05
0.000116525
-1.56901e-05
4.29716e-06
-2.56529e-06
-0.000169744
2.0108e-05
-0.000292592
4.23974e-05
-0.000287794
5.66356e-05
-0.000184543
5.99283e-05
-4.41028e-05
5.76459e-05
2.75107e-05
5.90093e-05
-1.88713e-05
7.03805e-05
-0.000146609
8.7578e-05
-0.0002212
9.8706e-05
-0.000143461
9.57298e-05
3.68629e-05
8.61379e-05
0.000121192
8.54529e-05
5.9756e-06
0.00010694
-0.000280291
0.000152452
-0.000594649
0.000212633
-0.000794568
0.000286309
-0.0010173
0.00039627
-0.00158551
0.000539175
-0.00216078
0.000698237
-0.00257121
0.000866648
-0.0027742
0.00103409
-0.00265667
0.00119195
-0.00246742
0.00134711
-0.00222049
0.00145306
-0.000723729
0.000321897
0.00147713
2.25244e-05
9.69917e-05
2.7621e-06
0.000273917
-2.05913e-05
0.000324254
-3.87357e-05
0.000253028
-4.73839e-05
0.000121207
-4.73838e-05
6.11219e-07
-4.15042e-05
-8.08024e-05
-3.46823e-05
-9.43311e-05
-3.15447e-05
-4.43217e-05
-3.09687e-05
-9.59282e-06
-2.76347e-05
-4.74873e-05
-1.7783e-05
-0.000136771
-5.0485e-06
-0.000176131
3.38184e-06
-0.000116657
2.82273e-06
6.98765e-06
-6.17712e-06
0.000123695
-1.53263e-05
0.000125674
-1.57447e-05
4.71563e-06
-2.5979e-06
-0.00018289
2.01144e-05
-0.000315304
4.24417e-05
-0.000310121
5.66899e-05
-0.000198791
5.99571e-05
-4.737e-05
5.76371e-05
2.98306e-05
5.89678e-05
-2.02019e-05
7.03534e-05
-0.000157995
8.75596e-05
-0.000238406
9.87146e-05
-0.000154616
9.57232e-05
3.98543e-05
8.60628e-05
0.000130852
8.52901e-05
6.74833e-06
0.000106724
-0.000301725
0.000152111
-0.000640036
0.000211674
-0.000854131
0.000283378
-0.001089
0.000389391
-0.00169152
0.000526686
-0.00229807
0.000676947
-0.00272147
0.000833652
-0.00293091
0.000990857
-0.00281387
0.00114063
-0.0026172
0.00128205
-0.00236191
0.00139294
-0.000834618
0.000275946
0.00143889
0.000311816
0.000190959
4.00564e-05
0.000545677
-0.000283447
0.000647757
-0.000534797
0.000504378
-0.000653676
0.000240086
-0.000650146
-2.91881e-06
-0.0005664
-0.000164548
-0.000471838
-0.000188894
-0.000429798
-8.63613e-05
-0.000423941
-1.54502e-05
-0.000380376
-9.10521e-05
-0.000245242
-0.000271905
-6.90388e-05
-0.000352335
4.86562e-05
-0.000234352
4.18817e-05
1.37621e-05
-8.4261e-05
0.000249838
-0.000214451
0.000255863
-0.00022282
1.30848e-05
-4.21953e-05
-0.000363515
0.000271799
-0.000629298
0.000580368
-0.00061869
0.000775824
-0.000394247
0.0008178
-8.93461e-05
0.000780831
6.67997e-05
0.000796561
-3.59325e-05
0.00095436
-0.000315793
0.00119367
-0.000477713
0.00134672
-0.00030767
0.00130113
8.54479e-05
0.0011611
0.000270883
0.00114471
2.31339e-05
0.0014305
-0.000587512
0.00203334
-0.00124288
0.00276235
-0.00158315
0.00349488
-0.00182152
0.00450287
-0.00269952
0.00584071
-0.00363591
0.00737115
-0.0042519
0.0090566
-0.00461635
0.0108203
-0.00457757
0.0124811
-0.00427804
0.0139327
-0.00381344
0.0152446
-0.00214657
-0.000302399
0.015823
0.000306027
0.000298695
1.39749e-05
0.000837729
-0.000322513
0.000984245
-0.000575743
0.000757607
-0.000697487
0.00036183
-0.000691709
-8.69641e-06
-0.000600488
-0.00025577
-0.000498951
-0.00029043
-0.000463171
-0.000122141
-0.000470604
-8.01817e-06
-0.000427194
-0.000134461
-0.000280665
-0.000418434
-9.00415e-05
-0.000542958
3.10838e-05
-0.000355478
1.60819e-05
2.87641e-05
-0.000120576
0.000386496
-0.000264072
0.00039936
-0.000280504
2.9516e-05
-9.28304e-05
-0.000551188
0.000233507
-0.000955635
0.000553405
-0.000938588
0.000752563
-0.000593406
0.000786585
-0.000123368
0.000733854
0.000119531
0.000736839
-3.89172e-05
0.000894395
-0.000473349
0.00114629
-0.00072961
0.00131108
-0.000472457
0.00124321
0.000153317
0.0010627
0.000451397
0.00100224
8.35847e-05
0.00122861
-0.000813882
0.00168804
-0.0017023
0.00207278
-0.00196788
0.00222842
-0.00197716
0.00164596
-0.00211707
0.000933613
-0.00292356
-0.000139456
-0.00317883
-0.0016966
-0.00305921
-0.0025316
-0.00374257
-0.00302004
-0.0037896
-0.0029206
-0.00391288
-0.0010807
-0.00398648
-0.00184095
0.000457851
3.45399e-05
0.000407523
-0.000256425
0.00112869
-0.000590129
0.00131795
-0.000849492
0.00101697
-0.000975847
0.000488185
-0.000961157
-2.3386e-05
-0.000853732
-0.000363196
-0.000756552
-0.000387609
-0.000742672
-0.000136022
-0.000772302
2.16116e-05
-0.000738761
-0.000168002
-0.000574573
-0.000582623
-0.00035507
-0.000762461
-0.000221584
-0.000488963
-0.000245757
5.29372e-05
-0.000418511
0.00055925
-0.000591944
0.000572792
-0.000618274
5.58466e-05
-0.00042815
-0.000741313
-8.8904e-05
-0.00129488
0.0002517
-0.00127919
0.000448807
-0.000790513
0.00046258
-0.000137141
0.000375355
0.000206756
0.000342453
-6.01539e-06
0.000490079
-0.000620976
0.000740728
-0.000980259
0.000884409
-0.000616137
0.000772038
0.000265688
0.000490282
0.000733153
0.000278619
0.000295248
0.000208947
-0.000744211
-2.82388e-05
-0.00146512
-0.000816069
-0.00117999
-0.00273581
-5.22142e-05
-0.00530414
0.000456505
-0.0079074
-0.000315143
-0.0104939
-0.000589322
-0.012963
-0.000582628
-0.0152694
-0.00142624
-0.0171725
-0.00188352
-0.0184985
-0.00258844
-0.019496
-0.0029851
-0.000235077
-0.0210834
-0.000573385
0.000307603
-0.000837093
0.000997181
-0.00127572
0.00130129
-0.00164953
0.00106278
-0.00175882
0.000460908
-0.00162171
-0.000124001
-0.00145112
-0.000391296
-0.00141344
-0.00030062
-0.0014646
-5.56581e-05
-0.00148151
2.84984e-05
-0.00141674
-0.000174956
-0.00125798
-0.000541936
-0.00105629
-0.000703983
-0.000934498
-0.000443589
-0.000979117
7.72919e-05
-0.0011829
0.000580113
-0.00139602
0.000594181
-0.00147725
0.000107376
-0.00133459
-0.000629692
-0.00102534
-0.00114414
-0.000705833
-0.00114247
-0.000520943
-0.000697614
-0.000556926
-7.04284e-05
-0.000734028
0.000290996
-0.000854881
9.22518e-05
-0.000793779
-0.000484295
-0.000681729
-0.000769088
-0.000678049
-0.000424682
-0.000871198
0.000313431
-0.00121152
0.000733741
-0.00159533
0.0004847
-0.00200685
-0.000206432
-0.00290533
-0.000335156
-0.00429818
0.000239316
-0.00567417
0.00099753
-0.00717959
0.00148751
-0.009719
0.00174277
-0.0125288
0.00176746
-0.0149111
0.0015052
-0.0166577
0.00055603
-0.0170837
-0.000605948
-0.0164589
-0.00194365
-0.0158278
-0.00206628
-0.000431589
-0.0148384
-0.000550913
6.50093e-05
-0.000829729
0.000197257
-0.0012066
0.00027154
-0.00152532
0.000236732
-0.00160741
9.10834e-05
-0.00150157
-5.49415e-05
-0.00135621
-9.81291e-05
-0.0012959
-5.18824e-05
-0.00131617
1.27154e-06
-0.00134387
1.20224e-05
-0.00134729
-3.06017e-05
-0.0012875
-0.000105828
-0.00115201
-0.000148596
-0.00104401
-9.42865e-05
-0.00104892
1.75696e-05
-0.00116218
0.000125599
-0.00127803
0.000127279
-0.00130863
2.89881e-05
-0.00121662
-0.000105592
-0.00102182
-0.000192787
-0.000817444
-0.000188201
-0.000710706
-0.00011055
-0.00075726
-1.91384e-06
-0.000852815
7.16799e-05
-0.000887126
2.55927e-05
-0.000781996
-7.58399e-05
-0.000624237
-0.000102884
-0.000537575
-5.02751e-05
-0.000587718
5.1942e-05
-0.000705945
0.000121284
-0.000772
8.0588e-05
-0.000676568
-4.04722e-05
-0.000420384
-8.31524e-05
-0.000266547
-5.92658e-06
-0.000364429
0.00020845
-0.000462341
0.000318263
-0.00025577
0.000287527
0.000150472
0.000224838
0.000795792
7.27697e-05
0.00160231
-8.03257e-05
0.00248797
-0.000156616
0.00299072
-0.00017011
0.00346217
-0.000119346
-0.00013529
0.00417191
1.86054e-05
1.6124e-14
-6.54829e-05
2.41944e-14
-0.000146986
2.51175e-14
-0.000227415
2.08231e-14
-0.000265637
9.74041e-15
-0.00026063
-2.58883e-15
-0.000214274
-8.46828e-15
-0.000166914
-6.60522e-15
-0.000157009
-9.06711e-16
-0.000171078
2.32856e-15
-0.000190429
-3.12684e-16
-0.000178758
-7.20365e-15
-0.000150091
-1.12017e-14
-0.000128192
-7.15101e-15
-0.000127164
1.29678e-15
-0.000143461
8.75492e-15
-0.000164429
9.6492e-15
-0.000176607
3.90791e-15
-0.000157167
-6.28227e-15
-0.000114117
-1.26653e-14
-7.28104e-05
-1.2075e-14
-4.70063e-05
-7.3038e-15
-4.33601e-05
-9.28199e-16
-3.59895e-05
1.38282e-15
-2.15562e-06
-2.83311e-15
4.69149e-05
-6.65452e-15
7.11327e-05
-5.18542e-15
7.67912e-05
-1.92223e-15
8.155e-05
1.09728e-15
9.46196e-05
2.96245e-15
0.000120521
-2.58402e-16
0.000146103
-1.46349e-15
0.000164768
-2.60006e-15
0.00017709
-9.74035e-16
0.000206683
4.10638e-15
0.000246486
3.59502e-15
0.000277277
-5.49233e-17
0.000277158
-1.34819e-16
0.000257795
-7.72138e-16