/*--------------------------------*- C++ -*----------------------------------*\
| =========                 |                                                 |
| \\      /  F ield         | OpenFOAM: The Open Source CFD Toolbox           |
|  \\    /   O peration     | Version:  v1912                                 |
|   \\  /    A nd           | Website:  www.openfoam.com                      |
|    \\/     M anipulation  |                                                 |
\*---------------------------------------------------------------------------*/
FoamFile
{
    version     2.0;
    format      ascii;
    class       volScalarField;
    location    "50";
    object      p;
}
// * * * * * * * * * * * * * * * * * * * * * * * * * * * * * * * * * * * * * //

dimensions      [1 -1 -2 0 0 0 0];


internalField   nonuniform List<scalar> 
14268
(
14698.7
14718.5
14771.7
14834.9
14884.6
14901.8
14887.6
14853.5
14826.3
14817.1
14825.1
14838.5
14842
14833.6
14818.8
14803.1
14789.7
14775.7
14759.2
14741.2
14729.5
14730.3
14740.2
14752.7
14746.5
14712.8
14655.3
14601.3
14577.9
14592.2
14629
14662
14683.8
14703.7
14732
14764.1
14774
14750.3
14688.6
14582
14438.3
14273.7
14109.4
14022.4
14597.1
14616.9
14670.1
14733.3
14783
14800.2
14786
14751.9
14724.7
14715.5
14723.5
14736.9
14740.4
14732
14717.2
14701.5
14688.1
14674.1
14657.6
14639.6
14627.9
14628.7
14638.6
14651.1
14644.9
14611.2
14553.7
14499.6
14476.3
14490.6
14527.4
14560.4
14582.2
14602.1
14630.4
14662.5
14672.4
14648.7
14587
14480.4
14336.7
14172.1
14007.8
13920
14495.5
14515.3
14568.5
14631.7
14681.4
14698.6
14684.4
14650.3
14623.1
14613.9
14621.9
14635.3
14638.8
14630.4
14615.6
14599.9
14586.5
14572.5
14556
14538
14526.3
14527.1
14537
14549.5
14543.3
14509.6
14452.1
14398
14374.7
14389
14425.8
14458.8
14480.6
14500.5
14528.8
14560.9
14570.8
14547.1
14485.4
14378.8
14235.1
14070.5
13906.2
13818.1
14393.9
14413.7
14466.9
14530.1
14579.8
14597
14582.8
14548.7
14521.5
14512.3
14520.3
14533.7
14537.1
14528.8
14514
14498.3
14484.9
14470.9
14454.4
14436.4
14424.7
14425.5
14435.4
14447.9
14441.7
14408
14350.5
14296.4
14273.1
14287.4
14324.2
14357.2
14379
14398.9
14427.2
14459.3
14469.2
14445.5
14383.8
14277.2
14133.5
13968.9
13804.5
13715.8
14292.3
14312.1
14365.3
14428.5
14478.2
14495.4
14481.2
14447.1
14419.9
14410.7
14418.7
14432.1
14435.6
14427.2
14412.4
14396.7
14383.3
14369.3
14352.8
14334.8
14323.1
14323.9
14333.8
14346.3
14340.1
14306.4
14248.9
14194.8
14171.4
14185.8
14222.6
14255.6
14277.4
14297.3
14325.6
14357.7
14367.6
14343.9
14282.2
14175.6
14031.9
13867.3
13702.9
13613.7
14190.7
14210.4
14263.7
14326.9
14376.6
14393.8
14379.6
14345.5
14318.3
14309.1
14317
14330.5
14334
14325.6
14310.8
14295.1
14281.7
14267.7
14251.2
14233.2
14221.5
14222.3
14232.2
14244.7
14238.5
14204.8
14147.3
14093.2
14069.8
14084.2
14121
14154
14175.8
14195.7
14224
14256.1
14266
14242.3
14180.6
14074
13930.3
13765.6
13601.3
13511.6
14089.1
14108.8
14162.1
14225.3
14275.1
14292.2
14278
14243.9
14216.7
14207.5
14215.4
14228.9
14232.4
14224
14209.2
14193.5
14180.1
14166
14149.6
14131.6
14119.9
14120.7
14130.6
14143.1
14136.9
14103.2
14045.7
13991.6
13968.2
13982.6
14019.4
14052.4
14074.2
14094.1
14122.4
14154.5
14164.4
14140.7
14079
13972.4
13828.7
13664
13499.6
13409.4
13987.4
14007.2
14060.5
14123.7
14173.5
14190.6
14176.4
14142.3
14115.1
14105.9
14113.8
14127.3
14130.8
14122.4
14107.6
14091.9
14078.5
14064.4
14047.9
14030
14018.2
14019.1
14029
14041.5
14035.4
14001.6
13944.1
13889.9
13866.6
13880.9
13917.8
13950.8
13972.6
13992.4
14020.8
14052.9
14062.8
14039.1
13977.4
13870.8
13727.1
13562.4
13398
13307.3
13885.8
13905.6
13958.8
14022.1
14071.9
14089.1
14074.8
14040.7
14013.5
14004.3
14012.2
14025.7
14029.2
14020.8
14005.9
13990.3
13976.9
13962.8
13946.3
13928.4
13916.6
13917.4
13927.4
13939.9
13933.8
13900.1
13842.5
13788.3
13764.9
13779.3
13816.2
13849.2
13871
13890.8
13919.2
13951.3
13961.2
13937.5
13875.9
13769.2
13625.5
13460.8
13296.3
13205.1
13784.2
13803.9
13857.2
13920.5
13970.3
13987.5
13973.2
13939.1
13911.8
13902.6
13910.6
13924.1
13927.6
13919.2
13904.3
13888.7
13875.3
13861.2
13844.7
13826.8
13815
13815.8
13825.8
13838.3
13832.2
13798.5
13740.9
13686.7
13663.3
13677.7
13714.6
13747.6
13769.3
13789.2
13817.6
13849.7
13859.6
13836
13774.3
13667.6
13523.9
13359.1
13194.6
13103
13682.5
13702.3
13755.6
13818.9
13868.8
13885.9
13871.6
13837.5
13810.2
13801
13809
13822.5
13826
13817.6
13802.7
13787.1
13773.7
13759.6
13743.1
13725.2
13713.4
13714.2
13724.2
13736.7
13730.6
13696.9
13639.3
13585.1
13561.7
13576.1
13613
13646
13667.7
13687.6
13716
13748.1
13758
13734.4
13672.7
13566
13422.2
13257.5
13093
13000.8
13580.9
13600.7
13654
13717.3
13767.2
13784.3
13770.1
13735.9
13708.6
13699.4
13707.4
13720.9
13724.4
13716
13701.1
13685.5
13672.1
13658
13641.5
13623.6
13611.8
13612.6
13622.6
13635.2
13629
13595.3
13537.6
13483.4
13460
13474.4
13511.4
13544.4
13566.1
13586
13614.4
13646.5
13656.5
13632.8
13571.1
13464.5
13320.6
13155.9
12991.3
12898.6
13479.3
13499
13552.4
13615.7
13665.6
13682.8
13668.5
13634.3
13607
13597.8
13605.8
13619.3
13622.8
13614.4
13599.5
13583.9
13570.5
13556.4
13539.9
13521.9
13510.2
13511
13521
13533.6
13527.5
13493.7
13436
13381.8
13358.4
13372.8
13409.8
13442.8
13464.5
13484.4
13512.8
13544.9
13554.9
13531.2
13469.5
13362.9
13219
13054.2
12889.6
12796.4
13377.6
13397.4
13450.7
13514.1
13564.1
13581.2
13566.9
13532.7
13505.4
13496.2
13504.2
13517.7
13521.2
13512.8
13497.9
13482.3
13468.9
13454.8
13438.3
13420.3
13408.5
13409.4
13419.4
13432
13425.9
13392.1
13334.4
13280.1
13256.7
13271.2
13308.2
13341.2
13362.9
13382.8
13411.2
13443.4
13453.3
13429.6
13368
13261.3
13117.4
12952.6
12787.9
12694.2
13225.2
13244.9
13298.3
13361.8
13411.7
13428.8
13414.5
13380.2
13352.9
13343.7
13351.8
13365.3
13368.8
13360.4
13345.5
13329.8
13316.5
13302.4
13285.9
13267.9
13256.1
13256.9
13267
13279.6
13273.6
13239.8
13182
13127.7
13104.2
13118.7
13155.8
13188.8
13210.5
13230.3
13258.8
13291
13300.9
13277.2
13215.6
13108.9
12965
12800.1
12635.4
12540.9
13021.9
13041.7
13095.1
13158.6
13208.6
13225.8
13211.4
13177
13149.7
13140.5
13148.5
13162.2
13165.6
13157.2
13142.3
13126.6
13113.3
13099.2
13082.7
13064.7
13052.9
13053.7
13063.8
13076.5
13070.4
13036.6
12978.8
12924.4
12900.9
12915.5
12952.6
12985.6
13007.3
13027.1
13055.6
13087.8
13097.8
13074.1
13012.5
12905.8
12761.8
12596.8
12432
12336.5
12818.6
12838.3
12891.8
12955.4
13005.5
13022.6
13008.2
12973.8
12946.4
12937.2
12945.3
12959
12962.5
12954
12939.1
12923.4
12910
12896
12879.5
12861.4
12849.6
12850.5
12860.6
12873.3
12867.3
12833.5
12775.6
12721.1
12697.6
12712.2
12749.3
12782.5
12804.1
12823.9
12852.3
12884.7
12894.7
12870.9
12809.3
12702.6
12558.6
12393.5
12228.5
12132
12615.2
12635
12688.6
12752.3
12802.4
12819.6
12805.1
12770.6
12743.1
12733.9
12742.1
12755.8
12759.3
12750.9
12735.9
12720.2
12706.8
12692.8
12676.3
12658.2
12646.4
12647.2
12657.4
12670.2
12664.2
12630.4
12572.3
12517.8
12494.2
12508.9
12546.2
12579.3
12600.9
12620.6
12649.1
12681.5
12691.5
12667.8
12606.2
12499.5
12355.5
12190.2
12025.1
11927.6
12411.9
12431.7
12485.3
12549.1
12599.4
12616.4
12602
12567.4
12539.8
12530.6
12538.9
12552.6
12556.1
12547.7
12532.7
12517
12503.6
12489.6
12473.1
12455
12443.1
12444
12454.2
12467.1
12461.1
12427.2
12369.1
12314.4
12290.9
12305.6
12342.9
12376.1
12397.7
12417.4
12445.9
12478.4
12488.4
12464.7
12403.1
12296.4
12152.3
11986.9
11821.6
11723
12208.5
12228.4
12282
12346
12396.3
12413.5
12398.8
12364.1
12336.6
12327.4
12335.6
12349.4
12353
12344.5
12329.5
12313.8
12300.4
12286.4
12269.9
12251.7
12239.8
12240.7
12251
12264
12258.1
12224.1
12165.9
12111.1
12087.5
12102.3
12139.7
12172.9
12194.4
12214.2
12242.7
12275.2
12285.3
12261.6
12200
12093.3
11949.1
11783.6
11618.2
11518.7
12005.2
12025
12078.7
12142.8
12193.2
12210.3
12195.7
12160.9
12133.3
12124.1
12132.4
12146.3
12149.8
12141.3
12126.3
12110.6
12097.2
12083.2
12066.7
12048.5
12036.6
12037.5
12047.8
12060.8
12055
12021
11962.6
11907.7
11884.1
11899
11936.5
11969.8
11991.2
12010.9
12039.5
12072.1
12082.2
12058.5
11996.9
11890.2
11745.9
11580.3
11414.5
11315.2
10517.6
10537.5
10591.8
10657
10708.2
10726.6
10710
10674.4
10646.2
10637.2
10645.9
10660.2
10663.9
10655.2
10640
10624.2
10610.9
10597
10580.2
10561.8
10549.7
10550.7
10561.5
10575.2
10569.8
10535.4
10476.1
10420.2
10396.3
10411.9
10450.3
10483.7
10504.8
10524.2
10553.1
10586.2
10596.6
10572.7
10511
10404.5
10259.4
10093
9927.69
9822.34
7743.47
7763.71
7820.19
7889.41
7943.22
7961.96
7942.97
7904.28
7874.21
7864.4
7875.58
7891.72
7895.88
7886.76
7870.64
7854.4
7841.4
7827.65
7810.55
7791.28
7778.31
7779.65
7792.25
7808.27
7804.35
7768.81
7705.76
7646.27
7621.09
7639.26
7680.44
7715.37
7734.79
7753.36
7783.18
7818.82
7831
7807.5
7747
7639.34
7492.37
7320.46
7142.42
7030.33
4967.25
4988.26
5047.57
5122.92
5180.34
5198.8
5177.06
5133.77
5101.18
5092.47
5105.1
5123.8
5128.64
5118.8
5101.39
5084.62
5072.05
5058.67
5040.79
5020.08
5005.81
5007.71
5023.12
5042.72
5040.78
5003.66
4935.02
4870.33
4843.59
4865.57
4911.37
4947.83
4964.68
4981.81
5014.58
5055.64
5069.2
5046.01
4986.7
4880.23
4730.78
4559.32
4383.25
4264.06
2312.68
2329.78
2383.99
2457.61
2514.08
2531.14
2506.33
2462.75
2431.88
2424.17
2437.92
2456.41
2461.5
2451.69
2434.62
2419.54
2409.28
2397.6
2381.12
2361.4
2347.92
2349.88
2367.09
2389.73
2391.58
2358.29
2293.25
2230.86
2205.94
2228.44
2273.02
2308.15
2322.41
2339.25
2370.78
2414.37
2432.68
2414.88
2365.53
2275.92
2150.12
2008.48
1859.02
1755.97
561.116
565.881
592.838
633.251
665.806
673.087
657.288
631.151
613.424
610.312
618.933
629.828
632.562
626.49
616.7
608.959
604.355
598.64
590.167
578.958
570.733
570.989
581.193
596.137
599.708
581.13
545.794
512.936
500.789
512.172
534.569
552.371
558.676
566.886
583.431
607.053
616.152
606.289
583.874
548.341
494.13
434.772
364.822
323.271
35.3914
34.0223
37.0854
42.4634
47.05
47.7182
44.6666
40.0117
36.8294
36.3822
38.2542
40.2086
40.2861
39.063
37.5871
36.5459
35.9725
35.2488
34.1423
31.9494
29.9499
29.4643
30.5165
32.9088
33.475
29.9068
24.5291
21.0308
19.8667
20.666
21.9426
22.8884
23.3418
23.4961
25.2525
27.2393
26.1881
23.1959
19.2596
15.5138
10.2241
7.19072
2.44249
3.10223
-7.20029
-7.20989
-7.29468
-7.41417
-7.4957
-7.49623
-7.44963
-7.36765
-7.33111
-7.32245
-7.36444
-7.40495
-7.41558
-7.40411
-7.38784
-7.38238
-7.39134
-7.3938
-7.38001
-7.35013
-7.32764
-7.33523
-7.38895
-7.45732
-7.48768
-7.44484
-7.33805
-7.23909
-7.22311
-7.27932
-7.35915
-7.40008
-7.39567
-7.39045
-7.45652
-7.55365
-7.62527
-7.67986
-7.72251
-7.72442
-7.65371
-7.55398
-7.36049
-7.01517
-10.5286
-10.5206
-10.6043
-10.7239
-10.8075
-10.8366
-10.7764
-10.6949
-10.6146
-10.6322
-10.6793
-10.732
-10.7433
-10.7284
-10.7076
-10.697
-10.7039
-10.7118
-10.7109
-10.6885
-10.6642
-10.6672
-10.7051
-10.7724
-10.8118
-10.7765
-10.6692
-10.5711
-10.5318
-10.5878
-10.6794
-10.7242
-10.727
-10.7105
-10.7463
-10.8545
-10.9315
-10.9968
-11.0417
-11.0363
-10.9619
-10.8812
-10.8092
-10.9879
-13.8791
-13.8907
-13.9555
-14.0435
-14.1078
-14.1124
-14.0787
-14.0207
-13.9912
-13.9855
-14.0133
-14.0427
-14.0511
-14.0444
-14.0341
-14.0299
-14.0349
-14.0347
-14.0253
-14.0049
-13.9898
-13.9978
-14.034
-14.0827
-14.1018
-14.0698
-13.9928
-13.9202
-13.9072
-13.9492
-14.0044
-14.04
-14.0469
-14.0494
-14.1069
-14.1833
-14.2454
-14.2925
-14.3203
-14.3165
-14.2624
-14.1841
-14.0729
-13.9052
-17.2174
-17.2186
-17.2743
-17.3535
-17.4109
-17.427
-17.3987
-17.3471
-17.3043
-17.3037
-17.3317
-17.3643
-17.3744
-17.3672
-17.3548
-17.3477
-17.3495
-17.3525
-17.3508
-17.3388
-17.3262
-17.3305
-17.3566
-17.3954
-17.4154
-17.3904
-17.3231
-17.261
-17.2411
-17.2705
-17.3259
-17.3606
-17.3755
-17.3818
-17.4154
-17.4853
-17.5478
-17.5954
-17.6254
-17.6185
-17.5686
-17.5068
-17.4528
-17.5083
-20.5553
-20.5642
-20.6113
-20.675
-20.7234
-20.7348
-20.7098
-20.6706
-20.6457
-20.6437
-20.6618
-20.6824
-20.6898
-20.6867
-20.6799
-20.6763
-20.6784
-20.6775
-20.6713
-20.6585
-20.6496
-20.6561
-20.6796
-20.7111
-20.7244
-20.7011
-20.6478
-20.5978
-20.5818
-20.6072
-20.6519
-20.6835
-20.6988
-20.71
-20.7504
-20.8134
-20.8659
-20.9045
-20.9261
-20.9188
-20.879
-20.8177
-20.7501
-20.6969
-23.8894
-23.8962
-23.9355
-23.9892
-24.0302
-24.0425
-24.0272
-23.9957
-23.9707
-23.9664
-23.9824
-24.0028
-24.0109
-24.0081
-24.0008
-23.9962
-23.9958
-23.9964
-23.9945
-23.9873
-23.9815
-23.9861
-24.0037
-24.0271
-24.0372
-24.0186
-23.975
-23.9335
-23.9213
-23.941
-23.9776
-24.0056
-24.0234
-24.0398
-24.0741
-24.1222
-24.17
-24.2064
-24.227
-24.2191
-24.1862
-24.1369
-24.0942
-24.1141
-27.2237
-27.2311
-27.2647
-27.3105
-27.3465
-27.3576
-27.3445
-27.318
-27.2987
-27.2977
-27.3097
-27.324
-27.3304
-27.3293
-27.3252
-27.3222
-27.3229
-27.3214
-27.3174
-27.3102
-27.3054
-27.3104
-27.3257
-27.3447
-27.3521
-27.3359
-27.3004
-27.2668
-27.2557
-27.271
-27.3027
-27.3299
-27.3486
-27.3653
-27.3971
-27.4438
-27.4886
-27.5204
-27.536
-27.529
-27.5004
-27.454
-27.4089
-27.3964
-30.5535
-30.5617
-30.5907
-30.6289
-30.6592
-30.6696
-30.6613
-30.6417
-30.626
-30.6232
-30.6321
-30.6448
-30.651
-30.6506
-30.6463
-30.6433
-30.642
-30.6419
-30.6404
-30.6355
-30.6331
-30.6373
-30.6495
-30.6638
-30.6689
-30.6553
-30.6266
-30.5988
-30.59
-30.6034
-30.6296
-30.6536
-30.6719
-30.6915
-30.7219
-30.7608
-30.797
-30.8242
-30.838
-30.8317
-30.8098
-30.7722
-30.7399
-30.744
-33.885
-33.8924
-33.917
-33.9497
-33.9763
-33.9865
-33.9804
-33.9643
-33.9511
-33.9493
-33.9571
-33.9675
-33.9724
-33.9725
-33.9702
-33.9679
-33.9674
-33.9661
-33.9637
-33.9599
-33.958
-33.9617
-33.9715
-33.9828
-33.9864
-33.9748
-33.9515
-33.9291
-33.9222
-33.9328
-33.9553
-33.978
-33.9972
-34.0164
-34.0431
-34.0785
-34.1139
-34.1399
-34.1525
-34.1461
-34.1251
-34.0908
-34.0591
-34.0557
-37.2126
-37.2209
-37.2424
-37.2703
-37.2934
-37.3028
-37.2989
-37.2867
-37.2768
-37.2749
-37.2805
-37.2886
-37.2935
-37.294
-37.2917
-37.2896
-37.2886
-37.2882
-37.2869
-37.284
-37.283
-37.2866
-37.2948
-37.3035
-37.3058
-37.2961
-37.2772
-37.2588
-37.253
-37.2622
-37.2815
-37.3023
-37.3203
-37.3404
-37.3664
-37.3978
-37.4271
-37.4478
-37.4581
-37.4526
-37.4374
-37.4095
-37.3854
-37.3824
-40.5417
-40.5492
-40.5678
-40.5917
-40.6118
-40.6206
-40.6185
-40.6094
-40.6011
-40.5998
-40.6045
-40.6117
-40.6159
-40.6165
-40.6151
-40.6135
-40.6128
-40.6116
-40.6103
-40.6082
-40.6077
-40.6107
-40.6172
-40.6239
-40.6254
-40.6171
-40.6018
-40.5872
-40.5828
-40.5909
-40.6077
-40.6269
-40.6451
-40.6642
-40.6876
-40.7154
-40.7428
-40.7633
-40.7741
-40.7687
-40.7533
-40.7284
-40.7052
-40.7013
-43.8685
-43.8761
-43.8925
-43.9132
-43.9308
-43.9392
-43.9384
-43.9315
-43.9253
-43.9243
-43.928
-43.9335
-43.9372
-43.9382
-43.9372
-43.9359
-43.935
-43.9345
-43.9335
-43.9321
-43.932
-43.9347
-43.9402
-43.9454
-43.9462
-43.9393
-43.9269
-43.9151
-43.9117
-43.9189
-43.9336
-43.9513
-43.9683
-43.9872
-44.0096
-44.0351
-44.0588
-44.0755
-44.0836
-44.0794
-44.0679
-44.0474
-44.0293
-44.0237
-47.1954
-47.2027
-47.2172
-47.2352
-47.2507
-47.2586
-47.2588
-47.254
-47.2492
-47.2485
-47.2516
-47.2564
-47.2597
-47.2607
-47.2601
-47.2592
-47.2585
-47.2578
-47.257
-47.256
-47.2561
-47.2585
-47.2629
-47.267
-47.2673
-47.2615
-47.2515
-47.2422
-47.2398
-47.2464
-47.2595
-47.2759
-47.2925
-47.3105
-47.331
-47.3535
-47.3752
-47.3908
-47.3997
-47.396
-47.3845
-47.3665
-47.3488
-47.3435
-50.5216
-50.5287
-50.5416
-50.5573
-50.571
-50.5785
-50.5795
-50.5762
-50.5728
-50.5724
-50.575
-50.5789
-50.5818
-50.5829
-50.5826
-50.5819
-50.5812
-50.5808
-50.5802
-50.5796
-50.58
-50.5822
-50.5858
-50.5889
-50.589
-50.5842
-50.5762
-50.5689
-50.5673
-50.5734
-50.5852
-50.6002
-50.6159
-50.633
-50.6524
-50.6731
-50.6924
-50.7061
-50.7129
-50.7098
-50.7006
-50.6857
-50.6717
-50.6648
-53.8475
-53.8543
-53.8659
-53.8797
-53.8919
-53.8989
-53.9006
-53.8986
-53.8962
-53.896
-53.8983
-53.9017
-53.9043
-53.9054
-53.9054
-53.905
-53.9045
-53.9041
-53.9037
-53.9033
-53.9038
-53.9057
-53.9087
-53.9112
-53.9111
-53.9071
-53.9007
-53.8951
-53.8943
-53.8999
-53.9107
-53.9246
-53.9395
-53.9558
-53.9737
-53.9923
-54.0098
-54.0221
-54.0289
-54.0266
-54.018
-54.0049
-53.9914
-53.985
-57.173
-57.1795
-57.19
-57.2022
-57.2131
-57.2198
-57.2219
-57.2209
-57.2194
-57.2195
-57.2215
-57.2244
-57.2267
-57.2279
-57.228
-57.2278
-57.2274
-57.2271
-57.2269
-57.2268
-57.2274
-57.2291
-57.2316
-57.2336
-57.2334
-57.2302
-57.2251
-57.2209
-57.2207
-57.2261
-57.2359
-57.2488
-57.2628
-57.2781
-57.2949
-57.3119
-57.3277
-57.3388
-57.3446
-57.3427
-57.3353
-57.3243
-57.3133
-57.306
-60.4983
-60.5045
-60.514
-60.5249
-60.5347
-60.541
-60.5435
-60.5433
-60.5425
-60.5429
-60.5447
-60.5473
-60.5494
-60.5506
-60.5509
-60.5509
-60.5507
-60.5504
-60.5504
-60.5503
-60.551
-60.5526
-60.5547
-60.5562
-60.556
-60.5534
-60.5495
-60.5464
-60.5467
-60.5519
-60.561
-60.5729
-60.5862
-60.6006
-60.6162
-60.6317
-60.646
-60.656
-60.6613
-60.66
-60.6535
-60.6437
-60.6333
-60.6264
-63.8233
-63.8293
-63.838
-63.8478
-63.8566
-63.8626
-63.8653
-63.8657
-63.8655
-63.8661
-63.8679
-63.8701
-63.8721
-63.8732
-63.8736
-63.8737
-63.8736
-63.8735
-63.8736
-63.8737
-63.8744
-63.8759
-63.8776
-63.8789
-63.8788
-63.8768
-63.8737
-63.8716
-63.8724
-63.8773
-63.8858
-63.8968
-63.9094
-63.9229
-63.9373
-63.9515
-63.9645
-63.9737
-63.9784
-63.9774
-63.9717
-63.9633
-63.9544
-63.9474
-67.1482
-67.1539
-67.1619
-67.1707
-67.1787
-67.1844
-67.1873
-67.1882
-67.1885
-67.1893
-67.191
-67.193
-67.1948
-67.196
-67.1966
-67.1968
-67.1968
-67.1968
-67.1969
-67.1971
-67.198
-67.1992
-67.2007
-67.2018
-67.2017
-67.2002
-67.1979
-67.1966
-67.1978
-67.2025
-67.2104
-67.2207
-67.2325
-67.2452
-67.2587
-67.2717
-67.2835
-67.2918
-67.2961
-67.2954
-67.2905
-67.2831
-67.2749
-67.268
-70.4729
-70.4784
-70.4857
-70.4937
-70.5011
-70.5064
-70.5095
-70.5108
-70.5114
-70.5124
-70.514
-70.5159
-70.5176
-70.5188
-70.5194
-70.5196
-70.5198
-70.5199
-70.5202
-70.5205
-70.5213
-70.5225
-70.5238
-70.5248
-70.5248
-70.5237
-70.5221
-70.5213
-70.5228
-70.5274
-70.5349
-70.5445
-70.5556
-70.5674
-70.5799
-70.5919
-70.6027
-70.6103
-70.6142
-70.6137
-70.6095
-70.6029
-70.5956
-70.5892
-73.7975
-73.8028
-73.8095
-73.8168
-73.8236
-73.8286
-73.8318
-73.8334
-73.8344
-73.8355
-73.8371
-73.8389
-73.8405
-73.8416
-73.8424
-73.8428
-73.843
-73.8432
-73.8435
-73.8439
-73.8447
-73.8458
-73.847
-73.8478
-73.8479
-73.8472
-73.8461
-73.846
-73.8477
-73.8522
-73.8592
-73.8682
-73.8786
-73.8897
-73.9013
-73.9123
-73.9222
-73.9291
-73.9327
-73.9325
-73.9288
-73.923
-73.9163
-73.91
-77.122
-77.127
-77.1333
-77.14
-77.1462
-77.151
-77.1542
-77.156
-77.1573
-77.1586
-77.1601
-77.1618
-77.1633
-77.1645
-77.1652
-77.1657
-77.166
-77.1663
-77.1667
-77.1672
-77.168
-77.169
-77.1701
-77.1709
-77.1711
-77.1707
-77.1701
-77.1704
-77.1724
-77.1767
-77.1834
-77.1918
-77.2015
-77.2119
-77.2227
-77.2328
-77.2418
-77.2482
-77.2515
-77.2515
-77.2483
-77.2431
-77.2371
-77.2312
-80.4465
-80.4513
-80.4571
-80.4632
-80.469
-80.4736
-80.4768
-80.4788
-80.4802
-80.4816
-80.4832
-80.4848
-80.4863
-80.4874
-80.4882
-80.4888
-80.4892
-80.4895
-80.49
-80.4906
-80.4913
-80.4923
-80.4933
-80.4941
-80.4944
-80.4943
-80.4941
-80.4947
-80.4968
-80.5011
-80.5074
-80.5153
-80.5244
-80.5342
-80.5442
-80.5536
-80.5618
-80.5677
-80.5708
-80.5708
-80.568
-80.5635
-80.5579
-80.5523
-83.7709
-83.7754
-83.7808
-83.7865
-83.7919
-83.7962
-83.7994
-83.8016
-83.8032
-83.8046
-83.8062
-83.8078
-83.8092
-83.8104
-83.8112
-83.8118
-83.8123
-83.8127
-83.8132
-83.8139
-83.8146
-83.8156
-83.8165
-83.8173
-83.8177
-83.8178
-83.8179
-83.8188
-83.8212
-83.8253
-83.8313
-83.8387
-83.8473
-83.8564
-83.8657
-83.8744
-83.8819
-83.8874
-83.8902
-83.8904
-83.888
-83.8839
-83.8789
-83.8736
-87.0953
-87.0995
-87.1046
-87.1099
-87.1149
-87.119
-87.1222
-87.1244
-87.1261
-87.1277
-87.1292
-87.1308
-87.1322
-87.1333
-87.1342
-87.1349
-87.1354
-87.1359
-87.1364
-87.1372
-87.1379
-87.1388
-87.1398
-87.1405
-87.141
-87.1413
-87.1418
-87.1429
-87.1453
-87.1493
-87.155
-87.1621
-87.1701
-87.1786
-87.1872
-87.1953
-87.2023
-87.2073
-87.21
-87.2102
-87.2081
-87.2045
-87.1999
-87.1949
-90.4196
-90.4236
-90.4283
-90.4333
-90.4379
-90.4419
-90.445
-90.4473
-90.4491
-90.4507
-90.4523
-90.4538
-90.4552
-90.4563
-90.4572
-90.4579
-90.4585
-90.4591
-90.4597
-90.4604
-90.4612
-90.4621
-90.463
-90.4638
-90.4644
-90.4649
-90.4655
-90.4669
-90.4694
-90.4733
-90.4787
-90.4853
-90.4929
-90.5009
-90.5089
-90.5164
-90.5228
-90.5274
-90.5299
-90.5302
-90.5284
-90.5251
-90.5209
-90.5163
-93.7439
-93.7477
-93.7521
-93.7567
-93.7611
-93.7649
-93.7679
-93.7702
-93.7721
-93.7737
-93.7753
-93.7768
-93.7782
-93.7793
-93.7803
-93.781
-93.7817
-93.7823
-93.7829
-93.7837
-93.7845
-93.7853
-93.7862
-93.7871
-93.7878
-93.7884
-93.7893
-93.7908
-93.7933
-93.7971
-93.8023
-93.8085
-93.8156
-93.8231
-93.8306
-93.8375
-93.8434
-93.8478
-93.8501
-93.8505
-93.8489
-93.846
-93.8421
-93.8378
-97.0682
-97.0718
-97.0759
-97.0802
-97.0843
-97.0879
-97.0909
-97.0932
-97.0951
-97.0968
-97.0984
-97.0999
-97.1012
-97.1024
-97.1033
-97.1041
-97.1048
-97.1055
-97.1061
-97.1069
-97.1077
-97.1086
-97.1095
-97.1104
-97.1111
-97.1119
-97.1129
-97.1146
-97.1172
-97.1208
-97.1258
-97.1317
-97.1383
-97.1454
-97.1523
-97.1588
-97.1643
-97.1683
-97.1705
-97.1709
-97.1695
-97.1669
-97.1634
-97.1593
-100.392
-100.396
-100.4
-100.404
-100.408
-100.411
-100.414
-100.416
-100.418
-100.42
-100.421
-100.423
-100.424
-100.425
-100.426
-100.427
-100.428
-100.429
-100.429
-100.43
-100.431
-100.432
-100.433
-100.434
-100.435
-100.435
-100.437
-100.438
-100.441
-100.445
-100.449
-100.455
-100.461
-100.468
-100.474
-100.48
-100.485
-100.489
-100.491
-100.491
-100.49
-100.488
-100.485
-100.481
-103.717
-103.72
-103.723
-103.727
-103.731
-103.734
-103.737
-103.739
-103.741
-103.743
-103.745
-103.746
-103.747
-103.748
-103.749
-103.75
-103.751
-103.752
-103.753
-103.753
-103.754
-103.755
-103.756
-103.757
-103.758
-103.759
-103.76
-103.762
-103.765
-103.768
-103.773
-103.778
-103.784
-103.79
-103.796
-103.802
-103.806
-103.81
-103.812
-103.812
-103.811
-103.809
-103.806
-103.803
-107.041
-107.044
-107.047
-107.051
-107.054
-107.057
-107.06
-107.062
-107.064
-107.066
-107.068
-107.069
-107.07
-107.072
-107.073
-107.073
-107.074
-107.075
-107.076
-107.077
-107.077
-107.078
-107.079
-107.08
-107.081
-107.082
-107.084
-107.086
-107.088
-107.092
-107.096
-107.101
-107.106
-107.112
-107.118
-107.123
-107.128
-107.131
-107.133
-107.133
-107.132
-107.13
-107.128
-107.124
-110.365
-110.368
-110.371
-110.374
-110.378
-110.381
-110.383
-110.386
-110.387
-110.389
-110.391
-110.392
-110.394
-110.395
-110.396
-110.397
-110.397
-110.398
-110.399
-110.4
-110.401
-110.402
-110.403
-110.404
-110.405
-110.406
-110.407
-110.409
-110.412
-110.415
-110.419
-110.424
-110.429
-110.435
-110.44
-110.445
-110.449
-110.452
-110.454
-110.454
-110.453
-110.452
-110.449
-110.446
-113.689
-113.692
-113.695
-113.698
-113.701
-113.704
-113.706
-113.709
-113.711
-113.712
-113.714
-113.715
-113.717
-113.718
-113.719
-113.72
-113.721
-113.721
-113.722
-113.723
-113.724
-113.725
-113.726
-113.727
-113.728
-113.729
-113.731
-113.733
-113.735
-113.738
-113.742
-113.747
-113.752
-113.757
-113.762
-113.766
-113.77
-113.773
-113.775
-113.775
-113.775
-113.773
-113.771
-113.768
-117.014
-117.016
-117.019
-117.022
-117.025
-117.027
-117.03
-117.032
-117.034
-117.036
-117.037
-117.038
-117.04
-117.041
-117.042
-117.043
-117.044
-117.045
-117.046
-117.046
-117.047
-117.048
-117.049
-117.05
-117.051
-117.053
-117.054
-117.056
-117.059
-117.062
-117.066
-117.07
-117.074
-117.079
-117.084
-117.088
-117.092
-117.094
-117.096
-117.097
-117.096
-117.095
-117.093
-117.09
-120.338
-120.34
-120.343
-120.345
-120.348
-120.351
-120.353
-120.355
-120.357
-120.359
-120.36
-120.362
-120.363
-120.364
-120.365
-120.366
-120.367
-120.368
-120.369
-120.37
-120.37
-120.371
-120.372
-120.373
-120.375
-120.376
-120.378
-120.38
-120.382
-120.385
-120.389
-120.393
-120.397
-120.402
-120.406
-120.41
-120.413
-120.416
-120.417
-120.418
-120.418
-120.416
-120.414
-120.412
-123.662
-123.664
-123.666
-123.669
-123.672
-123.674
-123.676
-123.678
-123.68
-123.682
-123.683
-123.685
-123.686
-123.687
-123.688
-123.689
-123.69
-123.691
-123.692
-123.693
-123.694
-123.695
-123.696
-123.697
-123.698
-123.699
-123.701
-123.703
-123.705
-123.708
-123.712
-123.716
-123.72
-123.724
-123.728
-123.732
-123.735
-123.737
-123.739
-123.739
-123.739
-123.738
-123.736
-123.734
-126.986
-126.988
-126.99
-126.993
-126.995
-126.997
-127
-127.002
-127.003
-127.005
-127.007
-127.008
-127.009
-127.01
-127.011
-127.012
-127.013
-127.014
-127.015
-127.016
-127.017
-127.018
-127.019
-127.02
-127.021
-127.023
-127.024
-127.026
-127.029
-127.032
-127.035
-127.039
-127.042
-127.046
-127.05
-127.054
-127.057
-127.059
-127.06
-127.061
-127.061
-127.06
-127.058
-127.056
-130.31
-130.312
-130.314
-130.316
-130.319
-130.321
-130.323
-130.325
-130.327
-130.328
-130.33
-130.331
-130.332
-130.334
-130.335
-130.336
-130.337
-130.337
-130.338
-130.339
-130.34
-130.341
-130.342
-130.343
-130.345
-130.346
-130.348
-130.35
-130.352
-130.355
-130.358
-130.361
-130.365
-130.369
-130.373
-130.376
-130.379
-130.381
-130.382
-130.383
-130.382
-130.381
-130.38
-130.378
-133.635
-133.636
-133.638
-133.64
-133.642
-133.644
-133.646
-133.648
-133.65
-133.652
-133.653
-133.654
-133.656
-133.657
-133.658
-133.659
-133.66
-133.661
-133.662
-133.663
-133.663
-133.664
-133.666
-133.667
-133.668
-133.669
-133.671
-133.673
-133.675
-133.678
-133.681
-133.684
-133.688
-133.691
-133.695
-133.698
-133.701
-133.703
-133.704
-133.704
-133.704
-133.703
-133.702
-133.7
-136.959
-136.96
-136.962
-136.964
-136.966
-136.968
-136.97
-136.972
-136.973
-136.975
-136.976
-136.978
-136.979
-136.98
-136.981
-136.982
-136.983
-136.984
-136.985
-136.986
-136.987
-136.988
-136.989
-136.99
-136.991
-136.993
-136.994
-136.996
-136.998
-137.001
-137.004
-137.007
-137.011
-137.014
-137.017
-137.02
-137.023
-137.024
-137.026
-137.026
-137.026
-137.025
-137.024
-137.022
-140.283
-140.284
-140.286
-140.288
-140.289
-140.291
-140.293
-140.295
-140.297
-140.298
-140.3
-140.301
-140.302
-140.303
-140.304
-140.305
-140.306
-140.307
-140.308
-140.309
-140.31
-140.311
-140.312
-140.313
-140.314
-140.316
-140.318
-140.319
-140.322
-140.324
-140.327
-140.33
-140.333
-140.336
-140.339
-140.342
-140.345
-140.346
-140.348
-140.348
-140.348
-140.347
-140.346
-140.345
-143.607
-143.608
-143.61
-143.611
-143.613
-143.615
-143.617
-143.618
-143.62
-143.621
-143.623
-143.624
-143.625
-143.626
-143.628
-143.629
-143.629
-143.63
-143.631
-143.632
-143.633
-143.634
-143.635
-143.636
-143.638
-143.639
-143.641
-143.643
-143.645
-143.647
-143.65
-143.653
-143.656
-143.659
-143.662
-143.664
-143.667
-143.668
-143.67
-143.67
-143.67
-143.669
-143.668
-143.667
-146.931
-146.932
-146.933
-146.935
-146.937
-146.938
-146.94
-146.942
-146.943
-146.945
-146.946
-146.947
-146.949
-146.95
-146.951
-146.952
-146.953
-146.954
-146.955
-146.956
-146.956
-146.957
-146.959
-146.96
-146.961
-146.962
-146.964
-146.966
-146.968
-146.97
-146.973
-146.976
-146.979
-146.981
-146.984
-146.987
-146.989
-146.99
-146.992
-146.992
-146.992
-146.991
-146.99
-146.989
-150.255
-150.256
-150.257
-150.259
-150.26
-150.262
-150.264
-150.265
-150.267
-150.268
-150.269
-150.271
-150.272
-150.273
-150.274
-150.275
-150.276
-150.277
-150.278
-150.279
-150.28
-150.281
-150.282
-150.283
-150.284
-150.286
-150.287
-150.289
-150.291
-150.293
-150.296
-150.299
-150.301
-150.304
-150.307
-150.309
-150.311
-150.313
-150.314
-150.314
-150.314
-150.314
-150.313
-150.311
-153.579
-153.58
-153.581
-153.582
-153.584
-153.586
-153.587
-153.589
-153.59
-153.591
-153.593
-153.594
-153.595
-153.596
-153.597
-153.598
-153.599
-153.6
-153.601
-153.602
-153.603
-153.604
-153.605
-153.606
-153.607
-153.609
-153.61
-153.612
-153.614
-153.616
-153.619
-153.621
-153.624
-153.627
-153.629
-153.631
-153.633
-153.635
-153.636
-153.636
-153.636
-153.636
-153.635
-153.634
-156.903
-156.904
-156.905
-156.906
-156.908
-156.909
-156.911
-156.912
-156.913
-156.915
-156.916
-156.917
-156.918
-156.92
-156.921
-156.922
-156.922
-156.923
-156.924
-156.925
-156.926
-156.927
-156.928
-156.929
-156.931
-156.932
-156.934
-156.935
-156.937
-156.94
-156.942
-156.944
-156.947
-156.949
-156.952
-156.954
-156.956
-156.957
-156.958
-156.958
-156.958
-156.958
-156.957
-156.956
-160.227
-160.228
-160.229
-160.23
-160.231
-160.233
-160.234
-160.236
-160.237
-160.238
-160.239
-160.241
-160.242
-160.243
-160.244
-160.245
-160.246
-160.247
-160.248
-160.249
-160.249
-160.25
-160.252
-160.253
-160.254
-160.255
-160.257
-160.259
-160.26
-160.263
-160.265
-160.267
-160.27
-160.272
-160.274
-160.276
-160.278
-160.279
-160.28
-160.281
-160.281
-160.28
-160.28
-160.279
-163.551
-163.552
-163.553
-163.554
-163.555
-163.556
-163.558
-163.559
-163.56
-163.562
-163.563
-163.564
-163.565
-163.566
-163.567
-163.568
-163.569
-163.57
-163.571
-163.572
-163.573
-163.574
-163.575
-163.576
-163.577
-163.579
-163.58
-163.582
-163.584
-163.586
-163.588
-163.59
-163.592
-163.595
-163.597
-163.599
-163.6
-163.602
-163.602
-163.603
-163.603
-163.603
-163.602
-163.601
-166.875
-166.876
-166.877
-166.878
-166.879
-166.88
-166.881
-166.882
-166.884
-166.885
-166.886
-166.887
-166.888
-166.889
-166.89
-166.891
-166.892
-166.893
-166.894
-166.895
-166.896
-166.897
-166.898
-166.899
-166.9
-166.902
-166.903
-166.905
-166.907
-166.909
-166.911
-166.913
-166.915
-166.917
-166.919
-166.921
-166.923
-166.924
-166.925
-166.925
-166.925
-166.925
-166.924
-166.924
-170.199
-170.2
-170.2
-170.201
-170.202
-170.204
-170.205
-170.206
-170.207
-170.208
-170.21
-170.211
-170.212
-170.213
-170.214
-170.215
-170.216
-170.216
-170.217
-170.218
-170.219
-170.22
-170.221
-170.222
-170.224
-170.225
-170.226
-170.228
-170.23
-170.232
-170.234
-170.236
-170.238
-170.24
-170.242
-170.244
-170.245
-170.246
-170.247
-170.248
-170.248
-170.247
-170.247
-170.246
-180.044
-180.044
-180.045
-180.045
-180.046
-180.047
-180.048
-180.049
-180.05
-180.051
-180.052
-180.053
-180.054
-180.055
-180.056
-180.057
-180.058
-180.059
-180.06
-180.061
-180.062
-180.063
-180.064
-180.065
-180.066
-180.067
-180.069
-180.07
-180.072
-180.074
-180.075