/*--------------------------------*- C++ -*----------------------------------*\
| =========                 |                                                 |
| \\      /  F ield         | OpenFOAM: The Open Source CFD Toolbox           |
|  \\    /   O peration     | Version:  v1912                                 |
|   \\  /    A nd           | Website:  www.openfoam.com                      |
|    \\/     M anipulation  |                                                 |
\*---------------------------------------------------------------------------*/
FoamFile
{
    version     2.0;
    format      ascii;
    class       volScalarField;
    location    "40";
    object      nut;
}
// * * * * * * * * * * * * * * * * * * * * * * * * * * * * * * * * * * * * * //

dimensions      [0 2 -1 0 0 0 0];


internalField   nonuniform List<scalar> 
14268
(
8.24248e-05
8.24075e-05
8.24252e-05
8.24571e-05
8.25058e-05
8.25593e-05
8.26104e-05
8.26495e-05
8.26682e-05
8.26643e-05
8.26481e-05
8.26178e-05
8.25739e-05
8.25249e-05
8.24817e-05
8.2449e-05
8.24386e-05
8.245e-05
8.2487e-05
8.25477e-05
8.2632e-05
8.27389e-05
8.28687e-05
8.30226e-05
8.31985e-05
8.33914e-05
8.35959e-05
8.38058e-05
8.40137e-05
8.42135e-05
8.43975e-05
8.4557e-05
8.46899e-05
8.47905e-05
8.48545e-05
8.4882e-05
8.48982e-05
8.49128e-05
8.49243e-05
8.49331e-05
8.49416e-05
8.49507e-05
8.49612e-05
8.49733e-05
8.49873e-05
8.50024e-05
8.50186e-05
8.50361e-05
8.50544e-05
8.50723e-05
8.50879e-05
8.51013e-05
8.51133e-05
8.51235e-05
8.51327e-05
8.51414e-05
8.51497e-05
8.51623e-05
8.51944e-05
8.52463e-05
8.53166e-05
8.54039e-05
8.55041e-05
8.56155e-05
8.57343e-05
8.58574e-05
8.59823e-05
8.61066e-05
8.62289e-05
8.63484e-05
8.64651e-05
8.65795e-05
8.66921e-05
8.68036e-05
8.69136e-05
8.70219e-05
8.71274e-05
8.72284e-05
8.73232e-05
8.74093e-05
8.7486e-05
8.75527e-05
8.76125e-05
8.76674e-05
8.76884e-05
8.76789e-05
7.78519e-07
7.86034e-07
7.94721e-07
8.04394e-07
8.14946e-07
8.25978e-07
8.37024e-07
8.4747e-07
8.56841e-07
8.64774e-07
8.71024e-07
8.75443e-07
8.78116e-07
8.79289e-07
8.79519e-07
8.79092e-07
8.78696e-07
8.78535e-07
8.79084e-07
8.80341e-07
8.82561e-07
8.85934e-07
8.90645e-07
8.9682e-07
9.04473e-07
9.13481e-07
9.23522e-07
9.34172e-07
9.44938e-07
9.55366e-07
9.65015e-07
9.73435e-07
9.80349e-07
9.85553e-07
9.88791e-07
9.89968e-07
9.86533e-07
9.77255e-07
9.62398e-07
9.42907e-07
9.19713e-07
8.93937e-07
8.66734e-07
8.39135e-07
8.12117e-07
7.86415e-07
7.62661e-07
7.41215e-07
7.22191e-07
7.057e-07
6.91629e-07
6.79875e-07
6.70397e-07
6.63036e-07
6.57888e-07
6.54906e-07
6.54135e-07
6.55363e-07
6.57164e-07
6.59432e-07
6.6215e-07
6.65318e-07
6.68814e-07
6.72646e-07
6.7671e-07
6.80915e-07
6.85197e-07
6.89473e-07
6.93712e-07
6.9788e-07
7.0198e-07
7.06022e-07
7.10023e-07
7.14005e-07
7.17973e-07
7.21913e-07
7.25792e-07
7.29546e-07
7.33109e-07
7.36388e-07
7.39237e-07
7.41651e-07
7.4419e-07
7.45291e-07
7.43016e-07
7.43665e-07
3.83887e-07
3.85093e-07
3.86167e-07
3.87486e-07
3.88876e-07
3.90316e-07
3.91724e-07
3.93017e-07
3.94168e-07
3.95147e-07
3.95933e-07
3.96516e-07
3.96897e-07
3.97117e-07
3.97224e-07
3.97262e-07
3.97287e-07
3.97336e-07
3.97416e-07
3.97556e-07
3.97757e-07
3.98069e-07
3.98494e-07
3.9909e-07
3.99834e-07
4.00734e-07
4.01734e-07
4.02807e-07
4.03886e-07
4.04928e-07
4.05885e-07
4.06712e-07
4.07367e-07
4.0782e-07
4.08042e-07
4.08034e-07
4.07451e-07
4.06138e-07
4.04157e-07
4.01659e-07
3.98793e-07
3.95718e-07
3.92599e-07
3.89565e-07
3.86721e-07
3.84135e-07
3.81858e-07
3.79905e-07
3.78257e-07
3.7689e-07
3.75764e-07
3.74852e-07
3.74132e-07
3.73584e-07
3.73195e-07
3.72963e-07
3.72881e-07
3.72931e-07
3.73011e-07
3.7312e-07
3.7326e-07
3.73425e-07
3.73619e-07
3.73831e-07
3.74063e-07
3.7431e-07
3.74565e-07
3.74821e-07
3.75077e-07
3.7533e-07
3.75579e-07
3.7583e-07
3.76084e-07
3.76339e-07
3.76596e-07
3.76853e-07
3.77107e-07
3.77351e-07
3.7758e-07
3.77782e-07
3.77948e-07
3.78069e-07
3.78174e-07
3.78153e-07
3.77757e-07
3.78483e-07
3.58251e-07
3.5853e-07
3.58684e-07
3.58823e-07
3.59033e-07
3.59256e-07
3.59496e-07
3.59718e-07
3.59941e-07
3.60144e-07
3.60318e-07
3.60454e-07
3.60553e-07
3.60634e-07
3.60688e-07
3.60731e-07
3.6075e-07
3.60785e-07
3.60807e-07
3.60839e-07
3.60861e-07
3.60904e-07
3.6095e-07
3.61036e-07
3.61133e-07
3.61278e-07
3.61447e-07
3.61652e-07
3.61868e-07
3.62082e-07
3.62288e-07
3.62488e-07
3.62663e-07
3.62788e-07
3.62854e-07
3.62867e-07
3.62789e-07
3.62594e-07
3.62314e-07
3.61964e-07
3.6158e-07
3.61187e-07
3.60808e-07
3.6046e-07
3.60154e-07
3.59897e-07
3.59695e-07
3.59553e-07
3.59461e-07
3.59401e-07
3.59362e-07
3.59343e-07
3.59333e-07
3.59335e-07
3.59338e-07
3.59349e-07
3.5936e-07
3.59369e-07
3.5937e-07
3.59369e-07
3.59367e-07
3.59362e-07
3.59362e-07
3.59358e-07
3.59364e-07
3.59374e-07
3.59387e-07
3.59401e-07
3.59419e-07
3.59441e-07
3.59467e-07
3.59494e-07
3.59527e-07
3.59564e-07
3.59604e-07
3.59647e-07
3.5969e-07
3.59732e-07
3.59771e-07
3.59803e-07
3.59834e-07
3.59841e-07
3.59839e-07
3.59787e-07
3.59579e-07
3.59367e-07
3.54742e-07
3.5497e-07
3.5501e-07
3.55143e-07
3.55281e-07
3.55417e-07
3.5554e-07
3.55616e-07
3.55688e-07
3.55751e-07
3.55824e-07
3.5591e-07
3.56003e-07
3.56122e-07
3.56241e-07
3.56389e-07
3.56527e-07
3.56688e-07
3.56817e-07
3.56946e-07
3.57038e-07
3.57127e-07
3.57183e-07
3.57265e-07
3.57334e-07
3.5743e-07
3.57518e-07
3.57629e-07
3.57742e-07
3.57869e-07
3.58e-07
3.58132e-07
3.58244e-07
3.58322e-07
3.58375e-07
3.58403e-07
3.58409e-07
3.58373e-07
3.58328e-07
3.58266e-07
3.582e-07
3.58138e-07
3.58082e-07
3.58041e-07
3.58014e-07
3.58001e-07
3.58014e-07
3.58051e-07
3.58111e-07
3.58176e-07
3.58239e-07
3.58303e-07
3.58356e-07
3.5841e-07
3.58451e-07
3.58488e-07
3.58512e-07
3.58526e-07
3.58528e-07
3.58519e-07
3.5851e-07
3.5849e-07
3.58479e-07
3.58459e-07
3.5845e-07
3.58443e-07
3.58437e-07
3.58436e-07
3.58437e-07
3.58443e-07
3.58451e-07
3.58465e-07
3.58488e-07
3.58514e-07
3.58543e-07
3.58575e-07
3.58607e-07
3.58639e-07
3.58669e-07
3.58691e-07
3.58718e-07
3.58721e-07
3.58741e-07
3.58777e-07
3.58712e-07
3.58887e-07
3.55875e-07
3.55987e-07
3.55989e-07
3.5597e-07
3.56004e-07
3.5604e-07
3.56097e-07
3.56139e-07
3.56189e-07
3.56232e-07
3.56276e-07
3.56314e-07
3.56346e-07
3.56397e-07
3.56441e-07
3.56493e-07
3.56529e-07
3.56588e-07
3.56628e-07
3.56673e-07
3.56697e-07
3.56736e-07
3.56756e-07
3.56817e-07
3.56868e-07
3.5696e-07
3.57043e-07
3.57152e-07
3.57256e-07
3.57373e-07
3.57501e-07
3.57636e-07
3.57751e-07
3.57827e-07
3.57886e-07
3.5792e-07
3.57937e-07
3.5792e-07
3.57904e-07
3.57875e-07
3.57848e-07
3.57824e-07
3.57806e-07
3.57802e-07
3.57805e-07
3.57821e-07
3.5786e-07
3.57918e-07
3.57997e-07
3.58075e-07
3.58149e-07
3.58221e-07
3.58281e-07
3.58342e-07
3.58388e-07
3.58431e-07
3.5846e-07
3.58477e-07
3.58482e-07
3.58476e-07
3.58469e-07
3.5845e-07
3.58441e-07
3.58422e-07
3.58414e-07
3.58408e-07
3.58402e-07
3.584e-07
3.58401e-07
3.58407e-07
3.58416e-07
3.5843e-07
3.58448e-07
3.58472e-07
3.58498e-07
3.58529e-07
3.58558e-07
3.58586e-07
3.58612e-07
3.5863e-07
3.58652e-07
3.58651e-07
3.58656e-07
3.58637e-07
3.58545e-07
3.5853e-07
3.55316e-07
3.55444e-07
3.55426e-07
3.55477e-07
3.55509e-07
3.55541e-07
3.55583e-07
3.55605e-07
3.5563e-07
3.55658e-07
3.55691e-07
3.55749e-07
3.55797e-07
3.55866e-07
3.55951e-07
3.56067e-07
3.56174e-07
3.56304e-07
3.56404e-07
3.56499e-07
3.56559e-07
3.56627e-07
3.56655e-07
3.56727e-07
3.56769e-07
3.56859e-07
3.5693e-07
3.57032e-07
3.57132e-07
3.57245e-07
3.57365e-07
3.57483e-07
3.57585e-07
3.57653e-07
3.57708e-07
3.57741e-07
3.57757e-07
3.57739e-07
3.57724e-07
3.57696e-07
3.57675e-07
3.57653e-07
3.57643e-07
3.57641e-07
3.57651e-07
3.57671e-07
3.57719e-07
3.57784e-07
3.57872e-07
3.57954e-07
3.58033e-07
3.58107e-07
3.58172e-07
3.58234e-07
3.58286e-07
3.58337e-07
3.58374e-07
3.58398e-07
3.5841e-07
3.58407e-07
3.584e-07
3.58382e-07
3.58377e-07
3.58358e-07
3.58351e-07
3.58344e-07
3.58337e-07
3.58333e-07
3.58334e-07
3.5834e-07
3.5835e-07
3.58365e-07
3.58387e-07
3.58412e-07
3.58442e-07
3.58473e-07
3.58504e-07
3.58534e-07
3.58559e-07
3.58577e-07
3.58597e-07
3.58594e-07
3.58602e-07
3.58602e-07
3.58564e-07
3.58611e-07
3.55896e-07
3.55971e-07
3.55946e-07
3.55906e-07
3.55904e-07
3.55898e-07
3.55919e-07
3.55926e-07
3.55934e-07
3.55939e-07
3.55944e-07
3.55949e-07
3.55946e-07
3.55973e-07
3.5599e-07
3.56023e-07
3.56051e-07
3.56119e-07
3.5617e-07
3.56236e-07
3.56281e-07
3.56355e-07
3.5639e-07
3.56484e-07
3.56537e-07
3.5665e-07
3.56739e-07
3.56865e-07
3.56984e-07
3.57117e-07
3.57246e-07
3.57364e-07
3.57463e-07
3.57529e-07
3.57586e-07
3.57618e-07
3.5763e-07
3.57608e-07
3.57588e-07
3.57561e-07
3.57541e-07
3.57522e-07
3.57514e-07
3.57517e-07
3.5753e-07
3.57556e-07
3.57612e-07
3.57685e-07
3.57776e-07
3.57862e-07
3.57942e-07
3.58017e-07
3.58081e-07
3.58147e-07
3.58204e-07
3.5826e-07
3.58306e-07
3.58339e-07
3.58361e-07
3.58365e-07
3.58363e-07
3.58344e-07
3.58345e-07
3.58327e-07
3.58319e-07
3.58312e-07
3.58306e-07
3.58303e-07
3.58303e-07
3.5831e-07
3.5832e-07
3.58334e-07
3.58357e-07
3.58384e-07
3.58415e-07
3.58447e-07
3.58478e-07
3.58508e-07
3.58531e-07
3.58546e-07
3.58561e-07
3.58558e-07
3.58564e-07
3.58563e-07
3.58534e-07
3.58512e-07
3.55464e-07
3.55564e-07
3.55544e-07
3.55534e-07
3.55513e-07
3.55495e-07
3.55501e-07
3.55503e-07
3.55504e-07
3.55512e-07
3.55509e-07
3.55522e-07
3.5553e-07
3.55578e-07
3.55645e-07
3.55751e-07
3.55837e-07
3.55953e-07
3.56043e-07
3.56129e-07
3.56185e-07
3.56262e-07
3.56281e-07
3.56365e-07
3.564e-07
3.56517e-07
3.56596e-07
3.56723e-07
3.56841e-07
3.56981e-07
3.57113e-07
3.5723e-07
3.57324e-07
3.57394e-07
3.5745e-07
3.57479e-07
3.57487e-07
3.57458e-07
3.57435e-07
3.57405e-07
3.57381e-07
3.57366e-07
3.57354e-07
3.57362e-07
3.57374e-07
3.57405e-07
3.57463e-07
3.57536e-07
3.57629e-07
3.57714e-07
3.57796e-07
3.57874e-07
3.57941e-07
3.58011e-07
3.58074e-07
3.58137e-07
3.58192e-07
3.58238e-07
3.58275e-07
3.58294e-07
3.583e-07
3.58284e-07
3.58291e-07
3.58273e-07
3.58264e-07
3.58256e-07
3.58249e-07
3.58247e-07
3.58246e-07
3.58252e-07
3.58263e-07
3.58278e-07
3.58301e-07
3.5833e-07
3.58361e-07
3.58396e-07
3.58428e-07
3.58454e-07
3.58477e-07
3.58491e-07
3.58503e-07
3.58499e-07
3.58504e-07
3.58502e-07
3.58486e-07
3.58452e-07
3.55588e-07
3.5566e-07
3.55623e-07
3.55579e-07
3.5555e-07
3.55521e-07
3.55508e-07
3.55489e-07
3.5546e-07
3.55425e-07
3.5539e-07
3.55368e-07
3.55321e-07
3.55331e-07
3.55355e-07
3.55396e-07
3.55457e-07
3.55562e-07
3.55649e-07
3.55746e-07
3.55816e-07
3.55924e-07
3.55964e-07
3.56092e-07
3.56148e-07
3.56304e-07
3.56401e-07
3.56549e-07
3.56679e-07
3.56833e-07
3.56971e-07
3.57085e-07
3.57175e-07
3.57242e-07
3.57293e-07
3.57315e-07
3.5732e-07
3.57287e-07
3.5726e-07
3.57226e-07
3.57201e-07
3.57185e-07
3.57174e-07
3.57185e-07
3.57199e-07
3.57234e-07
3.57298e-07
3.57378e-07
3.57479e-07
3.5757e-07
3.57658e-07
3.57738e-07
3.5781e-07
3.57883e-07
3.57952e-07
3.58021e-07
3.58084e-07
3.58137e-07
3.58182e-07
3.58214e-07
3.58234e-07
3.58223e-07
3.58239e-07
3.58222e-07
3.58215e-07
3.58208e-07
3.582e-07
3.58199e-07
3.58199e-07
3.58207e-07
3.58219e-07
3.58236e-07
3.58261e-07
3.58291e-07
3.58327e-07
3.58362e-07
3.58393e-07
3.5842e-07
3.58441e-07
3.58452e-07
3.58462e-07
3.5846e-07
3.58464e-07
3.5846e-07
3.58446e-07
3.58394e-07
3.55111e-07
3.55209e-07
3.5518e-07
3.55158e-07
3.55121e-07
3.55087e-07
3.5506e-07
3.55039e-07
3.55014e-07
3.54995e-07
3.5498e-07
3.54969e-07
3.5495e-07
3.54984e-07
3.55033e-07
3.5516e-07
3.55236e-07
3.55367e-07
3.55458e-07
3.55545e-07
3.55602e-07
3.557e-07
3.5572e-07
3.55849e-07
3.55893e-07
3.56055e-07
3.56157e-07
3.56326e-07
3.56471e-07
3.56638e-07
3.56785e-07
3.56898e-07
3.56987e-07
3.57048e-07
3.57092e-07
3.57112e-07
3.57117e-07
3.57084e-07
3.57057e-07
3.57023e-07
3.56997e-07
3.56977e-07
3.56966e-07
3.56978e-07
3.56993e-07
3.57034e-07
3.57099e-07
3.57188e-07
3.57294e-07
3.57388e-07
3.57475e-07
3.57559e-07
3.5763e-07
3.57708e-07
3.57781e-07
3.57859e-07
3.57935e-07
3.58003e-07
3.58062e-07
3.58107e-07
3.58139e-07
3.58135e-07
3.58158e-07
3.58145e-07
3.5814e-07
3.58132e-07
3.5812e-07
3.58116e-07
3.58115e-07
3.58121e-07
3.58133e-07
3.58147e-07
3.58174e-07
3.58208e-07
3.58246e-07
3.58281e-07
3.58313e-07
3.58342e-07
3.58361e-07
3.5837e-07
3.58379e-07
3.5838e-07
3.58382e-07
3.58377e-07
3.58367e-07
3.58296e-07
3.54871e-07
3.54961e-07
3.54925e-07
3.54892e-07
3.5484e-07
3.54798e-07
3.5476e-07
3.54731e-07
3.54688e-07
3.54651e-07
3.54604e-07
3.54557e-07
3.54524e-07
3.54515e-07
3.54562e-07
3.54624e-07
3.54743e-07
3.54877e-07
3.54994e-07
3.55117e-07
3.55209e-07
3.55354e-07
3.55398e-07
3.55564e-07
3.55625e-07
3.55816e-07
3.55939e-07
3.56132e-07
3.56292e-07
3.56486e-07
3.56643e-07
3.56752e-07
3.56844e-07
3.56904e-07
3.56939e-07
3.56949e-07
3.56947e-07
3.5691e-07
3.56877e-07
3.56836e-07
3.56804e-07
3.56783e-07
3.56772e-07
3.56784e-07
3.56805e-07
3.56849e-07
3.56929e-07
3.57031e-07
3.57147e-07
3.57243e-07
3.57333e-07
3.5742e-07
3.57492e-07
3.57571e-07
3.57654e-07
3.5774e-07
3.57828e-07
3.57909e-07
3.57979e-07
3.58035e-07
3.58077e-07
3.58081e-07
3.5811e-07
3.58102e-07
3.58099e-07
3.58092e-07
3.58081e-07
3.58076e-07
3.58073e-07
3.58079e-07
3.58091e-07
3.58109e-07
3.58136e-07
3.58171e-07
3.58208e-07
3.58246e-07
3.58279e-07
3.58306e-07
3.58323e-07
3.58333e-07
3.58343e-07
3.58344e-07
3.58343e-07
3.58337e-07
3.58331e-07
3.58247e-07
3.54266e-07
3.54386e-07
3.54375e-07
3.54369e-07
3.54336e-07
3.54307e-07
3.54276e-07
3.54259e-07
3.54218e-07
3.5418e-07
3.54143e-07
3.54111e-07
3.54081e-07
3.5409e-07
3.54194e-07
3.54297e-07
3.54396e-07
3.54563e-07
3.54694e-07
3.5482e-07
3.54913e-07
3.55066e-07
3.55102e-07
3.5528e-07
3.55333e-07
3.55537e-07
3.55661e-07
3.5586e-07
3.56013e-07
3.56212e-07
3.56375e-07
3.56482e-07
3.56569e-07
3.56623e-07
3.56649e-07
3.56656e-07
3.56663e-07
3.56632e-07
3.56601e-07
3.56559e-07
3.56531e-07
3.56516e-07
3.5651e-07
3.56529e-07
3.56557e-07
3.56616e-07
3.56712e-07
3.56825e-07
3.56953e-07
3.57053e-07
3.57141e-07
3.57222e-07
3.57298e-07
3.57377e-07
3.57465e-07
3.57562e-07
3.57665e-07
3.57766e-07
3.57856e-07
3.57932e-07
3.57995e-07
3.58005e-07
3.58038e-07
3.5803e-07
3.58028e-07
3.5802e-07
3.58006e-07
3.57996e-07
3.57984e-07
3.57978e-07
3.57981e-07
3.57994e-07
3.58022e-07
3.58058e-07
3.58096e-07
3.58135e-07
3.58167e-07
3.58193e-07
3.5821e-07
3.58216e-07
3.58225e-07
3.58223e-07
3.58221e-07
3.58215e-07
3.58213e-07
3.58122e-07
3.53764e-07
3.53898e-07
3.53908e-07
3.53924e-07
3.53894e-07
3.5387e-07
3.53833e-07
3.5381e-07
3.53761e-07
3.53708e-07
3.53658e-07
3.53613e-07
3.53587e-07
3.53603e-07
3.5368e-07
3.53856e-07
3.54038e-07
3.54199e-07
3.54401e-07
3.54552e-07
3.54677e-07
3.54896e-07
3.54976e-07
3.55224e-07
3.55323e-07
3.55585e-07
3.55748e-07
3.55979e-07
3.56142e-07
3.5632e-07
3.56458e-07
3.56547e-07
3.56624e-07
3.56665e-07
3.56674e-07
3.56667e-07
3.56661e-07
3.56621e-07
3.56578e-07
3.56529e-07
3.56496e-07
3.56473e-07
3.56464e-07
3.56475e-07
3.56491e-07
3.56526e-07
3.566e-07
3.56693e-07
3.56808e-07
3.56903e-07
3.56994e-07
3.57091e-07
3.57174e-07
3.57258e-07
3.57356e-07
3.57466e-07
3.57583e-07
3.57698e-07
3.57798e-07
3.57884e-07
3.57963e-07
3.57982e-07
3.58037e-07
3.58053e-07
3.58069e-07
3.58077e-07
3.58078e-07
3.58079e-07
3.58075e-07
3.58074e-07
3.58073e-07
3.58079e-07
3.58091e-07
3.58111e-07
3.58136e-07
3.58165e-07
3.58195e-07
3.58218e-07
3.58233e-07
3.5824e-07
3.58247e-07
3.58244e-07
3.58244e-07
3.58235e-07
3.58235e-07
3.58132e-07
3.53259e-07
3.53411e-07
3.53448e-07
3.53493e-07
3.53468e-07
3.5345e-07
3.53414e-07
3.53397e-07
3.53358e-07
3.53314e-07
3.53276e-07
3.53242e-07
3.53219e-07
3.53242e-07
3.53368e-07
3.53506e-07
3.53728e-07
3.53968e-07
3.54069e-07
3.54276e-07
3.54412e-07
3.54661e-07
3.54773e-07
3.55059e-07
3.55201e-07
3.55501e-07
3.5571e-07
3.55968e-07
3.56156e-07
3.56346e-07
3.56483e-07
3.56582e-07
3.56674e-07
3.56723e-07
3.56725e-07
3.56702e-07
3.56675e-07
3.56619e-07
3.56553e-07
3.56487e-07
3.56443e-07
3.56407e-07
3.56389e-07
3.56388e-07
3.56391e-07
3.56409e-07
3.56479e-07
3.5657e-07
3.56691e-07
3.56806e-07
3.56904e-07
3.57004e-07
3.57088e-07
3.57173e-07
3.57267e-07
3.57382e-07
3.575e-07
3.5762e-07
3.57723e-07
3.57816e-07
3.57884e-07
3.57915e-07
3.57964e-07
3.57973e-07
3.57984e-07
3.57981e-07
3.5797e-07
3.57966e-07
3.57962e-07
3.57967e-07
3.57979e-07
3.57995e-07
3.58019e-07
3.5805e-07
3.58083e-07
3.5812e-07
3.58155e-07
3.58183e-07
3.58202e-07
3.58214e-07
3.58224e-07
3.58226e-07
3.58231e-07
3.5822e-07
3.58225e-07
3.58118e-07
3.53044e-07
3.53203e-07
3.53254e-07
3.53299e-07
3.53276e-07
3.5326e-07
3.53211e-07
3.53179e-07
3.53122e-07
3.53054e-07
3.5299e-07
3.52943e-07
3.5291e-07
3.52908e-07
3.53009e-07
3.53202e-07
3.53386e-07
3.53686e-07
3.53812e-07
3.54025e-07
3.54162e-07
3.54434e-07
3.54551e-07
3.54858e-07
3.55019e-07
3.55344e-07
3.55584e-07
3.55864e-07
3.56068e-07
3.56261e-07
3.56392e-07
3.5648e-07
3.56573e-07
3.56621e-07
3.56632e-07
3.56613e-07
3.56593e-07
3.56537e-07
3.5647e-07
3.56398e-07
3.56345e-07
3.56291e-07
3.56249e-07
3.56221e-07
3.56195e-07
3.56222e-07
3.56317e-07
3.56445e-07
3.5659e-07
3.56708e-07
3.56791e-07
3.56872e-07
3.56948e-07
3.57016e-07
3.57115e-07
3.5724e-07
3.5737e-07
3.57511e-07
3.57636e-07
3.57745e-07
3.57841e-07
3.57873e-07
3.57918e-07
3.57927e-07
3.57938e-07
3.57932e-07
3.57915e-07
3.57902e-07
3.57886e-07
3.57879e-07
3.57884e-07
3.57897e-07
3.57927e-07
3.57963e-07
3.58003e-07
3.58049e-07
3.58082e-07
3.5811e-07
3.58122e-07
3.58129e-07
3.58132e-07
3.58131e-07
3.58133e-07
3.58121e-07
3.58134e-07
3.58032e-07
3.52775e-07
3.5295e-07
3.5302e-07
3.53076e-07
3.53057e-07
3.53045e-07
3.52996e-07
3.52973e-07
3.52929e-07
3.52875e-07
3.52824e-07
3.52781e-07
3.52746e-07
3.52744e-07
3.52855e-07
3.53033e-07
3.53254e-07
3.53468e-07
3.53689e-07
3.53834e-07
3.53982e-07
3.54259e-07
3.54371e-07
3.5468e-07
3.54828e-07
3.55145e-07
3.55389e-07
3.55673e-07
3.559e-07
3.56119e-07
3.56287e-07
3.56382e-07
3.56472e-07
3.56504e-07
3.56492e-07
3.56457e-07
3.56427e-07
3.56369e-07
3.56298e-07
3.56223e-07
3.56169e-07
3.56111e-07
3.56073e-07
3.56066e-07
3.56075e-07
3.56137e-07
3.56243e-07
3.56384e-07
3.56516e-07
3.5662e-07
3.56694e-07
3.56778e-07
3.56869e-07
3.56931e-07
3.57039e-07
3.57159e-07
3.57291e-07
3.57435e-07
3.57565e-07
3.57679e-07
3.57792e-07
3.57827e-07
3.57874e-07
3.57887e-07
3.57899e-07
3.57892e-07
3.57871e-07
3.57859e-07
3.57848e-07
3.57847e-07
3.57853e-07
3.57871e-07
3.57899e-07
3.57938e-07
3.5798e-07
3.58025e-07
3.58059e-07
3.58088e-07
3.581e-07
3.58104e-07
3.58107e-07
3.58106e-07
3.58106e-07
3.58091e-07
3.58104e-07
3.57996e-07
3.52497e-07
3.52687e-07
3.52775e-07
3.52845e-07
3.52833e-07
3.52812e-07
3.52743e-07
3.52703e-07
3.5265e-07
3.52585e-07
3.52521e-07
3.5247e-07
3.52431e-07
3.52422e-07
3.52541e-07
3.52747e-07
3.52985e-07
3.53228e-07
3.53424e-07
3.536e-07
3.53762e-07
3.54045e-07
3.54167e-07
3.54472e-07
3.54631e-07
3.5494e-07
3.55189e-07
3.55484e-07
3.55735e-07
3.55984e-07
3.56179e-07
3.56307e-07
3.56414e-07
3.56459e-07
3.56452e-07
3.56416e-07
3.56378e-07
3.56307e-07
3.56223e-07
3.56137e-07
3.56065e-07
3.56009e-07
3.55977e-07
3.55987e-07
3.56011e-07
3.56068e-07
3.56171e-07
3.56303e-07
3.56421e-07
3.56516e-07
3.56565e-07
3.56655e-07
3.56749e-07
3.5681e-07
3.56922e-07
3.57048e-07
3.57185e-07
3.57343e-07
3.57482e-07
3.57613e-07
3.57725e-07
3.57776e-07
3.57823e-07
3.57838e-07
3.57852e-07
3.57842e-07
3.57816e-07
3.57801e-07
3.57786e-07
3.57787e-07
3.57792e-07
3.5781e-07
3.57843e-07
3.57889e-07
3.5794e-07
3.57982e-07
3.58026e-07
3.58056e-07
3.58075e-07
3.58084e-07
3.58093e-07
3.58096e-07
3.58097e-07
3.58084e-07
3.58095e-07
3.57982e-07
3.52178e-07
3.52392e-07
3.52503e-07
3.52608e-07
3.52611e-07
3.52599e-07
3.52526e-07
3.52472e-07
3.52408e-07
3.52331e-07
3.52266e-07
3.52212e-07
3.52172e-07
3.52148e-07
3.52273e-07
3.52481e-07
3.52739e-07
3.52986e-07
3.53191e-07
3.53416e-07
3.53595e-07
3.539e-07
3.54034e-07
3.54334e-07
3.54499e-07
3.5478e-07
3.55022e-07
3.55313e-07
3.55578e-07
3.55833e-07
3.56042e-07
3.5619e-07
3.56321e-07
3.56387e-07
3.56389e-07
3.56343e-07
3.56293e-07
3.5621e-07
3.56108e-07
3.5602e-07
3.55947e-07
3.55909e-07
3.55891e-07
3.55905e-07
3.55927e-07
3.55978e-07
3.56072e-07
3.56191e-07
3.56309e-07
3.56401e-07
3.56465e-07
3.56557e-07
3.56641e-07
3.56726e-07
3.56828e-07
3.56977e-07
3.57114e-07
3.57287e-07
3.57429e-07
3.57564e-07
3.57687e-07
3.57735e-07
3.57783e-07
3.57798e-07
3.57809e-07
3.57794e-07
3.57766e-07
3.57744e-07
3.57727e-07
3.57722e-07
3.57727e-07
3.57742e-07
3.57777e-07
3.57824e-07
3.57879e-07
3.57928e-07
3.57974e-07
3.58005e-07
3.58025e-07
3.58035e-07
3.58045e-07
3.58046e-07
3.58048e-07
3.58036e-07
3.58049e-07
3.57937e-07
3.51784e-07
3.52031e-07
3.52169e-07
3.52308e-07
3.52338e-07
3.52343e-07
3.52277e-07
3.52219e-07
3.52147e-07
3.52054e-07
3.51978e-07
3.51911e-07
3.51862e-07
3.51831e-07
3.51969e-07
3.52217e-07
3.52461e-07
3.52724e-07
3.52959e-07
3.532e-07
3.5341e-07
3.5373e-07
3.53875e-07
3.54172e-07
3.54344e-07
3.54614e-07
3.54864e-07
3.55139e-07
3.5541e-07
3.55653e-07
3.55837e-07
3.5598e-07
3.56104e-07
3.56176e-07
3.56201e-07
3.56196e-07
3.56158e-07
3.56079e-07
3.55981e-07
3.55907e-07
3.55836e-07
3.55804e-07
3.55791e-07
3.55803e-07
3.55815e-07
3.55863e-07
3.55951e-07
3.56081e-07
3.562e-07
3.56291e-07
3.56363e-07
3.56459e-07
3.56551e-07
3.56634e-07
3.56747e-07
3.56887e-07
3.57039e-07
3.57212e-07
3.5736e-07
3.57518e-07
3.57643e-07
3.57688e-07
3.57753e-07
3.57763e-07
3.57766e-07
3.5775e-07
3.57722e-07
3.57697e-07
3.5768e-07
3.57671e-07
3.57675e-07
3.57689e-07
3.57719e-07
3.57769e-07
3.57824e-07
3.57882e-07
3.57927e-07
3.57964e-07
3.57986e-07
3.57999e-07
3.58009e-07
3.58008e-07
3.58012e-07
3.57996e-07
3.58008e-07
3.57897e-07
3.51285e-07
3.51592e-07
3.51784e-07
3.51965e-07
3.52029e-07
3.52062e-07
3.52009e-07
3.51956e-07
3.51888e-07
3.51794e-07
3.51717e-07
3.51651e-07
3.51609e-07
3.51573e-07
3.51747e-07
3.51994e-07
3.52214e-07
3.5249e-07
3.52748e-07
3.53016e-07
3.53251e-07
3.53576e-07
3.53743e-07
3.54034e-07
3.54225e-07
3.54498e-07
3.54773e-07
3.55066e-07
3.55356e-07
3.55615e-07
3.55794e-07
3.55933e-07
3.56064e-07
3.56141e-07
3.56159e-07
3.56118e-07
3.56037e-07
3.55951e-07
3.55857e-07
3.55788e-07
3.55713e-07
3.55677e-07
3.55672e-07
3.55677e-07
3.55685e-07
3.55736e-07
3.55833e-07
3.55974e-07
3.56085e-07
3.56156e-07
3.56221e-07
3.56321e-07
3.56413e-07
3.56477e-07
3.56599e-07
3.56756e-07
3.56915e-07
3.57093e-07
3.57293e-07
3.5748e-07
3.57564e-07
3.57649e-07
3.5773e-07
3.57731e-07
3.57724e-07
3.57705e-07
3.57676e-07
3.57652e-07
3.57633e-07
3.57618e-07
3.57616e-07
3.5763e-07
3.57663e-07
3.57712e-07
3.57767e-07
3.57828e-07
3.57874e-07
3.57911e-07
3.57932e-07
3.5794e-07
3.57947e-07
3.57948e-07
3.57955e-07
3.57937e-07
3.57952e-07
3.57846e-07
3.50339e-07
3.50816e-07
3.5116e-07
3.51462e-07
3.5161e-07
3.51693e-07
3.51677e-07
3.51646e-07
3.51588e-07
3.51489e-07
3.5141e-07
3.51325e-07
3.51266e-07
3.5121e-07
3.51397e-07
3.5157e-07
3.51798e-07
3.52073e-07
3.52362e-07
3.52669e-07
3.5294e-07
3.53293e-07
3.53504e-07
3.53805e-07
3.5402e-07
3.54304e-07
3.54607e-07
3.54899e-07
3.55179e-07
3.5543e-07
3.55615e-07
3.55716e-07
3.55804e-07
3.55844e-07
3.55859e-07
3.55877e-07
3.55866e-07
3.55775e-07
3.55688e-07
3.55649e-07
3.55584e-07
3.55539e-07
3.55541e-07
3.55529e-07
3.55545e-07
3.55614e-07
3.55718e-07
3.55851e-07
3.55967e-07
3.56075e-07
3.56108e-07
3.56218e-07
3.5632e-07
3.56385e-07
3.56482e-07
3.56646e-07
3.56787e-07
3.5699e-07
3.57206e-07
3.57375e-07
3.57461e-07
3.5761e-07
3.57679e-07
3.57685e-07
3.57678e-07
3.57657e-07
3.57627e-07
3.57603e-07
3.57581e-07
3.57565e-07
3.57562e-07
3.57577e-07
3.5762e-07
3.5767e-07
3.57734e-07
3.57802e-07
3.57855e-07
3.5789e-07
3.57912e-07
3.57927e-07
3.57935e-07
3.57933e-07
3.5794e-07
3.57917e-07
3.57923e-07
3.57814e-07
3.48239e-07
3.49123e-07
3.49853e-07
3.50463e-07
3.50834e-07
3.51066e-07
3.51144e-07
3.5117e-07
3.51143e-07
3.51055e-07
3.50967e-07
3.50861e-07
3.50782e-07
3.50721e-07
3.5088e-07
3.51012e-07
3.51184e-07
3.51562e-07
3.51871e-07
3.52234e-07
3.52573e-07
3.52983e-07
3.53245e-07
3.53571e-07
3.53822e-07
3.54128e-07
3.54479e-07
3.54807e-07
3.55134e-07
3.55432e-07
3.55649e-07
3.55762e-07
3.55881e-07
3.55954e-07
3.55986e-07
3.55944e-07
3.55809e-07
3.55678e-07
3.55601e-07
3.55541e-07
3.55469e-07
3.55419e-07
3.55401e-07
3.55386e-07
3.55412e-07
3.55466e-07
3.55543e-07
3.55669e-07
3.55728e-07
3.55881e-07
3.55887e-07
3.55955e-07
3.56037e-07
3.56098e-07
3.56192e-07
3.56316e-07
3.56469e-07
3.56746e-07
3.56822e-07
3.57085e-07
3.57355e-07
3.57466e-07
3.57584e-07
3.57609e-07
3.57614e-07
3.57597e-07
3.57571e-07
3.57548e-07
3.57524e-07
3.57508e-07
3.57499e-07
3.57512e-07
3.57539e-07
3.57592e-07
3.57653e-07
3.57718e-07
3.57773e-07
3.57812e-07
3.57828e-07
3.57837e-07
3.57842e-07
3.57843e-07
3.5785e-07
3.5783e-07
3.57842e-07
3.57741e-07
3.43595e-07
3.45359e-07
3.46964e-07
3.48309e-07
3.49232e-07
3.49843e-07
3.50191e-07
3.50376e-07
3.5044e-07
3.50375e-07
3.50271e-07
3.50098e-07
3.49937e-07
3.49808e-07
3.49759e-07
3.49788e-07
3.49881e-07
3.50096e-07
3.50439e-07
3.50941e-07
3.5148e-07
3.5208e-07
3.52542e-07
3.52979e-07
3.53352e-07
3.53718e-07
3.54144e-07
3.5453e-07
3.54902e-07
3.55211e-07
3.55461e-07
3.55522e-07
3.55576e-07
3.55613e-07
3.55615e-07
3.55604e-07
3.55552e-07
3.55469e-07
3.55437e-07
3.55399e-07
3.55338e-07
3.55289e-07
3.55247e-07
3.55207e-07
3.55194e-07
3.55187e-07
3.5529e-07
3.55329e-07
3.55456e-07
3.55473e-07
3.5552e-07
3.55562e-07
3.55645e-07
3.55633e-07
3.55655e-07
3.55718e-07
3.55831e-07
3.55956e-07
3.56208e-07
3.56624e-07
3.56924e-07
3.5706e-07
3.57298e-07
3.5741e-07
3.57478e-07
3.57491e-07
3.57484e-07
3.57473e-07
3.57461e-07
3.57459e-07
3.57456e-07
3.5747e-07
3.57506e-07
3.5757e-07
3.57637e-07
3.57709e-07
3.5777e-07
3.57809e-07
3.57831e-07
3.57846e-07
3.57853e-07
3.57854e-07
3.57857e-07
3.57832e-07
3.57836e-07
3.57721e-07
3.33508e-07
3.37009e-07
3.4046e-07
3.43427e-07
3.45614e-07
3.47093e-07
3.48034e-07
3.48596e-07
3.48846e-07
3.48869e-07
3.48739e-07
3.48478e-07
3.48171e-07
3.47781e-07
3.475e-07
3.47342e-07
3.47067e-07
3.47115e-07
3.4739e-07
3.48203e-07
3.49132e-07
3.50109e-07
3.50989e-07
3.51732e-07
3.52416e-07
3.52987e-07
3.53601e-07
3.54148e-07
3.54668e-07
3.55096e-07
3.55391e-07
3.55535e-07
3.55582e-07
3.55653e-07
3.55717e-07
3.55707e-07
3.5559e-07
3.55449e-07
3.55319e-07
3.55254e-07
3.55173e-07
3.55104e-07
3.55013e-07
3.54898e-07
3.54828e-07
3.54796e-07
3.54726e-07
3.54627e-07
3.54895e-07
3.54696e-07
3.5469e-07
3.54691e-07
3.54589e-07
3.54303e-07
3.53944e-07
3.53696e-07
3.53723e-07
3.53659e-07
3.54685e-07
3.54993e-07
3.55371e-07
3.56074e-07
3.5627e-07
3.56725e-07
3.56998e-07
3.57134e-07
3.57211e-07
3.57259e-07
3.57287e-07
3.5731e-07
3.57334e-07
3.57357e-07
3.57409e-07
3.5748e-07
3.57547e-07
3.57622e-07
3.57685e-07
3.57726e-07
3.57743e-07
3.57749e-07
3.57754e-07
3.57756e-07
3.57762e-07
3.57745e-07
3.57753e-07
3.5765e-07
3.13152e-07
3.19677e-07
3.26644e-07
3.32888e-07
3.37774e-07
3.41242e-07
3.43551e-07
3.45002e-07
3.45781e-07
3.46008e-07
3.45843e-07
3.4534e-07
3.44569e-07
3.4358e-07
3.42709e-07
3.41701e-07
3.40675e-07
3.39696e-07
3.39971e-07
3.41375e-07
3.43312e-07
3.45247e-07
3.47105e-07
3.48601e-07
3.49984e-07
3.51076e-07
3.52151e-07
3.53049e-07
3.53818e-07
3.54432e-07
3.54892e-07
3.55142e-07
3.55316e-07
3.55454e-07
3.55548e-07
3.55502e-07
3.5533e-07
3.55201e-07
3.55073e-07
3.54989e-07
3.54891e-07
3.5475e-07
3.54559e-07
3.54299e-07
3.54079e-07
3.53777e-07
3.53228e-07
3.53033e-07
3.52615e-07
3.52331e-07
3.51919e-07
3.51653e-07
3.51138e-07
3.50345e-07
3.49411e-07
3.48548e-07
3.48192e-07
3.48806e-07
3.49418e-07
3.50283e-07
3.51691e-07
3.52972e-07
3.53812e-07
3.54826e-07
3.55558e-07
3.56054e-07
3.5639e-07
3.56621e-07
3.56782e-07
3.56895e-07
3.56992e-07
3.57088e-07
3.57196e-07
3.5732e-07
3.57436e-07
3.57545e-07
3.57628e-07
3.57679e-07
3.57701e-07
3.57705e-07
3.57714e-07
3.5772e-07
3.57722e-07
3.57705e-07
3.57707e-07
3.57599e-07
2.75649e-07
2.86622e-07
2.99327e-07
3.11376e-07
3.2135e-07
3.28729e-07
3.33785e-07
3.37004e-07
3.38799e-07
3.39472e-07
3.39231e-07
3.38159e-07
3.36357e-07
3.34182e-07
3.32194e-07
3.2968e-07
3.267e-07
3.24217e-07
3.23939e-07
3.26805e-07
3.30696e-07
3.34682e-07
3.38737e-07
3.4198e-07
3.44958e-07
3.47336e-07
3.49455e-07
3.51104e-07
3.52468e-07
3.53478e-07
3.542e-07
3.54579e-07
3.5477e-07
3.54863e-07
3.54919e-07
3.54931e-07
3.54923e-07
3.54845e-07
3.54689e-07
3.54532e-07
3.54301e-07
3.53976e-07
3.53535e-07
3.52937e-07
3.52217e-07
3.51224e-07
3.50161e-07
3.49259e-07
3.47679e-07
3.47287e-07
3.464e-07
3.45522e-07
3.44069e-07
3.41827e-07
3.38959e-07
3.36439e-07
3.34966e-07
3.3601e-07
3.36787e-07
3.39319e-07
3.41822e-07
3.44592e-07
3.47347e-07
3.496e-07
3.51542e-07
3.52984e-07
3.54014e-07
3.54741e-07
3.55247e-07
3.5561e-07
3.55902e-07
3.56151e-07
3.56404e-07
3.56651e-07
3.56893e-07
3.57114e-07
3.57302e-07
3.57436e-07
3.57517e-07
3.57575e-07
3.57617e-07
3.57641e-07
3.57659e-07
3.57646e-07
3.57636e-07
3.57527e-07
2.14609e-07
2.30633e-07
2.50856e-07
2.71548e-07
2.89891e-07
3.04272e-07
3.14544e-07
3.21326e-07
3.25247e-07
3.2676e-07
3.2625e-07
3.2397e-07
3.20277e-07
3.15992e-07
3.11597e-07
3.05734e-07
2.98894e-07
2.93059e-07
2.92135e-07
2.97235e-07
3.04726e-07
3.12505e-07
3.20782e-07
3.27377e-07
3.33679e-07
3.38745e-07
3.43164e-07
3.46602e-07
3.49359e-07
3.51379e-07
3.52857e-07
3.53768e-07
3.54324e-07
3.54643e-07
3.54831e-07
3.54791e-07
3.546e-07
3.5434e-07
3.53962e-07
3.53572e-07
3.53004e-07
3.52201e-07
3.51079e-07
3.49548e-07
3.4748e-07
3.44877e-07
3.42213e-07
3.39079e-07
3.3615e-07
3.33593e-07
3.3136e-07
3.28733e-07
3.2488e-07
3.19495e-07
3.13231e-07
3.08036e-07
3.06101e-07
3.06545e-07
3.09469e-07
3.13308e-07
3.18811e-07
3.25118e-07
3.31088e-07
3.36646e-07
3.41424e-07
3.45168e-07
3.47959e-07
3.49973e-07
3.51425e-07
3.52481e-07
3.53305e-07
3.54005e-07
3.54626e-07
3.55187e-07
3.55694e-07
3.56144e-07
3.56516e-07
3.56811e-07
3.57008e-07
3.57139e-07
3.57219e-07
3.57257e-07
3.57288e-07
3.57293e-07
3.57305e-07
3.57215e-07
1.31415e-07
1.50163e-07
1.76822e-07
2.06923e-07
2.3563e-07
2.59932e-07
2.78183e-07
2.90674e-07
2.98064e-07
3.00989e-07
3.00042e-07
2.95651e-07
2.88554e-07
2.8033e-07
2.71843e-07
2.60976e-07
2.48963e-07
2.39173e-07
2.37424e-07
2.45305e-07
2.57523e-07
2.7087e-07
2.85807e-07
2.98147e-07
3.10425e-07
3.20263e-07
3.29157e-07
3.36284e-07
3.42004e-07
3.4597e-07
3.48874e-07
3.50781e-07
3.51876e-07
3.52459e-07
3.52865e-07
3.5301e-07
3.52916e-07
3.52595e-07
3.51989e-07
3.51195e-07
3.49938e-07
3.48012e-07