/*--------------------------------*- C++ -*----------------------------------*\
| =========                 |                                                 |
| \\      /  F ield         | OpenFOAM: The Open Source CFD Toolbox           |
|  \\    /   O peration     | Version:  v1912                                 |
|   \\  /    A nd           | Website:  www.openfoam.com                      |
|    \\/     M anipulation  |                                                 |
\*---------------------------------------------------------------------------*/
FoamFile
{
    version     2.0;
    format      ascii;
    class       volSymmTensorField;
    location    "40";
    object      R;
}
// * * * * * * * * * * * * * * * * * * * * * * * * * * * * * * * * * * * * * //

dimensions      [0 2 -2 0 0 0 0];


internalField   nonuniform List<symmTensor> 
14268
(
(6.17021e-07 -9.89953e-08 0 6.34115e-07 0 6.26285e-07)
(6.17335e-07 -9.89107e-08 0 6.33355e-07 0 6.25952e-07)
(6.18707e-07 -9.88599e-08 0 6.3255e-07 0 6.26192e-07)
(6.20729e-07 -9.87572e-08 0 6.31532e-07 0 6.2664e-07)
(6.23041e-07 -9.87431e-08 0 6.30759e-07 0 6.27319e-07)
(6.25364e-07 -9.8786e-08 0 6.30086e-07 0 6.28103e-07)
(6.27312e-07 -9.88953e-08 0 6.29708e-07 0 6.2886e-07)
(6.28489e-07 -9.90699e-08 0 6.2971e-07 0 6.29463e-07)
(6.27787e-07 -9.93437e-08 0 6.30955e-07 0 6.29769e-07)
(6.25399e-07 -9.96639e-08 0 6.33176e-07 0 6.29753e-07)
(6.24228e-07 -9.98863e-08 0 6.33824e-07 0 6.29534e-07)
(6.22395e-07 -1.0012e-07 0 6.34705e-07 0 6.29102e-07)
(6.19367e-07 -1.0035e-07 0 6.36351e-07 0 6.28485e-07)
(6.16165e-07 -1.00433e-07 0 6.38036e-07 0 6.27768e-07)
(6.13032e-07 -1.00471e-07 0 6.39833e-07 0 6.27139e-07)
(6.10256e-07 -1.00463e-07 0 6.41624e-07 0 6.26641e-07)
(6.08893e-07 -1.00437e-07 0 6.42703e-07 0 6.26453e-07)
(6.08537e-07 -1.00405e-07 0 6.43469e-07 0 6.26564e-07)
(6.09215e-07 -1.00397e-07 0 6.43966e-07 0 6.27074e-07)
(6.10538e-07 -1.00451e-07 0 6.44551e-07 0 6.27935e-07)
(6.1235e-07 -1.00507e-07 0 6.45351e-07 0 6.29164e-07)
(6.15084e-07 -1.00607e-07 0 6.45922e-07 0 6.30736e-07)
(6.187e-07 -1.00755e-07 0 6.46304e-07 0 6.3267e-07)
(6.22994e-07 -1.00962e-07 0 6.46758e-07 0 6.34964e-07)
(6.27989e-07 -1.01249e-07 0 6.47185e-07 0 6.37604e-07)
(6.33829e-07 -1.01622e-07 0 6.47292e-07 0 6.40519e-07)
(6.4024e-07 -1.02073e-07 0 6.47186e-07 0 6.43628e-07)
(6.46947e-07 -1.02605e-07 0 6.4696e-07 0 6.46834e-07)
(6.53669e-07 -1.03196e-07 0 6.46658e-07 0 6.50036e-07)
(6.602e-07 -1.03821e-07 0 6.46298e-07 0 6.53127e-07)
(6.66367e-07 -1.04446e-07 0 6.45813e-07 0 6.55998e-07)
(6.71891e-07 -1.0502e-07 0 6.45195e-07 0 6.58517e-07)
(6.76622e-07 -1.05453e-07 0 6.4455e-07 0 6.60624e-07)
(6.80075e-07 -1.05749e-07 0 6.44197e-07 0 6.62215e-07)
(6.82007e-07 -1.05912e-07 0 6.44246e-07 0 6.63217e-07)
(6.82491e-07 -1.05994e-07 0 6.4462e-07 0 6.63644e-07)
(6.8236e-07 -1.06013e-07 0 6.4527e-07 0 6.63882e-07)
(6.81696e-07 -1.05994e-07 0 6.46396e-07 0 6.64103e-07)
(6.80199e-07 -1.05956e-07 0 6.48263e-07 0 6.64269e-07)
(6.77861e-07 -1.05918e-07 0 6.50877e-07 0 6.64407e-07)
(6.74989e-07 -1.05894e-07 0 6.5402e-07 0 6.64532e-07)
(6.71828e-07 -1.05897e-07 0 6.57469e-07 0 6.64672e-07)
(6.685e-07 -1.05916e-07 0 6.61132e-07 0 6.64829e-07)
(6.65096e-07 -1.05961e-07 0 6.64923e-07 0 6.65011e-07)
(6.6176e-07 -1.06024e-07 0 6.68707e-07 0 6.6522e-07)
(6.58548e-07 -1.06105e-07 0 6.72397e-07 0 6.65448e-07)
(6.55565e-07 -1.06202e-07 0 6.75891e-07 0 6.65695e-07)
(6.52877e-07 -1.06303e-07 0 6.79133e-07 0 6.65963e-07)
(6.50492e-07 -1.0641e-07 0 6.82102e-07 0 6.66239e-07)
(6.48571e-07 -1.06519e-07 0 6.8459e-07 0 6.66512e-07)
(6.47033e-07 -1.06622e-07 0 6.86614e-07 0 6.66756e-07)
(6.45881e-07 -1.06717e-07 0 6.88182e-07 0 6.66968e-07)
(6.44995e-07 -1.06808e-07 0 6.89434e-07 0 6.67165e-07)
(6.44369e-07 -1.06892e-07 0 6.90375e-07 0 6.6733e-07)
(6.44083e-07 -1.06974e-07 0 6.90938e-07 0 6.67485e-07)
(6.43954e-07 -1.07051e-07 0 6.91329e-07 0 6.67628e-07)
(6.43995e-07 -1.07123e-07 0 6.9154e-07 0 6.67765e-07)
(6.44294e-07 -1.07206e-07 0 6.91637e-07 0 6.67968e-07)
(6.45192e-07 -1.07368e-07 0 6.91742e-07 0 6.68473e-07)
(6.46608e-07 -1.07575e-07 0 6.91955e-07 0 6.69287e-07)
(6.48587e-07 -1.07832e-07 0 6.92186e-07 0 6.70389e-07)
(6.51056e-07 -1.08132e-07 0 6.92456e-07 0 6.71761e-07)
(6.53984e-07 -1.08465e-07 0 6.9268e-07 0 6.73333e-07)
(6.573e-07 -1.08831e-07 0 6.92863e-07 0 6.75091e-07)
(6.60961e-07 -1.09206e-07 0 6.92941e-07 0 6.76967e-07)
(6.64855e-07 -1.09583e-07 0 6.92924e-07 0 6.78913e-07)
(6.68824e-07 -1.09955e-07 0 6.92898e-07 0 6.80891e-07)
(6.72759e-07 -1.10319e-07 0 6.92889e-07 0 6.82859e-07)
(6.76626e-07 -1.10671e-07 0 6.92894e-07 0 6.848e-07)
(6.80405e-07 -1.11013e-07 0 6.92904e-07 0 6.86696e-07)
(6.84086e-07 -1.11344e-07 0 6.9293e-07 0 6.88548e-07)
(6.87675e-07 -1.11669e-07 0 6.92978e-07 0 6.90366e-07)
(6.91201e-07 -1.11991e-07 0 6.93042e-07 0 6.92157e-07)
(6.94677e-07 -1.1231e-07 0 6.93121e-07 0 6.93931e-07)
(6.981e-07 -1.12625e-07 0 6.93212e-07 0 6.95686e-07)
(7.01477e-07 -1.12933e-07 0 6.93297e-07 0 6.97416e-07)
(7.04744e-07 -1.13228e-07 0 6.93407e-07 0 6.99103e-07)
(7.07867e-07 -1.13504e-07 0 6.93522e-07 0 7.00721e-07)
(7.10816e-07 -1.13758e-07 0 6.93613e-07 0 7.02238e-07)
(7.13295e-07 -1.13981e-07 0 6.93893e-07 0 7.03624e-07)
(7.1585e-07 -1.14173e-07 0 6.93805e-07 0 7.04852e-07)
(7.17322e-07 -1.14365e-07 0 6.9447e-07 0 7.05929e-07)
(7.19161e-07 -1.14522e-07 0 6.94564e-07 0 7.0688e-07)
(7.23312e-07 -1.15023e-07 0 6.92184e-07 0 7.07758e-07)
(7.17992e-07 -1.15056e-07 0 6.98153e-07 0 7.08123e-07)
(7.14602e-07 -1.15207e-07 0 7.0136e-07 0 7.07847e-07)
(1.3453e-07 -1.08027e-08 0 1.43776e-07 0 1.39151e-07)
(1.35823e-07 -1.09887e-08 0 1.44568e-07 0 1.40156e-07)
(1.37364e-07 -1.12007e-08 0 1.45429e-07 0 1.41354e-07)
(1.39104e-07 -1.14175e-08 0 1.46362e-07 0 1.42705e-07)
(1.41042e-07 -1.16315e-08 0 1.47324e-07 0 1.44144e-07)
(1.43026e-07 -1.18492e-08 0 1.4834e-07 0 1.45648e-07)
(1.44979e-07 -1.20607e-08 0 1.49371e-07 0 1.47139e-07)
(1.46743e-07 -1.22601e-08 0 1.50395e-07 0 1.48544e-07)
(1.48191e-07 -1.2449e-08 0 1.51437e-07 0 1.49793e-07)
(1.4922e-07 -1.26308e-08 0 1.52499e-07 0 1.50845e-07)
(1.50058e-07 -1.27808e-08 0 1.53302e-07 0 1.51669e-07)
(1.50543e-07 -1.29103e-08 0 1.53973e-07 0 1.5225e-07)
(1.50676e-07 -1.30193e-08 0 1.54534e-07 0 1.52602e-07)
(1.50639e-07 -1.30965e-08 0 1.54877e-07 0 1.52753e-07)
(1.50486e-07 -1.31571e-08 0 1.55082e-07 0 1.52783e-07)
(1.50252e-07 -1.32065e-08 0 1.55201e-07 0 1.52725e-07)
(1.50057e-07 -1.32523e-08 0 1.55293e-07 0 1.52677e-07)
(1.49966e-07 -1.32982e-08 0 1.55357e-07 0 1.52659e-07)
(1.50044e-07 -1.33584e-08 0 1.55441e-07 0 1.52741e-07)
(1.50295e-07 -1.34311e-08 0 1.55549e-07 0 1.52919e-07)
(1.50747e-07 -1.35193e-08 0 1.55712e-07 0 1.53228e-07)
(1.51456e-07 -1.36245e-08 0 1.5593e-07 0 1.53692e-07)
(1.52458e-07 -1.37521e-08 0 1.56218e-07 0 1.54339e-07)
(1.5375e-07 -1.39053e-08 0 1.56621e-07 0 1.55182e-07)
(1.55347e-07 -1.40901e-08 0 1.57121e-07 0 1.56227e-07)
(1.57233e-07 -1.43038e-08 0 1.57691e-07 0 1.57449e-07)
(1.59338e-07 -1.45445e-08 0 1.5831e-07 0 1.58806e-07)
(1.61571e-07 -1.48054e-08 0 1.58951e-07 0 1.60236e-07)
(1.63831e-07 -1.50758e-08 0 1.59583e-07 0 1.61675e-07)
(1.66028e-07 -1.53424e-08 0 1.60175e-07 0 1.63064e-07)
(1.68082e-07 -1.55922e-08 0 1.60698e-07 0 1.64347e-07)
(1.69899e-07 -1.58078e-08 0 1.61139e-07 0 1.65468e-07)
(1.71422e-07 -1.59771e-08 0 1.61468e-07 0 1.66393e-07)
(1.72566e-07 -1.60944e-08 0 1.61723e-07 0 1.67094e-07)
(1.73261e-07 -1.61536e-08 0 1.61905e-07 0 1.67534e-07)
(1.73489e-07 -1.61552e-08 0 1.62009e-07 0 1.67704e-07)
(1.72921e-07 -1.60419e-08 0 1.61714e-07 0 1.67274e-07)
(1.71396e-07 -1.57894e-08 0 1.60853e-07 0 1.66087e-07)
(1.68956e-07 -1.54121e-08 0 1.59441e-07 0 1.64164e-07)
(1.65754e-07 -1.49372e-08 0 1.57544e-07 0 1.6162e-07)
(1.61937e-07 -1.43827e-08 0 1.55234e-07 0 1.58559e-07)
(1.57683e-07 -1.37759e-08 0 1.52599e-07 0 1.55118e-07)
(1.53179e-07 -1.31404e-08 0 1.49745e-07 0 1.5144e-07)
(1.48588e-07 -1.24998e-08 0 1.46775e-07 0 1.47661e-07)
(1.44076e-07 -1.1875e-08 0 1.4379e-07 0 1.43913e-07)
(1.3976e-07 -1.12822e-08 0 1.40879e-07 0 1.403e-07)
(1.35748e-07 -1.07359e-08 0 1.38123e-07 0 1.36917e-07)
(1.32108e-07 -1.02431e-08 0 1.35578e-07 0 1.33824e-07)
(1.28864e-07 -9.80768e-09 0 1.33275e-07 0 1.3105e-07)
(1.26044e-07 -9.43344e-09 0 1.31242e-07 0 1.28623e-07)
(1.23624e-07 -9.11685e-09 0 1.29489e-07 0 1.26536e-07)
(1.21594e-07 -8.85826e-09 0 1.28013e-07 0 1.24782e-07)
(1.19947e-07 -8.65754e-09 0 1.2682e-07 0 1.23362e-07)
(1.18661e-07 -8.51198e-09 0 1.25896e-07 0 1.22256e-07)
(1.17754e-07 -8.42702e-09 0 1.25257e-07 0 1.21484e-07)
(1.1722e-07 -8.40012e-09 0 1.24905e-07 0 1.2104e-07)
(1.17066e-07 -8.43649e-09 0 1.24846e-07 0 1.20933e-07)
(1.17269e-07 -8.52817e-09 0 1.25043e-07 0 1.21133e-07)
(1.17618e-07 -8.63381e-09 0 1.25272e-07 0 1.21422e-07)
(1.18096e-07 -8.7498e-09 0 1.25511e-07 0 1.2178e-07)
(1.18696e-07 -8.87461e-09 0 1.25762e-07 0 1.22205e-07)
(1.19415e-07 -9.00587e-09 0 1.26026e-07 0 1.22698e-07)
(1.20223e-07 -9.14017e-09 0 1.26299e-07 0 1.23238e-07)
(1.21118e-07 -9.27855e-09 0 1.26582e-07 0 1.23828e-07)
(1.22073e-07 -9.41585e-09 0 1.26873e-07 0 1.24452e-07)
(1.23065e-07 -9.55185e-09 0 1.27168e-07 0 1.25096e-07)
(1.24076e-07 -9.68518e-09 0 1.27467e-07 0 1.25752e-07)
(1.25084e-07 -9.81549e-09 0 1.27765e-07 0 1.26406e-07)
(1.26082e-07 -9.94362e-09 0 1.28063e-07 0 1.27054e-07)
(1.27063e-07 -1.00699e-08 0 1.28357e-07 0 1.27691e-07)
(1.28026e-07 -1.01957e-08 0 1.2865e-07 0 1.28318e-07)
(1.28974e-07 -1.03223e-08 0 1.2894e-07 0 1.28937e-07)
(1.29911e-07 -1.04495e-08 0 1.29229e-07 0 1.29549e-07)
(1.30841e-07 -1.05775e-08 0 1.29516e-07 0 1.30157e-07)
(1.31765e-07 -1.07055e-08 0 1.29802e-07 0 1.30762e-07)
(1.32681e-07 -1.08321e-08 0 1.30086e-07 0 1.31362e-07)
(1.3358e-07 -1.09558e-08 0 1.30368e-07 0 1.31952e-07)
(1.34447e-07 -1.10737e-08 0 1.30643e-07 0 1.32523e-07)
(1.35269e-07 -1.11846e-08 0 1.30906e-07 0 1.33065e-07)
(1.36011e-07 -1.1286e-08 0 1.31162e-07 0 1.33566e-07)
(1.36676e-07 -1.13748e-08 0 1.3137e-07 0 1.34001e-07)
(1.37204e-07 -1.14579e-08 0 1.3159e-07 0 1.34378e-07)
(1.37717e-07 -1.1542e-08 0 1.31859e-07 0 1.3477e-07)
(1.38059e-07 -1.16551e-08 0 1.31854e-07 0 1.34947e-07)
(1.37596e-07 -1.17623e-08 0 1.31735e-07 0 1.34678e-07)
(1.37819e-07 -1.16393e-08 0 1.31621e-07 0 1.34814e-07)
(7.4376e-08 -2.68663e-09 0 7.92694e-08 0 7.69537e-08)
(7.46662e-08 -2.74606e-09 0 7.94002e-08 0 7.71314e-08)
(7.50243e-08 -2.80358e-09 0 7.94338e-08 0 7.73111e-08)
(7.54405e-08 -2.85558e-09 0 7.94563e-08 0 7.75179e-08)
(7.59055e-08 -2.89678e-09 0 7.94667e-08 0 7.77338e-08)
(7.63867e-08 -2.92595e-09 0 7.94661e-08 0 7.79616e-08)
(7.68546e-08 -2.94584e-09 0 7.94713e-08 0 7.81858e-08)
(7.72739e-08 -2.95047e-09 0 7.94813e-08 0 7.8396e-08)
(7.76247e-08 -2.94506e-09 0 7.95123e-08 0 7.85837e-08)
(7.78824e-08 -2.93367e-09 0 7.95715e-08 0 7.87416e-08)
(7.80589e-08 -2.91839e-09 0 7.96392e-08 0 7.88653e-08)
(7.81386e-08 -2.90448e-09 0 7.97293e-08 0 7.89521e-08)
(7.81356e-08 -2.89409e-09 0 7.98326e-08 0 7.90045e-08)
(7.80765e-08 -2.88892e-09 0 7.99374e-08 0 7.90269e-08)
(7.79891e-08 -2.8894e-09 0 8.00277e-08 0 7.90291e-08)
(7.78892e-08 -2.89754e-09 0 8.01075e-08 0 7.9017e-08)
(7.78165e-08 -2.91352e-09 0 8.01579e-08 0 7.90036e-08)
(7.77708e-08 -2.93618e-09 0 8.01935e-08 0 7.89925e-08)
(7.77806e-08 -2.96409e-09 0 8.01867e-08 0 7.89904e-08)
(7.78449e-08 -2.99238e-09 0 8.0149e-08 0 7.89982e-08)
(7.79716e-08 -3.02229e-09 0 8.00722e-08 0 7.90208e-08)
(7.81689e-08 -3.05056e-09 0 7.99666e-08 0 7.9064e-08)
(7.84437e-08 -3.07768e-09 0 7.98278e-08 0 7.91309e-08)
(7.87978e-08 -3.10384e-09 0 7.96708e-08 0 7.9227e-08)
(7.92294e-08 -3.13153e-09 0 7.94898e-08 0 7.93512e-08)
(7.9731e-08 -3.1588e-09 0 7.92924e-08 0 7.95023e-08)
(8.02819e-08 -3.18514e-09 0 7.90807e-08 0 7.96727e-08)
(8.08608e-08 -3.20972e-09 0 7.88646e-08 0 7.98549e-08)
(8.14455e-08 -3.23025e-09 0 7.86443e-08 0 8.00394e-08)
(8.20098e-08 -3.24423e-09 0 7.84308e-08 0 8.02176e-08)
(8.2534e-08 -3.2483e-09 0 7.82259e-08 0 8.03813e-08)
(8.29906e-08 -3.23931e-09 0 7.80427e-08 0 8.05217e-08)
(8.33665e-08 -3.21573e-09 0 7.7879e-08 0 8.06324e-08)
(8.36388e-08 -3.17423e-09 0 7.77516e-08 0 8.07087e-08)
(8.37904e-08 -3.11795e-09 0 7.7671e-08 0 8.07455e-08)
(8.38168e-08 -3.05045e-09 0 7.76344e-08 0 8.07411e-08)
(8.36509e-08 -2.9633e-09 0 7.75855e-08 0 8.06331e-08)
(8.32656e-08 -2.85515e-09 0 7.74951e-08 0 8.03961e-08)
(8.26727e-08 -2.73577e-09 0 7.73763e-08 0 8.00394e-08)
(8.19216e-08 -2.61389e-09 0 7.72312e-08 0 7.95915e-08)
(8.1048e-08 -2.49346e-09 0 7.70804e-08 0 7.90781e-08)
(8.01022e-08 -2.38195e-09 0 7.69285e-08 0 7.85292e-08)
(7.91275e-08 -2.28283e-09 0 7.6793e-08 0 7.79733e-08)
(7.81644e-08 -2.19943e-09 0 7.66791e-08 0 7.74338e-08)
(7.72437e-08 -2.13305e-09 0 7.65931e-08 0 7.69293e-08)
(7.63876e-08 -2.08357e-09 0 7.6534e-08 0 7.64711e-08)
(7.56122e-08 -2.05022e-09 0 7.65008e-08 0 7.60665e-08)
(7.49269e-08 -2.02964e-09 0 7.64894e-08 0 7.57176e-08)
(7.43309e-08 -2.01975e-09 0 7.64958e-08 0 7.54217e-08)
(7.38213e-08 -2.01865e-09 0 7.65145e-08 0 7.51753e-08)
(7.33903e-08 -2.02261e-09 0 7.65401e-08 0 7.49722e-08)
(7.30303e-08 -2.0321e-09 0 7.65718e-08 0 7.48074e-08)
(7.27389e-08 -2.04581e-09 0 7.66032e-08 0 7.46776e-08)
(7.25076e-08 -2.06381e-09 0 7.66371e-08 0 7.45783e-08)
(7.23397e-08 -2.08759e-09 0 7.66652e-08 0 7.45086e-08)
(7.22328e-08 -2.11517e-09 0 7.66891e-08 0 7.44668e-08)
(7.21862e-08 -2.14898e-09 0 7.67069e-08 0 7.44524e-08)
(7.21997e-08 -2.18705e-09 0 7.67133e-08 0 7.44624e-08)
(7.22578e-08 -2.22595e-09 0 7.66871e-08 0 7.44782e-08)
(7.2357e-08 -2.26441e-09 0 7.66275e-08 0 7.44983e-08)
(7.2496e-08 -2.30108e-09 0 7.65384e-08 0 7.4523e-08)
(7.26722e-08 -2.33355e-09 0 7.64172e-08 0 7.45515e-08)
(7.28755e-08 -2.36079e-09 0 7.62801e-08 0 7.45843e-08)
(7.31051e-08 -2.38458e-09 0 7.61199e-08 0 7.46201e-08)
(7.33529e-08 -2.40146e-09 0 7.5949e-08 0 7.46593e-08)
(7.36113e-08 -2.41315e-09 0 7.57727e-08 0 7.47009e-08)
(7.38729e-08 -2.41946e-09 0 7.5597e-08 0 7.47441e-08)
(7.41337e-08 -2.4229e-09 0 7.54232e-08 0 7.47881e-08)
(7.43892e-08 -2.42426e-09 0 7.52563e-08 0 7.48325e-08)
(7.4638e-08 -2.42465e-09 0 7.50962e-08 0 7.48769e-08)
(7.48812e-08 -2.42631e-09 0 7.49419e-08 0 7.49212e-08)
(7.51182e-08 -2.42818e-09 0 7.47947e-08 0 7.49657e-08)
(7.53524e-08 -2.43203e-09 0 7.4651e-08 0 7.50103e-08)
(7.55844e-08 -2.43674e-09 0 7.45093e-08 0 7.50551e-08)
(7.58131e-08 -2.44122e-09 0 7.43709e-08 0 7.50999e-08)
(7.60387e-08 -2.44448e-09 0 7.42354e-08 0 7.51447e-08)
(7.6257e-08 -2.4443e-09 0 7.41056e-08 0 7.51888e-08)
(7.64697e-08 -2.4428e-09 0 7.39783e-08 0 7.52314e-08)
(7.66671e-08 -2.43772e-09 0 7.38615e-08 0 7.52715e-08)
(7.68433e-08 -2.42633e-09 0 7.37551e-08 0 7.53073e-08)
(7.69926e-08 -2.41545e-09 0 7.3664e-08 0 7.53356e-08)
(7.71145e-08 -2.39861e-09 0 7.35872e-08 0 7.53589e-08)
(7.71951e-08 -2.37251e-09 0 7.35479e-08 0 7.5376e-08)
(7.7225e-08 -2.33138e-09 0 7.35158e-08 0 7.53661e-08)
(7.71781e-08 -2.25813e-09 0 7.34659e-08 0 7.53264e-08)
(7.71657e-08 -2.1748e-09 0 7.37505e-08 0 7.54209e-08)
(6.97174e-08 -2.25252e-09 0 7.46583e-08 0 7.21644e-08)
(6.98954e-08 -2.31128e-09 0 7.45555e-08 0 7.21986e-08)
(7.00528e-08 -2.37115e-09 0 7.44307e-08 0 7.22161e-08)
(7.03129e-08 -2.39369e-09 0 7.42051e-08 0 7.2236e-08)
(7.05593e-08 -2.41562e-09 0 7.40168e-08 0 7.22615e-08)
(7.08311e-08 -2.40142e-09 0 7.38037e-08 0 7.22903e-08)
(7.10838e-08 -2.38349e-09 0 7.36166e-08 0 7.23206e-08)
(7.13156e-08 -2.33872e-09 0 7.34398e-08 0 7.23492e-08)
(7.14885e-08 -2.29508e-09 0 7.33284e-08 0 7.23783e-08)
(7.16103e-08 -2.24571e-09 0 7.32642e-08 0 7.24047e-08)
(7.16782e-08 -2.20523e-09 0 7.32429e-08 0 7.24268e-08)
(7.16898e-08 -2.17211e-09 0 7.3264e-08 0 7.2443e-08)
(7.16493e-08 -2.15283e-09 0 7.33237e-08 0 7.24544e-08)
(7.15848e-08 -2.14334e-09 0 7.34027e-08 0 7.24619e-08)
(7.15147e-08 -2.1505e-09 0 7.34766e-08 0 7.24663e-08)
(7.14382e-08 -2.1668e-09 0 7.35525e-08 0 7.24679e-08)
(7.13906e-08 -2.20019e-09 0 7.35915e-08 0 7.24679e-08)
(7.13619e-08 -2.2314e-09 0 7.362e-08 0 7.24689e-08)
(7.13851e-08 -2.26893e-09 0 7.35901e-08 0 7.24689e-08)
(7.14375e-08 -2.31017e-09 0 7.35342e-08 0 7.24698e-08)
(7.15407e-08 -2.34742e-09 0 7.34226e-08 0 7.24699e-08)
(7.16957e-08 -2.38081e-09 0 7.32684e-08 0 7.24733e-08)
(7.1898e-08 -2.4085e-09 0 7.30699e-08 0 7.24786e-08)
(7.21508e-08 -2.43144e-09 0 7.28389e-08 0 7.24902e-08)
(7.24539e-08 -2.44873e-09 0 7.25649e-08 0 7.25059e-08)
(7.27939e-08 -2.45865e-09 0 7.22695e-08 0 7.25276e-08)
(7.31621e-08 -2.46054e-09 0 7.1954e-08 0 7.25534e-08)
(7.35518e-08 -2.4569e-09 0 7.1628e-08 0 7.25837e-08)
(7.39445e-08 -2.44713e-09 0 7.13028e-08 0 7.26164e-08)
(7.43177e-08 -2.42863e-09 0 7.09956e-08 0 7.26492e-08)
(7.46633e-08 -2.39723e-09 0 7.0712e-08 0 7.26808e-08)
(7.49837e-08 -2.35006e-09 0 7.04511e-08 0 7.27106e-08)
(7.52474e-08 -2.29058e-09 0 7.02408e-08 0 7.27363e-08)
(7.5447e-08 -2.21428e-09 0 7.00789e-08 0 7.27549e-08)
(7.55678e-08 -2.12701e-09 0 6.99752e-08 0 7.27635e-08)
(7.5598e-08 -2.03472e-09 0 6.99383e-08 0 7.27613e-08)
(7.55309e-08 -1.93015e-09 0 6.99609e-08 0 7.27396e-08)
(7.53564e-08 -1.8265e-09 0 7.00438e-08 0 7.26959e-08)
(7.50881e-08 -1.72328e-09 0 7.01879e-08 0 7.26342e-08)
(7.47421e-08 -1.637e-09 0 7.03836e-08 0 7.25604e-08)
(7.43348e-08 -1.56126e-09 0 7.06299e-08 0 7.24802e-08)
(7.38897e-08 -1.50454e-09 0 7.09138e-08 0 7.23998e-08)
(7.34274e-08 -1.46506e-09 0 7.12246e-08 0 7.2324e-08)
(7.29613e-08 -1.44479e-09 0 7.15555e-08 0 7.2256e-08)
(7.25094e-08 -1.44034e-09 0 7.18929e-08 0 7.21981e-08)
(7.20812e-08 -1.45145e-09 0 7.22267e-08 0 7.21506e-08)
(7.16855e-08 -1.47557e-09 0 7.25473e-08 0 7.2113e-08)
(7.13336e-08 -1.50649e-09 0 7.28438e-08 0 7.2085e-08)
(7.10176e-08 -1.54362e-09 0 7.31214e-08 0 7.20649e-08)
(7.07528e-08 -1.58426e-09 0 7.33589e-08 0 7.20508e-08)
(7.0515e-08 -1.62338e-09 0 7.35779e-08 0 7.20411e-08)
(7.03224e-08 -1.66314e-09 0 7.37595e-08 0 7.2035e-08)
(7.0153e-08 -1.70338e-09 0 7.39215e-08 0 7.20314e-08)
(7.0025e-08 -1.74233e-09 0 7.40482e-08 0 7.20301e-08)
(6.99221e-08 -1.78714e-09 0 7.41506e-08 0 7.203e-08)
(6.98622e-08 -1.82932e-09 0 7.4214e-08 0 7.20313e-08)
(6.9833e-08 -1.87635e-09 0 7.42473e-08 0 7.20333e-08)
(6.9837e-08 -1.92368e-09 0 7.42484e-08 0 7.20358e-08)
(6.98798e-08 -1.9709e-09 0 7.4209e-08 0 7.20373e-08)
(6.99534e-08 -2.01769e-09 0 7.41359e-08 0 7.20376e-08)
(7.00783e-08 -2.06129e-09 0 7.40101e-08 0 7.20368e-08)
(7.0207e-08 -2.09651e-09 0 7.38751e-08 0 7.20346e-08)
(7.03868e-08 -2.12535e-09 0 7.36915e-08 0 7.20326e-08)
(7.05664e-08 -2.14824e-09 0 7.35036e-08 0 7.20297e-08)
(7.07687e-08 -2.16003e-09 0 7.32968e-08 0 7.20277e-08)
(7.09812e-08 -2.16483e-09 0 7.30809e-08 0 7.20264e-08)
(7.11938e-08 -2.16308e-09 0 7.28659e-08 0 7.20257e-08)
(7.14056e-08 -2.15566e-09 0 7.26537e-08 0 7.2026e-08)
(7.16106e-08 -2.14681e-09 0 7.24503e-08 0 7.20272e-08)
(7.18094e-08 -2.13647e-09 0 7.22565e-08 0 7.20296e-08)
(7.20043e-08 -2.12711e-09 0 7.20695e-08 0 7.20332e-08)
(7.21944e-08 -2.1205e-09 0 7.18885e-08 0 7.20375e-08)
(7.23801e-08 -2.11427e-09 0 7.17136e-08 0 7.20425e-08)
(7.25654e-08 -2.11038e-09 0 7.15398e-08 0 7.2048e-08)
(7.27482e-08 -2.1063e-09 0 7.1369e-08 0 7.2054e-08)
(7.29279e-08 -2.09999e-09 0 7.12024e-08 0 7.20603e-08)
(7.31045e-08 -2.09071e-09 0 7.10387e-08 0 7.20668e-08)
(7.32737e-08 -2.07835e-09 0 7.08819e-08 0 7.20733e-08)
(7.34285e-08 -2.05894e-09 0 7.07391e-08 0 7.20794e-08)
(7.35696e-08 -2.04073e-09 0 7.06068e-08 0 7.20847e-08)
(7.3697e-08 -2.01027e-09 0 7.04884e-08 0 7.20893e-08)
(7.37861e-08 -1.98349e-09 0 7.04023e-08 0 7.20919e-08)
(7.38505e-08 -1.94595e-09 0 7.03324e-08 0 7.20914e-08)
(7.38534e-08 -1.91702e-09 0 7.0302e-08 0 7.20828e-08)
(7.38658e-08 -1.91799e-09 0 7.02414e-08 0 7.20684e-08)
(7.37926e-08 -1.77716e-09 0 7.01858e-08 0 7.20311e-08)
(6.91549e-08 -2.27537e-09 0 7.39218e-08 0 7.16121e-08)
(6.93312e-08 -2.35757e-09 0 7.38305e-08 0 7.16389e-08)
(6.94888e-08 -2.43339e-09 0 7.37123e-08 0 7.16486e-08)
(6.97366e-08 -2.47945e-09 0 7.35062e-08 0 7.1658e-08)
(6.99652e-08 -2.50463e-09 0 7.33256e-08 0 7.16698e-08)
(7.02395e-08 -2.49208e-09 0 7.3091e-08 0 7.16804e-08)
(7.04721e-08 -2.46996e-09 0 7.28934e-08 0 7.16901e-08)
(7.06839e-08 -2.41095e-09 0 7.26984e-08 0 7.16959e-08)
(7.08356e-08 -2.35189e-09 0 7.25598e-08 0 7.17009e-08)
(7.09332e-08 -2.2752e-09 0 7.24659e-08 0 7.17047e-08)
(7.09807e-08 -2.20988e-09 0 7.24236e-08 0 7.17094e-08)
(7.09766e-08 -2.14941e-09 0 7.2438e-08 0 7.17157e-08)
(7.09365e-08 -2.11215e-09 0 7.24939e-08 0 7.17243e-08)
(7.08618e-08 -2.08876e-09 0 7.25919e-08 0 7.17354e-08)
(7.07941e-08 -2.09139e-09 0 7.26818e-08 0 7.17466e-08)
(7.07186e-08 -2.11224e-09 0 7.2789e-08 0 7.17599e-08)
(7.06878e-08 -2.1575e-09 0 7.28503e-08 0 7.1773e-08)
(7.0662e-08 -2.20197e-09 0 7.29144e-08 0 7.17874e-08)
(7.06958e-08 -2.26378e-09 0 7.29089e-08 0 7.1799e-08)
(7.07625e-08 -2.31948e-09 0 7.28709e-08 0 7.181e-08)
(7.08752e-08 -2.3851e-09 0 7.27751e-08 0 7.18177e-08)
(7.10326e-08 -2.44048e-09 0 7.26355e-08 0 7.18255e-08)
(7.12413e-08 -2.48617e-09 0 7.24359e-08 0 7.18309e-08)
(7.14891e-08 -2.53052e-09 0 7.22063e-08 0 7.1839e-08)
(7.17871e-08 -2.56328e-09 0 7.19223e-08 0 7.18466e-08)
(7.21133e-08 -2.58703e-09 0 7.16183e-08 0 7.1857e-08)
(7.247e-08 -2.59527e-09 0 7.12803e-08 0 7.18673e-08)
(7.28368e-08 -2.59136e-09 0 7.0939e-08 0 7.18805e-08)
(7.32095e-08 -2.57837e-09 0 7.05925e-08 0 7.18949e-08)
(7.35657e-08 -2.55191e-09 0 7.02665e-08 0 7.19112e-08)
(7.39078e-08 -2.49784e-09 0 6.99546e-08 0 7.19284e-08)
(7.4223e-08 -2.41803e-09 0 6.96714e-08 0 7.19462e-08)
(7.44811e-08 -2.32188e-09 0 6.94405e-08 0 7.19616e-08)
(7.46712e-08 -2.21195e-09 0 6.92674e-08 0 7.1972e-08)
(7.47924e-08 -2.09017e-09 0 6.91572e-08 0 7.19781e-08)
(7.48293e-08 -1.97142e-09 0 6.91187e-08 0 7.1978e-08)
(7.47809e-08 -1.83407e-09 0 6.9152e-08 0 7.19706e-08)
(7.46327e-08 -1.70934e-09 0 6.92647e-08 0 7.19546e-08)
(7.44036e-08 -1.57897e-09 0 6.9453e-08 0 7.19342e-08)
(7.41046e-08 -1.47942e-09 0 6.97037e-08 0 7.1911e-08)
(7.37538e-08 -1.3898e-09 0 7.0007e-08 0 7.18874e-08)
(7.33656e-08 -1.32785e-09 0 7.03515e-08 0 7.18658e-08)
(7.29536e-08 -1.28723e-09 0 7.07268e-08 0 7.18474e-08)
(7.25388e-08 -1.27126e-09 0 7.11161e-08 0 7.18342e-08)
(7.21314e-08 -1.27423e-09 0 7.15082e-08 0 7.1826e-08)
(7.17421e-08 -1.29633e-09 0 7.18907e-08 0 7.18224e-08)
(7.1386e-08 -1.33345e-09 0 7.22481e-08 0 7.18228e-08)
(7.10587e-08 -1.38576e-09 0 7.25835e-08 0 7.18265e-08)
(7.07719e-08 -1.44032e-09 0 7.28859e-08 0 7.18331e-08)
(7.05275e-08 -1.49432e-09 0 7.31474e-08 0 7.18409e-08)
(7.03077e-08 -1.55224e-09 0 7.33844e-08 0 7.18492e-08)
(7.01319e-08 -1.60002e-09 0 7.35784e-08 0 7.18576e-08)
(6.9971e-08 -1.6591e-09 0 7.37545e-08 0 7.18653e-08)
(6.98494e-08 -1.70706e-09 0 7.38932e-08 0 7.18731e-08)
(6.97591e-08 -1.76812e-09 0 7.39956e-08 0 7.18794e-08)
(6.96962e-08 -1.82047e-09 0 7.40714e-08 0 7.18853e-08)
(6.96736e-08 -1.88239e-09 0 7.4102e-08 0 7.18893e-08)
(6.96761e-08 -1.94221e-09 0 7.41062e-08 0 7.18925e-08)
(6.97197e-08 -2.00341e-09 0 7.40659e-08 0 7.18939e-08)
(6.97972e-08 -2.06394e-09 0 7.39873e-08 0 7.18935e-08)
(6.99146e-08 -2.11908e-09 0 7.38677e-08 0 7.1892e-08)
(7.00532e-08 -2.16419e-09 0 7.37183e-08 0 7.18877e-08)
(7.02256e-08 -2.20024e-09 0 7.35393e-08 0 7.18841e-08)
(7.04111e-08 -2.2288e-09 0 7.33403e-08 0 7.18787e-08)
(7.06147e-08 -2.24279e-09 0 7.31277e-08 0 7.18743e-08)
(7.08266e-08 -2.2479e-09 0 7.29063e-08 0 7.187e-08)
(7.10387e-08 -2.24402e-09 0 7.2686e-08 0 7.18663e-08)
(7.12462e-08 -2.23241e-09 0 7.24731e-08 0 7.18638e-08)
(7.14494e-08 -2.21999e-09 0 7.22658e-08 0 7.1862e-08)
(7.16449e-08 -2.20424e-09 0 7.20698e-08 0 7.18616e-08)
(7.18368e-08 -2.19166e-09 0 7.188e-08 0 7.18623e-08)
(7.20226e-08 -2.18328e-09 0 7.16982e-08 0 7.18639e-08)
(7.22035e-08 -2.17303e-09 0 7.15238e-08 0 7.18665e-08)
(7.23869e-08 -2.16815e-09 0 7.13478e-08 0 7.18697e-08)
(7.25677e-08 -2.16273e-09 0 7.11747e-08 0 7.18733e-08)
(7.27457e-08 -2.15487e-09 0 7.10053e-08 0 7.18772e-08)
(7.292e-08 -2.14303e-09 0 7.08399e-08 0 7.18814e-08)
(7.30881e-08 -2.12658e-09 0 7.06802e-08 0 7.18856e-08)
(7.32443e-08 -2.09997e-09 0 7.05324e-08 0 7.18897e-08)
(7.33843e-08 -2.07688e-09 0 7.03975e-08 0 7.1893e-08)
(7.35098e-08 -2.03491e-09 0 7.02796e-08 0 7.18965e-08)
(7.36026e-08 -2.00155e-09 0 7.01887e-08 0 7.18981e-08)
(7.36581e-08 -1.94105e-09 0 7.01389e-08 0 7.18998e-08)
(7.37102e-08 -1.88912e-09 0 7.01038e-08 0 7.19043e-08)
(7.37058e-08 -1.83946e-09 0 7.01062e-08 0 7.19024e-08)
(7.36753e-08 -1.75491e-09 0 7.01965e-08 0 7.19171e-08)
(6.9232e-08 -2.40922e-09 0 7.42184e-08 0 7.1717e-08)
(6.9397e-08 -2.51276e-09 0 7.4075e-08 0 7.17257e-08)
(6.95609e-08 -2.61262e-09 0 7.39028e-08 0 7.17216e-08)
(6.979e-08 -2.66291e-09 0 7.3664e-08 0 7.17157e-08)
(7.00215e-08 -2.69178e-09 0 7.34334e-08 0 7.17132e-08)
(7.02816e-08 -2.67632e-09 0 7.31728e-08 0 7.17107e-08)
(7.05277e-08 -2.63883e-09 0 7.29337e-08 0 7.17105e-08)
(7.07277e-08 -2.56385e-09 0 7.27305e-08 0 7.17083e-08)
(7.08749e-08 -2.48198e-09 0 7.25869e-08 0 7.17084e-08)
(7.09695e-08 -2.38129e-09 0 7.24933e-08 0 7.17085e-08)
(7.10088e-08 -2.29897e-09 0 7.2456e-08 0 7.17098e-08)
(7.09921e-08 -2.2222e-09 0 7.24713e-08 0 7.1711e-08)
(7.09311e-08 -2.18304e-09 0 7.25281e-08 0 7.17128e-08)
(7.08426e-08 -2.15221e-09 0 7.26239e-08 0 7.1718e-08)
(7.07642e-08 -2.1619e-09 0 7.27077e-08 0 7.17238e-08)
(7.06804e-08 -2.18146e-09 0 7.28003e-08 0 7.17301e-08)
(7.06307e-08 -2.24806e-09 0 7.28542e-08 0 7.1736e-08)
(7.05981e-08 -2.29527e-09 0 7.29024e-08 0 7.17439e-08)
(7.063e-08 -2.37756e-09 0 7.28772e-08 0 7.17497e-08)
(7.06928e-08 -2.44438e-09 0 7.28242e-08 0 7.17553e-08)
(7.08052e-08 -2.52796e-09 0 7.27133e-08 0 7.17588e-08)
(7.09581e-08 -2.59787e-09 0 7.25692e-08 0 7.17637e-08)
(7.11702e-08 -2.65309e-09 0 7.236e-08 0 7.17669e-08)
(7.14196e-08 -2.70715e-09 0 7.2128e-08 0 7.1774e-08)
(7.17202e-08 -2.75248e-09 0 7.18398e-08 0 7.17801e-08)
(7.20445e-08 -2.78308e-09 0 7.15397e-08 0 7.17902e-08)
(7.24018e-08 -2.79188e-09 0 7.12022e-08 0 7.17998e-08)
(7.27689e-08 -2.77744e-09 0 7.0862e-08 0 7.18118e-08)
(7.31404e-08 -2.7618e-09 0 7.05145e-08 0 7.1824e-08)
(7.3498e-08 -2.74201e-09 0 7.01845e-08 0 7.18381e-08)
(7.38427e-08 -2.66322e-09 0 6.98721e-08 0 7.18544e-08)
(7.41633e-08 -2.56679e-09 0 6.95886e-08 0 7.18718e-08)
(7.44342e-08 -2.47586e-09 0 6.93504e-08 0 7.18871e-08)
(7.4634e-08 -2.35391e-09 0 6.91698e-08 0 7.18971e-08)
(7.476e-08 -2.19518e-09 0 6.90555e-08 0 7.19028e-08)
(7.48036e-08 -2.05089e-09 0 6.90093e-08 0 7.19024e-08)
(7.47572e-08 -1.87665e-09 0 6.90422e-08 0 7.18958e-08)
(7.46083e-08 -1.7245e-09 0 6.91594e-08 0 7.1882e-08)
(7.43795e-08 -1.55983e-09 0 6.93559e-08 0 7.18659e-08)
(7.40771e-08 -1.43968e-09 0 6.96197e-08 0 7.18477e-08)
(7.37261e-08 -1.33009e-09 0 6.99349e-08 0 7.18302e-08)
(7.33342e-08 -1.25537e-09 0 7.02955e-08 0 7.18148e-08)
(7.29203e-08 -1.2058e-09 0 7.06856e-08 0 7.18029e-08)
(7.25025e-08 -1.18676e-09 0 7.10899e-08 0 7.17957e-08)
(7.20911e-08 -1.19273e-09 0 7.14965e-08 0 7.17928e-08)
(7.17006e-08 -1.22008e-09 0 7.189e-08 0 7.17941e-08)
(7.13441e-08 -1.26454e-09 0 7.22561e-08 0 7.17988e-08)
(7.10134e-08 -1.3228e-09 0 7.2602e-08 0 7.18065e-08)
(7.07337e-08 -1.37764e-09 0 7.29039e-08 0 7.18165e-08)
(7.04899e-08 -1.44707e-09 0 7.31689e-08 0 7.18267e-08)
(7.02744e-08 -1.51615e-09 0 7.34054e-08 0 7.18369e-08)
(7.01005e-08 -1.57501e-09 0 7.36003e-08 0 7.18469e-08)
(6.99388e-08 -1.64505e-09 0 7.37802e-08 0 7.18563e-08)
(6.98172e-08 -1.70102e-09 0 7.3922e-08 0 7.18656e-08)
(6.97291e-08 -1.77479e-09 0 7.40243e-08 0 7.1873e-08)
(6.96649e-08 -1.83841e-09 0 7.41037e-08 0 7.188e-08)
(6.96432e-08 -1.91346e-09 0 7.41351e-08 0 7.18849e-08)
(6.96489e-08 -1.9872e-09 0 7.41369e-08 0 7.18886e-08)
(6.9692e-08 -2.06316e-09 0 7.40984e-08 0 7.18907e-08)
(6.97702e-08 -2.13816e-09 0 7.40205e-08 0 7.1891e-08)
(6.98931e-08 -2.20701e-09 0 7.38971e-08 0 7.18901e-08)
(7.00337e-08 -2.26284e-09 0 7.37463e-08 0 7.18862e-08)
(7.0211e-08 -2.30679e-09 0 7.35638e-08 0 7.1883e-08)
(7.04018e-08 -2.34172e-09 0 7.33591e-08 0 7.18775e-08)
(7.061e-08 -2.36105e-09 0 7.3142e-08 0 7.18731e-08)
(7.08244e-08 -2.36569e-09 0 7.29179e-08 0 7.18687e-08)
(7.10413e-08 -2.3597e-09 0 7.26918e-08 0 7.18646e-08)
(7.12496e-08 -2.34789e-09 0 7.24768e-08 0 7.18616e-08)
(7.14522e-08 -2.33017e-09 0 7.22695e-08 0 7.18595e-08)
(7.16483e-08 -2.31254e-09 0 7.20721e-08 0 7.18588e-08)
(7.18381e-08 -2.29706e-09 0 7.18839e-08 0 7.18593e-08)
(7.20223e-08 -2.28403e-09 0 7.17034e-08 0 7.18607e-08)
(7.2204e-08 -2.27479e-09 0 7.1527e-08 0 7.18629e-08)
(7.23856e-08 -2.26762e-09 0 7.13516e-08 0 7.18658e-08)
(7.25664e-08 -2.26069e-09 0 7.11778e-08 0 7.18692e-08)
(7.2746e-08 -2.24984e-09 0 7.10063e-08 0 7.1873e-08)
(7.29218e-08 -2.23599e-09 0 7.08382e-08 0 7.18769e-08)
(7.30914e-08 -2.21401e-09 0 7.06756e-08 0 7.18807e-08)
(7.32502e-08 -2.18012e-09 0 7.05241e-08 0 7.18844e-08)
(7.33917e-08 -2.15242e-09 0 7.03864e-08 0 7.18874e-08)
(7.35186e-08 -2.09827e-09 0 7.02658e-08 0 7.18903e-08)
(7.36107e-08 -2.05877e-09 0 7.0174e-08 0 7.18914e-08)
(7.36763e-08 -1.99224e-09 0 7.01069e-08 0 7.18914e-08)
(7.37055e-08 -1.93794e-09 0 7.00681e-08 0 7.18886e-08)
(7.37129e-08 -1.89113e-09 0 7.00395e-08 0 7.1882e-08)
(7.36549e-08 -1.76652e-09 0 7.00569e-08 0 7.18698e-08)
(6.91279e-08 -2.51183e-09 0 7.4094e-08 0 7.16615e-08)
(6.93174e-08 -2.64292e-09 0 7.39556e-08 0 7.16774e-08)
(6.94841e-08 -2.75986e-09 0 7.38085e-08 0 7.16799e-08)
(6.97331e-08 -2.83692e-09 0 7.35781e-08 0 7.1681e-08)
(6.99897e-08 -2.85194e-09 0 7.33378e-08 0 7.16806e-08)
(7.02655e-08 -2.84414e-09 0 7.30717e-08 0 7.16797e-08)
(7.05195e-08 -2.79032e-09 0 7.28298e-08 0 7.16794e-08)
(7.0724e-08 -2.70231e-09 0 7.26231e-08 0 7.16761e-08)
(7.08781e-08 -2.59682e-09 0 7.24657e-08 0 7.16729e-08)
(7.09602e-08 -2.47793e-09 0 7.2378e-08 0 7.167e-08)
(7.09913e-08 -2.37198e-09 0 7.23429e-08 0 7.16686e-08)
(7.09608e-08 -2.27699e-09 0 7.23816e-08 0 7.16713e-08)
(7.0899e-08 -2.22435e-09 0 7.24504e-08 0 7.16751e-08)
(7.07985e-08 -2.18849e-09 0 7.25662e-08 0 7.1682e-08)
(7.07081e-08 -2.2015e-09 0 7.26763e-08 0 7.1691e-08)
(7.06197e-08 -2.23435e-09 0 7.27936e-08 0 7.17026e-08)
(7.05683e-08 -2.31676e-09 0 7.28712e-08 0 7.17142e-08)
(7.0546e-08 -2.38219e-09 0 7.29278e-08 0 7.17273e-08)