/*--------------------------------*- C++ -*----------------------------------*\
| =========                 |                                                 |
| \\      /  F ield         | OpenFOAM: The Open Source CFD Toolbox           |
|  \\    /   O peration     | Version:  v1912                                 |
|   \\  /    A nd           | Website:  www.openfoam.com                      |
|    \\/     M anipulation  |                                                 |
\*---------------------------------------------------------------------------*/
FoamFile
{
    version     2.0;
    format      ascii;
    class       volScalarField;
    location    "70";
    object      alpha.water;
}
// * * * * * * * * * * * * * * * * * * * * * * * * * * * * * * * * * * * * * //

dimensions      [0 0 0 0 0 0 0];


internalField   nonuniform List<scalar> 
14268
(
1
1
1
1
1
1
1
1
1
1
1
1
1
1
1
1
1
1
1
1
1
1
1
1
1
1
1
1
1
1
1
1
1
1
1
1
1
1
1
1
1
1
1
1
1
1
1
1
1
1
1
1
1
1
1
1
1
1
1
1
1
1
1
1
1
1
1
1
1
1
1
1
1
1
1
1
1
1
1
1
1
1
1
1
1
1
1
1
1
1
1
1
1
1
1
1
1
1
1
1
1
1
1
1
1
1
1
1
1
1
1
1
1
1
1
1
1
1
1
1
1
1
1
1
1
1
1
1
1
1
1
1
1
1
1
1
1
1
1
1
1
1
1
1
1
1
1
1
1
1
1
1
1
1
1
1
1
1
1
1
1
1
1
1
1
1
1
1
1
1
1
1
1
1
1
1
1
1
1
1
1
1
1
1
1
1
1
1
1
1
1
1
1
1
1
1
1
1
1
1
1
1
1
1
1
1
1
1
1
1
1
1
1
1
1
1
1
1
1
1
1
1
1
1
1
1
1
1
1
1
1
1
1
1
1
1
1
1
1
1
1
1
1
1
1
1
1
1
1
1
1
1
1
1
1
1
1
1
1
1
1
1
1
1
1
1
1
1
1
1
1
1
1
1
1
1
1
1
1
1
1
1
1
1
1
1
1
1
1
1
1
1
1
1
1
1
1
1
1
1
1
1
1
1
1
1
1
1
1
1
1
1
1
1
1
1
1
1
1
1
1
1
1
1
1
1
1
1
1
1
1
1
1
1
1
1
1
1
1
1
1
1
1
1
1
1
1
1
1
1
1
1
1
1
1
1
1
1
1
1
1
1
1
1
1
1
1
1
1
1
1
1
1
1
1
1
1
1
1
1
1
1
1
1
1
1
1
1
1
1
1
1
1
1
1
1
1
1
1
1
1
1
1
1
1
1
1
1
1
1
1
1
1
1
1
1
1
1
1
1
1
1
1
1
1
1
1
1
1
1
1
1
1
1
1
1
1
1
1
1
1
1
1
1
1
1
1
1
1
1
1
1
1
1
1
1
1
1
1
1
1
1
1
1
1
1
1
1
1
1
1
1
1
1
1
1
1
1
1
1
1
1
1
1
1
1
1
1
1
1
1
1
1
1
1
1
1
1
1
1
1
1
1
1
1
1
1
1
1
1
1
1
1
1
1
1
1
1
1
1
1
1
1
1
1
1
1
1
1
1
1
1
1
1
1
1
1
1
1
1
1
1
1
1
1
1
1
1
1
1
1
1
1
1
1
1
1
1
1
1
1
1
1
1
1
1
1
1
1
1
1
1
1
1
1
1
1
1
1
1
1
1
1
1
1
1
1
1
1
1
1
1
1
1
1
1
1
1
1
1
1
1
1
1
1
1
1
1
1
1
1
1
1
1
1
1
1
1
1
1
1
1
1
1
1
1
1
1
1
1
1
1
1
1
1
1
1
1
1
1
1
1
1
1
1
1
1
1
1
1
1
1
1
1
1
1
1
1
1
1
1
1
1
1
1
1
1
1
1
1
1
1
1
1
1
1
1
1
1
1
1
1
1
1
1
1
1
1
1
1
1
1
1
1
1
1
1
1
1
1
1
1
1
1
1
1
1
1
1
1
1
1
1
1
1
1
1
1
1
1
1
1
1
1
1
1
1
1
1
1
1
1
1
1
1
1
1
1
1
1
1
1
1
1
1
1
1
1
1
1
1
1
1
1
1
1
1
1
1
1
1
1
1
1
1
1
1
1
1
1
1
1
1
1
1
1
1
1
1
1
1
1
1
1
1
1
1
1
1
1
1
1
1
1
1
1
1
1
1
1
1
1
1
1
1
1
1
1
1
1
1
1
1
1
1
1
1
1
1
1
1
1
1
1
1
1
1
1
1
1
1
1
1
1
1
1
1
1
1
1
1
1
1
1
1
1
1
1
1
1
1
1
1
1
1
1
1
1
1
1
1
1
1
1
1
1
1
1
1
1
1
1
1
1
1
1
1
1
1
1
1
1
1
1
1
1
1
1
1
1
1
1
1
1
1
1
1
1
1
1
1
1
1
1
1
1
1
1
1
1
1
1
1
1
1
1
1
1
1
1
1
1
1
1
1
1
1
1
1
1
1
1
1
1
1
1
1
1
1
1
1
1
1
1
1
1
1
1
1
1
1
1
1
1
1
1
1
1
1
1
1
1
1
1
1
1
1
1
1
1
1
1
1
1
1
1
1
1
1
1
1
1
1
1
1
1
1
1
1
1
1
1
1
1
1
1
1
1
1
1
1
1
1
1
1
1
1
1
1
1
1
1
1
1
1
1
1
1
1
1
1
1
1
1
1
1
1
1
1
1
1
1
1
1
1
1
1
1
1
1
1
1
1
1
1
1
1
1
1
1
1
1
1
1
1
1
1
1
1
1
1
1
1
1
1
1
1
1
1
1
1
1
1
1
1
1
1
1
1
1
1
1
1
1
1
1
1
1
1
1
1
1
1
1
1
1
1
1
1
1
1
1
1
1
1
1
1
1
1
1
1
1
1
1
1
1
1
1
1
1
1
1
1
1
1
1
1
1
1
1
1
1
1
1
1
1
1
1
1
1
1
1
1
1
1
1
1
1
1
1
1
1
1
1
1
1
1
1
1
1
1
1
1
1
1
1
1
1
1
1
1
1
1
1
1
1
1
1
1
1
1
1
1
1
1
1
1
1
1
1
1
1
1
1
1
1
1
1
1
1
1
1
1
1
1
1
1
1
1
1
1
1
1
1
1
1
1
1
1
1
1
1
1
1
1
1
1
1
1
1
1
1
1
1
1
1
1
1
1
1
1
1
1
1
1
1
1
1
1
1
1
1
1
1
1
1
1
1
1
1
1
1
1
1
1
1
1
1
1
1
1
1
1
1
1
1
1
1
1
1
1
1
1
1
1
1
1
1
1
1
1
1
1
1
1
1
1
1
1
1
1
1
1
1
1
1
1
1
1
1
1
1
1
1
1
1
1
1
1
1
1
1
1
1
1
1
1
1
1
1
1
1
1
1
1
1
1
1
1
1
1
1
1
1
1
1
1
1
1
1
1
1
1
1
1
1
1
1
1
1
1
1
1
1
1
1
1
1
1
1
1
1
1
1
1
1
1
1
1
1
1
1
1
1
1
1
1
1
1
1
1
1
1
1
1
1
1
1
1
1
1
1
1
1
1
1
1
1
1
1
1
1
1
1
1
1
1
1
1
1
1
1
1
1
1
1
1
1
1
1
1
1
1
1
1
1
1
1
1
1
1
1
1
1
1
1
1
1
1
1
1
1
1
1
1
1
1
1
1
1
1
1
1
1
1
1
1
1
1
1
1
1
1
1
1
1
1
1
1
1
1
1
1
1
1
1
1
1
1
1
1
1
1
1
1
1
1
1
1
1
1
1
1
1
1
1
1
1
1
1
1
1
1
1
1
1
1
1
1
1
1
1
1
1
1
1
1
1
1
1
1
1
1
1
1
1
1
1
1
1
1
1
1
1
1
1
1
1
1
1
1
1
1
1
1
1
1
1
1
1
1
1
1
1
1
1
1
1
1
1
1
1
1
1
1
1
1
1
1
1
1
1
1
1
1
1
1
1
1
1
1
1
1
1
1
1
1
1
1
1
1
1
1
1
1
1
1
1
1
1
1
1
1
1
1
1
1
1
1
1
1
1
1
1
1
1
1
1
1
1
1
1
1
1
1
1
1
1
1
1
1
1
1
1
1
1
1
1
1
1
1
1
1
1
1
1
1
1
1
1
1
1
1
1
1
1
1
1
1
1
1
1
1
1
1
1
1
1
1
1
1
1
1
1
1
1
1
1
1
1
1
1
1
1
1
1
1
1
1
1
1
1
1
1
1
1
1
1
1
1
1
1
1
1
1
1
1
1
1
1
1
1
1
1
1
1
1
1
1
1
1
1
1
1
1
1
1
1
1
1
1
1
1
1
1
1
1
1
1
1
1
1
1
1
1
1
1
1
1
1
1
1
1
1
1
1
1
1
1
1
1
1
1
1
1
1
1
1
1
1
1
1
1
1
1
1
1
1
1
1
1
1
1
1
1
1
1
1
1
1
1
1
1
1
1
1
1
1
1
1
1
1
1
1
1
1
1
1
1
1
1
1
1
1
1
1
1
1
1
1
1
1
1
1
1
1
1
1
1
1
1
1
1
1
1
1
1
1
1
1
1
1
1
1
1
1
1
1
1
1
1
1
1
1
1
1
1
1
1
1
1
1
1
1
1
1
1
1
1
1
1
1
1
1
1
1
1
1
1
1
1
1
1
1
1
1
1
1
1
1
1
1
1
1
1
1
1
1
1
1
1
1
1
1
1
1
1
1
1
1
1
1
1
1
1
1
1
1
1
1
1
1
1
1
1
1
1
1
1
1
1
1
1
1
1
1
1
1
1
1
1
1
1
1
1
1
1
1
1
1
1
1
1
1
1
1
1
1
1
1
1
1
1
1
1
1
1
1
1
1
1
1
1
1
1
1
1
1
1
1
1
1
1
1
1
1
1
1
1
1
1
1
1
1
1
1
1
1
1
1
1
1
1
1
1
1
1
1
1
1
1
1
1
1
1
1
1
1
1
1
1
1
1
1
1
1
1
1
1
1
1
1
1
1
1
1
1
1
1
1
1
1
1
1
1
1
1
1
1
1
1
1
1
1
1
1
1
1
1
1
1
1
1
1
1
1
1
1
1
1
1
1
1
1
1
1
1
1
1
1
1
1
1
1
1
1
1
1
1
1
1
1
1
1
1
1
1
1
1
1
1
1
1
1
1
1
1
1
1
1
1
1
1
1
1
1
1
1
1
1
1
1
1
1
1
1
1
1
1
1
1
1
1
1
1
1
1
1
1
1
1
1
1
1
1
1
1
1
1
1
1
1
1
1
1
1
1
1
1
1
1
1
1
1
1
1
1
1
1
1
1
1
1
1
1
1
1
1
1
1
1
1
1
1
1
1
1
1
1
1
1
1
1
1
1
1
1
1
1
1
1
1
1
1
1
1
1
1
1
1
1
1
1
1
1
1
1
1
1
1
1
1
1
1
1
1
1
1
1
1
1
1
1
1
1
1
1
1
1
1
1
1
1
1
1
1
1
1
1
1
1
1
1
1
1
1
1
1
1
1
1
1
1
1
1
1
1
1
1
1
1
1
1
1
1
1
1
1
1
1
1
1
1
1
1
1
1
1
1
1
1
1
1
1
1
1
1
1
1
1
1
1
1
1
1
1
1
1
1
1
1
1
1
1
1
1
1
1
1
1
1
1
1
1
1
1
1
1
1
1
1
1
1
1
1
1
1
1
1
1
1
1
1
1
1
1
1
1
1
1
1
1
1
1
1
1
1
1
1
1
1
1
1
1
1
1
1
1
1
1
1
1
1
1
1
1
1
1
1
1
1
1
1
1
1
1
1
1
1
1
1
1
1
1
1
1
1
1
1
1
1
1
1
1
1
1
1
1
1
1
1
1
1
1
1
1
1
1
1
1
1
1
1
1
1
1
1
1
1
1
1
1
1
1
1
1
1
1
1
1
1
1
1
1
1
1
1
1
1
1
1
1
1
1
1
1
1
1
1
1
1
1
1
1
1
1
1
1
1
1
1
1
1
1
1
1
1
1
1
1
1
1
1
1
1
1
1
1
1
1
1
1
1
1
1
1
1
1
1
1
1
1
1
1
1
1
1
1
1
1
1
1
1
1
1
1
1
1
1
1
1
1
1
1
1
1
1
1
1
1
1
1
1
1
1
1
1
1
1
1
1
1
1
1
1
1
1
1
1
1
1
1
1
1
1
1
1
1
1
1
1
1
1
1
1
1
1
1
1
1
1
1
1
1
1
1
1
1
1
1
1
1
1
1
1
1
1
1
1
1
1
1
1
1
1
1
1
1
1
1
1
1
1
1
1
1
1
1
1
1
1
1
1
1
1
1
1
1
1
1
1
1
1
1
1
1
1
1
1
1
1
1
1
1
1
1
1
1
1
1
1
1
1
1
1
1
1
1
1
1
1
1
1
1
1
1
1
1
1
1
1
1
1
1
1
1
1
1
1
1
1
1
1
1
1
1
1
1
1
1
1
1
1
1
1
1
1
1
1
1
1
1
1
1
1
1
1
1
1
1
1
1
1
1
1
1
1
1
1
1
1
1
1
1
1
1
1
1
1
1
1
1
1
1
1
1
1
1
1
1
1
1
1
1
1
1
1
1
1
1
1
1
1
1
1
1
1
1
1
1
1
1
1
1
1
1
1
1
1
1
1
1
1
1
1
1
1
1
1
1
1
1
1
1
1
1
1
1
1
1
1
1
1
1
1
1
1
1
1
1
1
1
1
1
1
1
1
1
1
1
1
1
1
1
1
1
1
1
1
1
1
1
1
1
1
1
1
1
1
1
1
1
1
1
1
1
1
1
1
1
1
1
1
1
1
1
1
1
1
1
1
1
1
1
1
1
1
1
1
1
1
1
1
1
1
1
1
1
1
1
1
1
1
1
1
1
1
1
1
1
1
1
1
1
1
1
1
1
1
1
1
1
1
1
1
1
1
1
1
1
1
1
1
1
1
1
1
1
1
1
1
1
1
1
1
1
1
1
1
1
1
1
1
1
1
1
1
1
1
1
1
1
1
1
1
1
1
1
1
1
1
1
1
1
1
1
1
1
1
1
1
1
1
1
1
1
1
1
1
1
1
1
1
1
1
1
1
1
1
1
1
1
1
1
1
1
1
1
1
1
1
1
1
1
1
1
1
1
1
1
1
1
1
1
1
1
1
1
1
1
1
1
1
1
1
1
1
1
1
1
1
1
1
1
1
1
1
1
1
1
1
1
1
1
1
1
1
1
1
1
1
1
1
1
1
1
1
1
1
1
1
1
1
1
1
1
1
1
1
1
1
1
1
1
1
1
1
1
1
1
1
1
1
1
1
1
1
1
1
1
1
1
1
1
1
1
1
1
1
1
1
1
1
1
1
1
1
1
1
1
1
1
1
1
1
1
1
1
1
1
1
1
1
1
1
1
1
1
1
1
1
1
1
1
1
1
1
1
1
1
1
1
1
1
1
1
1
1
1
1
1
1
1
1
1
1
1
1
1
1
1
1
1
1
1
1
1
1
1
1
1
1
1
1
1
1
1
1
1
1
1
1
1
1
1
1
1
1
1
1
1
1
1
1
1
1
1
1
1
1
1
1
1
1
1
1
1
1
1
1
1
1
1
1
1
1
1
1
1
1
1
1
1
1
1
1
1
1
1
1
1
1
1
1
1
1
1
1
1
1
1
1
1
1
1
1
1
1
1
1
1
1
1
1
1
1
1
1
1
1
1
1
1
1
1
1
1
1
1
1
1
1
1
1
1
1
1
1
1
1
1
1
1
1
1
1
1
1
1
1
1
1
1
1
1
1
1
1
1
1
1
1
1
1
1
1
1
1
1
1
1
1
1
1
1
1
1
1
1
1
1
1
1
1
1
1
1
1
1
1
1
1
1
1
1
1
1
1
1
1
1
1
1
1
1
1
1
1
1
1
1
1
1
1
1
1
1
1
1
1
1
1
1
1
1
1
1
1
1
1
1
1
1
1
1
1
1
1
1
1
1
1
1
1
1
1
1
1
1
1
1
1
1
1
1
1
1
1
1
1
1
1
1
1
1
1
1
1
1
1
1
1
1
1
1
1
1
1
1
1
1
1
1
1
1
1
1
1
1
1
1
1
1
1
1
1
1
1
1
1
1
1
1
1
1
1
1
1
1
1
1
1
1
1
1
1
1
1
1
1
1
1
1
1
1
1
1
1
1
1
1
1
1
1
1
1
1
1
1
1
1
1
1
1
1
1
1
1
1
1
1
1
1
1
1
1
1
1
1
1
1
1
1
1
1
1
1
1
1
1
1
1
1
1
1
1
1
1
1
1
1
1
1
1
1
1
1
1
1
1
1
1
1
1
1
1
1
1
1
1
1
1
1
1
1
1
1
1
1
1
1
1
1
1
1
1
1
1
1
1
1
1
1
1
1
1
1
1
1
1
1
1
1
1
1
1
1
1
1
1
1
1
1
1
1
1
1
1
1
1
1
1
1
1
1
1
1
1
1
1
1
1
1
1
1
1
1
1
1
1
1
1
1
1
1
1
1
1
1
1
1
1
1
1
1
1
1
1
1
1
1
1
1
1
1
1
1
1
1
1
1
1
1
1
1
1
1
1
1
1
1
1
1
1
1
1
1
1
1
1
1
1
1
1
1
1
1
1
1
1
1
1
1
1
1
1
1
1
1
1
1
1
1
1
1
1
1
1
1
1
1
1
1
1
1
1
1
1
1
1
1
1
1
1
1
1
1
1
1
1
1
1
1
1
1
1
1
1
1
1
1
1
1
1
1
1
1
1
1
1
1
1
1
1
1
1
1
1
1
1
1
1
1
1
1
1
1
1
1
1
1
1
1
1
1
1
1
1
1
1
1
1
1
1
1
1
1
1
1
1
1
1
1
1
1
1
1
1
1
1
1
1
1
1
1
1
1
1
1
1
1
1
1
1
1
1
1
1
1
1
1
1
1
1
1
1
1
1
1
1
1
1
1
1
1
1
1
1
1
1
1
1
1
1
1
1
1
1
1
1
1
1
1
1
1
1
1
1
1
1
1
1
1
1
1
1
1
1
1
1
1
1
1
1
1
1
1
1
1
1
1
1
1
1
1
1
1
1
1
1
1
1
1
1
1
1
1
1
1
1
1
1
1
1
1
1
1
1
1
1
1
1
1
1
1
1
1
1
1
1
1
1
1
1
1
1
1
1
1
1
1
1
1
1
1
1
1
1
1
1
1
1
1
1
1
1
1
1
1
1
1
1
1
1
1
1
1
1
1
1
1
1
1
1
1
1
1
1
1
1
1
1
1
1
1
1
1
1
1
1
1
1
1
1
1
1
1
1
1
1
1
1
1
1
1
1
1
1
1
1
1
1
1
1
1
1
1
1
1
1
1
1
1
1
1
1
1
1
1
1
1
1
1
1
1
1
1
1
1
1
1
1
1
1
1
1
1
1
1
1
1
1
1
1
1
1
1
1
1
1
1
1
1
1
1
1
1
1
1
1
1
1
1
1
1
1
1
1
1
1
1
1
1
1
1
1
1
1
1
1
1
1
1
1
1
1
1
1
1
1
1
1
1
1
1
1
1
1
1
1
1
1
1
1
1
1
1
1
1
1
1
1
1
1
1
1
1
1
1
1
1
1
1
1
1
1
1
1
1
1
1
1
1
1
1
1
1
1
1
1
1
1
1
1
1
1
1
1
1
1
1
1
1
1
1
1
1
1
1
1
1
1
1
1
1
1
1
1
1
1
1
1
1
1
1
1
1
1
1
1
1
1
1
1
1
1
1
1
1
1
1
1
1
1
1
1
1
1
1
1
1
1
1
1
1
1
1
1
1
1
1
1
1
1
1
1
1
1
1
1
1
1
1
1
1
1
1
1
1
1
1
1
1
1
1
1
1
1
1
1
1
1
1
1
1
1
1
1
1
1
1
1
1
1
1
1
1
1
1
1
1
1
1
1
1
1
1
1
1
1
1
1
1
1
1
1
1
1
1
1
1
1
1
1
1
1
1
1
1
1
1
1
1
1
1
1
1
1
1
1
1
1
1
1
1
1
1
1
1
1
1
1
1
1
1
1
1
1
1
1
1
1
1
1
1
1
1
1
1
1
1
1
1
1
1
1
1
1
1
1
1
1
1
1
1
1
1
1
1
1
1
1
1
1
1
1
1
1
1
1
1
1
1
1
1
1
1
1
1
1
1
1
1
1
1
1
1
1
1
1
1
0.999999
0.999998
0.999996
0.999991
0.99998
0.999956
0.999904
0.999799
0.999594
0.999214
0.998537
0.997375
0.995455
0.992406
0.987801
0.981306
0.972852
0.962734
0.951638
0.940555
0.930624
0.922882
0.918192
0.916952
0.919133
0.924306
0.932085
0.941901
0.953072
0.964813
0.976237
0.986376
0.994244
0.998914
1
1
1
1
1
1
1
1
1
1
1
1
1
1
1
1
1
1
1
1
1
1
1
1
1
1
1
1
1
1
1
1
1
1
1
1
1
1
1
1
1
1
1
1
1
1
1
0.939045
0.941131
0.944395
0.948222
0.953483
0.959827
0.967253
0.975378
0.983665
0.991309
0.997211
0.999949
1
1
1
1
1
1
1
1
1
1
1
1
1
1
1
1
1
1
1
1
1
1
1
1
1
1
1
1
1
1
1
1
1
1
1
1
1
0.999999
0.999999
0.999997
0.999994
0.999986
0.999969
0.999928
0.999835
0.999633
0.999201
0.998296
0.996417
0.992501
0.984406
0.968652
0.940641
0.895369
0.829536
0.747914
0.669823
0.599967
0.540009
0.490655
0.451892
0.42321
0.403775
0.392934
0.39008
0.395677
0.409189
0.430435
0.459125
0.494924
0.537374
0.585782
0.639034
0.695346
0.75182
0.804206
0.847547
0.886765
0.921887
0.951906
0.975606
0.991708
0.999332
1
1
1
1
1
1
1
1
1
1
1
1
1
1
1
1
1
1
1
1
1
1
1
1
0.999999
0.999999
0.999999
1
1
1
1
0.999999
0.999999
0.999998
0.999997
0.999994
0.999988
0.999976
0.999952
0.456173
0.462276
0.471691
0.483456
0.500469
0.522338
0.550214
0.584541
0.625552
0.673281
0.727054
0.783358
0.834593
0.881569
0.925045
0.962054
0.988444
0.999761
1
1
1
1
1
1
1
1
1
1
1
1
1
1
1
1
1
1
1
1
1
1
1
1
1
1
1
1
0.999999
0.999998
0.999997
0.999993
0.999985
0.999965
0.99992
0.999814
0.999567
0.998991
0.997642
0.994383
0.986104
0.965516
0.91893
0.825861
0.687694
0.547248
0.415927
0.302847
0.21609
0.158471
0.116585
0.08541
0.0626001
0.0463073
0.0350292
0.0275662
0.0230004
0.0207178
0.0202381
0.0208384
0.0223319
0.0248811
0.0287632
0.034429
0.0425796
0.054262
0.0710336
0.0952039
0.130045
0.179677
0.245653
0.320642
0.402859
0.490965
0.582785
0.674653
0.760228
0.829158
0.882591
0.927211
0.962217
0.986297
0.998382
0.999993
0.999993
0.999992
0.999992
0.999992
0.999992
0.999992
0.999992
0.999993
0.999993
0.999993
0.999993
0.999993
0.999993
0.999993
0.999993
0.999993
0.999992
0.999991
0.99999
0.999991
0.999993
0.999994
0.999994
0.999992
0.999988
0.999981
0.999967
0.99994
0.999886
0.999775
0.999557
0.999113
0.0295559
0.0304589
0.0317764
0.0336651
0.0365826
0.0406922
0.0466405
0.0552177
0.0676645
0.0862024
0.114669
0.158931
0.226217
0.311853
0.412871
0.527968
0.652461
0.772744
0.863104
0.932142
0.979828
0.999596
0.999999
0.999999
0.999999
0.999999
0.999999
0.999999
0.999999
0.999999
0.999999
0.999999
0.999999
0.999999
0.999999
0.999999
0.999999
0.999999
0.999999
0.999999
0.999999
0.999999
0.999999
0.999998
0.999997
0.999995
0.999991
0.999982
0.999962
0.999918
0.999817
0.999577
0.998997
0.997554
0.993727
0.982719
0.951529
0.871774
0.712335
0.529055
0.35353
0.212878
0.125541
0.0658091
0.0274595
0.00728145
0.000879322
0.000798572
0.00081463
0.000820827
0.000819049
0.000813153
0.000804968
0.000796128
0.000787864
0.000780308
0.000774627
0.000794666
0.000844693
0.000929503
0.00105784
0.0012439
0.00151197
0.00189684
0.00245413
0.0032745
0.00450862
0.00640677
0.00937589
0.0140665
0.0215718
0.0337008
0.053417
0.0853838
0.136504
0.215051
0.311837
0.41686
0.527147
0.638073
0.741627
0.824314
0.884673
0.932991
0.968874
0.991286
0.999754
0.999912
0.99991
0.99991
0.999911
0.999913
0.999914
0.999916
0.999917
0.999917
0.999915
0.999912
0.999908
0.999904
0.9999
0.999906
0.999917
0.999921
0.999914
0.999889
0.999839
0.999743
0.999561
0.999201
0.998463
0.996895
0.993406
0.985102
0.00121398
0.00124313
0.00127981
0.00134527
0.00144368
0.0015801
0.00178048
0.00206916
0.00248931
0.00312713
0.00413183
0.00578007
0.00860576
0.0136403
0.0229898
0.0410462
0.076825
0.148101
0.274678
0.430827
0.602472
0.766287
0.8788
0.954241
0.994526
0.999993
0.999993
0.999993
0.999993
0.999993
0.999993
0.999993
0.999993
0.999993
0.999993
0.999993
0.999993
0.999993
0.999993
0.999993
0.999992
0.99999
0.999987
0.999981
0.999969
0.999945
0.999898
0.999795
0.999567
0.999032
0.997712
0.994164
0.983499
0.950736
0.858543
0.671025
0.45945
0.26581
0.138506
0.0592295
0.0142328
8.71649e-05
3.21512e-05
3.37301e-05
3.43968e-05
3.43953e-05
3.43378e-05
3.4315e-05
3.39245e-05
3.36818e-05
3.32403e-05
3.28722e-05
3.25256e-05
3.20552e-05
3.17201e-05
3.13394e-05
3.11132e-05
3.18697e-05
3.38837e-05
3.7371e-05
4.27104e-05
5.03922e-05
6.16832e-05
7.79507e-05
0.0001018
0.000136821
0.000188964
0.000266114
0.00037887
0.000544597
0.000797282
0.00119731
0.00185045
0.00293151
0.00474958
0.00788682
0.0134017
0.0231434
0.0403786
0.0706051
0.122435
0.207042
0.315439
0.432176
0.552686
0.670687
0.775065
0.850674
0.907438
0.950813
0.980382
0.995918
0.999177
0.999152
0.999134
0.999121
0.999106
0.99909
0.999076
0.999063
0.999063
0.999108
0.99915
0.999123
0.998977
0.998641
0.997984
0.996704
0.994045
0.988004
0.973364
0.937961
0.856291
0.705558
5.78433e-05
5.96577e-05
6.14053e-05
6.38099e-05
6.8712e-05
7.45173e-05
8.34937e-05
9.66482e-05
0.000115552
0.000144261
0.000188211
0.000257979
0.000370169
0.000556258
0.000880438
0.0014886
0.00269633
0.00524207
0.0110417
0.0249932
0.0591016
0.141371
0.302993
0.497379
0.695661
0.845342
0.936886
0.988416
0.999932
0.999926
0.999924
0.999924
0.999925
0.999926
0.999927
0.999927
0.999928
0.999929
0.99993
0.999928
0.999919
0.999898
0.999861
0.999791
0.999655
0.999384
0.998804
0.997477
0.994113
0.98441
0.95481
0.868824
0.680035
0.455478
0.24811
0.116837
0.037895
0.00268298
1.1795e-06
1.23468e-06
1.24568e-06
1.23817e-06
1.23756e-06
1.2536e-06
1.28539e-06
1.34298e-06
1.38013e-06
1.40487e-06
1.3948e-06
1.38017e-06
1.35192e-06
1.31462e-06
1.28675e-06
1.25341e-06
1.23217e-06
1.20621e-06
1.19378e-06
1.22293e-06
1.2925e-06
1.42153e-06
1.63064e-06
1.92248e-06
2.3686e-06
2.99421e-06
3.92561e-06
5.26509e-06
7.2864e-06
1.02216e-05
1.45336e-05
2.08487e-05
3.05257e-05
4.69482e-05
7.56116e-05
0.000123607
0.00020076
0.00032069
0.000515084
0.000842653
0.00141033
0.00241974
0.00421544
0.00746228
0.0134728
0.0247329
0.0455252
0.0830098
0.148368
0.250127
0.366823
0.488343
0.608768
0.718904
0.806047
0.865155
0.90979
0.942443
0.964515
0.977708
0.984486
0.987448
0.988545
0.98915
0.989049
0.987655
0.984218
0.976971
0.962319
0.932384
0.869791
0.74803
0.587294
0.411608
0.247529
0.135671
2.29067e-06
2.35521e-06
2.51998e-06
2.57013e-06
2.79823e-06
3.0142e-06
3.33599e-06
3.87893e-06
4.64698e-06
5.86045e-06
7.67945e-06
1.07334e-05
1.55634e-05
2.36808e-05
3.77573e-05
6.45091e-05
0.000117195
0.000221993
0.000437333
0.000915899
0.00205656
0.00490746
0.0126265
0.0343421
0.0945227
0.238996
0.441371
0.648541
0.816145
0.913993
0.97267
0.997328
0.999235
0.999194
0.99918
0.999176
0.999183
0.999186
0.999201
0.999176
0.999068
0.998822
0.998352
0.997427
0.995505
0.99108
0.979726
0.949042
0.866961
0.69039
0.472193
0.260921
0.120569
0.0366053
0.00135956
4.44279e-08
4.69268e-08
4.752e-08
4.84461e-08
4.87871e-08
4.9167e-08
4.96039e-08
4.95321e-08
5.00204e-08
5.08898e-08
5.33183e-08
5.48883e-08
5.57198e-08
5.48922e-08
5.39227e-08
5.25086e-08
5.06788e-08
4.93202e-08
4.76522e-08
4.69604e-08
4.56586e-08
4.48748e-08
4.60467e-08
4.80751e-08
5.21755e-08
5.97877e-08
6.99672e-08
8.6193e-08
1.0765e-07
1.40626e-07
1.87151e-07
2.59354e-07
3.60769e-07
5.14113e-07
7.35575e-07
1.05004e-06
1.62779e-06
2.80454e-06
4.82185e-06
8.06048e-06
1.25184e-05
1.95352e-05
3.24237e-05
5.50976e-05
9.60369e-05
0.000167062
0.000282476
0.000477002
0.000844899
0.00152983
0.00275471
0.00501853
0.00937829
0.0177179
0.0332485
0.0612619
0.109631
0.1873
0.287943
0.390322
0.488322
0.577242
0.651453
0.707679
0.746834
0.771834
0.783539
0.777096
0.746956
0.693404
0.614325
0.51196
0.390835
0.263384
0.159039
0.0810534
0.0263441
0.00141885
4.69843e-08
8.54131e-08
8.7413e-08
9.64676e-08
9.74741e-08
1.06713e-07
1.1419e-07
1.24091e-07
1.46257e-07
1.76158e-07
2.25272e-07
2.91798e-07
4.07267e-07
5.79536e-07
8.79515e-07
1.39814e-06
2.41051e-06
4.41416e-06
8.47424e-06
1.71158e-05
3.66526e-05
8.32689e-05
0.000193725
0.000469638
0.00119196
0.00313117
0.00867773
0.0255927
0.0732954
0.192785
0.379744
0.569286
0.734122
0.84503
0.908074
0.949889
0.970801
0.982333
0.986033
0.987642
0.987115
0.98508
0.979994
0.969649
0.94771
0.900249
0.798147
0.635878
0.446062
0.257643
0.125212
0.0410746
0.0022007
1.09861e-09
1.14682e-09
1.16738e-09
1.18857e-09
1.20867e-09
1.22053e-09
1.25375e-09
1.26804e-09
1.27625e-09
1.2664e-09
1.23188e-09
1.22955e-09
1.25091e-09
1.33421e-09
1.37106e-09
1.39207e-09
1.35901e-09
1.32941e-09
1.28578e-09
1.23167e-09
1.19611e-09
1.14594e-09
1.13753e-09
1.09826e-09
1.07559e-09
1.10912e-09
1.14361e-09
1.22598e-09
1.40516e-09
1.63292e-09
2.02787e-09
2.51712e-09
3.29554e-09
4.34207e-09
6.05411e-09
8.34284e-09
1.19682e-08
1.69755e-08
2.41124e-08
3.72039e-08
6.75712e-08
1.19921e-07
2.03703e-07
3.08971e-07
4.50645e-07
7.53635e-07
1.29829e-06
2.3115e-06
4.17117e-06
7.26639e-06
1.25581e-05
2.40425e-05
4.73135e-05
8.94241e-05
0.00016834
0.000319731
0.000594765
0.00108535
0.00197589
0.00361019
0.00660572
0.0120006
0.0212339
0.0360029
0.0578891
0.0868157
0.119924
0.151897
0.1765
0.185647
0.180466
0.160104
0.129152
0.0915552
0.0535262
0.0213719
0.00248085
4.1341e-09
3.25693e-09
2.36926e-09
1.65514e-09
1.30717e-09
2.91748e-09
2.97263e-09
3.3337e-09
3.32387e-09
3.66865e-09
3.90821e-09
4.23617e-09
5.13709e-09
6.15429e-09
8.02282e-09
1.02659e-08
1.44852e-08
2.02574e-08
3.10894e-08
4.89762e-08
8.42797e-08
1.5258e-07
2.90429e-07
5.81929e-07
1.21223e-06
2.7446e-06
6.42112e-06
1.60867e-05
4.25474e-05
0.000116745
0.000323395
0.00088346
0.00239031
0.00660329
0.0186211
0.0493262
0.118636
0.247011
0.38413
0.514254
0.606191
0.680779
0.715189
0.735586
0.727331
0.698079
0.638915
0.553175
0.440292
0.310325
0.189112
0.0995605
0.034057
0.00195096
4.82132e-17
1.76877e-25
2.72654e-23
2.37672e-22
3.1432e-22
2.33637e-22
6.11594e-23
2.04322e-22
2.4167e-22
1.69195e-22
6.14067e-23
8.35757e-26
3.26136e-24
6.24541e-29
9.37678e-23
1.31653e-22
8.02147e-23
9.74171e-24
9.49916e-23
9.95257e-23
4.40642e-23
2.95296e-24
-9.0693e-31
-3.29495e-31
2.68006e-25
8.98143e-23
2.19091e-23
-1.33209e-39
-6.67236e-25
-7.23361e-25
4.04184e-23
1.31912e-23
-5.42057e-43
-1.39834e-25
1.48439e-26
-1.31746e-25
-1.32931e-25
4.83334e-22
1.11988e-20
8.54469e-20
4.26363e-19
1.67206e-18
5.29922e-18
1.86288e-17
5.7493e-17
1.42216e-16
3.03877e-16
5.95178e-16
1.25054e-15
2.64949e-15
5.84914e-15
1.26034e-14
2.61981e-14
5.33043e-14
1.13755e-13
2.37971e-13
4.75768e-13
9.10464e-13
1.68595e-12
3.03406e-12
5.56576e-12
1.03355e-11
1.81257e-11
2.92719e-11
4.49973e-11
6.9657e-11
1.21773e-10
2.29809e-10
3.71227e-10
4.88451e-10
5.58408e-10
5.74617e-10
4.92596e-10
3.8739e-10
3.17086e-10
2.66573e-10
2.21078e-10
1.82678e-10
1.51866e-10
1.25271e-10
1.01022e-10
8.16246e-11
6.70495e-11
5.73448e-11
5.82267e-11
8.15772e-11
7.99689e-11
8.91167e-11
9.0374e-11
1.00264e-10
1.08957e-10
1.20801e-10
1.49215e-10
1.77642e-10
2.36687e-10
3.01951e-10
4.38884e-10
6.12077e-10
9.76707e-10
1.55275e-09
2.74898e-09
5.0379e-09
9.78318e-09
1.99624e-08
4.15529e-08
9.49238e-08
2.16852e-07
5.40889e-07
1.38693e-06
3.80715e-06
1.04995e-05
2.99219e-05
8.15798e-05
0.000225487
0.000594719
0.00154492
0.00390238
0.00942406
0.0206412
0.0418504
0.069375
0.105881
0.132265
0.149545
0.14542
0.12967
0.101292
0.0669774
0.0326007
0.00730789
2.67379e-17
5.82059e-22
6.70153e-18
1.55969e-37
6.76547e-36
-1.07061e-46
-7.108e-45
-8.95005e-44
-1.31367e-43
-1.77518e-43
9.06325e-45
4.35072e-43
7.13366e-43
4.1331e-43
1.23891e-43
-7.91442e-27
5.37778e-43
-2.6641e-29
-1.36089e-41
2.7842e-42
-8.88635e-45
-6.12805e-44
-8.26211e-44
-2.05229e-42
-2.7034e-43
-2.99016e-25
-9.66307e-25
-1.0316e-24
-7.67104e-25
1.76497e-42
-5.78858e-25
-1.17005e-24
-1.11512e-24
-7.21571e-25
-3.85807e-25
-2.6286e-25
-4.31318e-25
-3.55667e-25
-2.32021e-25
-1.94359e-25
-1.61557e-25
-1.04924e-25
-7.81391e-26
-6.39921e-26
-5.97705e-26
-6.75027e-26
-8.71334e-26
-1.06821e-25
-1.13995e-25
-1.07202e-25
-1.064e-25
-1.29304e-25
-1.72915e-25
-2.14401e-25
-2.22558e-25
-2.01922e-25
-1.70441e-25
-1.4455e-25
-1.31432e-25
-1.09275e-25
-8.39176e-26
-1.08761e-25
-7.71711e-26
-8.70616e-26
-8.33473e-26
-7.03885e-26
-6.67495e-26
-4.28669e-26
-2.85407e-26
-2.03659e-26
-1.10905e-26
-8.04192e-27
-4.28084e-27
-1.9641e-27
-6.27913e-28
-5.18491e-29
2.25311e-32
-1.39654e-32
8.22444e-34
1.27308e-34
-2.7944e-33
-7.73743e-33
1.53441e-31
3.30702e-23
8.2192e-21
7.30016e-20
7.72705e-17
1.3052e-15
2.66144e-14
-2.92088e-24
-5.88835e-24
-4.69562e-24
-3.51215e-24
-3.61144e-24
-5.74684e-24
-5.19181e-24
-7.56852e-24
-6.50085e-24
1.83225e-24
4.03896e-23
6.52954e-45
-4.51942e-24
-5.94422e-24
-7.0611e-24
-2.05273e-23
-1.02485e-23
-7.17267e-24
-9.83945e-24
-4.39148e-24
-3.32619e-24
2.49833e-21
4.96903e-25
-1.77891e-23
-2.42318e-23
-1.37159e-23
-2.72576e-23
-1.46255e-23
-1.56233e-23
-1.37482e-23
-1.39621e-23
-2.41271e-23
-1.88588e-23
-2.6865e-23
-1.35369e-23
-4.98499e-24
-3.12227e-24
-4.34489e-24
-3.16892e-24
-1.30697e-23
-5.94176e-24
-2.04561e-23
-8.1094e-24
-9.62102e-24
-4.81614e-25
3.2954e-34
-2.19555e-40
-9.27769e-37
-1.1812e-24
-7.14546e-28
-7.29617e-28
-8.15419e-28
-9.78061e-28
-1.25784e-27
-1.79306e-27
-3.0093e-27
-4.63905e-27
-7.60052e-27
-1.21105e-26
-1.9834e-26
-6.69926e-26
-5.25751e-26
-4.0139e-26
-3.39727e-26
-3.61276e-26
-4.89921e-26
-9.70389e-26
-1.50054e-25
-2.56289e-25
-4.01573e-25
-6.61434e-25
-8.025e-25
-7.12199e-25
-5.04707e-25
-3.7955e-25
-4.45678e-25
-5.68743e-25
-5.83496e-25
-4.39422e-25
-3.09379e-25
-2.50298e-25
-2.62388e-25
-2.80831e-25
-2.37581e-25
-1.91225e-25
-1.59238e-25
-1.23966e-25
-9.79563e-26
-8.24843e-26
-7.88011e-26
-9.14804e-26
-1.22042e-25
-1.56149e-25
-1.72368e-25
-1.66173e-25
-1.65985e-25
-2.01467e-25
-2.72671e-25
-3.44349e-25
-3.66527e-25
-3.36669e-25
-2.89098e-25
-2.58991e-25
-2.36448e-25
-2.2263e-25
-2.13984e-25
-2.14099e-25
-2.04057e-25
-1.88657e-25
-1.91484e-25
-2.0301e-25
-1.98799e-25
-1.66047e-25
-1.20681e-25
-8.22262e-26
-6.09673e-26
-4.81322e-26
-3.74116e-26
-2.70454e-26
-1.98389e-26
-1.66419e-26
-1.79221e-26
-2.15751e-26
-2.60983e-26
-2.92313e-26
-2.88852e-26
-2.15103e-26
-3.12535e-42
3.93114e-23
8.64282e-21
7.65101e-20
3.35778e-17
5.75974e-16
9.02939e-15
-2.6399e-24
-3.37861e-24
-3.85796e-24
-3.28529e-24
-2.4741e-24
-3.09527e-24
-4.59246e-24
-5.59244e-24
-5.22985e-24
-3.61074e-24
-3.41609e-24
-5.2558e-24
-6.02571e-24
-7.87234e-24
-9.73194e-24
-1.28796e-23
-1.47979e-23
-1.10894e-23
-6.06606e-24
-6.5498e-24
-7.11712e-24
-3.35046e-24
-8.27015e-24
-1.43591e-23
-1.95392e-23
-2.28561e-23
-2.41806e-23
-2.60655e-23
-2.79986e-23
-2.53434e-23
-2.79284e-23
-3.61768e-23
-4.89475e-23
-6.1169e-23
-4.73438e-23
-2.17489e-23
-3.44861e-23
-3.37005e-23
-2.38117e-23
-4.02435e-23
-4.72476e-23
-3.01258e-23
-6.15217e-23
-3.33644e-23
-5.22237e-23
-1.54261e-23
-4.10635e-23
-1.37615e-23
-9.44156e-25
-4.59556e-27
-4.54953e-27
-5.01562e-27
-5.60533e-27
-6.6411e-27
-8.62366e-27
-1.29989e-26
-1.8825e-26
-2.86433e-26
-4.2103e-26
-6.12962e-26
-1.14958e-25
-1.08998e-25
-8.62137e-26
-7.11473e-26
-6.96285e-26
-8.46891e-26
-1.33848e-25
-2.01355e-25
-3.13683e-25
-4.54941e-25
-5.89587e-25
-6.33796e-25
-5.46537e-25
-3.92642e-25
-3.01543e-25
-3.29527e-25
-4.21966e-25
-4.38354e-25
-3.43636e-25
-2.45902e-25
-2.01789e-25
-2.05922e-25
-2.22062e-25
-2.09235e-25
-1.80852e-25
-1.55319e-25
-1.26317e-25
-1.01134e-25
-8.55489e-26
-8.13232e-26
-9.46642e-26
-1.2738e-25
-1.67152e-25
-1.89273e-25
-1.86911e-25
-1.86806e-25
-2.24741e-25
-3.08874e-25
-4.02642e-25
-4.48519e-25
-4.28207e-25
-3.82093e-25
-3.55497e-25
-3.4204e-25
-3.39074e-25
-3.40782e-25
-3.49849e-25
-3.43985e-25
-3.30483e-25
-3.53202e-25
-4.02928e-25
-4.3064e-25
-3.96107e-25
-3.17249e-25
-2.38766e-25
-1.95752e-25
-1.73997e-25
-1.55084e-25
-1.30188e-25
-1.0831e-25
-9.62272e-26
-1.01929e-25
-1.21536e-25
-1.46181e-25
-1.62458e-25
-1.58808e-25
-1.20438e-25
-5.62812e-43
4.41438e-23
9.47929e-21
8.08573e-20
1.81098e-17
3.17662e-16
3.14329e-15
-1.19869e-24
-1.53439e-24
-1.78756e-24
-1.54391e-24
-1.12128e-24
-1.36393e-24
-2.0986e-24
-2.70306e-24
-2.67893e-24
-2.28405e-24
-2.30806e-24
-2.60057e-24
-2.87518e-24
-3.8925e-24
-4.80582e-24
-6.44273e-24
-7.76334e-24
-6.08908e-24
-3.08677e-24
-3.14156e-24
-3.88227e-24
-3.95445e-24
-5.12857e-24
-8.12855e-24
-1.18466e-23
-1.45742e-23
-1.62022e-23
-1.83026e-23
-2.04913e-23
-1.917e-23
-2.2496e-23
-3.03092e-23
-4.13727e-23
-5.01307e-23
-4.05249e-23
-2.41984e-23
-3.57984e-23
-3.49323e-23
-3.12803e-23
-5.27938e-23
-5.88801e-23
-2.83893e-23
-5.41522e-23
-2.5256e-23
-3.12351e-23
-8.44759e-24
-2.72984e-23
-6.86039e-24
-3.78248e-25
-1.49102e-26
-1.45791e-26
-1.53473e-26
-1.60791e-26
-1.7647e-26
-2.10174e-26
-2.87507e-26
-3.92675e-26
-5.58972e-26
-7.65561e-26
-1.00677e-25
-1.38946e-25
-1.32469e-25
-1.05756e-25
-8.54059e-26
-7.92671e-26
-9.04427e-26
-1.27317e-25
-1.89598e-25
-2.84866e-25
-4.01347e-25
-4.93645e-25
-5.16287e-25
-4.39312e-25
-3.13729e-25
-2.3806e-25
-2.56762e-25
-3.29243e-25
-3.45242e-25
-2.77118e-25
-2.03539e-25
-1.70783e-25
-1.74946e-25
-1.89092e-25
-1.82651e-25
-1.6334e-25
-1.43182e-25
-1.18512e-25
-9.51488e-26
-8.06831e-26
-7.6439e-26
-8.93771e-26
-1.2114e-25
-1.62329e-25
-1.87499e-25
-1.89286e-25
-1.89653e-25
-2.25481e-25
-3.11618e-25
-4.14945e-25
-4.7998e-25
-4.74076e-25
-4.38765e-25
-4.22404e-25
-4.25376e-25
-4.40563e-25
-4.61188e-25
-4.84395e-25
-4.88074e-25
-4.81312e-25
-5.33059e-25
-6.44252e-25
-7.40541e-25
-7.37501e-25
-6.35515e-25
-5.09483e-25
-4.40676e-25
-4.17165e-25
-4.00259e-25
-3.60382e-25
-3.14103e-25
-2.78795e-25
-2.85696e-25
-3.3513e-25
-3.99168e-25
-4.37866e-25
-4.18754e-25
-3.14661e-25
-7.76832e-44
5.29102e-23
9.53697e-21
7.91999e-20
1.04863e-17
1.80658e-16
8.9005e-16
-5.256e-25
-6.50305e-25
-7.5529e-25
-6.49277e-25
-4.45277e-25
-5.26666e-25
-8.37167e-25
-1.13064e-24
-1.16123e-24
-9.78633e-25
-9.63059e-25
-1.0741e-24
-1.18039e-24
-1.6651e-24
-2.03027e-24
-2.73975e-24
-3.47306e-24
-2.84558e-24
-1.33737e-24
-1.32055e-24
-1.72655e-24
-1.72982e-24
-2.11362e-24
-3.57917e-24
-5.62067e-24
-7.2802e-24
-8.37514e-24
-9.73184e-24
-1.12921e-23
-1.03527e-23
-1.21853e-23
-1.61797e-23
-2.12128e-23
-2.59537e-23
-2.21158e-23
-1.41011e-23
-2.05862e-23
-1.99847e-23
-2.00646e-23
-3.65538e-23
-4.13674e-23
-1.39534e-23
-2.6433e-23
-1.07811e-23
-1.18431e-23
-2.83158e-24
-1.05697e-23
-1.6839e-24
-1.22547e-25
-3.23066e-26
-3.12272e-26
-3.14059e-26
-3.10703e-26
-3.17748e-26
-3.49467e-26
-4.3794e-26
-5.66518e-26
-7.60518e-26
-9.80174e-26
-1.1844e-25
-1.37055e-25
-1.25551e-25
-9.98791e-26
-7.93257e-26
-7.16809e-26
-7.94695e-26
-1.07129e-25
-1.58512e-25
-2.34083e-25
-3.24003e-25
-3.88113e-25
-3.97213e-25
-3.3242e-25
-2.34809e-25
-1.75468e-25
-1.85562e-25
-2.36489e-25
-2.51266e-25
-2.08171e-25
-1.5834e-25
-1.36108e-25
-1.39891e-25
-1.51349e-25
-1.48812e-25
-1.36854e-25
-1.21994e-25
-1.02427e-25
-8.22701e-26
-6.97012e-26
-6.56649e-26
-7.68878e-26
-1.04716e-25
-1.42791e-25
-1.67845e-25
-1.73171e-25
-1.73994e-25
-2.03297e-25
-2.79591e-25
-3.77143e-25
-4.49969e-25
-4.5834e-25
-4.38842e-25
-4.3639e-25
-4.57281e-25
-4.91912e-25
-5.33722e-25
-5.72042e-25
-5.86177e-25
-5.87717e-25
-6.65575e-25
-8.38963e-25
-1.02127e-24
-1.08321e-24
-9.86806e-25
-8.27121e-25
-7.38375e-25
-7.25934e-25
-7.2718e-25
-6.81896e-25
-6.08177e-25
-5.34757e-25
-5.2884e-25
-6.02878e-25
-7.04673e-25
-7.58501e-25
-7.05134e-25
-5.17569e-25
2.99916e-44
5.50969e-23
8.69486e-21
6.43e-20
4.71991e-18
6.55841e-17
1.20135e-17
-2.46263e-25
-2.8014e-25
-3.08592e-25
-2.60238e-25
-1.70231e-25
-1.86533e-25
-2.93574e-25
-4.1113e-25
-4.42465e-25
-3.80331e-25
-3.69985e-25
-4.06785e-25
-4.35548e-25
-6.27246e-25
-7.47457e-25
-1.00063e-24
-1.33093e-24
-1.14378e-24
-5.02122e-25
-4.81733e-25
-6.59154e-25
-6.47234e-25
-7.24865e-25
-1.28522e-24
-2.16706e-24
-2.94868e-24
-3.48158e-24
-4.12874e-24
-4.99125e-24
-4.3626e-24
-5.03186e-24
-6.59465e-24
-8.11684e-24
-1.00621e-23
-9.02811e-24
-5.84174e-24
-8.57619e-24
-7.95091e-24
-8.60372e-24
-1.74814e-23
-2.08431e-23
-4.83547e-24
-9.48346e-24
-3.44077e-24
-3.64391e-24
-7.57253e-25
-3.01795e-24
-3.02196e-25
-6.92831e-26
-5.29059e-26
-5.05339e-26
-4.87638e-26
-4.58246e-26
-4.39314e-26
-4.49302e-26
-5.20767e-26
-6.40957e-26
-8.17915e-26
-1.00107e-25
-1.12979e-25
-1.17711e-25
-1.03237e-25
-8.12815e-26
-6.37127e-26
-5.70325e-26
-6.26512e-26
-8.34424e-26
-1.22386e-25
-1.78059e-25
-2.4193e-25
-2.82474e-25
-2.8214e-25
-2.31312e-25
-1.61145e-25
-1.1878e-25
-1.2346e-25
-1.56097e-25
-1.67897e-25
-1.43586e-25
-1.13624e-25
-1.00651e-25
-1.04133e-25
-1.12787e-25
-1.12771e-25
-1.06251e-25
-9.60455e-26
-8.15494e-26
-6.54375e-26
-5.52643e-26
-5.17542e-26
-6.06346e-26
-8.28941e-26
-1.14516e-25
-1.36638e-25
-1.43965e-25
-1.45049e-25
-1.65628e-25
-2.24039e-25
-3.0345e-25
-3.70912e-25
-3.88985e-25
-3.84343e-25
-3.94808e-25
-4.2855e-25