/*--------------------------------*- C++ -*----------------------------------*\
| =========                 |                                                 |
| \\      /  F ield         | OpenFOAM: The Open Source CFD Toolbox           |
|  \\    /   O peration     | Version:  v1912                                 |
|   \\  /    A nd           | Website:  www.openfoam.com                      |
|    \\/     M anipulation  |                                                 |
\*---------------------------------------------------------------------------*/
FoamFile
{
    version     2.0;
    format      ascii;
    class       volScalarField;
    location    "70";
    object      p_rgh;
}
// * * * * * * * * * * * * * * * * * * * * * * * * * * * * * * * * * * * * * //

dimensions      [1 -1 -2 0 0 0 0];


internalField   nonuniform List<scalar> 
14268
(
-3624.54
-3490.02
-3341.66
-3178.18
-2998.31
-2800.79
-2584.43
-2348.12
-2090.88
-1811.86
-1510.42
-1186.23
-839.179
-469.488
-77.6934
335.196
767.768
1221.93
1691.54
2174.46
2668.42
3170.29
3676.64
4183.77
4687.74
5184.47
5669.74
6139.29
6588.88
7014.31
7411.51
7776.75
8106.31
8396.57
8644.37
8846.9
9001.75
9106.9
9160.81
9162.37
9109.44
9004.77
8847.15
8636.47
8373.97
8061.35
7700.66
7294.42
6845.54
6357.24
5833.12
5277.38
4694.51
4089.15
3466.09
2830.42
2187.17
1541.26
896.989
254.917
-370.985
-979.603
-1567.75
-2131.9
-2668.68
-3175.07
-3648.48
-4086.9
-4488.6
-4852.12
-5176.55
-5461.33
-5706.25
-5911.41
-6077.15
-6204.07
-6293.06
-6344.81
-6359.5
-6340.19
-6287.43
-6202.6
-6087.05
-5942.18
-5769.4
-5570.09
-5345.67
-5097.5
-4826.95
-4535.31
-4223.9
-3894.09
-3547.16
-3184.39
-2807.02
-2416.32
-2013.55
-1600
-1176.98
-745.867
-308.676
134.236
582.61
1032.29
1481.8
1929.46
2373.16
2810.56
3239.14
3656.13
4058.54
4443.18
4806.64
5145.36
5455.7
5734.02
5976.46
6179.12
6338.44
6450.89
6513.35
6523.08
6475.91
6376.19
6220.23
6006.91
5737.12
5412.87
5036.81
4612.8
4145.31
3640.48
3105.34
2547.74
-3624.39
-3489.83
-3341.4
-3177.82
-2997.82
-2800.13
-2583.56
-2346.99
-2089.44
-1810.07
-1508.23
-1183.59
-836.045
-465.819
-73.4561
340.028
773.254
1228.04
1698.3
2181.86
2676.43
3178.89
3685.8
4193.43
4697.85
5194.96
5680.53
6150.3
6600.01
7025.46
7422.59
7787.65
8116.92
8406.78
8654.08
8856.01
9010.15
9114.51
9167.65
9168.22
9114.34
9008.65
8849.96
8638.18
8374.58
8060.85
7699.07
7291.76
6841.86
6352.57
5827.52
5270.93
4687.29
4081.23
3457.57
2821.38
2177.73
1531.58
887.296
244.623
-381.015
-989.432
-1577.35
-2141.2
-2677.61
-3183.57
-3656.51
-4094.41
-4495.56
-4858.51
-5182.36
-5466.55
-5710.89
-5915.47
-6080.66
-6207.1
-6295.51
-6346.75
-6360.96
-6341.2
-6288.03
-6202.81
-6086.9
-5941.71
-5768.62
-5569.04
-5344.37
-5095.98
-4825.23
-4533.41
-4221.84
-3891.9
-3544.85
-3181.98
-2804.54
-2413.77
-2010.95
-1597.37
-1174.32
-743.208
-306.023
136.875
585.22
1034.86
1484.3
1931.9
2375.52
2812.84
3241.31
3658.19
4060.48
4444.98
4808.3
5146.86
5457.04
5735.19
5977.49
6179.94
6339.08
6451.35
6513.63
6523.2
6475.87
6376.01
6219.94
6006.51
5736.64
5412.34
5036.25
4612.25
4144.78
3639.99
3104.92
2547.39
-3627.17
-3492.81
-3344.56
-3181.13
-3001.23
-2803.59
-2587
-2350.34
-2092.63
-1812.99
-1510.8
-1185.7
-837.607
-466.732
-73.6272
340.673
774.842
1230.6
1701.93
2186.59
2682.29
3185.9
3693.95
4202.71
4708.22
5206.35
5692.87
6163.5
6613.95
7040.02
7437.63
7803.02
8132.46
8422.33
8669.45
8871.03
9024.65
9128.33
9180.52
9180.15
9125.24
9018.33
8858.31
8645.1
8380.02
8064.77
7701.44
7292.58
6841.15
6350.36
5823.87
5265.91
4680.99
4073.77
3449.14
2812.03
2167.57
1520.86
876.584
232.306
-392.982
-1001.34
-1589.17
-2152.84
-2688.96
-3194.53
-3667
-4104.37
-4504.93
-4867.25
-5190.44
-5473.96
-5717.62
-5921.51
-6086.02
-6211.71
-6299.56
-6350.22
-6363.84
-6343.54
-6289.86
-6204.17
-6087.82
-5942.21
-5768.74
-5568.82
-5343.83
-5095.15
-4824.14
-4532.09
-4220.32
-3890.19
-3542.98
-3179.97
-2802.41
-2411.54
-2008.64
-1594.98
-1171.9
-740.747
-303.537
139.381
587.723
1037.34
1486.76
1934.32
2377.89
2815.14
3243.55
3660.33
4062.53
4446.92
4810.11
5148.53
5458.56
5736.54
5978.62
6180.93
6339.89
6451.98
6514.08
6523.47
6475.97
6375.96
6219.74
6006.2
5736.23
5411.86
5035.73
4611.71
4144.25
3639.51
3104.49
2547.05
-3632.9
-3498.99
-3351.17
-3188.14
-3008.58
-2811.2
-2594.79
-2358.22
-2100.46
-1820.65
-1518.15
-1192.59
-843.89
-472.25
-78.2268
337.111
772.508
1229.63
1702.43
2188.66
2686
3191.32
3701.11
4211.62
4718.86
5218.67
5706.79
6178.92
6630.74
7058.03
7456.68
7822.91
8152.98
8443.23
8690.51
8892
9045.28
9148.36
9199.64
9198.29
9142.31
9033.98
8872.38
8657.44
8390.5
8073.31
7707.98
7297.08
6843.6
6350.79
5822.33
5262.48
4675.78
4066.9
3440.75
2802.31
2156.71
1509.16
865.088
217.879
-406.778
-1015.24
-1603.16
-2166.77
-2702.68
-3207.92
-3679.94
-4116.76
-4516.7
-4878.34
-5200.8
-5483.56
-5726.44
-5929.55
-6093.3
-6218.3
-6305.35
-6355.29
-6368.22
-6347.27
-6292.98
-6206.71
-6089.83
-5943.73
-5769.81
-5569.47
-5344.09
-5095.06
-4823.73
-4531.39
-4219.36
-3888.99
-3541.58
-3178.39
-2800.66
-2409.65
-2006.63
-1592.87
-1169.7
-738.48
-301.214
141.753
590.121
1039.75
1489.17
1936.72
2380.27
2817.48
3245.84
3662.56
4064.68
4448.98
4812.06
5150.36
5460.25
5738.08
5980.04
6182.14
6340.92
6452.81
6514.72
6523.9
6476.21
6376.03
6219.65
6005.97
5735.89
5411.43
5035.24
4611.19
4143.74
3639.03
3104.07
2546.71
-3641.58
-3508.37
-3361.24
-3198.84
-3019.86
-2822.98
-2606.96
-2370.63
-2112.97
-1833.08
-1530.32
-1204.3
-854.926
-482.403
-87.2821
329.311
766.221
1225.12
1699.79
2188.05
2687.57
3195.15
3707.28
4220.17
4729.79
5231.94
5722.33
6196.61
6650.43
7079.52
7479.77
7847.36
8178.5
8469.55
8717.31
8918.97
9072.09
9174.7
9225.28
9222.75
9165.68
9055.74
8892.29
8675.3
8406.16
8086.62
7718.84
7305.43
6849.41
6354.06
5823.1
5260.84
4671.84
4060.81
3432.67
2792.43
2145.25
1496.45
852.988
201.163
-422.342
-1031.16
-1619.32
-2182.98
-2718.77
-3223.71
-3695.3
-4131.57
-4530.85
-4891.75
-5213.41
-5495.32
-5737.34
-5939.58
-6102.44
-6226.57
-6312.77
-6361.9
-6374.04
-6352.34
-6297.35
-6210.43
-6092.93
-5946.25
-5771.79
-5570.96
-5345.13
-5095.69
-4823.98
-4531.29
-4218.95
-3888.3
-3540.64
-3177.22
-2799.29
-2408.1
-2004.92
-1591.02
-1167.73
-736.411
-299.057
143.991
592.412
1042.08
1491.53
1939.1
2382.65
2819.86
3248.19
3664.88
4066.94
4451.17
4814.17
5152.36
5462.12
5739.81
5981.61
6183.53
6342.12
6453.81
6515.52
6524.5
6476.6
6376.23
6219.68
6005.84
5735.62
5411.06
5034.79
4610.7
4143.25
3638.56
3103.66
2546.36
-3653.23
-3520.99
-3374.8
-3213.31
-3035.15
-2838.99
-2623.55
-2387.64
-2130.21
-1850.35
-1547.37
-1220.88
-870.771
-497.242
-100.838
317.215
755.934
1217.04
1693.98
2184.75
2686.96
3197.39
3712.47
4228.37
4741.02
5246.18
5739.49
6216.57
6673.02
7104.53
7506.93
7876.39
8209.08
8501.31
8749.88
8951.95
9105.1
9207.31
9257.07
9253.36
9195.24
9083.47
8917.91
8698.57
8426.85
8104.56
7733.89
7317.49
6858.43
6360.04
5826.07
5260.88
4669.08
4055.4
3424.8
2782.32
2133.13
1482.56
836.447
185.925
-439.574
-1049.08
-1637.66
-2201.5
-2737.24
-3241.94
-3713.11
-4148.8
-4547.39
-4907.5
-5228.28
-5509.28
-5750.33
-5951.59
-6113.48
-6236.62
-6321.87
-6370.08
-6381.32
-6358.77
-6302.98
-6215.3
-6097.1
-5949.77
-5774.7
-5573.3
-5346.96
-5097.03
-4824.88
-4531.8
-4219.09
-3888.11
-3540.14
-3176.45
-2798.29
-2406.88
-2003.51
-1589.43
-1165.99
-734.536
-297.064
146.097
594.599
1044.34
1493.85
1941.46
2385.04
2822.27
3250.6
3667.28
4069.31
4453.49
4816.42
5154.52
5464.18
5741.73
5983.34
6185.11
6343.51
6455
6516.49
6525.25
6477.14
6376.55
6219.81
6005.79
5735.41
5410.73
5034.38
4610.24
4142.76
3638.1
3103.24
2546.02
-3667.84
-3536.83
-3391.85
-3231.52
-3054.44
-2859.23
-2644.58
-2409.28
-2152.23
-1872.48
-1569.33
-1242.38
-891.476
-516.82
-118.934
300.764
741.572
1205.37
1684.95
2178.72
2684.16
3198
3716.65
4236.21
4752.56
5261.39
5758.31
6238.85
6698.56
7133.09
7538.22
7910.07
8244.75
8538.56
8788.27
8991.02
9144.36
9246.29
9295.23
9290.14
9231.13
9117.25
8949.29
8727.27
8452.62
8127.16
7753.15
7333.28
6870.68
6368.71
5831.21
5262.57
4667.44
4050.63
3417.1
2771.94
2120.32
1467.53
818.677
168.945
-458.593
-1069.06
-1658.22
-2222.36
-2758.12
-3262.61
-3733.37
-4168.49
-4566.34
-4925.59
-5245.44
-5525.42
-5765.41
-5965.59
-6126.4
-6248.47
-6332.64
-6379.81
-6390.05
-6366.56
-6309.87
-6221.35
-6102.35
-5954.28
-5778.53
-5576.49
-5349.56
-5099.09
-4826.45
-4532.9
-4219.77
-3888.41
-3540.11
-3176.11
-2797.65
-2406
-2002.39
-1588.11
-1164.48
-732.857
-295.237
148.069
596.679
1046.52
1496.12
1943.8
2387.44
2824.71
3253.08
3669.77
4071.79
4455.95
4818.82
5156.85
5466.4
5743.84
5985.35
6186.89
6345.11
6456.39
6517.65
6526.17
6477.8
6376.98
6220.03
6005.82
5735.28
5410.46
5034
4609.8
4142.29
3637.65
3102.84
2545.68
-3685.44
-3555.93
-3412.43
-3253.53
-3077.78
-2883.77
-2670.13
-2435.62
-2179.09
-1899.57
-1596.31
-1268.88
-917.123
-541.22
-141.681
279.947
723.068
1190
1672.65
2169.9
2679.1
3196.95
3719.8
4243.67
4764.39
5277.58
5778.77
6263.44
6727.07
7165.24
7573.67
7948.42
8285.57
8581.36
8832.54
9036.21
9189.93
9291.66
9339.8
9333.02
9273.48
9157.11
8986.47
8761.44
8483.48
8154.43
7776.62
7352.79
6886.13
6380.07
5838.5
5265.88
4666.93
4046.48
3409.54
2761.25
2106.79
1451.38
799.771
150.064
-479.479
-1091.11
-1681.02
-2245.56
-2781.43
-3285.76
-3756.12
-4190.63
-4587.71
-4946.05
-5264.87
-5543.75
-5782.59
-5981.59
-6141.2
-6262.08
-6345.08
-6391.1
-6400.23
-6375.69
-6318.02
-6228.56
-6108.69
-5959.79
-5783.28
-5580.53
-5352.94
-5101.87
-4828.66
-4534.6
-4221.01
-3889.22
-3540.52
-3176.17
-2797.39
-2405.44
-2001.57
-1587.04
-1163.19
-731.371
-293.571
149.908
598.656
1048.62
1498.34
1946.12
2389.85
2827.19
3255.61
3672.34
4074.38
4458.53
4821.38
5159.35
5468.81
5746.12
5987.43
6188.85
6346.88
6457.94
6518.97
6527.25
6478.63
6377.57
6220.38
6005.96
5735.21
5410.24
5033.66
4609.38
4141.85
3637.2
3102.42
2545.33
-3705.99
-3578.26
-3436.54
-3279.35
-3105.2
-2912.63
-2700.24
-2466.7
-2210.86
-1931.67
-1628.35
-1300.46
-947.79
-570.522
-169.148
254.661
700.346
1170.89
1657.01
2158.22
2671.74
3194.2
3721.87
4250.72
4776.49
5294.74
5800.9
6290.38
6758.59
7201
7613.32
7991.51
8331.59
8629.77
8882.73
9087.59
9241.86
9343.51
9390.88
9381.86
9322.52
9203.05
9029.45
8801.1
8519.44
8186.39
7804.31
7376.03
6904.79
6394.11
5847.94
5270.81
4667.51
4042.91
3402.1
2750.24
2092.52
1434.13
779.669
129.276
-502.291
-1115.28
-1706.08
-2271.14
-2807.19
-3311.38
-3781.35
-4215.24
-4611.5
-4968.86
-5286.59
-5564.28
-5801.87
-5999.58
-6157.89
-6277.49
-6359.21
-6403.93
-6411.87
-6386.18
-6327.42
-6236.93
-6116.1
-5966.3
-5788.94
-5585.41
-5357.1
-5105.36
-4831.53
-4536.91
-4222.79
-3890.53
-3541.39
-3176.64
-2797.5
-2405.22
-2001.04
-1586.24
-1162.13
-730.082
-292.07
151.611
600.527
1050.65
1500.51
1948.42
2392.26
2829.71
3258.21
3675
4077.08
4461.25
4824.08
5162.01
5471.4
5748.61
5989.85
6191.03
6348.86
6459.69
6520.47
6528.48
6479.58
6378.25
6220.81
6006.13
5735.2
5410.07
5033.36
4608.99
4141.41
3636.75
3102.01
2544.98
-3729.51
-3603.86
-3464.19
-3309
-3136.74
-2945.88
-2734.95
-2502.61
-2247.61
-1968.87
-1665.57
-1337.21
-983.58
-604.827
-201.433
224.816
673.299
1147.96
1637.92
2143.6
2662.01
3189.69
3722.83
4257.33
4788.85
5312.86
5824.7
6319.68
6793.12
7240.42
7657.21
8039.38
8382.87
8683.83
8938.93
9145.22
9300.22
9401.89
9448.61
9437.87
9377.06
9255.05
9078.26
8846.28
8560.54
8223.04
7836.22
7402.98
6926.65
6410.81
5859.49
5277.32
4669.14
4039.91
3394.74
2738.86
2077.48
1415.76
758.276
106.585
-527.084
-1141.6
-1733.45
-2299.12
-2835.41
-3339.51
-3809.09
-4242.33
-4637.73
-4994.06
-5310.6
-5587.01
-5823.24
-6019.56
-6176.47
-6294.67
-6375.01
-6418.3
-6424.95
-6398.02
-6338.08
-6246.47
-6124.59
-5973.8
-5795.53
-5591.15
-5362.04
-5109.56
-4835.07
-4539.81
-4225.12
-3892.33
-3542.72
-3177.52
-2797.98
-2405.33
-2000.81
-1585.69
-1161.3
-728.986
-290.73
153.182
602.295
1052.6
1502.63
1950.7
2394.69
2832.26
3260.87
3677.75
4079.89
4464.09
4826.94
5164.84
5474.17
5751.27
5992.32
6193.38
6351.01
6461.62
6522.14
6529.88
6480.68
6379.06
6221.35
6006.43
5735.29
5409.97
5033.11
4608.63
4140.98
3636.31
3101.6
2544.64
-3755.98
-3632.7
-3495.4
-3342.52
-3172.42
-2983.55
-2774.35
-2543.41
-2289.43
-2011.27
-1708.05
-1379.25
-1024.6
-644.247
-238.652
190.328
641.841
1121.08
1615.25
2125.95
2649.82
3183.34
3722.61
4263.46
4801.43
5331.92
5850.15
6351.33
6830.69
7283.53
7705.39
8092.07
8439.45
8743.62
9001.18
9209.17
9365.08
9466.87
9513
9501.31
9437.15
9313.11
9132.96
8897
8606.79
8264.41
7872.37
7433.66
6951.7
6430.16
5873.15
5285.39
4671.81
4037.42
3387.43
2727.08
2061.63
1396.25
735.509
81.9942
-553.903
-1170.11
-1763.14
-2329.54
-2866.13
-3370.17
-3839.36
-4271.93
-4666.41
-5021.63
-5336.92
-5611.95
-5846.73
-6041.55
-6196.94
-6313.64
-6392.5
-6434.22
-6439.48
-6411.21
-6349.99
-6257.18
-6134.15
-5982.31
-5803.04
-5597.73
-5367.76
-5114.5
-4839.26
-4543.33
-4228.01
-3894.65
-3544.51
-3178.83
-2798.84
-2405.78
-2000.88
-1585.41
-1160.69
-728.084
-289.554
154.619
603.958
1054.48
1504.71
1952.96
2397.12
2834.84
3263.59
3680.58
4082.82
4467.07
4829.94
5167.83
5477.11
5754.13
5995.09
6195.94
6353.37
6463.74
6524
6531.44
6481.94
6380.02
6222.03
6006.84
5735.43
5409.89
5032.86
4608.27
4140.56
3635.88
3101.2
2544.3
-3785.38
-3664.8
-3530.18
-3379.93
-3212.31
-3025.71
-2818.5
-2589.19
-2336.42
-2058.98
-1755.93
-1426.7
-1070.99
-688.908
-280.953
151.099
606.041
1089.94
1588.84
2105.14
2635.07
3175.06
3721.14
4269.03
4814.2
5351.89
5877.25
6385.36
6871.33
7330.36
7757.89
8149.66
8501.41
8809.2
9069.57
9279.52
9436.51
9538.52
9584.06
9571.05
9503.96
9377.33
9193.56
8953.29
8658.22
8310.49
7912.75
7468.06
6979.93
6452.14
5888.89
5294.99
4675.47
4035.43
3380.12
2714.86
2044.95
1375.55
711.301
55.4939
-582.791
-1200.85
-1795.2
-2362.41
-2899.38
-3403.38
-3872.17
-4304.04
-4697.57
-5051.61
-5365.54
-5639.11
-5872.33
-6065.55
-6219.31
-6334.4
-6411.67
-6451.68
-6455.47
-6425.74
-6363.15
-6269.04
-6144.79
-5991.79
-5811.45
-5605.14
-5374.25
-5120.12
-4844.09
-4547.42
-4231.42
-3897.44
-3546.73
-3180.53
-2800.06
-2406.55
-2001.23
-1585.38
-1160.31
-727.375
-288.542
155.925
605.518
1056.28
1506.74
1955.21
2399.56
2837.47
3266.37
3683.5
4085.85
4470.19
4833.1
5171
5480.24
5757.17
5998.02
6198.69
6355.92
6466.04
6526.02
6533.16
6483.32
6381.08
6222.78
6007.29
5735.62
5409.86
5032.66
4607.94
4140.15
3635.45
3100.79
2543.95
-3817.71
-3700.15
-3568.55
-3421.26
-3256.44
-3072.42
-2867.47
-2640.04
-2388.68
-2112.11
-1809.32
-1479.7
-1122.88
-738.941
-328.505
107.024
566.843
1053.36
1558.52
2081.06
2617.67
3164.77
3718.35
4274
4827.09
5372.75
5905.99
6421.76
6915.06
7380.95
7814.78
8212.19
8568.82
8880.65
9144.17
9356.34
9514.59
9616.9
9661.84
9647.3
9577.43
9447.83
9260.16
9015.23
8714.88
8361.36
7957.41
7506.21
7011.38
6476.78
5906.72
5306.14
4680.14
4033.91
3372.8
2702.18
2027.39
1353.62
685.576
27.0579
-613.796
-1233.87
-1829.66
-2397.79
-2935.18
-3439.16
-3907.55
-4338.69
-4731.19
-5083.98
-5396.49
-5668.48
-5900.05
-6091.55
-6243.57
-6356.93
-6432.52
-6470.68
-6472.89
-6441.63
-6377.56
-6282.06
-6156.49
-6002.26
-5820.77
-5613.39
-5381.5
-5126.44
-4849.56
-4552.1
-4235.37
-3900.72
-3549.39
-3182.62
-2801.63
-2407.64
-2001.88
-1585.62
-1160.16
-726.863
-287.696
157.092
606.965
1058
1508.71
1957.43
2402.01
2840.12
3269.22
3686.51
4089
4473.44
4836.41
5174.33
5483.54
5760.41
6001.13
6201.63
6358.66
6468.52
6528.22
6535.04
6484.85
6382.27
6223.64
6007.84
5735.88
5409.88
5032.47
4607.62
4139.76
3635.04
3100.4
2543.61
-3852.9
-3738.71
-3610.49
-3466.51
-3304.83
-3123.72
-2921.33
-2696.04
-2446.32
-2170.79
-1868.37
-1538.39
-1180.42
-794.495
-381.523
57.8073
522.357
1012.87
1524.3
2053.59
2597.47
3152.36
3714.13
4278.28
4840.07
5394.46
5936.35
6460.54
6961.89
7435.33
7876.1
8279.72
8641.74
8958.05
9225.08
9439.72
9599.41
9702.12
9746.48
9730.24
9657.63
9524.73
9332.84
9082.88
8776.82
8417.04
8006.38
7548.13
7046.02
6504.02
5926.58
5318.73
4685.69
4032.76
3365.35
2688.92
2008.86
1330.39
658.251
-3.35333
-646.953
-1269.18
-1866.53
-2435.65
-2973.52
-3477.51
-3945.49
-4375.85
-4767.29
-5118.76
-5429.74
-5700.08
-5929.88
-6119.55
-6269.73
-6381.27
-6455.07
-6491.22
-6491.77
-6458.86
-6393.24
-6296.24
-6169.28
-6013.73
-5831.01
-5622.49
-5389.54
-5133.5
-4855.7
-4557.39
-4239.89
-3904.51
-3552.52
-3185.15
-2803.59
-2409.08
-2002.83
-1586.12
-1160.24
-726.549
-287.018
158.124
608.308
1059.64
1510.64
1959.61
2404.44
2842.77
3272.08
3689.55
4092.2
4476.76
4839.83
5177.79
5487.01
5763.82
6004.5
6204.77
6361.6
6471.2
6530.6
6537.09
6486.53
6383.58
6224.6
6008.47
5736.21
5409.95
5032.35
4607.36
4139.4
3634.64
3100.01
2543.26
-3882.2
-3770.96
-3645.72
-3504.69
-3345.81
-3167.33
-2967.3
-2744.01
-2495.87
-2221.42
-1919.51
-1589.41
-1230.63
-843.109
-428.132
14.1707
482.687
977.003
1493.67
2028.77
2579.01
3140.75
3709.8
4281.57
4851.18
5413.5
5963.3
6495.24
7004.06
7484.57
7931.9
8341.47
8708.71
9029.44
9300.01
9517.27
9678.61
9782
9826.08
9808.55
9733.75
9598
9402.35
9147.84
8836.53
8470.91
8053.92
7588.96
7079.86
6530.7
5946.04
5331.03
4690.99
4031.33
3357.54
2675.17
1989.64
1306.23
629.75
-35.36
-682.003
-1306.71
-1905.94
-2476.36
-3015
-3519.26
-3987.07
-4416.86
-4807.39
-5157.66
-5467.21
-5735.93
-5963.98
-6151.81
-6300.1
-6409.76
-6481.7
-6515.6
-6514.38
-6479.69
-6412.33
-6313.67
-6185.11
-6028.06
-5843.91
-5634.04
-5399.81
-5142.57
-4863.63
-4564.25
-4245.74
-3909.42
-3556.54
-3188.32
-2805.97
-2410.69
-2003.72
-1586.3
-1159.74
-725.404
-285.246
160.531
611.308
1063.23
1514.81
1964.34
2409.7
2848.57
3278.38
3696.36
4099.48
4484.48
4847.93
5186.21
5495.64
5772.55
6013.04
6213.21
6369.73
6478.82
6537.51
6543.11
6491.42
6387.23
6226.89
6009.22
5735.31
5407.34
5028.18
4601.24
4131.13
3623.82
3086.36
2525.8
-3903.67
-3794.74
-3671.85
-3533.17
-3376.58
-3200.27
-3002.22
-2780.68
-2533.97
-2260.6
-1959.31
-1629.38
-1270.22
-881.735
-465.321
-20.9881
450.39
947.695
1468.36
2007.97
2563.24
3130.48
3705.45
4283.48
4859.62
5428.63
5985.17
6523.81
7039.18
7525.96
7979.22
8394.24
8766.38
9091.37
9365.49
9585.52
9748.8
9853.29
9897.59
9879.4
9803.17
9665.29
9466.66
9208.39
8892.64
8521.97
8099.39
7628.41
7112.95
6557.18
5965.75
5343.94
4697.15
4030.9
3350.79
2662.42
1971.3
1282.73
601.599
-67.3958
-717.448
-1345.02
-1946.55
-2518.7
-3058.52
-3563.45
-4031.45
-4461.01
-4850.93
-5200.27
-5508.62
-5775.91
-6002.36
-6188.47
-6334.94
-6442.76
-6512.98
-6544.44
-6541.52
-6505.01
-6435.85
-6335.44
-6205.2
-6046.53
-5860.84
-5649.49
-5413.86
-5155.28
-4875.06
-4574.47
-4254.79
-3917.37
-3563.44
-3194.22
-2810.91
-2414.7
-2006.81
-1588.5
-1161.06
-725.86
-284.839
161.817
613.451
1066.26
1518.75
1969.24
2415.58
2855.45
3286.28
3705.27
4109.4
4495.38
4859.75
5198.86
5509.04
5786.58
6027.54
6228.25
6384.7
6493.55
6551.81
6556.7
6503.93
6398.59
6236.74
6017.34
5741.5
5411.4
5030.12
4601.21
4129.27
3620.24
3081.09
2519.06
-3925.96
-3819.47
-3699.07
-3562.88
-3408.71
-3234.71
-3038.77
-2819.11
-2573.96
-2301.75
-2001.18
-1671.46
-1311.95
-922.544
-504.615
-58.178
416.093
916.561
1441.4
1985.7
2546.21
3119.22
3700.4
4285.01
4868.01
5444.06
6007.72
6553.43
7075.71
7569.15
8028.68
8449.49
8826.84
9156.38
9434.29
9657.3
9822.69
9928.38
9972.98
9954.16
9876.51
9736.42
9534.68
9272.51
8952.12
8576.16
8147.73
7670.43
7148.27
6585.53
5986.95
5357.93
4703.99
4030.74
3343.89
2649.14
1952.06
1258.01
571.872
-101.313
-754.986
-1385.63
-1989.61
-2563.62
-3104.7
-3610.37
-4078.61
-4507.97
-4897.28
-5245.67
-5552.78
-5818.61
-6043.41
-6227.73
-6372.33
-6478.24
-6546.76
-6575.45
-6570.85
-6532.43
-6461.38
-6359.15
-6227.14
-6066.78
-5879.45
-5666.56
-5429.44
-5169.45
-4887.89
-4586
-4265.1
-3926.52
-3571.49
-3201.21
-2816.88
-2419.68
-2010.83
-1591.56
-1163.18
-727.038
-285.072
162.532
615.116
1068.9
1522.42
1973.96
2421.4
2862.41
3294.43
3714.64
4119.99
4507.19
4872.75
5212.99
5524.2
5802.63
6044.34
6245.54
6402.17
6511.14
6569.17
6573.47
6519.59
6412.93
6249.54
6028.32
5750.45
5418.14
5034.47
4603.09
4128.69
3617.35
3076.08
2512.15
-3949.07
-3845.15
-3727.38
-3593.83
-3442.23
-3270.67
-3076.99
-2859.33
-2615.85
-2344.91
-2045.14
-1715.7
-1355.87
-965.609
-546.054
-97.4523
379.756
883.541
1412.73
1961.9
2527.89
3106.92
3694.61
4286.12
4876.32
5459.77
6030.93
6584.1
7113.68
7614.13
8080.3
8507.25
8890.13
9224.5
9506.46
9732.65
9900.3
10007.3
10052.3
10032.9
9953.79
9811.43
9606.48
9340.23
9014.99
8633.49
8198.93
7714.98
7185.78
6615.68
6009.55
5372.91
4711.39
4030.74
3336.76
2635.26
1931.88
1232.03
540.557
-137.107
-794.597
-1428.49
-2035.1
-2611.09
-3153.57
-3660.05
-4128.58
-4557.76
-4946.47
-5293.9
-5599.76
-5864.06
-6087.16
-6269.62
-6412.26
-6516.22
-6583.11
-6608.54
-6602.39
-6561.97
-6488.94
-6384.79
-6250.93
-6088.8
-5899.78
-5685.26
-5446.59
-5185.12
-4902.14
-4598.91
-4276.72
-3936.91
-3580.71
-3209.31
-2823.9
-2425.65
-2015.75
-1595.46
-1166.07
-728.902
-285.913
162.731
616.359
1071.23
1525.88
1978.61
2427.3
2869.61
3302.99
3724.61
4131.4
4520.06
4887.05
5228.67
5541.18
5820.78
6063.52
6265.49
6422.73
6531.95
6589.91
6593.78
6538.86
6430.95
6265.86
6042.52
5762.18
5427.17
5040.65
4606.36
4129.08
3614.99
3071.2
2505.06
-3972.99
-3871.77
-3756.79
-3626
-3477.13
-3308.16
-3116.89
-2901.36
-2659.67
-2390.12
-2091.24
-1762.13
-1402.01
-1011
-589.677
-138.847
341.334
848.594
1382.32
1936.53
2508.22
3093.55
3688.04
4286.77
4884.54
5475.76
6054.79
6615.8
7153.07
7660.93
8134.1
8567.55
8956.28
9295.77
9582.03
9811.62
9981.71
10090.1
10135.6
10115.5
10035.1
9890.34
9682.04
9411.55
9081.25
8693.95
8252.95
7762.03
7225.41
6647.57
6033.5
5388.83
4719.33
4030.88
3329.38
2620.77
1910.75
1204.8
507.625
-174.82
-836.325
-1473.69
-2083.09
-2661.22
-3205.19
-3712.57
-4181.44
-4610.47
-4998.58
-5345.02
-5649.56
-5912.3
-6133.61
-6314.14
-6454.74
-6556.57
-6621.37
-6644.37
-6636.16
-6593.61
-6518.52
-6412.36
-6276.58
-6112.59
-5921.79
-5705.58
-5465.29
-5202.28
-4917.81
-4613.16
-4289.62
-3948.52
-3591.09
-3218.52
-2831.97
-2432.6
-2021.6
-1600.22
-1169.73
-731.479
-287.391
162.381
617.143
1073.2
1529.1
1983.14
2433.22
2877
3311.92
3735.15
4143.6
4533.95
4902.63
5245.9
5559.97
5841.03
6085.06
6288.08
6446.15
6555.89
6613.96
6617.54
6561.65
6452.46
6285.63
6060.08
5777.14
5439.2
5049.51
4611.91
4131.26
3613.87
3066.94
2497.93
-3997.71
-3899.33
-3787.29
-3659.41
-3513.42
-3347.19
-3158.47
-2945.21
-2705.46
-2437.41
-2139.5
-1810.8
-1450.4
-1058.78
-635.542
-182.405
300.785
811.655
1350.11
1909.53
2487.16
3079.05
3680.65
4286.95
4892.63
5491.99
6079.29
6648.54
7193.9
7709.56
8190.1
8630.4
9025.32
9370.23
9661.05
9894.25
10066.9
10176.9
10222.8
10202.3
10120.3
9973.19
9761.42
9486.5
9150.91
8757.54
8309.8
7811.57
7267.19
6681.22
6058.8
5405.69
4727.81
4031.14
3321.74
2605.62
1888.62
1176.24
473.001
-214.552
-880.255
-1521.3
-2133.67
-2714.07
-3259.64
-3767.98
-4237.23
-4666.11
-5053.61
-5399.03
-5702.22
-5963.33
-6182.79
-6361.31
-6499.79
-6599.36
-6661.52
-6682.98
-6672.15
-6627.36
-6550.11
-6441.86
-6304.07
-6138.14
-5945.5
-5727.51
-5485.54
-5220.9
-4934.89
-4628.75
-4303.8
-3961.34
-3602.63
-3228.82
-2841.07
-2440.52
-2028.37
-1605.82
-1174.18
-734.762
-289.5
161.487
617.475
1074.82
1532.08
1987.56
2439.17
2884.58
3321.22
3746.25
4156.59
4548.86
4919.48
5264.66
5580.58
5863.37
6108.97
6313.31
6472.45
6582.88
6641.3
6644.77
6587.96
6477.45
6308.83
6080.96
5795.22
5454.1
5060.89
4619.55
4135.04
3613.79
3063.17
2490.75
-4023.22
-3927.83
-3818.89
-3694.06
-3551.13
-3387.78
-3201.77
-2990.93
-2753.26
-2486.82
-2189.99
-1861.76
-1501.09
-1108.82
-683.916
-228.189
258.055
772.642
1316.03
1880.84
2464.63
3063.37
3672.38
4286.58
4900.54
5508.44
6104.41
6682.3
7236.16
7760
8248.32
8695.83
9097.27
9447.91
9743.55
9980.6
10156.1
10267.7
10314.1
10293
10209.7
10060
9844.64
9565.11
9223.99
8824.29
8369.51
7863.63
7311.1
6716.63
6085.45
5423.48
4736.78
4031.48
3313.76
2589.76
1865.43
1146.31
436.549
-256.334
-926.429
-1571.38
-2186.89
-2769.68
-3316.94
-3826.31
-4295.99
-4724.73
-5111.6
-5455.97
-5757.75
-6017.17
-6234.71
-6411.13
-6547.4
-6644.63
-6704.18
-6723.73
-6710.34
-6663.22
-6583.72
-6473.3
-6333.4
-6165.47
-5970.89
-5751.05
-5507.32
-5241
-4953.38
-4645.68
-4319.24
-3975.38
-3615.32
-3240.22
-2851.21
-2449.43
-2036.05
-1612.28
-1179.41
-738.753
-292.239
160.041
617.35
1076.08
1534.81
1991.86
2445.15
2892.34
3330.88
3757.93
4170.36
4564.79
4937.6
5284.97
5603.01
5887.82
6135.26
6341.21
6501.67
6613.05
6671.97
6675.5
6617.85
6505.94
6335.49
6105.17
5816.42
5471.8
5074.71
4629.19
4140.34
3614.73
3059.86
2483.43
-4050.85
-3958.75
-3853.28
-3731.8
-3592.29
-3432.13
-3249.16
-3041.02
-2805.69
-2541.1
-2245.53
-1917.9
-1557.08
-1163.84
-737.478
-278.916
210.664
729.292
1278.08
1848.75
2439.31
3045.55
3662.72
4285.62
4908.72
5526.04
6131.6
6719.07
7282.36
7815.29
8312.25
8767.79
9176.51
9533.55
9834.6
10076
10254.6
10368
10415.1
10393.5
10308.7
10156.3
9936.95
9652.34
9305.14
8898.45
8435.87
7921.52
7359.98
6756.05
6115.14
5443.31
4746.79
4031.87
3304.87
2572.08
1839.57
1112.93
395.804
-302.962
-978.049
-1627.37
-2246.39
-2831.88
-3381.06
-3891.6
-4361.77
-4790.39
-5176.58
-5519.81
-5820.04
-6077.59
-6293.01
-6467.13
-6600.97
-6695.62
-6752.31
-6769.56
-6753.45
-6703.75
-6621.76
-6508.93
-6366.71
-6196.54
-5999.82
-5777.94
-5532.25
-5264.06
-4974.64
-4665.22
-4337.12
-3991.68
-3630.12
-3253.58
-2863.17
-2460.01
-2045.25
-1620.1
-1185.84
-743.782
-295.847
157.913
616.733
1077.05
1537.49
1996.36
2451.59
2900.88
3341.65
3771.07
4186.01
4583.03
4958.47
5308.47
5629.1
5916.39
6166.13
6374.11
6536.27
6648.93
6708.59
6712.41
6653.97
6540.42
6367.96
6134.86
5842.62
5493.91
5092.24
4641.76
4147.7
3616.79
3056.7
2475.35
-4080.73
-3992.28
-3890.68
-3772.89
-3637.21
-3480.58
-3301.04
-3095.93
-2863.27
-2600.79
-2306.69
-1979.81
-1619.08
-1224.58
-796.677
-335.213
157.993
680.999
1235.68
1812.71
2410.7
3025.19
3651.33
4283.82
4917.02
5544.75
6160.94
6759.03
7332.78
7875.83
8382.41
8846.91
9263.76
9627.97
9935.1
10181.3
10363.5
10479.1
10526.9
10504.9
10418.5
10263.1
10039.4
9749.24
9395.32
8980.9
8509.7
7985.96
7414.41
6799.99
6148.26
5465.45
4757.98
4032.32
3294.97
2552.37
1810.72
1075.74
350.235
-355.09
-1035.79
-1689.98
-2312.95
-2901.48
-3452.82
-3964.7
-4435.45
-4863.95
-5249.41
-5591.38
-5889.91
-6145.4
-6358.49
-6530.05
-6661.23
-6753.1
-6806.54
-6821.13
-6802.11
-6749.57
-6664.82
-6549.32
-6404.53
-6231.89
-6032.81
-5808.66
-5560.8
-5290.54
-4999.13
-4687.78
-4357.84
-4010.65
-3647.41
-3269.27
-2877.3
-2472.59
-2056.28
-1629.58
-1193.75
-750.101
-300.561
154.894
615.438
1077.59
1539.98
2000.96
2458.46
2910.19
3353.6
3785.83
4203.73
4603.85
4982.46
5335.65
5659.44
5949.77
6202.36
6412.9
6577.23
6691.58
6752.29
6756.72
6697.61
6582.12
6407.46
6171.21
5874.95
5521.45
5114.35
4657.95
4157.62
3620.3
3053.93
2466.6
-4111.52
-4026.96
-3929.42
-3815.48
-3683.92
-3530.99
-3355.11
-3153.22
-2923.44
-2663.24
-2370.77
-2044.7
-1684.37
-1288.37
-858.857
-394.546
102.412
629.95
1190.68
1774.32
2380.05
3003.15
3638.67
4281.2
4924.96
5563.62
6190.97
6800.22
7385
7938.68
8455.4
8929.34
9354.77
9726.55
10040.1
10291.5
10477.5
10595.3
10643.8
10621.6
10533.6
10375.1
10146.9
9850.88
9489.95
9067.44
8587.21
8053.65
7471.6
6846.16
6183.04
5488.68
4769.69
4032.72
3284.47
2531.52
1780.29
1036.58
302.1
-410.072
-1096.69
-1756
-2383.12
-2974.83
-3528.44
-4041.74
-4513.09
-4941.48
-5326.17
-5666.82
-5963.57
-6216.91
-6427.55
-6596.45
-6724.87
-6813.97
-6863.74
-6875.59
-6853.59
-6798.11
-6710.48
-6592.2
-6444.73
-6269.52
-6067.97
-5841.45
-5591.34
-5318.93
-5025.43
-4712.07
-4380.21
-4031.18
-3666.2
-3286.39
-2892.79
-2486.45
-2068.52
-1640.18
-1202.69
-757.362
-306.114
151.124
613.513
1077.61
1542.11
2005.35
2465.31
2919.7
3365.98
3801.28
4222.45
4625.98
5008.11
5364.86
5692.18
5985.95
6241.79
6455.26
6622.13
6738.52
6801.33
6805.88
6746.21
6628.59
6451.63
6212.06
5911.48
5552.77
5139.72
4676.79
4169.5
3625.03
3051.57
2457.43
-4143.46
-4062.64
-3969.33
-3859.57
-3732.42
-3583.35
-3411.39
-3212.9
-2986.23
-2728.5
-2437.83
-2112.66
-1752.56
-1355.67
-924.112
-456.99
43.8387
576.15
1142.87
1733.46
2347.27
2979.35
3624.65
4277.66
4932.49
5582.58
6221.63
6842.59
7438.94
8003.82
8531.21
9015.11
9449.6
9829.39
10149.7
10406.7
10596.6
10716.9
10766.1
10743.7
10654.1
10492.4
10259.5
9957.35
9589.08
9158.11
8668.42
8124.55
7531.49
6894.48
6219.4
5512.9
4781.8
4032.95
3273.24
2509.43
1748.13
995.473
251.17
-468.005
-1160.84
-1825.53
-2456.99
-3052.04
-3608.03
-4122.81
-4594.78
-5023.04
-5406.92
-5746.18
-6041.06
-6292.14
-6500.22
-6666.33
-6791.9
-6878.23
-6923.9
-6932.94
-6907.89
-6849.35
-6758.74
-6637.56
-6487.3
-6309.42
-6105.29
-5876.32
-5623.86
-5349.21
-5053.55
-4738.1
-4404.21
-4053.27
-3686.48
-3304.93
-2909.63
-2501.6
-2081.96
-1651.9
-1212.67
-765.57
-312.513
146.599
610.947
1077.12
1543.86
2009.53
2472.13
2929.38
3378.76
3817.41
4242.15
4649.42
5035.42
5396.1
5727.34
6024.94
6284.43
6501.22
6670.96
6789.64
6853.64
6859.75
6799.83
6679.76
6500.48
6257.43
5952.22
5587.88
5168.36
4698.27
4183.3
3630.88
3049.51
2447.77
-4176.53
-4099.13
-4010.59
-3905.15
-3782.75
-3637.68
-3469.93
-3275
-3051.71
-2796.64
-2507.97
-2184.07
-1823.45
-1426.42
-992.679
-522.64
-17.808
519.941
1091.74
1690.05
2312.29
2953.71
3609.2
4273.17
4939.56
5601.62
6252.93
6886.18
7494.68
8071.29
8609.89
9104.25
9548.26
9936.49
10264
10526.8
10721.1
10843.9
10893.8
10871.4
10780.1
10615.1
10377.2
10068.7
9692.79
9252.98
8753.4
8198.74
7594.15
6945.03
6257.41
5538.16
4794.34
4033.01
3261.26
2486.04
1714.19
952.418
197.281
-528.95
-1228.36
-1898.67
-2534.66
-3133.18
-3691.66
-4207.98
-4680.6
-5108.7
-5491.72
-5829.51
-6122.43
-6371.14
-6576.53
-6739.73
-6862.34
-6945.86
-6987.03
-6993.22
-6965.03
-6903.31
-6809.58
-6685.39
-6532.25
-6351.58
-6144.79
-5913.25
-5658.36
-5381.39
-5083.49
-4765.84
-4429.85
-4076.91
-3708.25
-3324.91
-2927.84
-2518.05
-2096.63
-1664.75
-1223.7
-774.735
-319.785
141.317
607.724
1076.1
1545.21
2013.46
2478.88
2939.2
3391.92
3834.19
4262.79
4674.14
5064.37
5429.36
5764.9
6066.75
6330.29
6550.82
6723.82
6845.2
6911.59
6918.88
6858.94
6735.93
6554.26
6307.51
5997.33
5626.92
5200.38
4722.48
4199.1
3637.94
3047.82
2437.69
-4210.31
-4136.74
-4053.49
-3951.91
-3834.97
-3693.96
-3530.8
-3339.55
-3119.95
-2867.73
-2581.32
-2258.45
-1898.05
-1500.39
-1064.65
-591.62
-82.6734
460.529
1037.87
1644.03
2275.01
2926.14
3592.26
4267.64