/*--------------------------------*- C++ -*----------------------------------*\
| =========                 |                                                 |
| \\      /  F ield         | OpenFOAM: The Open Source CFD Toolbox           |
|  \\    /   O peration     | Version:  v1912                                 |
|   \\  /    A nd           | Website:  www.openfoam.com                      |
|    \\/     M anipulation  |                                                 |
\*---------------------------------------------------------------------------*/
FoamFile
{
    version     2.0;
    format      ascii;
    class       volSymmTensorField;
    location    "70";
    object      R;
}
// * * * * * * * * * * * * * * * * * * * * * * * * * * * * * * * * * * * * * //

dimensions      [0 2 -2 0 0 0 0];


internalField   nonuniform List<symmTensor> 
14268
(
(5.0576e-07 -7.93654e-08 0 5.37823e-07 0 5.2203e-07)
(5.0518e-07 -7.91973e-08 0 5.37062e-07 0 5.21356e-07)
(5.04633e-07 -7.90342e-08 0 5.36334e-07 0 5.20719e-07)
(5.04164e-07 -7.88695e-08 0 5.35584e-07 0 5.20108e-07)
(5.03785e-07 -7.87073e-08 0 5.34809e-07 0 5.19526e-07)
(5.03523e-07 -7.85481e-08 0 5.33997e-07 0 5.18986e-07)
(5.03359e-07 -7.8391e-08 0 5.33166e-07 0 5.18483e-07)
(5.03297e-07 -7.8241e-08 0 5.32344e-07 0 5.1804e-07)
(5.03395e-07 -7.80888e-08 0 5.31454e-07 0 5.17641e-07)
(5.03653e-07 -7.7938e-08 0 5.30511e-07 0 5.17294e-07)
(5.0406e-07 -7.77944e-08 0 5.29553e-07 0 5.17016e-07)
(5.04683e-07 -7.76477e-08 0 5.28477e-07 0 5.16791e-07)
(5.05552e-07 -7.74956e-08 0 5.27269e-07 0 5.1662e-07)
(5.06671e-07 -7.73407e-08 0 5.25925e-07 0 5.16515e-07)
(5.0801e-07 -7.71825e-08 0 5.24486e-07 0 5.16472e-07)
(5.09539e-07 -7.70217e-08 0 5.22995e-07 0 5.16498e-07)
(5.11252e-07 -7.68624e-08 0 5.21479e-07 0 5.16599e-07)
(5.13177e-07 -7.67048e-08 0 5.19877e-07 0 5.16763e-07)
(5.15302e-07 -7.6545e-08 0 5.18184e-07 0 5.16983e-07)
(5.1762e-07 -7.63771e-08 0 5.16408e-07 0 5.17259e-07)
(5.20113e-07 -7.61982e-08 0 5.14556e-07 0 5.17582e-07)
(5.2277e-07 -7.6003e-08 0 5.12599e-07 0 5.17939e-07)
(5.25529e-07 -7.57969e-08 0 5.10617e-07 0 5.18331e-07)
(5.28422e-07 -7.55747e-08 0 5.08524e-07 0 5.18736e-07)
(5.31365e-07 -7.53437e-08 0 5.06401e-07 0 5.19148e-07)
(5.3434e-07 -7.5104e-08 0 5.04229e-07 0 5.19553e-07)
(5.37305e-07 -7.48515e-08 0 5.02025e-07 0 5.19934e-07)
(5.40224e-07 -7.45835e-08 0 4.99774e-07 0 5.20271e-07)
(5.4302e-07 -7.43001e-08 0 4.97525e-07 0 5.20545e-07)
(5.45667e-07 -7.4001e-08 0 4.95267e-07 0 5.20741e-07)
(5.48144e-07 -7.36798e-08 0 4.92982e-07 0 5.20833e-07)
(5.50205e-07 -7.33748e-08 0 4.90828e-07 0 5.20795e-07)
(5.51832e-07 -7.30778e-08 0 4.88752e-07 0 5.20587e-07)
(5.53051e-07 -7.27597e-08 0 4.86736e-07 0 5.20208e-07)
(5.53864e-07 -7.24199e-08 0 4.8475e-07 0 5.19641e-07)
(5.54229e-07 -7.2065e-08 0 4.82815e-07 0 5.18882e-07)
(5.54142e-07 -7.17005e-08 0 4.80936e-07 0 5.17917e-07)
(5.53645e-07 -7.13273e-08 0 4.79048e-07 0 5.16746e-07)
(5.52736e-07 -7.09421e-08 0 4.77188e-07 0 5.15376e-07)
(5.51603e-07 -7.05627e-08 0 4.75419e-07 0 5.13935e-07)
(5.50266e-07 -7.01969e-08 0 4.73827e-07 0 5.12471e-07)
(5.4879e-07 -6.98348e-08 0 4.72325e-07 0 5.10974e-07)
(5.47025e-07 -6.94967e-08 0 4.71069e-07 0 5.09452e-07)
(5.45088e-07 -6.9161e-08 0 4.69907e-07 0 5.07886e-07)
(5.4285e-07 -6.88463e-08 0 4.68986e-07 0 5.06284e-07)
(5.40318e-07 -6.85535e-08 0 4.68281e-07 0 5.04643e-07)
(5.37516e-07 -6.82737e-08 0 4.67753e-07 0 5.02955e-07)
(5.34384e-07 -6.80181e-08 0 4.67486e-07 0 5.01233e-07)
(5.30952e-07 -6.77828e-08 0 4.67422e-07 0 4.99466e-07)
(5.27172e-07 -6.75732e-08 0 4.67615e-07 0 4.97657e-07)
(5.23006e-07 -6.74017e-08 0 4.68093e-07 0 4.95812e-07)
(5.18608e-07 -6.7263e-08 0 4.68771e-07 0 4.93947e-07)
(5.14245e-07 -6.71015e-08 0 4.69377e-07 0 4.92069e-07)
(5.09659e-07 -6.69347e-08 0 4.7019e-07 0 4.90177e-07)
(5.05007e-07 -6.67647e-08 0 4.71063e-07 0 4.88286e-07)
(5.00285e-07 -6.66e-08 0 4.72023e-07 0 4.86397e-07)
(4.95555e-07 -6.64345e-08 0 4.72985e-07 0 4.84506e-07)
(4.90783e-07 -6.62744e-08 0 4.74006e-07 0 4.82623e-07)
(4.86041e-07 -6.6112e-08 0 4.74989e-07 0 4.80737e-07)
(4.81361e-07 -6.59436e-08 0 4.75926e-07 0 4.7886e-07)
(4.76775e-07 -6.57564e-08 0 4.76743e-07 0 4.76969e-07)
(4.72244e-07 -6.55659e-08 0 4.77539e-07 0 4.75093e-07)
(4.67855e-07 -6.53542e-08 0 4.78163e-07 0 4.73203e-07)
(4.63555e-07 -6.51262e-08 0 4.78685e-07 0 4.71305e-07)
(4.59386e-07 -6.48776e-08 0 4.79027e-07 0 4.6938e-07)
(4.55461e-07 -6.45955e-08 0 4.79074e-07 0 4.67441e-07)
(4.51792e-07 -6.42752e-08 0 4.78749e-07 0 4.65435e-07)
(4.48207e-07 -6.39512e-08 0 4.78277e-07 0 4.63423e-07)
(4.44895e-07 -6.35772e-08 0 4.77408e-07 0 4.61335e-07)
(4.41681e-07 -6.31946e-08 0 4.76381e-07 0 4.5923e-07)
(4.38621e-07 -6.27849e-08 0 4.75132e-07 0 4.57084e-07)
(4.35672e-07 -6.23576e-08 0 4.73688e-07 0 4.54904e-07)
(4.32788e-07 -6.1915e-08 0 4.72127e-07 0 4.52701e-07)
(4.30077e-07 -6.14519e-08 0 4.7035e-07 0 4.50464e-07)
(4.27458e-07 -6.09691e-08 0 4.68413e-07 0 4.48195e-07)
(4.24925e-07 -6.04681e-08 0 4.66347e-07 0 4.45903e-07)
(4.22506e-07 -5.99713e-08 0 4.64319e-07 0 4.43682e-07)
(4.20298e-07 -5.94817e-08 0 4.62267e-07 0 4.41554e-07)
(4.18284e-07 -5.89935e-08 0 4.60215e-07 0 4.39515e-07)
(4.16467e-07 -5.85019e-08 0 4.58107e-07 0 4.37546e-07)
(4.14778e-07 -5.80131e-08 0 4.56033e-07 0 4.35655e-07)
(4.13242e-07 -5.75131e-08 0 4.5391e-07 0 4.33814e-07)
(4.11841e-07 -5.70109e-08 0 4.51762e-07 0 4.32024e-07)
(4.10541e-07 -5.65048e-08 0 4.49592e-07 0 4.30274e-07)
(4.09343e-07 -5.5986e-08 0 4.47377e-07 0 4.28549e-07)
(4.08247e-07 -5.54593e-08 0 4.45083e-07 0 4.26831e-07)
(4.07232e-07 -5.4921e-08 0 4.42716e-07 0 4.25124e-07)
(4.0629e-07 -5.43684e-08 0 4.40261e-07 0 4.23403e-07)
(4.05437e-07 -5.37933e-08 0 4.37637e-07 0 4.21639e-07)
(4.04558e-07 -5.3208e-08 0 4.34998e-07 0 4.19861e-07)
(4.03757e-07 -5.25926e-08 0 4.3213e-07 0 4.18005e-07)
(4.02912e-07 -5.19559e-08 0 4.2919e-07 0 4.16093e-07)
(4.0207e-07 -5.12925e-08 0 4.26061e-07 0 4.14089e-07)
(4.01219e-07 -5.05939e-08 0 4.22729e-07 0 4.11982e-07)
(4.00293e-07 -4.98678e-08 0 4.19235e-07 0 4.09754e-07)
(3.99248e-07 -4.91168e-08 0 4.15579e-07 0 4.07389e-07)
(3.98142e-07 -4.83366e-08 0 4.11641e-07 0 4.0486e-07)
(3.97243e-07 -4.74791e-08 0 4.07102e-07 0 4.02132e-07)
(3.96274e-07 -4.65669e-08 0 4.02252e-07 0 3.9922e-07)
(3.95054e-07 -4.56112e-08 0 3.97215e-07 0 3.96082e-07)
(3.93506e-07 -4.46247e-08 0 3.92087e-07 0 3.92742e-07)
(3.91647e-07 -4.35992e-08 0 3.86781e-07 0 3.89153e-07)
(3.89217e-07 -4.25481e-08 0 3.815e-07 0 3.85295e-07)
(3.86585e-07 -4.14386e-08 0 3.75826e-07 0 3.81134e-07)
(3.83833e-07 -4.02845e-08 0 3.6981e-07 0 3.76761e-07)
(3.80589e-07 -3.9091e-08 0 3.63586e-07 0 3.72039e-07)
(3.77324e-07 -3.78212e-08 0 3.56858e-07 0 3.67029e-07)
(3.73186e-07 -3.65398e-08 0 3.50176e-07 0 3.61644e-07)
(3.68714e-07 -3.51422e-08 0 3.43078e-07 0 3.55819e-07)
(3.63129e-07 -3.37749e-08 0 3.36021e-07 0 3.4954e-07)
(3.57316e-07 -3.22851e-08 0 3.28253e-07 0 3.42729e-07)
(3.50152e-07 -3.0824e-08 0 3.20426e-07 0 3.35282e-07)
(3.42391e-07 -2.92347e-08 0 3.11979e-07 0 3.27173e-07)
(3.33301e-07 -2.76505e-08 0 3.03265e-07 0 3.18324e-07)
(3.22965e-07 -2.59362e-08 0 2.94201e-07 0 3.08631e-07)
(3.10286e-07 -2.42558e-08 0 2.85549e-07 0 2.98024e-07)
(2.95892e-07 -2.25379e-08 0 2.76951e-07 0 2.86515e-07)
(2.80583e-07 -2.08501e-08 0 2.67624e-07 0 2.74193e-07)
(2.64691e-07 -1.90144e-08 0 2.56967e-07 0 2.60934e-07)
(2.4845e-07 -1.70551e-08 0 2.45046e-07 0 2.46855e-07)
(2.31741e-07 -1.51551e-08 0 2.32705e-07 0 2.32343e-07)
(2.15196e-07 -1.32651e-08 0 2.19231e-07 0 2.17288e-07)
(2.00227e-07 -1.12468e-08 0 2.03072e-07 0 2.01744e-07)
(1.86784e-07 -9.19562e-09 0 1.84522e-07 0 1.85806e-07)
(1.72125e-07 -7.27053e-09 0 1.64756e-07 0 1.68599e-07)
(1.54248e-07 -5.52843e-09 0 1.44262e-07 0 1.49353e-07)
(1.3299e-07 -3.97857e-09 0 1.22331e-07 0 1.27704e-07)
(1.09139e-07 -2.52373e-09 0 9.86247e-08 0 1.03896e-07)
(8.32907e-08 -1.383e-09 0 7.4381e-08 0 7.88375e-08)
(5.44622e-08 -6.19049e-10 0 4.81988e-08 0 5.13274e-08)
(2.8547e-08 -2.03514e-10 0 2.52541e-08 0 2.68968e-08)
(1.32337e-08 -6.93117e-11 0 1.17397e-08 0 1.24867e-08)
(5.85486e-09 -2.79544e-11 0 5.21604e-09 0 5.53552e-09)
(2.45922e-09 -2.37906e-11 0 2.21977e-09 0 2.33869e-09)
(1.43373e-07 -1.61534e-08 0 1.53357e-07 0 1.48318e-07)
(1.4386e-07 -1.62345e-08 0 1.53806e-07 0 1.48786e-07)
(1.44398e-07 -1.63206e-08 0 1.54281e-07 0 1.49292e-07)
(1.44981e-07 -1.641e-08 0 1.54771e-07 0 1.49828e-07)
(1.45614e-07 -1.65046e-08 0 1.55275e-07 0 1.50395e-07)
(1.46308e-07 -1.66051e-08 0 1.558e-07 0 1.51005e-07)
(1.47066e-07 -1.67111e-08 0 1.56344e-07 0 1.51654e-07)
(1.479e-07 -1.68238e-08 0 1.56913e-07 0 1.52356e-07)
(1.48817e-07 -1.69427e-08 0 1.5751e-07 0 1.53113e-07)
(1.49823e-07 -1.70689e-08 0 1.58135e-07 0 1.53927e-07)
(1.50926e-07 -1.7203e-08 0 1.58787e-07 0 1.54805e-07)
(1.5214e-07 -1.73446e-08 0 1.59478e-07 0 1.55758e-07)
(1.53467e-07 -1.74933e-08 0 1.60195e-07 0 1.56779e-07)
(1.54917e-07 -1.76505e-08 0 1.60952e-07 0 1.57883e-07)
(1.56488e-07 -1.78144e-08 0 1.61742e-07 0 1.59063e-07)
(1.58188e-07 -1.79869e-08 0 1.62571e-07 0 1.60327e-07)
(1.60021e-07 -1.81667e-08 0 1.6343e-07 0 1.61673e-07)
(1.61996e-07 -1.83541e-08 0 1.64327e-07 0 1.63109e-07)
(1.64106e-07 -1.8547e-08 0 1.65253e-07 0 1.64627e-07)
(1.6635e-07 -1.8744e-08 0 1.66207e-07 0 1.66226e-07)
(1.68722e-07 -1.89441e-08 0 1.67182e-07 0 1.679e-07)
(1.71216e-07 -1.91462e-08 0 1.68187e-07 0 1.69648e-07)
(1.7382e-07 -1.93484e-08 0 1.69207e-07 0 1.71461e-07)
(1.76528e-07 -1.95509e-08 0 1.70246e-07 0 1.73333e-07)
(1.79315e-07 -1.97513e-08 0 1.71285e-07 0 1.75246e-07)
(1.8217e-07 -1.99492e-08 0 1.7233e-07 0 1.77195e-07)
(1.85065e-07 -2.01417e-08 0 1.73365e-07 0 1.7916e-07)
(1.8798e-07 -2.03279e-08 0 1.74388e-07 0 1.81129e-07)
(1.90882e-07 -2.05045e-08 0 1.75389e-07 0 1.83079e-07)
(1.9374e-07 -2.06703e-08 0 1.76355e-07 0 1.84991e-07)
(1.96524e-07 -2.08233e-08 0 1.77275e-07 0 1.86841e-07)
(1.99199e-07 -2.09631e-08 0 1.78142e-07 0 1.88611e-07)
(2.01731e-07 -2.10856e-08 0 1.78937e-07 0 1.90273e-07)
(2.04081e-07 -2.11892e-08 0 1.79654e-07 0 1.91805e-07)
(2.06212e-07 -2.12712e-08 0 1.80283e-07 0 1.93183e-07)
(2.08084e-07 -2.13318e-08 0 1.80825e-07 0 1.94387e-07)
(2.09666e-07 -2.13712e-08 0 1.81267e-07 0 1.95398e-07)
(2.10932e-07 -2.13887e-08 0 1.81603e-07 0 1.96198e-07)
(2.11849e-07 -2.13828e-08 0 1.8182e-07 0 1.96764e-07)
(2.12319e-07 -2.1342e-08 0 1.81847e-07 0 1.97014e-07)
(2.12327e-07 -2.12657e-08 0 1.81678e-07 0 1.96935e-07)
(2.11869e-07 -2.11487e-08 0 1.81295e-07 0 1.96517e-07)
(2.10917e-07 -2.09944e-08 0 1.80707e-07 0 1.9575e-07)
(2.09493e-07 -2.08032e-08 0 1.79912e-07 0 1.94644e-07)
(2.07592e-07 -2.05767e-08 0 1.78917e-07 0 1.932e-07)
(2.05247e-07 -2.0319e-08 0 1.77737e-07 0 1.91443e-07)
(2.02505e-07 -2.00325e-08 0 1.76385e-07 0 1.894e-07)
(1.99394e-07 -1.97204e-08 0 1.74875e-07 0 1.87095e-07)
(1.95962e-07 -1.93861e-08 0 1.73218e-07 0 1.84556e-07)
(1.9225e-07 -1.90335e-08 0 1.71429e-07 0 1.81811e-07)
(1.88307e-07 -1.86659e-08 0 1.69526e-07 0 1.78894e-07)
(1.8419e-07 -1.82846e-08 0 1.67511e-07 0 1.75832e-07)
(1.7996e-07 -1.78896e-08 0 1.654e-07 0 1.72664e-07)
(1.75627e-07 -1.74854e-08 0 1.63234e-07 0 1.69417e-07)
(1.71253e-07 -1.7078e-08 0 1.61031e-07 0 1.66131e-07)
(1.66881e-07 -1.66713e-08 0 1.58811e-07 0 1.62836e-07)
(1.62552e-07 -1.62684e-08 0 1.56586e-07 0 1.5956e-07)
(1.58303e-07 -1.58737e-08 0 1.54386e-07 0 1.56337e-07)
(1.54174e-07 -1.54896e-08 0 1.52226e-07 0 1.53194e-07)
(1.502e-07 -1.51192e-08 0 1.50129e-07 0 1.50159e-07)
(1.46416e-07 -1.47653e-08 0 1.48114e-07 0 1.4726e-07)
(1.42835e-07 -1.44305e-08 0 1.46202e-07 0 1.44512e-07)
(1.39476e-07 -1.41162e-08 0 1.44401e-07 0 1.4193e-07)
(1.36352e-07 -1.3825e-08 0 1.42728e-07 0 1.3953e-07)
(1.33474e-07 -1.35579e-08 0 1.4119e-07 0 1.3732e-07)
(1.30852e-07 -1.33157e-08 0 1.39802e-07 0 1.35314e-07)
(1.28478e-07 -1.30985e-08 0 1.38567e-07 0 1.33506e-07)
(1.26364e-07 -1.29095e-08 0 1.37504e-07 0 1.31916e-07)
(1.24508e-07 -1.27467e-08 0 1.36607e-07 0 1.30537e-07)
(1.22909e-07 -1.26116e-08 0 1.35885e-07 0 1.29374e-07)
(1.21561e-07 -1.25025e-08 0 1.35333e-07 0 1.28421e-07)
(1.20462e-07 -1.24202e-08 0 1.34952e-07 0 1.27679e-07)
(1.19605e-07 -1.23623e-08 0 1.34738e-07 0 1.27142e-07)
(1.18983e-07 -1.23278e-08 0 1.34683e-07 0 1.268e-07)
(1.18584e-07 -1.2317e-08 0 1.34781e-07 0 1.26648e-07)
(1.18404e-07 -1.23284e-08 0 1.35033e-07 0 1.26683e-07)
(1.18372e-07 -1.23478e-08 0 1.35349e-07 0 1.26822e-07)
(1.18453e-07 -1.23719e-08 0 1.35702e-07 0 1.27038e-07)
(1.18639e-07 -1.23983e-08 0 1.36082e-07 0 1.27319e-07)
(1.18928e-07 -1.24276e-08 0 1.36493e-07 0 1.27667e-07)
(1.19318e-07 -1.2459e-08 0 1.36932e-07 0 1.28079e-07)
(1.19804e-07 -1.24937e-08 0 1.37396e-07 0 1.28553e-07)
(1.2038e-07 -1.25295e-08 0 1.37882e-07 0 1.29082e-07)
(1.2105e-07 -1.25667e-08 0 1.3839e-07 0 1.29671e-07)
(1.21799e-07 -1.26034e-08 0 1.38915e-07 0 1.30306e-07)
(1.22634e-07 -1.26408e-08 0 1.39456e-07 0 1.30993e-07)
(1.23552e-07 -1.26782e-08 0 1.40013e-07 0 1.3173e-07)
(1.24547e-07 -1.27137e-08 0 1.40579e-07 0 1.32511e-07)
(1.25609e-07 -1.27476e-08 0 1.41152e-07 0 1.33328e-07)
(1.26742e-07 -1.27799e-08 0 1.41733e-07 0 1.34185e-07)
(1.27935e-07 -1.28086e-08 0 1.42315e-07 0 1.35072e-07)
(1.29186e-07 -1.2834e-08 0 1.42896e-07 0 1.3599e-07)
(1.30494e-07 -1.28548e-08 0 1.43475e-07 0 1.36934e-07)
(1.3185e-07 -1.28707e-08 0 1.44046e-07 0 1.37899e-07)
(1.33246e-07 -1.2882e-08 0 1.44608e-07 0 1.38881e-07)
(1.34684e-07 -1.28879e-08 0 1.45156e-07 0 1.39878e-07)
(1.36161e-07 -1.28861e-08 0 1.45684e-07 0 1.40884e-07)
(1.37674e-07 -1.28738e-08 0 1.4619e-07 0 1.41896e-07)
(1.39219e-07 -1.28518e-08 0 1.46674e-07 0 1.42912e-07)
(1.4078e-07 -1.28218e-08 0 1.47137e-07 0 1.43926e-07)
(1.4235e-07 -1.27814e-08 0 1.47581e-07 0 1.44935e-07)
(1.43923e-07 -1.27306e-08 0 1.48006e-07 0 1.45936e-07)
(1.45486e-07 -1.26681e-08 0 1.48398e-07 0 1.46919e-07)
(1.47054e-07 -1.25973e-08 0 1.48768e-07 0 1.47888e-07)
(1.48639e-07 -1.25117e-08 0 1.49107e-07 0 1.48845e-07)
(1.50228e-07 -1.24049e-08 0 1.49388e-07 0 1.49773e-07)
(1.51792e-07 -1.22736e-08 0 1.49581e-07 0 1.50645e-07)
(1.53277e-07 -1.21201e-08 0 1.49666e-07 0 1.51423e-07)
(1.54621e-07 -1.19425e-08 0 1.49604e-07 0 1.52056e-07)
(1.55744e-07 -1.1734e-08 0 1.49363e-07 0 1.52486e-07)
(1.56531e-07 -1.1494e-08 0 1.48922e-07 0 1.52646e-07)
(1.56907e-07 -1.12165e-08 0 1.48252e-07 0 1.52485e-07)
(1.56797e-07 -1.08741e-08 0 1.47248e-07 0 1.51912e-07)
(1.56032e-07 -1.04806e-08 0 1.45911e-07 0 1.50848e-07)
(1.54463e-07 -1.00373e-08 0 1.44233e-07 0 1.49212e-07)
(1.51869e-07 -9.54439e-09 0 1.42214e-07 0 1.46896e-07)
(1.4813e-07 -8.99834e-09 0 1.39794e-07 0 1.43814e-07)
(1.43393e-07 -8.41795e-09 0 1.36917e-07 0 1.40017e-07)
(1.37912e-07 -7.7965e-09 0 1.33541e-07 0 1.35607e-07)
(1.32047e-07 -7.15517e-09 0 1.2973e-07 0 1.3079e-07)
(1.26158e-07 -6.51749e-09 0 1.2566e-07 0 1.25845e-07)
(1.20724e-07 -5.86303e-09 0 1.21309e-07 0 1.20961e-07)
(1.16278e-07 -5.14928e-09 0 1.16327e-07 0 1.16261e-07)
(1.12531e-07 -4.41297e-09 0 1.10613e-07 0 1.11548e-07)
(1.08234e-07 -3.70339e-09 0 1.04261e-07 0 1.06225e-07)
(1.02264e-07 -2.93358e-09 0 9.67867e-08 0 9.94856e-08)
(9.41075e-08 -2.04028e-09 0 8.75202e-08 0 9.07524e-08)
(8.34817e-08 -1.19682e-09 0 7.65951e-08 0 7.99705e-08)
(7.05149e-08 -4.72975e-10 0 6.4197e-08 0 6.72923e-08)
(5.60573e-08 1.4653e-10 0 5.0991e-08 0 5.3488e-08)
(4.18654e-08 4.60063e-10 0 3.80205e-08 0 3.99326e-08)
(2.91277e-08 6.24267e-10 0 2.65341e-08 0 2.78232e-08)
(2.05775e-08 5.25206e-10 0 1.89609e-08 0 1.97572e-08)
(1.40568e-08 6.27788e-11 0 1.31715e-08 0 1.35968e-08)
(5.14964e-08 -2.76359e-09 0 5.50185e-08 0 5.32537e-08)
(5.16363e-08 -2.788e-09 0 5.5145e-08 0 5.33869e-08)
(5.17905e-08 -2.81369e-09 0 5.52752e-08 0 5.35291e-08)
(5.19581e-08 -2.84058e-09 0 5.5408e-08 0 5.36792e-08)
(5.214e-08 -2.86941e-09 0 5.55433e-08 0 5.38374e-08)
(5.23402e-08 -2.89989e-09 0 5.56822e-08 0 5.40069e-08)
(5.25589e-08 -2.93169e-09 0 5.58234e-08 0 5.41866e-08)
(5.28005e-08 -2.96559e-09 0 5.59691e-08 0 5.43801e-08)
(5.30662e-08 -3.00117e-09 0 5.61185e-08 0 5.45876e-08)
(5.33585e-08 -3.0385e-09 0 5.62726e-08 0 5.48105e-08)
(5.36804e-08 -3.07767e-09 0 5.64318e-08 0 5.50509e-08)
(5.40348e-08 -3.11836e-09 0 5.65975e-08 0 5.53105e-08)
(5.44228e-08 -3.16083e-09 0 5.67671e-08 0 5.55894e-08)
(5.48481e-08 -3.20521e-09 0 5.69443e-08 0 5.58906e-08)
(5.53107e-08 -3.25072e-09 0 5.7128e-08 0 5.62138e-08)
(5.58138e-08 -3.29766e-09 0 5.73203e-08 0 5.65612e-08)
(5.63595e-08 -3.34595e-09 0 5.75225e-08 0 5.69344e-08)
(5.69492e-08 -3.39567e-09 0 5.7734e-08 0 5.73342e-08)
(5.75833e-08 -3.44638e-09 0 5.79551e-08 0 5.77606e-08)
(5.82611e-08 -3.498e-09 0 5.81832e-08 0 5.82129e-08)
(5.89823e-08 -3.55001e-09 0 5.84208e-08 0 5.86918e-08)
(5.97455e-08 -3.60187e-09 0 5.86688e-08 0 5.91965e-08)
(6.05491e-08 -3.65362e-09 0 5.89261e-08 0 5.97263e-08)
(6.13896e-08 -3.7045e-09 0 5.91932e-08 0 6.02793e-08)
(6.22628e-08 -3.75482e-09 0 5.94682e-08 0 6.08527e-08)
(6.31654e-08 -3.80374e-09 0 5.97522e-08 0 6.1445e-08)
(6.40901e-08 -3.85081e-09 0 6.00418e-08 0 6.20512e-08)
(6.50308e-08 -3.8956e-09 0 6.0337e-08 0 6.26682e-08)
(6.59783e-08 -3.93788e-09 0 6.06355e-08 0 6.32897e-08)
(6.69237e-08 -3.97718e-09 0 6.0934e-08 0 6.39107e-08)
(6.78555e-08 -4.01265e-09 0 6.12297e-08 0 6.45231e-08)
(6.87641e-08 -4.04442e-09 0 6.15202e-08 0 6.51213e-08)
(6.9637e-08 -4.07163e-09 0 6.17995e-08 0 6.56969e-08)
(7.0462e-08 -4.0937e-09 0 6.20644e-08 0 6.62418e-08)
(7.12263e-08 -4.11051e-09 0 6.23141e-08 0 6.67485e-08)
(7.19167e-08 -4.12174e-09 0 6.2545e-08 0 6.72092e-08)
(7.25223e-08 -4.12743e-09 0 6.27547e-08 0 6.76171e-08)
(7.30335e-08 -4.12737e-09 0 6.29413e-08 0 6.7966e-08)
(7.34362e-08 -4.12115e-09 0 6.30979e-08 0 6.82459e-08)
(7.36831e-08 -4.10379e-09 0 6.31884e-08 0 6.84146e-08)
(7.37602e-08 -4.07514e-09 0 6.32031e-08 0 6.84609e-08)
(7.36691e-08 -4.03429e-09 0 6.31426e-08 0 6.83857e-08)
(7.34015e-08 -3.98091e-09 0 6.30049e-08 0 6.81841e-08)
(7.29623e-08 -3.91658e-09 0 6.27926e-08 0 6.78592e-08)
(7.23588e-08 -3.84254e-09 0 6.25091e-08 0 6.74168e-08)
(7.16017e-08 -3.75994e-09 0 6.21601e-08 0 6.68651e-08)
(7.07034e-08 -3.67005e-09 0 6.17519e-08 0 6.62129e-08)
(6.96804e-08 -3.57419e-09 0 6.12909e-08 0 6.54725e-08)
(6.8554e-08 -3.4741e-09 0 6.07875e-08 0 6.46589e-08)
(6.73438e-08 -3.37147e-09 0 6.02502e-08 0 6.37867e-08)
(6.607e-08 -3.26749e-09 0 5.96884e-08 0 6.28703e-08)
(6.47519e-08 -3.16379e-09 0 5.91072e-08 0 6.19222e-08)
(6.34099e-08 -3.06168e-09 0 5.85169e-08 0 6.09579e-08)
(6.20579e-08 -2.96204e-09 0 5.7927e-08 0 5.99889e-08)
(6.07144e-08 -2.86631e-09 0 5.73479e-08 0 5.9029e-08)
(5.93933e-08 -2.7753e-09 0 5.67862e-08 0 5.80885e-08)
(5.81086e-08 -2.68995e-09 0 5.62492e-08 0 5.71777e-08)
(5.68707e-08 -2.61086e-09 0 5.57411e-08 0 5.63044e-08)
(5.56884e-08 -2.53841e-09 0 5.52656e-08 0 5.54753e-08)
(5.45715e-08 -2.47306e-09 0 5.48265e-08 0 5.46975e-08)
(5.35269e-08 -2.41507e-09 0 5.4428e-08 0 5.39758e-08)
(5.25558e-08 -2.36413e-09 0 5.40706e-08 0 5.33112e-08)
(5.16597e-08 -2.32016e-09 0 5.3755e-08 0 5.2705e-08)
(5.08386e-08 -2.28306e-09 0 5.34817e-08 0 5.21575e-08)
(5.00931e-08 -2.25267e-09 0 5.325e-08 0 5.16686e-08)
(4.94234e-08 -2.22877e-09 0 5.3061e-08 0 5.12387e-08)
(4.88269e-08 -2.21104e-09 0 5.29122e-08 0 5.08654e-08)
(4.83035e-08 -2.19943e-09 0 5.2804e-08 0 5.05491e-08)
(4.78504e-08 -2.19311e-09 0 5.27333e-08 0 5.02866e-08)
(4.74657e-08 -2.19204e-09 0 5.26999e-08 0 5.00771e-08)
(4.71469e-08 -2.19577e-09 0 5.27001e-08 0 4.99172e-08)
(4.68927e-08 -2.20462e-09 0 5.27352e-08 0 4.98072e-08)
(4.67005e-08 -2.21747e-09 0 5.28019e-08 0 4.97441e-08)
(4.65659e-08 -2.23457e-09 0 5.29011e-08 0 4.97259e-08)
(4.6491e-08 -2.25571e-09 0 5.30281e-08 0 4.97521e-08)
(4.64747e-08 -2.27968e-09 0 5.31822e-08 0 4.98211e-08)
(4.64959e-08 -2.30454e-09 0 5.33439e-08 0 4.99125e-08)
(4.65483e-08 -2.32943e-09 0 5.3506e-08 0 5.00199e-08)
(4.6631e-08 -2.35416e-09 0 5.36677e-08 0 5.01424e-08)
(4.67433e-08 -2.37861e-09 0 5.38284e-08 0 5.02798e-08)
(4.68851e-08 -2.40318e-09 0 5.39906e-08 0 5.04325e-08)
(4.7056e-08 -2.42745e-09 0 5.41522e-08 0 5.06002e-08)
(4.72553e-08 -2.45156e-09 0 5.43154e-08 0 5.07823e-08)
(4.74842e-08 -2.47541e-09 0 5.44802e-08 0 5.09806e-08)
(4.77394e-08 -2.49887e-09 0 5.46452e-08 0 5.11922e-08)
(4.80239e-08 -2.52268e-09 0 5.48148e-08 0 5.14201e-08)
(4.83365e-08 -2.546e-09 0 5.49858e-08 0 5.16635e-08)
(4.86769e-08 -2.56876e-09 0 5.516e-08 0 5.19222e-08)
(4.90439e-08 -2.59146e-09 0 5.53369e-08 0 5.21957e-08)
(4.94379e-08 -2.61386e-09 0 5.55178e-08 0 5.24849e-08)
(4.98584e-08 -2.636e-09 0 5.57033e-08 0 5.27895e-08)
(5.03053e-08 -2.65753e-09 0 5.58944e-08 0 5.311e-08)
(5.0779e-08 -2.6787e-09 0 5.60912e-08 0 5.34468e-08)
(5.12784e-08 -2.69967e-09 0 5.62939e-08 0 5.37995e-08)
(5.18032e-08 -2.72022e-09 0 5.65044e-08 0 5.41685e-08)
(5.23552e-08 -2.74052e-09 0 5.67246e-08 0 5.45553e-08)
(5.29344e-08 -2.76062e-09 0 5.69523e-08 0 5.49598e-08)
(5.3541e-08 -2.78013e-09 0 5.71866e-08 0 5.53822e-08)
(5.41757e-08 -2.79866e-09 0 5.743e-08 0 5.58238e-08)
(5.48378e-08 -2.81616e-09 0 5.76841e-08 0 5.62848e-08)
(5.55298e-08 -2.83352e-09 0 5.79517e-08 0 5.67674e-08)
(5.6253e-08 -2.84992e-09 0 5.8234e-08 0 5.72725e-08)
(5.70093e-08 -2.867e-09 0 5.85347e-08 0 5.78023e-08)
(5.78009e-08 -2.88371e-09 0 5.88465e-08 0 5.83562e-08)
(5.86355e-08 -2.89929e-09 0 5.91686e-08 0 5.89383e-08)
(5.95126e-08 -2.91214e-09 0 5.95004e-08 0 5.95477e-08)
(6.04279e-08 -2.92246e-09 0 5.98412e-08 0 6.01803e-08)
(6.13688e-08 -2.92848e-09 0 6.01876e-08 0 6.08277e-08)
(6.23156e-08 -2.92618e-09 0 6.0528e-08 0 6.14736e-08)
(6.32417e-08 -2.91345e-09 0 6.08479e-08 0 6.20991e-08)
(6.4111e-08 -2.8866e-09 0 6.11293e-08 0 6.26774e-08)
(6.48761e-08 -2.84412e-09 0 6.13582e-08 0 6.31792e-08)
(6.54854e-08 -2.7853e-09 0 6.15207e-08 0 6.35709e-08)
(6.58805e-08 -2.71005e-09 0 6.1607e-08 0 6.38178e-08)
(6.60058e-08 -2.62871e-09 0 6.16185e-08 0 6.38899e-08)
(6.5849e-08 -2.53666e-09 0 6.15552e-08 0 6.37821e-08)
(6.53805e-08 -2.43146e-09 0 6.14237e-08 0 6.34786e-08)
(6.45838e-08 -2.31788e-09 0 6.11984e-08 0 6.29596e-08)
(6.35054e-08 -2.19877e-09 0 6.08672e-08 0 6.22457e-08)
(6.2285e-08 -2.07902e-09 0 6.04851e-08 0 6.14303e-08)
(6.11493e-08 -1.96053e-09 0 6.00937e-08 0 6.06497e-08)
(6.02737e-08 -1.8359e-09 0 5.96578e-08 0 5.99736e-08)
(5.98539e-08 -1.68332e-09 0 5.90854e-08 0 5.9466e-08)
(5.98346e-08 -1.47748e-09 0 5.83094e-08 0 5.90528e-08)
(5.97536e-08 -1.20866e-09 0 5.71243e-08 0 5.84306e-08)
(5.91547e-08 -8.8065e-10 0 5.54492e-08 0 5.73094e-08)
(5.7848e-08 -5.37128e-10 0 5.33467e-08 0 5.5621e-08)
(5.56736e-08 -2.10842e-10 0 5.08207e-08 0 5.3284e-08)
(5.28751e-08 1.12996e-10 0 4.81199e-08 0 5.05448e-08)
(4.90644e-08 4.87234e-10 0 4.4612e-08 0 4.68773e-08)
(4.27017e-08 7.50539e-10 0 3.8962e-08 0 4.08402e-08)
(3.60936e-08 1.18095e-09 0 3.3195e-08 0 3.46527e-08)
(3.12076e-08 1.24329e-09 0 2.88909e-08 0 3.00865e-08)
(2.74843e-08 9.09221e-10 0 2.57281e-08 0 2.66499e-08)
(3.91084e-08 -1.16434e-09 0 4.17505e-08 0 4.04421e-08)
(3.91435e-08 -1.17359e-09 0 4.17694e-08 0 4.04692e-08)
(3.91838e-08 -1.18358e-09 0 4.17869e-08 0 4.04982e-08)
(3.92295e-08 -1.19402e-09 0 4.18022e-08 0 4.05287e-08)
(3.92818e-08 -1.2053e-09 0 4.18126e-08 0 4.05605e-08)
(3.93418e-08 -1.21728e-09 0 4.18217e-08 0 4.05951e-08)
(3.94102e-08 -1.2299e-09 0 4.18263e-08 0 4.06317e-08)
(3.94886e-08 -1.24315e-09 0 4.18266e-08 0 4.06711e-08)
(3.95775e-08 -1.25669e-09 0 4.18221e-08 0 4.07135e-08)
(3.96781e-08 -1.27049e-09 0 4.18114e-08 0 4.07588e-08)
(3.9791e-08 -1.28473e-09 0 4.17973e-08 0 4.08082e-08)
(3.99182e-08 -1.29889e-09 0 4.17763e-08 0 4.08614e-08)
(4.00595e-08 -1.313e-09 0 4.17499e-08 0 4.09193e-08)
(4.0217e-08 -1.32646e-09 0 4.17166e-08 0 4.09819e-08)
(4.03898e-08 -1.33917e-09 0 4.16788e-08 0 4.10499e-08)
(4.05802e-08 -1.35137e-09 0 4.16345e-08 0 4.11235e-08)
(4.07885e-08 -1.36274e-09 0 4.15862e-08 0 4.12038e-08)
(4.10152e-08 -1.37247e-09 0 4.15331e-08 0 4.12909e-08)
(4.12598e-08 -1.38058e-09 0 4.14757e-08 0 4.13849e-08)
(4.15223e-08 -1.38752e-09 0 4.14149e-08 0 4.14862e-08)
(4.18025e-08 -1.3926e-09 0 4.13519e-08 0 4.15952e-08)
(4.20996e-08 -1.39616e-09 0 4.12879e-08 0 4.1712e-08)
(4.24137e-08 -1.39803e-09 0 4.12227e-08 0 4.18368e-08)
(4.27426e-08 -1.39762e-09 0 4.11581e-08 0 4.19692e-08)
(4.30845e-08 -1.39537e-09 0 4.10941e-08 0 4.21088e-08)
(4.34381e-08 -1.39074e-09 0 4.1033e-08 0 4.22554e-08)
(4.3801e-08 -1.38389e-09 0 4.09747e-08 0 4.24081e-08)
(4.41698e-08 -1.37486e-09 0 4.09205e-08 0 4.25659e-08)
(4.45414e-08 -1.36376e-09 0 4.08714e-08 0 4.27275e-08)
(4.49123e-08 -1.35027e-09 0 4.08277e-08 0 4.28916e-08)
(4.52781e-08 -1.33465e-09 0 4.07901e-08 0 4.30561e-08)
(4.56349e-08 -1.31643e-09 0 4.07588e-08 0 4.32192e-08)
(4.59768e-08 -1.29622e-09 0 4.07364e-08 0 4.33787e-08)
(4.62998e-08 -1.2749e-09 0 4.07215e-08 0 4.35323e-08)
(4.6599e-08 -1.25266e-09 0 4.07147e-08 0 4.36775e-08)
(4.68698e-08 -1.2297e-09 0 4.07142e-08 0 4.38117e-08)
(4.71073e-08 -1.20555e-09 0 4.07193e-08 0 4.39324e-08)
(4.73067e-08 -1.18069e-09 0 4.07315e-08 0 4.40374e-08)
(4.74631e-08 -1.15518e-09 0 4.07484e-08 0 4.41236e-08)
(4.75616e-08 -1.12809e-09 0 4.07606e-08 0 4.41781e-08)
(4.75979e-08 -1.09997e-09 0 4.07644e-08 0 4.41975e-08)
(4.75723e-08 -1.07057e-09 0 4.07596e-08 0 4.41818e-08)
(4.74811e-08 -1.03908e-09 0 4.07478e-08 0 4.41295e-08)
(4.73264e-08 -1.00692e-09 0 4.07286e-08 0 4.40419e-08)
(4.71107e-08 -9.74888e-10 0 4.0703e-08 0 4.39207e-08)
(4.68359e-08 -9.4294e-10 0 4.0673e-08 0 4.37679e-08)
(4.65099e-08 -9.12125e-10 0 4.06409e-08 0 4.35885e-08)
(4.61394e-08 -8.83324e-10 0 4.06098e-08 0 4.33871e-08)
(4.57313e-08 -8.56089e-10 0 4.05806e-08 0 4.31681e-08)
(4.52928e-08 -8.31334e-10 0 4.05561e-08 0 4.29361e-08)
(4.48311e-08 -8.0884e-10 0 4.05386e-08 0 4.2696e-08)
(4.43531e-08 -7.8925e-10 0 4.05301e-08 0 4.24519e-08)
(4.38643e-08 -7.73591e-10 0 4.05337e-08 0 4.22081e-08)
(4.3373e-08 -7.62078e-10 0 4.05481e-08 0 4.19686e-08)
(4.28844e-08 -7.54697e-10 0 4.05748e-08 0 4.17365e-08)
(4.24034e-08 -7.50801e-10 0 4.06128e-08 0 4.15144e-08)
(4.1934e-08 -7.50618e-10 0 4.06637e-08 0 4.13045e-08)
(4.14802e-08 -7.53894e-10 0 4.07275e-08 0 4.1109e-08)
(4.10444e-08 -7.60456e-10 0 4.08031e-08 0 4.09285e-08)
(4.06302e-08 -7.69789e-10 0 4.08896e-08 0 4.07643e-08)
(4.02393e-08 -7.82009e-10 0 4.09868e-08 0 4.06169e-08)
(3.98741e-08 -7.96506e-10 0 4.10919e-08 0 4.0486e-08)
(3.95324e-08 -8.13319e-10 0 4.12059e-08 0 4.0371e-08)
(3.92163e-08 -8.31626e-10 0 4.13237e-08 0 4.0271e-08)
(3.89253e-08 -8.5123e-10 0 4.14454e-08 0 4.01854e-08)
(3.86583e-08 -8.71987e-10 0 4.15707e-08 0 4.01135e-08)
(3.84155e-08 -8.93743e-10 0 4.16958e-08 0 4.00539e-08)
(3.81968e-08 -9.16351e-10 0 4.18218e-08 0 4.00065e-08)
(3.80019e-08 -9.38871e-10 0 4.19451e-08 0 3.99698e-08)
(3.78294e-08 -9.617e-10 0 4.20674e-08 0 3.99437e-08)
(3.76801e-08 -9.84121e-10 0 4.21844e-08 0 3.99267e-08)
(3.75524e-08 -1.00654e-09 0 4.22981e-08 0 3.99187e-08)
(3.74429e-08 -1.02901e-09 0 4.2408e-08 0 3.99185e-08)
(3.73591e-08 -1.05008e-09 0 4.25105e-08 0 3.99267e-08)
(3.72945e-08 -1.07059e-09 0 4.26057e-08 0 3.99415e-08)
(3.72514e-08 -1.09029e-09 0 4.26966e-08 0 3.99643e-08)
(3.7224e-08 -1.10864e-09 0 4.27756e-08 0 3.99895e-08)
(3.72111e-08 -1.12552e-09 0 4.28445e-08 0 4.0017e-08)
(3.7214e-08 -1.14085e-09 0 4.29034e-08 0 4.00468e-08)
(3.72301e-08 -1.1546e-09 0 4.29504e-08 0 4.0078e-08)
(3.72611e-08 -1.16744e-09 0 4.29892e-08 0 4.01117e-08)
(3.73059e-08 -1.17839e-09 0 4.30153e-08 0 4.01468e-08)
(3.7364e-08 -1.18805e-09 0 4.30334e-08 0 4.01844e-08)
(3.74362e-08 -1.19661e-09 0 4.30432e-08 0 4.02247e-08)
(3.75202e-08 -1.20323e-09 0 4.30446e-08 0 4.02672e-08)
(3.76185e-08 -1.20902e-09 0 4.30382e-08 0 4.03126e-08)
(3.77297e-08 -1.21361e-09 0 4.30253e-08 0 4.03613e-08)
(3.78541e-08 -1.21659e-09 0 4.30057e-08 0 4.04133e-08)
(3.79908e-08 -1.21868e-09 0 4.29815e-08 0 4.04688e-08)
(3.814e-08 -1.21967e-09 0 4.29521e-08 0 4.05282e-08)
(3.83014e-08 -1.21978e-09 0 4.29189e-08 0 4.05917e-08)
(3.84746e-08 -1.21887e-09 0 4.28834e-08 0 4.06598e-08)
(3.866e-08 -1.21738e-09 0 4.28451e-08 0 4.07327e-08)
(3.8857e-08 -1.21507e-09 0 4.28053e-08 0 4.08106e-08)
(3.90658e-08 -1.212e-09 0 4.27652e-08 0 4.08942e-08)
(3.92868e-08 -1.20778e-09 0 4.27233e-08 0 4.09836e-08)
(3.95202e-08 -1.20284e-09 0 4.26837e-08 0 4.10799e-08)
(3.9765e-08 -1.19815e-09 0 4.26506e-08 0 4.11841e-08)
(4.00237e-08 -1.19407e-09 0 4.26222e-08 0 4.12968e-08)
(4.0296e-08 -1.19026e-09 0 4.25986e-08 0 4.14183e-08)
(4.05838e-08 -1.1869e-09 0 4.25779e-08 0 4.15491e-08)
(4.08873e-08 -1.18326e-09 0 4.25619e-08 0 4.16902e-08)
(4.12077e-08 -1.18033e-09 0 4.25541e-08 0 4.18428e-08)
(4.15479e-08 -1.17797e-09 0 4.25504e-08 0 4.20079e-08)
(4.1913e-08 -1.17578e-09 0 4.25497e-08 0 4.21876e-08)
(4.2304e-08 -1.17339e-09 0 4.25561e-08 0 4.23834e-08)
(4.27184e-08 -1.17003e-09 0 4.25696e-08 0 4.25943e-08)
(4.31537e-08 -1.16399e-09 0 4.25866e-08 0 4.28183e-08)
(4.36021e-08 -1.1547e-09 0 4.26051e-08 0 4.30519e-08)
(4.4054e-08 -1.14121e-09 0 4.26247e-08 0 4.32901e-08)
(4.44942e-08 -1.12367e-09 0 4.26497e-08 0 4.3526e-08)
(4.49042e-08 -1.1035e-09 0 4.26827e-08 0 4.37508e-08)
(4.52632e-08 -1.08108e-09 0 4.2722e-08 0 4.39533e-08)
(4.55459e-08 -1.05587e-09 0 4.27615e-08 0 4.41203e-08)
(4.57218e-08 -1.02853e-09 0 4.28083e-08 0 4.42394e-08)
(4.5769e-08 -1.00027e-09 0 4.28694e-08 0 4.43029e-08)
(4.56897e-08 -9.74602e-10 0 4.29399e-08 0 4.43088e-08)
(4.5463e-08 -9.49214e-10 0 4.30481e-08 0 4.42562e-08)
(4.51044e-08 -9.29511e-10 0 4.32033e-08 0 4.41517e-08)
(4.46783e-08 -9.16809e-10 0 4.33686e-08 0 4.40189e-08)
(4.42972e-08 -9.07822e-10 0 4.34741e-08 0 4.38923e-08)
(4.4089e-08 -8.98817e-10 0 4.35151e-08 0 4.38212e-08)
(4.41391e-08 -8.82659e-10 0 4.35028e-08 0 4.38477e-08)
(4.45556e-08 -8.2481e-10 0 4.32602e-08 0 4.39556e-08)
(4.51864e-08 -7.06442e-10 0 4.29211e-08 0 4.40691e-08)
(4.55201e-08 -5.86868e-10 0 4.25132e-08 0 4.40172e-08)
(4.56142e-08 -4.3789e-10 0 4.19184e-08 0 4.37536e-08)
(4.5364e-08 -2.9816e-10 0 4.1245e-08 0 4.32773e-08)
(4.46983e-08 -1.51321e-10 0 4.04574e-08 0 4.25317e-08)
(4.34279e-08 1.72177e-11 0 3.9319e-08 0 4.13226e-08)
(4.136e-08 3.1127e-10 0 3.77095e-08 0 3.95044e-08)
(3.84134e-08 3.86432e-10 0 3.52766e-08 0 3.68267e-08)