/*--------------------------------*- C++ -*----------------------------------*\
| =========                 |                                                 |
| \\      /  F ield         | OpenFOAM: The Open Source CFD Toolbox           |
|  \\    /   O peration     | Version:  v1912                                 |
|   \\  /    A nd           | Website:  www.openfoam.com                      |
|    \\/     M anipulation  |                                                 |
\*---------------------------------------------------------------------------*/
FoamFile
{
    version     2.0;
    format      ascii;
    class       volScalarField;
    location    "70";
    object      omega;
}
// * * * * * * * * * * * * * * * * * * * * * * * * * * * * * * * * * * * * * //

dimensions      [0 0 -1 0 0 0 0];


internalField   nonuniform List<scalar> 
14268
(
2.99084
2.99084
2.99084
2.99085
2.99085
2.99086
2.99086
2.99086
0.643005
0.646962
0.650202
0.652474
0.65441
0.657328
0.662121
0.670708
0.308888
0.310428
0.311514
0.31207
0.312412
0.312864
0.313199
0.315028
0.225588
0.226122
0.226588
0.227001
0.227418
0.227954
0.229316
0.233311
0.20598
0.206225
0.206529
0.206944
0.207607
0.208464
0.20982
0.211584
0.202083
0.202339
0.202647
0.203105
0.203975
0.20564
0.208097
0.211152
0.201563
0.202003
0.202678
0.203876
0.206646
0.211468
0.214387
0.214262
0.206634
0.20829
0.210964
0.215741
0.225882
0.243431
0.255105
0.255938
0.220776
0.226427
0.235106
0.248783
0.270046
0.291691
0.30348
0.303004
0.229938
0.238283
0.250709
0.269554
0.291438
0.306643
0.312279
0.311234
0.222477
0.22943
0.240329
0.256012
0.266818
0.268917
0.262311
0.257648
0.207593
0.210364
0.214709
0.221812
0.228788
0.232555
0.233611
0.236389
0.203669
0.20508
0.207451
0.211422
0.21752
0.224054
0.230156
0.235232
0.204115
0.205842
0.20902
0.214801
0.224496
0.234115
0.23999
0.24151
0.204229
0.206482
0.210285
0.217568
0.2283
0.236785
0.240295
0.235028
0.201308
0.201844
0.202654
0.203946
0.205971
0.20882
0.213236
0.217097
0.20062
0.2008
0.201065
0.201518
0.202381
0.203989
0.208191
0.212595
0.200722
0.2009
0.201167
0.20161
0.202415
0.203782
0.206612
0.209177
0.200859
0.201016
0.201225
0.201554
0.202047
0.202573
0.203652
0.204756
0.200378
0.200512
0.20066
0.200864
0.201217
0.201651
0.202433
0.202655
0.200907
0.201
0.201082
0.201151
0.201259
0.201573
0.202032
0.201915
0.200875
0.200982
0.201095
0.201225
0.201368
0.201677
0.201915
0.201999
0.200785
0.200921
0.201085
0.201323
0.201624
0.201899
0.202152
0.202235
0.201285
0.201296
0.201301
0.201315
0.201447
0.201639
0.201833
0.201904
0.202266
0.20227
0.202309
0.202415
0.202581
0.202737
0.202931
0.203123
0.205558
0.205179
0.204859
0.204627
0.204497
0.204433
0.204443
0.204319
0.216984
0.215681
0.214532
0.213558
0.212774
0.21213
0.211608
0.211172
0.253183
0.249261
0.245695
0.242451
0.239564
0.237025
0.23471
0.232311
0.350466
0.341671
0.33352
0.325799
0.318488
0.311746
0.305531
0.29868
0.549783
0.534169
0.519669
0.505727
0.491987
0.478791
0.466655
0.453207
0.893726
0.869599
0.846823
0.824638
0.802462
0.780907
0.761284
0.740131
1.42588
1.39325
1.36137
1.32937
1.29628
1.2642
1.2349
1.20479
2.12767
2.09037
2.05511
2.02011
1.98303
1.94594
1.91075
1.871
3.07034
2.93968
2.84269
2.77542
2.73887
2.72505
2.73116
2.72812
7.63201
6.279
5.31877
4.70348
4.44359
4.43283
4.46504
4.60543
16.4498
15.9575
14.5758
12.2882
9.76768
8.1422
7.55646
7.83527
7.5565
8.06253
8.50334
8.84375
9.02463
9.10661
9.21067
9.3053
3.51957
3.87202
4.26633
4.70927
5.22337
5.66975
5.93236
6.54353
2.22639
2.32793
2.44622
2.58229
2.74836
2.97087
3.28224
3.68867
1.68479
1.77428
1.87695
1.98824
2.11179
2.26118
2.4393
2.62532
1.20003
1.27479
1.36317
1.46167
1.57642
1.72851
1.91907
2.14385
0.850145
0.905677
0.970323
1.04221
1.12746
1.24683
1.39736
1.56952
0.627425
0.66732
0.712443
0.762536
0.821748
0.904264
1.00504
1.12082
0.496785
0.526443
0.559045
0.595288
0.637047
0.692182
0.756779
0.828138
0.420803
0.444231
0.469719
0.497836
0.529046
0.567463
0.61114
0.656365
0.373175
0.392975
0.414596
0.438207
0.46356
0.493018
0.525962
0.556268
0.336494
0.353894
0.373214
0.394439
0.416873
0.441903
0.469832
0.4932
0.304631
0.319459
0.336556
0.355857
0.376518
0.399203
0.424645
0.444638
0.278435
0.290037
0.304095
0.32072
0.339097
0.359392
0.38228
0.400092
0.25912
0.267332
0.277847
0.290922
0.306107
0.323308
0.343144
0.359534
0.245566
0.251002
0.258226
0.26756
0.279012
0.29245
0.30835
0.32276
0.235664
0.239378
0.244151
0.250384
0.258316
0.267902
0.279729
0.29162
0.227818
0.23061
0.23395
0.238087
0.243421
0.249818
0.258022
0.266916
0.221026
0.223391
0.226027
0.229049
0.232746
0.236981
0.242462
0.248621
0.214618
0.216825
0.219132
0.221707
0.224602
0.227671
0.231488
0.235752
0.208796
0.210846
0.21302
0.215358
0.217908
0.220366
0.223274
0.226452
0.203268
0.205102
0.207136
0.209327
0.211734
0.213913
0.216346
0.218957
0.198186
0.199873
0.201667
0.203706
0.20593
0.207932
0.210121
0.212419
0.194172
0.195445
0.196998
0.198668
0.200593
0.202379
0.204308
0.206356
0.19061
0.191651
0.192826
0.194215
0.195773
0.197337
0.19901
0.200802
0.188332
0.18891
0.189679
0.190635
0.19183
0.193081
0.194469
0.19597
0.186884
0.187127
0.187524
0.188089
0.188845
0.189733
0.190761
0.191925
0.186235
0.186257
0.186353
0.186574
0.186985
0.187524
0.188224
0.189021
0.185877
0.185839
0.185846
0.18591
0.186088
0.18636
0.186742
0.187191
0.185695
0.185637
0.185627
0.18565
0.185769
0.185936
0.186176
0.186405
0.185542
0.185497
0.185509
0.185547
0.185663
0.185813
0.186014
0.18616
0.185412
0.185375
0.185407
0.185457
0.185597
0.185757
0.185962
0.186089
0.18529
0.185266
0.185309
0.185369
0.185519
0.185679
0.18589
0.186011
0.185195
0.185185
0.185228
0.185281
0.185408
0.185541
0.185719
0.185835
0.185145
0.185155
0.185183
0.185236
0.185334
0.185442
0.185579
0.185682
0.185137
0.185159
0.185175
0.185235
0.185309
0.185409
0.18551
0.185609
0.18516
0.185212
0.1852
0.185282
0.185329
0.185433
0.185507
0.185607
0.185186
0.185237
0.185224
0.185306
0.185352
0.185453
0.185518
0.185617
0.185112
0.185163
0.185194
0.185271
0.185337
0.185429
0.185508
0.1856
0.185052
0.185101
0.185151
0.185219
0.18531
0.18539
0.185493
0.185577
0.185039
0.185087
0.185137
0.185204
0.185294
0.18537
0.185468
0.18555
0.185087
0.185136
0.185161
0.185235
0.185301
0.185385
0.185465
0.185549
0.185161
0.185223
0.185286
0.185353
0.18545
0.18552
0.185617
0.185687
0.186005
0.186095
0.186185
0.186239
0.186317
0.186351
0.186399
0.186425
0.189129
0.189218
0.189272
0.18929
0.189288
0.189244
0.189179
0.18909
0.197441
0.197543
0.197556
0.197506
0.197373
0.197183
0.196922
0.19662
0.217107
0.217364
0.217467
0.217432
0.217249
0.216939
0.2165
0.215956
0.256699
0.257505
0.258071
0.258412
0.258518
0.258415
0.258094
0.257572
0.328135
0.330187
0.331936
0.333388
0.33453
0.335383
0.335927
0.336155
0.461153
0.465405
0.469271
0.472751
0.475833
0.47853
0.480815
0.48265
0.749857
0.758009
0.765522
0.772393
0.778605
0.784155
0.789013
0.793142
1.35427
1.37033
1.38516
1.39881
1.41131
1.42268
1.43296
1.44214
2.98343
2.98339
2.98337
2.98336
2.98335
2.98333
2.98332
2.9833
2.9833
2.98329
2.98328
2.98328
2.98328
2.98328
2.98328
2.98329
2.98329
2.9833
2.9833
2.9833
2.9833
2.9833
2.98329
2.98329
2.98328
2.98327
2.98326
2.98325
2.98323
2.98322
2.98322
2.98321
2.9832
2.9832
2.9832
2.9832
2.9832
2.9832
2.9832
2.9832
2.98321
2.98321
2.98322
2.98322
2.98323
2.98324
2.98324
2.98324
2.98325
2.98325
2.98325
2.98326
2.98326
2.98326
2.98326
2.98326
2.98326
2.98326
2.98326
2.98326
2.98326
2.98326
2.98326
2.98326
2.98325
2.98325
2.98325
2.98324
2.98324
2.98324
2.98325
2.98325
2.98325
2.98325
2.98325
2.98325
2.98326
2.98326
2.98326
2.98327
2.98327
2.98328
2.98328
2.98328
2.98328
2.98328
2.98328
2.98328
2.98328
2.98328
2.98327
2.98327
2.98326
2.98325
2.98325
2.98324
2.98323
2.98322
2.98321
2.9832
2.98319
2.98318
2.98317
2.98317
2.98317
2.98317
2.98317
2.98317
2.98317
2.98317
2.98318
2.98318
2.98318
2.98318
2.98318
2.98318
2.98319
2.98319
2.98319
2.98319
2.98319
2.98319
2.98319
2.98319
2.98319
2.98319
2.98319
2.98319
2.98319
2.9832
2.9832
2.9832
2.9832
2.9832
2.9832
2.98319
2.98319
2.98319
2.98319
2.98319
2.98319
2.98319
2.98319
2.98319
2.98319
2.98318
2.98318
2.98318
2.98318
2.98318
2.98318
2.98318
2.98318
2.98318
2.98318
2.98318
0.673305
0.713908
0.748786
0.777423
0.800611
0.816662
0.826656
0.832846
0.837997
0.843179
0.848907
0.855282
0.861868
0.867602
0.872949
0.877803
0.882705
0.888556
0.895652
0.905097
0.917377
0.932491
0.950557
0.971826
0.996988
1.02644
1.06053
1.09939
1.14303
1.19102
1.24194
1.29275
1.3401
1.38076
1.41111
1.42808
1.42915
1.40951
1.36476
1.29945
1.21908
1.13027
1.04027
0.956556
0.881696
0.818483
0.766601
0.724505
0.691615
0.666882
0.649431
0.638215
0.632327
0.630672
0.631387
0.632632
0.634133
0.635746
0.638274
0.641733
0.64661
0.652843
0.660404
0.669061
0.678706
0.688703
0.699282
0.71034
0.720941
0.727967
0.732027
0.732409
0.730795
0.728305
0.727429
0.728322
0.731233
0.735013
0.737304
0.73806
0.737874
0.737766
0.737947
0.740075
0.744276
0.75025
0.758161
0.767943
0.77943
0.792578
0.807356
0.823065
0.840337
0.86054
0.884791
0.913794
0.947643
0.985837
1.0269
1.06792
1.10715
1.14312
1.17345
1.19662
1.21177
1.21576
1.2063
1.18102
1.14223
1.09289
1.03602
0.975788
0.920004
0.867819
0.820562
0.779648
0.743403
0.710955
0.682471
0.659089
0.641732
0.628759
0.619403
0.612606
0.607393
0.60307
0.599515
0.597654
0.597447
0.598152
0.599149
0.600163
0.600916
0.601485
0.602124
0.603203
0.604862
0.607289
0.610515
0.613967
0.61659
0.618242
0.619221
0.620609
0.622793
0.62616
0.630109
0.633055
0.635591
0.637814
0.640891
0.644578
0.64866
0.651266
0.652068
0.652332
0.31667
0.339096
0.356678
0.37275
0.386306
0.396127
0.402463
0.406552
0.409784
0.412532
0.414561
0.416031
0.417089
0.4169
0.41586
0.41426
0.41325
0.412887
0.413097
0.414646
0.417812
0.422572
0.428854
0.436582
0.44598
0.457284
0.470711
0.486459
0.504706
0.525263
0.547288
0.56883
0.587892
0.602436
0.610461
0.61117
0.60305
0.582845
0.552334
0.515279
0.47558
0.437152
0.402609
0.373915
0.350926
0.333497
0.320571
0.310927
0.303922
0.298944
0.295549
0.293297
0.292017
0.2915
0.291306
0.291217
0.291204
0.291283
0.291797
0.292777
0.29444
0.296758
0.299708
0.303157
0.307091
0.311089
0.314945
0.318237
0.320922
0.32235
0.322963
0.32272
0.322001
0.3212
0.32077
0.320554
0.320671
0.320882
0.32048
0.319621
0.318539
0.31784
0.317446
0.317807
0.31884
0.320583
0.32306
0.32619
0.329854
0.333864
0.338132
0.342833
0.348135
0.354411
0.362207
0.371927
0.383642
0.397163
0.411844
0.426293
0.439687
0.451169
0.459603
0.464495
0.465953
0.463168
0.454401
0.439938
0.421025
0.39911
0.376005
0.35387
0.335293
0.319354
0.306178
0.295837
0.287443
0.280358
0.274451
0.269773
0.266458
0.263985
0.262253
0.261083
0.260296
0.259759
0.259332
0.259179
0.259144
0.25918
0.25928
0.25942
0.259549
0.259646
0.259751
0.259955
0.260271
0.260731
0.261367
0.262012
0.262455
0.262668
0.262665
0.262808
0.263137
0.263718
0.264414
0.264989
0.265497
0.265872
0.266443
0.266993
0.267525
0.267719
0.267653
0.267411
0.235335
0.240593
0.247123
0.253637
0.259156
0.262938
0.2654
0.267212
0.268875
0.270586
0.271928
0.272489
0.272235
0.271424
0.270431
0.268715
0.266588
0.264879
0.263627
0.263295
0.263806
0.265202
0.267416
0.270332
0.273979
0.278409
0.28372
0.290075
0.297629
0.306387
0.316004
0.325522
0.333887
0.340119
0.343245
0.342989
0.33819
0.327873
0.313491
0.297081
0.280471
0.265138
0.251935
0.241412
0.233255
0.22722
0.222803
0.21949
0.217042
0.215259
0.213987
0.213104
0.212529
0.212202
0.211978
0.211791
0.21165
0.211554
0.211648
0.211899
0.212306
0.212891
0.213659
0.214608
0.215752
0.216937
0.218134
0.219128
0.219908
0.220309
0.22047
0.220372
0.22007
0.219715
0.219523
0.219374
0.219354
0.21924
0.219148
0.218963
0.218644
0.218361
0.218089
0.21809
0.218324
0.218774
0.219474
0.220424
0.221563
0.222908
0.224394
0.225826
0.227296
0.229074
0.231398
0.234383
0.238088
0.242468
0.247309
0.252064
0.256456
0.260233
0.262999
0.264566
0.264966
0.263741
0.260224
0.254608
0.247434
0.239548
0.231664
0.224348
0.218472
0.213638
0.209817
0.206924
0.204596
0.20264
0.201032
0.199761
0.198873
0.198207
0.197742
0.197434
0.197228
0.197091
0.196978
0.19694
0.196922
0.196925
0.19694
0.196964
0.196992
0.197013
0.197037
0.197092
0.197177
0.1973
0.197467
0.197623
0.197718
0.197755
0.197729
0.19775
0.197825
0.197972
0.198159
0.198311
0.198446
0.198526
0.198664
0.198783
0.198907
0.198953
0.198937
0.198875
0.21278
0.214289
0.216132
0.219351
0.222222
0.224302
0.225784
0.226872
0.227745
0.228453
0.228946
0.228916
0.228439
0.227562
0.226079
0.224135
0.222161
0.22061
0.219452
0.218842
0.218679
0.218814
0.219328
0.22021
0.221491
0.223173
0.225265
0.227854
0.231014
0.234768
0.238983
0.243123
0.246677
0.249232
0.250391
0.25009
0.247759
0.242934
0.236355
0.22903
0.221811
0.215247
0.209783
0.205647
0.202652
0.200565
0.19908
0.197955
0.197097
0.196434
0.195926
0.195537
0.19521
0.194958
0.194754
0.194587
0.194476
0.194424
0.194434
0.194506
0.194629
0.194817
0.195061
0.195377
0.195702
0.196058
0.196292
0.196533
0.196708
0.196773
0.196828
0.196834
0.196787
0.196707
0.196641
0.196612
0.196562
0.196412
0.196244
0.196161
0.196099
0.196107
0.196141
0.196253
0.196414
0.196608
0.196801
0.197001
0.197266
0.197667
0.198191
0.198645
0.19907
0.199525
0.200112
0.200864
0.201857
0.20308
0.204506
0.205946
0.207224
0.208253
0.208934
0.20931
0.209463
0.209111
0.207868
0.205734
0.202985
0.199899
0.196822
0.194204
0.19223
0.190651
0.189412
0.188509
0.187847
0.187307
0.186877
0.186535
0.18631
0.186137
0.18602
0.185951
0.185914
0.185898
0.185873
0.185869
0.185854
0.185844
0.185839
0.185848
0.185863
0.185871
0.185869
0.185875
0.18589
0.185917
0.185959
0.185995
0.186012
0.186013
0.18599
0.18599
0.185997
0.186024
0.186067
0.186101
0.186135
0.186141
0.186174
0.186187
0.18621
0.186218
0.186212
0.186194
0.212562
0.210302
0.210109
0.211932
0.21374
0.215177
0.216322
0.217103
0.217782
0.218076
0.218028
0.21739
0.216326
0.214702
0.213193
0.211462
0.209711
0.208178
0.207029
0.20633
0.205938
0.205663
0.205465
0.20543
0.205592
0.205984
0.206563
0.207404
0.208614
0.210222
0.212178
0.214148
0.215744
0.216866
0.217336
0.217141
0.215862
0.213273
0.209829
0.206069
0.202492
0.19956
0.197351
0.195796
0.194717
0.193999
0.193501
0.193101
0.192779
0.192495
0.192234
0.192002
0.191752
0.19152
0.191326
0.191196
0.191119
0.191074
0.191075
0.191091
0.19111
0.19115
0.191221
0.191351
0.191498
0.191681
0.191753
0.191788
0.191842
0.191821
0.191831
0.191848
0.191845
0.191835
0.191847
0.191868
0.191838
0.191696
0.191471
0.191383
0.191332
0.191393
0.19151
0.191693
0.191921
0.192093
0.192213
0.192248
0.192287
0.192269
0.192269
0.192346
0.192446
0.192474
0.192535
0.1926
0.192712
0.192813
0.192935
0.193107
0.193362
0.193686
0.193975
0.194154
0.194197
0.193909
0.193177
0.192115
0.190867
0.189512
0.188275
0.18719
0.186355
0.185676
0.185151
0.18479
0.184532
0.184357
0.184229
0.184131
0.184074
0.184028
0.183996
0.183982
0.183974
0.183977
0.183977
0.183981
0.183973
0.183962
0.183957
0.183959
0.183967
0.183972
0.183967
0.18396
0.183958
0.18396
0.18397
0.183979
0.183982
0.183984
0.183972
0.183968
0.183962
0.183955
0.18396
0.183967
0.18398
0.183973
0.183983
0.183966
0.183961
0.183963
0.183963
0.183959
0.215613
0.210028
0.209099
0.210514
0.212437
0.21419
0.215843
0.216759
0.217286
0.217562
0.217235
0.216132
0.214312
0.211966
0.20964
0.207711
0.205994
0.204551
0.203413
0.202533
0.201912
0.20161
0.201383
0.201121
0.200935
0.200889
0.200951
0.201123
0.201442
0.201933
0.202564
0.20326
0.203815
0.204087
0.204081
0.203785
0.203031
0.20164
0.199842
0.197927
0.196279
0.194901
0.193852
0.193146
0.192689
0.192403
0.192209
0.192014
0.19182
0.191624
0.191427
0.191242
0.191047
0.190863
0.190694
0.190565
0.190477
0.190418
0.190401
0.190399
0.190397
0.190391
0.190376
0.190404
0.190447
0.190523
0.190495
0.190514
0.190563
0.190601
0.190595
0.19057
0.190542
0.190496
0.190432
0.190423
0.190399
0.190338
0.190399
0.190432
0.190409
0.190503
0.190605
0.190693
0.190686
0.190746
0.190791
0.190848
0.190982
0.191114
0.191149
0.191137
0.191066
0.190948
0.190787
0.190608
0.190401
0.190175
0.189902
0.189568
0.189215
0.188931
0.188728
0.188599
0.188552
0.188436
0.18809
0.187547
0.18685
0.186297
0.185821
0.185223
0.184758
0.184417
0.184201
0.184073
0.183944
0.183832
0.183767
0.18372
0.183705
0.183685
0.183676
0.183677
0.183676
0.183685
0.183687
0.1837
0.183695
0.183688
0.183687
0.183687
0.183686
0.183681
0.183669
0.183658
0.183657
0.183658
0.183665
0.18367
0.183669
0.183668
0.183652
0.183649
0.18364
0.183629
0.183632
0.183635
0.183641
0.183628
0.18363
0.183613
0.183605
0.183601
0.183601
0.183602
0.256042
0.226463
0.218872
0.217456
0.217944
0.219269
0.221543
0.223054
0.223598
0.223254
0.221698
0.219223
0.215814
0.212141
0.208875
0.206344
0.204635
0.203424
0.2024
0.201519
0.200806
0.200227
0.1999
0.199589
0.19926
0.199013
0.198888
0.198909
0.199018
0.199148
0.199267
0.199354
0.199384
0.199346
0.199261
0.199126
0.198711
0.197844
0.196746
0.195615
0.194574
0.193639
0.192961
0.192515
0.192252
0.192082
0.191944
0.191789
0.191621
0.19144
0.191244
0.191072
0.190882
0.190717
0.190577
0.190465
0.190384
0.190333
0.19031
0.190298
0.190287
0.190283
0.190268
0.190244
0.190263
0.190329
0.190332
0.190304
0.190272
0.19023
0.190248
0.190255
0.190273
0.190269
0.190256
0.190216
0.190175
0.190029
0.189954
0.189958
0.190005
0.190099
0.190207
0.190314
0.19042
0.190541
0.190593
0.190612
0.190596
0.190585
0.190603
0.190575
0.190514
0.190411
0.190258
0.190061
0.189817
0.189537
0.189208
0.188822
0.188391
0.187975
0.187648
0.187488
0.1875
0.187489
0.187339
0.187025
0.186555
0.185975
0.185259
0.184767
0.184478
0.184207
0.183988
0.183847
0.183774
0.183723
0.183683
0.183648
0.183637
0.183616
0.183611
0.183614
0.183625
0.183638
0.183642
0.183647
0.183639
0.183628
0.183622
0.183622
0.183629
0.183628
0.183619
0.183606
0.183602
0.183604
0.183611
0.183611
0.183607
0.183601
0.183584
0.183577
0.183567
0.183561
0.183559
0.183557
0.183562
0.183548
0.183552
0.18353
0.183519
0.183515
0.183515
0.183514
0.290359
0.256119
0.237126
0.231754
0.231403
0.231455
0.233567
0.235236
0.235947
0.235428
0.232872
0.228335
0.222684
0.216138
0.211095
0.207397
0.204492
0.203038
0.201795
0.201033
0.200551
0.199952
0.199473
0.199178
0.198886
0.198547
0.198291
0.198205
0.19826
0.198377
0.198506
0.198568
0.1985
0.198304
0.198046
0.197806
0.197508
0.196895
0.196035
0.195044
0.194072
0.193276
0.192723
0.192368
0.192146
0.19201
0.191893
0.191742
0.191568
0.191381
0.191192
0.191
0.190814
0.190649
0.190513
0.19041
0.190327
0.190269
0.190239
0.190211
0.190202
0.190211
0.190225
0.190245
0.190262
0.1903
0.190251
0.19022
0.190198
0.190153
0.190168
0.190185
0.19018
0.190226
0.190248
0.190215
0.190107
0.189983
0.189885
0.18991
0.189946
0.190024
0.190145
0.190279
0.190398
0.190489
0.190531
0.190527
0.190507
0.190495
0.190499
0.190494
0.190432
0.190321
0.190171
0.189985
0.189735
0.189408
0.18902
0.188594
0.1882
0.187858
0.18759
0.187435
0.187402
0.187336
0.187119
0.186727
0.186234
0.185643
0.185227
0.184813
0.18449
0.184184
0.183986
0.183855
0.183753
0.183695
0.183658
0.183632
0.183622
0.183606
0.183595
0.183596
0.183601
0.183615
0.183619
0.183624
0.183617
0.18361
0.183605
0.183601
0.183604
0.183609
0.1836
0.18359
0.183592
0.183588
0.183593
0.183596
0.183595
0.183593
0.183576
0.183573
0.183563
0.183552
0.18355
0.183551
0.183558
0.183544
0.183544
0.183524
0.183513
0.18351
0.183511
0.183509
0.290984
0.271524
0.250137
0.242103
0.241739
0.241606
0.241761
0.242565
0.24312
0.242649
0.240046
0.235072
0.228131
0.220067
0.213067
0.208466
0.205368
0.20312
0.201793
0.200834
0.200305
0.199839
0.199387
0.198996
0.1987
0.19842
0.198155
0.197979
0.197911
0.197918
0.197947
0.197983
0.197958
0.197844
0.197666
0.197459
0.197073
0.196376
0.195485
0.1945
0.193641
0.193008
0.192598
0.192315
0.192145
0.192035
0.191939
0.191799
0.19161
0.191406
0.191224
0.19106
0.190887
0.190725
0.19058
0.190468
0.190398
0.19035
0.190303
0.190277
0.190262
0.190256
0.190228
0.19022
0.190225
0.190197
0.190196
0.190219
0.190276
0.190286
0.190272
0.190249
0.190212
0.190163
0.190148
0.190103
0.190044
0.190089
0.190017
0.190025
0.19006
0.190142
0.19025
0.190392
0.190461
0.190516
0.190579
0.190632
0.190662
0.190673
0.190623
0.190553
0.190443
0.190286
0.190079
0.18984
0.189555
0.189236
0.188864
0.188431
0.187985
0.187617
0.187357
0.187219
0.187179
0.187068
0.186793
0.186424
0.186013
0.185587
0.185198
0.184734
0.18443
0.184168
0.183979
0.183859
0.183769
0.183709
0.183668
0.183637
0.183629
0.18361
0.183603
0.183605
0.183614
0.183628
0.183626
0.183637
0.183628
0.183617
0.183613
0.183615
0.183622
0.183616
0.183612
0.183603
0.183596
0.183595
0.183602
0.183604
0.183602
0.183598
0.183586
0.183578
0.18357
0.18356
0.183561
0.183562
0.183569
0.183554
0.183556
0.183537
0.183525
0.18352
0.18352
0.183523
0.256821
0.261183
0.251357
0.246513
0.2465
0.246029
0.245039
0.244876
0.245228
0.244875
0.242535
0.237991
0.231243
0.22285
0.214823
0.20922
0.205906
0.203819
0.202295
0.201311
0.200718
0.199964
0.199551
0.199155
0.198725
0.198329
0.198078
0.197934
0.197836
0.197743
0.197648
0.197528
0.197331
0.197042
0.196722
0.196445
0.196146
0.195614
0.194928
0.19421
0.193573
0.193036
0.192641
0.192336
0.192153
0.192039
0.191947
0.1918
0.191588
0.19136
0.191159
0.190975
0.190805
0.190639
0.190498
0.190387
0.190314
0.190278
0.190251
0.190257
0.190263
0.190256
0.190231
0.190225
0.190247
0.190265
0.190276
0.190288
0.190288
0.190312
0.19038
0.190381
0.190383
0.190317
0.190238
0.190134
0.190096
0.190036
0.190026
0.190135
0.190242
0.190348
0.190425
0.19053
0.190613
0.190682
0.190718
0.190729
0.190724
0.190722
0.190721
0.190662
0.190556
0.190406
0.19021
0.189968
0.189669
0.189311
0.188894
0.188434
0.187974
0.187557
0.187225
0.187034
0.186992
0.186956
0.186796
0.186489
0.186098
0.185671
0.185176
0.184714
0.184402
0.18416
0.183971
0.183852
0.183764
0.183699
0.183669
0.183634
0.183627
0.183608
0.183605
0.183604
0.183607
0.183616
0.183627
0.183636
0.18363
0.183622
0.183616
0.183616
0.183618
0.18362
0.183609
0.1836
0.1836
0.183593
0.183596
0.183599
0.183598
0.183599
0.183585
0.18358
0.183569
0.183561
0.183561
0.183562
0.183567
0.183553
0.183552
0.183531
0.183521
0.183517
0.183517
0.183515
0.242779
0.248554
0.249031
0.247826
0.246779
0.246835
0.246442
0.246508
0.246596
0.245905
0.243508
0.23906
0.232491
0.224075
0.215496
0.209642
0.205798
0.203721
0.20233
0.201224
0.200264
0.199728
0.199218
0.198871
0.19855
0.198198
0.197938
0.197837
0.19786
0.197894
0.197863
0.197746
0.197552
0.197277
0.196987
0.196742
0.196446
0.19586
0.195108
0.194343
0.193674
0.193105
0.192641
0.1923
0.192106
0.192001
0.191919
0.191774
0.191592
0.191407
0.191242
0.191083
0.190933
0.190773
0.190641
0.19054
0.190451
0.190375
0.190326
0.190317
0.190295
0.190279
0.190244
0.190235
0.190246
0.190263
0.190229
0.190249
0.190244
0.190257
0.19027
0.190252
0.190212
0.190119
0.190033
0.189996
0.189995
0.189931
0.189942
0.190043
0.190151
0.190229
0.190323
0.190379
0.190427
0.190455
0.190462
0.190451
0.190436
0.190417
0.190406
0.190386
0.190345
0.190261
0.19012
0.189927
0.18966
0.189325
0.188912
0.188431
0.18796
0.187577
0.187311
0.187182
0.187161
0.187078
0.18685
0.186486
0.186058
0.185561
0.185092
0.184656
0.184408
0.184142
0.183948
0.183835
0.183755
0.183693
0.183659
0.18363
0.183623
0.183607
0.1836
0.183603
0.183606
0.183625
0.183627
0.183633
0.183624
0.183617
0.183612
0.183614
0.183612
0.183614
0.183608
0.183594
0.183597
0.183598
0.183602
0.183602
0.183598
0.183596
0.183584
0.183586
0.18358
0.183568
0.183567
0.183568
0.183575
0.183561
0.183561
0.183539
0.183526
0.183525
0.183527
0.183528
0.238329
0.244248
0.246229
0.246906
0.246688
0.246366
0.246494
0.246484
0.246597
0.246022
0.243784
0.239439
0.232862
0.224374
0.215592
0.209642
0.205907
0.203658
0.202275
0.201208
0.200349
0.199936
0.19957
0.199199
0.198833
0.198482
0.198149
0.197883
0.197738
0.197692
0.197649
0.197554
0.197402
0.197215
0.197046
0.19691
0.196603
0.196019
0.195286
0.194501
0.193793
0.193158
0.192657
0.192303
0.192106
0.192003
0.191941
0.191805
0.191651
0.191481
0.191321
0.191145
0.190979
0.190797
0.190664
0.190572
0.190483
0.190382
0.190312
0.190278
0.190256
0.19025
0.190248
0.190261
0.190303
0.190374
0.190409
0.190434
0.190437
0.19042
0.190417
0.190376
0.190339
0.190247
0.1902
0.1902
0.190218
0.190172
0.190117
0.190175
0.190218
0.190296
0.190359
0.19045
0.190498
0.190542
0.190578
0.190599
0.190614
0.19062
0.190623
0.190599
0.190493
0.190316
0.190095
0.189852
0.189574
0.189247
0.188858
0.188396
0.187902
0.187456
0.187129
0.186976
0.186961
0.18691
0.186717
0.186421
0.186033
0.185572
0.185147
0.184731
0.18446
0.184185
0.183986
0.183852
0.183748
0.183702
0.183658
0.18363
0.183622
0.183605
0.183598
0.183601
0.183605
0.18362
0.183623
0.183628
0.183621
0.183613
0.183609
0.183607
0.183615
0.183614
0.183605
0.183592
0.183585
0.183594
0.1836
0.183604
0.183604
0.183604
0.183587
0.183579
0.18357
0.183564
0.18357
0.183573
0.183579
0.183563
0.18356
0.183536
0.183526
0.183524
0.183523
0.183521
0.235931
0.240707
0.243219
0.243796
0.242965
0.241676
0.241026
0.24032
0.240294
0.240221
0.239122
0.236497
0.231743
0.224509
0.215878
0.209513
0.205798
0.203789
0.201916
0.200964
0.200527
0.19987
0.199393
0.199004
0.198671
0.198314
0.198057
0.197883
0.197757
0.197696
0.197639
0.197537
0.197326
0.196992
0.196617
0.196315
0.196067
0.195655
0.195041
0.194347
0.193712
0.193109
0.192626
0.192277
0.192087
0.191987
0.191914
0.191767
0.191597
0.1914
0.191222
0.191048
0.190876
0.190687
0.190533
0.190413
0.190304
0.190218
0.190181
0.190182
0.190191
0.190211
0.190219
0.190232
0.190247
0.190282
0.190269
0.190293
0.190301
0.190332
0.190346
0.190326
0.190335
0.190309
0.190287
0.19023
0.190167
0.190082
0.190092
0.1901
0.190143
0.190232
0.190348
0.190497
0.190627
0.190722
0.190774
0.190796
0.190797
0.190785
0.190742
0.190671
0.190553
0.190388
0.190172
0.189927
0.189629
0.189282
0.188882
0.188431
0.187987
0.187584
0.187243
0.187022
0.186971
0.186961
0.186839
0.186547
0.186148
0.185695
0.185245
0.184802
0.184434
0.184176
0.183988
0.183862
0.183764
0.183694
0.183659
0.183628
0.18362
0.183603
0.183596
0.183599
0.183604
0.183624
0.183633
0.183642
0.183635
0.18362
0.183615
0.183611
0.183616
0.183617
0.18361
0.183597
0.183585
0.183591
0.183608
0.18361
0.183604
0.1836
0.18359
0.183578
0.183572
0.18357
0.183573
0.183576
0.183583
0.18357
0.183569
0.183545
0.183536
0.183534
0.183535
0.183536
0.225598
0.231089
0.233604
0.234566
0.234904
0.233794
0.231278
0.230167
0.229811
0.22948
0.228713
0.22716
0.224424
0.220398
0.215171
0.209583
0.205588
0.203275
0.201896
0.20095
0.20012
0.199541
0.199123
0.198777
0.198431
0.198135
0.197889
0.197788
0.19776
0.197761
0.197726
0.19765
0.197517
0.197313
0.197094
0.196906
0.196571
0.195947
0.195157
0.194362
0.193623
0.192971
0.192476
0.192146
0.19197
0.191884
0.191788
0.191665
0.191498
0.191333
0.191163
0.190983
0.190794
0.190614
0.190442
0.190305
0.190196
0.190128
0.19011
0.190124
0.190155
0.190201
0.190216
0.190269
0.19021
0.190169
0.190143
0.19013
0.190135
0.190149
0.190165
0.190197
0.190164
0.190167
0.190134
0.190077
0.189998
0.189943
0.189944
0.189949
0.189977
0.190049
0.190168
0.190305
0.190401
0.19047
0.190521
0.190553
0.190561
0.190555
0.190524
0.19046
0.190384
0.190275
0.190115
0.189901
0.189627
0.189294
0.188894
0.188437
0.187984
0.187608
0.187349
0.18723
0.187207
0.187098
0.186837
0.186454
0.186023
0.18557
0.185106
0.184641
0.184377
0.184125
0.183937
0.183823
0.183755
0.183693
0.183659
0.183628
0.183622
0.183603
0.183599
0.183605
0.183603
0.183615
0.183618
0.183627
0.183619
0.18361
0.183606
0.183609
0.183612
0.183612
0.183604
0.183603
0.183605
0.183598
0.183597
0.183598
0.183599
0.183599
0.183589
0.183593
0.183582
0.183569
0.183566
0.183567
0.183574
0.183558
0.183556
0.183533
0.183522
0.183519
0.183517
0.183515
0.220029
0.220625
0.219751
0.218589
0.218952
0.21984
0.219962
0.220002
0.220207
0.220212
0.219756
0.218841
0.217263
0.214766
0.211519
0.208464
0.205662
0.203454
0.202273
0.20132
0.200392
0.199856
0.199479
0.19913
0.198721
0.198358
0.19801
0.19784
0.197778
0.197703
0.197646
0.197536
0.197337
0.197055
0.196747
0.196484
0.196226
0.195761
0.195105
0.194369
0.193646
0.192997
0.192508
0.192177
0.192011
0.191951
0.191874
0.19178
0.191596
0.191418
0.19122
0.191025
0.190839
0.190672
0.190522
0.1904
0.190324
0.190285
0.190253
0.190243
0.190243
0.190269
0.190266
0.190294
0.190276
0.190264
0.190245
0.190248
0.190271
0.190274
0.190306
0.190321
0.190279
0.190219
0.190132
0.190078
0.190018
0.190025
0.190005
0.190039
0.190078
0.190185
0.190272
0.190401
0.190457
0.190486
0.19049
0.190507
0.190521
0.190554
0.19059
0.190592
0.190511
0.190365
0.19017
0.18994
0.189655
0.189313
0.188904
0.18843
0.187945
0.187505
0.187142
0.186922
0.186871
0.186854
0.186708
0.186434
0.186057
0.185583
0.185118
0.184689
0.184442
0.184173
0.183976
0.183851
0.183752
0.183701
0.183663
0.183632
0.183624
0.183607
0.1836
0.183603
0.183609
0.183627
0.183628
0.183636
0.183629
0.183621
0.183618
0.183618
0.183622
0.183625
0.183613
0.183599
0.183597
0.1836
0.183606
0.183607
0.183605
0.183604
0.183589
0.183588
0.183584
0.183572
0.183571
0.183572
0.18358
0.183568
0.183565
0.18354
0.18353
0.183529
0.183531
0.18353
0.215237
0.212899
0.21113
0.210135
0.210568
0.211573
0.212461
0.213209
0.2139
0.214436
0.21473
0.214567
0.213844
0.21232
0.210107
0.207121
0.204816
0.203457
0.201894
0.200852
0.200197
0.199713
0.199293
0.198874
0.198636
0.198269
0.198047
0.197786
0.197691
0.197703
0.197673
0.197575
0.197427
0.197223
0.197017
0.196853
0.196557
0.19599
0.19525
0.194444
0.19368
0.193024
0.192535
0.192209
0.192046
0.191971
0.19189
0.191786
0.191592
0.191407
0.191224
0.191028
0.190827
0.190642
0.190478
0.190347
0.190266
0.19022
0.19019
0.19019
0.190187
0.190267
0.190257
0.190253
0.1902
0.190223
0.190259
0.190274
0.190284
0.190267
0.190269
0.19029
0.190244
0.190228
0.190191
0.190132
0.190109
0.190043
0.190006
0.190035
0.190056
0.190117
0.190215
0.190346
0.190438
0.190508
0.190566
0.190629
0.190662
0.190666
0.190629
0.190562
0.190462
0.190321
0.190131
0.189899
0.189614
0.189279
0.188887
0.188444
0.188006
0.187644
0.1874
0.187292
0.187274
0.187173
0.186941
0.186579
0.186143
0.185679
0.185244
0.184815
0.184447
0.184166
0.183978
0.183858
0.183757
0.183693
0.183656
0.183628
0.183623
0.183608