/*--------------------------------*- C++ -*----------------------------------*\
| =========                 |                                                 |
| \\      /  F ield         | OpenFOAM: The Open Source CFD Toolbox           |
|  \\    /   O peration     | Version:  v1912                                 |
|   \\  /    A nd           | Website:  www.openfoam.com                      |
|    \\/     M anipulation  |                                                 |
\*---------------------------------------------------------------------------*/
FoamFile
{
    version     2.0;
    format      ascii;
    class       volSymmTensorField;
    location    "40";
    object      R;
}
// * * * * * * * * * * * * * * * * * * * * * * * * * * * * * * * * * * * * * //

dimensions      [0 2 -2 0 0 0 0];


internalField   nonuniform List<symmTensor> 
14268
(
(1.68249e-09 -6.24745e-12 0 1.67623e-09 0 1.67942e-09)
(1.73345e-09 -6.69644e-12 0 1.74589e-09 0 1.73974e-09)
(1.80302e-09 -7.27527e-12 0 1.84154e-09 0 1.82229e-09)
(1.89704e-09 -8.2061e-12 0 1.96439e-09 0 1.93074e-09)
(1.96367e-09 -8.84923e-12 0 2.05519e-09 0 2.00946e-09)
(1.99603e-09 -9.20078e-12 0 2.10224e-09 0 2.0492e-09)
(1.99562e-09 -9.26458e-12 0 2.10284e-09 0 2.04945e-09)
(1.96452e-09 -8.91959e-12 0 2.06196e-09 0 2.01344e-09)
(1.91359e-09 -8.52216e-12 0 1.99983e-09 0 1.9569e-09)
(1.87879e-09 -8.25542e-12 0 1.959e-09 0 1.91906e-09)
(1.86434e-09 -8.17764e-12 0 1.94517e-09 0 1.90482e-09)
(1.8656e-09 -8.2514e-12 0 1.95115e-09 0 1.90823e-09)
(1.87808e-09 -8.39292e-12 0 1.96805e-09 0 1.92287e-09)
(1.87133e-09 -8.34781e-12 0 1.95999e-09 0 1.91548e-09)
(1.82918e-09 -7.96987e-12 0 1.90825e-09 0 1.86873e-09)
(1.76151e-09 -7.31522e-12 0 1.82456e-09 0 1.79318e-09)
(1.71863e-09 -6.99105e-12 0 1.76595e-09 0 1.74262e-09)
(1.70157e-09 -6.7993e-12 0 1.73787e-09 0 1.72001e-09)
(1.69739e-09 -6.69605e-12 0 1.73028e-09 0 1.71405e-09)
(1.70762e-09 -6.74699e-12 0 1.74472e-09 0 1.72611e-09)
(1.72265e-09 -6.93676e-12 0 1.76854e-09 0 1.74543e-09)
(1.72499e-09 -6.99176e-12 0 1.77662e-09 0 1.7506e-09)
(1.72388e-09 -6.97315e-12 0 1.77305e-09 0 1.74846e-09)
(1.7207e-09 -6.94639e-12 0 1.75755e-09 0 1.73933e-09)
(1.71516e-09 -6.82253e-12 0 1.73507e-09 0 1.72543e-09)
(1.7078e-09 -6.67792e-12 0 1.71337e-09 0 1.7108e-09)
(1.69959e-09 -6.55537e-12 0 1.70001e-09 0 1.69988e-09)
(1.69074e-09 -6.51615e-12 0 1.69481e-09 0 1.69271e-09)
(1.68436e-09 -6.44684e-12 0 1.69818e-09 0 1.6912e-09)
(1.68606e-09 -6.50328e-12 0 1.71137e-09 0 1.69867e-09)
(1.70121e-09 -6.60697e-12 0 1.74062e-09 0 1.72095e-09)
(1.73227e-09 -6.79597e-12 0 1.78684e-09 0 1.75948e-09)
(1.80568e-09 -7.28405e-12 0 1.89164e-09 0 1.84914e-09)
(2.12035e-09 -9.40823e-12 0 2.32681e-09 0 2.22327e-09)
(3.24982e-09 -1.11511e-11 0 4.02034e-09 0 3.63513e-09)
(5.79421e-09 -1.63704e-10 0 8.91316e-09 0 7.3402e-09)
(8.72752e-09 6.35782e-10 0 1.6453e-08 0 1.25378e-08)
(1.09697e-08 -1.02801e-09 0 2.28769e-08 0 1.67871e-08)
(1.34017e-08 -1.16376e-10 0 3.1267e-08 0 2.22644e-08)
(1.70712e-08 6.28418e-10 0 4.46785e-08 0 3.04782e-08)
(2.31422e-08 -7.38292e-11 0 6.56757e-08 0 4.37925e-08)
(2.32049e-08 -1.87696e-10 0 6.0188e-08 0 4.11697e-08)
(2.07553e-08 -2.58505e-10 0 4.25756e-08 0 3.14365e-08)
(1.39989e-08 -1.0192e-09 0 2.25242e-08 0 1.80914e-08)
(2.87045e-08 -2.0458e-10 0 2.82616e-08 0 2.8485e-08)
(2.89402e-08 -2.12805e-10 0 2.88552e-08 0 2.89004e-08)
(2.92967e-08 -2.21714e-10 0 2.96835e-08 0 2.94927e-08)
(2.96878e-08 -2.36933e-10 0 3.05721e-08 0 3.01334e-08)
(3.00094e-08 -2.47632e-10 0 3.13144e-08 0 3.06659e-08)
(3.02178e-08 -2.55102e-10 0 3.18066e-08 0 3.10171e-08)
(3.02484e-08 -2.58511e-10 0 3.19139e-08 0 3.10887e-08)
(3.01377e-08 -2.55709e-10 0 3.17011e-08 0 3.09275e-08)
(2.99864e-08 -2.5095e-10 0 3.14159e-08 0 3.07094e-08)
(2.98862e-08 -2.4862e-10 0 3.12401e-08 0 3.05712e-08)
(2.98755e-08 -2.47374e-10 0 3.12552e-08 0 3.05709e-08)
(2.9936e-08 -2.48716e-10 0 3.14085e-08 0 3.06731e-08)
(2.99933e-08 -2.5126e-10 0 3.1562e-08 0 3.07769e-08)
(2.99917e-08 -2.52331e-10 0 3.15858e-08 0 3.07875e-08)
(2.98894e-08 -2.49776e-10 0 3.14035e-08 0 3.06487e-08)
(2.97194e-08 -2.4271e-10 0 3.10506e-08 0 3.03894e-08)
(2.95405e-08 -2.39463e-10 0 3.06657e-08 0 3.01117e-08)
(2.94224e-08 -2.35354e-10 0 3.03926e-08 0 2.99155e-08)
(2.93814e-08 -2.32971e-10 0 3.03284e-08 0 2.98623e-08)
(2.94538e-08 -2.33433e-10 0 3.04974e-08 0 2.99772e-08)
(2.95701e-08 -2.38726e-10 0 3.07982e-08 0 3.01839e-08)
(2.96637e-08 -2.42034e-10 0 3.10338e-08 0 3.03462e-08)
(2.96483e-08 -2.42486e-10 0 3.10251e-08 0 3.03382e-08)
(2.95197e-08 -2.40838e-10 0 3.07087e-08 0 3.01186e-08)
(2.93115e-08 -2.35488e-10 0 3.02265e-08 0 2.97761e-08)
(2.91229e-08 -2.29064e-10 0 2.97898e-08 0 2.94611e-08)
(2.90164e-08 -2.25419e-10 0 2.96022e-08 0 2.93118e-08)
(2.90174e-08 -2.26784e-10 0 2.96738e-08 0 2.93454e-08)
(2.90891e-08 -2.27841e-10 0 2.99501e-08 0 2.95195e-08)
(2.92398e-08 -2.33064e-10 0 3.03681e-08 0 2.9804e-08)
(2.94836e-08 -2.38744e-10 0 3.09785e-08 0 3.02329e-08)
(2.98632e-08 -2.46695e-10 0 3.1795e-08 0 3.08288e-08)
(3.0506e-08 -2.59661e-10 0 3.33022e-08 0 3.19143e-08)
(3.22828e-08 -2.93933e-10 0 3.75882e-08 0 3.49309e-08)
(3.53863e-08 -2.68992e-10 0 4.82192e-08 0 4.18032e-08)
(3.87466e-08 -1.4872e-09 0 6.95995e-08 0 5.40362e-08)
(4.1091e-08 3.89603e-09 0 9.63946e-08 0 6.83696e-08)
(4.30109e-08 -6.60078e-09 0 1.1957e-07 0 8.04281e-08)
(4.46927e-08 -4.03127e-10 0 1.46132e-07 0 9.49529e-08)
(4.86011e-08 2.78454e-09 0 1.81316e-07 0 1.13098e-07)
(5.61263e-08 -2.97434e-10 0 2.37471e-07 0 1.44005e-07)
(5.93932e-08 -1.83332e-09 0 2.37607e-07 0 1.45933e-07)
(5.95506e-08 -3.0491e-09 0 2.09475e-07 0 1.32258e-07)
(5.23119e-08 -8.04969e-09 0 1.45873e-07 0 9.91615e-08)
(6.00196e-08 -9.35418e-10 0 5.87843e-08 0 5.94288e-08)
(5.98907e-08 -9.47554e-10 0 5.94245e-08 0 5.96844e-08)
(5.97799e-08 -9.55852e-10 0 6.02923e-08 0 6.00598e-08)
(5.96301e-08 -9.75232e-10 0 6.11535e-08 0 6.04152e-08)
(5.95198e-08 -9.90951e-10 0 6.18773e-08 0 6.07224e-08)
(5.94523e-08 -1.00267e-09 0 6.23738e-08 0 6.09342e-08)
(5.93944e-08 -1.00867e-09 0 6.24872e-08 0 6.09635e-08)
(5.93792e-08 -1.0083e-09 0 6.23e-08 0 6.08595e-08)
(5.9383e-08 -1.00049e-09 0 6.2061e-08 0 6.07432e-08)
(5.93821e-08 -9.97883e-10 0 6.19233e-08 0 6.06733e-08)
(5.93687e-08 -9.95516e-10 0 6.19711e-08 0 6.06878e-08)
(5.93571e-08 -9.97077e-10 0 6.21428e-08 0 6.07597e-08)
(5.93043e-08 -1.00104e-09 0 6.2297e-08 0 6.08077e-08)
(5.92677e-08 -1.0043e-09 0 6.23228e-08 0 6.0802e-08)
(5.92446e-08 -9.99623e-10 0 6.21801e-08 0 6.07262e-08)
(5.92713e-08 -9.94665e-10 0 6.18728e-08 0 6.05897e-08)
(5.92496e-08 -9.91515e-10 0 6.149e-08 0 6.03966e-08)
(5.92375e-08 -9.83248e-10 0 6.11906e-08 0 6.0239e-08)
(5.91953e-08 -9.79416e-10 0 6.11375e-08 0 6.01915e-08)
(5.91857e-08 -9.76276e-10 0 6.13247e-08 0 6.02686e-08)
(5.91322e-08 -9.85216e-10 0 6.1667e-08 0 6.04098e-08)
(5.91082e-08 -9.89461e-10 0 6.19272e-08 0 6.05231e-08)
(5.90392e-08 -9.93062e-10 0 6.19161e-08 0 6.04915e-08)
(5.90056e-08 -9.91962e-10 0 6.15245e-08 0 6.02848e-08)
(5.89505e-08 -9.84873e-10 0 6.09712e-08 0 5.99887e-08)
(5.89352e-08 -9.72104e-10 0 6.04679e-08 0 5.9726e-08)
(5.88858e-08 -9.63676e-10 0 6.03037e-08 0 5.96169e-08)
(5.88645e-08 -9.65781e-10 0 6.04377e-08 0 5.96668e-08)
(5.87892e-08 -9.67515e-10 0 6.08333e-08 0 5.98274e-08)
(5.87281e-08 -9.74917e-10 0 6.1348e-08 0 6.00527e-08)
(5.8621e-08 -9.83982e-10 0 6.20667e-08 0 6.036e-08)
(5.85588e-08 -9.94891e-10 0 6.29394e-08 0 6.07601e-08)
(5.83401e-08 -9.97765e-10 0 6.44867e-08 0 6.14427e-08)
(5.79239e-08 -9.97827e-10 0 6.864e-08 0 6.32779e-08)
(5.59661e-08 -8.89668e-10 0 7.85532e-08 0 6.72504e-08)
(5.24008e-08 -1.58985e-09 0 9.78624e-08 0 7.49766e-08)
(5.03182e-08 2.5698e-09 0 1.21497e-07 0 8.52385e-08)
(4.97751e-08 -6.14644e-09 0 1.43407e-07 0 9.54342e-08)
(4.98286e-08 1.84038e-10 0 1.68195e-07 0 1.08249e-07)
(5.29466e-08 2.17111e-09 0 2.01801e-07 0 1.24949e-07)
(5.9325e-08 -4.15759e-10 0 2.56155e-07 0 1.54357e-07)
(6.29894e-08 -2.47594e-09 0 2.58437e-07 0 1.57599e-07)
(6.27971e-08 -4.69434e-09 0 2.35989e-07 0 1.47503e-07)
(6.64895e-08 -8.7867e-09 0 1.96105e-07 0 1.27933e-07)
(6.99656e-08 -1.45773e-09 0 6.85647e-08 0 6.92545e-08)
(6.96013e-08 -1.46279e-09 0 6.90832e-08 0 6.9333e-08)
(6.91683e-08 -1.46757e-09 0 6.97668e-08 0 6.94578e-08)
(6.86934e-08 -1.47439e-09 0 7.04746e-08 0 6.95747e-08)
(6.83295e-08 -1.49154e-09 0 7.10579e-08 0 6.96831e-08)
(6.80882e-08 -1.50239e-09 0 7.14522e-08 0 6.97608e-08)
(6.79937e-08 -1.51044e-09 0 7.15546e-08 0 6.977e-08)
(6.8059e-08 -1.51302e-09 0 7.14201e-08 0 6.97352e-08)
(6.81654e-08 -1.50958e-09 0 7.12594e-08 0 6.97047e-08)
(6.82259e-08 -1.50467e-09 0 7.11646e-08 0 6.96857e-08)
(6.81993e-08 -1.50221e-09 0 7.12233e-08 0 6.96981e-08)
(6.81407e-08 -1.50214e-09 0 7.13562e-08 0 6.97286e-08)
(6.80338e-08 -1.505e-09 0 7.15008e-08 0 6.97455e-08)
(6.8001e-08 -1.50962e-09 0 7.15297e-08 0 6.9742e-08)
(6.80196e-08 -1.50705e-09 0 7.14391e-08 0 6.97144e-08)
(6.81698e-08 -1.50995e-09 0 7.11849e-08 0 6.96672e-08)
(6.82753e-08 -1.50551e-09 0 7.09138e-08 0 6.95938e-08)
(6.83806e-08 -1.49833e-09 0 7.06731e-08 0 6.95271e-08)
(6.83532e-08 -1.49156e-09 0 7.06597e-08 0 6.95059e-08)
(6.82973e-08 -1.48723e-09 0 7.08045e-08 0 6.95371e-08)
(6.81178e-08 -1.49194e-09 0 7.11086e-08 0 6.95948e-08)
(6.80138e-08 -1.49622e-09 0 7.13125e-08 0 6.96398e-08)
(6.79374e-08 -1.50333e-09 0 7.13329e-08 0 6.96209e-08)
(6.80435e-08 -1.50421e-09 0 7.10162e-08 0 6.95241e-08)
(6.81768e-08 -1.49806e-09 0 7.06102e-08 0 6.9395e-08)
(6.83571e-08 -1.48742e-09 0 7.02122e-08 0 6.92826e-08)
(6.83666e-08 -1.47787e-09 0 7.01204e-08 0 6.92376e-08)
(6.83022e-08 -1.47287e-09 0 7.02332e-08 0 6.92561e-08)
(6.80898e-08 -1.47366e-09 0 7.05754e-08 0 6.93195e-08)
(6.78396e-08 -1.47451e-09 0 7.09993e-08 0 6.94065e-08)
(6.74827e-08 -1.47871e-09 0 7.15961e-08 0 6.95257e-08)
(6.71013e-08 -1.48013e-09 0 7.23101e-08 0 6.96868e-08)
(6.63392e-08 -1.45494e-09 0 7.35555e-08 0 6.99452e-08)
(6.45777e-08 -1.37747e-09 0 7.69927e-08 0 7.07471e-08)
(6.02759e-08 -1.14456e-09 0 8.5557e-08 0 7.2861e-08)
(5.47345e-08 -1.32737e-09 0 1.02906e-07 0 7.85394e-08)
(5.15404e-08 1.25361e-09 0 1.24518e-07 0 8.72674e-08)
(5.02277e-08 -3.89617e-09 0 1.45145e-07 0 9.67113e-08)
(5.00236e-08 3.51451e-10 0 1.69138e-07 0 1.09074e-07)
(5.28958e-08 7.64335e-10 0 2.02074e-07 0 1.25224e-07)
(5.84343e-08 2.3359e-10 0 2.5474e-07 0 1.53594e-07)
(6.2751e-08 -1.12324e-09 0 2.58085e-07 0 1.5745e-07)
(6.55686e-08 -3.87834e-09 0 2.37403e-07 0 1.48334e-07)
(5.72871e-08 -6.96549e-09 0 2.00467e-07 0 1.29768e-07)
(7.21158e-08 -1.66402e-09 0 7.06539e-08 0 7.13767e-08)
(7.16745e-08 -1.66e-09 0 7.11081e-08 0 7.13871e-08)
(7.11278e-08 -1.65971e-09 0 7.17193e-08 0 7.14188e-08)
(7.05507e-08 -1.66312e-09 0 7.23625e-08 0 7.1453e-08)
(7.01135e-08 -1.67555e-09 0 7.28736e-08 0 7.14887e-08)
(6.981e-08 -1.68535e-09 0 7.32358e-08 0 7.15178e-08)
(6.97029e-08 -1.69529e-09 0 7.33367e-08 0 7.15201e-08)
(6.97964e-08 -1.70262e-09 0 7.32232e-08 0 7.15099e-08)
(6.99257e-08 -1.69947e-09 0 7.30637e-08 0 7.14964e-08)
(6.99986e-08 -1.6941e-09 0 7.29742e-08 0 7.14879e-08)
(6.99604e-08 -1.69138e-09 0 7.30357e-08 0 7.14952e-08)
(6.98944e-08 -1.68827e-09 0 7.31549e-08 0 7.15113e-08)
(6.97705e-08 -1.69053e-09 0 7.33111e-08 0 7.15224e-08)
(6.97451e-08 -1.69594e-09 0 7.33333e-08 0 7.15202e-08)
(6.97696e-08 -1.69863e-09 0 7.32677e-08 0 7.15065e-08)
(6.99519e-08 -1.70367e-09 0 7.30297e-08 0 7.14845e-08)
(7.01023e-08 -1.69425e-09 0 7.27955e-08 0 7.14529e-08)
(7.02538e-08 -1.69488e-09 0 7.26044e-08 0 7.14312e-08)
(7.0244e-08 -1.68528e-09 0 7.26055e-08 0 7.14242e-08)
(7.01746e-08 -1.67953e-09 0 7.27271e-08 0 7.14392e-08)
(6.99561e-08 -1.67879e-09 0 7.30133e-08 0 7.14648e-08)
(6.98089e-08 -1.68626e-09 0 7.32047e-08 0 7.14834e-08)
(6.975e-08 -1.69418e-09 0 7.32288e-08 0 7.14718e-08)
(6.99052e-08 -1.69907e-09 0 7.2982e-08 0 7.14337e-08)
(7.0139e-08 -1.6972e-09 0 7.26386e-08 0 7.13852e-08)
(7.03897e-08 -1.68747e-09 0 7.23145e-08 0 7.13472e-08)
(7.04478e-08 -1.67822e-09 0 7.22418e-08 0 7.13335e-08)
(7.03505e-08 -1.66971e-09 0 7.23565e-08 0 7.13395e-08)
(7.00934e-08 -1.66613e-09 0 7.26531e-08 0 7.13573e-08)
(6.97522e-08 -1.66197e-09 0 7.30335e-08 0 7.13816e-08)
(6.93214e-08 -1.66103e-09 0 7.35405e-08 0 7.14201e-08)
(6.88033e-08 -1.65284e-09 0 7.41883e-08 0 7.14845e-08)
(6.78658e-08 -1.60221e-09 0 7.52849e-08 0 7.15838e-08)
(6.56626e-08 -1.46744e-09 0 7.84744e-08 0 7.20473e-08)
(6.08797e-08 -1.13917e-09 0 8.6543e-08 0 7.36772e-08)
(5.49282e-08 -1.06923e-09 0 1.03286e-07 0 7.88954e-08)
(5.14679e-08 6.84147e-10 0 1.24309e-07 0 8.72837e-08)
(5.02862e-08 -2.29553e-09 0 1.45088e-07 0 9.67192e-08)
(5.04659e-08 2.53186e-10 0 1.69657e-07 0 1.09229e-07)
(5.26307e-08 -9.06794e-10 0 2.01899e-07 0 1.24926e-07)
(5.75332e-08 1.73148e-09 0 2.52009e-07 0 1.52124e-07)
(6.24957e-08 2.70812e-09 0 2.5458e-07 0 1.55717e-07)
(6.35383e-08 -4.46156e-10 0 2.34551e-07 0 1.46728e-07)
(5.87456e-08 -3.03675e-09 0 2.11809e-07 0 1.34713e-07)
(7.24978e-08 -1.72378e-09 0 7.10303e-08 0 7.17637e-08)
(7.205e-08 -1.71462e-09 0 7.14722e-08 0 7.17607e-08)
(7.14814e-08 -1.71031e-09 0 7.20619e-08 0 7.17682e-08)
(7.08806e-08 -1.71798e-09 0 7.26875e-08 0 7.17813e-08)
(7.04033e-08 -1.72282e-09 0 7.3196e-08 0 7.17979e-08)
(7.00958e-08 -1.73284e-09 0 7.35271e-08 0 7.18108e-08)
(7.00053e-08 -1.74595e-09 0 7.36074e-08 0 7.18103e-08)
(7.00949e-08 -1.75487e-09 0 7.35148e-08 0 7.18069e-08)
(7.02271e-08 -1.75177e-09 0 7.3372e-08 0 7.1801e-08)
(7.02806e-08 -1.74817e-09 0 7.33103e-08 0 7.1797e-08)
(7.02697e-08 -1.74198e-09 0 7.33365e-08 0 7.17999e-08)
(7.01774e-08 -1.73876e-09 0 7.34652e-08 0 7.1811e-08)
(7.00766e-08 -1.74025e-09 0 7.35841e-08 0 7.18173e-08)
(7.00298e-08 -1.74957e-09 0 7.36286e-08 0 7.18171e-08)
(7.00711e-08 -1.75308e-09 0 7.35439e-08 0 7.18035e-08)
(7.02361e-08 -1.75896e-09 0 7.33301e-08 0 7.17867e-08)
(7.04277e-08 -1.75121e-09 0 7.30799e-08 0 7.17654e-08)
(7.05611e-08 -1.75081e-09 0 7.29231e-08 0 7.17549e-08)
(7.0574e-08 -1.73971e-09 0 7.29086e-08 0 7.17512e-08)
(7.04948e-08 -1.73442e-09 0 7.3051e-08 0 7.17681e-08)
(7.02623e-08 -1.73061e-09 0 7.33082e-08 0 7.17782e-08)
(7.01055e-08 -1.73959e-09 0 7.34855e-08 0 7.17867e-08)
(7.00538e-08 -1.74926e-09 0 7.34963e-08 0 7.17746e-08)
(7.02158e-08 -1.75556e-09 0 7.32665e-08 0 7.17508e-08)
(7.04836e-08 -1.7584e-09 0 7.2937e-08 0 7.17242e-08)
(7.07473e-08 -1.74804e-09 0 7.26641e-08 0 7.17137e-08)
(7.08237e-08 -1.7386e-09 0 7.25954e-08 0 7.17096e-08)
(7.07195e-08 -1.72867e-09 0 7.27193e-08 0 7.17141e-08)
(7.04525e-08 -1.72065e-09 0 7.30122e-08 0 7.17217e-08)
(7.00923e-08 -1.71316e-09 0 7.33938e-08 0 7.17334e-08)
(6.96461e-08 -1.70991e-09 0 7.38833e-08 0 7.17535e-08)
(6.90911e-08 -1.69576e-09 0 7.45304e-08 0 7.1797e-08)
(6.81063e-08 -1.6281e-09 0 7.56032e-08 0 7.18602e-08)
(6.58452e-08 -1.44651e-09 0 7.87132e-08 0 7.22488e-08)
(6.09615e-08 -1.05282e-09 0 8.66958e-08 0 7.37862e-08)
(5.49642e-08 -7.79426e-10 0 1.03299e-07 0 7.89051e-08)
(5.16391e-08 7.5901e-10 0 1.24652e-07 0 8.74962e-08)
(5.04197e-08 -9.91369e-10 0 1.4502e-07 0 9.66758e-08)
(4.9889e-08 -3.6974e-10 0 1.68788e-07 0 1.08728e-07)
(5.25307e-08 -2.83749e-09 0 2.02578e-07 0 1.24859e-07)
(5.93687e-08 7.58759e-09 0 2.48735e-07 0 1.50884e-07)
(6.23324e-08 1.08104e-08 0 2.49501e-07 0 1.53473e-07)
(6.44708e-08 5.36175e-09 0 2.31535e-07 0 1.45294e-07)
(5.42619e-08 2.34558e-09 0 2.0169e-07 0 1.29227e-07)
(7.25691e-08 -1.73506e-09 0 7.10807e-08 0 7.18261e-08)
(7.20998e-08 -1.72197e-09 0 7.15288e-08 0 7.18171e-08)
(7.15257e-08 -1.71699e-09 0 7.2108e-08 0 7.1818e-08)
(7.09387e-08 -1.72403e-09 0 7.27206e-08 0 7.18284e-08)
(7.0448e-08 -1.72842e-09 0 7.32342e-08 0 7.18414e-08)
(7.01369e-08 -1.74144e-09 0 7.35645e-08 0 7.18523e-08)
(7.0044e-08 -1.75676e-09 0 7.36461e-08 0 7.18515e-08)
(7.01319e-08 -1.76484e-09 0 7.35506e-08 0 7.18479e-08)
(7.02683e-08 -1.76269e-09 0 7.34062e-08 0 7.18425e-08)
(7.03229e-08 -1.75969e-09 0 7.33539e-08 0 7.18411e-08)
(7.03171e-08 -1.75013e-09 0 7.33712e-08 0 7.18428e-08)
(7.02239e-08 -1.74735e-09 0 7.35075e-08 0 7.18551e-08)
(7.01215e-08 -1.748e-09 0 7.36356e-08 0 7.18631e-08)
(7.00716e-08 -1.7585e-09 0 7.36934e-08 0 7.18655e-08)
(7.01274e-08 -1.76376e-09 0 7.35982e-08 0 7.18529e-08)
(7.02743e-08 -1.76841e-09 0 7.3414e-08 0 7.18399e-08)
(7.04779e-08 -1.76742e-09 0 7.31491e-08 0 7.18193e-08)
(7.06263e-08 -1.76088e-09 0 7.29805e-08 0 7.18104e-08)
(7.06321e-08 -1.74893e-09 0 7.2973e-08 0 7.18072e-08)
(7.05306e-08 -1.74058e-09 0 7.30965e-08 0 7.18132e-08)
(7.03338e-08 -1.73736e-09 0 7.33568e-08 0 7.18318e-08)
(7.01554e-08 -1.74795e-09 0 7.3573e-08 0 7.18447e-08)
(7.01173e-08 -1.75939e-09 0 7.35828e-08 0 7.18356e-08)
(7.02687e-08 -1.7643e-09 0 7.33678e-08 0 7.18149e-08)
(7.05483e-08 -1.77128e-09 0 7.30306e-08 0 7.17921e-08)
(7.08119e-08 -1.75875e-09 0 7.27377e-08 0 7.17791e-08)
(7.08987e-08 -1.75223e-09 0 7.26556e-08 0 7.17751e-08)
(7.07814e-08 -1.74151e-09 0 7.27911e-08 0 7.17792e-08)
(7.05045e-08 -1.72634e-09 0 7.3066e-08 0 7.17777e-08)
(7.01371e-08 -1.71883e-09 0 7.34306e-08 0 7.17814e-08)
(6.96879e-08 -1.7136e-09 0 7.39048e-08 0 7.17943e-08)
(6.91187e-08 -1.69506e-09 0 7.45504e-08 0 7.18313e-08)
(6.8125e-08 -1.61907e-09 0 7.56066e-08 0 7.1884e-08)
(6.58442e-08 -1.39747e-09 0 7.87032e-08 0 7.2257e-08)
(6.09543e-08 -9.22387e-10 0 8.66762e-08 0 7.37852e-08)
(5.50379e-08 -6.6671e-10 0 1.03403e-07 0 7.89299e-08)
(5.15561e-08 1.1819e-09 0 1.24697e-07 0 8.76127e-08)
(5.08788e-08 -2.07218e-10 0 1.45207e-07 0 9.67349e-08)
(5.02205e-08 -1.41921e-09 0 1.69504e-07 0 1.0888e-07)
(5.14168e-08 -4.97288e-09 0 2.01913e-07 0 1.23827e-07)
(5.59552e-08 1.44054e-08 0 2.36156e-07 0 1.44703e-07)
(6.43168e-08 2.48514e-08 0 2.36009e-07 0 1.48585e-07)
(6.39629e-08 1.5692e-08 0 2.2307e-07 0 1.41861e-07)
(5.57663e-08 1.034e-08 0 2.05526e-07 0 1.30848e-07)
(7.25657e-08 -1.73704e-09 0 7.10985e-08 0 7.18349e-08)
(7.2111e-08 -1.71729e-09 0 7.15287e-08 0 7.18242e-08)
(7.15328e-08 -1.71133e-09 0 7.21147e-08 0 7.18255e-08)
(7.09359e-08 -1.71596e-09 0 7.27228e-08 0 7.18326e-08)
(7.04564e-08 -1.7247e-09 0 7.32249e-08 0 7.18444e-08)
(7.01462e-08 -1.74104e-09 0 7.35681e-08 0 7.18594e-08)
(7.00532e-08 -1.75648e-09 0 7.36496e-08 0 7.18586e-08)
(7.01402e-08 -1.76517e-09 0 7.35613e-08 0 7.18567e-08)
(7.02704e-08 -1.7668e-09 0 7.34149e-08 0 7.18495e-08)
(7.03368e-08 -1.75852e-09 0 7.3345e-08 0 7.18463e-08)
(7.03263e-08 -1.74975e-09 0 7.33707e-08 0 7.18489e-08)
(7.02199e-08 -1.74561e-09 0 7.35216e-08 0 7.18609e-08)
(7.01235e-08 -1.74792e-09 0 7.3627e-08 0 7.18641e-08)
(7.00718e-08 -1.75786e-09 0 7.36804e-08 0 7.18651e-08)
(7.01274e-08 -1.76578e-09 0 7.35854e-08 0 7.18522e-08)
(7.02827e-08 -1.77127e-09 0 7.33876e-08 0 7.18379e-08)
(7.04867e-08 -1.76992e-09 0 7.31326e-08 0 7.18202e-08)
(7.06181e-08 -1.76235e-09 0 7.29908e-08 0 7.18141e-08)
(7.06387e-08 -1.74908e-09 0 7.29791e-08 0 7.18135e-08)
(7.05471e-08 -1.73881e-09 0 7.31497e-08 0 7.18344e-08)
(7.03193e-08 -1.73427e-09 0 7.33766e-08 0 7.18362e-08)
(7.016e-08 -1.74691e-09 0 7.35389e-08 0 7.18396e-08)
(7.01106e-08 -1.76019e-09 0 7.35507e-08 0 7.18284e-08)
(7.02699e-08 -1.76956e-09 0 7.33307e-08 0 7.18084e-08)
(7.05504e-08 -1.77367e-09 0 7.30026e-08 0 7.17888e-08)
(7.08122e-08 -1.76249e-09 0 7.27267e-08 0 7.17802e-08)
(7.08957e-08 -1.75196e-09 0 7.26506e-08 0 7.17771e-08)
(7.07847e-08 -1.74011e-09 0 7.27791e-08 0 7.17808e-08)
(7.05158e-08 -1.71936e-09 0 7.30625e-08 0 7.17838e-08)
(7.01482e-08 -1.71521e-09 0 7.34544e-08 0 7.17945e-08)
(6.97116e-08 -1.70946e-09 0 7.39392e-08 0 7.18128e-08)
(6.91208e-08 -1.68474e-09 0 7.46084e-08 0 7.18503e-08)
(6.81637e-08 -1.60085e-09 0 7.56521e-08 0 7.19076e-08)
(6.5858e-08 -1.35113e-09 0 7.87564e-08 0 7.22759e-08)
(6.09599e-08 -8.19264e-10 0 8.6673e-08 0 7.37847e-08)
(5.4969e-08 -5.73677e-10 0 1.03256e-07 0 7.88473e-08)
(5.13006e-08 1.79508e-09 0 1.23994e-07 0 8.73865e-08)
(5.07163e-08 1.00534e-10 0 1.43909e-07 0 9.61125e-08)
(4.94636e-08 -4.98084e-09 0 1.69683e-07 0 1.08247e-07)
(5.07012e-08 5.64706e-11 0 1.98194e-07 0 1.22278e-07)
(5.63236e-08 2.0796e-08 0 2.28011e-07 0 1.41354e-07)
(6.75471e-08 3.79619e-08 0 2.21576e-07 0 1.44304e-07)
(6.7427e-08 2.91411e-08 0 2.10963e-07 0 1.38192e-07)
(5.52701e-08 1.91084e-08 0 1.92828e-07 0 1.25643e-07)
(7.2574e-08 -1.73347e-09 0 7.11076e-08 0 7.18401e-08)
(7.21167e-08 -1.71158e-09 0 7.1541e-08 0 7.18297e-08)
(7.15339e-08 -1.70482e-09 0 7.21274e-08 0 7.18298e-08)
(7.0944e-08 -1.70866e-09 0 7.27271e-08 0 7.18363e-08)
(7.0466e-08 -1.71904e-09 0 7.32379e-08 0 7.18512e-08)
(7.0144e-08 -1.73876e-09 0 7.35868e-08 0 7.18643e-08)
(7.00573e-08 -1.75504e-09 0 7.36582e-08 0 7.18624e-08)
(7.01477e-08 -1.76705e-09 0 7.35688e-08 0 7.18611e-08)
(7.02803e-08 -1.76732e-09 0 7.34315e-08 0 7.18571e-08)
(7.03369e-08 -1.75795e-09 0 7.33631e-08 0 7.18519e-08)
(7.03273e-08 -1.74831e-09 0 7.33791e-08 0 7.18521e-08)
(7.02194e-08 -1.74259e-09 0 7.35166e-08 0 7.18609e-08)
(7.01307e-08 -1.74597e-09 0 7.36341e-08 0 7.18693e-08)
(7.00753e-08 -1.75606e-09 0 7.36986e-08 0 7.18721e-08)
(7.01355e-08 -1.76577e-09 0 7.35945e-08 0 7.18583e-08)
(7.02915e-08 -1.77544e-09 0 7.33899e-08 0 7.18425e-08)
(7.04874e-08 -1.77033e-09 0 7.31381e-08 0 7.18236e-08)
(7.06135e-08 -1.76163e-09 0 7.29817e-08 0 7.18125e-08)
(7.06306e-08 -1.74469e-09 0 7.29519e-08 0 7.18062e-08)
(7.05196e-08 -1.73449e-09 0 7.30795e-08 0 7.18106e-08)
(7.03443e-08 -1.73178e-09 0 7.33332e-08 0 7.18329e-08)
(7.01605e-08 -1.74694e-09 0 7.35762e-08 0 7.18515e-08)
(7.01197e-08 -1.75861e-09 0 7.35827e-08 0 7.18412e-08)
(7.02828e-08 -1.77431e-09 0 7.33656e-08 0 7.18232e-08)
(7.05554e-08 -1.77293e-09 0 7.30362e-08 0 7.18011e-08)
(7.08247e-08 -1.76549e-09 0 7.27507e-08 0 7.17918e-08)
(7.09096e-08 -1.74909e-09 0 7.26722e-08 0 7.17884e-08)
(7.07872e-08 -1.7343e-09 0 7.27951e-08 0 7.17878e-08)
(7.05166e-08 -1.71195e-09 0 7.30741e-08 0 7.1789e-08)
(7.01476e-08 -1.70795e-09 0 7.34288e-08 0 7.17896e-08)
(6.96841e-08 -1.70116e-09 0 7.39037e-08 0 7.17987e-08)
(6.91228e-08 -1.67531e-09 0 7.45262e-08 0 7.18305e-08)
(6.81175e-08 -1.57553e-09 0 7.55804e-08 0 7.18783e-08)
(6.58478e-08 -1.29561e-09 0 7.86738e-08 0 7.22499e-08)
(6.09748e-08 -7.09151e-10 0 8.66727e-08 0 7.37867e-08)
(5.49764e-08 -3.7806e-10 0 1.03358e-07 0 7.88773e-08)
(5.16263e-08 2.54416e-09 0 1.24127e-07 0 8.74957e-08)
(5.09481e-08 -6.34356e-10 0 1.43685e-07 0 9.59172e-08)
(4.79086e-08 -6.01766e-09 0 1.69866e-07 0 1.0788e-07)
(5.30228e-08 1.40031e-08 0 1.92252e-07 0 1.2116e-07)
(5.89134e-08 2.73687e-08 0 2.22666e-07 0 1.4023e-07)
(7.38039e-08 4.80346e-08 0 2.13549e-07 0 1.43687e-07)
(7.3054e-08 4.268e-08 0 1.99938e-07 0 1.36422e-07)
(5.95364e-08 3.24588e-08 0 1.86744e-07 0 1.25004e-07)
(7.25803e-08 -1.72724e-09 0 7.11016e-08 0 7.18404e-08)
(7.21105e-08 -1.70644e-09 0 7.15454e-08 0 7.18296e-08)
(7.15378e-08 -1.69845e-09 0 7.21191e-08 0 7.18289e-08)
(7.09445e-08 -1.70149e-09 0 7.2733e-08 0 7.18381e-08)
(7.04667e-08 -1.71304e-09 0 7.32341e-08 0 7.18505e-08)
(7.01403e-08 -1.73524e-09 0 7.35762e-08 0 7.18608e-08)
(7.00577e-08 -1.75556e-09 0 7.3664e-08 0 7.18643e-08)
(7.01449e-08 -1.76542e-09 0 7.35685e-08 0 7.18608e-08)
(7.02746e-08 -1.7661e-09 0 7.34213e-08 0 7.18533e-08)
(7.03402e-08 -1.75635e-09 0 7.33542e-08 0 7.18508e-08)
(7.03302e-08 -1.74502e-09 0 7.33771e-08 0 7.18527e-08)
(7.02308e-08 -1.74206e-09 0 7.3535e-08 0 7.18687e-08)
(7.01333e-08 -1.74353e-09 0 7.36475e-08 0 7.18738e-08)
(7.00788e-08 -1.75429e-09 0 7.36997e-08 0 7.18736e-08)
(7.01358e-08 -1.76567e-09 0 7.36054e-08 0 7.18617e-08)
(7.02886e-08 -1.77559e-09 0 7.34223e-08 0 7.18507e-08)
(7.04906e-08 -1.77068e-09 0 7.3175e-08 0 7.18344e-08)
(7.06502e-08 -1.76057e-09 0 7.30168e-08 0 7.18311e-08)
(7.06559e-08 -1.74103e-09 0 7.30239e-08 0 7.18317e-08)
(7.05558e-08 -1.73001e-09 0 7.31995e-08 0 7.18518e-08)
(7.0339e-08 -1.72754e-09 0 7.34103e-08 0 7.18521e-08)
(7.01794e-08 -1.74691e-09 0 7.35662e-08 0 7.18537e-08)
(7.01318e-08 -1.75947e-09 0 7.35769e-08 0 7.18427e-08)
(7.02806e-08 -1.77651e-09 0 7.33684e-08 0 7.18235e-08)
(7.05623e-08 -1.77454e-09 0 7.30392e-08 0 7.18038e-08)
(7.08299e-08 -1.76792e-09 0 7.27617e-08 0 7.17965e-08)
(7.09157e-08 -1.74758e-09 0 7.26853e-08 0 7.17939e-08)
(7.08055e-08 -1.72789e-09 0 7.28288e-08 0 7.18019e-08)
(7.05384e-08 -1.71153e-09 0 7.31092e-08 0 7.18045e-08)
(7.01554e-08 -1.69976e-09 0 7.35109e-08 0 7.18137e-08)
(6.97347e-08 -1.69123e-09 0 7.39803e-08 0 7.1832e-08)
(6.91701e-08 -1.66601e-09 0 7.46524e-08 0 7.18767e-08)
(6.81822e-08 -1.55208e-09 0 7.57249e-08 0 7.19334e-08)
(6.58656e-08 -1.23478e-09 0 7.88135e-08 0 7.22938e-08)
(6.09626e-08 -5.63064e-10 0 8.66589e-08 0 7.37785e-08)
(5.49627e-08 -1.13654e-10 0 1.0338e-07 0 7.88998e-08)
(5.19062e-08 2.51134e-09 0 1.24133e-07 0 8.74639e-08)
(5.11448e-08 -2.33699e-09 0 1.44342e-07 0 9.59708e-08)
(4.73464e-08 -1.91253e-09 0 1.69442e-07 0 1.07573e-07)
(5.42936e-08 2.33267e-08 0 1.86906e-07 0 1.20296e-07)
(6.99895e-08 4.11224e-08 0 2.13647e-07 0 1.41843e-07)
(8.47419e-08 6.024e-08 0 2.05022e-07 0 1.45498e-07)
(8.24341e-08 5.46521e-08 0 1.91543e-07 0 1.3753e-07)
(6.74831e-08 4.28831e-08 0 1.75649e-07 0 1.23611e-07)
(7.25817e-08 -1.71977e-09 0 7.10967e-08 0 7.18398e-08)
(7.21113e-08 -1.70056e-09 0 7.15455e-08 0 7.18301e-08)
(7.15328e-08 -1.68979e-09 0 7.21254e-08 0 7.18295e-08)
(7.0947e-08 -1.69421e-09 0 7.2722e-08 0 7.18361e-08)
(7.04638e-08 -1.70677e-09 0 7.32398e-08 0 7.18515e-08)
(7.01448e-08 -1.7293e-09 0 7.35852e-08 0 7.18646e-08)
(7.00499e-08 -1.75458e-09 0 7.36469e-08 0 7.18581e-08)
(7.01493e-08 -1.76631e-09 0 7.35501e-08 0 7.18572e-08)
(7.02721e-08 -1.76568e-09 0 7.342e-08 0 7.18529e-08)
(7.03332e-08 -1.75505e-09 0 7.33527e-08 0 7.18489e-08)
(7.0326e-08 -1.74226e-09 0 7.33775e-08 0 7.18522e-08)
(7.02217e-08 -1.73853e-09 0 7.34982e-08 0 7.18574e-08)
(7.01279e-08 -1.74076e-09 0 7.36135e-08 0 7.18639e-08)
(7.00693e-08 -1.75406e-09 0 7.36794e-08 0 7.18664e-08)
(7.01291e-08 -1.76368e-09 0 7.35737e-08 0 7.18522e-08)
(7.0276e-08 -1.77284e-09 0 7.33795e-08 0 7.1837e-08)
(7.04822e-08 -1.77081e-09 0 7.31023e-08 0 7.18141e-08)
(7.06032e-08 -1.75897e-09 0 7.29412e-08 0 7.18004e-08)
(7.06217e-08 -1.73825e-09 0 7.29146e-08 0 7.17952e-08)
(7.05118e-08 -1.72865e-09 0 7.30513e-08 0 7.18023e-08)
(7.03286e-08 -1.72391e-09 0 7.32939e-08 0 7.18193e-08)
(7.01429e-08 -1.73953e-09 0 7.35232e-08 0 7.18338e-08)
(7.01062e-08 -1.75983e-09 0 7.35439e-08 0 7.18284e-08)
(7.02653e-08 -1.7771e-09 0 7.33304e-08 0 7.18106e-08)
(7.05443e-08 -1.77472e-09 0 7.29944e-08 0 7.17885e-08)
(7.08145e-08 -1.76629e-09 0 7.27026e-08 0 7.17778e-08)
(7.08985e-08 -1.74557e-09 0 7.2628e-08 0 7.17753e-08)
(7.0769e-08 -1.72075e-09 0 7.27478e-08 0 7.17716e-08)
(7.05042e-08 -1.70918e-09 0 7.30132e-08 0 7.17708e-08)
(7.01248e-08 -1.68769e-09 0 7.33775e-08 0 7.17709e-08)
(6.96747e-08 -1.67934e-09 0 7.38393e-08 0 7.17793e-08)
(6.90804e-08 -1.65005e-09 0 7.44768e-08 0 7.18066e-08)
(6.80966e-08 -1.53288e-09 0 7.54959e-08 0 7.18489e-08)
(6.5821e-08 -1.18283e-09 0 7.85789e-08 0 7.2214e-08)
(6.09745e-08 -4.38324e-10 0 8.66198e-08 0 7.37639e-08)
(5.48963e-08 2.58956e-10 0 1.03249e-07 0 7.8873e-08)
(5.19998e-08 1.72684e-09 0 1.2306e-07 0 8.68567e-08)
(4.96921e-08 -5.83936e-09 0 1.44314e-07 0 9.51968e-08)
(4.85388e-08 8.64797e-09 0 1.63072e-07 0 1.06165e-07)
(5.65081e-08 3.00039e-08 0 1.82248e-07 0 1.19637e-07)
(1.00318e-07 6.65821e-08 0 2.01683e-07 0 1.51737e-07)
(1.11497e-07 7.97039e-08 0 1.98324e-07 0 1.55643e-07)
(9.78199e-08 6.73684e-08 0 1.86469e-07 0 1.42598e-07)
(7.65953e-08 5.66602e-08 0 1.65454e-07 0 1.24801e-07)
(7.25858e-08 -1.71469e-09 0 7.11071e-08 0 7.18435e-08)
(7.21225e-08 -1.69473e-09 0 7.15495e-08 0 7.18339e-08)
(7.15348e-08 -1.68217e-09 0 7.21418e-08 0 7.1834e-08)
(7.09428e-08 -1.68883e-09 0 7.27243e-08 0 7.18356e-08)
(7.04596e-08 -1.70148e-09 0 7.32304e-08 0 7.18479e-08)
(7.01528e-08 -1.72577e-09 0 7.35826e-08 0 7.18657e-08)
(7.00605e-08 -1.75251e-09 0 7.36856e-08 0 7.18709e-08)
(7.01502e-08 -1.76736e-09 0 7.35884e-08 0 7.18675e-08)
(7.02902e-08 -1.76388e-09 0 7.34421e-08 0 7.1863e-08)
(7.03422e-08 -1.7552e-09 0 7.33829e-08 0 7.1859e-08)
(7.03376e-08 -1.74004e-09 0 7.33981e-08 0 7.18601e-08)
(7.02413e-08 -1.73598e-09 0 7.3557e-08 0 7.18772e-08)
(7.01414e-08 -1.73692e-09 0 7.3673e-08 0 7.18825e-08)
(7.0084e-08 -1.75481e-09 0 7.37324e-08 0 7.18837e-08)
(7.01493e-08 -1.75973e-09 0 7.36376e-08 0 7.18734e-08)
(7.03173e-08 -1.77362e-09 0 7.34459e-08 0 7.18642e-08)
(7.05087e-08 -1.77099e-09 0 7.32234e-08 0 7.18519e-08)
(7.0649e-08 -1.75812e-09 0 7.30831e-08 0 7.18485e-08)
(7.06692e-08 -1.73817e-09 0 7.30622e-08 0 7.18453e-08)
(7.05832e-08 -1.72784e-09 0 7.31999e-08 0 7.18587e-08)
(7.03697e-08 -1.71918e-09 0 7.34506e-08 0 7.18701e-08)
(7.0178e-08 -1.72605e-09 0 7.36602e-08 0 7.18774e-08)
(7.01417e-08 -1.75672e-09 0 7.36461e-08 0 7.18631e-08)
(7.03124e-08 -1.77615e-09 0 7.3417e-08 0 7.18441e-08)
(7.05823e-08 -1.77462e-09 0 7.30927e-08 0 7.18229e-08)
(7.08481e-08 -1.76471e-09 0 7.28143e-08 0 7.18148e-08)
(7.09295e-08 -1.74015e-09 0 7.27386e-08 0 7.18112e-08)
(7.08251e-08 -1.71739e-09 0 7.28777e-08 0 7.18194e-08)
(7.05548e-08 -1.70564e-09 0 7.31697e-08 0 7.18243e-08)
(7.01964e-08 -1.6803e-09 0 7.35588e-08 0 7.18365e-08)
(6.97407e-08 -1.67521e-09 0 7.407e-08 0 7.18572e-08)
(6.91923e-08 -1.63945e-09 0 7.47162e-08 0 7.18984e-08)
(6.82123e-08 -1.5112e-09 0 7.57825e-08 0 7.19552e-08)
(6.59236e-08 -1.11888e-09 0 7.88671e-08 0 7.23188e-08)
(6.098e-08 -3.54077e-10 0 8.66753e-08 0 7.37798e-08)
(5.49583e-08 6.34434e-10 0 1.03247e-07 0 7.89025e-08)
(5.18714e-08 6.97201e-10 0 1.22579e-07 0 8.65135e-08)
(4.82648e-08 -4.58143e-09 0 1.44302e-07 0 9.49166e-08)
(5.09666e-08 1.76066e-08 0 1.56681e-07 0 1.04914e-07)
(6.20723e-08 3.89673e-08 0 1.76022e-07 0 1.19921e-07)
(1.3467e-07 8.94625e-08 0 1.95146e-07 0 1.65948e-07)
(1.59831e-07 1.05704e-07 0 1.98079e-07 0 1.79622e-07)
(1.27079e-07 8.71046e-08 0 1.83107e-07 0 1.56219e-07)
(8.83164e-08 5.82736e-08 0 1.6393e-07 0 1.27814e-07)
(7.25737e-08 -1.70939e-09 0 7.10758e-08 0 7.18324e-08)
(7.21024e-08 -1.68615e-09 0 7.15162e-08 0 7.18202e-08)
(7.15239e-08 -1.67466e-09 0 7.20993e-08 0 7.18202e-08)
(7.0949e-08 -1.67962e-09 0 7.27276e-08 0 7.18377e-08)
(7.04603e-08 -1.695e-09 0 7.32318e-08 0 7.18481e-08)
(7.01369e-08 -1.72292e-09 0 7.35565e-08 0 7.18545e-08)