/*--------------------------------*- C++ -*----------------------------------*\
| =========                 |                                                 |
| \\      /  F ield         | OpenFOAM: The Open Source CFD Toolbox           |
|  \\    /   O peration     | Version:  v1912                                 |
|   \\  /    A nd           | Website:  www.openfoam.com                      |
|    \\/     M anipulation  |                                                 |
\*---------------------------------------------------------------------------*/
FoamFile
{
    version     2.0;
    format      ascii;
    class       surfaceScalarField;
    location    "70";
    object      alphaPhi0.water;
}
// * * * * * * * * * * * * * * * * * * * * * * * * * * * * * * * * * * * * * //

dimensions      [0 3 -1 0 0 0 0];
oriented        oriented;


internalField   nonuniform List<scalar> 
28285
(
-0.00397574
-0.003279
-0.000868699
-0.00310704
0.00204658
-0.00291528
0.00476534
-0.00271876
0.00726867
-0.00250333
0.00955191
-0.00228323
0.0116147
-0.00206278
0.0134486
-0.00183393
0.0150574
-0.00160876
0.0164413
-0.00138396
0.0176021
-0.0011608
0.0185495
-0.00094738
0.0192816
-0.000732122
0.0198099
-0.000528219
0.0201443
-0.000334431
0.0202872
-0.000142888
0.0202533
3.38498e-05
0.0200518
0.000201496
0.0196968
0.000355079
0.0191905
0.000506258
0.0185514
0.000639093
0.0177918
0.000759571
0.0169234
0.000868438
0.0159629
0.000960536
0.0149292
0.00103361
0.0138319
0.00109734
0.0126963
0.00113558
0.0115378
0.00115854
0.010374
0.00116375
0.00923064
0.00114341
0.00812196
0.00110867
0.00707186
0.0010501
0.00610262
0.000969237
0.00522983
0.000872787
0.00447807
0.000751766
0.0038658
0.000612273
0.00340432
0.000461473
0.00312068
0.000283644
0.00301598
0.000104702
0.0031083
-9.23278e-05
0.00340315
-0.000294844
0.00390566
-0.000502507
0.00461517
-0.00070951
0.00553148
-0.000916311
0.00663849
-0.00110702
0.00793475
-0.00129626
0.00939238
-0.00145763
0.0109977
-0.00160534
0.0127203
-0.0017226
0.0145277
-0.00180738
0.0163942
-0.00186647
0.0182636
-0.00186941
0.0201135
-0.00184996
0.02189
-0.00177647
0.0235418
-0.0016518
0.0250423
-0.00150048
0.02633
-0.00128774
0.0273665
-0.00103643
0.0281259
-0.000759453
0.028558
-0.000432063
0.028643
-8.50474e-05
0.0283694
0.000273643
0.0277275
0.000641908
0.026707
0.0010205
0.025314
0.00139298
0.0235456
0.0017684
0.0214432
0.0021024
0.0190441
0.00239908
0.0163651
0.00267903
0.0134766
0.00288846
0.010429
0.00304764
0.00725456
0.00317442
0.00403964
0.00321492
0.000830032
0.00320961
-0.00234111
0.00317114
-0.00539389
0.00305277
-0.00829562
0.00290173
-0.011026
0.00273043
-0.0135306
0.00250453
-0.0157924
0.00226186
-0.0178174
0.00202493
-0.019574
0.00175661
-0.0210589
0.00148493
-0.0222998
0.00124088
-0.0232897
0.000989885
-0.0240326
0.000742985
-0.0245599
0.000527258
-0.0248823
0.00032241
-0.0250112
0.000128845
-0.0249719
-3.92906e-05
-0.02478
-0.000191839
-0.024451
-0.000329057
-0.0240044
-0.000446559
-0.0234458
-0.000558656
-0.0227968
-0.000649001
-0.0220696
-0.000727126
-0.0212768
-0.000792867
-0.020427
-0.000849745
-0.0195283
-0.000898704
-0.0185935
-0.000934804
-0.0176211
-0.000972382
-0.0166259
-0.000995228
-0.0156033
-0.00102262
-0.0145663
-0.00103702
-0.01351
-0.00105627
-0.0124435
-0.00106644
-0.0113649
-0.00107862
-0.0102785
-0.00108638
-0.0091847
-0.00109385
-0.00808638
-0.00109831
-0.00698558
-0.0011008
-0.00588427
-0.00110131
-0.00478653
-0.00109774
-0.00369626
-0.00109027
-0.00261904
-0.00107722
-0.00156157
-0.00105748
-0.000532115
-0.00102945
0.00046043
-0.000992545
0.00140256
-0.000942134
0.00228159
-0.000879025
0.00308278
-0.000801194
0.00379027
-0.000707489
0.00438741
-0.000597141
0.00485855
-0.000471135
0.00518856
-0.000330014
0.00536571
-0.000177146
0.00538276
-1.70471e-05
0.005237
0.000145759
0.00493409
0.000302907
0.00448617
0.00044792
0.00391554
0.000570626
0.00325359
0.000661953
0.00253947
0.000714125
0.000735125
0.00180434
-0.00377403
-0.00655084
-0.00067611
-0.00620496
0.00222913
-0.00582052
0.00493739
-0.00542701
0.00742912
-0.00499507
0.00970049
-0.0045546
0.011751
-0.00411326
0.0135722
-0.00365512
0.0151683
-0.00320487
0.0165395
-0.00275522
0.017688
-0.00230928
0.0186235
-0.00188285
0.0193439
-0.00145256
0.019861
-0.00104532
0.020185
-0.000658437
0.0203183
-0.000276178
0.0202749
7.73035e-05
0.0200646
0.000411734
0.0197012
0.000718494
0.0191873
0.00102021
0.0185412
0.00128517
0.0177754
0.00152532
0.0169012
0.00174267
0.0159355
0.00192619
0.0148975
0.00207163
0.0137964
0.00219844
0.0126581
0.0022739
0.0114974
0.00231918
0.0103324
0.00232878
0.00918836
0.00228745
0.00807981
0.00221723
0.00703033
0.00209958
0.00606257
0.001937
0.00519198
0.00174338
0.00444321
0.00150054
0.00383458
0.00122091
0.00337754
0.000918512
0.00309883
0.000562347
0.00299923
0.000204304
0.00309688
-0.000189979
0.00339729
-0.000595254
0.0039054
-0.00101061
0.00462077
-0.00142488
0.00554293
-0.00183847
0.00665555
-0.00221963
0.00795721
-0.00259792
0.00941972
-0.00292014
0.0110296
-0.00321519
0.0127559
-0.00344891
0.0145662
-0.00361768
0.0164346
-0.0037349
0.0183047
-0.00373947
0.0201545
-0.00369973
0.0219293
-0.00355128
0.0235783
-0.00330088
0.0250749
-0.00299703
0.0263574
-0.00257024
0.0273877
-0.00206672
0.0281401
-0.00151189
0.0285641
-0.000856001
0.0286413
-0.000162265
0.0283586
0.000556311
0.0277076
0.00129288
0.026678
0.00205013
0.0252762
0.0027948
0.0234994
0.00354521
0.0213896
0.00421213
0.018984
0.00480474
0.0162996
0.00536339
0.0134074
0.00578065
0.0103579
0.00609713
0.007183
0.00634936
0.00396801
0.00642991
0.000759955
0.00641766
-0.00240874
0.00633984
-0.00545754
0.00610158
-0.00835452
0.00579871
-0.0110792
0.00545515
-0.0135772
0.00500251
-0.0158323
0.00451696
-0.0178503
0.00404295
-0.0195999
0.00350616
-0.0210779
0.00296294
-0.0223124
0.00247536
-0.0232963
0.00197378
-0.0240337
0.00148035
-0.024556
0.00104962
-0.0248741
0.000640538
-0.0249996
0.000254283
-0.0249569
-8.19381e-05
-0.0247624
-0.000386353
-0.0244311
-0.000660341
-0.0239827
-0.000895007
-0.0234226
-0.00111878
-0.0227726
-0.001299
-0.0220447
-0.00145496
-0.0212514
-0.0015862
-0.0204012
-0.00169999
-0.0195027
-0.0017972
-0.0185679
-0.00186963
-0.0175959
-0.00194431
-0.0166011
-0.00199005
-0.0155793
-0.00204444
-0.0145428
-0.00207355
-0.0134873
-0.00211171
-0.0124216
-0.00213213
-0.0113438
-0.00215643
-0.0102583
-0.00217185
-0.00916552
-0.00218666
-0.0080682
-0.00219564
-0.00696849
-0.00220051
-0.00586833
-0.00220147
-0.00477179
-0.00219428
-0.00368259
-0.00217946
-0.00260652
-0.00215329
-0.00155055
-0.00211346
-0.000522306
-0.00205769
0.000468546
-0.0019834
0.00140933
-0.00188292
0.00228711
-0.0017568
0.00308704
-0.00160113
0.0037933
-0.00141375
0.00438927
-0.00119311
0.00485919
-0.000941059
0.00518795
-0.000658769
0.00536396
-0.000353158
0.00538021
-3.32941e-05
0.00523381
0.000292156
0.00493054
0.00060618
0.00448262
0.000895839
0.00391228
0.00114097
0.00325082
0.00132341
0.00253742
0.00142753
0.00146983
0.00180271
-0.00356188
-0.00982337
-0.000465782
-0.00930106
0.00243561
-0.00872192
0.00513892
-0.00813032
0.00762329
-0.00747944
0.00988621
-0.00681753
0.0119273
-0.00615437
0.0137381
-0.00546588
0.0153235
-0.00479025
0.0166833
-0.00411508
0.0178202
-0.0034462
0.0187442
-0.00280681
0.0194527
-0.00216101
0.0199579
-0.0015506
0.0202708
-0.000971284
0.0203918
-0.000397197
0.0203379
0.000131223
0.0201179
0.000631738
0.0197443
0.00109203
0.0192205
0.00154405
0.0185649
0.00194072
0.0177905
0.00229977
0.0169075
0.00262568
0.0159338
0.00289983
0.0148885
0.00311696
0.0137799
0.00330705
0.0126348
0.00341896
0.0114678
0.00348625
0.0102971
0.00349951
0.00914799
0.00343651
0.00803545
0.00332977
0.00698273
0.0031523
0.0060129
0.00290683
0.00514106
0.00261522
0.0043921
0.00224949
0.00378412
0.00182888
0.00332879
0.00137384
0.00305272
0.000838419
0.00295674
0.000300287
0.00305918
-0.000292427
0.00336579
-0.000901858
0.0038808
-0.00152562
0.00460419
-0.00214827
0.00553496
-0.00276924
0.00665678
-0.00334145
0.00796822
-0.00390936
0.00944031
-0.00439224
0.0110598
-0.00483463
0.0127951
-0.00518422
0.0146139
-0.00543655
0.0164905
-0.00561147
0.0183673
-0.00561629
0.0202233
-0.00555576
0.0220029
-0.0053308
0.0236551
-0.00495311
0.0251537
-0.00449566
0.0264361
-0.00385264
0.0274647
-0.00309526
0.0282138
-0.00226105
0.0286324
-0.00127457
0.0287024
-0.000232326
0.0284121
0.000846701
0.0277517
0.00195321
0.0267119
0.00308992
0.0252994
0.00420732
0.023511
0.00533364
0.0213899
0.0063332
0.0189732
0.00722143
0.0162778
0.00805879
0.0133758
0.00868264
0.0103169
0.00915604
0.00713317
0.00953312
0.00391151
0.00965157
0.000698538
0.00963064
-0.00247335
0.00951173
-0.00552339
0.00915161
-0.00842008
0.0086954
-0.0111438
0.00817888
-0.0136392
0.00749789
-0.0158905
0.00676831
-0.0179049
0.00605725
-0.01965
0.00525131
-0.0211229
0.00443586
-0.0223528
0.00370523
-0.0233322
0.00295319
-0.0240647
0.00221282
-0.0245826
0.00156752
-0.0248967
0.000954719
-0.0250176
0.000375141
-0.0249717
-0.00012785
-0.0247743
-0.000583772
-0.0244404
-0.000994182
-0.0239894
-0.001346
-0.0234274
-0.00168086
-0.0227758
-0.00195058
-0.0220465
-0.0021842
-0.0212522
-0.00238049
-0.0204012
-0.00255107
-0.0195019
-0.00269643
-0.0185668
-0.00280479
-0.0175945
-0.00291662
-0.0165994
-0.00298513
-0.0155771
-0.00306674
-0.0145405
-0.00311007
-0.013485
-0.00316729
-0.0124195
-0.00319758
-0.0113418
-0.00323417
-0.0102562
-0.00325739
-0.00916369
-0.00327921
-0.00806635
-0.00329299
-0.00696648
-0.00330038
-0.00586654
-0.0033014
-0.00476969
-0.00329114
-0.00368089
-0.00326826
-0.00260508
-0.0032291
-0.00154907
-0.00316947
-0.000521232
-0.00308552
0.000469412
-0.00297404
0.00140982
-0.00282333
0.0022872
-0.00263419
0.00308678
-0.0024007
0.0037926
-0.00211957
0.00438812
-0.00178863
0.00485765
-0.00141059
0.00518637
-0.000987489
0.00536241
-0.000529192
0.00537815
-4.90365e-05
0.00523135
0.000438954
0.00492774
0.000909792
0.00447935
0.00134423
0.00390883
0.00171149
0.00324777
0.00198447
0.00253535
0.00213995
0.0022035
0.00180168
-0.00332096
-0.0131004
-0.000223351
-0.0123987
0.00267702
-0.0116223
0.00537771
-0.010831
0.00785631
-0.00995803
0.0101121
-0.00907328
0.0121446
-0.00818689
0.0139451
-0.00726638
0.0155195
-0.0063647
0.0168673
-0.00546283
0.0179918
-0.00457073
0.0189034
-0.00371845
0.0195986
-0.00285619
0.0200906
-0.00204258
0.020391
-0.00127168
0.0204992
-0.000505414
0.0204319
0.000198567
0.0201997
0.00086388
0.0198137
0.00147803
0.0192776
0.00208021
0.0186099
0.00260838
0.0178242
0.0030855
0.0169293
0.00352053
0.0159446
0.00388456
0.014889
0.00417261
0.0137697
0.00442628
0.0126152
0.00457346
0.0114389
0.00466255
0.0102598
0.00467864
0.00910303
0.00459328
0.00798379
0.00444901
0.0069249
0.00421118
0.00595005
0.00388169
0.00507429
0.00349097
0.00432269
0.00300109
0.00371334
0.00243824
0.00325827
0.00182891
0.00298375
0.00111294
0.00289068
0.000393354
0.00299719
-0.000398937
0.0033097
-0.00121436
0.00383136
-0.00204729
0.0045631
-0.00288
0.00550288
-0.00370902
0.00663426
-0.00447284
0.00795631
-0.00523141
0.00943944
-0.00587537
0.0110709
-0.00646605
0.0128183
-0.00693163
0.0146492
-0.00726751
0.016538
-0.00750022
0.0184255
-0.00750383
0.0202921
-0.00742236
0.0220805
-0.00711921
0.0237397
-0.0066123
0.0252445
-0.00600047
0.0265302
-0.00513829
0.0275601
-0.00412512
0.0283087
-0.0030097
0.0287236
-0.00168951
0.0287869
-0.000295601
0.02849
0.00114359
0.02782
0.00262328
0.0267691
0.00414075
0.0253444
0.00563202
0.0235421
0.00713602
0.0214068
0.00846845
0.018976
0.00965228
0.0162658
0.010769
0.0133501
0.0115983
0.0102792
0.012227
0.00708423
0.0127281
0.00385368
0.0128821
0.000633828
0.0128505
-0.00254383
0.0126894
-0.00559699
0.0122048
-0.00849472
0.0115931
-0.011219
0.0109031
-0.0137127
0.00999168
-0.0159603
0.0090159
-0.017971
0.00806792
-0.0197115
0.00699177
-0.0211781
0.00590247
-0.0224023
0.00492947
-0.0233762
0.00392704
-0.0241023
0.00293897
-0.0246146
0.00207975
-0.0249237
0.00126391
-0.0250403
0.000491734
-0.0249897
-0.000178486
-0.0247884
-0.000785058
-0.0244512
-0.0013314
-0.0239969
-0.00180029
-0.0234323
-0.00224547
-0.0227787
-0.00260423
-0.0220475
-0.00291536
-0.0212516
-0.0031764
-0.0203993
-0.00340334
-0.0194989
-0.00359686
-0.0185629
-0.00374074
-0.0175895
-0.00389004
-0.016594
-0.00398065
-0.015571
-0.0040897
-0.0145343
-0.00414678
-0.0134785
-0.0042231
-0.0124128
-0.0042633
-0.0113348
-0.00431218
-0.0102489
-0.00434329
-0.00915622
-0.00437187
-0.00805867
-0.00439053
-0.00695879
-0.00440026
-0.00585891
-0.00440128
-0.00476234
-0.00438772
-0.00367337
-0.00435722
-0.00259752
-0.00430495
-0.00154198
-0.00422501
-0.000513959
-0.00411355
0.000476147
-0.00396415
0.00141619
-0.00376337
0.00229307
-0.00351107
0.00309198
-0.00319961
0.00379711
-0.00282471
0.0043919
-0.00238342
0.00486075
-0.00187944
0.00518841
-0.00131516
0.00536336
-0.00070414
0.00537875
-6.44323e-05
0.00523157
0.00058614
0.00492724
0.00121412
0.00447832
0.00179314
0.00390752
0.00228229
0.00324646
0.00264553
0.00253446
0.00285196
0.00293668
0.00180128
-0.00305477
-0.0163862
4.69961e-05
-0.0155004
0.00294893
-0.0145242
0.00564906
-0.0135311
0.00812305
-0.012432
0.0103724
-0.0113227
0.0123966
-0.010211
0.0141866
-0.00905644
0.0157497
-0.00792774
0.0170845
-0.00679762
0.0181956
-0.00568191
0.0190938
-0.00461658
0.0197742
-0.00353663
0.0202512
-0.00251952
0.0205376
-0.00155813
0.0206304
-0.000598215
0.0205486
0.000280365
0.0203028
0.00110974
0.0199023
0.00187845
0.0193519
0.00263067
0.0186699
0.00329031
0.0178711
0.00388437
0.0169621
0.00442952
0.015964
0.0048827
0.0148956
0.00524091
0.013763
0.00555894
0.0125962
0.00574028
0.0114077
0.00585103
0.0102173
0.00586905
0.00904979
0.00576079
0.00792116
0.00557764
0.00685318
0.00527916
0.0058711
0.00486377
0.00498905
0.00437303
0.00423223
0.00375791
0.0036192
0.00305126
0.0031624
0.00228572
0.00288771
0.00138764
0.00279661
0.000484454
0.00290593
-0.000508258
0.00322381
-0.00153224
0.00375192
-0.00257541
0.00449265
-0.00362073
0.00544275
-0.00465912
0.00658574
-0.00561583
0.00792103
-0.0065667
0.00941784
-0.00737217
0.0110641
-0.00811227
0.0128266
-0.00869413
0.0146729
-0.00911383
0.0165774
-0.00940474
0.0184791
-0.00940559
0.0203601
-0.00930327
0.0221611
-0.00892028
0.0238311
-0.00828229
0.0253456
-0.0075149
0.026638
-0.00643076
0.027672
-0.00515911
0.0284227
-0.00376039
0.0288363
-0.00210314
0.0288973
-0.000356577
0.0285927
0.00144822
0.0279129
0.00330311
0.0268507
0.00520295
0.0254129
0.00706981
0.0235949
0.00895401
0.0214436
0.0106197
0.0189966
0.0120992
0.0162693
0.0134963
0.0133377
0.0145298
0.010252
0.0153127
0.00704274
0.0159373
0.00380057
0.0161243
0.000571145
0.0160799
-0.00261458
0.0158751
-0.00567274
0.0152629
-0.00857283
0.0144932
-0.0112987
0.013629
-0.0137916
0.0124845
-0.0160356
0.01126
-0.0180429
0.0100752
-0.0197787
0.00872756
-0.0212388
0.00736254
-0.0224573
0.00614798
-0.0234256
0.00489532
-0.0241451
0.00365849
-0.0246514
0.00258603
-0.0249555
0.00156802
-0.0250664
0.000602653
-0.0250115
-0.000233366
-0.0248065
-0.000990078
-0.0244658
-0.00167212
-0.024008
-0.00225811
-0.0234406
-0.0028128
-0.0227846
-0.00326027
-0.0220513
-0.0036486
-0.0212539
-0.00397389
-0.0204002
-0.00425703
-0.0194985
-0.00449855
-0.0185618
-0.00467745
-0.0175877
-0.00486417
-0.0165914
-0.00497686
-0.0155681
-0.00511308
-0.0145314
-0.00518347
-0.0134751
-0.00527934
-0.0124089
-0.00532949
-0.0113308
-0.00539031
-0.0102452
-0.00542892
-0.00915203
-0.00546503
-0.00805477
-0.0054878
-0.00695475
-0.00550027
-0.00585449
-0.00550154
-0.00475776
-0.00548445
-0.00366884
-0.00544614
-0.00259284
-0.00538095
-0.00153686
-0.00528099
-0.000508983
-0.00514142
0.000481191
-0.00495432
0.00142112
-0.0047033
0.00229781
-0.00438776
0.00309649
-0.00399829
0.00380123
-0.00352944
0.00439536
-0.00297756
0.00486332
-0.00234739
0.0051904
-0.00164223
0.00536497
-0.000878714
0.00537946
-7.89264e-05
0.00523096
0.000734649
0.00492624
0.00151884
0.00447776
0.00224162
0.00390731
0.00285274
0.00324619
0.00330665
0.00253398
0.00356416
0.00366974
0.00180092
-0.00275516
-0.0196841
0.00035475
-0.0186103
0.00326071
-0.0174302
0.00596198
-0.0162324
0.00843263
-0.0149027
0.0106764
-0.0135664
0.0126923
-0.012227
0.0144719
-0.010836
0.0160229
-0.00947878
0.0173438
-0.00811853
0.0184406
-0.00677868
0.019324
-0.00549999
0.0199883
-0.0042009
0.0204484
-0.00297961
0.0207195
-0.00182923
0.0207955
-0.000674219
0.0206967
0.000379114
0.0204352
0.00137122
0.0200184
0.00229533
0.0194516
0.00319748
0.0187529
0.00398893
0.0179389
0.00469843
0.0170131
0.00535532
0.0159988
0.00589697
0.0149153
0.00632442
0.0137664
0.00670785
0.0125845
0.0069222
0.0113809
0.00705457
0.0101763
0.00707362
0.00899491
0.00694222
0.00785406
0.00671849
0.00677393
0.00635929
0.00578145
0.00585625
0.00489041
0.00526407
0.004126
0.00452232
0.00350724
0.00367002
0.00304709
0.00274587
0.00277067
0.00166406
0.00268001
0.000575109
0.00279146
-0.000619701
0.00311467
-0.00185546
0.00364919
-0.00310992
0.00439957
-0.00437111
0.00536081
-0.00562035
0.00651654
-0.00677155
0.00786653
-0.00791669
0.00937901
-0.00888466
0.0110428
-0.00977602
0.0128233
-0.0104747
0.0146883
-0.0109787
0.0166122
-0.0113287
0.0185318
-0.0113252
0.020431
-0.0112024
0.0222488
-0.0107381
0.0239331
-0.00996661
0.0254608
-0.00904267
0.0267632
-0.00773311
0.0278042
-0.0062001
0.0285596
-0.0045158
0.0289734
-0.00251701
0.029031
-0.000414176
0.0287217
0.00175761
0.0280323
0.00399243
0.0269586
0.00627669
0.0255072
0.00852124
0.0236723
0.0107889
0.0215031
0.0127889
0.0190376
0.0145647
0.0162902
0.0162437
0.0133397
0.0174804
0.010236
0.0184164
0.0070091
0.0191642
0.00375223
0.0193812
0.000510629
0.0193215
-0.00268582
0.0190716
-0.00575088
0.018328
-0.00865477
0.0173971
-0.0113837
0.016358
-0.0138766
0.0149773
-0.0161175
0.0135009
-0.0181218
0.0120796
-0.0198532
0.0104589
-0.0213063
0.00881571
-0.0225189
0.00736052
-0.0234813
0.00585776
-0.0241936
0.00437077
-0.0246933
0.00308574
-0.0249918
0.00186655
-0.0250969
0.000707746
-0.0250365
-0.000293785
-0.024827
-0.00119959
-0.0244822
-0.00201691
-0.0240203
-0.00272006
-0.0234499
-0.0033832
-0.0227911
-0.00391902
-0.0220556
-0.00438415
-0.0212562
-0.00477324
-0.0204009
-0.00511232
-0.0194978
-0.00540166
-0.0185603
-0.00561494
-0.0175849
-0.00583953
-0.0165883
-0.00597349
-0.0155643
-0.00613709
-0.0145271
-0.00622072
-0.0134702
-0.00633617
-0.0124039
-0.00639582
-0.0113255
-0.00646875
-0.0102396
-0.00651481
-0.0091462
-0.00655838
-0.00804867
-0.00658534
-0.0069486
-0.00660035
-0.00584861
-0.00660153
-0.00475166
-0.0065814
-0.00366283
-0.00653497
-0.00258686
-0.00645693
-0.00153095
-0.0063369
-0.000503142
-0.00616923
0.000486677
-0.00594414
0.0014265
-0.00564312
0.00230304
-0.0052643
0.00310149
-0.00479674
0.00380596
-0.00423391
0.00439981
-0.00357141
0.00486741
-0.00281499
0.00519393
-0.00196875
0.00536741
-0.00105219
0.00538069
-9.22051e-05
0.00523143
0.000883909
0.00492658
0.00182368
0.0044784
0.0026898
0.00390843
0.00342272
0.00324725
0.00396783
0.0025338
0.00427761
0.0044032
0.00180034
-0.00242315
-0.0229977
0.000697584
-0.0217311
0.00361043
-0.020343
0.0063143
-0.0189363
0.00878287
-0.0173713
0.0110219
-0.0158055
0.0130299
-0.0142349
0.0147985
-0.0126046
0.0163368
-0.0110171
0.0176428
-0.00942454
0.0187243
-0.0078601
0.0195917
-0.00636742
0.0202383
-0.00484751
0.0206797
-0.00342105
0.0209341
-0.00208361
0.0209909
-0.00073101
0.0208737
0.000496325
0.0205947
0.00165023
0.0201593
0.00273068
0.0195743
0.00378254
0.0188565
0.00470671
0.0180252
0.00552973
0.0170799
0.00630058
0.0160471
0.00692985
0.014946
0.0074255
0.0137778
0.00787606
0.0125778
0.00812219
0.0113563
0.00827608
0.0101348
0.00829513
0.0089364
0.00814057
0.00778078
0.00787412
0.0066853
0.00745477
0.00567978
0.00686177
0.0047777
0.00616614
0.00400307
0.00529694
0.00337632
0.00429678
0.0029109
0.00321129
0.00263095
0.00194401
0.00254025
0.000665805
0.00265229
-0.000731735
0.00298047
-0.00218365
0.00352101
-0.00365046
0.00428156
-0.00513167
0.00525483
-0.00659362
0.00642502
-0.00794174
0.00779187
-0.00928355
0.00932239
-0.0104152
0.0110065
-0.0114602
0.0128083
-0.0122765
0.0146953
-0.0128657
0.0166424
-0.0132758
0.0185836
-0.0132664
0.020505
-0.0131238
0.0223432
-0.0125763
0.0240455
-0.0116689
0.0255904
-0.0105875
0.0269061
-0.00904885
0.0279571
-0.00725111
0.0287196
-0.00527822
0.0291358
-0.00293322
0.029192
-0.000470426
0.0288776
0.00207206
0.0281785
0.00469152
0.0270926
0.00736255
0.0256265
0.00998737
0.0237728
0.0126426
0.0215837
0.014978
0.0190972
0.0170512
0.0163268
0.0190141
0.0133545
0.0204527
0.0102302
0.0215407
0.00698266
0.0224117
0.00370859
0.0226552
0.000452558
0.0225775
-0.00275714
0.0222813
-0.00583109
0.021402
-0.00874023
0.0203062
-0.0114737
0.0190915
-0.0139674
0.017471
-0.0162056
0.015739
-0.0182075
0.0140815
-0.0199346
0.012186
-0.0213805
0.0102616
-0.0225868
0.00856682
-0.0235431
0.00681407
-0.0242475
0.00507515
-0.0247401
0.00357833
-0.0250326
0.00215912
-0.0251317
0.000806787
-0.0250654
-0.000360089
-0.0248511
-0.00141391
-0.0245019
-0.00236606
-0.0240354
-0.00318655
-0.0234616
-0.00395702
-0.0228
-0.00458064
-0.0220619
-0.00512224
-0.0212605
-0.0055746
-0.0204036
-0.00596924
-0.0194988
-0.00630654
-0.0185603
-0.00655335
-0.017584
-0.0068159
-0.0165868
-0.00697067
-0.0155623
-0.00716156
-0.0145244
-0.00725866
-0.0134673
-0.00739326
-0.012401
-0.00746208
-0.0113225
-0.00754732
-0.0102361
-0.00760121
-0.00914291
-0.00765153
-0.00804509
-0.00768316
-0.00694512
-0.00770032
-0.00584454
-0.0077021
-0.00474772
-0.00767823
-0.00365839
-0.00762429
-0.00258221
-0.00753311
-0.00152624
-0.00739287
-0.000498033
-0.00719743
0.000491849
-0.00693402
0.00143167
-0.00658295
0.00230817
-0.0061408
0.00310648
-0.00559504
0.00381078
-0.00493822
0.0044043
-0.00416494
0.00487131
-0.00328199
0.00519664
-0.00229409
0.00536923
-0.00122478
0.00538235
-0.00010532
0.00523328
0.00103298
0.00492859
0.00212837
0.0044805
0.00313789
0.00391041
0.00399281
0.00324875
0.00462948
0.00253441
0.00499195
0.00513727
0.00180034
-0.00205687
-0.0263301
0.00107725
-0.0248652
0.00400026
-0.023266
0.00670819
-0.0216442
0.00917543
-0.0198385
0.0114105
-0.0180405
0.0134101
-0.0162345
0.0151678
-0.0143624
0.0166926
-0.0125419
0.0179828
-0.0107147
0.0190479
-0.0089252
0.019898
-0.00721756
0.0205256
-0.00547514
0.0209463
-0.00384177
0.0211826
-0.00231986
0.0212187
-0.000767149
0.0210808
0.000634228
0.0207822
0.00194885
0.0203264
0.00318652
0.0197211
0.00438782
0.0189815
0.00544627
0.0181312
0.00638009
0.0171638
0.0072679
0.0161096
0.00798412
0.0149883
0.00854681
0.0137979
0.0090664
0.012577
0.00934315
0.0113344
0.00951866
0.010093
0.00953652
0.00887441
0.00935916
0.00770137
0.00904716
0.00658744
0.00856869
0.00556611
0.0078831
0.0046504
0.00708185
0.00386294
0.00608441
0.00322574
0.00493397
0.00275358
0.00368345
0.00246828
0.00222931
0.00237636
0.000757729
0.00248804
-0.000843418
0.0028211
-0.00251671
0.00336755
-0.0041969
0.00413938
-0.00590351
0.00512569
-0.00757993
0.00631183
-0.00912788
0.00769727
-0.010669
0.00924807
-0.011966
0.0109556
-0.0131677
0.0127815
-0.0141024
0.0146941
-0.0147783
0.0166682
-0.0152499
0.0186349
-0.0152332
0.0205824
-0.0150713
0.0224451
-0.014439
0.0241694
-0.0133932
0.0257352
-0.0121533
0.0270677
-0.0103813
0.0281313
-0.0083147
0.0289036
-0.00605056
0.0293241
-0.00335366
0.0293803
-0.000526656
0.0290616
0.00239081
0.0283526
0.00540044
0.0272543
0.00846091
0.0257724
0.0114693
0.0238981
0.0145169
0.0216868
0.0171893
0.0191771
0.019561
0.0163805
0.0218106
0.0133834
0.0234498
0.0102352
0.024689
0.00696348
0.0256835
0.00366951
0.0259492
0.000395889
0.0258512
-0.00282932
0.0255065
-0.00591415
0.0244868
-0.00883006
0.0232221
-0.0115695
0.021831
-0.014065
0.0199665
-0.0163006
0.0179747
-0.0183004
0.0160813
-0.0200232
0.0139088
-0.0214613
0.0116998
-0.022661
0.00976648
-0.0236109
0.00776394
-0.0243066
0.00577093
-0.0247914
0.00406307
-0.0250773
0.00244507
-0.0251686
0.000898094
-0.0250961
-0.000432586
-0.0248764
-0.00163363
-0.0245224
-0.00272008
-0.0240507
-0.00365821
-0.0234731
-0.00453464
-0.0228083
-0.00524546
-0.0220674
-0.00586314
-0.0212637
-0.00637833
-0.0204048
-0.00682806
-0.0194988
-0.00721255
-0.0185591
-0.00749305
-0.0175822
-0.00779281
-0.016584
-0.00796885
-0.0155591
-0.00818649
-0.014521
-0.00829676
-0.0134638
-0.00845048
-0.0123968
-0.00852909
-0.011318
-0.00862609
-0.0102319
-0.00868738
-0.00913817
-0.00874522
-0.00804055
-0.00878077
-0.0069401
-0.00880077
-0.00583958
-0.00880262
-0.00474251
-0.0087753
-0.00365346
-0.00871334
-0.00257716
-0.0086094
-0.00152101
-0.00844903
-0.00049318
-0.00822526
0.00049666
-0.00792386
0.00143627
-0.00752256
0.00231259
-0.00701712
0.00311068
-0.00639313
0.00381449
-0.00564203
0.00440736
-0.00475781
0.00487389
-0.00374852
0.00519929
-0.00261948
0.00537192
-0.00139742
0.00538467
-0.000118071
0.00523561
0.00118204
0.00493119
0.0024328
0.00448347
0.00358561
0.00391335
0.00456294
0.00325117
0.00529165
0.00253603
0.00570709
0.00587255
0.00180075
-0.00165609
-0.0296853
0.00149404
-0.0280153
0.0044307
-0.0262027
0.0071434
-0.0243569
0.00961036
-0.0223055
0.0118422
-0.0202724
0.0138332
-0.0182255
0.0155799
-0.0161091
0.0170901
-0.0140521
0.0183633
-0.0119878
0.0194111
-0.00997305
0.0202425
-0.00804895
0.0208496
-0.00608227
0.0212477
-0.00423983
0.0214645
-0.00253671
0.0214777
-0.000780299
0.0213177
0.000794241
0.0209971
0.00226946
0.0205188
0.00366477
0.0198918
0.00501486
0.0191278
0.00621023
0.0182564
0.00725148
0.0172644
0.00825991
0.0161861
0.00906247
0.0150422
0.00969069
0.013827
0.0102816
0.0125819
0.0105882
0.0113153
0.0107853
0.0100513
0.0108005
0.00880902
0.0106014
0.00761594
0.0102402
0.00648035
0.00970428
0.00544026
0.00892318
0.00450835
0.00801377
0.00370518
0.00688758
0.00305536
0.00558379
0.00257467
0.00416413
0.00228228
0.0025217
0.00218864
0.000851372
0.00229842
-0.000953191
0.00263633
-0.00285462
0.00318816
-0.00474873
0.00397208
-0.00668742
0.00497206
-0.00857991
0.00617578
-0.0103316
0.00758173
-0.0120749
0.00915505
-0.0135393
0.0108888
-0.0149014
0.012742
-0.0159556
0.0146837
-0.01672
0.0166887
-0.0172549
0.0186849
-0.0172293
0.0206626
-0.017049
0.0225541
-0.0163306
0.0243043
-0.0151434
0.0258946
-0.0137436
0.0272471
-0.0117338
0.0283268
-0.00939445
0.0291113
-0.00683502
0.0295379
-0.00378025
0.0295954
-0.000584147
0.029273
0.00271315
0.0285541
0.00611936
0.0274426
0.00957238
0.0259439
0.0129679
0.0240472
0.0164137
0.0218117
0.0194247
0.0192759
0.0220968
0.0164502
0.0246364
0.0134256
0.0264744
0.0102503
0.0278642
0.00695123
0.0289825
0.00363435
0.0292661
0.000339916
0.0291456
-0.00290229
0.0287487
-0.00599962
0.0275841
-0.00892328
0.0261458
-0.0116698
0.0245775
-0.0141673
0.022464
-0.0164003
0.0202076
-0.0183979
0.0180789
-0.0201161
0.015627
-0.0215456
0.0131293
-0.022738
0.0109589
-0.0236807
0.00870671
-0.0243669
0.00645709
-0.024843
0.00453915
-0.0251218
0.00272385
-0.0252057
0.00098198
-0.0251258
-0.000512469
-0.0249002
-0.00185923
-0.024541
-0.0030793
-0.0240636
-0.00413558
-0.0234827
-0.00511554
-0.0228152
-0.0059129
-0.0220718
-0.00660661
-0.0212659
-0.00718421
-0.0204055
-0.00768845
-0.0194981
-0.00811997
-0.0185575
-0.00843359
-0.0175797
-0.00877064
-0.0165808
-0.00896777
-0.0155552
-0.00921207
-0.0145167
-0.00933523
-0.0134591
-0.00950806
-0.0123922
-0.00959605
-0.0113133
-0.00970495
-0.0102267
-0.00977395
-0.00913344
-0.00983852
-0.00803564
-0.00987858
-0.00693567
-0.00990075
-0.0058352
-0.00990309
-0.0047383
-0.00987219
-0.00364889
-0.00980276
-0.00257255
-0.00968574
-0.00151651
-0.00950507
-0.00048825
-0.00925352
0.000501578
-0.00891369
0.00144132
-0.00846231
0.00231771
-0.0078935
0.0031157
-0.00719112
0.00381933
-0.00634567
0.00441193
-0.00535041
0.00487808
-0.00421467
0.00520286
-0.00294426
0.00537495
-0.0015695
0.00538754
-0.000130667
0.00523821
0.00133137
0.00493425
0.00273676
0.00448707
0.00403279
0.00391687
0.00513313
0.00325382
0.00595471
0.00253747
0.00642344
0.00660894
0.00180108
-0.00121899
-0.033067
0.00194935
-0.0311837
0.0049033
-0.0291566
0.00762121
-0.0270748
0.0100887
-0.0247729
0.0123181
-0.0225018
0.0142999
-0.0202074
0.0160355
-0.0178446
0.0175298
-0.0155464
0.0187848
-0.0132428
0.0198142
-0.0110025
0.0206252
-0.00885988
0.0212107
-0.00666783
0.0215838
-0.00461293
0.0217797
-0.00273259
0.0217678
-0.000768378
0.0215844
0.000977616
0.0212392
0.00261465
0.0207366
0.00416738
0.020086
0.00566551
0.0192947
0.00700147
0.0184006
0.00814563
0.0173811
0.00927936
0.0162759
0.0101677
0.0151071
0.0108595
0.013864
0.0115246
0.0125915
0.0118607
0.0112977
0.0120791
0.0100082
0.01209
0.0087389
0.0118707
0.00752343
0.0114557
0.00636267
0.010865
0.00530078
0.00998507
0.00435071
0.00896384
0.0035295
0.00770879
0.0028646
0.00624869
0.00237396
0.00465477
0.0020726
0.00282306
0.00197643
0.000947546
0.00208297
-0.00105973
0.00242583
-0.00319749
0.00298287
-0.00530577
0.0037803
-0.00748486
0.0047943
-0.00959392
0.00601739
-0.0115547
0.00744561
-0.0135032
0.00904373
-0.0151374
0.0108069
-0.0166646
0.0126904
-0.0178392
0.0146648
-0.0186943
0.0167047
-0.0192948
0.0187342
-0.0192588
0.0207462
-0.019061
0.0226705
-0.0182549
0.0244504
-0.0169233
0.0260692
-0.0153625
0.0274455
-0.0131101
0.0285441
-0.010493
0.0293431
-0.00763401
0.0297784
-0.00421556
0.0298381
-0.000643914
0.0295129
0.00303842
0.0287839
0.00684834
0.0276588
0.0106975
0.0261422
0.0144845
0.0242214
0.0183345
0.0219593
0.0216868
0.0193952
0.0246609
0.0165376
0.027494
0.013482
0.02953
0.0102768
0.0310694
0.00694839
0.0323109
0.00360634
0.0326081
0.000288635
0.0324633
-0.00297307
0.0320104
-0.00608441
0.0306955
-0.00901682
0.0290782
-0.0117713
0.0273319
-0.0142713
0.024964
-0.0165015
0.0224378
-0.018497
0.0200743
-0.0202102
0.0173402
-0.0216304
0.0145495
-0.022815
0.0121434
-0.0237502
0.00964192
-0.0244261
0.00713297
-0.0248929
0.00500598
-0.0251642
0.00299514
-0.0252398
0.0010576
-0.0251527
-0.000599651
-0.0249214
-0.00209052
-0.024557
-0.00344363
-0.0240753
-0.00461735
-0.0234897
-0.00570113
-0.0228189
-0.00658362
-0.0220722
-0.00735332
-0.0212639
-0.00799257
-0.0204015
-0.0085508
-0.0194921
-0.00902935
-0.018551
-0.00937478
-0.0175718
-0.00974978
-0.016573
-0.0099666
-0.015547
-0.0102381
-0.0145085
-0.0103737
-0.0134509
-0.0105657
-0.0123841
-0.0106629
-0.0113055
-0.0107835
-0.0102195
-0.0108599
-0.0091262
-0.0109318
-0.0080288
-0.010976
-0.00692844
-0.0110011
-0.00582836
-0.0110032
-0.00473172
-0.0109688
-0.00364283