/*--------------------------------*- C++ -*----------------------------------*\
| =========                 |                                                 |
| \\      /  F ield         | OpenFOAM: The Open Source CFD Toolbox           |
|  \\    /   O peration     | Version:  v1912                                 |
|   \\  /    A nd           | Website:  www.openfoam.com                      |
|    \\/     M anipulation  |                                                 |
\*---------------------------------------------------------------------------*/
FoamFile
{
    version     2.0;
    format      ascii;
    class       volScalarField;
    location    "70";
    object      p;
}
// * * * * * * * * * * * * * * * * * * * * * * * * * * * * * * * * * * * * * //

dimensions      [1 -1 -2 0 0 0 0];


internalField   nonuniform List<scalar> 
14268
(
124804
124972
125112
125222
125297
125337
125338
125301
125223
125105
124946
124746
124505
124224
123902
123542
123144
122708
122239
121735
121201
120637
120046
119431
118795
118142
117474
116796
116112
115426
114743
114069
113408
112766
112147
111558
111002
110486
110012
109586
109209
108884
108613
108396
108230
108115
108046
108017
108023
108056
108105
108162
108214
108251
108259
108228
108145
107999
107779
107475
107078
106581
105973
105260
104434
103491
102433
101263
99983.7
98603
97130.2
95577.5
93958.5
92288.5
90580.9
88856.8
87134.9
85432.9
83768.1
82152.9
80600.2
79120.6
77721.7
76409.4
75189.7
74063.8
73030.7
72089.7
71238.1
70471.6
69786
69176.8
68640.2
68173.9
67766.7
67417.2
67121.2
66875.5
66676.8
66522.9
66411.9
66342.4
66313.8
66325.8
66379.1
66474.4
66613.2
66797.5
67029.7
67312.5
67648.6
68040.6
68491
69001.6
69573.5
70206.2
70894.5
71636.9
72444.8
73289.7
74156.4
75032.5
75897.4
76727.9
77497.7
78179.7
78746.4
79173
79431.3
79493
79330.5
78911.2
78246.8
77310.4
120100
120302
120477
120621
120731
120804
120840
120836
120793
120708
120583
120416
120209
119961
119673
119346
118982
118580
118144
117674
117173
116642
116085
115504
114902
114282
113648
113004
112353
111702
111053
110413
109786
109178
108594
108040
107519
107038
106599
106208
105866
105577
105341
105159
105030
104950
104917
104924
104966
105034
105119
105211
105299
105371
105414
105418
105369
105258
105072
104803
104440
103976
103401
102721
101928
101018
99993.2
98855.5
97609.3
96261.3
94821.3
93301.5
91715.6
90079
88404.8
86714.6
85027
83359.6
81729.6
80149.6
78632.1
77188.1
75824.8
74548.2
73364.2
72274.2
71276.8
70371.6
69555.7
68824.6
68174.8
67601
67099.8
66668.8
66296.9
65982.5
65721.6
65510.9
65347.1
65228.1
65152
65117.3
65123.6
65170.4
65258.5
65388.5
65562.1
65781.1
66048.1
66365.7
66736.4
67163.2
67648.3
68193.7
68800.3
69467.7
70190.6
70967.7
71810.2
72689.6
73590.8
74501.4
75400.7
76265.5
77069.6
77785.8
78386.8
78847.5
79140.1
79236
79107.6
78722.6
78092.4
77190.4
115399
115637
115847
116027
116171
116279
116349
116379
116370
116319
116227
116095
115921
115706
115451
115158
114826
114457
114054
113618
113150
112652
112128
111580
111011
110424
109823
109212
108595
107976
107361
106755
106162
105588
105038
104517
104031
103584
103180
102824
102518
102264
102064
101917
101824
101781
101783
101827
101905
102010
102132
102260
102385
102493
102572
102611
102599
102523
102372
102137
101808
101378
100836
100190
99429.5
98551.9
97559
96453.2
95238.8
93922.6
92514.6
91026.7
89472.9
87868.6
86226.9
84570
82916.1
81282.8
79687.4
78142.2
76660
75251.4
73923.9
72683.1
71535.2
70481.2
69519.9
68650.6
67870.8
67175.9
66561.6
66023.5
65557.9
65162.4
64825.8
64546.7
64321
64145.4
64016.7
63932.7
63891.5
63891.8
63932.9
64014.5
64137.3
64302.1
64510.5
64764.3
65066
65418.3
65823.8
66285.3
66805.1
67385.3
68026.6
68728.7
69486.3
70298.1
71175.3
72089.4
73025.1
73970.2
74904
75803.2
76641.6
77392.1
78027.3
78522.2
78849
78979
78884.8
78534
77938.1
77070.3
110702
110976
111223
111438
111618
111761
111865
111930
111955
111938
111880
111780
111640
111458
111237
110976
110677
110341
109971
109567
109131
108666
108175
107659
107122
106568
106000
105421
104836
104251
103668
103095
102535
101994
101477
100990
100538
100125
99755.8
99434
99162.7
98944.3
98779.9
98669.7
98612.2
98605.6
98645
98726.1
98841.5
98983.4
99142.9
99308.5
99470.5
99615.8
99732.4
99808.8
99832.6
99792.7
99677.8
99477.8
99183.6
98787.5
98279.4
97665.6
96937.9
96092.2
95130.8
94056.2
92872.7
91587.3
90210.1
88753.2
87230.7
85657.8
84047.7
82423.2
80802.4
79202.7
77641.5
76130.9
74683.7
73310.7
72018.9
70814.2
69702.5
68684.9
67759.8
66926.9
66183.2
65524.2
64946.2
64444.1
64014.2
63654.4
63353.4
63109.7
62919.3
62779
62685.4
62636.5
62630.3
62665.5
62741.4
62857.9
63015.5
63215.1
63458.2
63746.8
64083.3
64470.3
64910.5
65406.7
65961.4
66576.3
67252.4
67989.2
68781.5
69628.1
70540.1
71488.7
72459.2
73438.9
74407.2
75340.8
76213.7
76998.5
77667.9
78197.1
78558
78722.2
78662.2
78345.5
77783.9
76950.3
106009
106320
106604
106856
107071
107250
107389
107489
107547
107564
107540
107474
107366
107218
107029
106801
106535
106231
105893
105521
105118
104685
104225
103741
103237
102714
102177
101630
101078
100524
99973.8
99432.3
98904.7
98396.3
97912.6
97458.7
97039.8
96660.7
96325.5
96038.3
95802
95618.8
95490.2
95416.2
95395.3
95425.6
95502.3
95621.2
95774.5
95954.6
96152.5
96356.5
96557.1
96740.7
96895.5
97009.8
97071.1
97068.2
96989.8
96825.6
96566.6
96205
95730.3
95149.4
94453.8
93639.6
92709.2
91664.9
90511.4
89255.8
87908.4
86481.5
84989.2
83446.8
81867.1
80274.3
78686
77119.4
75592
74115.8
72703.6
71366.1
70110.2
68941.6
67866.3
66885.2
65996.7
65200.3
64493.2
63870.8
63328.8
62862.9
62468.9
62145.1
61879.7
61671.6
61516.7
61411.6
61353.3
61339.4
61368.3
61438.4
61549.3
61700.7
61893.2
62127.5
62405.4
62728.6
63099.9
63521.7
63996.6
64527.6
65117
65766.6
66477.5
67249.1
68076.2
68957.7
69904.5
70887.8
71893
72907.4
73910.3
74878.5
75785.8
76605
77308.7
77872.1
78267.2
78465.6
78439.7
78157
77629.7
76830.4
101319
101669
101990
102279
102531
102746
102920
103055
103148
103199
103208
103175
103101
102985
102829
102633
102399
102127
101821
101481
101109
100707
100279
99826.7
99353.1
98861.7
98356.2
97840.5
97319.2
96796.6
96277.8
95767.8
95272
94795.6
94344
93922.7
93536.7
93191
92889.6
92636.5
92435
92287.1
92194.4
92156.7
92172.7
92240.5
92355
92512.3
92704.3
92923.5
93160.6
93404.1
93644.2
93867.2
94061.3
94214.6
94314.4
94349.3
94308.1
94180.4
93956.8
93629.8
93188.7
92640.7
91977
91193.8
90293.7
89279.1
88154.7
86928
85609.4
84211.4
82748.3
81235.3
79685.1
78123.2
76566.8
75032.8
73538.9
72096.8
70719.5
69417.4
68197.5
67065.2
66026.5
65082.2
64230.5
63470.9
62800.6
62214.8
61709.4
61279.9
60922.1
60634.3
60404.8
60232.4
60113
60043.3
60020.3
60041.7
60105.6
60210.8
60356.6
60542.8
60770.1
61039.3
61351.9
61709.9
62115.9
62572.4
63082.1
63647.8
64272
64956.4
65702.1
66508.6
67370.4
68286.8
69268.5
70286.6
71326.6
72375.7
73413.3
74416.1
75357.9
76211.5
76949.6
77547.3
77976.5
78209
78217.3
77968.7
77475.6
76710.5
96634.1
97023.3
97382.8
97709.2
97998.6
98249
98459.4
98628.7
98756.2
98841.3
98884.2
98884.6
98842.8
98759.5
98635.5
98471.6
98269.4
98029.7
97754.5
97445.5
97104.7
96734.4
96336.8
95915.1
95472.2
95011.3
94536.4
94051.1
93560.3
93068.3
92580.2
92101
91636.3
91191.2
90771.3
90382.1
90028.6
89715.7
89447.7
89228.7
89061.8
88949.1
88892.5
88891.2
88944.4
89050
89203
89399.3
89630.8
89889.9
90167.4
90451.2
90732
90995.5
91229.8
91423.1
91562.3
91636
91632.8
91542.1
91354.5
91062.4
90654.8
90139.5
89507.5
88754.9
87884.4
86898.7
85802.5
84603.7
83312.8
81942.7
80507.9
79023.5
77501.5
75969.8
74444.8
72942.9
71482
70073.9
68731.3
67464.7
66280.9
65184.9
64183
63275.9
62461.3
61738.7
61105.5
60556.6
60088
59695.1
59373.6
59122
58928.6
58792
58708.3
58674.1
58686.5
58743.1
58842.2
58982.3
59163.1
59384.2
59646.4
59950.3
60297.8
60690.5
61131.2
61622.5
62167
62767.4
63426.4
64145.6
64926.2
65767.5
66664.1
67615.5
68632.2
69685.2
70760
71844
72916.3
73953.8
74930.2
75818.2
76590.7
77222.6
77686.1
77952.7
77995.1
77780.4
77321.6
76590.6
91953.2
92382.6
92780.9
93145.6
93472.9
93759.9
94006
94210.5
94372.6
94491.8
94568.2
94601.7
94592.6
94541.5
94449.6
94317.4
94146.5
93938.4
93693.9
93415.7
93105.5
92765.6
92398.3
92006.7
91593.9
91162.8
90717.7
90262.3
89801.3
89339.1
88881
88432
87997.7
87583.3
87194.5
86836.7
86515.2
86234.8
86000
85814.7
85682.4
85604.8
85584.2
85619.6
85710.5
85854.3
86046.2
86282.3
86553.9
86853.9
87172.6
87497.9
87820.3
88125.4
88401.1
88635.5
88815
88928.4
88963.9
88910.8
88759.7
88502.6
88128.6
87646
87045.3
86322.8
85481.3
84523.8
83454.9
82282.9
81018.8
79675.6
78268
76811.2
75316.2
73814.1
72319.8
70849.6
69421.5
68047
66739.1
65508
64360.3
63300.9
62336
61466.3
60688.9
60003.7
59407.9
58896.2
58464.5
58108.5
57823.6
57608.4
57451.1
57350.5
57302.5
57304
57351.8
57443.6
57578
57753.3
57969.1
58225.1
58522
58860.7
59242.9
59670.4
60145.9
60671.9
61251.2
61886.4
62580.2
63334.3
64149.7
65025.9
65957.4
66943.8
67995.5
69083.4
70193.2
71312
72419.2
73491.4
74502.4
75425
76231.8
76898.1
77395.7
77696.5
77772.9
77592.3
77167.7
76470.7
87276.7
87747
88185.1
88588.8
88954.3
89278.2
89560.5
89800.4
89997.2
90150.4
90260.3
90326.7
90350.1
90331.2
90271
90170.1
90030.1
89853.3
89639.2
89391.2
89111
88801.2
88463.4
88101.4
87718
87316.1
86900.2
86473.9
86042
85608.9
85180.2
84760.7
84356.1
83971.9
83613.5
83286.6
82996.6
82748.3
82546.3
82394.4
82296.6
82254
82269.7
82341.9
82470.7
82653.1
82884.6
83161
83473.7
83815.5
84176.2
84544.1
84909.3
85257
85575.1
85851.6
86072.6
86226.4
86301.4
86286.6
86172.4
85950.7
85610.3
85160.2
84590.6
83897.6
83084.5
82154.3
81111.8
79965.7
78727.3
77409.8
76028.6
74598.5
73129.3
71655.9
70191.8
68752.8
67357.1
66016.1
64742.7
63547.1
62435.6
61412.9
60485.4
59653.3
58913.5
58265.9
57707.7
57233.3
56839
56520
56271.8
56093.3
55972.3
55907.9
55895.8
55933
56016.3
56143.6
56313.2
56523.6
56774.4
57065.3
57397.1
57770.6
58187.6
58649.8
59160
59720.6
60334.5
61004.6
61733.2
62522.2
63372.6
64283.8
65250.1
66271.7
67358.5
68481.3
69626.1
70780
71922
73029.1
74074.8
75031.9
75873.2
76573.7
77105.5
77440.4
77550.9
77404.2
77013.8
76350.9
82604.8
83116.9
83595.5
84038.8
84443
84804.2
85122.9
85398.4
85630
85817.2
85960.5
86059.8
86115.5
86128.4
86099.7
86029.8
85920.1
85774.7
85590.3
85372.1
85121.4
84841
84532.3
84199.3
83844.6
83471.3
83083.9
82686
82282.6
81877.9
81477.8
81087
80711.5
80356.7
80028.3
79731.7
79472.7
79255.9
79086.4
78967.7
78904.3
78896.6
78948.6
79057.8
79224.9
79446.4
79718
80035.6
80390
80774.4
81178.3
81589.6
81998.7
82390.2
82751.9
83071.6
83334.9
83530.2
83645.5
83669.6
83592.7
83406.6
83099.9
82682.3
82143.3
81479.4
80694
79790.3
78773.2
77652
76438.2
75145.5
73789.6
72385.4
70940.3
69495.2
68060.8
66652.4
65288.9
63981.2
62742.1
61582.1
60507
59521.2
58631.1
57836.9
57134.9
56525.3
56005
55568.3
55211.4
54929.6
54718.5
54576.8
54492.4
54464.1
54488.1
54561.1
54680.1
54842.8
55047.6
55293.2
55579
55904.9
56271.7
56680.1
57131.8
57628.8
58173.6
58768.9
59417.6
60122.4
60885.7
61709.6
62595
63541.2
64542.4
65599.2
66721.2
67878.9
69058.9
70247.8
71424.8
72566.7
73647.2
74638.9
75514.6
76249.5
76815.5
77184.5
77329.1
77216.2
76860
76231.1
77937.6
78492.4
79012.4
79495.8
79939
80338.1
80693.3
81004.7
81271
81492.4
81669.1
81801
81888.9
81933.3
81935.8
81896.6
81817.3
81702
81547.2
81358.3
81136.7
80885.2
80605
80300.3
79973.9
79628.5
79268.9
78898.6
78522.9
78145.9
77773.7
77410.9
77063.9
76737.8
76438.6
76171.8
75943.4
75757.7
75620.4
75534.5
75505.3
75532.5
75621.2
75767.3
75973.1
76234.1
76546.2
76905.7
77302.6
77730.7
78178.7
78634.6
79088.7
79525
79931.5
80295.5
80602.2
80839.8
80996.1
81059.8
81020.6
80870.5
80597.5
80212.1
79703.6
79068.2
78309.9
77431.9
76439.2
75341.7
74151.5
72882.5
71550.9
70172
68749.2
67331.9
65926.7
64548.5
63216.7
61942.1
60737.4
59613
58574.4
57625.6
56773.3
56017.2
55353.3
54781.8
54299.7
53901.1
53581.8
53337.6
53163.8
53059
53011.2
53019.3
53079.3
53188.2
53342.8
53541
53781.2
54061.9
54382.9
54743.8
55145.5
55588.7
56075.2
56606.9
57186.5
57816.8
58500.2
59239.8
60037.8
60896.4
61816.8
62798.1
63834.2
64926.2
66083.5
67276.2
68491.4
69715.4
70927.5
72104.3
73219.6
74246
75156.2
75925.5
76525.6
76928.7
77107.3
77028.3
76706.2
76111.4
73275.4
73873.9
74436.1
74960
75442.5
75880.1
76272
76619.4
76920.6
77175.9
77386
77550.4
77670.2
77745.9
77779.3
77770.6
77721.6
77635.1
77510
77350
77156.8
76933.7
76681.5
76404.5
76105.6
75787.5
75455
75111.7
74763
74412.8
74067.9
73732.3
73413
73115
72844.4
72607
72408.5
72253.4
72148
72094.6
72099.6
72161.4
72287.1
72470.2
72715.1
73015.9
73369.3
73771.3
74211.5
74684.2
75177.2
75678.9
76179.1
76661.5
77113.9
77523.2
77874.3
78155.2
78353.5
78457.3
78456.4
78342.4
78103.1
77749.9
77271.4
76664.1
75932.1
75079
74109.7
73034.9
71867.2
70620.6
69312.6
67958.5
66555.6
65166
63789.3
62441
61140.7
59898.9
58728.5
57639.8
56637.7
55726.1
54911.8
54194.2
53568.7
53035.6
52592
52231.5
51950.2
51743.7
51607.4
51539.7
51528.7
51573.3
51669.6
51814.5
52005
52238.7
52514.3
52830.2
53186.3
53582.2
54018.7
54496.7
55018
55584.5
56198.8
56863.8
57582
58356.4
59189.4
60082.8
61038.1
62054.5
63125.5
64252.9
65445.4
66673.3
67923.7
69182.9
70430.1
71642
72792.1
73853.2
74798
75601.5
76235.9
76673.1
76885.7
76840.4
76552.5
75991.7
68618.3
69261.5
69866.7
70431.6
70953.5
71430.3
71859.1
72242.7
72578.7
72868
73111.3
73308.1
73459.6
73566.3
73630.3
73651.8
73632.8
73574.8
73478.7
73347.1
73181.9
72986.8
72761.9
72512
72240.1
71948.5
71642.4
71325.3
71002.8
70678.8
70360.3
70051.3
69759
69488.4
69245.7
69037.1
68867.9
68743.1
68669.2
68647.9
68687.1
68783.2
68946
69166.3
69450.7
69791.7
70187
70632.3
71116.5
71634.8
72173.9
72722.4
73269.9
73799.5
74298.9
74754.8
75151.5
75476.6
75717.5
75862.2
75900.1
75822.6
75616.9
75295.7
74846.9
74267.2
73560.7
72731.6
71784.7
70731.6
69585.1
68360
67074.4
65744.8
64359.3
62997.2
61648.8
60329.8
59060.6
57851.6
56715.4
55662.4
54696.9
53822.7
53046.7
52367.8
51780.9
51286.5
50881.7
50559.7
50316.6
50147.9
50049.6
50019
50045
50126.3
50258.9
50439.9
50666.2
50935.6
51246.7
51597.9
51989.1
52419.9
52891.4
53404.2
53960.3
54561.5
55210.5
55910.2
56663.1
57472.3
58340.1
59268.7
60258.9
61310.4
62416.4
63579.1
64806.8
66069.9
67355.7
68650.2
69932.6
71179.6
72364.7
73460.5
74439.7
75277.8
75946.3
76417.6
76664.2
76652.6
76398.9
75872
63966.8
64655.3
65304.5
65910.4
66472.7
66989
67454.9
67874.8
68245.5
68568.8
68845.3
69074.1
69257.1
69394.7
69488.9
69540.1
69550.9
69521
69453.4
69349.8
69212
69044.2
68846.2
68622.7
68377.1
68111.4
67830.9
67539.4
67242.3
66943.7
66650.8
66367.6
66101.6
65857.7
65642.3
65461.8
65321.6
65226.4
65183.7
65194.3
65267.6
65397.8
65598.1
65855.3
66179.8
66561.3
66999.1
67488.5
68017.5
68582.5
69168.6
69765
70361
70938.9
71486.8
71990.3
72433.6
72803.9
73088.4
73274.7
73351.8
73311
73139
72849.6
72430.2
71877.5
71195.8
70389.9
69464.3
68431.6
67305.3
66100.3
64836.3
63531.5
62159.7
60825.8
59505
58214.8
56976.5
55799.9
54697.8
53680.6
52751.9
51915.3
51177.8
50537.9
49989.9
49534.6
49168.9
48885.6
48680.9
48550.3
48490.2
48496.9
48560
48678
48847.1
49064.3
49326.4
49631.5
49978.1
50364.6
50791
51256.8
51763.2
52310.9
52901.8
53537.8
54221.6
54956
55743.7
56587.6
57490.3
58453.8
59479.1
60565.7
61706.8
62904.9
64168
65466.4
66787.5
68117.3
69434.9
70717
71937.1
73067.9
74081.9
74954.2
75656.9
76162.2
76442.9
76465
76245.4
75752.5
60385.7
61101.1
61776
62405.1
62991
63528.5
64014.7
64454
64842.9
65183.6
65476.9
65721.5
65919.9
66072.2
66180.6
66245.4
66270.3
66252.8
66197.8
66106.4
65980.2
65824
65637.1
65424.3
65189.1
64933.5
64662.8
64380.9
64093.3
63804
63520.6
63247
62990.9
62757.4
62552.7
62383.7
62255.7
62173.5
62144.9
62170.2
62260.5
62407.6
62628.2
62904.9
63252.3
63656.8
64119.9
64636.1
65192.7
65787.3
66403.3
67031
67658.8
68268.5
68848.3
69383.3
69857
70256.5
70568.6
70780.5
70880.9
70860.8
70706.3
70432.2
70025.5
69482.8
68808.7
68008.4
67086.1
66055.7
64931
63727.6
62466.3
61169.7
59788.1
58465.7
57153.8
55873.9
54648.1
53486.1
52400.4
51401.7
50492.9
49677.2
48961.8
48344.8
47819.6
47387.3
47044.7
46784.1
46602
46493.4
46456.1
46484.1
46568.2
46706.8
46896.2
47133.4
47415.1
47739.5
48105
48510.3
48955.2
49439.4
49964.1
50529.9
51138.8
51792.9
52494.7
53247.1
54052.9
54915
55836.1
56818.2
57862.2
58968
60128.3
61346.4
62629.7
63948.2
65289.9
66639.7
67977.3
69279.4
70519.4
71670
72702.8
73593.6
74312.9
74833.6
75128.1
75161.2
74950.9
74464.1
57870.3
58593.6
59275.3
59910.1
60501.4
61042.3
61532.1
61974
62364.3
62706.1
63000.1
63244.5
63442.4
63593.6
63700.5
63763.5
63786.9
63766.2
63708.3
63613.8
63483.8
63323.7
63132.6
62915.1
62675
62414.1
62137.7
61849.9
61556.2
61260.7
60971
60691.3
60429
60189.8
59979.6
59805.6
59673
59587.1
59555.7
59578.9
59668.7
59815.3
60038.9
60317.3
60670.1
61079.8
61550.5
62075.8
62642.3
63249.1
63877.7
64519.4
65162
65786.7
66381.9
66932.1
67420.1
67832.8
68156.7
68378.6
68486.7
68471.7
68318.7
68043.9
67633.7
67084.7
66401.4
65589.6
64653.2
63607.1
62465.8
61245.1
59967.4
58664.1
57244.8
55919.1
54596.8
53308.2
52076.3
50910.6
49823.4
48825.8
47919.5
47107.7
46397.8
45787.2
45268.3
44842.9
44507.5
44254.3
44078.1
43975.2
43945.2
43978
44067
44210.1
44403.4
44644.2
44929.1
45256.2
45624.1
46031.3
46477.9
46963.5
47489.3
48055.9
48665.6
49320.2
50022.5
50775.4
51581.6
52444.4
53366.4
54349.7
55395.4
56503.3
57665.9
58887.6
60175.1
61498.2
62845.5
64201.7
65546
66854.9
68101.2
69257.8
70296.5
71190.8
71914.3
72435.7
72730
72759.6
72544.6
72052.9
55356.7
56088.1
56776.9
57417.7
58014.5
58558.7
59052.4
59496.9
59888.8
60231.7
60526.3
60770.5
60967.7
61117.8
61223.2
61283.5
61306
61282
61221.1
61123.3
60989.3
60825.2
60629.7
60407.2
60161.9
59895.5
59613.1
59319.1
59019
58716.8
58420.5
58134.1
57865.4
57620
57403.9
57224.7
57087.1
56997.2
56962.5
56983.6
57072.3
57218.6
57445.2
57724.9
58083.4
58498.4
58977.1
59511.9
60088.9
60708.5
61350.3
62006.9
62665.1
63305.8
63917.6
64483.8
64987.2
65414.2
65750.9
65983.5
66099.9
66090.5
65939.5
65663.7
65250
64694.4
64001.3
63177.3
62225.6
61162.5
60003.1
58763.4
57467
56141.1
54713.5
53368.9
52034.4
50736.3
49497.9
48328
47239.2
46242.6
45338.7
44531
43826.8
43222.8
42710.7
42292.6
41964.6
41718.5
41549.1
41452.1
41430.4
41468.2
41562.2
41710
41907.5
42152
42440.2
42770
43140.3
43549.5
43997.8
44484.7
45011.5
45578.9
46189.1
46844.1
47546.6
48299.7
49106.1
49969.2
50891.7
51875.8
52922.9
54032.7
55197.7
56422.9
57714.6
59042.8
60396.2
61759.5
63111.5
64428.7
65683.5
66848.6
67894.9
68796
69524.9
70050.8
70347.6
70375.9
70156.1
69660
52844.9
53584.8
54280.8
54928
55530.5
56077.7
56575.8
57022.7
57416.3
57760.3
58055.5
58299.4
58496.1
58645
58748.8
58807.8
58827.4
58800.5
58736.4
58635.2
58497.1
58328.7
58128.6
57901
57650.2
57378
57089.3
56788.8
56481.8
56172.6
55869.1
55575.8
55300.2
55048.2
54825.7
54640.8
54497.7
54403.7
54365.2
54384.1
54471.2
54617.2
54846.9
55127.8
55492.3
55912.5
56399.6
56944.4
57532.2
58165.5
58821
59493.5
60168.3
60825.9
61455.3
62038.7
62558.5
63000.7
63351
63595.3
63720.8
63717.5
63568.7
63291.6
62874.4
62311.9
61608.3
60771.2
59803
58721.7
57542.6
56282.2
54965.2
53615.7
52179.1
50814.9
49466.7
48158.5
46912.7
45738.2
44647.4
43651.6
42750.2
41946.7
41248.7
40651.7
40146.8
39736.3
39416.3
39177.7
39015.5
38924.3
38912.1
38954.7
39054
39206.7
39408.6
39657
39948.5
40281.1
40653.9
41065
41514.9
42002.9
42530.6
43098.6
43709.1
44364.2
45066.7
45819.6
46626
47489.1
48411.8
49396.6
50444.8
51556.4
52723.8
53952.6
55249
56582.9
57943.3
59314.7
60675.8
62003.1
63268.1
64443.7
65500.1
66410.7
67147.6
67678.9
67979.4
68006.8
67781.4
67278.7
50335.2
51083.7
51787.2
52441.1
53048.7
53599.9
54102.3
54551.7
54947
55292
55587.7
55831.3
56027.4
56175.1
56277.1
56335
56350.4
56321.2
56253.9
56149.3
56006.8
55834
55629.2
55396.1
55139.6
54861.3
54566
54258.6
53944.4
53627.8
53316.8
53016.1
52733.2
52474.2
52244.8
52054
51905
51806.3
51763.8
51780.4
51865.4
52011.4
52243.9
52525.9
52896.6
53321.8
53818
54373
54972.1
55619.8
56289.7
56979
57671.4
58346.8
58995
59596.6
60133.9
60592.5
60957.3
61214.1
61349.4
61352.9
61206.9
60927.7
60506.9
59937.3
59222.4
58371.5
57385.6
56284.6
55084.5
53801.9
52462.5
51088.8
49640.7
48256.7
46893.4
45574
44320.3
43140.6
42047.7
41052.8
40153.9
39354.9
38663.4
38073.7
37576.4
37174
36862.4
36631.8
36477.2
36391.6
36390.6
36437.5
36542.4
36700.2
36906.7
37159.1
37454.1
37789.6
38164.8
38577.9
39029.3
39518.4
40046.9
40615.2
41225.8
41880.8
42583
43335.4
44141.3
45004
45926.7
46911.7
47960.8
49074.1
50243.9
51476.3
52777.6
54117.8
55486
56866.7
58238.2
59577.2
60854.3
62042.7
63111.4
64033.6
64780.6
65320.8
65627.6
65656
65425.2
64916.6
47827.5
48584.9
49295.9
49956.9
50569.4
51125.9
51631.6
52083.6
52480.8
52826.9
53123.1
53366.4
53561.8
53708.1
53808.3
53865.3
53876.4
53844.6
53773.8
53665.7
53518.7
53341.2
53131.5
52892.7
52630.2
52345.7
52043.4
51728.7
51406.9
51082.4
50763.5
50455
50164.3
49898
49661.3
49464.2
49308.9
49205
49158.3
49172.1
49255
49400.5
49635.9
49919
50296.1
50726.2
51232
51797.6
52408.5
53071.4
53756.3
54463.4
55174.2
55868.4
56536.6
57157.5
57713.4
58189.4
58569.8
58840
58985.7
58996.6
58854
58572
58147.8
57570.7
56843.8
55978.1
54973.4
53851.3
52628.6
51322.1
49958.8
48560.2
47098
45693.6
44314
42982.7
41720.3
40535
39439.8
38445.8
37549.6
36755.5
36070.9
35488.8
34999.5
34605.8
34302.9
34080.7
33934.3
33856.3
33863.5
33916.5
34027.4
34190.6
34401.8
34658.4
34956.9
35295.4
35673.1
36088.2
36541
37031.1
37560.2
38128.8
38739.3
39393.8
40095.4
40847.1
41652.1
42514.1
43436.3
44421.3
45471
46585.9
47758
48994.1
50300.6
51647.6
53024.4
54415.4
55798.7
57151.1
58442.3
59645.6
60729
61665.3
62425
62975.9
63291
63322.4
63085.5
62571.4
45321.9
46088.3
46807.1
47475.3
48093.2
48655.1
49163.7
49618.5
50017.8
50365
50661.6
50904.5
51099.3
51244.2
51342.2
51398.7
51405.2
51370.5
51296.2
51184.4
51032.8
50850.4
50635.6
50390.9
50122.2
49831
49521.4
49199.1
48869.3
48536.6
48209.3
47892.6
47593.6
47319.5
47075.2
46871.3
46709
46599.8
46548.5
46559.3
46639.9
46786.4
47020.8
47307.3
47690.9
48125.5
48641.5
49218.2
49841.3
50520
51220.5
51946.3
52676.6
53390.6
54080.1
54721.3
55297
55791.6
56188.6
56473.1
56630.2
56649.1
56510.4
56224.9
55797
55212.2
54472.5
53591.1
52566.3
51421.7
50174.9
48842.9
47453.9
46029.4
44550.7
43125.2
41728.2
40384.1
39112.6
37921.2
36823.6
35830.6
34937
34148.1
33470.9
32896.8
32416
32031.6
31738
31524.5
31386.8
31318.6
31330.7
31391.8
31509
31677.8
31894
32154.9
32457.2
32798.7
33178.8
33595.8
34050.1
34541.1
35070.6
35639.2
36249.4
36903.3
37604
38354.5
39158.4
40019.3
40940.7
41925.4
42975.5
44091.7
45266
46505.8
47817.8
49172.2
50558.4
51960.7
53357.1
54724.7
56031.8
57252.4
58352.8
59305.5
60080.4
60644.4
60970.1
61006.6
60762.1
60242.7
42690.1
43466.4
44193.3
44868.8
45492.2
46059.6
46569.9
47027.3
47428.7
47776.4
48072.8
48314.7
48508.4
48651
48745.8
48801
48802.5
48764.2
48685.4
48569.1
48411.9
48223.7
48002.8
47751
47474.9
47176
46857.7
46526.5
46187.4
45845
45507.8
45181.5
44872.8
44589.4
44335.8
44124.1
43953.1
43837.4
43780.2
43787.1
43864.4
44010.7
44244.1
44533.7
44923.7
45361.7
45889.1
46477.1
47113.3
47809.1
48526.3
49272.6
50024
50759.6
51472.5
52136
52733.2
53248.4
53663.6
53963.7
54133.3
54160.9
54026.7
53735.6
53303.6
52709.7
51955
51055.4
50007.4
48836.7
47562
46200.3
44781.7
43327.7
41828.4
40379
38961.6
37602.5
36320
35121.1
34020.3
33027.8
32136.8
31353.3
30684
30118.2
29646.5
29272
28988.2
28783.7
28655.2
28597.5
28615.5
28684.4
28808
28982.6
29203.8
29468.9
29774.7
30119
30501.2
30919.7
31374.9
31866.2
32395.5
32963.4
33572.4
34224.9
34923.7
35672.1
36473.7
37332.6
38252.1
39235.5
40285
41401.9
42578
43821.1
45138.9
46501.1
47897.7
49312.8
50724.4
52109.6
53435.3
54676.5
55797.2
56769.8
57563.2
58143.2
58482.3
58526.6
58270.8
57746.2
39932.9
40719.7
41454.6
42137.9
42766.9
43338.6
43852
44310.6
44714
45062
45357.4
45597.8
45790
45929.7
46021.7
46073.5
46070
46026.9
45942.6
45820.8
45657.1
45462
45233.9
44973.9
44689.2
44381.3
44052.9
43711.2
43361.3
43007.6
42658.9
42321.4
42001.4
41707.1
41442.6
41221.4
41040.4
40916.9
40852.3
40854
40927
41072
41303.5
41597.4
41992.8
42433.3
42973.5
43573.2
44223.1
44937.5
45672.6
46441.3
47216
47975.2
48714.3
49402.3
50023.5
50561.5
50996.7
51314
51497.4
51534.6
51406.2
51106.5
50670.2
50065.8
49293.6
48373.1
47298.4
46097.5
44790.5
43394.5
41941.6
40454
38929.6
37453
36012
34635.5
33339.9
32132.1
31027.3
30034.9
29146.3
28368.7
27707.8
27150.6
26688.9
26325.3
26052.1
25856.9
25736.9
25692.3
25716.6
25793.1
25923.5
26104
26330.3
26599.6
26908.7
27255.5
27639.4
28059.1
28514.6
29005.6
29533.9
30100.4
30707.3
31357.3
32053.2
32798.3
33596.5
34452.1
35368.7
36349.6
37397.6
38514.3
39691.6
40937.8
42261.5
43632.2
45040.4
46470.2
47899.2
49305.3
50652.8
51918.8
53064
54060.9
54877
55476.9
55835.8
55890.9
55617.2
55088.9
37178.2
37975.9
38719.2
39410.7
40045.1
40620.8
41139.6
41597.4
42003.3
42351.6
42645.9
42884.6
43075.4
43212
43302.3
43346.1
43340
43292.3
43202.4
43075
42904.8
42702.4
42467.1
42198.6
41904.9
41587.7
41248.8
40896.2
40535
40169.4
39808.6
39459.4
39127.6
38821.9
38545.7
38314.5
38123
37991.1
37918.7
37915.1
37983
38126.4
38356.6
38654.1
39054.9
39497.6
40051.7
40663.3
41327.9
42061.6
42815.5
43608
44407.2
45191.2
45958.1
46672
47318.7
47881.3
48338
48673.9
48872.2
48921
48800.1
48488
48048.4
47433.2
46642.5
45699.4
44596.4
43363.1
42021.4
40588.7
39099.3
37575.9
36024
34518.6
33052.7
31657.8
30348.5
29131.2
28022.6
27030.3
26144.4
25373.3
24721.8
24173.6
23722.5
23370.9
23109
22923.3
22813
22782.3
22813.1
22897.4
23034.8
23221.5
23453.1
23726.7
24039.3
24388.7
24774.4
25195.2
25650.9
26141.6
26668.6
27233.4
27837.9
28485.1
29177.6
29919
30713.3
31565.1
32478.2
33456.1
34502.2
35618.3
36796.7
38045.9
39375.8
40755.6
42176.3
43622.2
45070.5
46499.7
47871.7
49165.7
50338.6
51363.1
52205.5
52827.9
53194.3
53282.3
52982.2
52454.6
34425.6
35235.3
35987.7
36686.9
37327.1
37907.3
38430.1
38889.4
39296.4
39645.2
39938.7
40175.3
40364.9
40497.9
40586.5
40623.4
40614.3
40561.6
40465.6
40332.1
40155.5
39945.5
39702.5
39425.2
39122.2
38795.4
38445.7
38081.6
37708.5
37330.6
36957.2
36595.7
36251.4
35933.6
35645
35403.5
35200.8
35059.9
34979.2
34969.9
35032.2
35173.7
35402.7
35704.2
36109.5
36554.2
37123.5
37747
38427.4
39181.3
39954.7
40772.5
41597.6
42407.7
43204.4
43945.5
44619.1
45208.1
45687.5
46043
46257.5
46316
46208.1
45877.7
45437.5
44811.1
44000.6
43033.7
41900.8
40633
39254.5
37782.8
36254.4
34693.1
33111.2
31575.2
30083.1
28668.9
27345.1
26118
25005.8
24013.7
23130.7
22367.3
21725.7
21186.9
20747.3
20408.8
20158.8
19982.7
19881.9
19867.4
19904.8
19997.1
20141.9
20335.1
20572.4
20850.5
21166.7
21518.8
21906.2
22328.1
22784
23274.1
23799.6
24362.5
24964.3
25608.3
26297.2
27034.3
27824.1
28671.5
29580.5
30555
31598.6
32713.6
33892.8
35145
36481.3
37870.7
39304.9
40768.2
42237.6
43692.3
45091.3
46416.8
47620.5
48676.3
49548.6
50197.5
50587.7
50691.4
50383.5
49847.1
31675.7
32497.9
33259.7
33966.5
34613.2
35197.9
35723.8
36186.5
36593.5
36942.8
37235.6
37470
37658.2
37789
37872.9
37904
37892
37834.1
37732.1
37592.2
37409
37191.1
36940.3
36654
36341.4
36004.6
35643.6
35267.6
34882.1
34491.2
34104.5
33730.1
33372.8
33042.4
32740.8
32488
32273.6
32123.4
32033.6
32018.2
32074.1
32213.6
32441.3
32745.9
33157.8
33602.9
34188.6
34823.7
35521.3
36295.9
37089.4
37934
38786.3
39624
40452.5
41222.5
41924.6
42542.2
43045.6
43422.1
43653.9
43724.3
43623.6
43287.5
42839.3
42201.3
41370
40377.8
39213.5
37908.4
36490.3
34976.6
33406.5
31804.6
30190.5
28622.1
27102.7
25668.3
24329.3
23092.3
21976.6
20984.7
20105.2
19350.5
18719.6
18190.3
17763.2
17439.2
17201.7
17035.3
16944.2
16948.8
16991.8
17092.4
17244.9
17445
17688.1
17970.9
18290.8
18645.8
19034.8
19457.9
19913.8
20403.3
20927.1
21487.8
22086.6
22727.1
23411.7
24144.1
24928.9
25771.3
26675.7
27646
28686.7
29800
30979.8
32234.9
33577.8
34977.4
36425.9
37907.9
39400.3
40883
42311.3
43671.8
44909.5
46000.2
46906
47584.8
47998.6
48111.2
47816.9
47261.7
28929.9
29763.1
30535.4
31250.4
31903.3
32492.7
33021.8
33488
33895
34244.4
34536.4
34768.8
34955
35085.4
35161.1
35186.8
35173
35109.7
35001.5
34855
34665
34439
34180.3
33884.9
33562.3
33215.1
32842.3
32453.9
32055.5
31651
31250.5
30862.6
30491.6
30148.1
29832.7
29567.9
29341.2
29181.5
29081.6
29060.3
29108.8
29246.1
29472
29779.4
30199.4
30643.2
31246.8
31893.1
32609.5
33405
34219.7
35092.6
35973.2
36840.1
37702.2
38502.5
39234.8
39883.2
40412
40810.7
41061.5
41149.1
41045.4
40717.3
40254.3
39603.6
38749.8
37730.1
36531.7
35186.9
33726.7
32168.8
30555
28910.4
27261.8
25658.8
24111.2
22655.2
21300.3
20053
18934.2
17942.5
17066.8
16322.4
15702.4
15183.3
14770.3
14461.9
14237.1
14080.9
14005
14021.6
14073.6
14183.1
14343.7
14550.9
14800.1
15087.8
15411.5
15769.3
16160
16584.1
17040.2
17529
18050.9
18609.3
19204.9
19841.5
20521.5
21248.5
22027.7
22864.6
23763.7
24729.2
25766.4
26877.3
28057.6
29315.4
30665
32074.9
33538.7
35040.7
36557.9
38071
39531.3
40930.4
42205.2
43334.7
44277.7
44990.3
45431.7
45559.5
45275.3
44705.8
26187.2
27031.4
27814.6
28538.2
29196.6
29791.7
30324.1
30793.1
31203.4
31549.7
31840.4
32071.4
32255.7
32385.6
32453.7
32485.7
32458.6
32389.6
32274.4
32121
31924.3
31689.9
31422.8
31118
30785.3
30427.2
30042.3
29640.8
29228.9
28810.3
28395.2
27993.2
27607.9
27250.9
26920.7
26643.2
26403.7
26233.8
26123
26095.3
26136
26270.6
26494.6
26804.3
27234.3
27674.4
28297.8
28954.7
29691.7
30508.2
31345.5
32248
33158.3
34056.1
34953.8
35786
36550.1
37231.6
37787.1
38209
38479.8
38573.2
38478.7
38155.6
37678.9
37015
36138.2
35089.5
33856.5
32470.4
30966.2
29361.5
27700.5
26010.4
24323.3
22683.8
21106.7
19628.2
18257.2
16999.3
15878.4
14887.5
14016.5
13284.3
12674.6
12166.6
11769.5
11476.9
11264.8
11118.7
11064.8
11085.3
11150.3
11269.3
11438.5
11653.3
11909
12201.8
12529.4
12890
13281.6
13706.8
14162.7
14650.7
15170.5
15726.4
16318.6
16951.2
17626.5
18347.6
19120.6
19951.3
20844.4
21804.5
22837.6
23945.1
25125.6
26386.2
27742.3
29162.9
30642.8
32165.9
33709.8
35255.5
36750.2
38191.7
39506.9
40679
41663.4
42413.9
42887
43036.4
42759.1
42174.4
23447.1
24303.7
25097.1
25830.1
26494.3
27094.8
27631.4
28101.8
28514.7
28860.7
29147.9
29379.1
29560.7
29686.5
29750.8