/*--------------------------------*- C++ -*----------------------------------*\
| =========                 |                                                 |
| \\      /  F ield         | OpenFOAM: The Open Source CFD Toolbox           |
|  \\    /   O peration     | Version:  v1912                                 |
|   \\  /    A nd           | Website:  www.openfoam.com                      |
|    \\/     M anipulation  |                                                 |
\*---------------------------------------------------------------------------*/
FoamFile
{
    version     2.0;
    format      ascii;
    class       surfaceScalarField;
    location    "100";
    object      alphaPhi0.water;
}
// * * * * * * * * * * * * * * * * * * * * * * * * * * * * * * * * * * * * * //

dimensions      [0 3 -1 0 0 0 0];
oriented        oriented;


internalField   nonuniform List<scalar> 
28285
(
-0.00271401
-3.05564e-05
-0.00269561
-2.16735e-05
-0.00268623
-5.7507e-06
-0.00269331
3.44843e-06
-0.00270214
1.24673e-05
-0.00271879
1.3223e-05
-0.00271868
3.09973e-06
-0.00270933
-1.25877e-05
-0.00267492
-3.11679e-05
-0.00262914
-4.90221e-05
-0.00257501
-5.10281e-05
-0.00253337
-4.42299e-05
-0.00249783
-3.41804e-05
-0.00247406
-2.5138e-05
-0.00219365
-2.34642e-05
-0.00178514
-2.66477e-05
-0.00125176
-3.8419e-05
-0.000720264
-2.72604e-05
-0.000365609
-1.0696e-05
-0.000239837
-3.85954e-06
-0.000216858
7.38252e-07
-0.000220115
3.15674e-06
-0.000222059
2.04389e-06
-0.000225552
2.92779e-07
-0.000357097
-2.66313e-06
-0.00054545
-2.46056e-05
-0.000684588
-5.68772e-05
-0.000753935
-5.42035e-05
-0.000814748
-2.74707e-05
-0.000904933
-2.89629e-05
-0.0010052
-7.81357e-06
-0.00105697
6.10736e-07
-0.000822873
5.22436e-06
-0.000420034
8.02215e-05
-0.00035312
6.17588e-05
-0.000362034
2.91208e-05
-0.000397672
1.54317e-05
-0.000395181
1.67382e-05
-0.000399091
-7.53497e-06
-0.00038685
-7.96334e-07
-0.000659496
6.04723e-07
-0.000975895
2.93725e-06
-0.0010588
-4.92624e-05
-0.00115775
-2.70171e-05
-0.00130966
-3.11546e-05
-0.00135959
-2.98385e-05
-0.00136071
3.50604e-05
-0.00134664
2.97687e-05
-0.00115508
-3.84122e-05
-0.00094397
-8.80047e-05
-0.000826255
-1.31074e-05
-0.00072029
-2.36754e-05
-0.000623846
-1.96239e-05
-0.000565546
1.39726e-05
-0.000459783
-3.51894e-05
-0.000339928
-8.87926e-05
-0.00027894
-7.03084e-05
-0.000267332
-1.02071e-06
-0.000300894
4.42096e-05
-0.000288255
1.48435e-05
-0.000222602
-4.56562e-05
-0.000158279
-5.15789e-05
-9.38317e-05
-4.03562e-05
-5.33609e-05
-1.63738e-05
-5.23104e-05
2.49755e-06
-4.68458e-05
-1.27758e-06
-2.9334e-05
-1.72955e-05
-1.50034e-05
-1.59068e-05
-6.50075e-06
-1.13207e-05
5.56686e-06
-1.76676e-05
2.10165e-05
-2.13205e-05
3.57478e-05
-1.99459e-05
4.71797e-05
-1.66883e-05
4.8032e-05
-6.99129e-06
4.60687e-05
-4.38943e-06
4.71633e-05
-6.85307e-06
5.18731e-05
-8.3624e-06
5.75942e-05
-6.76037e-06
6.23663e-05
-4.68024e-06
6.93004e-05
-4.54687e-06
8.18696e-05
-5.30456e-06
9.53044e-05
-6.86471e-06
9.48555e-05
-1.03464e-05
7.25775e-05
-1.22649e-05
2.10289e-05
-1.40751e-05
3.28111e-06
-1.93867e-06
3.53359e-06
-2.09497e-07
3.58754e-06
1.46636e-08
3.67852e-06
-9.26717e-08
3.74312e-06
-4.03533e-07
2.83626e-06
-5.08615e-07
1.08499e-06
-1.27887e-07
4.70541e-08
4.34232e-08
3.13294e-08
1.57247e-08
7.36046e-08
3.25812e-09
1.24232e-07
7.16984e-09
1.34029e-07
3.32626e-09
1.23913e-07
-2.79708e-10
1.34736e-07
-4.02843e-10
1.24331e-07
4.06401e-10
1.28007e-07
2.51477e-09
1.20093e-07
1.72334e-09
5.45751e-08
1.58062e-10
2.52015e-09
1.28916e-09
3.97951e-23
7.37521e-12
0
1.01159e-25
-2.71041e-47
-2.05623e-48
-1.93495e-32
-1.29249e-33
-1.69977e-32
-9.55505e-34
-1.05922e-32
-5.44682e-34
-5.3603e-33
-2.62918e-34
-2.31301e-33
-1.10226e-34
-8.74391e-34
-4.08195e-35
-2.95034e-34
-1.35517e-35
-9.01579e-35
-4.08377e-36
-2.52463e-35
-1.13102e-36
-6.5375e-36
-2.90663e-37
-1.57561e-36
-6.98125e-38
-3.54839e-37
-1.57139e-38
-7.48075e-38
-3.31858e-39
-1.47676e-38
-6.57458e-40
-2.72795e-39
-1.21995e-40
-4.7109e-40
-2.11708e-41
-7.59818e-41
-3.42774e-42
-1.14382e-41
-5.18067e-43
-1.60656e-42
-7.30236e-44
-2.10516e-43
-9.60557e-45
-2.57401e-44
-1.17863e-45
-2.93791e-45
-1.34946e-46
-3.13191e-46
-1.44302e-47
-3.12018e-47
-1.4425e-48
-2.90685e-48
-1.34987e-49
-2.53401e-49
-1.18246e-50
-2.06825e-50
-9.70411e-52
-1.5815e-51
-7.46139e-53
-1.13357e-52
-5.37987e-54
-7.62032e-54
-3.63754e-55
-4.80666e-55
-2.30879e-56
-2.84612e-56
-1.37505e-57
-1.58251e-57
-7.69475e-59
-8.26548e-59
-4.04231e-60
-4.05602e-60
-1.99628e-61
-1.87036e-61
-9.25886e-63
-8.10515e-63
-4.03773e-64
-3.30086e-64
-1.6542e-65
-1.2632e-65
-6.3709e-67
-4.5419e-67
-2.30675e-68
-1.53415e-68
-7.82539e-70
-4.86337e-70
-2.53517e-71
-7.31976e-73
-1.4492e-71
-0.0025744
-9.35895e-05
-0.00253369
-6.21922e-05
-0.00251743
-2.33741e-05
-0.00255713
-2.39186e-06
-0.00262038
1.42035e-05
-0.00266211
1.86056e-05
-0.00266936
3.55616e-06
-0.00265583
-2.58508e-05
-0.00261718
-6.59367e-05
-0.00254487
-0.00010412
-0.00247009
-0.000106829
-0.00242714
-7.65413e-05
-0.00241285
-4.81872e-05
-0.00241654
-2.62787e-05
-0.0024317
-1.12905e-05
-0.00245842
3.11405e-06
-0.00236986
4.1665e-06
-0.00217576
8.32493e-06
-0.00201901
1.02725e-05
-0.00194198
7.55113e-06
-0.00190355
-4.26496e-06
-0.00186448
-2.70515e-05
-0.00181657
-5.12887e-05
-0.00180206
-5.37153e-05
-0.00181428
-5.73214e-05
-0.00177119
-9.14385e-05
-0.00173506
-8.8933e-05
-0.00167413
-4.97038e-05
-0.00125174
-4.19734e-06
-0.00124194
5.35842e-06
-0.00121082
-1.78742e-05
-0.00117921
-1.52444e-05
-0.00116865
-5.44157e-06
-0.000869301
4.2046e-05
-0.000669329
0.000142436
-0.000750613
6.09512e-05
-0.000921195
3.43226e-05
-0.000930314
4.81356e-05
-0.000781881
-2.17484e-05
-0.000608084
-9.1059e-06
-0.000540723
9.31437e-06
-0.000348468
-0.000137024
-0.000206702
-0.000114695
-0.00021774
-4.0359e-05
-0.000255557
-1.81991e-05
-0.000494662
-1.90093e-05
-0.00060184
-2.34459e-05
-0.000530852
-4.7475e-05
-0.000427454
-0.000107785
-0.00031179
-0.000113528
-0.000196744
-5.93135e-05
-7.00404e-05
-7.77003e-05
-3.40252e-05
-2.61571e-05
-6.85527e-05
2.50549e-05
-0.00011068
-1.70823e-06
-0.000101038
-9.89196e-05
-1.70306e-06
-0.000207668
7.85933e-05
-2.2672e-05
0.00015363
-3.2599e-06
0.000157087
-2.00966e-07
0.000120218
-1.10687e-05
4.58504e-05
-1.32268e-06
1.59895e-05
-1.91409e-07
4.99829e-05
-2.49681e-05
0.000124363
-2.05851e-05
0.000160942
-1.80921e-05
0.000162335
-1.26582e-05
0.000157519
-2.56056e-06
0.000144875
2.86546e-06
0.000115582
3.31812e-06
9.63596e-05
-8.12283e-06
8.8932e-05
-1.36971e-05
9.20873e-05
-1.32717e-05
0.000102151
-9.27512e-06
0.000103719
-6.58113e-06
8.90522e-05
-5.16811e-06
6.75052e-05
-4.45112e-06
5.35313e-05
-3.79685e-06
5.0358e-05
-4.50651e-06
4.59028e-05
-4.32292e-06
4.18201e-05
-1.71849e-06
4.6053e-05
-1.01919e-08
5.02356e-05
-8.03979e-08
3.96375e-05
7.41975e-07
2.88297e-05
-2.02629e-06
1.59042e-05
-1.45849e-06
4.7604e-06
-7.10105e-07
6.3229e-06
-4.32749e-07
7.40368e-06
-4.43494e-07
8.25057e-06
-5.2171e-07
7.67352e-06
-8.34076e-07
2.11503e-06
-5.2697e-07
4.30399e-08
1.10888e-07
3.02126e-08
2.8552e-08
5.16938e-08
4.39349e-08
7.14619e-08
3.3548e-09
6.94688e-08
1.8969e-10
6.02797e-08
-4.32487e-10
5.55265e-08
-5.57483e-10
5.69396e-08
4.48682e-11
7.72002e-08
6.89214e-10
9.61745e-08
2.44873e-09
7.97921e-08
2.31108e-09
2.02784e-08
6.51473e-09
2.40792e-21
1.22022e-09
0
1.54973e-22
3.12464e-41
6.13084e-42
-2.08992e-32
-2.72003e-33
-2.464e-32
-2.75284e-33
-1.73645e-32
-1.78476e-33
-9.39855e-33
-9.22617e-34
-4.22238e-33
-4.02822e-34
-1.6289e-33
-1.52244e-34
-5.50918e-34
-5.06616e-35
-1.65959e-34
-1.50509e-35
-4.51203e-35
-4.04683e-36
-1.11974e-35
-9.96788e-37
-2.56079e-36
-2.27162e-37
-5.43849e-37
-4.82199e-38
-1.07865e-37
-9.58039e-39
-2.00516e-38
-1.78725e-39
-3.49991e-39
-3.13382e-40
-5.73817e-40
-5.16262e-41
-8.83288e-41
-7.97847e-42
-1.27549e-41
-1.15655e-42
-1.72633e-42
-1.57108e-43
-2.1885e-43
-1.99923e-44
-2.59772e-44
-2.38149e-45
-2.88691e-45
-2.65492e-46
-3.0046e-46
-2.7716e-47
-2.92982e-47
-2.71197e-48
-2.67825e-48
-2.49002e-49
-2.2967e-49
-2.14581e-50
-1.84888e-50
-1.73679e-51
-1.39819e-51
-1.32077e-52
-9.93942e-53
-9.44425e-54
-6.64575e-54
-6.35183e-55
-4.18129e-55
-4.0209e-56
-2.47635e-56
-2.39558e-57
-1.38078e-57
-1.34411e-58
-7.249e-59
-7.09869e-60
-3.58284e-60
-3.53033e-61
-1.66686e-61
-1.65219e-62
-7.29693e-63
-7.27778e-64
-3.00473e-64
-3.01493e-65
-1.16326e-65
-1.17466e-66
-4.23202e-67
-4.30326e-68
-1.44618e-68
-1.47713e-69
-4.6363e-70
-4.83812e-71
-1.41234e-72
-1.39628e-71
-0.00219504
-0.000121644
-0.00217149
-7.2368e-05
-0.00216574
-1.58024e-05
-0.00216972
1.48583e-05
-0.00217486
3.25705e-05
-0.00228968
1.96556e-05
-0.0024037
1.7934e-06
-0.00241791
-3.82529e-05
-0.00239411
-8.80362e-05
-0.0022702
-0.000131682
-0.00211502
-0.000134943
-0.00200082
-0.000105505
-0.00195241
-6.74915e-05
-0.00192953
-4.77388e-05
-0.00198554
-2.91397e-05
-0.00212015
-3.03187e-05
-0.00222695
-4.95113e-05
-0.00225096
-4.01092e-05
-0.00222946
-1.18331e-05
-0.00222562
3.12438e-06
-0.00223512
4.659e-06
-0.00225455
-8.17806e-06
-0.0022378
-3.18557e-05
-0.00222095
-3.52651e-05
-0.00206009
-4.50953e-05
-0.00177615
-9.38128e-05
-0.00137547
-0.000193529
-0.00101787
-6.17432e-05
-0.000682326
-3.20218e-05
-0.000430482
-1.14021e-05
-0.000374847
-2.08773e-05
-0.000355867
-4.01088e-05
-0.000364663
3.45236e-06
-0.00106899
0.000145702
-0.00135011
0.000333268
-0.00143043
0.0002019
-0.0015031
0.000160236
-0.00142303
3.5746e-05
-0.00140011
-4.34155e-05
-0.00137416
-2.74885e-05
-0.00132695
-2.30675e-05
-0.00132706
-0.000121611
-0.000678252
-0.000317104
-0.000310435
-0.000135031
-0.000197349
-2.78033e-05
-0.000210383
-2.91157e-05
-0.000191495
-1.91936e-05
-0.000185824
-8.41433e-05
-0.000111879
-4.89162e-05
-6.68074e-05
-3.18819e-05
-7.00807e-05
-2.48978e-05
-9.63249e-06
-9.28379e-05
-2.6601e-05
-9.35219e-06
-5.51321e-05
5.36441e-05
-0.000106924
2.77197e-05
-9.09319e-05
-1.05674e-05
-5.60045e-06
-0.000201427
2.1125e-05
-4.96629e-05
9.73349e-05
-5.67991e-05
6.17719e-05
1.37433e-05
-4.49384e-06
2.57622e-05
-1.37722e-05
2.44162e-05
-8.06235e-06
-9.00853e-06
1.32796e-05
-4.32027e-05
3.06581e-05
-4.17023e-05
6.52502e-05
-1.87926e-05
8.39792e-05
-5.64017e-06
7.75224e-05
1.726e-06
5.55948e-05
9.01278e-06
3.85891e-05
3.16191e-06
3.00001e-05
-6.63921e-06
2.25752e-05
-8.3783e-06
2.08547e-05
-9.9933e-06
2.27819e-05
-8.44825e-06
2.20995e-05
-4.59663e-06
1.8148e-05
-3.52447e-06
1.21682e-05
-4.4706e-06
1.03031e-05
-6.49777e-07
9.47422e-06
-1.07343e-06
1.4496e-05
4.70739e-07
1.28839e-05
3.8677e-07
1.19547e-05
-7.01409e-07
1.34664e-05
-9.72681e-08
1.42916e-05
-2.38806e-10
8.36204e-06
-7.46587e-07
3.79848e-06
-2.53942e-07
2.62694e-06
-1.05094e-07
2.25993e-06
-8.40785e-08
1.80233e-06
-2.01762e-07
1.78164e-06
-4.30233e-07
2.08018e-06
-5.38838e-07
2.56296e-06
-3.57744e-07
8.86568e-07
2.44424e-07
4.34059e-08
2.72126e-07
4.20058e-08
4.67949e-08
4.37376e-08
5.76252e-10
4.1788e-08
1.76778e-13
3.1459e-08
3.08121e-13
2.1511e-08
-1.77281e-10
2.11912e-08
2.52729e-11
2.72165e-08
5.47868e-11
4.96046e-08
6.9524e-10
5.8281e-08
1.70887e-09
3.52575e-08
1.56799e-09
2.27954e-09
4.78442e-09
0
7.07665e-11
3.8319e-41
0
-5.41411e-32
-1.03348e-32
-7.6506e-32
-1.27382e-32
-5.64054e-32
-8.68505e-33
-2.88735e-32
-4.25194e-33
-1.15125e-32
-1.64813e-33
-3.81076e-33
-5.34502e-34
-1.09394e-33
-1.50964e-34
-2.81944e-34
-3.83724e-35
-6.71329e-35
-9.03567e-36
-1.50867e-35
-2.01546e-36
-3.23876e-36
-4.31146e-37
-6.65978e-37
-8.86128e-38
-1.30659e-37
-1.74152e-38
-2.42975e-38
-3.24995e-39
-4.25596e-39
-5.71876e-40
-6.98899e-40
-9.43579e-41
-1.07288e-40
-1.45428e-41
-1.53723e-41
-2.09165e-42
-2.05467e-42
-2.806e-43
-2.56199e-43
-3.51197e-44
-2.98157e-44
-4.10168e-45
-3.24078e-45
-4.47224e-46
-3.29287e-46
-4.55795e-47
-3.13062e-47
-4.34843e-48
-2.78767e-48
-3.88904e-49
-2.32725e-49
-3.26275e-50
-1.82334e-50
-2.57011e-51
-1.34198e-51
-1.90221e-52
-9.28732e-53
-1.32415e-53
-6.04903e-54
-8.67543e-55
-3.71079e-55
-5.35442e-56
-2.14547e-56
-3.11438e-57
-1.16965e-57
-1.70841e-58
-6.01458e-59
-8.83802e-60
-2.91746e-60
-4.31338e-61
-1.33485e-61
-1.98535e-62
-5.75895e-63
-8.61844e-64
-2.34191e-64
-3.52595e-65
-8.97105e-66
-1.35929e-66
-3.23507e-67
-4.93582e-68
-1.09749e-68
-1.68207e-69
-3.49772e-70
-5.47645e-71
-1.59108e-72
-1.04831e-71
-0.00280624
-0.00020285
-0.00275812
-0.000124062
-0.00261145
-3.50864e-05
-0.00241705
1.9535e-05
-0.00228164
4.75981e-05
-0.00227541
4.1063e-05
-0.00228829
3.66199e-06
-0.00229148
-4.60094e-05
-0.00226527
-0.000106694
-0.00206583
-0.00016556
-0.00184696
-0.000179196
-0.00176305
-0.000136517
-0.00176421
-9.18355e-05
-0.00172718
-4.44875e-05
-0.00175358
-1.39349e-05
-0.0017601
-3.3717e-06
-0.00182293
-1.26822e-05
-0.00216929
-6.3354e-06
-0.00227307
9.24028e-06
-0.0022865
1.0901e-05
-0.00213958
-2.27703e-08
-0.00185201
-3.60333e-05
-0.00149618
-7.24167e-05
-0.00112008
-8.26475e-05
-0.000971965
-3.07142e-05
-0.000957032
-0.000158794
-0.00101078
-0.000191296
-0.00133052
-0.000224126
-0.00164438
-9.07408e-05
-0.00170476
7.85614e-06
-0.00158501
1.0803e-05
-0.00110708
-7.32484e-06
-0.00110302
5.32294e-05
-0.00137544
0.000194476
-0.00137789
0.000113772
-0.00123467
0.00011924
-0.00064389
-7.83557e-06
-0.000249532
-8.74875e-05
-0.000185574
-6.28392e-05
-0.000192011
-1.46842e-07
-0.000145118
-5.10369e-07
-0.000229241
-1.27526e-05
-0.000910157
-9.74886e-05
-0.000903439
-0.000177357
-0.00095013
-1.68192e-05
-0.000698847
5.81809e-06
-0.000395426
1.27763e-05
-0.00019585
-3.50231e-07
-1.9201e-05
-6.50209e-05
-1.12002e-05
-1.0808e-05
-3.39466e-05
-7.56478e-06
-0.000105059
-7.22764e-05
-2.42567e-05
-6.74272e-07
-5.61789e-05
8.53973e-05
-0.000119474
9.10725e-05
-0.000177379
-4.72026e-05
-5.56382e-06
-0.000370594
1.48457e-05
-9.06636e-05
6.55551e-05
-1.20589e-05
4.05536e-05
5.52098e-05
2.04979e-05
6.22915e-05
6.9735e-08
6.12978e-05
1.10309e-06
-3.40211e-05
3.12191e-05
-0.000215135
2.15997e-05
-3.55714e-05
4.44644e-05
-4.43558e-07
7.44691e-05
-2.13591e-07
4.16329e-05
2.32908e-05
2.06278e-05
8.86658e-08
1.47669e-05
7.31055e-06
8.71337e-06
-6.80959e-07
6.9617e-06
-6.63466e-06
1.06337e-05
-1.26754e-05
1.33638e-05
-1.01846e-05
1.42309e-05
-4.46621e-06
1.40324e-05
-3.64731e-06
1.47227e-05
-1.01503e-05
6.56136e-06
-9.81804e-06
6.55536e-06
-9.63708e-07
7.10085e-06
3.57074e-08
9.32505e-06
9.91759e-08
9.96229e-06
3.56695e-08
9.6076e-06
1.16336e-07
6.80395e-06
2.03054e-07
2.29142e-06
2.50532e-08
8.19382e-07
-1.30824e-10
7.81554e-07
-1.3603e-08
7.20001e-07
-7.6021e-08
7.79824e-07
-2.07922e-07
8.56721e-07
-5.60588e-07
8.98712e-07
-5.27204e-07
1.36258e-06
-1.06398e-08
1.48726e-06
3.36471e-07
3.32354e-07
2.79175e-07
2.26768e-08
2.58198e-08
3.14894e-08
3.08973e-12
3.25168e-08
2.45216e-10
2.08601e-08
2.08411e-11
9.17109e-09
5.84057e-15
7.61938e-09
5.01099e-12
8.91673e-09
6.51877e-12
2.11448e-08
1.10692e-10
3.83814e-08
1.04965e-09
3.57095e-08
1.20272e-09
9.13024e-09
8.43717e-09
8.03813e-22
1.14702e-09
1.03348e-32
4.40221e-23
1.74908e-43
4.3849e-44
-2.88673e-32
-6.37694e-33
-2.75066e-32
-5.64013e-33
-1.53529e-32
-3.01393e-33
-6.46281e-33
-1.23369e-33
-2.25371e-33
-4.21527e-34
-6.84815e-34
-1.26021e-34
-1.87442e-34
-3.40188e-35
-4.72904e-35
-8.48762e-36
-1.11636e-35
-1.98874e-36
-2.48591e-36
-4.41289e-37
-5.23591e-37
-9.29019e-38
-1.04211e-37
-1.85226e-38
-1.95457e-38
-3.48625e-39
-3.44344e-39
-6.17013e-40
-5.68196e-40
-1.02293e-40
-8.76303e-41
-1.58397e-41
-1.26149e-41
-2.28884e-42
-1.69398e-42
-3.0849e-43
-2.12161e-43
-3.8781e-44
-2.47895e-44
-4.5474e-45
-2.7036e-45
-4.97504e-46
-2.75428e-46
-5.08366e-47
-2.62312e-47
-4.85845e-48
-2.33751e-48
-4.34837e-49
-1.95078e-49
-3.64691e-50
-1.52611e-50
-2.86841e-51
-1.12021e-51
-2.11733e-52
-7.72258e-53
-1.46818e-53
-5.00462e-54
-9.57089e-55
-3.05137e-55
-5.87094e-56
-1.75176e-56
-3.39078e-57
-9.47498e-58
-1.84535e-58
-4.83091e-59
-9.46573e-60
-2.32243e-60
-4.57844e-61
-1.05288e-61
-2.08814e-62
-4.50074e-63
-8.98118e-64
-1.81362e-64
-3.64102e-65
-6.88585e-66
-1.39121e-66
-2.4619e-67
-5.00853e-68
-8.28361e-69
-1.69293e-69
-2.6194e-70
-5.46853e-71
-1.57698e-72
-7.79226e-72
-0.00270862
-0.00023182
-0.00269859
-0.00013431
-0.00270081
-3.29453e-05
-0.00270286
3.45188e-05
-0.00264414
7.7152e-05
-0.0025631
6.51437e-05
-0.00251436
6.76992e-06
-0.00250157
-7.43977e-05
-0.00249852
-0.000172671
-0.00250467
-0.000258242
-0.00248364
-0.000267716
-0.00244557
-0.0001997
-0.002423
-0.000124873
-0.00239552
-6.24014e-05
-0.00231585
-1.92498e-05
-0.00218385
-1.76049e-05
-0.00199462
-5.24726e-05
-0.00177601
-4.58694e-05
-0.00158976
-1.14648e-05
-0.00142644
4.1287e-06
-0.00127449
-1.92227e-06
-0.00122768
-3.20441e-05
-0.00122111
-7.49871e-05
-0.00120661
-0.000101148
-0.00139309
-0.00016697
-0.00173115
-0.000331298
-0.00193066
-0.000452137
-0.00192215
-0.000365827
-0.00186784
-0.000169855
-0.00181574
-4.87706e-05
-0.00177503
-3.44404e-05
-0.00169739
-2.82634e-05
-0.00130034
8.54088e-05
-0.000898549
0.000116765
-0.000970642
6.23514e-05
-0.00084447
5.20043e-06
-0.000412319
-0.000329231
-0.000120029
-0.000230997
-5.11915e-05
-6.08735e-05
-4.25513e-05
1.90845e-05
-1.17012e-05
-1.11888e-06
-2.48219e-05
-8.26952e-08
-0.000271191
-2.75642e-05
-0.000888997
-0.000160542
-0.00102998
-4.47025e-05
-0.000963079
1.8066e-05
-0.000659144
2.83538e-05
-0.00011885
0.00010294
-1.06148e-05
-4.84899e-05
-6.68012e-06
-1.53775e-05
-1.32274e-05
-3.82799e-07
-7.71228e-05
-4.65541e-05
-3.1737e-05
-1.09568e-05
-8.49538e-05
0.000330583
-0.000151814
0.000290518
-0.000165584
-0.000363171
-2.69989e-05
-0.000507334
3.65242e-05
-0.00065806
3.73348e-05
-0.000108106
2.57495e-05
0.00010143
2.3816e-06
0.000156699
-3.52935e-05
0.000177853
-3.79123e-06
-6.53939e-05
5.52681e-05
-0.000274324
3.46523e-05
-0.000193083
2.72344e-05
-5.17568e-06
6.97951e-05
-1.64683e-05
4.59671e-05
5.06497e-05
1.29495e-05
4.29308e-05
7.51035e-06
1.09524e-05
2.04878e-05
-3.64148e-06
2.31306e-05
-1.088e-05
2.72255e-05
-1.20906e-05
3.60232e-05
-9.42529e-06
5.30225e-05
-4.12294e-06
5.95666e-05
-1.68666e-06
6.02096e-05
-1.84498e-05
3.042e-05
-3.40199e-05
9.64778e-07
-5.81742e-06
1.04923e-06
-4.22942e-09
1.19447e-06
4.03885e-10
1.22188e-06
4.69206e-08
1.18951e-06
6.77961e-08
1.17106e-06
7.47733e-08
1.20777e-06
2.15012e-11
1.03856e-06
1.39262e-07
1.25193e-06
-1.08053e-07
2.33718e-06
-4.88348e-07
3.14873e-06
-6.81966e-07
3.55675e-06
-3.69707e-06
2.77502e-06
-2.75021e-06
1.56507e-06
-2.00395e-07
5.33418e-07
5.23323e-07
1.03666e-07
7.89832e-08
3.00795e-08
1.56783e-08
2.85687e-08
3.74531e-09
2.74055e-08
1.03904e-09
1.63215e-08
9.2266e-11
5.04385e-09
6.5609e-13
2.81978e-09
7.11864e-13
2.82909e-09
8.01454e-14
8.08758e-09
3.95619e-13
2.20077e-08
4.62326e-10
2.56767e-08
9.14333e-10
1.26013e-08
8.83183e-10
-4.38406e-23
2.72278e-09
-6.70912e-28
0
-2.71526e-30
-1.25522e-30
-2.74e-31
-7.53769e-32
-4.10284e-32
-1.05047e-32
-8.75561e-33
-2.14792e-33
-3.13655e-33
-7.48368e-34
-1.17794e-33
-2.75392e-34
-3.98352e-34
-9.16306e-35
-1.21048e-34
-2.7461e-35
-3.34692e-35
-7.50868e-36
-8.49885e-36
-1.89254e-36
-1.99382e-36
-4.42419e-37
-4.33837e-37
-9.62219e-38
-8.77897e-38
-1.9505e-38
-1.65524e-38
-3.69047e-39
-2.91169e-39
-6.52177e-40
-4.78291e-40
-1.07635e-40
-7.34108e-41
-1.6587e-41
-1.05317e-41
-2.38858e-42
-1.41252e-42
-3.21543e-43
-1.77123e-43
-4.04706e-44
-2.07673e-44
-4.76198e-45
-2.27695e-45
-5.23743e-46
-2.335e-46
-5.38721e-47
-2.24025e-47
-5.18665e-48
-2.01158e-48
-4.67755e-49
-1.69122e-49
-3.95211e-50
-1.33204e-50
-3.12957e-51
-9.83469e-52
-2.32359e-52
-6.81111e-53
-1.61862e-53
-4.42796e-54
-1.05852e-54
-2.70411e-55
-6.50347e-56
-1.55233e-56
-3.756e-57
-8.38195e-58
-2.04058e-58
-4.25937e-59
-1.04324e-59
-2.03771e-60
-5.0214e-61
-9.1804e-62
-2.27591e-62
-3.89512e-63
-9.71583e-64
-1.55634e-64
-3.90566e-65
-5.85458e-66
-1.47858e-66
-2.07271e-67
-5.27095e-68
-6.90324e-69
-1.76358e-69
-2.16027e-70
-5.63745e-71
-1.60875e-72
-6.35948e-72
-0.00278854
-0.000293622
-0.00275455
-0.0001683
-0.00274251
-4.49894e-05
-0.00274504
3.7053e-05
-0.0027596
9.1706e-05
-0.00276335
7.91216e-05
-0.00275734
1.08579e-05
-0.00274379
-9.00373e-05
-0.00270632
-0.000217371
-0.00264644
-0.000328812
-0.0025822
-0.000340316
-0.00253697
-0.00025032
-0.00251604
-0.000148075
-0.00251539
-6.4041e-05
-0.00253281
-1.70589e-06
-0.00255993
1.08069e-05
-0.00256309
-2.92334e-05
-0.00252203
-3.21885e-05
-0.00243956
-2.16488e-06
-0.00236762
1.10096e-05
-0.0023497
-1.43143e-05
-0.00231867
-8.68509e-05
-0.00228411
-0.00015728
-0.00229158
-0.000184887
-0.00233167
-0.000259279
-0.0022921
-0.00044423
-0.00218117
-0.000568546
-0.00210158
-0.000439933
-0.0020643
-0.000198127
-0.00199432
-2.78678e-06
-0.0018965
3.0289e-05
-0.00163551
1.31898e-05
-0.00110018
2.83632e-05
-0.000542503
1.61553e-05
-0.000370294
-2.05301e-05
-0.000132222
-0.000292888
0.0001324
-0.000360768
0.000100159
-9.90818e-05
4.34096e-05
-4.86544e-07
8.52162e-06
3.52115e-05
-1.01725e-05
0.000138985
-1.67801e-05
6.9756e-06
-1.22954e-05
-2.5585e-05
-0.000414845
-3.47146e-05
-0.000915234
-5.39756e-05
-0.000954948
2.26302e-05
-0.00102619
3.48063e-05
-0.000354913
0.00010043
-1.0873e-05
-6.82709e-05
-6.83716e-06
-1.87786e-05
-6.40508e-06
-1.42003e-05
-5.34693e-05
6.35739e-08
-0.000101539
-3.94971e-05
-0.000234444
0.000724065
-0.000108522
0.000110598
-7.36636e-05
-0.000244593
-4.44155e-05
-0.000355542
9.23915e-05
-0.000852746
4.12883e-05
-0.000185052
0.0001173
0.000348805
3.63431e-05
0.000674586
-2.87087e-05
0.000360265
-4.45463e-06
-8.97775e-05
5.65498e-05
-0.000191481
9.66482e-05
-0.000145693
4.43128e-05
-7.7543e-05
8.89559e-05
-2.74321e-05
9.59927e-05
9.03274e-05
2.87283e-05
0.000174715
1.77464e-05
9.13535e-05
2.59556e-05
-4.9065e-06
2.8321e-05
-2.30235e-05
3.80493e-05
-1.62667e-05
5.39758e-05
-1.41696e-05
8.26042e-05
-5.88502e-06
8.84322e-05
-3.75453e-06
9.03939e-05
-1.67714e-05
8.93337e-05
-3.65998e-05
1.97717e-05
-1.47159e-05
8.35893e-07
-8.37463e-08
8.29023e-07
-1.06778e-09
9.44434e-07
-1.85207e-08
9.47785e-07
4.94139e-08
9.38179e-07
1.54616e-07
8.50617e-07
3.83149e-07
1.99568e-06
3.33156e-07
4.96186e-06
-4.2697e-07
7.10008e-06
-8.39365e-07
7.47205e-06
-1.10389e-06
9.12735e-06
-4.27686e-06
7.91567e-06
-9.98966e-06
2.80392e-06
-2.30988e-06
1.15511e-07
9.37047e-07
2.0204e-08
8.52993e-08
1.31854e-08
2.89564e-08
2.09286e-08
2.60119e-09
1.95878e-08
1.12293e-09
1.48763e-08
2.85612e-10
4.05488e-09
-2.37435e-12
1.54515e-09
2.40541e-10
2.08966e-09
3.30627e-11
4.22846e-09
1.56342e-12
1.29759e-08
1.97494e-10
1.82389e-08
7.756e-10
1.49977e-08
6.06206e-10
1.2813e-09
4.4732e-09
4.51072e-24
8.39656e-11
-4.76637e-30
4.51345e-24
-3.5767e-32
-1.17724e-32
-7.21247e-33
-2.21392e-33
-3.36532e-33
-9.90395e-34
-1.64811e-33
-4.71817e-34
-7.08616e-34
-1.98785e-34
-2.65209e-34
-7.32e-35
-8.78514e-35
-2.39144e-35
-2.61034e-35
-7.02697e-36
-7.02305e-36
-1.87659e-36
-1.72272e-36
-4.58696e-37
-3.87333e-37
-1.03086e-37
-8.01671e-38
-2.13731e-38
-1.53282e-38
-4.10094e-39
-2.71541e-39
-7.29842e-40
-4.46759e-40
-1.20644e-40
-6.84002e-41
-1.85455e-41
-9.76033e-42
-2.65628e-42
-1.29964e-42
-3.55011e-43
-1.61633e-43
-4.43165e-44
-1.87893e-44
-5.16996e-45
-2.04277e-45
-5.63837e-46
-2.07825e-46
-5.75367e-47
-1.97953e-47
-5.49952e-48
-1.7661e-48
-4.928e-49
-1.47664e-49
-4.14074e-50
-1.1576e-50
-3.26361e-51
-8.51357e-52
-2.41372e-52
-5.87733e-53
-1.67603e-53
-3.81085e-54
-1.09319e-54
-2.32209e-55
-6.70156e-56
-1.33042e-56
-3.86286e-57
-7.17029e-58
-2.0947e-58
-3.6366e-59
-1.06885e-59
-1.73603e-60
-5.13354e-61
-7.80174e-62
-2.32095e-62
-3.30044e-63
-9.87895e-64
-1.31419e-64
-3.95755e-65
-4.92389e-66
-1.49224e-66
-1.7353e-67
-5.29546e-68
-5.75018e-69
-1.76285e-69
-1.78948e-70
-5.60374e-71
-1.58961e-72
-5.23664e-72
-0.00269344
-0.000330648
-0.00268428
-0.00018017
-0.00269305
-3.9737e-05
-0.0027122
4.99817e-05
-0.00273252
0.000106886
-0.00274299
8.83701e-05
-0.00274123
9.11031e-06
-0.00272391
-0.000107416
-0.00268658
-0.000254837
-0.00263212
-0.000383208
-0.00257429
-0.000398215
-0.00253001
-0.000294672
-0.00250563
-0.000172285
-0.00249726
-7.20766e-05
-0.00249606
-2.66874e-06
-0.00248858
3.29519e-06
-0.00246593
-5.19797e-05
-0.00243878
-5.94307e-05
-0.00242155
-1.87753e-05
-0.00241388
6.92682e-06
-0.0024107
-1.3316e-05
-0.00239739
-9.37453e-05
-0.00236035
-0.000182214
-0.00230514
-0.000230027
-0.00223998
-0.000324072
-0.00214972
-0.000500831
-0.0019823
-0.000557998
-0.00176774
-0.000391882
-0.00149581
-0.000175105
-0.00114577
-3.45269e-05
-0.00080291
5.20944e-07
-0.000583077
1.63584e-07
-0.000460266
3.6937e-08
-0.000326968
-9.92384e-05
-4.90992e-05
-0.000228227
0.000214696
-0.000261841
0.000116464
-0.000171435
0.000107135
-4.44861e-05
7.98263e-05
4.0968e-06
4.97993e-05
2.91871e-05
-5.57397e-06
0.00015284
-3.84529e-05
4.66271e-05
-1.24526e-05
-5.53666e-06
-0.000158988
-8.2631e-06
-0.000551866
-6.89778e-05
-0.00073328
1.55474e-05
-0.000579165
3.05405e-05
-1.91945e-05
3.66286e-05
-1.31009e-05
-1.99539e-05
-2.10392e-05
-2.74585e-05
-8.08521e-06
-3.03627e-05
-8.93106e-06
-1.07188e-05
-0.000118576
-5.33853e-06
-0.000112811
0.000624688
-6.03912e-05
4.15546e-05
-3.55536e-05
-0.000171815
-4.5604e-06
-0.000287418
0.000123908
-0.000974825
5.23295e-05
-0.000120452
0.000177315
0.000125017
4.67751e-05
0.000817344
-2.24188e-05
0.00053014
-5.42129e-07
-5.61362e-05
1.49393e-05
-0.000105409
6.64567e-05
-9.02405e-05
9.76742e-05
-6.29354e-05
7.35789e-05
-2.75723e-05
0.000137459
4.09942e-05
8.98088e-05
0.000244026
4.7046e-05
0.000143484
2.12473e-05
-3.71202e-05
5.35178e-06
-1.72837e-05
7.0261e-06
-1.85828e-05
8.96234e-06
-1.54607e-05
1.00951e-05
-5.44277e-06
2.1906e-05
-1.23124e-06
4.55055e-05
-1.13986e-05
5.01201e-05
-3.09408e-05
5.41777e-05
-1.07123e-05
6.99385e-06
1.74173e-06
8.34643e-07
-1.5968e-08
8.60939e-07
-7.86452e-08
9.27907e-07
6.14491e-08
8.40972e-07
2.02844e-07
1.23322e-06
6.17849e-07
3.95918e-06
7.73982e-07
1.01695e-05
-9.4595e-07
1.09431e-05
-1.61016e-06
1.14207e-05
-1.58424e-06
8.99939e-06
-1.08998e-06
8.87888e-06
-1.38449e-06
9.46684e-06
-5.92312e-07
1.21721e-06
2.53144e-06
1.20331e-08
5.3227e-07
1.0159e-08
3.70601e-08
1.16437e-08
2.12351e-09
1.1399e-08
6.8746e-10
9.86231e-09
1.81942e-10
7.60007e-09
1.27459e-10
1.97952e-09
1.53945e-10
2.0337e-09
3.09639e-12
3.09055e-09
4.07373e-12
8.41437e-09
9.50473e-11
1.44768e-08
6.08568e-10
1.26426e-08
7.60957e-10
2.79861e-09
6.02077e-09
2.00023e-22
5.0578e-10
1.17724e-32
1.39237e-23
1.6517e-43
2.78262e-43
-2.03304e-33
-7.27469e-34
-1.94306e-33
-6.66936e-34
-1.20538e-33
-4.02525e-34
-5.90154e-34
-1.93124e-34
-2.43128e-34
-7.82818e-35
-8.68405e-35
-2.75767e-35
-2.73655e-35
-8.59382e-36
-7.69702e-36
-2.3993e-36
-1.94866e-36
-6.05297e-37
-4.47007e-37
-1.38789e-37
-9.34124e-38
-2.90541e-38
-1.7866e-38
-5.57635e-39
-3.14009e-39
-9.84628e-40
-5.09027e-40
-1.60364e-40
-7.63593e-41
-2.41535e-41
-1.06316e-41
-3.37553e-42
-1.37752e-42
-4.38989e-43
-1.66477e-43
-5.32509e-44
-1.88032e-44
-6.03598e-45
-1.98811e-45
-6.40199e-46
-1.9705e-46
-6.36446e-47
-1.83273e-47
-5.94021e-48
-1.60088e-48
-5.2114e-49
-1.31409e-49
-4.29907e-50
-1.01415e-50
-3.33571e-51
-7.36137e-52
-2.4349e-52
-5.02716e-53
-1.67251e-53
-3.23084e-54
-1.08127e-54
-1.95446e-55
-6.58068e-56
-1.11312e-56
-3.77063e-57
-5.96904e-58
-2.0344e-58
-3.01404e-59
-1.03353e-59
-1.43303e-60
-4.94382e-61
-6.41494e-62
-2.22649e-62
-2.70314e-63
-9.43968e-64
-1.07198e-64
-3.76625e-65
-3.99929e-66
-1.41406e-66
-1.40313e-67
-4.99551e-68
-4.62767e-69
-1.65523e-69
-1.43319e-70
-5.23607e-71
-1.47793e-72
-4.17326e-72
-0.00272246
-0.000381869
-0.00270252
-0.000201068
-0.00270412
-3.64246e-05
-0.00271797
6.54722e-05
-0.00274478
0.000126718
-0.00277349
0.00010269
-0.00277844
1.08681e-05
-0.00276089
-0.000125303
-0.00271692
-0.000298871
-0.00264853
-0.000451687
-0.00257648
-0.00047027
-0.00252907
-0.000342134
-0.00251135
-0.000190011
-0.00252071
-6.27352e-05
-0.00254657
2.36357e-05
-0.0025664
2.35913e-05
-0.0025728
-4.51969e-05
-0.0025708
-6.08486e-05
-0.00256567
-2.19545e-05
-0.00252999
3.84193e-06
-0.00243696
-2.57914e-05
-0.00231563
-0.000116386
-0.00221845
-0.000199966
-0.00215287
-0.000234951
-0.00200696
-0.000332378
-0.00161286
-0.000522223
-0.00104532
-0.00050821
-0.000623882
-0.000258816
-0.000400282
-0.000117506
-0.000258475
-6.37251e-05
-0.000151051
-4.32115e-05
-8.48496e-05
-2.98198e-05
-5.17992e-06
-4.65999e-05
0.000136316
-0.00012276
0.000177656
-0.000146709
0.000107512
-0.000132109
7.24421e-05
-0.000117624
6.27466e-05
-3.55405e-05
5.72452e-05
1.73447e-06
3.43507e-05
2.88398e-05
-1.22952e-05
0.000241004
-7.23095e-05
0.000236242
-2.65686e-05
-4.56738e-07
-3.05587e-05
-4.45034e-08
-0.0002049
-1.35865e-05
-0.000222218
1.37699e-06
-0.000173372
2.65053e-06
-4.51242e-08
-8.29961e-08
-6.78821e-06
-4.90614e-06
-1.9219e-05
-2.33323e-05
-6.08778e-07
-2.93822e-05
-2.93325e-05
-2.94281e-05
-0.000130068
3.24435e-05
-4.1295e-05
0.000629528
-3.91802e-05
2.50735e-05
-6.6027e-05
-0.000182424
2.76454e-05
-0.00119569
9.67667e-05
-0.00107725
4.714e-05
-8.33878e-05
9.01943e-05
2.22821e-05
5.00979e-05
0.000845222
-1.79331e-05
0.000844006
-2.90212e-06
-2.81945e-05
9.24051e-06
-8.07707e-05
1.55328e-05
-2.50501e-05
6.63146e-05
-8.20831e-05
5.66339e-05
-2.09931e-05
0.000103895
1.89537e-05
9.90553e-05
0.00024122
6.2798e-05
0.000187387
1.18484e-05
-2.5142e-05
5.19139e-06
-1.65286e-05
5.87234e-06
-1.86191e-05
6.33935e-06
-1.65686e-05
6.31809e-06
-4.77771e-06
9.48082e-06
-9.0491e-07
2.14593e-05
-1.42501e-05
3.01858e-05
-2.55281e-05
3.37933e-05
-1.8868e-05
1.36919e-05
9.88811e-08
2.08315e-06
-1.34016e-08
2.16215e-06
-4.38137e-07
2.13255e-06
5.3587e-08
1.64523e-06
9.77288e-07
1.48638e-06
1.54034e-06
3.89353e-06
1.37432e-06
5.00381e-06
3.65249e-08
4.50058e-06
-1.0635e-06
1.56825e-06
-7.0347e-07
9.21577e-07
-6.86812e-07
1.09289e-06
-9.63503e-07
3.16993e-06
-7.92802e-07
3.0279e-06
2.53564e-07
3.52879e-07
1.70494e-06
4.85893e-09
4.68371e-07
5.05433e-09
1.40569e-09
5.82069e-09
3.40467e-10
5.14986e-09
8.11119e-11
3.38116e-09
7.38448e-12
2.13646e-09
9.97106e-12
2.07561e-09
8.49878e-11
2.78714e-09
9.97035e-11
6.09572e-09
1.84492e-10
1.02558e-08
5.24197e-10
1.01561e-08
8.28538e-10
4.58219e-09
4.99504e-10
1.06541e-21
1.31888e-09
0
4.27161e-22
7.26135e-43
-1.15241e-44
-1.65499e-33
-6.76289e-34
-2.02373e-33
-7.93623e-34
-1.42328e-33
-5.43098e-34
-7.44633e-34
-2.78454e-34
-3.16909e-34
-1.16603e-34
-1.14401e-34
-4.15146e-35
-3.58763e-35
-1.28749e-35
-9.9298e-36
-3.53724e-36
-2.45378e-36
-8.71032e-37
-5.4628e-37