/*--------------------------------*- C++ -*----------------------------------*\
| =========                 |                                                 |
| \\      /  F ield         | OpenFOAM: The Open Source CFD Toolbox           |
|  \\    /   O peration     | Version:  v1912                                 |
|   \\  /    A nd           | Website:  www.openfoam.com                      |
|    \\/     M anipulation  |                                                 |
\*---------------------------------------------------------------------------*/
FoamFile
{
    version     2.0;
    format      ascii;
    class       volScalarField;
    location    "100";
    object      nut;
}
// * * * * * * * * * * * * * * * * * * * * * * * * * * * * * * * * * * * * * //

dimensions      [0 2 -1 0 0 0 0];


internalField   nonuniform List<scalar> 
14268
(
0.000123863
0.000119274
0.000116053
0.000114018
0.000113602
0.000113091
0.000110829
0.000109227
0.000109355
0.000112939
0.000123875
0.000133264
0.000136384
0.000136882
0.000138322
0.000146671
0.000165878
0.000200835
0.000250673
0.000292159
0.000309202
0.000313337
0.000316783
0.000320148
0.000312785
0.00028698
0.000265315
0.000250557
0.000239926
0.000219198
0.000192554
0.000177096
0.000165258
0.000161917
0.000228604
0.000260787
0.000247618
0.000225917
0.000226957
0.000236965
0.000211011
0.000131053
9.0008e-05
0.00011861
0.000147555
0.000135349
0.000124439
8.55223e-05
7.32503e-05
8.92111e-05
9.04853e-05
7.22144e-05
8.46221e-05
4.99594e-05
9.44731e-05
0.00012274
0.000164543
9.63043e-05
4.48259e-05
4.58922e-05
5.99704e-05
8.95914e-05
0.000104138
0.000101382
7.2186e-05
3.24826e-05
4.47928e-05
7.57148e-05
6.63705e-05
6.46507e-05
8.45024e-05
6.99126e-05
8.526e-05
0.000107902
0.000115529
0.000112327
0.000103196
9.64971e-05
7.88201e-05
5.19634e-05
2.76224e-05
2.32028e-05
2.61851e-05
4.62178e-05
8.7594e-05
0.000168371
0.000232638
0.000241641
0.000241041
0.000238947
0.000240023
0.000228735
0.000183448
9.18204e-05
2.40268e-05
4.85827e-06
3.52679e-06
5.15947e-06
6.36825e-06
6.03839e-06
4.47187e-06
1.85611e-06
5.53615e-07
1.56186e-07
3.62027e-08
7.45117e-09
1.37541e-09
2.32196e-10
3.65285e-11
5.39243e-12
7.48739e-13
9.89692e-14
1.39652e-14
3.87325e-15
3.08302e-15
3.35086e-15
3.92213e-15
4.54636e-15
5.14652e-15
5.75856e-15
6.3959e-15
7.05825e-15
7.74333e-15
8.4509e-15
9.18031e-15
9.92942e-15
1.06958e-14
1.14776e-14
1.22739e-14
1.30827e-14
1.39011e-14
1.47254e-14
1.55527e-14
1.63813e-14
1.72092e-14
1.80364e-14
1.88603e-14
1.96816e-14
2.04971e-14
2.13077e-14
2.21101e-14
2.29054e-14
2.36903e-14
2.44656e-14
2.52289e-14
2.59806e-14
2.67092e-14
2.74565e-14
2.80882e-14
2.88927e-14
0.00117891
0.00113452
0.00110019
0.00106825
0.00105622
0.0010437
0.00102243
0.00100584
0.00100696
0.00103311
0.00113438
0.00121588
0.0012398
0.00123778
0.00120549
0.00113288
0.00109969
0.00116549
0.0012233
0.00119871
0.00116862
0.00117038
0.00119637
0.00122868
0.00129382
0.00141803
0.00150263
0.00153714
0.00160446
0.00161959
0.00139362
0.00133611
0.00122666
0.000959848
0.00160217
0.0018976
0.00151215
0.00114551
0.00113848
0.00147177
0.00161241
0.00130229
0.000943887
0.00211086
0.00268216
0.00194919
0.0015606
0.000758011
0.000276514
0.00052181
0.000796395
0.000544259
0.000867501
0.000146731
0.00108334
0.00137927
0.00240783
0.00233491
1.61177e-05
1.78921e-05
0.000302472
0.00096238
0.00197041
0.00164754
0.000751601
5.95861e-05
0.000117631
0.000605843
0.00059226
0.000552358
0.000980496
0.000737214
0.000759918
0.000897691
0.000899585
0.000892264
0.000905772
0.00113213
0.000713051
0.00077408
0.000224939
8.58823e-05
7.69281e-05
0.000192242
0.000605982
0.000781732
0.00150967
0.00181579
0.00174104
0.00170607
0.00165608
0.00180963
0.00173008
0.00085799
0.00021709
7.92268e-05
9.39133e-05
0.000137678
0.000170714
0.000167137
0.000135571
7.30564e-05
2.83931e-05
1.25252e-05
3.23828e-06
6.36852e-07
1.19362e-07
2.16618e-08
3.69235e-09
5.74156e-10
8.27523e-11
1.12786e-11
1.65207e-12
4.89311e-13
4.04723e-13
4.46632e-13
5.28699e-13
6.181e-13
7.05268e-13
7.95008e-13
8.89152e-13
9.87695e-13
1.09047e-12
1.19757e-12
1.3089e-12
1.42412e-12
1.54288e-12
1.66495e-12
1.79021e-12
1.91834e-12
2.04876e-12
2.18085e-12
2.31413e-12
2.44835e-12
2.58321e-12
2.71867e-12
2.85434e-12
2.99028e-12
3.12598e-12
3.26152e-12
3.39639e-12
3.53069e-12
3.66387e-12
3.79598e-12
3.92666e-12
4.05579e-12
4.18154e-12
4.3111e-12
4.41914e-12
4.56508e-12
0.00319893
0.00307051
0.00303211
0.00299048
0.00300931
0.00294234
0.00275236
0.00262735
0.00260982
0.00268121
0.00301575
0.00326854
0.00336991
0.00337449
0.00319584
0.0026249
0.00211842
0.0018443
0.0018462
0.00184688
0.00185073
0.00185281
0.0018899
0.0019706
0.00209856
0.00243324
0.00288219
0.0034009
0.00426963
0.005367
0.00542111
0.00527181
0.00478407
0.0023533
0.00215787
0.0023557
0.00189776
0.00114875
0.00101725
0.00154758
0.00111752
0.000602323
0.00103732
0.00551868
0.00943302
0.00895848
0.00845343
0.00444946
0.000593674
0.000275313
0.0025888
0.00125511
0.00504294
0.00297065
0.00346519
0.0045484
0.00767774
0.0135276
0.00202919
0.00106816
0.00269592
0.00512389
0.0122118
0.00992414
0.0067396
0.00211618
0.00115788
0.00208233
0.00289519
0.00369576
0.00353682
0.00211219
0.00203752
0.00206107
0.00204331
0.0027026
0.00446578
0.00835983
0.00902897
0.00385666
0.00143101
0.00117293
0.00120057
0.00135735
0.00154061
0.00212655
0.00457627
0.00548175
0.00558643
0.00565618
0.00529754
0.00479033
0.00379428
0.00197787
0.000611888
0.000256729
0.000278155
0.00039419
0.000611272
0.000626617
0.000483177
0.000240219
0.00010559
5.0746e-05
1.97116e-05
4.6188e-06
9.72358e-07
1.98028e-07
3.69651e-08
6.16959e-09
9.42344e-10
1.35736e-10
2.19422e-11
7.92342e-12
7.14421e-12
8.04126e-12
9.59839e-12
1.12524e-11
1.2883e-11
1.4575e-11
1.63572e-11
1.82283e-11
2.01864e-11
2.22342e-11
2.43704e-11
2.65882e-11
2.88811e-11
3.1245e-11
3.3678e-11
3.61741e-11
3.87215e-11
4.13079e-11
4.39237e-11
4.65641e-11
4.92227e-11
5.18989e-11
5.45847e-11
5.72811e-11
5.99779e-11
6.26767e-11
6.5367e-11
6.80502e-11
7.07158e-11
7.33637e-11
7.59877e-11
7.85829e-11
8.11151e-11
8.37259e-11
8.59077e-11
8.88562e-11
0.00449688
0.00434236
0.00441254
0.00474302
0.00529089
0.00548149
0.00522188
0.00502462
0.00492681
0.00503948
0.00581461
0.00631338
0.00647457
0.00652301
0.00633795
0.00539651
0.00431946
0.0031294
0.00248356
0.00233338
0.0023915
0.00263783
0.00302916
0.0036208
0.00424438
0.00494042
0.00565238
0.0062219
0.00636085
0.00648876
0.00608719
0.00678283
0.0073989
0.00367856
0.00152409
0.00161518
0.0017609
0.00180242
0.00171782
0.00279949
0.00207205
0.00031509
0.000430449
0.00352285
0.00772495
0.00850938
0.0125568
0.0111171
0.000639372
0.00181831
0.00634887
0.00426819
0.0051929
0.00745451
0.00707735
0.00631928
0.00873297
0.0246535
0.00710597
0.00458692
0.0077343
0.0112678
0.0177549
0.0126481
0.0141302
0.00749213
0.0029336
0.0068004
0.0101671
0.0128863
0.014321
0.0112634
0.0100929
0.00933928
0.00876638
0.00984617
0.0123382
0.0200559
0.0227374
0.0115359
0.00383992
0.00255525
0.00261378
0.0033861
0.00613776
0.0109086
0.0122237
0.0125636
0.0130178
0.0130942
0.0123737
0.00954644
0.00536429
0.00249317
0.000963623
0.000483886
0.000533517
0.000832699
0.00135394
0.00142356
0.00119461
0.000583722
0.000219672
9.05211e-05
4.33028e-05
1.29368e-05
3.08583e-06
6.8119e-07
1.3354e-07
2.33617e-08
3.72317e-09
5.63523e-10
1.03299e-10
4.69955e-11
4.5847e-11
5.27202e-11
6.33558e-11
7.4354e-11
8.53591e-11
9.68656e-11
1.09026e-10
1.21822e-10
1.35252e-10
1.49339e-10
1.64075e-10
1.79412e-10
1.95309e-10
2.11739e-10
2.28692e-10
2.46126e-10
2.63959e-10
2.82103e-10
3.00489e-10
3.19083e-10
3.37842e-10
3.5676e-10
3.75779e-10
3.94903e-10
4.14062e-10
4.33264e-10
4.52433e-10
4.71578e-10
4.90626e-10
5.09568e-10
5.28368e-10
5.46975e-10
5.65162e-10
5.83918e-10
5.99631e-10
6.2084e-10
0.00457466
0.0044259
0.00453736
0.00510161
0.00610763
0.00677151
0.00692351
0.00687576
0.00670448
0.00659219
0.0072319
0.00763595
0.00776634
0.00787916
0.00789188
0.00731322
0.0065879
0.00537305
0.00461242
0.00467279
0.00513137
0.00582046
0.00645239
0.00737889
0.00791076
0.00748069
0.00697012
0.00667871
0.006217
0.00578092
0.00523097
0.00556705
0.00592225
0.00318988
0.00127782
0.00102818
0.00189584
0.00238364
0.00226435
0.00420775
0.00461648
0.00580101
0.00314721
0.00150604
0.00567043
0.00752572
0.0112804
0.0129532
0.00405387
0.0111826
0.0269755
0.0111396
0.00441508
0.0100665
0.00809767
0.00641493
0.00952384
0.0249766
0.0106237
0.00825221
0.0125431
0.0146619
0.0163534
0.0108313
0.0147908
0.0122301
0.00383716
0.0114115
0.0216968
0.0253077
0.0209887
0.0139269
0.0121336
0.0109929
0.00929179
0.00907562
0.0108614
0.0187573
0.0289513
0.0264198
0.0131638
0.00755978
0.00776816
0.0108971
0.0150794
0.0203868
0.0203205
0.0187264
0.0178045
0.0170449
0.0165317
0.013673
0.00770452
0.00345659
0.0014805
0.000757618
0.000849633
0.00136157
0.00221841
0.00236782
0.00205912
0.00118473
0.000354965
0.000145333
6.48064e-05
2.38349e-05
6.33267e-06
1.47687e-06
3.01299e-07
5.46384e-08
9.00814e-09
1.43202e-09
3.04395e-10
1.71439e-10
1.76699e-10
2.07213e-10
2.49845e-10
2.93105e-10
3.37062e-10
3.83267e-10
4.32179e-10
4.83708e-10
5.37873e-10
5.94776e-10
6.54381e-10
7.16497e-10
7.80956e-10
8.47659e-10
9.16562e-10
9.87495e-10
1.06013e-09
1.13408e-09
1.20906e-09
1.28497e-09
1.36162e-09
1.43897e-09
1.51678e-09
1.59506e-09
1.67352e-09
1.75219e-09
1.83075e-09
1.90925e-09
1.98737e-09
2.06507e-09
2.14223e-09
2.21858e-09
2.29326e-09
2.37022e-09
2.43484e-09
2.52168e-09
0.00454138
0.00440495
0.00444521
0.00481114
0.00572272
0.00652676
0.00692476
0.00698348
0.00677714
0.00645923
0.00676712
0.00711434
0.00723434
0.00739147
0.00742706
0.00697175
0.00647951
0.00575263
0.00552595
0.00598155
0.00662092
0.00701127
0.00713256
0.00754
0.0076028
0.00681698
0.00610411
0.0054904
0.00474113
0.0040312
0.00338008
0.00336613
0.00361395
0.00248481
0.00182465
0.00136637
0.0020605
0.00246048
0.00224845
0.00416943
0.00617829
0.0143796
0.0172457
0.000546996
0.00317491
0.00533202
0.00834568
0.00945782
0.00492633
0.0196491
0.0382938
0.025031
0.00551666
0.00714603
0.00634144
0.00626906
0.0126314
0.0219374
0.0124012
0.00628863
0.0101437
0.0143191
0.0143063
0.00904745
0.0119033
0.0137535
0.00371964
0.0114177
0.0242679
0.028409
0.0202689
0.0115924
0.0112611
0.0101062
0.00745201
0.0066717
0.00867289
0.0152161
0.026333
0.0357685
0.0243552
0.0170885
0.0178127
0.0217704
0.0245131
0.0269468
0.0231081
0.0186601
0.0173323
0.0159935
0.0155031
0.0144944
0.0100323
0.00548042
0.00225614
0.00109661
0.00123715
0.00194615
0.00311429
0.0033484
0.00295123
0.00185295
0.000592843
0.000201849
8.32851e-05
3.64216e-05
1.05411e-05
2.54326e-06
5.32474e-07
9.88661e-08
1.67224e-08
2.79593e-09
7.01309e-10
4.72457e-10
5.05827e-10
6.02336e-10
7.26684e-10
8.51529e-10
9.79939e-10
1.11536e-09
1.25872e-09
1.40974e-09
1.56852e-09
1.73535e-09
1.91011e-09
2.0922e-09
2.28113e-09
2.47659e-09
2.67846e-09
2.88621e-09
3.09886e-09
3.3151e-09
3.53437e-09
3.75626e-09
3.98019e-09
4.206e-09
4.43302e-09
4.66124e-09
4.88982e-09
5.11881e-09
5.34733e-09
5.57544e-09
5.80228e-09
6.0277e-09
6.25136e-09
6.47243e-09
6.68857e-09
6.91094e-09
7.09784e-09
7.34769e-09
0.00463388
0.00447257
0.00438167
0.00455847
0.00521436
0.00592309
0.0062963
0.00636176
0.00615314
0.00579231
0.00593494
0.00630135
0.00644314
0.00662366
0.00654149
0.00600728
0.0054768
0.00486495
0.0047227
0.0051185
0.00558727
0.0056872
0.00560672
0.00586519
0.00588384
0.00531
0.00482303
0.00421511
0.00336162
0.00256357
0.00220862
0.00238326
0.00282239
0.00311627
0.00239044
0.00168932
0.00177645
0.00216178
0.00206357
0.00388252
0.0063749
0.0169563
0.022927
0.0055742
0.00121681
0.00280744
0.00484297
0.00716821
0.0106994
0.0239817
0.0377325
0.0371819
0.00905033
0.00535866
0.00511504
0.0106922
0.021215
0.0206942
0.0140013
0.00394294
0.00846445
0.0135582
0.0122282
0.0108826
0.0103028
0.0123249
0.00450729
0.00838869
0.0196961
0.023475
0.0168091
0.0144505
0.015352
0.0130867
0.00942803
0.0068333
0.00725215
0.0126073
0.0232091
0.0334872
0.0322239
0.0244407
0.0253006
0.0302789
0.032348
0.0312274
0.0218314
0.0162448
0.0148041
0.0141979
0.0136726
0.0117146
0.00952551
0.00783969
0.00335089
0.00152858
0.00174096
0.0026307
0.00401209
0.00430053
0.00382738
0.00250696
0.00088671
0.00026501
0.000103179
4.91267e-05
1.55323e-05
3.78526e-06
7.99783e-07
1.50776e-07
2.61567e-08
4.65906e-09
1.39854e-09
1.08465e-09
1.19363e-09
1.43588e-09
1.73029e-09
2.02415e-09
2.3291e-09
2.65105e-09
2.99136e-09
3.34935e-09
3.72537e-09
4.11999e-09
4.53281e-09
4.96225e-09
5.40709e-09
5.86653e-09
6.34037e-09
6.8271e-09
7.32399e-09
7.82855e-09
8.33928e-09
8.85513e-09
9.37468e-09
9.89755e-09
1.04221e-08
1.09484e-08
1.14743e-08
1.20002e-08
1.25237e-08
1.30453e-08
1.35628e-08
1.4076e-08
1.45842e-08
1.50853e-08
1.55745e-08
1.60764e-08
1.64979e-08
1.70585e-08
0.0047489
0.00456661
0.0043319
0.00432692
0.00468059
0.00522886
0.00552638
0.00556234
0.0053294
0.00494429
0.00502018
0.00546949
0.00565866
0.00585678
0.00556432
0.00483602
0.00421151
0.00364096
0.00345361
0.00358917
0.00380533
0.00375391
0.00373045
0.00404314
0.00429661
0.00430653
0.00454011
0.00449017
0.00381207
0.00282734
0.00260735
0.00294318
0.00345032
0.00359921
0.00255942
0.00138118
0.00132192
0.00165983
0.00176164
0.00359626
0.00625917
0.0150799
0.0230943
0.0158159
0.00222199
0.00121106
0.00258057
0.0110671
0.0260468
0.0299984
0.0348887
0.038045
0.0149864
0.00307611
0.00757868
0.0199576
0.0246228
0.0191447
0.0156608
0.00238969
0.00679765
0.0113154
0.0142092
0.0218653
0.0120561
0.0116121
0.00613677
0.00503298
0.0160954
0.0190046
0.0141391
0.030812
0.0302394
0.026578
0.0247177
0.0200814
0.0116785
0.0124598
0.0203875
0.0304794
0.033594
0.0279289
0.0291339
0.0357942
0.0376405
0.0340434
0.020945
0.0144863
0.0144699
0.0161302
0.015581
0.010552
0.00768113
0.00793441
0.00427364
0.00197886
0.00234508
0.00343815
0.00497813
0.00526119
0.00469634
0.0031302
0.0011846
0.000351018
0.000125896
5.62105e-05
1.93634e-05
4.85442e-06
1.06209e-06
2.07282e-07
3.73041e-08
7.14795e-09
2.55049e-09
2.18994e-09
2.45782e-09
2.97477e-09
3.57546e-09
4.17368e-09
4.79804e-09
5.4565e-09
6.15036e-09
6.87828e-09
7.64109e-09
8.43958e-09
9.27262e-09
1.01364e-08
1.10281e-08
1.1946e-08
1.28901e-08
1.38561e-08
1.48391e-08
1.58338e-08
1.68373e-08
1.78472e-08
1.88608e-08
1.98772e-08
2.08933e-08
2.1909e-08
2.29205e-08
2.3928e-08
2.49277e-08
2.59199e-08
2.6901e-08
2.78705e-08
2.88271e-08
2.97673e-08
3.0682e-08
3.16173e-08
3.24007e-08
3.34373e-08
0.00480867
0.00461779
0.0042451
0.00405654
0.00420728
0.00457197
0.00476148
0.00475076
0.00449741
0.00412974
0.0042407
0.0047913
0.00503734
0.00520626
0.00465251
0.00369393
0.00305509
0.00265017
0.00244144
0.00233104
0.00233816
0.00239607
0.00272719
0.00329291
0.003974
0.00479129
0.00510566
0.0047844
0.00392266
0.00223915
0.00215262
0.00265277
0.00328903
0.00345383
0.00260294
0.00157733
0.00126558
0.00131397
0.00129931
0.0030088
0.00585243
0.0126094
0.0214643
0.0243165
0.0106624
0.00220033
0.0146183
0.0411696
0.0330815
0.0368095
0.0396582
0.0341458
0.020942
0.00132545
0.0131101
0.0285403
0.0234172
0.017536
0.015815
0.00362966
0.00460144
0.00720186
0.0312969
0.0218411
0.0245775
0.015252
0.00786598
0.0042212
0.0112037
0.0135937
0.0178871
0.0365664
0.0344309
0.0287035
0.0269514
0.0247389
0.0186932
0.0160843
0.0194528
0.0271376
0.0316941
0.0263821
0.0270412
0.0350059
0.0391795
0.0351131
0.0218922
0.01677
0.02254
0.0279459
0.0266268
0.0162424
0.00626013
0.00569726
0.00345587
0.00233813
0.00299778
0.00432244
0.00604674
0.0062902
0.00557581
0.00373998
0.00147226
0.00045059
0.000148536
5.76663e-05
2.19641e-05
5.9914e-06
1.37387e-06
2.77559e-07
5.1556e-08
1.05534e-08
4.3582e-09
4.01325e-09
4.57026e-09
5.54912e-09
6.64409e-09
7.73497e-09
8.87649e-09
1.00765e-08
1.1335e-08
1.26496e-08
1.40223e-08
1.54534e-08
1.69397e-08
1.84718e-08
2.00468e-08
2.16603e-08
2.33114e-08
2.49922e-08
2.66937e-08
2.84065e-08
3.01253e-08
3.18461e-08
3.3564e-08
3.52776e-08
3.69817e-08
3.86762e-08
4.03549e-08
4.20184e-08
4.36606e-08
4.52822e-08
4.68775e-08
4.84461e-08
4.99859e-08
5.14921e-08
5.29503e-08
5.44341e-08
5.56714e-08
5.72998e-08
0.00478185
0.00459663
0.00408429
0.00366904
0.00364277
0.00383163
0.00395295
0.00389121
0.00363821
0.00334653
0.00366239
0.00435673
0.00467777
0.00483498
0.00406496
0.00293188
0.00256435
0.00254745
0.00252101
0.00229421
0.00216575
0.00241914
0.00307862
0.0037472
0.00445513
0.00505697
0.00517752
0.00481659
0.00378466
0.00195007
0.00153015
0.001891
0.0027012
0.00296032
0.00251573
0.00192983
0.00130664
0.00160139
0.00197902
0.00280392
0.00570333
0.0105485
0.0186401
0.0294171
0.0245186
0.0121779
0.0560364
0.0727605
0.028892
0.0337791
0.0631783
0.0296712
0.0230878
0.00335192
0.0202866
0.0376512
0.0229752
0.0158886
0.0122589
0.0079691
0.00270062
0.00419806
0.0451847
0.0180398
0.0345337
0.027181
0.0124606
0.00669938
0.00694943
0.00959735
0.0393477
0.0453592
0.0354018
0.0287274
0.0267286
0.0246445
0.0220047
0.0225924
0.0207285
0.0241241
0.0296555
0.0240056
0.0221199
0.0288015
0.0342954
0.0310358
0.0196034
0.0191612
0.0332293
0.0394876
0.0375808
0.0237008
0.00637324
0.00309634
0.00191083
0.00269606
0.00366543
0.00524004
0.00714826
0.00734825
0.00647455
0.00435073
0.00175905
0.000561917
0.000174951
6.80962e-05
2.53981e-05
7.43201e-06
1.72653e-06
3.51286e-07
6.62128e-08
1.45672e-08
6.97389e-09
6.80196e-09
7.84577e-09
9.5379e-09
1.13618e-08
1.31841e-08
1.50883e-08
1.70796e-08
1.91554e-08
2.13107e-08
2.35497e-08
2.58696e-08
2.82628e-08
3.07138e-08
3.32167e-08
3.57635e-08
3.83514e-08
4.09672e-08
4.35963e-08
4.62244e-08
4.88429e-08
5.14458e-08
5.40258e-08
5.65807e-08
5.91032e-08
6.15937e-08
6.4044e-08
6.64557e-08
6.88209e-08
7.11422e-08
7.34122e-08
7.56324e-08
7.77977e-08
7.99021e-08
8.19252e-08
8.39715e-08
8.56661e-08
8.7882e-08
0.00476232
0.00456255
0.00389166
0.0032433
0.00308211
0.00312237
0.00315916
0.00308476
0.002891
0.00279955
0.00341314
0.00427381
0.00473746
0.0049958
0.00422953
0.00296957
0.00266386
0.00266603
0.00266309
0.002371
0.00221659
0.00249638
0.00317878
0.00378102
0.00437925
0.0048162
0.00485617
0.00451636
0.00385791
0.00271502
0.00205875
0.00184698
0.00210254
0.00233689
0.00212594
0.00169919
0.00103107
0.00199662
0.00367221
0.00282579
0.00575397
0.00935783
0.0155812
0.0304733
0.0400359
0.023445
0.0765795
0.0820542
0.0268738
0.0290791
0.072528
0.0243058
0.0216627
0.00922584
0.0219683
0.0490861
0.0220772
0.0142537
0.00904094
0.0117023
0.0016525
0.00212646
0.0497513
0.0175545
0.0316972
0.0412559
0.0195211
0.0125733
0.00487813
0.0129387
0.0725963
0.0688574
0.0489017
0.0382728
0.0297486
0.0251723
0.0264135
0.0337079
0.0259959
0.0214147
0.02524
0.0214421
0.0181261
0.0229104
0.02899
0.026033
0.0161857
0.0213666
0.044708
0.0509767
0.0486224
0.0324454
0.00942436
0.00256554
0.00186195
0.00321172
0.00435838
0.00616499
0.0082532
0.00842006
0.00738675
0.00496913
0.00205584
0.000687079
0.000213478
7.76466e-05
2.63546e-05
7.88165e-06
1.87511e-06
3.90729e-07
7.66143e-08
1.88497e-08
1.05875e-08
1.08263e-08
1.26285e-08
1.53389e-08
1.81584e-08
2.09868e-08
2.39267e-08
2.69791e-08
3.01379e-08
3.33933e-08
3.67489e-08
4.01972e-08
4.37246e-08
4.73066e-08
5.09328e-08
5.45901e-08
5.82729e-08
6.19613e-08
6.56344e-08
6.92733e-08
7.28677e-08
7.64119e-08
7.98988e-08
8.33212e-08
8.66665e-08
8.99365e-08
9.31215e-08
9.62249e-08
9.92373e-08
1.02163e-07
1.04994e-07
1.07733e-07
1.10381e-07
1.12937e-07
1.15376e-07
1.17828e-07
1.19843e-07
1.22466e-07
0.00473444
0.00453465
0.00368047
0.0028263
0.00257099
0.0024964
0.00245988
0.00242165
0.00236032
0.00257156
0.00349672
0.00460883
0.00522631
0.00541874
0.0045576
0.00278056
0.00214334
0.00204084
0.00201191
0.00164748
0.00156734
0.00204295
0.00286142
0.00352698
0.00394578
0.00418838
0.00416883
0.00385682
0.00347294
0.00283445
0.00231152
0.00195178
0.00187479
0.00183946
0.00161414
0.00121649
0.000655275
0.00089116
0.00253709
0.0020051
0.00565047
0.0100102
0.0121216
0.0272749
0.0538156
0.030613
0.0759355
0.0843008
0.0252055
0.027267
0.0794955
0.0202795
0.01957
0.0123499
0.0222925
0.0558369
0.0208834
0.0124218
0.011621
0.0139303
0.00252758
0.00304792
0.0492148
0.0166093
0.0263863
0.0521172
0.0303847
0.0235105
0.0123648
0.0358068
0.0932777
0.0910455
0.0825318
0.0694846
0.0447877
0.0334218
0.0401322
0.0519234
0.0375957
0.0198294
0.0198112
0.017037
0.0165743
0.0182726
0.0229647
0.0204297
0.0135609
0.0265704
0.0542669
0.0601951
0.0576208
0.0398152
0.0136631
0.00419177
0.00285025
0.00384115
0.00505776
0.00707275
0.00932911
0.00947841
0.00829734
0.00558906
0.002362
0.000826362
0.000265121
8.65109e-05
2.87812e-05
8.11398e-06
1.98983e-06
4.2759e-07
8.76062e-08
2.41374e-08
1.55142e-08
1.6382e-08
1.92682e-08
2.33231e-08
2.74206e-08
3.15341e-08
3.5777e-08
4.01434e-08
4.46201e-08
4.91899e-08
5.38538e-08
5.85979e-08
6.34002e-08
6.82253e-08
7.30583e-08
7.78836e-08
8.2697e-08
8.74661e-08
9.21531e-08
9.67325e-08
1.01191e-07
1.0552e-07
1.0971e-07
1.13769e-07
1.17695e-07
1.21494e-07
1.25157e-07
1.28694e-07
1.32097e-07
1.35376e-07
1.38524e-07
1.4155e-07
1.44451e-07
1.47234e-07
1.49868e-07
1.52498e-07
1.54641e-07
1.5742e-07
0.00486055
0.00473657
0.00365039
0.00266148
0.00230808
0.00212948
0.00206029
0.00209866
0.00222819
0.00270706
0.00369737
0.0047941
0.00543596
0.00554226
0.00456082
0.0019296
0.00104549
0.00100806
0.00112852
0.00109686
0.00141758
0.00177913
0.00247068
0.00315469
0.00324543
0.00319547
0.00309446
0.00286368
0.00264229
0.00230596
0.00196961
0.00169592
0.00155315
0.0013804
0.00109198
0.000706232
0.000341688
0.000366481
0.00156726
0.00197907
0.00519981
0.0137957
0.0101712
0.0263047
0.0584061
0.0270909
0.0710683
0.0807316
0.0224272
0.0243591
0.0913706
0.0227462
0.0172159
0.0168973
0.0243764
0.0515102
0.0198589
0.0106838
0.0254444
0.0177231
0.00423883
0.0086572
0.0456978
0.0152977
0.0245653
0.0511552
0.0474003
0.0361296
0.0272857
0.0438154
0.098466
0.0918856
0.0914579
0.0941523
0.0666595
0.0553706
0.0632838
0.0700019
0.0516847
0.0218451
0.0155972
0.0152223
0.0182734
0.0169874
0.0181889
0.0163306
0.0146502
0.0343417
0.0595347
0.0640665
0.0630946
0.0449145
0.0169906
0.00636795
0.00409114
0.00448903
0.00574508
0.0079412
0.0103426
0.0104912
0.00918995
0.0062083
0.00267327
0.000975352
0.000331424
0.000104
3.16509e-05
8.93813e-06
2.20705e-06
4.81511e-07
1.02143e-07
3.1124e-08
2.20787e-08
2.37591e-08
2.80632e-08
3.3776e-08
3.94193e-08
4.50657e-08
5.08319e-08
5.67008e-08
6.26493e-08
6.86511e-08
7.47041e-08
8.07895e-08
8.6882e-08
9.29241e-08
9.88756e-08
1.04708e-07
1.10406e-07
1.15946e-07
1.21314e-07
1.26491e-07
1.3147e-07
1.36251e-07
1.40835e-07
1.45229e-07
1.49433e-07
1.53458e-07
1.57301e-07
1.60976e-07
1.64478e-07
1.67822e-07
1.71003e-07
1.74037e-07
1.7692e-07
1.79666e-07
1.82244e-07
1.84798e-07
1.8686e-07
1.89529e-07
0.00502827
0.00483688
0.00331874
0.00226056
0.00212577
0.002032
0.0020349
0.00209913
0.00216997
0.0024243
0.0033491
0.00448741
0.00521799
0.00530197
0.0044811
0.00232897
0.00132138
0.00121126
0.00139031
0.00154727
0.00186622
0.00296631
0.00445697
0.00448103
0.00324487
0.00233756
0.00198751
0.00169679
0.00157531
0.00143305
0.00130248
0.00120638
0.00111112
0.000894293
0.000593331
0.000318858
0.000144796
0.000127241
0.000535337
0.00147964
0.00429067
0.0163594
0.0124197
0.0273292
0.0549275
0.0217963
0.0646893
0.076311
0.019356
0.020068
0.106192
0.0409055
0.0146199
0.0212813
0.0285563
0.0465739
0.0197544
0.0107362
0.0248263
0.0231502
0.00765211
0.01359
0.0401299
0.0139
0.0215866
0.0452692
0.0653228
0.0462369
0.0389531
0.0448796
0.0963856
0.0858622
0.0883327
0.102451
0.0767638
0.0648686
0.0688939
0.0732043
0.0607024
0.0294206
0.0161096
0.0213986
0.024771
0.0199499
0.016917
0.0166484
0.0202603
0.0402283
0.0596974
0.0621696
0.0640417
0.0482855
0.0194202
0.00813433
0.00513632
0.00510094
0.00640816
0.0087392
0.0112363
0.0114105
0.010039
0.00682149
0.00298411
0.00112909
0.0004123
0.000134287
3.98907e-05
1.09473e-05
2.67008e-06
5.80037e-07
1.2484e-07
4.07283e-08
3.06609e-08
3.32994e-08
3.93007e-08
4.69568e-08
5.43708e-08
6.17236e-08
6.91307e-08
7.65658e-08
8.39991e-08
9.14012e-08
9.87686e-08
1.06034e-07
1.13129e-07
1.20008e-07
1.2667e-07
1.33099e-07
1.39298e-07
1.45249e-07
1.50935e-07
1.56344e-07
1.61479e-07
1.6635e-07
1.70963e-07
1.75334e-07
1.79468e-07
1.83384e-07
1.87083e-07
1.90584e-07
1.93888e-07
1.97014e-07
1.9996e-07
2.02746e-07
2.05369e-07
2.0785e-07
2.10163e-07
2.12437e-07
2.14252e-07
2.16604e-07
0.00489879
0.00457563
0.00190461
0.00101542
0.00106288
0.0010447
0.00112851
0.00118907
0.00118855
0.00130167
0.00199321
0.00302451
0.00402582
0.00413372
0.00373402
0.00268002
0.00171165
0.00151987
0.00176166
0.0020911
0.00435327
0.00994801
0.0144357
0.0126214
0.00621016
0.00189933
0.000880205
0.000476781
0.000324536
0.000267252
0.000254078
0.00025825
0.000264973
0.000229962
0.000153571
7.84915e-05
3.5791e-05
2.91681e-05
8.84688e-05
0.000982659
0.00306459
0.015914
0.0248329
0.0334722
0.0454083
0.0178902
0.0541546
0.0684938
0.0139814
0.0164376
0.112832
0.0562625
0.0110672
0.0167635
0.0315834
0.0411099
0.0200395
0.0110199
0.0212206
0.0296689
0.0126887
0.0170652
0.0317412
0.0105266
0.0154965
0.0369979
0.0803929
0.0592925
0.0494167
0.0447827
0.0874446
0.0795593
0.0851421
0.102291
0.0770202
0.0629906
0.0642796
0.0668146
0.0601041
0.0397538
0.0241486
0.033218
0.0361551
0.0282887
0.0221989
0.024311
0.0294324
0.0451608
0.0572467
0.0581712
0.0619079
0.0519243
0.0221704
0.0094763
0.006289
0.00598445
0.00735948
0.00977103
0.0123602
0.0126014
0.0112202
0.00772465
0.00345156
0.0013532
0.000540005
0.000202398
6.43197e-05
1.74988e-05
4.10659e-06
8.61342e-07
1.83095e-07
6.20826e-08
4.83187e-08
5.25202e-08
6.14311e-08
7.24224e-08
8.28405e-08
9.29867e-08
1.02905e-07
1.12552e-07
1.21875e-07
1.30849e-07
1.39439e-07
1.4766e-07
1.55489e-07
1.62898e-07
1.69897e-07
1.76491e-07
1.82701e-07
1.88528e-07
1.93975e-07
1.99049e-07
2.03768e-07
2.08157e-07
2.12233e-07
2.16026e-07
2.19547e-07
2.22823e-07
2.25866e-07
2.28698e-07
2.31329e-07
2.33783e-07
2.36063e-07
2.38195e-07
2.40169e-07
2.4202e-07
2.43727e-07
2.45385e-07
2.46676e-07
2.48385e-07
0.00333042
0.0029437
0.00132454
5.01656e-05
5.17905e-05
9.65946e-05
0.000188329
0.00022811
0.000267763
0.000294048
0.00036123
0.0006333
0.0012499
0.00168397
0.00137093
0.000911787
0.000589181
0.000843578
0.00163837
0.00449442
0.0137106
0.0302799
0.0363228
0.0296404
0.0153433
0.00374783
0.000827917
0.000227035
6.57336e-05
1.94707e-05
7.41423e-06
5.088e-06
5.1114e-06
4.62286e-06
3.34308e-06
2.19796e-06
1.36989e-06
8.06972e-07
2.88314e-06
0.00030951
0.00249837
0.013934
0.0340804
0.0527897
0.0361946
0.0114557
0.0431788
0.0550377
0.00958506
0.0177433
0.107965
0.0498499
0.00966276
0.0130111
0.0249398
0.030115
0.0159815
0.00881467
0.0170825
0.0388821
0.0193296
0.0186141
0.0236866
0.00563441
0.00895283
0.0263846
0.0798424
0.06999
0.0504891
0.0387038
0.0704574
0.0679091
0.0777223
0.0975305
0.0662531
0.0473509
0.0522186
0.0549097
0.0464064
0.0332305
0.0314148
0.0450349
0.0487975
0.038539
0.0320773
0.0359091
0.035316
0.0434293
0.0505118
0.0506907
0.0532978
0.049335
0.0249774
0.00913043
0.0065807
0.0069502
0.00831561
0.0107749
0.0135676
0.0138354
0.0124262
0.00874396
0.00404494
0.00161957
0.000681542
0.000278634
9.37663e-05
2.6019e-05
6.1535e-06
1.3011e-06
2.81016e-07
9.91743e-08
7.9055e-08
8.55085e-08
9.83989e-08
1.1355e-07
1.27063e-07
1.39536e-07
1.51223e-07
1.62078e-07
1.72121e-07
1.81296e-07
1.89772e-07
1.97539e-07
2.04673e-07
2.11205e-07
2.1716e-07
2.22589e-07
2.27545e-07
2.32054e-07
2.36144e-07
2.39841e-07
2.43189e-07
2.46215e-07
2.4896e-07
2.5145e-07
2.53714e-07
2.55781e-07
2.57667e-07
2.59405e-07
2.61002e-07
2.62476e-07
2.63825e-07
2.65071e-07
2.66214e-07
2.67277e-07
2.68257e-07
2.69209e-07
2.69912e-07
2.70897e-07
0.00224665
0.00233312
0.00205071
0.00148598
0.00104474
0.000750658
0.000617589
0.000563738
0.000415726
0.00016885
4.43658e-05
1.14579e-05
1.97095e-05
4.12979e-05
3.44713e-05
2.32125e-05
2.87124e-05
0.000198476
0.00148656
0.007068
0.0203054
0.0424743
0.0595762
0.0523937
0.0300108
0.00813941
0.00176069
0.000361906
8.11097e-05
2.15188e-05
5.94538e-06
1.68013e-06
5.69871e-07
5.2248e-07
9.16503e-07
1.8281e-06
1.87713e-06
7.63367e-07
2.39707e-07
5.60775e-05
0.00280144
0.0113928
0.0379336
0.0639211
0.0262467
0.00724857
0.0344455
0.0439393
0.0201787
0.0338457
0.0986788
0.0478654
0.0129955
0.00824963
0.0181583
0.0214046
0.0105953
0.00533412
0.0102151
0.0362656
0.0180114
0.0165887
0.0179563
0.00232715
0.00443896
0.0175795
0.0722742
0.0708277
0.0470466
0.0279407
0.0535852
0.0525006
0.0673489
0.0865983
0.0618544
0.0364546
0.0392166
0.0412712
0.0338747
0.0237309
0.0341345
0.0547144
0.0611049
0.049335
0.0428944
0.0475084
0.0397251
0.0386231
0.042469
0.0411952
0.0418903
0.0413165
0.0273364
0.0104079
0.00710461
0.00773285
0.00917423
0.0121485
0.0153381
0.0152654
0.0134915
0.00956127
0.00460786
0.00187167
0.000803694
0.000341827
0.000118631
3.36212e-05
8.03962e-06
1.70808e-06
3.76747e-07
1.42013e-07
1.16974e-07
1.25792e-07
1.41932e-07
1.59037e-07
1.73259e-07
1.85752e-07
1.9675e-07
2.06435e-07
2.14966e-07
2.22601e-07
2.29389e-07
2.35491e-07
2.40911e-07
2.45686e-07
2.4992e-07
2.53668e-07
2.56988e-07
2.59929e-07
2.62521e-07
2.64814e-07
2.66831e-07
2.68642e-07
2.7024e-07
2.71684e-07
2.72967e-07
2.74131e-07
2.75184e-07
2.76116e-07
2.7693e-07
2.77646e-07
2.78279e-07
2.7885e-07
2.79368e-07
2.79833e-07
2.80243e-07
2.80624e-07
2.80881e-07
2.81276e-07
0.00213262
0.00226173
0.00226784
0.0021154
0.00179327
0.00139014
0.000992032
0.000628271
0.000273529
5.10989e-05
8.79197e-06
9.12653e-07
7.1394e-08
1.25752e-08
1.21788e-08
1.80664e-08
9.07262e-07
6.45737e-05
0.000778986
0.00473983
0.0154736
0.0352078
0.0582866
0.0631765
0.0416879
0.013581
0.00326649
0.000700575
0.000168897
6.6099e-05
3.45026e-05
1.93931e-05
1.1523e-05
1.18275e-05
1.70023e-05
2.48402e-05
2.19071e-05
8.43211e-06
1.57211e-06
8.94171e-06
0.0019198
0.00852493
0.0348759
0.0546066
0.0195983
0.0111206
0.0294611
0.0355186
0.0345659
0.0513778
0.0869774
0.0557894
0.0176649
0.00747636
0.0132494
0.0147647
0.00524745
0.00240531
0.00472797
0.0279464
0.013777
0.0134584
0.0130383
0.00218465
0.00408391
0.0126615
0.0585435
0.0574944
0.0336267
0.0202796
0.0438844
0.0394514
0.0566264
0.0742764
0.0583703
0.0349093
0.0269267
0.0279098
0.0223406
0.017602
0.0306607
0.0569027
0.069198
0.0576808
0.0508012
0.0526963
0.0396737
0.0318449
0.0318218
0.0299957
0.0298178