/*--------------------------------*- C++ -*----------------------------------*\
| =========                 |                                                 |
| \\      /  F ield         | OpenFOAM: The Open Source CFD Toolbox           |
|  \\    /   O peration     | Version:  v1912                                 |
|   \\  /    A nd           | Website:  www.openfoam.com                      |
|    \\/     M anipulation  |                                                 |
\*---------------------------------------------------------------------------*/
FoamFile
{
    version     2.0;
    format      ascii;
    class       volScalarField;
    location    "100";
    object      p;
}
// * * * * * * * * * * * * * * * * * * * * * * * * * * * * * * * * * * * * * //

dimensions      [1 -1 -2 0 0 0 0];


internalField   nonuniform List<scalar> 
14268
(
1272.16
1247.55
1236.99
1244.91
1252.54
1254.41
1252.26
1233.41
1192.51
1137.73
1076.68
1027.9
999.892
980.319
957.457
917.451
866.227
819.357
779.144
741.475
705.53
667.076
629.768
589.208
546.956
512.617
472.154
438.977
409.154
368.357
339.76
297.447
242.354
186.906
164.482
152.991
130.704
77.8989
62.1465
55.7759
55.5994
96.7453
152.225
253.088
312.813
329.746
305.202
248.834
161.335
144.748
131.413
171.784
237.362
163.482
60.6488
114.864
267.534
277.711
115.67
6.07674
38.3749
11.2504
27.2714
85.1519
36.4923
-16.6228
-32.572
-27.5491
-24.7122
-29.013
-37.639
-43.6634
-44.9462
-58.3786
-73.4297
-80.4334
-80.5679
-84.3125
-97.3108
-109.867
-115.241
-116.497
-116.671
-117.717
-119.4
-121.492
-123.101
-123.823
-124.639
-125.519
-126.626
-128.579
-130.77
-132.1
-132.9
-133.633
-134.339
-134.991
-135.639
-136.293
-136.959
-137.61
-138.251
-138.882
-139.523
-140.17
-140.812
-141.453
-142.091
-142.729
-143.365
-143.999
-144.633
-145.265
-145.897
-146.526
-147.156
-147.783
-148.411
-149.036
-149.661
-150.285
-150.908
-151.53
-152.15
-152.771
-153.389
-154.008
-154.624
-155.241
-155.855
-156.47
-157.083
-157.695
-158.307
-158.918
-159.529
-160.137
-160.747
-161.353
-161.962
-162.567
-163.174
-163.778
-164.383
-164.986
-165.589
-166.192
-166.794
-167.395
1132.4
1112.82
1103.61
1111.7
1116.3
1116.95
1116.63
1099.49
1058.04
1001.47
934.816
883.064
855.078
836.369
814.457
773.24
720.739
671.78
633.441
603.101
570.671
533.289
496.128
455.666
409.512
370.883
330.244
299.271
267.693
238.208
216.151
183.595
148.625
116.014
87.4093
69.2189
52.8601
8.80916
-4.25156
-5.9025
-3.48786
43.8084
110.221
200.501
246.597
247.748
216.423
192.749
110.05
95.7341
90.1038
134.746
210.371
142.727
39.3297
93.1851
233.236
241.173
91.2934
-15.4139
20.4566
-5.38048
10.7166
72.6369
18.0017
-32.7952
-47.5735
-41.72
-39.1389
-43.2052
-50.0059
-55.1065
-54.1199
-66.6008
-81.3088
-87.2295
-85.9963
-89.6898
-102.369
-114.471
-119.403
-120.693
-120.924
-121.197
-121.594
-122.809
-124.231
-124.901
-125.75
-126.597
-127.604
-129.256
-131.115
-132.28
-133.033
-133.761
-134.468
-135.119
-135.766
-136.421
-137.087
-137.739
-138.379
-139.006
-139.645
-140.292
-140.934
-141.575
-142.214
-142.851
-143.487
-144.121
-144.755
-145.387
-146.019
-146.648
-147.278
-147.905
-148.533
-149.158
-149.783
-150.407
-151.03
-151.652
-152.272
-152.893
-153.511
-154.13
-154.746
-155.362
-155.977
-156.592
-157.205
-157.817
-158.429
-159.04
-159.651
-160.259
-160.869
-161.475
-162.084
-162.689
-163.296
-163.9
-164.505
-165.108
-165.711
-166.314
-166.916
-167.517
1027.98
1006.37
997.342
1005.34
1009.65
1010.6
1010.21
992.903
952.211
896.449
830.952
778.433
752.648
732.257
714.151
686.716
651.196
617.519
577.434
538.847
501.131
464.188
430.869
394.061
352.534
318.888
284.042
246.459
220.14
202.447
187.577
151.492
110.555
80.7716
43.0878
10.0107
19.1757
7.20434
-12.4374
-16.6191
-19.3556
12.0679
64.4411
120.423
180.973
203.118
179.426
147.967
80.4258
72.6872
66.4488
116.993
186.214
119.131
27.1457
78.2888
206.413
232.786
77.8988
-27.652
3.56017
-18.0566
-4.93863
51.8752
8.64546
-39.9538
-54.7501
-52.5576
-53.4097
-56.1657
-57.2195
-59.9201
-59.9771
-71.6851
-85.4691
-91.6082
-90.7883
-93.1249
-105.206
-115.916
-120.456
-121.729
-122.297
-122.526
-122.732
-123.369
-124.412
-125.09
-125.876
-126.697
-127.74
-129.477
-131.333
-132.434
-133.162
-133.887
-134.593
-135.245
-135.894
-136.549
-137.213
-137.865
-138.506
-139.132
-139.768
-140.414
-141.057
-141.697
-142.336
-142.973
-143.609
-144.243
-144.877
-145.509
-146.141
-146.77
-147.4
-148.027
-148.655
-149.28
-149.905
-150.529
-151.152
-151.774
-152.394
-153.015
-153.633
-154.252
-154.868
-155.484
-156.099
-156.714
-157.327
-157.939
-158.551
-159.162
-159.773
-160.381
-160.991
-161.597
-162.206
-162.811
-163.418
-164.022
-164.627
-165.23
-165.833
-166.436
-167.038
-167.639
882.496
868.048
858.952
863.734
864.297
865.565
870.071
857.457
816.708
759.754
686.461
632.15
601.942
583.599
567.947
543.796
519.731
502.682
483.824
457.355
421.314
384.048
351.631
315.673
279.614
235.479
189.683
129.521
42.5757
-48.0914
-86.5472
-76.7915
-54.1086
5.78692
17.9282
-13.7502
-16.2467
-42.1722
-53.4702
-45.6093
-40.8756
-7.63741
46.9919
57.7906
-40.9935
-44.4395
18.61
94.2213
74.8107
64.6935
62.3582
92.0682
135.154
107.777
14.0399
60.5172
143.558
197.974
65.2948
-37.5194
-6.73475
-30.7383
-32.0369
20.7999
-7.52721
-48.881
-61.9132
-63.0075
-62.2775
-64.0637
-64.7798
-65.9866
-63.3774
-75.1264
-89.749
-96.0557
-95.4523
-97.4968
-107.803
-117.557
-121.248
-122.389
-122.889
-123.322
-123.737
-124.465
-125.238
-125.86
-126.732
-127.607
-128.524
-130.004
-131.633
-132.606
-133.293
-134.013
-134.718
-135.371
-136.022
-136.677
-137.341
-137.99
-138.631
-139.257
-139.891
-140.536
-141.179
-141.819
-142.458
-143.095
-143.731
-144.365
-144.999
-145.631
-146.263
-146.892
-147.522
-148.149
-148.777
-149.402
-150.027
-150.651
-151.274
-151.896
-152.516
-153.137
-153.755
-154.374
-154.99
-155.606
-156.221
-156.836
-157.449
-158.061
-158.673
-159.284
-159.895
-160.503
-161.113
-161.719
-162.328
-162.933
-163.54
-164.144
-164.749
-165.352
-165.955
-166.558
-167.16
-167.761
819.301
799.298
788.151
780.365
762.853
754.636
754.264
737.789
698.53
640.58
555.947
488.121
459.88
441.245
427.153
411.408
394.239
396.818
394.972
371.146
336.567
295.636
252.958
202.644
138.939
74.3334
21.9457
-27.159
-40.3005
-81.2992
-106.36
-148.176
-147.016
-20.5859
-7.23478
-16.0597
-36.9979
-58.2086
-63.5671
-63.0933
-38.8281
-8.17449
45.3951
107.776
10.6738
-64.409
-129.908
16.545
61.2919
59.4477
52.141
77.1671
144.235
78.6893
-3.33735
52.5792
131.67
93.7013
52.8981
-52.634
-22.5987
-47.1722
-80.5844
-11.3714
-35.7611
-57.0315
-67.6805
-77.2678
-71.5894
-74.9994
-79.9249
-76.92
-73.5366
-84.3838
-99.6074
-109.892
-112.973
-117.29
-113.549
-117.999
-122.004
-122.887
-123.455
-123.902
-124.334
-125.165
-125.881
-126.672
-127.792
-128.755
-129.49
-130.483
-131.777
-132.745
-133.422
-134.138
-134.842
-135.496
-136.149
-136.805
-137.469
-138.116
-138.755
-139.381
-140.014
-140.658
-141.301
-141.941
-142.58
-143.217
-143.853
-144.487
-145.121
-145.753
-146.385
-147.014
-147.644
-148.271
-148.899
-149.524
-150.149
-150.773
-151.396
-152.018
-152.638
-153.259
-153.877
-154.496
-155.112
-155.728
-156.343
-156.958
-157.571
-158.183
-158.795
-159.406
-160.017
-160.625
-161.235
-161.841
-162.45
-163.055
-163.661
-164.266
-164.871
-165.474
-166.077
-166.68
-167.282
-167.883
726.596
707.243
695.183
692.499
673.683
656.091
646.241
628.29
588.725
537.249
461.657
403.275
373.959
358.238
339.186
303.173
268.263
250.707
234.028
196.174
144.346
92.5769
52.1709
-1.5615
-46.5043
-48.5609
-22.8639
-32.8275
-38.5889
-57.2884
-63.0368
-72.9424
-73.5199
-31.7959
-47.5992
-60.8172
-71.8937
-79.6164
-76.9865
-74.0889
-58.3129
-19.2617
22.8438
106.575
83.3335
-17.1723
-93.6981
-62.5619
53.0511
54.8989
40.4134
68.3954
135.754
22.8782
-13.2343
46.3724
148.213
-28.6315
43.4936
-88.2721
-87.1161
-69.6789
-73.6083
-2.05417
-59.0386
-68.4956
-71.042
-94.1367
-105.723
-105.17
-92.4344
-82.7002
-76.6475
-86.2224
-100.497
-109.336
-112.249
-128.342
-129.762
-121.23
-122.855
-123.608
-124.179
-124.733
-125.091
-126.103
-127.696
-128.945
-129.704
-130.474
-131.026
-131.312
-132.161
-132.938
-133.558
-134.264
-134.967
-135.621
-136.276
-136.932
-137.595
-138.242
-138.879
-139.504
-140.138
-140.781
-141.423
-142.063
-142.702
-143.339
-143.975
-144.609
-145.243
-145.875
-146.507
-147.136
-147.766
-148.393
-149.021
-149.646
-150.271
-150.895
-151.518
-152.14
-152.76
-153.381
-153.999
-154.617
-155.233
-155.85
-156.465
-157.08
-157.693
-158.305
-158.917
-159.528
-160.139
-160.747
-161.357
-161.963
-162.572
-163.177
-163.783
-164.388
-164.993
-165.596
-166.199
-166.802
-167.403
-168.005
647.555
627.186
619.336
622.331
611.312
596.071
583.263
560.495
520.015
469.962
406.673
352.598
330.299
312.355
296.085
268.132
233.581
212.035
188.933
145.857
95.2277
52.8637
25.3963
-1.73346
-32.4804
-21.9098
-13.3014
-10.2473
-7.83779
-20.6942
-32.5033
-44.2227
-52.8647
-61.9594
-69.5161
-76.0327
-79.4338
-80.085
-76.4358
-69.9956
-51.8565
-24.3643
-6.53199
101.975
108.063
54.2796
-8.14258
27.4638
50.3888
46.4688
-5.42204
41.0765
120.137
23.4074
-1.51974
42.7985
136.929
-2.0658
39.8958
-86.4219
-114.876
-86.64
-59.9795
30.1888
-29.5128
-75.9659
-74.9199
-99.0382
-168.037
-173.19
-94.4197
-71.6712
-69.7991
-81.0542
-94.1737
-101.188
-102.951
-112.187
-130.693
-129.986
-123.641
-124.063
-124.676
-125.293
-125.757
-126.857
-128.955
-129.113
-129.79
-129.992
-130.641
-131.675
-132.459
-133.143
-133.699
-134.389
-135.092
-135.747
-136.402
-137.058
-137.721
-138.367
-139.002
-139.628
-140.261
-140.903
-141.545
-142.185
-142.824
-143.461
-144.097
-144.731
-145.365
-145.997
-146.629
-147.258
-147.888
-148.515
-149.143
-149.768
-150.393
-151.017
-151.64
-152.262
-152.882
-153.503
-154.121
-154.739
-155.355
-155.972
-156.587
-157.202
-157.815
-158.427
-159.039
-159.65
-160.261
-160.869
-161.479
-162.085
-162.694
-163.299
-163.905
-164.51
-165.115
-165.718
-166.321
-166.923
-167.525
-168.127
549.389
529.231
519.09
525.893
520.446
506.609
496.394
476.386
436.051
386.168
328.184
280.602
254.41
244.55
227.719
198.408
165.902
149.579
133.728
104.036
68.8533
46.0983
35.6492
13.7964
-5.35093
-10.6624
-28.054
-53.3654
-65.1503
-70.8316
-73.9986
-76.3423
-77.9845
-81.4976
-85.1216
-87.4435
-87.1963
-85.6103
-81.9534
-75.5246
-64.2344
-53.1503
-50.4939
91.9546
92.4261
57.6452
29.0574
34.822
52.0904
50.2553
-30.5051
-37.2794
101.74
40.9166
-7.74847
29.7022
37.8001
11.6309
32.4438
-66.5044
-103.447
-109.092
-38.4425
16.6889
-21.8107
-69.5519
-78.3198
-87.8497
-158.02
-162.154
-84.6338
-77.5509
-72.9109
-83.4303
-97.6279
-103.499
-102.025
-106.401
-120.682
-129.962
-125.567
-124.91
-125.539
-126.226
-126.693
-127.603
-127.964
-127.741
-128.14
-128.722
-129.619
-130.971
-132.516
-133.373
-133.841
-134.515
-135.217
-135.872
-136.528
-137.183
-137.847
-138.491
-139.126
-139.75
-140.384
-141.026
-141.667
-142.307
-142.946
-143.583
-144.219
-144.853
-145.487
-146.119
-146.751
-147.38
-148.01
-148.637
-149.265
-149.89
-150.515
-151.139
-151.762
-152.384
-153.004
-153.625
-154.243
-154.861
-155.477
-156.094
-156.709
-157.324
-157.937
-158.549
-159.161
-159.772
-160.383
-160.991
-161.601
-162.207
-162.816
-163.421
-164.027
-164.632
-165.236
-165.84
-166.443
-167.045
-167.647
-168.249
461.723
440.965
436.398
444.937
447.938
438.517
427.104
404.073
363.323
316.55
263.106
219.793
201.805
191.906
184.807
163.218
132.181
115.896
101.839
81.6006
56.6019
38.4245
27.1029
10.3281
-22.9836
-55.2548
-75.2629
-80.3532
-83.402
-84.7733
-84.9708
-85.2643
-86.0959
-87.5531
-88.0979
-88.0586
-87.5884
-84.2713
-80.3054
-74.8921
-56.0397
-65.0644
-86.6883
88.1813
92.113
57.4073
23.7252
38.6777
19.5789
42.752
34.9821
-129.113
81.0179
52.8863
-12.0849
25.4061
-62.5305
22.6573
11.0535
-68.028
-94.5392
-133.034
-40.1752
-56.0615
-19.0665
-65.9758
-81.0942
-86.5906
-140.224
-131.7
-81.676
-88.4947
-86.9603
-98.9273
-109.642
-112.079
-106.774
-107.696
-117.501
-127.176
-126.202
-125.751
-126.775
-128.284
-128.354
-128.742
-127.927
-127.494
-128.266
-129.211
-130.116
-131.179
-132.481
-133.484
-133.963
-134.639
-135.342
-135.998
-136.654
-137.309
-137.972
-138.616
-139.249
-139.873
-140.507
-141.148
-141.789
-142.429
-143.068
-143.705
-144.341
-144.975
-145.609
-146.241
-146.873
-147.502
-148.132
-148.759
-149.387
-150.012
-150.637
-151.261
-151.884
-152.506
-153.126
-153.747
-154.365
-154.983
-155.599
-156.216
-156.831
-157.446
-158.059
-158.671
-159.283
-159.894
-160.505
-161.113
-161.723
-162.329
-162.937
-163.543
-164.149
-164.753
-165.358
-165.962
-166.565
-167.167
-167.769
-168.371
364.691
345.154
338.502
348.132
353.457
344.892
337.237
318.103
279.472
229.94
184.779
146.453
128.218
123.213
112.136
89.1308
54.9359
32.6946
16.938
4.60063
-9.25382
-22.2341
-33.8853
-48.3154
-64.9481
-81.2632
-87.3761
-88.0854
-88.8978
-89.6493
-89.9663
-90.0582
-89.9976
-90.3499
-89.9503
-89.5101
-88.7422
-87.0309
-84.1676
-77.6885
-59.3947
-44.2131
-97.2578
74.7353
79.7418
44.0708
12.5873
1.06917
-155.526
-43.7278
21.9228
-111.69
35.625
46.5189
-21.1679
20.247
-52.4129
31.5276
-34.6533
-72.1339
-84.8999
-115.946
-55.6834
-158.439
-36.4162
-70.663
-84.6094
-88.9152
-111.85
-101.53
-83.1624
-82.8428
-93.2995
-103.363
-112.042
-116.42
-111.117
-108.411
-116.979
-125.466
-125.873
-125.494
-126.726
-130.583
-132.783
-132.249
-129.63
-128.385
-128.898
-129.857
-130.67
-131.622
-132.591
-133.496
-134.069
-134.762
-135.467
-136.124
-136.78
-137.435
-138.097
-138.74
-139.372
-139.996
-140.629
-141.271
-141.911
-142.551
-143.19
-143.827
-144.463
-145.097
-145.731
-146.363
-146.995
-147.624
-148.254
-148.881
-149.509
-150.134
-150.759
-151.383
-152.006
-152.628
-153.248
-153.869
-154.487
-155.105
-155.721
-156.338
-156.953
-157.568
-158.181
-158.793
-159.405
-160.016
-160.627
-161.235
-161.845
-162.451
-163.059
-163.665
-164.271
-164.875
-165.48
-166.084
-166.687
-167.289
-167.891
-168.493
280.881
258.657
255.583
267.836
275.797
273.822
262.901
241.983
203.487
161.9
112.815
81.7451
66.8342
53.5595
41.8005
17.845
-9.60516
-25.4564
-34.5278
-43.2142
-52.7736
-60.5459
-66.7035
-73.0116
-80.112
-85.1085
-88.0978
-88.6279
-89.4059
-89.8143
-89.5284
-89.4247
-90.0398
-91.5489
-91.3521
-90.9299
-89.9377
-87.3004
-83.311
-77.3314
-61.0081
-33.5843
-71.6273
53.1139
79.2499
44.9451
-6.73622
-72.3842
-258.899
-220.161
-12.0508
-79.2229
-3.26702
41.4069
-36.893
16.4743
-48.3191
37.5826
-27.0554
-77.0817
-84.0295
-94.4591
-80.7632
-146.511
-120.38
-73.5451
-88.0917
-91.4703
-98.3591
-95.1604
-85.445
-78.3644
-76.6446
-88.3939
-104.727
-113.463
-110.406
-108.911
-116.471
-124.371
-127.086
-125.517
-125.583
-128.078
-132.078
-131.595
-128.81
-128.356
-129.244
-130.237
-131.04
-131.873
-132.767
-133.589
-134.189
-134.887
-135.592
-136.249
-136.906
-137.561
-138.222
-138.864
-139.496
-140.119
-140.752
-141.393
-142.034
-142.673
-143.312
-143.949
-144.585
-145.219
-145.853
-146.485
-147.117
-147.746
-148.376
-149.003
-149.631
-150.256
-150.881
-151.505
-152.128
-152.75
-153.37
-153.991
-154.609
-155.227
-155.843
-156.46
-157.075
-157.69
-158.303
-158.915
-159.527
-160.137
-160.749
-161.357
-161.967
-162.573
-163.181
-163.787
-164.393
-164.997
-165.602
-166.206
-166.809
-167.411
-168.013
-168.615
188.21
170.121
163.103
174.163
181.518
182.503
176.359
157.683
121.793
73.4269
32.4778
-0.127519
-17.3041
-26.235
-36.1286
-49.1084
-61.8058
-65.1583
-66.7649
-69.8625
-74.0797
-76.4753
-77.7229
-80.7465
-85.3297
-88.6301
-90.1326
-89.6941
-90.404
-91.2448
-91.6627
-91.9358
-92.0682
-92.4877
-92.1246
-91.7584
-90.9168
-88.8588
-86.0594
-78.9416
-62.339
-36.6396
-51.2671
-25.4274
70.3895
33.279
-130.506
-163.545
-224.501
-260.247
-5.78273
-6.18928
-1.50428
33.092
-48.161
-16.8715
-46.9035
34.4783
23.9253
-81.9519
-90.2898
-93.9411
-139.921
-136.478
-270.953
-82.5992
-89.8697
-93.5409
-99.4452
-98.1502
-93.4698
-87.4553
-79.5761
-89.1729
-102.318
-109.291
-107.811
-109.247
-116.673
-123.41
-125.965
-125.481
-125.568
-126.679
-129.763
-129.657
-128.051
-128.491
-130.105
-131.084
-131.79
-132.412
-133.013
-133.744
-134.322
-135.013
-135.717
-136.374
-137.032
-137.686
-138.347
-138.988
-139.619
-140.241
-140.874
-141.516
-142.156
-142.795
-143.434
-144.071
-144.707
-145.341
-145.975
-146.607
-147.239
-147.868
-148.498
-149.125
-149.753
-150.378
-151.003
-151.627
-152.25
-152.872
-153.492
-154.113
-154.731
-155.349
-155.965
-156.582
-157.197
-157.812
-158.425
-159.037
-159.649
-160.259
-160.871
-161.479
-162.089
-162.695
-163.303
-163.908
-164.515
-165.119
-165.724
-166.328
-166.931
-167.533
-168.135
-168.736
105.939
78.8306
73.4804
85.4489
98.9654
105.338
98.8396
79.7173
38.5484
-4.52014
-33.901
-49.9807
-56.0395
-60.1526
-63.887
-67.6072
-69.4704
-68.8257
-68.4761
-71.2926
-74.8509
-77.0474
-78.4124
-80.7099
-85.0549
-88.1964
-90.1773
-90.2746
-90.935
-91.4145
-91.2915
-91.3197
-91.861
-93.2949
-93.2223
-92.8373
-91.8321
-89.6535
-86.076
-79.0961
-62.5619
-36.9479
-22.2773
18.2484
45.4321
-43.0125
-304.494
-372.685
-203.832
-225.851
5.07044
19.883
4.48517
29.4119
-46.9875
-224.523
-38.4874
34.9778
2.17595
-80.615
-92.8173
-97.1187
-209.283
-132.249
-258.018
-124.424
-91.527
-95.9128
-101.864
-108.16
-109.579
-125.892
-109.719
-96.1988
-105.175
-110.466
-110.036
-112.123
-118.165
-122.88
-124.657
-124.94
-125.485
-126.257
-127.633
-127.88
-127.814
-128.891
-131.175
-132.519
-132.622
-132.795
-133.218
-133.897
-134.455
-135.139
-135.841
-136.499
-137.157
-137.811
-138.472
-139.113
-139.742
-140.364
-140.996
-141.638
-142.278
-142.918
-143.556
-144.193
-144.829
-145.463
-146.097
-146.729
-147.361
-147.99
-148.62
-149.247
-149.875
-150.5
-151.125
-151.749
-152.372
-152.994
-153.614
-154.235
-154.853
-155.471
-156.087
-156.704
-157.319
-157.934
-158.547
-159.159
-159.771
-160.381
-160.992
-161.601
-162.21
-162.817
-163.425
-164.03
-164.637
-165.241
-165.846
-166.45
-167.053
-167.655
-168.257
-168.858
25.2685
7.00316
1.11946
5.11214
9.50747
10.8645
7.38461
-5.51183
-28.9254
-52.9137
-63.6008
-68.5749
-71.535
-73.4675
-75.4729
-76.3501
-76.0039
-74.5406
-74.0752
-75.8637
-78.3103
-80.5259
-80.9301
-82.483
-86.3201
-89.3751
-91.1085
-90.9546
-91.7297
-92.5917
-93.0404
-93.4102
-93.7455
-94.3116
-94.0376
-93.5969
-92.6333
-90.8195
-87.5842
-80.6944
-64.1886
-45.9295
-30.7424
40.8725
-46.8536
-202.989
-395.574
-423.216
-171.08
-178.613
-3.59802
13.9151
9.07568
18.3943
-40.6823
-386.118
-24.7034
37.6952
-90.237
-82.9662
-94.6659
-100.755
-261.523
-125.887
-234.58
-184.893
-95.2274
-98.0639
-104.478
-114.461
-127.881
-179.438
-168.094
-114.358
-114.285
-121.012
-126.342
-127.282
-121.568
-123.251
-124.618
-125.195
-125.768
-126.396
-127.08
-127.595
-128.228
-129.635
-132.734
-134.502
-133.869
-133.193
-133.416
-134.049
-134.586
-135.265
-135.966
-136.624
-137.281
-137.936
-138.597
-139.237
-139.865
-140.487
-141.119
-141.76
-142.4
-143.04
-143.678
-144.315
-144.951
-145.585
-146.219
-146.851
-147.483
-148.112
-148.742
-149.369
-149.997
-150.622
-151.247
-151.871
-152.494
-153.116
-153.736
-154.357
-154.975
-155.593
-156.209
-156.826
-157.441
-158.055
-158.669
-159.281
-159.893
-160.503
-161.114
-161.723
-162.332
-162.939
-163.547
-164.152
-164.759
-165.363
-165.968
-166.571
-167.175
-167.777
-168.379
-168.98
-26.4718
-32.9026
-37.945
-38.7752
-40.4392
-42.7423
-49.1066
-56.6039
-64.1753
-69.012
-71.4382
-73.2151
-73.8889
-75.6225
-77.0548
-77.3816
-76.5306
-74.1299
-72.5521
-75.098
-78.6667
-81.0052
-81.8198
-83.5542
-86.9023
-89.4794
-91.5453
-91.4804
-92.1262
-92.595
-92.4437
-92.4793
-93.0693
-94.978
-95.0846
-94.7611
-93.7453
-91.688
-89.1995
-81.631
-65.3613
-64.3708
-23.8141
49.4385
-239.301
-143.354
-339.768
-371.832
-110.98
-40.4585
-99.7173
-16.7197
21.6548
-63.8628
-81.2268
-314.171
-30.8047
-7.89303
-218.105
-88.4293
-97.8564
-104.177
-248.754
-119.138
-192.429
-218.313
-104.537
-101.024
-110.487
-114.217
-156.067
-173.936
-188.314
-149.411
-138.039
-143.169
-156.623
-158.785
-137.922
-125.158
-124.87
-125.622
-126.156
-126.637
-127.198
-127.878
-128.773
-130.586
-133.319
-134.321
-134.781
-133.653
-133.686
-134.259
-134.778
-135.453
-136.152
-136.81
-137.468
-138.123
-138.783
-139.422
-140.05
-140.67
-141.302
-141.943
-142.583
-143.223
-143.861
-144.498
-145.134
-145.769
-146.403
-147.034
-147.666
-148.295
-148.925
-149.552
-150.18
-150.805
-151.43
-152.054
-152.677
-153.299
-153.919
-154.54
-155.158
-155.776
-156.392
-157.009
-157.624
-158.238
-158.852
-159.464
-160.076
-160.686
-161.297
-161.906
-162.515
-163.122
-163.73
-164.335
-164.942
-165.546
-166.151
-166.754
-167.358
-167.96
-168.562
-169.163
-52.1229
-51.9781
-52.6994
-54.3589
-58.8659
-65.3899
-70.5402
-74.5924
-76.0482
-75.9945
-76.4246
-77.3886
-79.082
-80.6533
-81.3751
-81.5426
-81.1474
-80.1049
-80.1845
-82.0867
-85.0495
-85.2819
-85.0473
-86.1976
-88.6697
-90.7936
-92.7422
-92.8874
-93.7666
-94.6276
-95.1399
-95.7107
-96.3703
-96.9708
-96.8187
-96.3808
-95.2271
-93.6811
-90.8889
-84.8116
-67.7274
-72.0027
-54.7689
39.8079
-177.059
-63.0487
-83.698
-279.292
-46.1189
-14.1218
-159.714
-61.7275
21.3037
-74.3714
-130.682
-230.763
-59.774
-22.2495
-181.78
-93.9477
-101.692
-108.545
-128.82
-97.9873
-113.659
-137.407
-120.603
-106.618
-117.786
-121.492
-151.671
-162.513
-173.584
-161.647
-148.072
-151.821
-159.786
-165.683
-151.753
-127.97
-125.493
-126.159
-126.714
-127.215
-127.804
-128.614
-129.65
-131.498
-133.291
-134.04
-134.954
-134.472
-134.012
-134.501
-135.026
-135.703
-136.4
-137.057
-137.715
-138.37
-139.031
-139.67
-140.296
-140.916
-141.547
-142.188
-142.828
-143.467
-144.105
-144.742
-145.378
-146.013
-146.647
-147.278
-147.91
-148.539
-149.169
-149.796
-150.424
-151.049
-151.674
-152.298
-152.921
-153.543
-154.163
-154.784
-155.402
-156.02
-156.636
-157.253
-157.868
-158.482
-159.096
-159.708
-160.32
-160.93
-161.541
-162.149
-162.759
-163.366
-163.974
-164.579
-165.186
-165.79
-166.395
-166.998
-167.602
-168.204
-168.806
-169.407
-57.9684
-57.0379
-57.5556
-58.3969
-62.3613
-67.207
-72.8067
-76.9431
-78.1599
-78.0664
-78.4313
-79.4723
-80.341
-81.8853
-83.0481
-82.8973
-82.0194
-80.409
-79.701
-81.9552
-87.5012
-90.1148
-87.2553
-86.7831
-89.2863
-91.2397
-92.8541
-92.7947
-93.5605
-94.2664
-94.3921
-94.594
-95.1979
-96.8859
-97.0939
-96.8614
-95.975
-94.256
-92.2735
-87.01
-70.5977
-70.5222
-56.1122
-17.5286
-98.2652
-22.7102
-48.333
-110.121
-48.7195
-23.6124
-138.84
-19.1108
9.46479
-37.0689
-79.8244
-95.4356
-45.1146
-35.0773
-113.656
-122.018
-106.864
-108.867
-110.495
-94.4531
-102.971
-107.238
-133.81
-117.718
-122.358
-115.789
-116.775
-146.193
-167.494
-179.922
-124.114
-124.346
-139.14
-147.147
-134.094
-125.584
-125.797
-126.589
-127.123
-127.524
-128.199
-129.106
-129.992
-131.558
-132.826
-133.549
-134.297
-134.601
-134.353
-134.755
-135.276
-135.952
-136.646
-137.305
-137.964
-138.618
-139.278
-139.916
-140.542
-141.161
-141.791
-142.432
-143.072
-143.711
-144.35
-144.987
-145.623
-146.257
-146.891
-147.522
-148.154
-148.783
-149.413
-150.04
-150.668
-151.293
-151.918
-152.542
-153.165
-153.787
-154.407
-155.028
-155.646
-156.264
-156.88
-157.497
-158.112
-158.726
-159.339
-159.952
-160.564
-161.174
-161.785
-162.393
-163.003
-163.61
-164.218
-164.823
-165.43
-166.034
-166.639
-167.242
-167.846
-168.448
-169.05
-169.651
-60.5263
-59.6339
-60.3365
-61.2321
-64.7563
-70.3134
-75.3083
-78.5541
-79.9513
-80.127
-80.5563
-81.382
-82.8703
-84.3561
-85.2768
-85.2575
-84.8153
-84.2995
-84.627
-86.8441
-93.4649
-103.253
-101.214
-92.1581
-91.0923
-92.3395
-93.8994
-94.1434
-95.0726
-95.9074
-96.3828
-97.0027
-97.7959
-98.5623
-98.5111
-98.0822
-97.0582
-95.9177
-93.5342
-88.3568
-76.9115
-75.4129
-79.8637
-225.21
-15.9021
-28.0088
-52.0213
-72.5607
-53.6967
-27.7215
-106.265
-19.777
-0.185831
-34.334
-66.6224
-67.6902
-42.0744
-53.8579
-81.2956
-126.596
-105.819
-106.801
-107.277
-100.558
-105.165
-106.201
-146.561
-149.524
-131.346
-107.838
-100.156
-113.401
-153.213
-179.767
-136.077
-122.29
-127.131
-130.681
-126.231
-124.91
-126.173
-127.214
-127.761
-128.097
-128.814
-130.134
-130.896
-131.556
-132.587
-132.913
-133.473
-134.344
-134.69
-135.033
-135.53
-136.202
-136.894
-137.555
-138.216
-138.868
-139.525
-140.162
-140.788
-141.406
-142.036
-142.676
-143.316
-143.955
-144.594
-145.231
-145.867
-146.501
-147.135
-147.766
-148.398
-149.027
-149.657
-150.284
-150.912
-151.537
-152.163
-152.786
-153.409
-154.031
-154.651
-155.272
-155.89
-156.508
-157.124
-157.741
-158.356
-158.97
-159.583
-160.196
-160.808
-161.418
-162.029
-162.637
-163.247
-163.854
-164.462
-165.067
-165.674
-166.278
-166.883
-167.486
-168.09
-168.692
-169.294
-169.895
-65.3659
-64.2132
-63.9618
-63.8914
-66.9427
-71.2915
-76.3852
-79.99
-81.2761
-81.6816
-82.2393
-83.2057
-84.1838
-85.5091
-86.6059
-86.7082
-85.873
-84.5
-84.3298
-86.0095
-91.1635
-101.165
-109.566
-100.1
-92.6018
-92.7213
-94.0026
-93.7691
-94.5146
-95.3837
-95.6908
-95.9872
-96.6587
-98.3603
-98.815
-98.5606
-97.6887
-96.1544
-94.3578
-89.2589
-80.4327
-79.6592
-154.711
-287.168
-10.8148
-32.1644
-50.1498
-67.9754
-59.1362
-32.5813
-49.2547
-30.2924
-11.0532
-39.5388
-68.2818
-71.8509
-55.7522
-70.0104
-83.8711
-104.07
-105.353
-108.47
-105.978
-105.267
-106.783
-106.399
-135.298
-143.007
-116.039
-108.377
-100.659
-102.099
-135.038
-166.55
-155.499
-125.51
-122.4
-123.904
-124.258
-125.025
-126.138
-127.433
-128.245
-128.47
-129.552
-131.184
-131.16
-131.328
-131.862
-132.364
-133.042
-134.027
-134.909
-135.31
-135.784
-136.452
-137.143
-137.806
-138.468
-139.12
-139.774
-140.407
-141.033
-141.651
-142.281
-142.921
-143.56
-144.2
-144.838
-145.475
-146.111
-146.745
-147.379
-148.01
-148.642
-149.271
-149.901
-150.528
-151.156
-151.781
-152.407
-153.03
-153.653
-154.275
-154.895
-155.516
-156.134
-156.752
-157.368
-157.985
-158.6
-159.214
-159.827
-160.44
-161.052
-161.662
-162.273
-162.881
-163.491
-164.098
-164.706
-165.311
-165.918
-166.522
-167.127
-167.73
-168.333
-168.936
-169.538
-170.139
-66.447
-65.3494
-65.969
-66.0974
-68.909
-73.5579
-78.1411
-81.2054
-82.4258
-82.7874
-83.2759
-84.1296
-85.307
-86.7999
-87.7867
-87.9079
-87.4055
-86.9278
-87.5332
-88.9969
-91.5015
-99.0461
-108.87
-106.325
-96.6396
-93.6985
-94.9051
-94.9759
-95.9005
-96.754
-97.3053
-97.9511
-98.8297
-99.5513
-99.4145
-99.0769
-98.3356
-97.487
-95.3158
-90.922
-82.6372
-80.2835
-142.592
-242.084
-53.9847
-39.2505
-55.5473
-69.1652
-63.5619
-37.1897
-31.7602
-41.5019
-26.2869
-48.5384
-72.9632
-71.8513
-64.7722
-77.1578
-87.7412
-99.2968
-106.446
-109.477
-108.023
-108.172
-108.022
-107.669
-118.348
-122.719
-112.654
-110.06
-103.278
-102.03
-117.196
-142.093
-130.74
-124.966
-121.853
-122.962
-124.473
-125.411
-126.242
-127.413
-128.517
-128.907
-129.422
-130.435
-130.811
-131.268
-131.85
-132.481
-133.223
-134.141
-135.071
-135.571
-136.036
-136.702
-137.392
-138.057
-138.72
-139.372
-140.023
-140.652
-141.277
-141.896
-142.525
-143.165
-143.805
-144.444
-145.082
-145.719
-146.355
-146.989
-147.623
-148.254
-148.886
-149.515
-150.145
-150.772
-151.4
-152.025
-152.651
-153.274
-153.897
-154.519
-155.139
-155.76
-156.378
-156.996
-157.612
-158.229
-158.844
-159.458
-160.071
-160.684
-161.296
-161.906
-162.517
-163.125
-163.735
-164.342
-164.95
-165.555
-166.162
-166.766
-167.371
-167.974
-168.577
-169.18
-169.782
-170.383
-70.8422
-69.3646
-68.6778
-68.1296
-70.3766
-74.1481
-78.8443
-82.0953
-83.4249
-83.9535
-84.6032
-85.5816
-86.4923
-87.6653
-88.7012
-88.8943
-88.4561
-87.2367
-87.0811
-88.3193
-90.0919
-94.1979
-103.314
-104.534
-98.4037
-94.2363
-94.8652
-94.5736
-95.3308
-96.2051
-96.6343
-96.9952
-97.6233
-99.247
-99.6011
-99.3832
-98.5839
-97.4729
-95.9296
-91.9763
-84.841
-80.9336
-101.532
-203.251
-77.7179
-44.5473
-54.8331
-70.6802
-68.0302
-42.4287
-34.3629
-50.952
-46.7313
-58.6655
-75.0947
-77.1166
-71.43
-82.1077
-90.5012
-100.483
-107.096
-110.076
-110.201
-109.655
-108.862
-108.484
-110.417
-113.384
-113.346
-111.352
-104.157
-103.844
-112.922
-122.106
-121.451
-122.576
-122.415
-123.329
-124.689
-125.671
-126.47
-127.384
-128.535
-129.006
-129.316
-129.953
-130.56
-131.257
-131.952
-132.678
-133.421
-134.298
-135.206
-135.798
-136.283
-136.951
-137.641
-138.308
-138.973
-139.624
-140.274
-140.898
-141.52
-142.14
-142.77
-143.409
-144.049
-144.688
-145.326
-145.963
-146.599
-147.233
-147.867
-148.499
-149.13
-149.76
-150.389
-151.017
-151.644
-152.27
-152.895
-153.518
-154.141
-154.763
-155.383
-156.004
-156.622
-157.24
-157.856
-158.473
-159.088
-159.702
-160.315
-160.928
-161.54
-162.15
-162.761
-163.369
-163.979
-164.586
-165.194
-165.799
-166.406
-167.01
-167.615
-168.218
-168.821
-169.424
-170.026
-170.627
-71.1458
-70.8113
-73.8076
-73.5886
-76.1243
-80.0419
-82.9163
-84.8433
-85.8834
-86.5794
-86.7247
-87.3128
-88.3415
-90.1381
-91.1756
-91.596
-91.8518
-93.1944
-95.351
-96.7756
-97.7051
-95.8661
-97.3958
-97.9558
-96.9058
-96.8314
-97.2514
-98.1683
-99.3834
-100.114
-101.031
-102.147
-103.119
-102.291
-101.3
-100.767
-99.9726
-100.599
-98.0599
-94.5323
-88.5582
-83.5939
-86.9177
-88.8388
-81.2332
-84.7786
-71.4399
-79.545
-101.666
-88.742
-51.6055
-46.3767
-56.9692
-88.7963
-87.5038
-82.1352
-85.6694
-92.6441
-98.9179
-104.415
-108.899
-111.621
-112.064
-111.174
-110.381
-109.976
-111.188
-112.066
-115.881
-113.969
-108.34
-106.517
-109.574
-119.093
-122.401
-122.097
-123.268
-124.378
-125.558
-126.42
-127.202
-127.743
-128.633
-129.487
-129.896
-130.562
-131.298
-132.055
-132.599
-133.183
-133.909
-134.767
-135.567
-136.172
-136.702
-137.37
-138.055
-138.719
-139.381
-140.028
-140.67
-141.284
-141.897
-142.511
-143.136
-143.77
-144.405
-145.039
-145.672
-146.304
-146.934
-147.563
-148.192
-148.819
-149.445
-150.069
-150.694
-151.316
-151.939
-152.559
-153.179
-153.798
-154.415
-155.032
-155.647
-156.263
-156.875
-157.489
-158.1
-158.712
-159.321
-159.93
-160.538
-161.146
-161.753
-162.358
-162.963
-163.566
-164.171
-164.772
-165.375
-165.975
-166.576
-167.175
-167.774
-168.371
-168.969
-169.564
-170.159
-170.752
-77.2331
-76.2545
-75.7665
-75.0343
-76.0476
-78.8832
-82.3531
-85.5502
-86.9372
-87.495
-88.302
-89.5138
-90.9541
-91.8337
-92.229
-92.2761
-92.1433
-91.9104
-91.7856
-91.7902
-92.1521
-93.2195
-92.9247
-93.7957
-95.552
-96.6093
-96.4866
-96.5056
-96.6725
-97.479
-97.6673
-97.6682