/*--------------------------------*- C++ -*----------------------------------*\
| =========                 |                                                 |
| \\      /  F ield         | OpenFOAM: The Open Source CFD Toolbox           |
|  \\    /   O peration     | Version:  v1912                                 |
|   \\  /    A nd           | Website:  www.openfoam.com                      |
|    \\/     M anipulation  |                                                 |
\*---------------------------------------------------------------------------*/
FoamFile
{
    version     2.0;
    format      ascii;
    class       volVectorField;
    location    "100";
    object      U;
}
// * * * * * * * * * * * * * * * * * * * * * * * * * * * * * * * * * * * * * //

dimensions      [0 1 -1 0 0 0 0];


internalField   nonuniform List<vector> 
14268
(
(-2.68155 -0.474593 0)
(-2.65185 -0.460047 0)
(-2.6393 -0.452153 0)
(-2.63847 -0.449762 0)
(-2.6464 -0.455569 0)
(-2.66347 -0.465747 0)
(-2.67179 -0.470595 0)
(-2.66914 -0.4735 0)
(-2.64865 -0.465833 0)
(-2.60859 -0.45241 0)
(-2.55486 -0.435357 0)
(-2.5067 -0.439091 0)
(-2.46674 -0.459464 0)
(-2.43679 -0.484729 0)
(-2.41549 -0.528181 0)
(-2.39459 -0.580528 0)
(-2.36193 -0.627639 0)
(-2.30503 -0.658499 0)
(-2.26518 -0.681654 0)
(-2.24911 -0.69724 0)
(-2.24339 -0.70965 0)
(-2.25727 -0.72177 0)
(-2.27256 -0.734665 0)
(-2.28058 -0.749609 0)
(-2.28147 -0.75974 0)
(-2.2528 -0.758419 0)
(-2.15228 -0.702552 0)
(-2.01951 -0.693025 0)
(-1.91952 -0.708396 0)
(-1.87634 -0.771828 0)
(-1.85315 -0.815358 0)
(-1.85126 -0.809984 0)
(-1.85177 -0.769603 0)
(-1.92291 -0.649338 0)
(-2.12901 -0.551865 0)
(-2.26562 -0.59535 0)
(-2.38113 -0.701551 0)
(-2.46116 -0.870899 0)
(-2.46586 -1.05484 0)
(-2.36745 -1.20041 0)
(-2.43187 -1.00592 0)
(-2.3085 -0.719925 0)
(-2.16302 -0.534814 0)
(-1.9953 -0.570311 0)
(-1.84344 -0.668598 0)
(-1.74841 -0.722399 0)
(-1.74179 -0.604359 0)
(-1.82919 -0.358652 0)
(-1.88325 -0.161118 0)
(-1.70621 -0.149132 0)
(-1.676 -0.170463 0)
(-1.64249 -0.216087 0)
(-1.56501 -0.202129 0)
(-1.59891 -0.126804 0)
(-1.69085 -0.182003 0)
(-1.28658 -0.178856 0)
(-0.791756 -0.205205 0)
(-0.693545 -0.074248 0)
(-0.816147 -0.0741868 0)
(-1.04574 -0.120464 0)
(-0.926197 -0.158063 0)
(-0.780786 -0.110475 0)
(-0.487741 -0.0447703 0)
(-0.227628 -0.0138122 0)
(-0.21915 -0.0487838 0)
(-0.255081 -0.0582046 0)
(-0.195817 -0.0428285 0)
(-0.112812 -0.0182716 0)
(-0.0655498 0.00915965 0)
(-0.019272 0.0501234 0)
(0.081248 0.00451548 0)
(0.178154 -0.0456331 0)
(0.292579 -0.0588525 0)
(0.362587 -0.00741539 0)
(0.387123 0.0160413 0)
(0.433636 0.0421769 0)
(0.514423 0.0913501 0)
(0.617061 0.113059 0)
(0.71321 0.0184874 0)
(0.818828 0.0114898 0)
(0.974609 -0.00555049 0)
(1.17758 -0.00840183 0)
(1.36873 -0.0224677 0)
(1.55043 -0.028586 0)
(1.80962 -0.0263647 0)
(2.20123 -0.00775724 0)
(2.35285 0.0205014 0)
(2.32143 0.0209195 0)
(2.34376 0.0577445 0)
(2.45619 0.0923245 0)
(2.7283 0.129651 0)
(2.99764 0.187536 0)
(2.98955 0.213179 0)
(2.70831 0.217913 0)
(2.01336 0.189702 0)
(1.53514 0.153265 0)
(1.39608 0.139143 0)
(1.38543 0.137844 0)
(1.39899 0.13947 0)
(1.40117 0.139688 0)
(1.38463 0.137658 0)
(1.34196 0.133858 0)
(1.29672 0.129366 0)
(1.26476 0.126636 0)
(1.22632 0.123155 0)
(1.16344 0.117219 0)
(1.07477 0.108423 0)
(1.0008 0.100826 0)
(0.944709 0.0950559 0)
(0.897221 0.0902258 0)
(0.8546 0.0859153 0)
(0.815305 0.0819509 0)
(0.778633 0.0782554 0)
(0.744199 0.0747875 0)
(0.71175 0.0715209 0)
(0.68109 0.0684355 0)
(0.652019 0.0655114 0)
(0.624335 0.0627282 0)
(0.597871 0.0600686 0)
(0.572508 0.0575203 0)
(0.548157 0.0550741 0)
(0.52475 0.052723 0)
(0.502235 0.0504617 0)
(0.480595 0.0482879 0)
(0.45981 0.0462 0)
(0.439854 0.0441954 0)
(0.420696 0.0422708 0)
(0.402307 0.0404235 0)
(0.384664 0.0386511 0)
(0.367747 0.0369515 0)
(0.351524 0.0353218 0)
(0.33596 0.0337584 0)
(0.321018 0.0322575 0)
(0.30667 0.0308163 0)
(0.292891 0.0294323 0)
(0.279658 0.0281032 0)
(0.266952 0.026827 0)
(0.254754 0.0256017 0)
(0.243046 0.0244257 0)
(0.23181 0.0232972 0)
(0.221032 0.0222144 0)
(0.210695 0.0211761 0)
(0.200783 0.0201804 0)
(0.191287 0.0192265 0)
(0.182178 0.0183113 0)
(0.173471 0.0174366 0)
(0.165089 0.0165947 0)
(0.157132 0.0157951 0)
(0.14939 0.0150185 0)
(0.142063 0.0142796 0)
(-2.78089 -0.075788 0)
(-2.72016 -0.0804156 0)
(-2.68868 -0.0831671 0)
(-2.67811 -0.0839987 0)
(-2.67632 -0.0786274 0)
(-2.68577 -0.0711653 0)
(-2.69154 -0.0680721 0)
(-2.68738 -0.0650221 0)
(-2.66452 -0.0692158 0)
(-2.61769 -0.0747903 0)
(-2.55007 -0.0802799 0)
(-2.50039 -0.0665731 0)
(-2.47494 -0.0393427 0)
(-2.4658 -0.00962082 0)
(-2.46663 0.0355249 0)
(-2.48932 0.0855954 0)
(-2.5292 0.128312 0)
(-2.58787 0.152934 0)
(-2.64004 0.165392 0)
(-2.67112 0.166015 0)
(-2.67983 0.170261 0)
(-2.65628 0.182355 0)
(-2.5877 0.200233 0)
(-2.52307 0.220557 0)
(-2.4643 0.243374 0)
(-2.39476 0.262779 0)
(-2.32293 0.229394 0)
(-2.29496 0.240614 0)
(-2.31047 0.26693 0)
(-2.38672 0.329778 0)
(-2.40038 0.377334 0)
(-2.32069 0.383027 0)
(-2.26332 0.352353 0)
(-2.25358 0.230827 0)
(-2.31291 0.0954549 0)
(-2.30154 0.119975 0)
(-2.25092 0.219514 0)
(-2.25699 0.38055 0)
(-2.27044 0.5603 0)
(-2.19843 0.721253 0)
(-2.31033 0.511673 0)
(-2.21343 0.252945 0)
(-1.94634 0.118776 0)
(-1.80133 0.196174 0)
(-1.87329 0.298853 0)
(-1.88118 0.35411 0)
(-1.71618 0.256359 0)
(-1.5258 0.0276932 0)
(-1.2765 -0.155539 0)
(-1.01195 -0.12817 0)
(-0.816465 -0.0788869 0)
(-0.68321 -0.0196518 0)
(-0.447092 0.00388605 0)
(-0.119559 -0.0360423 0)
(-1.34434 -0.123405 0)
(-1.58431 -0.119817 0)
(-0.802472 0.0370982 0)
(0.756878 0.073112 0)
(1.12591 0.116496 0)
(1.19556 0.140781 0)
(1.27855 0.19223 0)
(1.00679 0.130365 0)
(0.0981946 0.00427663 0)
(0.510724 0.0516139 0)
(1.1059 0.138938 0)
(1.46999 0.179717 0)
(1.55177 0.175847 0)
(1.56558 0.162634 0)
(1.44751 0.129078 0)
(1.0622 0.0531362 0)
(0.976747 0.0981235 0)
(1.03222 0.161132 0)
(1.22889 0.209641 0)
(1.52193 0.195835 0)
(1.79482 0.201922 0)
(1.98611 0.199423 0)
(2.17737 0.178262 0)
(2.47504 0.195495 0)
(2.94091 0.346257 0)
(3.28796 0.39334 0)
(3.26574 0.420995 0)
(3.12959 0.429478 0)
(2.6271 0.4146 0)
(1.93619 0.368373 0)
(1.6675 0.361588 0)
(1.64131 0.375879 0)
(1.70622 0.366068 0)
(1.88957 0.381963 0)
(2.04421 0.359649 0)
(2.2259 0.349334 0)
(2.50267 0.364207 0)
(2.74054 0.364111 0)
(2.76095 0.358446 0)
(2.55301 0.321125 0)
(1.99532 0.23215 0)
(1.62412 0.175215 0)
(1.53746 0.157167 0)
(1.53609 0.154227 0)
(1.54889 0.155115 0)
(1.5462 0.155539 0)
(1.51875 0.154235 0)
(1.44829 0.146904 0)
(1.34938 0.136718 0)
(1.27993 0.129165 0)
(1.21965 0.123585 0)
(1.1487 0.1172 0)
(1.06575 0.109001 0)
(0.997763 0.101725 0)
(0.943019 0.0958704 0)
(0.895835 0.0909529 0)
(0.853302 0.0865776 0)
(0.814055 0.0825637 0)
(0.777422 0.0788273 0)
(0.743025 0.0753242 0)
(0.710613 0.072026 0)
(0.679988 0.0689127 0)
(0.650951 0.0659641 0)
(0.6233 0.0631598 0)
(0.596869 0.0604815 0)
(0.571538 0.0579164 0)
(0.547219 0.0554549 0)
(0.523842 0.0530895 0)
(0.501359 0.0508143 0)
(0.479748 0.0486269 0)
(0.458993 0.0465257 0)
(0.439066 0.0445083 0)
(0.419936 0.0425714 0)
(0.401575 0.0407122 0)
(0.38396 0.0389281 0)
(0.367068 0.0372173 0)
(0.350871 0.0355769 0)
(0.335332 0.0340034 0)
(0.320414 0.0324931 0)
(0.306089 0.0310427 0)
(0.292332 0.0296501 0)
(0.279122 0.0283125 0)
(0.266438 0.0270283 0)
(0.25426 0.0257952 0)
(0.242572 0.0246116 0)
(0.231357 0.0234758 0)
(0.220597 0.0223859 0)
(0.210279 0.0213408 0)
(0.200384 0.0203384 0)
(0.190906 0.0193782 0)
(0.181813 0.0184568 0)
(0.173122 0.0175763 0)
(0.164756 0.0167287 0)
(0.156814 0.0159233 0)
(0.149086 0.0151436 0)
(0.141773 0.0143942 0)
(-2.64098 -0.467164 0)
(-2.62883 -0.454823 0)
(-2.63067 -0.44771 0)
(-2.64937 -0.446393 0)
(-2.67212 -0.452588 0)
(-2.68629 -0.462077 0)
(-2.68956 -0.467076 0)
(-2.68306 -0.470578 0)
(-2.66144 -0.463454 0)
(-2.63075 -0.45091 0)
(-2.59309 -0.434497 0)
(-2.5543 -0.438291 0)
(-2.51775 -0.457689 0)
(-2.48843 -0.482887 0)
(-2.46138 -0.524448 0)
(-2.42927 -0.571578 0)
(-2.37036 -0.611019 0)
(-2.3041 -0.633443 0)
(-2.2629 -0.647164 0)
(-2.25039 -0.650824 0)
(-2.25062 -0.657043 0)
(-2.26823 -0.669368 0)
(-2.2924 -0.683414 0)
(-2.30909 -0.698597 0)
(-2.31371 -0.715946 0)
(-2.29449 -0.728308 0)
(-2.21053 -0.679812 0)
(-2.06462 -0.671013 0)
(-1.94214 -0.675839 0)
(-1.88192 -0.721602 0)
(-1.8576 -0.757333 0)
(-1.84917 -0.762273 0)
(-1.83083 -0.734744 0)
(-1.8992 -0.631311 0)
(-2.05292 -0.516836 0)
(-2.24347 -0.566739 0)
(-2.42501 -0.677813 0)
(-2.53793 -0.844212 0)
(-2.51337 -1.02975 0)
(-2.37653 -1.16775 0)
(-2.35145 -0.964944 0)
(-2.16771 -0.695807 0)
(-1.94435 -0.529994 0)
(-1.80186 -0.585093 0)
(-1.71415 -0.634495 0)
(-1.7756 -0.66644 0)
(-1.84349 -0.575753 0)
(-1.74066 -0.355698 0)
(-1.47887 -0.137392 0)
(-0.960481 -0.0796722 0)
(-0.491155 -0.0636844 0)
(-0.340126 -0.0856018 0)
(-0.114435 -0.0611471 0)
(-0.965914 -0.0678583 0)
(-1.53594 -0.137327 0)
(-1.59887 -0.232723 0)
(-0.623398 -0.214058 0)
(0.161904 0.0239185 0)
(1.63919 0.159248 0)
(1.58605 0.139483 0)
(0.285597 -0.0475988 0)
(-0.585648 -0.0721952 0)
(-0.995713 -0.0842776 0)
(0.196096 -0.0092426 0)
(1.01562 0.0708407 0)
(1.41345 0.10695 0)
(1.40378 0.117689 0)
(1.3188 0.125497 0)
(0.998266 0.119156 0)
(0.678837 0.123791 0)
(0.82188 0.0825157 0)
(1.01558 0.0431519 0)
(1.37725 0.0330429 0)
(1.85484 0.132038 0)
(2.02557 0.178071 0)
(1.97038 0.19341 0)
(2.03716 0.232807 0)
(2.47404 0.292586 0)
(2.6727 0.194976 0)
(2.05318 0.135962 0)
(1.4925 0.0528246 0)
(1.57292 0.0480373 0)
(1.92665 0.0593461 0)
(2.38614 0.0780261 0)
(2.39661 0.043202 0)
(2.38435 0.0316528 0)
(2.37833 0.0532467 0)
(2.29287 0.0496738 0)
(2.30232 0.090383 0)
(2.43331 0.126628 0)
(2.74541 0.161529 0)
(3.00045 0.211673 0)
(2.92076 0.228619 0)
(2.60813 0.236841 0)
(2.01682 0.214751 0)
(1.72193 0.18244 0)
(1.61329 0.163086 0)
(1.57777 0.156903 0)
(1.57056 0.155999 0)
(1.56466 0.156273 0)
(1.54494 0.15602 0)
(1.49033 0.152764 0)
(1.39558 0.142902 0)
(1.29624 0.132421 0)
(1.2156 0.124669 0)
(1.13458 0.117507 0)
(1.05873 0.109891 0)
(0.995071 0.102767 0)
(0.941577 0.0968296 0)
(0.894743 0.0918165 0)
(0.852332 0.0873657 0)
(0.813151 0.0832924 0)
(0.776569 0.0795071 0)
(0.742219 0.0759615 0)
(0.709848 0.0726256 0)
(0.679262 0.0694788 0)
(0.650261 0.0665011 0)
(0.622644 0.0636715 0)
(0.596244 0.0609708 0)
(0.570942 0.0583854 0)
(0.546651 0.0559053 0)
(0.523301 0.0535225 0)
(0.500842 0.0512305 0)
(0.479256 0.0490267 0)
(0.458524 0.0469095 0)
(0.43862 0.0448768 0)
(0.419511 0.0429251 0)
(0.40117 0.0410515 0)
(0.383574 0.0392535 0)
(0.366701 0.0375293 0)
(0.350522 0.0358761 0)
(0.334999 0.0342906 0)
(0.320097 0.0327689 0)
(0.305787 0.0313076 0)
(0.292045 0.0299045 0)
(0.278848 0.0285569 0)
(0.266177 0.027263 0)
(0.254012 0.0260205 0)
(0.242336 0.0248279 0)
(0.231132 0.0236834 0)
(0.220383 0.0225852 0)
(0.210075 0.0215319 0)
(0.200191 0.0205217 0)
(0.190722 0.0195539 0)
(0.181638 0.0186252 0)
(0.172956 0.0177377 0)
(0.164598 0.0168834 0)
(0.156664 0.0160712 0)
(0.148943 0.0152874 0)
(0.141638 0.0145265 0)
(-2.77469 -0.0848842 0)
(-2.71025 -0.0865059 0)
(-2.68044 -0.0885252 0)
(-2.67495 -0.0898828 0)
(-2.68449 -0.0861294 0)
(-2.70692 -0.0800952 0)
(-2.7163 -0.0765586 0)
(-2.71048 -0.0728537 0)
(-2.67755 -0.0773274 0)
(-2.62066 -0.0838577 0)
(-2.54555 -0.0899558 0)
(-2.48802 -0.0746888 0)
(-2.46164 -0.0476884 0)
(-2.45675 -0.0176227 0)
(-2.47298 0.0256902 0)
(-2.51088 0.0718583 0)
(-2.5492 0.113236 0)
(-2.5864 0.139805 0)
(-2.62126 0.157282 0)
(-2.64352 0.162212 0)
(-2.65023 0.168267 0)
(-2.63321 0.180189 0)
(-2.57068 0.197458 0)
(-2.51004 0.217614 0)
(-2.45095 0.242378 0)
(-2.34791 0.262742 0)
(-2.22795 0.229308 0)
(-2.1467 0.233532 0)
(-2.12514 0.246262 0)
(-2.14512 0.276499 0)
(-2.20555 0.292459 0)
(-2.28344 0.298282 0)
(-2.34046 0.284999 0)
(-2.39318 0.202209 0)
(-2.33695 0.100749 0)
(-2.30498 0.128999 0)
(-2.21954 0.221856 0)
(-1.88438 0.398942 0)
(-1.66626 0.599278 0)
(-1.80359 0.748388 0)
(-2.23041 0.505153 0)
(-2.24811 0.24327 0)
(-1.82804 0.139277 0)
(-1.69823 0.216306 0)
(-1.64114 0.239796 0)
(-1.75291 0.23298 0)
(-1.80873 0.161031 0)
(-2.06932 -0.0459203 0)
(-2.43546 -0.259951 0)
(-1.25173 -0.164825 0)
(-0.663065 -0.0488465 0)
(-0.697683 -0.0430078 0)
(-0.309952 -0.0131203 0)
(-0.704095 -0.020054 0)
(-1.57216 -0.13531 0)
(-1.4084 -0.131025 0)
(-0.612498 -0.0580552 0)
(0.209328 -0.0321422 0)
(1.44663 0.111566 0)
(1.53902 0.219355 0)
(1.03256 0.237695 0)
(0.260595 0.084967 0)
(-0.258483 -0.0650481 0)
(0.318245 -0.0423714 0)
(0.82817 0.0677677 0)
(1.43711 0.151581 0)
(1.46005 0.163135 0)
(1.43069 0.161561 0)
(1.1758 0.129763 0)
(1.05654 0.0697314 0)
(0.785482 0.0812784 0)
(0.746997 0.125505 0)
(1.24494 0.225244 0)
(1.87663 0.237069 0)
(2.14489 0.238627 0)
(2.14349 0.234405 0)
(2.16355 0.202313 0)
(2.28085 0.214806 0)
(2.70867 0.353711 0)
(3.07291 0.376698 0)
(3.02142 0.408226 0)
(2.87112 0.394228 0)
(2.78049 0.412743 0)
(2.68116 0.427952 0)
(2.42682 0.422986 0)
(1.94386 0.370619 0)
(1.83146 0.345353 0)
(1.97465 0.360722 0)
(2.145 0.329495 0)
(2.30618 0.301235 0)
(2.5578 0.314819 0)
(2.80627 0.343009 0)
(2.78498 0.352314 0)
(2.5562 0.327284 0)
(2.05093 0.25137 0)
(1.76735 0.196895 0)
(1.63878 0.169673 0)
(1.58778 0.159992 0)
(1.57434 0.157907 0)
(1.56543 0.157844 0)
(1.54713 0.157427 0)
(1.50189 0.155295 0)
(1.41742 0.147657 0)
(1.3072 0.135846 0)
(1.21321 0.126397 0)
(1.12952 0.118641 0)
(1.05572 0.110963 0)
(0.993555 0.103775 0)
(0.94063 0.0977405 0)
(0.893999 0.0926425 0)
(0.851675 0.0881261 0)
(0.812548 0.0840007 0)
(0.776009 0.0801716 0)
(0.741695 0.0765879 0)
(0.709358 0.0732177 0)
(0.678802 0.0700403 0)
(0.649829 0.0670357 0)
(0.622237 0.0641826 0)
(0.59586 0.061461 0)
(0.570579 0.0588565 0)
(0.546307 0.0563587 0)
(0.522975 0.0539593 0)
(0.500534 0.0516512 0)
(0.478965 0.0494315 0)
(0.458248 0.0472989 0)
(0.438358 0.0452511 0)
(0.419263 0.043285 0)
(0.400935 0.0413974 0)
(0.383352 0.0395856 0)
(0.36649 0.0378481 0)
(0.350322 0.0361823 0)
(0.33481 0.0345848 0)
(0.319918 0.0330517 0)
(0.305617 0.0315795 0)
(0.291884 0.0301659 0)
(0.278695 0.0288081 0)
(0.266032 0.0275044 0)
(0.253875 0.0262525 0)
(0.242206 0.0250508 0)
(0.231008 0.0238974 0)
(0.220266 0.0227906 0)
(0.209964 0.0217291 0)
(0.200085 0.0207108 0)
(0.190621 0.0197353 0)
(0.181543 0.0187991 0)
(0.172865 0.0179044 0)
(0.164512 0.0170433 0)
(0.156582 0.0162241 0)
(0.148866 0.015436 0)
(0.141565 0.0146635 0)
(-2.62923 -0.457549 0)
(-2.61125 -0.446209 0)
(-2.60998 -0.438091 0)
(-2.61593 -0.435539 0)
(-2.63786 -0.442169 0)
(-2.66296 -0.453645 0)
(-2.67239 -0.461599 0)
(-2.66837 -0.467667 0)
(-2.64317 -0.459737 0)
(-2.59766 -0.447023 0)
(-2.54051 -0.430086 0)
(-2.49487 -0.433972 0)
(-2.46507 -0.451785 0)
(-2.44964 -0.477188 0)
(-2.44376 -0.519961 0)
(-2.44087 -0.568126 0)
(-2.4167 -0.611402 0)
(-2.37739 -0.635236 0)
(-2.34136 -0.649648 0)
(-2.32123 -0.65367 0)
(-2.31597 -0.658974 0)
(-2.31567 -0.670818 0)
(-2.3132 -0.685769 0)
(-2.29287 -0.70012 0)
(-2.2488 -0.725219 0)
(-2.18579 -0.740107 0)
(-2.11108 -0.693273 0)
(-2.03716 -0.675161 0)
(-1.97823 -0.657768 0)
(-1.91934 -0.672671 0)
(-1.86968 -0.687751 0)
(-1.83342 -0.704549 0)
(-1.83297 -0.699144 0)
(-1.97914 -0.622071 0)
(-2.11569 -0.526017 0)
(-2.14155 -0.556222 0)
(-1.69898 -0.610738 0)
(-0.762352 -0.664872 0)
(-0.31249 -0.798759 0)
(-0.313097 -0.959275 0)
(-1.05645 -0.804624 0)
(-3.11053 -0.761726 0)
(-2.34824 -0.558665 0)
(-1.77619 -0.561371 0)
(-1.70636 -0.556633 0)
(-1.74072 -0.566594 0)
(-1.74046 -0.523918 0)
(-1.76256 -0.347503 0)
(-2.22174 -0.285049 0)
(-1.54006 -0.204387 0)
(-1.16159 -0.183325 0)
(-0.851735 -0.136522 0)
(-0.167493 -0.0182642 0)
(-0.843896 -0.0683624 0)
(-1.67236 -0.153046 0)
(-1.37803 -0.199477 0)
(-0.707907 -0.179377 0)
(0.209616 -0.147039 0)
(1.06881 0.0718356 0)
(1.40467 0.135493 0)
(0.497059 0.0287877 0)
(-0.319296 -0.0213841 0)
(-0.361668 -0.0469465 0)
(0.290613 -0.0222935 0)
(0.820134 -0.00430124 0)
(1.23282 0.0950594 0)
(1.42479 0.122121 0)
(1.45049 0.133054 0)
(1.10021 0.160863 0)
(0.411534 0.115632 0)
(0.654212 0.035974 0)
(0.918019 -0.0158968 0)
(1.42298 -0.0625272 0)
(2.0174 0.0656343 0)
(2.2303 0.145391 0)
(2.16245 0.133763 0)
(2.10337 0.129308 0)
(2.11707 0.0850902 0)
(2.04666 0.10951 0)
(2.05198 0.197517 0)
(2.57406 0.164359 0)
(2.53282 0.153834 0)
(2.40028 0.112929 0)
(2.39083 0.0947411 0)
(2.35322 0.0698034 0)
(2.18551 0.0547248 0)
(2.16694 0.0692759 0)
(2.23749 0.0662569 0)
(2.24785 0.0994474 0)
(2.34292 0.131967 0)
(2.55399 0.158735 0)
(2.77664 0.20496 0)
(2.79162 0.244403 0)
(2.56099 0.267141 0)
(2.07741 0.2429 0)
(1.79397 0.200055 0)
(1.6527 0.171379 0)
(1.59392 0.159979 0)
(1.57771 0.157329 0)
(1.56752 0.15732 0)
(1.54816 0.158079 0)
(1.50506 0.155827 0)
(1.42619 0.150122 0)
(1.31528 0.138329 0)
(1.21271 0.12815 0)
(1.12708 0.120038 0)
(1.05395 0.112195 0)
(0.992537 0.104867 0)
(0.939935 0.098705 0)
(0.893437 0.0935107 0)
(0.851181 0.0889229 0)
(0.812098 0.0847416 0)
(0.775595 0.0808658 0)
(0.741313 0.0772414 0)
(0.709003 0.0738347 0)
(0.678473 0.0706248 0)
(0.649522 0.0675917 0)
(0.621949 0.0647135 0)
(0.59559 0.0619696 0)
(0.570326 0.0593449 0)
(0.546069 0.0568283 0)
(0.522751 0.0544113 0)
(0.500323 0.0520862 0)
(0.478765 0.0498497 0)
(0.458059 0.0477007 0)
(0.43818 0.0456372 0)
(0.419095 0.0436558 0)
(0.400776 0.0417534 0)
(0.383202 0.0399274 0)
(0.366348 0.0381759 0)
(0.350188 0.036497 0)
(0.334683 0.0348869 0)
(0.319797 0.033342 0)
(0.305503 0.0318584 0)
(0.291776 0.0304338 0)
(0.278593 0.0290655 0)
(0.265935 0.0277517 0)
(0.253782 0.02649 0)
(0.242118 0.0252788 0)
(0.230925 0.0241162 0)
(0.220187 0.0230006 0)
(0.209889 0.0219305 0)
(0.200014 0.020904 0)
(0.190554 0.0199205 0)
(0.181478 0.0189766 0)
(0.172804 0.0180745 0)
(0.164454 0.0172063 0)
(0.156527 0.01638 0)
(0.148813 0.0155874 0)
(0.141516 0.0148031 0)
(-2.72098 -0.0904034 0)
(-2.67444 -0.0902658 0)
(-2.65532 -0.0911471 0)
(-2.65091 -0.0906784 0)
(-2.66113 -0.0854225 0)
(-2.67878 -0.0791653 0)
(-2.6872 -0.0752072 0)
(-2.68591 -0.07246 0)
(-2.66121 -0.0802916 0)
(-2.60896 -0.0860976 0)
(-2.53837 -0.0871523 0)
(-2.47994 -0.068351 0)
(-2.44781 -0.0423275 0)
(-2.43941 -0.0123715 0)
(-2.44694 0.0310357 0)
(-2.47449 0.0746243 0)
(-2.50256 0.114246 0)
(-2.52308 0.137154 0)
(-2.53761 0.152234 0)
(-2.54652 0.15589 0)
(-2.54768 0.158443 0)
(-2.52408 0.169103 0)
(-2.47557 0.18752 0)
(-2.43174 0.207171 0)
(-2.38819 0.242588 0)
(-2.33341 0.266952 0)
(-2.22309 0.249554 0)
(-2.12583 0.252911 0)
(-2.08352 0.249061 0)
(-2.09333 0.272219 0)
(-2.17042 0.286664 0)
(-2.24712 0.305378 0)
(-2.28988 0.305799 0)
(-2.17768 0.230923 0)
(-1.75365 0.148469 0)
(-1.23143 0.212808 0)
(-0.0289641 0.396948 0)
(1.6966 0.709606 0)
(1.4315 0.883561 0)
(0.0506118 0.948986 0)
(0.101264 0.715076 0)
(-2.47964 0.127892 0)
(-1.43022 0.0910079 0)
(-1.89321 0.155508 0)
(-1.6976 0.221676 0)
(-1.72718 0.22461 0)
(-1.79205 0.182316 0)
(-1.86202 -0.0181921 0)
(-2.20523 -0.197129 0)
(-1.22722 -0.127069 0)
(-0.141673 0.0630431 0)
(-1.17077 -0.07813 0)
(-0.241544 -0.0264018 0)
(-0.847387 -0.0437625 0)
(-1.6701 -0.111799 0)
(-1.41155 -0.164182 0)
(-0.719894 -0.0804439 0)
(0.213228 -0.0391605 0)
(0.836375 0.0268054 0)
(1.42642 0.161792 0)
(0.804258 0.12541 0)
(-0.123734 0.0442979 0)
(-0.424754 -0.0385137 0)
(0.316803 -0.00979005 0)
(0.9261 0.0591262 0)
(1.17834 0.0864749 0)
(1.48611 0.166742 0)
(1.46929 0.167628 0)
(1.24101 0.0945686 0)
(0.615633 0.00738116 0)
(0.557426 0.0644727 0)
(0.664476 0.111858 0)
(1.15871 0.247794 0)
(1.75936 0.266674 0)
(2.11245 0.280055 0)
(2.14986 0.302616 0)
(2.19698 0.293989 0)
(2.28224 0.293465 0)
(2.38446 0.241964 0)
(2.30687 0.228102 0)
(2.16763 0.305538 0)
(2.43353 0.334625 0)
(2.53502 0.376214 0)
(2.49009 0.389556 0)
(2.29521 0.398823 0)
(2.07355 0.369693 0)
(2.16126 0.330338 0)
(2.1909 0.32839 0)
(2.25233 0.306815 0)
(2.36442 0.269479 0)
(2.57576 0.269886 0)
(2.73014 0.304556 0)
(2.7065 0.319923 0)
(2.50184 0.315263 0)
(2.06544 0.2626 0)
(1.80285 0.208458 0)
(1.65964 0.175865 0)
(1.59854 0.162788 0)
(1.58097 0.159086 0)
(1.56956 0.158838 0)
(1.54915 0.159283 0)
(1.50599 0.158452 0)
(1.42987 0.15237 0)
(1.32021 0.141381 0)
(1.21248 0.13012 0)
(1.12545 0.121486 0)
(1.05265 0.113445 0)
(0.991743 0.105966 0)
(0.939375 0.0996744 0)
(0.892982 0.0943841 0)
(0.850781 0.0897254 0)
(0.811738 0.0854885 0)
(0.775266 0.0815661 0)
(0.74101 0.0779009 0)
(0.708724 0.0744578 0)
(0.678215 0.0712151 0)
(0.649282 0.0681533 0)
(0.621726 0.06525 0)
(0.595381 0.0624836 0)
(0.57013 0.0598384 0)
(0.545885 0.0573029 0)
(0.522578 0.054868 0)
(0.500159 0.0525256 0)
(0.478611 0.0502722 0)
(0.457914 0.0481066 0)
(0.438043 0.0460272 0)
(0.418966 0.0440303 0)
(0.400654 0.042113 0)
(0.383086 0.0402724 0)
(0.366239 0.0385069 0)
(0.350084 0.0368146 0)
(0.334584 0.0351919 0)
(0.319704 0.0336349 0)
(0.305415 0.0321398 0)
(0.291692 0.0307042 0)
(0.278513 0.0293252 0)
(0.265859 0.0280011 0)
(0.25371 0.0267294 0)
(0.242049 0.0255086 0)
(0.23086 0.0243369 0)
(0.220125 0.0232123 0)
(0.20983 0.0221335 0)
(0.199958 0.0210986 0)
(0.1905 0.020107 0)
(0.181427 0.0191554 0)
(0.172756 0.0182458 0)
(0.164408 0.0173705 0)
(0.156483 0.0165369 0)
(0.148771 0.0157398 0)
(0.141476 0.0149437 0)
(-2.63151 -0.453052 0)
(-2.60888 -0.442154 0)
(-2.60897 -0.435387 0)
(-2.61893 -0.433142 0)
(-2.63504 -0.437786 0)
(-2.64917 -0.447628 0)
(-2.65284 -0.455713 0)
(-2.64561 -0.461483 0)
(-2.61909 -0.452267 0)
(-2.57292 -0.440408 0)
(-2.51418 -0.426369 0)
(-2.46144 -0.431464 0)
(-2.42835 -0.447229 0)
(-2.41516 -0.473253 0)
(-2.41296 -0.514408 0)
(-2.41352 -0.558838 0)
(-2.39862 -0.600617 0)
(-2.36931 -0.622258 0)
(-2.34609 -0.635178 0)
(-2.33759 -0.638424 0)
(-2.33816 -0.641715 0)
(-2.33966 -0.652545 0)
(-2.32741 -0.667503 0)
(-2.29466 -0.678777 0)
(-2.24566 -0.707331 0)
(-2.17176 -0.724748 0)
(-2.11718 -0.697883 0)
(-2.07577 -0.682148 0)
(-2.04396 -0.662461 0)
(-1.99406 -0.674123 0)
(-1.94864 -0.69035 0)
(-1.91506 -0.714607 0)
(-1.90253 -0.716193 0)
(-1.70295 -0.617226 0)
(-0.984317 -0.422369 0)
(0.467633 -0.312413 0)
(3.23594 -0.140962 0)
(4.55577 -0.117246 0)
(3.9048 -0.315995 0)
(1.84055 -0.681952 0)
(0.172618 -0.509027 0)
(-0.949359 -0.373025 0)
(-0.976992 -0.425251 0)
(-2.64586 -0.624428 0)
(-1.72235 -0.562765 0)
(-1.76789 -0.560713 0)
(-1.79336 -0.527584 0)
(-1.91373 -0.311631 0)
(-2.48357 -0.347725 0)
(-1.04233 -0.319847 0)
(-0.0237708 -0.201651 0)
(-0.456119 -0.109124 0)
(-0.412206 -0.050944 0)
(-0.857172 0.0405408 0)
(-1.68925 -0.111802 0)
(-1.83346 -0.239448 0)
(-0.295894 -0.141412 0)
(0.240228 -0.0554181 0)
(1.08737 0.0769019 0)
(1.47164 0.21022 0)
(0.665401 0.173893 0)
(-0.112704 0.0625058 0)
(-0.381388 -0.0778111 0)
(0.311209 0.0306206 0)
(0.939097 0.0811808 0)
(1.3522 0.101517 0)
(1.63216 0.13116 0)
(1.5133 0.161382 0)
(1.25605 0.173037 0)
(0.639834 0.108201 0)
(0.429358 0.0226608 0)
(0.734989 0.0537263 0)
(1.40821 -0.00671289 0)
(2.08511 0.104238 0)
(2.30861 0.206277 0)
(2.15567 0.176457 0)
(2.16484 0.141746 0)
(2.21975 0.152563 0)
(2.3926 0.223881 0)
(2.53849 0.188907 0)
(2.18411 0.14423 0)
(2.43936 0.162294 0)
(2.56561 0.149752 0)
(2.51979 0.137603 0)
(2.41242 0.101333 0)
(2.23356 0.0737782 0)
(2.1509 0.0815559 0)
(2.1569 0.101401 0)
(2.19306 0.121947 0)
(2.30127 0.170393 0)
(2.57073 0.206521 0)
(2.75664 0.211506 0)
(2.718 0.251613 0)
(2.47386 0.277373 0)
(2.04248 0.253181 0)
(1.80752 0.209579 0)
(1.66419 0.176505 0)
(1.60088 0.162284 0)
(1.58206 0.158549 0)
(1.57041 0.1586 0)
(1.54987 0.159671 0)
(1.50683 0.159174 0)
(1.43218 0.154284 0)
(1.3236 0.143799 0)
(1.21217 0.132228 0)
(1.12395 0.123104 0)
(1.05145 0.114737 0)
(0.991026 0.107074 0)
(0.938891 0.100648 0)
(0.89259 0.0952619 0)
(0.850441 0.0905323 0)
(0.811432 0.0862397 0)
(0.774988 0.0822704 0)
(0.740756 0.0785644 0)
(0.70849 0.0750844 0)
(0.677999 0.0718089 0)
(0.649082 0.0687182 0)
(0.62154 0.0657896 0)
(0.595208 0.0630006 0)
(0.569967 0.0603346 0)
(0.545732 0.05778 0)
(0.522433 0.0553272 0)
(0.500023 0.0529673 0)
(0.478482 0.0506968 0)
(0.457792 0.0485146 0)
(0.437928 0.046419 0)
(0.418857 0.0444066 0)
(0.400551 0.0424743 0)
(0.382988 0.040619 0)
(0.366146 0.0388393 0)
(0.349996 0.0371335 0)
(0.334501 0.0354981 0)
(0.319625 0.033929 0)
(0.305339 0.0324223 0)
(0.29162 0.0309756 0)
(0.278445 0.0295859 0)
(0.265794 0.0282514 0)
(0.253648 0.0269698 0)
(0.24199 0.0257393 0)
(0.230803 0.0245582 0)
(0.22007 0.0234246 0)
(0.209778 0.0223372 0)
(0.199909 0.0212939 0)
(0.190453 0.0202942 0)
(0.181383 0.0193347 0)
(0.172713 0.0184176 0)
(0.164367 0.0175351 0)
(0.156444 0.0166944 0)
(0.148733 0.0158927 0)
(0.141441 0.0150846 0)
(-2.66874 -0.0938028 0)
(-2.63473 -0.0920181 0)
(-2.62983 -0.0916673 0)
(-2.64109 -0.092615 0)
(-2.66097 -0.0902087 0)
(-2.68018 -0.0843113 0)
(-2.68809 -0.0795453 0)
(-2.68339 -0.0777442 0)
(-2.65323 -0.0880474 0)
(-2.59783 -0.0957502 0)
(-2.52098 -0.0972857 0)
(-2.45878 -0.0757161 0)
(-2.42942 -0.0490109 0)
(-2.42494 -0.0155481 0)
(-2.44814 0.0263686 0)
(-2.4761 0.0674944 0)
(-2.48741 0.107524 0)
(-2.48856 0.132029 0)
(-2.48406 0.150403 0)
(-2.48226 0.156595 0)
(-2.47849 0.160264 0)
(-2.45566 0.171797 0)
(-2.42148 0.189607 0)
(-2.40279 0.203788 0)
(-2.39078 0.236562 0)
(-2.34127 0.259845 0)
(-2.18235 0.24998 0)
(-1.90837 0.258088 0)
(-1.61677 0.2791 0)
(-1.26154 0.338788 0)
(-0.920719 0.394536 0)
(-0.598464 0.452798 0)
(-0.389774 0.476965 0)
(0.318174 0.461433 0)
(2.32077 0.50112 0)
(4.49929 0.660504 0)
(5.46147 0.783624 0)
(5.47812 0.988532 0)
(5.21981 1.25353 0)
(3.66229 1.30958 0)
(0.445395 0.678664 0)
(-1.00305 0.173584 0)
(-1.17735 0.148534 0)
(-2.81278 0.0354405 0)
(-1.96422 0.15074 0)
(-1.85497 0.200377 0)
(-1.95812 0.172592 0)
(-2.10061 -0.0745419 0)
(-1.77072 -0.0229545 0)
(-0.910478 0.0602074 0)
(0.175818 0.123609 0)
(-0.195706 -0.0252424 0)
(-0.578641 -0.050807 0)
(-0.818133 -0.020257 0)
(-1.71079 -0.156369 0)
(-1.91904 -0.314288 0)
(0.297996 -0.198267 0)
(0.142049 -0.141475 0)
(0.967056 0.0137302 0)
(1.60938 0.200385 0)
(0.658438 0.155999 0)
(-0.0908548 0.0404734 0)
(-0.971192 -0.0600317 0)
(0.482714 -0.0648531 0)
(0.889129 -0.0132132 0)
(1.41896 0.134007 0)
(1.69697 0.18301 0)
(1.53908 0.197777 0)
(1.25921 0.203805 0)
(0.617626 0.107741 0)
(0.534702 0.0717998 0)
(1.3143 0.0159011 0)
(1.48832 0.153316 0)
(1.87607 0.225405 0)
(1.85777 0.154619 0)
(1.87814 0.202858 0)
(2.01578 0.25153 0)
(2.22308 0.250476 0)
(2.31738 0.244766 0)
(2.48671 0.337476 0)
(2.39469 0.285767 0)
(2.4868 0.31162 0)
(2.65009 0.37242 0)
(2.6251 0.403879 0)
(2.39876 0.413867 0)
(2.1429 0.384195 0)
(2.07235 0.356449 0)
(2.13657 0.333053 0)
(2.20918 0.327538 0)
(2.39463 0.290022 0)
(2.67638 0.295286 0)
(2.92633 0.353532 0)
(2.82837 0.351871 0)
(2.51952 0.318373 0)
(2.0477 0.269246 0)
(1.81182 0.21665 0)
(1.66667 0.180517 0)
(1.60287 0.164547 0)
(1.58383 0.159921 0)
(1.57179 0.159632 0)
(1.55049 0.160712 0)
(1.50675 0.160792 0)
(1.43272 0.15676 0)
(1.32554 0.146335 0)
(1.21189 0.134107 0)
(1.12272 0.124587 0)
(1.05042 0.115958 0)
(0.990376 0.108154 0)
(0.938458 0.101619 0)
(0.892243 0.0961418 0)
(0.850139 0.0913421 0)
(0.811162 0.0869938 0)
(0.774743 0.0829776 0)
(0.740533 0.0792304 0)
(0.708285 0.0757136 0)
(0.67781 0.072405 0)
(0.648907 0.0692853 0)
(0.621377 0.0663312 0)
(0.595055 0.0635194 0)
(0.569824 0.0608326 0)
(0.545597 0.0582587 0)
(0.522305 0.0557878 0)
(0.499902 0.0534104 0)
(0.478367 0.0511227 0)
(0.457684 0.0489237 0)
(0.437825 0.0468119 0)
(0.418759 0.0447839 0)
(0.400458 0.0428364 0)
(0.3829 0.0409664 0)
(0.366062 0.0391725 0)
(0.349917 0.0374532 0)
(0.334425 0.035805 0)
(0.319553 0.0342238 0)
(0.30527 0.0327055 0)
(0.291554 0.0312475 0)
(0.278382 0.029847 0)
(0.265733 0.0285022 0)
(0.25359 0.0272106 0)
(0.241935 0.0259704 0)
(0.230751 0.02478 0)
(0.22002 0.0236373 0)
(0.20973 0.0225412 0)
(0.199863 0.0214894 0)
(0.190409 0.0204816 0)
(0.181341 0.0195143 0)
(0.172673 0.0185897 0)
(0.164329 0.0177 0)
(0.156408 0.016852 0)
(0.148698 0.0160457 0)
(0.141407 0.0152257 0)
(-2.59372 -0.444744 0)
(-2.57195 -0.434566 0)
(-2.57839 -0.429249 0)
(-2.6083 -0.427925 0)
(-2.63075 -0.431177 0)
(-2.64285 -0.441275 0)
(-2.64545 -0.451986 0)
(-2.63569 -0.457156 0)
(-2.60584 -0.447019 0)
(-2.55529 -0.433524 0)
(-2.48118 -0.417899 0)
(-2.41109 -0.421851 0)
(-2.3749 -0.435605 0)
(-2.36724 -0.464447 0)
(-2.39047 -0.507127 0)
(-2.4111 -0.552355 0)
(-2.41541 -0.596405 0)
(-2.4156 -0.621458 0)
(-2.41543 -0.637727 0)
(-2.42106 -0.643245 0)
(-2.42448 -0.648239 0)
(-2.42059 -0.660554 0)
(-2.39102 -0.674891 0)
(-2.29984 -0.678791 0)
(-2.16311 -0.703967 0)
(-1.61039 -0.688314 0)
(-0.605606 -0.575569 0)
(1.37265 -0.348728 0)
(2.37379 -0.220656 0)
(3.23607 -0.150553 0)
(3.74373 -0.117319 0)
(4.18037 -0.0973923 0)
(4.18015 -0.108106 0)
(4.68708 -0.0172658 0)
(5.3425 0.152228 0)
(5.71314 0.213271 0)
(5.81076 0.199246 0)
(5.73699 0.11057 0)
(5.58699 0.0145914 0)
(4.69153 -0.168688 0)
(1.20266 -0.162907 0)
(-1.18754 -0.292271 0)
(-0.961093 -0.365895 0)
(-2.02989 -0.481501 0)
(-1.96775 -0.51386 0)
(-2.21664 -0.553452 0)
(-3.16489 -0.656748 0)
(-2.81252 -0.31423 0)
(-0.40231 -0.245522 0)
(-0.886456 -0.279167 0)
(-0.0841549 0.0031336 0)
(-0.295081 -0.0664385 0)
(-0.178919 -0.00541332 0)
(-0.901853 0.0690358 0)
(-1.38328 0.00205571 0)
(-1.14329 -0.138207 0)
(0.158793 -0.0891185 0)
(0.164575 -0.0727369 0)
(0.827354 0.00790509 0)
(1.7076 0.18425 0)
(0.620009 0.165994 0)
(-0.127283 0.0769596 0)
(-1.20922 -0.228408 0)
(0.358816 -0.193092 0)
(-0.220965 0.0147676 0)
(1.38345 0.0926063 0)
(1.55553 0.12902 0)
(1.55048 0.155574 0)
(1.23928 0.150124 0)
(0.603593 0.106684 0)
(0.376812 -0.00125844 0)
(1.20361 0.0668714 0)
(1.61452 -0.0836068 0)
(1.82929 -0.0646327 0)
(1.76511 0.110705 0)
(1.86365 0.115615 0)
(1.93577 0.0749595 0)
(2.13503 0.0918548 0)
(2.30645 0.164355 0)
(2.3555 0.161021 0)
(2.51502 0.209471 0)
(2.58886 0.169343 0)
(2.78545 0.157491 0)
(2.80015 0.144952 0)
(2.53998 0.134175 0)
(2.15411 0.082019 0)
(2.15459 0.0645184 0)
(2.2054 0.0873724 0)
(2.27161 0.064811 0)
(2.35958 0.0764929 0)
(2.46872 0.0925438 0)
(2.6548 0.151535 0)
(2.69763 0.261997 0)
(2.5065 0.323287 0)
(2.11352 0.288144 0)
(1.82388 0.220936 0)
(1.66947 0.181831 0)
(1.60474 0.164496 0)
(1.58492 0.159318 0)
(1.57206 0.159342 0)
(1.55019 0.161011 0)
(1.50623 0.16166 0)
(1.43268 0.158399 0)
(1.32692 0.14864 0)
(1.2119 0.136423 0)