/*--------------------------------*- C++ -*----------------------------------*\
| =========                 |                                                 |
| \\      /  F ield         | OpenFOAM: The Open Source CFD Toolbox           |
|  \\    /   O peration     | Version:  v1912                                 |
|   \\  /    A nd           | Website:  www.openfoam.com                      |
|    \\/     M anipulation  |                                                 |
\*---------------------------------------------------------------------------*/
FoamFile
{
    version     2.0;
    format      ascii;
    class       volSymmTensorField;
    location    "20";
    object      R;
}
// * * * * * * * * * * * * * * * * * * * * * * * * * * * * * * * * * * * * * //

dimensions      [0 2 -2 0 0 0 0];


internalField   nonuniform List<symmTensor> 
14268
(
(0.000395891 -0.000180014 0 1e-15 0 0.000510783)
(0.00077231 -0.000214478 0 1e-15 0 0.00110647)
(0.00147215 -9.68767e-05 0 1e-15 0 0.00218996)
(0.0020753 -5.65602e-05 0 1e-15 0 0.00311091)
(0.00251065 -0.000245275 0 1e-15 0 0.0035929)
(0.00327632 -0.000556967 0 1e-15 0 0.00392551)
(0.00356992 -0.000583163 0 1e-15 0 0.00380831)
(0.00375658 -0.000521737 0 1e-15 0 0.00348619)
(0.0035918 -0.000420253 0 1e-15 0 0.00313191)
(0.00339202 -0.000329419 0 1e-15 0 0.00285415)
(0.00305959 -0.00025083 0 1e-15 0 0.00250249)
(0.00242094 -0.00014284 0 1e-15 0 0.0019511)
(0.00120813 -2.80198e-05 0 1e-15 0 0.00096983)
(0.000479772 -7.74157e-05 0 7.58886e-05 0 0.00041257)
(0.000549701 -7.19642e-05 0 0.00159906 0 0.000535421)
(0.000430467 2.88389e-05 0 0.00140835 0 0.000426992)
(0.000142035 2.50006e-05 0 0.000370125 0 0.000138383)
(2.12374e-05 3.77722e-06 0 4.32939e-05 0 2.03735e-05)
(2.63271e-06 3.83937e-07 0 4.53263e-06 0 2.50428e-06)
(2.95673e-07 3.59656e-08 0 4.59892e-07 0 2.80523e-07)
(3.15717e-08 3.37369e-09 0 4.6096e-08 0 2.98945e-08)
(3.26134e-09 3.18855e-10 0 4.55285e-09 0 3.08053e-09)
(3.41285e-10 3.02788e-11 0 4.52578e-10 0 3.21416e-10)
(5.40423e-11 3.41593e-12 0 6.09048e-11 0 5.07525e-11)
(2.92091e-11 1.03025e-12 0 2.69322e-11 0 2.74829e-11)
(2.89295e-11 8.60135e-13 0 2.58586e-11 0 2.72969e-11)
(3.1134e-11 8.55769e-13 0 2.78559e-11 0 2.94712e-11)
(3.38415e-11 8.67956e-13 0 3.04577e-11 0 3.21392e-11)
(3.61807e-11 8.7416e-13 0 3.2745e-11 0 3.4454e-11)
(3.83708e-11 8.74441e-13 0 3.49055e-11 0 3.66298e-11)
(4.04639e-11 8.69748e-13 0 3.69855e-11 0 3.87168e-11)
(4.24661e-11 8.60777e-13 0 3.89885e-11 0 4.07199e-11)
(4.4381e-11 8.48134e-13 0 4.09158e-11 0 4.26414e-11)
(4.62123e-11 8.32363e-13 0 4.27695e-11 0 4.44844e-11)
(4.79634e-11 8.13939e-13 0 4.45514e-11 0 4.62513e-11)
(4.96386e-11 7.93289e-13 0 4.62643e-11 0 4.79457e-11)
(5.12412e-11 7.7078e-13 0 4.79105e-11 0 4.95705e-11)
(5.27755e-11 7.4674e-13 0 4.9493e-11 0 5.11293e-11)
(5.42448e-11 7.21448e-13 0 5.10145e-11 0 5.26251e-11)
(5.56527e-11 6.95151e-13 0 5.24778e-11 0 5.4061e-11)
(5.70026e-11 6.68062e-13 0 5.38855e-11 0 5.54401e-11)
(5.82974e-11 6.40364e-13 0 5.524e-11 0 5.67651e-11)
(5.95402e-11 6.1222e-13 0 5.65441e-11 0 5.80388e-11)
(6.07341e-11 5.83765e-13 0 5.78004e-11 0 5.92641e-11)
(6.18819e-11 5.55118e-13 0 5.90113e-11 0 6.04437e-11)
(6.29854e-11 5.2638e-13 0 6.01784e-11 0 6.15792e-11)
(6.40469e-11 4.97644e-13 0 6.13039e-11 0 6.26729e-11)
(6.50685e-11 4.68989e-13 0 6.23894e-11 0 6.37267e-11)
(6.60526e-11 4.40485e-13 0 6.34373e-11 0 6.47429e-11)
(6.70013e-11 4.1218e-13 0 6.44495e-11 0 6.57235e-11)
(6.79161e-11 3.8412e-13 0 6.54274e-11 0 6.667e-11)
(6.87986e-11 3.56351e-13 0 6.63725e-11 0 6.75839e-11)
(6.96502e-11 3.28909e-13 0 6.72861e-11 0 6.84667e-11)
(7.04724e-11 3.01824e-13 0 6.81697e-11 0 6.93197e-11)
(7.12665e-11 2.75124e-13 0 6.90244e-11 0 7.01441e-11)
(7.20336e-11 2.4883e-13 0 6.98513e-11 0 7.09413e-11)
(7.27748e-11 2.22961e-13 0 7.06516e-11 0 7.17122e-11)
(7.34913e-11 1.97534e-13 0 7.14263e-11 0 7.24579e-11)
(7.41841e-11 1.72562e-13 0 7.21763e-11 0 7.31793e-11)
(7.4854e-11 1.48055e-13 0 7.29026e-11 0 7.38775e-11)
(7.55019e-11 1.24023e-13 0 7.36059e-11 0 7.45532e-11)
(7.61286e-11 1.00472e-13 0 7.4287e-11 0 7.52072e-11)
(7.67349e-11 7.74089e-14 0 7.49468e-11 0 7.58403e-11)
(7.73215e-11 5.48365e-14 0 7.55859e-11 0 7.64532e-11)
(7.78891e-11 3.27579e-14 0 7.6205e-11 0 7.70466e-11)
(7.84384e-11 1.11747e-14 0 7.68047e-11 0 7.76212e-11)
(7.89699e-11 -9.91211e-15 0 7.73856e-11 0 7.81774e-11)
(7.94842e-11 -3.05033e-14 0 7.79483e-11 0 7.8716e-11)
(7.9982e-11 -5.06006e-14 0 7.84934e-11 0 7.92375e-11)
(8.04636e-11 -7.0206e-14 0 7.90215e-11 0 7.97423e-11)
(8.09297e-11 -8.93221e-14 0 7.95329e-11 0 8.02311e-11)
(8.13807e-11 -1.07952e-13 0 8.00281e-11 0 8.07043e-11)
(8.1817e-11 -1.261e-13 0 8.05078e-11 0 8.11623e-11)
(8.22391e-11 -1.43771e-13 0 8.09722e-11 0 8.16056e-11)
(8.26475e-11 -1.60969e-13 0 8.14218e-11 0 8.20346e-11)
(8.30426e-11 -1.777e-13 0 8.18571e-11 0 8.24498e-11)
(8.34246e-11 -1.9397e-13 0 8.22785e-11 0 8.28516e-11)
(8.37941e-11 -2.09786e-13 0 8.26862e-11 0 8.32402e-11)
(8.41514e-11 -2.25151e-13 0 8.30808e-11 0 8.36161e-11)
(8.44969e-11 -2.40073e-13 0 8.34626e-11 0 8.39798e-11)
(8.48308e-11 -2.54562e-13 0 8.3832e-11 0 8.43315e-11)
(8.51537e-11 -2.68623e-13 0 8.41892e-11 0 8.46715e-11)
(8.54657e-11 -2.82264e-13 0 8.45347e-11 0 8.50003e-11)
(8.57672e-11 -2.95493e-13 0 8.48688e-11 0 8.53181e-11)
(8.60585e-11 -3.08317e-13 0 8.51918e-11 0 8.56253e-11)
(8.634e-11 -3.20745e-13 0 8.5504e-11 0 8.59221e-11)
(8.66118e-11 -3.32783e-13 0 8.58058e-11 0 8.62089e-11)
(8.68744e-11 -3.44442e-13 0 8.60974e-11 0 8.6486e-11)
(8.71279e-11 -3.55728e-13 0 8.63791e-11 0 8.67536e-11)
(8.73726e-11 -3.6665e-13 0 8.66512e-11 0 8.7012e-11)
(8.76089e-11 -3.77216e-13 0 8.6914e-11 0 8.72616e-11)
(8.78369e-11 -3.87435e-13 0 8.71677e-11 0 8.75025e-11)
(8.8057e-11 -3.97315e-13 0 8.74127e-11 0 8.7735e-11)
(8.82693e-11 -4.06864e-13 0 8.76491e-11 0 8.79594e-11)
(8.84741e-11 -4.1609e-13 0 8.78773e-11 0 8.81759e-11)
(8.86716e-11 -4.25002e-13 0 8.80975e-11 0 8.83847e-11)
(8.88621e-11 -4.33608e-13 0 8.83099e-11 0 8.85862e-11)
(8.90457e-11 -4.41916e-13 0 8.85148e-11 0 8.87804e-11)
(8.92227e-11 -4.49934e-13 0 8.87124e-11 0 8.89677e-11)
(8.93933e-11 -4.57669e-13 0 8.89029e-11 0 8.91483e-11)
(8.95578e-11 -4.65131e-13 0 8.90865e-11 0 8.93223e-11)
(8.97162e-11 -4.72326e-13 0 8.92635e-11 0 8.949e-11)
(8.98688e-11 -4.79261e-13 0 8.94341e-11 0 8.96516e-11)
(9.00158e-11 -4.85947e-13 0 8.95984e-11 0 8.98072e-11)
(9.01573e-11 -4.92386e-13 0 8.97567e-11 0 8.99572e-11)
(9.02937e-11 -4.98592e-13 0 8.99092e-11 0 9.01016e-11)
(9.04247e-11 -5.04565e-13 0 9.00558e-11 0 9.02404e-11)
(9.05512e-11 -5.10319e-13 0 9.01974e-11 0 9.03745e-11)
(9.06724e-11 -5.15855e-13 0 9.03331e-11 0 9.0503e-11)
(9.07896e-11 -5.21184e-13 0 9.04643e-11 0 9.06271e-11)
(9.09019e-11 -5.26309e-13 0 9.05901e-11 0 9.07462e-11)
(9.10102e-11 -5.31241e-13 0 9.07114e-11 0 9.0861e-11)
(9.11142e-11 -5.3598e-13 0 9.0828e-11 0 9.09712e-11)
(9.12142e-11 -5.40541e-13 0 9.09401e-11 0 9.10773e-11)
(9.13104e-11 -5.4492e-13 0 9.10479e-11 0 9.11793e-11)
(9.14029e-11 -5.49132e-13 0 9.11516e-11 0 9.12774e-11)
(9.14915e-11 -5.53176e-13 0 9.12511e-11 0 9.13715e-11)
(9.15771e-11 -5.57061e-13 0 9.13471e-11 0 9.14622e-11)
(9.16588e-11 -5.60792e-13 0 9.14388e-11 0 9.1549e-11)
(9.17379e-11 -5.64375e-13 0 9.15275e-11 0 9.16329e-11)
(9.18131e-11 -5.67813e-13 0 9.1612e-11 0 9.17127e-11)
(9.18862e-11 -5.71113e-13 0 9.1694e-11 0 9.17902e-11)
(9.19555e-11 -5.74279e-13 0 9.17718e-11 0 9.18638e-11)
(9.20228e-11 -5.77317e-13 0 9.18474e-11 0 9.19353e-11)
(9.20866e-11 -5.80229e-13 0 9.19191e-11 0 9.2003e-11)
(9.21487e-11 -5.83024e-13 0 9.19888e-11 0 9.20689e-11)
(9.22074e-11 -5.857e-13 0 9.20548e-11 0 9.21313e-11)
(9.22645e-11 -5.8827e-13 0 9.21189e-11 0 9.21919e-11)
(9.23185e-11 -5.90726e-13 0 9.21797e-11 0 9.22493e-11)
(9.2371e-11 -5.93087e-13 0 9.22387e-11 0 9.2305e-11)
(9.24208e-11 -5.9534e-13 0 9.22946e-11 0 9.23578e-11)
(9.24689e-11 -5.97506e-13 0 9.23488e-11 0 9.2409e-11)
(9.25147e-11 -5.99573e-13 0 9.24003e-11 0 9.24577e-11)
(9.25588e-11 -6.01559e-13 0 9.24498e-11 0 9.25045e-11)
(9.26011e-11 -6.03453e-13 0 9.24974e-11 0 9.25494e-11)
(9.26413e-11 -6.05271e-13 0 9.25426e-11 0 9.25921e-11)
(9.26803e-11 -6.07007e-13 0 9.25865e-11 0 9.26336e-11)
(9.27169e-11 -6.08669e-13 0 9.26277e-11 0 9.26725e-11)
(9.2753e-11 -6.10259e-13 0 9.26682e-11 0 9.27107e-11)
(9.27863e-11 -6.11777e-13 0 9.27059e-11 0 9.27462e-11)
(9.28195e-11 -6.13233e-13 0 9.27431e-11 0 9.27814e-11)
(9.285e-11 -6.14618e-13 0 9.27775e-11 0 9.28139e-11)
(9.28803e-11 -6.15949e-13 0 9.28115e-11 0 9.2846e-11)
(9.29083e-11 -6.17212e-13 0 9.28431e-11 0 9.28758e-11)
(9.29358e-11 -6.18427e-13 0 9.28741e-11 0 9.29051e-11)
(9.29615e-11 -6.19576e-13 0 9.2903e-11 0 9.29324e-11)
(9.2986e-11 -6.20678e-13 0 9.29306e-11 0 9.29585e-11)
(9.30091e-11 -6.21706e-13 0 9.29565e-11 0 9.29829e-11)
(9.30315e-11 -6.22722e-13 0 9.2982e-11 0 9.30069e-11)
(9.30622e-11 -6.23839e-13 0 9.30163e-11 0 9.30393e-11)
(0.00178612 0.000284881 0 1e-15 0 0.00288296)
(0.00300452 0.000407538 0 1e-15 0 0.00559996)
(0.00551988 0.00122977 0 1e-15 0 0.0105294)
(0.00807801 0.000931503 0 1e-15 0 0.0145092)
(0.00957211 -0.000209575 0 1e-15 0 0.016674)
(0.0135279 -0.00144923 0 1e-15 0 0.0184683)
(0.0162351 -0.00220151 0 1e-15 0 0.0185908)
(0.0190146 -0.00200951 0 1e-15 0 0.0179546)
(0.0193911 -0.00152859 0 1e-15 0 0.0166399)
(0.0184463 -0.00119385 0 1e-15 0 0.015108)
(0.0167849 -0.0010094 0 1e-15 0 0.0131664)
(0.0132554 -0.000677431 0 1e-15 0 0.0101659)
(0.00736265 -0.000243728 0 1e-15 0 0.00559963)
(0.00232942 -0.000154896 0 1e-15 0 0.00183397)
(0.00150329 -0.000480752 0 0.00717285 0 0.00134748)
(0.0011531 -0.000292737 0 0.00858083 0 0.00108764)
(0.000596842 6.87293e-05 0 0.00321416 0 0.000548663)
(0.000135784 4.47372e-05 0 0.00050216 0 0.00012103)
(2.30698e-05 7.35568e-06 0 6.68283e-05 0 2.03273e-05)
(3.36513e-06 9.38016e-07 0 8.23752e-06 0 2.96197e-06)
(4.42044e-07 1.07583e-07 0 9.54323e-07 0 3.89348e-07)
(5.35151e-08 1.14902e-08 0 1.04401e-07 0 4.71563e-08)
(6.45839e-09 1.17617e-09 0 1.1158e-08 0 5.69735e-09)
(1.2872e-09 1.42193e-10 0 1.5858e-09 0 1.1469e-09)
(8.24439e-10 4.63667e-11 0 7.17554e-10 0 7.4499e-10)
(8.35057e-10 3.96363e-11 0 6.92451e-10 0 7.58809e-10)
(9.03307e-10 3.93499e-11 0 7.49785e-10 0 8.25404e-10)
(9.81838e-10 3.9839e-11 0 8.23048e-10 0 9.01923e-10)
(1.04971e-09 4.0054e-11 0 8.88162e-10 0 9.68486e-10)
(1.11347e-09 3.99972e-11 0 9.50223e-10 0 1.03142e-09)
(1.17439e-09 3.97103e-11 0 1.01024e-09 0 1.09192e-09)
(1.23265e-09 3.92255e-11 0 1.06827e-09 0 1.15009e-09)
(1.28835e-09 3.85711e-11 0 1.12431e-09 0 1.20598e-09)
(1.3416e-09 3.77724e-11 0 1.17839e-09 0 1.25966e-09)
(1.39249e-09 3.68516e-11 0 1.23053e-09 0 1.3112e-09)
(1.44116e-09 3.58286e-11 0 1.28079e-09 0 1.36068e-09)
(1.48769e-09 3.47204e-11 0 1.32922e-09 0 1.40819e-09)
(1.53223e-09 3.35422e-11 0 1.37588e-09 0 1.4538e-09)
(1.57485e-09 3.23071e-11 0 1.42084e-09 0 1.49761e-09)
(1.61568e-09 3.10266e-11 0 1.46417e-09 0 1.5397e-09)
(1.6548e-09 2.97105e-11 0 1.50592e-09 0 1.58016e-09)
(1.69232e-09 2.83673e-11 0 1.54617e-09 0 1.61905e-09)
(1.7283e-09 2.70047e-11 0 1.58497e-09 0 1.65647e-09)
(1.76286e-09 2.56289e-11 0 1.62241e-09 0 1.69247e-09)
(1.79606e-09 2.42453e-11 0 1.65855e-09 0 1.72716e-09)
(1.82797e-09 2.28588e-11 0 1.69342e-09 0 1.76056e-09)
(1.85866e-09 2.14736e-11 0 1.72709e-09 0 1.79275e-09)
(1.88817e-09 2.00934e-11 0 1.7596e-09 0 1.82377e-09)
(1.91659e-09 1.87213e-11 0 1.79102e-09 0 1.8537e-09)
(1.94398e-09 1.73596e-11 0 1.82139e-09 0 1.88259e-09)
(1.97038e-09 1.60105e-11 0 1.85076e-09 0 1.91048e-09)
(1.99583e-09 1.46761e-11 0 1.87918e-09 0 1.93742e-09)
(2.02039e-09 1.33579e-11 0 1.90667e-09 0 1.96345e-09)
(2.04409e-09 1.20575e-11 0 1.93328e-09 0 1.98861e-09)
(2.06697e-09 1.0776e-11 0 1.95904e-09 0 2.01294e-09)
(2.08906e-09 9.5145e-12 0 1.98398e-09 0 2.03646e-09)
(2.11041e-09 8.27378e-12 0 2.00813e-09 0 2.05922e-09)
(2.13103e-09 7.0546e-12 0 2.03153e-09 0 2.08123e-09)
(2.15097e-09 5.85755e-12 0 2.0542e-09 0 2.10254e-09)
(2.17024e-09 4.68312e-12 0 2.07617e-09 0 2.12316e-09)
(2.18888e-09 3.53171e-12 0 2.09745e-09 0 2.14313e-09)
(2.2069e-09 2.40362e-12 0 2.11807e-09 0 2.16245e-09)
(2.22433e-09 1.29909e-12 0 2.13806e-09 0 2.18117e-09)
(2.24119e-09 2.18282e-13 0 2.15744e-09 0 2.19929e-09)
(2.2575e-09 -8.38696e-13 0 2.17622e-09 0 2.21684e-09)
(2.27328e-09 -1.87179e-12 0 2.19442e-09 0 2.23383e-09)
(2.28855e-09 -2.88096e-12 0 2.21206e-09 0 2.25028e-09)
(2.30332e-09 -3.86629e-12 0 2.22915e-09 0 2.26622e-09)
(2.31761e-09 -4.82786e-12 0 2.24572e-09 0 2.28165e-09)
(2.33144e-09 -5.76577e-12 0 2.26178e-09 0 2.2966e-09)
(2.34482e-09 -6.68018e-12 0 2.27733e-09 0 2.31107e-09)
(2.35776e-09 -7.57125e-12 0 2.29241e-09 0 2.32508e-09)
(2.37028e-09 -8.43919e-12 0 2.30701e-09 0 2.33864e-09)
(2.38239e-09 -9.28422e-12 0 2.32116e-09 0 2.35177e-09)
(2.39411e-09 -1.01066e-11 0 2.33486e-09 0 2.36448e-09)
(2.40544e-09 -1.09065e-11 0 2.34813e-09 0 2.37678e-09)
(2.41639e-09 -1.16844e-11 0 2.36098e-09 0 2.38869e-09)
(2.42699e-09 -1.24406e-11 0 2.37343e-09 0 2.40021e-09)
(2.43723e-09 -1.31751e-11 0 2.38547e-09 0 2.41135e-09)
(2.44714e-09 -1.38885e-11 0 2.39713e-09 0 2.42213e-09)
(2.45671e-09 -1.45811e-11 0 2.40841e-09 0 2.43256e-09)
(2.46596e-09 -1.52532e-11 0 2.41932e-09 0 2.44265e-09)
(2.47491e-09 -1.59052e-11 0 2.42988e-09 0 2.4524e-09)
(2.48355e-09 -1.65375e-11 0 2.4401e-09 0 2.46183e-09)
(2.49189e-09 -1.71505e-11 0 2.44997e-09 0 2.47094e-09)
(2.49996e-09 -1.77445e-11 0 2.45953e-09 0 2.47975e-09)
(2.50775e-09 -1.83199e-11 0 2.46876e-09 0 2.48826e-09)
(2.51527e-09 -1.88771e-11 0 2.47768e-09 0 2.49648e-09)
(2.52253e-09 -1.94165e-11 0 2.48631e-09 0 2.50442e-09)
(2.52954e-09 -1.99386e-11 0 2.49464e-09 0 2.5121e-09)
(2.53631e-09 -2.04436e-11 0 2.50269e-09 0 2.5195e-09)
(2.54284e-09 -2.0932e-11 0 2.51046e-09 0 2.52666e-09)
(2.54914e-09 -2.14043e-11 0 2.51797e-09 0 2.53356e-09)
(2.55522e-09 -2.18607e-11 0 2.52522e-09 0 2.54023e-09)
(2.56108e-09 -2.23017e-11 0 2.53222e-09 0 2.54666e-09)
(2.56674e-09 -2.27277e-11 0 2.53897e-09 0 2.55286e-09)
(2.57219e-09 -2.31391e-11 0 2.54548e-09 0 2.55884e-09)
(2.57745e-09 -2.35362e-11 0 2.55177e-09 0 2.56462e-09)
(2.58252e-09 -2.39195e-11 0 2.55783e-09 0 2.57018e-09)
(2.5874e-09 -2.42893e-11 0 2.56368e-09 0 2.57555e-09)
(2.59211e-09 -2.4646e-11 0 2.56931e-09 0 2.58072e-09)
(2.59664e-09 -2.499e-11 0 2.57475e-09 0 2.5857e-09)
(2.60101e-09 -2.53216e-11 0 2.57998e-09 0 2.59051e-09)
(2.60522e-09 -2.56413e-11 0 2.58503e-09 0 2.59513e-09)
(2.60927e-09 -2.59492e-11 0 2.58989e-09 0 2.59959e-09)
(2.61317e-09 -2.62459e-11 0 2.59458e-09 0 2.60388e-09)
(2.61692e-09 -2.65316e-11 0 2.59908e-09 0 2.60801e-09)
(2.62054e-09 -2.68067e-11 0 2.60343e-09 0 2.612e-09)
(2.62401e-09 -2.70714e-11 0 2.6076e-09 0 2.61582e-09)
(2.62737e-09 -2.73263e-11 0 2.61164e-09 0 2.61951e-09)
(2.63058e-09 -2.75714e-11 0 2.6155e-09 0 2.62305e-09)
(2.63368e-09 -2.78074e-11 0 2.61923e-09 0 2.62646e-09)
(2.63665e-09 -2.80341e-11 0 2.62282e-09 0 2.62974e-09)
(2.63952e-09 -2.82522e-11 0 2.62627e-09 0 2.6329e-09)
(2.64227e-09 -2.84618e-11 0 2.62958e-09 0 2.63593e-09)
(2.64491e-09 -2.86633e-11 0 2.63277e-09 0 2.63885e-09)
(2.64745e-09 -2.88567e-11 0 2.63583e-09 0 2.64165e-09)
(2.6499e-09 -2.90427e-11 0 2.63878e-09 0 2.64435e-09)
(2.65223e-09 -2.92212e-11 0 2.64161e-09 0 2.64693e-09)
(2.6545e-09 -2.93926e-11 0 2.64434e-09 0 2.64942e-09)
(2.65665e-09 -2.95572e-11 0 2.64694e-09 0 2.6518e-09)
(2.65874e-09 -2.97152e-11 0 2.64946e-09 0 2.65411e-09)
(2.66072e-09 -2.98667e-11 0 2.65185e-09 0 2.6563e-09)
(2.66265e-09 -3.00121e-11 0 2.65418e-09 0 2.65842e-09)
(2.66447e-09 -3.01515e-11 0 2.65639e-09 0 2.66044e-09)
(2.66625e-09 -3.02854e-11 0 2.65853e-09 0 2.6624e-09)
(2.66793e-09 -3.04135e-11 0 2.66057e-09 0 2.66425e-09)
(2.66956e-09 -3.05365e-11 0 2.66254e-09 0 2.66606e-09)
(2.67111e-09 -3.06541e-11 0 2.66441e-09 0 2.66777e-09)
(2.67261e-09 -3.07672e-11 0 2.66623e-09 0 2.66943e-09)
(2.67403e-09 -3.08751e-11 0 2.66795e-09 0 2.671e-09)
(2.67541e-09 -3.09789e-11 0 2.66962e-09 0 2.67252e-09)
(2.67672e-09 -3.10779e-11 0 2.67121e-09 0 2.67397e-09)
(2.67798e-09 -3.1173e-11 0 2.67273e-09 0 2.67536e-09)
(2.67919e-09 -3.12638e-11 0 2.6742e-09 0 2.6767e-09)
(2.68034e-09 -3.13509e-11 0 2.67559e-09 0 2.67797e-09)
(2.68146e-09 -3.14341e-11 0 2.67694e-09 0 2.67921e-09)
(2.6825e-09 -3.15137e-11 0 2.67821e-09 0 2.68036e-09)
(2.68353e-09 -3.15899e-11 0 2.67946e-09 0 2.6815e-09)
(2.68449e-09 -3.16626e-11 0 2.68062e-09 0 2.68256e-09)
(2.68543e-09 -3.17324e-11 0 2.68176e-09 0 2.68361e-09)
(2.68631e-09 -3.17988e-11 0 2.68283e-09 0 2.68457e-09)
(2.68717e-09 -3.18627e-11 0 2.68387e-09 0 2.68553e-09)
(2.68798e-09 -3.19232e-11 0 2.68485e-09 0 2.68642e-09)
(2.68876e-09 -3.19815e-11 0 2.6858e-09 0 2.68729e-09)
(2.6895e-09 -3.20365e-11 0 2.68669e-09 0 2.6881e-09)
(2.6902e-09 -3.20894e-11 0 2.68754e-09 0 2.68888e-09)
(2.69086e-09 -3.21386e-11 0 2.68834e-09 0 2.68961e-09)
(2.6915e-09 -3.21873e-11 0 2.68913e-09 0 2.69032e-09)
(2.69238e-09 -3.22413e-11 0 2.69018e-09 0 2.69128e-09)
(0.00493547 0.00134518 0 1e-15 0 0.00671701)
(0.00515372 0.000494712 0 1e-15 0 0.00968947)
(0.00931459 0.00109863 0 0.00420377 0 0.0164778)
(0.0109177 -0.000306489 0 0.0138724 0 0.0203438)
(0.0118785 -0.00199693 0 0.017901 0 0.0228129)
(0.0139386 -0.002819 0 0.0201648 0 0.0240608)
(0.0156935 -0.00436151 0 0.01969 0 0.0232142)
(0.0167273 -0.00455392 0 0.0192852 0 0.0211392)
(0.0164122 -0.00405958 0 0.0201597 0 0.018271)
(0.0156917 -0.0037309 0 0.0222703 0 0.0161668)
(0.0148791 -0.00382127 0 0.0235767 0 0.0139184)
(0.0127405 -0.00344469 0 0.0213336 0 0.0109865)
(0.00877075 -0.00300428 0 0.00744813 0 0.00706132)
(0.00350286 -0.00103533 0 1e-15 0 0.00276859)
(0.00169024 -0.000497969 0 0.00146188 0 0.00143978)
(0.00127688 -0.000838644 0 0.0084443 0 0.00108557)
(0.000732356 -0.000302357 0 0.00580884 0 0.000600301)
(0.000209711 2.00168e-05 0 0.00124577 0 0.000166768)
(4.02832e-05 8.70383e-06 0 0.000188569 0 3.15333e-05)
(6.61419e-06 1.51504e-06 0 2.59834e-05 0 5.1563e-06)
(9.69804e-07 2.15791e-07 0 3.31105e-06 0 7.54585e-07)
(1.31659e-07 2.76108e-08 0 3.95319e-07 0 1.02461e-07)
(1.96717e-08 3.41633e-09 0 4.65854e-08 0 1.55775e-08)
(6.50376e-09 5.94538e-10 0 7.99666e-09 0 5.46135e-09)
(5.4693e-09 2.99771e-10 0 4.37596e-09 0 4.73853e-09)
(5.70411e-09 2.74663e-10 0 4.34504e-09 0 4.98471e-09)
(6.19769e-09 2.69784e-10 0 4.74187e-09 0 5.46092e-09)
(6.69391e-09 2.667e-10 0 5.19499e-09 0 5.94044e-09)
(7.12179e-09 2.62134e-10 0 5.60102e-09 0 6.35797e-09)
(7.52379e-09 2.55935e-10 0 5.99058e-09 0 6.75398e-09)
(7.90539e-09 2.48368e-10 0 6.367e-09 0 7.13319e-09)
(8.26788e-09 2.39684e-10 0 6.73045e-09 0 7.49636e-09)
(8.61227e-09 2.30097e-10 0 7.08099e-09 0 7.84401e-09)
(8.93955e-09 2.19794e-10 0 7.41881e-09 0 8.17674e-09)
(9.25065e-09 2.08932e-10 0 7.74412e-09 0 8.49512e-09)
(9.54656e-09 1.97643e-10 0 8.0573e-09 0 8.79982e-09)
(9.82813e-09 1.86041e-10 0 8.35867e-09 0 9.09145e-09)
(1.00963e-08 1.74221e-10 0 8.64873e-09 0 9.37072e-09)
(1.03519e-08 1.62261e-10 0 8.92787e-09 0 9.6382e-09)
(1.05956e-08 1.50228e-10 0 9.19654e-09 0 9.89453e-09)
(1.08282e-08 1.38178e-10 0 9.4552e-09 0 1.01403e-08)
(1.10504e-08 1.26157e-10 0 9.70425e-09 0 1.0376e-08)
(1.12628e-08 1.14205e-10 0 9.94413e-09 0 1.06022e-08)
(1.14659e-08 1.0235e-10 0 1.01753e-08 0 1.08195e-08)
(1.16605e-08 9.06182e-11 0 1.03982e-08 0 1.10284e-08)
(1.18469e-08 7.90317e-11 0 1.06131e-08 0 1.12291e-08)
(1.20256e-08 6.76091e-11 0 1.08205e-08 0 1.14222e-08)
(1.2197e-08 5.63658e-11 0 1.10205e-08 0 1.1608e-08)
(1.23616e-08 4.53124e-11 0 1.12135e-08 0 1.17868e-08)
(1.25197e-08 3.44545e-11 0 1.14001e-08 0 1.19592e-08)
(1.26718e-08 2.37987e-11 0 1.15803e-08 0 1.21254e-08)
(1.2818e-08 1.33511e-11 0 1.17545e-08 0 1.22857e-08)
(1.29588e-08 3.11549e-12 0 1.1923e-08 0 1.24404e-08)
(1.30943e-08 -6.90532e-12 0 1.20859e-08 0 1.25896e-08)
(1.32248e-08 -1.67098e-11 0 1.22435e-08 0 1.27337e-08)
(1.33507e-08 -2.62969e-11 0 1.23959e-08 0 1.28729e-08)
(1.34719e-08 -3.56666e-11 0 1.25435e-08 0 1.30074e-08)
(1.35889e-08 -4.48192e-11 0 1.26864e-08 0 1.31374e-08)
(1.37018e-08 -5.37557e-11 0 1.28247e-08 0 1.3263e-08)
(1.38107e-08 -6.24772e-11 0 1.29587e-08 0 1.33844e-08)
(1.39158e-08 -7.09854e-11 0 1.30884e-08 0 1.35019e-08)
(1.40172e-08 -7.92823e-11 0 1.3214e-08 0 1.36154e-08)
(1.41152e-08 -8.737e-11 0 1.33357e-08 0 1.37253e-08)
(1.42099e-08 -9.52507e-11 0 1.34536e-08 0 1.38316e-08)
(1.43013e-08 -1.02927e-10 0 1.35678e-08 0 1.39344e-08)
(1.43896e-08 -1.10402e-10 0 1.36784e-08 0 1.40339e-08)
(1.44749e-08 -1.17677e-10 0 1.37856e-08 0 1.41301e-08)
(1.45573e-08 -1.24757e-10 0 1.38894e-08 0 1.42233e-08)
(1.46369e-08 -1.31643e-10 0 1.399e-08 0 1.43134e-08)
(1.47139e-08 -1.3834e-10 0 1.40874e-08 0 1.44006e-08)
(1.47883e-08 -1.4485e-10 0 1.41818e-08 0 1.4485e-08)
(1.48601e-08 -1.51176e-10 0 1.42732e-08 0 1.45666e-08)
(1.49296e-08 -1.57322e-10 0 1.43617e-08 0 1.46456e-08)
(1.49967e-08 -1.6329e-10 0 1.44474e-08 0 1.4722e-08)
(1.50615e-08 -1.69085e-10 0 1.45303e-08 0 1.47959e-08)
(1.51241e-08 -1.7471e-10 0 1.46107e-08 0 1.48674e-08)
(1.51846e-08 -1.80167e-10 0 1.46884e-08 0 1.49365e-08)
(1.52431e-08 -1.8546e-10 0 1.47637e-08 0 1.50034e-08)
(1.52996e-08 -1.90594e-10 0 1.48365e-08 0 1.50681e-08)
(1.53541e-08 -1.95571e-10 0 1.4907e-08 0 1.51306e-08)
(1.54068e-08 -2.00394e-10 0 1.49752e-08 0 1.5191e-08)
(1.54577e-08 -2.05067e-10 0 1.50411e-08 0 1.52494e-08)
(1.55068e-08 -2.09593e-10 0 1.51049e-08 0 1.53059e-08)
(1.55542e-08 -2.13976e-10 0 1.51666e-08 0 1.53605e-08)
(1.56e-08 -2.18219e-10 0 1.52262e-08 0 1.54132e-08)
(1.56442e-08 -2.22325e-10 0 1.52838e-08 0 1.54641e-08)
(1.56869e-08 -2.26298e-10 0 1.53395e-08 0 1.55133e-08)
(1.57281e-08 -2.3014e-10 0 1.53934e-08 0 1.55608e-08)
(1.57678e-08 -2.33856e-10 0 1.54454e-08 0 1.56066e-08)
(1.58061e-08 -2.37449e-10 0 1.54956e-08 0 1.56509e-08)
(1.58431e-08 -2.40921e-10 0 1.55441e-08 0 1.56937e-08)
(1.58787e-08 -2.44275e-10 0 1.5591e-08 0 1.57349e-08)
(1.59131e-08 -2.47516e-10 0 1.56362e-08 0 1.57747e-08)
(1.59463e-08 -2.50646e-10 0 1.56798e-08 0 1.58131e-08)
(1.59782e-08 -2.53667e-10 0 1.5722e-08 0 1.58502e-08)
(1.6009e-08 -2.56584e-10 0 1.57626e-08 0 1.58859e-08)
(1.60387e-08 -2.59399e-10 0 1.58018e-08 0 1.59204e-08)
(1.60673e-08 -2.62115e-10 0 1.58396e-08 0 1.59536e-08)
(1.60949e-08 -2.64734e-10 0 1.58761e-08 0 1.59856e-08)
(1.61215e-08 -2.67261e-10 0 1.59113e-08 0 1.60165e-08)
(1.61471e-08 -2.69696e-10 0 1.59452e-08 0 1.60462e-08)
(1.61717e-08 -2.72044e-10 0 1.59779e-08 0 1.60749e-08)
(1.61954e-08 -2.74306e-10 0 1.60094e-08 0 1.61025e-08)
(1.62182e-08 -2.76486e-10 0 1.60397e-08 0 1.61291e-08)
(1.62402e-08 -2.78585e-10 0 1.60689e-08 0 1.61547e-08)
(1.62614e-08 -2.80608e-10 0 1.60971e-08 0 1.61793e-08)
(1.62817e-08 -2.82554e-10 0 1.61242e-08 0 1.6203e-08)
(1.63014e-08 -2.84428e-10 0 1.61503e-08 0 1.62259e-08)
(1.63202e-08 -2.86231e-10 0 1.61754e-08 0 1.62479e-08)
(1.63383e-08 -2.87967e-10 0 1.61996e-08 0 1.62691e-08)
(1.63558e-08 -2.89636e-10 0 1.62228e-08 0 1.62894e-08)
(1.63725e-08 -2.91243e-10 0 1.62453e-08 0 1.6309e-08)
(1.63886e-08 -2.92786e-10 0 1.62668e-08 0 1.63278e-08)
(1.64041e-08 -2.94271e-10 0 1.62875e-08 0 1.63459e-08)
(1.6419e-08 -2.95697e-10 0 1.63074e-08 0 1.63633e-08)
(1.64333e-08 -2.97069e-10 0 1.63265e-08 0 1.638e-08)
(1.64471e-08 -2.98386e-10 0 1.63449e-08 0 1.63961e-08)
(1.64603e-08 -2.99652e-10 0 1.63626e-08 0 1.64115e-08)
(1.64729e-08 -3.00867e-10 0 1.63796e-08 0 1.64263e-08)
(1.64852e-08 -3.02034e-10 0 1.6396e-08 0 1.64406e-08)
(1.64968e-08 -3.03155e-10 0 1.64116e-08 0 1.64543e-08)
(1.65081e-08 -3.04231e-10 0 1.64267e-08 0 1.64675e-08)
(1.65188e-08 -3.05263e-10 0 1.64411e-08 0 1.648e-08)
(1.65292e-08 -3.06254e-10 0 1.6455e-08 0 1.64922e-08)
(1.65391e-08 -3.07203e-10 0 1.64683e-08 0 1.65038e-08)
(1.65487e-08 -3.08115e-10 0 1.64812e-08 0 1.6515e-08)
(1.65577e-08 -3.08988e-10 0 1.64934e-08 0 1.65256e-08)
(1.65665e-08 -3.09828e-10 0 1.65052e-08 0 1.65359e-08)
(1.65749e-08 -3.10629e-10 0 1.65164e-08 0 1.65457e-08)
(1.6583e-08 -3.11401e-10 0 1.65273e-08 0 1.65552e-08)
(1.65907e-08 -3.12136e-10 0 1.65377e-08 0 1.65642e-08)
(1.65981e-08 -3.12845e-10 0 1.65477e-08 0 1.6573e-08)
(1.66052e-08 -3.1352e-10 0 1.65572e-08 0 1.65812e-08)
(1.6612e-08 -3.1417e-10 0 1.65663e-08 0 1.65892e-08)
(1.66185e-08 -3.1479e-10 0 1.65751e-08 0 1.65969e-08)
(1.66247e-08 -3.15385e-10 0 1.65835e-08 0 1.66042e-08)
(1.66307e-08 -3.15954e-10 0 1.65916e-08 0 1.66112e-08)
(1.66364e-08 -3.16498e-10 0 1.65992e-08 0 1.66178e-08)
(1.66419e-08 -3.1702e-10 0 1.66067e-08 0 1.66244e-08)
(1.66471e-08 -3.17517e-10 0 1.66136e-08 0 1.66304e-08)
(1.66522e-08 -3.17995e-10 0 1.66205e-08 0 1.66364e-08)
(1.66569e-08 -3.18449e-10 0 1.66268e-08 0 1.66419e-08)
(1.66616e-08 -3.18887e-10 0 1.66331e-08 0 1.66474e-08)
(1.66659e-08 -3.19301e-10 0 1.6639e-08 0 1.66525e-08)
(1.66701e-08 -3.19701e-10 0 1.66447e-08 0 1.66575e-08)
(1.66741e-08 -3.20078e-10 0 1.665e-08 0 1.66621e-08)
(1.66779e-08 -3.2044e-10 0 1.66551e-08 0 1.66666e-08)
(1.66814e-08 -3.20775e-10 0 1.66599e-08 0 1.66707e-08)
(1.66848e-08 -3.21109e-10 0 1.66646e-08 0 1.66748e-08)
(1.66896e-08 -3.21496e-10 0 1.66709e-08 0 1.66803e-08)
(0.00630682 0.00111329 0 0.0032214 0 0.0087681)
(0.00691007 -0.000329338 0 1e-15 0 0.0126234)
(0.0111724 -3.02323e-05 0 0.0125498 0 0.0195144)
(0.0126484 -0.00221563 0 0.0302061 0 0.0235217)
(0.0136413 -0.00432185 0 0.0362602 0 0.0263099)
(0.0155601 -0.00533818 0 0.038298 0 0.0278797)
(0.0170393 -0.00632576 0 0.0328938 0 0.0270565)
(0.0175863 -0.00679999 0 0.0346226 0 0.0242745)
(0.0169416 -0.00650745 0 0.038609 0 0.0205139)
(0.0161592 -0.00631671 0 0.0420032 0 0.018035)
(0.0156681 -0.00684282 0 0.0452078 0 0.015371)
(0.0139589 -0.00679213 0 0.0459561 0 0.0121354)
(0.0104886 -0.00583199 0 0.0292887 0 0.00828551)
(0.00555671 -0.00309035 0 0.00633932 0 0.00419684)
(0.00194144 -0.000825699 0 1e-15 0 0.00152555)
(0.00117173 -0.000532505 0 0.00445042 0 0.000952245)
(0.000636521 -0.000229814 0 0.00678089 0 0.000482538)
(0.00025809 1.18281e-05 0 0.00219195 0 0.000181887)
(5.08697e-05 1.05696e-05 0 0.000331965 0 3.41683e-05)
(8.80218e-06 2.06563e-06 0 4.75729e-05 0 5.79096e-06)
(1.37232e-06 3.17382e-07 0 6.44199e-06 0 8.93078e-07)
(2.02198e-07 4.35755e-08 0 8.21902e-07 0 1.32269e-07)
(3.83175e-08 5.95903e-09 0 1.05125e-07 0 2.72054e-08)
(1.89211e-08 1.30544e-09 0 2.12969e-08 0 1.52821e-08)
(1.79125e-08 7.9028e-10 0 1.33182e-08 0 1.50378e-08)
(1.88431e-08 7.28048e-10 0 1.34216e-08 0 1.5988e-08)
(2.0378e-08 6.9325e-10 0 1.46391e-08 0 1.74696e-08)
(2.17903e-08 6.6168e-10 0 1.59345e-08 0 1.88397e-08)
(2.30055e-08 6.28278e-10 0 1.71036e-08 0 2.00343e-08)
(2.41351e-08 5.91462e-10 0 1.82208e-08 0 2.11592e-08)
(2.51945e-08 5.5192e-10 0 1.92937e-08 0 2.22266e-08)
(2.61892e-08 5.10382e-10 0 2.03234e-08 0 2.324e-08)
(2.7124e-08 4.67457e-10 0 2.13108e-08 0 2.42023e-08)
(2.80034e-08 4.23646e-10 0 2.22572e-08 0 2.51164e-08)
(2.88313e-08 3.79353e-10 0 2.31639e-08 0 2.59847e-08)
(2.96117e-08 3.34906e-10 0 2.40325e-08 0 2.68102e-08)
(3.03479e-08 2.90568e-10 0 2.48645e-08 0 2.75952e-08)
(3.10433e-08 2.46545e-10 0 2.56616e-08 0 2.83424e-08)
(3.17009e-08 2.03002e-10 0 2.64256e-08 0 2.9054e-08)
(3.23234e-08 1.60067e-10 0 2.71579e-08 0 2.97322e-08)
(3.29134e-08 1.17839e-10 0 2.78601e-08 0 3.0379e-08)
(3.3473e-08 7.63965e-11 0 2.85337e-08 0 3.09962e-08)
(3.40044e-08 3.57942e-11 0 2.91801e-08 0 3.15858e-08)
(3.45096e-08 -3.9328e-12 0 2.98009e-08 0 3.21494e-08)
(3.49906e-08 -4.27644e-11 0 3.03975e-08 0 3.26887e-08)
(3.54486e-08 -8.06754e-11 0 3.09708e-08 0 3.32048e-08)
(3.58851e-08 -1.17653e-10 0 3.1522e-08 0 3.36992e-08)
(3.63016e-08 -1.53689e-10 0 3.20522e-08 0 3.41729e-08)
(3.66992e-08 -1.8879e-10 0 3.25623e-08 0 3.46272e-08)
(3.70794e-08 -2.22975e-10 0 3.30537e-08 0 3.50634e-08)
(3.74431e-08 -2.56257e-10 0 3.35273e-08 0 3.54823e-08)
(3.77914e-08 -2.88643e-10 0 3.39838e-08 0 3.5885e-08)
(3.8125e-08 -3.20149e-10 0 3.44239e-08 0 3.62722e-08)
(3.84448e-08 -3.50791e-10 0 3.48486e-08 0 3.66447e-08)
(3.87517e-08 -3.80585e-10 0 3.52584e-08 0 3.70033e-08)
(3.90462e-08 -4.09548e-10 0 3.56541e-08 0 3.73486e-08)
(3.9329e-08 -4.37698e-10 0 3.60362e-08 0 3.76812e-08)
(3.96007e-08 -4.65054e-10 0 3.64052e-08 0 3.80018e-08)
(3.98619e-08 -4.91632e-10 0 3.67618e-08 0 3.83109e-08)
(4.01131e-08 -5.17451e-10 0 3.71064e-08 0 3.8609e-08)
(4.03548e-08 -5.42529e-10 0 3.74395e-08 0 3.88965e-08)
(4.05874e-08 -5.66882e-10 0 3.77615e-08 0 3.91739e-08)
(4.08112e-08 -5.90529e-10 0 3.80729e-08 0 3.94417e-08)
(4.10268e-08 -6.13484e-10 0 3.8374e-08 0 3.97001e-08)
(4.12344e-08 -6.35766e-10 0 3.86652e-08 0 3.99496e-08)
(4.14345e-08 -6.5739e-10 0 3.89468e-08 0 4.01906e-08)
(4.16272e-08 -6.78372e-10 0 3.92192e-08 0 4.04232e-08)
(4.18129e-08 -6.98727e-10 0 3.94827e-08 0 4.06479e-08)
(4.19919e-08 -7.18471e-10 0 3.97375e-08 0 4.08649e-08)
(4.21645e-08 -7.37619e-10 0 3.99841e-08 0 4.10745e-08)
(4.23309e-08 -7.56185e-10 0 4.02225e-08 0 4.1277e-08)
(4.24913e-08 -7.74184e-10 0 4.04531e-08 0 4.14726e-08)
(4.2646e-08 -7.9163e-10 0 4.06762e-08 0 4.16615e-08)
(4.27951e-08 -8.08536e-10 0 4.0892e-08 0 4.1844e-08)
(4.2939e-08 -8.24916e-10 0 4.11006e-08 0 4.20203e-08)
(4.30777e-08 -8.40783e-10 0 4.13024e-08 0 4.21906e-08)
(4.32114e-08 -8.56147e-10 0 4.14974e-08 0 4.2355e-08)
(4.33404e-08 -8.71025e-10 0 4.16861e-08 0 4.25139e-08)
(4.34648e-08 -8.85433e-10 0 4.18684e-08 0 4.26672e-08)
(4.35847e-08 -8.99379e-10 0 4.20447e-08 0 4.28154e-08)
(4.37004e-08 -9.12872e-10 0 4.2215e-08 0 4.29584e-08)
(4.38119e-08 -9.25927e-10 0 4.23796e-08 0 4.30965e-08)
(4.39194e-08 -9.38554e-10 0 4.25387e-08 0 4.32298e-08)
(4.40231e-08 -9.50766e-10 0 4.26924e-08 0 4.33585e-08)
(4.4123e-08 -9.62574e-10 0 4.28408e-08 0 4.34827e-08)
(4.42194e-08 -9.73989e-10 0 4.29842e-08 0 4.36026e-08)
(4.43122e-08 -9.85021e-10 0 4.31227e-08 0 4.37183e-08)
(4.44017e-08 -9.95682e-10 0 4.32564e-08 0 4.38299e-08)
(4.4488e-08 -1.00598e-09 0 4.33855e-08 0 4.39376e-08)
(4.45711e-08 -1.01593e-09 0 4.35101e-08 0 4.40414e-08)
(4.46512e-08 -1.02553e-09 0 4.36304e-08 0 4.41416e-08)
(4.47284e-08 -1.03481e-09 0 4.37464e-08 0 4.42382e-08)
(4.48027e-08 -1.04376e-09 0 4.38584e-08 0 4.43314e-08)
(4.48743e-08 -1.0524e-09 0 4.39664e-08 0 4.44212e-08)
(4.49433e-08 -1.06074e-09 0 4.40706e-08 0 4.45078e-08)