/*--------------------------------*- C++ -*----------------------------------*\
| =========                 |                                                 |
| \\      /  F ield         | OpenFOAM: The Open Source CFD Toolbox           |
|  \\    /   O peration     | Version:  v1912                                 |
|   \\  /    A nd           | Website:  www.openfoam.com                      |
|    \\/     M anipulation  |                                                 |
\*---------------------------------------------------------------------------*/
FoamFile
{
    version     2.0;
    format      ascii;
    class       volScalarField;
    location    "50";
    object      p_rgh;
}
// * * * * * * * * * * * * * * * * * * * * * * * * * * * * * * * * * * * * * //

dimensions      [1 -1 -2 0 0 0 0];


internalField   nonuniform List<scalar> 
14268
(
0.000590409
0.000556217
0.000523906
0.000493347
0.000464467
0.000437173
0.000411385
0.000387025
0.000364019
0.000342294
0.000321787
0.000302432
0.00028417
0.000266943
0.000250698
0.000235381
0.000220945
0.000207341
0.000194525
0.000182454
0.000171087
0.000160387
0.000150317
0.000140841
0.000131928
0.000123545
0.000115663
0.000108254
0.000101292
9.4751e-05
8.86073e-05
8.28383e-05
7.74227e-05
7.23401e-05
6.75715e-05
6.30986e-05
5.89043e-05
5.49724e-05
5.12876e-05
4.78352e-05
4.46016e-05
4.15739e-05
3.87397e-05
3.60876e-05
3.36064e-05
3.12861e-05
2.91167e-05
2.70891e-05
2.51947e-05
2.34252e-05
2.17729e-05
2.02306e-05
1.87914e-05
1.74488e-05
1.61969e-05
1.50297e-05
1.39421e-05
1.29288e-05
1.19852e-05
1.11067e-05
1.02891e-05
9.52851e-06
8.82117e-06
8.1636e-06
7.55251e-06
6.98482e-06
6.45766e-06
5.9683e-06
5.51422e-06
5.09304e-06
4.70251e-06
4.34056e-06
4.00523e-06
3.69469e-06
3.40721e-06
3.14122e-06
2.89518e-06
2.66773e-06
2.45752e-06
2.26336e-06
2.08409e-06
1.91865e-06
1.76604e-06
1.62533e-06
1.49566e-06
1.37623e-06
1.26628e-06
1.16511e-06
1.07209e-06
9.86585e-07
9.08058e-07
8.35975e-07
7.69859e-07
7.09256e-07
6.53754e-07
6.02966e-07
5.56536e-07
5.14137e-07
4.75462e-07
4.40234e-07
4.08194e-07
3.79107e-07
3.52756e-07
3.28943e-07
3.07489e-07
2.88229e-07
2.71019e-07
2.55725e-07
2.42232e-07
2.30432e-07
2.20247e-07
2.11582e-07
2.04423e-07
1.98629e-07
1.943e-07
1.91186e-07
1.89677e-07
1.89097e-07
1.90566e-07
1.92408e-07
1.97206e-07
2.01373e-07
2.10076e-07
2.16458e-07
2.29872e-07
2.38345e-07
2.57464e-07
2.67899e-07
2.93735e-07
3.06062e-07
3.39335e-07
3.53584e-07
3.942e-07
4.10511e-07
4.5696e-07
4.75453e-07
5.24723e-07
5.45148e-07
5.9457e-07
6.1606e-07
6.60774e-07
6.82076e-07
7.20015e-07
7.40078e-07
7.70829e-07
7.88941e-07
8.13044e-07
8.28814e-07
8.47276e-07
8.60593e-07
8.74512e-07
8.8547e-07
8.95827e-07
9.04659e-07
9.1228e-07
9.19261e-07
9.24682e-07
9.30245e-07
9.33752e-07
9.38304e-07
9.39937e-07
9.4386e-07
9.4277e-07
9.46235e-07
0.000590336
0.000556147
0.000523841
0.000493285
0.000464409
0.000437118
0.000411333
0.000386976
0.000363972
0.00034225
0.000321745
0.000302392
0.000284133
0.000266908
0.000250665
0.00023535
0.000220915
0.000207313
0.000194498
0.000182429
0.000171064
0.000160365
0.000150296
0.000140822
0.000131909
0.000123528
0.000115647
0.000108239
0.000101278
9.47375e-05
8.85946e-05
8.28264e-05
7.74114e-05
7.23295e-05
6.75615e-05
6.30893e-05
5.88955e-05
5.49642e-05
5.12798e-05
4.78279e-05
4.45948e-05
4.15675e-05
3.87337e-05
3.60819e-05
3.36011e-05
3.12811e-05
2.9112e-05
2.70847e-05
2.51905e-05
2.34213e-05
2.17692e-05
2.02271e-05
1.87882e-05
1.74458e-05
1.6194e-05
1.5027e-05
1.39395e-05
1.29264e-05
1.19829e-05
1.11046e-05
1.02871e-05
9.52664e-06
8.81941e-06
8.16194e-06
7.55094e-06
6.98334e-06
6.45626e-06
5.96698e-06
5.51297e-06
5.09185e-06
4.70139e-06
4.3395e-06
4.00422e-06
3.69373e-06
3.4063e-06
3.14035e-06
2.89435e-06
2.66694e-06
2.45677e-06
2.26264e-06
2.08339e-06
1.91798e-06
1.76539e-06
1.62471e-06
1.49507e-06
1.37565e-06
1.26573e-06
1.16458e-06
1.07157e-06
9.8608e-07
9.07567e-07
8.35497e-07
7.69393e-07
7.08802e-07
6.5331e-07
6.02532e-07
5.5611e-07
5.13719e-07
4.75051e-07
4.3983e-07
4.07797e-07
3.78716e-07
3.5237e-07
3.28563e-07
3.07113e-07
2.87858e-07
2.70653e-07
2.55362e-07
2.41872e-07
2.30076e-07
2.19894e-07
2.11233e-07
2.04076e-07
1.98285e-07
1.9396e-07
1.90848e-07
1.89342e-07
1.88764e-07
1.90236e-07
1.92081e-07
1.96882e-07
2.01052e-07
2.09758e-07
2.16145e-07
2.29561e-07
2.38039e-07
2.57161e-07
2.67602e-07
2.9344e-07
3.05774e-07
3.39049e-07
3.53306e-07
3.93924e-07
4.10241e-07
4.56693e-07
4.75189e-07
5.24461e-07
5.44887e-07
5.9431e-07
6.15796e-07
6.60509e-07
6.81804e-07
7.19742e-07
7.39798e-07
7.70547e-07
7.88652e-07
8.12752e-07
8.28517e-07
8.46977e-07
8.60288e-07
8.74205e-07
8.8516e-07
8.95514e-07
9.04343e-07
9.11962e-07
9.18941e-07
9.24361e-07
9.29922e-07
9.33427e-07
9.37978e-07
9.39609e-07
9.43529e-07
9.42432e-07
9.45896e-07
0.00059026
0.000556076
0.000523773
0.000493221
0.000464348
0.00043706
0.000411279
0.000386924
0.000363923
0.000342204
0.000321702
0.000302351
0.000284094
0.000266871
0.00025063
0.000235317
0.000220884
0.000207283
0.000194471
0.000182403
0.000171039
0.000160342
0.000150274
0.000140801
0.000131889
0.000123509
0.000115629
0.000108222
0.000101262
9.47224e-05
8.85803e-05
8.28128e-05
7.73986e-05
7.23174e-05
6.755e-05
6.30783e-05
5.88852e-05
5.49544e-05
5.12705e-05
4.78191e-05
4.45864e-05
4.15595e-05
3.87261e-05
3.60747e-05
3.35942e-05
3.12745e-05
2.91057e-05
2.70788e-05
2.51848e-05
2.34158e-05
2.17641e-05
2.02222e-05
1.87834e-05
1.74413e-05
1.61896e-05
1.50229e-05
1.39355e-05
1.29226e-05
1.19792e-05
1.1101e-05
1.02836e-05
9.52328e-06
8.81616e-06
8.15879e-06
7.54789e-06
6.98038e-06
6.45338e-06
5.96418e-06
5.51024e-06
5.08919e-06
4.69879e-06
4.33696e-06
4.00173e-06
3.69129e-06
3.40391e-06
3.138e-06
2.89205e-06
2.66467e-06
2.45453e-06
2.26044e-06
2.08122e-06
1.91584e-06
1.76328e-06
1.62262e-06
1.493e-06
1.37361e-06
1.2637e-06
1.16257e-06
1.06957e-06
9.84101e-07
9.05602e-07
8.33545e-07
7.67453e-07
7.06873e-07
6.51392e-07
6.00623e-07
5.54211e-07
5.11827e-07
4.73167e-07
4.37953e-07
4.05926e-07
3.76851e-07
3.50511e-07
3.26709e-07
3.05264e-07
2.86014e-07
2.68812e-07
2.53525e-07
2.40039e-07
2.28247e-07
2.18068e-07
2.0941e-07
2.02256e-07
1.96468e-07
1.92145e-07
1.89037e-07
1.87533e-07
1.86959e-07
1.88433e-07
1.90281e-07
1.95084e-07
1.99259e-07
2.07967e-07
2.14358e-07
2.27777e-07
2.3626e-07
2.55384e-07
2.65832e-07
2.91672e-07
3.04013e-07
3.37291e-07
3.51555e-07
3.92176e-07
4.08498e-07
4.54954e-07
4.73451e-07
5.22727e-07
5.43152e-07
5.92579e-07
6.14059e-07
6.58773e-07
6.80061e-07
7.17998e-07
7.38047e-07
7.68793e-07
7.86891e-07
8.10989e-07
8.26748e-07
8.45205e-07
8.58512e-07
8.72426e-07
8.83377e-07
8.9373e-07
9.02556e-07
9.10173e-07
9.17149e-07
9.22568e-07
9.28127e-07
9.31631e-07
9.36179e-07
9.3781e-07
9.41727e-07
9.40627e-07
9.44077e-07
0.000590181
0.000556
0.000523702
0.000493153
0.000464283
0.000436999
0.000411221
0.000386869
0.000363871
0.000342154
0.000321654
0.000302306
0.000284051
0.000266831
0.000250591
0.000235281
0.000220849
0.00020725
0.000194439
0.000182373
0.000171011
0.000160315
0.000150248
0.000140776
0.000131866
0.000123487
0.000115608
0.000108202
0.000101243
9.4704e-05
8.85627e-05
8.2796e-05
7.73826e-05
7.2302e-05
6.75353e-05
6.30642e-05
5.88717e-05
5.49414e-05
5.1258e-05
4.78071e-05
4.45749e-05
4.15484e-05
3.87154e-05
3.60643e-05
3.35843e-05
3.12649e-05
2.90964e-05
2.70697e-05
2.51761e-05
2.34073e-05
2.17558e-05
2.02142e-05
1.87756e-05
1.74336e-05
1.61822e-05
1.50156e-05
1.39284e-05
1.29156e-05
1.19724e-05
1.10943e-05
1.02771e-05
9.51687e-06
8.80986e-06
8.15259e-06
7.54178e-06
6.97437e-06
6.44745e-06
5.95833e-06
5.50446e-06
5.08348e-06
4.69314e-06
4.33137e-06
3.9962e-06
3.68581e-06
3.39848e-06
3.13261e-06
2.8867e-06
2.65936e-06
2.44926e-06
2.2552e-06
2.07602e-06
1.91066e-06
1.75813e-06
1.61749e-06
1.4879e-06
1.36852e-06
1.25864e-06
1.15752e-06
1.06455e-06
9.79092e-07
9.00607e-07
8.28564e-07
7.62485e-07
7.01916e-07
6.46446e-07
5.95687e-07
5.49284e-07
5.06909e-07
4.68257e-07
4.3305e-07
4.0103e-07
3.71961e-07
3.45627e-07
3.2183e-07
3.00391e-07
2.81145e-07
2.63948e-07
2.48665e-07
2.35183e-07
2.23394e-07
2.13218e-07
2.04563e-07
1.97413e-07
1.91627e-07
1.87307e-07
1.84201e-07
1.827e-07
1.82129e-07
1.83606e-07
1.85457e-07
1.90262e-07
1.9444e-07
2.03151e-07
2.09545e-07
2.22966e-07
2.31455e-07
2.50581e-07
2.61034e-07
2.86877e-07
2.99224e-07
3.32506e-07
3.46775e-07
3.87401e-07
4.03728e-07
4.5019e-07
4.6869e-07
5.17972e-07
5.38396e-07
5.87822e-07
6.09299e-07
6.54011e-07
6.75293e-07
7.13228e-07
7.33269e-07
7.64014e-07
7.82105e-07
8.06201e-07
8.21954e-07
8.40409e-07
8.53711e-07
8.67623e-07
8.7857e-07
8.88921e-07
8.97744e-07
9.0536e-07
9.12334e-07
9.17751e-07
9.23308e-07
9.26811e-07
9.31357e-07
9.32986e-07
9.36899e-07
9.35785e-07
9.39207e-07
0.000590097
0.000555921
0.000523626
0.000493081
0.000464215
0.000436934
0.000411159
0.00038681
0.000363815
0.000342101
0.000321603
0.000302258
0.000284005
0.000266787
0.000250549
0.00023524
0.000220811
0.000207214
0.000194404
0.000182339
0.000170979
0.000160284
0.000150219
0.000140748
0.000131839
0.000123461
0.000115583
0.000108178
0.00010122
9.46822e-05
8.85417e-05
8.27758e-05
7.73631e-05
7.22833e-05
6.75172e-05
6.30467e-05
5.88547e-05
5.4925e-05
5.12422e-05
4.77917e-05
4.45599e-05
4.15339e-05
3.87013e-05
3.60506e-05
3.35709e-05
3.12519e-05
2.90837e-05
2.70573e-05
2.5164e-05
2.33955e-05
2.17442e-05
2.02028e-05
1.87644e-05
1.74227e-05
1.61714e-05
1.5005e-05
1.3918e-05
1.29053e-05
1.19623e-05
1.10843e-05
1.02672e-05
9.50711e-06
8.80022e-06
8.14305e-06
7.53234e-06
6.96501e-06
6.43818e-06
5.94914e-06
5.49535e-06
5.07443e-06
4.68416e-06
4.32245e-06
3.98733e-06
3.67699e-06
3.38971e-06
3.12389e-06
2.87802e-06
2.65071e-06
2.44065e-06
2.24662e-06
2.06747e-06
1.90214e-06
1.74964e-06
1.60903e-06
1.47945e-06
1.3601e-06
1.25023e-06
1.14914e-06
1.05618e-06
9.7074e-07
8.9227e-07
8.2024e-07
7.54173e-07
6.93616e-07
6.38156e-07
5.87407e-07
5.41013e-07
4.98646e-07
4.60001e-07
4.24802e-07
3.92788e-07
3.63725e-07
3.37397e-07
3.13605e-07
2.9217e-07
2.72929e-07
2.55736e-07
2.40457e-07
2.26978e-07
2.15193e-07
2.05021e-07
1.96369e-07
1.89221e-07
1.83439e-07
1.79122e-07
1.76019e-07
1.74521e-07
1.73952e-07
1.75432e-07
1.77286e-07
1.82094e-07
1.86276e-07
1.94989e-07
2.01389e-07
2.14812e-07
2.23307e-07
2.42435e-07
2.52895e-07
2.7874e-07
2.91096e-07
3.24378e-07
3.38656e-07
3.79283e-07
3.95616e-07
4.4208e-07
4.60582e-07
5.09864e-07
5.30289e-07
5.79723e-07
6.01193e-07
6.4591e-07
6.67183e-07
7.05119e-07
7.25153e-07
7.55896e-07
7.73979e-07
7.98073e-07
8.13819e-07
8.32272e-07
8.45568e-07
8.59477e-07
8.7042e-07
8.80768e-07
8.89588e-07
8.97201e-07
9.04173e-07
9.09588e-07
9.15143e-07
9.18645e-07
9.23189e-07
9.2482e-07
9.28731e-07
9.27629e-07
9.31019e-07
0.000590011
0.000555838
0.000523547
0.000493006
0.000464144
0.000436866
0.000411094
0.000386748
0.000363755
0.000342044
0.00032155
0.000302206
0.000283956
0.00026674
0.000250504
0.000235198
0.00022077
0.000207175
0.000194367
0.000182303
0.000170944
0.000160251
0.000150187
0.000140718
0.00013181
0.000123433
0.000115556
0.000108152
0.000101194
9.46577e-05
8.85181e-05
8.2753e-05
7.7341e-05
7.22619e-05
6.74965e-05
6.30267e-05
5.88353e-05
5.49061e-05
5.12237e-05
4.77738e-05
4.45425e-05
4.15169e-05
3.86847e-05
3.60344e-05
3.3555e-05
3.12363e-05
2.90685e-05
2.70424e-05
2.51493e-05
2.33811e-05
2.17301e-05
2.01889e-05
1.87508e-05
1.74092e-05
1.61582e-05
1.49919e-05
1.39051e-05
1.28926e-05
1.19496e-05
1.10718e-05
1.02549e-05
9.49488e-06
8.7881e-06
8.13104e-06
7.52043e-06
6.95319e-06
6.42644e-06
5.93748e-06
5.48376e-06
5.06292e-06
4.67271e-06
4.31106e-06
3.976e-06
3.66572e-06
3.37848e-06
3.11271e-06
2.86688e-06
2.63961e-06
2.42959e-06
2.23559e-06
2.05647e-06
1.89117e-06
1.7387e-06
1.59811e-06
1.46856e-06
1.34923e-06
1.23938e-06
1.13831e-06
1.04536e-06
9.5994e-07
8.81484e-07
8.09468e-07
7.43413e-07
6.82868e-07
6.27418e-07
5.76679e-07
5.30294e-07
4.87936e-07
4.493e-07
4.14108e-07
3.82101e-07
3.53044e-07
3.26721e-07
3.02935e-07
2.81505e-07
2.62269e-07
2.4508e-07
2.29805e-07
2.1633e-07
2.04548e-07
1.9438e-07
1.85731e-07
1.78586e-07
1.72807e-07
1.68493e-07
1.65392e-07
1.63897e-07
1.63331e-07
1.64814e-07
1.66671e-07
1.71482e-07
1.75667e-07
1.84383e-07
1.90787e-07
2.04213e-07
2.12712e-07
2.31843e-07
2.42309e-07
2.68157e-07
2.80518e-07
3.13805e-07
3.28088e-07
3.68719e-07
3.85058e-07
4.31525e-07
4.50031e-07
4.99317e-07
5.19743e-07
5.69178e-07
5.90645e-07
6.35362e-07
6.56629e-07
6.94565e-07
7.1459e-07
7.45333e-07
7.63408e-07
7.875e-07
8.03239e-07
8.2169e-07
8.34981e-07
8.48888e-07
8.59826e-07
8.70172e-07
8.78988e-07
8.866e-07
8.93569e-07
8.98982e-07
9.04535e-07
9.08036e-07
9.12578e-07
9.14209e-07
9.18117e-07
9.17021e-07
9.20388e-07
0.000589922
0.000555754
0.000523467
0.00049293
0.000464071
0.000436797
0.000411027
0.000386685
0.000363695
0.000341987
0.000321495
0.000302154
0.000283906
0.000266692
0.000250459
0.000235154
0.000220728
0.000207134
0.000194328
0.000182266
0.000170909
0.000160217
0.000150155
0.000140686
0.00013178
0.000123404
0.000115528
0.000108125
0.000101168
9.46326e-05
8.84938e-05
8.27295e-05
7.73183e-05
7.22399e-05
6.74751e-05
6.30059e-05
5.88151e-05
5.48865e-05
5.12047e-05
4.77553e-05
4.45244e-05
4.14993e-05
3.86675e-05
3.60176e-05
3.35386e-05
3.12202e-05
2.90527e-05
2.70269e-05
2.51341e-05
2.33662e-05
2.17154e-05
2.01744e-05
1.87365e-05
1.73952e-05
1.61443e-05
1.49783e-05
1.38916e-05
1.28793e-05
1.19365e-05
1.10588e-05
1.0242e-05
9.48211e-06
8.77544e-06
8.11849e-06
7.50797e-06
6.94083e-06
6.41417e-06
5.92529e-06
5.47165e-06
5.05088e-06
4.66073e-06
4.29914e-06
3.96414e-06
3.65391e-06
3.36672e-06
3.101e-06
2.85521e-06
2.62799e-06
2.418e-06
2.22404e-06
2.04495e-06
1.87968e-06
1.72723e-06
1.58667e-06
1.45714e-06
1.33783e-06
1.22801e-06
1.12695e-06
1.03402e-06
9.48616e-07
8.70175e-07
7.98173e-07
7.32131e-07
6.71597e-07
6.16158e-07
5.65429e-07
5.19053e-07
4.76704e-07
4.38075e-07
4.0289e-07
3.7089e-07
3.41839e-07
3.15522e-07
2.91741e-07
2.70316e-07
2.51084e-07
2.339e-07
2.18629e-07
2.05158e-07
1.9338e-07
1.83214e-07
1.74569e-07
1.67428e-07
1.61651e-07
1.5734e-07
1.54242e-07
1.5275e-07
1.52187e-07
1.53673e-07
1.55533e-07
1.60347e-07
1.64536e-07
1.73254e-07
1.79663e-07
1.93091e-07
2.01596e-07
2.20729e-07
2.31202e-07
2.57051e-07
2.69421e-07
3.02708e-07
3.17001e-07
3.57634e-07
3.73978e-07
4.20448e-07
4.38956e-07
4.88245e-07
5.08668e-07
5.58114e-07
5.79573e-07
6.24296e-07
6.45555e-07
6.83492e-07
7.03509e-07
7.3425e-07
7.52318e-07
7.76408e-07
7.9214e-07
8.10588e-07
8.23873e-07
8.37777e-07
8.48711e-07
8.59054e-07
8.67867e-07
8.75476e-07
8.82442e-07
8.87854e-07
8.93404e-07
8.96905e-07
9.01444e-07
9.03077e-07
9.06983e-07
9.05903e-07
9.09264e-07
0.000589835
0.000555671
0.000523388
0.000492854
0.000463999
0.000436728
0.000410962
0.000386623
0.000363636
0.00034193
0.00032144
0.000302102
0.000283856
0.000266645
0.000250413
0.000235111
0.000220687
0.000207095
0.00019429
0.00018223
0.000170874
0.000160184
0.000150123
0.000140656
0.000131751
0.000123375
0.000115501
0.000108099
0.000101143
9.46084e-05
8.84705e-05
8.2707e-05
7.72965e-05
7.22188e-05
6.74548e-05
6.29862e-05
5.8796e-05
5.4868e-05
5.11867e-05
4.77378e-05
4.45074e-05
4.14827e-05
3.86513e-05
3.60018e-05
3.35232e-05
3.12052e-05
2.9038e-05
2.70125e-05
2.512e-05
2.33523e-05
2.17018e-05
2.01611e-05
1.87234e-05
1.73822e-05
1.61316e-05
1.49657e-05
1.38792e-05
1.2867e-05
1.19244e-05
1.10469e-05
1.02302e-05
9.47044e-06
8.76389e-06
8.10704e-06
7.49663e-06
6.92959e-06
6.40301e-06
5.91422e-06
5.46065e-06
5.03995e-06
4.64987e-06
4.28834e-06
3.9534e-06
3.64322e-06
3.35609e-06
3.0904e-06
2.84466e-06
2.61748e-06
2.40753e-06
2.2136e-06
2.03455e-06
1.86931e-06
1.71689e-06
1.57635e-06
1.44685e-06
1.32756e-06
1.21776e-06
1.11672e-06
1.02381e-06
9.38419e-07
8.59993e-07
7.88005e-07
7.21976e-07
6.61454e-07
6.06027e-07
5.55308e-07
5.08942e-07
4.66601e-07
4.2798e-07
3.92803e-07
3.60809e-07
3.31765e-07
3.05454e-07
2.81679e-07
2.60259e-07
2.41032e-07
2.23852e-07
2.08585e-07
1.95118e-07
1.83343e-07
1.73182e-07
1.64539e-07
1.57401e-07
1.51628e-07
1.4732e-07
1.44224e-07
1.42735e-07
1.42175e-07
1.43663e-07
1.45526e-07
1.50343e-07
1.54535e-07
1.63256e-07
1.69668e-07
1.83099e-07
1.91609e-07
2.10744e-07
2.21223e-07
2.47076e-07
2.59451e-07
2.92743e-07
3.0704e-07
3.47678e-07
3.64028e-07
4.10501e-07
4.29014e-07
4.78304e-07
4.98732e-07
5.4818e-07
5.69636e-07
6.1436e-07
6.35612e-07
6.73549e-07
6.93558e-07
7.24298e-07
7.42358e-07
7.66446e-07
7.82171e-07
8.00617e-07
8.13896e-07
8.27798e-07
8.38727e-07
8.49069e-07
8.57878e-07
8.65485e-07
8.72448e-07
8.77859e-07
8.83406e-07
8.86906e-07
8.91443e-07
8.93077e-07
8.96979e-07
8.95921e-07
8.99293e-07
0.000589748
0.000555589
0.000523309
0.000492779
0.000463928
0.000436661
0.000410898
0.000386562
0.000363578
0.000341875
0.000321388
0.000302052
0.000283809
0.000266599
0.00025037
0.000235069
0.000220648
0.000207058
0.000194255
0.000182196
0.000170842
0.000160153
0.000150093
0.000140627
0.000131723
0.000123349
0.000115476
0.000108075
0.00010112
9.45863e-05
8.84493e-05
8.26866e-05
7.72769e-05
7.21999e-05
6.74365e-05
6.29686e-05
5.8779e-05
5.48516e-05
5.11708e-05
4.77224e-05
4.44925e-05
4.14682e-05
3.86373e-05
3.59882e-05
3.35099e-05
3.11923e-05
2.90254e-05
2.70002e-05
2.5108e-05
2.33406e-05
2.16903e-05
2.01499e-05
1.87124e-05
1.73715e-05
1.6121e-05
1.49553e-05
1.3869e-05
1.2857e-05
1.19145e-05
1.10371e-05
1.02206e-05
9.46096e-06
8.75452e-06
8.09779e-06
7.48748e-06
6.92053e-06
6.39404e-06
5.90533e-06
5.45184e-06
5.03121e-06
4.6412e-06
4.27974e-06
3.94485e-06
3.63473e-06
3.34764e-06
3.08201e-06
2.83631e-06
2.60917e-06
2.39926e-06
2.20537e-06
2.02634e-06
1.86113e-06
1.70874e-06
1.56823e-06
1.43875e-06
1.31949e-06
1.2097e-06
1.10869e-06
1.0158e-06
9.30422e-07
8.52012e-07
7.80038e-07
7.14022e-07
6.53512e-07
5.98096e-07
5.47387e-07
5.01031e-07
4.58699e-07
4.20087e-07
3.84917e-07
3.5293e-07
3.23893e-07
2.97588e-07
2.73817e-07
2.52403e-07
2.33181e-07
2.16005e-07
2.00742e-07
1.87279e-07
1.75508e-07
1.6535e-07
1.56711e-07
1.49576e-07
1.43805e-07
1.395e-07
1.36408e-07
1.34922e-07
1.34364e-07
1.35855e-07
1.37722e-07
1.42541e-07
1.46736e-07
1.5546e-07
1.61876e-07
1.7531e-07
1.83824e-07
2.02963e-07
2.13447e-07
2.39302e-07
2.51685e-07
2.84978e-07
2.99283e-07
3.39925e-07
3.56279e-07
4.02759e-07
4.21271e-07
4.70568e-07
4.90991e-07
5.40452e-07
5.619e-07
6.06629e-07
6.27873e-07
6.65811e-07
6.85812e-07
7.1655e-07
7.34603e-07
7.58689e-07
7.74407e-07
7.9285e-07
8.06123e-07
8.20023e-07
8.30947e-07
8.41287e-07
8.50092e-07
8.57697e-07
8.64657e-07
8.70066e-07
8.75611e-07
8.7911e-07
8.83645e-07
8.8528e-07
8.89179e-07
8.88149e-07
8.91542e-07
0.000589663
0.000555508
0.000523233
0.000492707
0.000463859
0.000436595
0.000410836
0.000386503
0.000363521
0.000341821
0.000321337
0.000302004
0.000283763
0.000266556
0.000250329
0.00023503
0.00022061
0.000207022
0.000194221
0.000182164
0.000170811
0.000160124
0.000150065
0.000140601
0.000131698
0.000123325
0.000115453
0.000108053
0.000101099
9.45663e-05
8.84301e-05
8.26683e-05
7.72594e-05
7.21831e-05
6.74204e-05
6.29532e-05
5.87642e-05
5.48373e-05
5.11571e-05
4.77092e-05
4.44798e-05
4.1456e-05
3.86255e-05
3.59768e-05
3.34989e-05
3.11816e-05
2.90151e-05
2.69902e-05
2.50983e-05
2.33312e-05
2.16812e-05
2.01409e-05
1.87037e-05
1.7363e-05
1.61127e-05
1.49472e-05
1.38611e-05
1.28492e-05
1.19069e-05
1.10297e-05
1.02133e-05
9.45376e-06
8.74744e-06
8.09082e-06
7.48061e-06
6.91376e-06
6.38736e-06
5.89874e-06
5.44533e-06
5.02477e-06
4.63483e-06
4.27343e-06
3.9386e-06
3.62854e-06
3.3415e-06
3.07592e-06
2.83027e-06
2.60316e-06
2.39329e-06
2.19944e-06
2.02045e-06
1.85527e-06
1.7029e-06
1.56242e-06
1.43297e-06
1.31373e-06
1.20396e-06
1.10297e-06
1.01009e-06
9.24738e-07
8.46343e-07
7.74384e-07
7.08382e-07
6.47885e-07
5.9248e-07
5.41782e-07
4.95436e-07
4.53113e-07
4.14509e-07
3.79347e-07
3.47368e-07
3.18337e-07
2.92038e-07
2.68274e-07
2.46865e-07
2.27647e-07
2.10476e-07
1.95218e-07
1.81759e-07
1.69992e-07
1.59837e-07
1.51201e-07
1.44069e-07
1.38301e-07
1.34e-07
1.3091e-07
1.29426e-07
1.28871e-07
1.30365e-07
1.32234e-07
1.37056e-07
1.41254e-07
1.49981e-07
1.564e-07
1.69836e-07
1.78356e-07
1.97496e-07
2.07986e-07
2.33844e-07
2.46231e-07
2.79531e-07
2.93839e-07
3.34487e-07
3.50846e-07
3.97331e-07
4.15848e-07
4.65149e-07
4.85577e-07
5.35037e-07
5.56485e-07
6.01214e-07
6.22452e-07
6.6039e-07
6.80381e-07
7.1112e-07
7.29164e-07
7.53248e-07
7.6896e-07
7.874e-07
8.00668e-07
8.14565e-07
8.25485e-07
8.35822e-07
8.44624e-07
8.52227e-07
8.59185e-07
8.64592e-07
8.70135e-07
8.73633e-07
8.78165e-07
8.79799e-07
8.83695e-07
8.82688e-07
8.86101e-07
0.000589579
0.000555429
0.000523157
0.000492635
0.000463791
0.000436531
0.000410775
0.000386445
0.000363467
0.00034177
0.000321288
0.000301957
0.000283719
0.000266514
0.000250289
0.000234992
0.000220575
0.000206988
0.000194189
0.000182134
0.000170782
0.000160096
0.000150039
0.000140576
0.000131675
0.000123303
0.000115432
0.000108033
0.00010108
9.45482e-05
8.84129e-05
8.26519e-05
7.72437e-05
7.21682e-05
6.74063e-05
6.29397e-05
5.87513e-05
5.4825e-05
5.11454e-05
4.7698e-05
4.4469e-05
4.14457e-05
3.86156e-05
3.59673e-05
3.34898e-05
3.11729e-05
2.90067e-05
2.69822e-05
2.50906e-05
2.33237e-05
2.1674e-05
2.0134e-05
1.8697e-05
1.73565e-05
1.61064e-05
1.49411e-05
1.38552e-05
1.28435e-05
1.19013e-05
1.10242e-05
1.02079e-05
9.44857e-06
8.74237e-06
8.08586e-06
7.47576e-06
6.909e-06
6.3827e-06
5.89416e-06
5.44083e-06
5.02035e-06
4.63048e-06
4.26914e-06
3.93438e-06
3.62437e-06
3.33739e-06
3.07185e-06
2.82624e-06
2.59918e-06
2.38935e-06
2.19553e-06
2.01658e-06
1.85143e-06
1.69909e-06
1.55864e-06
1.42921e-06
1.31e-06
1.20025e-06
1.09927e-06
1.00642e-06
9.2108e-07
8.42702e-07
7.70757e-07
7.04769e-07
6.44284e-07
5.88891e-07
5.38204e-07
4.91868e-07
4.49554e-07
4.10959e-07
3.75805e-07
3.43833e-07
3.14809e-07
2.88516e-07
2.64758e-07
2.43354e-07
2.24142e-07
2.06975e-07
1.91721e-07
1.78266e-07
1.66503e-07
1.56351e-07
1.47719e-07
1.40591e-07
1.34826e-07
1.30527e-07
1.27439e-07
1.25959e-07
1.25406e-07
1.26903e-07
1.28775e-07
1.33599e-07
1.37801e-07
1.4653e-07
1.52953e-07
1.66392e-07
1.74914e-07
1.94059e-07
2.04553e-07
2.30413e-07
2.42809e-07
2.76108e-07
2.90426e-07
3.31077e-07
3.47442e-07
3.93934e-07
4.12452e-07
4.61761e-07
4.82186e-07
5.31656e-07
5.53097e-07
5.9783e-07
6.1906e-07
6.56998e-07
6.76984e-07
7.07719e-07
7.25757e-07
7.49838e-07
7.65542e-07
7.83981e-07
7.97243e-07
8.11138e-07
8.22053e-07
8.32388e-07
8.41186e-07
8.48787e-07
8.55742e-07
8.61147e-07
8.66687e-07
8.70184e-07
8.74714e-07
8.76349e-07
8.80241e-07
8.7926e-07
8.82688e-07
0.000589496
0.00055535
0.000523083
0.000492565
0.000463724
0.000436467
0.000410715
0.000386388
0.000363413
0.000341719
0.00032124
0.000301912
0.000283675
0.000266473
0.000250251
0.000234956
0.00022054
0.000206955
0.000194158
0.000182104
0.000170755
0.00016007
0.000150014
0.000140553
0.000131652
0.000123282
0.000115412
0.000108014
0.000101063
9.45313e-05
8.83969e-05
8.26367e-05
7.72294e-05
7.21547e-05
6.73934e-05
6.29275e-05
5.87397e-05
5.4814e-05
5.1135e-05
4.76881e-05
4.44597e-05
4.14368e-05
3.86071e-05
3.59593e-05
3.34822e-05
3.11656e-05
2.89997e-05
2.69755e-05
2.50842e-05
2.33176e-05
2.16681e-05
2.01284e-05
1.86917e-05
1.73514e-05
1.61015e-05
1.49364e-05
1.38506e-05
1.28391e-05
1.18971e-05
1.10202e-05
1.0204e-05
9.44479e-06
8.73872e-06
8.08232e-06
7.47233e-06
6.90567e-06
6.37946e-06
5.891e-06
5.43775e-06
5.01735e-06
4.62755e-06
4.26628e-06
3.93157e-06
3.62162e-06
3.33469e-06
3.0692e-06
2.82364e-06
2.59663e-06
2.38683e-06
2.19305e-06
2.01413e-06
1.84902e-06
1.69671e-06
1.55629e-06
1.42688e-06
1.30769e-06
1.19797e-06
1.09701e-06
1.00417e-06
9.18852e-07
8.4049e-07
7.6856e-07
7.02586e-07
6.42114e-07
5.86733e-07
5.36057e-07
4.8973e-07
4.47426e-07
4.08839e-07
3.73693e-07
3.41729e-07
3.12712e-07
2.86425e-07
2.62673e-07
2.41274e-07
2.22067e-07
2.04905e-07
1.89656e-07
1.76205e-07
1.64445e-07
1.54297e-07
1.45668e-07
1.38543e-07
1.32781e-07
1.28485e-07
1.25401e-07
1.23923e-07
1.23373e-07
1.24873e-07
1.26746e-07
1.31574e-07
1.35778e-07
1.4451e-07
1.50937e-07
1.64378e-07
1.72906e-07
1.92051e-07
2.02552e-07
2.28415e-07
2.40815e-07
2.7412e-07
2.88443e-07
3.29099e-07
3.45469e-07
3.91967e-07
4.10488e-07
4.59803e-07
4.8023e-07
5.29704e-07
5.51143e-07
5.95878e-07
6.17102e-07
6.5504e-07
6.75017e-07
7.05753e-07
7.23781e-07
7.47861e-07
7.63559e-07
7.81994e-07
7.95251e-07
8.09143e-07
8.20053e-07
8.30386e-07
8.3918e-07
8.46778e-07
8.53731e-07
8.59135e-07
8.64672e-07
8.68168e-07
8.72695e-07
8.74331e-07
8.7822e-07
8.77271e-07
8.80707e-07
0.000589413
0.000555271
0.000523008
0.000492494
0.000463657
0.000436404
0.000410655
0.000386331
0.000363359
0.000341668
0.000321192
0.000301866
0.000283633
0.000266433
0.000250212
0.00023492
0.000220506
0.000206923
0.000194128
0.000182076
0.000170728
0.000160045
0.00014999
0.00014053
0.000131631
0.000123262
0.000115393
0.000107996
0.000101045
9.45152e-05
8.83818e-05
8.26224e-05
7.72159e-05
7.21419e-05
6.73813e-05
6.29161e-05
5.8729e-05
5.48039e-05
5.11254e-05
4.76791e-05
4.44511e-05
4.14287e-05
3.85995e-05
3.5952e-05
3.34753e-05
3.11591e-05
2.89937e-05
2.69697e-05
2.50787e-05
2.33125e-05
2.16632e-05
2.01238e-05
1.86872e-05
1.73472e-05
1.60976e-05
1.49326e-05
1.3847e-05
1.28357e-05
1.18938e-05
1.1017e-05
1.02011e-05
9.44194e-06
8.73598e-06
8.0797e-06
7.46982e-06
6.90326e-06
6.37715e-06
5.88878e-06
5.43561e-06
5.01528e-06
4.62555e-06
4.26435e-06
3.92971e-06
3.61981e-06
3.33294e-06
3.0675e-06
2.82199e-06
2.59501e-06
2.38526e-06
2.19151e-06
2.01263e-06
1.84755e-06
1.69527e-06
1.55487e-06
1.4255e-06
1.30633e-06
1.19663e-06
1.09569e-06
1.00287e-06
9.1757e-07
8.39224e-07
7.6731e-07
7.01349e-07
6.40891e-07
5.85521e-07
5.34857e-07
4.8854e-07
4.46246e-07
4.07668e-07
3.7253e-07
3.40573e-07
3.11563e-07
2.85283e-07
2.61537e-07
2.40144e-07
2.20942e-07
2.03785e-07
1.8854e-07
1.75093e-07
1.63337e-07
1.53193e-07
1.44567e-07
1.37445e-07
1.31686e-07
1.27393e-07
1.24311e-07
1.22837e-07
1.22289e-07
1.23792e-07
1.25668e-07
1.30498e-07
1.34705e-07
1.43439e-07
1.49869e-07
1.63313e-07
1.71845e-07
1.90993e-07
2.01499e-07
2.27364e-07
2.39771e-07
2.73079e-07
2.87408e-07
3.2807e-07
3.44444e-07
3.9095e-07
4.09473e-07
4.58796e-07
4.79222e-07
5.28705e-07
5.50138e-07
5.94876e-07
6.16094e-07
6.54032e-07
6.74002e-07
7.04735e-07
7.22757e-07
7.46834e-07
7.62525e-07
7.80958e-07
7.94208e-07
8.08098e-07
8.19003e-07
8.29333e-07
8.38125e-07
8.45721e-07
8.5267e-07
8.58072e-07
8.63607e-07
8.67102e-07
8.71627e-07
8.73262e-07
8.77148e-07
8.76223e-07
8.79668e-07
0.00058933
0.000555192
0.000522934
0.000492424
0.000463591
0.000436341
0.000410595
0.000386275
0.000363306
0.000341618
0.000321144
0.000301821
0.00028359
0.000266392
0.000250174
0.000234884
0.000220472
0.000206892
0.000194097
0.000182047
0.000170701
0.000160019
0.000149967
0.000140508
0.00013161
0.000123242
0.000115374
0.000107979
0.000101029
9.44996e-05
8.8367e-05
8.26085e-05
7.72028e-05
7.21296e-05
6.73697e-05
6.29052e-05
5.87187e-05
5.47942e-05
5.11163e-05
4.76705e-05
4.4443e-05
4.14211e-05
3.85924e-05
3.59453e-05
3.3469e-05
3.11532e-05
2.8988e-05
2.69645e-05
2.50738e-05
2.33078e-05
2.16588e-05
2.01196e-05
1.86833e-05
1.73435e-05
1.60941e-05
1.49294e-05
1.38439e-05
1.28328e-05
1.18911e-05
1.10144e-05
1.01986e-05
9.43961e-06
8.73378e-06
8.07761e-06
7.46784e-06
6.90138e-06
6.37536e-06
5.88708e-06
5.434e-06
5.01375e-06
4.62409e-06
4.26295e-06
3.92837e-06
3.61854e-06
3.33172e-06
3.06633e-06
2.82086e-06
2.59393e-06
2.38422e-06
2.19051e-06
2.01166e-06
1.84661e-06
1.69437e-06
1.554e-06
1.42465e-06
1.3055e-06
1.19582e-06
1.09491e-06
1.00211e-06
9.16825e-07
8.38496e-07
7.66597e-07
7.0065e-07
6.40204e-07
5.84847e-07
5.34194e-07
4.87888e-07
4.45603e-07
4.07034e-07
3.71904e-07
3.39955e-07
3.10952e-07
2.84678e-07
2.60937e-07
2.3955e-07
2.20353e-07
2.03201e-07
1.8796e-07
1.74517e-07
1.62765e-07
1.52625e-07
1.44002e-07
1.36884e-07
1.31128e-07
1.26838e-07
1.23759e-07
1.22287e-07
1.21742e-07
1.23248e-07
1.25126e-07
1.2996e-07
1.34169e-07
1.42907e-07
1.4934e-07
1.62786e-07
1.71323e-07
1.90473e-07
2.00984e-07
2.26852e-07
2.39265e-07
2.72577e-07
2.86912e-07
3.27579e-07
3.43957e-07
3.9047e-07
4.08996e-07
4.58325e-07
4.78752e-07
5.28243e-07
5.49672e-07
5.94415e-07
6.15625e-07
6.53564e-07
6.73526e-07
7.04258e-07
7.22272e-07
7.46347e-07
7.62031e-07
7.80461e-07
7.93705e-07
8.07592e-07
8.18493e-07
8.2882e-07
8.37607e-07
8.45201e-07
8.52148e-07
8.57548e-07
8.63081e-07
8.66574e-07
8.71097e-07
8.72733e-07
8.76616e-07
8.75723e-07
8.79191e-07
0.000589204
0.000555074
0.000522821
0.000492317
0.00046349
0.000436246
0.000410505
0.00038619
0.000363226
0.000341542
0.000321073
0.000301754
0.000283526
0.000266332
0.000250117
0.00023483
0.000220421
0.000206844
0.000194052
0.000182005
0.000170661
0.000159982
0.000149931
0.000140474
0.000131578
0.000123212
0.000115346
0.000107952
0.000101004
9.44762e-05
8.8345e-05
8.25878e-05
7.71833e-05
7.21113e-05
6.73526e-05
6.2889e-05
5.87036e-05
5.478e-05
5.11029e-05
4.76579e-05
4.44312e-05
4.141e-05
3.8582e-05
3.59356e-05
3.34599e-05
3.11446e-05
2.898e-05
2.69569e-05
2.50667e-05
2.33011e-05
2.16526e-05
2.01138e-05
1.86778e-05
1.73384e-05
1.60893e-05
1.49248e-05
1.38397e-05
1.28288e-05
1.18874e-05
1.10109e-05
1.01953e-05
9.43653e-06
8.73089e-06
8.0749e-06
7.46529e-06
6.89899e-06
6.37311e-06
5.88497e-06
5.43201e-06
5.01187e-06
4.62232e-06
4.26129e-06
3.92681e-06
3.61706e-06
3.33032e-06
3.06501e-06
2.81962e-06
2.59275e-06
2.3831e-06
2.18945e-06
2.01066e-06
1.84566e-06
1.69346e-06
1.55313e-06
1.42382e-06
1.30471e-06
1.19507e-06
1.09419e-06
1.00142e-06
9.16161e-07
8.37857e-07
7.65981e-07
7.00056e-07
6.39631e-07
5.84292e-07
5.33656e-07
4.87366e-07
4.45095e-07
4.0654e-07
3.71423e-07
3.39485e-07
3.10493e-07
2.84229e-07
2.60498e-07
2.39119e-07
2.1993e-07
2.02785e-07
1.87551e-07
1.74114e-07
1.62368e-07
1.52234e-07
1.43616e-07
1.36503e-07
1.30751e-07
1.26466e-07
1.2339e-07
1.21923e-07
1.21381e-07
1.22892e-07
1.24774e-07
1.29611e-07
1.33825e-07
1.42566e-07
1.49004e-07
1.62454e-07
1.70996e-07
1.90151e-07
2.00669e-07
2.26542e-07
2.38963e-07
2.7228e-07
2.86624e-07
3.273e-07
3.43685e-07
3.90211e-07
4.08739e-07
4.58081e-07
4.78507e-07
5.28012e-07
5.49434e-07
5.94183e-07
6.15383e-07
6.53323e-07
6.73273e-07
7.04003e-07
7.22005e-07
7.46076e-07
7.6175e-07
7.80176e-07
7.93411e-07
8.07294e-07
8.18187e-07
8.28511e-07
8.37293e-07
8.44883e-07