/*--------------------------------*- C++ -*----------------------------------*\
| =========                 |                                                 |
| \\      /  F ield         | OpenFOAM: The Open Source CFD Toolbox           |
|  \\    /   O peration     | Version:  v1912                                 |
|   \\  /    A nd           | Website:  www.openfoam.com                      |
|    \\/     M anipulation  |                                                 |
\*---------------------------------------------------------------------------*/
FoamFile
{
    version     2.0;
    format      ascii;
    class       surfaceScalarField;
    location    "50";
    object      phi;
}
// * * * * * * * * * * * * * * * * * * * * * * * * * * * * * * * * * * * * * //

dimensions      [0 3 -1 0 0 0 0];
oriented        oriented;


internalField   nonuniform List<scalar> 
28285
(
8.73604e-07
4.95185e-08
8.26599e-07
4.70052e-08
7.81986e-07
4.46125e-08
7.39655e-07
4.23313e-08
6.99495e-07
4.01604e-08
6.61403e-07
3.80914e-08
6.2528e-07
3.61231e-08
5.91032e-07
3.4248e-08
5.58567e-07
3.24647e-08
5.27801e-07
3.07666e-08
4.98649e-07
2.91522e-08
4.71033e-07
2.76157e-08
4.44878e-07
2.61552e-08
4.20112e-07
2.4766e-08
3.96666e-07
2.3446e-08
3.74475e-07
2.21908e-08
3.53476e-07
2.09987e-08
3.3361e-07
1.98658e-08
3.1482e-07
1.879e-08
2.97052e-07
1.77681e-08
2.80254e-07
1.67982e-08
2.64377e-07
1.58774e-08
2.49373e-07
1.50037e-08
2.35198e-07
1.41746e-08
2.2181e-07
1.33882e-08
2.09168e-07
1.26424e-08
1.97232e-07
1.19352e-08
1.85968e-07
1.12649e-08
1.75338e-07
1.06296e-08
1.6531e-07
1.00277e-08
1.55853e-07
9.45739e-09
1.46936e-07
8.91737e-09
1.3853e-07
8.40601e-09
1.30608e-07
7.92193e-09
1.23144e-07
7.46387e-09
1.16113e-07
7.03034e-09
1.09493e-07
6.62044e-09
1.0326e-07
6.23254e-09
9.73943e-08
5.86608e-09
9.18749e-08
5.51938e-09
8.66829e-08
5.19207e-09
8.18003e-08
4.88253e-09
7.72099e-08
4.59044e-09
7.28955e-08
4.31439e-09
6.88415e-08
4.05399e-09
6.50335e-08
3.80806e-09
6.14573e-08
3.57615e-09
5.81e-08
3.35731e-09
5.4949e-08
3.15099e-09
5.19926e-08
2.95645e-09
4.92195e-08
2.7731e-09
4.66191e-08
2.60036e-09
4.41815e-08
2.43761e-09
4.18971e-08
2.28439e-09
3.9757e-08
2.1401e-09
3.77527e-08
2.00433e-09
3.58761e-08
1.87657e-09
3.41197e-08
1.7564e-09
3.24763e-08
1.6434e-09
3.09391e-08
1.53717e-09
2.95018e-08
1.43736e-09
2.81582e-08
1.34356e-09
2.69027e-08
1.25549e-09
2.57299e-08
1.17278e-09
2.46347e-08
1.09518e-09
2.36124e-08
1.02233e-09
2.26584e-08
9.54053e-10
2.17684e-08
8.89962e-10
2.09384e-08
8.29971e-10
2.01648e-08
7.73662e-10
1.94437e-08
7.21029e-10
1.87721e-08
6.7162e-10
1.81466e-08
6.25501e-10
1.75644e-08
5.82222e-10
1.70225e-08
5.41869e-10
1.65185e-08
5.04016e-10
1.60498e-08
4.68755e-10
1.5614e-08
4.35707e-10
1.52091e-08
4.04943e-10
1.4833e-08
3.76149e-10
1.44836e-08
3.49343e-10
1.41593e-08
3.2431e-10
1.38583e-08
3.00987e-10
1.3579e-08
2.79276e-10
1.332e-08
2.59032e-10
1.30798e-08
2.40237e-10
1.28571e-08
2.2271e-10
1.26506e-08
2.0648e-10
1.24592e-08
1.91355e-10
1.22818e-08
1.77383e-10
1.21175e-08
1.64378e-10
1.19651e-08
1.52392e-10
1.18238e-08
1.41265e-10
1.16928e-08
1.31033e-10
1.15712e-08
1.21578e-10
1.14583e-08
1.12895e-10
1.13534e-08
1.04927e-10
1.12557e-08
9.76303e-11
1.11647e-08
9.09948e-11
1.10798e-08
8.49551e-11
1.10003e-08
7.95174e-11
1.09256e-08
7.4629e-11
1.08554e-08
7.02888e-11
1.07889e-08
6.64796e-11
1.07257e-08
6.31742e-11
1.06653e-08
6.03867e-11
1.06072e-08
5.80797e-11
1.05509e-08
5.62937e-11
1.0496e-08
5.4979e-11
1.04417e-08
5.42209e-11
1.03878e-08
5.38993e-11
1.03336e-08
5.42882e-11
1.02787e-08
5.48726e-11
1.0222e-08
5.66526e-11
1.0164e-08
5.80163e-11
1.01021e-08
6.19155e-11
1.00389e-08
6.31967e-11
9.96839e-09
7.05065e-11
9.89768e-09
7.07118e-11
9.8151e-09
8.25811e-11
9.73414e-09
8.09604e-11
9.63592e-09
9.82177e-11
9.54189e-09
9.40352e-11
9.42463e-09
1.17253e-10
9.31529e-09
1.0934e-10
9.17641e-09
1.38881e-10
9.0514e-09
1.25017e-10
8.89062e-09
1.60778e-10
8.75376e-09
1.3686e-10
8.57557e-09
1.78193e-10
8.43848e-09
1.37081e-10
8.25625e-09
1.8223e-10
8.14179e-09
1.14466e-10
7.98217e-09
1.59615e-10
7.91995e-09
6.22243e-11
7.8203e-09
9.96476e-11
7.81318e-09
7.12628e-12
7.77799e-09
3.51883e-11
7.8702e-09
-9.22085e-11
7.9424e-09
-7.2203e-11
8.089e-09
-1.46601e-10
8.21369e-09
-1.2469e-10
8.38449e-09
-1.70796e-10
8.53101e-09
-1.46529e-10
8.70286e-09
-1.71847e-10
8.8496e-09
-1.46743e-10
9.00776e-09
-1.58151e-10
9.14238e-09
-1.34621e-10
9.27994e-09
-1.37565e-10
9.39756e-09
-1.17615e-10
9.513e-09
-1.15447e-10
9.61359e-09
-1.00585e-10
9.70838e-09
-9.47882e-11
9.7944e-09
-8.602e-11
9.87275e-09
-7.83525e-11
9.94731e-09
-7.45635e-11
1.00154e-08
-6.80411e-11
1.00842e-08
-6.88099e-11
1.01542e-08
-7.00124e-11
1.02297e-08
-7.55736e-11
1.03688e-08
-1.39058e-10
1.05236e-08
-1.54824e-10
1.33711e-08
-2.84743e-09
-2.85462e-09
8.72085e-07
9.89665e-08
8.25147e-07
9.39434e-08
7.80598e-07
8.91614e-08
7.38327e-07
8.46022e-08
6.98224e-07
8.02634e-08
6.60187e-07
7.61283e-08
6.24116e-07
7.21946e-08
5.89917e-07
6.84469e-08
5.57498e-07
6.4883e-08
5.26776e-07
6.14891e-08
4.97666e-07
5.82626e-08
4.7009e-07
5.51917e-08
4.43972e-07
5.22729e-08
4.19242e-07
4.94963e-08
3.95829e-07
4.68582e-08
3.7367e-07
4.43498e-08
3.52702e-07
4.19672e-08
3.32865e-07
3.97029e-08
3.14102e-07
3.75529e-08
2.96359e-07
3.55106e-08
2.79585e-07
3.35722e-08
2.63731e-07
3.17319e-08
2.48749e-07
2.99857e-08
2.34595e-07
2.83287e-08
2.21226e-07
2.6757e-08
2.08602e-07
2.52665e-08
1.96684e-07
2.38531e-08
1.85435e-07
2.25135e-08
1.74821e-07
2.12437e-08
1.64808e-07
2.00407e-08
1.55365e-07
1.8901e-08
1.4646e-07
1.78217e-08
1.38066e-07
1.67998e-08
1.30156e-07
1.58323e-08
1.22703e-07
1.49168e-08
1.15683e-07
1.40504e-08
1.09072e-07
1.32312e-08
1.02849e-07
1.2456e-08
9.69913e-08
1.17236e-08
9.148e-08
1.10307e-08
8.62956e-08
1.03765e-08
8.14202e-08
9.75789e-09
7.68365e-08
9.17413e-09
7.25285e-08
8.62244e-09
6.84804e-08
8.10202e-09
6.4678e-08
7.61052e-09
6.11071e-08
7.14704e-09
5.77547e-08
6.70967e-09
5.46084e-08
6.29733e-09
5.16563e-08
5.90854e-09
4.88873e-08
5.54211e-09
4.62908e-08
5.19688e-09
4.38568e-08
4.87162e-09
4.15758e-08
4.5654e-09
3.94388e-08
4.27702e-09
3.74375e-08
4.00569e-09
3.55637e-08
3.75035e-09
3.38099e-08
3.51019e-09
3.2169e-08
3.28436e-09
3.06341e-08
3.07205e-09
2.91989e-08
2.87257e-09
2.78573e-08
2.68511e-09
2.66037e-08
2.5091e-09
2.54327e-08
2.34381e-09
2.43391e-08
2.18873e-09
2.33183e-08
2.04314e-09
2.23657e-08
1.90668e-09
2.14771e-08
1.77859e-09
2.06484e-08
1.65869e-09
1.98759e-08
1.54616e-09
1.91559e-08
1.44097e-09
1.84853e-08
1.34223e-09
1.78607e-08
1.25006e-09
1.72794e-08
1.16357e-09
1.67384e-08
1.08292e-09
1.62351e-08
1.00727e-09
1.57671e-08
9.368e-10
1.5332e-08
8.70757e-10
1.49277e-08
8.09272e-10
1.45521e-08
7.5173e-10
1.42033e-08
6.98157e-10
1.38795e-08
6.48128e-10
1.35789e-08
6.01519e-10
1.33001e-08
5.58128e-10
1.30414e-08
5.17672e-10
1.28016e-08
4.80109e-10
1.25792e-08
4.45084e-10
1.2373e-08
4.12645e-10
1.2182e-08
3.82422e-10
1.20048e-08
3.54497e-10
1.18407e-08
3.2851e-10
1.16886e-08
3.04554e-10
1.15475e-08
2.82319e-10
1.14167e-08
2.6187e-10
1.12953e-08
2.42974e-10
1.11825e-08
2.25623e-10
1.10778e-08
2.09699e-10
1.09803e-08
1.95119e-10
1.08894e-08
1.81857e-10
1.08046e-08
1.69789e-10
1.07252e-08
1.58922e-10
1.06506e-08
1.49155e-10
1.05805e-08
1.40483e-10
1.05141e-08
1.32871e-10
1.0451e-08
1.26268e-10
1.03907e-08
1.20698e-10
1.03326e-08
1.16091e-10
1.02764e-08
1.12523e-10
1.02215e-08
1.09901e-10
1.01673e-08
1.08386e-10
1.01135e-08
1.07752e-10
1.00592e-08
1.08523e-10
1.00044e-08
1.09715e-10
9.94782e-09
1.13238e-10
9.88979e-09
1.16045e-10
9.828e-09
1.23704e-10
9.76471e-09
1.26491e-10
9.69442e-09
1.40794e-10
9.62352e-09
1.41616e-10
9.54124e-09
1.64861e-10
9.46001e-09
1.62188e-10
9.36216e-09
1.96065e-10
9.2678e-09
1.884e-10
9.15098e-09
2.34069e-10
9.04126e-09
2.19065e-10
8.90288e-09
2.77254e-10
8.77743e-09
2.50471e-10
8.61724e-09
3.20971e-10
8.4799e-09
2.74198e-10
8.30238e-09
3.55712e-10
8.16479e-09
2.74666e-10
7.98333e-09
3.63694e-10
7.86836e-09
2.29437e-10
7.70959e-09
3.18387e-10
7.64688e-09
1.2493e-10
7.54806e-09
1.98467e-10
7.54041e-09
1.47764e-11
7.5061e-09
6.95044e-11
7.59784e-09
-1.83952e-10
7.67073e-09
-1.45094e-10
7.81676e-09
-2.92632e-10
7.94198e-09
-2.49914e-10
8.11219e-09
-3.41002e-10
8.25913e-09
-2.93467e-10
8.4304e-09
-3.43123e-10
8.57746e-09
-2.93799e-10
8.73509e-09
-3.15776e-10
8.86995e-09
-2.69484e-10
9.00706e-09
-2.74674e-10
9.12485e-09
-2.35407e-10
9.23993e-09
-2.30532e-10
9.34059e-09
-2.0124e-10
9.43523e-09
-1.89426e-10
9.52109e-09
-1.7188e-10
9.59954e-09
-1.56801e-10
9.67383e-09
-1.48852e-10
9.74206e-09
-1.36277e-10
9.81056e-09
-1.37308e-10
9.88084e-09
-1.40297e-10
9.95618e-09
-1.5091e-10
1.00955e-08
-2.78335e-10
1.02543e-08
-3.13667e-10
1.31015e-08
-5.69467e-09
-5.70674e-09
8.70794e-07
1.48373e-07
8.23896e-07
1.40842e-07
7.79385e-07
1.33672e-07
7.3715e-07
1.26837e-07
6.97081e-07
1.20332e-07
6.59076e-07
1.14133e-07
6.23035e-07
1.08235e-07
5.88866e-07
1.02617e-07
5.56475e-07
9.72736e-08
5.25779e-07
9.21854e-08
4.96693e-07
8.73481e-08
4.69141e-07
8.27441e-08
4.43046e-07
7.83682e-08
4.18336e-07
7.42055e-08
3.94944e-07
7.02503e-08
3.72804e-07
6.64896e-08
3.51854e-07
6.29176e-08
3.32034e-07
5.95229e-08
3.13287e-07
5.62997e-08
2.9556e-07
5.32378e-08
2.78801e-07
5.03317e-08
2.6296e-07
4.75726e-08
2.47991e-07
4.49547e-08
2.33849e-07
4.24705e-08
2.20492e-07
4.01143e-08
2.07879e-07
3.78796e-08
1.95971e-07
3.57607e-08
1.84732e-07
3.37523e-08
1.74127e-07
3.18486e-08
1.64123e-07
3.00451e-08
1.54688e-07
2.83364e-08
1.45791e-07
2.67183e-08
1.37405e-07
2.51862e-08
1.29501e-07
2.37358e-08
1.22055e-07
2.23633e-08
1.15041e-07
2.10643e-08
1.08436e-07
1.98361e-08
1.02218e-07
1.86739e-08
9.63658e-08
1.75759e-08
9.08593e-08
1.65371e-08
8.56795e-08
1.55564e-08
8.08084e-08
1.46289e-08
7.62288e-08
1.37538e-08
7.19246e-08
1.29267e-08
6.78802e-08
1.21464e-08
6.40811e-08
1.14096e-08
6.05134e-08
1.07147e-08
5.7164e-08
1.0059e-08
5.40205e-08
9.44086e-09
5.10711e-08
8.85798e-09
4.83046e-08
8.30863e-09
4.57104e-08
7.79106e-09
4.32786e-08
7.30344e-09
4.09996e-08
6.84435e-09
3.88646e-08
6.41202e-09
3.68651e-08
6.00524e-09
3.4993e-08
5.62243e-09
3.32408e-08
5.26238e-09
3.16013e-08
4.92383e-09
3.00678e-08
4.60554e-09
2.86339e-08
4.30648e-09
2.72936e-08
4.02545e-09
2.60411e-08
3.76157e-09
2.48712e-08
3.51376e-09
2.37786e-08
3.28127e-09
2.27588e-08
3.063e-09
2.1807e-08
2.85842e-09
2.09192e-08
2.6664e-09
2.00913e-08
2.48665e-09
1.93195e-08
2.31795e-09
1.86002e-08
2.16024e-09
1.79302e-08
2.01222e-09
1.73062e-08
1.87403e-09
1.67254e-08
1.74437e-09
1.61849e-08
1.62346e-09
1.56821e-08
1.51006e-09
1.52145e-08
1.40441e-09
1.47798e-08
1.3054e-09
1.43759e-08
1.21322e-09
1.40007e-08
1.12696e-09
1.36522e-08
1.04664e-09
1.33287e-08
9.7164e-10
1.30284e-08
9.01767e-10
1.27498e-08
8.36716e-10
1.24914e-08
7.76067e-10
1.22518e-08
7.19753e-10
1.20296e-08
6.67247e-10
1.18237e-08
6.18615e-10
1.16328e-08
5.73308e-10
1.14558e-08
5.31442e-10
1.12919e-08
4.92486e-10
1.11398e-08
4.5657e-10
1.09989e-08
4.2324e-10
1.08682e-08
3.92583e-10
1.07469e-08
3.64257e-10
1.06343e-08
3.38246e-10
1.05296e-08
3.14373e-10
1.04322e-08
2.92517e-10
1.03415e-08
2.72636e-10
1.02567e-08
2.54547e-10
1.01774e-08
2.38256e-10
1.01029e-08
2.23615e-10
1.00328e-08
2.10616e-10
9.96643e-09
1.99207e-10
9.90339e-09
1.8931e-10
9.84313e-09
1.80963e-10
9.78516e-09
1.7406e-10
9.72897e-09
1.68712e-10
9.67408e-09
1.64786e-10
9.61995e-09
1.62517e-10
9.56613e-09
1.61573e-10
9.51192e-09
1.62729e-10
9.45711e-09
1.64532e-10
9.40055e-09
1.69799e-10
9.34254e-09
1.74054e-10
9.28077e-09
1.85466e-10
9.21748e-09
1.89784e-10
9.14724e-09
2.11033e-10
9.0763e-09
2.12558e-10
8.99412e-09
2.47045e-10
8.91279e-09
2.43518e-10
8.81511e-09
2.93743e-10
8.72056e-09
2.8295e-10
8.60401e-09
3.5062e-10
8.494e-09
3.29076e-10
8.35601e-09
4.15243e-10
8.23016e-09
3.76321e-10
8.07049e-09
4.8064e-10
7.93264e-09
4.12046e-10
7.7558e-09
5.32551e-10
7.61761e-09
4.12859e-10
7.43698e-09
5.44317e-10
7.32134e-09
3.45076e-10
7.16355e-09
4.76184e-10
7.10017e-09
1.88308e-10
7.00235e-09
2.96286e-10
6.99397e-09
2.31555e-11
6.96071e-09
1.02771e-10
7.05183e-09
-2.75073e-10
7.12556e-09
-2.18832e-10
7.27094e-09
-4.3801e-10
7.39679e-09
-3.75767e-10
7.56641e-09
-5.10616e-10
7.71378e-09
-4.40836e-10
7.88456e-09
-5.139e-10
8.03187e-09
-4.41117e-10
8.18911e-09
-4.73016e-10
8.3241e-09
-4.04474e-10
8.46094e-09
-4.11511e-10
8.57876e-09
-3.53224e-10
8.69368e-09
-3.45452e-10
8.79428e-09
-3.01844e-10
8.88884e-09
-2.83985e-10
8.97462e-09
-2.57658e-10
9.05303e-09
-2.35215e-10
9.12723e-09
-2.23045e-10
9.19548e-09
-2.04531e-10
9.26387e-09
-2.05694e-10
9.33423e-09
-2.10658e-10
9.40951e-09
-2.26197e-10
9.5487e-09
-4.17519e-10
9.71085e-09
-4.75823e-10
1.25285e-08
-8.51236e-09
-8.53071e-09
8.69503e-07
1.97752e-07
8.2263e-07
1.87715e-07
7.78143e-07
1.78159e-07
7.35931e-07
1.69049e-07
6.95884e-07
1.6038e-07
6.579e-07
1.52117e-07
6.21878e-07
1.44256e-07
5.87727e-07
1.36768e-07
5.55354e-07
1.29646e-07
5.24675e-07
1.22865e-07
4.95605e-07
1.16418e-07
4.68068e-07
1.10281e-07
4.41987e-07
1.04449e-07
4.17291e-07
9.8901e-08
3.93912e-07
9.36296e-08
3.71784e-07
8.86173e-08
3.50846e-07
8.38565e-08
3.31036e-07
7.9332e-08
3.123e-07
7.5036e-08
2.94583e-07
7.09552e-08
2.77833e-07
6.70818e-08
2.62001e-07
6.34045e-08
2.4704e-07
5.99154e-08
2.32906e-07
5.66045e-08
2.19556e-07
5.3464e-08
2.0695e-07
5.04856e-08
1.95049e-07
4.76615e-08
1.83817e-07
4.49847e-08
1.73218e-07
4.24475e-08
1.63219e-07
4.00437e-08
1.53789e-07
3.77664e-08
1.44898e-07
3.56099e-08
1.36516e-07
3.35678e-08
1.28617e-07
3.16347e-08
1.21175e-07
2.98055e-08
1.14165e-07
2.80742e-08
1.07564e-07
2.64373e-08
1.01349e-07
2.48883e-08
9.55005e-08
2.34249e-08
8.99972e-08
2.20404e-08
8.48203e-08
2.07333e-08
7.99521e-08
1.94972e-08
7.53751e-08
1.83307e-08
7.10734e-08
1.72284e-08
6.70313e-08
1.61885e-08
6.32345e-08
1.52065e-08
5.96688e-08
1.42804e-08
5.63214e-08
1.34064e-08
5.31797e-08
1.25825e-08
5.0232e-08
1.18057e-08
4.74671e-08
1.10735e-08
4.48745e-08
1.03837e-08
4.24441e-08
9.73382e-09
4.01665e-08
9.12195e-09
3.80328e-08
8.54576e-09
3.60344e-08
8.0036e-09
3.41634e-08
7.4934e-09
3.24123e-08
7.01353e-09
3.07738e-08
6.56232e-09
2.92412e-08
6.13811e-09
2.78082e-08
5.73953e-09
2.64686e-08
5.36497e-09
2.52169e-08
5.01329e-09
2.40477e-08
4.68302e-09
2.29558e-08
4.37315e-09
2.19365e-08
4.08225e-09
2.09854e-08
3.80959e-09
2.00981e-08
3.55367e-09
1.92707e-08
3.31411e-09
1.84993e-08
3.08927e-09
1.77805e-08
2.87908e-09
1.71109e-08
2.6818e-09
1.64873e-08
2.49762e-09
1.59069e-08
2.32482e-09
1.53667e-08
2.16367e-09
1.48642e-08
2.01254e-09
1.43969e-08
1.87172e-09
1.39625e-08
1.73977e-09
1.35588e-08
1.61692e-09
1.31838e-08
1.50195e-09
1.28355e-08
1.39491e-09
1.25122e-08
1.29495e-09
1.22122e-08
1.20183e-09
1.19337e-08
1.11513e-09
1.16755e-08
1.0343e-09
1.1436e-08
9.59248e-10
1.1214e-08
8.89272e-10
1.10082e-08
8.24455e-10
1.08174e-08
7.64075e-10
1.06406e-08
7.08276e-10
1.04767e-08
6.56361e-10
1.03248e-08
6.08492e-10
1.01839e-08
5.64074e-10
1.00533e-08
5.23215e-10
9.93208e-09
4.85465e-10
9.81953e-09
4.50799e-10
9.71492e-09
4.18984e-10
9.61758e-09
3.89857e-10
9.52685e-09
3.63361e-10
9.44214e-09
3.39255e-10
9.36286e-09
3.17544e-10
9.28844e-09
2.98034e-10
9.21834e-09
2.80711e-10
9.15204e-09
2.65508e-10
9.08903e-09
2.52321e-10
9.0288e-09
2.41197e-10
8.97085e-09
2.32001e-10
8.91469e-09
2.24877e-10
8.85983e-09
2.19649e-10
8.80571e-09
2.16628e-10
8.75191e-09
2.15377e-10
8.69772e-09
2.1692e-10
8.64292e-09
2.19335e-10
8.58637e-09
2.26348e-10
8.52837e-09
2.32056e-10
8.46662e-09
2.4721e-10
8.40331e-09
2.53095e-10
8.33313e-09
2.81218e-10
8.26211e-09
2.83579e-10
8.18006e-09
3.29096e-10
8.09855e-09
3.25027e-10
8.00111e-09
3.91176e-10
7.90625e-09
3.77812e-10
7.79009e-09
4.66779e-10
7.67961e-09
4.3956e-10
7.54219e-09
5.52662e-10
7.41568e-09
5.02827e-10
7.25679e-09
6.39531e-10
7.1181e-09
5.50739e-10
6.94226e-09
7.08389e-10
6.80305e-09
5.5207e-10
6.62366e-09
7.23711e-10
6.50687e-09
4.61858e-10
6.35049e-09
6.32567e-10
6.28592e-09
2.52875e-10
6.18957e-09
3.92637e-10
6.17995e-09
3.27737e-11
6.14824e-09
1.34481e-10
6.23829e-09
-3.65116e-10
6.31335e-09
-2.93891e-10
6.45769e-09
-5.82352e-10
6.58457e-09
-5.02648e-10
6.75329e-09
-6.79335e-10
6.90141e-09
-5.8895e-10
7.07146e-09
-6.83957e-10
7.21927e-09
-5.88929e-10
7.37598e-09
-6.29718e-10
7.51125e-09
-5.3975e-10
7.64772e-09
-5.47984e-10
7.76566e-09
-4.7116e-10
7.88038e-09
-4.60168e-10
7.98097e-09
-4.02435e-10
8.07545e-09
-3.7847e-10
8.16115e-09
-3.43358e-10
8.23955e-09
-3.13615e-10
8.31363e-09
-2.9712e-10
8.38195e-09
-2.72849e-10
8.45018e-09
-2.73922e-10
8.52068e-09
-2.81167e-10
8.59586e-09
-3.01373e-10
8.73495e-09
-5.56606e-10
8.89955e-09
-6.40425e-10
1.16164e-08
-1.12293e-08
-1.12556e-08
8.68107e-07
2.47113e-07
8.21252e-07
2.3457e-07
7.76781e-07
2.2263e-07
7.34585e-07
2.11246e-07
6.94553e-07
2.00411e-07
6.56584e-07
1.90086e-07
6.20577e-07
1.80264e-07
5.86438e-07
1.70906e-07
5.54078e-07
1.62007e-07
5.2341e-07
1.53533e-07
4.94352e-07
1.45476e-07
4.66825e-07
1.37808e-07
4.40754e-07
1.3052e-07
4.16068e-07
1.23587e-07
3.92698e-07
1.17e-07
3.70579e-07
1.10736e-07
3.49649e-07
1.04787e-07
3.29847e-07
9.91333e-08
3.11118e-07
9.3765e-08
2.93408e-07
8.86655e-08
2.76664e-07
8.38254e-08
2.60839e-07
7.92302e-08
2.45884e-07
7.48702e-08
2.31756e-07
7.07328e-08
2.18411e-07
6.68084e-08
2.0581e-07
6.30866e-08
1.93914e-07
5.95576e-08
1.82686e-07
5.62127e-08
1.72092e-07
5.30421e-08
1.62097e-07
5.00384e-08
1.52671e-07
4.71926e-08
1.43783e-07
4.44978e-08
1.35405e-07
4.19461e-08
1.27509e-07
3.95304e-08
1.2007e-07
3.72446e-08
1.13063e-07
3.50813e-08
1.06464e-07
3.30357e-08
1.00252e-07
3.11001e-08
9.44059e-08
2.92714e-08
8.8905e-08
2.75414e-08
8.37302e-08
2.5908e-08
7.8864e-08
2.43634e-08
7.4289e-08
2.29058e-08
6.9989e-08
2.15283e-08
6.59487e-08
2.02289e-08
6.21534e-08
1.90017e-08
5.85893e-08
1.78445e-08
5.52433e-08
1.67524e-08
5.21029e-08
1.57229e-08
4.91565e-08
1.47522e-08
4.63928e-08
1.38373e-08
4.38012e-08
1.29753e-08
4.13719e-08
1.21632e-08
3.90953e-08
1.13986e-08
3.69624e-08
1.06786e-08
3.49649e-08
1.00011e-08
3.30948e-08
9.36356e-09
3.13444e-08
8.76393e-09
2.97066e-08
8.20009e-09
2.81747e-08
7.67001e-09
2.67423e-08
7.17195e-09
2.54034e-08
6.70391e-09
2.41522e-08
6.26445e-09
2.29835e-08
5.85175e-09
2.18921e-08
5.46455e-09
2.08733e-08
5.10105e-09
1.99225e-08
4.76034e-09
1.90357e-08
4.44054e-09
1.82086e-08
4.14119e-09
1.74376e-08
3.86024e-09
1.67191e-08
3.59759e-09
1.60498e-08
3.35108e-09
1.54265e-08
3.12093e-09
1.48463e-08
2.90501e-09
1.43063e-08
2.70364e-09
1.38041e-08
2.51479e-09
1.3337e-08
2.33883e-09
1.29028e-08
2.17395e-09
1.24993e-08
2.02043e-09
1.21245e-08
1.87678e-09
1.17764e-08
1.74302e-09
1.14532e-08
1.61812e-09
1.11533e-08
1.50175e-09
1.0875e-08
1.39342e-09
1.06169e-08
1.29242e-09
1.03775e-08
1.19863e-09
1.01556e-08
1.11119e-09
9.94983e-09
1.0302e-09
9.75915e-09
9.54755e-10
9.5824e-09
8.85027e-10
9.4186e-09
8.20161e-10
9.26675e-09
7.60343e-10
9.12598e-09
7.04843e-10
8.99541e-09
6.53786e-10
8.87426e-09
6.06618e-10
8.76175e-09
5.63302e-10
8.65719e-09
5.23548e-10
8.55989e-09
4.87154e-10
8.46921e-09
4.54046e-10
8.38454e-09
4.23927e-10
8.30528e-09
3.96799e-10
8.23089e-09
3.72423e-10
8.16082e-09
3.50778e-10
8.09455e-09
3.31784e-10
8.03156e-09
3.15309e-10
7.97135e-09
3.01412e-10
7.91342e-09
2.89925e-10
7.85727e-09
2.81026e-10
7.80242e-09
2.74498e-10
7.74833e-09
2.70726e-10
7.69453e-09
2.69171e-10
7.64035e-09
2.71101e-10
7.58555e-09
2.74131e-10
7.52901e-09
2.82889e-10
7.47101e-09
2.90061e-10
7.40928e-09
3.08936e-10
7.34593e-09
3.16444e-10
7.27582e-09
3.51329e-10
7.20467e-09
3.54732e-10
7.1228e-09
4.10963e-10
7.04102e-09
4.0681e-10
6.94393e-09
4.88265e-10
6.84861e-09
4.73134e-10
6.73299e-09
5.82393e-10
6.62182e-09
5.50729e-10
6.4852e-09
6.8929e-10
6.35775e-09
6.30277e-10
6.19993e-09
7.9735e-10
6.06002e-09
6.90648e-10
5.88556e-09
8.82845e-10
5.74488e-09
6.92757e-10
5.56717e-09
9.01419e-10
5.44871e-09
5.80314e-10
5.29427e-09
7.87013e-10
5.22794e-09
3.19205e-10
5.13362e-09
4.86957e-10
5.12217e-09
4.42157e-11
5.09257e-09
1.64083e-10
5.18101e-09
-4.53556e-10
5.25792e-09
-3.70795e-10
5.40077e-09
-7.2521e-10
5.52913e-09
-6.31001e-10
5.69659e-09
-8.46803e-10
5.84581e-09
-7.38161e-10
6.01488e-09
-8.53028e-10
6.16344e-09
-7.37493e-10
6.31942e-09
-7.857e-10
6.45516e-09
-6.75486e-10
6.59116e-09
-6.83986e-10
6.70932e-09
-5.89318e-10
6.82378e-09
-5.7463e-10
6.9244e-09
-5.03053e-10
7.01881e-09
-4.72884e-10
7.10444e-09
-4.2898e-10
7.18285e-09
-3.92031e-10
7.25679e-09
-3.71055e-10
7.32522e-09
-3.41285e-10
7.39324e-09
-3.4194e-10
7.46398e-09
-3.51903e-10
7.53895e-09
-3.76342e-10
7.67787e-09
-6.95533e-10
7.84378e-09
-8.06336e-10
1.03478e-08
-1.37332e-08
-1.37678e-08
8.66595e-07
2.96459e-07
8.19754e-07
2.81412e-07
7.75297e-07
2.67086e-07
7.33113e-07
2.53429e-07
6.93093e-07
2.40431e-07
6.55135e-07
2.28044e-07
6.19139e-07
2.1626e-07
5.85011e-07
2.05034e-07
5.52661e-07
1.94358e-07
5.22002e-07
1.84191e-07
4.92953e-07
1.74526e-07
4.65434e-07
1.65326e-07
4.39372e-07
1.56583e-07
4.14693e-07
1.48265e-07
3.9133e-07
1.40363e-07
3.69218e-07
1.32848e-07
3.48294e-07
1.25711e-07
3.28499e-07
1.18928e-07
3.09776e-07
1.12488e-07
2.92071e-07
1.0637e-07
2.75333e-07
1.00564e-07
2.59512e-07
9.50508e-08
2.44562e-07
8.98202e-08
2.30438e-07
8.48566e-08
2.17098e-07
8.01486e-08
2.04501e-07
7.56836e-08
1.92609e-07
7.14499e-08
1.81385e-07
6.7437e-08
1.70793e-07
6.36333e-08
1.60802e-07
6.00298e-08
1.51379e-07
5.66158e-08
1.42494e-07
5.33829e-08
1.34118e-07
5.03216e-08
1.26225e-07
4.74236e-08
1.18788e-07
4.46813e-08
1.11784e-07
4.2086e-08
1.05187e-07
3.9632e-08
9.89777e-08
3.73099e-08
9.31331e-08
3.5116e-08
8.76339e-08
3.30405e-08
8.2461e-08
3.1081e-08
7.75964e-08
2.92279e-08
7.30229e-08
2.74793e-08
6.87244e-08
2.58268e-08
6.46854e-08
2.42679e-08
6.08915e-08
2.27957e-08
5.73286e-08
2.14074e-08
5.39838e-08
2.00973e-08
5.08445e-08
1.88622e-08
4.78991e-08
1.76976e-08
4.51363e-08
1.66e-08
4.25457e-08
1.55659e-08
4.01172e-08
1.45917e-08
3.78414e-08
1.36744e-08
3.57093e-08
1.28106e-08
3.37125e-08
1.19979e-08
3.1843e-08
1.1233e-08
3.00933e-08
1.05137e-08
2.84561e-08
9.83728e-09
2.69247e-08
9.20136e-09
2.54928e-08
8.60385e-09
2.41544e-08
8.04236e-09
2.29037e-08
7.51515e-09
2.17354e-08
7.02006e-09
2.06444e-08
6.55555e-09
1.9626e-08
6.11947e-09
1.86756e-08
5.71073e-09
1.7789e-08
5.32709e-09
1.69623e-08
4.96796e-09
1.61916e-08
4.63092e-09
1.54733e-08
4.31583e-09
1.48043e-08
4.02011e-09
1.41812e-08
3.744e-09
1.36013e-08
3.48498e-09
1.30615e-08
3.24339e-09
1.25595e-08
3.01685e-09
1.20925e-08
2.80575e-09
1.16585e-08
2.60796e-09
1.12552e-08
2.42378e-09
1.08805e-08
2.25146e-09
1.05325e-08
2.09099e-09
1.02095e-08
1.94115e-09
9.90967e-09
1.80156e-09
9.6315e-09
1.67159e-09
9.37348e-09
1.55043e-09
9.1342e-09
1.43792e-09
8.91236e-09
1.33303e-09
8.7067e-09
1.23586e-09
8.5161e-09
1.14536e-09
8.33942e-09
1.06171e-09
8.17568e-09
9.83896e-10
8.02389e-09
9.12133e-10
7.88318e-09
8.45557e-10
7.75266e-09
7.84306e-10
7.63155e-09
7.27723e-10
7.51909e-09
6.7576e-10
7.41457e-09
6.28071e-10
7.31731e-09
5.84414e-10
7.22666e-09
5.44697e-10
7.14202e-09
5.08568e-10
7.06279e-09
4.76025e-10
6.98843e-09
4.46786e-10
6.91839e-09
4.20822e-10
6.85213e-09
3.98038e-10
6.78916e-09
3.78278e-10
6.72896e-09
3.6161e-10
6.67105e-09
3.47834e-10
6.61492e-09
3.37162e-10
6.56008e-09
3.29337e-10
6.50599e-09
3.24817e-10
6.4522e-09
3.22959e-10
6.39802e-09
3.25278e-10
6.34323e-09
3.28926e-10
6.28669e-09
3.39429e-10
6.22867e-09
3.48077e-10
6.16697e-09
3.70643e-10
6.10355e-09
3.79858e-10
6.03354e-09
4.21344e-10
5.9622e-09
4.26071e-10
5.88058e-09
4.92585e-10
5.79842e-09
4.88967e-10
5.70178e-09
5.84904e-10
5.60584e-09
5.69073e-10
5.49094e-09
6.97293e-10
5.37886e-09
6.62811e-10
5.24326e-09
8.24887e-10
5.11456e-09
7.58979e-10
4.95814e-09
9.53771e-10
4.81661e-09
8.32174e-10
4.64395e-09
1.05551e-09
4.5013e-09
8.35413e-10
4.32579e-09
1.07693e-09
4.20508e-09
7.01024e-10
4.05317e-09
9.38923e-10
3.98444e-09
3.87929e-10
3.89281e-09
5.78588e-10
3.87891e-09
5.81212e-11
3.85206e-09
1.90934e-10
3.93826e-09
-5.39758e-10
4.01759e-09
-4.50132e-10
4.15844e-09
-8.66052e-10
4.28875e-09
-7.61312e-10
4.45455e-09
-1.01261e-09
4.60524e-09
-8.88849e-10
4.77302e-09
-1.02081e-09
4.92262e-09
-8.87092e-10
5.07768e-09
-9.40754e-10
5.21407e-09
-8.11878e-10
5.34947e-09
-8.19385e-10
5.46797e-09
-7.0782e-10
5.58211e-09
-6.88776e-10
5.68281e-09
-6.03752e-10
5.77716e-09
-5.67227e-10
5.8627e-09
-5.14524e-10
5.94117e-09
-4.70496e-10
6.01493e-09
-4.44817e-10
6.08354e-09
-4.09901e-10
6.15129e-09
-4.09686e-10
6.22234e-09
-4.22955e-10
6.297e-09
-4.51001e-10
6.43566e-09
-8.34186e-10
6.60152e-09
-9.72196e-10
8.77001e-09
-1.59017e-08
-1.59423e-08
8.6503e-07
3.45792e-07
8.18201e-07
3.28241e-07
7.73756e-07
3.11532e-07
7.31583e-07
2.95601e-07
6.91574e-07
2.80441e-07
6.53626e-07
2.65992e-07
6.17639e-07
2.52247e-07
5.8352e-07
2.39153e-07
5.51178e-07
2.267e-07
5.20528e-07
2.14841e-07
4.91486e-07
2.03567e-07
4.63976e-07
1.92837e-07
4.3792e-07
1.82639e-07
4.13248e-07
1.72937e-07
3.89892e-07
1.63719e-07
3.67785e-07
1.54955e-07
3.46867e-07
1.4663e-07
3.27077e-07
1.38718e-07
3.08359e-07
1.31206e-07
2.90659e-07
1.2407e-07
2.73926e-07
1.17297e-07
2.5811e-07
1.10867e-07
2.43164e-07
1.04766e-07
2.29044e-07
9.89764e-08
2.15707e-07
9.3485e-08
2.03114e-07
8.8277e-08
1.91225e-07
8.33388e-08
1.80004e-07
7.86581e-08
1.69416e-07
7.42215e-08
1.59427e-07
7.00183e-08
1.50007e-07
6.60362e-08
1.41124e-07
6.22653e-08
1.32751e-07
5.86946e-08
1.2486e-07
5.53144e-08
1.17426e-07
5.21158e-08
1.10423e-07
4.90886e-08
1.03829e-07
4.62263e-08
9.76211e-08
4.35178e-08
9.17783e-08
4.09588e-08
8.62808e-08
3.8538e-08
8.11093e-08
3.62524e-08
7.62462e-08
3.4091e-08
7.16741e-08
3.20514e-08
6.73769e-08
3.01239e-08
6.33392e-08
2.83057e-08
5.95464e-08
2.65885e-08
5.59846e-08
2.49692e-08
5.26408e-08
2.34411e-08
4.95025e-08
2.20005e-08
4.6558e-08
2.06421e-08
4.37961e-08
1.93619e-08
4.12063e-08
1.81557e-08
3.87785e-08
1.70194e-08
3.65034e-08
1.59495e-08
3.43721e-08
1.4942e-08
3.23759e-08
1.3994e-08
3.0507e-08
1.31019e-08
2.87578e-08
1.22629e-08
2.71212e-08
1.14739e-08
2.55903e-08
1.07322e-08
2.41589e-08
1.00353e-08
2.28209e-08
9.38038e-09
2.15706e-08
8.76545e-09
2.04026e-08
8.18798e-09
1.9312e-08
7.64618e-09
1.82939e-08
7.13755e-09
1.73439e-08
6.6608e-09
1.64576e-08
6.21333e-09
1.56311e-08
5.79446e-09
1.48607e-08
5.40135e-09
1.41427e-08
5.03382e-09
1.34739e-08
4.68891e-09
1.2851e-08
4.36686e-09
1.22713e-08
4.06475e-09
1.17317e-08
3.78296e-09
1.12298e-08
3.51874e-09
1.07631e-08
3.2725e-09
1.03292e-08
3.04182e-09
9.92599e-09
2.827e-09
9.55144e-09
2.62601e-09
9.20359e-09
2.43884e-09
8.88067e-09
2.26407e-09
8.58097e-09
2.10126e-09
8.3029e-09
1.94967e-09
8.04497e-09
1.80835e-09
7.80577e-09
1.67712e-09
7.58401e-09
1.55479e-09
7.37843e-09
1.44145e-09
7.18789e-09
1.3359e-09
7.01127e-09
1.23832e-09
6.8476e-09
1.14757e-09
6.69586e-09
1.06387e-09
6.5552e-09
9.86222e-10
6.42472e-09
9.14779e-10
6.30366e-09
8.48786e-10
6.19124e-09
7.8818e-10
6.08676e-09
7.32558e-10
5.98953e-09
6.81641e-10
5.89891e-09
6.35317e-10
5.81429e-09
5.93182e-10
5.73509e-09
5.55226e-10
5.66075e-09
5.21126e-10
5.59073e-09
4.90845e-10
5.52449e-09
4.64275e-10
5.46154e-09
4.41231e-10
5.40136e-09
4.21794e-10
5.34346e-09
4.05731e-10
5.28733e-09
3.93288e-10
5.2325e-09
3.84169e-10
5.17842e-09
3.78901e-10
5.12463e-09
3.76743e-10
5.07046e-09
3.79452e-10
5.01566e-09
3.83721e-10
4.95913e-09
3.95967e-10
4.90109e-09
4.06111e-10
4.83941e-09
4.32321e-10
4.77591e-09
4.43361e-10
4.70603e-09
4.91224e-10
4.63444e-09
4.97657e-10
4.55314e-09
5.73888e-10
4.47051e-09
5.71603e-10
4.37444e-09
6.80969e-10
4.27773e-09
6.65788e-10
4.16372e-09
8.11299e-10
4.0505e-09
7.76033e-10
3.91619e-09
9.59199e-10
3.78592e-09
8.89244e-10
3.63124e-09
1.10845e-09
3.48769e-09
9.75729e-10
3.31727e-09
1.22592e-09
3.17212e-09
9.80565e-10
2.99937e-09
1.24968e-09
2.87577e-09
8.24627e-10
2.72706e-09
1.08763e-09
2.65521e-09
4.59777e-10
2.567e-09
6.66799e-10
2.54989e-09
7.52306e-11
2.52654e-09
2.14286e-10
2.6098e-09
-6.23017e-10
2.69224e-09
-5.3257e-10
2.83048e-09
-1.00429e-09
2.96329e-09
-8.94122e-10
3.12697e-09
-1.17629e-09
3.27955e-09
-1.04142e-09
3.44571e-09
-1.18697e-09
3.59664e-09
-1.03802e-09
3.75053e-09
-1.09465e-09
3.88778e-09
-9.49125e-10
4.02243e-09
-9.54035e-10
4.1414e-09
-8.26787e-10
4.25515e-09
-8.02526e-10
4.35598e-09
-7.04585e-10
4.45024e-09
-6.61488e-10
4.5357e-09
-5.99984e-10
4.61425e-09
-5.49043e-10
4.6878e-09
-5.18369e-10
4.75666e-09
-4.78761e-10
4.82407e-09
-4.77096e-10
4.89553e-09
-4.9442e-10
4.9698e-09
-5.25264e-10
5.1081e-09
-9.72487e-10
5.27258e-09
-1.13668e-09
7.01507e-09
-1.76442e-08
-1.76869e-08
8.6352e-07
3.95114e-07
8.16702e-07
3.75059e-07
7.72268e-07
3.55966e-07
7.30105e-07
3.37764e-07
6.90106e-07
3.2044e-07
6.52167e-07
3.03931e-07
6.16189e-07
2.88225e-07
5.82079e-07
2.73263e-07
5.49745e-07
2.59034e-07
5.19102e-07
2.45484e-07
4.90067e-07
2.32602e-07
4.62564e-07
2.20341e-07
4.36514e-07
2.08688e-07
4.11849e-07
1.97603e-07
3.88498e-07
1.8707e-07
3.66398e-07
1.77055e-07
3.45485e-07
1.67543e-07
3.257e-07
1.58503e-07
3.06987e-07
1.49919e-07
2.89291e-07
1.41766e-07
2.72562e-07
1.34026e-07
2.5675e-07
1.26679e-07
2.41808e-07
1.19708e-07
2.27692e-07
1.13093e-07
2.14359e-07
1.06818e-07
2.01769e-07
1.00867e-07
1.89883e-07
9.52245e-08
1.78665e-07
8.98763e-08
1.6808e-07
8.48068e-08
1.58094e-07
8.00042e-08
1.48676e-07
7.54541e-08
1.39796e-07
7.11454e-08
1.31425e-07
6.70654e-08
1.23537e-07
6.32031e-08
1.16104e-07
5.95482e-08
1.09103e-07
5.60894e-08
1.02511e-07
5.28188e-08
9.63047e-08
4.9724e-08
9.04635e-08
4.68e-08
8.49676e-08
4.4034e-08
7.97976e-08
4.14224e-08
7.49359e-08
3.89528e-08
7.03651e-08
3.66223e-08
6.60691e-08
3.44199e-08
6.20325e-08
3.23423e-08
5.82408e-08
3.03802e-08
5.468e-08
2.85299e-08
5.13372e-08
2.67839e-08
4.81998e-08
2.51378e-08
4.52562e-08
2.35857e-08
4.24951e-08
2.2123e-08
3.99061e-08
2.07448e-08
3.74791e-08
1.94464e-08
3.52047e-08
1.82239e-08
3.30739e-08
1.70728e-08
3.10784e-08
1.59896e-08
2.92101e-08
1.49703e-08
2.74614e-08
1.40116e-08
2.58252e-08
1.31101e-08
2.42949e-08
1.22626e-08
2.28639e-08
1.14663e-08
2.15263e-08
1.0718e-08
2.02764e-08
1.00153e-08
1.91088e-08
9.35553e-09
1.80185e-08
8.73647e-09
1.70008e-08
8.15531e-09
1.6051e-08
7.61057e-09
1.5165e-08
7.0993e-09
1.43388e-08
6.62068e-09
1.35686e-08
6.17152e-09
1.28509e-08
5.75158e-09
1.21823e-08
5.35749e-09