/*--------------------------------*- C++ -*----------------------------------*\
| =========                 |                                                 |
| \\      /  F ield         | OpenFOAM: The Open Source CFD Toolbox           |
|  \\    /   O peration     | Version:  v1912                                 |
|   \\  /    A nd           | Website:  www.openfoam.com                      |
|    \\/     M anipulation  |                                                 |
\*---------------------------------------------------------------------------*/
FoamFile
{
    version     2.0;
    format      ascii;
    class       volScalarField;
    location    "40";
    object      p_rgh;
}
// * * * * * * * * * * * * * * * * * * * * * * * * * * * * * * * * * * * * * //

dimensions      [1 -1 -2 0 0 0 0];


internalField   nonuniform List<scalar> 
14268
(
-392.903
-376.701
-359.949
-344.386
-321.339
-286.746
-240.403
-203.996
-187.325
-78.7853
286.821
274.942
220.773
415.346
398.655
305.542
68.4892
324.601
1327.33
1283.79
981.657
178.825
-53.444
-92.4232
-104.514
-142.898
-228.71
883.975
1310.85
1416.42
1483.52
1303.81
1126.31
1188.3
447.39
411.048
607.232
977.746
614.103
823.076
1075.11
802.256
918.056
1154.73
1515.09
1501.55
1327.38
1196.18
964.777
1146.9
1166.94
1491.68
1575.42
1730.07
1563.95
1521.68
1370.08
1523.78
1664.51
1847.57
1822.69
1713.42
1418.07
1219.98
1142.54
1298.28
1377.97
1146.36
1136.05
1084.23
1145.64
1234.33
1344.98
1356.35
1360.3
1414.51
1233.6
801.284
944.013
1007
1032.63
996.854
759.319
634.61
637.644
697.439
710.088
706.823
378.937
364.294
350.518
340.169
326.361
369.433
539.618
548.235
476.513
441.086
499.623
511.941
512.001
370.373
310.212
310.764
-392.842
-376.636
-359.886
-344.314
-321.246
-286.605
-240.216
-203.656
-179.866
-53.1758
228.694
-1.14585
-131.796
247.279
389.882
-73.0339
-158.095
327.01
1293.77
138.387
37.0234
165.895
-21.533
-72.0949
-32.7579
-113.549
-190.55
498.673
722.111
102.276
304.329
91.9468
44.6155
596.439
441.205
421.618
1233.64
1465.62
1271.21
1080.87
2139.12
812.411
1046.48
1559.76
1782.82
1830.18
1431.06
1188.87
1003.04
1284.85
1220.68
1501.37
1574.63
1720.84
1497.26
1381.54
1173.5
1270.44
1375.02
1462.67
1416
1355.52
1207.83
961.443
1139.59
1269.79
1246.03
1143.31
1090.4
1019.91
1013.98
1007.74
1183.28
1348.21
1348.73
1376.95
1092.83
736.976
580.269
925.903
1032.09
993.363
989.773
961.717
948.303
1015.87
1021.3
593.914
391.396
368.81
561.641
528.554
526.738
531.754
446.068
451.936
290.421
220.91
208.889
405.546
505.574
320.992
154.447
126.892
-392.783
-376.575
-359.825
-344.25
-321.174
-286.567
-240.029
-203.371
-151.869
72.1436
226.739
-19.7593
-127.495
4.48141
240.616
-98.5049
-155.563
119.127
1028.63
-162.2
-81.0261
761.748
153.651
30.5172
15.628
-214.978
-209.936
36.9394
30.6986
-2.67636
-25.228
182.639
1041.88
1120.43
1579.43
1156.98
401.276
1114.58
1909.2
2066.11
2094.48
1521.51
1124.27
1540.04
1427.34
1430.24
1351.45
1288.87
1041.76
1343.54
1297.28
1538.37
1545.98
1686.79
1512.38
1458.35
1428.68
1549.38
1381.63
1321.81
1214.49
1197.15
1813.84
1013.49
947.86
1105.99
826.986
1141.76
1136.12
814.851
506.19
476.954
651.107
713.424
1021.37
918.426
779.962
532.592
423.718
684.937
1032.55
997.192
804.711
554.422
513.783
592.872
493.898
461.038
761.67
416.01
886.05
889.014
427.654
483.666
243.422
327.332
379.902
326.077
248.26
234.556
312.97
322.046
80.5804
40.2316
-392.727
-376.516
-359.768
-344.193
-321.128
-286.491
-239.838
-203.642
-23.9514
354.289
214.153
-86.1584
-103.322
-80.0069
40.9717
-102.691
-109.641
11.7927
400.14
-238.397
56.7142
1126.24
238.642
-170.166
-100.783
-261.51
-338.595
-245.541
-170.684
275.842
236.859
1471.73
1871.93
1716.82
1463.97
1442.23
50.9255
-164.265
1237.77
2045.43
1390.11
1047.04
1171.57
1136.85
1340.32
1711.1
1313.89
1336.87
1214.39
1343.16
1296.45
1531.64
1492.57
1632.87
1545.45
1346.87
1099.04
1075.94
1136.5
1267.7
1157.51
1314.49
2354.97
1486.55
658.351
750.859
752.837
871.142
1134.31
611.252
393.949
424.313
586.754
412.627
452.345
576.645
473.53
385.193
385.502
445.332
799.622
815.209
518.417
495.14
497.48
431.999
419.683
461.927
764.846
736.878
887.407
762.838
232.461
364.817
226.089
240.293
645.885
743.697
454.865
230.964
230.533
282.917
165.059
49.6308
-392.674
-376.461
-359.713
-344.144
-321.106
-286.483
-239.627
-203.608
-82.9734
343.337
169.217
-139.653
-127.514
-108.355
-66.4449
-83.8189
-141.586
35.6875
22.2054
-234.664
218.682
1098.91
540.44
-189.784
-166.803
-206.622
-378.388
-317.197
70.7517
1506.22
997.034
2039.91
1802.66
1662.8
1429.28
1230.49
859.478
-91.4642
356.412
1910.58
103.835
707.648
1413.82
1196.55
1989.65
2224.03
1864.88
1405.53
1323.86
1363.78
1306.04
1513.68
1462.72
1595.36
1563.25
1480.49
944.41
1012.63
1102.79
1224.39
1161.16
1875.47
2463.75
2361.34
603.335
705.647
744.263
598.553
1065.25
461.169
387.383
735.716
1115
382.508
353.633
376.571
325.205
312.24
380.775
366.481
421.253
474.298
616.841
988.012
1152.23
999.506
835.925
968.394
468.916
408.021
562.311
353.896
229.476
288.122
264.793
241.665
565.759
788.053
784.214
626.516
173.195
220.915
245.311
207.992
-392.623
-376.409
-359.661
-344.102
-321.107
-286.538
-239.408
-203.525
-147.766
312.9
53.3314
-160.602
-150.889
-124.764
-113.404
-113.406
-139.164
-4.49658
-153.203
-246.388
-36.698
238.87
76.1866
-220.837
-187.895
120.55
-365.436
-295.586
273.292
2231.16
2099.33
1887.18
1030.93
765.867
1294.14
198.906
202.305
-117.019
-24.0286
1277.81
137.644
522.916
1879.74
1327.74
2036.73
1950.45
1866.79
1661.27
1365.14
1417.17
1285.27
1483.51
1447.89
1546.34
1466.79
1360.92
934.283
1040.17
1134.43
1170.77
1247.61
2276.12
2541.46
2165.68
597.02
685.433
720.317
479.155
829.812
352.84
398.36
989.062
1124.3
548.454
344.247
360.02
331.595
340.171
472.899
357.426
359.485
320.529
985.052
1236.92
1279.93
1350.21
983.846
1115.41
325.402
315.435
293.26
275.949
269.049
242.102
331.585
329.502
316.625
595.664
639.522
307.982
138.189
160.499
238.553
130.23
-392.574
-376.359
-359.613
-344.068
-321.134
-286.624
-239.177
-203.423
-170.349
38.8076
-68.4083
-164.749
-144.77
-129.291
-127.671
-95.4839
-41.3515
-96.9395
-192.911
-196.573
-95.3742
764.669
-139.729
-236.406
-213.459
162.44
-332.897
-162.753
765.506
566.559
2016.5
1283.87
-250.845
-88.482
531.104
-140.614
-9.68959
-24.2748
-26.5304
963.998
289.538
531.665
2177.68
1820.65
1703.87
651.375
1799.86
1588.69
1276.33
1405.34
1265.16
1447.76
1442.9
1427.35
1251.49
1287.34
989.621
1206.17
1290.2
1154.84
1365.6
1754.83
1715.02
1107.18
593.102
770.13
891.748
433.353
619.692
293.529
547.58
1024.64
1141.56
800.276
337.677
507.381
674.608
394.719
749.612
355.799
351.403
431.873
1204.61
1257.77
804.936
477.293
741.695
1138.41
572.028
308.38
287.728
328.596
461.552
203.744
333.224
258.959
267.884
382.956
254.773
72.2785
60.3438
72.9809
111.142
64.1562
-392.528
-376.313
-359.568
-344.043
-321.179
-286.747
-238.96
-203.159
-184.223
-131.574
-141.49
-172.12
-131.088
-133.849
-133.468
-67.8597
-48.9665
-187.722
-191.883
4.68451
-125.632
1025.8
-206.02
-237.98
-228.859
83.5066
-296.771
551.67
115.229
-175.935
883.608
37.088
-430.584
-265.575
40.841
220.654
-16.939
1106
18.1622
597.576
522.311
648.766
2143.16
1906.48
592.641
219.909
1258.79
1443.06
990.725
1372.5
1199.54
1430.33
1435.49
1433.7
1091.7
1119.91
986.38
1243.08
1118.69
1114.9
1412.09
1082.88
813.63
725.002
692.127
858.208
1415.43
429.515
452.941
282.66
421.722
1048.33
1152.72
985.393
359.587
1205
1229.92
521.273
1013.65
481.106
347.521
487.888
1225.46
672.236
258.504
345.282
750.83
517.571
1058.59
700.827
436.543
636.893
466.189
144.868
306.911
240.73
456.24
747.109
738.75
185.956
55.0794
41.6266
41.8817
38.275
-392.484
-376.27
-359.528
-344.034
-321.25
-286.862
-238.752
-202.69
-189.631
-191.531
-162.435
-170.75
-129.165
-134.581
-129.016
-30.413
-91.0968
-214.613
-154.128
79.944
-103.736
994.188
-220.684
-229.535
-212.488
-282.054
-189.19
1088.82
-174.9
-298.516
-51.105
-314.388
-538.617
-478.681
-191.674
315.171
212.186
1993.38
201.764
231.996
777.53
1118.26
2074.24
1863.38
257.747
426.63
384.772
1242.02
1012.12
1351.05
1160.43
1405.97
1339.86
1473.3
1128.1
1092.78
1028.66
1273.38
1119.99
1233.74
1545.33
2058.86
779.088
568.941
1410.58
957.64
1714.4
427.596
332.913
283.284
364.811
1012.76
1160.67
1025.51
371.763
1513.23
1410.32
999.56
1048.61
954.759
391.026
604.763
697.082
256.325
193.127
262.123
775.678
270.488
1061.46
1058.08
1060.06
1004.5
203.436
142.071
168.292
238.227
412.157
546.878
690.374
571.721
139.337
40.5116
41.4422
37.4392
-392.442
-376.23
-359.499
-344.057
-321.362
-286.998
-238.572
-202.257
-191.217
-202.401
-168.178
-171.994
-140.141
-136.257
-128.747
-116.53
-198.122
-213.561
-123.427
15.7524
-172.866
952.186
-226
-225.59
-145.761
-299.573
-0.199706
1034.47
-168.933
-349.457
-344.093
-400.837
-497.605
-461.555
-423.709
290.476
316.932
1797.01
1168.58
75.4607
592.68
1873.54
1190.83
1796.64
389.081
499.304
50.8756
1032.31
1115.04
1275.11
1165.75
1354.56
1263.75
1476.98
1226.98
1052.01
1200.4
1050.66
1077.69
1425.76
1922.19
2336.06
815.114
527.999
1741.38
1145.35
1830.31
412.163
321.264
278.101
343.158
468.141
1101.93
1022.31
408.519
1568.89
819.922
1031.18
802.192
1122.51
929.193
1096.91
367.715
191.73
186.749
216.836
687.152
190.788
369.123
1078.19
1002.84
397.837
374.091
139.803
136.398
338.382
462.177
320.923
316.587
305.039
278.93
98.0663
40.7769
36.7008
-392.402
-376.197
-359.492
-344.105
-321.511
-287.195
-238.421
-202.614
-193.159
-200.346
-163.812
-169.681
-154.008
-137.818
-129.738
-136.695
-195.946
-202.992
-124.933
-248.683
-222.82
345.791
-206.215
-141.306
168.93
-289.735
-294.982
983.214
93.3819
-285.526
-350.79
-338.998
-405.122
-363.165
-525.723
-74.6471
444.363
775.775
1855.16
209.655
569.552
1888.09
825.243
1680.67
570.419
676.356
-124.528
626.958
1212.61
1210.6
1194.59
1308.44
1191.07
1306.38
1143.6
1051.31
1267.47
1217.94
1063.24
1636.11
2134.61
1634.91
723.931
520.698
1781.63
1791.04
1956.51
410.743
318.35
278.609
369.028
586.749
615.32
1078.24
483.466
1614.55
413.725
1064.45
568.498
1156.17
1163.9
1147.44
284.338
187.28
183.872
209.996
214.6
187.535
207.261
1099.06
502.408
216.202
516.794
314.352
167.412
646.183
680.357
589.406
126.457
120.977
153.463
112.199
46.3525
36.0145
-392.367
-376.115
-359.519
-344.201
-321.692
-287.429
-238.272
-202.463
-194.121
-197.153
-162.856
-170.384
-162.408
-139.257
-126.86
-80.3642
-193.425
-187.14
-127.975
-279.505
-272.193
-240.511
-187.961
54.7698
351.302
-284.27
-397.443
941.553
992.081
-258.417
-419.338
-344.684
-242.299
-296.492
-460.235
-325.706
865.943
-665.818
1716.37
290.751
696.735
1828
942.032
1615.5
693.196
770.11
32.8124
437.502
1201.73
1261.65
1168.71
1247.82
1073.23
1237.17
1078.44
1019.18
1335.65
1416.34
1158.43
1693.05
2096.18
796.682
716.033
512.834
1621.65
1018.47
1540.69
443.193
343.955
281.198
413.152
1052.75
585.974
1103.69
612.656
827.081
411.63
1065.01
421.173
1185.82
1190.51
1172.3
301.388
181.631
179.194
204.117
185.6
181.047
619.153
947.629
178.554
178.422
427.679
384.035
233.504
656.257
688.431
702.191
171.524
48.2109
57.6072
50.3636
39.9688
36.5801
-392.335
-376.101
-359.557
-344.288
-321.905
-287.681
-238.173
-202.339
-194.029
-193.018
-158.214
-168.67
-162.898
-139.228
-115.786
58.3596
-173.252
-49.7495
-11.3149
-269.605
-250.889
-354.394
-68.0846
339.112
324.89
-277.595
-386.047
698.205
1010.7
-78.913
-351.273
-294.179
59.7529
97.5755
-376.979
-256.652
850.741
-564.415
1432.44
502.123
1136.47
1795.32
903.808
1539.63
1062.95
1014.49
208.391
601.979
1175.44
1284.81
1145.92
1124.15
1049.74
1272.56
1381.81
1097.11
974.149
1484
1409.64
1689.53
1713.83
780.289
703.912
505.596
824.228
845.877
2051.38
509.227
632.607
570.81
548.461
1077.43
970.54
1109.6
771.775
292.288
557.726
902.296
383.368
1214.94
1216.24
1194.9
461.624
258.942
239.831
256.887
178.488
247.094
1042.97
351.661
175.786
176.912
207.097
185.774
180.754
662.569
612.283
641.558
297.317
47.7646
47.3981
64.0205
39.393
48.7054
-392.309
-376.032
-359.608
-344.47
-322.133
-287.962
-238.068
-202.137
-193.267
-189.715
-157.558
-168.991
-163.425
-138.091
-96.3401
216.932
-177.424
-56.9429
6.19421
-266.961
-268.209
-327.219
65.847
344.912
300.301
-274.122
-377.772
-201.252
958.663
276.863
-310.252
-363.187
-254.051
365.441
-89.7642
280.877
750.707
-571.606
1407.21
1583.9
1914.47
1624.78
973.852
1093.79
1522.05
1443.26
453.444
1031
1125.16
1280.6
1084.03
1005.74
1193.76
1455.91
1572.96
1357.36
858.31
1255.01
1494.02
1344.26
1522.73
763.357
690.558
498.738
430.809
954.711
2053.16
809.568
788.288
598.004
763.095
1095.62
1114.4
1151.18
925.339
256.469
321.592
760.993
376.42
1010.28
1241.2
622.7
311.691
429.535
457.619
506.516
173.472
391.08
1059.97
180.733
321.376
286.326
245.018
180.005
191.001
371.131
299.592
178.466
336.209
58.0114
46.3496
148.882
38.7356
69.8475
-392.28
-376.014
-359.727
-344.651
-322.529
-288.388
-237.829
-201.57
-185.507
-184.895
-151.779
-167.066
-162.658
-135.655
-80.1512
201.219
-170.943
-156.443
-2.35691
-254.017
-230.495
-286.336
-102.517
-29.7599
0.855326
-269.403
-224.121
-435.244
846.809
1024.26
-199.502
-249.011
-248.396
431.771
609.149
532.726
82.6608
-479.566
1409
2121.19
1970.86
1079.3
1070.88
624.86
1489.23
1470.77
788.786
1055.66
963.815
1168.77
892.454
990.898
1392.62
1609.69
1745.46
1715.31
836.679
1130.17
1532.93
1357.94
1503.32
750.952
699.073
487.321
404.916
1430.97
844.436
1349.02
467.658
420.358
955.476
1120.28
1151.85
1178.57
667.609
243.315
233.471
558.826
654.86
560.382
959.468
218.36
180.196
583.868
710.482
686.342
205.368
809.988
1079.13
171.482
482.208
369.415
288.345
178.101
371.992
194.036
251.638
101.108
116.254
110.281
148.817
172.537
55.6054
77.5388
-392.287
-376
-360.026
-344.972
-323.099
-289.12
-237.851
-200.802
-175.326
-175.265
-151.895
-167.641
-163.059
-110.148
18.8363
128.808
-83.9344
-169.645
-146.657
-237.165
-246.946
-220.603
-195.387
-193.43
-210.572
24.1866
550.863
-345.429
107.128
964.791
109.366
-198.249
-215.557
-218.6
154.967
70.6672
-395.554
-228.929
156.431
1855.52
1809.37
702.058
1502.38
728.229
1133.52
1055.26
912.25
831.734
879.253
811.523
847.055
1241.1
1535.51
1789.13
1406.13
914.974
917.818
989.383
1250.47
1348.67
1503.82
734.419
825.611
498.705
491.423
2217.55
584.284
1473.77
639.682
705.841
1035.24
1114.62
1182.24
1210.72
852.391
313.069
223.893
324.37
975.706
419.941
303.945
150.967
161.512
374.223
315.304
725.652
424.448
952.532
1026.11
510.311
387.434
89.7459
74.0299
215.152
426.958
92.0628
188.961
64.2063
68.4468
125.482
146.554
175.85
204.771
202.48
-392.343
-376.091
-360.388
-345.405
-323.576
-289.676
-238.053
-200.057
-178.933
-173.76
-147.621
-165.948
-163.056
-33.5885
43.8212
-16.0534
48.9423
-121.071
-192.696
-234.1
-219.377
-203.921
-192.261
-224.012
-144.666
804.41
970.978
-254.815
-219.131
556.545
630.734
-62.1585
-127.862
-89.9504
-205.98
-210.253
-189.529
169.333
811.69
964.692
1527.48
874.359
1476.69
935.162
1003.27
1286.26
1005.88
990.007
965.79
1038.77
1113.29
1390.22
1381.5
1745.64
798.629
905.963
837.266
829.449
1598.42
1474.67
781.395
717.954
1144.76
468.399
466.293
2314.06
564.766
755.865
337.337
445.881
671.837
418.728
1211.97
1242.94
1164.45
504.215
219.526
213.941
1009.6
251.071
198.801
148.844
158.635
183.607
156.474
748.98
705.901
613.224
283.865
718.037
194.772
82.8489
68.2464
430.205
434.329
62.4277
88.6844
52.3369
54.486
70.4989
57.5221
89.3347
215.245
133.506
-392.455
-376.222
-360.691
-345.947
-323.851
-290.525
-238.489
-199.935
-185.002
-173.093
-148.299
-165.85
-163.791
-89.057
34.7248
-50.5951
35.5277
11.7113
-148.197
-237.171
-247.527
-196.186
-195.247
-176.699
220.895
1017.53
833.077
150.578
-45.0997
60.5066
262.275
-26.9066
13.9948
286.948
36.9046
16.1678
263.047
451.124
863.113
-143.435
1092.73
1123.32
1283.59
1172.44
1161.09
1518.96
1214.33
1217.52
950.135
1085.02
986.725
1093.66
1111.17
1785.26
692.823
806.08
688.558
744.155
1633.7
1688.6
1003.82
714.199
1244.68
479.807
396.698
2379.57
532.681
356.203
331.505
296.567
274.125
297.458
1243.34
649.142
1229.53
541.561
219.221
207.488
685.615
204.014
188.362
145.436
152.418
146.854
140.963
515.255
584.155
207.775
144.526
739.707
205.365
167.757
109.44
435.23
432.839
56.6181
52.6678
50.7907
46.8125
37.5168
25.5585
28.788
123.567
59.404
-392.637
-376.427
-361.089
-346.319
-324.195
-291.042
-238.923
-199.073
-177.01
-170.224
-145.329
-162.914
-164.171
-128.903
-27.9635
-62.5875
10.5323
1.54842
-82.7946
-230.736
-216.96
-186.277
-139.482
49.2373
292.91
-206.832
450.925
608.669
907.391
-115.46
-28.2759
23.8708
215.6
784.106
431.484
495.248
708.479
565.304
536.598
21.3992
1443.24
1509.1
1394.16
1355.87
1384.24
1595.42
1439.8
1356.51
736.493
1023.35
976.721
1036.07
970.174
1838.75
663.423
917.583
670.921
814.301
1730.28
1771.98
1180.91
794.951
1316.08
478.811
393.397
2412.29
894.853
332.997
314.907
291.037
269.072
273.791
965.648
318.182
1291.07
551.726
271.031
194.207
276.583
258.434
204.671
143.666
150.48
144.038
156.462
499.889
382.091
132.034
134.992
362.668
249.414
235.556
153.949
304.745
187.476
58.4488
68.4745
55.1155
35.8806
25.5926
25.4693
25.4883
31.7587
42.4178
-392.821
-376.62
-361.321
-346.536
-325.069
-291.298
-239.314
-197.544
-173.102
-161.52
-145.078
-163.658
-164.908
-139.315
-115.902
-99.9046
-108.204
-63.7493
-151.653
-227.397
-233.241
-169.148
-32.5122
207.709
259.989
-270.883
-230.512
121.002
1337.18
-213.707
-67.5132
43.0819
230.136
752.073
648.801
1010.49
943.639
818.536
545.512
121.871
1277.52
1615.22
1474.66
1317.97
1464.63
1472.01
1212.6
1256.97
676.2
890.554
894.537
941.762
945.312
1520.68
753.238
996
648.226
911.344
1707.73
1826.63
1403.58
1018.13
1373.18
587.93
685.192
1450.89
1337.17
410.963
383.028
284.745
265.748
250.659
384.926
267.565
925.198
555.032
287.458
190.999
244.167
398.965
207.175
142.014
149.32
140.389
208.766
450.948
386.631
128.62
134.31
125.962
193.709
239.995
183.45
127.268
52.3882
77.6399
144.681
117.103
55.5569
25.1849
25.2882
24.5892
25.7606
75.0035
-393.086
-376.877
-361.615
-346.628
-325.409
-291.559
-239.805
-195.202
-169.693
-154.615
-139.533
-164.582
-164.692
-138.426
-134.337
-97.3321
-115.567
-126.998
-179.195
-220.472
-205.853
-147.717
51.0269
198.731
71.8478
-196.444
-212.987
118.125
1284.32
-111.557
-1.12186
107.892
136.572
623.263
688.636
1003.8
1029.35
961.61
635.141
304.026
978.649
1557.66
1420.95
1301.03
1532.04
1444.58
1134.32
1216.51
804.581
832.121
957.469
1015.2
924.901
901.015
918.59
1108.16
665.955
943.544
944.586
1891.73
1613.92
1208.44
1436.72
766.571
906.848
452.228
1416
548.797
510.892
287.016
265.02
293.33
338.666
251.899
636.26
620.996
316.599
185.85
450.075
548.448
347.027
140.153
146.896
167.001
227.712
303.275
328.966
198.654
158.269
124.731
174.271
243.296
187.086
81.5726
51.605
102.826
158.782
156.442
80.5791
24.7226
25.1211
39.1927
25.1823
98.8387
-394.335
-378.359
-363.352
-347.386
-328.656
-292.293
-242.877
-192.532
-138.977
-116.187
-129.38
-142.062
-144.055
-123.782
-106.653
-85.4595
-39.832
-51.9389
-33.0485
19.0534
-96.7399
52.236
-49.2441
-28.7079
9.49045
103.11
272.114
406.283
363.504
353.013
417.55
367.893
579.875
1091.59
1027.66
868.16
769.398
1092.59
1355.83
1270.58
1328.15
1252.16
1230.11
1242.31
1436.35
1611.79
1054.15
1090.48
1290.05
1242.47
1230.4
1361.92
1405.05
804.215
1186.52
1195.96
1081.62
1101.13
863.65
1239.23
1613.47
1705.06
1245.48
901.062
859.43
428.88
809.93
697.022
704.498
375.667
294.064
317.821
286.071
236.506
445.214
665.24
614.285
527.608
613.84
654.366
568.298
294.404
376.53
384.79
391.246
212.02
192.464
228.084
236.142
131.797
165.436
204.569
208.436
111.945
78.0797
159.111
171.681
171.427
103.333
30.8482
50.9362
77.8232
72.5572
68.0824
-404.059
-379.19
-362.086
-347.033
-327.16
-286.126
-217.713
-129.629
-97.3879
-64.9107
-40.5607
-53.3102
-54.856
-32.3598
21.8426
69.8677
95.3411
152.424
243.477
380.511
356.515
292.634
258.865
333.669
702.349
870.881
857.279
856.049
888.999
872.971
838.342
751.157
584.508
722.795
664.514
602.088
723.445
979.74
1121.69
906.959
917.831
1386.45
1476.54
1601.46
1163.52
683.48
722.125
593.121
493.648
496.716
394.666
487.688
677.243
670.132
538.871
542.422
664.65
566.234
602.95
651.936
538.254
384.062
305.133
317.435
526.863
554.017
527.065
451.147
369.491
312.063
212.329
167.837
145.033
189.491
196.828
197.575
181.773
231.487
239.739
157.944
171.68
282.91
246.242
168.146
94.547
63.1797
41.6218
31.1392
41.7252
78.4401
104.764
77.2212
70.6717
120.597
120.05
119.227
95.1335
38.776
27.5204
23.1301
40.2035
66.3481
69.8763
33.9888
-362.643
-337.3
-298.532
-250.411
-214.444
-171.766
-98.7465
-0.216587
108.97
193.204
256.59
331.645
397.648
434.621
482.133
555.242
617.756
688.181
717.641
740.75
695.169
618.044
527.58
490.294
493
464.749
430.335
371.163
343.346
293.977
247.348
193.547
157.548
158.521
155.34
131.558
119.411
143.884
175.351
214.338
248.231
318.68
260.428
196.503
128.804
101.554
115.558
106.587
102.085
100.732
112.621
144.088
160.317
160.366
133.075
113.722
91.8456
63.9708
46.6398
42.3356
38.2997
47.3031
51.6796
69.434
205.566
416.667
336.278
218.415
278.273
303.502
247.719
99.6633
31.7665
12.5273
10.8482
10.6405
8.83669
5.55393
3.70778
25.1806
78.9211
114.283
79.1527
36.2176
29.1599
31.3234
21.1491
8.85132
7.07352
10.6271
13.9151
14.4588
18.3522
33.3053
59.484
55.9767
36.4513
15.9773
7.13488
10.1429
14.6118
18.0788
15.9004
7.29643
86.2691
145.992
220.357
328.814
445.218
526.409
576.067
618.233
648.729
679.973
695.255
674.206
624.298
562.788
496.598
422.076
354.446
298.881
261.734
231.455
209.862
173.108
136.697
115.324
107.912
86.4457
73.7083
64.7828
58.2238
53.4803
45.924
35.7973
28.3297
24.1237
28.206
22.0982
12.4621
11.7342
15.8033
20.4749
15.7567
3.04806
1.57171
3.93136
7.37702
11.0284
10.5247
7.58598
6.94622
6.59609
7.19632
10.7264
9.61231
6.41078
7.66321
10.1415
9.61542
7.8535
6.56871
5.31614
5.20423
5.52774
5.71999
5.63095
16.966
53.0678
57.4835
55.6545
47.2173
41.9652
35.241
26.4366
18.7554
11.367
8.18661
9.15231
5.90902
-1.29985
-3.05793
1.20932
6.44959
13.1772
14.1674
18.7778
31.9154
34.5519
18.854
6.10857
3.72362
2.59116
0.245502
1.6178
3.4761
2.09814
1.06637
0.124314
1.50692
3.42235
4.33253
4.69427
3.67182
2.34874
3.69306
6.28213
563.152
541.916
508.743
471.721
436.706
405.071
372.836
342.813
316.355
284.898
246.069
204.915
166.725
133.786
105.12
82.2786
63.4585
50.728
40.9844
33.0629
26.4339
21.334
15.7208
12.7006
11.8775
12.2151
10.8972
6.15765
3.10323
1.35817
0.505088
0.307141
1.76104
3.80155
6.50357
4.9322
2.18928
0.131234
1.10912
3.63118
2.84173
0.311277
-3.42729
-3.34042
0.431566
3.61122
5.58112
3.42163
0.466861
-1.5003
-2.59429
-2.70181
-2.31505
-1.63119
-0.533996
0.519162
0.900024
0.737619
1.51569
2.14833
0.946843
-0.177063
0.11466
-0.152341
-0.657503
-1.34184
-0.5328
1.58962
3.31827
4.59562
5.76887
6.23429
6.36642
6.48888
6.69589
7.17101
5.07912
0.983264
-2.23063
-2.21281
-1.57519
-0.872635
-0.653121
-0.318094
3.5723
21.7709
20.6009
7.27854
2.33299
1.79665
0.936081
1.21127
1.55284
0.843998
-0.847331
-1.59474
-0.694664
0.609816
1.21921
1.26148
0.139691
-0.97463
-1.41949
-0.92905
168.053
139.91
116.721
98.6891
83.5603
71.3985
62.5421
55.2809
48.3131
40.7212
33.0221
25.7278
19.3574
14.2608
10.343
7.77002
6.45094
5.69842
4.83926
3.80882
2.81088
1.14952
-0.230752
-0.108256
1.40742
3.28295
2.38089
1.04914
-0.0807718
-0.861605
-0.853364
-0.157316
0.669257
1.11688
1.63229
1.26363
0.288137
0.0698093
0.782972
0.870349
0.262317
-0.234996
-0.985299
-0.390572
1.1569
1.8969
1.81221
0.796705
-0.620433
-1.73556
-2.12449
-2.08919
-2.01985
-1.9144
-1.52557
-0.968686
0.0330594
6.26624
12.7369
10.965
3.053
-1.09519
-1.12187
-0.798562
-0.68836
-0.800045
-1.45043
-1.13504
0.985407
2.67194
3.87092
4.57972
4.86509
5.00842
7.90707
13.6073
11.9961
4.74737
-0.877803
-0.971989
-0.561027
-0.336264
-0.404448
-0.363319
0.519959
4.95475
10.1319
6.23293
2.02655
1.17551
0.872061
0.837829
0.838155
0.420339
-0.437427
-0.970293
-0.544577
0.0977393
0.450326
0.253224
-0.564974
-1.23238
-1.45446
-1.50009
21.9825
17.1759
13.5926
10.9016
9.00774
7.42115
5.96335
4.59651
3.32368
2.3814
1.7984
1.35233
0.997549
0.768478
0.810831
0.995429
1.2581
1.18918
1.07596
0.635785
0.128237
-0.718582
-0.95964
-0.656792
-0.147613
-0.0813953
-0.391369
-0.923097
-1.68202
-1.98204
-1.94157
-1.75331
-1.37486
-0.932828
-0.0296158
-0.0201131
-0.296
-0.248157
-0.235749
-0.100276
-0.214999
-0.41495
-1.38965
-1.4377
-0.796998
-0.269566
0.401037
-0.0302021
-1.07795
-1.90317
-2.43252
-2.63231
-2.69368
-2.53131
-1.63178
4.64783
14.029
14.7628
15.2606
15.9557
12.093
1.46306
-1.32166
-1.10336
-1.09496
-1.26446
-0.899755
0.0962452
1.3329
2.22103
2.84801
3.28922
3.5034
5.53674
14.0841
13.7068
12.5043
4.97184
-0.747423
-1.72464
-1.60612
-1.12561
-0.929612
-0.676508
-0.48614
0.107776
3.03248
5.00547
3.11397
1.25052
0.285382
0.219656
0.18982
-0.121141
-0.691588
-1.13069
-0.954467
-0.641097
-0.365665
-0.547038
-1.06661
-1.5501
-1.8058
-1.84674
1.99753
1.67813
1.58547
1.44282
1.20371
0.83322
0.36765
0.0076532
-0.274321
-0.339774
-0.326423
-0.332391
-0.348124
-0.312027
-0.273522
-0.235115
-0.238814
-0.286716
-0.357756
-0.490887
-0.654223
-0.862235
-0.965458
-0.902877
-0.719909
-0.364595
-0.382865
-0.625362
-0.951994
-1.17285
-1.20077
-0.904157
-0.593183
-0.271114
0.0264673
-0.0580785
-0.233607
-0.28488
-0.154384
-0.0679551
-0.176705
-0.294535
-0.546795
-0.31649
0.0965561
0.346406
0.274369
-0.137679
-0.873561
-1.53238
-2.00293
-2.13039
-2.0981
-1.76352
-0.78197
-0.323292
0.153531
1.84479
7.30033
7.15692
2.68705
-1.07768
-1.49973
-1.1673
-0.781727
-0.607551
-0.41374
0.217673
1.11109
1.96544
2.69328
3.09854
3.31275
4.61911
9.32039
8.5857
3.72742
0.1665
-0.784281
-1.18851
-1.22458
-1.29737
-1.32765
-1.26793
-1.00852
-0.6046
0.748819
3.07647
2.75343
1.05076
0.099688
-0.055074
-0.144487
-0.378252
-0.73811
-1.01167
-0.962141
-0.72578
-0.719094
-0.923604
-1.36001
-1.70735
-1.95657
-2.01339
0.170419
0.106393
0.0145051
-0.114937
-0.29772
-0.511597
-0.680284
-0.835568
-0.958094
-1.01957
-1.04543
-1.02337
-0.951046
-0.862446
-0.736127
-0.600445
-0.479391
-0.422517
-0.41453
-0.481663
-0.595341
-0.77228
-0.856022
-0.831874
-0.725953
-0.716269
-0.845679
-1.04275
-1.28687
-1.38763
-1.39035
-1.30931
-1.18847
-1.00166
-0.721594
-0.63938
-0.592868
-0.606452
-0.604448
-0.528345
-0.550284
-0.551515
-0.764175
-0.80607
-0.473444
-0.0654059
0.995888
1.05859
0.694239
-0.0567044
-1.43863
-1.97408
-1.9491
-1.73349
-1.45179
-1.40211
-1.63299
-1.65413
-1.81725
-1.92912
-1.89933
-1.77549
-1.6726
-1.41861
-1.05374
-0.76878
-0.41001
0.150672
0.88774
1.57948
1.9972
3.06975
3.73676
3.37646
2.23823
0.890053
-0.433282
-1.25905
-1.83549
-2.2377
-1.83488
-0.0497344
0.589427
0.316846
-0.55181
-0.815062
-0.397307
0.0506251
0.227953
0.0926343
-0.200735
-0.332877
-0.447762
-0.651692
-0.898455
-1.05849
-0.414137
0.223383
-0.0131133
-0.883113
-1.58283
-1.91863
-2.13261
-2.35743
-0.468988
-0.480222
-0.483042
-0.494669
-0.538363
-0.611277
-0.690775
-0.752398
-0.801218
-0.819096
-0.807807
-0.778191
-0.726879
-0.673007
-0.611042
-0.559813
-0.516018
-0.498734
-0.490507
-0.522799
-0.579806
-0.669355
-0.767872
-0.768593
-0.738975
-0.709488
-0.717418
-0.78212
-0.879695
-0.942794
-0.939849
-0.818413
-0.669659
-0.462915
-0.329301
-0.28756
-0.2874
-0.0171243
0.80026
0.837825
0.340525
-0.0897445
-0.180849
-0.0512861
0.768124
2.36608
2.21579
1.54522
-0.218695
-1.24489
-1.51339
-1.72656
-1.67746
-1.10248
-0.598018
-0.603852
-0.735497
-0.506845
0.232861
0.0902284
-0.00597825
-1.2427
-1.6335
-1.26616
-0.891411
-0.572997
-0.208855
0.285696
0.886465
1.92486
2.54049
2.81876
2.24354
1.32787
0.605609
-0.199685
-0.849745
-1.41918
-1.38825
1.55909
7.56424
8.08401
8.60057
3.49149
-0.482529
-0.751476
-0.593252
-0.440132
-0.337206
-0.307346
-0.369464
-0.479409
-0.603996
-0.727905
-0.526298
0.285864
0.277337
0.27323
0.194151
-0.719525
-1.68157
-2.05366
-2.32617
-2.54989
-0.393847
-0.399777
-0.42202
-0.468493
-0.538928
-0.61599
-0.686292
-0.74108
-0.77978
-0.820708
-0.816341
-0.809491
-0.77794
-0.710978
-0.625856
-0.558752
-0.464626
-0.421676
-0.417739
-0.466866
-0.573605
-0.651402
-0.704378
-0.72077
-0.719394
-0.727227
-0.74607
-0.835741
-0.981995
-1.06963
-1.06953
-0.823915
-0.525883
-0.54133
-0.695478
-0.62549
-0.311477
1.03458
1.32012
1.42824
0.92786
-0.0953287
-0.411679
-0.38677
-0.234145
-0.0415618
-0.160239
-0.554612
-1.02727
-1.34344
-1.60176
-1.63092
-1.22293
1.39027
2.45649
2.37877
2.1625
1.86909
-0.217721
-1.42648
-1.73187
-1.80068
-1.69768
-1.32566
-0.945656
-0.59943
-0.274384
0.167773
0.82235
1.45374
1.30933
1.23817
1.32815
1.79557
1.82347
2.59471
8.25104
8.58076
8.38788
9.22124
9.61986
9.00418
3.81782
-0.0536741
-0.677413
-0.695781
-0.629405
-0.549657
-0.471508
-0.43325
-0.352531
0.224839
0.219725
0.0757877
-0.2952
-0.846195
-0.933212
-0.942587
-1.05103
-1.39399
-1.86195
-2.204
-2.52562
-2.79078
-0.419704
-0.444869
-0.476402
-0.507953
-0.553227
-0.590377
-0.623903
-0.65495
-0.689059
-0.710693
-0.698555
-0.640017
-0.522042
-0.439102
-0.379359
-0.337589
-0.375395
-0.43946
-0.48613
-0.519794
-0.56389
-0.608914
-0.602641
-0.539009
-0.444418
-0.457319
-0.47705
-0.596462
-0.793153
-0.814486
-0.532383
0.580766
0.782272
0.783688
0.0248365
-0.209896
-0.031225
0.451072
0.939446
0.793165
0.340745
0.0830352
0.0353742
-0.0204228
-0.140508
-0.328008
-0.523132
-0.759056
-1.02362
-1.12952
-0.278032
-0.0664187
-0.0309298
-0.309655
-0.60211
-0.916517
-1.32384
-1.63558
-1.72107
-1.66814
-1.82194
-1.81479
-1.51777
-1.14307
-0.78989
-0.470257
-0.142852
0.243222
0.606384
0.744314
0.713387
0.835761
4.34303
10.4934
10.4162
10.5764
8.50717
3.67173
0.435766
-0.229415
-0.0763062
-0.0397003
-0.115224
-0.346947
-0.44356
-0.143893
0.0511938
0.0776842
-0.00128391
-0.335585
-0.418986
-0.535732
-0.543368
-0.332076
-0.640238
-1.06586
-1.31169
-1.4147
-1.54093
-1.76079
-2.02804
-2.32489
-2.71024
-3.03039
-0.368176
-0.387411
-0.415616
-0.453245
-0.49883
-0.551331
-0.599069
-0.650879
-0.673427
-0.593125
-0.35816
-0.277679
-0.220844
-0.347218
-0.478949
-0.50086
-0.48673
-0.490183
-0.499867
-0.520206
-0.541204
-0.552218
-0.395582
-0.241442
-0.261067
-0.42224
-0.557622
-0.579399
-0.617267
-0.587779
0.223058
0.786821
0.842207
0.187574
-0.378993
-0.480532
-0.393677
-0.320783
-0.274961
-0.271521
-0.292743
-0.312975
-0.342816
-0.38603
-0.473057
-0.610542
-0.716976
-0.887789