/*--------------------------------*- C++ -*----------------------------------*\
| =========                 |                                                 |
| \\      /  F ield         | OpenFOAM: The Open Source CFD Toolbox           |
|  \\    /   O peration     | Version:  v1912                                 |
|   \\  /    A nd           | Website:  www.openfoam.com                      |
|    \\/     M anipulation  |                                                 |
\*---------------------------------------------------------------------------*/
FoamFile
{
    version     2.0;
    format      ascii;
    class       surfaceScalarField;
    location    "50";
    object      alphaPhi0.water;
}
// * * * * * * * * * * * * * * * * * * * * * * * * * * * * * * * * * * * * * //

dimensions      [0 3 -1 0 0 0 0];
oriented        oriented;


internalField   nonuniform List<scalar> 
28285
(
0.0631067
0.0084149
0.0540524
0.00905434
0.0444129
0.00963949
0.0342631
0.0101498
0.0236954
0.0105677
0.0128118
0.0108836
0.00171692
0.0110949
-0.00948928
0.0112062
-0.0207076
0.0112183
-0.0318455
0.011138
-0.0428254
0.0109799
-0.0535818
0.0107564
-0.0640585
0.0104767
-0.074205
0.0101465
-0.0839729
0.00976795
-0.0933129
0.00933995
-0.102173
0.00885984
-0.110498
0.00832479
-0.118231
0.00773366
-0.125319
0.00708829
-0.131714
0.00639436
-0.137375
0.0056615
-0.142278
0.00490281
-0.146412
0.00413386
-0.149783
0.00337131
-0.152415
0.00263143
-0.154343
0.00192876
-0.155619
0.00127508
-0.156298
0.000679712
-0.156446
0.000147688
-0.156169
-0.000277045
-0.155494
-0.000675356
-0.154479
-0.00101492
-0.153171
-0.00130746
-0.151608
-0.0015627
-0.149816
-0.00179259
-0.147806
-0.00201018
-0.145577
-0.00222852
-0.143118
-0.00245927
-0.140407
-0.00271131
-0.137417
-0.0029894
-0.134124
-0.00329318
-0.130507
-0.00361667
-0.126559
-0.00394844
-0.122286
-0.00427259
-0.117716
-0.0045705
-0.112893
-0.00482329
-0.107878
-0.00501497
-0.102742
-0.00513597
-0.0975555
-0.00518613
-0.0923833
-0.00517213
-0.0873068
-0.00507658
-0.082409
-0.00489782
-0.0777616
-0.00464737
-0.0734235
-0.00433803
-0.0694428
-0.00398079
-0.0658598
-0.003583
-0.062712
-0.00314776
-0.0600377
-0.00267432
-0.057878
-0.00215968
-0.0562772
-0.00160085
-0.05528
-0.0009972
-0.0549246
-0.000355382
-0.0552418
0.000317263
-0.0562417
0.000999905
-0.0579115
0.00166978
-0.0602113
0.0022998
-0.0630741
0.00286279
-0.0664091
0.00333504
-0.0701089
0.00369973
-0.0740588
0.00394992
-0.0781506
0.00409185
-0.0822962
0.0041456
-0.0864378
0.00414157
-0.0905237
0.00408587
-0.0945029
0.00397925
-0.098345
0.00384205
-0.102033
0.00368833
-0.105556
0.00352301
-0.108899
0.00334279
-0.112037
0.0031383
-0.114934
0.00289707
-0.117542
0.00260705
-0.119801
0.00225986
-0.121655
0.00185316
-0.123046
0.00139173
-0.123933
0.000886505
-0.124294
0.000361016
-0.124116
-0.000177532
-0.123413
-0.000703411
-0.122207
-0.0012055
-0.120531
-0.00167613
-0.118417
-0.0021146
-0.11589
-0.00252644
-0.112969
-0.00292145
-0.109658
-0.00331076
-0.105954
-0.00370375
-0.101849
-0.00410526
-0.0973351
-0.0045139
-0.0924134
-0.00492161
-0.0870988
-0.00531465
-0.0814228
-0.00567603
-0.0754343
-0.00598843
-0.069197
-0.00623731
-0.0627834
-0.00641366
-0.0562677
-0.0065157
-0.0497182
-0.00654946
-0.0431901
-0.00652814
-0.0367192
-0.00647085
-0.0303176
-0.00640157
-0.0239697
-0.00634796
-0.0176457
-0.00632402
-0.0113217
-0.006324
-0.00496598
-0.00635568
0.00145827
-0.00642425
0.00800079
-0.00654252
0.014712
-0.00671124
0.0216292
-0.00691713
0.0287848
-0.00715567
0.0362082
-0.00742335
0.0439253
-0.00771712
0.0519589
-0.00803356
0.0603264
-0.00836749
0.0690373
-0.00871091
0.0780893
-0.00905208
0.087465
-0.00937564
0.0971283
-0.00966335
0.107024
-0.00989589
0.117079
-0.010055
0.127205
-0.0101257
0.137303
-0.0100984
0.147274
-0.00997039
0.157019
-0.00974557
0.166453
-0.0094342
0.175505
-0.00905119
0.184118
-0.00861308
0.192254
-0.00813596
0.199887
-0.00763343
0.207002
-0.00711481
0.213586
-0.00658393
0.219625
-0.00603946
0.225101
-0.005476
0.229987
-0.00488593
0.234249
-0.00426153
0.237846
-0.00359714
0.240737
-0.00289118
0.242883
-0.00214562
0.244245
-0.00136212
0.244782
-0.000536739
0.244544
0.000237981
0.243603
0.000940587
0.241927
0.0016763
0.239575
0.00235209
0.236616
0.00295906
0.23311
0.00350527
0.229136
0.0039745
0.224774
0.0043618
0.220105
0.00466927
0.215205
0.00489979
0.210146
0.00505855
0.204997
0.00514965
0.199816
0.00518097
0.194658
0.00515765
0.00509675
0.0633238
0.0168911
0.054224
0.0181541
0.0445436
0.0193199
0.0343568
0.0203366
0.0237573
0.0211672
0.0128469
0.021794
0.00172873
0.0222131
-0.00952189
0.0224568
-0.0207725
0.0224689
-0.0319374
0.0223029
-0.0429414
0.0219839
-0.0537201
0.021535
-0.0642181
0.0209748
-0.0743859
0.0203143
-0.0841757
0.0195577
-0.0935384
0.0187027
-0.102422
0.0177433
-0.110771
0.0166735
-0.118527
0.0154904
-0.125636
0.0141974
-0.132048
0.0128057
-0.137721
0.0113347
-0.142629
0.0098109
-0.146761
0.00826599
-0.150123
0.0067338
-0.15274
0.00524746
-0.154647
0.00383642
-0.155896
0.002524
-0.156542
0.00132561
-0.156641
0.000246409
-0.156349
-0.000569207
-0.155664
-0.00135977
-0.154632
-0.00204736
-0.153308
-0.00263104
-0.151733
-0.00313765
-0.149933
-0.00359255
-0.147921
-0.00402249
-0.145695
-0.00445422
-0.143243
-0.00491181
-0.14054
-0.0054137
-0.13756
-0.00596995
-0.134273
-0.00658016
-0.130657
-0.00723253
-0.126701
-0.00790423
-0.12241
-0.00856345
-0.117808
-0.0091729
-0.112937
-0.00969449
-0.107857
-0.0100944
-0.102645
-0.0103477
-0.097389
-0.0104426
-0.0921805
-0.0103806
-0.0870904
-0.0101666
-0.0821916
-0.00979671
-0.0775494
-0.00928948
-0.0732192
-0.00866831
-0.0692461
-0.00795388
-0.065669
-0.00716003
-0.0625246
-0.00629218
-0.0598507
-0.0053482
-0.057689
-0.00432145
-0.0560844
-0.00320541
-0.0550832
-0.00199844
-0.0547239
-0.000714631
-0.0550406
0.000633955
-0.0560445
0.00200374
-0.057724
0.0033493
-0.0600405
0.00461631
-0.0629281
0.00575043
-0.0662976
0.00670452
-0.0700434
0.00744549
-0.0740531
0.00795965
-0.0782155
0.00825429
-0.0824288
0.00835886
-0.0866043
0.00831706
-0.0906911
0.00817266
-0.094661
0.00794919
-0.0984916
0.00767262
-0.10217
0.00736709
-0.105688
0.00704064
-0.109031
0.00668545
-0.112174
0.00628167
-0.11508
0.00580343
-0.117699
0.00522585
-0.119971
0.00453171
-0.121834
0.00371627
-0.123232
0.00278926
-0.124118
0.00177322
-0.124477
0.000719514
-0.124291
-0.000363197
-0.123575
-0.00141927
-0.122355
-0.0024254
-0.120665
-0.00336643
-0.118538
-0.00424132
-0.116003
-0.00506183
-0.113076
-0.00584843
-0.109763
-0.00662433
-0.106057
-0.007409
-0.10195
-0.00821254
-0.0974317
-0.00903224
-0.0925016
-0.00985164
-0.0871737
-0.0106426
-0.0814795
-0.0113703
-0.0754688
-0.0119991
-0.0692065
-0.0124995
-0.0627671
-0.0128531
-0.0562265
-0.0130563
-0.0496541
-0.0131218
-0.0431056
-0.0130767
-0.0366174
-0.012959
-0.0302058
-0.0128132
-0.0238687
-0.0126851
-0.0175815
-0.0126113
-0.0112903
-0.0126151
-0.00495694
-0.0126891
0.00145404
-0.0128352
0.00799044
-0.0130789
0.0146957
-0.0134165
0.0216074
-0.0138289
0.0287585
-0.0143068
0.0361781
-0.0148429
0.0438924
-0.0154314
0.0519245
-0.0160657
0.0602925
-0.0167355
0.0690065
-0.0174249
0.078065
-0.0181105
0.0874506
-0.0187613
0.0971276
-0.0193404
0.10704
-0.0198087
0.117115
-0.0201292
0.127261
-0.0202717
0.137379
-0.0202171
0.147368
-0.0199594
0.15713
-0.0195071
0.166577
-0.0188809
0.175637
-0.0181113
0.184255
-0.0172317
0.192394
-0.0162747
0.200029
-0.0152679
0.207144
-0.0142299
0.213728
-0.0131684
0.219769
-0.0120805
0.225248
-0.010955
0.230138
-0.00977613
0.234405
-0.00852818
0.238007
-0.00719947
0.240903
-0.00578674
0.243051
-0.00429361
0.244411
-0.00272256
0.244938
-0.00106351
0.24469
0.000486391
0.243744
0.00188642
0.242058
0.0033623
0.239685
0.00472477
0.236699
0.00594508
0.23317
0.00703479
0.229174
0.00796989
0.224794
0.00874227
0.220108
0.00935527
0.215193
0.00981425
0.210123
0.0101291
0.204964
0.010308
0.199778
0.0103677
0.194611
0.0103238
0.0101976
0.063545
0.0253961
0.0544097
0.0272894
0.0446917
0.029038
0.0344698
0.0305585
0.0238399
0.0317971
0.0129026
0.0327313
0.00175865
0.033357
-0.00952717
0.0337426
-0.020807
0.0337487
-0.0319983
0.0334941
-0.0430266
0.0330122
-0.0538279
0.0323364
-0.0643474
0.0314942
-0.0745362
0.0305031
-0.0843473
0.0293688
-0.0937324
0.0280877
-0.102639
0.0266502
-0.111012
0.025046
-0.118792
0.0232703
-0.125922
0.0213276
-0.132351
0.0192345
-0.138036
0.0170202
-0.142951
0.0147252
-0.147082
0.0123975
-0.150437
0.0100888
-0.153039
0.00784965
-0.154928
0.005725
-0.156155
0.00375062
-0.156776
0.00194678
-0.156847
0.000317905
-0.156492
-0.000923983
-0.155808
-0.00204405
-0.154767
-0.00308824
-0.153432
-0.00396634
-0.151847
-0.00472262
-0.15004
-0.00539933
-0.148025
-0.00603761
-0.145801
-0.00667856
-0.143353
-0.00735951
-0.140658
-0.00810922
-0.137684
-0.00894359
-0.134402
-0.00986248
-0.130786
-0.0108482
-0.126824
-0.0118664
-0.122519
-0.0128685
-0.117894
-0.0137979
-0.112992
-0.0145961
-0.107876
-0.0152103
-0.102624
-0.0156
-0.0973248
-0.0157416
-0.0920739
-0.0156315
-0.0869562
-0.0152844
-0.0820395
-0.0147134
-0.0773866
-0.0139424
-0.0730497
-0.0130052
-0.0690718
-0.0119318
-0.0654899
-0.0107419
-0.0623394
-0.00944271
-0.0596575
-0.00803003
-0.0574861
-0.00649285
-0.0558712
-0.00482031
-0.0548606
-0.00300909
-0.054494
-0.00108119
-0.0548088
0.000948703
-0.0558177
0.00301262
-0.0575105
0.00504211
-0.0598489
0.0069548
-0.0627669
0.00866836
-0.0661738
0.0101114
-0.0699618
0.0112335
-0.0740154
0.0120132
-0.0782202
0.0124591
-0.0824716
0.0126103
-0.086681
0.0125265
-0.0907864
0.012278
-0.0947624
0.0119252
-0.0985932
0.0115034
-0.102271
0.0110447
-0.105789
0.0105588
-0.109136
0.0100323
-0.112288
0.00943384
-0.115207
0.00872288
-0.117842
0.00786074
-0.120131
0.00682057
-0.12201
0.00559484
-0.123419
0.00419827
-0.124311
0.00266496
-0.124669
0.00107808
-0.124479
-0.000553665
-0.123752
-0.00214539
-0.12252
-0.00365831
-0.120816
-0.00507
-0.118678
-0.00637941
-0.116134
-0.00760527
-0.113203
-0.00877968
-0.109889
-0.00993898
-0.106184
-0.0111136
-0.102077
-0.0123196
-0.0975562
-0.0135529
-0.0926194
-0.0147884
-0.0872792
-0.0159828
-0.0815672
-0.0170823
-0.075534
-0.0180323
-0.0692466
-0.0187869
-0.0627817
-0.019318
-0.0562177
-0.0196203
-0.0496265
-0.019713
-0.0430653
-0.0196379
-0.0365712
-0.019453
-0.0301598
-0.0192247
-0.0238265
-0.0190184
-0.0175478
-0.0188899
-0.0112791
-0.0188838
-0.00496614
-0.019002
0.00142896
-0.0192303
0.00795406
-0.019604
0.0146493
-0.0201117
0.0215523
-0.0207319
0.0286956
-0.0214501
0.0361083
-0.0222556
0.0438169
-0.02314
0.0518447
-0.0240935
0.0602108
-0.0251016
0.0689264
-0.0261405
0.0779909
-0.027175
0.0873877
-0.0281581
0.0970814
-0.029034
0.107016
-0.0297432
0.117116
-0.0302292
0.12729
-0.030446
0.137437
-0.0303643
0.147454
-0.0299756
0.157239
-0.0292925
0.166705
-0.0283472
0.17578
-0.0271861
0.184409
-0.0258603
0.192553
-0.0244195
0.200191
-0.0229058
0.207309
-0.0213475
0.213896
-0.0197558
0.219942
-0.0181259
0.225427
-0.0164403
0.230326
-0.0146748
0.234602
-0.0128048
0.238215
-0.0108121
0.24112
-0.00869153
0.243275
-0.00644843
0.244639
-0.00408677
0.245167
-0.00159162
0.244915
0.000738502
0.243954
0.002847
0.242249
0.00506773
0.239857
0.00711681
0.236849
0.00895318
0.233295
0.0105879
0.229276
0.011989
0.224873
0.0131457
0.220165
0.0140629
0.215231
0.0147484
0.210143
0.015217
0.204968
0.0154832
0.199765
0.0155707
0.194586
0.015503
0.0153078
0.0638286
0.033923
0.0546571
0.0364609
0.0448958
0.0387992
0.0346313
0.040823
0.0239623
0.042466
0.0129875
0.0437061
0.00180518
0.0445394
-0.00951926
0.0450671
-0.0208359
0.0450653
-0.032061
0.0447193
-0.0431206
0.0440718
-0.0539502
0.043166
-0.0644959
0.0420399
-0.0747101
0.0407173
-0.0845472
0.0392059
-0.0939598
0.0375003
-0.102896
0.0355861
-0.111298
0.0334484
-0.119107
0.0310796
-0.126265
0.028485
-0.132716
0.0256861
-0.138418
0.0227222
-0.143341
0.0196481
-0.147473
0.0165291
-0.150819
0.0134353
-0.153405
0.0104353
-0.15527
0.00759023
-0.156469
0.00494939
-0.157062
0.00253931
-0.157097
0.000353016
-0.156705
-0.00131544
-0.155965
-0.00278405
-0.154924
-0.00412985
-0.153578
-0.00531243
-0.151982
-0.00631804
-0.150168
-0.0072134
-0.14815
-0.00805528
-0.145929
-0.00890008
-0.143489
-0.00979975
-0.140803
-0.0107945
-0.13784
-0.0119067
-0.134566
-0.0131369
-0.130953
-0.0144616
-0.126985
-0.0158339
-0.122665
-0.017188
-0.118017
-0.0184465
-0.113083
-0.0195298
-0.107928
-0.020365
-0.102633
-0.020895
-0.0972894
-0.0210857
-0.0919912
-0.0209298
-0.0868304
-0.0204451
-0.0818811
-0.0196627
-0.0772047
-0.0186189
-0.0728505
-0.0173594
-0.0688587
-0.0159236
-0.065264
-0.0143366
-0.0620997
-0.012607
-0.0594024
-0.0107274
-0.0572136
-0.00868157
-0.0555809
-0.00645305
-0.0545542
-0.00403575
-0.0541751
-0.00146034
-0.0544854
0.00125908
-0.0555004
0.00402758
-0.0572114
0.00675307
-0.0595803
0.00932371
-0.0625398
0.0116279
-0.065997
0.0135686
-0.0698403
0.0150768
-0.0739488
0.0161217
-0.0782037
0.0167141
-0.082498
0.0169046
-0.086744
0.0167725
-0.0908782
0.0164123
-0.0948688
0.0159158
-0.0987057
0.0153402
-0.102386
0.014725
-0.105908
0.0140811
-0.109264
0.0133879
-0.112431
0.0126008
-0.115371
0.0116631
-0.118031
0.0105209
-0.120347
0.00913622
-0.12225
0.00749814
-0.123678
0.0056263
-0.124579
0.00356576
-0.124941
0.00144006
-0.124745
-0.000749631
-0.124005
-0.00288486
-0.122755
-0.00490872
-0.121033
-0.00679154
-0.11888
-0.00853275
-0.116326
-0.0101591
-0.11339
-0.0117157
-0.110076
-0.0132536
-0.106374
-0.0148157
-0.102269
-0.0164245
-0.0977462
-0.0180753
-0.092801
-0.0197336
-0.087444
-0.0213398
-0.0817066
-0.0228197
-0.0756412
-0.0240977
-0.0693173
-0.0251109
-0.0628152
-0.0258201
-0.0562175
-0.0262181
-0.0495992
-0.0263312
-0.0430204
-0.0262168
-0.0365193
-0.0259541
-0.0301108
-0.0256332
-0.023787
-0.0253422
-0.0175217
-0.0251553
-0.0112752
-0.0251303
-0.0049881
-0.0252891
0.00138443
-0.0256029
0.00789116
-0.0261108
0.0145704
-0.0267909
0.0214595
-0.027621
0.0285905
-0.028581
0.0359922
-0.0296574
0.0436912
-0.030839
0.051712
-0.0321143
0.0600747
-0.0334643
0.0687923
-0.034858
0.0778657
-0.0362484
0.0872798
-0.0375723
0.0969995
-0.0387537
0.106968
-0.0397118
0.117109
-0.0403697
0.127327
-0.0406647
0.13752
-0.0405569
0.147579
-0.0400348
0.157403
-0.039116
0.1669
-0.0378447
0.175999
-0.0362846
0.184644
-0.0345053
0.192799
-0.0325746
0.200443
-0.0305501
0.207565
-0.0284698
0.214158
-0.0263486
0.220211
-0.0241792
0.225708
-0.0219372
0.230622
-0.0195884
0.234916
-0.0170988
0.238547
-0.014443
0.241468
-0.0116133
0.243637
-0.00861647
0.245007
-0.00545706
0.245529
-0.0021135
0.245262
0.00100513
0.24428
0.00382863
0.242552
0.00679597
0.240135
0.00953373
0.237093
0.0119952
0.233503
0.0141785
0.229445
0.0160462
0.225004
0.0175869
0.22026
0.018807
0.215291
0.0197176
0.21017
0.0203377
0.204966
0.020687
0.19974
0.0207976
0.194542
0.0207004
0.0204307
0.0641897
0.0424713
0.0549774
0.0456732
0.0451645
0.0486122
0.0348475
0.05114
0.0241279
0.0531856
0.0131019
0.0547321
0.00186598
0.0557753
-0.00950943
0.0564425
-0.0208727
0.0564286
-0.0321407
0.0559874
-0.0432394
0.0551704
-0.0541035
0.0540301
-0.0646806
0.052617
-0.0749251
0.0509618
-0.0847932
0.049074
-0.0942388
0.046946
-0.10321
0.0445572
-0.111649
0.0418875
-0.119495
0.0389251
-0.126685
0.0356757
-0.133165
0.0321656
-0.138887
0.0284443
-0.14382
0.0245815
-0.147952
0.0206605
-0.151287
0.0167708
-0.153852
0.013
-0.155688
0.0094259
-0.156848
0.00611025
-0.157404
0.00309488
-0.157395
0.000344438
-0.15697
-0.00174124
-0.156175
-0.00357831
-0.155097
-0.00520798
-0.153744
-0.00666531
-0.152138
-0.00792412
-0.150316
-0.00903549
-0.148296
-0.0100754
-0.146079
-0.0111171
-0.14365
-0.0122293
-0.140979
-0.0134652
-0.138031
-0.0148548
-0.134768
-0.0163997
-0.131159
-0.0180702
-0.127187
-0.0198063
-0.122852
-0.0215234
-0.118176
-0.0231224
-0.113204
-0.0245014
-0.108003
-0.0255661
-0.102656
-0.0262418
-0.0972585
-0.0264836
-0.0919072
-0.026281
-0.0866969
-0.0256555
-0.0817069
-0.0246526
-0.0769982
-0.0233276
-0.0726184
-0.0217392
-0.0686053
-0.0199367
-0.0649907
-0.0179512
-0.061806
-0.0157916
-0.0590861
-0.0134473
-0.0568727
-0.010895
-0.0552148
-0.00811096
-0.0541656
-0.00508498
-0.0537685
-0.00185739
-0.0540721
0.00156268
-0.0550944
0.0050498
-0.0568286
0.00848729
-0.0592367
0.0117318
-0.0622494
0.0146407
-0.0657705
0.0170897
-0.0696831
0.0189894
-0.0738605
0.0202991
-0.078178
0.0210316
-0.0825245
0.0212511
-0.0868108
0.0210587
-0.0909746
0.0205761
-0.0949821
0.0199233
-0.0988268
0.019185
-0.102512
0.0184099
-0.10604
0.0176098
-0.109408
0.0167556
-0.112595
0.0157876
-0.115563
0.0146313
-0.118257
0.0132149
-0.120609
0.0114881
-0.122546
0.00943511
-0.124
0.00708036
-0.124914
0.00447988
-0.125282
0.00180815
-0.125079
-0.000952624
-0.124323
-0.00364139
-0.12305
-0.00618146
-0.121306
-0.00853588
-0.119133
-0.0107052
-0.116567
-0.0127255
-0.113626
-0.0146568
-0.110312
-0.0165669
-0.106615
-0.0185129
-0.102515
-0.0205252
-0.0979917
-0.0225983
-0.0930371
-0.0246882
-0.0876597
-0.0267173
-0.0818907
-0.0285887
-0.0757844
-0.030204
-0.0694139
-0.0314813
-0.0628645
-0.0323695
-0.0562236
-0.032859
-0.0495709
-0.0329839
-0.0429696
-0.0328182
-0.0364596
-0.0324641
-0.030055
-0.0320377
-0.0237455
-0.0316516
-0.0175011
-0.0313998
-0.0112795
-0.0313519
-0.00502358
-0.031545
0.00132063
-0.0319471
0.00780347
-0.0325936
0.0144619
-0.0334494
0.0213327
-0.0344918
0.0284474
-0.0356957
0.0358344
-0.0370444
0.0435207
-0.0385252
0.0515315
-0.0401252
0.0598888
-0.0418216
0.0686079
-0.0435771
0.0776921
-0.0453325
0.0871278
-0.047008
0.0968806
-0.0485064
0.106893
-0.0497244
0.117086
-0.0505628
0.127363
-0.0509414
0.137615
-0.0508089
0.147731
-0.0501505
0.157604
-0.0489896
0.167143
-0.0473833
0.176272
-0.0454141
0.184938
-0.0431715
0.193107
-0.0407428
0.200759
-0.0382022
0.207887
-0.0355979
0.214487
-0.0329482
0.22055
-0.0302429
0.226062
-0.0274489
0.230995
-0.0245216
0.235312
-0.0214158
0.238967
-0.0180978
0.241911
-0.014557
0.244096
-0.0108015
0.245475
-0.00683684
0.245997
-0.00263534
0.245723
0.0012791
0.244721
0.00483055
0.242959
0.00855832
0.240498
0.0119949
0.237409
0.0150841
0.23377
0.0178178
0.229664
0.0201523
0.225175
0.0220754
0.220387
0.0235956
0.215376
0.024728
0.210218
0.0254962
0.204979
0.0259254
0.199722
0.0260551
0.194497
0.025925
0.0255747
0.0646374
0.0510425
0.055378
0.0549326
0.0455038
0.0584864
0.0351234
0.0615204
0.0243398
0.0639692
0.0132467
0.0658252
0.00193961
0.0670824
-0.00950072
0.0678828
-0.0209225
0.0678504
-0.0322433
0.0673081
-0.0433894
0.0663165
-0.0542946
0.0649353
-0.0649081
0.0632305
-0.075188
0.0612417
-0.0850922
0.0589782
-0.0945771
0.0564308
-0.10359
0.0535705
-0.112073
0.0503706
-0.119962
0.046814
-0.127193
0.0429068
-0.133707
0.0386789
-0.139453
0.0341905
-0.144398
0.029527
-0.148529
0.0247909
-0.15185
0.0200922
-0.154389
0.0155387
-0.156189
0.0112255
-0.157306
0.00722778
-0.157817
0.00360622
-0.157754
0.000281207
-0.157285
-0.00221035
-0.156442
-0.00442165
-0.155303
-0.00634676
-0.153931
-0.00803692
-0.152316
-0.00953906
-0.150486
-0.010866
-0.148463
-0.0120977
-0.146253
-0.0133276
-0.143838
-0.0146442
-0.141187
-0.0161161
-0.138259
-0.0177824
-0.135013
-0.0196463
-0.131412
-0.0216714
-0.127435
-0.0237831
-0.123082
-0.0258764
-0.118374
-0.02783
-0.113357
-0.0295181
-0.108101
-0.030823
-0.102691
-0.0316513
-0.0972281
-0.0319465
-0.0918142
-0.0316948
-0.086547
-0.0309227
-0.0815084
-0.0296913
-0.0767595
-0.0280765
-0.0723468
-0.0261519
-0.0683056
-0.0239779
-0.0646653
-0.0215915
-0.061454
-0.0190029
-0.0587049
-0.0161965
-0.0564594
-0.0131404
-0.0547687
-0.00980169
-0.0536898
-0.00616384
-0.0532689
-0.00227835
-0.0535627
0.00185654
-0.0545931
0.00608023
-0.0563559
0.01025
-0.0588124
0.0141882
-0.061891
0.0177193
-0.0654909
0.0206896
-0.0694892
0.0229877
-0.073751
0.0245609
-0.0781451
0.0254257
-0.0825549
0.0256608
-0.0868882
0.025392
-0.0910835
0.0247714
-0.0951088
0.0239487
-0.0989618
0.023038
-0.102652
0.0220999
-0.106188
0.0211463
-0.109571
0.0201384
-0.112783
0.0189995
-0.115786
0.0176348
-0.118524
0.0159523
-0.120922
0.0138866
-0.122903
0.0114158
-0.12439
0.00856776
-0.125323
0.00541276
-0.125701
0.0021855
-0.125488
-0.00116528
-0.12471
-0.00441958
-0.123409
-0.00748229
-0.121636
-0.0103088
-0.11944
-0.0129013
-0.116859
-0.015307
-0.113912
-0.0176032
-0.110602
-0.0198771
-0.106913
-0.0222022
-0.102819
-0.0246184
-0.0982976
-0.0271201
-0.093333
-0.0296528
-0.0879312
-0.0321191
-0.0821234
-0.0343965
-0.0759664
-0.036361
-0.0695379
-0.0379098
-0.0629293
-0.0389781
-0.0562343
-0.0395539
-0.0495388
-0.0396794
-0.0429096
-0.0394474
-0.0363888
-0.0389849
-0.0299897
-0.0384368
-0.0236992
-0.0379422
-0.0174828
-0.0376162
-0.0112928
-0.0375418
-0.00507305
-0.0377648
0.00123669
-0.0382568
0.00768953
-0.0390464
0.014322
-0.0400818
0.0211699
-0.0413397
0.028264
-0.0427899
0.0356325
-0.0444129
0.0433022
-0.0461948
0.0512998
-0.0481228
0.0596495
-0.0501713
0.0683696
-0.0522972
0.0774663
-0.0544293
0.0869285
-0.0564702
0.0967225
-0.0583004
0.10679
-0.0597921
0.11705
-0.0608224
0.1274
-0.0612915
0.137727
-0.061136
0.147914
-0.0603378
0.157851
-0.0589263
0.167441
-0.0569736
0.17661
-0.0545826
0.185302
-0.0518641
0.193487
-0.0489272
0.201148
-0.0458639
0.208284
-0.042733
0.214892
-0.0395564
0.220969
-0.0363196
0.2265
-0.0329801
0.231459
-0.0294805
0.235806
-0.025763
0.239493
-0.0217845
0.242466
-0.0175304
0.244675
-0.0130103
0.246068
-0.00822964
0.246586
-0.0031538
0.246298
0.00156704
0.24527
0.00585885
0.243471
0.0103573
0.240962
0.0145037
0.237816
0.0182297
0.234116
0.0215184
0.229947
0.0243212
0.225396
0.026626
0.220548
0.0284437
0.215483
0.0297933
0.210276
0.0307038
0.204994
0.0312069
0.199699
0.03135
0.194443
0.0311816
0.030748
0.0651785
0.0596386
0.0558645
0.0642466
0.0459187
0.0684322
0.0354635
0.0719755
0.0246006
0.0748321
0.0134223
0.0770035
0.0020246
0.0784801
-0.00949558
0.079403
-0.0209888
0.0793436
-0.0323723
0.0786917
-0.0435745
0.0775187
-0.054527
0.0758878
-0.065182
0.0738855
-0.0755024
0.071562
-0.0854478
0.0689237
-0.0949784
0.0659614
-0.104041
0.0626327
-0.112576
0.0589058
-0.120516
0.0547541
-0.127795
0.0501856
-0.134348
0.0452321
-0.140123
0.0399651
-0.145082
0.0344867
-0.149211
0.0289196
-0.152515
0.023396
-0.155022
0.0180455
-0.156778
0.0129818
-0.157843
0.0082926
-0.158299
0.00406267
-0.158175
0.000157427
-0.157653
-0.00273307
-0.156754
-0.00532039
-0.155558
-0.00754252
-0.154138
-0.00945709
-0.152516
-0.0111613
-0.150677
-0.0127045
-0.148653
-0.0141222
-0.146451
-0.0155295
-0.144055
-0.0170398
-0.14143
-0.0187413
-0.138529
-0.0206832
-0.135304
-0.0228714
-0.131713
-0.0252625
-0.127732
-0.0277643
-0.123359
-0.0302491
-0.118615
-0.0325744
-0.113545
-0.0345884
-0.108221
-0.0361466
-0.102736
-0.0371357
-0.0971959
-0.0374871
-0.0917082
-0.0371825
-0.0863754
-0.0362555
-0.0812793
-0.0347873
-0.0764825
-0.0328733
-0.0720303
-0.0306041
-0.0679557
-0.0280525
-0.0642845
-0.0252627
-0.0610413
-0.0222461
-0.0582565
-0.0189814
-0.0559714
-0.0154255
-0.0542398
-0.0115333
-0.0531236
-0.00727998
-0.0526719
-0.00273001
-0.0529524
0.00213696
-0.0539917
0.00711955
-0.0557885
0.0120468
-0.0583032
0.0167029
-0.0614611
0.0208773
-0.0651562
0.0243847
-0.0692579
0.0270894
-0.0736216
0.0289246
-0.0781078
0.0299119
-0.0825934
0.0301464
-0.0869818
0.0297804
-0.0912113
0.0290009
-0.0952543
0.0279917
-0.0991146
0.0268982
-0.102809
0.0257941
-0.106353
0.0246906
-0.109753
0.0235381
-0.112994
0.022241
-0.116041
0.0206814
-0.118832
0.0187431
-0.121288
0.0163432
-0.123324
0.0134512
-0.124852
0.0100962
-0.125811
0.00637172
-0.126199
0.0025737
-0.125974
-0.00139099
-0.125168
-0.00522507
-0.123832
-0.00881806
-0.122024
-0.0121168
-0.119799
-0.0151262
-0.1172
-0.0179064
-0.114248
-0.0205551
-0.110943
-0.0231819
-0.107265
-0.0258801
-0.103183
-0.0287005
-0.098665
-0.0316383
-0.0936901
-0.0346277
-0.0882599
-0.0375492
-0.0824057
-0.0402507
-0.0761874
-0.0425793
-0.0696884
-0.0444089
-0.0630077
-0.0456588
-0.056247
-0.0463146
-0.0494994
-0.0464271
-0.0428366
-0.0461101
-0.0363031
-0.0455184
-0.0299114
-0.0448285
-0.0236446
-0.044209
-0.0174633
-0.0437974
-0.0113136
-0.0436915
-0.00513634
-0.0439421
0.00113245
-0.0445256
0.0075494
-0.0454634
0.0141508
-0.0466833
0.0209714
-0.0481603
0.0280411
-0.0498596
0.0353872
-0.051759
0.0430364
-0.053844
0.0510174
-0.0561038
0.0593568
-0.0585107
0.0680769
-0.0610174
0.0771877
-0.06354
0.086681
-0.0659635
0.0965243
-0.0681437
0.106659
-0.0699264
0.116999
-0.0711626
0.127438
-0.0717308
0.137857
-0.0715545
0.148131
-0.070612
0.158144
-0.0689397
0.167797
-0.0666265
0.177012
-0.0637975
0.185736
-0.0605878
0.193938
-0.0571299
0.20161
-0.0535358
0.208753
-0.0498754
0.21537
-0.0461739
0.221462
-0.0424117
0.227017
-0.0385347
0.232007
-0.0344706
0.236391
-0.0301473
0.240117
-0.0255103
0.243127
-0.0205403
0.245364
-0.0152477
0.246774
-0.00963919
0.247292
-0.00367206
0.246991
0.00186808
0.245932
0.00691757
0.244087
0.0122023
0.24152
0.0170715
0.238306
0.0214431
0.234533
0.0252913
0.230291
0.0285635
0.225668
0.0312489
0.220751
0.0333613
0.215619
0.0349246
0.210351
0.0359724
0.205014
0.0365439
0.199669
0.0366945
0.194372
0.0364789
0.0359511
0.0658188
0.0682619
0.0564421
0.0736233
0.0464141
0.0784603
0.0358722
0.0825174
0.0249125
0.0857917
0.0136283
0.0882877
0.00211928
0.0899891
-0.00949669
0.091019
-0.0210745
0.0909214
-0.0325307
0.0901478
-0.0437976
0.0887857
-0.0548034
0.0868936
-0.0655042
0.0845862
-0.07587
0.0819279
-0.0858615
0.0789151
-0.0954447
0.0755447
-0.104563
0.0717514
-0.113159
0.0675018
-0.121159
0.0627537
-0.128494
0.0575203
-0.135093
0.0518317
-0.140901
0.0457727
-0.145877
0.0394626
-0.150003
0.0330459
-0.153286
0.0266786
-0.155754
0.020514
-0.157459
0.014687
-0.158461
0.00929436
-0.158841
0.0044424
-0.158668
-1.49005e-05
-0.158073
-0.00332893
-0.157109
-0.00628356
-0.155856
-0.00879609
-0.154379
-0.0109337
-0.152733
-0.0128074
-0.15089
-0.0145474
-0.148864
-0.0161488
-0.146673
-0.0177205
-0.144302
-0.0194106
-0.14171
-0.0213337
-0.138843
-0.0235498
-0.135645
-0.026069
-0.132068
-0.0288403
-0.128082
-0.0317498
-0.123688
-0.0346432
-0.118901
-0.0373615
-0.113767
-0.0397221
-0.108365
-0.0415485
-0.102793
-0.0427083
-0.0971607
-0.0431192
-0.0915871
-0.0427562
-0.0861776
-0.0416649
-0.0810142
-0.0399507
-0.0761621
-0.0377255
-0.0716648
-0.0351013
-0.0675522
-0.0321651
-0.0638461
-0.0289688
-0.0605663
-0.0255259
-0.0577397
-0.021808
-0.0554071
-0.017758
-0.0536259
-0.0133145
-0.052464
-0.00844193
-0.0519738
-0.00322017
-0.0522362
0.00239934
-0.0532846
0.00816799
-0.0551211
0.0138832
-0.0577045
0.0192864
-0.0609566
0.0241294
-0.0647647
0.0281928
-0.0689891
0.0313138
-0.0734734
0.0334089
-0.0780686
0.0345071
-0.0826433
0.0347211
-0.0870952
0.0342323
-0.0913624
0.033268
-0.0954226
0.0320519
-0.0992882
0.0307639
-0.102984
0.0294902
-0.106535
0.0282414
-0.109953
0.0269558
-0.113228
0.0255166
-0.116326
0.0237792
-0.119182
0.0215984
-0.121709
0.0188702
-0.123811
0.0155532
-0.125389
0.0116751
-0.126383
0.00736533
-0.126782
0.00297247
-0.126539
-0.00163377
-0.1257
-0.00606449
-0.124321
-0.0101967
-0.12247
-0.0139679
-0.12021
-0.017386
-0.11759
-0.020527
-0.114632
-0.0235125
-0.111336
-0.0264786
-0.107674
-0.0295419
-0.103608
-0.0327667
-0.0990963
-0.0361496
-0.0941112
-0.0396128
-0.0886486
-0.0430118
-0.08274
-0.0461594
-0.0764488
-0.0488705
-0.0698655
-0.0509922
-0.0630986
-0.0524256
-0.0562593
-0.0531539
-0.0494497
-0.0532367
-0.0427472
-0.0528126
-0.0361994
-0.0520662
-0.0298173
-0.0512106
-0.0235797
-0.0504467
-0.0174413
-0.0499358
-0.0113409
-0.0497919
-0.00521359
-0.0500694
0.00100742
-0.0507466
0.00738232
-0.0518383
0.0139478
-0.0532487
0.0207368
-0.0549494
0.0277781
-0.0569008
0.0350978
-0.0590787
0.0427224
-0.0614686
0.0506829
-0.0640642
0.0590089
-0.0668367
0.0677277
-0.0697362
0.0768536
-0.0726659
0.0863826
-0.0754925
0.0962834
-0.0780446
0.106496
-0.0801393
0.116932
-0.0815981
0.127477
-0.082276
0.138004
-0.0820818
0.148382
-0.0809894
0.158486
-0.0790438
0.168212
-0.076353
0.177481
-0.0730665
0.18624
-0.0693468
0.194463
-0.0653528
0.202146
-0.0612181
0.209295
-0.0570248
0.215922
-0.0528012
0.222032
-0.0485212
0.227614
-0.0441166
0.232641
-0.0394981
0.23707
-0.0345764
0.240844
-0.0292837
0.243898
-0.0235948
0.246172
-0.0175211
0.247602
-0.0110698
0.248119
-0.00418891
0.247802
0.00218538
0.246707
0.00801184
0.244809
0.0141003
0.242174
0.0197074
0.238881
0.0247356
0.235023
0.029149
0.230694
0.0328925
0.225986
0.0359571
0.220987
0.0383606
0.21578
0.0401318
0.210441
0.0413108
0.20504
0.0419451
0.199639
0.0420958
0.194293
0.041825
0.0411932
0.0665646
0.0769158
0.0571161
0.0830717
0.0469953
0.0885811
0.036354
0.0931587
0.0252776
0.0968681
0.0138641
0.0997013
0.00222173
0.101631
-0.00950716
0.102748
-0.0211831
0.102597
-0.0327212
0.101686
-0.0440614
0.100126
-0.0551258
0.097958
-0.0658757
0.0953362
-0.0762923
0.0923445
-0.0863337
0.0889566
-0.0959771
0.085188
-0.105159
0.0809336
-0.113826
0.0761684
-0.121893
0.0708212
-0.129293
0.06492
-0.135946
0.0584846
-0.141792
0.0516185
-0.146786
0.044457
-0.150909
0.037169
-0.154166
0.0299359
-0.156589
0.0229368
-0.158234
0.0163319
-0.159165
0.0102256
-0.159451
0.00472812
-0.159225
-0.000240739
-0.158542
-0.00401209
-0.157506
-0.00731924
-0.15619
-0.0101126
-0.154658
-0.0124656
-0.15297
-0.0144955
-0.151124
-0.0163931
-0.149095
-0.0181777
-0.146918
-0.0198983
-0.144578
-0.0217504
-0.142026
-0.0238852
-0.139202
-0.0263736
-0.13604
-0.0292317
-0.132478
-0.0324016
-0.128489
-0.0357395
-0.124072
-0.0390597
-0.119236
-0.0421975
-0.114028
-0.0449304
-0.108535
-0.0470413
-0.10286
-0.0483833
-0.0971215
-0.0488578
-0.0914484
-0.0484292
-0.0859489
-0.0471645
-0.0807078
-0.0451917
-0.0757938
-0.0426396
-0.0712467
-0.0396484
-0.0670924
-0.0363194
-0.0633486
-0.0327126
-0.0600283
-0.0288461
-0.0571539
-0.0246825
-0.0547658
-0.0201462
-0.0529255
-0.0151548
-0.0517079
-0.00965949
-0.0511704
-0.00375763
-0.051409
0.00263789
-0.0524662
0.0092252
-0.054348
0.015765
-0.0570113
0.0219497
-0.0603737
0.0274918
-0.0643145
0.0321337
-0.0686828
0.0356821
-0.0733081
0.0380342
-0.0780304
0.0392294
-0.0827086
0.0393993
-0.0872324
0.0387562
-0.0915406
0.0375762
-0.0956177
0.036129
-0.0994859
0.0346322
-0.10318
0.0331845
-0.106734
0.0317955
-0.11017
0.0303913
-0.113484
0.0288308
-0.116642
0.0269373
-0.119574
0.0245302
-0.122185
0.021481
-0.124366
0.0177348
-0.126008
0.0133167
-0.127044
0.00840145
-0.127452
0.00338058
-0.127188
-0.00189826