/*--------------------------------*- C++ -*----------------------------------*\
| =========                 |                                                 |
| \\      /  F ield         | OpenFOAM: The Open Source CFD Toolbox           |
|  \\    /   O peration     | Version:  v1912                                 |
|   \\  /    A nd           | Website:  www.openfoam.com                      |
|    \\/     M anipulation  |                                                 |
\*---------------------------------------------------------------------------*/
FoamFile
{
    version     2.0;
    format      ascii;
    class       volScalarField;
    location    "60";
    object      k;
}
// * * * * * * * * * * * * * * * * * * * * * * * * * * * * * * * * * * * * * //

dimensions      [0 2 -2 0 0 0 0];


internalField   nonuniform List<scalar> 
14268
(
6.76208e-12
6.83629e-12
6.90786e-12
6.97678e-12
7.0431e-12
7.10686e-12
7.16813e-12
7.22695e-12
7.28342e-12
7.33756e-12
7.38947e-12
7.4392e-12
7.48681e-12
7.53238e-12
7.57596e-12
7.61763e-12
7.65744e-12
7.69546e-12
7.73176e-12
7.76639e-12
7.79942e-12
7.83091e-12
7.86091e-12
7.8895e-12
7.9167e-12
7.9426e-12
7.96724e-12
7.99066e-12
8.01293e-12
8.03409e-12
8.05419e-12
8.07327e-12
8.09138e-12
8.10857e-12
8.12486e-12
8.14032e-12
8.15496e-12
8.16884e-12
8.18198e-12
8.19442e-12
8.2062e-12
8.21734e-12
8.22788e-12
8.23784e-12
8.24726e-12
8.25616e-12
8.26457e-12
8.2725e-12
8.28e-12
8.28706e-12
8.29373e-12
8.30002e-12
8.30595e-12
8.31154e-12
8.31681e-12
8.32176e-12
8.32643e-12
8.33082e-12
8.33496e-12
8.33884e-12
8.3425e-12
8.34593e-12
8.34916e-12
8.35219e-12
8.35504e-12
8.35771e-12
8.36022e-12
8.36257e-12
8.36478e-12
8.36684e-12
8.36878e-12
8.37059e-12
8.37229e-12
8.37388e-12
8.37537e-12
8.37676e-12
8.37806e-12
8.37928e-12
8.38041e-12
8.38148e-12
8.38247e-12
8.38339e-12
8.38425e-12
8.38506e-12
8.38581e-12
8.3865e-12
8.38715e-12
8.38776e-12
8.38832e-12
8.38885e-12
8.38934e-12
8.38979e-12
8.39021e-12
8.3906e-12
8.39096e-12
8.3913e-12
8.39161e-12
8.3919e-12
8.39217e-12
8.39242e-12
8.39264e-12
8.39286e-12
8.39305e-12
8.39323e-12
8.3934e-12
8.39355e-12
8.3937e-12
8.39383e-12
8.39395e-12
8.39406e-12
8.39416e-12
8.39425e-12
8.39434e-12
8.39441e-12
8.39449e-12
8.39455e-12
8.39461e-12
8.39466e-12
8.39471e-12
8.39475e-12
8.39478e-12
8.39482e-12
8.39484e-12
8.39488e-12
8.39488e-12
8.39492e-12
8.3949e-12
8.39494e-12
8.39491e-12
8.39496e-12
8.3949e-12
8.39497e-12
8.39489e-12
8.39497e-12
8.39488e-12
8.39499e-12
8.39489e-12
8.39504e-12
8.39494e-12
8.39514e-12
8.39506e-12
8.39525e-12
8.39519e-12
8.39542e-12
8.39537e-12
8.39553e-12
8.39548e-12
8.39557e-12
8.39552e-12
8.39557e-12
8.39552e-12
8.39555e-12
8.3955e-12
8.39552e-12
8.39548e-12
8.39549e-12
8.39545e-12
8.39547e-12
8.39545e-12
8.39547e-12
8.39556e-12
8.3956e-12
8.40023e-12
8.49455e-12
1.98659e-10
2.00871e-10
2.03005e-10
2.05061e-10
2.0704e-10
2.08942e-10
2.10771e-10
2.12527e-10
2.14212e-10
2.15829e-10
2.1738e-10
2.18865e-10
2.20288e-10
2.21649e-10
2.22952e-10
2.24197e-10
2.25387e-10
2.26524e-10
2.2761e-10
2.28645e-10
2.29633e-10
2.30575e-10
2.31473e-10
2.32328e-10
2.33142e-10
2.33916e-10
2.34654e-10
2.35355e-10
2.36021e-10
2.36654e-10
2.37256e-10
2.37827e-10
2.38369e-10
2.38884e-10
2.39372e-10
2.39834e-10
2.40273e-10
2.40688e-10
2.41082e-10
2.41454e-10
2.41807e-10
2.42141e-10
2.42456e-10
2.42755e-10
2.43037e-10
2.43303e-10
2.43555e-10
2.43793e-10
2.44017e-10
2.44229e-10
2.44429e-10
2.44617e-10
2.44795e-10
2.44962e-10
2.4512e-10
2.45268e-10
2.45408e-10
2.4554e-10
2.45664e-10
2.4578e-10
2.45889e-10
2.45992e-10
2.46089e-10
2.4618e-10
2.46265e-10
2.46345e-10
2.4642e-10
2.46491e-10
2.46557e-10
2.46619e-10
2.46677e-10
2.46731e-10
2.46782e-10
2.4683e-10
2.46874e-10
2.46916e-10
2.46955e-10
2.46991e-10
2.47025e-10
2.47057e-10
2.47087e-10
2.47115e-10
2.4714e-10
2.47165e-10
2.47187e-10
2.47208e-10
2.47227e-10
2.47246e-10
2.47262e-10
2.47278e-10
2.47293e-10
2.47306e-10
2.47319e-10
2.47331e-10
2.47341e-10
2.47352e-10
2.47361e-10
2.4737e-10
2.47378e-10
2.47385e-10
2.47392e-10
2.47398e-10
2.47404e-10
2.4741e-10
2.47415e-10
2.47419e-10
2.47423e-10
2.47427e-10
2.47431e-10
2.47434e-10
2.47437e-10
2.4744e-10
2.47443e-10
2.47445e-10
2.47447e-10
2.47449e-10
2.47451e-10
2.47452e-10
2.47454e-10
2.47455e-10
2.47456e-10
2.47457e-10
2.47458e-10
2.47459e-10
2.47459e-10
2.4746e-10
2.4746e-10
2.47461e-10
2.4746e-10
2.47461e-10
2.4746e-10
2.47461e-10
2.47459e-10
2.47462e-10
2.47459e-10
2.47462e-10
2.47459e-10
2.47464e-10
2.47461e-10
2.47467e-10
2.47464e-10
2.4747e-10
2.47468e-10
2.47475e-10
2.47473e-10
2.47478e-10
2.47476e-10
2.47479e-10
2.47478e-10
2.47479e-10
2.47478e-10
2.47479e-10
2.47477e-10
2.47478e-10
2.47476e-10
2.47477e-10
2.47476e-10
2.47476e-10
2.47476e-10
2.47476e-10
2.47479e-10
2.4748e-10
2.47615e-10
2.50136e-10
1.34655e-09
1.36114e-09
1.3752e-09
1.38874e-09
1.40176e-09
1.41428e-09
1.42631e-09
1.43785e-09
1.44893e-09
1.45956e-09
1.46974e-09
1.47949e-09
1.48883e-09
1.49776e-09
1.50631e-09
1.51448e-09
1.52228e-09
1.52973e-09
1.53684e-09
1.54363e-09
1.5501e-09
1.55627e-09
1.56215e-09
1.56775e-09
1.57308e-09
1.57815e-09
1.58297e-09
1.58756e-09
1.59192e-09
1.59606e-09
1.6e-09
1.60373e-09
1.60728e-09
1.61064e-09
1.61383e-09
1.61685e-09
1.61972e-09
1.62244e-09
1.62501e-09
1.62744e-09
1.62975e-09
1.63193e-09
1.63399e-09
1.63594e-09
1.63778e-09
1.63952e-09
1.64117e-09
1.64272e-09
1.64419e-09
1.64557e-09
1.64687e-09
1.6481e-09
1.64926e-09
1.65036e-09
1.65139e-09
1.65236e-09
1.65327e-09
1.65413e-09
1.65494e-09
1.6557e-09
1.65641e-09
1.65708e-09
1.65771e-09
1.65831e-09
1.65886e-09
1.65939e-09
1.65988e-09
1.66034e-09
1.66077e-09
1.66117e-09
1.66155e-09
1.66191e-09
1.66224e-09
1.66255e-09
1.66284e-09
1.66311e-09
1.66337e-09
1.6636e-09
1.66383e-09
1.66403e-09
1.66423e-09
1.66441e-09
1.66458e-09
1.66473e-09
1.66488e-09
1.66502e-09
1.66514e-09
1.66526e-09
1.66537e-09
1.66548e-09
1.66557e-09
1.66566e-09
1.66574e-09
1.66582e-09
1.66589e-09
1.66595e-09
1.66602e-09
1.66607e-09
1.66612e-09
1.66617e-09
1.66622e-09
1.66626e-09
1.6663e-09
1.66633e-09
1.66637e-09
1.6664e-09
1.66642e-09
1.66645e-09
1.66647e-09
1.66649e-09
1.66651e-09
1.66653e-09
1.66655e-09
1.66656e-09
1.66658e-09
1.66659e-09
1.6666e-09
1.66661e-09
1.66662e-09
1.66663e-09
1.66664e-09
1.66664e-09
1.66665e-09
1.66665e-09
1.66666e-09
1.66666e-09
1.66666e-09
1.66667e-09
1.66666e-09
1.66667e-09
1.66666e-09
1.66667e-09
1.66666e-09
1.66667e-09
1.66666e-09
1.66668e-09
1.66666e-09
1.66669e-09
1.66667e-09
1.66671e-09
1.66669e-09
1.66673e-09
1.66672e-09
1.66676e-09
1.66675e-09
1.66678e-09
1.66677e-09
1.66679e-09
1.66678e-09
1.66679e-09
1.66678e-09
1.66678e-09
1.66677e-09
1.66678e-09
1.66677e-09
1.66677e-09
1.66676e-09
1.66677e-09
1.66676e-09
1.66677e-09
1.66679e-09
1.66679e-09
1.66767e-09
1.68236e-09
4.48793e-09
4.53381e-09
4.578e-09
4.62051e-09
4.66138e-09
4.70062e-09
4.7383e-09
4.77444e-09
4.8091e-09
4.84231e-09
4.87412e-09
4.90457e-09
4.93371e-09
4.96158e-09
4.98821e-09
5.01366e-09
5.03796e-09
5.06115e-09
5.08328e-09
5.10439e-09
5.1245e-09
5.14367e-09
5.16193e-09
5.17932e-09
5.19586e-09
5.2116e-09
5.22657e-09
5.24079e-09
5.25431e-09
5.26716e-09
5.27935e-09
5.29093e-09
5.30191e-09
5.31233e-09
5.32221e-09
5.33157e-09
5.34045e-09
5.34885e-09
5.35681e-09
5.36435e-09
5.37148e-09
5.37822e-09
5.3846e-09
5.39063e-09
5.39633e-09
5.40171e-09
5.4068e-09
5.4116e-09
5.41613e-09
5.42041e-09
5.42444e-09
5.42824e-09
5.43183e-09
5.4352e-09
5.43838e-09
5.44138e-09
5.4442e-09
5.44686e-09
5.44935e-09
5.4517e-09
5.45391e-09
5.45599e-09
5.45794e-09
5.45977e-09
5.46149e-09
5.4631e-09
5.46462e-09
5.46604e-09
5.46737e-09
5.46862e-09
5.46979e-09
5.47088e-09
5.47191e-09
5.47287e-09
5.47377e-09
5.47461e-09
5.47539e-09
5.47613e-09
5.47681e-09
5.47746e-09
5.47805e-09
5.47861e-09
5.47913e-09
5.47962e-09
5.48007e-09
5.48049e-09
5.48088e-09
5.48125e-09
5.48159e-09
5.48191e-09
5.4822e-09
5.48247e-09
5.48273e-09
5.48296e-09
5.48318e-09
5.48339e-09
5.48358e-09
5.48375e-09
5.48391e-09
5.48406e-09
5.4842e-09
5.48433e-09
5.48445e-09
5.48456e-09
5.48466e-09
5.48475e-09
5.48483e-09
5.48491e-09
5.48499e-09
5.48505e-09
5.48511e-09
5.48517e-09
5.48522e-09
5.48527e-09
5.48531e-09
5.48535e-09
5.48538e-09
5.48542e-09
5.48544e-09
5.48547e-09
5.48549e-09
5.48551e-09
5.48553e-09
5.48555e-09
5.48555e-09
5.48557e-09
5.48556e-09
5.48559e-09
5.48557e-09
5.4856e-09
5.48556e-09
5.4856e-09
5.48556e-09
5.4856e-09
5.48555e-09
5.48561e-09
5.48556e-09
5.48564e-09
5.48559e-09
5.48571e-09
5.48566e-09
5.48577e-09
5.48574e-09
5.48587e-09
5.48584e-09
5.48593e-09
5.4859e-09
5.48595e-09
5.48592e-09
5.48595e-09
5.48592e-09
5.48594e-09
5.48591e-09
5.48592e-09
5.4859e-09
5.48591e-09
5.48589e-09
5.48589e-09
5.48588e-09
5.4859e-09
5.48595e-09
5.48597e-09
5.48865e-09
5.52942e-09
1.02259e-08
1.03208e-08
1.04121e-08
1.04998e-08
1.0584e-08
1.06648e-08
1.07422e-08
1.08164e-08
1.08874e-08
1.09554e-08
1.10205e-08
1.10827e-08
1.11422e-08
1.1199e-08
1.12533e-08
1.13051e-08
1.13545e-08
1.14017e-08
1.14467e-08
1.14895e-08
1.15303e-08
1.15692e-08
1.16062e-08
1.16414e-08
1.16748e-08
1.17067e-08
1.17369e-08
1.17657e-08
1.1793e-08
1.18189e-08
1.18436e-08
1.18669e-08
1.18891e-08
1.19101e-08
1.193e-08
1.19489e-08
1.19667e-08
1.19837e-08
1.19997e-08
1.20148e-08
1.20292e-08
1.20428e-08
1.20556e-08
1.20677e-08
1.20792e-08
1.209e-08
1.21002e-08
1.21099e-08
1.2119e-08
1.21276e-08
1.21357e-08
1.21433e-08
1.21505e-08
1.21573e-08
1.21637e-08
1.21697e-08
1.21754e-08
1.21807e-08
1.21857e-08
1.21904e-08
1.21949e-08
1.2199e-08
1.22029e-08
1.22066e-08
1.22101e-08
1.22133e-08
1.22164e-08
1.22192e-08
1.22219e-08
1.22244e-08
1.22267e-08
1.22289e-08
1.2231e-08
1.22329e-08
1.22347e-08
1.22364e-08
1.2238e-08
1.22395e-08
1.22408e-08
1.22421e-08
1.22433e-08
1.22444e-08
1.22455e-08
1.22465e-08
1.22474e-08
1.22482e-08
1.2249e-08
1.22497e-08
1.22504e-08
1.2251e-08
1.22516e-08
1.22522e-08
1.22527e-08
1.22532e-08
1.22536e-08
1.2254e-08
1.22544e-08
1.22547e-08
1.22551e-08
1.22554e-08
1.22556e-08
1.22559e-08
1.22561e-08
1.22564e-08
1.22566e-08
1.22568e-08
1.22569e-08
1.22571e-08
1.22572e-08
1.22574e-08
1.22575e-08
1.22576e-08
1.22577e-08
1.22578e-08
1.22579e-08
1.2258e-08
1.2258e-08
1.22581e-08
1.22581e-08
1.22582e-08
1.22582e-08
1.22583e-08
1.22583e-08
1.22584e-08
1.22584e-08
1.22584e-08
1.22584e-08
1.22584e-08
1.22584e-08
1.22585e-08
1.22584e-08
1.22585e-08
1.22584e-08
1.22585e-08
1.22584e-08
1.22585e-08
1.22584e-08
1.22585e-08
1.22584e-08
1.22587e-08
1.22586e-08
1.22588e-08
1.22587e-08
1.2259e-08
1.22589e-08
1.22591e-08
1.22591e-08
1.22592e-08
1.22591e-08
1.22592e-08
1.22591e-08
1.22591e-08
1.22591e-08
1.22591e-08
1.22591e-08
1.22591e-08
1.2259e-08
1.22591e-08
1.2259e-08
1.22591e-08
1.22592e-08
1.22592e-08
1.22646e-08
1.23397e-08
1.83703e-08
1.85191e-08
1.86619e-08
1.87989e-08
1.89302e-08
1.90558e-08
1.91761e-08
1.92911e-08
1.94012e-08
1.95063e-08
1.96068e-08
1.97027e-08
1.97943e-08
1.98817e-08
1.9965e-08
2.00445e-08
2.01203e-08
2.01924e-08
2.02612e-08
2.03266e-08
2.03889e-08
2.04482e-08
2.05045e-08
2.05581e-08
2.06091e-08
2.06575e-08
2.07034e-08
2.07471e-08
2.07885e-08
2.08279e-08
2.08652e-08
2.09005e-08
2.09341e-08
2.09659e-08
2.0996e-08
2.10245e-08
2.10516e-08
2.10771e-08
2.11013e-08
2.11242e-08
2.11459e-08
2.11664e-08
2.11857e-08
2.1204e-08
2.12213e-08
2.12376e-08
2.1253e-08
2.12676e-08
2.12813e-08
2.12942e-08
2.13064e-08
2.13179e-08
2.13288e-08
2.1339e-08
2.13486e-08
2.13577e-08
2.13662e-08
2.13742e-08
2.13817e-08
2.13888e-08
2.13955e-08
2.14018e-08
2.14077e-08
2.14132e-08
2.14184e-08
2.14232e-08
2.14278e-08
2.14321e-08
2.14361e-08
2.14399e-08
2.14434e-08
2.14467e-08
2.14498e-08
2.14527e-08
2.14554e-08
2.1458e-08
2.14603e-08
2.14625e-08
2.14646e-08
2.14665e-08
2.14683e-08
2.147e-08
2.14716e-08
2.14731e-08
2.14744e-08
2.14757e-08
2.14769e-08
2.1478e-08
2.1479e-08
2.148e-08
2.14809e-08
2.14817e-08
2.14824e-08
2.14832e-08
2.14838e-08
2.14844e-08
2.1485e-08
2.14855e-08
2.1486e-08
2.14865e-08
2.14869e-08
2.14873e-08
2.14876e-08
2.1488e-08
2.14883e-08
2.14885e-08
2.14888e-08
2.1489e-08
2.14893e-08
2.14895e-08
2.14896e-08
2.14898e-08
2.149e-08
2.14901e-08
2.14902e-08
2.14904e-08
2.14905e-08
2.14906e-08
2.14906e-08
2.14907e-08
2.14908e-08
2.14909e-08
2.14909e-08
2.1491e-08
2.1491e-08
2.1491e-08
2.1491e-08
2.14911e-08
2.1491e-08
2.14911e-08
2.1491e-08
2.14911e-08
2.1491e-08
2.14911e-08
2.1491e-08
2.14911e-08
2.1491e-08
2.14912e-08
2.14911e-08
2.14914e-08
2.14913e-08
2.14916e-08
2.14915e-08
2.14919e-08
2.14919e-08
2.14921e-08
2.1492e-08
2.14922e-08
2.14921e-08
2.14922e-08
2.14921e-08
2.14921e-08
2.14921e-08
2.14921e-08
2.1492e-08
2.1492e-08
2.1492e-08
2.1492e-08
2.1492e-08
2.1492e-08
2.14922e-08
2.14923e-08
2.15003e-08
2.16066e-08
2.80083e-08
2.8198e-08
2.83796e-08
2.85533e-08
2.87194e-08
2.88781e-08
2.90297e-08
2.91745e-08
2.93127e-08
2.94445e-08
2.95702e-08
2.96902e-08
2.98044e-08
2.99133e-08
3.0017e-08
3.01157e-08
3.02096e-08
3.0299e-08
3.0384e-08
3.04649e-08
3.05417e-08
3.06148e-08
3.06841e-08
3.075e-08
3.08126e-08
3.0872e-08
3.09284e-08
3.09819e-08
3.10326e-08
3.10807e-08
3.11263e-08
3.11695e-08
3.12105e-08
3.12493e-08
3.1286e-08
3.13208e-08
3.13537e-08
3.13848e-08
3.14143e-08
3.14421e-08
3.14685e-08
3.14934e-08
3.15169e-08
3.15391e-08
3.15601e-08
3.15799e-08
3.15986e-08
3.16162e-08
3.16329e-08
3.16486e-08
3.16634e-08
3.16773e-08
3.16904e-08
3.17028e-08
3.17145e-08
3.17254e-08
3.17357e-08
3.17455e-08
3.17546e-08
3.17632e-08
3.17712e-08
3.17788e-08
3.1786e-08
3.17926e-08
3.17989e-08
3.18048e-08
3.18103e-08
3.18155e-08
3.18204e-08
3.18249e-08
3.18292e-08
3.18332e-08
3.1837e-08
3.18405e-08
3.18437e-08
3.18468e-08
3.18497e-08
3.18523e-08
3.18548e-08
3.18572e-08
3.18594e-08
3.18614e-08
3.18633e-08
3.18651e-08
3.18667e-08
3.18683e-08
3.18697e-08
3.1871e-08
3.18723e-08
3.18734e-08
3.18745e-08
3.18755e-08
3.18764e-08
3.18773e-08
3.18781e-08
3.18788e-08
3.18795e-08
3.18801e-08
3.18807e-08
3.18813e-08
3.18818e-08
3.18822e-08
3.18827e-08
3.18831e-08
3.18834e-08
3.18838e-08
3.18841e-08
3.18844e-08
3.18847e-08
3.18849e-08
3.18851e-08
3.18853e-08
3.18855e-08
3.18857e-08
3.18858e-08
3.1886e-08
3.18861e-08
3.18862e-08
3.18863e-08
3.18864e-08
3.18865e-08
3.18866e-08
3.18866e-08
3.18867e-08
3.18867e-08
3.18868e-08
3.18868e-08
3.18869e-08
3.18868e-08
3.18869e-08
3.18868e-08
3.18869e-08
3.18867e-08
3.18869e-08
3.18867e-08
3.18869e-08
3.18867e-08
3.18871e-08
3.18868e-08
3.18873e-08
3.18871e-08
3.18876e-08
3.18874e-08
3.18879e-08
3.18878e-08
3.18881e-08
3.1888e-08
3.18882e-08
3.18881e-08
3.18882e-08
3.18881e-08
3.18882e-08
3.18881e-08
3.18881e-08
3.1888e-08
3.1888e-08
3.1888e-08
3.1888e-08
3.1888e-08
3.1888e-08
3.18882e-08
3.18883e-08
3.18981e-08
3.20219e-08
3.79013e-08
3.81047e-08
3.82991e-08
3.84844e-08
3.86611e-08
3.88295e-08
3.89899e-08
3.91426e-08
3.92881e-08
3.94266e-08
3.95585e-08
3.96839e-08
3.98033e-08
3.99168e-08
4.00248e-08
4.01275e-08
4.02252e-08
4.0318e-08
4.04062e-08
4.049e-08
4.05696e-08
4.06451e-08
4.07169e-08
4.0785e-08
4.08496e-08
4.09109e-08
4.0969e-08
4.10242e-08
4.10764e-08
4.11259e-08
4.11729e-08
4.12173e-08
4.12594e-08
4.12993e-08
4.1337e-08
4.13728e-08
4.14065e-08
4.14385e-08
4.14687e-08
4.14973e-08
4.15243e-08
4.15498e-08
4.15739e-08
4.15967e-08
4.16182e-08
4.16385e-08
4.16576e-08
4.16757e-08
4.16927e-08
4.17088e-08
4.17239e-08
4.17382e-08
4.17516e-08
4.17643e-08
4.17762e-08
4.17874e-08
4.1798e-08
4.18079e-08
4.18173e-08
4.1826e-08
4.18343e-08
4.1842e-08
4.18493e-08
4.18562e-08
4.18626e-08
4.18686e-08
4.18743e-08
4.18796e-08
4.18845e-08
4.18892e-08
4.18935e-08
4.18976e-08
4.19014e-08
4.1905e-08
4.19084e-08
4.19115e-08
4.19144e-08
4.19172e-08
4.19197e-08
4.19221e-08
4.19244e-08
4.19264e-08
4.19284e-08
4.19302e-08
4.19319e-08
4.19334e-08
4.19349e-08
4.19363e-08
4.19375e-08
4.19387e-08
4.19398e-08
4.19408e-08
4.19418e-08
4.19427e-08
4.19435e-08
4.19442e-08
4.19449e-08
4.19456e-08
4.19462e-08
4.19468e-08
4.19473e-08
4.19478e-08
4.19482e-08
4.19486e-08
4.1949e-08
4.19493e-08
4.19496e-08
4.19499e-08
4.19502e-08
4.19505e-08
4.19507e-08
4.19509e-08
4.19511e-08
4.19513e-08
4.19514e-08
4.19516e-08
4.19517e-08
4.19518e-08
4.19519e-08
4.1952e-08
4.19521e-08
4.19522e-08
4.19522e-08
4.19523e-08
4.19523e-08
4.19524e-08
4.19524e-08
4.19525e-08
4.19524e-08
4.19525e-08
4.19524e-08
4.19525e-08
4.19523e-08
4.19525e-08
4.19523e-08
4.19526e-08
4.19523e-08
4.19527e-08
4.19525e-08
4.19529e-08
4.19527e-08
4.19532e-08
4.19531e-08
4.19536e-08
4.19535e-08
4.19538e-08
4.19537e-08
4.19539e-08
4.19537e-08
4.19539e-08
4.19538e-08
4.19538e-08
4.19537e-08
4.19538e-08
4.19537e-08
4.19537e-08
4.19536e-08
4.19536e-08
4.19536e-08
4.19537e-08
4.19538e-08
4.1954e-08
4.19639e-08
4.20883e-08
4.68089e-08
4.70004e-08
4.7183e-08
4.73569e-08
4.75224e-08
4.76799e-08
4.78297e-08
4.79722e-08
4.81077e-08
4.82366e-08
4.83591e-08
4.84756e-08
4.85863e-08
4.86914e-08
4.87914e-08
4.88863e-08
4.89765e-08
4.90621e-08
4.91433e-08
4.92205e-08
4.92937e-08
4.93632e-08
4.94291e-08
4.94916e-08
4.95508e-08
4.9607e-08
4.96603e-08
4.97107e-08
4.97586e-08
4.98038e-08
4.98467e-08
4.98874e-08
4.99258e-08
4.99622e-08
4.99966e-08
5.00292e-08
5.006e-08
5.00892e-08
5.01167e-08
5.01427e-08
5.01673e-08
5.01906e-08
5.02125e-08
5.02332e-08
5.02528e-08
5.02712e-08
5.02887e-08
5.03051e-08
5.03206e-08
5.03352e-08
5.03489e-08
5.03619e-08
5.03741e-08
5.03856e-08
5.03964e-08
5.04066e-08
5.04162e-08
5.04252e-08
5.04337e-08
5.04417e-08
5.04492e-08
5.04562e-08
5.04628e-08
5.0469e-08
5.04749e-08
5.04803e-08
5.04855e-08
5.04903e-08
5.04948e-08
5.0499e-08
5.0503e-08
5.05067e-08
5.05102e-08
5.05134e-08
5.05164e-08
5.05193e-08
5.05219e-08
5.05244e-08
5.05267e-08
5.05289e-08
5.05309e-08
5.05328e-08
5.05346e-08
5.05362e-08
5.05378e-08
5.05392e-08
5.05405e-08
5.05418e-08
5.05429e-08
5.0544e-08
5.0545e-08
5.05459e-08
5.05468e-08
5.05476e-08
5.05483e-08
5.0549e-08
5.05496e-08
5.05502e-08
5.05508e-08
5.05513e-08
5.05517e-08
5.05522e-08
5.05526e-08
5.0553e-08
5.05533e-08
5.05536e-08
5.05539e-08
5.05542e-08
5.05544e-08
5.05546e-08
5.05549e-08
5.0555e-08
5.05552e-08
5.05554e-08
5.05555e-08
5.05557e-08
5.05558e-08
5.05559e-08
5.0556e-08
5.05561e-08
5.05561e-08
5.05562e-08
5.05563e-08
5.05563e-08
5.05563e-08
5.05564e-08
5.05564e-08
5.05565e-08
5.05564e-08
5.05565e-08
5.05564e-08
5.05565e-08
5.05563e-08
5.05565e-08
5.05563e-08
5.05566e-08
5.05563e-08
5.05567e-08
5.05565e-08
5.05569e-08
5.05567e-08
5.05571e-08
5.0557e-08
5.05575e-08
5.05574e-08
5.05577e-08
5.05576e-08
5.05577e-08
5.05576e-08
5.05577e-08
5.05576e-08
5.05577e-08
5.05576e-08
5.05576e-08
5.05576e-08
5.05576e-08
5.05575e-08
5.05575e-08
5.05575e-08
5.05576e-08
5.05577e-08
5.05578e-08
5.05666e-08
5.06765e-08
5.40512e-08
5.42138e-08
5.43686e-08
5.45157e-08
5.46554e-08
5.47882e-08
5.49143e-08
5.5034e-08
5.51477e-08
5.52557e-08
5.53582e-08
5.54556e-08
5.55479e-08
5.56356e-08
5.57188e-08
5.57978e-08
5.58727e-08
5.59438e-08
5.60112e-08
5.60751e-08
5.61357e-08
5.61932e-08
5.62476e-08
5.62993e-08
5.63482e-08
5.63946e-08
5.64385e-08
5.64801e-08
5.65194e-08
5.65567e-08
5.6592e-08
5.66254e-08
5.6657e-08
5.66869e-08
5.67152e-08
5.6742e-08
5.67673e-08
5.67912e-08
5.68138e-08
5.68351e-08
5.68553e-08
5.68743e-08
5.68923e-08
5.69093e-08
5.69253e-08
5.69404e-08
5.69547e-08
5.69681e-08
5.69808e-08
5.69928e-08
5.7004e-08
5.70146e-08
5.70246e-08
5.7034e-08
5.70429e-08
5.70512e-08
5.70591e-08
5.70664e-08
5.70734e-08
5.70799e-08
5.7086e-08
5.70918e-08
5.70972e-08
5.71022e-08
5.7107e-08
5.71115e-08
5.71157e-08
5.71196e-08
5.71233e-08
5.71267e-08
5.713e-08
5.7133e-08
5.71358e-08
5.71385e-08
5.7141e-08
5.71433e-08
5.71455e-08
5.71475e-08
5.71494e-08
5.71511e-08
5.71528e-08
5.71543e-08
5.71558e-08
5.71571e-08
5.71584e-08
5.71595e-08
5.71606e-08
5.71616e-08
5.71626e-08
5.71634e-08
5.71643e-08
5.7165e-08
5.71657e-08
5.71664e-08
5.7167e-08
5.71675e-08
5.71681e-08
5.71685e-08
5.7169e-08
5.71694e-08
5.71698e-08
5.71701e-08
5.71705e-08
5.71708e-08
5.7171e-08
5.71713e-08
5.71715e-08
5.71718e-08
5.7172e-08
5.71721e-08
5.71723e-08
5.71725e-08
5.71726e-08
5.71727e-08
5.71729e-08
5.7173e-08
5.71731e-08
5.71732e-08
5.71732e-08
5.71733e-08
5.71734e-08
5.71734e-08
5.71735e-08
5.71735e-08
5.71735e-08
5.71736e-08
5.71736e-08
5.71736e-08
5.71736e-08
5.71737e-08
5.71736e-08
5.71737e-08
5.71735e-08
5.71737e-08
5.71735e-08
5.71737e-08
5.71735e-08
5.71738e-08
5.71736e-08
5.7174e-08
5.71738e-08
5.71742e-08
5.71741e-08
5.71745e-08
5.71744e-08
5.71746e-08
5.71745e-08
5.71747e-08
5.71746e-08
5.71747e-08
5.71746e-08
5.71746e-08
5.71746e-08
5.71746e-08
5.71745e-08
5.71745e-08
5.71745e-08
5.71745e-08
5.71745e-08
5.71745e-08
5.71747e-08
5.71747e-08
5.71817e-08
5.72658e-08
5.94501e-08
5.95755e-08
5.96946e-08
5.98077e-08
5.9915e-08
6.00167e-08
6.01132e-08
6.02047e-08
6.02914e-08
6.03737e-08
6.04517e-08
6.05256e-08
6.05958e-08
6.06622e-08
6.07253e-08
6.0785e-08
6.08417e-08
6.08954e-08
6.09462e-08
6.09945e-08
6.10401e-08
6.10834e-08
6.11244e-08
6.11633e-08
6.12001e-08
6.12349e-08
6.12679e-08
6.12991e-08
6.13286e-08
6.13566e-08
6.13831e-08
6.14081e-08
6.14318e-08
6.14542e-08
6.14754e-08
6.14954e-08
6.15143e-08
6.15322e-08
6.15491e-08
6.1565e-08
6.15801e-08
6.15944e-08
6.16078e-08
6.16205e-08
6.16324e-08
6.16437e-08
6.16544e-08
6.16644e-08
6.16739e-08
6.16828e-08
6.16912e-08
6.16991e-08
6.17066e-08
6.17136e-08
6.17202e-08
6.17264e-08
6.17322e-08
6.17377e-08
6.17429e-08
6.17478e-08
6.17523e-08
6.17566e-08
6.17606e-08
6.17644e-08
6.1768e-08
6.17713e-08
6.17744e-08
6.17774e-08
6.17801e-08
6.17827e-08
6.17851e-08
6.17873e-08
6.17894e-08
6.17914e-08
6.17933e-08
6.1795e-08
6.17966e-08
6.17981e-08
6.17995e-08
6.18009e-08
6.18021e-08
6.18032e-08
6.18043e-08
6.18053e-08
6.18062e-08
6.18071e-08
6.18079e-08
6.18086e-08
6.18093e-08
6.181e-08
6.18106e-08
6.18112e-08
6.18117e-08
6.18122e-08
6.18126e-08
6.1813e-08
6.18134e-08
6.18138e-08
6.18141e-08
6.18144e-08
6.18147e-08
6.1815e-08
6.18152e-08
6.18154e-08
6.18156e-08
6.18158e-08
6.1816e-08
6.18162e-08
6.18163e-08
6.18165e-08
6.18166e-08
6.18167e-08
6.18168e-08
6.18169e-08
6.1817e-08
6.18171e-08
6.18171e-08
6.18172e-08
6.18173e-08
6.18173e-08
6.18174e-08
6.18174e-08
6.18174e-08
6.18175e-08
6.18175e-08
6.18175e-08
6.18175e-08
6.18176e-08
6.18175e-08
6.18176e-08
6.18175e-08
6.18176e-08
6.18175e-08
6.18176e-08
6.18175e-08
6.18176e-08
6.18175e-08
6.18177e-08
6.18175e-08
6.18178e-08
6.18177e-08
6.1818e-08
6.18179e-08
6.18182e-08
6.18181e-08
6.18183e-08
6.18182e-08
6.18183e-08
6.18183e-08
6.18183e-08
6.18183e-08
6.18183e-08
6.18182e-08
6.18183e-08
6.18182e-08
6.18182e-08
6.18182e-08
6.18182e-08
6.18182e-08
6.18182e-08
6.18183e-08
6.18184e-08
6.18234e-08
6.18718e-08
6.31773e-08
6.32654e-08
6.33491e-08
6.34284e-08
6.35036e-08
6.35748e-08
6.36423e-08
6.37061e-08
6.37666e-08
6.38239e-08
6.38783e-08
6.39297e-08
6.39784e-08
6.40246e-08
6.40684e-08
6.41098e-08
6.41491e-08
6.41863e-08
6.42215e-08
6.42549e-08
6.42865e-08
6.43164e-08
6.43447e-08
6.43716e-08
6.4397e-08
6.4421e-08
6.44438e-08
6.44653e-08
6.44857e-08
6.4505e-08
6.45233e-08
6.45405e-08
6.45568e-08
6.45723e-08
6.45869e-08
6.46007e-08
6.46137e-08
6.4626e-08
6.46376e-08
6.46486e-08
6.4659e-08
6.46688e-08
6.4678e-08
6.46868e-08
6.4695e-08
6.47028e-08
6.47101e-08
6.4717e-08
6.47235e-08
6.47296e-08
6.47354e-08
6.47409e-08
6.4746e-08
6.47508e-08
6.47554e-08
6.47596e-08
6.47637e-08
6.47674e-08
6.4771e-08
6.47743e-08
6.47775e-08
6.47804e-08
6.47832e-08
6.47858e-08
6.47882e-08
6.47905e-08
6.47926e-08
6.47947e-08
6.47965e-08
6.47983e-08
6.48e-08
6.48015e-08
6.4803e-08
6.48043e-08
6.48056e-08
6.48068e-08
6.48079e-08
6.48089e-08
6.48099e-08
6.48108e-08
6.48116e-08
6.48124e-08
6.48132e-08
6.48138e-08
6.48145e-08
6.48151e-08
6.48156e-08
6.48161e-08
6.48166e-08
6.48171e-08
6.48175e-08
6.48179e-08
6.48182e-08
6.48186e-08
6.48189e-08
6.48192e-08
6.48194e-08
6.48197e-08
6.48199e-08
6.48201e-08
6.48203e-08
6.48205e-08
6.48206e-08
6.48208e-08
6.48209e-08
6.48211e-08
6.48212e-08
6.48213e-08
6.48214e-08
6.48215e-08
6.48216e-08
6.48217e-08
6.48217e-08
6.48218e-08
6.48219e-08
6.48219e-08
6.4822e-08
6.4822e-08
6.4822e-08
6.48221e-08
6.48221e-08
6.48222e-08
6.48222e-08
6.48222e-08
6.48222e-08
6.48222e-08
6.48222e-08
6.48223e-08
6.48222e-08
6.48223e-08
6.48222e-08
6.48223e-08
6.48222e-08
6.48223e-08
6.48222e-08
6.48223e-08
6.48222e-08
6.48223e-08
6.48222e-08
6.48224e-08
6.48223e-08
6.48225e-08
6.48224e-08
6.48227e-08
6.48226e-08
6.48228e-08
6.48227e-08
6.48228e-08
6.48227e-08
6.48228e-08
6.48227e-08
6.48228e-08
6.48227e-08
6.48227e-08
6.48227e-08
6.48227e-08
6.48227e-08
6.48227e-08
6.48227e-08
6.48227e-08
6.48228e-08
6.48228e-08
6.48262e-08
6.48265e-08
6.5576e-08
6.56322e-08
6.56856e-08
6.57363e-08
6.57843e-08
6.58297e-08
6.58727e-08
6.59134e-08
6.5952e-08
6.59886e-08
6.60232e-08
6.6056e-08
6.6087e-08
6.61165e-08
6.61443e-08
6.61708e-08
6.61958e-08
6.62195e-08
6.6242e-08
6.62632e-08
6.62834e-08
6.63025e-08
6.63206e-08
6.63377e-08
6.63539e-08
6.63693e-08
6.63838e-08
6.63975e-08
6.64106e-08
6.64229e-08
6.64345e-08
6.64456e-08
6.6456e-08
6.64658e-08
6.64752e-08
6.6484e-08
6.64923e-08
6.65002e-08
6.65076e-08
6.65147e-08
6.65213e-08
6.65276e-08
6.65335e-08
6.65391e-08
6.65444e-08
6.65493e-08
6.6554e-08
6.65584e-08
6.65626e-08
6.65665e-08
6.65702e-08
6.65737e-08
6.6577e-08
6.65801e-08
6.6583e-08
6.65857e-08
6.65883e-08
6.65907e-08
6.6593e-08
6.65952e-08
6.65972e-08
6.65991e-08
6.66008e-08
6.66025e-08
6.66041e-08
6.66055e-08
6.66069e-08
6.66082e-08
6.66094e-08
6.66105e-08
6.66116e-08
6.66126e-08
6.66135e-08
6.66144e-08
6.66152e-08
6.6616e-08
6.66167e-08
6.66173e-08
6.6618e-08
6.66185e-08
6.66191e-08
6.66196e-08
6.662e-08
6.66205e-08
6.66209e-08
6.66213e-08
6.66216e-08
6.6622e-08
6.66223e-08
6.66226e-08
6.66228e-08
6.66231e-08
6.66233e-08
6.66235e-08
6.66237e-08
6.66239e-08
6.66241e-08
6.66242e-08
6.66244e-08
6.66245e-08
6.66246e-08
6.66247e-08
6.66248e-08
6.66249e-08
6.6625e-08
6.66251e-08
6.66252e-08
6.66253e-08
6.66253e-08
6.66254e-08
6.66254e-08
6.66255e-08
6.66255e-08
6.66256e-08
6.66256e-08
6.66257e-08
6.66257e-08
6.66257e-08
6.66257e-08
6.66258e-08
6.66258e-08
6.66258e-08
6.66258e-08
6.66258e-08
6.66258e-08
6.66259e-08
6.66258e-08
6.66259e-08
6.66258e-08
6.66259e-08
6.66258e-08
6.66259e-08
6.66258e-08
6.66259e-08
6.66258e-08
6.66259e-08
6.66258e-08
6.66259e-08
6.66258e-08
6.6626e-08
6.66259e-08
6.66261e-08
6.6626e-08
6.66262e-08
6.66261e-08
6.66262e-08
6.66261e-08
6.66262e-08
6.66261e-08
6.66262e-08
6.66262e-08
6.66262e-08
6.66262e-08
6.66262e-08
6.66261e-08
6.66262e-08
6.66261e-08
6.66261e-08
6.66261e-08
6.66261e-08
6.66262e-08
6.66262e-08
6.66284e-08
6.65629e-08
6.7014e-08
6.70459e-08
6.70765e-08
6.71055e-08
6.71332e-08
6.71593e-08
6.71842e-08
6.72077e-08
6.72301e-08
6.72513e-08
6.72714e-08
6.72905e-08
6.73086e-08
6.73258e-08
6.73422e-08
6.73577e-08
6.73724e-08
6.73864e-08
6.73996e-08
6.74122e-08
6.74241e-08
6.74354e-08
6.74461e-08
6.74563e-08
6.7466e-08
6.74751e-08
6.74838e-08
6.7492e-08
6.74998e-08
6.75072e-08
6.75141e-08
6.75207e-08
6.7527e-08
6.75329e-08
6.75385e-08
6.75438e-08
6.75489e-08
6.75536e-08
6.75581e-08
6.75623e-08
6.75664e-08
6.75701e-08
6.75737e-08
6.75771e-08
6.75803e-08
6.75833e-08
6.75861e-08
6.75888e-08
6.75914e-08
6.75937e-08
6.7596e-08
6.75981e-08
6.76001e-08
6.7602e-08
6.76037e-08
6.76054e-08
6.7607e-08
6.76085e-08
6.76098e-08
6.76111e-08
6.76124e-08
6.76135e-08
6.76146e-08
6.76156e-08
6.76166e-08
6.76175e-08
6.76183e-08
6.76191e-08
6.76198e-08
6.76205e-08
6.76212e-08
6.76218e-08
6.76223e-08
6.76229e-08
6.76234e-08
6.76238e-08
6.76243e-08
6.76247e-08
6.7625e-08
6.76254e-08
6.76257e-08
6.7626e-08
6.76263e-08
6.76266e-08
6.76268e-08
6.76271e-08
6.76273e-08
6.76275e-08
6.76277e-08
6.76278e-08
6.7628e-08
6.76282e-08
6.76283e-08
6.76284e-08
6.76285e-08
6.76287e-08
6.76288e-08
6.76289e-08
6.76289e-08
6.7629e-08
6.76291e-08
6.76292e-08
6.76292e-08
6.76293e-08
6.76294e-08
6.76294e-08
6.76294e-08
6.76295e-08
6.76295e-08
6.76296e-08
6.76296e-08
6.76296e-08
6.76297e-08
6.76297e-08
6.76297e-08
6.76297e-08
6.76297e-08
6.76298e-08
6.76298e-08
6.76298e-08
6.76298e-08
6.76298e-08
6.76298e-08
6.76298e-08
6.76298e-08
6.76299e-08
6.76298e-08
6.76299e-08
6.76298e-08
6.76299e-08
6.76298e-08
6.76299e-08
6.76298e-08
6.76299e-08
6.76298e-08
6.76299e-08
6.76298e-08
6.76299e-08
6.76298e-08
6.763e-08
6.76299e-08
6.763e-08
6.76299e-08
6.76301e-08
6.763e-08
6.76301e-08
6.763e-08
6.76301e-08
6.763e-08
6.76301e-08
6.763e-08
6.76301e-08
6.763e-08
6.76301e-08
6.763e-08
6.763e-08
6.763e-08
6.763e-08
6.763e-08
6.763e-08
6.76301e-08
6.763e-08
6.76315e-08
6.74751e-08
6.81804e-08
6.8189e-08
6.81976e-08
6.82059e-08
6.82141e-08
6.82219e-08
6.82295e-08
6.82369e-08
6.8244e-08
6.82508e-08
6.82574e-08
6.82637e-08
6.82699e-08
6.82757e-08
6.82814e-08
6.82868e-08
6.8292e-08
6.8297e-08
6.83018e-08
6.83064e-08
6.83108e-08
6.8315e-08
6.83191e-08
6.83229e-08
6.83266e-08
6.83301e-08
6.83335e-08
6.83367e-08
6.83397e-08
6.83426e-08
6.83454e-08
6.8348e-08
6.83505e-08
6.83529e-08
6.83552e-08
6.83573e-08
6.83594e-08
6.83613e-08
6.83631e-08
6.83649e-08
6.83665e-08
6.83681e-08
6.83696e-08
6.8371e-08
6.83723e-08
6.83736e-08
6.83748e-08
6.83759e-08
6.8377e-08
6.8378e-08
6.83789e-08
6.83798e-08
6.83807e-08
6.83815e-08
6.83822e-08
6.83829e-08
6.83836e-08
6.83842e-08
6.83848e-08
6.83854e-08
6.83859e-08
6.83864e-08
6.83869e-08
6.83873e-08
6.83877e-08
6.83881e-08
6.83885e-08
6.83888e-08
6.83891e-08
6.83894e-08
6.83897e-08
6.83899e-08
6.83902e-08
6.83904e-08
6.83906e-08
6.83908e-08
6.8391e-08
6.83912e-08
6.83914e-08
6.83915e-08
6.83917e-08
6.83918e-08
6.83919e-08
6.8392e-08
6.83921e-08
6.83922e-08
6.83923e-08
6.83924e-08
6.83925e-08
6.83926e-08
6.83926e-08
6.83927e-08
6.83928e-08
6.83928e-08
6.83929e-08
6.83929e-08
6.8393e-08
6.8393e-08
6.8393e-08
6.83931e-08
6.83931e-08
6.83931e-08
6.83932e-08
6.83932e-08
6.83932e-08
6.83932e-08
6.83933e-08
6.83933e-08
6.83933e-08
6.83933e-08
6.83933e-08
6.83933e-08
6.83933e-08
6.83934e-08
6.83934e-08
6.83934e-08
6.83934e-08
6.83934e-08
6.83934e-08
6.83934e-08
6.83934e-08
6.83934e-08
6.83934e-08
6.83934e-08
6.83934e-08
6.83934e-08
6.83934e-08
6.83934e-08
6.83934e-08
6.83934e-08
6.83934e-08
6.83934e-08
6.83934e-08
6.83935e-08
6.83934e-08
6.83935e-08
6.83934e-08
6.83935e-08
6.83934e-08
6.83935e-08
6.83934e-08
6.83935e-08
6.83934e-08
6.83935e-08
6.83934e-08
6.83935e-08
6.83935e-08
6.83935e-08
6.83935e-08
6.83935e-08
6.83935e-08
6.83935e-08
6.83935e-08
6.83935e-08
6.83935e-08
6.83935e-08
6.83935e-08