/*--------------------------------*- C++ -*----------------------------------*\
| =========                 |                                                 |
| \\      /  F ield         | OpenFOAM: The Open Source CFD Toolbox           |
|  \\    /   O peration     | Version:  v1912                                 |
|   \\  /    A nd           | Website:  www.openfoam.com                      |
|    \\/     M anipulation  |                                                 |
\*---------------------------------------------------------------------------*/
FoamFile
{
    version     2.0;
    format      ascii;
    class       volScalarField;
    location    "60";
    object      nut;
}
// * * * * * * * * * * * * * * * * * * * * * * * * * * * * * * * * * * * * * //

dimensions      [0 2 -1 0 0 0 0];


internalField   nonuniform List<scalar> 
14268
(
1.51645e-13
1.53309e-13
1.54914e-13
1.56459e-13
1.57947e-13
1.59377e-13
1.6075e-13
1.6207e-13
1.63336e-13
1.6455e-13
1.65714e-13
1.66829e-13
1.67897e-13
1.68919e-13
1.69896e-13
1.70831e-13
1.71724e-13
1.72576e-13
1.7339e-13
1.74167e-13
1.74908e-13
1.75614e-13
1.76287e-13
1.76928e-13
1.77538e-13
1.78119e-13
1.78671e-13
1.79196e-13
1.79696e-13
1.8017e-13
1.80621e-13
1.81049e-13
1.81455e-13
1.81841e-13
1.82206e-13
1.82553e-13
1.82881e-13
1.83192e-13
1.83487e-13
1.83766e-13
1.8403e-13
1.8428e-13
1.84516e-13
1.8474e-13
1.84951e-13
1.8515e-13
1.85339e-13
1.85517e-13
1.85685e-13
1.85843e-13
1.85993e-13
1.86134e-13
1.86267e-13
1.86392e-13
1.8651e-13
1.86622e-13
1.86726e-13
1.86825e-13
1.86917e-13
1.87005e-13
1.87087e-13
1.87164e-13
1.87236e-13
1.87304e-13
1.87368e-13
1.87428e-13
1.87484e-13
1.87537e-13
1.87586e-13
1.87633e-13
1.87676e-13
1.87717e-13
1.87755e-13
1.8779e-13
1.87824e-13
1.87855e-13
1.87884e-13
1.87911e-13
1.87937e-13
1.87961e-13
1.87983e-13
1.88004e-13
1.88023e-13
1.88041e-13
1.88058e-13
1.88073e-13
1.88088e-13
1.88102e-13
1.88114e-13
1.88126e-13
1.88137e-13
1.88147e-13
1.88157e-13
1.88165e-13
1.88173e-13
1.88181e-13
1.88188e-13
1.88194e-13
1.882e-13
1.88206e-13
1.88211e-13
1.88216e-13
1.8822e-13
1.88224e-13
1.88228e-13
1.88232e-13
1.88235e-13
1.88238e-13
1.8824e-13
1.88243e-13
1.88245e-13
1.88247e-13
1.88249e-13
1.88251e-13
1.88252e-13
1.88254e-13
1.88255e-13
1.88256e-13
1.88257e-13
1.88258e-13
1.88259e-13
1.8826e-13
1.8826e-13
1.88261e-13
1.88261e-13
1.88262e-13
1.88262e-13
1.88263e-13
1.88262e-13
1.88263e-13
1.88262e-13
1.88263e-13
1.88262e-13
1.88263e-13
1.88261e-13
1.88264e-13
1.88262e-13
1.88265e-13
1.88263e-13
1.88267e-13
1.88265e-13
1.8827e-13
1.88268e-13
1.88273e-13
1.88272e-13
1.88276e-13
1.88275e-13
1.88277e-13
1.88276e-13
1.88277e-13
1.88276e-13
1.88276e-13
1.88275e-13
1.88276e-13
1.88275e-13
1.88275e-13
1.88274e-13
1.88275e-13
1.88274e-13
1.88275e-13
1.88277e-13
1.88277e-13
1.88381e-13
1.90497e-13
2.46843e-11
2.49841e-11
2.52738e-11
2.55531e-11
2.58224e-11
2.60816e-11
2.63311e-11
2.65711e-11
2.68016e-11
2.70231e-11
2.72356e-11
2.74394e-11
2.76349e-11
2.78221e-11
2.80013e-11
2.81729e-11
2.83369e-11
2.84938e-11
2.86436e-11
2.87867e-11
2.89233e-11
2.90536e-11
2.91778e-11
2.92963e-11
2.94091e-11
2.95165e-11
2.96188e-11
2.97161e-11
2.98086e-11
2.98966e-11
2.99802e-11
3.00596e-11
3.0135e-11
3.02066e-11
3.02745e-11
3.03389e-11
3.04e-11
3.04579e-11
3.05127e-11
3.05646e-11
3.06138e-11
3.06603e-11
3.07043e-11
3.07459e-11
3.07853e-11
3.08225e-11
3.08576e-11
3.08908e-11
3.09222e-11
3.09517e-11
3.09796e-11
3.10059e-11
3.10307e-11
3.10541e-11
3.10762e-11
3.10969e-11
3.11164e-11
3.11348e-11
3.11521e-11
3.11684e-11
3.11837e-11
3.11981e-11
3.12116e-11
3.12243e-11
3.12363e-11
3.12475e-11
3.1258e-11
3.12678e-11
3.12771e-11
3.12857e-11
3.12938e-11
3.13014e-11
3.13085e-11
3.13152e-11
3.13214e-11
3.13273e-11
3.13327e-11
3.13378e-11
3.13426e-11
3.1347e-11
3.13512e-11
3.13551e-11
3.13587e-11
3.13621e-11
3.13652e-11
3.13681e-11
3.13708e-11
3.13734e-11
3.13758e-11
3.13779e-11
3.138e-11
3.13819e-11
3.13837e-11
3.13853e-11
3.13868e-11
3.13882e-11
3.13895e-11
3.13907e-11
3.13919e-11
3.13929e-11
3.13939e-11
3.13948e-11
3.13956e-11
3.13963e-11
3.1397e-11
3.13977e-11
3.13983e-11
3.13988e-11
3.13993e-11
3.13998e-11
3.14002e-11
3.14006e-11
3.1401e-11
3.14013e-11
3.14016e-11
3.14019e-11
3.14021e-11
3.14023e-11
3.14025e-11
3.14027e-11
3.14029e-11
3.1403e-11
3.14031e-11
3.14032e-11
3.14033e-11
3.14034e-11
3.14034e-11
3.14035e-11
3.14034e-11
3.14036e-11
3.14034e-11
3.14036e-11
3.14034e-11
3.14037e-11
3.14033e-11
3.14037e-11
3.14034e-11
3.14039e-11
3.14036e-11
3.14043e-11
3.1404e-11
3.14048e-11
3.14046e-11
3.14054e-11
3.14053e-11
3.14058e-11
3.14056e-11
3.1406e-11
3.14058e-11
3.1406e-11
3.14058e-11
3.14059e-11
3.14057e-11
3.14058e-11
3.14056e-11
3.14057e-11
3.14056e-11
3.14056e-11
3.14055e-11
3.14056e-11
3.1406e-11
3.14061e-11
3.14235e-11
3.17618e-11
4.77891e-10
4.83906e-10
4.8972e-10
4.9533e-10
5.00739e-10
5.0595e-10
5.10967e-10
5.15793e-10
5.20434e-10
5.24891e-10
5.29171e-10
5.33277e-10
5.37215e-10
5.40988e-10
5.44602e-10
5.48062e-10
5.51371e-10
5.54536e-10
5.5756e-10
5.60448e-10
5.63206e-10
5.65837e-10
5.68346e-10
5.70739e-10
5.73018e-10
5.75189e-10
5.77256e-10
5.79223e-10
5.81094e-10
5.82873e-10
5.84563e-10
5.86169e-10
5.87694e-10
5.89142e-10
5.90516e-10
5.91819e-10
5.93054e-10
5.94225e-10
5.95335e-10
5.96386e-10
5.97381e-10
5.98322e-10
5.99213e-10
6.00056e-10
6.00853e-10
6.01606e-10
6.02317e-10
6.02989e-10
6.03623e-10
6.04222e-10
6.04787e-10
6.0532e-10
6.05822e-10
6.06296e-10
6.06742e-10
6.07162e-10
6.07558e-10
6.0793e-10
6.08281e-10
6.08611e-10
6.08921e-10
6.09212e-10
6.09486e-10
6.09743e-10
6.09985e-10
6.10211e-10
6.10424e-10
6.10624e-10
6.10811e-10
6.10986e-10
6.11151e-10
6.11305e-10
6.11449e-10
6.11584e-10
6.1171e-10
6.11828e-10
6.11939e-10
6.12042e-10
6.12139e-10
6.12229e-10
6.12313e-10
6.12391e-10
6.12465e-10
6.12533e-10
6.12596e-10
6.12656e-10
6.12711e-10
6.12762e-10
6.1281e-10
6.12855e-10
6.12896e-10
6.12935e-10
6.1297e-10
6.13004e-10
6.13034e-10
6.13063e-10
6.13089e-10
6.13114e-10
6.13137e-10
6.13158e-10
6.13177e-10
6.13195e-10
6.13212e-10
6.13227e-10
6.13242e-10
6.13255e-10
6.13267e-10
6.13278e-10
6.13288e-10
6.13297e-10
6.13306e-10
6.13314e-10
6.13321e-10
6.13328e-10
6.13334e-10
6.13339e-10
6.13344e-10
6.13349e-10
6.13353e-10
6.13356e-10
6.13359e-10
6.13363e-10
6.13364e-10
6.13367e-10
6.13368e-10
6.13371e-10
6.1337e-10
6.13373e-10
6.13371e-10
6.13375e-10
6.13371e-10
6.13376e-10
6.1337e-10
6.13376e-10
6.13369e-10
6.13377e-10
6.1337e-10
6.13382e-10
6.13374e-10
6.1339e-10
6.13383e-10
6.13399e-10
6.13394e-10
6.13411e-10
6.13408e-10
6.13419e-10
6.13415e-10
6.13422e-10
6.13418e-10
6.13422e-10
6.13418e-10
6.1342e-10
6.13417e-10
6.13418e-10
6.13415e-10
6.13416e-10
6.13413e-10
6.13414e-10
6.13413e-10
6.13415e-10
6.13421e-10
6.13424e-10
6.1376e-10
6.19795e-10
3.2551e-09
3.29704e-09
3.33758e-09
3.37671e-09
3.41446e-09
3.45082e-09
3.48584e-09
3.51953e-09
3.55193e-09
3.58306e-09
3.61296e-09
3.64165e-09
3.66916e-09
3.69553e-09
3.72078e-09
3.74497e-09
3.7681e-09
3.79022e-09
3.81137e-09
3.83157e-09
3.85085e-09
3.86925e-09
3.88681e-09
3.90354e-09
3.91949e-09
3.93468e-09
3.94914e-09
3.9629e-09
3.97599e-09
3.98844e-09
4.00027e-09
4.01151e-09
4.02218e-09
4.03231e-09
4.04193e-09
4.05105e-09
4.0597e-09
4.0679e-09
4.07567e-09
4.08302e-09
4.08999e-09
4.09658e-09
4.10282e-09
4.10872e-09
4.1143e-09
4.11957e-09
4.12455e-09
4.12926e-09
4.1337e-09
4.13789e-09
4.14185e-09
4.14558e-09
4.1491e-09
4.15241e-09
4.15554e-09
4.15848e-09
4.16125e-09
4.16386e-09
4.16631e-09
4.16862e-09
4.17079e-09
4.17284e-09
4.17475e-09
4.17656e-09
4.17825e-09
4.17984e-09
4.18133e-09
4.18272e-09
4.18403e-09
4.18526e-09
4.18641e-09
4.18749e-09
4.1885e-09
4.18945e-09
4.19033e-09
4.19116e-09
4.19193e-09
4.19266e-09
4.19333e-09
4.19396e-09
4.19455e-09
4.1951e-09
4.19562e-09
4.1961e-09
4.19654e-09
4.19696e-09
4.19734e-09
4.1977e-09
4.19804e-09
4.19835e-09
4.19864e-09
4.19891e-09
4.19916e-09
4.19939e-09
4.19961e-09
4.19981e-09
4.19999e-09
4.20017e-09
4.20033e-09
4.20047e-09
4.20061e-09
4.20074e-09
4.20085e-09
4.20096e-09
4.20106e-09
4.20115e-09
4.20124e-09
4.20131e-09
4.20138e-09
4.20145e-09
4.20151e-09
4.20157e-09
4.20162e-09
4.20166e-09
4.20171e-09
4.20174e-09
4.20178e-09
4.20181e-09
4.20184e-09
4.20186e-09
4.20188e-09
4.20191e-09
4.20192e-09
4.20194e-09
4.20194e-09
4.20197e-09
4.20196e-09
4.20198e-09
4.20197e-09
4.20199e-09
4.20196e-09
4.202e-09
4.20196e-09
4.202e-09
4.20196e-09
4.20201e-09
4.20196e-09
4.20204e-09
4.20199e-09
4.2021e-09
4.20205e-09
4.20216e-09
4.20213e-09
4.20224e-09
4.20222e-09
4.20229e-09
4.20227e-09
4.20232e-09
4.20229e-09
4.20232e-09
4.20229e-09
4.20231e-09
4.20228e-09
4.20229e-09
4.20227e-09
4.20228e-09
4.20226e-09
4.20227e-09
4.20226e-09
4.20227e-09
4.20231e-09
4.20233e-09
4.20459e-09
4.24171e-09
1.25638e-08
1.27239e-08
1.28785e-08
1.30277e-08
1.31715e-08
1.331e-08
1.34433e-08
1.35715e-08
1.36947e-08
1.3813e-08
1.39266e-08
1.40356e-08
1.41401e-08
1.42402e-08
1.4336e-08
1.44277e-08
1.45155e-08
1.45993e-08
1.46795e-08
1.4756e-08
1.4829e-08
1.48987e-08
1.49652e-08
1.50285e-08
1.50888e-08
1.51463e-08
1.5201e-08
1.5253e-08
1.53025e-08
1.53496e-08
1.53943e-08
1.54368e-08
1.54771e-08
1.55154e-08
1.55517e-08
1.55862e-08
1.56189e-08
1.56498e-08
1.56791e-08
1.57069e-08
1.57332e-08
1.57581e-08
1.57816e-08
1.58039e-08
1.5825e-08
1.58449e-08
1.58637e-08
1.58814e-08
1.58982e-08
1.5914e-08
1.59289e-08
1.5943e-08
1.59562e-08
1.59688e-08
1.59805e-08
1.59916e-08
1.60021e-08
1.60119e-08
1.60212e-08
1.60299e-08
1.60381e-08
1.60458e-08
1.6053e-08
1.60598e-08
1.60662e-08
1.60722e-08
1.60778e-08
1.60831e-08
1.6088e-08
1.60926e-08
1.6097e-08
1.61011e-08
1.61049e-08
1.61084e-08
1.61118e-08
1.61149e-08
1.61178e-08
1.61205e-08
1.61231e-08
1.61255e-08
1.61277e-08
1.61297e-08
1.61317e-08
1.61335e-08
1.61352e-08
1.61367e-08
1.61382e-08
1.61396e-08
1.61408e-08
1.6142e-08
1.61431e-08
1.61441e-08
1.6145e-08
1.61459e-08
1.61467e-08
1.61475e-08
1.61482e-08
1.61488e-08
1.61494e-08
1.615e-08
1.61505e-08
1.6151e-08
1.61514e-08
1.61518e-08
1.61522e-08
1.61526e-08
1.61529e-08
1.61532e-08
1.61534e-08
1.61537e-08
1.61539e-08
1.61541e-08
1.61543e-08
1.61545e-08
1.61546e-08
1.61548e-08
1.61549e-08
1.6155e-08
1.61551e-08
1.61552e-08
1.61553e-08
1.61554e-08
1.61555e-08
1.61555e-08
1.61555e-08
1.61556e-08
1.61556e-08
1.61557e-08
1.61556e-08
1.61557e-08
1.61556e-08
1.61558e-08
1.61556e-08
1.61558e-08
1.61556e-08
1.61558e-08
1.61556e-08
1.61559e-08
1.61557e-08
1.61561e-08
1.6156e-08
1.61564e-08
1.61562e-08
1.61567e-08
1.61566e-08
1.61569e-08
1.61568e-08
1.61569e-08
1.61569e-08
1.61569e-08
1.61569e-08
1.61569e-08
1.61568e-08
1.61569e-08
1.61568e-08
1.61568e-08
1.61567e-08
1.61568e-08
1.61567e-08
1.61568e-08
1.61569e-08
1.6157e-08
1.61654e-08
1.62918e-08
3.38169e-08
3.42238e-08
3.46164e-08
3.49946e-08
3.53586e-08
3.57088e-08
3.60454e-08
3.63687e-08
3.6679e-08
3.69767e-08
3.72622e-08
3.75357e-08
3.77977e-08
3.80484e-08
3.82883e-08
3.85176e-08
3.87367e-08
3.8946e-08
3.91459e-08
3.93366e-08
3.95184e-08
3.96918e-08
3.98571e-08
4.00145e-08
4.01643e-08
4.0307e-08
4.04427e-08
4.05717e-08
4.06944e-08
4.08109e-08
4.09216e-08
4.10267e-08
4.11265e-08
4.12212e-08
4.1311e-08
4.13961e-08
4.14768e-08
4.15532e-08
4.16256e-08
4.16942e-08
4.17591e-08
4.18205e-08
4.18785e-08
4.19334e-08
4.19853e-08
4.20343e-08
4.20806e-08
4.21244e-08
4.21657e-08
4.22046e-08
4.22414e-08
4.2276e-08
4.23087e-08
4.23395e-08
4.23685e-08
4.23958e-08
4.24216e-08
4.24458e-08
4.24686e-08
4.249e-08
4.25101e-08
4.25291e-08
4.25469e-08
4.25636e-08
4.25793e-08
4.2594e-08
4.26078e-08
4.26208e-08
4.2633e-08
4.26444e-08
4.2655e-08
4.26651e-08
4.26744e-08
4.26832e-08
4.26914e-08
4.26991e-08
4.27062e-08
4.2713e-08
4.27192e-08
4.27251e-08
4.27305e-08
4.27356e-08
4.27404e-08
4.27448e-08
4.2749e-08
4.27528e-08
4.27564e-08
4.27597e-08
4.27629e-08
4.27657e-08
4.27684e-08
4.27709e-08
4.27733e-08
4.27754e-08
4.27774e-08
4.27793e-08
4.2781e-08
4.27826e-08
4.27841e-08
4.27854e-08
4.27867e-08
4.27879e-08
4.2789e-08
4.279e-08
4.27909e-08
4.27917e-08
4.27925e-08
4.27932e-08
4.27939e-08
4.27945e-08
4.27951e-08
4.27956e-08
4.27961e-08
4.27965e-08
4.27969e-08
4.27972e-08
4.27976e-08
4.27979e-08
4.27981e-08
4.27984e-08
4.27985e-08
4.27988e-08
4.27989e-08
4.27991e-08
4.27991e-08
4.27993e-08
4.27992e-08
4.27995e-08
4.27993e-08
4.27995e-08
4.27993e-08
4.27996e-08
4.27992e-08
4.27996e-08
4.27992e-08
4.27997e-08
4.27993e-08
4.28e-08
4.27995e-08
4.28005e-08
4.28001e-08
4.28011e-08
4.28008e-08
4.28019e-08
4.28017e-08
4.28024e-08
4.28021e-08
4.28026e-08
4.28023e-08
4.28026e-08
4.28023e-08
4.28025e-08
4.28023e-08
4.28023e-08
4.28021e-08
4.28022e-08
4.2802e-08
4.28021e-08
4.2802e-08
4.28021e-08
4.28025e-08
4.28027e-08
4.28234e-08
4.31134e-08
7.0303e-08
7.10579e-08
7.17843e-08
7.24824e-08
7.31528e-08
7.3796e-08
7.4413e-08
7.50044e-08
7.55711e-08
7.61136e-08
7.66328e-08
7.71295e-08
7.76043e-08
7.8058e-08
7.84913e-08
7.89048e-08
7.92994e-08
7.96758e-08
8.00345e-08
8.03764e-08
8.07021e-08
8.10122e-08
8.13074e-08
8.15883e-08
8.18554e-08
8.21094e-08
8.23508e-08
8.25801e-08
8.27979e-08
8.30047e-08
8.3201e-08
8.33873e-08
8.35639e-08
8.37314e-08
8.38901e-08
8.40405e-08
8.4183e-08
8.4318e-08
8.44457e-08
8.45665e-08
8.46809e-08
8.4789e-08
8.48913e-08
8.49879e-08
8.50792e-08
8.51655e-08
8.5247e-08
8.53239e-08
8.53964e-08
8.54649e-08
8.55295e-08
8.55904e-08
8.56478e-08
8.57018e-08
8.57528e-08
8.58008e-08
8.58459e-08
8.58884e-08
8.59284e-08
8.5966e-08
8.60013e-08
8.60345e-08
8.60657e-08
8.6095e-08
8.61226e-08
8.61484e-08
8.61726e-08
8.61954e-08
8.62167e-08
8.62367e-08
8.62554e-08
8.62729e-08
8.62893e-08
8.63047e-08
8.63191e-08
8.63325e-08
8.63451e-08
8.63568e-08
8.63678e-08
8.63781e-08
8.63876e-08
8.63966e-08
8.64049e-08
8.64127e-08
8.64199e-08
8.64267e-08
8.6433e-08
8.64388e-08
8.64443e-08
8.64493e-08
8.64541e-08
8.64584e-08
8.64625e-08
8.64663e-08
8.64698e-08
8.6473e-08
8.64761e-08
8.64789e-08
8.64814e-08
8.64838e-08
8.64861e-08
8.64881e-08
8.649e-08
8.64918e-08
8.64934e-08
8.64949e-08
8.64963e-08
8.64975e-08
8.64987e-08
8.64998e-08
8.65007e-08
8.65016e-08
8.65025e-08
8.65032e-08
8.65039e-08
8.65045e-08
8.65051e-08
8.65056e-08
8.65061e-08
8.65065e-08
8.65068e-08
8.65072e-08
8.65074e-08
8.65077e-08
8.65078e-08
8.65081e-08
8.6508e-08
8.65084e-08
8.65081e-08
8.65086e-08
8.65081e-08
8.65086e-08
8.6508e-08
8.65087e-08
8.65079e-08
8.65088e-08
8.6508e-08
8.65093e-08
8.65085e-08
8.65103e-08
8.65096e-08
8.65113e-08
8.65108e-08
8.65127e-08
8.65124e-08
8.65136e-08
8.65132e-08
8.65139e-08
8.65135e-08
8.65139e-08
8.65135e-08
8.65138e-08
8.65134e-08
8.65135e-08
8.65132e-08
8.65133e-08
8.6513e-08
8.65131e-08
8.6513e-08
8.65131e-08
8.65139e-08
8.65143e-08
8.65508e-08
8.70407e-08
1.19701e-07
1.20771e-07
1.21796e-07
1.22778e-07
1.23717e-07
1.24615e-07
1.25474e-07
1.26295e-07
1.27079e-07
1.27828e-07
1.28542e-07
1.29224e-07
1.29874e-07
1.30494e-07
1.31084e-07
1.31647e-07
1.32184e-07
1.32694e-07
1.3318e-07
1.33643e-07
1.34082e-07
1.34501e-07
1.34898e-07
1.35276e-07
1.35635e-07
1.35976e-07
1.363e-07
1.36607e-07
1.36899e-07
1.37175e-07
1.37437e-07
1.37686e-07
1.37922e-07
1.38145e-07
1.38356e-07
1.38557e-07
1.38746e-07
1.38925e-07
1.39095e-07
1.39256e-07
1.39407e-07
1.39551e-07
1.39687e-07
1.39815e-07
1.39936e-07
1.4005e-07
1.40158e-07
1.4026e-07
1.40356e-07
1.40447e-07
1.40532e-07
1.40613e-07
1.40689e-07
1.4076e-07
1.40828e-07
1.40891e-07
1.40951e-07
1.41007e-07
1.4106e-07
1.41109e-07
1.41156e-07
1.412e-07
1.41241e-07
1.4128e-07
1.41316e-07
1.4135e-07
1.41382e-07
1.41412e-07
1.4144e-07
1.41467e-07
1.41491e-07
1.41515e-07
1.41536e-07
1.41557e-07
1.41576e-07
1.41593e-07
1.4161e-07
1.41625e-07
1.4164e-07
1.41653e-07
1.41666e-07
1.41678e-07
1.41689e-07
1.41699e-07
1.41709e-07
1.41718e-07
1.41726e-07
1.41734e-07
1.41741e-07
1.41747e-07
1.41754e-07
1.4176e-07
1.41765e-07
1.4177e-07
1.41774e-07
1.41779e-07
1.41783e-07
1.41786e-07
1.4179e-07
1.41793e-07
1.41796e-07
1.41799e-07
1.41801e-07
1.41804e-07
1.41806e-07
1.41808e-07
1.41809e-07
1.41811e-07
1.41813e-07
1.41814e-07
1.41815e-07
1.41817e-07
1.41818e-07
1.41819e-07
1.4182e-07
1.4182e-07
1.41821e-07
1.41822e-07
1.41822e-07
1.41823e-07
1.41823e-07
1.41824e-07
1.41824e-07
1.41825e-07
1.41825e-07
1.41825e-07
1.41825e-07
1.41826e-07
1.41825e-07
1.41826e-07
1.41825e-07
1.41826e-07
1.41825e-07
1.41826e-07
1.41825e-07
1.41826e-07
1.41825e-07
1.41827e-07
1.41826e-07
1.41828e-07
1.41827e-07
1.41829e-07
1.41829e-07
1.41831e-07
1.41831e-07
1.41832e-07
1.41832e-07
1.41833e-07
1.41832e-07
1.41833e-07
1.41832e-07
1.41833e-07
1.41832e-07
1.41832e-07
1.41832e-07
1.41832e-07
1.41832e-07
1.41832e-07
1.41832e-07
1.41832e-07
1.41833e-07
1.41833e-07
1.41882e-07
1.42524e-07
1.73581e-07
1.74791e-07
1.75947e-07
1.7705e-07
1.78101e-07
1.79104e-07
1.8006e-07
1.80971e-07
1.81839e-07
1.82665e-07
1.83452e-07
1.84201e-07
1.84913e-07
1.85591e-07
1.86236e-07
1.86849e-07
1.87432e-07
1.87986e-07
1.88512e-07
1.89012e-07
1.89487e-07
1.89938e-07
1.90365e-07
1.90771e-07
1.91157e-07
1.91522e-07
1.91869e-07
1.92197e-07
1.92509e-07
1.92804e-07
1.93083e-07
1.93348e-07
1.93599e-07
1.93836e-07
1.94061e-07
1.94273e-07
1.94474e-07
1.94665e-07
1.94844e-07
1.95014e-07
1.95175e-07
1.95327e-07
1.9547e-07
1.95606e-07
1.95734e-07
1.95854e-07
1.95968e-07
1.96076e-07
1.96177e-07
1.96273e-07
1.96363e-07
1.96448e-07
1.96528e-07
1.96603e-07
1.96674e-07
1.96741e-07
1.96804e-07
1.96863e-07
1.96919e-07
1.96971e-07
1.9702e-07
1.97066e-07
1.9711e-07
1.97151e-07
1.97189e-07
1.97225e-07
1.97258e-07
1.9729e-07
1.97319e-07
1.97347e-07
1.97373e-07
1.97397e-07
1.9742e-07
1.97442e-07
1.97462e-07
1.9748e-07
1.97498e-07
1.97514e-07
1.97529e-07
1.97543e-07
1.97557e-07
1.97569e-07
1.97581e-07
1.97591e-07
1.97601e-07
1.97611e-07
1.9762e-07
1.97628e-07
1.97635e-07
1.97642e-07
1.97649e-07
1.97655e-07
1.97661e-07
1.97666e-07
1.97671e-07
1.97675e-07
1.97679e-07
1.97683e-07
1.97687e-07
1.9769e-07
1.97693e-07
1.97696e-07
1.97699e-07
1.97701e-07
1.97703e-07
1.97706e-07
1.97707e-07
1.97709e-07
1.97711e-07
1.97712e-07
1.97714e-07
1.97715e-07
1.97716e-07
1.97717e-07
1.97718e-07
1.97719e-07
1.9772e-07
1.9772e-07
1.97721e-07
1.97722e-07
1.97722e-07
1.97723e-07
1.97723e-07
1.97723e-07
1.97723e-07
1.97724e-07
1.97724e-07
1.97724e-07
1.97724e-07
1.97725e-07
1.97724e-07
1.97725e-07
1.97724e-07
1.97725e-07
1.97724e-07
1.97725e-07
1.97724e-07
1.97726e-07
1.97724e-07
1.97727e-07
1.97726e-07
1.97729e-07
1.97728e-07
1.97731e-07
1.9773e-07
1.97732e-07
1.97731e-07
1.97732e-07
1.97732e-07
1.97732e-07
1.97732e-07
1.97732e-07
1.97731e-07
1.97732e-07
1.97731e-07
1.97731e-07
1.97731e-07
1.97731e-07
1.97731e-07
1.97731e-07
1.97732e-07
1.97733e-07
1.97784e-07
1.98468e-07
2.22598e-07
2.23738e-07
2.24823e-07
2.25854e-07
2.26835e-07
2.27766e-07
2.28651e-07
2.29492e-07
2.3029e-07
2.31048e-07
2.31768e-07
2.32452e-07
2.33101e-07
2.33717e-07
2.34301e-07
2.34856e-07
2.35382e-07
2.35881e-07
2.36354e-07
2.36803e-07
2.37229e-07
2.37632e-07
2.38014e-07
2.38377e-07
2.3872e-07
2.39045e-07
2.39353e-07
2.39645e-07
2.39921e-07
2.40182e-07
2.4043e-07
2.40664e-07
2.40886e-07
2.41095e-07
2.41293e-07
2.41481e-07
2.41658e-07
2.41825e-07
2.41983e-07
2.42133e-07
2.42274e-07
2.42407e-07
2.42533e-07
2.42652e-07
2.42764e-07
2.4287e-07
2.4297e-07
2.43064e-07
2.43153e-07
2.43237e-07
2.43316e-07
2.4339e-07
2.4346e-07
2.43526e-07
2.43588e-07
2.43647e-07
2.43702e-07
2.43753e-07
2.43802e-07
2.43848e-07
2.43891e-07
2.43931e-07
2.43969e-07
2.44004e-07
2.44038e-07
2.44069e-07
2.44099e-07
2.44126e-07
2.44152e-07
2.44176e-07
2.44199e-07
2.4422e-07
2.4424e-07
2.44259e-07
2.44276e-07
2.44292e-07
2.44307e-07
2.44322e-07
2.44335e-07
2.44347e-07
2.44359e-07
2.4437e-07
2.4438e-07
2.44389e-07
2.44398e-07
2.44406e-07
2.44414e-07
2.44421e-07
2.44427e-07
2.44434e-07
2.44439e-07
2.44445e-07
2.4445e-07
2.44454e-07
2.44458e-07
2.44462e-07
2.44466e-07
2.44469e-07
2.44472e-07
2.44475e-07
2.44478e-07
2.44481e-07
2.44483e-07
2.44485e-07
2.44487e-07
2.44489e-07
2.4449e-07
2.44492e-07
2.44493e-07
2.44495e-07
2.44496e-07
2.44497e-07
2.44498e-07
2.44499e-07
2.445e-07
2.445e-07
2.44501e-07
2.44502e-07
2.44502e-07
2.44503e-07
2.44503e-07
2.44504e-07
2.44504e-07
2.44504e-07
2.44504e-07
2.44505e-07
2.44505e-07
2.44505e-07
2.44505e-07
2.44505e-07
2.44505e-07
2.44505e-07
2.44505e-07
2.44505e-07
2.44504e-07
2.44506e-07
2.44505e-07
2.44506e-07
2.44505e-07
2.44507e-07
2.44507e-07
2.44509e-07
2.44508e-07
2.44511e-07
2.4451e-07
2.44512e-07
2.44511e-07
2.44512e-07
2.44512e-07
2.44512e-07
2.44512e-07
2.44512e-07
2.44511e-07
2.44512e-07
2.44511e-07
2.44511e-07
2.44511e-07
2.44511e-07
2.44511e-07
2.44511e-07
2.44512e-07
2.44513e-07
2.44556e-07
2.45173e-07
2.61028e-07
2.61953e-07
2.62831e-07
2.63663e-07
2.64451e-07
2.65197e-07
2.65903e-07
2.66572e-07
2.67206e-07
2.67807e-07
2.68375e-07
2.68913e-07
2.69423e-07
2.69906e-07
2.70364e-07
2.70797e-07
2.71207e-07
2.71595e-07
2.71963e-07
2.72311e-07
2.7264e-07
2.72952e-07
2.73247e-07
2.73526e-07
2.73791e-07
2.74041e-07
2.74278e-07
2.74501e-07
2.74713e-07
2.74913e-07
2.75103e-07
2.75282e-07
2.75451e-07
2.75611e-07
2.75762e-07
2.75905e-07
2.7604e-07
2.76168e-07
2.76288e-07
2.76402e-07
2.76509e-07
2.7661e-07
2.76706e-07
2.76796e-07
2.76881e-07
2.76962e-07
2.77037e-07
2.77109e-07
2.77176e-07
2.7724e-07
2.77299e-07
2.77356e-07
2.77409e-07
2.77459e-07
2.77506e-07
2.7755e-07
2.77592e-07
2.77631e-07
2.77667e-07
2.77702e-07
2.77735e-07
2.77765e-07
2.77794e-07
2.77821e-07
2.77846e-07
2.7787e-07
2.77892e-07
2.77913e-07
2.77932e-07
2.7795e-07
2.77968e-07
2.77984e-07
2.77999e-07
2.78013e-07
2.78026e-07
2.78038e-07
2.7805e-07
2.7806e-07
2.7807e-07
2.7808e-07
2.78089e-07
2.78097e-07
2.78104e-07
2.78111e-07
2.78118e-07
2.78124e-07
2.7813e-07
2.78135e-07
2.7814e-07
2.78145e-07
2.78149e-07
2.78153e-07
2.78157e-07
2.7816e-07
2.78164e-07
2.78167e-07
2.78169e-07
2.78172e-07
2.78174e-07
2.78176e-07
2.78178e-07
2.7818e-07
2.78182e-07
2.78184e-07
2.78185e-07
2.78186e-07
2.78188e-07
2.78189e-07
2.7819e-07
2.78191e-07
2.78192e-07
2.78193e-07
2.78193e-07
2.78194e-07
2.78195e-07
2.78195e-07
2.78196e-07
2.78196e-07
2.78197e-07
2.78197e-07
2.78197e-07
2.78198e-07
2.78198e-07
2.78198e-07
2.78198e-07
2.78199e-07
2.78198e-07
2.78199e-07
2.78198e-07
2.78199e-07
2.78198e-07
2.78199e-07
2.78198e-07
2.78199e-07
2.78198e-07
2.78199e-07
2.78198e-07
2.782e-07
2.78199e-07
2.78201e-07
2.782e-07
2.78202e-07
2.78201e-07
2.78203e-07
2.78202e-07
2.78204e-07
2.78203e-07
2.78204e-07
2.78204e-07
2.78204e-07
2.78204e-07
2.78204e-07
2.78203e-07
2.78204e-07
2.78203e-07
2.78203e-07
2.78203e-07
2.78203e-07
2.78203e-07
2.78203e-07
2.78204e-07
2.78204e-07
2.78237e-07
2.78698e-07
2.87802e-07
2.8847e-07
2.89101e-07
2.89697e-07
2.9026e-07
2.90791e-07
2.91293e-07
2.91767e-07
2.92215e-07
2.92638e-07
2.93037e-07
2.93415e-07
2.93772e-07
2.9411e-07
2.94429e-07
2.9473e-07
2.95015e-07
2.95285e-07
2.95539e-07
2.9578e-07
2.96008e-07
2.96223e-07
2.96427e-07
2.96619e-07
2.96801e-07
2.96973e-07
2.97135e-07
2.97289e-07
2.97434e-07
2.97571e-07
2.97701e-07
2.97823e-07
2.97939e-07
2.98048e-07
2.98151e-07
2.98248e-07
2.9834e-07
2.98427e-07
2.98509e-07
2.98587e-07
2.9866e-07
2.98729e-07
2.98794e-07
2.98855e-07
2.98913e-07
2.98967e-07
2.99019e-07
2.99067e-07
2.99113e-07
2.99156e-07
2.99197e-07
2.99235e-07
2.99271e-07
2.99305e-07
2.99337e-07
2.99367e-07
2.99395e-07
2.99421e-07
2.99446e-07
2.9947e-07
2.99492e-07
2.99512e-07
2.99532e-07
2.9955e-07
2.99567e-07
2.99583e-07
2.99598e-07
2.99612e-07
2.99626e-07
2.99638e-07
2.9965e-07
2.9966e-07
2.99671e-07
2.9968e-07
2.99689e-07
2.99697e-07
2.99705e-07
2.99712e-07
2.99719e-07
2.99726e-07
2.99732e-07
2.99737e-07
2.99742e-07
2.99747e-07
2.99751e-07
2.99756e-07
2.9976e-07
2.99763e-07
2.99767e-07
2.9977e-07
2.99773e-07
2.99775e-07
2.99778e-07
2.9978e-07
2.99782e-07
2.99784e-07
2.99786e-07
2.99788e-07
2.99789e-07
2.99791e-07
2.99792e-07
2.99794e-07
2.99795e-07
2.99796e-07
2.99797e-07
2.99798e-07
2.99799e-07
2.99799e-07
2.998e-07
2.99801e-07
2.99801e-07
2.99802e-07
2.99802e-07
2.99803e-07
2.99803e-07
2.99804e-07
2.99804e-07
2.99804e-07
2.99805e-07
2.99805e-07
2.99805e-07
2.99805e-07
2.99805e-07
2.99806e-07
2.99806e-07
2.99806e-07
2.99806e-07
2.99806e-07
2.99806e-07
2.99806e-07
2.99806e-07
2.99806e-07
2.99806e-07
2.99806e-07
2.99806e-07
2.99806e-07
2.99806e-07
2.99807e-07
2.99806e-07
2.99807e-07
2.99807e-07
2.99808e-07
2.99807e-07
2.99809e-07
2.99808e-07
2.99809e-07
2.99809e-07
2.9981e-07
2.99809e-07
2.9981e-07
2.99809e-07
2.9981e-07
2.99809e-07
2.99809e-07
2.99809e-07
2.99809e-07
2.99809e-07
2.99809e-07
2.99809e-07
2.99809e-07
2.9981e-07
2.9981e-07
2.99833e-07
3.0006e-07
3.04789e-07
3.05225e-07
3.05637e-07
3.06025e-07
3.0639e-07
3.06734e-07
3.07058e-07
3.07363e-07
3.07651e-07
3.07923e-07
3.08179e-07
3.0842e-07
3.08648e-07
3.08863e-07
3.09066e-07
3.09257e-07
3.09438e-07
3.09609e-07
3.0977e-07
3.09923e-07
3.10066e-07
3.10202e-07
3.1033e-07
3.10452e-07
3.10566e-07
3.10674e-07
3.10776e-07
3.10873e-07
3.10964e-07
3.1105e-07
3.11131e-07
3.11208e-07
3.1128e-07
3.11348e-07
3.11413e-07
3.11474e-07
3.11531e-07
3.11585e-07
3.11637e-07
3.11685e-07
3.11731e-07
3.11774e-07
3.11814e-07
3.11852e-07
3.11888e-07
3.11922e-07
3.11954e-07
3.11985e-07
3.12013e-07
3.1204e-07
3.12065e-07
3.12089e-07
3.12112e-07
3.12133e-07
3.12153e-07
3.12172e-07
3.12189e-07
3.12206e-07
3.12221e-07
3.12236e-07
3.1225e-07
3.12263e-07
3.12275e-07
3.12286e-07
3.12297e-07
3.12307e-07
3.12316e-07
3.12325e-07
3.12333e-07
3.12341e-07
3.12348e-07
3.12355e-07
3.12361e-07
3.12367e-07
3.12373e-07
3.12378e-07
3.12383e-07
3.12387e-07
3.12392e-07
3.12396e-07
3.12399e-07
3.12403e-07
3.12406e-07
3.12409e-07
3.12412e-07
3.12414e-07
3.12417e-07
3.12419e-07
3.12421e-07
3.12423e-07
3.12425e-07
3.12427e-07
3.12428e-07
3.1243e-07
3.12431e-07
3.12432e-07
3.12433e-07
3.12435e-07
3.12436e-07
3.12436e-07
3.12437e-07
3.12438e-07
3.12439e-07
3.12439e-07
3.1244e-07
3.12441e-07
3.12441e-07
3.12442e-07
3.12442e-07
3.12443e-07
3.12443e-07
3.12443e-07
3.12444e-07
3.12444e-07
3.12444e-07
3.12444e-07
3.12445e-07
3.12445e-07
3.12445e-07
3.12445e-07
3.12445e-07
3.12445e-07
3.12445e-07
3.12446e-07
3.12446e-07
3.12446e-07
3.12446e-07
3.12446e-07
3.12446e-07
3.12446e-07
3.12446e-07
3.12446e-07
3.12446e-07
3.12446e-07
3.12446e-07
3.12446e-07
3.12445e-07
3.12446e-07
3.12446e-07
3.12447e-07
3.12446e-07
3.12447e-07
3.12447e-07
3.12448e-07
3.12447e-07
3.12448e-07
3.12448e-07
3.12448e-07
3.12448e-07
3.12448e-07
3.12448e-07
3.12448e-07
3.12448e-07
3.12448e-07
3.12448e-07
3.12448e-07
3.12448e-07
3.12448e-07
3.12448e-07
3.12448e-07
3.12448e-07
3.12448e-07
3.12464e-07
3.12382e-07
3.14711e-07
3.14974e-07
3.15222e-07
3.15454e-07
3.15673e-07
3.15879e-07
3.16072e-07
3.16254e-07
3.16426e-07
3.16587e-07
3.16739e-07
3.16883e-07
3.17018e-07
3.17145e-07
3.17266e-07
3.17379e-07
3.17486e-07
3.17587e-07
3.17682e-07
3.17772e-07
3.17857e-07
3.17937e-07
3.18012e-07
3.18084e-07
3.18151e-07
3.18215e-07
3.18275e-07
3.18332e-07
3.18385e-07
3.18436e-07
3.18484e-07
3.18529e-07
3.18571e-07
3.18612e-07
3.1865e-07
3.18685e-07
3.18719e-07
3.18751e-07
3.18781e-07
3.1881e-07
3.18836e-07
3.18862e-07
3.18885e-07
3.18908e-07
3.18929e-07
3.18949e-07
3.18968e-07
3.18986e-07
3.19003e-07
3.19018e-07
3.19033e-07
3.19047e-07
3.19061e-07
3.19073e-07
3.19085e-07
3.19096e-07
3.19106e-07
3.19116e-07
3.19125e-07
3.19134e-07
3.19142e-07
3.1915e-07
3.19157e-07
3.19164e-07
3.1917e-07
3.19176e-07
3.19182e-07
3.19187e-07
3.19192e-07
3.19196e-07
3.19201e-07
3.19205e-07
3.19208e-07
3.19212e-07
3.19215e-07
3.19218e-07
3.19221e-07
3.19224e-07
3.19226e-07
3.19229e-07
3.19231e-07
3.19233e-07
3.19235e-07
3.19237e-07
3.19238e-07
3.1924e-07
3.19241e-07
3.19243e-07
3.19244e-07
3.19245e-07
3.19246e-07
3.19247e-07
3.19248e-07
3.19249e-07
3.1925e-07
3.19251e-07
3.19251e-07
3.19252e-07
3.19252e-07
3.19253e-07
3.19253e-07
3.19254e-07
3.19254e-07
3.19255e-07
3.19255e-07
3.19255e-07
3.19256e-07
3.19256e-07
3.19256e-07
3.19257e-07
3.19257e-07
3.19257e-07
3.19257e-07
3.19257e-07
3.19258e-07
3.19258e-07
3.19258e-07
3.19258e-07
3.19258e-07
3.19258e-07
3.19258e-07
3.19258e-07
3.19258e-07
3.19258e-07
3.19258e-07
3.19259e-07
3.19258e-07
3.19259e-07
3.19258e-07
3.19259e-07
3.19258e-07
3.19259e-07
3.19258e-07
3.19259e-07
3.19258e-07
3.19259e-07
3.19258e-07
3.19259e-07
3.19258e-07
3.19259e-07
3.19259e-07
3.19259e-07
3.19259e-07
3.1926e-07
3.19259e-07
3.1926e-07
3.19259e-07
3.1926e-07
3.1926e-07
3.1926e-07
3.1926e-07
3.1926e-07
3.1926e-07
3.1926e-07
3.1926e-07
3.1926e-07
3.1926e-07
3.1926e-07
3.1926e-07
3.1926e-07
3.1926e-07
3.1926e-07
3.19271e-07
3.18824e-07
3.22477e-07
3.22578e-07
3.22673e-07
3.22763e-07
3.22847e-07
3.22926e-07
3.23001e-07
3.23071e-07
3.23137e-07
3.23199e-07
3.23258e-07
3.23313e-07
3.23366e-07
3.23415e-07
3.23462e-07
3.23506e-07
3.23547e-07
3.23586e-07
3.23623e-07
3.23659e-07
3.23692e-07
3.23723e-07
3.23753e-07
3.23781e-07
3.23807e-07
3.23832e-07
3.23856e-07
3.23878e-07
3.23899e-07
3.23919e-07
3.23938e-07
3.23956e-07
3.23973e-07
3.23989e-07
3.24004e-07
3.24018e-07
3.24031e-07
3.24044e-07
3.24056e-07
3.24067e-07
3.24078e-07
3.24088e-07
3.24098e-07
3.24107e-07
3.24115e-07
3.24123e-07
3.24131e-07
3.24138e-07
3.24145e-07
3.24151e-07
3.24157e-07
3.24163e-07
3.24168e-07
3.24174e-07
3.24178e-07
3.24183e-07
3.24187e-07
3.24191e-07
3.24195e-07
3.24199e-07
3.24202e-07
3.24205e-07
3.24208e-07
3.24211e-07
3.24213e-07
3.24216e-07
3.24218e-07
3.2422e-07
3.24222e-07
3.24224e-07
3.24226e-07
3.24228e-07
3.24229e-07
3.24231e-07
3.24232e-07
3.24233e-07
3.24235e-07
3.24236e-07
3.24237e-07
3.24238e-07
3.24239e-07
3.24239e-07
3.2424e-07
3.24241e-07
3.24242e-07
3.24242e-07
3.24243e-07
3.24244e-07
3.24244e-07
3.24245e-07
3.24245e-07
3.24245e-07
3.24246e-07
3.24246e-07
3.24246e-07
3.24247e-07
3.24247e-07
3.24247e-07
3.24248e-07
3.24248e-07
3.24248e-07
3.24248e-07
3.24248e-07
3.24248e-07
3.24249e-07
3.24249e-07
3.24249e-07
3.24249e-07
3.24249e-07
3.24249e-07
3.24249e-07
3.24249e-07
3.24249e-07
3.2425e-07
3.2425e-07
3.2425e-07
3.2425e-07
3.2425e-07
3.2425e-07
3.2425e-07
3.2425e-07
3.2425e-07
3.2425e-07
3.2425e-07
3.2425e-07
3.2425e-07
3.2425e-07
3.2425e-07
3.2425e-07
3.2425e-07
3.2425e-07
3.2425e-07
3.2425e-07
3.2425e-07
3.2425e-07
3.2425e-07
3.2425e-07
3.2425e-07
3.2425e-07
3.2425e-07
3.2425e-07
3.24251e-07
3.2425e-07
3.24251e-07
3.2425e-07
3.24251e-07
3.2425e-07
3.24251e-07
3.2425e-07
3.24251e-07
3.2425e-07
3.24251e-07
3.2425e-07
3.24251e-07
3.2425e-07
3.24251e-07