/*--------------------------------*- C++ -*----------------------------------*\
| =========                 |                                                 |
| \\      /  F ield         | OpenFOAM: The Open Source CFD Toolbox           |
|  \\    /   O peration     | Version:  v1912                                 |
|   \\  /    A nd           | Website:  www.openfoam.com                      |
|    \\/     M anipulation  |                                                 |
\*---------------------------------------------------------------------------*/
FoamFile
{
    version     2.0;
    format      ascii;
    class       surfaceScalarField;
    location    "60";
    object      phi;
}
// * * * * * * * * * * * * * * * * * * * * * * * * * * * * * * * * * * * * * //

dimensions      [0 3 -1 0 0 0 0];
oriented        oriented;


internalField   nonuniform List<scalar> 
28285
(
5.23882e-05
2.91126e-06
4.96158e-05
2.77238e-06
4.69766e-05
2.63922e-06
4.4465e-05
2.51162e-06
4.20756e-05
2.38938e-06
3.98033e-05
2.27233e-06
3.76429e-05
2.16031e-06
3.55898e-05
2.05313e-06
3.36392e-05
1.95065e-06
3.17865e-05
1.85268e-06
3.00274e-05
1.75907e-06
2.83578e-05
1.66966e-06
2.67735e-05
1.5843e-06
2.52706e-05
1.50283e-06
2.38455e-05
1.42512e-06
2.24945e-05
1.35101e-06
2.12142e-05
1.28036e-06
2.00011e-05
1.21304e-06
1.88522e-05
1.14892e-06
1.77643e-05
1.08786e-06
1.67346e-05
1.02975e-06
1.57601e-05
9.74445e-07
1.48383e-05
9.21844e-07
1.39665e-05
8.71827e-07
1.31422e-05
8.24283e-07
1.23631e-05
7.79105e-07
1.16269e-05
7.36189e-07
1.09315e-05
6.95435e-07
1.02747e-05
6.56747e-07
9.65468e-06
6.20032e-07
9.06948e-06
5.85199e-07
8.51732e-06
5.52163e-07
7.99648e-06
5.2084e-07
7.50533e-06
4.91152e-07
7.04231e-06
4.63021e-07
6.60594e-06
4.36373e-07
6.1948e-06
4.11139e-07
5.80755e-06
3.87251e-07
5.4429e-06
3.64642e-07
5.09965e-06
3.43253e-07
4.77663e-06
3.23022e-07
4.47274e-06
3.03893e-07
4.18692e-06
2.85812e-07
3.9182e-06
2.68725e-07
3.66561e-06
2.52584e-07
3.42827e-06
2.3734e-07
3.20533e-06
2.22948e-07
2.99596e-06
2.09365e-07
2.79941e-06
1.96549e-07
2.61495e-06
1.84459e-07
2.44189e-06
1.7306e-07
2.27958e-06
1.62314e-07
2.12739e-06
1.52187e-07
1.98475e-06
1.42646e-07
1.85109e-06
1.33661e-07
1.72589e-06
1.25201e-07
1.60865e-06
1.17238e-07
1.4989e-06
1.09746e-07
1.3962e-06
1.02699e-07
1.30013e-06
9.6072e-08
1.21029e-06
8.98426e-08
1.1263e-06
8.39888e-08
1.04781e-06
7.84895e-08
9.74485e-07
7.33251e-08
9.06008e-07
6.84767e-08
8.42081e-07
6.39266e-08
7.82424e-07
5.96577e-08
7.2677e-07
5.5654e-08
6.74869e-07
5.19003e-08
6.26487e-07
4.83823e-08
5.81401e-07
4.50862e-08
5.39402e-07
4.19991e-08
5.00293e-07
3.91088e-08
4.63889e-07
3.64037e-08
4.30017e-07
3.38728e-08
3.98511e-07
3.15057e-08
3.69218e-07
2.92927e-08
3.41994e-07
2.72245e-08
3.16701e-07
2.52923e-08
2.93213e-07
2.34878e-08
2.7141e-07
2.18033e-08
2.51179e-07
2.02313e-08
2.32414e-07
1.8765e-08
2.15016e-07
1.73977e-08
1.98893e-07
1.61232e-08
1.83957e-07
1.49358e-08
1.70127e-07
1.38298e-08
1.57327e-07
1.28003e-08
1.45485e-07
1.18422e-08
1.34534e-07
1.09509e-08
1.24412e-07
1.01223e-08
1.1506e-07
9.35212e-09
1.06423e-07
8.63664e-09
9.84507e-08
7.97226e-09
9.10951e-08
7.35559e-09
8.43116e-08
6.78348e-09
7.80587e-08
6.25295e-09
7.22975e-08
5.76122e-09
6.69918e-08
5.30566e-09
6.2108e-08
4.88383e-09
5.76145e-08
4.49342e-09
5.34823e-08
4.13228e-09
4.96839e-08
3.79841e-09
4.61939e-08
3.48992e-09
4.29889e-08
3.20503e-09
4.00468e-08
2.94212e-09
3.73471e-08
2.69964e-09
3.4871e-08
2.47615e-09
3.26007e-08
2.27033e-09
3.05198e-08
2.08091e-09
2.8613e-08
1.90677e-09
2.68662e-08
1.74678e-09
2.52662e-08
1.60002e-09
2.38007e-08
1.46544e-09
2.24584e-08
1.34239e-09
2.12286e-08
1.22973e-09
2.01013e-08
1.12731e-09
1.90678e-08
1.03353e-09
1.81185e-08
9.49267e-10
1.72469e-08
8.71615e-10
1.64432e-08
8.03657e-10
1.57038e-08
7.39406e-10
1.5017e-08
6.86804e-10
1.43833e-08
6.33707e-10
1.37879e-08
5.95467e-10
1.32376e-08
5.50272e-10
1.27098e-08
5.27794e-10
1.22235e-08
4.86251e-10
1.17425e-08
4.81028e-10
1.1304e-08
4.3847e-10
1.08518e-08
4.52266e-10
1.04502e-08
4.01592e-10
1.00122e-08
4.38031e-10
9.64148e-09
3.70682e-10
9.22074e-09
4.20742e-10
8.88054e-09
3.40196e-10
8.48839e-09
3.92148e-10
8.2037e-09
2.84693e-10
7.86909e-09
3.34613e-10
7.67764e-09
1.91445e-10
7.44749e-09
2.30155e-10
7.36563e-09
8.18545e-11
7.26072e-09
1.04913e-10
7.31187e-09
-5.11497e-11
7.35202e-09
-4.01553e-11
7.5004e-09
-1.48375e-10
7.63097e-09
-1.30573e-10
7.8204e-09
-1.89424e-10
7.98572e-09
-1.65325e-10
8.18214e-09
-1.96415e-10
8.3508e-09
-1.68664e-10
8.53412e-09
-1.83319e-10
8.68937e-09
-1.55245e-10
8.85076e-09
-1.61397e-10
8.98688e-09
-1.36113e-10
9.12559e-09
-1.38711e-10
9.24451e-09
-1.18927e-10
9.36552e-09
-1.21005e-10
9.47902e-09
-1.13504e-10
9.59617e-09
-1.1715e-10
9.77481e-09
-1.78634e-10
9.9657e-09
-1.90891e-10
1.28189e-08
-2.85325e-09
-2.8541e-09
5.23042e-05
5.81815e-06
4.9536e-05
5.54056e-06
4.69008e-05
5.27443e-06
4.43931e-05
5.01939e-06
4.20073e-05
4.77508e-06
3.97385e-05
4.54116e-06
3.75816e-05
4.31727e-06
3.55316e-05
4.10307e-06
3.3584e-05
3.89824e-06
3.17343e-05
3.70244e-06
2.9978e-05
3.51536e-06
2.8311e-05
3.33667e-06
2.67292e-05
3.16608e-06
2.52287e-05
3.00327e-06
2.38059e-05
2.84795e-06
2.24571e-05
2.69985e-06
2.11788e-05
2.55866e-06
1.99677e-05
2.42413e-06
1.88206e-05
2.29598e-06
1.77345e-05
2.17396e-06
1.67064e-05
2.05782e-06
1.57336e-05
1.9473e-06
1.48132e-05
1.84218e-06
1.39428e-05
1.74223e-06
1.31199e-05
1.64722e-06
1.23421e-05
1.55693e-06
1.16071e-05
1.47117e-06
1.09128e-05
1.38972e-06
1.02572e-05
1.31241e-06
9.63815e-06
1.23904e-06
9.05392e-06
1.16943e-06
8.50267e-06
1.10341e-06
7.98269e-06
1.04082e-06
7.49236e-06
9.81486e-07
7.03011e-06
9.2527e-07
6.59447e-06
8.72018e-07
6.18401e-06
8.21591e-07
5.79741e-06
7.73853e-07
5.43338e-06
7.28674e-07
5.0907e-06
6.8593e-07
4.76823e-06
6.45501e-07
4.46484e-06
6.07275e-07
4.17951e-06
5.71142e-07
3.91124e-06
5.36997e-07
3.65908e-06
5.04741e-07
3.42215e-06
4.74279e-07
3.19958e-06
4.45519e-07
2.99057e-06
4.18375e-07
2.79435e-06
3.92764e-07
2.6102e-06
3.68606e-07
2.43744e-06
3.45825e-07
2.2754e-06
3.24351e-07
2.12347e-06
3.04114e-07
1.98107e-06
2.85049e-07
1.84764e-06
2.67093e-07
1.72265e-06
2.50188e-07
1.60561e-06
2.34276e-07
1.49606e-06
2.19304e-07
1.39353e-06
2.05221e-07
1.29763e-06
1.91979e-07
1.20794e-06
1.79531e-07
1.12409e-06
1.67833e-07
1.04574e-06
1.56844e-07
9.72539e-07
1.46524e-07
9.04181e-07
1.36835e-07
8.40364e-07
1.27743e-07
7.8081e-07
1.19212e-07
7.25252e-07
1.11212e-07
6.73442e-07
1.03711e-07
6.25143e-07
9.66807e-08
5.80135e-07
9.00942e-08
5.38209e-07
8.39253e-08
4.99168e-07
7.81496e-08
4.62828e-07
7.27441e-08
4.29014e-07
6.76866e-08
3.97563e-07
6.29566e-08
3.68321e-07
5.85344e-08
3.41144e-07
5.44015e-08
3.15896e-07
5.05404e-08
2.9245e-07
4.69346e-08
2.70684e-07
4.35684e-08
2.50489e-07
4.04272e-08
2.31756e-07
3.7497e-08
2.14389e-07
3.47648e-08
1.98294e-07
3.22181e-08
1.83385e-07
2.98452e-08
1.6958e-07
2.76353e-08
1.56802e-07
2.5578e-08
1.44981e-07
2.36634e-08
1.34049e-07
2.18825e-08
1.23945e-07
2.02267e-08
1.14609e-07
1.86877e-08
1.05988e-07
1.7258e-08
9.80296e-08
1.59304e-08
9.06871e-08
1.46981e-08
8.39157e-08
1.35549e-08
7.76739e-08
1.24948e-08
7.19229e-08
1.15122e-08
6.66267e-08
1.06019e-08
6.17516e-08
9.75893e-09
5.72662e-08
8.9788e-09
5.31413e-08
8.25717e-09
4.93497e-08
7.59002e-09
4.58661e-08
6.97358e-09
4.26668e-08
6.40432e-09
3.973e-08
5.87896e-09
3.70352e-08
5.39443e-09
3.45635e-08
4.94785e-09
3.22972e-08
4.53657e-09
3.022e-08
4.15808e-09
2.83167e-08
3.81011e-09
2.65731e-08
3.49042e-09
2.49759e-08
3.19716e-09
2.35131e-08
2.92825e-09
2.21731e-08
2.68237e-09
2.09456e-08
2.45727e-09
1.98203e-08
2.25261e-09
1.87886e-08
2.06526e-09
1.7841e-08
1.89684e-09
1.69709e-08
1.74176e-09
1.61686e-08
1.60586e-09
1.54303e-08
1.47772e-09
1.47449e-08
1.37227e-09
1.41119e-08
1.26671e-09
1.35177e-08
1.18961e-09
1.29679e-08
1.10013e-09
1.24413e-08
1.05431e-09
1.19553e-08
9.72321e-10
1.14755e-08
9.60822e-10
1.1037e-08
8.76959e-10
1.05859e-08
9.0332e-10
1.01842e-08
8.03381e-10
9.74735e-09
8.74833e-10
9.37633e-09
7.41703e-10
8.95683e-09
8.40238e-10
8.61622e-09
6.80808e-10
8.22535e-09
7.83019e-10
7.94022e-09
5.69823e-10
7.60691e-09
6.67923e-10
7.41505e-09
3.83304e-10
7.18615e-09
4.59052e-10
7.10385e-09
1.64159e-10
7.00013e-09
2.0863e-10
7.05085e-09
-1.01871e-10
7.09201e-09
-8.13172e-11
7.23982e-09
-2.96178e-10
7.37116e-09
-2.61915e-10
7.55993e-09
-3.78192e-10
7.72585e-09
-3.31252e-10
7.9216e-09
-3.92162e-10
8.09075e-09
-3.37813e-10
8.27343e-09
-3.65998e-10
8.42908e-09
-3.10899e-10
8.58989e-09
-3.22202e-10
8.72636e-09
-2.7259e-10
8.86454e-09
-2.76884e-10
8.98381e-09
-2.38203e-10
9.10433e-09
-2.41523e-10
9.2182e-09
-2.27376e-10
9.335e-09
-2.33948e-10
9.51392e-09
-3.57551e-10
9.70874e-09
-3.85712e-10
1.2552e-08
-5.69648e-09
-5.69481e-09
5.22555e-05
8.72237e-06
4.94899e-05
8.30621e-06
4.68571e-05
7.90722e-06
4.43516e-05
7.52487e-06
4.19681e-05
7.1586e-06
3.97013e-05
6.8079e-06
3.75464e-05
6.47225e-06
3.54983e-05
6.15113e-06
3.35525e-05
5.84405e-06
3.17044e-05
5.55051e-06
2.99497e-05
5.27004e-06
2.82842e-05
5.00216e-06
2.67039e-05
4.74641e-06
2.52049e-05
4.50233e-06
2.37833e-05
4.26949e-06
2.24357e-05
4.04745e-06
2.11586e-05
3.83579e-06
1.99486e-05
3.63411e-06
1.88026e-05
3.44199e-06
1.77175e-05
3.25907e-06
1.66904e-05
3.08495e-06
1.57184e-05
2.91927e-06
1.47989e-05
2.76168e-06
1.39293e-05
2.61183e-06
1.31071e-05
2.46939e-06
1.233e-05
2.33404e-06
1.15957e-05
2.20547e-06
1.09021e-05
2.08337e-06
1.0247e-05
1.96747e-06
9.62859e-06
1.85747e-06
9.0449e-06
1.75312e-06
8.49416e-06
1.65415e-06
7.97467e-06
1.56031e-06
7.48479e-06
1.47137e-06
7.02297e-06
1.38709e-06
6.58773e-06
1.30726e-06
6.17766e-06
1.23166e-06
5.79141e-06
1.1601e-06
5.42772e-06
1.09237e-06
5.08536e-06
1.02829e-06
4.76319e-06
9.6768e-07
4.46009e-06
9.10374e-07
4.17502e-06
8.56205e-07
3.907e-06
8.05018e-07
3.65508e-06
7.56662e-07
3.41837e-06
7.10995e-07
3.196e-06
6.67881e-07
2.98719e-06
6.27189e-07
2.79116e-06
5.88794e-07
2.60719e-06
5.52578e-07
2.43459e-06
5.18428e-07
2.2727e-06
4.86236e-07
2.12092e-06
4.55898e-07
1.97865e-06
4.27317e-07
1.84534e-06
4.00399e-07
1.72048e-06
3.75056e-07
1.60355e-06
3.51202e-07
1.4941e-06
3.28758e-07
1.39167e-06
3.07646e-07
1.29585e-06
2.87795e-07
1.20625e-06
2.69134e-07
1.12249e-06
2.51597e-07
1.04421e-06
2.35123e-07
9.7108e-07
2.19653e-07
9.02787e-07
2.05128e-07
8.39032e-07
1.91498e-07
7.79535e-07
1.78709e-07
7.24031e-07
1.66716e-07
6.72271e-07
1.55471e-07
6.24019e-07
1.44932e-07
5.79055e-07
1.35058e-07
5.37169e-07
1.25811e-07
4.98166e-07
1.17152e-07
4.61862e-07
1.09049e-07
4.28081e-07
1.01467e-07
3.96661e-07
9.43766e-08
3.67448e-07
8.77473e-08
3.40297e-07
8.15518e-08
3.15074e-07
7.57637e-08
2.91651e-07
7.03582e-08
2.69907e-07
6.53121e-08
2.49731e-07
6.06031e-08
2.31018e-07
5.62105e-08
2.13668e-07
5.21147e-08
1.97589e-07
4.82969e-08
1.82694e-07
4.47399e-08
1.68902e-07
4.1427e-08
1.56138e-07
3.83429e-08
1.44328e-07
3.54728e-08
1.33407e-07
3.28031e-08
1.23313e-07
3.03209e-08
1.13987e-07
2.80138e-08
1.05374e-07
2.58706e-08
9.74244e-08
2.38804e-08
9.00893e-08
2.20332e-08
8.33248e-08
2.03194e-08
7.70893e-08
1.87302e-08
7.13442e-08
1.72573e-08
6.60535e-08
1.58926e-08
6.11833e-08
1.4629e-08
5.67026e-08
1.34596e-08
5.25819e-08
1.23778e-08
4.87942e-08
1.13777e-08
4.53141e-08
1.04536e-08
4.21182e-08
9.6003e-09
3.91844e-08
8.81276e-09
3.64924e-08
8.08642e-09
3.40232e-08
7.41698e-09
3.17593e-08
6.80047e-09
2.96843e-08
6.23309e-09
2.7783e-08
5.71147e-09
2.60411e-08
5.23225e-09
2.44457e-08
4.79264e-09
2.29844e-08
4.38953e-09
2.16458e-08
4.02095e-09
2.04195e-08
3.68354e-09
1.92954e-08
3.37675e-09
1.82647e-08
3.09593e-09
1.73181e-08
2.84343e-09
1.64488e-08
2.61104e-09
1.56475e-08
2.40724e-09
1.49098e-08
2.21533e-09
1.42251e-08
2.05703e-09
1.35926e-08
1.89917e-09
1.29991e-08
1.78311e-09
1.24496e-08
1.64961e-09
1.19238e-08
1.5802e-09
1.14379e-08
1.45821e-09
1.09587e-08
1.43995e-09
1.05202e-08
1.31547e-09
1.00699e-08
1.35362e-09
9.6679e-09
1.20542e-09
9.23201e-09
1.31072e-09
8.86052e-09
1.11319e-09
8.44209e-09
1.25866e-09
8.10087e-09
1.02203e-09
7.71121e-09
1.17268e-09
7.42539e-09
8.55641e-10
7.09342e-09
9.99895e-10
6.90087e-09
5.75856e-10
6.67334e-09
6.86581e-10
6.59031e-09
2.47185e-10
6.48793e-09
3.11012e-10
6.53801e-09
-1.51948e-10
6.58028e-09
-1.23595e-10
6.72738e-09
-4.43274e-10
6.85956e-09
-3.94094e-10
7.04763e-09
-5.66265e-10
7.21415e-09
-4.97774e-10
7.40928e-09
-5.87292e-10
7.57884e-09
-5.0737e-10
7.761e-09
-5.48157e-10
7.91693e-09
-4.66828e-10
8.07731e-09
-4.82585e-10
8.21398e-09
-4.09258e-10
8.35181e-09
-4.14717e-10
8.47124e-09
-3.57631e-10
8.59149e-09
-3.61769e-10
8.70551e-09
-3.41398e-10
8.82217e-09
-3.50604e-10
9.001e-09
-5.36391e-10
9.19907e-09
-5.83778e-10
1.20024e-08
-8.49978e-09
-8.49575e-09
5.22253e-05
1.16249e-05
4.94612e-05
1.10703e-05
4.68299e-05
1.05385e-05
4.43258e-05
1.00289e-05
4.19437e-05
9.54077e-06
3.96782e-05
9.07337e-06
3.75244e-05
8.62601e-06
3.54775e-05
8.19804e-06
3.35328e-05
7.78877e-06
3.16858e-05
7.39755e-06
2.99321e-05
7.02374e-06
2.82675e-05
6.66672e-06
2.66881e-05
6.32585e-06
2.51898e-05
6.00056e-06
2.37691e-05
5.69023e-06
2.24222e-05
5.3943e-06
2.11458e-05
5.11221e-06
1.99365e-05
4.84341e-06
1.87912e-05
4.58736e-06
1.77067e-05
4.34356e-06
1.66801e-05
4.1115e-06
1.57087e-05
3.89069e-06
1.47897e-05
3.68066e-06
1.39206e-05
3.48094e-06
1.30989e-05
3.2911e-06
1.23222e-05
3.11071e-06
1.15883e-05
2.93936e-06
1.08951e-05
2.77663e-06
1.02404e-05
2.62216e-06
9.62229e-06
2.47556e-06
9.03893e-06
2.33648e-06
8.4885e-06
2.20457e-06
7.9693e-06
2.07951e-06
7.4797e-06
1.96097e-06
7.01814e-06
1.84865e-06
6.58315e-06
1.74225e-06
6.17331e-06
1.6415e-06
5.78728e-06
1.54612e-06
5.4238e-06
1.45585e-06
5.08164e-06
1.37045e-06
4.75964e-06
1.28967e-06
4.45672e-06
1.2133e-06
4.17182e-06
1.1411e-06
3.90395e-06
1.07288e-06
3.65218e-06
1.00844e-06
3.4156e-06
9.47576e-07
3.19336e-06
8.90114e-07
2.98467e-06
8.35882e-07
2.78875e-06
7.84711e-07
2.60489e-06
7.36444e-07
2.43238e-06
6.9093e-07
2.27059e-06
6.48026e-07
2.1189e-06
6.07593e-07
1.97671e-06
5.69501e-07
1.84349e-06
5.33627e-07
1.71869e-06
4.99851e-07
1.60183e-06
4.6806e-07
1.49244e-06
4.38147e-07
1.39008e-06
4.10011e-07
1.29432e-06
3.83554e-07
1.20477e-06
3.58683e-07
1.12106e-06
3.35312e-07
1.04282e-06
3.13356e-07
9.6974e-07
2.92737e-07
9.01488e-07
2.7338e-07
8.37772e-07
2.55214e-07
7.7831e-07
2.38171e-07
7.2284e-07
2.22186e-07
6.71111e-07
2.072e-07
6.22888e-07
1.93155e-07
5.77951e-07
1.79995e-07
5.36091e-07
1.67671e-07
4.97112e-07
1.56131e-07
4.6083e-07
1.45332e-07
4.2707e-07
1.35227e-07
3.95669e-07
1.25777e-07
3.66474e-07
1.16942e-07
3.3934e-07
1.08685e-07
3.14133e-07
1.00971e-07
2.90724e-07
9.37673e-08
2.68994e-07
8.70422e-08
2.4883e-07
8.07664e-08
2.30129e-07
7.49123e-08
2.1279e-07
6.94536e-08
1.96721e-07
6.43656e-08
1.81836e-07
5.96251e-08
1.68053e-07
5.521e-08
1.55296e-07
5.10997e-08
1.43494e-07
4.72747e-08
1.3258e-07
4.37168e-08
1.22493e-07
4.04086e-08
1.13172e-07
3.7334e-08
1.04565e-07
3.44777e-08
9.66205e-08
3.18253e-08
8.92902e-08
2.93635e-08
8.253e-08
2.70796e-08
7.62986e-08
2.49616e-08
7.05573e-08
2.29986e-08
6.527e-08
2.118e-08
6.04031e-08
1.94959e-08
5.59252e-08
1.79374e-08
5.18073e-08
1.64957e-08
4.80221e-08
1.51629e-08
4.45444e-08
1.39314e-08
4.13505e-08
1.27941e-08
3.84187e-08
1.17446e-08
3.57285e-08
1.07766e-08
3.3261e-08
9.88445e-09
3.09987e-08
9.06283e-09
2.89251e-08
8.3067e-09
2.7025e-08
7.61154e-09
2.52843e-08
6.97289e-09
2.36899e-08
6.38703e-09
2.22296e-08
5.84984e-09
2.0892e-08
5.35864e-09
1.96665e-08
4.90899e-09
1.85431e-08
4.50012e-09
1.75131e-08
4.12592e-09
1.65672e-08
3.78938e-09
1.56985e-08
3.47977e-09
1.48976e-08
3.20807e-09
1.41604e-08
2.95252e-09
1.34762e-08
2.7413e-09
1.2844e-08
2.53133e-09
1.2251e-08
2.37614e-09
1.17017e-08
2.19895e-09
1.11763e-08
2.10556e-09
1.06903e-08
1.94417e-09
1.02119e-08
1.91842e-09
9.77303e-09
1.7543e-09
9.32358e-09
1.80306e-09
8.92092e-09
1.60807e-09
8.48616e-09
1.74548e-09
8.11373e-09
1.48562e-09
7.69669e-09
1.6757e-09
7.35432e-09
1.36441e-09
6.96626e-09
1.56073e-09
6.67917e-09
1.14273e-09
6.34899e-09
1.33008e-09
6.15513e-09
7.69715e-10
5.92945e-09
9.12254e-10
5.84511e-09
3.31532e-10
5.74456e-09
4.11555e-10
5.79346e-09
-2.00843e-10
5.83736e-09
-1.67496e-10
5.9833e-09
-5.89215e-10
6.11676e-09
-5.2755e-10
6.30377e-09
-7.53278e-10
6.47124e-09
-6.65249e-10
6.66547e-09
-7.81516e-10
6.83571e-09
-6.77616e-10
7.01713e-09
-7.29575e-10
7.17355e-09
-6.23245e-10
7.33334e-09
-6.42379e-10
7.47036e-09
-5.4628e-10
7.60773e-09
-5.52081e-10
7.72744e-09
-4.77341e-10
7.8473e-09
-4.81631e-10
7.96159e-09
-4.55689e-10
8.07801e-09
-4.67017e-10
8.25678e-09
-7.15162e-10
8.45719e-09
-7.84192e-10
1.11649e-08
-1.12075e-08
-1.12024e-08
5.22039e-05
1.45264e-05
4.94409e-05
1.38333e-05
4.68107e-05
1.31688e-05
4.43076e-05
1.2532e-05
4.19263e-05
1.1922e-05
3.96617e-05
1.1338e-05
3.75088e-05
1.0779e-05
3.54627e-05
1.02442e-05
3.35187e-05
9.73274e-06
3.16724e-05
9.24387e-06
2.99194e-05
8.77677e-06
2.82554e-05
8.33063e-06
2.66766e-05
7.90469e-06
2.51789e-05
7.4982e-06
2.37588e-05
7.11042e-06
2.24124e-05
6.74063e-06
2.11365e-05
6.38813e-06
1.99277e-05
6.05224e-06
1.87827e-05
5.73229e-06
1.76987e-05
5.42764e-06
1.66725e-05
5.13766e-06
1.57015e-05
4.86173e-06
1.47828e-05
4.59928e-06
1.39141e-05
4.34972e-06
1.30927e-05
4.1125e-06
1.23163e-05
3.88708e-06
1.15827e-05
3.67296e-06
1.08897e-05
3.46962e-06
1.02353e-05
3.27659e-06
9.61742e-06
3.0934e-06
9.03429e-06
2.91961e-06
8.48408e-06
2.75478e-06
7.96509e-06
2.5985e-06
7.47568e-06
2.45038e-06
7.0143e-06
2.31002e-06
6.57948e-06
2.17707e-06
6.16981e-06
2.05117e-06
5.78394e-06
1.93199e-06
5.4206e-06
1.81919e-06
5.07857e-06
1.71247e-06
4.75671e-06
1.61154e-06
4.4539e-06
1.5161e-06
4.16912e-06
1.42589e-06
3.90136e-06
1.34064e-06
3.64969e-06
1.26011e-06
3.4132e-06
1.18406e-06
3.19106e-06
1.11226e-06
2.98245e-06
1.04449e-06
2.78662e-06
9.80547e-07
2.60282e-06
9.20234e-07
2.43039e-06
8.63361e-07
2.26867e-06
8.09749e-07
2.11704e-06
7.59225e-07
1.97491e-06
7.11627e-07
1.84174e-06
6.66799e-07
1.717e-06
6.24593e-07
1.60019e-06
5.84868e-07
1.49085e-06
5.47491e-07
1.38853e-06
5.12332e-07
1.29281e-06
4.79272e-07
1.2033e-06
4.48194e-07
1.11962e-06
4.1899e-07
1.04142e-06
3.91555e-07
9.68364e-07
3.65791e-07
9.00142e-07
3.41603e-07
8.36453e-07
3.18903e-07
7.77017e-07
2.97606e-07
7.21571e-07
2.77633e-07
6.69864e-07
2.58907e-07
6.21663e-07
2.41356e-07
5.76746e-07
2.24913e-07
5.34904e-07
2.09512e-07
4.95943e-07
1.95093e-07
4.59676e-07
1.81598e-07
4.25931e-07
1.68972e-07
3.94544e-07
1.57164e-07
3.65362e-07
1.46124e-07
3.38241e-07
1.35807e-07
3.13045e-07
1.26167e-07
2.89646e-07
1.17166e-07
2.67926e-07
1.08762e-07
2.47772e-07
1.0092e-07
2.29079e-07
9.36055e-08
2.11748e-07
8.67846e-08
1.95687e-07
8.04269e-08
1.80808e-07
7.45034e-08
1.67032e-07
6.89865e-08
1.54281e-07
6.38505e-08
1.42485e-07
5.90711e-08
1.31576e-07
5.46253e-08
1.21493e-07
5.04916e-08
1.12178e-07
4.66497e-08
1.03575e-07
4.30806e-08
9.56335e-08
3.97665e-08
8.83067e-08
3.66903e-08
8.15498e-08
3.38365e-08
7.53214e-08
3.119e-08
6.95829e-08
2.87371e-08
6.42982e-08
2.64647e-08
5.94336e-08
2.43605e-08
5.4958e-08
2.2413e-08
5.08421e-08
2.06116e-08
4.70588e-08
1.89462e-08
4.35828e-08
1.74074e-08
4.03906e-08
1.59864e-08
3.74602e-08
1.4675e-08
3.47714e-08
1.34654e-08
3.23051e-08
1.23507e-08
3.00439e-08
1.13241e-08
2.79713e-08
1.03793e-08
2.60722e-08
9.51065e-09
2.43325e-08
8.71265e-09
2.27389e-08
7.98062e-09
2.12793e-08
7.3094e-09
1.99423e-08
6.69563e-09
1.87175e-08
6.13382e-09
1.75947e-08
5.62292e-09
1.65652e-08
5.1554e-09
1.56198e-08
4.73484e-09
1.47514e-08
4.3481e-09
1.3951e-08
4.00846e-09
1.32141e-08
3.68942e-09
1.25303e-08
3.42516e-09
1.18983e-08
3.16332e-09
1.13057e-08
2.96875e-09
1.07563e-08
2.74831e-09
1.02315e-08
2.63038e-09
9.74526e-09
2.4304e-09
9.26753e-09
2.39615e-09
8.82813e-09
2.1937e-09
8.37969e-09
2.2515e-09
7.97608e-09
2.01168e-09
7.54271e-09
2.17885e-09
7.16891e-09
1.85941e-09
6.75363e-09
2.09098e-09
6.40959e-09
1.70846e-09
6.02359e-09
1.94673e-09
5.73465e-09
1.43168e-09
5.40677e-09
1.65795e-09
5.21099e-09
9.65504e-10
4.98774e-09
1.1355e-09
4.90145e-09
4.17822e-10
4.80333e-09
5.09683e-10
4.85046e-09
-2.4798e-10
4.89652e-09
-2.13553e-10
5.04082e-09
-7.33519e-10
5.17603e-09
-6.6276e-10
5.36159e-09
-9.38835e-10
5.5304e-09
-8.3406e-10
5.72341e-09
-9.74527e-10
5.89465e-09
-8.48848e-10
6.07509e-09
-9.1002e-10
6.23222e-09
-7.80378e-10
6.39125e-09
-8.01409e-10
6.52881e-09
-6.83831e-10
6.66556e-09
-6.88839e-10
6.7857e-09
-5.97477e-10
6.90506e-09
-6.00994e-10
7.01975e-09
-5.70376e-10
7.1358e-09
-5.83066e-10
7.31446e-09
-8.93828e-10
7.51614e-09
-9.85868e-10
1.00449e-08
-1.37363e-08
-1.37304e-08
5.21869e-05
1.74269e-05
4.94248e-05
1.65955e-05
4.67953e-05
1.57983e-05
4.42929e-05
1.50344e-05
4.19124e-05
1.43026e-05
3.96484e-05
1.36019e-05
3.74961e-05
1.29313e-05
3.54506e-05
1.22897e-05
3.35072e-05
1.16761e-05
3.16615e-05
1.10897e-05
2.9909e-05
1.05293e-05
2.82455e-05
9.99405e-06
2.66672e-05
9.48306e-06
2.517e-05
8.9954e-06
2.37502e-05
8.53019e-06
2.24043e-05
8.08656e-06
2.11287e-05
7.66367e-06
1.99203e-05
7.26071e-06
1.87757e-05
6.87688e-06
1.76919e-05
6.51139e-06
1.66661e-05
6.1635e-06
1.56953e-05
5.83248e-06
1.4777e-05
5.51762e-06
1.39085e-05
5.21823e-06
1.30873e-05
4.93364e-06
1.23112e-05
4.66322e-06
1.15778e-05
4.40634e-06
1.08851e-05
4.1624e-06
1.02308e-05
3.93082e-06
9.61317e-06
3.71105e-06
9.03022e-06
3.50256e-06
8.48018e-06
3.30482e-06
7.96135e-06
3.11734e-06
7.4721e-06
2.93963e-06
7.01087e-06
2.77125e-06
6.57618e-06
2.61176e-06
6.16664e-06
2.46072e-06
5.78089e-06
2.31773e-06
5.41767e-06
2.18241e-06
5.07575e-06
2.05439e-06
4.75399e-06
1.9333e-06
4.45129e-06
1.81881e-06
4.1666e-06
1.71058e-06
3.89892e-06
1.60831e-06
3.64733e-06
1.5117e-06
3.41093e-06
1.42047e-06
3.18886e-06
1.33433e-06
2.98032e-06
1.25303e-06
2.78455e-06
1.17632e-06
2.60082e-06
1.10396e-06
2.42844e-06
1.03573e-06
2.26677e-06
9.71418e-07
2.11519e-06
9.10806e-07
1.97312e-06
8.53705e-07
1.83999e-06
7.99926e-07
1.71529e-06
7.49293e-07
1.59852e-06
7.01637e-07
1.48921e-06
6.56796e-07
1.38693e-06
6.14618e-07
1.29124e-06
5.74957e-07
1.20176e-06
5.37674e-07
1.11811e-06
5.02639e-07
1.03994e-06
4.69727e-07
9.66915e-07
4.38819e-07
8.98716e-07
4.09802e-07
8.3505e-07
3.82569e-07
7.75636e-07
3.57021e-07
7.20209e-07
3.33059e-07
6.68521e-07
3.10595e-07
6.20337e-07
2.8954e-07
5.75436e-07
2.69814e-07
5.3361e-07
2.51338e-07
4.94663e-07
2.34041e-07
4.5841e-07
2.17852e-07
4.24677e-07
2.02705e-07
3.93302e-07
1.88539e-07
3.64131e-07
1.75295e-07
3.3702e-07
1.62918e-07
3.11833e-07
1.51354e-07
2.88444e-07
1.40555e-07
2.66732e-07
1.30474e-07
2.46585e-07
1.21067e-07
2.27899e-07
1.12292e-07
2.10575e-07
1.04109e-07
1.9452e-07
9.6482e-08
1.79647e-07
8.93759e-08
1.65876e-07
8.27577e-08
1.5313e-07
7.65963e-08
1.41339e-07
7.08628e-08
1.30434e-07
6.55294e-08
1.20356e-07
6.05705e-08
1.11044e-07
5.59617e-08
1.02444e-07
5.16801e-08
9.45061e-08
4.77044e-08
8.71823e-08
4.40142e-08
8.04282e-08
4.05906e-08
7.42024e-08
3.74159e-08
6.84662e-08
3.44733e-08
6.31837e-08
3.17472e-08
5.83212e-08
2.9223e-08
5.38474e-08
2.68868e-08
4.97333e-08
2.47258e-08
4.59515e-08
2.27279e-08
4.2477e-08
2.0882e-08
3.92861e-08
1.91773e-08
3.6357e-08
1.76041e-08
3.36693e-08
1.61531e-08
3.12042e-08
1.48158e-08
2.89439e-08
1.35843e-08
2.68723e-08
1.24509e-08
2.4974e-08
1.14089e-08
2.3235e-08
1.04517e-08
2.16421e-08
9.5735e-09
2.01832e-08
8.76832e-09
1.88468e-08
8.03204e-09
1.76225e-08
7.35812e-09
1.65002e-08
6.74521e-09
1.54711e-08
6.18445e-09
1.45261e-08
5.67988e-09
1.36581e-08
5.2161e-09
1.28581e-08
4.80847e-09
1.21214e-08
4.42611e-09
1.14379e-08
4.10864e-09
1.0806e-08
3.79521e-09
1.02139e-08
3.56092e-09
9.66438e-09
3.29778e-09
9.14014e-09
3.15462e-09
8.65351e-09
2.91703e-09
8.17662e-09
2.87305e-09
7.73644e-09
2.63388e-09
7.28919e-09
2.69875e-09
6.88433e-09
2.41654e-09
6.45265e-09
2.61054e-09
6.07708e-09
2.23498e-09
5.66396e-09
2.50411e-09
5.31774e-09
2.05467e-09
4.9343e-09
2.33017e-09
4.64292e-09
1.72306e-09
4.31793e-09
1.98294e-09
4.11957e-09
1.16387e-09
3.89941e-09
1.35566e-09
3.81053e-09
5.067e-10
3.71547e-09
6.0474e-10
3.76023e-09
-2.92738e-10
3.80905e-09
-2.62371e-10
3.95116e-09
-8.75626e-10
4.08863e-09
-8.00233e-10
4.27229e-09
-1.1225e-09
4.44285e-09
-1.00462e-09
4.63431e-09
-1.16599e-09
4.80685e-09
-1.02139e-09
4.98607e-09
-1.08924e-09
5.14417e-09
-9.38473e-10
5.30224e-09
-9.59486e-10
5.44051e-09
-8.221e-10
5.57652e-09
-8.24846e-10
5.69723e-09
-7.18192e-10
5.81598e-09
-7.19737e-10
5.9312e-09
-6.85596e-10
6.04676e-09
-6.98628e-10
6.22525e-09
-1.07232e-09
6.42697e-09
-1.18759e-09
8.68068e-09
-1.599e-08
-1.59821e-08
5.21718e-05
2.03268e-05
4.94104e-05
1.93569e-05
4.67815e-05
1.84271e-05
4.42798e-05
1.75361e-05
4.18999e-05
1.66825e-05
3.96365e-05
1.58652e-05
3.74848e-05
1.5083e-05
3.54398e-05
1.43347e-05
3.34969e-05
1.3619e-05
3.16516e-05
1.2935e-05
2.98995e-05
1.22813e-05
2.82365e-05
1.1657e-05
2.66586e-05
1.1061e-05
2.51618e-05
1.04922e-05
2.37424e-05
9.94959e-06
2.23968e-05
9.43213e-06
2.11216e-05
8.93888e-06
1.99135e-05
8.46886e-06
1.87692e-05
8.02115e-06
1.76857e-05
7.59485e-06
1.66601e-05
7.18908e-06
1.56897e-05
6.80297e-06
1.47716e-05
6.43572e-06
1.39033e-05
6.0865e-06
1.30824e-05
5.75456e-06
1.23064e-05
5.43914e-06
1.15733e-05
5.13951e-06
1.08807e-05
4.85498e-06
1.02266e-05
4.58487e-06
9.60916e-06
4.32854e-06
9.02637e-06
4.08535e-06
8.47649e-06
3.8547e-06
7.9578e-06
3.63602e-06
7.46868e-06
3.42875e-06
7.00758e-06
3.23235e-06
6.57302e-06
3.04632e-06
6.16359e-06
2.87015e-06
5.77796e-06
2.70337e-06
5.41484e-06
2.54553e-06
5.07302e-06
2.39621e-06
4.75136e-06
2.25497e-06
4.44874e-06
2.12142e-06
4.16413e-06
1.99519e-06
3.89654e-06
1.87591e-06
3.64502e-06
1.76322e-06
3.40868e-06
1.6568e-06
3.18668e-06
1.55633e-06
2.9782e-06
1.4615e-06
2.78249e-06
1.37203e-06
2.59882e-06
1.28764e-06
2.42649e-06
1.20806e-06
2.26487e-06
1.13304e-06
2.11334e-06
1.06234e-06
1.97131e-06
9.95738e-07
1.83822e-06
9.33012e-07
1.71356e-06
8.73955e-07
1.59683e-06
8.18369e-07
1.48755e-06
7.66068e-07
1.3853e-06
7.16872e-07
1.28965e-06
6.70612e-07
1.20019e-06
6.27126e-07
1.11657e-06
5.86262e-07
1.03842e-06
5.47874e-07
9.6542e-07
5.11823e-07
8.97244e-07
4.77978e-07
8.33598e-07
4.46215e-07
7.74203e-07
4.16416e-07
7.18795e-07
3.88468e-07
6.67124e-07
3.62266e-07
6.18956e-07
3.37708e-07
5.7407e-07
3.147e-07
5.32257e-07
2.93151e-07
4.93323e-07
2.72975e-07
4.57082e-07
2.54093e-07
4.23361e-07
2.36426e-07
3.91997e-07
2.19903e-07
3.62836e-07
2.04456e-07
3.35734e-07
1.90019e-07
3.10556e-07
1.76532e-07
2.87174e-07
1.63937e-07
2.6547e-07
1.52179e-07
2.45331e-07
1.41206e-07
2.26651e-07
1.30971e-07
2.09333e-07
1.21427e-07
1.93284e-07
1.12531e-07
1.78416e-07
1.04243e-07
1.6465e-07
9.65238e-08
1.51909e-07
8.93375e-08
1.40122e-07
8.26502e-08
1.29222e-07
7.64296e-08
1.19146e-07
7.06458e-08
1.09838e-07
6.52703e-08
1.01241e-07
6.02764e-08
9.33065e-08
5.56393e-08
8.59854e-08
5.13352e-08
7.92339e-08
4.73421e-08
7.30104e-08
4.36393e-08
6.72764e-08
4.02072e-08
6.19959e-08
3.70277e-08
5.71353e-08
3.40836e-08
5.26633e-08
3.13588e-08
4.85508e-08
2.88383e-08
4.47706e-08
2.65082e-08
4.12974e-08
2.43551e-08
3.81078e-08
2.23669e-08
3.51798e-08
2.0532e-08
3.24932e-08
1.88397e-08
3.00291e-08
1.728e-08
2.77697e-08
1.58436e-08
2.56989e-08
1.45217e-08
2.38014e-08
1.33064e-08
2.20631e-08
1.21899e-08
2.04709e-08
1.11657e-08
1.90126e-08
1.02266e-08
1.76767e-08
9.3679e-09
1.64529e-08
8.58192e-09
1.53311e-08
7.86705e-09
1.43024e-08
7.21311e-09
1.33578e-08
6.6245e-09
1.24901e-08
6.0838e-09
1.16905e-08
5.60811e-09
1.0954e-08
5.16262e-09
1.02709e-08
4.79173e-09
9.63901e-09
4.42706e-09
9.04727e-09
4.15266e-09
8.49762e-09
3.84744e-09
7.97402e-09
3.67821e-09
7.48687e-09
3.40418e-09
7.01092e-09
3.349e-09
6.5698e-09
3.075e-09
6.12391e-09
3.14464e-09
5.71756e-09
2.82289e-09
5.28783e-09
3.04027e-09
4.91012e-09
2.61269e-09
4.49955e-09
2.91468e-09
4.15069e-09
2.40353e-09
3.77029e-09
2.71056e-09
3.47588e-09
2.01748e-09
3.1544e-09
2.30442e-09
2.95276e-09
1.3655e-09
2.7364e-09
1.57202e-09
2.64419e-09
5.98906e-10
2.55296e-09
6.95975e-10
2.59461e-09
-3.34392e-10
2.64688e-09
-3.14638e-10
2.78617e-09
-1.01492e-09
2.92649e-09
-9.40545e-10
3.10777e-09
-1.30379e-09
3.28052e-09
-1.17736e-09
3.47007e-09
-1.35554e-09
3.64425e-09
-1.19556e-09
3.82197e-09
-1.26697e-09
3.98128e-09
-1.09778e-09
4.1382e-09
-1.11641e-09
4.27738e-09
-9.61274e-10
4.41248e-09
-9.59949e-10
4.53393e-09
-8.39638e-10
4.65192e-09
-8.37734e-10
4.76782e-09
-8.01489e-10
4.88277e-09
-8.13587e-10
5.06103e-09
-1.25057e-09
5.26159e-09
-1.38815e-09
7.1584e-09
-1.78868e-08
-1.78741e-08
5.21577e-05
2.3226e-05
4.93969e-05
2.21178e-05
4.67687e-05
2.10554e-05
4.42675e-05
2.00372e-05
4.18881e-05
1.90619e-05
3.96253e-05
1.8128e-05
3.74741e-05
1.72343e-05
3.54296e-05
1.63792e-05
3.34871e-05
1.55615e-05
3.16423e-05
1.47798e-05
2.98906e-05
1.4033e-05
2.82281e-05
1.33196e-05
2.66505e-05
1.26386e-05
2.5154e-05
1.19887e-05
2.3735e-05
1.13686e-05
2.23897e-05
1.07774e-05
2.11148e-05
1.02138e-05
1.9907e-05
9.67671e-06
1.8763e-05
9.16515e-06
1.76798e-05
8.67804e-06
1.66545e-05
8.21439e-06
1.56842e-05
7.77322e-06
1.47664e-05
7.35358e-06
1.38983e-05
6.95456e-06
1.30776e-05
6.57527e-06
1.23019e-05
6.21486e-06
1.15689e-05
5.8725e-06
1.08765e-05
5.54738e-06
1.02226e-05
5.23875e-06
9.6053e-06
4.94586e-06
9.02267e-06
4.66798e-06
8.47293e-06
4.40444e-06
7.95438e-06
4.15457e-06
7.46539e-06
3.91774e-06
7.00442e-06
3.69333e-06
6.56997e-06
3.48076e-06
6.16065e-06
3.27946e-06
5.77512e-06
3.0889e-06
5.4121e-06
2.90855e-06
5.07038e-06
2.73793e-06
4.7488e-06
2.57655e-06
4.44627e-06
2.42396e-06
4.16173e-06
2.27972e-06
3.89422e-06
2.14343e-06
3.64277e-06
2.01467e-06
3.4065e-06
1.89307e-06
3.18456e-06
1.77827e-06
2.97614e-06
1.66992e-06
2.78048e-06
1.56769e-06
2.59686e-06
1.47126e-06
2.42459e-06
1.38033e-06
2.26302e-06
1.29461e-06
2.11153e-06
1.21383e-06
1.96953e-06
1.13773e-06
1.83649e-06
1.06606e-06
1.71186e-06
9.9858e-07
1.59517e-06
9.35067e-07
1.48593e-06
8.75307e-07
1.3837e-06
8.19095e-07
1.28808e-06
7.66238e-07
1.19865e-06
7.16551e-07
1.11505e-06
6.6986e-07
1.03693e-06
6.25997e-07
9.6395e-07
5.84805e-07
8.95794e-07
5.46134e-07
8.32168e-07
5.09841e-07
7.72792e-07
4.75792e-07
7.17401e-07
4.43859e-07
6.65746e-07
4.1392e-07
6.17593e-07
3.85861e-07
5.72721e-07
3.59571e-07
5.30923e-07
3.3495e-07
4.92001e-07
3.11897e-07