/*--------------------------------*- C++ -*----------------------------------*\
| =========                 |                                                 |
| \\      /  F ield         | OpenFOAM: The Open Source CFD Toolbox           |
|  \\    /   O peration     | Version:  v1912                                 |
|   \\  /    A nd           | Website:  www.openfoam.com                      |
|    \\/     M anipulation  |                                                 |
\*---------------------------------------------------------------------------*/
FoamFile
{
    version     2.0;
    format      ascii;
    class       volScalarField;
    location    "80";
    object      alpha.water;
}
// * * * * * * * * * * * * * * * * * * * * * * * * * * * * * * * * * * * * * //

dimensions      [0 0 0 0 0 0 0];


internalField   nonuniform List<scalar> 
14268
(
1
1
1
1
1
1
1
1
1
1
1
1
1
1
1
1
1
1
1
1
1
1
1
1
1
1
1
1
1
1
1
1
1
1
1
1
1
1
1
1
1
1
1
1
1
1
1
1
1
1
1
1
1
1
1
1
1
1
1
1
1
1
1
1
1
1
1
1
1
1
1
1
1
1
1
1
1
1
1
1
1
1
1
1
1
1
1
1
1
1
1
1
1
1
1
1
1
1
1
1
1
1
1
1
1
1
1
1
1
1
1
1
1
1
1
1
1
1
1
1
1
1
1
1
1
1
1
1
1
1
1
1
1
1
1
1
1
1
1
1
1
1
1
1
1
1
1
1
1
1
1
1
1
1
1
1
1
1
1
1
1
1
1
1
1
1
1
1
1
1
1
1
1
1
1
1
1
1
1
1
1
1
1
1
1
1
1
1
1
1
1
1
1
1
1
1
1
1
1
1
1
1
1
1
1
1
1
1
1
1
1
1
1
1
1
1
1
1
1
1
1
1
1
1
1
1
1
1
1
1
1
1
1
1
1
1
1
1
1
1
1
1
1
1
1
1
1
1
1
1
1
1
1
1
1
1
1
1
1
1
1
1
1
1
1
1
1
1
1
1
1
1
1
1
1
1
1
1
1
1
1
1
1
1
1
1
1
1
1
1
1
1
1
1
1
1
1
1
1
1
1
1
1
1
1
1
1
1
1
1
1
1
1
1
1
1
1
1
1
1
1
1
1
1
1
1
1
1
1
1
1
1
1
1
1
1
1
1
1
1
1
1
1
1
1
1
1
1
1
1
1
1
1
1
1
1
1
1
1
1
1
1
1
1
1
1
1
1
1
1
1
1
1
1
1
1
1
1
1
1
1
1
1
1
1
1
1
1
1
1
1
1
1
1
1
1
1
1
1
1
1
1
1
1
1
1
1
1
1
1
1
1
1
1
1
1
1
1
1
1
1
1
1
1
1
1
1
1
1
1
1
1
1
1
1
1
1
1
1
1
1
1
1
1
1
1
1
1
1
1
1
1
1
1
1
1
1
1
1
1
1
1
1
1
1
1
1
1
1
1
1
1
1
1
1
1
1
1
1
1
1
1
1
1
1
1
1
1
1
1
1
1
1
1
1
1
1
1
1
1
1
1
1
1
1
1
1
1
1
1
1
1
1
1
1
1
1
1
1
1
1
1
1
1
1
1
1
1
1
1
1
1
1
1
1
1
1
1
1
1
1
1
1
1
1
1
1
1
1
1
1
1
1
1
1
1
1
1
1
1
1
1
1
1
1
1
1
1
1
1
1
1
1
1
1
1
1
1
1
1
1
1
1
1
1
1
1
1
1
1
1
1
1
1
1
1
1
1
1
1
1
1
1
1
1
1
1
1
1
1
1
1
1
1
1
1
1
1
1
1
1
1
1
1
1
1
1
1
1
1
1
1
1
1
1
1
1
1
1
1
1
1
1
1
1
1
1
1
1
1
1
1
1
1
1
1
1
1
1
1
1
1
1
1
1
1
1
1
1
1
1
1
1
1
1
1
1
1
1
1
1
1
1
1
1
1
1
1
1
1
1
1
1
1
1
1
1
1
1
1
1
1
1
1
1
1
1
1
1
1
1
1
1
1
1
1
1
1
1
1
1
1
1
1
1
1
1
1
1
1
1
1
1
1
1
1
1
1
1
1
1
1
1
1
1
1
1
1
1
1
1
1
1
1
1
1
1
1
1
1
1
1
1
1
1
1
1
1
1
1
1
1
1
1
1
1
1
1
1
1
1
1
1
1
1
1
1
1
1
1
1
1
1
1
1
1
1
1
1
1
1
1
1
1
1
1
1
1
1
1
1
1
1
1
1
1
1
1
1
1
1
1
1
1
1
1
1
1
1
1
1
1
1
1
1
1
1
1
1
1
1
1
1
1
1
1
1
1
1
1
1
1
1
1
1
1
1
1
1
1
1
1
1
1
1
1
1
1
1
1
1
1
1
1
1
1
1
1
1
1
1
1
1
1
1
1
1
1
1
1
1
1
1
1
1
1
1
1
1
1
1
1
1
1
1
1
1
1
1
1
1
1
1
1
1
1
1
1
1
1
1
1
1
1
1
1
1
1
1
1
1
1
1
1
1
1
1
1
1
1
1
1
1
1
1
1
1
1
1
1
1
1
1
1
1
1
1
1
1
1
1
1
1
1
1
1
1
1
1
1
1
1
1
1
1
1
1
1
1
1
1
1
1
1
1
1
1
1
1
1
1
1
1
1
1
1
1
1
1
1
1
1
1
1
1
1
1
1
1
1
1
1
1
1
1
1
1
1
1
1
1
1
1
1
1
1
1
1
1
1
1
1
1
1
1
1
1
1
1
1
1
1
1
1
1
1
1
1
1
1
1
1
1
1
1
1
1
1
1
1
1
1
1
1
1
1
1
1
1
1
1
1
1
1
1
1
1
1
1
1
1
1
1
1
1
1
1
1
1
1
1
1
1
1
1
1
1
1
1
1
1
1
1
1
1
1
1
1
1
1
1
1
1
1
1
1
1
1
1
1
1
1
1
1
1
1
1
1
1
1
1
1
1
1
1
1
1
1
1
1
1
1
1
1
1
1
1
1
1
1
1
1
1
1
1
1
1
1
1
1
1
1
1
1
1
1
1
1
1
1
1
1
1
1
1
1
1
1
1
1
1
1
1
1
1
1
1
1
1
1
1
1
1
1
1
1
1
1
1
1
1
1
1
1
1
1
1
1
1
1
1
1
1
1
1
1
1
1
1
1
1
1
1
1
1
1
1
1
1
1
1
1
1
1
1
1
1
1
1
1
1
1
1
1
1
1
1
1
1
1
1
1
1
1
1
1
1
1
1
1
1
1
1
1
1
1
1
1
1
1
1
1
1
1
1
1
1
1
1
1
1
1
1
1
1
1
1
1
1
1
1
1
1
1
1
1
1
1
1
1
1
1
1
1
1
1
1
1
1
1
1
1
1
1
1
1
1
1
1
1
1
1
1
1
1
1
1
1
1
1
1
1
1
1
1
1
1
1
1
1
1
1
1
1
1
1
1
1
1
1
1
1
1
1
1
1
1
1
1
1
1
1
1
1
1
1
1
1
1
1
1
1
1
1
1
1
1
1
1
1
1
1
1
1
1
1
1
1
1
1
1
1
1
1
1
1
1
1
1
1
1
1
1
1
1
1
1
1
1
1
1
1
1
1
1
1
1
1
1
1
1
1
1
1
1
1
1
1
1
1
1
1
1
1
1
1
1
1
1
1
1
1
1
1
1
1
1
1
1
1
1
1
1
1
1
1
1
1
1
1
1
1
1
1
1
1
1
1
1
1
1
1
1
1
1
1
1
1
1
1
1
1
1
1
1
1
1
1
1
1
1
1
1
1
1
1
1
1
1
1
1
1
1
1
1
1
1
1
1
1
1
1
1
1
1
1
1
1
1
1
1
1
1
1
1
1
1
1
1
1
1
1
1
1
1
1
1
1
1
1
1
1
1
1
1
1
1
1
1
1
1
1
1
1
1
1
1
1
1
1
1
1
1
1
1
1
1
1
1
1
1
1
1
1
1
1
1
1
1
1
1
1
1
1
1
1
1
1
1
1
1
1
1
1
1
1
1
1
1
1
1
1
1
1
1
1
1
1
1
1
1
1
1
1
1
1
1
1
1
1
1
1
1
1
1
1
1
1
1
1
1
1
1
1
1
1
1
1
1
1
1
1
1
1
1
1
1
1
1
1
1
1
1
1
1
1
1
1
1
1
1
1
1
1
1
1
1
1
1
1
1
1
1
1
1
1
1
1
1
1
1
1
1
1
1
1
1
1
1
1
1
1
1
1
1
1
1
1
1
1
1
1
1
1
1
1
1
1
1
1
1
1
1
1
1
1
1
1
1
1
1
1
1
1
1
1
1
1
1
1
1
1
1
1
1
1
1
1
1
1
1
1
1
1
1
1
1
1
1
1
1
1
1
1
1
1
1
1
1
1
1
1
1
1
1
1
1
1
1
1
1
1
1
1
1
1
1
1
1
1
1
1
1
1
1
1
1
1
1
1
1
1
1
1
1
1
1
1
1
1
1
1
1
1
1
1
1
1
1
1
1
1
1
1
1
1
1
1
1
1
1
1
1
1
1
1
1
1
1
1
1
1
1
1
1
1
1
1
1
1
1
1
1
1
1
1
1
1
1
1
1
1
1
1
1
1
1
1
1
1
1
1
1
1
1
1
1
1
1
1
1
1
1
1
1
1
1
1
1
1
1
1
1
1
1
1
1
1
1
1
1
1
1
1
1
1
1
1
1
1
1
1
1
1
1
1
1
1
1
1
1
1
1
1
1
1
1
1
1
1
1
1
1
1
1
1
1
1
1
1
1
1
1
1
1
1
1
1
1
1
1
1
1
1
1
1
1
1
1
1
1
1
1
1
1
1
1
1
1
1
1
1
1
1
1
1
1
1
1
1
1
1
1
1
1
1
1
1
1
1
1
1
1
1
1
1
1
1
1
1
1
1
1
1
1
1
1
1
1
1
1
1
1
1
1
1
1
1
1
1
1
1
1
1
1
1
1
1
1
1
1
1
1
1
1
1
1
1
1
1
1
1
1
1
1
1
1
1
1
1
1
1
1
1
1
1
1
1
1
1
1
1
1
1
1
1
1
1
1
1
1
1
1
1
1
1
1
1
1
1
1
1
1
1
1
1
1
1
1
1
1
1
1
1
1
1
1
1
1
1
1
1
1
1
1
1
1
1
1
1
1
1
1
1
1
1
1
1
1
1
1
1
1
1
1
1
1
1
1
1
1
1
1
1
1
1
1
1
1
1
1
1
1
1
1
1
1
1
1
1
1
1
1
1
1
1
1
1
1
1
1
1
1
1
1
1
1
1
1
1
1
1
1
1
1
1
1
1
1
1
1
1
1
1
1
1
1
1
1
1
1
1
1
1
1
1
1
1
1
1
1
1
1
1
1
1
1
1
1
1
1
1
1
1
1
1
1
1
1
1
1
1
1
1
1
1
1
1
1
1
1
1
1
1
1
1
1
1
1
1
1
1
1
1
1
1
1
1
1
1
1
1
1
1
1
1
1
1
1
1
1
1
1
1
1
1
1
1
1
1
1
1
1
1
1
1
1
1
1
1
1
1
1
1
1
1
1
1
1
1
1
1
1
1
1
1
1
1
1
1
1
1
1
1
1
1
1
1
1
1
1
1
1
1
1
1
1
1
1
1
1
1
1
1
1
1
1
1
1
1
1
1
1
1
1
1
1
1
1
1
1
1
1
1
1
1
1
1
1
1
1
1
1
1
1
1
1
1
1
1
1
1
1
1
1
1
1
1
1
1
1
1
1
1
1
1
1
1
1
1
1
1
1
1
1
1
1
1
1
1
1
1
1
1
1
1
1
1
1
1
1
1
1
1
1
1
1
1
1
1
1
1
1
1
1
1
1
1
1
1
1
1
1
1
1
1
1
1
1
1
1
1
1
1
1
1
1
1
1
1
1
1
1
1
1
1
1
1
1
1
1
1
1
1
1
1
1
1
1
1
1
1
1
1
1
1
1
1
1
1
1
1
1
1
1
1
1
1
1
1
1
1
1
1
1
1
1
1
1
1
1
1
1
1
1
1
1
1
1
1
1
1
1
1
1
1
1
1
1
1
1
1
1
1
1
1
1
1
1
1
1
1
1
1
1
1
1
1
1
1
1
1
1
1
1
1
1
1
1
1
1
1
1
1
1
1
1
1
1
1
1
1
1
1
1
1
1
1
1
1
1
1
1
1
1
1
1
1
1
1
1
1
1
1
1
1
1
1
1
1
1
1
1
1
1
1
1
1
1
1
1
1
1
1
1
1
1
1
1
1
1
1
1
1
1
1
1
1
1
1
1
1
1
1
1
1
1
1
1
1
1
1
1
1
1
1
1
1
1
1
1
1
1
1
1
1
1
1
1
1
1
1
1
1
1
1
1
1
1
1
1
1
1
1
1
1
1
1
1
1
1
1
1
1
1
1
1
1
1
1
1
1
1
1
1
1
1
1
1
1
1
1
1
1
1
1
1
1
1
1
1
1
1
1
1
1
1
1
1
1
1
1
1
1
1
1
1
1
1
1
1
1
1
1
1
1
1
1
1
1
1
1
1
1
1
1
1
1
1
1
1
1
1
1
1
1
1
1
1
1
1
1
1
1
1
1
1
1
1
1
1
1
1
1
1
1
1
1
1
1
1
1
1
1
1
1
1
1
1
1
1
1
1
1
1
1
1
1
1
1
1
1
1
1
1
1
1
1
1
1
1
1
1
1
1
1
1
1
1
1
1
1
1
1
1
1
1
1
1
1
1
1
1
1
1
1
1
1
1
1
1
1
1
1
1
1
1
1
1
1
1
1
1
1
1
1
1
1
1
1
1
1
1
1
1
1
1
1
1
1
1
1
1
1
1
1
1
1
1
1
1
1
1
1
1
1
1
1
1
1
1
1
1
1
1
1
1
1
1
1
1
1
1
1
1
1
1
1
1
1
1
1
1
1
1
1
1
1
1
1
1
1
1
1
1
1
1
1
1
1
1
1
1
1
1
1
1
1
1
1
1
1
1
1
1
1
1
1
1
1
1
1
1
1
1
1
1
1
1
1
1
1
1
1
1
1
1
1
1
1
1
1
1
1
1
1
1
1
1
1
1
1
1
1
1
1
1
1
1
1
1
1
1
1
1
1
1
1
1
1
1
1
1
1
1
1
1
1
1
1
1
1
1
1
1
1
1
1
1
1
1
1
1
1
1
1
1
1
1
1
1
1
1
1
1
1
1
1
1
1
1
1
1
1
1
1
1
1
1
1
1
1
1
1
1
1
1
1
1
1
1
1
1
1
1
1
1
1
1
1
1
1
1
1
1
1
1
1
1
1
1
1
1
1
1
1
1
1
1
1
1
1
1
1
1
1
1
1
1
1
1
1
1
1
1
1
1
1
1
1
1
1
1
1
1
1
1
1
1
1
1
1
1
1
1
1
1
1
1
1
1
1
1
1
1
1
1
1
1
1
1
1
1
1
1
1
1
1
1
1
1
1
1
1
1
1
1
1
1
1
1
1
1
1
1
1
1
1
1
1
1
1
1
1
1
1
1
1
1
1
1
1
1
1
1
1
1
1
1
1
1
1
1
1
1
1
1
1
1
1
1
1
1
1
1
1
1
1
1
1
1
1
1
1
1
1
1
1
1
1
1
1
1
1
1
1
1
1
1
1
1
1
1
1
1
1
1
1
1
1
1
1
1
1
1
1
1
1
1
1
1
1
1
1
1
1
1
1
1
1
1
1
1
1
1
1
1
1
1
1
1
1
1
1
1
1
1
1
1
1
1
1
1
1
1
1
1
1
1
1
1
1
1
1
1
1
1
1
1
1
1
1
1
1
1
1
1
1
1
1
1
1
1
1
1
1
1
1
1
1
1
1
1
1
1
1
1
1
1
1
1
1
1
1
1
1
1
1
1
1
1
1
1
1
1
1
1
1
1
1
1
1
1
1
1
1
1
1
1
1
1
1
1
1
1
1
1
1
1
1
1
1
1
1
1
1
1
1
1
1
1
1
1
1
1
1
1
1
1
1
1
1
1
1
1
1
1
1
1
1
1
1
1
1
1
1
1
1
1
1
1
1
1
1
1
1
1
1
1
1
1
1
1
1
1
1
1
1
1
1
1
1
1
1
1
1
1
1
1
1
1
1
1
1
1
1
1
1
1
1
1
1
1
1
1
1
1
1
1
1
1
1
1
1
1
1
1
1
1
1
1
1
1
1
1
1
1
1
1
1
1
1
1
1
1
1
1
1
1
1
1
1
1
1
1
1
1
1
1
1
1
1
1
1
1
1
1
1
1
1
1
1
1
1
1
1
1
1
1
1
1
1
1
1
1
1
1
1
1
1
1
1
1
1
1
1
1
1
1
1
1
1
1
1
1
1
1
1
1
1
1
1
1
1
1
1
1
1
1
1
1
1
1
1
1
1
1
1
1
1
1
1
1
1
1
1
1
1
1
1
1
1
1
1
1
1
1
1
1
1
1
1
1
1
1
1
1
1
1
1
1
1
1
1
1
1
1
1
1
1
1
1
1
1
1
1
1
1
1
1
1
1
1
1
1
1
1
1
1
1
1
1
1
1
1
1
1
1
1
1
1
1
1
1
1
1
1
1
1
1
1
1
1
1
1
1
1
1
1
1
1
1
1
1
1
1
1
1
1
1
1
1
1
1
1
1
1
1
1
1
1
1
1
1
1
1
1
1
1
1
1
1
1
1
1
1
1
1
1
1
1
1
1
1
1
1
1
1
1
1
1
1
1
1
1
1
1
1
1
1
1
1
1
1
1
1
1
1
1
1
1
1
1
1
1
1
1
1
1
1
1
1
1
1
1
1
1
1
1
1
1
1
1
1
1
1
1
1
1
1
1
1
1
1
1
1
1
1
1
1
1
1
1
1
1
1
1
1
1
1
1
1
1
1
1
1
1
1
1
1
1
1
1
1
1
1
1
1
1
1
1
1
1
1
1
1
1
1
1
1
1
1
1
1
1
1
1
1
1
1
1
1
1
1
1
1
1
1
1
1
1
1
1
1
1
1
1
1
1
1
1
1
1
1
1
1
1
1
1
1
1
1
1
1
1
1
1
1
1
1
1
1
1
1
1
1
1
1
1
1
1
1
1
1
1
1
1
1
1
1
1
1
1
1
1
1
1
1
1
1
1
1
1
1
1
1
1
1
1
1
1
1
1
1
1
1
1
1
1
1
1
1
1
1
1
1
1
1
1
1
1
1
1
1
1
1
1
1
1
1
1
1
1
1
1
1
1
1
1
1
1
1
1
1
1
1
1
1
1
1
1
1
1
1
1
1
1
1
1
1
1
1
1
1
1
1
1
1
1
1
1
1
1
1
1
1
1
1
1
1
1
1
1
1
1
1
1
1
1
1
1
1
1
1
1
1
1
1
1
1
1
1
1
1
1
1
1
1
1
1
1
1
1
1
1
1
1
1
1
1
1
1
1
1
1
1
1
1
1
1
1
1
1
1
1
1
1
1
1
1
1
1
1
1
1
1
1
1
1
1
1
1
1
1
1
1
1
1
1
1
1
1
1
1
1
1
1
1
1
1
1
1
1
1
1
1
1
1
1
1
1
1
1
1
1
1
1
1
1
1
1
1
1
1
1
1
1
1
1
1
1
1
1
1
1
1
1
1
1
1
1
1
1
1
1
1
1
1
1
1
1
1
1
1
1
1
1
1
1
1
1
1
1
1
1
1
1
1
1
1
1
1
1
1
1
1
1
1
1
1
1
1
1
1
1
1
1
1
1
1
1
1
1
1
1
1
1
1
1
1
1
1
1
1
1
1
1
1
1
1
1
1
1
1
0.990817
1
1
1
1
1
1
1
1
1
1
1
1
1
1
1
1
1
1
1
1
1
1
1
1
1
1
1
1
1
1
1
1
1
1
1
1
1
1
1
1
1
1
1
1
1
1
1
1
1
1
1
1
1
1
1
1
1
1
1
1
1
1
1
1
1
1
1
1
1
1
1
1
1
1
1
1
1
1
1
1
1
1
1
1
1
1
1
1
1
1
1
1
1
1
1
1
1
1
1
1
1
1
1
1
1
1
1
1
1
1
1
1
1
1
1
1
1
1
1
1
1
1
1
1
1
1
1
1
1
1
1
1
1
0.670506
0.834394
0.935916
0.992265
1
1
1
1
1
1
1
1
1
1
1
1
1
1
1
1
1
1
1
1
1
1
1
1
1
1
1
1
1
1
1
1
1
1
1
1
1
1
1
1
1
1
1
1
1
1
1
1
0.999999
0.999999
0.999999
0.999998
0.999997
0.999996
0.999994
0.999992
0.999988
0.999983
0.999976
0.999965
0.999949
0.999925
0.999888
0.999833
0.99975
0.999624
0.999437
0.999159
0.998752
0.998163
0.997322
0.996137
0.994487
0.992224
0.989189
0.985251
0.980343
0.974499
0.967917
0.960989
0.954283
0.948488
0.944638
0.942952
0.94361
0.946481
0.951414
0.958116
0.966096
0.974655
0.983033
0.990515
0.996327
0.999549
1
1
1
1
1
1
1
1
1
1
1
1
1
1
1
1
1
1
1
1
1
1
1
1
1
1
1
1
1
1
1
1
1
1
1
1
0.0840685
0.223634
0.443125
0.68056
0.861532
0.963703
0.999982
1
1
1
1
1
1
1
1
1
1
1
1
1
1
1
1
1
1
1
1
1
1
1
1
1
1
1
1
1
1
1
1
1
1
1
1
1
1
0.999999
0.999999
0.999999
0.999998
0.999996
0.999994
0.99999
0.999986
0.999979
0.99997
0.999957
0.99994
0.999917
0.999885
0.99984
0.999778
0.999688
0.999559
0.99937
0.999091
0.998672
0.998037
0.997059
0.995527
0.993081
0.989126
0.982757
0.972726
0.957437
0.935006
0.903477
0.861335
0.808385
0.750131
0.694711
0.643851
0.598489
0.55927
0.526508
0.500274
0.480535
0.468138
0.462792
0.464699
0.473577
0.489517
0.512594
0.542563
0.578632
0.619879
0.665877
0.715712
0.766314
0.813826
0.855131
0.893658
0.92897
0.95905
0.982289
0.996391
1
1
1
1
1
1
1
1
1
1
1
1
1
1
1
1
1
1
1
1
1
1
1
1
1
1
1
1
1
0.00262058
0.0078554
0.026475
0.0888171
0.271582
0.534773
0.785711
0.929849
0.996145
1
1
1
1
1
1
1
1
1
1
1
1
1
1
1
1
1
1
1
1
1
1
1
1
1
1
1
1
1
1
1
1
0.999999
0.999999
0.999998
0.999996
0.999993
0.999987
0.999978
0.999964
0.999942
0.999909
0.999862
0.999794
0.999701
0.999572
0.999395
0.999155
0.998824
0.998363
0.997709
0.996758
0.995336
0.993143
0.989659
0.984007
0.974777
0.959748
0.935527
0.897164
0.838458
0.756114
0.665186
0.57177
0.479081
0.390506
0.309748
0.240526
0.18602
0.146306
0.114298
0.0885827
0.0684841
0.0533748
0.0426773
0.0357669
0.0319942
0.0300345
0.0292145
0.0294963
0.0308548
0.0334567
0.0376131
0.0437508
0.0524135
0.0644537
0.0815307
0.106231
0.141809
0.192482
0.25894
0.335663
0.421844
0.515773
0.615949
0.716702
0.806317
0.873391
0.92904
0.971147
0.995411
1
1
1
1
1
1
1
1
1
1
1
1
1
1
1
1
1
1
1
1
1
1
1
0.999999
0.000102455
0.000290792
0.000867958
0.00284108
0.0105321
0.0427343
0.160531
0.42542
0.71326
0.898991
0.987811
1
1
1
1
1
1
1
1
1
1
1
1
1
1
1
1
1
1
1
1
1
1
1
1
1
0.999999
0.999999
0.999999
0.999997
0.999995
0.999991
0.999984
0.99997
0.999946
0.999904
0.999833
0.999715
0.999525
0.99923
0.99878
0.998108
0.997117
0.995658
0.993504
0.990308
0.98555
0.978478
0.967964
0.952306
0.928938
0.894036
0.842411
0.769394
0.684566
0.593001
0.496976
0.399792
0.306712
0.225332
0.163671
0.114568
0.0747033
0.0438071
0.0217454
0.00819899
0.00227265
0.00156614
0.00159612
0.00160697
0.00158055
0.00153033
0.00145852
0.00137147
0.00127552
0.00117833
0.00110981
0.00108132
0.00108938
0.00113477
0.00122226
0.00136378
0.00157102
0.00185751
0.00224805
0.00281065
0.00367005
0.00496906
0.00691757
0.0100392
0.0151818
0.0236712
0.0381011
0.063187
0.106915
0.182233
0.293226
0.421763
0.562654
0.705574
0.824942
0.907622
0.967497
0.997624
1
1
1
1
1
1
1
1
1
1
1
1
1
1
1
1
0.999999
0.999999
0.999996
0.999989
4.3339e-06
1.19989e-05
3.51486e-05
0.000113516
0.000384761
0.00140098
0.00553441
0.0245807
0.105967
0.347511
0.64643
0.867355
0.974911
1
1
0.999999
0.999999
0.999999
0.999999
0.999999
0.999999
0.999999
0.999999
0.999999
0.999999
0.999999
0.999999
0.999999
0.999999
0.999999
0.999999
0.999999
0.999999
0.999998
0.999998
0.999996
0.999994
0.99999
0.999983
0.999969
0.999943
0.999894
0.999803
0.999632
0.999319
0.998752
0.997737
0.995925
0.992684
0.986921
0.977039
0.960947
0.93603
0.899127
0.846836
0.777287
0.700706
0.622051
0.54174
0.460276
0.378899
0.300237
0.228972
0.17151
0.123752
0.0826791
0.0488725
0.0233508
0.0071375
0.000407376
5.26909e-05
5.6398e-05
5.99261e-05
6.30168e-05
6.55029e-05
6.72744e-05
6.87959e-05
6.98366e-05
7.00446e-05
6.94535e-05
6.8284e-05
6.61293e-05
6.30232e-05
5.92637e-05
5.45153e-05
5.00037e-05
4.66995e-05
4.55527e-05
4.5717e-05
4.79236e-05
5.18187e-05
5.82344e-05
6.74597e-05
8.04089e-05
9.79053e-05
0.000122451
0.000160298
0.000216313
0.000293852
0.000410995
0.000593646
0.000878572
0.00135661
0.00219076
0.00368266
0.00648683
0.0120839
0.0236882
0.0482938
0.100494
0.207883
0.36586
0.546017
0.729179
0.864933
0.952477
0.996695
0.999998
0.999997
0.999997
0.999997
0.999996
0.999996
0.999997
0.999997
0.999998
0.999998
0.999998
0.999998
0.999997
0.999995
0.999988
0.999968
0.999904
1.82437e-07
5.11838e-07
1.54085e-06
4.99829e-06
1.64317e-05
5.87664e-05
0.000222161
0.000866448
0.00362022
0.0163766
0.0742127
0.280859
0.576891
0.824548
0.949848
0.998588
0.999994
0.999993
0.999993
0.999993
0.999993
0.999992
0.999992
0.999992
0.999992
0.999992
0.999992
0.999991
0.999991
0.999991
0.999991
0.999989
0.999986
0.999981
0.999973
0.999959
0.999933
0.999887
0.999799
0.999632
0.999306
0.998666
0.997381
0.99473
0.989049
0.976889
0.952284
0.90619
0.827478
0.718582
0.606796
0.498586
0.397461
0.30707
0.231524
0.17474
0.130554
0.0935052
0.0626302
0.0376197
0.018655
0.00615974
0.000464681
1.79725e-06
1.82888e-06
1.85048e-06
1.87608e-06
1.88026e-06
1.89804e-06
1.92337e-06
1.97832e-06
2.02227e-06
2.10663e-06
2.20393e-06
2.3152e-06
2.47037e-06
2.67519e-06
2.81156e-06
2.87182e-06
2.84244e-06
2.77445e-06
2.67439e-06
2.50368e-06
2.3394e-06
2.09692e-06
1.90213e-06
1.74816e-06
1.72159e-06
1.70908e-06
1.80482e-06
1.95143e-06
2.22182e-06
2.57124e-06
3.02753e-06
3.72922e-06
4.70171e-06
6.06594e-06
8.35354e-06
1.15242e-05
1.61562e-05
2.36662e-05
3.55387e-05
5.57695e-05
9.1475e-05
0.000154442
0.000265095
0.000465622
0.000853177
0.00165853
0.00341766
0.0074887
0.0176386
0.0439553
0.113068
0.273362
0.489258
0.716611
0.878411
0.970979
0.999978
0.999974
0.999971
0.999971
0.999972
0.999975
0.999978
0.999981
0.999982
0.999981
0.999974
0.999954
0.999897
0.999711
0.999055
8.36265e-09
2.31436e-08
6.89479e-08
2.19554e-07
7.18065e-07
2.6157e-06
9.91165e-06
3.77455e-05
0.000150928
0.000610944
0.00256971
0.0114107
0.0517594
0.206913
0.480281
0.742726
0.898501
0.977534
0.999936
0.999927
0.99992
0.999917
0.999915
0.999913
0.999911
0.99991
0.999908
0.999907
0.999906
0.999904
0.999897
0.999879
0.999847
0.999792
0.999696
0.999525
0.999213
0.998618
0.997432
0.994917
0.989194
0.975665
0.944688
0.878406
0.755543
0.606936
0.458137
0.32139
0.21219
0.139855
0.0869353
0.0483335
0.0221562
0.0067989
0.000509649
6.98586e-08
7.19082e-08
7.31486e-08
7.41637e-08
7.45264e-08
7.46966e-08
7.32776e-08
7.28438e-08
7.3898e-08
7.60323e-08
7.53281e-08
7.38879e-08
7.16164e-08
7.19859e-08
7.26536e-08
7.48389e-08
7.72471e-08
8.04531e-08
8.46862e-08
8.90709e-08
9.36869e-08
1.00455e-07
1.07083e-07
1.11834e-07
1.11204e-07
1.07871e-07
1.03253e-07
9.62331e-08
8.96283e-08
7.93858e-08
7.16394e-08
6.44953e-08
6.34316e-08
6.29665e-08
6.67311e-08
7.27651e-08
8.33028e-08
9.66651e-08
1.11079e-07
1.33145e-07
1.69276e-07
2.12758e-07
2.91855e-07
4.09674e-07
5.78716e-07
8.58782e-07
1.29378e-06
2.04691e-06
3.40005e-06
5.83306e-06
1.01362e-05
1.80012e-05
3.35852e-05
6.6613e-05
0.000137663
0.00028968
0.000634203
0.00149563
0.00378808
0.0105207
0.0324422
0.104608
0.296364
0.556002
0.799341
0.936507
0.996323
0.999779
0.999771
0.999783
0.999803
0.999821
0.999836
0.99983
0.999767
0.999578
0.999012
0.996973
0.987515
4.34579e-10
1.11535e-09
3.20098e-09
1.00363e-08
3.24935e-08
1.15866e-07
4.29811e-07
1.64136e-06
6.48867e-06
2.5537e-05
0.000104929
0.000438977
0.00180237
0.00738468
0.0315577
0.122669
0.341316
0.587952
0.7908
0.903477
0.967168
0.995359
0.999114
0.999038
0.99898
0.998944
0.99892
0.998901
0.998888
0.99887
0.998778
0.998556
0.998145
0.997399
0.996029
0.993342
0.987696
0.975143
0.946878
0.884412
0.759839
0.597401
0.428259
0.272817
0.16114
0.0872327
0.0369566
0.0087063
3.58698e-05
2.94314e-09
3.02879e-09
3.01746e-09
3.0282e-09
3.06943e-09
3.01948e-09
2.96239e-09
2.94053e-09
2.88616e-09
2.87155e-09
2.82748e-09
2.84523e-09
2.81483e-09
2.77022e-09
2.76311e-09
2.95115e-09
3.03231e-09
3.0235e-09
2.89016e-09
2.90551e-09
2.90752e-09
2.96486e-09
3.0457e-09
3.13631e-09
3.29183e-09
3.4492e-09
3.59475e-09
3.85679e-09
4.15483e-09
4.34518e-09
4.26567e-09
4.06253e-09
3.86995e-09
3.61095e-09
3.41212e-09
2.99177e-09
2.74034e-09
2.42885e-09
2.42049e-09
2.40313e-09
2.58334e-09
2.93845e-09
3.48059e-09
3.96138e-09
4.37606e-09
5.00971e-09
6.30873e-09
7.60413e-09
1.00974e-08
1.40213e-08
1.98667e-08
2.98339e-08
4.39991e-08
6.82389e-08
1.12639e-07
1.92681e-07
3.32932e-07
5.93872e-07
1.1309e-06
2.284e-06
4.81646e-06
1.04595e-05
2.35315e-05
5.68436e-05
0.00014295
0.000380826
0.00109595
0.00336776
0.0116826
0.0448106
0.168409
0.431861
0.709855
0.894093
0.979377
0.998104
0.998049
0.998118
0.998283
0.998252
0.997583
0.995361
0.98734
0.948727
0.755146
4.09835e-11
7.84607e-11
1.7968e-10
4.91706e-10
1.50683e-09
5.14493e-09
1.78101e-08
6.24494e-08
2.28877e-07
8.8667e-07
3.73181e-06
1.63533e-05
6.96928e-05
0.000286178
0.00111818
0.00414149
0.0153512
0.0540451
0.163166
0.354678
0.547746
0.711624
0.822601
0.887188
0.928709
0.954373
0.969214
0.977164
0.980696
0.980995
0.97904
0.974146
0.964697
0.946769
0.912695
0.847571
0.734899
0.593095
0.436496
0.28229
0.163664
0.0833975
0.0294023
0.00310161
9.0921e-11
9.0921e-11
9.0921e-11
9.0921e-11
9.09805e-11
9.09696e-11
9.61915e-11
1.10435e-10
1.23152e-10
1.45327e-10
1.58366e-10
1.64618e-10
1.68427e-10
1.70728e-10
1.74832e-10
1.74911e-10
1.78639e-10
1.8141e-10
1.7643e-10
1.71114e-10
1.79505e-10
1.82107e-10
1.81173e-10
1.72468e-10
1.7068e-10
1.64782e-10
1.64804e-10
1.63013e-10
1.61072e-10
1.62514e-10
1.63042e-10
1.62856e-10
1.68645e-10
1.76769e-10
1.75673e-10
1.67463e-10
1.56333e-10
1.49314e-10
1.41146e-10
1.35844e-10
1.19421e-10
1.13723e-10
1.02621e-10
1.05601e-10
1.06312e-10
1.14656e-10
1.37293e-10
1.69262e-10
1.81489e-10
1.89194e-10
2.05963e-10
2.53429e-10
2.90437e-10
3.69894e-10
4.9385e-10
6.95949e-10
1.05499e-09
1.51169e-09
2.29291e-09
3.7836e-09
6.51425e-09
1.12894e-08
2.00886e-08
3.84248e-08
7.73041e-08
1.62688e-07
3.57207e-07
7.97865e-07
1.91792e-06
4.82484e-06
1.30514e-05
3.91784e-05
0.000125154
0.000411641
0.00141433
0.00536667
0.0232755
0.0978823
0.321777
0.591963
0.804067
0.90944
0.956921
0.972281
0.971697
0.958137
0.908909
0.74793
0.455006
0.165174
6.43731e-12
1.12434e-11
2.12407e-11
4.31138e-11
1.01435e-10
2.78616e-10
8.14731e-10
2.57398e-09
9.44283e-09
3.93895e-08
1.68352e-07
7.06509e-07
2.84001e-06
1.13183e-05
4.50468e-05
0.000168072
0.000571952
0.00182267
0.00559922
0.0166551
0.045016
0.106225
0.213721
0.338165
0.446907
0.533148
0.594973
0.633449
0.651296
0.65109
0.630383
0.587045
0.522202
0.436755
0.336125
0.233107
0.149003
0.0818726
0.0315282
0.00399654
7.40714e-11
7.40714e-11
8.11592e-11
9.15304e-11
9.0921e-11
9.0921e-11
9.0921e-11
9.0921e-11
9.37372e-11
9.78933e-11
1.01798e-10
1.02381e-10
9.85811e-11
9.90533e-11
9.82007e-11
9.43846e-11
9.22763e-11
8.6582e-11
8.53219e-11
7.78222e-11
7.25113e-11
6.75159e-11
6.15582e-11
5.03753e-11
4.56872e-11
4.28386e-11
4.09097e-11
3.49631e-11
3.10752e-11
2.59967e-11
2.3492e-11
2.09519e-11
1.83567e-11
1.66071e-11
1.48738e-11
1.30808e-11
1.24069e-11
1.15656e-11
1.05853e-11
9.46144e-12
8.5304e-12
8.28047e-12
7.93166e-12
7.75489e-12
7.07053e-12
7.132e-12
6.81006e-12
7.29282e-12
7.58436e-12
8.30074e-12
1.00691e-11
1.22235e-11
1.21884e-11
1.23025e-11
1.29906e-11
1.52743e-11
1.67529e-11
1.97729e-11
2.39659e-11
3.16278e-11
4.43786e-11
5.90863e-11
8.38175e-11
1.31775e-10
2.19028e-10
3.71243e-10
6.4117e-10
1.21049e-09
2.38774e-09
4.92983e-09
1.07542e-08
2.38453e-08
5.69562e-08
1.40863e-07
3.79227e-07
1.13758e-06
3.62642e-06
1.23718e-05
4.55204e-05
0.000177815
0.000714712
0.00287354
0.0126007
0.0514324
0.169705
0.358279
0.504553
0.575225
0.571703
0.48867
0.330234
0.158828
0.037517
5.16082e-12
7.86874e-13
1.4428e-12
2.83784e-12
5.7904e-12
1.29655e-11
2.7085e-11
5.10903e-11
1.07261e-10
3.12895e-10
1.21713e-09
5.11858e-09
2.12069e-08
8.54153e-08
3.44807e-07
1.40764e-06
5.38245e-06
1.90025e-05
6.3676e-05
0.000199711
0.000574167
0.00152199
0.00373937
0.00849212
0.0175809
0.0323312
0.0523826
0.0748208
0.0946288
0.106388
0.107031
0.0977572
0.0797435
0.0564037
0.0316883
0.0110572
0.000575134
5.94912e-11
7.15278e-11
7.69745e-11
7.52819e-11
7.40714e-11
7.40714e-11
7.40714e-11
8.1344e-11
9.35371e-11
9.10331e-11
9.21695e-11
9.15595e-11
8.72359e-11
8.09661e-11
7.58017e-11
6.76162e-11
5.82133e-11
4.94187e-11
4.48896e-11
3.8663e-11
3.41472e-11
2.65071e-11
2.32298e-11
1.5503e-11
1.00806e-11
6.27548e-12
3.99607e-12
7.87221e-13
7.86489e-15
5.18401e-31
-5.34897e-34
-2.46933e-35
7.60379e-33
-1.99509e-32
3.33213e-32
-1.38176e-32
2.48212e-32
3.23401e-34
3.45098e-26
6.61893e-31
7.21634e-17
1.31963e-15
7.24221e-15
2.68967e-14
5.6538e-14
9.67827e-14
1.32174e-13
1.62354e-13
1.75936e-13
2.09942e-13
2.26216e-13
2.71289e-13
3.08285e-13
3.66444e-13
4.61116e-13
5.74643e-13
6.06956e-13
6.45305e-13
7.0249e-13
8.37066e-13
9.28552e-13
1.08936e-12
1.33024e-12
1.72346e-12
2.30423e-12
3.00316e-12
4.01141e-12
5.81992e-12
8.64273e-12
1.2931e-11
1.95839e-11
3.3688e-11
6.20388e-11
1.24714e-10
2.75117e-10
6.24005e-10
1.53659e-09
3.90909e-09
1.07845e-08
3.2444e-08
1.01832e-07
3.3996e-07
1.22221e-06
4.75147e-06
1.9908e-05
8.44763e-05
0.000368492
0.00154447
0.00604081
0.019732
0.04561
0.0713352
0.0726475
0.046955
0.0111653
-2.00598e-20
4.2978e-20
4.72232e-12
4.43601e-14
8.59851e-14
1.77084e-13
3.80984e-13
9.3719e-13
1.80053e-12
2.4481e-12
1.99402e-12
6.83763e-13
2.51216e-14
-1.14754e-42
1.20833e-21
-2.55218e-24
-4.19964e-25
2.73988e-26
4.51801e-13
3.09734e-12
7.34761e-12
1.17884e-11
1.55682e-11
1.88092e-11
2.16341e-11
2.42004e-11
2.67905e-11
2.99668e-11
3.42153e-11
3.93612e-11
4.45602e-11
4.87384e-11
5.09416e-11
5.21976e-11
5.30554e-11
5.36435e-11
5.36439e-11
5.26781e-11
5.06808e-11
4.93456e-11
4.93456e-11
5.51657e-11
7.03193e-11
8.4373e-11
8.63311e-11
8.81344e-11
8.97863e-11
8.75588e-11
7.81955e-11
7.2996e-11
6.36793e-11
4.91619e-11
3.64318e-11
2.91819e-11
2.16354e-11
1.45585e-11
7.60173e-12
5.20472e-12
2.92323e-12
1.58331e-12
3.15856e-13
4.71208e-14
7.41599e-31
-1.95872e-33
1.2821e-36
1.17227e-37
-2.25303e-32
-4.13319e-35
-2.81633e-25
-3.30573e-25
-4.17815e-25
-4.87482e-25
-5.49015e-25
-5.49605e-25
-5.81899e-25
-7.00651e-25
-9.18411e-25
-1.19414e-24
-1.54896e-24
-1.50578e-36
-2.82133e-36
-1.1597e-35
9.24184e-35
2.27046e-29
5.09617e-33
8.67729e-30
-2.33163e-34
7.13401e-31
-1.35817e-24
-1.50574e-24
-1.74915e-24
-2.12297e-24
-2.72891e-24
-3.00244e-24
-3.21124e-24
-3.36462e-24
-3.36754e-24
-2.64426e-24
-2.47321e-24
-2.20136e-24
-4.93794e-24
-7.49122e-24
-6.48123e-24
-4.14268e-24
-2.62603e-24
-1.79993e-24
-5.55034e-24
-4.77083e-24
-2.13899e-24
-6.06625e-24
-8.91624e-24
-1.00215e-23
-1.60388e-23
-9.41129e-24
-1.88485e-23
-1.05655e-23
-1.54421e-23
-6.74064e-24
1.82463e-40
2.52418e-21
-2.93476e-23
-1.93563e-23
-3.7504e-23
-5.11741e-39
2.34499e-19
-8.55243e-24
-4.84239e-24
-3.47077e-24
-4.08714e-24
-5.83162e-24
-7.54752e-26
1.03763e-23
9.11236e-18
2.81952e-21
1.20688e-19
6.80257e-18
9.02566e-12
-5.76051e-25
-6.23301e-25
-5.3897e-25
-7.50619e-25
-1.05413e-24
-1.40247e-24
-1.97169e-24
-3.18632e-24
-3.9646e-24
-1.91138e-24
-1.59112e-24
-1.13468e-24
-1.61529e-24
-4.13611e-25
2.15585e-26
3.32369e-13
2.50246e-12
6.27576e-12
1.05538e-11
1.45383e-11
1.80927e-11
2.10729e-11
2.34101e-11
2.51121e-11
2.64512e-11
2.75805e-11
2.85378e-11
2.95661e-11
3.05423e-11
3.12509e-11
3.23994e-11
3.45576e-11
3.81158e-11
4.33169e-11
5.04562e-11
6.23918e-11
7.05273e-11
7.47895e-11
7.93279e-11
8.25783e-11
8.34855e-11
8.11896e-11
7.58209e-11
6.54735e-11
5.44812e-11
3.76001e-11
2.83091e-11
1.88083e-11
9.74015e-12
3.79001e-12
1.64371e-12
3.75581e-13
1.52113e-29
2.40717e-32
2.60785e-27
5.75431e-28
2.30292e-28
2.06664e-29
2.34005e-30
-2.01701e-25
-2.14121e-25
-2.21979e-25
-2.53517e-25
-3.66881e-25
-5.67563e-25
-7.22486e-25
-8.19736e-25
-9.652e-25
-1.07284e-24
-1.12067e-24
-1.06465e-24
-1.04703e-24
-1.14292e-24
-1.35743e-24
-1.624e-24
-1.86637e-24
-1.10706e-24
-9.63522e-25
-9.0803e-25
-9.17913e-25
-9.67852e-25
-1.02475e-24
-1.09198e-24
-1.045e-24
-9.23896e-25
-8.83507e-25
-8.97209e-25
-1.02039e-24
-1.22396e-24
-1.46839e-24
-1.66148e-24
-1.83172e-24
-1.94275e-24
-1.90635e-24
-1.60347e-24
-1.54663e-24
-1.96279e-24
-3.22113e-24
-4.26189e-24
-4.061e-24
-2.75101e-24
-2.22687e-24
-3.10034e-24
-4.17669e-24
-3.61243e-24
-2.70985e-24
-4.31138e-24
-6.90433e-24
-9.09957e-24
-1.01294e-23
-1.06701e-23
-1.25193e-23
-1.49149e-23
-1.42249e-23
-1.16957e-23
-1.0731e-23
-9.83837e-24
-2.55771e-23
-3.29627e-23
-4.0476e-23
-4.21213e-23
-2.59346e-23
-2.06284e-23
-1.59116e-23
-1.89506e-23
-3.2828e-23
-7.44781e-23
-4.27208e-23
5.21749e-37
1.77068e-23
3.02074e-21
5.48414e-19
1.49263e-17
5.91192e-12
-4.52651e-25
-5.02857e-25
-5.61246e-25
-6.81101e-25
-8.97576e-25
-1.20576e-24
-1.61648e-24
-2.21654e-24
-2.41565e-24
-1.57497e-24
-1.0793e-24
-1.24222e-24
-9.89555e-25
-5.29036e-25
1.41231e-33
3.56778e-13
3.25128e-12
9.16843e-12
1.70187e-11
2.53544e-11
3.34454e-11
4.06298e-11
4.60699e-11
4.93677e-11
5.17337e-11
5.39621e-11
5.6146e-11
5.81767e-11
5.99059e-11
6.10675e-11
6.24355e-11
6.49758e-11
6.85963e-11
7.22392e-11
7.51724e-11
7.70976e-11
7.71164e-11
7.54178e-11
7.25134e-11
6.50584e-11
5.68873e-11
4.58807e-11
3.41628e-11
2.21073e-11
1.34235e-11
4.55344e-12
1.46182e-12
1.39105e-13
1.55108e-33
-2.53704e-32
1.0684e-27
6.13544e-29
-1.87698e-25
-2.29267e-25
-2.54616e-25
-2.94294e-25
-3.5827e-25
-4.28954e-25
-4.58067e-25
-4.5131e-25
-4.37309e-25
-4.25977e-25
-4.57988e-25
-5.92163e-25
-7.8285e-25
-9.36097e-25
-1.03114e-24
-1.13664e-24
-1.2122e-24
-1.18857e-24
-1.08536e-24
-1.00748e-24
-1.01536e-24
-1.10107e-24
-1.21667e-24
-1.27012e-24
-1.01412e-24
-8.55073e-25
-7.23703e-25
-6.61842e-25
-6.15252e-25
-6.0181e-25
-5.69956e-25
-5.1954e-25
-4.48478e-25
-4.2899e-25
-4.30276e-25
-4.79909e-25
-5.62144e-25
-6.6222e-25
-7.45476e-25
-8.33669e-25
-8.99435e-25
-8.93181e-25
-7.69988e-25
-7.3423e-25
-9.69151e-25
-1.53222e-24
-2.03544e-24
-1.9762e-24
-1.35667e-24
-1.19266e-24
-1.73484e-24
-2.22106e-24
-1.93821e-24
-1.54005e-24
-1.99262e-24
-3.15543e-24
-4.32359e-24
-5.09862e-24
-5.57717e-24
-6.67983e-24
-8.46032e-24
-8.67354e-24
-7.39562e-24
-7.62791e-24
-1.11159e-23
-1.60368e-23
-2.27095e-23
-3.19573e-23
-3.98488e-23
-3.62675e-23
-2.61818e-23
-2.6005e-23
-3.91013e-23
-5.96758e-23
-7.21967e-23
-4.37415e-23
5.707e-36
1.01199e-22
6.58881e-21
1.13857e-18
2.40124e-16
8.27898e-13
-3.44688e-25
-3.91337e-25
-4.34302e-25
-4.93784e-25
-6.02585e-25
-7.7181e-25
-9.75981e-25
-1.14265e-24
-1.11521e-24
-8.66482e-25
-6.97459e-25
-7.88082e-25
-7.78916e-25
-6.99593e-25
-5.46886e-25
-9.65657e-33
1.82218e-13
1.09219e-12
3.37732e-12
8.11274e-12
1.53299e-11
2.43331e-11
3.37067e-11
4.19704e-11
4.83264e-11
5.33295e-11
5.74987e-11
6.14018e-11
6.47258e-11
6.66319e-11
6.73768e-11
6.84213e-11
6.97223e-11
7.04803e-11
6.82877e-11
6.34031e-11
5.62477e-11
4.63015e-11
3.51476e-11
2.3537e-11
1.53988e-11
8.01431e-12
3.23167e-12
5.55926e-13
-2.98058e-32
1.44679e-33
-2.39197e-32
1.83931e-32
-1.33038e-25
-1.97422e-25
-2.5821e-25
-3.23548e-25
-4.00014e-25
-4.44658e-25
-4.59024e-25
-4.94097e-25
-5.62436e-25
-6.22832e-25
-6.14784e-25
-5.63312e-25
-5.15804e-25
-4.78664e-25
-4.92403e-25
-5.86077e-25
-7.27432e-25
-8.25036e-25
-8.84259e-25
-9.19966e-25
-9.51744e-25
-8.92201e-25
-7.99363e-25
-7.17608e-25
-6.84256e-25
-6.85655e-25
-7.05737e-25
-6.84483e-25
-5.91781e-25
-4.90048e-25
-3.97443e-25
-3.50103e-25
-3.09429e-25
-2.92418e-25
-2.70043e-25
-2.46248e-25
-2.15036e-25
-2.05416e-25
-2.02967e-25
-2.18733e-25
-2.46485e-25
-2.81579e-25
-3.1286e-25
-3.53475e-25
-3.88618e-25
-3.92201e-25
-3.3854e-25
-3.23366e-25
-4.23584e-25
-6.70201e-25
-9.03434e-25
-9.03116e-25
-6.40836e-25
-5.70111e-25
-8.17978e-25
-1.07228e-24
-9.582e-25
-7.34928e-25
-8.78806e-25
-1.34429e-24
-1.86934e-24
-2.29913e-24
-2.59232e-24
-3.14915e-24
-4.20105e-24
-4.57733e-24
-3.8973e-24
-3.6748e-24
-5.27261e-24
-7.73893e-24
-1.15225e-23
-1.76906e-23
-2.48529e-23
-2.49084e-23
-1.79982e-23
-1.62786e-23
-2.42288e-23
-3.62222e-23
-4.31517e-23
-2.85025e-23
2.45944e-25
3.20927e-22
9.24166e-21
4.81393e-18
8.74667e-17
1.49857e-17
-2.67364e-25
-3.08728e-25
-3.41154e-25
-3.72878e-25
-4.27006e-25
-5.16151e-25
-6.1793e-25
-6.8609e-25
-6.79163e-25
-6.08237e-25
-5.80411e-25
-6.72043e-25
-7.53874e-25
-7.99818e-25
-7.33298e-25
4.13373e-34
7.90716e-15
8.97021e-14
3.50563e-13
1.02656e-12
2.46524e-12
5.1209e-12
9.3209e-12
1.45275e-11
2.00946e-11
2.58394e-11
3.14859e-11
3.67978e-11
4.12385e-11
4.37236e-11
4.37083e-11
4.30081e-11
4.14863e-11
3.83363e-11
3.17569e-11
2.39469e-11
1.62823e-11
8.79515e-12
3.78161e-12
8.22571e-13
2.4412e-14
1.07992e-29
1.17984e-27
9.2644e-32
-1.56866e-25
-1.88663e-25
-2.21625e-25
-2.43205e-25