/*--------------------------------*- C++ -*----------------------------------*\
| =========                 |                                                 |
| \\      /  F ield         | OpenFOAM: The Open Source CFD Toolbox           |
|  \\    /   O peration     | Version:  v1912                                 |
|   \\  /    A nd           | Website:  www.openfoam.com                      |
|    \\/     M anipulation  |                                                 |
\*---------------------------------------------------------------------------*/
FoamFile
{
    version     2.0;
    format      ascii;
    class       volScalarField;
    location    "40";
    object      p;
}
// * * * * * * * * * * * * * * * * * * * * * * * * * * * * * * * * * * * * * //

dimensions      [1 -1 -2 0 0 0 0];


internalField   nonuniform List<scalar> 
14268
(
13805.8
13562.8
13332.2
13109.2
12890.1
12667.7
12439.7
12205.1
11960.6
11710.1
11459.7
11220.2
10988.5
10744.8
10460.2
10148.5
9840.37
9566.08
9302.47
9043.53
8788.11
8525.46
8256.27
7981.7
7701.78
7439.62
7161.67
6982.86
6774.08
6566.7
6382.21
6212.83
5924.99
5655.21
5385.1
5459.12
5216.74
4774.28
4527.46
4303.1
4253.06
3899.01
3905.61
3803.45
3572.16
3460.39
3054.83
2836.41
2689.4
2700.87
2260.42
2234.47
2285.2
2294.62
1926.96
1689.46
1418.39
1335.49
1533.04
1569.44
1325.27
1164.14
1171.95
1282.51
1068.2
1019.05
994.574
1129.48
896.41
980.041
863.957
860.341
769.418
592.968
482.461
459.843
352.316
327.984
325.559
327.996
338.439
331.967
233.969
219.835
171.58
159.248
138.738
114.311
121.574
192.617
209.428
221.216
213.975
199.547
184.096
162.099
139.038
129.487
116.774
99.521
76.1706
73.422
64.7646
57.7337
13704.2
13461.2
13230.6
13007.7
12788.6
12566.2
12338.2
12103.5
11859
11608.5
11358.1
11118.6
10886.9
10643.1
10357.8
10045.2
9736.06
9459.89
9194.45
8934.57
8678.73
8416.16
8147.67
7874.81
7596.43
7331.42
7049.54
6866.06
6658.04
6450.1
6256.39
6076.83
5793.57
5539.86
5257.9
5304.16
5075.93
4648.49
4410.94
4176.07
4085.21
3755.05
3783.89
3655.55
3345.56
3176.9
2903.8
2730.89
2562.86
2557.7
2135.36
2086.39
2082.39
2104.06
1832.18
1634.96
1349.38
1212.01
1373.93
1467.11
1258.44
1095.25
1080.75
1212.21
1031.44
969
925.039
1082.75
824.316
885.042
776.484
763.989
702.773
560.422
449.688
410.49
327.816
304.343
291.956
285.867
291.079
303.29
223.806
210.391
158.026
143.552
123.698
103.095
112.072
174.559
198.596
205.602
196.023
179.961
169.524
148.414
128.098
120.527
109.619
91.5603
66.4219
61.3789
51.6586
46.5989
13602.6
13359.6
13129.1
12906.2
12687.1
12464.6
12236.7
12001.9
11757.4
11506.8
11256.5
11016.9
10785.2
10541.3
10255.9
9943.82
9635.02
9358.64
9093.14
8833.18
8577.01
8314.08
8045.31
7773.01
7495.04
7229.79
6947.94
6763.76
6556.28
6347.92
6151.71
5970.17
5687.28
5436.83
5161.67
5209.47
4982.23
4550.5
4309.65
4100.76
4003.84
3673.02
3698.23
3575.74
3271.98
3117.74
2824.46
2655.43
2499.14
2479.24
2075.25
2006.15
1976.29
2158.04
1825.79
1594.27
1314.12
1160.21
1325.29
1414.72
1217.73
1045.87
1053.99
1191.48
1009.73
954.076
906.909
1048.36
782.356
844.17
740.484
689.184
672.529
539.466
427.103
397.782
308.933
283.216
273.136
269.09
269.839
287.252
218.226
201.959
152.755
140.128
119.798
97.143
109.615
164.502
189.989
197.159
185.366
172.166
168.726
146.187
126.364
117.297
104.554
86.7359
63.6975
57.2824
39.9999
32.3148
13500.9
13258
13027.5
12804.7
12585.6
12363.1
12135.1
11900.4
11655.8
11405.2
11154.8
10915.3
10683.5
10439.5
10153.7
9841.18
9532.03
9253.89
8987.21
8726.5
8470.5
8207.48
7938.08
7665.59
7389.54
7121.34
6836.04
6645.83
6439.5
6230.39
6027.71
5837.02
5553.12
5310.76
5033.02
5086.25
4866.63
4442.77
4185.85
3954.26
3880.79
3550.42
3570.9
3429.24
3087.22
2924.99
2684.85
2545.79
2355.6
2383.61
2001.91
1916.18
1915.39
2047.17
1749.94
1555.57
1262.74
1106.07
1275.18
1350.42
1166.17
1008.99
1026.96
1148.98
983.858
901.175
789.898
1006.72
735.354
780.625
680.368
559.995
608.84
510.183
396.458
351.394
279.979
256.89
205.864
153.968
132.666
260.054
208.219
192.725
144.874
127.878
110.869
91.4659
98.8838
129.076
180.005
179.475
165.975
139.684
124.649
120.681
115.144
107.945
97.6947
79.4275
56.9061
52.9577
36.2649
11.5394
13399.2
13156.4
12925.9
12703.1
12484.1
12261.7
12033.6
11798.8
11554.2
11303.5
11053.2
10813.6
10581.7
10337.5
10052
9739.87
9430.79
9151.8
8884.47
8623.42
8368.07
8105.45
7835.79
7563.08
7284.13
7014.67
6727.71
6534.91
6329.44
6119.67
5917.29
5727.57
5449.73
5207.31
4949.63
4991.29
4773.79
4362.91
4072.37
3850.35
3805.27
3459.8
3484.04
3350.85
3043.56
2883.42
2631.97
2447.45
2272.77
2284.82
1952.51
1874.74
1820.79
1538.15
1706.55
1533.58
1226.96
1046.61
1207.93
1311.25
1136.57
969.703
838.344
1065.96
959.18
850.418
704.856
959.078
746.224
704.734
606.491
530.545
452.578
474.358
331.287
210.745
240.813
214.812
164.699
163.934
125.449
229.06
202.8
185.554
133.168
112.35
106.328
90.0779
82.7131
133.118
165.256
170.32
141.657
97.3131
86.7412
71.995
82.4039
90.9873
90.85
74.6803
53.3513
49.4129
37.5447
21.8183
13297.5
13054.8
12824.3
12601.6
12382.6
12160.2
11932.2
11697.3
11452.6
11201.8
10951.5
10711.9
10479.9
10235.6
9949.77
9637.33
9326.96
9044.29
8775.17
8513.77
8259.07
7997.97
7730.86
7457.61
7173
6897.59
6610.27
6419.93
6212.52
5997.68
5798.1
5622.23
5341.13
5100.9
4838.2
4859.61
4646.64
4253.11
3914.58
3734.62
3693.01
3352.81
3332.99
3181.06
2836.93
2632.26
2438.48
2315.32
2176.46
2161.52
1781.15
1771.6
1689.6
1067.31
1595.88
1493.18
1182.84
924.404
999.922
1214.09
1053.75
866.846
700.831
799.502
931.519
747.681
699.519
888.887
705.68
591.892
591.242
531.119
303.056
360.371
150.291
123.743
252.003
241.724
212.273
197.879
164.98
159.444
194.827
176.583
121.188
106.888
97.5306
85.9365
71.3794
136.075
113.107
162.679
128.547
82.3832
88.1921
63.1737
36.7683
43.2019
55.8514
57.7853
45.4664
44.9152
32.2928
26.8478
13195.8
12953.1
12722.7
12500.1
12281.1
12058.7
11830.7
11595.8
11351
11100.1
10849.8
10610.1
10378.1
10133.7
9847.91
9535.7
9222.49
8938.13
8669.29
8408.08
8151.52
7890.92
7625.53
7355.85
7066.97
6788.25
6505.96
6330.47
6122.81
5899.59
5704.87
5539.71
5265.59
5018.43
4756.26
4744.71
4542.96
4160.05
3835.22
3673.48
3607.88
3290.6
3241.29
3018.23
2609.5
2240.13
2320.26
2322.38
2229.2
2184.77
1718.12
1473.16
1442.55
1099.91
1498.23
1474.4
1145.3
652.527
621.05
1142.97
932.68
734.218
791.495
848.578
884.847
768.696
783.787
935.266
676.379
588.072
581.569
544.917
356.314
274.822
121.991
214.519
264.955
243.26
220.259
210.918
209.722
86.6171
187.049
166.746
122.45
109.911
97.9004
83.6755
92.4615
143.841
91.3962
158.121
132.815
100.579
132.453
111.861
81.2602
54.3683
28.998
21.1304
42.541
43.856
29.9421
27.2273
13094.1
12851.4
12621.1
12398.5
12179.6
11957.2
11729.2
11494.3
11249.4
10998.3
10748.1
10508.3
10276.2
10031.7
9745.61
9432.91
9116.36
8832.54
8565.36
8304.02
8044.63
7780.5
7514.44
7247.09
6966.87
6682.57
6404.55
6239.52
6030.09
5801.79
5609.05
5444.52
5168.5
4925.02
4645.78
4630.87
4433.89
4052.34
3787.25
3586.31
3476.54
3187.59
3160.09
2815.08
2294.93
2015.53
2250.95
2310.02
2193.54
2174.08
1724.32
1289.87
1164.36
1108.4
1314.02
1434.35
1084.33
425.767
485.696
920.561
811.664
711.755
893.417
1052.71
905.11
781.1
709.089
901.502
611.061
584.232
544.966
554.858
374.504
291.332
199.81
224.212
246.058
233.031
214.264
201.084
207.549
63.9693
177.118
160.435
118.26
101.221
93.8361
79.8592
90.4499
138.857
106.285
154.305
129.492
115.643
124.929
111.336
90.9748
73.6505
47.2453
46.9525
43.7318
39.4343
26.6949
21.8567
12992.3
12749.8
12519.4
12296.9
12078.1
11855.7
11627.8
11392.8
11147.8
10896.5
10646.3
10406.4
10174.2
9929.58
9643.42
9330.25
9013.47
8734.3
8468.92
8208.13
7947.49
7677.91
7406.99
7139.48
6869.9
6593.73
6318.52
6156.19
5947.51
5716.64
5522.75
5360.18
5085.68
4837.61
4562.18
4525.77
4359.57
3973.01
3744.24
3516.32
3366.97
3096.06
3121.44
2808.91
2282.23
2086.01
2195.5
2207.9
2145.23
2158.09
1726.9
1348.88
945.346
1188.73
989.128
1422.69
1003.8
419.042
417.069
653.65
825.492
765.642
910.747
1076.46
925.924
714.614
380.292
862.124
606.383
588.477
527.729
534.432
399.477
321.322
256.682
212.434
182.816
222.086
209.706
196.411
199.6
93.8398
122.128
152.358
112.35
97.9628
90.137
76.984
83.1111
120.857
124.277
151.213
133.263
123.915
92.4273
98.261
91.9468
84.7487
73.6603
61.357
42.6197
37.1367
25.7788
20.5549
12890.5
12648.1
12417.8
12195.3
11976.6
11754.3
11526.3
11291.3
11046.2
10794.7
10544.6
10304.5
10072.3
9827.45
9541.31
9227.24
8911.73
8634.85
8369.61
8109.54
7851.37
7580.52
7302.52
7029.73
6765.92
6502.2
6228.98
6069.14
5858.47
5623.8
5430.4
5267.96
4986.33
4738.22
4454.57
4408.81
4273.59
3889.23
3682.3
3429.08
3263.76
2996.6
3033.22
2770.35
2301.24
2021.85
2055.44
2094.31
2028.84
2044.22
1635.27
1442.2
924.537
1236.8
550.721
1374.32
905.795
370.742
415.447
562.921
887.452
776.071
875.365
1053.21
884.827
481.45
279.968
783.911
587.459
574.065
508.978
513.151
411.907
306.4
249.614
227.615
173.144
176.019
206.164
188.322
192.839
126.308
50.5458
93.9391
95.6247
88.5324
84.6186
73.122
67.6682
78.0487
143.309
141.704
126.785
118.805
67.1012
64.1415
86.954
82.4463
75.4933
57.681
36.9275
33.0352
23.0723
17.0632
12788.7
12546.3
12316.1
12093.8
11875.1
11652.8
11424.9
11189.9
10944.6
10692.8
10442.8
10202.6
9970.24
9725.38
9439.53
9125.09
8811.62
8535.62
8269.5
8010.4
7756.19
7487.85
7208.02
6927.74
6662.43
6406.89
6145.9
5987.93
5777.88
5540.41
5343.6
5179.73
4899.63
4643.44
4368.77
4276.66
4194.07
3823.18
3621.57
3367.22
3194.87
2919.05
2976.76
2811.89
2349.79
2051.15
1973.9
1991.34
1948.22
1954.8
1561.23
1553.2
1009.26
1344.57
446.812
885.722
547.171
370.66
505.498
389.449
919.443
774.444
863.652
1045.28
839.781
292.524
350.676
398.6
511.328
557.209
491.323
496.873
397.718
278.734
240.864
237.887
228.015
158.936
201.497
185.792
189.129
148.776
74.7871
-6.10374
55.2399
69.3799
81.2644
71.2352
1.22184
73.541
131.49
135.407
121.429
113.389
78.7845
39.2513
64.3763
76.1062
71.6708
54.331
34.911
31.3797
21.6482
16.5393
12686.9
12444.6
12214.4
11992.2
11773.6
11551.4
11323.5
11088.4
10842.9
10591
10341
10100.6
9868.19
9623.17
9337.75
9022.83
8710.52
8432.05
8165.1
7906.82
7656.09
7393.2
7115.58
6832.67
6563.64
6308.68
6056.99
5895.77
5685.93
5449.92
5251.32
5087.23
4801.94
4544.74
4269.56
4159.62
4079.32
3728.87
3545.37
3288.03
3110.45
2804.02
2895.13
2825.93
2274.27
2010.95
1873.15
1779.71
1862.36
1843.67
1474.94
1504.18
1029.46
1486.89
520.932
445.503
95.1217
492.55
629.394
298.424
837.477
746.052
802.227
1021.44
705.903
329.985
372
32.3142
333.21
529.439
470.369
480.074
376.261
267.162
235.238
228.283
222.055
158.563
196.38
175.34
182.41
140.163
108.368
-14.4859
44.5547
44.3606
61.575
62.8362
-22.6948
79.5045
78.9221
119.694
112.341
104.426
90.1694
46.0183
21.7113
60.8072
65.7465
47.6078
30.2589
27.723
18.4282
13.5228
12585.1
12342.9
12112.7
11890.6
11672.1
11450
11222.1
10986.9
10741.3
10489.1
10239.2
9998.58
9766.1
9520.96
9235.44
8921.13
8609.61
8329.38
8062.79
7803.88
7553.66
7296.62
7024.75
6743.6
6472.67
6217.82
5967.6
5802.17
5594.39
5366.58
5162.11
4996.86
4711.77
4450.88
4184.22
4067.48
3970.59
3626.67
3463.68
3215.85
3030.98
2701.21
2754.65
2704.14
2108.83
2021.51
1919
1652.8
1770.54
1786.52
1416.92
1457.09
1107.35
1502.59
680.072
529.245
201.259
665.597
814.119
433.722
732.246
723.13
478.303
864.37
436.783
396.627
449.708
144.669
338.654
524.935
456.725
468.809
357.36
256.364
231.442
226.318
212.172
159.594
183.534
132.409
168.96
133.544
114.618
11.1639
78.9772
26.5607
29.3896
42.4436
24.0458
84.354
58.1596
77.7987
105.51
89.9033
99.2191
74.9243
23.7659
17.357
62.702
28.1843
12.4987
21.9412
17.0453
13.1289
12483.2
12241.1
12011
11789
11570.6
11348.5
11120.7
10885.5
10639.6
10387.3
10137.4
9896.54
9663.96
9418.7
9132.8
8819.43
8507.97
8227.54
7962.35
7702.63
7450.11
7195.04
6930.18
6651.58
6382.23
6128.09
5874.82
5700.08
5492.47
5271.76
5069.02
4903.08
4614.3
4355.45
4074.13
3914.46
3839.31
3502.13
3354.98
3104.89
2933.25
2582.19
2521.95
2532.56
1958.71
2018.42
1913.9
1656.22
1708.29
1677.09
1319.38
1384.74
1097.32
1409.68
757.47
650.507
590.308
683.212
840.196
656.752
762.615
640.205
129.112
666.096
426.043
458.514
505.053
204.334
462.241
494.003
446.815
446.864
341.894
241.405
225.877
218.619
207.695
183.17
146.177
96.8384
140.749
125.854
111.542
44.9506
82.1496
24.5669
15.5621
11.2144
54.6971
90.9199
71.9875
50.8973
95.2214
73.38
93.4593
86.0675
33.0561
-15.8862
45.2974
3.79772
-4.73208
11.5696
13.8517
10.6308
12330.4
12088.5
11858.4
11636.5
11418.3
11196.4
10968.6
10733.3
10487.1
10234.4
9984.64
9743.47
9510.68
9265.33
8979.12
8667.06
8355.21
8077.55
7814.33
7553.97
7297.02
7043.11
6784.62
6512.44
6244.85
5996.95
5735.85
5554.09
5349.38
5132.46
4929.93
4761.68
4475.31
4211.91
3928.33
3660.9
3672.59
3304.22
3146.59
2893.01
2780.74
2428.05
2174.08
2202.98
1815.38
1944.14
1870.95
1703.79
1751.77
1545.06
1185.44
1344.83
1149.27
1267.22
979.606
864.8
737.99
646.833
816.908
890.122
799.809
352.329
19.6269
479.441
517.509
561.903
511.7
314.735
411.656
281.493
415.898
432.312
326.553
222.214
213.159
214.033
195.746
190.078
135.322
108.631
126.769
107.433
104.539
88.662
83.6058
47.545
25.2918
15.1914
59.392
89.3966
96.3923
74.5529
64.819
68.2698
86.7274
85.7308
56.2882
-18.054
-20.3434
-24.1952
-6.44947
15.1679
12.1125
10.0667
12126.6
11884.9
11654.8
11433.3
11215.3
10993.6
10765.9
10530.3
10283.8
10030.8
9781.07
9539.26
9306.3
9060.72
8775.42
8464.22
8149.88
7876.44
7615.02
7356.48
7099.72
6842.33
6586.97
6316.3
6045.32
5800.19
5538.46
5344.82
5143.41
4925.61
4729.97
4571.39
4280.22
4017.95
3698.86
3211.26
3430.62
3036.89
2929.66
2712.43
2586.35
2236.05
1853.74
1613.84
1616.89
1719.21
1671.9
1722.69
1641.89
1506.46
1248.19
1308.24
1166.15
1093.75
1082.2
886.92
641.122
575.733
730.194
711.709
727.397
245.939
111.709
458.001
543.431
536.659
482.14
509.24
244.709
-88.7841
272.776
406.371
302.303
211.494
189.738
198.545
187.721
180.681
146.674
152.04
112.776
96.1166
92.9738
89.9983
77.7851
68.1897
62.3329
50.9883
55.6089
72.6555
91.0007
96.1449
43.2162
64.1289
83.0325
74.6126
67.2482
4.83374
-26.0432
-13.2982
19.1661
24.6292
13.1901
8.7186
11922.7
11681.3
11451.2
11230
11012.3
10790.8
10563.1
10327.4
10080.4
9827.03
9577.54
9335
9101.58
8855.99
8571.77
8261.07
7945.99
7676.92
7416.41
7159.16
6904.03
6645.44
6390.81
6128.01
5851.98
5599.38
5338.52
5144.08
4947.37
4730.1
4525.8
4378.95
4089.29
3829.49
3493.33
2846.24
3244.14
2990.44
2816.65
2584.7
2424.16
2098.49
1778.74
1478.39
1598.6
1635.59
1539.23
1550.61
1473.27
850.152
1017.59
1222.58
1147.23
1091.66
1046.58
854.686
563.086
578.374
672.327
266.844
699.861
182.081
230.77
514.2
544.016
498.954
456.913
552.377
359.258
10.3296
-72.0945
372.802
284.663
203.854
190.687
193.743
121.175
159.372
157.06
120.709
64.6818
102.242
92.5092
83.4218
68.7435
62.6369
56.9387
50.4621
51.8016
62.328
50.585
85.4843
50.9617
63.6482
70.6115
68.6439
60.3961
22.4126
-12.7349
-0.343107
15.5885
21.3504
9.78584
6.45578
11718.7
11477.6
11247.6
11026.7
10809.3
10588.1
10360.6
10124.5
9877.21
9623.46
9374.22
9130.63
8897.01
8651.25
8367.69
8056.49
7742.02
7475.54
7215.62
6959.97
6707.53
6448.77
6191.97
5935.87
5664.77
5405.55
5134.06
4950.04
4753.02
4533.23
4319.46
4184.42
3890.58
3645.1
3337.29
2775.89
3056.2
2898.43
2727.9
2369.37
2259.02
1945.87
1722.29
1427.37
1495.65
1567.35
1427.24
1426.67
1217.56
345.964
358.518
1085.02
1034.99
1011.47
898.528
829.069
581.88
547.388
608.431
184.682
669.927
491.024
390.24
576.11
513.88
352.374
429.114
524.97
375.741
141.184
-307.675
228.711
267.476
194.795
189.303
171.348
65.2631
73.1292
132.173
46.5102
66.5772
99.5129
93.6512
71.8093
60.3781
51.562
47.6614
45.1744
44.2046
46.6482
-43.6065
37.896
59.7563
59.4102
46.6033
60.3193
53.2237
34.2157
-3.54091
2.17269
-4.65998
9.05156
5.52576
2.93997
11514.7
11273.9
11044
10823.4
10606.3
10385.3
10157.8
9921.56
9674.02
9419.88
9170.72
8926.51
8692.21
8446.45
8164.15
7851.7
7539.86
7274.03
7015.35
6760.44
6510.6
6251.65
5990.94
5738.77
5477.43
5219.16
4940.99
4769.42
4573.9
4352.57
4131.37
3988.52
3693.01
3453.54
3218.57
2615.61
2843.48
2722.42
2594.74
2148.29
2097.23
1810.38
1650.42
1406.22
1421.77
1501.38
1388.95
1192.15
948.495
478.262
274.745
1038.36
961.4
940.796
722.038
765.29
540.61
509.829
454.553
254.863
626.291
524.588
458.84
604.405
496.533
92.408
362.036
496.822
370.891
285.033
-244.873
2.18417
244.276
180.58
166.836
142.071
40.6527
-16.6331
34.0335
0.654548
59.7081
89.0067
87.295
63.9353
55.1812
41.0518
33.6831
40.0669
40.945
-8.13337
-58.0345
-19.6752
61.2754
55.1326
19.6358
32.7887
47.763
39.0361
13.669
11.7907
-14.9213
-17.7493
0.612495
1.71502
11310.5
11070
10840.4
10620.1
10403.3
10182.6
9955.18
9718.72
9470.99
9216.72
8967.21
8722.6
8487.37
8241.57
7959.75
7646.34
7336.2
7070.88
6813.48
6559.78
6311.95
6054.75
5792.17
5535.31
5280.56
5026.26
4751.95
4581.02
4385.57
4155.94
3940.86
3790.84
3496.81
3269.1
3082.53
2489.25
2499.61
2510.86
2408.73
1976.89
1920.88
1643.1
1550.77
1327.15
1309
1382.24
1295.3
532.287
656.075
526.088
405.361
892.596
944.901
891.558
650.666
712.893
500.785
480.199
284.395
262.016
569.485
486.554
419.218
508.61
474.306
78.2112
193.149
463.006
347.781
327.609
-123.327
-131.599
142.778
169.015
130.371
108.019
38.4722
-7.89033
-4.73272
-0.308881
53.9807
68.3894
81.8846
46.4204
43.0135
15.3548
1.1619
31.7627
33.3116
-51.2589
-48.6825
-51.4187
54.5395
50.1619
15.0342
-9.38782
24.9349
32.5358
16.8913
10.0465
-8.20075
-33.8507
-13.1136
-3.35869
11106.6
10866
10636.7
10416.8
10200.3
9979.86
9752.37
9515.91
9268.01
9013.65
8763.6
8518.65
8282.98
8036.68
7754.9
7442.52
7135
6867.1
6611.92
6358.34
6111.83
5856.87
5596.76
5340.52
5086.01
4832.83
4560.39
4385.57
4192.14
3969.57
3754.82
3595.71
3305.82
3095.59
2934.92
2405.33
2174.6
2312.86
2244.16
1840.32
1733.03
1470.03
1440.05
1234.73
1182.86
1211.83
1193.56
421.868
262.314
570.549
571.05
767.84
898.771
840.696
705.741
657.623
469.117
452.476
275.649
289.768
510.893
489.648
386.16
428.764
446.076
148.256
102.366
379.232
329.978
313.544
-31.2397
-127.858
30.744
160.984
119.329
89.7885
48.3439
5.3544
-2.77836
8.19728
49.1822
49.0255
76.3761
9.77278
21.3746
12.3619
4.03904
18.2514
29.2848
-56.0027
-42.1452
-42.5065
44.3841
45.9643
15.9513
-22.4767
1.24437
27.0842
15.2588
9.45288
-1.66271
-27.1301
-15.0134
-6.21693
9878.87
9640.04
9415.28
9200.31
8988.6
8771.27
8546.6
8311.4
8065.57
7815.11
7562.56
7317.18
7074.67
6832.8
6551.79
6252.25
5944.83
5678.01
5432.71
5184.14
4948.49
4712.46
4467.38
4201.15
3934.85
3680.85
3411.58
3245.38
3092.48
2868.85
2722.31
2589.51
2415.34
2285.76
2131.44
1897.17
1531.49
1416.92
1354.28
1188.98
1063.83
844.454
919.712
659.23
524.472
678.607
678.511
602.581
427.022
680.324
586.732
442.151
452.392
498.673
366.346
392.689
308.819
280.813
272.719
227.35
298.299
267.054
202.494
237.857
195.117
179.268
252.939
183.215
205.737
228.413
216.221
63.6393
58.4002
97.6751
111.999
90.5634
80.1822
68.1932
57.4279
36.7589
41.797
14.6323
17.9408
7.04627
11.4443
14.6855
12.2031
2.17274
5.76415
7.60446
13.2578
23.2437
11.4132
18.2391
19.5801
5.26444
4.10042
5.35751
0.603252
-0.307343
-0.842434
-11.8661
-8.89468
-9.37378
7622.33
7387.58
7171.19
6968.03
6769.7
6561.32
6343.07
6114.64
5872.75
5619.88
5380.11
5142.47
4912.25
4663.06
4379.71
4079.53
3785.49
3523.31
3281.44
3055.08
2831.39
2619.26
2404.34
2170.59
1904.03
1659.55
1463.16
1413.1
1345.19
1174.32
1075.32
1026.23
1028.52
953.637
797.788
707.561
524.401
307.337
222.297
202.385
197.403
224.81
150.101
134.508
-20.1894
96.003
154.19
95.5026
73.4187
69.5839
78.3872
81.9018
72.37
60.9088
43.7137
58.9072
82.3983
37.9201
15.2583
29.4251
61.716
69.0537
48.0524
54.7536
105.703
52.2698
84.7415
107.928
80.4228
58.9373
36.3216
25.397
17.4759
26.4708
16.8035
20.6685
28.2075
18.0318
11.4317
6.98368
2.83108
-3.79255
-16.0378
-12.4444
-9.5384
-6.02765
-6.15282
-8.47432
-15.4245
-16.3364
-12.7409
-10.2137
-11.2488
-11.7618
-8.51137
-10.1729
-9.98242
-10.7447
-11.1765
-9.12128
-6.9609
-6.39522
-10.0103
-11.1412
5375.87
5149.28
4944.28
4756.4
4565.44
4363.06
4150.51
3929.75
3700.12
3463.36
3222.06
2976.94
2737.59
2502.7
2246.82
1986.89
1757.87
1556.33
1362.64
1157.65
1002.72
911.313
804.959
654.139
497.02
374.837
331.279
346.609
326.733
199.144
137.484
160.994
194.586
183.881
132.313
71.3101
17.7872
-4.92146
17.4486
34.8646
43.1145
29.9907
4.00785
-17.1287
-22.0346
3.3441
3.28026
-9.99487
-13.1209
-4.84395
4.62062
1.60617
-5.91088
-6.75565
-2.37114
7.35544
7.46006
-14.5217
-21.5324
-9.93052
2.508
5.51642
0.456696
3.89655
3.77472
-26.3892
-29.1605
-7.19348
-3.93051
2.33196
4.06793
0.0463776
-3.51961
-7.24023
-18.9124
-19.7836
-16.5016
-12.8353
-13.7218
-17.0922
-18.54
-19.376
-20.9032
-20.8238
-17.8552
-15.2293
-15.2025
-16.6054
-18.3519
-19.036
-18.9979
-18.4138
-17.7338
-18.4268
-22.415
-21.2826
-20.0782
-18.8608
-17.4122
-17.5565
-18.0531
-19.0885
-18.1566
-17.4433
3147.31
2937.63
2752.76
2585.47
2425.28
2260.02
2089.22
1906.94
1711.73
1499.13
1302.51
1146.55
997.889
837.583
679.095
535.924
425.019
342.617
263.843
187.898
143.851
123.334
100.417
70.7139
42.5457
33.6392
40.4487
41.5358
28.7803
13.7551
8.21335
10.5785
13.7621
9.72608
0.825728
-3.69317
-8.79781
-9.55485
-5.06369
0.416725
6.49169
4.64145
-0.598818
-11.8836
-12.7653
-6.91406
-4.06582
-7.37334
-10.4696
-9.23526
-7.08796
-5.99983
-7.30223
-11.8685
-12.5094
-9.73268
-9.30064
-14.1881
-15.9699
-13.2726
-7.26095
-4.42317
-6.51811
-9.26015
-18.0074
-31.4488
-29.4887
-20.8846
-12.298
-6.38524
-4.00428
-5.77073
-9.37805
-15.8758
-23.9602
-24.9439
-20.1445
-16.6773
-15.6145
-15.9057
-16.9654
-19.7911
-22.9283
-23.1075
-21.1406
-18.6506
-17.6219
-18.344
-20.4856
-21.6654
-20.659
-20.7948
-22.434
-24.967
-25.871
-23.2767
-21.3542
-22.1851
-22.2342
-22.0722
-21.6392
-21.107
-20.9277
-20.2247
1289.61
1160.14
1021.46
898.464
787.215
687.75
599.985
520.077
430.809
334.284
252.323
191.685
143.894
104.436
74.2767
53.5632
42.7652
33.7723
23.7744
14.2769
9.56936
7.52724
5.37341
1.9006
-0.916569
-1.32295
0.136231
1.49002
1.62873
-1.76659
-5.75805
-6.86196
-6.01613
-6.40947
-8.05224
-10.0177
-11.1914
-10.3404
-8.07887
-5.39349
-4.96702
-5.37636
-7.39255
-10.8718
-11.6196
-11.2398
-10.6305
-11.4522
-12.2884
-11.5597
-10.3574
-10.1801
-10.8495
-11.6592
-11.3524
-11.3946
-11.2092
-12.5351
-15.3466
-14.9899
-13.2865
-12.4406
-13.0213
-15.1659
-18.8954
-24.8594
-26.0083
-22.1002
-16.139
-11.8834
-10.6019
-11.5591
-14.113
-18.2472
-22.8119
-24.9456
-23.5646
-21.9259
-21.7243
-22.8853
-23.74
-24.0737
-24.3699
-24.2001
-23.0336
-22.1184
-22.1083
-22.9691
-24.0522
-24.5655
-24.7742
-25.7986
-25.8086
-26.1665
-27.0251
-26.8778
-26.3594
-25.7898
-25.4856
-25.2623
-24.9473
-24.3463
-25.019
-24.9143
242.646
211.404
173.662
130.98
95.4442
74.123
60.8598
48.5992
37.4098
28.4179
21.9634
17.7152
12.4462
7.7891
3.95414
1.34458
-0.401279
-2.00551
-3.44506
-4.61472
-5.19968
-5.39081
-5.47548
-5.77123
-6.2421
-6.29052
-5.80659
-4.96767
-5.38742
-6.96434
-8.04041
-8.4131
-8.44814
-8.93706
-9.66186
-10.7603
-10.8138
-10.3269
-9.79684
-9.26152
-8.83389
-9.05003
-10.4026
-12.0646
-13.3729
-13.7688
-13.5158
-13.6545
-13.8263
-13.8635
-13.836
-14.0406
-14.5218
-15.8076
-16.2382
-16.2945
-16.3523
-16.6898
-17.7759
-17.6846
-17.6339
-16.9068
-17.2513
-18.529
-19.7504
-22.4155
-23.4277
-20.9162
-18.558
-16.7093
-16.0909
-16.1456
-18.18
-20.7078
-23.0261
-24.603
-24.0737
-23.2099
-22.8877
-23.176
-24.0587
-24.856
-25.7418
-26.0789
-25.7086
-25.3043
-25.1077
-25.533
-26.2963
-27.0117
-27.5363
-27.8949
-28.1066
-28.453
-28.9967
-28.5108
-27.6554
-27.2052
-27.0864
-26.6024
-26.2755
-26.0478
-26.1249
-26.2751
24.6739
18.84
13.5252
6.95435
2.09803
-0.159475
-1.63149
-3.30907
-4.7135
-5.47671
-5.98803
-6.15439
-5.91148
-5.8539
-5.97036
-6.16445
-6.44041
-6.61944
-7.02236
-7.58043
-8.10023
-8.39714
-8.58085
-8.77751
-9.04765
-9.18664
-9.3216
-9.47312
-10.0854
-10.7199
-11.4997
-12.268
-12.9055
-13.3839
-13.8925
-14.1594
-14.1001
-13.9729
-13.6755
-13.2285
-13.3332
-13.8158
-14.6847
-15.6761
-16.1605
-16.3852
-16.6574
-16.7178
-17.0799
-17.1267
-17.0448
-17.1988
-17.6677
-17.9614
-17.8937
-17.6865
-17.9531
-18.501
-19.2716
-19.4721
-19.5357
-19.2798
-19.7283
-20.6891
-21.5847
-22.6149
-23.4002
-22.2587
-21.6675
-21.1816
-21.1098
-21.0869
-22.1873
-23.6529
-24.9385
-26.7062
-27.0943
-27.2668
-27.3817
-27.8313
-28.086
-28.3378
-28.5818
-28.53
-28.2305
-28.1038
-28.1479
-28.8015
-29.5336
-29.9578
-30.5562
-31.0309
-31.0153
-31.0628
-31.1801
-30.8017
-30.0793
-29.4937
-29.3704
-29.5333
-29.0874
-28.6269
-28.7318
-28.8645
-3.68727
-4.03373
-4.85219
-6.25616
-7.55643
-8.46223
-9.04698
-9.33697
-9.44917
-9.45042
-9.33901
-9.1495
-8.94899
-8.92992
-9.02081
-9.2213
-9.53744
-9.99046
-10.538
-11.0394
-11.431
-11.7123
-11.8987
-12.0894
-12.2523
-12.388
-12.7417
-13.2107
-13.8058
-14.5185
-15.2518
-15.6745
-15.8497
-15.9756
-16.0461
-16.0281
-15.99
-15.9142
-15.8905
-15.7626
-16.0447
-16.454
-17.0616
-17.549
-18.0124
-18.4012
-18.5336
-18.819
-19.1017
-19.3933
-19.8193
-20.182
-20.7278
-21.0334
-21.0285
-21.032
-21.2216
-21.4989
-22.0071
-22.1873
-22.3299
-22.2898
-22.7767
-23.5485
-24.25
-24.9332
-25.6604
-25.4645
-24.9555
-24.4051
-24.1869
-24.5123
-25.2415
-26.4302
-27.3713
-28.552
-28.6061
-28.3064
-28.4792
-28.6304
-28.9283
-29.385
-29.8443
-30.1325
-30.2417
-30.4507
-30.7869
-31.3494
-31.7535
-32.219
-32.7582
-33.1782
-33.243
-33.4271
-33.2679
-32.837
-32.0013
-31.3792
-31.1398
-30.6652
-30.1252
-30.3557
-30.668
-30.8927
-8.16601
-8.42764
-9.09363
-9.58448
-10.0362
-10.6084
-11.056
-11.352
-11.587
-11.7987
-11.9682
-12.0901
-12.2044
-12.3241
-12.4596
-12.6383
-12.9066
-13.2173
-13.5322
-13.8149
-14.098
-14.3589
-14.5446
-14.7511
-15.0813
-15.4669
-15.9371
-16.5891
-17.3862
-18.0021
-18.3381
-18.3489
-18.3249
-18.3532
-18.3943
-18.4552
-18.6351
-18.8246
-19.0398
-19.2475
-19.6399
-20.0611
-20.3402
-20.5434
-20.7832
-21.1326
-21.38
-21.7072
-22.0907
-22.4513
-22.8333
-22.7678
-22.5878
-22.4827
-22.5191
-22.6823
-23.0495
-23.5209
-23.9673
-24.2773
-24.4699
-24.6848
-25.1031
-25.7155
-26.3751
-27.1238
-27.8232
-27.6772
-27.3163
-27.0631
-26.8472
-27.2278
-27.9458
-28.871
-29.4863
-30.0398
-30.3525
-30.4003
-30.751
-31.2143
-31.8893
-32.316
-32.6264
-32.8117
-32.9179
-33.0387
-33.3244
-33.6105
-33.946
-34.4669
-35.2047
-35.6364
-35.8095
-35.8687
-35.4581
-34.9241
-34.0999
-33.4786
-33.1306
-32.9833
-32.8752
-32.9143
-33.199
-33.6777
-12.1839
-12.4819
-12.6934
-12.9413
-13.2397
-13.5501
-13.8927
-14.1976
-14.4544
-14.6784
-14.8355
-14.9503
-15.0156
-15.0759
-15.1518
-15.3084
-15.5487
-15.8368
-16.1731
-16.4926
-16.7708
-17.0239
-17.2853
-17.5548
-17.8567
-18.3254
-19.0121
-19.8135
-20.3346
-20.3095
-20.0629
-19.8501
-19.8581
-20.0388
-20.3491
-20.6872
-21.0352
-21.3674
-21.6401
-21.7653
-21.7506
-21.5748
-21.8457
-22.2206
-22.6481
-23.0297
-23.3572
-23.6885
-24.0536
-24.3255
-24.384
-24.2839
-24.2986
-24.5518
-24.9875
-25.4666
-25.9063
-26.2432
-26.6151
-26.8639
-27.1085
-27.332
-27.6552
-28.105
-28.5642
-28.963
-29.1909
-29.3361
-29.3317
-29.3507
-29.4458
-29.6603
-30.0173
-30.595
-31.0868
-31.5706
-31.9166
-32.2488
-32.6838
-33.1071
-33.4834
-33.8567
-34.2291
-34.4544
-34.6663
-34.9365
-35.2297
-35.5121
-35.9378
-36.4758
-37.3037
-37.5892
-37.9206
-37.9527
-37.6245
-37.085
-36.3645
-35.6859
-35.375
-35.1221
-34.9342
-35.012
-35.454
-36.2661
-15.0004
-15.1261
-15.3011
-15.5182
-15.758
-16.0744
-16.4063
-16.6773
-16.9113
-17.1121
-17.2835
-17.4222
-17.5513
-17.6965
-17.8766
-18.0953
-18.3679
-18.6367
-18.894
-19.145
-19.3854
-19.635
-19.8912
-20.1907
-20.5506
-20.988
-21.6163
-21.9379
-21.8774
-21.708
-21.6969
-21.9525
-22.3841
-22.758
-23.1212
-23.4887
-23.8849
-24.0965
-24.0781
-23.9535
-23.8597
-24.0144
-24.395
-24.8678
-25.3771
-25.7866
-26.0934
-26.294
-26.4176
-26.3943
-26.3625
-26.4898
-26.7568
-27.1216
-27.5574
-27.9099
-28.2294
-28.5897
-28.9252
-29.2348
-29.481
-29.6922
-29.8928
-30.0857
-30.2525
-30.3206
-30.4731
-30.7057
-30.9156
-31.1748
-31.4833
-31.8998
-32.3379
-32.8835
-33.4497
-33.988
-34.5186
-34.9461
-35.4099
-35.8543
-36.2278
-36.5426
-36.827
-37.0697
-37.2462
-37.4185
-37.6651
-38.0326
-38.4792
-39.0038
-39.5966
-39.8449
-40.0138
-40.0397
-39.8123
-39.2663
-38.6883
-38.0887
-37.7415
-37.5136
-37.3464
-37.6449
-38.2374
-39.4712
-17.6651
-17.8868
-18.0987
-18.2941
-18.5119
-18.7618
-19.006
-19.2519
-19.4896
-19.7071
-19.9054
-20.0795
-20.2413
-20.4175
-20.6375
-20.8798
-21.126
-21.3638
-21.5929
-21.8041
-22.0341
-22.2947
-22.585
-22.8892
-23.2341
-23.5037
-23.5856
-23.6701
-23.7232
-23.9187
-24.271
-24.6125
-24.9087
-25.1976
-25.4809
-25.7411
-25.9128
-25.9113
-25.8336
-25.853
-26.0325
-26.3651
-26.7687
-27.1658
-27.5616
-27.8766
-28.1312
-28.3005
-28.3742
-28.4913
-28.7264
-29.0619
-29.4512
-29.8418
-30.2257
-30.5623
-30.8737
-31.15
-31.4167
-31.6418
-31.8138
-31.9632
-32.0742
-32.1872
-32.4105
-32.6256
-32.8839
-33.1756
-33.4974
-33.7618
-34.1359
-34.531
-34.9305
-35.3938
-35.8393
-36.2562
-36.6603
-37.067
-37.4326
-37.7537
-38.0518
-38.3217
-38.5765
-38.8859
-39.1189
-39.4109
-39.8201
-40.2562
-40.6681
-41.1339
-41.5727
-41.846
-42.0014
-42.0391
-41.8657
-41.4478
-40.9808
-40.55
-40.1984
-39.9011
-39.7503
-40.3359
-41.0979
-42.3661
-20.2994
-20.4937
-20.6609
-20.8514
-21.0743
-21.322
-21.5791
-21.8231
-22.0507
-22.2666
-22.4776
-22.6786
-22.9016
-23.1569
-23.4561
-23.7676
-24.0118
-24.1876
-24.3129
-24.4698
-24.6779
-24.9168
-25.1828
-25.4858
-25.7576
-25.943
-26.0108
-26.0493
-26.2318
-26.5592
-26.8815
-27.152
-27.433
-27.7308
-27.962
-28.0659
-28.1069
-28.2033
-28.3679
-28.609
-28.9436
-29.2604
-29.5932
-29.9485
-30.2671
-30.5326
-30.751
-30.9307
-31.1135
-31.3298
-31.5857
-31.8402
-32.133
-32.447
-32.7204
-32.9462
-33.1686
-33.3678
-33.5319
-33.663
-33.7787
-33.9402
-34.1414
-34.3919
-34.7055
-35.0044
-35.3024
-35.6319
-35.9404
-36.2157
-36.5066
-36.8523
-37.2505
-37.6751
-38.1218
-38.5447
-38.9664
-39.3478
-39.7012
-40.0609
-40.4032
-40.7512
-41.09
-41.3674
-41.6442
-41.9773
-42.3797
-42.7778
-43.141
-43.5024
-43.8252
-44.0015
-44.0802
-44.103
-43.9666
-43.6695
-43.2941
-42.9593
-42.6608
-42.4181
-42.6229
-43.2534
-44.3941
-45.3928
-22.9383
-23.1541
-23.3639
-23.5794
-23.7935
-24.0193
-24.2462
-24.4748
-24.7021
-24.9207
-25.1502
-25.3866
-25.6573
-25.948
-26.3177
-26.6309
-26.8117