/*--------------------------------*- C++ -*----------------------------------*\
| =========                 |                                                 |
| \\      /  F ield         | OpenFOAM: The Open Source CFD Toolbox           |
|  \\    /   O peration     | Version:  v1912                                 |
|   \\  /    A nd           | Website:  www.openfoam.com                      |
|    \\/     M anipulation  |                                                 |
\*---------------------------------------------------------------------------*/
FoamFile
{
    version     2.0;
    format      ascii;
    class       volScalarField;
    location    "50";
    object      alpha.water;
}
// * * * * * * * * * * * * * * * * * * * * * * * * * * * * * * * * * * * * * //

dimensions      [0 0 0 0 0 0 0];


internalField   nonuniform List<scalar> 
14268
(
1
1
1
1
1
1
1
1
1
1
1
1
1
1
1
1
1
1
1
1
1
1
1
1
1
1
1
1
1
1
1
1
1
1
1
1
1
1
1
1
1
1
1
1
1
1
1
1
1
1
1
1
1
1
1
1
1
1
1
1
1
1
1
1
1
1
1
1
1
1
1
1
1
1
1
1
1
1
1
1
1
1
1
1
1
1
1
1
1
1
1
1
1
1
1
1
1
1
1
1
1
1
1
1
1
1
1
1
1
1
1
1
1
1
1
1
1
1
1
1
1
1
1
1
1
1
1
1
1
1
1
1
1
1
1
1
1
1
1
1
1
1
1
1
1
1
1
1
1
1
1
1
1
1
1
1
1
1
1
1
1
1
1
1
1
1
1
1
1
1
1
1
1
1
1
1
1
1
1
1
1
1
1
1
1
1
1
1
1
1
1
1
1
1
1
1
1
1
1
1
1
1
1
1
1
1
1
1
1
1
1
1
1
1
1
1
1
1
1
1
1
1
1
1
1
1
1
1
1
1
1
1
1
1
1
1
1
1
1
1
1
1
1
1
1
1
1
1
1
1
1
1
1
1
1
1
1
1
1
1
1
1
1
1
1
1
1
1
1
1
1
1
1
1
1
1
1
1
1
1
1
1
1
1
1
1
1
1
1
1
1
1
1
1
1
1
1
1
1
1
1
1
1
1
1
1
1
1
1
1
1
1
1
1
1
1
1
1
1
1
1
1
1
1
1
1
1
1
1
1
1
1
1
1
1
1
1
1
1
1
1
1
1
1
1
1
1
1
1
1
1
1
1
1
1
1
1
1
1
1
1
1
1
1
1
1
1
1
1
1
1
1
1
1
1
1
1
1
1
1
1
1
1
1
1
1
1
1
1
1
1
1
1
1
1
1
1
1
1
1
1
1
1
1
1
1
1
1
1
1
1
1
1
1
1
1
1
1
1
1
1
1
1
1
1
1
1
1
1
1
1
1
1
1
1
1
1
1
1
1
1
1
1
1
1
1
1
1
1
1
1
1
1
1
1
1
1
1
1
1
1
1
1
1
1
1
1
1
1
1
1
1
1
1
1
1
1
1
1
1
1
1
1
1
1
1
1
1
1
1
1
1
1
1
1
1
1
1
1
1
1
1
1
1
1
1
1
1
1
1
1
1
1
1
1
1
1
1
1
1
1
1
1
1
1
1
1
1
1
1
1
1
1
1
1
1
1
1
1
1
1
1
1
1
1
1
1
1
1
1
1
1
1
1
1
1
1
1
1
1
1
1
1
1
1
1
1
1
1
1
1
1
1
1
1
1
1
1
1
1
1
1
1
1
1
1
1
1
1
1
1
1
1
1
1
1
1
1
1
1
1
1
1
1
1
1
1
1
1
1
1
1
1
1
1
1
1
1
1
1
1
1
1
1
1
1
1
1
1
1
1
1
1
1
1
1
1
1
1
1
1
1
1
1
1
1
1
1
1
1
1
1
1
1
1
1
1
1
1
1
1
1
1
1
1
1
1
1
1
1
1
1
1
1
1
1
1
1
1
1
1
1
1
1
1
1
1
1
1
1
1
1
1
1
1
1
1
1
1
1
1
1
1
1
1
1
1
1
1
1
1
1
1
1
1
1
1
1
1
1
1
1
1
1
1
1
1
1
1
1
1
1
1
1
1
1
1
1
1
1
1
1
1
1
1
1
1
1
1
1
1
1
1
1
1
1
1
1
1
1
1
1
1
1
1
1
1
1
1
1
1
1
1
1
1
1
1
1
1
1
1
1
1
1
1
1
1
1
1
1
1
1
1
1
1
1
1
1
1
1
1
1
1
1
1
1
1
1
1
1
1
1
1
1
1
1
1
1
1
1
1
1
1
1
1
1
1
1
1
1
1
1
1
1
1
1
1
1
1
1
1
1
1
1
1
1
1
1
1
1
1
1
1
1
1
1
1
1
1
1
1
1
1
1
1
1
1
1
1
1
1
1
1
1
1
1
1
1
1
1
1
1
1
1
1
1
1
1
1
1
1
1
1
1
1
1
1
1
1
1
1
1
1
1
1
1
1
1
1
1
1
1
1
1
1
1
1
1
1
1
1
1
1
1
1
1
1
1
1
1
1
1
1
1
1
1
1
1
1
1
1
1
1
1
1
1
1
1
1
1
1
1
1
1
1
1
1
1
1
1
1
1
1
1
1
1
1
1
1
1
1
1
1
1
1
1
1
1
1
1
1
1
1
1
1
1
1
1
1
1
1
1
1
1
1
1
1
1
1
1
1
1
1
1
1
1
1
1
1
1
1
1
1
1
1
1
1
1
1
1
1
1
1
1
1
1
1
1
1
1
1
1
1
1
1
1
1
1
1
1
1
1
1
1
1
1
1
1
1
1
1
1
1
1
1
1
1
1
1
1
1
1
1
1
1
1
1
1
1
1
1
1
1
1
1
1
1
1
1
1
1
1
1
1
1
1
1
1
1
1
1
1
1
1
1
1
1
1
1
1
1
1
1
1
1
1
1
1
1
1
1
1
1
1
1
1
1
1
1
1
1
1
1
1
1
1
1
1
1
1
1
1
1
1
1
1
1
1
1
1
1
1
1
1
1
1
1
1
1
1
1
1
1
1
1
1
1
1
1
1
1
1
1
1
1
1
1
1
1
1
1
1
1
1
1
1
1
1
1
1
1
1
1
1
1
1
1
1
1
1
1
1
1
1
1
1
1
1
1
1
1
1
1
1
1
1
1
1
1
1
1
1
1
1
1
1
1
1
1
1
1
1
1
1
1
1
1
1
1
1
1
1
1
1
1
1
1
1
1
1
1
1
1
1
1
1
1
1
1
1
1
1
1
1
1
1
1
1
1
1
1
1
1
1
1
1
1
1
1
1
1
1
1
1
1
1
1
1
1
1
1
1
1
1
1
1
1
1
1
1
1
1
1
1
1
1
1
1
1
1
1
1
1
1
1
1
1
1
1
1
1
1
1
1
1
1
1
1
1
1
1
1
1
1
1
1
1
1
1
1
1
1
1
1
1
1
1
1
1
1
1
1
1
1
1
1
1
1
1
1
1
1
1
1
1
1
1
1
1
1
1
1
1
1
1
1
1
1
1
1
1
1
1
1
1
1
1
1
1
1
1
1
1
1
1
1
1
1
1
1
1
1
1
1
1
1
1
1
1
1
1
1
1
1
1
1
1
1
1
1
1
1
1
1
1
1
1
1
1
1
1
1
1
1
1
1
1
1
1
1
1
1
1
1
1
1
1
1
1
1
1
1
1
1
1
1
1
1
1
1
1
1
1
1
1
1
1
1
1
1
1
1
1
1
1
1
1
1
1
1
1
1
1
1
1
1
1
1
1
1
1
1
1
1
1
1
1
1
1
1
1
1
1
1
1
1
1
1
1
1
1
1
1
1
1
1
1
1
1
1
1
1
1
1
1
1
1
1
1
1
1
1
1
1
1
1
1
1
1
1
1
1
1
1
1
1
1
1
1
1
1
1
1
1
1
1
1
1
1
1
1
1
1
1
1
1
1
1
1
1
1
1
1
1
1
1
1
1
1
1
1
1
1
1
1
1
1
1
1
1
1
1
1
1
1
1
1
1
1
1
1
1
1
1
1
1
1
1
1
1
1
1
1
1
1
1
1
1
1
1
1
1
1
1
1
1
1
1
1
1
1
1
1
1
1
1
1
1
1
1
1
1
1
1
1
1
1
1
1
1
1
1
1
1
1
1
1
1
1
1
1
1
1
1
1
1
1
1
1
1
1
1
1
1
1
1
1
1
1
1
1
1
1
1
1
1
1
1
1
1
1
1
1
1
1
1
1
1
1
1
1
1
1
1
1
1
1
1
1
1
1
1
1
1
1
1
1
1
1
1
1
1
1
1
1
1
1
1
1
1
1
1
1
1
1
1
1
1
1
1
1
1
1
1
1
1
1
1
1
1
1
1
1
1
1
1
1
1
1
1
1
1
1
1
1
1
1
1
1
1
1
1
1
1
1
1
1
1
1
1
1
1
1
1
1
1
1
1
1
1
1
1
1
1
1
1
1
1
1
1
1
1
1
1
1
1
1
1
1
1
1
1
1
1
1
1
1
1
1
1
1
1
1
1
1
1
1
1
1
1
1
1
1
1
1
1
1
1
1
1
1
1
1
1
1
1
1
1
1
1
1
1
1
1
1
1
1
1
1
1
1
1
1
1
1
1
1
1
1
1
1
1
1
1
1
1
1
1
1
1
1
1
1
1
1
1
1
1
1
1
1
1
1
1
1
1
1
1
1
1
1
1
1
1
1
1
1
1
1
1
1
1
1
1
1
1
1
1
1
1
1
1
1
1
1
1
1
1
1
1
1
1
1
1
1
1
1
1
1
1
1
1
1
1
1
1
1
1
1
1
1
1
1
1
1
1
1
1
1
1
1
1
1
1
1
1
1
1
1
1
1
1
1
1
1
1
1
1
1
1
1
1
1
1
1
1
1
1
1
1
1
1
1
1
1
1
1
1
1
1
1
1
1
1
1
1
1
1
1
1
1
1
1
1
1
1
1
1
1
1
1
1
1
1
1
1
1
1
1
1
1
1
1
1
1
1
1
1
1
1
1
1
1
1
1
1
1
1
1
1
1
1
1
1
1
1
1
1
1
1
1
1
1
1
1
1
1
1
1
1
1
1
1
1
1
1
1
1
1
1
1
1
1
1
1
1
1
1
1
1
1
1
1
1
1
1
1
1
1
1
1
1
1
1
1
1
1
1
1
1
1
1
1
1
1
1
1
1
1
1
1
1
1
1
1
1
1
1
1
1
1
1
1
1
1
1
1
1
1
1
1
1
1
1
1
1
1
1
1
1
1
1
1
1
1
1
1
1
1
1
1
1
1
1
1
1
1
1
1
1
1
1
1
1
1
1
1
1
1
1
1
1
1
1
1
1
1
1
1
1
1
1
1
1
1
1
1
1
1
1
1
1
1
1
1
1
1
1
1
1
1
1
1
1
1
1
1
1
1
1
1
1
1
1
1
1
1
1
1
1
1
1
1
1
1
1
1
1
1
1
1
1
1
1
1
1
1
1
1
1
1
1
1
1
1
1
1
1
1
1
1
1
1
1
1
1
1
1
1
1
1
1
1
1
1
1
1
1
1
1
1
1
1
1
1
1
1
1
1
1
1
1
1
1
1
1
1
1
1
1
1
1
1
1
1
1
1
1
1
1
1
1
1
1
1
1
1
1
1
1
1
1
1
1
1
1
1
1
1
1
1
1
1
1
1
1
1
1
1
1
1
1
1
1
1
1
1
1
1
1
1
1
1
1
1
1
1
1
1
1
1
1
1
1
1
1
1
1
1
1
1
1
1
1
1
1
1
1
1
1
1
1
1
1
1
1
1
1
1
1
1
1
1
1
1
1
1
1
1
1
1
1
1
1
1
1
1
1
1
1
1
1
1
1
1
1
1
1
1
1
1
1
1
1
1
1
1
1
1
1
1
1
1
1
1
1
1
1
1
1
1
1
1
1
1
1
1
1
1
1
1
1
1
1
1
1
1
1
1
1
1
1
1
1
1
1
1
1
1
1
1
1
1
1
1
1
1
1
1
1
1
1
1
1
1
1
1
1
1
1
1
1
1
1
1
1
1
1
1
1
1
1
1
1
0.999539
0.998522
0.996711
0.994994
0.998301
1
1
1
1
1
1
1
1
1
1
1
1
1
1
1
1
1
1
1
1
1
1
1
1
1
1
1
1
1
1
1
1
1
1
1
1
1
1
1
1
1
1
1
1
1
1
1
1
1
1
1
1
1
1
1
1
1
1
1
1
1
1
1
1
1
1
1
1
1
1
1
1
1
1
1
1
1
1
1
1
1
0.908521
0.784307
0.692637
0.670365
0.726198
0.830668
0.920145
0.98619
1
1
1
1
1
1
1
1
1
1
1
1
1
1
1
1
1
1
1
1
1
1
1
1
1
1
1
1
1
1
1
1
1
1
1
1
1
1
1
1
1
1
1
1
1
1
1
1
1
1
1
1
1
1
1
1
1
1
1
1
1
1
1
1
1
1
1
1
1
1
1
1
1
1
1
1
1
1
0.209584
0.102513
0.061152
0.0571054
0.0877702
0.174964
0.370428
0.631704
0.861153
0.974493
1
1
1
1
1
1
1
1
1
1
1
1
1
1
1
1
1
1
1
1
1
1
1
1
1
1
1
1
1
1
1
1
1
1
1
1
1
1
1
1
1
1
1
0.999999
0.999998
0.999996
0.999988
0.999958
0.999853
0.999481
0.998291
0.994872
0.986621
0.971949
0.955534
0.947558
0.956796
0.977954
0.996736
1
1
1
1
1
1
1
1
1
1
1
1
1
1
1
1
1
0.0004713
0.000701887
0.000954637
0.00120677
0.00191997
0.00449126
0.0151621
0.0627765
0.251076
0.575267
0.849351
0.972704
1
1
1
1
1
1
1
1
1
1
1
1
1
1
1
1
1
1
1
1
1
1
1
1
1
0.999999
0.999999
0.999998
0.999996
0.999995
0.999993
0.999992
0.999991
0.999992
0.999993
0.999994
0.999995
0.999995
0.999995
0.999993
0.99999
0.999982
0.999963
0.999908
0.999739
0.999176
0.997169
0.989357
0.960397
0.879037
0.727999
0.592254
0.507017
0.476982
0.50872
0.595501
0.722166
0.845667
0.937973
0.992619
1
1
1
1
1
1
1
1
1
1
1
1
1
1
1.1156e-05
1.60287e-05
2.25707e-05
2.99976e-05
4.74564e-05
0.000110545
0.000355961
0.00146031
0.00782818
0.0479981
0.238766
0.570561
0.837713
0.960349
0.999932
1
1
1
1
1
1
1
1
1
1
1
1
1
1
1
1
1
1
1
0.999999
0.999998
0.999994
0.999986
0.999971
0.999947
0.999916
0.999878
0.999839
0.999809
0.999798
0.999806
0.999827
0.999851
0.999872
0.999886
0.999886
0.999868
0.999818
0.999696
0.999386
0.998505
0.995572
0.983458
0.931313
0.753845
0.495514
0.269633
0.139643
0.0733877
0.0409656
0.0308207
0.0365247
0.057156
0.111021
0.243866
0.449968
0.68401
0.862418
0.962421
0.999803
1
1
1
1
1
1
1
1
1
1
1
3.01467e-07
4.63282e-07
7.13949e-07
1.00723e-06
1.50587e-06
3.24194e-06
9.6805e-06
3.90139e-05
0.000203276
0.00117883
0.0074785
0.0475572
0.225939
0.523605
0.78145
0.916648
0.985328
1
1
1
1
1
1
1
1
1
1
1
1
1
1
1
0.999999
0.999997
0.999988
0.999962
0.999897
0.999768
0.999537
0.99918
0.998682
0.998039
0.997346
0.996778
0.996533
0.996661
0.997038
0.997482
0.997883
0.998145
0.998192
0.997951
0.997191
0.995185
0.989316
0.96907
0.894396
0.673252
0.386601
0.161258
0.0485725
0.0037946
0.0010083
0.00102549
0.00101757
0.00100846
0.00117259
0.00180387
0.00357249
0.00896403
0.0277497
0.0911174
0.274728
0.531031
0.775083
0.917903
0.990987
1
0.999999
0.999999
0.999999
0.999999
0.999999
0.999999
0.999999
0.999999
9.01253e-09
1.52319e-08
2.3572e-08
3.46738e-08
5.28229e-08
1.10396e-07
3.20743e-07
1.25168e-06
6.08125e-06
3.47275e-05
0.000214756
0.0012645
0.00718862
0.0381988
0.155903
0.394712
0.637074
0.82469
0.933034
0.992811
1
1
1
1
1
1
1
1
1
1
0.999999
0.999997
0.999988
0.99995
0.999814
0.999407
0.998392
0.996181
0.991701
0.983471
0.970337
0.952471
0.932913
0.917334
0.91121
0.915762
0.927475
0.940929
0.952398
0.959701
0.961581
0.95629
0.937758
0.888012
0.760185
0.549729
0.301016
0.118085
0.0206017
4.23741e-05
4.12039e-05
3.97081e-05
3.90534e-05
3.8837e-05
3.8402e-05
3.8627e-05
4.50795e-05
7.0139e-05
0.00014105
0.000337852
0.000940463
0.00301831
0.0109646
0.0422851
0.151344
0.39536
0.67047
0.873237
0.978319
0.999992
0.999991
0.99999
0.99999
0.999989
0.999989
0.999988
2.58236e-10
4.63299e-10
7.7398e-10
1.19163e-09
1.85347e-09
3.9278e-09
1.12957e-08
4.3456e-08
2.10565e-07
1.17474e-06
7.03482e-06
4.17285e-05
0.000233003
0.00113007
0.0048613
0.0199703
0.0718442
0.215329
0.440304
0.686599
0.878524
0.985368
0.999998
0.999998
0.999997
0.999997
0.999997
0.999997
0.999997
0.999995
0.999988
0.999959
0.999833
0.999295
0.997197
0.989528
0.965054
0.905879
0.795423
0.663071
0.545086
0.448044
0.376864
0.334461
0.319869
0.330376
0.361619
0.405427
0.451652
0.487547
0.499433
0.474962
0.403777
0.288587
0.164983
0.0658417
0.00631368
1.92106e-06
1.81042e-06
1.67903e-06
1.55347e-06
1.50353e-06
1.53031e-06
1.56689e-06
1.56568e-06
1.58888e-06
1.88581e-06
2.98224e-06
6.00691e-06
1.42247e-05
3.98843e-05
0.000129558
0.000437158
0.00148337
0.00533484
0.0211795
0.0850393
0.295315
0.595987
0.847921
0.971673
0.999891
0.999873
0.999862
0.999855
0.999842
1.24744e-11
1.79035e-11
2.73055e-11
4.24077e-11
6.93195e-11
1.40574e-10
3.88316e-10
1.49869e-09
7.33553e-09
4.04215e-08
2.49066e-07
1.47432e-06
8.45988e-06
4.34092e-05
0.000180119
0.000672259
0.00229088
0.00776385
0.0274364
0.0949363
0.309418
0.634852
0.898147
0.999126
0.999972
0.999969
0.999967
0.999963
0.99996
0.999943
0.999861
0.999496
0.997756
0.988363
0.93784
0.759771
0.519517
0.31852
0.185023
0.11024
0.0621684
0.0329194
0.0170314
0.00986785
0.00777737
0.00890016
0.0134756
0.0219738
0.0330643
0.0433058
0.0474468
0.0408787
0.0234601
0.00473873
1.10538e-07
1.0374e-07
9.33932e-08
8.42166e-08
7.70807e-08
7.38822e-08
7.07529e-08
6.68834e-08
6.63791e-08
6.86018e-08
7.09834e-08
7.48288e-08
9.01936e-08
1.39948e-07
2.74782e-07
6.58893e-07
1.892e-06
6.19286e-06
2.06488e-05
6.88265e-05
0.000236418
0.000816514
0.00297524
0.0124401
0.0578038
0.247514
0.564419
0.831958
0.957275
0.997628
0.99825
0.997978
7.12974e-13
9.61333e-13
1.35329e-12
2.06254e-12
3.57072e-12
7.00815e-12
1.66448e-11
5.24431e-11
2.35673e-10
1.28144e-09
8.37024e-09
4.97094e-08
3.15127e-07
1.77223e-06
6.93517e-06
2.6496e-05
9.16204e-05
0.000299176
0.000955723
0.00333606
0.0142952
0.0720328
0.346692
0.755622
0.969777
0.999685
0.999635
0.999593
0.99955
0.999354
0.998334
0.993063
0.957041
0.751529
0.406831
0.163588
0.0543988
0.00813071
6.17455e-08
5.27162e-08
4.39798e-08
3.55532e-08
2.86452e-08
2.36755e-08
2.00292e-08
1.71559e-08
1.4986e-08
1.33424e-08
1.20376e-08
1.10121e-08
1.00078e-08
8.90831e-09
7.64667e-09
6.4544e-09
5.55406e-09
4.87781e-09
4.37932e-09
4.1373e-09
3.89998e-09
3.67286e-09
3.32376e-09
2.97734e-09
2.94471e-09
3.12222e-09
3.35016e-09
3.68243e-09
4.48954e-09
6.84731e-09
1.31081e-08
3.13121e-08
8.99002e-08
2.90034e-07
9.66309e-07
3.21232e-06
1.0996e-05
3.80901e-05
0.000135792
0.000507123
0.002035
0.0094238
0.0490114
0.220998
0.510459
0.753324
0.87661
0.930816
2.82496e-14
4.04291e-14
5.7474e-14
8.76731e-14
1.59635e-13
3.39574e-13
8.34906e-13
2.60695e-12
1.02466e-11
4.51257e-11
2.76922e-10
1.60231e-09
1.17826e-08
7.1616e-08
2.51806e-07
9.73481e-07
3.43013e-06
1.15316e-05
3.75352e-05
0.000130052
0.00050477
0.00248092
0.0167325
0.135285
0.551877
0.886795
0.991551
0.995278
0.994539
0.991604
0.973072
0.857719
0.493584
0.161509
0.0236914
6.53589e-09
5.15411e-09
3.94446e-09
3.04073e-09
2.49098e-09
2.06385e-09
1.64295e-09
1.27523e-09
1.01821e-09
8.61275e-10
7.47122e-10
6.42233e-10
5.55877e-10
4.86359e-10
4.37035e-10
3.9915e-10
3.6823e-10
3.38871e-10
3.24802e-10
3.2524e-10
3.1296e-10
2.983e-10
2.86756e-10
2.60801e-10
2.24046e-10
1.82446e-10
1.50065e-10
1.42726e-10
1.51494e-10
1.63306e-10
1.83202e-10
2.1946e-10
3.18576e-10
5.78938e-10
1.34898e-09
3.81155e-09
1.20014e-08
3.93374e-08
1.26792e-07
4.25466e-07
1.51753e-06
5.84837e-06
2.26309e-05
8.7299e-05
0.000372221
0.00168774
0.00806818
0.0377877
0.134398
0.300682
0.420642
2.6674e-16
3.71166e-16
5.53785e-16
1.00165e-15
2.40584e-15
6.32291e-15
1.71788e-14
9.10986e-14
5.62469e-13
2.89514e-12
1.42538e-11
6.36982e-11
4.68081e-10
2.64695e-09
8.25334e-09
3.06002e-08
1.07962e-07
3.76398e-07
1.28936e-06
4.7064e-06
1.83457e-05
8.73496e-05
0.000552
0.00447838
0.0461703
0.313426
0.688056
0.866797
0.894191
0.835502
0.598433
0.255531
0.047527
2.19989e-10
1.86421e-10
1.4459e-10
1.56471e-10
1.64879e-10
1.67038e-10
1.67102e-10
1.78317e-10
1.84588e-10
1.84677e-10
1.85508e-10
1.9303e-10
2.07284e-10
2.23628e-10
2.29289e-10
2.27818e-10
2.26446e-10
2.2399e-10
2.15531e-10
1.92419e-10
1.58991e-10
1.26646e-10
9.7421e-11
7.08918e-11
5.23675e-11
3.74099e-11
2.45819e-11
1.58005e-11
1.10338e-11
9.41628e-12
9.49275e-12
9.70394e-12
1.06649e-11
1.23359e-11
1.64982e-11
2.66359e-11
5.40521e-11
1.34979e-10
3.90958e-10
1.24019e-09
3.87045e-09
1.28332e-08
4.75919e-08
1.911e-07
7.01125e-07
2.54143e-06
1.13467e-05
5.72749e-05
0.000296551
0.00138876
0.00538864
0.0158441
0.0313663
1.65256e-20
2.01709e-21
1.35486e-20
1.15824e-19
2.15725e-18
3.11101e-17
1.86156e-16
3.90928e-15
3.49664e-14
2.09266e-13
1.09237e-12
4.55778e-12
2.26104e-11
8.27968e-11
2.18121e-10
7.18147e-10
2.4334e-09
8.21007e-09
2.79457e-08
1.06489e-07
4.45019e-07
2.33305e-06
1.62518e-05
0.000142326
0.00135386
0.0123741
0.0856322
0.249003
0.310866
0.231428
0.0890433
0.00299952
8.97961e-11
8.97759e-11
1.02787e-10
1.34432e-10
1.23573e-10
1.08946e-10
9.19113e-11
8.31119e-11
8.08761e-11
7.67048e-11
6.88602e-11
6.04177e-11
5.54836e-11
5.48416e-11
5.85239e-11
7.17964e-11
8.5437e-11
9.68297e-11
1.04335e-10
1.02251e-10
8.16126e-11
4.632e-11
1.60551e-11
2.68625e-12
1.43226e-25
1.4169e-33
1.16003e-24
1.34319e-25
1.74718e-25
1.18625e-24
2.42281e-25
1.76135e-25
3.09857e-25
1.10453e-25
8.84972e-46
4.66159e-25
-1.17247e-44
5.03276e-25
-2.25078e-44
2.09676e-23
1.00892e-22
-3.01995e-43
6.96432e-22
-5.31149e-43
-1.05283e-25
-1.13623e-24
-7.13908e-24
3.7517e-40
4.71299e-19
-4.68511e-24
2.10927e-23
2.1211e-23
2.71055e-13
4.92999e-11
2.85112e-23
3.20334e-22
2.49268e-21
2.08832e-20
4.01164e-19
6.32029e-18
4.1386e-17
2.07514e-16
1.30135e-15
7.06978e-15
3.34009e-14
1.21198e-13
3.16278e-13
4.81204e-13
5.28257e-13
6.47221e-13
1.25213e-12
2.31386e-12
9.71082e-12
3.90929e-10
3.82641e-09
3.0729e-08
2.61423e-07
2.59963e-06
2.92814e-05
0.000284263
0.00206283
0.00719761
0.00907661
0.00151144
4.43122e-11
4.53518e-11
4.99148e-11
9.47641e-11
1.05546e-10
9.51236e-11
7.19783e-11
5.16224e-11
3.5136e-11
2.63155e-11
2.08785e-11
1.53823e-11
9.05661e-12
3.69609e-12
1.02841e-12
1.85075e-13
8.21052e-14
1.59263e-12
5.36938e-12
1.00742e-11
1.40542e-11
1.39235e-11
7.08854e-12
3.08318e-13
8.76872e-27
3.73614e-28
-2.46646e-44
-8.90078e-26
-4.44258e-43
2.65521e-46
-5.30669e-45
3.01702e-40
4.97983e-45
-2.99525e-27
-1.30615e-26
-2.99254e-26
-9.71991e-27
-1.59187e-27
-1.70505e-28
-9.55528e-29
-2.46743e-27
-7.7986e-27
-3.57488e-26
-3.18895e-25
-9.69129e-27
-4.51842e-27
-5.59387e-26
-6.05011e-25
-3.56529e-24
-8.62395e-24
-8.99082e-25
-5.26626e-24
1.62875e-38
4.29767e-20
9.37662e-13
3.14027e-11
2.5333e-24
2.31437e-23
1.71918e-22
1.41367e-21
2.77106e-20
4.75288e-19
3.15063e-18
3.21961e-17
2.37642e-16
1.58173e-15
1.02729e-14
4.95475e-14
1.81077e-13
3.97183e-13
5.36965e-13
7.52972e-13
1.52274e-12
2.66469e-12
2.29019e-12
1.07039e-12
1.72733e-13
1.51169e-17
-1.14517e-24
-2.04905e-24
-2.03417e-25
-4.99964e-36
1.34839e-14
2.36082e-12
1.21511e-11
1.68987e-11
1.95662e-11
3.68078e-11
6.02406e-11
7.06674e-11
5.51485e-11
3.2595e-11
1.58484e-11
6.39881e-12
1.91792e-12
4.48161e-13
6.31129e-15
1.00295e-31
-8.00172e-33
-1.5422e-34
3.70467e-45
2.99787e-46
4.16679e-41
-1.83897e-38
-4.57153e-37
-2.62519e-45
-3.84871e-44
4.07604e-46
-1.41898e-47
-1.05486e-45
-7.49416e-46
-3.7586e-27
-6.99763e-26
-2.16041e-25
-8.10454e-26
-9.11431e-26
-4.0586e-26
-1.62204e-26
-1.97311e-26
-1.02928e-26
-8.19493e-27
-9.60941e-27
-2.96009e-27
-4.72272e-28
-4.84124e-29
-2.88172e-29
-3.69869e-28
-3.27201e-27
-1.57389e-26
-3.05137e-26
-2.55363e-27
-2.50139e-27
-7.79974e-27
-6.00887e-26
-3.36384e-25
-8.79204e-25
-7.5115e-25
-1.29445e-24
6.90249e-23
3.77192e-19
8.31367e-14
1.40137e-11
2.65929e-25
2.48852e-24
1.79791e-23
1.42769e-22
2.85536e-21
5.47411e-20
3.66554e-19
2.43055e-18
1.58141e-17
9.86111e-17
6.32167e-16
3.56945e-15
1.75515e-14
5.42246e-14
1.02964e-13
2.22378e-13
7.58484e-13
2.53189e-12
2.77979e-12
1.43663e-12
1.99528e-13
1.91115e-17
-1.75236e-24
-2.97342e-24
-3.21643e-25
-2.8479e-26
-1.2701e-32
9.13328e-13
6.62277e-12
1.41278e-11
2.73895e-11
3.52704e-11
3.51129e-11
1.91882e-11
6.10999e-12
8.55512e-13
5.85474e-27
8.00473e-26
5.49089e-26
3.66228e-26
1.98178e-26
-1.21623e-27
-9.12127e-27
-2.72465e-27
-1.04968e-27
-2.49866e-28
-6.51416e-29
-2.29677e-28
-1.50823e-27
-1.97412e-27
-3.73764e-28
-5.89653e-28
-5.89187e-28
-4.90863e-28
-1.8923e-27
-1.12874e-26
-1.17975e-25
-2.56883e-25
-1.26537e-25
-9.20866e-26
-3.49981e-26
-1.17234e-26
-8.24955e-27
-2.99452e-27
-1.57316e-27
-1.70406e-27
-5.03429e-28
-7.62478e-29
-7.60092e-30
-3.6525e-30
-2.74064e-29
-1.99691e-28
-9.5478e-28
-2.17033e-27
-1.57535e-27
-2.56606e-27
-3.32253e-27
-5.46756e-27
-1.92946e-26
-5.10571e-26
-3.69156e-26
5.0597e-25
3.12259e-21
6.27658e-19
5.20132e-18
1.19017e-12
2.91469e-26
2.68949e-25
1.90028e-24
1.48239e-23
3.02928e-22
6.68144e-21
4.54429e-20
2.31496e-19
1.26444e-18
7.00609e-18
4.11962e-17
2.33133e-16
1.24076e-15
4.12475e-15
8.11517e-15
1.21624e-14
3.08029e-14
2.19335e-13
9.80591e-13
3.50591e-13
1.08032e-13
5.3608e-17
-7.44571e-25
-1.27781e-24
-2.05518e-25
-2.33949e-26
6.36696e-27
4.32547e-13
5.25234e-12
1.35759e-11
1.9615e-11
1.32074e-11
4.29538e-12
2.72364e-14
-3.49232e-34
1.07323e-35
-1.69757e-27
-6.30229e-45
2.63716e-26
1.44375e-26
7.87618e-27
-5.8045e-27
-1.98236e-26
-7.82463e-27
-3.24591e-27
-8.12825e-28
-2.09661e-28
-5.61652e-28
-3.00769e-27
-4.38321e-27
-1.27324e-27
-1.93928e-27
-1.77505e-27
-1.44034e-27
-4.02093e-27
-1.6914e-26
-1.12989e-25
-2.00883e-25
-1.02138e-25
-5.40662e-26
-1.68797e-26
-4.64265e-27
-2.20028e-27
-6.20015e-28
-2.22425e-28
-2.13172e-28
-6.25123e-29
-9.47385e-30
-1.20476e-30
-2.17451e-30
-1.24101e-29
-6.12389e-29
-2.44135e-28
-7.2447e-28
-1.56087e-27
-2.72201e-27
-3.41694e-27
-3.15087e-27
-2.68643e-27
-2.22732e-27
5.378e-27
2.41564e-24
9.00886e-21
3.22795e-19
8.13343e-19
2.29088e-19
2.14835e-27
1.94532e-26
1.34684e-25
1.03192e-24
2.14934e-23
5.92059e-22
4.2269e-21
2.11721e-20
1.17534e-19
7.37311e-19
5.08843e-18
3.41112e-17
2.57159e-16
1.15185e-15
2.78538e-15
4.11929e-15
6.04777e-15
1.76479e-14
4.22014e-14
1.86783e-14
3.81654e-15
6.06156e-17
-1.87312e-25
-4.061e-25
-1.00638e-25
-1.80704e-26
7.80938e-34
2.84178e-14
1.27708e-12
4.60799e-12
4.262e-12
3.55957e-13
3.2742e-26
-3.02719e-33
-5.81246e-27
-1.28055e-26
-5.95092e-27
-6.44043e-28
1.53465e-26
4.1433e-27
3.65352e-28
-8.91315e-27
-2.44268e-26
-1.17111e-26
-5.04337e-27
-1.31333e-27
-3.45079e-28
-7.82461e-28
-3.6188e-27
-5.55993e-27
-2.16438e-27
-3.18169e-27
-2.74208e-27
-2.27362e-27
-5.13888e-27
-1.71298e-26
-7.82494e-26
-1.17209e-25
-5.69653e-26
-2.35765e-26
-6.21285e-27
-1.46406e-27
-5.14066e-28
-1.21957e-28
-3.05379e-29
-2.13707e-29
-5.87545e-30
-8.85145e-31
-3.36271e-31
-1.7756e-30
-1.03407e-29
-4.99211e-29
-1.96782e-28
-6.16971e-28
-1.48829e-27
-2.68102e-27
-3.45999e-27
-3.20439e-27
-2.1988e-27
6.18839e-42
4.16706e-26
3.24493e-24
9.87679e-22
6.56479e-21
1.44686e-20
5.34734e-22
7.9279e-29
7.05352e-28
5.05971e-27
3.82241e-26
7.81835e-25
3.37687e-23
2.57373e-22
1.26948e-21
7.87471e-21
7.06304e-20
6.56858e-19
5.39409e-18
5.71926e-17
3.30223e-16
1.01473e-15
1.57174e-15
1.80853e-15
4.44667e-15
7.404e-15
6.92786e-15
1.57303e-15
6.07308e-17
2.49839e-26
-1.04197e-25
-4.46877e-26
-1.80104e-26
-1.10347e-26
8.97649e-35
1.297e-15
6.91556e-14
2.80919e-26
8.03235e-26
3.01802e-26
-2.07114e-27
-1.20933e-26
-1.97508e-26
-8.43838e-27
-1.40219e-27
6.63167e-27
2.77271e-28
-3.33713e-30
-8.79961e-27
-2.19536e-26
-1.21073e-26
-5.31271e-27
-1.43133e-27
-3.83734e-28
-7.6578e-28
-3.2111e-27
-5.09937e-27
-2.44273e-27
-3.47746e-27
-2.91964e-27
-2.60366e-27
-5.12184e-27
-1.35927e-26
-4.35567e-26
-5.5408e-26
-2.52534e-26
-8.81393e-27
-2.16834e-27
-5.10186e-28
-1.50252e-28
-3.49461e-29
-7.51592e-30
-2.58448e-30
-6.13107e-31
-1.16339e-31
-2.10305e-31
-1.40234e-30
-8.34394e-30
-4.10207e-29
-1.65303e-28
-5.31489e-28
-1.32057e-27
-2.44682e-27
-3.24291e-27
-3.09644e-27
-2.18938e-27
-4.13146e-46
7.26579e-26
1.85702e-24
2.90945e-24
-3.57633e-28
-5.70973e-28
-1.35782e-27
1.49953e-34
1.03165e-31
9.86099e-29
6.31847e-28
1.61538e-27
8.85339e-25
7.54296e-24
3.69868e-23
4.19836e-22
7.63799e-21
9.41358e-20
8.81489e-19
1.13396e-17
7.5967e-17
2.24652e-16
3.73228e-16
5.07477e-16
1.58671e-15
3.1411e-15
3.46795e-15
9.42349e-16
4.05002e-17
8.22014e-25
-2.30145e-26
-2.37026e-26
-2.04957e-26
-1.90377e-26
-1.34252e-26
5.34762e-36
-1.21606e-33
9.68309e-27
6.73754e-26
1.97187e-26
-5.09517e-27
-1.60216e-26
-2.14105e-26
-9.0771e-27
-1.90646e-27
5.47366e-28
1.98532e-30
-8.40492e-29
-6.64374e-27
-1.57587e-26
-9.66276e-27
-4.28678e-27
-1.1933e-27
-3.2427e-28
-5.74423e-28
-2.25885e-27
-3.68282e-27
-2.0597e-27
-2.86436e-27
-2.45224e-27
-2.48641e-27
-4.48982e-27
-9.46256e-27
-2.13226e-26
-2.30421e-26
-1.01155e-26
-3.36152e-27
-9.22474e-28
-2.56628e-28
-7.39716e-29
-1.84753e-29
-4.13037e-30
-9.03371e-31
-1.75363e-31
-4.60776e-32
-1.50998e-31
-1.04434e-30
-6.33515e-30
-3.1726e-29
-1.30763e-28
-4.29866e-28
-1.09323e-27
-2.07719e-27
-2.81836e-27
-2.76468e-27
-2.04099e-27
-1.18327e-27
-5.41041e-28
-2.20358e-28
-4.50836e-28
-8.99136e-28
-1.67006e-27
-2.82459e-27
6.3522e-35
2.74817e-32
1.56641e-29
8.82806e-29
9.57317e-29
6.81922e-29
3.837e-28
5.80085e-26
3.05994e-23
8.97876e-22
1.23555e-20
1.22343e-19
1.69555e-18
1.17202e-17
3.25097e-17
5.4746e-17
9.12298e-17
3.51113e-16
8.50481e-16
1.10054e-15
3.6331e-16
1.52399e-17
2.34364e-24
-6.53318e-28
-1.73959e-26
-2.23867e-26
-2.39115e-26
-2.05056e-26
-1.088e-26
-3.24538e-27
2.90756e-27
4.06502e-26
3.35482e-27
-8.23517e-27
-1.71149e-26
-1.94115e-26
-8.29008e-27
-2.08062e-27
-1.91806e-28
-1.28614e-28
-1.1155e-28
-4.11902e-27
-9.47694e-27
-6.30845e-27
-2.818e-27
-8.07906e-28
-2.21615e-28
-3.50109e-28
-1.31401e-27
-2.19203e-27
-1.38984e-27
-1.92005e-27
-1.78527e-27
-2.15727e-27
-3.72302e-27
-6.38752e-27
-1.02687e-26
-9.49214e-27
-4.32785e-27
-1.592e-27
-5.33602e-28
-1.70417e-28
-4.97866e-29
-1.27734e-29
-2.90793e-30
-5.96415e-31
-1.11345e-31
-3.0525e-32
-1.04181e-31
-7.30718e-31
-4.51287e-30
-2.30158e-29
-9.69728e-29
-3.25195e-28
-8.45031e-28
-1.64313e-27
-2.27876e-27
-2.28863e-27
-1.73216e-27
-1.05185e-27
-6.28095e-28
-5.09989e-28
-6.53621e-28
-1.13492e-27
-2.12185e-27
-3.55207e-27
2.30204e-35
3.16214e-33
4.7731e-31
3.8331e-30
5.00975e-30
2.06139e-30
1.17453e-31
3.22563e-27
2.58494e-24
8.10964e-23
1.16018e-21
1.18903e-20
1.65201e-19
1.23757e-18
3.60911e-18
6.17305e-18
9.39031e-18
4.26921e-17
1.13533e-16
1.51479e-16
5.99935e-17
3.06651e-18
3.66415e-24
1.93946e-26
-1.44028e-26
-2.18451e-26
-2.51188e-26
-2.31684e-26
-1.35822e-26
-5.34064e-27
-9.94172e-28
8.13408e-27
-1.71154e-27
-1.05212e-26
-1.60351e-26
-1.57188e-26
-6.84567e-27
-2.00871e-27
-4.83546e-28
-2.02114e-28
-1.10239e-28
-2.18295e-27
-4.91879e-27
-3.49592e-27
-1.56948e-27
-4.61966e-28
-1.27507e-28
-1.79948e-28
-6.50713e-28
-1.10919e-27
-7.89696e-28
-1.11821e-27
-1.22148e-27
-1.78662e-27
-3.02294e-27
-4.46536e-27
-5.49627e-27
-4.49921e-27
-2.28162e-27
-9.68972e-28
-3.65309e-28
-1.21418e-28
-3.52116e-29
-8.96367e-30
-2.0263e-30
-4.11498e-31
-7.63823e-32
-2.04706e-32
-6.79625e-32
-4.82406e-31
-3.02968e-30
-1.57267e-29
-6.76504e-29
-2.30842e-28
-6.12347e-28
-1.21637e-27
-1.72057e-27
-1.76325e-27
-1.36151e-27
-8.45682e-28
-5.26172e-28
-4.74457e-28
-6.36083e-28
-1.10032e-27
-2.11196e-27
-3.60796e-27
3.02275e-36
3.52939e-34
1.08154e-32
2.91122e-32
2.28906e-32
3.78986e-33
1.08566e-53
1.19944e-28
1.25725e-25
4.34674e-24
6.48908e-23
6.90933e-22
9.62961e-21
9.19362e-20
2.90058e-19
5.02073e-19
6.82691e-19
3.93669e-18
1.22229e-17
1.76501e-17
8.20963e-18
4.41412e-19
4.25682e-24
9.68998e-26
-1.12776e-26
-1.88054e-26
-2.27425e-26
-2.19947e-26
-1.35656e-26
-6.22876e-27
-3.4922e-27
-2.06168e-45
-5.54493e-27
-1.15549e-26
-1.38507e-26
-1.19204e-26
-5.35128e-27
-1.7938e-27
-5.7327e-28
-2.18888e-28
-9.48207e-29
-1.01851e-27
-2.25192e-27
-1.68683e-27
-7.59917e-28
-2.28865e-28
-6.34433e-29
-8.0192e-29
-2.80651e-28
-4.89807e-28
-3.96998e-28
-6.07597e-28
-8.35924e-28
-1.43909e-27
-2.41318e-27
-3.25939e-27
-3.42626e-27
-2.62193e-27
-1.45302e-27
-6.64205e-28
-2.57605e-28
-8.51411e-29
-2.42838e-29
-6.0948e-30
-1.36399e-30
-2.75416e-31
-5.09237e-32
-1.31879e-32
-4.18292e-32
-3.00305e-31
-1.91443e-30
-1.01193e-29
-4.44163e-29
-1.53867e-28
-4.16512e-28
-8.44145e-28
-1.2164e-27
-1.26893e-27
-9.96503e-28
-6.29762e-28
-3.9867e-28
-3.71134e-28
-5.15056e-28
-9.11089e-28
-1.80642e-27
-3.15741e-27
2.25795e-37
2.13338e-35
8.49017e-35
7.42194e-35
1.67855e-35
-1.08995e-54
-1.11814e-35
1.44295e-30
2.29769e-27
1.02885e-25
1.66495e-24
1.8862e-23
2.71373e-22
3.46945e-21
1.16427e-20
1.9696e-20
2.23982e-20
1.908e-19
6.97494e-19
1.08028e-18
5.68513e-19
3.25679e-20
4.28816e-24
1.43364e-25
-7.91386e-27
-1.43343e-26
-1.80153e-26
-1.80678e-26
-1.16541e-26
-6.17839e-27
-4.88618e-27
-3.70767e-27
-8.05026e-27
-1.14351e-26
-1.14197e-26
-8.7976e-27
-4.0903e-27
-1.5172e-27
-5.4639e-28
-2.00553e-28
-7.56475e-29
-4.29008e-28
-9.24472e-28
-7.22306e-28
-3.26136e-28
-1.00155e-28
-2.78474e-29
-3.16838e-29
-1.0764e-28
-1.942e-28
-1.87705e-28
-3.32988e-28
-5.87392e-28
-1.12686e-27
-1.87602e-27
-2.41229e-27
-2.35048e-27
-1.73968e-27
-9.95182e-28
-4.605e-28
-1.76885e-28
-5.73256e-29
-1.6022e-29
-3.95546e-30
-8.74942e-31
-1.75597e-31
-3.23459e-32
-8.09234e-33
-2.43634e-32
-1.76834e-31
-1.14287e-30
-6.15089e-30
-2.7495e-29
-9.65977e-29
-2.6679e-28
-5.50852e-28
-8.07323e-28
-8.55365e-28
-6.81442e-28
-4.36783e-28
-2.79243e-28
-2.63049e-28
-3.7235e-28
-6.73493e-28
-1.3759e-27
-2.457e-27
1.40465e-38
6.11755e-38
5.2949e-38
5.0727e-39
-7.65403e-38
-1.25828e-36
-1.05349e-35
-7.14124e-35
-3.85266e-34
-1.60254e-33
-4.98984e-33
-1.11395e-32
-1.75941e-32
-2.03665e-32
-1.94542e-32
-2.53226e-32
-7.00475e-32
1.52125e-44
1.00389e-23
4.33885e-22
9.92862e-22
1.89876e-23
2.96823e-24
1.46994e-25
-4.92533e-27
-9.73872e-27
-1.26315e-26
-1.30736e-26
-8.8743e-27
-5.5161e-27
-5.44233e-27
-5.77892e-27
-9.06045e-27
-1.04903e-26
-9.17569e-27
-6.48008e-27
-3.10714e-27
-1.23019e-27
-4.65093e-28
-1.6662e-28
-5.7623e-29
-1.67811e-28
-3.45158e-28
-2.7857e-28
-1.25876e-28
-3.9281e-29
-1.09522e-29
-1.13371e-29
-3.76213e-29
-7.2025e-29
-9.00844e-29
-1.94954e-28
-4.19679e-28
-8.5197e-28
-1.4063e-27
-1.75593e-27
-1.64632e-27
-1.19039e-27
-6.78628e-28
-3.09859e-28
-1.16592e-28
-3.69548e-29
-1.01284e-29
-2.46242e-30
-5.3901e-31
-1.07552e-31
-1.97351e-32
-4.7571e-33
-1.34313e-32
-9.84361e-32
-6.44842e-31
-3.52912e-30
-1.60469e-29
-5.72482e-29
-1.61214e-28
-3.38453e-28
-5.03923e-28
-5.41467e-28
-4.36657e-28
-2.83209e-28
-1.82177e-28
-1.7239e-28
-2.46728e-28
-4.54169e-28
-9.51762e-28
-1.73281e-27
3.65635e-42
7.87893e-43
-1.48349e-57
-6.31565e-39
-9.07567e-38
-9.28123e-37
-7.81978e-36
-5.35342e-35
-2.92797e-34
-1.23911e-33
-3.94362e-33
-9.02893e-33
-1.46809e-32
-1.75228e-32
-1.72487e-32
-2.308e-32
-7.02391e-32
-2.64742e-31
-7.14271e-31
5.71483e-46
8.2403e-27
3.02512e-25
9.83489e-25
9.26416e-26
-2.71501e-27
-5.93908e-27
-7.92208e-27
-8.45954e-27
-6.13765e-27
-4.5783e-27
-5.34659e-27
-6.5153e-27
-8.83859e-27
-9.07372e-27
-7.23837e-27
-4.80176e-27
-2.34836e-27
-9.61205e-28
-3.68754e-28
-1.29625e-28
-4.24139e-29
-6.34808e-29
-1.1889e-28
-9.79745e-29
-4.42155e-29
-1.39732e-29
-3.91199e-30
-3.77388e-30
-1.24489e-29
-2.67092e-29
-4.69225e-29
-1.22565e-28
-2.97691e-28
-6.18271e-28
-1.0105e-27
-1.23517e-27
-1.12872e-27
-7.98294e-28
-4.4741e-28
-1.99986e-28
-7.35227e-29
-2.278e-29
-6.12274e-30
-1.46567e-30
-3.17424e-31
-6.29606e-32
-1.15092e-32
-2.67475e-33
-7.0247e-33
-5.18803e-32
-3.44655e-31
-1.91614e-30
-8.85468e-30
-3.20799e-29
-9.19412e-29
-1.9611e-28
-2.96382e-28
-3.22486e-28
-2.62819e-28
-1.72151e-28
-1.11127e-28
-1.05248e-28
-1.5156e-28
-2.82651e-28
-6.0519e-28
-1.12128e-27
1.69047e-61
-9.89278e-42
-2.5055e-40
-5.05388e-39
-6.27905e-38
-6.43836e-37
-5.46402e-36
-3.7784e-35
-2.09427e-34
-9.00893e-34
-2.92554e-33
-6.85288e-33
-1.1433e-32
-1.40197e-32
-1.41635e-32
-1.93652e-32
-6.11208e-32
-2.45885e-31
-7.59094e-31
4.35432e-48
1.14392e-27
4.69975e-26
1.20077e-25
2.97884e-26
-1.32694e-27
-3.27608e-27
-4.49205e-27
-4.97245e-27
-3.95596e-27
-3.61599e-27
-4.80928e-27
-6.26586e-27
-7.83753e-27
-7.47282e-27
-5.59675e-27
-3.55815e-27
-1.75269e-27
-7.24625e-28
-2.77628e-28
-9.59425e-29
-3.02587e-29
-2.46702e-29
-3.84888e-29
-3.18022e-29
-1.42842e-29
-4.55512e-30
-1.28672e-30
-1.21961e-30
-4.16733e-30
-1.08323e-29
-2.69047e-29
-7.98465e-29
-2.0557e-28
-4.29258e-28
-6.94228e-28
-8.33382e-28
-7.45198e-28
-5.15409e-28
-2.82787e-28
-1.23501e-28
-4.43556e-29
-1.34405e-29
-3.54559e-30
-8.36186e-31
-1.79293e-31
-3.53642e-32
-6.44064e-33
-1.44312e-33
-3.48808e-33
-2.59116e-32
-1.74623e-31
-9.85736e-31
-4.62332e-30
-1.70036e-29
-4.95788e-29
-1.07305e-28
-1.64473e-28
-1.81017e-28
-1.48875e-28
-9.83265e-29
-6.35519e-29
-6.00928e-29