/*--------------------------------*- C++ -*----------------------------------*\
| =========                 |                                                 |
| \\      /  F ield         | OpenFOAM: The Open Source CFD Toolbox           |
|  \\    /   O peration     | Version:  v1912                                 |
|   \\  /    A nd           | Website:  www.openfoam.com                      |
|    \\/     M anipulation  |                                                 |
\*---------------------------------------------------------------------------*/
FoamFile
{
    version     2.0;
    format      ascii;
    class       volScalarField;
    location    "50";
    object      k;
}
// * * * * * * * * * * * * * * * * * * * * * * * * * * * * * * * * * * * * * //

dimensions      [0 2 -2 0 0 0 0];


internalField   nonuniform List<scalar> 
14268
(
8.42662e-07
8.4133e-07
8.40512e-07
8.39668e-07
8.39147e-07
8.39288e-07
8.40281e-07
8.41815e-07
8.44287e-07
8.4754e-07
8.51319e-07
8.55486e-07
8.59939e-07
8.6462e-07
8.69439e-07
8.74422e-07
8.79497e-07
8.84715e-07
8.90041e-07
8.95444e-07
9.0083e-07
9.0614e-07
9.11367e-07
9.16395e-07
9.21106e-07
9.25133e-07
9.28231e-07
9.30395e-07
9.31567e-07
9.31872e-07
9.31917e-07
9.31732e-07
9.31323e-07
9.30808e-07
9.30279e-07
9.29789e-07
9.29356e-07
9.28967e-07
9.28607e-07
9.28282e-07
9.27963e-07
9.27652e-07
9.27338e-07
9.27051e-07
9.26763e-07
9.26488e-07
9.26232e-07
9.26008e-07
9.25806e-07
9.25627e-07
9.25457e-07
9.25314e-07
9.25198e-07
9.25107e-07
9.25047e-07
9.25044e-07
9.25104e-07
9.25211e-07
9.25357e-07
9.25501e-07
9.2565e-07
9.25784e-07
9.2585e-07
9.25958e-07
9.26062e-07
9.26213e-07
9.26841e-07
9.28197e-07
9.30237e-07
9.32882e-07
9.36064e-07
9.39698e-07
9.43699e-07
9.48021e-07
9.5261e-07
9.57403e-07
9.62361e-07
9.67427e-07
9.72521e-07
9.77573e-07
9.82483e-07
9.8729e-07
9.92202e-07
9.97233e-07
1.00121e-06
1.00226e-06
2.1054e-07
2.0866e-07
2.07534e-07
2.07437e-07
2.0824e-07
2.09374e-07
2.10891e-07
2.12664e-07
2.14765e-07
2.17043e-07
2.19465e-07
2.2193e-07
2.24372e-07
2.26728e-07
2.28945e-07
2.31037e-07
2.33016e-07
2.34901e-07
2.36694e-07
2.38429e-07
2.40107e-07
2.41776e-07
2.43513e-07
2.45289e-07
2.47189e-07
2.49142e-07
2.51138e-07
2.52831e-07
2.54015e-07
2.54482e-07
2.53846e-07
2.52097e-07
2.49489e-07
2.46401e-07
2.43006e-07
2.39636e-07
2.36447e-07
2.33563e-07
2.31026e-07
2.28858e-07
2.27133e-07
2.25758e-07
2.24785e-07
2.24101e-07
2.23716e-07
2.23523e-07
2.23481e-07
2.23471e-07
2.23372e-07
2.23103e-07
2.22519e-07
2.2153e-07
2.20091e-07
2.18149e-07
2.15741e-07
2.12896e-07
2.09716e-07
2.06302e-07
2.02815e-07
1.99377e-07
1.96169e-07
1.93343e-07
1.90984e-07
1.89303e-07
1.88334e-07
1.88153e-07
1.88464e-07
1.88979e-07
1.897e-07
1.90602e-07
1.91673e-07
1.92896e-07
1.94248e-07
1.95717e-07
1.97283e-07
1.98932e-07
2.00652e-07
2.02418e-07
2.0421e-07
2.05985e-07
2.07695e-07
2.09369e-07
2.11121e-07
2.12371e-07
2.13234e-07
2.15258e-07
9.70471e-08
9.67825e-08
9.6638e-08
9.66956e-08
9.6883e-08
9.71294e-08
9.74341e-08
9.77773e-08
9.81753e-08
9.86025e-08
9.90484e-08
9.94948e-08
9.9932e-08
1.00349e-07
1.00734e-07
1.0109e-07
1.01419e-07
1.01726e-07
1.02008e-07
1.02272e-07
1.02519e-07
1.02765e-07
1.03024e-07
1.03294e-07
1.0359e-07
1.03901e-07
1.04225e-07
1.04499e-07
1.04673e-07
1.047e-07
1.04487e-07
1.04041e-07
1.0343e-07
1.02742e-07
1.02012e-07
1.01309e-07
1.00659e-07
1.0008e-07
9.95792e-08
9.91565e-08
9.8821e-08
9.85516e-08
9.83446e-08
9.82028e-08
9.81113e-08
9.80522e-08
9.80172e-08
9.79883e-08
9.79434e-08
9.78668e-08
9.77346e-08
9.75333e-08
9.72568e-08
9.68994e-08
9.64697e-08
9.59813e-08
9.54529e-08
9.49064e-08
9.43668e-08
9.38544e-08
9.33923e-08
9.29957e-08
9.26741e-08
9.24424e-08
9.23063e-08
9.22679e-08
9.2286e-08
9.23246e-08
9.2383e-08
9.246e-08
9.25545e-08
9.26663e-08
9.27933e-08
9.29345e-08
9.30895e-08
9.32572e-08
9.34375e-08
9.36289e-08
9.38261e-08
9.40241e-08
9.42158e-08
9.44008e-08
9.45772e-08
9.46754e-08
9.47547e-08
9.5225e-08
8.58057e-08
8.57856e-08
8.57745e-08
8.57986e-08
8.58204e-08
8.5849e-08
8.58807e-08
8.59124e-08
8.59521e-08
8.60022e-08
8.6052e-08
8.6101e-08
8.61482e-08
8.61953e-08
8.62396e-08
8.62833e-08
8.63254e-08
8.63682e-08
8.64135e-08
8.64585e-08
8.65035e-08
8.65532e-08
8.66101e-08
8.66743e-08
8.674e-08
8.6804e-08
8.68639e-08
8.69151e-08
8.69443e-08
8.6943e-08
8.68937e-08
8.68048e-08
8.66893e-08
8.65611e-08
8.64266e-08
8.62992e-08
8.61853e-08
8.60868e-08
8.60022e-08
8.59328e-08
8.58769e-08
8.58336e-08
8.58045e-08
8.57819e-08
8.57659e-08
8.57552e-08
8.57479e-08
8.57411e-08
8.57311e-08
8.5717e-08
8.56943e-08
8.56613e-08
8.56173e-08
8.55628e-08
8.55014e-08
8.54345e-08
8.53665e-08
8.53006e-08
8.52399e-08
8.51883e-08
8.51458e-08
8.51124e-08
8.50919e-08
8.50782e-08
8.50752e-08
8.50772e-08
8.5082e-08
8.50851e-08
8.50857e-08
8.5085e-08
8.50836e-08
8.50831e-08
8.50847e-08
8.50883e-08
8.50952e-08
8.51056e-08
8.51206e-08
8.5141e-08
8.51657e-08
8.51923e-08
8.52198e-08
8.52444e-08
8.52645e-08
8.5258e-08
8.52642e-08
8.51713e-08
8.40723e-08
8.40923e-08
8.41165e-08
8.41627e-08
8.4197e-08
8.423e-08
8.42583e-08
8.42784e-08
8.4296e-08
8.43186e-08
8.43353e-08
8.43499e-08
8.43649e-08
8.43843e-08
8.44056e-08
8.44277e-08
8.44479e-08
8.44706e-08
8.44966e-08
8.45211e-08
8.45437e-08
8.45668e-08
8.45906e-08
8.4618e-08
8.46412e-08
8.46585e-08
8.46689e-08
8.46777e-08
8.46791e-08
8.46697e-08
8.46452e-08
8.46172e-08
8.45866e-08
8.45534e-08
8.4523e-08
8.44966e-08
8.44747e-08
8.4458e-08
8.44445e-08
8.44364e-08
8.44295e-08
8.44279e-08
8.44287e-08
8.44264e-08
8.44257e-08
8.44268e-08
8.44271e-08
8.4428e-08
8.44277e-08
8.44257e-08
8.44219e-08
8.44163e-08
8.44087e-08
8.44015e-08
8.4393e-08
8.43876e-08
8.43832e-08
8.43843e-08
8.43871e-08
8.43963e-08
8.44092e-08
8.44225e-08
8.44412e-08
8.44556e-08
8.44716e-08
8.44822e-08
8.44886e-08
8.44908e-08
8.44874e-08
8.44808e-08
8.44711e-08
8.44605e-08
8.44497e-08
8.44393e-08
8.44308e-08
8.44247e-08
8.44224e-08
8.4425e-08
8.44309e-08
8.44389e-08
8.44494e-08
8.44586e-08
8.44741e-08
8.44868e-08
8.45071e-08
8.45238e-08
8.43178e-08
8.43403e-08
8.43614e-08
8.43876e-08
8.43837e-08
8.43824e-08
8.4371e-08
8.43508e-08
8.43292e-08
8.43125e-08
8.42909e-08
8.42687e-08
8.42468e-08
8.42289e-08
8.42151e-08
8.42038e-08
8.41955e-08
8.41971e-08
8.42102e-08
8.42256e-08
8.42434e-08
8.42654e-08
8.42904e-08
8.43196e-08
8.43437e-08
8.43606e-08
8.43699e-08
8.43792e-08
8.43808e-08
8.43738e-08
8.43612e-08
8.43524e-08
8.43412e-08
8.43281e-08
8.43172e-08
8.43072e-08
8.43004e-08
8.42954e-08
8.42925e-08
8.42925e-08
8.42914e-08
8.4293e-08
8.4289e-08
8.42968e-08
8.43003e-08
8.43039e-08
8.43059e-08
8.43078e-08
8.43084e-08
8.43072e-08
8.43051e-08
8.4303e-08
8.42997e-08
8.42972e-08
8.42953e-08
8.42975e-08
8.43007e-08
8.431e-08
8.43204e-08
8.43372e-08
8.43565e-08
8.4376e-08
8.44005e-08
8.44191e-08
8.44384e-08
8.44508e-08
8.44581e-08
8.44612e-08
8.44581e-08
8.44517e-08
8.44418e-08
8.44309e-08
8.44193e-08
8.44081e-08
8.43986e-08
8.4391e-08
8.43871e-08
8.43884e-08
8.43925e-08
8.43988e-08
8.44072e-08
8.44142e-08
8.44206e-08
8.44158e-08
8.44267e-08
8.43723e-08
8.40535e-08
8.40707e-08
8.40979e-08
8.41404e-08
8.41616e-08
8.41836e-08
8.41973e-08
8.42007e-08
8.4202e-08
8.42089e-08
8.42095e-08
8.42091e-08
8.42079e-08
8.42094e-08
8.42124e-08
8.42146e-08
8.4217e-08
8.42241e-08
8.4237e-08
8.42491e-08
8.42616e-08
8.42749e-08
8.42905e-08
8.43105e-08
8.43269e-08
8.43356e-08
8.43371e-08
8.43366e-08
8.43295e-08
8.43143e-08
8.43004e-08
8.42861e-08
8.42715e-08
8.42576e-08
8.42476e-08
8.42389e-08
8.42346e-08
8.4233e-08
8.42328e-08
8.42363e-08
8.42395e-08
8.42453e-08
8.42544e-08
8.4258e-08
8.42617e-08
8.42655e-08
8.42683e-08
8.42705e-08
8.42718e-08
8.42714e-08
8.42697e-08
8.4268e-08
8.42647e-08
8.42631e-08
8.42624e-08
8.42653e-08
8.42697e-08
8.42802e-08
8.4292e-08
8.43109e-08
8.43323e-08
8.43538e-08
8.43809e-08
8.44019e-08
8.44235e-08
8.44383e-08
8.44469e-08
8.44517e-08
8.44501e-08
8.44446e-08
8.44356e-08
8.44249e-08
8.44137e-08
8.44033e-08
8.43936e-08
8.43865e-08
8.43829e-08
8.4384e-08
8.43877e-08
8.43937e-08
8.44013e-08
8.44078e-08
8.44166e-08
8.44188e-08
8.44313e-08
8.44131e-08
8.4291e-08
8.4315e-08
8.43379e-08
8.43667e-08
8.43621e-08
8.43633e-08
8.4354e-08
8.43372e-08
8.4313e-08
8.42973e-08
8.42732e-08
8.42495e-08
8.42253e-08
8.4204e-08
8.41867e-08
8.41714e-08
8.4162e-08
8.41624e-08
8.41722e-08
8.41836e-08
8.41998e-08
8.42211e-08
8.42471e-08
8.42763e-08
8.42989e-08
8.4312e-08
8.43177e-08
8.43194e-08
8.43111e-08
8.42973e-08
8.42847e-08
8.42699e-08
8.42558e-08
8.42429e-08
8.42349e-08
8.42283e-08
8.42259e-08
8.42249e-08
8.42264e-08
8.42309e-08
8.42349e-08
8.42409e-08
8.42448e-08
8.42511e-08
8.42563e-08
8.42624e-08
8.42661e-08
8.42692e-08
8.42711e-08
8.42707e-08
8.42685e-08
8.42659e-08
8.42619e-08
8.426e-08
8.42587e-08
8.42614e-08
8.42657e-08
8.42772e-08
8.42897e-08
8.43095e-08
8.43317e-08
8.43551e-08
8.43843e-08
8.44074e-08
8.44303e-08
8.44474e-08
8.44575e-08
8.44631e-08
8.44625e-08
8.44586e-08
8.44497e-08
8.44401e-08
8.44289e-08
8.44181e-08
8.44089e-08
8.44013e-08
8.43975e-08
8.43983e-08
8.44015e-08
8.44074e-08
8.44137e-08
8.44201e-08
8.44269e-08
8.44281e-08
8.4442e-08
8.44037e-08
8.41415e-08
8.41616e-08
8.41915e-08
8.42286e-08
8.42418e-08
8.42594e-08
8.42651e-08
8.4267e-08
8.42584e-08
8.42578e-08
8.4249e-08
8.42406e-08
8.42315e-08
8.42237e-08
8.42178e-08
8.42119e-08
8.42089e-08
8.42121e-08
8.42213e-08
8.4229e-08
8.4241e-08
8.42558e-08
8.42751e-08
8.42965e-08
8.43123e-08
8.43194e-08
8.43203e-08
8.4315e-08
8.43006e-08
8.42855e-08
8.42685e-08
8.42496e-08
8.42329e-08
8.42175e-08
8.42083e-08
8.42009e-08
8.41979e-08
8.41966e-08
8.41978e-08
8.42034e-08
8.4209e-08
8.42175e-08
8.42258e-08
8.42356e-08
8.42426e-08
8.42501e-08
8.42545e-08
8.42583e-08
8.42603e-08
8.42595e-08
8.42573e-08
8.42539e-08
8.42496e-08
8.42453e-08
8.42438e-08
8.42464e-08
8.42502e-08
8.42625e-08
8.42754e-08
8.42961e-08
8.43195e-08
8.43449e-08
8.43774e-08
8.44039e-08
8.4429e-08
8.44487e-08
8.44619e-08
8.44697e-08
8.44699e-08
8.44674e-08
8.44595e-08
8.44507e-08
8.44404e-08
8.44301e-08
8.44213e-08
8.4414e-08
8.44097e-08
8.44107e-08
8.4414e-08
8.442e-08
8.44262e-08
8.44315e-08
8.44367e-08
8.44356e-08
8.44469e-08
8.44108e-08
8.42646e-08
8.42918e-08
8.43217e-08
8.43519e-08
8.43496e-08
8.43532e-08
8.43465e-08
8.43396e-08
8.43155e-08
8.43028e-08
8.42783e-08
8.42564e-08
8.42331e-08
8.42119e-08
8.41951e-08
8.41789e-08
8.41675e-08
8.41664e-08
8.41761e-08
8.41897e-08
8.42093e-08
8.42319e-08
8.42575e-08
8.42849e-08
8.43039e-08
8.43124e-08
8.43113e-08
8.43017e-08
8.42846e-08
8.42707e-08
8.42522e-08
8.42283e-08
8.42097e-08
8.41941e-08
8.4186e-08
8.41798e-08
8.41801e-08
8.41812e-08
8.4185e-08
8.41928e-08
8.41989e-08
8.42084e-08
8.4216e-08
8.42257e-08
8.42321e-08
8.42414e-08
8.42469e-08
8.42523e-08
8.42549e-08
8.42536e-08
8.42511e-08
8.42466e-08
8.42415e-08
8.42371e-08
8.42339e-08
8.42366e-08
8.42405e-08
8.42534e-08
8.42672e-08
8.42898e-08
8.43149e-08
8.43421e-08
8.43768e-08
8.44052e-08
8.44324e-08
8.4454e-08
8.44687e-08
8.44784e-08
8.44801e-08
8.44789e-08
8.44715e-08
8.44634e-08
8.44535e-08
8.44441e-08
8.44352e-08
8.44286e-08
8.44247e-08
8.44253e-08
8.44281e-08
8.44335e-08
8.44388e-08
8.44434e-08
8.44474e-08
8.44454e-08
8.44576e-08
8.4416e-08
8.41707e-08
8.41988e-08
8.42386e-08
8.42769e-08
8.42857e-08
8.42973e-08
8.43017e-08
8.4307e-08
8.42943e-08
8.42901e-08
8.42761e-08
8.4264e-08
8.42484e-08
8.42324e-08
8.42182e-08
8.42037e-08
8.41937e-08
8.41911e-08
8.41976e-08
8.42056e-08
8.42217e-08
8.42417e-08
8.42655e-08
8.42888e-08
8.43043e-08
8.43093e-08
8.43048e-08
8.42939e-08
8.42801e-08
8.42578e-08
8.42251e-08
8.42013e-08
8.41762e-08
8.41553e-08
8.41436e-08
8.41348e-08
8.41343e-08
8.41355e-08
8.41406e-08
8.41496e-08
8.41592e-08
8.41715e-08
8.41838e-08
8.4196e-08
8.4208e-08
8.42193e-08
8.42239e-08
8.42294e-08
8.42335e-08
8.4232e-08
8.42293e-08
8.42241e-08
8.4218e-08
8.42122e-08
8.42093e-08
8.42107e-08
8.42154e-08
8.42293e-08
8.42438e-08
8.42689e-08
8.42966e-08
8.43268e-08
8.43664e-08
8.43989e-08
8.443e-08
8.44563e-08
8.4474e-08
8.44849e-08
8.44895e-08
8.44893e-08
8.44818e-08
8.44751e-08
8.44648e-08
8.44556e-08
8.44478e-08
8.44406e-08
8.44379e-08
8.44378e-08
8.44405e-08
8.44451e-08
8.44499e-08
8.44539e-08
8.44564e-08
8.44527e-08
8.44619e-08
8.44126e-08
8.42178e-08
8.42526e-08
8.43009e-08
8.4339e-08
8.43402e-08
8.43457e-08
8.4345e-08
8.43502e-08
8.43327e-08
8.43194e-08
8.4297e-08
8.42775e-08
8.42526e-08
8.42263e-08
8.42003e-08
8.41774e-08
8.41639e-08
8.41606e-08
8.41698e-08
8.41837e-08
8.42043e-08
8.42271e-08
8.42564e-08
8.42834e-08
8.43033e-08
8.43125e-08
8.43105e-08
8.42994e-08
8.42753e-08
8.42484e-08
8.42115e-08
8.41786e-08
8.41539e-08
8.41356e-08
8.4128e-08
8.41236e-08
8.41279e-08
8.41322e-08
8.41401e-08
8.41514e-08
8.41598e-08
8.41719e-08
8.41804e-08
8.41933e-08
8.41995e-08
8.42131e-08
8.42216e-08
8.42298e-08
8.4236e-08
8.42354e-08
8.42318e-08
8.42256e-08
8.42194e-08
8.42123e-08
8.42098e-08
8.42111e-08
8.4216e-08
8.42325e-08
8.42476e-08
8.42764e-08
8.43064e-08
8.43397e-08
8.4384e-08
8.44212e-08
8.44548e-08
8.44834e-08
8.45036e-08
8.45145e-08
8.45189e-08
8.45214e-08
8.45142e-08
8.45069e-08
8.44944e-08
8.44842e-08
8.44745e-08
8.44662e-08
8.44622e-08
8.4462e-08
8.44642e-08
8.44684e-08
8.44724e-08
8.44763e-08
8.44781e-08
8.44721e-08
8.44807e-08
8.4424e-08
8.41469e-08
8.41857e-08
8.42461e-08
8.4297e-08
8.43121e-08
8.43275e-08
8.43392e-08
8.43565e-08
8.43495e-08
8.43439e-08
8.43296e-08
8.43153e-08
8.42944e-08
8.42687e-08
8.4242e-08
8.42156e-08
8.41959e-08
8.41865e-08
8.4187e-08
8.41925e-08
8.42062e-08
8.42225e-08
8.42425e-08
8.42614e-08
8.42747e-08
8.42813e-08
8.42812e-08
8.42692e-08
8.42531e-08
8.42244e-08
8.42041e-08
8.41644e-08
8.41402e-08
8.4115e-08
8.40975e-08
8.40882e-08
8.40892e-08
8.40911e-08
8.40998e-08
8.41129e-08
8.41267e-08
8.41444e-08
8.41623e-08
8.41818e-08
8.42014e-08
8.42159e-08
8.42199e-08
8.42249e-08
8.42293e-08
8.42242e-08
8.42165e-08
8.42068e-08
8.41966e-08
8.41872e-08
8.41811e-08
8.41799e-08
8.41838e-08
8.41995e-08
8.42152e-08
8.42459e-08
8.42765e-08
8.43145e-08
8.4366e-08
8.44113e-08
8.44505e-08
8.44863e-08
8.45129e-08
8.45293e-08
8.45374e-08
8.45446e-08
8.45391e-08
8.45339e-08
8.45197e-08
8.45085e-08
8.44974e-08
8.44871e-08
8.44799e-08
8.4477e-08
8.44757e-08
8.44765e-08
8.44766e-08
8.44768e-08
8.44742e-08
8.44637e-08
8.44702e-08
8.44073e-08
8.41386e-08
8.41862e-08
8.42554e-08
8.43108e-08
8.43293e-08
8.4344e-08
8.43559e-08
8.43742e-08
8.43684e-08
8.43644e-08
8.43491e-08
8.43348e-08
8.4312e-08
8.4284e-08
8.4262e-08
8.42444e-08
8.42366e-08
8.42387e-08
8.42509e-08
8.4268e-08
8.4293e-08
8.432e-08
8.43521e-08
8.43845e-08
8.44067e-08
8.44125e-08
8.43999e-08
8.43741e-08
8.4329e-08
8.42847e-08
8.42167e-08
8.41772e-08
8.41276e-08
8.40972e-08
8.40877e-08
8.40836e-08
8.40916e-08
8.4098e-08
8.41093e-08
8.41236e-08
8.41356e-08
8.41496e-08
8.41613e-08
8.41774e-08
8.41826e-08
8.41973e-08
8.42069e-08
8.4219e-08
8.42299e-08
8.42285e-08
8.42244e-08
8.42159e-08
8.42079e-08
8.41983e-08
8.41939e-08
8.41945e-08
8.41996e-08
8.42168e-08
8.42343e-08
8.42668e-08
8.42974e-08
8.4337e-08
8.43915e-08
8.44407e-08
8.44814e-08
8.4517e-08
8.4543e-08
8.45585e-08
8.45683e-08
8.45771e-08
8.45748e-08
8.45739e-08
8.45641e-08
8.45576e-08
8.45501e-08
8.45447e-08
8.45413e-08
8.45408e-08
8.45426e-08
8.45461e-08
8.45487e-08
8.45501e-08
8.4547e-08
8.45342e-08
8.45342e-08
8.44623e-08
8.4091e-08
8.41376e-08
8.42166e-08
8.42834e-08
8.4312e-08
8.43326e-08
8.43487e-08
8.43728e-08
8.43697e-08
8.43671e-08
8.43523e-08
8.43381e-08
8.43113e-08
8.42753e-08
8.42557e-08
8.42404e-08
8.42379e-08
8.42455e-08
8.42636e-08
8.42878e-08
8.43203e-08
8.43557e-08
8.43965e-08
8.44421e-08
8.4482e-08
8.45049e-08
8.45022e-08
8.44665e-08
8.4419e-08
8.43366e-08
8.42882e-08
8.42107e-08
8.41789e-08
8.41532e-08
8.413e-08
8.41056e-08
8.41053e-08
8.4097e-08
8.40968e-08
8.41008e-08
8.41077e-08
8.41183e-08
8.41266e-08
8.41331e-08
8.41459e-08
8.41773e-08
8.4192e-08
8.42085e-08
8.42243e-08
8.42266e-08
8.4226e-08
8.42197e-08
8.42114e-08
8.42027e-08
8.41964e-08
8.41967e-08
8.42017e-08
8.42186e-08
8.42343e-08
8.42673e-08
8.42961e-08
8.43373e-08
8.43919e-08
8.44434e-08
8.44853e-08
8.45194e-08
8.45445e-08
8.45602e-08
8.45669e-08
8.45752e-08
8.45731e-08
8.45715e-08
8.45615e-08
8.45547e-08
8.45471e-08
8.45442e-08
8.45409e-08
8.45428e-08
8.45461e-08
8.45519e-08
8.45581e-08
8.45629e-08
8.45647e-08
8.45573e-08
8.45595e-08
8.4487e-08
8.40874e-08
8.41431e-08
8.42298e-08
8.43002e-08
8.43306e-08
8.43528e-08
8.4372e-08
8.4402e-08
8.43992e-08
8.43897e-08
8.43734e-08
8.4352e-08
8.43116e-08
8.42696e-08
8.42438e-08
8.42228e-08
8.42169e-08
8.42243e-08
8.42427e-08
8.42698e-08
8.43089e-08
8.43509e-08
8.43957e-08
8.44412e-08
8.44774e-08
8.44971e-08
8.44909e-08
8.44613e-08
8.44191e-08
8.43677e-08
8.43076e-08
8.42394e-08
8.41882e-08
8.41378e-08
8.41114e-08
8.40963e-08
8.40795e-08
8.40767e-08
8.40867e-08
8.41067e-08
8.41185e-08
8.414e-08
8.41552e-08
8.41752e-08
8.4201e-08
8.42225e-08
8.42283e-08
8.4237e-08
8.4245e-08
8.42415e-08
8.42358e-08
8.42256e-08
8.42128e-08
8.42005e-08
8.41913e-08
8.4189e-08
8.4192e-08
8.42065e-08
8.42219e-08
8.42563e-08
8.42848e-08
8.43298e-08
8.43861e-08
8.44415e-08
8.44868e-08
8.45237e-08
8.45538e-08
8.45701e-08
8.45788e-08
8.45861e-08
8.45844e-08
8.45805e-08
8.45665e-08
8.45573e-08
8.45506e-08
8.45442e-08
8.45397e-08
8.45397e-08
8.45408e-08
8.45435e-08
8.45452e-08
8.45449e-08
8.45399e-08
8.45246e-08
8.45222e-08
8.44472e-08
8.40686e-08
8.41221e-08
8.42118e-08
8.42871e-08
8.43238e-08
8.43511e-08
8.43756e-08
8.44123e-08
8.44159e-08
8.44049e-08
8.43933e-08
8.43681e-08
8.43252e-08
8.42793e-08
8.4249e-08
8.42235e-08
8.42136e-08
8.42176e-08
8.42317e-08
8.42543e-08
8.42906e-08
8.43358e-08
8.43859e-08
8.44377e-08
8.44766e-08
8.44939e-08
8.44805e-08
8.4443e-08
8.43854e-08
8.43055e-08
8.42122e-08
8.41654e-08
8.41111e-08
8.40697e-08
8.4046e-08
8.4031e-08
8.40659e-08
8.40704e-08
8.40953e-08
8.41143e-08
8.41394e-08
8.41619e-08
8.41859e-08
8.42117e-08
8.42228e-08
8.42381e-08
8.42438e-08
8.42494e-08
8.42544e-08
8.42479e-08
8.42383e-08
8.42264e-08
8.4211e-08
8.41929e-08
8.41806e-08
8.4175e-08
8.41757e-08
8.41903e-08
8.4207e-08
8.4244e-08
8.42749e-08
8.43232e-08
8.43831e-08
8.44393e-08
8.44853e-08
8.45261e-08
8.45586e-08
8.45742e-08
8.45876e-08
8.45981e-08
8.45955e-08
8.45923e-08
8.45786e-08
8.45695e-08
8.45659e-08
8.45564e-08
8.45549e-08
8.45555e-08
8.45585e-08
8.45601e-08
8.45566e-08
8.45536e-08
8.45451e-08
8.45248e-08
8.45189e-08
8.44387e-08
8.40355e-08
8.4089e-08
8.41856e-08
8.42663e-08
8.43101e-08
8.4342e-08
8.43721e-08
8.44136e-08
8.44216e-08
8.44103e-08
8.44012e-08
8.43737e-08
8.43306e-08
8.42842e-08
8.42522e-08
8.42241e-08
8.42121e-08
8.42143e-08
8.42262e-08
8.42458e-08
8.4278e-08
8.43224e-08
8.43762e-08
8.44344e-08
8.44789e-08
8.45029e-08
8.44976e-08
8.44636e-08
8.44162e-08
8.43336e-08
8.4268e-08
8.41648e-08
8.41104e-08
8.40733e-08
8.40665e-08
8.40428e-08
8.40449e-08
8.40533e-08
8.40634e-08
8.40695e-08
8.40887e-08
8.41053e-08
8.41277e-08
8.41504e-08
8.4156e-08
8.41712e-08
8.41873e-08
8.42051e-08
8.4219e-08
8.4217e-08
8.42095e-08
8.41991e-08
8.41877e-08
8.41677e-08
8.41566e-08
8.41529e-08
8.41565e-08
8.41747e-08
8.41952e-08
8.42326e-08
8.42632e-08
8.43133e-08
8.43761e-08
8.44348e-08
8.44845e-08
8.4527e-08
8.45594e-08
8.45773e-08
8.45927e-08
8.46053e-08
8.46036e-08
8.4599e-08
8.45859e-08
8.45768e-08
8.45719e-08
8.45624e-08
8.45626e-08
8.45642e-08
8.45691e-08
8.45729e-08
8.45737e-08
8.45734e-08
8.45687e-08
8.45498e-08
8.45421e-08
8.44606e-08
8.39404e-08
8.39884e-08
8.40876e-08
8.41775e-08
8.42402e-08
8.4289e-08
8.43347e-08
8.43923e-08
8.4414e-08
8.44076e-08
8.44018e-08
8.43751e-08
8.4333e-08
8.42872e-08
8.42559e-08
8.42278e-08
8.42142e-08
8.42154e-08
8.4226e-08
8.42439e-08
8.42733e-08
8.43146e-08
8.4364e-08
8.4421e-08
8.4463e-08
8.44826e-08
8.44631e-08
8.44093e-08
8.43188e-08
8.42443e-08
8.41475e-08
8.4107e-08
8.40519e-08
8.40135e-08
8.4002e-08
8.40047e-08
8.40205e-08
8.40084e-08
8.40324e-08
8.40615e-08
8.40691e-08
8.4094e-08
8.40973e-08
8.41127e-08
8.41268e-08
8.41556e-08
8.41638e-08
8.41849e-08
8.42028e-08
8.42038e-08
8.41982e-08
8.41852e-08
8.41754e-08
8.41602e-08
8.415e-08
8.41475e-08
8.41514e-08
8.41679e-08
8.41859e-08
8.42233e-08
8.42498e-08
8.43057e-08
8.43647e-08
8.4431e-08
8.44848e-08
8.45233e-08
8.45609e-08
8.45795e-08
8.45972e-08
8.46111e-08
8.46115e-08
8.46091e-08
8.45961e-08
8.4592e-08
8.45781e-08
8.45701e-08
8.45712e-08
8.45713e-08
8.45757e-08
8.45794e-08
8.45802e-08
8.45826e-08
8.45793e-08
8.45645e-08
8.45573e-08
8.44769e-08
8.37246e-08
8.37654e-08
8.38631e-08
8.39656e-08
8.40558e-08
8.41396e-08
8.42193e-08
8.43095e-08
8.43619e-08
8.43749e-08
8.43808e-08
8.43607e-08
8.43262e-08
8.42838e-08
8.42547e-08
8.42278e-08
8.4214e-08
8.4216e-08
8.42278e-08
8.42473e-08
8.42796e-08
8.43231e-08
8.43701e-08
8.44251e-08
8.44656e-08
8.44885e-08
8.4479e-08
8.44436e-08
8.43892e-08
8.43053e-08
8.42101e-08
8.41578e-08
8.40827e-08
8.40412e-08
8.40151e-08
8.39857e-08
8.39974e-08
8.40112e-08
8.40301e-08
8.40476e-08
8.40747e-08
8.40889e-08
8.41092e-08
8.41383e-08
8.41595e-08
8.418e-08
8.41895e-08
8.42064e-08
8.4221e-08
8.42193e-08
8.42102e-08
8.41929e-08
8.4177e-08
8.41605e-08
8.41482e-08
8.41415e-08
8.41436e-08
8.41556e-08
8.41714e-08
8.42078e-08
8.42356e-08
8.4294e-08
8.43575e-08
8.44241e-08
8.44797e-08
8.45182e-08
8.4557e-08
8.45764e-08
8.45975e-08
8.46124e-08
8.46146e-08
8.4616e-08
8.46052e-08
8.46008e-08
8.45859e-08
8.45772e-08
8.45841e-08
8.45806e-08
8.45763e-08
8.45845e-08
8.45857e-08
8.45879e-08
8.45795e-08
8.45633e-08
8.45553e-08
8.44739e-08
8.32638e-08
8.32911e-08
8.33737e-08
8.34965e-08
8.36299e-08
8.37783e-08
8.39316e-08
8.40847e-08
8.42011e-08
8.42698e-08
8.43061e-08
8.43119e-08
8.42971e-08
8.42657e-08
8.42438e-08
8.42221e-08
8.42093e-08
8.42124e-08
8.42255e-08
8.42468e-08
8.42822e-08
8.43285e-08
8.43758e-08
8.44273e-08
8.44572e-08
8.44603e-08
8.44222e-08
8.43591e-08
8.42817e-08
8.42135e-08
8.41334e-08
8.40725e-08
8.40316e-08
8.39897e-08
8.39713e-08
8.39797e-08
8.39655e-08
8.39912e-08
8.39989e-08
8.40228e-08
8.40637e-08
8.40868e-08
8.41068e-08
8.41388e-08
8.41632e-08
8.41851e-08
8.41955e-08
8.42127e-08
8.42287e-08
8.42243e-08
8.42131e-08
8.41918e-08
8.41698e-08
8.41511e-08
8.41373e-08
8.41253e-08
8.41239e-08
8.41342e-08
8.415e-08
8.41889e-08
8.42177e-08
8.42763e-08
8.43388e-08
8.44053e-08
8.44623e-08
8.45051e-08
8.45428e-08
8.45672e-08
8.45934e-08
8.46117e-08
8.46169e-08
8.46203e-08
8.46127e-08
8.46048e-08
8.46012e-08
8.45946e-08
8.45897e-08
8.45921e-08
8.4599e-08
8.45956e-08
8.45897e-08
8.45988e-08
8.45948e-08
8.45791e-08
8.45629e-08
8.44769e-08
8.23365e-08
8.23152e-08
8.2376e-08
8.25282e-08
8.27352e-08
8.29996e-08
8.32833e-08
8.35607e-08
8.38055e-08
8.39827e-08
8.40955e-08
8.41618e-08
8.41934e-08
8.41971e-08
8.41971e-08
8.41916e-08
8.41884e-08
8.42002e-08
8.42204e-08
8.42485e-08
8.42914e-08
8.43471e-08
8.44039e-08
8.44635e-08
8.44969e-08
8.45096e-08
8.44945e-08
8.44603e-08
8.44004e-08
8.42869e-08
8.41621e-08
8.40799e-08
8.40182e-08
8.39723e-08
8.39528e-08
8.39485e-08
8.39577e-08
8.39546e-08
8.40018e-08
8.40074e-08
8.40183e-08
8.40726e-08
8.40935e-08
8.41217e-08
8.4138e-08
8.41648e-08
8.41751e-08
8.41963e-08
8.42126e-08
8.42133e-08
8.42017e-08
8.41798e-08
8.4154e-08
8.41319e-08
8.4116e-08
8.41e-08
8.40965e-08
8.4098e-08
8.41117e-08
8.41417e-08
8.41584e-08
8.4206e-08
8.42458e-08
8.43036e-08
8.4358e-08
8.43999e-08
8.44469e-08
8.4488e-08
8.45309e-08
8.45691e-08
8.45907e-08
8.46055e-08
8.46031e-08
8.46064e-08
8.46e-08
8.45961e-08
8.46055e-08
8.46078e-08
8.46075e-08
8.4614e-08
8.46071e-08
8.46171e-08
8.46045e-08
8.45834e-08
8.45673e-08
8.44767e-08
8.0464e-08
8.03317e-08
8.03393e-08
8.05392e-08
8.08914e-08
8.13739e-08
8.18992e-08
8.24295e-08
8.29342e-08
8.33306e-08
8.36151e-08
8.3815e-08
8.39391e-08
8.40174e-08
8.40666e-08
8.40979e-08
8.41175e-08
8.41462e-08
8.41821e-08
8.42239e-08
8.42786e-08
8.4343e-08
8.44052e-08
8.44689e-08
8.45025e-08
8.45047e-08
8.446e-08
8.43836e-08
8.42924e-08
8.41974e-08
8.40996e-08
8.40047e-08
8.3944e-08
8.39123e-08
8.39148e-08
8.39094e-08
8.39357e-08
8.39262e-08
8.39964e-08
8.39914e-08
8.40008e-08
8.40205e-08
8.40551e-08
8.40829e-08
8.40968e-08
8.41247e-08
8.41354e-08
8.41596e-08
8.41804e-08
8.41835e-08
8.41724e-08
8.41495e-08
8.41212e-08
8.40903e-08
8.40625e-08
8.40362e-08
8.4016e-08
8.3998e-08
8.399e-08
8.39948e-08
8.39894e-08
8.40135e-08
8.40247e-08
8.40583e-08
8.41032e-08
8.41418e-08
8.42015e-08
8.42723e-08
8.4354e-08
8.44211e-08
8.44752e-08
8.45352e-08
8.45564e-08
8.45755e-08
8.4584e-08
8.45939e-08
8.46094e-08
8.46147e-08
8.46151e-08
8.46253e-08
8.46299e-08
8.46278e-08
8.46241e-08
8.46068e-08
8.45835e-08
8.44875e-08
7.70122e-08
7.66252e-08
7.64744e-08
7.6731e-08
7.73436e-08
7.82155e-08
7.91726e-08
8.01736e-08
8.11647e-08
8.19714e-08
8.25943e-08
8.30585e-08
8.33786e-08
8.35998e-08
8.37532e-08
8.38637e-08
8.39407e-08
8.40143e-08
8.40923e-08
8.41696e-08
8.42558e-08
8.4344e-08
8.44253e-08
8.44986e-08
8.45432e-08
8.45602e-08
8.45342e-08
8.44864e-08
8.44086e-08
8.4279e-08
8.41468e-08
8.40301e-08
8.39596e-08
8.39085e-08
8.38975e-08
8.38862e-08
8.38957e-08
8.38897e-08
8.39238e-08
8.39313e-08
8.39748e-08
8.39606e-08
8.39721e-08
8.40087e-08
8.40271e-08
8.40568e-08
8.40715e-08
8.41003e-08
8.41202e-08
8.4129e-08
8.41145e-08
8.4089e-08
8.40563e-08
8.40087e-08
8.39574e-08
8.3905e-08
8.38524e-08
8.37973e-08
8.37415e-08
8.36898e-08
8.36257e-08
8.35737e-08
8.34938e-08
8.34535e-08
8.34503e-08
8.3498e-08
8.35933e-08
8.3727e-08
8.39028e-08
8.40672e-08
8.42164e-08
8.43449e-08
8.44233e-08
8.44909e-08
8.45451e-08
8.45791e-08
8.45966e-08
8.46151e-08
8.463e-08
8.46313e-08
8.46302e-08
8.46437e-08
8.46383e-08
8.46224e-08
8.46045e-08
8.45111e-08
7.07899e-08
6.99526e-08
6.95468e-08
6.99024e-08
7.09371e-08
7.24669e-08
7.41711e-08
7.59867e-08
7.78254e-08
7.93719e-08
8.06014e-08
8.15523e-08
8.22347e-08
8.27206e-08
8.30715e-08
8.3328e-08
8.35138e-08
8.36713e-08
8.38295e-08
8.39738e-08
8.41202e-08
8.42551e-08
8.43776e-08
8.44768e-08
8.45362e-08
8.45679e-08
8.45503e-08
8.44848e-08
8.43652e-08
8.42167e-08
8.40934e-08
8.39816e-08
8.39035e-08
8.38422e-08
8.38251e-08
8.38068e-08
8.38043e-08
8.38105e-08
8.38245e-08
8.38237e-08
8.38191e-08
8.38501e-08
8.38375e-08
8.38596e-08
8.38856e-08
8.39128e-08
8.39305e-08
8.39575e-08
8.39855e-08
8.39889e-08
8.39804e-08
8.3947e-08
8.38968e-08
8.38119e-08
8.37043e-08
8.35797e-08
8.34436e-08
8.3287e-08
8.31129e-08
8.29177e-08
8.26975e-08
8.24558e-08
8.21829e-08
8.19837e-08
8.18969e-08
8.19265e-08
8.21016e-08
8.23831e-08
8.2756e-08
8.31264e-08
8.3482e-08
8.37753e-08
8.40149e-08
8.42046e-08
8.43255e-08
8.44214e-08
8.45056e-08
8.45551e-08
8.45859e-08
8.46129e-08
8.4618e-08
8.46332e-08
8.46354e-08
8.46117e-08
8.45845e-08
8.44893e-08
6.05286e-08
5.89324e-08
5.80206e-08
5.83871e-08
6.00388e-08
6.25832e-08
6.54947e-08
6.86536e-08
7.18772e-08
7.46501e-08
7.69207e-08
7.87091e-08
8.00276e-08
8.10025e-08
8.17149e-08
8.22466e-08
8.26406e-08
8.29613e-08
8.32738e-08
8.35557e-08
8.38383e-08
8.40873e-08
8.42972e-08
8.44529e-08
8.45118e-08
8.45204e-08
8.44592e-08
8.43809e-08
8.43302e-08
8.42418e-08
8.41026e-08
8.39435e-08
8.38285e-08
8.37394e-08
8.36957e-08
8.36477e-08
8.36134e-08
8.35929e-08
8.35639e-08
8.35408e-08
8.34997e-08
8.35364e-08
8.35068e-08
8.35086e-08
8.354e-08
8.35604e-08
8.35824e-08
8.36168e-08
8.36594e-08
8.36775e-08
8.36741e-08
8.36259e-08
8.35342e-08
8.33757e-08
8.31585e-08
8.28946e-08
8.25987e-08
8.22574e-08
8.1853e-08
8.13756e-08
8.08369e-08
8.02256e-08
7.95812e-08
7.90614e-08
7.87917e-08
7.87756e-08
7.90719e-08
7.9648e-08
8.037e-08
8.11294e-08
8.18816e-08
8.25444e-08
8.30855e-08
8.35126e-08
8.38331e-08
8.40692e-08
8.42487e-08
8.43966e-08
8.45028e-08
8.45732e-08
8.46161e-08
8.4622e-08
8.46446e-08
8.4648e-08
8.46274e-08
8.45304e-08
4.46438e-08
4.19122e-08
4.0244e-08
4.0524e-08
4.27201e-08
4.64897e-08
5.11431e-08
5.64592e-08
6.18389e-08
6.65475e-08
7.04918e-08
7.36545e-08
7.60363e-08
7.78274e-08
7.91704e-08
8.01805e-08
8.09308e-08
8.15279e-08
8.20988e-08
8.26272e-08
8.31287e-08
8.35689e-08
8.39181e-08
8.42248e-08
8.4439e-08
8.4541e-08
8.45726e-08
8.45389e-08
8.44059e-08
8.41923e-08
8.40033e-08
8.38138e-08
8.3656e-08
8.35223e-08
8.34278e-08
8.33262e-08
8.32348e-08
8.31449e-08
8.3046e-08
8.29992e-08
8.29475e-08
8.28826e-08
8.27834e-08
8.27423e-08
8.27593e-08
8.27936e-08
8.28262e-08
8.28964e-08
8.29661e-08
8.30184e-08
8.30263e-08
8.29538e-08
8.27808e-08
8.24752e-08
8.20334e-08
8.14832e-08
8.08557e-08
8.01168e-08
7.92331e-08
7.81634e-08
7.69562e-08
7.56189e-08
7.42519e-08
7.3159e-08
7.25057e-08
7.24626e-08
7.30271e-08
7.41323e-08
7.55119e-08
7.70197e-08
7.85427e-08
7.99081e-08
8.10425e-08
8.19463e-08
8.265e-08
8.31974e-08
8.36039e-08
8.39233e-08
8.41604e-08
8.43285e-08
8.44312e-08
8.45029e-08
8.4544e-08
8.45605e-08
8.45599e-08
8.44655e-08
2.6713e-08
2.43613e-08
2.30769e-08
2.32444e-08
2.48516e-08
2.79355e-08
3.23783e-08
3.82726e-08
4.5793e-08
5.32092e-08
5.98124e-08
6.50947e-08
6.918e-08
7.22964e-08
7.46711e-08
7.64778e-08
7.78376e-08
7.89211e-08
7.99478e-08
8.09561e-08
8.19137e-08
8.27527e-08
8.34083e-08
8.38496e-08
8.41012e-08
8.42212e-08
8.41944e-08
8.41139e-08
8.40537e-08
8.39919e-08
8.38321e-08
8.35887e-08
8.33356e-08
8.30973e-08
8.28848e-08
8.26576e-08
8.24332e-08
8.21909e-08
8.19368e-08
8.17624e-08
8.1608e-08
8.14393e-08
8.12696e-08
8.12813e-08
8.12298e-08
8.1278e-08
8.1331e-08
8.13862e-08
8.15219e-08
8.16652e-08
8.17046e-08
8.15816e-08
8.12526e-08
8.06648e-08
7.98085e-08
7.87439e-08
7.75201e-08
7.60822e-08
7.43318e-08
7.22019e-08
6.98227e-08
6.72397e-08
6.46494e-08
6.24827e-08
6.11258e-08
6.09052e-08
6.19347e-08
6.38874e-08
6.63879e-08
6.91797e-08
7.20547e-08
7.4672e-08
7.69366e-08
7.87802e-08
8.0269e-08
8.14526e-08
8.23723e-08
8.30599e-08
8.35778e-08
8.39525e-08
8.41986e-08
8.43566e-08
8.44511e-08
8.44918e-08
8.45088e-08
8.44329e-08
1.303e-08
1.15644e-08
1.0828e-08
1.11124e-08
1.22664e-08
1.41509e-08
1.72485e-08
2.19371e-08
2.80725e-08
3.52859e-08
4.32808e-08
5.12394e-08
5.79856e-08
6.31101e-08
6.70739e-08
7.00937e-08
7.2373e-08
7.41854e-08
7.59027e-08
7.76345e-08
7.93107e-08
8.08023e-08
8.20414e-08
8.30467e-08
8.37025e-08
8.40496e-08
8.41224e-08
8.40875e-08
8.40063e-08
8.37868e-08
8.34729e-08
8.31089e-08
8.26948e-08
8.22478e-08
8.17941e-08
8.13134e-08
8.08259e-08
8.0312e-08
7.97959e-08
7.94004e-08
7.90581e-08
7.87297e-08
7.84965e-08