/*--------------------------------*- C++ -*----------------------------------*\
| =========                 |                                                 |
| \\      /  F ield         | OpenFOAM: The Open Source CFD Toolbox           |
|  \\    /   O peration     | Version:  v1912                                 |
|   \\  /    A nd           | Website:  www.openfoam.com                      |
|    \\/     M anipulation  |                                                 |
\*---------------------------------------------------------------------------*/
FoamFile
{
    version     2.0;
    format      ascii;
    class       volScalarField;
    location    "50";
    object      p_rgh;
}
// * * * * * * * * * * * * * * * * * * * * * * * * * * * * * * * * * * * * * //

dimensions      [1 -1 -2 0 0 0 0];


internalField   nonuniform List<scalar> 
14268
(
-7879.01
-8547.51
-9048.44
-9341.77
-9448.72
-9358.63
-9091.88
-8659.33
-8076.75
-7365.61
-6563.58
-5693.42
-4771.3
-3813.66
-2833.64
-1843.46
-865.789
104.772
1090.35
2042.15
2956.86
3824.74
4631.87
5363.3
6003.64
6536.99
6950.59
7239.72
7401.09
7433.42
7347.36
7151.34
6859.77
6490.79
6063.45
5596.87
5109.16
4615.88
4129.64
3660.04
3213.9
2795.6
2406.77
2046.45
1711.29
1395.87
1092.92
793.945
489.658
171.707
-158.761
-526.725
-927.545
-1362.4
-1829.64
-2324.09
-2837.29
-3357.45
-3870.32
-4359.58
-4807.99
-5198.2
-5514.36
-5743.51
-5873.92
-5896.25
-5809.79
-5613.47
-5311.34
-4910.41
-4420.01
-3851.43
-3217.47
-2531.41
-1806.76
-1057.39
-297.999
462.493
1211.63
1931.05
2606.67
3225.69
3777.14
4251.69
4642.08
4941.27
-7985.82
-8619.55
-9089.2
-9359.05
-9441.45
-9333.33
-9053.76
-8613.07
-8027.16
-7315.36
-6513.73
-5646.54
-4728.42
-3775.48
-2800.3
-1814.75
-841.25
125.72
1108.16
2057.74
2970.98
3838.15
4645.32
5377.4
6018.75
6553.16
6967.89
7257.75
7419.06
7450.36
7362.85
7164.74
6870.6
6498.83
6068.71
5599.56
5109.63
4614.53
4126.9
3656.34
3209.65
2791.19
2402.55
2042.75
1708.39
1394.01
1092.28
794.599
491.521
173.904
-154.103
-522.287
-923.019
-1358.2
-1826.24
-2321.98
-2836.87
-3359.08
-3874.22
-4365.85
-4816.61
-5209
-5527.03
-5757.67
-5889.11
-5911.86
-5825.51
-5628.76
-5325.79
-4923.69
-4431.88
-3861.7
-3226.05
-2538.22
-1811.74
-1060.51
-299.18
463.261
1214.45
1935.93
2613.57
3234.47
3787.57
4263.41
4654.61
4952.48
-8057.96
-8687.76
-9152.42
-9411.48
-9490.07
-9376.14
-9089.8
-8642.17
-8049.73
-7332.67
-6526.24
-5654.96
-4733.78
-3778.04
-2800.63
-1813.33
-838.226
130.44
1114.59
2066.63
2982.91
3853.76
4665.12
5401.67
6047.31
6585.3
7002.67
7294.08
7455.34
7485
7394.05
7191.42
6891.98
6514.54
6078.83
5604.54
5110.18
4611.48
4121.12
3648.68
3200.93
2782.18
2393.96
2035.21
1702.46
1390.16
1090.85
795.767
495.191
178.1
-144.941
-513.697
-914.165
-1349.98
-1819.66
-2317.96
-2836.28
-3362.57
-3882.26
-4378.64
-4834.07
-5230.78
-5552.53
-5786.12
-5919.61
-5943.57
-5857.13
-5659.46
-5354.78
-4950.32
-4455.65
-3882.28
-3243.21
-2551.84
-1821.74
-1066.77
-301.583
464.797
1220.08
1945.69
2627.36
3252.04
3808.44
4286.95
4679.9
4978.91
-8181.43
-8788.21
-9231.62
-9473.46
-9533.06
-9402.17
-9102.8
-8644.88
-8045.24
-7322.67
-6511.43
-5637.69
-4715.45
-3759.84
-2783.21
-1797.04
-822.872
145.383
1129.49
2083.09
3002.23
3877.34
4694.2
5437.09
6089.22
6633.02
7054.87
7348.73
7509.91
7536.92
7441.11
7231.74
6924.2
6538.13
6093.95
5611.9
5110.87
4606.76
4112.3
3637.04
3187.7
2768.52
2380.92
2023.78
1693.49
1384.37
1088.74
797.617
501.128
189.711
-136.111
-500.853
-900.648
-1337.43
-1809.58
-2311.8
-2835.28
-3367.75
-3894.3
-4397.84
-4860.32
-5263.54
-5590.9
-5828.94
-5965.52
-5990.8
-5904.63
-5705.63
-5398.38
-4990.36
-4491.38
-3913.19
-3269.01
-2572.32
-1836.75
-1076.19
-305.237
467.091
1228.52
1960.33
2648.1
3278.48
3839.87
4322.39
4718.1
5018.4
-8311.98
-8913.02
-9349.12
-9575
-9625.84
-9486.23
-9174.85
-8704.67
-8093.52
-7360.81
-6539.9
-5657.61
-4728.29
-3767
-2785.92
-1796.23
-818.83
152.774
1140.21
2098.76
3024.04
3906.65
4732.18
5484.38
6145.59
6697.26
7125.01
7422.15
7583.31
7607
7504.35
7285.75
6967.24
6569.5
6113.89
5621.41
5111.44
4600.1
4100.18
3621.19
3169.77
2750.06
2363.34
2008.36
1681.38
1376.52
1085.84
800.046
508.983
203.127
-122.012
-483.386
-882.335
-1320.41
-1795.87
-2303.32
-2833.76
-3374.55
-3910.35
-4423.53
-4895.5
-5307.49
-5642.4
-5886.42
-6027.15
-6054.8
-5968.46
-5767.57
-5456.81
-5043.97
-4539.19
-3954.54
-3303.49
-2599.69
-1856.85
-1088.83
-310.218
470.11
1239.71
1979.83
2675.77
3313.8
3881.9
4369.86
4769.34
5071.93
-8467.03
-9054.16
-9475.2
-9685.6
-9720.69
-9564.62
-9238.3
-8754.17
-8130.86
-7387.43
-6556.48
-5666.36
-4731.2
-3765.69
-2781.67
-1789.98
-810.572
163.339
1153.51
2117.24
3049.5
3941.24
4777.76
5542.05
6215.27
6777.47
7213.14
7514.61
7675.76
7695.15
7584.04
7353.66
7021.18
6608.62
6138.55
5632.91
5111.7
4591.32
4084.58
3600.94
3146.96
2726.58
2341
1988.78
1666
1366.55
1082.16
803.11
518.809
219.188
-103.015
-460.868
-858.878
-1298.59
-1778.24
-2292.32
-2831.55
-3382.84
-3930.34
-4455.72
-4939.7
-5362.77
-5707.22
-5958.78
-6104.72
-6134.82
-6048.72
-5845.45
-5530.25
-5111.32
-4599.21
-4006.4
-3346.72
-2634.01
-1882.07
-1104.73
-316.528
473.765
1253.64
2004.2
2710.43
3358.13
3934.73
4429.59
4833.95
5139.12
-8646.33
-9227.93
-9639.04
-9839.84
-9860.73
-9690.46
-9347.58
-8846.31
-8206.44
-7447.77
-6602.28
-5699.21
-4753.36
-3779.3
-2788.61
-1791.64
-807.682
171.186
1166.39
2137.29
3078.93
3982.31
4832.49
5611.64
6299.57
6874.67
7319.99
7626.73
7787.93
7802.32
7680.66
7435.72
7086.08
6655.38
6167.66
5646.05
5111.27
4580
4065.11
3575.95
3118.95
2697.86
2313.67
1964.83
1647.19
1354.33
1077.6
806.774
530.638
238.306
-79.2552
-432.978
-829.961
-1271.67
-1756.37
-2278.5
-2828.42
-3392.53
-3954.27
-4494.5
-4993.12
-5429.69
-5785.74
-6046.45
-6198.71
-6232.28
-6145.98
-5939.7
-5619.03
-5192.64
-4671.59
-4068.9
-3398.79
-2675.36
-1912.49
-1123.97
-324.25
477.964
1270.23
2033.4
2752.1
3411.54
3998.5
4501.78
4912.11
5220.61
-8842.66
-9416.17
-9815.64
-10003.3
-10009
-9821.67
-9460.54
-8940.62
-8282.97
-7507.96
-6646.95
-5730.6
-4774.12
-3791.79
-2794.85
-1793.18
-804.978
178.56
1178.91
2157.92
3110.39
4027.66
4894.36
5691.64
6397.59
6988.61
7445.83
7759.06
7920.34
7928.94
7794.64
7532.21
7162
6709.62
6200.94
5660.45
5109.72
4565.73
4041.37
3545.85
3085.4
2663.55
2281.09
1936.28
1624.74
1339.73
1072.13
811.082
544.624
260.883
-50.6211
-399.258
-795.152
-1239.2
-1729.89
-2261.54
-2824.13
-3403.43
-3982.08
-4539.95
-5055.94
-5508.53
-5878.33
-6149.85
-6309.53
-6346.95
-6260.59
-6050.69
-5723.48
-5288.2
-4756.55
-4142.16
-3459.79
-2723.81
-1948.18
-1146.65
-333.522
482.664
1289.43
2067.42
2800.83
3474.18
4073.44
4586.74
5004.26
5316.63
-9067.66
-9637.89
-10030
-10208
-10197.1
-9991.64
-9609.64
-9067.52
-8387.82
-7592.14
-6711.52
-5777.61
-4806.71
-3812.91
-2807.13
-1798.62
-804.732
185.053
1191.89
2180.17
3145.3
4078.68
4964.61
5783.09
6510.3
7120.17
7591.52
7912.41
8073.77
8076.05
7926.66
7643.52
7249.06
6771.25
6238.1
5675.71
5106.6
4548.06
4012.93
3510.23
3045.95
2623.32
2242.92
1902.82
1598.41
1322.57
1065.66
816.051
560.912
287.266
-17.0164
-359.153
-753.995
-1200.73
-1698.31
-2241.01
-2818.36
-3415.38
-4013.73
-4592.19
-5128.44
-5599.71
-5985.52
-6269.58
-6437.76
-6480.02
-6393.2
-6178.93
-5844
-5398.32
-4854.31
-4226.36
-3529.84
-2779.44
-1989.25
-1172.87
-344.452
487.732
1311.13
2106.2
2856.65
3546.17
4159.77
4684.8
5110.73
5427.68
-9310.69
-9877.75
-10261.7
-10424.4
-10400.9
-10176.1
-9771.49
-9205.18
-8501.41
-7683.17
-6781.25
-5828.42
-4842.21
-3836.39
-2821.52
-1806.16
-806.488
189.646
1203.33
2201.96
3181.41
4133.38
5041.68
5885.05
6637.31
7269.55
7757.67
8087.66
8248.91
8244.54
8077.33
7769.95
7347.23
6839.93
6278.58
5691.17
5101.21
4526.29
3979.14
3468.52
3000.08
2576.7
2198.77
1864.13
1567.93
1302.67
1058.09
821.725
579.696
317.863
21.6883
-311.905
-705.98
-1155.66
-1661.09
-2216.46
-2810.75
-3428.14
-4049.18
-4651.31
-5210.89
-5703.64
-6107.86
-6406.24
-6583.92
-6631.93
-6544.42
-6324.98
-5981.08
-5523.37
-4965.14
-4321.66
-3609.04
-2842.36
-2035.77
-1202.74
-357.156
493.003
1335.22
2149.69
2919.61
3627.67
4257.8
4796.35
5232.02
5554.25
-9582.82
-10150.1
-10529.2
-10684
-10640.5
-10393.9
-9963.67
-9369.44
-8637.34
-7792.34
-6865.31
-5889.88
-4885.26
-3865.02
-2839.3
-1815.9
-809.593
193.42
1214.42
2224.28
3219.48
4192.27
5125.94
5997.82
6779.09
7437.44
7945.23
8285.94
8446.55
8435.9
8247.55
7912.04
7456.76
6915.58
6322.08
5706.36
5093.01
4499.88
3939.51
3420.26
2947.36
2523.3
2148.2
1819.8
1532.96
1279.78
1049.31
828.14
601.211
353.146
68.9677
-260.002
-650.618
-1103.35
-1617.61
-2187.33
-2800.89
-3441.49
-4088.37
-4717.49
-5303.67
-5820.88
-6246.07
-6560.67
-6748.69
-6804.28
-6715.02
-6489.51
-6135.26
-5663.77
-5089.31
-4428.25
-3697.52
-2912.65
-2087.86
-1236.4
-371.837
498.341
1361.54
2197.8
2989.72
3718.86
4367.81
4921.83
5368.65
5696.92
-9876.43
-10445.3
-10819.8
-10957.2
-10902.6
-10632.9
-10174.8
-9549.99
-8786.62
-7912.06
-6957.52
-5957.28
-4932.68
-3896.94
-2859.77
-1828.09
-815.047
194.869
1223.39
2245.26
3257.73
4253.83
5216.32
6120.91
6935.71
7624.5
8155.31
8508.66
8667.21
8651.9
8437.99
8070.02
7577.32
6997.49
6367.61
5720.2
5080.91
4467.82
3893.12
3364.68
2887.12
2462.51
2090.75
1769.4
1493.12
1253.6
1039.17
835.289
625.676
393.363
122.305
-199.747
-587.01
-1043.02
-1567.14
-2153.02
-2788.31
-3455.14
-4131.23
-4790.88
-5407.14
-5952
-6400.89
-6733.77
-6932.45
-6997.43
-6905.64
-6673.21
-6307.15
-5820
-5227.14
-4546.3
-3795.38
-2990.4
-2145.62
-1274
-388.687
503.525
1389.91
2250.43
3067.01
3819.91
4490.2
5061.79
5521.26
5856.4
-10199.4
-10772.8
-11145.4
-11282.4
-11199
-10903.1
-10413.7
-9754.19
-8955.06
-8046.6
-7060.81
-6032.4
-4985.11
-3931.97
-2882.21
-1841.73
-821.813
194.86
1230.78
2265.03
3295.98
4317.71
5312.41
6254.08
7107.3
7831.26
8388.93
8757.55
8916.32
8889.87
8649.64
8244.79
7709.57
7085.89
6415.02
5732.26
5064.38
4429.55
3839.48
3301.29
2818.88
2393.84
2025.84
1712.41
1448.09
1223.92
1027.56
843.265
653.324
438.959
182.579
-130.661
-514.264
-973.782
-1508.86
-2112.79
-2772.46
-3468.78
-4177.72
-4871.72
-5521.82
-6097.77
-6573.35
-6926.87
-7139.32
-7211.53
-7117.27
-6877.02
-6497.47
-5992.56
-5378.99
-4676.04
-3902.73
-3075.69
-2209.17
-1315.69
-407.854
508.223
1420.08
2307.39
3151.45
3930.97
4625.29
5216.7
5690.47
6033.33
-10547.6
-11127.7
-11499.2
-11623
-11523.1
-11199.7
-10676
-9978.29
-9139.49
-8193.38
-7173.2
-6113.84
-5041.72
-3969.81
-2906.78
-1857.35
-830.698
192.344
1235.36
2282.19
3332.77
4382.54
5413.19
6396.81
7293.98
8058.62
8647.51
9034.21
9196.15
9151.51
8883.08
8436.37
7852.42
7178.96
6462.23
5740.57
5041.62
4383.56
3777.34
3229.09
2741.81
2316.58
1952.89
1648.24
1397.14
1190.26
1014.21
851.97
684.221
490.303
250.585
-52.0644
-431.424
-894.667
-1441.91
-2065.96
-2752.86
-3482.17
-4227.86
-4960.28
-5648.19
-6258.9
-6764.33
-7141.17
-7370.48
-7444.11
-7350.77
-7101.82
-6706.98
-6182.03
-5545.19
-4817.61
-4019.63
-3168.57
-2278.6
-1361.64
-429.669
512.227
1451.78
2368.55
3243.05
4052.3
4773.59
5387.32
5877.16
6228.7
-10804.4
-11390.7
-11762.4
-11878.5
-11765.6
-11421.7
-10872.2
-10145.5
-9276.38
-8301.52
-7255.29
-6172.74
-5082.03
-3996.35
-2923.9
-1868.44
-837.575
189.127
1236.31
2291.44
3355.86
4426.24
5483.97
6499.68
7430.89
8227.25
8840.62
9241.52
9405.19
9348.11
9057.15
8577.96
7956.92
7245.94
6494.71
5743.84
5022.16
4347.23
3729.5
3174.14
2683.48
2258.21
1897.76
1599.67
1358.4
1164.45
1003.86
858.484
707.672
529.446
302.52
8.20025
-367.921
-833.801
-1390.17
-2029.29
-2736.68
-3490.9
-4264.34
-5025.8
-5742.27
-6379.22
-6907.18
-7301.59
-7543.01
-7619.61
-7525.03
-7269.06
-6862.39
-6322.17
-5667.66
-4921.58
-4105.28
-3236.6
-2329.63
-1395.78
-446.365
514.133
1474.04
2412.62
3309.9
4141.53
4883.27
5513.96
6015.99
6374.07
-10942.2
-11532.2
-11904.2
-12016.3
-11896.5
-11541.6
-10978
-10235.6
-9350.02
-8359.53
-7299.17
-6204.15
-5103.46
-4010.41
-2932.98
-1874.4
-841.404
187.083
1236.34
2295.73
3367.48
4448.93
5521.33
6554.55
7504.41
8318.21
8945.07
9353.83
9518.38
9454.75
9151.21
8654.31
8012.91
7281.27
6511.22
5744.73
5010.69
4326.82
3703.03
3143.97
2651.58
2226.35
1867.67
1573.15
1337.31
1150.39
998.192
862.014
720.447
550.791
330.862
41.1296
-333.221
-800.471
-1361.78
-2009.07
-2727.57
-3495.32
-4283.85
-5061.09
-5793.08
-6444.29
-6984.48
-7388.43
-7636.39
-7714.73
-7619.26
-7359.4
-6946.26
-6397.71
-5733.59
-4977.47
-4151.28
-3273.13
-2357.07
-1414.2
-455.496
514.97
1485.79
2436.13
3345.74
4189.52
4942.38
5582.31
6090.98
6452.6
-11083.9
-11677.9
-12050.5
-12158.8
-12031.8
-11665.5
-11087.3
-10328.6
-9425.91
-8419.17
-7344.15
-6236.21
-5125.17
-4024.56
-2942.08
-1880.41
-845.406
184.707
1235.88
2299.44
3378.58
4471.38
5558.96
6610.41
7579.8
8411.92
9053
9470.06
9635.48
9565.1
9248.34
8732.87
8070.07
7316.82
6527.23
5744.49
4997.98
4305.02
3675.14
3112.43
2618.34
2193.19
1836.36
1545.53
1315.3
1135.71
992.251
865.64
733.721
573.016
360.419
75.535
-296.945
-765.522
-1331.94
-1987.7
-2717.74
-3499.57
-4303.78
-5097.42
-5845.51
-6511.53
-7064.42
-7478.27
-7733
-7813.01
-7716.65
-7452.69
-7032.77
-6475.54
-5801.42
-5034.89
-4198.49
-3310.62
-2385.27
-1433.22
-465.066
515.63
1497.63
2460.09
3382.44
4238.84
5003.25
5652.81
6168.39
6533.7
-11229.4
-11827.9
-12201.3
-12305.8
-12171.4
-11793.5
-11200.1
-10424.5
-9503.95
-8480.35
-7390.13
-6268.89
-5147.17
-4038.79
-2951.2
-1886.5
-849.6
181.971
1234.87
2302.5
3389.08
4493.52
5596.84
6667.28
7657.11
8508.48
9164.54
9590.38
9756.79
9679.6
9348.89
8813.84
8128.62
7352.88
6543.07
5743.61
4984.22
4282.05
3646.03
3079.61
2583.83
2158.79
1803.87
1516.84
1292.37
1120.38
986.005
869.349
747.489
596.134
391.218
111.452
-259.081
-728.919
-1300.67
-1965.19
-2707.2
-3503.64
-4324.12
-5134.78
-5899.56
-6580.96
-7147.03
-7571.17
-7832.95
-7914.52
-7817.26
-7548.99
-7121.97
-6555.69
-5871.16
-5093.85
-4246.9
-3349.06
-2414.24
-1452.83
-475.064
516.059
1509.54
2484.47
3420
4289.47
5065.92
5725.5
6248.26
6617.4
-11378.9
-11982.2
-12356.7
-12457.6
-12315.6
-11925.6
-11316.4
-10523.3
-9584.22
-8543.07
-7437.08
-6302.1
-5169.39
-4053.07
-2960.33
-1892.64
-853.958
178.892
1233.32
2304.86
3398.92
4515.26
5634.86
6725.09
7736.32
8607.87
9279.71
9714.8
9882.08
9797.83
9452.48
8897.01
8188.45
7389.27
6558.43
5741.86
4969.27
4257.75
3615.48
3045.36
2547.94
2123.03
1770.08
1487
1268.51
1104.39
979.452
873.162
761.776
620.179
423.299
148.912
-219.548
-690.706
-1267.92
-1941.51
-2695.92
-3507.49
-4344.85
-5173.17
-5955.28
-6652.64
-7232.4
-7667.2
-7936.35
-8019.35
-7921.17
-7648.35
-7213.91
-6638.2
-5942.85
-5154.35
-4296.52
-3388.45
-2443.98
-1473.06
-485.492
516.241
1521.47
2509.25
3458.42
4341.45
5130.41
5800.41
6330.66
6703.76
-11532.4
-12141.1
-12516.8
-12614.2
-12464.4
-12062
-11436.3
-10625
-9666.67
-8607.33
-7484.99
-6335.84
-5191.79
-4067.33
-2969.4
-1898.78
-858.464
175.454
1231.17
2306.45
3408.03
4536.56
5673.01
6783.84
7817.48
8710.23
9398.71
9843.58
10012.1
9920.52
9559.72
8982.83
8249.85
7426.26
6573.58
5739.11
4953.09
4232.04
3583.67
3009.83
2510.69
2086
1735.05
1455.99
1243.67
1087.71
972.575
877.059
776.609
645.187
456.708
187.975
-178.277
-650.803
-1233.63
-1916.58
-2683.82
-3511.11
-4365.99
-5212.64
-6012.71
-6726.65
-7320.61
-7766.47
-8043.3
-8127.49
-8028.45
-7750.84
-7308.63
-6723.1
-6016.48
-5216.39
-4347.33
-3428.79
-2474.46
-1493.88
-496.382
516.145
1533.44
2534.42
3497.69
4394.78
5196.74
5877.6
6415.63
6792.84
-11690.3
-12304.5
-12681.8
-12775.6
-12617.9
-12202.7
-11559.9
-10729.8
-9751.33
-8673.09
-7533.78
-6370.02
-5214.3
-4081.52
-2978.37
-1904.91
-863.111
171.654
1228.4
2307.24
3416.31
4557.26
5711.13
6843.4
7900.49
8815.48
9521.48
9976.67
10146.1
10047.1
9670.16
9070.85
8312.34
7463.31
6588.03
5735.27
4935.39
4204.84
3550.27
2972.78
2472.04
2047.51
1698.67
1423.77
1217.82
1070.3
965.357
881.047
791.987
671.183
491.492
228.708
-135.191
-609.132
-1197.72
-1890.37
-2670.9
-3514.49
-4387.56
-5253.23
-6071.93
-6803.06
-7411.72
-7869.02
-8153.95
-8238.91
-8139.2
-7856.52
-7406.18
-6810.43
-6092.08
-5279.98
-4399.35
-3470.07
-2505.7
-1515.34
-507.759
515.761
1545.39
2559.97
3537.79
4449.46
5264.95
5957.11
6503.24
6884.7
-11857.7
-12478.4
-12857.6
-12948
-12781.9
-12352.9
-11691.6
-10841.3
-9841.26
-8742.76
-7585.21
-6405.87
-5237.71
-4096.11
-2987.53
-1911.21
-868.056
167.325
1224.85
2307.13
3423.94
4578.04
5750.54
6905.94
7988.45
8927.61
9652.75
10119.3
10290.3
10182.9
9788.24
9164.62
8378.42
7501.93
6602.37
5730.14
4915.73
4175.19
3514.03
2932.76
2430.5
2006.21
1659.55
1389.11
1189.97
1051.51
957.508
885.265
808.475
699.141
528.967
272.658
-88.6588
-564.118
-1158.82
-1861.86
-2656.64
-3517.74
-4410.34
-5296.44
-6135.09
-6884.7
-7509.14
-7978.7
-8272.48
-8357.9
-8257.52
-7969.32
-7510.16
-6903.39
-6172.42
-5347.43
-4454.44
-3513.77
-2538.85
-1538.24
-520.07
515.049
1557.7
2586.77
3580.16
4507.46
5337.51
6041.85
6596.7
6982.71
-12036.6
-12664.2
-13045.4
-13132
-12957.1
-12513.5
-11832.2
-10960.3
-9936.79
-8816.5
-7639.34
-6443.36
-5261.94
-4110.99
-2996.79
-1917.62
-873.29
162.423
1220.37
2305.91
3430.67
4598.62
5791.07
6971.39
8081.5
9046.97
9793.03
10271.9
10444.1
10328.1
9914.32
9264.3
8448.03
7541.89
6616.27
5723.23
4893.54
4142.54
3474.87
2889.79
2385.73
1961.82
1617.55
1351.8
1159.91
1031.17
948.953
889.713
826.172
729.242
569.394
320.146
-38.3294
-515.416
-1116.6
-1830.78
-2640.85
-3520.79
-4434.39
-5342.46
-6202.54
-6972
-7613.37
-8096.07
-8399.63
-8484.78
-8384.06
-8089.78
-7621.04
-7002.38
-6257.78
-5418.94
-4512.76
-3560.01
-2573.97
-1562.63
-533.425
513.938
1570.38
2614.84
3624.91
4569
5414.75
6132.24
6696.5
7087.36
-12219.1
-12854.4
-13238.7
-13322.3
-13138.1
-12679.5
-11977.1
-11082.8
-10034.9
-8891.97
-7694.38
-6481.2
-5286.13
-4125.61
-3005.78
-1923.9
-878.623
157.088
1215.05
2303.5
3436.13
4618.21
5831.32
7037.68
8176.77
9169.91
9938.14
10430.2
10604.2
10478.9
10044.8
9366.97
8519.2
7582.07
6629.35
5714.9
4869.56
4108.09
3433.76
2845
2339.36
1915.61
1573.83
1312.94
1128.57
1009.9
939.936
894.251
844.54
760.586
611.564
369.754
14.2903
-464.496
-1072.3
-1798.06
-2623.99
-3523.51
-4458.94
-5389.84
-6272.15
-7062.24
-7721.2
-8217.5
-8531.59
-8615.48
-8514.93
-8214.17
-7735.36
-7104.3
-6345.46
-5492.25
-4572.42
-3607.3
-2609.97
-1587.81
-547.433
512.398
1582.91
2643.22
3670.53
4632.11
5494.21
6225.42
6799.51
7195.37
-12409.3
-13052.7
-13439.5
-13518.5
-13325.2
-12851.1
-12126.5
-11209
-10135.5
-8969.13
-7750.27
-6519.33
-5310.22
-4139.88
-3014.43
-1929.98
-884.014
151.322
1208.85
2299.81
3440.19
4636.64
5871.11
7104.61
8274.15
9296.41
10088.1
10594.2
10769.8
10634.8
10179.4
9472.38
8591.57
7622.04
6641.21
5704.71
4843.5
4071.57
3390.67
2798.18
2291.18
1867.81
1528.33
1272.47
1095.86
987.638
930.421
898.864
863.596
793.204
655.537
421.561
69.3008
-411.273
-1025.77
-1763.57
-2605.93
-3525.79
-4483.94
-5438.61
-6343.98
-7155.53
-7832.76
-8343.1
-8668.62
-8750.37
-8650.28
-8342.58
-7853.19
-7209.18
-6435.5
-5567.35
-4633.41
-3655.62
-2646.84
-1613.77
-562.121
510.373
1595.26
2671.89
3717.07
4696.77
5575.95
6321.48
6905.82
7306.81
-12600.8
-13252.8
-13643.6
-13721
-13518.4
-13028.4
-12280.4
-11339
-10238.6
-9048.01
-7806.96
-6557.67
-5334.14
-4153.74
-3022.69
-1935.82
-889.443
145.129
1201.7
2294.73
3442.73
4653.8
5910.39
7172.16
8373.67
9426.45
10243
10763.9
10941.3
10796.3
10318.6
9580.8
8665.33
7661.93
6651.91
5692.71
4815.41
4033.02
3345.73
2749.58
2240.94
1818.15
1481.18
1230.34
1061.76
964.352
920.378
903.548
883.325
827.139
701.385
475.67
126.802
-355.859
-976.795
-1727.33
-2586.74
-3527.77
-4509.51
-5488.81
-6418.05
-7251.9
-7948.08
-8472.91
-8807.9
-8891.95
-8790.3
-8475.1
-7974.59
-7317.11
-6527.91
-5644.24
-4695.72
-3704.97
-2684.56
-1640.51
-577.518
507.828
1607.39
2700.79
3764.45
4762.98
5659.98
6420.45
7015.5
7421.78
-12804.2
-13465.2
-13858.6
-13932.8
-13717.6
-13211.7
-12438.8
-11472.7
-10344.3
-9128.57
-7864.38
-6596.13
-5357.81
-4167.08
-3030.47
-1941.35
-894.869
138.518
1193.57
2288.16
3443.58
4669.47
5948.89
7240.18
8475.32
9560.32
10403.2
10939.9
11120.4
10963.6
10462.1
9692.04
8740.23
7701.43
6661.13
5678.59
4785.01
3992.2
3298.6
2699
2188.87
1766.45
1432.15
1186.5
1026.17
939.988
909.763
908.291
903.812
862.449
749.169
532.14
186.862
-297.828
-925.578
-1689.13
-2566.16
-3529.16
-4535.45
-5540.37
-6494.42
-7351.51
-8067.46
-8607.19
-8949.68
-9040.97
-8935.04
-8611.84
-8099.64
-7428.11
-6622.72
-5722.93
-4759.34
-3755.3
-2723.13
-1668.05
-593.648
504.772
1619.26
2729.9
3812.68
4830.8
5746.31
6522.4
7128.64
7540.33
-13002.6
-13674.5
-14075.2
-14132.6
-13924.4
-13401.1
-12602.1
-11610.7
-10452.4
-9210.83
-7922.48
-6634.65
-5381.14
-4179.83
-3037.69
-1946.49
-900.238
131.516
1184.41
2279.99
3442.63
4683.52
5986.46
7308.59
8578.88
9697.61
10568.3
11121.8
11303.6
11136.4
10610.3
9806.32
8816.35
7740.55
6668.84
5662.34
4752.29
3949.15
3249.41
2646.52
2135.07
1713
1381.19
1140.9
989.079
914.512
898.579
913.07
924.971
899.135
798.955
591.103
249.672
-237.02
-872.017
-1649.02
-2544.34
-3530.22
-4562.01
-5593.48
-6573.13
-7454.25
-8190.57
-8745.65
-9096.25
-9193.82
-9084.59
-8752.88
-8228.37
-7542.19
-6719.84
-5803.35
-4824.26
-3806.63
-2762.57
-1696.46
-610.579
501.081
1630.78
2759.16
3861.71
4900.19
5835
6627.44
7245.37
7662.58
-13226.2
-13903.5
-14307.1
-14402.2
-14137.3
-13596.4
-12771.2
-11753
-10563.5
-9294.95
-7981.2
-6673.17
-5404.09
-4191.88
-3044.28
-1951.13
-905.497
124.175
1174.18
2270.1
3439.65
4695.72
6023
7377.23
8684.63
9838.78
10739.2
11310.5
11496.2
11316.3
10763.3
9923.48
8893.5
7779.08
6674.76
5643.66
4717.02
3903.65
3197.92
2591.88
2079.16
1657.56
1328.34
1093.38
950.356
887.844
886.749
917.908
946.96
937.31
850.832
652.618
315.235
-173.494
-816.118
-1606.82
-2520.99
-3530.48
-4588.71
-5647.76
-6654.08
-7560.42
-8318.16
-8889.49
-9248.88
-9369.88
-9238.97
-8898.38
-8361.01
-7659.57
-6819.4
-5885.48
-4890.31
-3858.8
-2802.75
-1725.61
-628.251
496.762
1641.92
2788.53
3911.51
4971.15
5926.03
6735.56
7365.71
7788.59
-13410.8
-14090.4
-14467.2
-14461.3
-14311.2
-13803.4
-12943
-11897.9
-10678.1
-9381.01
-8040.33
-6711.43
-5426.51
-4203.2
-3050.22
-1955.38
-910.704
116.478
1162.87
2258.4
3434.46
4705.67
6058.18
7446.16
8792.31
9983.75
10915.6
11505.5
11694.4
11501.2
10920.8
10043.6
8971.7
7816.94
6678.82
5622.5
4679.21
3855.79
3144.26
2535.25
2021.38
1600.24
1273.47
1043.94
909.993
859.928
874.259
922.755
969.73
976.944
904.843
716.79
383.717
-107.011
-757.652
-1562.38
-2496.14
-3530.31
-4616.08
-5703.73
-6737.56
-7669.81
-8449.58
-9037.21
-9404.87
-9485.66
-9398.41
-9048.72
-8497.58
-7780.52
-6921.93
-5969.74
-4957.66
-3911.84
-2843.73
-1755.57
-646.729
491.838
1652.67
2817.98
3962.13
5043.78
6019.54
6846.9
7489.82
7918.5
-12135.6
-10725.2
-9571.23
-9279.37
-9963.86
-11128.9
-11756.5
-11817.8
-10794.3
-9468.85
-8101.47
-6749.88
-5448.13
-4213.3
-3055.24
-1959.27
-916.109
108.118
1150.15
2244.72
3427.08
4713.66
6091.95
7514.85
8901.72
10132.5
11097.6
11707.5
11899.2
11693
11083.8
10167
9050.92
7853.94
6680.74
5598.57
4638.55
3805.27
3088.17
2476.38
1961.42
1540.71
1216.5
992.598
867.822
830.726
861.034
927.537
993.155
1018.12
961.062
783.743
455.3
-37.3842
-696.442
-1515.62
-2469.88
-3529.78
-4644.15
-5761.4
-6823.65
-7782.5
-8585.54
-9190.87
-9568.77
-9723.74
-9569.09
-9202.93
-8637.11
-7904.45
-7027.1
-6055.94
-5026.54
-3966.02
-2885.64
-1786.52
-666.307
486.112
1662.81
2847.38
4013.41
5117.95
6115.47
6961.49
7617.79
8052.46
-2351.26
-1138.16
-669.835
-625.421
-973.723
-1957.31
-4141.23
-6945.08
-8939.34
-9198.22
-8163.82
-6790.21
-5470.7
-4222.72
-3059.11
-1962.35
-921.431
99.1523
1136.04
2228.49
3416.7
4719.25
6124.54
7583.42
9013.14
10284.7
11285.4
11916.7
12114.5
11892.2
11251.4
10292.9
9130.66
7889.65
6680.16
5571.61
4594.95
3752.09
3029.7
2415.4
1899.44
1479.1
1157.28
939.178
824.001
800.502
847.85
933.453
1017.78
1060.94
1019.6
853.515
529.935
35.1975
-632.86
-1466.82
-2442.22
-3528.27
-4670.49
-5812.04
-6885.02
-7822.48
-8534.58
-8950.92
-9104.27
-9085.01
-9111.62
-9039.63
-8734.23
-8031.89
-7133.21
-6143
-5096.31
-4021.01
-2928.19
-1818.23
-686.836
479.509
1672.02
2876.43
4065.28
5193.7
6213.84
7079.41
7749.71
8190.41
21.1283
17.3691
12.5028
8.12905
-0.0593409
-24.3432
-116.757
-521.218
-2108.65
-4745.12
-6508.94
-6518.03
-5492.54
-4233.21
-3063.23
-1964.84
-926.173
90.3712
1121.11
2210.49
3403.61
4721.43
6154.39
7651.93
9126.68
10441
11479.1
12132.7
12335.1
12096.6
11424.1
10422.4
9211.68
7924.6
6677.46
5541.82
4548.4
3696.31
2968.91
2352.34
1835.47
1415.55
1096.09
883.729
778.273
768.163
831.916
936.265
1041.54
1105
1080.42
926.172
607.695
110.846
-566.122
-1414.51
-2408.63
-3515.74
-4667.97
-5757.75
-6548.85
-6636.27
-5752.3
-4802.09
-4176.96
-3959.66
-4207.65
-4881
-5785.9
-6411.6
-6535.9
-6149.14
-5167.34
-4076.42
-2971.5
-1850.8
-708.297
472.383
1680.8
2905.24
4117.3
5270.66
6314.7
7200.79
7885.78
8332.43
24.602
22.6698
20.0275
17.6181
15.3992
12.8434
9.72365
1.54005
-36.4085
-264.331
-1336.48
-3108.88
-4121.83
-3902.16
-3066.57
-1969.12
-932.163
81.1466
1105.15
2190.74
3388.64
4721.41
6181.83
7718.63
9240.89
10601.5
11679.7
12356.5
12564.6
12308
11601.8
10554.4
9292.98
7957.97
6671.79
5508.45
4498.41
3637.4
2905.42
2287.03
1769.58
1350.38
1033.67
827.523
732.447
736.935
819.337
945.139
1071.2
1153.62
1145.24
1002.99
690.487
192.15
-491.036
-1348.39
-2342.29
-3380.23
-4141.35
-3822
-2675.86
-1519.05
-785.263
-407.039
-221.184
-163.167
-195.36
-311.429
-613.827
-1355.51
-2473.73
-3611.96
-4065.48
-3812.51
-3015.08
-1884.77
-730.971
463.099
1689.15
2934.39
4170.33
5349.18
6417.53
7325.37
8026.01
8478.52
24.247
22.3626
19.8871
17.6197
15.5162
13.1502
11.2273
9.43204
7.40429
3.03382
-16.4037
-130.112
-630.932
-1399.89
-1814.74
-1493.99
-854.999
68.5165
1085.14
2166.84
3370.46
4719.06
6208.43
7785.75
9357.07
10764.6
11885.7
12588.2
12809.3
12528.8
11786.1
10690
9375.01
7989.17
6662.43
5471.14
4445.27
3576.81
2842.15
2224.61
1709.75
1294.45
984.347
786.913
702.139
719.913
817.577
960.218
1105.54
1208.04
1217.74
1090.12
788.669
300.777
-360.534
-1125.05
-1735.02
-1610.43
-1054.78
-460.746
-134.905
-3.5603
5.78972
5.37616
5.85497
6.09458
5.70864
3.7135
-1.69586
-17.073
-70.001
-248.088
-755.536
-1401.8
-1778.33
-1450.97
-702.88
451.409
1694.65
2963.22
4224.42
5430.19
6523.26
7453.17
8170.11
8631.47
23.8613
21.965
19.5665
17.3214
15.3155
13.0968
11.275
9.39543
7.65486
6.213
4.83564
3.63339
2.37728
2.0436
2.30527
28.4902
157.125
563.26
1256.25
2159.54
3343.45
4709.83
6231.93
7852.95
9476.17
10932.9
12098.4
12826.7
13043
12754
11974.7
10827.5
9456.29
8017.91
6649.8
5432.01
4393.92
3523.81
2797.1
2200.73
1720.33
1353.01
1097.85
948.962
893.005
915.578
1002.03
1130.71
1267.86
1371.66
1395.26
1297.86
1056.65
706.533
382.193
137.165
-3.61564
-6.36213
0.794861
5.23524
5.53872
6.81752
8.11295
8.01784
8.43434
8.6111
8.60712
8.35886
7.94769
7.6323
7.18191
6.15134
5.68849
5.81616
7.7598
36.3299
204.248
807.741
1763.65
2990.39
4278.04
5512.74
6632.25
7585.42
8318.97
8791.02
23.4786
21.6194
19.3047
17.1141
15.0845
12.8953
11.1193
9.35158
7.69677
6.17622
4.71093
3.63599
3.05808
4.71479
14.4105
56.9813
202.959
612.149
1285.43
2156.56
3324.87
4697.6
6246.06
7916.56
9595.43
11105.2
12318.7
13074.5
13330.3
12986.1
12167.3
10967.1
9537.67
8046.51
6636.25
5390.86
4336.29
3457.2
2734.48
2148.66
1681.95
1329.05
1086.67
948.81
902.217
933.64
1031.42
1174.07
1329.7
1453.9
1495.43
1409.14
1166.92
802.271
452.058
180.362
18.0582
2.36812
2.49555
4.97286
5.43946
6.73363
7.79143
7.84638
8.25296
8.49687
8.46638
8.24433
7.80147
7.41408
6.95666
6.1653
6.4064
8.59633
18.5286
62.9942
243.242
846.488
1802.88
3030.04
4335.24
5594.44
6742.17
7720.94
8472.66
8953.11
23.1003
21.2556
19.0001
16.868
14.9094
12.7868
11.0052
9.23501
7.60404
6.15898
4.74115
3.56534
2.40197
1.6687
1.65764
4.02997
12.5867
43.727
154.562
535.033
1757.19
3729.79
5984.02
7975.99
9715.71
11280.7
12545.3
13328.7
13552.2
13226.9
12366.4
11109.6
9616.23
8045.02
6453.91
4706
3051.88
1796.91
1030.62
615.076
347.787
185.201
96.8298
56.8617
45.035
50.8983
75.706
122.212
183.156
239.461
261.968
225.092
128
24.5946
-0.350022
-0.153215
0.802495
2.25537
2.59241
4.80843
5.29018
6.61975
7.58053
7.7123
8.0907
8.24423
8.27455
8.06719
7.66134
7.2562
6.69279
5.73898
5.1197
4.53907
4.48205
7.02793
18.237
70.9725
326.474
1400.8
3269.58
5213.15
6732.44
7851.33
8623.62
9110.08
22.7406
20.9246
18.7268
16.6402
14.6895
12.6273
10.9034
9.17485
7.54731
6.10978
4.70349
3.55993
2.43628
1.52221
0.72794
0.395116
0.345714
2.12399
7.25531
26.6729
119.083
606.906
2944.46
6693.38
9673.36
11458.4
12782.1
13591.5
13890.2
13474.5
12562.7
11222.9
9473.62
6744.45
3474.76
1369.85
456.767
68.8954
1.76144
1.97716
1.98591
2.04637
2.02169
1.88434
1.65242
1.28535
0.71702
0.0498741
-0.630976
-1.2427
-1.72959
-2.05428
-2.18765
-1.60263
-0.398756
-0.102167
0.900064
2.22462
2.65396
4.67706
5.20257
6.48316
7.37421
7.57202
7.9348
8.1334
8.10795
7.89867
7.51895
7.10721
6.54076
5.64462
4.92967
4.07414
3.17226
2.59709
2.3449
4.60059
16.6168
77.7099
411.078
1867.97
4371.5
6657.08
8121.81
8916.32
22.3822
20.5845
18.4413
16.4159
14.5042
12.4874
10.7723
9.07834
7.50058
6.10372
4.70911
3.55372
2.43667
1.52875
0.739703
0.233917
-0.35784
-0.357682
-0.62886
-0.305351
3.57562
25.2178
184.009
1518.51
6282.33
10685.1
12939.3
13818.7
14081
13648.8
12569
10251.3
5641.98
1802.98
262.154
-0.623925
1.03185
0.663266
1.58243
1.85393
1.90383
1.96103
1.94149
1.81551
1.6035
1.24364
0.685068
0.0355867
-0.617941
-1.19227
-1.64736
-1.94104
-2.04389
-1.43893
-0.348552
-0.0217187
0.977092
2.185
2.71446
4.55017
5.123
6.34889
7.18006
7.42632
7.77199
7.9403
7.93722
7.73945
7.37401
6.96578
6.39514
5.55077
4.82656
3.9655
3.05263
2.20904
1.21955
0.482331
0.136589
1.86416
14.8659
84.861
418.499
1508.71
3394.97
4775.64
22.0357
20.2617
18.1635
16.1812
14.2957
12.3391
10.6569
8.98653
7.42655
6.05364
4.69452
3.56848
2.46553
1.55119
0.770914
0.233542
-0.3545
-0.483499
-1.03013
-1.725
-2.0827
-1.87724
3.08089
55.6603
638.952
4407.42
9825.68
12701.3
13263.4
12218
8589.86
3576.68
654.385
-4.99531
-2.73958
-0.788309
0.755593
0.64809
1.44016
1.722
1.80599
1.86731
1.84936
1.72672
1.51417
1.17041
0.657077
0.0626189
-0.54957
-1.09363
-1.52081
-1.79041
-1.87397
-1.29556
-0.304987
0.043443
1.04034
2.15309
2.76114
4.42507
5.05036
6.21338
6.99481
7.28071
7.61243
7.77836
7.76705
7.58303