/*--------------------------------*- C++ -*----------------------------------*\
| =========                 |                                                 |
| \\      /  F ield         | OpenFOAM: The Open Source CFD Toolbox           |
|  \\    /   O peration     | Version:  v1912                                 |
|   \\  /    A nd           | Website:  www.openfoam.com                      |
|    \\/     M anipulation  |                                                 |
\*---------------------------------------------------------------------------*/
FoamFile
{
    version     2.0;
    format      ascii;
    class       surfaceScalarField;
    location    "50";
    object      phi;
}
// * * * * * * * * * * * * * * * * * * * * * * * * * * * * * * * * * * * * * //

dimensions      [0 3 -1 0 0 0 0];
oriented        oriented;


internalField   nonuniform List<scalar> 
28285
(
-0.0635192
0.00357765
-0.0661428
0.00262358
-0.067642
0.00149919
-0.067954
0.000312092
-0.0671
-0.000854024
-0.065118
-0.00198204
-0.06209
-0.00302794
-0.0581402
-0.00394986
-0.053404
-0.00473616
-0.0480068
-0.00539726
-0.0421138
-0.00589301
-0.0358789
-0.00623482
-0.0294277
-0.00645125
-0.0228658
-0.00656195
-0.0162712
-0.00659453
-0.00970023
-0.00657099
-0.00318856
-0.00651167
0.00323451
-0.00642307
0.00954272
-0.00630821
0.0156997
-0.006157
0.021654
-0.00595425
0.0273248
-0.00567079
0.0326056
-0.00528083
0.0373685
-0.0047629
0.0414703
-0.00410184
0.0447799
-0.00330956
0.0471833
-0.00240337
0.048609
-0.00142572
0.049033
-0.000423988
0.0484998
0.000533156
0.0470737
0.00142608
0.0448757
0.002198
0.0420706
0.00280509
0.03883
0.00324064
0.0353265
0.00350348
0.0317138
0.00361275
0.028123
0.00359082
0.0246576
0.00346538
0.0213957
0.00326191
0.0183909
0.00300473
0.0156723
0.00271865
0.0132502
0.00242205
0.0111134
0.0021368
0.00923527
0.00187816
0.00756873
0.00166654
0.00605356
0.00151516
0.00461439
0.00143917
0.00316837
0.00144602
0.00162968
0.00153869
-8.6853e-05
0.00171653
-0.00204831
0.00196145
-0.00431424
0.00226593
-0.00691655
0.00260231
-0.00985918
0.00294263
-0.0131177
0.00325848
-0.0166364
0.00351871
-0.0203333
0.00369689
-0.0240994
0.00376618
-0.0278116
0.00371218
-0.0313315
0.00351985
-0.0345209
0.00318941
-0.0372498
0.00272895
-0.0393969
0.0021471
-0.040872
0.00147507
-0.0416068
0.000734828
-0.0415331
-7.37242e-05
-0.0406606
-0.000872515
-0.0390105
-0.00165013
-0.0366288
-0.00238166
-0.0335804
-0.00304839
-0.0299459
-0.00363455
-0.0258131
-0.0041328
-0.0212732
-0.00453991
-0.0164165
-0.00485663
-0.011332
-0.00508448
-0.00610749
-0.00522455
-0.000831624
-0.00527587
0.00440639
-0.00523802
0.00950836
-0.00510197
0.0143731
-0.00486473
0.0188958
-0.00452273
0.0229672
-0.00407139
0.0264681
-0.00350089
0.0293081
-0.00284006
0.0312847
-0.00197657
-0.00121167
0.0324964
-0.0639048
0.00704001
-0.0663804
0.00509918
-0.0677273
0.00284612
-0.0678724
0.000457138
-0.0668832
-0.00184317
-0.0647777
-0.00408761
-0.061649
-0.00615657
-0.0576195
-0.0079794
-0.0528304
-0.00952526
-0.0474366
-0.010791
-0.0415824
-0.0117473
-0.0354007
-0.0124165
-0.0290201
-0.0128318
-0.0225388
-0.0130432
-0.0160267
-0.0131066
-0.00953369
-0.0130641
-0.00309135
-0.012954
0.00327409
-0.0127885
0.00954052
-0.0125747
0.0156708
-0.0122873
0.0216133
-0.0118968
0.0272854
-0.0113429
0.0325784
-0.0105738
0.037362
-0.00954651
0.0414886
-0.0082285
0.0448231
-0.00664404
0.047248
-0.0048283
0.0486882
-0.00286586
0.0491181
-0.000853865
0.0485881
0.00106309
0.0471575
0.00285674
0.0449468
0.00440863
0.042124
0.00562794
0.0388641
0.00650051
0.0353417
0.00702592
0.0317116
0.00724287
0.028106
0.00719633
0.0246293
0.00694208
0.0213598
0.0065315
0.0183507
0.00601378
0.0156298
0.00543955
0.0132088
0.00484309
0.0110772
0.00426839
0.00920607
0.00374926
0.00754794
0.00332467
0.00604304
0.00302006
0.00461536
0.00286686
0.00318147
0.00287991
0.00165448
0.00306569
-5.18633e-05
0.00342287
-0.00200545
0.00391505
-0.00426701
0.00452749
-0.00686871
0.00520401
-0.0098149
0.00588882
-0.0130811
0.00652469
-0.0166116
0.00704919
-0.0203237
0.00740897
-0.0241076
0.0075501
-0.0278391
0.00744367
-0.0313786
0.00705934
-0.0345868
0.00639765
-0.0373327
0.00547486
-0.0394937
0.00430814
-0.0409789
0.00296023
-0.0417195
0.00147542
-0.0416472
-0.000146006
-0.0407721
-0.00174759
-0.0391157
-0.00330659
-0.0367249
-0.00477245
-0.0336652
-0.00610804
-0.0300181
-0.00728167
-0.0258722
-0.00827872
-0.0213191
-0.00909301
-0.0164496
-0.00972614
-0.0113524
-0.0101817
-0.00611504
-0.0104619
-0.000825612
-0.0105653
0.00442578
-0.0104894
0.00954214
-0.0102183
0.0144219
-0.00974445
0.0189601
-0.00906093
0.0230501
-0.00816144
0.0265966
-0.00704734
0.0295256
-0.00576913
0.0316917
-0.00414259
-0.00237552
0.0328555
-0.0638935
0.0105292
-0.0663994
0.00760508
-0.0677736
0.00422034
-0.0679838
0.000667303
-0.066995
-0.00283198
-0.0649022
-0.00618038
-0.0617816
-0.00927717
-0.0577553
-0.0120058
-0.0529694
-0.0143112
-0.0475611
-0.0161993
-0.0416834
-0.017625
-0.0354892
-0.0186107
-0.0290956
-0.0192254
-0.0226009
-0.0195379
-0.0160768
-0.0196307
-0.00957315
-0.0195677
-0.00312012
-0.019407
0.00325957
-0.0191682
0.00954332
-0.0188584
0.0156964
-0.0184403
0.0216684
-0.0178687
0.0273771
-0.0170516
0.0327114
-0.0159081
0.0375359
-0.014371
0.0417006
-0.0123932
0.0450667
-0.0100101
0.0475122
-0.00727378
0.0489598
-0.00431353
0.0493843
-0.00127831
0.0488318
0.00161556
0.0473666
0.00432195
0.045115
0.00666025
0.0422472
0.00849568
0.0389412
0.0098066
0.0353755
0.0105916
0.031708
0.0109104
0.0280722
0.0108321
0.0245727
0.0104415
0.0212876
0.00981663
0.0182697
0.00903167
0.0155471
0.00816214
0.0131287
0.00726152
0.0110031
0.00639398
0.00914433
0.00560806
0.00750414
0.00496486
0.00602069
0.00450351
0.00461664
0.00427091
0.00320718
0.00428936
0.00170381
0.00456906
2.09894e-05
0.0051057
-0.00192006
0.0058561
-0.00417266
0.00678008
-0.00677281
0.00780417
-0.00972593
0.00884194
-0.0130075
0.00980625
-0.0165613
0.010603
-0.0203036
0.0111513
-0.024123
0.0113694
-0.0278933
0.011214
-0.0314723
0.0106384
-0.0347184
0.00964378
-0.0374983
0.00825474
-0.0396871
0.00649686
-0.0411925
0.00446566
-0.0419461
0.002229
-0.0418763
-0.000215753
-0.0409953
-0.00262859
-0.039326
-0.00497592
-0.0369165
-0.00718189
-0.033834
-0.00919056
-0.0301617
-0.0109539
-0.0259897
-0.0124507
-0.0214106
-0.0136721
-0.0165152
-0.0146215
-0.0113927
-0.0153042
-0.00612961
-0.015725
-0.000813636
-0.0158813
0.00446496
-0.015768
0.00961007
-0.0153634
0.0145198
-0.0146542
0.0190884
-0.0136295
0.0232078
-0.0122808
0.0267761
-0.0106157
0.0296904
-0.00868335
0.0319019
-0.00635411
-0.00383801
0.0333644
-0.0644166
0.0139646
-0.0668405
0.0100289
-0.0681367
0.00551651
-0.0681837
0.000714337
-0.0671112
-0.00390453
-0.06491
-0.00838154
-0.0616872
-0.0125
-0.0575701
-0.0161228
-0.0527087
-0.0191725
-0.0472607
-0.0216473
-0.0413774
-0.0235083
-0.0351925
-0.0247956
-0.028826
-0.0255919
-0.0223723
-0.0259917
-0.0158968
-0.0261062
-0.00944339
-0.0260211
-0.00303614
-0.0258143
0.00330775
-0.0255121
0.0095713
-0.025122
0.0157229
-0.0245919
0.0217138
-0.0238597
0.0274601
-0.0227979
0.0328475
-0.0212955
0.0377366
-0.0192601
0.0419681
-0.0166247
0.0453927
-0.0134347
0.0478795
-0.00976056
0.049346
-0.00578009
0.0497637
-0.00169601
0.0491897
0.00218954
0.047679
0.00583271
0.0453662
0.00897301
0.0424286
0.0114333
0.0390522
0.013183
0.0354216
0.0142222
0.0316982
0.0146338
0.0280174
0.014513
0.0244841
0.0139748
0.0211761
0.0131246
0.0181456
0.0120623
0.0154187
0.010889
0.0130064
0.00967385
0.010895
0.0085054
0.00905506
0.00744798
0.00744036
0.00657955
0.00598847
0.0059554
0.00461967
0.00563971
0.00324706
0.00566198
0.00177939
0.00603672
0.000127315
0.00675777
-0.00178992
0.00777334
-0.00402892
0.00901908
-0.00662703
0.0104023
-0.00959078
0.0118057
-0.0128958
0.0131113
-0.0164853
0.0141924
-0.0202735
0.0149396
-0.0241465
0.0152424
-0.0279753
0.0150428
-0.0316138
0.0142769
-0.034917
0.0129469
-0.037748
0.0110857
-0.0399785
0.00872739
-0.0415144
0.00600158
-0.0422857
0.00300025
-0.04222
-0.000281478
-0.0413308
-0.00351772
-0.0396423
-0.00666447
-0.0372049
-0.00961926
-0.0340882
-0.0123073
-0.0303779
-0.0146642
-0.0261663
-0.0166623
-0.0215477
-0.0182907
-0.0166136
-0.0195556
-0.0114529
-0.020465
-0.00615165
-0.0210262
-0.000796098
-0.0212368
0.00452333
-0.0210874
0.00971176
-0.0205519
0.0146666
-0.019609
0.0192814
-0.0182443
0.0234472
-0.0164466
0.027066
-0.0142346
0.030047
-0.0116643
0.0323543
-0.00866139
-0.00532847
0.0338447
-0.0648431
0.0174326
-0.0672908
0.0124766
-0.0685807
0.00680645
-0.0686922
0.000825792
-0.0675603
-0.00503634
-0.0653198
-0.010622
-0.0620465
-0.0157734
-0.0578713
-0.0202979
-0.0529545
-0.0240894
-0.0474456
-0.0271561
-0.041499
-0.0294549
-0.0352645
-0.0310301
-0.0288597
-0.0319966
-0.0223781
-0.0324732
-0.0158837
-0.0326006
-0.00941672
-0.0324881
-0.00299781
-0.0322332
0.00336043
-0.0318703
0.00964547
-0.031407
0.0158295
-0.0307759
0.0218667
-0.029897
0.0276741
-0.0286053
0.0331342
-0.0267556
0.0381008
-0.0242266
0.0424067
-0.0209306
0.0458943
-0.0169224
0.0484247
-0.012291
0.0499072
-0.00726258
0.0503123
-0.00210106
0.0496954
0.00280641
0.0481147
0.00741339
0.045714
0.0113738
0.0426792
0.0144681
0.039206
0.0166562
0.0354867
0.0179414
0.0316875
0.018433
0.0279459
0.0182546
0.0243674
0.0175532
0.0210291
0.0164629
0.0179812
0.0151102
0.0152487
0.0136215
0.0128388
0.0120837
0.0107421
0.0106021
0.00893006
0.00925998
0.00735127
0.00815835
0.00594247
0.0073642
0.00462165
0.00696053
0.00329884
0.00698478
0.00187929
0.00745627
0.000268095
0.00836897
-0.0016158
0.00965723
-0.00383555
0.0112388
-0.00643023
0.012997
-0.00940797
0.0147834
-0.0127442
0.0164475
-0.0163813
0.0178295
-0.0202312
0.0187895
-0.0241764
0.0191875
-0.0280841
0.0189505
-0.0318028
0.0179957
-0.0351831
0.0163272
-0.0380831
0.0139858
-0.04037
0.0110143
-0.0419468
0.00757832
-0.0427435
0.00379698
-0.042683
-0.000341981
-0.0417816
-0.00441914
-0.0400665
-0.00837952
-0.037591
-0.0120948
-0.0344276
-0.0154707
-0.0306663
-0.0184255
-0.0264019
-0.0209268
-0.0217307
-0.0229618
-0.0167451
-0.0245412
-0.0115336
-0.0256765
-0.00618137
-0.0263784
-0.000774436
-0.0266437
0.00460062
-0.0264625
0.00984676
-0.025798
0.0148618
-0.024624
0.0195372
-0.0229198
0.0237622
-0.0206716
0.0274374
-0.0179098
0.0304627
-0.0146896
0.0328029
-0.0110016
-0.00694518
0.0344196
-0.0655939
0.0208994
-0.0680109
0.0148936
-0.0692708
0.00806633
-0.0692322
0.000787163
-0.0680377
-0.00623082
-0.0656861
-0.0129736
-0.0622934
-0.0191661
-0.058
-0.0245913
-0.052973
-0.0291165
-0.0473781
-0.032751
-0.0413766
-0.0354564
-0.0351084
-0.0372984
-0.0286921
-0.0384129
-0.0222189
-0.0389464
-0.0157471
-0.0390724
-0.00931015
-0.0389251
-0.00292079
-0.0386226
0.00341776
-0.0382089
0.00970019
-0.0376894
0.0159056
-0.0369813
0.0219923
-0.0359837
0.0278756
-0.0344885
0.033433
-0.032313
0.0385099
-0.0293036
0.0429253
-0.025346
0.0465062
-0.0205033
0.0491011
-0.0148859
0.0506093
-0.00877079
0.0509966
-0.00248833
0.0503308
0.00347223
0.0486621
0.00908206
0.0461478
0.0138881
0.0429883
0.0176275
0.0393914
0.0202532
0.0355594
0.0217734
0.0316644
0.022328
0.0278467
0.0220723
0.0242118
0.0211881
0.0208359
0.0198389
0.0177674
0.0181786
0.0150301
0.0163588
0.0126315
0.0144823
0.0105559
0.0126777
0.00877483
0.0110411
0.00724056
0.00969262
0.0058858
0.00871896
0.00462546
0.00822087
0.00336573
0.00824452
0.00200713
0.00881487
0.000449362
0.00992674
-0.00139368
0.0115003
-0.00358916
0.0134343
-0.00617956
0.0155874
-0.00917492
0.0177788
-0.0125507
0.0198233
-0.0162482
0.0215269
-0.0201762
0.0227176
-0.0242128
0.0232241
-0.0282202
0.0229579
-0.0320404
0.0218159
-0.035518
0.0198048
-0.0385053
0.0169731
-0.0408633
0.0133723
-0.0424916
0.0092066
-0.0433189
0.00462428
-0.0432646
-0.00039627
-0.0423484
-0.00533537
-0.0405999
-0.010128
-0.0380761
-0.0146186
-0.0348538
-0.018693
-0.0310278
-0.0222515
-0.0266965
-0.0252581
-0.0219593
-0.0276989
-0.0169094
-0.0295912
-0.0116346
-0.0309513
-0.00621914
-0.0317939
-0.000747268
-0.0321156
0.00469636
-0.0319061
0.0100149
-0.0311165
0.0151053
-0.0297145
0.0198572
-0.0276716
0.0241567
-0.0249711
0.0279006
-0.0216537
0.0309937
-0.0177826
0.0334
-0.0134079
-0.00861156
0.0350664
-0.0663993
0.0244172
-0.0688498
0.0173442
-0.0700951
0.00931159
-0.0700997
0.000791791
-0.0688147
-0.0075158
-0.0663797
-0.0154087
-0.0628854
-0.0226604
-0.0584789
-0.0289978
-0.0533398
-0.0342556
-0.047635
-0.0384558
-0.0415295
-0.0415619
-0.0351775
-0.0436504
-0.0286982
-0.0448923
-0.0221813
-0.0454632
-0.0156829
-0.0455709
-0.00923073
-0.0453772
-0.00283146
-0.0450218
0.00351888
-0.0445592
0.00982437
-0.0439949
0.0160706
-0.0432275
0.0222213
-0.0421344
0.0281939
-0.0404612
0.0338622
-0.0379813
0.0390617
-0.0345031
0.0435974
-0.0298816
0.0472805
-0.0241864
0.0499447
-0.0175502
0.0514799
-0.0103059
0.0518462
-0.00285466
0.051115
0.00420347
0.0493342
0.0108628
0.0466789
0.0165434
0.0433659
0.0209405
0.0396174
0.0240017
0.035648
0.0257427
0.031637
0.026339
0.0277278
0.0259815
0.0240258
0.0248901
0.0206054
0.0232593
0.0175124
0.0212717
0.0147669
0.0191043
0.012375
0.0168742
0.0103237
0.0147289
0.00858327
0.0127815
0.00710297
0.0111729
0.00581435
0.0100076
0.00462795
0.00940727
0.00344545
0.00942702
0.00216167
0.0100987
0.000669933
0.0114185
-0.00112286
0.0132931
-0.00328783
0.0155993
-0.00587215
0.0181717
-0.00888837
0.020795
-0.0123118
0.0232468
-0.0160825
0.0252977
-0.0201056
0.0267406
-0.0242533
0.0273719
-0.0283823
0.0270869
-0.0323264
0.02576
-0.035923
0.0234014
-0.0390167
0.0200668
-0.0414616
0.0158171
-0.0431523
0.0108973
-0.0440176
0.00548963
-0.0439705
-0.000443334
-0.0430348
-0.00627111
-0.0412446
-0.0119182
-0.0386613
-0.0172019
-0.0353668
-0.0219875
-0.031462
-0.0261562
-0.0270498
-0.0296704
-0.0222331
-0.0325156
-0.0171058
-0.0347185
-0.0117559
-0.0363012
-0.00626497
-0.0372849
-0.000714264
-0.0376663
0.00481041
-0.0374308
0.0102159
-0.036522
0.0153974
-0.034896
0.0202413
-0.0325155
0.0246299
-0.0293597
0.0284546
-0.0254784
0.0316177
-0.0209457
0.0340681
-0.0158583
-0.0103204
0.035777
-0.0674357
0.0279791
-0.0698953
0.0198039
-0.0711349
0.0105511
-0.0710182
0.000675123
-0.0696661
-0.00886794
-0.0671038
-0.017971
-0.0634608
-0.0263034
-0.0588971
-0.0335616
-0.053605
-0.0395477
-0.0477669
-0.0442939
-0.0415583
-0.0477704
-0.0351304
-0.0500782
-0.0286041
-0.0514186
-0.0220676
-0.0519998
-0.0155703
-0.0520681
-0.00913189
-0.0518157
-0.00274943
-0.0514043
0.003593
-0.0509016
0.00991009
-0.050312
0.0161979
-0.0495154
0.0224265
-0.048363
0.0285128
-0.0465475
0.0343236
-0.0437921
0.0396822
-0.0398616
0.0443748
-0.0345742
0.0481919
-0.0280035
0.0509477
-0.0203059
0.0525178
-0.0118761
0.0528558
-0.0031926
0.0520476
0.00501163
0.0501303
0.0127802
0.0473037
0.0193699
0.0438048
0.0244395
0.0398739
0.0279326
0.0357405
0.0298761
0.0315924
0.0304872
0.0275758
0.0299981
0.0237956
0.0286703
0.0203239
0.026731
0.0172031
0.0243925
0.0144502
0.0218572
0.0120713
0.0192531
0.0100508
0.0167495
0.00835644
0.0144759
0.00693951
0.0125898
0.00572928
0.0112178
0.00463079
0.0105058
0.00354025
0.0105176
0.00234592
0.011293
0.000932849
0.0128315
-0.000799257
0.0150252
-0.00292736
0.0177274
-0.00550415
0.0207485
-0.00854484
0.0238357
-0.0120246
0.0267266
-0.0158821
0.0291551
-0.0200178
0.0308763
-0.0242978
0.0316518
-0.0285711
0.0313602
-0.0326623
0.0298512
-0.0364004
0.0271395
-0.0396201
0.0232866
-0.0421676
0.0183646
-0.0439328
0.0126624
-0.0448417
0.00639853
-0.0448025
-0.000482493
-0.0438435
-0.00723015
-0.0420034
-0.0137582
-0.0393489
-0.0198564
-0.0359683
-0.0253681
-0.0319699
-0.0301547
-0.0274621
-0.0341782
-0.0225521
-0.0374257
-0.0173348
-0.0399358
-0.0118973
-0.0417387
-0.00631885
-0.0428633
-0.000678518
-0.0433067
0.00494184
-0.0430512
0.0104491
-0.0420293
0.0157376
-0.0401844
0.0206899
-0.0374678
0.0251833
-0.0338531
0.0291011
-0.0293961
0.0323439
-0.0241886
0.0348513
-0.0183657
-0.0120611
0.036592
-0.0685983
0.0316224
-0.0711114
0.0223169
-0.0723487
0.0117885
-0.0722416
0.000567992
-0.0707826
-0.010327
-0.0680977
-0.0206558
-0.0643029
-0.0300982
-0.0595698
-0.0382947
-0.0541076
-0.0450098
-0.0481078
-0.0502937
-0.0417528
-0.0541255
-0.0352065
-0.0566245
-0.0285922
-0.0580329
-0.0219967
-0.0585953
-0.015467
-0.0585978
-0.00901524
-0.0582674
-0.00262867
-0.0577909
0.00372016
-0.0572505
0.0100595
-0.0566514
0.0163963
-0.0558521
0.0227095
-0.0546762
0.0289193
-0.0527573
0.0348873
-0.0497601
0.040423
-0.0453973
0.045292
-0.0394433
0.0492602
-0.0319717
0.0521184
-0.0231641
0.053727
-0.0134847
0.0540355
-0.00350106
0.0531327
0.00591437
0.0510534
0.0148596
0.0480242
0.0223991
0.0443059
0.0281578
0.0401611
0.0320774
0.035837
0.0342002
0.0315306
0.0347936
0.0273916
0.034137
0.0235235
0.0325385
0.0199948
0.0302596
0.0168435
0.0275438
0.0140828
0.0246179
0.0117158
0.02162
0.00972905
0.0187363
0.00809031
0.0161146
0.00674775
0.0139324
0.00562866
0.0123369
0.0046328
0.0115016
0.00365008
0.0115003
0.00256101
0.0123821
0.00124082
0.0141517
-0.000420335
0.0166863
-0.00250406
0.0198111
-0.0050711
0.0233155
-0.00813945
0.026904
-0.0116843
0.0302715
-0.0156427
0.0331135
-0.0199097
0.0351434
-0.0243438
0.0360859
-0.0287855
0.0358018
-0.0330485
0.0341142
-0.0369518
0.0310429
-0.040319
0.0266537
-0.0429867
0.0210323
-0.0448371
0.0145129
-0.0457971
0.00735857
-0.0457664
-0.000513259
-0.0447787
-0.00821786
-0.0428792
-0.0156577
-0.0401408
-0.0225948
-0.0366592
-0.0288497
-0.0325515
-0.0342624
-0.027933
-0.0387967
-0.0229157
-0.042443
-0.0175959
-0.0452556
-0.0120594
-0.0472752
-0.00638199
-0.0485407
-0.000639764
-0.0490489
0.00508968
-0.0487806
0.0107138
-0.0476534
0.0161257
-0.0455964
0.0212038
-0.0425459
0.0258183
-0.0384676
0.0298432
-0.033421
0.0331741
-0.0275194
0.0357375
-0.0209292
-0.0138264
0.0375029
-0.069958
0.0353521
-0.0725157
0.0248747
-0.0737635
0.0130363
-0.0735675
0.000371977
-0.0720196
-0.0118748
-0.0691803
-0.0234952
-0.0651972
-0.0340813
-0.0602584
-0.0432334
-0.0545919
-0.0506763
-0.0484065
-0.0564791
-0.0418978
-0.0606342
-0.0352327
-0.0632896
-0.0285378
-0.0647278
-0.0218981
-0.065235
-0.0153536
-0.0651423
-0.00890564
-0.0647154
-0.00253032
-0.0641662
0.00381425
-0.063595
0.010172
-0.0630091
0.0165646
-0.0622447
0.0229803
-0.061092
0.0293416
-0.0591186
0.035502
-0.0559205
0.0412547
-0.05115
0.0463393
-0.0445279
0.0504925
-0.036125
0.0534768
-0.0261484
0.0551341
-0.015142
0.0554076
-0.00377456
0.0543935
0.00692849
0.0521198
0.0171333
0.0488522
0.0256667
0.0448774
0.0321326
0.0404839
0.0364708
0.0359397
0.0387444
0.0314529
0.0392804
0.0271756
0.0384143
0.0232087
0.0365054
0.0196171
0.0338512
0.0164319
0.0307289
0.0136619
0.0273879
0.0113098
0.0239722
0.00936015
0.0206859
0.00778147
0.0176933
0.00652371
0.0151902
0.00550951
0.0133511
0.00463219
0.012379
0.00377436
0.0123581
0.00280775
0.0133487
0.00159584
0.0153636
2.13513e-05
0.0182608
-0.00201315
0.0218456
-0.00456792
0.0258703
-0.00766694
0.0300031
-0.0112861
0.0338906
-0.0153601
0.0371875
-0.0197778
0.039561
-0.0243894
0.0406975
-0.029025
0.0404374
-0.0334861
0.0385753
-0.0375803
0.0351371
-0.041117
0.0301905
-0.0439223
0.0238376
-0.0458711
0.0164617
-0.0468883
0.00837573
-0.0468663
-0.000535269
-0.0458446
-0.00923951
-0.0438757
-0.0176266
-0.0410395
-0.0254311
-0.0374409
-0.0324482
-0.0332074
-0.0384959
-0.0284623
-0.0435419
-0.0233232
-0.047582
-0.0178884
-0.0506904
-0.0122411
-0.0529225
-0.00645388
-0.0543279
-0.00059738
-0.0549054
0.00525329
-0.0546313
0.0110095
-0.0534096
0.016562
-0.0511489
0.0217837
-0.0477676
0.0265369
-0.0432208
0.0306837
-0.0375678
0.0341126
-0.0309484
0.0367392
-0.0235558
-0.0156167
0.0385295
-0.0714804
0.0392013
-0.0741174
0.0275116
-0.075383
0.0143019
-0.0751673
0.000156287
-0.0734994
-0.0135427
-0.0704973
-0.0264972
-0.0663089
-0.0382697
-0.0611402
-0.0484022
-0.055241
-0.0565755
-0.0488375
-0.0628827
-0.0421363
-0.0673353
-0.0353167
-0.0701093
-0.0285094
-0.0715351
-0.0217975
-0.0719469
-0.0152179
-0.0717219
-0.008762
-0.0711713
-0.00239232
-0.0705359
0.00394852
-0.0699359
0.0103257
-0.0693863
0.0167777
-0.0686967
0.0233016
-0.0676159
0.0298241
-0.0656411
0.036194
-0.0622904
0.0421885
-0.0571445
0.0475168
-0.0498562
0.0518823
-0.0404905
0.0550112
-0.0292773
0.0567203
-0.016851
0.0569528
-0.0040071
0.0558071
0.00807414
0.0533141
0.0196263
0.0497672
0.0292136
0.0454922
0.0364076
0.0408121
0.0411509
0.0360177
0.0435388
0.0313281
0.04397
0.0268982
0.0428442
0.0228249
0.0405787
0.0191668
0.0375093
0.0159483
0.0339474
0.0131727
0.0301635
0.0108406
0.0263042
0.00893816
0.0225884
0.00743166
0.0191998
0.00626986
0.016352
0.00537483
0.0142461
0.00463237
0.0131214
0.00391752
0.013073
0.00309129
0.0141749
0.00200351
0.0164514
0.000525316
0.019739
-0.00144864
0.0238196
-0.00398809
0.0284097
-0.00712137
0.0331363
-0.0108246
0.0375938
-0.0150301
0.041393
-0.0196195
0.0441504
-0.0244334
0.0455114
-0.0292902
0.0452942
-0.0339774
0.0432625
-0.0382896
0.0394493
-0.0420196
0.0339204
-0.0449817
0.0267997
-0.0470418
0.0185218
-0.0481239
0.0094578
-0.0481102
-0.000548965
-0.0470475
-0.0103023
-0.0449977
-0.0196763
-0.0420484
-0.0283804
-0.0383155
-0.0361812
-0.0339384
-0.042873
-0.0290499
-0.0484304
-0.0237747
-0.0528572
-0.0182126
-0.0562525
-0.0124437
-0.0586913
-0.00653662
-0.060235
-0.000555284
-0.0608867
0.00543031
-0.0606169
0.0113341
-0.0593134
0.0170451
-0.0568599
0.0224298
-0.0531524
0.0273404
-0.0481313
0.0316257
-0.0418531
0.0351641
-0.0344868
0.0378589
-0.0262505
-0.0174307
0.0396729
-0.0731942
0.0431838
-0.0759137
0.0302311
-0.0772075
0.0155957
-0.0769259
-0.000125295
-0.0751407
-0.015328
-0.0719481
-0.0296898
-0.0675211
-0.0426966
-0.0620874
-0.0538359
-0.0559223
-0.0627406
-0.0492739
-0.069531
-0.0423655
-0.0742437
-0.0353833
-0.0770916
-0.0284633
-0.078455
-0.0216863
-0.0787239
-0.015082
-0.0783262
-0.00862795
-0.0776253
-0.00227092
-0.0768929
0.0040624
-0.0762692
0.0104543
-0.0757782
0.0169658
-0.0752082
0.0236122
-0.0742623
0.0303254
-0.0723542
0.0369444
-0.0689094
0.0432261
-0.0634263
0.0488436
-0.0554737
0.0534622
-0.0451091
0.0567647
-0.0325797
0.0585426
-0.0186289
0.0587359
-0.00420039
0.0574316
0.00937836
0.0546812
0.0223768
0.0508196
0.0330752
0.0462055
0.0410217
0.0411993
0.0461572
0.0361215
0.0486165
0.0312055
0.048886
0.0266063
0.0474435
0.0224151
0.0447699
0.0186838
0.0412407
0.0154251
0.0372061
0.012637
0.0329516
0.0103196
0.0286217
0.0084632
0.0244448
0.00703223
0.0206308
0.00597396
0.0174102
0.00521285
0.0150072
0.00462373
0.0137105
0.00407261
0.0136241
0.00340757
0.0148399
0.00246251
0.0173965
0.00109673
0.0211048
-0.000806212
0.0257225
-0.00332604
0.0309296
-0.00649591
0.0363062
-0.0102926
0.0413905
-0.0146457
0.0457461
-0.0194286
0.0489333
-0.0244714
0.0505542
-0.0295786
0.0504014
-0.0345224
0.0482063
-0.0390825
0.0440095
-0.0430315
0.0378693
-0.046171
0.0299392
-0.0483563
0.0207071
-0.0495079
0.0106094
-0.049503
-0.000553826
-0.0483933
-0.011412
-0.0462505
-0.0218192
-0.0431714
-0.0314594
-0.0392853
-0.0400673
-0.0347452
-0.0474131
-0.0296954
-0.0534802
-0.024269
-0.0582836
-0.0185671
-0.0619544
-0.0126666
-0.0645918
-0.00662966
-0.066272
-0.000513904
-0.0670025
0.00562034
-0.0667511
0.0116878
-0.0653809
0.0175763
-0.0627483
0.0231449
-0.058721
0.0282338
-0.0532203
0.0326756
-0.0462949
0.0363364
-0.0381475
0.0391064
-0.0290206
-0.019271
0.0409467
-0.0750948
0.0473325
-0.0779263
0.0330626
-0.0792671
0.0169366
-0.0789366
-0.000455805
-0.0770186
-0.017246
-0.0736176
-0.0330909
-0.0689247
-0.0473895
-0.0631923
-0.0595683
-0.056724
-0.0692089
-0.049794
-0.076461
-0.0426424
-0.0813953
-0.0354673
-0.0842667
-0.0284113
-0.085511
-0.021551
-0.0855842
-0.0149099
-0.0849673
-0.00845702
-0.0840782
-0.00212451
-0.0832254
0.00418593
-0.0825796
0.0105821
-0.0821743
0.0171493
-0.0817754
0.0239239
-0.0810369
0.0308466
-0.0792769
0.0377437
-0.0758066
0.0443504
-0.0700329
0.0502999
-0.0614232
0.0552098
-0.050019
0.058713
-0.0360828
0.0605617
-0.0204777
0.060705
-0.00434368
0.059207
0.0108764
0.0561549
0.0254289
0.0519162
0.0373139
0.0469028
0.0460351
0.041523
0.0515369
0.0361273
0.0540123
0.030962
0.0540513
0.0261826
0.0522229
0.0218733
0.0490791
0.0180735
0.0450405
0.0147852
0.0404944
0.0119985
0.0357384
0.00971204
0.0309081
0.00791477
0.0262421
0.00657107
0.0219745
0.005635
0.0183463
0.00502752
0.0156147
0.00461246
0.0141256
0.00424636
0.0139902
0.00376385
0.0153224
0.00298125
0.0181791
0.00174346
0.0223426
-7.83816e-05
0.0275443
-0.00257512
0.0334263
-0.00578542
0.0395165
-0.00968736
0.0452925
-0.0142065
0.0502652
-0.0192072
0.053934
-0.0245073
0.0558544
-0.0298957
0.0557897
-0.035128
0.0534387
-0.0399673
0.0488488
-0.044162
0.042064
-0.047501
0.0332783
-0.0498256
0.0230316
-0.0510568
0.0118407
-0.0510588
-0.000551848
-0.0498922
-0.0125785
-0.0476418
-0.0240696
-0.0444144
-0.0346869
-0.0403545
-0.0441272
-0.0356307
-0.0521369
-0.0304016
-0.0587093
-0.0248089
-0.0638764
-0.0189559
-0.0678074
-0.012915
-0.0706326
-0.00673917
-0.0724479
-0.000476724
-0.0732649
0.00581659
-0.0730444
0.012064
-0.0716283
0.01815
-0.0688343
0.0239252
-0.0644962
0.029215
-0.05851
0.0338337
-0.0509136
0.0376317
-0.0419455
0.0404837
-0.0318726
-0.0211393
0.0423519
-0.0771912
0.0516709
-0.0801483
0.0360198
-0.081543
0.0183312
-0.0811617
-0.00083705
-0.0790961
-0.0193117
-0.0754593
-0.0367277
-0.0704664
-0.0523823
-0.0643979
-0.0656369
-0.0575885
-0.0760183
-0.0503418
-0.0837077
-0.0429215
-0.0888157
-0.0355381
-0.0916501
-0.0283388
-0.0927104
-0.0213971
-0.0925259
-0.014731
-0.0916335
-0.00829509
-0.0905141
-0.00200292
-0.0895176
0.00427149
-0.0888541
0.010666
-0.0885688
0.0172912
-0.0884006
0.0242042
-0.0879498
0.0313604
-0.0864332
0.0385771
-0.0830233
0.0455624
-0.0770182
0.0518995
-0.0677602
0.0571545
-0.0552741
0.0608966
-0.039825
0.0628516
-0.0224327
0.0629583
-0.00445033
0.0612686
0.0125661
0.0578821
0.0288154
0.0532314
0.0419646
0.0477832
0.0514833
0.0419848
0.0573354
0.036229
0.059768
0.0307852
0.0594951
0.0258071
0.0572011
0.0213647
0.0535214
0.0174851
0.0489201
0.0141504
0.0438291
0.0113441
0.0385446
0.00906626
0.0331859
0.00730553
0.0280028
0.0060445
0.0232355
0.00523471
0.0191561
0.00479251
0.0160569
0.00457383
0.0143443
0.0044192
0.0141448
0.00414431
0.0155973
0.00354733
0.0187761
0.002457
0.0234329
0.000729694
0.0292716
-0.00173543
0.0358914
-0.00498491
0.042766
-0.00899858
0.0493061
-0.0136975
0.0549641
-0.0189364
0.0591729
-0.0245208
0.0614388
-0.0302214
0.0614903
-0.0357753
0.0589926
-0.0409275
0.0540009
-0.0453982
0.0465347
-0.0489602
0.0368403
-0.0514396
0.0255111
-0.0527551
0.0131562
-0.0527605
-0.000546486
-0.0515312
-0.0138078
-0.0491584
-0.0264425
-0.0457627
-0.0380825
-0.0415079
-0.048382
-0.0365799
-0.0570648
-0.0311538
-0.0641354
-0.0253818
-0.0696483
-0.0193697
-0.0738195
-0.0131831
-0.0768192
-0.00686511
-0.0787658
-0.000452064
-0.079678
0.0060135
-0.07951
0.0124568
-0.0780716
0.018761
-0.0751385
0.0247671
-0.0705023
0.0302827
-0.0640256
0.0351007
-0.0557316
0.0390532
-0.0458981
0.0419981
-0.0348174
-0.0230414
0.0439002
-0.0278691
0.0532632
-0.0289564
0.0371071
-0.0294709
0.0188457
-0.0293261
-0.000981772
-0.0285579
-0.0200799
-0.0272083
-0.0380772
-0.0253608
-0.0542299
-0.0231218
-0.0678759
-0.020618
-0.078522
-0.0179645
-0.0863611
-0.0152615
-0.0915187
-0.0125887
-0.0943229
-0.00999879
-0.0953003
-0.00751791
-0.0950067
-0.00515
-0.0940014
-0.00287489
-0.0927892
-0.000657764
-0.0917347
0.00155218
-0.091064
0.0038123
-0.090829
0.00616939
-0.0907577
0.0086497
-0.0904301
0.0112417
-0.0890252
0.0138786
-0.0856602
0.0164501
-0.0795897
0.0187961
-0.0701061
0.0207474
-0.0572255
0.0221365
-0.041214
0.0228505
-0.0231467
0.0228734
-0.00447325
0.0222083
0.0132312
0.0209098
0.0301139
0.019138
0.0437364
0.0170722
0.053549
0.0149009
0.0595067
0.0127739
0.061895
0.0107781
0.0614909
0.00896942
0.0590098
0.00737078
0.0551201
0.00598518
0.0503057
0.00480195
0.0450123
0.00381251
0.0395341
0.00301805
0.0339803
0.00241956
0.0286013
0.00201313
0.0236419
0.00176884
0.0194004
0.00165215
0.0161736
0.00162342
0.014373
0.00162308
0.0141452
0.00158048
0.0156399
0.00141915
0.0189374
0.00107376
0.0237783
0.000489007
0.0298564
-0.000373904
0.0367543
-0.0015332
0.0439253
-0.00298306
0.050756
-0.00469401
0.0566751
-0.00661241
0.0610913
-0.00866581
0.0634922
-0.0107676
0.0635921
-0.01282
0.0610451
-0.0147284
0.0559092
-0.0163863
0.0481926
-0.0177088
0.0381629
-0.0186294
0.0264317
-0.0191182
0.013645
-0.0191208
-0.000543864
-0.0186668
-0.0142618
-0.017792
-0.0273173
-0.0165429
-0.0393316
-0.0149829
-0.0499421
-0.0131824
-0.0588653
-0.0112084
-0.0661093
-0.0091179
-0.0717388
-0.00694888
-0.0759885
-0.0047224
-0.0790457
-0.00245067
-0.0810376
-0.000143039
-0.0819856
0.00218727
-0.0818403
0.00451754
-0.0804019
0.00680512
-0.0774261
0.008991
-0.0726882
0.0110023
-0.0660369
0.0127601
-0.0574894
0.0142
-0.0473379
0.0152662
-0.0358837
-0.0237237
0.0159485
-0.0281747
0.0548833
-0.029279
0.0382113
-0.0298002
0.0193669
-0.029647
-0.00113495
-0.0288561
-0.0208708
-0.0274706
-0.0394627
-0.0255781
-0.0561225
-0.0232893
-0.0701646
-0.0207359
-0.0810755
-0.0180384
-0.0890587
-0.0152995
-0.0942576
-0.0125965
-0.0970259
-0.00998477
-0.097912
-0.00749074
-0.0975008
-0.00511749
-0.0963746
-0.00284256
-0.0950641
-0.000628458
-0.0939488
0.00157801
-0.0932705
0.00383948
-0.0930904
0.00620644
-0.0931247
0.00870796
-0.0929316
0.0113346
-0.0916518
0.0140181
-0.0883437
0.0166449
-0.0822165
0.0190478
-0.072509
0.0210505
-0.0592282
0.0224724
-0.0426359
0.0231973
-0.0238715
0.0232073
-0.00448324
0.0225089
0.0139296
0.0211569
0.0314659
0.0193218
0.0455715
0.0172037
0.0556672
0.0149851
0.0617252
0.0128068
0.0640733
0.0107758
0.0635219
0.00894696
0.0608386
0.00733007
0.056737
0.0059328
0.051703
0.00474157
0.0462036
0.00374799
0.0405277
0.00295435
0.034774
0.00235734
0.0291983
0.0019537
0.0240456
0.00172549
0.0196286
0.00163509
0.016264
0.00163452
0.0143736
0.00166418
0.0141155
0.00165179
0.0156523
0.00151769
0.0190715
0.00119384
0.0241021
0.000622558
0.0304277
-0.000236903
0.0376138
-0.00140326
0.0450917
-0.00287147
0.0522242
-0.00461105
0.0584147
-0.00656699
0.0630472
-0.00866473
0.0655899
-0.0108145
0.0657419
-0.0129159
0.0631464
-0.0148711
0.0578645
-0.0165703
0.0498917
-0.017926
0.0395186
-0.0188695
0.0273751
-0.0193712
0.0141467
-0.0193746
-0.000540446
-0.0189107
-0.0147258
-0.0180169
-0.0282111
-0.0167417
-0.0406068
-0.0151512
-0.0515325
-0.0133186
-0.060698
-0.0113135
-0.0681144
-0.00919475