/*--------------------------------*- C++ -*----------------------------------*\
| =========                 |                                                 |
| \\      /  F ield         | OpenFOAM: The Open Source CFD Toolbox           |
|  \\    /   O peration     | Version:  v1912                                 |
|   \\  /    A nd           | Website:  www.openfoam.com                      |
|    \\/     M anipulation  |                                                 |
\*---------------------------------------------------------------------------*/
FoamFile
{
    version     2.0;
    format      ascii;
    class       surfaceScalarField;
    location    "60";
    object      alphaPhi0.water;
}
// * * * * * * * * * * * * * * * * * * * * * * * * * * * * * * * * * * * * * //

dimensions      [0 3 -1 0 0 0 0];
oriented        oriented;


internalField   nonuniform List<scalar> 
28285
(
0.135483
-0.0145514
0.147423
-0.0119392
0.156226
-0.00880361
0.161532
-0.00530611
0.162932
-0.00139967
0.160102
0.00283022
0.15325
0.00685178
0.14247
0.0107799
0.128007
0.0144631
0.110246
0.0177609
0.0897097
0.0205365
0.067057
0.0226527
0.0430795
0.0239776
0.0186496
0.0244299
-0.0053387
0.0239883
-0.0281911
0.0228524
-0.0490223
0.0208311
-0.0671303
0.018108
-0.0820148
0.0148846
-0.0934266
0.0114118
-0.101382
0.00795544
-0.106148
0.00476581
-0.108192
0.00204412
-0.108147
-4.48106e-05
-0.106573
-0.00157416
-0.104204
-0.00236929
-0.101521
-0.00268243
-0.0988623
-0.00265902
-0.0963659
-0.00249643
-0.0939762
-0.00238963
-0.0914777
-0.0024985
-0.0885533
-0.00292438
-0.084856
-0.00369731
-0.0800825
-0.00477349
-0.0740396
-0.00604297
-0.0666901
-0.00734945
-0.0581702
-0.00851989
-0.048773
-0.00939728
-0.0389016
-0.00987134
-0.0290033
-0.00989828
-0.0194961
-0.00950722
-0.0107019
-0.00879417
-0.00279513
-0.00790682
0.00422824
-0.00702337
0.0105443
-0.00631611
0.0164297
-0.00588536
0.0223043
-0.00587461
0.0285849
-0.00628056
0.0356327
-0.00704779
0.0436896
-0.00805691
0.0528274
-0.00913782
0.0629218
-0.0100945
0.0736519
-0.0107301
0.0845113
-0.0108594
0.0948214
-0.0103101
0.103879
-0.00905756
0.111092
-0.00721264
0.115957
-0.0048657
0.118127
-0.00216975
0.117424
0.000702651
0.113921
0.00350369
0.107798
0.00612241
0.0994016
0.00839669
0.0891652
0.0102365
0.0775851
0.01158
0.0651909
0.0123942
0.0524443
0.0127466
0.0397008
0.0127435
0.0272256
0.0124753
0.0152021
0.0120235
0.00374332
0.0114588
-0.00715562
0.0108989
-0.0174263
0.0102707
-0.0270536
0.0096273
-0.036064
0.00901045
-0.0445148
0.00845076
-0.0525007
0.00798591
-0.0601446
0.00764385
-0.0675778
0.00743325
-0.0749076
0.00732976
-0.0821952
0.0072876
-0.0894238
0.00722868
-0.0964604
0.0070366
-0.10305
0.00658911
-0.108838
0.00578819
-0.113386
0.00454845
-0.116197
0.00281079
-0.11672
0.000522553
-0.114443
-0.00227692
-0.109095
-0.00534731
-0.100542
-0.008553
-0.0888761
-0.0116662
-0.074427
-0.014449
-0.0577632
-0.0166638
-0.0396524
-0.0181109
-0.0209655
-0.0186868
-0.0025589
-0.0184067
0.0147729
-0.0173318
0.0305538
-0.0157809
0.0444465
-0.0138927
0.0563429
-0.0118964
0.0663417
-0.00999876
0.0746809
-0.00833919
0.0816581
-0.00697719
0.0875453
-0.00588719
0.0925166
-0.00497129
0.0965973
-0.0040807
0.0996472
-0.0030499
0.101378
-0.00173069
0.101375
2.71303e-06
0.0992755
0.00209966
0.094724
0.00455143
0.0875165
0.00720758
0.0776572
0.00985928
0.0653772
0.0122799
0.0511233
0.014254
0.0355191
0.0156042
0.0192926
0.0162264
0.00319297
0.0160997
-0.0122571
0.01545
-0.026322
0.0140649
-0.0386229
0.0123009
-0.0489367
0.0103139
-0.0572048
0.00826811
-0.0634874
0.00628259
-0.0679215
0.00443403
-0.0706785
0.00275708
-0.071935
0.00125649
-0.0717075
-0.000227542
-0.0700744
-0.00163307
-0.0670119
-0.00306251
-0.0624649
-0.00454702
-0.0563824
-0.00608249
-0.0487548
-0.00762755
-0.0396636
-0.00909118
-0.0293081
-0.0103555
-0.0179941
-0.011314
-0.00611763
-0.0118765
0.0058601
-0.0119777
0.0175213
-0.0116612
0.0284559
-0.0109346
0.0383236
-0.00986772
0.0468671
-0.00854351
0.0539177
-0.00705061
0.0593941
-0.00547639
0.0632784
-0.00388426
0.0655954
-0.00231704
0.0663899
-0.000794461
0.0657337
0.000656147
0.0636768
0.00205693
0.0601865
0.00349035
0.0552618
0.00492465
0.0488949
0.00636694
0.0410927
0.00780219
0.0318993
0.0091934
0.0214139
0.0104854
0.00979391
0.01162
-0.00274506
0.012539
-0.01585
0.0131049
-0.0290823
0.0132324
-0.0419343
0.0128519
-0.0538618
0.0119275
-0.064316
0.0104542
0.00855907
0.135704
-0.0289718
0.147523
-0.0237585
0.156172
-0.0174523
0.161282
-0.0104159
0.162429
-0.00254668
0.159526
0.00573325
0.152627
0.013751
0.14184
0.0215665
0.127431
0.0288721
0.109784
0.0354075
0.0894041
0.0409166
0.0669076
0.0451492
0.0430049
0.0478803
0.0185747
0.0488601
-0.00547671
0.0480397
-0.0282977
0.0456734
-0.0490845
0.0416179
-0.0671624
0.0361858
-0.0820466
0.0297688
-0.093485
0.0228501
-0.101474
0.0159442
-0.106254
0.00954636
-0.108302
0.00409138
-0.108206
-0.000139999
-0.106612
-0.00316863
-0.104203
-0.00477806
-0.101491
-0.00539477
-0.0988203
-0.00532945
-0.0963319
-0.00498486
-0.093966
-0.00475551
-0.0915002
-0.00496431
-0.0886094
-0.00581519
-0.0849397
-0.00736699
-0.0801836
-0.00952965
-0.0741461
-0.0120804
-0.0667902
-0.0147053
-0.0582512
-0.0170589
-0.0488216
-0.0188269
-0.0389065
-0.0197864
-0.0289595
-0.0198453
-0.0194085
-0.0190582
-0.0105859
-0.0176167
-0.00267282
-0.0158199
0.0043148
-0.014011
0.0105765
-0.0125778
0.0164232
-0.011732
0.0222509
-0.0117023
0.0284855
-0.0125152
0.0354994
-0.0140617
0.04354
-0.0160975
0.0526761
-0.0182739
0.062769
-0.0201874
0.0734757
-0.0214367
0.0842917
-0.0216754
0.0946325
-0.0206509
0.103811
-0.0182361
0.111113
-0.0145144
0.116031
-0.00978411
0.118228
-0.00436623
0.117486
0.00144438
0.113949
0.00704082
0.107753
0.0123181
0.0992711
0.0168787
0.0890064
0.0205012
0.0774749
0.0231115
0.0651362
0.024733
0.0524132
0.0254696
0.03967
0.0254866
0.0271844
0.0249609
0.0151481
0.0240599
0.00367672
0.0229301
-0.00720727
0.0217829
-0.0174376
0.020501
-0.0269991
0.0191888
-0.0359435
0.0179549
-0.0443628
0.01687
-0.0523476
0.0159707
-0.0599994
0.0152956
-0.0674266
0.0148605
-0.074732
0.0146352
-0.0819815
0.0145371
-0.0891746
0.0144218
-0.0962177
0.0140797
-0.102885
0.0132559
-0.108784
0.011688
-0.113442
0.00920624
-0.116391
0.00575997
-0.116964
0.00109569
-0.11475
-0.00449143
-0.109447
-0.0106507
-0.10091
-0.0170893
-0.0892265
-0.02335
-0.0747194
-0.0289561
-0.0579599
-0.0334234
-0.0397393
-0.0363314
-0.0209353
-0.0374908
-0.00242056
-0.0369214
0.0149714
-0.0347237
0.0307845
-0.031594
0.0446761
-0.0277844
0.0565459
-0.0237662
0.066502
-0.0199549
0.0747943
-0.0166315
0.0817299
-0.0139128
0.0875884
-0.0117457
0.0925512
-0.0099341
0.096648
-0.00817748
0.0997386
-0.00614056
0.101528
-0.00352004
0.101588
-5.73165e-05
0.0995361
0.00415156
0.0950215
0.00906608
0.0878244
0.0144046
0.0779471
0.0197365
0.0656226
0.0246045
0.0513027
0.0285738
0.0356197
0.0312873
0.0193089
0.0325372
0.00311544
0.0322931
-0.0123905
0.030956
-0.0265017
0.0281762
-0.0388317
0.0246309
-0.0491577
0.0206398
-0.0574246
0.016535
-0.0636956
0.0125536
-0.0681136
0.00885203
-0.0708599
0.00550339
-0.0721105
0.00250711
-0.0718802
-0.000457861
-0.0702553
-0.00325793
-0.0672064
-0.00611144
-0.0626728
-0.00908067
-0.0565971
-0.0121581
-0.0489626
-0.0152621
-0.0398467
-0.018207
-0.0294515
-0.0207508
-0.0180864
-0.022679
-0.00614706
-0.0238158
0.00588914
-0.0240139
0.0176026
-0.0233747
0.0285802
-0.0219121
0.03848
-0.0197676
0.0470437
-0.0171072
0.0541035
-0.0141104
0.0595797
-0.0109526
0.0634564
-0.00776096
0.0657625
-0.00462318
0.0665504
-0.0015823
0.0658913
0.00131517
0.0638401
0.00410819
0.0603609
0.00696951
0.0554498
0.00983572
0.0490945
0.0127223
0.041298
0.0155987
0.0321019
0.0183895
0.0216027
0.0209846
0.00995591
0.0232668
-0.0026276
0.0251225
-0.0157925
0.0262698
-0.0290975
0.0265374
-0.0420294
0.0257839
-0.0540374
0.0239355
-0.0645617
0.0209785
0.0171757
0.136408
-0.0435018
0.148321
-0.0356707
0.15704
-0.0261714
0.162167
-0.0155429
0.163329
-0.0037091
0.160412
0.00865029
0.153482
0.0206813
0.142629
0.0324191
0.128118
0.0433833
0.110334
0.0531917
0.089786
0.0614644
0.0671113
0.0678239
0.0430604
0.0719312
0.0184497
0.0734707
-0.00581448
0.0723039
-0.0288187
0.0686777
-0.0497609
0.0625601
-0.0679517
0.0543766
-0.0828963
0.0447134
-0.0943393
0.0342931
-0.102277
0.0238821
-0.10695
0.0142189
-0.108855
0.00599691
-0.108554
-0.000440919
-0.106815
-0.00490804
-0.104269
-0.00732438
-0.101463
-0.0082003
-0.0987549
-0.00803766
-0.0962833
-0.00745646
-0.0939795
-0.00705935
-0.0916042
-0.00733955
-0.0888122
-0.00860724
-0.0852285
-0.0109507
-0.0805276
-0.0142305
-0.0745026
-0.0181055
-0.067112
-0.0220959
-0.0584951
-0.0256758
-0.0489561
-0.028366
-0.0389169
-0.0298256
-0.0288508
-0.0299113
-0.019206
-0.0287031
-0.010332
-0.0264907
-0.00242219
-0.0237297
0.0045153
-0.0209485
0.0106881
-0.0187507
0.0164232
-0.0174671
0.0221319
-0.0174109
0.0282609
-0.0186443
0.0352027
-0.0210034
0.0432189
-0.0241138
0.0523841
-0.0274391
0.0625551
-0.0303584
0.0733751
-0.0322567
0.0843117
-0.032612
0.0947279
-0.0310672
0.10397
-0.0274785
0.111408
-0.0219519
0.116449
-0.0148248
0.118691
-0.00660907
0.117886
0.00224943
0.114302
0.0106252
0.108057
0.0185633
0.099545
0.0253904
0.0892292
0.030817
0.0776131
0.0347275
0.0651883
0.0371578
0.052393
0.0382649
0.0395923
0.0382873
0.0270639
0.0374893
0.0149993
0.0361245
0.00351382
0.0344156
-0.00736171
0.0326585
-0.0175494
0.0306887
-0.027089
0.0287284
-0.036034
0.0268998
-0.0444406
0.0252767
-0.0523983
0.0239284
-0.0600158
0.0229131
-0.0674099
0.0222546
-0.0746894
0.0219146
-0.0819259
0.0217736
-0.0891234
0.0216193
-0.0961909
0.0211472
-0.102924
0.0199888
-0.108999
0.0177633
-0.11388
0.0140875
-0.116976
0.00885536
-0.117693
0.00181256
-0.115588
-0.0065962
-0.110345
-0.015894
-0.101804
-0.0256302
-0.0900415
-0.0351121
-0.0753769
-0.0436207
-0.0583873
-0.050413
-0.0399046
-0.0548141
-0.0208383
-0.0565572
-0.00212793
-0.0556318
0.0154247
-0.0522764
0.0313272
-0.0474965
0.0452393
-0.0416964
0.0570701
-0.0355971
0.0669478
-0.0298326
0.0751472
-0.0248309
0.0819976
-0.0207632
0.0877975
-0.0175456
0.0927477
-0.0148843
0.0968866
-0.0123164
0.10007
-0.00932375
0.101984
-0.00543471
0.102177
-0.000249471
0.100215
0.00611343
0.0957661
0.0135148
0.0885735
0.0215972
0.0786342
0.0296759
0.0661852
0.0370535
0.0516918
0.0430672
0.0358071
0.047172
0.0192895
0.0490547
0.00290397
0.0486787
-0.0127536
0.0466135
-0.0269812
0.0424037
-0.0393789
0.0370286
-0.0497277
0.0309886
-0.0579825
0.0247897
-0.0642176
0.0187887
-0.0685906
0.013225
-0.0713035
0.00821635
-0.0725237
0.00372727
-0.0722847
-0.0006969
-0.0706703
-0.00487224
-0.0676412
-0.00914061
-0.0631254
-0.0135964
-0.0570534
-0.0182302
-0.0493951
-0.0229204
-0.04022
-0.0273821
-0.0297327
-0.0312381
-0.0182508
-0.034161
-0.00618326
-0.0358833
0.0059802
-0.0361774
0.0178114
-0.035206
0.0288871
-0.0329878
0.0388605
-0.029741
0.0474712
-0.0257178
0.0545533
-0.0211925
0.0600318
-0.0164311
0.0638968
-0.011626
0.0661836
-0.00691001
0.06695
-0.00234862
0.0662887
0.00197644
0.0642393
0.00615757
0.0607689
0.01044
0.0558671
0.0147375
0.0495145
0.0190749
0.0417076
0.0234055
0.0324828
0.0276144
0.0219334
0.031534
0.0102151
0.0349851
-0.00246969
0.0378073
-0.0157641
0.0395642
-0.029216
0.0399893
-0.0423032
0.0388711
-0.0544634
0.0360956
-0.0651185
0.0316336
0.0258896
0.137513
-0.0582767
0.149631
-0.0477884
0.158506
-0.035047
0.163703
-0.0207392
0.16492
-0.004926
0.16199
0.0115804
0.155006
0.0276651
0.144049
0.0433763
0.129382
0.0580499
0.111392
0.0711815
0.0905898
0.0822668
0.0676159
0.0907978
0.0432319
0.0963152
0.0182801
0.0984226
-0.00633638
0.0969203
-0.029661
0.0920024
-0.0508715
0.0837706
-0.0692554
0.0727605
-0.0843021
0.0597602
-0.0957521
0.0457431
-0.103602
0.0317322
-0.108098
0.0187147
-0.109748
0.0076471
-0.109149
-0.00104049
-0.10715
-0.00690704
-0.104382
-0.0100923
-0.101427
-0.0111545
-0.0986582
-0.0108069
-0.0962123
-0.00990238
-0.0940058
-0.00926579
-0.0917734
-0.00957201
-0.0891373
-0.0112433
-0.0856894
-0.0143986
-0.0810752
-0.0188447
-0.0750686
-0.0241121
-0.0676213
-0.0295432
-0.0588795
-0.0344176
-0.0491664
-0.0380791
-0.0389317
-0.0400603
-0.0286806
-0.0401625
-0.0188917
-0.038492
-0.00994063
-0.0354418
-0.0020417
-0.0316287
0.00482812
-0.0278183
0.0108694
-0.0247919
0.0164293
-0.023027
0.0219522
-0.0229338
0.0279184
-0.0246105
0.0347507
-0.0278357
0.0427334
-0.0320964
0.051952
-0.0366577
0.0622608
-0.0406672
0.0732889
-0.0432848
0.0844805
-0.0438036
0.0951621
-0.0417488
0.104622
-0.0369384
0.112195
-0.029525
0.117327
-0.0199565
0.119632
-0.00891395
0.118875
0.00300649
0.115239
0.0142608
0.108879
0.0249233
0.100201
0.0340681
0.0896988
0.0413196
0.0778968
0.0465295
0.0653059
0.0497487
0.0523757
0.0511951
0.0394735
0.0511896
0.026874
0.0500887
0.0147654
0.0482332
0.00326139
0.0459196
-0.0076016
0.0435214
-0.0177773
0.0408645
-0.0273104
0.0382615
-0.0362323
0.0358217
-0.0446037
0.0336481
-0.0525151
0.0318397
-0.0600804
0.0304783
-0.0674256
0.0295999
-0.0746705
0.0291595
-0.0818986
0.0290017
-0.0891241
0.0288448
-0.0962604
0.0282836
-0.103106
0.0268349
-0.109396
0.024053
-0.114567
0.0192588
-0.117878
0.0121656
-0.118821
0.00275576
-0.116881
-0.0085364
-0.111724
-0.0210505
-0.103172
-0.0341829
-0.0912855
-0.0469982
-0.0763768
-0.0585294
-0.0590316
-0.0677581
-0.0401439
-0.0737018
-0.0206835
-0.0760176
-0.00168591
-0.0746293
0.0161185
-0.0700808
0.0321581
-0.0635361
0.0461024
-0.0556407
0.0578736
-0.0473682
0.0676304
-0.0395893
0.0756849
-0.0328854
0.0823949
-0.0274732
0.0880936
-0.0232443
0.0930246
-0.0198153
0.0972377
-0.0165295
0.100571
-0.0126569
0.102677
-0.00754034
0.103067
-0.000640324
0.101245
0.00793542
0.0968952
0.0178649
0.0897081
0.0287843
0.0796731
0.0397109
0.0670338
0.0496928
0.0522759
0.057825
0.036084
0.063364
0.0192531
0.0658856
0.00257758
0.0653542
-0.0132817
0.0624728
-0.0277017
0.0568237
-0.040206
0.0495329
-0.0505894
0.0413721
-0.0588247
0.033025
-0.0650031
0.0249671
-0.0693064
0.0175283
-0.0719615
0.0108715
-0.0731323
0.004898
-0.0728833
-0.000945903
-0.0712852
-0.00647029
-0.0682871
-0.0121387
-0.0638005
-0.0180831
-0.0577363
-0.0242943
-0.0500434
-0.0306133
-0.0407792
-0.0366463
-0.0301525
-0.0418648
-0.0184942
-0.0458193
-0.00623528
-0.0481422
0.00611835
-0.048531
0.0181244
-0.047212
0.0293458
-0.0442091
0.0394274
-0.0398226
0.0481059
-0.0343964
0.0552188
-0.0283053
0.0606966
-0.0219089
0.0645357
-0.0154651
0.0667847
-0.00915904
0.067526
-0.00308985
0.0668569
0.00264554
0.0648165
0.0081979
0.0613653
0.0138912
0.0564843
0.0196186
0.0501423
0.0254169
0.0423269
0.0312209
0.0330665
0.0368747
0.0224488
0.0421517
0.0106255
0.0468084
-0.00220848
0.0506413
-0.0157093
0.0530651
-0.029386
0.0536659
-0.0427037
0.0521888
-0.0550904
0.0484823
-0.0659416
0.0424848
0.0347499
0.139007
-0.0734126
0.151427
-0.0602083
0.160532
-0.0441519
0.165851
-0.0260581
0.167143
-0.00621842
0.1642
0.0145239
0.157143
0.0347216
0.146043
0.054477
0.131163
0.0729292
0.112891
0.0894536
0.0917387
0.103419
0.0683525
0.114184
0.0435038
0.121164
0.0180644
0.123862
-0.00704278
0.122027
-0.0308177
0.115777
-0.052404
0.105357
-0.071057
0.0914135
-0.0862449
0.0749481
-0.0977041
0.0572023
-0.105429
0.0394567
-0.109689
0.0229746
-0.110961
0.00891969
-0.109975
-0.00202668
-0.107603
-0.00927874
-0.10453
-0.0131659
-0.101372
-0.0143125
-0.0985189
-0.0136597
-0.096109
-0.0123122
-0.0940378
-0.0113371
-0.0920036
-0.0116061
-0.0895837
-0.0136633
-0.0863236
-0.0176587
-0.0818293
-0.0233389
-0.0758481
-0.0300934
-0.0683222
-0.0370691
-0.0594077
-0.0433321
-0.0494545
-0.0480323
-0.0389505
-0.0505642
-0.0284448
-0.0506682
-0.0184585
-0.0484783
-0.0094023
-0.044498
-0.00152452
-0.0395064
0.0052625
-0.0346053
0.0111236
-0.030653
0.0164422
-0.0283456
0.0217093
-0.0282009
0.0274522
-0.0303534
0.0341354
-0.0345189
0.0420739
-0.040035
0.0513692
-0.045953
0.0618729
-0.0511709
0.0731944
-0.0546063
0.0847451
-0.0553543
0.0958092
-0.0528129
0.105627
-0.0467561
0.113489
-0.0373871
0.118811
-0.0252782
0.121195
-0.0112983
0.120418
0.00378338
0.11666
0.0180184
0.110098
0.0314857
0.101165
0.0430015
0.0903852
0.0520991
0.0783143
0.0586004
0.065485
0.0625781
0.0523612
0.0643189
0.0393139
0.0642369
0.0266146
0.0627879
0.0144446
0.0604032
0.00291613
0.057448
-0.00794177
0.0543793
-0.0181196
0.0510423
-0.0276339
0.0477757
-0.036521
0.0447089
-0.0448431
0.0419703
-0.0526921
0.0396887
-0.0601879
0.0379741
-0.0674681
0.0368801
-0.0746679
0.0363592
-0.0818884
0.0362223
-0.0891598
0.0361161
-0.0964048
0.0355287
-0.103418
0.0338485
-0.109954
0.030589
-0.115457
0.0247611
-0.119108
0.0158166
-0.12036
0.00400833
-0.118645
-0.0102513
-0.113606
-0.0260902
-0.105034
-0.0427547
-0.0929748
-0.0590573
-0.0777308
-0.0737733
-0.0598995
-0.0855894
-0.0404598
-0.0931415
-0.0204741
-0.0960034
-0.00109129
-0.0940121
0.0170679
-0.08824
0.0332936
-0.0797618
0.047281
-0.0696281
0.0589667
-0.059054
0.0685451
-0.0491677
0.0763584
-0.0406987
0.0828046
-0.0339194
0.088358
-0.0287977
0.0933093
-0.0247665
0.0976847
-0.0209049
0.101249
-0.0162209
0.103615
-0.00990708
0.104277
-0.00130159
0.102652
0.00956007
0.0984338
0.0220831
0.0912527
0.0359654
0.0810851
0.0498784
0.068184
0.062594
0.0530635
0.0729455
0.0364513
0.0799762
0.0191915
0.0831454
0.00212021
0.0824255
-0.01401
0.0786031
-0.0286728
0.0714865
-0.0413331
0.0621932
-0.0517642
0.0518032
-0.05997
0.0412309
-0.0660671
0.0310642
-0.0702732
0.0217344
-0.0728385
0.0134368
-0.0739456
0.00600507
-0.0736822
-0.00120931
-0.0721074
-0.00804507
-0.0691526
-0.0150935
-0.0647064
-0.0225293
-0.058654
-0.0303467
-0.0509158
-0.0383515
-0.0415326
-0.0460295
-0.0307186
-0.0526788
-0.0188225
-0.0577153
-0.00630491
-0.0606598
0.00630797
-0.0611439
0.0185524
-0.0594564
0.029972
-0.0556288
0.0402004
-0.050051
0.0489704
-0.0431664
0.0561226
-0.0354575
0.061592
-0.0273783
0.065383
-0.0192561
0.0675784
-0.0113545
0.0682969
-0.00380831
0.0676328
0.00330963
0.0655984
0.0102323
0.0621654
0.0173242
0.0573074
0.0244765
0.0509774
0.0317469
0.0431473
0.0390511
0.0338355
0.0461865
0.0231218
0.0528653
0.0111554
0.0587749
-0.0018779
0.0636745
-0.0156493
0.0668365
-0.0296102
0.0676268
-0.0432343
0.0658129
-0.0559268
0.0611749
-0.0670521
0.0536101
0.04381
0.140893
-0.0890212
0.153708
-0.073023
0.163111
-0.0535551
0.168607
-0.031554
0.169991
-0.0076027
0.167032
0.0174836
0.159883
0.04187
0.148601
0.0657593
0.133452
0.0880785
0.114821
0.108084
0.0932227
0.125018
0.0693101
0.138097
0.0438688
0.146605
0.0177998
0.149931
-0.00793815
0.147765
-0.0322945
0.140134
-0.054366
0.127428
-0.0733658
0.110413
-0.0887335
0.0903159
-0.100204
0.0686732
-0.107765
0.0470171
-0.111724
0.0269341
-0.11249
0.00968496
-0.111022
-0.00349404
-0.108163
-0.0121376
-0.104696
-0.0166328
-0.101278
-0.0177306
-0.0983202
-0.0166178
-0.0959599
-0.0146725
-0.094066
-0.0132309
-0.0922911
-0.0133811
-0.090153
-0.0158014
-0.0871378
-0.0206739
-0.0828002
-0.0276766
-0.0768525
-0.036041
-0.0692255
-0.0446961
-0.0600878
-0.0524697
-0.0498236
-0.0582965
-0.038971
-0.0614169
-0.028136
-0.0615032
-0.0178943
-0.0587199
-0.0087022
-0.0536901
-0.000864742
-0.0473439
0.00583386
-0.0413039
0.0114595
-0.0362787
0.0164637
-0.0333498
0.0213992
-0.0331365
0.0268528
-0.0358071
0.0333429
-0.0410089
0.0412245
-0.0479165
0.0506191
-0.0553476
0.0613752
-0.061927
0.0730765
-0.0663076
0.0850913
-0.067369
0.0966491
-0.0643707
0.106931
-0.0570381
0.115174
-0.04563
0.120752
-0.0308566
0.123248
-0.013794
0.122437
0.0045946
0.118515
0.0219404
0.111683
0.0383172
0.102414
0.0522705
0.0912735
0.0632399
0.0788532
0.0710207
0.0657152
0.075716
0.0523412
0.077693
0.0391075
0.0774705
0.0262813
0.0756141
0.0140331
0.0726515
0.00247651
0.0690046
-0.00839464
0.0652505
-0.0185659
0.0612136
-0.028054
0.0572637
-0.036897
0.0535519
-0.0451566
0.0502299
-0.0529266
0.0474587
-0.060334
0.0453816
-0.0675307
0.0440767
-0.0746719
0.0435005
-0.0818825
0.0434329
-0.0892141
0.0434477
-0.0966054
0.04292
-0.103851
0.0410943
-0.110664
0.0374018
-0.116533
0.03063
-0.120656
0.0199398
-0.122312
0.00566459
-0.120893
-0.0116708
-0.116006
-0.0309776
-0.10741
-0.0513502
-0.0951278
-0.0713396
-0.0794527
-0.0894485
-0.0609967
-0.104045
-0.0408493
-0.113289
-0.0202006
-0.116652
-0.000354113
-0.113859
0.0182949
-0.106889
0.0347521
-0.0962191
0.0487904
-0.0836663
0.0603585
-0.0706221
0.0696919
-0.0585012
0.0771811
-0.048188
0.083387
-0.0401253
0.0888035
-0.0342143
0.0937195
-0.0296825
0.0982256
-0.025411
0.102091
-0.0200866
0.10479
-0.0126061
0.105801
-0.00231263
0.104446
0.010916
0.100394
0.0261347
0.0932214
0.0431379
0.0828837
0.0602162
0.0696463
0.0758314
0.0540609
0.0885308
0.03691
0.0971272
0.0191005
0.100955
0.00151773
0.100008
-0.0149879
0.0951087
-0.0299145
0.0864131
-0.0427694
0.0750481
-0.0532608
0.0622946
-0.0614235
0.0493936
-0.0674092
0.0370499
-0.071483
0.0258081
-0.0739252
0.015879
-0.0749517
0.00703162
-0.0746728
-0.00148825
-0.0731307
-0.00958712
-0.0702355
-0.0179887
-0.0658458
-0.026919
-0.0598134
-0.0363791
-0.0520208
-0.0461441
-0.0424882
-0.0555622
-0.0314367
-0.0637302
-0.0192392
-0.0699129
-0.00639288
-0.0735062
0.00655091
-0.0740877
0.0190985
-0.072004
0.0307691
-0.0672994
0.0411814
-0.0604633
0.0500627
-0.0520476
0.0572537
-0.0426485
0.0626924
-0.032817
0.066426
-0.0229897
0.0685943
-0.0135228
0.0692924
-0.00450643
0.0686195
0.00398248
0.0665864
0.0122655
0.0631723
0.0207383
0.0583421
0.0293067
0.0520302
0.0380588
0.0441851
0.0468962
0.0348111
0.0555606
0.023977
0.0636994
0.011827
0.0709249
-0.00145349
0.076955
-0.0155595
0.0809426
-0.0298858
0.081953
-0.0439016
0.0798287
-0.0569765
0.0742497
-0.0684476
0.0650812
0.0531256
0.143181
-0.105215
0.156483
-0.0863244
0.166252
-0.0633242
0.17198
-0.0372821
0.173469
-0.00909175
0.170489
0.020464
0.16323
0.0491289
0.151728
0.077261
0.136252
0.103554
0.117187
0.12715
0.0950464
0.147158
0.0704915
0.162652
0.0443265
0.17277
0.017484
0.176774
-0.00902917
0.174279
-0.0341029
0.165207
-0.0567741
0.1501
-0.0762023
0.129841
-0.0917892
0.105903
-0.103275
0.0801592
-0.110643
0.0543846
-0.11418
0.0304713
-0.114351
0.00985639
-0.112275
-0.00556996
-0.108815
-0.0155977
-0.104862
-0.0205861
-0.101124
-0.021469
-0.0980405
-0.0197009
-0.0957471
-0.0169658
-0.0940792
-0.0148989
-0.0926317
-0.0148285
-0.0908493
-0.0175838
-0.0881431
-0.0233801
-0.0840035
-0.0318162
-0.0780996
-0.0419449
-0.0703474
-0.0524483
-0.0609316
-0.0618856
-0.0502789
-0.0689492
-0.0389905
-0.0727053
-0.0277439
-0.0727497
-0.0171827
-0.0692811
-0.00782041
-0.0630524
-9.48998e-05
-0.0550694
0.0065636
-0.0479624
0.0118883
-0.0416034
0.0164962
-0.0379577
0.0210163
-0.0376566
0.0261074
-0.0408982
0.0323547
-0.0472563
0.0401635
-0.0557253
0.0496799
-0.0648641
0.0607484
-0.0729955
0.0729205
-0.0784798
0.0855105
-0.0799589
0.0976798
-0.07654
0.108537
-0.0678954
0.117253
-0.0543457
0.123151
-0.0367548
0.125786
-0.0164291
0.124929
0.00545214
0.1208
0.0260691
0.113632
0.0454853
0.103945
0.0619575
0.092356
0.0748288
0.0795039
0.0838728
0.0659863
0.0892336
0.052306
0.0913733
0.0388462
0.0909303
0.0258685
0.0885919
0.0135289
0.0849911
0.00194078
0.0805927
-0.00895489
0.0761462
-0.0191149
0.0713736
-0.0285704
0.0667192
-0.0373602
0.0623417
-0.0455443
0.0584139
-0.0532179
0.0551324
-0.0605161
0.0526798
-0.0676079
0.0511685
-0.0746738
0.0505664
-0.0818683
0.0506274
-0.089271
0.0508504
-0.096841
0.0504899
-0.104377
0.0486301
-0.111543
0.0445677
-0.117859
0.0369462
-0.122521
0.0246017
-0.124685
0.00782923
-0.123642
-0.0127138
-0.118949
-0.0356708
-0.110329
-0.0599707
-0.0977702
-0.0838981
-0.08156
-0.105659
-0.0623324
-0.123273
-0.0413134
-0.134308
-0.0198448
-0.138121
0.000757979
-0.134461
0.0198361
-0.125967
0.0365589
-0.112942
0.0506534
-0.0977608
0.0620677
-0.0820363
0.0710923
-0.0675259
0.078233
-0.0553286
0.084156
-0.0460483
0.089388
-0.0394463
0.0942732
-0.0345677
0.0989071
-0.0300449
0.103075
-0.024254
0.106196
-0.0157275
0.107643
-0.00375991
0.106649
0.0119097
0.102793
0.0299913
0.0956345
0.0502962
0.0850863
0.0707644
0.0714335
0.0894841
0.0552753
0.104689
0.0374611
0.114941
0.0189741
0.119442
0.000745818
0.118237
-0.0162138
0.112068
-0.0314759
0.101675
-0.0445361
0.0881083
-0.0550971
0.0728556
-0.0631958
0.0574923
-0.0690326
0.0428866
-0.0729296
0.0297052
-0.075217
0.0181664
-0.076143
0.00795766
-0.0758481
-0.00178321
-0.0743516
-0.0110836
-0.0715363
-0.020804
-0.0672236
-0.0312317
-0.0612229
-0.0423798
-0.0533685
-0.0539986
-0.043657
-0.0652736
-0.0323189
-0.0750684
-0.0197544
-0.0824774
-0.00650149
-0.0867591
0.00685018
-0.0874394
0.0197697
-0.0849235
0.031747
-0.0792767
0.0423819
-0.0710982
0.0513931
-0.0610588
0.0586195
-0.0498749
0.0640247
-0.0382222
0.0677229
-0.0266879
0.0698466
-0.0156465
0.0705015
-0.00516133
0.0698149
0.00466909
0.0677791
0.0143012
0.0643853
0.0241321
0.0595873
0.0341047
0.0532987
0.0443474
0.0454396
0.0547553
0.0359934
0.0650067
0.0250161
0.0746766
0.0126411
0.0833
-0.000935574
0.0905316
-0.0154388
0.0954458
-0.0302126
0.0967267
-0.0447103
0.0943265
-0.0582571
0.0877965
-0.0701479
0.0769721
0.062755
0.145884
-0.122111
0.159766
-0.100206
0.169968
-0.073527
0.175983
-0.0432965
0.177589
-0.0106983
0.174582
0.0234712
0.167194
0.0565172
0.155435
0.0890198
0.139576
0.119413
0.12
0.146726
0.0972205
0.169938
0.0719052
0.187967
0.0448803
0.199795
0.0171149
0.204539
-0.0103242
0.201718
-0.0362585
0.191142
-0.0596512
0.173492
-0.0795951
0.149785
-0.0954425
0.12175
-0.106948
0.0916648
-0.114132
0.0615687
-0.117081
0.0334196
-0.116559
0.00933462
-0.113721
-0.0084076
-0.109543
-0.0197758
-0.105003
-0.0251259
-0.10088
-0.0255918
-0.0976532
-0.0229282
-0.0954485
-0.0191705
-0.094063
-0.0162844
-0.0930212
-0.0158703
-0.091678
-0.0189269
-0.089354
-0.0257041
-0.0854601
-0.03571
-0.0796127
-0.0477923
-0.0717094
-0.0603516
-0.0619546
-0.0716404
-0.050827
-0.0800768
-0.0390056
-0.0845267
-0.0272557
-0.0844996
-0.0163032
-0.0802337
-0.00672184
-0.0726337
0.00117208
-0.0629633
0.00748504
-0.0542754
0.0124235
-0.0465419
0.0165425
-0.0420767
0.0205533
-0.0416673
0.025199
-0.0455439
0.0311469
-0.0532041
0.0388637
-0.0634421
0.0485245
-0.0745249
0.0599692
-0.0844402
0.0727101
-0.0912206
0.0859952
-0.093244
0.0989034
-0.0894482
0.110455
-0.0794472
0.119741
-0.0636318
0.126025
-0.0430384
0.128827
-0.0192311
0.127909
0.00637026
0.123527
0.0304512
0.115949
0.0530628
0.105756
0.0721504
0.0936271
0.0869578
0.080257
0.0972428
0.0662867
0.103204
0.0522438
0.105416
0.0385194
0.104655
0.0253686
0.101743
0.0129368
0.0974228
0.00127321
0.0922562
-0.00962566
0.087045
-0.0197685
0.0815164
-0.0291849
0.0761357
-0.0379127
0.0710694
-0.0460078
0.066509
-0.0535667
0.0626913
-0.0607325
0.0598456
-0.0676945
0.0581305
-0.074664
0.0575359
-0.081832
0.0577954
-0.089313
0.0583314
-0.0970912
0.0582682
-0.104974
0.0565126
-0.11257
0.0521637
-0.119441
0.0438171
-0.124733
0.0298942
-0.127493
0.0105893
-0.126922
-0.0132855
-0.122471
-0.0401217
-0.113827
-0.0686143
-0.100935
-0.0967903
-0.0840742
-0.122519
-0.0639194
-0.143428
-0.0418582
-0.156369
-0.0194043
-0.160575
0.00206726
-0.155933
0.0217158
-0.145616
0.038751
-0.129977
0.0528989
-0.111909
0.0641168
-0.0932542
0.0727629
-0.0761719
0.0794949
-0.0620607
0.0850511
-0.0516045
0.090052
-0.0444472
0.0949021
-0.0394178
0.0997121
-0.0348549
0.104206
-0.0287483
0.107829
-0.0193505
0.109803
-0.00573391
0.109299
0.0124139
0.105647
0.0336434
0.0985125
0.0574309
0.087709
0.081568
0.073557
0.103636
0.0567136
0.121532
0.0381049
0.13355
0.0188081
0.138739
-0.00015673
0.137201
-0.0176979
0.12961
-0.0333785
0.117356
-0.0466729
0.101403
-0.0572954
0.0834781
-0.0652972
0.0654941
-0.0709373
0.0485268
-0.0746058
0.0333737
-0.0767043
0.0202649
-0.0775079
0.00876126
-0.0771989
-0.00209225
-0.0757648
-0.0125177
-0.0730554
-0.0235133
-0.068846
-0.0354412
-0.0628934
-0.0483323
-0.0549701
-0.0619219
-0.0450523
-0.0751914
-0.033382
-0.0867387
-0.0203784
-0.095481
-0.00663363
-0.100504
0.00721007
-0.101283
0.0205751
-0.0982885
0.0329174
-0.0916191
0.0438138
-0.0819946
0.0529709
-0.0702159
0.0602322
-0.0571362
0.0656125
-0.0436024
0.0692627
-0.0303382
0.0713181
-0.0177018
0.0719192
-0.00576243
0.0712119
0.00537635
0.069173
0.0163402
0.0658055
0.0274996
0.0610483
0.0388619
0.0547913
0.0506043
0.046922
0.0626246
0.037396
0.0745327
0.0262533
0.0858193
0.0136113
0.095942
-0.000328269
0.104471
-0.0152771
0.110395
-0.0305836
0.112033
-0.0456586
0.109401
-0.0597733
0.101911
-0.0721627
0.0893616
0.0727588
0.149018
-0.139829
0.163576
-0.114764
0.174281
-0.0842316
0.180629
-0.0496441
0.182371
-0.0124411
0.179328
0.026515
0.17179
0.0640545
0.159737
0.101073
0.14344
0.13571
0.123277
0.166889
0.0997601
0.193455
0.0735633
0.214164
0.0455364
0.227822
0.0166919
0.233383
-0.0118327
0.230242
-0.0387804
0.218089
-0.0630255
0.197737
-0.0835805
0.17034
-0.0997327
0.137902
-0.111264
0.103196
-0.118226
0.0685313
-0.120455
0.0356481
-0.119104
0.00798353
-0.115359
-0.0121523
-0.110328
-0.0248075
-0.105092
-0.0303619
-0.100517
-0.0301665
-0.0971261
-0.026319
-0.0950373
-0.0212593
-0.0940011
-0.0173206
-0.0934541
-0.0164173
-0.0926458
-0.0197353
-0.0907884
-0.0275615
-0.0871962
-0.0393022
-0.0814208
-0.0535677
-0.073338
-0.0684344
-0.0631762
-0.0818022
-0.0514765
-0.0917765
-0.0390123
-0.0969909
-0.0266555
-0.0968565
-0.0152323
-0.0916569
-0.00539917
-0.0824668
0.00256803
-0.0709305
0.00860052
-0.0603079
0.0130791
-0.0510204
0.0166067
-0.0456043
0.0200017
-0.0450623
0.0241073
-0.0496495
0.0296885
-0.0587852
0.0372919
-0.0710456
0.0471199
-0.0843528
0.0590096
-0.0963299
0.0724262
-0.104637
0.086538
-0.107356
0.100324
-0.103235
0.112701
-0.0918236
0.122663
-0.0735936
0.129401
-0.049777
0.132397
-0.022227
0.131401
0.00736677
0.126713
0.0351389
0.118646
0.0611301
0.107851
0.0829455
0.0950819
0.0997265
0.0811021
0.111223
0.0666026
0.117703
0.0521403
0.119878
0.0381138
0.118681
0.0247695
0.115087
0.0122422
0.10995
0.000465652
0.104033
-0.0104083
0.097919
-0.0205289
0.0916371
-0.0299
0.0855067
-0.0385571
0.0797266
-0.0465499
0.0745018
-0.0539749
0.0701163
-0.0609824
0.0668531
-0.0677852
0.0649333
-0.0746319
0.0643826
-0.0817582
0.0649217
-0.0893201
0.0658933
-0.0973339
0.066282
-0.105621
0.0647994
-0.113734
0.0602771
-0.121259
0.0513422
-0.127316
0.0359513
-0.130737
0.0140099
-0.130769
-0.0132529
-0.126613
-0.0442776
-0.117953
-0.077275
-0.104663
-0.11008
-0.0870198
-0.140163
-0.0657756
-0.164672
-0.0424928
-0.179652
-0.0188669
-0.184201
0.00360423
-0.178404