/*--------------------------------*- C++ -*----------------------------------*\
| =========                 |                                                 |
| \\      /  F ield         | OpenFOAM: The Open Source CFD Toolbox           |
|  \\    /   O peration     | Version:  v1912                                 |
|   \\  /    A nd           | Website:  www.openfoam.com                      |
|    \\/     M anipulation  |                                                 |
\*---------------------------------------------------------------------------*/
FoamFile
{
    version     2.0;
    format      ascii;
    class       volScalarField;
    location    "60";
    object      k;
}
// * * * * * * * * * * * * * * * * * * * * * * * * * * * * * * * * * * * * * //

dimensions      [0 2 -2 0 0 0 0];


internalField   nonuniform List<scalar> 
14268
(
4.99361e-07
5.025e-07
5.14681e-07
5.38288e-07
5.71257e-07
5.94895e-07
6.05633e-07
6.08612e-07
6.08509e-07
6.0683e-07
6.04267e-07
6.02352e-07
6.01428e-07
6.01479e-07
6.02439e-07
6.04114e-07
6.0627e-07
6.0863e-07
6.10904e-07
6.12628e-07
6.13542e-07
6.13933e-07
6.14063e-07
6.1411e-07
6.14457e-07
6.15031e-07
6.15573e-07
6.15917e-07
6.16027e-07
6.1576e-07
6.15174e-07
6.14363e-07
6.13518e-07
6.12809e-07
6.12362e-07
6.12198e-07
6.12348e-07
6.12798e-07
6.13431e-07
6.13943e-07
6.14743e-07
6.15604e-07
6.16329e-07
6.16868e-07
6.17253e-07
6.17594e-07
6.17995e-07
6.18569e-07
6.19443e-07
6.20726e-07
6.2248e-07
6.24706e-07
6.2735e-07
6.30297e-07
6.33364e-07
6.36302e-07
6.38865e-07
6.40783e-07
6.41819e-07
6.41948e-07
6.4172e-07
6.41094e-07
6.40071e-07
6.38986e-07
6.37971e-07
6.3709e-07
6.36362e-07
6.35775e-07
6.35316e-07
6.34977e-07
6.34736e-07
6.34586e-07
6.34543e-07
6.34565e-07
6.3464e-07
6.34748e-07
6.34836e-07
6.34919e-07
6.35012e-07
6.35127e-07
6.35266e-07
6.35426e-07
6.35596e-07
6.35735e-07
6.35793e-07
6.35671e-07
6.35323e-07
6.34796e-07
6.34404e-07
6.34913e-07
6.3625e-07
6.3822e-07
6.40587e-07
6.43448e-07
6.46892e-07
6.50731e-07
6.5474e-07
6.58665e-07
6.622e-07
6.65158e-07
6.67395e-07
6.6882e-07
6.69475e-07
6.6949e-07
6.69009e-07
6.68206e-07
6.67272e-07
6.66236e-07
6.64986e-07
6.63366e-07
6.61539e-07
6.59592e-07
6.57331e-07
6.54804e-07
6.5233e-07
6.50046e-07
6.48117e-07
6.46654e-07
6.45675e-07
6.45141e-07
6.4491e-07
6.44822e-07
6.44737e-07
6.44381e-07
6.43623e-07
6.42587e-07
6.41379e-07
6.4007e-07
6.38711e-07
6.37599e-07
6.36876e-07
6.36536e-07
6.36575e-07
6.3694e-07
6.37563e-07
6.38457e-07
6.39757e-07
6.41429e-07
6.43359e-07
6.45354e-07
6.47279e-07
6.49008e-07
6.50394e-07
6.51352e-07
6.51825e-07
6.51816e-07
6.51324e-07
6.50344e-07
6.48997e-07
6.47594e-07
6.46133e-07
6.44617e-07
6.43149e-07
6.41847e-07
6.40723e-07
6.39769e-07
6.38975e-07
6.38302e-07
6.3771e-07
6.37261e-07
6.37072e-07
6.37068e-07
6.37008e-07
6.36947e-07
1.78271e-07
1.90816e-07
2.28309e-07
2.91954e-07
3.58587e-07
3.93207e-07
4.06576e-07
4.084e-07
4.03134e-07
3.91534e-07
3.77085e-07
3.61581e-07
3.45644e-07
3.29841e-07
3.14669e-07
3.00526e-07
2.87819e-07
2.76916e-07
2.68078e-07
2.61428e-07
2.56945e-07
2.54452e-07
2.53604e-07
2.54099e-07
2.55336e-07
2.56799e-07
2.58281e-07
2.59618e-07
2.60718e-07
2.61596e-07
2.62363e-07
2.63183e-07
2.64195e-07
2.65628e-07
2.67651e-07
2.70369e-07
2.73798e-07
2.77873e-07
2.82433e-07
2.87261e-07
2.92098e-07
2.96701e-07
3.0087e-07
3.04486e-07
3.0759e-07
3.10318e-07
3.12937e-07
3.1577e-07
3.19167e-07
3.23436e-07
3.28789e-07
3.35315e-07
3.42965e-07
3.51509e-07
3.60512e-07
3.69292e-07
3.77125e-07
3.83303e-07
3.87231e-07
3.88584e-07
3.87395e-07
3.83554e-07
3.77546e-07
3.69992e-07
3.61461e-07
3.52502e-07
3.43602e-07
3.35076e-07
3.27118e-07
3.19833e-07
3.13246e-07
3.0732e-07
3.01986e-07
2.97228e-07
2.92994e-07
2.89223e-07
2.85832e-07
2.82715e-07
2.79747e-07
2.76807e-07
2.73785e-07
2.70623e-07
2.67333e-07
2.64014e-07
2.60839e-07
2.58063e-07
2.56024e-07
2.54977e-07
2.55251e-07
2.56614e-07
2.59194e-07
2.63119e-07
2.68462e-07
2.75206e-07
2.83207e-07
2.92203e-07
3.01795e-07
3.11446e-07
3.20654e-07
3.28993e-07
3.36202e-07
3.42196e-07
3.47101e-07
3.51193e-07
3.54785e-07
3.58134e-07
3.61385e-07
3.64492e-07
3.6718e-07
3.68998e-07
3.69394e-07
3.67863e-07
3.6383e-07
3.57272e-07
3.48429e-07
3.37753e-07
3.25882e-07
3.13578e-07
3.01556e-07
2.90338e-07
2.80385e-07
2.7197e-07
2.65192e-07
2.60012e-07
2.56291e-07
2.53839e-07
2.52466e-07
2.51973e-07
2.52307e-07
2.53224e-07
2.5461e-07
2.56522e-07
2.59033e-07
2.62232e-07
2.66195e-07
2.7094e-07
2.76426e-07
2.82555e-07
2.89142e-07
2.95937e-07
3.02683e-07
3.09112e-07
3.14975e-07
3.20089e-07
3.24314e-07
3.27571e-07
3.29881e-07
3.31304e-07
3.31895e-07
3.31654e-07
3.30562e-07
3.28634e-07
3.25837e-07
3.22133e-07
3.17526e-07
3.1197e-07
3.05492e-07
2.98229e-07
2.90435e-07
2.82467e-07
2.74675e-07
2.67373e-07
2.60948e-07
2.55733e-07
5.69165e-08
6.1849e-08
7.89715e-08
1.1325e-07
1.58436e-07
1.86321e-07
1.97666e-07
1.99664e-07
1.96179e-07
1.88105e-07
1.78173e-07
1.67941e-07
1.57909e-07
1.4847e-07
1.39956e-07
1.32556e-07
1.26366e-07
1.21402e-07
1.17611e-07
1.14891e-07
1.13111e-07
1.12125e-07
1.11764e-07
1.11902e-07
1.12316e-07
1.1282e-07
1.13337e-07
1.13812e-07
1.14222e-07
1.1458e-07
1.14915e-07
1.1528e-07
1.1576e-07
1.16436e-07
1.17371e-07
1.18604e-07
1.20144e-07
1.21975e-07
1.24042e-07
1.26259e-07
1.28517e-07
1.30702e-07
1.32714e-07
1.34491e-07
1.36044e-07
1.37433e-07
1.38776e-07
1.40223e-07
1.41944e-07
1.44092e-07
1.46786e-07
1.50091e-07
1.54006e-07
1.58439e-07
1.6319e-07
1.67919e-07
1.72212e-07
1.75663e-07
1.77907e-07
1.78729e-07
1.77952e-07
1.75441e-07
1.71566e-07
1.66807e-07
1.61596e-07
1.5631e-07
1.51234e-07
1.46532e-07
1.42297e-07
1.38557e-07
1.3529e-07
1.32447e-07
1.29964e-07
1.27806e-07
1.25923e-07
1.24268e-07
1.22796e-07
1.21456e-07
1.20191e-07
1.1895e-07
1.1769e-07
1.1639e-07
1.15057e-07
1.1373e-07
1.12477e-07
1.11397e-07
1.10606e-07
1.10194e-07
1.10262e-07
1.10712e-07
1.11593e-07
1.12964e-07
1.14872e-07
1.17346e-07
1.20366e-07
1.23866e-07
1.27717e-07
1.31704e-07
1.35615e-07
1.3925e-07
1.42473e-07
1.45233e-07
1.47582e-07
1.49646e-07
1.51561e-07
1.53433e-07
1.55314e-07
1.57178e-07
1.58885e-07
1.60204e-07
1.6075e-07
1.60185e-07
1.58154e-07
1.54645e-07
1.49889e-07
1.44256e-07
1.38202e-07
1.32206e-07
1.26639e-07
1.2172e-07
1.17597e-07
1.14296e-07
1.11773e-07
1.09938e-07
1.08686e-07
1.07912e-07
1.07527e-07
1.07456e-07
1.07683e-07
1.08113e-07
1.08708e-07
1.09489e-07
1.10487e-07
1.11745e-07
1.13305e-07
1.15188e-07
1.17389e-07
1.19887e-07
1.22621e-07
1.25498e-07
1.2842e-07
1.3127e-07
1.33933e-07
1.36315e-07
1.38341e-07
1.39961e-07
1.41169e-07
1.4199e-07
1.42437e-07
1.42455e-07
1.42039e-07
1.41191e-07
1.39901e-07
1.38153e-07
1.35958e-07
1.33331e-07
1.30326e-07
1.27044e-07
1.23631e-07
1.2026e-07
1.17084e-07
1.1423e-07
1.11822e-07
1.09929e-07
2.41791e-08
2.64579e-08
3.53328e-08
5.51425e-08
8.49423e-08
1.06873e-07
1.161e-07
1.18411e-07
1.17162e-07
1.1309e-07
1.07829e-07
1.02596e-07
9.76832e-08
9.32841e-08
8.95317e-08
8.6465e-08
8.40578e-08
8.22421e-08
8.09322e-08
8.00373e-08
7.94725e-08
7.91643e-08
7.9047e-08
7.90754e-08
7.91799e-08
7.93073e-08
7.94394e-08
7.95614e-08
7.96704e-08
7.97783e-08
7.98855e-08
8.00078e-08
8.01794e-08
8.04253e-08
8.07636e-08
8.12067e-08
8.17606e-08
8.24236e-08
8.3183e-08
8.40133e-08
8.48759e-08
8.57274e-08
8.65255e-08
8.72405e-08
8.78739e-08
8.8449e-08
8.90133e-08
8.96283e-08
9.03642e-08
9.12881e-08
9.2456e-08
9.39046e-08
9.56438e-08
9.76443e-08
9.98239e-08
1.02032e-07
1.04062e-07
1.05703e-07
1.06761e-07
1.07116e-07
1.0666e-07
1.05331e-07
1.03349e-07
1.00983e-07
9.84683e-08
9.59997e-08
9.36973e-08
9.16304e-08
8.98278e-08
8.82852e-08
8.69788e-08
8.58749e-08
8.4938e-08
8.41439e-08
8.34659e-08
8.28804e-08
8.2367e-08
8.1906e-08
8.14762e-08
8.10586e-08
8.06397e-08
8.0215e-08
7.97889e-08
7.93741e-08
7.89936e-08
7.86777e-08
7.84593e-08
7.83605e-08
7.84059e-08
7.85433e-08
7.87884e-08
7.91642e-08
7.96985e-08
8.04205e-08
8.13479e-08
8.24799e-08
8.37886e-08
8.52014e-08
8.66358e-08
8.8012e-08
8.92655e-08
9.03634e-08
9.13209e-08
9.21841e-08
9.30075e-08
9.38308e-08
9.46751e-08
9.5529e-08
9.63271e-08
9.6962e-08
9.72512e-08
9.70297e-08
9.61367e-08
9.45741e-08
9.2485e-08
9.00743e-08
8.75742e-08
8.52047e-08
8.31093e-08
8.13498e-08
7.99504e-08
7.88889e-08
7.81166e-08
7.75803e-08
7.72301e-08
7.7025e-08
7.69337e-08
7.69354e-08
7.70243e-08
7.71729e-08
7.73707e-08
7.76234e-08
7.79408e-08
7.83417e-08
7.88439e-08
7.94619e-08
8.02028e-08
8.10681e-08
8.20435e-08
8.30974e-08
8.41973e-08
8.53e-08
8.63519e-08
8.73089e-08
8.81317e-08
8.8794e-08
8.92914e-08
8.96315e-08
8.98167e-08
8.9823e-08
8.96502e-08
8.93031e-08
8.87796e-08
8.80694e-08
8.71848e-08
8.61479e-08
8.49937e-08
8.37655e-08
8.25129e-08
8.13041e-08
8.02069e-08
7.92647e-08
7.85072e-08
7.7926e-08
1.46119e-08
1.59129e-08
2.15414e-08
3.51598e-08
5.73698e-08
7.62014e-08
8.47482e-08
8.73295e-08
8.72218e-08
8.5468e-08
8.28347e-08
8.02501e-08
7.79279e-08
7.59607e-08
7.4399e-08
7.32308e-08
7.24003e-08
7.18491e-08
7.15064e-08
7.13092e-08
7.12047e-08
7.11547e-08
7.11349e-08
7.11311e-08
7.11288e-08
7.1122e-08
7.11142e-08
7.11082e-08
7.11067e-08
7.11229e-08
7.11523e-08
7.11907e-08
7.12543e-08
7.13449e-08
7.14658e-08
7.16163e-08
7.17975e-08
7.2011e-08
7.22563e-08
7.253e-08
7.28234e-08
7.31232e-08
7.34155e-08
7.36882e-08
7.39406e-08
7.4182e-08
7.44297e-08
7.47068e-08
7.50397e-08
7.54541e-08
7.59726e-08
7.66125e-08
7.73818e-08
7.82727e-08
7.92519e-08
8.02528e-08
8.11763e-08
8.19187e-08
8.2381e-08
8.25043e-08
8.22268e-08
8.15235e-08
8.05279e-08
7.93802e-08
7.82057e-08
7.7095e-08
7.60987e-08
7.52425e-08
7.45298e-08
7.39508e-08
7.34863e-08
7.31157e-08
7.28181e-08
7.25813e-08
7.23915e-08
7.2235e-08
7.21031e-08
7.19902e-08
7.18875e-08
7.17897e-08
7.1694e-08
7.16013e-08
7.15151e-08
7.14404e-08
7.13844e-08
7.13532e-08
7.13546e-08
7.13882e-08
7.14437e-08
7.14939e-08
7.15388e-08
7.1585e-08
7.16481e-08
7.17522e-08
7.19213e-08
7.21771e-08
7.25268e-08
7.29485e-08
7.34054e-08
7.3868e-08
7.43091e-08
7.47126e-08
7.50787e-08
7.54224e-08
7.57609e-08
7.61081e-08
7.64732e-08
7.68477e-08
7.72013e-08
7.7484e-08
7.76113e-08
7.75062e-08
7.70943e-08
7.63863e-08
7.5462e-08
7.44328e-08
7.34135e-08
7.25014e-08
7.17507e-08
7.11704e-08
7.07514e-08
7.04732e-08
7.02992e-08
7.01973e-08
7.01429e-08
7.01197e-08
7.01196e-08
7.01397e-08
7.01777e-08
7.02293e-08
7.02927e-08
7.03673e-08
7.04539e-08
7.05612e-08
7.0696e-08
7.0866e-08
7.10777e-08
7.13381e-08
7.16486e-08
7.19991e-08
7.23823e-08
7.27841e-08
7.31762e-08
7.35367e-08
7.3847e-08
7.40965e-08
7.42833e-08
7.44066e-08
7.44699e-08
7.44628e-08
7.43847e-08
7.42377e-08
7.40199e-08
7.37248e-08
7.33709e-08
7.29689e-08
7.25394e-08
7.20926e-08
7.16507e-08
7.12502e-08
7.09204e-08
7.06661e-08
7.04874e-08
7.03616e-08
1.14816e-08
1.2395e-08
1.66608e-08
2.75519e-08
4.62217e-08
6.3765e-08
7.22665e-08
7.52533e-08
7.57065e-08
7.51033e-08
7.38032e-08
7.24829e-08
7.13509e-08
7.04329e-08
6.97765e-08
6.93586e-08
6.91347e-08
6.90535e-08
6.90696e-08
6.91327e-08
6.91993e-08
6.92432e-08
6.92573e-08
6.92412e-08
6.91978e-08
6.9138e-08
6.90743e-08
6.9017e-08
6.89749e-08
6.89533e-08
6.89547e-08
6.89738e-08
6.90129e-08
6.9063e-08
6.9122e-08
6.91836e-08
6.92438e-08
6.93043e-08
6.93675e-08
6.94369e-08
6.95162e-08
6.96035e-08
6.96991e-08
6.98016e-08
6.99118e-08
7.00343e-08
7.01737e-08
7.03363e-08
7.0529e-08
7.07581e-08
7.10292e-08
7.13474e-08
7.17175e-08
7.21391e-08
7.26008e-08
7.30719e-08
7.3501e-08
7.38305e-08
7.40061e-08
7.40031e-08
7.37869e-08
7.33696e-08
7.28191e-08
7.2222e-08
7.16429e-08
7.11217e-08
7.06845e-08
7.03355e-08
7.00725e-08
6.98821e-08
6.97518e-08
6.96673e-08
6.96172e-08
6.95944e-08
6.95921e-08
6.96018e-08
6.96121e-08
6.96256e-08
6.96372e-08
6.96487e-08
6.96619e-08
6.9678e-08
6.97024e-08
6.97382e-08
6.97876e-08
6.98535e-08
6.99368e-08
7.00226e-08
7.00975e-08
7.01382e-08
7.01365e-08
7.0088e-08
7.00014e-08
6.98965e-08
6.97963e-08
6.97262e-08
6.97062e-08
6.97481e-08
6.98345e-08
6.99483e-08
7.00729e-08
7.01999e-08
7.03268e-08
7.04569e-08
7.0595e-08
7.0747e-08
7.09148e-08
7.10896e-08
7.1252e-08
7.13746e-08
7.14164e-08
7.13413e-08
7.11081e-08
7.0731e-08
7.02624e-08
6.97646e-08
6.93001e-08
6.89203e-08
6.86469e-08
6.84734e-08
6.83835e-08
6.83634e-08
6.83868e-08
6.84267e-08
6.84682e-08
6.85049e-08
6.85352e-08
6.85628e-08
6.85892e-08
6.86163e-08
6.86446e-08
6.86722e-08
6.86954e-08
6.87171e-08
6.87433e-08
6.8773e-08
6.88104e-08
6.8865e-08
6.89437e-08
6.90439e-08
6.91642e-08
6.93017e-08
6.94389e-08
6.95654e-08
6.96743e-08
6.97598e-08
6.98186e-08
6.98518e-08
6.98631e-08
6.98474e-08
6.98012e-08
6.97231e-08
6.96075e-08
6.94584e-08
6.92903e-08
6.91142e-08
6.89301e-08
6.87532e-08
6.85942e-08
6.84831e-08
6.84229e-08
6.84082e-08
6.84279e-08
6.84604e-08
1.02462e-08
1.09804e-08
1.45738e-08
2.40933e-08
4.09646e-08
5.82999e-08
6.70814e-08
7.05693e-08
7.13331e-08
7.1184e-08
7.05417e-08
6.97716e-08
6.91623e-08
6.86633e-08
6.83807e-08
6.82456e-08
6.82337e-08
6.83149e-08
6.84579e-08
6.86228e-08
6.87631e-08
6.88464e-08
6.88746e-08
6.88509e-08
6.87872e-08
6.87006e-08
6.8608e-08
6.85231e-08
6.84581e-08
6.84212e-08
6.84136e-08
6.84352e-08
6.8478e-08
6.8531e-08
6.85867e-08
6.86378e-08
6.86749e-08
6.86974e-08
6.8708e-08
6.87119e-08
6.8719e-08
6.87305e-08
6.87549e-08
6.87982e-08
6.88631e-08
6.89541e-08
6.90722e-08
6.92146e-08
6.93791e-08
6.95606e-08
6.97533e-08
6.99532e-08
7.01593e-08
7.03712e-08
7.05869e-08
7.07977e-08
7.09832e-08
7.11117e-08
7.11509e-08
7.10823e-08
7.08873e-08
7.05942e-08
7.02402e-08
6.98728e-08
6.9534e-08
6.92538e-08
6.9033e-08
6.88785e-08
6.87798e-08
6.87347e-08
6.87232e-08
6.87461e-08
6.87855e-08
6.88495e-08
6.89216e-08
6.89995e-08
6.90625e-08
6.91217e-08
6.91707e-08
6.92151e-08
6.92595e-08
6.93059e-08
6.93625e-08
6.94318e-08
6.95144e-08
6.96138e-08
6.97318e-08
6.98523e-08
6.99583e-08
7.00201e-08
7.00273e-08
6.99689e-08
6.9849e-08
6.96855e-08
6.95025e-08
6.93226e-08
6.91573e-08
6.90207e-08
6.89311e-08
6.88919e-08
6.88869e-08
6.8906e-08
6.89438e-08
6.89947e-08
6.90596e-08
6.91398e-08
6.92321e-08
6.9326e-08
6.94031e-08
6.94539e-08
6.94541e-08
6.93741e-08
6.91944e-08
6.89315e-08
6.86245e-08
6.83147e-08
6.80468e-08
6.78525e-08
6.77397e-08
6.76988e-08
6.77167e-08
6.77838e-08
6.78736e-08
6.79616e-08
6.80364e-08
6.80946e-08
6.81376e-08
6.8171e-08
6.81999e-08
6.82275e-08
6.82519e-08
6.82776e-08
6.82948e-08
6.83026e-08
6.83095e-08
6.83051e-08
6.82914e-08
6.82829e-08
6.82859e-08
6.82969e-08
6.83194e-08
6.83581e-08
6.83994e-08
6.84378e-08
6.84708e-08
6.84928e-08
6.84999e-08
6.84959e-08
6.84844e-08
6.84631e-08
6.84271e-08
6.83727e-08
6.82941e-08
6.81975e-08
6.80968e-08
6.80035e-08
6.79096e-08
6.78172e-08
6.77339e-08
6.769e-08
6.77242e-08
6.77913e-08
6.78858e-08
6.7976e-08
9.58786e-09
1.02177e-08
1.33839e-08
2.20262e-08
3.78098e-08
5.53542e-08
6.47039e-08
6.86291e-08
6.97062e-08
6.97119e-08
6.93103e-08
6.87834e-08
6.83601e-08
6.7993e-08
6.78039e-08
6.77385e-08
6.77953e-08
6.7953e-08
6.81694e-08
6.8396e-08
6.85802e-08
6.87006e-08
6.876e-08
6.87414e-08
6.86682e-08
6.85625e-08
6.84462e-08
6.83374e-08
6.82528e-08
6.82038e-08
6.81929e-08
6.82206e-08
6.82783e-08
6.83523e-08
6.8431e-08
6.85047e-08
6.85641e-08
6.86019e-08
6.86167e-08
6.86139e-08
6.86041e-08
6.85968e-08
6.86014e-08
6.86284e-08
6.8686e-08
6.87774e-08
6.89042e-08
6.90636e-08
6.92464e-08
6.94402e-08
6.96307e-08
6.98091e-08
6.99738e-08
7.01196e-08
7.02411e-08
7.03332e-08
7.03868e-08
7.03895e-08
7.03257e-08
7.01825e-08
6.99563e-08
6.96782e-08
6.93753e-08
6.90781e-08
6.88179e-08
6.86125e-08
6.84706e-08
6.83964e-08
6.83692e-08
6.84015e-08
6.84602e-08
6.8556e-08
6.86523e-08
6.87787e-08
6.8898e-08
6.90204e-08
6.91206e-08
6.92127e-08
6.9289e-08
6.93581e-08
6.94239e-08
6.94936e-08
6.95793e-08
6.96842e-08
6.98043e-08
6.99441e-08
7.01097e-08
7.02872e-08
7.04514e-08
7.05563e-08
7.05844e-08
7.05149e-08
7.03423e-08
7.00913e-08
6.98047e-08
6.95169e-08
6.92375e-08
6.8999e-08
6.8812e-08
6.86813e-08
6.85985e-08
6.8552e-08
6.85413e-08
6.85515e-08
6.85837e-08
6.86397e-08
6.87145e-08
6.87935e-08
6.88493e-08
6.88661e-08
6.88318e-08
6.87401e-08
6.85701e-08
6.83363e-08
6.807e-08
6.78067e-08
6.7588e-08
6.74397e-08
6.73686e-08
6.73649e-08
6.74176e-08
6.7514e-08
6.76279e-08
6.77355e-08
6.7825e-08
6.78939e-08
6.79451e-08
6.7983e-08
6.80152e-08
6.8052e-08
6.80863e-08
6.81234e-08
6.81563e-08
6.81828e-08
6.82e-08
6.82024e-08
6.81839e-08
6.81684e-08
6.81551e-08
6.81343e-08
6.81162e-08
6.81155e-08
6.81136e-08
6.81117e-08
6.81078e-08
6.80997e-08
6.80838e-08
6.80617e-08
6.80374e-08
6.80066e-08
6.79651e-08
6.79053e-08
6.78295e-08
6.77333e-08
6.76374e-08
6.75448e-08
6.74517e-08
6.73711e-08
6.73284e-08
6.73561e-08
6.74097e-08
6.74975e-08
6.76175e-08
6.77308e-08
9.09447e-09
9.64908e-09
1.24789e-08
2.04066e-08
3.53148e-08
5.3136e-08
6.32441e-08
6.76211e-08
6.89951e-08
6.9088e-08
6.87886e-08
6.83238e-08
6.79231e-08
6.75817e-08
6.73994e-08
6.7352e-08
6.74308e-08
6.7609e-08
6.78462e-08
6.80912e-08
6.83156e-08
6.84967e-08
6.85859e-08
6.85874e-08
6.85091e-08
6.83831e-08
6.82404e-08
6.81057e-08
6.79989e-08
6.79333e-08
6.79117e-08
6.79386e-08
6.80072e-08
6.81109e-08
6.82336e-08
6.83537e-08
6.8458e-08
6.85363e-08
6.85825e-08
6.85981e-08
6.85913e-08
6.85889e-08
6.85962e-08
6.86147e-08
6.86719e-08
6.87832e-08
6.89546e-08
6.91856e-08
6.94677e-08
6.97761e-08
7.00716e-08
7.0316e-08
7.04858e-08
7.05856e-08
7.06293e-08
7.06226e-08
7.05632e-08
7.04522e-08
7.02863e-08
7.0054e-08
6.9764e-08
6.94425e-08
6.91157e-08
6.88163e-08
6.85689e-08
6.83858e-08
6.82788e-08
6.82518e-08
6.82734e-08
6.83664e-08
6.84927e-08
6.86398e-08
6.87839e-08
6.89755e-08
6.9159e-08
6.93523e-08
6.95235e-08
6.96786e-08
6.98189e-08
6.99473e-08
7.00719e-08
7.02031e-08
7.03522e-08
7.05198e-08
7.07024e-08
7.09018e-08
7.11184e-08
7.13389e-08
7.15365e-08
7.16723e-08
7.17155e-08
7.16414e-08
7.14341e-08
7.11041e-08
7.0682e-08
7.02404e-08
6.98081e-08
6.94103e-08
6.90731e-08
6.88207e-08
6.86467e-08
6.85365e-08
6.84724e-08
6.8449e-08
6.84567e-08
6.84956e-08
6.85594e-08
6.86258e-08
6.86705e-08
6.86799e-08
6.8635e-08
6.8519e-08
6.83252e-08
6.80617e-08
6.77657e-08
6.74778e-08
6.7241e-08
6.70836e-08
6.70154e-08
6.70251e-08
6.70966e-08
6.72123e-08
6.73447e-08
6.74705e-08
6.75742e-08
6.76501e-08
6.7706e-08
6.77482e-08
6.77897e-08
6.78391e-08
6.78867e-08
6.79458e-08
6.80065e-08
6.80698e-08
6.81082e-08
6.81283e-08
6.81226e-08
6.81176e-08
6.8106e-08
6.80747e-08
6.8037e-08
6.8009e-08
6.79814e-08
6.79528e-08
6.79264e-08
6.78987e-08
6.78651e-08
6.78251e-08
6.77856e-08
6.77426e-08
6.7693e-08
6.76236e-08
6.75413e-08
6.7437e-08
6.73383e-08
6.72394e-08
6.71565e-08
6.70767e-08
6.70356e-08
6.70622e-08
6.71175e-08
6.7209e-08
6.73374e-08
6.74608e-08
8.6378e-09
9.12512e-09
1.16409e-08
1.88917e-08
3.29805e-08
5.10221e-08
6.20281e-08
6.68944e-08
6.85577e-08
6.87032e-08
6.84416e-08
6.7959e-08
6.75138e-08
6.71574e-08
6.69372e-08
6.68416e-08
6.68459e-08
6.69464e-08
6.71342e-08
6.736e-08
6.75965e-08
6.77919e-08
6.79142e-08
6.79548e-08
6.79062e-08
6.77896e-08
6.76396e-08
6.74869e-08
6.73534e-08
6.72564e-08
6.7208e-08
6.72328e-08
6.73096e-08
6.74333e-08
6.7592e-08
6.77716e-08
6.79501e-08
6.81087e-08
6.82312e-08
6.83106e-08
6.83546e-08
6.83702e-08
6.83823e-08
6.84138e-08
6.84877e-08
6.86259e-08
6.88415e-08
6.9135e-08
6.94947e-08
6.99038e-08
7.03327e-08
7.07295e-08
7.10303e-08
7.11993e-08
7.1239e-08
7.11642e-08
7.09918e-08
7.07615e-08
7.04802e-08
7.01492e-08
6.97821e-08
6.93914e-08
6.90064e-08
6.86701e-08
6.84044e-08
6.82193e-08
6.81234e-08
6.81184e-08
6.81691e-08
6.82899e-08
6.84367e-08
6.86414e-08
6.88789e-08
6.91395e-08
6.93953e-08
6.96492e-08
6.98904e-08
7.01164e-08
7.03233e-08
7.05088e-08
7.06762e-08
7.08335e-08
7.09909e-08
7.11552e-08
7.13328e-08
7.15313e-08
7.17505e-08
7.19824e-08
7.21971e-08
7.23718e-08
7.24665e-08
7.24587e-08
7.23141e-08
7.20263e-08
7.15929e-08
7.10666e-08
7.05188e-08
6.99923e-08
6.95225e-08
6.91284e-08
6.88265e-08
6.86091e-08
6.84729e-08
6.83987e-08
6.83785e-08
6.8399e-08
6.84606e-08
6.85399e-08
6.85988e-08
6.86079e-08
6.85463e-08
6.83901e-08
6.81551e-08
6.78401e-08
6.74863e-08
6.71483e-08
6.68692e-08
6.66772e-08
6.65838e-08
6.65779e-08
6.66412e-08
6.67513e-08
6.68837e-08
6.70147e-08
6.71224e-08
6.71967e-08
6.72476e-08
6.72862e-08
6.73288e-08
6.73928e-08
6.7481e-08
6.7584e-08
6.76909e-08
6.77921e-08
6.78852e-08
6.79557e-08
6.7995e-08
6.80143e-08
6.80122e-08
6.79805e-08
6.79351e-08
6.78928e-08
6.78455e-08
6.77938e-08
6.77462e-08
6.7699e-08
6.76483e-08
6.75928e-08
6.75387e-08
6.74838e-08
6.74219e-08
6.73415e-08
6.72465e-08
6.71301e-08
6.70226e-08
6.69103e-08
6.68263e-08
6.67386e-08
6.66768e-08
6.66701e-08
6.66897e-08
6.67404e-08
6.68375e-08
6.69477e-08
8.19473e-09
8.62309e-09
1.08434e-08
1.74171e-08
3.06366e-08
4.87179e-08
6.06957e-08
6.61124e-08
6.8073e-08
6.83021e-08
6.80608e-08
6.75356e-08
6.69907e-08
6.6523e-08
6.61274e-08
6.57959e-08
6.55393e-08
6.53857e-08
6.53269e-08
6.54153e-08
6.56011e-08
6.58218e-08
6.60249e-08
6.61684e-08
6.6234e-08
6.61931e-08
6.60757e-08
6.59238e-08
6.57714e-08
6.56434e-08
6.55575e-08
6.55172e-08
6.55541e-08
6.56737e-08
6.58806e-08
6.61613e-08
6.64833e-08
6.68052e-08
6.70924e-08
6.73265e-08
6.74924e-08
6.76031e-08
6.76773e-08
6.77468e-08
6.78526e-08
6.80321e-08
6.83114e-08
6.87002e-08
6.91885e-08
6.97457e-08
7.03201e-08
7.08542e-08
7.131e-08
7.16264e-08
7.17474e-08
7.16806e-08
7.1443e-08
7.10984e-08
7.06956e-08
7.02594e-08
6.98046e-08
6.93356e-08
6.88842e-08
6.84982e-08
6.81995e-08
6.79959e-08
6.78915e-08
6.78829e-08
6.79375e-08
6.80612e-08
6.82234e-08
6.84446e-08
6.86837e-08
6.89395e-08
6.91965e-08
6.94537e-08
6.97028e-08
6.99367e-08
7.01486e-08
7.03347e-08
7.04952e-08
7.0635e-08
7.07638e-08
7.0894e-08
7.10453e-08
7.12318e-08
7.14515e-08
7.17113e-08
7.19771e-08
7.22474e-08
7.24688e-08
7.25989e-08
7.25987e-08
7.24449e-08
7.21279e-08
7.16494e-08
7.10612e-08
7.04335e-08
6.9843e-08
6.93324e-08
6.89266e-08
6.86306e-08
6.84122e-08
6.82945e-08
6.82568e-08
6.82813e-08
6.83621e-08
6.84641e-08
6.854e-08
6.85513e-08
6.84701e-08
6.82668e-08
6.79757e-08
6.7592e-08
6.7155e-08
6.67325e-08
6.63708e-08
6.60932e-08
6.59188e-08
6.58351e-08
6.58203e-08
6.58589e-08
6.59308e-08
6.60144e-08
6.60817e-08
6.61261e-08
6.61533e-08
6.61769e-08
6.62248e-08
6.63175e-08
6.64597e-08
6.66397e-08
6.68345e-08
6.7038e-08
6.72393e-08
6.74176e-08
6.75572e-08
6.76605e-08
6.77162e-08
6.77223e-08
6.76988e-08
6.76633e-08
6.76101e-08
6.75441e-08
6.74747e-08
6.74062e-08
6.73351e-08
6.72595e-08
6.71831e-08
6.71085e-08
6.70288e-08
6.69328e-08
6.68178e-08
6.66794e-08
6.65486e-08
6.64118e-08
6.63026e-08
6.61841e-08
6.60645e-08
6.59788e-08
6.59194e-08
6.58927e-08
6.59087e-08
6.59356e-08
7.72192e-09
8.09848e-09
1.00412e-08
1.59489e-08
2.82678e-08
4.61949e-08
5.92237e-08
6.52533e-08
6.75192e-08
6.78175e-08
6.75529e-08
6.68845e-08
6.60741e-08
6.52697e-08
6.44375e-08
6.35294e-08
6.26232e-08
6.18125e-08
6.12068e-08
6.09041e-08
6.09066e-08
6.11616e-08
6.15527e-08
6.19831e-08
6.23516e-08
6.25784e-08
6.26529e-08
6.25811e-08
6.24176e-08
6.22031e-08
6.19811e-08
6.18008e-08
6.17037e-08
6.17581e-08
6.20055e-08
6.24498e-08
6.30467e-08
6.37097e-08
6.43498e-08
6.48953e-08
6.5331e-08
6.56535e-08
6.58767e-08
6.60454e-08
6.62198e-08
6.64647e-08
6.68368e-08
6.73691e-08
6.80696e-08
6.89073e-08
6.98005e-08
7.06297e-08
7.12987e-08
7.1764e-08
7.20046e-08
7.20077e-08
7.17668e-08
7.13358e-08
7.08273e-08
7.02888e-08
6.9744e-08
6.91823e-08
6.86441e-08
6.81781e-08
6.78082e-08
6.75413e-08
6.73784e-08
6.73115e-08
6.73124e-08
6.73726e-08
6.74749e-08
6.76246e-08
6.77939e-08
6.7968e-08
6.81416e-08
6.83174e-08
6.84894e-08
6.86485e-08
6.8789e-08
6.89022e-08
6.89751e-08
6.90006e-08
6.89864e-08
6.89559e-08
6.89412e-08
6.89356e-08
6.89401e-08
6.90706e-08
6.93752e-08
6.9927e-08
7.06512e-08
7.13758e-08
7.1942e-08
7.22388e-08
7.21849e-08
7.18461e-08
7.13203e-08
7.06827e-08
7.0007e-08
6.94237e-08
6.8925e-08
6.85223e-08
6.82407e-08
6.80798e-08
6.80281e-08
6.80633e-08
6.81762e-08
6.83153e-08
6.84157e-08
6.84342e-08
6.83346e-08
6.80805e-08
6.77061e-08
6.72237e-08
6.66589e-08
6.60901e-08
6.55672e-08
6.51052e-08
6.47281e-08
6.44264e-08
6.41906e-08
6.40071e-08
6.38847e-08
6.38133e-08
6.37709e-08
6.3733e-08
6.37028e-08
6.37009e-08
6.37678e-08
6.39134e-08
6.41498e-08
6.44595e-08
6.48165e-08
6.5208e-08
6.56159e-08
6.60064e-08
6.63526e-08
6.66406e-08
6.6852e-08
6.69815e-08
6.70537e-08
6.70847e-08
6.70691e-08
6.70162e-08
6.69376e-08
6.68494e-08
6.6755e-08
6.66535e-08
6.65459e-08
6.64392e-08
6.63301e-08
6.62075e-08
6.60608e-08
6.58837e-08
6.57066e-08
6.55195e-08
6.5346e-08
6.51495e-08
6.49188e-08
6.4683e-08
6.44495e-08
6.42228e-08
6.40135e-08
6.38234e-08
7.23397e-09
7.56301e-09
9.23766e-09
1.44654e-08
2.58215e-08
4.33544e-08
5.74437e-08
6.41378e-08
6.66398e-08
6.69722e-08
6.65812e-08
6.55857e-08
6.42891e-08
6.28129e-08
6.10219e-08
5.88966e-08
5.65775e-08
5.43336e-08
5.24895e-08
5.12973e-08
5.08036e-08
5.10417e-08
5.18589e-08
5.30317e-08
5.42056e-08
5.51231e-08
5.56689e-08
5.58759e-08
5.57776e-08
5.54501e-08
5.49807e-08
5.44902e-08
5.41176e-08
5.39938e-08
5.42813e-08
5.50179e-08
5.61377e-08
5.74679e-08
5.88148e-08
6.00209e-08
6.09942e-08
6.1721e-08
6.22261e-08
6.25732e-08
6.28473e-08
6.31503e-08
6.359e-08
6.42661e-08
6.52415e-08
6.65143e-08
6.79813e-08
6.94444e-08
7.06678e-08
7.15239e-08
7.1983e-08
7.20848e-08
7.18838e-08
7.13991e-08
7.07705e-08
7.01116e-08
6.94483e-08
6.87574e-08
6.80816e-08
6.74682e-08
6.6942e-08
6.6507e-08
6.61582e-08
6.58737e-08
6.56148e-08
6.53737e-08
6.51677e-08
6.50022e-08
6.48452e-08
6.46736e-08
6.44412e-08
6.42123e-08
6.39847e-08
6.37637e-08
6.35628e-08
6.33551e-08
6.30825e-08
6.27016e-08
6.22254e-08
6.16882e-08
6.10525e-08
6.0152e-08
5.92431e-08
5.87122e-08
5.9036e-08
6.03371e-08
6.25635e-08
6.52155e-08
6.77922e-08
6.98606e-08
7.10664e-08
7.14529e-08
7.12426e-08
7.06982e-08
7.00089e-08
6.92822e-08
6.86616e-08
6.81656e-08
6.78198e-08
6.76028e-08
6.75252e-08
6.75671e-08
6.77224e-08
6.79263e-08
6.80786e-08
6.81183e-08
6.80036e-08
6.76908e-08
6.7197e-08
6.65643e-08
6.58025e-08
6.49836e-08
6.41473e-08
6.33038e-08
6.24733e-08
6.16521e-08
6.08504e-08
6.01191e-08
5.95191e-08
5.90709e-08
5.87521e-08
5.8535e-08
5.84046e-08
5.83787e-08
5.85041e-08
5.87886e-08
5.92251e-08
5.9795e-08
6.04779e-08
6.12589e-08
6.21079e-08
6.29572e-08
6.37449e-08
6.44245e-08
6.49633e-08
6.53539e-08
6.56313e-08
6.58177e-08
6.59064e-08
6.59148e-08
6.58587e-08
6.57617e-08
6.56435e-08
6.5508e-08
6.53564e-08
6.51998e-08
6.50403e-08
6.48689e-08
6.46677e-08
6.44236e-08
6.41622e-08
6.38751e-08
6.35747e-08
6.32145e-08
6.27598e-08
6.22228e-08
6.16133e-08
6.09321e-08
6.02132e-08
5.9524e-08
6.72723e-09
7.0265e-09
8.46665e-09
1.30101e-08
2.32817e-08
4.00551e-08
5.51008e-08
6.2462e-08
6.51101e-08
6.54046e-08
6.47188e-08
6.30977e-08
6.08864e-08
5.80731e-08
5.44576e-08
5.00438e-08
4.50755e-08
4.00813e-08
3.56769e-08
3.23743e-08
3.0427e-08
3.0018e-08
3.14727e-08
3.42588e-08
3.73476e-08
4.00324e-08
4.18944e-08
4.28683e-08
4.31034e-08
4.26524e-08
4.17284e-08
4.06177e-08
3.96658e-08
3.91884e-08
3.95468e-08
4.08784e-08
4.30564e-08
4.57419e-08
4.85132e-08
5.1033e-08
5.311e-08
5.4675e-08
5.57633e-08
5.64601e-08
5.68883e-08
5.72181e-08
5.76507e-08
5.83979e-08
5.96426e-08
6.14741e-08
6.37881e-08
6.62663e-08
6.8488e-08
7.0165e-08
7.11836e-08
7.15849e-08
7.15023e-08
7.10003e-08
7.02557e-08
6.94681e-08
6.86561e-08
6.7779e-08
6.68621e-08
6.59556e-08
6.50779e-08
6.42102e-08
6.33227e-08
6.23598e-08
6.12439e-08
6.00397e-08
5.88809e-08
5.77875e-08
5.66905e-08
5.55194e-08
5.41388e-08
5.27929e-08
5.14991e-08
5.03209e-08
4.92967e-08
4.83545e-08
4.73393e-08
4.6135e-08
4.47287e-08
4.30322e-08
4.06964e-08
3.73522e-08
3.40844e-08
3.19241e-08
3.18967e-08
3.42945e-08
3.90972e-08
4.5778e-08
5.34417e-08
6.06722e-08
6.58478e-08
6.87357e-08
6.9872e-08
6.99006e-08
6.93717e-08
6.86417e-08
6.79403e-08
6.73448e-08
6.6875e-08
6.65502e-08
6.64083e-08
6.6441e-08
6.66411e-08
6.69418e-08
6.7195e-08
6.73026e-08
6.72142e-08
6.6862e-08
6.62295e-08
6.53753e-08
6.42997e-08
6.30352e-08
6.15949e-08
5.99439e-08
5.80655e-08
5.59617e-08
5.37336e-08
5.15563e-08
4.96784e-08
4.82459e-08
4.72651e-08
4.66779e-08
4.63837e-08
4.63836e-08
4.67234e-08
4.7376e-08
4.82986e-08
4.94917e-08
5.09482e-08
5.2683e-08
5.46311e-08
5.6628e-08
5.85061e-08
6.013e-08
6.14271e-08
6.23857e-08
6.30659e-08
6.35249e-08
6.37813e-08
6.38751e-08
6.3846e-08
6.3733e-08
6.35732e-08
6.33784e-08
6.31647e-08
6.29326e-08
6.26905e-08
6.24348e-08
6.21416e-08
6.17872e-08
6.13803e-08
6.09002e-08
6.03388e-08
5.96111e-08
5.86405e-08
5.74075e-08
5.58885e-08
5.40804e-08
5.20899e-08
5.01487e-08
6.2844e-09
6.56088e-09
7.86871e-09
1.20072e-08
2.15429e-08
3.76577e-08
5.329e-08
6.10971e-08
6.38175e-08
6.40584e-08
6.31077e-08
6.09471e-08
5.79353e-08
5.3948e-08
4.87787e-08
4.24052e-08
3.51657e-08
2.78628e-08
2.13731e-08
1.61803e-08
1.24714e-08
1.05946e-08
1.13009e-08
1.38636e-08
1.7467e-08
2.11066e-08
2.40604e-08
2.58508e-08
2.64648e-08
2.5988e-08
2.48131e-08
2.33881e-08
2.2166e-08
2.14883e-08
2.17944e-08
2.34092e-08
2.65315e-08
3.09326e-08
3.57488e-08
4.00035e-08
4.34401e-08
4.60282e-08
4.7825e-08
4.89338e-08
4.95155e-08
4.9806e-08
5.01188e-08
5.08215e-08
5.22622e-08
5.46656e-08
5.79699e-08
6.17484e-08
6.5302e-08
6.80973e-08
6.99136e-08
7.0794e-08
7.09368e-08
7.05377e-08
6.97421e-08
6.88476e-08
6.79146e-08
6.68836e-08
6.57608e-08
6.45922e-08
6.33882e-08
6.21083e-08
6.06913e-08
5.90499e-08
5.70721e-08
5.49144e-08
5.28241e-08
5.08355e-08
4.88391e-08
4.67116e-08
4.4265e-08
4.19054e-08
3.96767e-08
3.76913e-08
3.5997e-08
3.44745e-08
3.28909e-08
3.10578e-08
2.88862e-08
2.6096e-08
2.19764e-08
1.66461e-08
1.20566e-08
9.25762e-09
8.42947e-09
9.57306e-09
1.30563e-08
1.93592e-08
2.90461e-08
4.32936e-08
5.55431e-08
6.29581e-08
6.6678e-08
6.80413e-08
6.81572e-08
6.7689e-08
6.70373e-08
6.64255e-08
6.58849e-08
6.54769e-08
6.52943e-08
6.53348e-08
6.55986e-08
6.6008e-08
6.63672e-08
6.65489e-08
6.64937e-08
6.61239e-08
6.53899e-08
6.43566e-08
6.30207e-08
6.1377e-08
5.94052e-08
5.70146e-08
5.4136e-08
5.07394e-08
4.68815e-08
4.26343e-08
3.83364e-08
3.44031e-08
3.12537e-08
2.91326e-08
2.7985e-08
2.7705e-08
2.83141e-08
2.94814e-08
3.10973e-08
3.31955e-08
3.58682e-08
3.92543e-08
4.3212e-08
4.72062e-08
5.09833e-08
5.42528e-08
5.68697e-08
5.88281e-08
6.02318e-08
6.11831e-08
6.17451e-08
6.20049e-08
6.20464e-08
6.19509e-08
6.17689e-08
6.15315e-08
6.12666e-08
6.0972e-08
6.06616e-08
6.03356e-08
5.99662e-08
5.95175e-08
5.89831e-08