/*--------------------------------*- C++ -*----------------------------------*\
| =========                 |                                                 |
| \\      /  F ield         | OpenFOAM: The Open Source CFD Toolbox           |
|  \\    /   O peration     | Version:  v1912                                 |
|   \\  /    A nd           | Website:  www.openfoam.com                      |
|    \\/     M anipulation  |                                                 |
\*---------------------------------------------------------------------------*/
FoamFile
{
    version     2.0;
    format      ascii;
    class       volVectorField;
    location    "40";
    object      U;
}
// * * * * * * * * * * * * * * * * * * * * * * * * * * * * * * * * * * * * * //

dimensions      [0 1 -1 0 0 0 0];


internalField   nonuniform List<vector> 
14268
(
(0.308504 0.0302683 0)
(0.321257 0.0321002 0)
(0.306014 0.0309556 0)
(0.280286 0.0286242 0)
(0.248126 0.0255699 0)
(0.207355 0.0214426 0)
(0.189055 0.0189753 0)
(0.204654 0.019987 0)
(0.23057 0.0222428 0)
(0.272789 0.0268583 0)
(0.255488 0.0263483 0)
(0.201426 0.0220358 0)
(0.0842129 0.0113632 0)
(-0.0736462 -0.00432667 0)
(-0.316246 -0.0371516 0)
(-0.430427 -0.0561654 0)
(-0.489562 -0.0639358 0)
(-0.511873 -0.067721 0)
(-0.505172 -0.0709345 0)
(-0.455886 -0.0703372 0)
(-0.402432 -0.0643471 0)
(-0.351619 -0.0583122 0)
(-0.309474 -0.0501577 0)
(-0.291866 -0.0443365 0)
(-0.305179 -0.0492057 0)
(-0.356158 -0.0716494 0)
(-0.437608 -0.093449 0)
(-0.442512 -0.103897 0)
(-0.38227 -0.089469 0)
(-0.410072 -0.0828396 0)
(-0.399428 -0.0962147 0)
(-0.284254 -0.0971881 0)
(-0.194436 -0.0930445 0)
(-0.253721 -0.106196 0)
(-0.513314 -0.131129 0)
(-0.327402 -0.148501 0)
(-0.0772657 -0.108968 0)
(-0.0711668 -0.106716 0)
(-0.254337 -0.104117 0)
(-0.650528 -0.186854 0)
(-0.424461 -0.205038 0)
(-0.287402 -0.141788 0)
(-0.581472 -0.213634 0)
(-0.716111 -0.245146 0)
(-0.755913 -0.33988 0)
(-0.417081 -0.334815 0)
(-0.222944 -0.211888 0)
(-0.386629 -0.142792 0)
(-0.598128 -0.240612 0)
(-0.28444 -0.252678 0)
(-0.230172 -0.188834 0)
(-0.417814 -0.180776 0)
(-0.437798 -0.180071 0)
(-0.172283 -0.129801 0)
(0.309943 -0.274363 0)
(-0.478433 -0.113742 0)
(-0.862256 -0.13189 0)
(-1.05603 -0.188861 0)
(-0.789851 -0.187494 0)
(-0.495612 -0.211899 0)
(-0.388594 -0.156446 0)
(-0.905663 -0.232854 0)
(-1.07667 -0.268146 0)
(-0.394965 -0.280264 0)
(-0.801344 -0.169148 0)
(-1.14493 -0.304829 0)
(-0.831611 -0.253103 0)
(-0.324277 -0.176227 0)
(-0.361702 -0.193738 0)
(-0.199735 -0.185449 0)
(0.041272 -0.105853 0)
(0.313192 -0.238127 0)
(0.451591 -0.0753018 0)
(0.271451 -0.113291 0)
(-0.444957 -0.277901 0)
(-0.493164 -0.256483 0)
(-0.38458 -0.130072 0)
(-0.514439 -0.256429 0)
(-0.489418 -0.339754 0)
(-0.44346 -0.378375 0)
(-0.227418 -0.372316 0)
(0.159572 -0.111167 0)
(0.13908 -0.0230093 0)
(-0.283545 -0.12622 0)
(-0.421156 -0.164811 0)
(-0.549751 -0.210525 0)
(-0.379433 -0.269189 0)
(-0.65171 -0.323806 0)
(-1.03061 -0.215936 0)
(-0.223493 -0.307689 0)
(0.358591 -0.173979 0)
(0.688091 -0.0812205 0)
(0.747446 -0.0800563 0)
(0.598435 -0.184039 0)
(0.674921 -0.416617 0)
(0.943266 -0.221674 0)
(0.843021 -0.0247446 0)
(0.824837 -0.100638 0)
(0.794022 -0.140895 0)
(0.764323 -0.00690998 0)
(0.772189 -0.0898216 0)
(0.741298 -0.180193 0)
(0.757486 -0.249321 0)
(0.677897 -0.261267 0)
(0.307988 0.0297004 0)
(0.32028 0.0322814 0)
(0.305073 0.0318416 0)
(0.279301 0.0298245 0)
(0.247209 0.0269384 0)
(0.206578 0.0224207 0)
(0.188524 0.0189122 0)
(0.204267 0.0190227 0)
(0.230276 0.0209796 0)
(0.272444 0.026577 0)
(0.254871 0.027841 0)
(0.200706 0.0254613 0)
(0.0835489 0.0165707 0)
(-0.0739563 0.00570956 0)
(-0.308727 -0.0116879 0)
(-0.413413 -0.0223082 0)
(-0.469577 -0.0292139 0)
(-0.495052 -0.0331873 0)
(-0.499335 -0.0330368 0)
(-0.458651 -0.0272357 0)
(-0.401671 -0.0226201 0)
(-0.349076 -0.0172448 0)
(-0.302335 -0.0150946 0)
(-0.279031 -0.0136651 0)
(-0.285071 -0.00790427 0)
(-0.330598 0.00571278 0)
(-0.429286 0.00912954 0)
(-0.44604 0.00934069 0)
(-0.385437 0.00995701 0)
(-0.409089 -1.05816e-05 0)
(-0.395973 0.00837945 0)
(-0.292561 0.0242657 0)
(-0.211791 0.0486596 0)
(-0.242761 0.0645379 0)
(-0.448866 0.0359832 0)
(-0.239267 0.0595907 0)
(-0.0834624 0.0741941 0)
(-0.157019 0.0862367 0)
(-0.290322 0.0639021 0)
(-0.668482 0.0553605 0)
(-0.506623 0.0766604 0)
(-0.398441 0.0699405 0)
(-0.529668 0.106649 0)
(-0.591211 0.107831 0)
(-0.705068 0.159659 0)
(-0.512224 0.18408 0)
(-0.430076 0.134697 0)
(-0.595689 0.0485133 0)
(-0.596371 0.0936651 0)
(-0.348675 0.141868 0)
(-0.320593 0.120323 0)
(-0.373198 0.0830435 0)
(-0.398628 0.0487275 0)
(-0.271735 0.00339259 0)
(-0.0413242 0.295049 0)
(-0.669192 0.0368797 0)
(-0.877736 -0.0315799 0)
(-0.974143 -0.0365217 0)
(-0.860171 -0.0389523 0)
(-0.752508 0.0434409 0)
(-0.600762 0.0577289 0)
(-0.90665 0.058926 0)
(-1.12694 -0.00261921 0)
(-0.497251 0.15817 0)
(-0.750082 0.0392923 0)
(-1.11861 0.067427 0)
(-0.862828 0.0267783 0)
(-0.360803 0.0721758 0)
(-0.371805 0.0935678 0)
(-0.222493 0.0931881 0)
(-0.0838786 0.0632117 0)
(0.114152 0.216941 0)
(0.164608 0.0957327 0)
(0.0318475 0.160288 0)
(-0.434968 0.209597 0)
(-0.619731 0.121472 0)
(-0.646407 0.0304637 0)
(-0.562955 0.155348 0)
(-0.50852 0.231032 0)
(-0.580033 0.249227 0)
(-0.348553 0.264976 0)
(0.217725 0.122272 0)
(-0.0239352 0.048512 0)
(-0.123869 0.0924076 0)
(-0.261831 0.0904476 0)
(-0.391304 0.0927709 0)
(-0.569751 0.162582 0)
(-0.658471 0.208279 0)
(-1.08309 -0.0190315 0)
(-0.439851 0.147007 0)
(0.325218 0.201079 0)
(0.625581 0.177954 0)
(0.700861 0.2018 0)
(0.579037 0.26087 0)
(0.662346 0.495582 0)
(0.908809 0.377836 0)
(0.78586 0.180244 0)
(0.800508 0.256105 0)
(0.784001 0.300587 0)
(0.684829 0.148605 0)
(0.642228 0.221948 0)
(0.666697 0.288317 0)
(0.735871 0.365306 0)
(0.632747 0.377546 0)
(0.308241 0.0286428 0)
(0.320232 0.0322588 0)
(0.304927 0.0325269 0)
(0.278969 0.0309601 0)
(0.246741 0.0283324 0)
(0.205941 0.0236962 0)
(0.188264 0.0189978 0)
(0.204217 0.0180745 0)
(0.230405 0.0194464 0)
(0.272685 0.0258232 0)
(0.254643 0.0295213 0)
(0.20002 0.0287031 0)
(0.0820739 0.0226794 0)
(-0.0730238 0.012437 0)
(-0.302057 -0.0198113 0)
(-0.410142 -0.0445897 0)
(-0.470955 -0.0556181 0)
(-0.499495 -0.0640097 0)
(-0.502061 -0.0692573 0)
(-0.458518 -0.0702325 0)
(-0.402607 -0.0644618 0)
(-0.353493 -0.0585181 0)
(-0.31368 -0.0502152 0)
(-0.296387 -0.0441526 0)
(-0.306259 -0.0440363 0)
(-0.353975 -0.0613633 0)
(-0.440716 -0.0819098 0)
(-0.447481 -0.101208 0)
(-0.384231 -0.0872417 0)
(-0.407579 -0.078472 0)
(-0.404736 -0.0929847 0)
(-0.287826 -0.0924747 0)
(-0.194245 -0.0883238 0)
(-0.216653 -0.0831262 0)
(-0.449939 -0.11345 0)
(-0.264742 -0.132923 0)
(-0.0988678 -0.0992317 0)
(-0.14292 -0.0925229 0)
(-0.294954 -0.0697629 0)
(-0.640444 -0.151315 0)
(-0.44896 -0.187284 0)
(-0.325338 -0.119402 0)
(-0.502553 -0.173862 0)
(-0.659325 -0.207316 0)
(-0.734721 -0.291113 0)
(-0.429103 -0.282557 0)
(-0.212339 -0.183766 0)
(-0.441469 -0.119252 0)
(-0.601268 -0.202389 0)
(-0.355762 -0.227118 0)
(-0.297382 -0.1591 0)
(-0.369083 -0.137487 0)
(-0.43565 -0.134103 0)
(-0.202403 -0.0041943 0)
(0.673717 -0.143697 0)
(-0.337983 -0.0420506 0)
(-0.866214 -0.0905983 0)
(-1.06686 -0.153345 0)
(-0.807907 -0.139849 0)
(-0.563314 -0.19015 0)
(-0.623522 -0.144003 0)
(-0.958329 -0.171626 0)
(-1.1935 -0.241613 0)
(-0.497308 -0.268108 0)
(-0.58587 -0.0893475 0)
(-1.13964 -0.263163 0)
(-0.779678 -0.190872 0)
(-0.270337 -0.171366 0)
(-0.369354 -0.160391 0)
(-0.245937 -0.15407 0)
(-0.0239259 -0.0873811 0)
(0.272223 -0.184658 0)
(0.273946 -0.0218587 0)
(0.0334225 -0.0668478 0)
(-0.370397 -0.204543 0)
(-0.413536 -0.186024 0)
(-0.0720228 -0.089258 0)
(-0.374456 -0.243523 0)
(-0.472074 -0.293016 0)
(-0.373029 -0.287941 0)
(-0.218639 -0.296313 0)
(0.166178 -0.0951139 0)
(-0.156731 -0.0125907 0)
(-0.305691 -0.100712 0)
(-0.584789 -0.128337 0)
(-0.670886 -0.177123 0)
(-0.552913 -0.247427 0)
(-0.636678 -0.272906 0)
(-1.42441 -0.210202 0)
(0.225994 -0.224139 0)
(0.242992 -0.19747 0)
(0.732713 -0.05698 0)
(0.727656 -0.0339228 0)
(0.572113 -0.0798906 0)
(0.675317 -0.223298 0)
(1.02999 -0.0950147 0)
(0.905882 0.0527027 0)
(0.968653 -0.044723 0)
(0.970632 -0.10363 0)
(0.796551 0.0135742 0)
(0.729035 -0.0657618 0)
(0.730831 -0.144528 0)
(0.720793 -0.215692 0)
(0.686047 -0.240644 0)
(0.308545 0.0280597 0)
(0.32018 0.0325196 0)
(0.304829 0.0335131 0)
(0.278733 0.0322588 0)
(0.246404 0.029875 0)
(0.205504 0.0247947 0)
(0.188107 0.0189672 0)
(0.204251 0.0171188 0)
(0.23063 0.0180576 0)
(0.272974 0.0255298 0)
(0.254577 0.031038 0)
(0.19937 0.0329753 0)
(0.08111 0.0275951 0)
(-0.0720608 0.0213223 0)
(-0.296199 0.00114232 0)
(-0.407069 -0.0178572 0)
(-0.468861 -0.0281171 0)
(-0.500797 -0.0343014 0)
(-0.506326 -0.0384288 0)
(-0.467214 -0.0368307 0)
(-0.406543 -0.0323856 0)
(-0.353501 -0.0258486 0)
(-0.310299 -0.0222018 0)
(-0.292746 -0.0172695 0)
(-0.306743 -0.0102187 0)
(-0.351272 0.00386192 0)
(-0.441355 0.00580386 0)
(-0.453091 -0.000648472 0)
(-0.395158 0.00314546 0)
(-0.423221 -0.00396862 0)
(-0.393172 -0.00569486 0)
(-0.277356 0.000236377 0)
(-0.195564 0.0399959 0)
(-0.225894 0.0599223 0)
(-0.442763 0.0276362 0)
(-0.246036 0.0193884 0)
(-0.11189 0.0518982 0)
(-0.184119 0.0799955 0)
(-0.308272 0.0598859 0)
(-0.637724 0.0335761 0)
(-0.487088 0.0334569 0)
(-0.365937 0.0581436 0)
(-0.513163 0.0934485 0)
(-0.603329 0.0844504 0)
(-0.701354 0.103347 0)
(-0.494683 0.0914419 0)
(-0.410389 0.112913 0)
(-0.578054 0.0407729 0)
(-0.598414 0.0522615 0)
(-0.376166 0.10017 0)
(-0.352004 0.10579 0)
(-0.333831 0.0772927 0)
(-0.536554 0.0322323 0)
(-0.26397 -0.0551684 0)
(0.300018 0.219996 0)
(-0.0564427 0.127743 0)
(-0.811688 -0.0214476 0)
(-1.10928 -0.0599931 0)
(-0.929682 -0.0774862 0)
(-0.66691 0.0153653 0)
(-0.653033 0.0492336 0)
(-0.930571 0.0811037 0)
(-1.11978 0.0351835 0)
(-0.497551 0.126894 0)
(-0.311041 0.0944063 0)
(-0.969887 0.0351634 0)
(-0.734747 -0.119952 0)
(-0.367004 0.0279502 0)
(-0.37656 0.0796684 0)
(-0.230672 0.0540318 0)
(0.0669927 0.0292467 0)
(0.139946 0.160133 0)
(0.138583 0.0866186 0)
(0.0483542 0.177728 0)
(-0.407542 0.239232 0)
(-0.67601 0.0878605 0)
(-0.791295 -0.00246657 0)
(-0.440844 0.171657 0)
(-0.319437 0.16138 0)
(-0.365314 0.0982679 0)
(-0.285637 0.0693039 0)
(-0.284044 0.0313857 0)
(-0.362665 -0.00661729 0)
(-0.23778 0.0824487 0)
(-0.256199 0.105762 0)
(-0.188628 0.0981103 0)
(0.0900953 0.206582 0)
(-0.764941 0.191095 0)
(-0.468836 -0.0608941 0)
(0.296952 -0.0100138 0)
(-0.247994 0.102425 0)
(0.699848 0.120642 0)
(0.682432 0.180582 0)
(0.492763 0.162765 0)
(0.484411 0.134976 0)
(0.627523 0.184898 0)
(0.606085 0.140532 0)
(0.796172 0.212702 0)
(1.02615 0.304493 0)
(1.1726 0.180037 0)
(0.885713 0.231594 0)
(0.738312 0.287913 0)
(0.759292 0.376721 0)
(0.68338 0.365365 0)
(0.308908 0.0271597 0)
(0.3202 0.0325647 0)
(0.304793 0.0342455 0)
(0.278547 0.0334589 0)
(0.246131 0.0312047 0)
(0.205087 0.0259957 0)
(0.187952 0.0190176 0)
(0.204296 0.0161692 0)
(0.230835 0.0167041 0)
(0.273206 0.0249449 0)
(0.254483 0.0327107 0)
(0.199097 0.0358602 0)
(0.0801758 0.0332352 0)
(-0.071666 0.028237 0)
(-0.288629 -0.00188161 0)
(-0.400719 -0.033061 0)
(-0.46899 -0.0481078 0)
(-0.504575 -0.0607258 0)
(-0.509754 -0.0681047 0)
(-0.470501 -0.0705087 0)
(-0.410461 -0.0645656 0)
(-0.357717 -0.0579554 0)
(-0.317663 -0.0492043 0)
(-0.303731 -0.0432539 0)
(-0.311576 -0.0391721 0)
(-0.343935 -0.0494674 0)
(-0.429427 -0.0699236 0)
(-0.434948 -0.0974983 0)
(-0.375056 -0.0839795 0)
(-0.399662 -0.074883 0)
(-0.38653 -0.0885591 0)
(-0.282039 -0.087044 0)
(-0.196658 -0.0824639 0)
(-0.220796 -0.0579208 0)
(-0.439314 -0.0961731 0)
(-0.22058 -0.118824 0)
(-0.121016 -0.0897296 0)
(-0.162323 -0.0689671 0)
(-0.340392 -0.031163 0)
(-0.640424 -0.115323 0)
(-0.459953 -0.171618 0)
(-0.347322 -0.103869 0)
(-0.481308 -0.129264 0)
(-0.62575 -0.158283 0)
(-0.711733 -0.238463 0)
(-0.43106 -0.208744 0)
(-0.200933 -0.143458 0)
(-0.491933 -0.0940704 0)
(-0.604214 -0.180875 0)
(-0.338051 -0.228428 0)
(-0.216982 -0.132207 0)
(-0.650582 -0.136857 0)
(-0.551785 -0.164211 0)
(-0.319266 -0.294556 0)
(-0.510635 -0.164479 0)
(0.0955869 0.111735 0)
(-0.603399 0.0171336 0)
(-1.13691 -0.145384 0)
(-0.817044 -0.13668 0)
(-0.657099 -0.173044 0)
(-0.60552 -0.0966295 0)
(-0.901744 -0.133992 0)
(-0.987449 -0.405657 0)
(-0.520861 -0.290601 0)
(-0.424768 -0.0654828 0)
(-0.766495 -0.164489 0)
(-0.787618 -0.154206 0)
(-0.377168 -0.18548 0)
(-0.389072 -0.141973 0)
(-0.0471224 -0.148427 0)
(0.0526619 -0.107522 0)
(0.203163 -0.148426 0)
(0.16855 -0.0759785 0)
(-0.190166 -0.030064 0)
(-0.328379 -0.16153 0)
(-0.565525 -0.277098 0)
(-0.646232 -0.17031 0)
(-0.116503 -0.257838 0)
(-0.328916 -0.235396 0)
(-0.386472 -0.176324 0)
(-0.243634 -0.165624 0)
(-0.0548253 -0.0781876 0)
(-0.428564 0.00882847 0)
(-0.283461 -0.0860222 0)
(-0.180025 -0.123863 0)
(-0.258863 -0.168195 0)
(0.301152 -0.115532 0)
(-0.921297 -0.217972 0)
(0.0635458 -0.112559 0)
(0.176135 -0.0844653 0)
(0.228588 -0.154229 0)
(0.724155 -0.0514309 0)
(0.731981 -0.0290046 0)
(0.605471 -0.0545082 0)
(0.623296 -0.100001 0)
(0.810962 -0.118605 0)
(0.878682 -0.0463554 0)
(0.974305 -0.0369419 0)
(0.845684 -0.0328409 0)
(0.694251 0.0735404 0)
(0.854445 -0.00437517 0)
(0.778238 -0.135146 0)
(0.758967 -0.205819 0)
(0.678281 -0.185129 0)
(0.309289 0.0264651 0)
(0.320222 0.0327928 0)
(0.304762 0.0351794 0)
(0.278378 0.0346949 0)
(0.245829 0.0328153 0)
(0.204666 0.0271322 0)
(0.187795 0.019003 0)
(0.204333 0.0151893 0)
(0.230929 0.0152646 0)
(0.272827 0.0244721 0)
(0.25402 0.0344051 0)
(0.198724 0.0397857 0)
(0.0796185 0.0386377 0)
(-0.0703737 0.0365543 0)
(-0.280456 0.0133515 0)
(-0.401635 -0.0131315 0)
(-0.474138 -0.0269046 0)
(-0.509235 -0.0362272 0)
(-0.51163 -0.044289 0)
(-0.47403 -0.0474104 0)
(-0.416104 -0.0435945 0)
(-0.365248 -0.0353467 0)
(-0.321326 -0.0276895 0)
(-0.298791 -0.0197374 0)
(-0.299282 -0.0123357 0)
(-0.332863 0.00201695 0)
(-0.430122 0.00252474 0)
(-0.448905 -0.00836693 0)
(-0.389858 -0.00272441 0)
(-0.41241 -0.00609382 0)
(-0.391395 -0.0197402 0)
(-0.281827 -0.0161392 0)
(-0.197031 0.0300992 0)
(-0.213292 0.0579339 0)
(-0.434422 0.0160198 0)
(-0.165828 -0.0118078 0)
(-0.147038 0.0282309 0)
(-0.188621 0.0691429 0)
(-0.358586 0.0400201 0)
(-0.64807 0.0170518 0)
(-0.467049 -0.00454286 0)
(-0.361798 0.0464437 0)
(-0.454753 0.07255 0)
(-0.615824 0.0542541 0)
(-0.744048 0.0411171 0)
(-0.494942 0.0011946 0)
(-0.37308 0.0749122 0)
(-0.578867 0.0256364 0)
(-0.611457 0.0196611 0)
(-0.403181 0.0536514 0)
(-0.306393 0.0801871 0)
(-0.214193 0.109362 0)
(-0.284698 0.0619409 0)
(-0.329422 0.0522305 0)
(-0.718851 0.0192213 0)
(-0.0566053 0.0174337 0)
(-0.386144 0.0263684 0)
(-0.848078 -0.0222019 0)
(-0.703471 -0.128936 0)
(-0.970147 -0.0849843 0)
(-0.660432 0.0127102 0)
(-0.807181 0.0487545 0)
(-1.05561 0.0937727 0)
(-0.519167 -0.0386095 0)
(-0.476652 0.123404 0)
(-0.797116 0.00904725 0)
(-0.861403 -0.13833 0)
(-0.327209 -0.0382859 0)
(-0.304716 0.0491311 0)
(-0.101751 0.0127677 0)
(0.0483464 0.0582636 0)
(0.19397 0.149953 0)
(0.129845 0.114783 0)
(-0.118324 0.0640249 0)
(-0.375565 0.135169 0)
(-0.760364 0.148276 0)
(-0.878538 0.0121731 0)
(-0.578556 0.203874 0)
(-0.431175 0.195379 0)
(-0.359113 0.0879197 0)
(-0.307061 0.042467 0)
(0.029163 0.0211181 0)
(-0.847794 -0.0826272 0)
(-0.236838 0.0624215 0)
(-0.179852 0.116605 0)
(-0.250106 0.0975457 0)
(0.195817 0.191884 0)
(-0.635743 0.139383 0)
(-0.197398 -0.0672904 0)
(0.249575 -0.0803701 0)
(0.311781 -0.0388158 0)
(0.616105 0.0747743 0)
(0.739474 0.204262 0)
(0.551585 0.197001 0)
(0.555271 0.164835 0)
(0.710979 0.24455 0)
(0.683054 0.157087 0)
(0.740502 0.105176 0)
(0.689144 0.0999321 0)
(0.708403 0.0695449 0)
(0.657933 0.155579 0)
(0.746223 0.273252 0)
(0.74625 0.360953 0)
(0.637947 0.350213 0)
(0.309718 0.0257 0)
(0.320282 0.0329275 0)
(0.304767 0.0359907 0)
(0.278214 0.0360174 0)
(0.245566 0.0341252 0)
(0.204224 0.0283393 0)
(0.18762 0.0189814 0)
(0.204333 0.0142298 0)
(0.230624 0.0138336 0)
(0.27152 0.023741 0)
(0.253019 0.0357233 0)
(0.198323 0.0430468 0)
(0.079092 0.0442362 0)
(-0.070472 0.0430068 0)
(-0.276203 0.0158761 0)
(-0.393148 -0.0209769 0)
(-0.457095 -0.0410173 0)
(-0.489224 -0.0567254 0)
(-0.497088 -0.0665744 0)
(-0.46895 -0.0710964 0)
(-0.411723 -0.0674075 0)
(-0.36478 -0.0597442 0)
(-0.322313 -0.0505639 0)
(-0.300783 -0.0418136 0)
(-0.300618 -0.0346533 0)
(-0.332198 -0.0377773 0)
(-0.42962 -0.0570614 0)
(-0.438736 -0.0909652 0)
(-0.369386 -0.0778243 0)
(-0.390745 -0.0696716 0)
(-0.384839 -0.0827277 0)
(-0.278127 -0.0842296 0)
(-0.185909 -0.0746839 0)
(-0.197206 -0.0304518 0)
(-0.398102 -0.0815192 0)
(-0.0810501 -0.100731 0)
(-0.170591 -0.0797979 0)
(-0.22667 -0.0498422 0)
(-0.358545 0.0226343 0)
(-0.633096 -0.0872651 0)
(-0.434206 -0.155517 0)
(-0.355717 -0.0877993 0)
(-0.44568 -0.0831239 0)
(-0.623488 -0.12136 0)
(-0.730584 -0.218254 0)
(-0.490603 -0.241065 0)
(-0.374932 -0.129282 0)
(-0.522405 -0.0391826 0)
(-0.552645 -0.146285 0)
(-0.317627 -0.188179 0)
(-0.223829 -0.102221 0)
(0.0223894 -0.132983 0)
(-0.15266 -0.149959 0)
(-0.342338 -0.185797 0)
(-0.348037 -0.107303 0)
(-0.15838 0.191896 0)
(-0.213592 0.144423 0)
(-0.64476 -0.125871 0)
(-0.794649 -0.162849 0)
(-1.1103 -0.147923 0)
(-0.723736 -0.117243 0)
(-0.845784 -0.117093 0)
(-1.04048 -0.357279 0)
(-0.506596 -0.164347 0)
(-0.403792 -0.136598 0)
(-0.92823 -0.0850545 0)
(-0.92903 -0.0870411 0)
(-0.35961 -0.0886643 0)
(-0.137816 -0.102625 0)
(-0.133089 -0.109886 0)
(0.0306272 -0.122716 0)
(0.263294 -0.146777 0)
(0.163628 -0.0132652 0)
(-0.0949024 0.0648254 0)
(-0.371133 -0.0134316 0)
(-0.603028 -0.209301 0)
(-0.301739 -0.0820926 0)
(0.161697 -0.22716 0)
(-0.206273 -0.185021 0)
(-0.468181 -0.16198 0)
(-0.257602 -0.142804 0)
(-0.0210625 -0.0353645 0)
(-1.03871 -0.017086 0)
(-0.25575 -0.116144 0)
(-0.278754 -0.0901522 0)
(-0.424156 -0.182178 0)
(0.05317 -0.0508996 0)
(0.0115634 -0.0354146 0)
(-0.697066 -0.0576491 0)
(0.277658 -0.0291443 0)
(0.248803 -0.0497717 0)
(0.566901 -0.0834789 0)
(0.748966 -0.00647777 0)
(0.576653 -0.034728 0)
(0.612694 -0.0422366 0)
(0.859238 -0.0368656 0)
(0.855825 0.0647799 0)
(1.01182 0.0831393 0)
(0.93322 0.0600992 0)
(0.505488 0.00203441 0)
(0.388524 -0.00901062 0)
(0.924121 -0.0951285 0)
(0.855433 -0.172525 0)
(0.802107 -0.176629 0)
(0.310218 0.0249722 0)
(0.320356 0.0331027 0)
(0.30479 0.0368954 0)
(0.278094 0.0371519 0)
(0.245256 0.0357819 0)
(0.203778 0.0294155 0)
(0.187418 0.0190149 0)
(0.204285 0.0132554 0)
(0.229886 0.0123069 0)
(0.269475 0.0231817 0)
(0.251402 0.0372094 0)
(0.197155 0.0473363 0)
(0.0787643 0.0496083 0)
(-0.0699253 0.0512275 0)
(-0.269889 0.0250832 0)
(-0.382817 -0.00643066 0)
(-0.456659 -0.0238125 0)
(-0.500938 -0.0348428 0)
(-0.50924 -0.045875 0)
(-0.468312 -0.0524148 0)
(-0.409072 -0.0491475 0)
(-0.361828 -0.0428649 0)
(-0.325371 -0.0347079 0)
(-0.306099 -0.0239105 0)
(-0.305199 -0.0092965 0)
(-0.334578 0.00345048 0)
(-0.430637 0.00153843 0)
(-0.439872 -0.0164235 0)
(-0.369386 -0.00830879 0)
(-0.396124 -0.00683002 0)
(-0.387958 -0.0316734 0)
(-0.278682 -0.0365052 0)
(-0.190802 0.017211 0)
(-0.184799 0.0550817 0)
(-0.369372 0.00784187 0)
(-0.0891492 -0.0193456 0)
(-0.217723 0.0164702 0)
(-0.299546 0.0487748 0)
(-0.35736 0.0507837 0)
(-0.618769 0.00296376 0)
(-0.422383 -0.0404752 0)
(-0.333097 0.0335484 0)
(-0.43823 0.0676151 0)
(-0.6002 0.0383328 0)
(-0.68016 0.0119257 0)
(-0.529314 0.00781386 0)
(-0.439907 0.0679525 0)
(-0.533935 0.0334837 0)
(-0.573991 -0.0191523 0)
(-0.381432 0.00991193 0)
(-0.262518 0.0672159 0)
(-0.185512 0.142527 0)
(-0.097265 0.103486 0)
(-0.38782 -0.00588572 0)
(-0.230068 0.0413931 0)
(-0.546273 -0.151336 0)
(-0.0804095 0.0305917 0)
(-0.737464 0.0277357 0)
(-0.80284 -0.0432662 0)
(-0.737717 -0.140365 0)
(-0.694121 -0.000447673 0)
(-0.85397 0.112768 0)
(-1.24801 0.0687608 0)
(-0.582655 -0.00144492 0)
(-0.245687 0.274842 0)
(-0.968425 0.0160783 0)
(-0.242665 -0.167292 0)
(-0.450886 -0.219327 0)
(-0.0797391 0.0282492 0)
(-0.127369 -0.0284193 0)
(0.0188459 0.00464314 0)
(0.171209 0.148727 0)
(0.130042 0.0887086 0)
(-0.116758 0.123415 0)
(-0.449394 0.155434 0)
(-0.625034 0.101899 0)
(0.723102 0.0662515 0)
(0.511575 0.188563 0)
(0.519532 0.141866 0)
(-0.228041 -0.0151421 0)
(0.345615 0.00702175 0)
(-0.0578121 0.0662686 0)
(-0.730897 -0.00945085 0)
(-0.585777 0.0146521 0)
(-0.27119 0.0994266 0)
(-0.65525 -0.0279019 0)
(-0.20166 0.0769619 0)
(0.192979 0.182565 0)
(-0.764481 -0.360722 0)
(0.178637 -0.0846233 0)
(0.214434 -0.027525 0)
(0.591256 0.0488953 0)
(0.70165 0.171381 0)
(0.498364 0.187922 0)
(0.622174 0.0506643 0)
(0.770455 0.10678 0)
(0.749464 0.0805846 0)
(0.815142 0.0941163 0)
(0.766651 0.171027 0)
(0.690798 0.211063 0)
(0.929846 0.168121 0)
(1.35902 0.277947 0)
(1.27525 0.393665 0)
(1.12392 0.355405 0)
(0.310744 0.0242285 0)
(0.320475 0.0333478 0)
(0.304852 0.0377459 0)
(0.277956 0.0385472 0)
(0.244993 0.0370687 0)
(0.203295 0.0306878 0)
(0.187179 0.0188767 0)
(0.204115 0.01236 0)
(0.228872 0.0109645 0)
(0.266931 0.0224143 0)
(0.249287 0.038439 0)
(0.196161 0.0501506 0)
(0.0783104 0.0552666 0)
(-0.0710052 0.0572292 0)
(-0.263188 0.0310191 0)
(-0.376571 -0.0102139 0)
(-0.455508 -0.0328335 0)
(-0.495707 -0.0517661 0)
(-0.497652 -0.0645394 0)
(-0.460975 -0.0695255 0)
(-0.402246 -0.0656539 0)
(-0.353921 -0.0583354 0)
(-0.318536 -0.0504472 0)
(-0.308261 -0.0417851 0)
(-0.311535 -0.0335693 0)
(-0.339811 -0.025025 0)
(-0.426999 -0.0446225 0)
(-0.429022 -0.0880024 0)
(-0.360755 -0.0738515 0)
(-0.386087 -0.0652341 0)
(-0.381555 -0.0813692 0)
(-0.278376 -0.0828169 0)
(-0.182548 -0.0687496 0)
(-0.173259 -0.00981551 0)
(-0.325342 -0.0697448 0)
(-0.0392714 -0.0957204 0)
(-0.226041 -0.0663162 0)
(-0.328 -0.0357991 0)
(-0.36727 0.0335998 0)
(-0.600591 -0.0665024 0)
(-0.40188 -0.146973 0)
(-0.343646 -0.0749024 0)
(-0.420046 -0.0485056 0)
(-0.597409 -0.0633662 0)
(-0.674743 -0.172516 0)
(-0.480638 -0.210415 0)
(-0.309343 -0.119176 0)
(-0.540975 -0.0804646 0)
(-0.630727 -0.134296 0)
(-0.3486 -0.167921 0)
(-0.0946353 -0.0916784 0)
(-0.061423 -0.125419 0)
(-0.212443 -0.145206 0)
(-0.328205 -0.153088 0)
(-0.286258 -0.104915 0)
(-1.00662 0.218276 0)
(0.0204718 0.185041 0)
(-0.748909 -0.0584551 0)
(-0.718118 -0.177059 0)
(-0.737006 -0.109591 0)
(-0.768902 -0.0774999 0)
(-0.815066 -0.0710775 0)
(-1.76068 -0.38121 0)
(-0.30321 -0.220918 0)
(-0.305539 -0.0544742 0)
(-0.672996 -0.080035 0)
(-0.130895 -0.18512 0)
(-0.658568 -0.044415 0)
(-0.0305647 -0.0553954 0)
(-0.201852 -0.0968616 0)
(0.53093 -0.0567731 0)
(0.402211 -0.142963 0)
(0.133723 0.0160744 0)
(-0.00851193 0.0914495 0)
(-0.153125 0.0323119 0)
(-0.569163 -0.247371 0)
(0.611304 -0.171668 0)
(0.250123 -0.0592979 0)
(0.102338 -0.0169947 0)
(-0.249729 -0.0288911 0)
(0.828396 -0.102109 0)
(-0.0693605 0.0238117 0)
(-0.635714 -0.106641 0)
(-0.7631 -0.125371 0)
(-0.0869933 -0.0198145 0)
(0.240951 -0.0217314 0)
(0.428689 -0.0198107 0)
(-0.0372527 0.0412244 0)
(-0.447071 0.0760529 0)
(0.450837 -0.275019 0)
(0.180617 -0.101052 0)
(0.599283 -0.0714712 0)
(0.675786 0.0199931 0)
(0.503447 -0.0330074 0)
(0.547667 -0.103764 0)
(0.566028 -0.0246929 0)
(0.620334 0.0481726 0)
(0.810696 0.0731925 0)
(0.821916 0.0782308 0)
(0.819081 0.0160168 0)
(1.14411 0.0387277 0)
(1.2081 -0.0381095 0)
(1.04953 -0.104848 0)
(0.787813 -0.14007 0)
(0.3112 0.0235217 0)
(0.320581 0.0334487 0)
(0.304904 0.0386148 0)
(0.27786 0.0396964 0)
(0.244672 0.0387733 0)
(0.202823 0.0316713 0)
(0.186901 0.0190039 0)
(0.203748 0.0113519 0)
(0.227527 0.00949298 0)
(0.263803 0.0218008 0)
(0.246667 0.0398085 0)
(0.194682 0.053875 0)
(0.0783425 0.0604191 0)
(-0.0692711 0.0656531 0)
(-0.255826 0.0392332 0)
(-0.373397 0.00119022 0)
(-0.45699 -0.0197504 0)
(-0.496659 -0.034855 0)
(-0.498696 -0.0489964 0)
(-0.463119 -0.0595162 0)
(-0.401891 -0.0551158 0)
(-0.351524 -0.0454243 0)
(-0.314417 -0.0366554 0)
(-0.30303 -0.0258456 0)
(-0.311894 -0.0131417 0)
(-0.338341 0.00365347 0)
(-0.427876 -0.00175042 0)
(-0.434533 -0.024059 0)
(-0.360669 -0.0148298 0)
(-0.388214 -0.00899644 0)
(-0.386456 -0.0420481 0)
(-0.277916 -0.0525999 0)
(-0.185216 0.00394331 0)
(-0.159135 0.0515881 0)
(-0.283591 0.00558242 0)
(-0.0380383 -0.0223605 0)
(-0.280108 0.0160082 0)
(-0.366087 0.0346169 0)
(-0.37987 0.047183 0)
(-0.593004 -0.00716121 0)
(-0.428694 -0.0599382 0)
(-0.366821 0.0240274 0)
(-0.493115 0.0428123 0)
(-0.606263 0.0113686 0)
(-0.649976 -0.00817397 0)
(-0.481495 -0.0528545 0)
(-0.30984 0.0635464 0)
(-0.607247 0.0545189 0)
(-0.6525 -0.0692632 0)
(-0.304463 -0.078901 0)
(-0.0142697 0.0529708 0)
(-0.218926 0.1339 0)
(-0.17085 0.117494 0)
(-0.276906 -0.0187656 0)
(-0.364868 0.0420346 0)
(-0.728909 -0.0898143 0)
(-0.423905 0.0681179 0)
(-0.739969 0.0145388 0)
(-0.761858 -0.0432028 0)
(-0.797346 -0.0897328 0)
(-0.814093 -0.00966982 0)
(-0.782917 0.11836 0)
(-1.5261 -0.262752 0)
(0.364827 -0.263971 0)
(-0.129784 0.0848515 0)
(-0.587198 -0.0300166 0)
(-0.396299 -0.0238969 0)
(-0.407563 -0.148598 0)
(-0.0867258 0.0223028 0)
(-0.773568 -0.0973377 0)
(1.04517 0.058567 0)
(0.821301 0.205 0)
(0.0878389 0.106815 0)
(0.234966 0.130991 0)
(0.62547 0.191208 0)
(-0.569933 0.105038 0)
(0.387952 0.157015 0)
(0.516719 0.00237202 0)
(0.0100423 0.123703 0)
(-0.164281 -0.104228 0)
(0.599706 0.0681333 0)
(-0.10388 0.121389 0)
(-0.686684 0.054958 0)
(-0.414647 -0.12796 0)
(-0.0467145 0.00461723 0)
(0.569007 0.0254271 0)
(-0.217464 0.0489458 0)
(-0.528955 0.0936725 0)
(0.675732 -0.155416 0)
(0.416867 -0.11937 0)
(0.0177346 0.0425585 0)
(0.666515 -0.0469652 0)
(0.68544 0.147186 0)
(0.569082 0.167181 0)
(0.551043 0.088621 0)
(0.496377 0.0203971 0)
(0.37219 0.0770894 0)
(0.828918 0.036018 0)
(0.874219 0.11397 0)
(0.992601 0.128232 0)
(1.03403 0.102909 0)
(1.19179 0.210597 0)
(0.986172 0.343479 0)
(0.644136 0.282461 0)
(0.311504 0.0226698 0)
(0.320647 0.0338101 0)
(0.304911 0.0395543 0)
(0.277724 0.0410918 0)
(0.244412 0.0400699 0)
(0.202298 0.0330304 0)
(0.186597 0.0187183 0)
(0.203058 0.010437 0)
(0.225645 0.0081521 0)
(0.260014 0.0208792 0)
(0.243611 0.0406938 0)
(0.192989 0.0570287 0)
(0.0780233 0.0659353 0)
(-0.0698822 0.0716932 0)
(-0.249446 0.0462155 0)
(-0.372201 0.000177383 0)
(-0.456158 -0.0265248 0)
(-0.493559 -0.0482893 0)
(-0.495615 -0.0641689 0)
(-0.465306 -0.0719694 0)
(-0.402431 -0.0686075 0)
(-0.348649 -0.0600752 0)
(-0.31141 -0.0482957 0)
(-0.30162 -0.0395994 0)
(-0.321144 -0.0325437 0)
(-0.347458 -0.0232934 0)
(-0.433552 -0.0342204 0)
(-0.428825 -0.083818 0)
(-0.349935 -0.0680069 0)
(-0.379901 -0.0594581 0)
(-0.380245 -0.080131 0)
(-0.277406 -0.0855347 0)
(-0.175953 -0.0632329 0)
(-0.149446 0.00534136 0)
(-0.23239 -0.0597058 0)
(-0.0847834 -0.107777 0)
(-0.315799 -0.0551915 0)
(-0.427422 -0.0241613 0)
(-0.401635 0.0511966 0)
(-0.587434 -0.0471475 0)
(-0.413556 -0.144035 0)
(-0.347626 -0.0601831 0)
(-0.62357 -0.0299705 0)
(-0.604596 -0.0268462 0)
(-0.613335 -0.15892 0)
(-0.441675 -0.187431 0)
(-0.286933 -0.0925197 0)
(-0.494978 -0.0316578 0)
(-0.686354 -0.118943 0)
(-0.234268 -0.128489 0)
(-0.0914481 -0.0724535 0)
(-0.128713 -0.103147 0)
(-0.158629 -0.133575 0)
(-0.272023 -0.120107 0)
(-0.357766 -0.0441064 0)
(-0.609532 -0.099775 0)
(-0.757683 -0.0357747 0)
(-0.808015 -0.0468232 0)
(-0.722794 -0.165367 0)
(-0.772069 -0.154847 0)
(-0.687242 -0.0570665 0)
(-0.928496 -0.00471609 0)
(-1.55059 -0.0864903 0)
(0.365333 0.116171 0)
(-0.13834 0.197006 0)
(-0.69676 -0.0368144 0)
(-0.352546 -0.198019 0)
(0.0489218 -0.220317 0)
(-0.679019 -0.151476 0)
(-0.716605 -0.231251 0)
(1.40139 -0.0115027 0)
(1.11198 -0.0179105 0)
(0.252244 0.0500704 0)
(0.705505 0.126558 0)
(1.01128 0.198964 0)
(-0.562361 -0.23711 0)
(0.676759 -0.0399685 0)
(0.463035 0.114022 0)
(-0.418642 -0.0732062 0)
(-0.237523 0.0452163 0)
(0.669891 -0.0620136 0)
(-0.133209 0.100934 0)
(-0.681079 0.00243278 0)
(-0.447213 -0.123578 0)
(0.149668 -0.084716 0)
(0.417682 -0.0424947 0)
(0.373849 0.116624 0)
(0.426159 0.138027 0)
(0.737749 -0.0989461 0)
(0.374974 -0.0623343 0)
(0.474369 -0.184977 0)
(0.620067 0.0107096 0)
(0.902222 0.0807422 0)
(0.709335 0.0223542 0)
(0.60351 -0.0285073 0)
(0.606064 0.0230357 0)
(1.05423 -0.00572085 0)
(0.852044 0.0967377 0)
(0.992429 0.0747273 0)
(1.21636 0.121239 0)
(1.23682 0.120017 0)
(1.33982 0.0306622 0)
(1.25166 -0.0122631 0)
(0.89278 -0.0875626 0)
(0.311646 0.0222331 0)
(0.320641 0.0337889 0)
(0.304853 0.0402932 0)
(0.27759 0.042258 0)
(0.244087 0.0416963 0)
(0.201795 0.0339487 0)
(0.18622 0.0189953 0)
(0.202113 0.0094939 0)
(0.223195 0.00674239 0)
(0.255397 0.0202925 0)
(0.239912 0.0420202 0)
(0.190831 0.0604823 0)
(0.0775668 0.0714671 0)
(-0.071117 0.0778011 0)
(-0.243826 0.0530466 0)
(-0.370479 0.00896712 0)
(-0.453205 -0.0159119 0)
(-0.488853 -0.0352813 0)
(-0.494426 -0.0525059 0)
(-0.467315 -0.0670912 0)
(-0.405581 -0.0633906 0)
(-0.352448 -0.0509237 0)
(-0.310199 -0.039707 0)
(-0.298053 -0.0245501 0)
(-0.315914 -0.0108499 0)
(-0.357441 0.00408195 0)
(-0.437079 -0.00521005 0)
(-0.416892 -0.0341838 0)
(-0.340173 -0.0217026 0)
(-0.382845 -0.0113068 0)
(-0.381946 -0.0510849 0)
(-0.276496 -0.0657455 0)
(-0.176476 -0.00924741 0)
(-0.14177 0.0488925 0)
(-0.209296 0.0050047 0)
(-0.358563 -0.0459024 0)
(-0.260026 0.019637 0)
(-0.387381 0.0190602 0)
(-0.445275 0.0372676 0)
(-0.610164 -0.0211197 0)
(-0.41212 -0.0811029 0)
(-0.343197 0.0200876 0)
(-0.567737 0.0431021 0)
(-0.612087 0.0179934 0)
(-0.700292 -0.0373368 0)
(-0.490871 -0.0927398 0)
(-0.325751 0.0452825 0)
(-0.492971 0.0280982 0)
(-0.690717 -0.095772 0)
(-0.26055 -0.138728 0)
(-0.182051 0.0175984 0)
(0.209086 0.118985 0)
(-0.226635 0.102986 0)
(-0.307648 0.0109772 0)
(-0.304723 0.0553316 0)
(-0.618145 0.0876222 0)
(-0.627284 0.0612235 0)
(-0.88028 0.0252152 0)
(-0.721984 -0.0509018 0)
(-0.792064 -0.0835122 0)
(-0.430938 -0.0429476 0)
(-1.87368 -0.0347694 0)
(1.08128 -0.0827422 0)
(0.362154 -0.245804 0)
(-0.228083 -0.00183521 0)
(-0.756242 0.0151953 0)
(-0.201987 -0.106928 0)
(-0.0320287 -0.0227883 0)
(-0.622302 -0.0315358 0)
(-0.111265 -0.230685 0)
(1.36352 -0.0146213 0)
(1.41909 0.295534 0)
(1.15275 0.227993 0)
(1.41854 0.265812 0)
(1.36627 0.352443 0)
(0.117822 0.152635 0)
(1.34132 -0.190167 0)
(0.339718 0.0365143 0)
(0.228281 0.220139 0)
(0.0573263 -0.111647 0)
(0.372061 0.0178934 0)
(0.217941 0.128559 0)