/*--------------------------------*- C++ -*----------------------------------*\
| =========                 |                                                 |
| \\      /  F ield         | OpenFOAM: The Open Source CFD Toolbox           |
|  \\    /   O peration     | Version:  v1912                                 |
|   \\  /    A nd           | Website:  www.openfoam.com                      |
|    \\/     M anipulation  |                                                 |
\*---------------------------------------------------------------------------*/
FoamFile
{
    version     2.0;
    format      ascii;
    class       volVectorField;
    location    "90";
    object      U;
}
// * * * * * * * * * * * * * * * * * * * * * * * * * * * * * * * * * * * * * //

dimensions      [0 1 -1 0 0 0 0];


internalField   nonuniform List<vector> 
14268
(
(2.11276 -0.0255428 0)
(2.13996 -0.0252977 0)
(2.16578 -0.024959 0)
(2.18918 -0.0247647 0)
(2.21062 -0.0248062 0)
(2.23077 -0.0246467 0)
(2.24746 -0.0242848 0)
(2.26234 -0.0239228 0)
(2.27475 -0.0231034 0)
(2.28281 -0.0209949 0)
(2.28642 -0.0181709 0)
(2.28716 -0.0165286 0)
(2.28528 -0.0165943 0)
(2.28064 -0.0171435 0)
(2.27442 -0.0179483 0)
(2.26627 -0.0192879 0)
(2.25459 -0.0210069 0)
(2.23719 -0.02304 0)
(2.21133 -0.0245513 0)
(2.17769 -0.0244232 0)
(2.14271 -0.0232902 0)
(2.10944 -0.0228799 0)
(2.07508 -0.0234019 0)
(2.0371 -0.0245453 0)
(1.99217 -0.0259677 0)
(1.93762 -0.0274045 0)
(1.87276 -0.0286319 0)
(1.79983 -0.0293625 0)
(1.72239 -0.0297428 0)
(1.64508 -0.0297347 0)
(1.57225 -0.0296025 0)
(1.50245 -0.0294401 0)
(1.43574 -0.0294454 0)
(1.38054 -0.0295864 0)
(1.33882 -0.0299392 0)
(1.30126 -0.0321416 0)
(1.2544 -0.0385381 0)
(1.17056 -0.0467863 0)
(1.01842 -0.0538605 0)
(0.880406 -0.0548684 0)
(0.807908 -0.0453092 0)
(0.774575 -0.029451 0)
(0.79229 -0.0349071 0)
(0.71963 -0.0232417 0)
(2.11863 0.0244451 0)
(2.14624 0.0242126 0)
(2.17297 0.0239312 0)
(2.1976 0.0237682 0)
(2.22018 0.0238284 0)
(2.24143 0.0237097 0)
(2.25905 0.0233833 0)
(2.27468 0.0230481 0)
(2.28815 0.022287 0)
(2.29773 0.0202522 0)
(2.30232 0.0174879 0)
(2.30542 0.0159086 0)
(2.30316 0.016043 0)
(2.29901 0.0166413 0)
(2.29353 0.0174676 0)
(2.28593 0.0188855 0)
(2.27461 0.0206897 0)
(2.25765 0.0229 0)
(2.23244 0.0245663 0)
(2.19955 0.0244882 0)
(2.16501 0.023355 0)
(2.13209 0.0229362 0)
(2.09808 0.0234796 0)
(2.06043 0.0246854 0)
(2.01579 0.0262141 0)
(1.96153 0.0277867 0)
(1.89701 0.0291467 0)
(1.82442 0.0299688 0)
(1.7473 0.0303791 0)
(1.67029 0.0303398 0)
(1.59755 0.0301487 0)
(1.52812 0.0299335 0)
(1.46161 0.0298419 0)
(1.40556 0.0297993 0)
(1.36177 0.030022 0)
(1.32199 0.0322306 0)
(1.27452 0.0388976 0)
(1.19719 0.0478088 0)
(1.06126 0.0551384 0)
(0.932937 0.0553536 0)
(0.860188 0.0449595 0)
(0.821231 0.0282185 0)
(0.835337 0.0339316 0)
(0.759597 0.0221797 0)
(2.11239 -0.0248669 0)
(2.13956 -0.024612 0)
(2.16542 -0.0242729 0)
(2.18889 -0.0240415 0)
(2.21039 -0.024052 0)
(2.23056 -0.0238566 0)
(2.24732 -0.0234561 0)
(2.2622 -0.0230668 0)
(2.27466 -0.0221592 0)
(2.28292 -0.0199349 0)
(2.28673 -0.0170209 0)
(2.28798 -0.0153175 0)
(2.28626 -0.0153257 0)
(2.28182 -0.0158604 0)
(2.27592 -0.0166408 0)
(2.26811 -0.0179161 0)
(2.25662 -0.0195443 0)
(2.23933 -0.0213114 0)
(2.21355 -0.0225449 0)
(2.18006 -0.0222292 0)
(2.14534 -0.0210931 0)
(2.11225 -0.0206815 0)
(2.07805 -0.0210972 0)
(2.04023 -0.0220147 0)
(1.99545 -0.0231091 0)
(1.94105 -0.0241713 0)
(1.87635 -0.0250696 0)
(1.80359 -0.025586 0)
(1.72634 -0.0258904 0)
(1.64932 -0.0259492 0)
(1.57671 -0.0259439 0)
(1.50726 -0.0258927 0)
(1.44089 -0.0261104 0)
(1.38572 -0.0266615 0)
(1.34341 -0.0273222 0)
(1.30459 -0.0293972 0)
(1.2562 -0.0349156 0)
(1.17139 -0.0413305 0)
(1.02144 -0.0470409 0)
(0.888391 -0.048834 0)
(0.818598 -0.0409781 0)
(0.785677 -0.0262819 0)
(0.803894 -0.0316376 0)
(0.715861 -0.0206309 0)
(2.11746 0.0223361 0)
(2.14501 0.0221225 0)
(2.17154 0.0219203 0)
(2.19592 0.0218463 0)
(2.21831 0.0219688 0)
(2.2394 0.0219644 0)
(2.25682 0.0217674 0)
(2.27232 0.0215368 0)
(2.28545 0.0209119 0)
(2.29473 0.0189911 0)
(2.29936 0.0162745 0)
(2.30098 0.0147761 0)
(2.29927 0.0150137 0)
(2.29477 0.0156902 0)
(2.28876 0.0165419 0)
(2.28089 0.0179767 0)
(2.26947 0.0197637 0)
(2.25236 0.021855 0)
(2.22688 0.0234614 0)
(2.19367 0.023366 0)
(2.15887 0.0222374 0)
(2.12566 0.0218068 0)
(2.09136 0.0223263 0)
(2.05352 0.0235012 0)
(2.00878 0.0250083 0)
(1.95448 0.0265792 0)
(1.88989 0.0279578 0)
(1.81715 0.0287971 0)
(1.73981 0.0292066 0)
(1.66236 0.0291417 0)
(1.58919 0.0289221 0)
(1.51913 0.0286876 0)
(1.45224 0.0285439 0)
(1.39646 0.0284483 0)
(1.35391 0.0286423 0)
(1.31576 0.0307952 0)
(1.26944 0.037347 0)
(1.19082 0.0461925 0)
(1.05067 0.053067 0)
(0.918271 0.0526113 0)
(0.843514 0.042305 0)
(0.802979 0.0257642 0)
(0.818173 0.0319241 0)
(0.738382 0.0195111 0)
(2.11218 -0.0236804 0)
(2.13939 -0.0234136 0)
(2.16537 -0.0230867 0)
(2.18897 -0.0228635 0)
(2.21061 -0.02287 0)
(2.23093 -0.0226883 0)
(2.24776 -0.0223086 0)
(2.26274 -0.0219432 0)
(2.27525 -0.021113 0)
(2.28369 -0.0189683 0)
(2.28782 -0.0159445 0)
(2.28927 -0.0142136 0)
(2.28755 -0.0142214 0)
(2.28314 -0.0147597 0)
(2.27739 -0.0154768 0)
(2.26982 -0.0165325 0)
(2.25855 -0.017845 0)
(2.24141 -0.0191666 0)
(2.21576 -0.0199775 0)
(2.18233 -0.0194535 0)
(2.14752 -0.0183376 0)
(2.11432 -0.0179214 0)
(2.08004 -0.0182092 0)
(2.0423 -0.0188584 0)
(1.99773 -0.0195608 0)
(1.94366 -0.0201814 0)
(1.87935 -0.0206901 0)
(1.80693 -0.0209413 0)
(1.72996 -0.02114 0)
(1.65302 -0.0212593 0)
(1.58033 -0.0213787 0)
(1.51081 -0.0214442 0)
(1.44409 -0.0219105 0)
(1.38844 -0.02292 0)
(1.34607 -0.0239136 0)
(1.3078 -0.0258021 0)
(1.2606 -0.0302228 0)
(1.17885 -0.0343968 0)
(1.03348 -0.0384905 0)
(0.898876 -0.0411817 0)
(0.825159 -0.0355637 0)
(0.788865 -0.0235585 0)
(0.807756 -0.0280121 0)
(0.714378 -0.0182376 0)
(2.11533 0.0198362 0)
(2.14275 0.0196417 0)
(2.169 0.0195238 0)
(2.19304 0.0195578 0)
(2.21513 0.0197414 0)
(2.23589 0.019849 0)
(2.25303 0.0197865 0)
(2.26827 0.0196691 0)
(2.28097 0.019257 0)
(2.28984 0.0176926 0)
(2.29428 0.0150667 0)
(2.29513 0.0136779 0)
(2.29324 0.0140623 0)
(2.28851 0.014805 0)
(2.28228 0.015596 0)
(2.27428 0.0168642 0)
(2.26274 0.0184995 0)
(2.24541 0.0204213 0)
(2.2196 0.021924 0)
(2.18607 0.0218102 0)
(2.15115 0.0207157 0)
(2.11777 0.0202715 0)
(2.08326 0.0207518 0)
(2.04521 0.021861 0)
(2.0003 0.0232971 0)
(1.94584 0.0248195 0)
(1.88113 0.0261723 0)
(1.8083 0.0269945 0)
(1.73086 0.0273822 0)
(1.65336 0.0272844 0)
(1.5802 0.0270295 0)
(1.51014 0.0267792 0)
(1.44329 0.0265955 0)
(1.38792 0.0264541 0)
(1.34621 0.0266118 0)
(1.30884 0.0286468 0)
(1.26266 0.0348972 0)
(1.18183 0.0433762 0)
(1.03708 0.0496843 0)
(0.901911 0.0487584 0)
(0.827254 0.0388026 0)
(0.786536 0.0235919 0)
(0.803952 0.0293347 0)
(0.711531 0.0169654 0)
(2.11215 -0.0222134 0)
(2.13937 -0.0219327 0)
(2.16537 -0.0216182 0)
(2.18907 -0.0214252 0)
(2.21084 -0.0214201 0)
(2.23128 -0.0212414 0)
(2.24821 -0.020877 0)
(2.26327 -0.0205329 0)
(2.27584 -0.0197763 0)
(2.28445 -0.01784 0)
(2.28891 -0.0148555 0)
(2.29016 -0.0131197 0)
(2.28841 -0.0131758 0)
(2.28392 -0.0136117 0)
(2.27808 -0.0141643 0)
(2.27053 -0.014928 0)
(2.25927 -0.0158778 0)
(2.24208 -0.0167205 0)
(2.21626 -0.0170853 0)
(2.18261 -0.0163647 0)
(2.14758 -0.0153049 0)
(2.11419 -0.0148989 0)
(2.07975 -0.0150523 0)
(2.04193 -0.0154191 0)
(1.99739 -0.0157102 0)
(1.94337 -0.0158759 0)
(1.87902 -0.0159831 0)
(1.80642 -0.0159564 0)
(1.72914 -0.0160345 0)
(1.65159 -0.0161972 0)
(1.57827 -0.0164179 0)
(1.50787 -0.0165751 0)
(1.44067 -0.0172808 0)
(1.38527 -0.0187347 0)
(1.34397 -0.0200444 0)
(1.30702 -0.0217005 0)
(1.26102 -0.0248446 0)
(1.1802 -0.0265567 0)
(1.03526 -0.0289601 0)
(0.8994 -0.0327094 0)
(0.823627 -0.0295214 0)
(0.783702 -0.0209403 0)
(0.802029 -0.0236365 0)
(0.705819 -0.016064 0)
(2.11324 0.0171639 0)
(2.14055 0.0169874 0)
(2.16667 0.0169515 0)
(2.1905 0.017106 0)
(2.21238 0.0173388 0)
(2.23288 0.0175406 0)
(2.24983 0.0175983 0)
(2.26483 0.0175882 0)
(2.27723 0.0173739 0)
(2.28582 0.0161919 0)
(2.29014 0.0138664 0)
(2.29055 0.0126126 0)
(2.28854 0.0131809 0)
(2.2837 0.0138231 0)
(2.27745 0.0144987 0)
(2.26957 0.0155835 0)
(2.25813 0.0170368 0)
(2.24083 0.0187753 0)
(2.21497 0.020174 0)
(2.18135 0.020069 0)
(2.14628 0.0190483 0)
(2.11275 0.0186304 0)
(2.0781 0.0190725 0)
(2.04002 0.0201169 0)
(1.99519 0.0214908 0)
(1.94094 0.0229876 0)
(1.87649 0.0243494 0)
(1.80388 0.0251787 0)
(1.7266 0.0255503 0)
(1.64899 0.0253963 0)
(1.57553 0.0250648 0)
(1.50488 0.0247374 0)
(1.43758 0.0244572 0)
(1.38241 0.0241934 0)
(1.34165 0.0242617 0)
(1.30544 0.0261472 0)
(1.26005 0.0319532 0)
(1.17915 0.0400091 0)
(1.03344 0.0457891 0)
(0.896292 0.0445193 0)
(0.81963 0.0350655 0)
(0.77568 0.0213522 0)
(0.794961 0.0263514 0)
(0.698686 0.0146966 0)
(2.11163 -0.0206541 0)
(2.13884 -0.0203574 0)
(2.16485 -0.020049 0)
(2.18858 -0.0198808 0)
(2.21037 -0.0198499 0)
(2.23078 -0.0196527 0)
(2.24769 -0.0192849 0)
(2.26267 -0.0189502 0)
(2.27511 -0.0182455 0)
(2.2837 -0.0165251 0)
(2.28818 -0.0137695 0)
(2.28909 -0.0120494 0)
(2.28723 -0.0121532 0)
(2.28257 -0.0123669 0)
(2.27651 -0.0127328 0)
(2.26881 -0.0131969 0)
(2.25739 -0.0137615 0)
(2.23992 -0.0141226 0)
(2.21374 -0.0140545 0)
(2.17972 -0.0131792 0)
(2.14446 -0.0122199 0)
(2.11088 -0.0118673 0)
(2.07622 -0.0118923 0)
(2.03818 -0.0119881 0)
(1.99342 -0.011896 0)
(1.93919 -0.0116493 0)
(1.87468 -0.0114152 0)
(1.80191 -0.0111533 0)
(1.72442 -0.0111208 0)
(1.64653 -0.0112959 0)
(1.57275 -0.0115634 0)
(1.5017 -0.0117374 0)
(1.43412 -0.0126254 0)
(1.37911 -0.0144507 0)
(1.33899 -0.0160273 0)
(1.3035 -0.0174269 0)
(1.25883 -0.0191908 0)
(1.17834 -0.0185024 0)
(1.03225 -0.0192793 0)
(0.893789 -0.0240895 0)
(0.81647 -0.0233388 0)
(0.773535 -0.0181469 0)
(0.792443 -0.0189924 0)
(0.694292 -0.0139643 0)
(2.11153 0.0144702 0)
(2.13873 0.0143096 0)
(2.16472 0.014347 0)
(2.1884 0.0146012 0)
(2.21018 0.0148689 0)
(2.23052 0.0151417 0)
(2.24741 0.0152981 0)
(2.26226 0.0153823 0)
(2.27453 0.0153381 0)
(2.28309 0.0145345 0)
(2.2874 0.0126821 0)
(2.28757 0.011584 0)
(2.2855 0.012261 0)
(2.28061 0.0127749 0)
(2.27433 0.0133159 0)
(2.26653 0.0142117 0)
(2.25517 0.0154756 0)
(2.23782 0.0170461 0)
(2.21177 0.0183703 0)
(2.17783 0.0183297 0)
(2.14246 0.0174269 0)
(2.10871 0.0170541 0)
(2.07386 0.0174626 0)
(2.03568 0.0184481 0)
(1.99086 0.019788 0)
(1.93667 0.0212988 0)
(1.87222 0.0227228 0)
(1.79944 0.0235963 0)
(1.72185 0.0239624 0)
(1.64373 0.0237366 0)
(1.56958 0.0232996 0)
(1.49818 0.0228439 0)
(1.43059 0.0223919 0)
(1.37596 0.021893 0)
(1.33648 0.0217918 0)
(1.30169 0.0235071 0)
(1.25747 0.0289021 0)
(1.17686 0.0368061 0)
(1.03011 0.0422335 0)
(0.890541 0.0405006 0)
(0.812515 0.0314174 0)
(0.765176 0.019031 0)
(0.785448 0.0233105 0)
(0.688535 0.0126156 0)
(2.11055 -0.0191175 0)
(2.13771 -0.0188028 0)
(2.16366 -0.0184891 0)
(2.18732 -0.0183184 0)
(2.20907 -0.0182458 0)
(2.22935 -0.0180067 0)
(2.2462 -0.0176123 0)
(2.26105 -0.0172689 0)
(2.27335 -0.016586 0)
(2.28186 -0.0150739 0)
(2.28626 -0.0126896 0)
(2.28683 -0.0110083 0)
(2.28486 -0.0110655 0)
(2.28005 -0.0110714 0)
(2.27383 -0.011237 0)
(2.26604 -0.0114047 0)
(2.25453 -0.0115852 0)
(2.23685 -0.0114899 0)
(2.21036 -0.0110258 0)
(2.176 -0.0100511 0)
(2.1405 -0.00923484 0)
(2.10674 -0.00893743 0)
(2.07189 -0.00884197 0)
(2.03372 -0.0086787 0)
(1.98887 -0.00823728 0)
(1.93458 -0.00761663 0)
(1.86999 -0.00707241 0)
(1.79707 -0.00658904 0)
(1.7193 -0.00643801 0)
(1.64096 -0.0066077 0)
(1.56636 -0.00690639 0)
(1.4945 -0.00707726 0)
(1.42667 -0.00811131 0)
(1.3723 -0.0102314 0)
(1.33359 -0.0120075 0)
(1.29967 -0.01313 0)
(1.25625 -0.0136027 0)
(1.17605 -0.0108256 0)
(1.02885 -0.0101605 0)
(0.888073 -0.0158135 0)
(0.80828 -0.0172586 0)
(0.762867 -0.015271 0)
(0.782656 -0.0144112 0)
(0.687131 -0.0119207 0)
(2.11008 0.0118295 0)
(2.13721 0.0116841 0)
(2.16311 0.011782 0)
(2.18668 0.0121055 0)
(2.20838 0.0123935 0)
(2.22863 0.0127163 0)
(2.24549 0.012949 0)
(2.26021 0.0131096 0)
(2.27236 0.0132007 0)
(2.28089 0.0127625 0)
(2.28515 0.0114822 0)
(2.28509 0.0105934 0)
(2.28293 0.0112937 0)
(2.27794 0.0116967 0)
(2.27153 0.0120932 0)
(2.26367 0.0128075 0)
(2.25225 0.0138955 0)
(2.23473 0.015339 0)
(2.20837 0.0166362 0)
(2.17402 0.0167058 0)
(2.13833 0.0159529 0)
(2.10435 0.0156263 0)
(2.06929 0.0160138 0)
(2.03096 0.0169609 0)
(1.98606 0.0183046 0)
(1.9318 0.0198687 0)
(1.86725 0.0213767 0)
(1.79427 0.0223093 0)
(1.71635 0.0226674 0)
(1.63775 0.0223589 0)
(1.56273 0.021811 0)
(1.49055 0.0212061 0)
(1.42277 0.0205286 0)
(1.36886 0.019688 0)
(1.33083 0.0193267 0)
(1.29761 0.0208509 0)
(1.25465 0.0259643 0)
(1.17438 0.0340713 0)
(1.02641 0.0394485 0)
(0.884597 0.0370385 0)
(0.803548 0.0280955 0)
(0.754987 0.0167102 0)
(0.776282 0.0204081 0)
(0.68592 0.0107048 0)
(2.1092 -0.0176469 0)
(2.13629 -0.0173133 0)
(2.16217 -0.0169796 0)
(2.18577 -0.0167753 0)
(2.20746 -0.0166474 0)
(2.2276 -0.0163503 0)
(2.24442 -0.0159086 0)
(2.25912 -0.0155367 0)
(2.27127 -0.0148419 0)
(2.27969 -0.0135237 0)
(2.28395 -0.0115507 0)
(2.28433 -0.00999765 0)
(2.28229 -0.00993778 0)
(2.27736 -0.00975468 0)
(2.27098 -0.00971462 0)
(2.26306 -0.00960037 0)
(2.25143 -0.00941471 0)
(2.23352 -0.00890556 0)
(2.2067 -0.00809134 0)
(2.17195 -0.00705836 0)
(2.13619 -0.00641265 0)
(2.10221 -0.0061798 0)
(2.06717 -0.00598259 0)
(2.02883 -0.00559077 0)
(1.98387 -0.00484101 0)
(1.92948 -0.00388238 0)
(1.86477 -0.00304148 0)
(1.79163 -0.00235263 0)
(1.71349 -0.00208397 0)
(1.63463 -0.00222686 0)
(1.55909 -0.0025412 0)
(1.48647 -0.0027023 0)
(1.41855 -0.00386484 0)
(1.36497 -0.00620997 0)
(1.32773 -0.0081115 0)
(1.29542 -0.00892989 0)
(1.25331 -0.00821028 0)
(1.17343 -0.00362105 0)
(1.02487 -0.00179187 0)
(0.88174 -0.00806112 0)
(0.799423 -0.0114977 0)
(0.752273 -0.012421 0)
(0.773352 -0.0101697 0)
(0.685159 -0.00994323 0)
(2.10858 0.00923228 0)
(2.13561 0.00910318 0)
(2.16143 0.00924818 0)
(2.18496 0.00961064 0)
(2.20662 0.00990962 0)
(2.22673 0.0102721 0)
(2.24353 0.0105647 0)
(2.25812 0.0107863 0)
(2.27024 0.0109834 0)
(2.27873 0.0108994 0)
(2.28288 0.0102175 0)
(2.28254 0.0096329 0)
(2.28021 0.0102939 0)
(2.27513 0.0106044 0)
(2.26856 0.010852 0)
(2.26054 0.0113962 0)
(2.249 0.0123266 0)
(2.23126 0.0136842 0)
(2.20457 0.0149954 0)
(2.16982 0.0152152 0)
(2.13384 0.0146303 0)
(2.09964 0.0143609 0)
(2.06438 0.0147444 0)
(2.02588 0.0156787 0)
(1.98085 0.0170575 0)
(1.92647 0.0186998 0)
(1.86176 0.0202998 0)
(1.78852 0.0213091 0)
(1.71019 0.0216702 0)
(1.63105 0.0212733 0)
(1.55516 0.0206025 0)
(1.48236 0.0198318 0)
(1.41459 0.0188851 0)
(1.36151 0.0176101 0)
(1.32496 0.0169043 0)
(1.2933 0.0182088 0)
(1.25161 0.0231415 0)
(1.17169 0.0317302 0)
(1.02234 0.0373505 0)
(0.878112 0.0341008 0)
(0.794135 0.0251209 0)
(0.745261 0.0144223 0)
(0.767634 0.0176664 0)
(0.685554 0.0089071 0)
(2.10728 -0.0286812 0)
(2.13423 -0.028102 0)
(2.15998 -0.0276369 0)
(2.18349 -0.0274277 0)
(2.20508 -0.0272982 0)
(2.22508 -0.0269512 0)
(2.2418 -0.0263615 0)
(2.25643 -0.0258623 0)
(2.2684 -0.0248957 0)
(2.2767 -0.0231947 0)
(2.28065 -0.0205917 0)
(2.28135 -0.01828 0)
(2.27936 -0.0182654 0)
(2.27434 -0.0178621 0)
(2.26775 -0.017595 0)
(2.25968 -0.0172586 0)
(2.24789 -0.0168735 0)
(2.22959 -0.0161543 0)
(2.2021 -0.0150511 0)
(2.16647 -0.0135619 0)
(2.13011 -0.0125929 0)
(2.09586 -0.0122285 0)
(2.06061 -0.011981 0)
(2.02219 -0.0115216 0)
(1.97721 -0.0106214 0)
(1.92276 -0.00947996 0)
(1.85785 -0.00853935 0)
(1.78432 -0.00768508 0)
(1.70559 -0.00727596 0)
(1.62606 -0.00722766 0)
(1.54936 -0.00736287 0)
(1.47567 -0.00722178 0)
(1.40743 -0.00869209 0)
(1.35476 -0.0118775 0)
(1.31945 -0.0145152 0)
(1.28933 -0.0158586 0)
(1.24909 -0.0153828 0)
(1.16979 -0.0100936 0)
(1.01951 -0.00849156 0)
(0.872124 -0.01698 0)
(0.788146 -0.0207465 0)
(0.742747 -0.0213819 0)
(0.764917 -0.017701 0)
(0.687696 -0.0163387 0)
(2.10598 0.0182086 0)
(2.13297 0.0179012 0)
(2.15871 0.0180317 0)
(2.18202 0.01852 0)
(2.20355 0.0189357 0)
(2.22347 0.0194182 0)
(2.24018 0.0197536 0)
(2.25443 0.0200075 0)
(2.26649 0.0201608 0)
(2.27459 0.0200011 0)
(2.27893 0.0190246 0)
(2.27779 0.0179205 0)
(2.27469 0.0187534 0)
(2.2691 0.0189522 0)
(2.26215 0.0190351 0)
(2.25374 0.0194794 0)
(2.24186 0.0204568 0)
(2.22371 0.0220077 0)
(2.19654 0.0234883 0)
(2.16129 0.0235069 0)
(2.12493 0.0225856 0)
(2.09036 0.0221674 0)
(2.0547 0.0226141 0)
(2.01582 0.023743 0)
(1.97047 0.0254089 0)
(1.91584 0.0274161 0)
(1.85085 0.0294415 0)
(1.77716 0.0306603 0)
(1.69813 0.0310353 0)
(1.61796 0.0303708 0)
(1.54086 0.0293232 0)
(1.46754 0.0280016 0)
(1.40026 0.0267588 0)
(1.34884 0.0253786 0)
(1.31469 0.0247628 0)
(1.28537 0.0266814 0)
(1.24547 0.0331276 0)
(1.16579 0.0440364 0)
(1.01371 0.0516621 0)
(0.863767 0.0485697 0)
(0.77889 0.0373013 0)
(0.729859 0.0237986 0)
(0.754684 0.0262574 0)
(0.687834 0.0153904 0)
(2.10413 -0.0269789 0)
(2.13092 -0.0264095 0)
(2.15653 -0.0258942 0)
(2.17985 -0.0255815 0)
(2.20128 -0.0253772 0)
(2.22107 -0.0249543 0)
(2.2377 -0.0242885 0)
(2.25209 -0.0237274 0)
(2.26393 -0.0227335 0)
(2.27195 -0.0212689 0)
(2.2757 -0.0192001 0)
(2.27591 -0.0171246 0)
(2.27374 -0.0167881 0)
(2.26841 -0.0161097 0)
(2.26132 -0.0155493 0)
(2.25263 -0.0147986 0)
(2.24037 -0.0138271 0)
(2.22146 -0.0123926 0)
(2.19317 -0.0106277 0)
(2.15664 -0.00897263 0)
(2.1199 -0.00824411 0)
(2.08536 -0.00799432 0)
(2.04983 -0.00758439 0)
(2.01114 -0.00673683 0)
(1.96589 -0.00527425 0)
(1.91113 -0.00347245 0)
(1.8458 -0.00190402 0)
(1.77166 -0.000587866 0)
(1.6921 8.06305e-05 0)
(1.61164 0.000177647 0)
(1.53339 8.75754e-07 0)
(1.45935 -3.10094e-06 0)
(1.39203 -0.00191485 0)
(1.34124 -0.00575679 0)
(1.30836 -0.00878767 0)
(1.28061 -0.00957715 0)
(1.24217 -0.00688919 0)
(1.16286 0.00199741 0)
(1.00871 0.00600468 0)
(0.855871 -0.0035928 0)
(0.773053 -0.0113788 0)
(0.73184 -0.0175397 0)
(0.755739 -0.0121333 0)
(0.699268 -0.013827 0)
(2.1027 0.014201 0)
(2.12949 0.0139854 0)
(2.15508 0.0142084 0)
(2.17824 0.0147544 0)
(2.19961 0.0152361 0)
(2.21933 0.0158352 0)
(2.23592 0.0163173 0)
(2.24991 0.0166932 0)
(2.26206 0.0170735 0)
(2.26948 0.0174775 0)
(2.27397 0.0174317 0)
(2.27252 0.0169051 0)
(2.2689 0.0175642 0)
(2.2627 0.0176742 0)
(2.25522 0.0175815 0)
(2.24643 0.0178285 0)
(2.23437 0.0186317 0)
(2.21577 0.0201352 0)
(2.18781 0.021694 0)
(2.15161 0.0219148 0)
(2.1148 0.0211912 0)
(2.07993 0.020864 0)
(2.044 0.0213375 0)
(2.00492 0.022501 0)
(1.95943 0.0242907 0)
(1.90461 0.0264854 0)
(1.83928 0.0286907 0)
(1.76504 0.0300232 0)
(1.6852 0.0303883 0)
(1.60426 0.029602 0)
(1.52625 0.0282892 0)
(1.45267 0.0266855 0)
(1.38609 0.0249451 0)
(1.33628 0.0227812 0)
(1.30418 0.0215743 0)
(1.27677 0.0231398 0)
(1.23822 0.0294942 0)
(1.15816 0.0416798 0)
(1.00198 0.0500143 0)
(0.848954 0.0450044 0)
(0.767313 0.0332682 0)
(0.724026 0.0208155 0)
(0.750993 0.0223512 0)
(0.697435 0.0134258 0)
(2.10062 -0.0251765 0)
(2.12731 -0.0246512 0)
(2.15279 -0.0240776 0)
(2.17591 -0.0236339 0)
(2.19716 -0.0233517 0)
(2.21676 -0.0228385 0)
(2.2333 -0.0220758 0)
(2.24743 -0.0214349 0)
(2.25932 -0.0203902 0)
(2.26656 -0.0191616 0)
(2.27052 -0.0177082 0)
(2.27015 -0.0159817 0)
(2.26748 -0.0151985 0)
(2.26166 -0.0142558 0)
(2.25413 -0.0134031 0)
(2.24496 -0.0122552 0)
(2.23232 -0.0107098 0)
(2.21293 -0.00858823 0)
(2.18399 -0.00619641 0)
(2.14672 -0.00439249 0)
(2.10983 -0.0039398 0)
(2.07519 -0.0038367 0)
(2.03954 -0.00330025 0)
(2.0007 -0.00211517 0)
(1.95526 -0.000151628 0)
(1.90024 0.0022601 0)
(1.83457 0.00444085 0)
(1.75993 0.00624451 0)
(1.67971 0.00720256 0)
(1.59843 0.00735852 0)
(1.51968 0.00718604 0)
(1.44595 0.00699209 0)
(1.37947 0.00461952 0)
(1.33005 0.000183102 0)
(1.29871 -0.00314842 0)
(1.2723 -0.00330637 0)
(1.23463 0.00159119 0)
(1.15433 0.0138252 0)
(0.995559 0.0199917 0)
(0.841796 0.00944002 0)
(0.764604 -0.00231819 0)
(0.729687 -0.0138577 0)
(0.756764 -0.00729428 0)
(0.710308 -0.0114014 0)
(2.09868 0.0101542 0)
(2.12561 0.0100633 0)
(2.15117 0.0103761 0)
(2.17411 0.0109559 0)
(2.19534 0.0115038 0)
(2.21491 0.0122007 0)
(2.23133 0.0128057 0)
(2.24516 0.0132752 0)
(2.25721 0.0138753 0)
(2.26461 0.0148311 0)
(2.26939 0.0157669 0)
(2.26773 0.0159475 0)
(2.26372 0.0163165 0)
(2.25695 0.0163555 0)
(2.24883 0.0160924 0)
(2.23943 0.0161584 0)
(2.2269 0.0168134 0)
(2.20791 0.0183256 0)
(2.17938 0.020017 0)
(2.14247 0.0204454 0)
(2.10551 0.0199242 0)
(2.07058 0.0197084 0)
(2.0346 0.0202459 0)
(1.99547 0.0215038 0)
(1.94989 0.023488 0)
(1.8949 0.0259274 0)
(1.82928 0.0283345 0)
(1.75461 0.0297798 0)
(1.6742 0.0301302 0)
(1.59282 0.0292193 0)
(1.51433 0.0275836 0)
(1.44102 0.0256804 0)
(1.37525 0.0233884 0)
(1.32661 0.0203307 0)
(1.29565 0.0184272 0)
(1.26905 0.0196038 0)
(1.23075 0.0260023 0)
(1.14934 0.0399801 0)
(0.988979 0.0493919 0)
(0.837163 0.0419948 0)
(0.763435 0.0292807 0)
(0.727719 0.0176979 0)
(0.760828 0.0186978 0)
(0.710945 0.0115362 0)
(2.09594 -0.0232695 0)
(2.12267 -0.0228087 0)
(2.1471 -0.0221753 0)
(2.16891 -0.0216051 0)
(2.18985 -0.0212449 0)
(2.20874 -0.0206257 0)
(2.22411 -0.0197506 0)
(2.23651 -0.0190096 0)
(2.24756 -0.0179074 0)
(2.2565 -0.0169152 0)
(2.26047 -0.0161384 0)
(2.26056 -0.014816 0)
(2.25827 -0.0134924 0)
(2.25272 -0.0122929 0)
(2.24536 -0.0111495 0)
(2.23632 -0.00961714 0)
(2.22373 -0.00751281 0)
(2.20432 -0.00472426 0)
(2.17507 -0.00171296 0)
(2.13734 0.000211521 0)
(2.10017 0.000357338 0)
(2.06539 0.000299924 0)
(2.02968 0.000942907 0)
(1.99091 0.0024213 0)
(1.94558 0.00484183 0)
(1.89054 0.00784647 0)
(1.8246 0.0106608 0)
(1.74952 0.0129662 0)
(1.66871 0.0142143 0)
(1.58697 0.0144235 0)
(1.50839 0.0142483 0)
(1.43506 0.0138338 0)
(1.36922 0.0110115 0)
(1.32072 0.00603595 0)
(1.29033 0.00248966 0)
(1.2647 0.00303822 0)
(1.22727 0.0101801 0)
(1.14532 0.0256025 0)
(0.981161 0.0335617 0)
(0.830711 0.0220167 0)
(0.762959 0.00640339 0)
(0.735626 -0.0104684 0)
(0.770795 -0.00295008 0)
(0.72597 -0.0086379 0)
(2.07619 0.189171 0)
(2.10061 0.186657 0)
(2.12349 0.185965 0)
(2.14514 0.18724 0)
(2.16669 0.18932 0)
(2.18604 0.191316 0)
(2.20153 0.191408 0)
(2.21496 0.190748 0)
(2.22511 0.189359 0)
(2.23619 0.194058 0)
(2.23351 0.204213 0)
(2.22629 0.202411 0)
(2.21496 0.194229 0)
(2.20288 0.186327 0)
(2.19178 0.175853 0)
(2.17997 0.165184 0)
(2.16632 0.15529 0)
(2.14888 0.148424 0)
(2.12581 0.142326 0)
(2.09831 0.13481 0)
(2.06839 0.131687 0)
(2.03635 0.131308 0)
(2.00077 0.131522 0)
(1.95955 0.132035 0)
(1.91072 0.132578 0)
(1.85302 0.132934 0)
(1.7862 0.133737 0)
(1.71213 0.130332 0)
(1.63308 0.124822 0)
(1.55379 0.115835 0)
(1.48245 0.102546 0)
(1.42008 0.0890314 0)
(1.36574 0.0859952 0)
(1.3239 0.0886864 0)
(1.28957 0.0921556 0)
(1.25234 0.0939464 0)
(1.19386 0.0946632 0)
(1.08586 0.112322 0)
(0.929748 0.138243 0)
(0.84886 0.136037 0)
(0.8139 0.135613 0)
(0.766297 0.169128 0)
(0.797921 0.125173 0)
(0.757029 0.122311 0)
(2.03914 -0.216639 0)
(2.06396 -0.212955 0)
(2.09031 -0.210081 0)
(2.11625 -0.210196 0)
(2.13832 -0.2104 0)
(2.15877 -0.209271 0)
(2.17676 -0.206254 0)
(2.19196 -0.203198 0)
(2.20323 -0.198895 0)
(2.20776 -0.198517 0)
(2.21099 -0.201022 0)
(2.21547 -0.194207 0)
(2.21894 -0.184718 0)
(2.2203 -0.174369 0)
(2.21848 -0.1636 0)
(2.21328 -0.150042 0)
(2.20314 -0.135875 0)
(2.18517 -0.121019 0)
(2.15531 -0.106962 0)
(2.11495 -0.0951928 0)
(2.07895 -0.0909682 0)
(2.04734 -0.0892488 0)
(2.0153 -0.0854689 0)
(1.98019 -0.0791221 0)
(1.93769 -0.0700333 0)
(1.88418 -0.0591051 0)
(1.81902 -0.0492797 0)
(1.7453 -0.0383152 0)
(1.66693 -0.0295814 0)
(1.58988 -0.0235088 0)
(1.51705 -0.0171458 0)
(1.44497 -0.0116154 0)
(1.37739 -0.0195954 0)
(1.32532 -0.0370325 0)
(1.28587 -0.0480869 0)
(1.24654 -0.0407859 0)
(1.18562 -0.00547764 0)
(1.06139 0.0364811 0)
(0.936286 0.0236587 0)
(0.938985 -0.0276254 0)
(0.972754 -0.0745326 0)
(1.03997 -0.150256 0)
(1.14348 -0.11312 0)
(1.1282 -0.106434 0)
(2.0339 0.169687 0)
(2.05756 0.166993 0)
(2.08036 0.165424 0)
(2.10367 0.168806 0)
(2.12862 0.172341 0)
(2.15123 0.175501 0)
(2.17058 0.177168 0)
(2.18593 0.17854 0)
(2.19817 0.180496 0)
(2.20968 0.1882 0)
(2.21504 0.200044 0)
(2.21313 0.196608 0)
(2.20917 0.190512 0)
(2.20424 0.18348 0)
(2.20184 0.173938 0)
(2.19768 0.165567 0)
(2.19082 0.158092 0)
(2.17894 0.156218 0)
(2.15953 0.15579 0)
(2.13499 0.149725 0)
(2.10995 0.144863 0)
(2.08382 0.14345 0)
(2.05415 0.144353 0)
(2.01843 0.147455 0)
(1.97421 0.15257 0)
(1.91954 0.158425 0)
(1.85403 0.163904 0)
(1.78066 0.16348 0)
(1.70307 0.158445 0)
(1.62732 0.148068 0)
(1.55767 0.133493 0)
(1.49479 0.11897 0)
(1.43583 0.110641 0)
(1.38494 0.105103 0)
(1.3392 0.105218 0)
(1.28856 0.110754 0)
(1.21011 0.131896 0)
(1.08576 0.163589 0)
(1.0701 0.154924 0)
(1.10848 0.108453 0)
(1.17267 0.0973043 0)
(1.21441 0.108944 0)
(1.27095 0.0966603 0)
(1.27524 0.110762 0)
(2.00927 -0.22542 0)
(2.03556 -0.220864 0)
(2.06454 -0.217261 0)
(2.09483 -0.219111 0)
(2.12201 -0.218898 0)
(2.14624 -0.215882 0)
(2.16956 -0.211128 0)
(2.19104 -0.205697 0)
(2.20834 -0.200762 0)
(2.2188 -0.199217 0)
(2.22821 -0.200433 0)
(2.23782 -0.190006 0)
(2.24586 -0.178739 0)
(2.25498 -0.17022 0)
(2.26624 -0.158016 0)
(2.26533 -0.142376 0)
(2.25994 -0.126014 0)
(2.24821 -0.105593 0)
(2.22712 -0.0872622 0)
(2.19669 -0.0747395 0)
(2.16802 -0.0702437 0)
(2.14216 -0.0674147 0)
(2.11479 -0.0607017 0)
(2.08215 -0.0498069 0)
(2.04063 -0.03448 0)
(1.98788 -0.0163222 0)
(1.924 6.34865e-05 0)
(1.85188 0.0150701 0)
(1.7752 0.024834 0)
(1.70109 0.0287599 0)
(1.63191 0.0310021 0)
(1.56617 0.0323222 0)
(1.50236 0.0221073 0)
(1.45067 0.000958831 0)
(1.40578 -0.0108581 0)
(1.3565 0.00859526 0)
(1.27482 0.0671639 0)
(1.17914 0.0951815 0)
(1.18543 0.0340801 0)
(1.22177 -0.0391144 0)
(1.29283 -0.100021 0)
(1.35759 -0.161477 0)
(1.41088 -0.130546 0)
(1.44743 -0.112351 0)
(2.01631 0.152574 0)
(2.04725 0.147008 0)
(2.07394 0.144285 0)
(2.09931 0.148168 0)
(2.12508 0.153726 0)
(2.15223 0.157476 0)
(2.17803 0.159758 0)
(2.20092 0.162217 0)
(2.21872 0.167952 0)
(2.23624 0.178067 0)
(2.24751 0.191745 0)
(2.25631 0.190173 0)
(2.26449 0.18299 0)
(2.26786 0.175393 0)
(2.26775 0.167976 0)
(2.26832 0.163344 0)
(2.26783 0.157679 0)
(2.26321 0.15898 0)
(2.25195 0.163803 0)
(2.23618 0.159747 0)
(2.21772 0.154443 0)
(2.19641 0.152764 0)
(2.1702 0.155369 0)
(2.13645 0.161965 0)
(2.09385 0.171718 0)
(2.0416 0.182484 0)
(1.97916 0.191948 0)
(1.90854 0.194315 0)
(1.83328 0.189412 0)
(1.75894 0.17693 0)
(1.69071 0.160587 0)
(1.63116 0.145031 0)
(1.57358 0.132394 0)
(1.52203 0.120964 0)
(1.47517 0.120297 0)
(1.42468 0.134135 0)
(1.34364 0.16457 0)
(1.32323 0.169949 0)
(1.34879 0.128867 0)
(1.38438 0.0632648 0)
(1.42071 0.0544702 0)
(1.44367 0.0629651 0)
(1.46888 0.0655568 0)
(1.47769 0.0775388 0)
(2.00615 -0.244894 0)
(2.03035 -0.23669 0)
(2.05519 -0.232566 0)
(2.08131 -0.233313 0)
(2.10946 -0.233299 0)
(2.14157 -0.227545 0)
(2.1737 -0.221013 0)
(2.19986 -0.212753 0)
(2.22325 -0.206108 0)
(2.24192 -0.202661 0)
(2.25856 -0.202363 0)
(2.27333 -0.193248 0)
(2.28654 -0.180494 0)
(2.29955 -0.169681 0)
(2.30943 -0.155429 0)
(2.3193 -0.139167 0)
(2.32607 -0.119773 0)
(2.32385 -0.0951893 0)
(2.31634 -0.072963 0)
(2.30385 -0.0584929 0)
(2.28712 -0.0526652 0)
(2.26546 -0.048072 0)
(2.23681 -0.037578 0)
(2.19986 -0.0215695 0)
(2.15523 0.000264311 0)
(2.10342 0.0257779 0)
(2.0441 0.0490528 0)
(1.97745 0.0683979 0)
(1.90563 0.0795651 0)
(1.83151 0.0814046 0)
(1.76303 0.0786727 0)
(1.70107 0.0756645 0)
(1.63684 0.0648474 0)
(1.58764 0.0407067 0)
(1.55156 0.0285124 0)
(1.51051 0.0595601 0)
(1.45501 0.112662 0)
(1.46028 0.106974 0)
(1.47728 0.0355842 0)
(1.50199 -0.0516741 0)
(1.52864 -0.110095 0)
(1.55447 -0.15573 0)
(1.58562 -0.132765 0)
(1.60319 -0.111104 0)
(2.01384 0.145141 0)
(2.03826 0.138559 0)
(2.06416 0.135851 0)
(2.09094 0.138149 0)
(2.11757 0.141171 0)
(2.14462 0.139909 0)
(2.17338 0.143601 0)
(2.20375 0.147745 0)
(2.23187 0.152624 0)
(2.25815 0.163489 0)
(2.27888 0.178537 0)
(2.29516 0.180137 0)
(2.30791 0.174008 0)
(2.31476 0.167542 0)
(2.31947 0.161028 0)
(2.32289 0.155669 0)
(2.32644 0.151847 0)
(2.3354 0.155953 0)
(2.35068 0.163216 0)
(2.34914 0.160364 0)
(2.341 0.158351 0)
(2.32287 0.160546 0)
(2.29194 0.167513 0)
(2.25013 0.177619 0)
(2.20191 0.189994 0)
(2.15025 0.203037 0)
(2.09424 0.214989 0)
(2.03172 0.220071 0)
(1.96291 0.217112 0)
(1.89129 0.204009 0)
(1.8236 0.185278 0)
(1.76288 0.169089 0)
(1.70039 0.152678 0)
(1.6555 0.132599 0)
(1.61503 0.129913 0)
(1.56639 0.146768 0)
(1.57101 0.162024 0)
(1.60464 0.151188 0)
(1.65621 0.101144 0)
(1.6843 0.0428871 0)
(1.69168 0.0289774 0)
(1.67962 0.0302231 0)
(1.66689 0.0411181 0)
(1.65099 0.0539054 0)
(2.06758 -0.265643 0)
(2.07549 -0.258333 0)
(2.08654 -0.255175 0)
(2.10137 -0.255645 0)
(2.12007 -0.254536 0)
(2.14113 -0.248641 0)
(2.16404 -0.241704 0)
(2.19093 -0.232131 0)
(2.21816 -0.219404 0)
(2.24072 -0.2118 0)
(2.2639 -0.208283 0)
(2.28565 -0.198214 0)
(2.3002 -0.184104 0)
(2.30862 -0.17151 0)
(2.31193 -0.157209 0)
(2.3134 -0.137757 0)
(2.31563 -0.119196 0)
(2.32406 -0.0976541 0)
(2.34498 -0.070446 0)
(2.37037 -0.0495543 0)
(2.36827 -0.0383295 0)
(2.35467 -0.027267 0)
(2.32646 -0.00937318 0)
(2.28662 0.0127354 0)
(2.24058 0.0393155 0)
(2.19263 0.0687093 0)
(2.14358 0.096793 0)
(2.0917 0.120382 0)
(2.03583 0.134313 0)
(1.9755 0.134891 0)
(1.91254 0.127585 0)
(1.84995 0.121508 0)
(1.78989 0.10734 0)
(1.74001 0.0772659 0)
(1.68274 0.0652441 0)
(1.65512 0.0882301 0)
(1.67357 0.111973 0)
(1.71159 0.0976442 0)
(1.75752 0.0286199 0)
(1.79095 -0.0556762 0)
(1.81412 -0.100839 0)
(1.81494 -0.129057 0)
(1.80497 -0.118812 0)
(1.78145 -0.0961174 0)
(2.35456 0.149141 0)
(2.34804 0.140757 0)
(2.34779 0.136188 0)
(2.34952 0.135997 0)
(2.35284 0.136573 0)
(2.35461 0.134216 0)
(2.35369 0.134906 0)
(2.35184 0.136322 0)
(2.34988 0.139774 0)
(2.34984 0.147967 0)
(2.35274 0.161286 0)
(2.36156 0.167085 0)
(2.36307 0.16484 0)
(2.36022 0.162685 0)
(2.35294 0.158847 0)
(2.34074 0.152459 0)
(2.32916 0.145225 0)
(2.32756 0.143271 0)
(2.33534 0.144569 0)
(2.36136 0.1476 0)
(2.36869 0.157073 0)
(2.35744 0.1657 0)
(2.32886 0.178544 0)
(2.28654 0.192377 0)
(2.23626 0.205348 0)
(2.18379 0.216804 0)
(2.13498 0.227882 0)
(2.08684 0.23418 0)
(2.0375 0.234132 0)
(1.98589 0.225029 0)
(1.93286 0.208933 0)
(1.88373 0.192116 0)
(1.84179 0.172195 0)
(1.79729 0.150899 0)
(1.74474 0.140915 0)