/*--------------------------------*- C++ -*----------------------------------*\
| =========                 |                                                 |
| \\      /  F ield         | OpenFOAM: The Open Source CFD Toolbox           |
|  \\    /   O peration     | Version:  v1912                                 |
|   \\  /    A nd           | Website:  www.openfoam.com                      |
|    \\/     M anipulation  |                                                 |
\*---------------------------------------------------------------------------*/
FoamFile
{
    version     2.0;
    format      ascii;
    class       volScalarField;
    location    "100";
    object      nut;
}
// * * * * * * * * * * * * * * * * * * * * * * * * * * * * * * * * * * * * * //

dimensions      [0 2 -1 0 0 0 0];


internalField   nonuniform List<scalar> 
14268
(
1.96537e-08
5.75032e-08
2.07991e-07
8.22874e-07
2.7655e-06
6.44717e-06
1.09906e-05
1.55747e-05
1.9061e-05
2.14715e-05
2.32665e-05
2.47692e-05
2.61617e-05
2.75721e-05
2.91496e-05
3.06539e-05
3.17437e-05
3.22921e-05
3.23777e-05
3.19019e-05
3.00908e-05
2.6938e-05
2.45031e-05
2.33129e-05
2.30466e-05
2.32457e-05
2.40823e-05
2.54775e-05
2.72626e-05
2.90406e-05
3.07528e-05
3.2451e-05
3.41749e-05
3.58045e-05
3.74146e-05
3.89286e-05
4.0235e-05
4.11295e-05
4.14441e-05
4.11107e-05
3.99632e-05
3.90699e-05
3.85902e-05
3.84763e-05
3.86889e-05
3.95619e-05
4.11125e-05
4.30355e-05
4.48989e-05
4.5686e-05
4.26581e-05
3.56305e-05
3.09854e-05
3.05258e-05
3.38356e-05
4.30701e-05
6.53177e-05
9.09842e-05
0.000101948
0.000100018
0.00010019
0.000107739
0.000123046
0.000138826
0.000146036
0.000149446
0.000153158
0.000158062
0.000161186
0.000160189
0.000154323
0.000160137
0.00017773
0.000195927
0.000198733
0.000191138
0.00019808
0.000225573
0.000228311
0.000193632
0.000138917
9.99291e-05
0.000112291
0.000223417
0.000275787
0.000279157
0.000277044
0.00027598
0.000272733
0.000279666
0.000281763
0.000278787
0.00027657
0.00026739
0.000236689
0.000231602
0.000275066
0.000347237
0.000253844
0.000280623
0.000310451
0.000319954
0.000341032
0.000336777
6.87737e-07
2.2854e-06
9.21174e-06
3.77437e-05
0.000111879
0.000189683
0.000223389
0.000233886
0.000237558
0.00023995
0.00024349
0.000248908
0.000256158
0.000265415
0.000278683
0.000293788
0.000305748
0.000312194
0.000313329
0.000309352
0.000294117
0.000266233
0.000243154
0.000232087
0.000230634
0.000233246
0.000241731
0.000253243
0.000266967
0.000278567
0.000289286
0.000300666
0.000312616
0.000324124
0.000335689
0.000347269
0.000358798
0.000368303
0.000372983
0.000372496
0.000364005
0.000355296
0.000347803
0.000342187
0.000337929
0.000340388
0.000349727
0.00036049
0.000374638
0.000388098
0.000358018
0.00026171
0.000218623
0.000220752
0.000265848
0.000373038
0.000654732
0.000927372
0.000992067
0.000934979
0.00091467
0.000978122
0.00111979
0.00125878
0.00130037
0.00132754
0.00136451
0.00141493
0.00141326
0.00137108
0.00127535
0.00132674
0.00149209
0.00166032
0.00166871
0.00157832
0.0017192
0.00200777
0.00205581
0.00154921
0.00095182
0.000758523
0.00108902
0.00222703
0.00207603
0.00185563
0.00178202
0.00168563
0.00164903
0.00170481
0.00176217
0.0018507
0.00194769
0.00188601
0.00155617
0.00137757
0.00170525
0.00289193
0.00207315
0.00144689
0.00192936
0.00176675
0.00214671
0.0020687
4.85921e-06
1.82389e-05
7.41382e-05
0.000251182
0.000529731
0.000703227
0.000738453
0.000723454
0.000691962
0.000670035
0.000659327
0.000658128
0.000664886
0.000679117
0.000705539
0.000740515
0.000769696
0.000785122
0.000786265
0.000774374
0.00073436
0.000664421
0.000607254
0.00058035
0.000578605
0.00058571
0.000606137
0.000631983
0.000661723
0.000684332
0.000702929
0.000722902
0.000744309
0.000766201
0.000788821
0.00081322
0.000841276
0.000865948
0.000878935
0.00087762
0.000857141
0.000834425
0.000811923
0.000794736
0.000781012
0.000781254
0.000795205
0.000808751
0.000835787
0.000874221
0.000808323
0.000601621
0.000498047
0.000492198
0.000585152
0.000826987
0.00157649
0.00228334
0.0024126
0.00223118
0.00217736
0.002335
0.00269884
0.0030436
0.00311722
0.00316512
0.00321431
0.00328494
0.00322213
0.00304759
0.00277062
0.0029246
0.00340096
0.00402286
0.00397024
0.00364788
0.0040363
0.00481693
0.00524543
0.00367612
0.00210369
0.00182459
0.00309531
0.0046185
0.00406664
0.00383176
0.00365958
0.00332361
0.00319192
0.00337129
0.0035401
0.00377356
0.00424708
0.00401229
0.003126
0.00235355
0.00281159
0.00507367
0.00572852
0.00425311
0.00847408
0.00947032
0.00771499
0.00534728
1.59373e-05
6.54346e-05
0.000247768
0.000652543
0.00107553
0.00131327
0.00137664
0.00135482
0.00128819
0.00123128
0.0011976
0.00118148
0.00117974
0.00119139
0.00122559
0.00127913
0.00132664
0.00135357
0.00135596
0.00133858
0.00127257
0.00115204
0.00105196
0.00100113
0.000994071
0.00100286
0.00103257
0.00107131
0.00111499
0.00114551
0.0011669
0.00118853
0.00121193
0.00123741
0.0012668
0.00130225
0.00135111
0.00139946
0.00142949
0.0014342
0.00140792
0.00137423
0.00133539
0.00130231
0.00127099
0.00125365
0.00125506
0.00125873
0.0012874
0.00135151
0.00127687
0.000983759
0.000822196
0.000788743
0.000922332
0.00130267
0.00259763
0.00377105
0.00398301
0.00373111
0.00381687
0.00415435
0.00483992
0.00545317
0.00558293
0.00570771
0.00580566
0.00566017
0.00546889
0.00519814
0.00485776
0.00542494
0.00630495
0.00795502
0.007841
0.00689553
0.00743432
0.00902098
0.0104386
0.00678822
0.0033571
0.00331345
0.00518125
0.00657731
0.00717726
0.00751175
0.00722831
0.00641047
0.00566851
0.00575122
0.00612709
0.00678944
0.00828384
0.00801135
0.0054023
0.00316324
0.00340597
0.00619456
0.00883896
0.011076
0.0228502
0.0260062
0.0256884
0.0184497
4.44407e-05
0.0001778
0.00055227
0.001109
0.00159243
0.00189633
0.00201844
0.00201944
0.0019418
0.00185404
0.00179894
0.00176718
0.00175537
0.00176276
0.0018035
0.00187566
0.0019424
0.00198204
0.00198587
0.00196263
0.00186903
0.00169261
0.0015434
0.00146333
0.00144781
0.00145746
0.00149266
0.0015422
0.00159843
0.00163668
0.00165936
0.00168011
0.00170368
0.00173118
0.00176562
0.00181192
0.00188317
0.00195662
0.00200511
0.00201579
0.00198298
0.00193666
0.0018796
0.00182956
0.00178041
0.00174209
0.00172359
0.0017066
0.00173276
0.00181118
0.00172616
0.00138577
0.00117968
0.0011154
0.00127459
0.00180429
0.00370418
0.0053961
0.00569611
0.00528411
0.00549991
0.00646713
0.00780229
0.00881823
0.00897352
0.00944522
0.00979932
0.00967219
0.00934421
0.00891291
0.008691
0.00978093
0.0106979
0.0118056
0.0126602
0.0135304
0.0144289
0.0159261
0.0170046
0.0120708
0.00538052
0.0057372
0.00716056
0.0101406
0.0129765
0.013917
0.0135934
0.0124927
0.0112737
0.0112611
0.0118011
0.0122517
0.0135625
0.0147491
0.0102318
0.00493101
0.00443702
0.00650896
0.00712422
0.0146105
0.0247028
0.0256322
0.0314831
0.0241207
0.000115678
0.000397783
0.000939451
0.00154167
0.00205243
0.00241755
0.00261069
0.00265627
0.00259013
0.00247844
0.00240213
0.00235411
0.00233069
0.00233181
0.00237601
0.002464
0.0025489
0.00260259
0.00261099
0.00258639
0.00247357
0.00224905
0.00205177
0.00193924
0.00190937
0.00191626
0.00195174
0.00200553
0.00206826
0.0021087
0.00212731
0.00214139
0.00215944
0.00218418
0.0022206
0.00227468
0.00236446
0.00246576
0.00253688
0.00255831
0.00252543
0.00247108
0.00239768
0.00233065
0.00226049
0.00219396
0.0021421
0.00209699
0.00211699
0.00221277
0.00214437
0.00173438
0.00152969
0.0014843
0.00165133
0.00236983
0.00492693
0.00706887
0.00757295
0.00686591
0.00682694
0.00802732
0.00968603
0.0107355
0.0106945
0.011411
0.0128328
0.015034
0.0147904
0.0141217
0.0126575
0.0123621
0.0124664
0.0128105
0.0140866
0.0169722
0.0197574
0.0183177
0.0185731
0.0170449
0.00974805
0.0110321
0.0107512
0.0134227
0.0161141
0.0165318
0.015943
0.0149534
0.0148573
0.0152662
0.0150251
0.0141269
0.0145961
0.0178892
0.0155636
0.00846713
0.00755332
0.00715875
0.00584295
0.0133499
0.0248061
0.0250188
0.0301483
0.0241982
0.000266867
0.000721744
0.0013385
0.0019398
0.00246153
0.00287385
0.00313611
0.00323665
0.00319826
0.00307473
0.00298126
0.00292022
0.00288709
0.0028834
0.00293042
0.0030327
0.00313487
0.0032031
0.00321793
0.00319357
0.00306633
0.00280039
0.00255677
0.00241233
0.00236822
0.00237194
0.00240528
0.00245894
0.00252486
0.0025656
0.00257696
0.00258287
0.00259504
0.00261642
0.00265138
0.0027108
0.00281569
0.00294079
0.00303265
0.00306572
0.00303572
0.00297547
0.00288658
0.00280201
0.00271241
0.00261891
0.00253279
0.00245781
0.00249359
0.00262402
0.00253212
0.00206357
0.0018622
0.00188516
0.00213774
0.0031466
0.00635792
0.00906335
0.0103409
0.00933314
0.0090308
0.00964591
0.0106219
0.0113666
0.0111194
0.011836
0.0139552
0.017459
0.0174531
0.0166063
0.0141203
0.0127295
0.0126248
0.013135
0.0143343
0.0173667
0.0208307
0.0187124
0.0187104
0.0196112
0.0163582
0.0180112
0.0167478
0.0169726
0.0177485
0.017479
0.0167015
0.0156829
0.0162197
0.0165312
0.0156441
0.0143136
0.0146964
0.0185849
0.017658
0.0129662
0.0131181
0.0111082
0.00640428
0.0144909
0.0244033
0.0243818
0.0289784
0.0264419
0.00051794
0.00109172
0.00171996
0.00230697
0.0028288
0.0032722
0.00359267
0.00374835
0.00374496
0.00362166
0.00351448
0.00344075
0.00339719
0.00338783
0.00343507
0.00354826
0.00366594
0.0037492
0.00377261
0.00375098
0.00361716
0.00332275
0.0030397
0.00286592
0.0028065
0.00280514
0.0028326
0.00288017
0.00294391
0.0029801
0.002979
0.00297297
0.00297541
0.00298954
0.00302016
0.00308233
0.00319902
0.00334465
0.00345668
0.00350344
0.00348081
0.003419
0.00331472
0.00320693
0.00309236
0.00296937
0.00285179
0.00278394
0.00293452
0.00313864
0.00294482
0.00236011
0.00214271
0.00223686
0.00260949
0.00387213
0.00764495
0.0118775
0.0145915
0.0131447
0.0124483
0.0125132
0.0119891
0.0116726
0.0113236
0.0120014
0.0141079
0.0174906
0.0174928
0.0164949
0.0139796
0.0125393
0.0126841
0.0132962
0.0143062
0.016972
0.0201924
0.0183158
0.0182662
0.0194686
0.0220927
0.0237101
0.0225492
0.0230638
0.0221559
0.0200278
0.0190553
0.0181299
0.0178662
0.0168189
0.0153825
0.0139705
0.0142564
0.0180901
0.0181091
0.0142954
0.0146071
0.0183704
0.0147413
0.0196892
0.0232374
0.0229759
0.0277972
0.0285091
0.000839782
0.00146176
0.00207855
0.00264673
0.00316151
0.00362228
0.00398574
0.0041903
0.00422238
0.00411049
0.00399385
0.00390917
0.0038558
0.00384107
0.00388689
0.0040078
0.00413933
0.004238
0.00427208
0.00425491
0.00412096
0.00381002
0.00349399
0.00329369
0.00321892
0.00321183
0.00323282
0.00327094
0.00332881
0.00335715
0.00334116
0.0033219
0.00331262
0.00331642
0.00333947
0.00339977
0.00352041
0.00368077
0.00381223
0.00387462
0.00386224
0.00380319
0.00368547
0.00355865
0.00342274
0.00327476
0.00315379
0.00319745
0.00352906
0.00372695
0.00347427
0.00263366
0.00240426
0.00252141
0.00293053
0.00433232
0.00907713
0.0163063
0.0194093
0.0173378
0.015383
0.014145
0.0128939
0.0118907
0.0116048
0.0122529
0.0142521
0.0174211
0.0174874
0.0164834
0.0140939
0.0127561
0.0131841
0.0138311
0.0144776
0.0165747
0.0194576
0.0177323
0.0175967
0.0187373
0.0251368
0.0294942
0.0280987
0.0298295
0.0252668
0.0212714
0.0202979
0.0195045
0.0184632
0.0165271
0.0148763
0.0133896
0.0136312
0.0172773
0.0182651
0.0134543
0.0130565
0.0215341
0.0310997
0.0300033
0.0231611
0.021737
0.027883
0.0278338
0.00118514
0.00181606
0.00241408
0.00296149
0.00346454
0.00393185
0.0043233
0.00456573
0.00462888
0.00453356
0.00441196
0.00431765
0.00425528
0.00423569
0.00427878
0.00440411
0.00454776
0.00466212
0.00470924
0.00469839
0.00457076
0.00425529
0.00391336
0.00368967
0.00359919
0.003585
0.00359665
0.00362125
0.0036689
0.00368507
0.00365025
0.00361476
0.00359092
0.00358152
0.00359392
0.00364976
0.00377119
0.00394242
0.00409201
0.00417203
0.00417242
0.0041214
0.00399244
0.00384423
0.00368454
0.00352458
0.00344222
0.00356596
0.00388434
0.00410196
0.00402798
0.00289096
0.00264639
0.00275336
0.00315907
0.00480348
0.0116726
0.0206533
0.0226736
0.0197702
0.0162
0.0139391
0.0127827
0.0119373
0.0117445
0.0123647
0.0142367
0.0172611
0.0178623
0.0170009
0.0147842
0.013411
0.0137075
0.0142395
0.0146038
0.0161263
0.0185809
0.0167971
0.0165707
0.017311
0.024126
0.0316305
0.0328427
0.0328439
0.0248233
0.0205665
0.0198154
0.0189714
0.0176841
0.0156678
0.0140423
0.0122775
0.0124115
0.015947
0.0171256
0.0114131
0.0105434
0.0210312
0.0386496
0.0383049
0.0237496
0.0214888
0.031803
0.0279725
0.00152758
0.00215072
0.00272694
0.00325276
0.00374109
0.00420695
0.00461343
0.00488122
0.00496897
0.00489099
0.00476972
0.00466722
0.00459754
0.0045742
0.00461403
0.00474053
0.00489438
0.00502428
0.00508671
0.00508399
0.00496786
0.00465738
0.00429563
0.00405119
0.00394536
0.00392383
0.00392364
0.00393215
0.00396603
0.00396599
0.00391033
0.00385693
0.00381591
0.00378999
0.00378983
0.00383832
0.00395677
0.00413565
0.00430158
0.00440065
0.0044157
0.00437844
0.00424126
0.00407127
0.00389595
0.00375164
0.00367933
0.00374522
0.00390477
0.00419622
0.004476
0.00318759
0.00287123
0.0029742
0.00336634
0.00571156
0.0149396
0.0226837
0.0237915
0.0202165
0.0158664
0.013619
0.0126616
0.0119929
0.0118954
0.0125192
0.014277
0.0171175
0.0180961
0.0173588
0.0152767
0.0138207
0.0139046
0.0142582
0.0147037
0.0158556
0.0178831
0.0157001
0.0153096
0.0159187
0.0223931
0.0298599
0.0327975
0.0317171
0.0232568
0.0196022
0.0191445
0.0181927
0.016687
0.0146873
0.012992
0.0106397
0.0106582
0.0143007
0.0157266
0.0100288
0.0102791
0.0199972
0.0396523
0.0382868
0.0241927
0.0246309
0.0415296
0.0338408
0.00185655
0.00246458
0.00301764
0.0035216
0.0039933
0.00445183
0.00486266
0.00514377
0.00524702
0.00518396
0.00506625
0.00495658
0.00488108
0.00485484
0.00489098
0.00501509
0.00517691
0.00532164
0.00540164
0.0054094
0.00530943
0.00501274
0.00463745
0.0043751
0.00425409
0.00422458
0.00421039
0.00420063
0.00421752
0.00419734
0.00411889
0.0040453
0.00398449
0.00393942
0.00392408
0.00396234
0.00407454
0.00425724
0.00443731
0.00455566
0.00458734
0.00456986
0.00442815
0.00423678
0.00404199
0.00389284
0.00377689
0.00375147
0.00381021
0.00412716
0.00472581
0.00356354
0.00307603
0.00317674
0.00358865
0.00737488
0.0173748
0.0226812
0.0235995
0.0197385
0.0153093
0.0132024
0.0124111
0.011894
0.0118952
0.0125254
0.0141794
0.0167288
0.0176112
0.016893
0.0149766
0.013451
0.0136253
0.0139615
0.0144394
0.0155463
0.0171526
0.0143306
0.0137063
0.0140584
0.019915
0.0268292
0.0300312
0.0287539
0.0212553
0.0185098
0.0183875
0.0171824
0.0154819
0.013444
0.0114417
0.00821431
0.00850378
0.011986
0.0142977
0.0121213
0.019019
0.0199032
0.0357154
0.0325373
0.0235663
0.0317929
0.0522016
0.0388322
0.00216858
0.00275733
0.00328656
0.00376863
0.00422255
0.00466951
0.00507633
0.00536025
0.00547014
0.0054183
0.00530539
0.00519024
0.00511059
0.00508229
0.00511464
0.00523289
0.00539993
0.00555818
0.00565768
0.00567825
0.00559788
0.00532213
0.00493891
0.00466114
0.00452533
0.00448741
0.00445793
0.00442861
0.00442562
0.00438207
0.00427978
0.0041843
0.00410138
0.00403507
0.00400245
0.00402785
0.0041313
0.00431506
0.00450657
0.00464281
0.00469184
0.00470021
0.00455917
0.00434669
0.00412154
0.00394296
0.00378779
0.00368997
0.00367203
0.00401189
0.00479044
0.00394858
0.00326528
0.00336062
0.00398505
0.00893672
0.0179262
0.0218673
0.023134
0.0191668
0.0148599
0.0128836
0.0121704
0.0117634
0.0118437
0.0125111
0.0140905
0.0164081
0.0171637
0.0163962
0.0145808
0.0131265
0.0132544
0.0135444
0.0140946
0.0152315
0.0165031
0.0135045
0.0131429
0.0121826
0.0176682
0.0234664
0.0264481
0.0256212
0.0203041
0.0183241
0.0181925
0.0164232
0.0142649
0.0117905
0.00932135
0.00647243
0.00963831
0.0096756
0.0131814
0.0198253
0.0335726
0.0220407
0.0324155
0.0299224
0.0236092
0.041921
0.0586784
0.0384822
0.00246228
0.00302889
0.00353396
0.00399429
0.00442976
0.00486209
0.00525838
0.00553605
0.00564419
0.00559862
0.00548949
0.00537032
0.00528768
0.00525713
0.00528457
0.00539395
0.00556247
0.00573265
0.00585364
0.00589018
0.00583216
0.00558377
0.00519838
0.00490793
0.00475746
0.00471012
0.00466481
0.00461466
0.00458884
0.0045192
0.00439197
0.00427268
0.00416533
0.00407618
0.00402473
0.00403508
0.00412568
0.00430627
0.00450597
0.0046584
0.00472527
0.00476571
0.00463073
0.0043963
0.00413522
0.00392428
0.00372957
0.0035674
0.00348572
0.00385597
0.00476049
0.00427689
0.00343868
0.00352761
0.00442855
0.00942916
0.0171031
0.0208794
0.0224804
0.0186694
0.014558
0.0126401
0.0119233
0.0115461
0.0116832
0.012391
0.013907
0.0159676
0.016568
0.0157746
0.014076
0.012637
0.0127555
0.0129799
0.0135336
0.0146586
0.0156439
0.0139669
0.0173858
0.0105304
0.0151231
0.0199068
0.0225806
0.0233372
0.0216659
0.0196489
0.0177647
0.0153142
0.0126034
0.00949476
0.00694083
0.0094916
0.0235812
0.00932107
0.0119006
0.0246586
0.0426259
0.02773
0.0286761
0.0261519
0.0234768
0.0524052
0.0605179
0.0370863
0.00286366
0.00339526
0.00386514
0.00429418
0.0047024
0.0051104
0.00548437
0.00574266
0.00583826
0.00579557
0.00568936
0.00556505
0.0054792
0.00544453
0.00546219
0.0055532
0.00571714
0.00590236
0.00605797
0.00612495
0.00610495
0.00590638
0.00552576
0.0052196
0.0050473
0.0049842
0.00491398
0.00483044
0.00476485
0.00465163
0.00448636
0.00432961
0.00418583
0.00406229
0.0039799
0.00396172
0.00402935
0.00420137
0.00440893
0.00458196
0.00467635
0.00477232
0.00465726
0.00438996
0.00407585
0.00381848
0.0035695
0.00332009
0.00316216
0.00359051
0.00464518
0.00467763
0.00367309
0.00374657
0.00483725
0.00916059
0.0155774
0.0192715
0.0214657
0.0183045
0.0144582
0.0125518
0.0116631
0.0112071
0.0113772
0.0122127
0.0137024
0.0154758
0.0158642
0.0150492
0.0134522
0.012077
0.0119513
0.0118844
0.0125236
0.013783
0.0147213
0.0203324
0.0338537
0.0101518
0.0120742
0.0144986
0.0165353
0.0224452
0.0265175
0.0217724
0.0162985
0.0131037
0.00957712
0.00542163
0.00558612
0.0260874
0.0516333
0.0159375
0.0104646
0.0249327
0.0463196
0.0378027
0.0243603
0.0204215
0.0250137
0.0633051
0.0606311
0.0334669
0.00333339
0.00381148
0.00423328
0.0046203
0.00499087
0.00536009
0.00568974
0.00589884
0.00595394
0.00589562
0.00578086
0.00564791
0.00555644
0.00551173
0.00551345
0.00557983
0.00572635
0.00592218
0.00611416
0.00622918
0.00626487
0.00615102
0.00579762
0.00547912
0.00527846
0.00518939
0.00508395
0.00494678
0.00481228
0.00463158
0.00441566
0.00421028
0.00401216
0.0038318
0.00369574
0.00362533
0.00365445
0.00380324
0.00401445
0.00420879
0.00435048
0.0045383
0.00446982
0.00416197
0.00378128
0.00346908
0.00316002
0.0028104
0.00258156
0.00310628
0.00432935
0.00485311
0.00386502
0.00390085
0.00480622
0.00813099
0.0134827
0.0172042
0.0198132
0.0173116
0.013671
0.0117354
0.0105459
0.00997861
0.0102648
0.0112867
0.0128344
0.014546
0.0148213
0.014058
0.0126202
0.0111201
0.0101199
0.00939835
0.0103332
0.0120309
0.0149695
0.0355959
0.0543993
0.015386
0.00795834
0.00791237
0.0143877
0.030989
0.028333
0.0187769
0.0126708
0.00861197
0.00539228
0.00393198
0.00959087
0.0553569
0.0731847
0.0350459
0.00958617
0.0231112
0.0369366
0.039554
0.027971
0.0205564
0.0404321
0.0681079
0.0549065
0.0269022
0.00371455
0.0041396
0.0045146
0.00486104
0.00519485
0.00552282
0.00580051
0.00594393
0.00594638
0.00586029
0.00572751
0.00558626
0.005487
0.00543235
0.00541899
0.00545955
0.00557314
0.00576335
0.00598267
0.0061552
0.00623357
0.00621465
0.00590804
0.00558365
0.00535749
0.00523561
0.00508587
0.00487428
0.00464586
0.00439157
0.00413289
0.00388055
0.00362883
0.00339187
0.00319264
0.00306087
0.00304757
0.00316176
0.00336963
0.00358137
0.00378218
0.00407258
0.00406676
0.00373
0.00329576
0.00295001
0.00259655
0.00217215
0.00190718
0.00253612
0.0039138
0.00468535
0.00386077
0.00387054
0.00453965
0.00703853
0.0117231
0.0153552
0.0179
0.0157405
0.0122336
0.0101747
0.0086248
0.0079309
0.00836918
0.00960255
0.0113051
0.0131027
0.0133297
0.0126544
0.0112991
0.00953171
0.00739031
0.00636061
0.00741347
0.00981215
0.0151915
0.0357219
0.0606441
0.0198671
0.00861429
0.013744
0.0300796
0.0491633
0.0261797
0.0140789
0.00902551
0.00736498
0.00485262
0.00333274
0.0293752
0.0638386
0.0695752
0.0481871
0.0165019
0.023801
0.0327369
0.0315077
0.0354935
0.0372784
0.0618344
0.0679984
0.0486097
0.0195814
0.00400358
0.00437669
0.00470719
0.00501541
0.00531397
0.00559966
0.00581912
0.00588639
0.00583285
0.00571236
0.00555707
0.00540782
0.00529906
0.00523094
0.00519849
0.00521089
0.00528338
0.00544327
0.00567714
0.00589588
0.00601748
0.00608973
0.00585228
0.00552819
0.00528116
0.0051136
0.00488905
0.00456481
0.00421723
0.00389394
0.00360059
0.00331122
0.00302038
0.00273553
0.00246755
0.00228162
0.00222276
0.00229319
0.00248992
0.00272364
0.00299265
0.00337883
0.00343902
0.00309453
0.00262693
0.00227189
0.00189704
0.00140876
0.00115657
0.00187029
0.0034142
0.00438963
0.00389211
0.0036156
0.00410858
0.00614836
0.010102
0.0132153
0.0155542
0.0137239
0.0103597
0.00814364
0.00613808
0.00530305
0.00585785
0.00726035
0.00899361
0.0105897
0.0105764
0.0100221
0.00878737
0.00672467
0.00486115
0.00432359
0.00461888
0.00684121
0.0126149
0.0311505
0.0539115
0.0226467
0.0187218
0.0384613
0.0548711
0.0610093
0.0217619
0.00994122
0.00936027
0.00743114
0.00463477
0.0109957
0.0373602
0.0539953
0.0598063
0.0485784
0.0312196
0.0266668
0.0274822
0.0235178
0.0294851
0.0397126
0.0663473
0.0636997
0.0419827
0.014107
0.00419773
0.00452168
0.00481104
0.00508459
0.00535008
0.0055938
0.00574464
0.00573696
0.00562773
0.00547078
0.00529474
0.00513817
0.00501602
0.00493015
0.0048754
0.00485696
0.00487974
0.00498763
0.005218
0.0054671
0.00562838
0.00577194
0.00562678
0.00530616
0.00504574
0.00480275
0.00444629
0.00396469
0.00350202
0.00312803
0.00281704
0.00252189
0.00220662
0.00188543
0.00156671
0.001355
0.00126443
0.00129573
0.00145603
0.00170954
0.00203703
0.00247488
0.00260347
0.00228862
0.00182208
0.00148339
0.00112244
0.000659651
0.000489721
0.00118704
0.0028695
0.00408841
0.00402573
0.00360666
0.00395368
0.00539575
0.00804472
0.0104618
0.0128756
0.0114899
0.00820643
0.00564032
0.00319676
0.00234143
0.00291019
0.00428451
0.00589666
0.00718525
0.00694175
0.00665539
0.00578844
0.00467869
0.00406138
0.00388268
0.00357182
0.00510653
0.00820979
0.0258153
0.0472658
0.0257388
0.0296747
0.0596309
0.0720091
0.0614337
0.0170696
0.00984077
0.00913277
0.00709556
0.00619605
0.0159481
0.0261815
0.0405311
0.0503742
0.046412
0.0345317
0.0251786
0.0220688
0.0191039
0.0232569
0.0367517
0.0596072
0.0578199
0.0374055
0.0123487
0.00429744
0.00457659
0.00482956
0.00507331
0.00530758
0.00550604
0.00558066
0.00550251
0.00533924
0.00514555
0.00495452
0.00478754
0.00464906
0.0045409
0.00446059
0.00440902
0.00437397
0.00441415
0.0046141
0.00487714
0.00507543
0.00524768
0.00520428
0.00489556
0.0046233
0.00425202
0.00369151
0.00304342
0.00251702
0.00213028
0.00182712
0.00153816
0.00122983
0.000927234
0.000660725
0.00051481
0.000460061
0.000461828
0.000543673
0.000713118
0.00097958
0.00134844
0.00156774
0.00134021
0.00095911
0.000703416
0.000448461
0.000200721
0.000148492
0.000612529
0.00221344
0.00350557
0.00369538
0.0034305
0.00347302
0.00398651
0.00538998
0.00732024
0.00982653
0.0087651
0.00538966
0.00271232
0.00085104
0.000480925
0.000933882
0.00193771
0.00280259
0.00332461
0.00314492
0.00370998
0.00412685
0.00394094
0.00335559
0.00375775
0.00325679
0.00438323
0.00609045
0.0198481
0.0405662
0.0278052
0.0289417
0.0676243
0.0710452
0.0553676
0.0129636
0.00927967
0.00805224
0.00655276
0.00654333
0.00988562
0.0135739
0.0246273
0.0397427
0.0428575
0.0304742
0.0210359
0.0177272
0.0230914
0.0257455
0.0341038
0.0525591
0.0508602
0.0332038
0.0143735
0.00430878
0.0045474
0.00476958
0.00498913
0.00519126
0.00533302
0.00532877
0.00518237
0.00496615
0.00473843
0.00453496
0.00436106
0.0042049
0.00407145
0.00396313
0.00387439
0.00377739
0.00374424
0.00388693
0.00414509
0.00436677
0.00454814
0.00456199
0.00428531
0.00395695
0.00336631
0.0025758
0.00187463
0.00140369
0.00108282
0.000849005
0.000649279
0.000473079
0.000322214
0.000209589
0.000151084
0.000124864
0.000117199
0.000130792
0.000174101
0.000266931
0.000431089
0.000605224
0.000523637
0.000330612
0.000223011
0.000144249
8.09044e-05
6.7439e-05
0.00024303
0.00123443
0.00240334
0.00271302
0.00245344
0.00202894
0.00197634
0.00266705
0.00407162
0.00636221
0.00560853
0.00264514
0.000795634
0.000118735
8.18965e-05
0.000295142
0.000889202
0.00143959
0.00151353
0.00147423
0.00235531
0.00317264
0.00309552
0.00279732
0.00350871
0.00316057
0.0036874
0.00566162
0.0159011
0.0344038
0.0272807
0.0256086
0.0619048
0.0629428
0.0480388
0.0104451
0.00825007
0.00617072
0.00532336
0.00575076
0.00477355
0.00676065
0.0134196
0.0326254
0.0377845
0.0249128
0.0170555
0.0137533
0.0234864
0.0265882
0.0334226
0.0463881
0.044349
0.0289839
0.0151244
0.00402838
0.00411538
0.00423787
0.00437414
0.00439715
0.00422313
0.00387904
0.00345067
0.0030164
0.00261114
0.00233566
0.00214869
0.00198369
0.00185374
0.00174125
0.0016105
0.0014353
0.00129538
0.00127051
0.00134613
0.00144834
0.00151508
0.00151941
0.001417
0.00109171
0.000598285
0.000297216
0.000165223
0.000103477
6.94638e-05
4.90997e-05
3.63523e-05
2.91195e-05
2.36949e-05
1.89736e-05
1.52997e-05
1.24676e-05
1.00874e-05
8.22468e-06
7.06948e-06
6.40224e-06
6.12436e-06
1.08032e-05
2.24033e-05
3.47461e-05
4.76456e-05
5.15671e-05
4.11884e-05
2.89483e-05
2.7506e-05
4.36577e-05
9.54573e-05
0.000114054
8.16297e-05
4.52242e-05
4.87773e-05
0.000127343
0.000334261
0.000636129
0.000318896
8.772e-05
1.98979e-05
2.26531e-06
2.96429e-06
4.19715e-05
0.000108823
9.22983e-05
2.95122e-05
1.86248e-05
6.08712e-05
0.000206563
0.000745588
0.000899325
0.00136606
0.00161707
0.00105384
0.0045642
0.00722187
0.0162983
0.0174399
0.0124134
0.0231868
0.0274271
0.0169374
0.00426868
0.00381527
0.0014258
0.00101227
0.00136783
0.00279286
0.00537838
0.00743921
0.00815084
0.0102525
0.00740094
0.00457062
0.00517796
0.0144737
0.019137
0.0183662
0.0166864
0.0128145
0.0126698
0.0110038
0.00109387
0.00101381
0.000932157
0.000838748
0.000728999
0.000602811
0.000465782
0.000350228
0.000273003
0.000223123
0.000193373
0.000169272
0.000143875
0.000114104
8.17416e-05
4.9646e-05
2.74476e-05
1.635e-05
1.06177e-05
7.40342e-06
5.3261e-06
3.66282e-06
2.14759e-06
8.95079e-07
2.02201e-07
3.08102e-08
1.05026e-08
1.29711e-08
2.1108e-08
2.81523e-08
3.24035e-08
4.21816e-08
6.04145e-08
9.12413e-08
1.32298e-07
1.65845e-07
1.85822e-07
1.767e-07
2.05967e-07
1.8789e-07
2.10971e-07
2.16578e-07
1.9821e-07
3.43236e-07
1.69306e-06
6.01272e-06
8.89929e-06
9.63053e-06
8.30241e-06
5.29726e-06
3.27909e-06
1.29568e-06
1.96119e-07
1.95788e-08
2.32503e-08
6.96899e-08
1.66425e-07
2.73099e-07
6.40997e-07
1.43127e-06
3.11218e-06
5.71034e-06
8.39945e-06
8.00457e-06
6.47784e-06
5.34233e-06
4.5642e-06
4.65926e-06
4.17549e-06
2.63483e-06
1.83317e-06
2.05526e-06
7.57227e-07
5.96082e-06
0.000176716
0.000709201
0.00102309
0.00118763
0.00271859
0.00527957
0.00576037
0.004912
0.00588526
0.00702465
0.00101491
2.78453e-05
2.53724e-06
8.88446e-07
2.4006e-06
7.04923e-05
0.000745343
0.00249041
0.00491712
0.0072916
0.00736036
0.00484153
0.00208277
0.0024197
0.00370496
0.00538319
0.00713456
0.00927009
0.0137876
0.0131501
9.28368e-06
3.822e-06
1.38692e-06
5.73851e-07
3.32042e-07
2.09409e-07
1.17888e-07
5.46375e-08
1.74165e-08
1.10784e-08
4.43618e-08
1.53724e-07
3.04817e-07
3.8069e-07
3.88173e-07
3.31697e-07
2.29636e-07
1.35911e-07
8.67032e-08
8.68624e-08
1.10613e-07
1.46577e-07
1.83442e-07
2.2577e-07
2.79501e-07
3.70867e-07
4.94427e-07
6.61613e-07
8.80746e-07
1.17975e-06
1.59019e-06
2.17267e-06
3.00483e-06
4.05408e-06
5.58703e-06
7.43731e-06
9.90789e-06
1.28806e-05
1.62303e-05
2.07945e-05
2.45849e-05
2.98124e-05
3.46915e-05
3.5434e-05
3.31057e-05
2.833e-05
2.24579e-05
1.68895e-05
1.19478e-05
7.86608e-06
4.78379e-06
3.01509e-06
3.60172e-06
8.13074e-06
1.72465e-05
3.20248e-05
4.89972e-05
7.42346e-05
8.02325e-05
8.85354e-05
0.000108334
0.000144088
0.000190365
0.000249329
0.000309731
0.000386201
0.000486385
0.000641146
0.000868757
0.000870643
0.000836896
0.000783217
0.00069855
0.0006068
0.000444471
0.000416475
0.000402782
0.000461695
0.000329897
0.000241944
0.000273921
0.000290402
0.000352829
0.000549342
0.00052873
0.000492051
0.000512511
0.00063655
0.000699398
0.000601316
0.00126493
0.00308789
0.00395862
0.0035042
0.00238779
0.00163169
0.0014186
0.0014575
0.00175094
0.00368262
0.0127219
0.0153981
0.0131327
0.00801072
1.60442e-06
1.51251e-06
1.44266e-06
1.25319e-06
1.06536e-06
9.32632e-07
8.36074e-07
7.78431e-07
7.58538e-07
7.8561e-07
8.59658e-07
9.72178e-07
1.12835e-06
1.35474e-06
1.68482e-06
2.18283e-06
2.92148e-06
3.97466e-06
5.44062e-06
7.36119e-06
9.87774e-06
1.32059e-05
1.71779e-05
2.21312e-05
2.87804e-05
3.78122e-05
5.04317e-05
6.84991e-05
9.47676e-05
0.000133139
0.000188644
0.000268601
0.000384172
0.000547527
0.000773835
0.00107795
0.0014744
0.00196914
0.00257285
0.00328154
0.00405581
0.00485707
0.00562168
0.00595744
0.00608947
0.00603603
0.0059267
0.00577945
0.00561773
0.00557838
0.00566132
0.00594856
0.00648608
0.00741362
0.00874816
0.0104479
0.0123797
0.014526
0.0160515
0.0175901
0.0194503
0.021765
0.024422
0.0272403
0.0300831
0.0328832
0.035763
0.0390073
0.0416073
0.0415301
0.0399647
0.0375305
0.034181
0.0271047
0.0161211
0.0149084
0.0177378
0.0220066
0.0205434
0.0176815
0.0159245
0.0154506
0.0172149
0.0211695
0.0241122
0.0273027
0.0293432
0.029456
0.0268674
0.0177484
0.00924438
0.00594091
0.00430858
0.00344391
0.00275097
0.00214689
0.00154582
0.00126412
0.00184953
0.00485137
0.00823909
0.00575428
0.00243819
0.000742565
2.08016e-05
2.70359e-05
3.48406e-05
4.46728e-05
4.84254e-05
5.23916e-05
5.60196e-05
6.05303e-05
6.72471e-05
7.74395e-05
9.25144e-05
0.000114855
0.000147567
0.000194418
0.000261034
0.00035673
0.000495283
0.000695035
0.000972969
0.00134278
0.00181274
0.00238056
0.00305196
0.00384648
0.00480278
0.00593628
0.00725864
0.00880305
0.0106066
0.0127058
0.0151239
0.0178984
0.0210416
0.0245288
0.0282693
0.0321605
0.0360847
0.0399372
0.0434242
0.0465137
0.048826
0.0507556
0.0520565
0.0523685
0.0523361
0.0521077
0.0516608
0.0510653
0.0503816
0.0504352
0.0510959
0.0524159
0.0543219
0.0569771
0.0601358
0.0635914
0.0671798
0.069826
0.0711366
0.0725893
0.0747554
0.0775589
0.0807492
0.0841445
0.087561
0.0901406
0.0930851
0.0960121
0.0968986
0.0969629
0.0955184
0.0924016
0.0870611
0.0741185
0.0601333
0.0618735
0.068988
0.0786172
0.0795022
0.0798236
0.0816078
0.0852548
0.092614
0.0992026
0.102063
0.10444
0.100785
0.0918933
0.0733179
0.0406283
0.0156059
0.00735669
0.00474951
0.0036071
0.0023906