/*--------------------------------*- C++ -*----------------------------------*\
| =========                 |                                                 |
| \\      /  F ield         | OpenFOAM: The Open Source CFD Toolbox           |
|  \\    /   O peration     | Version:  v1912                                 |
|   \\  /    A nd           | Website:  www.openfoam.com                      |
|    \\/     M anipulation  |                                                 |
\*---------------------------------------------------------------------------*/
FoamFile
{
    version     2.0;
    format      ascii;
    class       surfaceScalarField;
    location    "100";
    object      phi;
}
// * * * * * * * * * * * * * * * * * * * * * * * * * * * * * * * * * * * * * //

dimensions      [0 3 -1 0 0 0 0];
oriented        oriented;


internalField   nonuniform List<scalar> 
28285
(
-0.00123264
1.58696e-05
-0.0012458
1.316e-05
-0.00125669
1.08951e-05
-0.00126561
8.91675e-06
-0.00127327
7.65842e-06
-0.00127946
6.18998e-06
-0.00128401
4.55269e-06
-0.00128736
3.35065e-06
-0.00128717
-1.85524e-07
-0.00128425
-2.92079e-06
-0.00127672
-7.53558e-06
-0.00126447
-1.22473e-05
-0.00124763
-1.68444e-05
-0.00122617
-2.14565e-05
-0.00120032
-2.58532e-05
-0.00116908
-3.12326e-05
-0.00113313
-3.5959e-05
-0.00109577
-3.73572e-05
-0.00106267
-3.30989e-05
-0.00103767
-2.5004e-05
-0.00102257
-1.5099e-05
-0.00101571
-6.85682e-06
-0.00101294
-2.76588e-06
-0.00100905
-3.89804e-06
-0.000998715
-1.03309e-05
-0.000981025
-1.76895e-05
-0.00095888
-2.21452e-05
-0.000933512
-2.53681e-05
-0.00090217
-3.1342e-05
-0.000866053
-3.61162e-05
-0.000825497
-4.05568e-05
-0.000781642
-4.38552e-05
-0.000732504
-4.91371e-05
-0.000678702
-5.38019e-05
-0.000620967
-5.77358e-05
-0.000561852
-5.91142e-05
-0.000502865
-5.89873e-05
-0.000445961
-5.69042e-05
-0.000395177
-5.07844e-05
-0.00035441
-4.07663e-05
-0.000325314
-2.90958e-05
-0.000309365
-1.59492e-05
-0.000300228
-9.13711e-06
-0.000294579
-5.64874e-06
-0.000289534
-5.04529e-06
-0.000282793
-6.74111e-06
-0.000272687
-1.01064e-05
-0.00025569
-1.69962e-05
-0.000227559
-2.81314e-05
-0.00019425
-3.33084e-05
-0.000195617
1.36668e-06
-0.00025267
5.70528e-05
-0.000314748
6.20782e-05
-0.000353137
3.8389e-05
-0.000362271
9.13384e-06
-0.000330451
-3.18198e-05
-0.000233352
-9.70995e-05
-0.000138077
-9.52743e-05
-0.000105137
-3.29401e-05
-9.29108e-05
-1.22264e-05
-7.91271e-05
-1.37837e-05
-4.83735e-05
-3.07536e-05
1.83108e-05
-6.66844e-05
0.000109626
-9.1315e-05
0.000196649
-8.70231e-05
0.000273145
-7.64964e-05
0.000335331
-6.21861e-05
0.000377561
-4.22296e-05
0.000410537
-3.29764e-05
0.00043324
-2.27024e-05
0.000443318
-1.00778e-05
0.000454247
-1.09296e-05
0.000533003
-7.87558e-05
0.000701233
-0.00016823
0.000827614
-0.000126381
0.000823756
3.85825e-06
0.000776416
4.73403e-05
0.000946014
-0.000169598
0.0011757
-0.000229687
0.00108635
8.93472e-05
0.000847802
0.000238552
0.000714765
0.000133037
0.000579564
0.000135202
0.000532516
4.70475e-05
0.000622854
-9.03376e-05
0.000735489
-0.000112635
0.00081638
-8.08907e-05
0.000884076
-6.76958e-05
0.000932738
-4.86619e-05
0.00098369
-5.09527e-05
0.00106482
-8.11314e-05
0.0011918
-0.000126983
0.00147801
-0.000286205
0.00157293
-9.49225e-05
0.00151051
6.24177e-05
0.00174677
-0.000236259
0.00216276
-0.000415989
0.00231383
-0.000151063
0.00172728
0.000586543
0.0010742
0.000653079
0.00138244
-0.000308234
0.00194537
-0.000562939
0.00213945
-0.000194073
3.50271e-05
0.00210442
-0.00122664
3.16537e-05
-0.0012397
2.62193e-05
-0.00125065
2.18497e-05
-0.00125998
1.82446e-05
-0.00126828
1.59614e-05
-0.00127525
1.31547e-05
-0.00128021
9.51792e-06
-0.00128382
6.95443e-06
-0.00128386
-1.40809e-07
-0.0012813
-5.48904e-06
-0.00127404
-1.47887e-05
-0.00126233
-2.39602e-05
-0.00124601
-3.31671e-05
-0.00122535
-4.21092e-05
-0.00120028
-5.0931e-05
-0.00117004
-6.14655e-05
-0.00113502
-7.09838e-05
-0.00109882
-7.35572e-05
-0.00106691
-6.50042e-05
-0.00104289
-4.90313e-05
-0.00102801
-2.99748e-05
-0.00102047
-1.43971e-05
-0.00101645
-6.78799e-06
-0.0010112
-9.14486e-06
-0.00100033
-2.12032e-05
-0.000982608
-3.54103e-05
-0.000960815
-4.39376e-05
-0.000935463
-5.07204e-05
-0.000904277
-6.25283e-05
-0.000868193
-7.22004e-05
-0.000827986
-8.07632e-05
-0.000784342
-8.74994e-05
-0.000735628
-9.78509e-05
-0.000681947
-0.000107483
-0.000624823
-0.00011486
-0.000566555
-0.000117382
-0.000508783
-0.000116759
-0.000453602
-0.000112085
-0.000404673
-9.97135e-05
-0.000365404
-8.00353e-05
-0.000337143
-5.73563e-05
-0.000320815
-3.22777e-05
-0.000310664
-1.9288e-05
-0.000302925
-1.33876e-05
-0.000294876
-1.30944e-05
-0.000285403
-1.62136e-05
-0.000274041
-2.1469e-05
-0.000257505
-3.35322e-05
-0.00023319
-5.24463e-05
-0.000204715
-6.17828e-05
-0.000211383
8.03381e-06
-0.000271496
0.000117166
-0.000332541
0.000123123
-0.00036468
7.05284e-05
-0.000359382
3.83521e-06
-0.000303479
-8.7722e-05
-0.000202149
-0.00019843
-0.000123993
-0.00017343
-0.000103822
-5.31112e-05
-0.000101039
-1.50092e-05
-8.83386e-05
-2.64845e-05
-5.41673e-05
-6.4925e-05
1.27349e-05
-0.000133586
9.90121e-05
-0.000177592
0.000183861
-0.000171872
0.000258202
-0.000150837
0.000310059
-0.000114043
0.000339078
-7.1248e-05
0.000362826
-5.67251e-05
0.000382232
-4.21086e-05
0.000395895
-2.37406e-05
0.000416558
-3.15922e-05
0.000502288
-0.000164485
0.000655775
-0.000321717
0.000771832
-0.000242438
0.000785854
-1.01633e-05
0.00076798
6.52141e-05
0.00092662
-0.000328239
0.00110775
-0.000410821
0.000970892
0.000226209
0.000692126
0.000517318
0.000558487
0.000266676
0.000530178
0.00016351
0.000534767
4.24587e-05
0.000577736
-0.000133306
0.00063092
-0.000165819
0.000678527
-0.000128498
0.000726241
-0.00011541
0.000789229
-0.00011165
0.000875423
-0.000137146
0.000993127
-0.000198836
0.00115483
-0.000288684
0.00139919
-0.000530562
0.00145043
-0.000146168
0.00139394
0.000118911
0.0015514
-0.000393723
0.00176797
-0.000632555
0.00189006
-0.000273156
0.00156951
0.000907095
0.001091
0.00113159
0.00123267
-0.00044991
0.00150602
-0.000836282
0.00158628
-0.000274335
-3.70953e-05
0.0016584
-0.00122678
4.73695e-05
-0.00123991
3.93548e-05
-0.00125118
3.31195e-05
-0.001261
2.80684e-05
-0.00126955
2.45053e-05
-0.00127626
1.98657e-05
-0.00128032
1.35748e-05
-0.00128226
8.89902e-06
-0.0012802
-2.19769e-06
-0.00127502
-1.06691e-05
-0.00126572
-2.40966e-05
-0.00125242
-3.726e-05
-0.00123519
-5.03961e-05
-0.00121418
-6.3116e-05
-0.00118887
-7.62365e-05
-0.00115854
-9.18046e-05
-0.00112335
-0.000106167
-0.00108697
-0.000109941
-0.00105509
-9.68854e-05
-0.00103156
-7.25555e-05
-0.00101778
-4.37628e-05
-0.00101169
-2.04868e-05
-0.00100906
-9.40981e-06
-0.00100515
-1.3057e-05
-0.000995614
-3.0741e-05
-0.000978448
-5.25766e-05
-0.000956337
-6.60484e-05
-0.000930133
-7.69247e-05
-0.000897978
-9.46832e-05
-0.000860621
-0.000109557
-0.000819302
-0.000122083
-0.000774641
-0.00013216
-0.000725064
-0.000147428
-0.000670626
-0.000161921
-0.000612861
-0.000172625
-0.000553852
-0.00017639
-0.000495239
-0.000175373
-0.000439417
-0.000167907
-0.000390149
-0.000148982
-0.000350965
-0.000119219
-0.000323274
-8.50477e-05
-0.000306881
-4.8671e-05
-0.000296658
-2.95109e-05
-0.000288683
-2.13624e-05
-0.000280924
-2.08538e-05
-0.000272979
-2.41583e-05
-0.000263938
-3.05104e-05
-0.000248571
-4.88989e-05
-0.000225532
-7.54846e-05
-0.000197285
-9.00306e-05
-0.000202464
1.32129e-05
-0.000259592
0.000174294
-0.000320412
0.000183943
-0.000355582
0.000105699
-0.000354165
2.41744e-06
-0.000306363
-0.000135524
-0.000212737
-0.000292056
-0.000136208
-0.000249958
-0.000113483
-7.58367e-05
-0.000104828
-2.36642e-05
-8.55735e-05
-4.57389e-05
-4.88596e-05
-0.000101639
1.88987e-05
-0.000201345
0.000106641
-0.000265334
0.000193659
-0.000258891
0.000271466
-0.000228644
0.000332895
-0.000175472
0.000372879
-0.000111232
0.000402573
-8.64186e-05
0.000423692
-6.32278e-05
0.000434962
-3.50103e-05
0.000449
-4.563e-05
0.000524449
-0.000239934
0.00068525
-0.000482519
0.000821207
-0.000378395
0.000834705
-2.36617e-05
0.000798022
0.000101897
0.000935131
-0.000465347
0.00113697
-0.000612661
0.00105151
0.00031167
0.000772321
0.000796508
0.000592176
0.00044682
0.000509362
0.000246325
0.000489319
6.25012e-05
0.000570769
-0.000214756
0.000682972
-0.000278022
0.000779181
-0.000224707
0.000850494
-0.000186723
0.000908601
-0.000169758
0.000972777
-0.000201322
0.00106885
-0.000294909
0.00121191
-0.000431749
0.00145397
-0.000772622
0.00155886
-0.000251052
0.00154293
0.000134841
0.00169094
-0.000541736
0.0019067
-0.00084831
0.00195149
-0.00031795
0.00148328
0.0013753
0.000951369
0.0016635
0.00130312
-0.000801666
0.0020294
-0.00156256
0.00221398
-0.000458913
4.15548e-05
0.00213533
-0.00122692
6.3087e-05
-0.00124021
5.26446e-05
-0.00125174
4.46502e-05
-0.00126185
3.81766e-05
-0.00127036
3.30207e-05
-0.00127675
2.62503e-05
-0.00128049
1.73176e-05
-0.00128153
9.93812e-06
-0.00127844
-5.29129e-06
-0.00127207
-1.70311e-05
-0.00126176
-3.44111e-05
-0.00124769
-5.13265e-05
-0.00123009
-6.79994e-05
-0.00120892
-8.42824e-05
-0.00118355
-0.00010161
-0.00115335
-0.000122001
-0.00111835
-0.000141167
-0.00108209
-0.000146199
-0.00105037
-0.000128608
-0.00102723
-9.56979e-05
-0.00101413
-5.68638e-05
-0.00100886
-2.57578e-05
-0.00100699
-1.1278e-05
-0.00100367
-1.63711e-05
-0.000994677
-3.97392e-05
-0.0009778
-6.94531e-05
-0.000955544
-8.83045e-05
-0.000928878
-0.000103591
-0.000896176
-0.000127385
-0.000858243
-0.00014749
-0.000816467
-0.000163859
-0.000771364
-0.000177264
-0.000721409
-0.000197383
-0.000666775
-0.000216555
-0.000608963
-0.000230437
-0.000549957
-0.000235396
-0.000491634
-0.000233696
-0.00043633
-0.000223211
-0.000387654
-0.000197658
-0.000348997
-0.000157876
-0.000321591
-0.000112454
-0.000304784
-6.54775e-05
-0.000293855
-4.04406e-05
-0.000284769
-3.04484e-05
-0.00027606
-2.95622e-05
-0.000268041
-3.21771e-05
-0.00026
-3.85523e-05
-0.000245781
-6.31173e-05
-0.000224042
-9.7224e-05
-0.000198939
-0.000115133
-0.000208755
2.30292e-05
-0.000267276
0.000232815
-0.000325613
0.00024228
-0.000356646
0.000136732
-0.000349028
-5.20053e-06
-0.000290805
-0.000193747
-0.000197397
-0.000385464
-0.000126962
-0.000320393
-0.000106229
-9.65706e-05
-0.000103624
-2.62686e-05
-9.055e-05
-5.88132e-05
-5.49049e-05
-0.000137284
1.19121e-05
-0.000268162
9.4683e-05
-0.000348105
0.000173471
-0.000337679
0.000247756
-0.000302929
0.000305739
-0.000233456
0.000337031
-0.000142524
0.000361208
-0.000110595
0.000379646
-8.16665e-05
0.000387413
-4.27769e-05
0.000405741
-6.39581e-05
0.000494347
-0.00032854
0.00064727
-0.000635442
0.000752047
-0.000483172
0.000732323
-3.93766e-06
0.000695714
0.000138507
0.000894278
-0.000663911
0.00112194
-0.000840322
0.000990964
0.000442644
0.000692819
0.00109465
0.000535819
0.000603821
0.000493162
0.000288981
0.000507747
4.79167e-05
0.00057412
-0.00028113
0.000638346
-0.000342248
0.00069514
-0.000281501
0.000755745
-0.000247327
0.000825892
-0.000239905
0.000906625
-0.000282054
0.0010047
-0.000392986
0.00114893
-0.000575975
0.00138025
-0.00100395
0.00144413
-0.000314923
0.00140784
0.000171126
0.00157256
-0.000706451
0.00180104
-0.00107679
0.00187757
-0.000394483
0.00153732
0.00171555
0.00131129
0.00188953
0.00133464
-0.000825011
0.00132519
-0.00155311
0.00153738
-0.000671101
-0.000146636
0.00172557
-0.00122718
7.89039e-05
-0.0012407
6.61687e-05
-0.00125254
5.649e-05
-0.00126293
4.85606e-05
-0.00127154
4.16369e-05
-0.00127791
3.26182e-05
-0.00128162
2.10276e-05
-0.00128229
1.06051e-05
-0.00127853
-9.04536e-06
-0.00127115
-2.44133e-05
-0.00125974
-4.58261e-05
-0.00124457
-6.64889e-05
-0.00122604
-8.65386e-05
-0.00120413
-0.000106191
-0.00117824
-0.000127494
-0.00114779
-0.000152458
-0.00111273
-0.000176228
-0.00107643
-0.000182493
-0.00104457
-0.000160465
-0.00102136
-0.000118916
-0.00100844
-6.97799e-05
-0.00100366
-3.05345e-05
-0.00100249
-1.24473e-05
-0.00100014
-1.87292e-05
-0.000992064
-4.78106e-05
-0.00097572
-8.57975e-05
-0.000953444
-0.00011058
-0.000926402
-0.000130633
-0.000893211
-0.000160576
-0.000854481
-0.00018622
-0.000811799
-0.000206541
-0.000765744
-0.000223319
-0.000714934
-0.000248193
-0.000659668
-0.00027182
-0.000601501
-0.000288605
-0.000542304
-0.000294593
-0.00048391
-0.00029209
-0.000428747
-0.000278373
-0.000380348
-0.000246058
-0.00034211
-0.000196114
-0.000315222
-0.000139341
-0.000298498
-8.22015e-05
-0.000287312
-5.16269e-05
-0.000277597
-4.01631e-05
-0.000268176
-3.8984e-05
-0.000259829
-4.05235e-05
-0.000252015
-4.63665e-05
-0.000238472
-7.66604e-05
-0.000218633
-0.000117063
-0.000193991
-0.000139776
-0.000202544
3.15822e-05
-0.000261123
0.000291395
-0.000320973
0.00030213
-0.000352243
0.000168002
-0.000342137
-1.53069e-05
-0.000285871
-0.000250013
-0.000198999
-0.000472336
-0.000133512
-0.000385879
-0.000113311
-0.000116772
-0.000104173
-3.54063e-05
-8.27085e-05
-8.02781e-05
-4.2376e-05
-0.000177616
2.78264e-05
-0.000338364
0.000115023
-0.000435302
0.000201721
-0.000424377
0.000270471
-0.000371679
0.000307468
-0.000270452
0.000334107
-0.000169163
0.000363339
-0.000139827
0.000388427
-0.000106754
0.000412409
-6.6759e-05
0.000439086
-9.06354e-05
0.000520264
-0.000409718
0.00067272
-0.000787898
0.000804718
-0.00061517
0.000802163
-1.38252e-06
0.00080406
0.00013661
0.000986921
-0.000846772
0.00114705
-0.00100045
0.00102353
0.000566164
0.000715853
0.00140232
0.000533317
0.000786357
0.00047106
0.000351238
0.000494895
2.40825e-05
0.000602823
-0.000389058
0.000700526
-0.000439951
0.000776743
-0.000357718
0.000837
-0.000307584
0.000888389
-0.000291294
0.000948195
-0.000341859
0.00105433
-0.000499118
0.00123657
-0.000758221
0.00144726
-0.00121464
0.00148479
-0.000352451
0.00147073
0.000185184
0.00165002
-0.000885742
0.00185947
-0.00128623
0.00184825
-0.000383268
0.00176389
0.00179992
0.00164253
0.00201089
0.00130821
-0.000490693
0.00110212
-0.00134701
0.00125422
-0.0008232
-0.00038259
0.00149017
-0.0012276
9.49152e-05
-0.00124144
8.00013e-05
-0.0012536
6.86502e-05
-0.00126419
5.9154e-05
-0.0012729
5.03521e-05
-0.0012793
3.90135e-05
-0.00128304
2.47717e-05
-0.00128355
1.11068e-05
-0.0012795
-1.30874e-05
-0.00127165
-3.22707e-05
-0.00125975
-5.77229e-05
-0.00124416
-8.20765e-05
-0.00122532
-0.000105381
-0.00120323
-0.000128286
-0.00117729
-0.000153428
-0.00114692
-0.000182826
-0.001112
-0.000211148
-0.00107576
-0.000218734
-0.00104384
-0.000192388
-0.00102055
-0.000142201
-0.0010077
-8.26314e-05
-0.00100315
-3.5083e-05
-0.00100229
-1.33074e-05
-0.00100025
-2.07732e-05
-0.000992519
-5.55426e-05
-0.000976276
-0.00010204
-0.000953823
-0.000133033
-0.000926522
-0.000157934
-0.000893004
-0.000194093
-0.000853991
-0.000225233
-0.000811083
-0.000249449
-0.0007647
-0.000269701
-0.00071357
-0.000299324
-0.000658217
-0.000327174
-0.000600164
-0.000346658
-0.000541211
-0.000353546
-0.000483341
-0.00034996
-0.00042865
-0.000333064
-0.000380494
-0.000294213
-0.000342382
-0.000234226
-0.000315508
-0.000166215
-0.000298477
-9.92324e-05
-0.000286623
-6.34811e-05
-0.000275758
-5.1028e-05
-0.000265126
-4.96161e-05
-0.000256291
-4.9358e-05
-0.00024914
-5.35172e-05
-0.00023692
-8.88808e-05
-0.0002184
-0.000135583
-0.000196303
-0.000161872
-0.000206174
4.14533e-05
-0.000262597
0.000347818
-0.000321148
0.000360681
-0.000352502
0.000199356
-0.000339491
-2.83178e-05
-0.000277871
-0.000311634
-0.000193831
-0.000556376
-0.000134051
-0.000445659
-0.000115723
-0.0001351
-0.000108204
-4.29256e-05
-8.67851e-05
-0.000101696
-4.69599e-05
-0.000217442
2.28624e-05
-0.000408186
0.000107198
-0.000519637
0.000184517
-0.000501696
0.000250317
-0.00043748
0.000302237
-0.000322372
0.000339883
-0.000206809
0.000374198
-0.000174142
0.000404329
-0.000136885
0.000414206
-7.66363e-05
0.000427326
-0.000103755
0.000509452
-0.000491844
0.000656212
-0.000934658
0.00075431
-0.000713268
0.000789511
-3.65836e-05
0.000837817
8.8304e-05
0.000940465
-0.00094942
0.00102735
-0.00108733
0.0009029
0.000690611
0.000617246
0.00168798
0.000474285
0.000929317
0.000491329
0.000334195
0.000546912
-3.15007e-05
0.000629434
-0.000471581
0.000693783
-0.0005043
0.00072849
-0.000392425
0.000753896
-0.00033299
0.000808774
-0.000346172
0.000911902
-0.000444988
0.00105281
-0.000640023
0.00122618
-0.000931591
0.00138514
-0.00137361
0.00134498
-0.00031229
0.00129841
0.000231758
0.00151698
-0.00110432
0.00181579
-0.00158504
0.00181223
-0.000379705
0.00171443
0.00189771
0.00166749
0.00205783
0.0014224
-0.00024561
0.0012855
-0.00121011
0.00130721
-0.000844913
-0.000518536
0.00144316
-0.0012283
0.000111197
-0.00124246
9.41629e-05
-0.00125487
8.10604e-05
-0.00126562
6.99101e-05
-0.00127448
5.92089e-05
-0.001281
4.55293e-05
-0.0012848
2.8576e-05
-0.00128524
1.15413e-05
-0.00128101
-1.73125e-05
-0.00127281
-4.04758e-05
-0.00126052
-7.00049e-05
-0.0012445
-9.8103e-05
-0.00122519
-0.00012469
-0.00120269
-0.00015078
-0.00117652
-0.000179605
-0.00114609
-0.00021325
-0.00111131
-0.000245927
-0.0010752
-0.000254852
-0.0010432
-0.000224384
-0.00101974
-0.000165663
-0.00100673
-9.56405e-05
-0.00100207
-3.97386e-05
-0.00100113
-1.42544e-05
-0.000999148
-2.27512e-05
-0.000991721
-6.2969e-05
-0.000975716
-0.000118045
-0.000953198
-0.000155551
-0.000925753
-0.000185379
-0.000892045
-0.000227801
-0.000852585
-0.000264694
-0.000809059
-0.000292975
-0.000761996
-0.000316764
-0.000710243
-0.000351077
-0.000654528
-0.00038289
-0.000596526
-0.00040466
-0.000538028
-0.000412043
-0.0004807
-0.000407288
-0.000426713
-0.000387051
-0.000379142
-0.000341785
-0.000341073
-0.000272295
-0.000314118
-0.00019317
-0.000296796
-0.000116555
-0.000284378
-7.58984e-05
-0.000272623
-6.2783e-05
-0.000261119
-6.11208e-05
-0.000251851
-5.86259e-05
-0.000244781
-6.05873e-05
-0.00023351
-0.000100152
-0.000217876
-0.000151217
-0.000198256
-0.000181492
-0.000205616
4.88129e-05
-0.000257781
0.000399982
-0.000315361
0.000418262
-0.000346625
0.000230619
-0.000329978
-4.49645e-05
-0.000270128
-0.000371484
-0.000197234
-0.000629269
-0.000147667
-0.000495227
-0.000132591
-0.000150176
-0.000117098
-5.84188e-05
-8.09265e-05
-0.000137868
-2.55695e-05
-0.000272799
5.07765e-05
-0.000484533
0.000137983
-0.000606844
0.000224903
-0.000588616
0.00029875
-0.000511326
0.000341388
-0.000365011
0.000348221
-0.000213641
0.000356797
-0.000182718
0.000383229
-0.000163317
0.000415973
-0.000109381
0.000454408
-0.00014219
0.000547332
-0.000584768
0.000717435
-0.00110476
0.000857317
-0.000853151
0.000886042
-6.53084e-05
0.000864431
0.000109915
0.000966272
-0.00105126
0.00109604
-0.0012171
0.000902493
0.000884163
0.00055744
0.00203303
0.000425499
0.00106126
0.000468346
0.000291347
0.000540577
-0.000103732
0.00060665
-0.000537654
0.000674097
-0.000571746
0.000747697
-0.000466024
0.000832343
-0.000417637
0.000915563
-0.000429392
0.000989723
-0.000519148
0.00109266
-0.000742965
0.00125979
-0.00109871
0.00146108
-0.0015749
0.00145983
-0.000311045
0.00135595
0.000335641
0.00146355
-0.00121191
0.00173484
-0.00185634
0.00176963
-0.000414494
0.00155805
0.0021093
0.00151513
0.00210076
0.00139934
-0.000129826
0.0012505
-0.00106127
0.00133068
-0.000925096
-0.000801969
0.00161411
-0.00122923
0.000127815
-0.00124369
0.000108621
-0.00125628
9.36574e-05
-0.00126717
8.08008e-05
-0.00127616
6.81932e-05
-0.00128279
5.2156e-05
-0.00128667
3.246e-05
-0.00128713
1.20062e-05
-0.00128292
-2.15253e-05
-0.00127463
-4.87691e-05
-0.00126227
-8.2367e-05
-0.00124615
-0.000114215
-0.00122679
-0.000144057
-0.00120431
-0.000173255
-0.00117828
-0.00020564
-0.00114814
-0.000243385
-0.00111373
-0.000280338
-0.00107781
-0.000290773
-0.00104572
-0.000256474
-0.001022
-0.000189383
-0.00100874
-0.000108897
-0.00100399
-4.44947e-05
-0.00100304
-1.5203e-05
-0.00100098
-2.4814e-05
-0.000993535
-7.04094e-05
-0.000977419
-0.000134162
-0.000954645
-0.000178325
-0.000927005
-0.000213019
-0.000893025
-0.000261782
-0.000853309
-0.000304409
-0.000809616
-0.000336668
-0.00076234
-0.00036404
-0.000710453
-0.000402964
-0.000654805
-0.000438538
-0.000597105
-0.00046236
-0.000539151
-0.000469998
-0.00048288
-0.000463559
-0.000430108
-0.000439823
-0.000383157
-0.000388736
-0.000345001
-0.000310451
-0.000317555
-0.000220616
-0.000299591
-0.000134518
-0.000286285
-8.92043e-05
-0.00027352
-7.55483e-05
-0.000261126
-7.35151e-05
-0.000251527
-6.82245e-05
-0.000244957
-6.71577e-05
-0.000234436
-0.000110673
-0.000220927
-0.000164726
-0.00020606
-0.000196358
-0.000214016
5.67685e-05
-0.000260296
0.000446263
-0.000312809
0.000470774
-0.000342023
0.000259833
-0.00032346
-6.35273e-05
-0.000264881
-0.000430063
-0.000196396
-0.000697755
-0.000146675
-0.000544947
-0.000132869
-0.000163981
-0.000123876
-6.74118e-05
-9.65499e-05
-0.000165194
-4.71859e-05
-0.000322163
3.22829e-05
-0.000564001
0.000123463
-0.000698024
0.000210558
-0.000675711
0.000290447
-0.000591216
0.000348623
-0.000423186
0.000381264
-0.000246282
0.000407187
-0.000208641
0.000426014
-0.000182144
0.000429583
-0.00011295
0.00044096
-0.000153567
0.000525726
-0.000669533
0.000688949
-0.00126798
0.000816665
-0.000980866
0.000824641
-7.32843e-05
0.000825952
0.000108603
0.00096994
-0.00119525
0.00109128
-0.00133844
0.000916312
0.00105913
0.000539168
0.00241018
0.000374602
0.00122582
0.000412519
0.000253431
0.000501078
-0.000192291
0.000645754
-0.00068233
0.000735824
-0.000661817
0.000798868
-0.000529068
0.000854043
-0.000472812
0.000902801
-0.000478149
0.00096898
-0.000585327
0.00108368
-0.000857669
0.00126207
-0.0012771
0.00144566
-0.00175849
0.00143373
-0.000299115
0.001351
0.000418369
0.00141747
-0.00127838
0.00162422
-0.0020631
0.0017152
-0.000505468
0.00167879
0.0021457
0.0016168
0.00216275
0.00138664
0.000100338
0.0012089
-0.000883535
0.00144803
-0.00116423
-0.00112338
0.00176944
-0.00123042
0.000144774
-0.00124511
0.000123304
-0.00125784
0.000106393
-0.00126885
9.18119e-05
-0.00127799
7.73259e-05
-0.00128476
5.89307e-05
-0.00128872
3.64209e-05
-0.00128924
1.25222e-05
-0.00128506
-2.57047e-05
-0.00127668
-5.71424e-05
-0.0012642
-9.48549e-05
-0.00124792
-0.000130492
-0.0012284
-0.000163579
-0.00120586
-0.000195797
-0.00117989
-0.000231609
-0.00114997
-0.0002733
-0.00111591
-0.000314397
-0.00108025
-0.000326442
-0.00104817
-0.000288548
-0.00102427
-0.000213282
-0.00101066
-0.000122505
-0.00100542
-4.97397e-05
-0.00100392
-1.67007e-05
-0.00100155
-2.71838e-05
-0.000994101
-7.78601e-05
-0.000977979
-0.000150283
-0.000955093
-0.000201212
-0.000927373
-0.000240739
-0.000893334
-0.000295821
-0.000853417
-0.000344325
-0.000809423
-0.000380662
-0.000761786
-0.000411678
-0.00070962
-0.000455129
-0.000654003
-0.000494155
-0.000596692
-0.000519671
-0.000539585
-0.000527105
-0.000484349
-0.000518794
-0.000432485
-0.000491687
-0.000386024
-0.000435197
-0.000347651
-0.000348824
-0.000319697
-0.000248571
-0.0003011
-0.000153115
-0.000286928
-0.000103376
-0.000273254
-8.92218e-05
-0.000260103
-8.6666e-05
-0.000249669
-7.86586e-05
-0.000241537
-7.529e-05
-0.000231138
-0.000121071
-0.000221756
-0.000174108
-0.000212477
-0.000205638
-0.000219777
6.40686e-05
-0.000260103
0.000486589
-0.000308597
0.000519268
-0.000334703
0.000285939
-0.000313926
-8.43042e-05
-0.000258872
-0.000485117
-0.000189786
-0.000766841
-0.000141489
-0.000593244
-0.000136303
-0.000169168
-0.00012728
-7.64342e-05
-9.78338e-05
-0.00019464
-5.06566e-05
-0.00036934
2.98022e-05
-0.00064446
0.000126955
-0.000795177
0.000218337
-0.000767093
0.000294191
-0.000667069
0.000341753
-0.000470748
0.000365442
-0.000269971
0.000389675
-0.000232874
0.000415789
-0.000208258
0.000431435
-0.000128597
0.000449158
-0.000171289
0.000531085
-0.00075146
0.000694687
-0.00143159
0.000828646
-0.00111483
0.000852606
-9.72444e-05
0.000854979
0.000106231
0.000978403
-0.00131867
0.00110017
-0.0014602
0.000992314
0.00116698
0.000657343
0.00274515
0.000387972
0.00149519
0.000393691
0.000247711
0.000527558
-0.000326157
0.000624616
-0.000779388
0.000695627
-0.000732829
0.000764739
-0.00059818
0.00081886
-0.000526933
0.000875579
-0.000534868
0.000962666
-0.000672414
0.00109305
-0.00098805
0.0012744
-0.00145845
0.00146359
-0.00194768
0.00147573
-0.000311258
0.00140536
0.000488746
0.0014683
-0.00134132
0.0016882
-0.002283
0.00172712
-0.000544394
0.00175582
0.00211701
0.0017518
0.00216677
0.00138432
0.000467817
0.00123085
-0.000730064
0.00149779
-0.00143117
-0.00139577
0.00177018
-0.00123178
0.00016203
-0.00124664
0.00013817
-0.0012595
0.000119249
-0.00127062
0.000102936
-0.0012799
8.65995e-05
-0.00128681
6.5849e-05
-0.00129087
4.04812e-05
-0.00129151
1.31576e-05
-0.00128747
-2.97475e-05
-0.00127915
-6.54625e-05
-0.00126672
-0.000107277
-0.00125052
-0.000146697
-0.00123113
-0.000182971
-0.0012088
-0.000218124
-0.00118318
-0.000257233
-0.00115382
-0.000302659
-0.00112044
-0.000347778
-0.0010851
-0.000361782
-0.00105284
-0.000320808
-0.00102851
-0.000237607
-0.00101445
-0.000136565
-0.0010089
-5.52936e-05
-0.00100721
-1.83908e-05
-0.00100456
-2.98319e-05
-0.000996806
-8.56125e-05
-0.000980441
-0.000166649
-0.000957324
-0.000224329
-0.000929414
-0.000268649
-0.0008952
-0.000330035
-0.00085517
-0.000384354
-0.000811123
-0.000424709
-0.000763373
-0.000459427
-0.000711227
-0.000507276
-0.000655957
-0.000549425
-0.000599387
-0.000576241
-0.000543356
-0.000583136
-0.000489541
-0.000572609
-0.000439138
-0.000542091
-0.0003934
-0.000480935
-0.000354575
-0.000387649
-0.000325532
-0.000277614
-0.000305863
-0.000172784
-0.000290596
-0.000118643
-0.000275779
-0.000104039
-0.000261376
-0.000101069
-0.000249682
-9.03521e-05
-0.000241084
-8.38886e-05
-0.000230828
-0.000131327
-0.000222091
-0.000182845
-0.000218896
-0.000208832
-0.000231483
7.6655e-05
-0.000266931
0.000522037
-0.000308574
0.000560911
-0.000330615
0.00030798
-0.000310155
-0.000104764
-0.000252487
-0.000542785
-0.000178258
-0.000841071
-0.000129759
-0.000641742
-0.0001246
-0.000174327
-0.000120246
-8.07876e-05
-9.18736e-05
-0.000223013
-3.57347e-05
-0.000425479
4.49363e-05
-0.000725131
0.000131861
-0.000882102
0.000215073
-0.000850305
0.0002888
-0.000740796
0.00033724
-0.000519189
0.000365132
-0.000297863
0.000394235
-0.000261978
0.000414838
-0.000228861
0.000417236
-0.000130994
0.0004298
-0.000183854
0.000515656
-0.000837317
0.000680424
-0.00159635
0.000815505
-0.00124991
0.000836176
-0.000117915
0.000841957
0.000100449
0.000967129
-0.00144384
0.00109315
-0.00158622
0.000980092
0.00128003
0.000705296
0.00301994
0.000476505
0.00172398
0.000431984
0.000292233
0.00052502
-0.000419194
0.000621154
-0.000875522
0.000718297
-0.000829971
0.000794231
-0.000674114
0.000850259
-0.000582961
0.000904357
-0.000588966
0.000979022
-0.000747079
0.00110163
-0.00111065
0.00128141
-0.00163823
0.00146395
-0.00213022
0.00146459
-0.000311896
0.00138883
0.00056451
0.00148288
-0.00143537
0.00167694
-0.00247706
0.00174487
-0.000612319
0.00178063
0.00208125
0.00167761
0.00226978
0.00128876
0.000856668
0.00121867
-0.000659975
0.00151681
-0.0017293
-0.00164993
0.00177097
-0.00123327
0.000179516
-0.00124828
0.000153181
-0.00126125
0.000132217
-0.0012725
0.000114184
-0.00128193
9.60348e-05
-0.00128902
7.2931e-05
-0.00129318
4.4641e-05
-0.00129393
1.39104e-05
-0.00129001
-3.36613e-05
-0.00128172
-7.37526e-05
-0.0012693
-0.000119703
-0.00125308
-0.000162914
-0.00123373
-0.000202322
-0.00121158
-0.00024027
-0.00118632
-0.000282493
-0.00115756
-0.000331427
-0.00112499
-0.00038034
-0.00109009
-0.000396683
-0.00105763
-0.000353272
-0.00103284
-0.000262397
-0.00101822
-0.000151186
-0.00101206
-6.14538e-05
-0.00100971
-2.07375e-05
-0.00100651
-3.30351e-05
-0.000998247
-9.38745e-05
-0.000981786
-0.000183109
-0.000958662
-0.000247454
-0.000930596
-0.000296714
-0.000896378
-0.000364254
-0.000856185
-0.000424547
-0.000811905
-0.00046899
-0.000763925
-0.000507407
-0.000711752
-0.000559449
-0.000656847
-0.000604329
-0.000600995
-0.000632093
-0.000546075
-0.000638056
-0.000493629
-0.000625056
-0.000444585
-0.000591135
-0.00039972
-0.0005258
-0.000360678
-0.000426691
-0.000330602
-0.00030769
-0.000309662
-0.000193724
-0.00029305
-0.000135255
-0.000276889
-0.0001202
-0.000261287
-0.000116671
-0.000248789
-0.000102849
-0.000239834
-9.28439e-05
-0.000229845
-0.000141316
-0.000222253
-0.000190437
-0.00022199
-0.000209095
-0.000237869
9.25334e-05
-0.000272257
0.000556425
-0.000309696
0.00059835
-0.000330618
0.000328902
-0.000306758
-0.000128624
-0.000239292
-0.000610251
-0.000167929
-0.000912434
-0.000128322
-0.000681349
-0.000120959
-0.000181691
-0.000110391
-9.13556e-05
-7.95733e-05
-0.000253831
-3.18696e-05
-0.000473182
4.0786e-05
-0.000797787
0.000129969
-0.000971284
0.000215699
-0.000936035
0.000289369
-0.000814467
0.000340042
-0.000569861
0.000371865
-0.000329685
0.000397653
-0.000287766
0.000416627
-0.000247835
0.00042515
-0.000139517
0.000439153
-0.000197857
0.000519396
-0.000917559
0.000677988
-0.00175495
0.000811485
-0.0013834
0.000848101
-0.000154531
0.000865166
8.33837e-05
0.000969585
-0.00154826
0.00109909
-0.00171573
0.00101222
0.00136691
0.000734165
0.003298
0.000542222
0.00191593
0.000465263
0.000369192
0.000502555
-0.000456486
0.000632935
-0.0010059
0.000735307
-0.000932343
0.000805819
-0.000744626
0.00086353
-0.000640672
0.000917835
-0.000643271
0.000991045
-0.000820289
0.00111551
-0.00123512
0.00129187
-0.00181458
0.00145828
-0.00229664
0.00145412
-0.000307734
0.00138183
0.000636794
0.00155527
-0.00160881
0.00177612
-0.00269792
0.00190333
-0.000739523
0.0018898
0.00209478
0.00156572
0.00259386
0.0011742
0.00124819
0.00127004
-0.000755814
0.0016235
-0.00208276
-0.00181274
0.00178631
-0.00123485
0.000197174
-0.00124998
0.000168306
-0.00126306
0.000145294
-0.00127445
0.000125574
-0.00128406
0.000105649
-0.00129132
8.01894e-05
-0.0012956
4.89243e-05
-0.00129651
1.48181e-05
-0.00129276
-3.74073e-05
-0.00128456
-8.19516e-05
-0.00127225
-0.000132019
-0.00125618
-0.000178984
-0.0012371
-0.000221398
-0.0012154
-0.000261973
-0.00119078
-0.000307109
-0.00116296
-0.000359251
-0.00113171
-0.000411587
-0.00109747
-0.000430923
-0.00106451
-0.000386235
-0.00103884
-0.000288062
-0.00102342
-0.000166607
-0.00101676
-6.8113e-05
-0.0010141
-2.33988e-05
-0.00101041
-3.67317e-05
-0.0010015
-0.000102776
-0.000984795
-0.000199819
-0.000961524
-0.000270725
-0.000933189
-0.000325049
-0.000898819
-0.000398624
-0.000858542
-0.000464824
-0.000814256
-0.000513276
-0.000766285
-0.000555378
-0.000714349
-0.000611385
-0.000660017
-0.000658661
-0.000605051
-0.000687059
-0.000551345