/*--------------------------------*- C++ -*----------------------------------*\
| =========                 |                                                 |
| \\      /  F ield         | OpenFOAM: The Open Source CFD Toolbox           |
|  \\    /   O peration     | Version:  v1912                                 |
|   \\  /    A nd           | Website:  www.openfoam.com                      |
|    \\/     M anipulation  |                                                 |
\*---------------------------------------------------------------------------*/
FoamFile
{
    version     2.0;
    format      ascii;
    class       volScalarField;
    location    "80";
    object      omega;
}
// * * * * * * * * * * * * * * * * * * * * * * * * * * * * * * * * * * * * * //

dimensions      [0 0 -1 0 0 0 0];


internalField   nonuniform List<scalar> 
14268
(
2.98316
2.98316
2.98316
2.98316
2.98316
2.98316
2.98316
2.98316
2.98316
2.98316
2.98316
2.98316
2.98316
2.98316
2.98316
2.98316
2.98316
2.98316
2.98316
2.98316
2.98316
2.98316
2.98316
2.98316
2.98316
2.98316
2.98316
2.98317
2.98317
2.9832
2.98326
2.98335
2.98345
2.98354
2.98365
2.98375
2.98384
2.9841
2.98469
2.98554
3.27766
6.11959
12.2096
11.8216
0.608917
0.616463
0.615358
0.610975
0.611328
0.612661
0.608209
0.601242
0.59924
0.59793
0.595301
0.592186
0.587345
0.58244
0.580001
0.579045
0.57572
0.57133
0.569308
0.569735
0.573264
0.577728
0.582422
0.583801
0.579699
0.574724
0.571379
0.568742
0.548545
0.502035
0.458193
0.428289
0.416621
0.414048
0.410602
0.414498
0.418108
0.413843
0.401334
0.393678
0.528487
1.27704
3.25087
3.86066
0.251139
0.253897
0.252624
0.250284
0.251054
0.252743
0.251611
0.24909
0.248899
0.249418
0.249349
0.248588
0.246995
0.245511
0.245205
0.24552
0.244518
0.242837
0.242359
0.242778
0.243684
0.244397
0.24519
0.245106
0.243442
0.242006
0.240777
0.238661
0.231462
0.217103
0.20451
0.198855
0.199145
0.201433
0.205518
0.211097
0.21735
0.22562
0.240715
0.248027
0.319262
0.699809
1.7698
2.43499
0.181433
0.182468
0.181933
0.181031
0.181348
0.18201
0.181603
0.180688
0.180668
0.180935
0.180981
0.180719
0.180205
0.179788
0.17976
0.179913
0.179594
0.179033
0.178905
0.179081
0.179421
0.179665
0.179904
0.179858
0.179332
0.178916
0.178593
0.178
0.176058
0.172791
0.172423
0.175142
0.179091
0.183984
0.190015
0.196737
0.203721
0.213722
0.236146
0.235006
0.295343
0.567298
1.31616
1.92778
0.166687
0.167018
0.166827
0.16655
0.166671
0.166884
0.166744
0.166454
0.166448
0.166529
0.166556
0.166476
0.166325
0.166222
0.166242
0.166284
0.16619
0.166047
0.166032
0.166084
0.166181
0.166263
0.166355
0.166369
0.166256
0.166172
0.166163
0.166108
0.165774
0.165793
0.168021
0.172454
0.177281
0.182658
0.189094
0.195951
0.203077
0.213301
0.237045
0.236927
0.308732
0.543345
1.14513
1.68839
0.163597
0.163693
0.163614
0.163545
0.163601
0.163671
0.163617
0.16353
0.163523
0.163537
0.16355
0.163524
0.163477
0.163467
0.163488
0.163499
0.163477
0.163463
0.163483
0.163501
0.163516
0.163549
0.163602
0.163649
0.16366
0.163671
0.163743
0.16385
0.163953
0.164665
0.167482
0.172205
0.17714
0.182498
0.189008
0.195934
0.203064
0.213608
0.233406
0.238738
0.336411
0.563013
1.08359
1.56702
0.162978
0.162995
0.162953
0.162947
0.162987
0.163018
0.162987
0.162963
0.162945
0.162938
0.162944
0.162933
0.162919
0.162924
0.162947
0.162946
0.162944
0.16296
0.162989
0.162996
0.162995
0.163016
0.163061
0.16311
0.163153
0.163191
0.163291
0.16343
0.163641
0.164504
0.16741
0.172191
0.177204
0.182535
0.189043
0.195834
0.202847
0.214828
0.225006
0.242405
0.373522
0.605204
1.07716
1.51202
0.162873
0.162878
0.162841
0.16285
0.16288
0.162899
0.162874
0.162864
0.162847
0.162844
0.162849
0.162843
0.162831
0.162846
0.162867
0.162867
0.162872
0.162896
0.162928
0.162934
0.162925
0.162943
0.162986
0.163041
0.163096
0.163141
0.163239
0.163384
0.163616
0.164514
0.167424
0.172207
0.177234
0.182619
0.189418
0.196312
0.202993
0.216106
0.217255
0.252416
0.4191
0.661007
1.10126
1.49802
0.162871
0.162864
0.162831
0.162844
0.162877
0.162898
0.162878
0.162876
0.162847
0.162837
0.16284
0.162833
0.162829
0.162835
0.162853
0.16285
0.162859
0.162879
0.16291
0.162919
0.162916
0.16294
0.162988
0.163035
0.163093
0.163136
0.163245
0.163382
0.163617
0.164534
0.167474
0.172301
0.177271
0.182502
0.189846
0.196235
0.202389
0.212968
0.21059
0.271105
0.472649
0.72548
1.14428
1.50953
0.162898
0.162899
0.162863
0.162874
0.162901
0.162926
0.162898
0.162896
0.162869
0.162874
0.162876
0.162875
0.162868
0.162881
0.162895
0.1629
0.162917
0.162938
0.16297
0.162975
0.162969
0.162987
0.163036
0.163087
0.163148
0.1632
0.163304
0.16344
0.163678
0.16458
0.167515
0.172332
0.17733
0.182553
0.191063
0.19643
0.200992
0.206038
0.207516
0.298627
0.533002
0.795504
1.1983
1.53644
0.162953
0.162945
0.16291
0.162919
0.162952
0.162987
0.162967
0.162963
0.162924
0.162924
0.162925
0.162918
0.162916
0.162919
0.162928
0.162929
0.162951
0.162966
0.16299
0.163
0.163007
0.16304
0.163099
0.163137
0.1632
0.163249
0.163364
0.163487
0.163711
0.164614
0.167567
0.172327
0.177303
0.182549
0.19169
0.195581
0.198371
0.200832
0.208504
0.333995
0.598913
0.868366
1.25923
1.57346
0.163024
0.163031
0.162988
0.162985
0.163019
0.163066
0.163033
0.163025
0.162984
0.163001
0.163
0.163005
0.163
0.163013
0.163021
0.163033
0.163069
0.163076
0.163102
0.163105
0.16311
0.163138
0.163198
0.163236
0.163299
0.163357
0.16346
0.163582
0.163792
0.164675
0.167594
0.172428
0.177366
0.182568
0.191862
0.193069
0.195285
0.19824
0.218579
0.376639
0.66885
0.942027
1.32347
1.61658
0.163126
0.163128
0.163082
0.163067
0.163115
0.163182
0.16316
0.163133
0.163085
0.163099
0.163099
0.163097
0.163092
0.163095
0.163105
0.163112
0.163141
0.163131
0.163151
0.16317
0.163194
0.163242
0.163309
0.163335
0.163395
0.163445
0.163551
0.16366
0.163843
0.164739
0.1677
0.172563
0.177293
0.182697
0.190902
0.190979
0.19332
0.197834
0.236815
0.425035
0.7407
1.01485
1.38915
1.66367
0.163169
0.16319
0.163136
0.163107
0.163163
0.163243
0.163209
0.163174
0.163125
0.163153
0.163149
0.163154
0.163141
0.163155
0.163169
0.163182
0.163216
0.163212
0.163237
0.163247
0.163256
0.163299
0.163362
0.163394
0.16345
0.163507
0.163596
0.163713
0.1639
0.164779
0.16758
0.172495
0.177473
0.182769
0.188881
0.189514
0.192862
0.201614
0.261813
0.477441
0.812037
1.08584
1.45439
1.7128
0.163107
0.163116
0.163071
0.163044
0.1631
0.163177
0.163156
0.163105
0.163063
0.163079
0.163084
0.163074
0.163068
0.163069
0.163083
0.163088
0.163107
0.16309
0.163108
0.163124
0.16315
0.163198
0.163261
0.163288
0.163337
0.163373
0.163462
0.163586
0.163772
0.164674
0.167832
0.172496
0.177652
0.182481
0.186527
0.189616
0.196203
0.212636
0.305743
0.558868
0.914123
1.18775
1.55034
1.78811
0.163158
0.163169
0.163114
0.163092
0.163149
0.16323
0.163192
0.163151
0.163114
0.163145
0.163138
0.163141
0.163128
0.163161
0.163179
0.163193
0.163219
0.163219
0.163242
0.163245
0.163252
0.163303
0.16336
0.163393
0.163444
0.163497
0.163592
0.163731
0.163964
0.165042
0.168126
0.172969
0.177877
0.181094
0.184633
0.194942
0.209143
0.238053
0.376755
0.665019
1.03274
1.31148
1.66984
1.88745
0.163278
0.163272
0.163215
0.16319
0.163265
0.163364
0.163335
0.163275
0.163242
0.163274
0.163267
0.16325
0.163246
0.163274
0.163295
0.163299
0.163309
0.163287
0.16331
0.163319
0.163345
0.163419
0.163493
0.163519
0.163562
0.163606
0.163696
0.16383
0.16403
0.164982
0.167991
0.172812
0.17716
0.179697
0.184941
0.201659
0.223631
0.273265
0.452055
0.756257
1.12171
1.41935
1.77997
1.98254
0.163459
0.163456
0.163385
0.163363
0.163454
0.163568
0.163519
0.163459
0.163423
0.163479
0.163462
0.163449
0.163442
0.163499
0.163525
0.163543
0.163573
0.163562
0.163586
0.163577
0.163585
0.163669
0.163737
0.163771
0.163813
0.163866
0.163959
0.164105
0.164338
0.165519
0.168767
0.173363
0.176122
0.180563
0.19401
0.214364
0.244246
0.318659
0.518216
0.822863
1.17685
1.50623
1.87696
2.06875
0.163723
0.163707
0.163624
0.163607
0.163718
0.163861
0.163817
0.163737
0.163697
0.16376
0.163746
0.163717
0.163698
0.163746
0.163789
0.163806
0.163816
0.163787
0.16381
0.163814
0.163844
0.163949
0.164032
0.164062
0.164101
0.164132
0.164215
0.164348
0.164474
0.165324
0.168283
0.1727
0.175463
0.188211
0.205695
0.226571
0.26817
0.359072
0.564504
0.867407
1.21375
1.57104
1.95528
2.13957
0.163953
0.163965
0.163855
0.163822
0.163944
0.164109
0.164047
0.163967
0.16393
0.164003
0.163988
0.16396
0.163915
0.163956
0.164017
0.164045
0.164061
0.164037
0.164061
0.164061
0.164073
0.164176
0.164269
0.164318
0.164352
0.1644
0.164488
0.164628
0.164765
0.165836
0.168932
0.172767
0.181216
0.19854
0.217004
0.238941
0.288157
0.382072
0.593483
0.905314
1.25621
1.62341
2.01265
2.1931
0.164047
0.164063
0.163921
0.163905
0.164036
0.164203
0.164149
0.164072
0.164056
0.164102
0.164093
0.164046
0.163997
0.164001
0.16408
0.164109
0.16409
0.164053
0.164083
0.164102
0.164145
0.164253
0.164364
0.164406
0.164447
0.164472
0.16456
0.164679
0.1647
0.165245
0.168063
0.172782
0.189712
0.208094
0.228127
0.253304
0.301309
0.397908
0.618785
0.957584
1.31413
1.66886
2.0556
2.24274
0.163942
0.164026
0.163907
0.163798
0.163867
0.163981
0.163902
0.163856
0.163887
0.163956
0.163974
0.163955
0.163932
0.163956
0.164064
0.164124
0.164107
0.164104
0.164142
0.164198
0.164266
0.164388
0.164535
0.164615
0.164722
0.164896
0.165227
0.165842
0.167069
0.171837
0.181274
0.208639
0.244126
0.270843
0.314396
0.377795
0.471668
0.654549
0.946627
1.32087
1.64544
1.96186
2.35292
2.49465
0.176032
0.175855
0.175218
0.17469
0.175033
0.175456
0.175408
0.175551
0.175753
0.176067
0.176264
0.176238
0.176193
0.176599
0.177265
0.177677
0.177803
0.178021
0.178545
0.179277
0.180055
0.181125
0.182461
0.183362
0.18478
0.186962
0.189928
0.194883
0.203506
0.217118
0.247708
0.325419
0.396554
0.454146
0.557204
0.662403
0.849834
1.22286
1.5609
1.87629
2.07037
2.25729
2.41059
2.51337
0.219607
0.218845
0.217687
0.216632
0.218149
0.218867
0.218956
0.219298
0.218981
0.218821
0.219143
0.21964
0.220746
0.221869
0.222828
0.222889
0.222935
0.223778
0.225213
0.226605
0.227999
0.232727
0.235843
0.2383
0.242467
0.248526
0.256082
0.262127
0.26729
0.287619
0.355969
0.488532
0.592987
0.639903
0.649799
0.655645
0.747445
1.03089
1.41362
1.68229
1.80264
2.06292
2.29451
2.45845
0.302831
0.302031
0.303911
0.30206
0.299224
0.298321
0.299638
0.299044
0.297061
0.298006
0.300854
0.303722
0.30659
0.308177
0.309656
0.312617
0.313986
0.314674
0.315665
0.318368
0.319103
0.31929
0.321017
0.335305
0.353933
0.368672
0.362319
0.342429
0.35782
0.429712
0.535997
0.627091
0.701903
0.748421
0.787619
0.842256
0.889534
0.976363
1.12796
1.55562
2.02819
2.36973
2.40092
4.03584
1.23775
1.12356
1.02927
1.0525
1.08274
0.970109
0.765404
0.615192
0.583355
0.628485
0.696951
0.761252
0.822657
0.874756
0.930128
1.02661
1.03311
0.995994
0.970088
0.981614
0.982896
0.944435
0.888048
1.13207
2.26788
3.43274
3.46368
1.16849
0.728264
0.771729
0.908482
1.11256
1.20562
1.31349
1.48974
1.55061
1.53901
1.49863
1.47924
1.54291
1.63689
1.80512
1.81933
3.41077
8.97339
7.2966
5.58318
5.77644
6.49964
6.79993
6.40809
5.58651
5.26592
5.45042
5.83003
6.1524
6.19213
6.17748
6.46464
7.06677
7.57869
7.58131
7.25501
6.91482
6.66254
6.43327
5.90579
4.91666
5.0397
5.98558
6.95866
5.26886
3.61017
2.85196
4.16017
6.24448
6.68413
5.16988
3.35914
2.57428
1.75007
1.76999
1.91531
1.79787
1.98978
1.88846
1.89505
2.5491
8.76653
8.86814
8.70103
8.17029
7.83405
7.82505
7.73197
7.33995
6.62476
6.33979
6.36012
6.46918
6.71128
7.09735
7.34596
7.40792
7.392
7.33834
7.23723
7.08094
6.86299
6.61605
6.46469
6.41541
6.44347
6.5389
6.70997
6.91216
7.05866
7.52643
9.42583
14.5838
15.0091
12.4035
11.766
11.769
8.73469
1.68905
0.836284
1.01708
1.67935
1.65062
1.04515
13.7006
4.6201
4.58863
4.52346
4.48104
4.4637
4.38619
4.16102
4.10614
4.28355
5.16115
6.73142
6.7869
6.76018
7.394
8.4913
10.0032
10.7676
10.7064
10.339
9.64432
9.08388
9.03674
9.41455
10.538
12.8545
15.884
18.3549
20.8336
25.1573
36.2211
54.2131
85.6396
344.408
80.6383
17.8674
8.4625
2.53685
0.452595
0.299205
0.466547
0.789317
0.737752
0.501484
0.308485
4.00798
4.01425
4.00202
4.07281
4.35151
4.54784
4.5312
4.42307
4.45181
5.3366
7.95566
10.1392
10.9049
11.7991
13.2695
13.7635
13.461
13.607
14.9233
15.8337
15.9933
17.0444
20.9642
51.5425
143.923
116.218
68.0566
58.6219
67.6736
91.4274
431.651
56.8407
7.91806
5.49087
4.72177
1.96033
0.464342
0.215443
0.196907
0.221018
0.259928
0.264669
0.226315
0.233007
4.5167
4.51684
4.48568
4.49686
4.58475
4.74898
5.07332
5.87554
7.67299
10.578
14.3539
18.3929
23.5579
34.5898
28.5051
11.2871
8.82929
8.48155
7.72479
6.82743
6.89817
6.72751
5.88618
4.83941
4.29564
4.86268
7.46048
7.51785
8.46298
11.7307
6.84609
2.25017
0.847782
0.730461
0.740073
0.412734
0.215932
0.185982
0.180926
0.183549
0.186793
0.192493
0.202104
0.214793
5.20657
5.17188
5.07142
5.00574
5.07771
5.50399
6.48654
7.52188
8.82981
11.4188
14.2677
15.6957
15.3915
13.4753
5.96836
2.63698
2.11376
1.59291
0.996006
0.78639
0.760874
0.703511
0.577427
0.462671
0.44176
0.465701
0.52411
0.495617
0.511648
0.620664
0.540293
0.355818
0.25843
0.243087
0.239651
0.205347
0.182827
0.174951
0.17472
0.178118
0.184357
0.195013
0.204571
0.218803
5.66175
5.63734
5.54979
5.54214
5.78355
6.54289
6.94623
7.13281
7.92947
9.71328
9.95548
7.13637
3.55207
1.87504
0.857199
0.610817
0.516703
0.404709
0.317264
0.280923
0.263352
0.246622
0.230634
0.221611
0.221803
0.223289
0.221281
0.215766
0.217705
0.226078
0.219731
0.201065
0.18995
0.186314
0.184026
0.181489
0.176179
0.173181
0.174611
0.176942
0.179987
0.185126
0.19287
0.203691
5.87592
5.89744
5.89805
6.00256
6.4272
6.6727
6.34428
5.61539
5.54755
5.35748
3.58192
1.6345
0.733646
0.439464
0.328803
0.288528
0.257233
0.22916
0.211843
0.202117
0.195094
0.189312
0.186532
0.185593
0.185987
0.185659
0.18403
0.183207
0.183646
0.18342
0.180584
0.176823
0.175442
0.175068
0.173324
0.173353
0.17126
0.17169
0.173022
0.176123
0.181151
0.188147
0.197285
0.206302
5.88492
6.02545
6.13781
6.34858
6.52203
6.1817
4.85778
3.23679
2.45544
1.74656
0.945194
0.463071
0.299821
0.250836
0.22839
0.212473
0.199944
0.191391
0.186083
0.182427
0.179888
0.178221
0.177394
0.17767
0.178059
0.177679
0.176519
0.175647
0.175429
0.174515
0.172891
0.171378
0.170795
0.170357
0.169825
0.170339
0.170876
0.171487
0.172818
0.17505
0.177768
0.18218
0.188432
0.197731
5.82578
6.05062
6.21552
6.36548
6.21555
5.03038
2.82021
1.48958
0.939634
0.582997
0.350115
0.251576
0.219371
0.205442
0.196301
0.188738
0.182978
0.179521
0.177355
0.17538
0.173518
0.171999
0.171375
0.171602
0.172023
0.171948
0.171315
0.170774
0.170588
0.169904
0.16881
0.168203
0.16802
0.167832
0.16829
0.169306
0.169956
0.170622
0.172052
0.174901
0.179207
0.18458
0.191132
0.199388
5.68221
5.9553
6.1199
6.12039
5.44746
3.38283
1.49332
0.741396
0.44197
0.298252
0.233256
0.207609
0.196256
0.189353
0.18381
0.178796
0.175123
0.172834
0.171223
0.169809
0.16856
0.167612
0.166971
0.166705
0.166656
0.166553
0.166344
0.166162
0.166375
0.166598
0.166556
0.166688
0.167118
0.167459
0.16802
0.168999
0.169801
0.170746
0.172288
0.174684
0.177339
0.18095
0.18556
0.192876
5.29489
5.65057
5.7659
5.50247
4.24143
2.08848
0.910839
0.474546
0.307777
0.238435
0.208134
0.1939
0.185829
0.180309
0.176234
0.172731
0.170083
0.168376
0.167114
0.166207
0.165738
0.165451
0.165261
0.165088
0.164897
0.164883
0.164954
0.165032
0.165248
0.165533
0.165885
0.166138
0.16648
0.166915
0.167351
0.168155
0.168932
0.16988
0.171515
0.174109
0.177823
0.18227
0.18742
0.19278
4.61659
5.02525
5.0558
4.49226
2.9559
1.44829
0.696306
0.400402
0.281325
0.229014
0.20362
0.190592
0.18315
0.177602
0.173457
0.1706
0.168764
0.167575
0.166724
0.166062
0.165569
0.16515
0.164822
0.164622
0.164539
0.164591
0.164728
0.164853
0.165023
0.165282
0.165641
0.165939
0.166295
0.16673
0.167232
0.168139
0.16914
0.170325
0.171968
0.174215
0.176684
0.179663
0.183411
0.188412
3.63186
4.03689
3.98012
3.23251
2.12151
1.18563
0.640731
0.392755
0.282483
0.230293
0.203818
0.18999
0.182093
0.176444
0.172212
0.169304
0.167536
0.166541
0.165789
0.165127
0.164722
0.164465
0.164345
0.164305
0.164301
0.164364
0.164465
0.164601
0.16477
0.164991
0.165298
0.165588
0.165913
0.166266
0.166695
0.167494
0.168399
0.169499
0.171219
0.173651
0.17683
0.180455
0.184811
0.187653
2.4017
2.74702
2.70369
2.26386
1.66443
1.08805
0.641927
0.407103
0.295483
0.236726
0.20578
0.190321
0.18209
0.176319
0.171904
0.16904
0.16739
0.16645
0.165734
0.165118
0.164718
0.164407
0.164212
0.164133
0.164116
0.164175
0.16429
0.164435
0.164602
0.16481
0.165113
0.165426
0.165795
0.166209
0.166755
0.167679
0.168767
0.170046
0.171638
0.173587
0.175884
0.178283
0.181394
0.18491
1.47195
1.70843
1.81848
1.68846
1.40543
1.04609
0.673477
0.445112
0.320416
0.24772
0.209305
0.191129
0.182197
0.176319
0.171746
0.168757
0.167094
0.166163
0.165468
0.164852
0.164466
0.164189
0.164011
0.163918
0.163899
0.163967
0.164102
0.164258
0.16442
0.164597
0.164847
0.165133
0.165484
0.165866
0.166357
0.167163
0.168134
0.169353
0.170966
0.173032
0.175721
0.178772
0.182354
0.184158
0.971945
1.13069
1.28854
1.35276
1.2353
1.02051
0.736377
0.502961
0.35307
0.261341
0.213796
0.192308
0.182401
0.176328
0.171676
0.168618
0.166948
0.166031
0.165366
0.164772
0.164404
0.164126
0.163942
0.163835
0.163811
0.163864
0.163975
0.164125
0.164289
0.16447
0.16473
0.165044
0.165455
0.165909
0.166523
0.167451
0.168536
0.169818
0.171305
0.173003
0.17514
0.177024
0.179687
0.181874
0.745947
0.840787
0.981498
1.14049
1.12133
1.00777
0.809498
0.575097
0.389729
0.276157
0.21878
0.193704
0.18267
0.176316
0.171584
0.168459
0.166782
0.16586
0.165228
0.16466
0.164298
0.164024
0.163843
0.163729
0.163706
0.163759
0.163856
0.163982
0.164133
0.164294
0.164525
0.164818
0.165216
0.165658
0.166238
0.167079
0.168056
0.169256
0.170691
0.172407
0.174598
0.17716
0.180335
0.181118
0.646539
0.701377
0.81032
0.995332
1.05052
0.999687
0.859207
0.650263
0.429433
0.291787
0.223933
0.195136
0.182906
0.176261
0.171471
0.168318
0.166665
0.165752
0.16515
0.164615
0.164261
0.163985
0.16381
0.163694
0.163667
0.163702
0.163774
0.163893
0.164048
0.164222
0.16448
0.16481
0.165263
0.165778
0.166452
0.167369
0.168393
0.169602
0.170949
0.172458
0.174428
0.175888
0.17825
0.179218
0.59349
0.630992
0.711991
0.889253
1.01112
0.993961
0.895118
0.70784
0.469196
0.305805
0.228222
0.196198
0.183018
0.176146
0.171322
0.168144
0.166512
0.16561
0.165038
0.164536
0.164188
0.163915
0.163742
0.163622
0.163592
0.16362
0.163685
0.163792
0.163936
0.164101
0.164349
0.164666
0.165097
0.165599
0.166226
0.167058
0.167986
0.169113
0.170401
0.171867
0.173721
0.175751
0.178539
0.178558
0.551773
0.589821
0.657469
0.813242
0.978257
0.992865
0.922669
0.750287
0.504902
0.319763
0.232585
0.197266
0.183078
0.175983
0.171156
0.168005
0.16641
0.165517
0.164962
0.164496
0.164157
0.163888
0.163719
0.163595
0.163562
0.163577
0.163633
0.163742
0.163897
0.164084
0.164361
0.164719
0.165197
0.165757
0.166441
0.167309
0.168258
0.169373
0.1706
0.171922
0.173731
0.174891
0.176765
0.176981
0.517391
0.559069
0.62366
0.761989
0.950982
0.994038
0.941117
0.781722
0.535919
0.331353
0.235794
0.197903
0.183048
0.175789
0.170971
0.167841
0.166291
0.165411
0.164869
0.164432
0.164093
0.16383
0.163659
0.163534
0.1635
0.163513
0.16357
0.163678
0.163834
0.164025
0.164301
0.16465
0.165102
0.165627
0.166249
0.167034
0.167902
0.168941
0.170119
0.171384
0.172992
0.174583
0.176727
0.176425
0.490379
0.532171
0.597749
0.725986
0.928823
0.99657
0.953398
0.805731
0.561734
0.340915
0.238354
0.198282
0.182938
0.175577
0.170774
0.167696
0.166199
0.16534
0.164816
0.164394
0.164067
0.163809
0.163642
0.163519
0.163483
0.16349
0.163546
0.16366
0.163832
0.164045
0.164349
0.164732
0.165216
0.165778
0.166435
0.167238
0.168124
0.169138
0.170267
0.171429
0.173052
0.17396
0.175302
0.175079
0.471619
0.510992
0.576485
0.700781
0.911128
0.996427
0.963447
0.825372
0.582621
0.348605
0.239981
0.198368
0.182748
0.175342
0.170589
0.167583
0.166121
0.165261
0.164744
0.164343
0.164014
0.163758
0.163594
0.163475
0.163442
0.163454
0.163519
0.16364
0.163817
0.164036
0.164336
0.164704
0.165153
0.165669
0.166266
0.166995
0.167812
0.168761
0.169828
0.170946
0.172337
0.173514
0.175047
0.17462
0.458117
0.493442
0.558111
0.681596
0.896679
0.99582
0.969403
0.83775
0.59871
0.353579
0.240497
0.198262
0.182505
0.175107
0.170407
0.167464
0.166051
0.165221
0.16471
0.164315
0.163999
0.163745
0.163589
0.163477
0.163446
0.163459
0.163526
0.163653
0.163843
0.164081
0.164397
0.164783
0.165249
0.16579
0.166414
0.167155
0.167987
0.168915
0.169944
0.170967
0.172378
0.173002
0.173895
0.173521
0.448818
0.480758
0.543227
0.66628
0.88438
0.994488
0.971903
0.848735
0.610449
0.355619
0.240334
0.197954
0.182231
0.174883
0.170234
0.167373
0.166007
0.165179
0.164671
0.164277
0.163973
0.163715
0.163564
0.16346
0.163435
0.163454
0.163532
0.163667
0.163859
0.1641
0.164406
0.164774
0.165207
0.165705
0.16628
0.166957
0.167722
0.168587
0.169541
0.170535
0.171683
0.172434
0.173518
0.173128
0.441074
0.471219
0.531198
0.65273
0.871712
0.991856
0.974465
0.856161
0.61439
0.355215
0.239562
0.197462
0.181943
0.174668
0.170071
0.167288
0.165979
0.165162
0.164656
0.164264
0.163977
0.163718
0.163571
0.163476
0.163453
0.163475
0.163557
0.163695
0.163899
0.164152
0.164465
0.164838
0.165278
0.165792
0.166386
0.167072
0.167848
0.168702
0.169625
0.170535
0.171605
0.172073
0.172654
0.17223
0.434697
0.46373
0.522036
0.642181
0.860742
0.988341
0.975306
0.859046
0.614168
0.353052
0.238073
0.196816
0.181642
0.174455
0.169912
0.167209
0.165953
0.165157
0.164651
0.164252
0.163972
0.163714
0.163577
0.163487
0.163466
0.163493
0.163581
0.163726
0.16393
0.164183
0.164486
0.164842
0.165259
0.165743
0.166299
0.166931
0.167639
0.168422
0.169278
0.170122
0.170988
0.171476
0.172203
0.171838
0.428223
0.458097
0.514985
0.633866
0.851745
0.984686
0.975177
0.859056
0.610601
0.348542
0.235854
0.196018
0.181316
0.174232
0.169754
0.167148
0.165946
0.165155
0.164651
0.164255
0.163987
0.16373
0.1636
0.16352
0.163501
0.16353
0.163619
0.163765
0.163976
0.164237
0.16454
0.164894
0.165311
0.165799
0.166353
0.166989
0.167707
0.168493
0.169323
0.170097
0.170803
0.171204
0.17163
0.171173
0.422549
0.453287
0.508467
0.625637
0.843661
0.982031
0.97437
0.856769
0.602174
0.341641
0.232981
0.195076
0.180948
0.173987
0.169591
0.167096
0.165947
0.165166
0.16466
0.164262
0.164004
0.163753
0.163626
0.163548
0.163529
0.16356
0.163654
0.163803
0.164013
0.16427
0.164565
0.164907
0.165311
0.165787
0.166322
0.166919
0.167572
0.168268
0.169035
0.169669
0.170294
0.17066
0.171135
0.170792
0.417791
0.448491
0.50375
0.621766
0.837464
0.980136
0.972372
0.850761
0.588255
0.332748
0.229603
0.194012
0.180525
0.173708
0.169417
0.167051
0.165955
0.165188
0.164681
0.164283
0.164032
0.163785
0.163673
0.163597
0.163574
0.163606
0.163702
0.163852
0.16406
0.16432
0.164613
0.164953
0.165354
0.165818
0.166331
0.166911
0.167564
0.168282
0.169006
0.16961
0.170073
0.170444
0.170773
0.170304
0.412603
0.443808
0.502407
0.621966
0.836492
0.978682
0.968784
0.840426
0.569165
0.322313
0.225912
0.192853
0.180044
0.173387
0.169233
0.167012
0.165968
0.165215
0.16471
0.164321
0.164072
0.163824
0.163707
0.163637
0.163615
0.163646
0.163746
0.163898
0.164099
0.164354
0.164642
0.164974
0.165368
0.165825
0.166337
0.1669
0.167515
0.168124
0.168746
0.16921
0.169662
0.170005
0.170285
0.169895
0.409368
0.441782
0.503406
0.624564
0.837698
0.977242
0.963201
0.8256
0.545741
0.310899
0.222081
0.191624
0.179502
0.173022
0.16904
0.166977
0.165979
0.165242
0.164739
0.164364
0.164123
0.163879
0.163758
0.163687
0.16367
0.163707
0.163807
0.163958
0.164151
0.164402
0.16469
0.165019
0.165406
0.16585
0.166334
0.166858
0.167425
0.16804
0.168623
0.169116
0.169483
0.169796
0.170012
0.169552
0.409336
0.442118
0.507185
0.629819
0.840952
0.975473
0.955104
0.806245
0.518997
0.299024
0.218215
0.190334
0.1789
0.172617
0.16885
0.166943
0.16599
0.165267
0.164768
0.164414
0.164172
0.163934
0.16381
0.163742
0.163719
0.163757
0.163865
0.164016
0.164207
0.164446
0.164727
0.165048
0.165423
0.165856
0.166329
0.166848
0.167417
0.167935
0.168412
0.168782
0.169144
0.169423
0.169538
0.169136
0.410289
0.444237
0.513995
0.637316
0.84644
0.972739
0.943972
0.782392
0.48986
0.287035
0.214342
0.188981
0.178236
0.17218
0.16867
0.166912
0.166001
0.16529
0.164798
0.164465
0.164218
0.163993
0.163864
0.163804
0.163784
0.163818
0.163932
0.164085
0.164272
0.164505
0.164779
0.165094
0.165465
0.165882
0.166336
0.166816
0.167315
0.167785
0.168242
0.168669
0.168991
0.169234
0.169315
0.16887
0.412901
0.44936
0.523684
0.646555
0.853962
0.968301
0.929497
0.75406
0.459033
0.275108
0.210452
0.187567
0.177511
0.171724
0.168504
0.166885
0.166012
0.165313
0.16483
0.164521
0.16426
0.164052
0.16392
0.163861
0.163844
0.163882
0.163995
0.164147
0.164319
0.164551
0.16482
0.165126
0.165483
0.165887
0.166319
0.166774
0.167261
0.167707
0.168106
0.168421
0.168712
0.168862
0.168877
0.168495
0.418388
0.458522
0.535995
0.657045
0.863082
0.961562
0.911425
0.721101
0.426982
0.263128
0.206508
0.1861
0.176733
0.171268
0.16835
0.166861
0.166016
0.165336
0.164863
0.164564
0.164301
0.164112
0.163977
0.16392
0.163907
0.163948
0.164057
0.164207
0.16438
0.1646
0.164867
0.16517
0.165515
0.165912
0.166327
0.166743
0.167175
0.167562
0.167924
0.168287
0.168536
0.168693
0.168676
0.168283
0.426848
0.470839
0.550236
0.668582
0.873347
0.9522
0.889449
0.683163
0.394159
0.251361
0.202577
0.184604
0.175915
0.170834
0.168214
0.166843
0.166018
0.165361
0.164895
0.164603
0.164344
0.164173
0.164036
0.163979
0.163966
0.164007
0.164118
0.164267
0.164437
0.16465
0.164911
0.165204
0.165539
0.16591
0.166297
0.166684
0.16708
0.167458
0.167836
0.168107
0.168298
0.168339
0.168303
0.167944
0.438028
0.487041
0.565526
0.681647
0.884725
0.940222
0.863146
0.639699
0.361888
0.240298
0.1989
0.183119
0.175078
0.170434
0.168092
0.166825
0.166016
0.165387
0.164926
0.16464
0.164387
0.164226
0.164092
0.164037
0.164026
0.164068
0.164178
0.164326
0.164492
0.164701
0.164956
0.165245
0.16557
0.165925
0.166292
0.16665
0.167016
0.16735
0.167679
0.167922
0.168105
0.168147
0.168122
0.167774
0.452378
0.506482
0.581203
0.697895
0.895509
0.925835
0.831813
0.590081
0.331828
0.23024
0.195555
0.181692
0.174254
0.170084
0.167984
0.166806
0.166012
0.165409
0.164956
0.164678
0.164431
0.164279
0.16415
0.164095
0.164087
0.164131
0.164237
0.164383
0.164548
0.164751
0.165
0.165279
0.165585
0.165916
0.166256
0.166585
0.166922
0.167235
0.167568
0.167783
0.167892
0.167889
0.167814
0.167488
0.471275
0.529923
0.596281
0.720529
0.901248
0.908762
0.794203
0.534125
0.304906
0.221338
0.192559
0.180313
0.173459
0.169774
0.167885
0.166785
0.16601
0.16543
0.164986
0.164718
0.164477
0.164325
0.164202
0.164154
0.164149
0.164191
0.164296
0.164441
0.164604
0.164804
0.165045
0.165314
0.165604
0.165914
0.166233
0.166546
0.166874
0.167161
0.167436
0.167595
0.167694
0.167688
0.167642
0.167346
0.494194
0.556019
0.611342
0.751911
0.90138
0.88794
0.748561
0.474374
0.280778
0.213651
0.189877
0.178995
0.172741
0.16952
0.167798
0.166762
0.166008
0.165448
0.165018
0.164759
0.164524
0.164372
0.164249
0.164204
0.164204
0.164252
0.164357
0.164498
0.164659
0.164853
0.165086
0.165343
0.165613
0.165901
0.166196
0.166484
0.166785
0.167042
0.1673
0.167445
0.167508
0.16749
0.1674
0.167112
0.520874
0.572599
0.628209
0.791122
0.895899
0.860502
0.693571
0.415627
0.259911
0.207141
0.187464
0.177726
0.172097
0.169301
0.167719
0.166737
0.166006
0.165463
0.165049
0.164798
0.164567
0.164417
0.164296
0.164255
0.164259
0.164311
0.164415
0.164553
0.16471
0.164898
0.165121
0.165363
0.165616
0.165886
0.166166
0.166446
0.166735
0.166975
0.167176
0.167288
0.167326
0.167313
0.167253
0.167023
0.542101
0.58499
0.649127
0.818698
0.881917
0.823825
0.628632
0.362883
0.242737
0.20168
0.185239
0.17651
0.171553
0.169118
0.167648
0.166713
0.166003
0.165475
0.165082
0.164839
0.164611
0.164463
0.164345
0.164307
0.164313
0.164369
0.164473
0.164608
0.164761
0.16494
0.165151
0.165379
0.165617
0.165869
0.166135
0.166388
0.166648
0.166852
0.167034
0.167129
0.167168
0.167154
0.16707
0.166835
0.556014
0.597645
0.677061
0.827687
0.859338
0.776553
0.553807
0.31897
0.228947
0.197057
0.183158
0.175368
0.171092
0.168951
0.167579
0.166688
0.166004
0.165487
0.165112
0.164881
0.164659
0.16451
0.164394
0.164357
0.164366
0.164426
0.164532
0.164663
0.164811
0.164982
0.165178
0.165389
0.165613
0.16585
0.166103
0.166346
0.166589
0.166772
0.166926
0.167004
0.167025
0.167003
0.166954
0.16679
0.567966
0.61234
0.71613
0.826996
0.829114
0.718085
0.472756
0.285295
0.218144
0.193115
0.181192
0.174327
0.170704
0.168793
0.167509
0.16666
0.166
0.165494
0.165144
0.164918
0.164703
0.164557
0.164442
0.164408
0.16442
0.164485
0.164589
0.164715
0.164853
0.165011
0.165194
0.165394
0.165607
0.165835
0.166076
0.166291
0.166505
0.166659
0.166789
0.166849
0.166893
0.166888
0.16683
0.166639
0.579619
0.631338
0.745329
0.819447
0.790902
0.647887
0.39831
0.25879
0.209505
0.189656
0.179352
0.173438
0.170378
0.168643
0.167437
0.166628
0.165995
0.165502
0.165169
0.16495
0.164746
0.1646
0.16449
0.16446
0.164476
0.164544
0.164647
0.164762
0.164887
0.165034
0.165208
0.1654
0.165605
0.165821
0.166046
0.166242
0.166431
0.166575
0.166689
0.166757
0.166787
0.166769
0.166738
0.166593
0.592143
0.657636
0.751498
0.800952
0.742407
0.566565
0.339373
0.239378
0.202829
0.186647
0.177692
0.172703
0.170088
0.168492
0.16736
0.166592
0.165986
0.165509
0.165196
0.164974
0.164781
0.164643
0.164541
0.164516
0.164537
0.164606
0.164699
0.1648
0.164916
0.165056
0.165223
0.165408
0.165603
0.165804
0.166011
0.166184
0.166353
0.166479
0.166577
0.166634
0.166685
0.166692
0.166644
0.166504
0.607706
0.683625
0.748734
0.769544
0.680652
0.472604
0.292982
0.223967
0.197102
0.18388
0.176246
0.172119
0.169837
0.168353
0.167284
0.166556
0.165975
0.165516
0.165218
0.165
0.164816
0.164686
0.164595
0.164575
0.164594
0.164655
0.164739
0.164833
0.164945
0.165082
0.165242
0.165414
0.165596
0.165781
0.16597
0.166129
0.166284
0.166404
0.166502
0.166574
0.166617
0.166612
0.166576
0.166466
0.627974
0.688675
0.738884
0.724692
0.604345
0.392621
0.262788
0.213767
0.192805
0.181571
0.17507
0.171619
0.16959
0.168212
0.167204
0.166517
0.165961
0.165521
0.165236
0.165022
0.164854
0.164736
0.164654
0.164634
0.164652
0.164707
0.164784
0.164872
0.164978
0.165105