/*--------------------------------*- C++ -*----------------------------------*\
| =========                 |                                                 |
| \\      /  F ield         | OpenFOAM: The Open Source CFD Toolbox           |
|  \\    /   O peration     | Version:  v1912                                 |
|   \\  /    A nd           | Website:  www.openfoam.com                      |
|    \\/     M anipulation  |                                                 |
\*---------------------------------------------------------------------------*/
FoamFile
{
    version     2.0;
    format      ascii;
    class       volSymmTensorField;
    location    "80";
    object      R;
}
// * * * * * * * * * * * * * * * * * * * * * * * * * * * * * * * * * * * * * //

dimensions      [0 2 -2 0 0 0 0];


internalField   nonuniform List<symmTensor> 
14268
(
(2.34881e-10 3.56185e-13 0 2.34289e-10 0 2.34601e-10)
(2.25759e-10 3.4071e-13 0 2.23467e-10 0 2.24615e-10)
(2.28997e-10 3.61842e-13 0 2.26982e-10 0 2.27996e-10)
(2.35015e-10 3.66994e-13 0 2.33986e-10 0 2.34501e-10)
(2.32408e-10 3.51299e-13 0 2.31393e-10 0 2.31905e-10)
(2.26227e-10 3.53496e-13 0 2.24661e-10 0 2.2545e-10)
(2.26321e-10 3.43128e-13 0 2.25251e-10 0 2.25806e-10)
(2.31526e-10 3.61384e-13 0 2.31664e-10 0 2.31599e-10)
(2.31696e-10 3.5912e-13 0 2.32184e-10 0 2.31952e-10)
(2.29899e-10 3.7023e-13 0 2.30459e-10 0 2.30181e-10)
(2.29998e-10 3.68324e-13 0 2.3096e-10 0 2.30492e-10)
(2.33354e-10 3.76598e-13 0 2.34906e-10 0 2.34124e-10)
(2.37982e-10 3.83149e-13 0 2.40686e-10 0 2.3935e-10)
(2.42405e-10 3.83755e-13 0 2.46335e-10 0 2.44374e-10)
(2.43004e-10 3.90597e-13 0 2.47472e-10 0 2.45247e-10)
(2.41985e-10 4.02293e-13 0 2.46421e-10 0 2.44195e-10)
(2.4535e-10 4.05344e-13 0 2.50548e-10 0 2.47944e-10)
(2.51307e-10 4.08352e-13 0 2.578e-10 0 2.54542e-10)
(2.52372e-10 4.08138e-13 0 2.59417e-10 0 2.5591e-10)
(2.4778e-10 3.98406e-13 0 2.5397e-10 0 2.50876e-10)
(2.43119e-10 3.65202e-13 0 2.48188e-10 0 2.45674e-10)
(2.41835e-10 3.68731e-13 0 2.46079e-10 0 2.43959e-10)
(2.40705e-10 3.69664e-13 0 2.4431e-10 0 2.42526e-10)
(2.40936e-10 3.62932e-13 0 2.44253e-10 0 2.42584e-10)
(2.43206e-10 3.68086e-13 0 2.47401e-10 0 2.45319e-10)
(2.45226e-10 3.55788e-13 0 2.50291e-10 0 2.47741e-10)
(2.49865e-10 3.65702e-13 0 2.56357e-10 0 2.53139e-10)
(2.63366e-10 3.74021e-13 0 2.7214e-10 0 2.67737e-10)
(2.97971e-10 4.76579e-13 0 3.16213e-10 0 3.07128e-10)
(4.21477e-10 7.31381e-13 0 4.84089e-10 0 4.52677e-10)
(6.81898e-10 1.02597e-12 0 8.94232e-10 0 7.87609e-10)
(1.02064e-09 1.36574e-12 0 1.52167e-09 0 1.26763e-09)
(1.36184e-09 -2.67481e-12 0 2.20531e-09 0 1.78233e-09)
(1.68932e-09 7.64733e-12 0 2.88628e-09 0 2.27274e-09)
(2.05599e-09 6.82926e-12 0 3.6993e-09 0 2.87138e-09)
(2.42332e-09 -4.31052e-11 0 4.42786e-09 0 3.40633e-09)
(2.75e-09 3.92276e-11 0 5.0759e-09 0 3.89542e-09)
(3.49884e-09 -1.03329e-11 0 7.08818e-09 0 5.24188e-09)
(5.16667e-09 3.18213e-10 0 1.18007e-08 0 8.40572e-09)
(6.50864e-09 -1.32292e-09 0 1.96965e-08 0 1.29322e-08)
(1.2186e-06 1.18647e-06 0 2.1457e-06 0 1.62497e-06)
(3.51069e-05 9.78965e-06 0 1.57376e-05 0 2.63793e-05)
(0.000146631 4.97466e-05 0 0.000107361 0 0.000125138)
(0.000162443 5.40833e-05 0 6.96177e-05 0 0.000121914)
(5.33869e-09 1.34314e-11 0 5.34202e-09 0 5.34089e-09)
(5.18275e-09 1.32348e-11 0 5.13007e-09 0 5.15648e-09)
(5.25388e-09 1.42191e-11 0 5.21533e-09 0 5.23485e-09)
(5.38777e-09 1.44081e-11 0 5.38841e-09 0 5.38814e-09)
(5.35289e-09 1.37901e-11 0 5.35377e-09 0 5.35355e-09)
(5.24879e-09 1.41597e-11 0 5.22464e-09 0 5.23685e-09)
(5.27354e-09 1.37593e-11 0 5.26362e-09 0 5.2692e-09)
(5.38932e-09 1.44339e-11 0 5.42082e-09 0 5.4052e-09)
(5.37534e-09 1.40533e-11 0 5.41139e-09 0 5.39385e-09)
(5.30813e-09 1.42037e-11 0 5.33504e-09 0 5.32171e-09)
(5.27489e-09 1.37679e-11 0 5.30465e-09 0 5.2903e-09)
(5.30486e-09 1.37368e-11 0 5.34595e-09 0 5.32522e-09)
(5.3663e-09 1.37058e-11 0 5.44221e-09 0 5.40483e-09)
(5.43508e-09 1.35435e-11 0 5.5516e-09 0 5.49348e-09)
(5.44141e-09 1.37596e-11 0 5.57534e-09 0 5.50868e-09)
(5.40605e-09 1.41456e-11 0 5.53316e-09 0 5.46935e-09)
(5.43855e-09 1.39146e-11 0 5.58366e-09 0 5.51116e-09)
(5.52745e-09 1.37249e-11 0 5.71152e-09 0 5.6193e-09)
(5.55371e-09 1.37384e-11 0 5.76002e-09 0 5.65754e-09)
(5.50884e-09 1.37827e-11 0 5.69619e-09 0 5.60258e-09)
(5.4444e-09 1.27803e-11 0 5.60652e-09 0 5.52607e-09)
(5.43507e-09 1.32536e-11 0 5.58333e-09 0 5.50911e-09)
(5.42774e-09 1.35632e-11 0 5.56776e-09 0 5.49834e-09)
(5.4511e-09 1.34979e-11 0 5.58889e-09 0 5.51965e-09)
(5.52349e-09 1.38431e-11 0 5.69781e-09 0 5.61132e-09)
(5.59768e-09 1.34166e-11 0 5.80764e-09 0 5.70208e-09)
(5.69322e-09 1.39468e-11 0 5.96622e-09 0 5.83053e-09)
(5.90214e-09 1.41555e-11 0 6.2689e-09 0 6.08475e-09)
(6.40248e-09 1.75664e-11 0 7.09402e-09 0 6.74933e-09)
(7.79986e-09 2.20153e-11 0 9.68917e-09 0 8.74106e-09)
(9.96396e-09 2.16139e-11 0 1.48627e-08 0 1.24021e-08)
(1.21309e-08 1.63787e-11 0 2.16685e-08 0 1.68333e-08)
(1.35728e-08 -3.59071e-11 0 2.77238e-08 0 2.06271e-08)
(1.48485e-08 7.78965e-11 0 3.35819e-08 0 2.39687e-08)
(1.59821e-08 1.24052e-10 0 4.01153e-08 0 2.79529e-08)
(1.72756e-08 -6.25818e-10 0 4.69191e-08 0 3.18164e-08)
(1.8514e-08 5.74744e-10 0 5.35207e-08 0 3.57224e-08)
(2.0351e-08 6.3246e-11 0 6.39985e-08 0 4.15384e-08)
(2.28788e-08 1.24657e-09 0 8.13994e-08 0 5.13826e-08)
(2.84149e-08 -3.40618e-09 0 1.21028e-07 0 7.3307e-08)
(1.10325e-05 9.88826e-06 0 1.45945e-05 0 1.24367e-05)
(0.000155999 5.0605e-05 0 5.79393e-05 0 0.000112043)
(0.000526173 0.000233295 0 0.000347117 0 0.000424422)
(0.000780823 0.000244184 0 0.000282634 0 0.000551494)
(1.83651e-08 -9.00431e-12 0 1.84315e-08 0 1.84062e-08)
(1.80891e-08 -4.32579e-12 0 1.79125e-08 0 1.80063e-08)
(1.82136e-08 -2.57303e-13 0 1.81015e-08 0 1.81638e-08)
(1.84449e-08 -2.80174e-12 0 1.85112e-08 0 1.84836e-08)
(1.83682e-08 -7.48433e-12 0 1.84452e-08 0 1.84133e-08)
(1.82011e-08 -1.56945e-12 0 1.81659e-08 0 1.81899e-08)
(1.82742e-08 -3.14618e-12 0 1.82995e-08 0 1.82933e-08)
(1.84935e-08 -4.54988e-12 0 1.86936e-08 0 1.85982e-08)
(1.84705e-08 -6.7952e-12 0 1.86785e-08 0 1.85805e-08)
(1.83607e-08 -4.18784e-12 0 1.85087e-08 0 1.84401e-08)
(1.8312e-08 -3.85857e-12 0 1.84536e-08 0 1.83894e-08)
(1.83815e-08 -5.22427e-12 0 1.8553e-08 0 1.84705e-08)
(1.84727e-08 -6.40191e-12 0 1.87784e-08 0 1.86317e-08)
(1.85585e-08 -9.47645e-12 0 1.90248e-08 0 1.87965e-08)
(1.85502e-08 -9.20191e-12 0 1.90865e-08 0 1.88228e-08)
(1.85017e-08 -6.22579e-12 0 1.89963e-08 0 1.87515e-08)
(1.85595e-08 -7.87589e-12 0 1.91133e-08 0 1.8841e-08)
(1.86966e-08 -1.04355e-11 0 1.94008e-08 0 1.90519e-08)
(1.87169e-08 -1.24364e-11 0 1.95138e-08 0 1.91223e-08)
(1.86644e-08 -1.13468e-11 0 1.93879e-08 0 1.90309e-08)
(1.85516e-08 -1.45144e-11 0 1.9183e-08 0 1.88746e-08)
(1.85118e-08 -1.12871e-11 0 1.91018e-08 0 1.88103e-08)
(1.84654e-08 -9.49976e-12 0 1.90476e-08 0 1.87634e-08)
(1.85103e-08 -9.87333e-12 0 1.90911e-08 0 1.88032e-08)
(1.86177e-08 -9.68551e-12 0 1.93615e-08 0 1.89973e-08)
(1.87387e-08 -1.33415e-11 0 1.9627e-08 0 1.9185e-08)
(1.88202e-08 -1.31888e-11 0 1.9979e-08 0 1.9409e-08)
(1.90498e-08 -1.42914e-11 0 2.05586e-08 0 1.98065e-08)
(1.95441e-08 -7.42183e-12 0 2.21406e-08 0 2.08516e-08)
(2.05175e-08 -9.55447e-12 0 2.63203e-08 0 2.34134e-08)
(2.11784e-08 -2.47055e-11 0 3.31293e-08 0 2.71242e-08)
(2.14533e-08 -7.84432e-11 0 4.09102e-08 0 3.10405e-08)
(2.15329e-08 -2.09647e-11 0 4.74939e-08 0 3.44321e-08)
(2.18237e-08 -1.81648e-10 0 5.41037e-08 0 3.7499e-08)
(2.20506e-08 2.32431e-10 0 6.11712e-08 0 4.14041e-08)
(2.27072e-08 -5.83957e-10 0 6.85042e-08 0 4.51765e-08)
(2.34587e-08 4.10983e-10 0 7.62435e-08 0 4.91919e-08)
(2.5264e-08 3.79851e-10 0 8.64539e-08 0 5.49322e-08)
(2.42716e-08 -2.83512e-10 0 1.06806e-07 0 6.43073e-08)
(1.01513e-07 2.7346e-08 0 1.8859e-07 0 1.41704e-07)
(3.12838e-05 2.2534e-05 0 2.96806e-05 0 3.00106e-05)
(0.00027047 8.86631e-05 0 9.91332e-05 0 0.000192807)
(0.000833074 0.000378584 0 0.000506419 0 0.000651273)
(0.00136692 0.000405731 0 0.000475762 0 0.00094447)
(2.7652e-08 -1.70325e-10 0 2.78142e-08 0 2.7732e-08)
(2.7595e-08 -1.5701e-10 0 2.73592e-08 0 2.74726e-08)
(2.7644e-08 -1.5027e-10 0 2.75105e-08 0 2.75751e-08)
(2.77058e-08 -1.55541e-10 0 2.78615e-08 0 2.77805e-08)
(2.76441e-08 -1.64135e-10 0 2.78237e-08 0 2.77314e-08)
(2.75916e-08 -1.5703e-10 0 2.75949e-08 0 2.75892e-08)
(2.76081e-08 -1.56307e-10 0 2.7694e-08 0 2.7655e-08)
(2.76746e-08 -1.61284e-10 0 2.80372e-08 0 2.78543e-08)
(2.76533e-08 -1.65312e-10 0 2.80239e-08 0 2.78395e-08)
(2.76141e-08 -1.59227e-10 0 2.78897e-08 0 2.7748e-08)
(2.75802e-08 -1.55339e-10 0 2.78357e-08 0 2.77084e-08)
(2.76202e-08 -1.60307e-10 0 2.79141e-08 0 2.77626e-08)
(2.7606e-08 -1.57012e-10 0 2.81025e-08 0 2.78561e-08)
(2.7583e-08 -1.66587e-10 0 2.83288e-08 0 2.79527e-08)
(2.7537e-08 -1.65776e-10 0 2.83835e-08 0 2.79606e-08)
(2.75316e-08 -1.60841e-10 0 2.83115e-08 0 2.79168e-08)
(2.75371e-08 -1.62144e-10 0 2.84099e-08 0 2.79704e-08)
(2.75517e-08 -1.66241e-10 0 2.86435e-08 0 2.80949e-08)
(2.75094e-08 -1.71744e-10 0 2.8744e-08 0 2.81297e-08)
(2.75188e-08 -1.71387e-10 0 2.86461e-08 0 2.80788e-08)
(2.74864e-08 -1.73545e-10 0 2.84848e-08 0 2.79842e-08)
(2.7481e-08 -1.68282e-10 0 2.84199e-08 0 2.79446e-08)
(2.74423e-08 -1.64502e-10 0 2.83864e-08 0 2.79121e-08)
(2.74757e-08 -1.65924e-10 0 2.84129e-08 0 2.79371e-08)
(2.7454e-08 -1.64695e-10 0 2.86544e-08 0 2.80544e-08)
(2.74734e-08 -1.69802e-10 0 2.88837e-08 0 2.81698e-08)
(2.73799e-08 -1.68648e-10 0 2.92261e-08 0 2.83003e-08)
(2.73698e-08 -1.66692e-10 0 2.97073e-08 0 2.85263e-08)
(2.71911e-08 -1.45999e-10 0 3.1042e-08 0 2.91185e-08)
(2.66308e-08 -1.31903e-10 0 3.45036e-08 0 3.05444e-08)
(2.53568e-08 -1.20207e-10 0 4.02361e-08 0 3.2739e-08)
(2.41882e-08 -1.38755e-10 0 4.67799e-08 0 3.53184e-08)
(2.34792e-08 -1.06609e-10 0 5.25317e-08 0 3.78761e-08)
(2.33007e-08 -1.26664e-10 0 5.83817e-08 0 4.03596e-08)
(2.30983e-08 5.97507e-11 0 6.48463e-08 0 4.37644e-08)
(2.35677e-08 -1.94046e-10 0 7.16244e-08 0 4.71747e-08)
(2.39994e-08 3.97368e-10 0 7.91535e-08 0 5.08226e-08)
(2.61215e-08 3.02388e-10 0 8.82862e-08 0 5.63753e-08)
(2.29477e-08 -2.05881e-10 0 1.10828e-07 0 6.57513e-08)
(6.22799e-07 2.31703e-07 0 4.76171e-07 0 5.29238e-07)
(6.09514e-05 3.80615e-05 0 4.67869e-05 0 5.35594e-05)
(0.00038496 0.000126094 0 0.000140012 0 0.000273399)
(0.00113203 0.000510869 0 0.000635066 0 0.000862572)
(0.00194695 0.000562273 0 0.000651677 0 0.00132558)
(3.1225e-08 -3.19164e-10 0 3.14073e-08 0 3.13212e-08)
(3.13428e-08 -3.01652e-10 0 3.10601e-08 0 3.12037e-08)
(3.13268e-08 -2.926e-10 0 3.11705e-08 0 3.12513e-08)
(3.12559e-08 -2.97848e-10 0 3.14317e-08 0 3.13442e-08)
(3.12144e-08 -3.07931e-10 0 3.14161e-08 0 3.13177e-08)
(3.12521e-08 -3.00775e-10 0 3.1245e-08 0 3.12518e-08)
(3.12333e-08 -2.9717e-10 0 3.13507e-08 0 3.12909e-08)
(3.1177e-08 -3.04435e-10 0 3.16002e-08 0 3.13852e-08)
(3.11624e-08 -3.1082e-10 0 3.15947e-08 0 3.13775e-08)
(3.11789e-08 -3.03826e-10 0 3.14833e-08 0 3.13326e-08)
(3.11661e-08 -2.98254e-10 0 3.14543e-08 0 3.13134e-08)
(3.11784e-08 -3.0131e-10 0 3.15125e-08 0 3.13419e-08)
(3.10968e-08 -2.96021e-10 0 3.16643e-08 0 3.13807e-08)
(3.10026e-08 -3.10206e-10 0 3.18427e-08 0 3.14212e-08)
(3.09456e-08 -3.06871e-10 0 3.19154e-08 0 3.14255e-08)
(3.09713e-08 -3.02706e-10 0 3.18537e-08 0 3.14065e-08)
(3.09327e-08 -3.0038e-10 0 3.19197e-08 0 3.14261e-08)
(3.08643e-08 -3.03619e-10 0 3.20972e-08 0 3.14782e-08)
(3.07862e-08 -3.11799e-10 0 3.21791e-08 0 3.1486e-08)
(3.08349e-08 -3.13594e-10 0 3.2091e-08 0 3.14635e-08)
(3.08571e-08 -3.13328e-10 0 3.19744e-08 0 3.14202e-08)
(3.08747e-08 -3.07845e-10 0 3.19392e-08 0 3.14055e-08)
(3.08486e-08 -3.04391e-10 0 3.19063e-08 0 3.13818e-08)
(3.08665e-08 -3.03287e-10 0 3.19202e-08 0 3.13913e-08)
(3.07511e-08 -3.02291e-10 0 3.21114e-08 0 3.1437e-08)
(3.06981e-08 -3.03134e-10 0 3.22897e-08 0 3.14902e-08)
(3.04919e-08 -3.02066e-10 0 3.25666e-08 0 3.15369e-08)
(3.03363e-08 -2.94364e-10 0 3.29402e-08 0 3.16366e-08)
(2.97615e-08 -2.53625e-10 0 3.40555e-08 0 3.19098e-08)
(2.83963e-08 -2.02876e-10 0 3.69418e-08 0 3.26475e-08)
(2.63349e-08 -1.48647e-10 0 4.19825e-08 0 3.41039e-08)
(2.47204e-08 -1.08829e-10 0 4.79338e-08 0 3.61749e-08)
(2.38082e-08 -1.76197e-10 0 5.33391e-08 0 3.8405e-08)
(2.35102e-08 2.07691e-11 0 5.88796e-08 0 4.07886e-08)
(2.3254e-08 7.68742e-11 0 6.53095e-08 0 4.40314e-08)
(2.37399e-08 7.51673e-11 0 7.1984e-08 0 4.72468e-08)
(2.41017e-08 5.30017e-10 0 7.92642e-08 0 5.10478e-08)
(2.61157e-08 -1.15773e-10 0 8.85902e-08 0 5.6332e-08)
(2.29359e-08 2.83433e-09 0 1.11447e-07 0 6.65546e-08)
(3.04975e-06 1.1616e-06 0 1.7166e-06 0 2.27824e-06)
(0.000102162 5.73807e-05 0 6.73341e-05 0 8.4867e-05)
(0.000513059 0.00016754 0 0.000185259 0 0.000363017)
(0.00143693 0.000637211 0 0.000759674 0 0.00107443)
(0.00253219 0.000721578 0 0.00083372 0 0.00170761)
(3.23156e-08 -3.98674e-10 0 3.2533e-08 0 3.24156e-08)
(3.25192e-08 -3.80109e-10 0 3.22558e-08 0 3.2374e-08)
(3.24661e-08 -3.69946e-10 0 3.23366e-08 0 3.23908e-08)
(3.23327e-08 -3.74218e-10 0 3.25398e-08 0 3.24248e-08)
(3.23043e-08 -3.85287e-10 0 3.25408e-08 0 3.24122e-08)
(3.23902e-08 -3.78389e-10 0 3.24126e-08 0 3.23881e-08)
(3.23322e-08 -3.74116e-10 0 3.24588e-08 0 3.23949e-08)
(3.22243e-08 -3.77464e-10 0 3.26628e-08 0 3.24367e-08)
(3.22075e-08 -3.84849e-10 0 3.26645e-08 0 3.2433e-08)
(3.22679e-08 -3.81187e-10 0 3.25989e-08 0 3.2422e-08)
(3.22583e-08 -3.7614e-10 0 3.2575e-08 0 3.24097e-08)
(3.22475e-08 -3.73232e-10 0 3.26213e-08 0 3.24232e-08)
(3.21367e-08 -3.69939e-10 0 3.27353e-08 0 3.24314e-08)
(3.20208e-08 -3.86041e-10 0 3.28984e-08 0 3.24502e-08)
(3.19514e-08 -3.82516e-10 0 3.29537e-08 0 3.24478e-08)
(3.20002e-08 -3.74808e-10 0 3.29166e-08 0 3.24452e-08)
(3.1939e-08 -3.73226e-10 0 3.29842e-08 0 3.24504e-08)
(3.18282e-08 -3.75088e-10 0 3.31253e-08 0 3.24664e-08)
(3.1746e-08 -3.82758e-10 0 3.31855e-08 0 3.24613e-08)
(3.18093e-08 -3.87196e-10 0 3.31301e-08 0 3.24583e-08)
(3.18597e-08 -3.83457e-10 0 3.30383e-08 0 3.24406e-08)
(3.18834e-08 -3.81102e-10 0 3.30194e-08 0 3.24384e-08)
(3.18747e-08 -3.7993e-10 0 3.29978e-08 0 3.24241e-08)
(3.18751e-08 -3.72575e-10 0 3.30079e-08 0 3.24253e-08)
(3.17253e-08 -3.71736e-10 0 3.3166e-08 0 3.24346e-08)
(3.16348e-08 -3.71927e-10 0 3.33097e-08 0 3.24571e-08)
(3.13987e-08 -3.68223e-10 0 3.3575e-08 0 3.24745e-08)
(3.11861e-08 -3.55296e-10 0 3.38863e-08 0 3.25169e-08)
(3.04057e-08 -2.96577e-10 0 3.48878e-08 0 3.26443e-08)
(2.87881e-08 -2.09771e-10 0 3.75163e-08 0 3.31294e-08)
(2.65306e-08 -1.21578e-10 0 4.23265e-08 0 3.43662e-08)
(2.48075e-08 -3.87207e-11 0 4.81037e-08 0 3.63166e-08)
(2.38679e-08 -2.18852e-10 0 5.34523e-08 0 3.84246e-08)
(2.34963e-08 2.88692e-10 0 5.87158e-08 0 4.09252e-08)
(2.32201e-08 2.07964e-10 0 6.53835e-08 0 4.38789e-08)
(2.38124e-08 2.08173e-10 0 7.2056e-08 0 4.68584e-08)
(2.40979e-08 7.95677e-10 0 7.82881e-08 0 5.15797e-08)
(2.55024e-08 4.62478e-12 0 8.93478e-08 0 5.59548e-08)
(2.55168e-08 8.849e-09 0 1.10227e-07 0 6.90314e-08)
(9.60728e-06 3.63664e-06 0 4.75289e-06 0 6.88453e-06)
(0.000156617 8.09459e-05 0 9.17784e-05 0 0.000125141)
(0.000660827 0.000214795 0 0.000236514 0 0.000465797)
(0.00175725 0.000763233 0 0.000881396 0 0.00129448)
(0.00312467 0.000883759 0 0.00101201 0 0.0020932)
(3.25985e-08 -4.38781e-10 0 3.27665e-08 0 3.26956e-08)
(3.28243e-08 -4.15882e-10 0 3.25124e-08 0 3.26788e-08)
(3.27591e-08 -4.05001e-10 0 3.25934e-08 0 3.26867e-08)
(3.26067e-08 -4.08874e-10 0 3.27772e-08 0 3.27003e-08)
(3.25828e-08 -4.21073e-10 0 3.27795e-08 0 3.26918e-08)
(3.26845e-08 -4.10252e-10 0 3.26518e-08 0 3.26795e-08)
(3.26309e-08 -4.04294e-10 0 3.27343e-08 0 3.26897e-08)
(3.24904e-08 -4.08802e-10 0 3.29145e-08 0 3.27086e-08)
(3.24825e-08 -4.18941e-10 0 3.29175e-08 0 3.27078e-08)
(3.2542e-08 -4.17961e-10 0 3.28383e-08 0 3.26997e-08)
(3.25401e-08 -4.08915e-10 0 3.28229e-08 0 3.26917e-08)
(3.25212e-08 -4.03109e-10 0 3.28713e-08 0 3.27009e-08)
(3.24072e-08 -4.00886e-10 0 3.29786e-08 0 3.27016e-08)
(3.22795e-08 -4.18359e-10 0 3.3126e-08 0 3.27101e-08)
(3.22124e-08 -4.13975e-10 0 3.31982e-08 0 3.27102e-08)
(3.22548e-08 -4.05005e-10 0 3.31525e-08 0 3.2708e-08)
(3.21922e-08 -4.04235e-10 0 3.32023e-08 0 3.27053e-08)
(3.20669e-08 -4.06385e-10 0 3.3342e-08 0 3.2711e-08)
(3.19841e-08 -4.12551e-10 0 3.33953e-08 0 3.27014e-08)
(3.20431e-08 -4.19429e-10 0 3.33349e-08 0 3.26993e-08)
(3.2105e-08 -4.13302e-10 0 3.3249e-08 0 3.26901e-08)
(3.21313e-08 -4.12152e-10 0 3.32376e-08 0 3.26928e-08)
(3.21267e-08 -4.1417e-10 0 3.32051e-08 0 3.26788e-08)
(3.21109e-08 -4.02928e-10 0 3.32277e-08 0 3.26778e-08)
(3.19639e-08 -3.98257e-10 0 3.33537e-08 0 3.26727e-08)
(3.18489e-08 -3.97129e-10 0 3.3504e-08 0 3.26852e-08)
(3.16062e-08 -3.96635e-10 0 3.3727e-08 0 3.26842e-08)
(3.13722e-08 -3.79071e-10 0 3.4041e-08 0 3.27155e-08)
(3.05589e-08 -3.00102e-10 0 3.50426e-08 0 3.28099e-08)
(2.88607e-08 -1.85173e-10 0 3.76233e-08 0 3.32266e-08)
(2.65519e-08 -7.57755e-11 0 4.23655e-08 0 3.44009e-08)
(2.48196e-08 1.47494e-11 0 4.81027e-08 0 3.63305e-08)
(2.38863e-08 -1.66982e-10 0 5.35048e-08 0 3.83971e-08)
(2.35156e-08 3.61606e-10 0 5.85472e-08 0 4.10137e-08)
(2.31545e-08 2.17275e-10 0 6.55729e-08 0 4.35754e-08)
(2.37299e-08 5.32068e-10 0 7.17906e-08 0 4.668e-08)
(2.39954e-08 1.11315e-09 0 7.73186e-08 0 5.19461e-08)
(2.48681e-08 3.41627e-09 0 9.15403e-08 0 5.51857e-08)
(3.48807e-08 1.82933e-08 0 1.11212e-07 0 7.87367e-08)
(2.10686e-05 7.87166e-06 0 9.57151e-06 0 1.48106e-05)
(0.000225785 0.000109006 0 0.000120473 0 0.000175349)
(0.000832123 0.000268989 0 0.000294651 0 0.000584346)
(0.0021006 0.00089245 0 0.0010103 0 0.00152909)
(0.00372788 0.00105028 0 0.00119886 0 0.00248624)
(3.26817e-08 -4.54529e-10 0 3.28828e-08 0 3.27785e-08)
(3.29205e-08 -4.27506e-10 0 3.2642e-08 0 3.27728e-08)
(3.28403e-08 -4.14072e-10 0 3.27181e-08 0 3.27739e-08)
(3.2688e-08 -4.17077e-10 0 3.28807e-08 0 3.27785e-08)
(3.26639e-08 -4.3078e-10 0 3.28938e-08 0 3.27738e-08)
(3.27773e-08 -4.19789e-10 0 3.27792e-08 0 3.27703e-08)
(3.27053e-08 -4.12913e-10 0 3.28307e-08 0 3.27668e-08)
(3.25693e-08 -4.17139e-10 0 3.30094e-08 0 3.27829e-08)
(3.25568e-08 -4.2956e-10 0 3.30115e-08 0 3.27811e-08)
(3.26242e-08 -4.28405e-10 0 3.29553e-08 0 3.27822e-08)
(3.26189e-08 -4.17282e-10 0 3.29323e-08 0 3.27718e-08)
(3.25981e-08 -4.09922e-10 0 3.29772e-08 0 3.27786e-08)
(3.24791e-08 -4.08322e-10 0 3.30794e-08 0 3.27751e-08)
(3.23508e-08 -4.26205e-10 0 3.32304e-08 0 3.27829e-08)
(3.22851e-08 -4.21605e-10 0 3.32883e-08 0 3.27801e-08)
(3.2329e-08 -4.1183e-10 0 3.32645e-08 0 3.27842e-08)
(3.22722e-08 -4.09014e-10 0 3.33072e-08 0 3.27797e-08)
(3.21284e-08 -4.14477e-10 0 3.34489e-08 0 3.27794e-08)
(3.20497e-08 -4.20337e-10 0 3.34952e-08 0 3.27685e-08)
(3.21145e-08 -4.268e-10 0 3.34526e-08 0 3.27733e-08)
(3.21812e-08 -4.21641e-10 0 3.33707e-08 0 3.27676e-08)
(3.22084e-08 -4.20886e-10 0 3.33594e-08 0 3.27713e-08)
(3.22082e-08 -4.23132e-10 0 3.33323e-08 0 3.27602e-08)
(3.21887e-08 -4.11682e-10 0 3.3355e-08 0 3.2758e-08)
(3.20407e-08 -4.03174e-10 0 3.34804e-08 0 3.27505e-08)
(3.19229e-08 -4.03308e-10 0 3.36301e-08 0 3.27609e-08)
(3.16836e-08 -4.01348e-10 0 3.38699e-08 0 3.27632e-08)
(3.14417e-08 -3.80266e-10 0 3.41612e-08 0 3.2784e-08)
(3.05873e-08 -2.84491e-10 0 3.51279e-08 0 3.2853e-08)
(2.88769e-08 -1.5464e-10 0 3.76499e-08 0 3.32418e-08)
(2.65549e-08 -1.26168e-11 0 4.2365e-08 0 3.44021e-08)
(2.4814e-08 3.75615e-11 0 4.8076e-08 0 3.6325e-08)
(2.38621e-08 1.42584e-10 0 5.35191e-08 0 3.8321e-08)
(2.35663e-08 2.1913e-10 0 5.83042e-08 0 4.11546e-08)
(2.30868e-08 3.6093e-10 0 6.60673e-08 0 4.30976e-08)
(2.38229e-08 1.49782e-09 0 7.1367e-08 0 4.70584e-08)
(2.37181e-08 1.6656e-09 0 7.73398e-08 0 5.22316e-08)
(2.65027e-08 9.59977e-09 0 9.13204e-08 0 5.57187e-08)
(6.50134e-08 3.54333e-08 0 1.19426e-07 0 1.10139e-07)
(3.77974e-05 1.39109e-05 0 1.61313e-05 0 2.62846e-05)
(0.000311215 0.000141869 0 0.000153555 0 0.000236496)
(0.00102921 0.000330655 0 0.000360684 0 0.000720174)
(0.00246927 0.00102631 0 0.00114312 0 0.00177981)
(0.00434243 0.00122084 0 0.00138791 0 0.00288753)
(3.2678e-08 -4.60084e-10 0 3.28529e-08 0 3.27738e-08)
(3.2916e-08 -4.31012e-10 0 3.26094e-08 0 3.27686e-08)
(3.2839e-08 -4.14416e-10 0 3.26915e-08 0 3.27713e-08)
(3.26832e-08 -4.1688e-10 0 3.28601e-08 0 3.27757e-08)
(3.26604e-08 -4.3241e-10 0 3.28653e-08 0 3.27695e-08)
(3.27711e-08 -4.2099e-10 0 3.27433e-08 0 3.27639e-08)
(3.27037e-08 -4.12419e-10 0 3.28088e-08 0 3.27652e-08)
(3.25622e-08 -4.18579e-10 0 3.29782e-08 0 3.27764e-08)
(3.25514e-08 -4.33259e-10 0 3.29878e-08 0 3.27775e-08)
(3.26172e-08 -4.29642e-10 0 3.29166e-08 0 3.27745e-08)
(3.26154e-08 -4.16889e-10 0 3.29007e-08 0 3.27672e-08)
(3.25923e-08 -4.09415e-10 0 3.29445e-08 0 3.27729e-08)
(3.24733e-08 -4.09339e-10 0 3.30478e-08 0 3.27693e-08)
(3.23445e-08 -4.27466e-10 0 3.31958e-08 0 3.27759e-08)
(3.22787e-08 -4.21851e-10 0 3.32585e-08 0 3.27748e-08)
(3.23207e-08 -4.12369e-10 0 3.32218e-08 0 3.2775e-08)
(3.22582e-08 -4.07566e-10 0 3.32645e-08 0 3.27684e-08)
(3.21215e-08 -4.14942e-10 0 3.34062e-08 0 3.27698e-08)
(3.20398e-08 -4.20519e-10 0 3.34533e-08 0 3.27583e-08)
(3.20993e-08 -4.25538e-10 0 3.33969e-08 0 3.2758e-08)
(3.21657e-08 -4.23097e-10 0 3.33128e-08 0 3.27518e-08)
(3.21938e-08 -4.23974e-10 0 3.33041e-08 0 3.27565e-08)
(3.21919e-08 -4.25357e-10 0 3.32728e-08 0 3.27436e-08)
(3.21726e-08 -4.13333e-10 0 3.32975e-08 0 3.2742e-08)
(3.20218e-08 -4.01261e-10 0 3.34158e-08 0 3.27312e-08)
(3.18934e-08 -4.02176e-10 0 3.35648e-08 0 3.27385e-08)
(3.16575e-08 -3.98856e-10 0 3.37693e-08 0 3.27317e-08)
(3.14171e-08 -3.74327e-10 0 3.40802e-08 0 3.27574e-08)
(3.05727e-08 -2.66193e-10 0 3.50723e-08 0 3.28339e-08)
(2.88738e-08 -1.1933e-10 0 3.76406e-08 0 3.32368e-08)
(2.65553e-08 3.46204e-11 0 4.2366e-08 0 3.43998e-08)
(2.48183e-08 5.69128e-11 0 4.80753e-08 0 3.63246e-08)
(2.38467e-08 4.28537e-10 0 5.34728e-08 0 3.82448e-08)
(2.35396e-08 -1.67086e-10 0 5.7786e-08 0 4.11963e-08)
(2.28599e-08 1.12072e-09 0 6.64689e-08 0 4.24627e-08)
(2.34388e-08 1.55515e-09 0 7.0807e-08 0 4.72469e-08)
(2.39295e-08 4.2795e-09 0 7.73534e-08 0 5.20754e-08)
(3.12762e-08 1.51186e-08 0 9.00519e-08 0 5.87775e-08)
(1.65295e-07 7.87744e-08 0 1.57764e-07 0 2.06581e-07)
(6.07501e-05 2.20189e-05 0 2.46548e-05 0 4.19452e-05)
(0.000414432 0.000179772 0 0.000191448 0 0.0003096)
(0.00125298 0.000399966 0 0.000434106 0 0.000873854)
(0.00286541 0.00116579 0 0.00128532 0 0.00204862)
(0.00497021 0.00139636 0 0.00158616 0 0.00329905)
(3.26965e-08 -4.63486e-10 0 3.29014e-08 0 3.27919e-08)
(3.29398e-08 -4.32522e-10 0 3.26625e-08 0 3.27895e-08)
(3.28518e-08 -4.12884e-10 0 3.27415e-08 0 3.27882e-08)
(3.27002e-08 -4.15008e-10 0 3.28989e-08 0 3.27905e-08)
(3.26794e-08 -4.33587e-10 0 3.2912e-08 0 3.27871e-08)
(3.2791e-08 -4.20232e-10 0 3.28006e-08 0 3.27847e-08)
(3.27217e-08 -4.10524e-10 0 3.28606e-08 0 3.27838e-08)
(3.25836e-08 -4.19268e-10 0 3.3034e-08 0 3.27967e-08)
(3.2573e-08 -4.34588e-10 0 3.30377e-08 0 3.27965e-08)
(3.26385e-08 -4.28968e-10 0 3.29805e-08 0 3.27972e-08)
(3.26357e-08 -4.1491e-10 0 3.29584e-08 0 3.27881e-08)
(3.26136e-08 -4.07843e-10 0 3.3004e-08 0 3.27944e-08)
(3.24933e-08 -4.08599e-10 0 3.31045e-08 0 3.27895e-08)
(3.23641e-08 -4.27484e-10 0 3.32511e-08 0 3.27957e-08)
(3.23005e-08 -4.215e-10 0 3.33144e-08 0 3.27955e-08)
(3.23435e-08 -4.10743e-10 0 3.32875e-08 0 3.27985e-08)
(3.22848e-08 -4.0467e-10 0 3.33283e-08 0 3.2792e-08)
(3.21393e-08 -4.13666e-10 0 3.347e-08 0 3.27911e-08)
(3.20611e-08 -4.2003e-10 0 3.35173e-08 0 3.27806e-08)
(3.21258e-08 -4.23896e-10 0 3.34731e-08 0 3.2785e-08)
(3.21928e-08 -4.23428e-10 0 3.33892e-08 0 3.27789e-08)
(3.222e-08 -4.25538e-10 0 3.33788e-08 0 3.27828e-08)
(3.22196e-08 -4.25598e-10 0 3.33519e-08 0 3.27713e-08)
(3.22004e-08 -4.12723e-10 0 3.33752e-08 0 3.27696e-08)
(3.20513e-08 -3.99402e-10 0 3.35e-08 0 3.2761e-08)
(3.19334e-08 -4.01053e-10 0 3.36527e-08 0 3.2772e-08)
(3.16933e-08 -3.95244e-10 0 3.38907e-08 0 3.27728e-08)
(3.14502e-08 -3.64668e-10 0 3.41793e-08 0 3.27918e-08)
(3.05934e-08 -2.46533e-10 0 3.51428e-08 0 3.28573e-08)
(2.88689e-08 -8.16601e-11 0 3.76344e-08 0 3.32312e-08)
(2.65465e-08 1.00128e-10 0 4.23372e-08 0 3.43842e-08)
(2.4786e-08 1.38304e-10 0 4.80151e-08 0 3.62875e-08)
(2.38815e-08 6.38371e-10 0 5.33792e-08 0 3.81705e-08)
(2.35275e-08 2.33647e-11 0 5.75427e-08 0 4.11668e-08)
(2.26173e-08 1.94457e-09 0 6.71532e-08 0 4.20262e-08)
(2.33506e-08 2.11702e-09 0 7.03068e-08 0 4.79421e-08)
(2.65001e-08 8.86219e-09 0 7.6471e-08 0 5.25544e-08)
(4.13798e-08 2.10272e-08 0 8.88542e-08 0 6.74126e-08)
(4.90497e-07 2.05704e-07 0 2.84271e-07 0 4.86503e-07)
(9.11155e-05 3.25075e-05 0 3.54658e-05 0 6.25898e-05)
(0.000536392 0.00022279 0 0.000234063 0 0.000395308)
(0.00150289 0.000476553 0 0.00051538 0 0.00104507)
(0.00328717 0.00131049 0 0.00143282 0 0.00233422)
(0.00561001 0.0015764 0 0.00178911 0 0.0037202)
(3.26707e-08 -4.6512e-10 0 3.2832e-08 0 3.27652e-08)
(3.29103e-08 -4.32119e-10 0 3.25901e-08 0 3.27614e-08)
(3.2829e-08 -4.11547e-10 0 3.26745e-08 0 3.2763e-08)
(3.2675e-08 -4.12582e-10 0 3.28405e-08 0 3.27667e-08)
(3.26527e-08 -4.3356e-10 0 3.28444e-08 0 3.27606e-08)
(3.27611e-08 -4.18367e-10 0 3.2723e-08 0 3.27547e-08)
(3.26917e-08 -4.0834e-10 0 3.27845e-08 0 3.27541e-08)
(3.25503e-08 -4.18375e-10 0 3.29524e-08 0 3.27643e-08)
(3.25429e-08 -4.3428e-10 0 3.29611e-08 0 3.27667e-08)
(3.2606e-08 -4.2792e-10 0 3.28953e-08 0 3.27645e-08)
(3.26059e-08 -4.12892e-10 0 3.28786e-08 0 3.27577e-08)
(3.25825e-08 -4.05739e-10 0 3.29225e-08 0 3.27632e-08)
(3.24623e-08 -4.0524e-10 0 3.3025e-08 0 3.27585e-08)
(3.23342e-08 -4.27397e-10 0 3.31736e-08 0 3.27653e-08)
(3.22691e-08 -4.212e-10 0 3.32355e-08 0 3.27646e-08)
(3.23111e-08 -4.05652e-10 0 3.31998e-08 0 3.27648e-08)
(3.22458e-08 -4.00843e-10 0 3.32429e-08 0 3.27567e-08)
(3.21113e-08 -4.11361e-10 0 3.3386e-08 0 3.27592e-08)
(3.20289e-08 -4.184e-10 0 3.3433e-08 0 3.27475e-08)
(3.20896e-08 -4.21666e-10 0 3.3378e-08 0 3.2748e-08)
(3.21554e-08 -4.23615e-10 0 3.32924e-08 0 3.27409e-08)
(3.21815e-08 -4.23793e-10 0 3.32804e-08 0 3.27438e-08)
(3.21782e-08 -4.22671e-10 0 3.32487e-08 0 3.273e-08)
(3.21607e-08 -4.10836e-10 0 3.32734e-08 0 3.27295e-08)
(3.20086e-08 -3.95939e-10 0 3.339e-08 0 3.27176e-08)
(3.18789e-08 -3.95689e-10 0 3.35358e-08 0 3.27233e-08)
(3.16421e-08 -3.89102e-10 0 3.37408e-08 0 3.27158e-08)
(3.14015e-08 -3.54757e-10 0 3.40497e-08 0 3.27408e-08)
(3.05595e-08 -2.25922e-10 0 3.50386e-08 0 3.28161e-08)
(2.88623e-08 -4.58161e-11 0 3.76096e-08 0 3.32182e-08)
(2.65401e-08 1.70249e-10 0 4.23105e-08 0 3.43655e-08)
(2.47497e-08 2.27541e-10 0 4.79066e-08 0 3.62324e-08)
(2.37922e-08 4.63593e-10 0 5.31642e-08 0 3.80692e-08)
(2.34816e-08 7.3987e-10 0 5.71217e-08 0 4.1066e-08)
(2.21836e-08 3.11391e-09 0 6.7972e-08 0 4.14424e-08)
(2.47161e-08 4.93916e-09 0 6.76887e-08 0 4.97672e-08)
(3.14595e-08 1.26085e-08 0 7.47696e-08 0 5.53494e-08)
(6.16538e-08 2.70513e-08 0 8.92866e-08 0 8.78683e-08)
(1.45224e-06 5.60233e-07 0 6.42047e-07 0 1.24057e-06)
(0.000130199 4.5712e-05 0 4.88592e-05 0 8.91011e-05)
(0.00067742 0.000270733 0 0.000281531 0 0.000493879)
(0.00177706 0.0005597 0 0.000602973 0 0.00123261)
(0.00373205 0.00145984 0 0.00158844 0 0.00263541)
(0.00626101 0.00176102 0 0.00200052 0 0.00415086)
(3.26962e-08 -4.6755e-10 0 3.29119e-08 0 3.27905e-08)
(3.29378e-08 -4.3044e-10 0 3.26731e-08 0 3.27878e-08)
(3.28504e-08 -4.09389e-10 0 3.27506e-08 0 3.27859e-08)
(3.26981e-08 -4.10504e-10 0 3.29081e-08 0 3.27881e-08)
(3.26782e-08 -4.33532e-10 0 3.2922e-08 0 3.27852e-08)
(3.27889e-08 -4.1803e-10 0 3.28122e-08 0 3.27827e-08)
(3.272e-08 -4.06869e-10 0 3.28767e-08 0 3.2783e-08)
(3.25819e-08 -4.16243e-10 0 3.30484e-08 0 3.27952e-08)
(3.25756e-08 -4.31659e-10 0 3.30491e-08 0 3.27957e-08)
(3.26356e-08 -4.2695e-10 0 3.29955e-08 0 3.2796e-08)
(3.26351e-08 -4.11495e-10 0 3.29723e-08 0 3.27875e-08)
(3.26124e-08 -4.02541e-10 0 3.30168e-08 0 3.27932e-08)
(3.24907e-08 -3.98969e-10 0 3.31154e-08 0 3.27871e-08)
(3.23624e-08 -4.27636e-10 0 3.3261e-08 0 3.27931e-08)
(3.2298e-08 -4.21955e-10 0 3.33266e-08 0 3.27938e-08)
(3.23412e-08 -3.99694e-10 0 3.32947e-08 0 3.2795e-08)
(3.22777e-08 -3.95919e-10 0 3.33351e-08 0 3.27864e-08)
(3.21348e-08 -4.07788e-10 0 3.34744e-08 0 3.27859e-08)
(3.20568e-08 -4.17332e-10 0 3.35238e-08 0 3.27763e-08)
(3.21212e-08 -4.2166e-10 0 3.34772e-08 0 3.27801e-08)
(3.21871e-08 -4.24869e-10 0 3.33927e-08 0 3.27729e-08)
(3.22136e-08 -4.20478e-10 0 3.3383e-08 0 3.2776e-08)
(3.2212e-08 -4.18319e-10 0 3.33579e-08 0 3.27644e-08)
(3.2196e-08 -4.07708e-10 0 3.3382e-08 0 3.27643e-08)
(3.20472e-08 -3.92444e-10 0 3.35081e-08 0 3.27561e-08)
(3.19281e-08 -3.92529e-10 0 3.36638e-08 0 3.27673e-08)
(3.16887e-08 -3.82981e-10 0 3.3897e-08 0 3.27666e-08)
(3.14492e-08 -3.45063e-10 0 3.41845e-08 0 3.27863e-08)
(3.05878e-08 -2.03725e-10 0 3.51465e-08 0 3.28502e-08)
(2.88636e-08 -9.79978e-12 0 3.7623e-08 0 3.32191e-08)
(2.65205e-08 2.06954e-10 0 4.22728e-08 0 3.43445e-08)
(2.47475e-08 3.18636e-10 0 4.78335e-08 0 3.61922e-08)
(2.38143e-08 3.86838e-10 0 5.28826e-08 0 3.7967e-08)
(2.31996e-08 1.48481e-09 0 5.70223e-08 0 4.08191e-08)
(2.21596e-08 4.77888e-09 0 6.80471e-08 0 4.12984e-08)
(2.76027e-08 5.91936e-09 0 6.41874e-08 0 5.23589e-08)
(4.09932e-08 1.65114e-08 0 7.36895e-08 0 6.15752e-08)
(1.03222e-07 3.64203e-08 0 9.41732e-08 0 1.30661e-07)
(3.86361e-06 1.40598e-06 0 1.48331e-06 0 3.00995e-06)
(0.000179249 6.19058e-05 0 6.51339e-05 0 0.000122327)
(0.000836932 0.000323175 0 0.00033323 0 0.000604971)
(0.00207264 0.00064833 0 0.000696853 0 0.00143469)
(0.00419573 0.0016126 0 0.00174806 0 0.00294931)
(0.0069204 0.00194942 0 0.00221661 0 0.0045893)
(3.26546e-08 -4.69966e-10 0 3.2804e-08 0 3.27488e-08)
(3.28948e-08 -4.28148e-10 0 3.25629e-08 0 3.27453e-08)
(3.28119e-08 -4.06215e-10 0 3.26473e-08 0 3.27461e-08)
(3.266e-08 -4.07609e-10 0 3.28148e-08 0 3.27513e-08)
(3.26367e-08 -4.33806e-10 0 3.28175e-08 0 3.27443e-08)
(3.27426e-08 -4.17795e-10 0 3.26925e-08 0 3.27362e-08)
(3.26708e-08 -4.04278e-10 0 3.27508e-08 0 3.27341e-08)
(3.25305e-08 -4.11934e-10 0 3.29207e-08 0 3.27453e-08)
(3.25269e-08 -4.29708e-10 0 3.29266e-08 0 3.27481e-08)
(3.25865e-08 -4.24845e-10 0 3.2865e-08 0 3.2746e-08)
(3.25883e-08 -4.09954e-10 0 3.2848e-08 0 3.27397e-08)