/*--------------------------------*- C++ -*----------------------------------*\
| =========                 |                                                 |
| \\      /  F ield         | OpenFOAM: The Open Source CFD Toolbox           |
|  \\    /   O peration     | Version:  v1912                                 |
|   \\  /    A nd           | Website:  www.openfoam.com                      |
|    \\/     M anipulation  |                                                 |
\*---------------------------------------------------------------------------*/
FoamFile
{
    version     2.0;
    format      ascii;
    class       surfaceScalarField;
    location    "50";
    object      alphaPhi0.water;
}
// * * * * * * * * * * * * * * * * * * * * * * * * * * * * * * * * * * * * * //

dimensions      [0 3 -1 0 0 0 0];
oriented        oriented;


internalField   nonuniform List<scalar> 
28285
(
-9.88692e-05
-1.70091e-05
-8.10681e-05
-1.78011e-05
-6.26297e-05
-1.84384e-05
-4.37085e-05
-1.89213e-05
-2.43265e-05
-1.9382e-05
-4.32179e-06
-2.00047e-05
1.61231e-05
-2.04448e-05
-1.87266e-05
3.48496e-05
-9.86791e-05
-3.40026e-05
-8.08977e-05
-3.55825e-05
-6.24868e-05
-3.68492e-05
-4.35883e-05
-3.78198e-05
-2.42236e-05
-3.87467e-05
-4.26608e-06
-3.99622e-05
1.60694e-05
-4.07803e-05
-3.73473e-05
3.469e-05
-9.86956e-05
-5.09953e-05
-8.09126e-05
-5.33655e-05
-6.25019e-05
-5.52599e-05
-4.36023e-05
-5.67194e-05
-2.42405e-05
-5.81085e-05
-4.28392e-06
-5.99187e-05
1.60625e-05
-6.11267e-05
-5.59886e-05
3.47038e-05
-9.86852e-05
-6.79903e-05
-8.09026e-05
-7.11482e-05
-6.2491e-05
-7.36715e-05
-4.3592e-05
-7.56184e-05
-2.42255e-05
-7.74751e-05
-4.28741e-06
-7.98568e-05
1.60464e-05
-8.14605e-05
-7.46572e-05
3.47149e-05
-9.86687e-05
-8.49864e-05
-8.0886e-05
-8.89309e-05
-6.24732e-05
-9.20843e-05
-4.35749e-05
-9.45168e-05
-2.42073e-05
-9.68427e-05
-4.2756e-06
-9.97884e-05
1.60593e-05
-0.000101795
-9.33386e-05
3.47408e-05
-9.86519e-05
-0.000101983
-8.087e-05
-0.000106713
-6.24523e-05
-0.000110502
-4.35562e-05
-0.000113413
-2.41868e-05
-0.000116212
-4.26906e-06
-0.000119706
1.60592e-05
-0.000122124
-0.000112042
3.47629e-05
-9.86338e-05
-0.00011898
-8.08521e-05
-0.000124495
-6.24315e-05
-0.000128923
-4.35355e-05
-0.000132309
-2.41663e-05
-0.000135581
-4.25949e-06
-0.000139613
1.60695e-05
-0.000142453
-0.000130764
3.47915e-05
-9.86187e-05
-0.000135977
-8.08344e-05
-0.000142279
-6.24128e-05
-0.000147344
-4.35142e-05
-0.000151207
-2.4146e-05
-0.00015495
-4.25094e-06
-0.000159508
1.60747e-05
-0.000162778
-0.000149502
3.48127e-05
-9.86012e-05
-0.000152975
-8.08152e-05
-0.000160065
-6.23931e-05
-0.000165766
-4.34921e-05
-0.000170108
-2.41252e-05
-0.000174316
-4.23983e-06
-0.000179393
1.60858e-05
-0.000183104
-0.000168259
3.48429e-05
-9.85815e-05
-0.000169974
-8.07934e-05
-0.000177853
-6.23748e-05
-0.000184185
-4.34699e-05
-0.000189013
-2.41018e-05
-0.000193685
-4.2248e-06
-0.00019927
1.61285e-05
-0.000203457
-0.00018702
3.48894e-05
-9.85371e-05
-0.000186976
-8.07434e-05
-0.000195647
-6.23259e-05
-0.000202602
-4.34193e-05
-0.00020792
-2.4045e-05
-0.000213059
-4.15968e-06
-0.000219156
1.63758e-05
-0.000223993
-0.000205744
3.50996e-05
-9.84465e-05
-0.000203993
-8.06422e-05
-0.000213451
-6.22031e-05
-0.000221041
-4.32731e-05
-0.00022685
-2.38803e-05
-0.000232452
-3.94583e-06
-0.00023909
1.72115e-05
-0.00024515
-0.000224531
3.59989e-05
-9.85723e-05
-0.000221013
-8.07558e-05
-0.000231267
-6.23128e-05
-0.000239484
-4.3377e-05
-0.000245786
-2.40025e-05
-0.000251826
-4.06811e-06
-0.000259024
1.76221e-05
-0.00026684
-0.000244494
3.7585e-05
-9.9941e-05
-0.000237863
-8.2345e-05
-0.000248863
-6.41746e-05
-0.000257655
-4.56202e-05
-0.00026434
-2.67939e-05
-0.000270652
-7.72721e-06
-0.000278091
1.36028e-05
-0.00028817
-0.000267124
3.62329e-05
-0.000603434
-0.000407018
-0.000449599
-0.000402698
-0.000313237
-0.000394017
-0.00019607
-0.000381506
-9.92525e-05
-0.00036747
-2.33682e-05
-0.000353976
3.45854e-05
-0.000346124
-0.00030296
7.04205e-05
-0.000596121
-0.00057637
-0.000442076
-0.000556743
-0.000305456
-0.000530637
-0.000187892
-0.00049907
-9.03852e-05
-0.000464977
-1.36502e-05
-0.000430711
4.16379e-05
-0.000401412
-0.000331734
7.04126e-05
-0.000596658
-0.000745546
-0.0004428
-0.0007106
-0.000306376
-0.000667061
-0.000189057
-0.00061639
-9.18509e-05
-0.000562183
-1.55682e-05
-0.000506993
3.90494e-05
-0.00045603
-0.000360976
6.82908e-05
-0.000595879
-0.000914684
-0.000442106
-0.000864373
-0.000305817
-0.00080335
-0.000188686
-0.000733521
-9.16048e-05
-0.000659264
-1.56232e-05
-0.000582975
3.89166e-05
-0.000510569
-0.000390253
6.81936e-05
-0.000595413
-0.00108381
-0.000441696
-0.00101809
-0.000305461
-0.000939585
-0.000188387
-0.000850594
-9.14034e-05
-0.000756248
-1.55077e-05
-0.000658871
3.88301e-05
-0.000564907
-0.000419545
6.81216e-05
-0.000594775
-0.00125289
-0.000441134
-0.00117173
-0.000304994
-0.00107572
-0.000188012
-0.000967577
-9.11206e-05
-0.000853139
-1.53957e-05
-0.000734596
3.8958e-05
-0.000619261
-0.000448914
6.83275e-05
-0.00059339
-0.00142199
-0.000439796
-0.00132532
-0.000303732
-0.00121179
-0.000186867
-0.00108444
-9.00682e-05
-0.000949939
-1.44818e-05
-0.000810182
3.95571e-05
-0.0006733
-0.000478114
6.87569e-05
-0.00266928
-0.00189047
-0.00218072
-0.00181388
-0.00167618
-0.00171633
-0.00115996
-0.00160066
-0.000632131
-0.00147777
-9.8012e-05
-0.0013443
0.000451889
-0.0012232
-0.000999604
0.000973379
-0.00266496
-0.002361
-0.00217477
-0.00230407
-0.00166904
-0.00222206
-0.0011522
-0.0021175
-0.000623775
-0.00200619
-9.22435e-05
-0.00187583
0.000457094
-0.00177254
-0.00153063
0.00098812
-0.00265589
-0.00283433
-0.00216349
-0.00279647
-0.00165638
-0.00272917
-0.00113825
-0.00263563
-0.000610002
-0.00253444
-7.99773e-05
-0.00240586
0.000466549
-0.00231906
-0.00206535
0.00100127
-0.00265364
-0.00331055
-0.00215855
-0.00329156
-0.00164944
-0.00323828
-0.00112968
-0.00315539
-0.000600729
-0.00306339
-7.14353e-05
-0.00293515
0.000469004
-0.0028595
-0.00260715
0.0010108
-0.00264743
-0.00379075
-0.00214952
-0.00378946
-0.00163835
-0.00374945
-0.00111743
-0.00367631
-0.000588615
-0.00359221
-5.80334e-05
-0.00346573
0.000479936
-0.00339747
-0.00314816
0.00102095
-0.00264799
-0.00427415
-0.00214715
-0.0042903
-0.00163327
-0.00426334
-0.00111007
-0.0041995
-0.000579765
-0.00412251
-4.82548e-05
-0.00399724
0.000485963
-0.00393169
-0.00369353
0.00103133
-0.00264515
-0.004763
-0.00214067
-0.00479479
-0.00162427
-0.00477973
-0.00109942
-0.00472435
-0.000568461
-0.00465348
-3.48923e-05
-0.00453081
0.000497355
-0.00446394
-0.0042336
0.00103743
-0.0026478
-0.00525475
-0.00213968
-0.00530291
-0.00162041
-0.005299
-0.00109253
-0.00525223
-0.000559967
-0.00518604
-2.52865e-05
-0.00506549
0.000505307
-0.00499453
-0.00477648
0.00104819
-0.00264836
-0.00575356
-0.00213589
-0.00581538
-0.00161335
-0.00582154
-0.00108356
-0.00578202
-0.000549712
-0.00571988
-1.18473e-05
-0.00560336
0.000518899
-0.00552528
-0.00530986
0.00105228
-0.0026525
-0.00625508
-0.0021369
-0.00633098
-0.001611
-0.00634744
-0.00107782
-0.00631521
-0.000541513
-0.00625619
-1.43303e-06
-0.00614344
0.000526184
-0.00605289
-0.00584386
0.00106019
-0.00267498
-0.00676843
-0.00215079
-0.00685517
-0.00161792
-0.00688032
-0.00107904
-0.00685408
-0.000538492
-0.00679674
6.77114e-06
-0.0066887
0.000535992
-0.00658212
-0.00637004
0.00106217
-0.0028128
-0.00730981
-0.00226413
-0.00740383
-0.0017097
-0.00743475
-0.00115146
-0.00741232
-0.000593205
-0.00735499
-3.48509e-05
-0.00724706
0.000500146
-0.00711711
-0.00690943
0.00103954
-0.00358644
-0.00795022
-0.00294907
-0.0080412
-0.0023136
-0.00807022
-0.00167677
-0.00804914
-0.00103976
-0.00799201
-0.0003927
-0.00789412
0.00023908
-0.00774889
-0.00754147
0.000871126
-0.00494515
-0.00716732
-0.00426387
-0.00738041
-0.00356756
-0.00755467
-0.00285133
-0.00769807
-0.00211949
-0.00781182
-0.00136819
-0.00789696
-0.000594108
-0.00793842
-0.00797633
0.000263679
-0.00271949
-0.00129474
-0.00240575
-0.00147107
-0.00203552
-0.0016676
-0.00160277
-0.00188739
-0.00110575
-0.00213204
-0.000542074
-0.0024034
0.000127126
-0.00271596
-0.00311529
0.000957717
0.00123729
-1.8645e-05
0.00130705
-2.16394e-05
0.0013953
-2.49633e-05
0.00150473
-2.88225e-05
0.00163535
-3.33105e-05
0.00179057
-3.85632e-05
0.00195515
-4.5263e-05
-4.2117e-05
0.00206173
6.79398e-05
-1.28655e-07
7.50387e-05
-1.23958e-07
8.37178e-05
-1.20065e-07
9.45968e-05
-1.18995e-07
0.000108623
-1.23824e-07
0.000126689
-1.29349e-07
0.000150941
-1.56732e-07
-1.26106e-08
0.000187962
2.41025e-07
-1.66263e-31
2.28662e-07
4.35767e-31
2.23811e-07
2.59e-30
2.29812e-07
6.45845e-30
2.4859e-07
1.67413e-29
2.82903e-07
3.69909e-29
3.27654e-07
6.70105e-29
6.80618e-29
3.4765e-07
0
-8.8841e-31
-1.15607e-30
9.99314e-33
-6.85012e-30
1.78707e-30
-1.72372e-29
4.47172e-30
-4.45026e-29
1.33877e-29
-1.00535e-28
3.11648e-29
-1.73779e-28
5.34022e-29
5.62565e-29
-2.48701e-28
9.48557e-31
-4.63375e-32
-2.09548e-32
7.47912e-32
-3.70028e-30
3.97858e-31
-9.29007e-30
7.93636e-31
-2.74453e-29
3.69597e-30
-6.57601e-29
9.61897e-30
-1.09955e-28
1.60137e-29
1.67556e-29
-1.47469e-28
7.77026e-32
7.50504e-32
-1.2249e-31
6.903e-32
-6.38888e-31
9.15425e-32
-1.27693e-30
1.18915e-31
-5.84592e-30
5.13381e-31
-1.56745e-29
1.36199e-30
-2.54385e-29
2.3137e-30
2.61837e-30
-3.16851e-29
-1.09145e-31
2.1155e-32
-9.78919e-32
1.97243e-32
-1.27125e-31
1.98105e-32
-1.65791e-31
1.88675e-32
-7.04583e-31
4.986e-32
-1.92921e-30
1.28579e-31
-3.23981e-30
2.34384e-31
3.01558e-31
-4.19555e-30
-2.63671e-32
3.30034e-33
-2.40327e-32
3.18749e-33
-2.36905e-32
2.98724e-33
-2.27221e-32
2.52783e-33
-5.92549e-32
4.05021e-33
-1.57926e-31
9.54914e-33
-2.85421e-31
1.87663e-32
2.79486e-32
-4.07867e-31
-3.60919e-33
2.94287e-34
-3.4178e-33
2.9712e-34
-3.1507e-33
2.7943e-34
-2.69052e-33
2.33333e-34
-4.2617e-33
2.64511e-34
-1.03774e-32
5.35539e-34
-2.04041e-32
1.13169e-33
2.00555e-33
-3.32109e-32
-2.72511e-34
1.56123e-35
-2.70942e-34
1.66467e-35
-2.51742e-34
1.62487e-35
-2.13024e-34
1.40469e-35
-2.39659e-34
1.34973e-35
-5.02148e-34
2.33802e-35
-1.06254e-33
5.15224e-35
1.09599e-34
-2.01813e-33
-1.23991e-35
4.77027e-37
-1.30327e-35
5.51381e-37
-1.25785e-35
5.81897e-37
-1.10277e-35
5.4772e-37
-1.05305e-35
4.99404e-37
-1.8868e-35
7.15306e-37
-4.1962e-35
1.57225e-36
4.1442e-36
-9.50632e-35
-3.14616e-37
7.83566e-39
-3.59643e-37
1.02739e-38
-3.76517e-37
1.21043e-38
-3.607e-37
1.2813e-38
-3.28057e-37
1.20823e-38
-4.87211e-37
1.54993e-38
-1.08145e-36
3.29224e-38
1.079e-37
-2.99598e-36
-4.31308e-39
5.21925e-41
-5.58423e-39
8.78745e-41
-6.51072e-39
1.24508e-40
-6.99592e-39
1.60783e-40
-6.57427e-39
1.69871e-40
-8.72945e-39
2.07276e-40
-1.8841e-38
3.86942e-40
1.54092e-39
-6.48267e-38
-2.37586e-41
7.72418e-44
-3.94664e-41
2.4885e-43
-5.52582e-41
4.72592e-43
-7.23874e-41
8.68309e-43
-7.62216e-41
1.06623e-42
-9.62452e-41
1.58151e-42
-1.82669e-40
2.70666e-42
1.24527e-41
-7.57318e-40
-2.87245e-44
7.86733e-47
-9.02198e-44
1.95479e-46
-1.67308e-43
4.98133e-46
-3.08692e-43
1.75697e-45
-3.75093e-43
4.75787e-45
-5.71902e-43
1.80122e-44
-9.98276e-43
5.97602e-44
2.39483e-43
-4.79546e-42
-2.45259e-47
6.05851e-48
-5.857e-47
1.62539e-47
-1.44266e-46
4.51806e-47
-5.0744e-46
1.61604e-46
-1.35209e-45
6.52683e-46
-5.24015e-45
2.76675e-45
-1.7753e-44
1.01437e-44
3.86033e-44
-7.40154e-44
-1.59577e-48
3.7887e-49
-3.9815e-48
1.22931e-48
-1.04545e-47
4.59165e-48
-3.64893e-47
2.09007e-47
-1.41893e-46
9.39503e-47
-6.04789e-46
3.98861e-46
-2.24141e-45
1.45421e-45
5.42489e-45
-8.80345e-45
-9.46872e-50
1.81018e-50
-2.76348e-49
7.10253e-50
-9.51292e-49
3.34714e-49
-4.13956e-48
1.75594e-48
-1.75141e-47
8.53125e-48
-7.2958e-47
3.8778e-47
-2.61468e-46
1.5901e-46
6.10721e-46
-9.70998e-46
-4.34427e-51
7.4059e-52
-1.48112e-50
3.09372e-51
-6.07864e-50
1.59966e-50
-2.87778e-49
9.53588e-50
-1.24725e-48
5.50342e-49
-5.24018e-48
2.91438e-48
-1.99606e-47
1.30715e-47
5.1255e-47
-7.09717e-47
-1.8618e-52
2.46204e-53
-6.89032e-52
1.0328e-52
-3.062e-51
5.52642e-52
-1.58799e-50
3.54468e-51
-7.93424e-50
2.19577e-50
-3.695e-49
1.25031e-49
-1.48081e-48
6.28048e-49
2.88026e-48
-5.18952e-48
-5.9849e-54
8.12678e-55
-2.20591e-53
3.53132e-54
-1.0277e-52
1.9106e-53
-5.73834e-52
1.23482e-52
-3.00424e-51
7.95176e-52
-1.43109e-50
4.79226e-51
-5.89508e-50
2.5736e-50
1.26818e-49
-2.19945e-49
-1.98182e-55
2.16751e-56
-7.58453e-55
9.21429e-56
-3.58539e-54
4.91757e-55
-2.03364e-53
3.28653e-54
-1.12857e-52
2.20547e-53
-5.84353e-52
1.38165e-52
-2.62723e-51
7.86534e-52
4.23688e-51
-1.03002e-50
-5.26814e-57
5.73509e-58
-1.97051e-56
2.51165e-57
-9.15211e-56
1.3566e-56
-5.33701e-55
9.08439e-56
-3.0828e-54
6.26494e-55
-1.6522e-53
4.12343e-54
-7.86418e-53
2.47729e-53
1.39959e-52
-3.37911e-52
-1.38128e-58
1.26763e-59
-5.32492e-58
5.36899e-59
-2.50945e-57
2.76548e-58
-1.46705e-56
1.87537e-57
-8.66881e-56
1.35603e-56
-4.84626e-55
9.36053e-56
-2.42218e-54
5.97129e-55
3.68036e-54
-1.10031e-53
-3.05853e-60
2.71116e-61
-1.14024e-59
1.17065e-60
-5.12794e-59
6.00591e-60
-3.03174e-58
4.02294e-59
-1.8825e-57
2.95943e-58
-1.10761e-56
2.14693e-57
-5.90472e-56
1.46199e-56
9.64923e-56
-2.93358e-55
-6.48027e-62
5.08883e-63
-2.46131e-61
2.14009e-62
-1.10177e-60
1.0226e-61
-6.43531e-60
6.66451e-61
-4.06122e-59
5.08457e-60
-2.50213e-58
3.88894e-59
-1.41465e-57
2.8348e-58
2.06636e-57
-7.48353e-57
-1.21305e-63
8.93496e-65
-4.49078e-63
3.81109e-64
-1.87595e-62
1.78178e-63
-1.06494e-61
1.11973e-62
-6.96176e-61
8.57552e-62
-4.51763e-60
6.88789e-61
-2.73573e-59
5.424e-60
4.28764e-59
-1.60731e-58
-2.11345e-65
1.45163e-66
-7.93368e-65
6.13959e-66
-3.24074e-64
2.67662e-65
-1.77548e-63
1.55928e-64
-1.1673e-62
1.19803e-63
-7.94112e-62
1.01505e-62
-5.16821e-61
8.64598e-62
7.61875e-61
-3.27906e-60
-3.40715e-67
2.12588e-68
-1.26824e-66
9.19806e-68
-4.83475e-66
3.92711e-67
-2.45503e-65
2.14008e-66
-1.61834e-64
1.59999e-65
-1.16059e-63
1.41105e-64
-8.16673e-63
1.3074e-63
1.26008e-62
-5.76204e-62
-4.9437e-69
3.01993e-70
-1.88082e-68
1.31909e-69
-7.01335e-68
5.40278e-69
-3.33363e-67
2.66556e-68
-2.14414e-66
1.89491e-67
-1.60083e-65
1.74377e-66
-1.21847e-64
1.76629e-65
1.89784e-64
-9.35446e-64
-6.9553e-71
3.74247e-72
-2.67025e-70
1.69825e-71
-9.55581e-70
6.98679e-71
-4.10989e-69
3.21665e-70
-2.51205e-68
2.11473e-69
-1.95956e-67
1.96101e-68
-1.63794e-66
2.13628e-67
2.50493e-66
-1.40047e-65
-8.52264e-73
4.69121e-74
-3.39259e-72
2.17841e-73
-1.21617e-71
8.92233e-73
-4.8761e-71
3.82517e-72
-2.76307e-70
2.27963e-71
-2.18055e-69
2.10894e-70
-1.96097e-68
2.48195e-69
3.20396e-68
-1.82585e-67
-1.06016e-74
4.97868e-76
-4.31283e-74
2.43343e-75
-1.53859e-73
1.0298e-74
-5.73464e-73
4.2837e-74
-2.93948e-72
2.29756e-73
-2.31488e-71
2.00851e-72
-2.26412e-70
2.45124e-71
3.40346e-70
-2.33879e-69
-1.11304e-76
5.55685e-78
-4.76454e-76
2.79813e-77
-1.75401e-75
1.20779e-76
-6.33695e-75
4.92171e-76
-2.92375e-74
2.41175e-75
-2.18175e-73
1.9706e-74
-2.22619e-72
2.50316e-73
3.90903e-72
-2.5007e-71
-1.23384e-78
5.14782e-80
-5.43964e-78
2.74456e-79
-2.04329e-77
1.24594e-78
-7.22251e-77
5.16161e-78
-3.03731e-76
2.36107e-77
-2.11203e-75
1.73053e-76
-2.244e-74
2.26956e-75
4.39506e-74
-2.85103e-73
-1.13483e-80
5.14037e-82
-5.30548e-80
2.8354e-81
-2.09942e-79
1.32768e-80
-7.55314e-79
5.58224e-80
-2.96772e-78
2.48323e-79
-1.85076e-77
1.82743e-78
-2.02921e-76
3.27547e-77
1.07339e-75
-3.22056e-75
-1.12387e-82
4.27279e-84
-5.43756e-82
2.49741e-83
-2.22204e-81
1.23926e-82
-8.12022e-81
5.46313e-82
-3.10294e-80
2.47767e-81
-1.9417e-79
2.0093e-80
-2.90542e-78
5.3046e-79
2.40898e-77
-7.80117e-77
-9.30755e-85
4.47103e-86
-4.77933e-84
2.72514e-85
-2.07491e-83
1.41501e-84
-7.97718e-83
6.60164e-84
-3.11823e-82
3.43909e-83
-2.15521e-81
4.73757e-82
-4.75063e-80
2.03777e-80
1.07079e-78
-1.76601e-78
-9.66574e-87
5.3615e-87
-5.1736e-86
3.33781e-86
-2.35073e-85
1.7904e-85
-9.57254e-85
8.73666e-85
-4.30547e-84
4.28818e-84
-5.06807e-83
2.68759e-83
-1.8276e-81
4.55835e-82
1.99332e-80
-7.89232e-80
-1.1586e-87
3.96715e-87
-6.33889e-87
2.46608e-86
-2.97871e-86
1.31974e-85
-1.27162e-85
6.41109e-85
-5.41354e-85
3.07634e-84
-2.9191e-84
1.56148e-83
-4.18695e-83
9.34942e-83
1.19e-81
-1.51655e-81
-8.47292e-88
3.13481e-87
-4.62784e-87
1.94832e-86
-2.16919e-86
1.04199e-85
-9.217e-86
5.05348e-85
-3.83744e-85
2.41565e-84
-1.67778e-84
1.20741e-83
-8.51523e-84
6.36184e-83
4.06412e-82
-9.00785e-83
-3.12018e-87
2.54238e-90
-1.70468e-86
1.81085e-89
-7.98989e-86
1.12699e-88
-3.39119e-85
6.47914e-88
-1.40892e-84
3.72461e-87
-6.08296e-84
2.24486e-86
-2.73264e-83
1.4179e-85
1.12338e-84
-1.4639e-82
-2.36072e-90
2.66789e-93
-1.47455e-89
2.50601e-92
-8.02761e-89
2.19563e-91
-4.02949e-88
1.88986e-90
-2.00906e-87
1.61435e-89
-1.04283e-86
1.31291e-88
-5.60179e-86
9.64983e-88
6.19414e-87
-3.71561e-85
-2.28836e-93
1.65942e-96
-1.8797e-92
1.83441e-95
-1.43786e-91
1.89773e-94
-1.07827e-90
1.9244e-93
-7.9801e-90
1.93275e-92
-5.58522e-89
1.8596e-91
-3.4956e-88
1.6403e-90
1.2818e-89
-1.88515e-87
-1.30673e-96
1.31564e-99
-1.26755e-95
2.07668e-98
-1.15081e-94
3.15023e-97
-1.02334e-93
4.58321e-96
-8.97719e-93
6.18358e-95
-7.50543e-92
7.43389e-94
-5.70259e-91
7.73345e-93
6.83809e-92
-3.79653e-90
-9.06544e-100
5.00081e-103
-1.25049e-98
9.43696e-102
-1.65756e-97
1.69618e-100
-2.10378e-96
2.91964e-99
-2.46582e-95
4.70762e-98
-2.56023e-94
6.88337e-97
-2.28059e-93
8.8858e-96
9.92752e-95
-1.70861e-92
-2.95023e-103
1.92938e-106
-4.88352e-102
5.21208e-105
-7.70979e-101
1.33135e-103
-1.16542e-99
3.16932e-102
-1.64585e-98
6.81406e-101
-2.09851e-97
1.28249e-99
-2.34536e-96
2.06439e-98
2.79885e-97
-2.24543e-95
-9.00049e-107
2.15769e-110
-2.12623e-105
6.92497e-109
-4.75482e-104
2.11501e-107
-9.90354e-103
6.23782e-106
-1.85868e-101
1.73557e-104
-3.04263e-100
4.36963e-103
-4.2374e-99
9.60484e-102
1.80394e-100
-4.93029e-98
-7.24801e-111
2.04421e-114
-2.03477e-109
9.95402e-113
-5.44621e-108
4.47535e-111
-1.40816e-106
1.88725e-109
-3.43081e-105
7.32076e-108
-7.54563e-104
2.52104e-106
-1.44349e-102
7.49099e-105
1.88433e-103
-2.34428e-101
-4.02429e-115
9.86091e-120
-1.70289e-113
6.95357e-118
-6.66728e-112
3.95719e-116
-2.45123e-110
1.82701e-114
-8.29004e-109
7.04632e-113
-2.4857e-107
2.50102e-111
-6.41218e-106
9.78106e-110
4.51872e-108
-1.39437e-104
-7.41875e-121
-4.50608e-119
-2.21237e-117
-8.8134e-116
-2.92772e-114
-8.90862e-113
-2.96262e-111
-1.15222e-109
5.63275e-05
-2.14779e-05
7.62249e-05
-1.98974e-05
9.49686e-05
-1.87437e-05
0.000113422
-1.84534e-05
0.000131837
-1.84154e-05
0.000150208
-1.83701e-05
0.000168323
-1.81149e-05
0.000185964
-1.76418e-05
0.000202859
-1.68946e-05
0.000218758
-1.58993e-05
0.00023342
-1.46618e-05
0.000246695
-1.32753e-05
0.000258649
-1.19535e-05
0.000269403
-1.0754e-05
0.00027906
-9.65752e-06
0.00028759
-8.52985e-06
0.00029502
-7.4301e-06
0.000301393
-6.3724e-06
0.000306619
-5.22688e-06
0.000310574
-3.95501e-06
0.000313241
-2.66634e-06
0.000314709
-1.46854e-06
0.000315056
-3.47164e-07
0.000314431
6.25397e-07
0.000312921
1.51018e-06
0.000310578
2.34323e-06
0.0003074
3.17808e-06
0.000303361
4.03854e-06
0.000298465
4.89576e-06
0.000292721
5.74451e-06
0.00028622
6.50113e-06
0.000278968
7.25164e-06
0.000270942
8.02572e-06
0.000262137
8.80532e-06
0.000252625
9.51182e-06
0.000242469
1.01564e-05
0.000231646
1.08227e-05
0.00022015
1.14965e-05
0.000207908
1.22414e-05
0.00019486
1.30479e-05
0.000181031
1.38296e-05
0.000166595
1.44356e-05
0.000151789
1.48062e-05
0.00013696
1.48284e-05
0.000122203
1.47576e-05
0.000107421
1.47816e-05
9.25315e-05
1.48899e-05
7.75192e-05
1.50123e-05
6.25707e-05
1.49484e-05
4.81937e-05
1.43771e-05
3.49163e-05
1.32774e-05
2.31362e-05
1.17801e-05
1.29697e-05
1.01664e-05
4.25984e-06
8.70991e-06
-3.32447e-06
7.58431e-06
-1.0086e-05
6.76148e-06
-1.60935e-05
6.00757e-06
-2.12231e-05
5.12961e-06
-2.51642e-05
3.94109e-06
-2.75312e-05
2.36701e-06
-2.82153e-05
6.84068e-07
-2.74185e-05
-7.96852e-07
-2.55909e-05
-1.82755e-06
-2.33251e-05
-2.26576e-06
-2.11174e-05
-2.20775e-06
-1.92361e-05
-1.88132e-06
-1.76659e-05
-1.5702e-06
-1.61732e-05
-1.49266e-06
-1.45878e-05
-1.58537e-06
-1.29466e-05
-1.6412e-06
-1.14856e-05
-1.46102e-06
-1.05525e-05
-9.33129e-07
-1.04228e-05
-1.29722e-07
-1.12726e-05
8.4979e-07
-1.31634e-05
1.89087e-06
-1.61551e-05
2.99163e-06
-2.0125e-05
3.96994e-06
-2.48487e-05
4.72368e-06
-2.98941e-05
5.0454e-06
-3.49658e-05
5.07174e-06
-3.98155e-05
4.84963e-06
-4.41902e-05
4.37473e-06
-4.79012e-05
3.711e-06
-5.07633e-05
2.86215e-06
-5.26572e-05
1.89384e-06
-5.33302e-05
6.7298e-07
-5.2486e-05
-8.44142e-07
-4.98139e-05
-2.67207e-06
-4.54221e-05
-4.3918e-06
-4.00263e-05
-5.3958e-06
-3.44046e-05
-5.62172e-06
-2.92121e-05
-5.19256e-06
-2.48677e-05
-4.34436e-06
-2.16715e-05
-3.19623e-06
-1.98725e-05
-1.79902e-06
-1.97193e-05
-1.53192e-07
-2.14388e-05
1.71951e-06
-2.51958e-05
3.75707e-06
-3.10533e-05
5.85746e-06
-3.89078e-05
7.8545e-06
-4.84833e-05
9.57547e-06
-5.93167e-05
1.08334e-05
-7.07726e-05
1.14559e-05
-8.21207e-05
1.13481e-05
-9.25998e-05
1.0479e-05
-0.000101508
8.9083e-06
-0.000108246
6.73803e-06
-0.000112374
4.12756e-06
-0.000113673
1.2998e-06
-0.000112144
-1.52898e-06
-0.000108025
-4.11987e-06
-0.00010179
-6.23489e-06
-9.40849e-05
-7.70483e-06
-8.56419e-05
-8.443e-06
-7.71823e-05
-8.45961e-06
-6.93097e-05
-7.87264e-06
-6.24359e-05
-6.87379e-06
-5.6746e-05
-5.68987e-06
-5.22258e-05
-4.52017e-06
-4.86541e-05
-3.57175e-06
-4.56752e-05
-2.97884e-06
-4.2854e-05
-2.82123e-06
-3.97055e-05
-3.14855e-06
-3.5819e-05
-3.88644e-06
-3.0898e-05
-4.92098e-06
-2.48032e-05
-6.09482e-06
-1.75685e-05
-7.2347e-06
-9.40194e-06
-8.16659e-06
-6.53125e-07
-8.74882e-06
8.22376e-06
-8.87688e-06
1.67422e-05
-8.51846e-06
2.44536e-05
-7.71142e-06
3.09808e-05
-6.52717e-06
3.60576e-05
-5.0768e-06
3.95418e-05
-3.48421e-06
4.14092e-05
-1.86735e-06
4.17357e-05
-3.26526e-07
4.06663e-05
1.06936e-06
3.83785e-05
2.28783e-06
3.50592e-05
3.31928e-06
3.08776e-05
4.18165e-06
2.59911e-05
4.88651e-06
2.05723e-05
5.41881e-06
1.48615e-05
5.71072e-06
9.21749e-06
5.64406e-06
4.14435e-06
5.07314e-06
2.80353e-07
3.864e-06
-1.73272e-06
2.01307e-06
-1.38695e-06
-3.45771e-07
1.58905e-06
-2.976e-06
7.0387e-06
-5.44965e-06
1.43328e-05
-7.29408e-06
2.24527e-05
-8.11994e-06
3.02226e-05
-7.76992e-06
3.65668e-05
-6.34413e-06
-4.22687e-06
5.6147e-05
-4.29349e-05
7.61215e-05
-3.98718e-05
9.49354e-05
-3.75577e-05
0.000113412
-3.69301e-05
0.000131827
-3.683e-05
0.000150195
-3.67382e-05
0.000168309
-3.62293e-05
0.000185951
-3.52834e-05
0.000202845
-3.37893e-05
0.000218745
-3.17987e-05
0.000233407
-2.93236e-05
0.000246682
-2.65507e-05
0.000258636
-2.3907e-05
0.00026939
-2.15081e-05
0.000279047
-1.93151e-05
0.000287577
-1.70598e-05
0.000295007
-1.48603e-05
0.00030138
-1.27448e-05
0.000306607
-1.04538e-05
0.000310562
-7.91008e-06
0.000313228
-5.33276e-06
0.000314697
-2.93712e-06
0.000315044
-6.94389e-07
0.000314419
1.25081e-06
0.000312908
3.02037e-06
0.000310565
4.68646e-06
0.000307387
6.35614e-06
0.000303349
8.07709e-06
0.000298453
9.79156e-06
0.000292708
1.1489e-05
0.000286207
1.30023e-05
0.000278955
1.45033e-05
0.00027093
1.60515e-05
0.000262124
1.76106e-05
0.000252613
1.90237e-05
0.000242456
2.03128e-05
0.000231633
2.16454e-05
0.000220137
2.29931e-05
0.000207895
2.44829e-05
0.000194848
2.60957e-05
0.000181018
2.7659e-05
0.000166582
2.88713e-05
0.000151776
2.96125e-05
0.000136948
2.96569e-05
0.00012219
2.95152e-05
0.000107408
2.95631e-05
9.25186e-05
2.97797e-05
7.75064e-05
3.00245e-05
6.2558e-05
2.98968e-05
4.81809e-05
2.87542e-05
3.49034e-05
2.65549e-05
2.31233e-05
2.35602e-05
1.29569e-05
2.03329e-05
4.24701e-06
1.74198e-05
-3.33738e-06
1.51687e-05
-1.00988e-05
1.35229e-05
-1.61064e-05
1.20152e-05
-2.1236e-05
1.02592e-05
-2.51772e-05
7.88222e-06
-2.75442e-05
4.73404e-06
-2.82283e-05
1.36812e-06
-2.74314e-05
-1.59375e-06
-2.56039e-05
-3.65504e-06
-2.33381e-05
-4.53156e-06
-2.11303e-05
-4.41555e-06
-1.92489e-05
-3.76265e-06
-1.76788e-05
-3.14038e-06
-1.61861e-05
-2.98532e-06
-1.46008e-05
-3.1707e-06
-1.29596e-05
-3.2824e-06
-1.14985e-05
-2.92207e-06
-1.05653e-05
-1.8663e-06
-1.04356e-05
-2.5947e-07
-1.12854e-05
1.69957e-06
-1.31762e-05
3.78174e-06
-1.61679e-05
5.98327e-06
-2.01378e-05
7.93989e-06
-2.48615e-05
9.44734e-06
-2.99069e-05
1.00908e-05
-3.49787e-05
1.01435e-05
-3.98283e-05
9.69926e-06
-4.4203e-05
8.74946e-06
-4.7914e-05
7.422e-06
-5.07762e-05
5.72432e-06
-5.26701e-05
3.7877e-06
-5.33431e-05
1.34598e-06
-5.24989e-05
-1.68827e-06
-4.98268e-05
-5.34417e-06
-4.5435e-05
-8.78365e-06
-4.00392e-05
-1.07915e-05
-3.44175e-05
-1.12435e-05
-2.92249e-05
-1.03852e-05
-2.48804e-05
-8.68879e-06
-2.16842e-05
-6.3925e-06
-1.98851e-05
-3.59808e-06
-1.97319e-05
-3.06419e-07
-2.14514e-05
3.43899e-06
-2.52084e-05
7.51413e-06
-3.10659e-05
1.17149e-05
-3.89203e-05
1.5709e-05
-4.84958e-05
1.91509e-05
-5.93292e-05
2.16668e-05
-7.07851e-05
2.29118e-05
-8.21333e-05
2.26963e-05
-9.26124e-05
2.09581e-05
-0.000101521
1.78166e-05
-0.000108259
1.34761e-05
-0.000112386
8.25513e-06
-0.000113686
2.59958e-06
-0.000112157
-3.05799e-06
-0.000108037
-8.23978e-06
-0.000101802
-1.24696e-05
-9.40978e-05
-1.54094e-05
-8.56548e-05
-1.6886e-05
-7.71952e-05
-1.69193e-05
-6.93225e-05
-1.57453e-05
-6.24486e-05
-1.37476e-05
-5.67587e-05
-1.13798e-05
-5.22386e-05
-9.04033e-06
-4.86669e-05
-7.14345e-06
-4.56879e-05
-5.9578e-06
-4.28666e-05
-5.64255e-06
-3.97181e-05
-6.29707e-06
-3.58317e-05
-7.77285e-06
-3.09107e-05
-9.84194e-06
-2.48159e-05
-1.21896e-05
-1.75812e-05
-1.44694e-05
-9.41462e-06
-1.63331e-05
-6.65496e-07
-1.74979e-05
8.21102e-06
-1.77534e-05
1.67295e-05
-1.7037e-05
2.44409e-05
-1.54228e-05
3.09681e-05
-1.30544e-05
3.6045e-05
-1.01536e-05
3.95292e-05
-6.96842e-06
4.13965e-05
-3.73473e-06
4.17231e-05
-6.53038e-07
4.06537e-05
2.1387e-06
3.8366e-05
4.57559e-06
3.50467e-05
6.63851e-06
3.08651e-05
8.36328e-06
2.59786e-05
9.77303e-06
2.05597e-05
1.08376e-05
1.4849e-05
1.14214e-05
9.20492e-06
1.12882e-05
4.13175e-06
1.01463e-05
2.67985e-07
7.72776e-06
-1.74557e-06
4.02663e-06
-1.39985e-06
-6.91489e-07
1.57606e-06
-5.95192e-06
7.02585e-06
-1.08994e-05
1.432e-05
-1.45882e-05
2.244e-05
-1.624e-05
3.021e-05
-1.55399e-05
3.65542e-05
-1.26883e-05
-8.45376e-06
5.61105e-05
-6.43415e-05
7.60392e-05
-5.98005e-05
9.48655e-05
-5.63839e-05
0.000113376
-5.54403e-05
0.000131809
-5.52635e-05
0.000150182
-5.51107e-05
0.000168296
-5.43436e-05
0.000185937
-5.29243e-05
0.000202831
-5.06838e-05
0.000218731
-4.76983e-05
0.000233393
-4.39858e-05
0.000246669
-3.98265e-05
0.000258623
-3.58607e-05
0.000269377
-3.22622e-05
0.000279034
-2.89726e-05
0.000287564
-2.55898e-05
0.000294994
-2.22904e-05
0.000301367
-1.91171e-05
0.000306593
-1.56806e-05
0.000310548
-1.18651e-05
0.000313215
-7.99909e-06
0.000314683
-4.40565e-06
0.00031503
-1.04154e-06
0.000314405
1.87616e-06
0.000312895
4.53056e-06
0.000310552
7.02969e-06
0.000307374
9.53414e-06
0.000303335
1.21156e-05
0.000298439
1.46873e-05
0.000292695
1.72335e-05
0.000286194
1.95034e-05
0.000278942
2.17548e-05
0.000270917
2.40772e-05
0.000262111
2.64158e-05
0.0002526
2.85354e-05
0.000242443
3.04691e-05
0.000231621
3.24681e-05
0.000220124
3.44897e-05
0.000207883
3.67242e-05
0.000194835
3.91435e-05
0.000181005
4.14886e-05
0.00016657
4.33071e-05
0.000151763
4.44187e-05
0.000136935
4.44853e-05
0.000122177
4.42728e-05
0.000107396
4.43445e-05
9.25061e-05
4.46696e-05
7.74937e-05
4.50368e-05
6.25452e-05
4.48454e-05
4.8168e-05
4.31314e-05
3.48905e-05
3.98324e-05
2.31104e-05
3.53403e-05
1.2944e-05
3.04993e-05
4.23429e-06
2.61295e-05
-3.35017e-06
2.27531e-05
-1.01116e-05
2.02844e-05
-1.61192e-05
1.80228e-05
-2.12489e-05
1.53889e-05
-2.519e-05
1.18234e-05
-2.75571e-05
7.1011e-06
-2.82411e-05
2.05213e-06
-2.74441e-05
-2.39076e-06
-2.56166e-05
-5.48255e-06
-2.33507e-05
-6.79745e-06
-2.11428e-05
-6.62342e-06
-1.92615e-05
-5.644e-06
-1.76913e-05
-4.71053e-06
-1.61987e-05
-4.47796e-06
-1.46134e-05
-4.756e-06
-1.29721e-05
-4.92366e-06
-1.1511e-05
-4.38321e-06
-1.05777e-05
-2.79956e-06
-1.04479e-05
-3.89281e-07
-1.12977e-05
2.54932e-06
-1.31885e-05
5.6726e-06
-1.61802e-05
8.97493e-06
-2.01502e-05
1.19099e-05
-2.4874e-05
1.41711e-05
-2.99195e-05
1.51363e-05
-3.49913e-05
1.52153e-05
-3.9841e-05
1.4549e-05
-4.42158e-05
1.31243e-05
-4.79268e-05
1.1133e-05
-5.0789e-05
8.58651e-06
-5.26829e-05
5.6816e-06
-5.3356e-05
2.01902e-06
-5.25119e-05
-2.53237e-06
-4.98397e-05
-8.01632e-06
-4.54478e-05
-1.31756e-05
-4.00521e-05
-1.61872e-05
-3.44303e-05
-1.68653e-05
-2.92375e-05
-1.5578e-05
-2.4893e-05
-1.30333e-05
-2.16966e-05
-9.58886e-06
-1.98975e-05
-5.39721e-06
-1.97442e-05
-4.59697e-07
-2.14637e-05
5.15846e-06
-2.52207e-05
1.12712e-05
-3.10782e-05
1.75724e-05
-3.89328e-05
2.35635e-05
-4.85084e-05
2.87265e-05
-5.9342e-05
3.25005e-05
-7.07982e-05
3.4368e-05
-8.21466e-05
3.40447e-05
-9.26258e-05
3.14374e-05
-0.000101534
2.67251e-05
-0.000108272
2.02142e-05
-0.0001124
1.23827e-05
-0.0001137
3.8993e-06
-0.000112171
-4.5871e-06
-0.00010805
-1.23598e-05
-0.000101816
-1.87044e-05
-9.41112e-05
-2.3114e-05
-8.56682e-05
-2.5329e-05
-7.72084e-05
-2.53791e-05
-6.93355e-05
-2.36182e-05
-6.24616e-05
-2.06216e-05
-5.67716e-05
-1.70697e-05
-5.22514e-05
-1.35605e-05
-4.86798e-05
-1.07151e-05
-4.57008e-05
-8.93682e-06
-4.28794e-05
-8.46391e-06
-3.97309e-05
-9.44554e-06
-3.58446e-05
-1.16592e-05
-3.09236e-05
-1.47629e-05
-2.48288e-05
-1.82844e-05
-1.7594e-05
-2.17042e-05
-9.42745e-06
-2.44997e-05
-6.77941e-07
-2.62475e-05
8.19821e-06
-2.66296e-05
1.67169e-05
-2.55557e-05
2.44284e-05
-2.31343e-05
3.09557e-05
-1.95816e-05
3.60325e-05
-1.52305e-05
3.95168e-05
-1.04527e-05
4.13842e-05
-5.60212e-06
4.17106e-05
-9.79529e-07
4.06413e-05
3.20804e-06
3.83536e-05
6.86334e-06
3.50343e-05
9.95774e-06
3.08526e-05
1.2545e-05
2.59661e-05
1.46596e-05
2.05472e-05
1.62565e-05
1.48364e-05
1.71323e-05
9.19221e-06
1.69323e-05
4.1189e-06
1.52196e-05
2.55313e-07
1.15913e-05
-1.75881e-06
6.04076e-06
-1.41315e-06
-1.03716e-06
1.56287e-06
-8.92794e-06
7.01271e-06
-1.63493e-05
1.43071e-05
-2.18826e-05
2.24274e-05
-2.43603e-05
3.01976e-05
-2.33101e-05
3.65419e-05
-1.90327e-05
-1.26807e-05
5.61281e-05
-8.57548e-05
7.60552e-05
-7.97276e-05
9.48748e-05
-7.52035e-05
0.000113375
-7.39409e-05
0.000131803
-7.36911e-05
0.000150174
-7.34815e-05
0.000168288
-7.24579e-05
0.000185929
-7.05651e-05
0.000202824
-6.75785e-05
0.000218723
-6.35981e-05
0.000233386
-5.86481e-05
0.000246662
-5.31026e-05
0.000258616
-4.78145e-05
0.00026937
-4.30163e-05
0.000279027