/*--------------------------------*- C++ -*----------------------------------*\
| =========                 |                                                 |
| \\      /  F ield         | OpenFOAM: The Open Source CFD Toolbox           |
|  \\    /   O peration     | Version:  v1912                                 |
|   \\  /    A nd           | Website:  www.openfoam.com                      |
|    \\/     M anipulation  |                                                 |
\*---------------------------------------------------------------------------*/
FoamFile
{
    version     2.0;
    format      ascii;
    class       volVectorField;
    location    "50";
    object      U;
}
// * * * * * * * * * * * * * * * * * * * * * * * * * * * * * * * * * * * * * //

dimensions      [0 1 -1 0 0 0 0];


internalField   nonuniform List<vector> 
14268
(
(-0.103934 -0.00528447 0)
(-0.0871243 -0.00444812 -7.52102e-26)
(-0.069618 -0.00357607 6.73126e-26)
(-0.0516 -0.0026768 0)
(-0.0330761 -0.00175655 0)
(-0.0143981 -0.000802612 0)
(0.00575612 8.86244e-05 0)
(0.0243812 0.00143231 0)
(-0.103744 -0.00544452 0)
(-0.086953 -0.00461692 -2.14396e-25)
(-0.0694666 -0.00375223 1.90687e-25)
(-0.0514696 -0.00286048 0)
(-0.0329684 -0.00193881 0)
(-0.0143055 -0.00103807 0)
(0.00577337 7.16919e-05 0)
(0.0242607 0.000632158 0)
(-0.103758 -0.00561655 0)
(-0.0869674 -0.0047971 0)
(-0.0694808 -0.00393883 3.0537e-25)
(-0.051484 -0.00305063 0)
(-0.0329827 -0.00214072 0)
(-0.0143198 -0.0012018 0)
(0.00575091 -0.000313843 0)
(0.0242722 0.00102007 0)
(-0.10375 -0.00578712 5.64843e-25)
(-0.0869579 -0.00497539 0)
(-0.0694707 -0.0041233 4.28962e-25)
(-0.0514733 -0.00324134 -3.76635e-25)
(-0.0329721 -0.00232947 0)
(-0.0143047 -0.00143754 0)
(0.00572901 -0.000355501 0)
(0.0242661 0.000301553 0)
(-0.103735 -0.00596263 7.28075e-25)
(-0.0869423 -0.0051591 0)
(-0.0694545 -0.00431347 0)
(-0.0514567 -0.00343503 -3.1298e-31)
(-0.0329549 -0.00253395 0)
(-0.0142878 -0.00160896 0)
(0.00573473 -0.000706733 0)
(0.0242865 0.00058708 0)
(-0.103719 -0.00612603 0)
(-0.0869257 -0.00533013 0)
(-0.0694372 -0.0044909 0)
(-0.0514389 -0.00361878 5.92873e-25)
(-0.0329369 -0.00271763 0)
(-0.0142661 -0.00183233 0)
(0.00572619 -0.000789644 0)
(0.0242968 -1.13391e-05 0)
(-0.103702 -0.00630542 -1.0492e-24)
(-0.0869079 -0.00551768 0)
(-0.0694187 -0.00468463 0)
(-0.05142 -0.00381581 0)
(-0.0329173 -0.00292262 0)
(-0.014246 -0.00201458 -5.89672e-25)
(0.00572962 -0.0010919 0)
(0.0243149 0.000143929 0)
(-0.103686 -0.00646762 -1.21014e-24)
(-0.086891 -0.00568767 -1.03772e-24)
(-0.069401 -0.00486149 0)
(-0.0514017 -0.00399895 0)
(-0.0328987 -0.00310858 0)
(-0.0142248 -0.00222838 -6.77356e-25)
(0.00572684 -0.00122624 0)
(0.0243289 -0.000321715 0)
(-0.103669 -0.00664722 0)
(-0.086873 -0.00587517 -1.17609e-24)
(-0.0693823 -0.0050549 1.04192e-24)
(-0.0513824 -0.00419578 0)
(-0.0328793 -0.00331163 0)
(-0.0142032 -0.00241758 0)
(0.00572774 -0.00148045 0)
(0.0243512 -0.000295278 0)
(-0.103651 -0.00680801 0)
(-0.0868534 -0.00604398 0)
(-0.0693615 -0.00523055 1.16534e-24)
(-0.0513611 -0.00437775 0)
(-0.0328575 -0.00349694 0)
(-0.0141784 -0.0026256 0)
(0.00573181 -0.00164466 0)
(0.0244308 -0.000640712 -6.07044e-25)
(-0.103611 -0.0069911 0)
(-0.0868102 -0.00623467 0)
(-0.0693152 -0.00542667 0)
(-0.0513121 -0.00457673 0)
(-0.0328055 -0.00370081 0)
(-0.01412 -0.00281718 0)
(0.00578271 -0.00189206 0)
(0.0248579 -0.000690915 -7.70438e-25)
(-0.103531 -0.00714207 1.85461e-24)
(-0.0867171 -0.00639146 0)
(-0.069207 -0.00558852 0)
(-0.0511861 -0.00474398 0)
(-0.0326555 -0.00387193 0)
(-0.0139502 -0.00300814 0)
(0.00602017 -0.00204064 0)
(0.0262237 -0.000921017 0)
(-0.103657 -0.00732947 -2.78776e-31)
(-0.0868361 -0.00659063 0)
(-0.0693173 -0.00579765 0)
(-0.0512888 -0.00496092 0)
(-0.0327477 -0.00409753 0)
(-0.0140896 -0.00323237 0)
(0.00593473 -0.00232149 0)
(0.0270965 -0.000960408 0)
(-0.104888 -0.0075605 -2.18447e-24)
(-0.0882518 -0.00683519 0)
(-0.0709685 -0.00605662 0)
(-0.0532476 -0.00523359 0)
(-0.0351265 -0.00438552 0)
(-0.0171303 -0.00355879 0)
(0.00197866 -0.002673 0)
(0.0234381 -0.0014367 0)
(-0.104947 -0.00824423 0)
(-0.0883275 -0.00749585 0)
(-0.0710585 -0.00667563 2.49166e-25)
(-0.0533326 -0.00581094 0)
(-0.0351965 -0.00491558 0)
(-0.0171323 -0.00402192 0)
(0.00199952 -0.00319947 0)
(0.0223149 -0.00181556 0)
(-0.103851 -0.00914535 0)
(-0.0870879 -0.00834203 0)
(-0.0696396 -0.00746653 8.79654e-25)
(-0.05167 -0.00652156 0)
(-0.033194 -0.00553561 1.84287e-24)
(-0.0145385 -0.00454741 0)
(0.00527653 -0.00349523 -1.7757e-24)
(0.0242583 -0.00227386 0)
(-0.103916 -0.010381 -9.33855e-26)
(-0.0871894 -0.00951597 0)
(-0.0697875 -0.00853779 1.07141e-24)
(-0.0518821 -0.00748352 0)
(-0.0335029 -0.00638071 3.21989e-24)
(-0.0149711 -0.00526877 -1.9384e-24)
(0.00456213 -0.00423086 -1.48599e-24)
(0.0230687 -0.00262765 -2.46579e-24)
(-0.103792 -0.0113174 9.12941e-27)
(-0.0870645 -0.0104096 0)
(-0.06967 -0.00939083 7.45313e-25)
(-0.0517815 -0.00827463 0)
(-0.0334331 -0.00711093 1.49047e-24)
(-0.0149279 -0.00592609 -4.5117e-24)
(0.00448891 -0.00471591 0)
(0.0230444 -0.00319422 -2.38659e-24)
(-0.103723 -0.0125311 7.47818e-26)
(-0.0869926 -0.0115599 0)
(-0.0695995 -0.0104517 0)
(-0.0517118 -0.00923683 0)
(-0.0333729 -0.00795393 0)
(-0.0148783 -0.00664061 -2.59096e-24)
(0.00451001 -0.00536513 0)
(0.0229665 -0.003533 0)
(-0.103619 -0.0134911 0)
(-0.0868903 -0.012472 0)
(-0.0695023 -0.011304 0)
(-0.051625 -0.0100115 0)
(-0.0332944 -0.00865811 0)
(-0.0148041 -0.00726819 0)
(0.00450624 -0.00588823 0)
(0.0230663 -0.00401957 0)
(-0.103406 -0.0146648 0)
(-0.0866593 -0.0135836 0)
(-0.0692584 -0.0123335 0)
(-0.051368 -0.0109488 0)
(-0.0330354 -0.00949071 0)
(-0.0145222 -0.00797802 0)
(0.00478115 -0.00649254 0)
(0.0232418 -0.00444938 0)
(-0.102729 -0.0174074 0)
(-0.0858789 -0.0164284 0)
(-0.0683694 -0.0152527 6.20291e-25)
(-0.0503755 -0.0139091 0)
(-0.031934 -0.012475 -1.01625e-24)
(-0.0132407 -0.0110211 0)
(0.00599099 -0.00959152 1.08003e-24)
(0.0250867 -0.0071872 1.44901e-24)
(-0.102612 -0.0223262 0)
(-0.0856955 -0.021498 0)
(-0.0681384 -0.0204359 2.14159e-25)
(-0.0501018 -0.0191666 0)
(-0.0316713 -0.0178418 -6.93987e-25)
(-0.0128886 -0.0163012 0)
(0.0060303 -0.0150444 7.26697e-25)
(0.0254971 -0.0126217 -5.86835e-27)
(-0.102338 -0.0269691 0)
(-0.0853346 -0.0263989 0)
(-0.0677136 -0.0255457 1.76995e-25)
(-0.0496234 -0.0244354 0)
(-0.0311895 -0.0232386 0)
(-0.0123618 -0.0218639 0)
(0.0063445 -0.0207734 0)
(0.0260321 -0.0179728 -9.84736e-25)
(-0.102311 -0.0317555 0)
(-0.0852074 -0.0313159 0)
(-0.0675018 -0.0305521 5.71623e-25)
(-0.0493446 -0.0295142 0)
(-0.0308793 -0.0283938 0)
(-0.011982 -0.0269016 0)
(0.00657465 -0.0259762 0)
(0.0262525 -0.0233858 -7.14049e-25)
(-0.102154 -0.0366713 0)
(-0.0849324 -0.0364805 1.44513e-24)
(-0.0671498 -0.0359158 0)
(-0.0489211 -0.0350129 -5.42333e-25)
(-0.0304484 -0.0340213 0)
(-0.011522 -0.032639 0)
(0.00702337 -0.0317739 0)
(0.0267278 -0.0290059 -4.34379e-25)
(-0.102239 -0.0413183 0)
(-0.0849021 -0.0412523 5.0945e-27)
(-0.0670113 -0.0407651 0)
(-0.0486998 -0.039944 -8.80213e-25)
(-0.0301564 -0.0389685 -4.80745e-25)
(-0.0111696 -0.03756 0)
(0.00735699 -0.0367693 0)
(0.0268974 -0.0342327 0)
(-0.10222 -0.0465223 0)
(-0.0847262 -0.0466694 -5.12002e-27)
(-0.0667377 -0.0463642 0)
(-0.0483342 -0.0456376 0)
(-0.0297759 -0.0448171 -5.55693e-27)
(-0.0107427 -0.0434169 -2.83665e-25)
(0.00784842 -0.0426286 0)
(0.02726 -0.0401142 -5.31748e-26)
(-0.102376 -0.0510707 0)
(-0.0847632 -0.0513427 2.71304e-24)
(-0.0666508 -0.0511056 2.0632e-24)
(-0.0481466 -0.0504736 0)
(-0.0294845 -0.0496053 1.04891e-24)
(-0.0104251 -0.0482944 -4.1359e-25)
(0.00821047 -0.047459 8.67879e-25)
(0.0274899 -0.0451021 -2.58305e-25)
(-0.102501 -0.0564827 0)
(-0.0846892 -0.0569313 0)
(-0.0664574 -0.0568459 5.33508e-27)
(-0.0478484 -0.0562814 0)
(-0.0291575 -0.0555788 1.33745e-24)
(-0.0100104 -0.0542177 0)
(0.00877631 -0.0533632 5.74368e-27)
(0.0279082 -0.0510478 0)
(-0.102702 -0.0610174 -4.42528e-24)
(-0.0847943 -0.0615993 0)
(-0.0664414 -0.0615817 -2.78566e-24)
(-0.0477083 -0.0611177 0)
(-0.0288948 -0.0603256 1.69214e-24)
(-0.00969085 -0.0590612 -1.06088e-24)
(0.00913846 -0.0580788 -5.74214e-27)
(0.0280707 -0.0558724 -5.81932e-25)
(-0.103686 -0.0669216 -4.82001e-24)
(-0.0854207 -0.0676543 0)
(-0.0667997 -0.0677812 0)
(-0.04783 -0.0673581 0)
(-0.0288633 -0.0667352 1.96239e-24)
(-0.00950518 -0.0654847 -1.86011e-24)
(0.00949997 -0.0643952 6.12137e-25)
(0.028409 -0.0621349 -6.22549e-25)
(-0.109019 -0.0708257 0)
(-0.0898342 -0.0716324 0)
(-0.0703966 -0.0717863 0)
(-0.0507195 -0.0714502 0)
(-0.0310924 -0.0706638 2.30062e-24)
(-0.0111319 -0.0695111 2.12832e-24)
(0.00823573 -0.068267 -7.67913e-25)
(0.0271308 -0.0659827 0)
(-0.137999 -0.0787535 0)
(-0.115521 -0.0795296 4.6599e-24)
(-0.0931348 -0.0796815 0)
(-0.0706773 -0.0792089 0)
(-0.048317 -0.0785119 0)
(-0.0254732 -0.0770633 2.2592e-24)
(-0.00283865 -0.0753755 -5.82101e-27)
(0.019623 -0.0733731 9.2104e-25)
(-0.192489 -0.0839978 0)
(-0.167032 -0.0849376 4.89371e-24)
(-0.141441 -0.0852062 0)
(-0.11546 -0.085038 0)
(-0.0892276 -0.0842769 0)
(-0.0622149 -0.0834743 0)
(-0.0358683 -0.0819195 1.19446e-24)
(-0.00649415 -0.0794302 8.58557e-25)
(-0.186058 -0.0953746 0)
(-0.160496 -0.095712 0)
(-0.133544 -0.0955133 0)
(-0.105145 -0.094732 0)
(-0.0755898 -0.0937572 0)
(-0.0440766 -0.0920438 0)
(-0.0129087 -0.090545 1.1911e-24)
(0.0255791 -0.0898348 0)
(1.05612 -0.0897146 6.54423e-24)
(0.985502 -0.0926082 0)
(0.925877 -0.0947827 -5.21345e-24)
(0.875415 -0.09653 0)
(0.833264 -0.0974165 -4.53353e-24)
(0.795049 -0.098127 0)
(0.763933 -0.0985271 6.04825e-27)
(0.710741 -0.0993862 0)
(2.72398 -0.0386305 -8.06708e-27)
(2.75746 -0.0451686 1.17059e-23)
(2.79277 -0.0501428 -1.08904e-23)
(2.82884 -0.0538272 -1.02744e-23)
(2.86624 -0.0557334 -9.69302e-24)
(2.90002 -0.056452 0)
(2.96469 -0.0530397 -2.21415e-23)
(2.96294 -0.0232389 2.58988e-23)
(1.63752 -0.0929797 -3.48959e-23)
(1.69571 -0.0961403 -3.10453e-27)
(1.76032 -0.0987842 4.1812e-23)
(1.83443 -0.100337 -4.56836e-23)
(1.91859 -0.103823 0)
(2.01831 -0.103344 0)
(2.12433 -0.1138 0)
(2.28257 -0.0540437 8.85654e-23)
(0.887497 -0.098469 0)
(0.937561 -0.108136 -5.49486e-23)
(0.992498 -0.11812 5.69727e-23)
(1.0519 -0.12664 0)
(1.11137 -0.13689 0)
(1.17491 -0.142888 0)
(1.22264 -0.153635 -6.56015e-23)
(1.28143 -0.140379 0)
(0.803172 -0.107626 1.83628e-23)
(0.84815 -0.113085 1.65413e-23)
(0.894534 -0.11843 1.504e-23)
(0.942213 -0.120779 1.36419e-23)
(0.984916 -0.125867 -1.33357e-23)
(1.03237 -0.12265 1.24061e-23)
(1.06593 -0.130241 3.18733e-27)
(1.11732 -0.0955077 1.69789e-23)
(0.706434 -0.135475 -2.60406e-27)
(0.738432 -0.145944 1.85985e-23)
(0.770673 -0.155969 1.6295e-23)
(0.803609 -0.161994 -2.85366e-27)
(0.832467 -0.170827 -1.32036e-23)
(0.865519 -0.173245 1.19659e-23)
(0.888234 -0.180298 1.13928e-23)
(0.921406 -0.172921 1.06468e-23)
(0.657527 -0.11979 -1.33597e-23)
(0.684924 -0.127631 0)
(0.711729 -0.135501 0)
(0.739155 -0.13949 -1.0705e-23)
(0.763885 -0.146823 0)
(0.792361 -0.145544 9.96653e-24)
(0.81468 -0.153342 0)
(0.847233 -0.133612 0)
(0.596478 -0.152936 0)
(0.620821 -0.161982 0)
(0.644332 -0.170538 -1.18339e-23)
(0.669008 -0.174877 0)
(0.69145 -0.182617 1.05832e-23)
(0.717839 -0.183501 1.03035e-23)
(0.739341 -0.188241 -9.81265e-24)
(0.767134 -0.18494 0)
(0.548873 -0.136693 0)
(0.571288 -0.145084 0)
(0.592749 -0.153544 2.7083e-27)
(0.615619 -0.157951 0)
(0.636492 -0.166326 8.22298e-24)
(0.661176 -0.16666 0)
(0.682078 -0.174262 3.13223e-27)
(0.711032 -0.163411 0)
(0.484347 -0.162128 -1.06857e-23)
(0.504845 -0.170679 -9.46977e-24)
(0.524673 -0.178898 1.69937e-23)
(0.546767 -0.182763 -7.6116e-24)
(0.566838 -0.190201 0)
(0.590852 -0.190824 -6.42435e-24)
(0.611319 -0.195013 5.45693e-24)
(0.635722 -0.195044 -5.55872e-24)
(0.430787 -0.15316 -9.98706e-24)
(0.448913 -0.162017 -8.76834e-24)
(0.466238 -0.171134 7.80496e-24)
(0.486346 -0.176067 -6.92353e-24)
(0.504179 -0.185179 0)
(0.526246 -0.186735 -5.83668e-24)
(0.545285 -0.193785 0)
(0.570285 -0.189054 -5.13787e-24)
(0.368325 -0.168031 0)
(0.384915 -0.176643 0)
(0.400454 -0.185118 6.44099e-24)
(0.419586 -0.189097 0)
(0.436151 -0.196669 0)
(0.457092 -0.197635 0)
(0.475386 -0.201717 2.21122e-24)
(0.495755 -0.203752 0)
(0.315641 -0.166492 -4.84507e-24)
(0.329811 -0.175942 -4.12359e-24)
(0.342012 -0.185741 7.04704e-24)
(0.358021 -0.191248 -2.95041e-24)
(0.370943 -0.200762 2.43238e-24)
(0.388949 -0.203392 0)
(0.404662 -0.209713 2.65407e-24)
(0.424229 -0.209398 -1.19723e-24)
(0.266731 -0.172332 -4.71501e-24)
(0.278651 -0.18126 -7.82912e-24)
(0.288249 -0.190104 3.20536e-24)
(0.301646 -0.194526 -5.05698e-24)
(0.312417 -0.202599 -1.35911e-27)
(0.327805 -0.204597 0)
(0.342148 -0.208642 0)
(0.357658 -0.21175 4.69844e-26)
(0.223001 -0.175022 0)
(0.230282 -0.18481 -9.4204e-24)
(0.235135 -0.194701 7.78264e-24)
(0.243391 -0.200688 1.27454e-27)
(0.25014 -0.210376 -2.35504e-24)
(0.260822 -0.214217 -1.71107e-24)
(0.27189 -0.220023 8.43579e-25)
(0.285414 -0.223159 0)
(0.19039 -0.174742 6.38157e-24)
(0.193346 -0.183902 -1.08387e-23)
(0.194927 -0.19295 4.4737e-24)
(0.200179 -0.198509 7.1552e-24)
(0.205159 -0.207418 2.64881e-24)
(0.21238 -0.211131 1.37134e-27)
(0.222567 -0.215863 8.69876e-25)
(0.233373 -0.220248 1.26623e-25)
(0.164179 -0.177136 7.25604e-24)
(0.160904 -0.187094 1.09148e-27)
(0.157697 -0.196832 -5.48819e-24)
(0.159509 -0.20366 4.48587e-24)
(0.159752 -0.213476 -1.26844e-27)
(0.162234 -0.218725 2.47342e-24)
(0.168478 -0.22515 -1.38381e-24)
(0.175204 -0.23085 5.64218e-25)
(0.157201 -0.172725 0)
(0.149022 -0.18327 1.43208e-23)
(0.141975 -0.193719 -6.38896e-24)
(0.141712 -0.200558 0)
(0.138697 -0.209532 -4.54617e-24)
(0.137847 -0.214943 0)
(0.140494 -0.220854 -2.30454e-24)
(0.141378 -0.227118 1.26114e-24)
(0.150569 -0.17186 7.7831e-24)
(0.139315 -0.182857 -1.04059e-27)
(0.127585 -0.194769 0)
(0.119735 -0.202848 6.16065e-24)
(0.111746 -0.212158 0)
(0.10463 -0.21869 4.4693e-24)
(0.101325 -0.225116 0)
(0.0959443 -0.231505 4.48917e-24)
(0.153416 -0.166974 7.67588e-24)
(0.144732 -0.176974 -1.45439e-23)
(0.13545 -0.187692 0)
(0.121096 -0.196944 6.35937e-24)
(0.11159 -0.206328 0)
(0.0995299 -0.213846 -1.21567e-27)
(0.0923106 -0.22056 0)
(0.0845723 -0.226826 3.19443e-24)
(0.147004 -0.16614 0)
(0.137392 -0.176352 -1.4375e-23)
(0.127517 -0.1867 6.73009e-24)
(0.116976 -0.194889 -6.2897e-24)
(0.105503 -0.204426 5.75506e-24)
(0.0917821 -0.211925 -5.20917e-24)
(0.079212 -0.219554 0)
(0.065883 -0.226692 0)
(0.145116 -0.162896 -7.53443e-24)
(0.135732 -0.172783 -7.14178e-24)
(0.126513 -0.182878 6.67375e-24)
(0.116339 -0.191259 -6.20023e-24)
(0.106355 -0.200035 5.68982e-24)
(0.0946779 -0.20712 0)
(0.0842189 -0.21406 0)
(0.0708541 -0.220887 0)
(0.142453 -0.160507 9.24984e-28)
(0.133164 -0.170278 0)
(0.124017 -0.180241 0)
(0.113121 -0.188648 0)
(0.103209 -0.197405 0)
(0.0917362 -0.204546 0)
(0.0810338 -0.211408 0)
(0.0684245 -0.217476 0)
(0.139035 -0.15835 7.3686e-24)
(0.129947 -0.167924 0)
(0.121126 -0.177542 6.5172e-24)
(0.11077 -0.185751 0)
(0.101027 -0.194211 0)
(0.0889573 -0.201261 0)
(0.0782344 -0.2079 -4.35364e-24)
(0.0656135 -0.213727 0)
(0.137094 -0.155623 0)
(0.128226 -0.165085 0)
(0.119475 -0.17458 -9.76821e-28)
(0.109362 -0.182727 0)
(0.0994069 -0.191093 5.45599e-24)
(0.0881427 -0.197973 0)
(0.0774744 -0.204593 -8.55534e-24)
(0.0656645 -0.210174 0)
(0.133839 -0.153565 0)
(0.125034 -0.162892 0)
(0.116487 -0.172128 -6.3774e-24)
(0.106388 -0.180167 0)
(0.096985 -0.188168 5.38843e-24)
(0.0854716 -0.195011 0)
(0.0750902 -0.201437 -4.21117e-24)
(0.0627743 -0.206776 0)
(0.131356 -0.151133 3.57589e-24)
(0.122892 -0.160272 3.37458e-24)
(0.1145 -0.169366 0)
(0.104914 -0.177186 0)
(0.0951163 -0.185145 0)
(0.0840352 -0.191836 2.38387e-24)
(0.0734622 -0.198202 0)
(0.0618156 -0.203308 1.73984e-24)
(0.128435 -0.148949 3.54131e-24)
(0.12009 -0.157985 3.34011e-24)
(0.111896 -0.166877 0)
(0.102339 -0.174594 0)
(0.0930661 -0.182209 0)
(0.0821824 -0.188793 2.35272e-24)
(0.071626 -0.195033 0)
(0.0598049 -0.200065 1.71562e-24)
(0.125509 -0.146745 0)
(0.11742 -0.155636 0)
(0.109349 -0.164329 -3.09188e-24)
(0.100166 -0.171857 2.85604e-24)
(0.0908928 -0.179339 2.60265e-24)
(0.0802736 -0.185784 0)
(0.069814 -0.191849 -2.02493e-24)
(0.0583435 -0.196727 0)
(0.122492 -0.144639 -3.47949e-24)
(0.114647 -0.153353 0)
(0.106503 -0.161951 -3.06169e-24)
(0.0975388 -0.169355 2.82544e-24)
(0.0885973 -0.176574 2.57469e-24)
(0.0785267 -0.182773 0)
(0.0679985 -0.188705 -2.00317e-24)
(0.0563864 -0.193555 0)
(0.119629 -0.142466 -3.45027e-24)
(0.111791 -0.151087 0)
(0.103887 -0.159445 3.03315e-24)
(0.0951447 -0.166727 -2.79805e-24)
(0.0863198 -0.173833 0)
(0.0764719 -0.179901 0)
(0.0663456 -0.185601 0)
(0.0553536 -0.190266 0)
(0.11658 -0.140497 0)
(0.108855 -0.148895 3.22142e-24)
(0.100829 -0.157169 3.00506e-24)
(0.0921305 -0.164373 -5.54444e-24)
(0.083604 -0.171307 -2.52382e-24)
(0.0743844 -0.177127 0)
(0.0647099 -0.182591 0)
(0.0538053 -0.187114 1.65468e-24)
(0.114113 -0.138213 0)
(0.106265 -0.146579 6.38875e-24)
(0.098411 -0.15467 -2.97894e-24)
(0.0898357 -0.161831 4.31232e-28)
(0.0813735 -0.168713 -4.99935e-24)
(0.0722364 -0.174491 2.2342e-24)
(0.0629906 -0.17977 0)
(0.0528977 -0.184044 1.64333e-24)
(0.111086 -0.136289 1.68488e-24)
(0.103587 -0.1444 3.1689e-24)
(0.0957444 -0.152407 -2.95412e-24)
(0.0873656 -0.159478 2.72414e-24)
(0.0790497 -0.166261 -2.47804e-24)
(0.0702862 -0.171919 2.21518e-24)
(0.0615348 -0.177055 0)
(0.052073 -0.181125 0)
(0.108755 -0.134119 1.67186e-24)
(0.101245 -0.142228 0)
(0.0936735 -0.15008 -1.46508e-24)
(0.0854291 -0.15712 0)
(0.077199 -0.163832 1.22895e-24)
(0.0684214 -0.169483 0)
(0.0597637 -0.174546 -9.60049e-25)
(0.0507324 -0.178465 0)
(0.106191 -0.132155 0)
(0.099121 -0.140074 0)
(0.0917746 -0.147818 -1.45323e-24)
(0.0839229 -0.154745 0)
(0.0758291 -0.161377 2.43819e-24)
(0.067351 -0.166961 -1.09065e-24)
(0.0586926 -0.172002 2.17342e-28)
(0.049919 -0.175885 0)
(0.103763 -0.130269 -1.64808e-24)
(0.0968491 -0.138152 0)
(0.0897511 -0.145779 0)
(0.0821937 -0.152615 0)
(0.0742835 -0.15913 1.20976e-24)
(0.0659685 -0.164638 -2.16486e-24)
(0.0574327 -0.169599 -2.11808e-28)
(0.0487645 -0.173462 -8.04444e-25)
(0.10176 -0.128311 -2.45443e-24)
(0.0951666 -0.136088 0)
(0.0883462 -0.143618 -7.15633e-25)
(0.0811913 -0.15034 0)
(0.0736132 -0.156719 -6.00375e-25)
(0.065588 -0.162132 -1.07478e-24)
(0.0571745 -0.167041 -1.41258e-24)
(0.0484932 -0.170959 -8.01707e-25)
(0.0995485 -0.12663 -8.12069e-25)
(0.0930812 -0.134355 0)
(0.0864106 -0.141797 9.10734e-29)
(0.0794628 -0.148429 0)
(0.0721203 -0.154671 -5.95752e-25)
(0.0643807 -0.159967 0)
(0.0562933 -0.164751 -4.68223e-25)
(0.0479839 -0.16863 0)
(0.0980218 -0.124634 0)
(0.0917687 -0.132305 0)
(0.0852775 -0.139685 1.05616e-24)
(0.0785489 -0.146262 0)
(0.0715197 -0.152405 2.955e-25)
(0.0642052 -0.157627 0)
(0.0565914 -0.16233 -2.32567e-25)
(0.0486887 -0.166186 0)
(0.0955031 -0.122971 0)
(0.0894295 -0.130567 0)
(0.0831049 -0.137856 3.49663e-25)
(0.0765428 -0.144359 0)
(0.0696947 -0.150412 2.93486e-25)
(0.0626019 -0.155576 0)
(0.055283 -0.160189 -2.31369e-25)
(0.0476808 -0.163968 0)
(0.0894231 -0.118145 0)
(0.0837757 -0.125559 0)
(0.0778705 -0.132631 0)
(0.0717297 -0.138964 0)
(0.0653492 -0.144823 0)
(0.0587991 -0.149863 0)
(0.0520991 -0.154331 0)
(0.0452668 -0.157995 0)
(0.0781569 -0.110698 0)
(0.0731319 -0.117793 0)
(0.0679232 -0.12447 0)
(0.0624413 -0.130509 0)
(0.0568309 -0.136046 0)
(0.0509942 -0.140895 0)
(0.0451183 -0.145156 0)
(0.0390794 -0.148696 0)
(0.0678916 -0.104225 0)
(0.0634494 -0.111038 0)
(0.0588179 -0.117417 0)
(0.0540194 -0.123227 0)
(0.0490836 -0.128557 0)
(0.0440635 -0.133275 0)
(0.0389748 -0.137454 0)
(0.0339057 -0.141006 0)
(0.0586726 -0.0986657 0)
(0.0550568 -0.105255 0)
(0.0513144 -0.111408 0)
(0.0474405 -0.117051 0)
(0.0434818 -0.122231 0)
(0.0394054 -0.12687 0)
(0.0352988 -0.130998 0)
(0.0311071 -0.134557 0)
(0.0488716 -0.0941024 0)
(0.0457576 -0.100512 0)
(0.0425105 -0.106491 0)
(0.0391659 -0.111995 0)
(0.0357238 -0.117041 0)
(0.0322333 -0.121588 0)
(0.0286976 -0.125649 0)
(0.0251827 -0.129224 0)
(0.0399047 -0.0902711 0)
(0.0375166 -0.0965227 0)
(0.0350488 -0.102362 0)
(0.0325064 -0.107756 0)
(0.0299086 -0.112707 0)
(0.0272431 -0.11719 0)
(0.0245503 -0.121219 0)
(0.021812 -0.12482 0)
(0.0304515 -0.0873971 0)
(0.028581 -0.0935508 0)
(0.0266418 -0.099298 0)
(0.0246481 -0.104614 0)
(0.0226067 -0.109492 0)
(0.0205475 -0.113926 0)
(0.0184868 -0.117917 0)
(0.0164524 -0.121482 0)
(0.0212836 -0.0852262 0)
(0.0199911 -0.0912942 0)
(0.0186643 -0.0969652 0)
(0.017302 -0.102221 0)
(0.0159251 -0.107065 0)
(0.0145371 -0.1115 0)
(0.0131627 -0.115528 0)
(0.0118033 -0.119132 0)
(0.0122484 -0.0837816 0)
(0.0114406 -0.0898142 0)
(0.0106169 -0.0954616 0)
(0.00979014 -0.100711 0)
(0.00897114 -0.10556 0)
(0.00816629 -0.11001 0)
(0.00737746 -0.114055 0)
(0.00660811 -0.117675 0)
(0.00463649 -0.0828943 0)
(0.00429584 -0.0889074 0)
(0.00395302 -0.0945461 0)
(0.00361252 -0.0997989 0)
(0.00327576 -0.104658 0)
(0.00294456 -0.109118 0)
(0.00261407 -0.113172 0)
(0.00228787 -0.116814 0)
(0.0436439 0.000459992 0)
(0.0640053 0.000167745 0)
(0.0825253 1.35042e-05 0)
(0.100568 -6.58363e-05 0)
(0.118342 -8.67963e-05 0)
(0.136095 -9.11778e-05 0)
(0.153754 -9.06687e-05 0)
(0.171054 -8.85597e-05 0)
(0.187759 -8.52094e-05 0)
(0.20363 -8.06418e-05 0)
(0.21844 -7.48356e-05 0)
(0.231962 -6.82005e-05 0)
(0.244139 -6.15918e-05 0)
(0.255076 -5.56462e-05 0)
(0.264911 -4.98886e-05 0)
(0.273705 -4.44394e-05 0)
(0.281414 -3.85435e-05 0)
(0.288085 -3.25404e-05 0)
(0.293712 -2.67936e-05 0)
(0.298169 -2.12189e-05 0)
(0.301351 -1.54366e-05 0)
(0.303314 -9.3416e-06 0)
(0.304164 -3.64711e-06 0)
(0.304004 2.32903e-06 0)
(0.302961 7.22704e-06 0)
(0.301092 1.13201e-05 0)
(0.298429 1.61959e-05 0)
(0.29494 2.09282e-05 0)
(0.290613 2.50768e-05 0)
(0.285461 2.93191e-05 0)
(0.279519 3.28361e-05 0)
(0.272899 3.60023e-05 0)
(0.265536 3.9383e-05 0)
(0.257411 4.11797e-05 0)
(0.248563 4.66119e-05 0)
(0.239072 5.02708e-05 0)
(0.228963 5.38865e-05 0)
(0.218189 5.72353e-05 0)
(0.206743 6.08945e-05 0)
(0.194515 6.47325e-05 0)
(0.181592 6.85839e-05 0)
(0.167975 7.15242e-05 0)
(0.153835 7.33369e-05 0)
(0.139531 7.33906e-05 0)
(0.125256 7.30542e-05 0)
(0.110949 7.32021e-05 0)
(0.0965541 7.37575e-05 0)
(0.0821028 7.43584e-05 0)
(0.0675756 7.40515e-05 0)
(0.0533485 7.12022e-05 0)
(0.0399112 6.57184e-05 0)
(0.0277885 5.81676e-05 0)
(0.0171777 5.00777e-05 0)
(0.0080877 4.2742e-05 0)
(0.000303703 3.70455e-05 0)
(-0.00659335 3.29466e-05 0)
(-0.0128216 2.91375e-05 0)
(-0.0182563 2.47228e-05 0)
(-0.0227076 1.87647e-05 0)
(-0.0257688 1.09617e-05 0)
(-0.0271695 2.47402e-06 0)
(-0.0270339 -4.93647e-06 0)
(-0.0256736 -1.00889e-05 0)
(-0.0236446 -1.22679e-05 0)
(-0.0214288 -1.19458e-05 0)
(-0.019462 -1.03162e-05 0)
(-0.0178438 -8.73647e-06 0)
(-0.0164116 -8.32387e-06 0)
(-0.0149153 -8.76382e-06 0)
(-0.013307 -8.99027e-06 0)
(-0.0117038 -8.05722e-06 0)
(-0.0104632 -5.3878e-06 0)
(-0.0099039 -1.35975e-06 0)
(-0.0102565 3.46471e-06 0)
(-0.0115593 8.65961e-06 0)
(-0.0139416 1.41976e-05 0)
(-0.0173143 1.91444e-05 0)
(-0.0215778 2.29073e-05 0)
(-0.0263586 2.44186e-05 0)
(-0.0312652 2.45464e-05 0)
(-0.0361213 2.34313e-05 0)
(-0.0405713 2.1064e-05 0)
(-0.0445457 1.77742e-05 0)
(-0.0477609 1.35819e-05 0)
(-0.0501372 8.73429e-06 0)
(-0.0514617 2.61113e-06 0)
(-0.0514661 -4.99836e-06 0)
(-0.0497973 -1.42034e-05 0)
(-0.0462589 -2.27631e-05 0)
(-0.0414142 -2.7764e-05 0)
(-0.0360061 -2.88881e-05 0)
(-0.0306923 -2.66326e-05 0)
(-0.0259987 -2.23833e-05 0)
(-0.0222908 -1.65319e-05 0)
(-0.0198086 -9.53104e-06 0)
(-0.0187953 -1.30778e-06 0)
(-0.0194921 8.04063e-06 0)
(-0.0220874 1.82597e-05 0)
(-0.0267039 2.86863e-05 0)
(-0.0333268 3.86617e-05 0)
(-0.0417758 4.72938e-05 0)
(-0.0517173 5.3645e-05 0)
(-0.0626024 5.68349e-05 0)
(-0.0737611 5.64159e-05 0)
(-0.0844552 5.21192e-05 0)
(-0.0939596 4.43562e-05 0)
(-0.101635 3.35688e-05 0)
(-0.106976 2.04943e-05 0)
(-0.109641 6.34385e-06 0)
(-0.109545 -7.88458e-06 0)
(-0.106803 -2.08782e-05 0)
(-0.101774 -3.14549e-05 0)
(-0.0949869 -3.87877e-05 0)
(-0.0870737 -4.23826e-05 0)
(-0.0787557 -4.24522e-05 0)
(-0.070721 -3.94793e-05 0)
(-0.0634953 -3.44547e-05 0)
(-0.0573641 -2.84921e-05 0)
(-0.0524134 -2.27006e-05 0)
(-0.0485169 -1.80325e-05 0)
(-0.0453586 -1.51112e-05 0)
(-0.0425933 -1.43465e-05 0)
(-0.0397977 -1.59922e-05 0)
(-0.0364986 -1.96339e-05 0)
(-0.0323242 -2.47787e-05 0)
(-0.0270497 -3.0706e-05 0)
(-0.0206278 -3.64439e-05 0)
(-0.013184 -4.11332e-05 0)
(-0.00494304 -4.40718e-05 0)
(0.00370842 -4.47142e-05 0)
(0.012199 -4.2869e-05 0)
(0.0200795 -3.88059e-05 0)
(0.0270126 -3.29027e-05 0)
(0.0326601 -2.57021e-05 0)
(0.0368194 -1.77709e-05 0)
(0.0394126 -9.73085e-06 0)
(0.0404734 -2.08905e-06 0)
(0.0401139 4.79033e-06 0)
(0.0384851 1.07926e-05 0)
(0.0357537 1.58963e-05 0)
(0.0320944 2.01777e-05 0)
(0.0276755 2.36813e-05 0)
(0.0226518 2.63523e-05 0)
(0.0172106 2.78499e-05 0)
(0.0116211 2.75192e-05 0)
(0.00629972 2.46636e-05 0)
(0.0017762 1.86167e-05 0)
(-0.00122652 9.35858e-06 0)
(-0.00209536 -2.37962e-06 0)
(-0.000524362 -1.57069e-05 0)
(0.00359906 -2.80988e-05 0)
(0.00991368 -3.73184e-05 0)
(0.0175888 -4.14178e-05 0)
(0.0255156 -3.96347e-05 0)
(0.0325522 -3.2483e-05 0)
(0.0377952 -2.1885e-05 0)
(0.0434523 -0.000877313 0)
(0.0638601 -0.000561613 0)
(0.0824744 -0.000386953 0)
(0.100557 -0.000304027 0)
(0.118333 -0.000282631 0)
(0.136084 -0.000276806 0)
(0.153742 -0.0002722 0)
(0.171042 -0.00026486 0)
(0.187747 -0.000253274 0)
(0.203618 -0.000237919 0)
(0.218429 -0.000218932 0)
(0.23195 -0.000197805 0)
(0.244128 -0.000177952 0)
(0.255065 -0.000159942 0)
(0.264899 -0.000143743 0)
(0.273693 -0.000126539 0)
(0.281402 -0.000110391 0)
(0.288073 -9.52173e-05 0)
(0.293701 -7.79433e-05 0)
(0.298158 -5.79769e-05 0)
(0.301339 -3.79606e-05 0)
(0.303303 -2.00996e-05 0)
(0.304152 -3.30331e-06 0)
(0.303992 1.04666e-05 0)
(0.30295 2.33121e-05 0)
(0.30108 3.58981e-05 0)
(0.298417 4.76105e-05 0)
(0.294929 5.99942e-05 0)
(0.290602 7.29364e-05 0)
(0.285449 8.56594e-05 0)
(0.279507 9.72807e-05 0)
(0.272887 0.000109139 0)
(0.265525 0.000121247 0)
(0.257399 0.000135043 0)
(0.248552 0.000143659 0)
(0.23906 0.000152816 0)
(0.228951 0.000162466 0)
(0.218177 0.000172552 0)
(0.206731 0.000183772 0)
(0.194503 0.00019605 0)
(0.18158 0.000207836 0)
(0.167963 0.000217032 0)
(0.153823 0.000222642 0)
(0.139518 0.000223023 0)
(0.125244 0.000221921 0)
(0.110937 0.000222216 0)
(0.0965418 0.000223793 0)
(0.0820905 0.000225623 0)
(0.0675632 0.00022466 0)
(0.0533361 0.000216094 0)
(0.0398987 0.000199593 0)
(0.027776 0.000177194 0)
(0.0171652 0.000152984 0)
(0.00807521 0.000131141 0)
(0.000291242 0.000114292 0)
(-0.0066058 0.000101902 0)
(-0.012834 9.06341e-05 0)
(-0.0182688 7.7528e-05 0)
(-0.0227201 5.97855e-05 0)
(-0.0257814 3.61968e-05 0)
(-0.0271821 1.11396e-05 0)
(-0.0270464 -1.11137e-05 0)
(-0.0256861 -2.66569e-05 0)
(-0.023657 -3.32774e-05 0)
(-0.0214412 -3.2443e-05 0)
(-0.0194744 -2.75142e-05 0)
(-0.0178562 -2.28254e-05 0)
(-0.0164241 -2.1648e-05 0)
(-0.0149277 -2.30373e-05 0)
(-0.0133194 -2.39118e-05 0)
(-0.0117162 -2.12237e-05 0)
(-0.0104756 -1.33019e-05 0)
(-0.00991628 -1.17181e-06 0)
(-0.0102689 1.35917e-05 0)
(-0.0115716 2.91233e-05 0)
(-0.0139539 4.55306e-05 0)
(-0.0173266 6.00984e-05 0)
(-0.0215902 7.13656e-05 0)
(-0.026371 7.62521e-05 0)
(-0.0312777 7.66141e-05 0)
(-0.0361337 7.32476e-05 0)
(-0.0405838 6.6077e-05 0)
(-0.0445582 5.60554e-05 0)
(-0.0477733 4.32534e-05 0)
(-0.0501497 2.87536e-05 0)
(-0.0514743 1.05455e-05 0)
(-0.0514787 -1.20784e-05 0)
(-0.0498099 -3.9539e-05 0)
(-0.0462714 -6.54302e-05 0)
(-0.0414267 -8.05287e-05 0)
(-0.0360185 -8.39091e-05 0)
(-0.0307046 -7.75348e-05 0)
(-0.026011 -6.47504e-05 0)
(-0.0223031 -4.75515e-05 0)
(-0.0198208 -2.65026e-05 0)
(-0.0188074 -1.62836e-06 0)
(-0.0195042 2.65376e-05 0)
(-0.0220995 5.69849e-05 0)
(-0.026716 8.84729e-05 0)
(-0.0333389 0.00011834 0)
(-0.041788 0.000144033 0)
(-0.0517294 0.000162752 0)
(-0.0626146 0.000171926 0)
(-0.0737734 0.000170108 0)
(-0.0844675 0.000156951 0)
(-0.093972 0.000133241 0)
(-0.101647 0.00010059 0)
(-0.106988 6.14627e-05 0)
(-0.109653 1.91506e-05 0)
(-0.109557 -2.29959e-05 0)
(-0.106815 -6.1874e-05 0)
(-0.101786 -9.36211e-05 0)
(-0.0949991 -0.00011569 0)
(-0.0870859 -0.000126852 0)
(-0.0787678 -0.000127086 0)
(-0.0707331 -0.000118271 0)
(-0.0635073 -0.000103275 0)
(-0.0573761 -8.55212e-05 0)
(-0.0524255 -6.78945e-05 0)
(-0.048529 -5.35856e-05 0)
(-0.0453707 -4.46552e-05 0)
(-0.0426055 -4.23014e-05 0)
(-0.03981 -4.72574e-05 0)
(-0.0365109 -5.84333e-05 0)
(-0.0323365 -7.40344e-05 0)
(-0.027062 -9.16245e-05 0)
(-0.0206401 -0.000108705 0)
(-0.0131963 -0.000122654 0)
(-0.00495528 -0.000131343 0)
(0.0036962 -0.000133236 0)
(0.0121868 -0.000127869 0)
(0.0200674 -0.000115712 0)
(0.0270005 -9.78513e-05 0)
(0.0326481 -7.59716e-05 0)
(0.0368073 -5.19787e-05 0)
(0.0394005 -2.76058e-05 0)
(0.0404613 -4.31356e-06 0)
(0.0401019 1.67893e-05 0)
(0.038473 3.50419e-05 0)
(0.0357415 5.04643e-05 0)
(0.0320823 6.33389e-05 0)
(0.0276633 7.38526e-05 0)
(0.0226396 8.17547e-05 0)
(0.0171984 8.60251e-05 0)
(0.0116089 8.49531e-05 0)
(0.00628748 7.63252e-05 0)
(0.0017639 5.81273e-05 0)
(-0.00123886 3.03854e-05 0)
(-0.00210772 -4.84561e-06 0)
(-0.000536791 -4.42202e-05 0)
(0.00358672 -8.13359e-05 0)
(0.00990142 -0.00010898 0)
(0.0175767 -0.000121329 0)
(0.0255036 -0.000116011 0)
(0.0325402 -9.45391e-05 0)
(0.0377833 -6.27065e-05 0)
(0.0434629 -3.45135e-06 0)
(0.063787 -0.000243846 0)
(0.0823888 -0.000367377 0)
(0.100508 -0.000435128 0)
(0.118312 -0.000453196 0)
(0.136072 -0.000458191 0)
(0.153731 -0.000452916 0)
(0.17103 -0.000441661 0)
(0.187735 -0.00042347 0)
(0.203606 -0.00039907 0)
(0.218416 -0.000368583 0)
(0.231937 -0.000334245 0)
(0.244115 -0.000301213 0)
(0.255052 -0.000271195 0)
(0.264887 -0.000243536 0)
(0.27368 -0.000215687 0)
(0.281389 -0.000187845 0)
(0.28806 -0.00016069 0)
(0.293688 -0.000132244 0)
(0.298145 -0.00010147 0)
(0.301326 -6.99519e-05 0)
(0.30329 -3.98563e-05 0)
(0.304139 -1.186e-05 0)
(0.303979 1.27462e-05 0)
(0.302937 3.52002e-05 0)
(0.301067 5.59241e-05 0)
(0.298404 7.77949e-05 0)
(0.294916 9.99897e-05 0)
(0.290589 0.000121478 0)
(0.285436 0.000142768 0)
(0.279494 0.000161448 0)
(0.272874 0.00017965 0)