/*--------------------------------*- C++ -*----------------------------------*\
| =========                 |                                                 |
| \\      /  F ield         | OpenFOAM: The Open Source CFD Toolbox           |
|  \\    /   O peration     | Version:  v1912                                 |
|   \\  /    A nd           | Website:  www.openfoam.com                      |
|    \\/     M anipulation  |                                                 |
\*---------------------------------------------------------------------------*/
FoamFile
{
    version     2.0;
    format      ascii;
    class       volScalarField;
    location    "20";
    object      omega;
}
// * * * * * * * * * * * * * * * * * * * * * * * * * * * * * * * * * * * * * //

dimensions      [0 0 -1 0 0 0 0];


internalField   nonuniform List<scalar> 
14268
(
0.011691
0.0116821
0.0116775
0.0116715
0.011677
0.0116882
0.0117084
0.0117329
0.011764
0.0117994
0.0118392
0.011882
0.0119277
0.0119756
0.0120261
0.0120806
0.0121378
0.0121952
0.0122498
0.0122991
0.0123408
0.0123733
0.0123953
0.0124066
0.0124079
0.0124052
0.0124027
0.0123999
0.0123969
0.0123938
0.0123905
0.0123874
0.0123843
0.012382
0.0123801
0.0123786
0.0123775
0.0123769
0.0123768
0.0123773
0.0123782
0.0123797
0.0123817
0.0123842
0.0123871
0.01239
0.0123927
0.0123953
0.0123977
0.0124
0.0124022
0.0124047
0.0124101
0.0124185
0.0124296
0.0124428
0.0124575
0.0124733
0.0124899
0.0125069
0.0125241
0.0125412
0.0125581
0.0125746
0.0125905
0.0126058
0.0126202
0.0126339
0.0126466
0.0126583
0.012669
0.0126787
0.0126873
0.0126948
0.0127013
0.0127067
0.0127111
0.0127145
0.0127169
0.0127185
0.0127192
0.0127193
0.0127193
0.0127191
0.0127187
0.0127174
0.484967
0.486588
0.487381
0.487001
0.485896
0.484724
0.483208
0.481631
0.479937
0.478222
0.476449
0.474637
0.472809
0.470971
0.469172
0.467442
0.465779
0.464162
0.462504
0.460823
0.459241
0.457836
0.456706
0.455939
0.455532
0.455677
0.456677
0.458377
0.46053
0.462918
0.465393
0.467862
0.470303
0.472702
0.475105
0.477568
0.480148
0.482883
0.485792
0.488869
0.492079
0.495351
0.498592
0.50171
0.504616
0.507226
0.509468
0.511296
0.51268
0.513613
0.514111
0.51421
0.514204
0.514176
0.514129
0.514065
0.513992
0.513911
0.513826
0.513741
0.513656
0.513575
0.513497
0.513424
0.513357
0.513295
0.513238
0.513188
0.513144
0.513104
0.513069
0.513037
0.513009
0.512985
0.512965
0.512948
0.512935
0.512925
0.512916
0.512907
0.512893
0.51288
0.512917
0.512948
0.512897
0.512731
0.524694
0.524782
0.524792
0.524619
0.524473
0.524319
0.524129
0.523918
0.5237
0.523494
0.52326
0.52302
0.522791
0.522557
0.5223
0.521969
0.521594
0.5212
0.520777
0.520345
0.519931
0.519569
0.519296
0.519141
0.519005
0.518887
0.518869
0.518965
0.519139
0.519349
0.519579
0.519814
0.520045
0.520265
0.52048
0.520693
0.520907
0.521124
0.521344
0.521564
0.52178
0.521969
0.522119
0.522225
0.522291
0.522322
0.522325
0.52231
0.522287
0.522261
0.522238
0.522221
0.522213
0.5222
0.52218
0.522154
0.522124
0.522093
0.522062
0.522034
0.522007
0.521983
0.521963
0.521946
0.521932
0.521921
0.521912
0.521907
0.521903
0.521901
0.5219
0.521899
0.521898
0.521897
0.521896
0.521895
0.521894
0.521894
0.521894
0.521893
0.521891
0.521889
0.521893
0.521878
0.521916
0.521866
0.527945
0.527589
0.527466
0.527583
0.527495
0.527404
0.527206
0.526977
0.526724
0.526465
0.526197
0.525888
0.525563
0.525228
0.524938
0.524717
0.52454
0.524343
0.524101
0.523854
0.523633
0.523434
0.523281
0.523201
0.523166
0.523106
0.523049
0.522998
0.522954
0.522914
0.522883
0.522863
0.522845
0.522831
0.522816
0.522801
0.522789
0.52278
0.522778
0.522784
0.522797
0.522803
0.522789
0.522756
0.522707
0.522647
0.52258
0.522514
0.522454
0.522404
0.522366
0.522341
0.522327
0.522316
0.522298
0.522272
0.522243
0.522213
0.522182
0.522152
0.522125
0.5221
0.522079
0.522061
0.522045
0.522033
0.522023
0.522016
0.522011
0.522007
0.522004
0.522002
0.522001
0.521999
0.521998
0.521997
0.521995
0.521993
0.521991
0.521989
0.521986
0.521983
0.521984
0.52197
0.521995
0.521954
0.526953
0.526803
0.526736
0.526686
0.526653
0.526695
0.526669
0.526636
0.526572
0.526519
0.526454
0.526367
0.526274
0.526172
0.52606
0.525885
0.525666
0.525426
0.525163
0.52491
0.524686
0.524506
0.524383
0.524293
0.524146
0.523935
0.523733
0.523562
0.523414
0.523292
0.523198
0.523129
0.523082
0.523046
0.523014
0.522984
0.522956
0.522933
0.522917
0.522911
0.522915
0.522912
0.522891
0.52285
0.522794
0.522727
0.522653
0.52258
0.522513
0.522456
0.522412
0.522381
0.522363
0.522353
0.522336
0.522312
0.522284
0.522254
0.522223
0.522193
0.522165
0.522139
0.522117
0.522097
0.522081
0.522067
0.522055
0.522047
0.52204
0.522034
0.52203
0.522026
0.522023
0.522021
0.522018
0.522015
0.522012
0.522009
0.522006
0.522002
0.521998
0.521994
0.521993
0.521982
0.521997
0.521959
0.527753
0.527444
0.527334
0.527467
0.527464
0.527441
0.527307
0.527129
0.526937
0.526726
0.526521
0.526279
0.526018
0.525742
0.525506
0.525325
0.525171
0.524988
0.524762
0.524546
0.524349
0.524181
0.524068
0.524017
0.523941
0.523814
0.523681
0.523556
0.523445
0.523353
0.523276
0.523219
0.523181
0.523148
0.523116
0.523086
0.523056
0.523032
0.523014
0.523007
0.52301
0.523007
0.522985
0.522942
0.522882
0.522809
0.522729
0.522649
0.522575
0.522512
0.522462
0.522426
0.522403
0.522391
0.522375
0.522353
0.522325
0.522295
0.522263
0.522232
0.522204
0.522177
0.522153
0.522133
0.522114
0.522099
0.522086
0.522076
0.522068
0.52206
0.522054
0.522049
0.522044
0.52204
0.522036
0.522032
0.522028
0.522023
0.522018
0.522014
0.522009
0.522004
0.522001
0.521991
0.522
0.521965
0.527257
0.527021
0.526927
0.526902
0.526882
0.526926
0.526891
0.526827
0.526743
0.526658
0.526585
0.526485
0.526366
0.526234
0.526124
0.52598
0.525787
0.525565
0.52533
0.525105
0.524923
0.524791
0.524704
0.524581
0.524379
0.52412
0.5239
0.523721
0.523574
0.523457
0.523368
0.523314
0.523282
0.523251
0.523222
0.523192
0.523163
0.523136
0.523118
0.523109
0.523112
0.523109
0.523086
0.52304
0.522976
0.522899
0.522812
0.522725
0.522644
0.522574
0.522517
0.522476
0.522447
0.522431
0.522418
0.522396
0.522369
0.522338
0.522306
0.522275
0.522245
0.522217
0.522192
0.522169
0.52215
0.522133
0.522119
0.522107
0.522097
0.522088
0.52208
0.522073
0.522067
0.522061
0.522055
0.52205
0.522044
0.522038
0.522032
0.522026
0.52202
0.522014
0.52201
0.522
0.522006
0.521975
0.527907
0.527628
0.527521
0.527613
0.527669
0.527685
0.527588
0.527448
0.527277
0.52709
0.526911
0.526698
0.526464
0.526217
0.526003
0.525824
0.525658
0.525457
0.525234
0.525035
0.524874
0.524747
0.524663
0.524559
0.524406
0.524208
0.524017
0.523841
0.523688
0.523559
0.523468
0.523421
0.523394
0.523364
0.523337
0.523309
0.523279
0.52325
0.52323
0.52322
0.523222
0.523219
0.523195
0.523146
0.523077
0.522994
0.5229
0.522805
0.522717
0.522639
0.522576
0.522528
0.522495
0.522475
0.522462
0.52244
0.522413
0.522382
0.52235
0.522317
0.522286
0.522257
0.522231
0.522207
0.522186
0.522167
0.522151
0.522137
0.522126
0.522115
0.522106
0.522097
0.522089
0.522082
0.522074
0.522067
0.52206
0.522053
0.522046
0.522039
0.522031
0.522025
0.522019
0.522009
0.522011
0.521985
0.527962
0.527694
0.527588
0.527551
0.527544
0.527584
0.527548
0.527477
0.527365
0.527245
0.527134
0.527007
0.526858
0.526688
0.526549
0.526409
0.52622
0.525994
0.525771
0.525558
0.525392
0.525274
0.525158
0.524998
0.524753
0.524463
0.524218
0.524006
0.52382
0.523672
0.523578
0.523541
0.523516
0.52349
0.523465
0.523438
0.523407
0.523376
0.523354
0.523342
0.523343
0.52334
0.523314
0.523261
0.523188
0.523098
0.522995
0.522892
0.522794
0.522708
0.522639
0.522586
0.522547
0.522523
0.522508
0.522488
0.52246
0.522429
0.522395
0.522362
0.522329
0.522299
0.522271
0.522245
0.522222
0.522202
0.522184
0.522169
0.522155
0.522143
0.522132
0.522122
0.522112
0.522103
0.522094
0.522085
0.522077
0.522068
0.52206
0.522051
0.522043
0.522035
0.522028
0.522018
0.522018
0.521994
0.528753
0.528497
0.528387
0.528375
0.528406
0.528427
0.528343
0.528213
0.528038
0.527854
0.52767
0.52747
0.52725
0.52701
0.526813
0.526649
0.526498
0.526297
0.526097
0.525932
0.525783
0.525644
0.525482
0.525289
0.525018
0.524714
0.524423
0.524167
0.523949
0.523784
0.523702
0.52367
0.523651
0.523628
0.523606
0.52358
0.523548
0.523514
0.523488
0.523473
0.523472
0.52347
0.523442
0.523386
0.523307
0.52321
0.523099
0.522986
0.52288
0.522785
0.522709
0.522648
0.522604
0.522575
0.522558
0.522538
0.52251
0.522477
0.522443
0.522408
0.522374
0.522342
0.522313
0.522285
0.52226
0.522239
0.522219
0.522202
0.522186
0.522172
0.522159
0.522147
0.522136
0.522125
0.522114
0.522104
0.522094
0.522084
0.522074
0.522064
0.522055
0.522046
0.522037
0.522027
0.522025
0.522002
0.529445
0.529148
0.528985
0.528833
0.528765
0.52875
0.528681
0.528565
0.528415
0.528276
0.528145
0.528013
0.527841
0.527655
0.527485
0.52734
0.527184
0.526985
0.526763
0.526555
0.526373
0.526167
0.525931
0.525674
0.525348
0.524964
0.524638
0.524344
0.524091
0.523916
0.523839
0.523814
0.523798
0.523781
0.523762
0.523736
0.523703
0.523666
0.523637
0.523618
0.523615
0.523613
0.523584
0.523522
0.523437
0.523331
0.52321
0.523087
0.522971
0.522866
0.522783
0.522714
0.522664
0.52263
0.52261
0.522589
0.52256
0.522527
0.522491
0.522455
0.522419
0.522386
0.522354
0.522325
0.522298
0.522274
0.522253
0.522234
0.522216
0.5222
0.522185
0.522171
0.522158
0.522146
0.522133
0.522122
0.52211
0.522099
0.522088
0.522077
0.522066
0.522056
0.522047
0.522036
0.522032
0.522009
0.530524
0.530233
0.53007
0.529929
0.529874
0.529814
0.529685
0.529501
0.529285
0.52909
0.528897
0.528733
0.528516
0.5283
0.528096
0.527922
0.527771
0.527598
0.527406
0.527208
0.526996
0.526745
0.526454
0.526118
0.52569
0.525303
0.524888
0.524546
0.524251
0.524064
0.523994
0.523976
0.523965
0.52395
0.523934
0.523907
0.523871
0.523829
0.523793
0.523769
0.52376
0.523758
0.523727
0.523661
0.52357
0.523456
0.523327
0.523195
0.523068
0.522954
0.522863
0.522787
0.522731
0.522693
0.52267
0.522647
0.522617
0.522582
0.522544
0.522506
0.522469
0.522434
0.5224
0.522369
0.522341
0.522315
0.522291
0.522271
0.522251
0.522233
0.522216
0.522201
0.522186
0.522171
0.522157
0.522144
0.52213
0.522117
0.522104
0.522092
0.52208
0.522069
0.522058
0.522046
0.52204
0.522018
0.531687
0.531351
0.53113
0.530915
0.530811
0.530687
0.530538
0.530337
0.530115
0.52993
0.529754
0.529621
0.529462
0.529256
0.529059
0.528887
0.52866
0.528396
0.528116
0.527845
0.52757
0.527264
0.526929
0.526554
0.52608
0.525547
0.525137
0.524757
0.524429
0.524237
0.524176
0.524164
0.524151
0.524139
0.524123
0.524095
0.524058
0.524012
0.523978
0.523951
0.523945
0.52394
0.523902
0.523826
0.523722
0.523589
0.523444
0.523294
0.523153
0.523029
0.52293
0.522847
0.522788
0.522746
0.52272
0.522698
0.522666
0.522629
0.522589
0.52255
0.52251
0.522473
0.522438
0.522405
0.522374
0.522346
0.522321
0.522297
0.522276
0.522256
0.522237
0.522219
0.522202
0.522186
0.522171
0.522156
0.522141
0.522127
0.522113
0.5221
0.522087
0.522075
0.522063
0.522051
0.522045
0.522023
0.533126
0.532793
0.532545
0.53231
0.532203
0.532071
0.531905
0.531676
0.531391
0.531123
0.530888
0.530759
0.530633
0.530503
0.530381
0.530255
0.53003
0.529709
0.529335
0.528956
0.528567
0.528143
0.527714
0.527246
0.526627
0.52606
0.525484
0.525026
0.524653
0.52443
0.524365
0.524337
0.524323
0.524313
0.524302
0.524276
0.524234
0.524181
0.524122
0.52407
0.524037
0.524019
0.523985
0.523911
0.523812
0.523684
0.523537
0.52338
0.523228
0.523099
0.522992
0.522905
0.52284
0.522794
0.522763
0.52274
0.522709
0.522673
0.522635
0.522595
0.522556
0.522518
0.522483
0.52245
0.522419
0.522391
0.522365
0.522341
0.522319
0.522298
0.522278
0.522259
0.522241
0.522223
0.522206
0.522189
0.522172
0.522156
0.522141
0.522126
0.522111
0.522097
0.522083
0.522069
0.52206
0.522037
0.53428
0.53392
0.533614
0.533323
0.533174
0.533012
0.532863
0.532637
0.532301
0.531988
0.53173
0.531587
0.531494
0.5314
0.531291
0.531163
0.530919
0.530611
0.530263
0.529838
0.52931
0.52865
0.528007
0.527435
0.526807
0.5263
0.525714
0.525241
0.524843
0.524579
0.524473
0.524434
0.524417
0.524408
0.524394
0.524369
0.524328
0.52427
0.5242
0.524145
0.524104
0.524095
0.524063
0.523995
0.523904
0.523773
0.523638
0.523486
0.523327
0.523188
0.523069
0.522976
0.522905
0.522852
0.522815
0.522787
0.522751
0.522711
0.522668
0.522624
0.522581
0.52254
0.522501
0.522465
0.522433
0.522404
0.522376
0.522351
0.522328
0.522307
0.522286
0.522266
0.522247
0.522229
0.522212
0.522194
0.522177
0.52216
0.522144
0.522128
0.522112
0.522098
0.522084
0.522071
0.522062
0.522039
0.534964
0.534593
0.534273
0.533992
0.533868
0.533789
0.533663
0.533416
0.53302
0.532678
0.532419
0.532246
0.532115
0.531977
0.531825
0.531622
0.531287
0.530932
0.530577
0.530187
0.529751
0.52923
0.528677
0.528045
0.52722
0.526424
0.525868
0.525335
0.524909
0.524613
0.524507
0.524476
0.524461
0.524447
0.524428
0.524401
0.524362
0.524299
0.524238
0.524203
0.524195
0.524203
0.524185
0.524129
0.52403
0.523876
0.523712
0.52355
0.523392
0.523246
0.523116
0.523015
0.522942
0.522893
0.52286
0.522831
0.522795
0.522753
0.522707
0.522661
0.522616
0.522573
0.522531
0.522493
0.522457
0.522423
0.522392
0.522364
0.522338
0.522313
0.522291
0.522268
0.522247
0.522227
0.522208
0.522189
0.522171
0.522154
0.522137
0.522121
0.522106
0.522092
0.522079
0.522066
0.522058
0.522037
0.535763
0.535349
0.534978
0.534676
0.534538
0.534496
0.534386
0.534123
0.533686
0.533345
0.533118
0.532964
0.532883
0.532772
0.532555
0.532154
0.531702
0.531275
0.530862
0.530433
0.52994
0.529315
0.528615
0.527948
0.527253
0.526577
0.52596
0.525415
0.524942
0.52464
0.524551
0.524531
0.524524
0.524514
0.524504
0.524487
0.524453
0.524391
0.524347
0.524325
0.524332
0.524326
0.524296
0.524212
0.524097
0.523961
0.523771
0.523586
0.523427
0.523297
0.523162
0.523049
0.522969
0.522915
0.522879
0.522851
0.522814
0.522772
0.522727
0.522681
0.522636
0.522594
0.522553
0.522515
0.52248
0.522448
0.522418
0.52239
0.522365
0.522339
0.522316
0.522293
0.522272
0.522251
0.522231
0.522211
0.522192
0.522174
0.522156
0.522139
0.522123
0.522107
0.522092
0.522078
0.522068
0.522045
0.536523
0.536124
0.535767
0.535487
0.535366
0.53536
0.535194
0.534827
0.534346
0.534001
0.533769
0.533618
0.533568
0.53349
0.533191
0.532726
0.532303
0.531839
0.531346
0.530858
0.530362
0.529813
0.529247
0.528616
0.527723
0.526822
0.526106
0.525503
0.52502
0.524721
0.524641
0.524625
0.524627
0.524633
0.524648
0.524635
0.524597
0.524541
0.524492
0.524445
0.524417
0.524403
0.524362
0.524278
0.524167
0.524004
0.523842
0.523643
0.52345
0.523322
0.523201
0.523088
0.522998
0.522939
0.522901
0.522873
0.522834
0.522789
0.522743
0.522696
0.522651
0.522607
0.522565
0.522526
0.52249
0.522457
0.522427
0.522398
0.522372
0.522346
0.522322
0.522299
0.522277
0.522257
0.522236
0.522216
0.522197
0.522178
0.52216
0.522143
0.522126
0.52211
0.522095
0.52208
0.522071
0.522047
0.537473
0.537108
0.536741
0.53643
0.536241
0.53621
0.535975
0.535505
0.534985
0.534634
0.534386
0.534237
0.534203
0.534132
0.533764
0.533391
0.532971
0.532442
0.531838
0.531255
0.530654
0.529965
0.529214
0.528464
0.527662
0.526949
0.526226
0.525621
0.525134
0.524842
0.524756
0.524744
0.524758
0.524796
0.52482
0.524786
0.524727
0.524663
0.524589
0.524528
0.524489
0.524472
0.524434
0.52435
0.524233
0.524074
0.52388
0.523698
0.523511
0.523344
0.523227
0.523132
0.523039
0.522972
0.522932
0.522902
0.522862
0.522816
0.522768
0.52272
0.522673
0.522627
0.522584
0.522544
0.522507
0.522472
0.522441
0.522411
0.522383
0.522356
0.522332
0.522308
0.522285
0.522263
0.522242
0.522221
0.522201
0.522182
0.522163
0.522146
0.522128
0.522112
0.522097
0.522082
0.522072
0.522049
0.538717
0.538582
0.538326
0.537894
0.537509
0.537301
0.536891
0.536263
0.53569
0.535312
0.535019
0.534865
0.534837
0.534749
0.534439
0.534141
0.533721
0.533188
0.532541
0.531904
0.531271
0.53059
0.529922
0.529241
0.528278
0.527252
0.526407
0.525803
0.525274
0.524978
0.524887
0.524878
0.524911
0.524955
0.52493
0.524886
0.524821
0.524749
0.52467
0.524606
0.524564
0.52455
0.524507
0.524416
0.524291
0.524122
0.523946
0.523733
0.523554
0.523398
0.523247
0.523159
0.523077
0.523004
0.522959
0.522927
0.522886
0.522839
0.522789
0.52274
0.522691
0.522645
0.522601
0.52256
0.522523
0.522488
0.522455
0.522425
0.522395
0.522368
0.522343
0.522319
0.522295
0.522272
0.52225
0.522229
0.522208
0.522188
0.522169
0.522151
0.522133
0.522117
0.522101
0.522085
0.522075
0.522052
0.541198
0.541561
0.541421
0.540503
0.539491
0.538762
0.538024
0.537195
0.536511
0.536064
0.53573
0.535568
0.535562
0.535504
0.53527
0.534912
0.534447
0.533875
0.533166
0.532449
0.531717
0.530895
0.530014
0.529131
0.528178
0.527362
0.526673
0.525913
0.525408
0.525124
0.525009
0.525005
0.52505
0.525063
0.525025
0.524981
0.524914
0.524835
0.524753
0.524689
0.524652
0.524637
0.524589
0.524498
0.524366
0.524181
0.523997
0.523797
0.523585
0.523434
0.523286
0.523169
0.523108
0.523043
0.522991
0.522955
0.522911
0.522863
0.522812
0.522762
0.522711
0.522665
0.522619
0.522577
0.522539
0.522502
0.522468
0.522438
0.522408
0.52238
0.522354
0.522328
0.522304
0.522281
0.522258
0.522236
0.522215
0.522194
0.522174
0.522156
0.522137
0.52212
0.522104
0.522088
0.522078
0.522055
0.54675
0.548501
0.549163
0.5468
0.543917
0.541791
0.540151
0.538763
0.537734
0.537076
0.536661
0.536452
0.536435
0.536293
0.536122
0.535823
0.535313
0.534674
0.533907
0.533135
0.532389
0.531563
0.530719
0.529926
0.528904
0.527745
0.526788
0.526202
0.525618
0.525271
0.525136
0.525137
0.525159
0.525154
0.525115
0.525074
0.525011
0.524931
0.52485
0.524783
0.524741
0.52472
0.524672
0.52458
0.524443
0.524274
0.524051
0.523837
0.523654
0.523469
0.523318
0.523202
0.523128
0.523078
0.523026
0.522982
0.522935
0.522887
0.522835
0.522784
0.522733
0.522684
0.522638
0.522595
0.522555
0.522517
0.522484
0.522452
0.522422
0.522393
0.522365
0.522339
0.522314
0.52229
0.522266
0.522244
0.522222
0.5222
0.52218
0.52216
0.522142
0.522125
0.522108
0.522092
0.522081
0.522058
0.561394
0.56783
0.569969
0.563305
0.555065
0.549055
0.545009
0.542035
0.53995
0.538711
0.538023
0.537643
0.537466
0.537278
0.537114
0.536766
0.536203
0.535495
0.534651
0.533788
0.532956
0.532061
0.531043
0.529992
0.52885
0.527905
0.527053
0.52625
0.525711
0.525433
0.525271
0.525259
0.52527
0.525263
0.525241
0.525195
0.52514
0.525056
0.524972
0.524896
0.524852
0.524832
0.524784
0.524666
0.524527
0.524339
0.524145
0.523889
0.523682
0.523531
0.52337
0.523263
0.523148
0.523105
0.523063
0.523015
0.522963
0.522912
0.522859
0.522806
0.522754
0.522705
0.522657
0.522614
0.522572
0.522535
0.5225
0.522466
0.522435
0.522405
0.522377
0.52235
0.522325
0.522299
0.522276
0.522252
0.522229
0.522208
0.522187
0.522167
0.522147
0.522129
0.522112
0.522096
0.522085
0.522061
0.598926
0.617983
0.62468
0.605775
0.583469
0.567451
0.557235
0.549884
0.544772
0.54186
0.540281
0.539343
0.538812
0.538455
0.538222
0.537879
0.537262
0.53648
0.535573
0.534641
0.533756
0.53273
0.531636
0.530681
0.529555
0.528378
0.527306
0.526465
0.525867
0.525549
0.525411
0.525382
0.525382
0.525368
0.525361
0.525315
0.525256
0.525168
0.525079
0.524994
0.524928
0.524886
0.524836
0.524745
0.524603
0.524414
0.5242
0.523974
0.523742
0.523556
0.523426
0.523284
0.523184
0.523118
0.523093
0.523052
0.522995
0.522939
0.522885
0.52283
0.522777
0.522727
0.522678
0.522633
0.522591
0.522552
0.522516
0.522482
0.522449
0.522418
0.522389
0.522361
0.522334
0.522309
0.522284
0.52226
0.522236
0.522214
0.522192
0.522171
0.522152
0.522134
0.522117
0.522099
0.522087
0.522064
0.690294
0.740737
0.755773
0.706199
0.651843
0.612982
0.588371
0.569798
0.556415
0.548899
0.544986
0.542628
0.541147
0.540198
0.539578
0.539034
0.538345
0.537474
0.53648
0.535436
0.534488
0.53345
0.532278
0.531012
0.52966
0.52845
0.527573
0.526812
0.526192
0.525784
0.525569
0.525501
0.525507
0.525508
0.525514
0.525481
0.525413
0.525319
0.525219
0.525136
0.525082
0.525071
0.52502
0.524904
0.524731
0.52451
0.524271
0.524023
0.523822
0.523621
0.523441
0.523322
0.523228
0.523133
0.523116
0.523085
0.523029
0.522969
0.52291
0.522853
0.5228
0.522748
0.522698
0.522653
0.52261
0.52257
0.522533
0.522498
0.522464
0.522432
0.522403
0.522373
0.522345
0.522318
0.522292
0.522267
0.522243
0.52222
0.522198
0.522176
0.522156
0.522138
0.52212
0.522102
0.522092
0.522066
0.887293
0.994941
1.02389
0.911707
0.799729
0.719156
0.665518
0.620289
0.585494
0.565561
0.555677
0.549667
0.545698
0.543127
0.541573
0.540553
0.539681
0.538695
0.537576
0.536401
0.535257
0.533989
0.532703
0.531559
0.530229
0.529075
0.527827
0.526819
0.526196
0.525862
0.525736
0.525643
0.525646
0.525661
0.525661
0.525622
0.525536
0.525435
0.52533
0.525228
0.525137
0.52505
0.524967
0.524838
0.524702
0.524536
0.524369
0.524161
0.523959
0.523753
0.523553
0.523406
0.5233
0.523211
0.523135
0.523117
0.523066
0.522997
0.522934
0.522876
0.52282
0.522768
0.522718
0.522672
0.522627
0.522587
0.522548
0.522512
0.522478
0.522446
0.522416
0.522386
0.522359
0.522332
0.522304
0.522278
0.522253
0.52223
0.522206
0.522184
0.522163
0.522144
0.522125
0.522107
0.522095
0.52207
1.24445
1.42843
1.44481
1.24185
1.06666
0.940345
0.845309
0.742834
0.656407
0.604801
0.580697
0.566041
0.555933
0.549219
0.545097
0.542638
0.541182
0.539971
0.538663
0.537314
0.536124
0.534937
0.533623
0.532201
0.530634
0.529176
0.527999
0.527114
0.526405
0.526054
0.5259
0.525796
0.525795
0.525813
0.525802
0.52576
0.52567
0.525558
0.525435
0.525318
0.525249
0.525266
0.525251
0.525182
0.525
0.524765
0.52464
0.524636
0.524596
0.524301
0.524083
0.523822
0.5236
0.523452
0.52324
0.523174
0.52312
0.523037
0.522962
0.522898
0.522839
0.522787
0.52274
0.52269
0.522643
0.522601
0.522561
0.522525
0.522489
0.522455
0.522423
0.522391
0.522361
0.522332
0.522304
0.522279
0.522253
0.522229
0.522206
0.522184
0.522163
0.522144
0.522126
0.522108
0.522095
0.522071
1.91161
2.09847
1.9597
1.63248
1.41115
1.29387
1.21705
1.02111
0.819914
0.693385
0.637845
0.60408
0.579603
0.562746
0.552473
0.54653
0.543451
0.541611
0.540035
0.538388
0.536892
0.535409
0.534014
0.532652
0.531041
0.529561
0.528552
0.527469
0.526717
0.526349
0.526111
0.526009
0.525995
0.526031
0.526013
0.525947
0.525833
0.52569
0.525552
0.525445
0.525387
0.525332
0.525232
0.525077
0.524934
0.524945
0.525607
0.527046
0.527866
0.527275
0.526677
0.52596
0.525184
0.524473
0.523954
0.523532
0.52332
0.523158
0.523038
0.522947
0.522875
0.522815
0.52276
0.52271
0.522665
0.522622
0.522583
0.522546
0.522511
0.522477
0.522446
0.522416
0.522386
0.522359
0.522331
0.522304
0.522277
0.522251
0.522227
0.522202
0.52218
0.522159
0.522139
0.52212
0.522107
0.52208
7.26572
6.28758
3.83855
2.32829
1.78054
1.62937
1.61825
1.48327
1.16598
0.880729
0.76222
0.69014
0.634072
0.593394
0.568699
0.554448
0.547281
0.543675
0.541529
0.539732
0.538115
0.536495
0.534904
0.533523
0.531932
0.530302
0.528723
0.527541
0.52684
0.526496
0.526363
0.526326
0.526305
0.526273
0.526228
0.526146
0.526041
0.525921
0.525827
0.52575
0.525674
0.525617
0.525641
0.525693
0.525872
0.526748
0.531033
0.538462
0.542991
0.541147
0.539309
0.536492
0.5332
0.530078
0.527527
0.525691
0.524478
0.52379
0.523374
0.523115
0.522957
0.522853
0.522776
0.522723
0.522676
0.522631
0.522591
0.52255
0.522512
0.522472
0.522438
0.522406
0.522373
0.522339
0.522311
0.522284
0.522258
0.522234
0.52221
0.522187
0.522166
0.522146
0.522127
0.522109
0.522097
0.522071
30.025
27.6919
13.3449
5.7256
2.74667
1.97372
1.89593
1.83056
1.6141
1.24137
1.0127
0.87443
0.75476
0.661828
0.605415
0.572254
0.555441
0.547516
0.543612
0.541109
0.539189
0.537468
0.535721
0.533862
0.531915
0.530228
0.528823
0.527763
0.527063
0.526862
0.526916
0.527013
0.52696
0.526952
0.526922
0.526844
0.52676
0.526666
0.526606
0.526575
0.52662
0.526839
0.52724
0.527818
0.528972
0.533534
0.554091
0.584914
0.604324
0.598461
0.591998
0.581377
0.568867
0.556368
0.545384
0.537117
0.531345
0.527691
0.525507
0.524218
0.523486
0.523114
0.522908
0.52279
0.522716
0.52266
0.522615
0.522579
0.522546
0.522519
0.522486
0.522449
0.52242
0.522394
0.522362
0.522331
0.5223
0.52227
0.522244
0.522218
0.522194
0.522171
0.522151
0.522131
0.522117
0.52209
84.1954
235.474
132.237
27.002
7.45906
2.91581
2.14156
2.02438
1.91362
1.70137
1.4593
1.24112
1.00565
0.807444
0.686268
0.611942
0.573183
0.555175
0.547255
0.5432
0.540417
0.53837
0.5367
0.535215
0.5334
0.531642
0.529996
0.528412
0.527653
0.527783
0.528517
0.529068
0.528941
0.528891
0.528864
0.528805
0.528807
0.528925
0.529212
0.529713
0.530531
0.531752
0.533352
0.535602
0.540782
0.562742
0.645153
0.741818
0.805064
0.789246
0.770932
0.738879
0.699835
0.658668
0.620107
0.588703
0.565372
0.548997
0.538295
0.531432
0.527262
0.525031
0.523856
0.523225
0.522897
0.52273
0.522632
0.522567
0.522517
0.522474
0.522437
0.522404
0.52237
0.522336
0.522309
0.522283
0.522259
0.522238
0.522214
0.522192
0.52217
0.522149
0.522129
0.52211
0.522097
0.52207
53.9308
135.327
235.244
184.716
53.4156
8.81708
2.92789
2.17617
2.08595
2.04794
1.92528
1.75978
1.46889
1.09532
0.857737
0.699446
0.612824
0.57187
0.554227
0.54673
0.542562
0.539623
0.537281
0.535282
0.533162
0.531211
0.529789
0.528881
0.528783
0.530313
0.533456
0.535209
0.535102
0.535042
0.534999
0.535107
0.535537
0.536407
0.53777
0.539817
0.542787
0.54707
0.553002
0.562314
0.586556
0.689782
0.936582
1.15047
1.30877
1.28405
1.24878
1.17657
1.084
0.97895
0.872297
0.778323
0.701762
0.643068
0.600864
0.570933
0.550635
0.538351
0.531116
0.526959
0.524756
0.523645
0.523094
0.522832
0.522696
0.522614
0.52256
0.522518
0.522481
0.522444
0.52241
0.522376
0.522343
0.522311
0.522282
0.522254
0.522231
0.52221
0.52219
0.52217
0.522157
0.522128
24.2843
27.5069
24.145
40.8803
144.668
74.7805
10.9285
2.9966
2.25743
2.31057
2.27133
2.16032
1.98061
1.59542
1.19664
0.884563
0.698853
0.608901
0.569531
0.553177
0.54607
0.542168
0.539183
0.536717
0.534255
0.532175
0.530648
0.530227
0.531643
0.537702
0.547403
0.552561
0.552526
0.552751
0.552901
0.553496
0.555066
0.557903
0.562359
0.568874
0.578928
0.593658
0.613607
0.646774
0.748187
1.16728
1.69994
1.88604
2.16495
2.15394
2.12973
2.03869
1.90855
1.73853
1.52662
1.32008
1.13398
0.973479
0.844796
0.74285
0.664648
0.611507
0.576294
0.553243
0.539266
0.531215
0.526742
0.524471
0.523346
0.5228
0.522549
0.522425
0.52236
0.52232
0.522285
0.522255
0.522226
0.522202
0.522178
0.522156
0.522136
0.522116
0.5221
0.522085
0.522079
0.522069
12.4934
11.1038
11.1629
14.8827
26.9701
79.441
76.982
16.1372
4.05647
2.75118
2.57218
2.46305
2.37757
2.18181
1.78414
1.257
0.879887
0.687249
0.603015
0.567274
0.551894
0.545063
0.541212
0.538401
0.535936
0.534152
0.53351
0.534512
0.540275
0.557603
0.582476
0.595279
0.59568
0.596636
0.597394
0.599325
0.603858
0.611756
0.62438
0.644815
0.675841
0.722011
0.789987
0.923159
1.33431
2.51202
3.40213
3.11369
3.46222
3.5097
3.43132
3.27516
3.10482
2.92731
2.70942
2.42869
2.14047
1.85045
1.57004
1.31985
1.09948
0.928208
0.799009
0.701587
0.633735
0.588812
0.559841
0.542916
0.533315
0.527968
0.525318
0.524075
0.523448
0.523095
0.52288
0.522718
0.522593
0.522491
0.522402
0.522339
0.522303
0.522284
0.522273
0.522266
0.522265
0.522249
6.55406
5.48682
5.14761
6.34043
9.42273
17.387
50.6907
140.063
14.0877
8.06031
3.94251
2.88611
2.75044
2.69446
2.43163
1.92754
1.24692
0.848825
0.671946
0.598788
0.566667
0.551928
0.544813
0.540947
0.538499
0.537484
0.538662
0.544408
0.561723
0.604372
0.658886
0.685814
0.687831
0.690661
0.693573
0.699791
0.711999
0.731405
0.763633
0.815555
0.895398
1.01823
1.19204
1.49107
2.35085
4.25805
4.98098
4.25179
4.68774
5.01194
5.03416
4.76925
4.40565
4.06668
3.8135
3.63772
3.4739
3.29486
3.05156
2.69216
2.29702
1.9343
1.61385
1.33118
1.09768
0.916849
0.779539
0.685213
0.62099
0.577661
0.552268
0.538611
0.531485
0.528088
0.526596
0.525988
0.525754
0.525669
0.525622
0.525562
0.525492
0.525424
0.525357
0.525294
0.52523
0.525144
3.21129
2.37542
2.01163
2.46902
3.58222
5.88095
13.9568
55.9878
23.379
12.3832
12.134
7.57725
3.97931
3.27935
2.99369
2.66582
1.94156
1.17516
0.808954
0.6586
0.596781
0.568377
0.554337
0.547646
0.54504
0.545875
0.551947
0.568595
0.61029
0.700042
0.801998
0.851612
0.858755
0.867573
0.877974
0.896462
0.927856
0.97701
1.04781
1.16164
1.33943
1.56718
1.80692
2.15486
3.28815
6.34265
7.63528
7.13445
7.44164
7.33028
6.19726
5.33073
4.66226
4.29075
4.18756
4.31281
4.40936
4.43025
4.40437
4.3334
4.1812
3.95691
3.63822
3.18556
2.70739
2.25594
1.84087
1.52349
1.25045
1.00546
0.824314
0.70383
0.624663
0.576265
0.548683
0.534778
0.52953
0.52824
0.527779
0.527587
0.527541
0.527474
0.527373
0.527245
0.527089
0.526891
1.66368
1.26486
1.12015
1.17437
1.44544
1.8087
2.36455
4.46111
9.48663
13.0911
14.794
18.4379
15.7593
5.96588
3.77145
3.25715
2.81721
1.80269
1.08873
0.776559
0.651473
0.599663
0.575125
0.563331
0.559926
0.564575
0.582081
0.621485
0.708933
0.873541
1.03866
1.12177
1.14589
1.17295
1.20705
1.26001
1.34097
1.44063
1.55586
1.71311
1.91501
2.0248
2.25801
5.63695
7.54179
7.48583
7.45661
5.07361
3.25695
2.57447
2.46376
2.58956
2.8387
3.2066
3.61375
4.02184
4.37899
4.66389
4.91796
5.18411
5.42552
5.58566
5.62915
5.57805
5.47472
5.32286
5.04721
4.6825
4.24899
3.61268
2.93995
2.34766
1.8404
1.45862
1.13354
0.855434
0.654542
0.565422
0.559808
0.557645
0.556586
0.555881
0.55538
0.555071
0.554831
0.554891
1.05652
0.902603
0.854286
0.874049
0.964327
1.13688
1.41289
2.05921
3.52071
6.17427
12.8578
23.9256
28.8297
21.2037
7.15857
3.99293
3.47546
2.80687
1.63164
1.01636
0.758016
0.654369
0.610815
0.592227
0.588782
0.601472
0.641053
0.722278
0.883992
1.14966
1.38904
1.52633
1.59871
1.67641
1.76331
1.87178
1.99808
2.07534
2.13902
2.19732
2.32246
4.13271
5.80567
7.64593
7.7362
6.14507
5.92628
3.7414
1.75439
1.2681
1.20502
1.2558
1.37885
1.5672
1.83791
2.21656
2.74955
3.43905
4.15016
4.80364
5.34606
5.75855
6.08287
6.42949
6.84238
7.33964
7.90606
8.48326
9.08609
9.61275
10.0846
10.5492
10.8377
11.0199
11.2168
11.0122
10.3388
1.44567
0.831236
0.794299
0.776533
0.761714
0.748485
0.736279
0.724187
0.71433
0.805227
0.739044
0.716499
0.728366
0.775914
0.869956
1.01955
1.30126
1.8382
2.71776
4.65281
13.0893
30.7496
50.3208
12.7851
4.69339
3.95266
3.71991
2.57378
1.48266
0.972459
0.760541
0.67527
0.642491
0.63926
0.66763
0.747118
0.896049
1.16689
1.55556
1.86828
2.05623
2.19293
2.3331
2.46825
2.61013
2.76964
2.79164
2.7226
4.56068
4.64102
5.15547
6.21994