/*--------------------------------*- C++ -*----------------------------------*\
| =========                 |                                                 |
| \\      /  F ield         | OpenFOAM: The Open Source CFD Toolbox           |
|  \\    /   O peration     | Version:  v1912                                 |
|   \\  /    A nd           | Website:  www.openfoam.com                      |
|    \\/     M anipulation  |                                                 |
\*---------------------------------------------------------------------------*/
FoamFile
{
    version     2.0;
    format      ascii;
    class       volVectorField;
    location    "100";
    object      U;
}
// * * * * * * * * * * * * * * * * * * * * * * * * * * * * * * * * * * * * * //

dimensions      [0 1 -1 0 0 0 0];


internalField   nonuniform List<vector> 
14268
(
(-1.03772 -0.10426 0)
(-1.01919 -0.10244 0)
(-0.99998 -0.10053 0)
(-0.979931 -0.0985311 0)
(-0.959062 -0.0964652 0)
(-0.937654 -0.0943479 0)
(-0.91529 -0.0921235 0)
(-0.89287 -0.0898678 0)
(-0.871094 -0.0876581 0)
(-0.850146 -0.0855281 0)
(-0.829646 -0.0834707 0)
(-0.809138 -0.0814345 0)
(-0.788242 -0.0793674 0)
(-0.766672 -0.0772237 0)
(-0.744186 -0.0750019 0)
(-0.720195 -0.0726224 0)
(-0.693724 -0.0700393 0)
(-0.666575 -0.0673456 0)
(-0.638802 -0.0645812 0)
(-0.610348 -0.0617858 0)
(-0.581436 -0.0589011 0)
(-0.552393 -0.0559968 0)
(-0.52419 -0.053153 0)
(-0.49779 -0.0504101 0)
(-0.473683 -0.0479628 0)
(-0.45113 -0.0455544 0)
(-0.427681 -0.0432495 0)
(-0.407931 -0.0410735 0)
(-0.392287 -0.0394829 0)
(-0.37273 -0.0375618 0)
(-0.350663 -0.0354916 0)
(-0.325042 -0.032885 0)
(-0.301576 -0.0303349 0)
(-0.281547 -0.0282484 0)
(-0.263107 -0.0265531 0)
(-0.239809 -0.0245168 0)
(-0.212689 -0.0218646 0)
(-0.191209 -0.019485 0)
(-0.194544 -0.0190988 0)
(-0.205598 -0.0199017 0)
(-0.209459 -0.0207128 0)
(-0.197731 -0.0208676 0)
(-0.148821 -0.0161388 0)
(-0.114992 -0.0104834 0)
(-0.190245 -0.0136321 0)
(-0.53743 -0.0435805 0)
(-0.972861 -0.0862871 0)
(-1.3858 -0.126743 0)
(-1.92143 -0.17601 0)
(-2.72758 -0.260356 0)
(-3.29048 -0.327048 0)
(-3.7003 -0.373425 0)
(-4.02228 -0.406777 0)
(-4.24853 -0.430973 0)
(-4.36691 -0.44565 0)
(-4.41485 -0.451665 0)
(-4.24743 -0.443791 0)
(-3.91624 -0.410899 0)
(-3.64005 -0.381895 0)
(-3.33087 -0.351825 0)
(-3.03257 -0.319732 0)
(-2.83302 -0.296693 0)
(-2.76668 -0.283757 0)
(-2.82679 -0.289521 0)
(-2.82163 -0.292629 0)
(-2.70756 -0.279808 0)
(-2.59044 -0.267463 0)
(-2.44947 -0.251476 0)
(-2.28987 -0.234589 0)
(-2.03175 -0.209367 0)
(-1.8277 -0.185133 0)
(-1.78031 -0.168539 0)
(-2.49808 -0.228811 0)
(-3.63051 -0.352376 0)
(-4.32716 -0.434585 0)
(-4.66247 -0.476436 0)
(-4.69662 -0.496697 0)
(-4.128 -0.445178 0)
(-3.66162 -0.395756 0)
(-3.19988 -0.344037 0)
(-2.58424 -0.283844 0)
(-1.87752 -0.209877 0)
(-1.24571 -0.141408 0)
(-0.763377 -0.0879243 0)
(-0.470078 -0.0505228 0)
(-0.542566 -0.0420163 0)
(-1.23917 -0.0947939 0)
(-2.64469 -0.244594 0)
(-3.56072 -0.346887 0)
(-4.06194 -0.407994 0)
(-4.21871 -0.431605 0)
(-3.57768 -0.37875 0)
(-2.94079 -0.313739 0)
(-2.36326 -0.240916 0)
(-3.24323 -0.31602 0)
(-3.84481 -0.382126 0)
(-3.97123 -0.413005 0)
(-2.99558 -0.326788 0)
(-2.39039 -0.257548 0)
(-2.17627 -0.225915 0)
(-2.32772 -0.235933 0)
(-2.8349 -0.28327 0)
(-3.32978 -0.333602 0)
(-3.74268 -0.375929 0)
(-1.03064 -0.10407 0)
(-1.01218 -0.102283 0)
(-0.993056 -0.100405 0)
(-0.973092 -0.0984722 0)
(-0.952317 -0.0964461 0)
(-0.931008 -0.0943365 0)
(-0.908698 -0.0921326 0)
(-0.886304 -0.0898983 0)
(-0.864536 -0.0876975 0)
(-0.843596 -0.0855692 0)
(-0.823123 -0.0835071 0)
(-0.802665 -0.0814609 0)
(-0.781837 -0.0794076 0)
(-0.76035 -0.0773081 0)
(-0.737965 -0.0751702 0)
(-0.714098 -0.0728614 0)
(-0.687738 -0.0703649 0)
(-0.66067 -0.0676742 0)
(-0.632984 -0.0649139 0)
(-0.604622 -0.0621278 0)
(-0.575807 -0.0592185 0)
(-0.546852 -0.0563013 0)
(-0.518723 -0.0534377 0)
(-0.492395 -0.0506622 0)
(-0.468394 -0.0482616 0)
(-0.446018 -0.0459482 0)
(-0.422695 -0.0437013 0)
(-0.403042 -0.0414167 0)
(-0.387586 -0.0400007 0)
(-0.368222 -0.0382134 0)
(-0.346364 -0.0362265 0)
(-0.320801 -0.0337183 0)
(-0.297401 -0.0313726 0)
(-0.277646 -0.0292829 0)
(-0.259602 -0.0274151 0)
(-0.236832 -0.0252811 0)
(-0.210204 -0.0224112 0)
(-0.188766 -0.0192841 0)
(-0.1908 -0.0188158 0)
(-0.201671 -0.020157 0)
(-0.205098 -0.0211514 0)
(-0.193658 -0.0206035 0)
(-0.145097 -0.0169653 0)
(-0.112536 -0.0103272 0)
(-0.192123 -0.00632623 0)
(-0.541153 -0.0322533 0)
(-0.977928 -0.0724294 0)
(-1.39128 -0.109216 0)
(-1.92649 -0.153569 0)
(-2.73 -0.231117 0)
(-3.28916 -0.290155 0)
(-3.69565 -0.336744 0)
(-4.01313 -0.375175 0)
(-4.2342 -0.403525 0)
(-4.34869 -0.422648 0)
(-4.39457 -0.432078 0)
(-4.22284 -0.426522 0)
(-3.89474 -0.396868 0)
(-3.61955 -0.369303 0)
(-3.31086 -0.340276 0)
(-3.01347 -0.308225 0)
(-2.81535 -0.283102 0)
(-2.7499 -0.268376 0)
(-2.80953 -0.270151 0)
(-2.80221 -0.277215 0)
(-2.69102 -0.269014 0)
(-2.58041 -0.263646 0)
(-2.4441 -0.25215 0)
(-2.28743 -0.23717 0)
(-2.02944 -0.217305 0)
(-1.82689 -0.192328 0)
(-1.78265 -0.156571 0)
(-2.50444 -0.196294 0)
(-3.63108 -0.302414 0)
(-4.31538 -0.388433 0)
(-4.63477 -0.433929 0)
(-4.64684 -0.468065 0)
(-4.07303 -0.423026 0)
(-3.61917 -0.378865 0)
(-3.17097 -0.334973 0)
(-2.56128 -0.291898 0)
(-1.86316 -0.224369 0)
(-1.2401 -0.154452 0)
(-0.762999 -0.0974298 0)
(-0.476806 -0.0527557 0)
(-0.549287 -0.0318002 0)
(-1.24785 -0.0724335 0)
(-2.6532 -0.189994 0)
(-3.56533 -0.298864 0)
(-4.06304 -0.381522 0)
(-4.21609 -0.425921 0)
(-3.56954 -0.392959 0)
(-2.92911 -0.325603 0)
(-2.35589 -0.226231 0)
(-3.25117 -0.275167 0)
(-3.84587 -0.344838 0)
(-3.96667 -0.417471 0)
(-2.98793 -0.34525 0)
(-2.38271 -0.25676 0)
(-2.17008 -0.208227 0)
(-2.32439 -0.201451 0)
(-2.82902 -0.248718 0)
(-3.32377 -0.294392 0)
(-3.73535 -0.337749 0)
(-1.03019 -0.104958 0)
(-1.01174 -0.103236 0)
(-0.992615 -0.101379 0)
(-0.972653 -0.0994588 0)
(-0.951874 -0.0974731 0)
(-0.93056 -0.0954102 0)
(-0.908251 -0.0932319 0)
(-0.885866 -0.0909755 0)
(-0.864116 -0.0887138 0)
(-0.843195 -0.086521 0)
(-0.82273 -0.0844445 0)
(-0.802267 -0.0824259 0)
(-0.781422 -0.0804141 0)
(-0.759911 -0.0783381 0)
(-0.737487 -0.0762483 0)
(-0.713565 -0.0739746 0)
(-0.687137 -0.0715975 0)
(-0.660023 -0.0689426 0)
(-0.632293 -0.0662032 0)
(-0.603889 -0.0635058 0)
(-0.575056 -0.0606064 0)
(-0.546101 -0.057689 0)
(-0.518002 -0.0547813 0)
(-0.491744 -0.0518129 0)
(-0.467817 -0.0493446 0)
(-0.445558 -0.0467527 0)
(-0.422319 -0.0445928 0)
(-0.402848 -0.041937 0)
(-0.387491 -0.0404865 0)
(-0.368111 -0.0387592 0)
(-0.34615 -0.0370307 0)
(-0.32055 -0.0344484 0)
(-0.297305 -0.0317202 0)
(-0.277896 -0.0294681 0)
(-0.260117 -0.0278991 0)
(-0.237387 -0.0263341 0)
(-0.211039 -0.0236379 0)
(-0.190948 -0.0202799 0)
(-0.195432 -0.0186202 0)
(-0.206059 -0.0193226 0)
(-0.209453 -0.0211142 0)
(-0.19746 -0.0231987 0)
(-0.14774 -0.0197216 0)
(-0.113842 -0.00815164 0)
(-0.195341 0.00318847 0)
(-0.546214 -0.0152619 0)
(-0.984361 -0.0531868 0)
(-1.3976 -0.0891627 0)
(-1.9323 -0.127003 0)
(-2.72806 -0.20443 0)
(-3.27779 -0.282746 0)
(-3.6802 -0.337861 0)
(-3.99694 -0.378704 0)
(-4.21709 -0.410592 0)
(-4.32991 -0.435588 0)
(-4.37392 -0.448957 0)
(-4.19626 -0.455603 0)
(-3.87349 -0.426312 0)
(-3.60042 -0.396647 0)
(-3.29169 -0.369556 0)
(-2.99497 -0.333745 0)
(-2.79804 -0.303395 0)
(-2.73449 -0.280179 0)
(-2.79227 -0.279267 0)
(-2.78067 -0.292059 0)
(-2.67408 -0.281298 0)
(-2.57081 -0.275172 0)
(-2.44008 -0.262144 0)
(-2.28703 -0.246379 0)
(-2.02922 -0.227899 0)
(-1.828 -0.196397 0)
(-1.78539 -0.141027 0)
(-2.50881 -0.162273 0)
(-3.62485 -0.276992 0)
(-4.29389 -0.382262 0)
(-4.59423 -0.443444 0)
(-4.57736 -0.504333 0)
(-3.99694 -0.464291 0)
(-3.56205 -0.416087 0)
(-3.13103 -0.367908 0)
(-2.52675 -0.328061 0)
(-1.84032 -0.258036 0)
(-1.22904 -0.182331 0)
(-0.756594 -0.117191 0)
(-0.47597 -0.0587367 0)
(-0.558813 -0.0114536 0)
(-1.25719 -0.0189609 0)
(-2.65962 -0.155947 0)
(-3.57095 -0.278302 0)
(-4.06791 -0.383176 0)
(-4.21845 -0.443146 0)
(-3.56384 -0.430085 0)
(-2.91819 -0.361245 0)
(-2.34755 -0.232577 0)
(-3.25829 -0.256807 0)
(-3.84984 -0.340876 0)
(-3.96813 -0.444598 0)
(-2.98265 -0.393834 0)
(-2.37825 -0.291219 0)
(-2.16898 -0.223669 0)
(-2.3284 -0.20538 0)
(-2.83366 -0.24596 0)
(-3.32961 -0.29512 0)
(-3.74134 -0.339684 0)
(-1.02992 -0.105516 0)
(-1.01146 -0.103819 0)
(-0.992317 -0.101987 0)
(-0.972338 -0.100127 0)
(-0.95155 -0.0981732 0)
(-0.930228 -0.0961081 0)
(-0.907909 -0.0939461 0)
(-0.885513 -0.0917075 0)
(-0.86375 -0.0894497 0)
(-0.842808 -0.0872498 0)
(-0.822317 -0.0851615 0)
(-0.801826 -0.0831254 0)
(-0.780949 -0.0811182 0)
(-0.759402 -0.0790765 0)
(-0.73694 -0.0770569 0)
(-0.712981 -0.0748423 0)
(-0.686526 -0.0725435 0)
(-0.659397 -0.0698856 0)
(-0.631652 -0.0671443 0)
(-0.603236 -0.0644517 0)
(-0.574396 -0.0615187 0)
(-0.54543 -0.0585808 0)
(-0.51731 -0.0556378 0)
(-0.491016 -0.0526142 0)
(-0.467031 -0.0501648 0)
(-0.444703 -0.0476181 0)
(-0.421379 -0.0454959 0)
(-0.401823 -0.0426823 0)
(-0.38633 -0.0413606 0)
(-0.366848 -0.0397557 0)
(-0.344808 -0.0381016 0)
(-0.319139 -0.0355714 0)
(-0.295806 -0.0329594 0)
(-0.276363 -0.0306819 0)
(-0.258583 -0.0289432 0)
(-0.235788 -0.0272522 0)
(-0.209589 -0.0242436 0)
(-0.190583 -0.0201048 0)
(-0.197691 -0.0188577 0)
(-0.208562 -0.0202108 0)
(-0.21321 -0.0224173 0)
(-0.201335 -0.0237065 0)
(-0.151557 -0.0212938 0)
(-0.11598 -0.00846524 0)
(-0.199502 0.0124336 0)
(-0.551264 0.000725776 0)
(-0.990583 -0.0371084 0)
(-1.40298 -0.0678245 0)
(-1.93264 -0.0966527 0)
(-2.72629 -0.176736 0)
(-3.28359 -0.251018 0)
(-3.69102 -0.310278 0)
(-3.99975 -0.35458 0)
(-4.20564 -0.389105 0)
(-4.30766 -0.416151 0)
(-4.34457 -0.432019 0)
(-4.15454 -0.445848 0)
(-3.84283 -0.420098 0)
(-3.57276 -0.390989 0)
(-3.26494 -0.364823 0)
(-2.96982 -0.328085 0)
(-2.77491 -0.294035 0)
(-2.71301 -0.265847 0)
(-2.76892 -0.264186 0)
(-2.75039 -0.281309 0)
(-2.65104 -0.274889 0)
(-2.55817 -0.274514 0)
(-2.43429 -0.265587 0)
(-2.28527 -0.251643 0)
(-2.0271 -0.23776 0)
(-1.82709 -0.203254 0)
(-1.78638 -0.123395 0)
(-2.51225 -0.118745 0)
(-3.61581 -0.232562 0)
(-4.26411 -0.346987 0)
(-4.54004 -0.414045 0)
(-4.47819 -0.486029 0)
(-3.8923 -0.455805 0)
(-3.48169 -0.410923 0)
(-3.07166 -0.369848 0)
(-2.47439 -0.343428 0)
(-1.80562 -0.276653 0)
(-1.21354 -0.1981 0)
(-0.748866 -0.128089 0)
(-0.472644 -0.0599658 0)
(-0.565097 0.00401754 0)
(-1.26562 0.00829344 0)
(-2.66754 -0.0948491 0)
(-3.57994 -0.237749 0)
(-4.07574 -0.360787 0)
(-4.22194 -0.442823 0)
(-3.55807 -0.450881 0)
(-2.9071 -0.37628 0)
(-2.34003 -0.218443 0)
(-3.26793 -0.218417 0)
(-3.85551 -0.305816 0)
(-3.96691 -0.45514 0)
(-2.97557 -0.416626 0)
(-2.37282 -0.293026 0)
(-2.16568 -0.207572 0)
(-2.33156 -0.177071 0)
(-2.83417 -0.217425 0)
(-3.3324 -0.258151 0)
(-3.7437 -0.306261 0)
(-1.02974 -0.106346 0)
(-1.01126 -0.104709 0)
(-0.992114 -0.10289 0)
(-0.972127 -0.101035 0)
(-0.951333 -0.0991169 0)
(-0.930003 -0.0970946 0)
(-0.907679 -0.0949557 0)
(-0.885286 -0.0926927 0)
(-0.863529 -0.0903731 0)
(-0.842589 -0.0881142 0)
(-0.82209 -0.0860175 0)
(-0.801584 -0.0840101 0)
(-0.780689 -0.0820427 0)
(-0.759124 -0.0800269 0)
(-0.736639 -0.0780518 0)
(-0.712657 -0.0758753 0)
(-0.686177 -0.073686 0)
(-0.659036 -0.0710578 0)
(-0.63128 -0.06834 0)
(-0.602848 -0.065725 0)
(-0.574002 -0.0628016 0)
(-0.545033 -0.0598613 0)
(-0.516912 -0.0568704 0)
(-0.490623 -0.0536685 0)
(-0.466619 -0.0511484 0)
(-0.444286 -0.0483504 0)
(-0.420912 -0.0462935 0)
(-0.401334 -0.0431416 0)
(-0.38576 -0.0418006 0)
(-0.366215 -0.0402458 0)
(-0.344127 -0.0388276 0)
(-0.318437 -0.0362661 0)
(-0.295039 -0.0333211 0)
(-0.275427 -0.0308248 0)
(-0.257444 -0.0293166 0)
(-0.234446 -0.0281321 0)
(-0.20812 -0.0252056 0)
(-0.189433 -0.0206651 0)
(-0.197785 -0.0180722 0)
(-0.209472 -0.0189861 0)
(-0.215043 -0.0220272 0)
(-0.203947 -0.0263083 0)
(-0.155084 -0.0243963 0)
(-0.119197 -0.00638902 0)
(-0.204643 0.0193177 0)
(-0.556339 0.0130769 0)
(-0.996397 -0.0178323 0)
(-1.40672 -0.0496172 0)
(-1.9309 -0.0737466 0)
(-2.72253 -0.150454 0)
(-3.2808 -0.237744 0)
(-3.68431 -0.303828 0)
(-3.98605 -0.352509 0)
(-4.18239 -0.391231 0)
(-4.27754 -0.423873 0)
(-4.31002 -0.445333 0)
(-4.11151 -0.465262 0)
(-3.80449 -0.439894 0)
(-3.53625 -0.410528 0)
(-3.22912 -0.38625 0)
(-2.93488 -0.34635 0)
(-2.74163 -0.307375 0)
(-2.6823 -0.274485 0)
(-2.73454 -0.267696 0)
(-2.70512 -0.287511 0)
(-2.62013 -0.28021 0)
(-2.54048 -0.280457 0)
(-2.42656 -0.27215 0)
(-2.2818 -0.258529 0)
(-2.02272 -0.246727 0)
(-1.82459 -0.20807 0)
(-1.78648 -0.111401 0)
(-2.51479 -0.0892844 0)
(-3.59957 -0.199994 0)
(-4.21836 -0.331492 0)
(-4.46656 -0.413487 0)
(-4.34464 -0.505365 0)
(-3.7611 -0.475566 0)
(-3.37579 -0.427752 0)
(-2.98807 -0.387615 0)
(-2.40126 -0.368659 0)
(-1.75502 -0.302001 0)
(-1.18851 -0.221046 0)
(-0.737687 -0.145038 0)
(-0.46757 -0.064604 0)
(-0.569815 0.021961 0)
(-1.272 0.0544576 0)
(-2.67455 -0.0601345 0)
(-3.58837 -0.209909 0)
(-4.08199 -0.359724 0)
(-4.22432 -0.456526 0)
(-3.55057 -0.483395 0)
(-2.89343 -0.408797 0)
(-2.33052 -0.221313 0)
(-3.27561 -0.195615 0)
(-3.85732 -0.298549 0)
(-3.96101 -0.47997 0)
(-2.96281 -0.461859 0)
(-2.36515 -0.324362 0)
(-2.15985 -0.219698 0)
(-2.33131 -0.17199 0)
(-2.83529 -0.205049 0)
(-3.33482 -0.253299 0)
(-3.74735 -0.304694 0)
(-1.02961 -0.107011 0)
(-1.01112 -0.105405 0)
(-0.991964 -0.103618 0)
(-0.971963 -0.101833 0)
(-0.951162 -0.0999519 0)
(-0.929829 -0.0979306 0)
(-0.907505 -0.0958103 0)
(-0.885114 -0.0935687 0)
(-0.863362 -0.0912542 0)
(-0.842426 -0.0889843 0)
(-0.821926 -0.0868716 0)
(-0.801417 -0.0848467 0)
(-0.780514 -0.0828859 0)
(-0.758936 -0.0809056 0)
(-0.736432 -0.0790055 0)
(-0.712428 -0.076894 0)
(-0.685928 -0.0747949 0)
(-0.658779 -0.0721712 0)
(-0.631013 -0.0694572 0)
(-0.602572 -0.0668579 0)
(-0.573725 -0.0639019 0)
(-0.544757 -0.0609473 0)
(-0.51664 -0.0579221 0)
(-0.490355 -0.0546578 0)
(-0.466336 -0.0521531 0)
(-0.44398 -0.0493699 0)
(-0.42058 -0.0473575 0)
(-0.401007 -0.0439995 0)
(-0.385377 -0.0427468 0)
(-0.365782 -0.0413204 0)
(-0.343686 -0.0399916 0)
(-0.318024 -0.0374536 0)
(-0.294579 -0.0345811 0)
(-0.274789 -0.0320403 0)
(-0.256631 -0.0303607 0)
(-0.233508 -0.0290618 0)
(-0.207069 -0.0258026 0)
(-0.188412 -0.0203246 0)
(-0.197213 -0.0179681 0)
(-0.209247 -0.0195048 0)
(-0.215234 -0.0229736 0)
(-0.206104 -0.0264145 0)
(-0.157977 -0.0256253 0)
(-0.121603 -0.00674627 0)
(-0.206403 0.0317647 0)
(-0.56072 0.0326349 0)
(-1.00169 -0.00307977 0)
(-1.40929 -0.0288952 0)
(-1.92801 -0.0462756 0)
(-2.71623 -0.120889 0)
(-3.27199 -0.212911 0)
(-3.66874 -0.282879 0)
(-3.96116 -0.33294 0)
(-4.14963 -0.373552 0)
(-4.23957 -0.407885 0)
(-4.26792 -0.431277 0)
(-4.05925 -0.461045 0)
(-3.75947 -0.437751 0)
(-3.49491 -0.407532 0)
(-3.18765 -0.384923 0)
(-2.89265 -0.343398 0)
(-2.70075 -0.300296 0)
(-2.63984 -0.260301 0)
(-2.70027 -0.256403 0)
(-2.64157 -0.279475 0)
(-2.58235 -0.275499 0)
(-2.51677 -0.280426 0)
(-2.41598 -0.276243 0)
(-2.27698 -0.26461 0)
(-2.01659 -0.256079 0)
(-1.82048 -0.212917 0)
(-1.78582 -0.0938258 0)
(-2.5176 -0.053163 0)
(-3.57571 -0.161769 0)
(-4.16056 -0.30177 0)
(-4.38267 -0.392489 0)
(-4.20348 -0.495039 0)
(-3.63896 -0.474488 0)
(-3.27801 -0.426707 0)
(-2.91173 -0.391686 0)
(-2.32788 -0.381905 0)
(-1.69237 -0.317622 0)
(-1.15204 -0.235064 0)
(-0.724143 -0.155439 0)
(-0.460645 -0.0653404 0)
(-0.572084 0.03711 0)
(-1.27712 0.0996965 0)
(-2.68215 -0.00981731 0)
(-3.59783 -0.174115 0)
(-4.08966 -0.341 0)
(-4.22602 -0.460248 0)
(-3.5419 -0.507673 0)
(-2.87979 -0.426363 0)
(-2.32171 -0.208707 0)
(-3.28368 -0.16066 0)
(-3.85675 -0.270403 0)
(-3.94706 -0.488981 0)
(-2.94413 -0.484981 0)
(-2.35992 -0.328175 0)
(-2.1576 -0.20665 0)
(-2.33346 -0.15328 0)
(-2.83713 -0.183994 0)
(-3.34064 -0.225787 0)
(-3.75521 -0.278842 0)
(-1.02948 -0.107754 0)
(-1.01098 -0.106206 0)
(-0.991813 -0.104426 0)
(-0.971806 -0.102634 0)
(-0.950999 -0.100786 0)
(-0.929658 -0.098808 0)
(-0.907334 -0.0967075 0)
(-0.884953 -0.0944398 0)
(-0.863217 -0.0920631 0)
(-0.84229 -0.0897405 0)
(-0.821792 -0.0876266 0)
(-0.801278 -0.0856353 0)
(-0.780366 -0.0837174 0)
(-0.758779 -0.0817667 0)
(-0.736261 -0.0799107 0)
(-0.712239 -0.0778325 0)
(-0.685717 -0.0758304 0)
(-0.658558 -0.0732281 0)
(-0.63078 -0.0705325 0)
(-0.602322 -0.0680034 0)
(-0.573473 -0.0650595 0)
(-0.544507 -0.0621003 0)
(-0.5164 -0.0590295 0)
(-0.490137 -0.0555944 0)
(-0.466116 -0.0530296 0)
(-0.443767 -0.050033 0)
(-0.420349 -0.0480919 0)
(-0.400804 -0.0444613 0)
(-0.38514 -0.0432424 0)
(-0.365514 -0.0418562 0)
(-0.3434 -0.0407609 0)
(-0.317781 -0.0382333 0)
(-0.294364 -0.0350878 0)
(-0.274474 -0.0323579 0)
(-0.256154 -0.0309056 0)
(-0.232906 -0.0300992 0)
(-0.206351 -0.0268757 0)
(-0.187458 -0.0208703 0)
(-0.196464 -0.017029 0)
(-0.208765 -0.0181141 0)
(-0.214734 -0.0221499 0)
(-0.206778 -0.0288885 0)
(-0.159708 -0.0287859 0)
(-0.124653 -0.00477616 0)
(-0.209841 0.0364055 0)
(-0.565282 0.0438275 0)
(-1.00611 0.0168441 0)
(-1.41094 -0.0101335 0)
(-1.92416 -0.0199974 0)
(-2.70647 -0.0934624 0)
(-3.2546 -0.192511 0)
(-3.64168 -0.269374 0)
(-3.9252 -0.324456 0)
(-4.10677 -0.370094 0)
(-4.19172 -0.409833 0)
(-4.21574 -0.439579 0)
(-4.00099 -0.474271 0)
(-3.70745 -0.451425 0)
(-3.44577 -0.422325 0)
(-3.13931 -0.400664 0)
(-2.84246 -0.355857 0)
(-2.64558 -0.308574 0)
(-2.57356 -0.262642 0)
(-2.6527 -0.255501 0)
(-2.57806 -0.278569 0)
(-2.53704 -0.274994 0)
(-2.4862 -0.28198 0)
(-2.40127 -0.280312 0)
(-2.26986 -0.270809 0)
(-2.0086 -0.264888 0)
(-1.81488 -0.217863 0)
(-1.78333 -0.0796547 0)
(-2.5195 -0.0205505 0)
(-3.54329 -0.127488 0)
(-4.09145 -0.284075 0)
(-4.29223 -0.387038 0)
(-4.06378 -0.505268 0)
(-3.5258 -0.483539 0)
(-3.18806 -0.436182 0)
(-2.8428 -0.405386 0)
(-2.25332 -0.403477 0)
(-1.62251 -0.338116 0)
(-1.10324 -0.253527 0)
(-0.707294 -0.169745 0)
(-0.453015 -0.0680603 0)
(-0.571936 0.0626374 0)
(-1.28452 0.121367 0)
(-2.68958 0.0381438 0)
(-3.6067 -0.145335 0)
(-4.09456 -0.33688 0)
(-4.22411 -0.472113 0)
(-3.53049 -0.538506 0)
(-2.86421 -0.456021 0)
(-2.31257 -0.20723 0)
(-3.28838 -0.132589 0)
(-3.84837 -0.259195 0)
(-3.91595 -0.515647 0)
(-2.91315 -0.525246 0)
(-2.35065 -0.355845 0)
(-2.15274 -0.214761 0)
(-2.33673 -0.142474 0)
(-2.84043 -0.1721 0)
(-3.34526 -0.213393 0)
(-3.75749 -0.274149 0)
(-1.02934 -0.108515 0)
(-1.01083 -0.106997 0)
(-0.991658 -0.105254 0)
(-0.971634 -0.103544 0)
(-0.950822 -0.101732 0)
(-0.929476 -0.0997512 0)
(-0.907153 -0.0976731 0)
(-0.884778 -0.0954292 0)
(-0.863049 -0.0930621 0)
(-0.84213 -0.090726 0)
(-0.821635 -0.0885921 0)
(-0.801123 -0.0865786 0)
(-0.780208 -0.0846668 0)
(-0.758611 -0.0827465 0)
(-0.736075 -0.0809653 0)
(-0.71203 -0.0789494 0)
(-0.685483 -0.0770566 0)
(-0.658315 -0.0744751 0)
(-0.630526 -0.0717902 0)
(-0.60206 -0.0692846 0)
(-0.573215 -0.0663015 0)
(-0.544256 -0.063322 0)
(-0.516161 -0.060216 0)
(-0.48991 -0.0567092 0)
(-0.465883 -0.0541515 0)
(-0.443525 -0.0511262 0)
(-0.420097 -0.0492306 0)
(-0.400592 -0.0453502 0)
(-0.384896 -0.0441941 0)
(-0.365228 -0.0429667 0)
(-0.343111 -0.0419747 0)
(-0.317546 -0.0394378 0)
(-0.294149 -0.0363054 0)
(-0.27418 -0.0335484 0)
(-0.255776 -0.0319355 0)
(-0.232512 -0.0310184 0)
(-0.205935 -0.0275094 0)
(-0.186794 -0.0206093 0)
(-0.195584 -0.016933 0)
(-0.207927 -0.0186337 0)
(-0.214123 -0.0230879 0)
(-0.207292 -0.028523 0)
(-0.160601 -0.0294486 0)
(-0.125121 -0.00443774 0)
(-0.210621 0.0501044 0)
(-0.568771 0.0627205 0)
(-1.01019 0.0322111 0)
(-1.41166 0.00990708 0)
(-1.9195 0.00698729 0)
(-2.69308 -0.0643543 0)
(-3.22969 -0.16939 0)
(-3.60629 -0.249608 0)
(-3.88203 -0.306484 0)
(-4.05761 -0.354035 0)
(-4.13862 -0.396346 0)
(-4.16118 -0.428594 0)
(-3.94762 -0.473072 0)
(-3.65325 -0.450879 0)
(-3.39128 -0.420876 0)
(-3.08267 -0.4021 0)
(-2.78348 -0.356357 0)
(-2.58111 -0.302839 0)
(-2.51206 -0.248464 0)
(-2.58171 -0.244684 0)
(-2.51205 -0.273644 0)
(-2.48621 -0.269165 0)
(-2.44963 -0.280481 0)
(-2.38115 -0.282878 0)
(-2.25985 -0.276387 0)
(-1.99834 -0.27354 0)
(-1.80774 -0.221991 0)
(-1.77898 -0.0622104 0)
(-2.5168 0.0223601 0)
(-3.50226 -0.0905367 0)
(-4.01015 -0.254261 0)
(-4.20815 -0.374153 0)
(-3.93908 -0.503029 0)
(-3.4285 -0.490451 0)
(-3.11388 -0.441856 0)
(-2.78484 -0.415132 0)
(-2.17819 -0.421558 0)
(-1.54292 -0.350828 0)
(-1.0436 -0.262573 0)
(-0.686783 -0.178718 0)
(-0.443805 -0.069452 0)
(-0.575453 0.0687038 0)
(-1.28606 0.185883 0)
(-2.69729 0.084008 0)
(-3.61588 -0.111251 0)
(-4.09855 -0.321679 0)
(-4.21812 -0.476611 0)
(-3.51456 -0.564029 0)
(-2.84679 -0.475354 0)
(-2.30434 -0.19684 0)
(-3.29098 -0.0999954 0)
(-3.83001 -0.237095 0)
(-3.86362 -0.518733 0)
(-2.87069 -0.54626 0)
(-2.34122 -0.361723 0)
(-2.14881 -0.205121 0)
(-2.34051 -0.125552 0)
(-2.84209 -0.143412 0)
(-3.34824 -0.189035 0)
(-3.75991 -0.247629 0)
(-1.02922 -0.109164 0)
(-1.01069 -0.107707 0)
(-0.991507 -0.105969 0)
(-0.971476 -0.104239 0)
(-0.950656 -0.102462 0)
(-0.929298 -0.100533 0)
(-0.906973 -0.0984726 0)
(-0.884607 -0.0961998 0)
(-0.862894 -0.093769 0)
(-0.841984 -0.0913832 0)
(-0.82149 -0.0892524 0)
(-0.800972 -0.0872772 0)
(-0.780049 -0.0854135 0)
(-0.758442 -0.0835331 0)
(-0.735888 -0.0818117 0)
(-0.711822 -0.0798409 0)
(-0.68526 -0.0780361 0)
(-0.658092 -0.0754578 0)
(-0.6303 -0.0727807 0)
(-0.601825 -0.0703317 0)
(-0.572981 -0.067359 0)
(-0.544026 -0.0643838 0)
(-0.515945 -0.0612198 0)
(-0.48972 -0.0575506 0)
(-0.46569 -0.0549584 0)
(-0.443336 -0.0517701 0)
(-0.419902 -0.0499446 0)
(-0.400441 -0.0458115 0)
(-0.384717 -0.0447221 0)
(-0.36503 -0.0434955 0)
(-0.34291 -0.0427165 0)
(-0.317388 -0.0402547 0)
(-0.294019 -0.0369199 0)
(-0.274017 -0.033942 0)
(-0.255511 -0.0325308 0)
(-0.23218 -0.0321541 0)
(-0.205598 -0.0286822 0)
(-0.186226 -0.0211795 0)
(-0.194871 -0.0159265 0)
(-0.207225 -0.0170647 0)
(-0.213375 -0.0220421 0)
(-0.206728 -0.0310947 0)
(-0.160733 -0.0328738 0)
(-0.12653 -0.00308224 0)
(-0.213653 0.0557852 0)
(-0.572566 0.0758528 0)
(-1.01371 0.0511617 0)
(-1.41177 0.0293751 0)
(-1.91406 0.0322735 0)
(-2.67592 -0.0371927 0)
(-3.19789 -0.147786 0)
(-3.56306 -0.234047 0)
(-3.83151 -0.295189 0)
(-4.00258 -0.347491 0)
(-4.08203 -0.395032 0)
(-4.105 -0.432868 0)
(-3.89329 -0.483409 0)
(-3.5955 -0.46147 0)
(-3.33322 -0.431932 0)
(-3.01809 -0.41278 0)
(-2.7127 -0.362478 0)
(-2.51434 -0.3045 0)
(-2.45741 -0.25083 0)
(-2.49046 -0.235472 0)
(-2.44016 -0.269342 0)
(-2.42946 -0.265514 0)
(-2.40758 -0.279192 0)
(-2.3548 -0.284795 0)
(-2.24483 -0.281649 0)
(-1.98506 -0.281718 0)
(-1.79903 -0.226078 0)
(-1.77314 -0.0467897 0)
(-2.51101 0.0504222 0)
(-3.4543 -0.0583362 0)
(-3.92857 -0.235856 0)
(-4.12057 -0.368754 0)
(-3.82725 -0.514061 0)
(-3.34588 -0.49917 0)
(-3.05812 -0.44816 0)
(-2.73987 -0.429125 0)
(-2.10471 -0.441188 0)
(-1.45228 -0.368306 0)
(-0.964679 -0.274362 0)
(-0.660116 -0.189374 0)
(-0.433643 -0.0691652 0)
(-0.569755 0.10327 0)
(-1.29323 0.204492 0)
(-2.70527 0.124963 0)
(-3.62261 -0.0792595 0)
(-4.09631 -0.313461 0)
(-4.20341 -0.489761 0)
(-3.49178 -0.592504 0)
(-2.8259 -0.502165 0)
(-2.29901 -0.19139 0)
(-3.28811 -0.0685091 0)
(-3.79623 -0.224625 0)
(-3.77823 -0.542729 0)
(-2.81182 -0.579377 0)
(-2.32674 -0.383851 0)
(-2.14226 -0.208139 0)
(-2.34261 -0.111809 0)
(-2.84162 -0.133002 0)
(-3.35032 -0.172398 0)
(-3.76229 -0.242299 0)
(-1.02907 -0.109995 0)
(-1.01053 -0.108562 0)
(-0.991333 -0.106852 0)
(-0.97128 -0.105219 0)
(-0.950449 -0.103482 0)
(-0.929085 -0.101534 0)
(-0.90676 -0.0994808 0)
(-0.884398 -0.097233 0)
(-0.862694 -0.0948035 0)
(-0.84179 -0.0924083 0)
(-0.821298 -0.0902625 0)
(-0.800781 -0.0882718 0)
(-0.779854 -0.0864133 0)
(-0.75824 -0.0845532 0)
(-0.735672 -0.0828914 0)
(-0.711592 -0.0809697 0)
(-0.685016 -0.0792627 0)
(-0.657846 -0.0767041 0)
(-0.630047 -0.074038 0)
(-0.601563 -0.0716187 0)
(-0.572722 -0.068608 0)
(-0.543773 -0.0656001 0)
(-0.515698 -0.0624348 0)
(-0.489487 -0.0587003 0)
(-0.465457 -0.0560884 0)
(-0.443098 -0.0528588 0)
(-0.419662 -0.0510742 0)
(-0.400252 -0.0467078 0)
(-0.384507 -0.0456534 0)
(-0.364785 -0.0446224 0)
(-0.342679 -0.0439269 0)
(-0.317244 -0.0413102 0)
(-0.293907 -0.0379964 0)
(-0.273829 -0.0350755 0)
(-0.255232 -0.0336006 0)
(-0.231922 -0.0330255 0)
(-0.205371 -0.0293374 0)
(-0.185834 -0.0209583 0)
(-0.194095 -0.0159354 0)
(-0.206328 -0.0177479 0)
(-0.212649 -0.0231305 0)
(-0.206789 -0.0302853 0)
(-0.160746 -0.0326176 0)
(-0.126072 -0.00147907 0)
(-0.214966 0.0669061 0)
(-0.575387 0.0936011 0)
(-1.01707 0.0672471 0)
(-1.4114 0.0478058 0)
(-1.90786 0.0592182 0)
(-2.65507 -0.00842667 0)
(-3.15972 -0.12478 0)
(-3.51291 -0.214719 0)
(-3.77595 -0.278085 0)
(-3.94631 -0.332926 0)
(-4.0264 -0.383139 0)
(-4.04846 -0.423465 0)
(-3.82987 -0.483488 0)
(-3.533 -0.461757 0)
(-3.27617 -0.432726 0)
(-2.95603 -0.416792 0)
(-2.64439 -0.364636 0)
(-2.4409 -0.300755 0)
(-2.38235 -0.237941 0)
(-2.39715 -0.225786 0)
(-2.36399 -0.26276 0)
(-2.36598 -0.25778 0)
(-2.35929 -0.275372 0)
(-2.32037 -0.284997 0)
(-2.22249 -0.285667 0)
(-1.96745 -0.289299 0)
(-1.78849 -0.229865 0)
(-1.76574 -0.0311766 0)
(-2.50159 0.0846511 0)
(-3.40071 -0.0219604 0)
(-3.84518 -0.209179 0)
(-4.03314 -0.355381 0)
(-3.70239 -0.516768 0)
(-3.26573 -0.509391 0)
(-3.01121 -0.461021 0)
(-2.70822 -0.437859 0)
(-2.03828 -0.458632 0)
(-1.36233 -0.378389 0)
(-0.863736 -0.277879 0)
(-0.623335 -0.194822 0)
(-0.422834 -0.0712016 0)
(-0.570157 0.10783 0)
(-1.29241 0.266963 0)
(-2.71209 0.18423 0)
(-3.62788 -0.0507976 0)
(-4.08923 -0.300922 0)
(-4.17834 -0.492513 0)
(-3.45855 -0.618128 0)
(-2.79997 -0.521128 0)
(-2.29604 -0.182476 0)
(-3.27817 -0.0363268 0)
(-3.74483 -0.203749 0)
(-3.65556 -0.539223 0)
(-2.73751 -0.59532 0)
(-2.31054 -0.389375 0)
(-2.1344 -0.202645 0)
(-2.34407 -0.0991714 0)
(-2.84109 -0.110888 0)
(-3.3534 -0.150767 0)
(-3.76758 -0.220686 0)
(-1.02893 -0.110629 0)
(-1.01037 -0.109257 0)
(-0.991158 -0.107562 0)
(-0.971093 -0.105895 0)
(-0.950249 -0.104175 0)
(-0.928865 -0.102284 0)
(-0.906537 -0.10027 0)
(-0.884186 -0.0979946 0)
(-0.862499 -0.0955168 0)
(-0.84161 -0.0930611 0)
(-0.821125 -0.0909023 0)
(-0.80061 -0.0889326 0)
(-0.779681 -0.0871185 0)
(-0.758063 -0.085303 0)
(-0.735487 -0.0836994 0)
(-0.711397 -0.081824 0)
(-0.684809 -0.0802172 0)
(-0.657634 -0.0776822 0)
(-0.629824 -0.0750548 0)
(-0.601321 -0.0727061 0)
(-0.572472 -0.0697194 0)
(-0.543519 -0.0667417 0)
(-0.51546 -0.0634965 0)
(-0.489275 -0.0595886 0)
(-0.465237 -0.0569559 0)
(-0.442887 -0.0535168 0)
(-0.419453 -0.0518038 0)
(-0.400108 -0.0471537 0)
(-0.38434 -0.0461957 0)
(-0.364611 -0.0451303 0)
(-0.342508 -0.0447013 0)
(-0.317101 -0.0423546 0)
(-0.293822 -0.0388011 0)
(-0.273706 -0.0356057 0)
(-0.255034 -0.0342021 0)
(-0.231658 -0.0342619 0)
(-0.205173 -0.0304998 0)
(-0.185456 -0.0215978 0)
(-0.193588 -0.014882 0)
(-0.205825 -0.0160261 0)
(-0.212032 -0.0218796 0)
(-0.205753 -0.0331685 0)
(-0.159556 -0.0369534 0)
(-0.125456 -0.00119426 0)
(-0.216368 0.076592 0)
(-0.578691 0.10743 0)
(-1.01998 0.0859346 0)
(-1.41054 0.0680546 0)
(-1.90113 0.083225 0)
(-2.63038 0.0188068 0)
(-3.11511 -0.102932 0)
(-3.45596 -0.19703 0)
(-3.71603 -0.264439 0)
(-3.88881 -0.324259 0)
(-3.96771 -0.380781 0)
(-3.97992 -0.426728 0)
(-3.73127 -0.487915 0)
(-3.45287 -0.467881 0)
(-3.2144 -0.440938 0)
(-2.89121 -0.426053 0)
(-2.57348 -0.370956 0)
(-2.36197 -0.301357 0)
(-2.29921 -0.235843 0)
(-2.30867 -0.216477 0)
(-2.28868 -0.256065 0)
(-2.30008 -0.251625 0)
(-2.30479 -0.27106 0)
(-2.27665 -0.283484 0)
(-2.19008 -0.288327 0)
(-1.94403 -0.295888 0)
(-1.77571 -0.232645 0)
(-1.75666 -0.0136127 0)
(-2.4883 0.118283 0)
(-3.34062 0.00763876 0)
(-3.75328 -0.191666 0)
(-3.93134 -0.352241 0)
(-3.53881 -0.523649 0)
(-3.16626 -0.520582 0)
(-2.951 -0.471288 0)
(-2.67433 -0.460342 0)
(-1.97044 -0.489072 0)
(-1.27244 -0.39974 0)
(-0.751114 -0.283904 0)
(-0.571424 -0.197906 0)
(-0.408849 -0.0682374 0)
(-0.563536 0.138082 0)
(-1.30248 0.280644 0)
(-2.72117 0.215576 0)
(-3.62953 -0.0131611 0)
(-4.07217 -0.291118 0)
(-4.13464 -0.506633 0)
(-3.41304 -0.642465 0)
(-2.7682 -0.544653 0)
(-2.29614 -0.173919 0)
(-3.25556 -0.00715521 0)
(-3.67536 -0.193795 0)
(-3.48733 -0.554648 0)
(-2.64567 -0.618624 0)
(-2.29215 -0.406088 0)
(-2.12064 -0.198376 0)
(-2.34548 -0.0819421 0)
(-2.84036 -0.0926364 0)
(-3.35702 -0.137475 0)
(-3.77312 -0.214156 0)
(-1.02873 -0.111411 0)
(-1.01015 -0.110076 0)
(-0.990924 -0.108416 0)
(-0.970838 -0.106845 0)
(-0.949991 -0.105181 0)
(-0.92861 -0.10329 0)
(-0.906289 -0.101288 0)
(-0.883946 -0.0990415 0)
(-0.86227 -0.0965526 0)
(-0.841388 -0.0940947 0)
(-0.820907 -0.0919368 0)
(-0.800397 -0.089963 0)
(-0.77947 -0.0881555 0)
(-0.75785 -0.086361 0)
(-0.735264 -0.0848233 0)
(-0.711163 -0.083006 0)
(-0.68456 -0.0814958 0)
(-0.657381 -0.0789438 0)
(-0.629561 -0.0762812 0)
(-0.601038 -0.0739416 0)
(-0.572179 -0.0709064 0)
(-0.543221 -0.0678758 0)
(-0.515162 -0.0646134 0)
(-0.488994 -0.0606386 0)
(-0.464956 -0.0579961 0)
(-0.442604 -0.0545545 0)
(-0.419184 -0.0528793 0)
(-0.399911 -0.0480325 0)
(-0.384134 -0.047096 0)
(-0.364375 -0.046259 0)
(-0.342296 -0.045832 0)
(-0.316998 -0.0432505 0)
(-0.293769 -0.0397066 0)
(-0.273595 -0.0366041 0)
(-0.254811 -0.0352249 0)
(-0.231472 -0.0350739 0)
(-0.205035 -0.0312389 0)
(-0.185218 -0.0213838 0)
(-0.192931 -0.0149957 0)
(-0.205005 -0.0168822 0)
(-0.211252 -0.0231645 0)
(-0.205607 -0.0319865 0)
(-0.159298 -0.0356486 0)
(-0.124628 0.00222937 0)
(-0.219053 0.08361 0)
(-0.581179 0.124672 0)
(-1.02295 0.101633 0)
(-1.40952 0.0853933 0)
(-1.89353 0.109691 0)
(-2.60155 0.0465594 0)
(-3.06468 -0.0801255 0)
(-3.39533 -0.178476 0)
(-3.65707 -0.248623 0)
(-3.83164 -0.311615 0)
(-3.89848 -0.368064 0)
(-3.86923 -0.412608 0)
(-3.55729 -0.483185 0)
(-3.33689 -0.464011 0)
(-3.14201 -0.441248 0)
(-2.82016 -0.429568 0)
(-2.50196 -0.373288 0)
(-2.28427 -0.29771 0)
(-2.21811 -0.22637 0)
(-2.22872 -0.207109 0)
(-2.21641 -0.249361 0)
(-2.23508 -0.242908 0)
(-2.24728 -0.265412 0)
(-2.22507 -0.281142 0)
(-2.14485 -0.289703 0)
(-1.9134 -0.301703 0)
(-1.76 -0.235647 0)
(-1.74606 0.000695646 0)
(-2.47085 0.151739 0)
(-3.27448 0.0417866 0)
(-3.65395 -0.163502 0)
(-3.81651 -0.343565 0)
(-3.40685 -0.52754 0)
(-3.05255 -0.512329 0)
(-2.8204 -0.467135 0)
(-2.5446 -0.46999 0)
(-1.84968 -0.510533 0)
(-1.1829 -0.419225 0)
(-0.634346 -0.281902 0)
(-0.507405 -0.197664 0)
(-0.391386 -0.0686564 0)
(-0.559067 0.153235 0)