/*--------------------------------*- C++ -*----------------------------------*\
| =========                 |                                                 |
| \\      /  F ield         | OpenFOAM: The Open Source CFD Toolbox           |
|  \\    /   O peration     | Version:  v1912                                 |
|   \\  /    A nd           | Website:  www.openfoam.com                      |
|    \\/     M anipulation  |                                                 |
\*---------------------------------------------------------------------------*/
FoamFile
{
    version     2.0;
    format      ascii;
    class       volScalarField;
    location    "20";
    object      k;
}
// * * * * * * * * * * * * * * * * * * * * * * * * * * * * * * * * * * * * * //

dimensions      [0 2 -2 0 0 0 0];


internalField   nonuniform List<scalar> 
14268
(
1.39122e-08
1.38577e-08
1.38622e-08
1.39325e-08
1.40604e-08
1.42214e-08
1.43801e-08
1.44983e-08
1.45437e-08
1.4498e-08
1.43901e-08
1.4276e-08
1.41581e-08
1.40351e-08
1.39034e-08
1.37568e-08
1.35912e-08
1.34071e-08
1.32162e-08
1.30407e-08
1.29095e-08
1.28805e-08
1.33014e-08
1.41228e-08
1.51072e-08
1.6021e-08
1.66987e-08
1.69838e-08
1.68564e-08
1.65838e-08
1.62897e-08
1.60455e-08
1.58594e-08
1.58929e-08
1.61733e-08
1.66171e-08
1.72691e-08
1.97153e-08
2.84286e-08
4.81909e-08
6.8109e-08
8.67591e-08
8.21531e-08
6.54822e-08
1.64251e-07
1.64237e-07
1.64276e-07
1.64376e-07
1.64535e-07
1.6473e-07
1.64927e-07
1.65092e-07
1.65192e-07
1.6521e-07
1.65123e-07
1.64912e-07
1.64595e-07
1.64154e-07
1.63531e-07
1.62637e-07
1.61401e-07
1.59819e-07
1.58028e-07
1.56328e-07
1.5511e-07
1.54658e-07
1.54868e-07
1.55547e-07
1.56447e-07
1.57345e-07
1.58029e-07
1.58371e-07
1.58197e-07
1.57565e-07
1.56292e-07
1.55442e-07
1.54817e-07
1.55651e-07
1.56361e-07
1.58267e-07
1.60292e-07
1.65953e-07
1.78764e-07
2.06376e-07
2.37897e-07
2.6559e-07
2.8403e-07
2.72699e-07
2.11894e-07
2.11895e-07
2.11907e-07
2.11934e-07
2.11974e-07
2.12021e-07
2.12068e-07
2.12106e-07
2.12131e-07
2.12136e-07
2.12111e-07
2.1205e-07
2.1196e-07
2.11838e-07
2.11659e-07
2.11393e-07
2.11023e-07
2.10547e-07
2.1001e-07
2.09511e-07
2.09186e-07
2.09114e-07
2.09201e-07
2.09373e-07
2.09574e-07
2.09811e-07
2.09983e-07
2.10128e-07
2.10037e-07
2.09924e-07
2.09365e-07
2.09252e-07
2.08853e-07
2.09456e-07
2.09331e-07
2.10337e-07
2.10476e-07
2.12661e-07
2.17466e-07
2.34754e-07
2.59441e-07
2.84297e-07
3.01189e-07
3.02875e-07
2.17304e-07
2.17301e-07
2.17303e-07
2.1731e-07
2.17322e-07
2.17339e-07
2.17352e-07
2.17362e-07
2.17364e-07
2.1736e-07
2.17351e-07
2.17329e-07
2.17307e-07
2.17278e-07
2.17239e-07
2.17178e-07
2.17097e-07
2.17005e-07
2.16917e-07
2.16834e-07
2.16793e-07
2.16789e-07
2.16802e-07
2.16814e-07
2.1683e-07
2.16881e-07
2.16916e-07
2.16988e-07
2.16905e-07
2.16939e-07
2.16663e-07
2.16824e-07
2.16484e-07
2.16938e-07
2.16518e-07
2.17198e-07
2.16778e-07
2.18121e-07
2.21348e-07
2.36415e-07
2.60063e-07
2.82802e-07
3.05149e-07
2.97504e-07
2.17837e-07
2.17838e-07
2.17842e-07
2.1785e-07
2.17862e-07
2.17873e-07
2.17884e-07
2.17893e-07
2.17901e-07
2.17902e-07
2.17896e-07
2.1789e-07
2.17884e-07
2.17881e-07
2.17871e-07
2.17855e-07
2.1784e-07
2.17824e-07
2.1782e-07
2.17829e-07
2.17849e-07
2.17858e-07
2.17856e-07
2.17832e-07
2.17791e-07
2.17801e-07
2.17797e-07
2.17855e-07
2.17766e-07
2.17849e-07
2.17634e-07
2.17859e-07
2.17555e-07
2.17982e-07
2.17521e-07
2.18129e-07
2.17617e-07
2.18772e-07
2.21608e-07
2.36649e-07
2.60462e-07
2.84602e-07
3.01429e-07
3.0584e-07
2.17757e-07
2.17754e-07
2.17755e-07
2.17761e-07
2.17769e-07
2.17782e-07
2.17791e-07
2.17796e-07
2.17794e-07
2.1779e-07
2.17785e-07
2.17771e-07
2.17763e-07
2.17755e-07
2.17746e-07
2.17727e-07
2.17707e-07
2.17698e-07
2.17708e-07
2.17723e-07
2.17747e-07
2.17751e-07
2.17742e-07
2.17715e-07
2.17684e-07
2.17695e-07
2.17694e-07
2.1775e-07
2.1766e-07
2.17737e-07
2.17527e-07
2.17747e-07
2.17425e-07
2.17841e-07
2.17355e-07
2.17964e-07
2.17422e-07
2.186e-07
2.21445e-07
2.3653e-07
2.6017e-07
2.82816e-07
3.05794e-07
2.99256e-07
2.17855e-07
2.17857e-07
2.17861e-07
2.17868e-07
2.17879e-07
2.17889e-07
2.179e-07
2.17908e-07
2.17915e-07
2.17917e-07
2.17911e-07
2.17905e-07
2.179e-07
2.17898e-07
2.17888e-07
2.17872e-07
2.17858e-07
2.17847e-07
2.17847e-07
2.17862e-07
2.17885e-07
2.17894e-07
2.1789e-07
2.17864e-07
2.17823e-07
2.17831e-07
2.17828e-07
2.17888e-07
2.17801e-07
2.17886e-07
2.17675e-07
2.17896e-07
2.17585e-07
2.18007e-07
2.17535e-07
2.18137e-07
2.17604e-07
2.18745e-07
2.21557e-07
2.36565e-07
2.60232e-07
2.84187e-07
3.02389e-07
3.06348e-07
2.17769e-07
2.17767e-07
2.17768e-07
2.17773e-07
2.17781e-07
2.17794e-07
2.17803e-07
2.17809e-07
2.17809e-07
2.17805e-07
2.178e-07
2.17787e-07
2.17781e-07
2.17773e-07
2.17765e-07
2.1775e-07
2.17735e-07
2.17731e-07
2.17746e-07
2.17764e-07
2.1779e-07
2.17795e-07
2.17785e-07
2.17757e-07
2.17725e-07
2.17735e-07
2.17733e-07
2.17791e-07
2.177e-07
2.1778e-07
2.1757e-07
2.17797e-07
2.17476e-07
2.1789e-07
2.174e-07
2.18001e-07
2.17454e-07
2.18606e-07
2.2142e-07
2.36494e-07
2.60244e-07
2.83274e-07
3.06759e-07
3.00615e-07
2.17848e-07
2.17849e-07
2.17853e-07
2.1786e-07
2.17872e-07
2.17882e-07
2.17893e-07
2.17901e-07
2.17908e-07
2.1791e-07
2.17905e-07
2.17899e-07
2.17894e-07
2.17892e-07
2.17882e-07
2.17867e-07
2.17852e-07
2.1784e-07
2.17841e-07
2.17855e-07
2.17877e-07
2.17884e-07
2.17877e-07
2.17849e-07
2.17808e-07
2.17817e-07
2.17814e-07
2.17875e-07
2.17789e-07
2.17875e-07
2.17665e-07
2.17886e-07
2.17573e-07
2.17986e-07
2.1751e-07
2.18111e-07
2.17574e-07
2.18702e-07
2.21465e-07
2.36465e-07
2.60223e-07
2.85241e-07
3.04519e-07
3.0654e-07
2.1778e-07
2.17778e-07
2.17779e-07
2.17784e-07
2.17792e-07
2.17804e-07
2.17813e-07
2.1782e-07
2.17821e-07
2.17818e-07
2.17811e-07
2.178e-07
2.17794e-07
2.17787e-07
2.17781e-07
2.17767e-07
2.17754e-07
2.1775e-07
2.17765e-07
2.17783e-07
2.17808e-07
2.17813e-07
2.17804e-07
2.17778e-07
2.17745e-07
2.17757e-07
2.17756e-07
2.17816e-07
2.17727e-07
2.17809e-07
2.17601e-07
2.17823e-07
2.17502e-07
2.17913e-07
2.17423e-07
2.18018e-07
2.1746e-07
2.18601e-07
2.21388e-07
2.36406e-07
2.60421e-07
2.86176e-07
3.08039e-07
3.02373e-07
2.1784e-07
2.17841e-07
2.17845e-07
2.17852e-07
2.17864e-07
2.17875e-07
2.17886e-07
2.17894e-07
2.17901e-07
2.17902e-07
2.17898e-07
2.17892e-07
2.17887e-07
2.17885e-07
2.17876e-07
2.17861e-07
2.17846e-07
2.17834e-07
2.17837e-07
2.1785e-07
2.17871e-07
2.17876e-07
2.17868e-07
2.17838e-07
2.17799e-07
2.17807e-07
2.17806e-07
2.17867e-07
2.17781e-07
2.17867e-07
2.17657e-07
2.17876e-07
2.17558e-07
2.17968e-07
2.17486e-07
2.18086e-07
2.1754e-07
2.18648e-07
2.21404e-07
2.36428e-07
2.60293e-07
2.88413e-07
3.07427e-07
3.07666e-07
2.17789e-07
2.17787e-07
2.17788e-07
2.17793e-07
2.17802e-07
2.17813e-07
2.17822e-07
2.17829e-07
2.17832e-07
2.17829e-07
2.17823e-07
2.17813e-07
2.17807e-07
2.17801e-07
2.17795e-07
2.17783e-07
2.17772e-07
2.17769e-07
2.17782e-07
2.17801e-07
2.17825e-07
2.17829e-07
2.17821e-07
2.17795e-07
2.17761e-07
2.17773e-07
2.17774e-07
2.17837e-07
2.17748e-07
2.17832e-07
2.17622e-07
2.17842e-07
2.1752e-07
2.17931e-07
2.17447e-07
2.18046e-07
2.17491e-07
2.18625e-07
2.21325e-07
2.3649e-07
2.60759e-07
2.89082e-07
3.01236e-07
3.04463e-07
2.17827e-07
2.17828e-07
2.17833e-07
2.17841e-07
2.17853e-07
2.17867e-07
2.17878e-07
2.17887e-07
2.17893e-07
2.17895e-07
2.17892e-07
2.17885e-07
2.1788e-07
2.17877e-07
2.1787e-07
2.17854e-07
2.17839e-07
2.17829e-07
2.17833e-07
2.17846e-07
2.17868e-07
2.17872e-07
2.17863e-07
2.17833e-07
2.17794e-07
2.17803e-07
2.17802e-07
2.17864e-07
2.1778e-07
2.17864e-07
2.17649e-07
2.17862e-07
2.17542e-07
2.1794e-07
2.17446e-07
2.18033e-07
2.17464e-07
2.18552e-07
2.21312e-07
2.36828e-07
2.6218e-07
2.87643e-07
2.95168e-07
2.99296e-07
2.17814e-07
2.17811e-07
2.17811e-07
2.17815e-07
2.17824e-07
2.17831e-07
2.17839e-07
2.17846e-07
2.1785e-07
2.17847e-07
2.1784e-07
2.17831e-07
2.17826e-07
2.17819e-07
2.17812e-07
2.17802e-07
2.1779e-07
2.17784e-07
2.17796e-07
2.17811e-07
2.17831e-07
2.17832e-07
2.17822e-07
2.17794e-07
2.17763e-07
2.17775e-07
2.17777e-07
2.17837e-07
2.17767e-07
2.17862e-07
2.17666e-07
2.17889e-07
2.17563e-07
2.17986e-07
2.17498e-07
2.18101e-07
2.17568e-07
2.18676e-07
2.21306e-07
2.3634e-07
2.61927e-07
2.82557e-07
2.86727e-07
2.94552e-07
2.17812e-07
2.17812e-07
2.17815e-07
2.17821e-07
2.17831e-07
2.17845e-07
2.17855e-07
2.17863e-07
2.17868e-07
2.17869e-07
2.17865e-07
2.17858e-07
2.17854e-07
2.17853e-07
2.17847e-07
2.17833e-07
2.17822e-07
2.17816e-07
2.17823e-07
2.17838e-07
2.17859e-07
2.1786e-07
2.17849e-07
2.1782e-07
2.17777e-07
2.17789e-07
2.17787e-07
2.17852e-07
2.17752e-07
2.1783e-07
2.17609e-07
2.17819e-07
2.1749e-07
2.17888e-07
2.17391e-07
2.17985e-07
2.174e-07
2.18498e-07
2.21249e-07
2.36045e-07
2.60528e-07
2.76224e-07
2.78086e-07
2.75865e-07
2.17819e-07
2.17819e-07
2.17821e-07
2.17827e-07
2.17839e-07
2.17849e-07
2.17861e-07
2.1787e-07
2.17876e-07
2.17876e-07
2.17872e-07
2.17864e-07
2.17859e-07
2.17855e-07
2.17848e-07
2.17835e-07
2.17824e-07
2.17819e-07
2.1783e-07
2.17848e-07
2.17868e-07
2.17871e-07
2.17869e-07
2.17845e-07
2.17815e-07
2.1783e-07
2.17835e-07
2.17903e-07
2.17831e-07
2.17931e-07
2.17729e-07
2.1795e-07
2.1764e-07
2.18042e-07
2.17572e-07
2.18156e-07
2.17604e-07
2.18652e-07
2.21306e-07
2.37219e-07
2.6017e-07
2.60251e-07
2.65837e-07
2.63628e-07
2.17817e-07
2.17815e-07
2.17816e-07
2.17821e-07
2.17827e-07
2.17839e-07
2.17847e-07
2.17853e-07
2.17856e-07
2.17856e-07
2.17853e-07
2.17845e-07
2.17842e-07
2.1784e-07
2.17834e-07
2.17821e-07
2.17809e-07
2.17803e-07
2.17814e-07
2.17829e-07
2.1785e-07
2.17846e-07
2.17823e-07
2.17783e-07
2.17739e-07
2.17745e-07
2.17743e-07
2.17802e-07
2.17705e-07
2.17778e-07
2.17554e-07
2.1776e-07
2.17408e-07
2.17806e-07
2.17286e-07
2.17883e-07
2.17286e-07
2.18375e-07
2.21049e-07
2.3812e-07
2.44931e-07
2.47305e-07
2.58985e-07
2.51533e-07
2.17791e-07
2.17792e-07
2.17796e-07
2.17804e-07
2.17818e-07
2.17832e-07
2.17845e-07
2.17856e-07
2.17865e-07
2.17865e-07
2.17859e-07
2.17852e-07
2.17848e-07
2.17849e-07
2.17845e-07
2.17836e-07
2.17829e-07
2.17825e-07
2.17831e-07
2.17846e-07
2.1787e-07
2.17884e-07
2.17887e-07
2.17864e-07
2.17825e-07
2.17836e-07
2.1784e-07
2.17911e-07
2.17843e-07
2.17955e-07
2.17765e-07
2.17988e-07
2.177e-07
2.18098e-07
2.17642e-07
2.18209e-07
2.1765e-07
2.18665e-07
2.21325e-07
2.36027e-07
2.3637e-07
2.4049e-07
2.57364e-07
2.52002e-07
2.17859e-07
2.17854e-07
2.1785e-07
2.1785e-07
2.17854e-07
2.1786e-07
2.17864e-07
2.17869e-07
2.17874e-07
2.1788e-07
2.17877e-07
2.17866e-07
2.17859e-07
2.17848e-07
2.17839e-07
2.17821e-07
2.17801e-07
2.17791e-07
2.17795e-07
2.17795e-07
2.17791e-07
2.17757e-07
2.17724e-07
2.17686e-07
2.17652e-07
2.1766e-07
2.17657e-07
2.17707e-07
2.17604e-07
2.17664e-07
2.17429e-07
2.17633e-07
2.17252e-07
2.1765e-07
2.17137e-07
2.17769e-07
2.17189e-07
2.18329e-07
2.20688e-07
2.34129e-07
2.32903e-07
2.38491e-07
2.56537e-07
2.48343e-07
2.1771e-07
2.17712e-07
2.17718e-07
2.17726e-07
2.17735e-07
2.17745e-07
2.17752e-07
2.17752e-07
2.17747e-07
2.17739e-07
2.17735e-07
2.17736e-07
2.17742e-07
2.17755e-07
2.17764e-07
2.17775e-07
2.17797e-07
2.17828e-07
2.17874e-07
2.17931e-07
2.17998e-07
2.18037e-07
2.18024e-07
2.17968e-07
2.17891e-07
2.17872e-07
2.17857e-07
2.17918e-07
2.17867e-07
2.17988e-07
2.17822e-07
2.18057e-07
2.17803e-07
2.18195e-07
2.17728e-07
2.18284e-07
2.17731e-07
2.18694e-07
2.20894e-07
2.25554e-07
2.30035e-07
2.38898e-07
2.60989e-07
2.64756e-07
2.17927e-07
2.17921e-07
2.17923e-07
2.17934e-07
2.1796e-07
2.17993e-07
2.18034e-07
2.18069e-07
2.18093e-07
2.18097e-07
2.18085e-07
2.18056e-07
2.18024e-07
2.17984e-07
2.17936e-07
2.17865e-07
2.17782e-07
2.17701e-07
2.17637e-07
2.17579e-07
2.17528e-07
2.1747e-07
2.17434e-07
2.17403e-07
2.17369e-07
2.17367e-07
2.17352e-07
2.17388e-07
2.17262e-07
2.17314e-07
2.17069e-07
2.17288e-07
2.16914e-07
2.17359e-07
2.16842e-07
2.17515e-07
2.16925e-07
2.18091e-07
2.19222e-07
2.16573e-07
2.28248e-07
2.38675e-07
2.60646e-07
2.75423e-07
2.17769e-07
2.17765e-07
2.1776e-07
2.17753e-07
2.17748e-07
2.17742e-07
2.17735e-07
2.17729e-07
2.1773e-07
2.17733e-07
2.17734e-07
2.17734e-07
2.17739e-07
2.17749e-07
2.17761e-07
2.17771e-07
2.17785e-07
2.17805e-07
2.1783e-07
2.17852e-07
2.17862e-07
2.17846e-07
2.17786e-07
2.17674e-07
2.17519e-07
2.17395e-07
2.17274e-07
2.17268e-07
2.17177e-07
2.17274e-07
2.17066e-07
2.17259e-07
2.16885e-07
2.17192e-07
2.16561e-07
2.16933e-07
2.16019e-07
2.16047e-07
2.13563e-07
2.08822e-07
2.33598e-07
2.71666e-07
3.32111e-07
4.16991e-07
2.14615e-07
2.14575e-07
2.14447e-07
2.1421e-07
2.13868e-07
2.13451e-07
2.1301e-07
2.1261e-07
2.1231e-07
2.12159e-07
2.12125e-07
2.12106e-07
2.12105e-07
2.12122e-07
2.12154e-07
2.12209e-07
2.12305e-07
2.12449e-07
2.12628e-07
2.12798e-07
2.12902e-07
2.1279e-07
2.11774e-07
2.09874e-07
2.07501e-07
2.05142e-07
2.03084e-07
2.01777e-07
2.01158e-07
2.01239e-07
2.01138e-07
2.01549e-07
2.01007e-07
2.00763e-07
1.98926e-07
1.97043e-07
1.93455e-07
1.8633e-07
1.59594e-07
2.05816e-07
3.52279e-07
4.88598e-07
6.77491e-07
9.01204e-07
1.29986e-07
1.29413e-07
1.28737e-07
1.27944e-07
1.27036e-07
1.2605e-07
1.25046e-07
1.24088e-07
1.2324e-07
1.22538e-07
1.22001e-07
1.2162e-07
1.21362e-07
1.21239e-07
1.21332e-07
1.21754e-07
1.22616e-07
1.23919e-07
1.25474e-07
1.2683e-07
1.27415e-07
1.26829e-07
1.25111e-07
1.22535e-07
1.19554e-07
1.16651e-07
1.14104e-07
1.12146e-07
1.10936e-07
1.11073e-07
1.1152e-07
1.12012e-07
1.10441e-07
1.07405e-07
1.02976e-07
9.48881e-08
8.94008e-08
8.0886e-08
1.11497e-07
4.29912e-07
6.45437e-07
7.4188e-07
8.57711e-07
1.02347e-06
8.9875e-08
8.9405e-08
8.88262e-08
8.80966e-08
8.72026e-08
8.61828e-08
8.51243e-08
8.41381e-08
8.33348e-08
8.27909e-08
8.24833e-08
8.22992e-08
8.21832e-08
8.21593e-08
8.23177e-08
8.27625e-08
8.36068e-08
8.489e-08
8.64784e-08
8.79187e-08
8.85943e-08
8.8013e-08
8.55968e-08
8.18908e-08
7.78145e-08
7.41073e-08
7.08421e-08
6.82099e-08
6.55965e-08
6.27118e-08
5.85306e-08
5.11053e-08
4.02915e-08
2.90773e-08
2.10195e-08
2.07825e-08
2.81321e-08
4.71215e-08
3.59752e-07
7.55296e-07
6.07784e-07
4.93646e-07
4.57684e-07
4.39079e-07
6.17519e-08
5.54317e-08
4.93757e-08
4.35088e-08
3.78339e-08
3.23855e-08
2.72612e-08
2.25243e-08
1.81961e-08
1.42765e-08
1.18525e-08
1.06375e-08
9.73084e-09
9.14993e-09
8.93767e-09
9.47019e-09
1.10013e-08
1.3337e-08
1.60712e-08
1.8606e-08
2.07045e-08
2.20475e-08
2.41008e-08
2.68482e-08
2.86929e-08
2.94025e-08
2.86265e-08
2.64923e-08
2.18567e-08
1.46868e-08
8.57191e-09
5.13589e-09
2.73592e-09
2.62108e-09
1.45082e-08
5.00629e-08
5.83529e-08
3.35264e-08
6.46039e-08
3.46228e-07
1.45641e-06
3.29366e-06
4.43762e-06
7.64092e-06
1.28068e-08
1.23069e-08
1.18294e-08
1.14796e-08
1.12966e-08
1.12561e-08
1.12832e-08
1.12813e-08
1.11251e-08
1.06994e-08
1.0084e-08
9.44262e-09
8.80338e-09
8.1946e-09
7.66269e-09
7.37186e-09
7.55483e-09
8.33105e-09
9.42695e-09
1.01551e-08
9.95785e-09
8.15648e-09
6.33762e-09
5.13404e-09
3.92953e-09
3.06821e-09
2.78841e-09
2.80215e-09
3.18407e-09
4.124e-09
4.14696e-09
2.60665e-09
1.26448e-09
1.28124e-09
4.94986e-09
1.30591e-08
1.67692e-08
1.26321e-08
8.36385e-09
1.27988e-08
1.83723e-08
1.5882e-08
2.11912e-07
2.05448e-07
1.33868e-07
1.34974e-07
1.36284e-07
1.3781e-07
1.39533e-07
1.41277e-07
1.42914e-07
1.44326e-07
1.45436e-07
1.46191e-07
1.46479e-07
1.46038e-07
1.44885e-07
1.42969e-07
1.39824e-07
1.3485e-07
1.27819e-07
1.19441e-07
1.112e-07
1.04432e-07
1.00411e-07
1.00031e-07
1.02897e-07
1.0794e-07
1.1343e-07
1.17991e-07
1.20707e-07
1.2103e-07
1.18926e-07
1.13842e-07
1.07248e-07
1.01892e-07
9.9965e-08
1.07258e-07
1.21407e-07
1.25405e-07
1.2538e-07
1.20219e-07
1.24036e-07
1.40713e-07
1.60806e-07
2.09237e-07
1.87979e-07
7.69278e-07
2.13543e-07
2.1365e-07
2.13753e-07
2.13849e-07
2.13947e-07
2.14067e-07
2.14194e-07
2.14329e-07
2.14467e-07
2.1459e-07
2.1462e-07
2.14464e-07
2.14175e-07
2.13765e-07
2.13093e-07
2.119e-07
2.09893e-07
2.06749e-07
2.02561e-07
1.98107e-07
1.94821e-07
1.94226e-07
1.95563e-07
1.97718e-07
2.00159e-07
2.02586e-07
2.0507e-07
2.07069e-07
2.0901e-07
2.08908e-07
2.09465e-07
2.11807e-07
2.19938e-07
2.31307e-07
2.39986e-07
2.41747e-07
2.36824e-07
2.2717e-07
2.25176e-07
2.26125e-07
2.27296e-07
2.51095e-07
2.72894e-07
3.32734e-07
2.17309e-07
2.17281e-07
2.17267e-07
2.17268e-07
2.17284e-07
2.17311e-07
2.1735e-07
2.174e-07
2.17447e-07
2.17496e-07
2.17544e-07
2.17588e-07
2.1761e-07
2.17589e-07
2.17507e-07
2.17313e-07
2.16942e-07
2.16379e-07
2.15671e-07
2.14921e-07
2.14394e-07
2.14228e-07
2.14351e-07
2.14713e-07
2.1512e-07
2.15429e-07
2.1555e-07
2.15544e-07
2.15552e-07
2.15638e-07
2.15854e-07
2.16427e-07
2.17323e-07
2.18461e-07
2.2005e-07
2.21353e-07
2.23792e-07
2.25097e-07
2.2541e-07
2.27906e-07
2.30618e-07
2.44196e-07
2.78789e-07
3.58615e-07
2.17595e-07
2.17582e-07
2.17563e-07
2.17535e-07
2.17479e-07
2.17436e-07
2.17385e-07
2.17326e-07
2.1727e-07
2.1722e-07
2.17183e-07
2.17128e-07
2.17083e-07
2.17066e-07
2.17107e-07
2.1722e-07
2.17432e-07
2.17722e-07
2.17965e-07
2.181e-07
2.18085e-07
2.17943e-07
2.17675e-07
2.17332e-07
2.17027e-07
2.16881e-07
2.16922e-07
2.17113e-07
2.17419e-07
2.17668e-07
2.17839e-07
2.17864e-07
2.17667e-07
2.1722e-07
2.16905e-07
2.17135e-07
2.18332e-07
2.17713e-07
2.20768e-07
2.25812e-07
2.2739e-07
2.4214e-07
2.5322e-07
2.75356e-07
2.17554e-07
2.17534e-07
2.17511e-07
2.17488e-07
2.17481e-07
2.17482e-07
2.17501e-07
2.17536e-07
2.17581e-07
2.17629e-07
2.17672e-07
2.17716e-07
2.17755e-07
2.17787e-07
2.1781e-07
2.17801e-07
2.17737e-07
2.17615e-07
2.17463e-07
2.17326e-07
2.17179e-07
2.17089e-07
2.17076e-07
2.17149e-07
2.17236e-07
2.17358e-07
2.17428e-07
2.17574e-07
2.17709e-07
2.18132e-07
2.18857e-07
2.1979e-07
2.20852e-07
2.21684e-07
2.22453e-07
2.22433e-07
2.23869e-07
2.23726e-07
2.23328e-07
2.26351e-07
2.28492e-07
2.414e-07
2.62145e-07
2.94752e-07
2.17593e-07
2.17576e-07
2.1756e-07
2.17545e-07
2.17515e-07
2.17491e-07
2.17455e-07
2.17408e-07
2.17359e-07
2.17315e-07
2.17278e-07
2.17234e-07
2.17193e-07
2.17171e-07
2.17178e-07
2.17213e-07
2.17297e-07
2.17438e-07
2.17599e-07
2.17729e-07
2.1779e-07
2.17764e-07
2.17634e-07
2.17499e-07
2.17366e-07
2.17299e-07
2.17339e-07
2.17457e-07
2.1768e-07
2.17804e-07
2.17854e-07
2.17826e-07
2.17642e-07
2.17351e-07
2.17233e-07
2.1734e-07
2.18556e-07
2.18762e-07
2.2012e-07
2.241e-07
2.25017e-07
2.34098e-07
2.46411e-07
2.59913e-07
2.17602e-07
2.17599e-07
2.1759e-07
2.1758e-07
2.17574e-07
2.1757e-07
2.17581e-07
2.17605e-07
2.17641e-07
2.1768e-07
2.17721e-07
2.17764e-07
2.17806e-07
2.17844e-07
2.17876e-07
2.1791e-07
2.17936e-07
2.17935e-07
2.17884e-07
2.17796e-07
2.17683e-07
2.1759e-07
2.17509e-07
2.17449e-07
2.17408e-07
2.17441e-07
2.17425e-07
2.1752e-07
2.17644e-07
2.18031e-07
2.1859e-07
2.19247e-07
2.20028e-07
2.20588e-07
2.2125e-07
2.21242e-07
2.22078e-07
2.22575e-07
2.2163e-07
2.2412e-07
2.25693e-07
2.33493e-07
2.48641e-07
2.64596e-07
2.17639e-07
2.17614e-07
2.1759e-07
2.17566e-07
2.17537e-07
2.17516e-07
2.17499e-07
2.17475e-07
2.17445e-07
2.17415e-07
2.17386e-07
2.17353e-07
2.17322e-07
2.17303e-07
2.173e-07
2.17312e-07
2.17338e-07
2.17378e-07
2.17419e-07
2.17473e-07
2.17509e-07
2.17499e-07
2.17468e-07
2.17465e-07
2.17474e-07
2.17507e-07
2.17585e-07
2.17703e-07
2.17814e-07
2.17862e-07
2.17791e-07
2.17635e-07
2.17435e-07
2.17295e-07
2.1732e-07
2.17345e-07
2.18078e-07
2.19099e-07
2.19834e-07
2.22381e-07
2.23331e-07
2.2871e-07
2.38092e-07
2.48466e-07
2.17576e-07
2.17582e-07
2.17584e-07
2.17583e-07
2.17588e-07
2.17586e-07
2.17588e-07
2.176e-07
2.17624e-07
2.17652e-07
2.17681e-07
2.17715e-07
2.17751e-07
2.17785e-07
2.1782e-07
2.17858e-07
2.179e-07
2.17945e-07
2.17976e-07
2.17975e-07
2.17927e-07
2.17864e-07
2.1778e-07
2.1769e-07
2.1757e-07
2.17475e-07
2.17365e-07
2.17322e-07
2.17373e-07
2.17643e-07
2.18088e-07
2.18705e-07
2.19337e-07
2.19718e-07
2.20269e-07
2.20296e-07
2.20527e-07
2.2137e-07
2.20082e-07
2.21585e-07
2.23662e-07
2.28401e-07
2.3778e-07
2.49003e-07
2.17775e-07
2.17747e-07
2.17723e-07
2.177e-07
2.17675e-07
2.17659e-07
2.17648e-07
2.17633e-07
2.1761e-07
2.17588e-07
2.17569e-07
2.17547e-07
2.17524e-07
2.1751e-07
2.17504e-07
2.17506e-07
2.17516e-07
2.17528e-07
2.17524e-07
2.17511e-07
2.17486e-07
2.17463e-07
2.17438e-07
2.17429e-07
2.17443e-07
2.17513e-07
2.17622e-07
2.17782e-07
2.17915e-07
2.17966e-07
2.17866e-07
2.1769e-07
2.17444e-07
2.17276e-07
2.17271e-07
2.17423e-07
2.17763e-07
2.19033e-07
2.19333e-07
2.21427e-07
2.22033e-07
2.25108e-07
2.31107e-07
2.40445e-07
2.1747e-07
2.17482e-07
2.17488e-07
2.17493e-07
2.17498e-07
2.17498e-07
2.17498e-07
2.17505e-07
2.17522e-07
2.1754e-07
2.17561e-07
2.17585e-07
2.1761e-07
2.17637e-07
2.17671e-07
2.17706e-07
2.1774e-07
2.17775e-07
2.17806e-07
2.17826e-07
2.17811e-07
2.17758e-07
2.1766e-07
2.17557e-07
2.17444e-07
2.17355e-07
2.17247e-07
2.17168e-07
2.17127e-07
2.17276e-07
2.17568e-07
2.18023e-07
2.1852e-07
2.18866e-07
2.19284e-07
2.19567e-07
2.19168e-07
2.20149e-07
2.19106e-07
2.19962e-07
2.21699e-07
2.25685e-07
2.31711e-07
2.39232e-07
2.17901e-07
2.17874e-07
2.17851e-07
2.17827e-07
2.17804e-07
2.17787e-07
2.17774e-07
2.17759e-07
2.17741e-07
2.17725e-07
2.1771e-07
2.17695e-07
2.1768e-07
2.1767e-07
2.17662e-07
2.17657e-07
2.17654e-07
2.17654e-07
2.17645e-07
2.17626e-07
2.1759e-07
2.17566e-07
2.17532e-07
2.17516e-07
2.17511e-07
2.17553e-07
2.1762e-07
2.17748e-07
2.17873e-07
2.17987e-07
2.1793e-07
2.17811e-07
2.17545e-07
2.1739e-07
2.1718e-07
2.17381e-07
2.17225e-07
2.18569e-07
2.18447e-07
2.19764e-07
2.20799e-07
2.2259e-07
2.26789e-07
2.33437e-07
2.17388e-07
2.17399e-07
2.17403e-07
2.17411e-07
2.17413e-07
2.17412e-07
2.1741e-07
2.17417e-07
2.17427e-07
2.17438e-07
2.17449e-07
2.17464e-07
2.1748e-07
2.17498e-07
2.17519e-07
2.17537e-07
2.1755e-07
2.17559e-07
2.1755e-07
2.17531e-07
2.17498e-07
2.17451e-07
2.17389e-07
2.17325e-07
2.17243e-07
2.17184e-07
2.17099e-07
2.17041e-07
2.16977e-07
2.17037e-07
2.17144e-07
2.17476e-07
2.17803e-07
2.18153e-07
2.18371e-07
2.18861e-07
2.18199e-07
2.19223e-07
2.18569e-07
2.19248e-07
2.20351e-07
2.23342e-07
2.27523e-07
2.31325e-07
2.17962e-07
2.17944e-07
2.1793e-07
2.17911e-07
2.17896e-07
2.17885e-07
2.17877e-07
2.17865e-07
2.17854e-07
2.17842e-07
2.17832e-07
2.17821e-07
2.17807e-07
2.17798e-07
2.17792e-07
2.17794e-07
2.17802e-07
2.17807e-07
2.17799e-07
2.17786e-07
2.17757e-07
2.17722e-07
2.1767e-07
2.17638e-07
2.17614e-07
2.17635e-07
2.17668e-07
2.1775e-07
2.17816e-07
2.17903e-07
2.17886e-07
2.1783e-07
2.1756e-07
2.17472e-07
2.17015e-07
2.17284e-07
2.16728e-07
2.17959e-07
2.17868e-07
2.18496e-07
2.19575e-07
2.21055e-07
2.24638e-07
2.28732e-07
2.17361e-07
2.17356e-07
2.17349e-07
2.17344e-07
2.17332e-07
2.17319e-07
2.17308e-07
2.17303e-07
2.17301e-07
2.17301e-07
2.17302e-07
2.17301e-07
2.17298e-07
2.17291e-07
2.1728e-07
2.17272e-07
2.17266e-07
2.17261e-07
2.17251e-07
2.17234e-07
2.17203e-07
2.17175e-07
2.17139e-07
2.17112e-07
2.17068e-07
2.17029e-07
2.16939e-07
2.16898e-07
2.16832e-07
2.16884e-07
2.16889e-07
2.17078e-07
2.17174e-07
2.17492e-07
2.1745e-07
2.18164e-07
2.1749e-07
2.18374e-07
2.18093e-07
2.18609e-07
2.19573e-07
2.21539e-07
2.24757e-07
2.27063e-07
2.17952e-07
2.17947e-07
2.17942e-07
2.17934e-07
2.17931e-07
2.17927e-07
2.17925e-07
2.17922e-07
2.1792e-07
2.1792e-07
2.1792e-07
2.17923e-07
2.17927e-07
2.17928e-07
2.17929e-07
2.17928e-07
2.17924e-07
2.17917e-07
2.17899e-07
2.17878e-07
2.17846e-07
2.17804e-07
2.17744e-07
2.17689e-07
2.1763e-07
2.1762e-07
2.17626e-07
2.17665e-07
2.17673e-07
2.17723e-07
2.17666e-07
2.17718e-07
2.175e-07
2.17542e-07
2.16921e-07
2.17241e-07
2.16389e-07
2.17284e-07
2.17319e-07
2.17692e-07
2.18555e-07
2.19912e-07
2.22773e-07
2.25935e-07
2.17383e-07
2.17369e-07
2.17356e-07
2.17341e-07
2.17323e-07
2.17306e-07
2.17291e-07
2.17277e-07
2.17262e-07
2.17243e-07
2.17223e-07
2.17202e-07
2.17184e-07
2.17171e-07
2.17161e-07
2.17153e-07
2.17149e-07
2.17142e-07
2.17131e-07
2.17113e-07
2.17085e-07
2.17062e-07
2.17034e-07
2.17017e-07
2.1699e-07
2.16985e-07
2.16944e-07
2.16921e-07
2.16844e-07
2.16864e-07
2.1679e-07
2.16894e-07
2.1671e-07
2.16993e-07
2.1668e-07
2.17567e-07
2.16974e-07
2.17663e-07
2.17623e-07
2.1796e-07
2.18807e-07
2.20252e-07
2.22468e-07
2.24583e-07
2.17916e-07
2.17915e-07
2.17913e-07
2.17911e-07
2.17911e-07
2.17909e-07
2.17908e-07
2.17908e-07
2.17912e-07
2.17917e-07
2.1792e-07
2.17924e-07
2.17926e-07
2.17926e-07
2.17924e-07
2.17922e-07
2.17917e-07
2.1791e-07
2.17897e-07
2.1788e-07
2.17849e-07
2.17805e-07
2.17743e-07
2.17681e-07
2.17608e-07
2.17555e-07
2.17496e-07
2.17499e-07
2.17475e-07
2.17511e-07
2.17419e-07
2.17501e-07
2.17224e-07
2.174e-07
2.16727e-07
2.17108e-07
2.16165e-07
2.16711e-07
2.16844e-07
2.17094e-07
2.17838e-07
2.19017e-07
2.21247e-07
2.23581e-07
2.17405e-07
2.17389e-07
2.17372e-07
2.17353e-07
2.17334e-07
2.17315e-07
2.17295e-07
2.17276e-07
2.17257e-07
2.17239e-07
2.17221e-07
2.17205e-07
2.1719e-07
2.17177e-07
2.17166e-07
2.17156e-07
2.17147e-07
2.17134e-07
2.17117e-07
2.17096e-07
2.17071e-07
2.17051e-07
2.17025e-07
2.17009e-07
2.16983e-07
2.16978e-07
2.1694e-07
2.16935e-07
2.16844e-07
2.16839e-07
2.16664e-07
2.16753e-07
2.16456e-07
2.16798e-07
2.16282e-07
2.17124e-07
2.16611e-07
2.17108e-07
2.172e-07
2.1743e-07
2.18139e-07
2.19286e-07
2.20939e-07
2.2264e-07
2.17878e-07
2.17878e-07
2.17877e-07
2.17876e-07
2.17875e-07
2.17875e-07
2.17874e-07
2.17873e-07
2.17873e-07
2.17874e-07
2.17875e-07
2.17875e-07
2.17874e-07
2.17872e-07
2.17867e-07
2.17861e-07
2.17853e-07
2.17841e-07
2.17824e-07
2.17799e-07
2.17761e-07
2.17713e-07
2.17651e-07
2.17591e-07
2.17522e-07
2.17466e-07
2.17394e-07
2.17357e-07
2.17288e-07
2.17322e-07
2.17191e-07
2.17299e-07
2.16915e-07
2.17174e-07
2.16417e-07
2.16834e-07
2.16014e-07
2.16296e-07
2.16464e-07
2.16637e-07
2.17307e-07
2.18328e-07
2.2009e-07
2.22052e-07
2.17427e-07
2.1741e-07
2.17393e-07
2.17375e-07
2.17358e-07
2.17342e-07
2.17327e-07
2.17314e-07
2.173e-07
2.17285e-07
2.1727e-07
2.17256e-07
2.17242e-07
2.17229e-07
2.17217e-07
2.17205e-07
2.17193e-07
2.17179e-07
2.17163e-07
2.17147e-07
2.17124e-07
2.17099e-07
2.17064e-07
2.17039e-07
2.17e-07
2.16981e-07
2.16931e-07
2.16913e-07
2.16806e-07
2.16781e-07
2.16555e-07
2.16661e-07
2.16277e-07
2.16658e-07
2.16051e-07
2.16681e-07
2.16298e-07
2.16667e-07
2.16823e-07
2.17009e-07
2.176e-07
2.18539e-07
2.19851e-07
2.21329e-07
2.17836e-07
2.17834e-07
2.17831e-07
2.17828e-07
2.17824e-07
2.17819e-07
2.17814e-07
2.17809e-07
2.17805e-07
2.17801e-07
2.17799e-07
2.17795e-07
2.17789e-07
2.17783e-07
2.17775e-07
2.17765e-07
2.17751e-07
2.17732e-07
2.17705e-07
2.17675e-07
2.17635e-07
2.1759e-07
2.17536e-07
2.17477e-07
2.17408e-07
2.17345e-07
2.17267e-07
2.17221e-07
2.17129e-07
2.17151e-07
2.16972e-07
2.17094e-07
2.16637e-07
2.16934e-07
2.1618e-07
2.16648e-07
2.15943e-07
2.16029e-07
2.1617e-07
2.16317e-07
2.16902e-07
2.17805e-07
2.19246e-07
2.2091e-07
2.17456e-07
2.17443e-07
2.17431e-07
2.17418e-07
2.17406e-07
2.17395e-07
2.17385e-07
2.17374e-07
2.17363e-07
2.17351e-07
2.17339e-07
2.17325e-07
2.17314e-07
2.17302e-07
2.1729e-07
2.17277e-07
2.17265e-07
2.1725e-07
2.17232e-07
2.17208e-07
2.1718e-07
2.17147e-07
2.17112e-07
2.17078e-07
2.17026e-07
2.16994e-07
2.1693e-07
2.16884e-07
2.1676e-07
2.1674e-07
2.16483e-07
2.16612e-07
2.16159e-07
2.16533e-07
2.15904e-07
2.1639e-07
2.16016e-07
2.16311e-07
2.16503e-07
2.167e-07
2.17188e-07
2.17968e-07
2.19096e-07
2.20379e-07
2.17782e-07
2.17777e-07
2.1777e-07
2.17762e-07
2.17753e-07
2.17743e-07
2.17733e-07
2.17724e-07
2.17715e-07
2.17707e-07
2.17699e-07
2.17691e-07
2.17681e-07
2.17669e-07
2.17656e-07
2.1764e-07
2.17622e-07
2.176e-07
2.17574e-07
2.17541e-07
2.17497e-07
2.17455e-07
2.17398e-07
2.17337e-07
2.17272e-07
2.1721e-07
2.17127e-07
2.17078e-07
2.16968e-07
2.16975e-07
2.16755e-07
2.16882e-07
2.16401e-07
2.167e-07
2.16009e-07
2.16404e-07
2.15909e-07
2.15896e-07
2.15986e-07
2.16105e-07
2.16606e-07
2.17399e-07
2.18619e-07
2.20054e-07
2.17499e-07
2.1749e-07
2.17481e-07
2.17472e-07
2.17464e-07
2.17456e-07
2.17448e-07
2.1744e-07
2.17431e-07
2.17421e-07
2.17411e-07
2.17399e-07
2.17387e-07
2.17375e-07
2.17362e-07
2.17348e-07
2.17331e-07
2.17311e-07
2.17289e-07
2.17265e-07
2.17231e-07
2.17198e-07
2.17157e-07
2.17108e-07
2.17052e-07
2.16992e-07
2.16915e-07
2.16862e-07
2.16736e-07
2.16719e-07
2.16448e-07
2.16564e-07
2.16089e-07
2.16428e-07
2.15825e-07
2.16189e-07
2.15831e-07
2.16013e-07
2.16221e-07
2.16463e-07
2.16876e-07
2.17558e-07
2.1859e-07
2.19665e-07
2.17718e-07
2.17709e-07
2.17698e-07
2.17687e-07
2.17674e-07
2.17661e-07
2.17648e-07
2.17635e-07
2.17623e-07
2.17611e-07
2.17599e-07
2.17586e-07
2.17574e-07
2.17559e-07
2.17542e-07
2.17524e-07
2.17503e-07
2.17477e-07
2.17446e-07
2.17404e-07
2.17366e-07
2.17315e-07
2.17243e-07
2.17199e-07
2.17126e-07
2.17074e-07
2.1699e-07
2.16931e-07
2.16806e-07
2.16799e-07
2.16545e-07
2.16683e-07
2.16213e-07
2.16491e-07
2.15876e-07
2.16167e-07
2.15804e-07
2.15835e-07
2.15918e-07
2.15981e-07
2.16405e-07
2.17103e-07
2.18168e-07
2.19407e-07
2.17545e-07
2.17539e-07
2.17532e-07
2.17525e-07
2.17518e-07
2.17511e-07
2.17503e-07
2.17495e-07
2.17486e-07
2.17476e-07
2.17465e-07
2.17454e-07
2.1744e-07
2.17426e-07
2.17411e-07
2.17395e-07
2.17373e-07
2.17353e-07
2.17324e-07
2.17287e-07
2.17251e-07
2.17199e-07
2.17167e-07
2.17113e-07
2.17048e-07
2.16981e-07
2.16899e-07
2.16838e-07
2.1671e-07
2.16687e-07
2.16428e-07
2.16523e-07
2.1606e-07
2.16332e-07
2.15788e-07
2.16048e-07
2.1575e-07
2.15808e-07
2.15993e-07
2.16277e-07
2.16653e-07
2.17264e-07
2.18164e-07
2.1912e-07
2.17654e-07
2.17643e-07
2.1763e-07
2.17617e-07
2.17603e-07
2.17589e-07
2.17575e-07
2.17561e-07
2.17547e-07
2.17533e-07
2.17518e-07
2.17503e-07
2.17487e-07
2.1747e-07
2.1745e-07
2.17428e-07
2.17404e-07
2.17367e-07
2.17337e-07
2.17311e-07
2.17267e-07
2.17219e-07
2.17164e-07
2.17098e-07
2.17029e-07
2.16966e-07
2.16879e-07
2.16812e-07
2.16683e-07
2.16646e-07
2.16393e-07
2.16513e-07
2.16073e-07
2.16304e-07
2.15785e-07
2.15996e-07
2.15724e-07
2.15756e-07
2.1588e-07
2.15929e-07
2.16293e-07
2.1692e-07
2.17831e-07
2.18909e-07
2.1758e-07
2.17573e-07
2.17565e-07
2.17557e-07
2.17549e-07
2.17539e-07
2.1753e-07
2.17519e-07
2.17508e-07
2.17496e-07
2.17483e-07
2.1747e-07
2.17453e-07
2.17434e-07
2.17414e-07
2.1739e-07
2.17369e-07
2.17352e-07
2.17306e-07
2.17273e-07
2.1722e-07
2.1719e-07
2.17123e-07
2.17068e-07
2.16999e-07
2.16932e-07
2.16844e-07
2.16775e-07
2.16644e-07
2.16623e-07
2.16355e-07
2.16446e-07
2.16018e-07
2.16227e-07