/*--------------------------------*- C++ -*----------------------------------*\
| =========                 |                                                 |
| \\      /  F ield         | OpenFOAM: The Open Source CFD Toolbox           |
|  \\    /   O peration     | Version:  v1912                                 |
|   \\  /    A nd           | Website:  www.openfoam.com                      |
|    \\/     M anipulation  |                                                 |
\*---------------------------------------------------------------------------*/
FoamFile
{
    version     2.0;
    format      ascii;
    class       volScalarField;
    location    "20";
    object      nut;
}
// * * * * * * * * * * * * * * * * * * * * * * * * * * * * * * * * * * * * * //

dimensions      [0 2 -1 0 0 0 0];


internalField   nonuniform List<scalar> 
14268
(
4.66095e-09
4.64272e-09
4.64422e-09
4.66775e-09
4.71058e-09
4.7645e-09
4.81763e-09
4.85721e-09
4.87241e-09
4.85708e-09
4.82097e-09
4.78275e-09
4.74328e-09
4.70211e-09
4.65799e-09
4.60893e-09
4.55347e-09
4.49182e-09
4.42792e-09
4.36915e-09
4.32521e-09
4.31549e-09
4.45644e-09
4.73147e-09
5.06108e-09
5.36698e-09
5.59387e-09
5.68931e-09
5.64665e-09
5.55539e-09
5.45693e-09
5.37519e-09
5.3129e-09
5.3241e-09
5.41797e-09
5.56654e-09
5.7848e-09
6.60356e-09
9.51861e-09
1.61223e-08
2.27672e-08
2.89791e-08
2.74458e-08
2.18915e-08
2.36458e-07
2.36465e-07
2.36607e-07
2.36902e-07
2.3734e-07
2.37862e-07
2.38387e-07
2.38822e-07
2.39088e-07
2.39133e-07
2.38756e-07
2.37681e-07
2.36049e-07
2.338e-07
2.30667e-07
2.26268e-07
2.20381e-07
2.13241e-07
2.05726e-07
1.99307e-07
1.95579e-07
1.9536e-07
1.97064e-07
1.99842e-07
2.0311e-07
2.06299e-07
2.08906e-07
2.10581e-07
2.10983e-07
2.0881e-07
2.04137e-07
2.00601e-07
1.99362e-07
2.02473e-07
2.06022e-07
2.11553e-07
2.1867e-07
2.33688e-07
2.63863e-07
3.19367e-07
3.62972e-07
3.9526e-07
4.11346e-07
3.88207e-07
3.97379e-07
3.97384e-07
3.97423e-07
3.97499e-07
3.97614e-07
3.97747e-07
3.97882e-07
3.97994e-07
3.98067e-07
3.98085e-07
3.97998e-07
3.97755e-07
3.97389e-07
3.96875e-07
3.96117e-07
3.94979e-07
3.93349e-07
3.912e-07
3.88702e-07
3.86321e-07
3.84758e-07
3.84482e-07
3.84883e-07
3.85617e-07
3.86482e-07
3.87406e-07
3.88092e-07
3.88586e-07
3.88488e-07
3.8784e-07
3.85864e-07
3.84887e-07
3.83874e-07
3.8552e-07
3.86019e-07
3.88662e-07
3.9019e-07
3.95865e-07
4.0529e-07
4.26356e-07
4.51356e-07
4.73517e-07
4.91981e-07
4.85639e-07
4.15783e-07
4.15777e-07
4.15779e-07
4.15789e-07
4.15805e-07
4.15831e-07
4.15851e-07
4.15865e-07
4.15865e-07
4.15858e-07
4.15832e-07
4.1577e-07
4.15705e-07
4.15619e-07
4.15497e-07
4.15302e-07
4.15035e-07
4.14716e-07
4.14362e-07
4.14008e-07
4.13782e-07
4.13744e-07
4.13782e-07
4.13825e-07
4.13883e-07
4.1402e-07
4.14091e-07
4.14222e-07
4.14064e-07
4.1404e-07
4.13318e-07
4.13546e-07
4.12781e-07
4.13711e-07
4.12907e-07
4.14177e-07
4.13376e-07
4.15569e-07
4.18816e-07
4.33194e-07
4.54936e-07
4.7462e-07
4.9535e-07
4.86224e-07
4.17265e-07
4.17266e-07
4.17269e-07
4.17275e-07
4.17284e-07
4.17294e-07
4.17303e-07
4.1731e-07
4.17316e-07
4.17315e-07
4.17304e-07
4.17286e-07
4.17273e-07
4.17264e-07
4.17236e-07
4.17186e-07
4.17133e-07
4.17082e-07
4.1704e-07
4.1701e-07
4.16999e-07
4.16995e-07
4.16976e-07
4.16906e-07
4.16804e-07
4.16815e-07
4.16769e-07
4.16854e-07
4.16678e-07
4.16799e-07
4.16306e-07
4.16746e-07
4.16093e-07
4.16848e-07
4.15919e-07
4.16889e-07
4.15792e-07
4.17387e-07
4.19709e-07
4.33643e-07
4.55301e-07
4.76068e-07
4.92349e-07
4.96339e-07
4.17149e-07
4.17144e-07
4.17143e-07
4.17147e-07
4.17152e-07
4.17167e-07
4.17174e-07
4.17177e-07
4.17168e-07
4.17159e-07
4.17143e-07
4.17109e-07
4.1709e-07
4.1707e-07
4.17045e-07
4.16991e-07
4.16931e-07
4.16902e-07
4.16911e-07
4.16917e-07
4.16936e-07
4.16932e-07
4.16892e-07
4.16804e-07
4.16704e-07
4.16714e-07
4.16671e-07
4.16754e-07
4.16565e-07
4.16688e-07
4.1619e-07
4.16642e-07
4.15919e-07
4.16732e-07
4.15658e-07
4.16702e-07
4.15486e-07
4.17148e-07
4.19512e-07
4.33503e-07
4.54976e-07
4.74859e-07
4.95708e-07
4.91023e-07
4.17333e-07
4.17334e-07
4.17336e-07
4.17341e-07
4.1735e-07
4.17358e-07
4.17365e-07
4.17371e-07
4.17376e-07
4.17375e-07
4.17365e-07
4.17349e-07
4.17339e-07
4.17335e-07
4.1731e-07
4.17265e-07
4.1722e-07
4.17187e-07
4.17173e-07
4.17175e-07
4.17187e-07
4.17187e-07
4.17161e-07
4.17081e-07
4.1697e-07
4.16972e-07
4.16921e-07
4.17002e-07
4.16833e-07
4.16959e-07
4.16489e-07
4.1693e-07
4.16266e-07
4.17012e-07
4.16032e-07
4.16989e-07
4.15825e-07
4.17384e-07
4.19635e-07
4.33522e-07
4.5503e-07
4.7591e-07
4.9308e-07
4.97236e-07
4.1718e-07
4.17175e-07
4.17175e-07
4.17178e-07
4.17184e-07
4.17199e-07
4.17206e-07
4.1721e-07
4.17203e-07
4.17196e-07
4.17181e-07
4.17149e-07
4.17132e-07
4.17113e-07
4.17092e-07
4.17047e-07
4.17e-07
4.16983e-07
4.16999e-07
4.17011e-07
4.17032e-07
4.17028e-07
4.16986e-07
4.16898e-07
4.16793e-07
4.16803e-07
4.16757e-07
4.16845e-07
4.16656e-07
4.16783e-07
4.16291e-07
4.16756e-07
4.16046e-07
4.16838e-07
4.15769e-07
4.16787e-07
4.15555e-07
4.17181e-07
4.19475e-07
4.3343e-07
4.54998e-07
4.75411e-07
4.9683e-07
4.92509e-07
4.17328e-07
4.17329e-07
4.17331e-07
4.17336e-07
4.17345e-07
4.17354e-07
4.17362e-07
4.17367e-07
4.17373e-07
4.17372e-07
4.17363e-07
4.17348e-07
4.17339e-07
4.17335e-07
4.17311e-07
4.17268e-07
4.17221e-07
4.17188e-07
4.17177e-07
4.17178e-07
4.17191e-07
4.17189e-07
4.17156e-07
4.17073e-07
4.1696e-07
4.16963e-07
4.16913e-07
4.16999e-07
4.16829e-07
4.16961e-07
4.16488e-07
4.1693e-07
4.16259e-07
4.16997e-07
4.15986e-07
4.16958e-07
4.15767e-07
4.1732e-07
4.19514e-07
4.33383e-07
4.55052e-07
4.77392e-07
4.9553e-07
4.97772e-07
4.17208e-07
4.17203e-07
4.17202e-07
4.17206e-07
4.17212e-07
4.17225e-07
4.17232e-07
4.17238e-07
4.17235e-07
4.17229e-07
4.17212e-07
4.17183e-07
4.17167e-07
4.17151e-07
4.17131e-07
4.17091e-07
4.17048e-07
4.17031e-07
4.17047e-07
4.17059e-07
4.17079e-07
4.17074e-07
4.17035e-07
4.16952e-07
4.16847e-07
4.1686e-07
4.16815e-07
4.16906e-07
4.16722e-07
4.16853e-07
4.16367e-07
4.16818e-07
4.1611e-07
4.16888e-07
4.15817e-07
4.16818e-07
4.15575e-07
4.17182e-07
4.1942e-07
4.33316e-07
4.55283e-07
4.78825e-07
4.98631e-07
4.94508e-07
4.17322e-07
4.17322e-07
4.17325e-07
4.1733e-07
4.1734e-07
4.17349e-07
4.17358e-07
4.17364e-07
4.17369e-07
4.17369e-07
4.17361e-07
4.17346e-07
4.17337e-07
4.17333e-07
4.17311e-07
4.17269e-07
4.17224e-07
4.17192e-07
4.17182e-07
4.17184e-07
4.17195e-07
4.1719e-07
4.17154e-07
4.17069e-07
4.16955e-07
4.16961e-07
4.16912e-07
4.17001e-07
4.16829e-07
4.16963e-07
4.16489e-07
4.16922e-07
4.16235e-07
4.16981e-07
4.15944e-07
4.16927e-07
4.15709e-07
4.17252e-07
4.19426e-07
4.333e-07
4.55344e-07
4.81549e-07
4.98153e-07
4.98987e-07
4.17229e-07
4.17225e-07
4.17225e-07
4.1723e-07
4.17237e-07
4.17247e-07
4.17256e-07
4.17262e-07
4.17263e-07
4.17258e-07
4.17241e-07
4.17215e-07
4.17201e-07
4.17188e-07
4.17169e-07
4.17134e-07
4.17095e-07
4.17079e-07
4.17092e-07
4.17105e-07
4.17122e-07
4.17114e-07
4.17078e-07
4.16999e-07
4.16892e-07
4.16906e-07
4.16863e-07
4.16958e-07
4.16775e-07
4.16911e-07
4.16423e-07
4.16866e-07
4.16155e-07
4.16923e-07
4.15856e-07
4.16859e-07
4.15607e-07
4.17195e-07
4.1933e-07
4.33337e-07
4.56177e-07
4.82653e-07
4.90996e-07
4.96541e-07
4.17302e-07
4.17305e-07
4.17309e-07
4.17317e-07
4.17328e-07
4.17342e-07
4.17352e-07
4.17359e-07
4.17363e-07
4.17364e-07
4.17358e-07
4.17343e-07
4.17335e-07
4.17331e-07
4.17311e-07
4.1727e-07
4.17226e-07
4.17197e-07
4.1719e-07
4.17192e-07
4.17205e-07
4.17197e-07
4.1716e-07
4.17076e-07
4.16964e-07
4.16972e-07
4.16925e-07
4.17014e-07
4.16843e-07
4.16973e-07
4.16483e-07
4.169e-07
4.16202e-07
4.16946e-07
4.15875e-07
4.16867e-07
4.15609e-07
4.17136e-07
4.19303e-07
4.3363e-07
4.57552e-07
4.81694e-07
4.82611e-07
4.89535e-07
4.17274e-07
4.17269e-07
4.17268e-07
4.1727e-07
4.17276e-07
4.17281e-07
4.17288e-07
4.17294e-07
4.17297e-07
4.17293e-07
4.17277e-07
4.17254e-07
4.17242e-07
4.17228e-07
4.17209e-07
4.17178e-07
4.17138e-07
4.17118e-07
4.17129e-07
4.17138e-07
4.1715e-07
4.1714e-07
4.171e-07
4.17016e-07
4.16918e-07
4.1693e-07
4.16885e-07
4.16973e-07
4.1683e-07
4.1698e-07
4.16541e-07
4.16972e-07
4.16275e-07
4.17015e-07
4.15937e-07
4.16935e-07
4.15707e-07
4.17251e-07
4.19279e-07
4.33194e-07
4.57843e-07
4.75162e-07
4.71091e-07
4.84364e-07
4.1728e-07
4.1728e-07
4.17283e-07
4.1729e-07
4.17299e-07
4.17313e-07
4.17323e-07
4.1733e-07
4.17334e-07
4.17336e-07
4.17327e-07
4.1731e-07
4.17301e-07
4.17299e-07
4.17284e-07
4.17245e-07
4.17209e-07
4.17189e-07
4.1719e-07
4.17198e-07
4.17214e-07
4.17201e-07
4.17155e-07
4.17067e-07
4.16936e-07
4.16952e-07
4.16906e-07
4.17008e-07
4.16797e-07
4.16921e-07
4.16401e-07
4.16815e-07
4.16078e-07
4.16864e-07
4.15738e-07
4.16787e-07
4.15475e-07
4.17051e-07
4.19208e-07
4.32938e-07
4.56428e-07
4.66033e-07
4.58058e-07
4.58411e-07
4.17286e-07
4.17285e-07
4.17286e-07
4.17289e-07
4.17301e-07
4.1731e-07
4.17321e-07
4.1733e-07
4.17333e-07
4.17333e-07
4.17324e-07
4.17306e-07
4.17298e-07
4.1729e-07
4.17275e-07
4.1724e-07
4.17204e-07
4.17189e-07
4.17199e-07
4.17211e-07
4.17225e-07
4.17215e-07
4.17197e-07
4.17125e-07
4.17039e-07
4.17045e-07
4.17001e-07
4.17085e-07
4.16952e-07
4.17094e-07
4.16683e-07
4.17078e-07
4.16443e-07
4.17095e-07
4.16095e-07
4.17024e-07
4.15783e-07
4.17219e-07
4.1922e-07
4.34349e-07
4.54081e-07
4.43776e-07
4.39406e-07
4.39876e-07
4.17271e-07
4.17267e-07
4.17268e-07
4.17274e-07
4.17277e-07
4.17291e-07
4.17298e-07
4.17302e-07
4.17306e-07
4.17306e-07
4.17298e-07
4.17282e-07
4.17276e-07
4.17274e-07
4.17258e-07
4.1722e-07
4.17185e-07
4.17165e-07
4.17173e-07
4.17184e-07
4.17201e-07
4.17174e-07
4.17091e-07
4.16968e-07
4.16829e-07
4.16837e-07
4.16795e-07
4.16888e-07
4.16676e-07
4.16783e-07
4.16243e-07
4.16645e-07
4.15845e-07
4.16642e-07
4.15448e-07
4.16578e-07
4.15224e-07
4.16854e-07
4.18925e-07
4.35759e-07
4.32264e-07
4.24591e-07
4.2752e-07
4.22071e-07
4.17234e-07
4.17235e-07
4.17238e-07
4.17245e-07
4.17261e-07
4.17272e-07
4.17285e-07
4.17295e-07
4.17303e-07
4.17304e-07
4.17292e-07
4.17274e-07
4.17269e-07
4.17275e-07
4.17264e-07
4.17237e-07
4.17211e-07
4.17195e-07
4.17196e-07
4.17205e-07
4.17226e-07
4.1723e-07
4.17218e-07
4.17148e-07
4.17047e-07
4.17029e-07
4.16971e-07
4.17043e-07
4.16909e-07
4.17055e-07
4.16719e-07
4.1705e-07
4.16488e-07
4.17076e-07
4.16159e-07
4.17023e-07
4.15809e-07
4.17174e-07
4.19087e-07
4.33303e-07
4.19636e-07
4.134e-07
4.19065e-07
4.18693e-07
4.17247e-07
4.17238e-07
4.17232e-07
4.17229e-07
4.1723e-07
4.17235e-07
4.17235e-07
4.17238e-07
4.17238e-07
4.17243e-07
4.17236e-07
4.17211e-07
4.17196e-07
4.17174e-07
4.17154e-07
4.17108e-07
4.17062e-07
4.17044e-07
4.17058e-07
4.17066e-07
4.17049e-07
4.16952e-07
4.16826e-07
4.16677e-07
4.16523e-07
4.16506e-07
4.16446e-07
4.16513e-07
4.16273e-07
4.16364e-07
4.1579e-07
4.162e-07
4.15304e-07
4.16107e-07
4.14925e-07
4.16172e-07
4.14892e-07
4.16694e-07
4.18317e-07
4.29211e-07
4.13084e-07
4.07986e-07
4.12883e-07
4.10994e-07
4.16921e-07
4.16927e-07
4.16936e-07
4.1695e-07
4.16963e-07
4.16979e-07
4.16986e-07
4.16981e-07
4.16962e-07
4.16939e-07
4.16932e-07
4.16936e-07
4.16942e-07
4.16955e-07
4.16961e-07
4.16972e-07
4.17001e-07
4.17035e-07
4.17086e-07
4.17147e-07
4.17218e-07
4.17243e-07
4.17172e-07
4.17009e-07
4.16823e-07
4.16716e-07
4.16627e-07
4.16666e-07
4.16573e-07
4.16714e-07
4.16463e-07
4.16775e-07
4.16321e-07
4.16895e-07
4.16049e-07
4.16884e-07
4.15811e-07
4.17144e-07
4.18201e-07
4.14052e-07
4.07579e-07
4.02617e-07
4.06317e-07
4.16293e-07
4.17247e-07
4.17239e-07
4.17239e-07
4.1725e-07
4.1728e-07
4.17316e-07
4.17361e-07
4.17399e-07
4.17424e-07
4.17429e-07
4.174e-07
4.17332e-07
4.17259e-07
4.17166e-07
4.17053e-07
4.16882e-07
4.16675e-07
4.16478e-07
4.16314e-07
4.16155e-07
4.16006e-07
4.15848e-07
4.15761e-07
4.15699e-07
4.15636e-07
4.15668e-07
4.15652e-07
4.15725e-07
4.15427e-07
4.15469e-07
4.14819e-07
4.15198e-07
4.14306e-07
4.15219e-07
4.14081e-07
4.15504e-07
4.14217e-07
4.16167e-07
4.15819e-07
4.00085e-07
4.02074e-07
3.96577e-07
3.95961e-07
4.17583e-07
4.17138e-07
4.17131e-07
4.17118e-07
4.17106e-07
4.17094e-07
4.17079e-07
4.17061e-07
4.17044e-07
4.17037e-07
4.17037e-07
4.17037e-07
4.17036e-07
4.17041e-07
4.17049e-07
4.17058e-07
4.17066e-07
4.17076e-07
4.17089e-07
4.17107e-07
4.17118e-07
4.17123e-07
4.17071e-07
4.16926e-07
4.16658e-07
4.16308e-07
4.16049e-07
4.1578e-07
4.15711e-07
4.15539e-07
4.15657e-07
4.15305e-07
4.15597e-07
4.14891e-07
4.15421e-07
4.14126e-07
4.14806e-07
4.12812e-07
4.12336e-07
4.03259e-07
3.74308e-07
3.69084e-07
3.71111e-07
3.80886e-07
4.43587e-07
4.11016e-07
4.10941e-07
4.10691e-07
4.10224e-07
4.09547e-07
4.08722e-07
4.07855e-07
4.07071e-07
4.06474e-07
4.06169e-07
4.06096e-07
4.06052e-07
4.06052e-07
4.06088e-07
4.06143e-07
4.06241e-07
4.06421e-07
4.06685e-07
4.07009e-07
4.07299e-07
4.07457e-07
4.07207e-07
4.05119e-07
4.01201e-07
3.96256e-07
3.91326e-07
3.86987e-07
3.84248e-07
3.82918e-07
3.83148e-07
3.82826e-07
3.83625e-07
3.82035e-07
3.8121e-07
3.77593e-07
3.73902e-07
3.65994e-07
3.49284e-07
2.84658e-07
3.00873e-07
3.58412e-07
3.79274e-07
4.21339e-07
5.06214e-07
2.46185e-07
2.4506e-07
2.43671e-07
2.41976e-07
2.39984e-07
2.37793e-07
2.35559e-07
2.33456e-07
2.31646e-07
2.30229e-07
2.29237e-07
2.28547e-07
2.28034e-07
2.27722e-07
2.2773e-07
2.28222e-07
2.29363e-07
2.31149e-07
2.33302e-07
2.35148e-07
2.35841e-07
2.34631e-07
2.30718e-07
2.2458e-07
2.17394e-07
2.10403e-07
2.04361e-07
2.00006e-07
1.97623e-07
1.97916e-07
1.98354e-07
1.97503e-07
1.87614e-07
1.76087e-07
1.73842e-07
1.60036e-07
1.47317e-07
1.23546e-07
1.42152e-07
3.42517e-07
3.63232e-07
3.51211e-07
3.63141e-07
3.89528e-07
1.64446e-07
1.63323e-07
1.61849e-07
1.5991e-07
1.57486e-07
1.54712e-07
1.51813e-07
1.49051e-07
1.46852e-07
1.45602e-07
1.45221e-07
1.45083e-07
1.45056e-07
1.45209e-07
1.4575e-07
1.46903e-07
1.48906e-07
1.51728e-07
1.5496e-07
1.57834e-07
1.59243e-07
1.57601e-07
1.5067e-07
1.40692e-07
1.29688e-07
1.19599e-07
1.10765e-07
1.04039e-07
9.84732e-08
9.29779e-08
8.43676e-08
6.0581e-08
3.04364e-08
1.75032e-08
1.57458e-08
1.59919e-08
2.27343e-08
3.40592e-08
2.24613e-07
3.69745e-07
2.64975e-07
1.74554e-07
1.32338e-07
1.24808e-07
6.08017e-08
5.25926e-08
4.49876e-08
3.78719e-08
3.12541e-08
2.51937e-08
1.98189e-08
1.51925e-08
1.12805e-08
8.02835e-09
5.97796e-09
4.86312e-09
4.08809e-09
3.59533e-09
3.34547e-09
3.4656e-09
4.06899e-09
5.19072e-09
6.84303e-09
8.93489e-09
1.15431e-08
1.42468e-08
1.79674e-08
2.1905e-08
2.3398e-08
2.29012e-08
2.07914e-08
1.79134e-08
1.37845e-08
8.34114e-09
3.96664e-09
1.539e-09
5.17441e-10
5.72204e-10
5.9779e-09
2.32143e-08
2.70843e-08
1.41383e-08
2.96008e-08
1.51226e-07
4.18215e-07
6.70524e-07
8.52997e-07
1.16391e-06
5.26183e-09
5.23353e-09
5.21149e-09
5.23194e-09
5.31523e-09
5.45067e-09
5.61035e-09
5.75482e-09
5.82733e-09
5.77017e-09
5.60436e-09
5.41998e-09
5.1996e-09
4.89195e-09
4.45018e-09
3.96496e-09
3.71339e-09
3.93565e-09
4.52348e-09
5.13521e-09
5.25955e-09
4.17609e-09
2.82521e-09
1.87469e-09
1.15631e-09
7.72596e-10
6.51846e-10
6.41433e-10
8.43569e-10
1.50054e-09
1.82866e-09
9.18848e-10
3.11518e-10
3.04627e-10
1.28218e-09
3.48055e-09
4.55106e-09
3.53072e-09
2.44134e-09
4.08857e-09
6.23859e-09
3.85759e-09
6.54654e-08
6.36177e-08
2.25244e-07
2.25937e-07
2.27133e-07
2.28824e-07
2.30995e-07
2.3341e-07
2.35794e-07
2.37772e-07
2.39165e-07
2.39857e-07
2.38956e-07
2.35219e-07
2.29559e-07
2.22158e-07
2.11511e-07
1.9501e-07
1.7105e-07
1.43646e-07
1.20036e-07
1.03637e-07
9.5486e-08
9.50251e-08
1.00389e-07
1.09705e-07
1.20259e-07
1.296e-07
1.35426e-07
1.35754e-07
1.27103e-07
1.09361e-07
9.2585e-08
7.89989e-08
6.93962e-08
7.16583e-08
8.8567e-08
1.08725e-07
1.37288e-07
1.50274e-07
1.72587e-07
2.21535e-07
2.62437e-07
2.74401e-07
2.61953e-07
6.87117e-07
4.06176e-07
4.06283e-07
4.06416e-07
4.06571e-07
4.06753e-07
4.06974e-07
4.0721e-07
4.07442e-07
4.07652e-07
4.0781e-07
4.07743e-07
4.07169e-07
4.06116e-07
4.04477e-07
4.01752e-07
3.97015e-07
3.89e-07
3.76496e-07
3.60056e-07
3.42942e-07
3.309e-07
3.2814e-07
3.31159e-07
3.36605e-07
3.42572e-07
3.47721e-07
3.51555e-07
3.52517e-07
3.50415e-07
3.4036e-07
3.24902e-07
3.11134e-07
3.08649e-07
3.28903e-07
3.5971e-07
3.85595e-07
4.0307e-07
4.07734e-07
4.08838e-07
4.10505e-07
4.08954e-07
4.33564e-07
4.54368e-07
5.02849e-07
4.15064e-07
4.15006e-07
4.14983e-07
4.14982e-07
4.14989e-07
4.15016e-07
4.15054e-07
4.15103e-07
4.15145e-07
4.1519e-07
4.15236e-07
4.15261e-07
4.15247e-07
4.15166e-07
4.14908e-07
4.14281e-07
4.13104e-07
4.11283e-07
4.08911e-07
4.06287e-07
4.04393e-07
4.03825e-07
4.04024e-07
4.04577e-07
4.05185e-07
4.05657e-07
4.0582e-07
4.0562e-07
4.05025e-07
4.03623e-07
4.0115e-07
3.98879e-07
3.98641e-07
4.02408e-07
4.07154e-07
4.10375e-07
4.13485e-07
4.1404e-07
4.15016e-07
4.17336e-07
4.19242e-07
4.31318e-07
4.60691e-07
5.21257e-07
4.15611e-07
4.15591e-07
4.15552e-07
4.15485e-07
4.1534e-07
4.15233e-07
4.1511e-07
4.1497e-07
4.14837e-07
4.14722e-07
4.14634e-07
4.14509e-07
4.14396e-07
4.14326e-07
4.14325e-07
4.14359e-07
4.14445e-07
4.1457e-07
4.14604e-07
4.14517e-07
4.14282e-07
4.13792e-07
4.12964e-07
4.11972e-07
4.11117e-07
4.1073e-07
4.10832e-07
4.11123e-07
4.11324e-07
4.11208e-07
4.10742e-07
4.09999e-07
4.09123e-07
4.07552e-07
4.06103e-07
4.05668e-07
4.06643e-07
4.03745e-07
4.09511e-07
4.1584e-07
4.15736e-07
4.30134e-07
4.40299e-07
4.54144e-07
4.157e-07
4.15658e-07
4.15608e-07
4.15565e-07
4.1555e-07
4.15547e-07
4.15568e-07
4.15604e-07
4.1565e-07
4.157e-07
4.15742e-07
4.15782e-07
4.15809e-07
4.1582e-07
4.15816e-07
4.15742e-07
4.15503e-07
4.15095e-07
4.14576e-07
4.14065e-07
4.13549e-07
4.13239e-07
4.13155e-07
4.1317e-07
4.13177e-07
4.13286e-07
4.13353e-07
4.13533e-07
4.13653e-07
4.1417e-07
4.15051e-07
4.16073e-07
4.17125e-07
4.17629e-07
4.17865e-07
4.17094e-07
4.1807e-07
4.16827e-07
4.16022e-07
4.18196e-07
4.19754e-07
4.30856e-07
4.48638e-07
4.7784e-07
4.15861e-07
4.15833e-07
4.15807e-07
4.15784e-07
4.15722e-07
4.15672e-07
4.15592e-07
4.15485e-07
4.15371e-07
4.15271e-07
4.15183e-07
4.1508e-07
4.14973e-07
4.14907e-07
4.14899e-07
4.14908e-07
4.14943e-07
4.1502e-07
4.15093e-07
4.15121e-07
4.15095e-07
4.14939e-07
4.14498e-07
4.13996e-07
4.13489e-07
4.1319e-07
4.13163e-07
4.13342e-07
4.13549e-07
4.13422e-07
4.13018e-07
4.1238e-07
4.11468e-07
4.10153e-07
4.0917e-07
4.08737e-07
4.10369e-07
4.09809e-07
4.12603e-07
4.16534e-07
4.16363e-07
4.24699e-07
4.35487e-07
4.49351e-07
4.16014e-07
4.16016e-07
4.16008e-07
4.15995e-07
4.15987e-07
4.15987e-07
4.16008e-07
4.16039e-07
4.16075e-07
4.16118e-07
4.16163e-07
4.16203e-07
4.16241e-07
4.1627e-07
4.16285e-07
4.16292e-07
4.16292e-07
4.16226e-07
4.16038e-07
4.15728e-07
4.15327e-07
4.15002e-07
4.14747e-07
4.14582e-07
4.14444e-07
4.14438e-07
4.1431e-07
4.14402e-07
4.14475e-07
4.14938e-07
4.15565e-07
4.1621e-07
4.16739e-07
4.1687e-07
4.17104e-07
4.16878e-07
4.17597e-07
4.18014e-07
4.16065e-07
4.17404e-07
4.18219e-07
4.24888e-07
4.37955e-07
4.53775e-07
4.16185e-07
4.16138e-07
4.16092e-07
4.16047e-07
4.15987e-07
4.15948e-07
4.15919e-07
4.15873e-07
4.15807e-07
4.15743e-07
4.15677e-07
4.15601e-07
4.15525e-07
4.15474e-07
4.15455e-07
4.15459e-07
4.15476e-07
4.15507e-07
4.15522e-07
4.15531e-07
4.15504e-07
4.15406e-07
4.15256e-07
4.15137e-07
4.15005e-07
4.1494e-07
4.14984e-07
4.15103e-07
4.15125e-07
4.14892e-07
4.14259e-07
4.13453e-07
4.12577e-07
4.11676e-07
4.11235e-07
4.11113e-07
4.12365e-07
4.13548e-07
4.14307e-07
4.16014e-07
4.1623e-07
4.20873e-07
4.29408e-07
4.40248e-07
4.16197e-07
4.16212e-07
4.16221e-07
4.16229e-07
4.16244e-07
4.16247e-07
4.16251e-07
4.16263e-07
4.16288e-07
4.16312e-07
4.16338e-07
4.16368e-07
4.16402e-07
4.16431e-07
4.16462e-07
4.16492e-07
4.16522e-07
4.16554e-07
4.16575e-07
4.16529e-07
4.16353e-07
4.16122e-07
4.15844e-07
4.1556e-07
4.1524e-07
4.14977e-07
4.147e-07
4.14574e-07
4.14554e-07
4.14844e-07
4.15323e-07
4.16e-07
4.16394e-07
4.16447e-07
4.16709e-07
4.16652e-07
4.16682e-07
4.1736e-07
4.1516e-07
4.15613e-07
4.16813e-07
4.20957e-07
4.29671e-07
4.4105e-07
4.16737e-07
4.16678e-07
4.16628e-07
4.16582e-07
4.1653e-07
4.165e-07
4.16479e-07
4.16448e-07
4.16399e-07
4.16351e-07
4.16307e-07
4.16254e-07
4.16198e-07
4.16155e-07
4.16128e-07
4.16113e-07
4.16106e-07
4.161e-07
4.16073e-07
4.16033e-07
4.1597e-07
4.15892e-07
4.15776e-07
4.15675e-07
4.15608e-07
4.1562e-07
4.15657e-07
4.15745e-07
4.15801e-07
4.15808e-07
4.15414e-07
4.14664e-07
4.13698e-07
4.12863e-07
4.12602e-07
4.12733e-07
4.13463e-07
4.15064e-07
4.14421e-07
4.15426e-07
4.15561e-07
4.18196e-07
4.24044e-07
4.33828e-07
4.16154e-07
4.16181e-07
4.16194e-07
4.16207e-07
4.16218e-07
4.16215e-07
4.16208e-07
4.1621e-07
4.16222e-07
4.16231e-07
4.16247e-07
4.16267e-07
4.16287e-07
4.16308e-07
4.16341e-07
4.1637e-07
4.16395e-07
4.16423e-07
4.16446e-07
4.16453e-07
4.16378e-07
4.16187e-07
4.1589e-07
4.15577e-07
4.15267e-07
4.15019e-07
4.14747e-07
4.14575e-07
4.14492e-07
4.14657e-07
4.14896e-07
4.15345e-07
4.15774e-07
4.16028e-07
4.16288e-07
4.16514e-07
4.15545e-07
4.1626e-07
4.14373e-07
4.1439e-07
4.15455e-07
4.18963e-07
4.24912e-07
4.3307e-07
4.17146e-07
4.17091e-07
4.17038e-07
4.16985e-07
4.16931e-07
4.16891e-07
4.16857e-07
4.16824e-07
4.16785e-07
4.16749e-07
4.16713e-07
4.16673e-07
4.16631e-07
4.16599e-07
4.16571e-07
4.16542e-07
4.1651e-07
4.16483e-07
4.1644e-07
4.16369e-07
4.16249e-07
4.16153e-07
4.16045e-07
4.15976e-07
4.15945e-07
4.15954e-07
4.15934e-07
4.15977e-07
4.16013e-07
4.16042e-07
4.15852e-07
4.1553e-07
4.14793e-07
4.14138e-07
4.13595e-07
4.13727e-07
4.13331e-07
4.14732e-07
4.13741e-07
4.14223e-07
4.14794e-07
4.16386e-07
4.2074e-07
4.28084e-07
4.16125e-07
4.16149e-07
4.16156e-07
4.16174e-07
4.16175e-07
4.1617e-07
4.16158e-07
4.16162e-07
4.16166e-07
4.16165e-07
4.16166e-07
4.16169e-07
4.16172e-07
4.16179e-07
4.1619e-07
4.16191e-07
4.16175e-07
4.16147e-07
4.16092e-07
4.1602e-07
4.15928e-07
4.15783e-07
4.15599e-07
4.15394e-07
4.1516e-07
4.14975e-07
4.14753e-07
4.14593e-07
4.1448e-07
4.1454e-07
4.14579e-07
4.14904e-07
4.15155e-07
4.15529e-07
4.15592e-07
4.15977e-07
4.14557e-07
4.15342e-07
4.13945e-07
4.14046e-07
4.14587e-07
4.17304e-07
4.21613e-07
4.26453e-07
4.1731e-07
4.17278e-07
4.17247e-07
4.1721e-07
4.17177e-07
4.17149e-07
4.17128e-07
4.17103e-07
4.17074e-07
4.17044e-07
4.17014e-07
4.16981e-07
4.16941e-07
4.16903e-07
4.16867e-07
4.16839e-07
4.16819e-07
4.16794e-07
4.16756e-07
4.167e-07
4.16608e-07
4.16492e-07
4.16342e-07
4.16237e-07
4.16185e-07
4.1619e-07
4.16138e-07
4.16117e-07
4.1606e-07
4.16041e-07
4.15874e-07
4.15729e-07
4.15208e-07
4.14884e-07
4.13965e-07
4.14199e-07
4.1285e-07
4.14087e-07
4.13329e-07
4.13372e-07
4.14013e-07
4.15447e-07
4.1923e-07
4.24229e-07
4.16112e-07
4.16104e-07
4.16089e-07
4.16077e-07
4.16049e-07
4.16015e-07
4.15988e-07
4.15976e-07
4.15966e-07
4.15956e-07
4.15944e-07
4.15922e-07
4.15888e-07
4.15844e-07
4.15791e-07
4.1574e-07
4.15693e-07
4.15646e-07
4.15595e-07
4.15532e-07
4.15442e-07
4.15349e-07
4.15242e-07
4.15145e-07
4.15019e-07
4.14897e-07
4.14671e-07
4.14549e-07
4.14399e-07
4.14467e-07
4.14402e-07
4.1462e-07
4.14577e-07
4.14916e-07
4.14593e-07
4.15116e-07
4.13739e-07
4.14463e-07
4.13608e-07
4.13631e-07
4.14235e-07
4.16114e-07
4.19521e-07
4.22879e-07
4.17312e-07
4.17299e-07
4.17286e-07
4.17268e-07
4.17252e-07
4.17235e-07
4.17219e-07
4.17202e-07
4.17183e-07
4.17164e-07
4.17143e-07
4.17123e-07
4.17101e-07
4.17074e-07
4.17043e-07
4.17009e-07
4.16968e-07
4.16922e-07
4.16867e-07
4.16805e-07
4.16719e-07
4.16601e-07
4.16448e-07
4.163e-07
4.16163e-07
4.16131e-07
4.16114e-07
4.16073e-07
4.15957e-07
4.159e-07
4.15671e-07
4.15601e-07
4.15082e-07
4.1503e-07
4.14017e-07
4.14191e-07
4.12473e-07
4.13367e-07
4.12917e-07
4.1288e-07
4.13446e-07
4.14827e-07
4.17998e-07
4.21973e-07
4.16174e-07
4.16141e-07
4.16108e-07
4.1607e-07
4.16022e-07
4.15979e-07
4.1594e-07
4.15907e-07
4.15867e-07
4.15822e-07
4.15766e-07
4.15709e-07
4.15657e-07
4.15614e-07
4.15576e-07
4.15541e-07
4.15511e-07
4.15477e-07
4.15437e-07
4.15381e-07
4.15306e-07
4.15233e-07
4.15155e-07
4.15098e-07
4.15029e-07
4.15007e-07
4.14908e-07
4.14825e-07
4.14638e-07
4.14643e-07
4.14432e-07
4.14517e-07
4.14057e-07
4.1437e-07
4.13707e-07
4.14403e-07
4.13198e-07
4.13701e-07
4.13259e-07
4.13254e-07
4.13851e-07
4.1533e-07
4.17902e-07
4.20897e-07
4.17274e-07
4.17265e-07
4.17253e-07
4.17239e-07
4.17226e-07
4.1721e-07
4.17194e-07
4.17177e-07
4.17163e-07
4.1715e-07
4.17135e-07
4.17118e-07
4.17097e-07
4.17072e-07
4.17042e-07
4.17009e-07
4.16973e-07
4.16932e-07
4.16886e-07
4.16836e-07
4.16762e-07
4.16656e-07
4.16516e-07
4.16372e-07
4.16221e-07
4.16115e-07
4.15993e-07
4.1594e-07
4.15786e-07
4.15701e-07
4.15378e-07
4.15322e-07
4.14701e-07
4.14819e-07
4.13742e-07
4.13924e-07
4.12343e-07
4.12781e-07
4.1257e-07
4.12538e-07
4.13101e-07
4.14362e-07
4.16936e-07
4.2011e-07
4.1624e-07
4.16201e-07
4.16157e-07
4.1611e-07
4.1606e-07
4.16011e-07
4.15963e-07
4.15916e-07
4.1587e-07
4.15827e-07
4.15786e-07
4.15745e-07
4.15707e-07
4.15673e-07
4.15641e-07
4.1561e-07
4.1558e-07
4.15547e-07
4.15504e-07
4.15453e-07
4.15392e-07
4.15334e-07
4.15264e-07
4.15212e-07
4.15147e-07
4.1513e-07
4.1505e-07
4.15027e-07
4.14809e-07
4.14735e-07
4.14315e-07
4.14376e-07
4.13731e-07
4.14137e-07
4.13226e-07
4.13873e-07
4.12878e-07
4.13168e-07
4.12944e-07
4.12931e-07
4.13511e-07
4.14764e-07
4.16806e-07
4.19371e-07
4.1723e-07
4.1722e-07
4.17209e-07
4.17197e-07
4.17185e-07
4.17173e-07
4.17159e-07
4.17144e-07
4.17129e-07
4.17114e-07
4.17098e-07
4.1708e-07
4.17059e-07
4.17034e-07
4.17004e-07
4.1697e-07
4.16932e-07
4.1689e-07
4.16842e-07
4.16785e-07
4.16705e-07
4.16602e-07
4.16468e-07
4.16337e-07
4.16192e-07
4.16074e-07
4.15918e-07
4.15788e-07
4.15569e-07
4.15469e-07
4.15092e-07
4.15084e-07
4.14337e-07
4.14533e-07
4.13344e-07
4.13566e-07
4.12297e-07
4.12404e-07
4.12274e-07
4.12255e-07
4.12853e-07
4.14016e-07
4.16157e-07
4.18927e-07
4.16309e-07
4.16267e-07
4.16226e-07
4.16183e-07
4.1614e-07
4.16101e-07
4.16067e-07
4.16035e-07
4.16004e-07
4.15971e-07
4.15938e-07
4.15907e-07
4.15875e-07
4.15845e-07
4.15815e-07
4.15786e-07
4.15757e-07
4.15725e-07
4.1569e-07
4.1565e-07
4.15596e-07
4.15534e-07
4.15452e-07
4.15391e-07
4.15297e-07
4.15253e-07
4.15138e-07
4.15083e-07
4.14825e-07
4.14715e-07
4.14198e-07
4.14317e-07
4.13521e-07
4.13942e-07
4.12917e-07
4.13376e-07
4.12572e-07
4.12757e-07
4.12634e-07
4.12661e-07
4.13228e-07
4.14336e-07
4.16069e-07
4.18367e-07
4.1718e-07
4.1717e-07
4.17158e-07
4.17145e-07
4.17131e-07
4.17116e-07
4.17099e-07
4.17081e-07
4.17062e-07
4.17043e-07
4.17023e-07
4.17001e-07
4.16975e-07
4.16946e-07
4.16914e-07
4.16876e-07
4.16832e-07
4.16782e-07
4.16722e-07
4.16653e-07
4.16568e-07
4.16466e-07
4.1635e-07
4.16226e-07
4.1608e-07
4.15944e-07
4.15767e-07
4.15609e-07
4.15365e-07
4.15257e-07
4.14837e-07
4.14865e-07
4.14023e-07
4.14225e-07
4.13034e-07
4.13325e-07
4.12234e-07
4.12166e-07
4.12056e-07
4.12081e-07
4.12672e-07
4.13768e-07
4.15626e-07
4.18076e-07
4.16401e-07
4.16371e-07
4.16343e-07
4.16313e-07
4.16286e-07
4.1626e-07
4.16237e-07
4.16214e-07
4.1619e-07
4.16164e-07
4.16137e-07
4.1611e-07
4.16085e-07
4.16059e-07
4.16033e-07
4.16007e-07
4.15979e-07
4.1595e-07
4.15916e-07
4.1587e-07
4.15809e-07
4.1573e-07
4.15644e-07
4.15562e-07
4.15437e-07
4.15356e-07
4.15208e-07
4.15096e-07
4.14815e-07
4.1472e-07
4.14156e-07
4.14311e-07
4.13381e-07
4.13765e-07
4.12718e-07
4.13052e-07
4.12292e-07
4.12442e-07
4.12398e-07
4.12498e-07
4.13022e-07
4.14025e-07
4.15606e-07
4.17691e-07
4.17117e-07
4.17104e-07
4.17086e-07
4.17065e-07
4.17042e-07
4.17018e-07
4.16993e-07
4.16967e-07
4.16941e-07
4.16914e-07
4.16886e-07
4.16857e-07
4.16825e-07
4.1679e-07
4.1675e-07
4.16707e-07
4.16658e-07
4.16603e-07
4.16541e-07
4.16468e-07
4.16377e-07
4.16291e-07
4.16176e-07
4.16046e-07
4.15908e-07
4.15755e-07
4.1557e-07
4.15411e-07
4.1516e-07
4.15035e-07
4.14583e-07
4.14591e-07
4.13739e-07
4.13927e-07
4.12819e-07
4.13057e-07
4.12201e-07
4.12069e-07
4.1196e-07
4.12008e-07
4.12563e-07
4.13597e-07
4.15276e-07
4.17482e-07
4.16529e-07
4.1651e-07
4.1649e-07
4.16471e-07
4.16453e-07
4.16437e-07
4.16421e-07
4.16404e-07
4.16386e-07
4.16367e-07
4.16346e-07
4.16323e-07
4.16298e-07
4.16275e-07
4.1625e-07
4.16223e-07
4.16191e-07
4.16154e-07
4.16105e-07
4.1605e-07
4.1597e-07
4.15888e-07
4.15787e-07
4.15668e-07
4.15535e-07
4.15393e-07
4.1522e-07
4.15094e-07
4.14818e-07
4.14719e-07
4.1417e-07
4.14229e-07
4.13319e-07
4.13618e-07
4.12617e-07
4.12838e-07
4.12142e-07
4.122e-07
4.12224e-07
4.12405e-07
4.12895e-07
4.13845e-07
4.15367e-07
4.17221e-07
4.17025e-07
4.17005e-07
4.1698e-07
4.16953e-07
4.16924e-07
4.16893e-07
4.16863e-07
4.16833e-07
4.16803e-07
4.16772e-07
4.1674e-07
4.16706e-07
4.16671e-07
4.16633e-07
4.16591e-07
4.16544e-07
4.16493e-07
4.16434e-07
4.16364e-07
4.1627e-07
4.16189e-07
4.16078e-07
4.15936e-07
4.15834e-07
4.15679e-07
4.15548e-07
4.15364e-07
4.15193e-07
4.14929e-07
4.14781e-07
4.14317e-07
4.14317e-07
4.13509e-07
4.13669e-07
4.12659e-07
4.12811e-07
4.12132e-07
4.12064e-07
4.11998e-07
4.1203e-07
4.12541e-07
4.13522e-07
4.15093e-07
4.17062e-07
4.16663e-07
4.16651e-07
4.16637e-07
4.16623e-07
4.1661e-07
4.16596e-07
4.16582e-07
4.16565e-07
4.16547e-07
4.16528e-07
4.16508e-07
4.16485e-07
4.16457e-07
4.16428e-07
4.16396e-07
4.16359e-07
4.16308e-07
4.16257e-07
4.16189e-07
4.16099e-07
4.1601e-07
4.1589e-07
4.15804e-07
4.15678e-07
4.15528e-07
4.15378e-07
4.15197e-07
4.15046e-07
4.14771e-07
4.14621e-07
4.14142e-07
4.14115e-07
4.13314e-07
4.13481e-07
4.12565e-07
4.127e-07
4.12106e-07
4.12067e-07
4.1212e-07
4.12367e-07
4.12855e-07
4.13772e-07
4.15196e-07
4.16877e-07
4.16919e-07
4.16895e-07
4.16868e-07
4.1684e-07
4.16811e-07
4.16782e-07
4.16752e-07
4.16722e-07
4.16691e-07
4.16659e-07
4.16622e-07
4.16582e-07
4.16541e-07
4.16497e-07
4.16449e-07
4.16395e-07
4.16338e-07
4.16259e-07
4.16187e-07
4.16131e-07
4.1603e-07
4.15924e-07
4.15799e-07
4.15652e-07
4.15497e-07
4.15355e-07
4.15161e-07
4.14994e-07
4.14719e-07
4.1455e-07
4.14074e-07
4.14071e-07
4.13317e-07
4.13432e-07
4.12557e-07
4.12654e-07
4.1211e-07
4.12051e-07
4.1208e-07
4.12122e-07
4.12603e-07
4.13547e-07
4.1499e-07
4.16753e-07
4.16767e-07
4.16754e-07
4.16738e-07
4.16721e-07
4.16703e-07
4.16683e-07
4.16664e-07
4.16642e-07
4.16618e-07
4.16591e-07
4.1656e-07
4.16527e-07
4.16487e-07
4.16441e-07
4.16392e-07
4.16337e-07
4.16282e-07
4.16234e-07
4.16136e-07
4.16058e-07
4.15945e-07
4.15864e-07
4.15718e-07
4.15591e-07
4.15437e-07
4.15284e-07
4.15091e-07
4.14924e-07
4.14644e-07
4.14492e-07
4.14006e-07
4.13977e-07