/*--------------------------------*- C++ -*----------------------------------*\
| =========                 |                                                 |
| \\      /  F ield         | OpenFOAM: The Open Source CFD Toolbox           |
|  \\    /   O peration     | Version:  v1912                                 |
|   \\  /    A nd           | Website:  www.openfoam.com                      |
|    \\/     M anipulation  |                                                 |
\*---------------------------------------------------------------------------*/
FoamFile
{
    version     2.0;
    format      ascii;
    class       volSymmTensorField;
    location    "100";
    object      R;
}
// * * * * * * * * * * * * * * * * * * * * * * * * * * * * * * * * * * * * * //

dimensions      [0 2 -2 0 0 0 0];


internalField   nonuniform List<symmTensor> 
14268
(
(0.00696524 -0.00062609 0 0.00943022 0 0.00655326)
(0.00663063 -0.000784848 0 0.00848698 0 0.00616207)
(0.00628484 -0.000740925 0 0.00803666 0 0.00582491)
(0.00597858 -0.000675107 0 0.00789788 0 0.00556866)
(0.00572148 -0.000627124 0 0.00820019 0 0.0053804)
(0.00557233 -0.000605754 0 0.00829435 0 0.00526324)
(0.00535903 -0.000627729 0 0.0079497 0 0.00506516)
(0.00521028 -0.000676851 0 0.00769439 0 0.00493927)
(0.00520197 -0.000741415 0 0.00772716 0 0.00495349)
(0.00557893 -0.000889717 0 0.00815866 0 0.00532716)
(0.00698348 -0.00115423 0 0.00936461 0 0.00657329)
(0.0083778 -0.00125704 0 0.0103911 0 0.00777043)
(0.00906311 -0.00112886 0 0.0104024 0 0.00833765)
(0.00917688 -0.000829235 0 0.0103782 0 0.00845431)
(0.00877418 -0.000423028 0 0.0116237 0 0.00819908)
(0.00836182 5.08738e-05 0 0.0157013 0 0.00807666)
(0.00900643 0.000717202 0 0.0231283 0 0.00893671)
(0.011241 0.00114756 0 0.0376057 0 0.0113248)
(0.015108 0.00110627 0 0.0632544 0 0.0153782)
(0.0178914 0.000343331 0 0.0912634 0 0.0182731)
(0.0186476 -7.70353e-05 0 0.105051 0 0.0191098)
(0.0192261 -0.000488302 0 0.10778 0 0.0196644)
(0.0208011 -0.00136902 0 0.108132 0 0.0209749)
(0.0226502 -0.00214946 0 0.107996 0 0.0224572)
(0.0246802 -0.00259837 0 0.0975392 0 0.0240309)
(0.0249624 -0.00222134 0 0.0741902 0 0.0239757)
(0.0244147 -0.00102564 0 0.0575665 0 0.0232494)
(0.0233714 0.000551952 0 0.0482571 0 0.0222118)
(0.0213687 0.00147638 0 0.0443364 0 0.0203585)
(0.017352 0.00248097 0 0.0378433 0 0.0166533)
(0.0130314 0.00298671 0 0.0298224 0 0.0125967)
(0.0115833 0.00289152 0 0.0242063 0 0.0111073)
(0.0110782 0.0027602 0 0.0193386 0 0.0104117)
(0.0100936 0.00237336 0 0.0195956 0 0.00944508)
(0.0139496 -0.00100165 0 0.0506727 0 0.0132733)
(0.0181496 -0.00399247 0 0.0664054 0 0.0170327)
(0.0200305 -0.00545247 0 0.0541018 0 0.0175382)
(0.01794 -0.0061326 0 0.0432631 0 0.0150603)
(0.0184293 -0.00776675 0 0.0433331 0 0.0151458)
(0.0214219 -0.00935054 0 0.0451585 0 0.017226)
(0.0150532 -0.00794136 0 0.0389344 0 0.0126705)
(0.00783653 -0.00386638 0 0.0113419 0 0.00659999)
(0.00596409 -0.00255375 0 0.00136491 0 0.00483573)
(0.00821868 -0.00387342 0 0.00600752 0 0.00675494)
(0.010281 -0.00465524 0 0.0135649 0 0.0087206)
(0.00710116 -0.00165196 0 0.0133009 0 0.00701226)
(0.00763462 -0.00140019 0 0.00819006 0 0.00735391)
(0.00566233 6.59455e-05 0 1e-15 0 0.00531004)
(0.00421433 0.000212968 0 1e-15 0 0.0038466)
(0.00649056 -2.95824e-05 0 1e-15 0 0.00545518)
(0.00685924 0.000439282 0 1e-15 0 0.00541501)
(0.00447569 -9.40788e-05 0 1e-15 0 0.00333749)
(0.00619461 -0.000265694 0 1e-15 0 0.00452363)
(0.00206669 0.000419321 0 1e-15 0 0.00168547)
(0.00713274 0.00165636 0 1e-15 0 0.00621632)
(0.0111619 -0.00183029 0 1e-15 0 0.0113686)
(0.0143672 -0.0039308 0 0.00996198 0 0.0161807)
(0.00635308 -0.000606289 0 1e-15 0 0.00742928)
(0.00168608 -0.000308544 0 1e-15 0 0.00134864)
(0.001801 -0.000299332 0 1e-15 0 0.00137802)
(0.00316245 -0.000197235 0 1e-15 0 0.00223572)
(0.00667866 0.000184578 0 1e-15 0 0.00534083)
(0.00805948 -0.00203945 0 1e-15 0 0.00812132)
(0.00750684 -0.00147035 0 1e-15 0 0.0078612)
(0.00365505 -0.000267617 0 1e-15 0 0.00414548)
(0.000847982 -0.000237481 0 1e-15 0 0.0007557)
(0.00165546 -0.00031459 0 1e-15 0 0.00137267)
(0.0049413 -0.000376462 0 1e-15 0 0.00364715)
(0.00389591 -1.89812e-05 0 1e-15 0 0.002709)
(0.00326202 0.000269721 0 1e-15 0 0.00300672)
(0.00539512 0.000161129 0 1e-15 0 0.0052683)
(0.00370715 -0.000245289 0 1e-15 0 0.00361307)
(0.00583679 -0.000590228 0 1e-15 0 0.00505575)
(0.009698 -0.0007995 0 1e-15 0 0.00773636)
(0.0113386 -0.000970933 0 1e-15 0 0.00863339)
(0.01078 -0.00102621 0 1e-15 0 0.00809269)
(0.00901976 -0.000944909 0 1e-15 0 0.00690684)
(0.00753901 -0.000747624 0 1e-15 0 0.00639012)
(0.00480835 -0.000421207 0 1e-15 0 0.00450371)
(0.00206877 -9.59611e-05 0 1e-15 0 0.00197241)
(0.000584919 2.15407e-05 0 1e-15 0 0.000583896)
(0.00041324 1.31908e-05 0 1e-15 0 0.000424593)
(0.000514671 9.36026e-05 0 1e-15 0 0.000547442)
(0.0017364 0.000326719 0 1e-15 0 0.00151086)
(0.00578167 0.00053361 0 0.00106115 0 0.00474714)
(0.0119791 0.00108225 0 0.0198886 0 0.0109994)
(0.0202157 0.00113877 0 0.0420328 0 0.0197726)
(0.0210561 0.00102123 0 0.0458517 0 0.021438)
(0.0204026 0.000263806 0 0.046188 0 0.0213019)
(0.0197994 0.000209345 0 0.0452712 0 0.0213469)
(0.019973 0.000720078 0 0.0460268 0 0.021464)
(0.018013 0.00257217 0 0.0435021 0 0.0188587)
(0.0122495 0.00301183 0 0.0297684 0 0.0121645)
(0.00418733 0.00133315 0 0.00842532 0 0.00385348)
(0.000758498 0.00015639 0 0.00115741 0 0.000655391)
(0.000169229 5.43035e-06 0 0.000122365 0 0.00014034)
(0.000157382 -5.98033e-06 0 2.17892e-05 0 0.000125722)
(0.000242237 -1.50706e-05 0 1.6092e-05 0 0.000193965)
(0.000302902 -2.11719e-05 0 1.45771e-05 0 0.000246804)
(0.000285354 -1.7753e-05 0 1.471e-05 0 0.000233403)
(0.000204984 -8.56889e-06 0 1.65328e-05 0 0.000168068)
(8.0481e-05 -2.09771e-06 0 1.11269e-05 0 6.63645e-05)
(2.18694e-05 -1.17824e-06 0 7.16593e-06 0 1.8206e-05)
(5.43489e-06 -4.00065e-07 0 3.69733e-06 0 4.62088e-06)
(1.18165e-06 -2.60372e-08 0 1.01355e-06 0 1.03427e-06)
(2.36899e-07 9.34306e-09 0 2.16499e-07 0 2.11163e-07)
(4.33722e-08 2.71523e-09 0 4.02815e-08 0 3.90116e-08)
(7.29137e-09 4.7163e-10 0 6.81264e-09 0 6.60401e-09)
(1.1437e-09 7.17113e-11 0 1.07216e-09 0 1.04187e-09)
(1.68528e-10 1.01445e-11 0 1.58191e-10 0 1.54195e-10)
(2.33769e-11 1.35143e-12 0 2.19394e-11 0 2.14588e-11)
(3.08985e-12 1.71194e-13 0 2.89307e-12 0 2.84348e-12)
(4.37599e-13 2.23676e-14 0 4.04203e-13 0 4.03662e-13)
(1.22948e-13 5.01637e-15 0 1.08626e-13 0 1.13856e-13)
(9.84218e-14 3.4282e-15 0 8.50819e-14 0 9.14501e-14)
(1.06888e-13 3.55145e-15 0 9.2425e-14 0 9.95285e-14)
(1.24826e-13 3.97671e-15 0 1.08425e-13 0 1.16537e-13)
(1.44355e-13 4.42639e-15 0 1.26009e-13 0 1.35095e-13)
(1.63073e-13 4.82786e-15 0 1.42977e-13 0 1.52934e-13)
(1.82109e-13 5.20692e-15 0 1.60332e-13 0 1.71126e-13)
(2.01881e-13 5.57286e-15 0 1.78455e-13 0 1.90071e-13)
(2.22374e-13 5.92292e-15 0 1.97344e-13 0 2.0976e-13)
(2.43514e-13 6.25564e-15 0 2.16937e-13 0 2.30124e-13)
(2.65287e-13 6.56914e-15 0 2.37234e-13 0 2.51158e-13)
(2.87671e-13 6.86255e-15 0 2.58218e-13 0 2.72841e-13)
(3.106e-13 7.13442e-15 0 2.79828e-13 0 2.9511e-13)
(3.33996e-13 7.38255e-15 0 3.01995e-13 0 3.17893e-13)
(3.57805e-13 7.60788e-15 0 3.24672e-13 0 3.41136e-13)
(3.81991e-13 7.80747e-15 0 3.47825e-13 0 3.64807e-13)
(4.06499e-13 7.98424e-15 0 3.71406e-13 0 3.88853e-13)
(4.3124e-13 8.13344e-15 0 3.95321e-13 0 4.13183e-13)
(4.56106e-13 8.25922e-15 0 4.19464e-13 0 4.3769e-13)
(4.81009e-13 8.35686e-15 0 4.43748e-13 0 4.62286e-13)
(5.05897e-13 8.43133e-15 0 4.68122e-13 0 4.8692e-13)
(5.30715e-13 8.47926e-15 0 4.92527e-13 0 5.11535e-13)
(5.55458e-13 8.50487e-15 0 5.16959e-13 0 5.36125e-13)
(5.80057e-13 8.50672e-15 0 5.41345e-13 0 5.60621e-13)
(6.04529e-13 8.48718e-15 0 5.65699e-13 0 5.85037e-13)
(6.28784e-13 8.44688e-15 0 5.89929e-13 0 6.09284e-13)
(6.5285e-13 8.38654e-15 0 6.14057e-13 0 6.33383e-13)
(6.76629e-13 8.30818e-15 0 6.37985e-13 0 6.57241e-13)
(7.00157e-13 8.21199e-15 0 6.61739e-13 0 6.80885e-13)
(7.23334e-13 8.09979e-15 0 6.85225e-13 0 7.04221e-13)
(7.462e-13 7.97329e-15 0 7.08455e-13 0 7.27269e-13)
(7.68659e-13 7.83133e-15 0 7.31371e-13 0 7.49967e-13)
(7.90778e-13 7.68064e-15 0 7.53954e-13 0 7.72306e-13)
(8.12122e-13 7.5118e-15 0 7.75905e-13 0 7.93986e-13)
(8.34095e-13 7.34529e-15 0 7.98402e-13 0 8.16167e-13)
(8.52537e-13 7.14352e-15 0 8.17453e-13 0 8.35007e-13)
(8.76042e-13 6.98715e-15 0 8.41858e-13 0 8.58843e-13)
(0.0232163 -0.00638603 0 0.0377107 0 0.0201488)
(0.0220899 -0.00553424 0 0.0341223 0 0.0191046)
(0.0205367 -0.00454391 0 0.0329264 0 0.0179011)
(0.0189392 -0.00378589 0 0.0325826 0 0.0167789)
(0.0173778 -0.00308841 0 0.033913 0 0.0157752)
(0.016695 -0.00248423 0 0.0334935 0 0.0153456)
(0.0160104 -0.00240675 0 0.0315538 0 0.0147735)
(0.0155249 -0.00259725 0 0.0302022 0 0.0144017)
(0.0154782 -0.00288664 0 0.0301896 0 0.0144431)
(0.0167246 -0.00344313 0 0.0314938 0 0.0156602)
(0.0217312 -0.00433615 0 0.0360642 0 0.0199397)
(0.0271274 -0.00472538 0 0.0395451 0 0.0242866)
(0.0303345 -0.00445111 0 0.038818 0 0.0266943)
(0.0308432 -0.0037035 0 0.0382922 0 0.0270529)
(0.027546 -0.0019112 0 0.0415559 0 0.0245309)
(0.0222848 -0.000937897 0 0.0483885 0 0.0205201)
(0.0186024 -0.00179481 0 0.0608185 0 0.0174804)
(0.018134 -0.00379624 0 0.086262 0 0.0170543)
(0.0185539 -0.00562319 0 0.112877 0 0.0174949)
(0.017682 -0.00645594 0 0.125783 0 0.0167313)
(0.0164627 -0.00648974 0 0.129495 0 0.0157212)
(0.0169639 -0.00625133 0 0.130064 0 0.016363)
(0.0195534 -0.00569214 0 0.129993 0 0.0187705)
(0.0233758 -0.00528199 0 0.128996 0 0.0220251)
(0.0294326 -0.00551788 0 0.126851 0 0.0271654)
(0.0381282 -0.00588877 0 0.121526 0 0.0344981)
(0.0464132 -0.0059257 0 0.113443 0 0.0410533)
(0.0508912 -0.00760503 0 0.108247 0 0.0442366)
(0.0496399 -0.0110395 0 0.120821 0 0.0426772)
(0.0428919 -0.014591 0 0.134759 0 0.0364894)
(0.0309019 -0.0129606 0 0.118816 0 0.0262845)
(0.0289086 -0.00831602 0 0.100439 0 0.0251449)
(0.0299869 -0.00310487 0 0.0710748 0 0.0259195)
(0.0241585 0.000670241 0 0.0482989 0 0.0208654)
(0.022744 -0.010945 0 0.152327 0 0.0192856)
(0.0268882 -0.0134231 0 0.205463 0 0.0233742)
(0.03492 -0.00493821 0 0.13789 0 0.0287177)
(0.0292211 -0.000858896 0 0.092627 0 0.0235499)
(0.0276366 -0.0037949 0 0.0951984 0 0.0220223)
(0.0410965 -0.0114286 0 0.125556 0 0.0306921)
(0.0264283 -0.0185197 0 0.156561 0 0.0206956)
(0.0208572 -0.0188566 0 0.0961487 0 0.0165415)
(0.026537 -0.0175865 0 0.043288 0 0.0200283)
(0.0414959 -0.0335711 0 0.118764 0 0.032984)
(0.052621 -0.0446845 0 0.182276 0 0.0411329)
(0.0326363 -0.023354 0 0.150172 0 0.0294953)
(0.0314568 -0.00592853 0 0.0812519 0 0.0318796)
(0.0276553 0.00393145 0 1e-15 0 0.0267849)
(0.010532 0.00384664 0 1e-15 0 0.0115136)
(0.0246882 0.00099992 0 1e-15 0 0.0199942)
(0.0348485 0.00610458 0 1e-15 0 0.0277699)
(0.0280693 0.00126838 0 1e-15 0 0.0194692)
(0.0629891 -0.00367974 0 1e-15 0 0.0422805)
(0.00782402 0.00582067 0 0.00517137 0 0.00583327)
(0.0480371 0.0186189 0 1e-15 0 0.0392338)
(0.0762645 -0.0233469 0 1e-15 0 0.0727196)
(0.0883178 -0.043407 0 0.0961647 0 0.0993584)
(0.0749427 0.00500469 0 0.0605093 0 0.0953512)
(0.00438519 0.000995554 0 0.00409995 0 0.00553163)
(0.00192274 0.000527289 0 0.000233058 0 0.00280123)
(0.0206397 -0.00092979 0 1e-15 0 0.0113341)
(0.0397911 0.0143736 0 1e-15 0 0.0292684)
(0.0733116 -0.00536923 0 0.0308496 0 0.0705134)
(0.0603261 -0.0130687 0 0.0270768 0 0.0663455)
(0.0328925 0.00835965 0 1e-15 0 0.0451367)
(0.00555868 0.00212185 0 1e-15 0 0.00881191)
(0.00643859 0.000864023 0 1e-15 0 0.00705589)
(0.0340039 -0.000624329 0 1e-15 0 0.023658)
(0.0240015 0.00041179 0 0.000175933 0 0.0142269)
(0.0177641 0.00506576 0 0.0056574 0 0.0163993)
(0.0322728 0.00595431 0 1e-15 0 0.0325161)
(0.0210931 0.00242825 0 1e-15 0 0.0218)
(0.0338077 -0.000490342 0 1e-15 0 0.0286798)
(0.0614949 -0.00130472 0 1e-15 0 0.046304)
(0.0786537 -0.00247945 0 1e-15 0 0.0557145)
(0.0799953 -0.00390891 0 1e-15 0 0.0556844)
(0.074088 -0.00421274 0 1e-15 0 0.0521774)
(0.0611031 0.00403307 0 1e-15 0 0.0515949)
(0.0353275 0.0131103 0 0.000838107 0 0.0418428)
(0.0324984 0.00600672 0 1e-15 0 0.0337069)
(0.0106569 0.00571689 0 1e-15 0 0.0128879)
(0.00416907 0.00320336 0 1e-15 0 0.00523642)
(0.00362745 0.00165187 0 1e-15 0 0.00396305)
(0.00816621 0.0024973 0 1e-15 0 0.00694169)
(0.0293157 0.000881896 0 1e-15 0 0.0204391)
(0.0348467 -0.00782376 0 0.0161325 0 0.0271189)
(0.0492086 -0.0164642 0 0.102258 0 0.0431331)
(0.0532935 -0.0140242 0 0.146855 0 0.0515835)
(0.0492087 -0.0110032 0 0.14303 0 0.0506973)
(0.0465588 -0.00770768 0 0.137384 0 0.0510803)
(0.0453634 -0.00424398 0 0.127837 0 0.0494497)
(0.0421865 0.00245467 0 0.139035 0 0.0439321)
(0.0302674 0.00662267 0 0.124502 0 0.0287928)
(0.0123404 0.00498768 0 0.0409618 0 0.0103444)
(0.00292877 0.000369569 0 0.00580642 0 0.00218029)
(0.00162227 -4.0819e-05 0 0.000397623 0 0.00116273)
(0.00181174 -2.57583e-05 0 1e-15 0 0.00130551)
(0.00242095 -0.000114591 0 1e-15 0 0.00176773)
(0.00278265 -0.000183562 0 1e-15 0 0.00209755)
(0.00267719 -0.000146782 0 1e-15 0 0.00203091)
(0.00214833 -4.04751e-05 0 1e-15 0 0.0016315)
(0.00111704 2.34358e-05 0 1e-15 0 0.000848744)
(0.000397831 -1.57098e-05 0 9.91606e-06 0 0.000298828)
(0.000112673 -1.3237e-05 0 7.72089e-05 0 8.62444e-05)
(2.60627e-05 -9.43832e-07 0 2.49842e-05 0 2.08411e-05)
(5.36166e-06 4.0009e-07 0 5.12077e-06 0 4.4234e-06)
(1.00084e-06 1.11046e-07 0 9.39862e-07 0 8.39097e-07)
(1.72917e-07 1.94938e-08 0 1.60547e-07 0 1.4654e-07)
(2.79399e-08 3.01881e-09 0 2.57685e-08 0 2.38722e-08)
(4.22152e-09 4.34168e-10 0 3.8749e-09 0 3.63015e-09)
(5.97606e-10 5.86383e-11 0 5.46049e-10 0 5.16498e-10)
(8.04522e-11 7.51618e-12 0 7.29837e-11 0 6.98218e-11)
(1.17425e-11 9.96785e-13 0 1.03586e-11 0 1.02398e-11)
(3.52232e-12 2.3064e-13 0 2.86101e-12 0 3.10002e-12)
(2.91243e-12 1.61098e-13 0 2.27736e-12 0 2.58007e-12)
(3.18177e-12 1.67572e-13 0 2.48851e-12 0 2.82875e-12)
(3.7229e-12 1.87924e-13 0 2.93382e-12 0 3.32387e-12)
(4.30529e-12 2.09243e-13 0 3.4209e-12 0 3.85867e-12)
(4.86445e-12 2.28323e-13 0 3.89389e-12 0 4.37455e-12)
(5.43345e-12 2.46363e-13 0 4.37987e-12 0 4.90186e-12)
(6.02433e-12 2.63782e-13 0 4.88924e-12 0 5.45183e-12)
(6.63644e-12 2.8045e-13 0 5.42184e-12 0 6.02407e-12)
(7.26765e-12 2.96303e-13 0 5.97628e-12 0 6.61679e-12)
(7.91764e-12 3.11256e-13 0 6.55276e-12 0 7.22995e-12)
(8.58572e-12 3.25261e-13 0 7.15087e-12 0 7.863e-12)
(9.26977e-12 3.38243e-13 0 7.76888e-12 0 8.51403e-12)
(9.96752e-12 3.501e-13 0 8.40484e-12 0 9.1809e-12)
(1.06773e-11 3.6087e-13 0 9.05748e-12 0 9.86213e-12)
(1.1398e-11 3.70421e-13 0 9.72594e-12 0 1.05568e-11)
(1.2128e-11 3.78876e-13 0 1.04088e-11 0 1.12632e-11)
(1.28644e-11 3.86017e-13 0 1.11031e-11 0 1.19787e-11)
(1.36041e-11 3.92025e-13 0 1.18058e-11 0 1.27001e-11)
(1.43444e-11 3.96694e-13 0 1.25143e-11 0 1.34246e-11)
(1.50839e-11 4.00248e-13 0 1.3227e-11 0 1.41509e-11)
(1.58209e-11 4.02539e-13 0 1.39425e-11 0 1.48772e-11)
(1.65553e-11 4.03762e-13 0 1.46603e-11 0 1.56035e-11)
(1.7285e-11 4.03849e-13 0 1.53784e-11 0 1.63276e-11)
(1.80107e-11 4.02916e-13 0 1.6097e-11 0 1.70499e-11)
(1.87295e-11 4.00987e-13 0 1.68136e-11 0 1.77678e-11)
(1.94425e-11 3.98103e-13 0 1.75285e-11 0 1.84819e-11)
(2.01466e-11 3.94353e-13 0 1.8239e-11 0 1.91894e-11)
(2.0843e-11 3.89753e-13 0 1.89457e-11 0 1.98911e-11)
(2.15287e-11 3.84382e-13 0 1.96457e-11 0 2.05842e-11)
(2.2205e-11 3.7833e-13 0 2.03392e-11 0 2.12691e-11)
(2.28687e-11 3.7153e-13 0 2.10247e-11 0 2.19442e-11)
(2.35227e-11 3.64319e-13 0 2.17009e-11 0 2.26088e-11)
(2.41523e-11 3.56233e-13 0 2.236e-11 0 2.32547e-11)
(2.48025e-11 3.48248e-13 0 2.30354e-11 0 2.39149e-11)
(2.53437e-11 3.38557e-13 0 2.36069e-11 0 2.44758e-11)
(2.60437e-11 3.31264e-13 0 2.43491e-11 0 2.51912e-11)
(0.033397 -0.0106596 0 0.0921731 0 0.028482)
(0.0321723 -0.00987241 0 0.0832702 0 0.0271609)
(0.0300356 -0.00904415 0 0.0815374 0 0.0254504)
(0.0274948 -0.00871162 0 0.0811177 0 0.0236113)
(0.0253371 -0.00842749 0 0.0833686 0 0.0222379)
(0.0243623 -0.00707428 0 0.0797558 0 0.0217538)
(0.0233415 -0.00618187 0 0.0696471 0 0.0210123)
(0.0226269 -0.00607146 0 0.0634397 0 0.0205103)
(0.0226796 -0.00656312 0 0.0626711 0 0.0206548)
(0.0251319 -0.00814741 0 0.0658652 0 0.0227491)
(0.0340893 -0.0112389 0 0.0800357 0 0.0298984)
(0.0438281 -0.0130812 0 0.0915634 0 0.0373535)
(0.0495375 -0.0129083 0 0.0936378 0 0.0415523)
(0.0501117 -0.0114925 0 0.0930096 0 0.0419895)
(0.0437641 -0.00785917 0 0.0908033 0 0.0374144)
(0.0330685 -0.00417598 0 0.0792482 0 0.0296507)
(0.0281921 -0.00259534 0 0.0666388 0 0.0258746)
(0.0265334 -0.00302268 0 0.0680694 0 0.024424)
(0.0260543 -0.00514096 0 0.0829295 0 0.0239165)
(0.0255014 -0.00673159 0 0.09192 0 0.0233337)
(0.0249044 -0.00752805 0 0.0959911 0 0.0228434)
(0.0262921 -0.0077097 0 0.0948273 0 0.0241047)
(0.0310174 -0.00793801 0 0.0919053 0 0.028026)
(0.0383221 -0.0084795 0 0.0898398 0 0.0338391)
(0.0477634 -0.00956577 0 0.0894246 0 0.0412778)
(0.0617683 -0.0128362 0 0.0985471 0 0.0520413)
(0.0778891 -0.0166351 0 0.115165 0 0.0640377)
(0.0855222 -0.0212161 0 0.151282 0 0.0696791)
(0.0837257 -0.0279531 0 0.233195 0 0.0684175)
(0.0748317 -0.0392234 0 0.352561 0 0.0610608)
(0.0617659 -0.0390508 0 0.381891 0 0.0503045)
(0.0575741 -0.0269266 0 0.346762 0 0.0479849)
(0.0585607 -0.0121672 0 0.266032 0 0.0486824)
(0.0422575 0.00569425 0 0.0909312 0 0.0348623)
(0.0275667 -0.000996715 0 0.115987 0 0.0233104)
(0.0306963 -0.00983292 0 0.15441 0 0.0253543)
(0.0566915 -0.00954266 0 0.08576 0 0.0417035)
(0.059924 -0.00428102 0 0.0151206 0 0.0421196)
(0.0592372 -0.00437363 0 0.00797988 0 0.0408863)
(0.0920322 -0.0105365 0 0.0205117 0 0.0625306)
(0.0399947 -0.00617378 0 0.0339409 0 0.0304002)
(0.0162872 -0.00647207 0 0.0254242 0 0.014477)
(0.0233815 -0.0161801 0 0.0522474 0 0.0186999)
(0.0395633 -0.0461973 0 0.35261 0 0.03276)
(0.0609018 -0.0761079 0 0.670199 0 0.0487342)
(0.0546738 -0.0666235 0 0.675672 0 0.0475184)
(0.0590289 -0.0409162 0 0.484019 0 0.0563294)
(0.059859 -0.000220099 0 0.159868 0 0.0548417)
(0.0227678 0.00352978 0 1e-15 0 0.0223572)
(0.0186109 -0.00690943 0 1e-15 0 0.0182796)
(0.0974572 0.014116 0 1e-15 0 0.0748189)
(0.0453522 0.00145094 0 1e-15 0 0.0322542)
(0.0561157 -0.02717 0 0.294011 0 0.0396394)
(0.0633813 0.0335937 0 0.159049 0 0.040699)
(0.0909024 0.0178232 0 0.0887912 0 0.0714282)
(0.147452 -0.0545489 0 0.121095 0 0.12308)
(0.118139 -0.0765357 0 0.472929 0 0.132475)
(0.14291 0.0277146 0 0.886134 0 0.184052)
(0.162935 0.0907198 0 0.136353 0 0.157256)
(0.0397711 0.0140067 0 0.0431975 0 0.0342917)
(0.0246154 -0.0057211 0 0.180213 0 0.0103017)
(0.0811651 0.0234579 0 0.194383 0 0.0572101)
(0.14257 -0.0521139 0 0.646273 0 0.126094)
(0.0778508 -0.0416918 0 0.632633 0 0.0980671)
(0.109349 0.0241146 0 0.336909 0 0.122433)
(0.0895813 0.0340441 0 0.0205099 0 0.0909258)
(0.0372696 0.00906891 0 1e-15 0 0.0337627)
(0.042179 -0.00939831 0 0.0507494 0 0.0313188)
(0.0275386 -0.00750447 0 0.115818 0 0.0129643)
(0.0458098 0.0153027 0 0.127713 0 0.0383198)
(0.0818683 0.0151862 0 0.024108 0 0.0810657)
(0.0461893 0.00115461 0 0.0145296 0 0.0512003)
(0.0462333 -0.0135083 0 0.0370073 0 0.049636)
(0.0779394 -0.015673 0 0.0292504 0 0.0709606)
(0.0867643 -0.0222796 0 0.0505468 0 0.0708923)
(0.0771967 -0.0312621 0 0.128555 0 0.0603918)
(0.0675976 -0.0326462 0 0.293726 0 0.0557131)
(0.0859395 -0.00248981 0 0.496803 0 0.0812029)
(0.118497 0.0368634 0 0.4502 0 0.116384)
(0.0912047 -0.00684734 0 0.0762079 0 0.0846606)
(0.0492157 0.00948691 0 1e-15 0 0.046871)
(0.0387708 0.00869362 0 1e-15 0 0.0354974)
(0.0393285 0.00367834 0 1e-15 0 0.0331856)
(0.0500434 -0.0016709 0 1e-15 0 0.0364109)
(0.0670695 -0.00513523 0 1e-15 0 0.0441854)
(0.0764303 -0.0170881 0 0.0298573 0 0.0559049)
(0.0901199 -0.0334079 0 0.238189 0 0.0764491)
(0.0936719 -0.0404852 0 0.32681 0 0.0859284)
(0.089192 -0.0369108 0 0.341126 0 0.0888147)
(0.0843986 -0.0268606 0 0.345423 0 0.0908903)
(0.0796116 -0.00765363 0 0.30337 0 0.0874199)
(0.0652677 0.00549202 0 0.250629 0 0.067666)
(0.0394 0.00638757 0 0.183498 0 0.0364094)
(0.0154195 0.00266359 0 0.0712988 0 0.0122527)
(0.00509295 -0.000614875 0 0.0113169 0 0.00345673)
(0.00322295 -0.000258729 0 0.00101783 0 0.00223961)
(0.00314188 -0.000140603 0 1e-15 0 0.00227621)
(0.00348128 -0.000364594 0 0.000396111 0 0.00259378)
(0.00371355 -0.000542223 0 0.00261118 0 0.00289742)
(0.00360678 -0.000450624 0 0.00280776 0 0.00283766)
(0.00327014 -0.000228513 0 0.00119367 0 0.00253732)
(0.00191036 7.13993e-05 0 1e-15 0 0.00147088)
(0.000778009 5.73591e-05 0 1e-15 0 0.000595605)
(0.000263276 -2.74167e-06 0 0.000100721 0 0.000200122)
(7.20558e-05 6.23508e-07 0 7.92275e-05 0 5.5576e-05)
(1.68204e-05 1.61715e-06 0 1.85984e-05 0 1.31771e-05)
(3.4842e-06 4.47888e-07 0 3.65876e-06 0 2.75334e-06)
(6.60608e-07 8.80557e-08 0 6.67069e-07 0 5.2519e-07)
(1.15467e-07 1.50644e-08 0 1.13066e-07 0 9.22636e-08)
(1.86337e-08 2.34471e-09 0 1.77914e-08 0 1.49579e-08)
(2.7897e-09 3.36988e-10 0 2.60496e-09 0 2.24891e-09)
(3.96894e-10 4.55359e-11 0 3.6111e-10 0 3.21377e-10)
(6.43376e-11 6.49275e-12 0 5.46815e-11 0 5.25742e-11)
(2.37529e-11 1.75298e-12 0 1.74392e-11 0 1.97987e-11)
(2.13149e-11 1.33815e-12 0 1.48751e-11 0 1.79519e-11)
(2.35901e-11 1.40465e-12 0 1.64833e-11 0 1.99744e-11)
(2.76401e-11 1.57015e-12 0 1.95313e-11 0 2.3542e-11)
(3.18481e-11 1.73632e-12 0 2.27739e-11 0 2.72678e-11)
(3.58946e-11 1.88441e-12 0 2.59447e-11 0 3.08745e-11)
(4.00154e-11 2.02383e-12 0 2.92206e-11 0 3.45711e-11)
(4.42842e-11 2.15721e-12 0 3.26616e-11 0 3.84245e-11)
(4.86907e-11 2.28366e-12 0 3.62634e-11 0 4.24277e-11)
(5.32199e-11 2.40254e-12 0 4.00179e-11 0 4.65686e-11)
(5.78694e-11 2.51338e-12 0 4.39273e-11 0 5.08474e-11)
(6.26336e-11 2.61569e-12 0 4.79888e-11 0 5.52598e-11)
(6.74963e-11 2.70903e-12 0 5.21908e-11 0 5.97922e-11)
(7.24413e-11 2.79278e-12 0 5.65198e-11 0 6.44294e-11)
(7.7456e-11 2.86716e-12 0 6.09675e-11 0 6.91611e-11)
(8.2533e-11 2.9315e-12 0 6.5528e-11 0 7.39803e-11)
(8.76601e-11 2.98636e-12 0 7.0191e-11 0 7.88762e-11)
(9.28179e-11 3.03079e-12 0 7.49374e-11 0 8.38293e-11)
(9.79834e-11 3.06576e-12 0 7.97449e-11 0 8.88171e-11)
(1.03139e-10 3.09049e-12 0 8.45958e-11 0 9.38216e-11)
(1.08275e-10 3.10627e-12 0 8.94799e-11 0 9.88329e-11)
(1.13379e-10 3.11253e-12 0 9.43856e-11 0 1.0384e-10)
(1.18454e-10 3.1105e-12 0 9.93114e-11 0 1.08841e-10)
(1.23483e-10 3.09989e-12 0 1.04242e-10 0 1.13823e-10)
(1.28472e-10 3.08164e-12 0 1.0918e-10 0 1.18788e-10)
(1.33403e-10 3.05584e-12 0 1.14107e-10 0 1.23719e-10)
(1.38281e-10 3.02314e-12 0 1.19024e-10 0 1.28618e-10)
(1.43088e-10 2.98388e-12 0 1.23914e-10 0 1.33468e-10)
(1.47832e-10 2.93866e-12 0 1.28779e-10 0 1.38274e-10)
(1.52491e-10 2.88766e-12 0 1.336e-10 0 1.43017e-10)
(1.57079e-10 2.83212e-12 0 1.38379e-10 0 1.477e-10)
(1.6157e-10 2.77088e-12 0 1.43105e-10 0 1.52314e-10)
(1.65992e-10 2.70741e-12 0 1.47765e-10 0 1.56849e-10)
(1.70229e-10 2.63752e-12 0 1.52314e-10 0 1.61258e-10)
(1.74617e-10 2.56805e-12 0 1.56969e-10 0 1.65753e-10)
(1.7824e-10 2.4889e-12 0 1.60917e-10 0 1.69583e-10)
(1.82947e-10 2.42646e-12 0 1.66038e-10 0 1.74443e-10)
(0.0392589 -0.0134458 0 0.112155 0 0.0326377)
(0.0380643 -0.0122072 0 0.101981 0 0.0313752)
(0.0354946 -0.0116013 0 0.103838 0 0.0293792)
(0.0317349 -0.0125759 0 0.117664 0 0.0266137)
(0.02933 -0.0138283 0 0.137581 0 0.0250443)
(0.028507 -0.0133291 0 0.141554 0 0.0246753)
(0.027783 -0.0121867 0 0.127394 0 0.0242569)
(0.0272354 -0.011679 0 0.117946 0 0.0239866)
(0.0273085 -0.0117941 0 0.115311 0 0.0242259)
(0.0305632 -0.013733 0 0.122063 0 0.0269178)
(0.0424345 -0.0187921 0 0.158187 0 0.0361008)
(0.0557684 -0.0219657 0 0.186057 0 0.0460835)
(0.0633852 -0.0218693 0 0.191633 0 0.0515937)
(0.0639251 -0.0200563 0 0.191274 0 0.0520064)
(0.0546489 -0.0158944 0 0.186159 0 0.045306)
(0.0409614 -0.0114885 0 0.162774 0 0.0354463)
(0.0355855 -0.00774886 0 0.129493 0 0.0314685)
(0.0338503 -0.00473257 0 0.0928036 0 0.0299912)
(0.0322175 -0.00412757 0 0.0731661 0 0.0285943)
(0.0310606 -0.00502061 0 0.0721632 0 0.0276507)
(0.0303713 -0.00628861 0 0.0793255 0 0.0272913)
(0.0339525 -0.00863172 0 0.0910851 0 0.0302372)
(0.0431546 -0.0116565 0 0.105813 0 0.037429)
(0.0575725 -0.0152853 0 0.129096 0 0.0483791)
(0.0744311 -0.0190221 0 0.158353 0 0.0610625)
(0.0932322 -0.0219059 0 0.192145 0 0.0750252)
(0.10912 -0.022444 0 0.228231 0 0.0866649)
(0.106953 -0.0218284 0 0.272161 0 0.085534)
(0.0911983 -0.0205633 0 0.307016 0 0.0741746)
(0.0690386 -0.0261793 0 0.369807 0 0.0563359)
(0.0528971 -0.0298317 0 0.382703 0 0.0417567)
(0.0553005 -0.0312016 0 0.409623 0 0.0432235)
(0.0643219 -0.0258306 0 0.399551 0 0.0500961)
(0.0540056 -0.00147572 0 0.134708 0 0.0419147)
(0.0319008 0.00460769 0 0.0370382 0 0.0259442)
(0.0352651 -0.00782107 0 0.0588792 0 0.0272014)
(0.103067 -0.0146785 0 0.0232883 0 0.0693698)
(0.148971 -0.00119264 0 1e-15 0 0.0995531)
(0.141476 0.00218989 0 1e-15 0 0.094021)
(0.301334 -0.0148209 0 1e-15 0 0.195821)
(0.168649 0.00160593 0 1e-15 0 0.112927)
(0.0359545 -0.0147192 0 1e-15 0 0.025425)
(0.0236056 -0.0120415 0 0.0097706 0 0.0197097)
(0.0334741 -0.0261366 0 0.201549 0 0.0297743)
(0.0407726 -0.0498963 0 0.512829 0 0.0328155)
(0.0354308 -0.0593604 0 0.60313 0 0.0292522)
(0.0578942 -0.0643484 0 0.680337 0 0.0525695)
(0.0768206 -0.0480612 0 0.501895 0 0.0639273)
(0.0233658 -0.0374767 0 0.0331149 0 0.0258528)
(0.121654 -0.102182 0 0.135033 0 0.0972734)
(0.228666 -0.00711891 0 0.0282163 0 0.170977)
(0.0879311 0.00277407 0 0.0892735 0 0.0635531)
(0.0485975 -0.0189845 0 0.264715 0 0.0346734)
(0.0593536 -0.0176151 0 0.480064 0 0.033795)
(0.116734 0.00258824 0 0.284749 0 0.0895654)
(0.182019 -0.0693844 0 0.175171 0 0.146455)
(0.111172 -0.0710437 0 0.498318 0 0.127117)
(0.16146 -0.0522582 0 1.66927 0 0.205857)
(0.327566 0.185608 0 0.398019 0 0.289178)
(0.0694961 0.0306748 0 0.292061 0 0.0591467)
(0.0310729 -0.0511373 0 0.547512 0 0.0130585)
(0.0867224 -0.0294529 0 0.551744 0 0.0555968)
(0.173595 -0.102202 0 0.936207 0 0.14319)
(0.0772366 -0.0684742 0 0.806919 0 0.0964004)
(0.134112 -0.0127621 0 0.819853 0 0.145107)
(0.137924 0.0402236 0 0.279548 0 0.13731)
(0.0517108 0.00792971 0 0.0485265 0 0.0466873)
(0.0587615 -0.0330523 0 0.237296 0 0.0414254)
(0.0367152 -0.057399 0 0.482665 0 0.0133435)
(0.0643886 0.00787587 0 0.571916 0 0.0516164)
(0.126108 0.00635015 0 0.428565 0 0.126115)
(0.0717 -0.0244177 0 0.440755 0 0.0785076)
(0.0606883 -0.0478529 0 0.50635 0 0.0684546)
(0.0893275 -0.0429817 0 0.484079 0 0.0913018)
(0.0893804 -0.0500755 0 0.507146 0 0.083159)
(0.0768621 -0.0635493 0 0.631508 0 0.0652115)
(0.0716159 -0.0695751 0 0.828637 0 0.0609575)
(0.100598 -0.0483123 0 1.23246 0 0.094954)
(0.156663 0.0032376 0 1.19399 0 0.15218)
(0.13288 -0.0455433 0 0.433947 0 0.122267)
(0.0921519 0.00319124 0 0.0323516 0 0.0898294)
(0.072493 0.00311544 0 1e-15 0 0.0669623)
(0.0806071 -0.0134552 0 1e-15 0 0.0663604)
(0.072191 -0.0278604 0 0.0506112 0 0.0534646)
(0.0818298 -0.0319814 0 0.214078 0 0.0526874)
(0.101166 -0.0425647 0 0.481791 0 0.0737457)
(0.110204 -0.0494653 0 0.633446 0 0.0942599)
(0.111282 -0.0617026 0 0.671534 0 0.101901)
(0.103914 -0.0562497 0 0.709233 0 0.104605)
(0.0962885 -0.0437833 0 0.716721 0 0.105562)
(0.0919702 -0.0151617 0 0.640882 0 0.102646)
(0.0772333 0.0120574 0 0.43078 0 0.0807296)
(0.042768 0.0135954 0 0.207092 0 0.0391488)
(0.0158822 0.00441581 0 0.0741138 0 0.0120758)
(0.00613124 -0.000745736 0 0.014452 0 0.00399039)
(0.00408149 -0.000299003 0 0.00179905 0 0.00283537)
(0.00393725 -0.000232967 0 0.000409298 0 0.00285578)
(0.00421563 -0.000525113 0 0.00209931 0 0.00315029)
(0.00441725 -0.000781878 0 0.00664191 0 0.00346071)
(0.0042651 -0.000645593 0 0.0073593 0 0.00336805)
(0.00388498 -0.000386899 0 0.00532832 0 0.00300846)
(0.00263476 -1.99684e-05 0 0.00104785 0 0.00200186)
(0.00113321 0.000101875 0 1e-15 0 0.000861119)
(0.000408849 3.30031e-05 0 1e-15 0 0.0003098)
(0.00012199 4.3117e-06 0 8.89488e-05 0 9.21613e-05)
(3.07403e-05 1.559e-06 0 3.05159e-05 0 2.32651e-05)
(6.80039e-06 5.01687e-07 0 6.59968e-06 0 5.15853e-06)
(1.36218e-06 1.14778e-07 0 1.29057e-06 0 1.03559e-06)
(2.49298e-07 2.21175e-08 0 2.30969e-07 0 1.89998e-07)
(4.18605e-08 3.79015e-09 0 3.79739e-08 0 3.19919e-08)
(6.49912e-09 5.90897e-10 0 5.76838e-09 0 4.98207e-09)
(9.68298e-10 8.67829e-11 0 8.31538e-10 0 7.45534e-10)
(1.78433e-10 1.46811e-11 0 1.38581e-10 0 1.39291e-10)
(8.25882e-11 5.63944e-12 0 5.4356e-11 0 6.61445e-11)
(7.93692e-11 5.00214e-12 0 5.02365e-11 0 6.42381e-11)
(8.90769e-11 5.36406e-12 0 5.66647e-11 0 7.25799e-11)
(1.04359e-10 5.99799e-12 0 6.73811e-11 0 8.56332e-11)
(1.19627e-10 6.59506e-12 0 7.83883e-11 0 9.87667e-11)
(1.34391e-10 7.1274e-12 0 8.92589e-11 0 1.11574e-10)
(1.49429e-10 7.62727e-12 0 1.0054e-10 0 1.24724e-10)
(1.64948e-10 8.10178e-12 0 1.12394e-10 0 1.38403e-10)
(1.80891e-10 8.54782e-12 0 1.24795e-10 0 1.5257e-10)
(1.97207e-10 8.96332e-12 0 1.37719e-10 0 1.67186e-10)
(2.13889e-10 9.34684e-12 0 1.51177e-10 0 1.82253e-10)
(2.30913e-10 9.69649e-12 0 1.65157e-10 0 1.97753e-10)
(2.48219e-10 1.00109e-11 0 1.79618e-10 0 2.13638e-10)
(2.65748e-10 1.02887e-11 0 1.94514e-10 0 2.29851e-10)
(2.83453e-10 1.05301e-11 0 2.09814e-10 0 2.46358e-10)
(3.01311e-10 1.07339e-11 0 2.25499e-10 0 2.63133e-10)
(3.19276e-10 1.09011e-11 0 2.41533e-10 0 2.80137e-10)
(3.37282e-10 1.10297e-11 0 2.57848e-10 0 2.97303e-10)
(3.55246e-10 1.11226e-11 0 2.74365e-10 0 3.14552e-10)
(3.7311e-10 1.11788e-11 0 2.91024e-10 0 3.31821e-10)
(3.90842e-10 1.12019e-11 0 3.07789e-10 0 3.49078e-10)
(4.08412e-10 1.11914e-11 0 3.24624e-10 0 3.66288e-10)
(4.2582e-10 1.11508e-11 0 3.41521e-10 0 3.8345e-10)
(4.43019e-10 1.108e-11 0 3.5843e-10 0 4.00514e-10)
(4.60028e-10 1.09822e-11 0 3.75355e-10 0 4.17489e-10)
(4.76785e-10 1.08577e-11 0 3.92233e-10 0 4.34317e-10)
(4.93318e-10 1.07093e-11 0 4.09074e-10 0 4.51012e-10)
(5.0956e-10 1.05378e-11 0 4.2581e-10 0 4.67512e-10)
(5.25549e-10 1.03462e-11 0 4.42455e-10 0 4.83836e-10)
(5.41208e-10 1.01342e-11 0 4.58943e-10 0 4.99923e-10)
(5.56592e-10 9.90767e-12 0 4.75275e-10 0 5.15781e-10)
(5.71599e-10 9.66058e-12 0 4.91422e-10 0 5.31383e-10)
(5.86365e-10 9.40789e-12 0 5.07334e-10 0 5.46698e-10)
(6.00439e-10 9.1335e-12 0 5.22864e-10 0 5.61571e-10)