/*--------------------------------*- C++ -*----------------------------------*\
| =========                 |                                                 |
| \\      /  F ield         | OpenFOAM: The Open Source CFD Toolbox           |
|  \\    /   O peration     | Version:  v1912                                 |
|   \\  /    A nd           | Website:  www.openfoam.com                      |
|    \\/     M anipulation  |                                                 |
\*---------------------------------------------------------------------------*/
FoamFile
{
    version     2.0;
    format      ascii;
    class       volScalarField;
    location    "70";
    object      k;
}
// * * * * * * * * * * * * * * * * * * * * * * * * * * * * * * * * * * * * * //

dimensions      [0 2 -2 0 0 0 0];


internalField   nonuniform List<scalar> 
14268
(
5.50748e-10
5.31857e-10
5.35276e-10
5.43335e-10
5.42434e-10
5.41849e-10
5.55759e-10
5.73141e-10
5.64377e-10
5.46131e-10
5.31576e-10
5.24352e-10
5.20169e-10
5.18659e-10
5.21561e-10
5.2739e-10
5.41961e-10
5.60459e-10
5.65483e-10
5.5217e-10
5.36048e-10
5.2954e-10
5.26146e-10
5.25767e-10
5.35422e-10
5.42763e-10
5.51788e-10
5.70868e-10
6.13261e-10
7.60261e-10
1.10823e-09
1.69549e-09
2.78667e-09
4.23179e-09
6.08052e-09
8.22639e-09
9.98539e-09
1.16879e-08
1.42918e-08
2.03423e-08
3.25706e-08
6.67636e-06
0.000143128
0.000205512
1.17137e-08
1.13932e-08
1.14926e-08
1.17128e-08
1.16801e-08
1.15576e-08
1.17301e-08
1.20465e-08
1.19593e-08
1.16841e-08
1.14688e-08
1.13845e-08
1.13624e-08
1.14067e-08
1.14315e-08
1.14039e-08
1.1532e-08
1.17745e-08
1.18575e-08
1.17206e-08
1.14955e-08
1.14157e-08
1.13904e-08
1.1435e-08
1.16287e-08
1.17922e-08
1.19868e-08
1.23325e-08
1.30027e-08
1.48818e-08
1.87138e-08
2.46611e-08
3.2528e-08
4.08888e-08
5.02488e-08
6.05256e-08
7.03528e-08
8.03557e-08
9.22478e-08
1.10283e-07
1.52571e-07
5.06234e-05
0.000514023
0.000919368
3.62507e-08
3.5665e-08
3.58198e-08
3.62051e-08
3.61346e-08
3.592e-08
3.62332e-08
3.67664e-08
3.66235e-08
3.61396e-08
3.57489e-08
3.55842e-08
3.55384e-08
3.56241e-08
3.56585e-08
3.56024e-08
3.58171e-08
3.62124e-08
3.63235e-08
3.61274e-08
3.57364e-08
3.55508e-08
3.5469e-08
3.55935e-08
3.59587e-08
3.62485e-08
3.65438e-08
3.70841e-08
3.81025e-08
4.04324e-08
4.43724e-08
4.95783e-08
5.60856e-08
6.31086e-08
7.12981e-08
8.07886e-08
9.01726e-08
1.00248e-07
1.12329e-07
1.302e-07
2.62969e-07
0.000119406
0.000837697
0.00156306
5.08729e-08
5.05452e-08
5.06412e-08
5.0863e-08
5.08085e-08
5.06825e-08
5.08451e-08
5.11506e-08
5.1067e-08
5.08034e-08
5.05816e-08
5.05085e-08
5.04778e-08
5.05282e-08
5.05251e-08
5.04951e-08
5.06025e-08
5.08083e-08
5.08452e-08
5.07467e-08
5.05335e-08
5.04416e-08
5.03808e-08
5.04592e-08
5.06422e-08
5.08029e-08
5.09388e-08
5.12351e-08
5.17507e-08
5.29511e-08
5.50619e-08
5.8077e-08
6.24965e-08
6.79091e-08
7.47505e-08
8.30527e-08
9.19341e-08
1.01707e-07
1.13569e-07
1.32146e-07
1.09601e-06
0.000204971
0.00115232
0.00216583
5.57598e-08
5.56257e-08
5.56655e-08
5.57599e-08
5.57306e-08
5.56785e-08
5.57631e-08
5.58902e-08
5.58506e-08
5.57331e-08
5.5639e-08
5.56239e-08
5.56056e-08
5.56262e-08
5.56374e-08
5.56216e-08
5.56466e-08
5.57306e-08
5.57285e-08
5.57019e-08
5.56051e-08
5.55778e-08
5.55296e-08
5.55715e-08
5.56293e-08
5.57103e-08
5.57421e-08
5.58591e-08
5.60877e-08
5.66297e-08
5.7834e-08
5.99529e-08
6.35884e-08
6.84605e-08
7.50017e-08
8.33376e-08
9.22475e-08
1.01869e-07
1.13555e-07
1.33476e-07
6.39559e-06
0.000313407
0.00148702
0.00278108
5.71063e-08
5.70594e-08
5.70732e-08
5.71106e-08
5.70947e-08
5.70789e-08
5.70879e-08
5.71501e-08
5.71294e-08
5.70978e-08
5.7053e-08
5.70552e-08
5.70364e-08
5.70513e-08
5.70362e-08
5.7048e-08
5.70489e-08
5.70702e-08
5.70466e-08
5.70464e-08
5.70023e-08
5.70092e-08
5.69827e-08
5.69999e-08
5.70019e-08
5.70296e-08
5.70251e-08
5.70967e-08
5.71624e-08
5.74815e-08
5.84023e-08
6.02547e-08
6.37529e-08
6.86567e-08
7.53123e-08
8.3507e-08
9.18533e-08
1.01089e-07
1.12974e-07
1.39074e-07
2.41246e-05
0.00044882
0.00185078
0.00340322
5.73513e-08
5.73339e-08
5.73417e-08
5.73592e-08
5.73496e-08
5.73452e-08
5.73696e-08
5.7399e-08
5.7387e-08
5.73639e-08
5.73413e-08
5.73557e-08
5.734e-08
5.73476e-08
5.73584e-08
5.73556e-08
5.73394e-08
5.7353e-08
5.733e-08
5.73375e-08
5.73119e-08
5.73265e-08
5.7296e-08
5.73045e-08
5.72799e-08
5.73122e-08
5.72987e-08
5.73322e-08
5.73817e-08
5.76406e-08
5.85146e-08
6.03042e-08
6.37373e-08
6.85046e-08
7.48851e-08
8.28295e-08
9.14255e-08
1.0112e-07
1.13704e-07
1.66807e-07
5.66111e-05
0.000613018
0.00225149
0.0040532
5.74826e-08
5.74708e-08
5.74718e-08
5.74821e-08
5.74755e-08
5.74781e-08
5.74698e-08
5.74993e-08
5.74875e-08
5.74824e-08
5.74569e-08
5.74698e-08
5.74538e-08
5.74676e-08
5.74557e-08
5.74727e-08
5.74549e-08
5.74539e-08
5.74236e-08
5.74391e-08
5.74248e-08
5.74431e-08
5.74152e-08
5.7425e-08
5.74065e-08
5.74216e-08
5.74012e-08
5.74388e-08
5.74623e-08
5.7692e-08
5.85001e-08
6.0292e-08
6.37498e-08
6.83945e-08
7.47572e-08
8.26989e-08
9.12013e-08
1.00991e-07
1.15491e-07
2.60236e-07
0.000102623
0.00080707
0.0026892
0.00472423
5.74264e-08
5.74196e-08
5.74244e-08
5.74341e-08
5.74267e-08
5.74266e-08
5.74385e-08
5.74619e-08
5.74567e-08
5.74428e-08
5.7426e-08
5.74418e-08
5.74276e-08
5.74368e-08
5.74417e-08
5.74439e-08
5.74215e-08
5.74288e-08
5.74042e-08
5.74135e-08
5.73906e-08
5.74111e-08
5.7384e-08
5.73908e-08
5.73565e-08
5.73775e-08
5.73555e-08
5.73901e-08
5.74176e-08
5.76642e-08
5.8528e-08
6.03317e-08
6.37181e-08
6.85282e-08
7.49912e-08
8.2469e-08
9.13393e-08
1.02668e-07
1.2369e-07
5.60235e-07
0.000163369
0.00103145
0.00316344
0.00542242
5.74931e-08
5.74837e-08
5.74801e-08
5.74882e-08
5.74845e-08
5.7489e-08
5.74827e-08
5.75077e-08
5.7497e-08
5.74931e-08
5.74715e-08
5.74848e-08
5.74679e-08
5.74804e-08
5.74769e-08
5.74903e-08
5.74693e-08
5.74672e-08
5.74372e-08
5.74534e-08
5.74401e-08
5.74596e-08
5.74326e-08
5.74416e-08
5.74217e-08
5.74437e-08
5.74256e-08
5.74559e-08
5.74772e-08
5.7696e-08
5.84966e-08
6.02578e-08
6.37246e-08
6.82598e-08
7.43486e-08
8.17988e-08
9.14719e-08
1.05868e-07
1.41301e-07
1.45781e-06
0.000240486
0.00128547
0.00367009
0.00614036
5.74132e-08
5.74079e-08
5.74127e-08
5.74224e-08
5.74132e-08
5.74113e-08
5.74209e-08
5.74439e-08
5.74411e-08
5.74284e-08
5.74119e-08
5.74268e-08
5.74105e-08
5.74196e-08
5.74215e-08
5.74253e-08
5.74025e-08
5.74122e-08
5.73866e-08
5.73958e-08
5.73708e-08
5.73877e-08
5.73591e-08
5.73695e-08
5.73349e-08
5.73501e-08
5.73231e-08
5.73593e-08
5.73852e-08
5.76293e-08
5.8485e-08
6.02375e-08
6.36368e-08
6.79904e-08
7.40216e-08
8.15089e-08
9.36948e-08
1.15792e-07
1.81765e-07
3.92969e-06
0.000335692
0.00156743
0.00420345
0.00687789
5.74912e-08
5.74821e-08
5.74748e-08
5.74838e-08
5.7483e-08
5.74881e-08
5.74826e-08
5.75054e-08
5.74958e-08
5.74935e-08
5.74738e-08
5.74879e-08
5.74695e-08
5.74834e-08
5.74848e-08
5.74933e-08
5.74682e-08
5.74665e-08
5.74382e-08
5.74553e-08
5.74396e-08
5.74586e-08
5.74328e-08
5.74435e-08
5.74211e-08
5.74475e-08
5.74333e-08
5.74634e-08
5.74832e-08
5.77069e-08
5.84947e-08
6.02267e-08
6.34899e-08
6.79853e-08
7.38312e-08
8.14949e-08
9.85209e-08
1.33733e-07
2.62831e-07
9.68107e-06
0.000450472
0.00187424
0.0047569
0.00762872
5.73957e-08
5.739e-08
5.73955e-08
5.74056e-08
5.73941e-08
5.73903e-08
5.73987e-08
5.74236e-08
5.74197e-08
5.74052e-08
5.73889e-08
5.7403e-08
5.73861e-08
5.73925e-08
5.73913e-08
5.73976e-08
5.73755e-08
5.73854e-08
5.73591e-08
5.73688e-08
5.73439e-08
5.73566e-08
5.73243e-08
5.73362e-08
5.73058e-08
5.73172e-08
5.72827e-08
5.73211e-08
5.73513e-08
5.75942e-08
5.84609e-08
6.02864e-08
6.36539e-08
6.76671e-08
7.364e-08
8.25864e-08
1.09575e-07
1.69084e-07
4.33023e-07
2.05763e-05
0.00058559
0.00220184
0.00532224
0.00839014
5.75135e-08
5.7502e-08
5.74903e-08
5.75024e-08
5.75051e-08
5.75099e-08
5.75057e-08
5.75285e-08
5.7518e-08
5.75151e-08
5.74949e-08
5.75083e-08
5.74889e-08
5.75033e-08
5.75075e-08
5.75115e-08
5.74834e-08
5.7481e-08
5.7459e-08
5.74788e-08
5.74596e-08
5.74783e-08
5.74549e-08
5.7467e-08
5.74456e-08
5.7476e-08
5.7468e-08
5.7498e-08
5.75131e-08
5.77275e-08
5.84773e-08
6.00538e-08
6.32374e-08
6.71405e-08
7.35527e-08
8.63141e-08
1.3205e-07
2.33737e-07
7.87472e-07
3.79909e-05
0.000740773
0.00254454
0.00589078
0.00915713
5.73449e-08
5.73394e-08
5.73466e-08
5.73574e-08
5.73409e-08
5.73327e-08
5.73396e-08
5.73662e-08
5.73633e-08
5.73507e-08
5.73365e-08
5.73527e-08
5.73362e-08
5.73433e-08
5.73408e-08
5.73472e-08
5.73219e-08
5.73331e-08
5.73043e-08
5.73129e-08
5.72886e-08
5.72999e-08
5.72677e-08
5.72777e-08
5.72442e-08
5.72574e-08
5.72232e-08
5.72552e-08
5.72785e-08
5.74968e-08
5.8282e-08
5.98801e-08
6.27543e-08
6.66007e-08
7.40787e-08
9.83486e-08
1.92085e-07
4.03222e-07
1.86853e-06
7.5656e-05
0.00100163
0.00307064
0.00673229
0.0103092
5.75221e-08
5.75103e-08
5.74984e-08
5.75117e-08
5.75131e-08
5.75173e-08
5.7512e-08
5.75349e-08
5.75219e-08
5.75172e-08
5.74962e-08
5.75102e-08
5.74905e-08
5.75039e-08
5.75038e-08
5.75053e-08
5.74792e-08
5.74759e-08
5.74562e-08
5.74764e-08
5.74552e-08
5.74712e-08
5.74475e-08
5.74617e-08
5.744e-08
5.74643e-08
5.74482e-08
5.74772e-08
5.74875e-08
5.76878e-08
5.83718e-08
5.98765e-08
6.23276e-08
6.63314e-08
7.9356e-08
1.41251e-07
3.71614e-07
8.93632e-07
5.59696e-06
0.000157904
0.00140583
0.00376007
0.00779247
0.0118264
5.72815e-08
5.72754e-08
5.72887e-08
5.72972e-08
5.72722e-08
5.72562e-08
5.72681e-08
5.72954e-08
5.72898e-08
5.72724e-08
5.72633e-08
5.72838e-08
5.72674e-08
5.72657e-08
5.72576e-08
5.7265e-08
5.72415e-08
5.7252e-08
5.722e-08
5.72272e-08
5.72051e-08
5.72094e-08
5.71728e-08
5.71819e-08
5.71477e-08
5.71521e-08
5.71032e-08
5.7126e-08
5.71396e-08
5.72921e-08
5.79154e-08
5.91433e-08
6.14436e-08
6.69303e-08
9.85622e-08
2.56478e-07
7.89879e-07
2.03567e-06
1.53834e-05
0.000275245
0.00181431
0.00438268
0.00874286
0.013295
5.74201e-08
5.74088e-08
5.73981e-08
5.7414e-08
5.74115e-08
5.7408e-08
5.73991e-08
5.74199e-08
5.74112e-08
5.7406e-08
5.73882e-08
5.74093e-08
5.73904e-08
5.74024e-08
5.74011e-08
5.73937e-08
5.73597e-08
5.73557e-08
5.73363e-08
5.73567e-08
5.73299e-08
5.73407e-08
5.73173e-08
5.73316e-08
5.73004e-08
5.7318e-08
5.72919e-08
5.73091e-08
5.72887e-08
5.74047e-08
5.78553e-08
5.87336e-08
6.12706e-08
7.18848e-08
1.50547e-07
5.2077e-07
1.64429e-06
4.3377e-06
3.49611e-05
0.000416201
0.00218278
0.00489678
0.00952928
0.0146708
5.70777e-08
5.70722e-08
5.70932e-08
5.70977e-08
5.70596e-08
5.70325e-08
5.70488e-08
5.70798e-08
5.70715e-08
5.70479e-08
5.70442e-08
5.70766e-08
5.70667e-08
5.70513e-08
5.70303e-08
5.7035e-08
5.70105e-08
5.70193e-08
5.69797e-08
5.69803e-08
5.69616e-08
5.69547e-08
5.69084e-08
5.6908e-08
5.68575e-08
5.68496e-08
5.67771e-08
5.67764e-08
5.67531e-08
5.67722e-08
5.70502e-08
5.77192e-08
6.13528e-08
8.72006e-08
2.72355e-07
1.05843e-06
3.21273e-06
8.34914e-06
6.51318e-05
0.000564921
0.00248161
0.00526613
0.0100784
0.0158453
5.71367e-08
5.71268e-08
5.71317e-08
5.71508e-08
5.71299e-08
5.71062e-08
5.71002e-08
5.71262e-08
5.71228e-08
5.7109e-08
5.70981e-08
5.71399e-08
5.71401e-08
5.71419e-08
5.71227e-08
5.7102e-08
5.70568e-08
5.70514e-08
5.70324e-08
5.70467e-08
5.70137e-08
5.7013e-08
5.69895e-08
5.69986e-08
5.69422e-08
5.69395e-08
5.68935e-08
5.68904e-08
5.68147e-08
5.67474e-08
5.67281e-08
5.74782e-08
6.53819e-08
1.28387e-07
5.31895e-07
2.04506e-06
5.74287e-06
1.45801e-05
0.000104937
0.000706049
0.00269296
0.00547832
0.0103904
0.0167679
5.65096e-08
5.65035e-08
5.65623e-08
5.6568e-08
5.64905e-08
5.64231e-08
5.64479e-08
5.64928e-08
5.65026e-08
5.64695e-08
5.64823e-08
5.65376e-08
5.65512e-08
5.65238e-08
5.64793e-08
5.64666e-08
5.64215e-08
5.64268e-08
5.63754e-08
5.63674e-08
5.63557e-08
5.6332e-08
5.62664e-08
5.62565e-08
5.61826e-08
5.6149e-08
5.60353e-08
5.60057e-08
5.59477e-08
5.5785e-08
5.53419e-08
5.71858e-08
7.5741e-08
2.19573e-07
1.03138e-06
3.6847e-06
9.40326e-06
2.41006e-05
0.000154808
0.000829431
0.00283667
0.00558807
0.0105782
0.0175276
5.61045e-08
5.60941e-08
5.6142e-08
5.61798e-08
5.60785e-08
5.59819e-08
5.59866e-08
5.60115e-08
5.59994e-08
5.5992e-08
5.59959e-08
5.60611e-08
5.60563e-08
5.60089e-08
5.59339e-08
5.59042e-08
5.58806e-08
5.58496e-08
5.57713e-08
5.57796e-08
5.57486e-08
5.57228e-08
5.56654e-08
5.56822e-08
5.56132e-08
5.55263e-08
5.53805e-08
5.53203e-08
5.52001e-08
5.47693e-08
5.46902e-08
7.45163e-08
3.01915e-07
1.66611e-06
7.52348e-06
2.19781e-05
4.64362e-05
0.000135246
0.000678758
0.00204042
0.00413413
0.00753411
0.0140666
0.0232794
4.62875e-08
4.63465e-08
4.63884e-08
4.64101e-08
4.60795e-08
4.57608e-08
4.5547e-08
4.53598e-08
4.55451e-08
4.5809e-08
4.60724e-08
4.64158e-08
4.64521e-08
4.62237e-08
4.59554e-08
4.584e-08
4.5751e-08
4.54792e-08
4.52093e-08
4.54287e-08
4.55877e-08
4.54665e-08
4.54116e-08
4.54612e-08
4.52201e-08
4.49514e-08
4.44565e-08
4.40779e-08
4.34423e-08
4.2205e-08
6.82928e-08
4.63455e-07
3.75151e-06
2.06706e-05
7.33827e-05
0.000163099
0.000279859
0.000918399
0.0031703
0.00448378
0.00623853
0.0111882
0.0207878
0.0316128
1.57084e-08
1.58719e-08
1.61094e-08
1.64432e-08
1.65101e-08
1.62524e-08
1.57327e-08
1.54604e-08
1.58244e-08
1.62213e-08
1.64176e-08
1.66512e-08
1.67825e-08
1.68442e-08
1.67657e-08
1.66423e-08
1.63962e-08
1.6163e-08
1.61408e-08
1.62784e-08
1.6301e-08
1.62157e-08
1.6103e-08
1.59082e-08
1.54383e-08
1.51623e-08
1.47011e-08
1.41432e-08
1.48789e-08
4.47882e-08
6.30561e-07
6.28162e-06
4.26983e-05
0.000183618
0.000378111
0.000481885
0.000520087
0.0005918
0.000982796
0.00174198
0.00344243
0.00436743
0.00450297
0.0060269
2.72955e-09
2.87852e-09
3.0284e-09
3.26908e-09
3.38596e-09
3.25491e-09
2.99856e-09
2.96979e-09
3.17835e-09
3.3189e-09
3.33733e-09
3.43733e-09
3.5775e-09
3.67862e-09
3.66572e-09
3.55111e-09
3.37332e-09
3.26771e-09
3.20076e-09
3.10071e-09
3.04177e-09
3.04034e-09
3.02651e-09
2.90582e-09
2.73353e-09
2.57969e-09
2.52489e-09
4.50169e-09
4.33572e-08
5.7773e-07
5.50368e-06
3.05097e-05
0.000106783
0.000303588
0.000567138
0.000713827
0.000778273
0.000838392
0.000970107
0.00118396
0.00175661
0.00318004
0.00520589
0.00909483
4.89685e-10
6.28706e-10
6.729e-10
7.00946e-10
7.01485e-10
6.58821e-10
6.14995e-10
6.43178e-10
6.89878e-10
7.39807e-10
8.00192e-10
9.00524e-10
9.69616e-10
9.81148e-10
9.82061e-10
9.29649e-10
8.71543e-10
8.50832e-10
8.45608e-10
8.08444e-10
7.95456e-10
7.9841e-10
7.82292e-10
6.89559e-10
5.78077e-10
4.84411e-10
4.42047e-10
9.15644e-10
7.64351e-09
6.9866e-08
5.23954e-07
3.00972e-06
1.12629e-05
3.26959e-05
0.000130008
0.000404331
0.000651672
0.000682951
0.000733003
0.000784605
0.000917914
0.00155525
0.0021746
0.0055852
1.88763e-10
2.19447e-10
2.25883e-10
2.49176e-10
2.78785e-10
3.04127e-10
3.33949e-10
3.5205e-10
3.7777e-10
3.71464e-10
3.60569e-10
3.87099e-10
4.43879e-10
4.65548e-10
4.67392e-10
4.53672e-10
4.69649e-10
5.28262e-10
5.83931e-10
5.78099e-10
5.5832e-10
5.7428e-10
6.00132e-10
5.71638e-10
4.94651e-10
4.8671e-10
5.82912e-10
6.92399e-10
8.77568e-10
2.7302e-09
1.54727e-08
8.395e-08
4.74023e-07
1.5424e-06
6.50865e-06
4.71894e-05
0.000186524
0.00026228
0.000300753
0.000386304
0.000392058
0.000620955
0.000850135
0.00206115
2.20544e-08
6.18354e-09
6.89204e-09
1.43999e-08
2.18242e-08
2.72128e-08
3.39154e-08
3.34518e-08
2.63302e-08
2.33684e-08
2.41767e-08
2.55152e-08
2.56446e-08
2.54285e-08
2.70532e-08
3.21025e-08
4.11886e-08
4.92552e-08
5.15892e-08
4.89995e-08
4.43071e-08
4.06404e-08
3.95971e-08
4.18465e-08
4.44098e-08
4.50834e-08
4.46709e-08
4.29198e-08
3.94925e-08
3.39487e-08
2.98853e-08
3.18562e-08
4.14443e-08
6.36711e-08
1.60318e-07
1.45111e-06
9.22213e-06
1.87443e-05
2.53909e-05
3.02132e-05
2.58766e-05
2.752e-05
1.62534e-05
4.05012e-05
5.22496e-07
8.39868e-08
4.47059e-08
7.30026e-08
1.14787e-07
1.33112e-07
1.51451e-07
1.54477e-07
1.4283e-07
1.25984e-07
1.24709e-07
1.30294e-07
1.36803e-07
1.44769e-07
1.47394e-07
1.51852e-07
1.63304e-07
1.80014e-07
1.83381e-07
1.78782e-07
1.65903e-07
1.48325e-07
1.30588e-07
1.24267e-07
1.19812e-07
1.14922e-07
1.08103e-07
1.00679e-07
9.3499e-08
8.4988e-08
7.48415e-08
6.28078e-08
6.05295e-08
5.87273e-08
5.87194e-08
7.46407e-08
3.28443e-07
7.3348e-07
8.04685e-07
7.61936e-07
4.87186e-07
4.49935e-07
1.99591e-07
1.53e-07
5.82584e-06
1.10484e-06
2.43501e-07
1.36506e-07
1.34381e-07
1.41574e-07
1.4788e-07
1.54731e-07
1.55117e-07
1.51684e-07
1.51169e-07
1.5423e-07
1.59235e-07
1.64389e-07
1.64211e-07
1.60337e-07
1.52336e-07
1.41032e-07
1.30478e-07
1.20938e-07
1.1163e-07
1.03758e-07
9.66953e-08
8.94495e-08
8.29746e-08
7.9102e-08
7.59703e-08
7.25619e-08
6.90051e-08
6.5994e-08
6.36477e-08
6.22294e-08
6.09369e-08
6.07091e-08
6.03445e-08
6.05782e-08
6.556e-08
7.33271e-08
7.39352e-08
7.4282e-08
7.58367e-08
8.2958e-08
9.54721e-08
1.42294e-07
3.56508e-05
9.06481e-06
1.95569e-06
4.88394e-07
1.88563e-07
1.29238e-07
1.11535e-07
1.11233e-07
1.17137e-07
1.21815e-07
1.21392e-07
1.19122e-07
1.16016e-07
1.13534e-07
1.08899e-07
1.00589e-07
8.95248e-08
7.85167e-08
7.20598e-08
6.79611e-08
6.52015e-08
6.40903e-08
6.30798e-08
6.1512e-08
5.99722e-08
5.91868e-08
5.8723e-08
5.82405e-08
5.77892e-08
5.76595e-08
5.78244e-08
5.80099e-08
5.77839e-08
5.79317e-08
5.90044e-08
6.08867e-08
6.31241e-08
6.46328e-08
6.57456e-08
6.71587e-08
7.02641e-08
7.65465e-08
8.41666e-08
1.02195e-07
0.000125123
4.01854e-05
9.97495e-06
2.32785e-06
5.30518e-07
1.5797e-07
8.68587e-08
7.33144e-08
7.25161e-08
7.31485e-08
7.23996e-08
6.9886e-08
6.69107e-08
6.50767e-08
6.33298e-08
6.15487e-08
5.98952e-08
5.86577e-08
5.79608e-08
5.74901e-08
5.71317e-08
5.69855e-08
5.69749e-08
5.69889e-08
5.70598e-08
5.71944e-08
5.74123e-08
5.76866e-08
5.78471e-08
5.79162e-08
5.81316e-08
5.86574e-08
5.94196e-08
5.99434e-08
6.01694e-08
6.06288e-08
6.17388e-08
6.3334e-08
6.59975e-08
6.93402e-08
7.33274e-08
8.15603e-08
8.69521e-08
1.03952e-07
0.000317886
0.000126524
3.56091e-05
8.45673e-06
1.73092e-06
3.40492e-07
1.02313e-07
6.73097e-08
6.23812e-08
6.1244e-08
6.04818e-08
5.9717e-08
5.90208e-08
5.85379e-08
5.80748e-08
5.75897e-08
5.71416e-08
5.68105e-08
5.66343e-08
5.6579e-08
5.66426e-08
5.67288e-08
5.67583e-08
5.67543e-08
5.67576e-08
5.67816e-08
5.68316e-08
5.69356e-08
5.719e-08
5.75369e-08
5.8013e-08
5.81777e-08
5.81908e-08
5.84969e-08
5.95197e-08
6.11059e-08
6.30044e-08
6.44077e-08
6.5697e-08
6.74045e-08
6.95367e-08
7.45425e-08
7.99133e-08
8.63819e-08
0.000645254
0.000303891
8.97989e-05
2.11418e-05
4.15402e-06
7.17452e-07
1.48882e-07
7.05232e-08
6.04485e-08
5.86766e-08
5.79117e-08
5.72936e-08
5.69363e-08
5.67043e-08
5.65076e-08
5.6429e-08
5.64697e-08
5.65609e-08
5.66439e-08
5.66983e-08
5.66838e-08
5.66946e-08
5.68048e-08
5.69742e-08
5.71631e-08
5.7385e-08
5.7641e-08
5.78668e-08
5.79453e-08
5.80361e-08
5.82562e-08
5.88049e-08
5.95328e-08
6.00371e-08
6.04501e-08
6.09534e-08
6.19409e-08
6.33363e-08
6.53564e-08
6.83347e-08
7.14913e-08
7.66223e-08
8.21935e-08
8.83715e-08
0.00111857
0.000664166
0.000210416
4.97859e-05
9.41958e-06
1.48471e-06
2.392e-07
7.92277e-08
6.10118e-08
5.84786e-08
5.78468e-08
5.75824e-08
5.7439e-08
5.73565e-08
5.72918e-08
5.72548e-08
5.72447e-08
5.72039e-08
5.71752e-08
5.71871e-08
5.72465e-08
5.73232e-08
5.73577e-08
5.737e-08
5.73685e-08
5.74077e-08
5.74981e-08
5.76415e-08
5.79059e-08
5.82223e-08
5.86242e-08
5.87195e-08
5.87755e-08
5.90604e-08
5.98473e-08
6.10915e-08
6.26279e-08
6.40243e-08
6.52572e-08
6.70842e-08
6.88291e-08
7.22731e-08
7.62733e-08
8.13895e-08
0.00165313
0.0010597
0.000357178
8.44929e-05
1.57096e-05
2.38548e-06
3.4538e-07
8.97565e-08
6.19998e-08
5.87778e-08
5.80288e-08
5.76206e-08
5.736e-08
5.72121e-08
5.70615e-08
5.69585e-08
5.68806e-08
5.68844e-08
5.68808e-08
5.68663e-08
5.68626e-08
5.68873e-08
5.69863e-08
5.71382e-08
5.7299e-08
5.74428e-08
5.76033e-08
5.77643e-08
5.78539e-08
5.79515e-08
5.81496e-08
5.86181e-08
5.92892e-08
5.98067e-08
6.03273e-08
6.09373e-08
6.1854e-08
6.32278e-08
6.48334e-08
6.72798e-08
6.97627e-08
7.3543e-08
7.76456e-08
8.18008e-08
0.00215516
0.00149463
0.000572844
0.00013525
2.44762e-05
3.57186e-06
4.78363e-07
1.0263e-07
6.31872e-08
5.89173e-08
5.815e-08
5.78869e-08
5.77152e-08
5.75789e-08
5.74875e-08
5.74411e-08
5.74545e-08
5.74621e-08
5.74824e-08
5.75266e-08
5.75789e-08
5.76208e-08
5.76559e-08
5.76818e-08
5.77335e-08
5.7807e-08
5.79084e-08
5.80675e-08
5.83126e-08
5.85747e-08
5.89126e-08
5.90855e-08
5.92113e-08
5.94721e-08
6.0063e-08
6.09856e-08
6.21981e-08
6.34531e-08
6.45005e-08
6.62832e-08
6.78096e-08
7.04395e-08
7.33859e-08
7.72566e-08
0.00261945
0.00191852
0.00078768
0.000182831
3.2378e-05
4.62369e-06
5.93404e-07
1.13051e-07
6.40709e-08
5.90949e-08
5.8197e-08
5.78058e-08
5.75063e-08
5.73579e-08
5.72523e-08
5.71926e-08
5.71371e-08
5.70808e-08
5.7044e-08
5.69962e-08
5.69829e-08
5.70098e-08
5.70881e-08
5.72049e-08
5.72819e-08
5.739e-08
5.75383e-08
5.76937e-08
5.7814e-08
5.79459e-08
5.81451e-08
5.84657e-08
5.90199e-08
5.95483e-08
6.00932e-08
6.07611e-08
6.16127e-08
6.29549e-08
6.43056e-08
6.63035e-08
6.8239e-08
7.12199e-08
7.4168e-08
7.63642e-08
0.00300502
0.00228342
0.000987236
0.000228838
3.9875e-05
5.56637e-06
6.90056e-07
1.21724e-07
6.4936e-08
5.93227e-08
5.84438e-08
5.815e-08
5.79544e-08
5.78224e-08
5.77229e-08
5.76459e-08
5.76264e-08
5.76236e-08
5.7617e-08
5.76512e-08
5.7702e-08
5.7728e-08
5.77631e-08
5.78173e-08
5.7897e-08
5.79735e-08
5.80658e-08
5.82085e-08
5.84333e-08
5.86773e-08
5.89737e-08
5.92237e-08
5.94713e-08
5.9758e-08
6.02772e-08
6.10128e-08
6.189e-08
6.31057e-08
6.39004e-08
6.54283e-08
6.67587e-08
6.877e-08
7.13634e-08
7.32572e-08
0.00328249
0.00254587
0.00112831
0.000261496
4.51367e-05
6.1989e-06
7.48329e-07
1.25786e-07
6.5083e-08
5.92634e-08
5.83309e-08
5.79593e-08
5.76776e-08
5.74808e-08
5.73548e-08
5.72655e-08
5.71957e-08
5.71427e-08
5.71296e-08
5.70976e-08
5.70759e-08
5.71008e-08
5.71736e-08
5.72601e-08
5.73384e-08
5.74506e-08
5.76006e-08
5.77452e-08
5.78826e-08
5.80289e-08
5.8231e-08
5.84967e-08
5.89066e-08
5.9374e-08
5.99082e-08
6.06291e-08
6.14347e-08
6.26457e-08
6.36555e-08
6.53012e-08
6.69535e-08
6.92063e-08
7.15861e-08
7.20479e-08
0.00340987
0.00268036
0.00121287
0.000280586
4.77652e-05
6.4396e-06
7.62928e-07
1.26304e-07
6.52262e-08
5.94673e-08
5.85825e-08
5.8257e-08
5.80484e-08
5.79091e-08
5.78126e-08
5.77543e-08
5.77426e-08
5.77311e-08
5.7705e-08
5.77128e-08
5.77475e-08
5.77695e-08
5.78042e-08
5.78641e-08
5.7937e-08
5.8008e-08
5.80984e-08
5.82373e-08
5.84487e-08
5.86741e-08
5.89463e-08
5.92146e-08
5.95095e-08
5.98364e-08
6.02808e-08
6.09215e-08
6.16021e-08
6.26336e-08
6.34796e-08
6.4717e-08
6.58318e-08
6.73274e-08
6.94777e-08
7.05381e-08
0.00342886
0.0027353
0.00125032
0.000286046
4.80571e-05
6.40019e-06
7.4963e-07
1.24157e-07
6.49083e-08
5.93634e-08
5.84665e-08
5.80873e-08
5.78109e-08
5.76078e-08
5.74642e-08
5.73583e-08
5.72745e-08
5.72079e-08
5.71882e-08
5.71762e-08
5.71743e-08
5.7197e-08
5.72618e-08
5.73334e-08
5.74194e-08
5.75422e-08
5.77002e-08
5.78431e-08
5.79992e-08
5.81563e-08
5.83467e-08
5.85862e-08
5.89414e-08
5.93659e-08
5.9857e-08
6.05207e-08
6.11931e-08
6.21989e-08
6.31069e-08
6.43913e-08
6.58389e-08
6.75116e-08
6.93007e-08
6.98265e-08
0.00341947
0.00273658
0.00124199
0.00028111
4.67257e-05
6.14045e-06
7.10646e-07
1.19572e-07
6.45503e-08
5.94811e-08
5.86618e-08
5.83273e-08
5.81006e-08
5.79556e-08
5.7849e-08
5.7786e-08
5.77699e-08
5.77589e-08
5.77555e-08
5.77501e-08
5.77611e-08
5.7778e-08
5.78208e-08
5.78867e-08
5.7958e-08
5.80234e-08
5.81132e-08
5.82412e-08
5.84328e-08
5.8641e-08
5.88955e-08
5.91572e-08
5.94455e-08
5.9779e-08
6.01738e-08
6.07599e-08
6.13251e-08
6.2178e-08
6.30198e-08
6.40943e-08
6.49929e-08
6.60606e-08
6.76468e-08
6.87206e-08
0.00339484
0.00271196
0.0012016
0.000267114
4.37054e-05
5.65136e-06
6.47373e-07
1.12837e-07
6.3917e-08
5.93759e-08
5.85623e-08
5.81861e-08
5.79139e-08
5.77131e-08
5.75585e-08
5.7451e-08
5.73641e-08
5.72869e-08
5.72634e-08
5.72471e-08
5.72578e-08
5.72811e-08
5.7338e-08
5.74143e-08
5.75108e-08
5.76367e-08
5.77991e-08
5.79329e-08
5.80908e-08
5.82505e-08
5.84315e-08
5.86608e-08
5.89735e-08
5.93731e-08
5.97923e-08
6.03667e-08
6.09377e-08
6.17762e-08
6.26164e-08
6.36574e-08
6.48264e-08
6.61266e-08
6.74287e-08
6.80013e-08
0.00334765
0.00264676
0.00113049
0.000245137
3.9337e-05
4.99173e-06
5.67719e-07
1.04908e-07
6.32968e-08
5.94343e-08
5.87079e-08
5.83601e-08
5.8127e-08
5.79712e-08
5.78613e-08
5.77892e-08
5.77717e-08
5.77605e-08
5.7771e-08
5.77701e-08
5.77844e-08
5.78048e-08
5.78513e-08
5.79099e-08
5.79744e-08
5.803e-08
5.81239e-08
5.82366e-08
5.84009e-08
5.8588e-08
5.88201e-08
5.90774e-08
5.93544e-08
5.9689e-08
6.00417e-08
6.05633e-08
6.10621e-08
6.17871e-08
6.25549e-08
6.34547e-08
6.42296e-08
6.50422e-08
6.62576e-08
6.68943e-08
0.00328215
0.00254043
0.00103167
0.000217479
3.40945e-05
4.23862e-06
4.80884e-07
9.65124e-08
6.25778e-08
5.93366e-08
5.86295e-08
5.82583e-08
5.79948e-08
5.78005e-08
5.76503e-08
5.75443e-08
5.74587e-08
5.73834e-08
5.73514e-08
5.73338e-08
5.73423e-08
5.73678e-08
5.74204e-08
5.75012e-08
5.76055e-08
5.77226e-08
5.78773e-08
5.80008e-08
5.81524e-08
5.83146e-08
5.84922e-08
5.8713e-08
5.89813e-08
5.93479e-08
5.97111e-08
6.02153e-08
6.07262e-08
6.14292e-08
6.21785e-08
6.30326e-08
6.38899e-08
6.49483e-08
6.60898e-08
6.63239e-08
0.00319247
0.00240015
0.000914112
0.000186969
2.85781e-05
3.46999e-06
3.94993e-07
8.85575e-08
6.19847e-08
5.93554e-08
5.87187e-08
5.8365e-08
5.81338e-08
5.79786e-08
5.78661e-08
5.77936e-08
5.77732e-08
5.77671e-08
5.7784e-08
5.77916e-08
5.78065e-08
5.78332e-08
5.78765e-08
5.79275e-08
5.79784e-08
5.80342e-08
5.81296e-08
5.82293e-08
5.837e-08
5.85444e-08
5.87555e-08
5.90015e-08
5.9253e-08
5.95744e-08
5.99031e-08
6.03693e-08
6.08295e-08
6.14391e-08
6.21253e-08
6.2863e-08
6.35927e-08
6.42163e-08
6.51215e-08
6.5388e-08
0.00307578
0.00222779
0.000785627
0.000155185
2.30417e-05
2.73491e-06
3.16235e-07
8.15065e-08
6.14237e-08
5.92934e-08
5.86807e-08
5.83189e-08
5.80642e-08
5.78844e-08
5.7734e-08
5.76346e-08
5.75545e-08
5.74867e-08
5.74447e-08
5.74295e-08
5.743e-08
5.74565e-08
5.75066e-08
5.75892e-08
5.76883e-08
5.77924e-08
5.79332e-08
5.80507e-08
5.8195e-08
5.83704e-08
5.85478e-08
5.87553e-08
5.89779e-08
5.9302e-08
5.96345e-08
6.00859e-08
6.05525e-08
6.11378e-08
6.1786e-08
6.24908e-08
6.31943e-08
6.39721e-08
6.48801e-08
6.49137e-08
0.00293256
0.00202755
0.00065312
0.000124619
1.79327e-05
2.07618e-06
2.48049e-07
7.56026e-08
6.09817e-08
5.92819e-08
5.87149e-08
5.83629e-08
5.81372e-08
5.79878e-08
5.78708e-08
5.78042e-08
5.77844e-08
5.77767e-08
5.77983e-08
5.78047e-08
5.78255e-08
5.78497e-08
5.7896e-08
5.79328e-08
5.79815e-08
5.80306e-08
5.81213e-08
5.82194e-08
5.83444e-08
5.85156e-08
5.87025e-08
5.89237e-08
5.91469e-08
5.94486e-08
5.97692e-08
6.01893e-08
6.06175e-08
6.11241e-08
6.17174e-08
6.23479e-08
6.2998e-08
6.35256e-08
6.40826e-08
6.41418e-08
0.0027656
0.00180365
0.000525338
9.67323e-05
1.34262e-05
1.5174e-06
1.92431e-07
7.09487e-08
6.063e-08
5.92568e-08
5.87111e-08
5.83658e-08
5.81297e-08
5.79566e-08
5.78106e-08
5.77185e-08
5.76475e-08
5.75801e-08
5.75373e-08
5.75215e-08
5.75141e-08
5.75349e-08
5.75868e-08
5.76554e-08
5.77539e-08
5.78476e-08
5.79714e-08
5.80934e-08
5.82277e-08
5.84099e-08
5.85729e-08
5.87677e-08
5.89653e-08
5.92544e-08
5.95646e-08
5.99654e-08
6.03909e-08
6.08833e-08
6.14391e-08
6.20288e-08
6.26347e-08
6.317e-08
6.37344e-08
6.37192e-08
0.00257787
0.0015594
0.000409411
7.24699e-05
9.66126e-06
1.07047e-06
1.49639e-07
6.74692e-08
6.03696e-08
5.92396e-08
5.87203e-08
5.83887e-08
5.81539e-08
5.79994e-08
5.78863e-08
5.78218e-08
5.77991e-08
5.77867e-08
5.78123e-08
5.78168e-08
5.78411e-08
5.78588e-08
5.79112e-08
5.79322e-08
5.79848e-08
5.80302e-08
5.8114e-08
5.82185e-08
5.83317e-08
5.84888e-08
5.86475e-08
5.88466e-08
5.90534e-08
5.93346e-08
5.9645e-08
6.00218e-08
6.04191e-08
6.08534e-08
6.13616e-08
6.19114e-08
6.24558e-08
6.28939e-08
6.31669e-08
6.31307e-08
0.00237236
0.00129847
0.000311718
5.2295e-05
6.67912e-06
7.3198e-07
1.18401e-07
6.49917e-08
6.01762e-08
5.92186e-08
5.87189e-08
5.8399e-08
5.81679e-08
5.80069e-08
5.78779e-08
5.77891e-08
5.77227e-08
5.76563e-08
5.76258e-08
5.7597e-08
5.75941e-08
5.76021e-08
5.76551e-08
5.77077e-08
5.78035e-08
5.78953e-08
5.80055e-08
5.81391e-08
5.82548e-08
5.84134e-08
5.85691e-08
5.87597e-08
5.89531e-08
5.92103e-08
5.9494e-08
5.98452e-08
6.02296e-08
6.06559e-08
6.11392e-08
6.16378e-08
6.21218e-08
6.24664e-08
6.27805e-08
6.28054e-08
0.00215058
0.00103845
0.000229132
3.62146e-05
4.43437e-06
4.88269e-07
9.66958e-08
6.33063e-08
6.00427e-08
5.92084e-08
5.87267e-08
5.8421e-08
5.81909e-08
5.80294e-08
5.79169e-08
5.78497e-08
5.78206e-08
5.78023e-08
5.78286e-08
5.78256e-08
5.78499e-08
5.78625e-08
5.79218e-08
5.79312e-08
5.79843e-08
5.80355e-08
5.81097e-08
5.82308e-08
5.83233e-08
5.84545e-08
5.85961e-08
5.87858e-08
5.89811e-08
5.92342e-08
5.95283e-08
5.98691e-08
6.02352e-08
6.06219e-08
6.10643e-08
6.15351e-08
6.19217e-08
6.22304e-08
6.2382e-08
6.23427e-08
0.0019121
0.000794967
0.000161139
2.40195e-05
2.8258e-06
3.21153e-07
8.23482e-08
6.2206e-08
5.99438e-08
5.91917e-08
5.87258e-08
5.84261e-08
5.8199e-08
5.80406e-08
5.79284e-08
5.78394e-08
5.77804e-08
5.77191e-08
5.76949e-08
5.76581e-08
5.76597e-08
5.76592e-08
5.77106e-08
5.77554e-08
5.78452e-08
5.79395e-08
5.80346e-08
5.81732e-08
5.82708e-08
5.84075e-08
5.85596e-08
5.87463e-08
5.89381e-08
5.9169e-08
5.94249e-08
5.97261e-08
6.00703e-08
6.04475e-08
6.08686e-08
6.12662e-08
6.16138e-08
6.18385e-08
6.2035e-08
6.20436e-08
0.00165516
0.000576387
0.000108055
1.52224e-05
1.72755e-06
2.12136e-07
7.33174e-08
6.15106e-08
5.98708e-08
5.91809e-08
5.87334e-08
5.84414e-08
5.82203e-08
5.80642e-08
5.79569e-08
5.7882e-08
5.78453e-08
5.78227e-08
5.78433e-08
5.78357e-08
5.78543e-08
5.78719e-08
5.79207e-08
5.79379e-08
5.79876e-08
5.80492e-08
5.81124e-08
5.82318e-08
5.83147e-08
5.84313e-08
5.85619e-08
5.87339e-08
5.89172e-08
5.91387e-08
5.9395e-08
5.9712e-08
6.00597e-08
6.04134e-08
6.0791e-08
6.11528e-08
6.14166e-08
6.16358e-08
6.17308e-08
6.16732e-08
0.00137606
0.000392978
6.90379e-05
9.19338e-06
1.0152e-06
1.44749e-07
6.79285e-08
6.10824e-08
5.98114e-08
5.91653e-08
5.8732e-08
5.84435e-08
5.82283e-08
5.80728e-08
5.79683e-08
5.78819e-08
5.78245e-08
5.77644e-08
5.77467e-08
5.77096e-08
5.77107e-08
5.77112e-08
5.77547e-08
5.78006e-08
5.78829e-08
5.79872e-08
5.80593e-08
5.81834e-08
5.82777e-08
5.83976e-08
5.85414e-08
5.87206e-08
5.89103e-08
5.91213e-08
5.93643e-08
5.9632e-08
5.99298e-08
6.02504e-08
6.05943e-08
6.08932e-08
6.11461e-08
6.12979e-08
6.14291e-08