/*--------------------------------*- C++ -*----------------------------------*\
| =========                 |                                                 |
| \\      /  F ield         | OpenFOAM: The Open Source CFD Toolbox           |
|  \\    /   O peration     | Version:  v1912                                 |
|   \\  /    A nd           | Website:  www.openfoam.com                      |
|    \\/     M anipulation  |                                                 |
\*---------------------------------------------------------------------------*/
FoamFile
{
    version     2.0;
    format      ascii;
    class       volSymmTensorField;
    location    "70";
    object      R;
}
// * * * * * * * * * * * * * * * * * * * * * * * * * * * * * * * * * * * * * //

dimensions      [0 2 -2 0 0 0 0];


internalField   nonuniform List<symmTensor> 
14268
(
(1.38092e-09 4.86538e-11 0 1.81812e-09 0 1.59315e-09)
(1.47446e-09 5.41814e-11 0 2.0301e-09 0 1.75214e-09)
(1.62936e-09 6.35829e-11 0 2.31938e-09 0 1.96809e-09)
(1.67085e-09 7.12036e-11 0 2.39705e-09 0 2.02927e-09)
(1.65963e-09 7.66972e-11 0 2.36354e-09 0 2.00825e-09)
(1.60865e-09 8.78647e-11 0 2.23288e-09 0 1.91832e-09)
(1.55351e-09 7.30037e-11 0 2.07134e-09 0 1.81272e-09)
(1.52286e-09 1.1498e-10 0 1.89313e-09 0 1.69883e-09)
(1.05804e-08 4.33959e-10 0 1.48121e-08 0 1.26509e-08)
(1.08253e-08 4.54661e-10 0 1.61236e-08 0 1.34794e-08)
(1.1505e-08 4.96012e-10 0 1.78765e-08 0 1.46519e-08)
(1.17452e-08 5.57204e-10 0 1.84706e-08 0 1.5082e-08)
(1.17259e-08 6.09791e-10 0 1.83112e-08 0 1.50049e-08)
(1.15488e-08 6.93809e-10 0 1.75424e-08 0 1.45123e-08)
(1.10888e-08 6.25002e-10 0 1.61803e-08 0 1.36799e-08)
(1.11636e-08 8.96636e-10 0 1.5399e-08 0 1.30942e-08)
(2.20492e-08 3.99416e-10 0 3.15766e-08 0 2.67055e-08)
(2.18358e-08 3.51554e-10 0 3.32942e-08 0 2.75469e-08)
(2.22033e-08 3.35404e-10 0 3.54487e-08 0 2.87066e-08)
(2.22729e-08 3.50754e-10 0 3.62359e-08 0 2.9169e-08)
(2.22765e-08 3.87743e-10 0 3.60886e-08 0 2.91076e-08)
(2.2251e-08 5.23117e-10 0 3.49508e-08 0 2.85803e-08)
(2.19666e-08 3.67568e-10 0 3.35808e-08 0 2.77787e-08)
(2.24318e-08 9.17276e-10 0 3.14512e-08 0 2.68303e-08)
(2.80811e-08 2.53381e-10 0 4.054e-08 0 3.40967e-08)
(2.74704e-08 3.47989e-10 0 4.2186e-08 0 3.47052e-08)
(2.74807e-08 4.27759e-10 0 4.40815e-08 0 3.55581e-08)
(2.73241e-08 4.09143e-10 0 4.47964e-08 0 3.58688e-08)
(2.7255e-08 3.96868e-10 0 4.46426e-08 0 3.58152e-08)
(2.74665e-08 4.07073e-10 0 4.3662e-08 0 3.53867e-08)
(2.74055e-08 1.21343e-10 0 4.14998e-08 0 3.45128e-08)
(2.85106e-08 5.83342e-10 0 4.15075e-08 0 3.44892e-08)
(3.081e-08 1.19889e-09 0 4.40116e-08 0 3.73281e-08)
(3.02211e-08 1.89807e-09 0 4.57346e-08 0 3.8053e-08)
(3.03076e-08 2.53075e-09 0 4.78698e-08 0 3.90407e-08)
(3.01075e-08 2.66629e-09 0 4.86816e-08 0 3.93933e-08)
(3.00014e-08 2.43137e-09 0 4.8671e-08 0 3.93288e-08)
(2.99326e-08 1.98368e-09 0 4.76686e-08 0 3.88861e-08)
(3.03551e-08 1.20926e-09 0 4.60047e-08 0 3.81581e-08)
(3.08761e-08 1.02419e-09 0 4.40175e-08 0 3.73255e-08)
(3.28525e-08 4.36342e-09 0 4.63265e-08 0 3.92832e-08)
(3.25205e-08 5.82716e-09 0 4.84027e-08 0 4.02376e-08)
(3.28974e-08 7.55693e-09 0 5.09493e-08 0 4.15354e-08)
(3.31136e-08 8.69126e-09 0 5.20003e-08 0 4.21986e-08)
(3.31592e-08 8.88671e-09 0 5.18218e-08 0 4.22008e-08)
(3.30461e-08 8.15198e-09 0 5.11124e-08 0 4.17988e-08)
(3.3586e-08 6.96257e-09 0 4.79018e-08 0 4.05645e-08)
(3.45165e-08 6.96912e-09 0 4.85576e-08 0 4.10206e-08)
(3.49614e-08 9.13787e-09 0 4.68932e-08 0 4.0741e-08)
(3.48884e-08 1.10545e-08 0 4.89637e-08 0 4.18927e-08)
(3.50529e-08 1.23856e-08 0 5.20691e-08 0 4.3283e-08)
(3.58003e-08 1.41935e-08 0 5.33716e-08 0 4.43551e-08)
(3.66343e-08 1.48712e-08 0 5.29569e-08 0 4.45934e-08)
(3.68889e-08 1.49469e-08 0 5.22147e-08 0 4.44272e-08)
(3.84419e-08 1.41573e-08 0 4.98483e-08 0 4.38551e-08)
(3.93071e-08 1.49829e-08 0 5.02964e-08 0 4.43646e-08)
(3.60661e-08 1.08579e-08 0 4.77193e-08 0 4.15551e-08)
(3.60107e-08 1.24771e-08 0 4.9722e-08 0 4.26973e-08)
(3.57133e-08 1.31681e-08 0 5.30224e-08 0 4.39393e-08)
(3.62735e-08 1.49257e-08 0 5.47821e-08 0 4.51215e-08)
(3.78902e-08 1.62582e-08 0 5.38939e-08 0 4.55798e-08)
(3.90316e-08 1.70491e-08 0 5.29874e-08 0 4.57275e-08)
(4.16447e-08 1.73488e-08 0 5.07159e-08 0 4.58219e-08)
(4.40667e-08 1.94123e-08 0 5.16899e-08 0 4.73099e-08)
(3.62941e-08 1.13479e-08 0 4.76343e-08 0 4.17388e-08)
(3.60952e-08 1.26807e-08 0 4.94477e-08 0 4.27641e-08)
(3.51528e-08 1.18518e-08 0 5.25426e-08 0 4.3584e-08)
(3.48382e-08 1.27675e-08 0 5.42855e-08 0 4.43389e-08)
(3.66972e-08 1.47141e-08 0 5.36796e-08 0 4.50444e-08)
(3.8541e-08 1.69428e-08 0 5.31541e-08 0 4.5681e-08)
(4.27131e-08 1.80818e-08 0 5.02466e-08 0 4.62347e-08)
(4.55107e-08 2.02689e-08 0 5.2077e-08 0 4.80003e-08)
(3.53692e-08 8.99074e-09 0 4.79232e-08 0 4.13719e-08)
(3.44683e-08 9.20804e-09 0 4.95149e-08 0 4.19579e-08)
(3.30457e-08 6.94404e-09 0 5.18503e-08 0 4.22427e-08)
(3.32051e-08 7.4381e-09 0 5.21325e-08 0 4.25097e-08)
(3.41723e-08 9.00329e-09 0 5.18905e-08 0 4.29457e-08)
(3.56487e-08 1.17161e-08 0 5.20961e-08 0 4.37462e-08)
(4.0204e-08 1.43223e-08 0 5.0155e-08 0 4.49703e-08)
(4.40623e-08 1.7645e-08 0 5.00234e-08 0 4.66255e-08)
(3.39106e-08 5.58929e-09 0 4.68978e-08 0 4.02798e-08)
(3.29261e-08 5.37963e-09 0 4.87355e-08 0 4.08543e-08)
(3.19429e-08 3.55434e-09 0 5.09838e-08 0 4.13045e-08)
(3.21902e-08 3.76267e-09 0 5.09391e-08 0 4.15006e-08)
(3.31033e-08 4.69346e-09 0 5.03179e-08 0 4.16936e-08)
(3.43996e-08 6.4627e-09 0 4.97952e-08 0 4.20398e-08)
(3.72109e-08 8.38455e-09 0 4.858e-08 0 4.29833e-08)
(3.82857e-08 9.65506e-09 0 4.92747e-08 0 4.31634e-08)
(3.30961e-08 1.39035e-09 0 4.62933e-08 0 3.94251e-08)
(3.20107e-08 5.64003e-10 0 4.83777e-08 0 4.0029e-08)
(3.11815e-08 -1.2378e-09 0 5.0853e-08 0 4.06359e-08)
(3.13651e-08 -9.84103e-10 0 5.113e-08 0 4.09566e-08)
(3.25423e-08 -8.71499e-11 0 5.00202e-08 0 4.10626e-08)
(3.37607e-08 1.10837e-09 0 4.90207e-08 0 4.12236e-08)
(3.54235e-08 2.04333e-09 0 4.8576e-08 0 4.18032e-08)
(3.62513e-08 4.45917e-09 0 4.73448e-08 0 4.14679e-08)
(3.28765e-08 -2.92141e-09 0 4.5601e-08 0 3.89666e-08)
(3.18447e-08 -3.34662e-09 0 4.7528e-08 0 3.96066e-08)
(3.11339e-08 -3.4454e-09 0 4.98856e-08 0 4.03319e-08)
(3.1213e-08 -3.54771e-09 0 5.04531e-08 0 4.0691e-08)
(3.22445e-08 -2.86679e-09 0 4.9452e-08 0 4.07568e-08)
(3.34323e-08 -2.38384e-09 0 4.8455e-08 0 4.0851e-08)
(3.46832e-08 -2.654e-09 0 4.80606e-08 0 4.12052e-08)
(3.71806e-08 1.53469e-09 0 4.69701e-08 0 4.163e-08)
(3.31367e-08 -3.80288e-09 0 4.472e-08 0 3.89476e-08)
(3.22793e-08 -4.59947e-09 0 4.66073e-08 0 3.95913e-08)
(3.15105e-08 -4.87293e-09 0 4.93163e-08 0 4.03679e-08)
(3.1455e-08 -5.63514e-09 0 4.99703e-08 0 4.07184e-08)
(3.26617e-08 -6.39342e-09 0 4.90054e-08 0 4.08332e-08)
(3.40342e-08 -6.84821e-09 0 4.78447e-08 0 4.0905e-08)
(3.52463e-08 -6.37454e-09 0 4.72374e-08 0 4.11275e-08)
(3.74198e-08 -3.95863e-09 0 4.6246e-08 0 4.15214e-08)
(3.35902e-08 -4.96613e-09 0 4.51154e-08 0 3.92333e-08)
(3.28852e-08 -5.86051e-09 0 4.69328e-08 0 3.99016e-08)
(3.20985e-08 -6.16699e-09 0 4.97327e-08 0 4.07074e-08)
(3.23066e-08 -7.26642e-09 0 5.02022e-08 0 4.11171e-08)
(3.35796e-08 -8.317e-09 0 4.9236e-08 0 4.12939e-08)
(3.48905e-08 -9.05908e-09 0 4.81186e-08 0 4.13972e-08)
(3.61664e-08 -8.98215e-09 0 4.71866e-08 0 4.15391e-08)
(3.79464e-08 -7.75e-09 0 4.60876e-08 0 4.17382e-08)
(3.33841e-08 -4.91704e-09 0 4.50212e-08 0 3.91145e-08)
(3.26187e-08 -5.78731e-09 0 4.69202e-08 0 3.97844e-08)
(3.20942e-08 -6.17689e-09 0 4.92761e-08 0 4.05363e-08)
(3.22863e-08 -7.25695e-09 0 4.96824e-08 0 4.09004e-08)
(3.29438e-08 -7.95232e-09 0 4.90201e-08 0 4.09523e-08)
(3.41181e-08 -8.72392e-09 0 4.79339e-08 0 4.10192e-08)
(3.52982e-08 -9.13263e-09 0 4.76336e-08 0 4.13382e-08)
(3.82094e-08 -1.13498e-08 0 4.51812e-08 0 4.15785e-08)
(3.31125e-08 -4.13277e-09 0 4.57582e-08 0 3.92049e-08)
(3.21923e-08 -5.24496e-09 0 4.74896e-08 0 3.98257e-08)
(3.17039e-08 -5.46854e-09 0 4.96512e-08 0 4.05249e-08)
(3.16733e-08 -6.15592e-09 0 5.04961e-08 0 4.08835e-08)
(3.25986e-08 -6.83924e-09 0 4.9716e-08 0 4.09188e-08)
(3.37747e-08 -7.5171e-09 0 4.84325e-08 0 4.08739e-08)
(3.4944e-08 -8.15384e-09 0 4.77493e-08 0 4.10412e-08)
(3.66755e-08 -8.55158e-09 0 4.67539e-08 0 4.12315e-08)
(3.34402e-08 -4.80783e-09 0 4.57406e-08 0 3.93068e-08)
(3.25603e-08 -5.81874e-09 0 4.83139e-08 0 4.01961e-08)
(3.25932e-08 -6.80314e-09 0 5.04126e-08 0 4.11113e-08)
(3.23054e-08 -7.16013e-09 0 5.09359e-08 0 4.13149e-08)
(3.23581e-08 -7.26343e-09 0 5.02615e-08 0 4.11315e-08)
(3.39121e-08 -7.72738e-09 0 4.78974e-08 0 4.07817e-08)
(3.48265e-08 -8.25089e-09 0 4.71408e-08 0 4.08487e-08)
(3.6663e-08 -8.92764e-09 0 4.5712e-08 0 4.10141e-08)
(3.35578e-08 -5.85184e-09 0 4.59268e-08 0 3.96642e-08)
(3.29215e-08 -7.5669e-09 0 4.7768e-08 0 4.03914e-08)
(3.3305e-08 -9.33689e-09 0 4.96621e-08 0 4.13349e-08)
(3.34907e-08 -1.00382e-08 0 5.04305e-08 0 4.1694e-08)
(3.34365e-08 -9.7391e-09 0 5.05426e-08 0 4.16622e-08)
(3.40349e-08 -9.20358e-09 0 4.89454e-08 0 4.12483e-08)
(3.54085e-08 -9.0202e-09 0 4.7521e-08 0 4.11495e-08)
(3.65078e-08 -9.0988e-09 0 4.67092e-08 0 4.11825e-08)
(3.46391e-08 -7.93814e-09 0 4.77246e-08 0 4.06277e-08)
(3.43017e-08 -9.39707e-09 0 4.98719e-08 0 4.16825e-08)
(3.47894e-08 -1.09192e-08 0 5.17549e-08 0 4.27366e-08)
(3.51322e-08 -1.22845e-08 0 5.19687e-08 0 4.30027e-08)
(3.49379e-08 -1.25557e-08 0 5.18206e-08 0 4.28028e-08)
(3.45398e-08 -1.14801e-08 0 5.09007e-08 0 4.21472e-08)
(3.59608e-08 -1.03347e-08 0 4.73351e-08 0 4.13315e-08)
(3.7374e-08 -9.78383e-09 0 4.48152e-08 0 4.09628e-08)
(3.59721e-08 -7.87507e-09 0 4.74153e-08 0 4.1623e-08)
(3.56947e-08 -8.55809e-09 0 4.8864e-08 0 4.24765e-08)
(3.54165e-08 -8.80929e-09 0 5.10084e-08 0 4.34431e-08)
(3.54516e-08 -1.03547e-08 0 5.11771e-08 0 4.35013e-08)
(3.59514e-08 -1.18522e-08 0 5.07957e-08 0 4.33653e-08)
(3.61559e-08 -1.28751e-08 0 5.04248e-08 0 4.30845e-08)
(3.69998e-08 -1.30892e-08 0 4.94827e-08 0 4.27281e-08)
(3.8643e-08 -1.22908e-08 0 4.67256e-08 0 4.21001e-08)
(4.82068e-08 -6.27468e-10 0 4.95825e-08 0 5.06993e-08)
(5.10506e-08 5.62219e-10 0 5.185e-08 0 5.38966e-08)
(5.41222e-08 2.02824e-09 0 5.56185e-08 0 5.74751e-08)
(5.29398e-08 2.48083e-09 0 5.68171e-08 0 5.70092e-08)
(5.02613e-08 2.27992e-09 0 5.73083e-08 0 5.50219e-08)
(4.69972e-08 1.76391e-09 0 5.66701e-08 0 5.23051e-08)
(4.81853e-08 -3.50141e-09 0 5.2141e-08 0 5.1138e-08)
(4.75194e-08 -7.28189e-09 0 4.85341e-08 0 4.88383e-08)
(1.94192e-07 -2.09094e-08 0 9.28807e-08 0 1.64388e-07)
(2.23425e-07 -2.44949e-08 0 1.05319e-07 0 1.89779e-07)
(2.43249e-07 -2.55719e-08 0 1.02226e-07 0 2.07103e-07)
(2.25282e-07 -1.82836e-08 0 9.03894e-08 0 1.9359e-07)
(1.8214e-07 7.27762e-10 0 7.47083e-08 0 1.59e-07)
(1.39818e-07 1.64235e-08 0 7.12436e-08 0 1.2418e-07)
(1.26457e-07 2.21127e-08 0 7.31444e-08 0 1.1222e-07)
(1.13021e-07 2.52328e-08 0 7.1943e-08 0 1.00916e-07)
(1.56722e-06 -3.70494e-07 0 4.32646e-07 0 1.21426e-06)
(1.88111e-06 -4.58931e-07 0 5.9809e-07 0 1.46117e-06)
(2.09684e-06 -5.47523e-07 0 6.23633e-07 0 1.63061e-06)
(1.93235e-06 -5.21136e-07 0 5.25044e-07 0 1.50568e-06)
(1.54441e-06 -4.07279e-07 0 3.42556e-07 0 1.20191e-06)
(1.00284e-06 -2.26229e-07 0 1.64292e-07 0 7.82013e-07)
(8.50455e-07 -1.45628e-07 0 7.14628e-08 0 6.58258e-07)
(7.80055e-07 -9.61272e-08 0 4.49168e-08 0 5.96163e-07)
(8.81974e-06 -2.12994e-06 0 1.822e-06 0 6.56756e-06)
(1.04697e-05 -2.53544e-06 0 2.67114e-06 0 7.78823e-06)
(1.22015e-05 -3.07148e-06 0 3.28676e-06 0 9.11437e-06)
(1.31676e-05 -3.4884e-06 0 3.50542e-06 0 9.83162e-06)
(1.2875e-05 -3.35873e-06 0 2.88883e-06 0 9.59338e-06)
(1.02188e-05 -2.46615e-06 0 1.58566e-06 0 7.61213e-06)
(8.48382e-06 -1.70422e-06 0 4.65968e-07 0 6.31223e-06)
(7.62443e-06 -1.37576e-06 0 1.08851e-07 0 5.63076e-06)
(1.44193e-05 -2.15836e-06 0 1e-15 0 1.07673e-05)
(1.77962e-05 -2.64499e-06 0 1e-15 0 1.30026e-05)
(2.13509e-05 -3.78674e-06 0 5.2993e-08 0 1.55439e-05)
(2.72423e-05 -6.12489e-06 0 4.16292e-06 0 1.97605e-05)
(3.57308e-05 -8.17372e-06 0 7.19007e-06 0 2.59129e-05)
(4.14231e-05 -8.25563e-06 0 5.74268e-06 0 3.02084e-05)
(4.68549e-05 -7.39063e-06 0 2.35133e-06 0 3.4424e-05)
(4.83189e-05 -7.50967e-06 0 3.61729e-07 0 3.54131e-05)
(9.42537e-06 1.62324e-06 0 1e-15 0 8.23254e-06)
(1.00278e-05 1.64252e-06 0 1e-15 0 8.5063e-06)
(1.17001e-05 2.06935e-06 0 1e-15 0 9.66515e-06)
(1.69695e-05 1.486e-06 0 1e-15 0 1.33235e-05)
(3.0677e-05 -1.31312e-06 0 1e-15 0 2.27403e-05)
(5.20342e-05 -5.41568e-06 0 1e-15 0 3.80049e-05)
(7.52308e-05 -5.98736e-06 0 1e-15 0 5.56637e-05)
(0.000104322 -9.82957e-06 0 1e-15 0 7.65422e-05)
(4.09956e-05 3.69458e-05 0 1e-15 0 3.47612e-05)
(2.15921e-05 2.56316e-05 0 1e-15 0 1.90415e-05)
(1.15816e-05 1.91058e-05 0 1e-15 0 1.10255e-05)
(8.70771e-06 1.40251e-05 0 1e-15 0 8.69621e-06)
(1.03692e-05 1.23397e-05 0 1e-15 0 1.00191e-05)
(2.24174e-05 1.26632e-05 0 1e-15 0 1.90058e-05)
(5.35822e-05 1.88997e-05 0 1e-15 0 4.23088e-05)
(0.000110604 2.7158e-05 0 1e-15 0 8.46281e-05)
(0.0119067 0.00670905 0 1e-15 0 0.00860101)
(0.00446144 0.00334754 0 1e-15 0 0.0032331)
(0.00163354 0.00179182 0 1e-15 0 0.00121507)
(0.000564861 0.000816413 0 1e-15 0 0.000431211)
(0.000233008 0.000356816 0 1e-15 0 0.000174345)
(0.000236139 0.000294596 0 1e-15 0 0.000170795)
(0.000313227 0.000320395 0 1e-15 0 0.000222017)
(0.000438277 0.00037597 0 1e-15 0 0.000311838)
(0.0885598 0.0212147 0 1e-15 0 0.0622591)
(0.0766062 0.0201849 0 1e-15 0 0.0543966)
(0.0643744 0.020585 0 1e-15 0 0.0454449)
(0.0534539 0.0300754 0 1e-15 0 0.0368168)
(0.0316678 0.0263247 0 1e-15 0 0.0216993)
(0.0161341 0.0122782 0 1e-15 0 0.0111502)
(0.0167997 0.0100584 0 1e-15 0 0.0116835)
(0.0203084 0.0128064 0 1e-15 0 0.0140263)
(0.106593 0.0266352 0 0.0277292 0 0.0764923)
(0.104488 0.0213802 0 0.0149707 0 0.0748972)
(0.0917947 0.0139299 0 0.000699426 0 0.0665712)
(0.0796238 0.014869 0 1e-15 0 0.0569858)
(0.0806557 0.0197693 0 1e-15 0 0.0568839)
(0.0849425 0.0249392 0 1e-15 0 0.0597222)
(0.100478 0.0270445 0 1e-15 0 0.07132)
(0.138953 0.0481718 0 1e-15 0 0.0989963)
(0.105561 0.0288227 0 0.036529 0 0.0759741)
(0.108019 0.0274051 0 0.0307968 0 0.0775805)
(0.0974468 0.0219913 0 0.0191285 0 0.0698945)
(0.0838455 0.0132286 0 0.00157407 0 0.0602974)
(0.0886512 0.0130564 0 1e-15 0 0.0634981)
(0.112232 0.0166855 0 1e-15 0 0.0794748)
(0.144961 0.0265342 0 1e-15 0 0.10324)
(0.209103 0.0435622 0 1e-15 0 0.143558)
(0.0730853 0.0250807 0 0.0350631 0 0.0531171)
(0.0724335 0.0252576 0 0.033624 0 0.0524969)
(0.0538721 0.0203409 0 0.0262616 0 0.0390445)
(0.0500158 0.0123072 0 0.0134863 0 0.0368326)
(0.0714481 0.0126732 0 0.00885104 0 0.0515444)
(0.12178 0.0226856 0 0.0158014 0 0.0868347)
(0.0972482 0.0166631 0 0.0157691 0 0.0713764)
(0.205046 0.0358954 0 0.054461 0 0.12816)
(0.0308314 0.0148199 0 0.0215518 0 0.0242082)
(0.0277157 0.0139822 0 0.0200476 0 0.0217032)
(0.0166161 0.00891035 0 0.0128568 0 0.0135216)
(0.0149008 0.00663566 0 0.0105152 0 0.012839)
(0.0258513 0.00752394 0 0.0117802 0 0.0209146)
(0.0510417 0.0116891 0 0.0177721 0 0.0402961)
(0.0330848 0.00575453 0 0.0148145 0 0.0281322)
(0.0639753 0.0239467 0 0.0126497 0 0.0443392)
(0.0104847 0.00592882 0 0.00931738 0 0.00959664)
(0.00804027 0.00468473 0 0.00718043 0 0.00731003)
(0.00339422 0.00223992 0 0.00357417 0 0.00336277)
(0.00302207 0.00214214 0 0.00363333 0 0.00325717)
(0.00715994 0.00388167 0 0.00679253 0 0.00708797)
(0.0138588 0.00416997 0 0.0119889 0 0.013883)
(0.00709931 0.00135852 0 0.00981957 0 0.00874888)
(0.0114947 0.00439846 0 0.00783645 0 0.0108976)
(0.00265304 0.0019584 0 0.00351194 0 0.00300141)
(0.00150112 0.00112513 0 0.00205443 0 0.00172215)
(0.000511475 0.000429105 0 0.000741913 0 0.000619398)
(0.000517735 0.000482589 0 0.000726297 0 0.000625455)
(0.00152602 0.00134201 0 0.00215688 0 0.0018486)
(0.00244557 0.00137712 0 0.00488466 0 0.00359042)
(0.00114993 0.0005396 0 0.00357189 0 0.00224935)
(0.00163116 -0.000138133 0 0.00372193 0 0.00269598)
(0.000592732 0.000474367 0 0.00093151 0 0.000742517)
(0.000251896 0.000198037 0 0.00038623 0 0.000307653)
(9.94311e-05 7.65297e-05 0 0.000142455 0 0.000120072)
(0.000105986 9.97289e-05 0 0.000136357 0 0.000136217)
(0.000327794 0.000370442 0 0.000417159 0 0.000392303)
(0.000578397 0.000558132 0 0.00127763 0 0.000848052)
(0.000341572 0.000140036 0 0.00138664 0 0.000730828)
(0.000344848 -0.000261075 0 0.00222891 0 0.00118003)
(0.0001486 0.000106651 0 0.000176304 0 0.000161675)
(6.12027e-05 4.54395e-05 0 6.79221e-05 0 6.43926e-05)
(2.89387e-05 1.83405e-05 0 3.571e-05 0 3.05358e-05)
(2.41233e-05 2.04528e-05 0 4.88329e-05 0 4.22482e-05)
(9.90773e-05 0.000159266 0 7.96647e-05 0 0.000107475)
(0.000298165 0.000444465 0 0.000223087 0 0.000264184)
(7.62855e-05 -0.000188165 0 0.000750912 0 0.000271419)
(1e-15 -0.000385229 0 0.00206895 0 0.000792707)
(3.32844e-05 2.06278e-05 0 3.73456e-05 0 3.28778e-05)
(1.43295e-05 9.92428e-06 0 1.6917e-05 0 1.48294e-05)
(1.05339e-05 6.15117e-06 0 9.51614e-06 0 9.41523e-06)
(5.56695e-06 -2.36969e-06 0 2.39921e-05 0 1.5641e-05)
(5.70498e-05 9.25908e-05 0 8.77751e-06 0 4.34668e-05)
(0.00015047 0.000364054 0 6.50119e-05 0 0.000160145)
(6.80272e-05 -0.000189786 0 0.000293688 0 0.000161317)
(1e-15 -0.000386519 0 0.00164793 0 0.000530843)
(8.10752e-06 5.64852e-06 0 7.13314e-06 0 7.93577e-06)
(3.94208e-06 2.83214e-06 0 3.96971e-06 0 4.09167e-06)
(3.4135e-06 2.78484e-06 0 3.268e-06 0 3.34761e-06)
(2.33956e-06 -7.25472e-06 0 1.20544e-05 0 5.17537e-06)
(2.61748e-05 3.11864e-05 0 1.46187e-05 0 1.88825e-05)
(7.2804e-05 0.000315951 0 4.93652e-05 0 0.000100481)
(0.000105902 -7.76461e-05 0 9.22274e-05 0 0.000138949)
(1e-15 -0.000457312 0 0.00126465 0 0.000402243)
(1.9113e-06 1.02416e-06 0 2.07011e-06 0 1.75775e-06)
(1.10158e-06 6.46955e-07 0 1.24918e-06 0 1.09222e-06)
(8.95471e-07 1.22758e-06 0 1.42752e-06 0 1.35343e-06)
(4.08383e-06 -2.12578e-06 0 1.44899e-06 0 2.94345e-06)
(1.11024e-05 1.13882e-05 0 1.75213e-05 0 1.10082e-05)
(1.56182e-05 0.000188133 0 7.33134e-05 0 4.79042e-05)
(0.00014648 4.43618e-05 0 1.82515e-05 0 0.000105876)
(0.000105889 -0.000482303 0 0.000796391 0 0.00043653)
(5.48463e-07 3.70394e-07 0 3.97905e-07 0 5.28147e-07)
(3.81517e-07 2.30349e-07 0 3.22959e-07 0 3.5556e-07)
(2.75953e-07 1.99494e-07 0 6.72876e-07 0 4.71712e-07)
(2.45708e-06 2.47595e-06 0 1.51692e-07 0 1.75872e-06)
(1e-15 -1.35129e-05 0 2.21543e-05 0 8.51031e-06)
(1.01146e-05 3.83856e-05 0 6.23601e-05 0 2.65264e-05)
(0.000154472 3.78653e-05 0 7.17343e-06 0 7.65239e-05)
(0.000503125 -0.000626031 0 0.00042013 0 0.000505169)
(1.63266e-07 6.09109e-08 0 1.53131e-07 0 1.36697e-07)
(1.4301e-07 7.50501e-08 0 1.23195e-07 0 1.3089e-07)
(2.82872e-07 3.90708e-09 0 1.55734e-07 0 1.87539e-07)
(2.9645e-07 1.55721e-06 0 1.25306e-06 0 9.69421e-07)
(2.27644e-06 -1.16997e-06 0 7.86437e-06 0 6.63705e-06)
(1.17814e-05 2.15204e-05 0 3.40561e-05 0 2.34214e-05)
(0.000138399 1.24423e-05 0 7.16574e-06 0 6.69306e-05)
(0.00148683 -0.00101502 0 1e-15 0 0.000836319)
(7.28145e-08 3.16609e-08 0 6.19166e-08 0 6.8607e-08)
(6.86358e-08 2.76553e-08 0 6.67878e-08 0 6.73704e-08)
(1.52464e-07 1.0078e-07 0 7.63641e-08 0 1.12842e-07)
(3.30322e-07 -5.21771e-07 0 7.01433e-07 0 3.70971e-07)
(2.2915e-06 3.8789e-06 0 4.76998e-06 0 3.44166e-06)
(6.2166e-06 2.32665e-05 0 3.32365e-05 0 2.23594e-05)
(0.000124833 3.87325e-06 0 1.82505e-05 0 5.96136e-05)
(0.00246765 -0.00116856 0 1e-15 0 0.00137736)
(5.14816e-08 1.37556e-08 0 4.33104e-08 0 4.74018e-08)
(5.34921e-08 1.44441e-08 0 4.34458e-08 0 4.87325e-08)
(4.64287e-08 6.32741e-08 0 9.69636e-08 0 8.0598e-08)
(6.09688e-07 -3.86955e-08 0 1e-15 0 2.51463e-07)
(5.6528e-07 1.3571e-06 0 3.47565e-06 0 2.13082e-06)
(1e-15 1.93718e-05 0 3.77022e-05 0 1.92043e-05)
(0.000105378 -7.91164e-06 0 2.89015e-05 0 5.31468e-05)
(0.00302532 -0.000978403 0 0.000112223 0 0.00173394)
(4.66703e-08 1.03711e-08 0 3.82297e-08 0 4.22446e-08)
(4.74633e-08 1.14993e-08 0 3.88031e-08 0 4.3237e-08)
(5.59146e-08 4.69484e-09 0 5.51859e-08 0 5.59489e-08)
(1.98574e-07 2.61392e-07 0 1.44061e-07 0 1.54503e-07)
(1.17464e-06 -1.29208e-06 0 9.98118e-07 0 1.21516e-06)
(1.55966e-06 7.66419e-06 0 1.97555e-05 0 1.2255e-05)
(9.25541e-05 -2.08936e-05 0 3.91699e-05 0 4.99162e-05)
(0.0033547 -0.000745971 0 0.000446542 0 0.00196521)
(4.52466e-08 9.22345e-09 0 3.68851e-08 0 4.09489e-08)
(4.6873e-08 9.4147e-09 0 3.62381e-08 0 4.13603e-08)
(5.29994e-08 9.82205e-09 0 3.95178e-08 0 5.04161e-08)
(5.82587e-08 6.07484e-08 0 1.79011e-07 0 9.28692e-08)
(8.57192e-07 -2.65612e-07 0 5.55736e-07 0 8.12306e-07)
(4.10334e-06 -2.83039e-07 0 8.96531e-06 0 7.66926e-06)
(7.55871e-05 -4.4814e-05 0 6.22925e-05 0 5.73256e-05)
(0.00358861 -0.000412253 0 0.000800545 0 0.00215403)
(4.52623e-08 8.49327e-09 0 3.60307e-08 0 4.05314e-08)
(4.74762e-08 8.37437e-09 0 3.42581e-08 0 4.08767e-08)
(5.00392e-08 1.56864e-08 0 3.89566e-08 0 4.30801e-08)
(1.06888e-07 -2.99232e-08 0 3.61236e-08 0 8.82111e-08)
(1.20873e-07 4.3742e-07 0 1.02313e-06 0 4.16826e-07)
(3.6481e-06 -2.94372e-06 0 7.01197e-06 0 6.19949e-06)
(0.000106805 -5.40984e-05 0 8.87918e-05 0 9.34412e-05)
(0.0038632 -0.000366308 0 0.0010783 0 0.00241367)
(4.53472e-08 7.91987e-09 0 3.56121e-08 0 4.03367e-08)
(4.66464e-08 7.30056e-09 0 3.45534e-08 0 4.0722e-08)
(5.21879e-08 8.94562e-09 0 3.37053e-08 0 4.0763e-08)
(8.08871e-08 3.25128e-08 0 3.83582e-08 0 6.57924e-08)
(3.36993e-07 -3.37928e-08 0 4.55765e-07 0 2.48931e-07)
(2.57336e-06 -1.9581e-06 0 7.84712e-06 0 4.94578e-06)
(0.00014318 -5.26611e-05 0 0.000103974 0 0.000116527)
(0.00410469 -0.000474707 0 0.00116605 0 0.00263025)
(4.57222e-08 7.10153e-09 0 3.50906e-08 0 4.02393e-08)
(4.74996e-08 6.85043e-09 0 3.35156e-08 0 4.0442e-08)
(4.7716e-08 5.86703e-09 0 3.44856e-08 0 4.20712e-08)
(6.12744e-08 3.0048e-08 0 5.39987e-08 0 4.03123e-08)
(4.20538e-07 -1.95391e-07 0 3.15983e-08 0 2.80889e-07)
(1.56194e-06 -2.78299e-07 0 8.75303e-06 0 2.91036e-06)
(0.000162897 -5.52403e-05 0 0.000107987 0 0.000126582)
(0.0042127 -0.000564571 0 0.00121548 0 0.00269792)
(4.54825e-08 6.82165e-09 0 3.50173e-08 0 4.0238e-08)
(4.79849e-08 6.18603e-09 0 3.32025e-08 0 4.03099e-08)
(4.952e-08 7.02158e-09 0 3.26426e-08 0 4.13818e-08)
(5.0063e-08 -2.07533e-09 0 4.42239e-08 0 4.4098e-08)
(1.85638e-07 2.88756e-09 0 1.23377e-07 0 2.68621e-07)
(4.02975e-06 -1.19463e-06 0 3.61779e-06 0 1.85393e-06)
(0.000165108 -5.62279e-05 0 9.4361e-05 0 0.000123167)
(0.00371573 -0.000570531 0 0.00105679 0 0.00233787)
(4.63205e-08 6.03245e-09 0 3.4202e-08 0 4.0118e-08)
(4.76204e-08 5.71607e-09 0 3.31667e-08 0 4.04768e-08)
(5.04216e-08 6.19428e-09 0 3.19776e-08 0 4.05123e-08)
(4.75484e-08 1.88773e-09 0 3.73719e-08 0 4.59365e-08)
(1.49044e-07 -3.46104e-08 0 2.3215e-07 0 1.01773e-07)
(4.22319e-06 -1.46307e-06 0 1.86326e-07 0 2.43803e-06)
(0.000115958 -4.20288e-05 0 6.04811e-05 0 8.55744e-05)
(0.00215786 -0.000311689 0 0.000710459 0 0.00131225)
(4.61236e-08 6.02442e-09 0 3.42038e-08 0 4.00972e-08)
(4.78837e-08 5.53013e-09 0 3.29138e-08 0 4.0366e-08)
(4.9481e-08 4.18834e-09 0 3.24603e-08 0 4.07882e-08)
(5.5808e-08 8.08072e-09 0 2.78311e-08 0 4.34485e-08)
(1.59177e-07 -5.93777e-09 0 2.27011e-07 0 2.88971e-08)
(3.29514e-07 -4.25761e-07 0 2.22558e-06 0 2.10245e-06)
(4.99838e-05 -2.54359e-05 0 4.87922e-05 0 4.74849e-05)
(0.000928618 -0.0001459 0 0.000480803 0 0.000606766)
(4.65107e-08 5.41539e-09 0 3.38006e-08 0 4.0083e-08)
(4.80278e-08 4.93389e-09 0 3.27369e-08 0 4.03064e-08)
(4.98078e-08 3.71559e-09 0 3.17136e-08 0 4.07471e-08)
(5.15686e-08 3.41063e-09 0 3.18083e-08 0 4.14088e-08)
(1.4503e-07 2.25552e-07 0 7.25498e-08 0 1.20136e-07)
(2.18082e-07 -1.12071e-06 0 2.18125e-06 0 3.92213e-07)
(1.59178e-05 -1.22314e-05 0 4.16347e-05 0 2.26369e-05)
(0.000345472 -0.000110693 0 0.000327964 0 0.000282441)
(4.65421e-08 4.93966e-09 0 3.3515e-08 0 3.99763e-08)
(4.78926e-08 4.61566e-09 0 3.26644e-08 0 4.02879e-08)
(5.03338e-08 3.32518e-09 0 3.12781e-08 0 4.05125e-08)
(5.05274e-08 2.8066e-09 0 3.16324e-08 0 4.16647e-08)
(7.93772e-08 7.04353e-08 0 4.33635e-08 0 9.11912e-08)
(1.01885e-06 -7.56288e-07 0 4.58313e-07 0 1.23414e-07)
(6.75809e-06 -3.64726e-06 0 2.32084e-05 0 9.98461e-06)
(0.000156185 -9.19635e-05 0 0.000148936 0 0.000144816)
(4.6775e-08 4.48158e-09 0 3.33049e-08 0 3.99669e-08)
(4.8062e-08 3.73137e-09 0 3.2502e-08 0 4.02439e-08)
(4.99076e-08 2.90199e-09 0 3.17611e-08 0 4.04589e-08)
(5.10207e-08 3.39294e-09 0 3.06487e-08 0 4.17141e-08)
(7.51607e-08 -4.81891e-08 0 4.11441e-08 0 4.07232e-08)
(2.18669e-07 2.21242e-07 0 7.0706e-07 0 5.19589e-08)
(8.47539e-06 3.70427e-07 0 4.5297e-06 0 5.44672e-06)
(7.6653e-05 -2.85842e-05 0 6.33547e-05 0 7.05832e-05)
(4.66631e-08 4.10602e-09 0 3.31984e-08 0 3.98873e-08)
(4.83413e-08 3.49538e-09 0 3.20716e-08 0 4.01832e-08)
(4.9783e-08 2.59615e-09 0 3.16609e-08 0 4.05708e-08)
(5.30063e-08 1.03992e-09 0 2.90493e-08 0 4.10726e-08)
(5.67254e-08 -1.02639e-09 0 4.72493e-08 0 4.12754e-08)
(2.53143e-07 5.43891e-07 0 3.44799e-08 0 2.72168e-07)
(5.24326e-06 1.06041e-07 0 1e-15 0 2.92641e-06)
(3.27386e-05 7.16623e-07 0 2.82406e-05 0 3.26258e-05)
(4.69095e-08 3.62289e-09 0 3.29455e-08 0 3.98802e-08)
(4.79507e-08 2.87409e-09 0 3.24946e-08 0 4.0106e-08)
(4.97172e-08 2.3406e-09 0 3.14106e-08 0 4.05966e-08)
(5.1633e-08 -1.7222e-09 0 3.04553e-08 0 4.04575e-08)
(3.13651e-08 7.39232e-08 0 4.70006e-08 0 6.00721e-08)
(1.09109e-07 -5.07164e-08 0 2.47383e-08 0 1.28354e-07)
(8.42647e-07 -1.06853e-06 0 1.44112e-06 0 9.82889e-07)
(8.36866e-06 -2.70463e-06 0 1.54592e-05 0 1.26267e-05)
(4.68144e-08 3.23051e-09 0 3.29095e-08 0 3.98126e-08)
(4.82494e-08 2.14456e-09 0 3.19678e-08 0 4.00731e-08)
(4.96966e-08 1.60524e-09 0 3.14227e-08 0 4.042e-08)
(5.09186e-08 -9.67727e-10 0 3.07497e-08 0 4.06917e-08)
(5.74817e-08 5.93673e-09 0 2.26525e-08 0 4.65715e-08)
(3.45522e-08 -1.12327e-07 0 7.14608e-08 0 5.13127e-08)
(1e-15 -5.59266e-07 0 1.18387e-06 0 1.75276e-07)
(3.29151e-06 -3.72014e-06 0 5.34986e-06 0 3.71708e-06)
(4.68397e-08 2.66886e-09 0 3.28092e-08 0 3.97733e-08)
(4.80427e-08 1.97071e-09 0 3.21186e-08 0 4.00238e-08)
(4.94447e-08 8.91516e-10 0 3.15693e-08 0 4.03915e-08)
(5.0931e-08 -4.0823e-10 0 3.07388e-08 0 4.07684e-08)
(5.23791e-08 -5.13685e-09 0 3.02816e-08 0 4.13393e-08)
(5.57328e-08 3.97575e-08 0 5.09858e-08 0 3.28977e-08)
(1.86615e-07 1.67879e-07 0 2.5046e-07 0 8.59225e-08)
(2.24773e-06 1.6535e-07 0 8.50515e-07 0 8.06146e-07)
(4.68044e-08 2.20822e-09 0 3.27122e-08 0 3.97164e-08)
(4.79959e-08 1.30242e-09 0 3.21343e-08 0 3.99863e-08)
(4.9612e-08 4.57242e-10 0 3.12215e-08 0 4.03658e-08)
(5.091e-08 -1.22732e-09 0 3.07009e-08 0 4.0799e-08)
(5.16854e-08 -3.36406e-09 0 3.13567e-08 0 4.11083e-08)
(5.68425e-08 -1.57776e-08 0 2.68072e-08 0 4.58492e-08)
(1.81102e-07 7.01952e-08 0 1e-15 0 7.39475e-08)
(7.03712e-07 6.00532e-07 0 1.48859e-07 0 3.18739e-07)
(4.66395e-08 1.88777e-09 0 3.28242e-08 0 3.96752e-08)
(4.77715e-08 8.69731e-10 0 3.20959e-08 0 3.98964e-08)
(4.90842e-08 -1.6345e-10 0 3.17135e-08 0 4.02701e-08)
(5.05925e-08 -1.61505e-09 0 3.10043e-08 0 4.07172e-08)
(5.18204e-08 -5.04038e-09 0 3.0972e-08 0 4.12136e-08)
(5.37151e-08 8.59831e-09 0 2.91292e-08 0 4.40768e-08)
(6.11469e-08 -1.59546e-08 0 3.55819e-08 0 4.98072e-08)
(5.50404e-08 -6.09985e-08 0 1.26575e-07 0 1.53768e-07)
(4.65838e-08 1.31189e-09 0 3.27258e-08 0 3.96131e-08)
(4.77359e-08 4.55006e-10 0 3.22011e-08 0 3.98942e-08)
(4.90914e-08 -6.02669e-10 0 3.15308e-08 0 4.0242e-08)
(5.01415e-08 -1.99433e-09 0 3.11468e-08 0 4.05985e-08)
(5.13156e-08 -4.62592e-09 0 3.09277e-08 0 4.1148e-08)
(5.13035e-08 -8.93154e-09 0 3.22188e-08 0 4.10752e-08)
(4.55719e-08 -1.13934e-08 0 3.93246e-08 0 4.38275e-08)
(3.1948e-08 -4.35012e-08 0 8.45014e-08 0 4.39609e-08)
(4.63386e-08 1.12725e-09 0 3.2913e-08 0 3.9567e-08)
(4.74082e-08 -1.6121e-11 0 3.22374e-08 0 3.97901e-08)
(4.88997e-08 -7.86525e-10 0 3.16221e-08 0 4.01928e-08)
(5.00545e-08 -2.42499e-09 0 3.13628e-08 0 4.0628e-08)
(5.10775e-08 -3.92596e-09 0 3.15913e-08 0 4.10748e-08)
(5.08887e-08 -6.48159e-09 0 3.21301e-08 0 4.14246e-08)
(5.15914e-08 -8.90239e-09 0 3.32842e-08 0 4.17149e-08)
(5.63084e-08 5.99503e-10 0 3.17752e-08 0 4.34265e-08)
(4.61819e-08 5.71392e-10 0 3.29105e-08 0 3.95023e-08)
(4.72792e-08 -3.00542e-10 0 3.23875e-08 0 3.97723e-08)
(4.85942e-08 -1.31535e-09 0 3.18837e-08 0 4.01431e-08)
(4.95486e-08 -3.30259e-09 0 3.15272e-08 0 4.04946e-08)
(5.12938e-08 -4.43443e-09 0 3.1359e-08 0 4.12013e-08)
(5.09891e-08 -6.71827e-09 0 3.2201e-08 0 4.14925e-08)
(5.11581e-08 -7.86273e-09 0 3.3185e-08 0 4.21078e-08)
(4.71243e-08 -1.11545e-08 0 3.7163e-08 0 4.2326e-08)
(4.58693e-08 5.15425e-10 0 3.31175e-08 0 3.94408e-08)
(4.69044e-08 -5.49942e-10 0 3.24519e-08 0 3.96632e-08)
(4.81487e-08 -1.47982e-09 0 3.20153e-08 0 4.00186e-08)
(4.89357e-08 -3.33061e-09 0 3.18982e-08 0 4.03727e-08)
(5.05856e-08 -4.89648e-09 0 3.16951e-08 0 4.10188e-08)
(5.05895e-08 -7.40964e-09 0 3.22399e-08 0 4.14426e-08)
(4.97977e-08 -1.05079e-08 0 3.45153e-08 0 4.19548e-08)
(4.72261e-08 -1.15605e-08 0 3.68675e-08 0 4.20335e-08)
(4.56026e-08 2.49726e-10 0 3.32537e-08 0 3.93784e-08)
(4.66104e-08 -6.8672e-10 0 3.2723e-08 0 3.96172e-08)
(4.75407e-08 -1.75784e-09 0 3.25277e-08 0 3.99127e-08)
(4.83581e-08 -3.38603e-09 0 3.21602e-08 0 4.022e-08)
(4.98852e-08 -4.65606e-09 0 3.20335e-08 0 4.0825e-08)
(4.93958e-08 -6.94386e-09 0 3.29593e-08 0 4.10997e-08)
(4.99152e-08 -8.65131e-09 0 3.41335e-08 0 4.1789e-08)
(4.7584e-08 -1.14111e-08 0 3.67782e-08 0 4.20677e-08)
(4.53722e-08 4.68893e-10 0 3.334e-08 0 3.9326e-08)
(4.61421e-08 -7.21425e-10 0 3.28322e-08 0 3.94869e-08)
(4.70079e-08 -1.62252e-09 0 3.26038e-08 0 3.97479e-08)
(4.76142e-08 -3.38194e-09 0 3.25462e-08 0 4.00394e-08)
(4.91184e-08 -4.6821e-09 0 3.24498e-08 0 4.06323e-08)
(4.85712e-08 -6.93728e-09 0 3.31845e-08 0 4.08639e-08)
(4.88903e-08 -8.92898e-09 0 3.42781e-08 0 4.14738e-08)
(4.75635e-08 -1.16122e-08 0 3.67024e-08 0 4.20928e-08)
(4.50776e-08 4.19551e-10 0 3.35944e-08 0 3.92795e-08)
(4.5616e-08 -5.34563e-10 0 3.34213e-08 0 3.94204e-08)
(4.6366e-08 -1.19372e-09 0 3.3079e-08 0 3.96071e-08)
(4.68379e-08 -3.06595e-09 0 3.28332e-08 0 3.98141e-08)
(4.78902e-08 -4.16305e-09 0 3.28793e-08 0 4.02451e-08)
(4.69207e-08 -6.16944e-09 0 3.3786e-08 0 4.03308e-08)
(4.74513e-08 -7.97393e-09 0 3.48894e-08 0 4.09624e-08)
(4.74975e-08 -1.11458e-08 0 3.64727e-08 0 4.19037e-08)