/*--------------------------------*- C++ -*----------------------------------*\
| =========                 |                                                 |
| \\      /  F ield         | OpenFOAM: The Open Source CFD Toolbox           |
|  \\    /   O peration     | Version:  v1912                                 |
|   \\  /    A nd           | Website:  www.openfoam.com                      |
|    \\/     M anipulation  |                                                 |
\*---------------------------------------------------------------------------*/
FoamFile
{
    version     2.0;
    format      ascii;
    class       volScalarField;
    location    "30";
    object      nut;
}
// * * * * * * * * * * * * * * * * * * * * * * * * * * * * * * * * * * * * * //

dimensions      [0 2 -1 0 0 0 0];


internalField   nonuniform List<scalar> 
14268
(
5.72952e-05
5.68739e-05
5.64516e-05
5.60283e-05
5.5604e-05
5.51787e-05
5.47525e-05
5.43253e-05
5.38971e-05
5.34681e-05
5.30382e-05
5.26075e-05
5.2176e-05
5.17436e-05
5.13106e-05
5.08768e-05
5.04424e-05
5.00075e-05
4.95727e-05
4.91378e-05
4.87029e-05
4.8268e-05
4.78331e-05
4.73981e-05
4.69631e-05
4.65281e-05
4.6093e-05
4.56579e-05
4.52227e-05
4.47876e-05
4.43524e-05
4.39172e-05
4.34819e-05
4.30466e-05
4.26113e-05
4.2176e-05
4.17407e-05
4.13054e-05
4.087e-05
4.04346e-05
3.99991e-05
3.95637e-05
3.91282e-05
3.86926e-05
3.8257e-05
3.78213e-05
3.73856e-05
3.69499e-05
3.65141e-05
3.60783e-05
3.56424e-05
3.52065e-05
3.47705e-05
3.43346e-05
3.38985e-05
3.34624e-05
3.30263e-05
3.25901e-05
3.21538e-05
3.17174e-05
3.1281e-05
3.08444e-05
3.04078e-05
2.99711e-05
2.95343e-05
2.90974e-05
2.86605e-05
2.82234e-05
2.77863e-05
2.7349e-05
2.69116e-05
2.64741e-05
2.60364e-05
2.55986e-05
2.51607e-05
2.47226e-05
2.42844e-05
2.3846e-05
2.34075e-05
2.29688e-05
2.25299e-05
2.20908e-05
2.16515e-05
2.1212e-05
2.07722e-05
2.03322e-05
1.98919e-05
1.94514e-05
1.90106e-05
1.85696e-05
1.81282e-05
1.76865e-05
1.72444e-05
1.68019e-05
1.63591e-05
1.59157e-05
1.54719e-05
1.50275e-05
1.45825e-05
1.4137e-05
1.36907e-05
1.32437e-05
1.27958e-05
1.23471e-05
1.18974e-05
1.14466e-05
1.09946e-05
1.05414e-05
1.00869e-05
9.6308e-06
9.17353e-06
8.71446e-06
8.25421e-06
7.79203e-06
7.32838e-06
6.86256e-06
6.39487e-06
5.92479e-06
5.4528e-06
4.97837e-06
4.50238e-06
4.02492e-06
3.54737e-06
3.07147e-06
2.60046e-06
2.1395e-06
1.69542e-06
1.27924e-06
9.01737e-07
5.77464e-07
3.17974e-07
1.36701e-07
3.7778e-08
5.60245e-09
4.16482e-07
4.1671e-07
4.1694e-07
4.1717e-07
4.17406e-07
4.1764e-07
4.17879e-07
4.18119e-07
4.18361e-07
4.18603e-07
4.18846e-07
4.19089e-07
4.19331e-07
4.19571e-07
4.19811e-07
4.20048e-07
4.20284e-07
4.20483e-07
4.20599e-07
4.20637e-07
4.20599e-07
4.2049e-07
4.20314e-07
4.20072e-07
4.19773e-07
4.19417e-07
4.19011e-07
4.18555e-07
4.18056e-07
4.17515e-07
4.16939e-07
4.16324e-07
4.15681e-07
4.15006e-07
4.14306e-07
4.13582e-07
4.12837e-07
4.12075e-07
4.113e-07
4.10514e-07
4.0972e-07
4.08925e-07
4.08131e-07
4.07341e-07
4.06558e-07
4.05787e-07
4.05027e-07
4.04282e-07
4.03553e-07
4.0284e-07
4.02143e-07
4.01464e-07
4.00804e-07
4.00163e-07
3.99543e-07
3.98945e-07
3.98372e-07
3.97825e-07
3.97306e-07
3.96814e-07
3.96352e-07
3.95918e-07
3.95511e-07
3.95129e-07
3.94773e-07
3.94442e-07
3.94135e-07
3.93853e-07
3.93599e-07
3.93373e-07
3.93176e-07
3.9301e-07
3.92872e-07
3.92761e-07
3.92676e-07
3.92614e-07
3.92576e-07
3.9256e-07
3.92568e-07
3.926e-07
3.92655e-07
3.92734e-07
3.92836e-07
3.92959e-07
3.93103e-07
3.93268e-07
3.93454e-07
3.93651e-07
3.93855e-07
3.94068e-07
3.94289e-07
3.94519e-07
3.94759e-07
3.9501e-07
3.95271e-07
3.95544e-07
3.9583e-07
3.96128e-07
3.96441e-07
3.96768e-07
3.97111e-07
3.97472e-07
3.9785e-07
3.98247e-07
3.98665e-07
3.99104e-07
3.99571e-07
4.00048e-07
4.00582e-07
4.01092e-07
4.01705e-07
4.02258e-07
4.0296e-07
4.03573e-07
4.04367e-07
4.05061e-07
4.05941e-07
4.06712e-07
4.07678e-07
4.08516e-07
4.09513e-07
4.10385e-07
4.11306e-07
4.12058e-07
4.12708e-07
4.1301e-07
4.12955e-07
4.12187e-07
4.10452e-07
4.06554e-07
3.97714e-07
3.70719e-07
3.09663e-07
1.70465e-07
3.83402e-07
3.83404e-07
3.83405e-07
3.83407e-07
3.8341e-07
3.83412e-07
3.83414e-07
3.83417e-07
3.83419e-07
3.83422e-07
3.83424e-07
3.83427e-07
3.8343e-07
3.83432e-07
3.83435e-07
3.83437e-07
3.8344e-07
3.83442e-07
3.83443e-07
3.83443e-07
3.83443e-07
3.83441e-07
3.83439e-07
3.83435e-07
3.83431e-07
3.83427e-07
3.83422e-07
3.83416e-07
3.8341e-07
3.83403e-07
3.83397e-07
3.8339e-07
3.83383e-07
3.83375e-07
3.83367e-07
3.8336e-07
3.83352e-07
3.83345e-07
3.83337e-07
3.8333e-07
3.83323e-07
3.83316e-07
3.83309e-07
3.83302e-07
3.83296e-07
3.8329e-07
3.83285e-07
3.8328e-07
3.83274e-07
3.8327e-07
3.83265e-07
3.83261e-07
3.83257e-07
3.83253e-07
3.8325e-07
3.83247e-07
3.83244e-07
3.83242e-07
3.83239e-07
3.83237e-07
3.83235e-07
3.83234e-07
3.83232e-07
3.83231e-07
3.83229e-07
3.83228e-07
3.83227e-07
3.83226e-07
3.83226e-07
3.83225e-07
3.83224e-07
3.83224e-07
3.83224e-07
3.83223e-07
3.83223e-07
3.83223e-07
3.83223e-07
3.83223e-07
3.83223e-07
3.83223e-07
3.83223e-07
3.83224e-07
3.83224e-07
3.83224e-07
3.83225e-07
3.83225e-07
3.83226e-07
3.83226e-07
3.83227e-07
3.83228e-07
3.83228e-07
3.83229e-07
3.8323e-07
3.83231e-07
3.83232e-07
3.83233e-07
3.83234e-07
3.83235e-07
3.83236e-07
3.83237e-07
3.83239e-07
3.83241e-07
3.83242e-07
3.83244e-07
3.83247e-07
3.83249e-07
3.83253e-07
3.83254e-07
3.83264e-07
3.83259e-07
3.83276e-07
3.83267e-07
3.83291e-07
3.83279e-07
3.83309e-07
3.83298e-07
3.83331e-07
3.83322e-07
3.83362e-07
3.83359e-07
3.83405e-07
3.83418e-07
3.83472e-07
3.83511e-07
3.83587e-07
3.83675e-07
3.83791e-07
3.83963e-07
3.84171e-07
3.84314e-07
3.84561e-07
3.83999e-07
3.79384e-07
3.45791e-07
3.83199e-07
3.83199e-07
3.83198e-07
3.83198e-07
3.83198e-07
3.83198e-07
3.83197e-07
3.83197e-07
3.83197e-07
3.83196e-07
3.83196e-07
3.83196e-07
3.83196e-07
3.83195e-07
3.83195e-07
3.83195e-07
3.83194e-07
3.83194e-07
3.83194e-07
3.83193e-07
3.83193e-07
3.83192e-07
3.83192e-07
3.83191e-07
3.83191e-07
3.8319e-07
3.8319e-07
3.8319e-07
3.83189e-07
3.83189e-07
3.83188e-07
3.83188e-07
3.83187e-07
3.83187e-07
3.83186e-07
3.83186e-07
3.83186e-07
3.83185e-07
3.83185e-07
3.83184e-07
3.83184e-07
3.83183e-07
3.83183e-07
3.83183e-07
3.83183e-07
3.83182e-07
3.83182e-07
3.83182e-07
3.83182e-07
3.83182e-07
3.83182e-07
3.83182e-07
3.83182e-07
3.83182e-07
3.83182e-07
3.83182e-07
3.83183e-07
3.83183e-07
3.83183e-07
3.83183e-07
3.83183e-07
3.83184e-07
3.83184e-07
3.83184e-07
3.83184e-07
3.83184e-07
3.83184e-07
3.83184e-07
3.83184e-07
3.83184e-07
3.83184e-07
3.83184e-07
3.83184e-07
3.83183e-07
3.83183e-07
3.83183e-07
3.83182e-07
3.83182e-07
3.83182e-07
3.83181e-07
3.83181e-07
3.8318e-07
3.83179e-07
3.83179e-07
3.83178e-07
3.83177e-07
3.83176e-07
3.83175e-07
3.83174e-07
3.83173e-07
3.83172e-07
3.83171e-07
3.83169e-07
3.83168e-07
3.83167e-07
3.83165e-07
3.83163e-07
3.83162e-07
3.8316e-07
3.83158e-07
3.83156e-07
3.83153e-07
3.8315e-07
3.83147e-07
3.83145e-07
3.8314e-07
3.83141e-07
3.83127e-07
3.83143e-07
3.83108e-07
3.83142e-07
3.83086e-07
3.83136e-07
3.83063e-07
3.83123e-07
3.83044e-07
3.83102e-07
3.83014e-07
3.83076e-07
3.82984e-07
3.83027e-07
3.82953e-07
3.82963e-07
3.8291e-07
3.82911e-07
3.82895e-07
3.82908e-07
3.82924e-07
3.8303e-07
3.8296e-07
3.83105e-07
3.82828e-07
3.82519e-07
3.78003e-07
3.83203e-07
3.83202e-07
3.83201e-07
3.83201e-07
3.83201e-07
3.832e-07
3.832e-07
3.832e-07
3.832e-07
3.832e-07
3.832e-07
3.832e-07
3.832e-07
3.832e-07
3.832e-07
3.832e-07
3.832e-07
3.832e-07
3.832e-07
3.832e-07
3.832e-07
3.832e-07
3.832e-07
3.832e-07
3.832e-07
3.832e-07
3.832e-07
3.832e-07
3.832e-07
3.832e-07
3.832e-07
3.832e-07
3.832e-07
3.832e-07
3.832e-07
3.832e-07
3.832e-07
3.832e-07
3.832e-07
3.832e-07
3.832e-07
3.832e-07
3.83201e-07
3.83201e-07
3.83201e-07
3.83201e-07
3.83202e-07
3.83202e-07
3.83202e-07
3.83203e-07
3.83203e-07
3.83203e-07
3.83203e-07
3.83204e-07
3.83204e-07
3.83205e-07
3.83206e-07
3.83206e-07
3.83206e-07
3.83207e-07
3.83208e-07
3.83208e-07
3.83209e-07
3.83209e-07
3.8321e-07
3.8321e-07
3.83211e-07
3.83212e-07
3.83212e-07
3.83213e-07
3.83213e-07
3.83214e-07
3.83215e-07
3.83215e-07
3.83215e-07
3.83216e-07
3.83216e-07
3.83217e-07
3.83217e-07
3.83218e-07
3.83218e-07
3.83218e-07
3.83219e-07
3.83219e-07
3.83219e-07
3.8322e-07
3.8322e-07
3.8322e-07
3.83221e-07
3.83221e-07
3.83221e-07
3.83222e-07
3.83222e-07
3.83222e-07
3.83223e-07
3.83223e-07
3.83224e-07
3.83224e-07
3.83225e-07
3.83225e-07
3.83226e-07
3.83226e-07
3.83227e-07
3.83227e-07
3.83228e-07
3.83229e-07
3.83231e-07
3.83229e-07
3.83236e-07
3.83229e-07
3.83243e-07
3.8323e-07
3.8325e-07
3.83232e-07
3.83256e-07
3.83239e-07
3.83264e-07
3.83245e-07
3.83274e-07
3.83256e-07
3.83284e-07
3.83275e-07
3.83301e-07
3.83307e-07
3.8334e-07
3.8338e-07
3.83431e-07
3.83535e-07
3.83641e-07
3.83717e-07
3.83765e-07
3.8361e-07
3.8352e-07
3.8278e-07
3.83198e-07
3.83197e-07
3.83196e-07
3.83196e-07
3.83195e-07
3.83195e-07
3.83194e-07
3.83194e-07
3.83193e-07
3.83193e-07
3.83192e-07
3.83192e-07
3.83191e-07
3.83191e-07
3.83191e-07
3.8319e-07
3.83189e-07
3.83189e-07
3.83188e-07
3.83188e-07
3.83187e-07
3.83187e-07
3.83187e-07
3.83186e-07
3.83186e-07
3.83185e-07
3.83185e-07
3.83184e-07
3.83184e-07
3.83184e-07
3.83183e-07
3.83183e-07
3.83183e-07
3.83183e-07
3.83182e-07
3.83182e-07
3.83182e-07
3.83181e-07
3.83181e-07
3.83181e-07
3.83181e-07
3.8318e-07
3.8318e-07
3.8318e-07
3.8318e-07
3.8318e-07
3.8318e-07
3.8318e-07
3.8318e-07
3.8318e-07
3.8318e-07
3.83181e-07
3.83181e-07
3.83181e-07
3.83182e-07
3.83182e-07
3.83182e-07
3.83183e-07
3.83183e-07
3.83184e-07
3.83184e-07
3.83184e-07
3.83184e-07
3.83185e-07
3.83185e-07
3.83185e-07
3.83185e-07
3.83185e-07
3.83185e-07
3.83185e-07
3.83185e-07
3.83185e-07
3.83185e-07
3.83185e-07
3.83184e-07
3.83184e-07
3.83184e-07
3.83183e-07
3.83183e-07
3.83182e-07
3.83182e-07
3.83181e-07
3.83181e-07
3.8318e-07
3.83179e-07
3.83178e-07
3.83177e-07
3.83176e-07
3.83175e-07
3.83174e-07
3.83173e-07
3.83172e-07
3.8317e-07
3.83169e-07
3.83167e-07
3.83165e-07
3.83163e-07
3.83161e-07
3.83159e-07
3.83157e-07
3.83155e-07
3.83152e-07
3.83149e-07
3.83145e-07
3.83142e-07
3.83137e-07
3.83138e-07
3.83124e-07
3.83139e-07
3.83104e-07
3.83137e-07
3.83082e-07
3.83131e-07
3.83058e-07
3.83115e-07
3.83035e-07
3.83091e-07
3.83e-07
3.83058e-07
3.82964e-07
3.83003e-07
3.82926e-07
3.82932e-07
3.82877e-07
3.82871e-07
3.82867e-07
3.82872e-07
3.82895e-07
3.82995e-07
3.82921e-07
3.83063e-07
3.82822e-07
3.82783e-07
3.82591e-07
3.83203e-07
3.83202e-07
3.83201e-07
3.832e-07
3.832e-07
3.83199e-07
3.83199e-07
3.83198e-07
3.83198e-07
3.83198e-07
3.83198e-07
3.83197e-07
3.83197e-07
3.83197e-07
3.83196e-07
3.83196e-07
3.83196e-07
3.83196e-07
3.83195e-07
3.83195e-07
3.83195e-07
3.83194e-07
3.83194e-07
3.83194e-07
3.83194e-07
3.83194e-07
3.83194e-07
3.83194e-07
3.83194e-07
3.83194e-07
3.83194e-07
3.83194e-07
3.83194e-07
3.83194e-07
3.83194e-07
3.83194e-07
3.83194e-07
3.83194e-07
3.83194e-07
3.83194e-07
3.83194e-07
3.83195e-07
3.83195e-07
3.83195e-07
3.83195e-07
3.83196e-07
3.83196e-07
3.83197e-07
3.83197e-07
3.83198e-07
3.83198e-07
3.83199e-07
3.83199e-07
3.832e-07
3.832e-07
3.83201e-07
3.83202e-07
3.83202e-07
3.83203e-07
3.83204e-07
3.83204e-07
3.83205e-07
3.83206e-07
3.83206e-07
3.83207e-07
3.83208e-07
3.83209e-07
3.83209e-07
3.8321e-07
3.83211e-07
3.83211e-07
3.83212e-07
3.83213e-07
3.83213e-07
3.83214e-07
3.83215e-07
3.83215e-07
3.83216e-07
3.83216e-07
3.83217e-07
3.83217e-07
3.83217e-07
3.83218e-07
3.83218e-07
3.83218e-07
3.83219e-07
3.83219e-07
3.83219e-07
3.8322e-07
3.8322e-07
3.8322e-07
3.83221e-07
3.83221e-07
3.83222e-07
3.83222e-07
3.83223e-07
3.83223e-07
3.83224e-07
3.83224e-07
3.83225e-07
3.83225e-07
3.83226e-07
3.83226e-07
3.83227e-07
3.83228e-07
3.83228e-07
3.83231e-07
3.83229e-07
3.83236e-07
3.83228e-07
3.83242e-07
3.83229e-07
3.83249e-07
3.83231e-07
3.83256e-07
3.83238e-07
3.83264e-07
3.83245e-07
3.83274e-07
3.83256e-07
3.83283e-07
3.83274e-07
3.83298e-07
3.833e-07
3.83329e-07
3.83362e-07
3.8341e-07
3.83505e-07
3.83615e-07
3.83697e-07
3.83749e-07
3.83568e-07
3.83481e-07
3.83119e-07
3.83198e-07
3.83197e-07
3.83196e-07
3.83196e-07
3.83195e-07
3.83194e-07
3.83194e-07
3.83193e-07
3.83193e-07
3.83192e-07
3.83192e-07
3.83191e-07
3.83191e-07
3.8319e-07
3.83189e-07
3.83189e-07
3.83188e-07
3.83188e-07
3.83187e-07
3.83186e-07
3.83186e-07
3.83186e-07
3.83185e-07
3.83185e-07
3.83184e-07
3.83184e-07
3.83183e-07
3.83183e-07
3.83183e-07
3.83182e-07
3.83182e-07
3.83182e-07
3.83181e-07
3.83181e-07
3.83181e-07
3.83181e-07
3.8318e-07
3.8318e-07
3.8318e-07
3.83179e-07
3.83179e-07
3.83179e-07
3.83179e-07
3.83179e-07
3.83179e-07
3.83179e-07
3.83179e-07
3.83179e-07
3.83179e-07
3.83179e-07
3.8318e-07
3.8318e-07
3.83181e-07
3.83181e-07
3.83181e-07
3.83182e-07
3.83182e-07
3.83183e-07
3.83184e-07
3.83184e-07
3.83185e-07
3.83185e-07
3.83186e-07
3.83186e-07
3.83186e-07
3.83186e-07
3.83187e-07
3.83187e-07
3.83187e-07
3.83187e-07
3.83187e-07
3.83187e-07
3.83187e-07
3.83187e-07
3.83187e-07
3.83187e-07
3.83186e-07
3.83186e-07
3.83186e-07
3.83186e-07
3.83185e-07
3.83185e-07
3.83184e-07
3.83183e-07
3.83183e-07
3.83182e-07
3.83181e-07
3.8318e-07
3.83179e-07
3.83178e-07
3.83177e-07
3.83175e-07
3.83174e-07
3.83172e-07
3.83171e-07
3.83169e-07
3.83167e-07
3.83164e-07
3.83162e-07
3.8316e-07
3.83158e-07
3.83155e-07
3.83151e-07
3.83148e-07
3.83144e-07
3.83139e-07
3.8314e-07
3.83125e-07
3.8314e-07
3.83105e-07
3.83139e-07
3.83084e-07
3.83133e-07
3.83061e-07
3.83118e-07
3.83038e-07
3.83091e-07
3.83e-07
3.83056e-07
3.8296e-07
3.82997e-07
3.82919e-07
3.82923e-07
3.82871e-07
3.82865e-07
3.82872e-07
3.82879e-07
3.82915e-07
3.8302e-07
3.8295e-07
3.83092e-07
3.82895e-07
3.82845e-07
3.82668e-07
3.83201e-07
3.832e-07
3.83199e-07
3.83198e-07
3.83197e-07
3.83197e-07
3.83196e-07
3.83196e-07
3.83195e-07
3.83194e-07
3.83194e-07
3.83193e-07
3.83193e-07
3.83193e-07
3.83192e-07
3.83192e-07
3.83191e-07
3.83191e-07
3.83191e-07
3.8319e-07
3.8319e-07
3.83189e-07
3.83189e-07
3.83189e-07
3.83188e-07
3.83188e-07
3.83188e-07
3.83188e-07
3.83188e-07
3.83188e-07
3.83188e-07
3.83188e-07
3.83188e-07
3.83188e-07
3.83188e-07
3.83188e-07
3.83188e-07
3.83188e-07
3.83188e-07
3.83188e-07
3.83188e-07
3.83189e-07
3.83189e-07
3.83189e-07
3.8319e-07
3.8319e-07
3.83191e-07
3.83191e-07
3.83192e-07
3.83193e-07
3.83193e-07
3.83194e-07
3.83194e-07
3.83195e-07
3.83196e-07
3.83197e-07
3.83198e-07
3.83198e-07
3.83199e-07
3.832e-07
3.83201e-07
3.83202e-07
3.83203e-07
3.83203e-07
3.83204e-07
3.83205e-07
3.83206e-07
3.83207e-07
3.83207e-07
3.83208e-07
3.83209e-07
3.8321e-07
3.83211e-07
3.83211e-07
3.83212e-07
3.83213e-07
3.83213e-07
3.83214e-07
3.83215e-07
3.83215e-07
3.83216e-07
3.83216e-07
3.83216e-07
3.83217e-07
3.83217e-07
3.83218e-07
3.83218e-07
3.83218e-07
3.83219e-07
3.83219e-07
3.83219e-07
3.8322e-07
3.8322e-07
3.8322e-07
3.83221e-07
3.83221e-07
3.83222e-07
3.83222e-07
3.83223e-07
3.83223e-07
3.83224e-07
3.83225e-07
3.83225e-07
3.83226e-07
3.83227e-07
3.83227e-07
3.83229e-07
3.83227e-07
3.83234e-07
3.83226e-07
3.83241e-07
3.83227e-07
3.83247e-07
3.83229e-07
3.83253e-07
3.83236e-07
3.83261e-07
3.83242e-07
3.83271e-07
3.83252e-07
3.8328e-07
3.83268e-07
3.8329e-07
3.83288e-07
3.83314e-07
3.83339e-07
3.83382e-07
3.8347e-07
3.83581e-07
3.83667e-07
3.83731e-07
3.83533e-07
3.83436e-07
3.83071e-07
3.83199e-07
3.83197e-07
3.83196e-07
3.83196e-07
3.83195e-07
3.83194e-07
3.83193e-07
3.83192e-07
3.83191e-07
3.83191e-07
3.8319e-07
3.83189e-07
3.83189e-07
3.83188e-07
3.83187e-07
3.83187e-07
3.83186e-07
3.83185e-07
3.83185e-07
3.83184e-07
3.83183e-07
3.83183e-07
3.83183e-07
3.83182e-07
3.83181e-07
3.83181e-07
3.83181e-07
3.8318e-07
3.8318e-07
3.83179e-07
3.83179e-07
3.83179e-07
3.83179e-07
3.83178e-07
3.83178e-07
3.83178e-07
3.83178e-07
3.83177e-07
3.83177e-07
3.83177e-07
3.83177e-07
3.83177e-07
3.83177e-07
3.83177e-07
3.83177e-07
3.83177e-07
3.83177e-07
3.83178e-07
3.83178e-07
3.83178e-07
3.83179e-07
3.83179e-07
3.8318e-07
3.8318e-07
3.83181e-07
3.83181e-07
3.83182e-07
3.83183e-07
3.83183e-07
3.83184e-07
3.83185e-07
3.83185e-07
3.83186e-07
3.83187e-07
3.83187e-07
3.83188e-07
3.83188e-07
3.83188e-07
3.83189e-07
3.83189e-07
3.83189e-07
3.83189e-07
3.83189e-07
3.83189e-07
3.83189e-07
3.83189e-07
3.83189e-07
3.83189e-07
3.83189e-07
3.83188e-07
3.83188e-07
3.83188e-07
3.83187e-07
3.83187e-07
3.83186e-07
3.83185e-07
3.83185e-07
3.83184e-07
3.83183e-07
3.83182e-07
3.83181e-07
3.83179e-07
3.83178e-07
3.83176e-07
3.83174e-07
3.83173e-07
3.83171e-07
3.83168e-07
3.83166e-07
3.83164e-07
3.83161e-07
3.83158e-07
3.83155e-07
3.83151e-07
3.83147e-07
3.83142e-07
3.83143e-07
3.83128e-07
3.83143e-07
3.83108e-07
3.83142e-07
3.83087e-07
3.83137e-07
3.83066e-07
3.83123e-07
3.83044e-07
3.83097e-07
3.83006e-07
3.83059e-07
3.82965e-07
3.82999e-07
3.82923e-07
3.82925e-07
3.8288e-07
3.82874e-07
3.82893e-07
3.82907e-07
3.8296e-07
3.83076e-07
3.83017e-07
3.83151e-07
3.82984e-07
3.82965e-07
3.82791e-07
3.832e-07
3.83199e-07
3.83197e-07
3.83196e-07
3.83195e-07
3.83195e-07
3.83194e-07
3.83193e-07
3.83192e-07
3.83192e-07
3.83191e-07
3.8319e-07
3.8319e-07
3.83189e-07
3.83188e-07
3.83188e-07
3.83187e-07
3.83187e-07
3.83186e-07
3.83186e-07
3.83185e-07
3.83185e-07
3.83184e-07
3.83184e-07
3.83183e-07
3.83183e-07
3.83183e-07
3.83182e-07
3.83183e-07
3.83182e-07
3.83182e-07
3.83182e-07
3.83182e-07
3.83182e-07
3.83182e-07
3.83182e-07
3.83182e-07
3.83182e-07
3.83182e-07
3.83182e-07
3.83182e-07
3.83183e-07
3.83183e-07
3.83183e-07
3.83184e-07
3.83184e-07
3.83185e-07
3.83186e-07
3.83186e-07
3.83187e-07
3.83188e-07
3.83189e-07
3.83189e-07
3.8319e-07
3.83191e-07
3.83192e-07
3.83193e-07
3.83194e-07
3.83195e-07
3.83196e-07
3.83197e-07
3.83198e-07
3.83199e-07
3.832e-07
3.83201e-07
3.83202e-07
3.83203e-07
3.83204e-07
3.83205e-07
3.83206e-07
3.83207e-07
3.83208e-07
3.83209e-07
3.83209e-07
3.8321e-07
3.83211e-07
3.83212e-07
3.83212e-07
3.83213e-07
3.83214e-07
3.83214e-07
3.83215e-07
3.83215e-07
3.83216e-07
3.83216e-07
3.83216e-07
3.83217e-07
3.83217e-07
3.83218e-07
3.83218e-07
3.83218e-07
3.83219e-07
3.83219e-07
3.8322e-07
3.8322e-07
3.8322e-07
3.83221e-07
3.83221e-07
3.83222e-07
3.83222e-07
3.83223e-07
3.83224e-07
3.83224e-07
3.83225e-07
3.83226e-07
3.83226e-07
3.83228e-07
3.83226e-07
3.83233e-07
3.83225e-07
3.83239e-07
3.83225e-07
3.83245e-07
3.83226e-07
3.83251e-07
3.83233e-07
3.83258e-07
3.83238e-07
3.83268e-07
3.83248e-07
3.83275e-07
3.83261e-07
3.83282e-07
3.83274e-07
3.83297e-07
3.83312e-07
3.8335e-07
3.83429e-07
3.8354e-07
3.83629e-07
3.8371e-07
3.83508e-07
3.83388e-07
3.83003e-07
3.83197e-07
3.83197e-07
3.83196e-07
3.83194e-07
3.83193e-07
3.83192e-07
3.83191e-07
3.8319e-07
3.83189e-07
3.83189e-07
3.83188e-07
3.83187e-07
3.83186e-07
3.83185e-07
3.83184e-07
3.83184e-07
3.83183e-07
3.83182e-07
3.83181e-07
3.83181e-07
3.8318e-07
3.83179e-07
3.83179e-07
3.83178e-07
3.83178e-07
3.83177e-07
3.83177e-07
3.83176e-07
3.83176e-07
3.83176e-07
3.83175e-07
3.83175e-07
3.83175e-07
3.83175e-07
3.83175e-07
3.83175e-07
3.83174e-07
3.83174e-07
3.83174e-07
3.83174e-07
3.83174e-07
3.83174e-07
3.83174e-07
3.83174e-07
3.83174e-07
3.83175e-07
3.83175e-07
3.83176e-07
3.83176e-07
3.83177e-07
3.83177e-07
3.83178e-07
3.83178e-07
3.83179e-07
3.8318e-07
3.8318e-07
3.83181e-07
3.83182e-07
3.83183e-07
3.83184e-07
3.83184e-07
3.83185e-07
3.83186e-07
3.83187e-07
3.83187e-07
3.83188e-07
3.83189e-07
3.83189e-07
3.8319e-07
3.8319e-07
3.8319e-07
3.8319e-07
3.8319e-07
3.83191e-07
3.83191e-07
3.83191e-07
3.83191e-07
3.83191e-07
3.83191e-07
3.83191e-07
3.8319e-07
3.8319e-07
3.8319e-07
3.83189e-07
3.83189e-07
3.83188e-07
3.83187e-07
3.83187e-07
3.83186e-07
3.83185e-07
3.83184e-07
3.83182e-07
3.83181e-07
3.83179e-07
3.83178e-07
3.83176e-07
3.83174e-07
3.83172e-07
3.83169e-07
3.83167e-07
3.83165e-07
3.83162e-07
3.83158e-07
3.83154e-07
3.8315e-07
3.83145e-07
3.83145e-07
3.83131e-07
3.83145e-07
3.8311e-07
3.83144e-07
3.8309e-07
3.8314e-07
3.8307e-07
3.83126e-07
3.83049e-07
3.83102e-07
3.83012e-07
3.83065e-07
3.82971e-07
3.83003e-07
3.8293e-07
3.8293e-07
3.82895e-07
3.82884e-07
3.82921e-07
3.82932e-07
3.8302e-07
3.83132e-07
3.83106e-07
3.83223e-07
3.83072e-07
3.83232e-07
3.83073e-07
3.83199e-07
3.83198e-07
3.83197e-07
3.83195e-07
3.83194e-07
3.83193e-07
3.83192e-07
3.83191e-07
3.8319e-07
3.83189e-07
3.83188e-07
3.83188e-07
3.83187e-07
3.83186e-07
3.83185e-07
3.83184e-07
3.83184e-07
3.83183e-07
3.83182e-07
3.83182e-07
3.83181e-07
3.8318e-07
3.8318e-07
3.83179e-07
3.83179e-07
3.83179e-07
3.83178e-07
3.83178e-07
3.83178e-07
3.83178e-07
3.83177e-07
3.83177e-07
3.83177e-07
3.83177e-07
3.83177e-07
3.83177e-07
3.83177e-07
3.83177e-07
3.83177e-07
3.83177e-07
3.83177e-07
3.83177e-07
3.83178e-07
3.83178e-07
3.83178e-07
3.83179e-07
3.8318e-07
3.8318e-07
3.83181e-07
3.83182e-07
3.83183e-07
3.83184e-07
3.83185e-07
3.83186e-07
3.83187e-07
3.83188e-07
3.83189e-07
3.8319e-07
3.83191e-07
3.83192e-07
3.83194e-07
3.83195e-07
3.83196e-07
3.83197e-07
3.83198e-07
3.83199e-07
3.832e-07
3.83201e-07
3.83202e-07
3.83203e-07
3.83204e-07
3.83205e-07
3.83206e-07
3.83207e-07
3.83208e-07
3.83209e-07
3.8321e-07
3.8321e-07
3.83211e-07
3.83212e-07
3.83213e-07
3.83213e-07
3.83214e-07
3.83214e-07
3.83215e-07
3.83215e-07
3.83216e-07
3.83216e-07
3.83217e-07
3.83217e-07
3.83217e-07
3.83218e-07
3.83218e-07
3.83219e-07
3.83219e-07
3.83219e-07
3.8322e-07
3.8322e-07
3.83221e-07
3.83222e-07
3.83222e-07
3.83223e-07
3.83223e-07
3.83224e-07
3.83225e-07
3.83225e-07
3.83227e-07
3.83225e-07
3.83232e-07
3.83223e-07
3.83238e-07
3.83223e-07
3.83243e-07
3.83224e-07
3.83249e-07
3.8323e-07
3.83256e-07
3.83234e-07
3.83264e-07
3.83242e-07
3.83269e-07
3.83251e-07
3.83273e-07
3.83254e-07
3.83284e-07
3.8327e-07
3.83347e-07
3.83358e-07
3.83563e-07
3.83577e-07
3.83746e-07
3.835e-07
3.8317e-07
3.82801e-07
3.83199e-07
3.83197e-07
3.83196e-07
3.83195e-07
3.83193e-07
3.83192e-07
3.83191e-07
3.8319e-07
3.83189e-07
3.83188e-07
3.83186e-07
3.83185e-07
3.83184e-07
3.83183e-07
3.83182e-07
3.83181e-07
3.8318e-07
3.83179e-07
3.83178e-07
3.83177e-07
3.83177e-07
3.83176e-07
3.83175e-07
3.83174e-07
3.83174e-07
3.83173e-07
3.83173e-07
3.83172e-07
3.83172e-07
3.83172e-07
3.83171e-07
3.83171e-07
3.83171e-07
3.8317e-07
3.8317e-07
3.8317e-07
3.8317e-07
3.8317e-07
3.83169e-07
3.83169e-07
3.83169e-07
3.8317e-07
3.8317e-07
3.8317e-07
3.8317e-07
3.83171e-07
3.83172e-07
3.83172e-07
3.83173e-07
3.83174e-07
3.83174e-07
3.83175e-07
3.83176e-07
3.83177e-07
3.83177e-07
3.83178e-07
3.83179e-07
3.8318e-07
3.83181e-07
3.83182e-07
3.83183e-07
3.83184e-07
3.83185e-07
3.83186e-07
3.83187e-07
3.83187e-07
3.83188e-07
3.83189e-07
3.83189e-07
3.8319e-07
3.8319e-07
3.83191e-07
3.83191e-07
3.83191e-07
3.83192e-07
3.83192e-07
3.83192e-07
3.83192e-07
3.83192e-07
3.83192e-07
3.83192e-07
3.83192e-07
3.83191e-07
3.83191e-07
3.83191e-07
3.8319e-07
3.83189e-07
3.83189e-07
3.83188e-07
3.83187e-07
3.83186e-07
3.83184e-07
3.83183e-07
3.83181e-07
3.83179e-07
3.83178e-07
3.83176e-07
3.83173e-07
3.83171e-07
3.83169e-07
3.83166e-07
3.83162e-07
3.83158e-07
3.83154e-07
3.8315e-07
3.83144e-07
3.83144e-07
3.83129e-07
3.83143e-07
3.83108e-07
3.83141e-07
3.83086e-07
3.83136e-07
3.83063e-07
3.83122e-07
3.8304e-07
3.831e-07
3.82998e-07
3.83067e-07
3.82949e-07
3.83012e-07
3.82897e-07
3.82959e-07
3.82856e-07
3.82974e-07
3.82886e-07
3.83076e-07
3.83036e-07
3.83324e-07
3.83159e-07
3.83394e-07
3.83129e-07
3.83376e-07
3.82932e-07
3.83201e-07
3.83199e-07
3.83198e-07
3.83196e-07
3.83195e-07
3.83194e-07
3.83192e-07
3.83191e-07
3.8319e-07
3.83189e-07
3.83187e-07
3.83186e-07
3.83185e-07
3.83184e-07
3.83183e-07
3.83182e-07
3.83181e-07
3.8318e-07
3.83179e-07
3.83178e-07
3.83177e-07
3.83176e-07
3.83176e-07
3.83175e-07
3.83175e-07
3.83174e-07
3.83173e-07
3.83173e-07
3.83173e-07
3.83172e-07
3.83172e-07
3.83172e-07
3.83172e-07
3.83171e-07
3.83171e-07
3.83171e-07
3.83171e-07
3.83171e-07
3.83171e-07
3.83171e-07
3.83171e-07
3.83171e-07
3.83172e-07
3.83172e-07
3.83173e-07
3.83173e-07
3.83174e-07
3.83175e-07
3.83176e-07
3.83177e-07
3.83178e-07
3.83179e-07
3.8318e-07
3.83181e-07
3.83182e-07
3.83183e-07
3.83185e-07
3.83186e-07
3.83187e-07
3.83189e-07
3.8319e-07
3.83191e-07
3.83192e-07
3.83193e-07
3.83194e-07
3.83195e-07
3.83197e-07
3.83198e-07
3.83199e-07
3.832e-07
3.83201e-07
3.83202e-07
3.83203e-07
3.83204e-07
3.83205e-07
3.83206e-07
3.83207e-07
3.83208e-07
3.83208e-07
3.83209e-07
3.8321e-07
3.8321e-07
3.83211e-07
3.83211e-07
3.83212e-07
3.83212e-07
3.83213e-07
3.83213e-07
3.83213e-07
3.83214e-07
3.83214e-07
3.83214e-07
3.83214e-07
3.83215e-07
3.83215e-07
3.83215e-07
3.83215e-07
3.83215e-07
3.83215e-07
3.83215e-07
3.83216e-07
3.83216e-07
3.83216e-07
3.83216e-07
3.83216e-07
3.83215e-07
3.83217e-07
3.83213e-07
3.8322e-07
3.83206e-07
3.83224e-07
3.832e-07
3.83228e-07
3.83196e-07
3.8323e-07
3.83195e-07
3.83233e-07
3.83189e-07
3.83235e-07
3.83183e-07
3.83231e-07
3.83174e-07
3.83221e-07
3.83158e-07
3.8322e-07
3.83184e-07
3.83277e-07
3.83311e-07
3.83476e-07
3.83492e-07
3.83666e-07
3.83477e-07
3.83561e-07
3.83067e-07
3.83197e-07
3.83196e-07
3.83195e-07
3.83193e-07
3.83192e-07
3.83191e-07
3.8319e-07
3.83188e-07
3.83187e-07
3.83186e-07
3.83185e-07
3.83184e-07
3.83183e-07
3.83182e-07
3.83181e-07
3.8318e-07
3.83179e-07
3.83178e-07
3.83177e-07
3.83176e-07
3.83175e-07
3.83175e-07
3.83174e-07
3.83173e-07
3.83172e-07
3.83172e-07
3.83171e-07
3.8317e-07
3.8317e-07
3.8317e-07
3.8317e-07
3.83169e-07
3.83169e-07
3.83169e-07
3.83169e-07
3.83169e-07
3.83168e-07
3.83168e-07
3.83168e-07
3.83168e-07
3.83168e-07
3.83168e-07
3.83168e-07
3.83168e-07
3.83169e-07
3.83169e-07
3.8317e-07
3.8317e-07
3.83171e-07
3.83172e-07
3.83173e-07
3.83173e-07
3.83174e-07
3.83175e-07
3.83175e-07
3.83176e-07
3.83177e-07
3.83179e-07
3.8318e-07
3.83181e-07
3.83182e-07
3.83183e-07
3.83184e-07
3.83185e-07
3.83186e-07
3.83187e-07
3.83188e-07
3.83189e-07
3.8319e-07
3.8319e-07
3.83191e-07
3.83192e-07
3.83193e-07
3.83193e-07
3.83194e-07
3.83194e-07
3.83195e-07
3.83195e-07
3.83196e-07
3.83196e-07
3.83197e-07
3.83197e-07
3.83197e-07
3.83197e-07
3.83197e-07
3.83197e-07
3.83197e-07
3.83197e-07
3.83197e-07
3.83197e-07
3.83197e-07
3.83196e-07
3.83196e-07
3.83196e-07
3.83195e-07
3.83195e-07
3.83194e-07
3.83193e-07
3.83193e-07
3.83192e-07
3.83191e-07
3.8319e-07
3.83188e-07
3.83186e-07
3.83185e-07
3.83182e-07
3.83184e-07
3.83173e-07
3.8319e-07
3.83159e-07
3.83194e-07
3.83147e-07
3.83197e-07
3.83139e-07
3.83196e-07
3.83137e-07
3.83193e-07
3.83122e-07
3.83183e-07
3.83108e-07
3.83148e-07
3.83093e-07
3.83102e-07
3.83067e-07
3.83092e-07
3.83064e-07
3.83147e-07
3.83171e-07
3.83363e-07
3.83353e-07
3.83528e-07
3.83392e-07
3.83519e-07
3.83405e-07
3.83197e-07
3.83195e-07
3.83193e-07
3.83191e-07
3.83189e-07
3.83188e-07
3.83187e-07
3.83185e-07
3.83183e-07
3.83182e-07
3.83181e-07
3.83179e-07
3.83178e-07
3.83177e-07
3.83176e-07
3.83175e-07
3.83174e-07
3.83173e-07
3.83172e-07
3.83171e-07
3.8317e-07
3.83169e-07
3.83169e-07
3.83168e-07
3.83168e-07
3.83168e-07
3.83167e-07
3.83167e-07
3.83166e-07
3.83166e-07
3.83166e-07
3.83166e-07
3.83165e-07
3.83165e-07
3.83165e-07
3.83165e-07
3.83165e-07
3.83165e-07
3.83165e-07
3.83165e-07
3.83165e-07
3.83166e-07
3.83166e-07
3.83166e-07
3.83167e-07
3.83168e-07
3.83169e-07
3.8317e-07
3.83171e-07
3.83173e-07
3.83174e-07
3.83175e-07
3.83176e-07
3.83177e-07
3.83178e-07
3.83179e-07
3.83181e-07
3.83182e-07
3.83183e-07
3.83185e-07
3.83186e-07
3.83187e-07
3.83189e-07
3.8319e-07
3.83191e-07
3.83193e-07
3.83194e-07
3.83195e-07
3.83196e-07
3.83198e-07
3.83199e-07
3.832e-07
3.83201e-07
3.83202e-07
3.83203e-07
3.83204e-07
3.83205e-07
3.83206e-07
3.83206e-07
3.83207e-07
3.83208e-07
3.83208e-07
3.83209e-07
3.8321e-07
3.8321e-07
3.83211e-07
3.83211e-07
3.83211e-07
3.83212e-07
3.83212e-07
3.83213e-07
3.83213e-07
3.83213e-07
3.83213e-07
3.83213e-07
3.83213e-07
3.83214e-07
3.83214e-07
3.83214e-07
3.83214e-07
3.83214e-07
3.83214e-07
3.83214e-07
3.83214e-07
3.83214e-07
3.83213e-07
3.83215e-07
3.83208e-07
3.83217e-07
3.83199e-07
3.83221e-07
3.83193e-07
3.83224e-07
3.83189e-07
3.83226e-07
3.83189e-07
3.83227e-07
3.83182e-07
3.83226e-07
3.83174e-07
3.8321e-07
3.83162e-07
3.83163e-07
3.83129e-07
3.83126e-07
3.83113e-07
3.83149e-07
3.83193e-07
3.83324e-07
3.83366e-07
3.8352e-07
3.834e-07
3.83398e-07
3.83243e-07
3.83201e-07
3.83199e-07
3.83198e-07
3.83196e-07
3.83195e-07
3.83194e-07
3.83192e-07
3.83191e-07
3.8319e-07
3.83189e-07
3.83188e-07
3.83186e-07
3.83185e-07
3.83184e-07
3.83183e-07
3.83182e-07
3.8318e-07
3.83179e-07
3.83178e-07
3.83177e-07
3.83176e-07
3.83175e-07
3.83174e-07
3.83172e-07
3.83171e-07
3.8317e-07
3.8317e-07
3.83169e-07
3.83169e-07
3.83168e-07
3.83168e-07
3.83168e-07
3.83168e-07
3.83168e-07
3.83167e-07
3.83167e-07
3.83167e-07
3.83166e-07
3.83166e-07
3.83166e-07
3.83166e-07
3.83166e-07
3.83166e-07
3.83167e-07
3.83167e-07
3.83167e-07
3.83167e-07
3.83168e-07
3.83169e-07
3.8317e-07
3.83171e-07
3.83172e-07
3.83173e-07
3.83174e-07
3.83175e-07
3.83176e-07
3.83177e-07
3.83178e-07
3.8318e-07
3.83181e-07
3.83182e-07
3.83183e-07
3.83184e-07
3.83185e-07
3.83186e-07
3.83187e-07
3.83188e-07
3.83189e-07
3.8319e-07
3.83191e-07
3.83192e-07
3.83193e-07
3.83194e-07
3.83194e-07
3.83195e-07
3.83196e-07
3.83196e-07
3.83197e-07
3.83197e-07
3.83198e-07
3.83198e-07
3.83199e-07
3.83199e-07
3.83199e-07
3.83199e-07
3.83199e-07
3.83199e-07
3.83199e-07
3.83199e-07
3.83199e-07
3.83199e-07
3.83199e-07
3.83198e-07
3.83198e-07
3.83198e-07
3.83197e-07
3.83197e-07
3.83196e-07
3.83195e-07
3.83195e-07
3.83194e-07
3.83193e-07
3.83191e-07
3.83189e-07
3.83188e-07
3.83184e-07
3.83186e-07
3.83173e-07
3.83191e-07
3.83159e-07
3.83196e-07
3.83148e-07
3.83198e-07
3.83139e-07
3.83196e-07
3.83136e-07
3.83192e-07
3.83119e-07
3.83179e-07
3.831e-07
3.83133e-07
3.8307e-07
3.83064e-07
3.83012e-07
3.83011e-07
3.82987e-07
3.83032e-07
3.83065e-07
3.83253e-07
3.83281e-07
3.83539e-07
3.83427e-07
3.8361e-07
3.83582e-07
3.83194e-07
3.83192e-07
3.8319e-07
3.83188e-07
3.83186e-07
3.83184e-07
3.83182e-07
3.83181e-07
3.83179e-07
3.83178e-07
3.83176e-07
3.83175e-07
3.83173e-07
3.83172e-07
3.83171e-07
3.8317e-07
3.83169e-07
3.83168e-07
3.83166e-07
3.83166e-07
3.83165e-07
3.83164e-07
3.83164e-07
3.83163e-07
3.83163e-07
3.83162e-07
3.83162e-07
3.83161e-07
3.83161e-07
3.83161e-07
3.8316e-07
3.8316e-07
3.8316e-07
3.8316e-07
3.83159e-07
3.83159e-07
3.83159e-07
3.83159e-07
3.83159e-07
3.83159e-07
3.83159e-07
3.83159e-07
3.8316e-07
3.8316e-07