/*--------------------------------*- C++ -*----------------------------------*\
| =========                 |                                                 |
| \\      /  F ield         | OpenFOAM: The Open Source CFD Toolbox           |
|  \\    /   O peration     | Version:  v1912                                 |
|   \\  /    A nd           | Website:  www.openfoam.com                      |
|    \\/     M anipulation  |                                                 |
\*---------------------------------------------------------------------------*/
FoamFile
{
    version     2.0;
    format      ascii;
    class       volScalarField;
    location    "30";
    object      p_rgh;
}
// * * * * * * * * * * * * * * * * * * * * * * * * * * * * * * * * * * * * * //

dimensions      [1 -1 -2 0 0 0 0];


internalField   nonuniform List<scalar> 
14268
(
495.011
556.931
615.366
670.261
721.579
769.293
813.393
853.877
890.76
924.066
953.832
980.106
1002.95
1022.42
1038.6
1051.57
1061.42
1068.27
1072.2
1073.34
1071.79
1067.68
1061.14
1052.28
1041.23
1028.14
1013.13
996.329
977.879
957.908
936.548
913.928
890.174
865.412
839.763
813.345
786.275
758.664
730.62
702.247
673.645
644.91
616.133
587.403
558.801
530.408
502.296
474.537
447.195
420.329
393.997
368.246
343.122
318.665
294.907
271.879
249.604
228.101
207.387
187.474
168.369
150.079
132.608
115.958
100.128
85.1164
70.9183
57.5273
44.9341
33.1265
22.0913
11.8262
2.28994
-6.53659
-14.675
-22.1483
-28.9803
-35.1947
-40.8152
-45.8655
-50.3693
-54.3507
-57.8346
-60.8463
-63.4121
-65.5586
-67.3111
-68.6973
-69.739
-70.4593
-70.8803
-71.0227
-70.9075
-70.5555
-69.9877
-69.2246
-68.2868
-67.1936
-65.9641
-64.6166
-63.1694
-61.6408
-60.0492
-58.4142
-56.7558
-55.0975
-53.459
-51.8701
-50.3383
-48.8842
-47.4762
-46.1162
-44.7136
-43.2836
-41.795
-40.3201
-38.8422
-37.395
-35.9915
-34.6633
-33.4272
-32.3045
-31.3711
-30.6139
-30.1831
-30.075
-30.4469
-31.203
-32.3561
-33.3366
-33.971
-33.8293
-33.4138
-32.6522
497.305
559.138
617.481
672.282
723.502
771.117
815.115
855.496
892.276
925.478
955.141
981.312
1004.05
1023.42
1039.5
1052.38
1062.14
1068.89
1072.74
1073.79
1072.16
1067.98
1061.35
1052.42
1041.31
1028.16
1013.09
996.234
977.733
957.715
936.312
913.652
889.863
865.069
839.392
812.95
785.858
758.229
730.169
701.784
673.172
644.43
615.649
586.916
558.315
529.923
501.815
474.061
446.726
419.869
393.546
367.806
342.694
318.25
294.506
271.492
249.231
227.744
207.046
187.147
168.058
149.784
132.328
115.693
99.8783
84.8812
70.6976
57.3208
44.7415
32.9474
21.9256
11.6731
2.14907
-6.66579
-14.7931
-22.2559
-29.0779
-35.2828
-40.8944
-45.9364
-50.4323
-54.4064
-57.8833
-60.8886
-63.4486
-65.5898
-67.3406
-68.72
-69.757
-70.4735
-70.8909
-71.0303
-70.9123
-70.5578
-69.9878
-69.2229
-68.2834
-67.1888
-65.9582
-64.6098
-63.1619
-61.6326
-60.0407
-58.4054
-56.7469
-55.0886
-53.4504
-51.8619
-50.3307
-48.8774
-47.4701
-46.1107
-44.7084
-43.2784
-41.7898
-40.3151
-38.8374
-37.3904
-35.9873
-34.6596
-33.4239
-32.3017
-31.3689
-30.6123
-30.1823
-30.0751
-30.4479
-31.2048
-32.3582
-33.3386
-33.9718
-33.8294
-33.4136
-32.6519
500.368
562.119
620.373
675.078
726.195
773.702
817.588
857.853
894.514
927.595
957.135
983.182
1005.79
1025.04
1041
1053.75
1063.39
1070.03
1073.76
1074.7
1072.96
1068.67
1061.95
1052.92
1041.71
1028.47
1013.31
996.381
977.805
957.718
936.25
913.53
889.686
864.842
839.119
812.635
785.507
757.844
729.756
701.346
672.713
643.953
615.158
586.414
557.804
529.407
501.297
473.543
446.209
419.357
393.04
367.309
342.207
317.774
294.043
271.043
248.797
227.326
206.643
186.762
167.689
149.432
131.993
115.374
99.5759
84.5953
70.4281
57.0675
44.5041
32.7259
21.7197
11.4819
1.97249
-6.82843
-14.9424
-22.3925
-29.2024
-35.396
-40.9968
-46.0286
-50.5149
-54.4799
-57.9483
-60.9455
-63.4979
-65.6318
-67.3705
-68.7483
-69.781
-70.4931
-70.9065
-71.0421
-70.9206
-70.5631
-69.9903
-69.2229
-68.2813
-67.1849
-65.9527
-64.603
-63.154
-61.6239
-60.0312
-58.3955
-56.7366
-55.0781
-53.4399
-51.8517
-50.3211
-48.8687
-47.4624
-46.104
-44.702
-43.2719
-41.7831
-40.3086
-38.831
-37.3843
-35.9814
-34.6541
-33.4189
-32.2972
-31.3649
-30.609
-30.1797
-30.0735
-30.4472
-31.2053
-32.3593
-33.3392
-33.9724
-33.8293
-33.4132
-32.6514
504.203
565.877
624.044
678.65
729.66
777.051
820.813
860.949
897.474
930.416
959.812
985.714
1008.18
1027.28
1043.09
1055.69
1065.17
1071.68
1075.27
1076.06
1074.19
1069.76
1062.91
1053.75
1042.43
1029.07
1013.8
996.769
978.095
957.915
936.36
913.56
889.641
864.728
838.942
812.401
785.219
757.509
729.379
700.932
672.267
643.479
614.66
585.896
557.27
528.861
500.742
472.982
445.646
418.794
392.48
366.754
341.661
317.237
293.518
270.532
248.301
226.845
206.18
186.315
167.26
149.021
131.6
115
99.2198
84.2574
70.1083
56.7659
44.2206
32.4603
21.4723
11.2515
1.75884
-7.02589
-15.1243
-22.5596
-29.3555
-35.5357
-41.124
-46.1438
-50.6189
-54.5732
-58.0315
-61.0193
-63.563
-65.6893
-67.4277
-68.7932
-69.8186
-70.5245
-70.9325
-71.0631
-70.9373
-70.5757
-69.9993
-69.2288
-68.2844
-67.1856
-65.9513
-64.5998
-63.1492
-61.6178
-60.0241
-58.3874
-56.7278
-55.0688
-53.4304
-51.8423
-50.3122
-48.8609
-47.456
-46.0989
-44.6975
-43.2672
-41.7782
-40.3037
-38.8261
-37.3794
-35.9768
-34.6498
-33.4149
-32.2937
-31.3617
-30.6064
-30.1777
-30.0725
-30.4473
-31.2069
-32.3618
-33.3424
-33.9737
-33.8296
-33.413
-32.651
508.812
570.416
628.496
683.002
733.898
781.165
824.792
864.784
901.158
933.942
963.175
988.909
1011.2
1030.13
1045.76
1058.2
1067.53
1073.83
1077.25
1077.87
1075.84
1071.25
1064.24
1054.93
1043.46
1029.96
1014.56
997.395
978.599
958.304
936.642
913.74
889.727
864.726
838.858
812.243
784.994
757.224
729.038
700.541
671.832
643.006
614.153
585.361
556.712
528.283
500.148
472.377
445.034
418.178
391.864
366.142
341.054
316.639
292.931
269.958
247.742
226.302
205.654
185.808
166.772
148.552
131.151
114.571
98.8107
83.8683
69.7393
56.417
43.8919
32.1518
21.1843
10.9826
1.50908
-7.2572
-15.3379
-22.7562
-29.5359
-35.7009
-41.2746
-46.2807
-50.7427
-54.6846
-58.1311
-61.1077
-63.6407
-65.7566
-67.4785
-68.842
-69.8612
-70.561
-70.9631
-71.0883
-70.9575
-70.5914
-70.0108
-69.2366
-68.2889
-67.1873
-65.9505
-64.5968
-63.1444
-61.6114
-60.0163
-58.3784
-56.7179
-55.0582
-53.4193
-51.8311
-50.3017
-48.8516
-47.4483
-46.0929
-44.6921
-43.2614
-41.7719
-40.2974
-38.8197
-37.373
-35.9706
-34.6438
-33.4092
-32.2884
-31.3568
-30.602
-30.1738
-30.0698
-30.4457
-31.207
-32.3631
-33.3433
-33.975
-33.8299
-33.4128
-32.6506
514.202
575.739
633.733
688.136
738.913
786.046
829.527
869.361
905.567
938.174
967.224
992.768
1014.87
1033.6
1049.03
1061.26
1070.38
1076.5
1079.71
1080.14
1077.91
1073.13
1065.93
1056.45
1044.81
1031.14
1015.58
998.259
979.318
958.885
937.093
914.069
889.941
864.834
838.869
812.163
784.83
756.984
728.73
700.171
671.407
642.532
613.636
584.807
556.126
527.671
499.515
471.727
444.372
417.509
391.191
365.469
340.385
315.978
292.28
269.32
247.119
225.697
205.067
185.24
166.225
148.025
130.646
114.087
98.3482
83.4276
69.3206
56.0204
43.5175
31.7999
20.8552
10.6749
1.2228
-7.52277
-15.5835
-22.9828
-29.7444
-35.8921
-41.4495
-46.4401
-50.8874
-54.8153
-58.2485
-61.2126
-63.7341
-65.8397
-67.5586
-68.9069
-69.9167
-70.6084
-71.0033
-71.1219
-70.9851
-70.6135
-70.0281
-69.2494
-68.2978
-67.1928
-65.953
-64.5966
-63.1419
-61.6069
-60.01
-58.3707
-56.7088
-55.048
-53.4084
-51.8201
-50.2912
-48.8425
-47.4412
-46.0879
-44.688
-43.2569
-41.7667
-40.2922
-38.8143
-37.3676
-35.9652
-34.6386
-33.4043
-32.2837
-31.3524
-30.598
-30.1703
-30.0674
-30.4445
-31.208
-32.3657
-33.3474
-33.9767
-33.8305
-33.4128
-32.6503
520.376
581.851
639.76
694.057
744.708
791.698
835.02
874.682
910.703
943.115
971.96
997.292
1019.17
1037.68
1052.89
1064.89
1073.79
1079.67
1082.66
1082.86
1080.4
1075.41
1068
1058.31
1046.46
1032.6
1016.86
999.361
980.25
959.657
937.713
914.547
890.285
865.053
838.972
812.159
784.728
756.792
728.455
699.823
670.992
642.057
613.11
584.235
555.514
527.026
498.842
471.033
443.661
416.786
390.462
364.738
339.656
315.255
291.567
268.619
246.434
225.029
204.418
184.612
165.618
147.441
130.084
113.548
97.8325
82.9356
68.8524
55.5763
43.0978
31.4048
20.4853
10.3288
0.900317
-7.82227
-15.8608
-23.2389
-29.9802
-36.1088
-41.648
-46.6213
-51.0522
-54.9643
-58.3825
-61.3322
-63.84
-65.9324
-67.6342
-68.9774
-69.9785
-70.6619
-71.0492
-71.1607
-71.0172
-70.6396
-70.0485
-69.2649
-68.3089
-67.2
-65.9567
-64.5974
-63.14
-61.6026
-60.0037
-58.3625
-56.6991
-55.037
-53.3964
-51.8079
-50.2795
-48.8325
-47.4333
-46.0825
-44.6834
-43.2518
-41.7607
-40.286
-38.8079
-37.3609
-35.9585
-34.6321
-33.3979
-32.2777
-31.3466
-30.5926
-30.1653
-30.0636
-30.442
-31.2079
-32.3673
-33.3486
-33.9786
-33.8311
-33.4127
-32.6499
527.342
588.758
646.581
700.768
751.287
798.124
841.276
880.75
916.568
948.765
977.385
1002.48
1024.12
1042.38
1057.33
1069.08
1077.72
1083.34
1086.08
1086.03
1083.32
1078.08
1070.43
1060.5
1048.43
1034.35
1018.4
1000.7
981.395
960.618
938.5
915.171
890.756
865.381
839.167
812.23
784.686
756.645
728.213
699.494
670.586
641.582
612.572
583.643
554.876
526.347
498.13
470.293
442.9
416.01
389.676
363.947
338.866
314.47
290.791
267.855
245.685
224.298
203.708
183.923
164.952
146.798
129.465
112.954
97.2635
82.3919
68.3345
55.0844
42.6324
30.9661
20.0745
9.94399
0.541422
-8.15593
-16.1701
-23.5248
-30.244
-36.3514
-41.8706
-46.8249
-51.2376
-55.1324
-58.5341
-61.4682
-63.9614
-66.0408
-67.7339
-69.0616
-70.0516
-70.7251
-71.1035
-71.2068
-71.0559
-70.6713
-70.074
-69.2847
-68.3237
-67.2103
-65.9631
-64.6003
-63.1399
-61.5998
-59.9985
-58.3551
-56.6898
-55.0261
-53.3843
-51.7953
-50.2675
-48.8223
-47.4257
-46.0777
-44.6797
-43.2475
-41.7555
-40.2806
-38.8021
-37.3548
-35.9524
-34.626
-33.392
-32.2719
-31.3409
-30.5872
-30.1602
-30.0598
-30.4397
-31.2084
-32.37
-33.3535
-33.9808
-33.832
-33.4128
-32.6496
535.106
596.466
654.203
708.276
758.656
805.329
848.296
887.567
923.166
955.128
983.5
1008.34
1029.71
1047.69
1062.37
1073.84
1082.19
1087.53
1089.98
1089.65
1086.66
1081.14
1073.23
1063.04
1050.71
1036.39
1020.19
1002.27
982.75
961.767
939.454
915.941
891.354
865.817
839.452
812.375
784.702
756.542
728.003
699.185
670.188
641.104
612.024
583.032
554.209
525.634
497.377
469.507
442.089
415.179
388.833
363.097
338.014
313.622
289.951
267.028
244.874
223.505
202.935
183.173
164.226
146.097
128.79
112.305
96.6411
81.7967
67.7669
54.545
42.1214
30.4841
19.623
9.52073
0.14632
-8.5235
-16.5111
-23.8403
-30.5351
-36.6195
-42.1168
-47.0502
-51.4431
-55.3189
-58.7022
-61.6189
-64.0955
-66.159
-67.8358
-69.1537
-70.1325
-70.7956
-71.1644
-71.2588
-71.0996
-70.7074
-70.1032
-69.3077
-68.3411
-67.2228
-65.9713
-64.6046
-63.1407
-61.5976
-59.9935
-58.3477
-56.6802
-55.0145
-53.3713
-51.7818
-50.2545
-48.8113
-47.4176
-46.0728
-44.676
-43.2429
-41.7497
-40.2745
-38.7955
-37.3478
-35.9453
-34.6189
-33.3849
-32.265
-31.3341
-30.5806
-30.154
-30.0549
-30.4363
-31.208
-32.3719
-33.3552
-33.9832
-33.833
-33.4129
-32.6492
543.675
604.982
662.632
716.586
766.818
813.318
856.087
895.139
930.499
962.207
990.31
1014.87
1035.95
1053.63
1068
1079.16
1087.19
1092.22
1094.36
1093.72
1090.42
1084.6
1076.39
1065.91
1053.3
1038.71
1022.25
1004.07
984.314
963.103
940.573
916.855
892.075
866.359
839.825
812.593
784.775
756.483
727.822
698.894
669.797
640.623
611.463
582.399
553.515
524.885
496.583
468.675
441.226
414.294
387.931
362.186
337.1
312.71
289.047
266.136
243.998
222.649
202.101
182.363
163.44
145.338
128.058
111.6
95.9653
81.1498
67.1495
53.9577
41.5648
29.9584
19.1307
9.05888
-0.285126
-8.92514
-16.8839
-24.1855
-30.854
-36.9134
-42.387
-47.2978
-51.6691
-55.5243
-58.8879
-61.7858
-64.2447
-66.2923
-67.9551
-69.2574
-70.2233
-70.8749
-71.233
-71.3177
-71.1494
-70.7489
-70.137
-69.3346
-68.3619
-67.2381
-65.9818
-64.6108
-63.1431
-61.5965
-59.9894
-58.3408
-56.6707
-55.0029
-53.358
-51.7678
-50.241
-48.8
-47.4095
-46.0683
-44.6729
-43.2389
-41.7444
-40.2689
-38.7893
-37.3411
-35.9384
-34.612
-33.3781
-32.2581
-31.3272
-30.5739
-30.1475
-30.0498
-30.4328
-31.2079
-32.3746
-33.3607
-33.9861
-33.8342
-33.4131
-32.649
553.059
614.314
671.875
725.704
775.78
822.094
864.652
903.468
938.572
970.004
997.815
1022.07
1042.83
1060.19
1074.22
1085.04
1092.74
1097.42
1099.21
1098.24
1094.6
1088.45
1079.91
1069.12
1056.2
1041.31
1024.56
1006.11
986.086
964.623
941.855
917.912
892.92
867.005
840.287
812.882
784.905
756.466
727.671
698.621
669.412
640.138
610.888
581.745
552.791
524.101
495.746
467.796
440.312
413.353
386.971
361.214
336.123
311.735
288.079
265.18
243.058
221.729
201.204
181.491
162.595
144.521
127.269
110.841
95.236
80.4512
66.4824
53.3227
40.9625
29.3892
18.5976
8.55853
-0.752794
-9.36069
-17.2884
-24.5602
-31.2003
-37.2327
-42.6808
-47.5673
-51.9153
-55.7481
-59.0903
-61.9676
-64.4071
-66.4361
-68.0819
-69.3704
-70.3228
-70.9619
-71.3086
-71.3827
-71.2047
-70.795
-70.1748
-69.3649
-68.3855
-67.2558
-65.9942
-64.6185
-63.1465
-61.5962
-59.9857
-58.334
-56.6611
-54.9908
-53.344
-51.7529
-50.2266
-48.788
-47.401
-46.0639
-44.67
-43.2348
-41.7388
-40.2628
-38.7825
-37.3337
-35.9308
-34.6042
-33.3703
-32.2504
-31.3194
-30.5662
-30.1399
-30.0438
-30.4285
-31.2073
-32.3769
-33.3632
-33.989
-33.8355
-33.4133
-32.6487
563.266
624.47
681.939
735.638
785.549
831.666
873.997
912.56
947.388
978.523
1006.02
1029.94
1050.36
1067.37
1081.04
1091.49
1098.81
1103.13
1104.55
1103.21
1099.2
1092.69
1083.8
1072.66
1059.41
1044.19
1027.13
1008.38
988.064
966.327
943.299
919.11
893.887
867.755
840.834
813.241
785.09
756.49
727.548
698.363
669.032
639.648
610.299
581.069
552.037
523.279
494.867
466.868
439.345
412.356
385.952
360.181
335.084
310.695
287.046
264.159
242.055
220.746
200.245
180.558
161.69
143.645
126.423
110.027
94.4532
79.7009
65.7653
52.6398
40.3144
28.776
18.024
8.0196
-1.25677
-9.83023
-17.7246
-24.9644
-31.5742
-37.5778
-42.9984
-47.8589
-52.1819
-55.9908
-59.3099
-62.1652
-64.584
-66.5941
-68.2223
-69.4942
-70.4316
-71.0573
-71.3917
-71.4544
-71.2657
-70.8462
-70.2169
-69.3989
-68.4123
-67.2761
-66.0088
-64.6279
-63.1514
-61.5969
-59.9827
-58.3276
-56.6516
-54.9785
-53.3295
-51.7374
-50.2116
-48.7756
-47.3925
-46.0599
-44.6676
-43.2312
-41.7335
-40.2571
-38.776
-37.3265
-35.9232
-34.5965
-33.3625
-32.2425
-31.3113
-30.5582
-30.132
-30.0373
-30.4237
-31.2066
-32.3796
-33.3691
-33.9923
-33.8369
-33.4137
-32.6484
574.306
635.46
692.834
746.396
796.132
842.038
884.128
922.421
956.952
987.769
1014.93
1038.5
1058.55
1075.17
1088.46
1098.51
1105.43
1109.34
1110.36
1108.64
1104.23
1097.33
1088.05
1076.54
1062.92
1047.35
1029.95
1010.87
990.247
968.213
944.903
920.448
894.974
868.607
841.466
813.669
785.328
756.554
727.451
698.119
668.656
639.152
609.695
580.369
551.252
522.42
493.944
465.892
438.325
411.301
384.873
359.085
333.98
309.591
285.948
263.074
240.986
219.699
199.223
179.563
160.725
142.71
125.521
109.157
93.6166
78.8986
64.9983
51.9089
39.6204
28.1188
17.41
7.44208
-1.797
-10.3337
-18.1924
-25.3982
-31.9755
-37.9483
-43.3397
-48.1723
-52.4687
-56.2519
-59.5463
-62.378
-64.7743
-66.7633
-68.3724
-69.6277
-70.5493
-71.1606
-71.4819
-71.5324
-71.3322
-70.9021
-70.2632
-69.4364
-68.442
-67.2989
-66.0253
-64.6389
-63.1574
-61.5985
-59.9802
-58.3214
-56.6419
-54.9658
-53.3143
-51.721
-50.1957
-48.7625
-47.3837
-46.056
-44.6655
-43.2275
-41.728
-40.251
-38.769
-37.3187
-35.915
-34.5881
-33.3539
-32.2339
-31.3024
-30.5494
-30.1231
-30.0301
-30.4183
-31.2056
-32.3822
-33.3724
-33.9959
-33.8386
-33.4141
-32.6482
586.19
647.293
704.568
757.986
807.536
853.219
895.05
933.055
967.27
997.746
1024.54
1047.73
1067.39
1083.6
1096.47
1106.1
1112.59
1116.07
1116.65
1114.5
1109.67
1102.35
1092.66
1080.75
1066.74
1050.79
1033.03
1013.59
992.633
970.279
946.665
921.923
896.179
869.559
842.181
814.163
785.617
756.655
727.378
697.889
668.282
638.648
609.074
579.643
550.434
521.522
492.977
464.866
437.251
410.189
383.732
357.926
332.811
308.421
284.784
261.922
239.853
218.588
198.138
178.507
159.699
141.717
124.561
108.231
92.7263
78.0444
64.1812
51.13
38.8807
27.4169
16.756
6.82584
-2.37354
-10.871
-18.6919
-25.8614
-32.4042
-38.3443
-43.7047
-48.5078
-52.7758
-56.5317
-59.7999
-62.6064
-64.9789
-66.9459
-68.5348
-69.7716
-70.6763
-71.2722
-71.5794
-71.6168
-71.4045
-70.963
-70.3137
-69.4776
-68.4748
-67.3243
-66.044
-64.6517
-63.1648
-61.601
-59.9784
-58.3155
-56.6323
-54.9528
-53.2986
-51.704
-50.1791
-48.749
-47.3748
-46.0525
-44.664
-43.2243
-41.7227
-40.2452
-38.7622
-37.311
-35.9068
-34.5796
-33.3452
-32.225
-31.2932
-30.54
-30.1137
-30.0223
-30.4127
-31.2045
-32.3851
-33.3787
-33.9997
-33.8403
-33.4145
-32.6479
596.048
657.133
714.349
767.672
817.091
862.611
904.25
942.035
976.006
1006.22
1032.73
1055.61
1074.95
1090.84
1103.37
1112.65
1118.79
1121.92
1122.14
1119.63
1114.44
1106.77
1096.73
1084.48
1070.14
1053.86
1035.78
1016.04
994.784
972.148
948.266
923.268
897.283
870.434
842.841
814.621
785.888
756.75
727.313
697.674
667.93
638.172
608.484
578.951
549.649
520.655
492.038
463.865
436.198
409.093
382.603
356.773
331.642
307.244
283.606
260.75
238.692
217.444
197.014
177.406
158.624
140.669
123.541
107.241
91.7672
77.1176
63.2882
50.2724
38.0604
26.6366
16.0156
6.12618
-3.03314
-11.4908
-19.2728
-26.4048
-32.9117
-38.8174
-44.1447
-48.916
-53.1532
-56.879
-60.1176
-62.8954
-65.2403
-67.1811
-68.7458
-69.9614
-70.8456
-71.4228
-71.7125
-71.7334
-71.5052
-71.0488
-70.3855
-69.5365
-68.522
-67.3607
-66.0707
-64.6693
-63.174
-61.6024
-59.9724
-58.3025
-56.6125
-54.9266
-53.2669
-51.6691
-50.1443
-48.7193
-47.3537
-46.0419
-44.6568
-43.2128
-41.7059
-40.2266
-38.7402
-37.2859
-35.8795
-34.5505
-33.3146
-32.1928
-31.2595
-30.505
-30.0789
-29.9932
-30.3942
-31.2077
-32.41
-33.4091
-34.0273
-33.8495
-33.4085
-32.6269
603.205
664.313
721.523
774.811
824.169
869.605
911.135
948.791
982.614
1012.66
1038.99
1061.67
1080.8
1096.46
1108.76
1117.8
1123.69
1126.56
1126.53
1123.75
1118.3
1110.37
1100.07
1087.55
1072.95
1056.42
1038.09
1018.11
996.621
973.758
949.657
924.45
898.264
871.223
843.449
815.057
786.161
756.87
727.289
697.517
667.649
637.775
607.981
578.35
548.959
519.884
491.194
462.957
435.233
408.081
381.551
355.689
330.534
306.12
282.474
259.615
237.561
216.32
195.902
176.309
157.544
139.608
122.501
106.223
90.7732
76.1494
62.3477
49.362
37.1825
25.7955
15.2092
5.35864
-3.76247
-12.1818
-19.9259
-27.0211
-33.4923
-39.3636
-44.6577
-49.3965
-53.6018
-57.296
-60.5031
-63.2496
-65.5642
-67.4764
-69.0154
-70.2053
-71.0657
-71.6213
-71.8907
-71.892
-71.6448
-71.1699
-70.4892
-69.6239
-68.5943
-67.4192
-66.1162
-64.7026
-63.1957
-61.613
-59.9723
-58.2918
-56.5911
-54.8947
-53.2253
-51.6213
-50.0956
-48.6787
-47.3281
-46.0357
-44.6576
-43.2054
-41.6892
-40.2069
-38.7141
-37.2536
-35.8422
-34.5084
-33.2675
-32.1399
-31.1978
-30.4359
-29.9979
-29.9179
-30.3248
-31.1878
-32.4417
-33.4914
-34.1025
-33.8984
-33.4311
-32.6257
610.617
671.752
728.957
782.212
831.51
876.859
918.28
955.804
989.474
1019.35
1045.49
1067.97
1086.88
1102.31
1114.37
1123.16
1128.79
1131.4
1131.11
1128.04
1122.33
1114.12
1103.55
1090.76
1075.89
1059.1
1040.51
1020.28
998.548
975.449
951.121
925.695
899.3
872.06
844.096
815.524
786.458
757.008
727.277
697.365
667.367
637.372
607.466
577.732
548.247
519.086
490.319
462.013
434.23
407.026
380.454
354.558
329.377
304.946
281.289
258.427
236.375
215.142
194.735
175.157
156.409
138.492
121.406
105.151
89.7256
75.1278
61.3544
48.3993
36.2535
24.9048
14.3542
4.54403
-4.53699
-12.9162
-20.6208
-27.6774
-34.1114
-39.9468
-45.2061
-49.9111
-54.0831
-57.744
-60.9178
-63.6312
-65.9134
-67.7947
-69.305
-70.4697
-71.305
-71.8378
-72.0857
-72.0661
-71.7985
-71.3039
-70.6044
-69.7216
-68.6758
-67.4856
-66.1685
-64.7415
-63.222
-61.6271
-59.9745
-58.2822
-56.5693
-54.8607
-53.1799
-51.5681
-50.0409
-48.6333
-47.301
-46.0324
-44.663
-43.1996
-41.672
-40.1867
-38.6858
-37.2174
-35.7997
-34.4594
-33.2122
-32.0761
-31.1227
-30.3491
-29.8937
-29.8175
-30.2311
-31.1573
-32.4855
-33.6019
-34.2222
-33.9767
-33.4725
-32.6438
618.288
679.451
736.654
789.876
839.113
884.375
925.685
963.074
996.588
1026.29
1052.23
1074.51
1093.19
1108.39
1120.2
1128.73
1134.1
1136.43
1135.87
1132.51
1126.52
1118.03
1107.18
1094.11
1078.97
1061.9
1043.04
1022.55
1000.57
977.221
952.657
927.004
900.392
872.945
844.783
816.023
786.78
757.163
727.276
697.218
667.083
636.962
606.939
577.097
547.513
518.262
489.413
461.035
433.188
405.93
379.312
353.379
328.171
303.721
280.053
257.186
235.136
213.91
193.514
173.951
155.22
137.323
120.258
104.025
88.6242
74.0527
60.308
47.3843
35.273
23.9641
13.4507
3.68234
-5.35674
-13.6939
-21.3572
-28.3737
-34.7689
-40.5669
-45.7901
-50.4598
-54.597
-58.223
-61.3619
-64.0403
-66.2882
-68.1369
-69.6171
-70.7556
-71.5637
-72.0726
-72.2978
-72.2561
-71.9668
-71.451
-70.7313
-69.8296
-68.7664
-67.5601
-66.2278
-64.7865
-63.2531
-61.645
-59.9793
-58.2739
-56.5474
-54.8249
-53.1306
-51.5094
-49.98
-48.5831
-47.2727
-46.0334
-44.6747
-43.196
-41.6552
-40.1669
-38.6562
-37.1786
-35.7532
-34.405
-33.1499
-32.0032
-31.0345
-30.246
-29.7649
-29.6927
-30.1069
-31.117
-32.5388
-33.7481
-34.3612
-34.0737
-33.5279
-32.6447
626.219
687.414
744.615
797.805
846.981
892.155
933.351
970.602
1003.96
1033.48
1059.22
1081.28
1099.74
1114.69
1126.24
1134.51
1139.6
1141.65
1140.82
1137.16
1130.88
1122.1
1110.95
1097.6
1082.17
1064.81
1045.68
1024.92
1002.67
979.074
954.264
928.376
901.538
873.875
845.508
816.554
787.126
757.335
727.285
697.074
666.798
636.545
606.4
576.444
546.756
517.41
488.476
460.021
432.107
404.79
378.124
352.153
326.915
302.444
278.763
255.892
233.842
212.624
192.239
172.69
153.977
136.099
119.055
102.845
87.4688
72.9241
59.2085
46.3167
34.2406
22.9732
12.4986
2.77357
-6.2217
-14.5151
-22.1353
-29.1099
-35.4648
-41.2239
-46.4096
-51.0427
-55.1435
-58.7332
-61.8352
-64.4768
-66.6885
-68.5024
-69.9506
-71.062
-71.8413
-72.3252
-72.5266
-72.4617
-72.1492
-71.6108
-70.8695
-69.9478
-68.866
-67.6424
-66.2939
-64.8371
-63.2888
-61.6663
-59.9865
-58.2667
-56.5251
-54.7868
-53.077
-51.4444
-49.9117
-48.5268
-47.2427
-46.0394
-44.6932
-43.1937
-41.6379
-40.1467
-38.6242
-37.1361
-35.7017
-34.3439
-33.08
-31.9202
-30.9328
-30.1262
-29.6097
-29.5416
-29.9492
-31.0655
-32.6051
-33.9336
-34.5628
-34.1997
-33.6048
-32.6846
634.413
695.641
752.843
806.002
855.117
900.201
941.28
978.391
1011.58
1040.92
1066.46
1088.3
1106.52
1121.22
1132.51
1140.5
1145.31
1147.07
1145.95
1141.99
1135.41
1126.32
1114.88
1101.22
1085.49
1067.85
1048.43
1027.39
1004.87
981.006
955.942
929.81
902.738
874.852
846.271
817.114
787.495
757.523
727.303
696.934
666.51
636.119
605.846
575.773
545.976
516.53
487.506
458.97
430.985
403.608
376.89
350.877
325.608
301.114
277.42
254.543
232.494
211.282
190.909
171.375
152.679
134.821
117.798
101.611
86.2594
71.7416
58.0555
45.1964
33.1562
21.9323
11.498
1.8177
-7.13185
-15.3796
-22.9549
-29.8859
-36.1989
-41.9177
-47.0644
-51.6595
-55.7227
-59.2744
-62.3379
-64.9406
-67.1139
-68.8911
-70.3055
-71.3897
-72.1379
-72.596
-72.7725
-72.683
-72.346
-71.7836
-71.0193
-70.0761
-68.9746
-67.7327
-66.3669
-64.8935
-63.3292
-61.6913
-59.9963
-58.261
-56.5028
-54.7468
-53.019
-51.3729
-49.8355
-48.4643
-47.2113
-46.0518
-44.721
-43.193
-41.6206
-40.127
-38.5904
-37.0906
-35.6458
-34.2774
-33.0028
-31.828
-30.8182
-29.9904
-29.4272
-29.3652
-29.7518
-31.0041
-32.6853
-34.1619
-34.7804
-34.3467
-33.6936
-32.6798
642.871
704.136
761.339
814.467
863.52
908.513
949.475
986.442
1019.47
1048.61
1073.95
1095.56
1113.54
1127.98
1139
1146.7
1151.23
1152.67
1151.27
1147
1140.1
1130.71
1118.95
1104.98
1088.95
1071
1051.29
1029.96
1007.15
983.017
957.69
931.305
903.991
875.873
847.072
817.704
787.886
757.727
727.331
696.797
666.219
635.685
605.279
575.082
545.171
515.622
486.503
457.883
429.823
402.381
375.609
349.553
324.25
299.732
276.023
253.139
231.092
209.886
189.524
170.005
151.326
133.488
116.487
100.323
84.9958
70.5051
56.849
44.023
32.0191
20.8412
10.4486
0.814565
-8.08729
-16.2874
-23.8159
-30.7017
-36.9712
-42.6483
-47.7547
-52.3106
-56.3347
-59.8469
-62.8701
-65.432
-67.5649
-69.3035
-70.6822
-71.766
-72.4527
-72.8844
-73.0352
-72.9199
-72.557
-71.969
-71.1803
-70.2144
-69.092
-67.8308
-66.4466
-64.9555
-63.3742
-61.7197
-60.0085
-58.2565
-56.4802
-54.7045
-52.9562
-51.2938
-49.75
-48.3939
-47.1778
-46.0719
-44.759
-43.1925
-41.6026
-40.1074
-38.5545
-37.0418
-35.5855
-34.2053
-32.9185
-31.7269
-30.6908
-29.8388
-29.2153
-29.1621
-29.5082
-30.9316
-32.7822
-34.4433
-35.0764
-34.5246
-33.8021
-32.7421
652.043
713.35
770.558
823.656
872.644
917.542
958.377
995.191
1028.04
1056.98
1082.09
1103.46
1121.17
1135.34
1146.06
1153.46
1157.68
1158.8
1157.07
1152.46
1145.23
1135.5
1123.4
1109.1
1092.73
1074.45
1054.42
1032.77
1009.66
985.225
959.611
932.95
905.371
877
847.956
818.359
788.322
757.957
727.368
696.653
665.905
635.213
604.661
574.328
544.291
514.626
485.403
456.689
428.545
401.032
374.199
348.093
322.752
298.207
274.48
251.589
229.541
208.342
187.992
168.488
149.829
132.011
115.033
98.8933
83.5925
69.1306
55.5065
42.7162
30.7507
19.625
9.27768
-0.305263
-9.1543
-17.3016
-24.7785
-31.6143
-37.8359
-43.4671
-48.5292
-53.0418
-57.023
-60.4914
-63.4696
-65.9856
-68.0728
-69.7674
-71.1026
-72.0799
-72.8066
-73.212
-73.3345
-73.1903
-72.7981
-72.1811
-71.3647
-70.3732
-69.2273
-67.9442
-66.5393
-65.0281
-63.4274
-61.7541
-60.0244
-58.2532
-56.4559
-54.6568
-52.8834
-51.2003
-49.6472
-48.3093
-47.1399
-46.1042
-44.814
-43.1927
-41.5826
-40.0861
-38.5126
-36.9846
-35.5147
-34.1208
-32.8195
-31.6084
-30.5396
-29.6585
-28.9535
-28.9117
-29.1897
-30.8408
-32.9069
-34.8062
-35.4203
-34.7513
-33.9182
-32.7237
661.984
723.341
780.559
833.627
882.55
927.348
968.051
1004.7
1037.36
1066.08
1090.96
1112.07
1129.5
1143.37
1153.78
1160.85
1164.83
1165.49
1163.38
1158.43
1150.83
1140.73
1128.27
1113.6
1096.87
1078.23
1057.85
1035.85
1012.41
987.65
961.722
934.759
906.891
878.243
848.935
819.085
788.809
758.218
727.417
696.503
665.57
634.704
603.99
573.506
543.331
513.538
484.198
455.379
427.142
399.548
372.646
346.485
321.1
296.524
272.779
249.877
227.829
206.637
186.299
166.812
148.173
130.377
113.422
97.3082
82.035
67.6035
54.0134
41.2616
29.3355
18.2706
7.9714
-1.55504
-10.3457
-18.4346
-25.8543
-32.6351
-38.8041
-44.3849
-49.3986
-53.864
-57.798
-61.2183
-64.1466
-66.6114
-68.6477
-70.2939
-71.5855
-72.5448
-73.2209
-73.5862
-73.6759
-73.4992
-73.0737
-72.4237
-71.5758
-70.5552
-69.3829
-68.0753
-66.647
-65.113
-63.4901
-61.7954
-60.0447
-58.2517
-56.4301
-54.603
-52.7987
-51.0884
-49.5213
-48.2048
-47.0958
-46.155
-44.8916
-43.1937
-41.5619
-40.067
-38.4681
-36.922
-35.4353
-34.025
-32.7063
-31.4723
-30.362
-29.4457
-28.628
-28.6024
-28.7721
-30.7244
-33.0721
-35.2912
-35.8972
-35.0308
-34.0841
-32.8227
672.255
733.663
790.891
843.93
892.785
937.479
978.046
1014.53
1046.99
1075.49
1100.12
1120.95
1138.09
1151.65
1161.72
1168.43
1171.47
1172.41
1169.93
1164.61
1156.64
1146.16
1133.32
1118.27
1101.17
1082.16
1061.4
1039.06
1015.26
990.169
963.917
936.642
908.475
879.54
849.957
819.845
789.321
758.495
727.473
696.353
665.227
634.181
603.298
572.658
542.337
512.411
482.949
454.019
425.685
398.005
371.032
344.811
319.382
294.773
271.006
248.095
226.046
204.861
184.536
165.066
146.446
128.672
111.742
95.6535
80.408
66.007
52.4513
39.7389
27.8607
16.8432
6.60171
-2.8652
-11.5945
-19.6222
-26.9823
-33.7058
-39.8201
-45.3488
-50.3125
-54.729
-58.6142
-61.9842
-64.8599
-67.2702
-69.2517
-70.8451
-72.0869
-72.9991
-73.6247
-73.9741
-74.0354
-73.8263
-73.3665
-72.6818
-71.8007
-70.7496
-69.5495
-68.2162
-66.7632
-65.2051
-63.5587
-61.8413
-60.0685
-58.2525
-56.4048
-54.5467
-52.7067
-50.9633
-49.3773
-48.0839
-47.0479
-46.2269
-44.9903
-43.1892
-41.5314
-40.0418
-38.4151
-36.8498
-35.3456
-33.9188
-32.5826
-31.3252
-30.1672
-29.2129
-28.2538
-28.2469
-28.2633
-30.5801
-33.2741
-35.891
-36.4545
-35.3878
-34.189
-32.7847
682.863
744.328
801.568
854.579
903.367
947.958
988.387
1024.7
1056.96
1085.24
1109.61
1130.17
1147.02
1160.27
1170.03
1176.44
1180.59
1179.69
1176.74
1171.02
1162.66
1151.79
1138.55
1123.11
1105.62
1086.23
1065.1
1042.38
1018.23
992.784
966.196
938.598
910.12
880.888
851.021
820.638
789.856
758.787
727.537
696.203
664.876
633.643
602.585
571.782
541.31
511.244
481.654
452.61
424.173
396.404
369.355
343.072
317.594
292.951
269.163
246.241
224.191
203.013
182.701
163.249
144.649
126.898
109.992
93.9288
78.7109
64.3402
50.8191
38.1469
26.3181
15.3486
5.16758
-4.23683
-12.902
-20.8657
-28.1636
-34.8276
-40.8855
-46.3605
-51.2727
-55.6392
-59.4744
-62.7926
-65.6136
-67.9669
-69.8914
-71.4311
-72.6268
-73.509
-74.1206
-74.4089
-74.4291
-74.1816
-73.6831
-72.96
-72.0426
-70.9587
-69.7291
-68.3686
-66.8894
-65.3055
-63.6339
-61.8925
-60.0963
-58.2561
-56.3804
-54.488
-52.607
-50.8234
-49.2118
-47.9421
-46.9951
-46.3264
-45.1247
-43.2033
-41.5115
-40.029
-38.368
-36.7795
-35.2547
-33.8096
-32.455
-31.1721
-29.9587
-28.9646
-27.8341
-27.8381
-27.6552
-30.402
-33.5245
-36.5892
-37.0889
-35.7512
-34.4086
-32.9021
693.802
755.323
812.576
865.556
914.274
958.756
999.041
1035.18
1067.23
1095.27
1119.38
1139.65
1156.19
1169.09
1178.47
1184.44
1185.67
1186.84
1183.66
1177.59
1168.85
1157.58
1143.95
1128.11
1110.21
1090.43
1068.91
1045.81
1021.29
995.488
968.553
940.622
911.825
882.286
852.125
821.461
790.412
759.092
727.605
696.05
664.516
633.089
601.85
570.877
540.248
510.036
480.313
451.148
422.604
394.741
367.613
341.265
315.737
291.058
267.246
244.314
222.264
201.093
180.795
161.361
142.782
125.054
108.171
92.1343
76.9437
62.6034
49.1169
36.4856
24.707
13.7882
3.66973
-5.66901
-14.2668
-22.1634
-29.3965
-35.9987
-41.9981
-47.4177
-52.2769
-56.592
-60.3756
-63.64
-66.4035
-68.696
-70.5588
-72.0393
-73.1808
-74.0122
-74.5412
-74.8239
-74.8205
-74.5405
-74.0049
-73.2434
-72.2893
-71.1723
-69.9131
-68.5254
-67.0197
-65.4093
-63.7116
-61.9454
-60.1256
-58.2608
-56.3561
-54.4264
-52.4991
-50.667
-49.0207
-47.7741
-46.9343
-46.4497
-45.2627
-43.1822
-41.4649
-40.004
-38.3089
-36.6971
-35.1515
-33.6889
-32.3182
-31.0087
-29.7367
-28.6977
-27.3707
-27.3612
-26.9216
-30.1754
-33.8351
-37.5954
-37.9447
-36.2504
-34.4324
-32.8413
705.092
766.674
823.943
876.896
925.545
969.919
1010.06