/*--------------------------------*- C++ -*----------------------------------*\
| =========                 |                                                 |
| \\      /  F ield         | OpenFOAM: The Open Source CFD Toolbox           |
|  \\    /   O peration     | Version:  v1912                                 |
|   \\  /    A nd           | Website:  www.openfoam.com                      |
|    \\/     M anipulation  |                                                 |
\*---------------------------------------------------------------------------*/
FoamFile
{
    version     2.0;
    format      ascii;
    class       volScalarField;
    location    "40";
    object      p;
}
// * * * * * * * * * * * * * * * * * * * * * * * * * * * * * * * * * * * * * //

dimensions      [1 -1 -2 0 0 0 0];


internalField   nonuniform List<scalar> 
14268
(
106342
106180
105972
105715
105408
105050
104639
104176
103658
103090
102470
101799
101078
100309
99494.8
98638.2
97742.4
96811.1
95848.1
94857.6
93844.2
92812.8
91768.2
90715.4
89659.1
88604
87554.9
86516
85491.4
84484.8
83499.5
82538.8
81605.7
80700.6
79825.3
78981.3
78169.5
77390.3
76643.7
75929.4
75247
74595.8
73974.7
73382.7
72818.5
72280.7
71768.2
71279.4
70812.9
70366.8
69939.8
69530.6
69137.7
68759.7
68395.3
68043.3
67702.5
67371.7
67049.8
66735.8
66428.6
66127.3
65831
65538.7
65249.6
64962.9
64677.6
64393.1
64108.4
63822.8
63536.1
63247
62954.7
62658.7
62358.4
62053.1
61742.3
61425.2
61101.3
60770
60430.6
60082.8
59725.8
59359.2
58982.5
58595.3
58197.1
57787.7
57366.8
56934.2
56489.8
56033.5
55565.4
55085.7
54594.3
54091.9
53578.7
53055
52521.4
51978.5
51426.9
50867.4
50300.7
49727.7
49149.2
48566
47979
47389.2
46797.4
46204.5
45611.2
45018.5
44427.1
43837.7
43251
42667.6
42088.1
41513
40942.5
40377
39816.6
39261.6
38712.3
38168.3
37629.2
37094.4
36562.3
36033.4
35515
35007.2
34506.2
34010.6
33519.4
33033.6
101636
101508
101333
101110
100837
100512
100136
99705.8
99220.9
98686
98099.3
97461
96772.8
96036.9
95255.7
94432.1
93569.4
92671.2
91741.3
90784.1
89804.1
88806.2
87795.3
86776.2
85753.8
84732.8
83718
82713.5
81723.4
80751.5
79801
78875.2
77977.4
77107.4
76267.3
75458.6
74682.2
73938.3
73227.1
72548.2
71901.2
71285.4
70699.6
70142.9
69614
69111.6
68634.2
68180.7
67749.3
67338.3
66946.4
66572.2
66214.3
65871.2
65541.8
65224.7
64918.7
64622.8
64335.7
64056.4
63784
63517.4
63255.8
62998.3
62743.9
62491.8
62241.2
61991.3
61741.2
61490.2
61238.2
60983.7
60725.9
60464.5
60198.8
59928.1
59651.7
59369.2
59079.9
58783.1
58478.3
58164.9
57842.5
57510.4
57168.2
56815.5
56451.9
56077
55690.6
55292.4
54882.5
54460.8
54027.2
53582
53125.1
52657.3
52178.6
51689.4
51190.4
50682
50165
49640
49107.9
48569.5
48025.6
47477
46924.6
46369.4
45812.2
45253.9
44695.3
44137.3
43580.5
43025.7
42473.6
41924.9
41380.1
40839.6
40303.8
39772.9
39247.2
38726.8
38212.1
37702.8
37198.3
36698.1
36200.7
35706.3
35222.6
34749.3
34282.9
33821.9
33365.2
32913.8
96939
96845.3
96704.9
96516
96276.7
95985.8
95642.5
95245.8
94794
94291.9
93737.8
93131.9
92476.1
91772.4
91023.4
90231.9
89401.3
88535.2
87637.6
86712.7
85765.1
84799.8
83821.7
82835.7
81846.5
80859.2
79878
78907.5
77951.6
77014
76098.1
75206.9
74344.7
73509.7
72704.8
71931.4
71190.4
70482.1
69806.5
69163.2
68551.8
67971.5
67421.4
66900.2
66406.8
65939.9
65498
65079.8
64683.7
64308
63951.3
63612.3
63289.5
62981.6
62687.2
62405.1
62134.1
61873.1
61620.9
61376.5
61138.9
60907.2
60680.3
60457.5
60237.9
60020.5
59804.6
59589.4
59374
59157.7
58940.3
58720.4
58497.3
58270.5
58039.3
57803.2
57561.5
57313.5
57058.7
56796.5
56526.2
56247.4
55959.5
55661.9
55354.3
55036.1
54707
54366.6
54014.6
53651
53275.6
52888.3
52489.3
52078.6
51656.2
51222.8
50778.6
50324
49859.5
49385.7
48903.2
48412.8
47915.2
47411.4
46902
46388
45870.3
45349.7
44827.1
44303.4
43779.4
43256
42733.8
42213.7
41696.3
41182.2
40672
40166.2
39665
39168.8
38677.7
38192
37712
37237.3
36767.4
36301.8
35839
35379.3
34930.1
34491.5
34059.7
33633.2
33211
32794
92251.3
92192.7
92087.2
91932.7
91727.5
91470.4
91159.8
90796.8
90377.8
89908
89386.1
88812.2
88188
87515.8
86798.1
86037.8
85238.4
84403.5
83537.1
82643.5
81727.5
80794
79847.8
78894
77937.4
76982.9
76034.9
75097.9
74175.9
73272.4
72390.7
71533.9
70707.6
69907.4
69137.6
68399.7
67694.3
67021.7
66381.7
65774.3
65198.7
64654.2
64139.8
63654.5
63196.8
62765.5
62359.2
61976.8
61616.2
61275.9
60954.7
60651
60363.5
60090.8
59831.6
59584.6
59348.7
59122.7
58905.5
58696
58493.4
58296.5
58104.5
57916.5
57731.7
57549.1
57368
57187.5
57006.8
56825.2
56642.5
56457.2
56268.8
56076.6
55880.1
55678.6
55471.4
55258.1
55037.8
54810.2
54574.5
54330.2
54076.8
53813.8
53540.7
53257
52962.4
52656.5
52339.1
52009.9
51669
51316.2
50951.6
50575.4
50187.5
49788.6
49378.9
48958.8
48528.8
48089.5
47641.5
47185.6
46722.6
46253.3
45778.5
45299.1
44815.9
44329.9
43841.9
43352.8
42863.5
42374.7
41887.2
41401.7
40918.9
40439.5
39964
39492.8
39026.3
38564.7
38108.2
37657.2
37211.8
36771.7
36336.5
35905.6
35477.3
35052.2
34637.7
34233.6
33836.4
33444.5
33056.8
32674.3
87573.1
87550.3
87480
87360.3
87189.4
86966.2
86689.8
86359.1
85972.7
85535
85044.7
84502.1
83908.9
83267.4
82580.2
81850.2
81081
80276.4
79440.3
78577.1
77691.6
76788.9
75873.8
74951.5
74026.7
73104.4
72189
71285
70396.4
69526.7
68679
67855.9
67066.4
66300.5
65565.9
64863.5
64193.8
63557
62953
62381.5
61841.9
61333.4
60855.1
60405.7
59984
59588.6
59218.1
58871.6
58546.7
58242
57956.4
57688.2
57436.1
57198.8
56974.9
56763.2
56562.4
56371.5
56189.4
56015
55847.3
55685.4
55528.4
55375.3
55225.3
55077.5
54931.2
54785.5
54639.6
54492.8
54344.7
54194.2
54040.4
53882.9
53721
53554.2
53381.6
53202.9
53017.3
52824.2
52623.1
52413.4
52194.5
51966.1
51727.5
51478.3
51218.2
50946.8
50663.8
50369.2
50062.7
49744.4
49414.3
49072.5
48719.1
48354.7
47979.4
47593.8
47198.2
46793.4
46379.9
45958.6
45530.1
45095.3
44655.1
44210.2
43761.6
43310.2
42856.8
42402.3
41947.6
41493.4
41040.5
40589.6
40141.5
39696.7
39255.9
38819.3
38387.5
37960.5
37538.7
37122.3
36711.6
36306.2
35905.6
35509.3
35115.7
34725.1
34345.2
33975.8
33613.1
33255.7
32902.6
32554.5
82904.5
82917.9
82883.3
82798.8
82662.5
82473.1
82229.9
81932.4
81578.3
81172.3
80713.3
80201.4
79638.5
79026.9
78369.4
77668.9
76929
76153.7
75346.9
74513.1
73657.3
72784.5
71899.7
71007.9
70114.2
69223.4
68340.1
67468.7
66613
65776.8
64963
64172.6
63421.4
62688.9
61989.5
61322.7
60688.8
60088
59520.1
58984.8
58481.4
58009.2
57567.1
57154
56768.5
56409.2
56074.7
55764.3
55475.2
55206.4
54956.5
54724
54507.5
54305.6
54117.1
53940.8
53775.3
53619.7
53472.7
53333.4
53200.8
53073.9
52951.9
52833.7
52718.7
52605.8
52494.4
52383.5
52272.4
52160.3
52047
51931.3
51812.2
51689.4
51562.2
51430
51292.1
51148
50997
50838.5
50672
50496.8
50312.6
50118.6
49914.6
49699.9
49474.3
49237.4
48988.9
48728.7
48456.7
48172.8
47877.2
47569.9
47250.9
46920.9
46580.2
46229
45867.9
45497.5
45118.5
44731.6
44337.7
43937.4
43531.7
43121.4
42707.3
42290.4
41871.6
41451.7
41031.6
40612
40193.8
39777.6
39364.1
38953.9
38547.7
38145.8
37748.6
37356.4
36969.2
36587.5
36211.3
35840.6
35474.6
35113
34754
34398
34052.7
33717.9
33389.9
33067
32748.4
32434.7
78245.6
78295.8
78297.3
78248.3
78146.7
77991.5
77781.6
77516.7
77194.9
76820.2
76391.9
75910.2
75376.9
74794.5
74165.7
73493.8
72782.3
72035.3
71256.8
70451.5
69624.4
68780.5
67925.1
67063.2
66199.9
65340
64488.2
63648.8
62825.8
62022.8
61242.8
60488.2
59768.2
59072.3
58408.5
57777.4
57179.5
56614.8
56083.2
55584.2
55117.3
54681.6
54276
53899.2
53550.1
53227.2
52929
52654.7
52401.7
52169
51955
51758.3
51577.5
51411.3
51258.4
51117.5
50987.4
50867.1
50755.4
50651.3
50553.8
50462
50375
50291.9
50211.8
50133.9
50057.4
49981.4
49905.2
49827.9
49749.4
49668.4
49584.1
49496
49403.5
49306
49202.8
49093.3
48976.9
48853.1
48721.2
48580.6
48430.9
48271.5
48102
47921.9
47730.7
47528.3
47314.3
47088.6
46851
46601.6
46340.4
46067.5
45783
45487.4
45181.1
44864.3
44537.7
44201.7
43857.2
43504.8
43145.3
42779.6
42408.3
42032.6
41653.1
41270.7
40886.5
40501.2
40115.7
39730.7
39347.1
38965.5
38586.6
38211.1
37839.6
37472.3
37109.8
36752.2
36399.7
36052.6
35711.1
35375
35043.7
34716.7
34392.3
34070.9
33760.3
33460.1
33166.6
32878.3
32594.1
32315
73596.5
73684
73722.2
73708.9
73642.4
73521.2
73344.7
73112.3
72822.5
72478.8
72080.7
71628.5
71124.1
70570.1
69969.3
69325
68640.9
67921.2
67170.1
66392.2
65592.8
64777
63950.1
63117.2
62283.5
61453.9
60633
59825.2
59034.5
58264.4
57518.1
56798.3
56110.9
55450.9
54822.7
54227.5
53665.6
53137.3
52642.1
52179.8
51749.5
51350.5
50981.6
50641.5
50329
50042.6
49781
49543
49326.4
49129.8
48951.9
48791.1
48646.2
48515.8
48398.6
48293.2
48198.7
48113.8
48037.4
47968.6
47906.4
47849.8
47797.9
47749.8
47704.8
47661.9
47620.3
47579.3
47537.9
47495.6
47451.9
47405.7
47356.1
47302.8
47245
47182.2
47113.7
47038.9
46957.2
46868
46770.7
46664.7
46549.6
46424.8
46289.8
46144.2
45987.6
45819.6
45640.1
45448.8
45245.6
45030.7
44803.9
44565.4
44315.3
44054.1
43782.2
43499.8
43207.6
42906.1
42596
42278.1
41953.1
41621.8
41285.1
40943.8
40598.8
40251
39901.4
39550.6
39199.7
38849.4
38500.3
38153.4
37809.1
37468.3
37131.4
36798.8
36470.9
36148
35830.1
35517.7
35210.9
34909.4
34612.8
34320.4
34030.6
33743.8
33467.8
33202.2
32943.3
32689.6
32439.9
32195.2
68957.2
69082.6
69157.9
69180.8
69149.5
69062.5
68919.2
68719.1
68461.5
68148.3
67779.8
67356.4
66880.2
66353.7
65780
65162.4
64504.8
63811.3
63086.5
62335.1
61562.4
60773.7
59974.5
59169.8
58365
57565
56774.5
55997.9
55239.1
54501.7
53788.8
53103.3
52449.2
51824.7
51232.1
50672.9
50147.3
49655.4
49197
48771.4
48378
48015.9
47683.9
47380.8
47105.1
46855.5
46630.6
46429.2
46249
46088.8
45947.2
45822.6
45713.7
45619.2
45537.7
45468.1
45409.2
45359.8
45318.9
45285.4
45258.5
45237.1
45220.4
45207.5
45197.6
45189.7
45183.2
45177.1
45170.7
45163.2
45154.4
45143
45128.3
45109.8
45086.8
45058.7
45024.9
44984.8
44937.7
44883.2
44820.5
44749.2
44668.6
44578.4
44477.9
44366.8
44244.7
44111.2
43966.2
43809.3
43640.6
43460
43267.6
43063.5
42847.8
42621.1
42383.5
42135.6
41877.7
41610.7
41335
41051.5
40760.9
40464.1
40161.8
39855.1
39544.6
39231.4
38916.2
38600.1
38283.7
37968
37653.6
37341.2
37031.6
36725.4
36423.2
36125.3
35832
35543.7
35260.5
34982.8
34710.6
34443.8
34181.8
33924.1
33668.9
33416.7
33175.3
32944.3
32720
32500.9
32285.7
32075.4
64327.9
64491.9
64604.7
64664.1
64668.2
64615.6
64505.3
64337.2
64112
63828.7
63489.3
63094.1
62645.2
62145.5
61597.9
61006
60373.8
59705.7
59006.1
58280.2
57533.2
56770.7
55998.2
55220.9
54444.3
53673.3
52912.6
52166.6
51439.3
50734.4
50054.8
49403.1
48782.9
48193.6
47636.8
47113.6
46624.4
46169.2
45747.6
45359.1
45002.9
44677.9
44383.1
44117
43878.4
43665.8
43477.9
43313.3
43169.8
43046.1
42940.9
42852.6
42779.9
42721.4
42675.9
42642.1
42618.8
42605
42599.7
42601.7
42610.1
42624
42642.6
42664.9
42690.1
42717.4
42745.9
42774.9
42803.5
42830.9
42857
42880.5
42900.6
42916.9
42928.7
42935.4
42936.3
42930.9
42918.6
42898.7
42870.6
42833.9
42788
42732.3
42666.4
42589.8
42502.2
42403.2
42292.6
42170.2
42035.9
41889.7
41731.7
41562
41380.6
41188.2
40985.1
40771.5
40548
40315.3
40074.1
39825
39568.8
39306.4
39038.7
38766.4
38490.4
38211.7
37931.1
37649.5
37367.8
37086.6
36806.8
36529.1
36254.1
35982.6
35715
35451.7
35193.1
34939.5
34691
34447.8
34210.3
33978.2
33750.9
33527.8
33307.2
33089.6
32882.8
32686.4
32496.7
32312.1
32131.5
31955.7
59708.8
59911.9
60062.8
60159.1
60198.9
60180.6
60103.3
59966.3
59774.5
59520.3
59209.2
58841.5
58419.3
57945.5
57423.1
56856
56248.1
55604.2
54928.9
54227.2
53505
52767.7
52021
51270.4
50521.2
49778.4
49047
48331.3
47635.2
46962.4
46315.8
45697.9
45111.6
44557.6
44036.5
43549.6
43096.9
42678.6
42294.1
41942.9
41624
41336.4
41079
40850.3
40649
40473.6
40322.9
40195.3
40088.6
40001.7
39933
39881.2
39844.8
39822.5
39813
39815.1
39827.7
39849.6
39879.9
39917.4
39961.3
40010.6
40064.5
40122
40182.5
40244.9
40308.6
40372.6
40436.2
40498.7
40559.7
40618.1
40673.1
40724.2
40770.8
40812.3
40848
40877.3
40899.7
40914.4
40921.1
40919
40907.7
40886.6
40855.3
40813.2
40760.1
40695.6
40619.4
40531.4
40431.4
40319.7
40196
40060.7
39913.7
39755.6
39586.8
39407.6
39218.5
39020.1
38813.3
38598.5
38376.8
38148.9
37915.5
37677.7
37436.3
37192
36946
36699
36451.8
36205.2
35960
35716.9
35476.6
35239.7
35006.7
34778.1
34554.2
34335.2
34121.3
33912.9
33710
33512.6
33319.9
33131.5
32945.4
32762.4
32590.3
32428.6
32273.4
32123.4
31977.3
31835.9
55099.8
55342.7
55532.2
55665.8
55741.4
55757.5
55713
55605.8
55449.9
55223
54939.7
54598.9
54202.5
53753.7
53255.6
52712.1
52127.6
51506.8
50854.6
50176.3
49477.7
48764.6
48042.9
47318
46595.4
45880.4
45177.7
44491.7
43826.5
43185.5
42571.8
41987.5
41435.4
40916.6
40431.4
39980.7
39564.8
39183.6
38836.4
38522.6
38241.4
37991.5
37771.6
37580.6
37416.8
37278.7
37165.7
37075.2
37005.5
36955.5
36923.6
36908.4
36908.4
36922.4
36949.1
36987.3
37035.8
37093.5
37159.4
37232.6
37312
37396.7
37486
37578.9
37674.6
37772.3
37871.1
37970.3
38069
38166.5
38262.5
38355.8
38445.7
38531.7
38613.1
38689.4
38759.9
38824
38881.1
38930.5
38971.9
39004.4
39027.7
39041.2
39044.4
39036.9
39018.3
38988.2
38946.5
38892.9
38827.3
38749.9
38660.7
38559.6
38447
38323.3
38188.8
38043.9
37889.1
37725.1
37552.6
37372.2
37184.9
36991.4
36792.5
36589.1
36382.1
36172.4
35960.9
35748.4
35535.8
35323.8
35113.2
34904.7
34699
34496.7
34298.4
34104.5
33915.2
33730.9
33551.7
33377.9
33209.7
33047
32888.9
32735.1
32583.7
32435.3
32297.7
32170.7
32050.2
31934.7
31823.1
31716.1
50501.4
50784.7
51013.3
51184.6
51296.5
51347.5
51337.1
51259.7
51134.9
50937
50681
50366.3
49995.1
49570.2
49095.4
48574.6
48012.4
47413.6
46783.3
46127.2
45451.2
44761.3
44063.6
43363.6
42667
41978.9
41304.4
40647.8
40013.1
39403.7
38822.6
38271.9
37754.1
37270.4
36821.2
36407
36028.1
35684.1
35374.5
35098.4
34855
34643
34461.1
34307.8
34181.8
34081.3
34006.2
33953
33920.6
33907.6
33912.6
33934.1
33970.8
34021.2
34084.2
34158.5
34243.1
34336.7
34438.4
34547.3
34662.3
34782.5
34907.2
35035.5
35166.6
35299.5
35433.6
35567.9
35701.7
35834.3
35965.3
36093.6
36218.5
36339.3
36455.7
36566.8
36672
36770.9
36862.7
36946.9
37023
37090.2
37148.1
37196.2
37234
37261
37276.8
37281.3
37273.9
37254.7
37223.5
37180.5
37125.6
37058.9
36980.6
36891.1
36791
36680.4
36559.9
36430.2
36292
36146
35993.1
35833.9
35669.5
35500.5
35328
35152.8
34975.8
34797.8
34619.8
34442.4
34266.4
34092.5
33921.4
33753.8
33590.1
33430.8
33276.3
33126.6
32982.1
32842.9
32709.4
32581.3
32457.9
32338.8
32222
32108.1
32005.2
31912.8
31826.9
31745.9
31668.9
31596.4
45913.3
46237.7
46506
46715.4
46863.6
46949
46969.5
46927.2
46829
46661.7
46433
46143.8
45796.8
45395.1
44942.5
44443.3
43902.2
43324.3
42714.9
42079.8
41425.3
40757.6
40082.9
39406.9
38735.5
38073.8
37427
36799.3
36194.7
35616.7
35068.1
34550.9
34067.5
33618.9
33205.9
32828.4
32486.6
32180.1
31908.3
31670.2
31464.9
31291
31147.3
31032.1
30944
30881.2
30844.5
30828.6
30833.7
30858
30900.1
30958.5
31031.9
31118.9
31218.3
31328.9
31449.6
31579.2
31716.8
31861.4
32012.1
32167.9
32328.2
32491.9
32658.4
32826.6
32996
33165.5
33334.5
33502.1
33668.2
33831.6
33991.4
34147.2
34298.4
34444.3
34584.4
34718.1
34844.7
34963.6
35074.4
35176.3
35268.8
35351.5
35423.9
35485.4
35535.8
35574.6
35601.7
35616.9
35620.1
35611.4
35590.8
35558.4
35514.4
35459.2
35393.3
35317
35230.9
35135.5
35031.6
34920
34801.3
34676.6
34546.5
34412
34273.9
34133.2
33990.7
33847.3
33703.8
33560.9
33419.5
33280.2
33143.8
33010.8
32881.8
32757.2
32637.3
32522.3
32412.4
32307.9
32209.1
32115.7
32026.9
31942.5
31860.2
31780.9
31712.7
31654.9
31603.6
31557.2
31514.7
31476.6
42384.7
42732.8
43023.6
43254.2
43422.2
43526
43566.3
43537.8
43452.2
43298.3
43081.1
42802
42464
42070.3
41625
41132.3
40597.3
40025.1
39421.4
38792.1
38143.8
37482.9
36815.6
36147.9
35485.8
34834.4
34198.9
33583.8
32992.9
32429.6
31896.6
31396.1
30930
30499.4
30105.6
29747.5
29425.6
29139.4
28888.2
28670.9
28486.5
28333.6
28210.8
28116.5
28049.3
28007.3
27991.4
27996.1
28021.5
28066.1
28128.4
28206.8
28300
28406.6
28525.6
28655.6
28795.5
28944.3
29100.9
29264.5
29434
29608.6
29787.6
29970
30155
30341.9
30529.7
30717.7
30905.1
31091.1
31275.5
31457.1
31635.1
31809.1
31978.4
32142.5
32300.7
32452.4
32597
32734
32862.6
32982.5
33092.9
33193.4
33283.6
33362.8
33430.9
33487.4
33532.1
33564.8
33585.4
33594.3
33591.1
33576.1
33549.4
33511.7
33463.1
33404.1
33335.3
33257.2
33170.7
33076.3
32975.1
32867.7
32755
32638
32517.4
32394.1
32269.2
32143.3
32017.4
31892.3
31768.5
31647
31528.2
31413
31301.8
31195
31093
30995.8
30903.8
30817.2
30736.3
30660.8
30590
30523.5
30458.8
30397.1
30346.9
30307.1
30273.7
30245.2
30220.4
30200.1
39907.8
40261.6
40557.3
40791.8
40962.7
41068.2
41107.1
41080.1
40992.8
40837.1
40616.7
40333.2
39989.8
39589.9
39137.6
38637.4
38094.3
37513.8
36901.6
36263.8
35607.1
34938.2
34263.4
33588.9
32920.5
32263.7
31623.7
31004.8
30411.1
29845.9
29311.8
28811
28345.1
27915.4
27523.4
27167.4
26848
26564.7
26316.6
26102.6
25921.6
25772.3
25653.1
25562.4
25498.8
25460.5
25447.9
25456
25484.7
25532.5
25597.8
25679.1
25775.1
25884.4
26005.9
26138.4
26280.7
26431.7
26590.5
26756.1
26927.7
27104.3
27285.1
27469.4
27656.2
27844.9
28034.4
28224.1
28413.1
28600.7
28786.7
28969.8
29149.3
29324.8
29495.5
29661
29820.5
29973.6
30119.5
30257.7
30387.6
30508.7
30620.3
30721.9
30813.1
30893.4
30962.4
31019.8
31065.3
31098.9
31120.1
31129.6
31127
31112.5
31086.4
31049.1
31000.9
30942.4
30873.9
30796.2
30710
30616
30515.1
30408.1
30295.9
30179.3
30059.1
29936.4
29812
29686.8
29561.5
29437.1
29314.1
29193.3
29075.4
28961
28850.8
28745
28644
28547.8
28456.9
28371.3
28291.6
28217.4
28147.7
28082.5
28018.5
27957.1
27908
27869.8
27837.9
27810.5
27786.8
27767.6
37434.1
37793.9
38094.8
38333.5
38507.5
38615
38655.7
38627.7
38538.6
38380.6
38156.6
37868.5
37519.4
37112.9
36653.3
36145.2
35593.7
35004.4
34383.1
33736.4
33070.9
32393.5
31710.7
31028.8
30353.9
29691.4
29046.4
28423.6
27826.9
27259.6
26724.3
26223.1
25757.3
25328.9
24938.5
24584.6
24267.8
23987.4
23742.5
23532
23354.6
23209
23093.4
23006.4
22946.5
22912.1
22902.9
22914.6
22946.7
22997.7
23066.1
23150.5
23249.3
23361.4
23485.6
23620.6
23765.3
23918.6
24079.6
24247.4
24421
24599.6
24782.3
24968.5
25157.3
25347.7
25539
25730.5
25921.2
26110.4
26298
26482.7
26663.7
26840.6
27012.8
27179.7
27340.7
27495.1
27642.4
27781.9
27913.1
28035.4
28148.2
28251
28343.3
28424.6
28494.6
28552.9
28599.3
28633.6
28655.4
28665.7
28663.6
28649.6
28624.1
28587.2
28539.4
28481.2
28413
28335.6
28249.7
28156.1
28055.5
27948.8
27836.9
27720.7
27601
27478.7
27354.8
27230.1
27105.5
26981.7
26859.4
26739.4
26622.3
26508.8
26399.5
26294.7
26194.7
26099.6
26009.6
25925.1
25846.5
25773.6
25705.2
25641.5
25577.8
25516.5
25468.7
25432.1
25401.7
25375.6
25352.9
25335
34963.6
35329.7
35636
35879.1
36056.3
36165.7
36207
36178.9
36088.4
35928.1
35700.4
35407.4
35052.4
34639
34171.7
33655.2
33094.9
32496.3
31865.6
31209.3
30534.5
29848.2
29157
28467.5
27785.6
27117
26467
25840
25240.2
24670.6
24134
23632.3
23166.8
22739.5
22350.8
21999.1
21685
21407.7
21166.1
20959.2
20785.5
20643.6
20531.9
20448.7
20392.5
20362.3
20356.5
20371.8
20407.4
20461.8
20533.4
20620.8
20722.7
20837.6
20964.5
21102
21249.2
21405
21568.3
21738.2
21913.9
22094.5
22279.3
22467.4
22658.1
22850.4
23043.6
23236.8
23429.2
23620.2
23809.4
23995.7
24178.3
24356.7
24530.5
24698.8
24861.2
25017.1
25165.7
25306.6
25439.1
25562.7
25676.8
25780.8
25874.2
25956.6
26027.5
26086.8
26134
26169.1
26191.4
26202.5
26201
26187.5
26162.5
26126
26078.6
26020.6
25952.8
25875.6
25790
25696.6
25596.3
25489.9
25378.3
25262.3
25143
25021.1
24897.6
24773.5
24649.4
24526.2
24404.6
24285.2
24168.9
24056.2
23947.8
23844
23745
23650.9
23562
23478.5
23401.1
23329.6
23262.4
23200.3
23136.7
23075.2
23028.7
22993.9
22965.3
22940.3
22918.8
22902.1
32496.5
32869.2
33181.1
33428.8
33609.3
33720.5
33760.3
33734.2
33642.4
33479.6
33248.1
32950
32588.7
32168.2
31692.8
31167.7
30598
29989.8
29349.1
28682.9
27998.3
27302.6
26602.7
25905
25215.9
24540.9
23885.4
23254.1
22650.9
22079
21541
21038.7
20573.5
20147.5
19760.2
19410.9
19099.6
18825.3
18587.2
18383.9
18214
18076.1
17968.3
17889
17836.5
17810.3
17808.6
17827.6
17866.8
17924.7
17999.7
18090.3
18195.1
18313
18442.6
18582.9
18732.6
18890.8
19056.4
19228.5
19406.4
19589.1
19776
19966.1
20158.7
20353
20548
20743.1
20937.3
21130
21320.9
21508.8
21693
21873.1
22048.3
22218.2
22382.1
22539.4
22689.5
22831.8
22965.7
23090.6
23206
23311.2
23405.8
23489.3
23561.2
23621.4
23669.5
23705.5
23730
23740.2
23739.1
23726.1
23701.6
23665.4
23618.4
23560.7
23493.1
23416.2
23330.7
23237.5
23137.4
23031.2
22919.8
22804.2
22685.1
22563.6
22440.5
22316.8
22193.2
22070.6
21949.6
21830.9
21715.3
21603.4
21495.9
21393
21295.1
21202
21114
21031.5
20955.3
20885.3
20819.5
20759.1
20695.3
20633.1
20588.2
20555.3
20528.6
20504.9
20484.3
20469
30032.5
30412.2
30730
30982.6
31166.8
31280.2
31325.3
31295.3
31201.7
31035.9
30800.3
30496.7
30128.9
29700.8
29216.9
28682.6
28103.2
27484.7
26833.6
26156.9
25462
24756.5
24047.3
23341.1
22644.3
21962.6
21301.5
20665.6
20058.9
19484.5
18945
18442.2
17977.3
17552.6
17166.8
16820.1
16511.5
16240.5
16006
15806.5
15640.6
15506.6
15403
15327.6
15279.2
15258.3
15259.4
15282.2
15325
15386.4
15464.8
15558.7
15666.7
15787.5
15920
16063
16215.4
16376
16544
16718.5
16898.5
17083.4
17272.3
17464.5
17659.2
17855.4
18052.4
18249.4
18445.4
18639.9
18832.5
19022.1
19208
19389.6
19566.5
19737.9
19903.4
20062.2
20213.7
20357.4
20492.8
20619
20735.7
20842.2
20938
21022.6
21095.6
21156.7
21205.7
21242.4
21266.4
21278.5
21278
21265.4
21241.4
21205.6
21158.8
21101.4
21034
20957.2
20871.9
20778.8
20678.8
20572.8
20461.7
20346.2
20227.4
20106.1
19983.4
19860.1
19737
19614.8
19494.4
19376.4
19261.4
19150.3
19043.6
18941.7
18844.8
18752.7
18665.6
18584.2
18509.2
18440.7
18376.2
18317.9
18253.4
18189.9
18146.8
18116
18091.6
18069.1
18049.7
18035.8
27572
27958.8
28282.8
28540.4
28728.3
28843.5
28881.1
28857.7
28763.4
28595.1
28355.3
28046.3
27671.8
27235.8
26743.3
26199.5
25610
24980.9
24318.8
23631.1
22925.6
22209.8
21490.9
20775.8
20071
19382.4
18715.3
18074.7
17464.3
16887.3
16346.2
15842.7
15378.2
14954.8
14570.3
14226.2
13920.6
13652.9
13422
13226.4
13064.6
12934.8
12835.4
12764
12719.5
12701.9
12708.7
12735.3
12781.9
12847
12929
13026.2
13137.4
13261.3
13396.7
13542.5
13697.5
13860.7
14031.2
14208
14390.3
14577.4
14768.5
14962.8
15159.5
15357.7
15556.7
15755.6
15953.5
16149.9
16344.2
16535.6
16723.1
16906.4
17084.9
17257.9
17425
17585.3
17738.4
17883.6
18020.4
18148.1
18266.1
18373.9
18470.9
18556.7
18630.8
18692.9
18742.8
18780.4
18805.8
18818
18817.7
18805.4
18782
18746.5
18699.9
18642.7
18575.4
18498.8
18413.5
18320.6
18220.7
18114.8
18003.7
17888.4
17769.7
17648.7
17526.3
17403.3
17280.6
17159
17039.1
16921.6
16807.3
16696.9
16591
16490.1
16394.2
16303
16216.9
16136.4
16062.7
15995.8
15932.9
15877
15811.4
15746.8
15705
15676.8
15654.5
15633.2
15614.6
15602.1
24989.3
25383.6
25714
25976.8
26168.5
26285.8
26329.9
26301.2
26204.3
26032
25787
25471.2
25088.7
24643.5
24140.7
23585.8
22984.5
22342.9
21668
20967.6
20249.5
19521.6
18791.4
18065.8
17351.7
16654.7
15980.5
15334
14719.2
14138.7
13595.5
13090.8
12626.4
12203.7
11820.7
11479
11176
10911.4
10683.9
10492.1
10334.1
10208.3
10112.9
10045.4
10005.5
9993.31
10002.9
10032.1
10082.2
10150.8
10236.1
10336.4
10450.5
10577.2
10715.3
10863.5
11020.9
11186.3
11358.9
11537.7
11722
11910.9
12103.8
12299.9
12498.4
12698.3
12898.9
13099.4
13298.8
13496.6
13692.3
13885
14073.8
14258.4
14438.1
14612.4
14780.6
14942.1
15096.3
15242.6
15380.4
15509.1
15628.1
15736.8
15834.6
15921.1
15995.8
16058.4
16108.7
16146.5
16171.6
16183.4
16184.2
16171.9
16148.5
16112.7
16065.9
16008.3
15940.6
15863.4
15777.7
15684.2
15583.8
15477.4
15365.9
15250.1
15131
15009.6
14886.8
14763.6
14640.8
14519.1
14399.1
14281.6
14167.4
14057.2
13951.7
13851.2
13755.8
13665.2
13579.4
13499.3
13426.4
13360.8
13298.9
13245.2
13176.8
13108.1
13069.8
13043.3
13024
13003.6
12985.6
12974.4
22285.5
22687.4
23024.3
23292.3
23487.7
23606.4
23644.4
23620
23520.7
23344
23092.7
22769.1
22377.2
21921.3
21406.5
20838.9
20224.1
19568.3
18879
18164.2
17432.1
16690.8
15947.9
15210.6
14485.7
13779.2
13096.7
12443.4
11823.2
11238.4
10692.3
10185.5
9720.44
9297.42
8915.83
8575.19
8274.36
8012.38
7788.04
7599.88
7445.63
7323.93
7232.59
7168.68
7133.84
7122.25
7134.44
7171.23
7225.63
7297.73
7386.09
7489.26
7606.05
7735.25
7875.66
8026.1
8185.58
8352.93
8527.29
8707.78
8893.6
9084.02
9278.3
9475.6
9675.46
9876.66
10078.6
10280.4
10481
10680
10876.7
11070.3
11260.1
11445.6
11626.2
11801.3
11970.4
12132.6
12287.6
12434.6
12573.1
12702.5
12822.1
12931.3
13029.5
13116.3
13191.2
13253.9
13304.2
13342
13367.2
13380.8
13378.8
13365.5
13341.1
13304.6
13256.9
13198.4
13129.6
13051.4
12964.5
12869.9
12768.4
12660.8
12548.2
12431.3
12311.2
12188.8
12065.1
11941.1
11817.5
11695.2
11574.6
11456.6
11341.9
11231.3
11125.6
11025.2
10929.9
10839.3
10753.3
10673.1
10600.5
10535.9
10475.1
10424.3
10353
10280.8
10241
10219
10200.8
10180.2
10162.1
10151.5
19586.2
19996.2
20340
20613.4
20812.8
20933.4
20960.2
20944.7
20842.5
20661.3
20403.7
20072
19670.4
19203.4
18676.5
18096
17467.6
16797.5
16093.4
15363.6
14616.8
13861.2
13104.7
12354.6
11618.3
10901.3
10209.6
9548.68
8922.31
8333.13
7783.96
7275.69
6810.64
6388.67
6009.6
5671.04
5373.82
5115.36
4894.63
4709.48
4559.27
4441.64
4354.34
4294.45
4263.84
4255.32
4279.04
4314.17
4369.7
4443.67
4534.64
4640.67
4760.06
4891.75
5034.72
5187.7
5349.41
5518.81
5695.02
5877.24
6064.69
6256.66
6452.43
6651.09
6852.33
7055.08
7258.42
7461.43
7663.19
7863.29
8060.93
8255.49
8446.27
8632.63
8814.09
8990.04
9160.01
9323.16
9478.9
9626.7
9766
9896.11
10016.4
10126.1
10224.8
10311.9
10387
10449.9
10500.1
10537.6
10562.2
10571.5
10572.2
10559.3
10534.3
10497.3
10448.7
10389.2
10319.4
10239.9
10151.9
10056
9953.28
9844.57
9730.77
9612.72
9491.44
9367.96
9243.27
9118.32
8993.96
8870.89
8749.7
8631.01
8515.66
8404.61
8298.71
8198.34
8103.15
8012.48
7926.26
7845.68
7773.37
7709.92
7650.19
7602.68
7524.81
7445.99
7411.11
7390.98
7376.7
7356.55
7338.46
7328.85
16890.6
17309.3
17660.5
17939.9
18143.9
18267.7
18302.8
18279.7
18172.9
17986.6
17722.5
17382.4
16971
16492.5
15952.8
15358.6
14715.4
14029.4
13308.5
12562.7
11799.9
11028.8
10257.9
9494.27
8746.14
8018.71
7318.58
6651.47
6021.18
5429.79
4879.66
4372.55
3913.95
3502.99
3138.35
2820.09
2547.87
2319.37
2132.41
1982.75
1867
1780.79
1720.13
1681.21
1662.19
1660.66
1676.91
1710.12
1759
1822.98
1900.97
1991.86
2094.73
2208.55
2332.69
2466.53
2609.49
2761.15
2921.06
3088.81
3263.99
3446.22
3635.1
3830.02
4030.16
4234.02
4438.47
4642.94
4846.05
5047.6
5246.51
5442.35
5634.44
5821.92
6004.43
6181.47
6352.45
6516.42
6672.87
6821.35
6961.3
7092.03
7212.86
7323.11
7422.19
7509.6
7584.93
7647.85
7698.11
7735.6
7760.24
7774.77
7770.57
7755.9
7729.57
7691.42
7641.74
7581.03
7509.95
7429.27
7339.9
7242.76
7138.74
7028.76
6913.72
6794.42
6671.93
6547.3
6421.55
6295.65
6170.46
6046.67
5924.82
5805.49
5689.55
5578.04
5471.94
5371.68
5276.7
5186.11
5099.41
5018.55
4946.71
4884.45
4826.01
4782.72
4702.37
4620.26
4583.65
4567.61
4553.78
4532.76
4514.35
4505.89
14199
14626.7
14985.6
15271.3
15480.2
15607.8
15589.9
15618.2
15506.4
15315.2
15044.1
14695.1
14273.1
13782.2
13228.8
12620
11961.4
11258.9
10521.1
9758.89
8980.02
8193.61
7408.75
6632.94
5875.09
5140.32
4437.45
3775.09
3161.58
2606.08
2123.38
1728.52
1413.65
1149.16
929.519
751.18
610.214
502.14
422.341
365.366
325.838
299.127
281.832
271.722
267.342
268.221
274.311
286.779
305.672
331.006
362.539
399.983
443.329
492.571
547.837
609.273
677.063
751.596
833.372
923.018
1021.35
1129.38
1248.19
1378.87
1522.35
1678.69
1843.99
2013.17
2184.43
2357.13
2530.49
2704.31
2877.28
3049.04
3219.19
3387.03
3551.24
3711.05
3865.94
4014.83
4155.85
4287.62
4409.41
4520.49
4620.27
4708.25
4784
4847.16
4897.51
4934.86
4958.97
4966.42
4966.44
4952.48
4925.91
4887.43
4837.21
4775.85
4704.04
4622.51
4532.21
4434.2
4329.43
4218.8
4103.21
3983.46
3860.73
3736.12
3610.7
3485.49
3361.42
3239.12
3119.1
3001.94
2888.61
2780.46
2678.78
2584.42
2497.13
2416.32
2341.81
2272.74
2211.14
2157.42
2109.35
2079.35
2010.34
1916.53
1877.12
1861.07
1834.5
1811.91
1789.31
1777.38
11511.9
11949
12316.1
12608.4
12823
12959.9
13095.7
12969.2
12845.8
12649.2
12370.9
12012.4
11579.5
11075.8
10508.1
9884.46
9210.36
8491.83
7737.69
6959.43
6165.22
5365.34
4571.39
3794.37
3053.37
2371.65
1793.32
1333.94
948.971
639.608
414.856
277.267
194.03
131.999
86.5335
54.546
33.493
20.9574
14.5936
12.0271
11.4008
11.3822
11.4492
11.506
11.539
11.5792
11.6855
12.0192
12.61
13.4969
14.7333
16.4032
18.6376
21.5454
25.3751
30.3597
36.7426
44.9755
55.584
69.2223
86.7062
109.089
137.662
173.829
219.099
274.876
340.195
410.267
484.028
561.266
641.884
725.944
813.356
904.318
998.676
1096.43
1197.25
1300.79
1406.43
1513.25
1619.2
1722.29
1820.04
1910.58
1992.6
2065.44
2128.51
2181.33
2223.58
2255.03
2275.51
2286.85
2282.21
2269.1
2244.85
2211.24
2167.57
2114.93
2054.3
1986.79
1913.69
1836.42
1756.3
1674.68
1592.49
1509.14
1424.87
1340.51
1256.83
1174.6
1094.45
1016.82
941.956
870.228
802.311
739.236
681.811
630.661
585.735
546.439
511.252
479.312
450.542
425.269
402.568
391.413
362.615
314.441
292.016
283.57
263.093
250.96
237.589
229.519
8829.38
9276.19
9651.49
9950.46
10170.1
10309.8
10357.3
10318.4
10191
9989.72
9704.59
9336.42
8892.51
8375.67
7793.63
7155.38
6466.44
5732.27
4963.03
4175.04
3383.32
2616.31
1926.77
1367.2
899.025
528.815
295.238
172.047
86.5258
32.0604
5.545
0.678746
0.279466
0.197117
0.174543
0.157473
0.16482
0.237786
0.356931
0.406935
0.26266
0.0815662
-0.0570442
-0.182038
-0.302979
-0.422408
-0.534227
-0.650348
-0.768329
-0.890474
-1.01067
-1.12542
-1.21795
-1.28947
-1.32135
-1.30375
-1.25713
-1.16221
-1.00164
-0.762095
-0.432236
0.0313278
0.695288
1.61783
2.87357
4.56604
6.82667
9.82192
13.7363
18.7982
25.328
33.6283
44.0209
56.9212
72.6779
91.6166
114.03
140.109
169.896
203.224
239.66
278.147
316.461
353.052
386.839
417.361
444.191
466.945
485.335
499.159
508.233
512.383
511.455
504.933
493.25
476.826
456.123
431.814
404.723
375.821
346.202
317.017
289.124
262.984
238.651
215.138
192.203
170.04
148.853
128.842
110.164
92.8957
77.067