/*--------------------------------*- C++ -*----------------------------------*\
| =========                 |                                                 |
| \\      /  F ield         | OpenFOAM: The Open Source CFD Toolbox           |
|  \\    /   O peration     | Version:  v1912                                 |
|   \\  /    A nd           | Website:  www.openfoam.com                      |
|    \\/     M anipulation  |                                                 |
\*---------------------------------------------------------------------------*/
FoamFile
{
    version     2.0;
    format      ascii;
    class       surfaceScalarField;
    location    "40";
    object      phi;
}
// * * * * * * * * * * * * * * * * * * * * * * * * * * * * * * * * * * * * * //

dimensions      [0 3 -1 0 0 0 0];
oriented        oriented;


internalField   nonuniform List<scalar> 
28285
(
0.0487048
-0.00166024
0.0501079
-0.00140309
0.051243
-0.00113508
0.0521012
-0.000858226
0.052676
-0.00057474
0.0529631
-0.00028716
0.0529608
2.27942e-06
0.0526711
0.000289777
0.0521085
0.000562537
0.0512704
0.000838158
0.0501591
0.00111127
0.0487898
0.00136935
0.0471785
0.00161121
0.0453434
0.00183511
0.0433043
0.00203912
0.0410832
0.00222107
0.0387034
0.00237986
0.0361899
0.00251344
0.0335681
0.00262186
0.0308648
0.00270328
0.0281057
0.00275914
0.0253172
0.00278845
0.0225245
0.0027927
0.0197517
0.00277286
0.0170212
0.00273049
0.0143543
0.00266691
0.01177
0.00258426
0.00928551
0.0024845
0.00691575
0.00236976
0.00467188
0.00224387
0.00256493
0.00210695
0.000603053
0.00196188
-0.00120958
0.00181263
-0.00286848
0.0016589
-0.00437224
0.00150376
-0.00572102
0.00134879
-0.00691653
0.00119551
-0.00796187
0.00104534
-0.00886132
0.000899445
-0.00962019
0.000758871
-0.0102445
0.000624301
-0.0107409
0.00049641
-0.0111166
0.000375666
-0.0113789
0.000262349
-0.0115356
0.000156728
-0.0115945
5.88186e-05
-0.0115637
-3.07682e-05
-0.0114489
-0.000114805
-0.0112587
-0.000190178
-0.0110003
-0.000258377
-0.0106806
-0.000319733
-0.0103061
-0.00037448
-0.00988301
-0.000423107
-0.00941727
-0.000465745
-0.00891441
-0.000502855
-0.00837986
-0.000534555
-0.00781848
-0.000561375
-0.00723508
-0.000583399
-0.00663408
-0.000601005
-0.00601952
-0.000614558
-0.00539533
-0.000624188
-0.00476516
-0.000630165
-0.00413221
-0.000632951
-0.00349974
-0.000632479
-0.00287084
-0.000628891
-0.0022482
-0.00062264
-0.00163444
-0.000613768
-0.00103233
-0.000602109
-0.000444153
-0.000588174
0.000128075
-0.000572229
0.000681804
-0.000553728
0.00121526
-0.00053346
0.00172671
-0.000511446
0.00221453
-0.000487819
0.00267726
-0.000462732
0.00311355
-0.000436289
0.00352214
-0.000408595
0.00390189
-0.000379741
0.0042517
-0.00034982
0.00457064
-0.000318938
0.00485786
-0.00028722
0.00511266
-0.000254797
0.00533452
-0.000221856
0.00552309
-0.000188576
0.00567822
-0.000155129
0.00579993
-0.000121711
0.00588845
-8.85213e-05
0.00594421
-5.5755e-05
0.00596784
-2.36313e-05
0.00596022
7.6212e-06
0.0059224
3.78172e-05
0.00585566
6.67393e-05
0.00576147
9.41867e-05
0.0056415
0.000119974
0.00549794
0.00014356
0.00533245
0.00016549
0.00514697
0.000185479
0.00494391
0.000203062
0.00472568
0.000218227
0.00449474
0.000230944
0.00425352
0.000241222
0.00400442
0.000249096
0.00374981
0.000254606
0.00349203
0.000257789
0.0032333
0.000258728
0.00297581
0.000257484
0.00272161
0.000254204
0.00247262
0.00024899
0.0022306
0.000242022
0.00199717
0.000233429
0.00177385
0.000223321
0.00156198
0.000211871
0.00136276
0.000199214
0.00117719
0.000185572
0.00100609
0.000171104
0.000850097
0.00015599
0.000709807
0.00014029
0.000585429
0.000124378
0.000476985
0.000108444
0.000383762
9.32229e-05
0.000304783
7.89789e-05
0.000239201
6.55829e-05
0.000188167
5.10337e-05
0.000155345
3.28219e-05
0.000146297
9.04758e-06
0.000162844
-1.65463e-05
0.000199292
-3.64483e-05
0.000216289
-1.69969e-05
0.000196399
1.98898e-05
0.000158614
3.77853e-05
0.000117816
4.07978e-05
8.35892e-05
3.42268e-05
5.56625e-05
2.79267e-05
2.42169e-05
3.14456e-05
0.0487884
-0.00330906
0.0501794
-0.00279411
0.0513021
-0.00225779
0.0521474
-0.00170351
0.052709
-0.00113632
0.0529831
-0.000561253
0.0529679
1.73983e-05
0.0526644
0.000593294
0.052089
0.00113794
0.0512375
0.00168969
0.0501133
0.00223544
0.0487317
0.00275093
0.047109
0.00323393
0.0452632
0.00368095
0.0432143
0.004088
0.0409843
0.00445106
0.0385967
0.00476744
0.0360766
0.00503356
0.0334496
0.00524885
0.030742
0.0054109
0.0279802
0.00552092
0.0251904
0.00557829
0.0223972
0.0055859
0.0196254
0.0055446
0.0168971
0.00545876
0.0142336
0.00533044
0.011654
0.00516388
0.00917477
0.00496371
0.00681047
0.00473406
0.00457365
0.00448068
0.00247354
0.00420706
0.000517277
0.00391814
-0.00128779
0.0036177
-0.00293948
0.00331059
-0.004436
0.00300028
-0.00577759
0.00269038
-0.00696603
0.00238395
-0.00800451
0.00208382
-0.00889737
0.00179231
-0.00964996
0.00151146
-0.0102683
0.00124268
-0.0107592
0.000987282
-0.0111297
0.000746191
-0.0113874
0.000519995
-0.0115398
0.000309161
-0.0115949
0.000113942
-0.0115606
-6.51096e-05
-0.0114426
-0.000232768
-0.0112497
-0.000383064
-0.010989
-0.000519093
-0.0106673
-0.000641436
-0.0102911
-0.000750669
-0.00986665
-0.000847593
-0.00939976
-0.000932641
-0.00889603
-0.00100658
-0.00836078
-0.00106981
-0.00779898
-0.00112317
-0.00721532
-0.00116706
-0.0066142
-0.00120212
-0.00599974
-0.00122902
-0.00537578
-0.00124815
-0.00474583
-0.00126012
-0.00411335
-0.00126542
-0.00348158
-0.00126425
-0.00285323
-0.00125725
-0.00223129
-0.00124458
-0.00161848
-0.00122658
-0.00101716
-0.00120343
-0.00042986
-0.00117547
0.000141192
-0.00114328
0.00069391
-0.00110645
0.00122634
-0.00106589
0.00173673
-0.00102184
0.00222348
-0.000974572
0.00268515
-0.000924396
0.00312037
-0.000871518
0.00352792
-0.000816142
0.00390663
-0.000758449
0.00425543
-0.000698621
0.00457338
-0.000636884
0.00485963
-0.000573469
0.0051135
-0.000508672
0.00533447
-0.000442827
0.00552219
-0.000376291
0.0056765
-0.00030944
0.00579744
-0.000242653
0.00588524
-0.000176324
0.00594034
-0.000110851
0.00596339
-4.66828e-05
0.00595521
1.57967e-05
0.00591691
7.61178e-05
0.00584976
0.000133895
0.00575522
0.000188725
0.00563496
0.000240233
0.00549119
0.000287336
0.00532553
0.000331142
0.00513996
0.000371056
0.00493685
0.000406166
0.00471864
0.000436435
0.00448777
0.000461815
0.00424667
0.000482323
0.00399774
0.000498024
0.00374335
0.000509
0.0034858
0.000515338
0.00322735
0.000517179
0.00297016
0.000514674
0.00271628
0.000508088
0.00246762
0.000497649
0.00222594
0.000483698
0.00199286
0.000466509
0.0017699
0.000446285
0.00155837
0.0004234
0.00135949
0.000398088
0.00117425
0.000370814
0.00100346
0.000341895
0.000847772
0.00031168
0.000707763
0.000280298
0.000583643
0.000248498
0.000475443
0.000216644
0.000382431
0.000186235
0.000303641
0.000157769
0.000238216
0.000131008
0.000187331
0.000101918
0.000154664
6.54889e-05
0.000145761
1.79506e-05
0.000162429
-3.32145e-05
0.000198933
-7.29519e-05
0.000215902
-3.39656e-05
0.000195978
3.98137e-05
0.000158216
7.55474e-05
0.000117484
8.15291e-05
8.33396e-05
6.83715e-05
5.54942e-05
5.57721e-05
4.83585e-05
3.13526e-05
0.048983
-0.00495157
0.0503664
-0.00417749
0.05148
-0.00337142
0.0523148
-0.00253834
0.0528648
-0.00168627
0.0531259
-0.000822348
0.0530967
4.65976e-05
0.0527789
0.000911122
0.0521891
0.00172766
0.0513217
0.00255715
0.0501813
0.00337584
0.0487834
0.00414882
0.0471443
0.00487299
0.0452822
0.00554307
0.0432175
0.00615273
0.0409722
0.00669629
0.0385702
0.0071695
0.0360364
0.0075674
0.0333967
0.00788849
0.0306775
0.00813011
0.0279054
0.00829302
0.0251064
0.00837727
0.0223058
0.00838652
0.0195277
0.0083227
0.016795
0.00819151
0.0141283
0.00799714
0.0115468
0.00774538
0.00906668
0.0074438
0.00670218
0.00709856
0.00446683
0.00671604
0.00236917
0.00630473
0.000417437
0.00586987
-0.00138311
0.00541824
-0.00302965
0.00495714
-0.00452058
0.00449121
-0.00585627
0.00402607
-0.00703863
0.00356631
-0.00807094
0.00311613
-0.00895763
0.002679
-0.00970414
0.00225796
-0.0103166
0.00185513
-0.0108017
0.00147243
-0.0111668
0.00111123
-0.0114192
0.000772448
-0.0115668
0.00045668
-0.0116171
0.000164237
-0.0115786
-0.00010355
-0.0114567
-0.000354668
-0.0112602
-0.00057953
-0.0109962
-0.000783098
-0.0106715
-0.000966128
-0.0102927
-0.00112956
-0.00986571
-0.00127454
-0.00939666
-0.0014017
-0.00889109
-0.00151216
-0.00835417
-0.00160672
-0.00779093
-0.00168641
-0.00720604
-0.00175196
-0.00660391
-0.00180425
-0.00598856
-0.00184437
-0.00536391
-0.0018728
-0.00473335
-0.00189068
-0.00410051
-0.00189826
-0.00346832
-0.00189644
-0.00283978
-0.00188579
-0.00221773
-0.00186664
-0.00160487
-0.00183944
-0.00100356
-0.00180473
-0.000416241
-0.0017628
0.000154576
-0.0017141
0.000707056
-0.00165893
0.00123919
-0.00159802
0.00174923
-0.00153187
0.00223558
-0.00146093
0.00269682
-0.00138563
0.00313157
-0.00130627
0.00353861
-0.00122318
0.00391679
-0.00113663
0.00426505
-0.00104688
0.00458242
-0.000954257
0.00486809
-0.000859134
0.00512134
-0.000761921
0.00534167
-0.000663164
0.00552877
-0.000563391
0.00568247
-0.000463139
0.0058028
-0.000362982
0.00588999
-0.000263518
0.00594449
-0.000165346
0.00596693
-6.91213e-05
0.00595821
2.45111e-05
0.00591938
0.000114955
0.0058517
0.000201569
0.00575668
0.000283749
0.00563597
0.000360944
0.00549178
0.000431525
0.00532574
0.000497181
0.00513982
0.000556977
0.00493642
0.00060956
0.00471797
0.000654894
0.00448689
0.000692895
0.00424561
0.000723598
0.00399654
0.000747093
0.00374204
0.000763504
0.00348442
0.000772957
0.00322593
0.000775671
0.00296873
0.000771876
0.00271486
0.000761953
0.00246624
0.000746268
0.00222462
0.000725317
0.00199162
0.00069951
0.00176874
0.000669163
0.00155733
0.000634813
0.00135856
0.000596859
0.00117344
0.00055593
0.00100278
0.000512555
0.000847207
0.000467255
0.00070732
0.000420184
0.000583321
0.000372498
0.000475231
0.000324733
0.000382321
0.000279146
0.00030361
0.00023648
0.000238258
0.000196361
0.000187428
0.000152748
0.000154826
9.80909e-05
0.000146002
2.67747e-05
0.000162785
-4.99977e-05
0.000199323
-0.000109489
0.000216193
-5.08357e-05
0.000196188
5.98184e-05
0.000158375
0.000113361
0.000117621
0.000122283
8.34536e-05
0.000102539
5.55599e-05
8.36657e-05
7.2549e-05
3.13694e-05
0.0492299
-0.00659064
0.0506081
-0.00555573
0.0517147
-0.00447797
0.0525406
-0.00336428
0.0530796
-0.00222529
0.053327
-0.00106969
0.0532834
9.01199e-05
0.0529507
0.0012439
0.0523451
0.00233321
0.0514592
0.00344309
0.0502995
0.00453555
0.0488816
0.00556672
0.0472221
0.00653244
0.0453395
0.00742569
0.0432543
0.00823788
0.040989
0.00896159
0.0385676
0.00959097
0.0360151
0.0101199
0.033358
0.0105456
0.0306226
0.0108655
0.0278358
0.0110798
0.0250239
0.0111892
0.0222121
0.0111983
0.0194246
0.0111101
0.0166844
0.0109317
0.0140122
0.0106693
0.0114265
0.0103311
0.00894439
0.0099259
0.00658002
0.00946294
0.00434546
0.00895059
0.00225087
0.00839933
0.000302439
0.00781829
-0.00149477
0.00721545
-0.00313633
0.0065987
-0.00462157
0.00597645
-0.00595107
0.00535557
-0.00712689
0.00474213
-0.00815243
0.00414167
-0.00903227
0.00355884
-0.00977191
0.0029976
-0.0103776
0.00246081
-0.0108561
0.00195098
-0.0112148
0.00146993
-0.0114612
0.00101883
-0.011603
0.00059847
-0.0116481
0.000209351
-0.0116044
-0.00014722
-0.0114778
-0.000481313
-0.011277
-0.000780289
-0.0110091
-0.001051
-0.0106809
-0.00129438
-0.0102988
-0.00151165
-0.009869
-0.00170433
-0.00939738
-0.00187332
-0.00888949
-0.00202004
-0.00835055
-0.00214566
-0.00778556
-0.0022514
-0.00719908
-0.00233843
-0.00659554
-0.00240779
-0.00597906
-0.00246085
-0.00535337
-0.00249849
-0.00472216
-0.00252189
-0.00408861
-0.00253182
-0.00345577
-0.00252928
-0.00282689
-0.00251467
-0.00220457
-0.00248895
-0.00159145
-0.00245256
-0.000990111
-0.00240606
-0.000402769
-0.00235014
0.000168007
-0.00228487
0.000720345
-0.00221126
0.00125227
-0.00212994
0.00176203
-0.00204163
0.00224805
-0.00194695
0.0027089
-0.00184648
0.00314324
-0.00174062
0.00354984
-0.00162978
0.00392755
-0.00151434
0.00427529
-0.00139462
0.00459213
-0.0012711
0.00487723
-0.00114423
0.00512993
-0.00101462
0.00534972
-0.000882948
0.00553623
-0.0007499
0.00568931
-0.000616219
0.00580902
-0.00048269
0.00589558
-0.000350086
0.00594946
-0.000219218
0.0059713
-9.09605e-05
0.00596195
3.38577e-05
0.00592252
0.000154387
0.00585428
0.000269807
0.00575871
0.000379314
0.00563749
0.000482163
0.00549284
0.000576183
0.00532635
0.000663671
0.00514002
0.000743305
0.00493624
0.000813338
0.00471745
0.000873684
0.0044861
0.000924246
0.0042446
0.000965095
0.00399536
0.000996334
0.00374072
0.00101815
0.00348299
0.00103069
0.00322441
0.00103424
0.00296717
0.00102912
0.00271328
0.00101584
0.00246467
0.000994877
0.00222308
0.000966913
0.00199013
0.000932457
0.00176731
0.000891979
0.00155597
0.00084616
0.00135728
0.000795549
0.00117225
0.000740956
0.00100167
0.000683134
0.000846196
0.000622729
0.000706398
0.000559983
0.000582502
0.000496393
0.000474506
0.00043273
0.000381683
0.000371969
0.000303049
0.000315114
0.000237755
0.000261654
0.000186983
0.00020352
0.000154467
0.000130607
0.000145738
3.55039e-05
0.000162664
-6.69235e-05
0.000199331
-0.000146157
0.000216196
-6.77006e-05
0.000196088
7.99262e-05
0.0001582
0.000151249
0.000117436
0.000163047
8.33045e-05
0.00013667
5.54649e-05
0.000111505
9.66926e-05
3.13213e-05
0.0495307
-0.00822899
0.0509063
-0.00693139
0.0520075
-0.00557913
0.0528262
-0.00418294
0.0533552
-0.00275433
0.0535922
-0.00130669
0.0535337
0.000148668
0.0531835
0.00159406
0.0525603
0.00295641
0.0516537
0.00434965
0.0504722
0.00571712
0.0490313
0.00700757
0.047348
0.00821574
0.045441
0.00933266
0.0433313
0.0103476
0.0410414
0.0112515
0.0385959
0.0120365
0.0360202
0.0126956
0.0333409
0.0132249
0.0305848
0.0136215
0.0277791
0.0138855
0.0249499
0.0140184
0.0221228
0.0140254
0.0193225
0.0139104
0.0165714
0.0136829
0.0138905
0.0133502
0.0112984
0.0129233
0.00881191
0.0124124
0.00644543
0.0118294
0.00421007
0.0111859
0.00211583
0.0104936
0.00016984
0.00976429
-0.0016228
0.00900809
-0.00325946
0.00823535
-0.00473893
0.00745591
-0.00606196
0.0066786
-0.00723082
0.00591099
-0.00824905
0.00515989
-0.00912138
0.00443117
-0.00985345
0.00372967
-0.0104516
0.00305895
-0.0109228
0.00242215
-0.0112743
0.00182145
-0.0115138
0.00125833
-0.0116491
0.000733736
-0.011688
0.000248315
-0.0116385
-0.000196754
-0.0115064
-0.000613354
-0.0113007
-0.000986029
-0.0110283
-0.00132342
-0.0106959
-0.00162675
-0.01031
-0.00189752
-0.00987685
-0.00213752
-0.00940213
-0.00234804
-0.00889145
-0.00253072
-0.00834998
-0.00268714
-0.00778279
-0.00281858
-0.00719439
-0.00292683
-0.00658913
-0.00301305
-0.00597125
-0.00307873
-0.0053443
-0.00312544
-0.00471199
-0.0031542
-0.00407749
-0.00316632
-0.00344407
-0.00316269
-0.00281449
-0.00314426
-0.00219154
-0.00311189
-0.00157806
-0.00306605
-0.000976559
-0.00300756
-0.00038913
-0.00293757
0.000181781
-0.00285578
0.00073409
-0.00276357
0.0012659
-0.00266175
0.00177548
-0.00255121
0.00226126
-0.00243273
0.00272181
-0.00230703
0.0031558
-0.00217461
0.00356201
-0.00203599
0.00393928
-0.00189161
0.00428656
-0.0017419
0.00460291
-0.00158744
0.00488749
-0.00142882
0.00513964
-0.00126677
0.00535882
-0.00110212
0.00554468
-0.00093576
0.0056971
-0.00076864
0.00581614
-0.000601728
0.00590204
-0.000435987
0.00595525
-0.000272429
0.00597644
-0.000112151
0.00596645
4.38473e-05
0.00592639
0.000194451
0.00585753
0.000338663
0.00576138
0.000475468
0.0056396
0.00060394
0.00549443
0.000721355
0.00532744
0.000830663
0.00514065
0.000930092
0.0049365
0.00101749
0.00471738
0.0010928
0.00448573
0.00115591
0.00424397
0.00120685
0.00399451
0.00124579
0.00373969
0.00127297
0.00348183
0.00128855
0.00322318
0.0012929
0.00296586
0.00128644
0.00271193
0.00126977
0.0024633
0.0012435
0.00222172
0.00120849
0.0019888
0.00116537
0.00176604
0.00111475
0.00155476
0.00105744
0.00135615
0.000994155
0.00117123
0.00092588
0.00100076
0.0008536
0.0008454
0.000778092
0.000705723
0.000699659
0.000581945
0.000620171
0.000474073
0.000540602
0.000381378
0.000464664
0.000302846
0.000393646
0.000237617
0.000326882
0.000186888
0.000254249
0.000154429
0.000163065
0.000145777
4.41559e-05
0.000162863
-8.40091e-05
0.000199642
-0.000182936
0.000216448
-8.45069e-05
0.000196251
0.000100123
0.000158297
0.000189203
0.000117508
0.000203836
8.33646e-05
0.000170814
5.54976e-05
0.000139372
0.00012086
3.13301e-05
0.0498849
-0.00986981
0.0512602
-0.00830673
0.0523581
-0.00667698
0.0531703
-0.00499518
0.0536902
-0.00327417
0.0539137
-0.00153021
0.0538412
0.000221171
0.0534739
0.00196139
0.052832
0.0035983
0.0519029
0.00527874
0.0506969
0.0069231
0.04923
0.00847443
0.0475195
0.00992631
0.0455844
0.0112678
0.0434459
0.0124861
0.0411272
0.0135702
0.0386531
0.0145105
0.0360497
0.0152991
0.0333436
0.015931
0.0305623
0.0164028
0.0277332
0.0167146
0.0248825
0.0168692
0.0220364
0.0168715
0.0192193
0.0167275
0.0164542
0.016448
0.0137618
0.0160426
0.0111608
0.0155242
0.00866803
0.0149052
0.00629765
0.0141998
0.00406026
0.0134233
0.0019662
0.0125876
2.32494e-05
0.0117072
-0.00176719
0.0107985
-0.00339905
0.00986721
-0.00487261
0.00892948
-0.00618888
0.00799488
-0.00735034
0.00707244
-0.00836067
0.00617022
-0.0092248
0.0052953
-0.00994853
0.0044534
-0.0105383
0.00364877
-0.0110013
0.00288511
-0.0113448
0.00216498
-0.0115766
0.00149012
-0.0117046
0.000861663
-0.0117366
0.000280331
-0.0116803
-0.000253003
-0.0115422
-0.000751462
-0.0113308
-0.00119742
-0.0110532
-0.00160103
-0.0107161
-0.00196387
-0.0103259
-0.00228772
-0.00988873
-0.00257468
-0.00941051
-0.00282626
-0.00889661
-0.00304462
-0.00835232
-0.00323142
-0.00778257
-0.00338834
-0.00719194
-0.00351746
-0.00658479
-0.0036202
-0.00596508
-0.00369843
-0.00533676
-0.00375376
-0.00470304
-0.00378793
-0.00406747
-0.00380188
-0.00343306
-0.00379711
-0.00280276
-0.00377456
-0.00217935
-0.0037353
-0.00156519
-0.0036802
-0.000963268
-0.00360949
-0.000375656
-0.00352518
0.000195449
-0.00342689
0.000747827
-0.00331595
0.00127962
-0.00319354
0.00178909
-0.00306068
0.00227468
-0.00291833
0.00273499
-0.00276733
0.00316868
-0.0026083
0.00357455
-0.00244185
0.00395144
-0.00226851
0.0042983
-0.00208876
0.00461419
-0.00190333
0.00489827
-0.0017129
0.00514984
-0.00151834
0.00536842
-0.00132071
0.0055537
-0.00112104
0.00570553
-0.000920467
0.00582396
-0.000720162
0.00590924
-0.000521267
0.00596182
-0.000325004
0.00598235
-0.000132684
0.00597173
5.44709e-05
0.00593103
0.000235152
0.00586155
0.00040814
0.00576479
0.000572228
0.00564243
0.000726301
0.00549671
0.000867075
0.00532918
0.000998194
0.0051419
0.00111737
0.00493728
0.00122212
0.00471768
0.0013124
0.00448557
0.00138801
0.00424343
0.00144899
0.00399365
0.00149558
0.00373858
0.00152804
0.00348051
0.00154661
0.0032217
0.00155171
0.00296427
0.00154387
0.00271036
0.00152369
0.00246176
0.0014921
0.00222018
0.00145007
0.00198729
0.00139827
0.00176457
0.00133746
0.00155336
0.00126864
0.00135486
0.00119266
0.00117002
0.00111072
0.000999639
0.00102398
0.000844379
0.000933353
0.000704793
0.000839245
0.000581121
0.000743843
0.000473342
0.000648381
0.000380733
0.000557273
0.000302279
0.0004721
0.000237106
0.000392056
0.000186417
0.000304938
0.000154025
0.000195457
0.000145456
5.27244e-05
0.000162727
-0.00010128
0.000199705
-0.000219913
0.000216541
-0.000101343
0.00019624
0.000120424
0.000158202
0.000227241
0.000117399
0.000244639
8.3281e-05
0.000204932
5.54458e-05
0.000167208
0.000145005
3.13011e-05
0.0502947
-0.0115162
0.0516716
-0.00968366
0.0527683
-0.00777362
0.0535755
-0.00580238
0.0540869
-0.00378562
0.0542988
-0.00174207
0.0542104
0.00030955
0.0538241
0.00234769
0.0531622
0.00426021
0.0522082
0.0062327
0.050975
0.0081563
0.049479
0.00997048
0.0477375
0.0116677
0.0457702
0.0132351
0.0435988
0.0146576
0.0412469
0.015922
0.0387396
0.0170178
0.0361037
0.0179351
0.0333662
0.0186684
0.030555
0.0192139
0.0276977
0.0195719
0.0248216
0.0197453
0.0219526
0.0197405
0.0191152
0.0195648
0.0163328
0.0192304
0.0136262
0.0187492
0.0110144
0.0181361
0.00851312
0.0174064
0.00613618
0.0165767
0.00389587
0.0156636
0.00180091
0.0146826
-0.000142477
0.0136506
-0.00192827
0.0125843
-0.0035553
0.0114942
-0.00502283
0.010397
-0.00633202
0.00930406
-0.00748559
0.00822601
-0.00848743
0.00717206
-0.00934268
0.00615055
-0.0100573
0.00516805
-0.010638
0.00422944
-0.0110919
0.00333902
-0.0114266
0.00249966
-0.0116498
0.00171337
-0.0117696
0.000981431
-0.0117941
0.000304783
-0.0117301
-0.000316933
-0.0115852
-0.00089636
-0.0113675
-0.0014151
-0.0110841
-0.00188444
-0.0107417
-0.00230632
-0.0103466
-0.00268282
-0.00990504
-0.00301623
-0.00942276
-0.00330854
-0.00890525
-0.00356214
-0.00835769
-0.00377897
-0.00778502
-0.00396101
-0.00719176
-0.00411072
-0.00658237
-0.0042296
-0.00596069
-0.00432011
-0.00533049
-0.00438396
-0.00469543
-0.00442299
-0.00405857
-0.00443874
-0.00342302
-0.00443266
-0.00279172
-0.00440585
-0.0021673
-0.00435973
-0.00155262
-0.00429488
-0.00095007
-0.00421204
-0.000362135
-0.00411312
0.000209263
-0.00399829
0.000761813
-0.0038685
0.00129367
-0.0037254
0.00180311
-0.00357012
0.0022886
-0.00340381
0.00274872
-0.00322746
0.00318218
-0.00304176
0.00358776
-0.00284743
0.00396431
-0.00264506
0.00431079
-0.00243524
0.00462624
-0.00221878
0.00490984
-0.00199649
0.00516092
-0.00176943
0.00537897
-0.00153876
0.00556366
-0.00130573
0.00571487
-0.00107168
0.00583265
-0.000837939
0.00591725
-0.000605873
0.00596914
-0.00037689
0.00598897
-0.00015251
0.00597765
6.57822e-05
0.00593627
0.000276533
0.00586612
0.000478294
0.0057687
0.00066965
0.0056457
0.000849301
0.00549939
0.00101338
0.00533128
0.0011663
0.00514346
0.00130519
0.00493832
0.00142726
0.0047183
0.00153242
0.00448585
0.00162046
0.00424342
0.00169143
0.00399338
0.00174562
0.00373808
0.00178334
0.00347982
0.00180487
0.00322085
0.00181068
0.00296332
0.00180139
0.00270926
0.00177775
0.00246052
0.00174084
0.00221889
0.0016917
0.00198602
0.00163115
0.00176333
0.00156015
0.00155216
0.00147981
0.0013537
0.00139113
0.00116894
0.00129548
0.000998653
0.00119426
0.000843493
0.00108851
0.000704016
0.000978722
0.000580461
0.000867398
0.000472822
0.00075602
0.000380341
0.000649754
0.000301981
0.000550461
0.000236872
0.000457165
0.000186205
0.000355605
0.00015386
0.000227802
0.000145366
6.12181e-05
0.000162837
-0.000118751
0.000199998
-0.000257074
0.000216808
-0.000118154
0.000196391
0.000140842
0.000158253
0.000265378
0.000117413
0.000285479
8.32842e-05
0.000239061
5.54341e-05
0.000195058
0.00016915
3.1289e-05
0.0507595
-0.0131708
0.0521409
-0.011065
0.0532382
-0.00887094
0.0540415
-0.0066057
0.0545452
-0.00428936
0.0547453
-0.00194209
0.0546409
0.000413955
0.0542348
0.0027538
0.053551
0.00494391
0.0525699
0.00721381
0.0513068
0.00941944
0.0497782
0.011499
0.0480021
0.0134439
0.0459986
0.0152386
0.0437898
0.0168664
0.0413999
0.018312
0.0388548
0.0195628
0.0361813
0.0206085
0.0334076
0.0214422
0.030562
0.0220596
0.0276724
0.0224615
0.0247664
0.0226513
0.0218703
0.0226365
0.0190093
0.0224258
0.0162064
0.0220334
0.0134826
0.021473
0.0108566
0.0207621
0.00834477
0.0199182
0.00596095
0.0189605
0.00371641
0.0179082
0.00161966
0.0167793
-0.000322918
0.0155932
-0.00210616
0.0143676
-0.00372843
0.0131165
-0.00518975
0.0118583
-0.00649152
0.0106058
-0.00763667
0.00937116
-0.00862938
0.00816477
-0.00947501
0.00699618
-0.0101798
0.0058728
-0.0107505
0.00480015
-0.0111945
0.00378303
-0.0115195
0.00282464
-0.0117333
0.00192722
-0.0118441
0.00109222
-0.0118601
0.000320757
-0.0117877
-0.000389262
-0.0116354
-0.00104874
-0.0114107
-0.00163976
-0.0111208
-0.00217431
-0.0107725
-0.0026547
-0.010372
-0.00308332
-0.00992545
-0.00346274
-0.0094387
-0.00379529
-0.00891713
-0.00408371
-0.00836594
-0.00433017
-0.00778999
-0.00453695
-0.00719383
-0.00470688
-0.00658183
-0.0048416
-0.00595789
-0.00494404
-0.00532575
-0.00501611
-0.00468888
-0.00505986
-0.0040505
-0.00507712
-0.00341367
-0.00506949
-0.0027811
-0.00503842
-0.00215596
-0.00498486
-0.0015404
-0.00491045
-0.000937061
-0.00481537
-0.000348595
-0.00470158
0.000223192
-0.00457007
0.00077601
-0.00442132
0.00130803
-0.00425741
0.00181752
-0.00407962
0.00230296
-0.00388926
0.00276297
-0.00368747
0.00319624
-0.00347503
0.00360158
-0.00325276
0.00397784
-0.00302133
0.00432398
-0.00278137
0.00463903
-0.00253384
0.00492219
-0.00227965
0.00517276
-0.00202
0.00539025
-0.00175625
0.00557434
-0.00148982
0.00572492
-0.00122225
0.00584204
-0.000955056
0.00592596
-0.000689795
0.00597715
-0.000428084
0.00599628
-0.000171635
0.00598424
7.7823e-05
0.00594213
0.00031864
0.00587125
0.000549168
0.00577313
0.000767773
0.00564946
0.000972978
0.00550251
0.00116033
0.00533376
0.00133505
0.00514534
0.00149361
0.00493965
0.00163294
0.00471914
0.00175293
0.00448625
0.00185335
0.00424341
0.00193426
0.00399301
0.00199602
0.00373741
0.00203895
0.00347889
0.00206339
0.0032197
0.00206987
0.002962
0.00205909
0.0027078
0.00203195
0.00245903
0.00198961
0.00221739
0.00193334
0.00198449
0.00186405
0.00176181
0.00178283
0.0015507
0.00169093
0.00135231
0.00158951
0.00116766
0.00148013
0.000997483
0.00136444
0.000842424
0.00124357
0.000703055
0.00111809
0.000579607
0.000990846
0.000472063
0.000863563
0.000379686
0.000742131
0.000301402
0.000628745
0.000236346
0.000522221
0.000185698
0.000406253
0.000153397
0.000260103
0.000144974
6.96418e-05
0.000162671
-0.000136448
0.000200094
-0.000294497
0.000216963
-0.000135023
0.000196446
0.000161359
0.000158218
0.000303607
0.00011736
0.000326337
8.32525e-05
0.000273169
5.54183e-05
0.000222892
0.000193289
3.12789e-05
0.0512808
-0.0148364
0.0526693
-0.0124534
0.0537686
-0.0099703
0.05457
-0.00740711
0.0550666
-0.00478591
0.0552549
-0.00213038
0.0551337
0.000535159
0.0547068
0.00318064
0.0539995
0.00565123
0.0529889
0.0082244
0.0516929
0.0107155
0.0501285
0.0130634
0.0483139
0.0152584
0.0462699
0.0172826
0.0440192
0.0191171
0.0415868
0.0207445
0.0389989
0.0221508
0.0362833
0.0233241
0.0334686
0.0242569
0.0305836
0.0249446
0.0276571
0.0253879
0.0247169
0.0255916
0.0217901
0.0255633
0.0189013
0.0253146
0.0160751
0.0248596
0.0133311
0.024217
0.010689
0.0234043
0.00816468
0.0224425
0.00577208
0.0213532
0.00352242
0.0201578
0.00142265
0.0188791
-0.000520057
0.0175359
-0.00230104
0.0161485
-0.00391861
0.0147341
-0.00537351
0.0133132
-0.00666744
0.0118998
-0.00780367
0.0105074
-0.00878662
0.00914772
-0.0096219
0.00783146
-0.010316
0.00656687
-0.0108759
0.00536004
-0.0113091
0.00421625
-0.0116235
0.00313907
-0.0118271
0.00213084
-0.0119281
0.00119318
-0.0119348
0.0003275
-0.0118532
-0.000470853
-0.0116927
-0.00120932
-0.0114603
-0.00187207
-0.0111634
-0.00247124
-0.0108085
-0.00300961
-0.0104021
-0.00348974
-0.0099501
-0.00391471
-0.00945838
-0.00428702
-0.00893231
-0.00460977
-0.00837709
-0.00488539
-0.00779748
-0.00511656
-0.0071981
-0.00530627
-0.00658319
-0.00545651
-0.00595664
-0.00557059
-0.00532237
-0.00565039
-0.00468342
-0.00569881
-0.00404331
-0.00571722
-0.00340494
-0.00570786
-0.00277129
-0.00567207
-0.00214474
-0.00561141
-0.00152837
-0.00552682
-0.00092418
-0.00541957
-0.00033493
-0.00529083
0.000237241
-0.00514225
0.000790429
-0.00497451
0.00132269
-0.00478968
0.00183231
-0.00458923
0.00231778
-0.00437473
0.00277773
-0.00414742
0.00321088
-0.00390818
0.00361603
-0.00365791
0.00399204
-0.00339735
0.00433787
-0.0031272
0.00465256
-0.00284853
0.00493529
-0.00256238
0.00518538
-0.0022701
0.00540234
-0.0019732
0.00558586
-0.00167334
0.00573581
-0.0013722
0.00585226
-0.00107151
0.00593549
-0.000773025
0.00598596
-0.000478552
0.00600435
-0.000190019
0.00599155
9.06203e-05
0.00594869
0.000361501
0.00587706
0.000620795
0.0057782
0.000866634
0.0056538
0.00109737
0.00550617
0.00130796
0.00533675
0.00150447
0.0051477
0.00168266
0.00494143
0.00183922
0.00472038
0.00197398
0.00448699
0.00208674
0.00424373
0.00217753
0.00399296
0.00224678
0.00373704
0.00229487
0.00347826
0.00232216
0.00321886
0.00232927
0.002961
0.00231695
0.00270671
0.00228624
0.00245785
0.00223846
0.00221618
0.00217502
0.00198327
0.00209696
0.00176061
0.00200548
0.00154954
0.001902
0.00135122
0.00178784
0.00116661
0.00166473
0.000996484
0.00153457
0.00084149
0.00139857
0.000702203
0.00125738
0.000578872
0.00111418
0.000471466
0.00097097
0.000379217
0.000834379
0.000301047
0.000706915
0.00023603
0.000587238
0.000185387
0.000456895
0.000153121
0.000292369
0.000144766
7.79974e-05
0.000162702
-0.000154385
0.000200384
-0.000332179
0.000217266
-0.000151905
0.000196603
0.000182022
0.000158243
0.000341967
0.000117336
0.000367244
8.32266e-05
0.000307278
5.53976e-05
0.000250721
0.000217422
3.12643e-05
0.0518594
-0.0165162
0.0532574
-0.0138514
0.0543612
-0.0110741
0.0551619
-0.00820783
0.0556519
-0.00527592
0.0558282
-0.00230661
0.0556899
0.00067345
0.0552412
0.00362929
0.0545085
0.00638394
0.0534659
0.00926701
0.052134
0.0120474
0.0505303
0.0146672
0.0486734
0.0171153
0.0465847
0.0193713
0.0442875
0.0214143
0.0418076
0.0232244
0.039172
0.0247864
0.0364092
0.026087
0.0335483
0.0271177
0.0306193
0.0278737
0.027651
0.0283562
0.0246724
0.0285702
0.0217107
0.028525
0.0187907
0.0282346
0.0159372
0.0277131
0.0131707
0.0269835
0.0105098
0.0260652
0.00797181
0.0249805
0.00556798
0.023757
0.00331114
0.0224147
0.00120841
0.0209818
-0.000734344
0.0194787
-0.00251326
0.0179275
-0.00412613
0.016347
-0.00557438
0.0147615
-0.00686006
0.0131854
-0.00798678
0.0116341
-0.00895926
0.0101202
-0.0097834
0.0086556
-0.010466
0.00724943
-0.0110141
0.00590821
-0.0114357
0.00463787
-0.0117387
0.00344201
-0.0119312
0.00232333
-0.0120215
0.00128347
-0.0120182
0.000324256
-0.0119265
-0.000562548
-0.011757
-0.00137883
-0.0115164
-0.00211267
-0.0112118
-0.0027759
-0.0108498
-0.00337162
-0.0104368
-0.00390267
-0.00997892
-0.00437261
-0.00948174
-0.0047842
-0.00895079
-0.00514073
-0.00839109
-0.00544509
-0.00780745
-0.00570019
-0.00720454
-0.00590918
-0.00658643
-0.00607461
-0.00595714
-0.00619989
-0.00532022
-0.0062873
-0.00467927
-0.00633976
-0.00403724
-0.00635925
-0.00339718
-0.00634792
-0.0027618
-0.00630745
-0.00213421
-0.00623901
-0.00151658
-0.00614445
-0.00091147
-0.00602467
-0.000321367
-0.00588094
0.000251416
-0.00571503
0.000805081
-0.00552817
0.00133767
-0.00532227
0.0018475
-0.00509906
0.00233307
-0.0048603
0.00279303
-0.00460737
0.0032261
-0.00434125
0.00363111
-0.00406292
0.00400693
-0.00377316
0.00435249
-0.00347276
0.00466686
-0.00316289
0.0049492
-0.00284472
0.00519883
-0.00251973
0.00541525
-0.00218963
0.00559817