/*--------------------------------*- C++ -*----------------------------------*\
| =========                 |                                                 |
| \\      /  F ield         | OpenFOAM: The Open Source CFD Toolbox           |
|  \\    /   O peration     | Version:  v1912                                 |
|   \\  /    A nd           | Website:  www.openfoam.com                      |
|    \\/     M anipulation  |                                                 |
\*---------------------------------------------------------------------------*/
FoamFile
{
    version     2.0;
    format      ascii;
    class       surfaceScalarField;
    location    "80";
    object      alphaPhi0.water;
}
// * * * * * * * * * * * * * * * * * * * * * * * * * * * * * * * * * * * * * //

dimensions      [0 3 -1 0 0 0 0];
oriented        oriented;


internalField   nonuniform List<scalar> 
28285
(
-2.17292e-188
-1.23908e-189
-2.70485e-191
-1.54872e-192
-3.15823e-194
-1.81572e-195
-3.45846e-197
-1.99646e-198
-3.55137e-200
-2.05849e-201
-3.41914e-203
-1.98997e-204
-3.0859e-206
-1.80339e-207
-2.61051e-209
-1.53183e-210
-2.06955e-212
-1.21939e-213
-1.53734e-215
-9.09521e-217
-1.06988e-218
-6.35563e-220
-6.97435e-222
-4.16012e-223
-4.25797e-225
-2.55026e-226
-2.43423e-228
-1.46394e-229
-1.30288e-231
-7.86773e-233
-6.52776e-235
-3.95811e-236
-3.06098e-238
-1.86366e-239
-1.34314e-241
-8.21119e-243
-5.51403e-245
-3.38482e-246
-2.11752e-248
-1.30519e-249
-7.60537e-252
-4.70701e-253
-2.55428e-255
-1.58734e-256
-8.02033e-259
-5.00462e-260
-2.35404e-262
-1.47491e-263
-6.4573e-266
-4.06235e-267
-1.6551e-269
-1.04549e-270
-3.96325e-273
-2.51371e-274
-8.86443e-277
-5.64518e-278
-1.85157e-280
-1.18393e-281
-3.61108e-284
-2.31835e-285
-6.57441e-288
-4.23788e-289
-1.11717e-291
-7.23024e-293
-1.77147e-295
-1.15108e-296
-2.62074e-299
-1.70972e-300
-3.6166e-303
-2.36876e-304
-4.6546e-307
-3.06064e-308
-5.58578e-311
-3.68734e-312
-6.24915e-315
-4.1413e-316
-6.51643e-319
-4.33493e-320
-6.42285e-323
-4.94066e-324
0
0
0
0
0
0
0
0
0
0
0
0
0
0
0
0
0
0
0
0
0
0
0
0
0
0
0
0
0
0
0
0
0
0
0
0
0
0
0
0
0
0
0
0
0
0
0
0
0
0
0
0
0
0
0
0
0
0
0
0
0
0
0
0
0
0
0
0
0
0
0
0
0
0
0
0
0
0
0
0
0
0
0
0
0
0
0
0
0
0
0
0
0
0
0
0
0
0
0
0
0
0
0
0
0
0
0
0
0
0
0
0
0
0
0
0
0
0
0
0
0
0
0
0
0
0
0
0
0
0
0
0
0
0
0
0
0
0
0
0
0
0
0
0
0
0
0
0
0
0
0
0
0
0
0
0
0
0
0
0
0
0
0
0
0
0
0
0
0
0
0
0
0
0
0
0
0
0
0
0
0
0
0
0
0
0
0
0
0
0
0
0
0
0
0
0
0
0
0
0
0
0
0
0
0
0
0
0
0
0
0
0
0
0
0
0
0
0
0
0
0
0
0
0
0
0
0
0
0
0
0
0
0
0
0
0
0
0
0
0
0
0
0
0
0
0
0
-2.22029e-188
-2.53426e-189
-2.7832e-191
-3.18977e-192
-3.27239e-194
-3.76579e-195
-3.60837e-197
-4.16944e-198
-3.73094e-200
-4.32874e-201
-3.61676e-203
-4.21348e-204
-3.28664e-206
-3.84461e-207
-2.79929e-209
-3.28796e-210
-2.23428e-212
-2.6351e-213
-1.67092e-215
-1.97876e-216
-1.17066e-218
-1.39203e-219
-7.68229e-222
-9.17257e-223
-4.72135e-225
-5.66043e-226
-2.71697e-228
-3.27077e-229
-1.46377e-231
-1.76938e-232
-7.3817e-235
-8.95954e-236
-3.48385e-238
-4.24592e-239
-1.53854e-241
-1.88279e-242
-6.35658e-245
-7.8109e-246
-2.45657e-248
-3.03102e-249
-8.87866e-252
-1.09999e-252
-3.00053e-255
-3.73267e-256
-9.47987e-259
-1.18414e-259
-2.79949e-262
-3.51122e-263
-7.72588e-266
-9.72977e-267
-1.99217e-269
-2.51915e-270
-4.7988e-273
-6.093e-274
-1.07965e-276
-1.37642e-277
-2.26827e-280
-2.90353e-281
-4.44923e-284
-5.7184e-285
-8.14644e-288
-1.05126e-288
-1.39206e-291
-1.80364e-292
-2.21959e-295
-2.8874e-296
-3.30162e-299
-4.31216e-300
-4.58071e-303
-6.00658e-304
-5.92663e-307
-7.80221e-308
-7.14933e-311
-9.4489e-312
-8.03935e-315
-1.06667e-315
-8.42535e-319
-1.12222e-319
-8.39912e-323
-9.88131e-324
0
0
0
0
0
0
0
0
0
0
0
0
0
0
0
0
0
0
0
0
0
0
0
0
0
0
0
0
0
0
0
0
0
0
0
0
0
0
0
0
0
0
0
0
0
0
0
0
0
0
0
0
0
0
0
0
0
0
0
0
0
0
0
0
0
0
0
0
0
0
0
0
0
0
0
0
0
0
0
0
0
0
0
0
0
0
0
0
0
0
0
0
0
0
0
0
0
0
0
0
0
0
0
0
0
0
0
0
0
0
0
0
0
0
0
0
0
0
0
0
0
0
0
0
0
0
0
0
0
0
0
0
0
0
0
0
0
0
0
0
0
0
0
0
0
0
0
0
0
0
0
0
0
0
0
0
0
0
0
0
0
0
0
0
0
0
0
0
0
0
0
0
0
0
0
0
0
0
0
0
0
0
0
0
0
0
0
0
0
0
0
0
0
0
0
0
0
0
0
0
0
0
0
0
0
0
0
0
0
0
0
0
0
0
0
0
0
0
0
0
0
0
0
0
0
0
0
0
0
0
0
0
0
0
0
0
0
0
0
0
0
0
0
0
0
0
0
-1.96156e-188
-3.35971e-189
-2.45753e-191
-4.22643e-192
-2.88768e-194
-4.98656e-195
-3.1819e-197
-5.51717e-198
-3.2874e-200
-5.72349e-201
-3.18405e-203
-5.56632e-204
-2.89072e-206
-5.07429e-207
-2.4596e-209
-4.33524e-210
-1.96104e-212
-3.47071e-213
-1.4649e-215
-2.60328e-216
-1.02508e-218
-1.82917e-219
-6.71837e-222
-1.20377e-222
-4.12344e-225
-7.41868e-226
-2.36959e-228
-4.2808e-229
-1.27477e-231
-2.31243e-232
-6.41888e-235
-1.16918e-235
-3.02472e-238
-5.53216e-239
-1.33362e-241
-2.44922e-242
-5.50078e-245
-1.0144e-245
-2.1222e-248
-3.92967e-249
-7.65665e-252
-1.42362e-252
-2.58288e-255
-4.82221e-256
-8.14523e-259
-1.52697e-259
-2.4008e-262
-4.51925e-263
-6.61275e-266
-1.2499e-266
-1.70177e-269
-3.22977e-270
-4.09098e-273
-7.79609e-274
-9.18505e-277
-1.75754e-277
-1.92566e-280
-3.69978e-281
-3.7691e-284
-7.27114e-285
-6.88609e-288
-1.33383e-288
-1.17408e-291
-2.28341e-292
-1.86781e-295
-3.64729e-296
-2.77196e-299
-5.43463e-300
-3.83689e-303
-7.55265e-304
-4.95246e-307
-9.78746e-308
-5.95976e-311
-1.18249e-311
-6.68523e-315
-1.33166e-315
-6.98876e-319
-1.39756e-319
-6.91692e-323
-1.4822e-323
0
0
0
0
0
0
0
0
0
0
0
0
0
0
0
0
0
0
0
0
0
0
0
0
0
0
0
0
0
0
0
0
0
0
0
0
0
0
0
0
0
0
0
0
0
0
0
0
0
0
0
0
0
0
0
0
0
0
0
0
0
0
0
0
0
0
0
0
0
0
0
0
0
0
0
0
0
0
0
0
0
0
0
0
0
0
0
0
0
0
0
0
0
0
0
0
0
0
0
0
0
0
0
0
0
0
0
0
0
0
0
0
0
0
0
0
0
0
0
0
0
0
0
0
0
0
0
0
0
0
0
0
0
0
0
0
0
0
0
0
0
0
0
0
0
0
0
0
0
0
0
0
0
0
0
0
0
0
0
0
0
0
0
0
0
0
0
0
0
0
0
0
0
0
0
0
0
0
0
0
0
0
0
0
0
0
0
0
0
0
0
0
0
0
0
0
0
0
0
0
0
0
0
0
0
0
0
0
0
0
0
0
0
0
0
0
0
0
0
0
0
0
0
0
0
0
0
0
0
0
0
0
0
0
0
0
0
0
0
0
0
0
0
0
0
0
0
-1.89462e-188
-4.32771e-189
-2.36685e-191
-5.42852e-192
-2.77299e-194
-6.38615e-195
-3.04645e-197
-7.04474e-198
-3.13795e-200
-7.28617e-201
-3.02999e-203
-7.06441e-204
-2.74229e-206
-6.41996e-207
-2.32595e-209
-5.46766e-210
-1.84855e-212
-4.36334e-213
-1.37639e-215
-3.26223e-216
-9.5998e-219
-2.28467e-219
-6.27081e-222
-1.49855e-222
-3.83581e-225
-9.20438e-226
-2.19679e-228
-5.29318e-229
-1.17774e-231
-2.8495e-232
-5.9097e-235
-1.43574e-235
-2.77499e-238
-6.7696e-239
-1.21917e-241
-2.98647e-242
-5.01071e-245
-1.23249e-245
-1.92614e-248
-4.75736e-249
-6.92393e-252
-1.71721e-252
-2.32711e-255
-5.79538e-256
-7.31142e-259
-1.82835e-259
-2.14698e-262
-5.39108e-263
-5.89132e-266
-1.48543e-266
-1.51035e-269
-3.82389e-270
-3.61691e-273
-9.19506e-274
-8.08936e-277
-2.06498e-277
-1.68936e-280
-4.3302e-281
-3.29365e-284
-8.47702e-285
-5.99374e-288
-1.54896e-288
-1.01788e-291
-2.64126e-292
-1.61284e-295
-4.20214e-296
-2.38393e-299
-6.2364e-300
-3.28638e-303
-8.63205e-304
-4.22456e-307
-1.1141e-307
-5.06285e-311
-1.34053e-311
-5.65554e-315
-1.50343e-315
-5.88753e-319
-1.57128e-319
-5.92879e-323
-1.4822e-323
0
0
0
0
0
0
0
0
0
0
0
0
0
0
0
0
0
0
0
0
0
0
0
0
0
0
0
0
0
0
0
0
0
0
0
0
0
0
0
0
0
0
0
0
0
0
0
0
0
0
0
0
0
0
0
0
0
0
0
0
0
0
0
0
0
0
0
0
0
0
0
0
0
0
0
0
0
0
0
0
0
0
0
0
0
0
0
0
0
0
0
0
0
0
0
0
0
0
0
0
0
0
0
0
0
0
0
0
0
0
0
0
0
0
0
0
0
0
0
0
0
0
0
0
0
0
0
0
0
0
0
0
0
0
0
0
0
0
0
0
0
0
0
0
0
0
0
0
0
0
0
0
0
0
0
0
0
0
0
0
0
0
0
0
0
0
0
0
0
0
0
0
0
0
0
0
0
0
0
0
0
0
0
0
0
0
0
0
0
0
0
0
0
0
0
0
0
0
0
0
0
0
0
0
0
0
0
0
0
0
0
0
0
0
0
0
0
0
0
0
0
0
0
0
0
0
0
0
0
0
0
0
0
0
0
0
0
0
0
0
0
0
0
0
0
0
0
-1.67242e-188
-4.776e-189
-2.08156e-191
-5.96881e-192
-2.4298e-194
-6.99604e-195
-2.65968e-197
-7.68943e-198
-2.72963e-200
-7.92416e-201
-2.62621e-203
-7.65534e-204
-2.36834e-206
-6.93212e-207
-2.00161e-209
-5.88287e-210
-1.58516e-212
-4.67813e-213
-1.17613e-215
-3.48533e-216
-8.17442e-219
-2.43242e-219
-5.32123e-222
-1.58996e-222
-3.24377e-225
-9.73237e-226
-1.8514e-228
-5.5778e-229
-9.89209e-232
-2.9926e-232
-4.94702e-235
-1.5028e-235
-2.31522e-238
-7.06235e-239
-1.01382e-241
-3.10539e-242
-4.1531e-245
-1.2774e-245
-1.59129e-248
-4.91481e-249
-5.70188e-252
-1.76838e-252
-1.91028e-255
-5.94917e-256
-5.98286e-259
-1.87099e-259
-1.75135e-262
-5.49967e-263
-4.79082e-266
-1.51069e-266
-1.22444e-269
-3.87707e-270
-2.9233e-273
-9.29481e-274
-6.51832e-277
-2.08114e-277
-1.35719e-280
-4.35115e-281
-2.63818e-284
-8.49302e-285
-4.78675e-288
-1.54736e-288
-8.10525e-292
-2.63091e-292
-1.28054e-295
-4.17368e-296
-1.88729e-299
-6.17652e-300
-2.59426e-303
-8.52498e-304
-3.32529e-307
-1.09718e-307
-3.97377e-311
-1.31648e-311
-4.42632e-315
-1.47234e-315
-4.59476e-319
-1.53452e-319
-4.44659e-323
-1.4822e-323
0
0
0
0
0
0
0
0
0
0
0
0
0
0
0
0
0
0
0
0
0
0
0
0
0
0
0
0
0
0
0
0
0
0
0
0
0
0
0
0
0
0
0
0
0
0
0
0
0
0
0
0
0
0
0
0
0
0
0
0
0
0
0
0
0
0
0
0
0
0
0
0
0
0
0
0
0
0
0
0
0
0
0
0
0
0
0
0
0
0
0
0
0
0
0
0
0
0
0
0
0
0
0
0
0
0
0
0
0
0
0
0
0
0
0
0
0
0
0
0
0
0
0
0
0
0
0
0
0
0
0
0
0
0
0
0
0
0
0
0
0
0
0
0
0
0
0
0
0
0
0
0
0
0
0
0
0
0
0
0
0
0
0
0
0
0
0
0
0
0
0
0
0
0
0
0
0
0
0
0
0
0
0
0
0
0
0
0
0
0
0
0
0
0
0
0
0
0
0
0
0
0
0
0
0
0
0
0
0
0
0
0
0
0
0
0
0
0
0
0
0
0
0
0
0
0
0
0
0
0
0
0
0
0
0
0
0
0
0
0
0
0
0
0
0
0
0
-1.35752e-188
-4.65284e-189
-1.6837e-191
-5.79456e-192
-1.9586e-194
-6.76842e-195
-2.13662e-197
-7.41405e-198
-2.18549e-200
-7.61495e-201
-2.0958e-203
-7.33257e-204
-1.88393e-206
-6.61854e-207
-1.58718e-209
-5.59909e-210
-1.25307e-212
-4.43874e-213
-9.26917e-216
-3.29701e-216
-6.42327e-219
-2.29421e-219
-4.16921e-222
-1.4953e-222
-2.53433e-225
-9.12723e-226
-1.4425e-228
-5.21665e-229
-7.68666e-232
-2.79137e-232
-3.83405e-235
-1.39811e-235
-1.7898e-238
-6.55381e-239
-7.81806e-242
-2.87473e-242
-3.19499e-245
-1.17971e-245
-1.22135e-248
-4.52851e-249
-4.36648e-252
-1.62577e-252
-1.45971e-255
-5.45765e-256
-4.56211e-259
-1.71285e-259
-1.33275e-262
-5.02477e-263
-3.63863e-266
-1.37759e-266
-9.28214e-270
-3.52893e-270
-2.21206e-273
-8.44515e-274
-4.92384e-277
-1.88768e-277
-1.02349e-280
-3.9402e-281
-1.98631e-284
-7.67885e-285
-3.59843e-288
-1.39693e-288
-6.08408e-292
-2.37172e-292
-9.59854e-296
-3.75734e-296
-1.41272e-299
-5.55308e-300
-1.93936e-303
-7.65485e-304
-2.48271e-307
-9.84008e-308
-2.96325e-311
-1.17932e-311
-3.29683e-315
-1.31747e-315
-3.41839e-319
-1.37163e-319
-3.45846e-323
-1.4822e-323
0
0
0
0
0
0
0
0
0
0
0
0
0
0
0
0
0
0
0
0
0
0
0
0
0
0
0
0
0
0
0
0
0
0
0
0
0
0
0
0
0
0
0
0
0
0
0
0
0
0
0
0
0
0
0
0
0
0
0
0
0
0
0
0
0
0
0
0
0
0
0
0
0
0
0
0
0
0
0
0
0
0
0
0
0
0
0
0
0
0
0
0
0
0
0
0
0
0
0
0
0
0
0
0
0
0
0
0
0
0
0
0
0
0
0
0
0
0
0
0
0
0
0
0
0
0
0
0
0
0
0
0
0
0
0
0
0
0
0
0
0
0
0
0
0
0
0
0
0
0
0
0
0
0
0
0
0
0
0
0
0
0
0
0
0
0
0
0
0
0
0
0
0
0
0
0
0
0
0
0
0
0
0
0
0
0
0
0
0
0
0
0
0
0
0
0
0
0
0
0
0
0
0
0
0
0
0
0
0
0
0
0
0
0
0
0
0
0
0
0
0
0
0
0
0
0
0
0
0
0
0
0
0
0
0
0
0
0
0
0
0
0
0
0
0
0
0
-1.05155e-188
-4.20559e-189
-1.3007e-191
-5.22348e-192
-1.50908e-194
-6.08534e-195
-1.64201e-197
-6.64872e-198
-1.67535e-200
-6.8118e-201
-1.60267e-203
-6.54324e-204
-1.43723e-206
-5.89211e-207
-1.20805e-209
-4.97312e-210
-9.5162e-213
-3.93374e-213
-7.0241e-216
-2.91563e-216
-4.85737e-219
-2.02464e-219
-3.1465e-222
-1.31697e-222
-1.90898e-225
-8.02337e-226
-1.08455e-228
-4.57736e-229
-5.7691e-232
-2.44502e-232
-2.87276e-235
-1.2226e-235
-1.33892e-238
-5.72208e-239
-5.83976e-242
-2.50618e-242
-2.38314e-245
-1.02703e-245
-9.09792e-249
-3.93728e-249
-3.24858e-252
-1.41179e-252
-1.08475e-255
-4.73399e-256
-3.38662e-259
-1.48419e-259
-9.88387e-263
-4.34988e-263
-2.69606e-266
-1.19154e-266
-6.87215e-270
-3.05e-270
-1.63656e-273
-7.29405e-274
-3.64053e-277
-1.62942e-277
-7.5632e-281
-3.39941e-281
-1.46713e-284
-6.62211e-285
-2.65685e-288
-1.20427e-288
-4.49068e-292
-2.04409e-292
-7.083e-296
-3.23768e-296
-1.0423e-299
-4.7845e-300
-1.43069e-303
-6.59502e-304
-1.83143e-307
-8.47776e-308
-2.1859e-311
-1.01611e-311
-2.43207e-315
-1.13528e-315
-2.52196e-319
-1.18215e-319
-2.47033e-323
-9.88131e-324
0
0
0
0
0
0
0
0
0
0
0
0
0
0
0
0
0
0
0
0
0
0
0
0
0
0
0
0
0
0
0
0
0
0
0
0
0
0
0
0
0
0
0
0
0
0
0
0
0
0
0
0
0
0
0
0
0
0
0
0
0
0
0
0
0
0
0
0
0
0
0
0
0
0
0
0
0
0
0
0
0
0
0
0
0
0
0
0
0
0
0
0
0
0
0
0
0
0
0
0
0
0
0
0
0
0
0
0
0
0
0
0
0
0
0
0
0
0
0
0
0
0
0
0
0
0
0
0
0
0
0
0
0
0
0
0
0
0
0
0
0
0
0
0
0
0
0
0
0
0
0
0
0
0
0
0
0
0
0
0
0
0
0
0
0
0
0
0
0
0
0
0
0
0
0
0
0
0
0
0
0
0
0
0
0
0
0
0
0
0
0
0
0
0
0
0
0
0
0
0
0
0
0
0
0
0
0
0
0
0
0
0
0
0
0
0
0
0
0
0
0
0
0
0
0
0
0
0
0
0
0
0
0
0
0
0
0
0
0
0
0
0
0
0
0
0
0
-7.87287e-189
-3.59919e-189
-9.71522e-192
-4.45978e-192
-1.12461e-194
-5.1839e-195
-1.22103e-197
-5.65161e-198
-1.24325e-200
-5.77834e-201
-1.18698e-203
-5.5397e-204
-1.06247e-206
-4.97922e-207
-8.91495e-210
-4.1953e-210
-7.01103e-213
-3.31307e-213
-5.16705e-216
-2.45187e-216
-3.56808e-219
-1.70019e-219
-2.30829e-222
-1.10449e-222
-1.39876e-225
-6.72092e-226
-7.93818e-229
-3.83021e-229
-4.21848e-232
-2.04397e-232
-2.09883e-235
-1.02121e-235
-9.77482e-239
-4.77606e-239
-4.26069e-242
-2.09057e-242
-1.73786e-245
-8.56303e-246
-6.63187e-249
-3.28155e-249
-2.36738e-252
-1.17637e-252
-7.90374e-256
-3.94404e-256
-2.46746e-259
-1.2365e-259
-7.20174e-263
-3.62428e-263
-1.96478e-266
-9.92981e-267
-5.00955e-270
-2.54254e-270
-1.19345e-273
-6.08302e-274
-2.65612e-277
-1.35959e-277
-5.52129e-281
-2.83825e-281
-1.07176e-284
-5.53292e-285
-1.94234e-288
-1.00701e-288
-3.28576e-292
-1.71079e-292
-5.18729e-296
-2.71239e-296
-7.6409e-300
-4.01244e-300
-1.04992e-303
-5.53696e-304
-1.34549e-307
-7.12599e-308
-1.60776e-311
-8.55139e-312
-1.79096e-315
-9.56636e-316
-1.85942e-319
-9.9742e-320
-1.97626e-323
-9.88131e-324
0
0
0
0
0
0
0
0
0
0
0
0
0
0
0
0
0
0
0
0
0
0
0
0
0
0
0
0
0
0
0
0
0
0
0
0
0
0
0
0
0
0
0
0
0
0
0
0
0
0
0
0
0
0
0
0
0
0
0
0
0
0
0
0
0
0
0
0
0
0
0
0
0
0
0
0
0
0
0
0
0
0
0
0
0
0
0
0
0
0
0
0
0
0
0
0
0
0
0
0
0
0
0
0
0
0
0
0
0
0
0
0
0
0
0
0
0
0
0
0
0
0
0
0
0
0
0
0
0
0
0
0
0
0
0
0
0
0
0
0
0
0
0
0
0
0
0
0
0
0
0
0
0
0
0
0
0
0
0
0
0
0
0
0
0
0
0
0
0
0
0
0
0
0
0
0
0
0
0
0
0
0
0
0
0
0
0
0
0
0
0
0
0
0
0
0
0
0
0
0
0
0
0
0
0
0
0
0
0
0
0
0
0
0
0
0
0
0
0
0
0
0
0
0
0
0
0
0
0
0
0
0
0
0
0
0
0
0
0
0
0
0
0
0
0
0
0
-5.68078e-189
-2.92223e-189
-6.99538e-192
-3.61336e-192
-8.08196e-195
-4.19192e-195
-8.75923e-198
-4.56204e-198
-8.90428e-201
-4.65686e-201
-8.48898e-204
-4.45812e-204
-7.58881e-207
-4.00198e-207
-6.3605e-210
-3.3682e-210
-4.99739e-213
-2.65742e-213
-3.68015e-216
-1.96514e-216
-2.53976e-219
-1.36187e-219
-1.64231e-222
-8.84328e-223
-9.94919e-226
-5.37978e-226
-5.64571e-229
-3.0656e-229
-3.00038e-232
-1.63606e-232
-1.4931e-235
-8.17598e-236
-6.95643e-239
-3.82531e-239
-3.03382e-242
-1.67534e-242
-1.2383e-245
-6.86711e-246
-4.72948e-249
-2.63392e-249
-1.68996e-252
-9.45166e-253
-5.64854e-256
-3.17258e-256
-1.76567e-259
-9.95939e-260
-5.16073e-263
-2.92339e-263
-1.41013e-266
-8.02212e-267
-3.60138e-270
-2.05757e-270
-8.59508e-274
-4.9317e-274
-1.91653e-277
-1.1044e-277
-3.99187e-281
-2.3102e-281
-7.76498e-285
-4.51317e-285
-1.41031e-288
-8.23237e-289
-2.39114e-292
-1.4018e-292
-3.78369e-296
-2.22777e-296
-5.58663e-300
-3.30355e-300
-7.69506e-304
-4.57003e-304
-9.88555e-308
-5.89638e-308
-1.18418e-311
-7.09381e-312
-1.32239e-315
-7.95607e-316
-1.37632e-319
-8.31661e-320
-1.4822e-323
-9.88131e-324
0
0
0
0
0
0
0
0
0
0
0
0
0
0
0
0
0
0
0
0
0
0
0
0
0
0
0
0
0
0
0
0
0
0
0
0
0
0
0
0
0
0
0
0
0
0
0
0
0
0
0
0
0
0
0
0
0
0
0
0
0
0
0
0
0
0
0
0
0
0
0
0
0
0
0
0
0
0
0
0
0
0
0
0
0
0
0
0
0
0
0
0
0
0
0
0
0
0
0
0
0
0
0
0
0
0
0
0
0
0
0
0
0
0
0
0
0
0
0
0
0
0
0
0
0
0
0
0
0
0
0
0
0
0
0
0
0
0
0
0
0
0
0
0
0
0
0
0
0
0
0
0
0
0
0
0
0
0
0
0
0
0
0
0
0
0
0
0
0
0
0
0
0
0
0
0
0
0
0
0
0
0
0
0
0
0
0
0
0
0
0
0
0
0
0
0
0
0
0
0
0
0
0
0
0
0
0
0
0
0
0
0
0
0
0
0
0
0
0
0
0
0
0
0
0
0
0
0
0
0
0
0
0
0
0
0
0
0
0
0
0
0
0
0
0
0
0
-3.94431e-189
-2.25485e-189
-4.85076e-192
-2.78453e-192
-5.59825e-195
-3.22697e-195
-6.06234e-198
-3.50901e-198
-6.15906e-201
-3.57983e-201
-5.86965e-204
-3.42583e-204
-5.24654e-207
-3.07493e-207
-4.39777e-210
-2.58824e-210
-3.45641e-213
-2.04274e-213
-2.54675e-216
-1.51143e-216
-1.75893e-219
-1.04826e-219
-1.13853e-222
-6.81375e-223
-6.90558e-226
-4.15019e-226
-3.92416e-229
-2.36833e-229
-2.08887e-232
-1.26601e-232
-1.0414e-235
-6.33835e-236
-4.86172e-239
-2.97158e-239
-2.12496e-242
-1.30433e-242
-8.69405e-246
-5.35925e-246
-3.32905e-249
-2.06087e-249
-1.19279e-252
-7.41559e-253
-3.99826e-256
-2.49636e-256
-1.25358e-259
-7.86043e-260
-3.67554e-263
-2.31461e-263
-1.0076e-266
-6.37252e-267
-2.58205e-270
-1.64005e-270
-6.18379e-274
-3.94476e-274
-1.38378e-277
-8.86563e-278
-2.89272e-281
-1.86135e-281
-5.64772e-285
-3.64989e-285
-1.02961e-288
-6.68289e-289
-1.75227e-292
-1.14231e-292
-2.78329e-296
-1.82236e-296
-4.12518e-300
-2.71279e-300
-5.70362e-304
-3.76724e-304
-7.35488e-308
-4.87921e-308
-8.84327e-312
-5.89238e-312
-9.91183e-316
-6.63341e-316
-1.03536e-319
-6.95941e-320
-9.88131e-324
-4.94066e-324
0
0
0
0
0
0
0
0
0
0
0
0
0
0
0
0
0
0
0
0
0
0
0
0
0
0
0
0
0
0
0
0
0
0
0
0
0
0
0
0
0
0
0
0
0
0
0
0
0
0
0
0
0
0
0
0
0
0
0
0
0
0
0
0
0
0
0
0
0
0
0
0
0
0
0
0
0
0
0
0
0
0
0
0
0
0
0
0
0
0
0
0
0
0
0
0
0
0
0
0
0
0
0
0
0
0
0
0
0
0
0
0
0
0
0
0
0
0
0
0
0
0
0
0
0
0
0
0
0
0
0
0
0
0
0
0
0
0
0
0
0
0
0
0
0
0
0
0
0
0
0
0
0
0
0
0
0
0
0
0
0
0
0
0
0
0
0
0
0
0
0
0
0
0
0
0
0
0
0
0
0
0
0
0
0
0
0
0
0
0
0
0
0
0
0
0
0
0
0
0
0
0
0
0
0
0
0
0
0
0
0
0
0
0
0
0
0
0
0
0
0
0
0
0
0
0
0
0
0
0
0
0
0
0
0
0
0
0
0
0
0
0
0
0
0
0
0
-2.65344e-189
-1.66889e-189
-3.26423e-192
-2.06157e-192
-3.76951e-195
-2.39059e-195
-4.08566e-198
-2.60188e-198
-4.15577e-201
-2.65756e-201
-3.96633e-204
-2.547e-204
-3.55148e-207
-2.29014e-207
-2.98297e-210
-1.93159e-210
-2.34984e-213
-1.528e-213
-1.73584e-216
-1.13348e-216
-1.20224e-219
-7.88347e-220
-7.80562e-223
-5.13997e-223
-4.74994e-226
-3.14102e-226
-2.70865e-229
-1.79874e-229
-1.4472e-232
-9.65115e-233
-7.24316e-236
-4.85087e-236
-3.39527e-239
-2.28354e-239
-1.49033e-242
-1.00662e-242
-6.12441e-246
-4.1543e-246
-2.35578e-249
-1.60481e-249
-8.48018e-253
-5.80167e-253
-2.85616e-256
-1.96243e-256
-8.99857e-260
-6.20944e-260
-2.65146e-263
-1.83753e-263
-7.30499e-267
-5.08448e-267
-1.8814e-270
-1.31519e-270
-4.52864e-274
-3.17951e-274
-1.01855e-277
-7.18228e-278
-2.14002e-281
-1.51562e-281
-4.19926e-285
-2.98707e-285
-7.69384e-289
-5.4969e-289
-1.3159e-292
-9.44285e-293
-2.1004e-296
-1.51389e-296
-3.12806e-300
-2.26454e-300
-4.3454e-304
-3.15977e-304
-5.62935e-308
-4.11154e-308
-6.79903e-312
-4.98793e-312
-7.65392e-316
-5.6401e-316
-8.02906e-320
-5.94262e-320
-9.88131e-324
-4.94066e-324
0
0
0
0
0
0
0
0
0
0
0
0
0
0
0
0
0
0
0
0
0
0
0
0
0
0
0
0
0
0
0
0
0
0
0
0
0
0
0
0
0
0
0
0
0
0
0
0
0
0
0
0
0
0
0
0
0
0
0
0
0
0
0
0
0
0
0
0
0
0
0
0
0
0
0
0
0
0
0
0
0
0
0
0
0
0
0
0
0
0
0
0
0
0
0
0
0
0
0
0
0
0
0
0
0
0
0
0
0
0
0
0
0
0
0
0
0
0
0
0
0
0
0
0
0
0
0
0
0
0
0
0
0
0
0
0
0
0
0
0
0
0
0
0
0
0
0
0
0
0
0
0
0
0
0
0
0
0
0
0
0
0
0
0
0
0
0
0
0
0
0
0
0
0
0
0
0
0
0
0
0
0
0
0
0
0
0
0
0
0
0
0
0
0
0
0
0
0
0
0
0
0
0
0
0
0
0
0
0
0
0
0
0
0
0
0
0
0
0
0
0
0
0
0
0
0
0
0
0
0
0
0
0
0
0
0
0
0
0
0
0
0
0
0
0
0
0
-1.75627e-189
-1.20525e-189
-2.16638e-192
-1.49286e-192
-2.5093e-195
-1.73637e-195
-2.72888e-198
-1.89618e-198
-2.78587e-201
-1.94386e-201
-2.66941e-204
-1.87039e-204
-2.40037e-207
-1.68892e-207
-2.02523e-210
-1.43094e-210
-1.60299e-213
-1.13737e-213
-1.19006e-216
-8.47934e-217
-8.28539e-220
-5.92833e-220
-5.40852e-223
-3.88622e-223
-3.30966e-226
-2.38817e-226
-1.8982e-229
-1.3755e-229
-1.02016e-232
-7.42383e-233
-5.13654e-236
-3.75383e-236
-2.42248e-239
-1.77792e-239
-1.0699e-242
-7.88583e-243
-4.42408e-246
-3.27481e-246
-1.7124e-249
-1.273e-249
-6.20287e-253
-4.63108e-253
-2.10225e-256
-1.57632e-256
-6.6647e-260
-5.01898e-260
-1.97596e-263
-1.49449e-263
-5.47739e-267
-4.16076e-267
-1.41926e-270
-1.08281e-270
-3.43668e-274
-2.63343e-274
-7.77493e-278
-5.98382e-278
-1.64296e-281
-1.27003e-281
-3.24207e-285
-2.5172e-285
-5.9727e-289
-4.6578e-289
-1.02698e-292
-8.04439e-293
-1.64774e-296
-1.29641e-296
-2.46625e-300
-1.94904e-300
-3.44264e-304
-2.73281e-304
-4.48064e-308
-3.5727e-308
-5.43587e-312
-4.35383e-312
-6.1456e-316
-4.94442e-316
-6.47325e-320
-5.23117e-320
-4.94066e-324
-4.94066e-324
0
0
0
0
0
0
0
0
0
0
0
0
0
0
0
0
0
0
0
0
0
0
0
0
0
0
0
0
0
0
0
0
0
0
0
0
0
0
0
0
0
0
0
0
0
0
0
0
0
0
0
0
0
0
0
0
0
0
0
0
0
0
0
0
0
0
0
0
0
0
0
0
0
0
0
0
0
0
0
0
0
0
0
0
0
0
0
0
0
0
0
0
0
0
0
0
0
0
0
0
0
0
0
0
0
0
0
0
0
0
0
0
0
0
0
0
0
0
0
0
0
0
0
0
0
0
0
0
0
0
0
0
0
0
0
0
0
0
0
0
0
0
0
0
0
0
0
0
0
0
0
0
0
0
0
0
0
0
0
0
0
0
0
0
0
0
0
0
0
0
0
0
0
0
0
0
0
0
0
0
0
0
0
0
0
0
0
0
0
0
0
0
0
0
0
0
0
0
0
0
0
0
0
0
0
0
0
0
0
0
0
0
0
0
0
0
0
0
0
0
0
0
0
0
0
0
0
0
0
0
0
0
0
0
0
0
0
0
0
0
0
0
0
0
0
0
0
-1.16874e-189
-8.69029e-190
-1.44973e-192
-1.08244e-192
-1.68912e-195
-1.26644e-195
-1.84826e-198
-1.39154e-198
-1.89899e-201
-1.43571e-201
-1.8317e-204
-1.39063e-204
-1.65835e-207
-1.2643e-207
-1.40899e-210
-1.0787e-210
-1.1232e-213
-8.63528e-214
-8.39927e-217
-6.48462e-217
-5.89068e-220
-4.56708e-220
-3.8738e-223
-3.01608e-223
-2.38815e-226
-1.86726e-226
-1.37989e-229
-1.0835e-229
-7.47113e-233
-5.89133e-233
-3.78955e-236
-3.00098e-236
-1.80031e-239
-1.43178e-239
-8.00879e-243
-6.39664e-243
-3.33534e-246
-2.67539e-246
-1.30007e-249
-1.04732e-249
-4.74172e-253
-3.83636e-253
-1.61789e-256
-1.31464e-256
-5.16292e-260
-4.21342e-260
-1.54053e-263
-1.26268e-263
-4.29699e-267
-3.53737e-267
-1.12014e-270
-9.26153e-271
-2.72823e-274
-2.26566e-274
-6.20705e-278
-5.17733e-278
-1.31879e-281
-1.10486e-281
-2.616e-285
-2.20135e-285
-4.84356e-289
-4.09392e-289
-8.36843e-293
-7.10475e-293
-1.34885e-296
-1.15028e-296
-2.02774e-300
-1.73698e-300
-2.84235e-304
-2.44572e-304
-3.71404e-308
-3.21016e-308
-4.52276e-312
-3.92684e-312
-5.1314e-316
-4.47548e-316
-5.42286e-320
-4.75143e-320
-4.94066e-324
-4.94066e-324
0
0
0
0
0
0
0
0
0
0
0
0
0
0
0
0
0
0
0
0
0
0
0
0
0
0
0
0
0
0
0
0
0
0
0
0
0
0
0
0
0
0
0
0
0
0
0
0
0
0
0
0
0
0
0
0
0
0
0
0
0
0
0
0
0
0
0
0
0
0
0
0
0
0
0
0
0
0
0
0
0
0
0
0
0
0
0
0
0
0
0
0
0
0
0
0
0
0
0
0
0
0
0
0
0
0
0
0
0
0
0
0
0
0
0
0
0
0
0
0
0
0
0
0
0
0
0
0
0
0
0
0
0
0
0
0
0
0
0
0
0
0
0
0
0
0
0
0
0
0
0
0
0
0
0
0
0
0
0
0
0
0
0
0
0
0
0
0
0
0
0
0
0
0
0
0
0
0
0
0
0
0
0
0
0
0
0
0
0
0
0
0
0
0
0
0
0
0
0
0
0
0
0
0
0
0
0
0
0
0
0
0
0
0
0
0
0
0
0
0
0
0
0
0
0
0
0
0
0
0
0
0
0
0
0
0
0
0
0
0
0
0
0
0
0
0
0
-8.00503e-190
-6.4111e-190
-1.00121e-192
-8.05194e-193
-1.1764e-195
-9.50031e-196
-1.29826e-198
-1.05281e-198
-1.34539e-201
-1.0956e-201
-1.30895e-204
-1.07039e-204
-1.19534e-207
-9.81588e-208
-1.02435e-210
-8.44714e-211
-8.23576e-214
-6.82007e-214
-6.21083e-217
-5.16491e-217
-4.39225e-220
-3.66802e-220
-2.91214e-223
-2.44226e-223
-1.80976e-226
-1.52419e-226
-1.05393e-229
-8.91399e-230
-5.75011e-233
-4.8841e-233
-2.9384e-236
-2.50652e-236
-1.40609e-239
-1.20456e-239
-6.29899e-243
-5.41933e-243
-2.64109e-246
-2.28204e-246
-1.0362e-249
-8.99193e-250
-3.80316e-253
-3.31458e-253
-1.30551e-256
-1.14273e-256
-4.19027e-260
-3.68375e-260
-1.25726e-263
-1.11011e-263
-3.52553e-267
-3.1265e-267
-9.23699e-271
-8.22746e-271
-2.26066e-274
-2.02245e-274
-5.16694e-278
-4.6429e-278
-1.1026e-281
-9.95154e-282
-2.19622e-285
-1.99101e-285
-4.08227e-289
-3.71734e-289
-7.07926e-293
-6.47523e-293
-1.14505e-296
-1.05205e-296
-1.72703e-300
-1.5939e-300
-2.42832e-304
-2.25124e-304
-3.18222e-308
-2.96353e-308
-3.88564e-312
-3.63505e-312
-4.41968e-316
-4.15349e-316
-4.68177e-320
-4.41991e-320
-4.94066e-324
-4.94066e-324
0
0
0
0
0
0
0
0
0
0
0
0
0
0
0
0
0
0
0
0
0
0
0
0
0
0
0
0
0
0
0
0
0
0
0
0
0
0
0
0
0
0
0
0
0
0
0
0
0
0
0
0
0
0
0
0
0
0
0
0
0
0
0
0
0
0
0
0
0
0
0
0
0
0
0
0
0
0
0
0
0
0
0
0
0
0
0
0
0
0
0
0
0
0
0
0
0
0
0
0
0
0
0
0
0
0
0
0
0
0
0
0
0
0
0
0
0
0
0
0
0
0
0
0
0
0
0
0
0
0
0
0
0
0
0
0
0
0
0
0
0
0
0
0
0
0
0
0
0
0
0
0
0
0
0
0
0
0
0
0
0
0
0
0
0
0
0
0
0
0
0
0
0
0
0
0
0
0
0
0
0
0
0
0
0
0
0
0
0
0
0
0
0
0
0
0
0
0
0
0
0
0
0
0
0
0
0
0
0
0
0
0
0
0
0
0
0
0
0
0
0
0
0
0
0
0
0
0
0
0
0
0
0
0
0
0
0
0
0
0
0
0
0
0
0
0
0
-9.38896e-190
-4.29762e-190
-1.19296e-192
-5.48328e-193
-1.42351e-195
-6.57028e-196
-1.59482e-198
-7.39175e-199
-1.67716e-201
-7.80595e-202
-1.65516e-204
-7.73583e-205
-1.53249e-207
-7.19263e-208
-1.3309e-210
-6.27276e-211
-1.08387e-213
-5.12998e-214
-8.27528e-217
-3.93325e-217
-5.92191e-220
-2.82661e-220
-3.97109e-223
-1.90349e-223
-2.49472e-226
-1.20089e-226
-1.46791e-229
-7.09621e-230
-8.08793e-233
-3.92658e-233
-4.17192e-236
-2.03407e-236
-2.01416e-239
-9.86242e-240
-9.09934e-243
-4.47469e-243
-3.84579e-246
-1.89936e-246
-1.52027e-249
-7.54075e-250
-5.61969e-253
-2.79954e-253
-1.94207e-256
-9.71676e-257
-6.273e-260
-3.15226e-260
-1.89341e-263
-9.55622e-264
-5.33916e-267
-2.70655e-267
-1.40624e-270
-7.15992e-271
-3.45862e-274
-1.76874e-274
-7.94148e-278
-4.07927e-278
-1.70198e-281
-8.78132e-282
-3.40376e-285
-1.76399e-285
-6.35054e-289
-3.30587e-289
-1.10512e-292
-5.77868e-293
-1.79327e-296
-9.41928e-297
-2.7128e-300
-1.43136e-300
-3.8249e-304
-2.02729e-304
-5.0251e-308
-2.67555e-308
-6.15012e-312
-3.28952e-312
-7.01018e-316
-3.76673e-316
-7.44013e-320
-4.01626e-320
-4.94066e-324
-4.94066e-324
0
0
0
0
0
0
0
0
0
0
0
0
0
0
0
0
0
0
0
0
0
0
0
0
0
0
0
0
0
0
0
0
0
0
0
0
0
0
0
0
0
0
0
0
0
0
0
0
0
0
0
0
0
0
0
0
0
0
0
0
0
0
0
0
0
0
0
0
0
0
0
0
0
0
0
0
0
0
0
0
0
0
0
0
0
0
0
0
0
0
0
0
0
0
0
0
0
0
0
0
0
0
0
0
0
0
0
0
0
0
0
0
0
0
0
0
0
0
0
0
0
0
0
0
0
0
0
0
0
0
0
0
0
0
0
0
0
0
0
0
0
0
0
0
0
0
0
0
0
0
0
0
0
0
0
0
0
0
0
0
0
0
0
0
0
0
0
0
0
0
0
0
0
0
0
0
0
0
0
0
0
0
0
0
0
0
0
0
0
0
0
0
0
0
0
0
0
0
0
0
0
0
0
0
0
0
0
0
0
0
0
0
0
0
0
0
0
0
0
0
0
0
0
0
0
0
0
0
0
0
0
0
0
0
0
0
0
0
0
0
0
0
0
0
0
0
0
-6.32407e-190
-3.25742e-190
-8.13425e-193
-4.20727e-193
-9.81932e-196
-5.10006e-196
-1.11221e-198
-5.80085e-199
-1.18175e-201
-6.18942e-202
-1.17763e-204
-6.19367e-205
-1.10034e-207
-5.81153e-208
-9.63808e-211
-5.11185e-211
-7.91227e-214
-4.21422e-214
-6.08644e-217
-3.25545e-217
-4.38616e-220
-2.35596e-220
-2.96054e-223
-1.59696e-223
-1.87124e-226
-1.01367e-226
-1.10731e-229
-6.02397e-230
-6.13335e-233
-3.35091e-233
-3.17924e-236
-1.74439e-236
-1.54189e-239
-8.49642e-240
-6.99518e-243
-3.8712e-243
-2.96801e-246
-1.64962e-246
-1.1775e-249
-6.57287e-250
-4.36712e-253
-2.44833e-253
-1.51382e-256
-8.52384e-257
-4.90347e-260
-2.77305e-260
-1.48386e-263
-8.42836e-264
-4.19413e-267
-2.39275e-267
-1.10703e-270
-6.34347e-271
-2.72805e-274
-1.57012e-274
-6.27508e-278
-3.62764e-278
-1.34699e-281
-7.82164e-282
-2.69767e-285
-1.57347e-285
-5.03958e-289
-2.95261e-289
-8.7797e-293
-5.16704e-293
-1.42608e-296
-8.43071e-297
-2.15917e-300
-1.28224e-300
-3.04652e-304
-1.81743e-304
-4.00488e-308
-2.40006e-308
-4.90387e-312
-2.95229e-312
-5.59174e-316
-3.38189e-316
-5.9362e-320
-3.60668e-320
-4.94066e-324
-4.94066e-324
0
0
0
0
0
0
0
0
0
0
0
0
0
0
0
0
0
0
0
0
0
0
0
0
0
0
0
0
0
0
0
0
0
0
0
0
0
0
0
0
0
0
0
0
0
0
0
0
0
0
0
0
0
0
0
0
0
0
0
0
0
0
0
0
0
0
0
0
0
0
0
0
0
0
0
0
0
0
0
0
0
0
0
0
0
0
0
0
0
0
0
0
0
0
0
0
0
0
0
0
0
0
0
0
0
0
0
0
0
0
0
0
0
0
0
0
0
0
0
0
0
0
0
0
0
0
0
0
0
0
0
0
0
0
0
0
0
0
0
0
0
0
0
0
0
0
0
0
0
0
0
0
0
0
0
0
0
0
0
0
0
0
0
0
0
0
0
0
0
0
0
0
0
0
0
0
0
0
0
0
0
0
0
0
0
0
0
0
0
0
0
0
0
0
0
0
0
0
0
0
0
0
0
0
0
0
0
0
0
0
0
0
0
0
0
0
0
0
0
0
0
0
0
0
0
0
0
0
0
0
0
0
0
0
0
0
0
0
0
0
0
0
0
0
0
0
0
-4.65464e-190
-2.66459e-190
-6.02969e-193
-3.46614e-193
-7.32673e-196
-4.22934e-196
-8.34914e-199
-4.83969e-199
-8.9208e-202
-5.19274e-202
-8.93531e-205
-5.22302e-205
-8.38831e-208
-4.92391e-208
-7.37927e-211
-4.34985e-211
-6.08195e-214
-3.60026e-214
-4.69547e-217
-2.79127e-217
-3.39499e-220
-2.02674e-220
-2.29846e-223
-1.37796e-223
-1.45677e-226
-8.77069e-227
-8.64203e-230
-5.22526e-230
-4.79766e-233
-2.91322e-233
-2.49198e-236
-1.51966e-236
-1.21082e-239
-7.41555e-240
-5.50231e-243
-3.38435e-243
-2.33807e-246
-1.44431e-246
-9.28813e-250
-5.76246e-250
-3.44882e-253
-2.14898e-253
-1.19673e-256
-7.48938e-257
-3.87985e-260
-2.4387e-260
-1.175e-263
-7.4179e-264
-3.32332e-267
-2.10727e-267
-8.77663e-271
-5.5897e-271
-2.16377e-274
-1.38417e-274
-4.97882e-278
-3.19911e-278
-1.06901e-281
-6.89946e-282
-2.1413e-285
-1.38819e-285
-4.00055e-289
-2.60517e-289
-6.96962e-293
-4.55908e-293
-1.132e-296
-7.43829e-297
-1.71367e-300
-1.13116e-300
-2.41744e-304
-1.60297e-304
-3.17707e-308
-2.11629e-308
-3.88897e-312
-2.60239e-312
-4.43276e-316
-2.97996e-316
-4.7035e-320
-3.17684e-320
-4.94066e-324
-4.94066e-324
0
0
0
0
0
0
0
0
0
0
0
0
0
0
0
0
0
0
0
0
0
0
0
0
0
0
0
0
0
0
0
0
0
0
0
0
0
0
0
0
0
0
0
0
0
0
0
0
0
0
0
0
0
0
0
0
0
0
0
0
0
0
0
0
0
0
0
0
0
0
0
0
0
0
0
0
0
0
0
0
0
0
0
0
0
0
0
0
0
0
0
0
0
0
0
0
0
0
0
0
0
0
0
0
0
0
0
0
0
0
0
0
0
0
0
0
0
0
0
0
0
0
0
0
0
0
0
0
0
0
0
0
0
0
0
0
0
0
0
0
0
0
0
0
0
0
0
0
0
0
0
0
0
0
0
0
0
0
0
0
0
0
0
0
0
0
0
0
0
0
0
0
0
0
0
0
0
0
0
0
0
0
0
0
0
0
0
0
0
0
0
0
0
0
0
0
0
0
0
0
0
0
0
0
0
0
0
0
0
0
0
0
0
0
0
0
0
0
0
0
0
0
0
0
0
0
0
0
0
0
0
0
0
0
0
0
0
0
0
0
0
0
0
0
0
0
0
-3.56383e-190
-2.24474e-190
-4.63232e-193
-2.92991e-193
-5.64602e-196
-3.586e-196
-6.45166e-199
-4.11484e-199
-6.9105e-202
-4.42598e-202
-6.93715e-205
-4.4617e-205
-6.52544e-208
-4.21457e-208
-5.75068e-211
-3.72982e-211
-4.74714e-214
-3.09194e-214
-3.67005e-217
-2.40051e-217
-2.65682e-220
-1.74515e-220
-1.80062e-223
-1.18777e-223
-1.14229e-226
-7.56715e-227
-6.78179e-230
-4.51179e-230
-3.76743e-233
-2.51712e-233
-1.95794e-236
-1.31376e-236
-9.51757e-240
-6.41365e-240
-4.32654e-243
-2.92811e-243
-1.83891e-246
-1.24991e-246
-7.30639e-250
-4.98769e-250
-2.71319e-253
-1.86021e-253
-9.41474e-257
-6.48302e-257
-3.0521e-260
-2.11087e-260
-9.24194e-264
-6.41989e-264
-2.61344e-267
-1.82341e-267
-6.90013e-271
-4.83549e-271
-1.70061e-274
-1.19703e-274
-3.91167e-278
-2.7656e-278
-8.3953e-282
-5.96206e-282
-1.68086e-285
-1.19903e-285
-3.13873e-289
-2.24905e-289
-5.46516e-293
-3.93369e-293
-8.87118e-297
-6.41416e-297
-1.34212e-300
-9.748e-301
-1.89203e-304
-1.38047e-304
-2.48479e-308
-1.82127e-308
-3.03932e-312
-2.23796e-312
-3.46163e-316
-2.56067e-316
-3.67041e-320
-2.72774e-320
-4.94066e-324
-4.94066e-324
0
0
0
0
0
0
0
0
0
0
0
0
0
0
0
0
0
0
0
0
0
0
0
0
0
0
0
0
0
0
0
0
0
0
0
0
0
0
0
0
0
0
0
0
0
0
0
0
0
0
0
0
0
0
0
0
0
0
0
0
0
0
0
0
0
0
0
0
0
0
0
0
0
0
0
0
0
0
0
0
0
0
0
0
0
0
0
0
0
0
0
0
0
0
0
0
0
0
0
0
0
0
0
0
0
0
0
0
0
0
0
0
0
0
0
0
0
0
0
0
0
0
0
0
0
0
0
0
0
0
0
0
0
0
0
0
0
0
0
0
0
0
0
0
0
0
0
0
0
0
0
0
0
0
0
0
0
0
0
0
0
0
0
0
0
0
0
0
0
0
0
0
0
0
0
0
0
0
0
0
0
0
0
0
0
0
0
0
0
0
0
0
0
0
0
0
0
0
0
0
0
0
0
0
0
0
0
0
0
0
0
0
0
0
0
0
0
0
0
0
0
0
0
0
0
0
0
0
0
0
0
0
0
0
0
0
0
0
0
0
0
0
0
0
0
0
0
-2.77124e-190
-1.9047e-190
-3.60698e-193
-2.48944e-193
-4.40146e-196
-3.05048e-196
-5.03462e-199
-3.5039e-199
-5.39736e-202
-3.77212e-202
-5.42213e-205
-3.80535e-205
-5.10343e-208
-3.59676e-208
-4.49971e-211