/*--------------------------------*- C++ -*----------------------------------*\
| =========                 |                                                 |
| \\      /  F ield         | OpenFOAM: The Open Source CFD Toolbox           |
|  \\    /   O peration     | Version:  v1912                                 |
|   \\  /    A nd           | Website:  www.openfoam.com                      |
|    \\/     M anipulation  |                                                 |
\*---------------------------------------------------------------------------*/
FoamFile
{
    version     2.0;
    format      ascii;
    class       volScalarField;
    location    "20";
    object      k;
}
// * * * * * * * * * * * * * * * * * * * * * * * * * * * * * * * * * * * * * //

dimensions      [0 2 -2 0 0 0 0];


internalField   nonuniform List<scalar> 
14268
(
1.09692e-06
1.09647e-06
1.09635e-06
1.09623e-06
1.09631e-06
1.0965e-06
1.09692e-06
1.09759e-06
1.09855e-06
1.09977e-06
1.10129e-06
1.10305e-06
1.10505e-06
1.10722e-06
1.10948e-06
1.11191e-06
1.1144e-06
1.11686e-06
1.1192e-06
1.12139e-06
1.12344e-06
1.1253e-06
1.12694e-06
1.12835e-06
1.12948e-06
1.13028e-06
1.13069e-06
1.13081e-06
1.13094e-06
1.13106e-06
1.13114e-06
1.1312e-06
1.1312e-06
1.13118e-06
1.13121e-06
1.13126e-06
1.13132e-06
1.13141e-06
1.13151e-06
1.13163e-06
1.13175e-06
1.1319e-06
1.13206e-06
1.13224e-06
1.13243e-06
1.13262e-06
1.1328e-06
1.13298e-06
1.13315e-06
1.13333e-06
1.13351e-06
1.1337e-06
1.13424e-06
1.13521e-06
1.13657e-06
1.13827e-06
1.14025e-06
1.14247e-06
1.14486e-06
1.14735e-06
1.1499e-06
1.15245e-06
1.15494e-06
1.15734e-06
1.15961e-06
1.16173e-06
1.16366e-06
1.16539e-06
1.16692e-06
1.16823e-06
1.16934e-06
1.17025e-06
1.17096e-06
1.17149e-06
1.17186e-06
1.17208e-06
1.17217e-06
1.17219e-06
1.1722e-06
1.17222e-06
1.17223e-06
1.17224e-06
1.17224e-06
1.17221e-06
1.1722e-06
1.17211e-06
2.53747e-07
2.54867e-07
2.5597e-07
2.57058e-07
2.582e-07
2.59375e-07
2.60612e-07
2.619e-07
2.63237e-07
2.64611e-07
2.66008e-07
2.67403e-07
2.68778e-07
2.70121e-07
2.71408e-07
2.72624e-07
2.73774e-07
2.74861e-07
2.75894e-07
2.7687e-07
2.77796e-07
2.78677e-07
2.79496e-07
2.80232e-07
2.80875e-07
2.81408e-07
2.81822e-07
2.81976e-07
2.81573e-07
2.80571e-07
2.79e-07
2.76908e-07
2.7438e-07
2.7151e-07
2.68423e-07
2.65219e-07
2.61979e-07
2.58772e-07
2.55635e-07
2.52585e-07
2.49626e-07
2.46756e-07
2.43979e-07
2.41309e-07
2.38778e-07
2.36429e-07
2.34317e-07
2.32501e-07
2.31036e-07
2.29971e-07
2.29336e-07
2.29142e-07
2.2909e-07
2.29048e-07
2.29014e-07
2.28989e-07
2.28972e-07
2.28961e-07
2.28955e-07
2.28953e-07
2.28954e-07
2.28957e-07
2.28959e-07
2.2896e-07
2.28959e-07
2.28955e-07
2.28948e-07
2.28935e-07
2.28918e-07
2.28896e-07
2.2887e-07
2.28839e-07
2.28804e-07
2.28765e-07
2.28723e-07
2.28679e-07
2.28634e-07
2.28541e-07
2.28348e-07
2.28072e-07
2.27726e-07
2.27332e-07
2.26894e-07
2.26457e-07
2.26088e-07
2.25702e-07
2.18228e-07
2.18373e-07
2.18485e-07
2.18562e-07
2.18663e-07
2.18757e-07
2.18871e-07
2.18981e-07
2.19093e-07
2.19201e-07
2.19311e-07
2.19421e-07
2.19526e-07
2.19636e-07
2.19743e-07
2.19841e-07
2.19932e-07
2.20019e-07
2.201e-07
2.20171e-07
2.20237e-07
2.20296e-07
2.20349e-07
2.2039e-07
2.20416e-07
2.20427e-07
2.20424e-07
2.20399e-07
2.20326e-07
2.20211e-07
2.20065e-07
2.19891e-07
2.19695e-07
2.1949e-07
2.19288e-07
2.19095e-07
2.18916e-07
2.18753e-07
2.18609e-07
2.18482e-07
2.18372e-07
2.18277e-07
2.18198e-07
2.18132e-07
2.18081e-07
2.18043e-07
2.18017e-07
2.18002e-07
2.17995e-07
2.17993e-07
2.17996e-07
2.18e-07
2.18002e-07
2.18002e-07
2.17997e-07
2.1799e-07
2.17981e-07
2.17971e-07
2.17961e-07
2.1795e-07
2.1794e-07
2.17932e-07
2.17924e-07
2.17917e-07
2.17912e-07
2.17908e-07
2.17905e-07
2.17902e-07
2.17899e-07
2.17897e-07
2.17895e-07
2.17893e-07
2.17891e-07
2.17889e-07
2.17887e-07
2.17884e-07
2.17882e-07
2.17879e-07
2.17874e-07
2.1787e-07
2.17864e-07
2.17859e-07
2.17852e-07
2.17846e-07
2.17846e-07
2.1783e-07
2.17863e-07
2.17893e-07
2.17898e-07
2.17884e-07
2.17883e-07
2.17871e-07
2.17873e-07
2.17866e-07
2.17861e-07
2.17847e-07
2.17836e-07
2.17822e-07
2.17813e-07
2.17815e-07
2.17822e-07
2.17827e-07
2.17835e-07
2.17846e-07
2.17864e-07
2.17884e-07
2.17903e-07
2.17924e-07
2.17942e-07
2.17961e-07
2.17974e-07
2.17981e-07
2.17984e-07
2.17978e-07
2.17959e-07
2.17933e-07
2.17907e-07
2.17883e-07
2.17854e-07
2.17828e-07
2.17808e-07
2.1779e-07
2.17777e-07
2.17768e-07
2.17763e-07
2.1776e-07
2.17762e-07
2.17766e-07
2.17773e-07
2.17783e-07
2.17796e-07
2.17812e-07
2.17831e-07
2.1785e-07
2.17869e-07
2.17886e-07
2.179e-07
2.17911e-07
2.17917e-07
2.1792e-07
2.17919e-07
2.17915e-07
2.17908e-07
2.17899e-07
2.1789e-07
2.17881e-07
2.17872e-07
2.17863e-07
2.17856e-07
2.17849e-07
2.17843e-07
2.17839e-07
2.17835e-07
2.17832e-07
2.1783e-07
2.17827e-07
2.17825e-07
2.17823e-07
2.17821e-07
2.17819e-07
2.17817e-07
2.17815e-07
2.17812e-07
2.17811e-07
2.17808e-07
2.17807e-07
2.17805e-07
2.17804e-07
2.17802e-07
2.17801e-07
2.17801e-07
2.17793e-07
2.17411e-07
2.17466e-07
2.17493e-07
2.17503e-07
2.17531e-07
2.17551e-07
2.17584e-07
2.17616e-07
2.17646e-07
2.1767e-07
2.17694e-07
2.17714e-07
2.17734e-07
2.17759e-07
2.17786e-07
2.17808e-07
2.17827e-07
2.17847e-07
2.17867e-07
2.17882e-07
2.17894e-07
2.17903e-07
2.17912e-07
2.17917e-07
2.17916e-07
2.17906e-07
2.17894e-07
2.17875e-07
2.17847e-07
2.1782e-07
2.178e-07
2.17782e-07
2.17763e-07
2.1775e-07
2.17738e-07
2.17729e-07
2.17723e-07
2.1772e-07
2.17721e-07
2.17725e-07
2.17731e-07
2.17739e-07
2.17749e-07
2.17762e-07
2.17778e-07
2.17797e-07
2.17818e-07
2.17841e-07
2.17863e-07
2.17883e-07
2.17901e-07
2.17914e-07
2.17923e-07
2.17928e-07
2.17929e-07
2.17927e-07
2.17921e-07
2.17914e-07
2.17905e-07
2.17896e-07
2.17886e-07
2.17877e-07
2.17869e-07
2.17862e-07
2.17855e-07
2.1785e-07
2.17845e-07
2.17841e-07
2.17837e-07
2.17834e-07
2.17831e-07
2.17827e-07
2.17825e-07
2.17822e-07
2.17819e-07
2.17816e-07
2.17813e-07
2.17811e-07
2.17808e-07
2.17806e-07
2.17804e-07
2.17803e-07
2.178e-07
2.178e-07
2.17799e-07
2.17795e-07
2.17841e-07
2.1786e-07
2.17853e-07
2.17839e-07
2.17833e-07
2.17825e-07
2.17823e-07
2.1782e-07
2.17816e-07
2.17802e-07
2.17792e-07
2.17776e-07
2.17764e-07
2.17761e-07
2.17763e-07
2.17761e-07
2.1776e-07
2.17762e-07
2.1777e-07
2.17779e-07
2.1779e-07
2.17804e-07
2.17819e-07
2.17833e-07
2.17842e-07
2.17847e-07
2.17845e-07
2.17836e-07
2.17817e-07
2.17797e-07
2.17778e-07
2.17757e-07
2.17737e-07
2.17724e-07
2.17713e-07
2.17705e-07
2.177e-07
2.17698e-07
2.177e-07
2.17704e-07
2.17711e-07
2.1772e-07
2.17731e-07
2.17745e-07
2.17762e-07
2.17783e-07
2.17806e-07
2.17831e-07
2.17856e-07
2.17879e-07
2.17899e-07
2.17915e-07
2.17927e-07
2.17935e-07
2.17938e-07
2.17937e-07
2.17932e-07
2.17925e-07
2.17917e-07
2.17908e-07
2.17898e-07
2.17889e-07
2.1788e-07
2.17872e-07
2.17864e-07
2.17858e-07
2.17852e-07
2.17847e-07
2.17842e-07
2.17837e-07
2.17833e-07
2.17829e-07
2.17825e-07
2.17821e-07
2.17817e-07
2.17814e-07
2.17811e-07
2.17808e-07
2.17805e-07
2.17802e-07
2.178e-07
2.17799e-07
2.17796e-07
2.17796e-07
2.17793e-07
2.17791e-07
2.17559e-07
2.1759e-07
2.17596e-07
2.17599e-07
2.17614e-07
2.17626e-07
2.17647e-07
2.17671e-07
2.17689e-07
2.17704e-07
2.17718e-07
2.17729e-07
2.17743e-07
2.17762e-07
2.1778e-07
2.17793e-07
2.17804e-07
2.17815e-07
2.17827e-07
2.17836e-07
2.17843e-07
2.1785e-07
2.17859e-07
2.17865e-07
2.17865e-07
2.1786e-07
2.17853e-07
2.17836e-07
2.1781e-07
2.17782e-07
2.17755e-07
2.17731e-07
2.17713e-07
2.17698e-07
2.17687e-07
2.1768e-07
2.17675e-07
2.17674e-07
2.17678e-07
2.17683e-07
2.17691e-07
2.17701e-07
2.17713e-07
2.17728e-07
2.17747e-07
2.1777e-07
2.17795e-07
2.17822e-07
2.1785e-07
2.17877e-07
2.179e-07
2.17919e-07
2.17934e-07
2.17944e-07
2.17949e-07
2.17949e-07
2.17946e-07
2.1794e-07
2.17932e-07
2.17923e-07
2.17913e-07
2.17903e-07
2.17894e-07
2.17884e-07
2.17876e-07
2.17868e-07
2.17861e-07
2.17855e-07
2.17849e-07
2.17843e-07
2.17837e-07
2.17832e-07
2.17827e-07
2.17823e-07
2.17818e-07
2.17814e-07
2.1781e-07
2.17807e-07
2.17803e-07
2.17801e-07
2.17798e-07
2.17796e-07
2.17793e-07
2.17793e-07
2.17791e-07
2.1779e-07
2.17798e-07
2.1781e-07
2.17799e-07
2.17789e-07
2.17785e-07
2.17781e-07
2.17779e-07
2.17781e-07
2.17776e-07
2.17767e-07
2.17757e-07
2.17745e-07
2.17735e-07
2.17732e-07
2.1773e-07
2.17724e-07
2.1772e-07
2.17719e-07
2.17727e-07
2.17738e-07
2.17752e-07
2.17771e-07
2.17792e-07
2.17811e-07
2.17824e-07
2.17833e-07
2.17833e-07
2.1782e-07
2.17796e-07
2.17765e-07
2.17731e-07
2.1771e-07
2.17691e-07
2.17676e-07
2.17665e-07
2.17657e-07
2.17652e-07
2.17653e-07
2.17658e-07
2.17664e-07
2.17673e-07
2.17683e-07
2.17696e-07
2.17712e-07
2.17732e-07
2.17756e-07
2.17784e-07
2.17814e-07
2.17845e-07
2.17874e-07
2.17901e-07
2.17923e-07
2.1794e-07
2.17953e-07
2.1796e-07
2.17962e-07
2.1796e-07
2.17954e-07
2.17947e-07
2.17938e-07
2.17927e-07
2.17917e-07
2.17906e-07
2.17896e-07
2.17886e-07
2.17878e-07
2.17869e-07
2.17861e-07
2.17854e-07
2.17847e-07
2.1784e-07
2.17834e-07
2.17828e-07
2.17823e-07
2.17818e-07
2.17813e-07
2.17808e-07
2.17804e-07
2.17801e-07
2.17798e-07
2.17794e-07
2.17793e-07
2.1779e-07
2.1779e-07
2.17787e-07
2.17787e-07
2.1762e-07
2.17635e-07
2.17629e-07
2.17625e-07
2.1763e-07
2.17637e-07
2.17645e-07
2.17662e-07
2.17675e-07
2.17686e-07
2.17697e-07
2.17703e-07
2.17712e-07
2.17724e-07
2.17736e-07
2.17744e-07
2.17753e-07
2.17767e-07
2.17783e-07
2.17798e-07
2.17812e-07
2.17826e-07
2.17841e-07
2.17852e-07
2.17856e-07
2.17853e-07
2.17842e-07
2.17818e-07
2.17783e-07
2.17742e-07
2.17704e-07
2.17685e-07
2.17663e-07
2.17647e-07
2.17635e-07
2.17627e-07
2.17624e-07
2.17627e-07
2.17634e-07
2.17642e-07
2.17652e-07
2.17663e-07
2.17677e-07
2.17694e-07
2.17716e-07
2.17742e-07
2.17772e-07
2.17805e-07
2.17839e-07
2.17872e-07
2.17902e-07
2.17927e-07
2.17948e-07
2.17963e-07
2.17972e-07
2.17976e-07
2.17975e-07
2.1797e-07
2.17963e-07
2.17953e-07
2.17943e-07
2.17932e-07
2.1792e-07
2.17909e-07
2.17898e-07
2.17888e-07
2.17878e-07
2.17869e-07
2.1786e-07
2.17852e-07
2.17845e-07
2.17837e-07
2.1783e-07
2.17824e-07
2.17818e-07
2.17812e-07
2.17807e-07
2.17803e-07
2.17799e-07
2.17795e-07
2.17792e-07
2.1779e-07
2.17787e-07
2.17787e-07
2.17784e-07
2.17785e-07
2.17734e-07
2.17739e-07
2.17726e-07
2.17715e-07
2.17707e-07
2.17705e-07
2.17701e-07
2.17708e-07
2.17714e-07
2.17715e-07
2.17715e-07
2.17708e-07
2.177e-07
2.17702e-07
2.17707e-07
2.17708e-07
2.1771e-07
2.17717e-07
2.1773e-07
2.17745e-07
2.17764e-07
2.17784e-07
2.17805e-07
2.17823e-07
2.17836e-07
2.1784e-07
2.17833e-07
2.17806e-07
2.17765e-07
2.17723e-07
2.17691e-07
2.17669e-07
2.17643e-07
2.17625e-07
2.17613e-07
2.17606e-07
2.17605e-07
2.1761e-07
2.17618e-07
2.17627e-07
2.17638e-07
2.17649e-07
2.17664e-07
2.17681e-07
2.17703e-07
2.1773e-07
2.17763e-07
2.17799e-07
2.17836e-07
2.17872e-07
2.17906e-07
2.17934e-07
2.17958e-07
2.17975e-07
2.17986e-07
2.17991e-07
2.17991e-07
2.17987e-07
2.1798e-07
2.1797e-07
2.17959e-07
2.17947e-07
2.17934e-07
2.17922e-07
2.1791e-07
2.17899e-07
2.17887e-07
2.17877e-07
2.17867e-07
2.17857e-07
2.17848e-07
2.1784e-07
2.17832e-07
2.17824e-07
2.17818e-07
2.17811e-07
2.17806e-07
2.17801e-07
2.17796e-07
2.17792e-07
2.17789e-07
2.17787e-07
2.17783e-07
2.17783e-07
2.1778e-07
2.17782e-07
2.17627e-07
2.17632e-07
2.1762e-07
2.17611e-07
2.17606e-07
2.17611e-07
2.17618e-07
2.17641e-07
2.17662e-07
2.17678e-07
2.17691e-07
2.17696e-07
2.17704e-07
2.17717e-07
2.17733e-07
2.17745e-07
2.17756e-07
2.17767e-07
2.1778e-07
2.17792e-07
2.17805e-07
2.17821e-07
2.17835e-07
2.17844e-07
2.17844e-07
2.17836e-07
2.17817e-07
2.17782e-07
2.17739e-07
2.17704e-07
2.17671e-07
2.17644e-07
2.17611e-07
2.17589e-07
2.17575e-07
2.1757e-07
2.17572e-07
2.17579e-07
2.1759e-07
2.176e-07
2.17612e-07
2.17625e-07
2.1764e-07
2.17659e-07
2.17683e-07
2.17713e-07
2.17748e-07
2.17787e-07
2.17829e-07
2.1787e-07
2.17907e-07
2.17939e-07
2.17966e-07
2.17986e-07
2.18e-07
2.18006e-07
2.18007e-07
2.18004e-07
2.17996e-07
2.17987e-07
2.17975e-07
2.17962e-07
2.17948e-07
2.17935e-07
2.17921e-07
2.17909e-07
2.17896e-07
2.17884e-07
2.17873e-07
2.17862e-07
2.17852e-07
2.17842e-07
2.17833e-07
2.17825e-07
2.17817e-07
2.17811e-07
2.17804e-07
2.17799e-07
2.17794e-07
2.1779e-07
2.17786e-07
2.17784e-07
2.1778e-07
2.1778e-07
2.17777e-07
2.17779e-07
2.17675e-07
2.17675e-07
2.1766e-07
2.17648e-07
2.17638e-07
2.17642e-07
2.17652e-07
2.17673e-07
2.1769e-07
2.177e-07
2.17706e-07
2.17703e-07
2.17704e-07
2.17712e-07
2.17722e-07
2.17727e-07
2.17732e-07
2.17738e-07
2.1775e-07
2.17762e-07
2.17777e-07
2.17794e-07
2.17813e-07
2.1783e-07
2.17837e-07
2.1783e-07
2.17811e-07
2.17778e-07
2.17742e-07
2.17706e-07
2.17667e-07
2.17633e-07
2.17595e-07
2.17571e-07
2.17556e-07
2.17552e-07
2.17558e-07
2.17567e-07
2.17581e-07
2.17593e-07
2.17605e-07
2.17618e-07
2.17633e-07
2.17652e-07
2.17676e-07
2.17707e-07
2.17744e-07
2.17786e-07
2.17831e-07
2.17875e-07
2.17917e-07
2.17952e-07
2.17982e-07
2.18005e-07
2.1802e-07
2.18028e-07
2.1803e-07
2.18026e-07
2.18018e-07
2.18008e-07
2.17995e-07
2.17981e-07
2.17966e-07
2.17951e-07
2.17936e-07
2.17922e-07
2.17908e-07
2.17894e-07
2.17881e-07
2.17869e-07
2.17857e-07
2.17846e-07
2.17836e-07
2.17826e-07
2.17818e-07
2.1781e-07
2.17803e-07
2.17797e-07
2.17791e-07
2.17787e-07
2.17783e-07
2.1778e-07
2.17777e-07
2.17777e-07
2.17773e-07
2.17775e-07
2.17619e-07
2.17615e-07
2.17599e-07
2.17588e-07
2.17585e-07
2.17599e-07
2.17619e-07
2.17648e-07
2.17673e-07
2.1769e-07
2.17703e-07
2.1771e-07
2.17724e-07
2.17737e-07
2.17752e-07
2.17759e-07
2.17762e-07
2.17767e-07
2.17775e-07
2.17778e-07
2.17777e-07
2.17773e-07
2.17769e-07
2.17767e-07
2.17762e-07
2.1775e-07
2.17732e-07
2.17702e-07
2.17669e-07
2.17638e-07
2.17607e-07
2.17578e-07
2.17539e-07
2.1752e-07
2.17512e-07
2.17514e-07
2.17524e-07
2.17537e-07
2.17552e-07
2.17565e-07
2.17577e-07
2.17589e-07
2.17605e-07
2.17625e-07
2.17652e-07
2.17686e-07
2.17728e-07
2.17774e-07
2.17824e-07
2.17874e-07
2.17921e-07
2.17959e-07
2.17993e-07
2.18018e-07
2.18036e-07
2.18045e-07
2.18047e-07
2.18044e-07
2.18037e-07
2.18025e-07
2.18012e-07
2.17996e-07
2.17979e-07
2.17962e-07
2.17945e-07
2.17929e-07
2.17913e-07
2.17898e-07
2.17883e-07
2.1787e-07
2.17857e-07
2.17845e-07
2.17834e-07
2.17824e-07
2.17815e-07
2.17806e-07
2.17799e-07
2.17793e-07
2.17787e-07
2.17783e-07
2.17778e-07
2.17776e-07
2.17773e-07
2.17773e-07
2.1777e-07
2.17772e-07
2.17631e-07
2.17622e-07
2.17605e-07
2.17596e-07
2.17599e-07
2.17618e-07
2.17639e-07
2.17665e-07
2.1769e-07
2.17707e-07
2.17722e-07
2.17733e-07
2.17747e-07
2.1776e-07
2.17771e-07
2.17774e-07
2.17773e-07
2.17768e-07
2.17769e-07
2.1777e-07
2.17771e-07
2.17777e-07
2.17789e-07
2.17805e-07
2.17816e-07
2.17822e-07
2.17816e-07
2.17787e-07
2.17747e-07
2.17717e-07
2.17683e-07
2.17644e-07
2.17595e-07
2.17557e-07
2.17535e-07
2.17522e-07
2.17522e-07
2.17529e-07
2.17542e-07
2.17556e-07
2.17569e-07
2.17583e-07
2.176e-07
2.1762e-07
2.17646e-07
2.17679e-07
2.1772e-07
2.17767e-07
2.17817e-07
2.17868e-07
2.17917e-07
2.17959e-07
2.17995e-07
2.18021e-07
2.18041e-07
2.18052e-07
2.18057e-07
2.18056e-07
2.1805e-07
2.1804e-07
2.18028e-07
2.18013e-07
2.17997e-07
2.1798e-07
2.17964e-07
2.17948e-07
2.17931e-07
2.17915e-07
2.179e-07
2.17885e-07
2.17871e-07
2.17858e-07
2.17846e-07
2.17834e-07
2.17824e-07
2.17814e-07
2.17806e-07
2.17798e-07
2.17791e-07
2.17786e-07
2.17781e-07
2.17778e-07
2.17774e-07
2.17773e-07
2.17769e-07
2.17771e-07
2.176e-07
2.17586e-07
2.1757e-07
2.17566e-07
2.17574e-07
2.17598e-07
2.17622e-07
2.17651e-07
2.17681e-07
2.17704e-07
2.17728e-07
2.17749e-07
2.17768e-07
2.17784e-07
2.17797e-07
2.17804e-07
2.17804e-07
2.17799e-07
2.17793e-07
2.17787e-07
2.17785e-07
2.17793e-07
2.17809e-07
2.17829e-07
2.17843e-07
2.17851e-07
2.17851e-07
2.17825e-07
2.17784e-07
2.1775e-07
2.17707e-07
2.17659e-07
2.17603e-07
2.17557e-07
2.17525e-07
2.17506e-07
2.17502e-07
2.17509e-07
2.17525e-07
2.17544e-07
2.1756e-07
2.17576e-07
2.17594e-07
2.17615e-07
2.17642e-07
2.17677e-07
2.17721e-07
2.1777e-07
2.17824e-07
2.17878e-07
2.1793e-07
2.17974e-07
2.18011e-07
2.18038e-07
2.18058e-07
2.18069e-07
2.18072e-07
2.18069e-07
2.18061e-07
2.1805e-07
2.18035e-07
2.18018e-07
2.18002e-07
2.17985e-07
2.17967e-07
2.17949e-07
2.17932e-07
2.17916e-07
2.179e-07
2.17884e-07
2.1787e-07
2.17857e-07
2.17844e-07
2.17832e-07
2.17821e-07
2.17811e-07
2.17802e-07
2.17795e-07
2.17788e-07
2.17782e-07
2.17777e-07
2.17774e-07
2.1777e-07
2.17769e-07
2.17766e-07
2.17768e-07
2.17607e-07
2.17591e-07
2.17577e-07
2.17577e-07
2.17583e-07
2.17607e-07
2.17631e-07
2.17659e-07
2.1769e-07
2.17715e-07
2.17739e-07
2.17758e-07
2.17772e-07
2.17781e-07
2.17787e-07
2.17784e-07
2.17776e-07
2.17765e-07
2.17754e-07
2.17745e-07
2.17747e-07
2.1776e-07
2.17783e-07
2.178e-07
2.17802e-07
2.17792e-07
2.17785e-07
2.17761e-07
2.17722e-07
2.17692e-07
2.17647e-07
2.17598e-07
2.17536e-07
2.17503e-07
2.17463e-07
2.17455e-07
2.17463e-07
2.17482e-07
2.17505e-07
2.1753e-07
2.17546e-07
2.1756e-07
2.17577e-07
2.17597e-07
2.17626e-07
2.17665e-07
2.17714e-07
2.17768e-07
2.17828e-07
2.17888e-07
2.17944e-07
2.1799e-07
2.1803e-07
2.18062e-07
2.18082e-07
2.18093e-07
2.18097e-07
2.18093e-07
2.18083e-07
2.1807e-07
2.18052e-07
2.18033e-07
2.18013e-07
2.17992e-07
2.17971e-07
2.17951e-07
2.17931e-07
2.17912e-07
2.17894e-07
2.17878e-07
2.17863e-07
2.17848e-07
2.17834e-07
2.17822e-07
2.17811e-07
2.17801e-07
2.17793e-07
2.17786e-07
2.1778e-07
2.17775e-07
2.1777e-07
2.17768e-07
2.17765e-07
2.17764e-07
2.17762e-07
2.17764e-07
2.17595e-07
2.17575e-07
2.17564e-07
2.17567e-07
2.17573e-07
2.17598e-07
2.17622e-07
2.17651e-07
2.17686e-07
2.1772e-07
2.1775e-07
2.17769e-07
2.1778e-07
2.17786e-07
2.17786e-07
2.17776e-07
2.1776e-07
2.17743e-07
2.17726e-07
2.17714e-07
2.17717e-07
2.17734e-07
2.17758e-07
2.17782e-07
2.17795e-07
2.17799e-07
2.17796e-07
2.17762e-07
2.17717e-07
2.17675e-07
2.17621e-07
2.17583e-07
2.17511e-07
2.17481e-07
2.17453e-07
2.17453e-07
2.17466e-07
2.17487e-07
2.1751e-07
2.17533e-07
2.17549e-07
2.1756e-07
2.17574e-07
2.17595e-07
2.17624e-07
2.17661e-07
2.17708e-07
2.17763e-07
2.17822e-07
2.17884e-07
2.1794e-07
2.17988e-07
2.18032e-07
2.18065e-07
2.18087e-07
2.18099e-07
2.18104e-07
2.18101e-07
2.18092e-07
2.18079e-07
2.18063e-07
2.18045e-07
2.18024e-07
2.18003e-07
2.17983e-07
2.17963e-07
2.17943e-07
2.17924e-07
2.17906e-07
2.17888e-07
2.17872e-07
2.17857e-07
2.17842e-07
2.1783e-07
2.17818e-07
2.17807e-07
2.17798e-07
2.1779e-07
2.17783e-07
2.17778e-07
2.17773e-07
2.1777e-07
2.17766e-07
2.17765e-07
2.17762e-07
2.17764e-07
2.17595e-07
2.17572e-07
2.17566e-07
2.17574e-07
2.17579e-07
2.17603e-07
2.1763e-07
2.17664e-07
2.17703e-07
2.1774e-07
2.17768e-07
2.1778e-07
2.17785e-07
2.17783e-07
2.1777e-07
2.1775e-07
2.17731e-07
2.17713e-07
2.177e-07
2.17691e-07
2.17698e-07
2.17719e-07
2.17747e-07
2.17776e-07
2.17801e-07
2.1782e-07
2.17817e-07
2.17778e-07
2.17721e-07
2.17682e-07
2.17631e-07
2.17585e-07
2.17518e-07
2.17477e-07
2.17457e-07
2.17455e-07
2.17467e-07
2.17487e-07
2.17509e-07
2.17529e-07
2.17546e-07
2.17554e-07
2.1757e-07
2.17589e-07
2.17617e-07
2.17654e-07
2.17704e-07
2.17759e-07
2.17823e-07
2.17884e-07
2.17945e-07
2.17995e-07
2.1804e-07
2.18073e-07
2.18095e-07
2.18107e-07
2.18111e-07
2.18108e-07
2.18099e-07
2.18085e-07
2.18069e-07
2.18049e-07
2.18029e-07
2.18007e-07
2.17986e-07
2.17966e-07
2.17945e-07
2.17925e-07
2.17906e-07
2.17888e-07
2.17872e-07
2.17856e-07
2.17842e-07
2.17829e-07
2.17817e-07
2.17807e-07
2.17797e-07
2.17789e-07
2.17782e-07
2.17776e-07
2.17771e-07
2.17768e-07
2.17765e-07
2.17764e-07
2.17761e-07
2.17763e-07
2.17583e-07
2.17561e-07
2.17559e-07
2.17569e-07
2.17574e-07
2.17599e-07
2.17629e-07
2.17674e-07
2.17721e-07
2.17758e-07
2.17781e-07
2.17788e-07
2.1779e-07
2.17784e-07
2.17763e-07
2.17738e-07
2.17718e-07
2.177e-07
2.17688e-07
2.1768e-07
2.17688e-07
2.1771e-07
2.17738e-07
2.17769e-07
2.17795e-07
2.17812e-07
2.17807e-07
2.17762e-07
2.17727e-07
2.17674e-07
2.17615e-07
2.17568e-07
2.1751e-07
2.17465e-07
2.17448e-07
2.17445e-07
2.17458e-07
2.17479e-07
2.17503e-07
2.17523e-07
2.17541e-07
2.1755e-07
2.17565e-07
2.17584e-07
2.17613e-07
2.17651e-07
2.17701e-07
2.1776e-07
2.17826e-07
2.17889e-07
2.17952e-07
2.18003e-07
2.18049e-07
2.18083e-07
2.18106e-07
2.18119e-07
2.18124e-07
2.1812e-07
2.18111e-07
2.18096e-07
2.18077e-07
2.18057e-07
2.18036e-07
2.18014e-07
2.17992e-07
2.1797e-07
2.17949e-07
2.17928e-07
2.17909e-07
2.1789e-07
2.17873e-07
2.17857e-07
2.17842e-07
2.17829e-07
2.17816e-07
2.17805e-07
2.17796e-07
2.17788e-07
2.1778e-07
2.17775e-07
2.1777e-07
2.17766e-07
2.17763e-07
2.17763e-07
2.1776e-07
2.17761e-07
2.17578e-07
2.17558e-07
2.17561e-07
2.17573e-07
2.17582e-07
2.17609e-07
2.17648e-07
2.17696e-07
2.17739e-07
2.17771e-07
2.17788e-07
2.1779e-07
2.17783e-07
2.17765e-07
2.17742e-07
2.17721e-07
2.17704e-07
2.1769e-07
2.17684e-07
2.17685e-07
2.17698e-07
2.17724e-07
2.17755e-07
2.17783e-07
2.17805e-07
2.17821e-07
2.17815e-07
2.17773e-07
2.17698e-07
2.17665e-07
2.17624e-07
2.17543e-07
2.17494e-07
2.17453e-07
2.17432e-07
2.17429e-07
2.17445e-07
2.17468e-07
2.17494e-07
2.17515e-07
2.17532e-07
2.17545e-07
2.17559e-07
2.17579e-07
2.17606e-07
2.17644e-07
2.17689e-07
2.17755e-07
2.17821e-07
2.17893e-07
2.17957e-07
2.18008e-07
2.18054e-07
2.18089e-07
2.18114e-07
2.18129e-07
2.18133e-07
2.1813e-07
2.18121e-07
2.18106e-07
2.18086e-07
2.18064e-07
2.18041e-07
2.18018e-07
2.17995e-07
2.17972e-07
2.1795e-07
2.17929e-07
2.17909e-07
2.1789e-07
2.17873e-07
2.17857e-07
2.17841e-07
2.17827e-07
2.17815e-07
2.17804e-07
2.17794e-07
2.17786e-07
2.17779e-07
2.17774e-07
2.17769e-07
2.17765e-07
2.17762e-07
2.17762e-07
2.17759e-07
2.17761e-07
2.1757e-07
2.17555e-07
2.1756e-07
2.17574e-07
2.17586e-07
2.1762e-07
2.17667e-07
2.17712e-07
2.17749e-07
2.17775e-07
2.17788e-07
2.17785e-07
2.1777e-07
2.17746e-07
2.17724e-07
2.17707e-07
2.17691e-07
2.17675e-07
2.17665e-07
2.17665e-07
2.17677e-07
2.177e-07
2.17727e-07
2.17756e-07
2.17783e-07
2.178e-07
2.17791e-07
2.17749e-07
2.17724e-07
2.17657e-07
2.17584e-07
2.17544e-07
2.17476e-07
2.17439e-07
2.17419e-07
2.1742e-07
2.17438e-07
2.17463e-07
2.17491e-07
2.17514e-07
2.1753e-07
2.17544e-07
2.17555e-07
2.17573e-07
2.17593e-07
2.17644e-07
2.17697e-07
2.17761e-07
2.17822e-07
2.17902e-07
2.17963e-07
2.18016e-07
2.18064e-07
2.18098e-07
2.18123e-07
2.18138e-07
2.18141e-07
2.18137e-07
2.18128e-07
2.18114e-07
2.18096e-07
2.18077e-07
2.18054e-07
2.1803e-07
2.18004e-07
2.1798e-07
2.17957e-07
2.17935e-07
2.17913e-07
2.17893e-07
2.17874e-07
2.17856e-07
2.1784e-07
2.17827e-07
2.17813e-07
2.17802e-07
2.17791e-07
2.17782e-07
2.17774e-07
2.17768e-07
2.17763e-07
2.1776e-07
2.17756e-07
2.17755e-07
2.17752e-07
2.17755e-07
2.17567e-07
2.17558e-07
2.17566e-07
2.17584e-07
2.17604e-07
2.1764e-07
2.17682e-07
2.17722e-07
2.17753e-07
2.17775e-07
2.1778e-07
2.17764e-07
2.1775e-07
2.17728e-07
2.1771e-07
2.17695e-07
2.17685e-07
2.17672e-07
2.17668e-07
2.17674e-07
2.17695e-07
2.17724e-07
2.1776e-07
2.17794e-07
2.17825e-07
2.17843e-07
2.17834e-07
2.17778e-07
2.17701e-07
2.17664e-07
2.17593e-07
2.17512e-07
2.1747e-07
2.17422e-07
2.17405e-07
2.17407e-07
2.17425e-07
2.17453e-07
2.17481e-07
2.17504e-07
2.17518e-07
2.17528e-07
2.17535e-07
2.17549e-07
2.17582e-07
2.17632e-07
2.17701e-07
2.17757e-07
2.17831e-07
2.17882e-07
2.17957e-07
2.18017e-07
2.1807e-07
2.18109e-07
2.18131e-07
2.18143e-07
2.18146e-07
2.18138e-07
2.18126e-07
2.18112e-07
2.18099e-07
2.18079e-07
2.18057e-07
2.18034e-07
2.18009e-07
2.17985e-07
2.17961e-07
2.17939e-07
2.17918e-07
2.17898e-07
2.17879e-07
2.17862e-07
2.17847e-07
2.17832e-07
2.1782e-07
2.17809e-07
2.178e-07
2.17791e-07
2.17784e-07
2.17778e-07
2.17773e-07
2.1777e-07
2.17767e-07
2.17766e-07
2.17764e-07
2.17766e-07
2.17567e-07
2.17563e-07
2.17575e-07
2.17597e-07
2.17621e-07
2.17652e-07
2.17688e-07
2.17723e-07
2.17749e-07
2.17764e-07
2.17758e-07
2.17743e-07
2.17732e-07
2.17714e-07
2.17699e-07
2.17683e-07
2.17666e-07
2.17653e-07
2.17642e-07
2.17643e-07
2.17654e-07
2.17678e-07
2.17704e-07
2.17735e-07
2.17772e-07
2.17786e-07
2.17767e-07
2.1776e-07
2.17707e-07
2.17635e-07
2.17609e-07
2.1753e-07
2.17452e-07
2.17418e-07
2.17396e-07
2.17398e-07
2.17418e-07
2.1745e-07
2.1748e-07
2.17504e-07
2.17521e-07
2.17526e-07
2.17538e-07
2.17555e-07
2.17627e-07
2.17655e-07
2.17695e-07
2.1776e-07
2.17833e-07
2.17906e-07
2.17975e-07
2.18032e-07
2.18083e-07
2.18122e-07
2.18149e-07
2.18164e-07
2.1817e-07
2.18164e-07
2.18154e-07
2.18135e-07
2.18107e-07
2.18079e-07
2.18054e-07
2.18031e-07
2.18012e-07
2.17988e-07
2.17963e-07
2.17938e-07
2.17915e-07
2.17897e-07
2.17878e-07
2.17859e-07
2.1784e-07
2.17824e-07
2.17807e-07
2.17792e-07
2.17781e-07
2.17772e-07
2.17765e-07
2.17759e-07
2.17753e-07
2.17749e-07
2.17746e-07
2.17745e-07
2.17743e-07
2.17745e-07
2.17567e-07
2.17561e-07
2.17575e-07
2.17598e-07
2.17625e-07
2.17654e-07
2.17686e-07
2.17719e-07
2.1774e-07
2.17749e-07
2.17743e-07
2.17732e-07
2.1772e-07
2.17705e-07
2.17698e-07
2.17682e-07
2.17673e-07
2.17662e-07
2.17662e-07
2.17669e-07
2.17694e-07
2.17725e-07
2.17769e-07
2.17816e-07
2.17862e-07
2.17885e-07
2.17866e-07
2.17786e-07
2.17766e-07
2.17678e-07
2.1757e-07
2.17506e-07
2.17444e-07
2.17404e-07
2.17385e-07
2.17389e-07
2.17409e-07
2.17438e-07
2.17468e-07
2.17494e-07
2.17504e-07
2.17491e-07
2.17533e-07
2.17558e-07
2.17557e-07
2.17601e-07
2.17642e-07
2.17725e-07
2.17796e-07
2.17885e-07
2.17964e-07
2.18027e-07
2.18081e-07
2.18121e-07
2.18151e-07
2.18168e-07
2.18175e-07
2.18175e-07
2.18166e-07
2.18148e-07
2.18127e-07
2.18102e-07
2.18072e-07
2.18042e-07
2.18013e-07
2.17988e-07
2.17963e-07
2.17939e-07
2.17917e-07
2.17891e-07
2.17871e-07
2.17854e-07
2.17842e-07
2.1783e-07
2.17821e-07
2.17814e-07
2.17804e-07
2.17794e-07
2.17787e-07
2.1778e-07
2.17776e-07
2.17773e-07
2.1777e-07
2.17769e-07
2.17767e-07
2.1777e-07
2.17559e-07
2.17551e-07
2.17569e-07
2.17592e-07
2.17614e-07
2.17639e-07
2.17666e-07
2.17698e-07
2.17717e-07
2.17727e-07
2.17728e-07
2.17722e-07
2.17711e-07
2.17698e-07
2.17683e-07
2.17668e-07
2.17651e-07
2.17642e-07
2.17632e-07
2.17629e-07
2.17636e-07
2.17662e-07
2.17685e-07
2.17715e-07
2.17743e-07
2.17756e-07
2.17758e-07
2.17781e-07
2.1768e-07
2.1766e-07
2.17617e-07
2.175e-07
2.17411e-07
2.17402e-07
2.17365e-07
2.17367e-07
2.17391e-07
2.1743e-07
2.17467e-07
2.17483e-07
2.17508e-07
2.1753e-07
2.1756e-07
2.17572e-07
2.17593e-07
2.1766e-07
2.17727e-07
2.17783e-07
2.1786e-07
2.17919e-07
2.17978e-07
2.18035e-07
2.18091e-07
2.18131e-07
2.18156e-07
2.18172e-07
2.18177e-07
2.18178e-07
2.18169e-07
2.18153e-07
2.18135e-07
2.18116e-07
2.18096e-07
2.18072e-07
2.18044e-07
2.18015e-07
2.17988e-07
2.17966e-07
2.17944e-07
2.17924e-07
2.17902e-07
2.1788e-07
2.17854e-07
2.17833e-07
2.17813e-07
2.17794e-07
2.17781e-07
2.17771e-07
2.17762e-07
2.17755e-07
2.17748e-07
2.17744e-07
2.1774e-07
2.17739e-07
2.17735e-07
2.17737e-07
2.17477e-07
2.17468e-07
2.17486e-07
2.17505e-07
2.17531e-07
2.1756e-07
2.17591e-07
2.17637e-07
2.1767e-07
2.17693e-07
2.17706e-07
2.1771e-07
2.17704e-07
2.17696e-07
2.17688e-07
2.17675e-07
2.17668e-07
2.17663e-07
2.17663e-07
2.17672e-07
2.17699e-07
2.17728e-07
2.1778e-07
2.17831e-07
2.17888e-07
2.1791e-07
2.17863e-07
2.17867e-07
2.17801e-07
2.17703e-07
2.17587e-07
2.1752e-07
2.17389e-07
2.17384e-07
2.17351e-07
2.17359e-07
2.17384e-07
2.1742e-07
2.17452e-07
2.17454e-07
2.17449e-07
2.17478e-07
2.17454e-07
2.17471e-07
2.17506e-07
2.17532e-07
2.17582e-07
2.17659e-07
2.17747e-07
2.17852e-07
2.17951e-07
2.18027e-07
2.18087e-07
2.18132e-07
2.18161e-07
2.1818e-07
2.18186e-07
2.1818e-07
2.18168e-07
2.18149e-07
2.18125e-07
2.18094e-07
2.18061e-07
2.1803e-07
2.18002e-07
2.17976e-07
2.17949e-07
2.17918e-07
2.17888e-07
2.17861e-07
2.17841e-07
2.17825e-07
2.17812e-07
2.17801e-07
2.17792e-07
2.17784e-07
2.17775e-07
2.17767e-07
2.17761e-07
2.17756e-07
2.17753e-07
2.17751e-07
2.17749e-07
2.1775e-07
2.1775e-07
2.17755e-07
2.17191e-07
2.17192e-07
2.1721e-07
2.17204e-07
2.17216e-07
2.17239e-07
2.17292e-07
2.17385e-07
2.17478e-07
2.17548e-07
2.17595e-07
2.17619e-07
2.17631e-07
2.17641e-07
2.17641e-07
2.17647e-07
2.17617e-07
2.17626e-07
2.17619e-07
2.17617e-07
2.17626e-07
2.17663e-07
2.17691e-07
2.17732e-07
2.17759e-07
2.17766e-07
2.17806e-07
2.1774e-07
2.17703e-07
2.17647e-07
2.17534e-07
2.17503e-07
2.17435e-07
2.17357e-07
2.17337e-07
2.17337e-07
2.17364e-07
2.17405e-07
2.17435e-07
2.17492e-07
2.17495e-07
2.17512e-07
2.17539e-07
2.17574e-07
2.17593e-07
2.17643e-07
2.17696e-07
2.17757e-07
2.17818e-07
2.17872e-07
2.17933e-07
2.17986e-07
2.18053e-07
2.18109e-07
2.18148e-07
2.18172e-07
2.18183e-07
2.18184e-07
2.18178e-07
2.18165e-07
2.18149e-07
2.18134e-07
2.18117e-07
2.18098e-07
2.18077e-07
2.18055e-07
2.18036e-07
2.18021e-07
2.18008e-07
2.17993e-07
2.17973e-07
2.17954e-07
2.17935e-07
2.17916e-07
2.17897e-07
2.17879e-07
2.17863e-07
2.1785e-07
2.17837e-07
2.17827e-07
2.17817e-07
2.1781e-07
2.17803e-07
2.17799e-07
2.17791e-07
2.17789e-07
2.1604e-07
2.16075e-07
2.16074e-07
2.16042e-07
2.16012e-07
2.16087e-07
2.16254e-07
2.16525e-07
2.16811e-07
2.17047e-07
2.17219e-07
2.17336e-07
2.17423e-07
2.17493e-07
2.17559e-07
2.17592e-07
2.17608e-07
2.17643e-07
2.17653e-07
2.17669e-07
2.17711e-07
2.17738e-07
2.17798e-07
2.1784e-07
2.17877e-07
2.17876e-07
2.1787e-07
2.17851e-07
2.17773e-07
2.17697e-07
2.17571e-07
2.17454e-07
2.17426e-07
2.17299e-07
2.17301e-07
2.17295e-07
2.17311e-07
2.17325e-07
2.17325e-07
2.17333e-07
2.17353e-07
2.17328e-07
2.17327e-07
2.17288e-07
2.17269e-07
2.17285e-07
2.17328e-07
2.17378e-07
2.17467e-07
2.17572e-07
2.17673e-07
2.17776e-07
2.17871e-07
2.17966e-07
2.1805e-07
2.18108e-07
2.1814e-07
2.18153e-07
2.18148e-07
2.1813e-07
2.18103e-07
2.18069e-07
2.18032e-07
2.17993e-07
2.17951e-07
2.1791e-07
2.17866e-07
2.17821e-07
2.17779e-07
2.17741e-07
2.17712e-07
2.17683e-07
2.17662e-07
2.17646e-07
2.17635e-07
2.17627e-07
2.17623e-07
2.1762e-07
2.17618e-07
2.17618e-07
2.17619e-07
2.1762e-07
2.17623e-07
2.17628e-07
2.17633e-07
2.17644e-07
2.12369e-07
2.12607e-07
2.12615e-07
2.12458e-07
2.12367e-07
2.12459e-07
2.12916e-07
2.13677e-07
2.14553e-07
2.15298e-07
2.15842e-07
2.16231e-07
2.16535e-07
2.16791e-07
2.16983e-07
2.17115e-07
2.17243e-07
2.17315e-07
2.17357e-07
2.17395e-07
2.17414e-07
2.17517e-07
2.17596e-07
2.17702e-07
2.17771e-07
2.17868e-07
2.17866e-07
2.17872e-07
2.1777e-07
2.17632e-07
2.17496e-07
2.17334e-07
2.17306e-07
2.17218e-07
2.17184e-07
2.17162e-07
2.17161e-07
2.17167e-07
2.17161e-07
2.17109e-07
2.17103e-07
2.17022e-07
2.16963e-07
2.16884e-07
2.16813e-07