/*--------------------------------*- C++ -*----------------------------------*\
| =========                 |                                                 |
| \\      /  F ield         | OpenFOAM: The Open Source CFD Toolbox           |
|  \\    /   O peration     | Version:  v1912                                 |
|   \\  /    A nd           | Website:  www.openfoam.com                      |
|    \\/     M anipulation  |                                                 |
\*---------------------------------------------------------------------------*/
FoamFile
{
    version     2.0;
    format      ascii;
    class       volScalarField;
    location    "20";
    object      p;
}
// * * * * * * * * * * * * * * * * * * * * * * * * * * * * * * * * * * * * * //

dimensions      [1 -1 -2 0 0 0 0];


internalField   nonuniform List<scalar> 
14268
(
157487
157548
157648
157804
157999
158244
158533
158859
159224
159623
160054
160507
160959
161457
161925
162388
162833
163255
163650
164014
164343
164634
164884
165089
165244
165346
165388
165368
165284
165136
164924
164654
164331
163962
163556
163123
162672
162211
161750
161292
160844
160410
159996
159606
159245
158918
158631
158389
158198
158059
157976
157951
157981
158065
158198
158377
158594
158842
159116
159407
159709
160015
160319
160616
160901
161170
161421
161650
161856
162038
162197
162330
162440
162527
162592
162637
162662
162671
162664
162644
162612
162570
162520
162463
162402
162336
150119
150180
150278
150435
150631
150876
151166
151492
151855
152251
152678
153126
153572
154061
154524
154980
155420
155837
156228
156588
156914
157204
157452
157656
157811
157912
157955
157935
157851
157702
157491
157220
156895
156525
156118
155683
155231
154770
154307
153849
153400
152965
152551
152160
151798
151470
151183
150941
150748
150609
150526
150501
150531
150616
150750
150929
151147
151397
151672
151964
152267
152574
152878
153176
153461
153731
153982
154211
154418
154600
154758
154892
155002
155089
155153
155198
155223
155232
155225
155204
155172
155130
155079
155022
154960
154895
142678
142740
142839
142995
143192
143436
143727
144053
144417
144813
145241
145689
146137
146626
147090
147547
147987
148405
148796
149157
149484
149774
150024
150229
150385
150487
150531
150511
150428
150278
150066
149793
149466
149093
148683
148246
147791
147328
146863
146403
145953
145518
145101
144709
144346
144017
143728
143485
143291
143152
143068
143043
143074
143160
143296
143476
143696
143948
144225
144519
144823
145132
145438
145737
146024
146294
146546
146776
146983
147166
147324
147457
147567
147653
147718
147762
147787
147794
147787
147766
147733
147690
147639
147582
147520
147454
135279
135343
135443
135601
135798
136042
136334
136660
137024
137419
137845
138290
138736
139220
139681
140135
140572
140987
141376
141735
142062
142352
142602
142808
142965
143069
143115
143096
143013
142863
142649
142373
142043
141666
141252
140811
140352
139886
139418
138956
138504
138066
137648
137254
136889
136558
136267
136021
135826
135686
135602
135577
135610
135697
135835
136018
136240
136495
136775
137072
137379
137691
137999
138300
138588
138860
139113
139344
139551
139734
139893
140026
140135
140221
140285
140328
140352
140359
140351
140329
140296
140252
140201
140142
140080
140013
127835
127901
128003
128160
128357
128602
128892
129220
129585
129981
130409
130856
131304
131790
132253
132708
133147
133563
133953
134314
134641
134933
135185
135394
135554
135660
135708
135691
135608
135457
135241
134962
134627
134244
133824
133377
132914
132443
131972
131507
131052
130612
130191
129795
129426
129092
128798
128551
128354
128212
128128
128103
128137
128226
128367
128554
128780
129039
129322
129623
129934
130249
130561
130865
131155
131429
131683
131915
132123
132307
132465
132598
132707
132792
132855
132897
132921
132927
132917
132894
132860
132815
132763
132704
132640
132572
120411
120481
120585
120744
120942
121186
121477
121806
122171
122569
122997
123444
123893
124376
124839
125294
125732
126148
126538
126898
127226
127519
127774
127985
128149
128259
128309
128294
128212
128060
127841
127557
127216
126827
126400
125946
125476
125000
124525
124056
123598
123155
122731
122331
121959
121621
121323
121072
120873
120729
120645
120621
120656
120748
120892
121083
121314
121578
121867
122173
122489
122808
123124
123431
123724
124001
124257
124490
124699
124883
125041
125174
125282
125366
125428
125469
125491
125496
125485
125461
125425
125380
125326
125266
125201
125132
112960
113034
113140
113298
113496
113741
114031
114361
114728
115128
115560
116010
116462
116948
117415
117872
118313
118730
119122
119485
119815
120111
120369
120584
120751
120866
120920
120908
120826
120673
120450
120161
119813
119415
118979
118517
118039
117556
117076
116602
116140
115694
115266
114862
114486
114144
113842
113587
113384
113239
113153
113130
113167
113263
113411
113607
113844
114114
114409
114721
115042
115367
115687
115998
116295
116575
116833
117068
117278
117462
117620
117753
117860
117944
118004
118044
118065
118068
118056
118030
117992
117945
117890
117828
117762
117692
105516
105595
105705
105864
106063
106307
106598
106929
107298
107700
108135
108586
109043
109530
109999
110457
110899
111318
111711
112076
112408
112707
112968
113188
113361
113481
113540
113530
113449
113296
113069
112773
112416
112008
111561
111089
110603
110112
109625
109147
108681
108230
107798
107389
107008
106660
106353
106093
105887
105739
105653
105631
105670
105769
105923
106125
106369
106646
106948
107267
107595
107926
108252
108568
108869
109152
109412
109649
109860
110045
110203
110335
110442
110524
110584
110622
110641
110642
110628
110600
110561
110512
110455
110392
110324
110253
98057
98140.9
98252.3
98411.9
98610
98853.3
99143.7
99477
99848.4
100255
100694
101150
101612
102103
102577
103040
103485
103907
104303
104670
105005
105308
105574
105799
105978
106104
106169
106164
106084
105928
105697
105393
105026
104606
104147
103663
103166
102667
102173
101689
101218
100763
100326
99912.1
99524.9
99171
98857.6
98592.3
98381.7
98230.7
98143.1
98122
98164.4
98268.1
98427.8
98637.2
98888.6
99173.8
99484.3
99811.6
100148
100485
100818
101139
101445
101732
101995
102234
102446
102632
102790
102922
103027
103108
103166
103202
103219
103218
103202
103172
103130
103079
103020
102955
102886
102813
90599
90688.7
90803
90962.9
91160.7
91403.4
91693.3
92028.7
92402.9
92812.9
93256.8
93718
94185.9
94680.9
95159.9
95626.1
96074.7
96499.5
96897.7
97267.1
97606
97912.4
98183.6
98415.5
98601.9
98735.4
98807.4
98807.1
98728.1
98571.6
98334.8
98022.2
97642.7
97208.8
96735.4
96237.7
95729.1
95220.3
94719
94228.4
93752.7
93292.8
92851
92430.6
92036.7
91675.5
91354.9
91083.1
90867.4
90713
90624.2
90604.1
90649.8
90758.7
90925.3
91142.8
91403.3
91698
92018
92354.6
92699.6
93045.3
93385
93712.7
94023.4
94314.9
94581.6
94822.6
95036.5
95222.5
95380.6
95511.5
95615.9
95695.2
95751.1
95785.2
95799.8
95796.4
95777.5
95745.2
95701.4
95648.1
95587.1
95520.1
95448.7
95374.2
83131.8
83226.7
83343.1
83502.3
83698.6
83940
84229.2
84566.5
84944.3
85359.7
85810
86277.9
86753.7
87254.8
87740.5
88212.1
88665.3
89094
89495.7
89868.4
90211
90522.1
90799.2
91038.5
91233.3
91375.5
91455.6
91461.8
91383.5
91226
90983.2
90660.2
90266.8
89816.9
89327
88813.8
88291.8
87772.3
87262.9
86765.3
86284.6
85819.5
85371.9
84944.9
84543.3
84173.9
83845
83565.8
83344
83185.7
83095.4
83076.6
83126
83240.8
83415.3
83642.1
83912.8
84218.2
84549
84896.1
85250.9
85605.7
85953.5
86288.2
86604.9
86901
87171.3
87414.9
87630.4
87817
87975.1
88105.1
88208.2
88285.8
88339.5
88371.2
88383.1
88377
88355.4
88320.3
88273.9
88218
88154.6
88085.3
88011.8
87935.4
75663.3
75763.9
75882.5
76040.7
76235.2
76475.1
76763.4
77102.6
77484.5
77905.7
78362.9
78838.4
79322.6
79830.4
80323.1
80800.5
81258.5
81691.2
82096.2
82472.4
82819
83135.2
83419.1
83666.9
83871.6
84024.1
84113.6
84127.3
84051.4
83892.2
83642.6
83307.7
82898.3
82430.1
81921.4
81390.6
80853.7
80322.3
79803.6
79300.1
78813.7
78343.2
77889.5
77455
77044.9
76666.1
76327.8
76040
75811.4
75648.6
75556.5
75539.1
75592.7
75714.2
75897.6
76134.8
76417
76734.4
77077.3
77436.1
77802
78166.8
78523.6
78866
79189.4
79490.4
79764.7
80011.1
80228.3
80415.6
80573.5
80702.6
80804.2
80879.7
80931
80960.1
80969
80959.8
80935.2
80897.1
80847.7
80789
80722.9
80651.2
80575.4
80496.8
68189.6
68295.3
68415
68571.1
68762.6
69000
69287.3
69628.1
70014.9
70443.1
70908.8
71393.7
71888.1
72404.4
72905.6
73390.1
73853.9
74291.3
74700.3
75080.2
75431
75752.8
76044
76301.1
76517
76681.2
76781.8
76803.5
76732.1
76570.6
76313.5
75965.1
75537.5
75048.4
74518.3
73967.8
73414.3
72869.9
72341.5
71832.1
71340
70864
70403.7
69961.2
69541.4
69152.1
68803.1
68505.4
68269
68101
68007
67991.2
68049.5
68178.6
68371.9
68620.9
68915.9
69246.7
69602.9
69974.7
70352.8
70728.7
71095.3
71446.3
71776.9
72083.3
72361.9
72611.3
72830.3
73018.3
73176
73304
73403.9
73477.1
73525.7
73551.9
73557.4
73544.9
73516.9
73475.5
73422.8
73361.1
73292.1
73217.6
73139.3
73058.5
60714.3
60825.2
60945.5
61098.5
61286.1
61520.3
61806.2
62148.4
62540.7
62976.7
63451.9
63947.3
64453
64978.9
65489.4
65981.7
66451.7
66894
67307
67690.8
68046
68373.6
68672.9
68940.6
69169.2
69347.1
69460.6
69492.5
69426.2
69262.2
68996.8
68633.1
68184.9
67672
67117.5
66544.8
65973
65414.7
64876.2
64360.8
63863.4
63381.9
62914.8
62463.6
62033.2
61631.9
61270.7
60961.9
60716.5
60542.6
60446.4
60432.3
60495.8
60633.5
60837.9
61100
61409.3
61754.9
62125.9
62512
62903.4
63291.6
63669
64029.1
64367.6
64680
64963.2
65215.8
65436.6
65625.3
65782.6
65909.5
66007.4
66078.1
66123.6
66146.6
66148.4
66132.3
66100.5
66055.5
65999.3
65934.2
65862
65784.6
65703.5
65620.3
55652.1
55765.8
55885.6
56035.4
56219.3
56450.5
56735.2
57078.3
57474.8
57916.9
58399.5
58903.4
59417.9
59951.4
60469.1
60967.4
61442.1
61888
62303.9
62690.2
63048.4
63380.1
63685.2
63960.8
64199.1
64387.7
64511.4
64551.5
64489.7
64323.4
64052
63676.6
63212.3
62681
62108
61518.5
60933.2
60364.9
59819.6
59300.2
58799.7
58314.5
57842.7
57385
56946.6
56536.2
56165.7
55848.3
55596
55417.6
55319.7
55306.9
55374.4
55518.6
55731.4
56003.3
56323.3
56680
57062.1
57458.8
57860.1
58257.3
58642.5
59009.5
59353.7
59670.4
59956.9
60211.8
60433.8
60623.1
60780.1
60905.9
61002.3
61071.1
61114.6
61134.9
61134.1
61115.2
61080.7
61033
60974.2
60906.6
60832.1
60752.6
60669.5
60584.5
53004.7
53120
53239.3
53387.3
53569.1
53798.5
54082.5
54426.2
54824.8
55270.3
55757
56265.4
56784.8
57322.4
57844
58345.4
58822.6
59270.5
59687.8
60075.5
60435.2
60769.1
61077.4
61357.2
61600.8
61795.3
61924.6
61969.3
61910
61742.5
61467.8
61086
60613
60071.6
59488.4
58889.9
58297.2
57723.6
57174.7
56653.3
56151.2
55664.2
55189.9
54728.8
54286
53870.7
53495.1
53173
52916.9
52735.9
52637.1
52625
52694.8
52842.5
53059.9
53337.1
53662.9
54025.6
54413.6
54816
55222.8
55624.8
56014.3
56384.9
56732.1
57051.2
57339.4
57595.6
57818.2
58007.7
58164.5
58289.9
58385.5
58453.2
58495.5
58514.4
58512.2
58491.8
58455.9
58406.7
58346.5
58277.6
58201.9
58121.1
58037.1
57951.1
50357.3
50473.9
50592.6
50738.5
50917.9
51145.4
51428.6
51772.8
52173.8
52622.8
53113.7
53627
54151.4
54693.3
55218.9
55723.8
56203.6
56653.4
57072.2
57461.2
57822.5
58158.5
58469.9
58754.2
59003.4
59204
59339.3
59388.9
59332.4
59163.4
58885.5
58497
58014.8
57462.9
56869.1
56261.1
55660.9
55081.8
54529.3
54005.9
53502.4
53013.6
52536.8
52072.1
51624.8
51204.4
50823.4
50496.4
50236.4
50052.8
49953
49941.6
50013.7
50165.1
50387.2
50670
51001.8
51370.7
51764.9
52173.2
52585.4
52992.4
53386.3
53760.6
54111.1
54432.5
54722.5
54979.9
55203.2
55393
55549.5
55674.3
55769.1
55835.8
55876.9
55894.3
55890.6
55868.7
55831.3
55780.6
55719
55648.7
55571.7
55489.8
55404.6
55317.7
47709.9
47827.7
47945.6
48089.2
48266
48491.5
48773.8
49118.5
49521.8
49974.5
50469.8
50988.2
51517.9
52064.3
52594.1
53102.4
53584.8
54036.7
54457
54847.3
55210
55548.2
55862.9
56151.7
56406.7
56613.8
56755.4
56810.2
56756.7
56586.3
56305
55909.6
55417.8
54854.9
54250.1
53632.1
53024.1
52439.5
51883.5
51358.2
50853.3
50362.8
49883.4
49415.1
48963.2
48537.3
48150.8
47818.6
47554.4
47368.1
47267.3
47256.7
47331.2
47486.3
47713.4
48002
48340
48715.3
49115.8
49530.2
49948.1
50360.2
50758.6
51136.7
51490.5
51814.3
52106.2
52364.8
52588.7
52778.8
52935.1
53059.3
53153.2
53218.8
53258.6
53274.6
53269.3
53245.9
53206.9
53154.7
53091.6
53019.9
52941.6
52858.5
52772.2
52684.2
45062.5
45181.4
45298.3
45439.2
45613.3
45836.5
46117.8
46463.1
46868.8
47325.3
47825.3
48349
48884.2
49435.4
49969.5
50481.3
50966.5
51420.4
51842.2
52233.7
52597.9
52938.3
53256.3
53549.8
53810.8
54024.6
54172.9
54233.3
54183.1
54011
53726.4
53323.7
52821.9
52247.5
51631.1
51002.9
50386.9
49796.6
49237.1
48709.9
48203.9
47711.6
47229.8
46757.8
46300.9
45869.4
45477.1
45139.5
44871
44681.8
44580
44570.2
44647.1
44806.3
45038.5
45333
45677.4
46059.3
46466.4
46887.1
47310.8
47728.2
48131.2
48513.2
48870.4
49196.6
49490.4
49750.3
49975
50165.1
50321.3
50444.9
50537.8
50602.2
50640.8
50655.3
50648.4
50623.4
50582.8
50529
50464.4
50391.3
50311.6
50227.2
50139.8
50050.8
42415.2
42535.1
42650.7
42788.8
42959.8
43180.5
43460.7
43806.7
44214.7
44675.3
45180.1
45709.4
46250.3
46806.5
47345
47860.6
48348.6
48804.6
49227.7
49620.5
49986.1
50328.7
50650
50948.4
51215.7
51436.7
51592
51658.2
51611.7
51437.7
51149.7
50739.4
50227.1
49640.7
49012.2
48373.4
47749
47153.1
46590
46061.2
45554.1
45060.2
44575.9
44100
43638.1
43200.8
42802.3
42459.2
42186.1
41993.9
41891
41882
41961.6
42124.8
42362.4
42663
43014.1
43402.9
43816.7
44243.8
44673.6
45096.4
45504.1
45890.1
46250.8
46579.6
46875.3
47136.3
47361.8
47552.1
47708
47830.9
47923
47986.2
48023.4
48036.3
48027.8
48001.1
47958.9
47903.5
47837.3
47762.7
47681.7
47596
47507.4
47417.4
39768.1
39888.7
40002.9
40137.8
40305.4
40523.5
40802.4
41149.1
41559.6
42024.4
42534.3
43069.4
43616.3
44177.6
44720.8
45240.2
45731.1
46189.1
46613.7
47007.7
47374.7
47719.3
48044.1
48347.5
48621.4
48849.8
49012.5
49084.8
49042.6
48866.4
48575
48156.8
47633.5
47034.5
46393.4
45743.5
45110.6
44508.8
43942.4
43411.9
42903.9
42408.6
41921.7
41441.9
40974.8
40531.3
40126.6
39777.5
39499.7
39304.4
39200.3
39192.2
39274.5
39442
39685
39992.1
40350.1
40745.9
41166.6
41600.5
42036.5
42464.8
42877.4
43267.4
43631.8
43963
44260.7
44523
44749.3
44939.6
45095.3
45217.5
45308.6
45370.7
45406.3
45417.7
45407.5
45379.1
45335.2
45278.1
45210.4
45134.3
45051.8
44964.9
44875.1
44784
37027.9
37149.2
37261.5
37392.9
37556.7
37771.8
38049.2
38396.7
38809.8
39279.2
39794.5
40336
40889.4
41456.2
42004.4
42527.8
43021.8
43482
43908.1
44303.1
44671.5
45018.3
45346.7
45655.5
45936.4
46172.9
46343.7
46422.9
46384.4
46207.4
45911.7
45484.9
44949.7
44337
43682.3
43020.5
42378.5
41770.7
41200.8
40668.8
40160.1
39663.3
39173.8
38689.9
38217.1
37767.1
37355.4
37000
36717
36518.3
36413
36405.8
36491
36663.2
36912.1
37226
37591.4
37994.7
38422.9
38863.9
39306.5
39740.7
40158.5
40552.8
40921
41254.9
41554.6
41818.3
42045.4
42235.7
42391.1
42512.7
42602.7
42663.5
42697.4
42707.3
42695.2
42665.1
42619.3
42560.5
42491.1
42413.4
42329.4
42241.1
42150
42057.8
34194.7
34316.5
34426.6
34553.9
34713.5
34925.1
35200.9
35549.2
35965
36439.4
36960.7
37509
38069.4
38642.2
39195.7
39723.5
40220.8
40683.2
41110.7
41506.9
41876.6
42225.6
42557.7
42872.2
43160.7
43406.1
43585.8
43672.3
43637.6
43461.3
43160.1
42724.2
42176
41548.4
40879
40204.3
39552.6
38938.4
38365.1
37831.7
37322.4
36824.3
36332.2
35843.8
35365
34907.8
34488.7
34126.3
33837.8
33635.4
33528.7
33522.6
33611
33788.1
34043.4
34364.6
34737.9
35149.3
35585.4
36034
36483.6
36924.2
37347.4
37746.5
38118.3
38455.2
38757.1
39022.2
39250
39440.6
39595.6
39716.3
39805.2
39864.7
39896.8
39905.1
39891
39858.9
39811.2
39750.6
39679.4
39599.9
39514.4
39424.6
39332.2
39238.8
31362
31484
31591.5
31714.3
31869.2
32077.1
32351.2
32700.3
33119
33598.6
34126
34681.6
35249.4
35828.3
36387.4
36919.7
37420.3
37885
38313.9
38711.2
39082.1
39433.2
39769.1
40089.5
40386
40640.7
40829.7
40924.3
40893.5
40717.9
40411.1
39965.3
39403.6
38760.5
38075.6
37387.6
36725.9
36105.2
35528.6
34994
34484.3
33985.1
33490.3
32997.4
32512.3
32047.6
31620.7
31251.1
30956.7
30750.5
30642.4
30637.4
30729
30911.3
31173.2
31502.1
31883.6
32303.3
32747.6
33204
33660.9
34107.9
34536.8
34940.7
35316.3
35656.3
35960.3
36226.8
36455.4
36646.2
36800.6
36920.6
37008.4
37066.4
37096.7
37103.2
37087.2
37053.1
37003.4
36940.9
36867.8
36786.6
36699.4
36608.1
36514.4
36419.8
28529.7
28651.8
28756.3
28874.3
29024
29227.9
29499.9
29849.9
30271.7
30756.6
31290.5
31853.7
32429.2
33014.6
33579.3
34116.3
34620.4
35087.3
35517.6
35915.8
36287.7
36641
36980.7
37307.1
37611.9
37876.4
38075.3
38178.3
38152.1
37977.1
37664.6
37208.7
36632.7
35973.2
35272.1
34570.2
33898.2
33271
32691.2
32155.7
31645.9
31145.8
30648.3
30150.7
29659.1
29186.5
28751.4
28374.3
28073.7
27863.5
27754
27750.1
27845.1
28032.8
28301.6
28638.4
29028.4
29456.7
29909.5
30373.9
30838.3
31291.9
31726.6
32135.5
32514.9
32858
33164.2
33432.2
33661.5
33852.6
34006.5
34125.6
34212.3
34268.5
34297.2
34302.1
34283.7
34247.5
34195.9
34131.4
34056.4
33973.4
33884.6
33791.8
33696.6
33600.7
25698
25819.7
25920.8
26033.6
26177.5
26377.2
26647.1
26998.1
27423
27913.4
28454.2
29025.3
29608.9
30201
30771.7
31313.5
31821
32290.3
32721.8
33120.8
33493.8
33849
34192.5
34525.2
34838.7
35113.5
35322.8
35435.9
35413.6
35239.2
34920.6
34454.3
33863.2
33186.5
32468.4
31752.1
31069.4
30435.7
29852.9
29316.8
28807.2
28306.3
27806.2
27303.8
26805.3
26324.6
25880.9
25495.8
25188.8
24974.2
24863.2
24860.6
24959.2
25152.6
25428.5
25773.5
26172.3
26609.5
27071
27543.8
28015.8
28476.3
28916.9
29330.9
29714.1
30060.4
30368.9
30638.4
30868.4
31059.6
31213.1
31331.3
31416.7
31471.2
31498
31500.7
31480.5
31442.3
31388.6
31322.1
31245.2
31160.4
31069.8
30975.4
30878.9
30781.7
22867.1
22988.2
23085.4
23192.4
23330.6
23525.4
23792.6
24144.7
24572.8
25069
25616.9
26196.4
26788.5
27387.5
27964.4
28511.1
29022.2
29493.7
29926.5
30326.1
30700
31057.1
31404.4
31743.6
32066
32351.7
32572.1
32691.7
32677.8
32504.4
32179.2
31702.2
31095.3
30400.4
29664.6
28933.2
28239.5
27599.2
27013.7
26477.3
25968.1
25466.7
24964.1
24456.7
23951.1
23461.8
23009.1
22615.7
22301.9
22082.9
21970.5
21968.9
22071.3
22270.6
22553.9
22907.5
23315.3
23761.8
24232.2
24713.5
25193.4
25660.9
26107.6
26526.8
26914
27263.6
27574.4
27845.3
28076.1
28267.3
28420.4
28537.8
28621.6
28674.5
28699.6
28701.6
28677.9
28637.5
28581.7
28513
28434.1
28347.4
28255.1
28159.2
28061.1
27962.6
20036.8
20156.9
20249.9
20349.7
20482.5
20671.5
20936.4
21289.6
21721.3
22223.3
22778.8
23367
23968.1
24574.3
25157.5
25709.3
26224.1
26697.9
27131.7
27532
27906.5
28265.4
28616.5
28962.3
29294.2
29591.2
29823.3
29953.1
29945.1
29772.8
29440.7
28952.3
28328.9
27614.9
26860.5
26113.3
25408.4
24761.5
24173.5
23637.1
23128.7
22627
22121.9
21609.5
21096.5
20598.1
20135.9
19733.6
19412.8
19189
19074.9
19075
19181.3
19386.7
19677.7
20040.2
20457.5
20913.4
21393
21883.2
22371.2
22845.9
23298.9
23723.4
24114.7
24467.5
24780.6
25053
25284.5
25475.8
25628.4
25744.8
25827.1
25878.3
25901.3
25899.3
25875.2
25832.8
25774.8
25704.1
25623.2
25534.6
25440.5
25342.9
25243.4
25143.5
17207.5
17326.4
17414.7
17507.4
17633.5
17817.3
18078.7
18432.9
18868.2
19376.3
19939.8
20537
21147.5
21761.2
22350.9
22908
23426.6
23902.6
24337.5
24738.1
25113.1
25473.6
25828.5
26181
26522.8
26831.9
27076.4
27217
27215.5
27044.6
26704.9
26204.6
25564
24830
24056
23292.5
22575.9
21922.5
21332.2
20796.2
20289
19787.3
19279.8
18762.2
18241.5
17733.8
17261.8
16850.4
16522
16293.3
16177.8
16178.8
16289.1
16501
16799.9
17171.6
17598.7
18064.4
18553.6
19052.8
19549.2
20031.3
20490.6
20920.6
21316
21672.2
21987.7
22261.5
22493.8
22685.1
22837.2
22952.6
23033.5
23082.9
23103.9
23102.7
23073.6
23028.8
22968.5
22895.5
22812.5
22721.9
22626
22526.7
22425.7
22324.5
14379
14496.2
14579.1
14664
14781.3
14960.7
15218.3
15574.3
16013.6
16528.1
17099.8
17706.6
18327
18948.4
19544.9
20107.4
20629.8
21108.1
21543.8
21944.7
22320.1
22682
23040.7
23400.2
23752.3
24073.9
24331.6
24483.3
24488.7
24319.7
23972.2
23459.6
22800.8
22045.7
21251.1
20470.6
19742
19082.1
18489.9
17954.8
17449
16947.7
16437.8
15914.8
15385.9
14868.2
14385.5
13964.2
13628.1
13394.2
13277.1
13280.2
13394.8
13613.3
13920.6
14301.8
14739
15214.8
15713.8
16222.4
16727.4
17217
17682.9
18118.5
18518.2
18877.7
19195.5
19470.9
19703.8
19895.1
20046.7
20160.9
20240.2
20287.7
20306.4
20293.4
20271.4
20224.6
20162.1
20086.9
20001.8
19909.2
19811.4
19710.4
19607.9
19505.2
11551.9
11667.1
11744.1
11820.8
11930.2
12104.4
12358.3
12714.3
13157.3
13678.4
14258.9
14875.6
15506.4
16135.8
16739.3
17307.3
17833.6
18314.2
18750.7
19151.5
19527
19890.1
20252.4
20619.1
20981.9
21316.8
21588.6
21752.4
21765.7
21598.9
21242.8
20716.9
20039.1
19261.9
18445.6
17647.5
16906.5
16240.1
15646.4
15112.5
14608.7
14108.1
13595.9
13067.4
12530.2
12002.3
11509.2
11078.2
10734
10494.4
10375.4
10382.2
10498
10723.6
11039.4
11430.6
11878.2
12364.4
12873.6
13391.9
13905.8
14403.2
14875.7
15316.9
15721
16083.9
16404.2
16681.1
16914.7
17106.1
17257
17370.1
17447.9
17493.5
17510.3
17503.4
17470.7
17421.2
17356.3
17278.8
17191.5
17096.9
16997.2
16894.5
16790.4
16686.3
8725.68
8838.33
8908.81
8976.2
9075.67
9240.99
9492.87
9851.26
10299.6
10827.5
11417
12043.8
12685.9
13323.5
13934.2
14507.9
15038.2
15520.8
15958
16358.8
16734.2
17098.6
17464.8
17838.7
18212.6
18561.2
18847.8
19024.9
19045.3
18881.3
18516.2
17976.7
17279
16478.6
15639.7
14823.1
14069.5
13396.6
12801.8
12269.6
11768.2
11268.6
10754.3
10220.2
9674.22
9135.21
8630.02
8187.44
7833.87
7588.43
7468.42
7469.82
7599.05
7832.19
8156.77
8558.24
9016.61
9513.23
10033
10561.3
11084.5
11589.8
12069.1
12516.2
12924.6
13290.9
13613.6
13892
14126.3
14317.6
14467.9
14579.7
14655.9
14699.5
14713.9
14699.3
14669.3
14617.7
14550.4
14470.6
14381
14284.3
14182.6
14078.1
13972.3
13866.8
5901.05
6010.73
6073.94
6131.76
6222.86
6382.88
6633.21
6989.35
7439.83
7975.14
8573.69
9212.23
9865.48
10511.5
11129.3
11709.2
12243.5
12728
13165.5
13565.9
13940.9
14306.2
14675.9
15057.3
15443
15806.4
16108.8
16298.6
16328.2
16168
15793.1
15239.4
14520.9
13696
12833.4
11997.5
11230.7
10551.3
9955.72
9425.79
8927.24
8429.2
7912.79
7372.9
6818.08
6268.3
5751.66
5299.27
4937.75
4688.25
4564.73
4579.37
4702.11
4938.49
5272.03
5684.78
6154.54
6662.13
7192.46
7730.77
8262.87
8776.28
9262.67
9715.85
10129
10498.9
10824.1
11104.1
11339.1
11530.3
11679.9
11790.4
11864.9
11906.5
11918.9
11906.5
11869.3
11814.9
11745.1
11662.9
11571
11472.2
11368.5
11262.3
11154.9
11048
3089.57
3192.41
3247.11
3293.34
3371.5
3516.49
3757.32
4115.28
4575.79
5120.91
5730.07
6378.02
7044.65
7699.97
8325.2
8911.37
9449.13
9936.62
10375.6
10775.4
11149.9
11515.4
11888.3
12277.1
12674.2
13052.8
13372.2
13578.2
13616.7
13459.9
13074.1
12505.2
11764.9
10913.8
10026.2
9169.92
8389.8
7704.37
7109.17
6582.5
6087.94
5592.78
5076.3
4534.01
3976.37
3428.18
2923.61
2498.72
2178.85
1974.13
1875.9
1884.86
1997.74
2207.53
2506.39
2880.67
3320.14
3814.9
4351.29
4899.72
5441.46
5963.37
6456.7
6915.83
7333.44
7706.71
8034.41
8315.92
8551.66
8742.96
8891.88
9001.22
9074.02
9113.65
9123.58
9104.36
9068.8
9012.11
8939.8
8855.14
8760.93
8659.81
8554.1
8445.97
8336.9
8228.38
849.826
898.196
922.206
943.484
983.838
1066.99
1223.8
1507.12
1893.83
2371.83
2921.04
3541.75
4223.14
4887.54
5523.29
6113.47
6655.43
7144.49
7583.25
7982.42
8355.5
8721.37
9098
9494.4
9904.56
10299.6
10636.7
10856.8
10903.7
10752.4
10359.3
9773.09
9009.71
8131.29
7218.03
6342.19
5550.57
4862.31
4273.01
3758.89
3284.14
2819.28
2352.89
1901.15
1498.09
1137.06
832.943
604.822
457.264
377.783
346.284
350.952
395.7
483.062
615.876
798.675
1040.31
1356.65
1764.73
2226.96
2705.14
3185.97
3660.35
4119.02
4541.65
4918.64
5248.8
5531.63
5767.76
5958.61
6106.44
6214.11
6284.9
6322.15
6329.71
6312.46
6269.8
6209.83
6134.85
6047.65
5951.04
5847.68
5739.92
5629.99
5519.28
5409.3
7.34926
7.5748
8.82649
12.0045
18.7173
33.098
67.9796
152.612
314.29
531.786
801.105
1166.79
1654.95
2212.25
2774.17
3327.09
3864.85
4357.35
4795.63
5194.72
5567.31
5933.02
6310.8
6716.5
7139.16
7550.68
7905.63
8143.29
8201.26
8050.48
7651.3
7043.72
6257.32
5353.11
4419.31
3539.59
2774.58
2160.17
1702.95
1357.52
1059.41
787.705
542.141
346.368
224.097
135.889
74.7005
39.2635
23.8905
19.5316
19.0737
19.4073
21.3307
26.1226
36.2111
56.333
95.7461
171.802
311.011
506.023
731.721
989.302
1281.81
1610.01
1952.79
2272.72
2560.98
2813.64
3028.53
3204.57
3341.88
3441.77
3506.63
3539.33
3543.51
3518.98
3477.82
3416.79
3340.21
3251.63
3154
3050
2941.99
2832.17
2721.98
2613.05
2.8076
1.85012
0.889597
0.10741
-0.63755
-1.30164
-1.63022
-1.583
-0.645924
4.64748
23.7155
84.325
241.006
483.19
751.476
1056.81
1407.4
1784.29
2150.65
2493.03
2823.17
3159.59
3521.8
3930.47
4368.45
4800.49
5175.72
5430.38
5497.4
5350.21
4948.15
4326.69
3533.89
2651.64
1837.43
1221.54
755.5
444.211
274.135
181.477
112.019
58.3173
20.3679
2.95293
2.23733
2.31417
2.64798
3.03249
3.45172
3.72286
3.76914
3.6919
3.58987
3.47378
3.50204
3.81159
4.58448
6.50777
11.0609
21.2608
42.1706
81.3877
149.268
255.827
395.059
536.963
674.269
803.062
919.489
1020.1
1102.03
1163.35
1203.68
1223.24
1223.94
1208.25
1177.93
1136.01
1084.83
1026.69
963.72
897.859
830.768
763.922
698.465
635.414
-0.40371
-1.42202
-2.43977
-3.3202
-4.15479
-4.9402
-5.55031
-6.03965
-6.80563
-7.3209
-7.31809
-7.22907
-5.58246
1.08574
19.5521
65.9154
160.105
303.545
460.613
616.953
779.517
961.258
1183.37
1467.45
1818.94
2191.3
2533.91
2779.47
2850.4
2719.49
2357.47
1831.51
1263.65
711.167
320.468
145.223
47.4889
4.16855
-3.8583
-3.58699
-3.48817
-3.29009
-3.07962
-2.34742
-1.6873
-1.5315
-1.21053
-0.814302
-0.392859
-0.176506
-0.167736
-0.229713
-0.401358
-0.683102
-1.00969
-1.35166
-1.79952
-2.31276
-2.78183
-3.05174
-2.95572
-2.37498
-0.871813
2.26422
7.89534
16.8711
29.6658
46.0899
65.1445
85.1234
103.957
119.674
130.821
136.668
137.264
133.276
125.768
115.662
103.711
90.6418
77.1009
63.6516
50.7575
38.8012
28.0509
18.7324
-3.8158
-4.83232
-5.83123
-6.65849
-7.45408
-8.20469
-8.79904
-9.34938
-10.1898
-10.8169
-11.0541
-11.4938
-11.9621
-11.9961
-12.0606
-11.8379
-10.8631
-8.68945
-3.91818
5.43282
21.6303
49.0272
97.0886
181.278
319.578
492.443
669.963
813.082
867.648
793.471
586.189
332.564
155.895
35.4741
-9.33726
-8.4464
-8.79086
-8.21098
-7.40277
-7.06047
-6.91971
-6.70936
-6.46474
-5.73525
-5.16177
-4.96897
-4.65727
-4.29894
-3.92069
-3.69906
-3.66679
-3.72754
-3.89357
-4.15635
-4.47924
-4.83651
-5.31633
-5.90296
-6.51847
-7.08034
-7.57092
-8.09228
-8.61331
-9.06249
-9.45076
-9.75979
-10.0045
-10.1916
-10.3264
-10.4132
-10.4561
-10.4591
-10.4282
-10.3674
-10.284
-10.1863
-10.0585
-9.92231
-9.78031
-9.63472
-9.48876
-9.34515
-9.20607
-9.07372
-8.95007
-8.83646
-7.10025
-8.15102
-9.18293
-10.0519
-10.8691
-11.622
-12.2254
-12.7467
-13.4831
-14.0547
-14.3053
-14.8211
-15.2776
-15.3889
-15.6351
-15.7971
-15.8467
-15.9995
-16.0462
-15.9151
-15.7267
-15.3401
-14.3769
-12.2422
-7.37547
3.3935
23.0854
47.236
59.5363
45.8136
10.5211
-15.6332
-15.559
-15.6023
-13.6211
-12.0765
-12.1967
-11.5586
-10.8318
-10.5096
-10.3278
-10.1115
-9.85904
-9.17442
-8.63074
-8.40655
-8.09738
-7.73655
-7.37849
-7.18108
-7.14878
-7.21521
-7.37109
-7.6286
-7.95096
-8.30204
-8.76388
-9.32604
-9.91747
-10.4673
-10.9559
-11.4665
-11.9759
-12.4166
-12.7957
-13.1002
-13.3428
-13.5289
-13.6637
-13.7512
-13.7957
-13.801
-13.7726
-13.715
-13.6341
-13.5271
-13.4133
-13.2831
-13.1453
-13.0036
-12.861
-12.7204
-12.5843
-12.4548
-12.3327
-12.2203
-10.4788
-11.5354
-12.5536
-13.3946
-14.1947
-14.9296
-15.5435
-16.092
-16.8428
-17.4217
-17.6814
-18.1243
-18.5608
-18.6762
-18.9136
-19.111
-19.1701
-19.318
-19.3718
-19.3273
-19.3661
-19.5072
-19.6789
-20.0193
-20.563
-21.1823
-21.7226
-22.1688
-22.3988
-22.2626
-22.014
-20.7542
-19.0342
-18.9502
-16.994
-15.5656
-15.6137
-14.956
-14.2716
-13.9489
-13.7363
-13.5097
-13.2391
-12.5986
-12.091
-11.8457
-11.543
-11.201
-10.866
-10.6661
-10.632
-10.6873
-10.8442
-11.0921
-11.4028
-11.7562
-12.2095
-12.7541
-13.3259
-13.8607
-14.3438
-14.8425
-15.3377
-15.769
-16.1407
-16.4417
-16.6821
-16.8671
-17.0016
-17.0897
-17.1355
-17.1428
-17.117
-17.0624
-16.985
-16.8906
-16.7706
-16.6436
-16.509
-16.3706
-16.2312
-16.0937
-15.9603
-15.8334
-15.7134
-15.6029
-13.796
-14.8773
-15.9199
-16.7825
-17.5913
-18.3218
-18.929
-19.4561
-20.1453
-20.6977
-20.9836
-21.4479
-21.8638
-22.0039
-22.2338
-22.3987
-22.472
-22.619
-22.679
-22.6615
-22.7171
-22.86
-23.038
-23.3702
-23.8897
-24.4766
-24.9856
-25.3971
-25.5981
-25.5033
-25.2669
-23.9396
-22.355
-22.2263
-20.386
-19.0435
-19.0193
-18.3526
-17.7108
-17.3841
-17.1477
-16.9123
-16.628
-16.0242
-15.5452
-15.282
-14.9818
-14.6479
-14.3371
-14.1494
-14.1134
-14.1715
-14.318
-14.5589
-14.8599
-15.2093
-15.651
-16.1777
-16.7315
-17.2538
-17.7315
-18.2188
-18.7012
-19.1228
-19.487
-19.784
-20.0222
-20.2063
-20.3405
-20.4292
-20.4762
-20.4854
-20.4618
-20.4099
-20.3345
-20.2362
-20.1279
-20.0044
-19.8733
-19.738
-19.6017
-19.4669
-19.3361
-19.2113
-19.0933
-18.984
-17.1629
-18.2496
-19.2839
-20.1324
-20.9329
-21.6527
-22.2723
-22.8167
-23.4998
-24.044
-24.3258
-24.758
-25.155
-25.3007
-25.5356
-25.7164
-25.7915
-25.9322
-25.9921
-25.9817
-26.0429
-26.188
-26.3713
-26.697
-27.1876
-27.7356
-28.2201
-28.5983
-28.7598
-28.6341
-28.4254
-27.1934
-25.7169
-25.5022
-23.7729
-22.5131
-22.4218
-21.751
-21.1457
-20.8154
-20.5599
-20.3166
-20.0217
-19.4524
-18.9992
-18.7242
-18.4278
-18.1058
-17.8092
-17.6304
-17.5908
-17.6444
-17.7893
-18.0222
-18.3166
-18.662
-19.0929
-19.6026
-20.1383
-20.6479
-21.1194
-21.5956
-22.0656
-22.4779
-22.8349
-23.128
-23.3637
-23.5465
-23.6804
-23.7696
-23.8178
-23.8289
-23.8077
-23.7586
-23.6869
-23.6001
-23.4858
-23.3657
-23.2379
-23.1059
-22.9726
-22.8408
-22.7126
-22.5901
-22.4742
-22.3668
-20.4996
-21.6049
-22.6558
-23.5144
-24.3175
-25.0298
-25.6407
-26.1699
-26.8156
-27.3451
-27.6488
-28.0798
-28.4622
-28.6223
-28.8452
-29.0147
-29.1022
-29.2432
-29.3102
-29.3203
-29.3929
-29.5364
-29.7202
-30.037
-30.5018
-31.016
-31.4693
-31.8193
-31.9872
-31.8444
-31.5915
-30.4222
-29.069
-28.7831
-27.1581
-25.9731
-25.8228
-25.1517
-24.5778
-24.2433
-23.972
-23.7207