/*--------------------------------*- C++ -*----------------------------------*\
| =========                 |                                                 |
| \\      /  F ield         | OpenFOAM: The Open Source CFD Toolbox           |
|  \\    /   O peration     | Version:  v1912                                 |
|   \\  /    A nd           | Website:  www.openfoam.com                      |
|    \\/     M anipulation  |                                                 |
\*---------------------------------------------------------------------------*/
FoamFile
{
    version     2.0;
    format      ascii;
    class       volScalarField;
    location    "20";
    object      p_rgh;
}
// * * * * * * * * * * * * * * * * * * * * * * * * * * * * * * * * * * * * * //

dimensions      [1 -1 -2 0 0 0 0];


internalField   nonuniform List<scalar> 
14268
(
-3796.58
-3735.11
-3635.75
-3479.4
-3284.08
-3039.71
-2750.2
-2424.42
-2059.15
-1660.31
-1229.15
-776.048
-323.953
173.293
641.727
1104.57
1550
1972.07
2366.91
2730.55
3059.63
3350.96
3601
3805.77
3961.01
4062.16
4104.48
4084.58
4000.6
3852.13
3641.06
3370.82
3047.33
2678.14
2272.2
1839.13
1388.15
927.959
466.278
8.70543
-439.527
-873.269
-1287.54
-1677.72
-2038.81
-2365.56
-2652.38
-2893.95
-3085.86
-3224.63
-3307.49
-3332.88
-3302.68
-3218.79
-3085.13
-2906.81
-2689.86
-2440.99
-2167.36
-1876.14
-1574.27
-1268.29
-964.195
-667.396
-382.728
-113.534
137.103
366.346
572.667
755.076
913.119
1046.85
1156.72
1243.59
1308.62
1353.21
1378.94
1387.54
1380.78
1360.5
1328.49
1286.53
1236.39
1179.63
1118.22
1052.85
-3722.49
-3661.97
-3563.37
-3407.09
-3210.88
-2966.18
-2675.63
-2350.03
-1986.35
-1590.54
-1163.61
-716.218
-269.721
219.419
681.785
1138.26
1578
1995.1
2385.77
2746
3072.42
3361.78
3610.46
3814.42
3969.3
4070.37
4112.97
4092.93
4009.12
3860.54
3649.05
3378.07
3053.54
2683.09
2275.8
1841.37
1389.16
927.891
465.286
6.92627
-441.991
-876.377
-1291.29
-1682.15
-2043.97
-2371.44
-2658.97
-2901.16
-3093.56
-3232.65
-3315.63
-3340.91
-3310.37
-3225.96
-3091.61
-2912.47
-2694.58
-2444.74
-2170.12
-1877.92
-1575.12
-1268.27
-963.4
-665.924
-380.661
-110.997
139.994
369.526
576.017
758.515
916.571
1050.24
1160.01
1246.72
1311.56
1355.92
1381.4
1389.76
1382.74
1362.19
1329.91
1287.71
1237.33
1180.33
1118.64
1052.96
-3722.23
-3660.4
-3561.16
-3404.84
-3208.63
-2964.02
-2673.61
-2347.6
-1983.41
-1587
-1159.41
-711.315
-263.62
225.726
689.291
1146.4
1586.79
2004.44
2395.61
2756.4
3083.5
3373.66
3623.34
3828.43
3984.51
4086.69
4130.34
4111.23
4027.28
3878.2
3665.53
3392.74
3065.9
2692.81
2282.74
1845.62
1390.93
927.511
463.079
3.16598
-447.089
-882.734
-1298.92
-1691.13
-2054.36
-2383.28
-2672.2
-2915.63
-3109
-3248.72
-3331.93
-3356.98
-3325.8
-3240.33
-3104.59
-2923.78
-2704.05
-2452.24
-2175.63
-1881.47
-1576.8
-1268.22
-961.796
-662.958
-376.526
-105.906
145.807
375.892
582.731
765.404
923.484
1057.05
1166.59
1252.99
1317.43
1361.35
1386.32
1394.19
1386.63
1365.56
1332.77
1290.06
1239.19
1181.73
1119.53
1053.39
-3679.34
-3615.6
-3515.18
-3358.14
-3160.89
-2916.21
-2625.07
-2298.55
-1934.84
-1539.55
-1113.6
-668.429
-222.875
261.49
722.286
1175.97
1613.39
2028.46
2417.53
2776.78
3102.96
3392.9
3643
3849.13
4006.67
4110.73
4155.88
4137.4
4054.03
3904.45
3690.22
3414.84
3084.56
2707.47
2293.18
1851.95
1393.53
926.872
459.702
-2.51553
-454.765
-892.282
-1310.37
-1704.59
-2069.95
-2401.05
-2692.09
-2937.39
-3132.23
-3272.91
-3356.48
-3381.18
-3349.01
-3261.95
-3124.11
-2940.8
-2718.27
-2463.51
-2183.89
-1886.79
-1579.31
-1268.13
-959.359
-658.474
-370.294
-98.2388
154.568
385.473
592.829
775.764
933.876
1067.27
1176.47
1262.39
1326.25
1369.49
1393.72
1400.83
1392.48
1370.61
1337.04
1293.58
1241.98
1183.83
1120.91
1054.12
-3682.49
-3616.16
-3514.38
-3357.14
-3159.84
-2915.46
-2624.57
-2297.26
-1932.52
-1535.76
-1107.85
-660.973
-212.866
272.51
735.621
1190.78
1629.59
2045.88
2436.11
2796.62
3124.24
3415.88
3668.06
3876.58
4036.66
4143.13
4190.73
4173.84
4090.63
3940.12
3723.55
3444.54
3109.56
2727.05
2307.06
1860.31
1396.88
925.907
455.107
-10.1644
-465.033
-905.016
-1325.63
-1722.53
-2090.73
-2424.78
-2718.67
-2966.5
-3163.32
-3305.3
-3389.36
-3413.6
-3380.1
-3290.91
-3150.24
-2963.56
-2737.28
-2478.56
-2194.91
-1893.86
-1582.61
-1267.95
-956.05
-652.432
-361.923
-87.9468
166.32
398.307
606.349
789.628
947.775
1080.94
1189.69
1274.96
1338.03
1380.37
1403.61
1409.67
1400.27
1377.35
1342.74
1298.27
1245.7
1186.64
1122.79
1055.17
-3664.72
-3594.47
-3490.28
-3331.98
-3133.75
-2889.27
-2598.06
-2269.52
-1904.16
-1506.78
-1078.33
-631.796
-182.958
300.622
763.767
1218.16
1656.37
2072.12
2462.04
2822.65
3150.93
3443.96
3698.28
3909.65
4073.13
4183.24
4233.77
4218.66
4136.22
3984.84
3765.5
3481.94
3141
2751.57
2324.35
1870.6
1400.87
924.507
449.206
-19.8448
-477.925
-920.938
-1344.67
-1744.92
-2116.72
-2454.48
-2751.99
-3003.04
-3202.4
-3346.04
-3430.71
-3454.38
-3419.2
-3327.31
-3183.06
-2992.13
-2761.12
-2497.4
-2208.68
-1902.65
-1586.68
-1267.65
-951.819
-644.778
-351.358
-74.9716
181.118
414.448
623.337
807.035
965.218
1098.08
1206.25
1290.71
1352.78
1393.98
1416.01
1420.74
1410.01
1385.76
1349.85
1304.13
1250.35
1190.15
1125.17
1056.53
-3674.31
-3600.31
-3494.16
-3335.59
-3137.44
-2893.37
-2602.47
-2272.62
-1905.5
-1505.57
-1073.85
-624.371
-171.423
314.493
781.142
1238.08
1678.64
2096.49
2488.35
2850.95
3181.48
3477.19
3734.77
3949.97
4117.59
4231.82
4286.31
4273.65
4191.82
4039.22
3816.41
3527.25
3178.97
2781.07
2344.99
1882.73
1405.37
922.532
441.888
-31.6376
-493.474
-940.047
-1367.49
-1771.76
-2147.9
-2490.18
-2792.13
-3047.12
-3249.6
-3395.27
-3480.72
-3503.69
-3466.46
-3371.28
-3222.69
-3026.58
-2789.84
-2520.05
-2225.2
-1913.16
-1591.47
-1267.16
-946.601
-635.444
-338.531
-59.2342
199.037
433.96
643.853
828.041
986.251
1118.74
1226.2
1309.67
1370.52
1410.34
1430.89
1434.03
1421.69
1395.84
1358.37
1311.14
1255.91
1194.35
1128.05
1058.21
-3676.04
-3596.85
-3487.7
-3328.17
-3129.55
-2885.54
-2594.74
-2263.11
-1894.34
-1492.11
-1057.73
-606.035
-149.773
337.313
806.495
1265.02
1706.98
2126.05
2519.12
2883.22
3215.8
3514.37
3775.72
3995.61
4168.54
4288.26
4347.49
4338.01
4257.12
4103.33
3876.49
3580.69
3223.61
2815.57
2368.93
1896.56
1410.21
919.809
433.005
-45.6281
-511.716
-962.335
-1394.04
-1803
-2184.26
-2531.92
-2839.15
-3098.87
-3305.08
-3453.2
-3539.59
-3561.72
-3522.08
-3423
-3269.26
-3067.02
-2823.49
-2546.55
-2244.45
-1925.33
-1596.93
-1266.43
-940.317
-624.346
-323.366
-40.6329
220.161
456.916
667.967
852.709
1010.93
1142.96
1249.57
1331.86
1391.28
1429.47
1448.28
1449.54
1435.32
1407.59
1368.29
1319.29
1262.38
1199.22
1131.41
1060.2
-3693.68
-3609.81
-3498.4
-3338.84
-3140.73
-2897.4
-2607.07
-2273.68
-1902.3
-1496.22
-1057.12
-600.76
-138.684
352.397
826.591
1289.05
1734.47
2156.56
2552.32
2919.14
3254.76
3557.02
3822.93
4048.3
4227.33
4353.25
4418.25
4412.8
4332.8
4177.63
3946.11
3642.52
3275.08
2855.11
2396.06
1911.91
1415.16
916.122
422.412
-61.9513
-532.689
-987.786
-1424.29
-1838.61
-2225.8
-2579.73
-2893.15
-3158.44
-3369.06
-3520.07
-3607.57
-3628.75
-3586.29
-3482.66
-3322.91
-3113.56
-2862.14
-2576.91
-2266.44
-1939.14
-1602.99
-1265.36
-932.873
-611.383
-305.784
-19.033
244.588
483.402
695.766
881.113
1039.32
1170.8
1276.4
1357.32
1415.07
1451.37
1468.18
1467.27
1450.89
1421.01
1379.59
1328.57
1269.73
1204.77
1135.25
1062.48
-3710.1
-3620.43
-3506.09
-3346.2
-3148.47
-2905.72
-2615.87
-2280.4
-1906.28
-1496.19
-1052.33
-591.178
-123.27
371.742
850.763
1316.94
1765.53
2190.32
2588.57
2958.01
3296.83
3603.21
3874.44
4106.35
4292.8
4426.31
4498.3
4497.95
4418.98
4262.5
4025.68
3713.05
3333.55
2899.7
2426.29
1928.56
1419.96
911.21
409.903
-80.7366
-556.426
-1016.37
-1458.18
-1878.53
-2272.48
-2633.63
-2954.23
-3226.01
-3441.78
-3596.16
-3684.97
-3705.05
-3659.34
-3550.48
-3383.84
-3166.32
-2905.87
-2611.17
-2291.15
-1954.54
-1609.58
-1263.86
-924.156
-596.432
-285.7
5.72593
272.423
513.511
727.347
913.34
1071.49
1202.32
1306.75
1386.1
1441.94
1476.07
1490.63
1487.24
1468.4
1436.07
1392.28
1338.97
1277.96
1210.96
1139.54
1065.04
-3735.72
-3640.87
-3524.47
-3365.3
-3168.98
-2927.53
-2638.38
-2301.03
-1923.27
-1507.87
-1057.58
-589.632
-113.884
387.227
872.932
1344.58
1797.78
2226.48
2628.12
3000.89
3343.45
3654.5
3931.67
4170.92
4365.78
4507.99
4588.05
4594.24
4515.97
4358.47
4115.68
3792.63
3399.23
2949.39
2459.47
1946.25
1424.29
904.747
395.329
-102.221
-582.949
-1048.05
-1495.62
-1922.67
-2324.27
-2693.67
-3022.53
-3301.79
-3523.52
-3681.81
-3772.14
-3790.97
-3741.56
-3626.74
-3452.26
-3225.46
-2954.78
-2649.36
-2318.57
-1971.47
-1616.62
-1261.83
-914.044
-579.334
-262.618
33.4238
303.772
547.349
762.823
949.485
1107.53
1237.58
1340.68
1418.23
1471.92
1503.63
1515.56
1509.45
1487.84
1452.79
1406.33
1350.47
1287.04
1217.79
1144.26
1067.85
-3762.68
-3662.07
-3543.5
-3385.27
-3190.74
-2950.87
-2662.53
-2323.34
-1941.5
-1520.29
-1063.02
-587.554
-103.371
404.425
897.167
1374.58
1832.54
2265.2
2670.27
3046.48
3393.04
3709.25
3993.18
4240.9
4445.62
4598.11
4687.67
4701.33
4625.4
4466.22
4216.65
3881.69
3472.35
3004.18
2495.42
1964.66
1427.77
896.328
377.649
-125.822
-612.244
-1082.76
-1536.49
-1970.93
-2381.11
-2759.88
-3098.16
-3386
-3614.59
-3777.39
-3869.45
-3886.88
-3833.29
-3711.73
-3528.38
-3291.12
-3008.95
-2691.52
-2348.67
-1989.87
-1624
-1259.13
-902.391
-559.94
-236.594
64.4328
338.744
585.087
802.324
989.657
1147.54
1276.67
1378.25
1453.77
1505.05
1534.12
1543
1533.88
1509.21
1471.13
1421.74
1363.06
1296.96
1225.22
1149.39
1070.88
-3794.74
-3689.05
-3569.34
-3413.29
-3221.74
-2984.34
-2697.06
-2356.28
-1969.51
-1541.28
-1075.53
-590.708
-96.3117
419.993
921.257
1405.77
1869.52
2306.9
2715.89
3095.84
3446.65
3768.37
4059.62
4316.75
4532.58
4696.87
4797.44
4819.16
4747.67
4586.22
4329.13
3980.7
3553.15
3064.06
2533.89
1983.39
1429.92
885.553
357.137
-152.317
-644.368
-1120.41
-1580.66
-2023.17
-2442.94
-2832.29
-3181.3
-3478.95
-3715.39
-3883.36
-3977.37
-3993.23
-3934.93
-3805.79
-3612.49
-3363.51
-3068.49
-2737.68
-2381.45
-2009.68
-1631.62
-1255.64
-889.047
-538.102
-207.519
98.947
377.531
626.91
845.942
1033.97
1191.6
1319.67
1419.52
1492.76
1541.35
1567.49
1572.99
1560.55
1532.51
1491.09
1438.46
1376.69
1307.68
1233.22
1154.88
1074.11
-3828.45
-3717.63
-3597.32
-3444.32
-3256.69
-3022.53
-2736.58
-2394.42
-2002.14
-1566.12
-1090.93
-595.531
-89.82
436.061
946.619
1438.89
1908.86
2351.19
2764.22
3148
3503.22
3830.83
4130.14
4397.82
4626.37
4804.32
4917.82
4949.72
4883.43
4719.39
4454.02
4090.33
3642.08
3129.17
2574.73
2002.04
1430.25
871.94
333.454
-181.992
-679.345
-1160.9
-1627.95
-2079.22
-2509.63
-2910.9
-3272.07
-3580.88
-3826.29
-4000.2
-4096.41
-4110.45
-4046.95
-3909.31
-3704.86
-3442.82
-3133.52
-2787.9
-2416.87
-2030.8
-1639.36
-1251.19
-873.84
-513.645
-175.209
137.182
420.36
672.967
893.805
1082.55
1239.84
1366.67
1464.57
1535.28
1580.85
1603.8
1605.6
1589.47
1557.73
1512.67
1456.51
1391.37
1319.18
1241.77
1160.73
1077.5
-3852.59
-3738.85
-3619.07
-3469.25
-3285.33
-3054.17
-2769.47
-2426.33
-2029.89
-1587.74
-1105.12
-601.286
-86.7228
446.759
964.477
1462.72
1937.4
2383.36
2799.22
3185.57
3543.76
3875.45
4180.58
4456.15
4694.44
4883.04
5006.75
5046.88
4985.03
4818.74
4547.35
4171.91
3707.63
3176.34
2603.32
2013.88
1428.55
860.258
314.91
-204.496
-705.006
-1190.17
-1661.95
-2119.64
-2558.07
-2968.43
-3338.94
-3656.34
-3908.64
-4087.1
-4184.99
-4197.75
-4130.21
-3986.08
-3773.22
-3501.33
-3181.32
-2824.62
-2442.58
-2045.9
-1644.53
-1247.38
-862.117
-495.155
-150.965
165.75
452.244
707.155
929.181
1118.44
1275.41
1401.28
1497.69
1566.48
1609.9
1630.28
1629.41
1610.56
1576.08
1528.33
1469.58
1401.97
1327.46
1247.9
1164.88
1079.86
-3865.22
-3750.02
-3630.67
-3482.7
-3300.89
-3071.46
-2787.48
-2443.81
-2045.15
-1599.66
-1113
-604.565
-85.1997
452.411
973.988
1475.45
1952.64
2400.52
2817.86
3205.54
3565.27
3899.13
4207.39
4487.23
4730.85
4925.3
5054.66
5099.35
5040.06
4872.49
4597.87
4216.03
3742.98
3201.64
2618.47
2019.92
1427.26
853.652
304.723
-216.712
-718.77
-1205.78
-1680.07
-2141.2
-2583.98
-2999.3
-3374.91
-3697
-3953.09
-4134.04
-4232.86
-4244.93
-4175.16
-4027.5
-3810.07
-3532.84
-3207.03
-2844.34
-2456.34
-2053.93
-1647.22
-1245.22
-855.706
-485.115
-137.827
181.204
469.469
725.606
948.246
1137.77
1294.56
1419.89
1515.5
1583.26
1625.53
1644.47
1642.19
1621.86
1585.91
1536.73
1476.58
1407.63
1331.88
1251.16
1167.08
1081.11
-3877.98
-3761.43
-3642.71
-3496.83
-3317.38
-3089.84
-2806.67
-2462.47
-2061.52
-1612.5
-1121.6
-608.311
-83.899
458.058
983.663
1488.47
1968.27
2418.12
2836.93
3225.93
3587.17
3923.19
4234.64
4518.89
4768.08
4968.67
5104.01
5153.64
5097.06
4928.12
4650.23
4261.72
3779.5
3227.64
2633.86
2025.82
1425.61
846.562
294.061
-229.353
-732.856
-1221.68
-1698.47
-2163.14
-2610.44
-3030.93
-3411.87
-3738.88
-3998.93
-4182.49
-4282.28
-4293.64
-4221.56
-4070.22
-3848.04
-3565.27
-3233.45
-2864.57
-2470.43
-2062.1
-1649.88
-1242.9
-849.009
-474.699
-124.219
197.178
487.251
744.638
967.882
1157.68
1314.26
1439.04
1533.8
1600.49
1641.57
1659.05
1655.3
1633.45
1595.99
1545.31
1483.73
1413.42
1336.39
1254.48
1169.32
1082.37
-3890.71
-3772.92
-3655
-3511.45
-3334.56
-3109.09
-2826.83
-2482.05
-2078.79
-1626.09
-1130.77
-612.4
-82.7366
463.741
993.51
1501.78
1984.25
2436.1
2856.38
3246.68
3609.42
3947.62
4262.32
4551.13
4806.11
5013.15
5154.78
5209.65
5156.08
4985.65
4704.44
4308.98
3817.17
3254.31
2649.46
2031.54
1423.53
838.941
282.886
-242.443
-747.274
-1237.84
-1717.16
-2185.46
-2637.44
-3063.32
-3449.84
-3781.99
-4046.19
-4232.49
-4333.3
-4343.9
-4269.42
-4114.26
-3887.15
-3598.65
-3260.6
-2885.32
-2484.83
-2070.41
-1652.5
-1240.39
-842.013
-463.897
-110.126
213.685
505.602
764.215
988.145
1178.17
1334.53
1458.72
1552.61
1618.17
1658.04
1674
1668.73
1645.32
1606.3
1554.1
1491.04
1419.33
1340.98
1257.87
1171.59
1083.64
-3903.42
-3784.53
-3667.64
-3526.67
-3352.61
-3129.41
-2848.15
-2502.77
-2097.15
-1640.58
-1140.62
-616.914
-81.748
469.463
1003.56
1515.41
2000.63
2454.5
2876.25
3267.79
3631.99
3972.35
4290.36
4583.89
4844.91
5058.74
5207.02
5267.37
5217.18
5045.09
4760.5
4357.8
3855.96
3281.59
2665.17
2037
1420.94
830.719
271.147
-256.011
-762.04
-1254.28
-1736.12
-2208.15
-2665
-3096.5
-3488.84
-3826.38
-4094.92
-4284.08
-4385.95
-4395.75
-4318.77
-4159.65
-3927.42
-3632.96
-3288.48
-2906.58
-2499.55
-2078.84
-1655.08
-1237.7
-834.707
-452.702
-95.5332
230.733
524.525
784.351
1009.06
1199.23
1355.36
1478.94
1571.92
1636.31
1674.92
1689.34
1682.48
1657.47
1616.84
1563.07
1498.5
1425.36
1345.66
1261.3
1173.89
1084.91
-3916.03
-3796.16
-3680.52
-3542.42
-3371.43
-3150.69
-2870.55
-2524.53
-2116.51
-1655.88
-1151.1
-621.807
-80.9062
475.228
1013.8
1529.36
2017.41
2473.32
2896.52
3289.28
3654.91
3997.42
4318.8
4617.2
4884.51
5105.45
5260.74
5326.98
5280.44
5106.48
4818.5
4408.21
3895.88
3309.45
2680.97
2042.15
1417.8
821.852
258.815
-270.067
-777.153
-1270.98
-1755.35
-2231.21
-2693.09
-3130.46
-3528.88
-3872.04
-4145.13
-4337.29
-4440.26
-4449.23
-4369.65
-4206.4
-3968.87
-3668.24
-3317.1
-2928.37
-2514.58
-2087.39
-1657.61
-1234.81
-827.08
-441.106
-80.4233
248.333
544.03
805.1
1030.59
1220.87
1376.77
1499.7
1591.73
1654.98
1692.16
1705.07
1696.57
1669.89
1627.63
1572.24
1506.12
1431.5
1350.43
1264.79
1176.21
1086.19
-3928.48
-3807.79
-3693.67
-3558.71
-3391.1
-3173.04
-2894.14
-2547.44
-2136.97
-1672.1
-1162.26
-627.114
-80.2139
481.054
1024.27
1543.65
2034.59
2492.58
2917.2
3311.12
3678.11
4022.76
4347.55
4650.96
4924.82
5153.24
5315.93
5388.3
5346.02
5169.85
4878.45
4460.28
3936.96
3337.92
2696.83
2046.94
1414.05
812.303
245.864
-284.621
-792.611
-1287.93
-1774.82
-2254.6
-2721.71
-3165.19
-3569.97
-3919.02
-4196.86
-4392.14
-4496.27
-4504.36
-4422.08
-4254.54
-4011.5
-3704.48
-3346.45
-2950.67
-2529.92
-2096.05
-1660.07
-1231.71
-819.118
-429.102
-64.7795
266.495
564.129
826.47
1052.75
1243.09
1398.75
1521.01
1612.06
1674.16
1709.76
1721.2
1710.98
1682.6
1638.64
1581.61
1513.89
1437.76
1355.27
1268.33
1178.56
1087.46
-3941.15
-3819.8
-3707.5
-3576.14
-3412.31
-3197.26
-2919.77
-2572.33
-2159.26
-1689.81
-1174.51
-633.019
-79.6365
487.155
1035.34
1558.81
2052.83
2512.98
2939.04
3334.13
3702.48
4049.3
4377.67
4686.45
4967.37
5203.91
5374.68
5453.88
5415.44
5238.42
4942.67
4515.93
3980.71
3368.01
2713.3
2051.5
1409.51
801.669
231.789
-300.208
-808.962
-1305.7
-1795.19
-2279.14
-2751.88
-3201.96
-3613.62
-3969.03
-4252.01
-4450.69
-4556.05
-4563.2
-4478
-4305.85
-4056.89
-3743.02
-3377.61
-2974.29
-2546.11
-2105.13
-1662.55
-1228.27
-810.515
-416.246
-48.0132
285.888
585.563
849.245
1076.35
1266.71
1422.11
1543.64
1633.64
1694.51
1728.42
1738.29
1726.24
1696.04
1650.29
1591.49
1522.08
1444.35
1360.36
1272.04
1181.01
1088.78
-3953.93
-3832.09
-3722.01
-3594.69
-3435.19
-3223.55
-2947.7
-2599.44
-2183.6
-1709.21
-1187.99
-639.606
-79.1952
493.551
1047.06
1574.9
2072.18
2534.58
2962.1
3358.3
3727.96
4076.99
4409.09
4723.58
5012.1
5257.5
5437.11
5523.66
5488.95
5312.7
5011.51
4575.51
4027.33
3399.8
2730.33
2055.71
1404
789.784
216.459
-316.916
-826.251
-1324.31
-1816.48
-2304.85
-2783.64
-3240.87
-3659.97
-4022.3
-4310.86
-4513.22
-4619.91
-4626.02
-4537.69
-4360.55
-4105.24
-3784.01
-3410.7
-2999.31
-2563.2
-2114.63
-1665.02
-1224.45
-801.202
-402.186
-30.3015
306.607
608.433
873.528
1101.41
1291.92
1446.92
1567.69
1656.55
1716.1
1748.21
1756.43
1742.38
1710.26
1662.6
1601.94
1530.73
1451.29
1365.72
1275.94
1183.58
1090.14
-3966.31
-3844.24
-3736.76
-3613.94
-3459.1
-3251.13
-2977.08
-2627.96
-2209.23
-1729.69
-1202.26
-646.655
-78.8764
500.064
1059.11
1591.45
2092.08
2556.75
2985.67
3382.9
3753.79
4104.96
4440.86
4761.25
5057.73
5312.45
5501.4
5596.05
5565.23
5389.6
5082.81
4637.08
4075.36
3432.23
2747.3
2059.34
1397.61
776.949
200.311
-334.227
-843.914
-1343.12
-1837.95
-2330.88
-2815.96
-3280.67
-3707.58
-4077.15
-4371.57
-4577.8
-4685.86
-4690.88
-4599.27
-4416.94
-4155.03
-3826.15
-3444.65
-3024.94
-2580.64
-2124.24
-1667.39
-1220.35
-791.455
-387.559
-11.981
328.008
632.026
898.549
1127.15
1317.96
1472.38
1592.38
1680.13
1738.12
1768.48
1774.96
1758.9
1724.8
1675.18
1612.59
1539.54
1458.36
1371.16
1279.88
1186.16
1091.5
-3978.23
-3856.12
-3751.55
-3633.62
-3483.89
-3280
-3007.98
-2657.94
-2236.21
-1751.33
-1217.39
-654.204
-78.699
506.685
1071.45
1608.45
2112.49
2579.44
3009.7
3407.86
3779.86
4133.12
4472.8
4799.25
5104.02
5368.53
5567.4
5670.41
5644.18
5469.17
5156.69
4700.8
4124.81
3465.33
2764.2
2062.32
1390.26
763.097
183.304
-352.153
-861.944
-1362.11
-1859.57
-2357.17
-2848.82
-3321.35
-3756.45
-4133.61
-4434.15
-4644.43
-4753.93
-4757.83
-4662.8
-4475.05
-4206.28
-3869.47
-3479.48
-3051.15
-2598.41
-2133.95
-1669.64
-1215.95
-781.266
-372.376
6.9733
350.101
656.346
924.313
1153.65
1344.67
1498.6
1617.73
1704.42
1760.65
1789.32
1794.25
1775.8
1739.66
1688.02
1623.47
1548.52
1465.55
1376.69
1283.88
1188.76
1092.84
-3989.53
-3867.77
-3766.74
-3653.88
-3509.99
-3310.32
-3040.45
-2689.43
-2264.55
-1774.13
-1233.35
-662.22
-78.6044
513.465
1084.18
1625.96
2133.52
2602.75
3034.29
3433.27
3806.27
4161.49
4505.01
4837.72
5151.16
5425.97
5635.31
5748.34
5726.08
5551.72
5233.09
4766.81
4175.65
3499
2780.92
2064.57
1381.87
748.162
165.398
-370.706
-880.319
-1381.24
-1881.3
-2383.7
-2882.17
-3362.91
-3806.61
-4191.75
-4498.75
-4713.32
-4824.33
-4826.92
-4728.31
-4534.91
-4259.02
-3913.96
-3515.2
-3077.97
-2616.52
-2143.75
-1671.75
-1211.24
-770.615
-356.615
26.6024
372.917
681.424
950.844
1180.9
1372.04
1525.58
1643.79
1729.14
1783.65
1810.51
1813.22
1793
1754.82
1701.12
1634.55
1557.67
1472.86
1382.29
1287.92
1191.37
1094.17
-4000.05
-3878.97
-3781.72
-3674.72
-3536.52
-3341.78
-3074.5
-2722.48
-2294.29
-1798.18
-1250.21
-670.759
-78.6333
520.377
1097.23
1643.96
2155.08
2626.6
3059.33
3459.01
3832.85
4189.98
4537.28
4876.42
5198.89
5484.53
5704.95
5824.55
5810.69
5637.21
5312.09
4835.06
4228.11
3533.31
2797.45
2066.02
1372.35
732.063
146.54
-389.887
-899.034
-1400.48
-1903.08
-2410.41
-2915.99
-3405.31
-3858.01
-4251.48
-4565.22
-4784.24
-4896.64
-4898.2
-4795.87
-4596.57
-4313.27
-3959.67
-3551.8
-3105.38
-2634.96
-2153.63
-1673.73
-1206.21
-759.513
-340.291
46.8961
396.447
707.253
978.148
1208.94
1400.18
1553.31
1670.65
1754.49
1807.4
1832.45
1834.42
1810.76
1770.37
1714.52
1645.87
1566.99
1480.31
1387.99
1292.01
1194.01
1095.5
-4010
-3889.89
-3796.83
-3697.03
-3564.29
-3375.3
-3110.38
-2757.15
-2325.47
-1823.46
-1267.94
-679.774
-78.6972
527.497
1110.71
1662.53
2177.35
2651.13
3084.98
3485.22
3859.74
4218.61
4569.77
4915.51
5247.44
5544.45
5776.56
5906.29
5898.38
5726.05
5393.94
4905.54
4282.17
3568.17
2813.7
2066.58
1361.61
714.747
126.704
-409.694
-918.076
-1419.76
-1924.86
-2437.28
-2950.31
-3448.67
-3910.85
-4313.13
-4633.98
-4857.73
-4971.88
-4971.73
-4865.51
-4660.05
-4369.07
-4006.59
-3589.3
-3133.39
-2653.72
-2163.57
-1675.53
-1200.83
-747.891
-323.335
67.9182
420.743
733.869
1006.24
1237.74
1429.04
1581.67
1698.02
1780.38
1831.52
1854.49
1852.52
1828.47
1786.06
1728.07
1657.31
1576.4
1487.8
1393.7
1296.09
1196.6
1096.76
-4018.89
-3899.99
-3811.66
-3718.96
-3592.87
-3409.07
-3147.64
-2793.49
-2358.18
-1850.04
-1286.61
-689.339
-78.863
534.783
1124.55
1681.63
2200.17
2676.22
3111.07
3511.7
3886.73
4247.22
4602.13
4954.65
5296.41
5605.47
5850.03
5990.59
5989.11
5818.18
5478.51
4978.25
4337.66
3603.64
2829.58
2066.13
1349.51
696.09
105.832
-430.168
-937.424
-1439.07
-1946.61
-2464.21
-2984.92
-3492.61
-3964.62
-4376.02
-4704.34
-4933.09
-5048.63
-5047.6
-4937.29
-4725.4
-4426.44
-4054.74
-3627.71
-3162.02
-2672.83
-2173.61
-1677.19
-1195.11
-735.787
-305.776
89.65
445.795
761.282
1035.15
1267.38
1458.74
1610.86
1726.19
1807.09
1856.5
1877.55
1876.34
1847.16
1802.37
1742.1
1669.13
1586.13
1495.55
1399.62
1300.35
1199.34
1098.13
-4027
-3909.77
-3826.9
-3742.06
-3624.75
-3445.31
-3187.71
-2831.68
-2392.38
-1877.91
-1306.22
-699.418
-79.0149
542.349
1138.91
1701.38
2223.76
2702.07
3137.84
3538.71
3914.08
4276.03
4634.71
4994.21
5346.28
5667.85
5925.58
6077.27
6082.7
5913.73
5566.2
5053.55
4394.81
3639.72
2845.06
2064.59
1336
676.083
83.9281
-451.257
-956.992
-1458.3
-1968.2
-2491.19
-3020.07
-3537.84
-4020.5
-4441.78
-4777.9
-5011.77
-5128.92
-5125.82
-5011.23
-4792.67
-4485.45
-4104.17
-3667.01
-3191.22
-2692.2
-2183.66
-1678.62
-1188.99
-723.133
-287.549
112.147
471.645
789.502
1064.85
1297.77
1489.13
1640.67
1754.87
1834.21
1881.72
1900.43
1887.35
1865.39
1818.57
1756.07
1680.9
1595.76
1503.17
1405.37
1304.4
1201.84
1099.23
-4033.77
-3918.55
-3841.56
-3764.84
-3655.4
-3481.21
-3227.34
-2871.35
-2428.33
-1907.19
-1326.75
-710.075
-79.2112
550.135
1153.65
1721.69
2247.94
2728.54
3165.04
3565.91
3941.34
4304.49
4666.79
5033.45
5396.25
5731.11
6002.94
6166.8
6180.07
6013.29
5657.12
5131.25
4453.49
3676.24
2860
2061.84
1320.9
654.495
60.8107
-473.091
-976.905
-1477.55
-1989.75
-2518.24
-3055.42
-3583.31
-4076.47
-4507.41
-4851.68
-5091.19
-5210.26
-5203.47
-5087.61
-4862.02
-4546.24
-4155.06
-3707.48
-3221.21
-2712
-2193.75
-1679.8
-1182.45
-709.959
-268.712
135.339
498.243
818.532
1095.42
1329.05
1520.43
1671.37
1784.45
1862.25
1907.91
1924.7
1917.72
1885.02
1835.61
1770.69
1693.2
1605.87
1511.23
1411.53
1308.84
1204.72
1100.7
-4039.58
-3926.93
-3856.45
-3789.06
-3689.6
-3524.27
-3272.4
-2914.01
-2465.63
-1937.76
-1348.31
-721.419
-79.3536
558.255
1168.89
1742.64
2272.94
2755.58
3192.74
3593.56
3968.96
4333.32
4699.57
5073.41
5447.3
5795.91
6082.59
6259.65
6280.02
6116.05
5750.92
5211.4
4513.75
3713.38
2874.46
2057.81
1304.19
631.366
36.5121
-495.627
-997.075
-1496.63
-2010.96
-2545.05
-3091.04
-3630.06
-4135.24
-4577.83
-4931.39
-5176.84
-5296.84
-5295.44
-5166.21
-4933.08
-4608.49
-4207.02
-3748.65
-3252.03
-2732.24
-2203.98
-1680.74
-1175.48
-696.163
-249.099
159.385
525.684
848.366
1126.73
1361.03
1552.37
1702.64
1814.47
1890.61
1934.27
1948.64
1934.04
1904.06
1852.42
1785.14
1705.33
1615.76
1519
1417.33
1312.84
1207.08
1101.58
-4043.84
-3934.16
-3870.95
-3813.13
-3722.03
-3562.01
-3311.68
-2955.54
-2505.05
-1969.75
-1371.2
-732.655
-79.4042
566.639
1184.43
1764.32
2298.58
2783.11
3220.66
3620.98
3996
4361.3
4731.04
5112.44
5498.09
5861.48
6163.93
6353.7
6383.36
6223.12
5848.23
5294.48
4576.01
3751.16
2888.55
2052.57
1285.84
606.458
10.8315
-519.099
-1017.65
-1515.68
-2032.09
-2571.99
-3126.8
-3676.59
-4193.23
-4645.62
-5007.14
-5256.64
-5380.16
-5365.52
-5242.78
-5006.4
-4672.86
-4260.11
-3790.35
-3282.76
-2752.42
-2214.11
-1682.02
-1168.61
-682.217
-229.04
184.124
554.022
879.255
1159.19
1394.17
1585.43
1734.99
1845.55
1920.02
1961.66
1974.03
1961.58
1924.45
1870.05
1800.24
1718.02
1626.16
1527.27
1423.64
1317.38
1210.03
1103.09
-3976.65
-3890.33
-3840.25
-3796.29
-3726.33
-3597.81
-3367.19
-3009.23
-2548.73
-2003.6
-1394.45
-746.491
-79.8645
575.46
1200.69
1786.86
2324.62
2812.11
3251.05
3650.87
4025.37
4390.85
4763.77
5152.55
5549.67
5928.28
6247.71
6453.72
6492.23
6335.37
5949.61
5380.71
4640.38
3789.34
2901.83
2045.75
1266.05
581.36
-12.6452
-537.468
-1029.1
-1519.29
-2026.6
-2550.71
-3070.82
-3543.6
-3911.23
-4123.65
-4175.1
-4122.93
-4064.16
-4055.86
-4064.08
-4060.86
-4014.12
-3892.43
-3660.01
-3286.55
-2773.22
-2224.79
-1683.05
-1161.14
-667.81
-208.685
208.929
582.196
909.898
1191.4
1427.15
1618.45
1767.37
1876.7
1949.51
1989.14
1999.06
1979.85
1944.28
1887.6
1815.29
1730.62
1636.42
1535.3
1429.59
1321.46
1212.38
1103.86
-1714.21
-1808.78
-1846.76
-1867.08
-1904.01
-1979.1
-2070.87
-2060.63
-1886.08
-1607.61
-1250.66
-746.128
-80.9956
583.409
1219.16
1809.34
2351.31
2840.37
3279.14
3678.31
4051.39
4417.27
4793.9
5190.29
5600.46
5995.46
6332.62
6552.68
6599.56
6448.35
6055.2
5469.08
4705.86
3827.85
2915.63
2042.16
1255.46
576.38
3.11866
-483.768
-911.924
-1293.51
-1604.41
-1765.14
-1684.41
-1490.44
-1250.12
-1006.97
-804.207
-670.145
-608.115
-615.681
-695.045
-843.801
-1053.74
-1305.84
-1561.92
-1751.79
-1765.12
-1599.04
-1345.18
-1015.71
-621.99
-185.119
237.508
614.504
944.666
1227.5
1463.62
1654.47
1802.3
1909.97
1980.76
2018.01
2025.57
2008.33
1965.66
1905.7
1830.71
1743.51
1646.91
1543.54
1435.78
1325.85
1215.14
1105.16
4.48211
3.44296
2.33435
1.26545
0.100496
-1.3654
-3.39626
-6.96787
-12.1993
-11.2722
15.5026
132.092
425.276
870.881
1352.11
1858.28
2381.32
2873.7
3312.01
3711.12
4083.74
4449.46
4827.25
5232.95
5655.61
6067.12
6422.06
6659.71
6717.69
6566.94
6167.88
5560.6
4775
3872.99
2945.42
2083.2
1360.55
828.782
504.336
320.829
186.275
85.0128
16.812
-11.123
-7.19234
-2.40812
1.14875
3.48812
4.88638
5.4424
5.49763
5.39066
5.20556
4.95528
4.78738
4.77211
4.80435
5.36515
8.15419
19.2798
50.3627
116.763
237.638
431.529
686.175
942.05
1183.55
1403.02
1594.99
1755.53
1882.48
1975.49
2035.84
2065.76
2068.59
2043.96
2003.18
1942.77
1867.07
1779.61
1683.37
1581.04
1474.99
1367.43
1259.78
1153.67
4.41265
3.45822
2.50611
1.74298
1.0359
0.454269
0.321238
0.933528
3.63674
14.507
51.4631
168.836
470.326
929.693
1417.38
1924.66
2436.61
2916.05
3348.36
3740.29
4107.42
4470.82
4850.14
5264.42
5702.38
6134.49
6509.85
6764.66
6831.75
6684.1
6280.52
5654.71
4847.96
3918.84
2966.3
2093.3
1372.04
850.458
536.04
355.237
219.872
115.109
41.0062
6.21703
4.19745
4.28205
4.62047
5.00822
5.43724
5.73596
5.80085
5.72481
5.67084
5.71056
6.05761
6.946
8.84809
13.0432
22.2663
42.1165
82.188
157.014
285.98
487.287
747.598
1007.12
1250.77
1471.16
1662.71
1821.78
1946.51
2036.79
2094.34
2121.25
2121.08
2097.38
2052.07
1988.95
1911.29
1822.29
1724.9
1621.82
1515.39
1407.76
1300.59
1195.45
4.58468
3.56639
2.54874
1.6686
0.834875
0.0521667
-0.550357
-1.01893
-1.72647
-2.06175
-1.49086
0.4998
8.49584
34.7136
107.518
288.866
654.451
1207.76
1800.19
2364.28
2912.49
3471.99
4074.71
4729.4
5373.21
5961.88
6456.59
6781.35
6866.85
6706.19
6232.41
5384.6
4075.26
2562.89
1285.14
593.797
208.403
35.5313
1.18848
1.45098
1.54552
1.74536
1.95507
2.68502
3.34284
3.49681
3.81671
4.2123
4.6337
4.85344
4.86837
4.80321
4.62868
4.35736
4.06262
3.77586
3.4389
3.15305
3.1459
3.79016
5.638
9.50609
17.0331
30.7843
54.1563
90.5063
141.742
207.139
282.76
361.887
436.362
498.415
542.322
565.222
567.326
551.229
521.233
480.932
433.327
381.3
327.406
273.881
222.562
174.969
132.158
95.03
4.55704
3.54052
2.5416
1.71434
0.91876
0.168153
-0.426171
-0.976438
-1.8166
-2.44258
-2.67496
-3.09594
-3.49285
-3.28049
-2.58318
-0.272302
5.83729
19.5302
48.0896
102.619
196.719
355.136
630.806
1109.69
1883.94
2809.77
3685.26
4321.88
4539.44
4219.91
3303.65
2039.91
996.942
281.422
2.83881
-0.0691037
-0.413907
0.165487
0.973223
1.31498
1.45534
1.6657
1.91023
2.63956
3.21293
3.40561
3.71717
4.07535
4.45344
4.675
4.70721
4.64608
4.47964
4.21666
3.89365
3.53632
3.05651
2.46988
1.85436
1.2925
0.80192
0.280552
-0.240475
-0.689659
-1.07792
-1.38695
-1.63163
-1.81879
-1.95357
-2.04032
-2.08329
-2.08627
-2.05535
-1.99457
-1.91115
-1.81342
-1.68571
-1.54947
-1.40747
-1.26188
-1.11593
-0.972313
-0.833239
-0.700883
-0.577239
-0.463621
4.65704
3.60626
2.57436
1.70537
0.888195
0.135282
-0.46811
-0.989465
-1.72584
-2.29743
-2.54798
-3.06384
-3.52033
-3.63159
-3.87779
-4.03982
-4.08946
-4.24222
-4.2577
-3.59139
-1.79573
2.3094
11.1517
30.4317
73.1206
163.411
323.816
518.928
618.062
508.568
227.515
8.65405
-3.80168
-3.84497
-1.86379
-0.319257
-0.439401
0.198657
0.925513
1.24767
1.42944
1.6458
1.89824
2.58287
3.12654
3.35073
3.6599
4.02073
4.3788
4.5762
4.6085
4.54207
4.3862
4.12869
3.80633
3.45524
2.99341
2.43125
1.83982
1.29
0.801371
0.29075
-0.218657
-0.65931
-1.03839
-1.34293
-1.58548
-1.77159
-1.9064
-1.99392
-2.03838
-2.04367
-2.01528
-1.95769
-1.87679
-1.76982
-1.65604
-1.52584
-1.38805
-1.24632
-1.10372
-0.963149
-0.827
-0.697476
-0.575394
-0.463043
4.66292
3.60637
2.58811
1.7471
0.946991
0.212136
-0.401799
-0.950215
-1.70102
-2.27998
-2.53966
-2.98258
-3.41906
-3.53449
-3.77183
-3.96927
-4.02832
-4.17625
-4.23006
-4.18558
-4.22434
-4.36546
-4.53721
-4.87757
-5.42125
-6.04061
-6.58091
-7.02706
-7.25707
-7.12085
-6.87222
-5.61246
-3.89248
-3.80849
-1.85228
-0.423829
-0.471993
0.185775
0.870133
1.19279
1.40547
1.63207
1.90262
2.54309
3.05076
3.29605
3.59871
3.94078
4.27575
4.47565
4.5097
4.45442
4.29755
4.04964
3.73894
3.38551
2.93224
2.38766
1.81582
1.28099
0.797913
0.299279
-0.195977
-0.627278