/*--------------------------------*- C++ -*----------------------------------*\
| =========                 |                                                 |
| \\      /  F ield         | OpenFOAM: The Open Source CFD Toolbox           |
|  \\    /   O peration     | Version:  v1912                                 |
|   \\  /    A nd           | Website:  www.openfoam.com                      |
|    \\/     M anipulation  |                                                 |
\*---------------------------------------------------------------------------*/
FoamFile
{
    version     2.0;
    format      ascii;
    class       surfaceScalarField;
    location    "20";
    object      phi;
}
// * * * * * * * * * * * * * * * * * * * * * * * * * * * * * * * * * * * * * //

dimensions      [0 3 -1 0 0 0 0];
oriented        oriented;


internalField   nonuniform List<scalar> 
28285
(
-0.0238143
-0.00084941
-0.0228162
-0.000998092
-0.0216687
-0.00114755
-0.0203609
-0.00130773
-0.0188777
-0.0014832
-0.0171988
-0.00167891
-0.015283
-0.00191582
-0.0131417
-0.00214133
-0.0107762
-0.00236542
-0.00820322
-0.00257303
-0.00545539
-0.00274782
-0.0025725
-0.0028829
0.000407304
-0.0029798
0.00340011
-0.00299281
0.00637665
-0.00297654
0.00928416
-0.00290751
0.0120796
-0.00279547
0.0147273
-0.00264771
0.0171989
-0.00247155
0.0194706
-0.00227168
0.0215214
-0.00205081
0.0233291
-0.00180772
0.024868
-0.00153889
0.0261065
-0.00123853
0.0270069
-0.000900343
0.0275284
-0.000521592
0.0276315
-0.000103076
0.0272881
0.000343448
0.026476
0.000812077
0.0251921
0.00128388
0.0234555
0.00173667
0.0213087
0.00214673
0.0188123
0.0024964
0.0160409
0.00277144
0.013072
0.00296893
0.00998133
0.00309063
0.00683661
0.00314473
0.0036927
0.00314391
0.000591824
0.00310088
-0.00243527
0.00302709
-0.00536548
0.00293021
-0.00817811
0.00281263
-0.0108503
0.00267214
-0.0133541
0.00250382
-0.0156555
0.00230137
-0.0177153
0.00205984
-0.0194917
0.00177644
-0.0209442
0.00145243
-0.0220377
0.00109354
-0.0227464
0.000708741
-0.0230547
0.000308285
-0.022955
-9.97693e-05
-0.0224629
-0.00049211
-0.0216027
-0.000860115
-0.0204095
-0.00119325
-0.0189264
-0.00148306
-0.0172028
-0.00172358
-0.0152915
-0.00191133
-0.013246
-0.00204547
-0.0111189
-0.00212713
-0.00895979
-0.00215911
-0.00681418
-0.00214561
-0.00472249
-0.00209169
-0.00271934
-0.00200315
-0.00083352
-0.00188582
0.000912016
-0.00174554
0.00250035
-0.00158834
0.00391975
-0.0014194
0.00516341
-0.00124365
0.00622904
-0.00106563
0.00711824
-0.000889201
0.00783589
-0.000717648
0.0083895
-0.000553612
0.00878872
-0.000399223
0.00904482
-0.000256092
0.00917017
-0.000125354
0.00917786
-7.69509e-06
0.00908166
9.6202e-05
0.00889425
0.000187415
0.00862869
0.000265559
0.00829739
0.000331299
0.00791151
0.000385883
0.00748015
0.000431357
0.00701117
0.000468976
0.00648967
0.000521505
0.000549128
0.00594054
-0.023744
-0.00171172
-0.0227401
-0.002002
-0.0215851
-0.00230252
-0.0202637
-0.00262909
-0.0187527
-0.00299423
-0.0170301
-0.00340147
-0.0150772
-0.00386871
-0.0128912
-0.00432739
-0.0104824
-0.00477424
-0.0078748
-0.0051806
-0.00510656
-0.00551606
-0.00222067
-0.00576879
0.000733142
-0.00593361
0.0037
-0.00595966
0.00663337
-0.00590991
0.00948933
-0.00576347
0.01223
-0.0055361
0.0148243
-0.00524207
0.017248
-0.00489522
0.0194801
-0.00450381
0.0215014
-0.00407209
0.0232902
-0.00359648
0.0248205
-0.00306925
0.02606
-0.00247805
0.026969
-0.00180929
0.0275051
-0.00105767
0.027622
-0.000220018
0.0272982
0.000667243
0.0265015
0.00160878
0.0252276
0.00255782
0.0234961
0.00346813
0.0213496
0.00429326
0.0188486
0.00499737
0.0160686
0.00555144
0.0130899
0.00594757
0.00999012
0.00619045
0.00683748
0.00629736
0.00368735
0.00629404
0.00058177
0.00620646
-0.00244888
0.00605774
-0.00538231
0.00586365
-0.00819839
0.00562871
-0.0108746
0.00534834
-0.0133833
0.0050125
-0.0156902
0.00460828
-0.0177559
0.00412556
-0.0195381
0.00355863
-0.0209956
0.00290992
-0.0220929
0.00219091
-0.0228039
0.00141973
-0.0231126
0.000616914
-0.0230112
-0.00020112
-0.0225157
-0.00098759
-0.0216507
-0.00172514
-0.0204513
-0.00239263
-0.0189613
-0.00297312
-0.0172302
-0.00345466
-0.0153112
-0.00383032
-0.0132582
-0.00409845
-0.011124
-0.00426138
-0.00895832
-0.00432474
-0.00680691
-0.00429703
-0.00471022
-0.00418838
-0.00270291
-0.00401046
-0.000813773
-0.00377496
0.00093419
-0.0034935
0.00252423
-0.00317838
0.00394462
-0.0028398
0.00518863
-0.00248766
0.00625406
-0.00213106
0.00714259
-0.00177773
0.00785918
-0.00143423
0.00841142
-0.00110585
0.00880904
-0.000796843
0.00906336
-0.000510417
0.00918684
-0.000248834
0.00919266
-1.35071e-05
0.00909454
0.00019432
0.00890526
0.000376696
0.00863794
0.000532871
0.00830506
0.000664179
0.00791788
0.000773063
0.00748623
0.000863007
0.00701849
0.000936716
0.00651543
0.00102457
0.00107829
0.00598626
-0.0237264
-0.00258885
-0.0227074
-0.00302095
-0.0215397
-0.00347023
-0.0202104
-0.00395842
-0.0186971
-0.00450754
-0.0169818
-0.00511676
-0.0150364
-0.00581408
-0.0128616
-0.00650219
-0.0104666
-0.00716924
-0.00787318
-0.00777406
-0.00511762
-0.00827163
-0.00224038
-0.00864602
0.00071101
-0.008885
0.00367632
-0.00892498
0.00661179
-0.00884538
0.00947229
-0.00862397
0.0122193
-0.00828309
0.0148214
-0.00784417
0.017254
-0.00732779
0.0194962
-0.00674608
0.0215292
-0.00610508
0.0233317
-0.00539892
0.0248776
-0.00461519
0.0261337
-0.00373415
0.0270599
-0.0027355
0.0276105
-0.00160822
0.0277464
-0.000355985
0.0274249
0.000988769
0.0266293
0.00240444
0.0253508
0.00383629
0.0236086
0.00521027
0.0214461
0.00645582
0.0189256
0.00751789
0.016125
0.00835204
0.0131256
0.00894695
0.0100066
0.00930939
0.00683809
0.00946591
0.00367569
0.00945644
0.000561141
0.00932101
-0.0024766
0.00909548
-0.00541626
0.0088033
-0.00823901
0.00845146
-0.0109232
0.00803253
-0.0134415
0.00753081
-0.0157595
0.00692624
-0.017837
0.00620304
-0.0196306
0.0053523
-0.0210982
0.00437748
-0.0222032
0.00329591
-0.0229186
0.00213517
-0.0232279
0.000926177
-0.0231234
-0.000305652
-0.0226211
-0.00148984
-0.0217462
-0.00260003
-0.0205345
-0.00360434
-0.0190304
-0.00447723
-0.0172843
-0.00520079
-0.0153499
-0.00576466
-0.0132819
-0.00616649
-0.0111334
-0.00640988
-0.0089547
-0.00650346
-0.00679166
-0.00646007
-0.00468495
-0.00629508
-0.00266933
-0.00602607
-0.00077368
-0.00567061
0.000979255
-0.00524643
0.00257268
-0.0047718
0.00399506
-0.00426218
0.00523977
-0.00373237
0.00630479
-0.00319608
0.00719196
-0.0026649
0.00790642
-0.00214869
0.00845591
-0.00165535
0.00885031
-0.00119124
0.00910109
-0.000761194
0.00922081
-0.000368558
0.00922284
-1.55317e-05
0.00912088
0.000296274
0.00892787
0.000569713
0.00865704
0.000803701
0.00832096
0.00100025
0.00793109
0.00116293
0.00749792
0.00129617
0.00703024
0.0014044
0.006538
0.00151682
0.00159192
0.00602437
-0.0237224
-0.00348334
-0.0226947
-0.00404862
-0.0215209
-0.00464409
-0.0201834
-0.00529591
-0.0186543
-0.00603659
-0.0169115
-0.00685957
-0.0149376
-0.00778797
-0.012728
-0.00871181
-0.010296
-0.00960122
-0.00766882
-0.0104013
-0.00488674
-0.0110537
-0.00199416
-0.0115386
0.000954229
-0.0118334
0.0039113
-0.0118821
0.00682597
-0.01176
0.00965772
-0.0114557
0.0123716
-0.0109969
0.01494
-0.0104126
0.017342
-0.00972985
0.0195603
-0.00896438
0.0215782
-0.00812292
0.0233756
-0.00719631
0.0249269
-0.00616655
0.0261986
-0.00500581
0.0271468
-0.00368371
0.0277255
-0.00218694
0.0278794
-0.000509873
0.0275852
0.00128302
0.0268037
0.00318585
0.0255271
0.00511293
0.0237753
0.00696211
0.0215926
0.00863845
0.019044
0.0100665
0.0162108
0.0111852
0.0131789
0.0119788
0.0100308
0.0124575
0.00683822
0.0126585
0.00365742
0.0126373
0.000529256
0.0124492
-0.00251853
0.0121433
-0.00546728
0.0117521
-0.00829991
0.0112841
-0.010996
0.0107287
-0.0135288
0.0100636
-0.0158635
0.00926086
-0.0179587
0.00829831
-0.0197698
0.00716337
-0.0212526
0.00586032
-0.0223692
0.0044125
-0.0230914
0.00285739
-0.0234017
0.00123643
-0.0232924
-0.000414991
-0.0227799
-0.00200231
-0.0218901
-0.00348983
-0.0206598
-0.00483465
-0.0191344
-0.00600256
-0.0173656
-0.0069696
-0.0154082
-0.00772212
-0.0133175
-0.00825718
-0.0111475
-0.00857983
-0.00894913
-0.00870184
-0.00676862
-0.00864059
-0.00464688
-0.00841682
-0.0026188
-0.00805416
-0.000713184
-0.00757623
0.00104701
-0.00700663
0.00264548
-0.00637028
0.00407082
-0.00568751
0.00531655
-0.00497811
0.00638092
-0.00426045
0.00726603
-0.00355001
0.00797725
-0.00285991
0.00852259
-0.00220069
0.00891214
-0.0015808
0.00915758
-0.00100663
0.00927165
-0.000482626
0.00926797
-1.18491e-05
0.00916024
0.000404008
0.0089616
0.000768347
0.00868547
0.00107984
0.00834453
0.00134119
0.00795048
0.00155698
0.00751439
0.00173227
0.00704559
0.00187319
0.00655791
0.00200449
0.00209661
0.00605322
-0.0237455
-0.00439607
-0.0227063
-0.00508775
-0.021527
-0.00582341
-0.0201891
-0.00663387
-0.0186622
-0.00756346
-0.0169247
-0.00859702
-0.014955
-0.00975767
-0.0127457
-0.0109211
-0.0103114
-0.0120356
-0.00767869
-0.0130339
-0.00488828
-0.0138441
-0.00198499
-0.0144419
0.000976925
-0.0147953
0.00394558
-0.0148507
0.00687139
-0.0146858
0.0097132
-0.0142975
0.012436
-0.0137198
0.0150129
-0.0129894
0.017424
-0.012141
0.0196529
-0.0111933
0.0216842
-0.0101542
0.023499
-0.00901115
0.0250721
-0.00773962
0.0263685
-0.00630223
0.0273439
-0.00465912
0.027948
-0.00279099
0.0281331
-0.000694988
0.0278444
0.00157169
0.0270664
0.00396384
0.0257812
0.00639818
0.024008
0.00873534
0.0217928
0.0108536
0.0192037
0.0126556
0.0163257
0.0140632
0.0132496
0.015055
0.010062
0.0156451
0.00683721
0.0158833
0.00363201
0.0158424
0.000486184
0.015595
-0.00257476
0.0152042
-0.00553527
0.0147126
-0.0083808
0.0141296
-0.0110927
0.0134406
-0.0136449
0.0126158
-0.0160019
0.0116179
-0.0181212
0.0104176
-0.0199559
0.00899799
-0.0214594
0.00736388
-0.0225917
0.00554482
-0.0233231
0.0035888
-0.0236347
0.00154803
-0.0235189
-0.000530818
-0.0229926
-0.00252859
-0.0220828
-0.00439971
-0.0208274
-0.00609002
-0.0192735
-0.00755641
-0.0174742
-0.0087689
-0.0154857
-0.00971064
-0.0133646
-0.0103783
-0.011166
-0.0107785
-0.00894126
-0.0109265
-0.0067374
-0.0108444
-0.00459558
-0.0105586
-0.00255086
-0.0100989
-0.000632066
-0.00949503
0.00113785
-0.00877654
0.002743
-0.00797543
0.00417222
-0.00711673
0.00541926
-0.00622515
0.00648272
-0.00532391
0.00736502
-0.00443231
0.00807189
-0.00356678
0.00861164
-0.00274044
0.00899468
-0.00196383
0.00923295
-0.0012449
0.00933945
-0.000589125
0.00932818
-5.73878e-07
0.00921266
0.000519528
0.0090065
0.000974499
0.00872325
0.00136309
0.00837577
0.00168867
0.007976
0.00195676
0.00753541
0.00217286
0.0070639
0.0023447
0.00657647
0.00249192
0.00259698
0.0060761
-0.0237961
-0.00532987
-0.0227482
-0.00613559
-0.0215672
-0.0070044
-0.0202287
-0.00797239
-0.0186971
-0.00909511
-0.0169444
-0.0103497
-0.0149534
-0.0117487
-0.0127145
-0.0131601
-0.0102444
-0.0145057
-0.00757445
-0.0157039
-0.004749
-0.0166696
-0.0018173
-0.0173736
0.00116095
-0.0177736
0.00413893
-0.0178287
0.00706338
-0.0176103
0.00989501
-0.0171292
0.0126017
-0.0164264
0.0151599
-0.0155476
0.0175538
-0.0145348
0.0197708
-0.0134103
0.0217987
-0.0121821
0.0236208
-0.0108332
0.0252129
-0.00933171
0.0265398
-0.00762918
0.0275533
-0.00567258
0.0281987
-0.00343637
0.0284131
-0.000909467
0.0281564
0.00182843
0.0273918
0.00472842
0.0261006
0.00768942
0.0243028
0.0105331
0.0220467
0.0131097
0.0194052
0.0152971
0.0164694
0.0169991
0.0133369
0.0181874
0.0100993
0.0188826
0.00683402
0.0191486
0.00359854
0.0190779
0.000431262
0.0187623
-0.00264544
0.0182809
-0.00561998
0.0176871
-0.00848118
0.0169908
-0.0112127
0.0161721
-0.0137892
0.0151922
-0.0161747
0.0140034
-0.0183245
0.0125675
-0.0201892
0.0108626
-0.0217191
0.00889386
-0.0228715
0.00669722
-0.0236147
0.00433198
-0.023928
0.00186135
-0.023804
-0.000654856
-0.0232602
-0.00307235
-0.0223249
-0.00533505
-0.0210378
-0.0073771
-0.0194479
-0.00914632
-0.0176101
-0.0106067
-0.0155825
-0.0117383
-0.0134232
-0.0125376
-0.0111884
-0.0130133
-0.00893062
-0.0131843
-0.00669747
-0.0130776
-0.00453053
-0.0127256
-0.00246501
-0.0121644
-0.000529722
-0.0114303
0.00125227
-0.0105585
0.00286566
-0.00958883
0.00429967
-0.00855073
0.00554827
-0.00747376
0.0066105
-0.00638613
0.0074892
-0.00531101
0.00819053
-0.00426811
0.00872323
-0.00327313
0.00909805
-0.00233866
0.0093273
-0.00147416
0.00942427
-0.000686093
0.00940339
2.03037e-05
0.00927813
0.000644794
0.00906253
0.00119009
0.00877033
0.00165529
0.00841457
0.00204443
0.00800745
0.00236388
0.00756073
0.00261958
0.00708482
0.00282061
0.00659455
0.00298219
0.00309676
0.00609476
-0.02386
-0.00628415
-0.0228049
-0.00719069
-0.0216267
-0.00818258
-0.0202966
-0.00930247
-0.0187742
-0.0106176
-0.0170282
-0.0120956
-0.015039
-0.0137379
-0.0127912
-0.0154078
-0.0103045
-0.0169924
-0.00761127
-0.0183971
-0.00475792
-0.0195229
-0.00179649
-0.020335
0.00121204
-0.0207821
0.00421589
-0.0208325
0.00716232
-0.0205567
0.0100115
-0.0199784
0.0127321
-0.019147
0.0153014
-0.018117
0.0177055
-0.0169389
0.0199339
-0.0156387
0.0219771
-0.0142253
0.0238207
-0.0126768
0.0254415
-0.0109525
0.0268032
-0.00899094
0.0278563
-0.00672569
0.0285416
-0.00412168
0.0287975
-0.00116529
0.0285573
0.00206863
0.0277998
0.0054859
0.0264959
0.00899335
0.0246646
0.0123644
0.0223567
0.0154175
0.0196495
0.0180042
0.016642
0.0200066
0.0134401
0.0213893
0.0101414
0.0221813
0.00682719
0.0224629
0.0035558
0.0223493
0.000363801
0.0219543
-0.00273091
0.0213756
-0.00572132
0.0206775
-0.00860063
0.0198701
-0.0113553
0.0189268
-0.0139612
0.0177981
-0.0163814
0.0164236
-0.0185687
0.0147548
-0.0204702
0.0127641
-0.0220328
0.0104564
-0.0232099
0.00787437
-0.0239676
0.00508964
-0.0242831
0.00217684
-0.024149
-0.000788936
-0.0235838
-0.0036375
-0.0226175
-0.00630144
-0.0212917
-0.0087028
-0.019658
-0.0107801
-0.0177735
-0.0124912
-0.0156984
-0.0138134
-0.0134928
-0.0147432
-0.0112143
-0.0152918
-0.00891671
-0.0154819
-0.0066483
-0.015346
-0.00445114
-0.0149227
-0.00236064
-0.0142549
-0.000405512
-0.0133854
0.0013908
-0.0123548
0.00301395
-0.011212
0.00445359
-0.00999037
0.00570394
-0.00872411
0.00676455
-0.00744674
0.0076388
-0.00618526
0.00833338
-0.00496269
0.00885748
-0.00379723
0.00922233
-0.00270351
0.00944066
-0.00169248
0.00952614
-0.000771571
0.00949364
5.27991e-05
0.00935659
0.000781851
0.0091296
0.00141708
0.00882658
0.0019583
0.00846077
0.00241024
0.00804463
0.00278002
0.00759011
0.0030741
0.00710806
0.00330265
0.00661252
0.00347774
0.00359906
0.00611022
-0.023953
-0.0072616
-0.0228926
-0.00825112
-0.0217207
-0.00935447
-0.0204005
-0.0106227
-0.0188847
-0.0121334
-0.0171344
-0.0138459
-0.0151299
-0.0157424
-0.0128548
-0.0176829
-0.0103298
-0.0195174
-0.00759214
-0.0211347
-0.00469202
-0.022423
-0.00168725
-0.0233398
0.00135623
-0.0238256
0.00438666
-0.023863
0.00734876
-0.0235188
0.0102034
-0.022833
0.0129214
-0.021865
0.0154839
-0.0206795
0.0178811
-0.0193361
0.0201073
-0.0178649
0.022157
-0.0162751
0.024019
-0.0145388
0.0256719
-0.0126054
0.0270793
-0.0103983
0.0281868
-0.00783313
0.0289284
-0.00486333
0.0292308
-0.00146771
0.0290266
0.00227291
0.0282828
0.00622964
0.0269661
0.0103101
0.0250948
0.0142357
0.0227241
0.0177882
0.0199372
0.0207911
0.0168432
0.0231006
0.0135581
0.0246744
0.0101868
0.0255526
0.00681505
0.0258346
0.00350227
0.0256621
0.000282299
0.0251742
-0.00283145
0.0244894
-0.00583896
0.023685
-0.00873842
0.0227696
-0.0115199
0.0217083
-0.0141603
0.0204385
-0.0166217
0.018885
-0.0188539
0.016987
-0.0207997
0.0147099
-0.0224013
0.0120581
-0.0236082
0.00908128
-0.0243834
0.00586483
-0.0247014
0.00249484
-0.0245554
-0.000934937
-0.0239648
-0.00422808
-0.0229615
-0.00730479
-0.0215899
-0.0100744
-0.0199041
-0.0124658
-0.0179644
-0.0144309
-0.0158333
-0.0159444
-0.0135731
-0.0170034
-0.0112433
-0.0176216
-0.00889885
-0.0178263
-0.00658912
-0.0176557
-0.00435663
-0.0171552
-0.00223702
-0.0163745
-0.00025866
-0.0153638
0.00155413
-0.0141676
0.00318849
-0.0128464
0.00463453
-0.0114364
0.00588677
-0.00997634
0.00694534
-0.00850531
0.00781422
-0.00705414
0.00850072
-0.00564919
0.00901463
-0.00431114
0.00936771
-0.0030566
0.00957315
-0.00189792
0.00964511
-0.00084353
0.00959891
9.89907e-05
0.00944801
0.000932753
0.00920765
0.00165745
0.00889191
0.00227404
0.00851425
0.0027879
0.00808738
0.0032069
0.00762338
0.0035381
0.00713345
0.00379258
0.00663072
0.00398047
0.00410636
0.00612341
-0.024052
-0.00826063
-0.0229905
-0.00931263
-0.0218321
-0.0105129
-0.0205319
-0.0119229
-0.0190351
-0.0136302
-0.017296
-0.015585
-0.0152923
-0.0177461
-0.0130011
-0.0199741
-0.0104464
-0.0220721
-0.00766838
-0.0239128
-0.00472099
-0.0253704
-0.00166718
-0.0263936
0.00142399
-0.0269167
0.0044956
-0.0269346
0.00749187
-0.0265151
0.0103728
-0.025714
0.01311
-0.0246022
0.015686
-0.0232555
0.0180939
-0.0217439
0.0203317
-0.0201027
0.0223982
-0.0183416
0.0242861
-0.0164267
0.0259761
-0.0142954
0.0274315
-0.0118537
0.0285954
-0.00899704
0.0293959
-0.00566385
0.0297528
-0.00182467
0.0295817
0.00244407
0.0288499
0.00696147
0.0275162
0.0116438
0.0255972
0.0161547
0.0231514
0.020234
0.0202692
0.0236733
0.0170727
0.0262971
0.0136894
0.0280578
0.0102331
0.0290089
0.00679518
0.0292725
0.00343589
0.0290214
0.00018621
0.0284239
-0.00294756
0.0276232
-0.00597266
0.0267101
-0.00889377
0.0256907
-0.0117052
0.0245197
-0.0143855
0.0231187
-0.0168951
0.0213946
-0.0191801
0.019272
-0.0211783
0.0167081
-0.0228261
0.013706
-0.0240683
0.0103234
-0.0248642
0.00666077
-0.0251853
0.00281585
-0.0250253
-0.00109495
-0.0244048
-0.00484849
-0.0233583
-0.00835137
-0.0219331
-0.0114995
-0.0201869
-0.0142121
-0.0181829
-0.0164349
-0.0159869
-0.0181404
-0.0136637
-0.0193267
-0.0112746
-0.0200107
-0.00887631
-0.0202246
-0.00651911
-0.0200129
-0.00424616
-0.0194282
-0.00209332
-0.0185273
-8.84534e-05
-0.0173687
0.00174298
-0.0159991
0.00339
-0.0144934
0.00484312
-0.0128895
0.00609729
-0.0112305
0.00715327
-0.00956129
0.00801577
-0.00791665
0.00869283
-0.00632625
0.00919487
-0.00481318
0.0095343
-0.00339602
0.00972483
-0.00208846
0.00978123
-0.00089993
0.00971916
0.000161061
0.00955232
0.00109959
0.00929656
0.00191321
0.00896617
0.00260442
0.00857484
0.00317923
0.00813549
0.00364625
0.00766033
0.00401326
0.00716079
0.00429212
0.00664918
0.00449208
0.00462098
0.00613456
-0.0241741
-0.00928256
-0.0231147
-0.010372
-0.021975
-0.0116526
-0.0206992
-0.0131987
-0.0192229
-0.0151064
-0.0174911
-0.0173169
-0.015477
-0.0197602
-0.0131591
-0.0222919
-0.0105602
-0.024671
-0.00772641
-0.0267466
-0.00471697
-0.0283799
-0.00160206
-0.0295085
0.00154348
-0.0300623
0.0046594
-0.0300505
0.00768754
-0.0295432
0.0105877
-0.0286141
0.0133337
-0.0273482
0.0159118
-0.0258336
0.0183199
-0.0241521
0.0205619
-0.0223447
0.022642
-0.0204216
0.0245574
-0.0183421
0.0262919
-0.0160298
0.0278083
-0.0133702
0.0290449
-0.0102336
0.0299204
-0.00653943
0.0303442
-0.00224846
0.0302191
0.00256922
0.0295027
0.00767791
0.0281504
0.012996
0.0261758
0.0181293
0.0236412
0.0227686
0.0206471
0.0266673
0.0173303
0.0296139
0.0138326
0.0315555
0.0102783
0.0325632
0.00676537
0.0327854
0.00335484
0.0324319
7.32439e-05
0.0317055
-0.00307937
0.0307758
-0.0061217
0.0297524
-0.00906541
0.0286344
-0.01191
0.0273644
-0.0146356
0.0258443
-0.017201
0.02396
-0.0195475
0.0216185
-0.0216067
0.0187672
-0.0233087
0.015408
-0.0245921
0.0116068
-0.0254124
0.00748104
-0.0257368
0.00314027
-0.0255606
-0.00127113
-0.0249058
-0.00550335
-0.0238093
-0.00944782
-0.0223225
-0.0129863
-0.0205067
-0.0160279
-0.0184293
-0.0185124
-0.0161591
-0.0204105
-0.013764
-0.0217219
-0.0113075
-0.0224671
-0.00884815
-0.022684
-0.00643725
-0.0224238
-0.00411867
-0.0217468
-0.00192863
-0.0207174
0.000103818
-0.0194011
0.00195827
-0.0178535
0.00361934
-0.0161544
0.00508005
-0.0143503
0.00633616
-0.0124866
0.00738894
-0.0106141
0.00824397
-0.00877168
0.0089101
-0.00699238
0.00939851
-0.00530159
0.00972231
-0.00371982
0.00989582
-0.00226197
0.00993462
-0.00093873
0.00985436
0.000241327
0.00966948
0.00128447
0.00939626
0.00218643
0.00904926
0.00295142
0.00864238
0.0035861
0.00818879
0.00409984
0.0077008
0.00450125
0.00718996
0.00480296
0.00666794
0.0050141
0.00514476
0.00614416
-0.0242968
-0.0103251
-0.0232461
-0.0114228
-0.0221349
-0.0127638
-0.0208951
-0.0144385
-0.0194515
-0.0165501
-0.0177389
-0.0190295
-0.015725
-0.021774
-0.0133861
-0.0246308
-0.0107445
-0.0273126
-0.00785263
-0.0296385
-0.00477539
-0.0314571
-0.00159017
-0.0326937
0.00162248
-0.0332749
0.0047963
-0.0332243
0.00787139
-0.0326183
0.0108064
-0.0315491
0.0135761
-0.0301179
0.0161689
-0.0284264
0.0185869
-0.02657
0.0208395
-0.0245973
0.022937
-0.0225191
0.0248828
-0.020288
0.0266644
-0.0178114
0.0282452
-0.014951
0.0295597
-0.0115481
0.0305182
-0.0074979
0.0310172
-0.00274746
0.0309463
0.0026401
0.0302452
0.00837904
0.028873
0.0143682
0.0268341
0.0201682
0.0241959
0.0254069
0.0210713
0.029792
0.0176145
0.0330707
0.0139844
0.0351856
0.0103182
0.0362294
0.00672131
0.0363823
0.00325558
0.0358977
-5.49991e-05
0.0350161
-0.00322788
0.0339486
-0.006286
0.0328106
-0.00925239
0.0316008
-0.0121329
0.0302449
-0.0149095
0.028621
-0.0175388
0.0265893
-0.0199564
0.024036
-0.0220863
0.0208972
-0.023851
0.0171727
-0.0251822
0.012938
-0.0260308
0.00832961
-0.0263592
0.00346869
-0.0261643
-0.00146599
-0.0254699
-0.00619777
-0.0243163
-0.0106014
-0.0227592
-0.0145434
-0.0208644
-0.0179228
-0.0187035
-0.0206732
-0.0163496
-0.0227644
-0.0138734
-0.0241981
-0.0113413
-0.0249992
-0.00881335
-0.0252119
-0.00634242
-0.0248948
-0.00397298
-0.0241162
-0.00174155
-0.0229488
0.000322732
-0.0214654
0.0022012
-0.019732
0.0038775
-0.0178307
0.0053461
-0.0158189
0.00660408
-0.0137446
0.00765292
-0.0116629
0.00849926
-0.00961801
0.00915286
-0.00764598
0.0096258
-0.00577453
0.00993191
-0.00402594
0.0100862
-0.00241625
0.0101054
-0.000957884
0.0100044
0.000342269
0.00979937
0.00148951
0.0095066
0.0024792
0.00914097
0.00331705
0.00871667
0.00401041
0.00824706
0.00456945
0.00774455
0.00500377
0.00722079
0.00532672
0.00668692
0.00554797
0.00567922
0.00615247
-0.0244319
-0.0113875
-0.0233957
-0.012459
-0.0223216
-0.0138379
-0.0211263
-0.0156338
-0.0197211
-0.0179553
-0.0180293
-0.0207213
-0.016009
-0.0237943
-0.0136429
-0.0269969
-0.0109477
-0.0300079
-0.00798479
-0.0326013
-0.00482628
-0.0346156
-0.00155883
-0.0359612
0.00172928
-0.036563
0.00496612
-0.0364612
0.00808895
-0.0357412
0.0110558
-0.034516
0.0138433
-0.0329055
0.0164442
-0.0310273
0.0188658
-0.0289917
0.0211247
-0.0268562
0.0232389
-0.0246333
0.0252185
-0.0222676
0.027056
-0.0196489
0.0287148
-0.0166099
0.0301242
-0.0129574
0.031183
-0.00855666
0.0317725
-0.00333694
0.0317684
0.00264416
0.0310848
0.00906263
0.029692
0.015761
0.0275789
0.0222814
0.0248208
0.0281649
0.0215449
0.0330679
0.0179261
0.0366895
0.0141442
0.0389674
0.0103511
0.0400226
0.00666099
0.0400724
0.00313626
0.0394224
-0.000205296
0.0383576
-0.00339303
0.0371364
-0.00646392
0.0358814
-0.00945224
0.0345891
-0.0123713
0.0331639
-0.0152051
0.0314547
-0.0179072
0.0292914
-0.0204063
0.0265351
-0.0226178
0.0231087
-0.0244548
0.0190097
-0.0258412
0.0143244
-0.0267224
0.0092108
-0.0270551
0.00380146
-0.0268391
-0.00168205
-0.0260996
-0.00693723
-0.0248812
-0.0118198
-0.0232444
-0.0161802
-0.0212603
-0.0199068
-0.0190057
-0.0229278
-0.0165579
-0.0252123
-0.0139911
-0.0267649
-0.0113746
-0.0276157
-0.00877067
-0.0278159
-0.00623328
-0.0274322
-0.00380768
-0.0265418
-0.00153069
-0.0252258
0.000568914
-0.023565
0.00247312
-0.0216362
0.00416575
-0.0195234
0.00564215
-0.0172952
0.00690184
-0.0150043
0.00794591
-0.012707
0.00878224
-0.0104543
0.00942161
-0.00828536
0.00987711
-0.00623003
0.0101634
-0.00431218
0.0102962
-0.0025491
0.0102934
-0.000955131
0.0101694
0.000466362
0.00994196
0.00171692
0.00962748
0.00279367
0.00924119
0.00370334
0.00879754
0.00445406
0.00831011
0.00505688
0.00779141
0.00552247
0.00725313
0.005865
0.00670603
0.00609507
0.00622564
0.0061596
-0.0245613
-0.0124659
-0.0235491
-0.0134712
-0.022525
-0.014862
-0.0213883
-0.0167704
-0.0200349
-0.0193087
-0.018375
-0.0223812
-0.0163553
-0.025814
-0.0139637
-0.0293885
-0.0112114
-0.0327602
-0.00817019
-0.0356425
-0.0049203
-0.0378655
-0.00155827
-0.0393232
0.00181875
-0.0399401
0.00513172
-0.0397741
0.00831479
-0.0389242
0.0113247
-0.0375258
0.0141393
-0.0357201
0.0167544
-0.0336424
0.0191829
-0.0314201
0.0214492
-0.0291226
0.02358
-0.0267641
0.0255941
-0.0242816
0.02749
-0.0215449
0.0292334
-0.0183532
0.0307474
-0.0144714
0.0319187
-0.00972803
0.0326113
-0.00402956
0.0326865
0.00256897
0.032026
0.00972321
0.0306114
0.0171755
0.0284146
0.0244782
0.0255185
0.031061
0.0220667
0.0365198
0.0182609
0.0404952
0.0143055
0.0429228
0.0103693
0.0439588
0.00657676
0.043865
0.00299025
0.0430089
-0.000382007
0.0417299
-0.0035773
0.0403317
-0.00665589
0.03896
-0.00966419
0.0375974
-0.0126237
0.0361235
-0.0155209
0.0343519
-0.0183056
0.0320761
-0.020898
0.0291276
-0.0232031
0.0254137
-0.0251231
0.0209297
-0.0265726
0.0157739
-0.0274913
0.0101295
-0.0278291
0.00413931
-0.0275884
-0.00192276
-0.0267978
-0.00772784
-0.025506
-0.0131115
-0.0237796
-0.0179066
-0.0216954
-0.021991
-0.019336
-0.0252872
-0.0167836
-0.0277647
-0.0141164
-0.0294321
-0.0114067
-0.0303254
-0.00871882
-0.0305037
-0.00610839
-0.0300426
-0.00362137
-0.0290288
-0.00129464
-0.0275525
0.000843297
-0.0257029
0.00277477
-0.0235676
0.00448518
-0.0212338
0.00596963
-0.0187797
0.00723029
-0.0162649
0.00826861
-0.0137453
0.00909343
-0.0112792
0.00971673
-0.00890867
0.0101527
-0.00666602
0.0104168
-0.0045763
0.0105261
-0.00265832
0.0104985
-0.000927546
0.0103491
0.000615727
0.0100971
0.00196895
0.00975871
0.00313204
0.00934968
0.00411237
0.00888473
0.004919
0.00837768
0.00556393
0.00784112
0.00605903
0.00728676
0.00641936
0.00672508
0.00665675
0.00678521
0.00616551
-0.0246892
-0.0135562
-0.0237112
-0.0144493
-0.02275
-0.0158231
-0.0216854
-0.017835
-0.0203943
-0.0205998
-0.0187724
-0.0240031
-0.0167525
-0.0278339
-0.0143289
-0.0318121
-0.0115106
-0.0355785
-0.00837873
-0.0387744
-0.00502391
-0.0412203
-0.00155438
-0.0427927
0.00192185
-0.0434163
0.00531803
-0.0431703
0.00856463
-0.0421708
0.0116173
-0.0405785
0.014456
-0.0385588
0.0170808
-0.0362672
0.0195112
-0.0338505
0.0217805
-0.0313919
0.0239257
-0.0289093
0.025975
-0.026331
0.0279352
-0.023505
0.0297743
-0.0201923
0.0314099
-0.0161071
0.0327149
-0.011033
0.0335321
-0.00484676
0.0337029
0.00239816
0.0330739
0.0103522
0.0316364
0.0186131
0.0293458
0.0267688
0.0262941
0.0341127
0.0226422
0.0401716
0.0186225
0.0445149
0.0144698
0.0470756
0.0103725
0.0480561
0.00646725
0.0477702
0.00281734
0.0466588
-0.000579859
0.0451271
-0.003779
0.0435308
-0.00685793
0.042039
-0.00988316
0.0406227
-0.0128852
0.0391255
-0.0158527
0.0373194
-0.0187308
0.0349542
-0.0214298
0.0318266
-0.023842
0.0278259
-0.0258573
0.0229451
-0.0273793
0.0172959
-0.028341
0.0110911
-0.0286836
0.00448195
-0.0284156
-0.00219077
-0.0275676
-0.00857583
-0.0261932
-0.014486
-0.0243661
-0.0197337
-0.0221701
-0.024187
-0.0196943
-0.027763
-0.0170261
-0.0304329
-0.0142481
-0.0322101
-0.0114358
-0.0331377
-0.00865616
-0.0332834
-0.00596607
-0.0327327
-0.00341227
-0.0315826
-0.0010317
-0.0299331
0.00114747
-0.0278821
0.00310805
-0.0255282
0.00483721
-0.0229629
0.00632959
-0.0202721
0.00759021
-0.0175256
0.00862183
-0.0147769
0.0094336
-0.0120909
0.0100389
-0.00951394
0.0104531
-0.00708024
0.0106926
-0.00481583
0.0107761
-0.00274182
0.010721
-0.000872375
0.0105439
0.000792732
0.0102648
0.00224805
0.0099003
0.00349658
0.00946638
0.00454629
0.00897816
0.00540723
0.00844964
0.00609245
0.00789354
0.00661512
0.00732158
0.00699132
0.00674401
0.00723432
0.00735899
0.00617022
-0.0087684
-0.0139442
-0.00843273
-0.0147849
-0.00811104
-0.0161448
-0.00775526
-0.0181908
-0.00731675
-0.0210383
-0.00675442
-0.0245655
-0.00604123
-0.0285471
-0.00517501
-0.0326783
-0.00416021
-0.0365933
-0.00302733
-0.0399073
-0.00181147
-0.0424362
-0.000553919
-0.0440503
0.000703957
-0.0446742
0.00192934
-0.0443957
0.00309651
-0.043338
0.00418938
-0.0416714
0.00520121
-0.0395706
0.00613308
-0.0371991
0.00699334
-0.0347107
0.00779634
-0.0321949
0.00855806
-0.029671
0.00929162
-0.0270646
0.0100017
-0.0242151
0.0106785
-0.0208691
0.0112912
-0.0167198
0.0117905
-0.0115323
0.0121148
-0.00517111
0.0122023
0.00231071
0.0119903
0.0105642
0.0114758
0.0191276
0.0106408
0.0276038
0.0095178
0.0352357
0.00816974
0.0415197
0.00668793
0.0459967
0.00516356
0.0485999
0.0036696
0.0495501
0.0022576
0.0491822
0.000950207
0.0479662
-0.000256735
0.046334
-0.00138814
0.0446622
-0.00247604
0.0431269
-0.00354999
0.0416966
-0.00462326
0.0401988
-0.00569249
0.0383886
-0.00673696
0.0359987
-0.00772203
0.0328117
-0.00860599
0.0287099
-0.00934629
0.0236854
-0.00990562
0.0178552
-0.0102583
0.0114438
-0.0103812
0.00460485
-0.0102789
-0.00229313
-0.00996288
-0.00889182
-0.00945391
-0.014995
-0.00878004
-0.0204076
-0.00797275
-0.0249943
-0.00706529
-0.0286705
-0.00609004
-0.0314081
-0.00507734
-0.0332228
-0.00405477
-0.0341603
-0.00304666
-0.0342915
-0.00207354
-0.0337058
-0.00115209
-0.0325041
-0.000295323
-0.0307899
0.000486679
-0.0286641
0.0011882
-0.0262297
0.00180511
-0.0235799
0.0023354
-0.0208024
0.00278132
-0.0179715
0.00314473
-0.0151403
0.00342858
-0.0123748
0.00363804
-0.0097234
0.00377891
-0.0072211
0.00385723
-0.00489415
0.00388005
-0.00276464
0.00385308
-0.000845406
0.00378328
0.00086254
0.00367741
0.00235392
0.00354154
0.00363246
0.00338144
0.00470638
0.00320254
0.00558613
0.00300984
0.00628515
0.00280789
0.00681708
0.00260081
0.0071984
0.00239219
0.00744294
0.00756594
0.00218524
-0.00878167
-0.0143327
-0.00845261
-0.015114
-0.00814188
-0.0164555
-0.0077983
-0.0185344
-0.00737032
-0.0214663
-0.00681455
-0.0251212
-0.00610226
-0.0292593
-0.00523104
-0.0335496
-0.00420677
-0.0376176
-0.00306019
-0.0410539
-0.00182844
-0.0436679
-0.000554522
-0.0453242
0.000718362
-0.045947
0.00195636
-0.0456337
0.00313329
-0.0445149
0.00423293
-0.042771
0.00524882
-0.0405865
0.00618263
-0.0381329
0.00704355
-0.0355716
0.00784713
-0.0329985
0.00861089
-0.0304347
0.00934959
-0.0278033
0.0100693
-0.0249348
0.0107605
-0.0215603
0.0113919
-0.0173512
0.0119118
-0.0120522
0.0122557
-0.00551503
0.012358
0.00220848
0.0121514
0.0107708
0.0116322
0.0196467
0.010782
0.0284539
0.00963357
0.0363842
0.00825272
0.0429005
0.00673708
0.0475124
0.00518272
0.0501543
0.00366487
0.0510679
0.00223709
0.05061
0.000921843
0.0492815
-0.000286829
0.0475427
-0.00141722