/*--------------------------------*- C++ -*----------------------------------*\
| =========                 |                                                 |
| \\      /  F ield         | OpenFOAM: The Open Source CFD Toolbox           |
|  \\    /   O peration     | Version:  v1912                                 |
|   \\  /    A nd           | Website:  www.openfoam.com                      |
|    \\/     M anipulation  |                                                 |
\*---------------------------------------------------------------------------*/
FoamFile
{
    version     2.0;
    format      ascii;
    class       surfaceScalarField;
    location    "80";
    object      alphaPhi0.water;
}
// * * * * * * * * * * * * * * * * * * * * * * * * * * * * * * * * * * * * * //

dimensions      [0 3 -1 0 0 0 0];
oriented        oriented;


internalField   nonuniform List<scalar> 
28285
(
-0.000566016
-2.99325e-05
-0.000534656
-3.13596e-05
-0.000501749
-3.29074e-05
-0.000467182
-3.45672e-05
-0.000430958
-3.62235e-05
-0.00039412
-3.68378e-05
-0.000360931
-3.31895e-05
-2.79585e-05
-0.000332972
-0.000565151
-5.98503e-05
-0.000533805
-6.27061e-05
-0.000500906
-6.58061e-05
-0.000466339
-6.91341e-05
-0.000430151
-7.24119e-05
-0.000393497
-7.34922e-05
-0.000360671
-6.60147e-05
-5.52139e-05
-0.000333416
-0.000565204
-8.97666e-05
-0.000533857
-9.40537e-05
-0.000500957
-9.87063e-05
-0.00046639
-0.000103701
-0.000430228
-0.000108574
-0.000393563
-0.000110157
-0.000360547
-9.90308e-05
-8.25129e-05
-0.000333248
-0.000565169
-0.000119686
-0.00053382
-0.000125403
-0.000500919
-0.000131607
-0.000466358
-0.000138261
-0.000430214
-0.000144718
-0.000393631
-0.000146741
-0.000360605
-0.000132056
-0.000110002
-0.000333116
-0.000565148
-0.000149608
-0.000533798
-0.000156753
-0.000500897
-0.000164509
-0.000466347
-0.000172811
-0.000430237
-0.000180828
-0.000393657
-0.000183321
-0.000360522
-0.000165191
-0.000137595
-0.000332929
-0.000565123
-0.00017953
-0.000533774
-0.000188101
-0.000500884
-0.000197399
-0.000466353
-0.000207341
-0.000430261
-0.000216921
-0.000393724
-0.000219857
-0.000360513
-0.000198403
-0.0001654
-0.000332708
-0.00056514
-0.000209448
-0.000533797
-0.000219444
-0.000500919
-0.000230278
-0.000466404
-0.000241856
-0.000430345
-0.00025298
-0.000393817
-0.000256386
-0.000360481
-0.000231738
-0.000193448
-0.000332433
-0.000565235
-0.000239356
-0.000533913
-0.000250766
-0.000501073
-0.000263117
-0.000466616
-0.000276313
-0.000430611
-0.000288985
-0.000394121
-0.000292876
-0.000360681
-0.000265178
-0.000222011
-0.000332118
-0.000565601
-0.00026922
-0.000534348
-0.000282019
-0.000501624
-0.000295842
-0.000467318
-0.000310619
-0.000431444
-0.00032486
-0.000395013
-0.000329306
-0.000361441
-0.00029875
-0.000251622
-0.00033183
-0.000566646
-0.000298961
-0.000535571
-0.000313095
-0.000503118
-0.000328294
-0.000469164
-0.000344573
-0.000433618
-0.000360406
-0.00039738
-0.000365545
-0.000363669
-0.000332461
-0.000283015
-0.000332276
-0.000568934
-0.000328424
-0.000538253
-0.000343776
-0.000506395
-0.000360152
-0.00047323
-0.000377739
-0.00043848
-0.000395156
-0.000402743
-0.000401282
-0.00036851
-0.000366693
-0.000317137
-0.000334388
-0.000572256
-0.000357412
-0.000542214
-0.000373818
-0.00051127
-0.000391095
-0.000479451
-0.000409558
-0.000446456
-0.000428152
-0.000412091
-0.000435646
-0.000377002
-0.000401781
-0.00035422
-0.000339919
-0.000575078
-0.000385951
-0.000545634
-0.000403261
-0.000515522
-0.000421207
-0.000484944
-0.000440136
-0.0004539
-0.000459196
-0.000421425
-0.000468121
-0.000385648
-0.000437559
-0.000393571
-0.000346297
-0.000577094
-0.000414125
-0.000548119
-0.000432236
-0.000518627
-0.0004507
-0.000488923
-0.00046984
-0.000459228
-0.000488891
-0.000428321
-0.000499028
-0.000393371
-0.000472509
-0.000436137
-0.000350805
-0.00346278
-0.000935167
-0.00296962
-0.00092539
-0.00250683
-0.000913493
-0.00207705
-0.000899615
-0.00168014
-0.000885801
-0.00131599
-0.000863182
-0.000982104
-0.000806394
-0.000729999
-0.000688242
-0.0034242
-0.00145815
-0.00292864
-0.00142096
-0.00246287
-0.00137926
-0.00202968
-0.0013328
-0.00162959
-0.0012859
-0.00126622
-0.00122655
-0.000944266
-0.00112834
-0.00100112
-0.000673141
-0.00341984
-0.00198136
-0.00292382
-0.00191697
-0.0024573
-0.00184579
-0.00202327
-0.00176683
-0.00162269
-0.00168647
-0.00126027
-0.00158898
-0.000940249
-0.00144836
-0.00127093
-0.00067044
-0.00341448
-0.00250464
-0.00291832
-0.00241313
-0.00245146
-0.00231265
-0.00201685
-0.00220145
-0.0016158
-0.00208752
-0.00125349
-0.00195129
-0.000934116
-0.00176774
-0.00153992
-0.000665134
-0.00340455
-0.00302754
-0.00290889
-0.00290879
-0.00244259
-0.00277895
-0.00200827
-0.00263576
-0.00160743
-0.00248836
-0.00124538
-0.00231333
-0.000926791
-0.00208633
-0.0018095
-0.000657207
-0.00339242
-0.0035501
-0.00289721
-0.003404
-0.00243142
-0.00324474
-0.00199727
-0.0030699
-0.00159678
-0.00288885
-0.0012352
-0.00267492
-0.00091725
-0.00240428
-0.00207824
-0.000648508
-0.00338622
-0.00407262
-0.00289105
-0.00389917
-0.00242519
-0.0037106
-0.00199098
-0.00350412
-0.00159015
-0.00328968
-0.00122944
-0.00303563
-0.000910914
-0.00272281
-0.00234629
-0.00064287
-0.0153159
-0.00490511
-0.0144455
-0.00476956
-0.0135349
-0.00462127
-0.012584
-0.00445498
-0.0115966
-0.00427707
-0.0106033
-0.00402891
-0.00960098
-0.00372515
-0.0032426
-0.00870466
-0.0153772
-0.00573631
-0.0145079
-0.00563893
-0.0135984
-0.00553076
-0.0126499
-0.00540345
-0.0116692
-0.00525782
-0.0106883
-0.00500974
-0.00969579
-0.0047177
-0.0041782
-0.0087602
-0.0153795
-0.0065679
-0.0145116
-0.00650681
-0.0136111
-0.00643123
-0.0126805
-0.00633408
-0.0117197
-0.00621858
-0.0107487
-0.00598074
-0.00973349
-0.00573293
-0.0051714
-0.00874028
-0.0153825
-0.00739755
-0.0145161
-0.00737318
-0.0136137
-0.00733366
-0.0126771
-0.00727067
-0.0117075
-0.00718817
-0.0107299
-0.00695834
-0.00972253
-0.00674029
-0.00618378
-0.00871015
-0.015353
-0.00822646
-0.0144868
-0.00823942
-0.0135854
-0.00823502
-0.0126537
-0.00820237
-0.0116918
-0.00815012
-0.0107133
-0.00793682
-0.00969728
-0.0077563
-0.00722113
-0.00865993
-0.0153466
-0.0090518
-0.0144833
-0.0091028
-0.0135807
-0.00913758
-0.0126422
-0.00914082
-0.0116722
-0.00912018
-0.0106858
-0.00892318
-0.00967227
-0.00876986
-0.00827084
-0.00862256
-0.0153295
-0.00988512
-0.0144592
-0.00997308
-0.0135516
-0.0100452
-0.0126093
-0.0100831
-0.0116397
-0.0100898
-0.0106516
-0.00991132
-0.00964249
-0.00977894
-0.00932931
-0.00858402
-0.0154068
-0.0107292
-0.0145266
-0.0108532
-0.0136081
-0.0109637
-0.0126519
-0.0110393
-0.0116685
-0.0110731
-0.010663
-0.0109168
-0.00964632
-0.0107956
-0.0104075
-0.00856814
-0.0156736
-0.0116217
-0.0147459
-0.011781
-0.0137822
-0.0119274
-0.0127838
-0.0120377
-0.0117655
-0.0120915
-0.0107275
-0.0119548
-0.00969495
-0.0118282
-0.0115111
-0.00859132
-0.0163409
-0.0125631
-0.0153471
-0.0127748
-0.0142946
-0.0129798
-0.0131939
-0.0131384
-0.0120738
-0.0132117
-0.0109473
-0.0130813
-0.00984718
-0.0129283
-0.0126593
-0.00869905
-0.0169136
-0.0134874
-0.015942
-0.0137465
-0.0149023
-0.0140195
-0.013792
-0.0142487
-0.0126328
-0.0143709
-0.0114389
-0.0142752
-0.0102312
-0.014136
-0.0139548
-0.00893566
-0.0170832
-0.0142493
-0.0161241
-0.0147056
-0.0151038
-0.0150398
-0.0140231
-0.0153294
-0.0129075
-0.0154865
-0.0117638
-0.015419
-0.0106045
-0.0152952
-0.0152727
-0.00928662
-0.0133339
-0.00705756
-0.0131786
-0.00915687
-0.0128293
-0.0103341
-0.0123346
-0.0112298
-0.011715
-0.0120368
-0.0110006
-0.0126752
-0.0101723
-0.0133035
-0.0141671
-0.00908369
-0.00280891
-0.000257418
-0.00342473
-0.000378975
-0.0039988
-0.00055977
-0.00449157
-0.000821617
-0.00489298
-0.00118953
-0.00518244
-0.00169535
-0.00528229
-0.00238211
-0.00334814
-0.00517065
-0.000104839
-7.47784e-06
-0.000155451
-1.12198e-05
-0.000222528
-1.69863e-05
-0.000304176
-2.59814e-05
-0.000395603
-4.12701e-05
-0.000531461
-6.02899e-05
-0.000719959
-8.6871e-05
-0.000129843
-0.000940773
2.72599e-06
-1.97342e-07
2.70158e-06
-2.93587e-07
1.90962e-06
-4.38402e-07
-5.12566e-07
-6.50235e-07
-6.51268e-06
-1.05974e-06
-1.90333e-05
-1.7034e-06
-4.08873e-05
-2.62186e-06
-4.3834e-06
-6.62443e-05
1.74503e-07
-3.66417e-09
2.53843e-07
-5.43351e-09
3.65019e-07
-8.18388e-09
5.31375e-07
-1.20061e-08
8.24878e-07
-1.85507e-08
1.22295e-06
-2.48813e-08
1.43434e-06
-3.50238e-08
-5.47715e-08
1.2723e-06
3.12464e-09
-5.23048e-11
4.761e-09
-7.56187e-11
7.30838e-09
-1.14754e-10
1.17983e-08
-1.70547e-10
2.09312e-08
-2.96672e-10
3.64387e-08
-3.90661e-10
5.61291e-08
-7.67506e-10
-8.11328e-10
7.46692e-08
2.91959e-11
-9.40534e-17
4.42071e-11
-5.1557e-17
6.63703e-11
-4.90876e-15
1.07974e-10
-4.76181e-15
1.9932e-10
-3.42992e-14
3.53605e-10
-3.63068e-13
5.91179e-10
-2.27786e-12
-3.09729e-14
7.59283e-10
5.39074e-17
-4.65551e-17
3.95322e-16
-3.4546e-16
2.87248e-15
-2.55293e-15
1.06736e-14
-9.34045e-15
6.18304e-14
-1.61141e-14
3.53544e-13
-1.8442e-14
1.03867e-12
-2.17462e-14
-2.38518e-14
1.02935e-12
6.22109e-17
-5.1761e-18
6.34388e-16
-1.71362e-16
3.8403e-15
-1.49946e-15
1.14995e-14
-7.16217e-15
1.56605e-14
-1.20587e-14
1.73309e-14
-1.54015e-14
1.73579e-14
-1.82117e-14
-2.18397e-14
1.31496e-14
3.96976e-18
-1.36538e-19
1.64934e-16
-2.89769e-18
1.80773e-15
-3.36219e-17
7.9205e-15
-3.21817e-16
1.52117e-14
-1.07814e-15
1.91221e-14
-2.54176e-15
2.14398e-14
-6.68349e-15
-1.08902e-14
1.69988e-14
1.06467e-19
-6.97722e-21
2.4163e-18
-6.3451e-20
2.83642e-17
-1.17751e-18
2.93303e-16
-8.3269e-18
9.42193e-16
-1.72655e-17
2.72505e-15
-3.32663e-17
8.74984e-15
-3.84205e-16
-4.16821e-16
3.75672e-15
3.15565e-21
-2.30969e-21
4.68057e-20
-3.02609e-21
8.86931e-19
-4.89202e-21
5.41496e-18
-7.51875e-21
1.18447e-17
-4.56847e-21
2.99436e-17
-6.00934e-20
2.28469e-16
-1.84717e-18
-5.97028e-18
1.99417e-16
1.03308e-21
-3.70071e-22
1.44221e-21
-7.10307e-22
2.54366e-21
-1.57473e-21
3.39467e-21
-2.60399e-21
2.77577e-21
-2.04358e-21
5.796e-20
-8.40083e-22
1.51634e-18
-4.84142e-23
-7.68009e-23
2.4593e-18
1.48612e-22
-5.70178e-23
3.41675e-22
-1.01442e-22
7.30839e-22
-2.10184e-22
1.01332e-21
-3.63052e-22
7.25207e-22
-3.01088e-22
1.23554e-22
-1.23546e-22
2.64426e-23
-2.27269e-23
-5.08143e-23
1.88873e-22
2.1246e-23
-5.88765e-24
4.07227e-23
-1.12904e-23
8.15657e-23
-2.48287e-23
1.14114e-22
-4.29553e-23
7.30671e-23
-3.10526e-23
2.10776e-23
-1.08269e-23
1.08351e-23
-2.66661e-24
-1.34651e-23
3.90409e-23
2.01321e-24
-3.05154e-25
4.00428e-24
-6.22508e-25
8.25755e-24
-1.481e-24
1.14493e-23
-2.56742e-24
5.76211e-24
-1.70691e-24
1.23e-24
-4.89747e-25
8.87272e-25
-3.34756e-25
-1.80362e-24
7.27153e-24
9.85763e-26
-2.53948e-37
2.00682e-25
-1.5244e-37
4.24962e-25
-5.71699e-38
5.7414e-25
-1.32085e-40
2.43809e-25
-3.29079e-30
8.52331e-26
-1.08538e-28
9.13668e-26
-1.279e-26
-1.35972e-25
7.97509e-25
-1.07423e-57
-2.53948e-37
-1.47554e-57
-1.5244e-37
-6.92426e-58
-5.71699e-38
3.1764e-39
-3.30849e-39
2.09432e-29
-4.81964e-39
6.87275e-29
-4.73946e-38
5.85466e-27
-1.69754e-37
-2.4071e-37
4.97326e-26
1.13667e-37
-8.19423e-38
4.00566e-38
-4.81009e-38
6.69919e-39
-4.00221e-38
1.02201e-39
-6.59164e-39
2.15348e-58
-3.79763e-39
2.36698e-58
-4.73946e-38
-3.81378e-58
-1.69754e-37
-2.46525e-37
5.81426e-39
3.71402e-38
-1.37913e-38
1.10233e-38
-1.46415e-38
1.0204e-38
-1.84512e-38
1.31378e-39
-4.65089e-39
1.25639e-39
-5.18364e-39
2.77399e-38
-3.66605e-38
5.58915e-38
-7.63564e-38
-1.10842e-37
7.88121e-38
3.47562e-39
2.65096e-40
3.6391e-39
-2.2783e-39
4.35816e-39
-4.22244e-39
1.17056e-39
-1.97075e-39
2.05887e-39
-5.07255e-39
1.25191e-38
-2.62376e-38
2.17559e-38
-4.59928e-38
-4.71207e-38
3.0823e-38
-1.24121e-40
1.57479e-39
6.57216e-40
2.66215e-40
8.10477e-40
-4.41245e-40
4.32739e-40
-6.13773e-40
2.20318e-39
-3.02184e-39
8.03897e-39
-1.32065e-38
9.68741e-39
-2.07924e-38
-1.88135e-38
6.47301e-39
-7.51017e-40
1.7396e-39
-1.11654e-40
5.28606e-40
1.16092e-40
8.20698e-41
1.59542e-40
-6.12508e-41
1.16933e-39
-8.41673e-40
3.13406e-39
-3.40894e-39
3.41311e-39
-4.75428e-39
-3.54577e-39
2.55433e-39
-8.42407e-40
1.41497e-39
-2.23996e-40
5.34915e-40
-3.06168e-41
1.31273e-40
4.3909e-41
1.91858e-41
2.66078e-40
-9.85254e-41
6.63682e-40
-4.87609e-40
6.86478e-40
-6.82737e-40
-4.09031e-40
3.67632e-40
-6.97064e-40
9.5033e-40
-2.30014e-40
4.01505e-40
-4.92155e-41
1.18899e-40
-6.74798e-42
2.80765e-41
3.4936e-41
3.67491e-42
9.23087e-41
-3.47818e-41
9.4527e-41
-5.10942e-41
-1.89284e-41
3.56066e-41
-4.74939e-40
5.48514e-40
-1.74835e-40
2.47792e-40
-4.49147e-41
8.37998e-41
-9.86716e-42
2.51195e-41
-1.14844e-42
8.04396e-42
6.77527e-42
1.285e-42
6.74812e-42
1.80232e-43
1.20583e-43
9.94169e-43
-2.7782e-40
2.80118e-40
-1.09377e-40
1.3331e-40
-3.19072e-41
4.93401e-41
-8.85876e-42
1.64238e-41
-2.52646e-42
5.52262e-42
-3.6278e-43
1.07974e-42
-4.75723e-44
2.20349e-43
1.17674e-43
-2.83928e-44
-1.43565e-40
1.28117e-40
-5.95626e-41
6.36734e-41
-1.89814e-41
2.52521e-41
-5.79339e-42
8.98987e-42
-1.73957e-42
3.08228e-42
-3.04383e-43
6.91229e-43
-5.78189e-44
1.65331e-43
8.58008e-44
-2.75152e-44
-6.63835e-41
5.2947e-41
-2.87854e-41
2.73054e-41
-9.80747e-42
1.14287e-41
-3.17962e-42
4.277e-42
-9.72762e-43
1.49443e-42
-1.94329e-43
3.73481e-43
-4.31025e-44
9.87383e-44
5.16356e-44
-1.98866e-44
-2.77241e-41
1.99112e-41
-1.24766e-41
1.05988e-41
-4.47756e-42
4.63232e-42
-1.51691e-42
1.80345e-42
-4.72822e-43
6.42504e-43
-1.04749e-43
1.74927e-43
-2.55665e-44
5.00468e-44
2.67335e-44
-1.1868e-44
-1.05346e-41
6.85199e-42
-4.89592e-42
3.74939e-42
-1.83023e-42
1.69841e-42
-6.41535e-43
6.82983e-43
-2.03772e-43
2.47889e-43
-4.89331e-44
7.21797e-44
-1.28631e-44
2.20418e-44
1.21636e-44
-6.09446e-45
-3.66415e-42
2.16765e-42
-1.75262e-42
1.21623e-42
-6.76454e-43
5.67409e-43
-2.43464e-43
2.34477e-43
-7.87558e-44
8.65787e-44
-2.0153e-44
2.65931e-44
-5.61764e-45
8.58226e-45
4.93851e-45
-2.74938e-45
-1.17323e-42
6.32505e-43
-5.75226e-43
3.63289e-43
-2.27556e-43
1.73722e-43
-8.36378e-44
7.3497e-44
-2.75251e-44
2.7581e-44
-7.41476e-45
8.84638e-45
-2.16942e-45
2.99577e-45
1.80988e-45
-1.10668e-45
-3.46981e-43
1.70811e-43
-1.73868e-43
1.002e-43
-7.00839e-44
4.89684e-44
-2.62338e-44
2.11607e-44
-8.77036e-45
8.06295e-45
-2.46413e-45
2.67921e-45
-7.5096e-46
9.47513e-46
6.04592e-46
-4.02208e-46
-9.49265e-44
4.27861e-44
-4.85669e-44
2.56041e-44
-1.98691e-44
1.27544e-44
-7.55889e-45
5.61958e-45
-2.56186e-45
2.17186e-45
-7.45359e-46
7.43839e-46
-2.3579e-46
2.73923e-46
1.85361e-46
-1.33171e-46
-2.40775e-44
9.96857e-45
-1.25684e-44
6.07138e-45
-5.20356e-45
3.07706e-45
-2.00848e-45
1.381e-45
-6.89177e-46
5.41555e-46
-2.06579e-46
1.90129e-46
-6.76714e-47
7.28583e-47
5.25193e-47
-4.05185e-47
-5.6639e-45
2.16215e-45
-3.01506e-45
1.33837e-45
-1.26271e-45
6.89581e-46
-4.94417e-46
3.15055e-46
-1.71184e-46
1.25149e-46
-5.26635e-47
4.50089e-47
-1.78913e-47
1.79216e-47
1.37952e-47
-1.13702e-47
-1.23869e-45
4.36833e-46
-6.71828e-46
2.74645e-46
-2.84896e-46
1.43863e-46
-1.12885e-46
6.68621e-47
-3.94758e-47
2.6917e-47
-1.23986e-47
9.88776e-48
-4.36795e-48
4.09715e-48
3.37542e-48
-2.96572e-48
-2.52553e-46
8.21823e-47
-1.39278e-46
5.25517e-47
-5.99458e-47
2.80034e-47
-2.40532e-47
1.32301e-47
-8.46439e-48
5.39349e-48
-2.71366e-48
2.02459e-48
-9.91936e-49
8.73547e-49
7.71118e-49
-7.20114e-49
-4.81793e-47
1.44155e-47
-2.69306e-47
9.3826e-48
-1.17775e-47
5.09038e-48
-4.78846e-48
2.44397e-48
-1.69706e-48
1.00837e-48
-5.55349e-49
3.87338e-49
-2.10602e-49
1.74163e-49
1.64728e-49
-1.63726e-49
-8.59566e-48
2.35529e-48
-4.86112e-48
1.56201e-48
-2.1604e-48
8.62239e-49
-8.91129e-49
4.20807e-49
-3.18697e-49
1.75812e-49
-1.06721e-49
6.92794e-50
-4.19012e-50
3.24933e-50
3.2906e-50
-3.49175e-50
-1.42788e-48
3.53366e-49
-8.15628e-49
2.38738e-49
-3.67906e-49
1.34084e-49
-1.54509e-49
6.65893e-50
-5.58882e-50
2.81859e-50
-1.9216e-50
1.14276e-50
-7.80463e-51
5.59238e-51
6.06391e-51
-6.95985e-51
-2.16311e-49
4.54898e-50
-1.24932e-49
3.12189e-50
-5.71757e-50
1.77642e-50
-2.4489e-50
8.96523e-51
-8.9431e-51
3.84225e-51
-3.15466e-51
1.59004e-51
-1.33016e-51
8.15589e-52
9.44143e-52
-1.27198e-51
-2.79764e-50
6.4204e-51
-1.62456e-50
4.24862e-51
-7.52862e-51
2.38856e-51
-3.27328e-51
1.15284e-51
-1.19545e-51
4.8086e-52
-4.32314e-52
1.89702e-52
-1.9028e-52
9.75384e-53
1.10292e-52
-1.93971e-52
-1.85793e-50
1.39893e-52
-1.03404e-50
9.92109e-53
-4.69466e-51
5.71995e-53
-1.95351e-51
2.85261e-53
-6.88246e-52
1.22355e-53
-2.36926e-52
4.95378e-54
-1.03504e-52
2.68782e-54
3.205e-54
-1.02668e-52
-4.28882e-52
2.44041e-54
-2.4466e-52
1.84189e-54
-1.12206e-52
1.09481e-54
-4.7803e-53
5.67151e-55
-1.69793e-53
2.49604e-55
-5.98422e-54
1.04467e-55
-2.70883e-54
5.96384e-56
7.57095e-56
-2.83011e-54
-7.75152e-54
3.48096e-56
-4.53031e-54
2.75516e-56
-2.12259e-54
1.70524e-56
-9.1769e-55
9.12737e-57
-3.3295e-55
4.14852e-57
-1.1916e-55
1.79176e-57
-5.66619e-56
1.08587e-57
1.47061e-57
-6.19399e-56
-1.11656e-55
4.04095e-58
-6.63771e-56
3.39119e-58
-3.19797e-56
2.18413e-58
-1.40009e-56
1.21439e-58
-5.21031e-57
5.689e-59
-1.89744e-57
2.55037e-59
-9.55998e-58
1.65082e-59
2.39042e-59
-1.09667e-57
-1.28545e-57
3.92906e-60
-7.81525e-58
3.50716e-60
-3.85954e-58
2.36071e-60
-1.72273e-58
1.36268e-60
-6.55779e-59
6.58828e-61
-2.45107e-59
3.07801e-61
-1.31138e-59
2.14468e-61
3.34218e-61
-1.59448e-59
-1.19539e-59
3.30331e-62
-7.44006e-60
3.14028e-62
-3.77133e-60
2.21307e-62
-1.71825e-60
1.32513e-62
-6.70679e-61
6.62348e-63
-2.58137e-61
3.23281e-63
-1.48383e-61
2.45619e-63
4.13601e-63
-1.92065e-61
-9.07137e-62
2.49761e-64
-5.7884e-62
2.52362e-64
-3.01261e-62
1.86003e-64
-1.40414e-62
1.15332e-64
-5.62217e-63
5.96036e-65
-2.24215e-63
3.05259e-65
-1.39967e-63
2.56952e-65
4.70404e-65
-1.94416e-63
-5.56095e-64
1.78399e-66
-3.63824e-64
1.90239e-66
-1.94445e-64
1.45937e-66
-9.27998e-65
9.33855e-67
-3.81636e-65
4.98162e-67
-1.588e-65
2.692e-67
-1.0951e-65
2.55746e-67
5.11701e-67
-1.64706e-65
-2.61182e-66
1.26659e-68
-1.74797e-66
1.40799e-68
-9.57054e-67
1.11525e-68
-4.67081e-67
7.32618e-69
-1.97066e-67
4.02083e-69
-8.61215e-68
2.30717e-69
-6.67952e-68
2.5162e-69
5.5118e-69
-1.094e-67
-6.43246e-69
-4.36912e-69
-2.42876e-69
-1.20081e-69
-5.14579e-70
-2.3567e-70
-2.06744e-70
-3.64361e-70
-0.000283508
-4.94642e-05
-0.000232981
-5.05271e-05
-0.000184757
-4.82242e-05
-0.000136141
-4.86158e-05
-8.66769e-05
-4.94643e-05
-3.51708e-05
-5.15061e-05
1.98125e-05
-5.49833e-05
7.94662e-05
-5.96537e-05
0.000144997
-6.55311e-05
0.000217647
-7.26496e-05
0.000298764
-8.11174e-05
0.000389646
-9.08821e-05
0.000491189
-0.000101542
0.000603432
-0.000112244
0.000725081
-0.000121648
0.000852921
-0.000127841
0.000981472
-0.00012855
0.00110296
-0.000121488
0.00120793
-0.000104971
0.00128639
-7.84605e-05
0.0013291
-4.27036e-05
0.00132906
3.2024e-08
0.00128715
4.19123e-05
0.00119754
8.96107e-05
0.00106409
0.000133447
0.000895675
0.000168419
0.000703843
0.000191832
0.000502067
0.000201776
0.00030227
0.000199797
0.000114436
0.000187834
-5.39887e-05
0.000168425
-0.000199506
0.000145517
-0.000320827
0.000121321
-0.000418966
9.81388e-05
-0.000495965
7.69994e-05
-0.000554221
5.82557e-05
-0.000596507
4.22858e-05
-0.000625247
2.87403e-05
-0.000642983
1.77364e-05
-0.000651524
8.54086e-06
-0.000652644
1.12014e-06
-0.00064778
-4.86383e-06
-0.000638241
-9.53905e-06
-0.000625301
-1.29406e-05
-0.00060956
-1.57409e-05
-0.000591555
-1.80049e-05
-0.000571715
-1.98396e-05
-0.000551044
-2.06715e-05
-0.000529691
-2.13531e-05
-0.000507857
-2.18341e-05
-0.000486939
-2.09175e-05
-0.000467826
-1.91131e-05
-0.000452394
-1.54324e-05
-0.000442105
-1.02888e-05
-0.000437195
-4.9104e-06
-0.000438393
1.19877e-06
-0.00044462
6.22668e-06
-0.00045524
1.062e-05
-0.000469174
1.39335e-05
-0.000484175
1.50009e-05
-0.000498152
1.39778e-05
-0.000509245
1.10928e-05
-0.000514705
5.45953e-06
-0.000511799
-2.90567e-06
-0.00049816
-1.36391e-05
-0.000471153
-2.70068e-05
-0.000428717
-4.24363e-05
-0.000368493
-6.02238e-05
-0.000288468
-8.00247e-05
-0.000187368
-0.0001011
-6.41378e-05
-0.00012323
8.05973e-05
-0.000144735
0.000244328
-0.000163731
0.000422461
-0.000178132
0.00060806
-0.000185599
0.000792456
-0.000184396
0.000965336
-0.00017288
0.00111583
-0.000150493
0.00123453
-0.000118704
0.00131449
-7.99551e-05
0.00135135
-3.68624e-05
0.0013446
6.74604e-06
0.00129728
4.73271e-05
0.00120873
8.85497e-05
0.00108703
0.000121701
0.000942189
0.000144836
0.000784464
0.000157725
0.000622869
0.000161595
0.000464503
0.000158366
0.000315014
0.000149489
0.000178914
0.000136099
5.87158e-05
0.000120198
-4.42738e-05
0.00010299
-0.000129624
8.53503e-05
-0.000197568
6.7944e-05
-0.000248668
5.11001e-05
-0.000284377
3.57086e-05
-0.000307222
2.28451e-05
-0.000319414
1.21916e-05
-0.000323974
4.56059e-06
-0.000323687
-2.86928e-07
-0.000320888
-2.79962e-06
-0.000317461
-3.42681e-06
-0.000314399
-3.06171e-06
-0.000311798
-2.60105e-06
-0.000309569
-2.22924e-06
-0.00030771
-1.85909e-06
-0.000306085
-1.62524e-06
-0.000304425
-1.65965e-06
-0.000302444
-1.98039e-06
-0.000299759
-2.68521e-06
-0.000296012
-3.74736e-06
-0.000290704
-5.30834e-06
-0.000283725
-6.97809e-06
-0.000275393
-8.33258e-06
-0.00026619
-9.20283e-06
-0.000256715
-9.47509e-06
-0.000247319
-9.39611e-06
-0.000237839
-9.48034e-06
-0.000227722
-1.01166e-05
-0.000215993
-1.17285e-05
-0.000201388
-1.46052e-05
-0.000182792
-1.85959e-05
-0.000159446
-2.33466e-05
-0.000131135
-2.8311e-05
-9.81194e-05
-3.30153e-05
-6.06374e-05
-3.74821e-05
-1.85615e-05
-4.20759e-05
2.85413e-05
-4.71028e-05
8.12369e-05
-5.26956e-05
0.000140166
-5.89293e-05
0.000205495
-6.53289e-05
0.000276281
-7.07856e-05
0.000351526
-7.52456e-05
0.000429714
-7.81883e-05
0.000508805
-7.90904e-05
0.000586492
-7.76874e-05
0.00065988
-7.33875e-05
0.000726369
-6.64891e-05
0.00078366
-5.72913e-05
0.000829609
-4.59491e-05
0.000862242
-3.26329e-05
0.000879975
-1.77329e-05
0.000882399
-2.42402e-06
0.000870784
1.16148e-05
0.000845134
2.56498e-05
0.000807098
3.80366e-05
0.000758659
4.84388e-05
0.000702008
5.66511e-05
0.000639295
6.27125e-05
0.000572563
6.67326e-05
0.000503804
6.87589e-05
0.000434709
6.90945e-05
0.000366738
6.79715e-05
0.000301292
6.54455e-05
6.16422e-05
-0.000284673
-9.82069e-05
-0.0002343
-0.000100901
-0.000185896
-9.66276e-05
-0.000136961
-9.75508e-05
-8.71447e-05
-9.92808e-05
-3.53479e-05
-0.000103303
1.97786e-05
-0.00011011
7.94915e-05
-0.000119367
0.000145027
-0.000131067
0.00021766
-0.000145283
0.000298766
-0.000162223
0.000389645
-0.000181761
0.00049119
-0.000203087
0.00060344
-0.000224493
0.000725093
-0.000243301
0.000852934
-0.000255681
0.000981478
-0.000257094
0.00110296
-0.000242966
0.00120792
-0.000209934
0.00128638
-0.00015692
0.00132908
-8.54078e-05
0.00132905
6.37876e-08
0.00128714
8.38256e-05
0.00119753
0.000179221
0.00106408
0.000266894
0.000895657
0.00033684
0.00070382
0.000383668
0.00050203
0.000403567
0.000302237
0.00039959
0.000114416
0.000375655
-5.4002e-05
0.000336843
-0.000199519
0.000291034
-0.000320842
0.000242644
-0.000418982
0.000196279
-0.000495982
0.000154
-0.000554238
0.000116511
-0.000596523
8.4571e-05
-0.000625263
5.74798e-05
-0.000642998
3.54717e-05
-0.000651537
1.70796e-05
-0.000652656
2.23958e-06
-0.000647793
-9.72712e-06
-0.000638254
-1.90777e-05
-0.000625313
-2.58814e-05
-0.000609572
-3.14817e-05
-0.000591568
-3.60098e-05
-0.000571728
-3.96789e-05
-0.000551057
-4.13427e-05
-0.000529704
-4.27057e-05
-0.000507872
-4.36662e-05
-0.000486956
-4.1834e-05
-0.000467842
-3.82263e-05
-0.000452409
-3.08655e-05
-0.00044212
-2.05784e-05
-0.000437209
-9.82141e-06
-0.000438407
2.39736e-06
-0.000444634
1.24535e-05
-0.000455255
2.12403e-05
-0.000469188
2.78674e-05
-0.00048419
3.00022e-05
-0.000498168
2.7956e-05
-0.000509261
2.21862e-05
-0.000514721
1.09196e-05
-0.000511816
-5.81111e-06
-0.000498176
-2.72788e-05
-0.000471169
-5.40142e-05
-0.000428734
-8.48712e-05
-0.000368508
-0.000120449
-0.000288484
-0.000160049
-0.000187383
-0.000202201
-6.41576e-05
-0.000246456
8.05826e-05
-0.000289475
0.000244315
-0.000327464
0.000422455
-0.000356272
0.000608082
-0.000371226
0.000792486
-0.000368801
0.00096534
-0.000345733
0.00111582
-0.000300973
0.00123452
-0.000237406
0.00131448
-0.000159908
0.00135134
-7.37222e-05
0.00134459
1.34941e-05
0.00129726
9.46557e-05
0.00120871
0.000177098
0.00108701
0.000243398
0.00094218
0.000289671
0.000784454
0.00031545
0.000622858
0.000323192
0.00046449
0.000316734
0.000314997
0.000298983
0.0001789
0.000272196
5.87059e-05
0.000240392
-4.42837e-05
0.000205979
-0.000129634
0.0001707
-0.000197578
0.000135888
-0.000248679
0.000102201
-0.000284388
7.14173e-05
-0.000307232
4.569e-05
-0.000319423
2.43825e-05
-0.000323983
9.12049e-06
-0.000323696
-5.74287e-07
-0.000320897
-5.59833e-06
-0.000317472
-6.85216e-06
-0.00031441
-6.12323e-06
-0.000311809
-5.20201e-06
-0.00030958
-4.45875e-06
-0.00030772
-3.71865e-06
-0.000306095
-3.25085e-06
-0.000304435
-3.31935e-06
-0.000302455
-3.96059e-06
-0.00029977
-5.36996e-06
-0.000296023
-7.49447e-06
-0.000290715
-1.06164e-05
-0.000283737
-1.39562e-05
-0.000275404
-1.66654e-05
-0.000266201
-1.84058e-05
-0.000256726
-1.89505e-05
-0.00024733
-1.87922e-05
-0.000237849
-1.89605e-05
-0.000227733
-2.0233e-05
-0.000216005
-2.34568e-05
-0.0002014
-2.92103e-05
-0.000182803
-3.71926e-05
-0.000159457
-4.66926e-05
-0.000131146
-5.66223e-05
-9.81299e-05
-6.6031e-05
-6.06473e-05
-7.49646e-05
-1.85717e-05
-8.41515e-05
2.85316e-05
-9.42061e-05
8.12295e-05
-0.000105393
0.000140162
-0.000117862
0.000205493
-0.00013066
0.000276281
-0.000141573
0.000351529
-0.000150493
0.000429718
-0.000156378
0.000508804
-0.000158176
0.000586488
-0.000155371
0.00065987
-0.00014677
0.000726356
-0.000132975
0.000783647
-0.000114582
0.000829597
-9.18993e-05
0.000862231
-6.52674e-05
0.000879966
-3.5467e-05
0.00088239
-4.84817e-06
0.000870774
2.323e-05
0.000845124
5.13001e-05
0.000807087
7.60738e-05
0.000758648
9.68781e-05
0.000701996
0.000113302
0.000639284
0.000125425
0.000572552
0.000133465
0.000503793
0.000137517
0.000434699
0.000138189
0.000366728
0.000135943
0.000301283
0.000130891
0.000123284
-0.000284821
-0.000146633
-0.000234696
-0.000151027
-0.000186423
-0.000144901
-0.000137503
-0.00014647
-8.7578e-05
-0.000149206
-3.56259e-05
-0.000155255
1.96641e-05
-0.0001654
7.94749e-05
-0.000179177
0.000145042
-0.000196634
0.000217675
-0.000217915
0.000298763
-0.000243311
0.00038963
-0.000272629
0.00049118
-0.000304636
0.000603443
-0.000336757
0.000725125
-0.000364982
0.000852987
-0.000383544
0.000981527
-0.000385634
0.00110298
-0.000364422
0.00120792
-0.00031487
0.00128637
-0.00023537
0.00132908
-0.000128121
0.00132906
8.98486e-08
0.00128714
0.000125739
0.00119752
0.00026884
0.00106405
0.000400373
0.000895592
0.000505294
0.000703758
0.000575501
0.000501989
0.000605336
0.000302209
0.00059937
0.000114395
0.000563469
-5.40283e-05
0.000505266
-0.000199548
0.000436553
-0.00032087
0.000363966
-0.000419009
0.000294418
-0.000496006
0.000230997
-0.000554258
0.000174763
-0.000596539
0.000126853
-0.000625275
8.62156e-05
-0.000643008
5.32045e-05
-0.000651544
2.56154e-05
-0.000652663
3.35871e-06
-0.0006478
-1.459e-05
-0.000638262
-2.86158e-05
-0.00062532
-3.88229e-05
-0.000609579
-4.72235e-05
-0.000591573
-5.40151e-05
-0.000571735
-5.9517e-05
-0.000551065
-6.20125e-05
-0.000529714
-6.40573e-05
-0.000507884
-6.54957e-05
-0.00048697
-6.27479e-05
-0.000467858
-5.73385e-05
-0.000452425
-4.62992e-05
-0.000442134
-3.08693e-05
-0.000437221
-1.47336e-05
-0.000438419
3.59495e-06
-0.000444645
1.86798e-05
-0.000455265
3.18605e-05
-0.0004692
4.18017e-05
-0.000484202
4.50047e-05
-0.000498182
4.19359e-05
-0.000509278
3.32818e-05
-0.00051474
1.63822e-05
-0.000511837
-8.71453e-06
-0.000498198
-4.0918e-05
-0.000471189
-8.10228e-05
-0.000428754
-0.000127306
-0.000368526
-0.000180677
-0.000288502
-0.000240074
-0.000187401
-0.000303302
-6.41797e-05
-0.000369677
8.05645e-05
-0.000434219
0.000244291
-0.00049119
0.000422426
-0.000534407
0.00060806
-0.00055686
0.000792473
-0.000553213
0.000965332
-0.000518593
0.00111582
-0.000451459
0.00123452
-0.000356112
0.00131448
-0.000239864
0.00135134
-0.000110586
0.0013446
2.02371e-05
0.00129728
0.000141979
0.00120873
0.000265643
0.00108703
0.000365098
0.000942189
0.000434514
0.000784431
0.000473208
0.000622815
0.000484808
0.000464456
0.000475092
0.000314974
0.000448464
0.000178883
0.000408288
5.86931e-05
0.000360582
-4.42985e-05
0.000308971
-0.00012965
0.000256052
-0.000197595
0.000203833
-0.000248694
0.0001533
-0.000284401
0.000107125
-0.000307245
6.85335e-05
-0.000319435
3.65723e-05
-0.000323994
1.36795e-05
-0.000323706
-8.62228e-07
-0.000320908
-8.39642e-06
-0.000317483
-1.02765e-05
-0.000314421
-9.18515e-06
-0.00031182
-7.80335e-06
-0.00030959
-6.6887e-06
-0.00030773
-5.57846e-06
-0.000306105
-4.87627e-06
-0.000304445
-4.97863e-06
-0.000302466
-5.94039e-06
-0.000299781
-8.05456e-06
-0.000296034
-1.12416e-05
-0.000290726
-1.59247e-05
-0.000283747
-2.09345e-05
-0.000275414
-2.49984e-05
-0.000266211
-2.76086e-05
-0.000256736
-2.84257e-05
-0.00024734
-2.81879e-05
-0.000237861
-2.84404e-05
-0.000227744
-3.03492e-05
-0.000216016
-3.51851e-05
-0.000201411
-4.38157e-05
-0.000182813
-5.57906e-05
-0.000159468
-7.00377e-05
-0.000131156
-8.49339e-05
-9.81421e-05
-9.90449e-05
-6.06579e-05
-0.000112449
-1.85822e-05
-0.000126227
2.85203e-05
-0.000141309
8.12183e-05
-0.000158091
0.000140153
-0.000176796
0.00020549
-0.000195998
0.000276286
-0.000212369
0.000351539
-0.000225746
0.000429723
-0.000234561
0.000508809
-0.000237263
0.000586484
-0.000233046
0.000659863
-0.000220149
0.000726348
-0.00019946
0.000783635
-0.000171868
0.000829586
-0.00013785
0.000862224
-9.79052e-05
0.000879961
-5.32049e-05
0.000882388
-7.2748e-06
0.000870774
3.48437e-05
0.000845125
7.69493e-05
0.000807088
0.000114111
0.000758648
0.000145318
0.000701996
0.000169954
0.000639283
0.000188138
0.000572549
0.000200199
0.000503789
0.000206277
0.000434693
0.000207284
0.00036672
0.000203916
0.000301273
0.000196338
0.000184928
-0.000284684
-0.000195065
-0.000234667
-0.000201043
-0.000186469
-0.000193098
-0.000137603
-0.000195336
-8.76803e-05
-0.000199129
-3.5695e-05
-0.00020724
1.96213e-05
-0.000220716
7.9451e-05
-0.000239007
0.000145027
-0.00026221
0.000217663
-0.000290551
0.000298743
-0.000324391
0.000389601
-0.000363487
0.000491143
-0.000406179
0.000603402
-0.000449016
0.00072508
-0.000486661
0.000852942
-0.000511407
0.000981484
-0.000514176
0.00110294
-0.000485877
0.00120786
-0.000419796
0.0012863
-0.000313809
0.00132901