/*--------------------------------*- C++ -*----------------------------------*\
| =========                 |                                                 |
| \\      /  F ield         | OpenFOAM: The Open Source CFD Toolbox           |
|  \\    /   O peration     | Version:  v1912                                 |
|   \\  /    A nd           | Website:  www.openfoam.com                      |
|    \\/     M anipulation  |                                                 |
\*---------------------------------------------------------------------------*/
FoamFile
{
    version     2.0;
    format      ascii;
    class       volScalarField;
    location    "80";
    object      p;
}
// * * * * * * * * * * * * * * * * * * * * * * * * * * * * * * * * * * * * * //

dimensions      [1 -1 -2 0 0 0 0];


internalField   nonuniform List<scalar> 
14268
(
96692.4
96757.8
96868.3
97027.9
97232.1
97479.2
97766.5
98088.7
98439.6
98810.3
99191
99569.9
99933.9
100269
100560
100791
100949
101018
100983
100830
100547
100121
99535.8
98805.7
97914.6
96855.5
95629.4
94240.3
92695.2
91004.7
89187.3
87266.8
85269.3
83221.6
81129.7
79071.2
77059.7
75119.5
73272.1
71535.4
69922.9
68444.5
67105.4
65905.7
64842.3
63909.3
63099.7
62406.1
61818.6
61329.9
60922.7
60592.7
60331.1
60131.7
59986.5
59890.8
59838.1
59825.3
59846.5
59900.2
59981.1
60087
60215.6
60363.3
60528.8
60708.4
60901.2
61103.5
61314
61529.5
61749
61966.8
62190
62405.1
62609.7
62796.4
62963.8
63103.5
63210
63274.6
63289.7
63247.7
63140.9
62961.3
62701.2
62354.6
61916.6
61380.9
60757.1
60040.7
59236.1
58349.9
57393.1
56379.3
55324.7
54249.4
53175.5
52125.9
51122.6
50187.4
49339.7
48596.3
47970.6
47473.1
47111
46882.8
46794.4
46816.7
46963.5
47167.3
47436.4
47716.8
47975.5
48177.4
48284.4
48245.7
48010.7
47567.9
46867.3
45873
44548.6
42875.3
40826.3
38622
36173.6
33610.7
31234.7
29269.7
27769.4
26526.1
25430.9
24507.4
23789.8
23287.9
91970.1
92070.6
92216.6
92411.7
92651.6
92934.7
93258.1
93616.7
94004.1
94411.4
94828.8
95244.5
95645.1
96016.7
96343.9
96611.5
96805.1
96909.8
96909.9
96791.5
96541.8
96149.8
95596.4
94898.1
94038
93009.2
91812.7
90452.8
88936.3
87274.1
85485
83593
81624.9
79609
77543.1
75518.9
73541.1
71635.4
69823.5
68123.2
66547.7
65107
63805.9
62644.3
61619.1
60724.1
59952.3
59295.8
58746.6
58294.9
57924.3
57630.9
57405.6
57242.3
57132.9
57072.9
57055.8
57078.4
57134.9
57223.7
57339.8
57480.7
57644.2
57826.9
58027.3
58241.8
58469.3
58706.4
58951.6
59201.8
59455.9
59708.3
59966.5
60216.1
60455.2
60676.5
60878.4
61052.7
61193.6
61292.6
61342.1
61334.4
61261.7
61116.2
60890.2
60577.4
60173.2
59671.2
59081.1
58398.3
57627.3
56774.7
55851.6
54871.7
53851.1
52809.9
51770.5
50755.5
49787.1
48886.8
48074.4
47366.2
46775.9
46313.8
45987.2
45794.4
45741.5
45799.1
45981.3
46220.1
46524.3
46839.5
47132.8
47369.1
47510.4
47505.9
47304.8
46895.7
46228.8
45268.2
43977.3
42337.6
40322.4
38152.5
35738.4
33210.1
30869.4
28940
27475.5
26267.3
25207
24318.3
23635.5
23168.1
87236.9
87372.1
87553.1
87783.7
88059.6
88379.2
88739.6
89135.7
89561
90006.8
90463
90917.8
91357.9
91768.9
92135.7
92442.5
92675
92818.1
92855.8
92774.1
92559.9
92200.7
91680.5
91013.8
90183.8
89183.6
88014.3
86680.3
85188.6
83550.6
81785.3
79917.5
77974.7
75990
73939.9
71950.8
70004.9
68132.4
66355.3
64691.3
63153.4
61751.3
60489.3
59367.2
58381.5
57526
56793.4
56176.4
55666.4
55252.1
54919.2
54663.1
54474.8
54348.2
54275.2
54251.4
54270.1
54328.4
54420.5
54544.7
54696.2
54872.3
55071
55288.7
55524.1
55773.6
56036
56307.9
56588
56872.9
57161.8
57448.9
57742.5
58026.9
58300.6
58556.7
58793.5
59002.6
59178.3
59312.1
59396.3
59423.1
59384.9
59273.8
59081.9
58803.2
58432.7
57964.3
57407.7
56758.3
56020.5
55201.2
54311.4
53364.8
52377.6
51370.2
50364.8
49384
48450
47584.6
46807.2
46134.3
45579.3
45152.7
44861.6
44704.4
44687.1
44780.4
44998
45272.3
45611.8
45962.2
46290.4
46561.4
46737.1
46766.9
46599.8
46224.6
45591.3
44664.3
43406.8
41800.1
39818.8
37683.1
35303.1
32809
30503.3
28609.9
27181.3
26008.3
24982.9
24129.1
23481.1
23048.4
82492.6
82662
82877.8
83144
83456
83812.6
84210.8
84645.5
85110.3
85596.4
86093.7
86590.1
87072.3
87525.8
87935
88284.3
88558.8
88743.3
88821.4
88778.8
88602.1
88279.1
87791.3
87156.1
86355.3
85381.8
84237
82925.5
81454.8
79836.4
78090.3
76242
74319.6
72355.2
70332.4
68368.6
66452
64611
62868
61240.2
59740.3
58377.5
57155.7
56074.4
55129.6
54314.9
53622.6
53044.5
52576.9
52201
51906.7
51688.8
51538.2
51448.9
51412.8
51425.6
51480.6
51575
51702.9
51862.8
52049.8
52261.3
52495.4
52748.3
53018.9
53303.6
53601.1
53908
54223.1
54543
54866.6
55188.5
55518.2
55837.4
56146
56437.1
56709
56953.3
57164.2
57333
57452.2
57514
57510.6
57434
57276.5
57031.8
56695.3
56260.3
55737
55120.7
54415.8
53629.2
52772.2
51858.4
50904.2
49930
48958.1
48011.2
47111.5
46280.7
45538.2
44900.5
44380.9
43989.7
43734.3
43612.8
43631.2
43760.3
44013.9
44323.8
44699.2
45084.9
45448.4
45754.3
45965
46029.2
45896.1
45554.8
44955.1
44061.6
42837.1
41263.1
39315.5
37213.9
34867.6
32407.4
30136.5
28279.2
26886.8
25749.3
24758.8
23939.9
23326.6
22928.6
77736.9
77940.1
78190.4
78492.1
78840.5
79234.6
79671.4
80145.9
80651.8
81180
81720.5
82261.1
82788.2
83287.1
83742
84136.8
84456.6
84685.4
84806.7
84805.6
84668.3
84382.1
83927.8
83324.3
82551.9
81603.5
80480.9
79188.9
77735.3
76132.3
74400.7
72566.9
70660
68711
66714.1
64771.8
62882
61071.2
59361.5
57769.8
56308.3
54985.7
53805.2
52765.9
51863.4
51090.9
50440.5
49903
49479.5
49142.1
48887.3
48708.4
48596.2
48544.7
48546.2
48595.9
48687.6
48818.4
48982.4
49178.3
49401
49648.1
49917.7
50206
50512
50831.9
51164.7
51506.8
51857
52211.9
52570.4
52927.1
53293.6
53647.5
53991.2
54317.6
54625
54904.7
55151.1
55355.4
55509.9
55607
55638.6
55596.8
55473.9
55263.4
54960.6
54559.1
54068.8
53485.3
52812.9
52058.7
51233.8
50352.4
49430.7
48489.3
47550.5
46637.2
45771.7
44975.2
44267.4
43664.8
43180.5
42824.9
42605.1
42519.5
42573.8
42739.1
43028.8
43374.7
43786.2
44207.7
44606.8
44947.9
45193.4
45292.3
45193.5
44886
44319.8
43459.6
42268.1
40726.5
38812.5
36744.7
34432.1
32005.3
29769.1
27947.9
26592.1
25490.1
24534.5
23750.5
23172.1
22808.8
72969.9
73206.4
73490.8
73828
74213
74645.1
75121.3
75636.8
76185.2
76757.4
77343.4
77930.7
78505.5
79052.9
79556.7
80000.3
80368.4
80644.7
80812
80854.8
80758.9
80510.9
80090.5
79518.5
78773.6
77848.8
76745.9
75470.1
74029.7
72437.7
70715.8
68891.6
66995.4
65057.9
63082.9
61159.7
59294.3
57512.3
55835.2
54279.7
52857
51575.5
50437.6
49441.7
48582.9
47854
47246.9
46752.1
46372
46075
45860.9
45721.8
45648.7
45635.8
45675.1
45762.3
45891.1
46058.6
46259
46490.9
46749.7
47032.6
47337.8
47661.8
48003.3
48358.6
48726.7
49104.2
49489.7
49879.8
50273.2
50664.5
51068.8
51457.4
51836.3
52198.2
52541.4
52856.9
53139.2
53379.2
53569.5
53702.1
53769.1
53762.4
53674.1
53498
53229
52860.7
52403.4
51852.3
51212.1
50489.7
49696.6
48847
47957.2
47048.1
46142.1
45262
44430.2
43668
42994.8
42427.2
41978.3
41658.2
41474.2
41424.6
41515
41716.6
42042.7
42425
42873
43330.6
43765.5
44142.1
44422.8
44556.6
44492
44218.3
43685.6
42858.7
41699.8
40190.4
38309.7
36276
33996.7
31602.8
29400.9
27616.1
26297.2
25230.8
24310.2
23561.1
23017.6
22689
68191.2
68460.6
68778.7
69151.3
69572.9
70043.5
70559.9
71117.6
71710.1
72328.2
72961.9
73598.5
74223.9
74822.9
75378.7
75874.5
76294.3
76621.2
76837.3
76926.7
76874.3
76665.9
76279.7
75739.1
75020.8
74117.7
73032
71769.1
70337.9
68752.1
67034.9
65215.5
63325.1
61395.3
59437.7
57531.2
55688.2
53933.5
52288.6
50769.4
49386.2
48146.9
47052.8
46101.7
45288
44604.2
44041.9
43592.4
43254.2
43000.1
42827.5
42729.1
42695.8
42721.9
42799.8
42924.9
43091.1
43295.5
43532.6
43800.9
44095.9
44414.8
44755.9
45115.5
45492.7
45883.6
46287.3
46700.2
47121.1
47546.6
47975
48400.5
48844
49267
49681.2
50079
50458.2
50809.9
51128.3
51404.5
51630.9
51799.3
51901.9
51930.6
51877.2
51735.5
51500.4
51165.2
50740.6
50221.8
49613.2
48922.3
48160.5
47342.1
46483.8
45606.5
44732.8
43885.6
43087.2
42359.1
41720.4
41187.8
40774.1
40489.7
40341.5
40328
40454.7
40692.9
41055.7
41474.7
41959.5
42453.6
42924.6
43336.8
43653
43822
43791.7
43551.8
43052.5
42258.8
41132.4
39654.6
37807.2
35807.4
33561.3
31199.9
29032
27283.7
26002
24971.3
24085.8
23371.6
22862.9
22569.1
63400.4
63702.3
64053.8
64461.7
64920
65429.5
65987
66587.9
67226
67891.9
68575.7
69264.2
69943.1
70596.8
71208.1
71759.4
72234.2
72615
72883
73021.5
73014.7
72847.5
72496
71986.2
71293.7
70410.6
69339.5
68086
66659.7
65075.5
63357.9
61537.9
59648.5
57722.3
55777.6
53885.5
52062.8
50334.3
48721.1
47238.3
45895.5
44699.5
43650.6
42745.8
41978.8
41341.4
40825.4
40422.5
40128
39917.4
39787.3
39730.3
39737.6
39803.3
39920.2
40083.6
40287.6
40529.3
40803.3
41108.2
41439.7
41794.7
42171.8
42567.4
42980.4
43407
43846.4
44294.9
44751.3
45212.3
45675.8
46135
46619.4
47076.1
47526
47959.8
48375.5
48763.6
49118.6
49431.3
49694
49898.7
50037.3
50101.5
50083.2
49976
49774.7
49472.6
49080.4
48593.5
48016.4
47356.4
46625.4
45837.7
45010.4
44164.4
43322.6
42507.9
41742.8
41048.4
40444.2
39946.4
39568.1
39319.2
39207
39229.8
39392.9
39667.9
40067.8
40523.7
41045.8
41576.6
42084.1
42532.3
42884.1
43088.4
43092.5
42886.5
42420.5
41659.9
40565.7
39119.4
37305
35338.8
33125.5
30796.3
28662.4
26950.8
25706.6
24711.8
23861.2
23182.1
22708.3
22449.2
58597.6
58931.2
59316
59758.5
60253.7
60802.6
61401.7
62047.1
62732.4
63448
64184.1
64927.2
65662.6
66374.4
67044.5
67654.8
68188.2
68626.1
68949.2
69139.6
69180.8
69056.6
68740.3
68260.4
67592.8
66728
65668.7
64420.9
62995.2
61407.5
59684.1
57858.2
55964.8
54038
52101.8
50221.3
48417.1
46713.7
45132
43686.1
42384.4
41232.9
40230.8
39373.9
38655.1
38065.6
37597.1
37242.9
36993.2
36827.1
36740.3
36725.5
36774
36880
37036.4
37238.4
37480.7
37759.9
38071.2
38412.8
38780.9
39172.3
39585.6
40017.2
40466.2
40928.8
41403.9
41888.2
42380.3
42877
43375.8
43867.6
44395.4
44884.8
45370.6
45840.8
46293.1
46718.1
47109.9
47459.5
47759
48000.2
48175
48275.1
48292.1
48219.5
48052.1
47782.8
47422.9
46967.6
46421.5
45792.1
45091.3
44333.8
43536.9
42721.8
41911.5
41129
40396.7
39736
39166.2
38703.1
38360.1
38147
38070.7
38129.9
38329.6
38641.7
39078.9
39572.1
40131.8
40699.6
41243.9
41728.3
42116.1
42355.9
42394.5
42222.3
41789.5
41062
39999.9
38584.4
36803
34870.4
32689.8
30392.4
28292.1
26617.3
25410.9
24452.1
23636.6
22992.4
22553.6
22329.3
53782.5
54146.9
54565
55040.8
55573.3
56161.9
56803.6
57494.5
58228.6
58995.8
59786.6
60587.1
61381.9
62155.1
62887.6
63560.5
64156
64654.6
65035.9
65281.2
65372.7
65292.9
65013.3
64561.4
63918.2
63069.9
62019.8
60774
59344.3
57747.8
56013
54175.7
52273
50341
48408.8
46537.5
44749.8
43070.6
41520.3
40111.8
38852.4
37747
36793.2
35985.9
35316.9
34776.8
34356.3
34054.3
33849.9
33729.2
33686.6
33714.7
33805.2
33952
34148.3
34389.5
34670.3
34987.3
35336.1
35714.8
36119.7
36547.6
36997.3
37465.1
37950.2
38448.8
38960
39480.2
40008.1
40540.6
41075.1
41603.8
42166.4
42692.8
43215
43721.9
44211.2
44673.3
45102.4
45489.2
45825.8
46103.9
46315.3
46451.4
46503.9
46466.1
46332.5
46096
45768.1
45344.2
44828.6
44229.3
43558.2
42830.4
42063.4
41278.7
40499.4
39748.7
39049.1
38421.9
37886.2
37458
37150.3
36972.8
36932.6
37028.3
37264.8
37614.3
38089.1
38619.9
39217.6
39822.8
40404.1
40925
41348.9
41624.4
41697.5
41559.2
41159.6
40465.1
39434.8
38049.8
36301.4
34402.2
32254
29987.9
27921
26283.3
25115
24192.3
23411.9
22802.7
22398.8
22209.4
48955
49349.4
49799.7
50308.7
50878.4
51507.1
52191.8
52929.3
53713.7
54534.3
55382.4
56242.9
57100.4
57938.5
58736.9
59476.2
60137.6
60700.5
61143.5
61446.6
61591.1
61559
61316.7
60890.7
60271.2
59437.6
58393.6
57145.8
55707.3
54096.4
52344.2
50489.4
48571.9
46629.9
44697.5
42832.6
41059.8
39403.9
37885.1
36514.9
35299
34241.2
33337.6
32581.7
31964.1
31475
31103.2
30857.2
30698.2
30623.6
30626.2
30698.1
30831.2
31019.3
31256.1
31536.9
31856.5
32211.7
32598.2
33014.1
33456.1
33920.7
34406.9
34911.1
35432.5
35967.3
36514.5
37070.8
37634.7
38203.2
38773.6
39340
39936
40500.3
41059.1
41603
42129.7
42629.2
43096
43520.3
43894.4
44209.8
44457.9
44630.4
44718.6
44715.6
44615.9
44412.1
44116
43723.1
43237.7
42668
42026.1
41327.5
40589.9
39835
39086.4
38367.2
37700
37106.1
36604.4
36210.9
35938.5
35796.6
35792.7
35925.1
36198.5
36585.6
37098.3
37667
38303.1
38946
39564.7
40122.2
40582.5
40894
41001.8
40897.3
40530.9
39869.3
38870.5
37515.5
35800.2
33934.1
31818.2
29583
27549.2
25948.7
24818.9
23932.4
23187
22612.9
22244
22089.5
44113.9
44537.9
45019.4
45561.5
46168
46837
47565.3
48350.4
49186.7
50062.7
50970.5
51893.8
52817.2
53723.8
54591.9
55401.4
56132.6
56763.6
57271.8
57636.1
57836.4
57853.1
57650.2
57247
56651.2
55830.4
54789.5
53535.6
52083.2
50452.2
48676.5
46798.1
44860.3
42903.2
40966.3
39105.2
37345.6
35712.5
34225.5
32894.5
31723.6
30715.3
29863.8
29161.1
28596.7
28160.2
27837.4
27651.9
27537.8
27510.6
27559.3
27675.7
27852
28082
28359.9
28680.5
29039.4
29432.9
29857.4
30310.7
30790
31291.6
31814.3
32355.1
32912.9
33484.1
34067.5
34660
35260
35864.8
36471.3
37075.5
37704.8
38307.1
38903
39484.2
40048.5
40585.9
41090.6
41552.9
41964.9
42317.7
42603.1
42812.1
42936.2
42968.2
42902.4
42731.1
42466.7
42104.4
41648.8
41108.2
40495.1
39825
39116.3
38390.8
37672.4
36984.4
36349.3
35788.5
35320.7
34961.9
34724.8
34618.9
34651.1
34820.2
35130.7
35555.7
36106.6
36713.5
37388.3
38069.2
38725.7
39320.2
39817.2
40164.7
40307.2
40236.5
39903.3
39274.5
38307.1
36981.6
35299.3
33466.3
31382.2
29177.5
27176.7
25613.5
24522.5
23672.4
22962.1
22423
22089.2
21969.5
39259.3
39711.9
40223.9
40798.7
41441.6
42150.9
42923.4
43757.1
44646.7
45579.9
46550
47539.1
48531.6
49510.4
50452
51335.8
52141
52844.1
53421.2
53849.8
54108.9
54176.5
54016.7
53630.9
53059.6
52250.2
51209.5
49945.5
48473.7
46816.2
45009.8
43101.1
41136.8
39159.1
37213.1
35353.5
33605.6
31994.8
30540.2
29249.7
28125.6
27168.6
26371.4
25724.1
25214.5
24832.8
24564.7
24433.4
24368.8
24390.2
24486
24647.6
24867.9
25140.3
25459.6
25820.5
26219
26651.1
27113.8
27604.8
28121.5
28660.2
29219.7
29797.1
30391.5
30999.2
31619
32247.9
32884.1
33525.2
34168.2
34810
35473.1
36113.4
36746.6
37365.4
37967.6
38543.2
39086.2
39586.9
40037.1
40427.9
40750.7
40996.6
41156.8
41223.8
41191.9
41053.1
40820
40488.1
40062
39550
38965.1
38323.1
37642.6
36946.1
36257.4
35600.1
34997
34469
34035.1
33711
33509.1
33439
33507.5
33713.5
34061.2
34524.4
35113.7
35759.3
36473.3
37192.6
37887
38518.7
39052.4
39436.3
39613.6
39576.9
39276.6
38680.8
37744.5
36448.1
34798.6
32998.6
30946.2
28771.5
26803.4
25277.7
24225.8
23412.3
22737.1
22233
21934.2
21849.5
34391.1
34870.7
35412.2
36019.2
36697.8
37447.8
38264.6
39148
40092.3
41084.7
42119.5
43177.3
44242.2
45297.3
46316.4
47278.7
48162.2
48941.4
49591.5
50088.1
50409.3
50537.3
50423
50044.1
49498.9
48698.4
47653.7
46373.9
44876.3
43185.5
41341.6
39395.7
37399
35395.6
33435.9
31575.7
29838.1
28249.4
26828
25579.4
24503.9
23600.7
22860.1
22270.4
21817.1
21492.3
21285.6
21201.6
21191.2
21262.4
21406.1
21613.8
21878.6
22193.9
22555.1
22956.7
23395.1
23866.1
24367.3
24896.2
25450.5
26026.5
26622.9
27237.3
27868.3
28512.8
29169
29834.4
30507
31184.6
31864.1
32543.5
33240.9
33919.1
34589.9
35246.7
35887.1
36501.2
37082.9
37622.2
38110.9
38540
38900.7
39183.8
39380.3
39482.6
39484.7
39378.1
39176.2
38874.3
38477.1
37993.3
37435.9
36821.4
36168.7
35500.6
34841.2
34214.5
33643
33147.8
32747.6
32458.1
32291.5
32257
32362.1
32605.1
32990.2
33491.7
34119.7
34804.3
35557.7
36315.7
37048.6
37717.9
38288.8
38709.3
38921.5
38918.6
38651.3
38088.1
37182.7
35914.9
34298.2
32531.1
30510.2
28365
26429.4
24941.4
23929
23152.1
22512.1
22043.1
21779.3
21729.4
30627.2
31117.5
31671.7
32294
32989.7
33762.1
34604.4
35517.8
36496.5
37527.3
38605.8
39710.5
40826.1
41935.4
43009.9
44029
44969.3
45803.9
46506.5
47051.6
47416.4
47579.4
47504.5
47105.2
46578.2
45773.9
44713
43406.8
41873
40138.4
38245.6
36250.2
34208.2
32164.6
30177.5
28301.9
26559.2
24976.3
23571.6
22347.7
21303.1
20435.8
19733.9
19183.9
18768.1
18481.2
18319.7
18266.1
18290.5
18393.9
18568.1
18804.4
19096.3
19437.3
19823.2
20248.5
20709.8
21202.7
21725.6
22275.5
22850.6
23447.1
24063.6
24698
25348.9
26013.4
26689.3
27374.6
28066.7
28764.3
29463.6
30163.8
30879.3
31578.8
32270.8
32949.3
33611.9
34248.6
34853.1
35415.4
35927
36378.7
36761.5
37066
37283
37404.3
37423.6
37332.4
37143.9
36854.1
36467.3
35992.6
35443.3
34836.5
34191.6
33532.1
32882.5
32267
31708.4
31227.6
30843.3
30570.9
30422.6
30407.6
30532.7
30797.4
31204.5
31730.5
32383.5
33093.9
33874.2
34658.2
35417.2
36111.2
36705.8
37149.3
37380.9
37394.4
37140.9
36590.4
35691.8
34423.1
32817
31060.3
29043.1
26893.9
24964.6
23506.1
22533.9
21784.4
21165.3
20718.2
20476
20452
27977.3
28462.6
29013.3
29633.8
30329.4
31105.6
31953.6
32876.7
33868.3
34915.4
36014.3
37142.5
38284.5
39423.5
40528.9
41580.5
42553.8
43420.4
44153.2
44725.3
45113
45293.5
45230.7
44824.5
44289
43469.9
42382.9
41041.8
39463.1
37675.5
35724.6
33670.4
31573.6
29479.9
27453.6
25547.8
23784.8
22191
20785.2
19567.6
18535.2
17684.5
17001.9
16472
16074
15805.6
15671
15629.2
15669.4
15786.7
15973.4
16220.5
16521.9
16871
17264.3
17695.9
18162.8
18660.2
19187.7
19741.5
20320.5
20920.8
21540.4
22178
22831.9
23499.5
24178.4
24866.7
25561.6
26262.4
26964.8
27668.9
28386.1
29090.4
29787.2
30471.4
31140.2
31783.9
32395.8
32965.7
33485
33944.3
34334.1
34644.9
34867
34991.9
35012.6
34920.2
34727.9
34432.3
34037.4
33552.5
32991.5
32371.9
31714.2
31042.5
30382.1
29757.4
29191.6
28705.8
28317.9
28044.1
27896.1
27883.2
28011.2
28280.9
28695.1
29231.7
29896.5
30620.9
31418.5
32218
32992.7
33700.4
34308.3
34764.6
35004.3
35020.4
34764.9
34212.3
33299.8
31998.3
30377.5
28612.9
26569.3
24367.8
22399.9
20961.2
20041.9
19314.7
18696.7
18252.2
18017.9
18001.5
25323
25802.8
26349.5
26967.7
27662.9
28442.7
29296.5
30229.4
31234.2
32298.1
33418.4
34570.9
35740.5
36910.7
38048.6
39134.2
40142
41042.2
41807.1
42408.3
42821.5
43037.9
42964.2
42572.5
42017.5
41181.7
40065.5
38685.3
37056.6
35211.9
33200
31084.4
28929.6
26783.1
24715
22776.2
20992.7
19387.8
17981.9
16771.7
15752.8
14920.4
14258.5
13750
13370.5
13121.7
13016.4
12986.8
13043.4
13175.3
13375.2
13633.7
13945
14302.6
14703.4
15141.7
15614.2
16116.2
16646.8
17204.6
17787.6
18391.7
19014.6
19655.6
20312.8
20983.8
21665.7
22357.3
23055.1
23759.2
24464.7
25172.9
25892.1
26601.2
27303.1
27993.4
28668.8
29320
29939.8
30518
31045.8
31513.3
31910.9
32228.8
32456.7
32585.7
32608.2
32514.6
32318
32016.2
31612.4
31116.3
30542.3
29908.6
29236.5
28551
27878.2
27243
26668.9
26177
25784.8
25508.9
25360.7
25348.9
25479.9
25755.1
26176.4
26724.5
27401.9
28142.9
28960
29777.6
30571.1
31295.5
31920
32393.8
32642.9
32661.6
32405.6
31852
30921.5
29579.9
27941.3
26171.7
24093.4
21821.2
19795.8
18381.4
17537.1
16836
16215.5
15771.8
15546.4
15537.8
22664.2
23137.9
23680
24295.6
24990.1
25773.2
26632.5
27575.5
28593.7
29675.1
30817.4
31995.2
33193.9
34396.9
35568.8
36690.4
37734.9
38670.7
39469.3
40100.4
40538.6
40762.4
40704.5
40323.9
39751.3
38899.3
37752.4
36332.6
34653.8
32751.2
30675.6
28493.8
26275.4
24072.2
21959.4
19985.1
18182
16566.5
15162.1
13960.4
12956
12143.2
11503.8
11017.7
10656.8
10437.7
10348.9
10339
10412.5
10559.7
10773.2
11043.6
11365.2
11731.7
12140.3
12585.5
13064
13571
14106
14667.5
15253.9
15859.7
16485.8
17130.3
17791.1
18465.7
19151
19846.1
20546.9
21254.6
21963.3
22675.8
23397.2
24111.4
24818.6
25515.2
26197.8
26857
27485.4
28072.6
28609.4
29086
29492.1
29817.8
30052.2
30185.7
30210.3
30115.8
29914.5
29606.2
29192.9
28684.8
28096.5
27447
26758.6
26057.3
25370.3
24723.1
24139.4
23640.4
23244.1
22965.4
22816.6
22805.7
22939.4
23220.3
23648.6
24209.6
24900.8
25661.3
26499.8
27337.8
28152.9
28896.5
29539.4
30033.5
30298.8
30320
30060.2
29504.7
28556
27171
25504.7
23735.9
21616.4
19253.7
17145.5
15762.8
15021.7
14349
13722.4
13278.6
13065.1
13062.9
20000.8
20467.9
21005
21617.3
22310.7
23097.1
23961.6
24914.9
25946.7
27046.1
28211
29415.1
30643.8
31881
33088.3
34247.7
35331.1
36304.8
37139.7
37803
38268.3
38540.7
38467.7
38095.6
37503.2
36635.7
35457.2
33997.1
32265.6
30298.3
28150.2
25894.6
23607.9
21347
19188.7
17176.8
15354.4
13726.9
12324
11131.1
10142.8
9351.69
8737.31
8275.3
7932.39
7755.81
7669.44
7685.6
7776.25
7939.2
8166.76
8449.4
8781.45
9156.94
9573.53
10026
10510.7
11022.6
11563.5
12129.3
12719.5
13329
13957.8
14605
15266.9
15945.1
16634
17333.1
18037.1
18748.6
19460.7
20177.4
20901.3
21620.6
22333.3
23036.8
23726.9
24394.7
25032.2
25629.2
26175.9
26662.2
27077.7
27411.9
27653.6
27792.5
27821.1
27724.7
27517.8
27202.3
26778.4
26256.7
25652.4
24985
24278.5
23560.1
22857.7
22197.3
21603.1
21096.3
20694.8
20413.3
20263.1
20253
20389.3
20675.6
21111.3
21686.6
22391.9
23175
24037.3
24898.4
25738.2
26504
27168.6
27679.5
27964.7
27988.2
27728
27180.4
26211.7
24767.5
23066.6
21308.6
19132.3
16662.4
14445.9
13111.7
12500.3
11859.7
11218.9
10773.7
10569.3
10576.9
17333.1
17792.9
18324.3
18932.9
19624.8
20414.1
21283.6
22247.4
23292.8
24410.9
25599.4
26830.7
28090.9
29363.8
30608.2
31807.3
32931.3
33944.5
34817.3
35514.2
36005.7
36325.9
36242.8
35883
35266.3
34386.8
33175.4
31670.6
29878.3
27839.5
25615.8
23285.9
20929.9
18609.2
16397.9
14348.1
12502.8
10861.9
9464.08
8284.33
7316.07
6549.97
5962.23
5526.37
5209
5060
4982.45
5023.86
5134.08
5314.58
5556.85
5851.8
6194.11
6578.68
7003.27
7463.31
7954.45
8471.52
9017.02
9587.31
10181.9
10796.8
11429.1
12079.4
12744.3
13424.9
14114.5
14817.7
15525.3
16241
16956.5
17678
18404.5
19129
19847.4
20558.2
21256.1
21933.2
22580.5
23187.8
23745.1
24242
24667.7
25011.2
25260.8
25405.3
25433.5
25339
25125.8
24803.1
24367.7
23831.5
23209.9
22523.5
21797.4
21060.3
20341
19666.2
19060.5
18544.9
18137.1
17852.3
17700.9
17692.1
17829.7
18120.9
18564.1
19155.3
19875.1
20684.3
21572.7
22459.4
23326.3
24117
24806.2
25365
25655.8
25678.2
25415.3
24874.4
23881
22373.3
20631.2
18895
16669.7
14048.9
11660.9
10337.9
9972.79
9357.96
8700.81
8257.25
8067.82
8091.63
14660.6
15112.5
15637.5
16241.7
16931.9
17723.3
18597.9
19572.4
20631.5
21769.1
22981.6
24241.4
25534.8
26844.7
28127.5
29368.1
30534.9
31590
32503.3
33235.8
33751
33956.5
34026.4
33687.6
33036.3
32147.6
30900.4
29346.4
27491.2
25380.5
23081.2
20672.6
18237.9
15848
13580
11497.9
9630.55
7987.18
6602.64
5436.85
4490.1
3760.37
3216.24
2831.8
2576.52
2455.7
2412.19
2473.73
2586.62
2760.65
2991.96
3275.68
3611.3
3997.31
4429.91
4896.72
5394.61
5916.92
6467.06
7042.14
7641.31
8260.62
8896.44
9550.24
10220.8
10905.1
11597.3
12302.7
13011.1
13731.7
14450.8
15177.3
15906.7
16636.4
17360.7
18079.2
18785.4
19472.3
20130.1
20748.4
21317.1
21825.4
22262.1
22615.9
22874.2
23025.5
23061.4
22963.4
22742.3
22412.1
21964.3
21412.4
20772.2
20065
19317.4
18559.5
17821.4
17130.4
16511.6
15986.2
15571.5
15282.2
15129.1
15119.5
15259.4
15556
16006.8
16615.9
17350.2
18189.5
19105.4
20020.6
20918.1
21736.4
22452
23032.9
23357.8
23381.3
23118
22585.3
21573.5
19990.7
18189.6
16503.1
14210.2
11437.3
8919.11
7783.7
7514.56
6884.69
6190.69
5729.89
5562.32
5607.05
11846.3
12288.5
12805.7
13404.1
14092.3
14883.3
15763
16748.6
17821.4
18979.7
20217.8
21508
22837.5
24187.6
25512.4
26798.2
28011.7
29112.2
30070
30842.1
31389.4
31655.9
31711
31396.3
30694.7
29795.2
28508.3
26899.8
24979.1
22790.6
20402.3
17895.9
15366.7
12904.3
10589.1
8472.95
6587.78
4933.99
3577.97
2501.42
1765.08
1296.02
986.268
791.175
678.674
625.646
613.03
640.122
698.177
788.092
912.598
1076.98
1291.35
1569.11
1920.28
2318.85
2756.84
3234.41
3759.74
4332.92
4934.96
5558.87
6198.31
6855.31
7529.53
8217.37
8915.93
9624.88
10332.7
11057.2
11779
12510.3
13242.4
13977.1
14707.3
15433.8
16148.8
16846.2
17515.4
18145.6
18726.8
19247.5
19696.4
20061.4
20329.4
20487.7
20521.4
20429.3
20197.9
19859.7
19397.3
18826.9
18164.6
17432.6
16659.3
15876.8
15116.3
14406.1
13771.6
13234.3
12811
12515.8
12359.5
12350.3
12490.2
12791
13250.6
13877.4
14629.1
15503.3
16451.5
17399.6
18331.5
19182.5
19928.7
20549.5
20907.6
20921.3
20659.2
20148.9
19101.7
17421.4
15573.6
13957.1
11555.5
8594.7
5642.98
4462.21
4736.81
4323.82
3568.14
3082.37
2925.1
2977.49
8890.73
9320.4
9828.2
10419.4
11103.7
11893.8
12777.5
13774.3
14860.4
16040.5
17304.8
18626.6
19995.7
21390.6
22762.8
24099
25363.7
26514.2
27520.7
28336
28919.3
29218.9
29287.2
29009.8
28239.1
27330.8
26007
24341.9
22347.8
20065.8
17565.6
14947.5
12325.4
9789.87
7420.93
5254.46
3356.89
1898.55
1037.99
507.42
273.563
170.835
111.558
78.6408
61.3289
53.2713
50.7701
52.2978
57.4832
67.1938
83.782
112.113
159.951
239.66
367.98
535.546
738.832
988.988
1310.84
1730.7
2230.48
2773.99
3360.66
3996.33
4673.86
5364.26
6063.1
6779.92
7490.69
8217.11
8941.09
9677.19
10411.5
11150.7
11887
12621.9
13346.3
14055.1
14736.8
15380.1
15975
16509.6
16972.1
17349.8
17628.7
17795.5
17840.5
17743
17496.1
17149.2
16669.3
16076.8
15388.3
14626.6
13822.8
13011.2
12224.3
11491.4
10838.8
10287.7
9854.21
9552
9392.81
9382.36
9519.8
9824.46
10290.6
10939.7
11707.2
12625.7
13609
14594.8
15568.2
16456.6
17237.5
17898.5
18309
18320.7
18053.2
17551.8
16481.7
14686.6
12774.1
11249.6
8807.76
5741.92
2966.11
2839.62
3306.34
2515.63
1545.38
1030.11
892.661
859.727
5931.28
6348.44
6845.18
7427.3
8106.46
8896.43
9783.46
10790.9
11889.9
13092.9
14384
15739.2
17148.6
18586.7
20006.9
21397.6
22717.7
23921.8
24980.8
25843.2
26467.7
26810.8
26885.6
26629.1
25834
24888.3
23533.5
21807.3
19727.1
17328.7
14711.9
11990.8
9270.73
6652.86
4205.16
2155.88
915.31
300.021
115.139
35.1872
23.7304
22.4607
21.7145
21.1928
20.8213
20.5058
20.152
19.7888
19.6294
19.6398
19.8278
20.33
21.4877
23.6893
28.3715
38.0559
56.2982
91.8462
162.021
294.965
500.005
752.174
1069.12
1481.57
2018
2611.37
3243.5
3931.45
4644.67
5374.29
6099.85
6841.93
7578.86
8322.67
9065.19
9809.17
10543.4
11264.1
11959.3
12616.5
13226.1
13775.6
14253
14644.4
14935.4
15111.3
15159.9
15068.6
14801
14446.9
13947.9
13331.3
12614.1
11820
10982.6
10139.4
9324.14
8567.49
7896.03
7330.93
6887.25
6576.78
6412.67
6387.63
6535.27
6845.95
7318.42
7989.21
8773.58
9740.21
10760.9
11789.6
12805.4
13737
14554.5
15260.3
15704.9
15743.4
15464.7
14960.3
13919.5
12014.1
10236.6
9369.32
7060.26
4050.44
1393.72
732.045
1679.89
1610.78
943.546
366.374
222.411
147.867
3033.89
3404.97
3862.26
4423.54
5098
5889.33
6779.45
7797.57
8909.34
10136.6
11455
12845.7
14298.7
15781.3
17249.6
18693.3
20070.5
21332.6
22449.4
23362.4
24031.1
24412.2
24502.2
24246.4
23477.6
22456.7
21074.8
19277.3
17087.6
14577.5
11863.6
9026.48
6179.79
3479.34
1451.97
384.993
81.9547
18.8954
21.6485
18.636
18.869
17.8568
17.1491
16.6568
16.279
15.9215
15.5775
15.1496
14.8146
14.4696
14.1372
13.8155
13.568
13.3415
13.2639
13.487
13.9059
14.6484
16.2983
20.7149
31.3027
54.1936
103.688
208
408.948
673.731
1004.14
1438.08
1994.79
2623.41
3284.23
4001.53
4741.05
5490.63
6239.64
6994.29
7739.8
8473.25
9183.09
9854.65
10479.7
11045.3
11538.5
11944.9
12249.3
12435.4
12489.2
12398.2
12119
11751.6
11232.2
10590
9842.44
9013.69
8141.4
7267.01
6425.36
5648.2
4960.94
4383.86
3932.49
3617.65
3452.1
3446.18
3575.17
3867.99
4339.22
5026.3
5830.25
6845.43
7909.4
8980.72
10041.2
11020.4
11875.2
12626.6
13113.3
13194.8
12887.4
12399.5
11436.1
9657.54
8215.01
7718.85
6001.57
3125.45
985.733
106.274
494.218
565.238
366.158
123.036
130.967
92.6155
830.372
1019.36
1293.15
1697.38
2256.48
2946.82
3766.52
4781.45
5908.38
7167.78
8514.21
9941.15
11440.2
12970.7
14493.7
15993.8
17427.3
18746.8
19923.8
20891.8
21609.1
22029.2
22135.6
21886.3
21144.5
20017.3
18629.5
16742.3
14449.4
11844.2
9010.03
6033.98
3110.48
1024.42
209.975
22.9701
9.7899
14.7731
16.9005
14.8053
14.73
13.9837
13.4798
13.0309
12.6598
12.3268
11.9845
11.6239
11.278
10.9517
10.6219
10.2993
9.94385
9.55017
9.28082
9.14277
8.94414
8.62717
8.25852
8.25937
8.62726
9.23128
10.331
13.1664
21.2509
41.6
88.4537
193.307
400.06
682.411
1030.69
1493.97
2082.81
2735.36
3429.65
4176.03
4933.69
5680.99
6407.31
7094.33
7735.77
8318.16
8828.19
9250.34
9569.03
9765.81
9822.54
9732.08
9454.6
9065.16
8523.87
7854.29
7074.47
6209.7
5302.64
4402.05
3547.1
2783.51
2154.56
1690.86
1365.89
1146.75
1036.82
1026.99
1103.68
1286.2
1617.26
2204.03
2932.36
3942.74
5054.16
6167.64
7274.13
8307.09
9197.39
9997.29
10541.9
10646.9
10322.9
9927.8
9096.65
7439.98
6127.43
5357.07
3860.59
1832.56
607.342
159.528
-57.4023
-33.2415
55.2354
37.2601
110.523
86.5507
60.6613
90.1546
147.16
261.554
466.609
770.487
1224.62
1979.4
2954.14
4168.94
5550.8
7020.65
8573.13
10150.7
11731.2
13293.1
14789.1
16169.8
17407.1
18430.5
19199.1
19659.4
19784.4
19542.5
18803
17643.3
16189.6
14224.4
11837.7
9120.16
6131.12
3076.91
851.406
103.593
26.1548
16.6334
7.53082
10.8026
12.2444
11.226
11.05
10.3841
9.88296
9.46631
9.12369
8.79196
8.45269
8.10117
7.76614
7.44275
7.12348
6.81295
6.47255
6.13026
5.85236
5.65597
5.38696
5.05343
4.71583
4.46959
4.36799
4.22506
3.87039
3.46328
3.43694
4.24352
5.39056
7.94726
16.1426
37.768
88.4047
208.413
438.102
740.09
1123.15
1639.24
2267.37
2937.93
3632.4
4331.1
4991.87
5594.76
6123.04
6562.52
6896.9
7105.91
7171.49
7076.17
6796.92
6380.78
5816.24
5122.14
4316.7
3433.46
2546.22
1774.63
1180.32
721.721
415.168
253.592
164.139
108.006
82.5165
81.955
97.5249
137.925
229.3
448.369
775.611
1377.51
2291.82
3348.56
4504.2
5588.51
6508.18
7362.96
7950.46
8072.13
7747.95
7371.03
6508.33
4860.15
3057.37
1795.69
864.719
407.523
41.0176
-49.9764
-68.4874
-65.5503
-17.1746
-12.1692
63.51
75.8513
4.0827
4.93717
6.88161
11.4904
21.7984
48.6
124.532
359.757
790.325
1520.9
2674.69
4073.76
5684.99
7322.55
8964.35
10587
12148.3
13597.4
14900.5
15982
16803.3
17303.6
17450.8
17224
16486.9
15301.5
13758.7
11731.7
9247.15
6371.55
3282.8
882.866
69.7788
10.036
19.1739
12.4975
5.0681
7.03425
8.07423
7.47245
7.28484
6.76973
6.31688
5.91497
5.58577
5.25896
4.93163
4.6047
4.27376
3.953
3.63758
3.32716
2.99708
2.67126
2.40078
2.18876
1.93516
1.62257
1.30518
1.06299
0.917752
0.687396
0.248775
-0.252639
-0.453875
-0.433759
-0.812699
-1.36883
-1.36695
-0.842367
0.23039
3.82516
13.4888
38.7768
102.359
255.083
519.197
850.769
1265.8
1787.39
2355.52
2908
3419.63
3870.84
4223.57
4446.68
4517.82
4413.34
4155.04
3717.5
3148.59
2486.66
1790.85
1168.94
633.017
294.901
137.623
45.1372
7.49664
3.63601
2.66391
2.83664
3.12523
3.45935
4.07034
5.20066
7.38593
14.8833
39.409
153.917
506.546
1047.26
1870.65
2866.75