/*--------------------------------*- C++ -*----------------------------------*\
| =========                 |                                                 |
| \\      /  F ield         | OpenFOAM: The Open Source CFD Toolbox           |
|  \\    /   O peration     | Version:  v1912                                 |
|   \\  /    A nd           | Website:  www.openfoam.com                      |
|    \\/     M anipulation  |                                                 |
\*---------------------------------------------------------------------------*/
FoamFile
{
    version     2.0;
    format      ascii;
    class       surfaceScalarField;
    location    "100";
    object      alphaPhi0.water;
}
// * * * * * * * * * * * * * * * * * * * * * * * * * * * * * * * * * * * * * //

dimensions      [0 3 -1 0 0 0 0];
oriented        oriented;


internalField   nonuniform List<scalar> 
28285
(
-0.00161565
-4.63696e-05
-0.00156468
-5.0965e-05
-0.00151136
-5.33266e-05
-0.0014584
-5.29531e-05
-0.00140661
-5.17992e-05
-0.00136183
-4.47804e-05
-0.00131737
-4.44559e-05
-3.67973e-05
-0.00128057
-0.0016139
-9.27088e-05
-0.00156301
-0.000101863
-0.00150987
-0.000106466
-0.00145724
-0.000105577
-0.00140604
-0.000103001
-0.00136202
-8.88025e-05
-0.00131836
-8.81112e-05
-7.31074e-05
-0.00128205
-0.00161415
-0.000138997
-0.00156334
-0.000152664
-0.00151032
-0.000159485
-0.00145786
-0.000158038
-0.00140675
-0.000154117
-0.00136272
-0.00013283
-0.00131909
-0.000131737
-0.000109495
-0.00128271
-0.00161434
-0.00018525
-0.00156362
-0.000203391
-0.00151068
-0.000212423
-0.00145831
-0.000210404
-0.00140723
-0.000205202
-0.00136312
-0.000176938
-0.00131927
-0.000175584
-0.000146221
-0.00128255
-0.0016148
-0.000231459
-0.00156413
-0.000254056
-0.00151126
-0.000265291
-0.00145891
-0.000262758
-0.00140773
-0.000256377
-0.00136343
-0.000221246
-0.00131936
-0.00021965
-0.000183137
-0.00128244
-0.00161587
-0.000277596
-0.00156528
-0.000304644
-0.00151247
-0.000318097
-0.00146009
-0.000315143
-0.00140874
-0.000307722
-0.00136407
-0.000265916
-0.00131948
-0.000264238
-0.000220461
-0.00128216
-0.00161847
-0.000323538
-0.00156809
-0.000355026
-0.00151538
-0.000370811
-0.00146278
-0.000367735
-0.00141082
-0.000359684
-0.00136526
-0.000311474
-0.00131993
-0.000309565
-0.000257726
-0.00128267
-0.0016243
-0.000369034
-0.00157445
-0.000404877
-0.00152198
-0.000423281
-0.00146892
-0.000420795
-0.0014156
-0.000413007
-0.00136816
-0.000358907
-0.00132124
-0.000356493
-0.000294647
-0.00128431
-0.00163458
-0.000413441
-0.00158593
-0.000453526
-0.00153431
-0.000474898
-0.00148097
-0.000474133
-0.00142618
-0.000467798
-0.00137633
-0.000408765
-0.00132664
-0.000406179
-0.000334371
-0.00128691
-0.00164349
-0.000456606
-0.00159614
-0.000500869
-0.00154589
-0.000525146
-0.00149336
-0.000526665
-0.00143863
-0.000522532
-0.00138751
-0.00045988
-0.001335
-0.000458691
-0.0003796
-0.00128977
-0.00164935
-0.000498907
-0.00160298
-0.000547244
-0.00155377
-0.000574355
-0.00150176
-0.000578678
-0.00144687
-0.000577413
-0.00139476
-0.000511998
-0.0013402
-0.000513247
-0.000428945
-0.00129086
-0.00165279
-0.000540748
-0.00160704
-0.000592995
-0.00155862
-0.000622767
-0.00150697
-0.000630332
-0.00145172
-0.000632668
-0.00139846
-0.000565251
-0.00134193
-0.000569779
-0.000480603
-0.00129027
-0.00165427
-0.00058242
-0.00160868
-0.000638586
-0.00156062
-0.000670825
-0.00150978
-0.000681176
-0.00145484
-0.000687602
-0.00140085
-0.000619247
-0.00134239
-0.000628232
-0.000534162
-0.00128883
-0.00165416
-0.00062417
-0.00160831
-0.000684441
-0.00156024
-0.000718894
-0.00151044
-0.00073097
-0.00145714
-0.000740903
-0.00140417
-0.000672219
-0.00134498
-0.000687417
-0.000590636
-0.00128851
-0.00990838
-0.00185838
-0.0087009
-0.00189192
-0.00753479
-0.00188501
-0.0064227
-0.00184306
-0.00536207
-0.00180153
-0.00436966
-0.00166463
-0.0034278
-0.00162928
-0.00145586
-0.00256257
-0.00980041
-0.00309317
-0.00859391
-0.00309842
-0.00743066
-0.00304826
-0.00632397
-0.00294976
-0.0052734
-0.0028521
-0.00429643
-0.00264159
-0.00337614
-0.00254958
-0.00229404
-0.00253796
-0.00973292
-0.00432736
-0.00852918
-0.00430215
-0.00737034
-0.0042071
-0.00626822
-0.00405187
-0.00522347
-0.00389686
-0.00425369
-0.00361137
-0.00334378
-0.00345949
-0.00311989
-0.00251792
-0.00968683
-0.00556079
-0.00848571
-0.00550327
-0.00733141
-0.0053614
-0.00623281
-0.00515048
-0.00519312
-0.00493654
-0.00422847
-0.00457603
-0.00332578
-0.00436217
-0.00393961
-0.00250606
-0.00966633
-0.00679376
-0.00846699
-0.00670261
-0.00731538
-0.006513
-0.0062187
-0.00624717
-0.00518166
-0.00597357
-0.00421903
-0.00553866
-0.00331947
-0.00526173
-0.0047586
-0.00250048
-0.00965917
-0.00802658
-0.00846032
-0.00790146
-0.00731
-0.00766333
-0.00621405
-0.00734311
-0.00517844
-0.00700918
-0.00421695
-0.00650016
-0.00331763
-0.00616105
-0.00557907
-0.00249717
-0.00965749
-0.009258
-0.00845934
-0.0090996
-0.00730717
-0.0088155
-0.00621379
-0.00843649
-0.00517765
-0.00804532
-0.00421815
-0.00745966
-0.00331523
-0.00706396
-0.00639869
-0.00249562
-0.0437491
-0.0105675
-0.042341
-0.0105076
-0.0408789
-0.0102777
-0.0393975
-0.00991786
-0.0379013
-0.00954148
-0.0365211
-0.00883992
-0.0351467
-0.00843834
-0.00754316
-0.0340022
-0.0439176
-0.0118784
-0.0425271
-0.0118981
-0.0410894
-0.0117153
-0.0396146
-0.0113927
-0.0381103
-0.0110458
-0.036669
-0.0102812
-0.0352288
-0.00987858
-0.00876939
-0.0340026
-0.0439655
-0.0131922
-0.0425927
-0.0132709
-0.0411778
-0.0131303
-0.0397215
-0.012849
-0.038222
-0.0125453
-0.0367493
-0.0117538
-0.0352931
-0.0113348
-0.0100552
-0.0340073
-0.0439639
-0.0145205
-0.0425958
-0.014639
-0.0411885
-0.0145375
-0.0397409
-0.0142966
-0.0382484
-0.0140378
-0.0367585
-0.0132437
-0.0352613
-0.012832
-0.0114202
-0.0338963
-0.0439171
-0.0158758
-0.0425429
-0.0160132
-0.0411404
-0.0159401
-0.0397011
-0.0157359
-0.0382075
-0.0155314
-0.0366793
-0.0147719
-0.0351538
-0.0143575
-0.012823
-0.0337511
-0.0438071
-0.0172595
-0.0424295
-0.0173907
-0.0410351
-0.0173345
-0.0396048
-0.0171662
-0.0381283
-0.0170079
-0.0365742
-0.016326
-0.035021
-0.0159106
-0.0143097
-0.0335342
-0.0435836
-0.0186475
-0.0422159
-0.0187584
-0.0408352
-0.0187152
-0.0394213
-0.0185801
-0.0379673
-0.0184619
-0.0364024
-0.0178909
-0.0348391
-0.0174739
-0.0158594
-0.0332894
-0.0428884
-0.0199809
-0.0415761
-0.0200707
-0.0402536
-0.0200377
-0.0389012
-0.0199326
-0.0375253
-0.0198378
-0.0360215
-0.0193947
-0.0344882
-0.0190072
-0.0174745
-0.032873
-0.040867
-0.0210953
-0.0397482
-0.0211894
-0.0386081
-0.0211778
-0.037425
-0.0211156
-0.0362232
-0.0210397
-0.034887
-0.0207309
-0.0334869
-0.0204073
-0.0190676
-0.0318938
-0.0367896
-0.0221653
-0.0357671
-0.0222119
-0.0347624
-0.0221825
-0.0337694
-0.0221087
-0.0327809
-0.0220281
-0.0316895
-0.0218222
-0.0305882
-0.0215087
-0.0204639
-0.0291919
-0.0274972
-0.0124425
-0.0278226
-0.0148531
-0.0279174
-0.0160133
-0.0278039
-0.0171406
-0.0274333
-0.0183376
-0.0267275
-0.0195404
-0.025828
-0.0205777
-0.0211186
-0.0244639
-0.00626354
-0.0004312
-0.00809852
-0.000668569
-0.00996415
-0.00105905
-0.0117619
-0.00169158
-0.0133869
-0.00267646
-0.0147094
-0.00412516
-0.0156567
-0.00612951
-0.00885922
-0.0161083
-0.000170253
-1.20615e-05
-0.000263315
-1.72966e-05
-0.000411108
-2.66542e-05
-0.000638094
-4.28395e-05
-0.00096452
-7.06135e-05
-0.00139629
-0.000118027
-0.00191667
-0.000194001
-0.000303592
-0.00265833
1.08529e-06
-3.96632e-07
5.94048e-07
-5.19963e-07
-9.88881e-07
-7.32615e-07
-4.8479e-06
-1.18448e-06
-1.2673e-05
-2.14343e-06
-2.67373e-05
-4.01485e-06
-5.27289e-05
-7.20136e-06
-1.12261e-05
-0.00010043
2.406e-07
-5.49325e-09
3.215e-07
-6.85597e-09
4.73066e-07
-9.85944e-09
7.37691e-07
-1.43574e-08
1.08883e-06
-2.22871e-08
1.4935e-06
-3.80694e-08
1.72301e-06
-6.58852e-08
-7.98899e-08
1.04615e-06
3.46917e-09
-1.51688e-10
5.00335e-09
-1.16066e-10
7.98061e-09
-1.25171e-10
1.36563e-08
-2.15956e-10
2.53719e-08
-6.49195e-10
4.93793e-08
-2.24959e-09
9.27167e-08
-1.05503e-08
-1.79703e-08
1.86867e-07
6.48848e-11
-8.68798e-12
6.00827e-11
-1.00935e-11
7.65396e-11
-2.15898e-11
2.66459e-10
-1.8749e-10
1.05722e-09
-7.72443e-10
4.15549e-09
-2.58499e-09
2.09724e-08
-1.17323e-08
-2.31013e-08
5.88159e-08
6.54648e-12
-5.37381e-12
6.83458e-12
-7.11258e-12
2.08309e-11
-2.50295e-11
2.36409e-10
-3.03212e-10
1.15008e-09
-1.33799e-09
4.46708e-09
-3.37883e-09
2.33577e-08
-1.24911e-08
-6.6305e-08
1.35399e-07
6.24247e-12
-6.55472e-12
7.56816e-12
-8.08159e-12
4.35102e-11
-2.80221e-11
6.64705e-10
-3.62516e-10
3.16011e-09
-2.12069e-09
8.13529e-09
-2.05094e-09
2.96609e-08
-3.60181e-09
-3.21418e-08
2.1459e-07
5.74837e-12
-4.56227e-12
6.36769e-12
-5.4397e-12
3.54418e-11
-1.28659e-11
4.14211e-10
-5.3e-11
7.7305e-10
-5.49029e-11
5.76446e-10
-4.68378e-11
1.64758e-09
-1.27444e-10
-1.13814e-09
1.863e-08
3.10806e-12
-3.1265e-12
2.35943e-12
-2.34779e-12
6.64053e-12
-4.47418e-12
1.25834e-11
-7.04022e-12
9.95517e-12
-8.25033e-12
9.33178e-12
-6.42491e-12
4.05382e-11
-1.28166e-11
-8.05434e-11
4.75975e-10
1.41268e-12
-1.53141e-12
9.68914e-13
-1.20722e-12
2.34003e-12
-3.38878e-12
2.59756e-12
-5.98107e-12
2.11395e-12
-6.50273e-12
1.79898e-12
-4.36287e-12
3.56237e-12
-4.85257e-12
-9.28707e-12
2.37589e-11
7.39456e-13
-5.41189e-13
5.29586e-13
-4.55901e-13
2.06118e-12
-2.06366e-12
2.79829e-12
-5.51765e-12
2.75312e-12
-5.25706e-12
1.42335e-12
-2.57499e-12
1.38481e-12
-2.54885e-12
-2.24826e-12
1.81443e-12
2.19185e-13
-1.0306e-13
1.67928e-13
-9.08421e-14
1.37994e-12
-3.71618e-13
2.27073e-12
-2.29171e-12
1.29337e-12
-1.38549e-12
6.28539e-13
-5.47019e-13
6.93567e-13
-1.19202e-12
-1.2084e-12
4.65894e-13
4.75245e-14
-2.02036e-14
3.54451e-14
-1.81218e-14
2.17115e-13
-5.51694e-14
6.54883e-13
-1.552e-13
2.09185e-13
-1.17029e-13
1.27268e-13
-1.51826e-13
3.49635e-13
-6.1946e-13
-7.00309e-13
3.38315e-13
1.03241e-14
-3.83404e-15
7.41218e-15
-3.409e-15
2.9951e-14
-8.27746e-15
4.56444e-14
-1.15915e-14
2.93902e-14
-1.18194e-14
4.61893e-14
-4.20187e-14
1.91846e-13
-2.44743e-13
-2.55885e-13
1.83887e-13
1.98195e-15
-6.83827e-16
1.41911e-15
-5.88126e-16
3.60843e-15
-9.15617e-16
3.5588e-15
-9.64711e-16
3.10397e-15
-1.56749e-15
1.84552e-14
-1.29809e-14
5.97087e-14
-5.76847e-14
-5.66765e-14
5.24251e-14
3.46211e-16
-1.10897e-16
2.42775e-16
-9.56247e-17
3.31649e-16
-8.6282e-17
2.96859e-16
-8.23718e-17
5.52234e-16
-2.80547e-16
5.87796e-15
-2.82365e-15
1.39586e-14
-1.43828e-14
-1.41144e-14
1.17705e-14
5.64582e-17
-1.63666e-17
3.4593e-17
-1.4788e-17
2.84742e-17
-8.72409e-18
2.56294e-17
-8.08121e-18
1.27338e-16
-6.01295e-17
1.2855e-15
-6.78906e-16
3.47798e-15
-3.58997e-15
-3.47999e-15
2.91058e-15
8.54516e-18
-2.31171e-18
5.09947e-18
-2.03957e-18
2.733e-18
-1.15791e-18
2.60976e-18
-1.07681e-18
3.0681e-17
-1.29569e-17
3.11367e-16
-1.52496e-16
8.47676e-16
-7.90054e-16
-7.55545e-16
7.04808e-16
1.21226e-18
-3.30411e-19
7.08604e-19
-2.70601e-19
3.68842e-19
-1.5359e-19
3.53675e-19
-1.3238e-19
6.93397e-18
-2.48055e-18
7.06739e-17
-2.95245e-17
1.82684e-16
-1.43611e-16
-1.35875e-16
1.49315e-16
1.6451e-19
-4.84523e-20
9.27383e-20
-3.66471e-20
4.53219e-20
-1.87011e-20
4.35387e-20
-1.27067e-20
1.36035e-18
-3.98102e-19
1.37633e-17
-4.66926e-18
3.28636e-17
-2.10257e-17
-1.97369e-17
2.61715e-17
2.37584e-20
-7.33892e-21
1.20173e-20
-5.01565e-21
4.33026e-21
-2.11557e-21
4.18236e-21
-9.00075e-22
2.22389e-19
-5.02335e-20
2.17225e-18
-5.72701e-19
4.76128e-18
-2.46206e-18
-2.3085e-18
3.75975e-18
3.55042e-21
-1.09436e-21
1.5379e-21
-6.9009e-22
3.32209e-22
-2.26396e-22
2.97793e-22
-4.00246e-23
2.88072e-20
-4.97421e-21
2.68103e-19
-5.45092e-20
5.52623e-19
-2.28027e-19
-2.15072e-19
4.41152e-19
5.29741e-22
-1.48798e-22
1.95389e-22
-9.15931e-23
1.36096e-23
-2.38156e-23
1.31689e-23
-7.88423e-25
2.86084e-21
-3.41702e-22
2.54701e-20
-3.70576e-21
5.10465e-20
-1.60449e-20
-1.5373e-20
4.16396e-20
7.42366e-23
-1.72831e-23
2.48384e-23
-1.08242e-23
2.73229e-25
-2.43736e-24
2.66417e-25
-2.30579e-26
2.00266e-22
-1.60458e-23
1.73771e-21
-1.72418e-22
3.58164e-21
-7.96823e-22
-7.86238e-22
3.06131e-21
9.04565e-24
-1.61829e-24
2.92744e-24
-1.01491e-24
7.90979e-27
-2.17799e-25
7.72159e-27
-1.84558e-28
9.35423e-24
-3.81141e-25
8.0727e-23
-4.24967e-24
1.78015e-22
-2.29151e-23
-2.4675e-23
1.60329e-22
8.76758e-25
-1.10301e-25
2.71594e-25
-7.00518e-26
6.57301e-29
-1.51758e-26
7.06555e-29
-3.15803e-29
2.23506e-25
-3.33521e-30
1.99761e-24
-1.17841e-26
5.17134e-24
-1.32424e-25
-3.34287e-25
4.99791e-24
6.17817e-26
-4.93254e-27
1.89182e-26
-3.1807e-27
1.648e-29
-7.03684e-28
8.97872e-30
-2.15727e-29
8.16926e-30
-3.26965e-30
6.09925e-27
-3.33943e-31
4.68079e-26
-2.50635e-29
-4.24642e-28
7.77283e-26
2.83513e-27
-1.14409e-28
8.67488e-28
-7.87598e-29
1.15888e-29
-2.10265e-29
1.99763e-30
-5.55095e-30
4.27246e-31
-2.44309e-30
1.66846e-31
-3.27094e-31
1.81832e-29
-1.70752e-32
-2.72378e-29
4.53747e-28
7.04422e-29
-7.22438e-31
2.30623e-29
-8.09e-31
2.14651e-30
-9.84671e-31
1.03638e-30
-9.41621e-31
5.42757e-31
-4.4923e-31
4.44894e-33
-4.22929e-32
4.3015e-33
-4.20183e-33
-3.83462e-31
1.1332e-29
5.25819e-31
-6.186e-32
4.39841e-31
-1.07375e-31
4.42243e-31
-1.77993e-31
2.85145e-31
-1.66118e-31
6.07527e-32
-6.80712e-32
9.90822e-34
-2.92047e-33
9.52018e-34
-1.05071e-34
-1.83237e-32
1.7687e-31
5.65706e-32
-4.69894e-33
6.85824e-32
-1.42627e-32
7.95193e-32
-2.80196e-32
4.83329e-32
-2.58826e-32
6.90274e-33
-1.04513e-32
2.59271e-35
-4.38321e-34
2.50362e-35
-1.36454e-35
-6.30032e-33
5.44922e-33
5.41379e-33
-3.40088e-34
1.03417e-32
-1.83887e-33
1.25283e-32
-3.90138e-33
7.42993e-33
-3.57555e-33
1.02239e-33
-1.45725e-33
3.26805e-36
-7.05497e-35
3.14524e-36
-8.84352e-37
-5.03705e-36
1.4333e-33
4.96835e-34
-2.92922e-35
1.42394e-33
-2.05674e-34
1.74116e-33
-4.43347e-34
1.01469e-33
-4.08392e-34
1.45105e-34
-1.75247e-34
2.17289e-37
-1.23852e-35
2.10493e-37
-9.86286e-38
-3.5947e-39
1.00709e-36
4.49654e-35
-2.20586e-36
1.62728e-34
-1.78344e-35
1.98261e-34
-3.89307e-35
1.16423e-34
-3.69022e-35
1.95883e-35
-1.75535e-35
2.56413e-38
-2.17604e-36
8.93987e-40
-2.14501e-38
-1.26012e-39
3.73808e-41
3.47871e-36
-1.18633e-37
1.42846e-35
-1.01491e-36
1.74081e-35
-2.44998e-36
1.07215e-35
-2.53363e-36
2.38198e-36
-1.45707e-36
5.59827e-39
-3.26585e-37
3.10697e-40
-4.06198e-39
-2.22244e-40
1.04349e-41
1.88773e-37
-3.36138e-39
8.45111e-37
-2.98458e-38
1.09978e-36
-9.66245e-38
7.9325e-37
-1.235e-37
2.54359e-37
-9.80044e-38
1.17229e-39
-3.55544e-38
5.10496e-41
-1.49515e-39
-4.38255e-41
3.78974e-42
5.32397e-39
1.88824e-42
2.74242e-38
-2.0026e-40
4.61562e-38
-1.59875e-39
4.49254e-38
-4.82151e-39
2.1934e-38
-4.61224e-39
2.07178e-39
-2.27782e-39
1.02191e-41
-3.62268e-40
-9.74185e-42
9.59269e-43
-3.05759e-42
2.60845e-42
2.3435e-40
3.64776e-43
1.12616e-39
-1.85618e-41
1.73097e-39
-1.1548e-40
1.15395e-39
-1.37243e-40
2.66341e-40
-1.04623e-40
2.34054e-42
-3.75355e-41
-3.10055e-42
3.07665e-43
-4.25289e-42
2.03865e-42
-4.13732e-43
1.1471e-42
1.64319e-41
4.59354e-43
4.27803e-41
-1.04203e-42
4.16364e-41
-3.25004e-42
1.86033e-41
-3.3775e-42
2.36892e-42
-2.01658e-42
-5.88572e-43
1.29246e-43
-3.35629e-42
1.6104e-42
-1.30183e-42
9.55063e-43
-4.0334e-43
5.38624e-43
5.97795e-43
2.95831e-43
9.29935e-43
1.27955e-43
7.48045e-43
3.64266e-44
2.77529e-43
1.29259e-45
-6.52986e-44
6.05412e-44
-2.6876e-42
1.28367e-42
-1.08417e-42
7.94843e-43
-4.73594e-43
4.60024e-43
-2.05004e-43
2.81058e-43
-7.5909e-44
1.61309e-43
-1.78296e-44
9.01419e-44
-5.68367e-46
3.62065e-44
-8.09886e-45
2.08419e-44
-2.18195e-42
1.03044e-42
-9.04277e-43
6.62174e-43
-4.05581e-43
3.91021e-43
-1.93818e-43
2.4393e-43
-9.52024e-44
1.43607e-43
-4.3861e-44
8.46979e-44
-1.57897e-44
3.75982e-44
2.56965e-45
9.90396e-45
-1.7855e-42
8.31906e-43
-7.56081e-43
5.52222e-43
-3.45693e-43
3.32235e-43
-1.67484e-43
2.10867e-43
-8.42642e-44
1.25588e-43
-4.09811e-44
7.49759e-44
-1.62693e-44
3.45993e-44
5.70934e-45
-9.67694e-46
-1.46737e-42
6.70417e-43
-6.33158e-43
4.59423e-43
-2.94401e-43
2.81763e-43
-1.44217e-43
1.81609e-43
-7.32374e-44
1.09384e-43
-3.60436e-44
6.57771e-44
-1.48361e-44
3.12309e-44
7.91814e-45
-2.13602e-45
-5.67786e-42
1.75081e-43
-2.49627e-42
1.45705e-43
-1.18329e-42
1.04443e-43
-5.85883e-43
7.18634e-44
-3.00346e-43
4.68786e-44
-1.49095e-43
2.95847e-44
-6.29504e-44
1.75864e-44
9.52337e-45
-1.39796e-44
-1.59158e-42
4.03799e-44
-8.09983e-43
3.85947e-44
-4.27067e-43
3.06614e-44
-2.27885e-43
2.18593e-44
-1.22345e-43
1.49035e-44
-6.48377e-44
9.50295e-45
-3.34008e-44
5.8354e-45
3.37509e-45
-1.59681e-44
-3.77636e-43
8.12102e-45
-2.10179e-43
8.62917e-45
-1.17257e-43
7.12677e-45
-6.52528e-44
5.30047e-45
-3.57745e-44
3.65064e-45
-1.93234e-44
2.36511e-45
-1.01718e-44
1.45946e-45
8.55756e-46
-5.18809e-45
-7.57561e-44
1.40444e-45
-4.3912e-44
1.57246e-45
-2.52781e-44
1.35501e-45
-1.43183e-44
1.02514e-45
-7.94443e-45
7.14038e-46
-4.31516e-45
4.65791e-46
-2.28553e-45
2.8831e-46
1.69501e-46
-1.17557e-45
-1.22493e-44
2.05643e-46
-7.27514e-45
2.41735e-46
-4.25518e-45
2.13178e-46
-2.43573e-45
1.63471e-46
-1.35979e-45
1.1455e-46
-7.40412e-46
7.49196e-47
-3.92477e-46
4.63371e-47
2.71895e-47
-2.01901e-46
-1.59818e-45
2.63919e-47
-9.63643e-46
3.20577e-47
-5.69647e-46
2.86532e-47
-3.28053e-46
2.21259e-47
-1.83588e-46
1.55404e-47
-9.98678e-47
1.01546e-47
-5.27837e-47
6.2582e-48
3.65408e-48
-2.70435e-47
-1.69959e-46
3.01389e-48
-1.03429e-46
3.7312e-48
-6.15291e-47
3.36056e-48
-3.55302e-47
2.60164e-48
-1.98788e-47
1.82565e-48
-1.07784e-47
1.18881e-48
-5.66633e-48
7.28583e-49
4.22436e-49
-2.8826e-48
-1.44626e-47
3.08393e-49
-8.85357e-48
3.85088e-49
-5.28542e-48
3.4791e-49
-3.0529e-48
2.69124e-49
-1.70481e-48
1.88319e-49
-9.20171e-49
1.22007e-49
-4.80741e-49
7.42931e-50
4.27413e-50
-2.42653e-49
-9.19905e-49
2.56804e-50
-5.65215e-49
3.20984e-50
-3.37976e-49
2.89841e-50
-1.94918e-49
2.23443e-50
-1.08526e-49
1.55695e-50
-5.8285e-50
1.00269e-50
-3.02686e-50
6.06554e-51
3.46269e-51
-1.51681e-50
-3.30255e-50
-2.03338e-50
-1.21642e-50
-6.99624e-51
-3.88049e-51
-2.07148e-51
-1.06825e-51
-5.30689e-52
-0.00120402
-7.65503e-05
-0.00112596
-7.80583e-05
-0.00106264
-6.33213e-05
-0.00100556
-5.70861e-05
-0.000952648
-5.2908e-05
-0.000899801
-5.28472e-05
-0.000843991
-5.58094e-05
-0.000784323
-5.96687e-05
-0.000724549
-5.9774e-05
-0.000660349
-6.42e-05
-0.000597455
-6.2894e-05
-0.000530949
-6.65059e-05
-0.000459765
-7.11837e-05
-0.000387691
-7.2074e-05
-0.000316467
-7.12243e-05
-0.000246022
-7.0445e-05
-0.000176924
-6.90974e-05
-0.000109345
-6.75793e-05
-4.46139e-05
-6.4731e-05
1.98909e-05
-6.45049e-05
7.82093e-05
-5.83184e-05
0.000144313
-6.61036e-05
0.000211406
-6.70935e-05
0.000281702
-7.02957e-05
0.000358439
-7.67373e-05
0.000441001
-8.25614e-05
0.000521326
-8.03256e-05
0.000597279
-7.5953e-05
0.0006639
-6.66205e-05
0.000716134
-5.22338e-05
0.000751541
-3.54069e-05
0.00076628
-1.47391e-05
0.000757531
8.74888e-06
0.000727399
3.0132e-05
0.000680261
4.71379e-05
0.00061743
6.28309e-05
0.000538104
7.93263e-05
0.000443742
9.43619e-05
0.00034055
0.000103191
0.000247723
9.28273e-05
0.000170362
7.73614e-05
0.00010455
6.58113e-05
4.81797e-05
5.63705e-05
-4.65052e-06
5.28302e-05
-6.14711e-05
5.68205e-05
-0.000124691
6.32194e-05
-0.000183784
5.90933e-05
-0.000231687
4.79036e-05
-0.000276477
4.47895e-05
-0.000321227
4.47504e-05
-0.000363649
4.24218e-05
-0.000397714
3.40645e-05
-0.000418636
2.09227e-05
-0.000423604
4.96754e-06
-0.000411523
-1.20807e-05
-0.000381302
-3.02207e-05
-0.000329402
-5.19e-05
-0.000253632
-7.57703e-05
-0.000155916
-9.7716e-05
-4.67344e-05
-0.000109182
5.86434e-05
-0.000105378
0.000149893
-9.12497e-05
0.000219744
-6.98505e-05
0.000260741
-4.0997e-05
0.000267057
-6.31685e-06
0.000235988
3.10698e-05
0.00016544
7.05476e-05
5.78352e-05
0.000107605
-7.90878e-05
0.000136923
-0.000234473
0.000155386
-0.000393112
0.000158639
-0.000543094
0.000149982
-0.000676745
0.000133651
-0.000790416
0.000113671
-0.000883531
9.31153e-05
-0.000957205
7.36745e-05
-0.00101401
5.68027e-05
-0.00105758
4.35757e-05
-0.00109154
3.39588e-05
-0.00111847
2.69294e-05
-0.00113993
2.14621e-05
-0.00115722
1.72897e-05
-0.0011704
1.31715e-05
-0.00117953
9.13549e-06
-0.00118402
4.49249e-06
-0.00118281
-1.21481e-06
-0.00117597
-6.83876e-06
-0.00116315
-1.28152e-05
-0.00114396
-1.91922e-05
-0.00111812
-2.58439e-05
-0.00108633
-3.17926e-05
-0.00105114
-3.51894e-05
-0.00101543
-3.5708e-05
-0.000981249
-3.41789e-05
-0.000949483
-3.17662e-05
-0.000919821
-2.96621e-05
-0.000891945
-2.78757e-05
-0.000866411
-2.55349e-05
-0.000842763
-2.3648e-05
-0.000822845
-1.99173e-05
-0.000807886
-1.49594e-05
-0.000797474
-1.04122e-05
-0.000790784
-6.68915e-06
-0.000786984
-3.80004e-06
-0.000784766
-2.21884e-06
-0.000783804
-9.6145e-07
-0.000784542
7.37828e-07
-0.000785443
9.01212e-07
-0.000784711
-7.31716e-07
-0.00077806
-6.65188e-06
-0.000763515
-1.4545e-05
-0.000738894
-2.46202e-05
-0.000701077
-3.78172e-05
-0.000648695
-5.23823e-05
-0.000586702
-6.19934e-05
-0.000522496
-6.4206e-05
-0.000461296
-6.12e-05
-0.000407742
-5.35532e-05
-0.000364447
-4.32951e-05
-0.000335587
-2.886e-05
-0.000326545
-9.04187e-06
-0.000339163
1.26178e-05
-0.000369859
3.06958e-05
-0.00040262
3.27606e-05
-0.000416961
1.43414e-05
-0.000404009
-1.29524e-05
-0.000369085
-3.49233e-05
-0.000325663
-4.34229e-05
-0.000285214
-4.04481e-05
-0.000252705
-3.25098e-05
-0.000228589
-2.41157e-05
-0.000212105
-1.64844e-05
-0.000203538
-8.56618e-06
-0.000203744
2.05636e-07
-0.000212537
8.79328e-06
-0.000228664
1.61267e-05
-0.000249539
2.08753e-05
-0.000272171
2.26319e-05
-0.000293343
2.11714e-05
-0.000309887
1.65447e-05
-0.000319362
9.47447e-06
-0.00031996
5.98535e-07
-0.000311836
-8.12381e-06
-0.000296624
-1.52124e-05
-0.000277503
-1.91213e-05
-0.000258232
-1.92707e-05
-0.000241637
-1.65956e-05
-0.000229176
-1.246e-05
-0.000221333
-7.84349e-06
-0.000218245
-3.08779e-06
-0.000220447
2.20155e-06
-0.000229353
8.90576e-06
-0.000246373
1.70204e-05
-0.00027206
2.56869e-05
-0.000305579
3.3519e-05
3.88056e-05
-0.0012058
-0.000152806
-0.00112798
-0.000155878
-0.00106443
-0.000126869
-0.0010069
-0.000114614
-0.000953492
-0.000106318
-0.000900218
-0.000106121
-0.000844135
-0.000111892
-0.000784363
-0.000119441
-0.000724559
-0.000119577
-0.000660377
-0.000128383
-0.000597494
-0.000125776
-0.00053099
-0.00013301
-0.000459802
-0.000142372
-0.000387722
-0.000144154
-0.000316492
-0.000142454
-0.000246044
-0.000140893
-0.000176946
-0.000138196
-0.000109368
-0.000135158
-4.46372e-05
-0.000129461
1.98671e-05
-0.000129009
7.81867e-05
-0.000116638
0.000144289
-0.000132206
0.000211384
-0.000134188
0.00028168
-0.000140592
0.000358418
-0.000153475
0.000440981
-0.000165124
0.000521308
-0.000160653
0.000597261
-0.000151906
0.000663881
-0.00013324
0.000716114
-0.000104468
0.000751521
-7.08138e-05
0.000766261
-2.94785e-05
0.00075751
1.74994e-05
0.000727377
6.02651e-05
0.00068024
9.4275e-05
0.000617413
0.000125658
0.000538081
0.000158659
0.000443719
0.000188724
0.000340532
0.000206379
0.000247704
0.000185655
0.000170342
0.000154724
0.00010453
0.000131623
4.81601e-05
0.000112741
-4.66996e-06
0.00010566
-6.14904e-05
0.000113641
-0.000124711
0.00012644
-0.000183805
0.000118188
-0.000231708
9.58063e-05
-0.000276497
8.95785e-05
-0.000321247
8.95007e-05
-0.000363669
8.48435e-05
-0.000397733
6.81284e-05
-0.000418655
4.18451e-05
-0.000423622
9.93456e-06
-0.000411541
-2.41621e-05
-0.00038132
-6.04419e-05
-0.00032942
-0.0001038
-0.00025365
-0.00015154
-0.000155933
-0.000195432
-4.67505e-05
-0.000218365
5.8629e-05
-0.000210757
0.000149881
-0.000182502
0.000219733
-0.000139703
0.000260729
-8.19923e-05
0.000267045
-1.26336e-05
0.000235975
6.21398e-05
0.000165427
0.000141096
5.78218e-05
0.00021521
-7.91037e-05
0.000273848
-0.000234494
0.000310776
-0.000393132
0.000317277
-0.00054311
0.00029996
-0.000676761
0.000267302
-0.000790433
0.000227343
-0.000883549
0.000186231
-0.000957222
0.000147348
-0.00101402
0.000113605
-0.0010576
8.7151e-05
-0.00109156
6.79176e-05
-0.00111849
5.3859e-05
-0.00113995
4.29252e-05
-0.00115724
3.45786e-05
-0.00117041
2.63428e-05
-0.00117954
1.82684e-05
-0.00118404
8.98498e-06
-0.00118282
-2.42994e-06
-0.00117598
-1.36781e-05
-0.00116317
-2.56313e-05
-0.00114397
-3.83853e-05
-0.00111813
-5.16888e-05
-0.00108633
-6.35862e-05
-0.00105115
-7.03791e-05
-0.00101544
-7.1415e-05
-0.000981263
-6.83544e-05
-0.0009495
-6.35294e-05
-0.00091984
-5.93213e-05
-0.000891967
-5.57494e-05
-0.000866431
-5.10706e-05
-0.000842782
-4.72968e-05
-0.000822864
-3.98358e-05
-0.000807902
-2.99208e-05
-0.000797489
-2.08259e-05
-0.0007908
-1.3378e-05
-0.000787
-7.59987e-06
-0.000784781
-4.4376e-06
-0.00078382
-1.92222e-06
-0.000784558
1.47559e-06
-0.000785459
1.80246e-06
-0.000784726
-1.46486e-06
-0.000778073
-1.33051e-05
-0.000763528
-2.90901e-05
-0.000738908
-4.92404e-05
-0.00070109
-7.56347e-05
-0.000648707
-0.000104765
-0.000586713
-0.000123988
-0.000522506
-0.000128412
-0.000461307
-0.0001224
-0.000407753
-0.000107106
-0.000364459
-8.65893e-05
-0.000335599
-5.77199e-05
-0.000326557
-1.80846e-05
-0.000339175
2.52361e-05
-0.000369872
6.13932e-05
-0.000402633
6.55211e-05
-0.000416974
2.86831e-05
-0.000404022
-2.59053e-05
-0.000369097
-6.98481e-05
-0.000325674
-8.68459e-05
-0.000285227
-8.08953e-05
-0.000252716
-6.502e-05
-0.0002286
-4.82318e-05
-0.000212116
-3.29685e-05
-0.00020355
-1.71324e-05
-0.000203756
4.11367e-07
-0.000212549
1.75869e-05
-0.000228676
3.22538e-05
-0.000249552
4.17507e-05
-0.000272184
4.52636e-05
-0.000293355
4.23424e-05
-0.000309899
3.30889e-05
-0.000319373
1.89488e-05
-0.000319971
1.19682e-06
-0.000311847
-1.6248e-05
-0.000296634
-3.04252e-05
-0.000277513
-3.82431e-05
-0.000258241
-3.85419e-05
-0.000241645
-3.31916e-05
-0.000229185
-2.49204e-05
-0.000221341
-1.5687e-05
-0.000218254
-6.17536e-06
-0.000220456
4.40365e-06
-0.000229362
1.78116e-05
-0.000246382
3.40407e-05
-0.000272069
5.13737e-05
-0.000305588
6.70381e-05
7.76117e-05
-0.00120657
-0.000228941
-0.00112909
-0.00023336
-0.00106559
-0.000190368
-0.00100797
-0.000172233
-0.000954348
-0.00015994
-0.000900797
-0.000159672
-0.000844453
-0.000168237
-0.000784533
-0.000179361
-0.000724618
-0.000179493
-0.000660428
-0.000192573
-0.000597538
-0.000188666
-0.000531041
-0.000199507
-0.000459855
-0.000213557
-0.00038777
-0.000216239
-0.000316535
-0.000213689
-0.000246083
-0.000211345
-0.000176981
-0.000207298
-0.000109403
-0.000202735
-4.46724e-05
-0.000194192
1.98312e-05
-0.000193513
7.81532e-05
-0.00017496
0.000144256
-0.000198309
0.000211352
-0.000201284
0.000281649
-0.000210888
0.000358388
-0.000230214
0.000440951
-0.000247687
0.000521279
-0.00024098
0.000597233
-0.000227861
0.000663855
-0.000199862
0.00071609
-0.000156702
0.000751498
-0.000106221
0.000766239
-4.42195e-05
0.00075749
2.62477e-05
0.000727357
9.03981e-05
0.000680219
0.000141414
0.000617387
0.00018849
0.000538062
0.000237984
0.000443699
0.000283087
0.000340502
0.000309575
0.000247673
0.000278484
0.000170314
0.000232083
0.000104505
0.000197432
4.8135e-05
0.000169111
-4.69547e-06
0.000158491
-6.15152e-05
0.000170461
-0.000124736
0.000189661
-0.000183832
0.000177284
-0.000231734
0.000143708
-0.000276522
0.000134367
-0.000321273
0.000134251
-0.000363695
0.000127266
-0.000397759
0.000102193
-0.000418682
6.27677e-05
-0.000423649
1.49013e-05
-0.000411566
-3.62449e-05
-0.000381343
-9.06643e-05
-0.000329444
-0.000155699
-0.000253673
-0.000227311
-0.000155956
-0.00029315
-4.67697e-05
-0.000327551
5.86127e-05
-0.00031614
0.000149866
-0.000273756
0.000219721
-0.000209557
0.000260716
-0.000122988
0.000267033
-1.89499e-05
0.000235963
9.32099e-05
0.000165413
0.000211646
5.78088e-05
0.000322814
-7.91174e-05
0.000410775
-0.000234506
0.000466164
-0.000393149
0.000475921
-0.000543141
0.000449951
-0.000676795
0.000400955
-0.000790466
0.000341014
-0.00088358
0.000279344
-0.000957251
0.00022102
-0.00101405
0.000170404
-0.00105762
0.000130724
-0.00109158
0.000101875
-0.00111851
8.07867e-05
-0.00113997
6.4387e-05
-0.00115726
5.18654e-05
-0.00117043
3.95131e-05
-0.00117956
2.73967e-05
-0.00118405
1.34775e-05
-0.00118283
-3.64505e-06
-0.00117599
-2.05176e-05
-0.00116318
-3.84483e-05
-0.00114398
-5.75798e-05
-0.00111814
-7.75356e-05
-0.00108634
-9.53818e-05
-0.00105115
-0.00010557
-0.00101544
-0.00010712
-0.000981276
-0.000102522
-0.000949518
-9.52872e-05
-0.000919863
-8.89769e-05
-0.000891989
-8.36232e-05
-0.000866449
-7.66104e-05
-0.000842795
-7.09508e-05
-0.000822873
-5.97582e-05
-0.000807912
-4.48822e-05
-0.000797499
-3.12382e-05
-0.000790811
-2.00659e-05
-0.000787012
-1.1399e-05
-0.000784794
-6.65577e-06
-0.000783835
-2.88089e-06
-0.000784575
2.21487e-06
-0.000785477
2.70524e-06
-0.000784744
-2.19851e-06
-0.000778089
-1.99598e-05
-0.000763543
-4.36363e-05
-0.000738921
-7.38619e-05
-0.000701102
-0.000113454
-0.000648716
-0.000157151
-0.00058672
-0.000185984
-0.000522513
-0.000192619
-0.000461314
-0.000183598
-0.000407764
-0.000160657
-0.000364473
-0.00012988
-0.000335615
-8.65786e-05
-0.00032657
-2.71291e-05
-0.000339189
3.78548e-05
-0.000369888
9.20929e-05
-0.000402654
9.82866e-05
-0.000416997
4.30265e-05
-0.000404043
-3.88599e-05
-0.000369115
-0.000104776
-0.000325692
-0.000130269
-0.000285247
-0.00012134
-0.000252736
-9.75308e-05
-0.000228619
-7.23487e-05
-0.000212135
-4.94524e-05
-0.000203569
-2.5699e-05
-0.000203774
6.16632e-07
-0.000212568
2.63804e-05
-0.000228694
4.83806e-05
-0.000249569
6.26257e-05
-0.000272201
6.78954e-05
-0.000293374
6.35148e-05
-0.000309919
4.96341e-05
-0.000319393
2.84228e-05
-0.00031999
1.79416e-06
-0.000311865
-2.43733e-05
-0.000296651
-4.56394e-05
-0.000277528
-5.7366e-05
-0.000258256
-5.78137e-05
-0.000241659
-4.97882e-05
-0.000229198
-3.73812e-05
-0.000221355
-2.35306e-05
-0.000218267
-9.26302e-06
-0.000220468
6.60493e-06
-0.000229373
2.67165e-05
-0.000246393
5.106e-05
-0.000272079
7.70597e-05
-0.000305598
0.000100557
0.000116418
-0.00120654
-0.00030495
-0.00112948
-0.000310414
-0.00106606
-0.000253796
-0.00100842
-0.000229868
-0.000954724
-0.000213638
-0.000901054
-0.000213342
-0.000844601
-0.00022469
-0.000784622
-0.00023934
-0.000724665
-0.00023945
-0.000660496
-0.000256742
-0.000597592
-0.000251571
-0.000531097
-0.000266002
-0.000459916
-0.000284738
-0.000387823
-0.000288332
-0.000316581
-0.000284931
-0.000246123
-0.000281802
-0.000177016
-0.000276405
-0.000109438
-0.000270313
-4.47062e-05
-0.000258924
1.97988e-05
-0.000258018
7.81203e-05
-0.000233281
0.000144231
-0.00026442
0.000211325
-0.000268378