/*--------------------------------*- C++ -*----------------------------------*\
| =========                 |                                                 |
| \\      /  F ield         | OpenFOAM: The Open Source CFD Toolbox           |
|  \\    /   O peration     | Version:  v1912                                 |
|   \\  /    A nd           | Website:  www.openfoam.com                      |
|    \\/     M anipulation  |                                                 |
\*---------------------------------------------------------------------------*/
FoamFile
{
    version     2.0;
    format      ascii;
    class       volSymmTensorField;
    location    "100";
    object      R;
}
// * * * * * * * * * * * * * * * * * * * * * * * * * * * * * * * * * * * * * //

dimensions      [0 2 -2 0 0 0 0];


internalField   nonuniform List<symmTensor> 
14268
(
(2.63407e-10 -2.8883e-12 0 3.40124e-10 0 3.0159e-10)
(2.61727e-10 5.78351e-12 0 3.34276e-10 0 2.9742e-10)
(2.60744e-10 1.3857e-11 0 3.29499e-10 0 2.94487e-10)
(2.609e-10 2.34513e-11 0 3.23949e-10 0 2.91713e-10)
(2.64005e-10 4.2049e-11 0 3.15189e-10 0 2.88265e-10)
(2.63471e-10 4.72833e-11 0 3.08826e-10 0 2.84786e-10)
(2.71859e-10 6.27872e-11 0 3.04942e-10 0 2.863e-10)
(2.81539e-10 7.64043e-11 0 3.03231e-10 0 2.91407e-10)
(2.45388e-09 9.22467e-11 0 3.25857e-09 0 2.85417e-09)
(2.4389e-09 2.08316e-10 0 3.16634e-09 0 2.79413e-09)
(2.41942e-09 3.12679e-10 0 3.08142e-09 0 2.74118e-09)
(2.41287e-09 4.31458e-10 0 2.9857e-09 0 2.68782e-09)
(2.43157e-09 6.03503e-10 0 2.87063e-09 0 2.62897e-09)
(2.42817e-09 6.69523e-10 0 2.78556e-09 0 2.57883e-09)
(2.48458e-09 7.97422e-10 0 2.72333e-09 0 2.55986e-09)
(2.52652e-09 8.61944e-10 0 2.69549e-09 0 2.56405e-09)
(8.50166e-09 1.39921e-09 0 1.05104e-08 0 9.45319e-09)
(8.61692e-09 1.68944e-09 0 1.0364e-08 0 9.41954e-09)
(8.58598e-09 1.90102e-09 0 1.01338e-08 0 9.28867e-09)
(8.47048e-09 2.14756e-09 0 9.69564e-09 0 9.00902e-09)
(8.19496e-09 2.31198e-09 0 9.09367e-09 0 8.55701e-09)
(7.55891e-09 2.20493e-09 0 8.16607e-09 0 7.80378e-09)
(7.16831e-09 2.16173e-09 0 7.53045e-09 0 7.30545e-09)
(6.8855e-09 2.02959e-09 0 7.23937e-09 0 7.08513e-09)
(2.26313e-08 6.4387e-09 0 2.27959e-08 0 2.24977e-08)
(2.3295e-08 6.85517e-09 0 2.30989e-08 0 2.29382e-08)
(2.35614e-08 7.12602e-09 0 2.30656e-08 0 2.30409e-08)
(2.3365e-08 7.49014e-09 0 2.22558e-08 0 2.25136e-08)
(2.12242e-08 6.64773e-09 0 2.05012e-08 0 2.05487e-08)
(1.77516e-08 5.20563e-09 0 1.76402e-08 0 1.73718e-08)
(1.53185e-08 3.93116e-09 0 1.62571e-08 0 1.52925e-08)
(1.39016e-08 3.11314e-09 0 1.5601e-08 0 1.42356e-08)
(6.4646e-08 2.54749e-08 0 4.74429e-08 0 5.51556e-08)
(6.86281e-08 2.7254e-08 0 4.94904e-08 0 5.80481e-08)
(7.00318e-08 2.78944e-08 0 5.00377e-08 0 5.90109e-08)
(6.88005e-08 2.7388e-08 0 4.89772e-08 0 5.7935e-08)
(6.0522e-08 2.3557e-08 0 4.35336e-08 0 5.12621e-08)
(4.32964e-08 1.53614e-08 0 3.28207e-08 0 3.77377e-08)
(3.13566e-08 9.21582e-09 0 2.57267e-08 0 2.8524e-08)
(2.50515e-08 5.86741e-09 0 2.16834e-08 0 2.37936e-08)
(2.09258e-07 8.92796e-08 0 1.19761e-07 0 1.60521e-07)
(2.29186e-07 9.77676e-08 0 1.2944e-07 0 1.74793e-07)
(2.36687e-07 1.00951e-07 0 1.32666e-07 0 1.8002e-07)
(2.32953e-07 9.93485e-08 0 1.30339e-07 0 1.77102e-07)
(2.0022e-07 8.46835e-08 0 1.13374e-07 0 1.52789e-07)
(1.29337e-07 5.26727e-08 0 7.77205e-08 0 1.00835e-07)
(8.04381e-08 2.9475e-08 0 5.48095e-08 0 6.53287e-08)
(5.47739e-08 1.67054e-08 0 4.23363e-08 0 4.69279e-08)
(6.82891e-07 2.89873e-07 0 3.32171e-07 0 4.94035e-07)
(7.77922e-07 3.29114e-07 0 3.74442e-07 0 5.60353e-07)
(8.19342e-07 3.45899e-07 0 3.91019e-07 0 5.88484e-07)
(8.15156e-07 3.43905e-07 0 3.87135e-07 0 5.84665e-07)
(7.05374e-07 2.96886e-07 0 3.35558e-07 0 5.06158e-07)
(4.29491e-07 1.79386e-07 0 2.0968e-07 0 3.11528e-07)
(2.36216e-07 9.53043e-08 0 1.22317e-07 0 1.75253e-07)
(1.44663e-07 5.42143e-08 0 7.76396e-08 0 1.1056e-07)
(1.42445e-06 5.90573e-07 0 6.36128e-07 0 1.00032e-06)
(1.73596e-06 7.15167e-07 0 7.65103e-07 0 1.21343e-06)
(1.92131e-06 7.87547e-07 0 8.34965e-07 0 1.33727e-06)
(1.9723e-06 8.06713e-07 0 8.50822e-07 0 1.36984e-06)
(1.85107e-06 7.55551e-07 0 7.96892e-07 0 1.28434e-06)
(1.3009e-06 5.30869e-07 0 5.67735e-07 0 9.05983e-07)
(7.07712e-07 2.87949e-07 0 3.28843e-07 0 5.00074e-07)
(3.76644e-07 1.47548e-07 0 1.87767e-07 0 2.72908e-07)
(1.72986e-06 7.06446e-07 0 7.45928e-07 0 1.20261e-06)
(2.17795e-06 8.82369e-07 0 9.25562e-07 0 1.50636e-06)
(2.47799e-06 9.96807e-07 0 1.03482e-06 0 1.70468e-06)
(2.59753e-06 1.04116e-06 0 1.0728e-06 0 1.78121e-06)
(2.54893e-06 1.01885e-06 0 1.04607e-06 0 1.74434e-06)
(2.06636e-06 8.23514e-07 0 8.4318e-07 0 1.41268e-06)
(1.2203e-06 4.86659e-07 0 5.08717e-07 0 8.39528e-07)
(6.17726e-07 2.40922e-07 0 2.61993e-07 0 4.34094e-07)
(1.32673e-06 5.41325e-07 0 6.02609e-07 0 9.37097e-07)
(1.72539e-06 6.992e-07 0 7.67274e-07 0 1.21009e-06)
(2.01209e-06 8.09652e-07 0 8.72412e-07 0 1.40025e-06)
(2.15966e-06 8.65181e-07 0 9.19701e-07 0 1.4946e-06)
(2.18241e-06 8.71984e-07 0 9.21657e-07 0 1.50594e-06)
(2.01334e-06 7.99892e-07 0 8.38998e-07 0 1.38254e-06)
(1.29778e-06 5.13506e-07 0 5.57436e-07 0 8.94941e-07)
(6.24855e-07 2.38276e-07 0 2.93836e-07 0 4.43338e-07)
(6.52247e-07 2.59478e-07 0 3.39445e-07 0 4.83926e-07)
(8.23138e-07 3.28907e-07 0 4.20946e-07 0 6.0641e-07)
(9.37896e-07 3.75213e-07 0 4.67979e-07 0 6.84989e-07)
(9.9151e-07 3.9677e-07 0 4.85636e-07 0 7.19537e-07)
(9.95193e-07 3.97263e-07 0 4.84095e-07 0 7.20254e-07)
(9.27594e-07 3.65869e-07 0 4.48141e-07 0 6.69566e-07)
(6.77078e-07 2.54089e-07 0 3.37003e-07 0 4.94415e-07)
(4.12209e-07 1.30094e-07 0 2.03799e-07 0 3.09078e-07)
(3.63518e-07 1.17478e-07 0 2.14877e-07 0 2.83568e-07)
(4.34172e-07 1.41174e-07 0 2.55534e-07 0 3.37804e-07)
(4.73963e-07 1.54507e-07 0 2.75918e-07 0 3.67179e-07)
(4.87445e-07 1.59001e-07 0 2.8165e-07 0 3.7651e-07)
(4.8116e-07 1.53772e-07 0 2.7747e-07 0 3.7113e-07)
(4.29745e-07 1.25843e-07 0 2.51064e-07 0 3.32877e-07)
(3.35512e-07 7.63967e-08 0 2.09984e-07 0 2.65642e-07)
(2.55599e-07 3.3651e-08 0 1.72647e-07 0 2.08079e-07)
(2.55047e-07 4.25309e-08 0 1.6037e-07 0 2.04187e-07)
(2.99688e-07 4.65126e-08 0 1.89774e-07 0 2.40134e-07)
(3.23986e-07 4.6256e-08 0 2.04811e-07 0 2.59247e-07)
(3.3159e-07 4.35021e-08 0 2.0895e-07 0 2.64888e-07)
(3.29071e-07 3.5845e-08 0 2.06729e-07 0 2.6225e-07)
(3.06018e-07 1.64101e-08 0 1.9033e-07 0 2.42814e-07)
(2.61176e-07 -3.69553e-09 0 1.64088e-07 0 2.0811e-07)
(2.17169e-07 -1.42585e-08 0 1.35537e-07 0 1.7559e-07)
(2.16525e-07 -1.27451e-09 0 1.37393e-07 0 1.72985e-07)
(2.61358e-07 -7.68947e-09 0 1.66322e-07 0 2.08583e-07)
(2.89982e-07 -1.62918e-08 0 1.8251e-07 0 2.3031e-07)
(3.03888e-07 -2.63402e-08 0 1.87413e-07 0 2.39463e-07)
(3.08768e-07 -3.62435e-08 0 1.85775e-07 0 2.41019e-07)
(3.10918e-07 -6.72575e-08 0 1.68698e-07 0 2.34082e-07)
(2.86617e-07 -7.61471e-08 0 1.48558e-07 0 2.12021e-07)
(2.23044e-07 -5.04635e-08 0 1.30271e-07 0 1.73182e-07)
(1.73048e-07 -3.5281e-08 0 9.65484e-08 0 1.32691e-07)
(2.25716e-07 -5.54158e-08 0 1.20254e-07 0 1.69929e-07)
(2.74896e-07 -7.82708e-08 0 1.36674e-07 0 2.02064e-07)
(3.15859e-07 -9.90445e-08 0 1.4565e-07 0 2.26384e-07)
(3.41345e-07 -1.1191e-07 0 1.49303e-07 0 2.40258e-07)
(3.50816e-07 -1.14218e-07 0 1.50187e-07 0 2.45079e-07)
(3.30453e-07 -1.07557e-07 0 1.39661e-07 0 2.29624e-07)
(2.45789e-07 -7.75127e-08 0 1.13121e-07 0 1.77288e-07)
(1.06656e-07 -3.72452e-08 0 5.8819e-08 0 8.09803e-08)
(1.39044e-07 -4.92936e-08 0 7.25297e-08 0 1.03064e-07)
(1.74229e-07 -6.25149e-08 0 8.61578e-08 0 1.26607e-07)
(2.03715e-07 -7.26967e-08 0 9.64615e-08 0 1.45796e-07)
(2.24193e-07 -7.87487e-08 0 1.02995e-07 0 1.58631e-07)
(2.34708e-07 -8.1406e-08 0 1.04815e-07 0 1.64601e-07)
(2.35681e-07 -8.25788e-08 0 1.02972e-07 0 1.63979e-07)
(2.27545e-07 -8.61149e-08 0 9.55689e-08 0 1.56787e-07)
(6.44042e-08 -2.68523e-08 0 4.19638e-08 0 5.24437e-08)
(7.90803e-08 -3.23057e-08 0 4.76283e-08 0 6.22413e-08)
(9.68047e-08 -3.92379e-08 0 5.36883e-08 0 7.392e-08)
(1.16069e-07 -4.69503e-08 0 5.95769e-08 0 8.62788e-08)
(1.31644e-07 -5.27829e-08 0 6.3578e-08 0 9.57696e-08)
(1.40914e-07 -5.50714e-08 0 6.4374e-08 0 1.00801e-07)
(1.41212e-07 -5.38451e-08 0 6.29305e-08 0 1.00177e-07)
(1.35345e-07 -5.05066e-08 0 5.97257e-08 0 9.62664e-08)
(3.95783e-08 -1.62226e-08 0 3.41272e-08 0 3.64696e-08)
(4.54409e-08 -1.82586e-08 0 3.63986e-08 0 4.02937e-08)
(5.23636e-08 -2.07055e-08 0 3.86348e-08 0 4.47335e-08)
(6.02146e-08 -2.31424e-08 0 4.08933e-08 0 4.96363e-08)
(6.7888e-08 -2.50798e-08 0 4.30434e-08 0 5.43096e-08)
(7.27054e-08 -2.58287e-08 0 4.33968e-08 0 5.68392e-08)
(7.24803e-08 -2.42944e-08 0 4.24063e-08 0 5.61209e-08)
(7.10149e-08 -2.34071e-08 0 4.13715e-08 0 5.49691e-08)
(2.86627e-08 -9.12198e-09 0 3.07154e-08 0 2.95727e-08)
(3.12428e-08 -9.75814e-09 0 3.16574e-08 0 3.12082e-08)
(3.4298e-08 -1.06611e-08 0 3.25623e-08 0 3.31542e-08)
(3.79004e-08 -1.15313e-08 0 3.34403e-08 0 3.53525e-08)
(4.19387e-08 -1.22776e-08 0 3.4604e-08 0 3.78099e-08)
(4.54743e-08 -1.27363e-08 0 3.47157e-08 0 3.96355e-08)
(4.70518e-08 -1.20411e-08 0 3.40505e-08 0 3.99936e-08)
(4.80509e-08 -1.17418e-08 0 3.29934e-08 0 4.01552e-08)
(2.4985e-08 -6.24124e-09 0 2.94228e-08 0 2.71928e-08)
(2.66563e-08 -6.5483e-09 0 2.98102e-08 0 2.81372e-08)
(2.86452e-08 -7.07454e-09 0 3.02934e-08 0 2.93504e-08)
(3.12487e-08 -7.68066e-09 0 3.07134e-08 0 3.08432e-08)
(3.45328e-08 -8.32026e-09 0 3.14367e-08 0 3.27351e-08)
(3.75068e-08 -8.65877e-09 0 3.13519e-08 0 3.41954e-08)
(3.93305e-08 -8.1876e-09 0 3.11029e-08 0 3.48808e-08)
(4.08827e-08 -7.68458e-09 0 3.01507e-08 0 3.52417e-08)
(2.37056e-08 -4.8467e-09 0 2.91237e-08 0 2.6404e-08)
(2.50977e-08 -5.03525e-09 0 2.9204e-08 0 2.70955e-08)
(2.67395e-08 -5.38409e-09 0 2.94524e-08 0 2.80533e-08)
(2.89992e-08 -5.87262e-09 0 2.96675e-08 0 2.93163e-08)
(3.19724e-08 -6.4128e-09 0 3.01935e-08 0 3.09886e-08)
(3.4756e-08 -6.76038e-09 0 3.00624e-08 0 3.23308e-08)
(3.65413e-08 -6.58181e-09 0 2.98618e-08 0 3.30462e-08)
(3.81794e-08 -6.19867e-09 0 2.87128e-08 0 3.34564e-08)
(2.25987e-08 -3.73766e-09 0 2.8873e-08 0 2.57259e-08)
(2.35497e-08 -3.70688e-09 0 2.87267e-08 0 2.60958e-08)
(2.46619e-08 -3.71736e-09 0 2.87459e-08 0 2.66604e-08)
(2.62134e-08 -3.93406e-09 0 2.87972e-08 0 2.74794e-08)
(2.84188e-08 -4.18249e-09 0 2.89155e-08 0 2.86046e-08)
(3.06391e-08 -4.34912e-09 0 2.85408e-08 0 2.95646e-08)
(3.2132e-08 -4.2185e-09 0 2.82498e-08 0 3.01211e-08)
(3.32514e-08 -3.90324e-09 0 2.74681e-08 0 3.03708e-08)
(2.17829e-08 -2.94988e-09 0 2.85566e-08 0 2.52401e-08)
(2.21362e-08 -2.54847e-09 0 2.82653e-08 0 2.52608e-08)
(2.27222e-08 -2.02038e-09 0 2.78718e-08 0 2.53659e-08)
(2.32037e-08 -1.77072e-09 0 2.78143e-08 0 2.56065e-08)
(2.40717e-08 -1.50372e-09 0 2.76561e-08 0 2.59584e-08)
(2.51061e-08 -1.27589e-09 0 2.7227e-08 0 2.62907e-08)
(2.57743e-08 -1.15787e-09 0 2.70647e-08 0 2.64959e-08)
(2.69948e-08 -6.83746e-10 0 2.58521e-08 0 2.65976e-08)
(2.33926e-08 -4.94581e-09 0 2.91715e-08 0 2.66666e-08)
(2.36709e-08 -4.68263e-09 0 2.89788e-08 0 2.67366e-08)
(2.43449e-08 -4.39099e-09 0 2.88235e-08 0 2.70941e-08)
(2.54515e-08 -4.20202e-09 0 2.89119e-08 0 2.78397e-08)
(2.70235e-08 -4.33825e-09 0 2.94439e-08 0 2.9037e-08)
(2.85532e-08 -4.7671e-09 0 3.00098e-08 0 3.02346e-08)
(3.02673e-08 -4.96819e-09 0 3.03744e-08 0 3.12998e-08)
(3.23447e-08 -4.80681e-09 0 2.97357e-08 0 3.21683e-08)
(2.76606e-08 -8.51295e-09 0 3.19954e-08 0 3.08751e-08)
(2.87797e-08 -8.43304e-09 0 3.21802e-08 0 3.16002e-08)
(3.10641e-08 -8.84038e-09 0 3.31451e-08 0 3.34713e-08)
(3.4358e-08 -9.93375e-09 0 3.52958e-08 0 3.65659e-08)
(3.91353e-08 -1.19048e-08 0 3.88135e-08 0 4.11399e-08)
(4.48156e-08 -1.40859e-08 0 4.23454e-08 0 4.61574e-08)
(5.08575e-08 -1.61684e-08 0 4.59688e-08 0 5.11798e-08)
(5.71447e-08 -1.76157e-08 0 4.78315e-08 0 5.55221e-08)
(3.43845e-08 -1.18625e-08 0 3.5391e-08 0 3.74067e-08)
(3.89919e-08 -1.32609e-08 0 3.79829e-08 0 4.14846e-08)
(4.56593e-08 -1.58028e-08 0 4.25956e-08 0 4.77801e-08)
(5.56601e-08 -1.9923e-08 0 4.99956e-08 0 5.74375e-08)
(6.961e-08 -2.64613e-08 0 6.16736e-08 0 7.13125e-08)
(8.64528e-08 -3.43983e-08 0 7.51054e-08 0 8.74391e-08)
(1.05556e-07 -4.24811e-08 0 8.8818e-08 0 1.04672e-07)
(1.26184e-07 -4.92731e-08 0 9.8761e-08 0 1.20854e-07)
(3.8923e-08 -1.39962e-08 0 3.76919e-08 0 4.19978e-08)
(4.79573e-08 -1.72537e-08 0 4.32636e-08 0 5.03907e-08)
(6.29641e-08 -2.35858e-08 0 5.42122e-08 0 6.49854e-08)
(8.68557e-08 -3.40625e-08 0 7.26661e-08 0 8.82981e-08)
(1.22776e-07 -5.12419e-08 0 1.02626e-07 0 1.23876e-07)
(1.72533e-07 -7.5417e-08 0 1.44613e-07 0 1.72441e-07)
(2.3314e-07 -1.02864e-07 0 1.92798e-07 0 2.29307e-07)
(2.97309e-07 -1.27171e-07 0 2.33613e-07 0 2.83703e-07)
(4.05576e-08 -1.51043e-08 0 3.74525e-08 0 4.32827e-08)
(5.17066e-08 -1.92899e-08 0 4.44571e-08 0 5.37363e-08)
(7.13991e-08 -2.77907e-08 0 5.86648e-08 0 7.27998e-08)
(1.05134e-07 -4.27612e-08 0 8.44149e-08 0 1.05447e-07)
(1.59671e-07 -6.86683e-08 0 1.28771e-07 0 1.58772e-07)
(2.44494e-07 -1.09579e-07 0 1.99373e-07 0 2.41036e-07)
(3.68231e-07 -1.6698e-07 0 2.99126e-07 0 3.58068e-07)
(5.38625e-07 -2.38157e-07 0 4.19182e-07 0 5.10038e-07)
(4.00551e-08 -1.55621e-08 0 3.21939e-08 0 4.1035e-08)
(5.18624e-08 -1.99902e-08 0 4.0346e-08 0 5.223e-08)
(7.28913e-08 -2.89718e-08 0 5.56587e-08 0 7.24293e-08)
(1.09742e-07 -4.52151e-08 0 8.31931e-08 0 1.07569e-07)
(1.71811e-07 -7.42739e-08 0 1.31313e-07 0 1.66901e-07)
(2.73227e-07 -1.22636e-07 0 2.12022e-07 0 2.63346e-07)
(4.30546e-07 -1.95827e-07 0 3.34492e-07 0 4.10232e-07)
(6.76905e-07 -3.01423e-07 0 5.06153e-07 0 6.29111e-07)
(3.03296e-08 -1.01096e-08 0 1.49144e-08 0 2.90023e-08)
(4.03964e-08 -1.41736e-08 0 2.09989e-08 0 3.81944e-08)
(5.93698e-08 -2.21453e-08 0 3.25927e-08 0 5.52296e-08)
(9.44028e-08 -3.71866e-08 0 5.49537e-08 0 8.67201e-08)
(1.57313e-07 -6.52008e-08 0 9.74014e-08 0 1.43469e-07)
(2.66995e-07 -1.1566e-07 0 1.75394e-07 0 2.43046e-07)
(4.39881e-07 -1.957e-07 0 3.00434e-07 0 4.00179e-07)
(7.11138e-07 -3.1406e-07 0 4.86608e-07 0 6.40723e-07)
(1.35075e-08 5.07849e-10 0 1e-15 0 1.40323e-08)
(1.837e-08 -1.08838e-09 0 1e-15 0 1.82465e-08)
(2.77855e-08 -4.26033e-09 0 1e-15 0 2.60925e-08)
(4.61815e-08 -1.06784e-08 0 1e-15 0 4.12486e-08)
(8.26252e-08 -2.38413e-08 0 5.33272e-09 0 7.11098e-08)
(1.57156e-07 -5.23807e-08 0 4.09578e-08 0 1.32121e-07)
(2.97659e-07 -1.09405e-07 0 1.13412e-07 0 2.48047e-07)
(5.54468e-07 -2.16515e-07 0 2.50325e-07 0 4.63148e-07)
(3.66277e-09 6.75107e-09 0 1e-15 0 6.42984e-09)
(5.07748e-09 7.09259e-09 0 1e-15 0 8.046e-09)
(7.7416e-09 7.27607e-09 0 1e-15 0 1.06192e-08)
(1.30446e-08 7.00501e-09 0 1e-15 0 1.53671e-08)
(2.39935e-08 6.06991e-09 0 1e-15 0 2.47816e-08)
(4.8965e-08 2.36053e-09 0 1e-15 0 4.55402e-08)
(1.0325e-07 -9.12845e-09 0 1e-15 0 8.8987e-08)
(2.17413e-07 -3.83112e-08 0 1e-15 0 1.79862e-07)
(1.72386e-09 8.78938e-09 0 1e-15 0 4.84454e-09)
(2.44155e-09 1.06958e-08 0 1e-15 0 6.31049e-09)
(3.43939e-09 1.2394e-08 0 1e-15 0 7.79296e-09)
(5.02472e-09 1.41004e-08 0 1e-15 0 9.74968e-09)
(7.68408e-09 1.6743e-08 0 1e-15 0 1.28349e-08)
(1.3963e-08 2.14052e-08 0 1e-15 0 1.93712e-08)
(2.69838e-08 2.95796e-08 0 1e-15 0 3.15773e-08)
(5.77703e-08 3.98874e-08 0 1e-15 0 5.82956e-08)
(1.45231e-08 3.76758e-08 0 1e-15 0 3.68799e-08)
(1.20752e-08 5.88959e-08 0 1e-15 0 4.80703e-08)
(8.8296e-09 7.10576e-08 0 1e-15 0 5.0123e-08)
(8.85726e-09 7.32298e-08 0 1e-15 0 4.54933e-08)
(7.06186e-09 6.76872e-08 0 1e-15 0 3.692e-08)
(1.0542e-08 6.04674e-08 0 1e-15 0 3.16871e-08)
(1.91971e-08 5.71593e-08 0 1e-15 0 3.23344e-08)
(3.98452e-08 7.80383e-08 0 1e-15 0 4.74592e-08)
(1.49964e-06 1.02896e-06 0 1e-15 0 1.75774e-06)
(2.02952e-06 1.62191e-06 0 1e-15 0 2.58258e-06)
(2.02792e-06 2.05377e-06 0 1e-15 0 2.91928e-06)
(1.85251e-06 2.09838e-06 0 1e-15 0 2.84302e-06)
(1.42521e-06 1.8097e-06 0 1e-15 0 2.27951e-06)
(9.98552e-07 1.41821e-06 0 1e-15 0 1.63527e-06)
(6.25133e-07 1.00477e-06 0 1e-15 0 1.05643e-06)
(4.57366e-07 7.77915e-07 0 1e-15 0 7.52136e-07)
(2.50169e-05 1.0082e-05 0 2.0761e-06 0 2.12556e-05)
(3.91264e-05 1.7443e-05 0 2.90156e-06 0 3.5006e-05)
(4.70516e-05 2.44658e-05 0 2.56294e-06 0 4.50555e-05)
(4.74536e-05 2.54567e-05 0 1e-15 0 4.76835e-05)
(4.23071e-05 2.29654e-05 0 1e-15 0 4.36939e-05)
(3.48603e-05 1.94252e-05 0 1e-15 0 3.7043e-05)
(2.51776e-05 1.48803e-05 0 1e-15 0 2.78982e-05)
(1.48799e-05 1.01069e-05 0 1e-15 0 1.80742e-05)
(0.000213573 7.24517e-05 0 8.69138e-05 0 0.000157102)
(0.000352229 0.000129353 0 0.000152151 0 0.000268445)
(0.000484881 0.000197224 0 0.000232408 0 0.000383761)
(0.000573769 0.000235772 0 0.000252875 0 0.000470544)
(0.000588763 0.00024295 0 0.000242855 0 0.000495109)
(0.000582222 0.000242631 0 0.000220245 0 0.0004998)
(0.000538786 0.000228343 0 0.000168846 0 0.000473493)
(0.0004253 0.000192798 0 0.000120881 0 0.000389999)
(0.000675978 0.000248534 0 0.000299537 0 0.000474941)
(0.000945434 0.000374394 0 0.000450619 0 0.000686047)
(0.00123652 0.000526545 0 0.000650124 0 0.000911757)
(0.00159427 0.000662815 0 0.000813869 0 0.00118656)
(0.00197608 0.000815004 0 0.00102172 0 0.00147523)
(0.00239981 0.000982281 0 0.00121591 0 0.00180002)
(0.00271268 0.00107454 0 0.00130301 0 0.00204389)
(0.00283344 0.00115346 0 0.00150076 0 0.00218308)
(0.000894554 0.000354948 0 0.00040951 0 0.000636884)
(0.00113159 0.00047257 0 0.000556248 0 0.000827889)
(0.00144395 0.000628456 0 0.000758903 0 0.00105799)
(0.00189928 0.00076826 0 0.000906309 0 0.00138319)
(0.00243238 0.000973513 0 0.00116677 0 0.00176039)
(0.00301369 0.0012082 0 0.00143637 0 0.00219117)
(0.00352491 0.00135374 0 0.00152891 0 0.00256729)
(0.00395945 0.00158618 0 0.00192627 0 0.00292462)
(0.000766737 0.000345285 0 0.000424302 0 0.000580112)
(0.000926436 0.000407318 0 0.000518566 0 0.000704657)
(0.00124346 0.000545018 0 0.000704377 0 0.000913552)
(0.00176849 0.000649329 0 0.000793183 0 0.00127166)
(0.00231912 0.000905016 0 0.00113683 0 0.00166758)
(0.00271365 0.00107202 0 0.00133016 0 0.00198418)
(0.00307817 0.00101997 0 0.00101139 0 0.00223966)
(0.00351811 0.00111709 0 0.000866262 0 0.00255038)
(0.000410347 0.000201974 0 0.000285129 0 0.000339176)
(0.000533326 0.000215162 0 0.000297554 0 0.000410572)
(0.000775088 0.000310871 0 0.000429245 0 0.000553413)
(0.00120868 0.000348232 0 0.000402438 0 0.000850678)
(0.00150549 0.000612694 0 0.000765114 0 0.00109253)
(0.00172558 0.000639076 0 0.000743241 0 0.00128902)
(0.00224466 0.000581389 0 0.000427493 0 0.00164423)
(0.0029637 0.000736654 0 0.000157656 0 0.0021511)
(0.000220862 9.66913e-05 0 0.000158177 0 0.00018605)
(0.000304728 0.000104732 0 0.000165678 0 0.000234184)
(0.000457832 0.000154835 0 0.000247585 0 0.000326438)
(0.0007119 0.000202247 0 0.000252888 0 0.000509223)
(0.000762346 0.000372138 0 0.000521512 0 0.000590281)
(0.000993533 0.000360608 0 0.000507046 0 0.000770929)
(0.00159046 0.000351837 0 0.00046825 0 0.00117673)
(0.00262846 0.000601764 0 0.0003432 0 0.00192147)
(0.000113072 4.3782e-05 0 9.59963e-05 0 0.000101531)
(0.000156949 5.26821e-05 0 0.000109131 0 0.000130919)
(0.00024627 7.6184e-05 0 0.000145216 0 0.000191333)
(0.000334429 0.000153997 0 0.000239039 0 0.000263214)
(0.000344545 0.000185034 0 0.000354251 0 0.000303142)
(0.000472152 0.000221484 0 0.000471801 0 0.000399703)
(0.000964679 0.000268331 0 0.000729026 0 0.000739411)
(0.00203438 0.000649907 0 0.000940961 0 0.00154335)
(5.744e-05 1.8124e-05 0 5.90905e-05 0 5.69899e-05)
(7.88769e-05 2.58518e-05 0 7.02814e-05 0 7.48278e-05)
(0.000122018 4.37343e-05 0 9.34857e-05 0 0.000107904)
(0.000154715 8.51483e-05 0 0.000157114 0 0.000137799)
(0.000189274 6.97004e-05 0 0.000163791 0 0.000176037)
(0.000269799 0.000121698 0 0.000259087 0 0.000240441)
(0.000585976 0.000252468 0 0.000515523 0 0.000481656)
(0.000929536 0.000600052 0 0.0011007 0 0.000827191)
(3.52736e-05 7.18302e-06 0 3.30496e-05 0 3.41201e-05)
(4.4186e-05 1.25319e-05 0 4.31783e-05 0 4.43042e-05)
(6.04446e-05 2.34182e-05 0 6.51564e-05 0 5.98398e-05)
(9.30915e-05 2.86674e-05 0 6.97181e-05 0 8.55906e-05)
(0.000104415 3.32109e-05 0 8.61671e-05 0 0.000102534)
(0.000147321 7.39013e-05 0 0.000153763 0 0.000140164)
(0.000290826 0.000199763 0 0.000371745 0 0.000279244)
(0.000372463 0.000377979 0 0.000786376 0 0.000425231)
(2.42322e-05 5.08383e-06 0 1.80636e-05 0 2.12299e-05)
(2.77823e-05 7.63943e-06 0 2.67183e-05 0 2.69071e-05)
(4.07983e-05 1.07261e-05 0 3.30315e-05 0 3.83655e-05)
(5.58597e-05 1.29544e-05 0 3.69783e-05 0 5.17067e-05)
(5.08398e-05 2.40929e-05 0 6.56752e-05 0 5.40549e-05)
(7.59649e-05 4.18953e-05 0 0.000102154 0 7.79187e-05)
(0.000126927 0.000112108 0 0.000261564 0 0.000154056)
(0.000258851 0.000145787 0 0.000324296 0 0.000282167)
(1.54852e-05 5.33123e-06 0 1.17025e-05 0 1.29053e-05)
(1.89322e-05 6.15193e-06 0 1.58294e-05 0 1.68416e-05)
(2.75355e-05 8.09608e-06 0 1.84682e-05 0 2.35945e-05)
(2.76588e-05 1.26829e-05 0 3.23304e-05 0 2.72519e-05)
(3.53516e-05 1.5605e-05 0 3.51286e-05 0 3.34909e-05)
(5.72492e-05 1.57489e-05 0 4.43471e-05 0 5.35205e-05)
(0.000112088 3.51947e-05 0 9.3512e-05 0 0.000117174)
(0.000197695 5.35252e-05 0 0.00011323 0 0.000186701)
(9.54617e-06 5.11764e-06 0 7.33217e-06 0 8.10118e-06)
(1.29843e-05 5.77198e-06 0 8.8262e-06 0 1.06953e-05)
(1.68039e-05 7.8047e-06 0 1.24325e-05 0 1.36937e-05)
(1.735e-05 1.0865e-05 0 1.97459e-05 0 1.63859e-05)
(2.70616e-05 1.00531e-05 0 1.48341e-05 0 2.23177e-05)
(4.14706e-05 8.71169e-06 0 1.91143e-05 0 3.4754e-05)
(8.78491e-05 1.3639e-05 0 2.95511e-05 0 7.59697e-05)
(0.000101034 4.52005e-05 0 9.48508e-05 0 9.53779e-05)
(5.38829e-06 3.41294e-06 0 4.53382e-06 0 4.89341e-06)
(8.01005e-06 4.17324e-06 0 5.0074e-06 0 6.49973e-06)
(9.08107e-06 5.57717e-06 0 8.52815e-06 0 7.98203e-06)
(1.31511e-05 6.46512e-06 0 7.90703e-06 0 1.12103e-05)
(1.63713e-05 6.7177e-06 0 9.57164e-06 0 1.30276e-05)
(2.42809e-05 1.0011e-05 0 1.44433e-05 0 1.89033e-05)
(3.73368e-05 2.18738e-05 0 4.34924e-05 0 3.22483e-05)
(5.411e-05 3.56632e-05 0 6.37422e-05 0 5.17301e-05)
(2.8866e-06 1.49245e-06 0 2.59691e-06 0 2.75245e-06)
(4.09626e-06 2.25407e-06 0 3.24025e-06 0 3.61702e-06)
(4.92524e-06 2.63006e-06 0 4.67631e-06 0 4.86114e-06)
(7.65473e-06 2.84628e-06 0 4.45625e-06 0 6.4823e-06)
(8.39115e-06 4.48534e-06 0 7.25184e-06 0 7.06311e-06)
(1.17621e-05 8.3685e-06 0 1.20805e-05 0 9.50061e-06)
(1.76124e-05 1.64055e-05 0 2.86407e-05 0 1.73932e-05)
(3.3901e-05 1.77303e-05 0 3.0913e-05 0 3.17212e-05)
(1.61988e-06 7.21388e-07 0 1.37088e-06 0 1.52058e-06)
(2.06569e-06 9.8156e-07 0 1.97309e-06 0 1.97382e-06)
(2.9906e-06 1.08452e-06 0 2.18271e-06 0 2.83169e-06)
(3.66961e-06 1.74219e-06 0 3.44493e-06 0 3.2893e-06)
(4.62087e-06 2.49202e-06 0 4.10518e-06 0 4.13488e-06)
(6.59704e-06 3.14999e-06 0 6.01841e-06 0 5.91847e-06)
(1.25234e-05 5.21542e-06 0 8.9876e-06 0 1.25114e-05)
(1.92453e-05 7.24634e-06 0 1.5523e-05 0 1.81209e-05)
(9.04071e-07 4.86166e-07 0 7.63844e-07 0 8.1046e-07)
(1.23377e-06 5.03462e-07 0 9.7481e-07 0 1.11496e-06)
(1.66899e-06 7.04183e-07 0 1.34396e-06 0 1.41189e-06)
(1.94373e-06 1.23243e-06 0 2.04147e-06 0 1.79304e-06)
(2.90496e-06 1.09186e-06 0 1.79292e-06 0 2.53848e-06)
(4.56202e-06 7.0059e-07 0 1.62432e-06 0 4.02128e-06)
(7.16181e-06 1.27407e-06 0 3.88127e-06 0 6.76726e-06)
(9.91086e-06 4.4458e-06 0 8.66701e-06 0 9.44928e-06)
(4.88306e-07 2.1361e-07 0 4.2522e-07 0 4.34697e-07)
(6.81943e-07 2.93254e-07 0 5.44485e-07 0 5.97659e-07)
(8.20903e-07 4.81272e-07 0 8.50901e-07 0 7.59552e-07)
(1.21178e-06 4.92743e-07 0 8.88915e-07 0 1.08461e-06)
(1.58569e-06 3.80044e-07 0 1.07481e-06 0 1.3436e-06)
(1.97676e-06 7.07456e-07 0 1.71107e-06 0 1.79974e-06)
(2.76134e-06 1.66393e-06 0 3.7859e-06 0 2.64334e-06)
(4.4658e-06 2.54874e-06 0 5.51192e-06 0 4.54206e-06)
(2.55045e-07 6.58905e-08 0 2.33077e-07 0 2.46823e-07)
(3.33432e-07 1.47429e-07 0 3.35374e-07 0 3.22649e-07)
(4.04142e-07 1.96862e-07 0 4.56248e-07 0 4.54202e-07)
(6.71112e-07 1.74211e-07 0 4.40061e-07 0 6.09909e-07)
(7.77474e-07 3.53109e-07 0 7.01557e-07 0 6.95832e-07)
(7.83073e-07 5.41533e-07 0 1.37096e-06 0 7.44786e-07)
(1.08597e-06 8.42837e-07 0 2.22341e-06 0 1.37781e-06)
(2.53552e-06 1.02653e-06 0 2.37902e-06 0 2.50125e-06)
(1.44065e-07 9.1073e-08 0 1.39579e-07 0 1.36148e-07)
(1.85199e-07 8.86566e-08 0 1.83353e-07 0 1.82862e-07)
(2.89714e-07 9.88741e-08 0 1.83999e-07 0 2.4148e-07)
(3.17003e-07 2.07437e-07 0 3.32034e-07 0 2.7908e-07)
(4.09826e-07 3.24777e-07 0 4.01333e-07 0 3.66413e-07)
(6.61543e-07 2.2602e-07 0 3.01439e-07 0 5.71501e-07)
(9.77729e-07 2.02748e-07 0 5.13343e-07 0 8.91322e-07)
(1.51065e-06 6.17549e-07 0 9.9876e-07 0 1.21409e-06)
(9.37768e-08 5.51751e-08 0 6.95196e-08 0 8.52804e-08)
(1.32731e-07 5.9268e-08 0 7.92287e-08 0 1.04021e-07)
(1.61008e-07 6.84061e-08 0 1.14047e-07 0 1.22007e-07)
(1.88427e-07 9.15555e-08 0 1.55018e-07 0 1.60879e-07)
(2.54801e-07 6.03356e-08 0 1.47679e-07 0 2.25646e-07)
(3.10493e-07 1.05965e-07 0 1.87384e-07 0 3.01632e-07)
(5.27882e-07 2.4483e-07 0 2.47497e-07 0 4.26306e-07)
(6.24353e-07 3.54274e-07 0 5.9993e-07 0 6.06813e-07)
(6.19548e-08 4.66454e-09 0 4.4157e-08 0 5.11596e-08)
(6.66543e-08 1.52806e-08 0 5.84035e-08 0 6.50574e-08)
(6.37046e-08 3.19091e-08 0 8.53215e-08 0 8.12148e-08)
(1.03054e-07 1.53795e-08 0 7.4136e-08 0 1.06644e-07)
(1.21677e-07 2.11468e-08 0 1.0797e-07 0 1.15802e-07)
(1.25137e-07 4.09331e-08 0 1.8889e-07 0 1.1151e-07)
(1.48212e-07 8.36809e-08 0 2.91216e-07 0 1.67815e-07)
(2.97068e-07 6.99295e-08 0 2.98387e-07 0 3.00348e-07)
(3.73416e-08 1.19489e-08 0 3.94604e-08 0 3.85604e-08)
(4.01927e-08 1.06162e-08 0 4.8554e-08 0 4.20419e-08)
(5.62399e-08 1.01812e-08 0 4.56919e-08 0 4.80079e-08)
(6.07203e-08 2.12904e-08 0 6.35029e-08 0 5.22262e-08)
(6.73953e-08 4.15333e-08 0 7.62968e-08 0 6.31419e-08)
(8.62137e-08 3.53467e-08 0 7.314e-08 0 8.42853e-08)
(1.20958e-07 2.75115e-08 0 9.13655e-08 0 1.1131e-07)
(1.59302e-07 6.73554e-08 0 1.48799e-07 0 1.43305e-07)
(3.31425e-08 8.84246e-09 0 3.04121e-08 0 3.13242e-08)
(3.76278e-08 1.06836e-08 0 3.06291e-08 0 3.4034e-08)
(3.98906e-08 1.16679e-08 0 3.40255e-08 0 3.70739e-08)
(4.21827e-08 1.70018e-08 0 3.98459e-08 0 4.13076e-08)
(5.02215e-08 1.19428e-08 0 3.92343e-08 0 4.72777e-08)
(6.49642e-08 1.55025e-08 0 3.34181e-08 0 5.51501e-08)
(7.9169e-08 3.09932e-08 0 4.06223e-08 0 6.84819e-08)
(8.26944e-08 3.95019e-08 0 7.89707e-08 0 8.11931e-08)
(3.11509e-08 4.63377e-09 0 2.54819e-08 0 2.86398e-08)
(3.15101e-08 4.97585e-09 0 2.74058e-08 0 2.9634e-08)
(3.20136e-08 5.97801e-09 0 2.93995e-08 0 3.09321e-08)
(3.60896e-08 3.65064e-09 0 2.82415e-08 0 3.35525e-08)
(3.6693e-08 6.667e-09 0 3.2137e-08 0 3.48762e-08)
(3.3108e-08 6.81767e-09 0 4.34612e-08 0 3.40371e-08)
(3.54019e-08 6.68281e-09 0 5.11012e-08 0 3.82442e-08)
(5.37825e-08 4.15968e-09 0 4.39259e-08 0 5.02246e-08)
(2.80692e-08 4.85195e-09 0 2.60303e-08 0 2.69676e-08)
(2.86011e-08 5.34234e-09 0 2.65644e-08 0 2.73881e-08)
(2.88918e-08 4.84407e-09 0 2.72484e-08 0 2.78691e-08)
(2.87237e-08 6.27205e-09 0 2.96947e-08 0 2.80405e-08)
(2.94742e-08 6.12009e-09 0 3.0235e-08 0 2.91181e-08)
(3.35783e-08 6.10552e-09 0 2.72115e-08 0 3.12839e-08)
(3.5635e-08 7.03894e-09 0 2.90059e-08 0 3.30515e-08)
(3.46441e-08 1.14648e-08 0 3.79122e-08 0 3.45364e-08)
(2.78046e-08 4.74336e-09 0 2.50806e-08 0 2.63904e-08)
(2.8019e-08 4.66983e-09 0 2.52915e-08 0 2.64927e-08)
(2.77592e-08 4.57259e-09 0 2.58075e-08 0 2.67767e-08)
(2.8235e-08 4.4388e-09 0 2.58315e-08 0 2.73352e-08)
(2.85625e-08 5.08542e-09 0 2.61324e-08 0 2.76339e-08)
(2.90582e-08 4.9101e-09 0 2.67266e-08 0 2.78234e-08)
(2.90182e-08 4.95696e-09 0 2.77862e-08 0 2.87842e-08)
(3.15618e-08 4.48564e-09 0 2.78324e-08 0 3.00475e-08)
(2.7481e-08 4.63239e-09 0 2.48457e-08 0 2.61743e-08)
(2.73246e-08 4.33575e-09 0 2.50537e-08 0 2.62222e-08)
(2.70234e-08 4.25436e-09 0 2.54377e-08 0 2.62441e-08)
(2.70252e-08 4.17509e-09 0 2.58434e-08 0 2.62449e-08)
(2.70406e-08 4.06942e-09 0 2.59181e-08 0 2.6429e-08)
(2.74848e-08 3.97516e-09 0 2.60496e-08 0 2.65551e-08)
(2.73644e-08 3.87792e-09 0 2.65061e-08 0 2.66605e-08)
(2.79443e-08 4.51751e-09 0 2.6911e-08 0 2.72843e-08)
(2.70962e-08 4.32791e-09 0 2.49538e-08 0 2.59698e-08)
(2.69878e-08 4.17484e-09 0 2.5126e-08 0 2.59511e-08)
(2.67806e-08 4.01807e-09 0 2.52534e-08 0 2.59626e-08)
(2.67063e-08 3.97936e-09 0 2.54172e-08 0 2.60531e-08)
(2.67369e-08 4.16055e-09 0 2.54694e-08 0 2.60976e-08)
(2.71304e-08 4.00667e-09 0 2.53289e-08 0 2.62114e-08)
(2.66997e-08 3.65372e-09 0 2.55437e-08 0 2.6245e-08)
(2.67977e-08 3.73315e-09 0 2.61297e-08 0 2.63288e-08)
(2.68355e-08 4.15481e-09 0 2.50611e-08 0 2.59301e-08)
(2.67841e-08 3.92725e-09 0 2.50727e-08 0 2.59105e-08)
(2.66015e-08 3.77077e-09 0 2.51755e-08 0 2.58739e-08)
(2.65364e-08 3.70526e-09 0 2.53614e-08 0 2.5891e-08)
(2.65523e-08 3.67939e-09 0 2.52998e-08 0 2.59089e-08)
(2.66466e-08 3.54539e-09 0 2.53439e-08 0 2.59446e-08)
(2.63163e-08 3.27528e-09 0 2.54828e-08 0 2.58743e-08)
(2.63067e-08 3.2596e-09 0 2.57535e-08 0 2.60012e-08)
(2.66731e-08 3.89732e-09 0 2.51962e-08 0 2.588e-08)
(2.66788e-08 3.71052e-09 0 2.51183e-08 0 2.58573e-08)
(2.65363e-08 3.54248e-09 0 2.51843e-08 0 2.58291e-08)
(2.64772e-08 3.50625e-09 0 2.52846e-08 0 2.58524e-08)
(2.64643e-08 3.49553e-09 0 2.52601e-08 0 2.58539e-08)
(2.64662e-08 3.26169e-09 0 2.53971e-08 0 2.58762e-08)
(2.61096e-08 2.97584e-09 0 2.54651e-08 0 2.57902e-08)
(2.58901e-08 2.81181e-09 0 2.58719e-08 0 2.58216e-08)
(2.65773e-08 3.75459e-09 0 2.52377e-08 0 2.58761e-08)
(2.65935e-08 3.5359e-09 0 2.52035e-08 0 2.58566e-08)
(2.64939e-08 3.3848e-09 0 2.52162e-08 0 2.58242e-08)
(2.64382e-08 3.33063e-09 0 2.53195e-08 0 2.58417e-08)
(2.64208e-08 3.1652e-09 0 2.53095e-08 0 2.58357e-08)
(2.63461e-08 2.96779e-09 0 2.54132e-08 0 2.58355e-08)
(2.59916e-08 2.73115e-09 0 2.55099e-08 0 2.57536e-08)
(2.57628e-08 2.5023e-09 0 2.58858e-08 0 2.57831e-08)
(2.6526e-08 3.4614e-09 0 2.54994e-08 0 2.59468e-08)
(2.65108e-08 3.23943e-09 0 2.5384e-08 0 2.58972e-08)
(2.64418e-08 3.05034e-09 0 2.53033e-08 0 2.58436e-08)
(2.63899e-08 2.96398e-09 0 2.53942e-08 0 2.58537e-08)
(2.63657e-08 2.94316e-09 0 2.53481e-08 0 2.58373e-08)
(2.62345e-08 2.71008e-09 0 2.55047e-08 0 2.58315e-08)
(2.58486e-08 2.35622e-09 0 2.56762e-08 0 2.57577e-08)
(2.56935e-08 2.26189e-09 0 2.59285e-08 0 2.57758e-08)
(2.64123e-08 3.33825e-09 0 2.57868e-08 0 2.60459e-08)
(2.63792e-08 3.14076e-09 0 2.56874e-08 0 2.60041e-08)