/*--------------------------------*- C++ -*----------------------------------*\
| =========                 |                                                 |
| \\      /  F ield         | OpenFOAM: The Open Source CFD Toolbox           |
|  \\    /   O peration     | Version:  v1912                                 |
|   \\  /    A nd           | Website:  www.openfoam.com                      |
|    \\/     M anipulation  |                                                 |
\*---------------------------------------------------------------------------*/
FoamFile
{
    version     2.0;
    format      ascii;
    class       volSymmTensorField;
    location    "20";
    object      R;
}
// * * * * * * * * * * * * * * * * * * * * * * * * * * * * * * * * * * * * * //

dimensions      [0 2 -2 0 0 0 0];


internalField   nonuniform List<symmTensor> 
14268
(
(8.58773e-09 1.21801e-10 0 7.48477e-09 0 8.04185e-09)
(9.00409e-09 1.78692e-10 0 7.24633e-09 0 8.12145e-09)
(8.7224e-09 2.22025e-10 0 6.20467e-09 0 7.45468e-09)
(6.92673e-09 2.02879e-10 0 4.15308e-09 0 5.52948e-09)
(6.09397e-09 9.77015e-11 0 4.21125e-09 0 5.14576e-09)
(1.02393e-08 -1.71738e-10 0 1.05477e-08 0 1.03972e-08)
(2.0737e-08 -1.18242e-09 0 3.29654e-08 0 2.68519e-08)
(3.11341e-08 -3.14498e-09 0 8.28204e-08 0 5.6288e-08)
(1.17766e-07 2.83994e-08 0 2.82785e-07 0 1.99508e-07)
(6.23006e-06 4.24926e-06 0 9.97874e-06 0 7.94042e-06)
(7.0673e-06 4.19571e-06 0 8.73979e-06 0 7.75726e-06)
(3.5037e-06 1.76292e-06 0 3.35332e-06 0 3.38701e-06)
(1.12639e-06 1.07347e-07 0 7.86128e-07 0 8.2678e-07)
(1.31121e-05 -6.17001e-07 0 1.57068e-05 0 1.02669e-05)
(6.54087e-05 -2.72902e-06 0 0.000116259 0 5.56974e-05)
(0.0001921 1.13292e-05 0 0.000439101 0 0.000169316)
(0.000363867 4.86479e-05 0 0.00101973 0 0.000319576)
(0.000519774 8.004e-05 0 0.00158814 0 0.000446892)
(0.000641012 7.26158e-05 0 0.00180069 0 0.000546845)
(0.000741164 5.15569e-05 0 0.00184622 0 0.00062857)
(0.00090284 4.43619e-05 0 0.00209403 0 0.000776378)
(0.00110795 2.81035e-05 0 0.00233889 0 0.000963856)
(0.00138159 -1.42015e-05 0 0.00266976 0 0.00123092)
(0.00174499 -4.57496e-05 0 0.00313287 0 0.00160061)
(0.00210153 -5.18171e-05 0 0.00350838 0 0.0019412)
(0.00240434 -3.1765e-05 0 0.00393152 0 0.00221046)
(0.00276632 -1.30442e-05 0 0.00435514 0 0.00249898)
(0.00321864 -0.000187459 0 0.00471574 0 0.00288453)
(0.00366273 -0.000411381 0 0.0052897 0 0.00332852)
(0.00390136 -0.000529645 0 0.00565445 0 0.00355431)
(0.00339128 -0.000366402 0 0.00477986 0 0.00300957)
(0.00331912 -0.000384656 0 0.00378402 0 0.00283495)
(0.00519134 -0.000772899 0 0.00464289 0 0.00450496)
(0.00741802 -0.00135059 0 0.00697625 0 0.00663864)
(0.00800909 -0.00167643 0 0.00760584 0 0.00712927)
(0.00580627 -0.000952502 0 0.00650458 0 0.00501822)
(0.00430244 -0.000565539 0 0.00511064 0 0.00361371)
(0.00451658 -0.00063564 0 0.00550115 0 0.00378981)
(0.00576073 -0.000910429 0 0.00762236 0 0.00504877)
(0.00569871 -0.000969154 0 0.00808536 0 0.00512246)
(0.00505558 -0.00074899 0 0.00772376 0 0.00458982)
(0.00496135 -0.00070857 0 0.00719118 0 0.00447059)
(0.00568241 -0.000960038 0 0.00785872 0 0.00521238)
(0.00589729 -0.00100435 0 0.00786683 0 0.00546195)
(0.00559081 -0.00092647 0 0.00689126 0 0.00506263)
(0.0058447 -0.00103758 0 0.00641993 0 0.00515341)
(0.00706762 -0.00132176 0 0.00694783 0 0.00607853)
(0.00724247 -0.00131824 0 0.0069961 0 0.0061156)
(0.00605555 -0.00107606 0 0.00710364 0 0.00512101)
(0.00411017 -0.000456048 0 0.00701365 0 0.00376375)
(0.00340384 -0.000153999 0 0.00751458 0 0.00330018)
(0.00340331 2.23829e-05 0 0.00942856 0 0.00346421)
(0.00431178 -3.25215e-05 0 0.0125046 0 0.00437598)
(0.00717733 -0.000773021 0 0.0180417 0 0.00688489)
(0.0122531 -0.00184059 0 0.024976 0 0.0112965)
(0.0155451 -0.00185037 0 0.0306105 0 0.0142934)
(0.0173141 -0.00132637 0 0.0362385 0 0.0160915)
(0.018899 -0.000806993 0 0.0417495 0 0.017792)
(0.0200581 5.63453e-05 0 0.0452237 0 0.0191923)
(0.0210723 0.00130823 0 0.0577768 0 0.0205159)
(0.027256 -0.000672115 0 0.0929743 0 0.0285419)
(0.0398413 0.00313929 0 0.118261 0 0.0399901)
(0.0294224 0.00959049 0 0.069033 0 0.0270195)
(0.0157007 0.00487085 0 0.0537336 0 0.0150984)
(0.0228898 0.00541717 0 0.0639797 0 0.0227348)
(0.0148796 0.00372936 0 0.0303527 0 0.014167)
(0.00922571 0.000975796 0 0.0100615 0 0.00799185)
(0.00974803 -0.000556235 0 1e-15 0 0.00770131)
(0.0190169 -0.00217193 0 1e-15 0 0.0150902)
(0.0276924 -0.00334909 0 1e-15 0 0.0218485)
(0.0311808 -0.00395187 0 1e-15 0 0.0251407)
(0.042047 -0.00624017 0 1e-15 0 0.0330865)
(0.059249 -0.00890145 0 1e-15 0 0.0440326)
(0.0845269 -0.0203858 0 1e-15 0 0.059323)
(0.0854658 -0.0333188 0 0.0386224 0 0.063955)
(0.094471 -0.0412015 0 0.0700207 0 0.0770761)
(0.11301 -0.0473057 0 0.0569163 0 0.0869853)
(0.116279 -0.0363855 0 0.0276218 0 0.0843349)
(0.103334 -0.0211633 0 0.0168307 0 0.075075)
(0.133793 -0.0136094 0 0.0586462 0 0.0978669)
(0.180248 0.00378223 0 0.159557 0 0.131685)
(0.135079 -0.0148585 0 0.227486 0 0.104814)
(0.0468882 -0.014312 0 0.13695 0 0.0419531)
(0.0231171 -0.00295035 0 0.0257868 0 0.0180133)
(0.230808 -0.0310143 0 0.103718 0 0.175912)
(0.256834 -0.0407662 0 0.132868 0 0.196015)
(0.126599 -0.0025103 0 0.0972125 0 0.0973973)
(0.0875481 0.0493745 0 0.147387 0 0.0729401)
(0.0583422 0.0154316 0 0.159278 0 0.0535045)
(0.0762961 0.0116439 0 0.259558 0 0.0732133)
(0.0825484 0.0637859 0 0.198169 0 0.0791094)
(0.0554602 -0.00146375 0 0.18135 0 0.0521424)
(0.0636242 -0.0201103 0 0.206572 0 0.0586623)
(0.0769644 -0.0366631 0 0.200253 0 0.0669445)
(0.103623 -0.0514635 0 0.220213 0 0.0893236)
(0.129446 -0.0633035 0 0.265138 0 0.11597)
(0.143835 -0.0668777 0 0.333724 0 0.130297)
(0.130685 -0.0522147 0 0.344233 0 0.117703)
(0.0897806 -0.0215743 0 0.273644 0 0.0850524)
(0.0873817 -0.0231627 0 0.252814 0 0.0843335)
(0.0883801 -0.0177057 0 0.229691 0 0.0873282)
(0.0716211 0.0181138 0 0.173774 0 0.0707401)
(0.0677704 0.0221869 0 0.131356 0 0.0610981)
(0.057217 -0.0011002 0 0.114781 0 0.0508466)
(7.3279e-08 1.12252e-09 0 6.23532e-08 0 6.7901e-08)
(7.02738e-08 1.79027e-09 0 5.58212e-08 0 6.30328e-08)
(6.20927e-08 2.20682e-09 0 4.30282e-08 0 5.2519e-08)
(4.65759e-08 1.99265e-09 0 2.61034e-08 0 3.61012e-08)
(4.75132e-08 1.24463e-09 0 2.9403e-08 0 3.82774e-08)
(6.98728e-08 -4.23058e-10 0 6.62592e-08 0 6.81029e-08)
(8.17733e-08 -4.38677e-09 0 1.3534e-07 0 1.08516e-07)
(9.10836e-08 -1.14081e-08 0 3.01592e-07 0 1.94209e-07)
(1.45884e-06 7.71468e-07 0 2.03181e-06 0 1.71887e-06)
(3.62344e-05 2.78326e-05 0 5.76324e-05 0 4.54514e-05)
(6.08871e-05 3.5817e-05 0 5.63428e-05 0 5.6971e-05)
(3.21839e-05 1.63465e-05 0 2.35683e-05 0 2.71397e-05)
(5.56352e-06 1.56488e-06 0 4.2097e-06 0 3.91992e-06)
(3.74562e-05 -4.26652e-07 0 6.29641e-05 0 2.44982e-05)
(0.000190608 8.99242e-06 0 0.000484974 0 0.000146993)
(0.000526832 9.66123e-05 0 0.00194983 0 0.000424852)
(0.000904378 0.000204076 0 0.00459331 0 0.000714954)
(0.00123543 0.000244941 0 0.00748937 0 0.000935442)
(0.00158166 0.000255305 0 0.00871638 0 0.00118169)
(0.00191314 0.000203853 0 0.00884255 0 0.00141854)
(0.00240827 0.000168945 0 0.00979865 0 0.00185213)
(0.0030543 0.000123388 0 0.0105519 0 0.00243196)
(0.0038926 -5.34412e-05 0 0.0109084 0 0.00322973)
(0.00500628 -0.000274934 0 0.0116596 0 0.00431008)
(0.00617884 -0.000453837 0 0.0123412 0 0.00534459)
(0.00715955 -0.000595616 0 0.013548 0 0.00612797)
(0.0083564 -0.000869983 0 0.0147764 0 0.00697285)
(0.0099518 -0.00164151 0 0.0156305 0 0.00823368)
(0.0113349 -0.00244812 0 0.0169618 0 0.00952463)
(0.0121056 -0.00290558 0 0.0178643 0 0.0101399)
(0.0109622 -0.0022381 0 0.0160936 0 0.00889398)
(0.0111233 -0.00188914 0 0.0129917 0 0.00869914)
(0.0176419 -0.00325785 0 0.0142015 0 0.0141038)
(0.0240055 -0.00578302 0 0.0204182 0 0.0201812)
(0.0260286 -0.00723671 0 0.0221209 0 0.0215705)
(0.0187715 -0.00403897 0 0.0202351 0 0.0149648)
(0.0141272 -0.00231705 0 0.017857 0 0.010831)
(0.0145398 -0.00243632 0 0.0191805 0 0.0111387)
(0.0176648 -0.00366202 0 0.0245809 0 0.0142988)
(0.0169922 -0.0040347 0 0.0257054 0 0.0141609)
(0.0148639 -0.00326433 0 0.0249957 0 0.0125684)
(0.0148209 -0.00311827 0 0.0236713 0 0.0124347)
(0.0169652 -0.00419266 0 0.0236965 0 0.0145506)
(0.0177048 -0.00455906 0 0.0226832 0 0.015314)
(0.0174278 -0.00426878 0 0.0204561 0 0.0146896)
(0.0189841 -0.00470877 0 0.0190977 0 0.0155127)
(0.0240532 -0.00613354 0 0.0207258 0 0.0190398)
(0.0253589 -0.00634093 0 0.0208741 0 0.0195039)
(0.0206994 -0.00525209 0 0.0207633 0 0.0156864)
(0.0122721 -0.00307684 0 0.0199288 0 0.0100181)
(0.00883677 -0.00197762 0 0.0217481 0 0.00783431)
(0.00779818 -0.00139239 0 0.026882 0 0.00745172)
(0.00976858 -0.00243694 0 0.0355265 0 0.00919607)
(0.019019 -0.00649981 0 0.0487951 0 0.016123)
(0.0327069 -0.0103519 0 0.062946 0 0.0267614)
(0.0393361 -0.0106961 0 0.0732459 0 0.0322707)
(0.0404426 -0.00921267 0 0.0815236 0 0.0337444)
(0.0407491 -0.00735533 0 0.0868168 0 0.0347424)
(0.0409058 -0.00471113 0 0.0885832 0 0.0357078)
(0.0373059 -0.00302453 0 0.110422 0 0.0334733)
(0.0370809 -0.00320291 0 0.150134 0 0.0383856)
(0.0779132 -0.00360129 0 0.383934 0 0.0744422)
(0.0715492 0.0346566 0 0.29067 0 0.058711)
(0.0255668 0.011376 0 0.139681 0 0.0224627)
(0.0441529 0.00466099 0 0.190328 0 0.04109)
(0.034596 0.00342227 0 0.0613076 0 0.0292424)
(0.0359499 -0.00709544 0 0.033816 0 0.0280243)
(0.0582378 -0.00631283 0 1e-15 0 0.0428171)
(0.151203 -0.0218537 0 1e-15 0 0.10908)
(0.357063 -0.0435733 0 1e-15 0 0.254578)
(0.458385 -0.0422942 0 1e-15 0 0.352251)
(0.630733 -0.0820546 0 1e-15 0 0.483971)
(0.855397 -0.120664 0 1e-15 0 0.598415)
(1.17431 -0.290222 0 0.0450824 0 0.740846)
(0.704507 -0.32243 0 0.423247 0 0.448726)
(0.514004 -0.285192 0 0.586284 0 0.386043)
(0.71426 -0.378108 0 0.720434 0 0.511167)
(1.05469 -0.3783 0 0.565241 0 0.680492)
(1.09459 -0.25191 0 0.210683 0 0.700244)
(1.56548 -0.493866 0 0.285883 0 0.942425)
(2.11552 -1.00914 0 1.14824 0 1.14529)
(1.31681 -1.05923 0 1.69969 0 0.656502)
(0.136874 -0.276316 0 1.24687 0 0.081754)
(0.108105 0.0098354 0 0.062833 0 0.0706894)
(1.09009 -0.158433 0 0.301811 0 0.734851)
(1.08301 -0.199245 0 0.394642 0 0.72924)
(0.43379 -0.00707748 0 0.298009 0 0.293515)
(0.279464 0.180661 0 0.589697 0 0.207932)
(0.11423 0.050978 0 0.616317 0 0.0934526)
(0.11955 0.0243542 0 0.666895 0 0.103151)
(0.222188 0.179945 0 0.797324 0 0.182847)
(0.0780766 -0.00405269 0 0.670791 0 0.0768284)
(0.0876476 -0.040402 0 0.563918 0 0.0809228)
(0.111515 -0.072352 0 0.492516 0 0.0929981)
(0.15813 -0.101039 0 0.444492 0 0.128384)
(0.205728 -0.127217 0 0.512286 0 0.174668)
(0.263926 -0.174958 0 0.879514 0 0.222729)
(0.283545 -0.216095 0 1.15367 0 0.221579)
(0.189139 -0.139685 0 1.06966 0 0.158226)
(0.194439 -0.143884 0 1.0011 0 0.173442)
(0.177336 -0.0755711 0 0.736776 0 0.169661)
(0.137466 0.0358445 0 0.464166 0 0.128836)
(0.149753 0.0659865 0 0.36363 0 0.124139)
(0.106698 0.00519182 0 0.25719 0 0.0902906)
(1.31068e-07 -1.56923e-10 0 1.09895e-07 0 1.20514e-07)
(1.31053e-07 1.21961e-09 0 1.02543e-07 0 1.16695e-07)
(1.28426e-07 2.89183e-09 0 8.6051e-08 0 1.07034e-07)
(1.13056e-07 4.87506e-09 0 5.77084e-08 0 8.53389e-08)
(1.17318e-07 5.2182e-09 0 6.5836e-08 0 9.1635e-08)
(1.22425e-07 2.90291e-09 0 1.11796e-07 0 1.17266e-07)
(1.0711e-07 -4.08847e-09 0 1.8817e-07 0 1.47287e-07)
(2.2796e-07 6.56264e-08 0 5.47455e-07 0 3.81773e-07)
(9.59775e-06 5.22916e-06 0 8.80728e-06 0 9.04263e-06)
(9.00078e-05 6.5899e-05 0 0.000114888 0 9.9369e-05)
(0.000201784 0.00010388 0 0.000140251 0 0.000166244)
(0.000105989 4.78816e-05 0 5.94237e-05 0 8.09322e-05)
(1.49528e-05 4.78988e-06 0 9.36704e-06 0 1.02113e-05)
(6.00801e-05 2.15225e-06 0 0.000111415 0 3.62875e-05)
(0.000282182 2.26989e-05 0 0.00082164 0 0.000208209)
(0.000732984 0.000137655 0 0.00320979 0 0.000569727)
(0.0011917 0.000212219 0 0.00687503 0 0.000907035)
(0.00163521 0.000162356 0 0.0115186 0 0.00118059)
(0.00214916 0.000114049 0 0.0151728 0 0.0015381)
(0.00266175 8.18346e-05 0 0.0160612 0 0.00190079)
(0.0034146 5.02246e-05 0 0.0164762 0 0.00254141)
(0.00436892 -0.000101097 0 0.0162413 0 0.00336546)
(0.00567263 -0.000440463 0 0.0147509 0 0.0045412)
(0.00737639 -0.000824945 0 0.013868 0 0.00610071)
(0.00921565 -0.00115195 0 0.0134847 0 0.00763811)
(0.0109293 -0.00146098 0 0.0140415 0 0.00896679)
(0.013106 -0.00197646 0 0.0153791 0 0.0105171)
(0.0156652 -0.0029909 0 0.0164626 0 0.0124878)
(0.0176471 -0.00404639 0 0.0175783 0 0.0142673)
(0.0187078 -0.00460991 0 0.0181916 0 0.0149818)
(0.0173854 -0.00366269 0 0.0172598 0 0.0134946)
(0.0178775 -0.0030735 0 0.0157692 0 0.0135083)
(0.0275482 -0.00514162 0 0.0182266 0 0.0213829)
(0.0365151 -0.00923217 0 0.0250607 0 0.0296643)
(0.0400118 -0.0113393 0 0.0269823 0 0.031882)
(0.02894 -0.00589149 0 0.0231441 0 0.0222599)
(0.0220869 -0.00315901 0 0.0211878 0 0.0165142)
(0.0229975 -0.00332728 0 0.022798 0 0.0172611)
(0.0266222 -0.00510992 0 0.0261098 0 0.0208413)
(0.0255804 -0.00595549 0 0.0272091 0 0.0205278)
(0.0224319 -0.00498007 0 0.0266494 0 0.0181868)
(0.0224663 -0.0049478 0 0.0253585 0 0.0181002)
(0.0259785 -0.0065734 0 0.0242705 0 0.0214334)
(0.0274535 -0.00732026 0 0.0237338 0 0.0227263)
(0.0270016 -0.00680259 0 0.02147 0 0.0218528)
(0.0290981 -0.00727577 0 0.0207427 0 0.0230354)
(0.0375664 -0.00963329 0 0.0237163 0 0.0288503)
(0.0404669 -0.0100028 0 0.0238836 0 0.0301778)
(0.0333791 -0.00768517 0 0.0206239 0 0.0244716)
(0.0201939 -0.00473067 0 0.0166825 0 0.015563)
(0.0139235 -0.00311156 0 0.0162449 0 0.0115309)
(0.0122617 -0.00266663 0 0.0189541 0 0.0107277)
(0.0158438 -0.00458558 0 0.0255725 0 0.0135394)
(0.034899 -0.0114591 0 0.0384839 0 0.0268699)
(0.0574207 -0.0176614 0 0.0528882 0 0.0433786)
(0.0676416 -0.0191259 0 0.0611118 0 0.0512173)
(0.068663 -0.0177183 0 0.0640279 0 0.0526302)
(0.0686918 -0.0159107 0 0.0626639 0 0.0535262)
(0.0686464 -0.0142116 0 0.0599451 0 0.054291)
(0.0568384 -0.0129304 0 0.0760434 0 0.0456535)
(0.0507349 -0.0108225 0 0.104922 0 0.046542)
(0.0912528 -0.0304746 0 0.417257 0 0.0807046)
(0.0776213 0.00280381 0 0.465923 0 0.0620744)
(0.0272803 -0.000127172 0 0.105849 0 0.0238448)
(0.0584841 -0.0120635 0 0.268657 0 0.0521622)
(0.0611763 -0.00895564 0 0.0216894 0 0.0457972)
(0.0742035 -0.00876426 0 1e-15 0 0.053606)
(0.102861 -0.0129704 0 1e-15 0 0.074249)
(0.255487 -0.0841016 0 1e-15 0 0.181528)
(0.559282 -0.214664 0 0.174968 0 0.405139)
(0.611641 -0.218385 0 0.754864 0 0.510847)
(0.754467 -0.272468 0 1.10025 0 0.638456)
(0.987741 -0.32823 0 1.18015 0 0.733397)
(1.3685 -0.562211 0 1.25448 0 0.862387)
(0.976903 -0.564279 0 1.34368 0 0.592671)
(0.514568 -0.35442 0 1.20816 0 0.396476)
(0.569792 -0.361247 0 1.44852 0 0.461727)
(0.745878 -0.391322 0 1.62379 0 0.531906)
(1.18697 -0.520865 0 1.26579 0 0.755447)
(2.87229 -1.14561 0 1.63643 0 1.66996)
(3.1151 -1.69629 0 2.94255 0 1.66413)
(1.42889 -1.28427 0 3.11644 0 0.665203)
(0.357358 -0.697882 0 2.5289 0 0.161981)
(0.2264 0.0437005 0 0.15946 0 0.14842)
(1.72263 -0.293883 0 0.602113 0 1.13772)
(1.48295 -0.269622 0 0.575036 0 0.977306)
(0.679837 -0.0445364 0 0.450098 0 0.432283)
(0.217314 0.113779 0 0.706369 0 0.160092)
(0.102282 0.00471822 0 0.61563 0 0.0798349)
(0.102004 -0.00390956 0 0.483096 0 0.081976)
(0.0989907 0.0407054 0 0.589497 0 0.0841507)
(0.0583304 -0.0106178 0 0.512777 0 0.0561856)
(0.0778265 -0.0151911 0 0.424436 0 0.0755225)
(0.0884824 -0.0233959 0 0.38023 0 0.0834093)
(0.119691 -0.0369473 0 0.332824 0 0.114573)
(0.161835 -0.0537826 0 0.404526 0 0.160328)
(0.235524 -0.112951 0 0.81782 0 0.215286)
(0.291194 -0.185907 0 1.36018 0 0.2411)
(0.279874 -0.234958 0 1.62381 0 0.228984)
(0.265167 -0.208895 0 1.54107 0 0.233158)
(0.194426 -0.0778748 0 0.894906 0 0.189858)
(0.14076 0.00289991 0 0.396657 0 0.125822)
(0.135395 0.0143536 0 0.229106 0 0.10898)
(0.131157 0.0017531 0 0.168348 0 0.105895)
(1.50911e-07 -1.83855e-09 0 1.25147e-07 0 1.38344e-07)
(1.54199e-07 -7.84743e-10 0 1.19577e-07 0 1.36872e-07)
(1.61272e-07 1.46638e-09 0 1.0631e-07 0 1.33599e-07)
(1.68119e-07 7.28837e-09 0 8.47119e-08 0 1.25313e-07)
(1.66894e-07 8.74015e-09 0 9.27431e-08 0 1.28861e-07)
(1.41335e-07 4.63097e-09 0 1.33854e-07 0 1.37531e-07)
(1.26466e-07 5.09346e-09 0 2.17025e-07 0 1.71313e-07)
(1.01025e-06 5.45474e-07 0 1.53659e-06 0 1.25054e-06)
(3.69241e-05 1.86008e-05 0 2.69196e-05 0 3.13234e-05)
(0.000173709 0.000111201 0 0.000165621 0 0.000164782)
(0.000436997 0.000204133 0 0.000254032 0 0.000336774)
(0.000231649 9.5041e-05 0 0.000112715 0 0.000167519)
(3.05351e-05 9.84302e-06 0 1.63488e-05 0 2.03997e-05)
(7.71333e-05 4.12518e-06 0 0.000135602 0 4.49311e-05)
(0.000349399 4.57774e-05 0 0.000952229 0 0.000249235)
(0.000857454 0.000198863 0 0.00360437 0 0.000639714)
(0.00130253 0.000308859 0 0.00724198 0 0.00094304)
(0.00172513 0.000313793 0 0.011532 0 0.00116874)
(0.00230044 0.000230107 0 0.0159672 0 0.00155338)
(0.002871 9.86651e-05 0 0.0175193 0 0.00194315)
(0.00386252 -2.58616e-05 0 0.0165625 0 0.00275945)
(0.00520729 -0.000237584 0 0.015134 0 0.00388357)
(0.00698289 -0.000648913 0 0.0134743 0 0.00542311)
(0.00931703 -0.00115898 0 0.0123972 0 0.00747603)
(0.0118323 -0.00162332 0 0.0120764 0 0.00952446)
(0.0141819 -0.00205235 0 0.0125752 0 0.0113092)
(0.0170219 -0.00267776 0 0.0138701 0 0.0133161)
(0.0203687 -0.00396993 0 0.0154239 0 0.0158443)
(0.0230041 -0.00536756 0 0.0170955 0 0.0181326)
(0.0246954 -0.00613311 0 0.0177923 0 0.0191834)
(0.0232756 -0.00488984 0 0.0163118 0 0.0175326)
(0.0238965 -0.00427541 0 0.0151891 0 0.0175595)
(0.0363567 -0.00734908 0 0.0194859 0 0.0273432)
(0.0483906 -0.0131619 0 0.0281233 0 0.0378808)
(0.0534982 -0.0156551 0 0.0299028 0 0.0409544)
(0.0383083 -0.00784333 0 0.0230981 0 0.0284546)
(0.0289772 -0.00399651 0 0.0196763 0 0.0211492)
(0.0302631 -0.00435188 0 0.0210592 0 0.0222115)
(0.0347407 -0.00670068 0 0.024707 0 0.0264563)
(0.0333372 -0.00775074 0 0.0253639 0 0.0258848)
(0.0290686 -0.00644644 0 0.0240963 0 0.0227492)
(0.0291556 -0.00654285 0 0.0234038 0 0.0227805)
(0.0339539 -0.00887963 0 0.0241841 0 0.0271399)
(0.0359969 -0.00983412 0 0.0243229 0 0.0287817)
(0.0354755 -0.00908547 0 0.0225059 0 0.027826)
(0.0380102 -0.00971223 0 0.0228042 0 0.0293887)
(0.0502904 -0.0132391 0 0.027194 0 0.037686)
(0.0547508 -0.0136381 0 0.0273217 0 0.0398807)
(0.0457908 -0.0102738 0 0.0226811 0 0.032786)
(0.0280386 -0.00618288 0 0.0165148 0 0.0208523)
(0.0191235 -0.00391951 0 0.014414 0 0.0151467)
(0.0170922 -0.00337327 0 0.0153731 0 0.0141186)
(0.0233763 -0.0059956 0 0.0207487 0 0.0187507)
(0.0530561 -0.0157297 0 0.0346231 0 0.0389283)
(0.0822109 -0.0234088 0 0.0485373 0 0.059545)
(0.0952837 -0.025298 0 0.0556995 0 0.0691197)
(0.0967374 -0.0237797 0 0.057202 0 0.0709195)
(0.0975139 -0.0222021 0 0.0559127 0 0.0724556)
(0.0970049 -0.0198216 0 0.0515774 0 0.0728055)
(0.0729993 -0.0135065 0 0.0505498 0 0.0563582)
(0.0633013 -0.00989187 0 0.0552365 0 0.0529773)
(0.0976063 -0.0313789 0 0.440332 0 0.0819951)
(0.0658498 -0.00486355 0 0.33012 0 0.0492879)
(0.029958 -0.00236691 0 0.0446094 0 0.0243914)
(0.0627587 -0.00135075 0 0.188362 0 0.0547812)
(0.0984806 -0.010379 0 1e-15 0 0.0701714)
(0.169867 -0.0165297 0 1e-15 0 0.117285)
(0.378897 -0.034926 0 1e-15 0 0.254618)
(1.38359 -0.315932 0 1e-15 0 0.860078)
(1.03579 -0.474144 0 0.616534 0 0.686226)
(0.672511 -0.27605 0 1.20853 0 0.573647)
(0.721215 -0.256461 0 1.55694 0 0.656199)
(0.943826 -0.321745 0 1.78414 0 0.748236)
(1.37038 -0.63899 0 2.02128 0 0.884235)
(1.50216 -0.991643 0 2.24117 0 0.853041)
(0.639195 -0.543701 0 1.79711 0 0.428087)
(0.459238 -0.364843 0 1.75928 0 0.369054)
(0.528322 -0.307513 0 2.09123 0 0.401673)
(0.92743 -0.532906 0 1.94469 0 0.61312)
(2.35731 -1.16287 0 2.29188 0 1.34401)
(1.62492 -1.06542 0 3.04636 0 0.804555)
(0.694842 -0.82296 0 3.00996 0 0.23661)
(0.196938 -0.677416 0 2.53533 0 0.0232182)
(0.304055 0.0787534 0 0.487041 0 0.187755)
(2.28805 -0.433553 0 0.660306 0 1.46564)
(1.91828 -0.374364 0 0.654918 0 1.21298)
(0.917593 -0.0928772 0 0.556863 0 0.560521)
(0.172064 0.0591124 0 0.509479 0 0.117369)
(0.0887663 -0.0131089 0 0.397389 0 0.0628566)
(0.112087 -0.0174506 0 0.255019 0 0.0866596)
(0.0611908 -0.00649759 0 0.325833 0 0.0509012)
(0.0549335 -0.0148163 0 0.287558 0 0.0511165)
(0.0773535 -0.0126213 0 0.223415 0 0.0758716)
(0.0830225 -0.0124625 0 0.194339 0 0.0810469)
(0.115954 -0.0144846 0 0.147384 0 0.116446)
(0.165544 -0.0227355 0 0.229835 0 0.168341)
(0.224178 -0.0747214 0 0.592126 0 0.20648)
(0.26075 -0.123847 0 1.13291 0 0.223038)
(0.249324 -0.186784 0 1.5983 0 0.212248)
(0.242942 -0.184217 0 1.57809 0 0.217567)
(0.201751 -0.0937925 0 1.02155 0 0.19991)
(0.158387 -0.0159829 0 0.37644 0 0.14206)
(0.161193 -0.0111925 0 0.130801 0 0.124892)
(0.189593 -0.0195928 0 0.0729634 0 0.141971)
(1.569e-07 -3.04388e-09 0 1.30352e-07 0 1.43614e-07)
(1.62143e-07 -2.15641e-09 0 1.25377e-07 0 1.43645e-07)
(1.7492e-07 8.87375e-11 0 1.1456e-07 0 1.44424e-07)
(1.96683e-07 7.53601e-09 0 9.54219e-08 0 1.45868e-07)
(1.87677e-07 1.04853e-08 0 1.0429e-07 0 1.46044e-07)
(1.48281e-07 8.01378e-09 0 1.44677e-07 0 1.46781e-07)
(1.8778e-07 4.21274e-08 0 2.92386e-07 0 2.38217e-07)
(4.43771e-06 2.4629e-06 0 4.86108e-06 0 4.55072e-06)
(9.55705e-05 4.48261e-05 0 6.06643e-05 0 7.65106e-05)
(0.000259043 0.000146718 0 0.000203222 0 0.000225023)
(0.000639498 0.000285849 0 0.000353002 0 0.000483352)
(0.000382963 0.000147522 0 0.000168586 0 0.000270105)
(5.32266e-05 1.7101e-05 0 2.34012e-05 0 3.51176e-05)
(9.6683e-05 1.2214e-05 0 0.000147355 0 5.69148e-05)
(0.000426836 9.16808e-05 0 0.000945684 0 0.000301446)
(0.0010076 0.000297694 0 0.0034752 0 0.000740578)
(0.00147615 0.000417006 0 0.00679243 0 0.0010585)
(0.00194082 0.000433306 0 0.0102027 0 0.00130858)
(0.00263107 0.000389897 0 0.0135807 0 0.00178575)
(0.00334811 0.000192515 0 0.0148061 0 0.00228797)
(0.00457067 -2.85462e-05 0 0.0136168 0 0.00326335)
(0.00625512 -0.000266144 0 0.012354 0 0.0046239)
(0.00849518 -0.000780926 0 0.0113886 0 0.0064965)
(0.0113434 -0.00148463 0 0.0111038 0 0.00892675)
(0.014441 -0.00214439 0 0.0115181 0 0.0113911)
(0.0174356 -0.00276507 0 0.0125387 0 0.0136274)
(0.0210209 -0.00362835 0 0.0141914 0 0.0161302)
(0.0251378 -0.00518555 0 0.0161184 0 0.0191717)
(0.0283803 -0.00688731 0 0.0181141 0 0.0219358)
(0.0308214 -0.00789154 0 0.0187089 0 0.0233891)
(0.0294113 -0.00635246 0 0.0167685 0 0.0216331)
(0.0298154 -0.00550326 0 0.0159416 0 0.0215172)
(0.044494 -0.00943278 0 0.0217951 0 0.032751)
(0.0598383 -0.0169612 0 0.0313768 0 0.0455294)
(0.0669599 -0.0198296 0 0.0335814 0 0.0497422)
(0.047579 -0.00977434 0 0.02451 0 0.0344793)
(0.0356205 -0.00476315 0 0.0200389 0 0.0256459)
(0.0371905 -0.00529927 0 0.0215556 0 0.0270297)
(0.0422758 -0.00813663 0 0.0251463 0 0.0316919)
(0.0410916 -0.00949539 0 0.025603 0 0.0311867)
(0.0357194 -0.00793688 0 0.0238796 0 0.0273038)
(0.0356673 -0.00809073 0 0.0234155 0 0.0272968)
(0.0417115 -0.0111256 0 0.0256915 0 0.0326058)
(0.0446712 -0.0124134 0 0.0264865 0 0.0348053)
(0.0439954 -0.0114365 0 0.0245909 0 0.0336649)
(0.0464331 -0.012122 0 0.0252955 0 0.0352605)
(0.0627192 -0.0168441 0 0.0312181 0 0.0461857)
(0.069151 -0.0173893 0 0.0317084 0 0.0495263)
(0.0586021 -0.0130755 0 0.0259974 0 0.0412585)
(0.037007 -0.00810281 0 0.0183937 0 0.0267895)
(0.0259211 -0.00549252 0 0.0150825 0 0.0197032)
(0.0239369 -0.00517865 0 0.0154429 0 0.0187651)
(0.0351494 -0.00928178 0 0.0213163 0 0.0266757)
(0.0767271 -0.0219108 0 0.0380875 0 0.0545089)
(0.111946 -0.0305047 0 0.0525755 0 0.0788702)
(0.127319 -0.0323493 0 0.0595885 0 0.08979)
(0.128737 -0.0306513 0 0.0663733 0 0.0917166)
(0.129607 -0.0292817 0 0.0748899 0 0.0935512)
(0.126735 -0.0247206 0 0.0700825 0 0.0922359)
(0.0954941 -0.0169391 0 0.0524472 0 0.0708363)
(0.088183 -0.0116657 0 0.0207409 0 0.0659806)
(0.106727 -0.0399442 0 0.527507 0 0.0832766)
(0.0778626 -0.00349808 0 0.218084 0 0.0613689)
(0.0457945 -6.38074e-05 0 1e-15 0 0.0349224)
(0.0768446 -0.00458832 0 0.0474233 0 0.0623682)
(0.153946 -0.0181484 0 1e-15 0 0.108953)
(0.405322 -0.0658648 0 1e-15 0 0.272959)
(1.19363 -0.158009 0 1e-15 0 0.770458)
(2.49463 -0.728798 0 0.745317 0 1.50854)
(1.54897 -0.751291 0 1.26337 0 0.957256)
(0.855456 -0.484603 0 1.68429 0 0.668293)
(0.771191 -0.346628 0 1.87421 0 0.688322)
(0.921343 -0.318965 0 2.12455 0 0.754647)
(1.36912 -0.687794 0 2.49764 0 0.903154)
(2.07542 -1.4433 0 3.19579 0 1.14699)
(1.04661 -1.03115 0 2.82126 0 0.564291)
(0.414296 -0.390639 0 2.22954 0 0.310941)
(0.453 -0.260569 0 2.49422 0 0.352191)
(0.76079 -0.445674 0 2.32618 0 0.544162)
(1.46177 -0.820563 0 2.48731 0 0.83291)
(0.880626 -0.581223 0 2.92112 0 0.409091)
(0.383288 -0.502486 0 2.84239 0 0.0971678)
(0.0834366 -0.499966 0 2.45563 0 1e-15)
(0.311125 0.0855029 0 0.974888 0 0.192807)
(2.48218 -0.5937 0 1.05358 0 1.57039)
(2.60942 -0.602142 0 0.909139 0 1.56747)
(1.15588 -0.132598 0 0.442961 0 0.693667)
(0.171976 0.0321683 0 0.278265 0 0.112245)
(0.114901 -0.026462 0 0.23498 0 0.0810722)
(0.137941 -0.0227685 0 0.0656238 0 0.100753)
(0.0679196 -0.00910698 0 0.121008 0 0.056615)
(0.0634015 -0.0032764 0 0.0984422 0 0.0609919)
(0.0788137 -0.00252132 0 0.0578637 0 0.079935)
(0.09495 -0.0121633 0 0.0415443 0 0.0939507)
(0.174498 -0.0433877 0 0.0583542 0 0.164297)
(0.246857 -0.0716482 0 0.187615 0 0.222538)
(0.261629 -0.0878975 0 0.483284 0 0.225742)
(0.274622 -0.105401 0 0.910737 0 0.233425)
(0.223343 -0.11522 0 1.28284 0 0.199637)
(0.230808 -0.14313 0 1.38379 0 0.213951)
(0.210069 -0.11315 0 1.09102 0 0.208723)
(0.187381 -0.039663 0 0.569284 0 0.171024)
(0.202895 -0.0211066 0 0.243785 0 0.157648)
(0.269533 -0.0317384 0 0.16914 0 0.19785)
(1.58618e-07 -3.44775e-09 0 1.30364e-07 0 1.44644e-07)
(1.63712e-07 -2.82898e-09 0 1.27017e-07 0 1.45285e-07)
(1.80665e-07 -9.12051e-10 0 1.16536e-07 0 1.48418e-07)
(2.12021e-07 8.11445e-09 0 1.03351e-07 0 1.56588e-07)
(1.97933e-07 1.20723e-08 0 1.11096e-07 0 1.53903e-07)
(1.56818e-07 1.36562e-08 0 1.5532e-07 0 1.55559e-07)
(4.29948e-07 1.81334e-07 0 5.57318e-07 0 4.87315e-07)
(1.5181e-05 7.8723e-06 0 1.2624e-05 0 1.36007e-05)
(0.000186204 8.42271e-05 0 0.000110325 0 0.000144911)
(0.00030134 0.000161697 0 0.000219632 0 0.000253969)
(0.000721645 0.000316218 0 0.000393143 0 0.00054419)
(0.000519908 0.000190312 0 0.000223678 0 0.000361997)
(8.17303e-05 2.53568e-05 0 3.41211e-05 0 5.35569e-05)
(0.000115845 1.88993e-05 0 0.000145175 0 6.89047e-05)
(0.000497727 0.000120599 0 0.000849848 0 0.00034639)
(0.00112084 0.000364914 0 0.00300599 0 0.000806104)
(0.00157038 0.000506416 0 0.00569196 0 0.00109866)
(0.00201209 0.000529884 0 0.00806899 0 0.00131364)
(0.00276502 0.000530329 0 0.0101128 0 0.00183206)
(0.00366859 0.000316185 0 0.0107947 0 0.00247362)
(0.00516994 3.01628e-05 0 0.00997382 0 0.00364676)
(0.00726087 -0.000282325 0 0.00950051 0 0.00529616)
(0.0099016 -0.000943876 0 0.0096477 0 0.00745495)
(0.0132779 -0.00187596 0 0.0103307 0 0.0102655)
(0.0169523 -0.00276218 0 0.0114021 0 0.0131326)
(0.020558 -0.00359112 0 0.0127416 0 0.0157735)
(0.0247339 -0.0046037 0 0.0144405 0 0.0186432)
(0.029523 -0.00634169 0 0.0165704 0 0.0221154)
(0.0333841 -0.00834423 0 0.0190046 0 0.0253838)
(0.0367565 -0.00961932 0 0.0197859 0 0.0273816)
(0.035523 -0.00783879 0 0.0174968 0 0.0256099)
(0.0355097 -0.00676993 0 0.0164624 0 0.0251981)
(0.0518426 -0.011387 0 0.0227827 0 0.0374236)
(0.0708825 -0.020656 0 0.0336211 0 0.0526418)
(0.0803983 -0.0238 0 0.0359893 0 0.0581498)
(0.0566562 -0.0115914 0 0.0254635 0 0.0401512)
(0.0418258 -0.00550028 0 0.0202446 0 0.0296995)
(0.0435935 -0.00632406 0 0.021736 0 0.0313503)
(0.0494758 -0.00968208 0 0.0259571 0 0.0366173)
(0.0486703 -0.0112042 0 0.0260115 0 0.0362157)
(0.0420731 -0.00937935 0 0.0239737 0 0.031516)
(0.0418294 -0.00961646 0 0.02376 0 0.031456)
(0.049167 -0.01334 0 0.0268929 0 0.0376968)
(0.0530398 -0.0148262 0 0.0279207 0 0.040424)
(0.0521946 -0.013556 0 0.0260603 0 0.0391031)
(0.0542994 -0.0143152 0 0.0273903 0 0.0406335)
(0.074747 -0.0202588 0 0.0348127 0 0.0543027)
(0.0832032 -0.0208998 0 0.0355783 0 0.0588386)
(0.0712432 -0.0157191 0 0.0292502 0 0.0495646)
(0.046167 -0.0099682 0 0.0204324 0 0.0327962)
(0.0332137 -0.00712487 0 0.0164079 0 0.0245314)
(0.0317276 -0.00719973 0 0.0165673 0 0.0239704)
(0.049633 -0.0131794 0 0.0236707 0 0.0362799)
(0.102279 -0.0282724 0 0.0428268 0 0.0712539)
(0.142323 -0.0370509 0 0.0567124 0 0.0984735)
(0.158993 -0.0379767 0 0.062492 0 0.110124)
(0.159333 -0.0349195 0 0.0701655 0 0.111516)
(0.158734 -0.032297 0 0.0793539 0 0.112544)
(0.153787 -0.0253779 0 0.0691844 0 0.109861)
(0.114799 -0.0179274 0 0.0497895 0 0.083751)
(0.103025 -0.00713376 0 0.00754697 0 0.0742894)
(0.105572 -0.0383948 0 0.576133 0 0.0750891)
(0.0893246 -0.0239086 0 0.167349 0 0.0705296)
(0.0674068 -0.00202406 0 1e-15 0 0.0544236)
(0.121698 -0.000787334 0 1e-15 0 0.089783)
(0.265818 -0.0339262 0 1e-15 0 0.184671)
(0.657623 -0.16243 0 1e-15 0 0.447611)
(1.86687 -0.438607 0 0.487713 0 1.20698)
(2.46899 -0.845365 0 1.212 0 1.48546)
(1.61487 -0.85294 0 1.81286 0 0.971193)
(0.99505 -0.689035 0 2.28362 0 0.722947)
(0.919218 -0.601168 0 2.40572 0 0.753103)
(1.02854 -0.542369 0 2.58921 0 0.815779)
(1.60334 -0.95297 0 3.03108 0 1.0539)
(2.37383 -1.71708 0 3.98212 0 1.29759)
(1.04775 -1.19214 0 3.7994 0 0.469613)
(0.367031 -0.533553 0 3.23276 0 0.187871)
(0.401419 -0.260383 0 2.90533 0 0.295273)
(0.65257 -0.346736 0 2.57953 0 0.506492)
(0.878506 -0.500958 0 2.45459 0 0.506661)
(0.567722 -0.36086 0 2.64217 0 0.236378)
(0.239947 -0.354983 0 2.54104 0 0.0266136)
(0.0181925 -0.405859 0 2.26181 0 1e-15)
(0.2463 -0.0409936 0 1.26094 0 0.143474)
(1.74063 -0.445409 0 1.17024 0 1.14579)
(2.84145 -0.781984 0 1.29574 0 1.66825)
(1.72636 -0.245712 0 0.36898 0 1.01522)
(0.188971 0.017174 0 0.0809678 0 0.119778)
(0.166043 -0.0344244 0 0.0970449 0 0.111599)
(0.227161 -0.0446038 0 1e-15 0 0.150107)
(0.0868433 0.000639068 0 1e-15 0 0.0669856)
(0.0776177 -0.00380236 0 1e-15 0 0.0728018)
(0.130916 -0.0189224 0 1e-15 0 0.132347)
(0.214414 -0.0727014 0 0.0641419 0 0.190851)
(0.421255 -0.179826 0 0.52308 0 0.340767)
(0.436733 -0.226726 0 0.807231 0 0.340301)
(0.350919 -0.16271 0 0.669532 0 0.262418)
(0.300624 -0.11021 0 0.723003 0 0.243993)
(0.226311 -0.0628796 0 0.996953 0 0.210212)
(0.219763 -0.101374 0 1.07575 0 0.209866)