/*--------------------------------*- C++ -*----------------------------------*\
| =========                 |                                                 |
| \\      /  F ield         | OpenFOAM: The Open Source CFD Toolbox           |
|  \\    /   O peration     | Version:  v1912                                 |
|   \\  /    A nd           | Website:  www.openfoam.com                      |
|    \\/     M anipulation  |                                                 |
\*---------------------------------------------------------------------------*/
FoamFile
{
    version     2.0;
    format      ascii;
    class       volScalarField;
    location    "10";
    object      p;
}
// * * * * * * * * * * * * * * * * * * * * * * * * * * * * * * * * * * * * * //

dimensions      [1 -1 -2 0 0 0 0];


internalField   nonuniform List<scalar> 
14268
(
223247
234786
244448
251197
253602
253505
247200
227755
193854
148450
97248.5
47139.3
4587.19
-25681.8
-41663.7
-45327.4
-44764.5
-39670.7
-31401.7
-23860.3
-20565.8
-20294
-26818.4
-43741.3
-68963.3
-97981.9
-131154
-151927
-153594
-150309
-135319
-108615
-72373.5
-29520.9
16865.3
64041.4
109925
153276
193394
230359
264373
295675
324261
349741
371308
387832
398119
400957
399560
381092
358632
328990
294669
257735
220631
185670
154958
130112
111920
100549
95567.7
95353.5
96961.9
101586
108757
117649
127345
136925
145656
152931
158633
162402
164383
164809
164671
163638
161652
158903
155636
152151
148694
145505
142766
140535
138872
137425
136315
135826
135314
134650
133721
132561
131339
130349
129900
130135
131663
135139
140775
148598
158398
169709
181965
194261
205835
215881
223784
228977
231482
230531
227257
221454
213733
204572
194512
184047
173608
163552
154176
145684
138242
131973
126975
123312
121039
120105
120665
122055
125224
129033
133761
138999
144580
150243
155765
160950
165624
169669
172991
175566
177379
178480
178917
178805
178168
177238
176065
174635
173162
171265
169585
167815
166092
164411
162803
161304
159954
158787
157841
157150
156712
156528
156565
156809
201943
209693
215053
217594
217733
216593
210426
195270
169792
135815
97429.2
59714.4
27379.8
3713.33
-10196.1
-16071
-17552.5
-17265
-15569.3
-13648.4
-13143.3
-13999.3
-19471.5
-31547.4
-49262.6
-69484.1
-93226.6
-106197
-105775
-101160
-87875.7
-65981.4
-36892.3
-2652.97
34535.5
72669.8
110175
145952
179672
210843
239531
265737
289321
309916
326912
339527
346984
348611
347236
331627
313587
290133
263238
234414
205468
178191
153840
134068
119310
109701
104871
103848
104265
106601
111144
117348
124502
131913
138917
144973
149740
152890
154562
154966
154928
154264
152829
150767
148252
145543
142833
140286
138031
136099
134553
133067
131829
131207
130638
130068
129433
128784
128259
128089
128326
129166
131095
134519
139590
146305
154482
163753
173641
183496
192699
200631
206828
210834
212715
211726
208923
204038
197569
189884
181420
172581
163731
155177
147196
139953
133622
128313
124116
121084
119262
118589
119205
120496
123336
126680
130804
135343
140165
145050
149811
154282
158314
161809
164687
166921
168495
169450
169823
169711
169138
168271
167208
165894
164530
162758
161184
159522
157908
156340
154849
153473
152247
151200
150370
149770
149407
149274
149338
149588
182130
186386
188728
189231
189009
187078
181320
169470
150480
125339
96812.4
68515.3
43783.2
24822.3
12315.5
5154.03
1183.58
-1038.8
-2335.13
-3613.13
-5639.91
-8301.65
-13079.7
-21552.1
-33632.2
-47746.7
-64494.2
-72507.5
-71414.3
-66500.5
-55414.2
-37749.2
-14308.9
13523.5
44157.7
76069.7
107989
138995
168482
196107
221659
244996
265901
284020
298841
309747
316154
317584
316547
302898
287379
267219
244079
219201
194091
170231
148840
131256
117939
109030
104229
102690
102862
104288
107782
112940
119147
125727
132038
137542
141922
144850
146413
146817
146802
146258
145001
143160
140898
138454
135990
133657
131570
129754
128270
126807
125557
124927
124372
123853
123318
122813
122459
122449
122768
123732
125720
129069
133917
140257
147922
156567
165798
174943
183471
190808
196526
200203
201902
200914
198235
193604
187483
180214
172206
163837
155450
147339
139763
132895
126892
121864
117897
115043
113344
112744
113368
114649
117391
120620
124589
128953
133587
138279
142851
147146
151021
154381
157141
159285
160791
161700
162047
161920
161353
160490
159440
158147
156799
155061
153506
151869
150276
148730
147261
145906
144702
143676
142864
142288
141943
141826
141904
142164
163322
164912
165310
165185
164299
161784
156607
147577
134014
116333
96145.5
76146.3
58193.2
43580.9
32554.2
24413
18100.1
12862.7
8402.92
4454.82
754.795
-2815.5
-7177.69
-13384.8
-21661.7
-31138.4
-42394.6
-46690.8
-45002.8
-39877.2
-30093.7
-15348
3907.64
26755.6
52070.1
78719.1
105704
132238
157792
181876
204201
224527
242584
258036
270467
279424
284506
285468
284416
272600
259480
242631
223394
202746
181873
161953
143879
128981
117519
109613
105016
103106
102928
103556
105804
109623
114540
119982
125353
130144
134011
136596
137979
138365
138359
137973
136977
135471
133588
131549
129479
127493
125681
124055
122673
121241
119969
119320
118783
118353
118000
117771
117778
118023
118665
119927
122074
125345
129835
135522
142255
149732
157653
165415
172595
178718
183438
186408
187695
186669
184211
180078
174660
168243
161175
153784
146371
139195
132501
126436
121154
116755
113317
110885
109491
109080
109752
111014
113552
116509
120109
124044
128204
132406
136491
140325
143777
146773
149226
151128
152456
153246
153528
153378
152837
151995
151000
149777
148491
146843
145354
143793
142274
140805
139417
138145
137025
136082
135349
134838
134553
134480
134585
134859
146633
146926
146821
146396
145145
142629
138289
131458
121653
108800
93984.1
79280.3
65642.9
53827.2
44009.7
35823.6
28680.2
22170.1
16191.1
10790.6
6052.52
1979.63
-1983.1
-6580.08
-12147.3
-18310.7
-25280.6
-27049.9
-24832.2
-19663.3
-10991.9
1435.64
17395
36303.4
57382.2
79798.5
102769
125618
147904
169022
188650
206486
222234
235575
246168
253674
257822
258501
257468
247221
235996
221719
205470
188033
170355
153405
137727
124870
114827
107717
103344
101238
100775
101074
102514
105403
109404
114020
118694
122927
126472
128796
130039
130400
130390
130088
129252
127958
126309
124542
122735
120986
119367
117883
116588
115207
113944
113306
112802
112442
112205
112128
112282
112648
113440
114826
117010
120175
124395
129638
135769
142518
149657
156582
162955
168356
172486
175040
176078
175035
172702
168859
163852
157937
151429
144625
137800
131193
125030
119456
114611
110589
107466
105283
104066
103765
104462
105727
108144
110959
114361
118070
121981
125925
129756
133349
136579
139386
141671
143439
144664
145380
145616
145439
144895
144056
143072
141875
140609
139008
137545
136019
134531
133094
131736
130495
129407
128495
127795
127320
127062
127016
127146
127439
133636
133551
133348
132725
131372
129004
125293
119860
112383
102169
90989.5
79879.2
69307.8
59674.8
51059.9
43236.9
35859.1
28712.1
21856.7
15581.4
10239.1
5978.32
2438.38
-964.299
-4594.08
-8343.87
-12123.3
-12135.9
-9327.94
-4184.86
3579.52
14177
27524.7
43274.1
60904.1
79814.3
99397.1
119073
138509
156996
174209
189813
203497
214962
223931
230156
233470
233867
232800
223891
214270
202192
188513
173859
158975
144646
131042
120062
111355
105039
100960
98771.6
98019.9
98192.2
98989.9
101062
104226
108076
112096
115818
119040
121127
122223
122545
122530
122291
121597
120497
119063
117560
116014
114504
113083
111751
110554
109237
107992
107375
106911
106629
106516
106605
106852
107387
108349
109868
112091
115147
119080
123850
129333
135269
141582
147582
153055
157641
161092
163156
163885
162806
160590
157058
152507
147162
141296
135173
129037
123104
117582
112604
108297
104747
102023
100161
99180
99032.8
99776.9
101055
103336
105978
109131
112548
116134
119736
123225
126489
129413
131959
134005
135583
136661
137270
137437
137223
136674
135842
134876
133720
132488
130954
129534
128062
126625
125242
123940
122756
121727
120873
120230
119804
119600
119596
119759
120075
122798
122659
122354
121627
120267
118089
114891
110445
104528
96156
87369.1
78764.6
70428.5
62513.8
55012.7
47747.2
40481.4
33105.6
25795.2
19026.9
13376.4
9140.15
6057.61
3596.97
1376.78
-635.221
-2205.09
-937.209
2511.88
7575.99
14556.4
23657.3
34890.4
48071.7
62871.1
78868.2
95597.5
112563
129529
145715
160807
174453
186338
196185
203768
208913
211530
211689
210586
202813
194535
184289
172749
160414
147864
135730
123829
114466
106933
101350
97594.8
95414.7
94486.4
94487.9
94929.2
96365.2
98845.7
102057
105520
108809
111691
113634
114595
114875
114854
114652
114060
113072
111839
110554
109227
107920
106672
105476
104375
103127
101915
101327
100903
100687
100669
100837
101168
101817
102888
104480
106699
109635
113308
117677
122624
127940
133561
138822
143577
147513
150423
152095
152571
151459
149326
146034
141838
136940
131583
126006
120425
115038
110035
105542
101670
98503.3
96101.7
94498
93706.8
93684.8
94468.9
95767.8
97945.1
100462
103431
106635
109981
113334
116570
119593
122289
124637
126505
127936
128896
129416
129522
129267
128702
127868
126902
125768
124553
123065
121671
120235
118829
117477
116206
115053
114056
113236
112629
112246
112075
112106
112303
112648
113272
113112
112743
111972
110654
108666
105879
102128
97014.2
90206.9
83215.4
76450.7
69809.4
63288
56803.8
50179.2
43216.1
35851
28337.7
21311.4
15550.2
11487.2
8893.08
7209.39
6025.65
5233.47
5026.03
7326.05
11443.7
16386.2
22674.5
30528.3
40024.9
51095.4
63550.3
77108.9
91421.8
106060
120876
135037
148255
160172
170473
178905
185283
189494
191509
191456
190306
183490
176340
167633
157896
147522
136957
126709
116311
108302
101827
96936.6
93532.5
91429.2
90395.1
90224.3
90483.8
91418.9
93323.3
95986.6
98961.7
101934
104459
106208
107088
107322
107294
107113
106594
105704
104637
103545
102416
101295
100209
99146.6
98142.6
96970.6
95800.4
95245.9
94863.5
94707.2
94773.6
94976.3
95389.6
96137.3
97297.2
98941.5
101142
103953
107376
111366
115809
120570
125539
130106
134184
137504
139894
141183
141402
140246
138175
135094
131225
126747
121878
116828
111790
106943
102457
98454
95027.1
92253.1
90186.6
88855.4
88268
88385.1
89222.6
90550.1
92634.8
95032.4
97821
100810
103912
107005
109977
112743
115194
117339
119003
120270
121097
121514
121546
121243
120654
119813
118846
117734
116536
115098
113733
112337
110968
109655
108422
107308
106352
105574
105012
104672
104551
104627
104863
105242
104528
104352
103949
103170
101914
100100
97633.5
94375.7
89719.1
84214.7
78616.5
73255
67940
62571.9
57009.4
51052.6
44500.5
37295.1
29736.7
22600.3
16858.6
13073.5
10992.4
9968.43
9547.26
9583
10116.8
13150.6
18032.8
22811.5
28475.9
35271.8
43323.6
52642
63140.6
74648.2
86912.7
99559.8
112490
124866
136429
146820
155728
162921
168252
171655
173150
172909
171705
165690
159487
152071
143848
135127
126248
117604
108690
101672
96145.4
91903.3
88864
86887.7
85808.5
85472.5
85656.7
86220.9
87649.6
89851.4
92403.4
95125
97305.4
98837.8
99651.5
99855.4
99819.7
99646.9
99148.2
98374.9
97450.9
96528.3
95572.8
94617.3
93679.9
92743.3
91835.9
90740.9
89622
89102.6
88757.8
88649.8
88765.3
88996.1
89471.5
90290.2
91510.4
93180.4
95343.2
98025.9
101215
104865
108860
113149
117553
121512
125002
127782
129715
130661
130645
129441
127410
124502
120908
116792
112346
107760
103205
98839.8
94819.8
91257.3
88231.8
85813.6
84051
82967.9
82567.7
82814.7
83707.4
85065.8
87078.5
89380.4
92019.5
94829.4
97725.9
100600
103349
105894
108132
110090
111586
112706
113410
113730
113689
113334
112715
111861
110884
109786
108598
107199
105856
104491
103149
101861
100654
99565
98635.7
97888.7
97361.5
97064.7
96983.9
97104.2
97384.1
97801.9
96254.3
96072.9
95656.7
94889.9
93704.7
92039
89810.3
86838.6
82658.3
78158.7
73647
69383.6
65132.2
60735.1
56007
50718.2
44641.3
37694
30194.4
23042.3
17403.9
13971.3
12420.1
11962.5
12098.4
12536.4
13516.6
17041.5
22720
27283.3
32375.6
38262.6
45100.2
52952.5
61808
71582.1
82110.2
93150.3
104324
115121
125222
134265
141946
148052
152468
155169
156212
155803
154537
149186
143778
137441
130491
123163
115714
108482
100838
94661.1
89997.5
86365.5
83697.9
81887.4
80815.6
80375.5
80452.2
80796.5
81837.9
83651.2
85834
88321.3
90214
91540.9
92238.8
92415.8
92373.3
92198.2
91748.5
91080.2
90279.7
89505.4
88704
87898.9
87099.1
86282.9
85472.1
84454.2
83395.6
82911.5
82600
82529.7
82671.5
82922.5
83444.3
84315
85575.5
87252.6
89365.5
91919.6
94888.5
98223.2
101811
105686
109588
113004
115960
118251
119762
120389
120146
118883
116872
114105
110749
106955
102894
98735.3
94629.1
90717.7
87137.8
83998.5
81359.7
79286.6
77821.1
76983
76770.9
77151.8
78108.9
79502.9
81459.6
83679.4
86184.7
88830.1
91535.7
94203
96738
99070.3
101103
102867
104205
105173
105750
105966
105845
105432
104775
103903
102911
101823
100641
99280
97957.9
96622.7
95306.2
94044.3
92861.8
91797.9
90896.1
90180.3
89690
89438
89402.4
89573.1
89902.7
90365.3
88272.3
88094.6
87679.6
86938.6
85826.3
84280.9
82210.6
79342
75718.4
72012.5
68361.6
64973.6
61590.4
58021.3
54050.1
49417.4
43857.7
37240.9
29875.7
22773.3
17291
14261.4
13240
13227.6
13550.1
14333.1
15766.5
19392.5
25840.7
30131.8
34694.4
39794.5
45604.4
52222.4
59690.4
67991.3
77038
86732.9
96328.9
105733
114544
122398
128997
134147
137762
139850
140500
139942
138608
133801
129055
123619
117733
111574
105324
99160.4
92763.7
87347.9
83470.7
80411.6
78116.3
76499.5
75477
74975.5
74943
75168.4
75899.6
77388.5
79244.9
81525.7
83168.6
84303.9
84881.1
85009.9
84957.4
84789.4
84392.1
83814.9
83120.3
82475.8
81810.9
81141.5
80469.2
79767.8
79053.1
78110.7
77121.3
76671.1
76387.4
76342.5
76492.7
76756.8
77308.8
78213.4
79495.7
81163.9
83216.9
85643.4
88405.8
91453.8
94674.6
98194.7
101656
104596
107073
108925
110055
110384
109926
108597
106586
103930
100775
97261
93540.6
89767.8
86071.3
82578.4
79407
76661.7
74384.9
72636.2
71451.1
70846.2
70815.3
71327.6
72354.1
73786.4
75703.6
77857.6
80249.9
82753.4
85291.9
87776.5
90120.8
92260.5
94113
95689
96879.3
97702
98156.3
98267.7
98065.2
97588.6
96889.5
95993.2
94982.9
93898.1
92717.3
91389
90083.6
88773
87476.9
86233.2
85067.4
84019.4
83135.9
82444.8
81984.2
81773.3
81787.4
82011.5
82395.8
82909.9
80472.2
80307.1
79903.8
79198.5
78157.3
76699.3
74697.8
71952.4
68835.2
65763.6
62800.8
60118.6
57452.4
54595.6
51312.8
47319.7
42308.3
36083.7
28918.7
21923
16631
14028.4
13488
13643.1
14190.9
15302.6
17054
20518.3
27642.5
31610.1
35683.1
40100.3
45037.8
50612.8
56903.7
63944.7
71708.2
80162.2
88461.5
96645
104319
111122
116767
121077
123991
125544
125851
125160
123751
119386
115188
110499
105501
100321
95077.3
89742.6
84519.1
79823.9
76640.8
74116.6
72188.9
70786.2
69846.8
69322
69187.7
69359.5
69852.1
71067.4
72631.9
74722.2
76156.5
77116.4
77576.8
77655.2
77591.4
77427.4
77075.3
76575.5
75971.8
75440.1
74895.6
74348.8
73794.7
73203.2
72584.1
71715
70803.9
70386
70125
70093.4
70241.2
70508.7
71076.8
71999.5
73287.6
74933.5
76919.2
79220.1
81790.2
84576.4
87470.4
90683.4
93760.1
96276.5
98321.8
99779
100561
100613
99948.4
98540.5
96511.5
93936.6
90948.5
87676.8
84260.3
80838.4
77519.5
74418.2
71630
69258.7
67326.5
65888.5
64973.9
64595.8
64743.9
65388.5
66491.1
67966.3
69859.1
71961.2
74257.6
76636.3
79025.2
81343.3
83511.8
85470.9
87151.8
88556.7
89597.3
90274.4
90604
90607.9
90317.8
89772.9
89024.5
88098.2
87065.9
85980.5
84796.5
83497.5
82207.1
80918.4
79640.2
78411.2
77258.1
76221.8
75352.8
74683.5
74252
74083.7
74148.5
74431.9
74877.9
75450.5
72784.6
72640.2
72257.7
71596.5
70620.6
69208.3
67204.3
64664.3
61973.6
59408.2
56995.7
54883.9
52812.8
50571.6
47916.4
44545
40108.9
34336.3
27441.3
20623.1
15554.2
13368
13178.9
13423.7
14236.7
15597.4
17536.9
20679.9
28297.8
31913
35539.8
39367.4
43565.1
48258
53547.7
59506.7
66154.8
73505.4
80701.7
87813.5
94482.1
100356
105159
108730
111030
112118
112126
111317
109826
105815
102066
97990.5
93727.9
89368.8
84983.2
80407.7
76170.8
72202.6
69570.6
67542.5
65974
64799.5
63970.7
63456.1
63258.7
63371.6
63713.4
64704.2
65988.5
67912.1
69165.9
69967.6
70319.2
70348.8
70272.4
70108.6
69793
69358.4
68833.8
68398
67959
67522.7
67078.4
66592.1
66068.4
65270.6
64446.2
64059.2
63815.5
63785.5
63923.5
64184
64755.2
65681.5
66961.7
68574.2
70486.9
72665.6
75058.1
77607.3
80252.9
83164.8
85904.9
88047.5
89701.8
90805.1
91269.4
91058.7
90196
88696.5
86630.6
84109.4
81255.2
78191.4
75043.8
71940.7
68969.5
66235.1
63806.5
61788.7
60183.4
59041.9
58386.3
58227.7
58551.6
59328
60512
62034.8
63917.3
65981.1
68198.7
70470.3
72728
74897.5
76906.7
78699.3
80222.5
81464.3
82360.9
82895.1
83099.9
82994.2
82612.6
81994.6
81191.4
80229.7
79173.1
78082.8
76890.8
75618.7
74341.1
73070.7
71806.2
70586.2
69439.2
68406.7
67544.5
66891.6
66484.2
66358.7
66478.5
66825.9
67340.6
67979.5
65162.3
65047.2
64695.7
64087.5
63162.9
61741.6
59775.5
57457.4
55114.9
52950.4
50970.1
49314.8
47736.6
46027.7
43944.8
41176.9
37341.8
32085
25546.1
19026.2
14267.5
12490
12448.3
12853.5
13845.7
15339.2
17343.1
20105
27905.8
31187.3
34419.8
37744.9
41320.3
45270.1
49709.3
54737.8
60416.6
66795.8
73036.7
79202.1
84979
90030
94088.4
97010.3
98775.2
99459.8
99211.7
98300.5
96723.3
92989.1
89601
86022.8
82362.2
78684.6
75036.2
71201.9
67753.8
64524.1
62305.7
60738.2
59518.1
58581.5
57885.8
57408.9
57179.2
57259
57547.8
58293.4
59311.2
61033.2
62187.2
62849.2
63101.4
63086.1
62995.3
62828.4
62541.4
62162.1
61706.3
61349.5
61001.1
60663.5
60320.8
59935.3
59506.8
58779.4
58050.8
57695.1
57465.5
57428.1
57550.7
57793.6
58354.4
59270.2
60528.3
62096
63930
65990.2
68219.2
70556.6
73025.1
75640.9
78084.1
79900.4
81214.3
81996.6
82172.2
81714.7
80657.7
79056.8
76931.8
74435.8
71682.5
68791.9
65879.5
63065.2
60414.8
58025.9
55937.2
54254.5
52961
52103.7
51697.5
51752.2
52249.1
53157.2
54427.7
56003
57888.6
59927.5
62082.7
64264
66407.6
68444.8
70309.3
71947.6
73324.9
74409.8
75167.4
75560.3
75639.4
75421
74943.2
74246.6
73382.6
72379.3
71296.2
70197.7
68990.9
67744.4
66478.7
65224
63970.4
62754.9
61608.3
60573.1
59711.3
59069.8
58683.6
58601.6
58778.3
59196.4
59787.8
60501.7
60044.4
59948
59618
59046.8
58137.8
56707.3
54790.3
52602.6
50441.6
48488.9
46750.7
45357.1
44066.3
42677.1
40951.8
38578.3
35157.9
30279.1
24025.2
17810.2
13421.7
11968.9
11895.8
12332.8
13343.4
14852.1
16850.3
19419.7
26989.3
30128.9
33131.3
36163.6
39377.3
42893.8
46833.5
51311
56413
62214.3
67898.8
73497.4
78740.3
83298.7
86912.2
89445.8
90890.3
91332.6
90928.5
89952.4
88309.1
84716.8
81523
78216.6
74891.7
71607.2
68391.2
65017.8
62033.1
59257.9
57289.5
56017.9
55026
54252.5
53655.6
53214.9
52976.2
53058.2
53309.5
53928.9
54860.3
56349.7
57456.3
58041.7
58233.3
58190.9
58089.2
57918.2
57645.8
57298.8
56896.4
56572.5
56277.1
56000.2
55722.1
55402.6
55038.6
54358.9
53698.7
53363.4
53139.9
53090.6
53198.5
53422.7
53969.6
54871.2
56107.9
57641.7
59422.1
61407.3
63535.2
65744.1
68116.6
70556
72817.1
74438.4
75554.6
76131.5
76124.9
75505.7
74317.2
72639.1
70460
67964.4
65260.5
62468.3
59696.2
57061.6
54613.6
52448.3
50579
49112.4
48021.2
47349.9
47107.2
47303.8
47917.4
48915.3
50248.3
51862.8
53759.1
55789.3
57911.7
60041.5
62117.9
64074.8
65849.6
67389.8
68675.8
69658
70323.8
70621.3
70614
70316.8
69770.7
69017.3
68108.6
67073.8
65972.1
64867.8
63645.1
62416.8
61158.9
59913.2
58664.7
57448.4
56297.6
55254.8
54387.9
53749.9
53375.5
53323.6
53542
54012.9
54662.6
55434
57374.1
57287
56968.7
56417.1
55511.9
54080.8
52191.3
50066.8
47991.1
46138.6
44519.2
43255
42106.8
40877.8
39334.2
37164.3
33962.3
29286.4
23190.3
17161.1
13044
12083.6
11667.7
12049.1
13041.4
14543.3
16531.1
19034.4
26378.3
29478.7
32367.6
35255.1
38290
41591.9
45283.2
49485.4
54298.4
59812.2
65221
70535
75510.4
79822.2
83213
85552.2
86836
87156.6
86673.4
85664.6
83984.7
80459.2
77358.6
74183.5
71022.2
67932
64930.6
61791.8
59038.3
56491.3
54650.7
53531.1
52657.2
51969.1
51425.2
51004.7
50763
50850.9
51084.1
51641.9
52525.3
53903.8
54978.9
55529.4
55690.3
55634.5
55526.8
55353.2
55087.7
54756.6
54393.2
54073.1
53804.2
53558
53313
53027.7
52697.3
52042.9
51418.9
51094.2
50873.3
50816.7
50915.9
51129.1
51667.6
52560.3
53784.8
55300.2
57052.5
58999.5
61076.3
63221
65547.3
67899.2
70067.1
71592.5
72609.8
73081.9
72982.5
72279.7
71022.7
69302.2
67092.2
64593.4
61911.9
59167.5
56465.3
53922
51577.4
49527.5
47771.4
46415.7
45428.8
44853.7
44695.4
44965.7
45640.1
46685.1
48051.5
49687.1
51590.5
53617.8
55724.9
57829.7
59872.7
61789.3
63518.7
65008.7
66248.1
67177.5
67795.7
68043.4
67990.7
67651.8
67069.4
66285.6
65352.8
64300.9
63189.2
62082.2
60849.5
59631.1
58377.4
57136.1
55889.9
54672.6
53518.8
52470.9
51600.3
50963.3
50594.6
50558.5
50799.2
51298.8
51980.3
52783.2
54703.3
54627.6
54323.8
53793.2
52888.8
51462.3
49602.3
47537.1
45538.1
43776
42263.6
41118.3
40103
39025.9
37658.3
35689.6
32708.6
28244.3
22320.2
16514.5
12775.3
12132.3
11450.8
11767.6
12706.9
14181.9
16148.5
18616.4
25634.8
28728
31510.9
34263.4
37131.5
40232.4
43689.6
47630.4
52167.8
57408.2
62553.1
67593
72311
76386.1
79563.6
81717.3
82848.3
83053.4
82495.2
81455.3
79738.5
76272.9
73256.8
70201.6
67191
64281.9
61484.1
58569.3
56037.4
53710.9
51996.4
51025.2
50267.6
49665.3
49176.1
48777.6
48533.6
48636.7
48850.6
49352.1
50236.3
51467.5
52495
53019.2
53150.5
53081.7
52967.9
52791.4
52531.9
52215.7
51881.9
51572.4
51328.4
51111.8
50898.9
50647.3
50350.6
49721.8
49135.1
48821.4
48603
48538.7
48628.1
48829.3
49357.8
50239.8
51450.1
52945.9
54669.6
56579.2
58606.7
60690.6
62974.6
65242.7
67318.5
68757
69680.6
70051.1
69862.2
69077.5
67752.4
65987.4
63743.5
61238
58574.6
55873.9
53237.7
50782.7
48538.7
46602.7
44958.4
43711.3
42827.2
42346.9
42271.8
42615.1
43350.1
44441.8
45842.2
47499.5
49411.6
51437.6
53531.4
55613.2
57625.1
59503.5
61189.1
62630.2
63824.5
64701.8
65272.7
65470.8
65372.7
64991.9
64372.5
63557.7
62599.9
61530.2
60408
59299.1
58053.6
56846.2
55596.8
54359.7
53115.5
51896.4
50738.7
49684.5
48809.1
48172
47808.4
47788.2
48051.7
48581.1
49295.6
50131.4
52024.7
51968.3
51683
51174.3
50270.2
48852.8
47023.5
45013.1
43082.4
41400.9
39984.6
38948.2
38056.6
37123.7
35926.4
34156.4
31399
27154.6
21416.7
15875.3
12707.7
12254.7
11275.5
11492.6
12341.1
13769.6
15705.1
18143.9
24790.4
27884.4
30567.8
33194.3
35906.9
38819.5
42055.7
45747.8
50021.9
55002.5
59894.9
64670.4
69140.6
72988.4
75962
77938.7
78924.5
79020.2
78390.5
77321.2
75566.8
72154.7
69214.9
66268.5
63396.1
60655.7
58050.4
55350.3
53030.8
50917.1
49328.7
48502.1
47859.1
47342.9
46909.9
46534.6
46292.4
46413.1
46609.2
47059.2
47941.4
49038.1
50007.1
50510.8
50613.4
50532.4
50412.1
50232.5
49978.2
49675.5
49372.6
49070
48849.8
48661.6
48480
48261.8
47998.8
47396.3
46847.5
46545.2
46329.3
46256.5
46335.4
46523.4
47040.6
47910.1
49104.6
50579.6
52274.4
54147.4
56127.2
58153.9
60398.8
62587.5
64569.5
65931.5
66767.5
67037.8
66762.7
65897
64504
62692.4
60411.8
57895.8
55246.7
52586.1
50012.3
47642.8
45497
43673.6
42139.7
40999.4
40216.7
39830.2
39837.4
40253.3
41048.7
42187.2
43622.2
45301.8
47224.2
49250.4
51332.6
53393.2
55375.8
57217.6
58861
60254.2
61404.9
62230.8
62754.6
62903.3
62759.4
62336.1
61679.2
60832.5
59849.1
58760.9
57628
56518.6
55256.6
54061.8
52816.7
51583.6
50341.1
49119.5
47957.1
46895.4
46013.9
45375.8
45016.9
45012.5
45299.5
45859.8
46608.7
47478.8
49277.1
49307.1
49045.5
48559.9
47657.4
46252.9
44454.8
42494.6
40624
39013.4
37682.4
36745.5
35968.7
35172.4
34140.2
32566.2
30034.7
26018.4
20480.9
15245.6
12984.4
12548.5
11240.2
11229.9
11943.3
13306.8
15201.5
17609.5
23857.6
26952.3
29542.1
32051.6
34619.6
37356.1
40384.1
43839.5
47862.4
52595.6
57246.2
61766.2
65997.5
69627
72405.4
74213.5
75061.5
75053.6
74356.2
73258.5
71466.2
68101.4
65230
62381.8
59635.5
57051.9
54628.8
52134.1
50018.6
48110.5
46649.4
45963.1
45433.1
45003.2
44627.7
44276.2
44041.8
44180.2
44360.3
44763.3
45662.9
46613.8
47517.4
48004.1
48078.9
47986
47859.2
47676.1
47426.2
47135.7
46849.6
46565.6
46368.2
46207.3
46056.3
45870.9
45641.7
45066.3
44556.2
44265.9
44052.4
43970.6
44038.1
44211.9
44716.4
45571.4
46748.3
48201.5
49867
51704.3
53638.1
55612
57820.1
59933.4
61820.9
63116.2
63870
64042.4
63683.4
62737.9
61277
59416.6
57096.3
54566.4
51927.7
49303.4
46788.3
44501.9
42452
40740.2
39315.2
38279.8
37597.2
37303.7
37392.1
37880.1
38735.7
39920.8
41391.1
43093.6
45027.7
47055.8
49128.3
51169.6
53124.6
54931.8
56534.3
57880.8
58988.8
59764.4
60241.3
60340.7
60150.9
59684.5
58989.4
58110.1
57100.3
55992.9
54848.9
53733.1
52465.9
51277.9
50037.2
48807.8
47566.7
46342
45173.9
44103.5
43214.8
42574.5
42219.7
42231.3
42542.3
43134.7
43919.4
44825.2
46553.1
46648.5
46411.3
45949.3
45051.6
43663.5
41896.3
39981.6
38162.8
36613.8
35357.5
34510.9
33840.3
33173.3
32300.9
30920.4
28616.8
24836.9
19513.4
14614.2
13103.2
12782.7
11456.3
10987.6
11511
12793.4
14638
17008.8
22846
25936.2
28437.9
30839
33273
35845.3
38677.4
41909.3
45688.8
50188.2
54607
58879.3
62880
66299.7
68891.5
70539.1
71256.3
71150.7
70389.4
69263.5
67433.6
64110.6
61299.7
58539.4
55907.3
53469.2
51218
48920
47000.8
45291.5
43960.7
43409.5
42990.8
42647.2
42330.4
42003
41783.8
41938.6
42104.2
42463.7
43344.4
44193.2
45026.9
45498.7
45546.5
45442.5
45308.8
45122
44875.8
44596.1
44324.6
44059.1
43883.5
43749
43627.8
43474.9
43279.5
42732.1
42261.2
41983.6
41772.7
41681.6
41736.6
41895.3
42385.7
43224.3
44381.8
45811.9
47447.7
49250.3
51139.8
53065.8
55238.9
57280.8
59073.7
60310.9
60988.7
61064.2
60624.2
59599.9
58071.4
56159.6
53796.5
51249.1
48616.9
46025.2
43565.3
41359.5
39403.1
37802.2
36484.6
35552.7
34969.1
34767.7
34936.1
35495.9
36411.5
37643.3
39149.5
40875.4
42822.7
44854.3
46918.7
48942.5
50872
52646.3
54209.3
55509.4
56577
57302.6
57732.6
57782.9
57546.9
57037
56303
55390.4
54353.4
53226.2
52070.5
50947
49676.8
48494.6
47258.2
46032.5
44792.5
43564
42389.3
41308.8
40411.6
39768.2
39416.8
39444.3
39779.9
40405.8
41227.7
42170.9
43867.8
43994.8
43779.8
43342
42453.7
41085.1
39348.4
37474.1
35698.9
34202.3
33009.8
32245
31672.2
31127.3
30409.8
29220
27146.2
23610.3
18514.6
13974.9
13200.6
12742.3
11468.5
10682.4
11036.4
12228.5
14014.6
16339.2
21763
24840
27258.6
29559.8
31870.3
34289.9
36938.1
39959.2
43502.2
47780.9
51977
56008.9
59786.7
63004.5
65417.7
66912.8
67506.3
67308.6
66487.6
65332.5
63465.7
60179.4
57421.5
54739.1
52209.6
49906.3
47817.2
45707.3
43977.4
42461.1
41264.8
40842.5
40533.3
40276.1
40019
39715.1
39520.9
39688.8
39841.4
40160.6
41015.8
41775.3
42536.5
42994.5
43016.2
42901.6
42760.8
42570
42326.6
42056.5
41800
41550.4
41395.8
41286.7
41194.3
41073.5
40912
40393.7
39962.8
39698.5
39490.5
39389.8
39431.5
39574.1
40049.1
40869.1
42005.1
43411
45016.7
46785.5
48632.6
50516.8
52655.4
54629.9
56172.3
57515.7
58119.4
58107.9
57584.5
56482.6
54886.4
52920.7
50511.8
47943
45313.3
42750.8
40342.3
38214.9
36350.1
34859.5
33647.8
32818.1
32332.3
32222.2
32469.7
33100.9
34076.5
35354.6
36897.3
38647.4
40609.3
42645.8
44704
46712.2
48617.9
50361
51886
53139.9
54171.1
54845.3
55228.4
55230
54947.5
54393.4
53619.9
52673.2
51608.2
50460.6
49292.7
48160.8
46888.9
45711.6
44479.7
43257.6
42018.4
40785.3
39603.2
38511.1
37604.1
36956.1
36607.6
36651.3
37012.1
37672.8
38533.4
39515.8
41091.9
41251.1
41058.1
40645.8
39773.3
38428
36722
34884.6
33145.8
31692.2
30558.3
29867.2
29387.1
28961.5
28399.5
27404.1
25569.5
22292.6
17448.8
13293
13054.8
12518.2
11612.6
10258.7
10491.7
11588.9
13306.9
15573.1
20573.3
23625.6
25963.2
28169.7
30362.9
32636.2
35106.1
37920.7
41228
45289.7
49263.9
53053.3
56607.8
59624.3
61860.6
63205.8
63678.5
63391.5
62512.9
61325.9
59422.4
56169.2
53458.8
50846.7
48411.2
46236.9
44305.7
42382.2
40841.5
39519.4
38469
38172.2
37974.6
37806.7
37612.3
37327.5
37180
37352.1
37492.4
37772.7
38594.4
39274.3
39959.6
40403
40398.5
40273.5
40125.2
39929.9
39688.8
39427.4
39182.8
38951
38817.1
38733.2
38670
38582
38455.5
37968.8
37579.9
37330.3
37125.6
37015.1
37041.8
37167.1
37624.6
38422.9
39534.4
40914.1
42488
44223.1
46028.1
47877.3
49978.9
51890.4
53422
54635.6
55160.2
55070.5
54458.2
53277.2
51609.6
49586
47126.3
44531.5
41900.3
39364.1
37005.1
34956.9
33184.2
31808.5
30704.4
29979.3
29593.8
29577.6
29905.6
30610.6
31647.9
32973.9
34555
36330.8
38309
40352.5
42406
44399.9
46282.9
47995.6
49482.6
50696.3
51677.1
52306.2
52640.6
52592.1
52261.2
51660.8
50845.6
49862.8
48767.9
47598.5
46417.4
45276.1
44003.4
42831.1
41603.9
40385.3
39146.8
37908.2
36717.5
35611.9
34693.3
34039.6
33693.6
33753.5
34141.1
34839.2
35741.6
36766.2
38218.6
38414.4
38245.9
37862.4
37012.7
35694.6
34019
32214.1
30503.5
29082
28000.4
27373.8
26980.1
26670.1
26263.8
25466.1
23880.3
20877
16312.2
12507.5
12510.7
12072
11264.3
9688.96
9860.98
10865.9
12506
14699.8
19272.9
22285.8
24545.3
26663.1
28746.5
30881.4
33179.8
35793.3
38866.5
42716
46468.7
50013.9
53344.7
56161.2
58223.2
59422.3
59777.7
59404.9
58471.5
57249.6
55309.8
52086
49416.5
46866
44514.4
42462
40683.3
38943.8
37592.1
36465.6
35575
35398.1
35313.8
35238.4
35109.6
34846.3
34754.5
34928.3
35056.7
35299.6
36081.8
36689.7
37297
37723.8
37693.5
37558.3
37401.9
37201.9
36962.3
36708.5
36475.3
36260.4
36146.9
36088
36054.1
35999.4
35909.2
35456.9
35112
34878.9
34678.2
34557.5
34567.9
34674.4
35112.2
35885.1
36968.6
38319.7
39860.4
41561.8
43325.4
45149
47209.6
49061.7
50546.7
51671.3
52118.3
51949.7
51247.2
49986.6
48243.7
46157.4
43641.8
41015.5
38378.1
35864.9
33552.8
31584.3
29903.6
28649
27653.2
27035.3
26752.4
26832.7
27242.7
28023.7
29124.8
30499.9
32121.5
33924.7
35921.1
37973.7
40024.3
42005.4
43867.1
45550.3
46999.8
48179.2
49095.2
49685.7
49969.4
49869.9
49488.5
48839.5
47980.4
46959.3
45832.7
44640.1
43444.5
42293.2
41020.4
39852.9
38630.7
37415.9
36177.8
34932.6
33731.8
32610.4
31678
31016.4
30671.8
30749.5
31165.5
31904.2
32851.6
33922.1
35338.2
35568.6
35435.1
35084.8
34263.9
32976
31329.2
29551.1
27858.9
26459.3
25417.8
24846.2
24529.9
24328.2
24073.2
23469.5
22133.3
19408.9
15143.9
11619.9
11854.7
11470.7
10684
9006.23
9158.73
10080.3
11636.2
13745.8
17907.2
20865.9
23052.9
25091.2
27076.1
29084.8
31224.2
33648.9
36496.6
40145.4
43683.5
46989.9
50104
52727.9
54623.8
55685.4
55931.2
55479.2
54495.4
53236.5
51262.1
48063.4
45427
42927.3
40646.3
38704.7
37068.2
35504.7
34335.9
33400.5
32676.5
32612.2
32639.3
32656.2
32593.6
32356.4
32323.7
32497.7
32615
32822.9