/*--------------------------------*- C++ -*----------------------------------*\
| =========                 |                                                 |
| \\      /  F ield         | OpenFOAM: The Open Source CFD Toolbox           |
|  \\    /   O peration     | Version:  v1912                                 |
|   \\  /    A nd           | Website:  www.openfoam.com                      |
|    \\/     M anipulation  |                                                 |
\*---------------------------------------------------------------------------*/
FoamFile
{
    version     2.0;
    format      ascii;
    class       volScalarField;
    location    "10";
    object      p_rgh;
}
// * * * * * * * * * * * * * * * * * * * * * * * * * * * * * * * * * * * * * //

dimensions      [1 -1 -2 0 0 0 0];


internalField   nonuniform List<scalar> 
14268
(
60492
72030.9
81693
88442.3
90847.4
90749.7
84445.2
64999.8
31099.6
-14305
-65506.4
-115616
-158168
-188437
-204419
-208082
-207519
-202426
-194157
-186615
-183321
-183049
-189573
-206496
-231718
-260737
-293909
-314682
-316349
-313064
-298074
-271370
-235128
-192276
-145890
-98713.5
-52829.9
-9478.69
30639.1
67603.8
101618
132920
161506
186986
208553
225077
235364
238202
236805
218337
195877
166235
131914
94980.4
57876.6
22915
-7797.4
-32643.1
-50835.1
-62205.7
-67187.2
-67401.5
-65793
-61168.6
-53998
-45106.4
-35409.4
-25830.3
-17099.3
-9824.3
-4121.48
-353.088
1628.13
2053.72
1916.53
882.682
-1102.88
-3852.32
-7119.09
-10604.1
-14061.4
-17249.7
-19988.4
-22219.7
-23882.5
-25330.2
-26439.9
-26928.9
-27441
-28105.3
-29034
-30193.9
-31415.9
-32406.2
-32854.9
-32619.7
-31091.8
-27616.1
-21979.8
-14156.7
-4356.82
6954.42
19209.9
31505.9
43080.1
53126.5
61028.8
66222.2
68727.5
67775.6
64501.7
58698.6
50978.3
41816.9
31757.3
21292.1
10853.3
797.154
-8578.66
-17071.3
-24512.7
-30781.5
-35779.5
-39443.2
-41715.7
-42649.8
-42090.4
-40699.5
-37531.1
-33721.7
-28994.1
-23755.8
-18174.6
-12512
-6989.54
-1805.38
2869.38
6913.99
10236.3
12810.7
14623.9
15724.6
16162.4
16050.2
15412.9
14483.1
13310
11880.6
10407.1
8509.63
6830.35
5059.98
3336.79
1655.82
47.6202
-1450.72
-2800.5
-3967.63
-4913.65
-5604.89
-6042.71
-6226.93
-6190.29
-5945.55
46629.5
54379.9
59739.9
62281
62419.7
61279.7
55113
39957
14478.6
-19498.7
-57884.1
-95598.9
-127934
-151600
-165509
-171384
-172866
-172578
-170883
-168962
-168457
-169313
-174785
-186861
-204576
-224797
-248540
-261510
-261088
-256473
-243189
-221295
-192206
-157966
-120778
-82643.5
-45138.6
-9361.2
24358.8
55529.7
84218.1
110424
134008
154602
171599
184214
191670
193298
191923
176314
158273
134820
107924
79100.2
50154.5
22877.2
-1473.07
-21245.5
-36003.2
-45612
-50442
-51465.4
-51047.9
-48712.3
-44169.4
-37965.7
-30811
-23400.2
-16396.8
-10340.4
-5573.05
-2423.52
-751.818
-346.871
-385.763
-1049.25
-2484.65
-4546.07
-7061.82
-9770.74
-12480.5
-15027.5
-17282.2
-19214.1
-20760.6
-22246.2
-23484.2
-24106.6
-24674.8
-25245.5
-25879.9
-26529.7
-27054.2
-27224.5
-26987.5
-26147.6
-24218.8
-20794.8
-15723
-9008.23
-831.374
8439.76
18327.9
28182.7
37385.5
45318.1
51514.5
55520.4
57401.5
56412.9
53609.8
48724.2
42255.3
34570.3
26106.5
17268.1
8418.05
-136.092
-8117.72
-15360.7
-21691.3
-27000
-31197.2
-34229.3
-36051.7
-36723.9
-36108
-34817.6
-31977.1
-28633.3
-24509.6
-19970.4
-15147.9
-10263.5
-5502.67
-1031.3
3000.79
6495.34
9374.13
11607.7
13181.8
14136.7
14510
14397.2
13824.6
12957.9
11894.5
10580.8
9216.64
7444.65
5870.36
4209.08
2594.43
1026.28
-464.214
-1840.39
-3066.42
-4112.86
-4943.58
-5542.95
-5906.08
-6038.88
-5975.09
-5725.54
34258
38514.4
40856.5
41359.5
41136.8
39206.4
33448.3
21597.8
2608.66
-22532.3
-51059.3
-79356.5
-104089
-123049
-135556
-142718
-146688
-148911
-150207
-151485
-153512
-156173
-160951
-169424
-181504
-195618
-212366
-220379
-219286
-214372
-203286
-185621
-162181
-134348
-103714
-71802.1
-39883.1
-8876.64
20610.6
48235.2
73787.2
97124
118030
136148
150969
161876
168282
169712
168676
155026
139507
119347
96207.4
71329.1
46219.7
22359.1
967.907
-16615.5
-29932.8
-38841.5
-43642.8
-45181.3
-45009.6
-43583.8
-40089.6
-34932
-28724.3
-22144.3
-15833.6
-10329.5
-5949.39
-3021.97
-1459.14
-1054.48
-1069.78
-1613.72
-2870.36
-4711.37
-6974.19
-9417.87
-11881.9
-14214.9
-16302
-18118
-19601.8
-21065
-22314.5
-22944.5
-23499.3
-24018.4
-24553.4
-25058.9
-25412.9
-25422.5
-25103.3
-24139.3
-22151.8
-18802.7
-13954.4
-7614.58
50.0803
8694.85
17925.9
27071.1
35599.7
42936.7
48654.2
52331.3
54030.4
53042.5
50362.8
45731.8
39611.3
32342.6
24334
15965.1
7578.44
-532.748
-8108.86
-14977
-20979.8
-26008.1
-29975.1
-32828.9
-34528
-35127.9
-34503.9
-33222.3
-30480.8
-27252
-23283.1
-18918.2
-14284.8
-9592.95
-5020.74
-725.421
3149.17
6509.69
9269.74
11413
12919.4
13828
14175.4
14048.4
13481.2
12618.2
11568.1
10275.3
8927.6
7189.31
5634.05
3997.29
2404.34
858.231
-610.718
-1965.63
-3170.13
-4196.17
-5007.86
-5583.69
-5928.82
-6045.42
-5968.06
-5707.97
22892.3
24481.8
24879.8
24754.9
23868.6
21353.9
16177
7147.17
-6416.33
-24097.5
-44284.7
-64283.9
-82236.9
-96849.2
-107876
-116017
-122330
-127567
-132027
-135975
-139675
-143246
-147608
-153815
-162092
-171569
-182825
-187121
-185433
-180307
-170524
-155778
-136523
-113675
-88360
-61711.1
-34725.8
-8192.43
17362.1
41445.8
63771.3
84096.9
102154
117605
130037
138993
144076
145037
143986
132170
119050
102201
82963.8
62315.7
41442.8
21523.1
3448.62
-11449
-22911.2
-30817
-35413.9
-37323.8
-37501.9
-36874.6
-34626.4
-30807.1
-25889.7
-20447.9
-15076.9
-10286.4
-6419.46
-3833.74
-2450.82
-2064.97
-2071.36
-2457.17
-3452.84
-4958.93
-6842.15
-8881.04
-10951.6
-12937.1
-14749.1
-16375.3
-17757.6
-19188.8
-20460.9
-21110.4
-21647
-22077
-22430
-22659.1
-22651.9
-22406.9
-21765.4
-20503
-18355.8
-15085.4
-10594.8
-4908.12
1824.43
9302.33
17222.5
24984.9
32164.6
38287.4
43008.2
45977.5
47264.8
46239.1
43781
39648
34230
27812.8
20744.9
13354.1
5940.81
-1234.71
-7929.11
-13994.1
-19276
-23675.4
-27113.5
-29545.5
-30939.2
-31350.1
-30677.7
-29415.8
-26878.5
-23921.2
-20321.3
-16386
-12225.7
-8024.62
-3938.82
-104.89
3347.15
6342.89
8796.35
10697.8
12025.9
12815.6
13098.1
12948.3
12407.3
11564.5
10570.3
9346.49
8060.51
6412.93
4923.77
3362.75
1843.54
374.91
-1013.62
-2285.35
-3405.36
-4348.42
-5081.39
-5592.35
-5876.88
-5950.13
-5844.68
-5571
13644.8
13937.6
13832.1
13407.1
12156.5
9640.5
5300.51
-1530.24
-11335.6
-24188.3
-39004.5
-53708.3
-67345.7
-79161.4
-88978.9
-97164.9
-104308
-110818
-116797
-122198
-126936
-131009
-134972
-139569
-145136
-151299
-158269
-160038
-157821
-152652
-143980
-131553
-115594
-96685.2
-75606.3
-53190.1
-30219.4
-7370.24
14915.1
36033.4
55661.3
73497.6
89245
102586
113180
120685
124834
125512
124480
114232
103007
88730.9
72481.4
55044.3
37366.4
20416.2
4738.31
-8118.82
-18161.8
-25271.8
-29644.4
-31750.1
-32214
-31914.9
-30474.4
-27585.3
-23584.6
-18968.8
-14294.4
-10061.6
-6516.29
-4192.2
-2949.61
-2588.79
-2598.45
-2900.44
-3736.17
-5030.2
-6679.44
-8446.59
-10253.5
-12002.6
-13621.9
-15105.9
-16400.7
-17781.3
-19044.9
-19682.5
-20187
-20546.8
-20784
-20860.2
-20706.1
-20340.2
-19548.3
-18162.9
-15978.4
-12813.1
-8594.04
-3350.73
2780.13
9529.93
16668.6
23593.2
29966.4
35367.6
39497.7
42051
43089.2
42046.9
39713.2
35870.3
30863.1
24948.9
18440.7
11636.8
4810.98
-1795.93
-7958.36
-13532.5
-18377.7
-22399.1
-25522.4
-27706.1
-28922.8
-29223.5
-28527
-27261.8
-24844.8
-22029.4
-18627.8
-14918.9
-11008
-7063.89
-3232.83
360.526
3590.91
6396.97
8682.24
10450.6
11675.7
12391.4
12627.4
12450.2
11906
11067.3
10083.4
8886.09
7620.62
6019.77
4556.91
3030.8
1542.35
105.172
-1252.44
-2493.36
-3581.8
-4493.7
-5193.96
-5668.27
-5926.69
-5972.66
-5843.03
-5549.57
8089.01
8003.74
7800.53
7177.91
5824.71
3456.75
-254.179
-5686.75
-13163.8
-23378.2
-34557.5
-45667.8
-56239.2
-65872.2
-74487
-82310.1
-89687.9
-96834.9
-103690
-109966
-115308
-119569
-123109
-126511
-130141
-133891
-137670
-137683
-134875
-129732
-121967
-111370
-98022.3
-82272.9
-64642.8
-45732.6
-26149.9
-6473.62
12961.6
31449.1
48662.4
64266.5
77949.5
89415.4
98384.4
104609
107923
108320
107253
98343.7
88723.3
76645.2
62965.8
48312
33427.9
19099
5495.16
-5484.91
-14192.1
-20507.7
-24586.6
-26775.3
-27527.1
-27354.8
-26557.1
-24485.3
-21320.9
-17470.8
-13450.6
-9728.65
-6507.23
-4420.14
-3324.41
-3001.76
-3017.01
-3255.66
-3949.67
-5049.93
-6484.06
-7987.46
-9532.74
-11043
-12463.6
-13796.3
-14992.9
-16310.4
-17554.5
-18171.6
-18636.2
-18918.5
-19031.2
-18942.4
-18695.3
-18159.6
-17197.6
-15679.2
-13455.5
-10399.8
-6467.38
-1696.92
3786
9722.34
16034.9
22035.1
27508.2
32093.7
35545.2
37609.1
38338.5
37259.3
35042.8
31511.5
26960.5
21614.9
15748.7
9625.98
3490.03
-2442.75
-7965.27
-12942.7
-17250.4
-20799.7
-23523.7
-25386.1
-26367
-26514.2
-25770.1
-24491.5
-22211.1
-19569.3
-16416.4
-12998.6
-9413.33
-5810.51
-2322.1
942.364
3866.42
6411.72
8458.27
10036.3
11113.6
11722.6
11890.4
11675.6
11126.8
10294.9
9329.22
8172.54
6941.11
5406.61
3987.02
2515.3
1078.27
-304.855
-1606.91
-2790.74
-3820.46
-4674.15
-5317.12
-5743.11
-5946.76
-5951.03
-5788.47
-5472.13
4692.49
4553.25
4248.88
3521.52
2161.68
-16.6671
-3214.51
-7660.45
-13577.3
-21949.4
-30736.3
-39340.8
-47676.9
-55591.6
-63092.7
-70358.2
-77624
-84999.8
-92310.2
-99078.5
-104729
-108965
-112048
-114508
-116729
-118741
-120310
-119043
-115594
-110529
-103549
-94448.1
-83215
-70033.7
-55234.3
-39237.2
-22507.9
-5542.11
11424.1
27610
42702
56348.1
68232.3
78080
85662.9
90807.5
93424.3
93583.5
92480.3
84708.1
76429.7
66183.3
54643.3
42308.7
29758.8
17624.5
5723.75
-3639.07
-11172.2
-16755.6
-20510.6
-22690.7
-23619
-23617.5
-23176.2
-21740.2
-19259.7
-16048.3
-12585.4
-9296.65
-6414.24
-4471.06
-3509.95
-3229.91
-3251.29
-3453.35
-4045.11
-5033.13
-6266.6
-7551.73
-8877.98
-10185.5
-11433.4
-12629
-13730.4
-14978
-16190.3
-16778.4
-17202.2
-17418.8
-17436.3
-17268.2
-16937.7
-16288.2
-15217.4
-13625.8
-11406
-8470.76
-4797.27
-427.983
4518.32
9834.26
15455.9
20716.7
25471.8
29407.7
32317.7
33989.7
34465.9
33353.8
31221
27928.6
23732.5
18834.4
13478.1
7900.44
2319.68
-3067.52
-8070.21
-12563.7
-16435.1
-19602.1
-22003.7
-23607.4
-24398.6
-24420.6
-23636.5
-22337.6
-20160.3
-17643.5
-14674.2
-11470.1
-8124.07
-4771.69
-1535.14
1487.35
4183.61
6531.25
8399.25
9830.9
10790.6
11310.6
11416.8
11161.9
10596.6
9762.33
8797.1
7662.67
6447.81
4959.62
3565.74
2129.45
723.423
-628.213
-1899.33
-3052.29
-4049.82
-4869.87
-5476.58
-5859.1
-6030.59
-5998.94
-5802.76
-5457.45
2608.51
2448.53
2079.59
1308.54
-9.96169
-1997.66
-4784.71
-8536.15
-13649.6
-20456.9
-27448.4
-34213.1
-40854.4
-47375.9
-53860
-60484.6
-67447.7
-74812.8
-82326.1
-89352.4
-95113.6
-99176.6
-101771
-103454
-104638
-105430
-105638
-103338
-99220.1
-94277.6
-87989.3
-80135.5
-70638.9
-59568.4
-47113.5
-33554.9
-19242
-4603.62
10212.5
24373.5
37591.4
49508
59808.8
68241
74619.5
78830.6
80845.6
80792.4
79641.8
72826.5
65676.5
56969.3
47231.7
36857.9
26293.6
16045.2
5647.28
-2361.83
-8836.67
-13727.2
-17131.3
-19234.6
-20268.7
-20439.5
-20180
-19244.9
-17340.5
-14677.2
-11702.1
-8730.22
-6205.05
-4455.38
-3576
-3341.58
-3369.8
-3550.36
-4069.91
-4959.7
-6026.88
-7118.36
-8247.32
-9369.01
-10454.8
-11517.2
-12521.2
-13693.3
-14863.4
-15417.9
-15800.3
-15956.6
-15890.2
-15687.5
-15274.2
-14526.5
-13366.6
-11722.3
-9521.6
-6711.17
-3287.81
702.654
5145.57
9906.59
14874.8
19442
23520.6
26840
29230.3
30519.4
30738.5
29582.4
27511.1
24430.4
20560.9
16083.6
11214
6163.86
1126.63
-3720.9
-8206.59
-12209.8
-15636.7
-18410.7
-20477.2
-21808.4
-22395.8
-22278.8
-21441.3
-20113.7
-18029
-15631.4
-12842.8
-9853.68
-6752
-3659.08
-686.64
2078.91
4530
6674.8
8339.32
9606.56
10432.8
10849.7
10882.6
10579
9990.15
9149.18
8181.81
7069.92
5872.54
4434
3069.68
1673.64
304.386
-1009.29
-2242.04
-3355.92
-4312.23
-5090.03
-5651.36
-5991.51
-6113.08
-6037.04
-5800.6
-5422.09
1305.28
1129.98
727.107
-52.2482
-1308.19
-3122.54
-5588.74
-8846.57
-13503.1
-19007.5
-24605.7
-29967.2
-35282.2
-40650.3
-46212.8
-52169.6
-58721.8
-65927.2
-73485.5
-80621.9
-86363.6
-90148.7
-92229.8
-93253.8
-93675
-93639.2
-93105.4
-90071.6
-85189.5
-80410.7
-74746.3
-67950.5
-59898.6
-50580.2
-40081.7
-28574.1
-16309.5
-3662.45
9267.99
21644
33207.2
43597.8
52505.7
59698.9
65029.8
68433.1
69928.2
69687.1
68482.4
62467.5
56265.2
48848.5
40625.8
31905
23025.8
14381.5
5468.14
-1550.1
-7076.82
-11318.9
-14358.2
-16334.5
-17413.7
-17749.7
-17565.5
-17001.3
-15572.7
-13370.9
-10818.9
-8097.26
-5916.8
-4384.47
-3570.7
-3366.81
-3402.48
-3575.29
-4074.01
-4847.37
-5771.28
-6693.9
-7649.4
-8604.94
-9542.34
-10478.9
-11386.3
-12481.3
-13600.3
-14119.6
-14464.4
-14572.4
-14456.9
-14226.1
-13750.7
-12932.1
-11711.8
-10041.9
-7879.04
-5196.34
-2006.72
1642.28
5638.01
9926.57
14330.3
18289.5
21779.8
24560
26492.3
27439.3
27423
26218.4
24187.3
21279.3
17685.4
13569.7
9123.99
4538.12
-17.0199
-4382.44
-8402.46
-11964.9
-14990.5
-17408.6
-19171.2
-20254.4
-20654.6
-20407.5
-19514.8
-18156.4
-16143.7
-13841.9
-11202.7
-8392.84
-5496.29
-2622.31
126.306
2671.75
4909.45
6868.19
8364.13
9483.97
10188.2
10507.4
10467.3
10111.8
9492.83
8639.24
7661.77
6563.49
5375.43
3976.87
2634.09
1268.97
-73.6658
-1361.14
-2568.51
-3657.24
-4586.49
-5333.56
-5860.75
-6157.56
-6238.28
-6118.01
-5838.15
-5420.36
473.621
292.259
-123.911
-890.716
-2075.9
-3741.61
-5970.31
-8941.99
-13122.3
-17621.9
-22133.6
-26397
-30648.5
-35045.5
-39773.7
-45062.5
-51139.3
-58086.6
-65586.2
-72738.4
-78376.7
-81809.3
-83360.6
-83818.1
-83682.2
-83244.2
-82264
-78739.1
-73060.7
-68497.3
-63405.1
-57518
-50680.4
-42828.1
-33972.6
-24198.5
-13670.4
-2630.35
8543.32
19339.9
29441.5
38484.8
46165.7
52271.5
56687.4
59388.1
60431.3
60022.8
58756.6
53405.3
47997.1
41660.6
34709.9
27382
19933.1
12701.1
5057.82
-1119.49
-5783.17
-9415.15
-12082.7
-13893.3
-14965
-15405.1
-15328.5
-14984.1
-13942.8
-12129.4
-9946.61
-7459.37
-5566.65
-4239.72
-3541.82
-3364.87
-3407.31
-3582.48
-4032.12
-4700.42
-5500.94
-6275.28
-7076.63
-7881.78
-8681.56
-9497.75
-10308.6
-11326.4
-12385
-12869.1
-13180.6
-13250.9
-13109.1
-12858.1
-12336.3
-11465.7
-10205.2
-8527.99
-6415.12
-3861
-892.127
2442.53
6030.74
9905.81
13807.7
17223.8
20179.7
22470.1
23981.7
24608
24364.9
23102.4
21090.9
18324.1
14968.6
11174.6
7113.08
2954.62
-1151.5
-5062.93
-8642.8
-11782.2
-14421
-16494
-17959.6
-18797.6
-19009.8
-18628.8
-17671.7
-16277.8
-14321
-12101.2
-9595.93
-6950.51
-4244.95
-1577.61
957.314
3289.63
5322.73
7086.72
8424.02
9392.19
9969.68
10184.9
10064.9
9650.96
8994.73
8122.53
7130.8
6042.06
4860.16
3499.33
2177.3
842.091
-474.387
-1736.37
-2918.86
-3982.73
-4884.55
-5600.34
-6090.59
-6342.68
-6378.25
-6207.51
-5877.96
-5415.35
-66.7674
-244.41
-659.487
-1400.43
-2512.79
-4058.19
-6128.44
-8997.05
-12620.7
-16326.5
-19977.5
-23365.5
-26748.7
-30317.7
-34288.9
-38921.7
-44481.4
-51098.1
-58463.3
-65565.8
-71048.1
-74077.6
-75099
-75111.5
-74789
-74006
-72572.5
-68946.5
-62498.3
-58207.3
-53644.6
-48544.5
-42734.7
-36116.6
-28648.7
-20347.7
-11301
-1606.18
7989.86
17393.5
26204.8
34058.6
40657.7
45808
49423.2
51511.3
52160.9
51603.2
50268.5
45462.1
40716
35280.3
29394.4
23235
16985.3
10821.3
4424.61
-991.102
-4868.31
-7927.44
-10222.8
-11839.5
-12862
-13363.6
-13396
-13170.7
-12439.5
-10950.5
-9094.13
-6813.39
-5170.4
-4035.1
-3457.92
-3329.11
-3381.63
-3549.67
-3946.93
-4524.16
-5218.7
-5863.23
-6528.13
-7197.51
-7869.86
-8571.21
-9285.99
-10228.4
-11217.7
-11667.9
-11951.6
-11996.5
-11846.4
-11582.2
-11030.3
-10125.6
-8843.38
-7175.15
-5122.12
-2695.67
66.7904
3114.7
6335.57
9855.66
13317.1
16257.4
18734.1
20585.5
21715.8
22045.2
21587.2
20257.7
18247
15590.7
12436.1
8921.92
5201.55
1428.78
-2267.77
-5760.67
-8932.06
-11677.3
-13954.2
-15702.9
-16887.9
-17492.8
-17523.7
-17011.4
-15985
-14552.6
-12635.4
-10481.5
-8089.13
-5585.67
-3047.15
-562.586
1781.79
3921.41
5773.92
7349.9
8540.21
9362.91
9817.3
9928.68
9726.15
9249.6
8550.42
7654.19
6643.84
5559.09
4378.25
3049.9
1744.54
433.931
-862.165
-2105.88
-3271.67
-4319.65
-5203.15
-5894.24
-6354.89
-6565.77
-6551.64
-6327.57
-5943.24
-5429.12
-425.282
-590.34
-993.664
-1699
-2740.16
-4198.18
-6199.65
-8945.1
-12062.3
-15133.9
-18096.6
-20778.8
-23445
-26301.9
-29584.6
-33577.8
-38589.2
-44813.8
-51978.7
-58974.5
-64266.5
-66869.1
-67409.4
-67254.4
-66706.5
-65594.8
-63843.5
-60379.1
-53255
-49287.4
-45214.4
-40797.1
-35859.6
-30284.6
-23993.7
-16952.8
-9189.22
-735.295
7564.07
15747.5
23421.1
30224.4
35869.2
40179.2
43093.2
44646.9
44953.5
44263
42853
38488.8
34290.7
29601.7
24603.4
19423.1
14179.9
8845.15
3621.62
-1073.54
-4256.62
-6780.89
-8708.6
-10111.3
-11050.7
-11575.5
-11709.8
-11538
-11045.4
-9830.1
-8265.52
-6175.27
-4740.99
-3781.1
-3320.66
-3242.27
-3306.06
-3470.03
-3822.16
-4321.93
-4925.7
-5457.36
-6001.89
-6548.69
-7102.79
-7694.31
-8313.4
-9182.49
-10093.6
-10511.4
-10772.5
-10804.1
-10656.3
-10388.7
-9820.64
-8898
-7609.89
-5963.95
-3978.29
-1677.41
892.724
3678.92
6572.97
9785.92
12862.6
15379.1
17424.3
18881.5
19663.8
19715.1
19051
17643.1
15614
13039.1
10051
6779.35
3362.8
-59.0318
-3377.98
-6479.27
-9267.48
-11638.7
-13571
-15008.9
-15923.6
-16301.7
-16153.6
-15509
-14406.4
-12931.1
-11038.3
-8936.3
-6639.88
-4261.19
-1872.28
445.861
2614.36
4573.44
6254.3
7659.21
8699.8
9376.96
9706.5
9710.42
9420.32
8875.46
8127.04
7200.73
6168.47
5083
3899
2600.08
1309.65
20.9567
-1257.31
-2486.29
-3639.32
-4675.68
-5544.7
-6214
-6645.45
-6813.75
-6748.91
-6465.57
-6019.56
-5447
-671.267
-815.654
-1198.16
-1859.34
-2835.24
-4247.62
-6251.61
-8791.57
-11482.2
-14047.7
-16460.2
-18571.9
-20643
-22884.3
-25539.5
-28910.9
-33347
-39119.6
-46014.5
-52832.8
-57901.6
-60087.8
-60276.9
-60032.2
-59219.2
-57858.5
-55919
-52775.9
-45158.1
-41542.9
-37916.1
-34088.5
-29890.7
-25197.9
-19908.2
-13949.2
-7301.04
49.4916
7245.86
14357.7
21026.2
26900.6
31703.1
35273.9
37574
38661.7
38670
37861.6
36370.1
32359.1
28609.7
24534.6
20272
15912.9
11527.3
6951.84
2714.9
-1253.3
-3885.25
-5913.37
-7481.92
-8656.35
-9485.14
-9999.81
-10197.2
-10084.3
-9742.48
-8751.68
-7467.38
-5543.75
-4289.94
-3488.27
-3136.71
-3107.05
-3183.52
-3347.27
-3662.9
-4097.45
-4622.11
-5057.87
-5496.9
-5933.18
-6377.46
-6863.74
-7387.45
-8185.31
-9009.63
-9396.65
-9640.41
-9670.36
-9532.42
-9271.9
-8700.71
-7774.39
-6494.13
-4881.63
-2969
-790.252
1602.25
4151.46
6796.98
9708.93
12449.1
14591.6
16245.9
17349.2
17813.5
17602.8
16740.1
15240.7
13174.7
10653.5
7799.34
4735.48
1587.91
-1515.14
-4486.35
-7220.79
-9649.36
-11667.2
-13272.5
-14414
-15069.6
-15228.1
-14904.3
-14127.8
-12943.8
-11421.1
-9538.58
-7474.76
-5257.15
-2985.54
-727.879
1441.62
3450.82
5243.46
6766.58
8008.39
8905.02
9439.24
9644.03
9538.31
9156.71
8538.72
7735.56
6773.81
5717.2
4626.96
3434.94
2162.83
885.199
-385.197
-1649.71
-2869.68
-4016.68
-5049.15
-5911.38
-6564.26
-6971.71
-7097.23
-6977.41
-6629.97
-6115.3
-5476.36
-851.999
-967.143
-1318.63
-1926.75
-2851.44
-4272.66
-6238.77
-8556.92
-10899.4
-13063.9
-15044.2
-16699.5
-18277.7
-19986.6
-22069.5
-24837.4
-28672.5
-33929.3
-40468.2
-46988.1
-51746.8
-53524.3
-53565.9
-53160.8
-52168.6
-50675.1
-48671.2
-45909.2
-38108.5
-34827
-31594.5
-28269.3
-24694
-20744.2
-16305
-11276.5
-5597.73
781.507
7022.38
13187.8
18964.8
24015.7
28074.1
30996
32760.9
33445.5
33197.4
32286.2
30709
26974.8
23586.7
20008.5
16347.9
12670.4
9021.88
5187.62
1739.49
-1490.16
-3708.56
-5276.07
-6496.17
-7432.75
-8128.48
-8605.36
-8835.09
-8755.26
-8466.52
-7720.88
-6703.07
-4981.07
-3827.09
-3165.05
-2912.91
-2928.18
-3018.99
-3185.89
-3472.86
-3852.21
-4307.95
-4664.8
-5013.21
-5350.82
-5693.54
-6079.01
-6507.46
-7234.85
-7963.49
-8319.18
-8548.78
-8586.23
-8463.63
-8220.7
-7659.93
-6744.09
-5486.02
-3918.25
-2084.31
-24.0549
2204.94
4542.35
7010.83
9626.62
12069.8
13886.1
15200.1
15982.3
16157.9
15700.4
14643.4
13042.5
10917.5
8421.49
5668.16
2777.61
-134.825
-2949.07
-5599.54
-7988.35
-10077.1
-11759.7
-13053.3
-13910.6
-14316.8
-14262.1
-13765.2
-12857.1
-11586.6
-10011.3
-8125.66
-6086.74
-3931.61
-1750.3
393.344
2430.5
4295.04
5933.28
7310.64
8395.49
9153.1
9546.02
9625.1
9406.69
8928.94
8232.3
7368.33
6364.98
5281.91
4183.41
2976.62
1730.14
464.396
-790.284
-2043.9
-3259.42
-4405.96
-5441.2
-6303.02
-6944.5
-7330.68
-7412.71
-7236.02
-6817.94
-6226.52
-5512.61
-931.802
-1028.12
-1358.17
-1929.39
-2838.36
-4268.88
-6185.84
-8373.54
-10534.5
-12487.3
-14225.4
-15619.1
-16909.9
-18299.1
-20024.4
-22397.9
-25818.2
-30697.1
-36951
-43165.9
-47554.4
-49007.2
-49080.3
-48643.3
-47632.7
-46124
-44125.9
-41556.5
-33986.9
-30847.3
-27844.9
-24812.6
-21598.9
-18082.3
-14142.6
-9665.16
-4563.2
1238.1
6922.67
12521.2
17764.2
22322.5
25936
28469.7
29914.1
30356.5
29952.4
28976.3
27332.9
23740.6
20546.8
17240.5
13915.6
10631
7415
4041.66
1056.97
-1718.25
-3686.7
-4958.29
-5950.12
-6723.64
-7320.52
-7761.24
-7999.91
-7917.99
-7666.7
-7047.24
-6115.88
-4626.46
-3519.87
-2934.42
-2742.86
-2785.23
-2886.91
-3058
-3330.33
-3677.31
-4079.79
-4403.63
-4699.03
-4975.93
-5254.09
-5573.52
-5937.59
-6617.22
-7277.46
-7612.78
-7836.28
-7885.57
-7777.63
-7553.42
-7006.51
-6104.99
-4868.24
-3334.44
-1554.1
431.093
2559
4767.97
7140.4
9579.83
11841
13462.2
14578.4
15155.4
15148.7
14529.5
13341
11663
9483.85
6988.2
4284.39
1492.1
-1280
-3914.56
-6362.56
-8527.83
-10397.2
-11863.7
-12954.9
-13626.2
-13869
-13672.4
-13058.8
-12060.9
-10727.9
-9113.37
-7217.1
-5186.85
-3064.46
-934.615
1141.73
3098.61
4873.43
6413.65
7699.66
8681.83
9347.66
9645.16
9637.86
9340.66
8794.56
8041.14
7132.42
6097.65
4995.94
3891.64
2668.98
1440.64
182.778
-1062.99
-2311.48
-3527.77
-4678.53
-5721.35
-6588.25
-7226.23
-7600.64
-7652.59
-7434.2
-6963.29
-6313.59
-5542.14
-967.327
-1054.46
-1372.82
-1924.4
-2829.62
-4260.72
-6150.19
-8274.64
-10350.4
-12202.9
-13822.3
-15086.5
-16234.7
-17463.7
-19007.2
-21177.1
-24379.2
-29055.1
-35151.2
-41180.4
-45297.4
-46257.9
-46673.8
-46292.4
-45300.1
-43798.1
-41810.4
-39307.1
-31963.2
-28862.8
-25973.8
-23086.3
-20051.5
-16749.6
-13058.3
-8856.07
-4043.02
1470.7
6879.54
12193.5
17168.9
21480.7
24871.5
27210.7
28494.5
28815.1
28332
27323.1
25643.2
22117.7
19017.1
15842
12680.7
9590.49
6589.17
3450.38
696.866
-1850.14
-3690.82
-4810.35
-5684.31
-6372.4
-6916.3
-7336.77
-7578.47
-7490.54
-7257.39
-6699.62
-5816.15
-4437.66
-3362.56
-2812.11
-2651.12
-2707
-2814.65
-2988.29
-3253.81
-3584.87
-3948.25
-4268.32
-4537.29
-4783.44
-5028.52
-5313.78
-5644.18
-6298.62
-6922.54
-7247.28
-7468.19
-7524.73
-7425.61
-7212.34
-6673.87
-5781.17
-4556.71
-3041.3
-1288.97
658.04
2734.85
4879.5
7205.81
9557.68
11725.6
13251
14268.3
14740.5
14641
13938.2
12681.3
10960.7
8750.69
6251.96
3570.46
826.019
-1876.15
-4419.46
-6764.09
-8813.95
-10570
-11925.7
-12912.6
-13487.8
-13646.1
-13375.8
-12701.3
-11656.4
-10290
-8654.39
-6750.96
-4723.67
-2616.59
-511.812
1531.23
3447.87
5177.24
6667.26
7906.66
8835.99
9454.25
9701.89
9649.22
9310.37
8727.93
7944.13
7011.29
5959.46
4847.68
3740.68
2507.99
1289.66
35.9769
-1205.37
-2451.54
-3668.9
-4822.7
-5870.59
-6741.16
-7378.18
-7746.84
-7783.01
-7542.29
-7042.65
-6361.16
-5558.26
-1003.51
-1079.16
-1382.95
-1913.62
-2817.97
-4244.48
-6104.44
-8169.67
-10168.7
-11930.8
-13443.2
-14588.5
-15603.8
-16680.9
-18048.5
-20017.2
-22998.2
-27462.5
-33386.6
-39192.3
-42931.5
-43574.5
-44256
-43939.2
-42999.8
-41524.9
-39558.3
-37090.3
-30072
-26978.7
-24195.8
-21443.4
-18575.3
-15474.3
-12017.2
-8076.39
-3539.01
1701.41
6846.33
11886.2
16604.2
20679.3
23856.9
26010.5
27141.5
27346.6
26788.4
25748.5
24031.7
20566.1
17550.1
14494.8
11484.2
8575.12
5777.27
2862.49
330.61
-1995.84
-3710.4
-4681.54
-5439.23
-6041.52
-6530.71
-6929.22
-7173.18
-7070.1
-6856.23
-6354.66
-5470.48
-4239.28
-3211.83
-2687.62
-2556.26
-2625.05
-2738.87
-2915.36
-3174.87
-3491.09
-3824.92
-4134.38
-4378.39
-4595.02
-4807.93
-5059.47
-5356.18
-5984.94
-6571.66
-6885.37
-7103.75
-7168.09
-7078.64
-6877.48
-6348.97
-5466.99
-4256.67
-2760.92
-1037.14
872.439
2899.88
4983.78
7267.81
9535.94
11611.7
13050.2
13973.9
14344.3
14155.5
13370.7
12045.6
10280.6
8036.74
5531.17
2867.8
167.118
-2469.06
-4924.12
-7168.08
-9104.11
-10748.4
-11995.4
-12879.6
-13359.9
-13435
-13091.7
-12356.7
-11265
-9864.61
-8207.31
-6295.15
-4269.14
-2175.38
-93.605
1918.27
3796.67
5482.3
6923.41
8117.7
8995.05
9565.96
9764.06
9665.93
9285.08
8665.74
7850.87
6893.1
5823.42
4701.25
3592.27
2346.84
1139.45
-109.972
-1347.12
-2591.28
-3810.39
-4968.09
-6022.26
-6897.72
-7534.81
-7898.36
-7918.63
-7655.04
-7125.66
-6411.14
-5575.41
-1047.36
-1103.85
-1389.15
-1897.76
-2801.87
-4219.34
-6048.63
-8059.03
-9989.65
-11671.2
-13087.5
-14123.9
-15015.5
-15948.4
-17145.7
-18915.7
-21673.1
-25917.5
-31655.4
-37196.8
-40364.4
-40817.4
-41796.6
-41579.5
-40731
-39302.5
-37367
-34928.2
-28281.7
-25187.7
-22504.3
-19877.8
-17165.2
-14252.6
-11016.4
-7324.27
-3050.15
1930.36
6822.8
11598.3
16068.5
19916.3
22889.9
24866.6
25852.4
25948.1
25318.4
24249.1
22494.7
19082.6
16142.8
13196.4
10324
7583.59
4978.32
2278.23
-41.3069
-2154.95
-3743.44
-4569.97
-5212.98
-5729.19
-6162.19
-6537.55
-6779.66
-6659.04
-6462.92
-6012.88
-5130.68
-4033.99
-3064.96
-2561.3
-2458.65
-2539.75
-2659.99
-2839.63
-3093.93
-3396.59
-3699.46
-4002.09
-4222.34
-4410.55
-4592.1
-4810.35
-5073.33
-5675.79
-6224.58
-6526.86
-6742.81
-6815.65
-6736.73
-6548.74
-6031.54
-5162.05
-3967.53
-2492.52
-797.668
1075.32
3055.07
5081.84
7326.71
9515.36
11497.4
12859.4
13695.4
13965.7
13690.6
12824.9
11431.9
9620.26
7339.66
4823.73
2174.64
-486.005
-3059.83
-5429.32
-7575.08
-9398.5
-10932.4
-12072.7
-12855.4
-13241.9
-13234.7
-12818.8
-12023.4
-10884.9
-9449.92
-7770.33
-5847.93
-3821.65
-1739.47
321.12
2303.65
4145.55
5788.86
7182.11
8332.77
9158.67
9682.52
9831.17
9687.33
9263.96
8607.08
7760.39
6776.96
5688.79
4555.9
3446.49
2184.5
989.73
-255.374
-1488.55
-2731.03
-3952.57
-5115.03
-6176.7
-7058.15
-7696.27
-8055.18
-8059.58
-7772.58
-7212.27
-6463.36
-5593.34
-1160.36
-1130.27
-1391.89
-1877.47
-2779.97
-4184.5
-5982.65
-7942.85
-9813.42
-11424
-12755
-13691.9
-14468.7
-15265
-16297.2
-17871.2
-20402.7
-24419
-29956.5
-35191.8
-37453.1
-37888.9
-39197.2
-39207.5
-38494.1
-37130.6
-35235.9
-32827.9
-26579.9
-23485.1
-20895.3
-18385.8
-15817.8
-13081.3
-10053.3
-6597.89
-2575.03
2158.2
6808.84
11328.8
15560
19189.6
21968
23776.1
24624.1
24616.1
23918.8
22821.1
21028.8
17664
14792.5
11944.4
9198.11
6614.51
4191.34
1696.67
-418.846
-2326.95
-3788.01
-4474.3
-5004.28
-5434.25
-5809.74
-6161.19
-6395.66
-6257.17
-6077.12
-5674.14
-4774.5
-3823.58
-2920.02
-2433.35
-2358.55
-2451.37
-2578.24
-2761.34
-3011.21
-3301.69
-3587.84
-3871.78
-4069.25
-4230.09
-4381.11
-4566.47
-4795.68
-5371.09
-5881.23
-6171.52
-6385
-6466.83
-6399.36
-6225.55
-5721.06
-4865.98
-3689.07
-2235.92
-570.407
1266.9
3200.67
5174.55
7382.73
9495.99
11383.5
12678.8
13432.5
13605
13246
12300.5
10839.6
8979.17
6658.85
4128.98
1490.31
-1133.99
-3649.08
-5935.54
-7985.45
-9697.24
-11122.2
-12157.6
-12840.2
-13133.7
-13045.4
-12557.3
-11701.8
-10516.6
-9046.3
-7343.84
-5409.69
-3381.57
-1309.15
732.142
2687.23
4494.44
6096.91
7443.38
8551.4
9326.95
9803.86
9903.24
9713.46
9247.06
8551.96
7672.71
6662.85
5555.51
4411.44
3295.65
2028.5
840.527
-400.228
-1629.59
-2870.69
-4095.37
-5263.48
-6333.94
-7222.63
-7862.9
-8217.76
-8206.12
-7895.11
-7302.69
-6518
-5612.17
-1249.65
-1154.25
-1391.47
-1853.38
-2751.13
-4139.27
-5906.38
-7821.17
-9639.95
-11189
-12445.3
-13291.9
-13962.4
-14629.4
-15501.8
-16882.3
-19185.9
-22965.8
-28289.3
-33188.6
-34699.5
-35020.1
-36346.4
-36815.2
-36291.7
-35009.3
-33164.7
-30793.9
-24956.7
-21866.5
-19364.9
-16963.7
-14529.7
-11957.4
-9125.29
-5893.45
-2113.96
2385.48
6804.28
11076.6
15077.3
18497
21088.7
22736.4
23453.6
23348
22586.7
21460.8
19630.8
16307.8
13496.9
10736.7
8104.59
5666.52
3415.31
1117.23
-801.966
-2511.18
-3842.01
-4393.24
-4811.91
-5155.54
-5472.34
-5799.73
-6018.88
-5864.14
-5698.49
-5338.99
-4458.35
-3609.5
-2775.87
-2304
-2256.2
-2360.19
-2493.91
-2680.73
-2926.97
-3206.62
-3478.12
-3743.61
-3919.2
-4053.69
-4174.97
-4327.85
-4523.26
-5070.65
-5541.48
-5819.14
-6030.02
-6121.17
-6066.12
-5907.45
-5417.04
-4578.4
-3420.97
-1990.82
-355.05
1447.53
3337.06
5263.04
7436.16
9478.09
11271
12508.2
13186
13261.5
12821.4
11797.1
10268.7
8356.88
5993.8
3446.32
814.138
-1777.5
-4237.48
-6443.28
-8399.6
-10000.5
-11318.1
-12250
-12833.6
-13035
-12866.6
-12306.8
-11391.2
-10159.5
-8653.27
-6927.31
-4979.98
-2948.43
-884.018
1139.79
3069.28
4843.55
6406.58
7706.66
8774.22
9499.83
9929.86
9980.21
9744.2
9234.24
8500.27
7587.7
6550.63
5423.48
4267.75
3144.31
1874.12
691.834
-544.531
-1770.24
-3010.24
-4238.76
-5413.4
-6493.97
-7391.12
-8034.57
-8385.89
-8358.4
-8022.81
-7396.97
-6575.05
-5631.79
-1300.29
-1173.24
-1388.23
-1826.09
-2714.36
-4082.99
-5819.61
-7693.9
-9469.14
-10965.8
-12158.3
-12923.1
-13495.9
-14040.7
-14758.2
-15948
-18021.9
-21557.7
-26653.4
-31193.2
-31967.5
-32425.8
-33699.5
-34485.6
-34131.7
-32939.6
-31153.5
-28828.8
-23405.1
-20328
-17909.5
-15608.2
-13297.8
-10878.2
-8229.95
-5208.82
-1665.84
2612.82
6809
10840.9
14618.7
17836.5
20249.6
21744.7
22338.3
22140.6
21319.5
20164.4
18297.6
15011.3
12253.5
9571.06
7041.52
4738.23
2649.19
539.292
-1190.65
-2706.99
-3903.2
-4325.57
-4634.72
-4891.97
-5149.06
-5452.93
-5647.09
-5479.27
-5326.61
-5007.44
-4152.21
-3392.73
-2631.51
-2173.51
-2151.85
-2266.46
-2407.25
-2598.07
-2841.43
-3111.49
-3368
-3617.61
-3772.26
-3881.37
-3973.7
-4094.51
-4256.08
-4774.34
-5205.23
-5469.51
-5677.56
-5778.21
-5736.59
-5593.92
-5118.97
-4298.94
-3162.98
-1757
-151.377
1617.49
3464.56
5348.8
7487.37
9461.9
11004.3
12347.6
12951.3
12939.8
12416.5
11314.5
9718.4
7752.66
5343.72
2774.92
145.294
-2417.29
-4825.78
-6953.11
-8817.96
-10308.6
-11520.3
-12349.9
-12835.7
-12945.8
-12698.4
-12067.1
-11091.6
-9813.47
-8270.76
-6520.66
-4558.79
-2522.2
-464.045
1544.12
3449.85
5192.95
6717.92
7971.83
9003.08
9677.3
10060.4
10062
9779.49
9225.4
8451.86
7505.2
6440.13
5292.54
4124.62
2992.72
1720.81
543.586
-688.315
-1910.46
-3149.62
-4382.74
-5564.85
-6656.96
-7563.98
-8211.96
-8560.43
-8516.71
-8155.9
-7495.27
-6634.6
-5652.26
-1348.59
-1189.39
-1382.39
-1794.72
-2667.2
-4012.56
-5718.51
-7555.95
-9294.67
-10748.3
-11882.2