/*--------------------------------*- C++ -*----------------------------------*\
| =========                 |                                                 |
| \\      /  F ield         | OpenFOAM: The Open Source CFD Toolbox           |
|  \\    /   O peration     | Version:  v1912                                 |
|   \\  /    A nd           | Website:  www.openfoam.com                      |
|    \\/     M anipulation  |                                                 |
\*---------------------------------------------------------------------------*/
FoamFile
{
    version     2.0;
    format      ascii;
    class       volScalarField;
    location    "60";
    object      omega;
}
// * * * * * * * * * * * * * * * * * * * * * * * * * * * * * * * * * * * * * //

dimensions      [0 0 -1 0 0 0 0];


internalField   nonuniform List<scalar> 
14268
(
0.0118141
0.0117203
0.0111759
0.0105602
0.010309
0.0101986
0.0101044
0.00999193
0.00985881
0.00972226
0.00959011
0.00946352
0.00934468
0.00924469
0.00917169
0.00910817
0.00905131
0.00901169
0.00898965
0.00898561
0.00900649
0.0090444
0.0090883
0.00913363
0.0091816
0.00922997
0.0092765
0.00932059
0.00936209
0.00940094
0.00943679
0.00946953
0.00949972
0.00952922
0.0095598
0.00959172
0.00962403
0.00965625
0.00968718
0.00971415
0.00973427
0.00974639
0.00975063
0.00974659
0.0097352
0.00972181
0.00970699
0.0096917
0.0096784
0.00966948
0.00966748
0.00967438
0.00969008
0.00971141
0.00973377
0.00975241
0.00976414
0.00976754
0.0097632
0.00975276
0.00974054
0.00972797
0.00971388
0.00969841
0.00968198
0.00966523
0.00964946
0.00963487
0.0096207
0.00960749
0.00959435
0.00958202
0.00957133
0.00956185
0.00955278
0.00954319
0.00953294
0.0095219
0.00951011
0.00949761
0.00948443
0.00947067
0.00945657
0.00944241
0.00942859
0.00941548
0.00940348
0.00939272
0.00938668
0.00938897
0.00940177
0.00942636
0.00946297
0.00951046
0.0095662
0.00962566
0.00968677
0.00974541
0.00979436
0.00983377
0.00986347
0.00988437
0.00989817
0.0099066
0.00991129
0.00991354
0.0099141
0.00991301
0.00990945
0.00990272
0.00989514
0.00988687
0.00987696
0.00986455
0.00984913
0.0098307
0.00981021
0.00978882
0.00976776
0.00974783
0.0097307
0.00971619
0.00970368
0.0096928
0.00968285
0.00967341
0.00966409
0.00965452
0.00964461
0.0096353
0.00962923
0.00962626
0.00962652
0.0096303
0.00963769
0.00964876
0.00966271
0.00967884
0.00969688
0.00971428
0.00972951
0.009742
0.00975128
0.00975724
0.00976002
0.00975983
0.00975671
0.0097506
0.00974095
0.00972934
0.00971785
0.00970647
0.00969516
0.00968388
0.00967254
0.00966129
0.00965057
0.0096406
0.00963166
0.00962367
0.00961589
0.00960749
0.00959708
0.00958868
1.79036
1.22906
0.637191
0.355001
0.24227
0.199142
0.183437
0.179009
0.178873
0.180937
0.184475
0.188389
0.192303
0.196212
0.20027
0.203959
0.207035
0.209544
0.211418
0.212698
0.213456
0.213774
0.213721
0.21334
0.212618
0.21169
0.210586
0.209383
0.208151
0.206909
0.205669
0.204427
0.203179
0.201858
0.200387
0.198713
0.196819
0.194732
0.192507
0.190219
0.18794
0.185702
0.18348
0.18129
0.179164
0.176929
0.174508
0.171912
0.169134
0.166186
0.163064
0.159695
0.156009
0.152098
0.148106
0.144215
0.140665
0.137701
0.135542
0.134298
0.133942
0.134373
0.135584
0.137409
0.139692
0.142294
0.145079
0.147905
0.150634
0.15343
0.156358
0.159103
0.161643
0.163922
0.166056
0.168039
0.16991
0.171682
0.173366
0.174971
0.176495
0.177929
0.179248
0.18041
0.181357
0.182015
0.182321
0.182167
0.181664
0.180748
0.179373
0.177512
0.175174
0.172396
0.16926
0.165941
0.162345
0.158564
0.155117
0.151862
0.148908
0.14627
0.143966
0.141965
0.140221
0.138687
0.137343
0.136211
0.135348
0.134828
0.134757
0.135225
0.136338
0.138102
0.140477
0.143377
0.146654
0.150099
0.153778
0.157307
0.160507
0.163298
0.1656
0.167435
0.168807
0.169753
0.170311
0.170525
0.170411
0.170029
0.169468
0.168701
0.167712
0.166498
0.165067
0.163424
0.161609
0.15965
0.157522
0.155356
0.153231
0.151186
0.149271
0.147524
0.145978
0.144663
0.143589
0.142755
0.14216
0.14182
0.141776
0.142027
0.142583
0.143442
0.144616
0.14609
0.147826
0.149793
0.151917
0.154095
0.156269
0.15831
0.160216
0.161854
1.83595
1.31254
0.703453
0.41833
0.307767
0.265384
0.250142
0.245788
0.245371
0.246304
0.248084
0.250048
0.251858
0.253497
0.255077
0.256218
0.256975
0.257586
0.258065
0.258405
0.258632
0.258787
0.258936
0.258942
0.258806
0.258576
0.258291
0.257927
0.25756
0.257217
0.256881
0.256549
0.256235
0.255913
0.255537
0.255082
0.254541
0.253915
0.25322
0.252479
0.251727
0.25099
0.250269
0.249593
0.248972
0.248324
0.247656
0.246915
0.246032
0.244976
0.243741
0.242303
0.240652
0.238855
0.236991
0.23516
0.233468
0.232022
0.230921
0.230203
0.229665
0.229302
0.229097
0.229023
0.229045
0.229134
0.229244
0.229352
0.229457
0.229558
0.229745
0.230013
0.230219
0.2303
0.230372
0.230446
0.230506
0.23055
0.230573
0.230569
0.230532
0.23046
0.230351
0.230204
0.230018
0.229791
0.22952
0.229208
0.22884
0.228387
0.227834
0.22717
0.226383
0.22547
0.224438
0.22329
0.222098
0.220957
0.219743
0.218559
0.21748
0.216498
0.21562
0.214833
0.214115
0.213448
0.212818
0.212228
0.211709
0.211284
0.21097
0.2108
0.210788
0.210936
0.211228
0.211627
0.212084
0.21254
0.213126
0.213779
0.21426
0.214655
0.214984
0.215228
0.215395
0.215486
0.215509
0.215456
0.215307
0.215084
0.21482
0.214502
0.214124
0.213685
0.213176
0.2126
0.211939
0.21121
0.210453
0.20964
0.208786
0.207929
0.207089
0.206286
0.205539
0.20487
0.204291
0.203811
0.203403
0.203059
0.202814
0.20267
0.202629
0.202692
0.202866
0.20314
0.20351
0.203985
0.204522
0.205085
0.205649
0.206205
0.206705
0.207075
1.83623
1.33647
0.73644
0.448331
0.337715
0.295729
0.28044
0.27548
0.273961
0.273413
0.272857
0.271879
0.270396
0.26883
0.267364
0.265916
0.264552
0.263378
0.262377
0.261514
0.260781
0.26017
0.259651
0.259092
0.258523
0.257931
0.257308
0.256673
0.256056
0.255468
0.254905
0.254376
0.253895
0.253446
0.253014
0.252586
0.252158
0.251727
0.25129
0.250848
0.250401
0.249953
0.249507
0.249064
0.248624
0.24818
0.247712
0.247194
0.246609
0.245947
0.245188
0.244335
0.243401
0.242382
0.241302
0.240206
0.23915
0.238187
0.237372
0.23672
0.236062
0.235377
0.234693
0.234029
0.233403
0.232829
0.232318
0.231874
0.231498
0.231176
0.230914
0.23077
0.230636
0.230474
0.230339
0.230236
0.230143
0.23003
0.229893
0.229731
0.229543
0.229331
0.229095
0.228839
0.228566
0.228288
0.228016
0.227768
0.227542
0.227289
0.226983
0.226622
0.226214
0.225769
0.225298
0.22483
0.224336
0.223804
0.223225
0.222627
0.222072
0.221555
0.221098
0.220698
0.220351
0.220047
0.219782
0.219558
0.219393
0.219264
0.219144
0.219035
0.218937
0.218864
0.218823
0.218824
0.218859
0.218917
0.219093
0.219205
0.21931
0.219357
0.219337
0.219292
0.21923
0.219165
0.219102
0.219047
0.219001
0.21896
0.218905
0.218818
0.218696
0.218541
0.218353
0.21813
0.21789
0.217632
0.217334
0.217042
0.21677
0.216512
0.216252
0.215996
0.215751
0.215529
0.215337
0.215177
0.215039
0.214925
0.21484
0.214786
0.214763
0.214771
0.214819
0.214899
0.215018
0.215167
0.215301
0.215402
0.21548
0.215481
0.215498
0.215504
1.8382
1.35952
0.764675
0.465393
0.349862
0.305806
0.288985
0.282449
0.279341
0.277109
0.274923
0.27252
0.269921
0.26728
0.264654
0.262101
0.259713
0.257579
0.255732
0.254174
0.252895
0.251865
0.251016
0.250249
0.249568
0.248977
0.248446
0.247953
0.247506
0.247107
0.24676
0.246471
0.246241
0.246064
0.245941
0.24587
0.245845
0.245861
0.24591
0.245972
0.246028
0.246063
0.246067
0.246046
0.246004
0.245938
0.245836
0.245686
0.245474
0.245178
0.244775
0.244235
0.243553
0.242769
0.241923
0.241064
0.240251
0.239537
0.238969
0.238544
0.23804
0.237413
0.236709
0.235968
0.23523
0.234525
0.233874
0.23329
0.232781
0.232337
0.231956
0.231686
0.231457
0.23123
0.231034
0.230871
0.230721
0.230579
0.230438
0.230294
0.230141
0.229981
0.229815
0.229645
0.229474
0.229291
0.229071
0.228818
0.228566
0.228334
0.22812
0.227916
0.227709
0.227484
0.227221
0.226898
0.226537
0.226171
0.225736
0.225286
0.224882
0.224519
0.224214
0.223963
0.223762
0.223603
0.22348
0.223393
0.223352
0.22333
0.223256
0.223115
0.222899
0.222616
0.222281
0.221918
0.221544
0.221176
0.22092
0.220777
0.220618
0.220505
0.220455
0.220435
0.220438
0.220429
0.220402
0.220363
0.22032
0.220273
0.220232
0.220188
0.220143
0.220097
0.220044
0.219984
0.219898
0.219799
0.219702
0.219578
0.219428
0.219272
0.219118
0.218974
0.218843
0.21873
0.218636
0.218564
0.218477
0.218365
0.218239
0.2181
0.217948
0.217783
0.217612
0.217438
0.217278
0.217158
0.217061
0.216991
0.216969
0.216947
0.216964
0.216854
1.84052
1.37454
0.780442
0.470297
0.350077
0.304371
0.286783
0.279569
0.275796
0.272774
0.269675
0.266262
0.262547
0.258827
0.255215
0.251847
0.248867
0.246422
0.244508
0.243053
0.241973
0.241181
0.240555
0.240027
0.239575
0.239185
0.238834
0.238518
0.238232
0.237985
0.237783
0.237631
0.237536
0.237494
0.237512
0.237588
0.237728
0.237928
0.238184
0.238479
0.238789
0.239083
0.239342
0.239565
0.239764
0.239938
0.240084
0.240201
0.240293
0.240356
0.240377
0.24034
0.240211
0.239967
0.239606
0.239151
0.238651
0.238179
0.237779
0.237432
0.236948
0.236308
0.235568
0.234775
0.233971
0.233196
0.232473
0.231819
0.231243
0.230739
0.230305
0.229953
0.229649
0.229364
0.229111
0.228896
0.228706
0.228534
0.228374
0.228202
0.228009
0.227792
0.227547
0.227274
0.226978
0.22667
0.226369
0.226095
0.225851
0.225641
0.225468
0.225313
0.225159
0.225017
0.224887
0.224729
0.224552
0.224368
0.224134
0.223871
0.22363
0.22341
0.223224
0.22307
0.222947
0.222852
0.222782
0.22274
0.222731
0.22271
0.222627
0.22246
0.222204
0.221867
0.221482
0.221075
0.220681
0.220326
0.220106
0.220007
0.219921
0.21984
0.219727
0.219612
0.219498
0.219399
0.219317
0.219258
0.219221
0.219204
0.219197
0.219191
0.21917
0.219138
0.219095
0.219041
0.218987
0.218932
0.218865
0.218805
0.218743
0.218673
0.218601
0.218532
0.218467
0.218411
0.218367
0.218324
0.218272
0.218211
0.218141
0.218059
0.217971
0.217875
0.217785
0.217703
0.217637
0.217611
0.217606
0.21759
0.217546
0.217435
0.217393
0.217315
1.84365
1.38991
0.794295
0.471052
0.345621
0.298063
0.279588
0.271625
0.267005
0.263077
0.259008
0.254689
0.250367
0.246529
0.243243
0.240564
0.238536
0.237001
0.235834
0.234955
0.234298
0.233767
0.23333
0.232975
0.232688
0.232454
0.232251
0.23208
0.231965
0.231879
0.231834
0.231828
0.231887
0.231991
0.232144
0.23234
0.232585
0.23288
0.233222
0.233602
0.234001
0.234386
0.234737
0.235047
0.235325
0.235572
0.235781
0.235952
0.236094
0.236209
0.236298
0.236349
0.236357
0.236321
0.236235
0.236105
0.235936
0.235739
0.235549
0.235319
0.23487
0.234227
0.233457
0.232613
0.231747
0.230907
0.230123
0.229428
0.228838
0.228343
0.227943
0.227636
0.227404
0.227224
0.227098
0.227022
0.226971
0.22694
0.226918
0.226895
0.226853
0.226782
0.226674
0.226528
0.226341
0.226118
0.225868
0.225608
0.225348
0.2251
0.22487
0.224662
0.224472
0.224294
0.224117
0.223924
0.22372
0.223507
0.223266
0.223005
0.222777
0.222581
0.222426
0.222309
0.222224
0.222168
0.22214
0.222138
0.222168
0.222176
0.222119
0.221974
0.22173
0.2214
0.221024
0.220623
0.220236
0.219901
0.219696
0.21961
0.219548
0.219541
0.219548
0.219533
0.219506
0.219476
0.219448
0.219421
0.219396
0.219375
0.21936
0.219337
0.219312
0.21929
0.219268
0.219245
0.219207
0.219163
0.219122
0.219063
0.21899
0.218917
0.218849
0.218792
0.218749
0.218721
0.218709
0.218687
0.218644
0.218583
0.21851
0.218426
0.218327
0.21821
0.218083
0.217947
0.217823
0.217737
0.217683
0.217657
0.217687
0.217681
0.21772
0.217591
1.84748
1.40892
0.814054
0.471809
0.337679
0.287297
0.267791
0.259253
0.254198
0.250065
0.246265
0.242893
0.239947
0.237512
0.235532
0.233973
0.232806
0.231946
0.231289
0.230706
0.230193
0.229746
0.229373
0.229074
0.228851
0.228674
0.228537
0.228444
0.228413
0.228432
0.228499
0.22865
0.228849
0.229088
0.229363
0.229659
0.229978
0.230329
0.230713
0.231127
0.231553
0.231968
0.232354
0.232699
0.233002
0.23326
0.233461
0.233603
0.23369
0.233725
0.233718
0.23367
0.233579
0.233449
0.233289
0.233118
0.232957
0.232826
0.232732
0.232544
0.232118
0.231497
0.230754
0.229955
0.229167
0.228444
0.227825
0.227318
0.226918
0.226627
0.226438
0.226335
0.226301
0.226316
0.226369
0.226453
0.226546
0.226634
0.226705
0.22675
0.226764
0.226736
0.226655
0.226518
0.226324
0.226077
0.225791
0.225484
0.225171
0.224866
0.224574
0.224303
0.224049
0.223805
0.223563
0.223315
0.223068
0.222806
0.222534
0.222248
0.222002
0.221795
0.221633
0.22151
0.221421
0.221363
0.221334
0.221336
0.221374
0.22139
0.221347
0.221221
0.221003
0.220711
0.220386
0.220055
0.219758
0.219532
0.219433
0.219446
0.219481
0.219506
0.219473
0.219423
0.219359
0.219299
0.219249
0.219211
0.219184
0.219166
0.219154
0.21913
0.219099
0.219071
0.219043
0.219008
0.218967
0.218925
0.218883
0.218833
0.218776
0.218724
0.218682
0.21865
0.218632
0.218621
0.2186
0.218566
0.218528
0.218482
0.218425
0.218358
0.218281
0.218193
0.218106
0.218024
0.217968
0.217957
0.218002
0.218083
0.218174
0.218225
0.2183
0.218197
1.85198
1.43068
0.840316
0.480265
0.335088
0.279099
0.257528
0.248618
0.244099
0.241034
0.238542
0.236467
0.234642
0.233208
0.23211
0.231298
0.230725
0.230268
0.22977
0.229251
0.228748
0.228291
0.227896
0.227573
0.227328
0.22712
0.226969
0.226888
0.226873
0.226947
0.2271
0.227355
0.227659
0.227998
0.228358
0.228724
0.229097
0.22949
0.229908
0.230344
0.23079
0.231231
0.231649
0.232022
0.232347
0.232615
0.232812
0.232932
0.232975
0.232943
0.232834
0.232661
0.232441
0.232186
0.231905
0.231618
0.23136
0.231162
0.231027
0.230775
0.230332
0.229747
0.229087
0.228416
0.227788
0.227242
0.226799
0.226468
0.226247
0.226123
0.226074
0.22609
0.226162
0.226268
0.226399
0.226558
0.226715
0.226853
0.226978
0.227081
0.227157
0.2272
0.227194
0.227118
0.226974
0.226755
0.226465
0.226119
0.225735
0.225336
0.224937
0.224555
0.224197
0.223863
0.223551
0.223255
0.222976
0.222678
0.222382
0.222081
0.221833
0.221634
0.221481
0.22137
0.221294
0.221248
0.221229
0.221242
0.221292
0.221313
0.221275
0.221157
0.220954
0.220683
0.220378
0.220072
0.219807
0.219624
0.219577
0.219656
0.219776
0.219883
0.219945
0.219991
0.220027
0.220061
0.220093
0.220118
0.220132
0.220131
0.220124
0.220091
0.220032
0.219962
0.219884
0.219801
0.2197
0.219595
0.219494
0.219389
0.219283
0.219191
0.219121
0.219073
0.21905
0.219031
0.219001
0.218964
0.218926
0.218884
0.218837
0.218786
0.218731
0.218674
0.218628
0.218597
0.218598
0.218651
0.218754
0.218912
0.219112
0.219282
0.219448
0.219417
1.85699
1.45473
0.87297
0.493196
0.338331
0.277706
0.253612
0.243907
0.23959
0.237138
0.235427
0.2341
0.233015
0.232173
0.231557
0.231119
0.230785
0.230359
0.229843
0.22928
0.228717
0.228196
0.227752
0.227395
0.227118
0.226866
0.226674
0.226568
0.226542
0.226641
0.22683
0.227137
0.227489
0.227869
0.22826
0.228656
0.229062
0.229481
0.229933
0.230393
0.230836
0.23127
0.231701
0.232119
0.23249
0.232789
0.232999
0.233109
0.233115
0.23302
0.232835
0.23258
0.232276
0.231943
0.231595
0.231249
0.230942
0.230708
0.230496
0.230142
0.229643
0.229047
0.228427
0.227824
0.227292
0.226853
0.226519
0.226293
0.226167
0.226124
0.22615
0.226251
0.226423
0.226649
0.226911
0.227185
0.227451
0.227706
0.227954
0.228193
0.228411
0.228595
0.228719
0.228771
0.228718
0.228552
0.228258
0.227846
0.227338
0.226766
0.226152
0.225539
0.22495
0.224396
0.223888
0.223446
0.223069
0.222705
0.222377
0.22206
0.221812
0.22162
0.221482
0.221387
0.221326
0.221295
0.221289
0.22132
0.221383
0.221408
0.221369
0.221249
0.221047
0.220784
0.22049
0.220219
0.220016
0.219928
0.219998
0.220213
0.220434
0.220603
0.22072
0.220811
0.220876
0.220934
0.220987
0.221034
0.221074
0.2211
0.221104
0.221074
0.221001
0.220904
0.220795
0.220674
0.220534
0.220389
0.22025
0.220118
0.219994
0.219895
0.219821
0.219756
0.219704
0.219656
0.21961
0.219575
0.219554
0.219539
0.219525
0.219513
0.219507
0.219508
0.21953
0.219579
0.219674
0.219839
0.220069
0.220364
0.220675
0.220954
0.221196
0.221228
1.86238
1.48047
0.911618
0.511151
0.344375
0.279139
0.253522
0.243018
0.238517
0.236274
0.234875
0.233872
0.23304
0.23245
0.232126
0.231989
0.231792
0.231434
0.230943
0.230358
0.229735
0.229122
0.228573
0.228134
0.227776
0.227438
0.227168
0.227007
0.226959
0.227085
0.227333
0.227724
0.228192
0.228694
0.229199
0.229729
0.23031
0.230883
0.231431
0.231898
0.232309
0.232688
0.233062
0.233449
0.233861
0.234207
0.234439
0.234526
0.234458
0.234239
0.233893
0.233457
0.232974
0.232492
0.232043
0.231642
0.231314
0.231076
0.230762
0.230301
0.229718
0.229067
0.228411
0.227803
0.227282
0.226878
0.226604
0.226462
0.226445
0.226536
0.226722
0.227001
0.227375
0.227804
0.228241
0.228695
0.229154
0.229627
0.230098
0.230569
0.231026
0.231447
0.231803
0.232059
0.232192
0.232166
0.231932
0.231468
0.230793
0.229962
0.22901
0.228015
0.227029
0.226094
0.225243
0.224498
0.223875
0.223314
0.222873
0.222469
0.222149
0.221918
0.221752
0.22165
0.221599
0.221584
0.221594
0.221647
0.221714
0.221738
0.221695
0.221572
0.221372
0.221124
0.220863
0.220654
0.220552
0.220596
0.220825
0.221207
0.221558
0.221851
0.222101
0.222323
0.222517
0.222695
0.222856
0.222992
0.223098
0.223172
0.223197
0.223167
0.223071
0.222922
0.222743
0.222539
0.222306
0.222065
0.221826
0.221604
0.221408
0.221234
0.221089
0.220972
0.22088
0.220812
0.220763
0.220735
0.22073
0.220744
0.220768
0.2208
0.220847
0.220913
0.221012
0.221155
0.221361
0.221657
0.222026
0.22246
0.222913
0.223328
0.223682
0.223804
1.86811
1.50741
0.95609
0.534313
0.353898
0.282599
0.25464
0.243518
0.238812
0.236603
0.23534
0.234547
0.234095
0.233987
0.234173
0.234419
0.234467
0.234293
0.233903
0.233319
0.232604
0.231846
0.23112
0.230526
0.23003
0.229552
0.229162
0.228932
0.228881
0.229113
0.229584
0.230185
0.230922
0.231672
0.232375
0.233003
0.233569
0.234114
0.2346
0.234975
0.235282
0.235554
0.235833
0.236148
0.236522
0.236929
0.237184
0.237234
0.237058
0.236655
0.236065
0.23535
0.234589
0.233862
0.233218
0.232686
0.232259
0.231849
0.231345
0.230738
0.230058
0.229341
0.228657
0.228053
0.227581
0.227269
0.227136
0.22717
0.227367
0.227695
0.228132
0.228695
0.229339
0.230022
0.230716
0.23144
0.232197
0.232985
0.233791
0.2346
0.235396
0.236156
0.236842
0.237403
0.237789
0.237968
0.237839
0.237336
0.236442
0.235197
0.233705
0.232102
0.230519
0.229048
0.227727
0.226552
0.225552
0.224713
0.224071
0.223514
0.223032
0.222692
0.22245
0.222288
0.222218
0.222205
0.222223
0.222287
0.222351
0.22237
0.222322
0.222195
0.222002
0.221777
0.221574
0.221454
0.221477
0.221695
0.222139
0.222728
0.223238
0.223681
0.224075
0.224422
0.224726
0.225
0.225246
0.225461
0.225641
0.225774
0.225836
0.225813
0.225702
0.225511
0.225263
0.224978
0.22467
0.224359
0.224052
0.223729
0.223412
0.223125
0.222883
0.222691
0.222549
0.222453
0.222398
0.222384
0.222407
0.222464
0.222541
0.222631
0.222743
0.222886
0.223078
0.223331
0.22367
0.224121
0.224668
0.225285
0.225904
0.226468
0.226946
0.227158
1.87407
1.53532
1.00618
0.563025
0.367349
0.288667
0.257511
0.245183
0.240194
0.238045
0.237081
0.236769
0.236921
0.237498
0.238342
0.239072
0.23953
0.239664
0.239421
0.238824
0.237971
0.236989
0.235991
0.235139
0.234414
0.233745
0.233234
0.232952
0.232977
0.23342
0.23422
0.235046
0.235922
0.236753
0.237506
0.238172
0.238762
0.239307
0.239729
0.239989
0.240154
0.240277
0.24045
0.240735
0.241127
0.241592
0.241891
0.24189
0.24154
0.240835
0.239841
0.238671
0.237457
0.236358
0.235432
0.234695
0.234066
0.233383
0.232619
0.23179
0.230941
0.230106
0.229373
0.228798
0.228434
0.228292
0.228377
0.228692
0.229212
0.229887
0.230695
0.231622
0.232611
0.233673
0.234778
0.235935
0.23715
0.238426
0.239757
0.24112
0.242495
0.243855
0.245148
0.246298
0.247211
0.247783
0.247896
0.247345
0.246117
0.244149
0.241633
0.238888
0.236198
0.233764
0.23168
0.229959
0.228464
0.227242
0.226095
0.225195
0.224515
0.224015
0.22365
0.223399
0.223253
0.223217
0.223238
0.223308
0.223373
0.223386
0.223333
0.223199
0.223013
0.222816
0.222682
0.222666
0.222844
0.223281
0.223987
0.224787
0.225476
0.226096
0.226679
0.227209
0.227683
0.228113
0.228503
0.228851
0.229141
0.229355
0.229466
0.229449
0.229301
0.229031
0.228665
0.228248
0.22781
0.227385
0.226972
0.226526
0.226083
0.225679
0.225334
0.22506
0.224863
0.224737
0.224674
0.224669
0.22472
0.224821
0.224951
0.225103
0.225284
0.225511
0.225803
0.226177
0.226664
0.227292
0.228046
0.228882
0.229709
0.230467
0.231115
0.23145
1.88018
1.56393
1.06139
0.597303
0.384972
0.297765
0.262646
0.248634
0.243218
0.241214
0.240719
0.241069
0.242095
0.243649
0.2454
0.246887
0.24798
0.248561
0.248541
0.247889
0.246747
0.245301
0.243746
0.242361
0.241179
0.240128
0.239362
0.23896
0.239051
0.239736
0.240833
0.241952
0.243127
0.24423
0.24518
0.24595
0.246564
0.247086
0.247432
0.24755
0.247529
0.247471
0.247545
0.247816
0.248264
0.248844
0.249257
0.249216
0.248641
0.24752
0.24592
0.244009
0.24206
0.240281
0.238784
0.23761
0.236558
0.235526
0.234488
0.233433
0.232427
0.231514
0.230789
0.230288
0.230084
0.230179
0.230593
0.23131
0.232281
0.233466
0.234776
0.236202
0.237747
0.239434
0.241236
0.243142
0.245154
0.247291
0.249554
0.251927
0.25439
0.256904
0.259393
0.261733
0.263739
0.265154
0.26577
0.265135
0.263264
0.259844
0.255257
0.250184
0.245244
0.240887
0.237319
0.234577
0.232322
0.230287
0.228688
0.227469
0.22653
0.225817
0.225294
0.224939
0.224738
0.224674
0.224699
0.224779
0.224849
0.22486
0.224796
0.224649
0.224465
0.224299
0.224234
0.224336
0.224705
0.225389
0.226381
0.227431
0.228363
0.229236
0.230082
0.230859
0.231551
0.232175
0.232738
0.233243
0.233664
0.23397
0.234122
0.234085
0.233858
0.233453
0.232898
0.232267
0.23163
0.231038
0.230486
0.229906
0.22933
0.228806
0.228363
0.228014
0.227767
0.227616
0.227549
0.227562
0.227648
0.227801
0.227997
0.228224
0.228491
0.228817
0.229226
0.229739
0.230389
0.231214
0.232195
0.233288
0.234376
0.235384
0.236247
0.23673
1.88446
1.58384
1.10131
0.623003
0.398518
0.305012
0.266926
0.251628
0.245845
0.243988
0.243847
0.244714
0.24644
0.248767
0.251209
0.253355
0.255123
0.256406
0.257103
0.257092
0.256197
0.254461
0.25219
0.250066
0.248266
0.24673
0.245643
0.245078
0.245189
0.246193
0.247639
0.249217
0.250845
0.252329
0.253519
0.25435
0.254858
0.255164
0.255243
0.255065
0.254796
0.254617
0.254664
0.254988
0.255556
0.256293
0.25686
0.256845
0.256124
0.254669
0.252557
0.249959
0.247195
0.244586
0.242328
0.240466
0.238822
0.237347
0.236034
0.2348
0.233673
0.232706
0.231994
0.231567
0.231485
0.231757
0.232435
0.233473
0.234818
0.236412
0.238105
0.239951
0.241976
0.244212
0.246635
0.249228
0.252001
0.254996
0.258233
0.261727
0.265503
0.269591
0.274006
0.27868
0.283351
0.287471
0.290172
0.290264
0.287528
0.2816
0.273417
0.264493
0.256048
0.248877
0.243286
0.239006
0.235781
0.233038
0.231003
0.22943
0.228188
0.227252
0.226584
0.226148
0.225909
0.225834
0.225863
0.22595
0.226019
0.226022
0.225943
0.22578
0.225589
0.225441
0.225417
0.225605
0.226111
0.226981
0.2282
0.229458
0.230625
0.231774
0.23295
0.234091
0.235147
0.236108
0.236965
0.237688
0.238242
0.23861
0.238773
0.238673
0.238315
0.237705
0.236876
0.235937
0.234997
0.234136
0.23337
0.232613
0.231877
0.231212
0.230657
0.230228
0.229931
0.229754
0.229686
0.229712
0.229826
0.230018
0.230261
0.230544
0.230873
0.23127
0.231763
0.232372
0.233138
0.234107
0.235268
0.236574
0.237892
0.239163
0.240329
0.241127
1.88687
1.59482
1.12352
0.638076
0.406731
0.309619
0.269786
0.253716
0.247689
0.245937
0.245992
0.247208
0.249384
0.252203
0.255133
0.257887
0.260477
0.262788
0.264497
0.265111
0.264164
0.261906
0.258955
0.256152
0.253735
0.251703
0.250288
0.249563
0.249689
0.250967
0.252732
0.254712
0.256768
0.258632
0.260053
0.260916
0.261265
0.261287
0.260945
0.260334
0.259717
0.259318
0.259252
0.259548
0.260168
0.260992
0.261638
0.261619
0.260785
0.259105
0.256688
0.253753
0.250632
0.247695
0.245062
0.24266
0.240521
0.238653
0.237094
0.235733
0.234531
0.23353
0.232824
0.232446
0.232442
0.232843
0.233692
0.234939
0.236537
0.238377
0.240344
0.242507
0.244908
0.247587
0.250537
0.253753
0.257276
0.26118
0.265528
0.270388
0.275876
0.282134
0.289273
0.297211
0.305342
0.312433
0.316844
0.316928
0.313431
0.304258
0.291236
0.277408
0.265053
0.25513
0.247602
0.24206
0.238069
0.234901
0.232551
0.230736
0.229287
0.228195
0.227423
0.226935
0.226676
0.226598
0.226631
0.226717
0.226775
0.226764
0.226666
0.226486
0.226283
0.226137
0.226131
0.226369
0.226959
0.227953
0.229336
0.230774
0.232185
0.233651
0.235198
0.236694
0.238055
0.239237
0.240247
0.241067
0.241675
0.242057
0.242188
0.242002
0.241508
0.240707
0.239634
0.238429
0.237241
0.236172
0.235237
0.234345
0.233495
0.232728
0.232083
0.231581
0.231232
0.231026
0.230947
0.230977
0.231109
0.231326
0.231598
0.231913
0.232278
0.232716
0.233255
0.23392
0.234756
0.23582
0.237115
0.238594
0.240129
0.241697
0.243221
0.244359
1.88919
1.60578
1.14585
0.654281
0.415637
0.314774
0.273089
0.256188
0.249905
0.248254
0.248522
0.250157
0.25285
0.256248
0.259915
0.263762
0.267878
0.271868
0.274851
0.276021
0.274928
0.272003
0.268059
0.26421
0.26085
0.258055
0.256118
0.255134
0.255286
0.256797
0.258987
0.261512
0.264155
0.266544
0.268289
0.269202
0.26933
0.268919
0.268021
0.266835
0.265726
0.264954
0.264653
0.264857
0.265507
0.266422
0.26715
0.267092
0.26605
0.264002
0.2611
0.257637
0.254045
0.250736
0.247789
0.245022
0.242478
0.240231
0.2384
0.236884
0.235585
0.234533
0.233816
0.233481
0.23356
0.234123
0.235184
0.236689
0.238591
0.240734
0.243074
0.245685
0.248637
0.252003
0.255826
0.260151
0.265084
0.270755
0.277282
0.284816
0.293584
0.303841
0.315732
0.328961
0.34223
0.353089
0.359033
0.358517
0.354893
0.340614
0.318915
0.296072
0.27687
0.262789
0.25278
0.24575
0.240705
0.236908
0.234132
0.232051
0.230419
0.229187
0.228325
0.227789
0.227509
0.227426
0.22746
0.227547
0.227599
0.227579
0.227465
0.227269
0.227052
0.22691
0.226925
0.227222
0.227915
0.229066
0.230663
0.232406
0.234236
0.236209
0.238228
0.240126
0.241774
0.243183
0.244356
0.245283
0.245936
0.246297
0.246333
0.245992
0.245288
0.24422
0.242818
0.241246
0.239703
0.23834
0.237165
0.236102
0.235132
0.234277
0.233563
0.233011
0.232625
0.232398
0.232313
0.232351
0.232502
0.232745
0.233049
0.233401
0.233807
0.234291
0.234886
0.235618
0.236547
0.237741
0.239215
0.24094
0.242826
0.244839
0.246801
0.248236
1.89149
1.6167
1.16834
0.671561
0.425138
0.320393
0.276777
0.259002
0.252466
0.250898
0.251415
0.253536
0.256833
0.261013
0.265879
0.271572
0.278031
0.284307
0.289062
0.291393
0.290615
0.286865
0.281323
0.275809
0.270964
0.266975
0.264187
0.262739
0.262948
0.264743
0.26752
0.27084
0.274363
0.277566
0.279797
0.280793
0.280525
0.279416
0.277633
0.275565
0.273705
0.272373
0.271715
0.271769
0.272442
0.273502
0.274353
0.274266
0.272952
0.270384
0.266785
0.26255
0.258231
0.254325
0.250887
0.247689
0.244747
0.242139
0.239995
0.238263
0.236825
0.235689
0.234945
0.234651
0.234831
0.235583
0.236902
0.238746
0.241036
0.24358
0.246438
0.249716
0.253545
0.258076
0.263455
0.269835
0.277412
0.286375
0.296903
0.309236
0.323731
0.340791
0.360681
0.383011
0.405485
0.42325
0.431755
0.432164
0.431438
0.408647
0.369913
0.328765
0.295647
0.273703
0.259601
0.250452
0.244088
0.239438
0.236051
0.233561
0.231657
0.230263
0.229308
0.228719
0.228425
0.228339
0.228376
0.228461
0.228504
0.228471
0.228336
0.228121
0.227886
0.227748
0.227789
0.228159
0.228982
0.230346
0.232287
0.23452
0.236968
0.239569
0.242157
0.244544
0.246661
0.248501
0.250017
0.251153
0.251861
0.252144
0.251968
0.251352
0.250324
0.248879
0.247025
0.244944
0.242891
0.241078
0.239529
0.238174
0.236993
0.235986
0.235166
0.234538
0.234106
0.233856
0.233768
0.233817
0.233991
0.234265
0.234604
0.234998
0.235452
0.235993
0.236657
0.23748
0.238536
0.23991
0.241641
0.243738
0.246093
0.248602
0.250945
0.252621
1.89389
1.62766
1.19095
0.689881
0.435225
0.326455
0.280836
0.26215
0.255367
0.253873
0.254684
0.257372
0.261436
0.266794
0.273595
0.282082
0.291815
0.301389
0.309163
0.313636
0.313293
0.308057
0.300056
0.292008
0.284887
0.279069
0.274992
0.272841
0.272996
0.275227
0.278858
0.283353
0.288191
0.292605
0.295545
0.296629
0.295747
0.293563
0.29043
0.286997
0.283924
0.281655
0.28041
0.280217
0.280925
0.282193
0.283196
0.283049
0.281335
0.278028
0.273474
0.268228
0.262954
0.258257
0.254193
0.250509
0.247186
0.244257
0.241801
0.239819
0.238211
0.236977
0.236207
0.23597
0.236286
0.237276
0.238921
0.241198
0.243961
0.247092
0.250751
0.255124
0.260457
0.267056
0.275255
0.285392
0.297777
0.312677
0.33034
0.351117
0.375584
0.404477
0.438515
0.477207
0.515849
0.543889
0.551994
0.558733
0.570204
0.534357
0.463307
0.386475
0.32626
0.289846
0.268412
0.255972
0.24795
0.242291
0.238218
0.235251
0.233051
0.231462
0.23039
0.22975
0.229432
0.229339
0.229375
0.229455
0.229487
0.229435
0.229272
0.229031
0.22878
0.228651
0.22873
0.229193
0.230194
0.231876
0.23435
0.237296
0.24055
0.243962
0.247334
0.250506
0.253394
0.255888
0.257875
0.259245
0.259963
0.260005
0.259387
0.258249
0.256675
0.254657
0.252168
0.249398
0.24668
0.244289
0.242277
0.240556
0.2391
0.237893
0.236925
0.2362
0.235709
0.235431
0.235337
0.235395
0.235596
0.235905
0.236286
0.236729
0.237242
0.237856
0.238612
0.23956
0.240793
0.24242
0.244508
0.247076
0.249942
0.252925
0.255642
0.25765
1.89627
1.6386
1.21368
0.70925
0.445907
0.33296
0.28527
0.265639
0.25861
0.2572
0.258361
0.261752
0.266885
0.274066
0.283802
0.29621
0.310595
0.325401
0.338322
0.346326
0.346697
0.339093
0.327253
0.315362
0.3048
0.296204
0.290257
0.287196
0.287088
0.289873
0.294762
0.30098
0.307691
0.313795
0.317749
0.318947
0.317184
0.313434
0.308345
0.302901
0.298015
0.294345
0.292217
0.291648
0.292392
0.29395
0.295189
0.294963
0.292637
0.288198
0.282192
0.27543
0.268785
0.262945
0.257967
0.253598
0.249792
0.246505
0.24374
0.241503
0.239722
0.238398
0.237625
0.237472
0.237971
0.239263
0.241324
0.244159
0.247602
0.251685
0.256682
0.262926
0.270885
0.281155
0.294431
0.311332
0.332328
0.357804
0.388067
0.423579
0.465267
0.514521
0.573318
0.63998
0.703075
0.74311
0.746155
0.778913
0.824042
0.769356
0.636628
0.490752
0.378316
0.316029
0.28142
0.26305
0.252529
0.245608
0.240715
0.237182
0.234613
0.232794
0.231592
0.230888
0.230539
0.230434
0.230464
0.230529
0.230543
0.230466
0.230272
0.230005
0.229742
0.22963
0.229761
0.230354
0.231612
0.233777
0.23702
0.240938
0.245293
0.249922
0.254592
0.259121
0.263285
0.266899
0.269718
0.271493
0.27218
0.271696