/*--------------------------------*- C++ -*----------------------------------*\
| =========                 |                                                 |
| \\      /  F ield         | OpenFOAM: The Open Source CFD Toolbox           |
|  \\    /   O peration     | Version:  v1912                                 |
|   \\  /    A nd           | Website:  www.openfoam.com                      |
|    \\/     M anipulation  |                                                 |
\*---------------------------------------------------------------------------*/
FoamFile
{
    version     2.0;
    format      ascii;
    class       volScalarField;
    location    "50";
    object      alpha.water;
}
// * * * * * * * * * * * * * * * * * * * * * * * * * * * * * * * * * * * * * //

dimensions      [0 0 0 0 0 0 0];


internalField   nonuniform List<scalar> 
14268
(
1
1
1
1
1
1
1
1
1
1
1
1
1
1
1
1
1
1
1
1
1
1
1
1
1
1
1
1
1
1
1
1
1
1
1
1
1
1
1
1
1
1
1
1
1
1
1
1
1
1
1
1
1
1
1
1
1
1
1
1
1
1
1
1
1
1
1
1
1
1
1
1
1
1
1
1
1
1
1
1
1
1
1
1
1
1
1
1
1
1
1
1
1
1
1
1
1
1
1
1
1
1
1
1
1
1
1
1
1
1
1
1
1
1
1
1
1
1
1
1
1
1
1
1
1
1
1
1
1
1
1
1
1
1
1
1
1
1
1
1
1
1
1
1
1
1
1
1
1
1
1
1
1
1
1
1
1
1
1
1
1
1
1
1
1
1
1
1
1
1
1
1
1
1
1
1
1
1
1
1
1
1
1
1
1
1
1
1
1
1
1
1
1
1
1
1
1
1
1
1
1
1
1
1
1
1
1
1
1
1
1
1
1
1
1
1
1
1
1
1
1
1
1
1
1
1
1
1
1
1
1
1
1
1
1
1
1
1
1
1
1
1
1
1
1
1
1
1
1
1
1
1
1
1
1
1
1
1
1
1
1
1
1
1
1
1
1
1
1
1
1
1
1
1
1
1
1
1
1
1
1
1
1
1
1
1
1
1
1
1
1
1
1
1
1
1
1
1
1
1
1
1
1
1
1
1
1
1
1
1
1
1
1
1
1
1
1
1
1
1
1
1
1
1
1
1
1
1
1
1
1
1
1
1
1
1
1
1
1
1
1
1
1
1
1
1
1
1
1
1
1
1
1
1
1
1
1
1
1
1
1
1
1
1
1
1
1
1
1
1
1
1
1
1
1
1
1
1
1
1
1
1
1
1
1
1
1
1
1
1
1
1
1
1
1
1
1
1
1
1
1
1
1
1
1
1
1
1
1
1
1
1
1
1
1
1
1
1
1
1
1
1
1
1
1
1
1
1
1
1
1
1
1
1
1
1
1
1
1
1
1
1
1
1
1
1
1
1
1
1
1
1
1
1
1
1
1
1
1
1
1
1
1
1
1
1
1
1
1
1
1
1
1
1
1
1
1
1
1
1
1
1
1
1
1
1
1
1
1
1
1
1
1
1
1
1
1
1
1
1
1
1
1
1
1
1
1
1
1
1
1
1
1
1
1
1
1
1
1
1
1
1
1
1
1
1
1
1
1
1
1
1
1
1
1
1
1
1
1
1
1
1
1
1
1
1
1
1
1
1
1
1
1
1
1
1
1
1
1
1
1
1
1
1
1
1
1
1
1
1
1
1
1
1
1
1
1
1
1
1
1
1
1
1
1
1
1
1
1
1
1
1
1
1
1
1
1
1
1
1
1
1
1
1
1
1
1
1
1
1
1
1
1
1
1
1
1
1
1
1
1
1
1
1
1
1
1
1
1
1
1
1
1
1
1
1
1
1
1
1
1
1
1
1
1
1
1
1
1
1
1
1
1
1
1
1
1
1
1
1
1
1
1
1
1
1
1
1
1
1
1
1
1
1
1
1
1
1
1
1
1
1
1
1
1
1
1
1
1
1
1
1
1
1
1
1
1
1
1
1
1
1
1
1
1
1
1
1
1
1
1
1
1
1
1
1
1
1
1
1
1
1
1
1
1
1
1
1
1
1
1
1
1
1
1
1
1
1
1
1
1
1
1
1
1
1
1
1
1
1
1
1
1
1
1
1
1
1
1
1
1
1
1
1
1
1
1
1
1
1
1
1
1
1
1
1
1
1
1
1
1
1
1
1
1
1
1
1
1
1
1
1
1
1
1
1
1
1
1
1
1
1
1
1
1
1
1
1
1
1
1
1
1
1
1
1
1
1
1
1
1
1
1
1
1
1
1
1
1
1
1
1
1
1
1
1
1
1
1
1
1
1
1
1
1
1
1
1
1
1
1
1
1
1
1
1
1
1
1
1
1
1
1
1
1
1
1
1
1
1
1
1
1
1
1
1
1
1
1
1
1
1
1
1
1
1
1
1
1
1
1
1
1
1
1
1
1
1
1
1
1
1
1
1
1
1
1
1
1
1
1
1
1
1
1
1
1
1
1
1
1
1
1
1
1
1
1
1
1
1
1
1
1
1
1
1
1
1
1
1
1
1
1
1
1
1
1
1
1
1
1
1
1
1
1
1
1
1
1
1
1
1
1
1
1
1
1
1
1
1
1
1
1
1
1
1
1
1
1
1
1
1
1
1
1
1
1
1
1
1
1
1
1
1
1
1
1
1
1
1
1
1
1
1
1
1
1
1
1
1
1
1
1
1
1
1
1
1
1
1
1
1
1
1
1
1
1
1
1
1
1
1
1
1
1
1
1
1
1
1
1
1
1
1
1
1
1
1
1
1
1
1
1
1
1
1
1
1
1
1
1
1
1
1
1
1
1
1
1
1
1
1
1
1
1
1
1
1
1
1
1
1
1
1
1
1
1
1
1
1
1
1
1
1
1
1
1
1
1
1
1
1
1
1
1
1
1
1
1
1
1
1
1
1
1
1
1
1
1
1
1
1
1
1
1
1
1
1
1
1
1
1
1
1
1
1
1
1
1
1
1
1
1
1
1
1
1
1
1
1
1
1
1
1
1
1
1
1
1
1
1
1
1
1
1
1
1
1
1
1
1
1
1
1
1
1
1
1
1
1
1
1
1
1
1
1
1
1
1
1
1
1
1
1
1
1
1
1
1
1
1
1
1
1
1
1
1
1
1
1
1
1
1
1
1
1
1
1
1
1
1
1
1
1
1
1
1
1
1
1
1
1
1
1
1
1
1
1
1
1
1
1
1
1
1
1
1
1
1
1
1
1
1
1
1
1
1
1
1
1
1
1
1
1
1
1
1
1
1
1
1
1
1
1
1
1
1
1
1
1
1
1
1
1
1
1
1
1
1
1
1
1
1
1
1
1
1
1
1
1
1
1
1
1
1
1
1
1
1
1
1
1
1
1
1
1
1
1
1
1
1
1
1
1
1
1
1
1
1
1
1
1
1
1
1
1
1
1
1
1
1
1
1
1
1
1
1
1
1
1
1
1
1
1
1
1
1
1
1
1
1
1
1
1
1
1
1
1
1
1
1
1
1
1
1
1
1
1
1
1
1
1
1
1
1
1
1
1
1
1
1
1
1
1
1
1
1
1
1
1
1
1
1
1
1
1
1
1
1
1
1
1
1
1
1
1
1
1
1
1
1
1
1
1
1
1
1
1
1
1
1
1
1
1
1
1
1
1
1
1
1
1
1
1
1
1
1
1
1
1
1
1
1
1
1
1
1
1
1
1
1
1
1
1
1
1
1
1
1
1
1
1
1
1
1
1
1
1
1
1
0.999995
0.99999
0.999986
0.999982
0.999979
0.999976
0.999972
0.999968
0.999963
0.999961
0.999965
0.999971
0.99997
0.999933
0.999895
0.999893
0.979357
0.980196
0.981429
0.982483
0.982995
0.982893
0.98234
0.981902
0.981988
0.982387
0.982947
0.983274
0.982933
0.981896
0.980775
0.980389
0.981053
0.982291
0.983171
0.982974
0.9816
0.979356
0.976103
0.971738
0.966707
0.962344
0.961313
0.962908
0.962581
0.960841
0.957309
0.946408
0.932816
0.931944
0.95223
0.957815
0.958688
0.958957
0.964299
0.973701
0.980905
0.98504
0.987934
0.98803
0.633676
0.642237
0.655413
0.667416
0.673533
0.672447
0.66681
0.662065
0.662927
0.670188
0.678994
0.68354
0.680666
0.671759
0.663095
0.662096
0.672426
0.689836
0.705095
0.709638
0.702234
0.686566
0.66813
0.652049
0.640358
0.632706
0.630816
0.640098
0.661745
0.687728
0.707129
0.708333
0.694404
0.655022
0.608523
0.586619
0.571528
0.569798
0.583793
0.619726
0.665886
0.690498
0.694819
0.681676
0.0672388
0.0721191
0.0798111
0.0869085
0.0904979
0.08998
0.0873724
0.085637
0.0870752
0.0922051
0.0985166
0.102275
0.101235
0.0964168
0.0923883
0.093314
0.101344
0.113814
0.124923
0.128679
0.122354
0.109951
0.0983568
0.0909527
0.086968
0.0847835
0.0851391
0.0899731
0.100187
0.113596
0.127533
0.135679
0.132797
0.124733
0.104212
0.0805779
0.0714754
0.0676741
0.0707063
0.0835866
0.0987182
0.105211
0.0857718
0.0617652
3.39374e-11
3.74112e-11
4.25186e-11
4.70124e-11
4.89651e-11
5.01632e-11
1.07325e-06
8.4818e-05
0.000238455
0.000257216
0.000246571
0.000250962
0.000264575
0.000260698
0.000252425
0.000244337
0.000230727
0.000216038
0.000203264
0.000193797
0.000175583
0.00015064
0.000129321
0.000115489
0.000108425
0.000105334
0.000107404
0.000108888
0.000106316
0.000103657
0.000101746
9.8275e-05
7.12265e-05
3.67834e-05
1.88363e-05
8.78348e-06
8.15278e-06
1.08082e-05
9.92e-06
6.34866e-06
3.47202e-06
2.40985e-06
1.09334e-06
4.37451e-07
-3.44782e-127
9.53211e-130
-1.39986e-132
-1.41473e-136
-5.77895e-140
-3.6145e-143
-8.39448e-147
-2.7261e-151
-1.4757e-156
-7.9653e-157
-4.06876e-155
-5.39809e-156
-1.21828e-157
-2.41443e-159
-4.09197e-161
-3.23347e-163
-1.16408e-165
-2.60667e-168
-4.50408e-171
-4.79258e-172
-3.15958e-173
-8.94776e-175
-1.34988e-176
-1.1434e-178
-6.73726e-181
-3.397e-183
-9.77287e-186
-3.90501e-188
-3.80083e-190
-4.12884e-192
-3.49433e-194
-1.87584e-195
-1.07672e-195
-8.24154e-197
-3.30362e-198
-8.03477e-200
-1.64619e-201
-3.82622e-203
-9.69565e-203
-4.64619e-108
-5.42909e-108
-2.59225e-127
2.07009e-87
3.67888e-107
-4.41997e-126
-4.10184e-129
-3.62809e-132
-2.71643e-135
-1.42208e-138
-8.79567e-142
-2.85344e-145
-1.80578e-149
-5.99617e-155
-4.18823e-157
-4.68155e-153
-2.19979e-154
-4.46711e-156
-8.38914e-158
-1.19976e-159
-1.13046e-161
-6.97625e-164
-4.51059e-166
-3.62119e-168
-8.23195e-170
-2.18833e-171
-4.1764e-173
-5.33056e-175
-4.56131e-177
-2.96025e-179
-1.67606e-181
-8.18204e-184
-6.77594e-186
-9.96193e-188
-2.03659e-189
-4.96203e-191
-1.35635e-192
-4.45826e-194
-1.54182e-195
-4.78186e-197
-1.29088e-198
-2.92429e-200
-5.96083e-202
-1.20228e-202
-1.36156e-108
-2.14224e-108
4.91787e-106
7.04714e-106
1.12165e-105
-1.95899e-125
-1.7922e-128
-1.84907e-131
-1.95066e-134
-2.74753e-137
-4.21993e-140
-4.62469e-143
-1.59337e-145
-1.73148e-147
-2.80773e-149
-4.75937e-151
-7.8447e-153
-1.25387e-154
-1.85698e-156
-2.43333e-158
-2.67325e-160
-2.70549e-162
-3.17218e-164
-4.33076e-166
-6.39112e-168
-9.1837e-170
-1.16143e-171
-1.21578e-173
-1.05612e-175
-8.10524e-178
-5.79422e-180
-4.07908e-182
-3.288e-184
-3.40371e-186
-4.68461e-188
-8.33362e-190
-1.95965e-191
-6.03471e-193
-1.97723e-194
-5.41759e-196
-1.08139e-197
-1.82526e-199
-3.70874e-201
-1.26382e-202
-1.43306e-109
-1.23951e-109
1.13995e-107
5.61469e-108
2.01153e-108
-1.20895e-125
-9.99979e-129
-1.0259e-131
-1.11937e-134
-1.36029e-137
-1.01239e-140
-6.99443e-144
-1.73322e-146
-3.36889e-148
-9.23574e-150
-2.78142e-151
-7.74868e-153
-1.7313e-154
-3.25312e-156
-5.20606e-158
-7.34436e-160
-9.86298e-162
-1.34549e-163
-1.95401e-165
-2.87966e-167
-4.01969e-169
-4.93406e-171
-5.05309e-173
-4.29354e-175
-3.244e-177
-2.41045e-179
-1.94984e-181
-1.97531e-183
-2.60784e-185
-4.1543e-187
-7.45616e-189
-1.44706e-190
-2.72322e-192
-4.50193e-194
-7.26499e-196
-1.3291e-197
-2.70712e-199
-6.16937e-201
-1.81533e-202
-2.6381e-111
-4.45746e-112
-1.25215e-112
-3.11593e-113
-6.71995e-114
-5.80473e-126
-3.81553e-129
-3.8092e-132
-5.3474e-135
-1.35988e-137
-4.22963e-140
-1.57211e-142
-9.62365e-145
-1.2009e-146
-2.18827e-148
-4.35304e-150
-7.99498e-152
-1.27553e-153
-1.73712e-155
-2.0034e-157
-1.99087e-159
-1.86017e-161
-1.89526e-163
-2.12538e-165
-2.4809e-167
-2.79483e-169
-2.85087e-171
-2.57793e-173
-2.11772e-175
-1.64308e-177
-1.24294e-179
-9.59419e-182
-8.31441e-184
-8.66608e-186
-1.12092e-187
-1.76863e-189
-3.38946e-191
-7.79619e-193
-1.95031e-194
-4.47574e-196
-8.61208e-198
-1.56636e-199
-3.33286e-201
-9.0147e-203
-5.05289e-114
-5.06182e-116
-4.64927e-118
-3.84971e-120
-2.49685e-122
-1.92337e-126
-9.51751e-130
-8.29038e-133
-1.05348e-135
-2.11742e-138
-4.58263e-141
-1.29076e-143
-1.02359e-145
-1.67714e-147
-3.56683e-149
-7.85654e-151
-1.58052e-152
-2.76527e-154
-4.18221e-156
-5.4445e-158
-6.3179e-160
-7.01518e-162
-7.86043e-164
-9.11027e-166
-1.06312e-167
-1.189e-169
-1.20462e-171
-1.06009e-173
-8.15812e-176
-5.88792e-178
-4.33261e-180
-3.49982e-182
-3.40488e-184
-4.09882e-186
-5.81397e-188
-9.25766e-190
-1.60013e-191
-2.81098e-193
-4.63015e-195
-7.48217e-197
-1.32479e-198
-2.62735e-200
-6.02021e-202
-1.64208e-203
-5.35788e-205
-2.00115e-206
-8.27447e-208
-3.69364e-209
-1.59982e-210
-7.77435e-127
-2.75175e-130
-2.0515e-133
-3.73251e-136
-1.03978e-138
-3.86031e-141
-1.95929e-143
-1.54918e-145
-2.11356e-147
-3.85831e-149
-7.17525e-151
-1.19381e-152
-1.65975e-154
-1.93718e-156
-1.9192e-158
-1.67997e-160
-1.40268e-162
-1.2325e-164
-1.16089e-166
-1.13086e-168
-1.07854e-170
-9.6357e-173
-7.94379e-175
-6.14158e-177
-4.59392e-179
-3.44937e-181
-2.7128e-183
-2.4118e-185
-2.56541e-187
-3.26472e-189
-4.84138e-191
-8.55665e-193
-1.7614e-194
-3.91858e-196
-8.37696e-198
-1.6272e-199
-3.14066e-201
-6.89704e-203
-1.78973e-204
-5.56364e-206
-2.00581e-207
-7.88607e-209
-3.20034e-210
-1.20834e-211
-2.89955e-127
-8.20243e-131
-4.99043e-134
-7.51885e-137
-1.76032e-139
-5.62704e-142
-2.65019e-144
-2.2639e-146
-3.34932e-148
-6.12994e-150
-1.10805e-151
-1.79236e-153
-2.52508e-155
-3.08871e-157
-3.3029e-159
-3.18538e-161
-2.94456e-163
-2.74007e-165
-2.61084e-167
-2.50523e-169
-2.33336e-171
-2.02509e-173
-1.5928e-175
-1.14941e-177
-8.05489e-180
-5.85765e-182
-4.68949e-184
-4.39963e-186
-4.9622e-188
-6.50779e-190
-9.62238e-192
-1.55941e-193
-2.64475e-195
-4.403e-197
-7.30081e-199
-1.30551e-200
-2.57882e-202
-5.82621e-204
-1.52456e-205
-4.58628e-207
-1.55169e-208
-5.67466e-210
-2.18128e-211
-7.90182e-213
-9.96103e-128
-6.2974e-131
-5.47711e-134
-7.76197e-137
-1.70931e-139
-5.47131e-142
-2.55156e-144
-1.78541e-146
-1.96112e-148
-2.75986e-150
-3.94982e-152
-5.21925e-154
-5.96504e-156
-5.91327e-158
-5.13152e-160
-4.05461e-162
-3.09372e-164
-2.42753e-166
-2.00004e-168
-1.69042e-170
-1.41124e-172
-1.1285e-174
-8.54078e-177
-6.1961e-179
-4.42899e-181
-3.23367e-183
-2.51044e-185
-2.18298e-187
-2.2104e-189
-2.64531e-191
-3.72917e-193
-6.09149e-195
-1.1274e-196
-2.2501e-198
-4.46201e-200
-8.51144e-202
-1.67316e-203
-3.68543e-205
-9.28688e-207
-2.70705e-208
-8.97001e-210
-3.16463e-211
-1.13151e-212
-3.7664e-214
-2.31162e-128
-2.13374e-131
-2.16477e-134
-2.91535e-137
-5.36546e-140
-1.37142e-142
-5.2772e-145
-3.28936e-147
-3.30109e-149
-4.18126e-151
-5.44323e-153
-6.66388e-155
-7.42728e-157
-7.46812e-159
-6.78155e-161
-5.68518e-163
-4.5963e-165
-3.72774e-167
-3.06889e-169
-2.5342e-171
-2.04479e-173
-1.56637e-175
-1.11954e-177
-7.57529e-180
-5.08401e-182
-3.56978e-184
-2.75093e-186
-2.43788e-188
-2.53789e-190
-3.05987e-192
-4.17354e-194
-6.29721e-196
-1.01561e-197
-1.66647e-199
-2.77456e-201
-4.95304e-203
-9.69572e-205
-2.14808e-206
-5.39808e-208
-1.51265e-209
-4.6876e-211
-1.54054e-212
-5.21152e-214
-1.66779e-215
-4.15005e-129
-5.0112e-132
-6.5982e-135
-1.07023e-137
-2.21818e-140
-5.96853e-143
-2.22769e-145
-1.21106e-147
-9.89134e-150
-1.03284e-151
-1.13533e-153
-1.19797e-155
-1.1479e-157
-9.90214e-160
-7.73979e-162
-5.634e-164
-3.9943e-166
-2.8736e-168
-2.13175e-170
-1.60827e-172
-1.20267e-174
-8.72051e-177
-6.07574e-179
-4.10951e-181
-2.76736e-183
-1.91901e-185
-1.42112e-187
-1.17325e-189
-1.11591e-191
-1.23739e-193
-1.59902e-195
-2.37275e-197
-3.95169e-199
-7.14177e-201
-1.32735e-202
-2.4773e-204
-4.83574e-206
-1.04704e-207
-2.5475e-209
-6.94653e-211
-2.10199e-212
-6.64754e-214
-2.10086e-215
-6.19352e-217
-1.14355e-129
-1.39336e-132
-1.83886e-135
-2.89298e-138
-5.62476e-141
-1.37935e-143
-4.58282e-146
-2.18979e-148
-1.55142e-150
-1.39783e-152
-1.3528e-154
-1.30009e-156
-1.19166e-158
-1.02667e-160
-8.26265e-163
-6.27958e-165
-4.63419e-167
-3.41832e-169
-2.54277e-171
-1.89033e-173
-1.37695e-175
-9.62974e-178
-6.40133e-180
-4.09928e-182
-2.6209e-184
-1.74544e-186
-1.2594e-188
-1.023e-190
-9.56377e-193
-1.02728e-194
-1.25291e-196
-1.71104e-198
-2.55529e-200
-4.02134e-202
-6.57962e-204
-1.15724e-205
-2.21728e-207
-4.75458e-209
-1.14027e-210
-2.97823e-212
-8.43338e-214
-2.48843e-215
-7.42828e-217
-2.10203e-218
-5.37035e-130
-6.33269e-133
-8.0058e-136
-1.1876e-138
-2.15988e-141
-4.91955e-144
-1.47694e-146
-6.07871e-149
-3.54493e-151
-2.65007e-153
-2.1926e-155
-1.83199e-157
-1.47481e-159
-1.11777e-161
-7.9778e-164
-5.44016e-166
-3.64786e-168
-2.47179e-170
-1.70861e-172
-1.19416e-174
-8.29094e-177
-5.62552e-179
-3.70403e-181
-2.38705e-183
-1.53781e-185
-1.01901e-187
-7.16405e-190
-5.52601e-192
-4.81308e-194
-4.80058e-196
-5.50621e-198
-7.21692e-200
-1.0621e-201
-1.71835e-203
-2.95651e-205
-5.3069e-207
-1.00986e-208
-2.10722e-210
-4.87554e-212
-1.23287e-213
-3.37748e-215
-9.55371e-217
-2.67173e-218
-6.94616e-220
-3.79373e-130
-4.76355e-133
-6.12705e-136
-8.73919e-139
-1.44576e-141
-2.84536e-144
-6.98062e-147
-2.22123e-149
-9.56473e-152
-5.24231e-154
-3.30418e-156
-2.25361e-158
-1.59299e-160
-1.13182e-162
-7.91115e-165
-5.4197e-167
-3.68068e-169
-2.51399e-171
-1.7341e-173
-1.1974e-175
-8.1534e-178
-5.39669e-180
-3.45177e-182
-2.15573e-184
-1.34929e-186
-8.73809e-189
-6.03993e-191
-4.59055e-193
-3.91038e-195
-3.75294e-197
-4.04955e-199
-4.8975e-201
-6.56292e-203
-9.53521e-205
-1.47639e-206
-2.4784e-208
-4.55004e-210
-9.26125e-212
-2.07809e-213
-4.98506e-215
-1.27349e-216
-3.3472e-218
-8.81373e-220
-2.20646e-221
-2.32144e-130
-3.13814e-133
-4.33312e-136
-6.54446e-139
-1.12865e-141
-2.27381e-144
-5.51227e-147
-1.63909e-149
-6.08432e-152
-2.69022e-154
-1.30628e-156
-6.57779e-159
-3.38047e-161
-1.77476e-163
-9.61805e-166
-5.40054e-168
-3.15757e-170
-1.92615e-172
-1.21887e-174
-7.88975e-177
-5.13241e-179
-3.30596e-181
-2.09507e-183
-1.31442e-185
-8.30208e-188
-5.40318e-190
-3.71417e-192
-2.76783e-194
-2.2857e-196
-2.11666e-198
-2.20843e-200
-2.59591e-202
-3.39974e-204
-4.90286e-206
-7.66484e-208
-1.27603e-209
-2.26959e-211
-4.41001e-213
-9.42704e-215
-2.16124e-216
-5.26055e-218
-1.30917e-219
-3.19573e-221
-7.25778e-223
-1.48291e-130
-2.17134e-133
-3.20871e-136
-5.09352e-139
-9.05054e-142
-1.84407e-144
-4.42342e-147
-1.26857e-149
-4.37748e-152
-1.73345e-154
-7.33242e-157
-3.1828e-159
-1.38981e-161
-6.05964e-164
-2.66049e-166
-1.20369e-168
-5.76494e-171
-2.97349e-173
-1.64738e-175
-9.62364e-178
-5.78642e-180
-3.50613e-182
-2.11665e-184
-1.27688e-186
-7.82408e-189
-4.98187e-191
-3.37473e-193
-2.48772e-195
-2.02682e-197
-1.83819e-199
-1.85643e-201
-2.08809e-203
-2.59491e-205
-3.5108e-207
-5.08976e-209
-7.9697e-211
-1.35232e-212
-2.50252e-214
-5.03657e-216
-1.073e-217
-2.40662e-219
-5.51432e-221
-1.25779e-222
-2.73046e-224
-7.71716e-131
-1.18568e-133
-1.84056e-136
-3.05606e-139
-5.6475e-142
-1.19102e-144
-2.93091e-147
-8.5252e-150
-2.92988e-152
-1.14726e-154
-4.78016e-157
-1.99563e-159
-8.10868e-162
-3.18822e-164
-1.22613e-166
-4.69161e-169
-1.82894e-171
-7.43596e-174
-3.20555e-176
-1.47198e-178
-7.16843e-181
-3.66958e-183
-1.95834e-185
-1.08723e-187
-6.31249e-190
-3.87676e-192
-2.55505e-194
-1.83738e-196
-1.46174e-198
-1.29717e-200
-1.28583e-202
-1.42174e-204
-1.73305e-206
-2.29917e-208
-3.29044e-210
-5.01248e-212
-8.13878e-214
-1.42806e-215
-2.72028e-217
-5.48032e-219
-1.1584e-220
-2.48754e-222
-5.2176e-224
-1.01977e-225
-4.17675e-131
-6.81877e-134
-1.11897e-136
-1.94516e-139
-3.71932e-142
-8.01576e-145
-1.98548e-147
-5.71252e-150
-1.90103e-152
-7.07143e-155
-2.78442e-157
-1.12271e-159
-4.53436e-162
-1.80269e-164
-7.00592e-167
-2.68305e-169
-1.02912e-171
-4.01543e-174
-1.60667e-176
-6.60346e-179
-2.78179e-181
-1.20083e-183
-5.34299e-186
-2.48502e-188
-1.23258e-190
-6.65304e-193
-3.96896e-195
-2.64753e-197
-1.98437e-199
-1.66973e-201
-1.56603e-203
-1.62759e-205
-1.85261e-207
-2.27738e-209
-2.98951e-211
-4.19387e-213
-6.30453e-215
-1.02081e-216
-1.78578e-218
-3.29958e-220
-6.37406e-222
-1.25442e-223
-2.4566e-225
-4.59876e-227
-1.87756e-131
-3.15244e-134
-5.32231e-137
-9.48414e-140
-1.8486e-142
-4.04059e-145
-1.00848e-147
-2.90333e-150
-9.59179e-153
-3.54255e-155
-1.38906e-157
-5.49737e-160
-2.14076e-162
-8.16255e-165
-3.05908e-167
-1.13759e-169
-4.24704e-172
-1.60739e-174
-6.20615e-177
-2.44168e-179
-9.74359e-182
-3.93124e-184
-1.60645e-186
-6.7135e-189
-2.91977e-191
-1.35117e-193
-6.8056e-196
-3.81131e-198
-2.40989e-200
-1.73458e-202
-1.41852e-204
-1.31063e-206
-1.34989e-208
-1.52397e-210
-1.87e-212
-2.46899e-214
-3.50249e-216
-5.36239e-218
-8.86931e-220
-1.55057e-221
-2.83692e-223
-5.26586e-225
-9.546e-227
-1.63082e-228
-8.76587e-132
-1.54158e-134
-2.72119e-137
-5.04082e-140
-1.01292e-142
-2.26057e-145
-5.68959e-148
-1.62672e-150
-5.24418e-153
-1.8581e-155
-6.9544e-158
-2.67826e-160
-1.0416e-162
-4.01917e-165
-1.52888e-167
-5.75987e-170
-2.17094e-172
-8.27524e-175
-3.2084e-177
-1.2642e-179
-5.04036e-182
-2.02554e-184
-8.20865e-187
-3.37749e-189
-1.42919e-191
-6.32141e-194
-2.97003e-196
-1.5055e-198
-8.3213e-201
-5.05064e-203
-3.372e-205
-2.48537e-207
-2.02791e-209
-1.83115e-211
-1.83775e-213
-2.04766e-215
-2.52807e-217
-3.44732e-219
-5.16478e-221
-8.26087e-223
-1.38361e-224
-2.36737e-226
-4.04313e-228
-6.63121e-230
-3.47301e-132
-6.20234e-135
-1.11158e-137
-2.08319e-140
-4.21295e-143
-9.41018e-146
-2.35623e-148
-6.66706e-151
-2.1192e-153
-7.41662e-156
-2.74722e-158
-1.03397e-160
-3.87404e-163
-1.43914e-165
-5.30678e-168
-1.9531e-170
-7.22961e-173
-2.71275e-175
-1.03583e-177
-4.02091e-180
-1.58142e-182
-6.28538e-185
-2.52664e-187
-1.03355e-189
-4.34944e-192
-1.90839e-194
-8.84092e-197
-4.37379e-199
-2.3262e-201
-1.33359e-203
-8.21285e-206
-5.41282e-208
-3.80678e-210
-2.84219e-212
-2.27473e-214
-1.9805e-216
-1.91221e-218
-2.08182e-220
-2.5741e-222
-3.53859e-224
-5.28687e-226
-8.2422e-228
-1.28225e-229
-1.91559e-231
-1.41736e-132
-2.62278e-135
-4.86991e-138
-9.42121e-141
-1.95536e-143
-4.44868e-146
-1.12347e-148
-3.16546e-151
-9.87409e-154
-3.3426e-156
-1.19244e-158
-4.39297e-161
-1.64264e-163
-6.13476e-166
-2.27623e-168
-8.41428e-171
-3.12219e-173
-1.17161e-175
-4.46594e-178
-1.73085e-180
-6.80512e-183
-2.70846e-185
-1.09228e-187
-4.48793e-190
-1.89708e-192
-8.35088e-195
-3.87192e-197
-1.90982e-199
-1.00699e-201
-5.68458e-204
-3.42068e-206
-2.18062e-208
-1.46486e-210
-1.02632e-212
-7.51121e-215
-5.75497e-217
-4.66102e-219
-4.05013e-221
-3.83413e-223
-3.93927e-225
-4.3893e-227
-5.25208e-229
-6.62281e-231
-8.47203e-233
-5.01764e-133
-9.3484e-136
-1.74634e-138
-3.38681e-141
-7.01173e-144
-1.5823e-146
-3.94181e-149
-1.09088e-151
-3.33466e-154
-1.10824e-156
-3.88442e-159
-1.39011e-161
-5.00158e-164
-1.80164e-166
-6.49014e-169
-2.34372e-171
-8.52956e-174
-3.14799e-176
-1.18198e-178
-4.51347e-181
-1.74963e-183
-6.87765e-186
-2.74614e-188
-1.11996e-190
-4.70783e-193
-2.06246e-195
-9.51206e-198
-4.65864e-200
-2.43343e-202
-1.35745e-204
-8.05519e-207
-5.05092e-209
-3.33284e-211
-2.28787e-213
-1.63369e-215
-1.21329e-217
-9.41243e-220
-7.66835e-222
-6.61333e-224
-6.00495e-226
-5.71342e-228
-5.60408e-230
-5.54336e-232
-5.41693e-234
-1.80884e-133
-3.46211e-136
-6.64843e-139
-1.32251e-141
-2.79674e-144
-6.40972e-147
-1.60919e-149
-4.44227e-152
-1.33904e-154
-4.33782e-157
-1.47669e-159
-5.20826e-162
-1.86825e-164
-6.72929e-167
-2.42328e-169
-8.73952e-172
-3.17265e-174
-1.16564e-176
-4.35132e-179
-1.65234e-181
-6.37749e-184
-2.50039e-186
-9.97321e-189
-4.0673e-191
-1.70962e-193
-7.4809e-196
-3.43919e-198
-1.67468e-200
-8.66942e-203
-4.7759e-205
-2.79199e-207
-1.72026e-209
-1.11396e-211
-7.50108e-214
-5.25387e-216
-3.82463e-218
-2.90118e-220
-2.30146e-222
-1.91393e-224
-1.64964e-226
-1.46043e-228
-1.31083e-230
-1.1747e-232
-1.0267e-234
-5.76688e-134
-1.10465e-136
-2.12056e-139
-4.20222e-142
-8.80949e-145
-1.99021e-147
-4.89983e-150
-1.32113e-152
-3.88208e-155
-1.22723e-157
-4.07727e-160
-1.38849e-162
-4.79213e-165
-1.66767e-167
-5.83477e-170
-2.05434e-172
-7.30784e-175
-2.63756e-177
-9.68033e-180
-3.61448e-182
-1.37229e-184
-5.2989e-187
-2.08566e-189
-8.41026e-192
-3.50095e-194
-1.51821e-196
-6.91526e-199
-3.33263e-201
-1.70538e-203
-9.2723e-206
-5.34338e-208
-3.24198e-210
-2.06767e-212
-1.37198e-214
-9.47144e-217
-6.79244e-219
-5.06676e-221
-3.93657e-223
-3.19451e-225
-2.6897e-227
-2.32781e-229
-2.03605e-231
-1.75591e-233
-1.45454e-235
-1.85186e-134
-3.61756e-137
-7.08909e-140
-1.43228e-142
-3.05264e-145
-6.98144e-148
-1.72975e-150
-4.65687e-153
-1.35431e-155
-4.20115e-158
-1.36634e-160
-4.60566e-163
-1.58181e-165
-5.47987e-168
-1.90798e-170
-6.68114e-173
-2.36098e-175
-8.45486e-178
-3.07801e-180
-1.14073e-182
-4.30415e-185
-1.65411e-187
-6.48702e-190
-2.60774e-192
-1.0818e-194
-4.66944e-197
-2.11279e-199
-1.00896e-201
-5.10068e-204
-2.73125e-206
-1.54723e-208
-9.20726e-211
-5.75173e-213
-3.73626e-215
-2.52271e-217
-1.76746e-219
-1.28574e-221
-9.72612e-224
-7.6546e-226
-6.21007e-228
-5.1433e-230
-4.28296e-232
-3.52981e-234
-2.82177e-236
-5.34346e-135
-1.04001e-137
-2.02771e-140
-4.0625e-143
-8.54557e-146
-1.91852e-148
-4.6427e-151
-1.21591e-153
-3.43282e-156
-1.03357e-158
-3.26171e-161
-1.0588e-163
-3.5033e-166
-1.17439e-168
-3.9747e-171
-1.35854e-173
-4.70103e-176
-1.65108e-178
-5.8969e-181
-2.14374e-183
-7.93595e-186
-2.99447e-188
-1.15483e-190
-4.57302e-193
-1.87106e-195
-7.97079e-198
-3.55938e-200
-1.67594e-202
-8.34679e-205
-4.39789e-207
-2.44973e-209
-1.43275e-211
-8.79763e-214
-5.62083e-216
-3.73363e-218
-2.57427e-220
-1.84223e-222
-1.36818e-224
-1.05447e-226
-8.37766e-229
-6.7948e-231
-5.55161e-233
-4.46912e-235
-3.45517e-237
-1.53852e-135
-3.03552e-138
-6.00612e-141
-1.22038e-143
-2.59822e-146
-5.88436e-149
-1.42994e-151
-3.73882e-154
-1.04692e-156
-3.10817e-159
-9.65809e-162
-3.10642e-164
-1.01985e-166
-3.39056e-169
-1.13784e-171
-3.85395e-174
-1.32068e-176
-4.59286e-179
-1.62491e-181
-5.85688e-184
-2.15252e-186
-8.07459e-189
-3.09837e-191
-1.22121e-193
-4.97094e-196
-2.10402e-198
-9.31733e-201
-4.33976e-203
-2.13223e-205
-1.105e-207
-6.04051e-210
-3.45959e-212
-2.07658e-214
-1.29546e-216
-8.38771e-219
-5.62479e-221
-3.90603e-223
-2.8094e-225
-2.09096e-227
-1.59824e-229
-1.24185e-231
-9.6559e-234
-7.40045e-236
-5.49897e-238
-4.02905e-136
-7.89458e-139
-1.54882e-141
-3.1103e-144
-6.51497e-147
-1.4445e-149
-3.42066e-152
-8.68027e-155
-2.35298e-157
-6.75444e-160
-2.02786e-162
-6.28128e-165
-1.99016e-167
-6.41016e-170
-2.09194e-172
-6.91441e-175
-2.31724e-177
-7.88792e-180
-2.73183e-182
-9.63723e-185
-3.46636e-187
-1.27299e-189
-4.78529e-192
-1.84989e-194
-7.3963e-197
-3.07722e-199
-1.33969e-201
-6.13303e-204
-2.96078e-206
-1.50649e-208
-8.08075e-211
-4.53877e-213
-2.66999e-215
-1.63286e-217
-1.03711e-219
-6.83148e-222
-4.66264e-224
-3.29407e-226
-2.40323e-228
-1.79787e-230
-1.36616e-232
-1.04227e-234
-7.82889e-237
-5.65376e-239
-1.0439e-136
-2.06281e-139
-4.08615e-142
-8.2835e-145
-1.74918e-147
-3.89939e-150
-9.2492e-153
-2.34053e-155
-6.29743e-158
-1.78698e-160
-5.29882e-163
-1.62401e-165
-5.09012e-168
-1.62109e-170
-5.23019e-173
-1.70855e-175
-5.65962e-178
-1.90508e-180
-6.52916e-183
-2.28186e-185
-8.14253e-188
-2.97086e-190
-1.11066e-192
-4.27066e-195
-1.69733e-197
-7.01233e-200
-3.02671e-202
-1.37058e-204
-6.5284e-207
-3.26758e-209
-1.71975e-211
-9.45784e-214
-5.43632e-216
-3.24399e-218
-2.00645e-220
-1.28395e-222
-8.49107e-225
-5.79745e-227
-4.07699e-229
-2.93261e-231
-2.13521e-233
-1.55061e-235
-1.10705e-237
-7.65439e-240
-2.48529e-137
-4.86479e-140
-9.52926e-143
-1.90417e-145
-3.9464e-148
-8.59635e-151
-1.98429e-153
-4.8687e-156
-1.26657e-158
-3.46913e-161
-9.922e-164
-2.9331e-166
-8.88898e-169
-2.74555e-171
-8.61629e-174
-2.74461e-176
-8.87835e-179
-2.92e-181
-9.77744e-184
-3.33728e-186
-1.16268e-188
-4.1417e-191
-1.51216e-193
-5.68064e-196
-2.20712e-198
-8.91841e-201
-3.76536e-203
-1.66742e-205
-7.76683e-208
-3.80095e-210
-1.95536e-212
-1.05071e-214
-5.89821e-217
-3.44096e-219
-2.08299e-221
-1.30627e-223
-8.4718e-226
-5.67064e-228
-3.90205e-230
-2.74077e-232
-1.948e-234
-1.38586e-236
-9.7021e-239
-6.54591e-241
-5.81177e-138
-1.14218e-140
-2.24913e-143
-4.51899e-146
-9.40925e-149
-2.05464e-151
-4.73872e-154
-1.15734e-156
-2.98626e-159
-8.09097e-162
-2.28613e-164
-6.67113e-167
-1.99457e-169
-6.07672e-172
-1.88102e-174
-5.91036e-177
-1.88665e-179
-6.12744e-182
-2.02823e-184
-6.8528e-187
-2.36674e-189
-8.36904e-192
-3.03626e-194
-1.134e-196
-4.37944e-199
-1.75747e-201
-7.35875e-204
-3.22405e-206
-1.48114e-208
-7.12561e-211
-3.59477e-213
-1.89182e-215
-1.03838e-217
-5.9132e-220
-3.48625e-222
-2.12375e-224
-1.3343e-226
-8.62973e-229
-5.72664e-231
-3.87225e-233
-2.63971e-235
-1.79007e-237
-1.19143e-239
-7.66785e-242
-1.25834e-138
-2.44413e-141
-4.74777e-144
-9.38116e-147
-1.91328e-149
-4.07667e-152
-9.14311e-155
-2.16491e-157
-5.40175e-160
-1.41396e-162
-3.85708e-165
-1.08757e-167
-3.14719e-170
-9.30127e-173
-2.7995e-175
-8.56936e-178
-2.66762e-180
-8.45164e-183
-2.72806e-185
-8.98237e-188
-3.02202e-190
-1.04107e-192
-3.68031e-195
-1.33931e-197
-5.03936e-200
-1.96953e-202
-8.02684e-205
-3.4212e-207
-1.52928e-209
-7.15986e-212
-3.51448e-214
-1.79966e-216
-9.61104e-219
-5.33162e-221
-3.06552e-223
-1.82316e-225
-1.11893e-227
-7.06706e-230
-4.57153e-232
-3.008e-234
-1.99706e-236
-1.32365e-238
-8.627e-241
-5.43249e-243
-2.66449e-139
-5.17638e-142
-1.00701e-144
-1.99348e-147
-4.07105e-150
-8.66808e-153
-1.93686e-155
-4.55385e-158
-1.12493e-160
-2.90772e-163
-7.82218e-166
-2.17327e-168
-6.19565e-171
-1.80342e-173
-5.34537e-176
-1.61168e-178
-4.94452e-181
-1.54529e-183
-4.92661e-186
-1.60425e-188
-5.34412e-191
-1.82494e-193
-6.40071e-196
-2.31195e-198
-8.63318e-201
-3.34667e-203
-1.35124e-205
-5.6936e-208
-2.51002e-210
-1.15656e-212
-5.57676e-215
-2.80165e-217
-1.46508e-219
-7.94275e-222
-4.45362e-224
-2.5771e-226
-1.53528e-228
-9.39331e-231
-5.87923e-233
-3.73707e-235
-2.38643e-237
-1.51246e-239
-9.39999e-242
-5.64787e-244
-5.24499e-140
-1.00495e-142
-1.92448e-145
-3.73898e-148
-7.46707e-151
-1.54989e-153
-3.36675e-156
-7.67626e-159
-1.83487e-161
-4.58983e-164
-1.19375e-166
-3.20775e-169
-8.85563e-172
-2.5012e-174
-7.20708e-177
-2.11532e-179
-6.32157e-182
-1.92416e-184
-5.97082e-187
-1.89112e-189
-6.12287e-192
-2.03099e-194
-6.91694e-197
-2.42449e-199
-8.77627e-202
-3.29355e-204
-1.28645e-206
-5.2451e-209
-2.23904e-211
-9.99502e-214
-4.66903e-216
-2.27341e-218
-1.15274e-220
-6.06713e-223
-3.30593e-225
-1.86046e-227
-1.07818e-229
-6.4117e-232
-3.89241e-234
-2.39689e-236
-1.4858e-238
-9.17119e-241
-5.5617e-243
-3.26514e-245
-1.00845e-140
-1.92605e-143
-3.68093e-146
-7.14051e-149
-1.42312e-151
-2.94212e-154
-6.34786e-157
-1.43313e-159
-3.38289e-162
-8.33478e-165
-2.13391e-167
-5.64115e-170
-1.53142e-172
-4.25133e-175
-1.20387e-177
-3.47376e-180
-1.02115e-182
-3.05907e-185
-9.3449e-188
-2.91347e-190
-9.28075e-193
-3.02614e-195
-1.01269e-197
-3.48862e-200
-1.24179e-202
-4.58778e-205
-1.76614e-207
-7.09825e-210
-2.98477e-212
-1.31142e-214
-6.0238e-217
-2.88201e-219
-1.43389e-221
-7.39306e-224
-3.93935e-226
-2.16372e-228
-1.22146e-230
-7.06502e-233
-4.16817e-235
-2.48946e-237
-1.48959e-239
-8.8303e-242
-5.12938e-244
-2.88268e-246
-1.80442e-141
-3.39219e-144
-6.36945e-147
-1.21056e-149
-2.35653e-152
-4.74604e-155
-9.95312e-158
-2.1796e-160
-4.98845e-163
-1.19076e-165
-2.94885e-168
-7.54015e-171
-1.98202e-173
-5.3352e-176
-1.46594e-178
-4.10355e-181
-1.16894e-183
-3.38693e-186
-9.9857e-189
-2.99853e-191
-9.18391e-194
-2.87777e-196
-9.26716e-199
-3.07979e-201
-1.06022e-203
-3.79493e-206
-1.41697e-208
-5.5251e-211
-2.25342e-213
-9.59827e-216
-4.27063e-218
-1.97842e-220
-9.52767e-223
-4.75621e-225
-2.45408e-227
-1.30527e-229
-7.13192e-232
-3.987e-234
-2.2684e-236
-1.3058e-238
-7.54921e-241
-4.33451e-243
-2.44197e-245
-1.33421e-247
-3.14906e-142
-5.88187e-145
-1.09834e-147
-2.07668e-150
-4.01935e-153
-8.03355e-156
-1.66768e-158
-3.60568e-161
-8.12613e-164
-1.90671e-166
-4.63918e-169
-1.16389e-171
-2.99492e-174
-7.86983e-177
-2.10478e-179
-5.71929e-182
-1.57863e-184
-4.43014e-187
-1.26652e-189
-3.69716e-192
-1.10457e-194
-3.38748e-197
-1.0704e-199
-3.49727e-202
-1.1851e-204
-4.1773e-207
-1.53578e-209
-5.89346e-212
-2.36369e-214
-9.89435e-217
-4.32311e-219
-1.96566e-221
-9.28322e-224
-4.54104e-226
-2.29371e-228
-1.19272e-230
-6.36214e-233
-3.46758e-235
-1.92153e-237
-1.07519e-239
-6.01935e-242
-3.33554e-244
-1.80895e-246
-9.48921e-249
-5.10873e-143
-9.37776e-146
-1.71868e-148
-3.18275e-151
-6.02149e-154
-1.17475e-156
-2.3781e-159
-5.00801e-162
-1.10107e-164
-2.51431e-167
-5.93266e-170
-1.43909e-172
-3.56884e-175
-9.01091e-178
-2.31081e-180
-6.01674e-183
-1.59273e-185
-4.29593e-188
-1.18378e-190
-3.34121e-193
-9.67869e-196
-2.88411e-198
-8.86632e-201
-2.81904e-203
-9.2917e-206
-3.18286e-208
-1.13635e-210
-4.23162e-213
-1.64582e-215
-6.67636e-218
-2.82487e-220
-1.24329e-222
-5.67987e-225
-2.68601e-227
-1.31053e-229
-6.57677e-232
-3.38249e-234
-1.77545e-236
-9.4604e-239
-5.08713e-241
-2.74046e-243
-1.46301e-245
-7.654e-248
-3.88691e-250
-1.12765e-144
-2.05233e-147
-3.7388e-150
-6.88666e-153
-1.29331e-155
-2.49047e-158
-4.93469e-161
-1.00742e-163
-2.12814e-166
-4.65147e-169
-1.04851e-171
-2.42789e-174
-5.75379e-177
-1.39183e-179
-3.43315e-182
-8.6339e-185
-2.21584e-187
-5.81168e-190
-1.56002e-192
-4.29261e-195
-1.21273e-197
-3.52394e-200
-1.05569e-202
-3.26796e-205
-1.04743e-207
-3.48113e-210
-1.20221e-212
-4.31855e-215
-1.61563e-217
-6.29088e-220
-2.54705e-222
-1.07028e-224
-4.6601e-227
-2.09932e-229
-9.75847e-232