/*--------------------------------*- C++ -*----------------------------------*\
| =========                 |                                                 |
| \\      /  F ield         | OpenFOAM: The Open Source CFD Toolbox           |
|  \\    /   O peration     | Version:  v1912                                 |
|   \\  /    A nd           | Website:  www.openfoam.com                      |
|    \\/     M anipulation  |                                                 |
\*---------------------------------------------------------------------------*/
FoamFile
{
    version     2.0;
    format      ascii;
    class       volScalarField;
    location    "80";
    object      k;
}
// * * * * * * * * * * * * * * * * * * * * * * * * * * * * * * * * * * * * * //

dimensions      [0 2 -2 0 0 0 0];


internalField   nonuniform List<scalar> 
14268
(
5.54213e-07
5.54904e-07
5.54643e-07
5.53329e-07
5.5156e-07
5.50187e-07
5.4971e-07
5.49646e-07
5.50303e-07
5.50928e-07
5.51599e-07
5.52067e-07
5.52918e-07
5.54403e-07
5.56543e-07
5.5943e-07
5.62997e-07
5.66971e-07
5.70799e-07
5.74149e-07
5.76717e-07
5.78421e-07
5.79397e-07
5.79867e-07
5.79912e-07
5.79917e-07
5.8005e-07
5.80309e-07
5.80875e-07
5.81694e-07
5.8268e-07
5.84167e-07
5.85288e-07
5.87422e-07
5.88772e-07
5.91251e-07
5.93528e-07
5.96402e-07
5.99472e-07
6.02784e-07
6.06784e-07
6.10468e-07
6.14592e-07
6.17896e-07
6.21233e-07
6.23825e-07
6.26356e-07
6.28281e-07
6.29883e-07
6.30822e-07
6.31916e-07
6.32133e-07
6.3228e-07
6.31951e-07
6.31589e-07
6.3161e-07
6.31546e-07
6.31671e-07
6.31739e-07
6.31834e-07
6.32195e-07
6.32447e-07
6.32878e-07
6.33195e-07
6.33321e-07
6.33242e-07
6.33213e-07
6.33049e-07
6.33504e-07
6.34773e-07
6.36772e-07
6.39101e-07
6.42031e-07
6.44941e-07
6.48086e-07
6.51097e-07
6.54071e-07
6.56734e-07
6.59291e-07
6.61946e-07
6.65186e-07
6.69871e-07
6.76642e-07
6.82134e-07
6.86805e-07
6.88825e-07
3.48507e-07
3.52042e-07
3.54362e-07
3.5468e-07
3.53024e-07
3.49324e-07
3.44226e-07
3.38023e-07
3.30988e-07
3.23064e-07
3.14342e-07
3.05024e-07
2.954e-07
2.8577e-07
2.76538e-07
2.68094e-07
2.60719e-07
2.54542e-07
2.49573e-07
2.45742e-07
2.43013e-07
2.41119e-07
2.39886e-07
2.39489e-07
2.39454e-07
2.39539e-07
2.40111e-07
2.40678e-07
2.41254e-07
2.43337e-07
2.44886e-07
2.47393e-07
2.50264e-07
2.51764e-07
2.55286e-07
2.57568e-07
2.60943e-07
2.64876e-07
2.68188e-07
2.72957e-07
2.7723e-07
2.82523e-07
2.87311e-07
2.91948e-07
2.95935e-07
2.99592e-07
3.02523e-07
3.05505e-07
3.07264e-07
3.08551e-07
3.08542e-07
3.07137e-07
3.04755e-07
3.00734e-07
2.96025e-07
2.90964e-07
2.85065e-07
2.79022e-07
2.72127e-07
2.65309e-07
2.58676e-07
2.52349e-07
2.46697e-07
2.42061e-07
2.38269e-07
2.35638e-07
2.34384e-07
2.3428e-07
2.34831e-07
2.36565e-07
2.38846e-07
2.41784e-07
2.45407e-07
2.49403e-07
2.53167e-07
2.57516e-07
2.61194e-07
2.64986e-07
2.68191e-07
2.71771e-07
2.75481e-07
2.80168e-07
2.83992e-07
2.8432e-07
2.8297e-07
2.78472e-07
1.61712e-07
1.64011e-07
1.65496e-07
1.65812e-07
1.64853e-07
1.62481e-07
1.58949e-07
1.54509e-07
1.49374e-07
1.43691e-07
1.37622e-07
1.31379e-07
1.25214e-07
1.1934e-07
1.13981e-07
1.09303e-07
1.05392e-07
1.02246e-07
9.98105e-08
9.79956e-08
9.67279e-08
9.58525e-08
9.52683e-08
9.5015e-08
9.49128e-08
9.48593e-08
9.49709e-08
9.50684e-08
9.51728e-08
9.58391e-08
9.6303e-08
9.71464e-08
9.81403e-08
9.86203e-08
9.98986e-08
1.00723e-07
1.01967e-07
1.03451e-07
1.04683e-07
1.06532e-07
1.082e-07
1.10317e-07
1.12235e-07
1.14116e-07
1.15714e-07
1.17209e-07
1.18387e-07
1.19656e-07
1.20381e-07
1.20936e-07
1.20835e-07
1.20043e-07
1.18772e-07
1.16724e-07
1.14386e-07
1.11914e-07
1.09108e-07
1.06301e-07
1.03204e-07
1.00242e-07
9.74573e-08
9.48956e-08
9.2682e-08
9.09095e-08
8.94776e-08
8.84932e-08
8.80119e-08
8.7929e-08
8.80736e-08
8.86083e-08
8.93365e-08
9.02867e-08
9.14879e-08
9.28264e-08
9.40906e-08
9.55878e-08
9.68625e-08
9.82076e-08
9.93236e-08
1.00561e-07
1.01684e-07
1.02989e-07
1.03664e-07
1.03659e-07
1.03551e-07
1.03702e-07
8.99604e-08
9.11467e-08
9.1987e-08
9.22606e-08
9.1906e-08
9.08309e-08
8.91274e-08
8.6934e-08
8.4383e-08
8.15952e-08
7.86776e-08
7.57578e-08
7.29525e-08
7.0362e-08
6.8076e-08
6.61488e-08
6.45889e-08
6.33681e-08
6.24424e-08
6.17634e-08
6.12868e-08
6.09496e-08
6.07274e-08
6.06102e-08
6.05463e-08
6.05056e-08
6.05087e-08
6.05021e-08
6.05444e-08
6.07082e-08
6.0856e-08
6.11345e-08
6.14193e-08
6.16417e-08
6.20167e-08
6.23379e-08
6.2763e-08
6.32715e-08
6.37389e-08
6.43747e-08
6.50165e-08
6.57836e-08
6.65127e-08
6.72046e-08
6.78133e-08
6.8369e-08
6.88225e-08
6.92987e-08
6.95743e-08
6.97687e-08
6.97029e-08
6.93458e-08
6.87952e-08
6.79443e-08
6.70046e-08
6.60315e-08
6.4946e-08
6.38855e-08
6.27542e-08
6.16985e-08
6.07424e-08
5.98833e-08
5.91653e-08
5.86006e-08
5.81723e-08
5.78755e-08
5.77378e-08
5.77114e-08
5.77628e-08
5.79106e-08
5.81275e-08
5.83984e-08
5.87594e-08
5.91524e-08
5.95476e-08
6.00004e-08
6.04112e-08
6.08253e-08
6.11934e-08
6.15812e-08
6.19138e-08
6.22542e-08
6.23788e-08
6.23252e-08
6.22453e-08
6.20486e-08
6.50765e-08
6.56471e-08
6.60383e-08
6.61069e-08
6.58449e-08
6.52113e-08
6.42642e-08
6.30791e-08
6.17444e-08
6.03299e-08
5.89048e-08
5.75389e-08
5.62898e-08
5.51909e-08
5.42672e-08
5.35328e-08
5.29751e-08
5.25658e-08
5.22779e-08
5.20858e-08
5.19587e-08
5.18733e-08
5.18377e-08
5.18147e-08
5.18049e-08
5.18082e-08
5.18087e-08
5.17822e-08
5.1832e-08
5.18159e-08
5.18846e-08
5.19762e-08
5.19916e-08
5.21525e-08
5.21881e-08
5.23522e-08
5.24918e-08
5.26404e-08
5.28548e-08
5.30299e-08
5.33027e-08
5.35596e-08
5.38504e-08
5.40955e-08
5.43354e-08
5.45406e-08
5.4729e-08
5.49073e-08
5.50239e-08
5.50899e-08
5.50625e-08
5.49114e-08
5.46794e-08
5.43395e-08
5.39683e-08
5.36036e-08
5.31958e-08
5.28128e-08
5.24211e-08
5.20684e-08
5.17666e-08
5.15093e-08
5.13161e-08
5.1169e-08
5.10704e-08
5.10042e-08
5.09898e-08
5.09897e-08
5.10259e-08
5.10592e-08
5.11218e-08
5.11819e-08
5.12778e-08
5.13629e-08
5.14778e-08
5.15825e-08
5.17111e-08
5.18163e-08
5.19338e-08
5.20381e-08
5.21442e-08
5.22485e-08
5.23019e-08
5.2305e-08
5.23144e-08
5.23296e-08
5.50237e-08
5.52797e-08
5.55086e-08
5.5554e-08
5.54309e-08
5.51147e-08
5.46413e-08
5.40633e-08
5.34282e-08
5.27762e-08
5.21341e-08
5.15401e-08
5.10155e-08
5.05724e-08
5.02209e-08
4.99629e-08
4.97869e-08
4.96775e-08
4.96156e-08
4.95847e-08
4.95638e-08
4.9549e-08
4.95596e-08
4.95544e-08
4.95444e-08
4.95521e-08
4.95537e-08
4.95144e-08
4.95637e-08
4.95107e-08
4.95455e-08
4.95967e-08
4.95335e-08
4.96616e-08
4.95948e-08
4.97015e-08
4.9748e-08
4.97712e-08
4.99044e-08
4.99118e-08
5.00647e-08
5.01328e-08
5.02684e-08
5.03571e-08
5.04616e-08
5.05325e-08
5.06225e-08
5.06825e-08
5.07395e-08
5.07604e-08
5.07482e-08
5.06734e-08
5.05742e-08
5.04233e-08
5.02655e-08
5.01269e-08
4.99664e-08
4.98315e-08
4.9699e-08
4.95873e-08
4.95122e-08
4.94494e-08
4.9424e-08
4.94046e-08
4.94218e-08
4.94358e-08
4.94603e-08
4.94779e-08
4.95085e-08
4.95207e-08
4.95365e-08
4.95414e-08
4.95573e-08
4.95572e-08
4.95828e-08
4.95898e-08
4.96274e-08
4.96403e-08
4.96813e-08
4.97004e-08
4.97365e-08
4.97572e-08
4.97579e-08
4.97307e-08
4.97089e-08
4.96119e-08
5.17493e-08
5.18582e-08
5.19556e-08
5.19207e-08
5.17737e-08
5.15205e-08
5.11904e-08
5.08022e-08
5.0416e-08
5.00173e-08
4.96654e-08
4.93478e-08
4.90987e-08
4.89021e-08
4.87664e-08
4.86964e-08
4.86764e-08
4.86949e-08
4.87422e-08
4.87977e-08
4.88456e-08
4.88862e-08
4.89321e-08
4.89461e-08
4.89503e-08
4.89724e-08
4.89668e-08
4.89208e-08
4.89743e-08
4.89054e-08
4.89115e-08
4.8961e-08
4.88667e-08
4.89833e-08
4.88889e-08
4.89654e-08
4.89817e-08
4.89646e-08
4.90727e-08
4.90267e-08
4.91436e-08
4.91403e-08
4.92174e-08
4.9252e-08
4.93053e-08
4.93246e-08
4.93805e-08
4.93949e-08
4.94344e-08
4.94382e-08
4.94268e-08
4.93816e-08
4.93221e-08
4.92495e-08
4.91667e-08
4.91068e-08
4.9039e-08
4.89823e-08
4.89495e-08
4.89108e-08
4.89179e-08
4.89168e-08
4.89537e-08
4.8981e-08
4.90315e-08
4.90732e-08
4.91125e-08
4.91421e-08
4.91722e-08
4.91874e-08
4.91875e-08
4.91801e-08
4.91673e-08
4.91407e-08
4.91291e-08
4.91018e-08
4.91027e-08
4.90847e-08
4.90966e-08
4.9088e-08
4.90998e-08
4.91023e-08
4.91065e-08
4.91069e-08
4.91189e-08
4.91175e-08
5.02502e-08
5.02635e-08
5.03039e-08
5.0264e-08
5.01516e-08
4.9974e-08
4.97559e-08
4.94996e-08
4.92713e-08
4.90366e-08
4.88319e-08
4.86621e-08
4.85341e-08
4.8446e-08
4.83969e-08
4.83982e-08
4.84318e-08
4.84991e-08
4.85741e-08
4.865e-08
4.87094e-08
4.87544e-08
4.88094e-08
4.8826e-08
4.88256e-08
4.88473e-08
4.88312e-08
4.87766e-08
4.88362e-08
4.87523e-08
4.87395e-08
4.88009e-08
4.86818e-08
4.88048e-08
4.87078e-08
4.87665e-08
4.87842e-08
4.87519e-08
4.88641e-08
4.87907e-08
4.89002e-08
4.8875e-08
4.893e-08
4.89439e-08
4.89746e-08
4.89735e-08
4.90184e-08
4.9013e-08
4.90561e-08
4.90505e-08
4.90437e-08
4.90142e-08
4.89651e-08
4.89203e-08
4.88656e-08
4.88254e-08
4.87877e-08
4.87607e-08
4.87503e-08
4.87333e-08
4.87646e-08
4.8778e-08
4.88327e-08
4.88799e-08
4.89479e-08
4.89997e-08
4.90491e-08
4.90837e-08
4.91215e-08
4.91436e-08
4.91443e-08
4.9137e-08
4.91189e-08
4.90848e-08
4.90608e-08
4.90216e-08
4.90071e-08
4.89772e-08
4.89775e-08
4.89627e-08
4.89683e-08
4.8969e-08
4.89642e-08
4.89511e-08
4.89444e-08
4.88802e-08
4.99751e-08
4.99443e-08
4.99356e-08
4.98535e-08
4.97065e-08
4.95074e-08
4.92792e-08
4.90491e-08
4.88362e-08
4.86487e-08
4.84753e-08
4.83532e-08
4.82559e-08
4.81944e-08
4.81662e-08
4.81882e-08
4.82416e-08
4.83299e-08
4.84255e-08
4.85242e-08
4.86098e-08
4.86865e-08
4.87694e-08
4.88041e-08
4.88071e-08
4.88335e-08
4.88157e-08
4.87528e-08
4.88164e-08
4.87221e-08
4.86909e-08
4.87629e-08
4.86239e-08
4.87477e-08
4.86612e-08
4.87004e-08
4.87392e-08
4.86892e-08
4.88193e-08
4.87338e-08
4.88443e-08
4.88095e-08
4.88501e-08
4.88567e-08
4.88753e-08
4.88674e-08
4.89094e-08
4.88877e-08
4.89228e-08
4.89077e-08
4.88863e-08
4.88592e-08
4.88054e-08
4.87624e-08
4.87051e-08
4.86824e-08
4.86401e-08
4.862e-08
4.8627e-08
4.86128e-08
4.86606e-08
4.86837e-08
4.87529e-08
4.88118e-08
4.88957e-08
4.89624e-08
4.90246e-08
4.90696e-08
4.91212e-08
4.91565e-08
4.91675e-08
4.91622e-08
4.91428e-08
4.91062e-08
4.90692e-08
4.90244e-08
4.89963e-08
4.89611e-08
4.89483e-08
4.89329e-08
4.89299e-08
4.89278e-08
4.89184e-08
4.89032e-08
4.89074e-08
4.88693e-08
4.97801e-08
4.97032e-08
4.9674e-08
4.9583e-08
4.94341e-08
4.92347e-08
4.90118e-08
4.88085e-08
4.86079e-08
4.84476e-08
4.8291e-08
4.81855e-08
4.81019e-08
4.80508e-08
4.80317e-08
4.80633e-08
4.81275e-08
4.82254e-08
4.83512e-08
4.84848e-08
4.85948e-08
4.86927e-08
4.88129e-08
4.88685e-08
4.88618e-08
4.88846e-08
4.88508e-08
4.87743e-08
4.88435e-08
4.87414e-08
4.86843e-08
4.87626e-08
4.86117e-08
4.87309e-08
4.86575e-08
4.8678e-08
4.87369e-08
4.8676e-08
4.88222e-08
4.87333e-08
4.88496e-08
4.88144e-08
4.88421e-08
4.88472e-08
4.88512e-08
4.88288e-08
4.88707e-08
4.88426e-08
4.88778e-08
4.88619e-08
4.88365e-08
4.88058e-08
4.87424e-08
4.86987e-08
4.8646e-08
4.86257e-08
4.85843e-08
4.85628e-08
4.85694e-08
4.8556e-08
4.86137e-08
4.86374e-08
4.87251e-08
4.88059e-08
4.89051e-08
4.89852e-08
4.90597e-08
4.911e-08
4.91761e-08
4.92254e-08
4.92459e-08
4.92439e-08
4.92165e-08
4.91707e-08
4.91279e-08
4.90762e-08
4.90352e-08
4.89893e-08
4.89641e-08
4.89457e-08
4.89404e-08
4.89384e-08
4.89269e-08
4.89101e-08
4.89121e-08
4.88479e-08
4.98773e-08
4.97638e-08
4.96923e-08
4.95623e-08
4.93842e-08
4.91565e-08
4.89227e-08
4.87048e-08
4.85047e-08
4.83333e-08
4.81733e-08
4.80596e-08
4.79702e-08
4.7915e-08
4.78909e-08
4.79243e-08
4.80125e-08
4.81611e-08
4.83344e-08
4.85152e-08
4.86726e-08
4.88275e-08
4.90027e-08
4.90859e-08
4.90546e-08
4.90704e-08
4.90314e-08
4.89348e-08
4.90007e-08
4.88862e-08
4.87784e-08
4.88573e-08
4.86726e-08
4.877e-08
4.87089e-08
4.86884e-08
4.87724e-08
4.86954e-08
4.88678e-08
4.87711e-08
4.88921e-08
4.88646e-08
4.88652e-08
4.88649e-08
4.88623e-08
4.88249e-08
4.88602e-08
4.88193e-08
4.88515e-08
4.88373e-08
4.88022e-08
4.87659e-08
4.86918e-08
4.86426e-08
4.85909e-08
4.85714e-08
4.85298e-08
4.85107e-08
4.85241e-08
4.85096e-08
4.85854e-08
4.86276e-08
4.87197e-08
4.88003e-08
4.89142e-08
4.90064e-08
4.90902e-08
4.91537e-08
4.92402e-08
4.93068e-08
4.93361e-08
4.93415e-08
4.93143e-08
4.92554e-08
4.91956e-08
4.91297e-08
4.90706e-08
4.90242e-08
4.8995e-08
4.89666e-08
4.89554e-08
4.89549e-08
4.89392e-08
4.89146e-08
4.89137e-08
4.88402e-08
4.99772e-08
4.98265e-08
4.97216e-08
4.95611e-08
4.93603e-08
4.91092e-08
4.88604e-08
4.86215e-08
4.84159e-08
4.82256e-08
4.80528e-08
4.79235e-08
4.78215e-08
4.77603e-08
4.77361e-08
4.77839e-08
4.79034e-08
4.80951e-08
4.83284e-08
4.85647e-08
4.87663e-08
4.89726e-08
4.92111e-08
4.9336e-08
4.93161e-08
4.93594e-08
4.9364e-08
4.92616e-08
4.93157e-08
4.92257e-08
4.90679e-08
4.91414e-08
4.8908e-08
4.89807e-08
4.8914e-08
4.881e-08
4.8918e-08
4.88199e-08
4.90088e-08
4.89052e-08
4.90189e-08
4.89954e-08
4.89766e-08
4.89821e-08
4.8967e-08
4.88796e-08
4.89078e-08
4.884e-08
4.88586e-08
4.88396e-08
4.88071e-08
4.8772e-08
4.86728e-08
4.86259e-08
4.85748e-08
4.8559e-08
4.85123e-08
4.84909e-08
4.85014e-08
4.8487e-08
4.85765e-08
4.86214e-08
4.87405e-08
4.88462e-08
4.89943e-08
4.91105e-08
4.92062e-08
4.92771e-08
4.93803e-08
4.94775e-08
4.9521e-08
4.95293e-08
4.94841e-08
4.94285e-08
4.93222e-08
4.9258e-08
4.91657e-08
4.90964e-08
4.90365e-08
4.90078e-08
4.89871e-08
4.89889e-08
4.89705e-08
4.89411e-08
4.89411e-08
4.88566e-08
5.01444e-08
4.99464e-08
4.97906e-08
4.95857e-08
4.93414e-08
4.90546e-08
4.8782e-08
4.85212e-08
4.83041e-08
4.80982e-08
4.79083e-08
4.77663e-08
4.76516e-08
4.75904e-08
4.75779e-08
4.76418e-08
4.77817e-08
4.80058e-08
4.82757e-08
4.85433e-08
4.87769e-08
4.90183e-08
4.93084e-08
4.94751e-08
4.94933e-08
4.95836e-08
4.96501e-08
4.95577e-08
4.96074e-08
4.96014e-08
4.94394e-08
4.95111e-08
4.92844e-08
4.92987e-08
4.92346e-08
4.90563e-08
4.91732e-08
4.90272e-08
4.92058e-08
4.91031e-08
4.9214e-08
4.91866e-08
4.91704e-08
4.91451e-08
4.91149e-08
4.90084e-08
4.90213e-08
4.89284e-08
4.89215e-08
4.88936e-08
4.88414e-08
4.88007e-08
4.8689e-08
4.86347e-08
4.85675e-08
4.85593e-08
4.85017e-08
4.84814e-08
4.84912e-08
4.84792e-08
4.85809e-08
4.86366e-08
4.87425e-08
4.88639e-08
4.90269e-08
4.91737e-08
4.92991e-08
4.93969e-08
4.95452e-08
4.97019e-08
4.97968e-08
4.98049e-08
4.97629e-08
4.96387e-08
4.95051e-08
4.94033e-08
4.92754e-08
4.91856e-08
4.90971e-08
4.90509e-08
4.90204e-08
4.90267e-08
4.90081e-08
4.89766e-08
4.89796e-08
4.88802e-08
5.03369e-08
5.0094e-08
4.98903e-08
4.96465e-08
4.93593e-08
4.90334e-08
4.87232e-08
4.84352e-08
4.81943e-08
4.79741e-08
4.77589e-08
4.76084e-08
4.74817e-08
4.74193e-08
4.74083e-08
4.74643e-08
4.75931e-08
4.78165e-08
4.80941e-08
4.83644e-08
4.86087e-08
4.88694e-08
4.92115e-08
4.94431e-08
4.95109e-08
4.96287e-08
4.97448e-08
4.96693e-08
4.97147e-08
4.97689e-08
4.96372e-08
4.97306e-08
4.95657e-08
4.94959e-08
4.94609e-08
4.92567e-08
4.9406e-08
4.92631e-08
4.94537e-08
4.93763e-08
4.94929e-08
4.94839e-08
4.9447e-08
4.94151e-08
4.93765e-08
4.9239e-08
4.92243e-08
4.90942e-08
4.90571e-08
4.90146e-08
4.89404e-08
4.88928e-08
4.87595e-08
4.86857e-08
4.86052e-08
4.85911e-08
4.8524e-08
4.85007e-08
4.84968e-08
4.84718e-08
4.85734e-08
4.86206e-08
4.87264e-08
4.88361e-08
4.90317e-08
4.92215e-08
4.93914e-08
4.95022e-08
4.96732e-08
4.98359e-08
4.99622e-08
5.00615e-08
5.00816e-08
5.00084e-08
4.98656e-08
4.972e-08
4.95279e-08
4.93752e-08
4.92667e-08
4.92085e-08
4.91751e-08
4.91768e-08
4.91552e-08
4.91177e-08
4.91185e-08
4.90023e-08
5.04859e-08
5.02035e-08
4.99626e-08
4.96861e-08
4.93605e-08
4.90004e-08
4.86612e-08
4.83511e-08
4.80926e-08
4.78665e-08
4.76404e-08
4.74919e-08
4.73606e-08
4.72927e-08
4.72718e-08
4.73057e-08
4.74041e-08
4.75904e-08
4.78241e-08
4.80433e-08
4.82589e-08
4.85036e-08
4.88888e-08
4.92061e-08
4.93445e-08
4.95068e-08
4.96817e-08
4.96156e-08
4.963e-08
4.97064e-08
4.96028e-08
4.97075e-08
4.95886e-08
4.94822e-08
4.94684e-08
4.92627e-08
4.94364e-08
4.93203e-08
4.95298e-08
4.94912e-08
4.96402e-08
4.96762e-08
4.96355e-08
4.96303e-08
4.96044e-08
4.94413e-08
4.93901e-08
4.92503e-08
4.91801e-08
4.91406e-08
4.90485e-08
4.89802e-08
4.88348e-08
4.8741e-08
4.86259e-08
4.86116e-08
4.85299e-08
4.85034e-08
4.84912e-08
4.84563e-08
4.85496e-08
4.8584e-08
4.86551e-08
4.87437e-08
4.88733e-08
4.91015e-08
4.92577e-08
4.94015e-08
4.95521e-08
4.98181e-08
4.999e-08
5.01224e-08
5.01995e-08
5.019e-08
5.01129e-08
4.99735e-08
4.97462e-08
4.95982e-08
4.94215e-08
4.93149e-08
4.92777e-08
4.92956e-08
4.92906e-08
4.92562e-08
4.92564e-08
4.91101e-08
5.05758e-08
5.02659e-08
4.99989e-08
4.97006e-08
4.93515e-08
4.89692e-08
4.86161e-08
4.82984e-08
4.80324e-08
4.78046e-08
4.7574e-08
4.74234e-08
4.7284e-08
4.72041e-08
4.7163e-08
4.71611e-08
4.72056e-08
4.73125e-08
4.74644e-08
4.7627e-08
4.78293e-08
4.80904e-08
4.85313e-08
4.89235e-08
4.91297e-08
4.93648e-08
4.95732e-08
4.95214e-08
4.95023e-08
4.95662e-08
4.94687e-08
4.95683e-08
4.94975e-08
4.93379e-08
4.93311e-08
4.91153e-08
4.932e-08
4.92596e-08
4.94884e-08
4.94872e-08
4.96543e-08
4.9725e-08
4.97029e-08
4.97262e-08
4.97097e-08
4.95389e-08
4.94923e-08
4.93108e-08
4.92221e-08
4.9148e-08
4.90583e-08
4.90045e-08
4.88285e-08
4.87286e-08
4.86196e-08
4.85953e-08
4.8513e-08
4.84833e-08
4.84625e-08
4.84132e-08
4.84837e-08
4.84792e-08
4.85075e-08
4.85403e-08
4.86881e-08
4.88513e-08
4.89453e-08
4.91645e-08
4.93016e-08
4.9548e-08
4.98209e-08
5.00293e-08
5.01683e-08
5.01942e-08
5.01432e-08
5.00162e-08
4.9815e-08
4.967e-08
4.9457e-08
4.93181e-08
4.92752e-08
4.93101e-08
4.93317e-08
4.93084e-08
4.93102e-08
4.91468e-08
5.06726e-08
5.03401e-08
5.00463e-08
4.97267e-08
4.93571e-08
4.89548e-08
4.85832e-08
4.82519e-08
4.79707e-08
4.77412e-08
4.75065e-08
4.73526e-08
4.72036e-08
4.71011e-08
4.70157e-08
4.69392e-08
4.6879e-08
4.68524e-08
4.68901e-08
4.70155e-08
4.72224e-08
4.74994e-08
4.79901e-08
4.84836e-08
4.87945e-08
4.91016e-08
4.9358e-08
4.93852e-08
4.93526e-08
4.9423e-08
4.93239e-08
4.94096e-08
4.93677e-08
4.915e-08
4.91163e-08
4.88556e-08
4.90715e-08
4.9079e-08
4.93248e-08
4.94047e-08
4.96223e-08
4.97262e-08
4.97317e-08
4.97799e-08
4.97909e-08
4.96485e-08
4.95392e-08
4.9339e-08
4.92391e-08
4.91872e-08
4.90796e-08
4.90134e-08
4.88448e-08
4.87308e-08
4.85992e-08
4.85789e-08
4.84824e-08
4.84473e-08
4.84013e-08
4.83208e-08
4.83428e-08
4.82756e-08
4.82494e-08
4.82374e-08
4.84374e-08
4.8499e-08
4.86544e-08
4.87499e-08
4.90635e-08
4.928e-08
4.95351e-08
4.98089e-08
5.00073e-08
5.01126e-08
5.01138e-08
5.00135e-08
4.98286e-08
4.96867e-08
4.94448e-08
4.9312e-08
4.92759e-08
4.93189e-08
4.93548e-08
4.93392e-08
4.93446e-08
4.91776e-08
5.07675e-08
5.04098e-08
5.00939e-08
4.97532e-08
4.93586e-08
4.89353e-08
4.85454e-08
4.82029e-08
4.79121e-08
4.76819e-08
4.74438e-08
4.72807e-08
4.71104e-08
4.69629e-08
4.67946e-08
4.65933e-08
4.63752e-08
4.61835e-08
4.6093e-08
4.61614e-08
4.63489e-08
4.65985e-08
4.71072e-08
4.77594e-08
4.82178e-08
4.86395e-08
4.90063e-08
4.90962e-08
4.9099e-08
4.92103e-08
4.91322e-08
4.91891e-08
4.9157e-08
4.888e-08
4.88129e-08
4.84861e-08
4.86776e-08
4.87296e-08
4.90083e-08
4.91765e-08
4.9455e-08
4.96807e-08
4.9716e-08
4.97999e-08
4.98312e-08
4.97073e-08
4.9641e-08
4.94442e-08
4.93131e-08
4.92188e-08
4.91101e-08
4.90378e-08
4.88366e-08
4.87228e-08
4.85817e-08
4.85438e-08
4.84344e-08
4.83758e-08
4.82873e-08
4.81578e-08
4.81112e-08
4.79909e-08
4.78896e-08
4.79029e-08
4.7926e-08
4.81047e-08
4.82666e-08
4.83139e-08
4.86441e-08
4.8978e-08
4.92528e-08
4.95569e-08
4.98092e-08
4.99458e-08
4.99948e-08
4.99322e-08
4.97679e-08
4.96034e-08
4.93796e-08
4.92169e-08
4.91829e-08
4.92504e-08
4.93242e-08
4.93252e-08
4.9341e-08
4.91736e-08
5.08731e-08
5.04924e-08
5.01467e-08
4.97792e-08
4.93584e-08
4.89152e-08
4.85068e-08
4.8152e-08
4.78513e-08
4.76182e-08
4.7371e-08
4.71909e-08
4.69821e-08
4.67597e-08
4.64625e-08
4.60816e-08
4.5655e-08
4.52595e-08
4.50028e-08
4.49314e-08
4.50628e-08
4.52513e-08
4.57667e-08
4.66492e-08
4.73441e-08
4.79516e-08
4.8498e-08
4.87216e-08
4.87978e-08
4.89759e-08
4.89329e-08
4.89726e-08
4.89458e-08
4.86078e-08
4.84907e-08
4.80647e-08
4.81959e-08
4.82769e-08
4.85166e-08
4.87787e-08
4.91743e-08
4.95067e-08
4.96053e-08
4.97582e-08
4.98258e-08
4.97277e-08
4.96347e-08
4.94366e-08
4.93215e-08
4.92535e-08
4.91327e-08
4.90611e-08
4.88612e-08
4.87053e-08
4.85369e-08
4.84833e-08
4.83362e-08
4.82508e-08
4.80923e-08
4.79074e-08
4.77791e-08
4.76175e-08
4.74426e-08
4.73854e-08
4.73349e-08
4.73506e-08
4.75942e-08
4.78075e-08
4.79695e-08
4.83996e-08
4.88048e-08
4.92161e-08
4.95542e-08
4.97469e-08
4.98192e-08
4.97794e-08
4.96444e-08
4.94621e-08
4.91682e-08
4.91159e-08
4.9104e-08
4.91723e-08
4.92435e-08
4.92593e-08
4.92844e-08
4.91238e-08
5.09661e-08
5.05546e-08
5.01858e-08
4.97993e-08
4.93551e-08
4.88883e-08
4.84614e-08
4.80953e-08
4.77829e-08
4.75391e-08
4.72771e-08
4.70706e-08
4.67982e-08
4.64551e-08
4.59719e-08
4.53537e-08
4.46625e-08
4.39937e-08
4.34601e-08
4.31494e-08
4.31277e-08
4.31651e-08
4.36293e-08
4.48194e-08
4.58082e-08
4.66885e-08
4.75571e-08
4.802e-08
4.82081e-08
4.85347e-08
4.85818e-08
4.86348e-08
4.86679e-08
4.8278e-08
4.81339e-08
4.76251e-08
4.76518e-08
4.76794e-08
4.79274e-08
4.83016e-08
4.87798e-08
4.92292e-08
4.93929e-08
4.96159e-08
4.97795e-08
4.97247e-08
4.96722e-08
4.94699e-08
4.93115e-08
4.92407e-08
4.91129e-08
4.90221e-08
4.88147e-08
4.86495e-08
4.84386e-08
4.83559e-08
4.81692e-08
4.80361e-08
4.78099e-08
4.75543e-08
4.73601e-08
4.70959e-08
4.6878e-08
4.669e-08
4.65226e-08
4.64927e-08
4.67242e-08
4.6987e-08
4.72667e-08
4.76953e-08
4.81932e-08
4.87177e-08
4.91963e-08
4.94947e-08
4.96251e-08
4.96177e-08
4.94754e-08
4.9292e-08
4.90072e-08
4.89928e-08
4.89532e-08
4.89494e-08
4.90466e-08
4.91151e-08
4.9161e-08
4.90174e-08
5.1071e-08
5.06377e-08
5.02386e-08
4.98213e-08
4.93463e-08
4.88606e-08
4.84151e-08
4.80326e-08
4.77054e-08
4.74484e-08
4.71667e-08
4.69053e-08
4.65294e-08
4.6014e-08
4.52902e-08
4.43716e-08
4.3321e-08
4.22326e-08
4.12556e-08
4.05789e-08
4.03206e-08
4.01743e-08
4.05758e-08
4.21178e-08
4.34898e-08
4.47391e-08
4.60628e-08
4.69036e-08
4.7296e-08
4.7812e-08
4.80003e-08
4.8088e-08
4.81982e-08
4.77808e-08
4.76336e-08
4.70624e-08
4.69221e-08
4.70028e-08
4.72054e-08
4.76544e-08
4.8249e-08
4.87995e-08
4.90431e-08
4.9373e-08
4.95797e-08
4.95594e-08
4.96005e-08
4.94469e-08
4.9284e-08
4.91823e-08
4.90648e-08
4.89929e-08
4.87559e-08
4.85375e-08
4.82901e-08
4.81518e-08
4.79166e-08
4.77356e-08
4.74279e-08
4.71098e-08
4.67925e-08
4.63998e-08
4.61444e-08
4.58477e-08
4.55624e-08
4.56211e-08
4.57903e-08
4.60272e-08
4.62281e-08
4.66146e-08
4.721e-08
4.79239e-08
4.86128e-08
4.91005e-08
4.93456e-08
4.94052e-08
4.93006e-08
4.90849e-08
4.88656e-08
4.87876e-08
4.86869e-08
4.8724e-08
4.88562e-08
4.89522e-08
4.90089e-08
4.88806e-08
5.11635e-08
5.06919e-08
5.02671e-08
4.98322e-08
4.93386e-08
4.88261e-08
4.83567e-08
4.79566e-08
4.761e-08
4.73235e-08
4.69972e-08
4.66459e-08
4.61203e-08
4.53647e-08
4.43116e-08
4.29679e-08
4.13754e-08
3.96425e-08
3.80018e-08
3.67855e-08
3.6172e-08
3.57485e-08
3.59817e-08
3.79732e-08
3.98373e-08
4.16056e-08
4.35969e-08
4.50201e-08
4.58223e-08
4.66517e-08
4.7052e-08
4.72861e-08
4.75239e-08
4.7115e-08
4.69866e-08
4.63773e-08
4.60538e-08
4.60786e-08
4.62785e-08
4.68615e-08
4.75913e-08
4.83526e-08
4.86979e-08
4.90231e-08
4.93766e-08
4.94418e-08
4.94311e-08
4.931e-08
4.91228e-08
4.9054e-08
4.89251e-08
4.88203e-08
4.85992e-08
4.83339e-08
4.80167e-08
4.78437e-08
4.75473e-08
4.73208e-08
4.69348e-08
4.64948e-08
4.60367e-08
4.55449e-08
4.50536e-08
4.48119e-08
4.45473e-08
4.44932e-08
4.466e-08
4.48495e-08
4.49391e-08
4.52763e-08
4.58968e-08
4.67373e-08
4.76364e-08
4.83777e-08
4.88295e-08
4.90327e-08
4.8992e-08
4.88136e-08
4.86216e-08
4.84489e-08
4.83764e-08
4.84026e-08
4.85584e-08
4.86955e-08
4.87883e-08
4.86775e-08
5.12767e-08
5.07754e-08
5.03184e-08
4.98488e-08
4.93157e-08
4.87767e-08
4.82877e-08
4.78656e-08
4.74863e-08
4.71472e-08
4.67521e-08
4.62663e-08
4.55219e-08
4.44319e-08
4.29281e-08
4.0983e-08
3.86039e-08
3.59213e-08
3.33144e-08
3.13044e-08
3.0116e-08
2.92863e-08
2.91717e-08
3.17029e-08
3.42426e-08
3.66893e-08
3.96388e-08
4.19641e-08
4.34244e-08
4.48361e-08
4.56102e-08
4.61321e-08
4.65992e-08
4.62921e-08
4.62266e-08
4.56946e-08
4.52292e-08
4.50138e-08
4.49647e-08
4.56516e-08
4.65438e-08
4.76568e-08
4.81265e-08
4.86181e-08
4.89687e-08
4.90871e-08
4.92486e-08
4.91222e-08
4.89425e-08
4.88229e-08
4.86879e-08
4.86144e-08
4.83682e-08
4.80645e-08
4.76849e-08
4.74416e-08
4.70843e-08
4.67788e-08
4.62677e-08
4.56711e-08
4.50245e-08
4.43769e-08
4.37593e-08
4.3333e-08
4.31616e-08
4.31008e-08
4.31111e-08
4.32439e-08
4.34461e-08
4.37225e-08
4.42936e-08
4.52147e-08
4.62929e-08
4.72788e-08
4.79914e-08
4.84227e-08
4.85299e-08
4.84164e-08
4.82506e-08
4.807e-08
4.79253e-08
4.80361e-08
4.82681e-08
4.84088e-08
4.85308e-08
4.84325e-08
5.13737e-08
5.08175e-08
5.0331e-08
4.98453e-08
4.92954e-08
4.87249e-08
4.82011e-08
4.77406e-08
4.7309e-08
4.68988e-08
4.64029e-08
4.57178e-08
4.46763e-08
4.31513e-08
4.10431e-08
3.82669e-08
3.4806e-08
3.08906e-08
2.71222e-08
2.42096e-08
2.23888e-08
2.11699e-08
2.06979e-08
2.29617e-08
2.62698e-08
2.94139e-08
3.36943e-08
3.73353e-08
3.98065e-08
4.21028e-08
4.35097e-08
4.45197e-08
4.54348e-08
4.53415e-08
4.5452e-08
4.50342e-08
4.45041e-08
4.40807e-08
4.35872e-08
4.43274e-08
4.54318e-08
4.6751e-08
4.75399e-08
4.81847e-08
4.86012e-08
4.87265e-08
4.89103e-08
4.88958e-08
4.86995e-08
4.85634e-08
4.84174e-08
4.8325e-08
4.8073e-08
4.76915e-08
4.72479e-08
4.69075e-08
4.64768e-08
4.60743e-08
4.54104e-08
4.46097e-08
4.3713e-08
4.29903e-08
4.21199e-08
4.14923e-08
4.12016e-08
4.09264e-08
4.08491e-08
4.09653e-08
4.11253e-08
4.16684e-08
4.24023e-08
4.33866e-08
4.45903e-08
4.57516e-08
4.66963e-08
4.73946e-08
4.77272e-08
4.77871e-08
4.76619e-08
4.75194e-08
4.73413e-08
4.75408e-08
4.78138e-08
4.79664e-08
4.8128e-08
4.80809e-08
5.14915e-08
5.09013e-08
5.03694e-08
4.98429e-08
4.92476e-08
4.86374e-08
4.80775e-08
4.75711e-08
4.70781e-08
4.65633e-08
4.5897e-08
4.49415e-08
4.35114e-08
4.14148e-08
3.84931e-08
3.46231e-08
2.98307e-08
2.46209e-08
1.98833e-08
1.64616e-08
1.45543e-08
1.35149e-08
1.31071e-08
1.46854e-08
1.74317e-08
2.0174e-08
2.49424e-08
3.02662e-08
3.42238e-08
3.78782e-08
4.02645e-08
4.21119e-08
4.38148e-08
4.41224e-08
4.45415e-08
4.43443e-08
4.38056e-08
4.32557e-08
4.23666e-08
4.283e-08
4.38024e-08
4.54257e-08
4.66054e-08
4.74321e-08
4.81013e-08
4.83055e-08
4.84573e-08
4.84782e-08
4.83201e-08
4.81667e-08
4.80141e-08
4.78852e-08
4.76304e-08
4.72028e-08
4.66791e-08
4.62465e-08
4.57172e-08
4.51797e-08
4.42818e-08
4.32197e-08
4.21496e-08
4.11707e-08
3.99698e-08
3.89085e-08
3.80708e-08
3.75415e-08
3.70436e-08
3.73007e-08
3.76656e-08
3.85405e-08
3.98699e-08
4.12524e-08
4.26831e-08
4.39979e-08
4.51021e-08
4.60154e-08
4.65572e-08
4.67785e-08
4.67755e-08
4.6596e-08
4.65212e-08
4.66989e-08
4.6943e-08
4.71776e-08
4.74711e-08
4.74447e-08
5.15716e-08
5.09417e-08
5.037e-08
4.98177e-08
4.91889e-08
4.85305e-08
4.79148e-08
4.73424e-08
4.67493e-08
4.60734e-08
4.51801e-08
4.38855e-08
4.19462e-08
3.90918e-08
3.51321e-08
2.99333e-08
2.37592e-08
1.75547e-08
1.25718e-08
9.52797e-09
7.9408e-09
7.26368e-09
7.23497e-09
8.33415e-09
1.02615e-08
1.24044e-08
1.5887e-08
2.09651e-08
2.57967e-08
3.13793e-08
3.52291e-08
3.82861e-08
4.13131e-08
4.23045e-08
4.32782e-08
4.34635e-08
4.30549e-08
4.2489e-08
4.13386e-08
4.14872e-08
4.22281e-08
4.38447e-08
4.53843e-08
4.65393e-08
4.73137e-08
4.76907e-08
4.79715e-08
4.79782e-08
4.79069e-08
4.77455e-08
4.75655e-08
4.74434e-08
4.71638e-08
4.66723e-08
4.60191e-08
4.54186e-08
4.47437e-08
4.40192e-08
4.28626e-08
4.15283e-08
4.01845e-08
3.87714e-08
3.70015e-08
3.50089e-08
3.32139e-08
3.18055e-08
3.07997e-08
3.07074e-08
3.19116e-08
3.34052e-08
3.56732e-08
3.80826e-08
4.02387e-08
4.19482e-08
4.32406e-08
4.43729e-08
4.51595e-08
4.55634e-08
4.56386e-08
4.54879e-08
4.53817e-08
4.5451e-08
4.57085e-08
4.60914e-08
4.64589e-08
4.65563e-08
5.16298e-08
5.09676e-08
5.03391e-08
4.9748e-08
4.90715e-08
4.83568e-08
4.76762e-08
4.70085e-08
4.62792e-08
4.54032e-08
4.4221e-08
4.24704e-08
3.98529e-08
3.60458e-08
3.08204e-08
2.41599e-08
1.67852e-08
1.04081e-08
6.42704e-09
4.26469e-09
3.34219e-09
3.13055e-09
3.17591e-09
4.10077e-09
5.30046e-09
6.75384e-09
9.15195e-09
1.28494e-08
1.66784e-08
2.22094e-08
2.75203e-08
3.21874e-08
3.7174e-08
3.92616e-08
4.12491e-08
4.20992e-08
4.20485e-08
4.16707e-08
4.03827e-08
4.02072e-08
4.06114e-08
4.20351e-08
4.40284e-08
4.55964e-08
4.65866e-08
4.69637e-08
4.72952e-08
4.73541e-08
4.7226e-08
4.7125e-08
4.69814e-08
4.68366e-08
4.65037e-08
4.5908e-08
4.51429e-08
4.4312e-08
4.3466e-08
4.25362e-08
4.10875e-08
3.94339e-08
3.75518e-08
3.53832e-08
3.2485e-08
2.8983e-08
2.54169e-08
2.27728e-08
2.11318e-08
2.07752e-08
2.24236e-08
2.51894e-08
2.8898e-08
3.30211e-08
3.66609e-08
3.93392e-08
4.10079e-08
4.22705e-08
4.32268e-08
4.37976e-08
4.39464e-08
4.37531e-08
4.35002e-08
4.35093e-08
4.38428e-08
4.43926e-08
4.50262e-08
4.51939e-08
5.16541e-08
5.09827e-08
5.02881e-08
4.96501e-08
4.89196e-08
4.81342e-08
4.73601e-08
4.65593e-08
4.56438e-08
4.45107e-08
4.29316e-08
4.05747e-08
3.7104e-08
3.21418e-08
2.54691e-08
1.73831e-08
9.9612e-09
5.36181e-09
3.09993e-09
2.28224e-09
1.97299e-09
1.96458e-09
2.10973e-09
2.47992e-09
2.97217e-09
3.61583e-09
4.95509e-09
6.99156e-09
9.70151e-09
1.3722e-08
1.82275e-08
2.29499e-08
3.02304e-08
3.40209e-08
3.76972e-08
3.97052e-08
4.03631e-08
4.05702e-08
3.93996e-08
3.89351e-08
3.89498e-08
4.0022e-08
4.19583e-08
4.40843e-08
4.56462e-08
4.62637e-08
4.66284e-08
4.67612e-08
4.66466e-08
4.65021e-08
4.63405e-08
4.61445e-08
4.57233e-08
4.49785e-08
4.40301e-08
4.29826e-08
4.19303e-08
4.07641e-08
3.88526e-08
3.67182e-08
3.38834e-08
3.04895e-08
2.60808e-08
2.09925e-08
1.61353e-08
1.33769e-08
1.21853e-08
1.20304e-08
1.32199e-08
1.56835e-08
1.95267e-08
2.50764e-08
3.11311e-08
3.56732e-08
3.83923e-08
4.00119e-08
4.10758e-08
4.16936e-08
4.18412e-08
4.15859e-08
4.11459e-08
4.1001e-08
4.12998e-08
4.20585e-08
4.28916e-08
4.32018e-08
5.15378e-08
5.08952e-08
5.01503e-08
4.94609e-08
4.86707e-08
4.77892e-08
4.68739e-08
4.59118e-08
4.47972e-08
4.33205e-08
4.11973e-08
3.80918e-08
3.35996e-08
2.72936e-08
1.91445e-08
1.084e-08
5.47234e-09
2.86527e-09
1.97236e-09
1.5598e-09
1.40607e-09
1.4562e-09
1.7533e-09
2.12914e-09
2.53123e-09
3.01406e-09
3.46851e-09
3.94676e-09
5.2841e-09
7.65415e-09
1.08252e-08
1.43154e-08
2.06154e-08
2.54816e-08
3.15592e-08
3.54579e-08
3.73368e-08
3.87391e-08
3.80705e-08