/*--------------------------------*- C++ -*----------------------------------*\
| =========                 |                                                 |
| \\      /  F ield         | OpenFOAM: The Open Source CFD Toolbox           |
|  \\    /   O peration     | Version:  v1912                                 |
|   \\  /    A nd           | Website:  www.openfoam.com                      |
|    \\/     M anipulation  |                                                 |
\*---------------------------------------------------------------------------*/
FoamFile
{
    version     2.0;
    format      ascii;
    class       volScalarField;
    location    "70";
    object      p;
}
// * * * * * * * * * * * * * * * * * * * * * * * * * * * * * * * * * * * * * //

dimensions      [1 -1 -2 0 0 0 0];


internalField   nonuniform List<scalar> 
14268
(
26453.7
26157.8
25860.9
25561.8
25217.6
24779.6
24448.8
24001.2
26340.2
26042.5
25742.6
25439.2
25090
24646.2
24306.3
23848
26239.9
25942.3
25642.3
25339
24989.7
24546.5
24206.8
23747.7
26129.2
25830.3
25528.4
25222
24869.3
24421.8
24075
23610
26030.4
25731.9
25430.4
25124.1
24771.9
24325.5
23979.3
23515.4
25920.9
25621.1
25317.8
25009.4
24654.6
24204.7
23853.9
23384.9
25822.3
25523.1
25220.2
24911.7
24557.3
24108.4
23756.8
23290.1
25713.7
25413.2
25108.9
24799
24442.7
23991
23637.2
23165.8
25614.9
25315.2
25011
24700.6
24344.3
23893.3
23537.1
23068.7
25507.3
25206.2
24901
24589.9
24232.3
23779.3
23423.1
22951.2
25408
25107.8
24802.4
24490.4
24132.6
23679.8
23320.6
22851.2
25301.1
24999.4
24693.8
24381.2
24022.3
23568.2
23208.9
22735.6
25201.7
24901
24594.5
24281.6
23922.6
23468.2
23106.1
22636.9
25095.1
24793
24486.6
24172.9
23812.9
23357.8
22995.3
22521.2
24733.3
24463.5
24183.2
23898.3
23568.2
23141.7
22805.6
22372.3
24059.1
23842.5
23624.9
23398.3
23127.1
22761.5
22484.5
22104.1
23436
23282.3
23118.2
22948.1
22734.1
22424.8
22202.3
21885.8
22761.6
22662.6
22559.5
22447.6
22292.1
22043
21876.7
21616.9
22142
22103.9
22056.5
22001.3
21903.5
21711.7
21602.7
21403.5
21467.5
21484.9
21497.4
21500.9
21461.3
21329.3
21273.6
21134.5
20849.9
20928.5
20997.6
21057.7
21075.3
21002
21005.2
20923.9
19058.5
19152
19244
19323.7
19355.3
19293.6
19270.2
19194
16383.3
16503.8
16612.5
16685.9
16721.9
16704.4
16698.6
16720.9
13533.9
13634.6
13733.1
13823.3
13848.5
13802.4
13769.1
13711.3
10844.4
10971.8
11084.7
11152.4
11176.1
11178.1
11160.9
11200.3
8058.07
8178.7
8280.04
8364.62
8384.83
8377.35
8383.99
8360.64
5307.09
5442.3
5569.93
5652.88
5694
5704.56
5744.58
5869.93
2626.99
2765.72
2894.37
2974.58
3053.21
3055.77
3195.49
3270.88
678.386
770.271
856.858
938.773
1020.32
1018.34
1049.89
1087.87
24.251
47.9495
76.2126
110.247
159.095
170.472
171.805
159.894
-11.5532
-10.0415
-7.4482
-5.36903
1.04732
8.55288
11.1488
10.736
-15.9207
-16.1101
-16.471
-16.8736
-16.5538
-15.4762
-14.7766
-13.8294
-19.0004
-19.251
-19.7854
-20.1112
-19.7253
-19.0715
-19.1687
-18.742
-22.7106
-22.8408
-23.2582
-23.7781
-23.6318
-23.0061
-22.7145
-22.1935
-25.85
-26.0009
-26.4892
-26.839
-26.7176
-26.0507
-26.3917
-26.4546
-29.4617
-29.5464
-29.9709
-30.401
-30.4066
-29.9425
-29.6722
-29.3853
-32.6453
-32.715
-33.2192
-33.6246
-33.5361
-33.0735
-32.8834
-33.2189
-36.2143
-36.2478
-36.6795
-37.1571
-37.0553
-36.6129
-36.306
-36.4931
-39.4112
-39.4547
-39.9369
-40.4245
-40.3139
-39.8822
-39.6567
-39.8563
-42.9135
-42.9111
-43.3543
-43.8814
-43.7009
-43.2936
-43.1159
-43.2893
-46.1595
-46.1649
-46.6489
-47.0989
-46.9847
-46.6231
-46.4066
-46.4316
-49.572
-49.5508
-50.01
-50.4238
-50.3968
-49.9521
-49.9055
-49.9501
-52.8403
-52.8435
-53.2895
-53.6218
-53.642
-53.2558
-53.1195
-53.0534
-56.202
-56.2057
-56.5822
-56.935
-56.9362
-56.6001
-56.6642
-56.6204
-59.4828
-59.5099
-59.8692
-60.1808
-60.1772
-59.92
-59.8116
-59.6731
-62.8325
-62.8602
-63.1592
-63.4418
-63.4831
-63.253
-63.304
-63.229
-66.1194
-66.1649
-66.4502
-66.698
-66.7158
-66.5327
-66.4327
-66.3043
-69.4469
-69.4989
-69.7396
-69.9521
-70.0045
-69.8421
-69.8877
-69.8173
-72.7509
-72.8145
-73.0327
-73.2119
-73.2382
-73.0994
-73.0481
-72.9733
-76.0731
-76.1424
-76.3298
-76.4788
-76.5189
-76.4316
-76.481
-76.4324
-79.3871
-79.4613
-79.6319
-79.7501
-79.7819
-79.7063
-79.6809
-79.6391
-82.7111
-82.7865
-82.9363
-83.0455
-83.0886
-83.0528
-83.0987
-83.0689
-86.0339
-86.1104
-86.2455
-86.3371
-86.3722
-86.33
-86.3226
-86.2989
-89.3593
-89.4343
-89.556
-89.6433
-89.6856
-89.6804
-89.7096
-89.7051
-92.6845
-92.7585
-92.8693
-92.9443
-92.9808
-92.9671
-92.9724
-92.9594
-96.0107
-96.083
-96.184
-96.2573
-96.2974
-96.3059
-96.3269
-96.3363
-99.3376
-99.408
-99.5006
-99.5655
-99.6016
-99.6077
-99.6189
-99.6155
-102.665
-102.734
-102.819
-102.883
-102.92
-102.936
-102.953
-102.968
-105.994
-106.06
-106.138
-106.196
-106.232
-106.248
-106.262
-106.267
-109.323
-109.387
-109.459
-109.516
-109.55
-109.571
-109.586
-109.601
-112.653
-112.714
-112.782
-112.834
-112.867
-112.889
-112.903
-112.914
-115.984
-116.042
-116.105
-116.155
-116.187
-116.209
-116.224
-116.239
-119.316
-119.371
-119.43
-119.477
-119.507
-119.53
-119.545
-119.558
-122.648
-122.701
-122.755
-122.8
-122.829
-122.851
-122.866
-122.879
-125.981
-126.031
-126.081
-126.123
-126.151
-126.173
-126.187
-126.2
-129.314
-129.361
-129.409
-129.448
-129.474
-129.496
-129.509
-129.522
-132.648
-132.692
-132.737
-132.773
-132.798
-132.819
-132.832
-132.844
-135.982
-136.024
-136.065
-136.099
-136.123
-136.143
-136.154
-136.166
-139.317
-139.356
-139.394
-139.426
-139.448
-139.467
-139.477
-139.488
-142.652
-142.688
-142.724
-142.753
-142.774
-142.791
-142.801
-142.81
-145.988
-146.021
-146.054
-146.081
-146.1
-146.116
-146.125
-146.133
-149.323
-149.354
-149.385
-149.409
-149.427
-149.441
-149.449
-149.456
-152.659
-152.688
-152.716
-152.738
-152.754
-152.767
-152.773
-152.779
-155.996
-156.022
-156.047
-156.067
-156.081
-156.093
-156.098
-156.102
-159.332
-159.356
-159.379
-159.397
-159.409
-159.419
-159.423
-159.426
-162.669
-162.691
-162.711
-162.727
-162.737
-162.746
-162.748
-162.75
-166.007
-166.026
-166.043
-166.057
-166.066
-166.073
-166.074
-166.074
-175.862
-175.878
-175.892
-175.904
-175.912
-175.917
-175.919
-175.918
-192.24
-192.253
-192.264
-192.274
-192.28
-192.285
-192.287
-192.287
-208.62
-208.631
-208.64
-208.648
-208.654
-208.658
-208.66
-208.66
-225.003
-225.012
-225.019
-225.025
-225.03
-225.034
-225.036
-225.036
-241.388
-241.395
-241.401
-241.406
-241.41
-241.413
-241.414
-241.415
-257.774
-257.779
-257.784
-257.788
-257.791
-257.793
-257.795
-257.796
-274.161
-274.165
-274.168
-274.172
-274.174
-274.176
-274.177
-274.178
-290.548
-290.551
-290.554
-290.556
-290.558
-290.56
-290.561
-290.562
-306.937
-306.939
-306.94
-306.942
-306.943
-306.944
-306.945
-306.946
-323.325
-323.326
-323.327
-323.328
-323.328
-323.329
-323.33
-323.33
23672.1
23867
23946.9
24194.3
24584.5
24814.8
24890.3
24836.4
24773.6
25023.2
25308.2
25657
26034.1
26437.6
26830.1
27173.7
27455.1
27666.1
27830.4
27978
28144.4
28349.8
28565.1
28806.9
29090.2
29332
29593.5
29880.6
30372.6
31078.7
31917.3
32389.6
32390.2
32254
32175.8
32019.3
32027.7
32088.2
32341.9
32619.8
32740.7
32829.8
32911.8
32989.5
33085.6
33193.3
33305.1
33410.7
33516.1
33597.1
33730.5
33793.9
33886.2
33970.4
34067.4
34157.9
34260.3
34353
34450.2
34551
34680.3
34751.8
34923.7
35101.8
35337.8
35576.6
35781.9
36013.7
36216.3
36402.1
36533.4
36621.1
36652.4
36635.7
36658.1
36816.1
36987.1
37149.3
37369.4
37712.4
38117.3
38562.1
39019.1
39451.9
39843.2
40157.6
40317.7
40395.5
40345.5
40149.7
39820.7
39379
38843.7
38233.4
37571
36879.7
36183.6
35507.3
34873.7
34296.7
33775.3
33309.7
32909.3
32578.1
32307.3
32071.6
31841.5
31605.7
31356
31058.1
30661.1
30152.5
29638.2
29217.6
28893.4
28624.3
28367.2
28104.6
27837.1
27565.4
27350.7
27215.1
27019.9
26795.3
26702
26785.7
26861.7
26761.2
26397.7
25641.5
24392.6
22498.5
20744.3
19525.6
18832.9
18482.7
18335
18288.8
18288.2
18290.4
18281.1
18270.7
18275.8
18277.5
18257.5
18215.3
18155.8
18099.9
18063.4
18047.6
18041.6
18039.2
18036
18030.1
18022
18015.4
23519.1
23715.5
23806.1
24070
24471
24705.4
24779.8
24720.3
24644.6
24880.8
25161.2
25510.2
25889.7
26297.3
26694.9
27043.9
27329.6
27543.6
27708.8
27856.6
28022.6
28227.3
28442.1
28684.5
28969.6
29212.7
29475.3
29759.6
30242.3
30942.8
31782.7
32259.7
32257.7
32113.6
32023.1
31861.8
31869.3
31930.5
32186.8
32470.7
32600.6
32699.3
32788.9
32872.4
32972.5
33083
33196.6
33302.7
33408.7
33489.8
33622.7
33685.7
33777.1
33860.1
33955.9
34044.9
34145.8
34236.9
34332.7
34432.4
34560.2
34630.7
34801.4
34978.3
35213.7
35452.9
35659
35892.1
36096.7
36284.6
36417.3
36505.6
36537.4
36521
36544
36702.9
36875.8
37039.1
37259.9
37603.6
38009.1
38454.4
38911.8
39345.1
39736.9
40051.3
40212.4
40290.8
40241.1
40045.5
39716.7
39275.5
38740.8
38131.4
37469.3
36778.1
36082
35405.7
34772.1
34195.1
33673.7
33208.1
32807.7
32476.5
32205.7
31970
31739.9
31504.1
31254.4
30956.5
30559.5
30050.9
29536.6
29116
28791.8
28522.7
28265.6
28003
27735.5
27463.8
27249.1
27113.5
26918.3
26693.7
26600.4
26684.1
26760.1
26659.6
26296.1
25539.9
24291
22396.9
20642.6
19424
18731.2
18381.1
18233.3
18187.2
18186.6
18188.8
18179.5
18169
18174.2
18175.9
18155.9
18113.7
18054.2
17998.3
17961.8
17946
17940
17937.6
17934.4
17928.5
17920.4
17913.8
23418
23615.2
23708.7
23969.9
24370.8
24604.7
24680
24620.8
24546.4
24783.2
25062.3
25411.3
25790.6
26198
26595.3
26944.1
27229.7
27443.7
27609
27756.6
27922.6
28127.2
28342.1
28584.5
28869.3
29114.1
29375.2
29659.5
30143.4
30845
31686.6
32161.4
32161.4
32016.1
31923.5
31762.5
31770.8
31831
32086.6
32370.5
32500.7
32599.5
32689.2
32772.5
32872.5
32982.7
33096
33203
33308.7
33389.4
33522.7
33585.6
33677.2
33760.5
33856.4
33945.8
34046.6
34137.8
34233.7
34333.4
34462.3
34532.4
34702.9
34880.2
35116.5
35355.6
35561.2
35794.1
35998.6
36186.5
36319.1
36407.3
36438.9
36422.3
36445.1
36604.7
36776.5
36939.5
37160.1
37503.5
37908.9
38354.1
38811.5
39244.7
39636.3
39951.7
40111.9
40190.1
40140.1
39944.5
39615.5
39174
38639.1
38029.5
37367.7
36676.5
35980.4
35304.1
34670.4
34093.5
33572.1
33106.5
32706.1
32374.9
32104.1
31868.4
31638.2
31402.5
31152.8
30854.9
30457.9
29949.3
29435
29014.4
28690.2
28421.1
28164
27901.4
27633.9
27362.1
27147.5
27011.9
26816.7
26592.1
26498.7
26582.4
26658.6
26558.1
26194.6
25438.4
24189.5
22295.3
20540.9
19322.2
18629.5
18279.4
18131.7
18085.6
18084.9
18087.2
18077.9
18067.4
18072.6
18074.3
18054.3
18012.1
17952.6
17896.7
17860.2
17844.4
17838.4
17836
17832.8
17826.9
17818.8
17812.2
23280.2
23476.3
23573.3
23849.7
24258.7
24496.5
24569.7
24506.8
24422.9
24648.8
24925.5
25275.1
25656.3
26066.7
26468
26820.9
27109.6
27325.8
27491.9
27639.7
27805.6
28009.8
28224.6
28467.3
28753.4
28996.7
29259.8
29541.7
30018.9
30717.7
31558.7
32038.4
32033.3
31882.8
31782.3
31616.1
31622.7
31685.1
31944.4
32234
32371.3
32477.4
32572.1
32659.3
32762.1
32874.4
32989.2
33095.4
33201.8
33283
33415.7
33478.5
33569.4
33651.8
33746.9
33835
33934.9
34025.1
34119.9
34219
34345.4
34415.4
34585.3
34761.6
34996.7
35236.1
35442.9
35676.9
35882.8
36072.3
36206
36295
36327.3
36311.3
36335
36494.1
36667.9
36831.6
37052.7
37396.7
37802.5
38248.2
38705.9
39139.5
39531.6
39845.9
40007.7
40086.4
40036.8
39841.3
39512.6
39071.4
38536.9
37927.6
37266
36574.8
35878.7
35202.5
34568.8
33991.8
33470.5
33004.8
32604.4
32273.3
32002.4
31766.8
31536.6
31300.9
31051.2
30753.3
30356.4
29847.7
29333.3
28912.7
28588.6
28319.5
28062.3
27799.8
27532.3
27260.5
27045.9
26910.3
26715.1
26490.5
26397.1
26480.8
26557
26456.6
26093.1
25336.9
24088
22193.6
20439.1
19220.5
18527.8
18177.7
18030.1
17984
17983.3
17985.6
17976.3
17965.8
17971
17972.7
17952.7
17910.5
17851
17795.1
17758.6
17742.8
17736.8
17734.4
17731.2
17725.3
17717.2
17710.6
23186.7
23382.6
23484
23753.3
24161
24396.7
24472.6
24409.5
24328.8
24557.8
24833.6
25182.1
25562.8
25972.6
26372.9
26724.7
27012.8
27228.5
27394.6
27542.1
27707.9
27912
28126.6
28369.7
28655.2
28901.9
29162.5
29445.1
29924.5
30623.8
31467.7
31943.9
31943.6
31791.9
31688.9
31524.7
31533.1
31593
31850.4
32138.8
32275.5
32380
32474.5
32561.3
32663.6
32775.4
32889.6
32997.6
33103.2
33183.8
33317.1
33379.6
33470.9
33553.8
33649.2
33738
33837.8
33928.1
34023.2
34122.3
34251.1
34320.3
34489.9
34666.7
34903.5
35142.7
35348.4
35582
35787.6
35976.8
36110.3
36199
36230.8
36214.1
36237.3
36397.8
36569.8
36732.9
36953.7
37297.3
37702.9
38148.5
38606
39039.4
39431.2
39747.4
39907.4
39985.8
39935.9
39740.2
39411.3
38969.9
38435.1
37825.7
37164.3
36473.2
35777.1
35100.9
34467.2
33890.2
33368.8
32903.2
32502.8
32171.6
31900.8
31665.2
31435
31199.3
30949.6
30651.7
30254.8
29746.1
29231.7
28811.1
28486.9
28217.9
27960.7
27698.2
27430.7
27158.9
26944.2
26808.7
26613.5
26388.8
26295.4
26379.2
26455.5
26355.1
25991.7
25235.5
23986.6
22092
20337.3
19118.6
18426.1
18076
17928.4
17882.3
17881.7
17884
17874.7
17864.2
17869.4
17871.1
17851.1
17808.9
17749.4
17693.5
17657
17641.2
17635.2
17632.8
17629.6
17623.7
17615.5
17609
23053.7
23248
23348.8
23634.2
24049.4
24289.2
24361.4
24296.9
24207
24425.8
24700.1
25049.6
25431.9
25844.2
26248.1
26603.7
26894.6
27112.3
27279.1
27427.1
27592.6
27796.6
28011.4
28254.3
28541.3
28784.2
29047.4
29327.5
29801
30499.5
31341.1
31823.1
31815.3
31660.1
31551.9
31381.9
31387.6
31451
31713.4
32007.8
32151
32261.7
32359.8
32449.5
32554.2
32667.8
32783.3
32889.4
32996.1
33077.4
33209.8
33272.5
33363.1
33445.2
33539.9
33627.4
33726.7
33816.2
33910.5
34009.1
34134.5
34204.1
34373.5
34549.4
34784.1
35023.8
35231
35465.6
35672.3
35863
35997.6
36087.3
36120
36104.6
36128.4
36287.5
36462
36625.8
36847
37191.2
37597.2
38043.1
38501.1
38934.9
39327.1
39641.3
39803.7
39882.6
39833
39637.6
39308.8
38867.7
38333.1
37723.9
37062.6
36371.6
35675.5
34999.2
34365.5
33788.6
33267.2
32801.6
32401.2
32070
31799.2
31563.5
31333.4
31097.7
30848
30550.2
30153.3
29644.5
29130
28709.4
28385.3
28116.3
27859.1
27596.6
27329
27057.3
26842.6
26707.2
26511.9
26287.2
26193.7
26277.6
26354
26253.6
25890.3
25134.1
23885.2
21990.3
20235.4
19016.7
18324.3
17974.3
17826.8
17780.7
17780.1
17782.4
17773.1
17762.6
17767.8
17769.5
17749.5
17707.4
17647.8
17591.9
17555.4
17539.6
17533.6
17531.1
17527.9
17522.1
17513.9
17507.4
22961.6
23155.9
23264
23539
23951.9
24189.4
24264.4
24200.5
24114.6
24337.1
24608.8
24958.2
25340
25751.8
26154.4
26508.6
26798.7
27015.7
27182.2
27329.7
27495.6
27699.6
27914.3
28157.3
28443.4
28691.4
28951.3
29232.2
29707.6
30405.7
31251.8
31729.5
31729.2
31571.7
31459.8
31292.7
31301.4
31361.3
31620.2
31912.8
32055.2
32164.6
32262.7
32352.2
32456.3
32569
32684
32792.7
32898.3
32978.7
33112.1
33174.2
33265.4
33348
33443
33531.3
33630.5
33720.1
33814.4
33913.1
34042
34110.2
34279.1
34455.4
34692.8
34932.3
35137.8
35371.9
35578.2
35768.7
35902.9
35992
36023.9
36007.3
36030.8
36191.9
36364
36527.1
36747.9
37091.7
37497.5
37943.3
38401.1
38834.7
39226.6
39543.3
39703.3
39781.7
39731.9
39536.3
39207.4
38766
38231.3
37622
36960.9
36270
35573.9
34897.6
34263.9
33686.9
33165.6
32699.9
32299.5
31968.4
31697.6
31461.9
31231.8
30996.1
30746.5
30448.6
30051.7
29542.9
29028.3
28607.7
28283.7
28014.6
27757.5
27495
27227.4
26955.6
26740.9
26605.6
26410.3
26185.5
26092
26176
26252.5
26152.2
25788.9
25032.8
23783.8
21888.6
20133.4
18914.8
18222.4
17872.6
17725.1
17679.1
17678.5
17680.8
17671.5
17661
17666.2
17667.9
17647.9
17605.8
17546.2
17490.3
17453.7
17438
17431.9
17429.5
17426.3
17420.5
17412.3
17405.8
22833.2
23025
23128.3
23421.3
23841.4
24082.5
24155.3
24088.7
23993.6
24207
24479.3
24828.6
25211.7
25625.6
26031.5
26389.2
26681.9
26900.8
27068.3
27216.1
27381.5
27585.3
27800.2
28043.4
28330.7
28573.3
28836.5
29114.9
29586
30283.4
31126.3
31610.2
31600.1
31440.7
31325.5
31152.1
31157.2
31222.1
31487.6
31786.6
31934.9
32049.3
32149.8
32241.3
32347.3
32461.9
32578.1
32683.8
32790.9
32872.1
33004.4
33067.1
33157.5
33239.3
33333.8
33420.8
33519.7
33608.7
33702.6
33800.8
33925.1
33994.5
34163.5
34339.2
34573.4
34813.3
35021.1
35256.2
35463.8
35655.3
35790.7
35881
35914.1
35898.8
35922.6
36082
36256.8
36420.7
36641.9
36986.2
37392.5
37838.6
38296.6
38730.6
39123
39437.1
39600
39679
39629.5
39434
39105.2
38664
38129.4
37520.2
36859.1
36168.3
35472.2
34795.9
34162.2
33585.3
33063.9
32598.3
32197.9
31866.7
31595.9
31360.3
31130.2
30894.5
30644.9
30347.1
29950.2
29441.3
28926.7
28506.1
28182
27913
27655.9
27393.4
27125.8
26854
26639.3
26504
26308.8
26083.8
25990.3
26074.4
26151
26050.8
25687.6
24931.5
23682.5
21787
20031.4
18812.8
18120.5
17770.8
17623.4
17577.4
17576.9
17579.2
17569.9
17559.4
17564.6
17566.3
17546.3
17504.2
17444.6
17388.7
17352.1
17336.4
17330.3
17327.9
17324.7
17318.9
17310.7
17304.2
22740.1
22932.3
23046.6
23325.9
23743.2
23982.5
24056.7
23991.1
23902.2
24118.8
24387.5
24737.1
25119.9
25533.3
25937.9
26294.1
26585.9
26804
26970.9
27118.8
27284.7
27488.6
27702.9
27946.1
28232.9
28481.4
28740.1
29019.2
29492.2
30189.9
31037.6
31517.1
31516.8
31353.9
31234
31064.1
31073
31132.6
31393.4
31690.1
31837.7
31951.5
32052.5
32144
32249.5
32363.1
32478.7
32588.2
32693.6
32774
32907.4
32969.2
33060.2
33142.6
33237.4
33325.3
33423.9
33512.8
33606.5
33704.8
33833.8
33901.2
34069.4
34245.3
34483.2
34723
34928.4
35162.7
35369.6
35560.9
35695.9
35785.5
35817.5
35801.1
35824.9
35986.3
36158.5
36321.7
36542.3
36886.3
37292.3
37738.3
38196.3
38630.1
39022.3
39339.3
39499.3
39577.9
39528
39332.5
39003.6
38562.2
38027.6
37418.3
36757.3
36066.7
35370.6
34694.3
34060.6
33483.6
32962.3
32496.6
32096.2
31765.1
31494.3
31258.7
31028.6
30792.9
30543.3
30245.6
29848.7
29339.7
28825
28404.4
28080.4
27811.4
27554.3
27291.8
27024.2
26752.3
26537.6
26402.4
26207.2
25982.1
25888.6
25972.8
26049.5
25949.5
25586.3
24830.3
23581.2
21685.3
19929.3
18710.7
18018.6
17669
17521.7
17475.8
17475.3
17477.6
17468.3
17457.8
17463
17464.7
17444.7
17402.6
17343
17287
17250.5
17234.8
17228.7
17226.3
17223.1
17217.3
17209.1
17202.6
22615.5
22804.9
22910.7
23210.1
23634.1
23876.3
23949.5
23881.2
23781.7
23991
24261.5
24610.3
24994.2
25409.3
25816.9
26176.4
26470.5
26690.5
26858.6
27006.3
27171.5
27375.1
27590.2
27833.8
28121
28363.8
28627.3
28904.1
29372.1
30069.1
30913.1
31398.7
31386.7
31223.6
31101.8
30925.2
30929.8
30996.4
31264.8
31568
31721
31838.4
31941.1
32034.1
32141.2
32256.6
32373.2
32478.5
32586
32667.2
32799.3
32861.9
32952.3
33033.8
33128.2
33214.8
33313.4
33401.9
33495.4
33593.2
33716.6
33786
33954.7
34129.9
34363.8
34604
34812.2
35047.8
35255.9
35448.2
35584.5
35675.5
35708.9
35693.6
35717.4
35877
36052.1
36216
36437.2
36781.6
37187.9
37634.2
38092.4
38526.5
38919
39233.3
39396.5
39475.5
39425.9
39230.5
38901.6
38460.3
37925.8
37316.5
36655.5
35965
35268.9
34592.6
33958.9
33381.9
32860.6
32394.9
31994.5
31663.4
31392.7
31157.1
30927.1
30691.3
30441.8
30144.1
29747.2
29238.1
28723.3
28302.7
27978.7
27709.8
27452.7
27190.2
26922.6
26650.6
26435.9
26300.8
26105.6
25880.4
25786.8
25871.1
25948.1
25848.1
25485
24729.1
23480
21583.6
19827.1
18608.6
17916.7
17567.2
17420
17374.1
17373.7
17376
17366.7
17356.2
17361.4
17363.1
17343.1
17301
17241.4
17185.4
17148.9
17133.2
17127.1
17124.7
17121.5
17115.7
17107.5
17101
22522
22711.4
22830.4
23114
23535.3
23775.9
23849.8
23782.2
23690.8
23902.1
24168.2
24517.4
24901.5
25316.4
25722.7
26080.8
26374
26593.2
26760.3
26908.7
27074.7
27278.4
27492.5
27735.7
28023.4
28272.1
28530
28806.7
29277
29975.1
30824.3
31306
31305.5
31137.4
31010.3
30837.6
30846.4
30906
31169
31470.1
31622.7
31740.1
31843.2
31936.4
32043.2
32157.6
32273.8
32383.8
32489.2
32569.4
32702.9
32764.3
32855.1
32937.5
33032.1
33119.7
33217.8
33306.1
33399.3
33497.3
33626.3
33692.8
33860.4
34036
34274.2
34514.3
34719.5
34954
35161.5
35353.6
35489.3
35579.3
35611.6
35595.3
35619.4
35780.8
35953.2
36116.4
36337
36681.1
37087.3
37533.6
37991.7
38425.7
38818.2
39135.2
39295.5
39374.1
39324.4
39128.8
38799.9
38358.5
37823.9
37214.7
36553.6
35863.3
35167.3
34491
33857.2
33280.3
32758.9
32293.3
31892.9
31561.7
31291
31055.5
30825.5
30589.7
30340.2
30042.6
29645.7
29136.5
28621.5
28201
27877
27608.1
27351.1
27088.6
26821
26549
26334.2
26199.3
26004.1
25778.7
25685.1
25769.5
25846.6
25746.8
25383.8
24628
23378.8
21481.8
19724.9
18506.4
17814.7
17465.4
17318.3
17272.5
17272.1
17274.4
17265.1
17254.5
17259.8
17261.6
17241.6
17199.4
17139.8
17083.8
17047.3
17031.5
17025.5
17023.1
17019.9
17014.1
17005.9
16999.4
22400.7
22587.5
22695.7
23000
23427.4
23670.4
23743.7
23672.9
23571.1
23776.9
24045.6
24394.5
24778.6
25194.7
25603.7
25964.8
26260.2
26480.9
26649.5
26797.1
26962
27165.6
27380.7
27625
27912
28155
28418
28693.6
29159.6
29855.7
30700.8
31188.1
31174.6
31008
30879.8
30700.2
30704.4
30772.8
31043.9
31351
31508.4
31628.6
31733.3
31827.7
31935.6
32051.6
32168.5
32273.5
32381.3
32462.4
32594.3
32657
32747.3
32828.6
32922.9
33009.2
33107.5
33195.7
33288.8
33386.2
33508.8
33578.1
33746.4
33921.4
34154.9
34395.5
34603.9
34839.9
35048.6
35241.7
35378.9
35470.4
35504
35488.7
35512.4
35672.4
35847.6
36011.5
36232.6
36577
36983.5
37429.9
37888.3
38322.5
38715.1
39029.9
39193.1
39272.1
39222.4
39026.9
38698.1
38256.7
37722.1
37112.8
36451.8
35761.6
35065.6
34389.3
33755.5
33178.6
32657.2
32191.6
31791.2
31460
31189.4
30953.9
30723.9
30488.1
30238.6
29941.1
29544.2
29034.9
28519.8
28099.2
27775.3
27506.5
27249.5
26987
26719.4
26447.3
26232.5
26097.7
25902.5
25677
25583.3
25667.9
25745.2
25645.6
25282.7
24526.9
23277.6
21380.1
19622.6
18404.1
17712.6
17363.5
17216.5
17170.8
17170.4
17172.8
17163.5
17152.9
17158.2
17160
17140
17097.8
17038.2
16982.2
16945.6
16929.9
16923.9
16921.5
16918.3
16912.5
16904.3
16897.8
22305.5
22491.8
22615.2
22903
23327.9
23569.6
23643.4
23574.1
23480.3
23686.8
23950.8
24299.1
24684.6
25100.8
25508.7
25868.4
26162.9
26382.9
26550.7
26699.5
26865.4
27069
27283
27526
27814.5
28062.9
28320.3
28594.8
29062.4
29760.9
30611.6
31095.7
31095.1
30922
30788.2
30612.5
30621.2
30681
30946.7
31252.1
31409.4
31529.9
31634.9
31729.4
31837.3
31952.4
32069
32179.5
32284.7
32364.9
32498.5
32559.6
32650.3
32732.6
32827
32914.5
33012.1
33100
33192.5
33290.2
33419.3
33484.8
33651.9
33827.1
34065.6
34306
34511.1
34745.8
34953.7
35146.6
35283
35373.4
35406
35389.8
35414.2
35575.5
35748.2
35911.2
36131.8
36475.9
36882.5
37328.9
37787.3
38221.5
38614.2
38930.7
39091.8
39170.5
39120.8
38925.3
38596.3
38154.9
37620.2
37010.9
36349.9
35659.8
34963.9
34287.6
33653.8
33076.9
32555.6
32089.9
31689.5
31358.4
31087.7
30852.3
30622.3
30386.5
30137.1
29839.6
29442.7
28933.3
28418.1
27997.5
27673.7
27404.9
27147.9
26885.4
26617.8
26345.6
26130.8
25996.1
25801
25575.3
25481.5
25566.2
25643.8
25544.3
25181.5
24425.8
23176.5
21278.4
19520.3
18301.8
17610.5
17261.6
17114.8
17069.1
17068.8
17071.2
17061.9
17051.3
17056.6
17058.4
17038.4
16996.3
16936.6
16880.6
16844
16828.3
16822.3
16819.9
16816.7
16810.9
16802.7
16796.2
22186.1
22370.2
22482.8
22791.2
23221.3
23464.8
23538.4
23467.2
23361.9
23564.2
23830.8
24180.5
24564.2
24981.2
25391.5
25754
26050.4
26271.9
26440.8
26588.2
26753.2
26956.7
27171.9
27416.5
27703.6
27946.9
28209.2
28483.3
28947.5
29642.9
30489.2
30978.3
30963.6
30793.5
30658.8
30476.5
30480.6
30550.4
30824
31135
31296.6
31419.6
31526
31621.6
31730.4
31846.8
31964
32068.8
32176.9
32257.9
32389.5
32452.2
32542.5
32623.7
32717.8
32804
32901.8
32989.7
33082.5
33179.6
33301.6
33370.7
33538.7
33713.3
33946.7
34187.6
34396.2
34632.5
34841.6
35035.4
35173.4
35265.6
35299.4
35284
35307.7
35468
35643.3
35807.1
36028
36372.4
36779.1
37225.7
37684.2
38118.6
38511.3
38826.7
38989.7
39068.6
39019
38823.4
38494.5
38053.1
37518.4
36909.1
36248.1
35558
34862.2
34185.9
33552.1
32975.2
32453.9
31988.2
31587.8
31256.7
30986.1
30750.6
30520.7
30284.9
30035.5
29738.1
29341.3
28831.6
28316.3
27895.8
27572
27303.3
27046.3
26783.8
26516.2
26243.9
26029.1
25894.6
25699.4
25473.5
25379.7
25464.6
25542.5
25443.1
25080.4
24324.8
23075.4
21176.6
19417.9
18199.4
17508.4
17159.7
17013
16967.5
16967.2
16969.6
16960.3
16949.7
16955
16956.8
16936.8
16894.7
16835
16778.9
16742.4
16726.7
16720.7
16718.3
16715.1
16709.3
16701.1
16694.5
22046.2
22227.8
22359.6
22642.7
23070.4
23312.7
23384.9
23313.7
23224.2
23427.7
23685.5
24033.9
24421.2
24838.7
25247.6
25608.1
25903.4
26124
26292.4
26441.1
26607.1
26810.4
27024
27266.4
27557.1
27807.7
28061.6
28333
28799
29499.8
30354.8
30839.9
30846
30664.1
30520.9
30344.3
30354.8
30410.2
30676.1
30985.2
31147.3
31271
31377.8
31473.5
31582.1
31697.5
31814.6
31928.5
32032.1
32111.7
32246.5
32306.4
32397.1
32480.1
32574.5
32662.1
32759
32846.3
32938.1
33035.2
33168.1
33230.3
33396.3
33571.3
33812.5
34053.2
34256.4
34490.5
34698.6
34892
35028.7
35119
35151.3
35134.9
35159.8
35321.5
35493.2
35656
35876.3
36220.4
36627.1
37073.8
37532.3
37966.8
38359.7
38676.5
38837.6
38916.2
38866.5
38670.9
38341.9
37900.4
37365.6
36756.3
36095.3
35405.3
34709.7
34033.4
33399.6
32822.6
32301.3
31835.6
31435.2
31104.1
30833.6
30598.2
30368.3
30132.6
29883.2
29585.9
29189.1
28679.2
28163.7
27743.1
27419.4
27150.8
26893.9
26631.4
26363.8
26091.4
25876.5
25742.2
25547.1
25320.9
25226.9
25312.2
25390.4
25291.3
24928.9
24173.4
22923.9
21024
19264.2
18045.8
17355.2
17006.8
16860.3
16815
16814.8
16817.2
16807.9
16797.2
16802.6
16804.5
16784.5
16742.3
16682.6
16626.5
16589.9
16574.2
16568.3
16565.9
16562.7
16556.9
16548.7
16542.1
21804.8
21988.7
22102.5
22424.9
22859.9
23104.8
23178.9
23103.7
22990.4
23186.3
23452.5
23802.2
24185.8
24603.9
25016.8
25382.4
25681.1
25904.2
26073.3
26221.2
26386.1
26589.7
26805.1
27050.7
27336.5
27578.5
27841.9
28112.6
28574.4
29266.5
30112.2
30606.2
30582.5
30410.1
30265.6
30076.1
30077.9
30155.4
30436.5
30755.5
30925.1
31052.9
31162.1
31259.7
31369.9
31487.4
31605.2
31706.2
31816.3
31897.6
32027.5
32091.6
32181.7
32262
32356
32441.3
32539
32626.4
32718.9
32815.5
32932.4
33003.6
33171.7
33345.6
33576
33817.6
34028.2
34265.8
34475.9
34671.2
34811.3
34905.2
34939.8
34924.5
34948
35108.5
35284.8
35448.7
35669.4
36013.9
36420.9
36867.9
37326.7
37761.4
38154.5
38470.3
38633.8
38712.6
38663
38467.4
38138.3
37696.7
37161.9
36552.5
35891.5
35201.6
34506.2
33829.9
33196.1
32619.2
32097.9
31632.2
31231.8
30900.7
30630.2
30395
30165.1
29929.4
29680.2
29383
28986.3
28476
27960.1
27539.6
27216
26947.5
26690.7
26428.2
26160.5
25887.9
25672.9
25539.1
25344.1
25117.4
25023.2
25108.9
25187.8
25089.1
24726.9
23971.6
22721.9
20820.4
19059
17840.7
17150.7
16802.9
16656.7
16611.6
16611.5
16614.1
16604.7
16594
16599.4
16601.3
16581.3
16539.2
16479.3
16423.2
16386.6
16371
16365.1
16362.7
16359.5
16353.7
16345.5
16338.9
21623.3
21796.5
21933.8
22224.9
22657.6
22900.8
22972.6
22899.7
22806.4
23002.5
23256.4
23604.4
23992.5
24412.1
24823.8
25187
25484.4
25706.5
25875.5
26024.4
26190.2
26393.2
26606.9
26851
27141.1
27390.8
27643.3
27910.6
28372.8
29074.4
29931.9
30422.6
30428.5
30237.3
30081.4
29899.1
29909
29966.3
30238.4
30556
30726.6
30855.2
30964.7
31062
31171.8
31288.3
31406
31520.6
31623.5
31703.2
31838.3
31897.4
31988
32071.1
32165.3
32252.5
32348.8
32435.2
32526.3
32622.7
32755.7
32815.9
32981.1
33155.3
33396.5
33638
33841.1
34075.5
34284.3
34478.8
34617.1
34708.7
34741.5
34725.1
34750
34911.4
35083.8
35246.6
35466.6
35810.8
36217.9
36665.1
37124
37558.8
37952
38268.7
38430.8
38509.4
38459.7
38264
37934.9
37493.1
36958.2
36348.8
35687.7
34997.8
34302.7
33626.5
32992.7
32415.7
31894.4
31428.7
31028.3
30697.3
30426.9
30191.7
29961.9
29726.2
29477.1
29180.1
28783.4
28272.8
27756.5
27336
27012.5
26744.2
26487.5
26225
25957.3
25684.5
25469.4
25336.1
25141
24913.8
24819.4
24905.6
24985.2
24887
24525.2
23770.1
22520.2
20616.8
18853.6
17635.4
16946.1
16598.9
16453.1
16408.2
16408.3
16410.9
16401.5
16390.7
16396.2
16398.2
16378.2
16336
16276.1
16219.9
16183.3
16167.8
16161.8
16159.5
16156.3
16150.5
16142.3
16135.7
21386.6
21563
21685.3
22010.9
22449.4
22694.4
22768.3
22691.3
22575.4
22766.8
23028.6
23377.4
23762.4
24181.7
24596.2
24964.3
25264.8
25488.7
25658.5
25806.6
25971.6
26175.3
26390.5
26635.8
26921.6
27165.3
27426.5
27693.1
28151.2
28843.4
29691.5
30189.5
30165.3
29986.1
29829.7
29634.8
29636.5
29716.7
30002.7
30328.9
30506.4
30638.8
30750.3
30849.5
30960.8
31078.7
31196.9
31297.6
31407.7
31489.1
31618.4
31682.7
31772.8
31853
31947
32032.2
32129.4
32216.3
32308
32404.2
32520
32590.8
32758.2
32931.3
33161.5
33404
33614.5
33852.6
34063.4
34259.8
34401.4
34496.3
34531.3
34515.7
34539.2
34700.3
34876.4
35039.9
35260.2
35604.6
36012
36459.4
36918.5
37353.7
37747.2
38063.7
38227.3
38306
38256.4
38060.6
37731.4
37289.5
36754.5
36144.9
35483.8
34794
34099
33422.9
32789.1
32212.2
31691
31225.2
30824.8
30493.8
30223.5
29988.5
29758.7
29523.1
29274.1
28977.3
28580.7
28069.6
27552.8
27132.3
26809.1
26540.9
26284.3
26021.8
25754.1
25481
25265.8
25133
24938
24710.1
24615.5
24702.3
24782.7
24685
24323.5
23568.7
22318.6
20413.2
18647.9
17429.8
16741.3
16394.7
16249.4
16204.8
16205
16207.7
16198.3
16187.5
16192.9
16195.1
16175.1
16132.9
16072.9
16016.6
15980.1
15964.5
15958.6
15956.3
15953.1
15947.3
15939.1
15932.5
21199.5
21368.4
21511.8
21809.2
22245.9
22489.7
22560.7
22487.9
22390.7
22579.8
22830.1
23178.2
23566.4
23988
24402.2
24768.3
25067.1
25290.3
25459.9
25608.9
25774.5
25977.4
26191.6
26435.6
26726
26975.1
27225.6
27488.8
27947.4
28650.6
29510.3
30007.1
30012.8
29812.6
29644.9
29456.7
29465.7
29525.5
29804.1
30129.9
30308.7
30441.9
30553.3
30651.6
30762.3
30879.6
30997.9
31112.6
31215.3
31294.8
31430.3
31488.6
31579.2
31662.3
31756.6
31843.5
31939.3
32024.9
32115.3
32211.3
32344
32402.3
32566.7
32740.3
32981.4
33223.6
33426.6
33661.2
33870.5
34066.1
34206
34298.9
34332.2
34315.7
34340.6
34501.6
34674.8
34837.4
35057
35401.3
35808.8
36256.5
36715.7
37150.9
37544.6
37861.2
38024.3
38102.8
38053.1
37857.3
37527.9
37085.9
36550.8
35941.1
35279.9
34590.2
33895.2
33219.3
32585.6
32008.7
31487.4
31021.7
30621.2
30290.3
30020.1
29785.2
29555.6
29319.9
29071.1
28774.5
28378
27866.3
27349.1
26928.6
26605.6
26337.6
26081.1
25818.6
25550.9
25277.5
25062.2
24929.9
24735
24506.5
24411.6
24499
24580.3
24483.1
24122.1
23367.6
22117.2
20209.5
18442
17224
16536.4
16190.5
16045.7
16001.3
16001.8
16004.6
15995.1
15984.2
15989.7
15992
15972
15929.8
15869.7
15813.4
15776.8
15761.2
15755.4
15753.1
15749.9
15744.1
15735.9
15729.2
20970.3
21139.8
21270.6
21597.4
22039.5
22284.3
22355.1
22278.4
22161.8