/*--------------------------------*- C++ -*----------------------------------*\
| =========                 |                                                 |
| \\      /  F ield         | OpenFOAM: The Open Source CFD Toolbox           |
|  \\    /   O peration     | Version:  v1912                                 |
|   \\  /    A nd           | Website:  www.openfoam.com                      |
|    \\/     M anipulation  |                                                 |
\*---------------------------------------------------------------------------*/
FoamFile
{
    version     2.0;
    format      ascii;
    class       surfaceScalarField;
    location    "70";
    object      phi;
}
// * * * * * * * * * * * * * * * * * * * * * * * * * * * * * * * * * * * * * //

dimensions      [0 3 -1 0 0 0 0];
oriented        oriented;


internalField   nonuniform List<scalar> 
28285
(
0.00163283
-4.5476e-05
0.00169391
-6.10818e-05
0.00178332
-8.94081e-05
0.0019094
-0.000126086
0.0020629
-0.000153496
0.00221386
-0.000150958
0.00243403
-0.000220169
-0.00026871
0.00270274
0.00162063
-9.23218e-05
0.0016841
-0.00012455
0.00177597
-0.000181279
0.00190244
-0.000252559
0.00205194
-0.000302992
0.00221353
-0.000312552
0.00243054
-0.000437175
-0.000534996
0.00269682
0.00163104
-0.00013784
0.00169246
-0.000185971
0.00178252
-0.000271332
0.00190804
-0.000378087
0.00205576
-0.000450708
0.00221781
-0.000474603
0.00243276
-0.000652122
-0.000796526
0.00269429
0.00162389
-0.000185239
0.00168755
-0.000249633
0.00177984
-0.000363624
0.00190689
-0.000505138
0.00205488
-0.0005987
0.00221809
-0.000637805
0.00243051
-0.000864543
-0.00105744
0.00269142
0.00163107
-0.000231175
0.00169299
-0.00031155
0.00178366
-0.000454294
0.00190985
-0.000631327
0.00205755
-0.000746401
0.0022205
-0.000800757
0.00243168
-0.00107573
-0.00131601
0.00269025
0.00162651
-0.000278704
0.00169005
-0.000375095
0.00178215
-0.000546392
0.0019093
-0.000758474
0.00205717
-0.000894275
0.00221999
-0.000963573
0.00242932
-0.00128506
-0.00157378
0.0026871
0.00163111
-0.000325192
0.00169367
-0.000437655
0.00178496
-0.000637677
0.00191188
-0.000885394
0.00206008
-0.00104248
0.00222289
-0.00112638
0.00243101
-0.00149318
-0.00182935
0.00268658
0.00162828
-0.000372701
0.0016917
-0.000501077
0.00178366
-0.000729641
0.00191096
-0.00101269
0.00205907
-0.00119059
0.00222153
-0.00128884
0.00242817
-0.00169983
-0.00208403
0.00268285
0.0016311
-0.000419698
0.00169422
-0.0005642
0.00178591
-0.000821331
0.00191332
-0.0011401
0.00206196
-0.00133923
0.00222451
-0.00145139
0.00243036
-0.00190568
-0.00233628
0.00268261
0.0016293
-0.000467217
0.00169271
-0.000627608
0.0017846
-0.00091322
0.00191214
-0.00126764
0.00206069
-0.00148778
0.00222282
-0.00161352
0.00242776
-0.00211062
-0.00258775
0.00267923
0.001631
-0.000514532
0.00169442
-0.000691026
0.00178639
-0.00100519
0.00191418
-0.00139542
0.00206321
-0.00163682
0.00222539
-0.0017757
0.00243062
-0.00231584
-0.00283622
0.00267909
0.00162983
-0.000562096
0.00169332
-0.000754521
0.0017853
-0.00109717
0.00191316
-0.00152328
0.00206213
-0.00178579
0.00222411
-0.00193768
0.00243026
-0.00252199
-0.00308378
0.00267783
0.00163031
-0.000609586
0.00169426
-0.000818467
0.00178691
-0.00118983
0.0019154
-0.00165177
0.00206488
-0.00193527
0.002227
-0.00209979
0.00243656
-0.00273156
-0.00332902
0.00268179
0.00163181
-0.000658359
0.00169702
-0.000883672
0.00179066
-0.00128348
0.00191965
-0.00178076
0.0020694
-0.00208502
0.00223347
-0.00226386
0.00244721
-0.0029453
-0.00357258
0.00269077
0.0102606
1.12031e-05
0.00961821
-0.000241264
0.0090319
-0.000697166
0.00851245
-0.00126131
0.00797929
-0.00155186
0.00732551
-0.00161008
0.00648547
-0.00210526
-0.002588
0.00550089
0.00929869
0.000581537
0.00876721
0.000290216
0.00829802
-0.00022798
0.00789087
-0.000854168
0.00728956
-0.000950548
0.00646381
-0.000784328
0.00574098
-0.00138243
-0.00186161
0.00501458
0.010259
0.0012346
0.00965523
0.000893933
0.00911294
0.000314318
0.00862375
-0.000364981
0.00815497
-0.000481769
0.00761529
-0.000244643
0.00695348
-0.000720617
-0.000662079
0.00575395
0.00929847
0.00181805
0.00873717
0.00145524
0.00824277
0.000808715
0.00781649
6.12997e-05
0.00716793
0.000166787
0.00624286
0.000680432
0.00538817
0.000134067
-0.000116638
0.00484273
0.0100859
0.00243335
0.00952164
0.00201952
0.00902262
0.00130773
0.00858461
0.000499306
0.00814727
0.00060413
0.00762616
0.00120155
0.00699418
0.00076604
0.00109995
0.0057776
0.00935985
0.00302139
0.00878934
0.00259003
0.00827143
0.00182564
0.00781693
0.000953809
0.00722141
0.00119964
0.00640753
0.00201543
0.00554739
0.00162619
0.0017539
0.00489343
0.00971197
0.00362599
0.0091725
0.0031295
0.00870731
0.00229084
0.00827789
0.00138323
0.00777864
0.00169889
0.00714905
0.00264502
0.00643215
0.00234309
0.00281341
0.00537264
0.0431988
0.00203946
0.0451064
0.00122195
0.0476579
-0.000260691
0.0511897
-0.00214859
0.0556395
-0.00275086
0.0599107
-0.00162621
0.0641854
-0.00193164
-0.00128528
0.0682841
0.0412141
0.00103568
0.0428268
-0.000390764
0.0452414
-0.00267524
0.0483736
-0.00528083
0.0520765
-0.00645371
0.0560429
-0.00559263
0.0606162
-0.00650498
-0.0079877
0.0673186
0.0409336
-0.000461566
0.0426338
-0.00209105
0.0449721
-0.00501352
0.0482381
-0.00854685
0.052242
-0.0104576
0.0562219
-0.00957258
0.0600569
-0.01034
-0.0111213
0.0631906
0.0389696
-0.00162573
0.0406484
-0.00376982
0.0428889
-0.00725405
0.0455291
-0.0111871
0.0485131
-0.0134415
0.0523482
-0.0134077
0.0554907
-0.0134825
-0.013199
0.0575684
0.0382414
-0.00323859
0.0401181
-0.00564656
0.0419535
-0.00908949
0.0438884
-0.0131219
0.0461642
-0.0157173
0.0498355
-0.017079
0.0529595
-0.0166065
-0.0129133
0.0526738
0.037989
-0.00514387
0.0397302
-0.0073878
0.0402363
-0.00959556
0.0391335
-0.0120191
0.0376597
-0.0142435
0.0379446
-0.0173639
0.0394456
-0.0181075
-0.0130003
0.0395327
0.0398154
-0.00788913
0.0407932
-0.00836552
0.0400029
-0.00880527
0.03732
-0.00933625
0.0326466
-0.0095701
0.0282543
-0.0129716
0.0262767
-0.0161299
-0.0110571
0.0243335
0.0417744
-0.00894156
0.0410475
-0.00763858
0.0388808
-0.00663855
0.0351939
-0.00564934
0.0288961
-0.00327234
0.0203985
-0.00447397
0.013272
-0.00900344
-0.00470646
0.00692132
0.0471578
-3.18781e-05
0.0402616
-0.000742305
0.0379246
-0.00430155
0.0417959
-0.00952071
0.045729
-0.00720545
0.0412082
4.68989e-05
0.0305401
0.0016646
0.00995098
0.0158827
0.0677717
0.0141454
0.0524592
0.0145703
0.0507725
-0.0026149
0.0549125
-0.0136607
0.0616934
-0.0139864
0.070063
-0.00832267
0.0808648
-0.00913719
-0.00553196
0.0963477
0.075885
0.0109108
0.0752741
0.0151812
0.0756684
-0.0030092
0.0725532
-0.0105454
0.066929
-0.00836221
0.060591
-0.00198469
0.0570563
-0.00560252
-0.00888224
0.0604066
0.0680543
0.00333976
0.0760158
0.00721971
0.0793087
-0.00630212
0.0744751
-0.00571186
0.0612404
0.00487253
0.040839
0.0184167
0.0324816
0.00275489
-0.0174913
0.0410906
0.0602135
-0.000943426
0.0663744
0.00105882
0.0707193
-0.0106469
0.069095
-0.00408758
0.0633076
0.0106599
0.053876
0.0278483
0.0455877
0.0110432
-0.0195066
0.047603
0.054392
-0.00540829
0.0607078
-0.00525699
0.0642931
-0.0142323
0.0624039
-0.00219833
0.0569073
0.0161566
0.0470421
0.0377135
0.040432
0.0176532
-0.0236084
0.0445338
0.048961
-0.00851864
0.0540883
-0.0103843
0.0588111
-0.0189551
0.0584656
-0.00185278
0.0533838
0.0212383
0.0473686
0.0437287
0.046993
0.0180288
-0.0263052
0.0496899
0.0400998
-0.0112153
0.0449693
-0.0152538
0.050061
-0.0240467
0.0519899
-0.0037817
0.0485514
0.0246768
0.0474573
0.0448229
0.048319
0.0171671
-0.0195789
0.0415927
0.032868
-0.0130396
0.0373059
-0.0196917
0.0436014
-0.0303423
0.0452977
-0.00547793
0.0430147
0.0269598
0.044404
0.0434336
0.0474696
0.0141015
-0.0147845
0.0426751
0.0246985
-0.0146951
0.029127
-0.0241201
0.0353619
-0.0365772
0.0386581
-0.00877414
0.0389234
0.0266945
0.041335
0.0410219
0.0423875
0.0130491
-0.00907733
0.0366803
0.0191926
-0.0162517
0.0233133
-0.0282409
0.028357
-0.0416208
0.0309165
-0.0113337
0.0330733
0.0245377
0.0380217
0.0360736
0.039631
0.0114397
-0.00476294
0.0353166
0.0135078
-0.0183824
0.0165061
-0.0312392
0.0201357
-0.0452504
0.0240041
-0.0152021
0.0281495
0.0203923
0.0317934
0.0324297
0.0301866
0.0130466
0.000671661
0.024752
0.0107886
-0.0207052
0.0127006
-0.0331513
0.0138418
-0.0463915
0.0169949
-0.0183552
0.0220792
0.015308
0.0270004
0.0275084
0.0264329
0.0136142
0.00491132
0.0221932
0.00668703
-0.0227663
0.00732865
-0.0337929
0.00652815
-0.045591
0.00898129
-0.0208084
0.0136332
0.0106561
0.0176458
0.0234959
0.017604
0.013656
0.00639293
0.0161224
0.00573608
-0.024578
0.00607015
-0.034127
0.00373138
-0.0432522
0.00393736
-0.0210143
0.00861395
0.00597946
0.0139896
0.0181202
0.0145941
0.0130515
0.0085132
0.0124738
0.00252334
-0.0258183
0.00203166
-0.0336353
5.58259e-05
-0.0412764
0.000397908
-0.0213564
0.00404222
0.00233515
0.00887309
0.0132893
0.00972464
0.0121999
0.00900147
0.00923637
0.00236289
-0.02729
0.00184678
-0.0331192
-0.000824936
-0.0386047
-0.00081365
-0.0213677
0.00282098
-0.00129949
0.0068564
0.00925393
0.00715438
0.0119019
0.010065
0.00609084
0.000707263
-0.0277252
-0.000573098
-0.0318388
-0.00271145
-0.0364663
-0.00300385
-0.0210753
-0.000375317
-0.00392802
0.00265808
0.00622053
0.0032342
0.0113258
0.00914343
0.00415579
-0.00014863
-0.0285423
-0.00113895
-0.0308485
-0.00376585
-0.0338394
-0.00445131
-0.0203898
-0.00222068
-0.00615866
0.000404028
0.00359583
0.00193943
0.00979041
0.00787765
0.00320522
-0.00122011
-0.0286226
-0.00256186
-0.0295067
-0.00502056
-0.0313807
-0.00597168
-0.0194387
-0.00478525
-0.0073451
-0.00249843
0.00130901
-0.000389098
0.00768108
0.00530863
0.00217991
-0.00243199
-0.0287929
-0.00309875
-0.02884
-0.00528216
-0.0291973
-0.0062175
-0.0185034
-0.00483953
-0.00872307
-0.00231058
-0.00121995
0.000448453
0.00492205
0.00334151
0.00241557
-0.00306607
-0.0283112
-0.00399584
-0.0279102
-0.00578703
-0.0274061
-0.00657907
-0.0177113
-0.00544556
-0.00985658
-0.00342538
-0.00324013
-0.000998672
0.00249535
0.000696051
0.00164679
-0.00308048
-0.0282635
-0.00359108
-0.0273996
-0.00517338
-0.0258238
-0.00552053
-0.0173642
-0.00418987
-0.0111872
-0.00218402
-0.00524598
0.000163769
0.000147554
-0.000889263
0.00174908
-0.00299254
-0.027999
-0.00355562
-0.0268365
-0.00476569
-0.0246138
-0.00510122
-0.0170287
-0.00426913
-0.0120193
-0.0028689
-0.0066462
-0.000814943
-0.0019064
-0.00307129
0.00136709
-0.00285489
-0.0277527
-0.00330583
-0.0263856
-0.00428182
-0.0236378
-0.00425787
-0.0170526
-0.0032751
-0.0130021
-0.00185258
-0.00806873
-2.30223e-05
-0.00373596
-0.00430533
0.00121102
-0.00259622
-0.0274072
-0.00302063
-0.0259611
-0.00376892
-0.0228895
-0.00386092
-0.0169606
-0.00330441
-0.0135586
-0.00222365
-0.00914949
-0.000496412
-0.0054632
-0.00596622
0.00116448
-0.00251993
-0.027025
-0.00289117
-0.0255899
-0.00347971
-0.0223009
-0.00330887
-0.0171314
-0.00260601
-0.0142614
-0.0015959
-0.0101596
-0.000180692
-0.0068784
-0.00703194
0.000885024
-0.00218661
-0.0266827
-0.00254808
-0.0252284
-0.00297642
-0.0218726
-0.00291747
-0.0171904
-0.00254795
-0.014631
-0.00170726
-0.0110003
-0.000330204
-0.00825546
-0.00833448
0.000972337
-0.00212938
-0.0262895
-0.00246048
-0.0248973
-0.00278891
-0.0215442
-0.00255648
-0.0174228
-0.00203551
-0.0151519
-0.00129669
-0.0117391
-0.000226799
-0.00932535
-0.00925419
0.000692908
-0.00177487
-0.0259362
-0.00210893
-0.0245633
-0.00241586
-0.0212373
-0.002297
-0.0175417
-0.00196475
-0.0154842
-0.00128771
-0.0124162
-0.000235459
-0.0103776
-0.0102938
0.000804171
-0.00174187
-0.0255768
-0.00204477
-0.0242604
-0.00222522
-0.0210568
-0.00198779
-0.0177791
-0.00158484
-0.0158871
-0.00100243
-0.0129986
-0.000196957
-0.0111831
-0.0110806
0.000589859
-0.00139938
-0.0252275
-0.0016972
-0.0239626
-0.00191064
-0.0208434
-0.00178501
-0.0179047
-0.00149249
-0.0161796
-0.000933514
-0.0135576
-0.00014381
-0.0119728
-0.0118874
0.000662988
-0.00136354
-0.024904
-0.00164571
-0.0236804
-0.0017498
-0.0207393
-0.00154528
-0.0181093
-0.0012472
-0.0164777
-0.000743906
-0.0140609
-9.8318e-05
-0.0126184
-0.0125484
0.000562677
-0.00107785
-0.0245694
-0.00136592
-0.0233923
-0.00149388
-0.0206113
-0.0013654
-0.0182377
-0.00111739
-0.0167257
-0.000636361
-0.0145419
-2.45697e-05
-0.0132302
-0.0131466
0.000573636
-0.00103371
-0.024273
-0.00128026
-0.0231458
-0.00134359
-0.020548
-0.00117998
-0.0184014
-0.000948705
-0.016957
-0.000503569
-0.014987
4.3783e-05
-0.0137775
-0.0136811
0.000578221
-0.000803869
-0.0239571
-0.00106917
-0.0228805
-0.00114419
-0.020473
-0.00101267
-0.0185329
-0.000798904
-0.0171708
-0.000382589
-0.0154033
0.000126249
-0.0142863
-0.0141599
0.000605029
-0.000742889
-0.02368
-0.000952231
-0.0226711
-0.000995035
-0.0204302
-0.000849738
-0.0186782
-0.00064686
-0.0173736
-0.000261994
-0.0157882
0.000202608
-0.0147509
-0.0145997
0.000642413
-0.000574411
-0.0233939
-0.000798604
-0.0224469
-0.000836398
-0.0203924
-0.000702664
-0.0188119
-0.000509598
-0.0175667
-0.000155292
-0.0161425
0.000266418
-0.0151727
-0.0149952
0.000661953
-0.000499367
-0.0231423
-0.000681582
-0.0222647
-0.000708506
-0.0203654
-0.000585575
-0.0189348
-0.000406412
-0.0177459
-8.52197e-05
-0.0164637
0.00029905
-0.0155569
-0.0153611
0.00066497
-0.000395934
-0.0229024
-0.000584654
-0.022076
-0.000615243
-0.0203349
-0.000508807
-0.0190413
-0.000344109
-0.0179106
-5.15641e-05
-0.0167562
0.000296101
-0.0159046
-0.0156943
0.000629319
-0.000338984
-0.022661
-0.000514338
-0.0219006
-0.000545381
-0.0203038
-0.000460615
-0.019126
-0.000317419
-0.0180538
-6.01807e-05
-0.0170135
0.000246407
-0.0162112
-0.0159903
0.000542358
-0.000298628
-0.0224358
-0.000467687
-0.0217316
-0.000507442
-0.0202641
-0.000437668
-0.0191958
-0.000316043
-0.0181754
-9.50082e-05
-0.0172345
0.000185116
-0.0164913
-0.016269
0.000463875
-0.000241518
-0.0222105
-0.000407062
-0.021566
-0.000458198
-0.0202129
-0.000404156
-0.0192499
-0.000294241
-0.0182853
-9.07978e-05
-0.017438
0.000173342
-0.0167554
-0.0165446
0.000448868
-0.000161638
-0.0219896
-0.000316299
-0.0214114
-0.000375952
-0.0201533
-0.000334416
-0.0192914
-0.000229797
-0.0183899
-4.17291e-05
-0.017626
0.000196955
-0.0169941
-0.0167911
0.000443499
-4.06107e-05
-0.0217644
-0.000197062
-0.0212549
-0.000262717
-0.0200876
-0.000241749
-0.0193124
-0.000158687
-0.018473
3.57495e-06
-0.0177883
0.000224221
-0.0172148
-0.017026
0.00045915
7.76934e-05
-0.0215361
-9.04282e-05
-0.0210868
-0.000156382
-0.0200217
-0.000144806
-0.0193239
-7.4362e-05
-0.0185434
7.0039e-05
-0.0179327
0.000266074
-0.0174108
-0.0172333
0.000473288
0.000170936
-0.0213332
1.67421e-05
-0.0209326
-4.51978e-05
-0.0199597
-3.41401e-05
-0.019335
1.69092e-05
-0.0185945
0.000136813
-0.0180526
0.000305845
-0.0175798
-0.0174165
0.000489056
0.000239222
-0.0211456
0.000104131
-0.0207975
4.86647e-05
-0.0199043
5.19439e-05
-0.0193383
0.000101507
-0.018644
0.000209851
-0.0181609
0.000362031
-0.017732
-0.0175818
0.000527375
0.00188689
-0.0204403
0.00135214
-0.0202628
0.001114
-0.0196661
0.00111561
-0.0193399
0.00134028
-0.0188687
0.00176765
-0.0185883
0.00235763
-0.018322
-0.0182361
0.00301188
0.00246035
-0.0198733
0.00201569
-0.0198181
0.00180283
-0.0194533
0.001763
-0.0193
0.00190653
-0.0190122
0.00218811
-0.0188699
0.00259108
-0.018725
-0.0186958
0.00305078
0.002801
-0.0194066
0.0024146
-0.0194317
0.00220624
-0.0192449
0.00211023
-0.019204
0.00215428
-0.0190563
0.0022991
-0.0190147
0.00254092
-0.0189668
-0.0190004
0.00284559
0.00295957
-0.0190296
0.00264256
-0.0191147
0.00245706
-0.0190594
0.00234433
-0.0190913
0.00234495
-0.0190569
0.00241923
-0.019089
0.00256893
-0.0191165
-0.0191967
0.00276519
0.00286886
-0.0187251
0.0026089
-0.0188547
0.00244557
-0.0188961
0.00233466
-0.0189804
0.00230382
-0.0190261
0.00232756
-0.0191127
0.00240901
-0.0191979
-0.0193174
0.00252975
0.00264691
-0.0184725
0.00242645
-0.0186343
0.00227455
-0.0187442
0.00216739
-0.0188732
0.00211671
-0.0189754
0.00210425
-0.0191003
0.00213896
-0.0192326
-0.019388
0.00220953
0.00228065
-0.0182749
0.00210642
-0.01846
0.00198668
-0.0186244
0.00190014
-0.0187867
0.00185719
-0.0189325
0.00184144
-0.0190845
0.00184251
-0.0192337
-0.019408
0.00186245
0.00176116
-0.0181453
0.00163817
-0.018337
0.00152869
-0.0185149
0.00144736
-0.0187054
0.00139895
-0.018884
0.00137142
-0.019057
0.00138232
-0.0192446
-0.0194354
0.00140979
0.00101469
-0.0180648
0.000968515
-0.0182909
0.000939252
-0.0184857
0.00089457
-0.0186607
0.000855972
-0.0188454
0.000838438
-0.0190395
0.000812711
-0.0192189
-0.01941
0.000787292
0.000450912
0.000416518
0.000392007
0.000386116
0.000384802
0.000383023
0.000393231
0.000409043
0.00294658
-0.000243845
0.00310473
-0.000158147
0.0030811
2.36246e-05
0.00297297
0.000108132
0.00276502
0.000207951
0.00238739
0.00037763
0.00200059
0.000386798
0.00179477
0.000205819
0.00175532
3.94557e-05
0.00181559
-6.02682e-05
0.00192597
-0.000110381
0.00203603
-0.000110064
0.00211959
-8.35573e-05
0.0021911
-7.15087e-05
0.00226348
-7.23792e-05
0.00233828
-7.48042e-05
0.00241394
-7.56608e-05
0.00248564
-7.16957e-05
0.00255514
-6.9498e-05
0.00262411
-6.89719e-05
0.00269892
-7.48082e-05
0.00278739
-8.8476e-05
0.00289326
-0.00010587
0.00297801
-8.47479e-05
0.00302376
-4.57551e-05
0.00298274
4.10284e-05
0.00284266
0.000140079
0.00256405
0.000278612
0.00233208
0.000231964
0.00226677
6.53108e-05
0.0023219
-5.51331e-05
0.00237977
-5.78668e-05
0.00239163
-1.18598e-05
0.00243535
-4.37186e-05
0.00249943
-6.40792e-05
0.00253391
-3.44795e-05
0.00255997
-2.6066e-05
0.00261818
-5.82067e-05
0.00275889
-0.000140707
0.00296868
-0.000209795
0.00318326
-0.000214578
0.00336115
-0.000177894
0.00347397
-0.000112816
0.00353523
-6.12565e-05
0.00357253
-3.72996e-05
0.00360133
-2.88012e-05
0.00361287
-1.15425e-05
0.00361556
-2.68793e-06
0.00360094
1.46204e-05
0.00359083
1.01072e-05
0.00359208
-1.25139e-06
0.00359388
-1.79548e-06
0.00359473
-8.54214e-07
0.00359719
-2.45897e-06
0.00360158
-4.39324e-06
0.00360732
-5.7344e-06
0.00362305
-1.57332e-05
0.00364479
-2.17433e-05
0.00367472
-2.99246e-05
0.00369103
-1.63082e-05
0.00369615
-5.11741e-06
0.00367883
1.73132e-05
0.00366403
1.47997e-05
0.00364681
1.7227e-05
0.00364477
2.03871e-06
0.00362966
1.51085e-05
0.00360477
2.48902e-05
0.00356717
3.7594e-05
0.00351958
4.75955e-05
0.00346594
5.36335e-05
0.00339923
6.67178e-05
0.00331842
8.08085e-05
0.0032348
8.36182e-05
0.00317258
6.22183e-05
0.00315746
1.51203e-05
0.00317631
-1.88519e-05
0.00322155
-4.52412e-05
0.00327909
-5.75341e-05
0.00335045
-7.1366e-05
0.00343872
-8.82611e-05
0.0035266
-8.78822e-05
0.00360161
-7.50161e-05
0.0036624
-6.07873e-05
0.00370596
-4.35571e-05
0.00373026
-2.43005e-05
0.00372781
2.4462e-06
0.00369609
3.17209e-05
0.00363764
5.84476e-05
0.00355756
8.00863e-05
0.00345935
9.82101e-05
0.0033459
0.000113447
0.00322076
0.000125145
0.00309119
0.000129568
0.00296382
0.000127368
0.0028394
0.000124424
0.00271812
0.000121271
0.00260602
0.000112103
0.00250718
9.88421e-05
0.00242294
8.4244e-05
0.00235162
7.13171e-05
0.0022908
6.08146e-05
0.00224084
4.99648e-05
0.0022036
3.72349e-05
0.00217759
2.60186e-05
0.0021584
1.91803e-05
0.00213954
1.88695e-05
0.00211566
2.38741e-05
0.00208619
2.94711e-05
0.00204877
3.74195e-05
0.00199406
5.47059e-05
0.00191427
7.97966e-05
0.00181915
9.51228e-05
0.00173536
8.37862e-05
0.00167504
6.03215e-05
0.00163252
4.25178e-05
0.00159484
3.76808e-05
0.00154881
4.60341e-05
0.0014877
6.11035e-05
0.00141425
7.34511e-05
0.00134162
7.26261e-05
0.00128867
5.29579e-05
0.00124954
3.91305e-05
0.00121523
3.43027e-05
0.00120336
1.18729e-05
0.00122728
-2.39204e-05
0.00127133
-4.40524e-05
0.00129807
-2.67337e-05
0.00128852
9.54827e-06
0.00122899
5.95321e-05
0.00109559
0.0001334
0.000881206
0.000214381
0.000616153
0.000265053
0.000390136
0.000226017
0.000246564
0.000143572
0.000166459
8.01047e-05
0.000121141
4.53179e-05
9.3286e-05
2.78553e-05
7.43041e-05
1.89819e-05
6.19954e-05
1.23087e-05
5.58145e-05
6.1809e-06
5.41856e-05
1.62889e-06
5.63014e-05
-2.11579e-06
5.92904e-05
-2.98903e-06
5.82666e-05
1.02387e-06
5.28939e-05
5.37267e-06
4.62149e-05
6.67898e-06
4.1736e-05
4.47896e-06
4.14608e-05
2.75137e-07
4.35438e-05
-2.08301e-06
4.52265e-05
-1.68263e-06
4.39762e-05
1.2503e-06
3.95826e-05
4.39354e-06
3.39054e-05
5.67722e-06
2.84555e-05
5.4499e-06
2.40144e-05
4.44105e-06
3.03589e-06
0.00295671
-0.000503737
0.00310189
-0.000303326
0.00308079
4.47248e-05
0.00297302
0.000215907
0.00275787
0.000423098
0.00237399
0.000761514
0.00198545
0.000775332
0.00178983
0.000401445
0.00175618
7.31038e-05
0.00181851
-0.000122604
0.00192934
-0.000221208
0.00204154
-0.000222268
0.00212676
-0.000168772
0.00219923
-0.000143978
0.00227032
-0.000143471
0.00234339
-0.000147878
0.00241582
-0.000148085
0.00248392
-0.000139795
0.00255069
-0.000136265
0.00261903
-0.000137316
0.00269285
-0.000148625
0.00278013
-0.000175756
0.00288319
-0.000208934
0.00297888
-0.000180434
0.0030304
-9.72769e-05
0.00300861
6.28123e-05
0.0029022
0.000246496
0.00267048
0.000510328
0.00243046
0.000471984
0.0023162
0.000179573
0.00231289
-5.18283e-05
0.0023278
-7.27733e-05
0.00233015
-1.42116e-05
0.00236589
-7.9451e-05
0.00243604
-0.000134233
0.00248509
-8.35285e-05
0.00252663
-6.76066e-05
0.00260151
-0.000133084
0.0027496
-0.000288802
0.00296014
-0.000420331
0.00317673
-0.000431174
0.00335235
-0.000353514
0.00346457
-0.000225034
0.00352648
-0.00012317
0.00356481
-7.5624e-05
0.00359421
-5.82062e-05
0.0036088
-2.61277e-05
0.00361088
-4.76743e-06
0.00360058
2.4924e-05
0.00359191
1.87746e-05
0.00359859
-7.92936e-06
0.0036046
-7.814e-06
0.00361099
-7.24228e-06
0.00361633
-7.79177e-06
0.00362244
-1.0505e-05
0.00362926
-1.25585e-05
0.00364372
-3.01875e-05
0.00366609
-4.4122e-05
0.00369714
-6.09754e-05
0.00371838
-3.75472e-05
0.00372511
-1.18406e-05
0.00371245
2.99717e-05
0.00369879
2.84565e-05
0.00368531
3.07071e-05
0.00367956
7.79468e-06
0.00366635
2.8318e-05
0.00363934
5.18991e-05
0.00359997
7.69593e-05
0.00355028
9.72844e-05
0.00349533
0.000108582
0.00343036
0.000131689
0.00335156
0.00015961
0.00326885
0.00016633
0.00320902
0.000122047
0.00319068
3.34665e-05
0.00320593
-3.41111e-05
0.00324571
-8.5013e-05
0.00330093
-0.000112759
0.0033701
-0.000140532
0.00345705
-0.000175215
0.00354556
-0.00017639
0.00362108
-0.000150534
0.00368131
-0.00012102
0.00372361
-8.58626e-05
0.00374494
-4.56276e-05
0.00374078
6.60972e-06
0.00370566
6.68426e-05
0.00364318
0.000120927
0.00356068
0.000162584
0.00346199
0.000196895
0.00334857
0.000226868
0.00322344
0.000250274
0.00309325
0.000259759
0.00296492
0.000255701
0.00283965
0.000249694
0.00271818
0.00024274
0.00260605
0.000224238
0.00250719
0.000197693
0.00242295
0.000168494
0.00235162
0.000142637
0.00229081
0.000121632
0.00224084
9.99331e-05
0.0022036
7.44732e-05
0.00217758
5.20401e-05
0.0021584
3.83635e-05
0.00213952
3.77415e-05
0.00211565
4.77504e-05
0.00208617
5.89474e-05
0.00204875
7.48399e-05
0.00199405
0.000109409
0.00191427
0.000159577
0.00181916
0.000190229
0.00173537
0.000167578
0.00167504
0.000120654
0.0016325
8.50519e-05
0.00159482
7.536e-05
0.00154879
9.20694e-05
0.00148769
0.000122201
0.00141424
0.0001469
0.00134161
0.000145257
0.00128865
0.000105923
0.00124952
7.82562e-05
0.00121522
6.85986e-05
0.00120335
2.37477e-05
0.00122727
-4.78458e-05
0.00127133
-8.81049e-05
0.00129805
-5.34582e-05
0.00128849
1.91124e-05
0.00122892
0.000119101
0.00109552
0.000266799
0.00088113
0.000428771
0.00061613
0.000530053
0.000390122
0.000452025
0.00024655
0.000287144
0.000166447
0.000160208
0.00012113
9.06344e-05
9.32756e-05
5.57097e-05
7.42941e-05
3.79635e-05
6.19855e-05
2.46173e-05
5.58046e-05
1.23617e-05
5.41758e-05
3.25776e-06
5.62917e-05
-4.23177e-06
5.9281e-05
-5.97834e-06
5.82574e-05
2.04751e-06
5.28845e-05
1.07456e-05
4.62053e-05
1.33582e-05
4.17262e-05
8.95801e-06
4.14511e-05
5.50264e-07
4.35344e-05
-4.16632e-06
4.52172e-05
-3.36541e-06
4.39669e-05
2.50057e-06
3.95732e-05
8.78723e-06
3.38959e-05
1.13546e-05
2.84459e-05
1.08999e-05
2.40049e-05
8.88204e-06
6.07179e-06
0.00295172
-0.000761166
0.00309232
-0.000443931
0.0030741
6.29449e-05
0.0029685
0.000321512
0.00275433
0.00063727
0.00237595
0.00113989
0.00198985
0.00116143
0.00179327
0.000598021
0.00175881
0.000107569
0.00181889
-0.000182685
0.00192816
-0.000330478
0.00203941
-0.000333522
0.00212349
-0.000252847
0.00219553
-0.000216018
0.00226709
-0.000215035
0.00234106
-0.000221847
0.00241495
-0.000221977
0.0024851
-0.000209941
0.00255345
-0.000204613
0.00262302
-0.000206886
0.00269779
-0.000223398
0.00278582
-0.000263785
0.00288901
-0.000312126
0.00297936
-0.000270781
0.00301718
-0.000135101
0.00298371
9.6289e-05
0.00285126
0.000378943
0.0025988
0.000762791
0.00237864
0.000692142
0.00231131
0.000246901
0.00234021
-8.07301e-05
0.00237587
-0.00010843
0.0023893
-2.76413e-05
0.00242381
-0.00011396
0.0024877
-0.000198121
0.00252797
-0.0001238
0.00255652
-9.61565e-05
0.00262125
-0.000197815
0.00276129
-0.000428842
0.00296623
-0.000625271
0.00318253
-0.000647478
0.00335928
-0.00053026
0.0034722
-0.000337959
0.00353408
-0.000185047
0.00357144
-0.000112984
0.00359843
-8.51961e-05
0.0036116
-3.93017e-05
0.00361211
-5.27678e-06
0.00359935
3.76905e-05
0.003586
3.21167e-05
0.00358826
-1.01809e-05
0.00359028
-9.83592e-06
0.0035928
-9.76317e-06
0.00359548
-1.04756e-05
0.00360043
-1.54543e-05
0.00360813
-2.02595e-05
0.00362318
-4.52366e-05
0.00364655
-6.74938e-05
0.00367586
-9.02823e-05
0.00369422
-5.59061e-05
0.00369698
-1.46032e-05
0.00368421
4.27411e-05
0.00366845
4.42187e-05
0.00365623
4.29234e-05
0.0036506
1.34259e-05
0.00363903
3.98864e-05
0.00361377
7.71638e-05
0.00357621
0.00011452
0.00352816
0.000145334
0.00347285
0.000163888
0.00340645
0.000198092
0.0033258
0.000240262
0.00324222
0.000249913
0.00318342
0.000180839
0.00316527
5.16204e-05
0.00318087
-4.97122e-05
0.00322049
-0.000124632
0.00327717
-0.000169439
0.00334815
-0.000211517
0.00343586
-0.00026292
0.00352511
-0.000265644
0.00360137
-0.000226786
0.00366253
-0.000182181
0.00370652
-0.000129861
0.00372885
-6.79507e-05
0.00372694
8.52203e-06
0.00369486
9.89135e-05
0.00363493
0.000180856
0.00355389
0.000243628
0.00345617
0.000294615
0.00334409
0.000338945
0.00322128
0.00037309
0.00309326
0.000387779
0.00296548
0.00038348
0.00283993
0.000375248
0.00271821
0.000364456
0.00260602
0.000336426
0.00250717
0.000296544
0.00242293
0.000252737
0.00235161
0.000213955
0.00229079
0.000182448
0.00224083
0.000149901
0.00220359
0.00011171
0.00217757
7.80589e-05
0.00215839
5.75422e-05
0.00213952
5.66096e-05
0.00211565
7.16249e-05
0.00208618
8.84181e-05
0.00204876
0.000112258
0.00199405
0.000164115
0.00191425
0.000239378
0.00181912
0.00028536
0.00173533
0.000251369
0.00167501
0.000180976
0.00163249
0.00012757
0.00159482
0.000113036
0.00154879
0.0001381
0.00148768
0.000183304
0.00141423
0.000220358
0.00134159
0.000217889
0.00128864
0.000158878
0.00124951
0.000117385
0.00121521
0.000102902
0.00120333
3.5622e-05
0.00122727
-7.17802e-05
0.00127132
-0.000132159
0.00129804
-8.01811e-05
0.00128847
2.86872e-05
0.00122884
0.000178728
0.00109545
0.000400193
0.000881052
0.000643164
0.000616095
0.00079501
0.000390095
0.000678025
0.000246522
0.000430717
0.000166426
0.000240303
0.000121115
0.000135946
9.32626e-05
8.35619e-05
7.42818e-05
5.69442e-05
6.19734e-05
3.69257e-05
5.57931e-05
1.85421e-05
5.41646e-05
4.88623e-06
5.62809e-05
-6.34803e-06
5.92709e-05
-8.96841e-06
5.82474e-05
3.07101e-06
5.2874e-05
1.6119e-05
4.61943e-05
2.00379e-05
4.1715e-05
1.34373e-05
4.144e-05
8.25227e-07
4.35238e-05
-6.25016e-06
4.5207e-05
-5.04857e-06
4.39567e-05
3.75082e-06
3.95628e-05
1.31812e-05
3.38852e-05
1.70321e-05
2.84351e-05
1.635e-05
2.39939e-05
1.33232e-05
9.10787e-06
0.00295276
-0.0010225
0.00309113
-0.0005823
0.00307108
8.29976e-05
0.00296477
0.000427815
0.00274962
0.000852418
0.00237089
0.00151862
0.00198545
0.00154687
0.00179165
0.000791828
0.00175851
0.000140706
0.00181798
-0.000242158
0.00192732
-0.000439813
0.00203868
-0.000444888
0.00212308
-0.000337243
0.00219521
-0.000288147
0.00226653
-0.000286356
0.0023401
-0.000295422
0.00241341
-0.000295285
0.0024831
-0.000279626
0.00255102
-0.000272539
0.00262036
-0.000276225
0.00269516
-0.000298199
0.00278285
-0.000351477
0.00288678
-0.000416051
0.00298322
-0.000367225
0.00302778
-0.000179655
0.0030029
0.000121166
0.00288585
0.000495992
0.0026389
0.00100975
0.00239262
0.000938416
0.00229724
0.000342283
0.00230939
-9.2876e-05
0.00233277
-0.000131809
0.00234442
-3.92931e-05
0.002382
-0.000151547
0.00244947
-0.000265586
0.00249695
-0.00017128
0.00253466
-0.000133862
0.00260872
-0.000271884
0.00275449
-0.000574609
0.00296159
-0.000832368
0.0031785
-0.000864386
0.00335468
-0.000706446
0.00346734
-0.000450615
0.00352967
-0.000247376
0.003568
-0.000151321
0.00359637
-0.000113557
0.00361145
-5.43914e-05
0.00361273
-6.55253e-06
0.00360298
4.74386e-05
0.00359513
3.99689e-05
0.00360112
-1.61717e-05
0.00360706
-1.57733e-05
0.00361245
-1.51554e-05
0.00361683
-1.48579e-05
0.00362181
-2.04325e-05
0.00362832
-2.67692e-05
0.00364137
-5.82875e-05
0.00366326
-8.93794e-05
0.00369294
-0.000119962
0.003714
-7.69723e-05
0.00371749
-1.80912e-05
0.00370544
5.47892e-05
0.00368836
6.12997e-05
0.00367456
5.67306e-05
0.00366703
2.09475e-05
0.00365412
5.2804e-05
0.00362798
0.000103303
0.00358967
0.000152827
0.00354133
0.00019367
0.00348542
0.0002198
0.00341801
0.000265501
0.00333504
0.000323238
0.00324717
0.000337784
0.00318325
0.000244756
0.00316098
7.38886e-05
0.00317281
-6.15454e-05
0.00320854
-0.000160361
0.00326322
-0.000224113
0.00333438
-0.000282682
0.00342291
-0.000351452
0.00351298
-0.000355715
0.0035894
-0.000303204
0.00365033
-0.000243105
0.00369441
-0.000173947
0.00371705
-9.05844e-05
0.00371603
9.53522e-06
0.00368648
0.000128464
0.00362919
0.000238145
0.00354984
0.00032298
0.00345288
0.000391572
0.00334149
0.000450335
0.00321991
0.000494678
0.00309324
0.000514449
0.00296585
0.000510868
0.00284024
0.000500861
0.00271833
0.000486362
0.00260605
0.000448709
0.00250717
0.00039542
0.00242292
0.000336993
0.00235159
0.000285276
0.00229078
0.000243268
0.0022408
0.000199874
0.00220356
0.000148952
0.00217754
0.000104083
0.00215835
7.6726e-05
0.00213948
7.54782e-05
0.00211562
9.54937e-05
0.00208614
0.00011789
0.00204872
0.000149681
0.00199402
0.000218817
0.00191423
0.000319165
0.00181909
0.000380502
0.0017353
0.00033516
0.00167499
0.000241287
0.00163249
0.000170071
0.00159482
0.000150707
0.00154879
0.000184128