/*--------------------------------*- C++ -*----------------------------------*\
| =========                 |                                                 |
| \\      /  F ield         | OpenFOAM: The Open Source CFD Toolbox           |
|  \\    /   O peration     | Version:  v1912                                 |
|   \\  /    A nd           | Website:  www.openfoam.com                      |
|    \\/     M anipulation  |                                                 |
\*---------------------------------------------------------------------------*/
FoamFile
{
    version     2.0;
    format      ascii;
    class       volSymmTensorField;
    location    "80";
    object      R;
}
// * * * * * * * * * * * * * * * * * * * * * * * * * * * * * * * * * * * * * //

dimensions      [0 2 -2 0 0 0 0];


internalField   nonuniform List<symmTensor> 
14268
(
(1.89466e-10 1.81798e-11 0 1.68904e-10 0 1.79092e-10)
(3.89889e-10 1.02295e-10 0 4.08144e-10 0 3.85089e-10)
(2.36307e-08 1.16424e-08 0 2.6166e-08 0 2.46957e-08)
(3.93558e-07 2.32426e-07 0 5.26299e-07 0 4.61823e-07)
(3.1562e-06 1.74581e-06 0 3.58288e-06 0 3.42777e-06)
(1.46849e-05 6.05585e-06 0 1.15013e-05 0 1.34227e-05)
(3.71356e-05 1.11161e-05 0 2.18411e-05 0 3.01602e-05)
(4.37393e-05 1.16129e-05 0 2.33608e-05 0 3.43493e-05)
(4.08173e-05 1.04041e-05 0 2.1042e-05 0 3.16654e-05)
(2.82201e-05 7.30314e-06 0 1.39686e-05 0 2.16473e-05)
(2.59454e-05 6.7939e-06 0 1.2113e-05 0 1.94959e-05)
(4.0471e-05 1.1631e-05 0 1.81953e-05 0 2.99438e-05)
(8.49045e-05 2.75432e-05 0 4.51272e-05 0 6.77379e-05)
(0.000159007 3.46858e-05 0 9.48074e-05 0 0.000134094)
(0.000177247 2.6923e-05 0 0.000108618 0 0.000150609)
(0.000167857 2.21214e-05 0 0.000102872 0 0.00014231)
(0.000149351 1.63057e-05 0 9.03856e-05 0 0.000125447)
(0.00012544 1.22516e-05 0 7.63464e-05 0 0.000104065)
(0.000128115 1.3273e-05 0 7.83721e-05 0 0.000106658)
(0.00015875 1.34534e-05 0 0.000105366 0 0.000134035)
(0.000163193 9.20049e-06 0 0.000113888 0 0.000135394)
(0.000127845 4.43459e-06 0 0.000107271 0 0.000103744)
(0.000124809 5.54647e-07 0 0.000123163 0 9.93577e-05)
(0.000224683 4.43821e-06 0 0.000267221 0 0.000199966)
(0.000507189 3.47458e-05 0 0.00075412 0 0.000533425)
(0.000824922 7.7375e-05 0 0.00117871 0 0.000871536)
(0.00126415 0.00016794 0 0.00146228 0 0.00134046)
(0.00265668 0.000673448 0 0.00332751 0 0.00280642)
(0.00232009 0.000690318 0 0.00262406 0 0.00235975)
(0.00122178 0.000179015 0 0.00145476 0 0.00116299)
(0.000755499 1.81695e-05 0 0.00161038 0 0.000605993)
(0.00286951 -0.000527717 0 0.00285081 0 0.00236751)
(0.0111105 -0.00111458 0 0.0246564 0 0.0107188)
(0.0153798 0.000437785 0 0.0375296 0 0.0170446)
(0.0156699 -0.000181871 0 0.0395746 0 0.0177871)
(0.0103595 -0.0013452 0 0.0230662 0 0.0104165)
(0.00456333 -0.0005198 0 0.00836206 0 0.00379042)
(0.00697607 -0.000966834 0 0.0104217 0 0.00611173)
(0.0158018 -0.0020963 0 0.0195178 0 0.0146593)
(0.0272427 -0.00368672 0 0.0526475 0 0.0283011)
(0.0316624 -0.00414524 0 0.0722161 0 0.0366116)
(0.0323587 -0.00510442 0 0.077487 0 0.0390033)
(0.0316059 0.00101648 0 0.0763762 0 0.0356757)
(0.0118258 0.0016786 0 0.0165538 0 0.0116209)
(0.0023806 0.000435375 0 0.00261284 0 0.00219137)
(0.0112127 -0.00215918 0 0.0194568 0 0.0107799)
(0.0229106 -0.00153627 0 0.0480183 0 0.0263946)
(0.0225195 0.000263324 0 0.0527396 0 0.026842)
(0.0106501 0.00381054 0 0.0135651 0 0.010137)
(0.00267317 -0.000446872 0 0.00191518 0 0.00234779)
(0.00964137 -0.00244602 0 0.00721862 0 0.00903028)
(0.0119412 -0.00339697 0 0.0171501 0 0.0123476)
(0.0136883 0.0051328 0 0.0119271 0 0.0153797)
(0.0111239 0.00432142 0 0.0131206 0 0.0134417)
(0.00906785 0.00331213 0 0.0158767 0 0.00913986)
(0.00587047 0.00209353 0 0.0143929 0 0.00536629)
(0.00451103 0.000371381 0 0.0155161 0 0.00449533)
(0.00885535 0.00105575 0 0.0376401 0 0.00960976)
(0.0118654 0.00133224 0 0.017036 0 0.0103142)
(0.0102872 -0.000382171 0 0.0125014 0 0.00847619)
(0.00719077 0.0010344 0 0.00478971 0 0.00633936)
(0.0135671 -0.00368448 0 0.0269861 0 0.0124269)
(0.0250415 -0.00426139 0 0.0838637 0 0.0274662)
(0.021772 0.00682209 0 0.0506856 0 0.0213579)
(0.00976824 0.00196605 0 0.0196118 0 0.00840846)
(0.0118967 -0.000984484 0 0.0317648 0 0.0118235)
(0.0114863 -0.00313936 0 0.0361274 0 0.013227)
(0.0103617 -0.00104891 0 0.0339219 0 0.0150873)
(0.00990853 0.00353623 0 0.0178999 0 0.0114679)
(0.00450148 0.00143155 0 0.00474492 0 0.00435532)
(0.00568904 -0.000413424 0 0.0142381 0 0.00440816)
(0.0059972 -0.000564357 0 0.00846778 0 0.00443398)
(0.00441372 1.0091e-05 0 0.00421554 0 0.00361198)
(0.00556955 -0.000288637 0 0.00979431 0 0.00547607)
(0.0107286 -0.00248647 0 0.0336389 0 0.0110616)
(0.0130983 -0.00207556 0 0.0330923 0 0.0127231)
(0.00674181 -0.00127859 0 0.00916328 0 0.00543056)
(0.00518038 0.000145204 0 0.00371132 0 0.00478306)
(0.00347819 0.000218475 0 1e-15 0 0.00345215)
(0.00314702 0.000383737 0 0.00204011 0 0.00283358)
(0.00538639 0.000414221 0 0.0158386 0 0.0054993)
(0.0136237 0.00345489 0 0.0474998 0 0.0144389)
(0.0155291 0.000718824 0 0.0516541 0 0.0165372)
(0.0237786 -0.00287017 0 0.0794481 0 0.0240893)
(0.0310033 -0.00319746 0 0.104538 0 0.0317158)
(0.0289921 0.00601887 0 0.0920389 0 0.0315936)
(0.0118798 0.00507299 0 0.0158381 0 0.0127906)
(0.00468804 -0.000406695 0 0.00581498 0 0.00403728)
(0.0320699 -0.0142867 0 0.0708776 0 0.0287635)
(0.042063 -0.000884857 0 0.142278 0 0.0508709)
(0.0309636 0.0109389 0 0.101517 0 0.0350712)
(0.00866709 0.00389294 0 0.0161935 0 0.00945449)
(0.00711619 0.00110136 0 0.0230828 0 0.00655386)
(0.011691 -0.0043729 0 0.038008 0 0.0092568)
(0.0110909 0.00211855 0 0.0560383 0 0.0121901)
(0.00970666 0.00240132 0 0.0471944 0 0.0120503)
(0.0107773 -0.00138456 0 0.0540588 0 0.0120466)
(0.0127357 -0.00764613 0 0.0430007 0 0.0113997)
(0.0142617 -0.0100794 0 0.0385177 0 0.0119829)
(0.0160302 -0.00824698 0 0.0549138 0 0.0161986)
(0.0179084 -0.00119222 0 0.0658626 0 0.0192719)
(0.0138959 0.00397008 0 0.0397394 0 0.0150241)
(0.011695 0.00527865 0 0.0419801 0 0.013133)
(0.013002 0.00512383 0 0.0478817 0 0.0138105)
(2.97039e-09 4.0579e-10 0 2.54085e-09 0 2.75066e-09)
(7.19735e-09 2.52453e-09 0 7.29201e-09 0 6.95009e-09)
(2.67146e-07 1.53764e-07 0 2.79034e-07 0 2.6825e-07)
(3.11688e-06 2.03578e-06 0 3.79521e-06 0 3.45631e-06)
(1.90208e-05 1.14119e-05 0 2.02105e-05 0 2.00754e-05)
(7.48526e-05 3.39439e-05 0 5.38894e-05 0 6.62259e-05)
(0.00016997 5.7233e-05 0 8.6369e-05 0 0.000130753)
(0.000199302 5.94455e-05 0 8.84458e-05 0 0.000146143)
(0.000191147 5.43638e-05 0 8.10109e-05 0 0.00013775)
(0.000148574 4.23971e-05 0 5.98082e-05 0 0.000105655)
(0.000143305 4.17146e-05 0 5.52163e-05 0 0.000100973)
(0.000195762 6.10858e-05 0 7.15545e-05 0 0.000135824)
(0.00034122 0.000126745 0 0.000144464 0 0.000254476)
(0.000588109 0.000162628 0 0.000271159 0 0.000464276)
(0.000676458 0.00012232 0 0.000311702 0 0.000532046)
(0.000653724 9.91112e-05 0 0.000296809 0 0.000509149)
(0.000597498 7.13769e-05 0 0.000265988 0 0.000458724)
(0.00051244 5.20358e-05 0 0.000234211 0 0.000389097)
(0.000516047 5.5803e-05 0 0.000241673 0 0.00039568)
(0.000607577 5.16257e-05 0 0.000309912 0 0.000476515)
(0.00062672 3.04337e-05 0 0.000368238 0 0.000476217)
(0.000495373 1.7729e-05 0 0.000418579 0 0.000361398)
(0.000461977 1.77027e-05 0 0.000585237 0 0.000324485)
(0.000748339 8.51883e-05 0 0.00108245 0 0.000638357)
(0.00147486 0.000162896 0 0.0025622 0 0.00159309)
(0.0024294 0.000283298 0 0.00383405 0 0.0026126)
(0.00401897 0.000730466 0 0.00432448 0 0.00426539)
(0.00857971 0.0030924 0 0.0110314 0 0.00904378)
(0.00803909 0.00316962 0 0.00857264 0 0.00796757)
(0.00407184 0.000581369 0 0.0050371 0 0.00370689)
(0.00197085 0.000200816 0 0.00818373 0 0.00134117)
(0.00810447 -0.000263783 0 0.0123814 0 0.0058227)
(0.0262749 -0.000653941 0 0.10104 0 0.0249542)
(0.0346511 0.00234374 0 0.130186 0 0.0412831)
(0.0358878 -0.00116809 0 0.148178 0 0.0449186)
(0.0280275 -0.00741807 0 0.106446 0 0.0286527)
(0.0132426 -8.41774e-05 0 0.0461635 0 0.0101506)
(0.0194968 -0.00075308 0 0.0453092 0 0.0164355)
(0.0491501 -0.00523969 0 0.0730576 0 0.0447988)
(0.0822409 -0.0156766 0 0.251036 0 0.0884102)
(0.0858221 -0.0198676 0 0.324318 0 0.110572)
(0.0808785 -0.0169423 0 0.323139 0 0.112176)
(0.0870535 0.0141307 0 0.374872 0 0.108356)
(0.0347117 0.00942289 0 0.0466471 0 0.0319034)
(0.0101487 0.00280728 0 0.00883043 0 0.00782716)
(0.0286218 -0.00780767 0 0.0744575 0 0.0268503)
(0.058478 -0.00680496 0 0.170682 0 0.0722508)
(0.0630662 0.00560677 0 0.269633 0 0.0847762)
(0.0413873 0.024963 0 0.0826922 0 0.0368908)
(0.0114723 -0.00130492 0 0.00425288 0 0.00882306)
(0.0328611 -0.00972941 0 0.0193693 0 0.0288099)
(0.0291819 -0.0126467 0 0.036195 0 0.0289865)
(0.044088 0.0273982 0 0.0168965 0 0.0467164)
(0.0251225 0.0184313 0 0.0299186 0 0.0367086)
(0.0258541 0.0148053 0 0.0681457 0 0.0250716)
(0.0147336 0.00931212 0 0.0583726 0 0.0122229)
(0.00678095 -0.000125657 0 0.0491133 0 0.0066961)
(0.0156258 0.000975481 0 0.1354 0 0.0184481)
(0.0537316 0.0231219 0 0.13013 0 0.0473115)
(0.0355592 0.018206 0 0.0938512 0 0.0262873)
(0.0266723 0.0111613 0 0.0254413 0 0.0223592)
(0.0424223 -0.0171696 0 0.126276 0 0.0354581)
(0.0715775 -0.0248561 0 0.496937 0 0.082546)
(0.0573886 0.0286604 0 0.200724 0 0.0531584)
(0.0260971 0.0130468 0 0.112296 0 0.0204403)
(0.0227729 0.000490678 0 0.118778 0 0.0234989)
(0.017304 -0.00543728 0 0.0601008 0 0.0219705)
(0.0151269 -0.00234496 0 0.0500501 0 0.0261345)
(0.0232595 0.0104882 0 0.0140342 0 0.0266481)
(0.0171025 0.00707989 0 0.0228493 0 0.0147034)
(0.0191853 0.00189254 0 0.128441 0 0.0135499)
(0.0218589 -0.00722014 0 0.0675132 0 0.0117116)
(0.016326 -0.00489011 0 0.0155628 0 0.0105931)
(0.0170875 -0.00483263 0 0.0327548 0 0.0156218)
(0.0251564 -0.0148593 0 0.144532 0 0.0258505)
(0.0409714 -0.0201553 0 0.176113 0 0.037247)
(0.0277232 -0.0157789 0 0.049675 0 0.0176852)
(0.0258858 -0.00202219 0 0.0284605 0 0.0210736)
(0.0189573 2.07187e-05 0 1e-15 0 0.0167511)
(0.0139778 0.00123564 0 1e-15 0 0.0117995)
(0.0111064 0.00212481 0 0.043185 0 0.0111185)
(0.0221453 0.0111011 0 0.124088 0 0.0236043)
(0.0244932 0.00222314 0 0.145898 0 0.0277396)
(0.0412481 -0.01131 0 0.319672 0 0.0432012)
(0.0583487 -0.0162372 0 0.44174 0 0.0604653)
(0.0632413 0.0191817 0 0.413459 0 0.0713717)
(0.0385695 0.0205111 0 0.0770936 0 0.0398907)
(0.0200446 -0.00115422 0 0.0185899 0 0.0155839)
(0.0925057 -0.0758648 0 0.291408 0 0.0722311)
(0.0822345 -0.00433391 0 0.501012 0 0.110991)
(0.0484892 0.0262012 0 0.247034 0 0.0571782)
(0.0204246 0.0110189 0 0.0231962 0 0.0216414)
(0.00757872 -0.000553921 0 0.0654885 0 0.00593103)
(0.0199026 -0.0236979 0 0.168709 0 0.00999424)
(0.0115515 0.00877361 0 0.0962907 0 0.013713)
(0.00955782 0.00814064 0 0.0869881 0 0.0161107)
(0.0075599 -0.00188688 0 0.0952522 0 0.0123262)
(0.0187067 -0.019441 0 0.11524 0 0.016152)
(0.0253877 -0.0226128 0 0.0907419 0 0.0187604)
(0.0250254 -0.024763 0 0.141773 0 0.0241623)
(0.0289235 -0.00256787 0 0.185699 0 0.0311746)
(0.0227774 0.0120547 0 0.0686574 0 0.0243175)
(0.0180418 0.0150079 0 0.0800384 0 0.0208683)
(0.0194494 0.0158449 0 0.103552 0 0.0210954)
(1.09304e-08 1.29987e-09 0 8.66548e-09 0 9.80558e-09)
(4.23916e-08 1.75974e-08 0 4.1039e-08 0 3.97891e-08)
(9.53452e-07 5.44926e-07 0 9.0224e-07 0 9.01485e-07)
(8.33364e-06 5.17284e-06 0 8.91468e-06 0 8.59755e-06)
(4.09695e-05 2.32632e-05 0 3.94997e-05 0 4.11378e-05)
(0.000136192 5.91226e-05 0 9.21648e-05 0 0.00011764)
(0.000275402 9.17183e-05 0 0.000134624 0 0.000209483)
(0.000317855 9.4668e-05 0 0.000135997 0 0.000230565)
(0.000307696 8.7459e-05 0 0.00012538 0 0.000219184)
(0.000253973 7.24558e-05 0 9.70197e-05 0 0.000178095)
(0.000250297 7.31733e-05 0 9.16706e-05 0 0.000174337)
(0.000328185 0.000101844 0 0.000115578 0 0.000225838)
(0.000535176 0.000195828 0 0.000212797 0 0.000393862)
(0.000887087 0.000256764 0 0.000377841 0 0.00068997)
(0.00105652 0.000191978 0 0.000441356 0 0.000812331)
(0.00104318 0.0001522 0 0.000429342 0 0.000791963)
(0.000980528 0.000105165 0 0.000394752 0 0.000732251)
(0.000868583 7.4787e-05 0 0.000358462 0 0.000639216)
(0.000865296 8.10865e-05 0 0.000360689 0 0.000642433)
(0.000988847 7.7733e-05 0 0.00043491 0 0.000755823)
(0.00103654 2.89616e-05 0 0.000556107 0 0.000756443)
(0.000853257 1.92695e-05 0 0.000607248 0 0.000598819)
(0.000794307 4.26863e-05 0 0.00097081 0 0.000535388)
(0.00120199 0.000159029 0 0.00151085 0 0.00100996)
(0.00211113 0.00023397 0 0.00328344 0 0.00229687)
(0.00352313 0.000393649 0 0.00497082 0 0.003786)
(0.00623103 0.00121628 0 0.00528201 0 0.0064646)
(0.0130388 0.00491488 0 0.0158854 0 0.0135484)
(0.0122437 0.00503405 0 0.0111313 0 0.0120488)
(0.00661285 0.000847018 0 0.00664807 0 0.00588729)
(0.00360465 -0.000160686 0 0.0129928 0 0.00237448)
(0.0137426 0.000801617 0 0.034687 0 0.00970693)
(0.0362755 0.000453391 0 0.15072 0 0.0347575)
(0.046875 0.00179057 0 0.160447 0 0.0561812)
(0.0480564 -0.00410078 0 0.190574 0 0.0604029)
(0.0382239 -0.0125552 0 0.168521 0 0.0391444)
(0.0199356 -0.00109447 0 0.105517 0 0.0150632)
(0.030707 -0.00125511 0 0.0888638 0 0.0257497)
(0.0785038 -0.00881532 0 0.163815 0 0.0715497)
(0.118883 -0.0207031 0 0.479896 0 0.12947)
(0.116803 -0.0237047 0 0.514552 0 0.151572)
(0.100618 -0.0214746 0 0.399481 0 0.139888)
(0.115451 0.0059148 0 0.586843 0 0.143216)
(0.0541098 0.0117348 0 0.0772505 0 0.0500917)
(0.0171491 0.00202355 0 0.00879454 0 0.0130309)
(0.0434303 -0.00813655 0 0.086347 0 0.0406372)
(0.0905846 -0.0180043 0 0.331358 0 0.109045)
(0.0886627 0.00387039 0 0.514532 0 0.116992)
(0.0547928 0.0283229 0 0.243239 0 0.0496898)
(0.0222899 -0.0015217 0 0.00199033 0 0.016511)
(0.0522054 -0.0159415 0 0.0313682 0 0.0438196)
(0.0500037 -0.0383192 0 0.0515994 0 0.0414289)
(0.123537 0.0710658 0 0.165221 0 0.111287)
(0.0462471 0.0518968 0 0.0947663 0 0.0729993)
(0.0315604 0.0156592 0 0.0802335 0 0.0310411)
(0.0181494 0.00777844 0 0.0534503 0 0.0162286)
(0.00927538 -0.00120969 0 0.0386414 0 0.00927458)
(0.020984 -0.0043059 0 0.183421 0 0.0223782)
(0.089132 0.0491679 0 0.349648 0 0.0764584)
(0.12913 0.111154 0 0.447633 0 0.102427)
(0.0784718 0.0583453 0 0.211811 0 0.0604793)
(0.0846261 -0.0328391 0 0.448691 0 0.0743596)
(0.122148 -0.0341171 0 1.00264 0 0.137917)
(0.0744941 0.0274191 0 0.286324 0 0.0682062)
(0.0376881 0.00740448 0 0.279992 0 0.0295431)
(0.0319665 0.00322159 0 0.111283 0 0.0326444)
(0.0300796 -0.0049228 0 1e-15 0 0.0353854)
(0.022911 -0.00436989 0 0.00267252 0 0.0358914)
(0.0360597 0.0224066 0 0.025452 0 0.0439052)
(0.0272208 0.00931217 0 0.151127 0 0.0218612)
(0.032234 0.012458 0 0.349747 0 0.025174)
(0.0348063 -0.0124265 0 0.23866 0 0.0194391)
(0.0257359 -0.0168066 0 0.0864929 0 0.0134537)
(0.0253138 -0.00608952 0 0.0626364 0 0.0224027)
(0.0310239 -0.0170258 0 0.162625 0 0.031714)
(0.060204 -0.0286704 0 0.402922 0 0.0572618)
(0.0461223 -0.0368895 0 0.269043 0 0.029332)
(0.0510042 -0.00242584 0 0.209607 0 0.0396347)
(0.050345 -0.012849 0 0.0543594 0 0.0402207)
(0.0346962 0.000115148 0 1e-15 0 0.0290368)
(0.0149281 0.00255785 0 0.0163249 0 0.0138145)
(0.0229507 0.00220649 0 0.0855794 0 0.0238728)
(0.0296896 -0.00401544 0 0.112335 0 0.0323455)
(0.0432799 -0.0110938 0 0.276256 0 0.0450386)
(0.0597505 -0.0226464 0 0.435393 0 0.0612645)
(0.0618496 -0.00457574 0 0.458012 0 0.0702962)
(0.0363456 0.0079314 0 0.0572227 0 0.0394564)
(0.0407975 0.0021306 0 0.0290807 0 0.0316188)
(0.121167 -0.103148 0 0.511855 0 0.0983233)
(0.0927672 -0.00698316 0 0.539571 0 0.125648)
(0.0495608 0.00522756 0 0.223196 0 0.060982)
(0.0235769 0.0151057 0 1e-15 0 0.0296767)
(0.0113845 -0.00480702 0 0.0541647 0 0.00872076)
(0.0235842 -0.0306724 0 0.270141 0 0.0123294)
(0.0132522 0.00508765 0 0.0402308 0 0.0164669)
(1e-15 0.00414203 0 0.00251354 0 0.0175345)
(0.00791111 0.000150047 0 0.0139945 0 0.016318)
(0.0207553 -0.00508563 0 0.0351165 0 0.0208215)
(0.031202 -0.0247762 0 0.0706877 0 0.0246312)
(0.0496376 -0.0644403 0 0.290374 0 0.0419383)
(0.0494622 -0.0200713 0 0.423172 0 0.0475607)
(0.0303731 0.0196554 0 0.0328904 0 0.0329562)
(0.00411262 0.0116429 0 0.0100639 0 0.0137472)
(0.0165047 0.0166271 0 0.0156693 0 0.0246343)
(2.18372e-08 2.01348e-09 0 1.69104e-08 0 1.9326e-08)
(1.38323e-07 6.10714e-08 0 1.13395e-07 0 1.19562e-07)
(2.27236e-06 1.25622e-06 0 1.86715e-06 0 1.99256e-06)
(1.61631e-05 9.5839e-06 0 1.52981e-05 0 1.56286e-05)
(6.77537e-05 3.67106e-05 0 5.97103e-05 0 6.52121e-05)
(0.000199887 8.38188e-05 0 0.000127673 0 0.000168913)
(0.000366429 0.000121161 0 0.000173783 0 0.000276622)
(0.000415316 0.000124098 0 0.000173502 0 0.000299862)
(0.000402455 0.000115026 0 0.000159977 0 0.000285388)
(0.000341734 9.79304e-05 0 0.000126282 0 0.000238181)
(0.000341996 0.000100351 0 0.000121782 0 0.000237004)
(0.000444612 0.000137844 0 0.000153615 0 0.000305063)
(0.000709248 0.000254658 0 0.000271019 0 0.000517508)
(0.00114111 0.000339243 0 0.000458894 0 0.000878931)
(0.00136686 0.000263208 0 0.000529276 0 0.00103818)
(0.00136431 0.000213049 0 0.000515133 0 0.00102209)
(0.00130022 0.00015101 0 0.000477823 0 0.00095792)
(0.00117767 0.000111454 0 0.000442989 0 0.000852805)
(0.00117572 0.000119399 0 0.000450443 0 0.000858029)
(0.00132762 0.000111416 0 0.000524599 0 0.00100362)
(0.00140821 1.90923e-05 0 0.000683115 0 0.000999097)
(0.0011765 1.74524e-05 0 0.000573775 0 0.000800922)
(0.00109958 5.43911e-05 0 0.00080423 0 0.00072032)
(0.00155228 0.000223516 0 0.00130299 0 0.00127319)
(0.00257361 0.00034238 0 0.00395137 0 0.00279099)
(0.00440969 0.000589983 0 0.0062209 0 0.00470204)
(0.00827343 0.00184748 0 0.00652517 0 0.00835584)
(0.0169161 0.00678212 0 0.0213972 0 0.0172463)
(0.0161232 0.00695986 0 0.0135332 0 0.0156172)
(0.00897127 0.00157268 0 0.00649636 0 0.00793885)
(0.00395029 -0.00045351 0 0.0124369 0 0.00248401)
(0.0141117 -0.000307977 0 0.0541728 0 0.00837643)
(0.0378119 0.00125194 0 0.14744 0 0.0358317)
(0.0500455 0.00388119 0 0.149047 0 0.0611239)
(0.0497735 -0.00370264 0 0.175378 0 0.0644716)
(0.0429778 -0.0172398 0 0.173974 0 0.0437261)
(0.0201124 -0.00410083 0 0.156278 0 0.0141752)
(0.0350849 -0.00275153 0 0.115883 0 0.0285253)
(0.0931919 -0.011374 0 0.300779 0 0.0841514)
(0.12385 -0.0188724 0 0.606185 0 0.137171)
(0.108299 -0.0220491 0 0.482821 0 0.147885)
(0.102336 -0.0332172 0 0.36824 0 0.144366)
(0.100132 -0.0041826 0 0.500375 0 0.128073)
(0.0600166 0.00431386 0 0.0800438 0 0.056181)
(0.0211582 0.0013507 0 0.000186104 0 0.0152067)
(0.0558214 -0.00996993 0 0.0656659 0 0.0508771)
(0.0959366 -0.0182439 0 0.50342 0 0.11687)
(0.0684881 0.00510512 0 0.451492 0 0.0970487)
(0.0457143 0.0141882 0 0.306359 0 0.0414329)
(0.0349422 -0.00283315 0 1e-15 0 0.0241292)
(0.0857142 -0.0331336 0 0.100065 0 0.0670452)
(0.1525 -0.133347 0 0.293297 0 0.0902412)
(0.193368 0.0912463 0 0.798817 0 0.15867)
(0.302968 0.251555 0 0.527822 0 0.286947)
(0.0372734 0.0222604 0 0.0562206 0 0.0358386)
(0.0134177 0.00462435 0 0.0176957 0 0.0132159)
(0.00539529 -0.000138331 0 0.00417625 0 0.00567364)
(0.0141958 -0.00430891 0 0.14775 0 0.0137385)
(0.0892347 0.0371958 0 0.47665 0 0.0736946)
(0.0945314 0.089193 0 0.865107 0 0.0733365)
(0.109061 0.0657438 0 0.678347 0 0.089063)
(0.105751 -0.103953 0 1.02771 0 0.0862313)
(0.113472 -0.0387758 0 1.25876 0 0.130414)
(0.0820757 0.040475 0 0.286388 0 0.0733195)
(0.0163032 -0.00217942 0 0.185248 0 0.00784626)
(0.0354752 -0.0021309 0 0.0565784 0 0.0346844)
(0.0805689 -0.0211856 0 1e-15 0 0.0816404)
(0.0413767 -0.00425698 0 0.00541567 0 0.055449)
(0.0650556 0.0450703 0 0.279348 0 0.0699948)
(0.0250502 -0.00194028 0 0.418332 0 0.0171922)
(0.0279748 0.00455224 0 0.545603 0 0.0202527)
(0.0341904 -0.00629751 0 0.430882 0 0.0179834)
(0.0280251 -0.0324358 0 0.266602 0 0.0124614)
(0.0279618 -0.00335187 0 0.0805573 0 0.0246432)
(0.0292077 -0.015336 0 0.101693 0 0.0290036)
(0.0558609 -0.0242519 0 0.394435 0 0.0522472)
(0.0379546 -0.0343839 0 0.615293 0 0.0233066)
(0.0600533 0.00361419 0 0.3674 0 0.0447147)
(0.0708905 -0.0277532 0 0.163673 0 0.0538198)
(0.0596268 -0.0111288 0 0.0817042 0 0.050725)
(0.017425 0.00710587 0 1e-15 0 0.0170072)
(0.0258637 -0.00357617 0 0.009341 0 0.022505)
(0.0298634 -0.00199066 0 0.0357617 0 0.0310764)
(0.0442227 -0.00554619 0 0.167895 0 0.0457814)
(0.0571928 -0.0173617 0 0.317304 0 0.0584744)
(0.0501068 -0.00977959 0 0.318813 0 0.0576369)
(0.0373776 -0.00670566 0 0.0319475 0 0.0362843)
(0.0604393 0.00944495 0 0.0318914 0 0.0473198)
(0.0939607 -0.0811385 0 0.544886 0 0.0820766)
(0.0749054 -0.00725766 0 0.373931 0 0.106825)
(0.0433176 0.00180575 0 0.144328 0 0.0556271)
(0.0693231 0.0493284 0 0.0436765 0 0.0738807)
(0.0114076 -0.0015545 0 0.011429 0 0.00903823)
(0.00717522 -0.0178249 0 0.172097 0 1e-15)
(0.0147545 -0.00363844 0 1e-15 0 0.0217546)
(0.0309209 0.0622109 0 0.0182011 0 0.116654)
(0.00994671 0.0217561 0 1e-15 0 0.0371622)
(0.0318463 0.0020362 0 1e-15 0 0.0324359)
(0.0823234 -0.0737278 0 0.242412 0 0.0553507)
(0.0760093 -0.120059 0 0.80426 0 0.0579142)
(0.0792145 -0.113427 0 1.19153 0 0.0569914)
(0.221257 0.191145 0 0.200068 0 0.183829)
(0.210089 0.288904 0 0.0885417 0 0.20101)
(0.107726 0.145654 0 0.0225197 0 0.135699)
(3.03593e-08 2.20806e-09 0 2.35777e-08 0 2.69692e-08)
(3.15895e-07 1.39192e-07 0 2.13817e-07 0 2.49726e-07)
(4.34394e-06 2.32086e-06 0 3.17517e-06 0 3.59313e-06)
(2.68263e-05 1.53121e-05 0 2.30835e-05 0 2.47341e-05)
(0.000100117 5.20544e-05 0 8.19372e-05 0 9.31971e-05)
(0.000269059 0.000109262 0 0.000163318 0 0.00022317)
(0.000452071 0.000148301 0 0.000209844 0 0.000339392)
(0.000504158 0.000150814 0 0.000207997 0 0.000363097)
(0.000487906 0.000139915 0 0.000191613 0 0.000345178)
(0.000422255 0.000121293 0 0.000153061 0 0.000293203)
(0.000427835 0.000125813 0 0.000149852 0 0.000295533)
(0.000556215 0.000172615 0 0.000190506 0 0.000381131)
(0.000876357 0.000308944 0 0.000326223 0 0.000635981)
(0.00137312 0.000411085 0 0.000531777 0 0.00105039)
(0.00163686 0.000327191 0 0.0006078 0 0.00123374)
(0.00164468 0.000269509 0 0.000597317 0 0.00122216)
(0.00158309 0.000197413 0 0.000560699 0 0.00115712)
(0.00145961 0.000148047 0 0.000529102 0 0.00104642)
(0.0014638 0.00015592 0 0.00053214 0 0.00105583)
(0.00164154 0.000140698 0 0.000650761 0 0.00123304)
(0.00176575 -1.46744e-05 0 0.000951504 0 0.00122616)
(0.00149911 -1.26116e-05 0 0.000560025 0 0.00099043)
(0.00141387 6.16286e-05 0 0.000507547 0 0.000877152)
(0.00187945 0.000313551 0 0.00115347 0 0.00149157)
(0.00297156 0.00040318 0 0.00567175 0 0.00319485)
(0.00519849 0.000675379 0 0.008921 0 0.00547811)
(0.0102671 0.00242719 0 0.00963139 0 0.0101015)
(0.0205869 0.008372 0 0.0298218 0 0.020639)
(0.0194373 0.0083569 0 0.018051 0 0.018648)
(0.011242 0.00220279 0 0.00713026 0 0.00986315)
(0.00508738 -0.000859326 0 0.0108758 0 0.00328691)
(0.0183736 0.00217355 0 0.0861292 0 0.0112617)
(0.0432421 0.00391298 0 0.13869 0 0.0413211)
(0.0567467 0.00640158 0 0.154809 0 0.0694098)
(0.0559117 -0.00332213 0 0.172823 0 0.0728434)
(0.049304 -0.0193225 0 0.193867 0 0.0505284)
(0.0216857 -0.00286464 0 0.156426 0 0.0151139)
(0.0432807 -0.0015895 0 0.119087 0 0.0349911)
(0.109036 -0.00978209 0 0.461488 0 0.0988572)
(0.133639 -0.0120851 0 0.662712 0 0.149996)
(0.120687 -0.0250913 0 0.443664 0 0.162422)
(0.108792 -0.0353919 0 0.368438 0 0.154442)
(0.109536 -0.000609044 0 0.407856 0 0.13798)
(0.0701915 -0.00494959 0 0.106854 0 0.0652012)
(0.0244915 -0.000822401 0 1e-15 0 0.0156424)
(0.0738992 -0.0182119 0 0.139507 0 0.0643843)
(0.102237 -0.00717949 0 0.598535 0 0.125136)
(0.0747785 0.00772006 0 0.358922 0 0.102085)
(0.0436442 0.00562222 0 0.237255 0 0.0404131)
(0.0455258 -0.0118401 0 0.0158085 0 0.0283205)
(0.099538 -0.0386177 0 0.372078 0 0.0821304)
(0.143419 -0.171585 0 1.00319 0 0.0851106)
(0.210718 -0.0176736 0 1.38337 0 0.154479)
(0.444762 0.328317 0 1.31212 0 0.40871)
(0.0435672 0.0242292 0 0.0429696 0 0.0467313)
(0.00143981 0.0024067 0 0.00309814 0 0.0049419)
(0.00234985 0.00274809 0 0.00550409 0 0.00343797)
(0.0153979 -0.000437659 0 0.0896026 0 0.0121721)
(0.0891929 0.037458 0 0.497641 0 0.0710298)
(0.0161963 0.0211198 0 0.602741 0 0.00184229)
(0.0844075 -0.0273224 0 1.09503 0 0.0697301)
(0.122537 -0.133529 0 1.33106 0 0.0993624)
(0.0828254 -0.0379304 0 1.06739 0 0.0973076)
(0.0955366 0.0292477 0 0.385399 0 0.0852678)
(0.0241192 -0.00791336 0 0.106879 0 0.0154044)
(0.0507179 -0.0048709 0 1e-15 0 0.0472923)
(0.118098 -0.0523657 0 0.168096 0 0.11748)
(0.0750772 -0.0213578 0 0.329901 0 0.0911297)
(0.0735349 0.0417205 0 0.523025 0 0.0774092)
(0.0181244 -0.00796375 0 0.39932 0 0.00930823)
(0.0126287 -0.00247351 0 0.382499 0 0.00372577)
(0.0235853 -0.0115191 0 0.368569 0 0.00654738)
(0.0301548 -0.0509889 0 0.476548 0 0.0141456)
(0.0371396 -0.00773525 0 0.0314714 0 0.0306584)
(0.029404 -0.0134011 0 0.0447557 0 0.029515)
(0.0638303 -0.0179992 0 0.269638 0 0.0572762)
(0.0266367 -0.0315508 0 0.481601 0 0.0102537)
(0.071294 -0.0178856 0 0.205498 0 0.0487146)
(0.10972 -0.0606853 0 0.205196 0 0.0754963)
(0.0821535 -0.0242011 0 0.246275 0 0.0711239)
(0.0463647 0.0113257 0 0.064965 0 0.0458862)
(0.0343709 -0.00691371 0 0.0350206 0 0.0221088)
(0.0298839 0.0135228 0 0.11294 0 0.0287473)
(0.0452568 0.00786357 0 0.0947927 0 0.0471986)
(0.055695 -0.00504629 0 0.214482 0 0.0581917)
(0.0494316 -0.00332098 0 0.159859 0 0.0568037)
(0.0448973 -0.0355361 0 0.270422 0 0.0349182)
(0.0695496 0.011545 0 0.031164 0 0.056366)
(0.0713065 -0.0366483 0 0.377999 0 0.0724211)
(0.0779842 -0.00951397 0 0.219592 0 0.108105)
(0.0338822 -0.00128242 0 0.0642262 0 0.0450531)
(0.116681 0.0830118 0 0.359727 0 0.112606)
(0.00718461 0.00607003 0 0.000130207 0 0.00935183)
(0.0151978 -0.0120537 0 0.101223 0 0.0078693)
(0.0364104 -0.053304 0 1e-15 0 0.0662611)
(0.20017 0.145915 0 0.54482 0 0.301889)
(0.132978 0.0905996 0 0.0856284 0 0.184199)
(0.0467664 0.00779795 0 1e-15 0 0.0484737)
(0.0716833 -0.0691664 0 0.371502 0 0.0485054)
(0.0486281 -0.10651 0 0.829497 0 0.0333168)
(0.0903599 -0.208713 0 1.95051 0 0.0444516)
(0.362109 0.307612 0 1.1277 0 0.297283)
(0.583736 0.503532 0 1.07474 0 0.471814)
(0.717342 0.462858 0 0.610124 0 0.63019)
(3.70313e-08 3.52846e-09 0 3.08949e-08 0 3.39035e-08)
(6.23194e-07 2.74138e-07 0 3.72293e-07 0 4.65702e-07)
(7.41725e-06 3.8522e-06 0 4.966e-06 0 5.88424e-06)
(4.08918e-05 2.25952e-05 0 3.26286e-05 0 3.63694e-05)
(0.000139196 6.97187e-05 0 0.000106809 0 0.000126059)
(0.000344664 0.000135957 0 0.000199983 0 0.000281487)
(0.000537576 0.00017481 0 0.000244522 0 0.000401703)
(0.000589964 0.000176462 0 0.000240615 0 0.000424236)
(0.00056953 0.000163694 0 0.00022114 0 0.000402359)
(0.00050019 0.000143869 0 0.000178282 0 0.000346413)
(0.00051261 0.000151013 0 0.000176973 0 0.000353207)
(0.000668402 0.000207658 0 0.0002273 0 0.000457637)
(0.0010444 0.000361477 0 0.000380134 0 0.000754941)
(0.00159573 0.00047542 0 0.000596138 0 0.00121374)
(0.00188227 0.000385153 0 0.000669601 0 0.00141062)
(0.001898 0.000322784 0 0.000656773 0 0.00140215)
(0.00183997 0.000244197 0 0.000619367 0 0.00133716)
(0.00172105 0.00018784 0 0.00059214 0 0.00122488)
(0.00173592 0.000199658 0 0.000601121 0 0.00124157)
(0.0019452 0.00016888 0 0.000728212 0 0.00144903)
(0.00210561 -6.10512e-05 0 0.00135437 0 0.00144258)
(0.00179609 -6.13721e-05 0 0.000650735 0 0.00114174)
(0.00167491 4.87601e-05 0 0.000393105 0 0.000947429)
(0.00211723 0.000406929 0 0.0017421 0 0.00160397)
(0.00328011 0.000495632 0 0.00880617 0 0.00349582)
(0.00587462 0.000832592 0 0.0129238 0 0.0061098)
(0.0121883 0.00310608 0 0.0140649 0 0.0116891)
(0.0239152 0.00994893 0 0.0380152 0 0.0236076)
(0.0224819 0.00948962 0 0.0240342 0 0.021349)
(0.0133818 0.00285393 0 0.00814197 0 0.0116186)
(0.00589184 -0.00114214 0 0.0085113 0 0.00379155)
(0.0161256 0.000931677 0 0.12542 0 0.00751051)
(0.0442022 0.00470738 0 0.120608 0 0.0419789)
(0.0596374 0.00884539 0 0.170017 0 0.0735175)
(0.0580506 -0.00354757 0 0.179457 0 0.0766751)
(0.0522921 -0.0206812 0 0.215396 0 0.0543197)
(0.0221763 -0.00453198 0 0.120339 0 0.0151948)
(0.0500548 9.48644e-05 0 0.103145 0 0.0397017)
(0.112357 -0.00528207 0 0.587637 0 0.100728)
(0.130649 -0.00817916 0 0.62402 0 0.148779)
(0.117437 -0.0299717 0 0.399345 0 0.15993)
(0.10533 -0.0369764 0 0.3587 0 0.153169)
(0.102103 0.00478945 0 0.299545 0 0.129553)
(0.0700493 -0.010595 0 0.249373 0 0.0619197)
(0.0270206 -0.00752735 0 0.0473953 0 0.012838)
(0.0885435 -0.0350378 0 0.361096 0 0.0728238)
(0.0940884 0.00325288 0 0.521516 0 0.116386)
(0.0692423 0.0106123 0 0.267937 0 0.0936717)
(0.041179 0.0167675 0 0.112086 0 0.0403425)
(0.0416868 -0.019841 0 0.208721 0 0.022903)
(0.095787 -0.0247329 0 0.414769 0 0.0798609)
(0.0696232 -0.0936239 0 0.859773 0 0.0351527)
(0.208465 -0.205772 0 1.80611 0 0.122978)
(0.339847 0.205701 0 1.19202 0 0.322854)
(0.0934761 0.0395495 0 0.0792864 0 0.101895)
(0.053545 0.0157502 0 0.0252039 0 0.05304)
(0.034547 0.0183411 0 0.10478 0 0.0225497)
(0.0159162 0.00301501 0 0.0522514 0 0.00921695)
(0.0949155 0.0529383 0 0.467361 0 0.0742459)
(0.0159716 0.00276244 0 0.366054 0 0.00081626)
(0.0104418 -0.0340341 0 0.503465 0 1e-15)
(0.0969432 -0.0968603 0 1.22833 0 0.0815063)
(0.0973458 -0.0503398 0 0.865051 0 0.106162)
(0.0879016 -0.0252586 0 0.58318 0 0.075312)
(0.0237026 -0.00247364 0 0.0295288 0 0.0172522)
(0.0853839 -0.00923102 0 1e-15 0 0.0782609)
(0.141517 -0.0617089 0 0.228781 0 0.137866)
(0.084449 -0.0315694 0 0.78021 0 0.102039)
(0.0470673 0.0197348 0 0.417758 0 0.0496614)
(0.0240005 -0.00257556 0 0.278912 0 0.0157576)
(0.0181246 -0.00481599 0 0.229632 0 0.0092524)
(0.0328538 -0.0186941 0 0.218124 0 0.0134443)
(0.0121885 -0.0432191 0 0.378218 0 1e-15)
(0.0591434 -0.021097 0 0.00823938 0 0.0446493)
(0.0311117 -0.0164636 0 0.00719278 0 0.0329302)
(0.0752467 -0.0125135 0 0.112886 0 0.0654373)
(0.0390263 -0.0328574 0 0.301298 0 0.021195)
(0.114529 -0.0446801 0 0.0838313 0 0.0722321)
(0.14379 -0.0910643 0 0.487329 0 0.0901881)
(0.0918338 -0.0201363 0 0.354558 0 0.0808231)
(0.133913 0.0556331 0 0.416422 0 0.120989)
(0.0291329 0.000269685 0 0.358255 0 0.0151547)
(0.0252861 0.0121456 0 0.52171 0 0.0204946)
(0.0435945 0.0156009 0 0.123075 0 0.0462134)
(0.048548 0.000520687 0 0.119562 0 0.051528)
(0.046339 -0.00265303 0 0.0264067 0 0.0516709)
(0.0300437 -0.0374803 0 0.572989 0 0.0162745)