/*--------------------------------*- C++ -*----------------------------------*\
| =========                 |                                                 |
| \\      /  F ield         | OpenFOAM: The Open Source CFD Toolbox           |
|  \\    /   O peration     | Version:  v1912                                 |
|   \\  /    A nd           | Website:  www.openfoam.com                      |
|    \\/     M anipulation  |                                                 |
\*---------------------------------------------------------------------------*/
FoamFile
{
    version     2.0;
    format      ascii;
    class       volScalarField;
    location    "30";
    object      nut;
}
// * * * * * * * * * * * * * * * * * * * * * * * * * * * * * * * * * * * * * //

dimensions      [0 2 -1 0 0 0 0];


internalField   nonuniform List<scalar> 
14268
(
1.15141e-12
1.15145e-12
1.15149e-12
1.15153e-12
1.15156e-12
1.15159e-12
1.15162e-12
1.15165e-12
1.15168e-12
1.15171e-12
1.15173e-12
1.15176e-12
1.15178e-12
1.1518e-12
1.15182e-12
1.15184e-12
1.15186e-12
1.15188e-12
1.15189e-12
1.15191e-12
1.15192e-12
1.15194e-12
1.15195e-12
1.15196e-12
1.15198e-12
1.15199e-12
1.152e-12
1.15201e-12
1.15202e-12
1.15203e-12
1.15204e-12
1.15205e-12
1.15205e-12
1.15206e-12
1.15207e-12
1.15208e-12
1.15208e-12
1.15209e-12
1.15209e-12
1.1521e-12
1.1521e-12
1.15211e-12
1.15211e-12
1.15212e-12
1.15212e-12
1.15213e-12
1.15213e-12
1.15213e-12
1.15214e-12
1.15214e-12
1.15214e-12
1.15214e-12
1.15215e-12
1.15215e-12
1.15215e-12
1.15215e-12
1.15216e-12
1.15216e-12
1.15216e-12
1.15216e-12
1.15216e-12
1.15216e-12
1.15217e-12
1.15217e-12
1.15217e-12
1.15217e-12
1.15217e-12
1.15217e-12
1.15217e-12
1.15217e-12
1.15217e-12
1.15217e-12
1.15217e-12
1.15218e-12
1.15218e-12
1.15218e-12
1.15218e-12
1.15218e-12
1.15218e-12
1.15218e-12
1.15218e-12
1.15218e-12
1.15218e-12
1.15218e-12
1.15218e-12
1.15218e-12
1.15218e-12
1.15218e-12
1.15218e-12
1.15218e-12
1.15218e-12
1.15218e-12
1.15218e-12
1.15218e-12
1.15218e-12
1.15218e-12
1.15218e-12
1.15218e-12
1.15218e-12
1.15218e-12
1.15218e-12
1.15218e-12
1.15218e-12
1.15218e-12
1.15218e-12
1.15218e-12
1.15218e-12
1.15218e-12
1.15218e-12
1.15218e-12
1.15218e-12
1.15218e-12
1.15218e-12
1.15218e-12
1.15218e-12
1.15218e-12
1.15218e-12
1.15218e-12
1.15218e-12
1.15218e-12
1.15218e-12
1.15218e-12
1.15218e-12
1.15218e-12
1.15218e-12
1.15218e-12
1.15218e-12
1.15218e-12
1.15218e-12
1.15218e-12
1.15218e-12
1.15218e-12
1.15218e-12
1.15218e-12
1.15218e-12
1.15218e-12
1.15219e-12
1.15218e-12
1.15219e-12
1.15219e-12
1.15219e-12
1.15219e-12
1.15219e-12
1.15219e-12
1.15219e-12
1.15219e-12
1.15219e-12
1.15219e-12
1.15219e-12
1.15219e-12
1.15219e-12
1.15219e-12
1.15219e-12
1.15219e-12
1.15219e-12
1.15219e-12
1.15219e-12
1.15219e-12
1.15219e-12
1.15219e-12
1.1522e-12
1.1522e-12
1.15254e-12
1.16166e-12
1.90184e-10
1.90191e-10
1.90198e-10
1.90205e-10
1.90211e-10
1.90217e-10
1.90223e-10
1.90229e-10
1.90234e-10
1.90239e-10
1.90244e-10
1.90248e-10
1.90252e-10
1.90257e-10
1.9026e-10
1.90264e-10
1.90268e-10
1.90271e-10
1.90274e-10
1.90277e-10
1.9028e-10
1.90283e-10
1.90285e-10
1.90288e-10
1.9029e-10
1.90292e-10
1.90294e-10
1.90296e-10
1.90298e-10
1.903e-10
1.90302e-10
1.90303e-10
1.90305e-10
1.90306e-10
1.90307e-10
1.90309e-10
1.9031e-10
1.90311e-10
1.90312e-10
1.90313e-10
1.90314e-10
1.90315e-10
1.90316e-10
1.90317e-10
1.90317e-10
1.90318e-10
1.90319e-10
1.90319e-10
1.9032e-10
1.90321e-10
1.90321e-10
1.90322e-10
1.90322e-10
1.90323e-10
1.90323e-10
1.90323e-10
1.90324e-10
1.90324e-10
1.90324e-10
1.90325e-10
1.90325e-10
1.90325e-10
1.90326e-10
1.90326e-10
1.90326e-10
1.90326e-10
1.90326e-10
1.90327e-10
1.90327e-10
1.90327e-10
1.90327e-10
1.90327e-10
1.90327e-10
1.90328e-10
1.90328e-10
1.90328e-10
1.90328e-10
1.90328e-10
1.90328e-10
1.90328e-10
1.90328e-10
1.90328e-10
1.90328e-10
1.90328e-10
1.90329e-10
1.90329e-10
1.90329e-10
1.90329e-10
1.90329e-10
1.90329e-10
1.90329e-10
1.90329e-10
1.90329e-10
1.90329e-10
1.90329e-10
1.90329e-10
1.90329e-10
1.90329e-10
1.90329e-10
1.90329e-10
1.90329e-10
1.90329e-10
1.90329e-10
1.90329e-10
1.90329e-10
1.90329e-10
1.90329e-10
1.90329e-10
1.90329e-10
1.90329e-10
1.90329e-10
1.90329e-10
1.90329e-10
1.90329e-10
1.90329e-10
1.90329e-10
1.90329e-10
1.90329e-10
1.90329e-10
1.90329e-10
1.90329e-10
1.90329e-10
1.90329e-10
1.90328e-10
1.90328e-10
1.90328e-10
1.90328e-10
1.90328e-10
1.90328e-10
1.90328e-10
1.90328e-10
1.90328e-10
1.90329e-10
1.90328e-10
1.90329e-10
1.90328e-10
1.90329e-10
1.90329e-10
1.9033e-10
1.9033e-10
1.90331e-10
1.9033e-10
1.90331e-10
1.9033e-10
1.90331e-10
1.9033e-10
1.90331e-10
1.9033e-10
1.9033e-10
1.9033e-10
1.9033e-10
1.9033e-10
1.9033e-10
1.9033e-10
1.9033e-10
1.9033e-10
1.9033e-10
1.9033e-10
1.9033e-10
1.9033e-10
1.90331e-10
1.90332e-10
1.90387e-10
1.91808e-10
3.55536e-09
3.5555e-09
3.55564e-09
3.55577e-09
3.55589e-09
3.55601e-09
3.55612e-09
3.55622e-09
3.55632e-09
3.55642e-09
3.55651e-09
3.5566e-09
3.55668e-09
3.55676e-09
3.55683e-09
3.55691e-09
3.55697e-09
3.55704e-09
3.5571e-09
3.55715e-09
3.55721e-09
3.55726e-09
3.55731e-09
3.55736e-09
3.5574e-09
3.55744e-09
3.55748e-09
3.55752e-09
3.55756e-09
3.55759e-09
3.55762e-09
3.55765e-09
3.55768e-09
3.55771e-09
3.55774e-09
3.55776e-09
3.55778e-09
3.55781e-09
3.55783e-09
3.55785e-09
3.55786e-09
3.55788e-09
3.5579e-09
3.55791e-09
3.55793e-09
3.55794e-09
3.55796e-09
3.55797e-09
3.55798e-09
3.55799e-09
3.558e-09
3.55801e-09
3.55802e-09
3.55803e-09
3.55804e-09
3.55804e-09
3.55805e-09
3.55806e-09
3.55807e-09
3.55807e-09
3.55808e-09
3.55808e-09
3.55809e-09
3.55809e-09
3.5581e-09
3.5581e-09
3.5581e-09
3.55811e-09
3.55811e-09
3.55811e-09
3.55812e-09
3.55812e-09
3.55812e-09
3.55813e-09
3.55813e-09
3.55813e-09
3.55813e-09
3.55813e-09
3.55813e-09
3.55814e-09
3.55814e-09
3.55814e-09
3.55814e-09
3.55814e-09
3.55814e-09
3.55814e-09
3.55815e-09
3.55815e-09
3.55815e-09
3.55815e-09
3.55815e-09
3.55815e-09
3.55815e-09
3.55815e-09
3.55815e-09
3.55815e-09
3.55815e-09
3.55815e-09
3.55815e-09
3.55815e-09
3.55815e-09
3.55815e-09
3.55815e-09
3.55815e-09
3.55815e-09
3.55815e-09
3.55815e-09
3.55815e-09
3.55815e-09
3.55815e-09
3.55815e-09
3.55815e-09
3.55815e-09
3.55815e-09
3.55815e-09
3.55815e-09
3.55815e-09
3.55815e-09
3.55815e-09
3.55815e-09
3.55815e-09
3.55814e-09
3.55814e-09
3.55814e-09
3.55814e-09
3.55814e-09
3.55814e-09
3.55813e-09
3.55814e-09
3.55813e-09
3.55814e-09
3.55813e-09
3.55814e-09
3.55813e-09
3.55815e-09
3.55814e-09
3.55816e-09
3.55815e-09
3.55817e-09
3.55817e-09
3.55818e-09
3.55817e-09
3.55818e-09
3.55818e-09
3.55818e-09
3.55818e-09
3.55818e-09
3.55818e-09
3.55818e-09
3.55817e-09
3.55817e-09
3.55817e-09
3.55817e-09
3.55817e-09
3.55817e-09
3.55817e-09
3.55817e-09
3.55817e-09
3.55817e-09
3.55818e-09
3.55819e-09
3.5582e-09
3.55921e-09
3.5825e-09
2.21533e-08
2.21541e-08
2.2155e-08
2.21558e-08
2.21565e-08
2.21572e-08
2.21579e-08
2.21586e-08
2.21592e-08
2.21598e-08
2.21603e-08
2.21609e-08
2.21614e-08
2.21619e-08
2.21623e-08
2.21627e-08
2.21632e-08
2.21636e-08
2.21639e-08
2.21643e-08
2.21646e-08
2.21649e-08
2.21652e-08
2.21655e-08
2.21658e-08
2.21661e-08
2.21663e-08
2.21665e-08
2.21668e-08
2.2167e-08
2.21672e-08
2.21674e-08
2.21675e-08
2.21677e-08
2.21679e-08
2.2168e-08
2.21682e-08
2.21683e-08
2.21684e-08
2.21685e-08
2.21686e-08
2.21688e-08
2.21689e-08
2.2169e-08
2.2169e-08
2.21691e-08
2.21692e-08
2.21693e-08
2.21694e-08
2.21694e-08
2.21695e-08
2.21695e-08
2.21696e-08
2.21697e-08
2.21697e-08
2.21698e-08
2.21698e-08
2.21698e-08
2.21699e-08
2.21699e-08
2.217e-08
2.217e-08
2.217e-08
2.217e-08
2.21701e-08
2.21701e-08
2.21701e-08
2.21701e-08
2.21702e-08
2.21702e-08
2.21702e-08
2.21702e-08
2.21702e-08
2.21703e-08
2.21703e-08
2.21703e-08
2.21703e-08
2.21703e-08
2.21703e-08
2.21703e-08
2.21703e-08
2.21703e-08
2.21703e-08
2.21704e-08
2.21704e-08
2.21704e-08
2.21704e-08
2.21704e-08
2.21704e-08
2.21704e-08
2.21704e-08
2.21704e-08
2.21704e-08
2.21704e-08
2.21704e-08
2.21704e-08
2.21704e-08
2.21704e-08
2.21704e-08
2.21704e-08
2.21704e-08
2.21704e-08
2.21704e-08
2.21704e-08
2.21704e-08
2.21704e-08
2.21704e-08
2.21704e-08
2.21704e-08
2.21704e-08
2.21704e-08
2.21704e-08
2.21704e-08
2.21704e-08
2.21704e-08
2.21704e-08
2.21704e-08
2.21704e-08
2.21704e-08
2.21704e-08
2.21704e-08
2.21704e-08
2.21704e-08
2.21703e-08
2.21704e-08
2.21703e-08
2.21703e-08
2.21703e-08
2.21703e-08
2.21703e-08
2.21703e-08
2.21703e-08
2.21704e-08
2.21703e-08
2.21704e-08
2.21703e-08
2.21705e-08
2.21704e-08
2.21706e-08
2.21705e-08
2.21706e-08
2.21705e-08
2.21706e-08
2.21706e-08
2.21706e-08
2.21706e-08
2.21706e-08
2.21706e-08
2.21706e-08
2.21706e-08
2.21706e-08
2.21705e-08
2.21705e-08
2.21705e-08
2.21705e-08
2.21705e-08
2.21705e-08
2.21705e-08
2.21705e-08
2.21706e-08
2.21706e-08
2.21707e-08
2.21767e-08
2.2299e-08
7.29961e-08
7.29987e-08
7.30011e-08
7.30034e-08
7.30056e-08
7.30078e-08
7.30097e-08
7.30117e-08
7.30135e-08
7.30153e-08
7.30169e-08
7.30185e-08
7.30199e-08
7.30214e-08
7.30227e-08
7.3024e-08
7.30252e-08
7.30264e-08
7.30275e-08
7.30286e-08
7.30295e-08
7.30305e-08
7.30314e-08
7.30322e-08
7.3033e-08
7.30338e-08
7.30345e-08
7.30352e-08
7.30358e-08
7.30365e-08
7.30371e-08
7.30376e-08
7.30381e-08
7.30386e-08
7.30391e-08
7.30395e-08
7.304e-08
7.30404e-08
7.30407e-08
7.30411e-08
7.30414e-08
7.30417e-08
7.3042e-08
7.30423e-08
7.30426e-08
7.30428e-08
7.30431e-08
7.30433e-08
7.30435e-08
7.30437e-08
7.30439e-08
7.30441e-08
7.30443e-08
7.30444e-08
7.30446e-08
7.30447e-08
7.30448e-08
7.3045e-08
7.30451e-08
7.30452e-08
7.30453e-08
7.30454e-08
7.30455e-08
7.30456e-08
7.30456e-08
7.30457e-08
7.30458e-08
7.30459e-08
7.30459e-08
7.3046e-08
7.3046e-08
7.30461e-08
7.30461e-08
7.30462e-08
7.30462e-08
7.30463e-08
7.30463e-08
7.30463e-08
7.30464e-08
7.30464e-08
7.30464e-08
7.30464e-08
7.30465e-08
7.30465e-08
7.30465e-08
7.30465e-08
7.30466e-08
7.30466e-08
7.30466e-08
7.30466e-08
7.30466e-08
7.30466e-08
7.30466e-08
7.30466e-08
7.30467e-08
7.30467e-08
7.30467e-08
7.30467e-08
7.30467e-08
7.30467e-08
7.30467e-08
7.30467e-08
7.30467e-08
7.30467e-08
7.30467e-08
7.30467e-08
7.30467e-08
7.30467e-08
7.30467e-08
7.30467e-08
7.30467e-08
7.30467e-08
7.30467e-08
7.30467e-08
7.30467e-08
7.30466e-08
7.30466e-08
7.30466e-08
7.30466e-08
7.30466e-08
7.30466e-08
7.30465e-08
7.30465e-08
7.30465e-08
7.30465e-08
7.30464e-08
7.30465e-08
7.30463e-08
7.30464e-08
7.30462e-08
7.30464e-08
7.30462e-08
7.30465e-08
7.30463e-08
7.30467e-08
7.30464e-08
7.30468e-08
7.30466e-08
7.30471e-08
7.30469e-08
7.30472e-08
7.3047e-08
7.30472e-08
7.30471e-08
7.30472e-08
7.30471e-08
7.30472e-08
7.30471e-08
7.30471e-08
7.30471e-08
7.30471e-08
7.3047e-08
7.3047e-08
7.3047e-08
7.3047e-08
7.3047e-08
7.3047e-08
7.3047e-08
7.3047e-08
7.30471e-08
7.30473e-08
7.30476e-08
7.3065e-08
7.33857e-08
1.55946e-07
1.5595e-07
1.55954e-07
1.55958e-07
1.55962e-07
1.55965e-07
1.55968e-07
1.55972e-07
1.55975e-07
1.55978e-07
1.5598e-07
1.55983e-07
1.55985e-07
1.55988e-07
1.5599e-07
1.55992e-07
1.55994e-07
1.55996e-07
1.55998e-07
1.56e-07
1.56001e-07
1.56003e-07
1.56004e-07
1.56006e-07
1.56007e-07
1.56009e-07
1.5601e-07
1.56011e-07
1.56012e-07
1.56013e-07
1.56014e-07
1.56015e-07
1.56016e-07
1.56017e-07
1.56017e-07
1.56018e-07
1.56019e-07
1.56019e-07
1.5602e-07
1.56021e-07
1.56021e-07
1.56022e-07
1.56022e-07
1.56023e-07
1.56023e-07
1.56024e-07
1.56024e-07
1.56024e-07
1.56025e-07
1.56025e-07
1.56025e-07
1.56026e-07
1.56026e-07
1.56026e-07
1.56026e-07
1.56027e-07
1.56027e-07
1.56027e-07
1.56027e-07
1.56028e-07
1.56028e-07
1.56028e-07
1.56028e-07
1.56028e-07
1.56028e-07
1.56028e-07
1.56029e-07
1.56029e-07
1.56029e-07
1.56029e-07
1.56029e-07
1.56029e-07
1.56029e-07
1.56029e-07
1.56029e-07
1.56029e-07
1.56029e-07
1.56029e-07
1.5603e-07
1.5603e-07
1.5603e-07
1.5603e-07
1.5603e-07
1.5603e-07
1.5603e-07
1.5603e-07
1.5603e-07
1.5603e-07
1.5603e-07
1.5603e-07
1.5603e-07
1.5603e-07
1.5603e-07
1.5603e-07
1.5603e-07
1.5603e-07
1.5603e-07
1.5603e-07
1.5603e-07
1.5603e-07
1.5603e-07
1.5603e-07
1.5603e-07
1.5603e-07
1.5603e-07
1.5603e-07
1.5603e-07
1.5603e-07
1.5603e-07
1.5603e-07
1.5603e-07
1.5603e-07
1.5603e-07
1.5603e-07
1.5603e-07
1.5603e-07
1.5603e-07
1.5603e-07
1.5603e-07
1.5603e-07
1.5603e-07
1.5603e-07
1.5603e-07
1.5603e-07
1.5603e-07
1.5603e-07
1.5603e-07
1.56029e-07
1.5603e-07
1.56029e-07
1.5603e-07
1.56029e-07
1.5603e-07
1.56029e-07
1.5603e-07
1.5603e-07
1.5603e-07
1.5603e-07
1.56031e-07
1.5603e-07
1.56031e-07
1.56031e-07
1.56031e-07
1.56031e-07
1.56031e-07
1.56031e-07
1.56031e-07
1.56031e-07
1.56031e-07
1.56031e-07
1.56031e-07
1.56031e-07
1.56031e-07
1.56031e-07
1.56031e-07
1.56031e-07
1.56031e-07
1.56031e-07
1.56031e-07
1.56031e-07
1.56031e-07
1.56032e-07
1.5606e-07
1.56555e-07
2.44402e-07
2.44407e-07
2.44411e-07
2.44415e-07
2.44419e-07
2.44423e-07
2.44427e-07
2.4443e-07
2.44434e-07
2.44437e-07
2.4444e-07
2.44443e-07
2.44445e-07
2.44448e-07
2.4445e-07
2.44453e-07
2.44455e-07
2.44457e-07
2.44459e-07
2.44461e-07
2.44462e-07
2.44464e-07
2.44466e-07
2.44467e-07
2.44469e-07
2.4447e-07
2.44471e-07
2.44473e-07
2.44474e-07
2.44475e-07
2.44476e-07
2.44477e-07
2.44478e-07
2.44479e-07
2.4448e-07
2.44481e-07
2.44481e-07
2.44482e-07
2.44483e-07
2.44483e-07
2.44484e-07
2.44485e-07
2.44485e-07
2.44486e-07
2.44486e-07
2.44487e-07
2.44487e-07
2.44487e-07
2.44488e-07
2.44488e-07
2.44489e-07
2.44489e-07
2.44489e-07
2.4449e-07
2.4449e-07
2.4449e-07
2.4449e-07
2.44491e-07
2.44491e-07
2.44491e-07
2.44491e-07
2.44491e-07
2.44491e-07
2.44492e-07
2.44492e-07
2.44492e-07
2.44492e-07
2.44492e-07
2.44492e-07
2.44492e-07
2.44493e-07
2.44493e-07
2.44493e-07
2.44493e-07
2.44493e-07
2.44493e-07
2.44493e-07
2.44493e-07
2.44493e-07
2.44493e-07
2.44493e-07
2.44493e-07
2.44493e-07
2.44493e-07
2.44493e-07
2.44493e-07
2.44493e-07
2.44494e-07
2.44494e-07
2.44494e-07
2.44494e-07
2.44494e-07
2.44494e-07
2.44494e-07
2.44494e-07
2.44494e-07
2.44494e-07
2.44494e-07
2.44494e-07
2.44494e-07
2.44494e-07
2.44494e-07
2.44494e-07
2.44494e-07
2.44494e-07
2.44494e-07
2.44494e-07
2.44494e-07
2.44494e-07
2.44494e-07
2.44494e-07
2.44494e-07
2.44494e-07
2.44494e-07
2.44494e-07
2.44494e-07
2.44494e-07
2.44494e-07
2.44494e-07
2.44494e-07
2.44494e-07
2.44493e-07
2.44493e-07
2.44493e-07
2.44493e-07
2.44493e-07
2.44493e-07
2.44493e-07
2.44493e-07
2.44493e-07
2.44493e-07
2.44493e-07
2.44493e-07
2.44493e-07
2.44494e-07
2.44493e-07
2.44494e-07
2.44494e-07
2.44494e-07
2.44494e-07
2.44495e-07
2.44494e-07
2.44495e-07
2.44494e-07
2.44495e-07
2.44494e-07
2.44495e-07
2.44494e-07
2.44495e-07
2.44494e-07
2.44494e-07
2.44494e-07
2.44494e-07
2.44494e-07
2.44494e-07
2.44494e-07
2.44494e-07
2.44494e-07
2.44494e-07
2.44494e-07
2.44495e-07
2.44495e-07
2.44525e-07
2.45018e-07
3.11355e-07
3.11358e-07
3.11362e-07
3.11365e-07
3.11368e-07
3.11371e-07
3.11374e-07
3.11377e-07
3.11379e-07
3.11382e-07
3.11384e-07
3.11386e-07
3.11388e-07
3.1139e-07
3.11392e-07
3.11394e-07
3.11396e-07
3.11397e-07
3.11399e-07
3.114e-07
3.11402e-07
3.11403e-07
3.11404e-07
3.11406e-07
3.11407e-07
3.11408e-07
3.11409e-07
3.1141e-07
3.11411e-07
3.11411e-07
3.11412e-07
3.11413e-07
3.11414e-07
3.11414e-07
3.11415e-07
3.11416e-07
3.11416e-07
3.11417e-07
3.11417e-07
3.11418e-07
3.11418e-07
3.11419e-07
3.11419e-07
3.1142e-07
3.1142e-07
3.1142e-07
3.11421e-07
3.11421e-07
3.11421e-07
3.11422e-07
3.11422e-07
3.11422e-07
3.11422e-07
3.11423e-07
3.11423e-07
3.11423e-07
3.11423e-07
3.11423e-07
3.11424e-07
3.11424e-07
3.11424e-07
3.11424e-07
3.11424e-07
3.11424e-07
3.11424e-07
3.11425e-07
3.11425e-07
3.11425e-07
3.11425e-07
3.11425e-07
3.11425e-07
3.11425e-07
3.11425e-07
3.11425e-07
3.11425e-07
3.11425e-07
3.11425e-07
3.11425e-07
3.11425e-07
3.11425e-07
3.11426e-07
3.11426e-07
3.11426e-07
3.11426e-07
3.11426e-07
3.11426e-07
3.11426e-07
3.11426e-07
3.11426e-07
3.11426e-07
3.11426e-07
3.11426e-07
3.11426e-07
3.11426e-07
3.11426e-07
3.11426e-07
3.11426e-07
3.11426e-07
3.11426e-07
3.11426e-07
3.11426e-07
3.11426e-07
3.11426e-07
3.11426e-07
3.11426e-07
3.11426e-07
3.11426e-07
3.11426e-07
3.11426e-07
3.11426e-07
3.11426e-07
3.11426e-07
3.11426e-07
3.11426e-07
3.11426e-07
3.11426e-07
3.11426e-07
3.11426e-07
3.11426e-07
3.11426e-07
3.11426e-07
3.11426e-07
3.11426e-07
3.11426e-07
3.11426e-07
3.11425e-07
3.11426e-07
3.11425e-07
3.11426e-07
3.11425e-07
3.11426e-07
3.11425e-07
3.11426e-07
3.11425e-07
3.11426e-07
3.11426e-07
3.11426e-07
3.11426e-07
3.11426e-07
3.11426e-07
3.11427e-07
3.11426e-07
3.11427e-07
3.11426e-07
3.11427e-07
3.11426e-07
3.11427e-07
3.11426e-07
3.11426e-07
3.11426e-07
3.11426e-07
3.11426e-07
3.11426e-07
3.11426e-07
3.11426e-07
3.11426e-07
3.11426e-07
3.11426e-07
3.11426e-07
3.11426e-07
3.11427e-07
3.11427e-07
3.11449e-07
3.118e-07
3.50656e-07
3.50659e-07
3.50661e-07
3.50663e-07
3.50665e-07
3.50666e-07
3.50668e-07
3.5067e-07
3.50671e-07
3.50673e-07
3.50674e-07
3.50676e-07
3.50677e-07
3.50678e-07
3.50679e-07
3.50681e-07
3.50681e-07
3.50683e-07
3.50683e-07
3.50684e-07
3.50685e-07
3.50686e-07
3.50687e-07
3.50688e-07
3.50688e-07
3.50689e-07
3.5069e-07
3.5069e-07
3.50691e-07
3.50691e-07
3.50692e-07
3.50692e-07
3.50693e-07
3.50693e-07
3.50693e-07
3.50694e-07
3.50694e-07
3.50695e-07
3.50695e-07
3.50695e-07
3.50695e-07
3.50696e-07
3.50696e-07
3.50696e-07
3.50696e-07
3.50697e-07
3.50697e-07
3.50697e-07
3.50697e-07
3.50697e-07
3.50698e-07
3.50698e-07
3.50698e-07
3.50698e-07
3.50698e-07
3.50698e-07
3.50698e-07
3.50699e-07
3.50699e-07
3.50699e-07
3.50699e-07
3.50699e-07
3.50699e-07
3.50699e-07
3.50699e-07
3.50699e-07
3.50699e-07
3.50699e-07
3.50699e-07
3.50699e-07
3.50699e-07
3.50699e-07
3.50699e-07
3.507e-07
3.507e-07
3.507e-07
3.507e-07
3.507e-07
3.507e-07
3.507e-07
3.507e-07
3.507e-07
3.507e-07
3.507e-07
3.507e-07
3.507e-07
3.507e-07
3.507e-07
3.507e-07
3.507e-07
3.507e-07
3.507e-07
3.507e-07
3.507e-07
3.507e-07
3.507e-07
3.507e-07
3.507e-07
3.507e-07
3.507e-07
3.507e-07
3.507e-07
3.507e-07
3.507e-07
3.507e-07
3.507e-07
3.507e-07
3.507e-07
3.507e-07
3.507e-07
3.507e-07
3.507e-07
3.507e-07
3.507e-07
3.507e-07
3.507e-07
3.507e-07
3.507e-07
3.507e-07
3.507e-07
3.507e-07
3.507e-07
3.507e-07
3.507e-07
3.507e-07
3.507e-07
3.507e-07
3.507e-07
3.507e-07
3.507e-07
3.507e-07
3.507e-07
3.507e-07
3.507e-07
3.507e-07
3.507e-07
3.507e-07
3.507e-07
3.507e-07
3.507e-07
3.507e-07
3.507e-07
3.507e-07
3.507e-07
3.507e-07
3.507e-07
3.507e-07
3.507e-07
3.507e-07
3.507e-07
3.507e-07
3.507e-07
3.507e-07
3.507e-07
3.507e-07
3.507e-07
3.507e-07
3.507e-07
3.507e-07
3.507e-07
3.50701e-07
3.50701e-07
3.50713e-07
3.50909e-07
3.69942e-07
3.69944e-07
3.69945e-07
3.69946e-07
3.69947e-07
3.69948e-07
3.69949e-07
3.6995e-07
3.6995e-07
3.69951e-07
3.69952e-07
3.69953e-07
3.69953e-07
3.69954e-07
3.69955e-07
3.69955e-07
3.69956e-07
3.69956e-07
3.69957e-07
3.69957e-07
3.69958e-07
3.69958e-07
3.69959e-07
3.69959e-07
3.69959e-07
3.6996e-07
3.6996e-07
3.6996e-07
3.69961e-07
3.69961e-07
3.69961e-07
3.69961e-07
3.69962e-07
3.69962e-07
3.69962e-07
3.69962e-07
3.69963e-07
3.69963e-07
3.69963e-07
3.69963e-07
3.69963e-07
3.69963e-07
3.69963e-07
3.69964e-07
3.69964e-07
3.69964e-07
3.69964e-07
3.69964e-07
3.69964e-07
3.69964e-07
3.69964e-07
3.69964e-07
3.69964e-07
3.69965e-07
3.69965e-07
3.69965e-07
3.69965e-07
3.69965e-07
3.69965e-07
3.69965e-07
3.69965e-07
3.69965e-07
3.69965e-07
3.69965e-07
3.69965e-07
3.69965e-07
3.69965e-07
3.69965e-07
3.69965e-07
3.69965e-07
3.69965e-07
3.69965e-07
3.69965e-07
3.69965e-07
3.69965e-07
3.69965e-07
3.69965e-07
3.69965e-07
3.69965e-07
3.69965e-07
3.69965e-07
3.69965e-07
3.69965e-07
3.69965e-07
3.69965e-07
3.69965e-07
3.69965e-07
3.69965e-07
3.69965e-07
3.69965e-07
3.69965e-07
3.69965e-07
3.69965e-07
3.69965e-07
3.69965e-07
3.69965e-07
3.69965e-07
3.69965e-07
3.69965e-07
3.69965e-07
3.69965e-07
3.69965e-07
3.69965e-07
3.69965e-07
3.69965e-07
3.69965e-07
3.69965e-07
3.69965e-07
3.69965e-07
3.69965e-07
3.69965e-07
3.69965e-07
3.69965e-07
3.69965e-07
3.69965e-07
3.69965e-07
3.69965e-07
3.69965e-07
3.69965e-07
3.69965e-07
3.69965e-07
3.69965e-07
3.69965e-07
3.69965e-07
3.69965e-07
3.69965e-07
3.69965e-07
3.69965e-07
3.69965e-07
3.69965e-07
3.69965e-07
3.69965e-07
3.69965e-07
3.69965e-07
3.69965e-07
3.69965e-07
3.69966e-07
3.69965e-07
3.69966e-07
3.69966e-07
3.69966e-07
3.69966e-07
3.69966e-07
3.69966e-07
3.69966e-07
3.69966e-07
3.69966e-07
3.69966e-07
3.69966e-07
3.69966e-07
3.69966e-07
3.69966e-07
3.69966e-07
3.69966e-07
3.69966e-07
3.69966e-07
3.69966e-07
3.69966e-07
3.69966e-07
3.69966e-07
3.69966e-07
3.69966e-07
3.69972e-07
3.70066e-07
3.78258e-07
3.78258e-07
3.78259e-07
3.7826e-07
3.7826e-07
3.7826e-07
3.78261e-07
3.78261e-07
3.78262e-07
3.78262e-07
3.78262e-07
3.78263e-07
3.78263e-07
3.78264e-07
3.78264e-07
3.78264e-07
3.78264e-07
3.78265e-07
3.78265e-07
3.78265e-07
3.78265e-07
3.78266e-07
3.78266e-07
3.78266e-07
3.78266e-07
3.78266e-07
3.78266e-07
3.78267e-07
3.78267e-07
3.78267e-07
3.78267e-07
3.78267e-07
3.78267e-07
3.78267e-07
3.78267e-07
3.78268e-07
3.78268e-07
3.78268e-07
3.78268e-07
3.78268e-07
3.78268e-07
3.78268e-07
3.78268e-07
3.78268e-07
3.78268e-07
3.78268e-07
3.78268e-07
3.78268e-07
3.78268e-07
3.78268e-07
3.78268e-07
3.78268e-07
3.78269e-07
3.78269e-07
3.78269e-07
3.78269e-07
3.78269e-07
3.78269e-07
3.78269e-07
3.78269e-07
3.78269e-07
3.78269e-07
3.78269e-07
3.78269e-07
3.78269e-07
3.78269e-07
3.78269e-07
3.78269e-07
3.78269e-07
3.78269e-07
3.78269e-07
3.78269e-07
3.78269e-07
3.78269e-07
3.78269e-07
3.78269e-07
3.78269e-07
3.78269e-07
3.78269e-07
3.78269e-07
3.78269e-07
3.78269e-07
3.78269e-07
3.78269e-07
3.78269e-07
3.78269e-07
3.78269e-07
3.78269e-07
3.78269e-07
3.78269e-07
3.78269e-07
3.78269e-07
3.78269e-07
3.78269e-07
3.78269e-07
3.78269e-07
3.78269e-07
3.78269e-07
3.78269e-07
3.78269e-07
3.78269e-07
3.78269e-07
3.78269e-07
3.78269e-07
3.78269e-07
3.78269e-07
3.78269e-07
3.78269e-07
3.78269e-07
3.78269e-07
3.78269e-07
3.78269e-07
3.78269e-07
3.78269e-07
3.78269e-07
3.78269e-07
3.78269e-07
3.78269e-07
3.78269e-07
3.78269e-07
3.78269e-07
3.78269e-07
3.78269e-07
3.78269e-07
3.78269e-07
3.78269e-07
3.78269e-07
3.78269e-07
3.78269e-07
3.78269e-07
3.78269e-07
3.78269e-07
3.78269e-07
3.78269e-07
3.78269e-07
3.78269e-07
3.78269e-07
3.78269e-07
3.78269e-07
3.78269e-07
3.78269e-07
3.78269e-07
3.78269e-07
3.78269e-07
3.78269e-07
3.78269e-07
3.78269e-07
3.78269e-07
3.78269e-07
3.78269e-07
3.78269e-07
3.78269e-07
3.78269e-07
3.78269e-07
3.78269e-07
3.78269e-07
3.78269e-07
3.78269e-07
3.78269e-07
3.78269e-07
3.78269e-07
3.78269e-07
3.78271e-07
3.78324e-07
3.81498e-07
3.81498e-07
3.81499e-07
3.81499e-07
3.81499e-07
3.81499e-07
3.815e-07
3.815e-07
3.815e-07
3.815e-07
3.815e-07
3.81501e-07
3.81501e-07
3.81501e-07
3.81501e-07
3.81501e-07
3.81501e-07
3.81501e-07
3.81502e-07
3.81502e-07
3.81502e-07
3.81502e-07
3.81502e-07
3.81502e-07
3.81502e-07
3.81502e-07
3.81502e-07
3.81502e-07
3.81502e-07
3.81503e-07
3.81503e-07
3.81503e-07
3.81503e-07
3.81503e-07
3.81503e-07
3.81503e-07
3.81503e-07
3.81503e-07
3.81503e-07
3.81503e-07
3.81503e-07
3.81503e-07
3.81503e-07
3.81503e-07
3.81503e-07
3.81503e-07
3.81503e-07
3.81503e-07
3.81503e-07
3.81503e-07
3.81503e-07
3.81503e-07
3.81503e-07
3.81503e-07
3.81503e-07
3.81503e-07
3.81503e-07
3.81503e-07
3.81503e-07
3.81503e-07
3.81503e-07
3.81503e-07
3.81503e-07
3.81503e-07
3.81503e-07
3.81503e-07
3.81503e-07
3.81504e-07
3.81504e-07
3.81504e-07
3.81504e-07
3.81504e-07
3.81504e-07
3.81504e-07
3.81504e-07
3.81504e-07
3.81504e-07
3.81504e-07
3.81504e-07
3.81504e-07
3.81504e-07
3.81504e-07
3.81504e-07
3.81504e-07
3.81504e-07
3.81504e-07
3.81504e-07
3.81504e-07
3.81504e-07
3.81504e-07
3.81504e-07
3.81504e-07
3.81504e-07
3.81504e-07
3.81504e-07
3.81504e-07
3.81504e-07
3.81504e-07
3.81504e-07
3.81504e-07
3.81504e-07
3.81504e-07
3.81504e-07
3.81504e-07
3.81504e-07
3.81504e-07
3.81504e-07
3.81504e-07
3.81504e-07
3.81504e-07
3.81504e-07
3.81504e-07
3.81504e-07
3.81504e-07
3.81504e-07
3.81504e-07
3.81504e-07
3.81504e-07
3.81504e-07
3.81504e-07
3.81504e-07
3.81504e-07
3.81504e-07
3.81504e-07
3.81504e-07
3.81504e-07
3.81504e-07
3.81504e-07
3.81504e-07
3.81503e-07
3.81504e-07
3.81503e-07
3.81504e-07
3.81503e-07
3.81504e-07
3.81503e-07
3.81504e-07
3.81504e-07
3.81504e-07
3.81504e-07
3.81504e-07
3.81504e-07
3.81504e-07
3.81504e-07
3.81504e-07
3.81504e-07
3.81504e-07
3.81504e-07
3.81504e-07
3.81504e-07
3.81504e-07
3.81504e-07
3.81504e-07
3.81504e-07
3.81504e-07
3.81504e-07
3.81504e-07
3.81504e-07
3.81504e-07
3.81504e-07
3.81504e-07
3.81504e-07
3.81504e-07
3.81582e-07
3.82656e-07
3.82656e-07
3.82656e-07
3.82656e-07
3.82656e-07
3.82657e-07
3.82657e-07
3.82657e-07
3.82657e-07
3.82657e-07
3.82657e-07
3.82657e-07
3.82657e-07
3.82657e-07
3.82657e-07
3.82658e-07
3.82658e-07
3.82658e-07
3.82658e-07
3.82658e-07
3.82658e-07
3.82658e-07
3.82658e-07
3.82658e-07
3.82658e-07
3.82658e-07
3.82658e-07
3.82658e-07
3.82658e-07
3.82658e-07
3.82658e-07
3.82658e-07
3.82658e-07
3.82658e-07
3.82659e-07
3.82659e-07
3.82659e-07
3.82659e-07
3.82659e-07
3.82659e-07
3.82659e-07
3.82659e-07
3.82659e-07
3.82659e-07
3.82659e-07
3.82659e-07
3.82659e-07
3.82659e-07
3.82659e-07
3.82659e-07
3.82659e-07
3.82659e-07
3.82659e-07
3.82659e-07
3.82659e-07
3.82659e-07
3.82659e-07
3.82659e-07
3.82659e-07
3.82659e-07
3.82659e-07
3.82659e-07
3.82659e-07
3.82659e-07
3.82659e-07
3.82659e-07
3.82659e-07
3.82659e-07
3.82659e-07
3.82659e-07
3.82659e-07
3.82659e-07
3.82659e-07
3.82659e-07
3.82659e-07
3.82659e-07
3.82659e-07
3.82659e-07
3.82659e-07
3.82659e-07
3.82659e-07
3.82659e-07
3.82659e-07
3.82659e-07
3.82659e-07
3.82659e-07
3.82659e-07
3.82659e-07
3.82659e-07
3.82659e-07
3.82659e-07
3.82659e-07
3.82659e-07
3.82659e-07
3.82659e-07
3.82659e-07
3.82659e-07
3.82659e-07
3.82659e-07
3.82659e-07
3.82659e-07
3.82659e-07
3.82659e-07
3.82659e-07
3.82659e-07
3.82659e-07
3.82659e-07
3.82659e-07
3.82659e-07
3.82659e-07
3.82659e-07
3.82659e-07
3.82659e-07
3.82659e-07
3.82659e-07
3.82659e-07
3.82659e-07
3.82659e-07
3.82659e-07
3.82659e-07
3.82659e-07
3.82659e-07
3.82659e-07
3.82659e-07
3.82659e-07
3.82659e-07
3.82659e-07
3.82659e-07
3.82659e-07
3.82659e-07
3.82659e-07
3.82659e-07
3.82659e-07
3.82659e-07
3.82659e-07
3.82659e-07
3.82659e-07
3.82659e-07
3.82659e-07
3.82659e-07
3.82659e-07
3.82659e-07
3.82659e-07
3.82659e-07
3.82659e-07
3.82659e-07
3.82659e-07
3.82659e-07
3.82659e-07
3.82659e-07
3.82659e-07
3.82659e-07
3.82659e-07
3.82659e-07
3.82659e-07
3.82659e-07
3.82659e-07
3.82659e-07
3.82659e-07
3.82659e-07
3.82659e-07
3.82659e-07
3.82659e-07
3.82881e-07
3.83034e-07
3.83034e-07
3.83034e-07
3.83035e-07
3.83035e-07
3.83035e-07
3.83035e-07
3.83035e-07
3.83035e-07
3.83035e-07
3.83035e-07
3.83035e-07
3.83035e-07
3.83035e-07
3.83035e-07
3.83035e-07
3.83035e-07
3.83036e-07
3.83036e-07
3.83036e-07
3.83036e-07
3.83036e-07
3.83036e-07
3.83036e-07
3.83036e-07
3.83036e-07
3.83036e-07
3.83036e-07
3.83036e-07
3.83036e-07
3.83036e-07
3.83036e-07
3.83036e-07
3.83036e-07
3.83036e-07
3.83036e-07
3.83036e-07
3.83036e-07
3.83036e-07
3.83036e-07
3.83036e-07
3.83036e-07
3.83036e-07
3.83036e-07
3.83036e-07
3.83036e-07
3.83036e-07
3.83036e-07
3.83036e-07
3.83036e-07
3.83036e-07
3.83036e-07
3.83036e-07
3.83036e-07
3.83036e-07
3.83036e-07
3.83036e-07
3.83036e-07
3.83036e-07
3.83036e-07
3.83036e-07
3.83036e-07
3.83036e-07
3.83036e-07
3.83036e-07
3.83036e-07
3.83036e-07
3.83036e-07
3.83036e-07
3.83036e-07
3.83036e-07
3.83036e-07
3.83036e-07
3.83036e-07
3.83036e-07
3.83036e-07
3.83036e-07
3.83036e-07
3.83036e-07
3.83036e-07
3.83036e-07
3.83036e-07
3.83036e-07
3.83036e-07
3.83036e-07
3.83036e-07
3.83036e-07
3.83036e-07
3.83036e-07
3.83036e-07
3.83036e-07
3.83036e-07
3.83036e-07
3.83036e-07
3.83036e-07
3.83036e-07
3.83036e-07
3.83036e-07
3.83036e-07
3.83036e-07
3.83036e-07
3.83036e-07
3.83036e-07
3.83036e-07
3.83036e-07
3.83036e-07
3.83036e-07
3.83036e-07
3.83036e-07
3.83036e-07
3.83036e-07
3.83036e-07
3.83036e-07
3.83036e-07
3.83036e-07
3.83036e-07
3.83036e-07
3.83036e-07
3.83036e-07
3.83036e-07
3.83036e-07
3.83036e-07
3.83036e-07
3.83036e-07
3.83036e-07
3.83036e-07
3.83036e-07
3.83036e-07
3.83037e-07
3.83036e-07
3.83037e-07
3.83036e-07
3.83037e-07
3.83036e-07
3.83037e-07
3.83036e-07
3.83037e-07
3.83036e-07
3.83037e-07
3.83036e-07
3.83037e-07
3.83036e-07
3.83037e-07
3.83036e-07
3.83037e-07
3.83036e-07
3.83037e-07
3.83036e-07
3.83037e-07
3.83036e-07
3.83037e-07
3.83037e-07
3.83036e-07
3.83037e-07
3.83036e-07
3.83037e-07
3.83036e-07
3.83037e-07
3.83036e-07
3.83037e-07
3.83036e-07
3.83036e-07
3.83036e-07
3.83614e-07
3.83184e-07
3.83184e-07
3.83184e-07
3.83184e-07
3.83184e-07
3.83184e-07
3.83184e-07
3.83184e-07
3.83184e-07
3.83184e-07
3.83184e-07
3.83185e-07
3.83185e-07
3.83185e-07
3.83185e-07
3.83185e-07
3.83185e-07
3.83185e-07
3.83185e-07
3.83185e-07
3.83185e-07
3.83185e-07
3.83185e-07
3.83185e-07
3.83185e-07
3.83185e-07
3.83185e-07
3.83185e-07
3.83185e-07
3.83185e-07
3.83185e-07
3.83185e-07
3.83185e-07
3.83185e-07
3.83185e-07
3.83185e-07
3.83185e-07
3.83185e-07
3.83186e-07
3.83186e-07
3.83186e-07
3.83186e-07
3.83186e-07
3.83186e-07
3.83186e-07
3.83186e-07
3.83186e-07
3.83186e-07
3.83186e-07
3.83186e-07
3.83186e-07
3.83186e-07
3.83186e-07
3.83186e-07
3.83186e-07
3.83186e-07
3.83186e-07
3.83186e-07
3.83186e-07
3.83186e-07
3.83186e-07
3.83186e-07
3.83186e-07
3.83186e-07
3.83186e-07
3.83186e-07
3.83186e-07
3.83186e-07
3.83186e-07
3.83186e-07
3.83186e-07
3.83186e-07
3.83186e-07
3.83186e-07
3.83186e-07
3.83186e-07
3.83186e-07
3.83186e-07
3.83186e-07
3.83186e-07
3.83186e-07
3.83186e-07
3.83186e-07
3.83186e-07
3.83186e-07
3.83186e-07
3.83186e-07
3.83186e-07
3.83186e-07
3.83186e-07
3.83186e-07
3.83186e-07
3.83186e-07
3.83186e-07
3.83186e-07
3.83186e-07
3.83186e-07
3.83186e-07
3.83186e-07
3.83186e-07
3.83186e-07
3.83186e-07
3.83186e-07
3.83186e-07
3.83186e-07
3.83186e-07
3.83186e-07
3.83186e-07
3.83186e-07
3.83186e-07
3.83186e-07
3.83186e-07
3.83186e-07
3.83186e-07
3.83186e-07
3.83186e-07
3.83186e-07
3.83186e-07
3.83186e-07
3.83186e-07
3.83186e-07
3.83186e-07
3.83186e-07
3.83186e-07
3.83186e-07
3.83186e-07
3.83186e-07
3.83186e-07
3.83186e-07
3.83186e-07
3.83186e-07
3.83186e-07
3.83186e-07
3.83186e-07
3.83186e-07
3.83186e-07
3.83186e-07
3.83186e-07
3.83186e-07
3.83186e-07
3.83186e-07
3.83186e-07
3.83186e-07
3.83186e-07
3.83186e-07
3.83186e-07
3.83186e-07
3.83186e-07
3.83186e-07
3.83186e-07
3.83186e-07
3.83186e-07
3.83186e-07
3.83186e-07
3.83186e-07
3.83186e-07
3.83186e-07
3.83186e-07
3.83186e-07
3.83186e-07
3.83186e-07
3.83186e-07