/*--------------------------------*- C++ -*----------------------------------*\
| =========                 |                                                 |
| \\      /  F ield         | OpenFOAM: The Open Source CFD Toolbox           |
|  \\    /   O peration     | Version:  v1912                                 |
|   \\  /    A nd           | Website:  www.openfoam.com                      |
|    \\/     M anipulation  |                                                 |
\*---------------------------------------------------------------------------*/
FoamFile
{
    version     2.0;
    format      ascii;
    class       surfaceScalarField;
    location    "40";
    object      alphaPhi0.water;
}
// * * * * * * * * * * * * * * * * * * * * * * * * * * * * * * * * * * * * * //

dimensions      [0 3 -1 0 0 0 0];
oriented        oriented;


internalField   nonuniform List<scalar> 
28285
(
0.093428
-0.0103512
0.1017
-0.00827205
0.107392
-0.00569207
0.110175
-0.00278314
0.109731
0.000444624
0.10629
0.00344072
0.10019
0.00610016
0.0919831
0.00820667
0.0823317
0.00965144
0.0719155
0.0104162
0.0613547
0.0105607
0.0511431
0.0102117
0.0415997
0.00954334
0.032848
0.00875168
0.0248225
0.00802555
0.017303
0.00751944
0.00996995
0.0073331
0.00244764
0.00752231
-0.0055411
0.00798874
-0.0143007
0.00875956
-0.0238892
0.00958854
-0.0342246
0.0103354
-0.0450611
0.0108364
-0.0560085
0.0109474
-0.0665724
0.0105639
-0.0762033
0.00963094
-0.0843471
0.00814383
-0.0904841
0.00613691
-0.0941759
0.00369183
-0.0951365
0.000960599
-0.0931235
-0.00201303
-0.0882627
-0.00486078
-0.0806965
-0.00756613
-0.0706755
-0.0100211
-0.0585388
-0.0121367
-0.0446995
-0.0138393
-0.0296338
-0.0150657
-0.0138851
-0.0157487
0.00196111
-0.0158462
0.0174467
-0.0154856
0.031956
-0.0145093
0.044947
-0.0129909
0.0559422
-0.0109953
0.0645637
-0.00862145
0.0705658
-0.00600209
0.0738547
-0.00328892
0.0744998
-0.000645113
0.0726996
0.00180024
0.0688457
0.00385389
0.0633431
0.00550256
0.0566871
0.00665597
0.0493617
0.00732541
0.0417
0.00766177
0.0338837
0.00781629
0.0259479
0.00793581
0.017798
0.00814986
0.00924538
0.00855262
4.95225e-05
0.00919586
-0.0097702
0.00981972
-0.0204359
0.0106657
-0.0318069
0.011371
-0.0435418
0.0117349
-0.0550678
0.011526
-0.0657463
0.0106785
-0.0748852
0.00913883
-0.0818125
0.00692737
-0.0859709
0.00415836
-0.0870484
0.00107752
-0.0848496
-0.00219882
-0.0795627
-0.00528685
-0.0715834
-0.00797933
-0.0614883
-0.0100951
-0.0499573
-0.011531
-0.0376798
-0.0122775
-0.0252711
-0.0124087
-0.0132124
-0.0120587
-0.0017782
-0.0114342
0.00899459
-0.0107728
0.0191499
-0.0101553
0.0288228
-0.00967291
0.0381725
-0.00934971
0.0473166
-0.00914406
0.0562686
-0.00895203
0.0649031
-0.00863444
0.0729597
-0.00805663
0.0800732
-0.00711347
0.0858246
-0.00575141
0.0898055
-0.00398091
0.0916801
-0.00187466
0.0912198
0.000460287
0.0884242
0.0027956
0.083376
0.00504825
0.0763344
0.00704156
0.0676653
0.00866913
0.0577882
0.00987705
0.0471269
0.0106613
0.0360728
0.0110541
0.0249602
0.0111126
0.0140105
0.0109497
0.0033585
0.010652
-0.00696484
0.0103233
-0.0168637
0.00989886
-0.0262633
0.00939965
-0.0350672
0.00880383
-0.0431413
0.00807411
-0.050312
0.00717076
-0.056384
0.00607196
-0.0611655
0.00478147
-0.0644997
0.00333427
-0.0663055
0.00180576
-0.0665709
0.000265359
-0.06539
-0.00118092
-0.0629766
-0.00241335
-0.059621
-0.00335557
-0.0556741
-0.00394697
-0.0515158
-0.00415829
-0.0474969
-0.00401883
-0.0438982
-0.0035987
-0.0409049
-0.00299336
-0.0385914
-0.00231349
-0.0369197
-0.0016717
-0.035751
-0.00116871
-0.0348679
-0.000883099
-0.0339899
-0.000877993
-0.0328097
-0.00118014
-0.0310611
-0.00174861
-0.0285059
-0.00255528
-0.0249607
-0.00354511
-0.0203098
-0.00465095
-0.0145151
-0.00579464
-0.007611
-0.00690415
0.000282543
-0.00789354
0.00905233
-0.00876979
0.0184712
-0.00941883
0.0282945
-0.00982337
0.0382538
-0.00995931
0.0480481
-0.0097943
0.0573536
-0.0093055
0.0658303
-0.00847661
0.0731305
-0.0073002
0.0789227
-0.00579221
0.0829064
-0.00398375
0.0848325
-0.0019261
0.0845152
0.000317294
0.0820775
0.00243769
0.0774992
0.00457839
0.0710116
0.00648759
0.062962
0.00804959
0.0537787
0.00918327
0.0439322
0.00984649
0.0338869
0.0100453
0.024062
0.00982497
0.0147973
0.00926465
0.00632391
0.00847341
-0.0012699
0.00759381
-0.00801088
0.00674098
-0.0140523
0.00604141
-0.0196194
0.0055671
-0.0249792
0.00535981
-0.0303554
0.00537622
-0.035873
0.00551762
-0.0415241
0.00565109
-0.047151
0.00562687
0.00532195
0.0935602
-0.0205742
0.1017
-0.0164122
0.107246
-0.0112375
0.109891
-0.0054285
0.109416
0.000919986
0.106019
0.00683744
0.100001
0.0121178
0.0918697
0.0163384
0.0822604
0.0192607
0.0718542
0.0208223
0.0612858
0.0211292
0.0510645
0.020433
0.0415213
0.0190865
0.032785
0.017488
0.0247888
0.0160217
0.0173067
0.0150016
0.0100121
0.0146277
0.00252376
0.0150106
-0.00542919
0.0159417
-0.0141829
0.0175133
-0.0237819
0.0191876
-0.0341402
0.0206937
-0.0450026
0.0216988
-0.0559648
0.0219097
-0.0665145
0.0211135
-0.076084
0.0192005
-0.0841127
0.0161725
-0.0901091
0.0121333
-0.093824
0.00740677
-0.0947164
0.00185292
-0.0927472
-0.00398221
-0.0879475
-0.00966049
-0.0804384
-0.0150752
-0.0704645
-0.0199949
-0.0583704
-0.0242308
-0.0445801
-0.0276296
-0.0295744
-0.0300714
-0.013864
-0.0314591
0.00201237
-0.0317226
0.0175348
-0.0310081
0.0320814
-0.0290558
0.0451038
-0.0260134
0.0561205
-0.022012
0.0647487
-0.0172497
0.070741
-0.0119944
0.0740054
-0.00655337
0.0746215
-0.00126115
0.0726612
0.0037605
0.0686833
0.00783184
0.0631694
0.0110164
0.0565781
0.0132473
0.0492992
0.0146043
0.0416621
0.0152988
0.0338645
0.015614
0.0259503
0.0158499
0.0178271
0.0162731
0.00930961
0.0170701
0.000178782
0.0183267
-0.00964253
0.019641
-0.0202949
0.0213181
-0.0316431
0.0227192
-0.0433768
0.0234685
-0.0549999
0.0231491
-0.0657789
0.0214575
-0.0750114
0.0183714
-0.0820216
0.0139375
-0.0862399
0.00837665
-0.0873607
0.00219838
-0.0851487
-0.00441082
-0.0798235
-0.010612
-0.0717839
-0.016019
-0.061617
-0.020262
-0.0500172
-0.0231308
-0.0376832
-0.0246115
-0.0252263
-0.0248656
-0.0131348
-0.0241501
-0.00168933
-0.0228797
0.00904792
-0.02151
0.0191607
-0.0202681
0.0287728
-0.0192849
0.0380662
-0.0186432
0.0471958
-0.0182736
0.056174
-0.0179303
0.0648521
-0.0173125
0.0729623
-0.0161669
0.0801352
-0.0142863
0.0859447
-0.011561
0.0899749
-0.00801111
0.091885
-0.00378473
0.0914266
0.000918736
0.088627
0.00559516
0.0835533
0.010122
0.0764738
0.014121
0.0677625
0.0173805
0.0578448
0.0197948
0.0471495
0.0213567
0.0360794
0.0221241
0.024953
0.022239
0.0139896
0.0219131
0.00332389
0.0213178
-0.00699842
0.0206456
-0.0168936
0.019794
-0.0262938
0.0187999
-0.0351066
0.0176167
-0.0431989
0.0161664
-0.0503941
0.0143659
-0.056493
0.0121708
-0.061299
0.00958755
-0.0646496
0.00668486
-0.0664723
0.0036285
-0.0667278
0.000520857
-0.065526
-0.00238272
-0.0630821
-0.00485726
-0.0596917
-0.00674603
-0.0557101
-0.00792852
-0.0515112
-0.0083572
-0.0474552
-0.00807486
-0.0438305
-0.00722341
-0.0408255
-0.00599833
-0.0385151
-0.00462387
-0.036859
-0.00332788
-0.0357131
-0.00231459
-0.0348527
-0.00174347
-0.0340029
-0.0017278
-0.032866
-0.00231701
-0.0311564
-0.00345828
-0.0286317
-0.00507991
-0.0251074
-0.00706939
-0.0204665
-0.00929185
-0.014671
-0.0115902
-0.00775598
-0.0138192
0.000162723
-0.0158122
0.00894957
-0.0175566
0.0183866
-0.0188559
0.0282454
-0.0196821
0.038244
-0.0199579
0.0480798
-0.0196301
0.057429
-0.0186547
0.0659504
-0.016998
0.0732943
-0.0146442
0.0791262
-0.0116241
0.0831422
-0.00799975
0.0850911
-0.00387495
0.0847766
0.00063175
0.0823373
0.00487704
0.0777413
0.00917438
0.0712223
0.0130066
0.0631292
0.0161427
0.0538934
0.018419
0.04399
0.0197499
0.0338891
0.0201462
0.0240159
0.0196982
0.014716
0.0185645
0.00622272
0.0169667
-0.00136842
0.015185
-0.00807842
0.013451
-0.0140838
0.0120468
-0.0196249
0.0111082
-0.0249596
0.0106945
-0.0303209
0.0107375
-0.0358428
0.0110396
-0.0415183
0.0113266
-0.0471882
0.0112967
0.0107022
0.094117
-0.030905
0.102358
-0.024653
0.107981
-0.0168602
0.110635
-0.00808338
0.110119
0.00143629
0.10663
0.0103265
0.100474
0.018274
0.0921812
0.024631
0.0824092
0.0290327
0.0718554
0.0313762
0.0611696
0.0318149
0.050874
0.0307286
0.0413065
0.028654
0.0325954
0.0261991
0.0246659
0.0239512
0.0172764
0.0223911
0.0100858
0.0218183
0.00267822
0.0224182
-0.00520956
0.0238295
-0.0139422
0.026246
-0.0235634
0.0288087
-0.0339867
0.031117
-0.0449492
0.0326613
-0.0560343
0.0329948
-0.0667166
0.0317958
-0.0764181
0.028902
-0.084571
0.0243254
-0.0906747
0.018237
-0.0944033
0.0111354
-0.0952978
0.00274744
-0.0933046
-0.00597545
-0.0884609
-0.0145042
-0.0809016
-0.0226346
-0.0708744
-0.0300221
-0.0587187
-0.0363865
-0.0448482
-0.0415
-0.029735
-0.0451846
-0.0138956
-0.0472985
0.00212526
-0.0477435
0.0177883
-0.0466711
0.0324683
-0.0437358
0.0456058
-0.0391508
0.0567086
-0.0331148
0.0653828
-0.0259239
0.0713687
-0.0179803
0.0745651
-0.00974973
0.0750903
-0.00178635
0.0729798
0.00587095
0.0689631
0.0118486
0.0633797
0.0165998
0.0566968
0.0199302
0.049348
0.0219531
0.0416746
0.0229723
0.0338769
0.0234116
0.0259963
0.0237306
0.0179303
0.0243391
0.00947975
0.0255207
0.000418494
0.027388
-0.00939422
0.0294537
-0.0200673
0.0319912
-0.0314748
0.0341268
-0.0432995
0.0352932
-0.0550589
0.0349085
-0.0660817
0.0324804
-0.0755287
0.0278183
-0.0827138
0.0211227
-0.087075
0.0127378
-0.0882302
0.00335359
-0.0859831
-0.00665789
-0.0805523
-0.0160429
-0.0723529
-0.0242184
-0.0619952
-0.0306197
-0.0502013
-0.0349248
-0.0376903
-0.0371225
-0.0251082
-0.0374477
-0.0129495
-0.0363089
-0.0014966
-0.0343326
0.00919835
-0.032205
0.0192126
-0.0302824
0.0287246
-0.0287969
0.0379674
-0.027886
0.0470788
-0.0273849
0.0560928
-0.0269444
0.0648894
-0.0261091
0.0731411
-0.0244186
0.0804517
-0.0215968
0.086389
-0.0174984
0.0905225
-0.0121446
0.0924986
-0.00576082
0.0920508
0.00136658
0.0892235
0.00842246
0.0840775
0.015268
0.0768938
0.0213047
0.0680588
0.0262154
0.0580105
0.0298431
0.0472124
0.0321548
0.0360787
0.0332578
0.0249071
0.0334106
0.0139135
0.0329067
0.00322928
0.032002
-0.00710557
0.0309805
-0.0170101
0.0296986
-0.026428
0.0282177
-0.0352751
0.0264638
-0.0434175
0.0243088
-0.0506713
0.0216198
-0.0568296
0.0183291
-0.0616859
0.0144438
-0.0650662
0.0100652
-0.0669079
0.00547024
-0.0671313
0.000744201
-0.0658731
-0.00364085
-0.0633472
-0.00738316
-0.059856
-0.0102372
-0.0557676
-0.0120169
-0.0514704
-0.0126544
-0.0473347
-0.0122105
-0.0436573
-0.0109009
-0.0406312
-0.00902439
-0.0383321
-0.006923
-0.0367162
-0.00494375
-0.0356332
-0.0033976
-0.03485
-0.00252671
-0.0340828
-0.00249497
-0.0330273
-0.00337255
-0.0313896
-0.00509592
-0.0289208
-0.00754876
-0.025432
-0.0105582
-0.0208043
-0.0139196
-0.0150001
-0.0173944
-0.00805577
-0.0207635
-5.57063e-05
-0.0238123
0.00875533
-0.0263677
0.0182594
-0.02836
0.0281969
-0.0296196
0.0382825
-0.0300434
0.0482118
-0.0295594
0.0576592
-0.0281022
0.0662806
-0.0256194
0.0737213
-0.0220848
0.0796393
-0.0175421
0.0837232
-0.0120836
0.0857122
-0.00586395
0.0854075
0.000936419
0.0829424
0.00734217
0.078286
0.0138308
0.0716736
0.019619
0.0634619
0.0243543
0.0540936
0.0277873
0.0440562
0.0297873
0.0338325
0.03037
0.0238594
0.0296713
0.0144921
0.0279318
0.00596934
0.0254895
-0.00160823
0.0227625
-0.00827039
0.0201131
-0.014208
0.0179845
-0.0196805
0.0165806
-0.024959
0.015973
-0.0302911
0.0160697
-0.035816
0.0165644
-0.0415351
0.0170458
-0.0472882
0.0170497
0.0161951
0.0949967
-0.0414649
0.103436
-0.0330925
0.109195
-0.022619
0.111887
-0.0107757
0.111317
0.00200687
0.107685
0.0139577
0.101309
0.0246504
0.0927496
0.0331904
0.0826997
0.0390826
0.0718911
0.0421848
0.061003
0.042703
0.0505786
0.0411531
0.0409659
0.0382667
0.0322906
0.0348744
0.024464
0.0317778
0.0172242
0.0296309
0.0101931
0.0288494
0.00291257
0.0296987
-0.00488033
0.0316224
-0.0135778
0.0349435
-0.0232329
0.0384638
-0.0337606
0.0416447
-0.0448873
0.043788
-0.0561786
0.0442861
-0.0670874
0.0427047
-0.0770144
0.0388289
-0.0853729
0.0326838
-0.0916529
0.0245171
-0.095476
0.0149585
-0.0964252
0.00369671
-0.0944281
-0.00797255
-0.08953
-0.0194023
-0.0818731
-0.0302916
-0.071713
-0.0401821
-0.0593962
-0.0487034
-0.0453412
-0.055555
-0.0300226
-0.0605032
-0.0139606
-0.0633605
0.00229537
-0.0639995
0.0181849
-0.0625607
0.0330733
-0.0586243
0.0463798
-0.0524572
0.0575914
-0.0443265
0.0662982
-0.0346307
0.0722485
-0.0239305
0.0753898
-0.0128911
0.0758295
-0.00222603
0.0737275
0.00797293
0.0695588
0.0160173
0.0637939
0.0223648
0.0569395
0.0267846
0.04946
0.0294326
0.0417138
0.0307184
0.0339064
0.031219
0.0260723
0.0315647
0.0180917
0.0323196
0.00974018
0.0338722
0.00076741
0.0363607
-0.00902621
0.0392474
-0.0197436
0.0427086
-0.0312699
0.0456531
-0.0432815
0.0473048
-0.0552586
0.0468856
-0.0665546
0.0437764
-0.0763525
0.0376162
-0.0838139
0.028584
-0.088393
0.0173169
-0.0895945
0.00455513
-0.0872881
-0.0089643
-0.0816911
-0.0216399
-0.0732416
-0.0326679
-0.0625844
-0.0412768
-0.050485
-0.0470242
-0.0377008
-0.0499067
-0.024925
-0.0502235
-0.0126615
-0.0485724
-0.00119971
-0.0457944
0.00944969
-0.0428544
0.0193747
-0.0402074
0.0288097
-0.0382319
0.0379866
-0.0370629
0.0470734
-0.0364717
0.0561124
-0.0359834
0.0649905
-0.0349872
0.0734329
-0.032861
0.0809582
-0.0291222
0.0870911
-0.0236313
0.0913803
-0.0164337
0.0934524
-0.00783291
0.0930224
0.00179655
0.0901465
0.0112984
0.0848831
0.0205313
0.0775279
0.0286599
0.0684857
0.0352576
0.0582498
0.040079
0.0473188
0.0430858
0.0360783
0.0444983
0.0248317
0.0446572
0.013792
0.0439464
0.00308523
0.0427087
-0.0072393
0.041305
-0.0171315
0.0395908
-0.0265825
0.0376687
-0.0355064
0.0353877
-0.0437408
0.0325432
-0.051091
0.0289699
-0.0573429
0.024581
-0.0622777
0.0193786
-0.0657055
0.0134929
-0.0675743
0.00733905
-0.0677477
0.000917665
-0.0664042
-0.00498441
-0.0637529
-0.0100345
-0.0601053
-0.0138849
-0.0558511
-0.0162711
-0.0514033
-0.0171023
-0.0471469
-0.0164669
-0.0433902
-0.0146576
-0.0403327
-0.0120819
-0.038051
-0.00920477
-0.0364963
-0.00649844
-0.0355088
-0.00438507
-0.0348433
-0.0031922
-0.0342015
-0.00313682
-0.0332689
-0.00430511
-0.0317394
-0.00662545
-0.0293537
-0.00993448
-0.0259174
-0.0139944
-0.0213084
-0.0185286
-0.0154908
-0.023212
-0.00850616
-0.0277482
-0.000453698
-0.0318648
0.0084633
-0.0352847
0.018072
-0.0379687
0.0281268
-0.0396744
0.0383408
-0.0402575
0.0484079
-0.0396265
0.0580002
-0.0376945
0.066769
-0.0343882
0.0743517
-0.0296675
0.080396
-0.0235865
0.0845787
-0.0162662
0.0866296
-0.00791489
0.0863356
0.00123048
0.0838359
0.0098418
0.0790936
0.0185731
0.0723459
0.0263667
0.0639604
0.0327398
0.0543963
0.0373515
0.0441592
0.0400243
0.0337509
0.0407783
0.0236263
0.0397959
0.0141556
0.0374024
0.00558738
0.0340577
-0.00197025
0.0303202
-0.00855922
0.0267021
-0.0143886
0.0238138
-0.0197538
0.0219458
-0.0249517
0.0211708
-0.0302337
0.0213516
-0.0357616
0.0220924
-0.041548
0.0228322
-0.0474263
0.0229281
0.0218547
0.0961873
-0.0523605
0.104914
-0.0418197
0.110867
-0.0285717
0.113623
-0.0135314
0.11298
0.00264938
0.109156
0.0177817
0.102478
0.0313284
0.0935504
0.0421185
0.0831135
0.0495196
0.0719482
0.05335
0.0607763
0.0538749
0.0501707
0.0517586
0.0404937
0.0479438
0.0318676
0.0435005
0.0241842
0.0394611
0.0171617
0.0366535
0.0103361
0.035675
0.00323199
0.0368028
-0.004435
0.0392894
-0.0130807
0.0435892
-0.0227814
0.0481645
-0.0334534
0.0523167
-0.0448085
0.0551432
-0.0563874
0.055865
-0.0676128
0.05393
-0.0778538
0.0490699
-0.0864957
0.0413258
-0.0930128
0.0310342
-0.0969835
0.0189292
-0.0980122
0.00472539
-0.0960105
-0.00997427
-0.091037
-0.0243757
-0.0832434
-0.0380852
-0.072896
-0.0505295
-0.0603508
-0.0612486
-0.0460348
-0.069871
-0.0304287
-0.0761093
-0.0140583
-0.0797308
0.00251982
-0.0805776
0.0186875
-0.0787284
0.0338041
-0.0737409
0.0473158
-0.0659689
0.0587179
-0.0557286
0.0675856
-0.0434984
0.0736407
-0.0299856
0.0767784
-0.0160288
0.0770952
-0.00254283
0.0748284
0.0102397
0.0704192
0.0204265
0.0643885
0.0283955
0.0572898
0.0338833
0.0496235
0.0370989
0.0417714
0.0385705
0.0339465
0.0390439
0.0261742
0.039337
0.01831
0.0401839
0.0100927
0.0420894
0.00123092
0.0452225
-0.00853108
0.0490094
-0.019313
0.0534905
-0.0310118
0.0573518
-0.0432988
0.0595919
-0.0556235
0.0592103
-0.0672747
0.0554276
-0.0774838
0.0478253
-0.0853535
0.0364537
-0.0901978
0.0221613
-0.0914671
0.00582436
-0.0890776
-0.0113537
-0.0832525
-0.027465
-0.0744597
-0.0414608
-0.0633901
-0.0523463
-0.0508696
-0.0595448
-0.0377179
-0.0630583
-0.0246737
-0.0632676
-0.0122641
-0.060982
-0.000792403
-0.0572661
0.00981118
-0.053458
0.0196323
-0.0500285
0.0289495
-0.0475492
0.0380393
-0.0461526
0.0471051
-0.0455376
0.0562052
-0.0450835
0.0652178
-0.0439997
0.0738537
-0.0414969
0.0816622
-0.0369307
0.0880614
-0.0300304
0.0925602
-0.0209325
0.0947582
-0.010031
0.094357
0.0021978
0.0914039
0.0142515
0.0859653
0.0259699
0.0783567
0.0362685
0.0690616
0.0445527
0.0586141
0.0505265
0.047485
0.0542148
0.036085
0.0558983
0.0247282
0.056014
0.0136229
0.0550517
0.00288436
0.0534473
-0.00743498
0.0516244
-0.0173463
0.0495022
-0.0268192
0.0471415
-0.0357896
0.0443581
-0.0441385
0.0408921
-0.0516473
0.0364787
-0.0580403
0.030974
-0.0630883
0.0244267
-0.0665906
0.0169952
-0.0684768
0.00922528
-0.0685879
0.00102869
-0.0671289
-0.00644336
-0.0643063
-0.012857
-0.0604436
-0.0177476
-0.0559629
-0.0207517
-0.0513086
-0.0217566
-0.0468872
-0.0208882
-0.0430223
-0.0185225
-0.0399222
-0.0151819
-0.0376646
-0.0114624
-0.0361942
-0.00796883
-0.0353384
-0.00524085
-0.0348351
-0.00369555
-0.0343668
-0.00360513
-0.0336008
-0.00507108
-0.032216
-0.00801022
-0.0299408
-0.0122097
-0.0265737
-0.0173615
-0.0219884
-0.0231139
-0.0161521
-0.0290483
-0.00911183
-0.0347885
-0.000971962
-0.0400046
0.00807312
-0.0443298
0.0178259
-0.0477215
0.0280393
-0.0498878
0.038426
-0.0506441
0.0486784
-0.0498789
0.0584659
-0.0474821
0.0674342
-0.0433565
0.0752092
-0.0374424
0.0814224
-0.0297997
0.0857349
-0.0205787
0.0878636
-0.0100436
0.0875854
0.00150861
0.0850423
0.0123849
0.0801843
0.0234311
0.073251
0.0333
0.0646262
0.0413646
0.054793
0.0471847
0.0442829
0.0505344
0.0336233
0.0514379
0.023294
0.0501252
0.0136849
0.0470115
0.00505755
0.0426851
-0.0024701
0.0378478
-0.00896074
0.0331927
-0.0146477
0.0295008
-0.0198678
0.0271659
-0.0249362
0.0262393
-0.0301437
0.0265591
-0.0356776
0.0276263
-0.041556
0.0287106
-0.047606
0.0289781
0.0277437
0.0976909
-0.0636984
0.106796
-0.0509252
0.113005
-0.0347801
0.11585
-0.0163767
0.115116
0.0033833
0.111046
0.0218521
0.10398
0.0383938
0.0945773
0.0515216
0.0836403
0.0604566
0.0720137
0.0649766
0.0604744
0.0654142
0.049635
0.0625981
0.039876
0.0577028
0.0313158
0.0520607
0.0238229
0.046954
0.0170775
0.043399
0.010515
0.0422375
0.00364387
0.043674
-0.00386424
0.0467975
-0.0124369
0.0521618
-0.0221947
0.0579223
-0.0330524
0.0631744
-0.0447026
0.0667934
-0.0566533
0.0678157
-0.0682871
0.0655638
-0.0789323
0.0597151
-0.0879372
0.0503306
-0.0947533
0.0378504
-0.0989208
0.0230967
-0.100049
0.00585394
-0.0980402
-0.0119834
-0.0929689
-0.029447
-0.0849992
-0.0460549
-0.0744111
-0.0611176
-0.0615734
-0.0740862
-0.0469237
-0.0845208
-0.0309509
-0.0920821
-0.0141893
-0.0964925
0.0027941
-0.097561
0.0192999
-0.0952342
0.0347969
-0.0892378
0.0486721
-0.0798441
0.0603672
-0.0674237
0.0694286
-0.0525599
0.0755574
-0.0361144
0.0786385
-0.0191099
0.0787822
-0.00268648
0.0762673
0.0127546
0.0715296
0.0251642
0.0651503
0.0347748
0.0577333
0.0413003
0.0498235
0.0450087
0.041833
0.046561
0.0339851
0.0468918
0.0262938
0.0470283
0.018582
0.0478956
0.0105403
0.0501311
0.0018199
0.053943
-0.00789603
0.0587253
-0.0187589
0.0643533
-0.0306811
0.069274
-0.0433283
0.0722391
-0.0561151
0.0719971
-0.0682697
0.0675823
-0.0789637
0.0585192
-0.0873595
0.0448495
-0.0925001
0.0273018
-0.0938652
0.0071895
-0.0913691
-0.0138499
-0.0852516
-0.0335824
-0.0760171
-0.0506953
-0.0644148
-0.0639486
-0.0513511
-0.0726085
-0.0377285
-0.0766809
-0.0243394
-0.0766568
-0.0117421
-0.0735793
-0.000273823
-0.0687344
0.0102913
-0.0640231
0.0199702
-0.0597073
0.0291306
-0.0567096
0.0381068
-0.0551288
0.0471471
-0.0545779
0.0563321
-0.0542685
0.0655344
-0.053202
0.0744312
-0.0503937
0.082557
-0.0450565
0.0892978
-0.0367712
0.094062
-0.0256968
0.0964159
-0.0123849
0.0960447
0.00256902
0.0929728
0.0173234
0.0872971
0.0316456
0.0794178
0.0441478
0.0698427
0.0541278
0.0590983
0.0612709
0.0477015
0.0656116
0.0360911
0.0675088
0.0245906
0.0675145
0.0134017
0.0662407
0.00262734
0.0642216
-0.00772329
0.061975
-0.0176651
0.059444
-0.0271897
0.0566661
-0.0362382
0.0534066
-0.0446828
0.0493368
-0.0523339
0.0441297
-0.0589198
0.03756
-0.0641219
0.0296288
-0.0677255
0.0205988
-0.0696227
0.0111225
-0.0696602
0.00106617
-0.0680532
-0.00805032
-0.0650114
-0.0158988
-0.0608718
-0.0218873
-0.0561013
-0.0255222
-0.051182
-0.026676
-0.046549
-0.0255212
-0.0425456
-0.022526
-0.0393913
-0.0183362
-0.0371651
-0.0136885
-0.035803
-0.00933094
-0.0351174
-0.00592646
-0.0348221
-0.00399088
-0.0345762
-0.00385101
-0.0340233
-0.00562399
-0.0328221
-0.00921138
-0.0306862
-0.0143456
-0.0274055
-0.0206423
-0.0228487
-0.0276707
-0.0169881
-0.0349088
-0.00987515
-0.0419014
-0.0016171
-0.0482627
0.00758405
-0.0535309
0.0175185
-0.0576559
0.0279311
-0.0603004
0.0385334
-0.0612465
0.0490178
-0.0603633
0.0590502
-0.0575144
0.0682669
-0.0525732
0.0762765
-0.045452
0.0826876
-0.0362109
0.0871486
-0.0250397
0.0893763
-0.0122712
0.0891252
0.00175963
0.0865509
0.0149592
0.0815588
0.0284232
0.0743941
0.0404646
0.0654658
0.050293
0.0552895
0.057361
0.0444302
0.0613937
0.0334491
0.062419
0.0228576
0.0607167
0.0130715
0.0567977
0.00436997
0.0513866
-0.00311529
0.0453331
-0.00947695
0.0395544
-0.0149789
0.0350027
-0.019995
0.032182
-0.0248984
0.0311426
-0.0300107
0.0316715
-0.0355502
0.0331657
-0.0415454
0.0347058
-0.0478153
0.035248
0.0339274
0.0995146
-0.0755916
0.109095
-0.0605057
0.115626
-0.0413113
0.118589
-0.0193398
0.117743
0.00422939
0.113368
0.0262276
0.105822
0.0459395
0.0958296
0.0615141
0.0842719
0.0720143
0.0720727
0.0771758
0.0600783
0.0774086
0.0489507
0.0737256
0.0390941
0.0675594
0.0306223
0.0605324
0.0233908
0.0541856
0.0169662
0.0498235
0.0107318
0.0484718
0.00415834
0.0502475
-0.00315625
0.0541121
-0.011628
0.0606336
-0.0214543
0.0677485
-0.0325417
0.0742618
-0.0445577
0.0788094
-0.056969
0.080227
-0.0691083
0.0777031
-0.0802521
0.0708589
-0.0897029
0.0597814
-0.0968831
0.0450306
-0.101295
0.027509
-0.102543
0.00710171
-0.100522
-0.0140042
-0.0953291
-0.0346403
-0.0871423
-0.0542416
-0.0762593
-0.0720007
-0.0630646
-0.0872809
-0.0480087
-0.0995768
-0.0315904
-0.1085
-0.0143547
-0.113728
0.00311022
-0.115026
0.0201071
-0.112231
0.0360891
-0.10522
0.0503954
-0.0941505
0.0624377
-0.079466
0.0717286
-0.0618508
0.0779423
-0.0423281
0.0809469
-0.0221145
0.0808748
-0.00261438
0.0780373
0.0155921
0.072885
0.0303165
0.06607
0.0415898
0.0582561
0.0491141
0.0500433
0.0532215
0.0418813
0.054723
0.0340071
0.054766
0.0264207
0.0546147
0.0189043
0.0554121
0.0110875
0.0579479
0.00254746
0.062483
-0.0071039
0.0683766
-0.0180603
0.0753097
-0.0302562
0.08147
-0.0433503
0.0853332
-0.0567152
0.0853619
-0.0695068
0.0803739
-0.0808179
0.0698303
-0.0898326
0.0538643
-0.0953247
0.0327939
-0.0968156
0.00868044
-0.094189
-0.0164765
-0.0877116
-0.0400598
-0.0779296
-0.0604773
-0.0656623
-0.0762159
-0.0519231
-0.0863477
-0.0377148
-0.0908892
-0.023901
-0.0904706
-0.0110715
-0.0864088
0.000482616
-0.0802885
0.0109023
-0.0744428
0.0203866
-0.0691917
0.0293442
-0.0656672
0.0381739
-0.0639585
0.0471798
-0.0635838
0.0564711
-0.0635598
0.0659144
-0.0626453
0.0751439
-0.0596232
0.0836237
-0.0535363
0.0907476
-0.0438951
0.0958534
-0.0308026
0.0984011
-0.0149326
0.0980587
0.00291149
0.0948631
0.020519
0.0889672
0.0375414
0.0807723
0.0523428
0.070817
0.064083
0.0596907
0.0723973
0.0479579
0.0773444
0.036087
0.0793797
0.0244114
0.0791901
0.0131233
0.0775288
0.00230721
0.0750377
-0.00807667
0.0723589
-0.0180527
0.0694201
-0.0276421
0.0662555
-0.0367982
0.0625627
-0.0453879
0.0579265
-0.0532038
0.0519456
-0.0599917
0.0443479
-0.0653902
0.0350272
-0.0691168
0.0243255
-0.0710249
0.0130306
-0.0709738
0.00101506
-0.069186
-0.00983815
-0.0658738
-0.019211
-0.0613929
-0.0263682
-0.0562655
-0.0306495
-0.0510181
-0.0319234
-0.0461235
-0.0304158
-0.0419492
-0.0267003
-0.0387287
-0.0215566
-0.0365425
-0.0158748
-0.0353156
-0.0105578
-0.034839
-0.00640307
-0.0348031
-0.00402671
-0.0348316
-0.0038225
-0.0345405
-0.00591512
-0.0335642
-0.0101877
-0.0315975
-0.0163122
-0.028421
-0.0238188
-0.0238971
-0.0321946
-0.0180071
-0.0407988
-0.0108016
-0.049107
-0.00239619
-0.0566681
0.00699259
-0.0629197
0.0171471
-0.0678104
0.0277992
-0.0709525
0.0386611
-0.0721083
0.0494237
-0.071126
0.059747
-0.0678377
0.0692509
-0.0620771
0.0775246
-0.0537257
0.0841733
-0.0428595
0.088842
-0.0297084
0.0912218
-0.014651
0.091015
0.00196644
0.0883678
0.0176064
0.0832243
0.0335668
0.0757833
0.0479056
0.0664828
0.0595935
0.0558841
0.0679596
0.0445945
0.0726834
0.033217
0.0737965
0.0223028
0.0716309
0.0122989
0.0668015
0.00350824
0.0601773
-0.00391936
0.0527607
-0.0101178
0.0457528
-0.0153838
0.0402687
-0.0201355
0.0369338
-0.024831
0.0358381
-0.0298224
0.0366629
-0.0353657
0.038709
-0.0415039
0.040844
-0.0480461
0.0417902
0.0404775
0.101669
-0.0881626
0.11183
-0.0706663
0.118757
-0.0482387
0.121869
-0.0224516
0.12089
0.00520825
0.116145
0.030973
0.108017
0.0540674
0.0973099
0.0722211
0.0850002
0.084324
0.072108
0.0900679
0.0595643
0.0899523
0.0480919
0.085198
0.0381244
0.0775269
0.0297744
0.0688824
0.0228749
0.061085
0.0168175
0.0558809
0.0109906
0.0542988
0.00478896
0.0564491
-0.00229767
0.0611987
-0.0106302
0.0689661
-0.0205369
0.0776553
-0.0319016
0.0856265
-0.0443597
0.0912675
-0.0573272
0.0931945
-0.0700754
0.0904512
-0.0818183
0.0826019
-0.091803
0.069766
-0.0994158
0.0526435
-0.104121
0.0322145
-0.105507
0.00848778
-0.103469
-0.0160424
-0.098128
-0.0399815
-0.089681
-0.0626886
-0.0784467
-0.083235
-0.0648292
-0.100898
-0.0492936
-0.115112
-0.0323499
-0.125444
-0.0145546
-0.131524
0.00347093
-0.133051
0.021084
-0.129844
0.0376416
-0.121777
0.052462
-0.108971
0.0649188
-0.0919228
0.0744845
-0.0714165
0.0808012
-0.0486448
0.0837164
-0.0250296
0.0833754
-0.00227342
0.080141
0.0188265
0.0744843
0.0359733
0.0671394
0.0489347
0.0588432
0.0574103
0.050263
0.0618018
0.0418949
0.0630911
0.0339935
0.0626674
0.0265418
0.0620664
0.0192722
0.0626817
0.0117389
0.0654812
0.00342929
0.0707926
-0.00613255
0.0779385
-0.0171909
0.086368
-0.0297109
0.09399
-0.0433435
0.0989659
-0.05741
0.0994284
-0.0709819
0.0939458
-0.083043
0.0818914
-0.0927439
0.0635651
-0.0987017
0.0387517
-0.100353
0.0103316
-0.0975727
-0.0192567
-0.090663
-0.0469695
-0.080216
-0.0709243
-0.0671349
-0.089297
-0.0525713
-0.100911
-0.0376536
-0.105807
-0.0233326
-0.104792
-0.0102331
-0.0995082
0.00138964
-0.0919113
0.0116489
-0.084702
0.0208843
-0.0784271
0.0295812
-0.074364
0.0382235
-0.0726008
0.0471816
-0.072542
0.0566002
-0.0729784
0.0663412
-0.0723863
0.0759979
-0.0692799
0.0849597
-0.062498
0.0925198
-0.0514552
0.0979897
-0.0362725
0.100784
-0.0177272
0.100529
0.00316666
0.0972019
0.0238463
0.0910136
0.0437297
0.0824032
0.0609532
0.0719739
0.0745124
0.0603804
0.0839907
0.0482416
0.0894832
0.0360601
0.0915612
0.0241794
0.0910708
0.0127788
0.0889294
0.00191355
0.0859029
-0.00849228
0.0827647
-0.0185015
0.0794293
-0.0281643
0.0759183
-0.0374501
0.0718485
-0.0462215
0.0666979
-0.0542516
0.0599757
-0.0612744
0.0513707
-0.0669057
0.0406584
-0.0707706
0.0281904
-0.0726993
0.0149592
-0.072544
0.000859797
-0.0705389
-0.0118433
-0.0669003
-0.0228495
-0.0620123
-0.0312562
-0.0564544
-0.0362075
-0.0508089
-0.0375689
-0.0455986
-0.0356261
-0.0412188
-0.0310801
-0.0379201
-0.0248554
-0.0357843
-0.0180106
-0.0347159
-0.0116263
-0.0344982
-0.00662076
-0.0347745
-0.0037504
-0.0351297
-0.00346725
-0.0351574
-0.00588745
-0.0344497
-0.0108954
-0.0326838
-0.0180781
-0.0296299
-0.0268727
-0.0251429
-0.0366816
-0.0192165
-0.0467252
-0.0118975
-0.056426
-0.00331725
-0.0652483
0.00629445
-0.0725314
0.0167075
-0.0782235
0.0276396
-0.0818846
0.0388043
-0.0832731
0.049889
-0.0822107
0.0605453
-0.078494
0.0703896
-0.0719213
0.0790064
-0.0623426
0.0859814
-0.0498345
0.0909205
-0.0346475
0.0934753
-0.0172058
0.0933189
0.00212283
0.0905553
0.02037
0.0851961
0.038926
0.0774312
0.0556705
0.0676859
0.0693389
0.0565796
0.0790658
0.044772
0.084491
0.0329165
0.085652
0.0216131
0.0829343
0.0113468
0.0770678
0.00245016
0.0690739
-0.00489789
0.0601087
-0.0108928
0.0517477
-0.0158597
0.0452356
-0.0202871
0.0413612
-0.024719
0.0402699
-0.0295609
0.0415049
-0.0351043
0.0442524
-0.041413
0.0471527
-0.0482847
0.0486619
0.0474725
0.104168
-0.101546
0.115025
-0.0815233
0.12243
-0.0556435
0.125724
-0.025746
0.124593
0.00633925
0.119404
0.0361617
0.110581
0.0628904
0.0990221
0.0837804
0.0858158
0.0975303
0.0720989
0.103785
0.0589038
0.103147
0.0470268
0.097075
0.0369373
0.0876165
0.0287672
0.0770526
0.0222187
0.0676336
0.0166188
0.0614807
0.0112969
0.0596207
0.00555399
0.062192
-0.00127736
0.0680301
-0.00941382
0.0771026
-0.0194144
0.0876559
-0.0311081
0.0973202
-0.0440918
0.104251
-0.0577195
0.106822
-0.0711887
0.10392
-0.083639
0.0950521
-0.0942514
0.0803785
-0.10237
0.0607616
-0.107418
0.0372626
-0.108961
0.0100311
-0.106898
-0.0181051
-0.10138
-0.0454994
-0.0926272
-0.0714419
-0.0809826
-0.0948796
-0.0668742
-0.115007
-0.050784
-0.131203
-0.0332336
-0.142994
-0.0147901
-0.149967
0.00391203
-0.151753
0.022225
-0.148157
0.0394533
-0.139006
0.0548768
-0.124394
0.0678219
-0.104868
0.0777133
-0.0813079
0.0841544
-0.0550859
0.0869699
-0.0278451
0.0862994
-0.00160296
0.0825875
0.0225385
0.0763289
0.0422318
0.0683499
0.0569137
0.0594771
0.0662831
0.0504588
0.0708201
0.0418481
0.0717018
0.0339211
0.0705944
0.026641
0.0693465
0.0196805
0.0696422
0.0125019
0.0726598
0.00448446
0.07881
-0.00495549
0.0873784
-0.0161185
0.097531
-0.0290137
0.106885
-0.0432828
0.113235
-0.0581849
0.11433
-0.0726925
0.108454
-0.0856579
0.0948568
-0.0961301
0.0740373
-0.102668
0.04529
-0.104521
0.0121847
-0.101566
-0.0222125
-0.094144
-0.0543912
-0.0828976
-0.0821707
-0.0688323
-0.103362
-0.0532766
-0.116467
-0.0375164
-0.121567
-0.0226018
-0.119706
-0.00919862
-0.112911
0.00247167
-0.103582
0.0125426
-0.094773
0.0214642
-0.0873487
0.0298304
-0.0827302
0.0382352
-0.0810057
0.0471266
-0.0814334
0.056693
-0.0825448
0.0667903