/*--------------------------------*- C++ -*----------------------------------*\
| =========                 |                                                 |
| \\      /  F ield         | OpenFOAM: The Open Source CFD Toolbox           |
|  \\    /   O peration     | Version:  v1912                                 |
|   \\  /    A nd           | Website:  www.openfoam.com                      |
|    \\/     M anipulation  |                                                 |
\*---------------------------------------------------------------------------*/
FoamFile
{
    version     2.0;
    format      ascii;
    class       volScalarField;
    location    "80";
    object      p_rgh;
}
// * * * * * * * * * * * * * * * * * * * * * * * * * * * * * * * * * * * * * //

dimensions      [1 -1 -2 0 0 0 0];


internalField   nonuniform List<scalar> 
14268
(
0.00166106
0.00156512
0.00147425
0.00138842
0.0013072
0.00123049
0.00115796
0.00108947
0.00102476
0.000963663
0.00090598
0.000851541
0.000800169
0.000751706
0.000705999
0.0006629
0.000622271
0.00058398
0.000547902
0.000513916
0.000481911
0.000451777
0.000423413
0.000396722
0.000371611
0.000347994
0.000325787
0.000304911
0.000285293
0.00026686
0.000249547
0.000233289
0.000218027
0.000203704
0.000190265
0.00017766
0.00016584
0.000154759
0.000144374
0.000134645
0.000125532
0.000117
0.000109012
0.000101538
9.45458e-05
8.80065e-05
8.18927e-05
7.61785e-05
7.08394e-05
6.58525e-05
6.11959e-05
5.68492e-05
5.27931e-05
4.90094e-05
4.5481e-05
4.21917e-05
3.91264e-05
3.62708e-05
3.36115e-05
3.11358e-05
2.88318e-05
2.66885e-05
2.46954e-05
2.28425e-05
2.11206e-05
1.95211e-05
1.80358e-05
1.66572e-05
1.53779e-05
1.41914e-05
1.30913e-05
1.20717e-05
1.11271e-05
1.02524e-05
9.44269e-06
8.69348e-06
8.00055e-06
7.35994e-06
6.76795e-06
6.22114e-06
5.71629e-06
5.25039e-06
4.82064e-06
4.42442e-06
4.05931e-06
3.72302e-06
3.41345e-06
3.12863e-06
2.86673e-06
2.62604e-06
2.40499e-06
2.2021e-06
2.01603e-06
1.84547e-06
1.68933e-06
1.54638e-06
1.41588e-06
1.29644e-06
1.18796e-06
1.08851e-06
9.99078e-07
9.1643e-07
8.43714e-07
7.74968e-07
7.17269e-07
6.59669e-07
6.15985e-07
5.6686e-07
5.36596e-07
4.9351e-07
4.7722e-07
4.37371e-07
4.33946e-07
3.96902e-07
4.05755e-07
3.69741e-07
3.91552e-07
3.5402e-07
3.90198e-07
3.48012e-07
4.00215e-07
3.50276e-07
4.20088e-07
3.59958e-07
4.48455e-07
3.77247e-07
4.84569e-07
4.03152e-07
5.27297e-07
4.38715e-07
5.72935e-07
4.83255e-07
6.2693e-07
5.3553e-07
6.77591e-07
5.92018e-07
7.24642e-07
6.49454e-07
7.6716e-07
7.06364e-07
8.04591e-07
7.57007e-07
8.36436e-07
8.00455e-07
8.62849e-07
8.3641e-07
8.8429e-07
8.65315e-07
9.0134e-07
8.87985e-07
9.14644e-07
9.0539e-07
9.24796e-07
9.18456e-07
9.32303e-07
9.27988e-07
9.37575e-07
9.34619e-07
9.40871e-07
9.38802e-07
9.42296e-07
9.40729e-07
9.41385e-07
9.3993e-07
0.00166086
0.00156493
0.00147407
0.00138824
0.00130704
0.00123033
0.00115781
0.00108933
0.00102463
0.00096354
0.000905864
0.000851431
0.000800065
0.000751609
0.000705907
0.000662813
0.000622189
0.000583903
0.000547829
0.000513848
0.000481846
0.000451716
0.000423356
0.000396668
0.000371561
0.000347946
0.000325742
0.000304869
0.000285253
0.000266823
0.000249512
0.000233257
0.000217997
0.000203675
0.000190238
0.000177634
0.000165816
0.000154736
0.000144353
0.000134625
0.000125514
0.000116982
0.000108996
0.000101523
9.45316e-05
8.79932e-05
8.18803e-05
7.61669e-05
7.08286e-05
6.58424e-05
6.11865e-05
5.68404e-05
5.27849e-05
4.90017e-05
4.54738e-05
4.2185e-05
3.91201e-05
3.6265e-05
3.3606e-05
3.11307e-05
2.88271e-05
2.66841e-05
2.46913e-05
2.28386e-05
2.1117e-05
1.95178e-05
1.80328e-05
1.66543e-05
1.53752e-05
1.41889e-05
1.30889e-05
1.20695e-05
1.11251e-05
1.02505e-05
9.44097e-06
8.69189e-06
7.99907e-06
7.35856e-06
6.76667e-06
6.21995e-06
5.71518e-06
5.24936e-06
4.81968e-06
4.42353e-06
4.05848e-06
3.72225e-06
3.41274e-06
3.12797e-06
2.86611e-06
2.62546e-06
2.40445e-06
2.2016e-06
2.01556e-06
1.84503e-06
1.68892e-06
1.546e-06
1.41553e-06
1.29611e-06
1.18765e-06
1.08822e-06
9.98805e-07
9.16174e-07
8.43472e-07
7.74742e-07
7.17055e-07
6.59469e-07
6.15794e-07
5.66683e-07
5.36425e-07
4.93354e-07
4.77067e-07
4.37231e-07
4.3381e-07
3.96778e-07
4.05633e-07
3.69632e-07
3.91442e-07
3.53924e-07
3.90098e-07
3.47928e-07
4.00123e-07
3.50202e-07
4.20004e-07
3.59893e-07
4.48379e-07
3.77189e-07
4.84501e-07
4.03102e-07
5.2724e-07
4.38667e-07
5.72887e-07
4.83216e-07
6.26891e-07
5.35488e-07
6.77556e-07
5.91973e-07
7.24609e-07
6.49404e-07
7.67126e-07
7.06309e-07
8.0455e-07
7.56947e-07
8.36388e-07
8.0039e-07
8.62793e-07
8.36339e-07
8.84227e-07
8.6524e-07
9.01271e-07
8.87906e-07
9.14569e-07
9.05308e-07
9.24716e-07
9.18371e-07
9.3222e-07
9.279e-07
9.37489e-07
9.34529e-07
9.40783e-07
9.3871e-07
9.42205e-07
9.40635e-07
9.4129e-07
9.39833e-07
0.00166065
0.00156473
0.00147388
0.00138807
0.00130687
0.00123017
0.00115767
0.00108919
0.00102449
0.000963414
0.000905746
0.000851319
0.00079996
0.000751509
0.000705813
0.000662724
0.000622106
0.000583824
0.000547755
0.000513778
0.00048178
0.000451654
0.000423297
0.000396613
0.000371509
0.000347898
0.000325696
0.000304826
0.000285212
0.000266785
0.000249476
0.000233223
0.000217965
0.000203645
0.00019021
0.000177608
0.000165791
0.000154713
0.000144331
0.000134605
0.000125495
0.000116964
0.000108979
0.000101507
9.45168e-05
8.79793e-05
8.18673e-05
7.61547e-05
7.08172e-05
6.58317e-05
6.11764e-05
5.6831e-05
5.27761e-05
4.89935e-05
4.54661e-05
4.21778e-05
3.91134e-05
3.62586e-05
3.36001e-05
3.11251e-05
2.88219e-05
2.66792e-05
2.46867e-05
2.28343e-05
2.1113e-05
1.9514e-05
1.80292e-05
1.6651e-05
1.53721e-05
1.41859e-05
1.30862e-05
1.20669e-05
1.11227e-05
1.02482e-05
9.43879e-06
8.68984e-06
7.99713e-06
7.35673e-06
6.76494e-06
6.21831e-06
5.71363e-06
5.24788e-06
4.81828e-06
4.4222e-06
4.05721e-06
3.72104e-06
3.41158e-06
3.12686e-06
2.86505e-06
2.62445e-06
2.40348e-06
2.20066e-06
2.01466e-06
1.84416e-06
1.68808e-06
1.54518e-06
1.41474e-06
1.29534e-06
1.1869e-06
1.0875e-06
9.98096e-07
9.15484e-07
8.42796e-07
7.74082e-07
7.16406e-07
6.58836e-07
6.15169e-07
5.66074e-07
5.3582e-07
4.92765e-07
4.76481e-07
4.36659e-07
4.3324e-07
3.96222e-07
4.05077e-07
3.6909e-07
3.90898e-07
3.53396e-07
3.89565e-07
3.47411e-07
3.99599e-07
3.49696e-07
4.19488e-07
3.59396e-07
4.47871e-07
3.767e-07
4.84002e-07
4.02619e-07
5.26751e-07
4.38187e-07
5.72407e-07
4.82745e-07
6.26421e-07
5.35014e-07
6.7709e-07
5.91496e-07
7.24144e-07
6.48923e-07
7.6666e-07
7.05824e-07
8.04078e-07
7.56456e-07
8.35909e-07
7.99894e-07
8.62306e-07
8.35838e-07
8.83733e-07
8.64734e-07
9.0077e-07
8.87396e-07
9.14063e-07
9.04794e-07
9.24205e-07
9.17854e-07
9.31705e-07
9.27382e-07
9.36971e-07
9.34008e-07
9.40263e-07
9.38187e-07
9.41683e-07
9.4011e-07
9.40762e-07
9.39299e-07
0.00166044
0.00156453
0.0014737
0.00138789
0.0013067
0.00123001
0.00115751
0.00108904
0.00102436
0.000963287
0.000905625
0.000851205
0.000799852
0.000751408
0.000705717
0.000662634
0.00062202
0.000583744
0.000547679
0.000513706
0.000481713
0.00045159
0.000423237
0.000396556
0.000371456
0.000347847
0.000325649
0.000304781
0.00028517
0.000266745
0.000249439
0.000233188
0.000217932
0.000203614
0.000190181
0.00017758
0.000165765
0.000154689
0.000144309
0.000134583
0.000125474
0.000116945
0.000108961
0.00010149
9.45009e-05
8.79644e-05
8.18532e-05
7.61414e-05
7.08047e-05
6.58199e-05
6.11653e-05
5.68205e-05
5.27662e-05
4.89842e-05
4.54573e-05
4.21695e-05
3.91055e-05
3.62512e-05
3.35931e-05
3.11185e-05
2.88157e-05
2.66733e-05
2.46811e-05
2.2829e-05
2.1108e-05
1.95092e-05
1.80247e-05
1.66466e-05
1.5368e-05
1.4182e-05
1.30824e-05
1.20633e-05
1.11192e-05
1.02449e-05
9.43564e-06
8.68681e-06
7.99422e-06
7.35393e-06
6.76224e-06
6.2157e-06
5.71111e-06
5.24545e-06
4.81592e-06
4.41991e-06
4.05498e-06
3.71887e-06
3.40947e-06
3.1248e-06
2.86304e-06
2.62248e-06
2.40155e-06
2.19877e-06
2.0128e-06
1.84233e-06
1.68629e-06
1.54341e-06
1.41299e-06
1.29362e-06
1.1852e-06
1.08582e-06
9.96437e-07
9.13842e-07
8.41169e-07
7.72472e-07
7.14808e-07
6.57252e-07
6.13594e-07
5.64514e-07
5.34265e-07
4.91227e-07
4.74946e-07
4.35137e-07
4.31722e-07
3.94716e-07
4.03573e-07
3.67599e-07
3.89406e-07
3.51918e-07
3.88083e-07
3.45946e-07
3.98126e-07
3.48241e-07
4.18023e-07
3.5795e-07
4.46414e-07
3.75261e-07
4.82555e-07
4.01186e-07
5.25316e-07
4.36757e-07
5.70979e-07
4.81325e-07
6.25003e-07
5.33592e-07
6.75676e-07
5.90072e-07
7.22732e-07
6.47495e-07
7.65248e-07
7.04392e-07
8.02659e-07
7.55018e-07
8.34482e-07
7.98451e-07
8.60872e-07
8.34389e-07
8.82292e-07
8.63281e-07
8.99322e-07
8.85939e-07
9.12609e-07
9.03334e-07
9.22747e-07
9.16391e-07
9.30244e-07
9.25916e-07
9.35507e-07
9.3254e-07
9.38795e-07
9.36718e-07
9.40213e-07
9.38637e-07
9.39284e-07
9.37805e-07
0.00166022
0.00156433
0.0014735
0.00138771
0.00130653
0.00122985
0.00115736
0.0010889
0.00102422
0.000963157
0.000905502
0.000851089
0.000799742
0.000751304
0.000705619
0.000662541
0.000621933
0.000583661
0.000547601
0.000513633
0.000481643
0.000451525
0.000423175
0.000396498
0.0003714
0.000347795
0.0003256
0.000304735
0.000285127
0.000266704
0.0002494
0.000233151
0.000217897
0.000203581
0.00019015
0.000177551
0.000165738
0.000154663
0.000144284
0.00013456
0.000125453
0.000116925
0.000108942
0.000101472
9.44835e-05
8.79479e-05
8.18376e-05
7.61267e-05
7.07908e-05
6.58067e-05
6.11529e-05
5.68087e-05
5.2755e-05
4.89735e-05
4.54472e-05
4.21599e-05
3.90964e-05
3.62425e-05
3.35848e-05
3.11106e-05
2.88081e-05
2.66661e-05
2.46742e-05
2.28224e-05
2.11016e-05
1.95031e-05
1.80188e-05
1.6641e-05
1.53626e-05
1.41768e-05
1.30774e-05
1.20585e-05
1.11145e-05
1.02404e-05
9.43121e-06
8.6825e-06
7.99003e-06
7.34985e-06
6.75826e-06
6.21182e-06
5.70731e-06
5.24173e-06
4.81228e-06
4.41634e-06
4.05148e-06
3.71543e-06
3.40608e-06
3.12147e-06
2.85975e-06
2.61924e-06
2.39835e-06
2.19561e-06
2.00968e-06
1.83924e-06
1.68322e-06
1.54038e-06
1.40998e-06
1.29064e-06
1.18224e-06
1.08288e-06
9.93513e-07
9.10937e-07
8.38279e-07
7.69598e-07
7.11946e-07
6.54406e-07
6.10757e-07
5.61692e-07
5.31448e-07
4.88426e-07
4.72148e-07
4.32353e-07
4.28941e-07
3.91948e-07
4.00807e-07
3.64846e-07
3.86652e-07
3.49179e-07
3.85339e-07
3.43219e-07
3.95392e-07
3.45525e-07
4.15297e-07
3.55242e-07
4.43696e-07
3.72561e-07
4.79846e-07
3.98493e-07
5.22619e-07
4.34066e-07
5.68291e-07
4.78643e-07
6.22326e-07
5.30908e-07
6.73003e-07
5.87386e-07
7.20059e-07
6.44805e-07
7.62575e-07
7.017e-07
7.9998e-07
7.52321e-07
8.31796e-07
7.95748e-07
8.58177e-07
8.31681e-07
8.7959e-07
8.60568e-07
8.96614e-07
8.83222e-07
9.09895e-07
9.00613e-07
9.20029e-07
9.13667e-07
9.27521e-07
9.2319e-07
9.32781e-07
9.29812e-07
9.36067e-07
9.33987e-07
9.37483e-07
9.35904e-07
9.36549e-07
9.35052e-07
0.00166001
0.00156412
0.00147331
0.00138752
0.00130636
0.00122968
0.0011572
0.00108875
0.00102408
0.000963024
0.000905376
0.00085097
0.00079963
0.000751197
0.000705518
0.000662446
0.000621843
0.000583576
0.000547521
0.000513557
0.000481571
0.000451457
0.000423111
0.000396438
0.000371343
0.000347741
0.000325549
0.000304687
0.000285081
0.000266661
0.000249359
0.000233113
0.000217861
0.000203547
0.000190117
0.000177521
0.000165709
0.000154636
0.000144258
0.000134536
0.000125429
0.000116903
0.000108921
0.000101452
9.44647e-05
8.79301e-05
8.18207e-05
7.61106e-05
7.07755e-05
6.57922e-05
6.1139e-05
5.67955e-05
5.27424e-05
4.89615e-05
4.54357e-05
4.21489e-05
3.90859e-05
3.62325e-05
3.35752e-05
3.11014e-05
2.87992e-05
2.66576e-05
2.46659e-05
2.28145e-05
2.1094e-05
1.94958e-05
1.80117e-05
1.66341e-05
1.53559e-05
1.41703e-05
1.30711e-05
1.20523e-05
1.11085e-05
1.02345e-05
9.4255e-06
8.67692e-06
7.98457e-06
7.3445e-06
6.75301e-06
6.20667e-06
5.70225e-06
5.23675e-06
4.80737e-06
4.41151e-06
4.04671e-06
3.71073e-06
3.40143e-06
3.11687e-06
2.8552e-06
2.61473e-06
2.39389e-06
2.19118e-06
2.00529e-06
1.83489e-06
1.6789e-06
1.53608e-06
1.40571e-06
1.28639e-06
1.17802e-06
1.07867e-06
9.89327e-07
9.0677e-07
8.34127e-07
7.65463e-07
7.07822e-07
6.50299e-07
6.06657e-07
5.5761e-07
5.27368e-07
4.84365e-07
4.68089e-07
4.28309e-07
4.249e-07
3.87919e-07
3.9678e-07
3.60833e-07
3.82638e-07
3.4518e-07
3.81335e-07
3.39232e-07
3.91396e-07
3.41549e-07
4.1131e-07
3.51275e-07
4.39717e-07
3.68601e-07
4.75877e-07
3.94539e-07
5.18661e-07
4.30116e-07
5.64337e-07
4.74702e-07
6.18387e-07
5.26967e-07
6.6907e-07
5.83442e-07
7.16128e-07
6.40856e-07
7.58644e-07
6.97748e-07
7.96043e-07
7.48364e-07
8.27851e-07
7.91786e-07
8.54224e-07
8.27714e-07
8.75629e-07
8.56596e-07
8.92646e-07
8.79245e-07
9.05922e-07
8.96633e-07
9.1605e-07
9.09684e-07
9.23539e-07
9.19204e-07
9.28796e-07
9.25824e-07
9.32079e-07
9.29996e-07
9.33493e-07
9.31912e-07
9.32562e-07
9.31045e-07
0.00165978
0.00156391
0.00147311
0.00138733
0.00130618
0.00122952
0.00115704
0.0010886
0.00102394
0.000962888
0.000905248
0.000850849
0.000799515
0.000751089
0.000705416
0.000662349
0.000621751
0.00058349
0.000547439
0.000513479
0.000481498
0.000451388
0.000423046
0.000396376
0.000371285
0.000347686
0.000325496
0.000304637
0.000285034
0.000266617
0.000249317
0.000233073
0.000217823
0.000203512
0.000190084
0.000177489
0.000165678
0.000154607
0.000144231
0.00013451
0.000125405
0.000116879
0.000108899
0.000101431
9.44448e-05
8.79112e-05
8.18027e-05
7.60935e-05
7.07591e-05
6.57765e-05
6.11241e-05
5.67813e-05
5.27288e-05
4.89485e-05
4.54232e-05
4.21369e-05
3.90744e-05
3.62214e-05
3.35645e-05
3.10911e-05
2.87894e-05
2.6648e-05
2.46567e-05
2.28056e-05
2.10854e-05
1.94874e-05
1.80036e-05
1.66262e-05
1.53482e-05
1.41628e-05
1.30638e-05
1.20452e-05
1.11016e-05
1.02277e-05
9.41885e-06
8.6704e-06
7.97817e-06
7.33821e-06
6.74683e-06
6.20059e-06
5.69626e-06
5.23084e-06
4.80155e-06
4.40575e-06
4.04102e-06
3.7051e-06
3.39586e-06
3.11135e-06
2.84973e-06
2.60931e-06
2.38851e-06
2.18584e-06
1.99998e-06
1.82962e-06
1.67366e-06
1.53087e-06
1.40053e-06
1.28123e-06
1.17288e-06
1.07356e-06
9.84231e-07
9.01693e-07
8.29065e-07
7.60418e-07
7.02789e-07
6.45282e-07
6.0165e-07
5.52618e-07
5.22381e-07
4.79396e-07
4.63122e-07
4.23356e-07
4.1995e-07
3.82983e-07
3.91845e-07
3.55911e-07
3.77715e-07
3.40273e-07
3.76424e-07
3.34338e-07
3.86495e-07
3.36665e-07
4.06417e-07
3.464e-07
4.34832e-07
3.63734e-07
4.71e-07
3.89678e-07
5.13798e-07
4.25256e-07
5.59484e-07
4.69851e-07
6.13548e-07
5.22114e-07
6.64234e-07
5.78589e-07
7.11292e-07
6.36e-07
7.53807e-07
6.92892e-07
7.91199e-07
7.43503e-07
8.23e-07
7.86919e-07
8.49366e-07
8.22841e-07
8.70763e-07
8.51719e-07
8.87773e-07
8.74363e-07
9.01043e-07
8.91747e-07
9.11167e-07
9.04795e-07
9.18651e-07
9.14313e-07
9.23905e-07
9.2093e-07
9.27186e-07
9.25101e-07
9.28598e-07
9.27014e-07
9.27669e-07
9.26136e-07
0.00165956
0.0015637
0.00147291
0.00138714
0.001306
0.00122935
0.00115688
0.00108845
0.00102379
0.000962751
0.000905119
0.000850726
0.000799399
0.000750979
0.000705312
0.000662251
0.000621658
0.000583402
0.000547355
0.000513401
0.000481424
0.000451317
0.000422979
0.000396313
0.000371225
0.00034763
0.000325443
0.000304587
0.000284987
0.000266571
0.000249275
0.000233033
0.000217785
0.000203475
0.000190049
0.000177456
0.000165648
0.000154578
0.000144203
0.000134483
0.00012538
0.000116856
0.000108876
0.00010141
9.44244e-05
8.78917e-05
8.17841e-05
7.60758e-05
7.07422e-05
6.57605e-05
6.11087e-05
5.67666e-05
5.27147e-05
4.8935e-05
4.54103e-05
4.21245e-05
3.90625e-05
3.62099e-05
3.35535e-05
3.10805e-05
2.87791e-05
2.66381e-05
2.46471e-05
2.27963e-05
2.10764e-05
1.94787e-05
1.79951e-05
1.6618e-05
1.53402e-05
1.4155e-05
1.30561e-05
1.20377e-05
1.10943e-05
1.02206e-05
9.41182e-06
8.66351e-06
7.9714e-06
7.33155e-06
6.74028e-06
6.19413e-06
5.68989e-06
5.22457e-06
4.79535e-06
4.39962e-06
4.03497e-06
3.6991e-06
3.38993e-06
3.10547e-06
2.8439e-06
2.60352e-06
2.38276e-06
2.18014e-06
1.99432e-06
1.82398e-06
1.66806e-06
1.5253e-06
1.39498e-06
1.27571e-06
1.16738e-06
1.06808e-06
9.78773e-07
8.96255e-07
8.23642e-07
7.55013e-07
6.97396e-07
6.39905e-07
5.96281e-07
5.47267e-07
5.17032e-07
4.74067e-07
4.57795e-07
4.18043e-07
4.14641e-07
3.77687e-07
3.86551e-07
3.50631e-07
3.72434e-07
3.35006e-07
3.71154e-07
3.29085e-07
3.81233e-07
3.31423e-07
4.01163e-07
3.41165e-07
4.29588e-07
3.58506e-07
4.65767e-07
3.84457e-07
5.08576e-07
4.20039e-07
5.54262e-07
4.64646e-07
6.08343e-07
5.1691e-07
6.59033e-07
5.73382e-07
7.06096e-07
6.30788e-07
7.48612e-07
6.87677e-07
7.85999e-07
7.38283e-07
8.17792e-07
7.81694e-07
8.44148e-07
8.17611e-07
8.65538e-07
8.46483e-07
8.82542e-07
8.69123e-07
8.95806e-07
8.86503e-07
9.05924e-07
8.99548e-07
9.13405e-07
9.09062e-07
9.18656e-07
9.15678e-07
9.21934e-07
9.19846e-07
9.23344e-07
9.21757e-07
9.22424e-07
9.20883e-07
0.00165933
0.00156349
0.00147271
0.00138695
0.00130582
0.00122917
0.00115672
0.00108829
0.00102365
0.000962613
0.000904988
0.000850602
0.000799282
0.000750868
0.000705207
0.000662152
0.000621565
0.000583313
0.000547271
0.000513321
0.000481349
0.000451246
0.000422912
0.000396249
0.000371165
0.000347573
0.000325389
0.000304536
0.000284939
0.000266526
0.000249232
0.000232992
0.000217747
0.000203439
0.000190015
0.000177424
0.000165617
0.000154548
0.000144175
0.000134457
0.000125355
0.000116832
0.000108854
0.000101388
9.4404e-05
8.78723e-05
8.17656e-05
7.60582e-05
7.07254e-05
6.57444e-05
6.10934e-05
5.67519e-05
5.27007e-05
4.89216e-05
4.53975e-05
4.21122e-05
3.90507e-05
3.61986e-05
3.35426e-05
3.107e-05
2.87689e-05
2.66283e-05
2.46377e-05
2.27872e-05
2.10675e-05
1.94701e-05
1.79867e-05
1.66099e-05
1.53323e-05
1.41473e-05
1.30486e-05
1.20304e-05
1.10871e-05
1.02136e-05
9.40498e-06
8.6568e-06
7.96482e-06
7.32509e-06
6.73392e-06
6.18787e-06
5.68373e-06
5.21848e-06
4.78935e-06
4.3937e-06
4.02911e-06
3.69331e-06
3.38419e-06
3.09979e-06
2.83827e-06
2.59794e-06
2.37723e-06
2.17464e-06
1.98886e-06
1.81856e-06
1.66266e-06
1.51993e-06
1.38965e-06
1.2704e-06
1.16209e-06
1.06282e-06
9.73525e-07
8.91027e-07
8.18429e-07
7.49818e-07
6.92213e-07
6.34739e-07
5.91123e-07
5.42127e-07
5.11895e-07
4.6895e-07
4.52679e-07
4.12942e-07
4.09544e-07
3.72602e-07
3.81469e-07
3.45562e-07
3.67364e-07
3.29953e-07
3.66095e-07
3.24043e-07
3.76185e-07
3.26391e-07
3.96125e-07
3.36143e-07
4.24556e-07
3.53493e-07
4.60742e-07
3.79449e-07
5.03567e-07
4.15032e-07
5.49266e-07
4.59645e-07
6.03362e-07
5.11907e-07
6.54057e-07
5.6838e-07
7.01118e-07
6.25785e-07
7.43632e-07
6.82677e-07
7.81011e-07
7.33279e-07
8.12797e-07
7.76683e-07
8.39146e-07
8.12595e-07
8.60528e-07
8.41462e-07
8.77524e-07
8.64097e-07
8.90782e-07
8.81474e-07
9.00896e-07
8.94515e-07
9.08373e-07
9.04027e-07
9.1362e-07
9.10639e-07
9.16896e-07
9.14806e-07
9.18304e-07
9.16715e-07
9.17392e-07
9.15852e-07
0.00165911
0.00156327
0.0014725
0.00138676
0.00130563
0.001229
0.00115656
0.00108814
0.0010235
0.000962474
0.000904856
0.000850478
0.000799165
0.000750757
0.000705102
0.000662052
0.00062147
0.000583224
0.000547187
0.000513242
0.000481274
0.000451175
0.000422845
0.000396186
0.000371105
0.000347516
0.000325336
0.000304486
0.000284891
0.000266481
0.000249189
0.000232951
0.000217708
0.000203403
0.000189981
0.000177391
0.000165586
0.000154519
0.000144148
0.000134431
0.00012533
0.000116808
0.000108832
0.000101367
9.4384e-05
8.78533e-05
8.17476e-05
7.6041e-05
7.07091e-05
6.57289e-05
6.10786e-05
5.67378e-05
5.26873e-05
4.89087e-05
4.53852e-05
4.21004e-05
3.90394e-05
3.61878e-05
3.35322e-05
3.106e-05
2.87594e-05
2.66191e-05
2.46288e-05
2.27786e-05
2.10592e-05
1.94621e-05
1.7979e-05
1.66024e-05
1.5325e-05
1.41402e-05
1.30418e-05
1.20237e-05
1.10806e-05
1.02072e-05
9.39875e-06
8.65071e-06
7.95885e-06
7.31923e-06
6.72818e-06
6.18223e-06
5.67818e-06
5.21302e-06
4.78397e-06
4.38839e-06
4.02387e-06
3.68814e-06
3.37908e-06
3.09473e-06
2.83327e-06
2.59299e-06
2.37232e-06
2.16977e-06
1.98402e-06
1.81376e-06
1.6579e-06
1.5152e-06
1.38494e-06
1.26572e-06
1.15744e-06
1.05818e-06
9.68909e-07
8.86431e-07
8.13848e-07
7.45256e-07
6.87663e-07
6.30206e-07
5.86598e-07
5.3762e-07
5.0739e-07
4.64466e-07
4.48197e-07
4.08475e-07
4.0508e-07
3.68151e-07
3.7702e-07
3.41127e-07
3.62929e-07
3.25532e-07
3.61671e-07
3.19636e-07
3.71769e-07
3.21996e-07
3.91717e-07
3.31756e-07
4.20159e-07
3.49111e-07
4.56359e-07
3.75073e-07
4.99193e-07
4.10662e-07
5.44887e-07
4.5529e-07
5.99003e-07
5.07556e-07
6.49701e-07
5.64024e-07
6.96769e-07
6.21422e-07
7.39286e-07
6.78311e-07
7.76662e-07
7.28907e-07
8.08439e-07
7.72309e-07
8.34779e-07
8.08215e-07
8.56153e-07
8.37076e-07
8.73142e-07
8.59707e-07
8.86394e-07
8.77079e-07
8.96503e-07
8.90117e-07
9.03975e-07
8.99625e-07
9.09219e-07
9.06236e-07
9.12493e-07
9.104e-07
9.139e-07
9.12307e-07
9.13e-07
9.1147e-07
0.00165888
0.00156305
0.0014723
0.00138656
0.00130545
0.00122883
0.00115639
0.00108798
0.00102335
0.000962334
0.000904724
0.000850353
0.000799046
0.000750645
0.000704996
0.000661953
0.000621376
0.000583135
0.000547103
0.000513162
0.000481198
0.000451105
0.000422778
0.000396123
0.000371046
0.00034746
0.000325283
0.000304435
0.000284843
0.000266436
0.000249146
0.000232911
0.000217671
0.000203367
0.000189947
0.000177359
0.000165556
0.000154491
0.000144121
0.000134406
0.000125306
0.000116786
0.00010881
0.000101347
9.43647e-05
8.7835e-05
8.17303e-05
7.60246e-05
7.06935e-05
6.57141e-05
6.10645e-05
5.67245e-05
5.26745e-05
4.88966e-05
4.53736e-05
4.20895e-05
3.90289e-05
3.61778e-05
3.35226e-05
3.10509e-05
2.87506e-05
2.66107e-05
2.46207e-05
2.27708e-05
2.10518e-05
1.94549e-05
1.79721e-05
1.65957e-05
1.53185e-05
1.4134e-05
1.30357e-05
1.20179e-05
1.10749e-05
1.02017e-05
9.39336e-06
8.64545e-06
7.95372e-06
7.31423e-06
6.72328e-06
6.17743e-06
5.67348e-06
5.20841e-06
4.77944e-06
4.38394e-06
4.01949e-06
3.68382e-06
3.37483e-06
3.09054e-06
2.82912e-06
2.58889e-06
2.36826e-06
2.16576e-06
1.98005e-06
1.80982e-06
1.65399e-06
1.51133e-06
1.38109e-06
1.2619e-06
1.15364e-06
1.05441e-06
9.65155e-07
8.82697e-07
8.1013e-07
7.41556e-07
6.83975e-07
6.26537e-07
5.82937e-07
5.33978e-07
5.0375e-07
4.60846e-07
4.44579e-07
4.04871e-07
4.01481e-07
3.64565e-07
3.73437e-07
3.37556e-07
3.59357e-07
3.21977e-07
3.58111e-07
3.16093e-07
3.68221e-07
3.18462e-07
3.88179e-07
3.28233e-07
4.16625e-07
3.45598e-07
4.52831e-07
3.71567e-07
4.95681e-07
4.07157e-07
5.41385e-07
4.51793e-07
5.95519e-07
5.04059e-07
6.46221e-07
5.60526e-07
6.93291e-07
6.17921e-07
7.35806e-07
6.74816e-07
7.73174e-07
7.25407e-07
8.04946e-07
7.688e-07
8.3128e-07
8.04701e-07
8.52645e-07
8.33558e-07
8.69627e-07
8.56183e-07
8.82873e-07
8.73551e-07
8.92976e-07
8.86585e-07
9.00445e-07
8.96091e-07
9.05685e-07
9.02699e-07
9.08956e-07
9.06861e-07
9.10361e-07
9.08767e-07
9.09474e-07
9.07955e-07
0.00165865
0.00156284
0.00147209
0.00138637
0.00130526
0.00122865
0.00115622
0.00108782
0.0010232
0.000962194
0.000904592
0.000850228
0.000798928
0.000750534
0.000704891
0.000661853
0.000621282
0.000583046
0.000547019
0.000513083
0.000481123
0.000451034
0.000422711
0.00039606
0.000370986
0.000347404
0.00032523
0.000304385
0.000284796
0.000266391
0.000249105
0.000232872
0.000217633
0.000203332
0.000189914
0.000177328
0.000165526
0.000154463
0.000144095
0.000134381
0.000125283
0.000116764
0.000108789
0.000101327
9.43461e-05
8.78174e-05
8.17137e-05
7.60089e-05
7.06787e-05
6.57e-05
6.10512e-05
5.67119e-05
5.26626e-05
4.88853e-05
4.53629e-05
4.20792e-05
3.90192e-05
3.61686e-05
3.35139e-05
3.10425e-05
2.87426e-05
2.66031e-05
2.46135e-05
2.27639e-05
2.10452e-05
1.94486e-05
1.7966e-05
1.65898e-05
1.53129e-05
1.41286e-05
1.30305e-05
1.20128e-05
1.107e-05
1.0197e-05
9.38882e-06
8.64105e-06
7.94946e-06
7.31008e-06
6.71925e-06
6.17351e-06
5.66965e-06
5.20467e-06
4.77578e-06
4.38036e-06
4.01598e-06
3.68038e-06
3.37145e-06
3.08721e-06
2.82585e-06
2.58567e-06
2.36509e-06
2.16263e-06
1.97696e-06
1.80676e-06
1.65097e-06
1.50833e-06
1.37813e-06
1.25896e-06
1.15072e-06
1.05151e-06
9.62283e-07
8.79846e-07
8.07295e-07
7.3874e-07
6.81171e-07
6.2375e-07
5.80159e-07
5.31219e-07
5.00993e-07
4.58111e-07
4.41846e-07
4.02152e-07
3.98766e-07
3.61862e-07
3.70737e-07
3.34871e-07
3.56672e-07
3.19305e-07
3.55438e-07
3.13436e-07
3.65556e-07
3.15819e-07
3.8552e-07
3.25598e-07
4.13978e-07
3.42968e-07
4.50196e-07
3.68942e-07
4.9306e-07
4.04535e-07
5.38763e-07
4.49184e-07
5.92918e-07
5.01454e-07
6.43622e-07
5.5792e-07
6.90697e-07
6.15312e-07
7.33213e-07
6.72204e-07
7.70576e-07
7.22791e-07
8.02339e-07
7.66181e-07
8.28664e-07
8.02075e-07
8.50024e-07
8.30924e-07
8.66998e-07
8.53546e-07
8.80237e-07
8.7091e-07
8.90336e-07
8.8394e-07
8.97801e-07
8.93443e-07
9.03038e-07
9.00049e-07
9.06306e-07
9.04209e-07
9.07709e-07
9.06112e-07
9.06832e-07
9.05327e-07
0.00165842
0.00156262
0.00147188
0.00138617
0.00130508
0.00122847
0.00115606
0.00108767
0.00102305
0.000962053
0.000904458
0.000850102
0.000798809
0.000750421
0.000704785
0.000661753
0.000621187
0.000582957
0.000546935
0.000513003
0.000481049
0.000450963
0.000422645
0.000395997
0.000370927
0.000347348
0.000325177
0.000304336
0.000284749
0.000266347
0.000249063
0.000232833
0.000217596
0.000203297
0.000189881
0.000177297
0.000165497
0.000154436
0.000144069
0.000134357
0.00012526
0.000116742
0.000108769
0.000101308
9.43281e-05
8.78005e-05
8.16977e-05
7.59938e-05
7.06645e-05
6.56866e-05
6.10386e-05
5.66999e-05
5.26513e-05
4.88747e-05
4.53528e-05
4.20698e-05
3.90102e-05
3.61601e-05
3.35058e-05
3.10349e-05
2.87354e-05
2.65963e-05
2.4607e-05
2.27577e-05
2.10393e-05
1.9443e-05
1.79607e-05
1.65848e-05
1.53081e-05
1.41239e-05
1.30261e-05
1.20086e-05
1.1066e-05
1.01931e-05
9.38506e-06
8.63744e-06
7.94597e-06
7.30672e-06
6.71599e-06
6.17036e-06
5.6666e-06
5.20171e-06
4.77291e-06
4.37757e-06
4.01326e-06
3.67773e-06
3.36886e-06
3.08468e-06
2.82338e-06
2.58324e-06
2.3627e-06
2.16029e-06
1.97466e-06
1.8045e-06
1.64874e-06
1.50613e-06
1.37596e-06
1.25682e-06
1.14861e-06
1.04942e-06
9.60208e-07
8.77792e-07
8.05257e-07
7.36722e-07
6.79166e-07
6.21762e-07
5.7818e-07
5.29259e-07
4.99035e-07
4.56174e-07
4.39912e-07
4.00232e-07
3.96851e-07
3.5996e-07
3.68838e-07
3.32983e-07
3.54785e-07
3.17436e-07
3.5356e-07
3.1158e-07
3.63691e-07
3.13973e-07
3.83666e-07
3.2376e-07
4.1213e-07
3.41138e-07
4.48357e-07
3.67118e-07
4.91237e-07
4.02714e-07
5.36947e-07
4.47373e-07
5.91121e-07
4.99646e-07
6.41828e-07
5.56112e-07
6.88906e-07
6.13501e-07
7.31422e-07
6.70396e-07
7.68778e-07
7.20978e-07
8.00535e-07
7.6436e-07
8.26852e-07
8.0025e-07
8.48202e-07
8.29095e-07
8.6517e-07
8.5171e-07
8.78405e-07
8.6907e-07
8.88498e-07
8.82098e-07
8.95958e-07
8.91597e-07
9.01192e-07
8.982e-07
9.04457e-07
9.02358e-07
9.05859e-07
9.04259e-07
9.04992e-07
9.03498e-07
0.00165818
0.0015624
0.00147167
0.00138597
0.00130489
0.0012283
0.00115589
0.00108751
0.00102291
0.000961912
0.000904325
0.000849975
0.00079869
0.000750309
0.000704678
0.000661652
0.000621093
0.000582867
0.000546851
0.000512924
0.000480973
0.000450892
0.000422578
0.000395934
0.000370867
0.000347292
0.000325124
0.000304286
0.000284703
0.000266303
0.000249022
0.000232794
0.00021756
0.000203263
0.000189849
0.000177267
0.000165468
0.000154409
0.000144044
0.000134333
0.000125237
0.000116721
0.000108749
0.000101289
9.43105e-05
8.7784e-05
8.16822e-05
7.59792e-05
7.06507e-05
6.56737e-05
6.10265e-05
5.66885e-05
5.26406e-05
4.88646e-05
4.53433e-05
4.20608e-05
3.90018e-05
3.61521e-05
3.34983e-05
3.10278e-05
2.87288e-05
2.659e-05
2.46011e-05
2.27521e-05
2.1034e-05
1.9438e-05
1.79559e-05
1.65803e-05
1.53038e-05
1.41199e-05
1.30223e-05
1.2005e-05
1.10625e-05
1.01898e-05
9.38192e-06
8.63443e-06
7.9431e-06
7.30397e-06
6.71336e-06
6.16783e-06
5.66417e-06
5.19938e-06
4.77066e-06
4.3754e-06
4.01117e-06
3.6757e-06
3.36689e-06
3.08278e-06
2.82153e-06
2.58144e-06
2.36095e-06
2.15858e-06
1.97299e-06
1.80287e-06
1.64714e-06
1.50457e-06
1.37442e-06
1.25531e-06
1.14712e-06
1.04796e-06
9.58767e-07
8.76372e-07
8.03854e-07
7.35337e-07
6.77794e-07
6.20409e-07
5.76835e-07
5.27933e-07
4.97711e-07
4.54872e-07
4.38612e-07
3.98947e-07
3.95571e-07
3.58691e-07
3.67572e-07
3.31734e-07
3.53533e-07
3.16201e-07
3.52321e-07
3.10359e-07
3.62461e-07
3.12764e-07
3.82445e-07
3.2256e-07
4.10918e-07
3.39944e-07
4.47157e-07
3.65928e-07
4.90051e-07
4.01527e-07
5.35761e-07
4.46198e-07
5.89959e-07
4.98475e-07
6.40669e-07
5.5494e-07
6.87751e-07
6.12325e-07
7.30268e-07
6.69223e-07
7.67619e-07
7.19801e-07
7.99367e-07
7.63179e-07
8.25676e-07
7.99062e-07
8.47019e-07
8.27901e-07
8.63979e-07
8.50512e-07
8.77207e-07
8.67867e-07
8.87296e-07
8.8089e-07
8.94751e-07
8.90387e-07
8.99982e-07
8.96987e-07
9.03245e-07
9.01143e-07
9.04645e-07
9.03042e-07
9.03791e-07
9.02306e-07
0.00165783
0.00156206
0.00147136
0.00138567
0.00130461
0.00122803
0.00115564
0.00108727
0.00102268
0.000961698
0.000904123
0.000849785
0.00079851
0.000750138
0.000704517
0.000661501
0.000620949
0.000582732
0.000546723
0.000512804
0.00048086
0.000450786
0.000422477
0.000395839
0.000370778
0.000347208
0.000325045
0.000304212
0.000284633
0.000266238
0.00024896
0.000232735
0.000217505
0.000203211
0.0001898
0.000177221
0.000165426
0.000154368
0.000144006
0.000134297
0.000125204
0.00011669
0.00010872
0.000101262
9.42846e-05
8.77596e-05
8.16593e-05
7.59578e-05
7.06306e-05
6.56549e-05
6.10088e-05
5.66719e-05
5.2625e-05
4.885e-05
4.53296e-05
4.20479e-05
3.89897e-05
3.61408e-05
3.34877e-05
3.10179e-05
2.87194e-05
2.65812e-05
2.45928e-05
2.27444e-05
2.10267e-05
1.94311e-05
1.79495e-05
1.65742e-05
1.52981e-05
1.41145e-05
1.30172e-05
1.20001e-05
1.1058e-05
1.01855e-05
9.37786e-06
8.63059e-06
7.93946e-06
7.30052e-06
6.71008e-06
6.16472e-06
5.66121e-06
5.19655e-06
4.76796e-06
4.37282e-06
4.00871e-06
3.67334e-06
3.36463e-06
3.0806e-06
2.81944e-06
2.57943e-06
2.35901e-06
2.1567e-06
1.97117e-06
1.80111e-06
1.64544e-06
1.50291e-06
1.37281e-06
1.25374e-06
1.14559e-06
1.04646e-06
9.57301e-07
8.74939e-07
8.02445e-07
7.33958e-07
6.76434e-07
6.19076e-07
5.75516e-07
5.26643e-07
4.96424e-07
4.53619e-07
4.37362e-07
3.97717e-07
3.9435e-07
3.57491e-07
3.66374e-07
3.30558e-07
3.52355e-07
3.1505e-07
3.51159e-07
3.09229e-07
3.61317e-07
3.1165e-07
3.81316e-07
3.21459e-07
4.09802e-07
3.38853e-07
4.46055e-07
3.64844e-07
4.88975e-07
4.00447e-07
5.34688e-07
4.45136e-07
5.88921e-07
4.97419e-07
6.39634e-07
5.53885e-07
6.86722e-07
6.11267e-07
7.29239e-07
6.68168e-07
7.6658e-07
7.18739e-07
7.98318e-07
7.62108e-07
8.24615e-07
7.97984e-07
8.45945e-07
8.26815e-07
8.62895e-07
8.49417e-07
8.76114e-07
8.66766e-07
8.86194e-07
8.79784e-07
8.93645e-07
8.89275e-07
8.98872e-07
8.95871e-07
9.02129e-07
9.00025e-07
9.03526e-07
9.01919e-07
9.0269e-07
9.01212e-07
0.00165735
0.00156161