/*--------------------------------*- C++ -*----------------------------------*\
| =========                 |                                                 |
| \\      /  F ield         | OpenFOAM: The Open Source CFD Toolbox           |
|  \\    /   O peration     | Version:  v1912                                 |
|   \\  /    A nd           | Website:  www.openfoam.com                      |
|    \\/     M anipulation  |                                                 |
\*---------------------------------------------------------------------------*/
FoamFile
{
    version     2.0;
    format      ascii;
    class       surfaceScalarField;
    location    "80";
    object      phi;
}
// * * * * * * * * * * * * * * * * * * * * * * * * * * * * * * * * * * * * * //

dimensions      [0 3 -1 0 0 0 0];
oriented        oriented;


internalField   nonuniform List<scalar> 
28285
(
2.30373e-06
1.31467e-07
2.17892e-06
1.24811e-07
2.06045e-06
1.18469e-07
1.94802e-06
1.12424e-07
1.84136e-06
1.06668e-07
1.74017e-06
1.01183e-07
1.64421e-06
9.59619e-08
1.55322e-06
9.09897e-08
1.46696e-06
8.62576e-08
1.38521e-06
8.17532e-08
1.30774e-06
7.74679e-08
1.23435e-06
7.33906e-08
1.16484e-06
6.95133e-08
1.09901e-06
6.58256e-08
1.03669e-06
6.23203e-08
9.77705e-07
5.89879e-08
9.21883e-07
5.58215e-08
8.69071e-07
5.28126e-08
8.19116e-07
4.99549e-08
7.71875e-07
4.72405e-08
7.27212e-07
4.46635e-08
6.84995e-07
4.2217e-08
6.45099e-07
3.98952e-08
6.07407e-07
3.7692e-08
5.71805e-07
3.56021e-08
5.38186e-07
3.36198e-08
5.06445e-07
3.17403e-08
4.76487e-07
2.99584e-08
4.48217e-07
2.82696e-08
4.21548e-07
2.66693e-08
3.96395e-07
2.51533e-08
3.72677e-07
2.37175e-08
3.50319e-07
2.23579e-08
3.29249e-07
2.10708e-08
3.09396e-07
1.98527e-08
2.90696e-07
1.87001e-08
2.73086e-07
1.76097e-08
2.56507e-07
1.65786e-08
2.40904e-07
1.56036e-08
2.26222e-07
1.4682e-08
2.12411e-07
1.38111e-08
1.99422e-07
1.29882e-08
1.87211e-07
1.2211e-08
1.75734e-07
1.14771e-08
1.6495e-07
1.07842e-08
1.5482e-07
1.01303e-08
1.45307e-07
9.51331e-09
1.36375e-07
8.93131e-09
1.27993e-07
8.38246e-09
1.20128e-07
7.86501e-09
1.1275e-07
7.37733e-09
1.05833e-07
6.91778e-09
9.93477e-08
6.48493e-09
9.32705e-08
6.07727e-09
8.75769e-08
5.69352e-09
8.22446e-08
5.33231e-09
7.72521e-08
4.99249e-09
7.25793e-08
4.67281e-09
6.82071e-08
4.37225e-09
6.41174e-08
4.08967e-09
6.02932e-08
3.82416e-09
5.67186e-08
3.57468e-09
5.33782e-08
3.34041e-09
5.02577e-08
3.12044e-09
4.73437e-08
2.91401e-09
4.46234e-08
2.7203e-09
4.20848e-08
2.53864e-09
3.97165e-08
2.36829e-09
3.75078e-08
2.20865e-09
3.54488e-08
2.05905e-09
3.35298e-08
1.91895e-09
3.17421e-08
1.78776e-09
3.00771e-08
1.66499e-09
2.85269e-08
1.55013e-09
2.70842e-08
1.44273e-09
2.57419e-08
1.34232e-09
2.44934e-08
1.2485e-09
2.33325e-08
1.16088e-09
2.22534e-08
1.07909e-09
2.12507e-08
1.00277e-09
2.03191e-08
9.31605e-10
1.94538e-08
8.65277e-10
1.86503e-08
8.03492e-10
1.79043e-08
7.45993e-10
1.72118e-08
6.92499e-10
1.6569e-08
6.42791e-10
1.59724e-08
5.96624e-10
1.54186e-08
5.53802e-10
1.49045e-08
5.14119e-10
1.44271e-08
4.77404e-10
1.39836e-08
4.43449e-10
1.35714e-08
4.12179e-10
1.31882e-08
3.83266e-10
1.28312e-08
3.56948e-10
1.24988e-08
3.32377e-10
1.21881e-08
3.10763e-10
1.18984e-08
2.89699e-10
1.16254e-08
2.72952e-10
1.13713e-08
2.54158e-10
1.11282e-08
2.43025e-10
1.09035e-08
2.24735e-10
1.06829e-08
2.20587e-10
1.04819e-08
2.01008e-10
1.02769e-08
2.04974e-10
1.00945e-08
1.82426e-10
9.89875e-09
1.95762e-10
9.73066e-09
1.68096e-10
9.53817e-09
1.92484e-10
9.38096e-09
1.57215e-10
9.18806e-09
1.92897e-10
9.03486e-09
1.53206e-10
8.84479e-09
1.90066e-10
8.69056e-09
1.54228e-10
8.50477e-09
1.85794e-10
8.35061e-09
1.54162e-10
8.17186e-09
1.78743e-10
8.0233e-09
1.48568e-10
7.85484e-09
1.68457e-10
7.72167e-09
1.33164e-10
7.56205e-09
1.59629e-10
7.4538e-09
1.08245e-10
7.28912e-09
1.64684e-10
7.20482e-09
8.42907e-11
7.0074e-09
1.97422e-10
6.93023e-09
7.71747e-11
6.67871e-09
2.51516e-10
6.61459e-09
6.41275e-11
6.31579e-09
2.988e-10
6.29407e-09
2.17196e-11
5.9872e-09
3.0687e-10
6.01172e-09
-2.45234e-11
5.74807e-09
2.63652e-10
5.8997e-09
-1.51629e-10
5.72746e-09
1.72237e-10
5.93583e-09
-2.08375e-10
5.85957e-09
7.62682e-11
6.09787e-09
-2.38304e-10
6.07037e-09
2.74969e-11
6.31281e-09
-2.42433e-10
6.44805e-09
-1.3524e-10
6.69275e-09
-2.44706e-10
6.85952e-09
-1.66766e-10
7.0908e-09
-2.31285e-10
7.26928e-09
-1.78478e-10
7.48034e-09
-2.11054e-10
7.64999e-09
-1.69654e-10
7.83671e-09
-1.86722e-10
7.98579e-09
-1.49076e-10
8.14743e-09
-1.61641e-10
8.27245e-09
-1.25022e-10
8.41071e-09
-1.38256e-10
8.51319e-09
-1.0248e-10
8.63132e-09
-1.18133e-10
8.71533e-09
-8.40104e-11
8.81786e-09
-1.02535e-10
8.88892e-09
-7.10581e-11
8.98247e-09
-9.35463e-11
9.04798e-09
-6.55085e-11
9.14659e-09
-9.86122e-11
9.22161e-09
-7.50166e-11
9.39999e-09
-1.78382e-10
9.56864e-09
-1.68649e-10
1.23493e-08
-2.78064e-09
-2.76473e-09
2.30014e-06
2.62744e-07
2.17551e-06
2.49441e-07
2.05721e-06
2.36766e-07
1.94495e-06
2.24686e-07
1.83844e-06
2.1318e-07
1.7374e-06
2.0222e-07
1.64158e-06
1.91784e-07
1.55072e-06
1.81847e-07
1.46459e-06
1.72389e-07
1.38295e-06
1.63387e-07
1.3056e-06
1.54823e-07
1.23232e-06
1.46674e-07
1.1629e-06
1.38925e-07
1.09717e-06
1.31555e-07
1.03495e-06
1.24549e-07
9.76044e-07
1.17889e-07
9.20304e-07
1.11561e-07
8.67569e-07
1.05548e-07
8.17688e-07
9.98364e-08
7.70516e-07
9.44116e-08
7.25919e-07
8.92614e-08
6.83764e-07
8.43718e-08
6.43927e-07
7.97317e-08
6.06291e-07
7.53285e-08
5.70741e-07
7.11517e-08
5.37171e-07
6.719e-08
5.05477e-07
6.34337e-08
4.75563e-07
5.98725e-08
4.47336e-07
5.64973e-08
4.20706e-07
5.32991e-08
3.9559e-07
5.02693e-08
3.71907e-07
4.73998e-08
3.49583e-07
4.46826e-08
3.28543e-07
4.21104e-08
3.0872e-07
3.96759e-08
2.90048e-07
3.73724e-08
2.72464e-07
3.51933e-08
2.5591e-07
3.31326e-08
2.4033e-07
3.1184e-08
2.2567e-07
2.93422e-08
2.11879e-07
2.76015e-08
1.9891e-07
2.59571e-08
1.86717e-07
2.44037e-08
1.75258e-07
2.2937e-08
1.64489e-07
2.15523e-08
1.54374e-07
2.02455e-08
1.44875e-07
1.90124e-08
1.35957e-07
1.78492e-08
1.27588e-07
1.67523e-08
1.19734e-07
1.57182e-08
1.12368e-07
1.47436e-08
1.05461e-07
1.38251e-08
9.89856e-08
1.29601e-08
9.29174e-08
1.21454e-08
8.72325e-08
1.13785e-08
8.19083e-08
1.06566e-08
7.69233e-08
9.97744e-09
7.22576e-08
9.33855e-09
6.78919e-08
8.73788e-09
6.38085e-08
8.17315e-09
5.99901e-08
7.64251e-09
5.64209e-08
7.14393e-09
5.30855e-08
6.67574e-09
4.99698e-08
6.23613e-09
4.70603e-08
5.82358e-09
4.43441e-08
5.43646e-09
4.18093e-08
5.07341e-09
3.94447e-08
4.73297e-09
3.72394e-08
4.41392e-09
3.51835e-08
4.11495e-09
3.32675e-08
3.83496e-09
3.14824e-08
3.57279e-09
2.982e-08
3.32744e-09
2.82722e-08
3.09789e-09
2.68317e-08
2.88324e-09
2.54915e-08
2.68257e-09
2.42449e-08
2.49508e-09
2.30858e-08
2.31997e-09
2.20084e-08
2.15652e-09
2.10071e-08
2.004e-09
2.0077e-08
1.86178e-09
1.9213e-08
1.72922e-09
1.84108e-08
1.60575e-09
1.76659e-08
1.49084e-09
1.69745e-08
1.38393e-09
1.63327e-08
1.2846e-09
1.5737e-08
1.19233e-09
1.5184e-08
1.10676e-09
1.46707e-08
1.02745e-09
1.4194e-08
9.54081e-10
1.37512e-08
8.86228e-10
1.33397e-08
8.23732e-10
1.2957e-08
7.65967e-10
1.26006e-08
7.13349e-10
1.22687e-08
6.64298e-10
1.19584e-08
6.21018e-10
1.1669e-08
5.79122e-10
1.13966e-08
5.4534e-10
1.11425e-08
5.08231e-10
1.09001e-08
4.85408e-10
1.06753e-08
4.49536e-10
1.04554e-08
4.40484e-10
1.02542e-08
4.02212e-10
1.005e-08
4.0922e-10
9.86725e-09
3.65162e-10
9.67226e-09
3.90753e-10
9.50374e-09
3.36616e-10
9.31209e-09
3.84141e-10
9.15433e-09
3.14967e-10
8.96233e-09
3.84904e-10
8.80849e-09
3.07045e-10
8.61936e-09
3.79189e-10
8.46442e-09
3.09166e-10
8.27963e-09
3.70586e-10
8.12468e-09
3.09112e-10
7.94702e-09
3.56406e-10
7.79757e-09
2.98013e-10
7.6303e-09
3.35732e-10
7.49614e-09
2.67323e-10
7.33781e-09
3.17957e-10
7.22842e-09
2.17638e-10
7.06515e-09
3.27956e-10
6.97953e-09
1.69912e-10
6.78361e-09
3.93342e-10
6.70493e-09
1.5585e-10
6.45505e-09
5.01395e-10
6.38932e-09
1.29859e-10
6.09232e-09
5.95797e-10
6.06897e-09
4.50754e-11
5.76399e-09
6.11846e-10
5.78693e-09
-4.74583e-11
5.52535e-09
5.25233e-10
5.67539e-09
-3.01672e-10
5.50507e-09
3.42561e-10
5.71185e-09
-4.1516e-10
5.63737e-09
1.5075e-10
5.87405e-09
-4.74989e-10
5.84816e-09
5.33906e-11
6.08928e-09
-4.8355e-10
6.22597e-09
-2.7193e-10
6.46924e-09
-4.87984e-10
6.63725e-09
-3.3477e-10
6.86721e-09
-4.61242e-10
7.04677e-09
-3.5804e-10
7.25659e-09
-4.20877e-10
7.4272e-09
-3.40262e-10
7.61279e-09
-3.72316e-10
7.76272e-09
-2.99e-10
7.92334e-09
-3.22262e-10
8.04912e-09
-2.50805e-10
8.18646e-09
-2.75598e-10
8.28963e-09
-2.0565e-10
8.40695e-09
-2.3545e-10
8.49159e-09
-1.68649e-10
8.5934e-09
-2.04346e-10
8.66503e-09
-1.42693e-10
8.75794e-09
-1.86456e-10
8.82399e-09
-1.31559e-10
8.92206e-09
-1.9668e-10
8.99769e-09
-1.50647e-10
9.1755e-09
-3.56189e-10
9.34889e-09
-3.42036e-10
1.21099e-08
-5.54162e-09
-5.50796e-09
2.29777e-06
3.93913e-07
2.17324e-06
3.73968e-07
2.05504e-06
3.54964e-07
1.94287e-06
3.36854e-07
1.83645e-06
3.19604e-07
1.7355e-06
3.03172e-07
1.63975e-06
2.87527e-07
1.54897e-06
2.72629e-07
1.46291e-06
2.5845e-07
1.38135e-06
2.44953e-07
1.30406e-06
2.32113e-07
1.23083e-06
2.19896e-07
1.16148e-06
2.08279e-07
1.09581e-06
1.97229e-07
1.03363e-06
1.86726e-07
9.74778e-07
1.76741e-07
9.19085e-07
1.67254e-07
8.66394e-07
1.58239e-07
8.16555e-07
1.49676e-07
7.69423e-07
1.41543e-07
7.24863e-07
1.33822e-07
6.82744e-07
1.26491e-07
6.42941e-07
1.19535e-07
6.05337e-07
1.12933e-07
5.69817e-07
1.06671e-07
5.36276e-07
1.00732e-07
5.04609e-07
9.51001e-08
4.74721e-07
8.97611e-08
4.46517e-07
8.4701e-08
4.1991e-07
7.99062e-08
3.94815e-07
7.53639e-08
3.71153e-07
7.10619e-08
3.48848e-07
6.69882e-08
3.27826e-07
6.31319e-08
3.0802e-07
5.9482e-08
2.89364e-07
5.60287e-08
2.71795e-07
5.27617e-08
2.55256e-07
4.96722e-08
2.39689e-07
4.67509e-08
2.25041e-07
4.39896e-08
2.11263e-07
4.138e-08
1.98305e-07
3.89147e-08
1.86123e-07
3.65859e-08
1.74673e-07
3.4387e-08
1.63914e-07
3.2311e-08
1.53808e-07
3.03518e-08
1.44317e-07
2.85031e-08
1.35407e-07
2.67593e-08
1.27045e-07
2.51149e-08
1.19198e-07
2.35645e-08
1.11839e-07
2.21033e-08
1.04937e-07
2.07264e-08
9.8468e-08
1.94295e-08
9.24052e-08
1.82081e-08
8.67253e-08
1.70584e-08
8.14058e-08
1.59761e-08
7.64252e-08
1.4958e-08
7.17636e-08
1.40002e-08
6.74019e-08
1.30996e-08
6.3322e-08
1.2253e-08
5.95071e-08
1.14575e-08
5.5941e-08
1.071e-08
5.26087e-08
1.00081e-08
4.94958e-08
9.34903e-09
4.65888e-08
8.73054e-09
4.38751e-08
8.15018e-09
4.13426e-08
7.60589e-09
3.89801e-08
7.09551e-09
3.67768e-08
6.6172e-09
3.47228e-08
6.16899e-09
3.28085e-08
5.74924e-09
3.10251e-08
5.35619e-09
2.93641e-08
4.98837e-09
2.78178e-08
4.64424e-09
2.63786e-08
4.32243e-09
2.50396e-08
4.0216e-09
2.37941e-08
3.74053e-09
2.26361e-08
3.478e-09
2.15597e-08
3.23296e-09
2.05593e-08
3.00431e-09
1.963e-08
2.79109e-09
1.87669e-08
2.59237e-09
1.79654e-08
2.40727e-09
1.72212e-08
2.235e-09
1.65304e-08
2.07473e-09
1.58892e-08
1.92581e-09
1.5294e-08
1.7875e-09
1.47416e-08
1.6592e-09
1.42287e-08
1.54032e-09
1.37525e-08
1.43032e-09
1.33101e-08
1.3286e-09
1.28989e-08
1.23491e-09
1.25166e-08
1.14832e-09
1.21605e-08
1.06943e-09
1.18288e-08
9.95928e-10
1.15189e-08
9.30994e-10
1.12297e-08
8.68305e-10
1.09576e-08
8.17475e-10
1.07037e-08
7.62124e-10
1.04615e-08
7.27541e-10
1.02368e-08
6.7424e-10
1.00172e-08
6.60099e-10
9.816e-09
6.03421e-10
9.6121e-09
6.1312e-10
9.42923e-09
5.48029e-10
9.23468e-09
5.85304e-10
9.06587e-09
5.05419e-10
8.87479e-09
5.75224e-10
8.71658e-09
4.73184e-10
8.5253e-09
5.76184e-10
8.37082e-09
4.6152e-10
8.18257e-09
5.6744e-10
8.02684e-09
4.64894e-10
7.84307e-09
5.54357e-10
7.68717e-09
4.6501e-10
7.51071e-09
5.32865e-10
7.36013e-09
4.48597e-10
7.19428e-09
5.01583e-10
7.05875e-09
4.0285e-10
6.9021e-09
4.74611e-10
6.79106e-09
3.28679e-10
6.62971e-09
4.89299e-10
6.54212e-09
2.57503e-10
6.34837e-09
5.87095e-10
6.26741e-09
2.36812e-10
6.01998e-09
7.48822e-10
5.95171e-09
1.98132e-10
5.65748e-09
8.90028e-10
5.63142e-09
7.11347e-11
5.32941e-09
9.13853e-10
5.34957e-09
-6.76177e-11
5.09123e-09
7.83577e-10
5.23847e-09
-4.48917e-10
5.07128e-09
5.09754e-10
5.27528e-09
-6.19157e-10
5.20374e-09
2.22283e-10
5.43771e-09
-7.0896e-10
5.41446e-09
7.66467e-11
5.6533e-09
-7.22395e-10
5.79233e-09
-4.10962e-10
6.03343e-09
-7.29082e-10
6.20336e-09
-5.04703e-10
6.43143e-09
-6.89303e-10
6.61259e-09
-5.39203e-10
6.82078e-09
-6.29064e-10
6.9927e-09
-5.12183e-10
7.1769e-09
-5.56522e-10
7.3279e-09
-4.49993e-10
7.48736e-09
-4.81726e-10
7.61401e-09
-3.77454e-10
7.7504e-09
-4.1199e-10
7.85427e-09
-3.09518e-10
7.97082e-09
-3.51999e-10
8.05602e-09
-2.53847e-10
8.15722e-09
-3.05549e-10
8.2293e-09
-2.14772e-10
8.32174e-09
-2.789e-10
8.38815e-09
-1.97967e-10
8.48589e-09
-2.94418e-10
8.5619e-09
-2.2666e-10
8.73924e-09
-5.33531e-10
8.91626e-09
-5.19053e-10
1.16265e-08
-8.25187e-09
-8.20398e-09
2.29592e-06
5.25013e-07
2.17146e-06
4.9843e-07
2.05332e-06
4.73101e-07
1.94121e-06
4.48963e-07
1.83484e-06
4.25973e-07
1.73394e-06
4.04071e-07
1.63825e-06
3.83219e-07
1.54751e-06
3.63362e-07
1.4615e-06
3.44464e-07
1.37998e-06
3.26476e-07
1.30273e-06
3.09363e-07
1.22954e-06
2.9308e-07
1.16023e-06
2.77595e-07
1.09459e-06
2.62869e-07
1.03244e-06
2.4887e-07
9.73623e-07
2.35562e-07
9.1796e-07
2.22917e-07
8.65298e-07
2.10901e-07
8.15485e-07
1.99489e-07
7.68379e-07
1.88649e-07
7.23843e-07
1.78358e-07
6.81746e-07
1.68588e-07
6.41965e-07
1.59316e-07
6.0438e-07
1.50517e-07
5.6888e-07
1.42171e-07
5.35357e-07
1.34255e-07
5.03707e-07
1.26749e-07
4.73835e-07
1.19633e-07
4.45647e-07
1.12889e-07
4.19054e-07
1.06499e-07
3.93973e-07
1.00445e-07
3.70324e-07
9.47109e-08
3.48031e-07
8.92815e-08
3.27021e-07
8.41418e-08
3.07226e-07
7.92773e-08
2.8858e-07
7.46746e-08
2.71021e-07
7.03204e-08
2.54491e-07
6.62027e-08
2.38932e-07
6.23091e-08
2.24293e-07
5.86289e-08
2.10522e-07
5.51508e-08
1.97572e-07
5.1865e-08
1.85397e-07
4.87612e-08
1.73953e-07
4.58305e-08
1.632e-07
4.30636e-08
1.531e-07
4.04524e-08
1.43614e-07
3.79885e-08
1.34709e-07
3.56644e-08
1.26352e-07
3.34727e-08
1.1851e-07
3.14063e-08
1.11154e-07
2.94589e-08
1.04257e-07
2.76238e-08
9.7791e-08
2.58953e-08
9.17318e-08
2.42674e-08
8.60551e-08
2.2735e-08
8.07387e-08
2.12926e-08
7.5761e-08
1.99356e-08
7.11021e-08
1.86591e-08
6.67429e-08
1.74589e-08
6.26654e-08
1.63305e-08
5.88527e-08
1.52702e-08
5.52887e-08
1.4274e-08
5.19583e-08
1.33385e-08
4.88472e-08
1.24601e-08
4.5942e-08
1.16358e-08
4.32299e-08
1.08623e-08
4.06989e-08
1.01369e-08
3.83377e-08
9.45665e-09
3.61358e-08
8.81917e-09
3.40829e-08
8.22181e-09
3.21698e-08
7.66237e-09
3.03875e-08
7.13853e-09
2.87275e-08
6.6483e-09
2.71821e-08
6.18966e-09
2.57438e-08
5.76076e-09
2.44056e-08
5.35983e-09
2.31609e-08
4.98522e-09
2.20035e-08
4.63533e-09
2.09278e-08
4.30875e-09
1.99281e-08
4.00401e-09
1.89993e-08
3.71985e-09
1.81367e-08
3.455e-09
1.73357e-08
3.2083e-09
1.65919e-08
2.9787e-09
1.59016e-08
2.76511e-09
1.52607e-08
2.56663e-09
1.46659e-08
2.38229e-09
1.41138e-08
2.21131e-09
1.36013e-08
2.05287e-09
1.31253e-08
1.90627e-09
1.26832e-08
1.77071e-09
1.22723e-08
1.64584e-09
1.18902e-08
1.53045e-09
1.15343e-08
1.42529e-09
1.12029e-08
1.32737e-09
1.08931e-08
1.24078e-09
1.0604e-08
1.15734e-09
1.03321e-08
1.08943e-09
1.00783e-08
1.01593e-09
9.83637e-09
9.69465e-10
9.61166e-09
8.98947e-10
9.39232e-09
8.79435e-10
9.19098e-09
8.04763e-10
8.98747e-09
8.16631e-10
8.80431e-09
7.31195e-10
8.6103e-09
7.79309e-10
8.44099e-09
6.74733e-10
8.25066e-09
7.65548e-10
8.09168e-09
6.32165e-10
7.9014e-09
7.66463e-10
7.74591e-09
6.1701e-10
7.55889e-09
7.54463e-10
7.40192e-09
6.2186e-10
7.21961e-09
7.36674e-10
7.06223e-09
6.22386e-10
6.88749e-09
7.07603e-10
6.73515e-09
6.00938e-10
6.57135e-09
6.65386e-10
6.43372e-09
5.40474e-10
6.27949e-09
6.2884e-10
6.16595e-09
4.42219e-10
6.00742e-09
6.47829e-10
5.91688e-09
3.48044e-10
5.72632e-09
7.77658e-10
5.64195e-09
3.21185e-10
5.39813e-09
9.92635e-10
5.32605e-09
2.70216e-10
5.03588e-09
1.1802e-09
5.00573e-09
1.01291e-10
4.7081e-09
1.21148e-09
4.72399e-09
-8.35009e-11
4.47039e-09
1.03718e-09
4.61329e-09
-5.91823e-10
4.45077e-09
6.72277e-10
4.65046e-09
-8.18846e-10
4.58336e-09
2.89385e-10
4.8132e-09
-9.38805e-10
4.79394e-09
9.59086e-11
5.02924e-09
-9.57691e-10
5.17183e-09
-5.53558e-10
5.40967e-09
-9.66919e-10
5.58256e-09
-6.77593e-10
5.80781e-09
-9.14557e-10
5.99144e-09
-7.22832e-10
6.19724e-09
-8.3486e-10
6.37119e-09
-6.86132e-10
6.55338e-09
-7.38718e-10
6.70603e-09
-6.02642e-10
6.86383e-09
-6.39522e-10
6.99182e-09
-5.0545e-10
7.12685e-09
-5.47016e-10
7.2318e-09
-4.14473e-10
7.34725e-09
-4.67445e-10
7.43332e-09
-3.39916e-10
7.53365e-09
-4.05877e-10
7.60642e-09
-2.87542e-10
7.69819e-09
-3.70671e-10
7.76514e-09
-2.64922e-10
7.8624e-09
-3.91672e-10
7.93893e-09
-3.03188e-10
8.11557e-09
-7.10172e-10
8.29546e-09
-6.98942e-10
1.09154e-08
-1.08718e-08
-1.08125e-08
2.29426e-06
6.56064e-07
2.16984e-06
6.22846e-07
2.05175e-06
5.91195e-07
1.93968e-06
5.61031e-07
1.83335e-06
5.32302e-07
1.73249e-06
5.04933e-07
1.63683e-06
4.78876e-07
1.54613e-06
4.54062e-07
1.46015e-06
4.30447e-07
1.37866e-06
4.07968e-07
1.30144e-06
3.86583e-07
1.22828e-06
3.66235e-07
1.15899e-06
3.46886e-07
1.09338e-06
3.28483e-07
1.03126e-06
3.1099e-07
9.72461e-07
2.9436e-07
9.16819e-07
2.78559e-07
8.64177e-07
2.63544e-07
8.14383e-07
2.49282e-07
7.67295e-07
2.35737e-07
7.22776e-07
2.22877e-07
6.80696e-07
2.10668e-07
6.4093e-07
1.99082e-07
6.0336e-07
1.88087e-07
5.67874e-07
1.77658e-07
5.34364e-07
1.67766e-07
5.02727e-07
1.58386e-07
4.72866e-07
1.49494e-07
4.44689e-07
1.41067e-07
4.18107e-07
1.33081e-07
3.93036e-07
1.25516e-07
3.69397e-07
1.18351e-07
3.47112e-07
1.11566e-07
3.26111e-07
1.05143e-07
3.06323e-07
9.90645e-08
2.87685e-07
9.33131e-08
2.70133e-07
8.7872e-08
2.5361e-07
8.27265e-08
2.38058e-07
7.78611e-08
2.23424e-07
7.32623e-08
2.09659e-07
6.8916e-08
1.96714e-07
6.48101e-08
1.84544e-07
6.09315e-08
1.73105e-07
5.72693e-08
1.62357e-07
5.38118e-08
1.5226e-07
5.05489e-08
1.42779e-07
4.74699e-08
1.33877e-07
4.45657e-08
1.25523e-07
4.1827e-08
1.17685e-07
3.92449e-08
1.10332e-07
3.68114e-08
1.03438e-07
3.45182e-08
9.69747e-08
3.23583e-08
9.0918e-08
3.03241e-08
8.52438e-08
2.84092e-08
7.99296e-08
2.66068e-08
7.4954e-08
2.49111e-08
7.02971e-08
2.3316e-08
6.59398e-08
2.18162e-08
6.18641e-08
2.04062e-08
5.8053e-08
1.90813e-08
5.44906e-08
1.78364e-08
5.11616e-08
1.66674e-08
4.80519e-08
1.55698e-08
4.51479e-08
1.45398e-08
4.2437e-08
1.35732e-08
3.99071e-08
1.26668e-08
3.7547e-08
1.18168e-08
3.53461e-08
1.10202e-08
3.32941e-08
1.02737e-08
3.13819e-08
9.57465e-09
2.96003e-08
8.92007e-09
2.79411e-08
8.30749e-09
2.63964e-08
7.73438e-09
2.49587e-08
7.19845e-09
2.36211e-08
6.69745e-09
2.2377e-08
6.22934e-09
2.12202e-08
5.79214e-09
2.01449e-08
5.38404e-09
1.91456e-08
5.00326e-09
1.82173e-08
4.64817e-09
1.73551e-08
4.31723e-09
1.65544e-08
4.00896e-09
1.58111e-08
3.72207e-09
1.5121e-08
3.45517e-09
1.44805e-08
3.20716e-09
1.3886e-08
2.97682e-09
1.33341e-08
2.76317e-09
1.28218e-08
2.56519e-09
1.2346e-08
2.382e-09
1.19041e-08
2.21262e-09
1.14934e-08
2.05658e-09
1.11114e-08
1.91241e-09
1.07557e-08
1.78099e-09
1.04244e-08
1.65867e-09
1.01148e-08
1.55041e-09
9.82587e-09
1.44627e-09
9.55407e-09
1.36123e-09
9.30031e-09
1.26969e-09
9.05858e-09
1.21119e-09
8.8338e-09
1.12373e-09
8.61477e-09
1.09847e-09
8.41319e-09
1.00634e-09
8.21014e-09
1.01968e-09
8.02653e-09
9.14803e-10
7.8332e-09
9.72643e-10
7.66317e-09
8.44757e-10
7.4738e-09
9.54919e-10
7.31378e-09
7.92185e-10
7.12478e-09
9.55466e-10
6.96792e-09
7.73867e-10
6.78248e-09
9.39907e-10
6.62385e-09
7.80491e-10
6.44341e-09
9.1711e-10
6.28406e-09
7.8174e-10
6.11156e-09
8.80103e-10
5.95686e-09
7.55633e-10
5.79573e-09
8.26521e-10
5.6553e-09
6.80902e-10
5.50424e-09
7.79904e-10
5.38737e-09
5.5909e-10
5.23253e-09
8.02667e-10
5.13807e-09
4.42501e-10
4.95172e-09
9.64006e-10
4.86282e-09
4.10085e-10
4.6238e-09
1.23166e-09
4.54662e-09
3.47388e-10
4.26184e-09
1.46498e-09
4.22616e-09
1.36973e-10
3.93438e-09
1.50326e-09
3.94444e-09
-9.35635e-11
3.69715e-09
1.28446e-09
3.83412e-09
-7.28789e-10
3.67787e-09
8.28525e-10
3.87167e-09
-1.01265e-09
3.81054e-09
3.50516e-10
4.03479e-09
-1.16306e-09
4.02092e-09
1.09783e-10
4.25137e-09
-1.18814e-09
4.39877e-09
-7.00963e-10
4.63225e-09
-1.2004e-09
4.80913e-09
-8.5447e-10
5.03066e-09
-1.13609e-09
5.21761e-09
-9.0978e-10
5.42026e-09
-1.03751e-09
5.59694e-09
-8.62812e-10
5.77651e-09
-9.18287e-10
5.93139e-09
-7.57522e-10
6.08702e-09
-7.95149e-10
6.21683e-09
-6.35258e-10
6.35008e-09
-6.8027e-10
6.4565e-09
-5.20893e-10
6.57052e-09
-5.81461e-10
6.65776e-09
-4.27158e-10
6.75695e-09
-5.0507e-10
6.83065e-09
-3.61242e-10
6.92155e-09
-4.61568e-10
6.98924e-09
-3.3261e-10
7.08586e-09
-4.88294e-10
7.16304e-09
-3.80365e-10
7.33873e-09
-8.85866e-10
7.5207e-09
-8.80913e-10
9.99689e-09
-1.3348e-08
-1.32791e-08
2.29266e-06
7.87077e-07
2.16828e-06
7.47225e-07
2.05022e-06
7.09253e-07
1.93819e-06
6.73066e-07
1.83189e-06
6.38599e-07
1.73106e-06
6.05765e-07
1.63543e-06
5.74503e-07
1.54476e-06
5.44734e-07
1.4588e-06
5.16403e-07
1.37733e-06
4.89435e-07
1.30014e-06
4.6378e-07
1.227e-06
4.39369e-07
1.15773e-06
4.16155e-07
1.09214e-06
3.94077e-07
1.03004e-06
3.73091e-07
9.71258e-07
3.5314e-07
9.15634e-07
3.34183e-07
8.63008e-07
3.1617e-07
8.1323e-07
2.9906e-07
7.66157e-07
2.8281e-07
7.21652e-07
2.67382e-07
6.79585e-07
2.52735e-07
6.39831e-07
2.38835e-07
6.02274e-07
2.25645e-07
5.66799e-07
2.13133e-07
5.33299e-07
2.01265e-07
5.01672e-07
1.90013e-07
4.71821e-07
1.79345e-07
4.43653e-07
1.69235e-07
4.1708e-07
1.59654e-07
3.92017e-07
1.50578e-07
3.68385e-07
1.41983e-07
3.46108e-07
1.33843e-07
3.25113e-07
1.26138e-07
3.05332e-07
1.18845e-07
2.867e-07
1.11945e-07
2.69154e-07
1.05418e-07
2.52636e-07
9.92448e-08
2.37089e-07
9.34078e-08
2.22461e-07
8.78907e-08
2.087e-07
8.26766e-08
1.95759e-07
7.77508e-08
1.83593e-07
7.30978e-08
1.72158e-07
6.87043e-08
1.61414e-07
6.45564e-08
1.51321e-07
6.06419e-08
1.41842e-07
5.69481e-08
1.32944e-07
5.3464e-08
1.24593e-07
5.01784e-08
1.16757e-07
4.70807e-08
1.09407e-07
4.41613e-08
1.02515e-07
4.14103e-08
9.60542e-08
3.8819e-08
8.99996e-08
3.63787e-08
8.43274e-08
3.40814e-08
7.9015e-08
3.19191e-08
7.40413e-08
2.98849e-08
6.9386e-08
2.79712e-08
6.50302e-08
2.6172e-08
6.0956e-08
2.44804e-08
5.71463e-08
2.2891e-08
5.35852e-08
2.13975e-08
5.02574e-08
1.99952e-08
4.71488e-08
1.86784e-08
4.42459e-08
1.74427e-08
4.1536e-08
1.62831e-08
3.90071e-08
1.51957e-08
3.66478e-08
1.4176e-08
3.44477e-08
1.32203e-08
3.23965e-08
1.23249e-08
3.0485e-08
1.14862e-08
2.87041e-08
1.07009e-08
2.70455e-08
9.96605e-09
2.55014e-08
9.27852e-09
2.40643e-08
8.63558e-09
2.27271e-08
8.03455e-09
2.14835e-08
7.47299e-09
2.03271e-08
6.9485e-09
1.92523e-08
6.45893e-09
1.82534e-08
6.00212e-09
1.73254e-08
5.57614e-09
1.64635e-08
5.17912e-09
1.56632e-08
4.80931e-09
1.49201e-08
4.46514e-09
1.42303e-08
4.14496e-09
1.359e-08
3.84743e-09
1.29958e-08
3.57111e-09
1.24441e-08
3.31481e-09
1.1932e-08
3.0773e-09
1.14565e-08
2.85755e-09
1.10147e-08
2.65436e-09
1.06041e-08
2.46717e-09
1.02223e-08
2.29423e-09
9.86675e-09
2.13655e-09
9.53556e-09
1.98987e-09
9.22606e-09
1.85991e-09
8.93721e-09
1.73512e-09
8.66556e-09
1.63288e-09
8.41179e-09
1.52345e-09
8.17028e-09
1.4527e-09
7.94537e-09
1.34864e-09
7.72668e-09
1.31716e-09
7.52479e-09
1.20823e-09
7.32227e-09
1.2222e-09
7.13809e-09
1.09898e-09
6.94556e-09
1.16518e-09
6.77464e-09
1.01567e-09
6.58642e-09
1.14314e-09
6.42511e-09
9.53495e-10
6.23765e-09
1.14293e-09
6.0791e-09
9.32418e-10
5.89557e-09
1.12343e-09
5.73488e-09
9.41181e-10
5.55674e-09
1.09525e-09
5.39493e-09
9.43549e-10
5.22517e-09
1.04987e-09
5.06755e-09
9.13254e-10
4.90969e-09
9.84379e-10
4.76577e-09
8.24821e-10
4.61861e-09
9.27066e-10
4.49759e-09
6.80109e-10
4.34732e-09
9.52934e-10
4.24799e-09
5.41839e-10
4.06688e-09
1.14511e-09
3.97232e-09
5.04646e-10
3.73928e-09
1.4647e-09
3.65571e-09
4.30958e-10
3.37771e-09
1.74298e-09
3.33501e-09
1.79678e-10
3.05063e-09
1.78764e-09
3.05319e-09
-9.61261e-11
2.81394e-09
1.52372e-09
2.9432e-09
-8.58054e-10
2.795e-09
9.76733e-10
2.98118e-09
-1.19883e-09
2.9277e-09
4.03996e-10
3.14478e-09
-1.38014e-09
3.13778e-09
1.16782e-10
3.36198e-09
-1.41234e-09
3.51549e-09
-8.5447e-10
3.74348e-09
-1.42839e-09
3.92539e-09
-1.03639e-09
4.14228e-09
-1.35298e-09
4.33341e-09
-1.10091e-09
4.53217e-09
-1.23627e-09
4.71227e-09
-1.04292e-09
4.88861e-09
-1.09463e-09
5.04629e-09
-9.15194e-10
5.19926e-09
-9.48122e-10
5.33133e-09
-7.67331e-10
5.46242e-09
-8.11361e-10
5.57067e-09
-6.29141e-10
5.68294e-09
-6.93734e-10
5.77165e-09
-5.15865e-10
5.86946e-09
-6.0288e-10
5.94432e-09
-4.36104e-10
6.03415e-09
-5.51396e-10
6.10275e-09
-4.01211e-10
6.1986e-09
-5.84139e-10
6.27655e-09
-4.58316e-10
6.45102e-09
-1.06034e-09
6.63418e-09
-1.06407e-09
8.90381e-09
-1.56176e-08
-1.55398e-08
2.29107e-06
9.18056e-07
2.16673e-06
8.71572e-07
2.0487e-06
8.2728e-07
1.93669e-06
7.8507e-07
1.83042e-06
7.44868e-07
1.72962e-06
7.06569e-07
1.63402e-06
6.70106e-07
1.54337e-06
6.35383e-07
1.45744e-06
6.02336e-07
1.37599e-06
5.7088e-07
1.29882e-06
5.40955e-07
1.2257e-06
5.12482e-07
1.15645e-06
4.85406e-07
1.09087e-06
4.59654e-07
1.02879e-06
4.35175e-07
9.70027e-07
4.11904e-07
9.14418e-07
3.89792e-07
8.61806e-07
3.68781e-07
8.12042e-07
3.48825e-07
7.64982e-07
3.2987e-07
7.20489e-07
3.11875e-07
6.78434e-07
2.9479e-07
6.38692e-07
2.78577e-07
6.01145e-07
2.63192e-07
5.6568e-07
2.48598e-07
5.3219e-07
2.34755e-07
5.00572e-07
2.2163e-07
4.7073e-07
2.09188e-07
4.4257e-07
1.97395e-07
4.16004e-07
1.8622e-07
3.90949e-07
1.75634e-07
3.67323e-07
1.65608e-07
3.45053e-07
1.56114e-07
3.24064e-07
1.47127e-07
3.04289e-07
1.3862e-07
2.85663e-07
1.30572e-07
2.68122e-07
1.22958e-07
2.51609e-07
1.15758e-07
2.36066e-07
1.0895e-07
2.21442e-07
1.02515e-07
2.07686e-07
9.64331e-08
1.94749e-07
9.06875e-08
1.82587e-07
8.52603e-08
1.71155e-07
8.01358e-08
1.60414e-07
7.52976e-08
1.50324e-07
7.07318e-08
1.40849e-07
6.64234e-08
1.31953e-07
6.23596e-08
1.23604e-07
5.85272e-08
1.15771e-07
5.49141e-08
1.08423e-07
5.15089e-08
1.01534e-07
4.83001e-08
9.50749e-08
4.52777e-08
8.90222e-08
4.24313e-08
8.33518e-08
3.97519e-08
7.80412e-08
3.72298e-08
7.3069e-08
3.4857e-08
6.84153e-08
3.26249e-08
6.40609e-08
3.05263e-08
5.9988e-08
2.85533e-08
5.61796e-08
2.66994e-08
5.26196e-08
2.49575e-08
4.92929e-08
2.33218e-08
4.61854e-08
2.1786e-08
4.32835e-08
2.03446e-08
4.05744e-08
1.89922e-08
3.80463e-08
1.77238e-08
3.56879e-08
1.65344e-08
3.34885e-08
1.54198e-08
3.14381e-08
1.43753e-08
2.95271e-08
1.33971e-08
2.77469e-08
1.24812e-08
2.60889e-08
1.1624e-08
2.45453e-08
1.08221e-08
2.31087e-08
1.00722e-08
2.1772e-08
9.37119e-09
2.05288e-08
8.7162e-09
1.93729e-08
8.10445e-09
1.82984e-08
7.53343e-09
1.72999e-08
7.00062e-09
1.63722e-08
6.50377e-09
1.55106e-08
6.04071e-09
1.47106e-08
5.60937e-09
1.39678e-08
5.20794e-09
1.32782e-08
4.8345e-09
1.26382e-08
4.48748e-09
1.20441e-08
4.16519e-09
1.14927e-08
3.86625e-09
1.09807e-08
3.58924e-09
1.05053e-08
3.33293e-09
1.00638e-08
3.09594e-09
9.65333e-09
2.8776e-09
9.27164e-09
2.67591e-09
8.91621e-09
2.49198e-09
8.58512e-09
2.32096e-09
8.27575e-09
2.16928e-09
7.98695e-09
2.02392e-09
7.71545e-09
1.90438e-09
7.46167e-09
1.77724e-09
7.22038e-09
1.69399e-09
6.9953e-09
1.57372e-09
6.77699e-09
1.53547e-09
6.57471e-09
1.41051e-09
6.3728e-09
1.42411e-09
6.18795e-09
1.28383e-09
5.99633e-09
1.3568e-09
5.82437e-09
1.18764e-09
5.63746e-09
1.33005e-09
5.47465e-09
1.11631e-09
5.28897e-09
1.3286e-09
5.12843e-09
1.09295e-09
4.94714e-09
1.30472e-09
4.78403e-09
1.1043e-09
4.60857e-09
1.27071e-09
4.44386e-09
1.10826e-09
4.27731e-09
1.21641e-09
4.11622e-09
1.07434e-09
3.96223e-09
1.13837e-09
3.81416e-09
9.72896e-10
3.67162e-09
1.0696e-09
3.54565e-09
8.06083e-10
3.40083e-09
1.09775e-09
3.29564e-09
6.47029e-10
3.12085e-09
1.3199e-09
3.01946e-09
6.06036e-10
2.79368e-09
1.69048e-09
2.7023e-09
5.22341e-10
2.43261e-09
2.01267e-09
2.38119e-09
2.31091e-10
2.10603e-09
2.0628e-09
2.09914e-09
-8.92372e-11
1.86998e-09
1.75287e-09
1.98942e-09
-9.77489e-10
1.85139e-09
1.11476e-09
2.02786e-09
-1.3753e-09
1.98403e-09
4.47828e-10
2.19207e-09
-1.58817e-09
2.19367e-09
1.15177e-10
2.41005e-09
-1.62872e-09
2.57109e-09
-1.01552e-09
2.79234e-09
-1.64963e-09
2.98041e-09
-1.22446e-09
3.19168e-09
-1.56425e-09
3.38786e-09
-1.29708e-09
3.58198e-09
-1.43039e-09
3.76619e-09
-1.22713e-09
3.93871e-09
-1.26715e-09
4.09971e-09
-1.07619e-09
4.24956e-09
-1.09797e-09
4.38433e-09
-9.02096e-10
4.51289e-09
-9.39919e-10
4.6233e-09
-7.39558e-10
4.73354e-09
-8.03968e-10
4.82398e-09
-6.06309e-10
4.92017e-09
-6.99072e-10
4.99641e-09
-5.12342e-10
5.08499e-09
-6.39975e-10
5.15467e-09
-4.70894e-10
5.24961e-09
-6.7907e-10
5.32845e-09
-5.37165e-10
5.50143e-09
-1.23331e-09
5.68489e-09
-1.24753e-09
7.68705e-09
-1.76198e-08
-1.75326e-08
2.28952e-06
1.049e-06
2.1652e-06
9.95888e-07
2.04721e-06
9.45278e-07
1.93523e-06
8.97048e-07
1.82899e-06
8.5111e-07
1.72821e-06
8.07349e-07
1.63263e-06
7.65684e-07
1.542e-06
7.26008e-07
1.45609e-06
6.88248e-07
1.37467e-06
6.52305e-07
1.29751e-06
6.18112e-07
1.22441e-06
5.85577e-07
1.15518e-06
5.54639e-07
1.08962e-06
5.25214e-07
1.02755e-06
4.97243e-07
9.68804e-07
4.70653e-07
9.13209e-07
4.45387e-07
8.60611e-07
4.21379e-07
8.1086e-07
3.98576e-07
7.63812e-07
3.76918e-07
7.19331e-07
3.56355e-07
6.77287e-07
3.36834e-07
6.37556e-07
3.18309e-07
6.00018e-07
3.00729e-07
5.64563e-07
2.84053e-07
5.31082e-07
2.68237e-07
4.99472e-07
2.5324e-07
4.69638e-07
2.39022e-07
4.41486e-07
2.25547e-07
4.14927e-07
2.12779e-07
3.89878e-07
2.00683e-07
3.6626e-07
1.89226e-07
3.43995e-07
1.78378e-07
3.23012e-07
1.68109e-07
3.03243e-07
1.5839e-07
2.84621e-07
1.49194e-07
2.67086e-07
1.40494e-07
2.50577e-07
1.32267e-07
2.35039e-07
1.24488e-07
2.20419e-07
1.17135e-07
2.06667e-07
1.10186e-07
1.93733e-07
1.03621e-07
1.81574e-07
9.74193e-08
1.70146e-07
9.15639e-08
1.59408e-07
8.60358e-08
1.49321e-07
8.08187e-08
1.39849e-07
7.58959e-08
1.30956e-07
7.12525e-08
1.22609e-07
6.68736e-08
1.14778e-07
6.27452e-08
1.07433e-07
5.88543e-08
1.00545e-07
5.51879e-08
9.40882e-08
5.17345e-08
8.80373e-08
4.84822e-08
8.23686e-08
4.54206e-08
7.70596e-08
4.25388e-08
7.2089e-08
3.98277e-08
6.74367e-08
3.72772e-08
6.30837e-08
3.48794e-08
5.9012e-08
3.2625e-08
5.52047e-08
3.05067e-08
5.16459e-08
2.85164e-08
4.83203e-08
2.66474e-08
4.52137e-08
2.48925e-08
4.23127e-08
2.32457e-08
3.96045e-08
2.17003e-08
3.70772e-08
2.02511e-08
3.47196e-08
1.88921e-08
3.25209e-08
1.76185e-08
3.04711e-08
1.64251e-08
2.85608e-08
1.53074e-08
2.67811e-08