/*--------------------------------*- C++ -*----------------------------------*\
| =========                 |                                                 |
| \\      /  F ield         | OpenFOAM: The Open Source CFD Toolbox           |
|  \\    /   O peration     | Version:  v1912                                 |
|   \\  /    A nd           | Website:  www.openfoam.com                      |
|    \\/     M anipulation  |                                                 |
\*---------------------------------------------------------------------------*/
FoamFile
{
    version     2.0;
    format      ascii;
    class       surfaceScalarField;
    location    "60";
    object      alphaPhi0.water;
}
// * * * * * * * * * * * * * * * * * * * * * * * * * * * * * * * * * * * * * //

dimensions      [0 3 -1 0 0 0 0];
oriented        oriented;


internalField   nonuniform List<scalar> 
28285
(
-1.55109e-06
1.91514e-06
-3.47899e-07
-1.31058e-06
3.5851e-06
-6.31079e-06
8.39079e-06
-2.80835e-06
3.03913e-06
5.28165e-06
-3.38039e-07
2.79807e-06
-1.38006e-06
9.51474e-07
-1.26853e-06
-2.2045e-08
-2.48931e-06
-9.68046e-08
-1.34383e-06
-1.16616e-06
-2.22069e-06
8.97539e-07
-4.72178e-06
5.00093e-07
-3.71543e-06
-2.18067e-07
-1.83835e-06
1.15664e-07
2.63529e-08
-2.17171e-06
1.79108e-06
-1.26131e-06
2.22716e-06
-1.13656e-06
1.22323e-06
-3.6293e-10
1.16125e-06
6.19726e-08
1.16264e-06
-1.38459e-09
-9.66456e-07
1.59838e-06
-2.82404e-06
2.31392e-06
-1.13408e-06
-9.6223e-07
8.0097e-09
-1.14039e-06
-8.57874e-07
8.64178e-07
-7.7041e-07
2.04096e-07
-6.04672e-07
-2.19146e-10
-2.927e-07
-1.77335e-07
8.36042e-08
-3.11999e-07
4.96464e-08
1.93145e-08
-4.99825e-08
4.39912e-07
-5.84813e-08
7.39552e-09
-6.23071e-08
4.92909e-09
-1.76216e-07
1.14022e-07
-3.49354e-07
1.61149e-07
-3.73171e-07
2.43193e-08
-3.4753e-07
-2.50368e-08
-3.01795e-07
-1.26939e-08
-3.1348e-07
-2.97894e-09
-3.08891e-07
1.19696e-08
-3.28853e-07
1.98434e-08
-3.89972e-07
7.52741e-08
-1.65173e-06
2.09022e-08
-2.06158e-06
5.671e-09
-2.03647e-06
-1.55133e-07
-1.99978e-06
-1.55936e-07
-2.00221e-06
-3.39615e-08
-2.03459e-06
5.07632e-08
-2.26327e-06
2.01827e-07
-2.37386e-06
1.25793e-07
-1.47058e-06
5.65616e-08
-8.38513e-07
1.95095e-08
-7.31282e-07
-7.44011e-09
-6.85704e-07
-4.79162e-08
-6.43306e-07
-5.51756e-08
-6.22173e-07
-3.7843e-08
-5.81711e-07
-5.69625e-08
-4.86207e-07
-8.3394e-08
-3.95112e-07
-4.54691e-08
-3.63271e-07
-3.2445e-08
-3.36618e-07
-2.60485e-08
-3.23612e-07
-1.36103e-08
-5.38743e-07
1.80091e-08
-6.35183e-07
-4.04061e-08
-5.75568e-07
-3.16174e-08
-6.18488e-07
7.63819e-09
-7.01293e-07
1.06172e-07
-7.89592e-07
5.2838e-08
-7.93033e-07
1.55186e-08
-6.52391e-07
-2.97769e-08
-5.26241e-07
-2.65438e-08
-5.03119e-07
-6.71195e-09
-5.48781e-07
1.42703e-08
-7.1471e-07
2.57447e-08
-8.07559e-07
2.46451e-08
-8.05533e-07
2.19994e-08
-8.20299e-07
-9.25867e-09
-2.6407e-07
-5.24347e-09
-1.42458e-07
-1.57599e-08
-1.22359e-07
-4.07396e-08
-1.47261e-07
2.61406e-10
-3.33748e-07
2.94047e-08
-4.00951e-07
5.7814e-08
-4.16384e-07
2.48218e-08
-4.09005e-07
6.8667e-09
-3.36689e-07
-2.20903e-08
-2.56648e-07
1.70994e-08
-2.03799e-07
7.53261e-09
-1.69842e-07
1.51952e-10
-1.47814e-07
-1.68914e-08
-1.32793e-07
-2.01571e-08
-1.21224e-07
-6.43278e-09
-1.55519e-07
1.01851e-08
-1.68868e-07
-9.55401e-09
-1.76848e-07
-8.79808e-09
-1.27372e-07
-7.46782e-09
-1.70771e-08
-3.74498e-08
1.4702e-07
-1.64098e-07
1.77583e-07
-3.05628e-08
1.0356e-07
7.73256e-09
4.80717e-08
-3.98109e-10
5.06744e-08
-2.60379e-09
4.47995e-08
5.876e-09
1.45957e-08
3.953e-08
-7.03743e-07
4.83733e-07
-2.47948e-06
-1.08106e-06
3.83638e-06
-2.38742e-05
6.02708e-06
-1.30428e-05
2.61463e-06
2.99088e-06
-1.32514e-06
6.3466e-06
-2.73759e-06
6.45409e-06
-1.56773e-06
9.05831e-07
-2.0081e-06
9.67174e-08
-1.76185e-06
-2.15275e-06
-1.34947e-06
3.01692e-07
-3.16045e-06
1.8391e-06
-3.60428e-06
-9.78518e-10
-2.42655e-06
-2.15724e-06
-2.63892e-07
-5.99925e-06
9.29379e-07
-1.28467e-06
2.20833e-06
-1.47644e-06
1.17639e-06
6.97994e-07
6.59517e-07
2.25341e-07
7.46531e-07
-8.84e-08
-9.32961e-07
3.27787e-06
-3.55124e-07
1.64739e-06
-2.77149e-07
-5.54798e-07
8.01206e-08
-4.52584e-07
-3.84386e-07
1.33039e-06
-1.76172e-07
1.13858e-07
-2.0826e-07
3.18671e-08
-1.6853e-07
-2.16079e-07
-1.78784e-07
-7.38808e-07
-4.46728e-07
3.68751e-08
-1.59845e-07
4.97849e-07
-1.79391e-07
7.48559e-08
-2.06127e-07
7.80843e-08
-5.68613e-07
6.25825e-07
-1.23256e-06
7.90264e-07
-1.33628e-06
8.9244e-08
-1.17682e-06
-1.34972e-07
-8.24273e-07
-1.92097e-07
-5.56727e-07
-3.68298e-08
-3.79565e-07
2.89213e-08
-3.67638e-07
8.53955e-08
-5.79535e-07
2.00365e-07
-1.11997e-06
2.30858e-09
-9.65274e-07
3.24257e-09
-4.43294e-07
-1.07572e-07
-4.12365e-07
-7.28911e-08
-6.05132e-07
-2.03593e-08
-1.63881e-06
2.46433e-08
-2.30301e-06
1.55817e-07
-2.52712e-06
3.07662e-07
-2.63114e-06
1.70614e-07
-2.70015e-06
5.98302e-08
-1.20918e-06
-3.05005e-08
-7.65798e-07
-4.6275e-08
-9.78152e-07
-2.37788e-08
-1.17544e-06
-3.13748e-08
-1.26214e-06
-9.07019e-08
-1.3142e-06
-1.74549e-07
-1.17672e-06
-3.24589e-07
-7.5044e-07
-1.64918e-07
-4.42722e-07
-2.222e-07
-2.83073e-07
-1.36382e-07
-2.09879e-07
-5.11889e-08
-2.1405e-07
-4.02308e-08
-3.25585e-07
-2.54063e-08
-4.64297e-07
2.70124e-09
-4.86296e-07
6.82573e-08
-3.87401e-07
5.73889e-08
-2.29996e-07
3.80033e-09
-1.34876e-07
-1.8627e-08
-1.00001e-07
-1.75876e-08
-8.89931e-08
-8.1944e-09
-8.00614e-08
4.99414e-10
-7.56042e-08
5.73919e-09
-7.86827e-08
5.06706e-09
-3.03805e-07
1.63173e-11
-6.84942e-07
-4.82597e-09
-6.71361e-07
6.17426e-09
-3.25826e-07
-9.88815e-08
-1.14884e-07
-4.38503e-08
-1.12129e-07
-1.59468e-08
-1.49735e-07
4.65362e-08
-1.73194e-07
5.55768e-08
-1.53984e-07
9.22303e-09
-1.67731e-07
2.06011e-08
-1.87922e-07
-1.88722e-09
-1.81065e-07
-1.30742e-08
-2.03654e-07
-3.68776e-08
-2.15277e-07
-8.23725e-08
-2.11595e-07
-9.65315e-08
-1.79697e-07
-9.84162e-08
-1.14039e-07
-8.52538e-08
-5.27031e-08
-3.14444e-08
-4.03273e-08
-2.34699e-08
-3.46029e-08
-1.29824e-08
-2.95386e-08
-1.34898e-08
-9.86066e-09
-5.61618e-08
8.25428e-08
-5.57654e-08
1.85056e-07
-1.17466e-07
1.23654e-07
-9.42501e-09
8.2073e-08
-1.43383e-08
7.22838e-08
-2.13537e-09
5.60142e-08
5.47801e-08
3.6004e-08
5.52012e-08
-1.79178e-06
1.62257e-06
-3.63815e-06
-3.89854e-06
7.39048e-06
-2.89786e-05
5.67267e-06
-8.78827e-06
3.45979e-06
3.16989e-06
-3.17267e-06
9.31892e-06
-5.56128e-06
9.28569e-06
-1.32053e-06
4.9989e-07
-1.17486e-06
-5.21287e-08
-1.2856e-06
-2.03872e-06
-1.27439e-06
2.85316e-07
-4.04349e-06
4.34455e-06
-5.78064e-06
-2.35444e-07
-6.04309e-06
-1.45197e-05
-9.07899e-08
-1.4813e-05
6.50979e-07
-2.82855e-06
4.0066e-06
-1.06122e-06
4.89103e-06
3.94559e-08
3.72206e-06
1.09386e-06
9.74086e-07
7.21963e-08
-3.1255e-07
8.55989e-06
-2.23675e-07
1.39108e-06
-8.08486e-08
-8.31657e-07
4.78342e-08
-7.1542e-07
-2.1595e-07
1.0652e-06
-3.25215e-07
1.06123e-07
-5.118e-07
4.86814e-08
-1.0992e-06
-1.03642e-06
-1.31337e-07
-1.48129e-06
-3.43337e-07
3.59078e-09
-2.39435e-07
7.89879e-07
-5.5476e-07
8.75148e-08
-1.01884e-06
7.62693e-08
-1.78024e-06
1.63406e-06
-1.85321e-06
7.92635e-07
-1.82652e-06
1.00456e-07
-1.81108e-06
-2.19753e-07
-1.77248e-06
-1.94201e-07
-1.34069e-06
-1.36561e-07
-6.06804e-07
3.81621e-08
-5.91997e-07
1.4914e-07
-7.2236e-07
3.40204e-07
-8.50222e-07
7.56402e-08
-5.41522e-07
1.57233e-08
-1.54644e-07
-6.3227e-08
-1.16757e-07
-3.81866e-08
-1.08025e-07
-1.77601e-08
-6.70423e-07
1.73919e-11
-1.73379e-06
8.2243e-08
-2.1529e-06
1.90293e-07
-2.15932e-06
1.19987e-07
-1.15315e-06
2.84696e-08
-3.6239e-07
-2.89488e-08
-1.67184e-07
-3.54672e-08
-1.42081e-07
-1.84552e-08
-1.4608e-07
-2.57089e-08
-4.05334e-07
-3.51923e-08
-9.38778e-07
-5.30116e-08
-1.43677e-06
-1.06085e-07
-1.41543e-06
-2.25067e-07
-1.24703e-06
-3.51794e-07
-9.61209e-07
-3.20045e-07
-3.92585e-07
-4.20132e-07
-1.25558e-07
-2.451e-07
-1.07012e-07
-4.98164e-08
-1.10482e-07
-4.98437e-12
-1.1061e-07
2.91391e-08
-8.97592e-08
3.53242e-08
-7.68516e-08
1.44277e-08
-1.01306e-07
-6.03093e-09
-5.90982e-08
-1.00331e-08
-5.70821e-08
-1.16056e-08
-5.44539e-08
-2.91384e-10
-5.84651e-08
8.40704e-09
-7.07895e-08
1.92107e-08
-3.18632e-07
4.18373e-08
-1.16684e-06
2.92365e-08
-1.18559e-06
-1.04648e-08
-8.734e-07
-4.44066e-07
-2.45828e-07
-2.42105e-07
-1.09305e-07
-5.57117e-09
-1.32052e-07
7.43372e-08
-1.69266e-07
9.07812e-08
-2.22898e-07
6.78521e-08
-4.40909e-07
4.25859e-08
-6.31523e-07
-1.99675e-07
-7.31634e-07
-3.39951e-07
-9.05781e-07
-2.74759e-07
-9.98358e-07
-5.79802e-07
-8.6574e-07
-3.54238e-07
-7.06355e-07
-2.60805e-07
-4.61125e-07
-2.346e-07
-1.93201e-07
-2.12102e-07
-1.20584e-07
-6.25946e-08
-5.38575e-08
-6.6347e-08
-4.13176e-08
-5.00966e-08
-1.51017e-09
-2.3279e-07
2.49686e-08
-7.81804e-08
1.72151e-07
-9.71263e-08
1.88606e-07
-6.67661e-08
2.10583e-07
-5.26063e-08
1.50842e-07
-1.29803e-08
1.20271e-07
9.37009e-08
6.14258e-08
1.3434e-07
3.64546e-06
2.05835e-07
-9.86688e-07
8.48867e-06
9.62607e-06
-2.58773e-05
3.86485e-06
-2.7578e-06
2.57508e-06
2.22351e-06
-3.34474e-06
1.51305e-05
-2.55118e-06
8.60036e-06
-1.81147e-06
1.07775e-06
-1.39206e-06
1.66531e-07
-1.35057e-06
-2.08349e-06
-1.43872e-06
7.45506e-07
-4.83712e-06
8.00659e-06
-9.52993e-06
-3.66559e-07
-5.91495e-06
-1.84561e-05
-9.18445e-08
-2.06085e-05
7.70952e-07
-8.42524e-06
7.72859e-07
-1.25978e-06
3.40949e-06
7.3162e-07
3.48653e-06
2.18685e-06
1.93149e-06
-2.33274e-09
-1.90432e-07
2.04824e-05
-6.79596e-07
2.31721e-06
-1.24401e-07
-9.42491e-07
1.82815e-08
-1.05622e-06
-3.01931e-08
5.43162e-07
-3.12429e-07
1.85163e-07
-2.22867e-06
4.35831e-07
-2.01507e-06
-3.04629e-06
-1.90506e-07
-5.10046e-06
-5.24891e-07
3.95234e-09
-1.31878e-07
6.57009e-07
-3.27948e-07
4.1113e-08
-1.03396e-06
1.22551e-07
-1.02836e-06
1.87562e-06
-5.51051e-07
3.83924e-07
-4.54869e-07
2.29937e-08
-6.46803e-07
-8.63836e-08
-8.90641e-07
-1.50133e-07
-8.58673e-07
-1.45356e-07
-6.37076e-07
6.1823e-10
-5.32178e-07
2.31303e-07
-5.23454e-07
4.54762e-07
-5.43655e-07
1.01832e-07
-2.09576e-07
1.4604e-08
-1.07263e-07
5.14328e-09
-1.02086e-07
-4.45537e-08
-1.10008e-07
-8.6481e-09
-3.13274e-07
1.19017e-08
-9.21798e-07
6.75115e-08
-1.13827e-06
7.86789e-08
-1.0495e-06
3.83039e-08
-5.12728e-07
5.09474e-09
-1.77591e-07
-2.28288e-08
-1.61989e-07
1.32585e-09
-1.61985e-07
-1.67665e-08
-1.55349e-07
-3.24404e-08
-1.44189e-07
-4.46485e-08
-1.54804e-07
-4.24106e-08
-4.65302e-07
-3.48527e-08
-1.05286e-06
-6.10972e-08
-1.38588e-06
-2.41013e-07
-1.30265e-06
-4.52563e-07
-1.03732e-06
-6.36175e-07
-5.7329e-07
-5.33005e-07
-1.83187e-07
-2.02326e-07
-1.09495e-07
-3.03849e-08
-1.02154e-07
2.38313e-08
-1.17021e-07
4.81587e-08
-1.4356e-07
4.53066e-08
-1.67964e-07
-2.67323e-09
-2.00534e-07
-3.0497e-08
-1.83878e-07
-3.3342e-08
-1.43726e-07
-1.12469e-08
-9.71756e-08
2.49339e-08
-7.40064e-08
6.52065e-08
-2.67442e-07
3.51407e-08
-6.71903e-07
8.30623e-10
-1.22761e-06
5.57155e-09
-1.12193e-06
-5.16405e-07
-6.12769e-07
-4.72395e-07
-1.13238e-07
-1.71981e-08
-1.46733e-07
1.04095e-07
-2.28126e-07
1.78695e-07
-9.33404e-07
3.36711e-07
-1.88787e-06
2.95675e-07
-2.09167e-06
-4.56652e-07
-2.02103e-06
-7.03721e-07
-1.93361e-06
-5.32021e-07
-1.61268e-06
-7.29297e-07
-1.3473e-06
-7.91063e-07
-1.19393e-06
-4.9064e-07
-9.69311e-07
-3.27266e-07
-4.3862e-07
-5.3261e-07
-2.77046e-07
-1.03619e-07
-1.78921e-07
-7.87358e-08
-1.68253e-07
-1.16133e-07
-2.86546e-09
-8.26165e-07
1.73081e-08
-9.8369e-08
7.6686e-08
-3.10244e-08
2.26422e-07
-5.49423e-08
2.23484e-07
-5.00255e-08
2.084e-07
-1.07356e-09
2.05715e-07
9.95631e-08
1.56997e-08
9.97948e-08
2.70504e-06
2.53272e-07
5.5787e-06
6.09094e-06
1.55737e-06
-2.04792e-05
1.69568e-06
-2.60886e-06
2.05767e-06
-5.20609e-09
-1.83187e-06
7.42412e-06
-2.17465e-06
2.38771e-06
-3.78593e-06
1.20034e-06
-1.93214e-06
4.82942e-07
-1.38099e-06
-3.08126e-06
-2.51212e-06
1.87578e-06
-7.75566e-06
1.57377e-05
-9.45279e-06
-3.08617e-06
-5.39255e-06
-2.24852e-05
-1.15248e-07
-2.62281e-05
2.12702e-06
-2.26085e-05
9.9564e-07
-8.97367e-07
1.8857e-06
-9.74596e-09
4.36608e-06
5.17654e-07
3.07326e-06
1.99791e-07
-6.60802e-07
3.09692e-05
-1.9755e-06
2.36009e-06
-3.57673e-07
-9.37552e-07
5.12156e-08
-1.51495e-06
-5.53184e-08
3.00679e-07
-8.65918e-07
7.95404e-07
-2.54916e-06
9.03357e-07
-6.62496e-07
-4.12036e-06
-4.89809e-08
-4.22791e-07
-3.07051e-07
2.8324e-08
-7.37679e-08
4.75745e-07
-1.16681e-07
5.7928e-08
-4.86329e-07
9.10036e-08
-3.32736e-07
4.39695e-07
-2.03944e-07
2.80053e-07
-2.2963e-07
4.15142e-08
-2.49108e-07
-5.97408e-08
-4.27777e-07
-9.90263e-08
-8.36238e-07
-8.35674e-08
-1.03978e-06
-5.92916e-09
-6.38567e-07
2.15249e-07
-1.64253e-07
4.76993e-07
-1.44948e-07
1.55243e-07
-1.71171e-07
4.225e-08
-1.49034e-07
-1.56634e-08
-1.13204e-07
-5.66776e-08
-1.04132e-07
-1.89097e-08
-1.22683e-07
3.16419e-08
-3.1771e-07
6.42086e-08
-4.54417e-07
1.93649e-08
-4.74218e-07
6.33505e-13
-3.80608e-07
-8.5836e-09
-1.89776e-07
-1.90554e-09
-1.80508e-07
-6.23901e-09
-1.73321e-07
-2.40659e-08
-1.59398e-07
-4.46385e-08
-1.4138e-07
-6.27905e-08
-1.31623e-07
-5.06078e-08
-1.24296e-07
-4.22192e-08
-1.4166e-07
-4.21378e-08
-4.9669e-07
-5.06492e-08
-1.00914e-06
-1.03448e-07
-1.06085e-06
-5.76947e-07
-9.21798e-07
-5.42995e-07
-6.76132e-07
-3.06071e-07
-4.84831e-07
-3.69008e-08
-4.97494e-07
3.06012e-08
-5.40739e-07
8.77609e-08
-3.44914e-07
3.99814e-08
-2.66165e-07
-3.60353e-08
-2.54318e-07
-5.07902e-08
-2.452e-07
-3.72689e-08
-2.50966e-07
-1.29407e-08
-2.58806e-07
3.69544e-08
-2.54346e-07
5.42535e-08
-1.59796e-07
3.28673e-08
-4.80883e-07
3.92182e-08
-1.1023e-06
2.40564e-08
-1.11406e-06
-8.24377e-07
-7.16325e-07
-9.90009e-07
-1.18909e-07
-8.41597e-09
-1.82988e-07
1.74694e-07
-8.2122e-07
4.90149e-07
-2.31613e-06
5.46354e-07
-2.26839e-06
4.03392e-08
-2.06655e-06
-6.539e-07
-1.8383e-06
-9.36567e-07
-1.60825e-06
-7.5747e-07
-1.09391e-06
-7.97452e-07
-3.46634e-07
-3.31547e-07
-9.87264e-08
-1.60101e-07
-9.3577e-08
-4.92243e-08
-5.74836e-07
-1.61626e-08
-5.11611e-07
-1.6815e-08
-4.0982e-07
-4.40787e-08
-3.27451e-07
-1.68478e-07
-9.62257e-10
-1.12267e-06
2.18062e-08
-1.18454e-07
2.85787e-08
-4.04807e-08
7.16973e-08
-3.82889e-08
1.03603e-07
-1.26684e-08
1.42644e-07
-3.445e-09
1.196e-07
1.97788e-08
2.74184e-09
3.49939e-08
2.37406e-06
1.51529e-08
6.03489e-06
2.01832e-08
9.72619e-07
-1.46149e-05
1.03963e-06
-2.97336e-06
5.52584e-07
3.74535e-07
-1.8591e-07
2.09441e-06
-2.41172e-06
5.68347e-06
-5.4731e-06
4.95899e-06
-5.87811e-06
5.26175e-08
-1.82256e-06
-7.95987e-06
-7.46047e-06
7.51455e-06
-1.07942e-05
1.88831e-05
-9.64913e-06
-4.12933e-06
-4.76612e-06
-2.76587e-05
-3.36624e-07
-2.14981e-05
3.51703e-06
-1.94267e-05
9.23597e-07
-8.8312e-06
5.71593e-07
4.61569e-08
5.24391e-07
2.69275e-07
2.36232e-06
1.08171e-07
-4.67194e-07
3.37405e-05
-1.57266e-07
1.15331e-06
-6.83539e-08
-5.46712e-07
2.84842e-08
-3.81993e-07
-6.74626e-08
2.56531e-07
-8.1049e-07
1.35704e-06
-2.38237e-06
1.67297e-06
-2.01717e-08
-5.63777e-06
-8.83694e-08
-2.98709e-07
-1.93099e-07
1.0159e-08
-9.57788e-08
2.74824e-07
-1.18139e-07
8.07979e-08
-1.27426e-07
9.97908e-08
-1.67354e-07
3.58533e-07
-2.54825e-07
3.60358e-07
-2.74543e-07
6.83982e-08
-2.38408e-07
-8.9777e-08
-2.49373e-07
-7.6846e-08
-5.07457e-07
-2.92016e-08
-9.69806e-07
-7.31068e-09
-9.51378e-07
1.95927e-07
-6.4655e-07
1.73059e-07
-3.59362e-07
6.44923e-07
-7.07151e-07
1.66252e-07
-1.04062e-06
-2.08585e-07
-6.70735e-07
-4.91248e-07
-1.67321e-07
-4.10867e-08
-1.15871e-07
6.15182e-08
-1.1504e-07
7.00541e-08
-2.08088e-07
4.65734e-08
-3.0616e-07
2.1426e-08
-6.62758e-07
1.05376e-07
-7.86248e-07
-4.15864e-08
-9.41766e-07
-2.08916e-07
-9.11094e-07
-2.9971e-07
-4.997e-07
-4.62769e-07
-1.53507e-07
-2.88733e-07
-1.34631e-07
-6.949e-08
-1.26664e-07
-4.86149e-08
-1.19297e-07
-4.95215e-08
-1.10128e-07
-5.82474e-08
-1.44821e-07
-6.87775e-08
-6.62526e-07
-1.2661e-07
-9.5548e-07
-3.88629e-07
-8.18209e-07
-3.02316e-07
-3.67322e-07
-2.03642e-07
-2.39328e-07
1.78646e-08
-1.65483e-07
4.52704e-08
-8.42154e-08
9.32284e-09
-1.01178e-07
-8.31175e-09
-1.47313e-07
-1.25966e-08
-1.03627e-07
-1.38708e-08
-6.18839e-08
-5.32133e-09
-8.39635e-08
1.66993e-10
-1.10217e-07
1.3193e-08
-1.23184e-07
2.25362e-08
-1.81327e-07
1.98196e-08
-3.97959e-07
1.21722e-08
-1.15136e-06
-3.48999e-07
-1.10862e-06
-9.12879e-07
-1.80703e-07
-1.01213e-08
-1.99198e-07
4.4324e-07
-1.73042e-06
1.06441e-06
-1.6958e-06
8.67595e-07
-1.40381e-06
1.02459e-07
-1.34178e-06
-3.95394e-07
-1.18921e-06
-5.30083e-07
-6.59891e-07
-4.20168e-07
-1.83691e-07
-4.16611e-07
-3.90628e-08
-2.59308e-07
-1.01596e-09
-1.72675e-07
1.64261e-09
-3.25506e-08
-9.71847e-10
-4.57254e-09
-3.40804e-09
-4.58021e-09
-1.50023e-08
-7.11053e-09
-1.00264e-07
-3.2328e-08
1.09822e-08
-3.03188e-07
2.19499e-08
-1.32771e-07
2.44361e-08
-3.94741e-08
3.709e-08
-4.04875e-08
1.49388e-08
-1.04505e-08
1.40112e-08
-8.3674e-10
1.45356e-08
5.1312e-10
-9.6268e-16
5.17859e-09
2.65972e-06
8.15364e-07
5.54498e-06
6.45032e-08
2.07011e-06
-9.96786e-06
2.50827e-06
-2.2769e-06
6.1216e-07
2.49766e-06
-4.22719e-07
3.06494e-06
-4.02714e-06
1.43295e-05
-4.17452e-06
5.23386e-06
-5.14225e-06
1.86132e-07
-1.73591e-06
-1.22015e-05
-6.68438e-06
1.18364e-05
-7.31098e-06
1.29006e-05
-9.12511e-06
-7.76851e-06
-1.20399e-06
-3.54844e-05
4.21272e-08
-1.20516e-05
3.23097e-06
-1.62253e-05
4.29511e-06
-7.57323e-06
1.09402e-06
1.09665e-06
5.26014e-07
5.41184e-07
1.40454e-06
-1.61888e-08
-3.12719e-07
3.5516e-05
-1.5454e-07
5.90728e-07
-3.97623e-08
-6.61466e-07
9.54489e-09
-4.31279e-07
-4.6318e-08
3.12419e-07
-1.48852e-06
2.63252e-06
-1.72586e-06
2.76265e-06
-1.01482e-08
-2.31143e-06
-1.97565e-07
-1.9716e-07
-6.60804e-08
7.50978e-07
-1.30093e-07
3.72895e-07
-1.21531e-07
1.04278e-07
-1.34073e-07
1.12833e-07
-2.20964e-07
4.44937e-07
-7.36272e-07
8.53253e-07
-1.08426e-06
4.14179e-07
-3.29955e-07
-6.88159e-07
-1.81782e-07
-9.27145e-08
-2.04603e-07
-4.34713e-08
-3.96285e-07
2.57975e-09
-7.11837e-07
6.66537e-08
-8.96905e-07
3.17531e-07
-1.12381e-06
3.52054e-07
-2.1296e-06
6.35342e-07
-3.17392e-06
-5.54288e-07
-2.08163e-06
-1.27647e-06
-3.49698e-07
-1.81602e-07
-1.06195e-07
1.055e-07
-1.21443e-07
8.54214e-08
-1.37092e-07
6.95889e-08
-3.03317e-07
1.23578e-09
-1.30866e-06
1.51671e-07
-2.37727e-06
-7.86129e-08
-2.94146e-06
-5.65953e-07
-2.89933e-06
-6.07292e-07
-2.22369e-06
-1.03089e-06
-8.42096e-07
-1.28738e-06
-1.43451e-07
-4.9793e-07
-1.30813e-07
-6.12704e-08
-1.18067e-07
-6.06967e-08
-1.09614e-07
-6.6717e-08
-9.79183e-08
-7.89078e-08
-1.03376e-07
-1.21167e-07
-4.42911e-07
-1.26989e-07
-4.28437e-07
-3.42084e-07
-1.51642e-07
-2.68349e-07
-3.63799e-08
2.90046e-08
-3.39171e-08
3.97153e-08
-2.29833e-08
5.05763e-14
-1.98576e-08
-2.00206e-09
-1.96838e-08
-3.33368e-09
-1.47906e-08
-3.82385e-09
-1.03838e-08
-2.731e-09
-1.14305e-08
2.98856e-09
-2.39646e-08
6.10695e-09
-4.29466e-08
6.07048e-09
-5.67043e-08
5.72092e-09
-8.98939e-08
3.04556e-09
-4.85847e-07
-6.97506e-08
-9.37877e-07
-1.02938e-06
-3.62038e-07
-1.07489e-07
-4.4237e-07
1.24922e-06
-9.29013e-07
1.16035e-06
-8.85219e-07
4.23768e-07
-4.6199e-07
-1.20187e-11
-3.31527e-07
-5.78398e-07
-2.25264e-07
-6.95785e-07
-1.22535e-07
-5.37199e-07
-3.10196e-08
-4.56715e-07
7.93081e-09
-3.37153e-07
1.46937e-08
-1.54123e-07
2.57679e-09
-1.48665e-08
2.77722e-09
-1.92026e-09
2.46589e-09
-1.63221e-09
1.42848e-09
-2.48832e-09
2.96852e-09
-6.0474e-09
1.40543e-08
-5.44676e-08
9.29485e-08
-6.18961e-07
1.98863e-08
-4.41031e-08
2.06198e-08
-3.70095e-08
4.47123e-09
-1.49583e-09
1.80504e-09
-4.73547e-10
1.75992e-09
5.69816e-10
-1.89322e-10
1.66282e-09
2.63673e-06
2.6078e-06
5.65252e-06
6.8555e-07
9.61861e-07
-3.39938e-06
1.26319e-06
-1.66212e-06
5.85751e-07
3.11052e-06
-1.16552e-06
5.0891e-06
-3.53415e-06
1.68235e-05
-3.05768e-06
4.62991e-06
-4.77809e-06
1.9482e-07
-2.08406e-06
-1.22456e-05
-2.77805e-06
1.44005e-05
-4.38454e-06
4.55992e-06
-8.78133e-06
-3.98617e-06
-9.49037e-07
-3.88866e-05
1.36022e-07
-3.83083e-06
9.6358e-07
-7.82548e-06
4.4874e-06
-1.34192e-05
3.05448e-06
1.85205e-06
3.05191e-07
2.58595e-06
4.18528e-07
-2.00709e-07
-1.14665e-07
3.5991e-05
-2.93713e-07
5.48675e-07
-7.98363e-08
-8.75322e-07
-3.72928e-08
-5.0118e-07
-1.8023e-07
4.5538e-07
-1.99578e-06
4.16831e-06
-1.20095e-06
3.25371e-06
-7.1854e-08
-1.32621e-06
-2.15771e-07
-1.38257e-07
-9.477e-08
1.31149e-06
-2.47207e-07
5.60399e-07
-1.94228e-07
1.38585e-07
-1.43451e-07
3.44891e-07
-4.28771e-07
7.30758e-07
-3.12097e-06
3.57643e-06
-3.27127e-06
1.25043e-06
-1.10889e-06
-1.96126e-06
-3.78656e-07
-2.50225e-07
-8.5814e-08
-6.10845e-08
-9.84432e-08
3.85472e-09
-1.45733e-07
3.45704e-08
-2.9771e-07
8.16976e-08
-1.87263e-06
3.10926e-07
-4.26523e-06
2.31854e-07
-5.649e-06
-1.81656e-07
-4.54542e-06
-2.54391e-06
-8.2351e-07
-5.52443e-07
-1.09179e-07
2.42283e-07
-1.14641e-07
9.74963e-08
-1.23639e-07
7.87057e-08
-2.51476e-07
7.7038e-08
-1.92235e-06
1.71292e-07
-3.03685e-06
-5.04064e-07
-2.88233e-06
-6.84822e-07
-2.8597e-06
-6.65579e-07
-2.70929e-06
-1.14563e-06
-2.10093e-06
-1.93139e-06
-9.55652e-07
-1.23889e-06
-2.65804e-07
-6.08073e-07
-1.31626e-07
-2.11738e-07
-1.19011e-07
-7.77638e-08
-1.0341e-07
-9.45235e-08
-8.34299e-08
-1.39584e-07
-1.66457e-07
-4.39767e-08
-3.9727e-07
-1.77235e-07
-3.23106e-07
-3.00054e-07
-4.78823e-08
8.82165e-09
-1.31604e-08
3.942e-08
-1.40939e-08
8.81173e-09
-9.27145e-09
-1.35083e-09
-9.1089e-09
-2.83403e-09
-8.72122e-09
-4.38833e-09
-8.42652e-09
-2.31621e-09
-9.41375e-09
3.91888e-09
-1.06842e-08
8.04426e-09
-1.10618e-08
6.39575e-09
-1.18323e-08
7.25638e-09
-1.48075e-08
5.91386e-09
-1.81344e-07
-1.84106e-08
-1.09105e-06
-5.5814e-07
-9.25664e-07
-1.544e-07
-4.84439e-07
2.13969e-06
-5.01826e-07
1.2561e-06
-4.71148e-07
3.66062e-07
-4.95015e-07
-4.75502e-09
-3.34348e-07
-8.37274e-07
-1.82111e-07
-8.04324e-07
-7.74819e-08
-6.22665e-07
-2.01925e-08
-4.04954e-07
8.42063e-09
-4.0966e-07
6.3556e-09
-6.91774e-08
9.90511e-10
-4.44754e-09
1.06682e-09
-1.37089e-09
1.26237e-09
-4.55481e-10
1.48765e-09
-3.30088e-09
8.48331e-09
-1.588e-12
7.15473e-09
-3.92486e-08
1.82121e-07
-1.185e-06
2.92208e-08
-4.45967e-08
2.86809e-09
-1.82641e-08
1.49293e-09
-1.15044e-10
1.60402e-09
-5.73152e-10
1.56643e-09
6.13041e-10
1.07089e-09
3.00417e-09
2.13754e-06
1.26137e-06
4.69132e-06
4.41535e-07
8.07212e-07
3.77285e-09
1.02643e-06
-1.8842e-06
4.76614e-07
3.72492e-06
-1.11065e-06
1.33827e-05
-3.58352e-06
6.66175e-06
-1.24281e-06
1.29672e-06
-1.60022e-06
5.14411e-11
-3.18619e-06
-9.47782e-06
-2.24424e-06
3.32346e-05
-3.45141e-06
5.79518e-06
-4.64304e-06
-3.42025e-06
-1.48309e-06
-3.706e-05
4.90752e-08
-1.82281e-05
3.94019e-07
-1.97011e-06
3.71445e-06
-5.58497e-06
4.61412e-06
2.35671e-06
7.08701e-07
5.86832e-06
4.27131e-07
-9.68963e-11
-2.13791e-08
3.64977e-05
-6.64609e-07
6.25489e-07
-5.29254e-07
-5.28659e-06
-9.2013e-08
-2.73293e-06
-2.26935e-07
5.90326e-07
-1.94574e-06
5.1724e-06
-3.77472e-07
2.26677e-06
-2.98957e-07
-5.99283e-07
-3.5522e-07
-3.56462e-07
-1.10084e-07
2.43341e-06
-4.0997e-07
8.97455e-07
-2.33273e-07
1.56035e-07
-2.35885e-07
5.07268e-07
-1.91741e-06
2.19621e-06
-3.07142e-06
5.03274e-06
-1.53873e-06
3.89265e-07
-1.16475e-06
-3.4512e-07
-7.33908e-07
-2.45738e-07
-1.99993e-07
-1.35046e-07
-3.03586e-08
-2.8364e-10
-3.46378e-08
1.39483e-08
-3.17038e-08
1.23594e-08
-1.15495e-06
6.98666e-08
-4.37033e-06
2.26056e-07
-5.08304e-06
-1.66876e-06
-5.08394e-06
-2.37914e-06
-3.52728e-06
-2.27297e-06
-2.81871e-07
1.471e-06
-1.25458e-07
3.83577e-07
-1.51e-07
1.11614e-07
-4.72742e-07
1.21687e-07
-2.06997e-06
1.96732e-07
-2.43114e-06
-3.07879e-07
-2.23605e-06
-4.40925e-07
-2.10828e-06
-2.81367e-07
-2.43464e-06
-4.49445e-07
-2.41572e-06
-1.91851e-06
-2.0808e-06
-1.57963e-06
-1.51677e-06
-9.64295e-07
-8.65757e-07
-1.08824e-06
-4.91654e-07
-9.42544e-07
-2.89137e-07
-7.79192e-07
-1.58698e-07
-3.41854e-07
-1.2777e-07
-1.27835e-07
-2.15646e-07
-1.15207e-07
-3.78469e-07
-1.51207e-07
-2.76159e-07
-3.26227e-09
-9.43426e-08
7.15034e-08
-1.14454e-08
2.07676e-08
-9.5931e-09
-1.23195e-09
-9.33436e-09
-3.23287e-09
-8.72661e-09
-4.41717e-09
-8.68096e-09
-2.42431e-09
-9.62607e-09
5.46165e-09
-1.10007e-08
9.41835e-09
-1.14673e-08
7.56408e-09
-1.26589e-08
8.40413e-09
-1.4085e-08
7.88038e-09
-1.58558e-08
-1.66511e-08
-6.23247e-07
-2.84082e-07
-1.04124e-06
-3.85953e-07
-1.1776e-06
2.27758e-06
-8.29604e-07
2.40194e-06
-9.03862e-07
1.05442e-06
-1.07072e-06
-8.11181e-08
-8.38051e-07
-4.36077e-07
-6.03565e-07
-3.98145e-07
-2.84116e-07
-3.09254e-07
-5.30897e-08
-7.8422e-08
1.36969e-09
-1.63869e-08
7.00544e-10
-4.56056e-09
9.53888e-10
-2.52069e-09
1.81277e-09
-1.32587e-09
3.88325e-10
-3.53455e-11
1.24161e-08
-9.10677e-09
1.09683e-08
-9.62989e-09
7.84129e-09
-2.23287e-08
1.93227e-07
-1.12349e-06
5.57345e-08
-1.7677e-07
7.05189e-10
-4.06911e-10
1.42333e-09
-8.21687e-10
1.65044e-09
-7.94839e-10
1.58394e-09
6.9103e-10
1.19071e-09
3.44771e-09
1.27084e-06
-4.61384e-07
3.04079e-06
4.20533e-07
1.21463e-06
-8.68314e-06
8.00739e-07
-1.46349e-06
2.44397e-07
4.27793e-06
-7.64929e-07
6.24454e-05
-2.77365e-06
5.7622e-06
-7.0728e-07
1.01361e-06
-6.89754e-07
3.07076e-09
-3.65378e-06
-6.38412e-06
-2.04966e-06
3.42151e-05
-6.7688e-06
1.04862e-05
-7.75556e-06
-1.00483e-05
-2.80942e-06
-3.30593e-05
-7.33033e-09
-5.44124e-05
1.03463e-07
-8.93296e-07
1.51421e-06
-2.29958e-06
4.07352e-06
1.40066e-06
6.70185e-07
9.88055e-06
3.99662e-07
-3.59536e-07
1.34044e-08
8.11931e-06
-8.87713e-07
9.24125e-07
-1.2521e-06
-8.94925e-06
-1.3194e-07
-5.00736e-06
-2.5502e-07
7.13427e-07
-1.76604e-06
5.90849e-06
-1.79666e-07
1.27781e-06
-3.23928e-07
-4.0555e-07
-9.82039e-07
-4.67893e-07
-1.51274e-07
6.89432e-06
-8.74453e-07
1.70417e-06
-3.12649e-07
2.60598e-07
-3.41176e-07
7.11968e-07
-2.15789e-06
4.11896e-06
-1.73451e-06
4.90762e-06
-1.37182e-07
1.38172e-07
-1.7392e-07
-2.41299e-07
-1.72302e-07
-2.06598e-07
-1.7814e-07
-1.03861e-07
-7.99858e-08
1.91245e-10
-3.23208e-08
9.44137e-08
-4.85633e-08
2.8602e-08
-4.72208e-07
1.25205e-09
-1.73444e-06
8.22912e-09
-3.0577e-06
-6.78447e-07
-4.47937e-06
-1.2087e-06
-8.68581e-06
-1.46113e-06
-2.24497e-06
1.45896e-06
-2.2646e-07
3.16386e-06
-2.49559e-07
3.86444e-07
-7.60489e-07
3.11371e-07
-1.0599e-06
2.04206e-07
-7.36538e-07
-1.82426e-07
-3.35724e-07
-1.18637e-07
-2.96498e-07
-9.51553e-08
-4.70481e-07
-1.46668e-07
-2.05865e-06
-3.55849e-07
-2.23217e-06
-1.39005e-06
-2.08332e-06
-1.11641e-06
-2.00044e-06
-1.16785e-06
-1.60357e-06
-2.21975e-06
-9.39359e-07
-2.42297e-06
-5.75973e-07
-1.34673e-06
-1.22286e-07
-5.19214e-07
-1.16232e-07
-1.47462e-07
-2.13773e-07
-5.53604e-08
-1.95113e-07
-8.90704e-09
-6.07273e-08
4.01657e-08
-1.12081e-08
5.20781e-09
-9.58556e-09
-9.76685e-12
-9.17555e-09
-3.28563e-09
-8.54955e-09
-4.86417e-09
-8.278e-09
-2.30628e-09
-1.00804e-08
4.67069e-09
-1.13731e-08
1.10451e-08
-1.19668e-08
8.01962e-09
-1.22824e-08
1.01034e-08
-1.38116e-08
9.40673e-09
-2.03075e-08
-9.41419e-09
-4.30899e-07
-1.18678e-07
-1.14208e-06
-3.89643e-07
-1.34429e-06
2.36265e-06
-1.57536e-06
2.63454e-06
-1.52275e-06
1.58254e-06
-4.18558e-07
-5.28144e-08
-8.61213e-08
-3.07994e-08
-6.08748e-08
-7.81012e-09
-1.10314e-08
-8.89961e-09
-5.86193e-10
-5.55645e-09
6.32758e-10
-9.31588e-09
9.69865e-10
-4.88551e-09
1.06705e-09
-2.56985e-09
1.57247e-09
-2.73366e-10
1.31139e-09
3.04883e-10
3.24463e-08
-1.01826e-08
2.53334e-08
-7.53641e-08
1.11019e-08
-2.41129e-08
2.11187e-07
-1.07202e-06
8.36781e-09
-2.2861e-08
9.21378e-09
-2.02181e-08
2.38587e-08
-3.83649e-08
8.82142e-09
-9.34978e-09
3.37733e-09
5.60545e-09
2.13192e-09
3.85732e-09
-7.61258e-09
-9.44586e-06
2.29448e-06
5.87204e-07
3.86407e-06
-4.31854e-05
8.11843e-07
-2.29595e-06
3.61323e-06
1.03051e-05
-5.74833e-07
0.000118107
-1.7983e-06
6.07462e-06
-9.8378e-07
4.82156e-06
-6.97466e-07
1.59076e-09
-4.46866e-06
-4.10117e-06
-1.73007e-06
2.89722e-05
-9.19348e-06
1.55372e-05
-6.15247e-06
-4.8924e-06
-3.68255e-06
-1.37217e-05
-2.48316e-08
-1.89301e-05
6.30162e-08
-9.37542e-07
4.90625e-07
-5.38009e-07
3.80311e-06
1.56636e-08
2.3778e-06
1.13126e-05
3.6804e-07
-3.69505e-08
-2.26304e-08
9.54713e-07
-3.30768e-07
1.23398e-06
-1.01636e-06
-2.27876e-06
-1.49287e-07
-5.87551e-06
-4.88348e-07
1.14257e-06
-1.41517e-06
6.9362e-06
-6.52138e-08
1.23546e-06
-3.84352e-07
-1.35883e-07
-1.48715e-06
-5.56047e-07
-2.70774e-07
6.15266e-06
-1.86057e-06
3.52623e-06
-4.40266e-07
6.11254e-07
-7.42997e-07
1.05101e-06
-1.6674e-06
2.12394e-06
-4.47877e-07
2.6825e-06
-1.75959e-07
4.62345e-11
-1.77156e-07
-1.99345e-07
-1.67753e-07
-1.74614e-07
-1.91268e-07
-3.83319e-08
-1.48436e-07
-2.96308e-13
-2.99714e-08
1.20524e-07
-5.08152e-08
4.94457e-08
-3.94417e-07
1.31813e-07
-9.91082e-07
3.59673e-08
-7.89659e-07
-3.77927e-07
-1.50237e-06
-4.07904e-07
-4.52341e-06
-3.9615e-07
-4.31343e-06
1.7557e-06
-3.29185e-06
4.93773e-06
-1.71259e-06
2.82545e-06
-1.59424e-06
1.6275e-06
-1.0267e-06
3.91048e-07
-1.97201e-07
-7.6803e-08
-1.36719e-07
-6.13171e-08
-1.12289e-07
-7.34141e-08
-1.03178e-07
-1.08299e-07
-3.33696e-07
-2.07272e-07
-1.42485e-06
-2.81014e-07
-1.4155e-06
-4.11885e-07
-1.12347e-06
-4.89837e-07
-1.03133e-06
-4.66813e-07
-1.0512e-06
-1.89306e-07
-8.18453e-07
-9.09765e-08
-4.41551e-07
-6.54049e-07
-5.54327e-08
-3.38378e-07
-4.12217e-08
-6.97242e-08
-4.70553e-08
-3.18007e-09
-2.00786e-08
1.62525e-08
-1.20906e-08
1.81193e-09
-9.75859e-09
-6.30856e-10
-9.29184e-09
-3.6548e-09
-8.73454e-09
-4.99587e-09
-8.73141e-09
-2.13432e-09
-9.35352e-09
6.89129e-09
-1.12058e-08
1.15846e-08
-1.14971e-08
8.35049e-09
-1.20854e-08
1.05921e-08
-1.31617e-08
1.12228e-08
-1.90944e-08
-3.43915e-09
-2.41264e-07
-3.59862e-08
-1.15593e-06
-3.32997e-07
-1.28918e-06
2.51051e-06
-1.59993e-06
2.82169e-06
-6.6229e-07
6.52881e-07
-9.92267e-09
-1.30264e-07
-1.19378e-09
-5.70826e-09
-6.81953e-10
-8.31378e-09
-1.25993e-10
-5.51819e-09
4.901e-10
-6.20776e-09
1.01783e-09
-5.99991e-09
1.11503e-09
-4.83122e-09
1.13786e-09
-2.59244e-09
1.6188e-09
-1.81328e-10
6.132e-09
1.5872e-09
4.81212e-08
-7.10527e-08
7.43284e-08
-8.26903e-08
2.82818e-08
-3.0193e-08
1.20449e-07
-4.7539e-07
9.37357e-08
-1.1145e-08
5.01603e-08
-4.94522e-08
9.39938e-08
-8.08453e-08
5.69454e-08
-2.99091e-08
1.92893e-08
5.46763e-08
1.71853e-08
1.76157e-08
2.48948e-06
-7.63209e-06
1.86019e-06
7.75364e-08
6.64387e-06
-7.94758e-05
1.32495e-06
-4.20281e-06
1.97759e-06
6.83448e-06
-3.90492e-07
0.000112226
-3.82353e-06
1.03918e-05
-8.01358e-07
5.99576e-06
-5.67035e-07
3.78005e-08
-4.576e-06
-2.21101e-06
-1.37527e-06
1.0988e-05
-3.92843e-06
1.67153e-05
-1.01449e-06
-6.47487e-06
-7.1567e-07
-7.81815e-06
-2.97605e-09