/*--------------------------------*- C++ -*----------------------------------*\
| =========                 |                                                 |
| \\      /  F ield         | OpenFOAM: The Open Source CFD Toolbox           |
|  \\    /   O peration     | Version:  v1912                                 |
|   \\  /    A nd           | Website:  www.openfoam.com                      |
|    \\/     M anipulation  |                                                 |
\*---------------------------------------------------------------------------*/
FoamFile
{
    version     2.0;
    format      ascii;
    class       volScalarField;
    location    "60";
    object      k;
}
// * * * * * * * * * * * * * * * * * * * * * * * * * * * * * * * * * * * * * //

dimensions      [0 2 -2 0 0 0 0];


internalField   nonuniform List<scalar> 
14268
(
0.0142514
0.0643646
0.053069
0.0217093
0.0150184
0.00986401
0.0359294
0.0583495
0.0527323
0.0455096
0.0156914
0.0327661
0.0775216
0.101551
0.0868875
0.0701488
0.0534829
0.0559064
0.0626341
0.0526489
0.00959521
0.0145439
0.0549838
0.0492322
0.00529071
0.0194989
0.0653565
0.0812885
0.0675576
0.0098924
0.00392413
0.0262894
0.0256702
0.0220381
0.0254806
0.0339951
0.0265357
0.0187267
0.0165592
0.0151707
0.0150427
0.0157845
0.0191231
0.029023
0.0503605
0.0575309
0.0478221
0.0269053
0.0149119
0.0108377
0.0117366
0.0214387
0.0354894
0.0440131
0.0469864
0.0463037
0.0445328
0.04227
0.0369846
0.0320439
0.0289615
0.0276688
0.0257535
0.0229759
0.0203316
0.0127503
0.0042068
0.00368598
0.0049174
0.00603647
0.0067897
0.00705269
0.00707041
0.00673674
0.00649167
0.00695035
0.00893835
0.0187514
0.0314668
0.0361281
0.0309097
0.0155279
0.0143996
0.027574
0.0369675
0.0427158
0.0447793
0.0452608
0.0442643
0.0425136
0.0413268
0.0411134
0.0353268
0.027803
0.0254772
0.0247082
0.0323598
0.0305589
0.0135135
0.00633408
0.0104359
0.0111913
0.00896865
0.00663213
0.0415259
0.194071
0.0896267
0.0450268
0.0276274
0.0446738
0.0919621
0.14353
0.198514
0.164534
0.0528322
0.117514
0.262518
0.336972
0.236167
0.269825
0.168244
0.154715
0.190188
0.180746
0.0337792
0.0451486
0.283394
0.220805
0.0189122
0.0697737
0.260667
0.300962
0.244637
0.0352697
0.0141177
0.0947685
0.0907047
0.0879719
0.0789485
0.0957646
0.0698215
0.051067
0.0507572
0.0488436
0.0521136
0.0569824
0.0648311
0.107631
0.200822
0.243057
0.206784
0.10863
0.0512279
0.0347059
0.0362699
0.0556997
0.0966749
0.142132
0.148935
0.138235
0.128673
0.119929
0.103171
0.0908657
0.0871074
0.087847
0.0881298
0.0868
0.079827
0.0490293
0.0176024
0.0179991
0.0224294
0.0263662
0.0295785
0.0319071
0.0325507
0.0319286
0.030769
0.0317134
0.0330511
0.0575231
0.0896592
0.112651
0.105827
0.0616277
0.0561353
0.100914
0.132032
0.147427
0.151914
0.149785
0.142178
0.133496
0.129428
0.129106
0.121069
0.102002
0.0959965
0.0932739
0.115358
0.107555
0.0447997
0.0220831
0.0336009
0.0364092
0.0303227
0.0228138
0.0570908
0.199434
0.0770128
0.102903
0.0378068
0.0877985
0.0957521
0.168644
0.355149
0.324451
0.0931672
0.218569
0.394281
0.429895
0.246779
0.532335
0.289384
0.181067
0.196683
0.238144
0.0782439
0.103032
0.569939
0.528157
0.0390411
0.149673
0.463757
0.425505
0.288333
0.0654527
0.0206076
0.147199
0.0954583
0.0857032
0.103122
0.121722
0.0782445
0.0466633
0.048924
0.0620612
0.0788697
0.0869318
0.0945764
0.192214
0.370824
0.449224
0.396317
0.228127
0.099649
0.057835
0.054494
0.0790848
0.164151
0.249672
0.264386
0.251368
0.231843
0.195793
0.148156
0.115672
0.103338
0.102798
0.123603
0.148565
0.14912
0.103425
0.0406103
0.0323263
0.037224
0.0394983
0.0527823
0.0585414
0.0587889
0.0568186
0.0550329
0.0533813
0.0484125
0.0638317
0.102516
0.153982
0.171493
0.117948
0.108927
0.179173
0.219887
0.222562
0.215433
0.203196
0.180802
0.161687
0.155443
0.156533
0.161068
0.157153
0.154938
0.156188
0.186672
0.186892
0.0776184
0.0279942
0.0367854
0.0439684
0.0383683
0.0274885
0.077081
0.133268
0.0683657
0.168893
0.0655209
0.0498297
0.0707172
0.218999
0.454924
0.443241
0.133124
0.288605
0.40331
0.38345
0.200167
0.645996
0.461232
0.166715
0.134329
0.182704
0.0927206
0.196987
0.659162
0.734932
0.0686914
0.223765
0.49213
0.366052
0.224499
0.123388
0.0334207
0.193558
0.0925358
0.0595876
0.116861
0.171411
0.111361
0.0534451
0.0455427
0.059752
0.0959946
0.111968
0.127834
0.276824
0.495535
0.574184
0.516557
0.339877
0.167218
0.095733
0.0909529
0.131835
0.249817
0.335276
0.351103
0.344606
0.32729
0.28527
0.216944
0.142319
0.0946889
0.0780964
0.0969691
0.136695
0.178827
0.154664
0.0746569
0.0591224
0.0581294
0.0499703
0.0647665
0.0700442
0.0710245
0.070678
0.0717869
0.0743752
0.0666826
0.0618576
0.0804767
0.134342
0.198685
0.160543
0.147202
0.216467
0.219897
0.194019
0.180271
0.168511
0.145849
0.126906
0.126805
0.129367
0.130286
0.150483
0.148116
0.157779
0.17877
0.236889
0.1173
0.0299309
0.0286877
0.0332119
0.0292861
0.0278952
0.173426
0.0766593
0.0875301
0.385718
0.0978946
0.0264903
0.0926609
0.312935
0.428577
0.528209
0.197257
0.303204
0.377238
0.363183
0.156623
0.56533
0.657134
0.27659
0.132558
0.138746
0.0834383
0.205766
0.721142
0.824181
0.116748
0.318733
0.494208
0.318394
0.227439
0.189007
0.0572532
0.277839
0.133867
0.0681564
0.18429
0.276381
0.193936
0.0845583
0.0617905
0.0583999
0.0958652
0.13777
0.183736
0.380513
0.625642
0.710522
0.644133
0.459497
0.264729
0.174759
0.165104
0.210112
0.336917
0.420599
0.434016
0.429348
0.415703
0.382358
0.321712
0.227101
0.138278
0.0792762
0.0678662
0.101778
0.154659
0.158265
0.0725019
0.0544217
0.0524422
0.0511087
0.0589497
0.0635959
0.0651634
0.0664353
0.0688404
0.0778949
0.0801831
0.0763003
0.0646586
0.11113
0.205618
0.21407
0.189807
0.21091
0.176153
0.143015
0.133074
0.127208
0.114255
0.117138
0.146758
0.157348
0.14092
0.124877
0.11467
0.118773
0.134066
0.286098
0.163785
0.0475106
0.0419974
0.0377456
0.0330659
0.0325841
0.285292
0.0580791
0.226839
0.658208
0.226264
0.0343392
0.196322
0.307391
0.342763
0.45491
0.234926
0.218326
0.31207
0.323372
0.098594
0.46065
0.683417
0.541918
0.287192
0.135537
0.0647747
0.191074
0.850802
0.94549
0.213528
0.382127
0.463143
0.250056
0.378933
0.263337
0.101787
0.36002
0.197126
0.110928
0.261662
0.366153
0.261529
0.130966
0.0850518
0.0786253
0.0847899
0.130424
0.216574
0.456327
0.677728
0.750038
0.709011
0.550251
0.359255
0.2615
0.244455
0.273062
0.386083
0.454359
0.459292
0.455459
0.464902
0.449845
0.394282
0.31198
0.221032
0.131267
0.0731283
0.0631987
0.101584
0.119871
0.0592369
0.0426086
0.0474198
0.0578605
0.0605263
0.0640731
0.0693629
0.0721031
0.0701154
0.0826299
0.0954218
0.0956822
0.0842424
0.0882724
0.187202
0.257037
0.195254
0.15581
0.11809
0.101807
0.102124
0.109979
0.127972
0.154358
0.184014
0.195629
0.182939
0.157043
0.133024
0.116137
0.101323
0.315437
0.202934
0.0833209
0.0738719
0.0663014
0.0563942
0.0546934
0.401744
0.0780084
0.414453
0.786627
0.380387
0.113904
0.240786
0.269787
0.258369
0.378608
0.293196
0.14584
0.260052
0.284517
0.0855149
0.394192
0.607377
0.633373
0.538966
0.239018
0.0588379
0.244525
1.05158
1.15593
0.350639
0.445581
0.444006
0.227942
0.575499
0.335206
0.165084
0.451035
0.266524
0.181714
0.351014
0.417622
0.284669
0.166423
0.121289
0.102162
0.0963333
0.119234
0.217244
0.480807
0.65594
0.710834
0.738545
0.639038
0.45462
0.358612
0.325368
0.314396
0.384724
0.42149
0.413244
0.409088
0.453124
0.496567
0.463923
0.384698
0.294788
0.205141
0.129905
0.065778
0.0611982
0.0837657
0.0697075
0.0586579
0.0531546
0.0650583
0.06973
0.073393
0.0810711
0.0869367
0.0866506
0.103048
0.121067
0.127987
0.131293
0.0981916
0.162765
0.290703
0.2149
0.123777
0.0941881
0.113219
0.12807
0.140061
0.151992
0.172156
0.200399
0.217731
0.209529
0.198007
0.181896
0.156384
0.130448
0.32371
0.23552
0.115679
0.1091
0.106392
0.0909128
0.0782453
0.583016
0.106346
0.651743
0.946806
0.463598
0.231116
0.178604
0.214911
0.194623
0.294341
0.360937
0.113359
0.23548
0.244606
0.183178
0.426974
0.529626
0.570894
0.617167
0.436701
0.0546705
0.362556
1.19216
1.2936
0.482095
0.476799
0.390015
0.29751
0.706189
0.396725
0.226977
0.52282
0.317179
0.234254
0.38095
0.367111
0.237018
0.173607
0.144497
0.140949
0.138639
0.136776
0.201542
0.412667
0.562114
0.611556
0.683763
0.704902
0.533414
0.435182
0.402269
0.338581
0.337372
0.349078
0.335575
0.329389
0.379055
0.4539
0.49092
0.435564
0.348679
0.25302
0.178878
0.109696
0.0519807
0.0596553
0.0820188
0.086246
0.0635187
0.0780409
0.0854169
0.0899472
0.096663
0.10342
0.108043
0.13036
0.156192
0.178182
0.206816
0.1442
0.131005
0.264514
0.241684
0.140762
0.11733
0.147037
0.162087
0.172166
0.170732
0.183362
0.211054
0.234182
0.226743
0.215556
0.210858
0.187251
0.163206
0.287615
0.245232
0.145705
0.138759
0.135786
0.116634
0.0956833
0.800073
0.13787
0.954724
1.17263
0.586126
0.339647
0.125666
0.167454
0.246124
0.262435
0.329057
0.171651
0.297767
0.238946
0.263828
0.674463
0.467649
0.483221
0.624837
0.633664
0.0499963
0.511266
1.24384
1.32727
0.594936
0.505269
0.340676
0.451531
0.796613
0.438957
0.287029
0.58539
0.371862
0.277497
0.344351
0.291337
0.193394
0.159566
0.149388
0.173994
0.190742
0.188433
0.209143
0.341231
0.459629
0.511059
0.591901
0.684893
0.626205
0.519962
0.474432
0.347862
0.277703
0.274414
0.256343
0.243908
0.288092
0.379907
0.437824
0.428313
0.365026
0.2785
0.209408
0.146284
0.0707768
0.0486214
0.0667895
0.0799964
0.0705906
0.0896139
0.097936
0.102662
0.109242
0.117302
0.126137
0.154719
0.188255
0.222778
0.275664
0.210083
0.112499
0.22611
0.233142
0.171683
0.125093
0.138663
0.15174
0.166215
0.175737
0.20011
0.234241
0.253699
0.245687
0.235515
0.232557
0.213288
0.181335
0.240002
0.238624
0.177643
0.165723
0.160438
0.13789
0.110255
0.821996
0.182994
1.07834
1.35071
0.676237
0.312663
0.144964
0.148472
0.408092
0.291529
0.272868
0.244683
0.301504
0.221593
0.208924
0.99527
0.540338
0.377542
0.588621
0.750115
0.0562174
0.623555
1.16731
1.22008
0.673917
0.538874
0.278125
0.60121
0.820009
0.409183
0.34126
0.608207
0.410034
0.288412
0.286192
0.230417
0.199729
0.164584
0.158332
0.193116
0.225586
0.2407
0.244402
0.301588
0.380251
0.417313
0.482587
0.591562
0.642761
0.604042
0.541187
0.359685
0.239397
0.236179
0.214883
0.187011
0.206901
0.285742
0.350244
0.350604
0.29678
0.238123
0.189809
0.146571
0.0920069
0.0618792
0.0538823
0.0603414
0.074365
0.0991571
0.108349
0.113369
0.12009
0.12938
0.141703
0.175428
0.214507
0.257173
0.329286
0.283739
0.109768
0.182565
0.198745
0.154463
0.113406
0.157512
0.181806
0.199676
0.206021
0.231458
0.256141
0.268266
0.260877
0.251907
0.240862
0.228207
0.196007
0.189596
0.239633
0.207501
0.182484
0.178179
0.15515
0.122565
0.728386
0.260462
0.99783
1.49188
0.578806
0.209017
0.271685
0.217502
0.603459
0.398312
0.205814
0.296145
0.242308
0.216664
0.167425
1.3055
0.887
0.303062
0.509703
0.753478
0.0739334
0.717828
1.17185
1.13098
0.747315
0.584758
0.248914
0.748908
0.816783
0.352596
0.369486
0.572638
0.447321
0.285488
0.243345
0.220166
0.23116
0.19616
0.181416
0.206065
0.252189
0.28476
0.295044
0.319203
0.371244
0.393269
0.40434
0.485843
0.557246
0.581333
0.554516
0.369102
0.249489
0.273396
0.24429
0.186375
0.165668
0.209267
0.260217
0.263661
0.219098
0.174073
0.13614
0.108385
0.101895
0.0897023
0.0667192
0.0611008
0.0801917
0.107197
0.117328
0.122511
0.129625
0.140319
0.155849
0.194273
0.237844
0.286787
0.375279
0.355849
0.126091
0.141502
0.162389
0.11993
0.125957
0.187347
0.222087
0.246281
0.250705
0.258686
0.271536
0.281677
0.27549
0.266946
0.243022
0.231977
0.208555
0.157377
0.246593
0.224246
0.179649
0.180827
0.16492
0.129962
0.64989
0.374812
0.827726
1.48008
0.56039
0.150986
0.387692
0.217418
0.757979
0.557981
0.144145
0.368037
0.214494
0.381691
0.250236
1.53785
1.21949
0.291552
0.424803
0.726166
0.149519
0.800524
1.28412
1.04823
0.809331
0.545914
0.339624
0.862662
0.77021
0.289158
0.398776
0.495476
0.483435
0.297235
0.244396
0.254099
0.254569
0.221605
0.200556
0.215298
0.271839
0.32117
0.339015
0.367115
0.429863
0.466184
0.395076
0.389613
0.448435
0.477921
0.449906
0.324886
0.290709
0.324905
0.27775
0.193483
0.155255
0.170382
0.198023
0.202448
0.172208
0.137492
0.102895
0.0791767
0.0903409
0.0977658
0.0899441
0.0719261
0.0872126
0.112904
0.123596
0.129244
0.137538
0.150381
0.168959
0.211822
0.259116
0.312151
0.41509
0.420407
0.154207
0.0998574
0.12285
0.0874453
0.136157
0.208512
0.23663
0.262891
0.268135
0.271719
0.283256
0.293042
0.287772
0.278665
0.244538
0.231131
0.213923
0.15444
0.240416
0.216388
0.155843
0.158611
0.152438
0.122761
0.685134
0.552819
0.704504
1.40093
0.639187
0.114949
0.424441
0.1656
0.727883
0.753371
0.116054
0.432646
0.287197
0.687987
0.4179
1.73918
1.49924
0.39286
0.391253
0.68594
0.233159
0.826151
1.41425
0.971492
0.73137
0.495163
0.475955
0.8991
0.706205
0.241896
0.400401
0.408686
0.483539
0.342729
0.26596
0.277479
0.272885
0.241676
0.210651
0.211961
0.281233
0.354105
0.378823
0.418783
0.49621
0.54286
0.466717
0.349495
0.346315
0.368826
0.349087
0.276811
0.329319
0.365833
0.304945
0.201199
0.152942
0.157552
0.175392
0.178421
0.160606
0.145355
0.117236
0.0886529
0.0772085
0.088385
0.0965777
0.0825612
0.0919014
0.114452
0.125233
0.131051
0.142045
0.159671
0.181541
0.228895
0.279778
0.334912
0.446549
0.47119
0.204161
0.0645333
0.0852697
0.0914704
0.141844
0.225497
0.248401
0.274231
0.281247
0.285126
0.295759
0.30512
0.300367
0.28934
0.255198
0.240804
0.213159
0.157019
0.216413
0.188051
0.138429
0.12744
0.121309
0.0976405
0.885543
0.696294
0.571377
1.2838
0.775786
0.0940824
0.320743
0.11463
0.660413
0.9318
0.140553
0.35273
0.305185
0.892405
0.444937
1.90716
1.71564
0.505421
0.32975
0.625047
0.289525
0.771461
1.55826
0.899749
0.631396
0.432441
0.440939
0.849705
0.60577
0.211979
0.329095
0.318372
0.416629
0.375828
0.242172
0.267692
0.279513
0.248205
0.205657
0.194656
0.272998
0.377811
0.410542
0.439299
0.490019
0.530685
0.521267
0.378942
0.269234
0.284993
0.28094
0.260702
0.335131
0.361326
0.29143
0.188714
0.147726
0.151656
0.159358
0.158595
0.151535
0.147847
0.126622
0.101493
0.0833123
0.0797529
0.0860664
0.0848611
0.0932516
0.111881
0.122205
0.12701
0.141857
0.167803
0.193313
0.244661
0.298232
0.352113
0.460758
0.498806
0.25835
0.0671711
0.0603208
0.0992
0.152237
0.237204
0.255519
0.285183
0.293999
0.298049
0.30738
0.315895
0.311653
0.299255
0.273628
0.260923
0.21923
0.157268
0.182483
0.168479
0.142943
0.114314
0.0986379
0.0795427
1.13102
0.675113
0.393741
1.11669
0.947542
0.0778202
0.185867
0.0828572
0.590496
0.927811
0.175516
0.248462
0.373369
1.09351
0.513615
2.1369
2.00094
0.528445
0.248413
0.536885
0.313842
0.678295
1.72394
0.831616
0.543043
0.329709
0.36412
0.74959
0.438648
0.175838
0.229921
0.205651
0.314465
0.359246
0.196041
0.263365
0.290032
0.262386
0.207681
0.178896
0.251257
0.369971
0.400404
0.378605
0.404535
0.447818
0.499371
0.435289
0.223933
0.210255
0.236561
0.266675
0.314324
0.317258
0.23328
0.154412
0.143799
0.149031
0.146417
0.134678
0.132754
0.138528
0.131572
0.117966
0.103933
0.085992
0.0754715
0.0787172
0.0886725
0.105454
0.114319
0.117526
0.13581
0.176762
0.206145
0.257534
0.314546
0.3657
0.456101
0.505001
0.305831
0.133415
0.0726653
0.119801
0.171295
0.244791
0.255068
0.30222
0.313082
0.316716
0.324157
0.331869
0.329198
0.318514
0.303261
0.293287
0.247215
0.166146
0.146134
0.165375
0.160069
0.124245
0.0932981
0.0804978
0.892944
0.493564
0.337018
1.08417
1.08942
0.0997309
0.0776537
0.148178
0.580396
0.770032
0.208605
0.133515
0.556912
0.967324
0.93314
2.37228
2.27299
0.664389
0.14445
0.382928
0.297738
0.675203
1.68066
0.864141
0.60288
0.327239
0.330723
0.591471
0.25149
0.15503
0.136447
0.14163
0.187579
0.264521
0.187018
0.288261
0.310149
0.292845
0.232369
0.204463
0.243226
0.333607
0.343944
0.263295
0.254416
0.292696
0.34673
0.322262
0.217674
0.21754
0.237338
0.251219
0.248127
0.221764
0.147001
0.129018
0.155116
0.153996
0.141243
0.116383
0.102777
0.102413
0.103379
0.114319
0.120026
0.105783
0.0832256
0.0794511
0.0850459
0.10913
0.11734
0.119612
0.132391
0.175766
0.193502
0.221759
0.277685
0.327554
0.408172
0.454029
0.282726
0.183623
0.138543
0.125851
0.187744
0.233338
0.232305
0.315759
0.333155
0.337258
0.342311
0.349349
0.349313
0.343589
0.332936
0.323749
0.28418
0.200739
0.165329
0.183185
0.182182
0.139031
0.100194
0.0849271
0.582406
0.309658
0.551416
1.11951
1.08792
0.184219
0.0853592
0.373825
0.403621
0.610511
0.403903
0.111416
0.457263
0.800353
1.43821
2.44372
2.49882
1.11129
0.0842554
0.269492
0.318921
0.794401
1.4792
0.792431
0.664745
0.366906
0.336954
0.467197
0.163833
0.185543
0.139354
0.186272
0.0852635
0.164436
0.212571
0.288962
0.311682
0.304062
0.250167
0.220793
0.263783
0.366587
0.356018
0.247804
0.179131
0.167516
0.204175
0.206966
0.221028
0.24407
0.226062
0.196506
0.173772
0.143001
0.116204
0.156592
0.173271
0.161168
0.143939
0.119058
0.100882
0.0902872
0.0844421
0.0978671
0.11917
0.121939
0.0914308
0.0851549
0.0951492
0.124256
0.134226
0.135176
0.14119
0.17291
0.177367
0.185311
0.229355
0.278058
0.395586
0.456106
0.249455
0.161316
0.131532
0.117184
0.196768
0.221985
0.216968
0.324671
0.351249
0.356865
0.359455
0.366512
0.368763
0.366223
0.360154
0.352529
0.317059
0.23961
0.204637
0.214499
0.204739
0.153652
0.108022
0.0891018
0.445118
0.310897
0.750484
0.980763
0.929354
0.370263
0.127221
0.516238
0.224118
0.439531
0.628021
0.302096
0.377392
0.667367
1.53666
2.37257
2.56116
1.47155
0.13594
0.161098
0.474591
0.950959
1.27398
0.694482
0.583726
0.315832
0.26508
0.343328
0.176139
0.228703
0.256229
0.327478
0.0562575
0.101393
0.217584
0.272064
0.310221
0.305721
0.258613
0.227346
0.27772
0.432025
0.434928
0.341164
0.260486
0.149023
0.134771
0.160326
0.227774
0.256883
0.213735
0.15031
0.121535
0.11194
0.134404
0.179698
0.188744
0.167962
0.145592
0.124028
0.106607
0.0948327
0.0894861
0.0870701
0.104021
0.123079
0.0984831
0.0917811
0.104805
0.137166
0.14853
0.147984
0.151406
0.181359
0.186455
0.193669
0.222206
0.262115
0.436806
0.535841
0.253547
0.115265
0.0986508
0.130413
0.196496
0.211016
0.216443
0.32593
0.36179
0.371316
0.371995
0.379475
0.38496
0.385563
0.382537
0.376971
0.346389
0.277874
0.237683
0.235466
0.218979
0.165391
0.114678
0.0922977
0.474446
0.513531
0.860129
0.898658
0.785803
0.430476
0.176233
0.635762
0.108351
0.286264
0.598152
0.540551
0.462721
0.491297
1.40427
2.23003
2.46357
1.6525
0.309459
0.0916501
0.68584
1.0664
1.09965
0.596651
0.44417
0.236563
0.174036
0.249845
0.201271
0.297988
0.37458
0.489857
0.0657461
0.109868
0.206366
0.241197
0.306557
0.307471
0.26445
0.23259
0.261323
0.464869
0.520436
0.462048
0.410052
0.231607
0.14975
0.162462
0.22953
0.261634
0.227304
0.162474
0.127263
0.115202
0.145559
0.192289
0.198943
0.174276
0.149756
0.128684
0.113041
0.103206
0.0961975
0.0903211
0.09154
0.110951
0.105112
0.096943
0.112106
0.147282
0.159038
0.157423
0.157117
0.189744
0.204395
0.215486
0.241023
0.269974
0.462489
0.580844
0.309925
0.116787
0.115729
0.154409
0.198258
0.207404
0.221829
0.32157
0.36368
0.37976
0.380902
0.390106
0.399756
0.403802
0.403559
0.39924
0.373752
0.313392
0.266414
0.246149
0.224034
0.172923
0.1212
0.0953832
0.421292
0.586597
0.801026
0.795888
0.729489
0.454142
0.211591
0.688628
0.116565
0.164669
0.414436
0.672245
0.468856
0.324869
1.19379
2.04093
2.24173
1.63663
0.438005
0.0397624
0.577889
1.15223
0.94653
0.490218
0.307967
0.150193
0.109671
0.162382
0.202726
0.357297
0.43402
0.572643
0.118405
0.112348
0.201118
0.211344
0.292587
0.306853
0.266362
0.239013
0.230693
0.432317
0.522907
0.520511
0.485559
0.288002
0.178103
0.167615
0.224461
0.260657
0.242086
0.171099
0.130942
0.11504
0.136303
0.182825
0.200182
0.177734
0.153156
0.132513
0.118125
0.109901
0.105129
0.0984243
0.0899363
0.10282
0.109732
0.100631
0.116999
0.150443
0.161588
0.161485
0.15596
0.186935
0.213249
0.233708
0.259192
0.282068
0.453497
0.557585
0.365577
0.164919
0.148597
0.182165
0.199488
0.201252
0.223714
0.311574
0.354734
0.378749
0.384157
0.396804
0.411489
0.417908
0.418921
0.414776
0.395808
0.343816
0.29083
0.252615
0.224746
0.173702
0.124974
0.0974217
0.35723
0.573976
0.736255
0.716021
0.73449
0.471141
0.255177
0.611595
0.177583
0.0985194
0.329418
0.600937
0.392027
0.206837
1.00334
1.83269
1.98696
1.50587
0.505157
0.0409982
0.485186
1.15269
0.846946
0.412352
0.224043
0.133138
0.110917
0.101804
0.183582
0.345981
0.439858
0.559833
0.170636
0.12403
0.19142
0.196215
0.276041
0.301889
0.266399
0.241896
0.218448
0.38038
0.480969
0.502917
0.471918
0.292131
0.190346
0.169482
0.218568
0.259335
0.249157
0.18064
0.130094
0.112614
0.122579
0.165839
0.193981
0.180421
0.158164
0.136963
0.123266
0.11673
0.114441
0.108731
0.0974384
0.105759
0.11404
0.103617
0.118549
0.146304
0.15706
0.160303
0.15337
0.178607
0.211787
0.249058
0.273596
0.290437
0.4295
0.511221
0.384636
0.218899
0.192916
0.207769
0.200239
0.195539
0.22497
0.297526
0.338562
0.368608
0.383106
0.402539
0.423445
0.431975
0.432571
0.427564
0.412805
0.370385
0.31613
0.264743
0.225453
0.171705
0.124657
0.0977845
0.209844
0.298343
0.208334
0.393518
0.825206
0.440237
0.223925
0.249339
0.229277
0.103848
0.108566
0.133781
0.0469255
0.0407066
0.232704
0.706088
0.777971
0.648882
0.452128
0.117015
0.172904
0.794208
0.416146
0.12408
0.139406
0.163898
0.0758096
0.0441992
0.0786595
0.191219
0.263491
0.222199
0.267488
0.217905
0.152728
0.167053
0.196844
0.236735
0.245418
0.225179
0.228166
0.182645
0.204894
0.211593
0.188862
0.171405
0.161357
0.154534
0.154975
0.203882
0.225839
0.174798
0.126864
0.0983895
0.093685
0.124772
0.171345
0.193321
0.188159
0.161711
0.149477
0.150519
0.164793
0.164707
0.132706
0.123841
0.128197
0.115545
0.111358
0.110987
0.123429
0.140552
0.146441
0.140695
0.187926
0.308981
0.341265
0.318667
0.295819
0.291043
0.342782
0.391616
0.362292
0.293397
0.193226
0.198304
0.217566
0.240217
0.263878
0.301459
0.358306
0.418751
0.470885
0.487859
0.486962
0.482773
0.482829
0.473949
0.426682
0.346146
0.23793
0.153149
0.108271
0.0906125
0.1674
0.112416
0.10862
0.137406
0.301094
0.284855
0.1605
0.126986
0.143665
0.110902
0.0887039
0.0536309
0.0288395
0.0405682
0.0366318
0.0669646
0.0943289
0.0869671
0.159335
0.114267
0.0882096
0.14778
0.087369
0.074594
0.0425728
0.107108
0.0443015
0.0413516
0.0647932
0.0638418
0.0504945
0.0439113
0.077556
0.106931
0.1202
0.168437
0.205072
0.212524
0.235026
0.215902
0.262723
0.283368
0.231446
0.151336
0.130226
0.1178
0.121566
0.132533
0.131072
0.133215
0.130008
0.113709
0.111835
0.153453
0.194751
0.220828
0.272414
0.326644
0.326496
0.24886
0.204247
0.215474
0.277251
0.30345
0.242328
0.16901
0.124651
0.117101
0.103483
0.088328
0.0887865
0.0927493
0.11168
0.128407
0.14244
0.208161
0.282633
0.292423
0.226828
0.190777
0.19684
0.204227
0.203864
0.196548
0.185105
0.192239
0.197757
0.203768
0.211961
0.22229
0.264096
0.350827
0.46563
0.55685
0.603141
0.617281
0.612362
0.595209
0.556063
0.486659
0.386068
0.255611
0.162291
0.136497
0.0579902
0.0670673
0.068636
0.0589475
0.0663156
0.120989
0.12052
0.101284
0.0812436
0.0656559
0.0515844
0.0366126
0.0282498
0.0236607
0.0182928
0.0106612
0.0333055
0.0854548
0.0565555
0.0724852
0.0746049
0.0510179
0.0870052
0.0755977
0.0392919
0.0483867
0.0406789
0.0607679
0.0556178
0.0444489
0.0490496
0.0560882
0.0465879
0.0700951
0.152468
0.180241
0.172857
0.186065
0.213885
0.198434
0.214559
0.261413
0.258054
0.233899
0.210857
0.20012
0.175305
0.130109
0.134377
0.150309
0.131389
0.118645
0.135753
0.171587
0.224303
0.270941
0.344966
0.419521
0.452265
0.394926
0.279958
0.253925
0.328699
0.35157
0.327069
0.250421
0.154963
0.108581
0.08804
0.0791036
0.0778987
0.0829412
0.0961843
0.111011
0.116604
0.115666
0.138886
0.173017
0.168242
0.169587
0.172013
0.172081
0.167808
0.159083
0.15909
0.172258
0.185481
0.193893
0.203437
0.210576
0.218269
0.246761
0.319756
0.441969
0.584801
0.672343
0.706962
0.689919
0.639492
0.552845
0.44491
0.315198
0.207529
0.16751
0.0384562
0.0317046
0.0303352
0.0307868
0.0336203
0.0438894
0.0577016
0.0735657
0.0766149
0.0709277
0.0587751
0.0414794
0.0283154
0.0247482
0.0257291
0.0288067
0.0286982
0.0310275
0.0354092
0.0533919
0.062943
0.0611367
0.0682607
0.0633978
0.0467018
0.0461793
0.0447044
0.0490513
0.0772747
0.0908096
0.0964242
0.0857646
0.0599493
0.0587406
0.085303
0.142356
0.145957
0.137903
0.151047
0.151309
0.155447
0.176453
0.194872
0.205313
0.20636
0.204331
0.215215
0.192002
0.159859
0.155712
0.15871
0.150061
0.161008
0.17437
0.224761
0.261892
0.268734
0.319698
0.418982
0.453121
0.35529
0.250024
0.249786
0.229383
0.244933
0.249367
0.169441
0.11935
0.0995148
0.0949889
0.0943466
0.0956814
0.0988927
0.104078
0.10634
0.110548
0.117372
0.116751
0.111094
0.111968
0.11823
0.120002
0.11885
0.115813
0.115635
0.119099
0.128483
0.141671
0.159181
0.178336
0.188079
0.192742
0.207774
0.268264
0.383838
0.538233
0.644958
0.712259
0.714414
0.634613
0.513131
0.381261
0.26612
0.196859
0.280228
0.264259
0.239666
0.203684
0.159655
0.113335
0.0861058
0.0830452
0.0837335
0.0792244
0.0656823
0.045661
0.034174
0.0296792
0.0279943
0.0284242
0.0306124
0.0344304
0.0376471
0.0443119
0.0560925
0.0647091
0.0653414
0.0549171
0.044432
0.0434753
0.0435663
0.0468949
0.0524839
0.0669007
0.0691377
0.0755887
0.0758712
0.0775937
0.0906379
0.113708
0.147344
0.151828
0.14501
0.137452
0.14022
0.152552
0.159616
0.160513
0.159216
0.16691
0.207427
0.235686
0.218929
0.182353
0.186354
0.21293
0.224722
0.241269
0.246132
0.240293
0.220696
0.220064
0.272615
0.37829
0.407065
0.298072
0.185389
0.133326
0.107304
0.108739
0.116873
0.106521
0.11338
0.112967
0.109086
0.10279
0.0970996
0.0953537
0.0928105
0.093772
0.0960625
0.0960877
0.0956923
0.0947358
0.0938515
0.0927908
0.0905878
0.0867985
0.0848138
0.0856791
0.0893715
0.0971142
0.108069
0.121714
0.137596
0.151541
0.164394
0.178551
0.209884
0.294955
0.425252
0.558122
0.655891
0.64501
0.543164
0.406678
0.284197
0.200846
0.558133
0.513771
0.463114
0.406096
0.342293
0.270686
0.189835
0.139783
0.117967
0.098792
0.0754983
0.0556131
0.0528335
0.0543149
0.057562
0.0603837
0.059265
0.057255
0.0539359
0.0537338
0.0556901
0.0633005
0.0680437
0.0621058
0.0510194
0.0387754
0.0270763
0.0225778
0.0252057
0.0360201
0.0448295
0.0548764
0.0701603
0.0792711
0.0892961
0.111696
0.128363
0.163474
0.182251
0.177423
0.161525
0.159491
0.161978
0.158915
0.144707
0.142635
0.156746
0.185342
0.206328
0.19998
0.186118
0.194715
0.200341
0.198574
0.197756
0.200153
0.199184
0.193572
0.196435
0.2439
0.339454
0.355444
0.252916
0.141036
0.0818715
0.0615155
0.0766549
0.106912
0.11376
0.109162
0.101612
0.0880275
0.0721502
0.0697813
0.0722034
0.0768821
0.080812
0.0813131
0.0800677
0.0773656
0.0744582
0.0726399
0.0715611
0.0708508
0.0711708
0.0725874
0.0752811
0.0785987
0.0818537
0.0866433
0.0954474
0.110048
0.129766
0.151496
0.16389
0.178091
0.239565
0.359223
0.495747
0.567069
0.522667
0.422513
0.307881
0.21793
0.599336
0.524658
0.465092
0.423278
0.385188
0.344692
0.297955
0.243622
0.189351
0.147739
0.106048
0.0858598
0.0859785
0.091587
0.102263
0.114989
0.115694
0.112415
0.10296
0.0899719
0.0748952
0.0698713
0.0710148
0.0696306
0.0623343
0.0489208
0.0403386
0.0338073
0.0304974
0.0304836
0.0321776
0.0367235
0.0430266
0.0517867
0.063835
0.070232
0.0824076
0.104394
0.14078
0.186262
0.196143
0.186749
0.174756
0.166886
0.151333
0.142955
0.145895
0.152125
0.164856
0.173775
0.163067
0.146627
0.136373
0.124433
0.11649
0.117616
0.125369
0.14715
0.170782
0.192598
0.233096
0.270796
0.254913
0.204517
0.142016
0.0800192
0.0514615
0.0620697
0.0673518
0.0667291
0.0674138
0.0628229
0.0573982
0.0563965
0.0583976
0.062681
0.0684853
0.0717365
0.0718076
0.069725
0.0650563
0.0595349
0.0571018
0.0568127
0.0575809
0.0595783
0.0626539
0.0662248
0.0698371
0.073906
0.0798227
0.0895523
0.105395
0.128156
0.142181
0.146423
0.15692
0.213298
0.339691
0.442178
0.446097
0.39437
0.312064
0.228589
0.450379
0.383511
0.358622
0.353897
0.344866
0.32996
0.311362
0.288276
0.25784
0.219376
0.171242
0.143229
0.141699
0.147899
0.161518
0.181669
0.193389
0.192166
0.182573
0.162745
0.135869
0.107108
0.0896488
0.0816229
0.0740414
0.0644366
0.0561524
0.0554702
0.0586843
0.0630409
0.0628349
0.0584578
0.0528414
0.0524407
0.0530509
0.0545599
0.0566315
0.0620246
0.0816418
0.120025
0.174692
0.202356
0.197054
0.183113
0.163691
0.152606
0.153042
0.154588
0.152828
0.148053
0.134712
0.114095
0.10116
0.0914847
0.0812002
0.0745998
0.0744438
0.0821453
0.104966
0.150871
0.180821
0.194299
0.20484
0.206032
0.217697
0.19076
0.111073
0.049742
0.0350697
0.0370118
0.0470935
0.057179
0.0611525
0.0647157
0.0677486
0.0691959
0.0699741
0.071273
0.0708019
0.0690561
0.0647526
0.0578197
0.0526156
0.0509586
0.0510881
0.0523358
0.0549904
0.0587411
0.0628984
0.066818
0.0712897
0.0773371
0.0865578
0.0991824
0.111717
0.123721
0.141271
0.173371
0.236752
0.338057
0.39327
0.376042
0.324262
0.253745
0.335446
0.292312
0.268672
0.266732
0.270503
0.282897
0.291925
0.288681
0.278293
0.257647
0.223952
0.202517
0.203579
0.2166
0.243807
0.278167
0.288537
0.283969
0.26817
0.243366
0.212502
0.17559
0.135195
0.11015
0.0957867
0.083585
0.0744127
0.0731089
0.0747695
0.080292
0.0891233
0.0888923
0.0837847
0.0759299
0.0675496
0.061184
0.058116
0.0580568
0.0606744
0.0753277
0.113995
0.173214
0.194691
0.189146
0.176462
0.169762
0.171274
0.169634
0.159788
0.139369
0.108415
0.0798191
0.0629912
0.0571342
0.0540686
0.0501389
0.0482455
0.0495135
0.0558851
0.0726505
0.105922
0.155642
0.170686
0.175298
0.176594
0.172796
0.154039
0.113354
0.0654972
0.0408553
0.0419023
0.0532895
0.0720883
0.092952
0.104199
0.10629
0.102915
0.0943956
0.0840903
0.0759404
0.0683228
0.0595661
0.0522481
0.0492847
0.0489006
0.0495439
0.0514362
0.0545757
0.0585849
0.061976
0.0653057
0.0690077
0.0740764
0.0815441
0.0915935
0.106183
0.129102
0.159986
0.195173
0.269522
0.3566
0.358578
0.325497
0.268936
0.296483
0.264866
0.237763
0.226306
0.226654
0.235872
0.256646
0.280206
0.284108
0.278033
0.263362
0.261949
0.279498
0.327214
0.387613
0.403477
0.395705
0.367899
0.324077
0.277862
0.239507
0.209751
0.182547
0.154568
0.13079
0.112251
0.0992941
0.0960199
0.0971456
0.101468
0.109041
0.113
0.112084
0.107385
0.0999372
0.0919296
0.0837299
0.0740866
0.0685833
0.0697115
0.0824272
0.122025
0.174452
0.183122
0.17998
0.185102
0.207575
0.215922
0.199307
0.164064
0.122549
0.103372
0.107294
0.106776
0.089142
0.0600905
0.0436851
0.0410182
0.0429013
0.0489304
0.0611393
0.0840098
0.121825
0.150591
0.155625
0.158352
0.149813
0.132933
0.113896
0.104897
0.104846
0.107489
0.114483
0.124854