/*--------------------------------*- C++ -*----------------------------------*\
| =========                 |                                                 |
| \\      /  F ield         | OpenFOAM: The Open Source CFD Toolbox           |
|  \\    /   O peration     | Version:  v1912                                 |
|   \\  /    A nd           | Website:  www.openfoam.com                      |
|    \\/     M anipulation  |                                                 |
\*---------------------------------------------------------------------------*/
FoamFile
{
    version     2.0;
    format      ascii;
    class       volVectorField;
    location    "40";
    object      U;
}
// * * * * * * * * * * * * * * * * * * * * * * * * * * * * * * * * * * * * * //

dimensions      [0 1 -1 0 0 0 0];


internalField   nonuniform List<vector> 
14268
(
(-0.00594285 -0.000286295 0)
(-0.00841943 -0.000409236 -6.96982e-27)
(-0.0111795 -0.000547161 5.87092e-27)
(-0.0136882 -0.000672797 0)
(-0.0164004 -0.000808317 0)
(-0.0190521 -0.00094102 0)
(-0.0217788 -0.00107548 0)
(-0.0253226 -0.00123739 0)
(-0.00594965 -0.000256377 0)
(-0.00842347 -0.000378459 -1.80072e-26)
(-0.011181 -0.000516111 1.48941e-26)
(-0.0136872 -0.00064169 0)
(-0.0163973 -0.000775941 0)
(-0.0190472 -0.000907423 0)
(-0.0217729 -0.00103764 0)
(-0.025319 -0.00122933 0)
(-0.00596604 -0.000235185 0)
(-0.00843979 -0.000355503 0)
(-0.0111973 -0.000493019 2.00577e-26)
(-0.0137031 -0.000619005 0)
(-0.0164129 -0.00075308 0)
(-0.0190622 -0.000884762 0)
(-0.0217879 -0.00101129 0)
(-0.0253299 -0.00117793 0)
(-0.00597503 -0.000204935 4.099e-26)
(-0.00844903 -0.000324524 0)
(-0.0112068 -0.000461899 2.44811e-26)
(-0.0137128 -0.000587962 -2.00978e-26)
(-0.0164229 -0.000720892 0)
(-0.0190725 -0.000851589 0)
(-0.021799 -0.000973628 0)
(-0.025335 -0.00116158 0)
(-0.00597917 -0.000183503 5.18462e-26)
(-0.00845338 -0.000301299 0)
(-0.0112113 -0.000438499 0)
(-0.0137174 -0.000564939 8.64933e-33)
(-0.0164276 -0.000697642 0)
(-0.0190773 -0.000828269 0)
(-0.0218043 -0.000947171 0)
(-0.0253341 -0.00111951 0)
(-0.00598231 -0.000153673 0)
(-0.00845663 -0.00027086 0)
(-0.0112147 -0.00040802 0)
(-0.0137208 -0.000534613 3.04777e-26)
(-0.0164311 -0.000666272 0)
(-0.0190808 -0.000796133 0)
(-0.021808 -0.000910341 0)
(-0.0253309 -0.00109321 0)
(-0.0059848 -0.000131103 -7.47838e-26)
(-0.00845927 -0.000246312 0)
(-0.0112174 -0.000383144 0)
(-0.0137234 -0.000509997 0)
(-0.0164338 -0.000641294 0)
(-0.0190835 -0.000770915 -3.02151e-26)
(-0.0218108 -0.000882099 0)
(-0.0253269 -0.00105962 0)
(-0.00598748 -0.000102155 -8.63214e-26)
(-0.00846203 -0.000216962 -6.60622e-26)
(-0.0112203 -0.000353925 0)
(-0.0137263 -0.000481065 0)
(-0.0164368 -0.000611463 0)
(-0.0190863 -0.000740543 -3.49054e-26)
(-0.0218137 -0.000847152 0)
(-0.0253228 -0.00102682 0)
(-0.00598991 -7.87312e-05 0)
(-0.00846464 -0.00019134 -7.48116e-26)
(-0.011223 -0.000327826 5.76281e-26)
(-0.0137289 -0.000455085 0)
(-0.0164394 -0.000584987 0)
(-0.0190888 -0.000713471 0)
(-0.0218164 -0.000816928 0)
(-0.0253187 -0.000996543 0)
(-0.00599251 -5.05113e-05 0)
(-0.00846731 -0.000162951 0)
(-0.0112258 -0.000299665 6.44815e-26)
(-0.0137317 -0.000427386 0)
(-0.0164421 -0.000556441 0)
(-0.0190916 -0.000684905 0)
(-0.0218192 -0.000784209 0)
(-0.0253146 -0.000963999 1.60905e-26)
(-0.00599485 -2.68945e-05 0)
(-0.00846986 -0.000136732 0)
(-0.0112285 -0.000272876 0)
(-0.0137344 -0.000400289 0)
(-0.0164448 -0.000528974 0)
(-0.0190941 -0.000656278 0)
(-0.021822 -0.000751938 0)
(-0.0253107 -0.000931735 1.31622e-26)
(-0.00599638 2.26903e-06 1.32181e-25)
(-0.00847156 -0.000108227 0)
(-0.0112305 -0.000245136 0)
(-0.0137366 -0.000373785 0)
(-0.0164477 -0.000501331 0)
(-0.0190975 -0.000628871 0)
(-0.0218258 -0.000721361 0)
(-0.0253061 -0.000902079 0)
(-0.0059949 2.42381e-05 1.08726e-32)
(-0.00847161 -8.21151e-05 0)
(-0.0112324 -0.000217297 0)
(-0.0137415 -0.000345128 0)
(-0.016456 -0.000472786 0)
(-0.0191117 -0.000599709 0)
(-0.0218466 -0.000687569 0)
(-0.0253101 -0.000866696 0)
(-0.00603858 5.41651e-05 -1.56374e-25)
(-0.00853591 -5.61356e-05 0)
(-0.0113232 -0.000194911 0)
(-0.0138674 -0.000325935 0)
(-0.0166288 -0.000454663 0)
(-0.0193527 -0.000585117 0)
(-0.0221761 -0.000676936 0)
(-0.0255143 -0.000851548 0)
(-0.00593971 0.000124332 0)
(-0.00844653 3.05282e-05 0)
(-0.0111858 -0.000102501 1.67775e-25)
(-0.0137814 -0.000240712 0)
(-0.0164693 -0.00037279 0)
(-0.0193093 -0.000512991 0)
(-0.0221101 -0.000599621 0)
(-0.0255059 -0.000792013 0)
(-0.00594827 0.000347054 0)
(-0.00843858 0.00020869 0)
(-0.0111511 4.62141e-05 2.02949e-25)
(-0.0137124 -0.00011562 0)
(-0.0163183 -0.000252447 -1.95819e-25)
(-0.0190628 -0.000404641 0)
(-0.021644 -0.000508192 1.59797e-25)
(-0.0251906 -0.000721983 0)
(-0.00594268 0.000446276 2.67337e-25)
(-0.00842457 0.000339 0)
(-0.0111238 0.000182507 -1.73512e-25)
(-0.0136728 1.00862e-05 0)
(-0.0162655 -0.000140924 -3.46969e-25)
(-0.0190019 -0.000305263 1.21611e-25)
(-0.0215404 -0.000395628 1.70788e-25)
(-0.0250906 -0.00062408 7.23732e-26)
(-0.00596998 0.000684094 6.44886e-25)
(-0.00845951 0.000525394 0)
(-0.0111731 0.000333555 -1.92549e-25)
(-0.0137289 0.000133241 0)
(-0.0163235 -2.88731e-05 -1.43038e-25)
(-0.0190595 -0.000211857 2.8267e-25)
(-0.0215922 -0.000327406 0)
(-0.0251068 -0.000569196 7.52345e-26)
(-0.00598228 0.00076172 3.72523e-25)
(-0.00846161 0.000641526 0)
(-0.0111589 0.000460464 0)
(-0.0137031 0.000251878 0)
(-0.0162921 7.7345e-05 0)
(-0.0190188 -0.000114814 1.59919e-25)
(-0.021553 -0.000221281 0)
(-0.0250753 -0.000473626 0)
(-0.00598919 0.0010261 0)
(-0.00847895 0.000846374 0)
(-0.0111987 0.000624474 0)
(-0.0137525 0.000385274 0)
(-0.0163436 0.00019785 0)
(-0.0190735 -1.71396e-05 0)
(-0.0215997 -0.000147559 0)
(-0.0250898 -0.000419678 0)
(-0.00601796 0.00107302 0)
(-0.00849399 0.00094076 0)
(-0.0111875 0.000735094 0)
(-0.0137279 0.000490101 0)
(-0.0163086 0.000292633 0)
(-0.0190337 7.29925e-05 0)
(-0.0215593 -4.85042e-05 0)
(-0.0250611 -0.000323861 0)
(-0.00612166 0.00186532 0)
(-0.00854998 0.00160147 0)
(-0.0113335 0.00131333 -1.03153e-25)
(-0.0138437 0.00101286 0)
(-0.0165348 0.000816257 7.86985e-26)
(-0.0191801 0.000545758 0)
(-0.0218841 0.000371831 -6.34384e-26)
(-0.0251535 1.08616e-05 -4.78027e-26)
(-0.00620135 0.00195868 0)
(-0.00875627 0.00197894 0)
(-0.0115112 0.00183033 -1.22805e-25)
(-0.0139589 0.00158314 0)
(-0.0166392 0.00140205 9.16054e-26)
(-0.0192501 0.00123608 0)
(-0.021981 0.00127804 -7.49163e-26)
(-0.0253152 0.00105364 1.18723e-28)
(-0.00622269 0.00334945 0)
(-0.0086108 0.00314315 0)
(-0.0114665 0.00282723 1.46313e-25)
(-0.0139848 0.00250734 0)
(-0.0166678 0.00234891 0)
(-0.0192425 0.00210976 0)
(-0.0219785 0.0021003 0)
(-0.025021 0.00173663 6.96888e-26)
(-0.00628175 0.003312 0)
(-0.00890174 0.00344795 0)
(-0.0116999 0.00332109 1.64089e-25)
(-0.0141054 0.00302223 0)
(-0.0167678 0.00285103 0)
(-0.0193566 0.00273352 0)
(-0.022137 0.00287078 0)
(-0.0254527 0.00264175 8.3237e-26)
(-0.00628203 0.00485634 0)
(-0.00863154 0.00472093 2.35778e-25)
(-0.0115974 0.0043625 0)
(-0.0141281 0.00400877 -1.55189e-25)
(-0.0167571 0.00389587 0)
(-0.0192238 0.0037124 0)
(-0.0219661 0.00386617 0)
(-0.0249525 0.00351076 9.46495e-26)
(-0.0063178 0.00464484 0)
(-0.0090307 0.0049363 -1.57159e-28)
(-0.0119036 0.00482109 0)
(-0.0142479 0.00442134 -1.65978e-25)
(-0.0168626 0.00422532 -1.52684e-25)
(-0.0193885 0.00417815 0)
(-0.0222651 0.0044205 0)
(-0.0257644 0.00428676 0)
(-0.00628591 0.00634959 0)
(-0.00861641 0.00633654 1.53666e-28)
(-0.0117592 0.00592513 0)
(-0.0143179 0.00549733 0)
(-0.0168375 0.00544568 1.36914e-28)
(-0.0191633 0.00536008 -1.76337e-25)
(-0.0218808 0.00575535 0)
(-0.0249058 0.00540751 -1.24728e-25)
(-0.00629265 0.00599891 0)
(-0.00912347 0.00649639 3.05948e-25)
(-0.0121307 0.00635045 2.29824e-25)
(-0.0143947 0.00577072 0)
(-0.0169095 0.00549417 1.78272e-25)
(-0.0192916 0.00554352 -1.83495e-25)
(-0.0223178 0.00592253 1.65023e-25)
(-0.0263349 0.00604366 -1.31896e-25)
(-0.00619438 0.00783076 0)
(-0.00857505 0.00798419 0)
(-0.0119833 0.00752536 -1.42234e-28)
(-0.014595 0.0069519 0)
(-0.0169257 0.00696692 2.01648e-25)
(-0.019078 0.00706104 0)
(-0.0216808 0.00790806 -1.18795e-28)
(-0.0248055 0.00763266 0)
(-0.00616465 0.00731929 -4.76269e-25)
(-0.00914415 0.00813941 0)
(-0.0124272 0.00794361 -2.50159e-25)
(-0.0145747 0.0070638 0)
(-0.016895 0.00661259 1.98171e-25)
(-0.0190032 0.00676834 -2.09331e-25)
(-0.0221383 0.00733208 1.16907e-28)
(-0.0272599 0.0079066 -1.54278e-25)
(-0.00589648 0.00945409 -5.54367e-25)
(-0.00841383 0.00982736 0)
(-0.0120385 0.00917656 0)
(-0.0149663 0.00833409 0)
(-0.0171696 0.00840882 2.3398e-25)
(-0.0191874 0.0088064 -2.88941e-25)
(-0.0213718 0.0105369 2.89636e-25)
(-0.0243457 0.0104423 -2.11233e-25)
(-0.00815644 0.00840234 0)
(-0.0112765 0.00976102 0)
(-0.0136558 0.00968883 0)
(-0.0148605 0.00839158 0)
(-0.0163939 0.0075874 2.03003e-25)
(-0.0177098 0.0077186 2.31736e-25)
(-0.021498 0.0084235 -2.07707e-25)
(-0.0266328 0.00997186 0)
(-0.0442139 0.011286 0)
(-0.0429372 0.0113473 3.94625e-25)
(-0.037207 0.0101183 0)
(-0.0326081 0.00913253 0)
(-0.030034 0.0094181 0)
(-0.0295824 0.0106097 3.52028e-25)
(-0.031205 0.0135291 9.21751e-29)
(-0.0325182 0.0138114 2.69549e-25)
(-0.367362 0.00593291 0)
(-0.343841 0.00553431 4.05397e-25)
(-0.32139 0.00485079 0)
(-0.298542 0.00451772 0)
(-0.273185 0.00485102 0)
(-0.241536 0.00630732 0)
(-0.198377 0.00760401 2.24814e-25)
(-0.14016 0.00944538 1.57045e-25)
(0.248022 0.00158042 0)
(0.291594 1.22312e-05 0)
(0.335945 -0.00102514 0)
(0.374323 -0.00222021 0)
(0.41193 -0.00408161 0)
(0.439306 -0.00774691 0)
(0.463111 -0.0115971 -2.92592e-25)
(0.471614 -0.0178969 0)
(4.07207 0.00473278 6.82819e-25)
(4.18155 0.00581286 0)
(4.28453 0.00689902 -1.18343e-24)
(4.38177 0.00902411 0)
(4.47496 0.0125683 -4.20916e-24)
(4.56441 0.0180533 0)
(4.65896 0.0242138 -1.16965e-26)
(4.72425 0.0404459 0)
(1.79079 -0.0523693 -3.98639e-27)
(1.77176 -0.0506926 1.76669e-24)
(1.74296 -0.0480842 -3.44284e-24)
(1.71235 -0.0460854 -4.93891e-24)
(1.66918 -0.0446463 -4.96835e-24)
(1.63538 -0.0496567 0)
(1.56137 -0.0544229 -1.11296e-23)
(1.57834 -0.0359302 1.11348e-23)
(0.0266836 -0.0120444 2.49132e-24)
(0.025922 -0.00669829 -1.4267e-28)
(0.0128837 -0.00450584 -3.53039e-25)
(0.0276616 0.00452603 4.99565e-26)
(0.0139697 0.0032002 0)
(0.052733 0.0172648 0)
(0.0164928 0.00428707 0)
(0.0848045 0.0159909 -8.09986e-25)
(0.0252159 -0.0534236 0)
(0.0318756 -0.0521536 5.61566e-24)
(0.0329852 -0.0537039 -6.51376e-24)
(0.048867 -0.0508852 0)
(0.0412801 -0.0551196 0)
(0.0546298 -0.0521011 0)
(0.0479692 -0.0635374 1.08687e-23)
(0.0895817 -0.0474638 0)
(-0.00648008 -0.0168363 -2.26272e-24)
(-0.00516938 -0.0123945 -1.90566e-24)
(-0.0142292 -0.0126327 -1.89427e-24)
(-0.01832 -0.00116956 -1.4166e-24)
(-0.0320803 -0.00344565 6.41497e-25)
(-0.0432314 0.00940934 3.29465e-25)
(-0.0381048 -0.0137049 2.99449e-29)
(-0.0198102 -0.0229557 -1.4433e-24)
(0.00144738 -0.0503427 -2.15313e-28)
(0.00336978 -0.0480441 -1.80106e-24)
(4.10442e-05 -0.0493653 -1.17195e-24)
(-0.00107111 -0.0440546 1.10624e-29)
(0.0071499 -0.045569 6.77099e-25)
(0.00733649 -0.0458257 -1.12629e-24)
(0.0213344 -0.0649966 -4.10252e-25)
(0.0152209 -0.058374 -4.72803e-25)
(-0.00405004 -0.0177058 1.9036e-24)
(-0.00319689 -0.0134167 0)
(-0.00962895 -0.0117199 0)
(-0.00990893 -0.00431047 1.24796e-24)
(-0.00858274 -0.00803039 0)
(-0.00744283 0.00194532 4.00947e-25)
(-0.0093506 -0.0211099 0)
(-0.00656877 -0.0291153 0)
(0.00158953 -0.0477184 0)
(0.00347541 -0.0449973 0)
(0.00253256 -0.0462506 9.66953e-25)
(0.00645724 -0.0426527 0)
(0.007823 -0.0443097 -6.57883e-25)
(0.0130714 -0.0418938 -8.23279e-25)
(0.0268119 -0.0607709 7.55122e-25)
(0.0154151 -0.0538251 0)
(-0.00206624 -0.0187677 0)
(-0.00096282 -0.0150884 0)
(-0.00500848 -0.0141918 1.24954e-28)
(-0.00455723 -0.00746229 0)
(-0.00453012 -0.0119395 -3.14085e-25)
(-0.00185803 -0.00665354 0)
(-0.000334776 -0.0260133 5.54364e-29)
(-0.0223215 -0.0289861 0)
(0.00183928 -0.0451957 1.49232e-24)
(0.00380309 -0.0427197 1.27002e-24)
(0.00137594 -0.043601 -2.22319e-24)
(0.0069555 -0.0408987 9.34918e-25)
(0.00655483 -0.0433482 0)
(0.0142952 -0.039913 8.515e-25)
(0.0141038 -0.0516717 -4.12333e-25)
(0.0124438 -0.0477801 4.79052e-25)
(-0.000564893 -0.0199843 1.2336e-24)
(0.000116978 -0.0163466 1.09483e-24)
(-0.00322492 -0.0167255 -8.18972e-25)
(-0.00211409 -0.0105924 6.42706e-25)
(-0.00393942 -0.0158363 0)
(-0.00399902 -0.0115144 -1.42998e-25)
(-0.00019557 -0.0285081 0)
(-0.0152576 -0.0305091 -2.73121e-25)
(0.00214826 -0.0427422 0)
(0.00402661 -0.0405886 0)
(0.00189449 -0.0415357 -8.90003e-25)
(0.0065271 -0.0390197 0)
(0.00726372 -0.0413098 0)
(0.0142207 -0.0384106 0)
(0.0150637 -0.0461535 -2.89657e-25)
(0.00932211 -0.0425276 0)
(0.000434326 -0.0211128 4.59875e-25)
(0.00112537 -0.0175734 4.26229e-25)
(-0.00197469 -0.0187996 -6.61746e-25)
(-0.00103455 -0.0135708 2.67684e-25)
(-0.00223617 -0.0195472 -1.14605e-25)
(-0.00308315 -0.0158306 0)
(-0.00114075 -0.0291813 2.67221e-25)
(-0.0126833 -0.0305874 -1.52438e-25)
(0.00236162 -0.0404684 4.34201e-25)
(0.00408039 -0.0386528 8.14272e-25)
(0.00224649 -0.0397212 -3.40458e-25)
(0.00621501 -0.0375037 6.21931e-25)
(0.00668734 -0.0394965 -4.39153e-29)
(0.0105196 -0.0367786 0)
(0.0125927 -0.0420361 0)
(0.00659932 -0.0386055 1.7635e-25)
(0.00134997 -0.0220709 0)
(0.00166052 -0.0187245 6.34595e-25)
(-0.000996568 -0.0205304 -5.20385e-25)
(-0.000548908 -0.0161087 5.60875e-29)
(-0.00178671 -0.0219812 1.00068e-25)
(-0.00314013 -0.0190386 1.50982e-26)
(-0.00277047 -0.029146 3.07552e-26)
(-0.00984925 -0.0303008 0)
(0.00251434 -0.0383478 -2.9585e-25)
(0.00408852 -0.0368734 5.92925e-25)
(0.00244435 -0.0380648 -2.52911e-25)
(0.00559593 -0.0360475 -4.80188e-25)
(0.00583041 -0.0377926 -1.2826e-25)
(0.00811542 -0.0351434 4.30801e-29)
(0.0109087 -0.0396203 1.0177e-26)
(0.00483922 -0.0360697 -1.17054e-25)
(0.00201886 -0.0228377 -2.03924e-25)
(0.00206605 -0.0197674 9.82564e-29)
(-0.000329251 -0.0219149 1.89989e-25)
(-0.000233145 -0.018171 -1.62122e-25)
(-0.00148066 -0.0236587 -5.1879e-29)
(-0.00237187 -0.0214443 -4.44939e-26)
(-0.00322617 -0.0286955 -1.93521e-26)
(-0.0077144 -0.0297587 8.28014e-26)
(0.00270189 -0.036435 0)
(0.00398175 -0.0352172 -3.93716e-25)
(0.00262851 -0.0365087 1.75462e-25)
(0.00488993 -0.034678 0)
(0.00502364 -0.0363933 8.30216e-26)
(0.00627526 -0.0338106 0)
(0.00848103 -0.0377955 -2.25392e-26)
(0.00315094 -0.034052 -4.44684e-26)
(0.00255055 -0.0234258 -9.97905e-26)
(0.002201 -0.0207011 -9.8205e-29)
(0.000321889 -0.0230058 0)
(-4.90812e-05 -0.0197989 -1.12886e-25)
(-0.00104688 -0.0248472 0)
(-0.00197176 -0.0229879 -4.76871e-26)
(-0.0031868 -0.0282341 0)
(-0.00643115 -0.0291133 8.74616e-26)
(0.00264982 -0.0346526 -7.08644e-26)
(0.00390263 -0.0337024 2.18511e-25)
(0.0026197 -0.0350643 0)
(0.00436164 -0.0334009 -1.11636e-25)
(0.00418798 -0.0351581 0)
(0.00439005 -0.032695 -4.98257e-29)
(0.00635492 -0.0361915 0)
(0.00175544 -0.0327168 2.53197e-27)
(0.0026539 -0.0238682 0)
(0.0026473 -0.0215529 1.09241e-25)
(0.000608094 -0.0238703 -6.33884e-26)
(0.000278581 -0.0210818 6.38126e-26)
(-0.000845979 -0.0255277 -2.29052e-26)
(-0.00186306 -0.0239761 3.03267e-26)
(-0.00286408 -0.0279228 0)
(-0.00528474 -0.0284122 0)
(0.00268591 -0.0331687 -1.69274e-26)
(0.0036727 -0.0323344 3.35905e-26)
(0.00260898 -0.0336662 -4.59762e-26)
(0.00361629 -0.0322227 5.56109e-26)
(0.00355211 -0.0339085 -1.60526e-26)
(0.00316783 -0.0317609 0)
(0.00446761 -0.0348182 0)
(0.000736336 -0.0317211 0)
(0.00312787 -0.0242686 1.10681e-28)
(0.00274005 -0.0223103 0)
(0.000812953 -0.0245051 0)
(0.00032682 -0.0220973 0)
(-0.000491156 -0.0259859 0)
(-0.00168879 -0.0245774 0)
(-0.00262283 -0.0276773 0)
(-0.00464412 -0.0278381 0)
(0.00262848 -0.0317357 9.0341e-26)
(0.00326061 -0.030972 0)
(0.00201696 -0.0323264 9.01407e-27)
(0.00305725 -0.031174 0)
(0.00283919 -0.0327441 0)
(0.00215502 -0.0308358 0)
(0.00291862 -0.0335118 -5.01671e-26)
(1.58333e-06 -0.030838 0)
(0.00306017 -0.0245033 0)
(0.00275406 -0.0228387 0)
(0.00127505 -0.0250298 -7.84507e-29)
(0.000817961 -0.0230062 0)
(-0.000377922 -0.0262588 3.1218e-26)
(-0.00151236 -0.0249541 0)
(-0.00237576 -0.02751 -1.08844e-25)
(-0.00415187 -0.0274137 0)
(0.00264333 -0.030485 0)
(0.00306907 -0.029834 0)
(0.0018888 -0.0311813 -5.65744e-26)
(0.00220876 -0.0300949 0)
(0.00183278 -0.0315367 4.02021e-26)
(0.00132324 -0.0299477 0)
(0.00167684 -0.032271 -6.14858e-26)
(-0.00056795 -0.0300054 0)
(0.00292504 -0.0246606 9.22136e-26)
(0.00262757 -0.0232591 6.03387e-26)
(0.00126769 -0.0253074 0)
(0.000790796 -0.0236023 0)
(-0.000176515 -0.02649 0)
(-0.0011586 -0.0252745 1.96679e-26)
(-0.00215474 -0.0274199 0)
(-0.00362007 -0.0271054 2.66096e-26)
(0.00258859 -0.0293668 1.00596e-25)
(0.00284023 -0.0287989 6.71224e-26)
(0.00173308 -0.0301209 0)
(0.00181681 -0.0291347 0)
(0.00133218 -0.0304905 0)
(0.000460817 -0.0290574 2.45782e-26)
(0.000691169 -0.031081 0)
(-0.00115667 -0.0292037 2.71141e-26)
(0.00274827 -0.0247555 0)
(0.00246063 -0.0235873 0)
(0.00121739 -0.0254825 -6.10982e-26)
(0.000730837 -0.0240427 4.54207e-26)
(-0.000182829 -0.0265195 3.99191e-26)
(-0.00105148 -0.0254592 0)
(-0.00189125 -0.0273949 -4.03671e-26)
(-0.00321909 -0.0268703 0)
(0.0024918 -0.0283716 -1.19187e-25)
(0.00259626 -0.0278623 0)
(0.00155652 -0.0291455 -6.50565e-26)
(0.00146329 -0.0282447 4.92507e-26)
(0.000914082 -0.0295629 4.58501e-26)
(8.49657e-06 -0.0282435 0)
(-6.91776e-05 -0.0299958 -4.00468e-26)
(-0.00169503 -0.028417 0)
(0.00256047 -0.0247919 -1.30503e-25)
(0.00228209 -0.0238319 0)
(0.00114175 -0.0255709 7.59897e-26)
(0.000650115 -0.0243547 -5.93523e-26)
(-0.000207254 -0.0264654 0)
(-0.00101556 -0.0255306 0)
(-0.00172233 -0.0273109 0)
(-0.00296348 -0.0266747 0)
(0.00235533 -0.0274916 0)
(0.0023533 -0.0270181 1.03214e-25)
(0.0013695 -0.0282575 8.17504e-26)
(0.00114445 -0.0274276 -1.25415e-25)
(0.000564168 -0.0287167 -5.777e-26)
(-0.000346657 -0.0275092 0)
(-0.000621415 -0.0290111 0)
(-0.0020753 -0.0276706 3.55233e-26)
(0.00235837 -0.0247813 0)
(0.00209393 -0.0240012 2.26617e-25)
(0.00104448 -0.0255721 -9.06618e-26)
(0.000563198 -0.0245596 3.13885e-29)
(-0.00024199 -0.0263618 -1.29522e-25)
(-0.00100787 -0.0255129 4.76919e-26)
(-0.00162673 -0.0271638 0)
(-0.00279173 -0.0264774 4.03743e-26)
(0.00219869 -0.0267095 7.4987e-26)
(0.00211917 -0.0262641 1.16548e-25)
(0.0011869 -0.0274626 -9.46177e-26)
(0.000881078 -0.0266875 7.39229e-26)
(0.000272923 -0.027934 -6.73962e-26)
(-0.000597137 -0.0268525 5.14014e-26)
(-0.000998868 -0.0281255 0)
(-0.00230496 -0.0269799 0)
(0.00216924 -0.0247321 7.84498e-26)
(0.00190764 -0.0241013 0)
(0.000939943 -0.0255128 -5.08255e-26)
(0.000488018 -0.0246707 0)
(-0.00029196 -0.0262257 3.63445e-26)
(-0.00100129 -0.0254408 0)
(-0.00158306 -0.026956 -2.58525e-26)
(-0.00266412 -0.0262357 0)
(0.00205613 -0.0260138 0)
(0.00190076 -0.0255969 0)
(0.00103085 -0.0267463 -5.2389e-26)
(0.000674119 -0.0260256 0)
(5.13734e-05 -0.0272104 7.55847e-26)
(-0.000745753 -0.0262554 -3.00758e-26)
(-0.00122885 -0.0273436 1.23889e-29)
(-0.00244631 -0.0263587 0)
(0.00200706 -0.0246461 -8.25363e-26)
(0.00173727 -0.0241322 0)
(0.000853594 -0.025411 0)
(0.000424842 -0.0246944 0)
(-0.000312985 -0.0260656 4.08347e-26)
(-0.000987348 -0.0253381 -6.52219e-26)
(-0.00152381 -0.0266688 -1.21873e-29)
(-0.00255659 -0.025936 -2.39427e-26)
(0.00190422 -0.0253954 -1.25337e-25)
(0.0016972 -0.0250145 0)
(0.000894309 -0.0261057 -2.82896e-26)
(0.00048768 -0.0254469 0)
(-8.41304e-05 -0.0265547 -2.13087e-26)
(-0.00085026 -0.0257185 -3.36911e-26)
(-0.00136547 -0.0266773 -4.14836e-26)
(-0.00245405 -0.0258316 -2.42358e-26)
(0.00180475 -0.0245323 -4.27713e-26)
(0.0015341 -0.0241106 0)
(0.000735012 -0.0252707 7.09206e-30)
(0.00029918 -0.0246569 0)
(-0.000339911 -0.0258754 -2.21479e-26)
(-0.00103414 -0.0251898 0)
(-0.00152781 -0.0263153 -1.45502e-26)
(-0.00249538 -0.0255905 0)
(0.00166474 -0.0248471 0)
(0.00142884 -0.0245049 0)
(0.000678771 -0.0255309 4.52837e-26)
(0.000252745 -0.0249456 0)
(-0.000306144 -0.0259819 1.08541e-26)
(-0.00105077 -0.025249 0)
(-0.00157206 -0.0261361 -7.3753e-27)
(-0.00254707 -0.0254004 0)
(0.00153814 -0.0244007 0)
(0.00127707 -0.0240519 0)
(0.00052808 -0.025106 1.55645e-26)
(0.000117008 -0.0245728 0)
(-0.000482111 -0.0256374 1.09945e-26)
(-0.00115323 -0.0249879 0)
(-0.00165492 -0.0258987 -7.58584e-27)
(-0.00257541 -0.0252059 0)
(0.00134799 -0.0242705 0)
(0.0011072 -0.0240318 0)
(0.000505173 -0.0248124 0)
(2.0639e-05 -0.0243399 0)
(-0.000509091 -0.0251197 0)
(-0.00125358 -0.024527 0)
(-0.0017731 -0.0252484 0)
(-0.00262575 -0.0246354 0)
(0.000891682 -0.0233455 0)
(0.000630852 -0.0231537 0)
(0.000122378 -0.0238744 0)
(-0.00028979 -0.0235333 0)
(-0.000740335 -0.0242068 0)
(-0.00131418 -0.0237669 0)
(-0.00177966 -0.0242767 0)
(-0.00248105 -0.0237738 0)
(0.000634228 -0.0229942 0)
(0.000392488 -0.0228595 0)
(-1.0404e-05 -0.0233475 0)
(-0.000408969 -0.0230723 0)
(-0.000800936 -0.0235104 0)
(-0.00130577 -0.023149 0)
(-0.00172455 -0.0234748 0)
(-0.00230729 -0.0230451 0)
(0.00036113 -0.0224996 0)
(0.00013999 -0.0223959 0)
(-0.000180341 -0.0227831 0)
(-0.000521099 -0.0225717 0)
(-0.00085318 -0.022882 0)
(-0.00127173 -0.0225899 0)
(-0.00163696 -0.0227851 0)
(-0.00212239 -0.0224121 0)
(0.000197478 -0.0221715 0)
(2.5032e-06 -0.0220816 0)
(-0.000250877 -0.0223531 0)
(-0.00053544 -0.0221757 0)
(-0.000814355 -0.0223721 0)
(-0.00115552 -0.0221202 0)
(-0.00146218 -0.0222171 0)
(-0.00185606 -0.0218832 0)
(7.44632e-05 -0.0218809 0)
(-9.46268e-05 -0.0218018 0)
(-0.000294851 -0.0219897 0)
(-0.000528364 -0.0218384 0)
(-0.000758512 -0.0219524 0)
(-0.00103599 -0.0217285 0)
(-0.00128846 -0.0217522 0)
(-0.00160655 -0.0214479 0)
(1.4973e-05 -0.0216562 0)
(-0.000120179 -0.0215804 0)
(-0.000272413 -0.0217037 0)
(-0.000451563 -0.021566 0)
(-0.000629954 -0.0216199 0)
(-0.000842103 -0.021413 0)
(-0.0010375 -0.0213834 0)
(-0.00128004 -0.0211 0)
(-2.94517e-05 -0.0214888 0)
(-0.000121488 -0.0214174 0)
(-0.000235479 -0.0214928 0)
(-0.000358209 -0.0213645 0)
(-0.00048972 -0.0213747 0)
(-0.000638953 -0.0211798 0)
(-0.000781257 -0.0211103 0)
(-0.000952429 -0.0208432 0)
(-8.35016e-05 -0.0213786 0)
(-0.000158016 -0.0213067 0)
(-0.000219848 -0.0213527 0)
(-0.000307371 -0.0212285 0)
(-0.000382068 -0.0212099 0)
(-0.000482651 -0.0210229 0)
(-0.000564609 -0.0209289 0)
(-0.000674981 -0.0206707 0)
(-0.000179971 -0.021302 0)
(-0.000200113 -0.0212355 0)
(-0.000228063 -0.0212615 0)
(-0.000255186 -0.0211417 0)
(-0.000286096 -0.0211067 0)
(-0.000317757 -0.0209248 0)
(-0.000351729 -0.0208155 0)
(-0.000387632 -0.0205653 0)
(-0.0278165 1.57864e-05 0)
(-0.0293911 4.03164e-06 0)
(-0.0304524 3.08258e-06 0)
(-0.0310811 2.56836e-06 0)
(-0.0311522 7.3172e-06 0)
(-0.0307875 1.19257e-06 0)
(-0.0300343 -7.43239e-07 0)
(-0.0289127 -3.89395e-06 0)
(-0.0276129 -5.25368e-06 0)
(-0.0261054 -6.38099e-06 0)
(-0.0245533 -6.95108e-06 0)
(-0.022874 -7.09404e-06 0)
(-0.0211563 -6.83419e-06 0)
(-0.0193339 -8.57419e-06 0)
(-0.0174956 -9.78322e-06 0)
(-0.0155193 -1.12575e-05 0)
(-0.0134055 -1.19736e-05 0)
(-0.0110912 -1.2699e-05 0)
(-0.0086843 -1.29214e-05 0)
(-0.00625603 -1.27291e-05 0)
(-0.00385393 -1.25497e-05 0)
(-0.0013815 -1.29006e-05 0)
(0.00129247 -1.38784e-05 0)
(0.00424406 -1.50598e-05 0)
(0.00745356 -1.61387e-05 0)
(0.0106867 -1.52694e-05 0)
(0.0135681 -1.33742e-05 0)
(0.0159879 -1.10008e-05 0)
(0.0179624 -8.89486e-06 0)
(0.0195961 -7.43948e-06 0)
(0.0210214 -6.50605e-06 0)
(0.0223508 -6.05241e-06 0)
(0.0236311 -6.07418e-06 0)
(0.0248784 -5.9966e-06 0)
(0.0260781 -5.74654e-06 0)
(0.0271977 -5.26858e-06 0)
(0.0282057 -4.89319e-06 0)
(0.0290858 -4.30124e-06 0)
(0.0298304 -3.57237e-06 0)
(0.0304409 -2.87938e-06 0)
(0.0309328 -2.3068e-06 0)
(0.0313126 -1.78264e-06 0)
(0.0315866 -1.25182e-06 0)
(0.0317596 -8.48789e-07 0)
(0.0318358 -5.5332e-07 0)
(0.0318246 -1.04003e-07 0)
(0.0317282 3.65099e-07 0)
(0.0315511 8.70898e-07 0)
(0.0312974 1.27312e-06 0)
(0.0309575 1.73985e-06 0)
(0.0305243 2.38726e-06 0)
(0.0299944 2.51581e-06 0)
(0.0293694 2.99805e-06 0)
(0.0286474 3.4671e-06 0)
(0.0278263 3.96375e-06 0)
(0.0269008 4.46026e-06 0)
(0.0258607 5.13687e-06 0)
(0.0246928 5.93148e-06 0)
(0.023381 6.78088e-06 0)
(0.021904 7.76271e-06 0)
(0.0202436 8.78688e-06 0)
(0.0183816 1.00521e-05 0)
(0.0163082 1.07615e-05 0)
(0.0140209 1.19414e-05 0)
(0.0115166 1.30338e-05 0)
(0.00879224 1.38152e-05 0)
(0.00584932 1.47378e-05 0)
(0.00269057 1.57688e-05 0)
(-0.000679393 1.67958e-05 0)
(-0.00424846 1.77238e-05 0)
(-0.00799294 1.85263e-05 0)
(-0.0118784 1.91324e-05 0)
(-0.0158603 1.96963e-05 0)
(-0.0198978 1.97084e-05 0)
(-0.0239461 1.95539e-05 0)
(-0.0279357 1.9001e-05 0)
(-0.0317851 1.80542e-05 0)
(-0.035396 1.663e-05 0)
(-0.038664 1.4599e-05 0)
(-0.0414816 1.20062e-05 0)
(-0.0437537 8.95106e-06 0)
(-0.0453891 5.59336e-06 0)
(-0.0463202 1.83309e-06 0)
(-0.0464983 -2.30779e-06 0)
(-0.0458806 -6.62078e-06 0)
(-0.0444429 -1.08614e-05 0)
(-0.0421788 -1.51064e-05 0)
(-0.0391072 -1.91422e-05 0)
(-0.035276 -2.28581e-05 0)
(-0.0307685 -2.59873e-05 0)
(-0.0257025 -2.84855e-05 0)
(-0.0202285 -2.99307e-05 0)
(-0.0145361 -3.04271e-05 0)
(-0.00883593 -3.00602e-05 0)
(-0.00332604 -2.86714e-05 0)
(0.00180459 -2.6377e-05 0)
(0.00639463 -2.34213e-05 0)
(0.0103572 -2.03371e-05 0)
(0.0136526 -1.6817e-05 0)
(0.0162555 -1.31433e-05 0)
(0.0181594 -9.46429e-06 0)
(0.0193796 -5.74162e-06 0)
(0.0199289 -1.97898e-06 0)
(0.0198228 1.22077e-06 0)
(0.0190817 4.05418e-06 0)
(0.0177645 6.75877e-06 0)
(0.0159516 9.05767e-06 0)
(0.0137572 1.05425e-05 0)
(0.0113174 1.13877e-05 0)
(0.00878103 1.1437e-05 0)
(0.00631116 1.06508e-05 0)
(0.00408572 8.95035e-06 0)
(0.0022914 6.24416e-06 0)
(0.00109405 2.83806e-06 0)
(0.000635624 -1.12299e-06 0)
(0.000982751 -5.41951e-06 0)
(0.00218114 -9.77987e-06 0)
(0.0041829 -1.40139e-05 0)
(0.00700513 -1.80915e-05 0)
(0.0105415 -2.17436e-05 0)
(0.0147551 -2.47115e-05 0)
(0.0194227 -2.65275e-05 0)
(0.0243421 -2.69311e-05 0)
(0.0291767 -2.53571e-05 0)
(0.0335028 -2.18782e-05 0)
(0.0370114 -1.66745e-05 0)
(0.0393119 -1.03541e-05 0)
(0.0404629 -3.23091e-06 0)
(0.0400353 5.08896e-06 0)
(0.0380268 1.39486e-05 0)
(0.0341002 2.26773e-05 0)
(0.0287324 2.98885e-05 0)
(0.0221194 3.39431e-05 0)
(0.0150912 3.37612e-05 0)
(0.00848951 2.91693e-05 0)
(0.0030855 2.30215e-05 0)
(-0.00113747 1.81209e-05 0)
(-0.00469807 1.49773e-05 0)
(-0.00758902 9.87136e-06 0)
(-0.0092411 1.90476e-06 0)
(-0.00896815 -8.02755e-06 0)
(-0.00672827 -1.78024e-05 0)
(-0.00261703 -2.47145e-05 0)
(0.00230681 -2.60163e-05 0)
(0.00677226 -2.05331e-05 0)
(0.00960954 -9.99231e-06 0)
(0.0100204 4.55725e-06 0)
(0.00727211 1.92275e-05 0)
(0.00194045 3.04648e-05 0)
(-0.00516591 3.71422e-05 0)
(-0.013062 3.84509e-05 0)
(-0.0207374 3.53551e-05 0)
(-0.0274365 2.90612e-05 0)
(-0.0327669 2.15502e-05 0)
(-0.0366081 1.44099e-05 0)
(-0.0391966 8.94852e-06 0)
(-0.0278219 2.70737e-05 0)
(-0.0294038 2.36314e-05 0)
(-0.030466 1.35491e-05 0)
(-0.0310948 4.87977e-06 0)
(-0.0311661 -1.03822e-05 0)
(-0.0308015 -1.28232e-05 0)
(-0.0300483 -1.8846e-05 0)
(-0.0289268 -2.14707e-05 0)
(-0.027627 -2.42323e-05 0)
(-0.0261195 -2.55879e-05 0)
(-0.0245673 -2.70294e-05 0)
(-0.0228881 -2.82944e-05 0)
(-0.0211704 -3.02249e-05 0)
(-0.019348 -2.96005e-05 0)
(-0.0175097 -2.99343e-05 0)
(-0.0155334 -3.14304e-05 0)
(-0.0134195 -3.42458e-05 0)
(-0.0111053 -3.67388e-05 0)
(-0.00869839 -3.7611e-05 0)
(-0.00627012 -3.77098e-05 0)
(-0.00386803 -3.82446e-05 0)
(-0.00139561 -4.05427e-05 0)
(0.00127834 -4.47438e-05 0)
(0.00422994 -4.88123e-05 0)
(0.00743946 -5.11356e-05 0)
(0.0106727 -4.88063e-05 0)
(0.013554 -4.22524e-05 0)
(0.0159738 -3.50432e-05 0)
(0.0179484 -2.87079e-05 0)
(0.019582 -2.43319e-05 0)
(0.0210073 -2.20696e-05 0)
(0.0223367 -2.10713e-05 0)
(0.023617 -2.03007e-05 0)
(0.0248644 -1.96167e-05 0)
(0.026064 -1.85677e-05 0)
(0.0271836 -1.70737e-05 0)
(0.0281917 -1.49194e-05 0)
(0.0290717 -1.27329e-05 0)
(0.0298163 -1.06071e-05 0)
(0.0304269 -8.64294e-06 0)
(0.0309188 -6.78581e-06 0)
(0.0312985 -5.02903e-06 0)
(0.0315725 -3.42873e-06 0)
(0.0317455 -1.81541e-06 0)
(0.0318217 -1.77011e-07 0)
(0.0318105 1.13781e-06 0)
(0.0317142 2.35461e-06 0)
(0.031537 3.46949e-06 0)
(0.0312833 4.76022e-06 0)
(0.0309434 6.11816e-06 0)
(0.0305103 7.39567e-06 0)
(0.0299804 9.24457e-06 0)
(0.0293554 1.07437e-05 0)
(0.0286334 1.23288e-05 0)
(0.0278122 1.39469e-05 0)
(0.0268867 1.56997e-05 0)
(0.0258467 1.74913e-05 0)
(0.0246788 1.94726e-05 0)
(0.023367 2.17799e-05 0)
(0.02189 2.44037e-05 0)
(0.0202296 2.73564e-05 0)
(0.0183676 3.03983e-05 0)
(0.0162942 3.4115e-05 0)
(0.0140069 3.74194e-05 0)
(0.0115026 4.086e-05 0)
(0.00877826 4.46051e-05 0)
(0.00583534 4.81793e-05 0)
(0.00267661 5.15742e-05 0)
(-0.000693351 5.48139e-05 0)
(-0.00426241 5.77401e-05 0)
(-0.00800689 6.02246e-05 0)
(-0.0118923 6.21214e-05 0)
(-0.0158742 6.31098e-05 0)
(-0.0199117 6.38155e-05 0)
(-0.02396 6.34415e-05 0)
(-0.0279496 6.19247e-05 0)
(-0.031799 5.89133e-05 0)
(-0.0354099 5.42929e-05 0)
(-0.038678 4.80976e-05 0)
(-0.0414956 4.0352e-05 0)
(-0.0437676 3.11649e-05 0)
(-0.0454031 2.065e-05 0)
(-0.0463342 9.35702e-06 0)
(-0.0465123 -2.4296e-06 0)
(-0.0458946 -1.50411e-05 0)
(-0.0444569 -2.79757e-05 0)
(-0.0421928 -4.07563e-05 0)
(-0.0391212 -5.304e-05 0)
(-0.03529 -6.43021e-05 0)
(-0.0307825 -7.40463e-05 0)
(-0.0257164 -8.15165e-05 0)
(-0.0202424 -8.63664e-05 0)
(-0.0145501 -8.79644e-05 0)
(-0.00884985 -8.62248e-05 0)
(-0.00333994 -8.1679e-05 0)
(0.00179071 -7.45492e-05 0)
(0.00638074 -6.58766e-05 0)
(0.0103433 -5.5562e-05 0)
(0.0136387 -4.4767e-05 0)
(0.0162417 -3.38341e-05 0)
(0.0181455 -2.303e-05 0)
(0.0193657 -1.2541e-05 0)
(0.019915 -2.37828e-06 0)
(0.0198089 7.85463e-06 0)
(0.0190679 1.74257e-05 0)
(0.0177507 2.56504e-05 0)
(0.0159377 3.22736e-05 0)
(0.0137433 3.71628e-05 0)
(0.0113035 3.97493e-05 0)
(0.00876713 3.9928e-05 0)
(0.00629724 3.74693e-05 0)
(0.0040718 3.21758e-05 0)
(0.00227748 2.42699e-05 0)
(0.00108009 1.39408e-05 0)
(0.000621703 2.10789e-06 0)
(0.000968822 -1.07482e-05 0)
(0.00216719 -2.37952e-05 0)
(0.00416897 -3.65248e-05 0)
(0.00699119 -4.84652e-05 0)
(0.0105275 -5.92426e-05 0)
(0.0147412 -6.80423e-05 0)
(0.0194088 -7.36117e-05 0)
(0.0243282 -7.47944e-05 0)
(0.0291628 -7.02546e-05 0)
(0.033489 -5.9747e-05 0)
(0.0369976 -4.42534e-05 0)