/*--------------------------------*- C++ -*----------------------------------*\
| =========                 |                                                 |
| \\      /  F ield         | OpenFOAM: The Open Source CFD Toolbox           |
|  \\    /   O peration     | Version:  v1912                                 |
|   \\  /    A nd           | Website:  www.openfoam.com                      |
|    \\/     M anipulation  |                                                 |
\*---------------------------------------------------------------------------*/
FoamFile
{
    version     2.0;
    format      ascii;
    class       volScalarField;
    location    "30";
    object      p;
}
// * * * * * * * * * * * * * * * * * * * * * * * * * * * * * * * * * * * * * //

dimensions      [1 -1 -2 0 0 0 0];


internalField   nonuniform List<scalar> 
14268
(
166559
166522
166265
165718
164944
163935
162755
161435
160041
158634
157280
156049
155009
154212
153713
153555
153717
154218
155029
156095
157389
158865
160484
162174
163889
165681
167385
168999
170485
171811
172949
173878
174582
175046
175260
175215
174929
174396
173620
172616
171404
170006
168459
166804
165089
163308
161605
159991
158517
157219
156121
155244
154591
154162
153947
153916
154053
154335
154741
155252
155852
156528
157270
158070
158921
159818
160754
161723
162715
163758
164776
165781
166762
167700
168580
169386
170106
170728
171243
171643
171924
172084
172122
172049
171869
171589
158937
158826
158514
157929
157137
156126
154958
153663
152303
150936
149627
148440
147443
146685
146218
146095
146272
146788
147608
148678
149971
151444
153060
154746
156459
158250
159956
161571
163062
164391
165533
166466
167173
167640
167855
167811
167524
166989
166210
165203
163985
162582
161028
159366
157644
155856
154146
152526
151047
149746
148647
147769
147118
146691
146478
146450
146590
146875
147284
147797
148399
149076
149819
150619
151471
152369
153306
154276
155268
156314
157333
158341
159324
160265
161147
161956
162677
163301
163817
164218
164500
164660
164698
164623
164440
164152
151521
151398
151073
150478
149674
148653
147474
146167
144795
143418
142098
140903
139901
139142
138679
138546
138741
139269
140095
141174
142477
143961
145586
147283
149006
150808
152525
154152
155654
156993
158145
159085
159798
160269
160486
160439
160152
159612
158827
157812
156585
155170
153603
151927
150190
148390
146666
145035
143548
142241
141139
140261
139612
139189
138982
138960
139106
139397
139810
140328
140933
141613
142358
143160
144013
144912
145851
146823
147817
148869
149890
150902
151890
152836
153723
154536
155262
155889
156408
156810
157092
157252
157289
157212
157026
156734
143985
143808
143440
142812
141989
140956
139776
138477
137118
135758
134458
133283
132300
131559
131110
131011
131208
131750
132586
133675
134986
136478
138112
139818
141552
143368
145100
146744
148261
149617
150782
151734
152457
152933
153154
153108
152817
152271
151477
150449
149207
147775
146188
144490
142731
140911
139166
137519
136019
134703
133597
132719
132074
131658
131459
131445
131600
131900
132321
132845
133456
134140
134887
135692
136547
137448
138390
139365
140361
141420
142446
143465
144460
145413
146307
147127
147859
148491
149014
149419
149703
149862
149897
149817
149626
149327
136596
136398
136009
135362
134516
133464
132260
130937
129555
128172
126853
125664
124672
123926
123482
123368
123595
124153
125001
126108
127438
128950
130603
132330
134085
135924
137679
139345
140886
142262
143446
144414
145149
145634
145858
145811
145517
144963
144156
143113
141850
140395
138781
137055
135266
133418
131647
129977
128459
127132
126021
125143
124503
124096
123908
123906
124074
124385
124816
125349
125967
126656
127407
128215
129072
129977
130922
131901
132900
133969
135000
136028
137033
137996
138901
139730
140470
141109
141637
142045
142330
142490
142522
142438
142241
141934
129140
128902
128476
127799
126930
125859
124641
123308
121918
120529
119205
118011
117017
116272
115827
115743
115968
116541
117404
118528
119877
121407
123081
124829
126609
128476
130260
131956
133525
134929
136137
137125
137875
138370
138599
138552
138253
137689
136867
135803
134515
133030
131384
129621
127794
125911
124106
122407
120868
119527
118409
117531
116898
116503
116329
116343
116526
116851
117296
117840
118466
119162
119918
120729
121590
122497
123447
124432
125444
126505
127552
128592
129610
130586
131502
132343
133093
133741
134276
134689
134976
135135
135165
135075
134871
134554
121783
121520
121067
120363
119464
118364
117111
115743
114319
112897
111543
110325
109312
108556
108110
108016
108270
108862
109746
110896
112271
113830
115533
117311
119122
121025
122845
124577
126181
127617
128855
129867
130636
131144
131379
131331
131025
130449
129608
128520
127203
125682
123995
122189
120316
118390
116542
114810
113245
111887
110760
109883
109257
108880
108722
108755
108956
109300
109761
110318
110954
111657
112419
113234
114099
115010
115964
116957
117979
119041
120103
121158
122190
123181
124113
124968
125730
126389
126931
127350
127639
127798
127825
127729
127516
127189
114400
114105
113619
112884
111957
110830
109549
108152
106698
105246
103864
102621
101588
100817
100364
100286
100545
101154
102060
103235
104639
106228
107964
109776
111625
113570
115431
117207
118853
120328
121600
122641
123432
123954
124196
124147
123835
123244
122382
121264
119912
118350
116615
114757
112830
110852
108956
107182
105587
104208
103074
102198
101581
101226
101086
101142
101366
101731
102211
102783
103431
104143
104912
105731
106599
107515
108475
109475
110507
111575
112652
113724
114773
115783
116732
117604
118381
119052
119604
120029
120321
120479
120502
120400
120176
119837
107083
106762
106245
105477
104513
103353
102023
100581
99079.3
97580.9
96154.3
94871.7
93808.1
93016
92553.7
92474.2
92755.6
93387.9
94322.7
95531.2
96970.5
98596.8
100372
102225
104116
106110
108021
109846
111541
113061
114372
115447
116263
116803
117053
117002
116682
116074
115187
114037
112644
111034
109244
107326
105336
103297
101343
99523.2
97892.3
96491.1
95346.5
94472.5
93867.9
93541.3
93421.6
93503.4
93754.5
94144.4
94645.7
95235.8
95897.9
96620
97395
98219.5
99091.8
100012
100977
101985
103028
104106
105200
106290
107360
108390
109360
110251
111046
111731
112294
112726
113022
113179
113198
113087
112852
112499
99765.8
99418.5
98870.7
98069.6
97068.2
95876
94499.4
93010.3
91457.3
89907.1
88430.3
87102.7
86002.2
85182.4
84706.1
84631.9
84925.7
85580.8
86546.1
87790.5
89268.8
90936.7
92756.2
94653.3
96594.2
98644.2
100611
102493
104245
105816
107173
108286
109131
109690
109949
109897
109568
108941
108025
106838
105399
103735
101882
99895.2
97833.2
95722.6
93704.1
91829.9
90158.8
88732
87577.1
86706.2
86121.5
85819.2
85726.9
85839.7
86121.8
86540.5
87066.7
87677.1
88354.6
89087.7
89870.1
90699.5
91575.8
92499.9
93471.5
94488
95542.7
96633.6
97745.3
98857
99950
101004
101998
102910
103725
104426
105002
105442
105742
105898
105913
105793
105545
105176
92495.4
92123
91543.1
90706.3
89660.3
88426.4
86991.4
85443.6
83826.8
82211.9
80672.1
79287.7
78140.6
77287
76794.5
76724.9
77036.1
77719.6
78722
80008.4
81531.7
83247
85116.1
87063.2
89059.6
91172.7
93202.5
95148.9
96963.9
98593.3
100002
101158
102036
102616
102885
102832
102493
101844
100896
99668.2
98178.4
96452.7
94529.8
92464.5
90320.1
88127.9
86035.1
84099.8
82383.3
80928.3
79762.5
78895.6
78342.3
78058.5
78001.5
78150.4
78468.2
78919.7
79474.1
80107.3
80801.8
81546.9
82337
83171.3
84051.3
84979.6
85957.4
86982.7
88049.9
89156
90288.1
91423.6
92542.5
93623.3
94643.5
95581.2
96417.9
97138.1
97728
98177.6
98481
98636.8
98646.6
98515.7
98253.2
97866.7
85241.1
84846.4
84232.4
83364.1
82272.6
80993.5
79496.6
77884
76195.4
74506.6
72894.4
71444.2
70242.3
69347.8
68834.3
68766.1
69094.6
69808.1
70851.5
72185.5
73759.1
75526.5
77450.3
79452.1
81509.8
83694
85793.7
87812.6
89699.2
91394.2
92860.8
94064.4
94978.8
95583.1
95863.8
95808.8
95457.3
94784.4
93802
92527.9
90981.7
89188.4
87186.6
85033.3
82795.5
80510.6
78333.9
76329.9
74562.6
73076.6
71900
71037.7
70525.2
70262.9
70245.1
70435.4
70793.8
71282.5
71868.6
72527
73240.5
73998.4
74796.2
75635
76518.3
77450.4
78434.3
79468.8
80549.4
81672.9
82827.7
83989.6
85137.4
86248.3
87298.4
88264.3
89126
89867.1
90473
90932.9
91240.8
91395.3
91400.3
91257.3
90978.6
90572.5
78021.8
77607.5
76959.6
76050.1
74912.6
73579.6
72012.8
70325.4
68553.6
66778.7
65081.2
63553.1
62286.4
61344.2
60807.7
60743.4
61092.1
61841.5
62933.2
64320.7
65950.9
67775.9
69758.1
71820.5
73944.7
76206.2
78383.9
80483
82449.4
84217.2
85748.5
87005.9
87960.3
88590.9
88883.4
88824.3
88461.5
87762.4
86741.7
85417.6
83809.6
81942.1
79852.9
77601.2
75258.2
72868
70597.1
68516.1
66692.4
65172.7
63986.2
63141.4
62658.6
62429.4
62456.7
62694.3
63098.7
63629.3
64250.9
64937.3
65671.3
66442.6
67248.2
68091
68976.7
69912
70901.8
71945.5
73040.6
74183.5
75363.3
76554.4
77734.3
78878.9
79962.3
80959.5
81849.3
82613.6
83237.2
83708.7
84021.3
84173.8
84174.3
84017.7
83720.9
83293.1
70826.5
70393
69720.4
68763.7
67580.3
66189.4
64547.4
62776
60910.2
59036.8
57241.6
55624.2
54282.2
53284.8
52720.2
52658.5
53027.2
53816.3
54961.8
56409
58102.1
59992.2
62038.5
64165.9
66362.6
68707.5
70971.6
73160
75214.9
77064.5
78667.1
79983.6
80982.4
81641.8
81948.5
81889
81509.9
80781.2
79718.1
78339.4
76664.1
74715.4
72529.8
70168.3
67706.7
65197.4
62821.2
60654.4
58768.2
57212.1
56015.8
55207.6
54740
54557.1
54635.7
54927.1
55383.5
55960.9
56621.9
57339.1
58095.3
58880.5
59693.4
60539.4
61426.5
62364.1
63359.5
64412.2
65522.6
66687.1
67894.2
69117.5
70333.1
71514.8
72635.2
73667.4
74588.2
75378.4
76021.6
76505.8
76823.7
76973
76970.7
76797.8
76480.9
76029.3
65977.5
65540.1
64834.4
63850.7
62631.6
61196.2
59498.5
57662.5
55725.2
53776.6
51906.4
50219.6
48819.5
47779.9
47195.4
47134.6
47522.3
48342.2
49529.6
51021.8
52760.7
54697.8
56792.2
58967.5
61217
63622.7
65951
68206.1
70327.4
72238.1
73894.1
75254.7
76286.1
76966.5
77282.6
77220
76829.9
76079.1
74985
73566.7
71842.2
69833.5
67575.8
65131.2
62578.9
59979.3
57524.2
55293.3
53360.9
51779.7
50577.6
49802.6
49347.5
49199.8
49318.1
49650.8
50146.8
50759.5
51450
52190
52962.1
53757
54574.4
55421.7
56308.8
57247
58245.5
59304.7
60425.9
61606.2
62833.7
64080.9
65323.1
66532.7
67680.8
68739.2
69683.3
70492.7
71150.7
71644.3
71966
72111.4
72109.5
71923
71591.1
71121.6
63448
63002
62284.7
61285.3
60047.3
58587.9
56860.6
54989.4
53013.2
51023.3
49111.9
47386.9
45954.7
44892
44296.9
44236.4
44634.8
45471.6
46681.9
48198.6
49962.4
51924.7
54044.9
56246
58523.7
60962
63324.9
65616.1
67773.4
69717.1
71402
72786.4
73835.4
74527.3
74848.8
74784.9
74388.5
73625.8
72515
71075.1
69324
67283
64986.3
62496.6
59894.9
57246.2
54748.3
52482.4
50525
48930.7
47725.7
46969.6
46521.2
46392.9
46533.1
46888.4
47405.9
48037.9
48744.3
49496.5
50277.2
51077.1
51896.7
52744.5
53631.4
54569.7
55569.7
56632.3
57759.3
58948
60186.5
61446.7
62703.2
63927.9
65091.1
66163.6
67120.3
67940.2
68606.1
69104.9
69428.7
69571.5
69570.3
69376.2
69036.1
68557.1
60927.3
60463.5
59741.4
58724.7
57467.7
55983.6
54226.8
52318.8
50302
48268.7
46313.8
44548.3
43082.3
41995.2
41388.9
41328.9
41738.7
42592.9
43827.3
45369.5
47158.9
49147.2
51293.8
53521.2
55827.9
58299.4
60698
63026.5
65221
67199
68913.9
70322.9
71389.9
72093.4
72420.5
72355.6
71952.3
71177.3
70049.1
68587.2
66809.1
64735
62398.3
59862.3
57209.3
54509.6
51966.6
49664.2
47680.6
46073.3
44872
44124.8
43688.3
43580.7
43743.8
44122.6
44662.6
45314.5
46037.4
46802.3
47591.8
48396.6
49218.4
50066.5
50952.9
51891.2
52892.4
53958.5
55091.4
56288.7
57538.5
58812
60083.4
61323.8
62502.4
63589.7
64559.4
65390.2
66064.2
66568.3
66894.4
67036.3
67032.2
66831.9
66483.5
65994.5
58409.1
57932.2
57200.9
56168.4
54891.5
53381.9
51595
49648.5
47589.3
45510.7
43510.5
41703
40201.5
39088.9
38471.2
38411.6
38833.6
39706.2
40965.7
42534.4
44350.2
46364.8
48538.4
50793.2
53129.4
55634.9
58070.4
60437.6
62670.4
64683.9
66429.9
67864.2
68949.9
69665.5
69997.7
69932
69521.7
68734.2
67588.5
66104.3
64298.6
62190.7
59812.9
57228.5
54522
51768.9
49178.7
46838.1
44827.6
43206.4
42017.1
41267.5
40849
40763.1
40950.1
41353.5
41916.8
42589.5
43329.5
44107.4
44905.8
45715.7
46539.4
47387.7
48273.4
49211.3
50213.6
51283.2
52422.1
53628.1
54889.6
56176.9
57463.7
58720.2
59914.9
61017.4
62000.6
62842.6
63525.1
64034.6
64363.2
64506
64495
64290.1
63933.2
63434
55890.4
55408.7
54663.4
53616.5
52318.9
50782.6
48965.5
46978.8
44876
42750.4
40703
38851
37312
36172.5
35543.2
35484.4
35919.5
36811.2
38096.9
39693.3
41536.3
43578
45778.8
48061.8
50428.1
52968.5
55441.9
57849
60121.4
62171.8
63949.9
65410.3
66515.1
67243.1
67581.5
67515.3
67096.8
66296.2
65132.5
63625.3
61791.4
59648.9
57228.9
54594.6
51832.5
49023.5
46384.1
44004
41965.8
40329.2
39155.6
38403.1
38003
37939.9
38152
38581.2
39168.7
39863
40620.6
41412
42219.3
43034.3
43859.9
44707.9
45592.7
46530
47533.2
48606.3
49751.3
50966.3
52239.8
53541.3
54844
56117.2
57328.6
58446.8
59444
60297.5
60988.8
61504
61835.1
61978.3
61961.1
61750.9
61385.3
60875.6
53374.2
52890.8
52129.4
51069
49750.2
48185.9
46339
44309.7
42161.2
39986.3
37889.4
35991
34413.1
33245.7
32604.6
32547
32996.1
33907.8
35220.9
36846
38717.2
40786.4
43015
45327.1
47724.2
50299.9
52812.4
55260.8
57574.2
59662.9
61474.2
62961.4
64086.1
64826.4
65170.1
65103
64676.8
63862.7
62680.9
61150.4
59287.9
57110.3
54646.9
51960.5
49140.2
46273.1
43582.4
41161.1
39095.4
37442
36286.5
35530.9
35150.2
35111.2
35349.5
35805.5
36418.2
37134.8
37910.8
38716
39532.6
40352.5
41179.7
42027.4
42911
43847.4
44851.1
45927.7
47079
48303.1
49589
50905.2
52224.3
53514.8
54743.4
55877.9
56889.6
57755
58455.3
58976.3
59310
59453.4
59430.1
59214.2
58839.7
58319.1
50861.3
50377.7
49599.6
48525.8
47185.2
45590.5
43716.3
41641.6
39446.2
37220.4
35071.8
33124.6
31505.4
30308.4
29655.5
29599.1
30063.2
30995.9
32337.6
33992.6
35892.7
37990
40246.7
42588.9
45017.3
47629.2
50181.8
52672.9
55028.7
57156.9
59002.6
60517.5
61662.4
62415.6
62765.7
62698.7
62263.2
61435.2
60234.7
58680.2
56788.3
54574.4
52065.9
49325.3
46444.7
43517.6
40773.2
38308.7
36216.4
34551.8
33402.3
32650.7
32290.4
32276.5
32542.6
33026.6
33665.4
34405.2
35200.1
36019.5
36845.5
37670.4
38499
39346.1
40228.1
41163.4
42167.3
43247.5
44405.1
45638.6
46937.2
48268.5
49604.5
50912.9
52159.3
53310.6
54337.3
55215
55924.7
56451.7
56788.2
56931.6
56902.4
56680.2
56296.4
55764.6
48267.5
47779.1
46985.9
45897.5
44534.1
42908.2
41002.8
38879.8
36633.4
34351.7
32147.1
30146.8
28483.6
27255.3
26590.4
26536
27016.8
27972.3
29344.9
31032.2
32963.2
35090.3
37376.3
39750.3
42212
44861.8
47457.4
49994.1
52395.1
54565.9
56448.4
57992.8
59159.1
59925.8
60281.6
60214.5
59768.9
58925.3
57705.7
56126
54203.6
51951.6
49395.6
46597
43651.5
40659.2
37856.8
35345.5
33225.8
31557.9
30400.1
29660.8
29322.5
29336.3
29632.1
30146.3
30813.3
31578
32393.1
33227.6
34063.5
34893.4
35723.4
36569.4
37449.5
38383.4
39387.2
40471.1
41635.3
42878.6
44190.8
45538.3
46892.4
48219.9
49485.3
50654.7
51697.4
52588.3
53307.9
53841.4
54180.6
54323.6
54288.6
54059.7
53666
53122.2
45593.8
45094
44289.5
43184.6
41797.4
40138.8
38198.6
36025.3
33725.1
31384.3
29119.8
27062.3
25350.2
24087.4
23409.2
23355.4
23855.3
24835.7
26241.7
27963.8
29927.9
32086.2
34402.8
36810.7
39307.7
41997.4
44638.7
47224.3
49673.6
51890.3
53812.1
55388
56577.2
57358.3
57720.7
57653.8
57197.5
56337.8
55097.9
53492.4
51537.1
49244.3
46636.7
43775.3
40759.2
37697.1
34831.7
32270
30117.7
28454.6
27284.9
26559.6
26245.3
26289.3
26617.3
27164.1
27861.5
28652.9
29489.7
30340.4
31186.7
32021.8
32852.7
33697.3
34575
35507
36510.3
37598
38769.3
40022.9
41349.6
42714.3
44087.9
45435.9
46721.6
47910.4
48970.2
49875.2
50605.5
51145.8
51488.1
51630.9
51589.8
51353.1
50948.9
50392.3
42925.2
42413.2
41598.7
40476.8
39065.5
37374
35397.2
33171.5
30813.9
28409.6
26080.8
23962
22199.8
20902.3
20211.7
20161.6
20681.8
21688.6
23129.7
24888.1
26886.3
29076.5
31424.1
33866.5
36399.8
39129.9
41818.2
44454.5
46954
49218.3
51180.5
52789
54001.7
54797.5
55166.4
55100.7
54632
53755.6
52493.7
50861.9
48872.3
46538.2
43878.8
40952.5
37864
34728.3
31795.9
29185.5
27001.4
25334.4
24158.2
23448.8
23159.6
23235.6
23597.3
24178.2
24907.2
25726.4
26585.7
27453
28309.9
29150
29981.6
30824.4
31699.3
32628.9
33631.6
34722.6
35901.3
37165.5
38506.9
39889.5
41283.1
42652.4
43959.2
45168.1
46245.6
47165.3
47906.5
48453.8
48799.2
48941.2
48893.9
48649.5
48234.3
47664.6
40260
39739.3
38912.7
37774.4
36338.4
34613.3
32597.4
30317.9
27902.5
25434.3
23041.1
20860.2
19043.8
17706.5
17003.9
16955.2
17495.8
18530.5
20008.6
21804.8
23838.8
26061.2
28439.9
30917.6
33488.2
36259.1
38996.2
41684.9
44236.2
46549.9
48554.3
50196.3
51433
52243.8
52619.1
52554.5
52072.7
51179.1
49894.6
48236
46213.3
43838.2
41125.3
38130.5
34964.2
31749.8
28751.6
26090.6
23879
22192.7
21019.5
20327.2
20064.4
20175.1
20572.1
21188.5
21950.5
22798.5
23681.2
24565.5
25433.1
26278.1
27110.1
27950.6
28822.3
29749
30751.1
31844.7
33031
34306.1
35662.8
37063.8
38478.2
39869.4
41198.1
42427.7
43523.7
44458.4
45211
45765.6
46114.3
46255.9
46202.4
45949.4
45522.9
44939.5
37596
37073.2
36231.5
35077.3
33616
31856.9
29801.3
27467.6
24990.5
22452.4
19987.4
17736.5
15865.4
14490
13776.7
13726.2
14297.3
15361.1
16877.7
18712.4
20783.7
23039.8
25450.2
27963.9
30572.8
33385
36171.9
38914.8
41519.6
43885
45932.9
47609.6
48871.2
49697.2
50078.4
50015.3
49520.3
48609.3
47303.3
45617.9
43560.8
41140.7
38370.9
35305.7
32060.1
28764.1
25699.8
22980.8
20742.9
19039.8
17870.7
17197.5
16963.5
17107.5
17541.5
18195
18991.4
19869.1
20776.1
21677.9
22556.4
23406.2
24238.2
25076.1
25944
26867.1
27868.5
28964.7
30158.5
31444.8
32817.1
34237.1
35673
37087
38438.3
39689.4
40804.5
41754.8
42519.1
43081.1
43433
43573.8
43513.8
43252.2
42814
42216.6
34935.6
34413.6
33555.1
32385.7
30899.2
29105.8
27006.9
24614.4
22073.1
19465.7
16931.7
14616.2
12686
11263.6
10542.5
10523.6
11086.5
12181.8
13739.1
15612.3
17721.4
20011.9
22455
25005.2
27653.4
30507.1
33345.7
36144.9
38805.2
41224
43316.6
45029
46316
47157.6
47545.6
47486.9
46976.8
46046.2
44717.8
43002.6
40908.5
38444.4
35619.5
32481.6
29151.4
25770.2
22631.1
19865.4
17590
15871.9
14706.8
14052.9
13846.9
14033.2
14505.5
15197.7
16029.9
16938.6
17870.7
18790.5
19680.1
20534.5
21366
22200.7
23064.4
23983.2
24983.7
26082.3
27283.6
28581.4
29969.7
31409.4
32867.5
34305
35679.6
36953.2
38088
39054.3
39830.8
40400.5
40755.8
40895.9
40829.3
40558.5
40108.2
39496.2
32283.4
31758.7
30884.9
29699.9
28186.9
26357.5
24215.9
21768.1
19163.8
16480.7
13866.5
11469.2
9474.76
8017
7284.13
7204.85
7864
8992.1
10591
12503.8
14652.5
16977.7
19452.4
22041.2
24729.8
27625.4
30516.8
33374.1
36091.9
38566.2
40705.4
42454.7
43767.9
44625.1
45018.3
44961.2
44434.4
43482.9
42131.9
40389.5
38262
35757.5
32873.9
29657.4
26236.5
22768.1
19546
16744.7
14424.8
12693.5
11536.9
10905.7
10731.1
10954
11464
12196.5
13066.1
14007
14965.2
15903.4
16804.3
17663.1
18493.7
19324.6
20183.5
21097.1
22096.6
23197.4
24406.1
25715.8
27120.6
28580.6
30061.7
31523.6
32922.3
34219
35374.2
36357.2
37146.2
37723.7
38082.5
38222.3
38148.3
37868.1
37405.2
36778.2
29639.9
29106.7
28220.1
27018.3
25479.7
23615.7
21428.9
18918.6
16237.6
13474.5
10781.5
8319.52
6280.96
4767.35
4039.7
4048.25
4664.39
5790.79
7441.4
9393.62
11572.5
13936.7
16445.2
19071.7
21802.1
24739.6
27685.6
30603.1
33380.3
35912.2
38099.7
39886.9
41226.9
42100.4
42498.7
42448.1
41904.2
40932.1
39558.7
37791.7
35628.2
33072.9
30126.2
26829.5
23318.8
19759.2
16454.9
13597.7
11239.7
9492.94
8339.43
7730.42
7589.59
7847.91
8416.93
9190.7
10099.5
11073.8
12059.1
13016.4
13928.8
14792
15621.2
16447.8
17301.4
18209.1
19207.2
20310.1
21526.1
22847.8
24269.6
25750.5
27255.5
28742.7
30166.4
31487.1
32663.4
33663.6
34465.5
35050.9
35413.1
35551.9
35470.5
35180.9
34705.1
34062.6
27002.5
26458.8
25562.6
24344.9
22780.3
20878.7
18642.1
16068.1
13325.1
10493.1
7724.31
5183.72
3092.17
1770.76
1271.52
1229.56
1675.69
2731.06
4297.57
6283.85
8498.56
10880.1
13430.5
16094.1
18869.8
21849.2
24851.5
27831.3
30670
33261.4
35498.8
37325.5
38692.8
39582.7
39986.3
39942.7
39380.2
38387.1
36988.2
35190.7
32985.3
30383.8
27381.3
24005.4
20394.5
16730.5
13355.8
10430.3
8044.62
6296.86
5169.28
4586.3
4470.02
4791.46
5361.62
6181.82
7131.54
8138.07
9151.87
10129.2
11053.4
11920.7
12748.2
13570
14417.7
15319.5
16314.8
17420.4
18643.5
19977.6
21416.6
22919.1
24448.7
25962
27411.5
28757.2
29955.4
30973.2
31788.6
32382.2
32748.1
32887.3
32798.3
32497.9
32008.5
31349.8
24371.3
23816.3
22911
21674.1
20081.8
18143.7
15861.6
13232.8
10417.1
7476.22
4663.48
2122.3
759.45
279.259
170.26
161.758
266.973
626.591
1483.26
3239.12
5427.22
7837.24
10402.1
13107.5
15931.2
18954.5
22014.4
25059
27961.6
30614.6
32903.1
34770.3
36166.1
37072.5
37478.5
37440.1
36855.5
35841.3
34419.7
32594.2
30353.2
27709.7
24645.2
21180.9
17460.1
13694.4
10256
7270.24
4847.21
3139.05
2121.17
1673.73
1609.12
1882.25
2455.23
3233.54
4163.28
5203.89
6247.32
7244.02
8179.58
9049.45
9874.74
10691.1
11532.2
12428
13419.1
14527.4
15757.9
17104.9
18561.7
20086.5
21641.5
23181.9
24657.8
26029.3
27250.4
28286.5
29115.5
29717.4
30086.8
30225.1
30126.5
29816.2
29313.4
28638.4
21745.9
21178.4
20263.7
19011.1
17393
15417.7
13083.9
10387.6
7470.03
4495.55
1810.02
386.522
80.3615
41.9078
41.9776
40.9219
43.9612
63.4572
205.42
880.919
2498.12
4800.19
7388.79
10116.7
12986.2
16054.7
19173.9
22285.5
25254.2
27971.2
30313
32221.8
33646.4
34570.3
34978.6
34959
34347.8
33311.5
31867
30012.8
27731.4
25036.8
21904.4
18349.7
14522.9
10666.1
7137.94
4091.35
1858.62
796.205
363.15
247.474
239.576
330.644
551.862
925.698
1523.7
2417.01
3374.52
4359.79
5307.79
6180.97
7002.5
7811.77
8645.29
9534.82
10520.7
11631.3
12869.1
14229.2
15704.1
17252.2
18833.7
20402.2
21905.6
23303.7
24548.2
25603
26446.4
27056.8
27430
27568.4
27462.7
27140.6
26623.5
25931.3
19124.3
18548.4
17625.2
16355.2
14708.7
12694.9
10309.5
7532.32
4591.56
1771.72
304.638
48.0694
32.6719
34.578
34.515
33.1542
32.7588
32.0463
35.8251
87.7573
564.498
1977.36
4373.02
7133.73
10040.4
13149.3
16329.3
19509.9
22548.8
25331.4
27728.5
29680.5
31134.4
32075.7
32482.7
32477.5
31838.6
30778.8
29308.5
27424.5
25103.8
22364
19170.3
15524.7
11585.5
7617.15
4008.24
1386.56
305.779
85.9221
38.4516
38.1867
38.2395
40.5261
51.4879
93.0888
226.66
569.76
1060.05
1745.08
2551.48
3342.57
4130.61
4932.72
5758.56
6639.44
7620.37
8732.68
9977.59
11351.1
12844.4
14416.1
16024.6
17622.4
19154.4
20580.5
21849.3
22923.2
23781.3
24400.3
24777.2
24915.2
24801
24467.2
23935.3
23225.1
16506.6
15924.6
14990.1
13702.6
12027.9
9978.18
7530.86
4735.89
1880.05
268.139
46.4804
43.2537
29.4341
30.4441
30.4497
29.2467
28.3851
26.8368
26.9504
27.8456
50.0718
370.253
1652.93
4143.43
7093.64
10240.7
13481
16733.5
19843.4
22695.2
25149.6
27145.9
28630.3
29589.7
29993
30009.3
29337.3
28253.7
26758.6
24848.6
22493.4
19718.1
16440.2
12693.3
8637
4560.34
1371.73
190.706
35.2074
34.6461
31.9044
30.7087
29.171
28.1797
27.6214
27.6788
30.5554
47.6276
113.437
307.229
649.596
1058.66
1575.27
2223.53
2938.54
3749.47
4716.54
5831.58
7083.41
8470.86
9983.03
11578.9
13215.2
14842.8
16403.8
17858.7
19153.3
20247.2
21120.7
21748.2
22128.8
22266.4
22142.1
21796.4
21249.2
20521.1
13892
13306.7
12359.6
11058.7
9357.19
7266.68
4794.02
2042.53
297.088
13.9527
41.4796
37.6975
26.3568
26.4802
26.5849
25.4551
24.7148
23.4164
22.7696
22.0015
20.7443
39.3391
262.466
1505.72
4136.78
7329.57
10629.6
13956.8
17139.2
20061.2
22576.4
24619
26134.2
27112.7
27527.8
27534.1
26845.1
25741.1
24224.3
22285.1
19895.4
17056.7
13695.8
9863.92
5674.29
1776.27
181.986
26.6875
31.5094
30.2023
27.804
26.7863
25.3604
24.2018
23.1972
22.0441
20.9408
20.5996
21.6143
28.0228
50.289
109.547
246.28
497.257
825.999
1289.41
2022.1
2989.55
4184.17
5587.04
7118.55
8740.44
10405.9
12064.6
13655
15139.2
16459.9
17574.5
18464.2
19100.6
19484.8
19623.3
19490.8
19132.1
18569.3
17822.5
11286.1
10696.1
9738.71
8421.64
6694.06
4579.9
2139.28
375.908
5.0408
10.4535
34.8935
32.9412
23.1998
22.8673
22.8686
21.8093
20.9535
19.7644
19.043
18.2648
15.9112
17.3421
36.8699
218.237
1522.08
4395.16
7776.53
11178.7
14438
17431.2
20007.9
22099.3
23646.1
24644.8
25089.4
25048.9
24353.2
23235.4
21690.2
19716
17299.2
14383.6
10972.2
7031.88
2792.56
268.494
14.0994
23.6317
26.7393
25.9226
24.04
22.9251
21.6631
20.6122
19.6193
18.5103
17.1908
16.0071
15.0029
14.3777
14.6067
15.7679
20.285
32.9205
65.8652
155.763
403.304
841.924
1592.02
2781.33
4248.35
5895.51
7594.82
9286.82
10908
12423.2
13770.3
14905.2
15811.5
16457
16845.4
16984.1
16841.6
16469.6
15890.3
15123.7
8682.47
8087.61
7122
5794.68
4045.15
2006.26
450.015
26.4747
3.16326
8.30174
29.2922
28.1397
19.8781
19.2107
19.1475
18.1226
17.3765
16.1667
15.3392
14.5822
12.4399
11.3778
16.5652
26.3867
213.925
1732.1
4897.19
8400.99
11734.7
14805.7
17445.3
19585.4
21165.1
22184.8
22658.9
22569.7
21862.1
20734.3
19163.6
17148.1
14695.5
11739.1
8264.85
4214.83
734.575
11.5878
10.8151
18.8331
22.2355
21.7796
20.2259
19.2189
18.0355
16.9591
15.976
14.9006
13.6378
12.5266
11.4068
10.4147
9.66892
8.89821
8.61428
8.9403
9.50079
12.0795
22.5713
63.6374
239.914
745.186
1661.16
3092.64
4778.24
6506.08
8161.21
9709.03
11084.7
12240.7
13163.7
13817.4
14209
14344.3
14196.3
13810.2
13213.7
12426.8
6095.59
5492.27
4517.42
3185.15
1611.89
414.223
34.8507
18.9734
2.26476
6.79159
23.7957
23.5103
16.5567
15.56
15.475
14.4167
13.6977
12.5429
11.6981
10.9103
8.85639
7.88379
7.63812
15.2484
11.0101
294.127
2192.94
5610.14
9033.18
12178
14888.7
17079
18691
19731
20236.1
20096.5
19380.8
18243.5
16644.2
14586
12102.2
9120.64
5543.94
1698.3
70.042
4.31483
7.71799
14.5627
17.8525
17.754
16.4236
15.4837
14.3699
13.3728
12.3846
11.308
10.0998
8.99318
7.91778
6.92546
6.17471
5.30902
4.74557
4.46715
3.86956
3.55225
4.03869
4.69147
10.2546
46.1242
264.724
927.113
2134.64
3727.54
5411.67
6996.34
8401.81
9580
10521.4
11184.6
11579.7
11724.4
11555.6
11155.4
10541.7
9734.14
3490.85
2908.79
1994.03
1086.54
290.586
29.5553
24.3537
14.6014
0.846367
4.51789
18.7357
18.9366
13.0438
11.9696
11.7626
10.7518
10.0466
8.94214
8.05365
7.26484
5.30523
4.29166
3.33004
4.68273
5.82326
6.52123
507.032
2866.99
6327.91
9556.74
12328.4
14579.5
16224.3
17284.3
17819.9
17630.3
16908.9
15761.1
14123.9
12036.5
9537.55
6484.51
2889.16
252.683
-1.00443
1.55899
4.28857
10.419
13.5497
13.7471
12.6395
11.7469
10.7046
9.71835
8.7765
7.72718
6.5641
5.47716
4.42375
3.45843
2.69932
1.85841
1.29068
0.935667
0.339311
-0.131475
-0.252856
-1.03899
-1.40549
-1.06741
5.25059
67.5038
467.767
1339.15
2730.77
4286.11
5721.64
6919.49
7880.48
8550.63
8954.13
9084.13
8920.24
8506.22
7873.88
7045.27
1294.57
951.174
454.369
128.837
20.0883
23.5194
19.3399
10.5123
-1.09159
2.15073
13.8804
14.494
9.52191
8.35053
8.05219
7.07764
6.33871
5.30369
4.41853
3.63101
1.80018
0.691464
-0.139037
-1.51578
0.700709
-3.33909
9.8826
813.935
3629.06
6936.63
9784.88
12074.5
13765.6
14875
15384.5
15173.2
14446.8
13281.6
11612.6
9513.92
6960.25
3861.05
892.562
-4.01664
-5.26509
-2.18059
0.750923
6.33179
9.36299
9.73912
8.83193
8.00391
7.03524
6.09694
5.16622
4.14266
3.02384
1.96336
0.932789
-0.00843777
-0.776654
-1.5879
-2.15426
-2.54495
-3.11909
-3.58844
-3.80071
-4.60787
-5.32865
-6.34802
-7.5263
-6.01935
9.6905
160.745
773.495
1806.06
3074.54
4279.38
5254.65
5937.11
6352.35
6469.13
6289.86
5859.19
5208.24
4365.73
144.612
83.7737
8.19284
3.39249
14.515
18.2258
14.8358
6.45252
-3.21057
-0.492185
9.2752
10.164
5.93981
4.71972
4.35187
3.4261
2.65347
1.6726
0.771704
-0.0234221
-1.72853
-2.86129
-3.78514
-5.11404
-5.59012
-3.38732
-17.4933
46.5226
1308.14
4302.61
7259.87
9589.09
11329.1
12451.1
12939.6
12728.2
11994
10809.9
9111.09
6999.81
4377.72
1551.4
74.6784
-18.323
-8.86704
-5.98901
-2.74982
2.27658
5.23752
5.74748
5.02595
4.26574
3.36387
2.46129
1.55668
0.559251
-0.520668
-1.55579
-2.56204
-3.47984
-4.25019
-5.0367
-5.60443
-6.0245
-6.58788
-7.05275
-7.33295
-8.1007
-8.8406
-9.94994
-11.4331
-12.1793
-13.7318
-10.9776
32.7956
336.523
981.877
1817.82
2660.33
3315.18
3729.85
3855.39
3664.74
3244.27
2617.22
1888.29
-17.1287
-11.9198
-5.3764
-0.873558
10.1147
13.2202
10.3886
2.54735
-5.58066
-3.28244
4.86912
5.90239
2.30699
1.0756
0.652634
-0.244085
-1.04063
-1.96284
-2.85828
-3.68015
-5.28333
-6.41094
-7.40559
-8.62342
-10.0931
-8.30432
-9.679
-24.4402
176.429
1888.41
4694.48
7120.51
8908.88
10006
10511.5
10297.5
9548.52
8343.93
6632.2
4469.26
1989.36
222.306
-32.382
-21.0808
-12.6524
-9.73029
-6.37141
-1.70082
1.14511
1.77686
1.22144
0.531787
-0.307225
-1.17188
-2.05326
-3.02441
-4.06628
-5.07606
-6.05848
-6.95548
-7.72436
-8.48829
-9.05823
-9.50299
-10.0577
-10.5234
-10.8594
-11.6045
-12.3564
-13.4493
-14.8522
-15.8809
-18.0485
-20.3633
-21.2108
-11.8376
62.4957
359.725
788.154
1181.49
1463.46
1547.66
1427.81
1140.65
743.173
352.698
-20.1925
-15.1984
-8.6859
-4.15791
5.24162
8.60337
5.94649
-1.28313
-8.14426
-6.16878
0.590863
1.70656
-1.35077
-2.56713
-3.03755
-3.89615
-4.72485
-5.60509
-6.48476
-7.33484
-8.84253
-9.99641
-10.989
-12.2201
-13.3508
-13.3929
-13.7546
-21.0586
-25.1676
421.062
2239.88
4635.88
6478.71
7590.93
8088.55
7881.3
7107.74
5906.95
4151.59
2090.05
420.206
-45.6617
-36.2148
-24.9944
-16.6921
-13.3819
-9.99486
-5.63456
-2.91152
-2.17364
-2.58097
-3.19886
-3.97786
-4.80506
-5.66347
-6.60807
-7.61462
-8.59823
-9.5565
-10.4357
-11.1996
-11.9441
-12.5156
-12.9812
-13.5281
-13.9963
-14.3786
-15.1053
-15.8711
-16.9496
-18.3146
-19.3832
-21.4942
-23.9934
-26.31
-27.9962
-28.2801
-20.2425
16.9937
98.949
194.178
232.095
196.57
115.46
26.1991
-27.3485
-23.5608
-18.6162
-12.4266
-7.8801
0.777524
3.94224
1.56578
-5.05978
-10.8781
-9.20042
-3.56693
-2.43052
-5.03858
-6.21884
-6.72591
-7.5502
-8.39463
-9.25565
-10.1081
-10.9848
-12.4063
-13.5646
-14.5882
-15.7981
-16.8998
-17.1948
-18.5082
-22.8629
-34.7554
-15.514
612.661
2262.11
4052.46
5192.41
5683.83
5462.88
4701.92
3489.64
1851.82
473.518
-25.1508
-49.9733
-38.8443
-28.6082
-20.606
-17.0601
-13.6073
-9.54843
-6.92884
-6.10438
-6.38215
-6.93151
-7.65107
-8.43777
-9.26878
-10.1881
-11.1634
-12.1237
-13.0587
-13.9177
-14.6755
-15.4026
-15.9745
-16.458
-16.9986
-17.4713
-17.8947
-18.6081
-19.3836
-20.4418