/*--------------------------------*- C++ -*----------------------------------*\
| =========                 |                                                 |
| \\      /  F ield         | OpenFOAM: The Open Source CFD Toolbox           |
|  \\    /   O peration     | Version:  v1912                                 |
|   \\  /    A nd           | Website:  www.openfoam.com                      |
|    \\/     M anipulation  |                                                 |
\*---------------------------------------------------------------------------*/
FoamFile
{
    version     2.0;
    format      ascii;
    class       volScalarField;
    location    "40";
    object      alpha.water;
}
// * * * * * * * * * * * * * * * * * * * * * * * * * * * * * * * * * * * * * //

dimensions      [0 0 0 0 0 0 0];


internalField   nonuniform List<scalar> 
14268
(
-6.87803e-203
-6.35773e-206
-5.51274e-209
-4.48328e-212
-3.41919e-215
-2.44502e-218
-1.63911e-221
-1.02998e-224
-6.06572e-228
-3.34731e-231
-1.73061e-234
-8.38153e-238
-3.80185e-241
-1.61489e-244
-6.42236e-248
-2.39098e-251
-8.33129e-255
-2.71662e-258
-8.288e-262
-2.36537e-265
-6.31393e-269
-1.57607e-272
-3.67828e-276
-8.02478e-280
-1.63629e-283
-3.11778e-287
-5.55024e-291
-9.22949e-295
-1.43338e-298
-2.07868e-302
-2.8143e-306
-3.55656e-310
-4.19458e-314
-4.61588e-318
-2.66795e-322
0
0
0
0
0
0
0
0
0
0
0
0
0
0
0
0
0
0
0
0
0
0
0
0
0
0
0
0
0
0
0
0
0
0
0
0
0
0
0
0
0
0
0
0
0
0
0
0
0
0
0
0
0
0
0
0
0
0
0
0
0
0
0
0
0
0
0
0
0
0
0
0
0
0
0
0
0
0
0
0
0
0
0
0
0
0
0
0
0
0
0
0
0
0
0
0
0
0
0
0
0
0
0
0
0
0
0
0
0
0
0
0
0
0
0
0
0
0
0
0
0
0
0
0
0
0
0
0
0
-4.75462e-203
-4.40682e-206
-3.83146e-209
-3.1244e-212
-2.38928e-215
-1.71317e-218
-1.15159e-221
-7.25592e-225
-4.28465e-228
-2.37082e-231
-1.22905e-234
-5.96837e-238
-2.71449e-241
-1.1561e-244
-4.60998e-248
-1.72079e-251
-6.01186e-255
-1.96546e-258
-6.01197e-262
-1.72025e-265
-4.60375e-269
-1.15212e-272
-2.69571e-276
-5.89599e-280
-1.20523e-283
-2.30215e-287
-4.10834e-291
-6.8484e-295
-1.06615e-298
-1.54981e-302
-2.1032e-306
-2.66409e-310
-3.14921e-314
-3.47326e-318
-1.28457e-322
0
0
0
0
0
0
0
0
0
0
0
0
0
0
0
0
0
0
0
0
0
0
0
0
0
0
0
0
0
0
0
0
0
0
0
0
0
0
0
0
0
0
0
0
0
0
0
0
0
0
0
0
0
0
0
0
0
0
0
0
0
0
0
0
0
0
0
0
0
0
0
0
0
0
0
0
0
0
0
0
0
0
0
0
0
0
0
0
0
0
0
0
0
0
0
0
0
0
0
0
0
0
0
0
0
0
0
0
0
0
0
0
0
0
0
0
0
0
0
0
0
0
0
0
0
0
0
0
0
-3.13113e-203
-2.90039e-206
-2.5202e-209
-2.05388e-212
-1.56967e-215
-1.12478e-218
-7.55592e-222
-4.75773e-225
-2.80759e-228
-1.55246e-231
-8.04251e-235
-3.90276e-238
-1.77374e-241
-7.54876e-245
-3.00782e-248
-1.12188e-251
-3.91636e-255
-1.27934e-258
-3.91001e-262
-1.11785e-265
-2.98899e-269
-7.47344e-273
-1.74701e-276
-3.8174e-280
-7.79576e-284
-1.4876e-287
-2.65199e-291
-4.41604e-295
-6.86733e-299
-9.97138e-303
-1.35161e-306
-1.71001e-310
-2.01888e-314
-2.22375e-318
0
0
0
0
0
0
0
0
0
0
0
0
0
0
0
0
0
0
0
0
0
0
0
0
0
0
0
0
0
0
0
0
0
0
0
0
0
0
0
0
0
0
0
0
0
0
0
0
0
0
0
0
0
0
0
0
0
0
0
0
0
0
0
0
0
0
0
0
0
0
0
0
0
0
0
0
0
0
0
0
0
0
0
0
0
0
0
0
0
0
0
0
0
0
0
0
0
0
0
0
0
0
0
0
0
0
0
0
0
0
0
0
0
0
0
0
0
0
0
0
0
0
0
0
0
0
0
0
0
0
-2.39954e-203
-2.21524e-206
-1.91841e-209
-1.55822e-212
-1.1869e-215
-8.47682e-219
-5.67567e-222
-3.56204e-225
-2.09511e-228
-1.15471e-231
-5.96248e-235
-2.884e-238
-1.30649e-241
-5.54224e-245
-2.20121e-248
-8.18381e-252
-2.84771e-255
-9.27264e-259
-2.8249e-262
-8.05037e-266
-2.14567e-269
-5.34771e-273
-1.24609e-276
-2.71409e-280
-5.5248e-284
-1.05085e-287
-1.86733e-291
-3.09934e-295
-4.80401e-299
-6.95255e-303
-9.393e-307
-1.18441e-310
-1.39365e-314
-1.52996e-318
0
0
0
0
0
0
0
0
0
0
0
0
0
0
0
0
0
0
0
0
0
0
0
0
0
0
0
0
0
0
0
0
0
0
0
0
0
0
0
0
0
0
0
0
0
0
0
0
0
0
0
0
0
0
0
0
0
0
0
0
0
0
0
0
0
0
0
0
0
0
0
0
0
0
0
0
0
0
0
0
0
0
0
0
0
0
0
0
0
0
0
0
0
0
0
0
0
0
0
0
0
0
0
0
0
0
0
0
0
0
0
0
0
0
0
0
0
0
0
0
0
0
0
0
0
0
0
0
0
0
-1.85392e-203
-1.71031e-206
-1.48015e-209
-1.20147e-212
-9.146e-216
-6.52823e-219
-4.36854e-222
-2.74022e-225
-1.61091e-228
-8.87414e-232
-4.58011e-235
-2.21436e-238
-1.0027e-241
-4.25179e-245
-1.688e-248
-6.27331e-252
-2.18208e-255
-7.10259e-259
-2.16299e-262
-6.16182e-266
-1.64171e-269
-4.09016e-273
-9.52702e-277
-2.07428e-280
-4.22071e-284
-8.02475e-288
-1.42535e-291
-2.36467e-295
-3.66349e-299
-5.29919e-303
-7.15533e-307
-9.01713e-311
-1.06033e-314
-1.16304e-318
0
0
0
0
0
0
0
0
0
0
0
0
0
0
0
0
0
0
0
0
0
0
0
0
0
0
0
0
0
0
0
0
0
0
0
0
0
0
0
0
0
0
0
0
0
0
0
0
0
0
0
0
0
0
0
0
0
0
0
0
0
0
0
0
0
0
0
0
0
0
0
0
0
0
0
0
0
0
0
0
0
0
0
0
0
0
0
0
0
0
0
0
0
0
0
0
0
0
0
0
0
0
0
0
0
0
0
0
0
0
0
0
0
0
0
0
0
0
0
0
0
0
0
0
0
0
0
0
0
0
-1.69765e-203
-1.56974e-206
-1.36157e-209
-1.1077e-212
-8.45094e-216
-6.04534e-219
-4.05416e-222
-2.54844e-225
-1.50132e-228
-8.28749e-232
-4.286e-235
-2.07629e-238
-9.42012e-242
-4.00204e-245
-1.59179e-248
-5.92648e-252
-2.06506e-255
-6.73314e-259
-2.05386e-262
-5.86019e-266
-1.56373e-269
-3.90154e-273
-9.10029e-277
-1.98397e-280
-4.04194e-284
-7.69373e-288
-1.36802e-291
-2.27178e-295
-3.52269e-299
-5.09952e-303
-6.8904e-307
-8.6882e-311
-1.02211e-314
-1.12148e-318
0
0
0
0
0
0
0
0
0
0
0
0
0
0
0
0
0
0
0
0
0
0
0
0
0
0
0
0
0
0
0
0
0
0
0
0
0
0
0
0
0
0
0
0
0
0
0
0
0
0
0
0
0
0
0
0
0
0
0
0
0
0
0
0
0
0
0
0
0
0
0
0
0
0
0
0
0
0
0
0
0
0
0
0
0
0
0
0
0
0
0
0
0
0
0
0
0
0
0
0
0
0
0
0
0
0
0
0
0
0
0
0
0
0
0
0
0
0
0
0
0
0
0
0
0
0
0
0
0
0
-1.70816e-203
-1.58184e-206
-1.37406e-209
-1.11943e-212
-8.55189e-216
-6.12543e-219
-4.11291e-222
-2.5884e-225
-1.52655e-228
-8.4356e-232
-4.36689e-235
-2.11742e-238
-9.6149e-242
-4.08799e-245
-1.62714e-248
-6.06196e-252
-2.11347e-255
-6.89435e-259
-2.1039e-262
-6.00496e-266
-1.60275e-269
-3.99955e-273
-9.32954e-277
-2.0339e-280
-4.14317e-284
-7.88471e-288
-1.40152e-291
-2.32641e-295
-3.60545e-299
-5.21588e-303
-7.0421e-307
-8.8714e-311
-1.04257e-314
-1.14256e-318
0
0
0
0
0
0
0
0
0
0
0
0
0
0
0
0
0
0
0
0
0
0
0
0
0
0
0
0
0
0
0
0
0
0
0
0
0
0
0
0
0
0
0
0
0
0
0
0
0
0
0
0
0
0
0
0
0
0
0
0
0
0
0
0
0
0
0
0
0
0
0
0
0
0
0
0
0
0
0
0
0
0
0
0
0
0
0
0
0
0
0
0
0
0
0
0
0
0
0
0
0
0
0
0
0
0
0
0
0
0
0
0
0
0
0
0
0
0
0
0
0
0
0
0
0
0
0
0
0
0
-1.68265e-203
-1.55925e-206
-1.35527e-209
-1.10474e-212
-8.44406e-216
-6.05101e-219
-4.06464e-222
-2.55895e-225
-1.50965e-228
-8.34432e-232
-4.32051e-235
-2.09523e-238
-9.51497e-242
-4.04561e-245
-1.61022e-248
-5.99836e-252
-2.09096e-255
-6.81941e-259
-2.08043e-262
-5.93582e-266
-1.58361e-269
-3.94979e-273
-9.20811e-277
-2.0061e-280
-4.0835e-284
-7.76469e-288
-1.37892e-291
-2.28658e-295
-3.53978e-299
-5.11469e-303
-6.89638e-307
-8.67542e-311
-1.01797e-314
-1.11371e-318
0
0
0
0
0
0
0
0
0
0
0
0
0
0
0
0
0
0
0
0
0
0
0
0
0
0
0
0
0
0
0
0
0
0
0
0
0
0
0
0
0
0
0
0
0
0
0
0
0
0
0
0
0
0
0
0
0
0
0
0
0
0
0
0
0
0
0
0
0
0
0
0
0
0
0
0
0
0
0
0
0
0
0
0
0
0
0
0
0
0
0
0
0
0
0
0
0
0
0
0
0
0
0
0
0
0
0
0
0
0
0
0
0
0
0
0
0
0
0
0
0
0
0
0
0
0
0
0
0
0
-1.56985e-203
-1.45523e-206
-1.26525e-209
-1.03163e-212
-7.88703e-216
-5.65287e-219
-3.79773e-222
-2.39114e-225
-1.41073e-228
-7.79764e-232
-4.03731e-235
-1.95774e-238
-8.88947e-242
-3.77901e-245
-1.50377e-248
-5.60032e-252
-1.95158e-255
-6.36247e-259
-1.9402e-262
-5.53307e-266
-1.47537e-269
-3.67763e-273
-8.56801e-277
-1.86531e-280
-3.79394e-284
-7.20798e-288
-1.27888e-291
-2.11858e-295
-3.27621e-299
-4.72841e-303
-6.36769e-307
-7.99978e-311
-9.37363e-315
-1.02403e-318
0
0
0
0
0
0
0
0
0
0
0
0
0
0
0
0
0
0
0
0
0
0
0
0
0
0
0
0
0
0
0
0
0
0
0
0
0
0
0
0
0
0
0
0
0
0
0
0
0
0
0
0
0
0
0
0
0
0
0
0
0
0
0
0
0
0
0
0
0
0
0
0
0
0
0
0
0
0
0
0
0
0
0
0
0
0
0
0
0
0
0
0
0
0
0
0
0
0
0
0
0
0
0
0
0
0
0
0
0
0
0
0
0
0
0
0
0
0
0
0
0
0
0
0
0
0
0
0
0
0
-1.38371e-203
-1.28275e-206
-1.11531e-209
-9.09373e-213
-6.95199e-216
-4.9823e-219
-3.34683e-222
-2.10693e-225
-1.24281e-228
-6.86797e-232
-3.55504e-235
-1.72337e-238
-7.82268e-242
-3.32428e-245
-1.32229e-248
-4.92224e-252
-1.71446e-255
-5.58648e-259
-1.7026e-262
-4.85256e-266
-1.29308e-269
-3.221e-273
-7.49863e-277
-1.63121e-280
-3.31505e-284
-6.29259e-288
-1.11542e-291
-1.84597e-295
-2.85166e-299
-4.11114e-303
-5.52998e-307
-6.93882e-311
-8.11992e-315
-8.85795e-319
0
0
0
0
0
0
0
0
0
0
0
0
0
0
0
0
0
0
0
0
0
0
0
0
0
0
0
0
0
0
0
0
0
0
0
0
0
0
0
0
0
0
0
0
0
0
0
0
0
0
0
0
0
0
0
0
0
0
0
0
0
0
0
0
0
0
0
0
0
0
0
0
0
0
0
0
0
0
0
0
0
0
0
0
0
0
0
0
0
0
0
0
0
0
0
0
0
0
0
0
0
0
0
0
0
0
0
0
0
0
0
0
0
0
0
0
0
0
0
0
0
0
0
0
0
0
0
0
0
0
-1.15154e-203
-1.06715e-206
-9.27501e-210
-7.55932e-213
-5.77645e-216
-4.1379e-219
-2.77825e-222
-1.74808e-225
-1.03058e-228
-5.69186e-232
-2.94449e-235
-1.4265e-238
-6.47087e-242
-2.74794e-245
-1.09226e-248
-4.06295e-252
-1.41407e-255
-4.60402e-259
-1.40202e-262
-3.99244e-266
-1.06293e-269
-2.64529e-273
-6.1525e-277
-1.33707e-280
-2.71451e-284
-5.14724e-288
-9.11404e-292
-1.50664e-295
-2.32475e-299
-3.34748e-303
-4.49716e-307
-5.63562e-311
-6.5861e-315
-7.17457e-319
0
0
0
0
0
0
0
0
0
0
0
0
0
0
0
0
0
0
0
0
0
0
0
0
0
0
0
0
0
0
0
0
0
0
0
0
0
0
0
0
0
0
0
0
0
0
0
0
0
0
0
0
0
0
0
0
0
0
0
0
0
0
0
0
0
0
0
0
0
0
0
0
0
0
0
0
0
0
0
0
0
0
0
0
0
0
0
0
0
0
0
0
0
0
0
0
0
0
0
0
0
0
0
0
0
0
0
0
0
0
0
0
0
0
0
0
0
0
0
0
0
0
0
0
0
0
0
0
0
0
-9.03594e-204
-8.367e-207
-7.26611e-210
-5.91701e-213
-4.51755e-216
-3.23323e-219
-2.16886e-222
-1.36339e-225
-8.0302e-229
-4.43078e-232
-2.28985e-235
-1.10823e-238
-5.022e-242
-2.13043e-245
-8.45911e-249
-3.14318e-252
-1.09275e-255
-3.55385e-259
-1.08099e-262
-3.07469e-266
-8.17632e-270
-2.03238e-273
-4.7212e-277
-1.02475e-280
-2.07781e-284
-3.93487e-288
-6.95825e-292
-1.14874e-295
-1.77011e-299
-2.54533e-303
-3.41472e-307
-4.27304e-311
-4.98645e-315
-5.4241e-319
0
0
0
0
0
0
0
0
0
0
0
0
0
0
0
0
0
0
0
0
0
0
0
0
0
0
0
0
0
0
0
0
0
0
0
0
0
0
0
0
0
0
0
0
0
0
0
0
0
0
0
0
0
0
0
0
0
0
0
0
0
0
0
0
0
0
0
0
0
0
0
0
0
0
0
0
0
0
0
0
0
0
0
0
0
0
0
0
0
0
0
0
0
0
0
0
0
0
0
0
0
0
0
0
0
0
0
0
0
0
0
0
0
0
0
0
0
0
0
0
0
0
0
0
0
0
0
0
0
0
-6.6847e-204
-6.18226e-207
-5.36219e-210
-4.36113e-213
-3.32546e-216
-2.377e-219
-1.59245e-222
-9.99737e-226
-5.88059e-229
-3.2404e-232
-1.67241e-235
-8.08314e-239
-3.65792e-242
-1.54963e-245
-6.14447e-249
-2.27994e-252
-7.91524e-256
-2.57055e-259
-7.80777e-263
-2.2176e-266
-5.88856e-270
-1.46157e-273
-3.39023e-277
-7.34763e-281
-1.4876e-284
-2.81292e-288
-4.96668e-292
-8.18695e-296
-1.25959e-299
-1.80841e-303
-2.42228e-307
-3.02634e-311
-3.52595e-315
-3.82985e-319
0
0
0
0
0
0
0
0
0
0
0
0
0
0
0
0
0
0
0
0
0
0
0
0
0
0
0
0
0
0
0
0
0
0
0
0
0
0
0
0
0
0
0
0
0
0
0
0
0
0
0
0
0
0
0
0
0
0
0
0
0
0
0
0
0
0
0
0
0
0
0
0
0
0
0
0
0
0
0
0
0
0
0
0
0
0
0
0
0
0
0
0
0
0
0
0
0
0
0
0
0
0
0
0
0
0
0
0
0
0
0
0
0
0
0
0
0
0
0
0
0
0
0
0
0
0
0
0
0
0
-4.66874e-204
-4.31104e-207
-3.73326e-210
-3.03148e-213
-2.30788e-216
-1.647e-219
-1.10161e-222
-6.90473e-226
-4.05487e-229
-2.23072e-232
-1.14942e-235
-5.54631e-239
-2.50578e-242
-1.05979e-245
-4.19523e-249
-1.55408e-252
-5.38628e-256
-1.74633e-259
-5.29539e-263
-1.50149e-266
-3.98032e-270
-9.86267e-274
-2.28385e-277
-4.94138e-281
-9.98728e-285
-1.88528e-288
-3.32307e-292
-5.46826e-296
-8.39864e-300
-1.20372e-303
-1.60953e-307
-2.00741e-311
-2.33472e-315
-2.5307e-319
0
0
0
0
0
0
0
0
0
0
0
0
0
0
0
0
0
0
0
0
0
0
0
0
0
0
0
0
0
0
0
0
0
0
0
0
0
0
0
0
0
0
0
0
0
0
0
0
0
0
0
0
0
0
0
0
0
0
0
0
0
0
0
0
0
0
0
0
0
0
0
0
0
0
0
0
0
0
0
0
0
0
0
0
0
0
0
0
0
0
0
0
0
0
0
0
0
0
0
0
0
0
0
0
0
0
0
0
0
0
0
0
0
0
0
0
0
0
0
0
0
0
0
0
0
0
0
0
0
0
-2.19007e-204
-2.01662e-207
-1.74146e-210
-1.41015e-213
-1.07055e-216
-7.61856e-220
-5.08152e-223
-3.17613e-226
-1.86001e-229
-1.02041e-232
-5.2432e-236
-2.52297e-239
-1.13669e-242
-4.79416e-246
-1.89253e-249
-6.99126e-253
-2.4164e-256
-7.81275e-260
-2.36252e-263
-6.68041e-267
-1.76604e-270
-4.36396e-274
-1.00776e-277
-2.17443e-281
-4.38281e-285
-8.25067e-289
-1.45032e-292
-2.38004e-296
-3.64549e-300
-5.21057e-304
-6.94822e-308
-8.64222e-312
-1.0024e-315
-1.08329e-319
0
0
0
0
0
0
0
0
0
0
0
0
0
0
0
0
0
0
0
0
0
0
0
0
0
0
0
0
0
0
0
0
0
0
0
0
0
0
0
0
0
0
0
0
0
0
0
0
0
0
0
0
0
0
0
0
0
0
0
0
0
0
0
0
0
0
0
0
0
0
0
0
0
0
0
0
0
0
0
0
0
0
0
0
0
0
0
0
0
0
0
0
0
0
0
0
0
0
0
0
0
0
0
0
0
0
0
0
0
0
0
0
0
0
0
0
0
0
0
0
0
0
0
0
0
0
0
0
0
0
-9.54606e-205
-8.76365e-208
-7.54527e-211
-6.09153e-214
-4.61076e-217
-3.27149e-220
-2.17559e-223
-1.3558e-226
-7.91641e-230
-4.33016e-233
-2.21845e-236
-1.06436e-239
-4.78133e-243
-2.01071e-246
-7.91435e-250
-2.91518e-253
-1.00466e-256
-3.2389e-260
-9.76598e-264
-2.75355e-267
-7.25841e-271
-1.78845e-274
-4.11827e-278
-8.8606e-282
-1.78088e-285
-3.34302e-289
-5.85981e-293
-9.58908e-297
-1.46462e-300
-2.08752e-304
-2.77588e-308
-3.44299e-312
-3.98233e-316
-4.28503e-320
0
0
0
0
0
0
0
0
0
0
0
0
0
0
0
0
0
0
0
0
0
0
0
0
0
0
0
0
0
0
0
0
0
0
0
0
0
0
0
0
0
0
0
0
0
0
0
0
0
0
0
0
0
0
0
0
0
0
0
0
0
0
0
0
0
0
0
0
0
0
0
0
0
0
0
0
0
0
0
0
0
0
0
0
0
0
0
0
0
0
0
0
0
0
0
0
0
0
0
0
0
0
0
0
0
0
0
0
0
0
0
0
0
0
0
0
0
0
0
0
0
0
0
0
0
0
0
0
0
0
-3.95468e-205
-3.61949e-208
-3.10682e-211
-2.50064e-214
-1.88706e-217
-1.33491e-220
-8.85071e-224
-5.49916e-227
-3.20136e-230
-1.7459e-233
-8.91825e-237
-4.26617e-240
-1.91082e-243
-8.0121e-247
-3.14443e-250
-1.15485e-253
-3.96845e-257
-1.27568e-260
-3.83538e-264
-1.07829e-267
-2.83427e-271
-6.96364e-275
-1.59895e-278
-3.43046e-282
-6.87535e-286
-1.28699e-289
-2.24956e-293
-3.6709e-297
-5.59122e-301
-7.94699e-305
-1.05382e-308
-1.30346e-312
-1.50349e-316
-1.60423e-320
0
0
0
0
0
0
0
0
0
0
0
0
0
0
0
0
0
0
0
0
0
0
0
0
0
0
0
0
0
0
0
0
0
0
0
0
0
0
0
0
0
0
0
0
0
0
0
0
0
0
0
0
0
0
0
0
0
0
0
0
0
0
0
0
0
0
0
0
0
0
0
0
0
0
0
0
0
0
0
0
0
0
0
0
0
0
0
0
0
0
0
0
0
0
0
0
0
0
0
0
0
0
0
0
0
0
0
0
0
0
0
0
0
0
0
0
0
0
0
0
0
0
0
0
0
0
0
0
0
0
-1.57719e-205
-1.43909e-208
-1.23148e-211
-9.88185e-215
-7.43454e-218
-5.24332e-221
-3.46598e-224
-2.14705e-227
-1.24619e-230
-6.77604e-234
-3.45102e-237
-1.64598e-240
-7.35069e-244
-3.07315e-247
-1.20257e-250
-4.40387e-254
-1.50894e-257
-4.83659e-261
-1.44996e-264
-4.06483e-268
-1.06539e-271
-2.61018e-275
-5.9764e-279
-1.27859e-282
-2.55536e-286
-4.76996e-290
-8.31431e-294
-1.35299e-297
-2.05505e-301
-2.91286e-305
-3.852e-309
-4.75145e-313
-5.46561e-317
-5.73116e-321
0
0
0
0
0
0
0
0
0
0
0
0
0
0
0
0
0
0
0
0
0
0
0
0
0
0
0
0
0
0
0
0
0
0
0
0
0
0
0
0
0
0
0
0
0
0
0
0
0
0
0
0
0
0
0
0
0
0
0
0
0
0
0
0
0
0
0
0
0
0
0
0
0
0
0
0
0
0
0
0
0
0
0
0
0
0
0
0
0
0
0
0
0
0
0
0
0
0
0
0
0
0
0
0
0
0
0
0
0
0
0
0
0
0
0
0
0
0
0
0
0
0
0
0
0
0
0
0
0
0
-6.13772e-206
-5.58309e-209
-4.76306e-212
-3.81044e-215
-2.85808e-218
-2.00964e-221
-1.32444e-224
-8.17994e-228
-4.73368e-231
-2.56629e-234
-1.30316e-237
-6.19724e-241
-2.75952e-244
-1.15034e-247
-4.48844e-251
-1.63895e-254
-5.59956e-258
-1.7897e-261
-5.35009e-265
-1.4956e-268
-3.90889e-272
-9.54978e-276
-2.18045e-279
-4.65185e-283
-9.2713e-287
-1.72584e-290
-2.99995e-294
-4.86842e-298
-7.37444e-302
-1.04242e-305
-1.37476e-309
-1.69119e-313
-1.94015e-317
-1.90709e-321
0
0
0
0
0
0
0
0
0
0
0
0
0
0
0
0
0
0
0
0
0
0
0
0
0
0
0
0
0
0
0
0
0
0
0
0
0
0
0
0
0
0
0
0
0
0
0
0
0
0
0
0
0
0
0
0
0
0
0
0
0
0
0
0
0
0
0
0
0
0
0
0
0
0
0
0
0
0
0
0
0
0
0
0
0
0
0
0
0
0
0
0
0
0
0
0
0
0
0
0
0
0
0
0
0
0
0
0
0
0
0
0
0
0
0
0
0
0
0
0
0
0
0
0
0
0
0
0
0
0
-2.39724e-206
-2.17393e-209
-1.84897e-212
-1.47469e-215
-1.10278e-218
-7.73084e-222
-5.07978e-225
-3.12805e-228
-1.80484e-231
-9.75598e-235
-4.93962e-238
-2.34225e-241
-1.03995e-244
-4.32269e-248
-1.68183e-251
-6.12372e-255
-2.08628e-258
-6.6493e-262
-1.98216e-265
-5.5256e-269
-1.44016e-272
-3.50874e-276
-7.98931e-280
-1.6998e-283
-3.37853e-287
-6.27205e-291
-1.0873e-294
-1.75976e-298
-2.65846e-302
-3.74786e-306
-4.92965e-310
-6.04826e-314
-6.92031e-318
-5.63235e-322
0
0
0
0
0
0
0
0
0
0
0
0
0
0
0
0
0
0
0
0
0
0
0
0
0
0
0
0
0
0
0
0
0
0
0
0
0
0
0
0
0
0
0
0
0
0
0
0
0
0
0
0
0
0
0
0
0
0
0
0
0
0
0
0
0
0
0
0
0
0
0
0
0
0
0
0
0
0
0
0
0
0
0
0
0
0
0
0
0
0
0
0
0
0
0
0
0
0
0
0
0
0
0
0
0
0
0
0
0
0
0
0
0
0
0
0
0
0
0
0
0
0
0
0
0
0
0
0
0
0
-1.06396e-206
-9.6182e-210
-8.15502e-213
-6.48413e-216
-4.834e-219
-3.37847e-222
-2.21322e-225
-1.35877e-228
-7.81655e-232
-4.21267e-235
-2.12667e-238
-1.00546e-241
-4.45124e-245
-1.84487e-248
-7.15721e-252
-2.59857e-255
-8.82789e-259
-2.80563e-262
-8.34008e-266
-2.31843e-269
-6.02583e-273
-1.46404e-276
-3.32439e-280
-7.05355e-284
-1.39814e-287
-2.58851e-291
-4.4752e-295
-7.22348e-299
-1.08832e-302
-1.5302e-306
-2.00735e-310
-2.45632e-314
-2.80288e-318
-1.82804e-322
0
0
0
0
0
0
0
0
0
0
0
0
0
0
0
0
0
0
0
0
0
0
0
0
0
0
0
0
0
0
0
0
0
0
0
0
0
0
0
0
0
0
0
0
0
0
0
0
0
0
0
0
0
0
0
0
0
0
0
0
0
0
0
0
0
0
0
0
0
0
0
0
0
0
0
0
0
0
0
0
0
0
0
0
0
0
0
0
0
0
0
0
0
0
0
0
0
0
0
0
0
0
0
0
0
0
0
0
0
0
0
0
0
0
0
0
0
0
0
0
0
0
0
0
0
0
0
0
0
0
-8.85612e-207
-7.98206e-210
-6.74781e-213
-5.34957e-216
-3.97662e-219
-2.77128e-222
-1.81028e-225
-1.10826e-228
-6.35756e-232
-3.41682e-235
-1.72013e-238
-8.11021e-242
-3.58062e-245
-1.48e-248
-5.72617e-252
-2.07341e-255
-7.02497e-259
-2.22669e-262
-6.60157e-266
-1.83031e-269
-4.74464e-273
-1.14974e-276
-2.60392e-280
-5.51055e-284
-1.08947e-287
-2.01184e-291
-3.46929e-295
-5.58551e-299
-8.39393e-303
-1.17721e-306
-1.54038e-310
-1.88016e-314
-2.13945e-318
0
0
0
0
0
0
0
0
0
0
0
0
0
0
0
0
0
0
0
0
0
0
0
0
0
0
0
0
0
0
0
0
0
0
0
0
0
0
0
0
0
0
0
0
0
0
0
0
0
0
0
0
0
0
0
0
0
0
0
0
0
0
0
0
0
0
0
0
0
0
0
0
0
0
0
0
0
0
0
0
0
0
0
0
0
0
0
0
0
0
0
0
0
0
0
0
0
0
0
0
0
0
0
0
0
0
0
0
0
0
0
0
0
0
0
0
0
0
0
0
0
0
0
0
0
0
0
0
0
0
0
-2.96523e-207
-2.68381e-210
-2.27697e-213
-1.81062e-216
-1.34932e-219
-9.42247e-223
-6.16491e-226
-3.7787e-229
-2.16946e-232
-1.16652e-235
-5.87359e-239
-2.76897e-242
-1.222e-245
-5.04765e-249
-1.95121e-252
-7.05739e-256
-2.388e-259
-7.55784e-263
-2.23697e-266
-6.1907e-270
-1.60161e-273
-3.87287e-277
-8.75147e-281
-1.84765e-284
-3.64384e-288
-6.71143e-292
-1.15425e-295
-1.85318e-299
-2.77704e-303
-3.88329e-307
-5.06612e-311
-6.16473e-315
-6.98545e-319
0
0
0
0
0
0
0
0
0
0
0
0
0
0
0
0
0
0
0
0
0
0
0
0
0
0
0
0
0
0
0
0
0
0
0
0
0
0
0
0
0
0
0
0
0
0
0
0
0
0
0
0
0
0
0
0
0
0
0
0
0
0
0
0
0
0
0
0
0
0
0
0
0
0
0
0
0
0
0
0
0
0
0
0
0
0
0
0
0
0
0
0
0
0
0
0
0
0
0
0
0
0
0
0
0
0
0
0
0
0
0
0
0
0
0
0
0
0
0
0
0
0
0
0
0
0
0
0
0
0
0
-7.02481e-208
-6.3684e-211
-5.40981e-214
-4.3058e-217
-3.21074e-220
-2.2428e-223
-1.46746e-226
-8.99246e-230
-5.16034e-233
-2.77275e-236
-1.39482e-239
-6.56809e-243
-2.89477e-246
-1.19393e-249
-4.60755e-253
-1.66348e-256
-5.61759e-260
-1.77419e-263
-5.23951e-267
-1.4466e-270
-3.73335e-274
-9.00452e-278
-2.02934e-281
-4.27268e-285
-8.40259e-289
-1.54315e-292
-2.64608e-296
-4.2355e-300
-6.32741e-304
-8.82016e-308
-1.147e-311
-1.39121e-315
-1.56332e-319
0
0
0
0
0
0
0
0
0
0
0
0
0
0
0
0
0
0
0
0
0
0
0
0
0
0
0
0
0
0
0
0
0
0
0
0
0
0
0
0
0
0
0
0
0
0
0
0
0
0
0
0
0
0
0
0
0
0
0
0
0
0
0
0
0
0
0
0
0
0
0
0
0
0
0
0
0
0
0
0
0
0
0
0
0
0
0
0
0
0
0
0
0
0
0
0
0
0
0
0
0
0
0
0
0
0
0
0
0
0
0
0
0
0
0
0
0
0
0
0
0
0
0
0
0
0
0
0
0
0
0
-1.44547e-208
-1.30896e-211
-1.11055e-214
-8.82702e-218
-6.5722e-221
-4.5834e-224
-2.99364e-227
-1.83105e-230
-1.04867e-233
-5.6229e-237
-2.82237e-240
-1.32599e-243
-5.83019e-247
-2.3987e-250
-9.23337e-254
-3.32481e-257
-1.11977e-260
-3.52679e-264
-1.03859e-267
-2.85926e-271
-7.35749e-275
-1.76928e-278
-3.97536e-282
-8.34428e-286
-1.63589e-289
-2.99492e-293
-5.11918e-297
-8.16793e-301
-1.21628e-304
-1.68994e-308
-2.19048e-312
-2.64815e-316
-2.89671e-320
0
0
0
0
0
0
0
0
0
0
0
0
0
0
0
0
0
0
0
0
0
0
0
0
0
0
0
0
0
0
0
0
0
0
0
0
0
0
0
0
0
0
0
0
0
0
0
0
0
0
0
0
0
0
0
0
0
0
0
0
0
0
0
0
0
0
0
0
0
0
0
0
0
0
0
0
0
0
0
0
0
0
0
0
0
0
0
0
0
0
0
0
0
0
0
0
0
0
0
0
0
0
0
0
0
0
0
0
0
0
0
0
0
0
0
0
0
0
0
0
0
0
0
0
0
0
0
0
0
0
0
-2.83855e-209
-2.563e-212
-2.16816e-215
-1.71826e-218
-1.27556e-221
-8.86923e-225
-5.77558e-228
-3.52196e-231
-2.01095e-234
-1.07497e-237
-5.37911e-241
-2.51936e-244
-1.10427e-247
-4.52905e-251
-1.73788e-254
-6.23807e-258
-2.09426e-261
-6.57493e-265
-1.93003e-268
-5.29631e-272
-1.35846e-275
-3.25619e-279
-7.29259e-283
-1.52576e-286
-2.98153e-290
-5.44077e-294
-9.26966e-298
-1.47423e-301
-2.18814e-305
-3.03044e-309
-3.91531e-313
-4.71807e-317
-4.47623e-321
0
0
0
0
0
0
0
0
0
0
0
0
0
0
0
0
0
0
0
0
0
0
0
0
0
0
0
0
0
0
0
0
0
0
0
0
0
0
0
0
0
0
0
0
0
0
0
0
0
0
0
0
0
0
0
0
0
0
0
0
0
0
0
0
0
0
0
0
0
0
0
0
0
0
0
0
0
0
0
0
0
0
0
0
0
0
0
0
0
0
0
0
0
0
0
0
0
0
0
0
0
0
0
0
0
0
0
0
0
0
0
0
0
0
0
0
0
0
0
0
0
0
0
0
0
0
0
0
0
0
0
-5.55897e-210
-5.00021e-213
-4.21398e-216
-3.32711e-219
-2.46078e-222
-1.70476e-225
-1.1061e-228
-6.7207e-232
-3.82363e-235
-2.03668e-238
-1.01556e-241
-4.73978e-245
-2.07028e-248
-8.46159e-252
-3.23569e-255
-1.15746e-258
-3.87263e-262
-1.2117e-265
-3.54489e-269
-9.6952e-273
-2.47847e-276
-5.92115e-280
-1.32174e-283
-2.75631e-287
-5.36866e-291
-9.76517e-295
-1.65838e-298
-2.62903e-302
-3.88976e-306
-5.37007e-310
-6.91631e-314
-8.30869e-318
0
0
0
0
0
0
0
0
0
0
0
0
0
0
0
0
0
0
0
0
0
0
0
0
0
0
0
0
0
0
0
0
0
0
0
0
0
0
0
0
0
0
0
0
0
0
0
0
0
0
0
0
0
0
0
0
0
0
0
0
0
0
0
0
0
0
0
0
0
0
0
0
0
0
0
0
0
0
0
0
0
0
0
0
0
0
0
0
0
0
0
0
0
0
0
0
0
0
0
0
0
0
0
0
0
0
0
0
0
0
0
0
0
0
0
0
0
0
0
0
0
0
0
0
0
0
0
0
0
0
0
0
-1.10619e-210
-9.9089e-214
-8.31686e-217
-6.54018e-220
-4.81808e-223
-3.32481e-226
-2.14892e-229
-1.30073e-232
-7.37249e-236
-3.91244e-239
-1.94371e-242
-9.03875e-246
-3.93385e-249
-1.60213e-252
-6.10501e-256
-2.17628e-259
-7.25636e-263
-2.2627e-266
-6.59733e-270
-1.79834e-273
-4.58205e-277
-1.09109e-280
-2.42767e-284
-5.0463e-288
-9.79777e-292
-1.77652e-295
-3.00757e-299
-4.75313e-303
-7.01088e-307
-9.64954e-311
-1.23905e-314
-1.48347e-318
0
0
0
0
0
0
0
0
0
0
0
0
0
0
0
0
0
0
0
0
0
0
0
0
0
0
0
0
0
0
0
0
0
0
0
0
0
0
0
0
0
0
0
0
0
0
0
0
0
0
0
0
0
0
0
0
0
0
0
0
0
0
0
0
0
0
0
0
0
0
0
0
0
0
0
0
0
0
0
0
0
0
0
0
0
0
0
0
0
0
0
0
0
0
0
0
0
0
0
0
0
0
0
0
0
0
0
0
0
0
0
0
0
0
0
0
0
0
0
0
0
0
0
0
0
0
0
0
0
0
0
0
-2.25166e-211
-2.00858e-214
-1.67896e-217
-1.31497e-220
-9.64881e-224
-6.63232e-227
-4.27015e-230
-2.57488e-233
-1.45397e-236
-7.68744e-240
-3.80523e-243
-1.76317e-246
-7.64645e-250
-3.10325e-253
-1.17842e-256
-4.18643e-260
-1.39117e-263
-4.32353e-267
-1.25646e-270
-3.41377e-274
-8.6701e-278
-2.05797e-281
-4.56461e-285
-9.45876e-289
-1.83084e-292
-3.30957e-296
-5.5861e-300
-8.80193e-304
-1.29447e-307
-1.77647e-311
-2.2745e-315
-2.70536e-319
0
0
0
0
0
0
0
0
0
0
0
0
0
0
0
0
0
0
0
0
0
0
0
0
0
0
0
0
0
0
0
0
0
0
0
0
0
0
0
0
0
0
0
0
0
0
0
0
0
0
0
0
0
0
0
0
0
0
0
0
0
0
0
0
0
0
0
0
0
0
0
0
0
0
0
0
0
0
0
0
0
0
0
0
0
0
0
0
0
0
0
0
0
0
0
0
0
0
0
0
0
0
0
0
0
0
0
0
0
0
0
0
0
0
0
0
0
0
0
0
0
0
0
0
0
0
0
0
0
0
0
0
-4.69505e-212
-4.17113e-215
-3.47265e-218
-2.70908e-221
-1.98011e-224
-1.35587e-227
-8.69677e-231
-5.22467e-234
-2.93946e-237
-1.54856e-240
-7.63807e-244
-3.52675e-247
-1.52419e-250
-6.16477e-254
-2.33314e-257
-8.26121e-261
-2.73626e-264
-8.47644e-268
-2.45549e-271
-6.65056e-275
-1.68383e-278
-3.98456e-282
-8.81103e-286
-1.82036e-289
-3.51308e-293
-6.33197e-297
-1.06567e-300
-1.67437e-304
-2.45548e-308
-3.36041e-312
-4.29065e-316
-5.02662e-320
0
0
0
0
0
0
0
0
0
0
0
0
0
0
0
0
0
0
0
0
0
0
0
0
0
0
0
0
0
0
0
0
0
0
0
0
0
0
0
0
0
0
0
0
0
0
0
0
0
0
0
0
0
0
0
0
0
0
0
0
0
0
0
0
0
0
0
0
0
0
0
0
0
0
0
0
0
0
0
0
0
0
0
0
0
0
0
0
0
0
0
0
0
0
0
0
0
0
0
0
0
0
0
0
0
0
0
0
0
0
0
0
0
0
0
0
0
0
0
0
0
0
0
0
0
0
0
0
0
0
0
0
-1.0022e-212
-8.8685e-216
-7.35476e-219
-5.71566e-222
-4.16197e-225
-2.83934e-228
-1.81457e-231
-1.08621e-234
-6.08954e-238
-3.19692e-241
-1.57143e-244
-7.2313e-248
-3.11482e-251
-1.25569e-254
-4.73695e-258
-1.67192e-261
-5.52027e-265
-1.70477e-268
-4.92333e-272
-1.32943e-275
-3.3559e-279
-7.91793e-283
-1.74581e-286
-3.5965e-290
-6.92121e-294
-1.24399e-297
-2.08786e-301
-3.27149e-305
-4.7848e-309
-6.53076e-313
-8.3168e-317
-9.1501e-321
0
0
0
0
0
0
0
0
0
0
0
0
0
0
0
0
0
0
0
0
0
0
0
0
0
0
0
0
0
0
0
0
0
0
0
0
0
0
0
0
0
0
0
0
0
0
0
0
0
0
0
0
0
0
0
0
0
0
0
0
0
0
0
0
0
0
0
0
0
0
0
0
0
0
0
0
0
0
0
0
0
0
0
0
0
0
0
0
0
0
0
0
0
0
0
0
0
0
0
0
0
0
0
0
0
0
0
0
0
0
0
0
0
0
0
0
0
0
0
0
0
0
0
0
0
0
0
0
0
0
0
0
-2.18697e-213
-1.92789e-216
-1.59284e-219
-1.2333e-222
-8.94795e-226
-6.08263e-229
-3.87365e-232
-2.31078e-235
-1.29107e-238
-6.75523e-242
-3.30956e-245
-1.51803e-248
-6.51786e-252
-2.61929e-255
-9.8503e-259
-3.46605e-262
-1.14096e-265
-3.51303e-269
-1.01158e-272
-2.72365e-276
-6.85579e-280
-1.61302e-283
-3.54667e-287
-7.28649e-291
-1.39846e-294
-2.50686e-298
-4.19639e-302
-6.55839e-306
-9.56769e-310
-1.30261e-313
-1.65478e-317
-1.28951e-321
0
0
0
0
0
0
0
0
0
0
0
0
0
0
0
0
0
0
0
0
0
0
0
0
0
0
0
0
0
0
0
0
0
0
0
0
0
0
0
0
0
0
0
0
0
0
0
0
0
0
0
0
0
0
0
0
0
0
0
0
0
0
0
0
0
0
0
0
0
0
0
0
0
0
0
0
0
0
0
0
0
0
0
0
0
0
0
0
0
0
0
0
0
0
0
0
0
0
0
0
0
0
0
0
0
0
0
0
0
0
0
0
0
0
0
0
0
0
0
0
0
0
0
0
0
0
0
0
0
0
0
0
-4.87123e-214
-4.27845e-217
-3.52217e-220
-2.71749e-223
-1.96476e-226
-1.33104e-229
-8.44802e-233
-5.02288e-236
-2.79723e-239
-1.4589e-242
-7.12497e-246
-3.25793e-249
-1.39457e-252
-5.58741e-256
-2.09502e-259
-7.35032e-263
-2.41264e-266
-7.40761e-270
-2.1271e-273
-5.71146e-277
-1.43377e-280
-3.3644e-284
-7.37821e-288
-1.51192e-291
-2.89438e-295
-5.17548e-299
-8.64223e-303
-1.34739e-306
-1.96094e-310
-2.66348e-314
-3.37551e-318
0
0
0
0
0
0
0
0
0
0
0
0
0
0
0
0
0
0
0
0
0
0
0
0
0
0
0
0
0
0
0
0
0
0
0
0
0
0
0
0
0
0
0
0
0
0
0
0
0
0
0
0
0
0
0
0
0
0
0
0
0
0
0
0
0
0
0
0
0
0
0
0
0
0
0
0
0
0
0
0
0
0
0
0
0
0
0
0
0
0
0
0
0
0
0
0
0
0
0
0
0
0
0
0
0
0
0
0
0
0
0
0
0
0
0
0
0
0
0
0
0
0
0
0
0
0
0
0
0
0
0
0
0
-1.10595e-214
-9.67972e-218
-7.9413e-221
-6.10631e-224
-4.40025e-227
-2.97123e-230
-1.87978e-233
-1.11413e-236
-6.18532e-240
-3.21614e-243
-1.566e-246
-7.13954e-250
-3.04726e-253
-1.21743e-256
-4.55204e-260
-1.59268e-263
-5.21364e-267
-1.59651e-270
-4.57242e-274
-1.22459e-277
-3.06637e-281
-7.17752e-285
-1.57021e-288
-3.20992e-292
-6.13053e-296
-1.09367e-299
-1.82211e-303
-2.83446e-307
-4.11613e-311
-5.57875e-315
-7.04676e-319
0
0
0
0
0
0
0
0
0
0
0
0
0
0
0
0
0
0
0
0
0
0
0
0
0
0
0
0
0
0
0
0
0
0
0
0
0
0
0
0
0
0
0
0
0
0
0
0
0
0
0
0
0
0
0
0
0
0
0
0
0
0
0
0
0
0
0
0
0
0
0
0
0
0
0
0
0
0
0
0
0
0
0
0
0
0
0
0
0
0
0
0
0
0
0
0
0
0
0
0
0
0
0
0
0
0
0
0
0
0
0
0
0
0
0
0
0
0
0
0
0
0
0
0
0
0
0
0
0
0
0
0
0
-2.55656e-215
-2.23015e-218
-1.82366e-221
-1.39778e-224
-1.00408e-227
-6.75909e-231
-4.26326e-234
-2.51928e-237
-1.39456e-240
-7.23044e-244
-3.51075e-247
-1.59618e-250
-6.79431e-254
-2.70724e-257
-1.00962e-260
-3.52348e-264
-1.15052e-267
-3.51447e-271
-1.00413e-274
-2.68291e-278
-6.70251e-282
-1.56532e-285
-3.41682e-289
-6.96969e-293
-1.32829e-296
-2.36471e-300
-3.9317e-304
-6.10396e-308
-8.84676e-312
-1.19676e-315
-1.4986e-319
0
0
0
0
0
0
0
0
0
0
0
0
0
0
0
0
0
0
0
0
0
0
0
0
0
0
0
0
0
0
0
0
0
0
0
0
0
0
0
0
0
0
0
0
0
0
0
0
0
0
0
0
0
0
0
0
0
0
0
0
0
0
0
0
0
0
0
0
0
0
0
0
0
0
0
0
0
0
0
0
0
0
0
0
0
0
0
0
0
0
0
0
0
0
0
0
0
0
0
0
0
0
0
0
0
0
0
0
0
0
0
0
0
0
0
0
0
0
0
0
0
0
0
0
0
0
0
0
0
0
0
0
0
-6.01276e-216
-5.22871e-219
-4.26258e-222
-3.25733e-225
-2.33301e-228
-1.56597e-231
-9.84945e-235
-5.80427e-238
-3.2043e-241
-1.65696e-244
-8.02461e-248
-3.6392e-251
-1.54524e-254
-6.14222e-258
-2.28523e-261
-7.95682e-265
-2.59229e-268
-7.90117e-272
-2.25262e-275
-6.00615e-279
-1.49741e-282
-3.49015e-286
-7.60368e-290
-1.5481e-293
-2.94502e-297
-5.23365e-301
-8.68686e-305
-1.3464e-308
-1.94829e-312
-2.63152e-316
-3.22724e-320
0
0
0
0
0
0
0
0
0
0
0
0
0
0
0
0
0
0
0
0
0
0
0
0
0
0
0
0
0
0
0
0
0
0
0
0
0
0
0
0
0
0
0
0
0
0
0
0
0
0
0
0
0
0
0
0
0
0
0
0
0
0
0
0
0
0
0
0
0
0
0
0
0
0
0
0
0
0
0
0
0
0
0
0
0
0
0
0
0
0
0
0
0
0
0
0
0
0
0
0
0
0
0
0
0
0
0
0
0
0
0
0
0
0
0
0
0
0
0
0
0
0
0
0
0
0
0
0
0
0
0
0
0
-1.43834e-216
-1.24716e-219
-1.01385e-222
-7.72618e-226
-5.51885e-229
-3.69466e-232
-2.31787e-235
-1.36251e-238
-7.50355e-242
-3.87093e-245
-1.87036e-248
-8.46313e-252
-3.58568e-255
-1.42227e-258
-5.28073e-262
-1.83501e-265
-5.96688e-269
-1.81529e-272
-5.16609e-276
-1.37505e-279
-3.4225e-283
-7.96442e-287
-1.7325e-290
-3.52224e-294
-6.69128e-298
-1.18757e-301
-1.96873e-305
-3.04792e-309
-4.40576e-313
-5.94494e-317
-6.73411e-321
0
0
0
0
0
0
0
0
0
0
0
0
0
0
0
0
0
0
0
0
0
0
0
0
0
0
0
0
0
0
0
0
0
0
0
0
0
0
0
0
0
0
0
0
0
0
0
0
0
0
0
0
0
0
0
0
0
0
0
0
0
0
0
0
0
0
0
0
0
0
0
0
0
0
0
0
0
0
0
0
0
0
0
0
0
0
0
0
0
0
0
0
0
0
0
0
0
0
0
0
0
0
0
0
0
0
0
0
0
0
0
0
0
0
0
0
0
0
0
0
0
0
0
0
0
0
0
0
0
0
0
0
0
-3.5002e-217
-3.02708e-220
-2.45456e-223
-1.86593e-226
-1.32967e-229
-8.88106e-233
-5.55913e-236
-3.26075e-239
-1.792e-242
-9.22595e-246
-4.44916e-249
-2.00944e-252
-8.49851e-256
-3.36522e-259
-1.24744e-262
-4.3281e-266
-1.40531e-269
-4.26952e-273
-1.2135e-276
-3.22615e-280
-8.02113e-284
-1.86474e-287
-4.05279e-291
-8.2331e-295
-1.56303e-298
-2.77257e-302
-4.59439e-306
-7.1108e-310
-1.02771e-313
-1.38678e-317
-1.02272e-321
0
0
0
0
0
0
0
0
0
0
0
0
0
0
0
0
0
0
0
0
0
0
0
0
0
0
0
0
0
0
0
0
0
0
0
0
0
0
0
0
0
0
0
0
0
0
0
0
0
0
0
0
0
0
0
0
0
0
0
0
0
0
0
0
0
0
0
0
0
0
0
0
0
0
0
0
0
0
0
0
0
0
0
0
0
0
0
0
0
0
0
0
0
0
0
0
0
0
0
0
0
0
0
0
0
0
0
0
0
0
0
0
0
0
0
0
0
0
0
0
0
0
0
0
0
0
0
0
0
0
0
0
0
-8.67181e-218
-7.48285e-221
-6.05454e-224
-4.5931e-227
-3.26658e-230
-2.17768e-233
-1.36068e-236
-7.96758e-240
-4.37168e-243
-2.24733e-246
-1.08224e-249
-4.88151e-253
-2.06206e-256
-8.15647e-260
-3.02058e-263
-1.04713e-266
-3.39755e-270
-1.03161e-273
-2.9308e-277
-7.78934e-281
-1.93638e-284
-4.50174e-288
-9.78586e-292
-1.9887e-295
-3.7776e-299
-6.70599e-303
-1.11232e-306
-1.72362e-310
-2.49469e-314
-3.37129e-318
0
0
0
0
0
0
0
0
0
0
0
0
0
0
0
0
0
0
0
0
0
0
0
0
0
0
0
0
0
0
0
0
0
0
0
0
0
0
0
0
0
0
0
0
0
0
0
0
0
0
0
0
0
0
0
0
0
0
0
0
0
0
0
0
0
0
0
0
0
0
0
0
0
0
0
0
0
0
0
0
0
0
0
0
0
0
0
0
0
0
0
0
0
0
0
0
0
0
0
0
0
0
0
0
0
0
0
0
0
0
0
0
0
0
0
0
0
0
0
0
0
0
0
0
0
0
0
0
0
0
0
0
0
0
-2.19067e-218
-1.88703e-221
-1.52435e-224
-1.15465e-227
-8.20028e-231
-5.45977e-234
-3.4075e-237
-1.99326e-240
-1.0927e-243
-5.61307e-247
-2.70148e-250
-1.218e-253
-5.14377e-257
-2.03444e-260
-7.53487e-264
-2.61285e-267
-8.48197e-271
-2.57728e-274
-7.32897e-278
-1.95019e-281
-4.85509e-285
-1.13068e-288
-2.46281e-292
-5.01657e-296
-9.55428e-300
-1.70112e-303
-2.83103e-307
-4.4031e-311
-6.39885e-315
-8.68375e-319
0
0
0
0
0
0
0
0
0
0
0
0
0
0
0
0
0
0
0
0
0
0
0
0
0
0
0
0
0
0
0
0
0
0
0
0
0
0
0
0
0
0
0
0
0
0
0
0
0
0
0
0
0
0
0
0
0
0
0
0
0
0
0
0
0
0
0
0
0
0
0
0
0
0
0
0
0
0
0
0
0
0
0
0
0
0
0
0
0
0
0
0
0
0
0
0
0
0
0
0
0
0
0
0
0
0
0
0
0
0
0
0
0
0
0
0
0
0
0
0
0
0
0
0
0
0
0
0
0
0
0
0
0
0
-5.65787e-219
-4.8687e-222
-3.92958e-225
-2.97448e-228
-2.11138e-231
-1.40529e-234
-8.76933e-238
-5.13003e-241
-2.81307e-244
-1.44576e-247
-6.96339e-251
-3.14269e-254
-1.32889e-257
-5.26414e-261
-1.95329e-264
-6.78815e-268
-2.20917e-271
-6.73195e-275
-1.92058e-278
-5.12917e-282
-1.28211e-285
-2.99925e-289
-6.56512e-293
-1.34449e-296