/*--------------------------------*- C++ -*----------------------------------*\
| =========                 |                                                 |
| \\      /  F ield         | OpenFOAM: The Open Source CFD Toolbox           |
|  \\    /   O peration     | Version:  v1912                                 |
|   \\  /    A nd           | Website:  www.openfoam.com                      |
|    \\/     M anipulation  |                                                 |
\*---------------------------------------------------------------------------*/
FoamFile
{
    version     2.0;
    format      ascii;
    class       surfaceScalarField;
    location    "40";
    object      alphaPhi0.water;
}
// * * * * * * * * * * * * * * * * * * * * * * * * * * * * * * * * * * * * * //

dimensions      [0 3 -1 0 0 0 0];
oriented        oriented;


internalField   nonuniform List<scalar> 
28285
(
-4.59665e-208
-2.62454e-209
-4.018e-211
-2.30332e-212
-3.29391e-214
-1.89578e-215
-2.53211e-217
-1.46317e-218
-1.82498e-220
-1.05878e-221
-1.23301e-223
-7.18217e-225
-7.80817e-227
-4.5664e-228
-4.63374e-230
-2.72081e-231
-2.5766e-233
-1.51898e-234
-1.34223e-236
-7.94466e-238
-6.54936e-240
-3.89214e-241
-2.99291e-243
-1.78578e-244
-1.28067e-246
-7.67207e-248
-5.1305e-250
-3.08588e-251
-1.92391e-253
-1.16184e-254
-6.75215e-257
-4.094e-258
-2.21745e-260
-1.34989e-261
-6.81311e-264
-4.16424e-265
-1.95813e-267
-1.20163e-268
-5.26338e-271
-3.24291e-272
-1.32294e-274
-8.18357e-276
-3.10875e-278
-1.93075e-279
-6.82853e-282
-4.25793e-283
-1.40179e-285
-8.77579e-287
-2.68892e-289
-1.69006e-290
-4.8187e-293
-3.04073e-294
-8.06603e-297
-5.11e-298
-1.26092e-300
-8.01973e-302
-1.84048e-304
-1.17518e-305
-2.50792e-308
-1.60763e-309
-3.18972e-312
-2.05262e-313
-3.78588e-316
-2.4457e-317
-4.19264e-320
-2.71736e-321
-4.94066e-324
0
0
0
0
0
0
0
0
0
0
0
0
0
0
0
0
0
0
0
0
0
0
0
0
0
0
0
0
0
0
0
0
0
0
0
0
0
0
0
0
0
0
0
0
0
0
0
0
0
0
0
0
0
0
0
0
0
0
0
0
0
0
0
0
0
0
0
0
0
0
0
0
0
0
0
0
0
0
0
0
0
0
0
0
0
0
0
0
0
0
0
0
0
0
0
0
0
0
0
0
0
0
0
0
0
0
0
0
0
0
0
0
0
0
0
0
0
0
0
0
0
0
0
0
0
0
0
0
0
0
0
0
0
0
0
0
0
0
0
0
0
0
0
0
0
0
0
0
0
0
0
0
0
0
0
0
0
0
0
0
0
0
0
0
0
0
0
0
0
0
0
0
0
0
0
0
0
0
0
0
0
0
0
0
0
0
0
0
0
0
0
0
0
0
0
0
0
0
0
0
0
0
0
0
0
0
0
0
0
0
0
0
0
0
0
0
0
0
0
0
0
0
0
0
0
0
0
0
0
0
0
0
0
0
0
0
0
0
0
0
0
0
0
0
0
0
0
0
0
0
0
0
0
0
0
0
0
0
0
0
-3.17208e-208
-3.62568e-209
-2.78025e-211
-3.19053e-212
-2.28538e-214
-2.63312e-215
-1.76157e-217
-2.03775e-218
-1.27306e-220
-1.47854e-221
-8.62444e-224
-1.00568e-224
-5.47625e-227
-6.41135e-228
-3.25864e-230
-3.83041e-231
-1.81686e-233
-2.14423e-234
-9.49003e-237
-1.12451e-237
-4.64307e-240
-5.52385e-241
-2.12746e-243
-2.54123e-244
-9.12776e-247
-1.09469e-247
-3.66641e-250
-4.41484e-251
-1.37854e-253
-1.66662e-254
-4.85088e-257
-5.88824e-258
-1.59725e-260
-1.94662e-261
-4.9204e-264
-6.02081e-265
-1.41784e-267
-1.74189e-268
-3.82096e-271
-4.71316e-272
-9.62859e-275
-1.19245e-275
-2.26839e-278
-2.82056e-279
-4.99528e-282
-6.23606e-283
-1.02804e-285
-1.28853e-286
-1.9769e-289
-2.4877e-290
-3.55148e-293
-4.48693e-294
-5.95939e-297
-7.55891e-298
-9.33857e-301
-1.1892e-301
-1.36636e-304
-1.74681e-305
-1.86627e-308
-2.39529e-309
-2.37919e-312
-3.06551e-313
-2.83038e-316
-3.66105e-317
-3.14176e-320
-4.08098e-321
-4.94066e-324
0
0
0
0
0
0
0
0
0
0
0
0
0
0
0
0
0
0
0
0
0
0
0
0
0
0
0
0
0
0
0
0
0
0
0
0
0
0
0
0
0
0
0
0
0
0
0
0
0
0
0
0
0
0
0
0
0
0
0
0
0
0
0
0
0
0
0
0
0
0
0
0
0
0
0
0
0
0
0
0
0
0
0
0
0
0
0
0
0
0
0
0
0
0
0
0
0
0
0
0
0
0
0
0
0
0
0
0
0
0
0
0
0
0
0
0
0
0
0
0
0
0
0
0
0
0
0
0
0
0
0
0
0
0
0
0
0
0
0
0
0
0
0
0
0
0
0
0
0
0
0
0
0
0
0
0
0
0
0
0
0
0
0
0
0
0
0
0
0
0
0
0
0
0
0
0
0
0
0
0
0
0
0
0
0
0
0
0
0
0
0
0
0
0
0
0
0
0
0
0
0
0
0
0
0
0
0
0
0
0
0
0
0
0
0
0
0
0
0
0
0
0
0
0
0
0
0
0
0
0
0
0
0
0
0
0
0
0
0
0
0
0
0
0
0
0
0
0
0
0
0
0
0
0
0
0
0
0
0
0
-2.08689e-208
-3.57943e-209
-1.82802e-211
-3.14798e-212
-1.50174e-214
-2.59645e-215
-1.15683e-217
-2.00815e-218
-8.35501e-221
-1.45617e-221
-5.65659e-224
-9.89835e-225
-3.58944e-227
-6.30632e-228
-2.13448e-230
-3.76521e-231
-1.18928e-233
-2.10633e-234
-6.20774e-237
-1.10388e-237
-3.03505e-240
-5.41877e-241
-1.38967e-243
-2.49113e-244
-5.95795e-247
-1.07233e-247
-2.39138e-250
-4.32147e-251
-8.98446e-254
-1.63014e-254
-3.15903e-257
-5.7549e-258
-1.03934e-260
-1.90103e-261
-3.19909e-264
-5.87504e-265
-9.21055e-268
-1.69831e-268
-2.48002e-271
-4.59131e-272
-6.24394e-275
-1.16061e-275
-1.46966e-278
-2.74278e-279
-3.23333e-282
-6.0585e-283
-6.64783e-286
-1.25066e-286
-1.2771e-289
-2.41223e-290
-2.29195e-293
-4.34645e-294
-3.84183e-297
-7.31469e-298
-6.01375e-301
-1.14956e-301
-8.78907e-305
-1.68673e-305
-1.19908e-308
-2.31029e-309
-1.52681e-312
-2.95329e-313
-1.81411e-316
-3.52278e-317
-2.01085e-320
-3.91794e-321
0
0
0
0
0
0
0
0
0
0
0
0
0
0
0
0
0
0
0
0
0
0
0
0
0
0
0
0
0
0
0
0
0
0
0
0
0
0
0
0
0
0
0
0
0
0
0
0
0
0
0
0
0
0
0
0
0
0
0
0
0
0
0
0
0
0
0
0
0
0
0
0
0
0
0
0
0
0
0
0
0
0
0
0
0
0
0
0
0
0
0
0
0
0
0
0
0
0
0
0
0
0
0
0
0
0
0
0
0
0
0
0
0
0
0
0
0
0
0
0
0
0
0
0
0
0
0
0
0
0
0
0
0
0
0
0
0
0
0
0
0
0
0
0
0
0
0
0
0
0
0
0
0
0
0
0
0
0
0
0
0
0
0
0
0
0
0
0
0
0
0
0
0
0
0
0
0
0
0
0
0
0
0
0
0
0
0
0
0
0
0
0
0
0
0
0
0
0
0
0
0
0
0
0
0
0
0
0
0
0
0
0
0
0
0
0
0
0
0
0
0
0
0
0
0
0
0
0
0
0
0
0
0
0
0
0
0
0
0
0
0
0
0
0
0
0
0
0
0
0
0
0
0
0
0
0
0
0
0
0
0
-1.59815e-208
-3.65574e-209
-1.39519e-211
-3.20427e-212
-1.14231e-214
-2.63402e-215
-8.77011e-218
-2.03041e-218
-6.31292e-221
-1.46741e-221
-4.25983e-224
-9.94173e-225
-2.69416e-227
-6.31305e-228
-1.59681e-230
-3.75683e-231
-8.8678e-234
-2.09475e-234
-4.61357e-237
-1.09423e-237
-2.24826e-240
-5.35389e-241
-1.02606e-243
-2.45331e-244
-4.38474e-247
-1.05263e-247
-1.75422e-250
-4.22838e-251
-6.56928e-254
-1.58988e-254
-2.30236e-257
-5.59473e-258
-7.55042e-261
-1.84219e-261
-2.31652e-264
-5.67493e-265
-6.64802e-268
-1.63521e-268
-1.78427e-271
-4.40657e-272
-4.47775e-275
-1.11034e-275
-1.05054e-278
-2.61558e-279
-2.30378e-282
-5.75903e-283
-4.72129e-286
-1.18502e-286
-9.04051e-290
-2.27828e-290
-1.61717e-293
-4.09186e-294
-2.70188e-297
-6.86397e-298
-4.21545e-301
-1.07522e-301
-6.1405e-305
-1.5725e-305
-8.34957e-309
-2.14677e-309
-1.0596e-312
-2.73519e-313
-1.25473e-316
-3.25176e-317
-1.38635e-320
-3.60668e-321
0
0
0
0
0
0
0
0
0
0
0
0
0
0
0
0
0
0
0
0
0
0
0
0
0
0
0
0
0
0
0
0
0
0
0
0
0
0
0
0
0
0
0
0
0
0
0
0
0
0
0
0
0
0
0
0
0
0
0
0
0
0
0
0
0
0
0
0
0
0
0
0
0
0
0
0
0
0
0
0
0
0
0
0
0
0
0
0
0
0
0
0
0
0
0
0
0
0
0
0
0
0
0
0
0
0
0
0
0
0
0
0
0
0
0
0
0
0
0
0
0
0
0
0
0
0
0
0
0
0
0
0
0
0
0
0
0
0
0
0
0
0
0
0
0
0
0
0
0
0
0
0
0
0
0
0
0
0
0
0
0
0
0
0
0
0
0
0
0
0
0
0
0
0
0
0
0
0
0
0
0
0
0
0
0
0
0
0
0
0
0
0
0
0
0
0
0
0
0
0
0
0
0
0
0
0
0
0
0
0
0
0
0
0
0
0
0
0
0
0
0
0
0
0
0
0
0
0
0
0
0
0
0
0
0
0
0
0
0
0
0
0
0
0
0
0
0
0
0
0
0
0
0
0
0
0
0
0
0
0
0
-1.23407e-208
-3.52942e-209
-1.07658e-211
-3.09138e-212
-8.80842e-215
-2.53951e-215
-6.75825e-218
-1.9563e-218
-4.86169e-221
-1.41298e-221
-3.2786e-224
-9.56735e-225
-2.07238e-227
-6.07192e-228
-1.22762e-230
-3.6114e-231
-6.81389e-234
-2.01263e-234
-3.54321e-237
-1.05082e-237
-1.72582e-240
-5.13909e-241
-7.87261e-244
-2.35383e-244
-3.36273e-247
-1.00951e-247
-1.34475e-250
-4.05348e-251
-5.03375e-254
-1.52351e-254
-1.76346e-257
-5.35907e-258
-5.7808e-261
-1.76392e-261
-1.77288e-264
-5.43179e-265
-5.08582e-268
-1.56457e-268
-1.36444e-271
-4.21466e-272
-3.4228e-275
-1.0616e-275
-8.02709e-279
-2.49983e-279
-1.75957e-282
-5.5021e-283
-3.60446e-286
-1.13171e-286
-6.89892e-290
-2.17493e-290
-1.23351e-293
-3.90463e-294
-2.05989e-297
-6.54705e-298
-3.21218e-301
-1.0251e-301
-4.67654e-305
-1.49849e-305
-6.35526e-309
-2.04466e-309
-8.06011e-313
-2.60365e-313
-9.53811e-317
-3.09353e-317
-1.05285e-320
-3.42882e-321
0
0
0
0
0
0
0
0
0
0
0
0
0
0
0
0
0
0
0
0
0
0
0
0
0
0
0
0
0
0
0
0
0
0
0
0
0
0
0
0
0
0
0
0
0
0
0
0
0
0
0
0
0
0
0
0
0
0
0
0
0
0
0
0
0
0
0
0
0
0
0
0
0
0
0
0
0
0
0
0
0
0
0
0
0
0
0
0
0
0
0
0
0
0
0
0
0
0
0
0
0
0
0
0
0
0
0
0
0
0
0
0
0
0
0
0
0
0
0
0
0
0
0
0
0
0
0
0
0
0
0
0
0
0
0
0
0
0
0
0
0
0
0
0
0
0
0
0
0
0
0
0
0
0
0
0
0
0
0
0
0
0
0
0
0
0
0
0
0
0
0
0
0
0
0
0
0
0
0
0
0
0
0
0
0
0
0
0
0
0
0
0
0
0
0
0
0
0
0
0
0
0
0
0
0
0
0
0
0
0
0
0
0
0
0
0
0
0
0
0
0
0
0
0
0
0
0
0
0
0
0
0
0
0
0
0
0
0
0
0
0
0
0
0
0
0
0
0
0
0
0
0
0
0
0
0
0
0
0
0
0
-1.12952e-208
-3.87747e-209
-9.87616e-212
-3.40401e-212
-8.09879e-215
-2.80268e-215
-6.22765e-218
-2.16388e-218
-4.48987e-221
-1.56638e-221
-3.03445e-224
-1.06293e-224
-1.92217e-227
-6.76047e-228
-1.14104e-230
-4.02951e-231
-6.34654e-234
-2.25036e-234
-3.30693e-237
-1.17736e-237
-1.61397e-240
-5.76964e-241
-7.37683e-244
-2.64789e-244
-3.15702e-247
-1.13784e-247
-1.26485e-250
-4.57745e-251
-4.74333e-254
-1.72363e-254
-1.66467e-257
-6.07399e-258
-5.46637e-261
-2.00274e-261
-1.67924e-264
-6.17772e-265
-4.82497e-268
-1.78235e-268
-1.29646e-271
-4.80895e-272
-3.25708e-275
-1.21313e-275
-7.64924e-279
-2.86082e-279
-1.67899e-282
-6.30535e-283
-3.44374e-286
-1.29864e-286
-6.59909e-290
-2.49881e-290
-1.1812e-293
-4.49125e-294
-1.97452e-297
-7.53872e-298
-3.08187e-301
-1.18153e-301
-4.49047e-305
-1.72867e-305
-6.10674e-309
-2.3606e-309
-7.74958e-313
-3.008e-313
-9.17507e-317
-3.57599e-317
-1.01333e-320
-3.96735e-321
0
0
0
0
0
0
0
0
0
0
0
0
0
0
0
0
0
0
0
0
0
0
0
0
0
0
0
0
0
0
0
0
0
0
0
0
0
0
0
0
0
0
0
0
0
0
0
0
0
0
0
0
0
0
0
0
0
0
0
0
0
0
0
0
0
0
0
0
0
0
0
0
0
0
0
0
0
0
0
0
0
0
0
0
0
0
0
0
0
0
0
0
0
0
0
0
0
0
0
0
0
0
0
0
0
0
0
0
0
0
0
0
0
0
0
0
0
0
0
0
0
0
0
0
0
0
0
0
0
0
0
0
0
0
0
0
0
0
0
0
0
0
0
0
0
0
0
0
0
0
0
0
0
0
0
0
0
0
0
0
0
0
0
0
0
0
0
0
0
0
0
0
0
0
0
0
0
0
0
0
0
0
0
0
0
0
0
0
0
0
0
0
0
0
0
0
0
0
0
0
0
0
0
0
0
0
0
0
0
0
0
0
0
0
0
0
0
0
0
0
0
0
0
0
0
0
0
0
0
0
0
0
0
0
0
0
0
0
0
0
0
0
0
0
0
0
0
0
0
0
0
0
0
0
0
0
0
0
0
0
0
-1.13599e-208
-4.55086e-209
-9.94754e-212
-4.0012e-212
-8.16907e-215
-3.29916e-215
-6.29038e-218
-2.55076e-218
-4.54111e-221
-1.84892e-221
-3.07297e-224
-1.25627e-224
-1.94893e-227
-7.99997e-228
-1.15826e-230
-4.77387e-231
-6.4493e-234
-2.66902e-234
-3.36392e-237
-1.39786e-237
-1.64335e-240
-6.85693e-241
-7.51785e-244
-3.14977e-244
-3.22002e-247
-1.35466e-247
-1.29107e-250
-5.45395e-251
-4.84495e-254
-2.05514e-254
-1.70137e-257
-7.24685e-258
-5.58984e-261
-2.39082e-261
-1.71795e-264
-7.37839e-265
-4.93803e-268
-2.12964e-268
-1.32722e-271
-5.74784e-272
-3.33504e-275
-1.45033e-275
-7.8332e-279
-3.42074e-279
-1.7194e-282
-7.53996e-283
-3.52636e-286
-1.55288e-286
-6.75622e-290
-2.98765e-290
-1.20899e-293
-5.3687e-294
-2.02019e-297
-9.00863e-298
-3.15156e-301
-1.4113e-301
-4.58919e-305
-2.06372e-305
-6.23638e-309
-2.81626e-309
-7.90723e-313
-3.5858e-313
-9.35234e-317
-4.25901e-317
-1.03161e-320
-4.71833e-321
0
0
0
0
0
0
0
0
0
0
0
0
0
0
0
0
0
0
0
0
0
0
0
0
0
0
0
0
0
0
0
0
0
0
0
0
0
0
0
0
0
0
0
0
0
0
0
0
0
0
0
0
0
0
0
0
0
0
0
0
0
0
0
0
0
0
0
0
0
0
0
0
0
0
0
0
0
0
0
0
0
0
0
0
0
0
0
0
0
0
0
0
0
0
0
0
0
0
0
0
0
0
0
0
0
0
0
0
0
0
0
0
0
0
0
0
0
0
0
0
0
0
0
0
0
0
0
0
0
0
0
0
0
0
0
0
0
0
0
0
0
0
0
0
0
0
0
0
0
0
0
0
0
0
0
0
0
0
0
0
0
0
0
0
0
0
0
0
0
0
0
0
0
0
0
0
0
0
0
0
0
0
0
0
0
0
0
0
0
0
0
0
0
0
0
0
0
0
0
0
0
0
0
0
0
0
0
0
0
0
0
0
0
0
0
0
0
0
0
0
0
0
0
0
0
0
0
0
0
0
0
0
0
0
0
0
0
0
0
0
0
0
0
0
0
0
0
0
0
0
0
0
0
0
0
0
0
0
0
0
0
-1.11852e-208
-5.12239e-209
-9.80095e-212
-4.50668e-212
-8.05351e-215
-3.71823e-215
-6.20482e-218
-2.87639e-218
-4.48159e-221
-2.08603e-221
-3.03405e-224
-1.41803e-224
-1.92501e-227
-9.03384e-228
-1.14444e-230
-5.39277e-231
-6.37418e-234
-3.01597e-234
-3.32551e-237
-1.57998e-237
-1.62488e-240
-7.7518e-241
-7.43424e-244
-3.56134e-244
-3.18441e-247
-1.5318e-247
-1.27679e-250
-6.16731e-251
-4.79107e-254
-2.32387e-254
-1.68224e-257
-8.19364e-258
-5.52593e-261
-2.70274e-261
-1.69787e-264
-8.33917e-265
-4.87871e-268
-2.40625e-268
-1.31076e-271
-6.49206e-272
-3.2921e-275
-1.63741e-275
-7.7281e-279
-3.86002e-279
-1.69526e-282
-8.50325e-283
-3.47437e-286
-1.75011e-286
-6.65131e-290
-3.36461e-290
-1.18916e-293
-6.04105e-294
-1.9851e-297
-1.01275e-297
-3.0935e-301
-1.58497e-301
-4.49934e-305
-2.3151e-305
-6.10642e-309
-3.15548e-309
-7.73164e-313
-4.01242e-313
-9.13084e-317
-4.75892e-317
-1.00542e-320
-5.2618e-321
0
0
0
0
0
0
0
0
0
0
0
0
0
0
0
0
0
0
0
0
0
0
0
0
0
0
0
0
0
0
0
0
0
0
0
0
0
0
0
0
0
0
0
0
0
0
0
0
0
0
0
0
0
0
0
0
0
0
0
0
0
0
0
0
0
0
0
0
0
0
0
0
0
0
0
0
0
0
0
0
0
0
0
0
0
0
0
0
0
0
0
0
0
0
0
0
0
0
0
0
0
0
0
0
0
0
0
0
0
0
0
0
0
0
0
0
0
0
0
0
0
0
0
0
0
0
0
0
0
0
0
0
0
0
0
0
0
0
0
0
0
0
0
0
0
0
0
0
0
0
0
0
0
0
0
0
0
0
0
0
0
0
0
0
0
0
0
0
0
0
0
0
0
0
0
0
0
0
0
0
0
0
0
0
0
0
0
0
0
0
0
0
0
0
0
0
0
0
0
0
0
0
0
0
0
0
0
0
0
0
0
0
0
0
0
0
0
0
0
0
0
0
0
0
0
0
0
0
0
0
0
0
0
0
0
0
0
0
0
0
0
0
0
0
0
0
0
0
0
0
0
0
0
0
0
0
0
0
0
0
0
-1.04312e-208
-5.37549e-209
-9.14328e-212
-4.731e-212
-7.51531e-215
-3.9045e-215
-5.79163e-218
-3.02129e-218
-4.18403e-221
-2.1916e-221
-2.83308e-224
-1.49007e-224
-1.79773e-227
-9.49408e-228
-1.06885e-230
-5.66806e-231
-5.95342e-234
-3.1701e-234
-3.10597e-237
-1.66074e-237
-1.51753e-240
-8.14774e-241
-6.94239e-244
-3.74294e-244
-2.97329e-247
-1.6097e-247
-1.19191e-250
-6.47984e-251
-4.47146e-254
-2.44109e-254
-1.56955e-257
-8.60462e-258
-5.15399e-261
-2.8374e-261
-1.58296e-264
-8.75137e-265
-4.54643e-268
-2.52411e-268
-1.22086e-271
-6.80677e-272
-3.06456e-275
-1.71586e-275
-7.18942e-279
-4.04256e-279
-1.576e-282
-8.89953e-283
-3.2275e-286
-1.83035e-286
-6.1736e-290
-3.51612e-290
-1.10276e-293
-6.30772e-294
-1.8391e-297
-1.05648e-297
-2.86297e-301
-1.65177e-301
-4.15936e-305
-2.41009e-305
-5.63818e-309
-3.28118e-309
-7.12953e-313
-4.16712e-313
-8.40808e-317
-4.93587e-317
-9.24397e-321
-5.44954e-321
0
0
0
0
0
0
0
0
0
0
0
0
0
0
0
0
0
0
0
0
0
0
0
0
0
0
0
0
0
0
0
0
0
0
0
0
0
0
0
0
0
0
0
0
0
0
0
0
0
0
0
0
0
0
0
0
0
0
0
0
0
0
0
0
0
0
0
0
0
0
0
0
0
0
0
0
0
0
0
0
0
0
0
0
0
0
0
0
0
0
0
0
0
0
0
0
0
0
0
0
0
0
0
0
0
0
0
0
0
0
0
0
0
0
0
0
0
0
0
0
0
0
0
0
0
0
0
0
0
0
0
0
0
0
0
0
0
0
0
0
0
0
0
0
0
0
0
0
0
0
0
0
0
0
0
0
0
0
0
0
0
0
0
0
0
0
0
0
0
0
0
0
0
0
0
0
0
0
0
0
0
0
0
0
0
0
0
0
0
0
0
0
0
0
0
0
0
0
0
0
0
0
0
0
0
0
0
0
0
0
0
0
0
0
0
0
0
0
0
0
0
0
0
0
0
0
0
0
0
0
0
0
0
0
0
0
0
0
0
0
0
0
0
0
0
0
0
0
0
0
0
0
0
0
0
0
0
0
0
0
0
-9.19096e-209
-5.26372e-209
-8.05659e-212
-4.6329e-212
-6.6222e-215
-3.82362e-215
-5.10325e-218
-2.95867e-218
-3.68651e-221
-2.14607e-221
-2.49597e-224
-1.459e-224
-1.58361e-227
-9.29499e-228
-9.41392e-231
-5.54836e-231
-5.24243e-234
-3.10256e-234
-2.7344e-237
-1.62499e-237
-1.33562e-240
-7.9703e-241
-6.10829e-244
-3.66035e-244
-2.61515e-247
-1.57366e-247
-1.04794e-250
-6.3324e-251
-3.92968e-254
-2.38457e-254
-1.37874e-257
-8.40166e-258
-4.52513e-261
-2.76913e-261
-1.38906e-264
-8.53632e-265
-3.98719e-268
-2.46069e-268
-1.07001e-271
-6.63174e-272
-2.6841e-275
-1.67066e-275
-6.29233e-279
-3.93332e-279
-1.37829e-282
-8.65265e-283
-2.82031e-286
-1.77818e-286
-5.39006e-290
-3.41305e-290
-9.61917e-294
-6.11741e-294
-1.60265e-297
-1.02365e-297
-2.49233e-301
-1.59885e-301
-3.61695e-305
-2.33045e-305
-4.8973e-309
-3.16925e-309
-6.18517e-313
-4.02027e-313
-7.28503e-317
-4.75607e-317
-7.99892e-321
-5.24698e-321
0
0
0
0
0
0
0
0
0
0
0
0
0
0
0
0
0
0
0
0
0
0
0
0
0
0
0
0
0
0
0
0
0
0
0
0
0
0
0
0
0
0
0
0
0
0
0
0
0
0
0
0
0
0
0
0
0
0
0
0
0
0
0
0
0
0
0
0
0
0
0
0
0
0
0
0
0
0
0
0
0
0
0
0
0
0
0
0
0
0
0
0
0
0
0
0
0
0
0
0
0
0
0
0
0
0
0
0
0
0
0
0
0
0
0
0
0
0
0
0
0
0
0
0
0
0
0
0
0
0
0
0
0
0
0
0
0
0
0
0
0
0
0
0
0
0
0
0
0
0
0
0
0
0
0
0
0
0
0
0
0
0
0
0
0
0
0
0
0
0
0
0
0
0
0
0
0
0
0
0
0
0
0
0
0
0
0
0
0
0
0
0
0
0
0
0
0
0
0
0
0
0
0
0
0
0
0
0
0
0
0
0
0
0
0
0
0
0
0
0
0
0
0
0
0
0
0
0
0
0
0
0
0
0
0
0
0
0
0
0
0
0
0
0
0
0
0
0
0
0
0
0
0
0
0
0
0
0
0
0
0
-7.6463e-209
-4.81782e-209
-6.70019e-212
-4.23895e-212
-5.50518e-215
-3.49716e-215
-4.24069e-218
-2.70496e-218
-3.06206e-221
-1.96119e-221
-2.07221e-224
-1.33268e-224
-1.31409e-227
-8.48612e-228
-7.80762e-231
-5.06289e-231
-4.3455e-234
-2.82955e-234
-2.26525e-237
-1.48115e-237
-1.10579e-240
-7.2604e-241
-5.05395e-244
-3.33223e-244
-2.16231e-247
-1.43165e-247
-8.65873e-251
-5.75703e-251
-3.24461e-254
-2.16636e-254
-1.13752e-257
-7.62717e-258
-3.73052e-261
-2.51193e-261
-1.14421e-264
-7.73728e-265
-3.28161e-268
-2.22851e-268
-8.7989e-272
-6.00085e-272
-2.20519e-275
-1.51038e-275
-5.16478e-279
-3.55271e-279
-1.13021e-282
-7.80793e-283
-2.31037e-286
-1.60301e-286
-4.41089e-290
-3.07369e-290
-7.86328e-294
-5.50336e-294
-1.30865e-297
-9.19896e-298
-2.03277e-301
-1.43518e-301
-2.94651e-305
-2.08945e-305
-3.98462e-309
-2.83809e-309
-5.02606e-313
-3.59571e-313
-5.91198e-317
-4.24832e-317
-6.48214e-321
-4.6788e-321
0
0
0
0
0
0
0
0
0
0
0
0
0
0
0
0
0
0
0
0
0
0
0
0
0
0
0
0
0
0
0
0
0
0
0
0
0
0
0
0
0
0
0
0
0
0
0
0
0
0
0
0
0
0
0
0
0
0
0
0
0
0
0
0
0
0
0
0
0
0
0
0
0
0
0
0
0
0
0
0
0
0
0
0
0
0
0
0
0
0
0
0
0
0
0
0
0
0
0
0
0
0
0
0
0
0
0
0
0
0
0
0
0
0
0
0
0
0
0
0
0
0
0
0
0
0
0
0
0
0
0
0
0
0
0
0
0
0
0
0
0
0
0
0
0
0
0
0
0
0
0
0
0
0
0
0
0
0
0
0
0
0
0
0
0
0
0
0
0
0
0
0
0
0
0
0
0
0
0
0
0
0
0
0
0
0
0
0
0
0
0
0
0
0
0
0
0
0
0
0
0
0
0
0
0
0
0
0
0
0
0
0
0
0
0
0
0
0
0
0
0
0
0
0
0
0
0
0
0
0
0
0
0
0
0
0
0
0
0
0
0
0
0
0
0
0
0
0
0
0
0
0
0
0
0
0
0
0
0
0
0
-5.99812e-209
-4.1235e-209
-5.2517e-212
-3.62513e-212
-4.31145e-215
-2.98829e-215
-3.31832e-218
-2.3094e-218
-2.39396e-221
-1.67294e-221
-1.61863e-224
-1.1358e-224
-1.02552e-227
-7.22584e-228
-6.08738e-231
-4.30699e-231
-3.38483e-234
-2.40481e-234
-1.76275e-237
-1.2576e-237
-8.59634e-241
-6.15848e-241
-3.92494e-244
-2.82365e-244
-1.67754e-247
-1.2119e-247
-6.71045e-251
-4.86826e-251
-2.51185e-254
-1.82997e-254
-8.79668e-258
-6.43586e-258
-2.88167e-261
-2.11724e-261
-8.82857e-265
-6.51426e-265
-2.52914e-268
-1.87412e-268
-6.77339e-272
-5.04069e-272
-1.69554e-275
-1.26722e-275
-3.96632e-279
-2.97717e-279
-8.66883e-283
-6.53506e-283
-1.76985e-286
-1.34002e-286
-3.37465e-290
-2.56618e-290
-6.00817e-294
-4.58877e-294
-9.98589e-298
-7.66019e-298
-1.54906e-301
-1.19352e-301
-2.2423e-305
-1.73527e-305
-3.02807e-309
-2.35376e-309
-3.81408e-313
-2.97791e-313
-4.47987e-317
-3.51336e-317
-4.90607e-321
-3.86359e-321
0
0
0
0
0
0
0
0
0
0
0
0
0
0
0
0
0
0
0
0
0
0
0
0
0
0
0
0
0
0
0
0
0
0
0
0
0
0
0
0
0
0
0
0
0
0
0
0
0
0
0
0
0
0
0
0
0
0
0
0
0
0
0
0
0
0
0
0
0
0
0
0
0
0
0
0
0
0
0
0
0
0
0
0
0
0
0
0
0
0
0
0
0
0
0
0
0
0
0
0
0
0
0
0
0
0
0
0
0
0
0
0
0
0
0
0
0
0
0
0
0
0
0
0
0
0
0
0
0
0
0
0
0
0
0
0
0
0
0
0
0
0
0
0
0
0
0
0
0
0
0
0
0
0
0
0
0
0
0
0
0
0
0
0
0
0
0
0
0
0
0
0
0
0
0
0
0
0
0
0
0
0
0
0
0
0
0
0
0
0
0
0
0
0
0
0
0
0
0
0
0
0
0
0
0
0
0
0
0
0
0
0
0
0
0
0
0
0
0
0
0
0
0
0
0
0
0
0
0
0
0
0
0
0
0
0
0
0
0
0
0
0
0
0
0
0
0
0
0
0
0
0
0
0
0
0
0
0
0
0
0
-4.43608e-209
-3.30421e-209
-3.87929e-212
-2.90131e-212
-3.1808e-215
-2.38866e-215
-2.44505e-218
-1.84369e-218
-1.76171e-221
-1.33389e-221
-1.18963e-224
-9.04453e-225
-7.52737e-228
-5.74661e-228
-4.46234e-231
-3.42083e-231
-2.47797e-234
-1.90751e-234
-1.28876e-237
-9.96206e-238
-6.27641e-241
-4.87192e-241
-2.86182e-244
-2.23074e-244
-1.22148e-247
-9.56124e-248
-4.87942e-251
-3.83552e-251
-1.82393e-254
-1.43977e-254
-6.37857e-258
-5.05648e-258
-2.08659e-261
-1.66112e-261
-6.38357e-265
-5.10363e-265
-1.82609e-268
-1.46619e-268
-4.88347e-272
-3.93783e-272
-1.22066e-275
-9.88527e-276
-2.85127e-279
-2.31902e-279
-6.22256e-283
-5.08289e-283
-1.26852e-286
-1.0407e-286
-2.4151e-290
-1.99e-290
-4.2933e-294
-3.5531e-294
-7.12478e-298
-5.92229e-298
-1.10353e-301
-9.21329e-302
-1.5949e-305
-1.33746e-305
-2.15043e-309
-1.81133e-309
-2.70433e-313
-2.28804e-313
-3.17133e-317
-2.69517e-317
-3.46834e-321
-2.95945e-321
0
0
0
0
0
0
0
0
0
0
0
0
0
0
0
0
0
0
0
0
0
0
0
0
0
0
0
0
0
0
0
0
0
0
0
0
0
0
0
0
0
0
0
0
0
0
0
0
0
0
0
0
0
0
0
0
0
0
0
0
0
0
0
0
0
0
0
0
0
0
0
0
0
0
0
0
0
0
0
0
0
0
0
0
0
0
0
0
0
0
0
0
0
0
0
0
0
0
0
0
0
0
0
0
0
0
0
0
0
0
0
0
0
0
0
0
0
0
0
0
0
0
0
0
0
0
0
0
0
0
0
0
0
0
0
0
0
0
0
0
0
0
0
0
0
0
0
0
0
0
0
0
0
0
0
0
0
0
0
0
0
0
0
0
0
0
0
0
0
0
0
0
0
0
0
0
0
0
0
0
0
0
0
0
0
0
0
0
0
0
0
0
0
0
0
0
0
0
0
0
0
0
0
0
0
0
0
0
0
0
0
0
0
0
0
0
0
0
0
0
0
0
0
0
0
0
0
0
0
0
0
0
0
0
0
0
0
0
0
0
0
0
0
0
0
0
0
0
0
0
0
0
0
0
0
0
0
0
0
0
0
-3.09735e-209
-2.48485e-209
-2.70432e-212
-2.17842e-212
-2.21388e-215
-1.79067e-215
-1.69908e-218
-1.37993e-218
-1.22226e-221
-9.96767e-222
-8.24029e-225
-6.74781e-225
-5.20564e-228
-4.28044e-228
-3.08099e-231
-2.54392e-231
-1.70811e-234
-1.41623e-234
-8.86915e-238
-7.38428e-238
-4.31232e-241
-3.60535e-241
-1.96303e-244
-1.6481e-244
-8.3648e-248
-7.05234e-248
-3.33594e-251
-2.82439e-251
-1.2449e-254
-1.05846e-254
-4.34639e-258
-3.71113e-258
-1.41944e-261
-1.21713e-261
-4.33527e-265
-3.73325e-265
-1.23807e-268
-1.0707e-268
-3.30537e-272
-2.87082e-272
-8.2481e-276
-7.19458e-276
-1.92336e-279
-1.68495e-279
-4.19038e-283
-3.68686e-283
-8.5279e-287
-7.53588e-287
-1.62083e-290
-1.43853e-290
-2.87639e-294
-2.56408e-294
-4.76521e-298
-4.26648e-298
-7.36793e-302
-6.62594e-302
-1.06303e-305
-9.60205e-306
-1.43081e-309
-1.29817e-309
-1.79623e-313
-1.63697e-313
-2.10273e-317
-1.9249e-317
-2.29246e-321
-2.10966e-321
0
0
0
0
0
0
0
0
0
0
0
0
0
0
0
0
0
0
0
0
0
0
0
0
0
0
0
0
0
0
0
0
0
0
0
0
0
0
0
0
0
0
0
0
0
0
0
0
0
0
0
0
0
0
0
0
0
0
0
0
0
0
0
0
0
0
0
0
0
0
0
0
0
0
0
0
0
0
0
0
0
0
0
0
0
0
0
0
0
0
0
0
0
0
0
0
0
0
0
0
0
0
0
0
0
0
0
0
0
0
0
0
0
0
0
0
0
0
0
0
0
0
0
0
0
0
0
0
0
0
0
0
0
0
0
0
0
0
0
0
0
0
0
0
0
0
0
0
0
0
0
0
0
0
0
0
0
0
0
0
0
0
0
0
0
0
0
0
0
0
0
0
0
0
0
0
0
0
0
0
0
0
0
0
0
0
0
0
0
0
0
0
0
0
0
0
0
0
0
0
0
0
0
0
0
0
0
0
0
0
0
0
0
0
0
0
0
0
0
0
0
0
0
0
0
0
0
0
0
0
0
0
0
0
0
0
0
0
0
0
0
0
0
0
0
0
0
0
0
0
0
0
0
0
0
0
0
0
0
0
0
-2.90453e-209
-1.33172e-209
-2.52887e-212
-1.16423e-212
-2.06445e-215
-9.5432e-216
-1.57996e-218
-7.33363e-219
-1.1334e-221
-5.28251e-222
-7.6198e-225
-3.5661e-225
-4.80021e-228
-2.25582e-228
-2.8331e-231
-1.33692e-231
-1.5663e-234
-7.42203e-235
-8.11012e-238
-3.8591e-238
-3.93228e-241
-1.87895e-241
-1.78505e-244
-8.56526e-245
-7.58524e-248
-3.65495e-248
-3.01664e-251
-1.45971e-251
-1.12262e-254
-5.45517e-255
-3.90861e-258
-1.90738e-258
-1.27293e-261
-6.23824e-262
-3.87705e-265
-1.90815e-265
-1.10415e-268
-5.45749e-269
-2.9397e-272
-1.45925e-272
-7.3154e-276
-3.64696e-276
-1.70117e-279
-8.5176e-280
-3.6961e-283
-1.85862e-283
-7.5013e-287
-3.78856e-287
-1.4218e-290
-7.21218e-291
-2.51626e-294
-1.282e-294
-4.15718e-298
-2.12733e-298
-6.41019e-302
-3.29476e-302
-9.22316e-306
-4.76158e-306
-1.23802e-309
-6.41993e-310
-1.54996e-313
-8.07338e-314
-1.80948e-317
-9.46751e-318
-1.97132e-321
-1.0326e-321
0
0
0
0
0
0
0
0
0
0
0
0
0
0
0
0
0
0
0
0
0
0
0
0
0
0
0
0
0
0
0
0
0
0
0
0
0
0
0
0
0
0
0
0
0
0
0
0
0
0
0
0
0
0
0
0
0
0
0
0
0
0
0
0
0
0
0
0
0
0
0
0
0
0
0
0
0
0
0
0
0
0
0
0
0
0
0
0
0
0
0
0
0
0
0
0
0
0
0
0
0
0
0
0
0
0
0
0
0
0
0
0
0
0
0
0
0
0
0
0
0
0
0
0
0
0
0
0
0
0
0
0
0
0
0
0
0
0
0
0
0
0
0
0
0
0
0
0
0
0
0
0
0
0
0
0
0
0
0
0
0
0
0
0
0
0
0
0
0
0
0
0
0
0
0
0
0
0
0
0
0
0
0
0
0
0
0
0
0
0
0
0
0
0
0
0
0
0
0
0
0
0
0
0
0
0
0
0
0
0
0
0
0
0
0
0
0
0
0
0
0
0
0
0
0
0
0
0
0
0
0
0
0
0
0
0
0
0
0
0
0
0
0
0
0
0
0
0
0
0
0
0
0
0
0
0
0
0
0
0
0
-1.26533e-209
-6.52824e-210
-1.09837e-212
-5.69007e-213
-8.93976e-216
-4.6502e-216
-6.8213e-219
-3.56285e-219
-4.87873e-222
-2.55872e-222
-3.27019e-225
-1.7222e-225
-2.05399e-228
-1.08618e-228
-1.20868e-231
-6.41827e-232
-6.66255e-235
-3.55263e-235
-3.43962e-238
-1.84175e-238
-1.66283e-241
-8.94089e-242
-7.52625e-245
-4.0638e-245
-3.18878e-248
-1.72902e-248
-1.26447e-251
-6.88518e-252
-4.69195e-255
-2.56561e-255
-1.62883e-258
-8.94451e-259
-5.28931e-262
-2.9169e-262
-1.60634e-265
-8.89641e-266
-4.56154e-269
-2.53713e-269
-1.21097e-272
-6.7644e-273
-3.00483e-276
-1.68571e-276
-6.96759e-280
-3.92575e-280
-1.50951e-283
-8.5419e-284
-3.05485e-287
-1.73619e-287
-5.7737e-291
-3.29576e-291
-1.01892e-294
-5.84174e-295
-1.67861e-298
-9.66627e-299
-2.58103e-302
-1.49286e-302
-3.70319e-306
-2.15141e-306
-4.9568e-310
-2.89254e-310
-6.1883e-314
-3.62731e-314
-7.20425e-318
-4.24179e-318
-7.80624e-322
-4.64422e-322
0
0
0
0
0
0
0
0
0
0
0
0
0
0
0
0
0
0
0
0
0
0
0
0
0
0
0
0
0
0
0
0
0
0
0
0
0
0
0
0
0
0
0
0
0
0
0
0
0
0
0
0
0
0
0
0
0
0
0
0
0
0
0
0
0
0
0
0
0
0
0
0
0
0
0
0
0
0
0
0
0
0
0
0
0
0
0
0
0
0
0
0
0
0
0
0
0
0
0
0
0
0
0
0
0
0
0
0
0
0
0
0
0
0
0
0
0
0
0
0
0
0
0
0
0
0
0
0
0
0
0
0
0
0
0
0
0
0
0
0
0
0
0
0
0
0
0
0
0
0
0
0
0
0
0
0
0
0
0
0
0
0
0
0
0
0
0
0
0
0
0
0
0
0
0
0
0
0
0
0
0
0
0
0
0
0
0
0
0
0
0
0
0
0
0
0
0
0
0
0
0
0
0
0
0
0
0
0
0
0
0
0
0
0
0
0
0
0
0
0
0
0
0
0
0
0
0
0
0
0
0
0
0
0
0
0
0
0
0
0
0
0
0
0
0
0
0
0
0
0
0
0
0
0
0
0
0
0
0
0
0
-5.23907e-210
-3.00407e-210
-4.53391e-213
-2.61039e-213
-3.67898e-216
-2.12686e-216
-2.79867e-219
-1.6246e-219
-1.99562e-222
-1.16321e-222
-1.33363e-225
-7.80569e-226
-8.35136e-229
-4.90826e-229
-4.8997e-232
-2.89163e-232
-2.69279e-235
-1.5958e-235
-1.38605e-238
-8.24837e-239
-6.68084e-242
-3.99238e-242
-3.01493e-245
-1.80926e-245
-1.27364e-248
-7.67521e-249
-5.03564e-252
-3.04741e-252
-1.86307e-255
-1.13224e-255
-6.4489e-259
-3.93584e-259
-2.08808e-262
-1.2798e-262
-6.32307e-266
-3.89204e-266
-1.79039e-269
-1.10675e-269
-4.73936e-273
-2.94232e-273
-1.17263e-276
-7.31134e-277
-2.71133e-280
-1.69784e-280
-5.8573e-284
-3.68376e-284
-1.182e-287
-7.46624e-288
-2.22767e-291
-1.41328e-291
-3.92021e-295
-2.49799e-295
-6.44017e-299
-4.12179e-299
-9.87467e-303
-6.34789e-303
-1.41283e-306
-9.12258e-307
-1.88584e-310
-1.2231e-310
-2.34783e-314
-1.52954e-314
-2.72571e-318
-1.7837e-318
-2.96439e-322
-1.92686e-322
0
0
0
0
0
0
0
0
0
0
0
0
0
0
0
0
0
0
0
0
0
0
0
0
0
0
0
0
0
0
0
0
0
0
0
0
0
0
0
0
0
0
0
0
0
0
0
0
0
0
0
0
0
0
0
0
0
0
0
0
0
0
0
0
0
0
0
0
0
0
0
0
0
0
0
0
0
0
0
0
0
0
0
0
0
0
0
0
0
0
0
0
0
0
0
0
0
0
0
0
0
0
0
0
0
0
0
0
0
0
0
0
0
0
0
0
0
0
0
0
0
0
0
0
0
0
0
0
0
0
0
0
0
0
0
0
0
0
0
0
0
0
0
0
0
0
0
0
0
0
0
0
0
0
0
0
0
0
0
0
0
0
0
0
0
0
0
0
0
0
0
0
0
0
0
0
0
0
0
0
0
0
0
0
0
0
0
0
0
0
0
0
0
0
0
0
0
0
0
0
0
0
0
0
0
0
0
0
0
0
0
0
0
0
0
0
0
0
0
0
0
0
0
0
0
0
0
0
0
0
0
0
0
0
0
0
0
0
0
0
0
0
0
0
0
0
0
0
0
0
0
0
0
0
0
0
0
0
0
0
0
-2.08827e-210
-1.31749e-210
-1.80165e-213
-1.14132e-213
-1.45746e-216
-9.27066e-217
-1.10534e-219
-7.05986e-220
-7.85783e-223
-5.03952e-223
-5.23536e-226
-3.37154e-226
-3.26858e-229
-2.11366e-229
-1.91191e-232
-1.2415e-232
-1.04762e-235
-6.83102e-236
-5.37634e-239
-3.52033e-239
-2.58374e-242
-1.69886e-242
-1.16255e-245
-7.67617e-246
-4.89669e-249
-3.24681e-249
-1.93036e-252
-1.28536e-252
-7.12105e-256
-4.76172e-256
-2.45775e-259
-1.65045e-259
-7.93488e-263
-5.35115e-263
-2.39589e-266
-1.62267e-266
-6.76453e-270
-4.60103e-270
-1.78552e-273
-1.21969e-273
-4.40521e-277
-3.02216e-277
-1.01567e-280
-6.99814e-281
-2.18795e-284
-1.51408e-284
-4.40282e-288
-3.06008e-288
-8.27454e-292
-5.77615e-292
-1.45206e-295
-1.01808e-295
-2.3788e-299
-1.67519e-299
-3.63726e-303
-2.57276e-303
-5.18964e-307
-3.68709e-307
-6.90795e-311
-4.9298e-311
-8.57659e-315
-6.14795e-315
-9.92963e-319
-7.14987e-319
-1.08694e-322
-7.90505e-323
0
0
0
0
0
0
0
0
0
0
0
0
0
0
0
0
0
0
0
0
0
0
0
0
0
0
0
0
0
0
0
0
0
0
0
0
0
0
0
0
0
0
0
0
0
0
0
0
0
0
0
0
0
0
0
0
0
0
0
0
0
0
0
0
0
0
0
0
0
0
0
0
0
0
0
0
0
0
0
0
0
0
0
0
0
0
0
0
0
0
0
0
0
0
0
0
0
0
0
0
0
0
0
0
0
0
0
0
0
0
0
0
0
0
0
0
0
0
0
0
0
0
0
0
0
0
0
0
0
0
0
0
0
0
0
0
0
0
0
0
0
0
0
0
0
0
0
0
0
0
0
0
0
0
0
0
0
0
0
0
0
0
0
0
0
0
0
0
0
0
0
0
0
0
0
0
0
0
0
0
0
0
0
0
0
0
0
0
0
0
0
0
0
0
0
0
0
0
0
0
0
0
0
0
0
0
0
0
0
0
0
0
0
0
0
0
0
0
0
0
0
0
0
0
0
0
0
0
0
0
0
0
0
0
0
0
0
0
0
0
0
0
0
0
0
0
0
0
0
0
0
0
0
0
0
0
0
0
0
0
0
-8.12209e-211
-5.5915e-211
-6.9858e-214
-4.82897e-214
-5.63394e-217
-3.91047e-217
-4.25979e-220
-2.96887e-220
-3.0191e-223
-2.11285e-223
-2.00545e-226
-1.40928e-226
-1.2483e-229
-8.80845e-230
-7.27994e-233
-5.15838e-233
-3.97712e-236
-2.82982e-236
-2.03501e-239
-1.45402e-239
-9.75095e-243
-6.99622e-243
-4.37456e-246
-3.15191e-246
-1.83719e-249
-1.32928e-249
-7.22147e-253
-5.24712e-253
-2.65626e-256
-1.93821e-256
-9.14138e-260
-6.69862e-260
-2.94283e-263
-2.16563e-263
-8.86032e-267
-6.54821e-267
-2.49449e-270
-1.85145e-270
-6.56563e-274
-4.8941e-274
-1.61529e-277
-1.20925e-277
-3.71376e-281
-2.79227e-281
-7.97774e-285
-6.02428e-285
-1.60089e-288
-1.21416e-288
-3.0003e-292
-2.28547e-292
-5.2505e-296
-4.01714e-296
-8.57782e-300
-6.59175e-300
-1.30797e-303
-1.00958e-303
-1.8611e-307
-1.4429e-307
-2.47057e-311
-1.92396e-311
-3.05902e-315
-2.39286e-315
-3.53203e-319
-2.77531e-319
-3.95253e-323
-2.96439e-323
0
0
0
0
0
0
0
0
0
0
0
0
0
0
0
0
0
0
0
0
0
0
0
0
0
0
0
0
0
0
0
0
0
0
0
0
0
0
0
0
0
0
0
0
0
0
0
0
0
0
0
0
0
0
0
0
0
0
0
0
0
0
0
0
0
0
0
0
0
0
0
0
0
0
0
0
0
0
0
0
0
0
0
0
0
0
0
0
0
0
0
0
0
0
0
0
0
0
0
0
0
0
0
0
0
0
0
0
0
0
0
0
0
0
0
0
0
0
0
0
0
0
0
0
0
0
0
0
0
0
0
0
0
0
0
0
0
0
0
0
0
0
0
0
0
0
0
0
0
0
0
0
0
0
0
0
0
0
0
0
0
0
0
0
0
0
0
0
0
0
0
0
0
0
0
0
0
0
0
0
0
0
0
0
0
0
0
0
0
0
0
0
0
0
0
0
0
0
0
0
0
0
0
0
0
0
0
0
0
0
0
0
0
0
0
0
0
0
0
0
0
0
0
0
0
0
0
0
0
0
0
0
0
0
0
0
0
0
0
0
0
0
0
0
0
0
0
0
0
0
0
0
0
0
0
0
0
0
0
0
0
-3.17051e-211
-2.3652e-211
-2.71858e-214
-2.03638e-214
-2.1858e-217
-1.64402e-217
-1.64766e-220
-1.24437e-220
-1.16424e-223
-8.82907e-224
-7.7103e-227
-5.87136e-227
-4.78499e-230
-3.65885e-230
-2.78227e-233
-2.13633e-233
-1.5155e-236
-1.1685e-236
-7.73175e-240
-5.98639e-240
-3.69393e-243
-2.87204e-243
-1.65239e-246
-1.29014e-246
-6.91952e-250
-5.42531e-250
-2.71205e-253
-2.1354e-253
-9.94717e-257
-7.86532e-257
-3.41352e-260
-2.71059e-260
-1.09578e-263
-8.73838e-264
-3.28991e-267
-2.63479e-267
-9.23626e-271
-7.42874e-271
-2.42425e-274
-1.95823e-274
-5.94762e-278
-4.82502e-278
-1.36366e-281
-1.11107e-281
-2.92129e-285
-2.39052e-285
-5.84607e-289
-4.80479e-289
-1.09265e-292
-9.0196e-293
-1.90695e-296
-1.58106e-296
-3.10698e-300
-2.58737e-300
-4.72488e-304
-3.95212e-304
-6.70498e-308
-5.63326e-308
-8.87696e-312
-7.49136e-312
-1.09621e-315
-9.29237e-316
-1.26239e-319
-1.07489e-319
-1.4822e-323
-9.88131e-324
0
0
0
0
0
0
0
0
0
0
0
0
0
0
0
0
0
0
0
0
0
0
0
0
0
0
0
0
0
0
0
0
0
0
0
0
0
0
0
0
0
0
0
0
0
0
0
0
0
0
0
0
0
0
0
0
0
0
0
0
0
0
0
0
0
0
0
0
0
0
0
0
0
0
0
0
0
0
0
0
0
0
0
0
0
0
0
0
0
0
0
0
0
0
0
0
0
0
0
0
0
0
0
0
0
0
0
0
0
0
0
0
0
0
0
0
0
0
0
0
0
0
0
0
0
0
0
0
0
0
0
0
0
0
0
0
0
0
0
0
0
0
0
0
0
0
0
0
0
0
0
0
0
0
0
0
0
0
0
0
0
0
0
0
0
0
0
0
0
0
0
0
0
0
0
0
0
0
0
0
0
0
0
0
0
0
0
0
0
0
0
0
0
0
0
0
0
0
0
0
0
0
0
0
0
0
0
0
0
0
0
0
0
0
0
0
0
0
0
0
0
0
0
0
0
0
0
0
0
0
0
0
0
0
0
0
0
0
0
0
0
0
0
0
0
0
0
0
0
0
0
0
0
0
0
0
0
0
0
0
0
-1.40638e-211
-1.13016e-211
-1.20212e-214
-9.69989e-215
-9.63524e-218
-7.80657e-218
-7.2406e-221
-5.8906e-221
-5.10054e-224
-4.16668e-224
-3.36759e-227
-2.76242e-227
-2.08359e-230
-1.71625e-230
-1.20788e-233
-9.99072e-234
-6.5597e-237
-5.44831e-237
-3.33668e-240
-2.78296e-240
-1.58944e-243
-1.33122e-243