/*--------------------------------*- C++ -*----------------------------------*\
| =========                 |                                                 |
| \\      /  F ield         | OpenFOAM: The Open Source CFD Toolbox           |
|  \\    /   O peration     | Version:  v1912                                 |
|   \\  /    A nd           | Website:  www.openfoam.com                      |
|    \\/     M anipulation  |                                                 |
\*---------------------------------------------------------------------------*/
FoamFile
{
    version     2.0;
    format      ascii;
    class       volScalarField;
    location    "100";
    object      alpha.water;
}
// * * * * * * * * * * * * * * * * * * * * * * * * * * * * * * * * * * * * * //

dimensions      [0 0 0 0 0 0 0];


internalField   nonuniform List<scalar> 
14268
(
1
1
1
1
1
1
1
1
1
1
1
1
1
1
1
1
1
1
1
1
1
1
1
1
1
1
1
1
1
1
1
1
1
1
1
1
1
1
1
1
1
1
1
1
1
1
1
1
1
1
1
1
1
1
1
1
1
1
1
1
1
1
1
1
1
1
1
1
1
1
1
1
1
1
1
1
1
1
1
1
1
1
1
1
1
1
1
1
1
1
1
1
1
1
1
1
1
1
1
1
1
1
1
1
1
1
1
1
1
1
1
1
1
1
1
1
1
1
1
1
1
1
1
1
1
1
1
1
1
1
1
1
1
1
1
1
1
1
1
1
1
1
1
1
1
1
1
1
1
1
1
1
1
1
1
1
1
1
1
1
1
1
1
1
1
1
1
1
1
1
1
1
1
1
1
1
1
1
1
1
1
1
1
1
1
1
1
1
1
1
1
1
1
1
1
1
1
1
1
1
1
1
1
1
1
1
1
1
1
1
1
1
1
1
1
1
1
1
1
1
1
1
1
1
1
1
1
1
1
1
1
1
1
1
1
1
1
1
1
1
1
1
1
1
1
1
1
1
1
1
1
1
1
1
1
1
1
1
1
1
1
1
1
1
1
1
1
1
1
1
1
1
1
1
1
1
1
1
1
1
1
1
1
1
1
1
1
1
1
1
1
1
1
1
1
1
1
1
1
1
1
1
1
1
1
1
1
1
1
1
1
1
1
1
1
1
1
1
1
1
1
1
1
1
1
1
1
1
1
1
1
1
1
1
1
1
1
1
1
1
1
1
1
1
1
1
1
1
1
1
1
1
1
1
1
1
1
1
1
1
1
1
1
1
1
1
1
1
1
1
1
1
1
1
1
1
1
1
1
1
1
1
1
1
1
1
1
1
1
1
1
1
1
1
1
1
1
1
1
1
1
1
1
1
1
1
1
1
1
1
1
1
1
1
1
1
1
1
1
1
1
1
1
1
1
1
1
1
1
1
1
1
1
1
1
1
1
1
1
1
1
1
1
1
1
1
1
1
1
1
1
1
1
1
1
1
1
1
1
1
1
1
1
1
1
1
1
1
1
1
1
1
1
1
1
1
1
1
1
1
1
1
1
1
1
1
1
1
1
1
1
1
1
1
1
1
1
1
1
1
1
1
1
1
1
1
1
1
1
1
1
1
1
1
1
1
1
1
1
1
1
1
1
1
1
1
1
1
1
1
1
1
1
1
1
1
1
1
1
1
1
1
1
1
1
1
1
1
1
1
1
1
1
1
1
1
1
1
1
1
1
1
1
1
1
1
1
1
1
1
1
1
1
1
1
1
1
1
1
1
1
1
1
1
1
1
1
1
1
1
1
1
1
1
1
1
1
1
1
1
1
1
1
1
1
1
1
1
1
1
1
1
1
1
1
1
1
1
1
1
1
1
1
1
1
1
1
1
1
1
1
1
1
1
1
1
1
1
1
1
1
1
1
1
1
1
1
1
1
1
1
1
1
1
1
1
1
1
1
1
1
1
1
1
1
1
1
1
1
1
1
1
1
1
1
1
1
1
1
1
1
1
1
1
1
1
1
1
1
1
1
1
1
1
1
1
1
1
1
1
1
1
1
1
1
1
1
1
1
1
1
1
1
1
1
1
1
1
1
1
1
1
1
1
1
1
1
1
1
1
1
1
1
1
1
1
1
1
1
1
1
1
1
1
1
1
1
1
1
1
1
1
1
1
1
1
1
1
1
1
1
1
1
1
1
1
1
1
1
1
1
1
1
1
1
1
1
1
1
1
1
1
1
1
1
1
1
1
1
1
1
1
1
1
1
1
1
1
1
1
1
1
1
1
1
1
1
1
1
1
1
1
1
1
1
1
1
1
1
1
1
1
1
1
1
1
1
1
1
1
1
1
1
1
1
1
1
1
1
1
1
1
1
1
1
1
1
1
1
1
1
1
1
1
1
1
1
1
1
1
1
1
1
1
1
1
1
1
1
1
1
1
1
1
1
1
1
1
1
1
1
1
1
1
1
1
1
1
1
1
1
1
1
1
1
1
1
1
1
1
1
1
1
1
1
1
1
1
1
1
1
1
1
1
1
1
1
1
1
1
1
1
1
1
1
1
1
1
1
1
1
1
1
1
1
1
1
1
1
1
1
1
1
1
1
1
1
1
1
1
1
1
1
1
1
1
1
1
1
1
1
1
1
1
1
1
1
1
1
1
1
1
1
1
1
1
1
1
1
1
1
1
1
1
1
1
1
1
1
1
1
1
1
1
1
1
1
1
1
1
1
1
1
1
1
1
1
1
1
1
1
1
1
1
1
1
1
1
1
1
1
1
1
1
1
1
1
1
1
1
1
1
1
1
1
1
1
1
1
1
1
1
1
1
1
1
1
1
1
1
1
1
1
1
1
1
1
1
1
1
1
1
1
1
1
1
1
1
1
1
1
1
1
1
1
1
1
1
1
1
1
1
1
1
1
1
1
1
1
1
1
1
1
1
1
1
1
1
1
1
1
1
1
1
1
1
1
1
1
1
1
1
1
1
1
1
1
1
1
1
1
1
1
1
1
1
1
1
1
1
1
1
1
1
1
1
1
1
1
1
1
1
1
1
1
1
1
1
1
1
1
1
1
1
1
1
1
1
1
1
1
1
1
1
1
1
1
1
1
1
1
1
1
1
1
1
1
1
1
1
1
1
1
1
1
1
1
1
1
1
1
1
1
1
1
1
1
1
1
1
1
1
1
1
1
1
1
1
1
1
1
1
1
1
1
1
1
1
1
1
1
1
1
1
1
1
1
1
1
1
1
1
1
1
1
1
1
1
1
1
1
1
1
1
1
1
1
1
1
1
1
1
1
1
1
1
1
1
1
1
1
1
1
1
1
1
1
1
1
1
1
1
1
1
1
1
1
1
1
1
1
1
1
1
1
1
1
1
1
1
1
1
1
1
1
1
1
1
1
1
1
1
1
1
1
1
1
1
1
0.999999
1
1
1
1
1
1
1
1
1
1
1
1
1
1
1
1
1
1
1
1
1
1
1
1
1
1
1
1
1
1
1
1
1
1
1
1
1
1
1
1
1
1
0.999999
0.999998
1
1
1
1
1
1
1
1
1
1
1
1
1
1
1
1
1
1
1
1
1
1
1
1
1
1
1
1
1
1
1
1
1
1
1
1
1
1
1
1
1
0.999999
0.999998
0.999998
1
1
1
1
1
1
1
1
1
1
1
1
1
1
1
1
1
1
1
1
1
1
1
1
1
1
1
1
1
1
1
1
1
1
1
1
1
1
1
1
1
0.999998
0.999997
0.999999
1
1
1
1
1
1
1
1
1
1
1
1
1
1
1
1
1
1
1
1
1
1
1
1
1
1
1
1
1
1
1
1
1
1
1
1
1
1
1
1
1
0.999998
0.999996
1
1
1
1
1
1
1
1
1
1
1
1
1
1
1
1
1
1
0.999999
0.999999
1
1
1
1
1
1
1
1
1
1
1
1
1
1
1
1
1
1
1
1
1
0.999999
0.999997
0.999996
0.999999
1
1
1
1
1
1
1
1
0.999986
0.999954
0.973457
0.952226
0.921566
0.887067
0.863348
0.862483
0.884995
0.923941
0.966934
0.995468
0.999977
0.999973
0.999973
0.999976
0.99998
0.999983
0.999983
0.999982
0.999983
0.999984
0.999983
0.99998
0.999977
0.999973
0.999968
0.999964
0.999957
0.999945
0.999928
0.999904
0.999858
0.999737
0.999364
0.998401
0.997126
0.996274
0.995424
0.993987
0.991997
0.989646
0.987641
0.988479
0.989546
0.989153
0.591181
0.471614
0.370138
0.297624
0.260776
0.261977
0.307182
0.399906
0.539597
0.704039
0.841993
0.926602
0.974509
0.995716
0.999719
0.999744
0.999729
0.999719
0.999728
0.999745
0.999735
0.999699
0.999661
0.999615
0.999557
0.999491
0.999401
0.999224
0.998954
0.998585
0.997985
0.996839
0.994387
0.988501
0.976971
0.95902
0.930993
0.886483
0.823595
0.749779
0.686443
0.652257
0.634958
0.612013
0.0902907
0.0487054
0.0238256
0.0123841
0.00887121
0.00896576
0.0118122
0.0198578
0.0411715
0.0956868
0.227979
0.410491
0.575408
0.709492
0.817594
0.903115
0.971865
0.997154
0.997059
0.997133
0.997075
0.996775
0.996399
0.995854
0.995151
0.994288
0.992991
0.990451
0.986237
0.979735
0.968511
0.948222
0.910755
0.836733
0.706772
0.563686
0.429345
0.310281
0.21656
0.148291
0.0912918
0.0498929
0.0280026
0.0185761
0.000269154
0.000321675
0.000240686
0.00017567
0.000180501
0.000220178
0.000316653
0.00053417
0.00105829
0.00270427
0.00783809
0.021707
0.0500461
0.100051
0.192257
0.351002
0.567677
0.776343
0.883754
0.9328
0.948961
0.948742
0.939269
0.926208
0.911958
0.894149
0.864909
0.815293
0.745847
0.66488
0.570941
0.465254
0.351557
0.239235
0.15408
0.0899848
0.0425404
0.0123418
0.00097899
0.000284927
0.000107876
5.79279e-05
2.32694e-05
5.53556e-05
4.55599e-07
4.43847e-07
4.95878e-07
8.04742e-07
1.44552e-06
1.94923e-06
2.11917e-06
2.39963e-06
4.16693e-06
2.12624e-05
0.000215469
0.000823551
0.00160895
0.00297844
0.00597062
0.0147915
0.046978
0.149455
0.317832
0.444151
0.486724
0.472592
0.429091
0.385417
0.349048
0.311821
0.263222
0.209856
0.163304
0.119583
0.0785528
0.0429432
0.0160633
0.00164547
0.000155454
0.000668907
0.00177514
0.00169189
0.000546125
9.08006e-06
1.44481e-06
1.417e-06
1.79349e-06
3.31574e-06
9.2069e-08
8.61473e-08
9.62429e-08
2.61376e-07
1.02737e-06
2.03998e-06
2.04775e-06
1.28453e-06
3.58687e-07
2.74182e-07
7.40508e-07
2.8456e-06
1.09536e-05
3.19699e-05
8.90158e-05
0.000311551
0.00130106
0.00575475
0.01983
0.0423491
0.0532944
0.0473616
0.0338461
0.0223429
0.0145983
0.00833447
0.00268525
0.000116691
8.44686e-05
0.000104921
0.000116145
0.000124748
0.000132015
0.000127645
0.000127631
0.000145556
0.000452263
0.000831909
0.000510835
5.63151e-05
5.70661e-07
5.70661e-07
5.70661e-07
1.15666e-06
3.99775e-08
3.14787e-08
5.64213e-08
5.89822e-07
4.53711e-06
1.01747e-05
7.92634e-06
2.64005e-06
1.33711e-07
8.66331e-08
9.60089e-08
1.53153e-07
2.35286e-07
3.0385e-07
4.53201e-07
1.23701e-06
3.39665e-06
5.01102e-06
4.32089e-06
3.56353e-06
3.76145e-06
1.02529e-05
4.2425e-05
5.66719e-05
4.35532e-05
1.72434e-05
1.13543e-05
1.93588e-05
7.94894e-05
0.000250754
0.00051615
0.000695362
0.000711123
0.000671187
0.000403748
0.000157687
0.000188206
0.000354553
0.000327947
0.000113688
3.32552e-06
5.70661e-07
1.15056e-06
4.17885e-06
3.14787e-08
3.14793e-08
4.79316e-08
6.53042e-07
7.8274e-06
1.17083e-05
1.17085e-05
5.96312e-06
7.69781e-07
8.66331e-08
8.66331e-08
1.34652e-07
2.31542e-07
2.34488e-07
2.34579e-07
9.62701e-07
2.51529e-06
4.22929e-06
4.61467e-06
3.56502e-06
3.4475e-06
3.44746e-06
3.44742e-06
5.8687e-06
1.39201e-05
1.09987e-05
5.13375e-06
1.22293e-05
0.000122838
0.000644726
0.000711125
0.000711123
0.000711125
0.000711123
0.000711125
0.000367752
8.21774e-05
0.000108321
0.00012777
7.46668e-05
1.29282e-05
7.56289e-07
4.45471e-06
1.15171e-05
1.07591e-06
3.66121e-08
5.73105e-08
1.86369e-07
6.74071e-07
5.92683e-06
1.17083e-05
9.83907e-06
3.39972e-06
1.88233e-07
8.66331e-08
1.17974e-07
4.84033e-07
1.62941e-06
6.76408e-06
4.08775e-05
7.15898e-05
5.59183e-05
2.69829e-05
6.81769e-06
3.44746e-06
3.44742e-06
3.44738e-06
3.44734e-06
3.50855e-06
3.44726e-06
3.44722e-06
8.55722e-06
6.08181e-05
0.000216281
0.000325671
0.0002846
0.000210998
0.000147598
0.000123164
0.000105312
3.7586e-05
1.77295e-05
2.536e-05
1.9591e-05
5.78515e-06
4.76156e-06
1.52536e-05
2.07308e-05
1.20818e-06
1.10131e-07
2.45381e-08
3.82452e-08
1.03848e-07
8.44938e-07
7.18628e-06
9.8326e-06
7.33265e-06
1.43488e-06
8.66331e-08
8.66331e-08
4.38294e-07
4.32492e-06
3.2985e-05
0.000142305
0.000235626
0.000191107
8.1172e-05
1.28631e-05
3.44741e-06
3.44738e-06
3.44734e-06
3.4473e-06
3.44726e-06
3.44722e-06
3.44719e-06
3.52352e-06
2.1966e-05
0.00013514
0.000162767
0.000109525
4.87389e-05
2.45928e-05
2.36018e-05
2.04431e-05
1.13173e-05
1.95818e-06
3.74743e-07
4.24009e-07
9.53151e-07
1.11255e-05
2.13473e-05
2.13501e-05
3.84724e-08
1.77031e-08
5.41564e-09
2.1969e-09
4.5129e-09
9.18107e-08
1.71454e-06
6.08781e-06
5.12405e-06
1.67845e-06
1.01966e-07
8.66331e-08
4.55694e-07
7.92115e-06
9.57599e-05
0.000277344
0.000277344
0.000277344
0.000196446
4.73258e-05
3.44738e-06
3.44734e-06
3.4473e-06
3.44726e-06
3.44722e-06
3.44719e-06
3.44715e-06
3.44719e-06
3.79277e-05
0.000158794
0.000188524
0.000121264
6.51139e-05
2.59256e-05
7.34521e-06
4.33328e-06
2.30464e-06
4.51905e-07
3.74619e-07
3.74743e-07
3.49354e-06
1.82822e-05
2.13501e-05
1.55183e-05
2.69244e-10
2.69107e-10
2.73985e-10
3.48769e-10
5.56512e-10
2.65452e-09
1.10665e-07
1.28748e-06
1.6326e-06
1.2834e-06
1.01297e-06
6.24036e-07
9.35734e-07
1.06929e-05
0.000136161
0.000275633
0.000277343
0.000277343
0.000277343
0.000126805
1.35327e-05
4.6886e-06
5.36336e-06
4.57002e-06
3.47693e-06
3.44715e-06
3.44712e-06
3.59398e-06
3.28811e-05
0.000149204
0.000211815
0.000212239
0.000208927
0.000114707
1.92591e-05
3.74733e-07
3.74734e-07
3.74619e-07
3.74629e-07
8.31761e-07
1.00152e-05
1.86483e-05
1.2668e-05
1.49402e-05
3.39572e-09
2.69704e-09
1.36388e-09
1.14619e-09
1.62951e-09
2.49868e-09
2.6877e-09
3.72199e-09
8.05667e-08
5.16266e-07
2.71847e-06
3.35447e-06
2.77444e-06
5.86223e-06
2.34239e-05
0.000111457
0.000241754
0.000261106
0.000231219
0.00014579
3.46808e-05
2.22992e-05
3.56216e-05
3.15119e-05
1.5499e-05
3.94231e-06
3.44709e-06
5.46866e-06
3.45471e-05
5.83174e-05
7.51704e-05
0.000162493
0.000208779
0.000149744
3.06075e-05
3.74734e-07
3.74619e-07
3.7462e-07
3.74506e-07
6.01126e-06
1.63326e-05
1.66294e-05
7.42405e-06
1.45846e-05
1.63129e-08
1.5846e-08
1.04425e-08
3.95671e-09
3.07129e-09
3.22694e-09
2.68945e-09
2.6912e-09
1.26993e-08
4.49504e-07
4.83096e-06
6.1125e-06
4.80875e-06
3.30199e-06
6.94831e-06
2.64761e-05
4.31229e-05
4.28816e-05
5.45894e-05
5.47487e-05
3.83139e-05
9.32023e-05
9.58229e-05
9.56266e-05
7.35187e-05
2.78761e-05
3.8874e-06
9.37227e-06
2.22631e-05
1.95543e-05
1.1697e-05
1.98985e-05
6.86625e-05
7.39448e-05
3.28872e-05
1.79782e-06
3.74734e-07
3.74619e-07
1.2376e-06
1.29221e-05
1.63418e-05
7.92307e-06
6.26531e-06
1.79307e-05
2.74835e-08
4.99161e-08
4.25635e-08
2.16027e-08
6.05742e-09
3.50881e-09
2.75033e-09
2.69296e-09
1.50888e-08
5.23652e-07
4.8069e-06
5.96451e-06
2.88043e-06
1.41289e-06
3.26879e-06
7.32079e-06
7.46386e-06
8.56753e-06
2.03935e-05
2.68398e-05
2.34927e-05
2.81864e-05
4.01675e-05
0.000157923
0.000237304
0.000142631
3.16167e-05
8.57354e-06
3.15717e-06
1.54837e-06
1.54818e-06
6.21317e-06
3.3624e-05
4.24619e-05
2.17622e-05
1.90275e-06
3.74733e-07
4.00327e-07
5.91617e-06
1.32457e-05
7.8508e-06
3.81899e-06
8.02749e-06
2.44519e-05
2.08722e-08
9.539e-08
1.35568e-07
9.06062e-08
2.77355e-08
2.85902e-09
2.69648e-09
2.69472e-09
1.73086e-08
6.14244e-07
3.68266e-06
3.0714e-06
1.20184e-06
8.97623e-07
9.94338e-07
2.38362e-06
3.09957e-06
3.10147e-06
8.26913e-06
1.01085e-05
7.26456e-06
7.25919e-06
3.26254e-05
0.000226794
0.000349005
0.000347177
0.000177214
2.44354e-05
3.10627e-07
6.98269e-07
7.60395e-06
2.95455e-05
3.13494e-05
2.1421e-05
7.55499e-06
6.83256e-07
4.39312e-07
1.82879e-06
8.13826e-06
6.98492e-06
2.21517e-06
3.80449e-06
1.84743e-05
2.44632e-05
4.57856e-07
1.99347e-07
1.99426e-07
1.73088e-07
6.8875e-08
6.29883e-09
2.69824e-09
3.33157e-09
6.51552e-08
1.00049e-06
2.85898e-06
1.71589e-06
8.97623e-07
8.97623e-07
2.4001e-06
1.79562e-05
3.27684e-05
2.56141e-05
8.70427e-06
6.53676e-06
6.53875e-06
1.33821e-05
0.000117533
0.000342804
0.000349005
0.00034635
0.00016985
2.05999e-05
1.31075e-07
2.39269e-06
2.71463e-05
6.45422e-05
4.39993e-05
9.25532e-06
1.72905e-06
1.66413e-06
4.06334e-06
8.81266e-06
8.05626e-06
1.73255e-06
2.01093e-06
1.42267e-05
2.10706e-05
1.94592e-05
3.30369e-06
7.25783e-07
1.94545e-07
1.50998e-07
9.25232e-08
2.15918e-08
3.00684e-09
1.38485e-08
4.05389e-07
3.44142e-06
2.84873e-06
1.00556e-06
8.97623e-07
8.97623e-07
3.53882e-06
3.77524e-05
0.000100224
9.32355e-05
3.76967e-05
6.61272e-06
1.4834e-05
0.000105073
0.000343448
0.000348768
0.000317504
0.000170718
5.44175e-05
2.12751e-06
1.22845e-07
3.10139e-06
4.7157e-05
9.26347e-05
4.51813e-05
6.71635e-06
3.93006e-06
1.1354e-05
1.73443e-05
1.68403e-05
4.39735e-06
1.11298e-06
8.94918e-06
2.10706e-05
2.10742e-05
8.55275e-06
7.27422e-06
2.15934e-06
3.06543e-07
2.82447e-07
1.73078e-07
3.45804e-08
2.06589e-08
2.1975e-07
3.17083e-06
4.0255e-06
3.57277e-06
2.575e-06
1.73367e-06
1.0517e-06
3.10686e-06
4.08635e-05
0.000223727
0.000260123
0.000117612
1.23748e-05
2.5998e-05
0.000194344
0.000326107
0.000268514
0.000126005
2.52032e-05
5.48518e-07
5.24957e-08
9.65183e-08
2.59223e-06
6.15735e-05
0.000112119
5.17536e-05
9.18985e-06
1.59094e-05
1.74735e-05
1.74725e-05
9.66574e-06
1.00261e-06
1.11116e-06
1.00148e-05
1.55829e-05
1.00339e-05
1.54461e-06
8.92956e-06
4.39177e-06
1.05238e-06
1.11536e-07
4.68512e-08
4.14537e-08
1.59727e-07
1.59209e-06
3.00474e-06
2.74089e-06
6.05641e-06
1.90243e-05
2.912e-05
1.9681e-05
1.40529e-05
5.13636e-05
0.000367067
0.000514786
0.000252828
3.5464e-05
2.29449e-05
9.21647e-05
0.000123664
8.06455e-05
2.12605e-05
7.6001e-08
5.24957e-08
5.24957e-08
1.02779e-07
3.32628e-06
6.63156e-05
0.000140348
7.3071e-05
1.69991e-05
1.04302e-05
1.57738e-05
1.13968e-05
2.28486e-06
4.25773e-07
1.94967e-06
4.6983e-06
4.61178e-06
1.54755e-06
9.79315e-09
8.9212e-06
6.42446e-06
1.64449e-06
5.18132e-08
4.63011e-08
4.61826e-08
5.21625e-07
1.64601e-06
1.1573e-06
1.06413e-06
5.84598e-06
4.94238e-05
9.65666e-05
7.64952e-05
6.15108e-05
0.000156244
0.000492891
0.000514802
0.000383812
8.81679e-05
1.02081e-05
1.21407e-05
1.90263e-05
5.0581e-05
4.58167e-05
1.87401e-05
1.57185e-06
5.24957e-08
1.2097e-07
3.17312e-06
7.68234e-05
0.000140312
0.000137786
3.9533e-05
4.22312e-06
5.46233e-06
2.4711e-06
1.49568e-07
4.1414e-07
1.25149e-06
8.82361e-07
1.0367e-07
1.81485e-15
3.82534e-15
7.53889e-06
6.54196e-06
1.9222e-06
1.67582e-07
1.16795e-07
2.03e-07
4.88596e-07
5.55812e-07
1.98672e-07
3.32318e-07
5.33664e-06
5.25609e-05
0.000156239
0.000264627
0.00038168
0.00051135
0.000514831
0.000514816
0.000494731
0.00017274
1.02839e-05
9.06786e-06
4.573e-05
0.000194221
0.00021093
9.65855e-05
1.08459e-05
5.80061e-08
1.33557e-07
3.64003e-06
4.34252e-05
0.000130525
0.000100456
2.63503e-05
5.30122e-07
2.33478e-07
9.99952e-09
5.49301e-08
3.29723e-07
3.45379e-07
3.72172e-08
5.59384e-16
6.48757e-16
3.67631e-15
3.30501e-06
4.11418e-06
2.22652e-06
3.82506e-07
1.9763e-07
2.26282e-07
1.83737e-07
3.85413e-08
2.00133e-08
2.1312e-07
4.01894e-06
7.91554e-05
0.000438617
0.000514891
0.000514875
0.000514861
0.000514845
0.000514831
0.000514817
0.000234451
1.62102e-05
1.15927e-05
0.00014937
0.000249116
0.000249116
0.000245793
9.49346e-05
5.19439e-06
3.47733e-07
4.82965e-06
2.61496e-05
5.52926e-05
4.04129e-05
9.26754e-06
2.13122e-10
2.8229e-10
4.13652e-09
5.73041e-08
1.14069e-07
1.82492e-08
5.10621e-16
5.33343e-16
8.23312e-16
1.93132e-15
1.51329e-06
2.24662e-06
1.54604e-06
3.50377e-07
1.02562e-07
1.00968e-07
3.02993e-08
1.31962e-08
1.82388e-08
2.02202e-07
3.47777e-06
4.78149e-05
0.000371097
0.000514875
0.000514861
0.000504505
0.000514831
0.000514816
0.000409409
0.000136665
9.82344e-06
8.13821e-06
4.62341e-05
0.00017375
0.000249116
0.000222528
8.75965e-05
5.71246e-06
1.9536e-06
6.81852e-06
8.29475e-06
8.25035e-06
5.8313e-06
9.31825e-07
2.13291e-10
4.42387e-10
8.30395e-09
2.82742e-08
7.3162e-09
2.61403e-13
5.11151e-16
5.95196e-16
6.23234e-16
2.67755e-16
7.42994e-07
1.11661e-06
8.13756e-07
1.98173e-07
2.0382e-08
1.17698e-08
1.17569e-08
1.31722e-08
6.83833e-08
3.90429e-07
2.43787e-06
2.36688e-05
0.000155356
0.000352934
0.000329667
0.000225957
0.000252078
0.000302851
0.000249323
0.000106858
1.04951e-05
1.47836e-06
6.01075e-06
4.68288e-05
0.000113531
9.37286e-05
3.85837e-05
7.64221e-06
8.00152e-06
6.17224e-06
1.06816e-06
7.56558e-09
7.38326e-09
2.59571e-09
2.71619e-10
1.31475e-09
6.62184e-09
3.37222e-09
3.44796e-11
3.72402e-16
5.51017e-16
5.28894e-16
2.32776e-16
3.99058e-18
3.05213e-07
4.4922e-07
3.73716e-07
2.75651e-07
1.242e-07
3.69059e-08
1.56987e-08
6.07681e-08
1.00179e-06
7.9405e-06
1.46112e-05
2.41249e-05
6.65025e-05
0.00010634
8.77002e-05
4.79467e-05
6.52742e-05
0.000100717
8.67233e-05
4.57185e-05
8.91426e-06
1.85329e-08
1.85475e-08
1.55841e-06
1.04945e-05
1.07119e-05
1.43773e-05
3.89856e-05
3.02319e-05
8.95357e-06
4.72202e-08
8.24058e-10
1.29875e-09
1.01377e-09
5.75244e-10
1.51438e-09
1.97959e-09
1.41007e-10
2.67678e-16
3.72336e-16
4.57466e-16
2.89598e-16
2.42982e-17
3.67386e-22
2.4058e-07
2.12727e-07
6.26571e-07
7.51379e-07
7.51155e-07
2.93596e-07
8.93369e-08
4.78692e-07
8.64559e-06
6.88209e-05
0.000124153
0.000100423
4.03286e-05
5.08544e-06
1.82223e-07
6.82236e-08
2.15631e-06
6.67958e-06
5.38759e-06
4.21989e-06
3.13351e-06
1.01623e-06
2.58056e-08
1.16885e-08
6.41743e-08
3.61692e-06
3.62104e-05
0.000100316
7.87938e-05
2.12225e-05
4.72588e-08
8.23997e-10
1.81422e-09
1.51119e-09
8.44623e-10
1.11767e-09
4.14778e-10
7.39715e-11
2.67283e-16
2.67634e-16
2.07444e-16
5.35499e-17
2.1258e-20
7.4672e-22
8.17913e-07
2.12893e-07
3.65602e-07
7.3256e-07
6.06479e-07
2.75995e-07
3.01321e-07
2.45648e-06
3.41928e-05
0.000182739
0.00023083
0.000229396
9.88831e-05
6.8423e-06
1.16638e-08
1.16638e-08
1.16638e-08
1.16638e-08
3.25635e-08
2.35891e-07
5.39445e-07
4.65451e-07
1.27332e-07
1.16885e-08
7.68011e-08
6.96814e-06
9.62451e-05
0.000101747
0.000101747
3.18831e-05
1.39817e-07
8.23945e-10
1.92891e-09
1.52015e-09
8.4097e-10
6.13799e-10
2.83369e-10
8.00697e-11
8.71032e-13
8.04212e-17
1.87347e-17
5.61029e-21
5.65828e-21
1.64633e-21
2.113e-06
2.32441e-07
1.81858e-07
2.67483e-07
1.89179e-07
1.93757e-07
6.62354e-07
7.83548e-06
0.000106038
0.00023083
0.000230823
0.000207189
8.84893e-05
6.82019e-06
1.16638e-08
1.16638e-08
1.16638e-08
1.16638e-08
1.16638e-08
1.40871e-08
4.6028e-08
7.80417e-08
4.14492e-08
1.52666e-08
1.58535e-07
6.2248e-06
5.62981e-05
0.000101747
7.59567e-05
1.50839e-05
5.9985e-09
6.68178e-10
1.45051e-09
1.11063e-09
7.04292e-10
3.85422e-10
2.13003e-10
7.06064e-11
1.33956e-12
6.26795e-19
1.18251e-21
5.7722e-22
8.97411e-22
7.46134e-22
4.70231e-06
3.07097e-07
1.81861e-07
1.81865e-07
1.81868e-07
2.60895e-07
2.33372e-06
2.82618e-05
0.000120896
0.000123647
0.000102086
6.73988e-05
3.01427e-05
3.41167e-06
1.16638e-08
1.16638e-08
1.16638e-08
1.1664e-08
1.16638e-08
1.16638e-08
1.16638e-08
2.88698e-08
2.71836e-08
2.1577e-08
1.91173e-07
2.72869e-06
2.23866e-05
5.42066e-05
2.64636e-05
2.61604e-06
3.16849e-10
3.96141e-10
6.48793e-10
6.228e-10
4.94041e-10
2.67312e-10
1.23596e-10
3.47394e-11
3.71498e-13
7.72354e-23
6.33564e-23
3.77148e-23
1.08462e-23
5.49824e-23
1.04647e-05
9.03021e-07
1.81865e-07
1.81868e-07
1.90074e-07
1.12096e-06
1.22033e-05
6.59316e-05
6.47977e-05
3.22136e-05
6.71184e-06
1.06344e-06
1.10848e-06
4.71654e-07
2.59354e-08
1.16638e-08
1.16638e-08
1.16644e-08
1.16638e-08
1.16638e-08
1.8703e-08
8.14005e-08
1.36903e-07
1.05882e-07
1.75217e-07
6.08319e-07
5.62218e-06
9.72466e-06
2.43406e-06
4.35533e-11
6.05407e-11
1.62157e-10
2.38681e-10
3.59618e-10
3.04004e-10
1.39083e-10
3.23306e-11
4.11417e-12
5.44665e-16
1.1536e-31
-5.01333e-42
-1.41494e-42
9.79019e-28
5.86254e-28
1.66554e-05
2.46425e-06
1.81868e-07
1.81872e-07
7.76878e-07
1.42571e-05
7.93215e-05
8.46896e-05
4.37066e-05
5.54102e-06
1.16666e-08
1.16666e-08
3.08084e-08
7.89461e-08
7.57812e-08
3.9849e-08
1.52156e-08
1.16638e-08
1.16638e-08
1.69677e-08
8.36005e-08
3.75197e-07
4.06699e-07
1.50376e-07
4.61652e-08
4.27749e-10
9.11546e-11
6.90666e-11
4.58529e-11
4.35533e-11
4.35943e-11
6.07966e-11
1.75047e-10
2.34295e-10
1.55856e-10
3.15048e-11
1.57939e-14
3.14664e-31
9.75517e-36
-1.21628e-29
-2.13983e-29
-3.30425e-29
-1.21123e-46
1.17164e-29
2.06619e-05
5.16264e-06
1.8187e-07
4.66927e-07
9.74912e-06
7.40259e-05
9.00205e-05
7.80603e-05
2.70209e-05
1.06424e-06
1.16666e-08
1.16666e-08
5.80343e-08
2.58733e-07
2.86697e-07
2.32663e-07
6.87002e-08
1.16638e-08
1.73112e-08
1.0167e-07
5.69468e-07
8.72057e-07
3.43712e-07
3.83779e-08
2.17374e-11
4.92511e-12
4.92511e-12
2.75084e-11
2.89181e-11
4.48764e-11
4.32766e-11
5.66757e-11
1.46607e-10
1.46006e-10
5.20956e-11
2.76724e-13
9.06136e-19
2.55936e-38
-3.20269e-29
-7.95196e-29
-1.31857e-28
-1.84174e-28
-1.58987e-28
-1.78436e-28
2.32955e-05
1.09886e-05
1.31427e-06
6.63726e-06
6.76953e-05
8.80291e-05
8.04716e-05
3.07565e-05
1.89906e-06
1.16666e-08
1.16666e-08
1.16666e-08
6.03953e-08
2.46784e-07
2.86753e-07
2.01118e-07
4.98598e-08
2.03515e-08
1.21023e-07
1.00273e-06
1.95105e-06
9.31677e-07
7.49743e-08
7.58099e-12
4.99574e-12
7.44016e-12
1.12439e-11
7.84216e-11
7.31952e-11
5.1192e-11
4.14652e-11
5.49727e-11
1.07014e-10
7.40332e-11
5.07991e-12
1.07268e-15
1.6296e-17
2.59058e-37
-1.09322e-28
-2.65474e-28
-4.09476e-28
-5.18221e-28
-5.09462e-28
-4.96785e-28
1.15854e-05
1.15885e-05
1.06985e-05
6.24523e-05
8.67755e-05
8.10418e-05
3.05277e-05
2.0433e-06
2.61614e-08
2.5419e-08
1.61112e-08
1.16666e-08
2.29528e-08
9.60726e-08
1.3608e-07
6.37946e-08
4.0665e-08
9.40754e-08
1.39999e-06
3.60717e-06
2.67842e-06
3.7924e-07
1.74534e-11
5.93884e-12
5.0435e-12
2.82679e-11
4.63701e-11
2.69135e-10
1.7341e-10
5.28142e-11
3.61768e-11
5.06006e-11
6.37526e-11
2.36771e-11
1.38181e-13
1.32688e-15
1.36945e-16
2.54506e-37
-2.62371e-28
-6.00183e-28
-8.55458e-28
-9.82811e-28
-9.2508e-28
-7.81217e-28
3.08892e-06
9.23945e-06
6.52328e-05
8.39553e-05
8.01638e-05
3.46522e-05
3.81761e-06
1.26432e-06
1.3951e-06
9.64633e-07
2.10957e-07
1.16666e-08
1.16666e-08
1.21237e-08
1.37404e-08
1.71345e-08
6.94897e-08
1.17739e-06
5.2697e-06
5.29983e-06
1.39922e-06
1.22202e-08
2.61138e-11
1.62901e-11
6.06769e-12
1.10074e-10
1.45115e-10
3.73739e-10
2.14668e-10
4.72032e-11
2.83558e-11
4.0113e-11
3.11565e-11
2.21056e-12
2.08504e-15
1.28012e-15
2.79942e-16
-1.02684e-36
-4.90522e-28
-1.03244e-27
-1.35439e-27
-1.41564e-27
-1.22477e-27
-9.12014e-28
1.63233e-06
5.95016e-06
3.78561e-05
5.67e-05
4.04106e-05
1.26421e-05
1.30848e-06
2.08907e-06
5.3484e-06
4.56578e-06
1.4281e-06
6.99768e-08
2.02482e-08
1.8681e-08
2.28811e-08
8.63656e-08
1.06351e-06
5.67727e-06
6.06218e-06
2.93043e-06
2.07452e-07
3.15199e-11
6.17886e-11
3.76588e-11
1.15148e-11
2.03011e-10
2.40743e-10
3.75845e-10
1.9628e-10
2.94663e-11
1.94674e-11
2.50143e-11
1.04394e-11
9.43079e-14
9.75098e-16
8.88832e-16
2.38874e-16
3.49158e-19
1.36107e-39
-1.40736e-27
-1.73421e-27
-1.65496e-27
-1.30704e-27
-8.72112e-28
1.53122e-06
2.58969e-06
1.93899e-05
3.52881e-05
2.31345e-05
4.30966e-06
5.63075e-07
4.37787e-06
6.42269e-06
6.42269e-06
5.34608e-06
2.23844e-06
5.07882e-07
2.77844e-07
4.0353e-07
1.94731e-06
5.68161e-06
6.14777e-06
4.32446e-06
6.14036e-07
7.71534e-12
3.14984e-11
8.49204e-11
6.02207e-11
1.87287e-11
2.1106e-10
2.45579e-10
3.07344e-10
1.19883e-10
1.02509e-11
1.09083e-11
1.0412e-11
7.60868e-13
6.98457e-16
4.93226e-16
3.43803e-16
8.84816e-17
3.81785e-20
2.96138e-40
-1.65096e-27
-1.8727e-27
-1.63916e-27
-1.1856e-27
-7.1799e-28
5.45707e-06
2.00982e-05
2.68578e-05
2.61465e-05
9.9942e-06
4.31573e-07
1.38044e-07
7.47118e-07
3.35735e-06
5.30415e-06
6.3595e-06
6.3608e-06
4.55763e-06
3.89053e-06
4.60801e-06
6.27388e-06
6.2875e-06
4.91292e-06
1.06368e-06
7.35637e-12
7.46432e-12
3.58521e-11
8.5823e-11
6.68527e-11
1.89865e-11
1.76129e-10
2.0709e-10
1.40065e-10
3.13945e-11
9.17304e-13
4.10469e-12
1.25381e-12
1.07082e-15
4.48083e-16
2.6595e-16
4.82306e-17
3.19252e-18
-9.21735e-38
-9.44648e-28
-1.71599e-27
-1.75425e-27
-1.41709e-27
-9.44394e-28
-5.24667e-28
1.65911e-05
2.34732e-05
2.25184e-05
1.04809e-05
1.01159e-06
7.32634e-09
2.93046e-08
1.41714e-07
5.63397e-07
1.45439e-06
2.68653e-06
4.57243e-06
6.32258e-06
6.32262e-06
6.32258e-06
6.32262e-06
4.82215e-06
1.30441e-06
3.06567e-10
5.9657e-12
8.675e-12
3.52141e-11
8.37033e-11
6.49514e-11
1.58698e-11
8.67548e-11
1.099e-10
1.55684e-11
1.43924e-13
2.85073e-13
3.59595e-13
3.43707e-15
2.11778e-16
3.12775e-16
1.55866e-16
1.16758e-17
1.20189e-26
-4.10138e-46
-1.05004e-27
-1.51995e-27
-1.45015e-27
-1.09148e-27
-6.74805e-28
-3.47092e-28
7.77016e-06
9.26368e-06
5.65163e-06
1.03586e-06
9.88919e-11
9.64034e-11
1.0627e-10
6.37009e-11
1.82272e-11
3.53416e-08
3.15091e-07
1.39922e-06
3.51151e-06
4.83993e-06
4.86731e-06
3.41441e-06
1.12617e-06
3.23722e-09
8.13992e-12
9.46564e-12
9.8818e-12
2.75428e-11
6.93889e-11
5.48757e-11
1.03715e-11
1.26733e-11
2.15964e-11
2.09354e-15
4.79449e-14
1.32483e-13
1.0229e-14
1.1471e-16
1.53481e-16
1.94667e-16
8.07346e-17
1.92867e-18
1.81403e-25
3.43009e-31
-8.44172e-28
-1.18099e-27
-1.07365e-27
-7.60454e-28
-4.39155e-28
-2.10699e-28
1.01829e-06
5.0403e-07
3.56905e-08
1.90112e-10
1.30553e-10
1.82041e-10
1.46432e-10
7.04823e-11
1.7233e-11
5.0395e-12
3.71489e-12
3.58745e-08
4.75318e-07
1.03533e-06
9.93642e-07
3.66624e-07
3.85694e-12
3.85724e-12
8.13983e-12
1.19047e-11
9.72414e-12
1.09888e-11
3.39455e-11
2.83319e-11
4.11137e-12
8.26342e-16
7.83467e-16
3.11801e-16
1.13527e-14
2.96665e-14
5.8189e-16
8.25444e-17
1.10418e-16
7.84836e-17
1.65805e-17
6.30911e-23
5.46449e-24
1.94097e-29
-5.48962e-28
-8.045e-28
-7.15835e-28
-4.83465e-28
-2.62682e-28
-1.18192e-28
1.53331e-08
2.11073e-09
2.02937e-10
3.31832e-10
4.27379e-10
4.43719e-10
4.08141e-10
2.26306e-10
7.76309e-11
1.5519e-11
3.44159e-12
1.04044e-09
1.88231e-08
4.61871e-08
4.0298e-08
9.44506e-09
3.63201e-12
6.83763e-12
8.46753e-12
7.51925e-12
3.24283e-12
7.72848e-13
3.04636e-12
2.63933e-12
3.38623e-13
1.98378e-16
2.16632e-16
9.34984e-17
9.12122e-16
1.42139e-15
4.85649e-17
2.70827e-17
2.29528e-17
7.61821e-18
6.3508e-19
3.8346e-23
1.00825e-23
2.5213e-25
-3.90054e-45
-1.57305e-28
-1.51681e-28
-9.85185e-29
-4.97349e-29
-2.07382e-29
1.94418e-11
6.94352e-11
1.45681e-10
2.22058e-10
2.52695e-10
2.52878e-10
2.25537e-10
1.41607e-10
5.63092e-11
1.24672e-11
2.11965e-12
3.2158e-13
1.34545e-13
1.28775e-13
3.50024e-13
9.53386e-13
1.96238e-12
2.51607e-12
1.66188e-12
4.62714e-13
-4.57177e-32
4.4994e-33
3.60906e-28
4.59355e-23
6.98169e-21
3.8276e-23
3.36881e-31
3.94191e-30
1.30155e-29
1.7046e-20
1.24743e-21
8.36453e-30
9.14909e-30
3.12147e-29
6.59616e-29
3.12363e-24
2.09196e-24
1.43454e-25
5.31336e-29
-1.32698e-29
-2.46779e-29
-1.6964e-29
-8.39402e-30
-3.42128e-30
3.98021e-12
9.41624e-12
1.68804e-11
2.34699e-11
2.91894e-11
3.16274e-11
3.17805e-11
2.43259e-11
1.21228e-11
2.95277e-12
4.91581e-13
3.26463e-14
3.51751e-15
4.1186e-15
2.34486e-14
6.36687e-14
1.20018e-13
4.08465e-14
1.03257e-24
4.40832e-27
7.9735e-30
1.97184e-33
-2.74298e-50
-9.72253e-44
-2.0524e-41
1.22475e-33
1.19573e-31
3.54852e-31
2.4059e-31
5.02769e-31
9.08342e-31
8.84776e-31
1.75831e-30
1.45546e-29
1.00795e-29
1.23146e-30
1.58254e-42
3.75222e-27
1.00492e-28
-3.32302e-48
-3.72134e-30
-2.76847e-30
-1.38105e-30
-5.62766e-31
2.41194e-15
2.95216e-24
2.55966e-24
2.32714e-24
1.14497e-26
3.73151e-27
2.66126e-26
4.90304e-22
2.38259e-20
6.48674e-20
6.22012e-20
5.85527e-23
8.96016e-26
2.4765e-27
4.12917e-24
3.58739e-22
1.06448e-21
1.0914e-22
9.72553e-25
5.56538e-27
1.49729e-29
4.06628e-33
-2.80482e-34
-2.31654e-33
-1.86672e-33
3.06138e-54
4.23885e-32
1.13255e-32
4.89816e-36
3.47554e-44
2.21642e-48
5.32528e-51
1.2085e-50
3.31386e-30
5.18553e-31
5.38372e-45
-2.36852e-33
4.58686e-47
2.62576e-30
-1.43941e-31
-6.37203e-31
-4.61821e-31
-2.26534e-31
-8.99001e-32
5.1716e-23
1.22975e-24
6.99002e-26
3.64961e-28
1.57625e-30
2.40512e-34
5.26837e-47
-1.14203e-41
8.03795e-22
7.59399e-21
1.21357e-20
5.80014e-23
1.34816e-25
2.11972e-27
1.99463e-29
5.03905e-31
5.16425e-24
3.56888e-23
6.72018e-25
5.83547e-27
2.85476e-29
2.3759e-32
-1.19491e-34
-2.45161e-33
-2.30512e-33
-2.47572e-34
4.10602e-33
1.01408e-34
-7.03209e-36
-6.1217e-35
-2.41953e-34
-3.11693e-34
-2.15125e-34
-5.62652e-50
3.7303e-51
-3.32663e-34
-3.29797e-33
-9.89426e-33
-5.27188e-50
-8.01237e-32
-1.18222e-31
-7.69354e-32
-3.54849e-32
-1.31673e-32
1.43453e-23
7.96892e-25
2.04825e-26
1.90137e-28
1.21394e-30
-3.08789e-34
-1.50565e-33
-1.43794e-33
-1.52607e-41
3.75558e-25
1.66996e-23
4.21513e-23
1.36617e-25
2.57835e-27
2.84284e-29
4.68767e-31
2.15626e-26
9.73943e-25
1.74231e-25
3.78663e-27
3.12143e-29
9.75452e-32
-2.46514e-35
-1.7158e-33
-1.69042e-33
-3.4601e-34
1.08603e-52
-1.16796e-54
-2.23715e-35
-1.26859e-34
-4.39145e-34
-5.19774e-34
-3.44269e-34
-1.21386e-34
-7.26523e-35
-3.76756e-34
-2.23988e-33
-6.0513e-33
-1.06884e-32
-2.22097e-32
-2.12298e-32
-1.20702e-32
-5.06952e-33
-1.70665e-33
8.87744e-26
2.19732e-25
2.58582e-27
1.10761e-28
1.18023e-30
6.19778e-34
-1.83552e-33
-2.16639e-33
-9.66597e-34
2.11428e-45
6.5066e-25
6.95178e-24
7.05072e-26
2.00083e-27
3.3859e-29
4.36587e-31
2.15977e-33
1.37708e-44
6.3848e-29
7.3723e-28
2.02271e-29
1.80468e-31
7.48109e-35
-9.45183e-34
-9.44217e-34
-2.74205e-34
-3.57202e-35
-1.04447e-35
-2.65087e-35
-1.28968e-34
-3.9493e-34
-4.32991e-34
-2.75241e-34
-1.22367e-34
-7.29513e-35
-2.24308e-34
-1.00306e-33
-2.27607e-33
-3.7024e-33
-4.70348e-33
-3.46869e-33
-1.71712e-33
-6.45692e-34
-1.94273e-34
-5.57524e-36
3.4367e-50
7.57135e-30
3.06892e-29
7.98461e-31
3.25178e-33
-1.34245e-33
-1.88428e-33
-1.18352e-33
-3.72112e-34
5.23665e-45
2.56476e-28
6.12474e-27
4.97614e-28
2.20068e-29
4.42246e-31
2.84389e-33
-1.95806e-33
-6.09196e-49
2.46632e-32
3.41996e-30
1.14216e-31
4.62447e-34
-4.3773e-34
-4.35668e-34
-1.51698e-34
-3.12654e-35
-9.82558e-36
-2.0173e-35
-8.76811e-35
-2.38688e-34
-2.4187e-34
-1.46442e-34
-6.74338e-35
-3.87742e-35
-9.29317e-35
-3.36334e-34
-6.42432e-34
-8.78583e-34
-8.30235e-34
-5.04787e-34
-2.18009e-34
-7.27794e-35
-1.94241e-35
-1.80701e-34
-1.03511e-34
5.74482e-54
3.39088e-32
2.19888e-31
4.07569e-33