/*--------------------------------*- C++ -*----------------------------------*\
| =========                 |                                                 |
| \\      /  F ield         | OpenFOAM: The Open Source CFD Toolbox           |
|  \\    /   O peration     | Version:  v1912                                 |
|   \\  /    A nd           | Website:  www.openfoam.com                      |
|    \\/     M anipulation  |                                                 |
\*---------------------------------------------------------------------------*/
FoamFile
{
    version     2.0;
    format      ascii;
    class       volScalarField;
    location    "100";
    object      omega;
}
// * * * * * * * * * * * * * * * * * * * * * * * * * * * * * * * * * * * * * //

dimensions      [0 0 -1 0 0 0 0];


internalField   nonuniform List<scalar> 
14268
(
2.98316
2.98316
2.98316
2.98316
2.98316
2.98316
2.98316
2.98316
2.98316
2.98316
2.98316
2.98316
2.98315
2.98315
2.98315
2.98315
2.98315
2.98315
2.98314
2.98314
2.98314
2.98314
2.98315
2.98315
2.98315
2.98316
2.98317
2.98318
2.9832
2.98321
2.98324
2.98336
2.98383
2.98502
2.98683
2.98751
2.98721
2.98671
2.98566
2.98439
2.98369
2.98336
2.98322
2.98319
0.767352
0.753712
0.742196
0.734141
0.730713
0.733305
0.739865
0.750069
0.76328
0.777942
0.79244
0.808433
0.82607
0.84536
0.865111
0.883379
0.9001
0.916383
0.931163
0.941885
0.94829
0.950869
0.946152
0.931592
0.919386
0.909004
0.872506
0.811871
0.790726
0.781537
0.713344
0.542042
0.397299
0.353781
0.350387
0.360279
0.384579
0.431356
0.5686
0.86073
1.26033
1.58445
1.69624
1.55738
0.322256
0.319898
0.317611
0.315361
0.313653
0.313238
0.314816
0.318443
0.323847
0.330142
0.33638
0.343026
0.350103
0.357432
0.36443
0.370386
0.375454
0.380139
0.383886
0.385528
0.384969
0.382144
0.375137
0.363028
0.352996
0.343984
0.322856
0.292601
0.280509
0.274582
0.251656
0.212925
0.198138
0.215091
0.246116
0.264078
0.268958
0.26939
0.272268
0.329451
0.505324
0.788463
0.965175
0.876669
0.200082
0.199216
0.198217
0.197046
0.196019
0.195503
0.195908
0.197309
0.199645
0.2025
0.205347
0.208354
0.211464
0.214576
0.217408
0.219693
0.221554
0.223275
0.224642
0.225048
0.224293
0.222289
0.218225
0.211799
0.206497
0.201799
0.192469
0.180877
0.177333
0.176775
0.172937
0.167815
0.178044
0.207645
0.243127
0.26137
0.265063
0.262813
0.251958
0.255758
0.310427
0.458867
0.605561
0.591214
0.16077
0.160446
0.160026
0.159493
0.159
0.158715
0.158829
0.159394
0.160388
0.161618
0.162834
0.164125
0.165451
0.166754
0.167872
0.168703
0.169331
0.169902
0.170319
0.170322
0.169786
0.168663
0.166596
0.163526
0.161271
0.159245
0.156078
0.153041
0.153066
0.155059
0.157017
0.160742
0.176227
0.207619
0.243159
0.261402
0.264802
0.262508
0.252825
0.241734
0.257984
0.324963
0.426188
0.439124
0.147719
0.147628
0.147462
0.147229
0.146997
0.146855
0.14688
0.147113
0.147529
0.148049
0.14854
0.149055
0.149574
0.150069
0.150444
0.15067
0.150798
0.150917
0.150995
0.150908
0.150571
0.149982
0.149019
0.147659
0.146652
0.146095
0.145533
0.145759
0.147327
0.150096
0.153647
0.159521
0.176157
0.20769
0.243258
0.26126
0.264873
0.262605
0.253042
0.239573
0.242415
0.271028
0.328099
0.340116
0.143412
0.143413
0.143362
0.143252
0.143125
0.143043
0.143035
0.143137
0.143314
0.143555
0.143754
0.14395
0.144113
0.144235
0.144266
0.144225
0.144137
0.144078
0.144044
0.143954
0.143747
0.143411
0.142907
0.142273
0.141975
0.142019
0.142448
0.143809
0.146017
0.148937
0.152904
0.1593
0.1761
0.207732
0.243682
0.26117
0.264224
0.262084
0.252826
0.239169
0.238455
0.247491
0.279722
0.291257
0.142047
0.142081
0.142078
0.14203
0.141936
0.14186
0.141837
0.141878
0.141962
0.142091
0.142184
0.142252
0.142269
0.142244
0.142157
0.142011
0.141836
0.141687
0.141556
0.141406
0.141216
0.140984
0.140662
0.140339
0.140347
0.14059
0.141448
0.143381
0.145797
0.148706
0.152745
0.159267
0.176111
0.208216
0.243897
0.259868
0.263466
0.261375
0.252333
0.239298
0.23679
0.237935
0.251018
0.256063
0.141609
0.141659
0.141669
0.141643
0.141561
0.141485
0.141459
0.141478
0.141536
0.141617
0.141664
0.141683
0.141654
0.141568
0.141431
0.141252
0.141048
0.140866
0.140694
0.140523
0.140349
0.140152
0.139932
0.139816
0.139923
0.140254
0.141261
0.143351
0.145812
0.148707
0.15275
0.159258
0.176246
0.208531
0.243275
0.258166
0.261703
0.260273
0.251942
0.23949
0.236164
0.23443
0.237464
0.239937
0.141418
0.141479
0.141516
0.141515
0.141435
0.141351
0.141325
0.141341
0.141387
0.141446
0.141475
0.141476
0.141431
0.141327
0.141169
0.140973
0.140758
0.140586
0.140442
0.14029
0.140134
0.139967
0.139808
0.139747
0.139834
0.140187
0.141237
0.143337
0.145789
0.148695
0.152732
0.15926
0.176345
0.20838
0.242297
0.255403
0.258657
0.25794
0.25109
0.239456
0.236071
0.232355
0.228608
0.227112
0.141368
0.141431
0.141466
0.141469
0.141401
0.141315
0.141283
0.141298
0.141356
0.141421
0.141437
0.141429
0.141368
0.141257
0.141101
0.140892
0.140648
0.140454
0.140317
0.140197
0.140076
0.13994
0.139791
0.139703
0.139768
0.140119
0.141172
0.143303
0.145782
0.148679
0.15272
0.15929
0.176436
0.208735
0.241403
0.252925
0.255217
0.254837
0.249737
0.23918
0.23599
0.230593
0.223756
0.220383
0.141352
0.141428
0.141471
0.141468
0.141396
0.141312
0.141281
0.141293
0.141345
0.141405
0.14142
0.141413
0.141361
0.141253
0.141097
0.140885
0.140633
0.140417
0.140251
0.140105
0.139964
0.139811
0.139636
0.139613
0.139748
0.14012
0.141173
0.143316
0.145802
0.148688
0.152729
0.159257
0.176512
0.20879
0.238185
0.250366
0.251788
0.251436
0.247718
0.238815
0.236
0.229923
0.221157
0.215015
0.141353
0.141432
0.141474
0.141472
0.141393
0.141311
0.14128
0.141295
0.141339
0.141392
0.14141
0.141403
0.141353
0.141256
0.141108
0.140899
0.140654
0.140447
0.140289
0.140142
0.139997
0.139847
0.139704
0.139651
0.139729
0.140092
0.14117
0.143292
0.145743
0.148656
0.152698
0.159284
0.176792
0.207994
0.235812
0.247576
0.24913
0.248553
0.245692
0.238308
0.235979
0.229723
0.219579
0.213084
0.141335
0.141412
0.141451
0.141453
0.141386
0.141309
0.141279
0.141289
0.141328
0.141388
0.141406
0.141399
0.141346
0.141243
0.141089
0.140878
0.140632
0.140428
0.140273
0.140137
0.14001
0.139876
0.139722
0.139638
0.139726
0.140075
0.141133
0.143267
0.145746
0.148632
0.152656
0.159324
0.1768
0.207413
0.23382
0.246085
0.246827
0.24617
0.243399
0.237454
0.235916
0.229704
0.218496
0.210497
0.141341
0.14143
0.141475
0.141472
0.141391
0.141303
0.141269
0.141292
0.141337
0.141389
0.141407
0.141397
0.141348
0.141243
0.14108
0.140861
0.140602
0.140385
0.140218
0.140073
0.139934
0.139783
0.139608
0.139556
0.139686
0.140058
0.14112
0.143278
0.145761
0.148636
0.152691
0.159325
0.176687
0.206421
0.23122
0.24575
0.245397
0.243963
0.240295
0.235805
0.235675
0.229503
0.217755
0.209578
0.141334
0.141409
0.141447
0.141444
0.141368
0.141293
0.141266
0.141276
0.141325
0.141382
0.141381
0.141374
0.141328
0.141234
0.141083
0.140865
0.140609
0.140395
0.140234
0.140092
0.139949
0.139791
0.139626
0.13957
0.139679
0.140059
0.141129
0.143249
0.145686
0.148586
0.152652
0.159325
0.176967
0.205288
0.229733
0.246234
0.245182
0.24245
0.236598
0.233336
0.234795
0.229103
0.217061
0.20751
0.141341
0.14142
0.141454
0.141441
0.14135
0.141271
0.141244
0.141259
0.141305
0.141356
0.141375
0.14137
0.14132
0.141223
0.141074
0.140863
0.140611
0.140402
0.140244
0.1401
0.139958
0.139806
0.139638
0.139577
0.139667
0.140047
0.141126
0.14323
0.145664
0.148548
0.152613
0.15937
0.176707
0.203917
0.229629
0.252675
0.250341
0.245088
0.234682
0.231122
0.233971
0.228751
0.216826
0.20615
0.141339
0.14141
0.141441
0.141416
0.141327
0.14125
0.141223
0.141244
0.141296
0.141353
0.141356
0.141337
0.141286
0.141193
0.141043
0.140828
0.140569
0.140358
0.1402
0.140058
0.139919
0.139771
0.139605
0.13952
0.139636
0.140016
0.141086
0.143197
0.145637
0.148528
0.152626
0.159447
0.176509
0.203063
0.23262
0.268416
0.267137
0.255774
0.235845
0.228523
0.233119
0.228655
0.216543
0.204292
0.141324
0.141389
0.141415
0.141403
0.141338
0.14126
0.141229
0.141241
0.141277
0.141323
0.141352
0.141342
0.141294
0.141201
0.141048
0.14083
0.140568
0.14035
0.140186
0.140041
0.1399
0.139744
0.139558
0.139485
0.139603
0.139989
0.141065
0.143162
0.145581
0.148498
0.152641
0.159516
0.17645
0.202988
0.239739
0.28706
0.290751
0.274872
0.241061
0.225851
0.231799
0.228192
0.216146
0.203476
0.141324
0.141395
0.141424
0.141394
0.141338
0.141256
0.14122
0.141235
0.141279
0.141319
0.141331
0.141335
0.141294
0.141198
0.141048
0.14084
0.140592
0.140386
0.140233
0.140097
0.139963
0.139813
0.139633
0.139536
0.139607
0.139981
0.141056
0.143121
0.145553
0.148503
0.152696
0.159591
0.176419
0.204299
0.250854
0.314858
0.326719
0.305199
0.252308
0.224966
0.229944
0.227441
0.216
0.202672
0.141324
0.141407
0.14146
0.14144
0.141342
0.141234
0.1412
0.141209
0.14128
0.141338
0.141317
0.1413
0.14126
0.141168
0.141022
0.140813
0.140567
0.140365
0.14021
0.140069
0.139927
0.139774
0.139608
0.13953
0.139639
0.140042
0.141105
0.143156
0.145616
0.148542
0.152715
0.159656
0.176491
0.207177
0.2643
0.348821
0.36496
0.342018
0.269927
0.225252
0.227085
0.227354
0.215865
0.20255
0.141372
0.14144
0.141466
0.141448
0.141334
0.14123
0.141189
0.141199
0.141254
0.141315
0.14133
0.141316
0.14127
0.141179
0.141029
0.140811
0.140553
0.140346
0.140191
0.140052
0.139913
0.139768
0.139601
0.139512
0.139617
0.140005
0.141057
0.143147
0.145612
0.148529
0.152763
0.159728
0.180753
0.241488
0.387183
0.506258
0.515969
0.498821
0.415608
0.290746
0.230169
0.208764
0.205459
0.201171
0.14146
0.141537
0.141571
0.141568
0.141493
0.141391
0.141336
0.141341
0.141398
0.14145
0.141451
0.141424
0.14137
0.141283
0.14115
0.140945
0.140687
0.140476
0.140321
0.140182
0.140039
0.139874
0.139686
0.139557
0.139616
0.139967
0.140976
0.143065
0.145603
0.148525
0.152826
0.165892
0.22253
0.436373
0.677804
0.755026
0.747179
0.734547
0.681908
0.505441
0.315995
0.231943
0.210123
0.201058
0.141649
0.14173
0.14177
0.141766
0.141675
0.141563
0.141493
0.141476
0.141498
0.141528
0.141514
0.141487
0.141448
0.141368
0.141224
0.141006
0.140747
0.140538
0.140376
0.140223
0.140072
0.139913
0.139745
0.139638
0.139723
0.140085
0.14105
0.143081
0.145633
0.148472
0.15561
0.193127
0.36943
0.704876
0.837401
0.845923
0.832374
0.829692
0.817391
0.706536
0.458402
0.280957
0.228506
0.213621
0.142008
0.1421
0.142142
0.142129
0.142015
0.141852
0.141757
0.141745
0.141778
0.141803
0.141762
0.141708
0.141647
0.141558
0.141413
0.14119
0.140921
0.140703
0.140541
0.140392
0.140237
0.140062
0.139867
0.139729
0.139787
0.140147
0.141125
0.143198
0.145817
0.149604
0.170366
0.267218
0.595155
0.855396
0.90246
0.890336
0.859646
0.867404
0.859866
0.799395
0.579772
0.351531
0.264203
0.241885
0.1426
0.142707
0.142766
0.142737
0.142604
0.142455
0.142342
0.142282
0.142255
0.142233
0.142153
0.142053
0.14196
0.14186
0.141705
0.141477
0.141209
0.140996
0.140828
0.140664
0.140498
0.140318
0.140106
0.139953
0.14001
0.140436
0.14159
0.14404
0.147645
0.158865
0.207319
0.404801
0.767852
0.92546
0.950982
0.928952
0.878356
0.886763
0.889774
0.850843
0.675656
0.43667
0.320226
0.285575
0.144096
0.144164
0.144222
0.144233
0.144177
0.144127
0.144054
0.143946
0.143757
0.143498
0.143172
0.142869
0.142657
0.142477
0.142257
0.141964
0.141671
0.141441
0.141256
0.141075
0.140882
0.140685
0.140474
0.140389
0.140502
0.141147
0.142925
0.14722
0.156577
0.182154
0.271414
0.561198
0.868651
0.986233
1.02935
0.955871
0.905408
0.910741
0.932025
0.908022
0.775746
0.540554
0.401197
0.34312
0.148981
0.148658
0.148556
0.148651
0.148928
0.149331
0.149643
0.149571
0.148894
0.147828
0.146681
0.145609
0.144791
0.144208
0.143704
0.143187
0.142744
0.142418
0.14219
0.141988
0.141785
0.141597
0.141483
0.141531
0.141931
0.143201
0.147159
0.158116
0.180037
0.22572
0.361417
0.69162
0.953551
1.0781
1.07901
0.951211
0.919667
0.932101
0.940552
0.911863
0.828229
0.643947
0.494784
0.406475
0.163331
0.16206
0.161486
0.161762
0.162888
0.16435
0.165529
0.165594
0.163834
0.160807
0.157514
0.154339
0.151709
0.149795
0.148311
0.147013
0.145877
0.145045
0.144531
0.144197
0.143965
0.143902
0.144143
0.144953
0.146574
0.150087
0.160266
0.185582
0.226239
0.292797
0.466655
0.797047
1.04318
1.15477
1.09219
0.941067
0.920569
0.929242
0.927371
0.893945
0.819409
0.682199
0.551153
0.456147
0.194108
0.192491
0.191836
0.1926
0.194756
0.197572
0.199799
0.199696
0.195998
0.189744
0.183004
0.176187
0.170029
0.165232
0.161567
0.158406
0.155394
0.15296
0.15142
0.150641
0.150412
0.150723
0.152051
0.15503
0.159968
0.168879
0.191931
0.240661
0.300701
0.379953
0.568078
0.875375
1.11937
1.22481
1.10929
0.950816
0.926344
0.932536
0.920117
0.863119
0.791529
0.700297
0.602195
0.506025
0.250193
0.250029
0.249997
0.251337
0.25421
0.257919
0.260699
0.259467
0.252139
0.240711
0.229044
0.217129
0.205953
0.196936
0.190028
0.184162
0.178184
0.172716
0.168956
0.167123
0.166857
0.168169
0.172254
0.180346
0.192002
0.210928
0.256263
0.332996
0.399972
0.480461
0.64533
0.938354
1.20677
1.31515
1.13949
0.973715
0.944539
0.940613
0.909089
0.857066
0.789564
0.719966
0.650607
0.550088
0.345825
0.349049
0.35077
0.352399
0.355542
0.359494
0.36202
0.358292
0.344728
0.324725
0.305171
0.285797
0.267315
0.251996
0.240474
0.231236
0.221751
0.212191
0.205022
0.201447
0.201325
0.204738
0.213667
0.230032
0.252182
0.286661
0.361701
0.45967
0.513821
0.564927
0.695422
0.997953
1.29761
1.39768
1.17868
1.00147
0.955005
0.935045
0.90454
0.861927
0.802112
0.745377
0.674573
0.588582
0.498296
0.506615
0.512122
0.516322
0.521433
0.526464
0.527549
0.518462
0.493387
0.458337
0.425636
0.394753
0.365538
0.340786
0.3223
0.308208
0.29433
0.279983
0.268611
0.262929
0.263306
0.269913
0.285807
0.313206
0.348447
0.402069
0.507172
0.610148
0.63003
0.636592
0.741257
1.06101
1.39871
1.50164
1.24997
1.04889
0.984861
0.954605
0.92588
0.884199
0.830986
0.780868
0.7157
0.656601
0.730223
0.747604
0.763254
0.778141
0.791752
0.802407
0.80121
0.779861
0.731393
0.668098
0.611223
0.561021
0.515473
0.476886
0.447604
0.423597
0.400739
0.377949
0.359941
0.350199
0.35051
0.36167
0.386982
0.426699
0.473833
0.542626
0.655785
0.724905
0.715169
0.703247
0.791193
1.13533
1.5162
1.63105
1.36586
1.14949
1.08123
1.05236
1.0316
0.996323
0.955934
0.906149
0.857958
0.818936
1.08093
1.1221
1.16868
1.2189
1.26511
1.29163
1.27508
1.21711
1.11227
0.989708
0.889693
0.811617
0.746767
0.692814
0.647632
0.606156
0.561389
0.520105
0.490333
0.475573
0.475774
0.491486
0.526914
0.576858
0.631779
0.706781
0.807379
0.843798
0.809985
0.786682
0.872617
1.24076
1.68286
1.84618
1.57568
1.35988
1.30121
1.28998
1.29713
1.29592
1.29157
1.2806
1.29439
1.32173
1.65782
1.769
1.90398
2.04717
2.15777
2.20607
2.12089
1.98419
1.77646
1.53056
1.3264
1.19088
1.08651
1.00685
0.9339
0.86265
0.794271
0.73127
0.678325
0.647022
0.643061
0.662143
0.705552
0.764177
0.822371
0.893152
0.967871
0.97551
0.930161
0.915835
1.02198
1.40263
1.85996
2.02073
1.82321
1.66181
1.6339
1.69823
1.77649
1.86626
1.97871
2.13676
2.33198
2.44319
3.06742
3.59684
4.37428
5.18729
5.55568
5.32432
4.53228
3.79708
3.17479
2.58129
2.1242
1.9202
1.72563
1.57724
1.42478
1.25759
1.1008
0.973076
0.890029
0.849271
0.845333
0.871072
0.925461
0.986572
1.03722
1.09467
1.14279
1.14203
1.11663
1.14749
1.30291
1.65064
2.02793
2.16753
2.11989
2.0493
2.09704
2.29414
2.55835
2.8943
3.41108
4.37334
5.8338
6.63116
4.9386
6.07289
8.16519
10.6645
13.9319
14.701
12.7243
10.4535
9.91243
7.96662
3.99167
3.49901
3.00177
2.71346
2.41762
2.08798
1.78884
1.5262
1.33718
1.2306
1.19242
1.20465
1.2605
1.33
1.39127
1.45141
1.50427
1.54213
1.56653
1.65238
1.83736
2.1013
2.38655
2.66462
3.08727
3.68446
4.48715
4.93578
5.53408
6.67493
8.04274
8.23879
9.52752
7.85399
11.0175
13.2776
14.437
15.2608
16.0973
16.5891
17.9059
18.5848
26.7687
40.1494
12.3291
13.1425
9.10722
6.21466
4.50761
3.57087
3.09122
2.66841
2.31057
2.03927
1.89909
1.87615
1.93925
2.04855
2.13464
2.21756
2.31324
2.46494
2.61498
2.84036
3.1417
3.44141
3.86
4.5464
5.32951
6.64393
8.28647
8.67145
10.5447
8.39261
6.39704
5.22102
4.62967
4.1274
14.3978
15.7591
15.9396
14.7088
13.0009
11.421
9.74073
8.66959
7.47807
7.26744
12.71
23.7296
24.1959
19.1818
12.4803
7.55891
5.78048
4.81203
4.16087
3.52902
3.10597
2.97613
2.90672
3.00022
4.39275
4.27509
3.89082
3.93556
4.02081
4.53976
5.34095
5.82573
6.10149
6.70619
6.97754
7.02607
8.86547
10.4065
9.98877
7.28658
5.17413
4.72891
4.24916
3.65416
14.0648
14.0207
12.3991
9.39186
6.77328
5.61292
5.35968
5.2762
4.88953
4.31639
4.78037
5.8802
6.77889
6.66929
6.07935
6.28157
6.90427
6.3664
6.23775
5.8966
5.08053
4.67003
4.31945
4.21869
5.02352
4.65373
4.39927
4.4616
4.46771
4.77367
5.1601
5.44438
5.67136
5.49039
5.4762
5.84063
7.3865
9.51315
9.16633
7.16768
5.62026
4.63099
3.61358
3.02255
11.5696
10.4824
8.30187
5.6424
4.06912
3.67509
3.79849
4.13981
4.01819
3.52934
3.34558
3.44324
3.67499
3.82317
3.7636
3.72077
3.86281
4.6734
6.49391
6.9475
6.35469
5.87374
5.73679
5.73429
5.85624
5.88951
5.92184
5.51931
4.66523
4.25026
4.16694
4.1153
4.04393
4.07639
4.06281
4.16345
5.02973
7.61764
8.00789
6.93098
5.48831
4.1025
3.08234
2.64761
7.23787
6.06545
4.54478
3.21563
2.61646
2.58721
2.86591
3.46067
3.50564
3.23848
2.88322
2.80402
2.85316
2.95311
2.99243
3.00223
3.08936
3.49284
4.41119
5.50051
5.72554
5.54011
5.41444
5.51494
5.76053
5.87652
5.76234
5.13615
4.05163
3.53317
3.37244
3.36852
3.38477
3.43048
3.41734
3.40507
3.84197
5.78443
6.73793
6.17641
5.13479
3.73269
2.77371
2.53324
3.46322
3.0031
2.46669
2.00397
1.8526
1.91382
2.25176
2.96662
3.14674
2.96887
2.67498
2.53958
2.53685
2.58763
2.66963
2.70625
2.77438
3.02218
3.57427
4.26515
4.50997
4.40696
4.25909
4.31892
4.49004
4.64406
4.65014
4.33689
3.62449
3.06052
2.79598
2.72783
2.76583
2.81594
2.87441
2.94464
3.26225
4.57826
5.45825
5.15025
4.41206
3.32636
2.65729
2.60097
1.91878
1.79134
1.64456
1.48897
1.45539
1.52915
1.84649
2.5528
2.84148
2.73716
2.50724
2.37228
2.3588
2.40395
2.49369
2.53386
2.58782
2.75578
3.08697
3.49086
3.62336
3.5654
3.43033
3.4223
3.46892
3.52875
3.59032
3.50634
3.16932
2.7033
2.40024
2.24867
2.21732
2.23393
2.29362
2.46583
2.83454
3.81311
4.53058
4.352
3.82897
3.06064
2.89592
3.02894
1.32489
1.29664
1.26001
1.22594
1.22785
1.29574
1.56923
2.21774
2.5808
2.53202
2.38202
2.27436
2.26101
2.30579
2.40465
2.43878
2.4567
2.56366
2.78403
3.03253
3.09466
3.05001
2.91796
2.87191
2.87461
2.8917
2.95807
2.96119
2.80491
2.4867
2.2123
2.0904
2.04536
2.06222
2.14407
2.35781
2.74983
3.56252
4.06734
3.92345
3.45717
3.20558
3.31535
3.5775
1.0795
1.07115
1.06078
1.06189
1.07838
1.14969
1.38343
1.93826
2.33569
2.33406
2.27252
2.21062
2.20615
2.24484
2.32433
2.34555
2.35206
2.42325
2.56198
2.70899
2.75115
2.71441
2.60638
2.54448
2.52844
2.53111
2.58095
2.61369
2.52525
2.31501
2.07381
1.98805
1.98037
2.02255
2.14115
2.39201
2.81726
3.57714
3.83438
3.66681
3.41948
3.51116
3.85274
3.91951
0.981017
0.97534
0.967585
0.968654
0.983363
1.0444
1.24292
1.71354
2.13023
2.17946
2.1714
2.16561
2.17995
2.22095
2.27501
2.2834
2.27594
2.31419
2.39805
2.48474
2.50832
2.48544
2.40045
2.3286
2.30742
2.30996
2.33956
2.34822
2.28686
2.13146
1.99481
1.96572
1.97967
2.04099
2.20738
2.50062
3.01102
3.62314
3.64217
3.53797
3.59456
3.98925
4.1928
3.92634
0.974627
0.965248
0.947711
0.939085
0.943919
0.986675
1.14801
1.53457
1.92661
2.04936
2.11386
2.14798
2.17277
2.21663
2.25908
2.25159
2.23343
2.23995
2.26329
2.30534
2.3195
2.30375
2.24474
2.18831
2.17288
2.17087
2.17789
2.16666
2.10029
2.00365
1.98576
2.01642
2.10602
2.21354
2.36974
2.64971
3.14841
3.51012
3.50352
3.53985
3.85157
4.21955
4.0524
3.51179
1.05363
1.03257
0.996294
0.953296
0.943176
0.963565
1.08459
1.39657
1.76482
1.92197
2.04624
2.13191
2.17486
2.22554
2.26574
2.25672
2.21946
2.19101
2.16725
2.17401
2.17739
2.16871
2.12819
2.08956
2.09165
2.08921
2.07298
2.0425
1.977
1.93347
1.9486
2.02514
2.21083
2.38769
2.49365
2.68494
3.07651
3.26984
3.3534
3.56316
3.98832
3.98099
3.52143
2.88658
1.16194
1.13478
1.08662
1.01495
0.967562
0.973646
1.05671
1.29604
1.61976
1.81893
2.00438
2.1301
2.1824
2.22556
2.26222
2.26157
2.22775
2.17114
2.11243
2.09301
2.08057
2.069
2.04128
2.00743
2.01789
2.02576
1.99671
1.94627
1.88293
1.87989
1.92116
2.0071
2.20138
2.40034
2.45414
2.56579
2.79983
2.98956
3.23344
3.60071
3.76095
3.42987
2.80459
2.47345
1.25175
1.22705
1.17939
1.09949
1.01204
0.999591
1.05238
1.2299
1.50984
1.74496
1.96217
2.1304
2.19852
2.23388
2.26419
2.27048
2.24338
2.17485
2.09149
2.04642
2.01854
2.00256
1.97767
1.94407
1.947
1.94676
1.91686
1.86805
1.83183
1.86195
1.93275
2.01151
2.15325
2.31927
2.31817
2.36225
2.54282
2.84677
3.20047
3.43077
3.28008
2.7213
2.4171
2.26025
1.31169
1.29078
1.2498
1.17839
1.0747
1.03675
1.06594
1.19386
1.43116
1.70363
1.94878
2.14161
2.21983
2.24113
2.25388
2.27035
2.26255
2.19467
2.08498
2.0152
1.9831
1.96615
1.93786
1.89357
1.87253
1.86585
1.84118
1.79854
1.79651
1.88619
2.03355
2.06463
2.13281
2.22531
2.24057
2.3189
2.5316
2.8615
3.09021
3.04818
2.66645
2.35492
2.27277
2.09639
1.35209
1.33369
1.29715
1.23381
1.13276
1.07791
1.0891
1.19021
1.41331
1.70006
1.95595
2.16027
2.24557
2.25746
2.25523
2.26314
2.27603
2.22192
2.09157
1.99619
1.96654
1.93533
1.8962
1.83853
1.8045
1.78464
1.76056
1.74913
1.78197
1.95493
2.17735
2.16112
2.1362
2.17764
2.24939
2.38945
2.6335
2.83575
2.81315
2.53469
2.29823
2.26016
2.19034
1.90098
1.37856
1.36086
1.32722
1.26989
1.17986
1.115
1.11873
1.21263
1.44301
1.73898
1.99197
2.19868
2.28313
2.28002
2.25379
2.24909
2.27761
2.2411
2.1033
1.98038
1.95406
1.92443
1.87142
1.79436
1.7616
1.74348
1.72484
1.72809
1.79689
2.06154
2.38291
2.31708
2.16833
2.19067
2.34322
2.59574
2.70511
2.67581
2.42522
2.21505
2.20603
2.22289
2.07233
1.6367
1.39615
1.37749
1.34537
1.29178
1.20752
1.14926
1.15832
1.26788
1.53193
1.83991
2.05814
2.24709
2.32696
2.31769
2.27475
2.24817
2.25833
2.23181
2.11088
1.96601
1.93386
1.90478
1.83613
1.76691
1.75139
1.73696
1.71481
1.73006
1.8355
2.17373
2.62079
2.51958
2.24115
2.26519
2.53864
2.69947
2.64756
2.42977
2.20394
2.15921
2.20236
2.1673
1.86268
1.27984
1.41117
1.39105
1.35771
1.30402
1.22673
1.18803
1.21683
1.36861
1.68469
1.99024
2.15131
2.30014
2.37026
2.36198
2.31101
2.25547
2.23721
2.21517
2.11352
1.9541
1.90673
1.87273
1.8022
1.75398
1.75152
1.74722
1.727
1.75193
1.89048
2.28617
2.7497
2.67336
2.37565
2.4235
2.66946
2.6583
2.47132
2.24781
2.16809
2.17514
2.19755
2.0352
1.527
0.865418
1.42524
1.40111
1.36455
1.31031
1.24929
1.24201
1.30636
1.51442
1.87311
2.15993
2.27212
2.36224
2.41309
2.39521
2.32702
2.25252
2.22265
2.20686
2.10557
1.93431
1.87978
1.84485
1.78677
1.74731
1.7479
1.75529
1.74665
1.78509
1.96082
2.40441
2.80498
2.72391
2.52894
2.61942
2.66326
2.48709
2.20747
2.1253
2.1386
2.16672
2.11916
1.76506
1.07629
0.592206
1.44132
1.41139
1.37019
1.31811
1.2917
1.3176
1.43343
1.69263
2.06114
2.31013
2.40669
2.42872
2.42667
2.39791
2.32241
2.24317
2.20896
2.18475
2.07073
1.9044
1.85123
1.82541
1.79443
1.7633
1.74085
1.74703
1.7597
1.83216
2.04904
2.50623
2.83003
2.79044
2.70139
2.67493
2.5403
2.16407
1.93182
1.96361
2.0435
2.05749
1.89379
1.35269
0.720049
0.454829
1.46064
1.42262
1.37713
1.34656
1.35598
1.42544
1.59475
1.88436
2.22128
2.41921
2.50711
2.51542
2.46881
2.38171
2.28447
2.22059
2.21733
2.15469
2.0194
1.87062
1.82451
1.81816
1.82176
1.81423
1.77531
1.75831
1.79338
1.91225
2.15925
2.60089
2.861
2.85081
2.7473
2.61592
2.26347
1.76645
1.64137
1.72732
1.82403
1.79731
1.51511
0.913058
0.529976
0.384348
1.47768
1.43101
1.39866
1.40002
1.44634
1.56653
1.77804
2.07627
2.34691
2.48109
2.54468
2.55111
2.50415
2.40111
2.27734
2.24295
2.26964
2.20994
2.01851
1.85728
1.8169
1.82509
1.85662
1.8555
1.82406
1.81945
1.89511
2.05829
2.3024
2.69819
2.90865
2.85711
2.70574
2.43012
1.85088
1.38296
1.31894
1.41359
1.47189
1.39774
1.05789
0.624446
0.420423
0.331168
1.48699
1.44454
1.44267
1.47354
1.56673
1.73309
1.9725
2.25871
2.44527
2.5106
2.53598
2.52831
2.47617
2.37466
2.26324
2.24816
2.26831
2.21148
2.03232
1.87319
1.84199
1.86026
1.89843
1.89636
1.89181
1.94009
2.11372
2.31709
2.50236
2.80306
2.91616
2.81746
2.57493
2.10855
1.40104
1.06011
0.983824
1.03861
1.04079
0.953636
0.709122
0.4468
0.330671
0.274344
1.49336
1.47865
1.49986
1.5708
1.7094
1.91435
2.1711
2.42491
2.52928
2.53858
2.53664
2.49593
2.41599
2.31371
2.23751
2.2351
2.23902
2.17961
2.03345
1.92011
1.90467
1.93035
1.97101
1.98404
2.0161
2.15747
2.49984
2.69661
2.76337
2.88246
2.88443
2.70804
2.33586
1.67953
1.05307
0.807525
0.72093
0.727714
0.712227
0.644669
0.483944
0.32834
0.258215
0.224848
1.5138
1.52107
1.56961
1.68168
1.8619
2.09787
2.3613
2.56639
2.61104
2.5916
2.56211
2.49123
2.37985
2.26934
2.21664
2.21552
2.20514
2.14583
2.04365
1.99058
1.99954
2.05031
2.12131
2.16565
2.24147
2.49069
2.89809
2.96067
2.90213
2.88154
2.79629
2.51668
1.99484
1.25536
0.805069
0.618516
0.533653
0.5195
0.498451
0.447034
0.342828
0.253193
0.215047
0.201146
1.54066
1.56505
1.64548
1.79643
2.01376
2.27423
2.53044
2.68526
2.7058
2.67536
2.61093
2.5156
2.38621
2.26416
2.21223
2.19952
2.17685
2.12619
2.07695
2.07904
2.12838
2.2445
2.39179
2.47408
2.58728
2.83536
3.02632
2.99124
2.89193
2.81754
2.63733
2.2472
1.57778
0.957171
0.631754
0.481098
0.406237
0.384832
0.363263
0.324673
0.258808
0.212082
0.195873
0.193399
1.56715
1.6107
1.72283
1.91078
2.15858
2.43562
2.66965
2.78504
2.80166
2.77968
2.70348
2.57364
2.40891
2.27443
2.21494
2.18868
2.15922
2.12851
2.13369
2.18437
2.30619
2.53587
2.77953
2.82363
2.85097
2.92822
3.00505
2.94746
2.819
2.68239
2.4098
1.90888
1.20261
0.759417
0.506961
0.382502
0.321363
0.2998
0.280278
0.251648
0.213188
0.193213
0.189738
0.19138
1.5933
1.65843
1.80327
2.02364
2.29283
2.57216
2.77687
2.861
2.87315
2.84745
2.7577
2.6061
2.42486
2.28692
2.21904
2.18259
2.1574
2.15795
2.20701
2.32156
2.54565
2.90901
3.00586
2.92952
2.86542
2.88592
2.90779
2.82806
2.68186
2.48408
2.12066
1.51352
0.940255
0.61943
0.413312
0.312081
0.264223
0.245668
0.229546
0.209966
0.191612
0.186089
0.188165
0.190316
1.62275
1.71113
1.8864
2.1315
2.40951
2.68631
2.86401
2.93129
2.93727
2.89268
2.77769
2.60748
2.42059
2.28715
2.21835
2.18258
2.17415
2.20753
2.30793
2.50151
2.85903
3.11125
3.02081
2.84398
2.77006
2.76744
2.74955
2.64981
2.48931
2.22473
1.77018
1.15125
0.760977
0.511489
0.342616
0.262174
0.225278
0.210626
0.199192
0.188723
0.182832
0.183882
0.187482
0.188782
1.65921
1.77057
1.97115
2.2275
2.50998
2.78344
2.95168
3.01521
3.0008
2.91625
2.7594
2.56769
2.39117
2.27462
2.21591
2.19429
2.20954
2.28219
2.44327
2.73662
3.12141
3.11654
2.86653
2.63215
2.58976
2.59
2.54836
2.43347
2.23992
1.9015
1.361
0.893757
0.62699
0.42521
0.290238
0.227419
0.199338
0.188901
0.182533
0.17917
0.179664
0.183312
0.186123
0.186166
1.70555
1.83806
2.05086
2.31083
2.60062
2.87813
3.05198
3.08674
3.02496
2.87204
2.67105
2.48424
2.34343
2.25628
2.22041
2.22216
2.26629
2.38622
2.62478
3.02499
3.17877
2.98013
2.54937
2.36435
2.37009
2.37499
2.31476
2.17535
1.92879
1.50337
1.00674
0.715826
0.519387
0.356857
0.251873
0.203551
0.183033
0.176681
0.174442
0.175279
0.17889
0.182506
0.183522
0.182495
1.75992
1.91078
2.13204
2.39986
2.70081
2.98756
3.13029
3.105
2.95767
2.73623
2.53686
2.3942
2.29753
2.24893
2.23969
2.26639
2.3488
2.52852
2.87065
3.18878
3.09927
2.65735
2.18967
2.11252
2.13976
2.13316
2.04372
1.86127
1.53441
1.07882
0.76898
0.582503
0.430773
0.303454
0.223515
0.187462
0.173627
0.170569
0.170832
0.174089
0.17828
0.180379
0.179978
0.178051
1.81747
1.98635
2.2208
2.50027
2.82084
3.08537
3.14526
3.02593
2.79001
2.57551
2.42933
2.33619
2.28019
2.26035
2.27568
2.33499
2.46631
2.72689
3.12435
3.17251
2.8492
2.2246
1.90661
1.87819
1.90072
1.8618
1.72289
1.4628
1.08755
0.78803
0.607871
0.476894
0.359175
0.262096
0.202605
0.177006
0.168594
0.167726
0.169501
0.17342
0.176685
0.176945
0.1758
0.173322
1.87493
2.05271
2.30383
2.60884
2.9461
3.12719
3.06459
2.81785
2.61535
2.48881
2.39855
2.336
2.30144
2.30242
2.34392
2.44492
2.64005
2.9962
3.19232
3.00883
2.43656
1.86533
1.65201
1.63352
1.63055
1.54105
1.32254
1.02137
0.770651
0.600692
0.488008
0.391006
0.302356
0.230201
0.187445
0.170464
0.165976
0.16635
0.168783
0.172281
0.173709
0.172812
0.171134
0.169078
1.92893
2.11147
2.37889
2.72292
3.02846
3.07882
2.82624
2.56944
2.51883
2.491
2.44796
2.40296
2.38247
2.39887
2.47141
2.62174
2.89847
3.16455
3.10155
2.6565
1.97243
1.56978
1.38934
1.35384
1.30909
1.16155
0.92835
0.727273
0.580115
0.477294
0.398706
0.325558
0.259676
0.206664
0.176905
0.166431
0.164463
0.165377
0.167865
0.169956
0.16968
0.16864
0.167763
0.166945
1.9818
2.16701
2.45883
2.82934
3.03593
2.89078
2.45336
2.3711
2.45237
2.52495
2.54526
2.53963
2.53828
2.57467
2.68477
2.88918
3.10368
3.11638
2.80103
2.14397
1.57814
1.2724
1.10073
1.03199
0.949371
0.808407
0.65365
0.532958
0.44646
0.378221
0.323641
0.272495
0.226598
0.189753
0.170112
0.163867
0.163259
0.164225
0.166222
0.16648
0.166222
0.166288
0.166668
0.16657
2.03575
2.22022
2.53
2.88677
2.92552
2.47552
2.08281
2.14833
2.33221
2.48237
2.57952
2.64916
2.71054
2.78904
2.90188
3.0163
3.054
2.84451
2.30439
1.66478
1.28341
1.04345
0.893911
0.812136
0.714408
0.595783
0.494494
0.418746
0.360846
0.313404
0.275996
0.239566
0.206212
0.17933
0.165474
0.161867
0.161811
0.162436
0.163474
0.163899
0.164909
0.165742
0.166745
0.166745
2.07854
2.24741
2.52128
2.77086
2.54934
1.85084
1.69351
1.79871
2.00666
2.24588
2.43835
2.57359
2.67548
2.76589
2.85007
2.88459
2.74731
2.287
1.69903
1.29249
1.0357
0.848828
0.70616
0.602239
0.501047
0.412972
0.356166
0.313485
0.277505
0.250959
0.229632
0.207375
0.185636
0.168475
0.160651
0.159631
0.15984
0.1607
0.162155
0.163515
0.164998
0.165995
0.166962
0.166707
2.04405
1.96423
1.7325
1.40981
1.11427
0.99231
1.00745
1.07824
1.16546
1.26373
1.37808
1.4892
1.57571
1.61982
1.59554
1.48171
1.27542
1.03097
0.823445
0.668679
0.548692
0.446274
0.361133
0.300295
0.254601
0.223413
0.207977
0.196286
0.18554
0.178691
0.173373
0.167544
0.161878
0.158566
0.157864
0.158033
0.158601
0.159746
0.161057
0.162159
0.162625
0.162574
0.161931
0.16033
0.813689
0.718203
0.617499
0.533963
0.482436
0.463987
0.465852
0.488749
0.512259
0.531521
0.544064
0.551345
0.557567
0.551952
0.527942
0.483534
0.427838
0.371022
0.323167
0.283356
0.248163
0.216573
0.192302
0.176801
0.16694
0.160817
0.157975
0.156102
0.154654
0.154075
0.153919
0.154213
0.154391
0.154741
0.155169
0.155255
0.155609
0.155952
0.15617