/*--------------------------------*- C++ -*----------------------------------*\
| =========                 |                                                 |
| \\      /  F ield         | OpenFOAM: The Open Source CFD Toolbox           |
|  \\    /   O peration     | Version:  v1912                                 |
|   \\  /    A nd           | Website:  www.openfoam.com                      |
|    \\/     M anipulation  |                                                 |
\*---------------------------------------------------------------------------*/
FoamFile
{
    version     2.0;
    format      ascii;
    class       volScalarField;
    location    "30";
    object      p;
}
// * * * * * * * * * * * * * * * * * * * * * * * * * * * * * * * * * * * * * //

dimensions      [1 -1 -2 0 0 0 0];


internalField   nonuniform List<scalar> 
14268
(
389236
402766
400455
385892
360103
326277
286922
243634
197302
148352
96996.2
43450.6
-12276.8
-70050.4
-129513
-189962
-250254
-308788
-363559
-412322
-452819
-483055
-501548
-507958
-500934
-482257
-453605
-417090
-374789
-328497
-279484
-228377
-175149
-119247
-59806.5
4055.11
72928.8
146812
224910
305482
385959
463315
534353
596081
646086
682819
705790
715386
715410
695432
673632
644356
610115
571757
529954
484958
436806
385515
331282
274630
216519
158301
101728
48515.5
439.917
-41013.4
-74786.1
-100338
-117630
-127127
-129715
-128585
-124125
-116943
-91649
-75868.1
-56128.8
-35848.2
-14380.2
7842.35
30556.2
53378.5
75882.3
97623
118187
137249
154546
170277
184179
196583
207742
217926
227347
236122
244247
251596
257935
262959
266362
267834
267311
265147
259104
251934
242830
232488
221229
209525
197790
186404
175673
165853
157079
149539
143218
138129
134225
131442
129691
128861
128868
129413
130321
131696
133477
135674
137913
141078
143481
146079
148492
150835
153041
155101
156982
158655
160092
161264
162171
162814
163202
163375
163413
163395
163363
163387
163487
163725
164108
164620
165220
165848
166429
166895
167181
167237
167046
166569
165884
164931
163867
162693
161462
160289
306454
320504
320316
314847
299318
275365
245223
210544
172380
131366
87922.2
42623.2
-4402.01
-52841.5
-102269
-152028
-201159
-248393
-292198
-330893
-362819
-386530
-400964
-406028
-400249
-384944
-361558
-331672
-296758
-258083
-216562
-172686
-126530
-77844.6
-26199.3
28822.3
87421.4
149387
214060
279813
344844
406889
463632
512923
553033
582851
602017
610794
611869
595988
579362
555986
528025
496142
460957
422828
381989
338664
293196
246127
198284
150773
104750
61618.2
22615.3
-11192.6
-39040.5
-60532.2
-75684.2
-84895.5
-88772.9
-88990.1
-87164.7
-82996.3
-61282.8
-48782.1
-32394.1
-15467.9
2584.4
21327.1
40511.3
59807.2
78872.9
97367
114981
131471
146713
160512
173017
184284
194471
203738
212214
219960
226964
233128
238291
242238
244768
245660
244953
242944
237549
231376
223604
214836
205308
195398
185440
175743
166563
158115
150555
143992
138464
133982
130516
128014
126404
125593
125491
125926
126610
127711
129195
131079
133029
135856
137983
140304
142456
144548
146513
148342
150006
151483
152751
153798
154609
155199
155588
155810
155926
155992
156055
156156
156319
156579
156942
157390
157889
158389
158830
159155
159312
159263
158997
158482
157786
156861
155844
154735
153581
152489
247011
256535
256787
254793
246147
230115
207934
180957
150208
116396
80139.6
42136.5
2779.02
-37569
-78475.3
-119353
-159412
-197655
-232915
-263935
-289485
-308502
-320202
-324775
-320424
-309320
-291720
-268431
-240415
-208555
-173534
-135777
-95446.4
-52496.5
-6764.58
41904.3
93520.3
147812
204097
261188
317495
371226
420521
463632
499118
526008
543919
552951
555117
542196
528644
508713
484318
456042
424472
390001
352929
313548
272236
229524
186164
143118
101438
62289.9
26764.5
-4202.64
-29924.7
-50024.3
-64449.3
-73478.2
-77695.9
-78252.5
-76853.3
-73540.7
-53915.8
-42559.9
-27549.7
-11937.2
4766.69
22153
39979.5
57938
75713.3
92994.4
109500
125006
139354
152535
164440
175206
184957
193828
201921
209287
215907
221695
226504
230148
232448
233211
232495
230536
225406
219561
212225
203958
194977
185634
176236
167076
158389
150388
143188
136958
131694
127419
124103
121701
120147
119353
119231
119637
120291
121321
122726
124517
126397
129096
131150
133383
135460
137477
139373
141137
142742
144166
145388
146393
147179
147760
148143
148366
148486
148564
148638
148749
148920
149184
149545
149986
150470
150955
151374
151679
151816
151749
151468
150941
150242
149312
148294
147188
146038
144952
199476
204306
204466
203576
199001
188919
173457
153416
129604
102642
72887.8
41469.6
8918.88
-24425.2
-58143
-91711.9
-124481
-155669
-184388
-209693
-230666
-246504
-256589
-261363
-258443
-249929
-235947
-217047
-193867
-167017
-136998
-104164
-68719.2
-30751.1
9713.32
52629.7
97851.5
145040
193650
242500
290381
335888
377585
414123
444380
467581
483385
491799
494209
483868
472847
456058
435082
410427
382635
352126
319266
284422
248016
210571
172762
135400
99340.5
65516
34786.3
7889.06
-14630.2
-32464.7
-45568.8
-54155.2
-58665.5
-59877.5
-58870.9
-56706.2
-39881.6
-30040.5
-16906.4
-3127.72
11670.3
27107.4
42951.2
58925.2
74758.4
90191.5
104995
118984
132034
144089
155061
165036
174091
182313
189762
196462
202390
207473
211600
214630
216435
216870
216062
214139
209400
204105
197530
190165
182187
173897
165557
157416
149680
142535
136088
130499
125762
121902
118897
116707
115275
114524
114370
114711
115295
116173
117409
119006
120726
123173
125062
127109
129015
130864
132600
134211
135673
136967
138077
138995
139720
140260
140637
140880
141038
141160
141282
141437
141642
141919
142266
142668
143090
143496
143826
144039
144092
143953
143617
143058
142343
141423
140429
139360
138256
137220
167354
169168
169019
168382
165633
159007
147976
132792
113958
91948.8
66796.9
40399.8
13106.8
-14783.6
-42883.3
-70730.6
-97781.6
-123412
-146934
-167634
-184821
-197893
-206381
-210931
-208740
-202105
-190910
-175464
-156163
-133410
-107565
-78920.6
-47697.5
-14066.6
21820.3
59788.8
99596.1
140875
183252
225467
266636
305645
341376
372772
398941
419246
433366
441233
443775
435640
426540
412245
394023
372324
347644
320407
291012
259858
227382
194089
160583
127563
95739.6
65891.6
38717.7
14824.1
-5334.47
-21491
-33583.6
-41756.6
-46348.6
-47920.2
-47134
-45485.2
-31126.6
-22327.8
-10630
1770
15130.5
29106
43472.9
57979.4
72384
86460.5
100010
112873
124923
136175
146409
155752
164248
171958
178916
185135
190585
195204
198900
201557
203077
203343
202507
200624
196178
191254
185184
178407
171081
163472
155815
148335
141215
134632
128661
123499
119113
115533
112739
110697
109354
108643
108483
108787
109354
110154
111296
112776
114412
116684
118479
120407
122211
123959
125601
127123
128503
129723
130770
131634
132320
132837
133199
133442
133606
133739
133875
134042
134259
134541
134887
135279
135683
136067
136368
136552
136574
136409
136048
135469
134743
133813
132814
131745
130645
129615
146849
147021
146518
145591
143041
137760
129124
117034
101694
83392.4
61555.9
39100.1
16041.7
-7424.26
-30962.7
-54173.6
-76602.7
-97749.2
-117080
-134053
-148154
-158935
-166047
-170260
-168523
-163229
-154119
-141337
-125109
-105687
-83318.5
-58240.2
-30676.5
-850.859
31000
64610.8
99672.8
135804
172844
209356
244752
278157
308706
335582
358089
375710
388155
395304
397681
391523
383830
371593
355719
336604
314698
290422
264192
236430
207582
178128
148615
119632
91771.2
65669.7
41879.3
20883.1
3047.59
-11405.3
-22411.8
-30065.4
-34605
-36415.5
-35870.8
-34534.9
-22538.6
-14702.4
-4367.39
6710.43
18680
31229.1
44144
57197.2
70176.7
82889.5
95168.7
106881
117904
128315
137762
146425
154316
161467
167890
173580
178506
182614
185829
188066
189257
189312
188426
186556
182396
177850
172309
166158
159535
152671
145769
139026
132601
126658
121223
116570
112598
109354
106818
104962
103737
103085
102931
103198
103750
104466
105501
106844
108379
110448
112124
113909
115586
117208
118729
120136
121409
122531
123492
124287
124917
125405
125757
125999
126177
126330
126491
126682
126918
127207
127546
127915
128283
128621
128865
128989
128954
128737
128333
127724
126978
126043
125050
123996
122919
121916
131319
130852
130222
128985
126422
121809
114611
104592
91723.9
75866.7
56820.5
37579.9
17981.9
-1858.37
-21658.6
-41076.1
-59732.3
-77224.3
-93137.7
-107064
-118621
-127482
-133396
-137178
-135715
-131405
-123902
-113235
-99504.7
-82848.3
-63426.1
-41424.1
-17060.2
9410.12
37693.8
67463.8
98367.9
130017
162511
194158
224648
253292
279430
302438
321776
337030
347938
354352
356499
351956
345372
334836
320958
304080
284608
262951
239532
214781
189143
163074
137059
111600
87191
64351.7
43510.9
25052
9268.42
-3654.95
-13651.5
-20772
-25174.2
-27116.1
-26790.2
-25591.3
-15692
-8678.72
467.056
10385.4
21131.4
32424
44059.6
55832.4
67555.7
79064.3
90218.3
100906
111024
120659
129374
137404
144729
151361
157295
162512
166980
170651
173466
175361
176288
176185
175264
173414
169502
165275
160178
154550
148513
142269
135998
129873
124034
118632
113680
109433
105818
102864
100555
98863.6
97748.8
97155.4
97018.8
97266.4
97802.3
98471.5
99425.2
100661
102120
104015
105598
107263
108838
110357
111783
113099
114288
115333
116228
116966
117562
118011
118340
118575
118754
118911
119082
119284
119531
119827
120166
120529
120883
121202
121417
121512
121445
121197
120763
120128
119363
118410
117406
116345
115268
114267
118591
117958
117183
115779
113254
109101
102890
94338.7
83267.6
68792.1
52379.5
35845
19118.4
2283.63
-14419.8
-30700.6
-46244.3
-60727.5
-73829.2
-85243.3
-94691.3
-101941
-106819
-110131
-108837
-105262
-99017.1
-90052.6
-78379.3
-64046.2
-47143
-27811.9
-6258.51
17244.4
42366.3
68737.8
95977.3
123682
152283
179735
206008
230558
252890
272537
289089
302219
311696
317361
319248
315931
310242
301118
288946
274016
256692
237371
216473
194431
171680
148651
125773
103482
82170.9
62267.6
44095.6
27950.8
14062.4
2580.69
-6428.93
-12984.1
-17176.9
-19167.7
-19037
-17884.9
-9828.17
-3554.81
4527.69
13395
23026.2
33167.5
43625.7
54215.1
64771.9
75156.6
85254.2
94971.5
104193
113125
121117
128521
135284
141403
146853
151608
155630
158879
161310
162875
163548
163287
162330
160485
156794
152857
148169
143029
137543
131888
126220
120692
115423
110554
106083
102232
98981.3
96326
94253.2
92739.1
91745.7
91223.7
91115.7
91356.2
91877
92514
93392.7
94526
95910.4
97634.6
99120.9
100667
102136
103550
104876
106097
107197
108161
108984
109660
110208
110624
110932
111156
111333
111496
111679
111893
112151
112454
112792
113141
113483
113774
113953
114009
113901
113613
113141
112475
111686
110715
109702
108638
107566
106575
107604
106931
106053
104589
102167
98402.2
92938.4
85474.5
75638.8
62470.6
48193.7
33913.9
19586.9
5264.91
-8851.44
-22517.1
-35472.4
-47459.2
-58230.8
-67561.3
-75252.7
-81146.1
-85132.4
-87970.2
-86777.8
-83764.7
-78522.1
-70949.2
-60991.7
-48632
-33902.2
-16905
2169.37
23040.6
45354.4
68712.8
92714.2
116929
142186
166006
188637
209655
228693
245414
259514
270740
278899
283830
285459
283004
278059
270115
259405
246175
230751
213514
194878
175269
155111
134808
114740
95278.3
76743.2
59470.9
43699.5
29649.7
17495
7354.29
-710.438
-6691.36
-10629
-12609.3
-12648.6
-11503.7
-5018.07
585.939
7727.38
15650.2
24275.9
33373.9
42762
52272.5
61762.6
71115.4
80240.3
89063.6
97545.2
105714
113010
119811
126035
131660
136651
140969
144578
147440
149520
150789
151236
150837
149845
148004
144506
140826
136501
131794
126800
121672
116549
111561
106810
102431
98394.3
94919.8
92010.6
89637
87790.2
86447.6
85575
85128.2
85056
85299.5
85806.3
86428.1
87245.1
88289.8
89610.2
91180
92579.1
94016.6
95390.7
96710.3
97946.8
99083.6
100104
100997
101754
102378
102881
103258
103539
103746
103916
104076
104262
104484
104752
105062
105404
105753
106087
106367
106528
106557
106419
106100
105595
104897
104081
103083
102049
100970
99889.6
98893.8
97741.3
97038.1
96111.6
94657.2
92378.5
88964.9
84099.9
77447
68196.6
56599.2
44172.3
31794
19488.1
7283.32
-4655.8
-16125.8
-26914.4
-36817.3
-45647.2
-53241.4
-59464.6
-64215.5
-67436.1
-69824.9
-68689.3
-66112
-61680.6
-55260.1
-46750.3
-36082.6
-23242
-8295.54
8584.14
27115.8
46930.9
67613.8
88751.1
109873
132235
152895
172369
190325
206500
220661
232594
242112
249054
253275
254659
252742
248423
241466
232013
220269
206529
191153
174548
157130
139308
121458
103918
86999.6
70964.4
56065.3
42468.1
30329
19772.1
10887.4
3731.14
-1670.33
-5317.79
-7239.17
-7409.66
-6288.04
-1100.22
3892.7
10201
17272
24987.1
33135.3
41544.9
50064.8
58571.1
66967.4
75185.4
83171.1
90972.8
98382.4
105020
111240
116940
122088
126635
130535
133751
136248
138002
138995
139230
138702
137676
135830
132499
129045
125046
120731
116185
111543
106924
102440
98179.9
94264
90642.6
87526.9
84953.6
82858
81237.3
80069.1
79322.9
78958.8
78931.3
79187.7
79684.2
80302.5
81067.3
82032.2
83294.5
84719.9
86034.1
87368.6
88651
89879.5
91029.5
92083.9
93027.1
93847.9
94539.9
95101.9
95562.6
95903.4
96154.8
96341.8
96498.8
96653.4
96843.2
97070.6
97347
97665.9
98011.2
98365.2
98694.2
98959.1
99103.7
99104.8
98937
98584.5
98042.9
97310.8
96463.4
95435
94379.3
93281.9
92191.8
91191.2
88605.6
87880.1
86941.8
85539.2
83424.1
80328.4
75947.2
69845.7
61168.8
51052.2
40268.7
29493.7
18900.3
8492.2
-1602.14
-11217.5
-20182.7
-28337.9
-35543.7
-41686.6
-46680.6
-50469.1
-53035.1
-55018.5
-53907.6
-51674.6
-47907.8
-42452.1
-35175.4
-25970.5
-14782.9
-1647.47
13282.1
29728.3
47315.7
65620.3
84227.4
102662
122429
140327
157062
172359
186039
197955
207969
215949
221771
225308
226453
224812
221015
214885
206513
196070
183823
170114
155336
139894
124180
108544
93281.8
78654.5
64876.5
52123.1
40500.3
30107.5
21025.9
13318.1
7032.82
2208.83
-1124.32
-2949.62
-3211.6
-2153.19
1994.79
6428.68
12000.3
18303.4
25194.1
32477.3
39992.3
47603.1
55202.2
62712
70083.4
77277.8
84377.1
91082.7
97136
102798
107995
112683
116804
120308
123153
125309
126760
127498
127538
126890
125831
123972
120783
117530
113820
109856
105715
101515
97358.5
93342.3
89541.2
86054.7
82828
80052.5
77804.1
75978
74578.3
73583.2
72965.3
72688.3
72711.7
72989
73479.7
74100.9
74824.8
75721
76927.5
78223.4
79457.2
80696.7
81893.3
83037.1
84106.7
85084.6
85955.9
86710.2
87341.3
87855.2
88264.8
88562.8
88780.7
88942.5
89082.7
89225.9
89414.1
89645.3
89930.2
90259.3
90611.1
90977.6
91308.6
91572.5
91708.9
91686
91494.7
91111.9
90534
89764.1
88881
87816.4
86729.5
85604.7
84496
83482.3
79950.6
79211.6
78285.6
76958.3
75011.8
72199.2
68192.6
62334.1
54522.3
45747.8
36522.3
27021
17884.9
9013.81
493.13
-7547.19
-14971.4
-21656.4
-27500.9
-32429.8
-36394.8
-39373.8
-41383.3
-43017
-41907.1
-39949.4
-36732.3
-32090.9
-25872.7
-17941
-8208.23
3320.21
16510.4
31092.2
46688.7
62874.7
79247
95422.2
112778
128238
142599
155585
167086
177030
185340
191933
196719
199596
200494
198939
195565
190121
182677
173374
162454
150241
137111
123456
109649
96012.5
82808.9
70251.6
58516.6
47709.2
37884.7
29093.4
21377.9
14775.4
9324.95
5072.88
2071.33
371.578
52.317
1010.97
4345.97
8270.24
13190.5
18800.8
24943.9
31438.8
38134.9
44909.9
51671.2
58357.4
64936.4
71385.6
77818.2
83852.6
89348
94473.1
99183.7
103428
107141
110266
112761
114597
115765
116267
116125
115365
114268
112390
109320
106242
102787
99137.7
95362.7
91566.9
87837.5
84255.8
80886.1
77809
74956.5
72506.8
70576.1
69013.7
67832.6
67011.1
66524.6
66340
66421.1
66726.9
67220.1
67843.8
68539.1
69373.4
70532.7
71708.5
72864.8
74015.6
75130.7
76194.3
77187.5
78092.8
78895.3
79584.8
80154.9
80613.9
80976
81232.7
81414.4
81547.1
81665.9
81795
81977.7
82211.3
82504.7
82844.8
83211.4
83590
83927.4
84187.2
84323.6
84284.3
84068.3
83656.2
83040.5
82229.5
81305.7
80202
79077.4
77919.9
76788.1
75757.7
71617.4
70873.1
69975.4
68735.7
66952.8
64382.2
60613.1
55047.1
48163
40575
32602
24341.8
16488.4
8948.12
1779.74
-4916.36
-11034.3
-16480.9
-21184.7
-25099.5
-28205.2
-30506.2
-32045.7
-33391.5
-32266.9
-30530.2
-27769.5
-23819.1
-18514.3
-11696.8
-3251.1
6844.89
18477.6
31386.7
45197.8
59490
73875.7
88058.9
102721
116549
128879
139859
149456
157663
164456
169795
173621
175856
176469
174901
171841
166958
160306
152003
142266
131397
119759
107724
95645.4
83820.7
72480.6
61797.9
51916.5
42878.6
34696.7
27378.1
20931.3
15368.7
10718.3
7029.82
4371.67
2821.05
2475.32
3300.64
6018.14
9481.25
13825.1
18809.8
24274.4
30049.9
35995.9
42001.9
47988.6
53908.8
59745.3
65492.4
71282.3
76692.4
81648.1
86254.5
90495.4
94312.1
97634.3
100399
102562
104098
105002
105283
104973
104110
102968
101064
98090.6
95163
91931.7
88563.3
85118.1
81691.4
78356
75178.7
72217.3
69528.8
67034
64897.4
63275.8
61970.8
61004.9
60356.7
60003.6
59915.3
60059.7
60400.6
60903.3
61529.5
62206.1
62983.8
64105.4
65169.9
66251.2
67320
68358
69346.4
70267.9
71104.8
71842.6
72471.8
72983
73374.3
73701.9
73914.2
74055
74153.9
74246.6
74357.3
74531.6
74766.1
75068.5
75420
75808.7
76204.3
76555.3
76802.5
76960.2
76914.1
76673.7
76232.3
75577.2
74720.4
73749
72604
71431.7
70233.5
69071.5
68018.2
63500.4
62757.4
61899.6
60752.4
59120.2
56738.3
53076.6
48010.9
42016.8
35482
28615.8
21465.6
14755.6
8382.46
2385.24
-3158.63
-8167.63
-12572.4
-16323.6
-19395.7
-21788.7
-23526.2
-24672.4
-25786.2
-24654.6
-23087.5
-20703.4
-17338.7
-12823.8
-6984.59
317.776
9130.75
19361.6
30762.5
42964.8
55556.4
68169.5
80584.7
92922.9
105258
115825
125064
132999
139678
145123
149325
152257
153862
154130
152510
149645
145205
139225
131799
123120
113468
103186
92625.6
82119.3
71938.6
62287.4
53305.5
45103.9
37675.9
30996
25032.9
19765.9
15182.9
11299.9
8166.2
5861.14
4481.11
4139.95
4802.75
7069.04
10118.8
13950.9
18369.2
23216.3
28334.7
33593.4
38892.6
44164.4
49373.3
54514.9
59598.9
64780.9
69596.7
74030.3
78133.8
81919.2
85322.6
88268.9
90690.7
92540.4
93795.5
94454.4
94533
94066.1
93110.7
91914.9
89978
87081.2
84280.9
81242
78120.5
74970.1
71879
68905.8
66105
63531.2
61213.1
59062.4
57236
55909.7
54856.1
54102.3
53627
53409.7
53421.7
53634.6
54016.8
54535.9
55165.6
55833.9
56578.4
57630.4
58611.8
59620.7
60613.7
61578.5
62496
63349.7
64122.2
64798.8
65370
65826.2
66187.3
66442.1
66606.1
66703
66763.5
66825.5
66914.1
67075.8
67309.5
67620.9
67987.3
68401.6
68819.5
69192
69468.1
69617.4
69569.5
69300.6
68834.1
68139.1
67232.7
66201.3
65023.5
63788.6
62542.4
61344
60262.7
58103.8
57366.3
56541.9
55456.7
53911.6
51599.7
48067.7
43395.6
37963.5
32066.3
25865.4
19387.5
13369.5
7694.43
2389.71
-2479.99
-6846.3
-10652.2
-13859
-16450.9
-18437.9
-19853.4
-20773
-21757.7
-20645.9
-19163.8
-16994.6
-13974.5
-9931.75
-4683.12
1925.06
9957.07
19334.2
29816.7
41040.1
52597.9
64137.9
75501.6
86748.3
97941.5
107424
115605
122541
128299
132921
136420
138786
139975
139978
138311
135514
131309
125716
118810
110772
101864
92416
82762.8
73225.3
64057.4
55448.8
47520.1
40362.8
33939.6
28202.2
23094.4
18578
14623.6
11238.6
8470.66
6404.33
5147.12
4823.86
5360.13
7408.28
10209.4
13732.8
17803
22268.8
26979.4
31809.8
36666.7
41488.3
46246.5
50943.8
55601
60391.3
64826.8
68919.9
72693.3
76181.2
79316
82019.3
84220.4
85869.9
86945.7
87448.5
87397.3
86829.9
85815.2
84574
82608.6
79751.1
77022.5
74095
71121.3
68150
65267.7
62522.2
59960.9
57639.4
55563
53638.2
52028.4
50885.7
49998.7
49386.5
49028.2
48904
48986.1
49248.4
49662.1
50195.8
50828.6
51496.3
52223.4
53226.1
54159.1
55121.1
56066.4
56984.3
57856.4
58666.9
59398.3
60035.8
60569.6
60989.5
61317.8
61534.7
61663.8
61728
61759.6
61797.5
61869.9
62019.8
62252.5
62570.9
62951.5
63384.8
63822.6
64214.2
64507.2
64662.3
64613.5
64334.1
63843.6
63120.3
62177.4
61103.8
59890.6
58611.3
57328.1
56101
54997.3
55295.1
54561.3
53755.6
52702.2
51199
48913.4
45469
41006.7
35860.7
30284.7
24417.7
18278
12608.8
7283.63
2324.45
-2210.41
-6258.88
-9769.76
-12709.1
-15065.5
-16853.4
-18110.9
-18918.9
-19840.4
-18745.5
-17302
-15238.2
-12389.5
-8582.99
-3631.01
2627.8
10266.5
19213.6
29233.6
39964
51001.2
62001.2
72840.1
83536.5
94168.7
103107
110754
117188
122481
126689
129831
131907
132881
132740
131043
128273
124180
118778
112132
104417
95884.4
86858.7
77664.8
68617.9
59962.6
51882.1
44487.5
37860.8
31948.6
26691.1
22019.6
17887
14254.8
11126
8547.22
6605.33
5413.57
5102.19
5570.43
7518.83
10195.7
13564.2
17458.8
21731.7
26235.8
30848.9
35480.9
40073.3
44601.2
49070.5
53508.5
58097.6
62338
66255.4
69857.9
73192.2
76188.6
78767
80854.8
82401.6
83385.6
83808.4
83690.6
83071.5
82026.9
80759.5
78778.1
75939.1
73245.4
70372.6
67472.8
64591.6
61815.2
59185.8
56747.3
54555.9
52604.5
50796.7
49301.1
48251.9
47451.5
46912.9
46615.8
46540.5
46659.6
46948.3
47379
47921
48555.7
49223.8
49942.5
50919.5
51828.3
52766.3
53687.2
54581
55429.9
56218.2
56928.6
57546
58060.6
58461.5
58771.4
58969.4
59080
59126.7
59142.5
59167.2
59230.8
59374
59606.3
59928.4
60317.1
60760.9
61209.9
61612.2
61912.6
62073.7
62024
61741.7
61237.4
60498.9
59536.7
58440.6
57206.9
55903.5
54600.2
53357.1
52241.1
52497.6
51768.3
50982.2
49959.9
48494.5
46231.9
42890.9
38640.4
33773.5
28508.2
22964.3
17150.7
11817.7
6828.58
2199.18
-2018.13
-5767.1
-9001.73
-11692
-13829.7
-15433
-16544.2
-17248.4
-18111
-17039.7
-15628.1
-13661.4
-10973.6
-7391.41
-2723.01
3200.2
10459.8
18991.6
28564.6
38818.8
49353.5
59833.7
70172.6
80352.4
90444.6
98859
105996
111950
116799
120607
123404
125196
125955
125665
123931
121177
117184
111960
105563
98160.7
89992.1
81376.8
72628.6
64057.5
55898.1
48328.5
41451.1
35337.4
29920.2
25128.6
20881
17122.8
13806.1
10929.5
8538.32
6721.42
5597.41
5301.11
5700.99
7563.21
10121.5
13341.3
17066
21152.3
25456.3
29858.9
34272.9
38642.7
42946.5
47193.3
51416.2
55808
59855.9
63599.6
67032.6
70214.6
73074.1
75529.3
77505.8
78952.1
79846.6
80191.7
80009.2
79339.8
78266.6
76971.5
74973
72150.5
69489
66667.1
63837.2
61042
58368.1
55851.2
53532.2
51469.9
49641.6
47949.7
46568.8
45611.2
44896.8
44431.6
44195.5
44169.3
44325.7
44641.4
45089.9
45640.8
46277.5
46947.1
47658.1
48609.3
49495.3
50409.7
51306.7
52176.9
53003
53769.7
54459.5
55057.3
55552.9
55935.2
56227.7
56405.8
56497.6
56526.2
56525.5
56536.4
56591
56726.6
56958.1
57284
57681.7
58136.3
58597.5
59011.4
59321.7
59488.2
59438.7
59153.5
58635.4
57881.5
56899.9
55780.6
54524.9
53196.5
51871.8
50611.8
49482.6
49709.4
48985.5
48220.2
47227.7
45795.2
43558.4
40333.2
36295.1
31700.3
26736.3
21505.1
16006.6
10998.4
6332.39
2018.11
-1897.78
-5364.43
-8340.43
-10798.7
-12733.4
-14165.7
-15141.4
-15748.7
-16556.3
-15515.5
-14129.3
-12251.9
-9715.66
-6346.75
-1949.88
3650.49
10544.2
18674.6
27815.3
37608.7
47658
57636.9
67499.5
77189.6
86767.4
94679.2
101327
106823
111248
114672
117134
118648
119192
118749
116969
114220
110316
105260
99100.2
91999.6
84184.1
75967.6
67651.8
59542
51862.3
44786.9
38410.3
32793.3
27856.7
23518.1
19683.3
16291.1
13283.9
10655.9
8450.99
6759.42
5705.12
5426.41
5758.37
7546.21
9991.18
13067.7
16628
20533.2
24643.2
28841.5
33043.8
37197.2
41282.7
45311.3
49324.1
53521.7
57380.1
60952
64216.8
67248
69972.2
72305.8
74173.1
75521.1
76328.3
76597.7
76352.3
75633.9
74533.5
73208.3
71191.9
68383.9
65751.8
62977.1
60213.4
57500.3
54925.5
52518
50315.4
48381.6
46674.9
45097.4
43830.5
42964
42335.2
41943
41768
41791.1
41985.3
42328.4
42795.2
43355.8
43994.9
44666.4
45370.4
46296.1
47160.3
48051.4
48925.1
49772.1
50575.9
51321.3
51991
52569.7
53046.7
53410.5
53684.8
53843.6
53916.2
53926.2
53908.4
53904.8
53958.7
54077.3
54308
54637.8
55045
55511.2
55985.4
56411.9
56732.5
56905.6
56856.7
56570.1
56036.5
55267.2
54265.9
53122.6
51843.3
50489
49142
47864.2
46721.1
46928.9
46211.5
45467.7
44503.8
43098.4
40895
37795.3
33969.2
29640
24968.5
20040.7
14847
10152.9
5798.17
1785.27
-1844.5
-5045.26
-7779.65
-10022.6
-11769.3
-13043.8
-13894.5
-14411.7
-15167.8
-14164.6
-12797.7
-11002
-8608
-5441.76
-1304.8
3984.97
10525.5
18267.6
26989.7
36337
45916.9
55412.1
64821
74046.3
83134.6
90564.9
96744.5
101804
105822
108877
111015
112255
112586
111985
110149
107396
103569
98670.2
92737.5
85928.9
78456.1
70628
62731.8
55069.7
47853.9
41257.2
35365.1
30229.3
25759.1
21861.2
18428.4
15394.2
12690.3
10307.5
8287.37
6721.41
5738.87
5479.78
5745.79
7469.67
9806.26
12744.8
16145.5
19875.1
23796.9
27797.1
31794
35737.2
39610
43425
47232.6
51239.1
54910.5
58312.3
61410.2
64291.8
66882.3
69096.1
70856
72108
72830.1
73025.9
72719.4
71953.2
70826.8
69469.4
67433.9
64638.6
62033.3
59301.9
56600.9
53965.8
51487
49185.7
47099.6
45287.7
43703.3
42239.8
41086
40310.5
39766.8
39447.3
39333.4
39406.1
39638.3
40009.3
40495.2
41065.9
41707.9
42381.7
43079.3
43980
44823.3
45691.5
46542.3
47366.5
48148.4
48873
49523.1
50083
50541.8
50887.3
51143.5
51282.8
51336
51326.9
51291.2
51272.3
51309.3
51426
51655.9
51989.7
52407
52885.5
53373.6
53813.6
54145.4
54326.1
54278.3
53989.5
53444
52655.8
51635.2
50466.8
49162.5
47781.2
46410.8
45114.4
43956.8
44154.7
43444.8
42723.6
41786.4
40401.5
38243
35276.3
31661.1
27591.5
23204.5
18571.6
13672.8
9284.18
5229.1
1504.66
-1853.54
-4804.14
-7313.39
-9357.09
-10930.6
-12060
-12796
-13229.8
-13937.4
-12978.9
-11625.3
-9903.92
-7643.2
-4669.38
-781.133
4209.78
10409.2
17775.3
26091.7
35007
44132.6
53160.3
62137.2
70920.8
79544.2
86513.9
92244.2
96887.5
100517
103218
105040
106013
106131
105369
103465
100698
96936.6
92185.2
86469.3
79944
72804.3
65354.9
57866.4
50639
43871.8
37738.7
32315.6
27645.8
23629
20160
17118.7
14434.6
12028.4
9887.04
8050.39
6610.27
5701.57
5463.46
5667.27
7335.53
9568.85
12374.3
15620.1
19179.2
22918.4
26726.3
30524
34263
37928.9
41537.1
45139.5
48960.1
52446.8
55680.4
58612.4
61345.8
63803.8
65899.6
67554
68712.1
69351.3
69475.7
69110
68297.3
67146
65753.9
63698.5
60914.2
58333.1
55641
52999
50438.1
48052.1
45854.1
43884.2
42188.3
40727
39376.8
38335.3
37650.8
37191.9
36944.8
36892
37014.5
37285
37684.5
38190
38771.5
39416.9
40093.1
40785
41661.1
42484.4
43330.1
44158.4
44960.3
45720.7
46424.9
47055.8
47597.4
48038.3
48365.7
48603.7
48723.5
48756.8
48728
48673.8
48638.8
48661.7
48772.7
49001.6
49339.5
49767.6
50259
50762.1
51216.6
51560.6
51749.7
51703.8
51410.9
50857.1
50048.7
49007.5
47813.3
46482.4
45073
43678.2
42362.1
41189.3
41385.2
40684.3
39986.3
39073.7
37704.9
35603.2
32775.3
29369.4
25553.7
21443.9
17097.4
12484.9
8395.14
4628.65
1180.22
-1920.21
-4635.81
-6936
-8796.27
-10211
-11207.6
-11839.3
-12196
-12857.8
-11951.3
-10604.8
-8950.64
-6814.51
-4023.13
-372.761
4330.62
10200.5
17202.3
25125.3
33621.5
42307
50882.5
59448.2
67812
75994.1
82523.6
87823.5
92070.3
95329
97687.6
99204.8
99915.1
99819.7
98895
96908.9
94119.1
90412.7
85798.9
80290.2
74040.4
67224.9
60145.4
53053.1
46248.3
39914.9
34231
29261.8
25043.5
21467.4
18416.3
15756
13414.6
11300.2
9397.02
7742.44
6428.32
5595.66
5378.94
5526.57
7146.03
9280.99
11957.5
15052.9
18446.3
22008.2
25629.6
29234
32774.9
36239.8
39647.8
43045.5
46684.6
49988.9
53056
55823
58409.4
60736.4
62715.6
64266.5
65332.9
65891.5
65946.5
65523.4
64665.9
63490.4
62061.2
59984.7
57210
54650.4
51993.7
49407.2
46916.5
44620.4
42522.6
40666.2
39085.8
37751.6
36508.5
35578.3
34985.1
34610.8
34435.8
34444
34616.6
34925.7
35354
35879.9
36472.6
37122.2
37800.6
38487.4
39339.8
40143.7
40967.3
41773.5
42553.5
43292.7
43977
44589.1
45112.8
45536.2
45845.8
46065.5
46165.6
46178.8
46129.8
46056.3
46004.5
46015.1
46117.4
46345
46687.1
47126.8
47631.8
48150.8
48620.8
48978.1
49176.5
49133.2
48837.1
48274.6
47445.4
46382.2
45161.9
43802.9
42364.3
40944
39607.4
38418.7
38521.8
37831.8
37158.6
36268.7
34915.6
32883.3
30203.6
27012.4
23454.2
19624.7
15567
11243.3
7455.54
3978.1
803.351
-2043.9
-4531.35
-6631.52
-8318.07
-9582.92
-10454.8
-10989.2
-11272.7
-11889
-11043.9
-9698.86
-8106.83
-6090.76
-3478.14
-63.0672
4353.99
9894.01
16530.1
24057.6
32132.4
40376.2
48498.2
56658.9
64609.2
72358.5
78453.1
83326.4
87182.6
90074.2
92092.9
93303
93746
93430
92334.3
90248.1
87425.5
83764.6
79283.8
73980.1
68008.3
61520
54815.5
48122.2
41743.1
35843.6
30610.3
26096.1
22330.7
19198.5
16568.8
14292.4
12298.3
10480.2
8820.01
7352.52
6169.04
5417.55
5222.16
5320.84
6895.63
8932.81
11479.6
14423.4
17650
21033.8
24467.9
27878.4
31220.4
34482.9
37688.8
40879.4
44332.9
47450.4
50346.6
52943.7
55379
57571.6
59431.8
60877.5
61851.2
62328.7
62314.3
61833.6
60931.8
59731
58261.1
56162.1
53395.9
50855.7
48231.5
45698.7
43276.5
41070.4
39073.4
37332.3
35869.6
34656.8
33533.5
32717.9
32219.5
31932.4
31831.9
31903.2
32127.8
32477.2
32935.9
33483.4
34088.4
34742.9
35423.6
36105.5
36934.1
37718.6
38519.7
39303.6
40061.1
40778.8
41442.8
42036
42541.6
42947.3
43238.7
43439.4
43519.2
43511
43440.5
43346.3
43276.3
43272
43366.2
43592.4
43938.8
44391.2
44911.2
45447.7
45935
46307
46515.9
46476
46176.9
45604.9
44755.6
43667.1
42419.1
41029.8
39559.6
38111.6
36752.8
35546.8
35563.4
34887.1
34240
33370
32036.2
30085.1
27562.3
24590.8
21293.3
17747.1
13980.9
9948.29
6465.9
3277.29
373.135
-2226.62
-4494.3
-6405.53
-7930.12
-9055.76
-9812.35
-10257.9
-10472.8
-11043.4
-10270
-8920.15
-7384.47
-5482.99
-3044.34
139.167
4272.22
9483.11
15752.9
22883.5
30535.6
38336.9
46005
53768.5
61313.3
68640.7
74308.6
78760.6
82234.7
84765.5
86447.4
87349.9
87521.2
86976.8
85702.5
83494.4
80627.3
77000.5
72647.4
67545.5
61854.4
55695.7
49371.5
43078.6
37127.6
31660.2
26877.7
22817.7
19505.1
16819.1
14614
12723.1
11080.5
9562.32
8149.58
6874.1
5825.85
5161.25
4986.67
5045.92
6579.85
8519.69
10936.1
13727.5
16786.4
19991.5
23238.2
26454.7
29597.7
32657.7
35660.4
38640.9
41905.8
44832
47553
49975.4
52255.5
54310.5
56049.2
57388.3
58268.8
58665.1
58581.4
58043.6
57098.7
55870.5
54356.5
52233
49474.3
46951.1
44355.5
41874.4
39518.1
37402.1
35505.6
33882.1
32539.3
31448.2
30451.2
29753.4
29353.3
29156.2
29132.4
29269
29547.7
29939
30429.5
31000.2
31618.4
32278.7
32961.9
33639.2
34444.1
35209.1
35987.4
36748.4
37483.3
38179.1
38822.6
39396.6
39884.1
40271.9
40544.7
40725.8
40784.4
40753.8
40660.3
40543.8
40454.1
40433.8
40518.7
40743.2
41094.4
41560.6
42097.1
42652.9
43159.3
43547.8
43768.6
43733.1
43431.1
42847.7
41980.5
40863.7
39585.4
38162.9
36658.8
35180.8
33797.9
32573.6
32606
31946.5
31325.3
30471.4
29162.8
27300.9
24937.6
22183.1
19141.2
15873
12392.3
8644.36
5461.01
2553.73
-92.7163
-2458.55
-4522.01
-6262.14
-7642.36
-8644.17
-9298.8
-9667.5
-9820.57
-10346.1
-9651.84
-8291.9
-6804.78
-5008.56
-2733.35
230.001
4090.72
8983.89
14898.5
21643.4
28884.7
36257
43485.3