/*--------------------------------*- C++ -*----------------------------------*\
| =========                 |                                                 |
| \\      /  F ield         | OpenFOAM: The Open Source CFD Toolbox           |
|  \\    /   O peration     | Version:  v1912                                 |
|   \\  /    A nd           | Website:  www.openfoam.com                      |
|    \\/     M anipulation  |                                                 |
\*---------------------------------------------------------------------------*/
FoamFile
{
    version     2.0;
    format      ascii;
    class       volVectorField;
    location    "30";
    object      U;
}
// * * * * * * * * * * * * * * * * * * * * * * * * * * * * * * * * * * * * * //

dimensions      [0 1 -1 0 0 0 0];


internalField   nonuniform List<vector> 
14268
(
(-0.418697 -0.050062 0)
(-0.41499 -0.0391482 0)
(-0.464898 -0.0294001 0)
(-0.507188 -0.0233361 0)
(-0.542585 -0.018776 0)
(-0.572105 -0.0150297 0)
(-0.596166 -0.01183 0)
(-0.615002 -0.0089995 0)
(-0.628723 -0.00638922 0)
(-0.637315 -0.00386191 0)
(-0.64064 -0.00128154 0)
(-0.638343 0.00140583 0)
(-0.629872 0.00435134 0)
(-0.614563 0.00763609 0)
(-0.591637 0.0113224 0)
(-0.560285 0.0154224 0)
(-0.519769 0.0198823 0)
(-0.469531 0.0245735 0)
(-0.409325 0.0292955 0)
(-0.339317 0.0337914 0)
(-0.260161 0.0377754 0)
(-0.17303 0.0409714 0)
(-0.0794605 0.043156 0)
(0.0181617 0.0442139 0)
(0.117719 0.0440478 0)
(0.217423 0.0425982 0)
(0.315039 0.0402349 0)
(0.408855 0.0372851 0)
(0.497587 0.0340644 0)
(0.580448 0.0308628 0)
(0.657064 0.0278898 0)
(0.727312 0.0252307 0)
(0.791098 0.0228276 0)
(0.848118 0.0204848 0)
(0.897648 0.0179166 0)
(0.938432 0.0148056 0)
(0.968684 0.0108765 0)
(0.986215 0.00596179 0)
(0.988708 -4.14908e-05 0)
(0.974021 -0.0067653 0)
(0.940392 -0.0140478 0)
(0.886818 -0.0214225 0)
(0.813303 -0.0283962 0)
(0.720932 -0.034491 0)
(0.611814 -0.0393121 0)
(0.488889 -0.0426047 0)
(0.355723 -0.0442757 0)
(0.214754 -0.0444502 0)
(0.0764903 -0.0423072 0)
(-0.0635368 -0.040984 0)
(-0.205424 -0.0383026 0)
(-0.337929 -0.0353126 0)
(-0.464196 -0.0322645 0)
(-0.582605 -0.0293669 0)
(-0.692507 -0.0266141 0)
(-0.793019 -0.0238953 0)
(-0.883014 -0.0210252 0)
(-0.96099 -0.0178065 0)
(-1.02509 -0.0140813 0)
(-1.07326 -0.00978003 0)
(-1.10345 -0.0049523 0)
(-1.114 0.00020987 0)
(-1.10366 0.00559411 0)
(-1.07212 0.010748 0)
(-1.01999 0.0154028 0)
(-0.948833 0.0192937 0)
(-0.861035 0.0222416 0)
(-0.759661 0.0242052 0)
(-0.648106 0.0254218 0)
(-0.52972 0.0263156 0)
(-0.405507 0.0271267 0)
(-0.279012 0.0247552 0)
(-0.155323 0.0237648 0)
(-0.0530122 0.0224119 0)
(0.0557283 0.0221117 0)
(0.173421 0.020554 0)
(0.272229 0.0190913 0)
(0.366216 0.0174395 0)
(0.451264 0.0156791 0)
(0.527632 0.0137463 0)
(0.594393 0.0116387 0)
(0.650942 0.00938101 0)
(0.696806 0.00703675 0)
(0.731802 0.00469625 0)
(0.756079 0.00245221 0)
(0.770213 0.000389075 0)
(0.77458 -0.00179087 0)
(0.770562 -0.00250608 0)
(0.759311 -0.00365278 0)
(0.741078 -0.00453765 0)
(0.716619 -0.00530707 0)
(0.686133 -0.00607994 0)
(0.649479 -0.00697417 0)
(0.606214 -0.00807213 0)
(0.555737 -0.00940408 0)
(0.497458 -0.0109419 0)
(0.431003 -0.0126026 0)
(0.356324 -0.0142626 0)
(0.273997 -0.0157714 0)
(0.184563 -0.0169701 0)
(0.0889907 -0.0178939 0)
(-0.00494762 -0.0177925 0)
(-0.100269 -0.01765 0)
(-0.197109 -0.0166714 0)
(-0.287246 -0.0152223 0)
(-0.370704 -0.0133085 0)
(-0.444691 -0.0110754 0)
(-0.507775 -0.00864331 0)
(-0.558747 -0.00614047 0)
(-0.596946 -0.00367347 0)
(-0.622251 -0.00133832 0)
(-0.634764 0.00088326 0)
(-0.635432 0.00244551 0)
(-0.624978 0.00415216 0)
(-0.604165 0.00548713 0)
(-0.574405 0.00654675 0)
(-0.536919 0.0073394 0)
(-0.493069 0.00788609 0)
(-0.444151 0.00822819 0)
(-0.391656 0.00836784 0)
(-0.335634 0.00872505 0)
(-0.277018 0.00747023 0)
(-0.219541 0.0070895 0)
(-0.164713 0.00660273 0)
(-0.112346 0.00600926 0)
(-0.0622291 0.0054463 0)
(-0.018082 0.00454246 0)
(0.0274577 0.00449645 0)
(0.0727812 0.00375804 0)
(0.110996 0.00324679 0)
(0.14624 0.00268138 0)
(0.176911 0.00213425 0)
(0.203369 0.00156271 0)
(0.225321 0.000967821 0)
(0.242699 0.000353312 0)
(0.255509 -0.000272803 0)
(0.263991 -0.000862267 0)
(0.268387 -0.00163064 0)
(0.26945 -0.00164126 0)
(0.26839 -0.00161921 0)
(0.26624 -0.00156769 0)
(0.263517 -0.00170098 0)
(0.261548 -0.00102157 0)
(0.26231 2.04233e-05 0)
(0.266502 0.00105573 0)
(0.27429 0.00186193 0)
(0.284464 0.00214962 0)
(0.295809 0.00231262 0)
(0.307115 0.00218942 0)
(0.31635 0.00173962 0)
(0.321267 0.00092582 0)
(0.319749 4.78397e-05 0)
(0.30976 -0.00109466 0)
(0.289612 -0.0021959 0)
(0.258241 -0.00313053 0)
(0.215488 -0.00377021 0)
(0.161962 -0.00401288 0)
(0.0979958 -0.00392309 0)
(0.0274318 -0.00306588 0)
(-0.0479999 -0.0022801 0)
(-0.12819 -0.00100803 0)
(-0.20623 0.000407598 0)
(-0.283743 0.00177633 0)
(-0.352446 0.00321308 0)
(-0.393539 -0.00453765 0)
(-0.412183 0.00534009 0)
(-0.463628 0.0123418 0)
(-0.507506 0.0146589 0)
(-0.543368 0.0142235 0)
(-0.573025 0.0126222 0)
(-0.597126 0.0104824 0)
(-0.615967 0.00804927 0)
(-0.629682 0.00541801 0)
(-0.638266 0.00261702 0)
(-0.641613 -0.000393963 0)
(-0.63936 -0.0037114 0)
(-0.630933 -0.00741808 0)
(-0.615675 -0.0115552 0)
(-0.592796 -0.0161406 0)
(-0.561472 -0.0211637 0)
(-0.520949 -0.0265696 0)
(-0.470653 -0.0322458 0)
(-0.410318 -0.0380168 0)
(-0.340099 -0.0436503 0)
(-0.260648 -0.0488755 0)
(-0.173141 -0.0534118 0)
(-0.0791271 -0.0569977 0)
(0.0189525 -0.0592989 0)
(0.118877 -0.0604728 0)
(0.218911 -0.0598668 0)
(0.316865 -0.0580032 0)
(0.410946 -0.0552784 0)
(0.499854 -0.0519764 0)
(0.582819 -0.0483285 0)
(0.659496 -0.0444882 0)
(0.7298 -0.0405087 0)
(0.793678 -0.0363374 0)
(0.850859 -0.0318215 0)
(0.900643 -0.026739 0)
(0.941777 -0.0208353 0)
(0.972453 -0.0138773 0)
(0.990402 -0.00572018 0)
(0.993313 0.00368553 0)
(0.978939 0.0141821 0)
(0.94537 0.0254662 0)
(0.891596 0.0370559 0)
(0.817578 0.0483714 0)
(0.724409 0.0588075 0)
(0.614247 0.0678154 0)
(0.49012 0.0749715 0)
(0.355681 0.0800489 0)
(0.213864 0.082973 0)
(0.0742517 0.0855525 0)
(-0.0670457 0.0830867 0)
(-0.209262 0.0809327 0)
(-0.342178 0.0776723 0)
(-0.468739 0.0737205 0)
(-0.587396 0.0691153 0)
(-0.697547 0.0639055 0)
(-0.798375 0.0580069 0)
(-0.888782 0.0512571 0)
(-0.967262 0.0434685 0)
(-1.03191 0.0344868 0)
(-1.08059 0.0242528 0)
(-1.11118 0.0128613 0)
(-1.12184 0.000517084 0)
(-1.1113 -0.0122595 0)
(-1.07922 -0.0250496 0)
(-1.02618 -0.0372497 0)
(-0.953766 -0.0482952 0)
(-0.864468 -0.0577077 0)
(-0.761387 -0.0651346 0)
(-0.64794 -0.0702607 0)
(-0.52767 -0.0729068 0)
(-0.402998 -0.0729846 0)
(-0.275936 -0.0752036 0)
(-0.15097 -0.0749751 0)
(-0.0478752 -0.0733294 0)
(0.0610917 -0.0662482 0)
(0.178514 -0.0630944 0)
(0.277448 -0.0586299 0)
(0.37151 -0.0540874 0)
(0.456678 -0.0490114 0)
(0.533148 -0.0434853 0)
(0.59996 -0.0375121 0)
(0.656463 -0.0311859 0)
(0.702142 -0.024655 0)
(0.736794 -0.0181165 0)
(0.760569 -0.0117895 0)
(0.773951 -0.00587127 0)
(0.777953 -0.000687962 0)
(0.773483 0.00447674 0)
(0.761438 0.00881787 0)
(0.742836 0.0127792 0)
(0.718167 0.0165258 0)
(0.687634 0.020267 0)
(0.651058 0.0241957 0)
(0.60793 0.028452 0)
(0.557567 0.0330887 0)
(0.499294 0.0380492 0)
(0.432658 0.0431643 0)
(0.35756 0.048161 0)
(0.274559 0.0527078 0)
(0.184151 0.0564337 0)
(0.0875948 0.0588264 0)
(-0.00756982 0.0607008 0)
(-0.104228 0.0598136 0)
(-0.202129 0.0578603 0)
(-0.293246 0.0541435 0)
(-0.377423 0.0490469 0)
(-0.451857 0.0427343 0)
(-0.515094 0.0355257 0)
(-0.565939 0.0277332 0)
(-0.603763 0.0196726 0)
(-0.628461 0.0116365 0)
(-0.640374 0.00391273 0)
(-0.640226 -0.00346927 0)
(-0.628763 -0.0101951 0)
(-0.607085 -0.0162264 0)
(-0.576429 -0.021487 0)
(-0.538068 -0.0259181 0)
(-0.493375 -0.0294936 0)
(-0.443659 -0.0321878 0)
(-0.390296 -0.0340249 0)
(-0.334017 -0.034564 0)
(-0.275031 -0.0362166 0)
(-0.216719 -0.0363293 0)
(-0.161588 -0.0355412 0)
(-0.109001 -0.0343545 0)
(-0.0588634 -0.0325986 0)
(-0.0144863 -0.0312744 0)
(0.0310927 -0.0279797 0)
(0.076172 -0.0260339 0)
(0.114389 -0.0234853 0)
(0.149564 -0.0209828 0)
(0.180189 -0.018282 0)
(0.206574 -0.0154557 0)
(0.22841 -0.0125051 0)
(0.245586 -0.00949367 0)
(0.25808 -0.0065307 0)
(0.266017 -0.0037667 0)
(0.269948 -0.00146571 0)
(0.270476 0.000429451 0)
(0.268504 0.00159599 0)
(0.265365 0.00181633 0)
(0.262049 0.000822511 0)
(0.25995 -0.000243846 0)
(0.260613 -0.0018288 0)
(0.264925 -0.00364136 0)
(0.273102 -0.00558876 0)
(0.284137 -0.00745983 0)
(0.29675 -0.00822962 0)
(0.309394 -0.00763601 0)
(0.319874 -0.00541996 0)
(0.325846 -0.00154739 0)
(0.324906 0.00395239 0)
(0.314906 0.010709 0)
(0.294164 0.0184096 0)
(0.261554 0.0264483 0)
(0.217011 0.0342403 0)
(0.161266 0.041255 0)
(0.0950159 0.0468104 0)
(0.0220832 0.0510306 0)
(-0.0555053 0.0529687 0)
(-0.137243 0.0530891 0)
(-0.216378 0.0512695 0)
(-0.294283 0.0475087 0)
(-0.36284 0.0424297 0)
(-0.375729 0.00753408 0)
(-0.409614 0.0157535 0)
(-0.462397 0.0201541 0)
(-0.507462 0.0225598 0)
(-0.544245 0.0218802 0)
(-0.574284 0.0194248 0)
(-0.598523 0.0160764 0)
(-0.617406 0.012252 0)
(-0.631124 0.00813071 0)
(-0.639714 0.00379591 0)
(-0.64308 -0.000637454 0)
(-0.640877 -0.00537163 0)
(-0.632528 -0.010561 0)
(-0.617338 -0.0161918 0)
(-0.594507 -0.022259 0)
(-0.563201 -0.0287236 0)
(-0.522645 -0.0354894 0)
(-0.472248 -0.0423918 0)
(-0.411728 -0.0491987 0)
(-0.341232 -0.0556245 0)
(-0.261413 -0.0613569 0)
(-0.17346 -0.0660924 0)
(-0.0789041 -0.069578 0)
(0.0197092 -0.0713877 0)
(0.120374 -0.072017 0)
(0.221179 -0.0706384 0)
(0.319496 -0.0678894 0)
(0.413725 -0.0642068 0)
(0.502659 -0.059913 0)
(0.585574 -0.0552663 0)
(0.662167 -0.0504343 0)
(0.73239 -0.0454745 0)
(0.796217 -0.040332 0)
(0.853394 -0.0348567 0)
(0.903218 -0.0288338 0)
(0.94442 -0.0220314 0)
(0.97516 -0.0142563 0)
(0.993173 -0.00541683 0)
(0.996037 0.00447781 0)
(0.981489 0.0152094 0)
(0.947666 0.0265186 0)
(0.893498 0.0379034 0)
(0.818972 0.0488161 0)
(0.725216 0.0587096 0)
(0.614432 0.0671094 0)
(0.489701 0.0736739 0)
(0.354722 0.0782572 0)
(0.212681 0.0808904 0)
(0.0723777 0.0829846 0)
(-0.0694138 0.0799121 0)
(-0.211476 0.0778789 0)
(-0.344526 0.0745309 0)
(-0.471138 0.0704913 0)
(-0.589831 0.0657858 0)
(-0.699995 0.0604761 0)
(-0.800816 0.0545144 0)
(-0.891191 0.0477985 0)
(-0.969605 0.0402106 0)
(-1.03414 0.0316677 0)
(-1.08266 0.0221645 0)
(-1.11302 0.0118187 0)
(-1.1234 0.000867255 0)
(-1.11254 -0.0103996 0)
(-1.08009 -0.0215055 0)
(-1.02667 -0.0320152 0)
(-0.953899 -0.0414944 0)
(-0.86426 -0.0495812 0)
(-0.760904 -0.0560188 0)
(-0.647294 -0.0607292 0)
(-0.526861 -0.0637991 0)
(-0.402399 -0.0651784 0)
(-0.275789 -0.0668466 0)
(-0.150657 -0.0697209 0)
(-0.0458851 -0.0697915 0)
(0.0633078 -0.0611956 0)
(0.179781 -0.059308 0)
(0.278918 -0.0552946 0)
(0.37289 -0.0513399 0)
(0.45803 -0.0467951 0)
(0.534422 -0.0418226 0)
(0.601136 -0.0364315 0)
(0.657525 -0.0307133 0)
(0.703089 -0.0247881 0)
(0.737631 -0.0188073 0)
(0.761315 -0.0129314 0)
(0.774686 -0.00729954 0)
(0.778472 -0.00190281 0)
(0.773878 0.00268018 0)
(0.761927 0.00726144 0)
(0.743248 0.0115374 0)
(0.718483 0.0156406 0)
(0.687828 0.0197055 0)
(0.651103 0.0238661 0)
(0.607806 0.0282196 0)
(0.55726 0.0327995 0)
(0.498801 0.0375569 0)
(0.431987 0.0423568 0)
(0.35673 0.0469779 0)
(0.273594 0.0511563 0)
(0.183078 0.0545772 0)
(0.0866129 0.0567776 0)
(-0.00864351 0.0588378 0)
(-0.105399 0.0580203 0)
(-0.203163 0.0564558 0)
(-0.294241 0.0531967 0)
(-0.378331 0.0486693 0)
(-0.452683 0.0429508 0)
(-0.515828 0.0363169 0)
(-0.56658 0.029031 0)
(-0.604303 0.0213737 0)
(-0.628919 0.0136271 0)
(-0.640622 0.0059987 0)
(-0.640368 -0.00103184 0)
(-0.628912 -0.00794369 0)
(-0.607091 -0.0141574 0)
(-0.576324 -0.0196736 0)
(-0.537855 -0.0244053 0)
(-0.493059 -0.0283141 0)
(-0.44326 -0.0313515 0)
(-0.389806 -0.0335618 0)
(-0.333594 -0.0347313 0)
(-0.274778 -0.0361208 0)
(-0.216364 -0.0373652 0)
(-0.161086 -0.0369815 0)
(-0.108434 -0.0361493 0)
(-0.058374 -0.0345723 0)
(-0.0137952 -0.0336263 0)
(0.0318313 -0.0300251 0)
(0.0766799 -0.028228 0)
(0.114917 -0.0256087 0)
(0.150005 -0.0231 0)
(0.180564 -0.0203553 0)
(0.206858 -0.0174933 0)
(0.228601 -0.0145148 0)
(0.24569 -0.011486 0)
(0.258113 -0.00850815 0)
(0.266071 -0.00570972 0)
(0.269903 -0.00319954 0)
(0.27037 -0.0014013 0)
(0.268599 -0.000372794 0)
(0.265655 9.52899e-05 0)
(0.26256 -0.000248826 0)
(0.260587 -0.000948851 0)
(0.261323 -0.0021408 0)
(0.265674 -0.00353653 0)
(0.273713 -0.00513129 0)
(0.284516 -0.00658183 0)
(0.296834 -0.00719413 0)
(0.309108 -0.00660276 0)
(0.319176 -0.00452656 0)
(0.324695 -0.000871584 0)
(0.32341 0.00423781 0)
(0.313193 0.010863 0)
(0.292337 0.0185864 0)
(0.259777 0.0269344 0)
(0.215463 0.0353871 0)
(0.160076 0.0434237 0)
(0.0942681 0.0503302 0)
(0.0218609 0.0561005 0)
(-0.055239 0.0598383 0)
(-0.136571 0.0616869 0)
(-0.215425 0.0615306 0)
(-0.293132 0.0590585 0)
(-0.361642 0.0550876 0)
(-0.362636 0.02265 0)
(-0.408177 0.0266663 0)
(-0.461876 0.0278969 0)
(-0.507659 0.028405 0)
(-0.545308 0.0269367 0)
(-0.575883 0.0237853 0)
(-0.600388 0.0196185 0)
(-0.619398 0.0148799 0)
(-0.633175 0.00978857 0)
(-0.641744 0.00445022 0)
(-0.645101 -0.000838441 0)
(-0.642983 -0.00668298 0)
(-0.63473 -0.0130809 0)
(-0.619624 -0.0200257 0)
(-0.59686 -0.0275207 0)
(-0.565585 -0.035524 0)
(-0.524999 -0.0439201 0)
(-0.474485 -0.0525056 0)
(-0.413739 -0.0609905 0)
(-0.342898 -0.0690159 0)
(-0.262617 -0.0761869 0)
(-0.174107 -0.0821196 0)
(-0.0788807 -0.0864911 0)
(0.0203389 -0.0888404 0)
(0.121471 -0.0897323 0)
(0.222742 -0.0889386 0)
(0.321483 -0.0865933 0)
(0.416037 -0.08295 0)
(0.505184 -0.0783504 0)
(0.58822 -0.0731089 0)
(0.66488 -0.067451 0)
(0.735164 -0.0614689 0)
(0.799092 -0.0551013 0)
(0.856443 -0.0481401 0)
(0.906539 -0.0402676 0)
(0.948107 -0.0311191 0)
(0.979279 -0.0203668 0)
(0.997706 -0.00780719 0)
(1.00097 0.00636076 0)
(0.986723 0.0223174 0)
(0.952974 0.0394344 0)
(0.898626 0.0570069 0)
(0.823641 0.0741914 0)
(0.729162 0.0901057 0)
(0.617441 0.103945 0)
(0.491642 0.115091 0)
(0.355561 0.123214 0)
(0.212704 0.128269 0)
(0.0709366 0.131558 0)
(-0.0719109 0.128175 0)
(-0.214131 0.125584 0)
(-0.347709 0.120845 0)
(-0.474658 0.114906 0)
(-0.593649 0.107879 0)
(-0.704104 0.0998426 0)
(-0.805261 0.0906779 0)
(-0.896042 0.0801493 0)
(-0.974927 0.0679815 0)
(-1.03996 0.0539537 0)
(-1.08895 0.0379898 0)
(-1.11966 0.020252 0)
(-1.13022 0.00109434 0)
(-1.11928 -0.0188314 0)
(-1.08646 -0.0387686 0)
(-1.03237 -0.0578342 0)
(-0.95867 -0.0751808 0)
(-0.867904 -0.090087 0)
(-0.763295 -0.102035 0)
(-0.648393 -0.110747 0)
(-0.526748 -0.116236 0)
(-0.40147 -0.118827 0)
(-0.274927 -0.119873 0)
(-0.149346 -0.12207 0)
(-0.0419872 -0.121096 0)
(0.0676684 -0.10943 0)
(0.183161 -0.105211 0)
(0.282757 -0.098282 0)
(0.376853 -0.0911344 0)
(0.462221 -0.083018 0)
(0.538799 -0.0740762 0)
(0.605661 -0.064321 0)
(0.662117 -0.0539042 0)
(0.707639 -0.0430622 0)
(0.742015 -0.0321073 0)
(0.76541 -0.0213839 0)
(0.778374 -0.0112071 0)
(0.781769 -0.00178783 0)
(0.776796 0.0066485 0)
(0.764451 0.0145063 0)
(0.745496 0.0217377 0)
(0.720573 0.0286353 0)
(0.689881 0.0355228 0)
(0.653217 0.0427143 0)
(0.610033 0.0504376 0)
(0.559588 0.0587759 0)
(0.501149 0.0676317 0)
(0.434206 0.0767202 0)
(0.358627 0.0855827 0)
(0.27495 0.0936634 0)
(0.183611 0.100323 0)
(0.0864005 0.104807 0)
(-0.00995968 0.108044 0)
(-0.107993 0.106941 0)
(-0.206722 0.103736 0)
(-0.298801 0.097445 0)
(-0.383678 0.0886709 0)
(-0.458619 0.0776847 0)
(-0.522112 0.0650224 0)
(-0.572972 0.0512201 0)
(-0.610579 0.036828 0)
(-0.634874 0.0223759 0)
(-0.646124 0.00832649 0)
(-0.645307 -0.00489109 0)
(-0.633185 -0.0173585 0)
(-0.610643 -0.0285594 0)
(-0.579126 -0.0384124 0)
(-0.539895 -0.0467928 0)
(-0.494342 -0.0536425 0)
(-0.443808 -0.0589182 0)
(-0.389614 -0.0626658 0)
(-0.332923 -0.0647678 0)
(-0.273908 -0.066225 0)
(-0.214895 -0.0675535 0)
(-0.15898 -0.0664908 0)
(-0.10599 -0.0645731 0)
(-0.0558705 -0.0615415 0)
(-0.01084 -0.0591191 0)
(0.034967 -0.0533879 0)
(0.0795257 -0.0497238 0)
(0.11788 -0.0450145 0)
(0.152948 -0.0403618 0)
(0.183538 -0.0353334 0)
(0.209827 -0.0300569 0)
(0.231528 -0.0245424 0)
(0.248497 -0.0189053 0)
(0.260697 -0.0133469 0)
(0.268262 -0.0081346 0)
(0.271647 -0.0036351 0)
(0.271497 -0.000174411 0)
(0.268956 0.00204659 0)
(0.265297 0.0026741 0)
(0.261598 0.00158098 0)
(0.259296 -0.000587844 0)
(0.259845 -0.00366173 0)
(0.26418 -0.00724563 0)
(0.2725 -0.010946 0)
(0.284017 -0.0139652 0)
(0.297419 -0.0152276 0)
(0.310962 -0.0140209 0)
(0.32232 -0.00982761 0)
(0.328999 -0.00253091 0)
(0.328569 0.00777106 0)
(0.318783 0.0206646 0)
(0.2978 0.0354206 0)
(0.264542 0.05098 0)
(0.218989 0.0662605 0)
(0.161888 0.0802206 0)
(0.0941761 0.0916741 0)
(0.019658 0.100416 0)
(-0.059536 0.105296 0)
(-0.142582 0.106433 0)
(-0.222907 0.103866 0)
(-0.301552 0.097374 0)
(-0.370658 0.0881643 0)
(-0.355544 0.0378785 0)
(-0.408191 0.0370882 0)
(-0.462346 0.0349382 0)
(-0.508427 0.0327676 0)
(-0.546565 0.029962 0)
(-0.577564 0.0261187 0)
(-0.602319 0.0214364 0)
(-0.621452 0.0161983 0)
(-0.63529 0.0105814 0)
(-0.643845 0.00465205 0)
(-0.647283 -0.00120547 0)
(-0.645376 -0.0079716 0)
(-0.637309 -0.0154915 0)
(-0.622387 -0.0237796 0)
(-0.599799 -0.0328556 0)
(-0.568665 -0.0426808 0)
(-0.528154 -0.053123 0)
(-0.477611 -0.063936 0)
(-0.416702 -0.0747579 0)
(-0.345542 -0.0851301 0)
(-0.26478 -0.0945378 0)
(-0.175644 -0.102467 0)
(-0.079641 -0.108467 0)
(0.0203472 -0.11207 0)
(0.122219 -0.113587 0)
(0.224236 -0.112735 0)
(0.323587 -0.10981 0)
(0.418596 -0.1052 0)
(0.508044 -0.0993629 0)
(0.591253 -0.0927244 0)
(0.668009 -0.0855978 0)
(0.738376 -0.0781152 0)
(0.802441 -0.0701941 0)
(0.860039 -0.061545 0)
(0.910524 -0.0517229 0)
(0.952621 -0.0402165 0)
(0.984422 -0.0265675 0)
(1.00346 -0.0104909 0)
(1.00731 0.00773776 0)
(0.993544 0.0283443 0)
(0.959968 0.0505061 0)
(0.905454 0.073276 0)
(0.829935 0.0955305 0)
(0.734572 0.1161 0)
(0.621684 0.133925 0)
(0.494543 0.148196 0)
(0.357074 0.158479 0)
(0.21307 0.164714 0)
(0.0695454 0.16807 0)
(-0.0744925 0.163962 0)
(-0.216984 0.160358 0)
(-0.35122 0.154064 0)
(-0.478578 0.14626 0)
(-0.597921 0.137165 0)
(-0.708724 0.126869 0)
(-0.810291 0.115205 0)
(-0.901574 0.101844 0)
(-0.981045 0.0864088 0)
(-1.04671 0.0685987 0)
(-1.09628 0.0483095 0)
(-1.12745 0.0257534 0)
(-1.13823 0.00139793 0)
(-1.12722 -0.0238905 0)
(-1.094 -0.0491556 0)
(-1.03916 -0.0732483 0)
(-0.964412 -0.0950884 0)
(-0.872379 -0.113771 0)
(-0.766392 -0.128668 0)
(-0.650121 -0.139506 0)
(-0.527225 -0.146383 0)
(-0.40099 -0.14975 0)
(-0.274165 -0.150686 0)
(-0.148254 -0.151371 0)
(-0.0383178 -0.150212 0)
(0.0720536 -0.137031 0)
(0.186523 -0.131339 0)
(0.286643 -0.122705 0)
(0.380895 -0.113685 0)
(0.466529 -0.103508 0)
(0.543331 -0.0923044 0)
(0.610373 -0.0800954 0)
(0.666925 -0.0670676 0)
(0.71243 -0.0535188 0)
(0.74666 -0.0398432 0)
(0.769785 -0.0264721 0)
(0.782403 -0.013802 0)
(0.785295 -0.00201941 0)
(0.779892 0.0081783 0)
(0.767271 0.0178963 0)
(0.748032 0.0267779 0)
(0.722947 0.0352242 0)
(0.69221 0.0436435 0)
(0.655598 0.0524345 0)
(0.612516 0.0618822 0)
(0.562161 0.0720876 0)
(0.503733 0.0829238 0)
(0.436659 0.0940327 0)
(0.360761 0.104845 0)
(0.276551 0.114677 0)
(0.184469 0.122734 0)
(0.0865434 0.128236 0)
(-0.0109083 0.131843 0)
(-0.110131 0.130551 0)
(-0.209779 0.1265 0)
(-0.302813 0.11875 0)
(-0.388446 0.107979 0)
(-0.463966 0.094552 0)
(-0.527817 0.0791182 0)
(-0.578819 0.0623349 0)
(-0.616356 0.0448666 0)
(-0.640418 0.0273638 0)
(-0.651212 0.0103224 0)
(-0.649912 -0.00533562 0)
(-0.637307 -0.020486 0)
(-0.614124 -0.0339795 0)
(-0.581955 -0.0458314 0)
(-0.542056 -0.0558974 0)
(-0.495839 -0.0641173 0)
(-0.444667 -0.070455 0)
(-0.389865 -0.0749645 0)
(-0.332671 -0.0776681 0)
(-0.273485 -0.0789815 0)
(-0.214079 -0.0804786 0)
(-0.157564 -0.0793299 0)
(-0.104214 -0.0770354 0)
(-0.0540256 -0.0734485 0)
(-0.00855053 -0.0704187 0)
(0.0374428 -0.0638417 0)
(0.0817352 -0.059368 0)
(0.120199 -0.0537781 0)
(0.155236 -0.0482345 0)
(0.185848 -0.042274 0)
(0.212127 -0.036027 0)
(0.233793 -0.0295091 0)
(0.250677 -0.0228497 0)
(0.262718 -0.0162737 0)
(0.270066 -0.0100946 0)
(0.27305 -0.00465356 0)
(0.272522 -0.000635681 0)
(0.269595 0.00191795 0)
(0.265378 0.00271277 0)
(0.261275 0.00185103 0)
(0.258665 -0.000495243 0)
(0.259009 -0.00418219 0)
(0.263294 -0.00841633 0)
(0.271713 -0.0126898 0)
(0.283547 -0.016095 0)
(0.297473 -0.0175617 0)
(0.311679 -0.0162475 0)
(0.323739 -0.0115719 0)
(0.331094 -0.00347692 0)
(0.331289 0.00819312 0)
(0.321962 0.0228853 0)
(0.301171 0.0397826 0)
(0.267847 0.0577549 0)
(0.221973 0.0755979 0)
(0.164274 0.0921061 0)
(0.0957861 0.105953 0)
(0.0204142 0.116632 0)
(-0.0597603 0.123255 0)
(-0.143786 0.12545 0)
(-0.225083 0.123434 0)
(-0.304525 0.116826 0)
(-0.374357 0.107019 0)
(-0.353307 0.0571061 0)
(-0.409639 0.0518688 0)
(-0.463882 0.0462712 0)
(-0.509911 0.0411937 0)
(-0.548179 0.036296 0)
(-0.579431 0.0310609 0)
(-0.604412 0.0253417 0)
(-0.623708 0.0191813 0)
(-0.63767 0.0126465 0)
(-0.646251 0.00586181 0)
(-0.649834 -0.00122041 0)
(-0.648253 -0.00932409 0)
(-0.640473 -0.0183728 0)
(-0.625843 -0.0284237 0)
(-0.603542 -0.0395252 0)
(-0.572658 -0.0516449 0)
(-0.532314 -0.0646251 0)
(-0.481807 -0.0781565 0)
(-0.420757 -0.0917756 0)
(-0.349247 -0.104889 0)
(-0.267916 -0.116825 0)
(-0.178005 -0.126913 0)
(-0.0810501 -0.134555 0)
(0.0199349 -0.139289 0)
(0.12279 -0.141146 0)
(0.225751 -0.14005 0)
(0.325892 -0.136335 0)
(0.421497 -0.13051 0)
(0.511335 -0.123177 0)
(0.594763 -0.114904 0)
(0.671632 -0.106114 0)
(0.742095 -0.096985 0)
(0.806334 -0.0874041 0)
(0.864268 -0.0769726 0)
(0.915298 -0.0650766 0)
(0.958153 -0.0510089 0)
(0.990873 -0.0341291 0)
(1.01083 -0.0140215 0)
(1.01557 0.00896443 0)
(1.00257 0.035102 0)
(0.969349 0.0633464 0)
(0.914736 0.0924561 0)
(0.838614 0.120956 0)
(0.742163 0.147308 0)
(0.627786 0.170119 0)
(0.498898 0.188323 0)
(0.35959 0.201332 0)
(0.213971 0.209055 0)
(0.0682465 0.212566 0)
(-0.077268 0.207942 0)
(-0.220242 0.203027 0)
(-0.355337 0.194915 0)
(-0.483232 0.184948 0)
(-0.603028 0.173475 0)
(-0.714298 0.160591 0)
(-0.816438 0.146044 0)
(-0.90845 0.129362 0)
(-0.988799 0.109999 0)
(-1.05543 0.0875175 0)
(-1.10594 0.0617435 0)
(-1.13787 0.0329349 0)
(-1.14912 0.00170857 0)
(-1.13816 -0.0308517 0)
(-1.10452 -0.0634275 0)
(-1.04876 -0.0945133 0)
(-0.972663 -0.122682 0)
(-0.878954 -0.146742 0)
(-0.77111 -0.165875 0)
(-0.652963 -0.179722 0)
(-0.52834 -0.188412 0)
(-0.400716 -0.192539 0)
(-0.273088 -0.193212 0)
(-0.146684 -0.192184 0)
(-0.0341625 -0.189909 0)
(0.0771809 -0.175276 0)
(0.190754 -0.167424 0)
(0.291505 -0.156546 0)
(0.386042 -0.144988 0)
(0.472084 -0.132006 0)
(0.549263 -0.117677 0)
(0.61663 -0.102025 0)
(0.673392 -0.0852796 0)
(0.718944 -0.0678339 0)
(0.753027 -0.0502153 0)
(0.775813 -0.0330109 0)
(0.787943 -0.0167604 0)
(0.790192 -0.00183365 0)
(0.784232 0.0112832 0)
(0.771189 0.0235593 0)
(0.751569 0.0346926 0)
(0.726297 0.0452462 0)
(0.695565 0.0557946 0)
(0.659118 0.0668915 0)
(0.61629 0.0789335 0)
(0.56618 0.0920649 0)
(0.507881 0.10612 0)
(0.440721 0.120618 0)
(0.364448 0.134798 0)
(0.27953 0.147738 0)
(0.18638 0.158385 0)
(0.08734 0.16573 0)
(-0.0116687 0.170216 0)
(-0.112639 0.168807 0)
(-0.21376 0.163471 0)
(-0.308271 0.153371 0)
(-0.395116 0.139279 0)
(-0.471582 0.121732 0)
(-0.536052 0.101581 0)
(-0.58735 0.0796999 0)
(-0.624869 0.0569644 0)
(-0.64865 0.0342155 0)
(-0.65883 0.0121324 0)
(-0.656906 -0.00835438 0)
(-0.643644 -0.0278055 0)
(-0.619529 -0.0452136 0)
(-0.586424 -0.0604689 0)
(-0.545561 -0.0734126 0)
(-0.498378 -0.0839651 0)
(-0.44626 -0.0920939 0)
(-0.390551 -0.0978543 0)
(-0.332545 -0.101336 0)
(-0.272984 -0.102812 0)
(-0.212997 -0.104032 0)
(-0.155619 -0.102541 0)
(-0.101732 -0.0994038 0)
(-0.0513775 -0.0947394 0)
(-0.00532211 -0.0904812 0)
(0.0409503 -0.0824404 0)
(0.0849869 -0.0764534 0)
(0.123622 -0.0692762 0)
(0.158689 -0.0620588 0)
(0.189395 -0.0543237 0)
(0.215735 -0.0461817 0)
(0.237423 -0.037658 0)
(0.254238 -0.0289146 0)
(0.26608 -0.0202568 0)
(0.273046 -0.0120952 0)
(0.275464 -0.00498169 0)
(0.274114 0.000368214 0)
(0.270269 0.00380516 0)
(0.265276 0.00484875 0)
(0.260397 0.0034417 0)
(0.257077 -0.000147526 0)
(0.256985 -0.00533227 0)
(0.261194 -0.0114451 0)
(0.269935 -0.0175427 0)
(0.282582 -0.0223342 0)
(0.297767 -0.0244215 0)
(0.313532 -0.0226655 0)
(0.327229 -0.016282 0)
(0.336194 -0.00520546 0)
(0.337781 0.010723 0)
(0.32934 0.0307056 0)
(0.308803 0.0535492 0)
(0.275089 0.077668 0)
(0.228169 0.101376 0)
(0.168827 0.123006 0)
(0.0983205 0.140875 0)
(0.0206649 0.154231 0)
(-0.0619142 0.162089 0)
(-0.148153 0.16391 0)
(-0.23149 0.160079 0)
(-0.312511 0.150249 0)
(-0.38363 0.136106 0)
(-0.353952 0.0797048 0)
(-0.412515 0.0704336 0)
(-0.46661 0.0614643 0)
(-0.512419 0.0532975 0)
(-0.550607 0.0456988 0)
(-0.581899 0.0383334 0)
(-0.606973 0.0309434 0)
(-0.62637 0.023388 0)
(-0.640391 0.0156041 0)
(-0.649093 0.0079193 0)
(-0.652963 -0.000910645 0)
(-0.651727 -0.0106193 0)
(-0.644317 -0.0214098 0)
(-0.630086 -0.0334417 0)
(-0.608191 -0.0468127 0)
(-0.577674 -0.0615049 0)
(-0.537599 -0.0773348 0)
(-0.487197 -0.0939224 0)
(-0.426024 -0.110687 0)
(-0.35412 -0.126876 0)
(-0.272106 -0.141638 0)
(-0.181242 -0.154115 0)
(-0.0831219 -0.163547 0)
(0.0191328 -0.169446 0)
(0.123265 -0.171579 0)
(0.227418 -0.170054 0)
(0.328554 -0.165286 0)
(0.424899 -0.157943 0)
(0.515208 -0.148811 0)
(0.598877 -0.138636 0)
(0.675847 -0.127973 0)
(0.746391 -0.117055 0)
(0.810821 -0.105732 0)
(0.869165 -0.0934772 0)
(0.920895 -0.0794771 0)
(0.964745 -0.0627939 0)
(0.998692 -0.0425714 0)
(1.01989 -0.0182279 0)
(1.02585 0.00979935 0)
(1.01388 0.0418301 0)
(0.981205 0.0765579 0)
(0.926539 0.112418 0)
(0.84971 0.147537 0)
(0.751922 0.179967 0)
(0.635686 0.207945 0)
(0.504597 0.230126 0)
(0.36296 0.245766 0)
(0.215205 0.254751 0)
(0.0669442 0.258045 0)
(-0.0803275 0.252952 0)
(-0.224078 0.246267 0)
(-0.360156 0.236053 0)
(-0.488673 0.223708 0)
(-0.608981 0.209722 0)
(-0.720793 0.194186 0)
(-0.823632 0.176753 0)
(-0.916563 0.156782 0)
(-0.998043 0.133543 0)
(-1.06593 0.10644 0)
(-1.11768 0.0752234 0)
(-1.15066 0.0401833 0)
(-1.16255 0.0021404 0)
(-1.15174 -0.0376581 0)
(-1.11762 -0.0774605 0)
(-1.06077 -0.115407 0)
(-0.983023 -0.149714 0)
(-0.887255 -0.178906 0)
(-0.777127 -0.201983 0)
(-0.656679 -0.218531 0)
(-0.529939 -0.228739 0)
(-0.40056 -0.233328 0)
(-0.271712 -0.233481 0)
(-0.144648 -0.230741 0)
(-0.0296518 -0.226904 0)
(0.0828072 -0.211124 0)
(0.195664 -0.201052 0)
(0.297088 -0.188023 0)
(0.392006 -0.174039 0)
(0.478555 -0.158401 0)
(0.55622 -0.141123 0)
(0.624016 -0.122228 0)
(0.681068 -0.101987 0)
(0.726708 -0.0808844 0)
(0.760635 -0.0595813 0)
(0.78302 -0.0388183 0)
(0.794544 -0.019271 0)
(0.796038 -0.00142937 0)
(0.789423 0.0141922 0)
(0.77584 0.0287121 0)
(0.755761 0.0417635 0)
(0.73028 0.0540821 0)
(0.699584 0.0664064 0)
(0.663377 0.0794417 0)
(0.620903 0.0936926 0)
(0.57114 0.109345 0)
(0.513047 0.126195 0)
(0.44583 0.143647 0)
(0.369147 0.160762 0)
(0.283409 0.1764 0)
(0.189034 0.189263 0)
(0.0886216 0.198201 0)
(-0.0122375 0.20332 0)
(-0.115237 0.201744 0)
(-0.218147 0.195185 0)
(-0.314408 0.182955 0)
(-0.4027 0.165908 0)
(-0.480289 0.144754 0)
(-0.5455 0.120524 0)
(-0.597156 0.0942861 0)
(-0.63467 0.0670978 0)
(-0.658141 0.0399632 0)
(-0.667707 0.0136707 0)
(-0.665012 -0.0109802 0)
(-0.650925 -0.0336252 0)
(-0.625827 -0.0541686 0)
(-0.591674 -0.0721147 0)
(-0.549733 -0.0873126 0)
(-0.501468 -0.0996679 0)
(-0.448294 -0.109159 0)
(-0.391584 -0.115851 0)
(-0.332656 -0.119894 0)
(-0.272513 -0.121507 0)
(-0.211934 -0.122096 0)
(-0.153731 -0.120415 0)
(-0.099197 -0.116558 0)
(-0.048622 -0.111031 0)
(-0.00197347 -0.105707 0)
(0.0445947 -0.0966281 0)
(0.0884103 -0.0894156 0)
(0.127215 -0.0810404 0)
(0.162324 -0.072554 0)
(0.193137 -0.0635003 0)
(0.219559 -0.0539576 0)
(0.241289 -0.0439564 0)
(0.258055 -0.0336755 0)
(0.269705 -0.0234681 0)
(0.276301 -0.0138209 0)
(0.278071 -0.00536694 0)
(0.276046 0.000979771 0)
(0.271381 0.00523876 0)
(0.265278 0.00658117 0)
(0.259411 0.00484136 0)
(0.255406 0.00043437 0)
(0.254846 -0.00586704 0)
(0.258861 -0.0133428 0)
(0.267879 -0.0207575 0)
(0.281286 -0.0266024 0)
(0.297684 -0.0292903 0)
(0.314993 -0.0274692 0)
(0.330351 -0.020304 0)
(0.340946 -0.00755984 0)
(0.344076 0.0108395 0)
(0.33677 0.0340265 0)
(0.316759 0.0605622 0)
(0.282984 0.0886673 0)
(0.235373 0.116384 0)
(0.174718 0.14175 0)
(0.102452 0.162815 0)
(0.0227991 0.178527 0)
(-0.0620063 0.188052 0)
(-0.150444 0.190455 0)
(-0.235862 0.186331 0)
(-0.318607 0.175312 0)
(-0.391202 0.159278 0)
(-0.35679 0.103526 0)
(-0.416715 0.0905457 0)
(-0.470523 0.0782948 0)
(-0.516017 0.0670263 0)
(-0.553967 0.0566647 0)
(-0.585124 0.0469675 0)
(-0.610152 0.0376476 0)
(-0.629566 0.0284599 0)
(-0.643541 0.0192636 0)
(-0.652469 0.0101452 0)
(-0.656768 -0.000407927 0)
(-0.655868 -0.0118273 0)
(-0.648904 -0.0244924 0)
(-0.635186 -0.0386581 0)
(-0.613826 -0.05448 0)
(-0.583806 -0.0719608 0)
(-0.544111 -0.0908934 0)
(-0.493885 -0.110821 0)
(-0.432606 -0.131031 0)
(-0.360252 -0.150593 0)
(-0.277423 -0.168447 0)
(-0.185398 -0.183524 0)
(-0.0858588 -0.194879 0)
(0.0179753 -0.201952 0)
(0.123709 -0.204312 0)
(0.229327 -0.202214 0)
(0.331681 -0.196184 0)
(0.428914 -0.18708 0)
(0.519766 -0.175907 0)
(0.603683 -0.16362 0)
(0.680719 -0.15093 0)
(0.751305 -0.138138 0)
(0.815919 -0.125051 0)
(0.87474 -0.110992 0)
(0.92733 -0.0949158 0)
(0.972432 -0.075615 0)
(1.00795 -0.0519773 0)
(1.03075 -0.0232095 0)
(1.0383 0.010158 0)
(1.02769 0.0485026 0)
(0.99575 0.090222 0)
(0.941081 0.133386 0)
(0.863428 0.175676 0)
(0.764021 0.214678 0)
(0.645507 0.248211 0)
(0.511704 0.274619 0)
(0.367188 0.292984 0)
(0.216725 0.303179 0)
(0.0655899 0.30611 0)
(-0.0837512 0.30044 0)
(-0.228613 0.2917 0)
(-0.365777 0.279142 0)
(-0.494981 0.264238 0)
(-0.615843 0.247621 0)
(-0.728262 0.229372 0)
(-0.831925 0.209024 0)
(-0.925981 0.185732 0)
(-1.00888 0.158538 0)
(-1.07836 0.126653 0)
(-1.13171 0.0897274 0)
(-1.16605 0.0480685 0)
(-1.17883 0.00270287 0)
(-1.16827 -0.0449006 0)
(-1.13364 -0.0925274 0)
(-1.07549 -0.137914 0)
(-0.99575 -0.178871 0)
(-0.897479 -0.213597 0)
(-0.784571 -0.240886 0)
(-0.661321 -0.260258 0)
(-0.531996 -0.27196 0)
(-0.400448 -0.27687 0)
(-0.269977 -0.276326 0)
(-0.142024 -0.271838 0)
(-0.0246575 -0.266047 0)
(0.0890208 -0.249129 0)