/*--------------------------------*- C++ -*----------------------------------*\
| =========                 |                                                 |
| \\      /  F ield         | OpenFOAM: The Open Source CFD Toolbox           |
|  \\    /   O peration     | Version:  v1912                                 |
|   \\  /    A nd           | Website:  www.openfoam.com                      |
|    \\/     M anipulation  |                                                 |
\*---------------------------------------------------------------------------*/
FoamFile
{
    version     2.0;
    format      ascii;
    class       surfaceScalarField;
    location    "60";
    object      alphaPhi0.water;
}
// * * * * * * * * * * * * * * * * * * * * * * * * * * * * * * * * * * * * * //

dimensions      [0 3 -1 0 0 0 0];
oriented        oriented;


internalField   nonuniform List<scalar> 
28285
(
-0.0786442
-0.00143095
-0.0772275
-0.00141676
-0.0758211
-0.00140641
-0.0744209
-0.00140018
-0.0730231
-0.00139781
-0.071624
-0.00139903
-0.0702201
-0.00140397
-0.0688077
-0.00141236
-0.0673838
-0.00142392
-0.0659467
-0.00143709
-0.0644934
-0.00145335
-0.0630221
-0.00147126
-0.0615324
-0.0014897
-0.0600235
-0.0015089
-0.0584945
-0.00152897
-0.0569458
-0.00154877
-0.0553793
-0.00156641
-0.0537943
-0.00158504
-0.0521927
-0.00160156
-0.0505775
-0.00161519
-0.0489491
-0.00162849
-0.0473101
-0.00163894
-0.0456622
-0.00164795
-0.0440049
-0.00165728
-0.0423399
-0.00166501
-0.040673
-0.00166685
-0.0390055
-0.00166751
-0.0373286
-0.00167693
-0.0356516
-0.00167701
-0.0339828
-0.00166879
-0.0323179
-0.0016649
-0.0306472
-0.00167067
-0.0289811
-0.0016661
-0.0273356
-0.00164555
-0.025706
-0.00162961
-0.0240755
-0.00163044
-0.0224569
-0.00161861
-0.0208783
-0.0015786
-0.0193215
-0.00155684
-0.0177689
-0.00155258
-0.0162543
-0.00151457
-0.0147921
-0.00146224
-0.0133572
-0.00143487
-0.0119552
-0.00140198
-0.0106049
-0.00135029
-0.00929586
-0.00130906
-0.00802613
-0.00126973
-0.00681925
-0.00120688
-0.00566411
-0.00115514
-0.00455836
-0.00110575
-0.00350089
-0.00105748
-0.0025136
-0.000987291
-0.00157823
-0.000935369
-0.000675061
-0.000903165
0.000162196
-0.000837257
0.000942941
-0.000780745
0.00168858
-0.000745644
0.00235872
-0.000670134
0.00295999
-0.000601274
0.00354333
-0.000583334
0.00407762
-0.000534297
0.00456063
-0.000483007
0.00502736
-0.000466729
0.00543206
-0.000404702
0.00576745
-0.000335391
0.00609934
-0.000331887
0.00641994
-0.000320601
0.00667994
-0.00026
0.00692217
-0.000242229
0.00718129
-0.000259116
0.00741039
-0.0002291
0.00761125
-0.00020086
0.00783682
-0.000225577
0.00806431
-0.000227484
0.00827177
-0.000207458
0.00850241
-0.000230645
0.00875329
-0.000250882
0.00901225
-0.000258962
0.00929648
-0.000284229
0.00960302
-0.000306539
0.00993128
-0.000328253
0.0102879
-0.000356592
0.0106667
-0.000378786
0.0110655
-0.000398895
0.0114801
-0.000414506
0.011912
-0.000431933
0.0123624
-0.000450439
0.0128223
-0.000459901
0.0132776
-0.000455295
0.0137307
-0.000453078
0.0141723
-0.000441621
0.0145969
-0.000424533
0.0150113
-0.000414411
0.0153983
-0.000387021
0.015748
-0.000349681
0.0160627
-0.000314708
0.0163268
-0.000264088
0.0165367
-0.000209887
0.0166921
-0.000155495
0.0167903
-9.81667e-05
0.0168289
-3.86355e-05
0.0168011
2.78675e-05
0.0166997
0.000101334
0.0165354
0.000164316
0.0162951
0.000240327
0.0160004
0.000294661
0.0156613
0.000339186
0.0152849
0.000376379
0.0149166
0.000368295
0.0145317
0.000384848
0.0141722
0.000359566
0.0138923
0.00027986
0.0136814
0.000210881
0.0135468
0.00013461
0.0134952
5.15975e-05
0.0134892
6.01308e-06
0.0134705
1.86825e-05
0.0133961
7.44005e-05
0.0132553
0.000140827
0.0130325
0.000222751
0.0127268
0.0003057
0.0123523
0.000374569
0.0118761
0.000476175
0.0112923
0.00058377
0.0106361
0.000656195
0.0099264
0.00070974
0.00918448
0.000741918
0.00841654
0.000767944
0.00762906
0.000787481
0.00681766
0.000811394
0.00597692
0.00084074
0.00509397
0.000882949
0.0041776
0.000916374
0.000966035
0.00321156
-0.0785088
-0.00285901
-0.0770948
-0.0028308
-0.0756908
-0.00281042
-0.0742929
-0.00279812
-0.0728971
-0.00279361
-0.0714999
-0.00279618
-0.0700975
-0.00280636
-0.0686864
-0.00282351
-0.0672635
-0.0028468
-0.0658264
-0.00287422
-0.0643731
-0.0029066
-0.062902
-0.00294239
-0.0614126
-0.00297903
-0.0599044
-0.00301715
-0.0583762
-0.00305716
-0.0568294
-0.00309562
-0.0552643
-0.0031315
-0.0536811
-0.00316826
-0.0520847
-0.00319788
-0.0504693
-0.00323064
-0.0488371
-0.00326068
-0.0471998
-0.00327626
-0.0455522
-0.00329556
-0.0438955
-0.00331395
-0.0422308
-0.00332969
-0.040564
-0.00333366
-0.0388967
-0.0033348
-0.0372209
-0.00335276
-0.0355462
-0.00335173
-0.0338797
-0.00333522
-0.0322167
-0.00332797
-0.0305477
-0.00333964
-0.0288835
-0.00333028
-0.0272397
-0.00328931
-0.0256117
-0.00325761
-0.0239825
-0.00325965
-0.0223658
-0.00323534
-0.0207889
-0.00315551
-0.0192332
-0.0031125
-0.0176822
-0.00310358
-0.0161699
-0.00302694
-0.0147093
-0.00292278
-0.0132763
-0.00286793
-0.011877
-0.00280128
-0.0105291
-0.00269819
-0.00922185
-0.00261629
-0.00795484
-0.00253674
-0.00675056
-0.00241116
-0.00559768
-0.00230802
-0.00449453
-0.0022089
-0.00343999
-0.00211201
-0.00245574
-0.00197153
-0.00152216
-0.00186895
-0.000622366
-0.00180296
0.000212099
-0.00167172
0.000990829
-0.00155947
0.00173381
-0.00148863
0.00240112
-0.00133744
0.00300063
-0.00120079
0.00358195
-0.00116466
0.00411365
-0.00106599
0.00459491
-0.000964271
0.00505972
-0.000931535
0.00546224
-0.000807221
0.00579665
-0.0006698
0.00612791
-0.000663146
0.00644675
-0.000639441
0.00670529
-0.000518543
0.00694717
-0.000484108
0.00720527
-0.000517224
0.00743293
-0.000456753
0.00763368
-0.000401611
0.00785909
-0.000450993
0.00808566
-0.000454055
0.00829302
-0.000414813
0.00852392
-0.000461541
0.00877459
-0.000501554
0.00903377
-0.000518143
0.00931818
-0.000568642
0.00962465
-0.00061301
0.00995304
-0.000656643
0.0103096
-0.000713124
0.0106882
-0.000757394
0.0110869
-0.000797583
0.011501
-0.000828673
0.0119327
-0.000863596
0.0123827
-0.000900478
0.012842
-0.000919163
0.0132966
-0.000909914
0.0137491
-0.000905542
0.0141898
-0.000882302
0.0146134
-0.000848216
0.0150269
-0.000827816
0.0154127
-0.000772855
0.0157613
-0.000698305
0.0160748
-0.000628236
0.0163377
-0.000526926
0.0165463
-0.000418503
0.0167005
-0.000309676
0.0167974
-0.000195087
0.016835
-7.62299e-05
0.0168055
5.73687e-05
0.0167032
0.000203646
0.0165379
0.000329594
0.0162968
0.000481465
0.0160015
0.000589884
0.0156619
0.00067885
0.0152853
0.000752989
0.0149169
0.000736664
0.0145322
0.000769585
0.0141732
0.000718555
0.0138938
0.000559233
0.0136836
0.000421102
0.0135497
0.000268506
0.0134985
0.000102788
0.0134925
1.20216e-05
0.0134736
3.75211e-05
0.0133992
0.000148797
0.0132581
0.000282009
0.0130354
0.00044544
0.0127298
0.00061123
0.0123551
0.000749333
0.0118786
0.000952689
0.0112947
0.00116767
0.0106388
0.00131204
0.00993049
0.00141808
0.00918936
0.00148305
0.00842293
0.00153437
0.00763615
0.00157426
0.00682586
0.00162169
0.00598528
0.00168132
0.0051119
0.00175633
0.00416748
0.0018608
0.00197712
0.00315639
-0.0784652
-0.00428441
-0.0770537
-0.00424231
-0.0756522
-0.00421195
-0.0742565
-0.00419382
-0.0728626
-0.00418755
-0.0714666
-0.0041921
-0.0700655
-0.0042075
-0.0686554
-0.00423359
-0.0672333
-0.00426891
-0.0657969
-0.00431057
-0.0643444
-0.00435912
-0.0628738
-0.00441304
-0.0613847
-0.00446813
-0.059876
-0.00452583
-0.0583468
-0.0045863
-0.0567987
-0.00464374
-0.0552322
-0.00469801
-0.0536472
-0.00475332
-0.0520477
-0.00479734
-0.0504302
-0.00484815
-0.0487974
-0.0048935
-0.0471595
-0.00491408
-0.0455111
-0.00494402
-0.0438542
-0.00497089
-0.0421895
-0.00499435
-0.040523
-0.00500019
-0.0388563
-0.00500148
-0.0371805
-0.00502851
-0.0355062
-0.00502608
-0.0338397
-0.00500169
-0.0321758
-0.00499191
-0.0305058
-0.00500958
-0.0288411
-0.00499501
-0.0271969
-0.00493348
-0.025568
-0.00488653
-0.0239377
-0.00488998
-0.0223214
-0.00485167
-0.020745
-0.00473186
-0.0191888
-0.00466874
-0.017638
-0.00465437
-0.0161271
-0.00453779
-0.0146672
-0.00438273
-0.0132341
-0.00430101
-0.0118365
-0.00419887
-0.01049
-0.00404465
-0.0091833
-0.00392304
-0.00791807
-0.00380197
-0.00671573
-0.0036135
-0.00556396
-0.00345979
-0.00446277
-0.00331009
-0.00341001
-0.00316477
-0.00242771
-0.00295384
-0.00149563
-0.00280103
-0.000597532
-0.00270106
0.000234819
-0.00250407
0.00101327
-0.00233793
0.00175462
-0.00222997
0.00242016
-0.00200298
0.00301888
-0.00179951
0.00359865
-0.00174442
0.00412796
-0.0015953
0.00460809
-0.0014444
0.0050716
-0.00139505
0.00547217
-0.00120779
0.00580575
-0.00100338
0.00613622
-0.000993612
0.00645285
-0.000956078
0.00670966
-0.000775348
0.00695123
-0.000725682
0.00720837
-0.000774357
0.00743434
-0.000682727
0.00763546
-0.000602735
0.00786078
-0.000676307
0.0080863
-0.000679576
0.00829367
-0.00062218
0.00852452
-0.000692398
0.00877436
-0.000751388
0.00903375
-0.000777542
0.00931817
-0.000853056
0.0096245
-0.000919337
0.00995333
-0.000985476
0.0103102
-0.00107
0.0106891
-0.00113634
0.0110884
-0.0011968
0.011503
-0.00124327
0.0119352
-0.00129588
0.0123859
-0.00135112
0.0128456
-0.00137892
0.0133006
-0.00136491
0.0137535
-0.00135838
0.0141943
-0.00132309
0.0146182
-0.00127211
0.0150317
-0.00124138
0.0154175
-0.00115865
0.0157662
-0.001047
0.0160796
-0.000941665
0.0163423
-0.000789585
0.0165507
-0.00062693
0.0167047
-0.000463637
0.0168013
-0.00029168
0.016838
-0.000112985
0.0168088
8.66471e-05
0.0167057
0.000306681
0.0165396
0.000495707
0.0162975
0.000723613
0.0160014
0.000885955
0.0156608
0.00101945
0.0152835
0.00113032
0.0149147
0.0011054
0.0145294
0.00115492
0.0141707
0.0010772
0.0138919
0.000838092
0.0136822
0.000630749
0.0135491
0.000401637
0.0134988
0.000153084
0.0134935
1.73294e-05
0.013475
5.60718e-05
0.0134005
0.000223274
0.0132589
0.000423573
0.0130355
0.000668829
0.0127293
0.00091743
0.0123539
0.00112473
0.0118765
0.00143009
0.011292
0.00175217
0.0106363
0.00196779
0.00992868
0.00212566
0.00918756
0.00222417
0.00842049
0.00230144
0.00763276
0.00236198
0.006823
0.00243145
0.00598236
0.00252195
0.00510118
0.00263751
0.00418439
0.00277758
0.00294811
0.0032134
-0.0784251
-0.00570688
-0.0770161
-0.00565127
-0.0756174
-0.00561062
-0.0742242
-0.00558701
-0.0728325
-0.00557925
-0.0714386
-0.00558606
-0.0700392
-0.00560689
-0.0686306
-0.00564216
-0.0672094
-0.00569016
-0.0657741
-0.00574579
-0.0643215
-0.00581171
-0.06285
-0.00588454
-0.0613595
-0.00595864
-0.059849
-0.00603636
-0.0583182
-0.00611707
-0.0567678
-0.00619424
-0.0551998
-0.00626595
-0.0536124
-0.00634073
-0.0520107
-0.00639907
-0.0503943
-0.00646451
-0.0487638
-0.00652402
-0.0471239
-0.00655398
-0.0454744
-0.0065935
-0.0438163
-0.00662896
-0.0421507
-0.00665998
-0.0404833
-0.00666762
-0.0388152
-0.00666951
-0.0371369
-0.0067069
-0.0354609
-0.006702
-0.0337931
-0.00666954
-0.0321279
-0.00665709
-0.0304573
-0.00668019
-0.028793
-0.0066593
-0.0271488
-0.00657771
-0.0255193
-0.00651599
-0.0238887
-0.00652064
-0.0222737
-0.00646665
-0.0206975
-0.00630804
-0.0191399
-0.00622635
-0.0175888
-0.00620545
-0.0160788
-0.00604785
-0.0146179
-0.00584365
-0.0131836
-0.0057353
-0.0117876
-0.00559484
-0.0104423
-0.00538998
-0.00913566
-0.00522963
-0.00787196
-0.00506567
-0.00667096
-0.00481449
-0.00551959
-0.00461116
-0.00441992
-0.00440977
-0.00336848
-0.00421621
-0.00238793
-0.00393439
-0.00145638
-0.00373258
-0.000560965
-0.00359647
0.000268888
-0.00333393
0.00104722
-0.00311626
0.00178577
-0.00296852
0.00244905
-0.00266626
0.00304716
-0.00239762
0.00362469
-0.00232195
0.00415071
-0.00212133
0.00462934
-0.00192303
0.00509051
-0.00185622
0.00548884
-0.00160612
0.0058223
-0.00133684
0.00615229
-0.00132361
0.00646659
-0.00127037
0.00672182
-0.00103058
0.00696309
-0.000966955
0.00721831
-0.00102957
0.0074421
-0.000906524
0.00764309
-0.000803722
0.00786769
-0.000900903
0.00809149
-0.000903379
0.0082991
-0.000829787
0.00853027
-0.000923565
0.00877956
-0.00100068
0.00903963
-0.00103761
0.00932432
-0.00113774
0.00963064
-0.00122566
0.00996012
-0.00131495
0.0103172
-0.00142712
0.0106965
-0.00151563
0.0110963
-0.00159658
0.0115113
-0.00165824
0.0119442
-0.00172882
0.0123953
-0.00180223
0.0128553
-0.00183888
0.0133107
-0.00182029
0.013764
-0.00181171
0.0142048
-0.00176385
0.0146289
-0.00169629
0.0150422
-0.00165462
0.0154275
-0.00154396
0.015776
-0.00139551
0.016089
-0.00125465
0.0163513
-0.00105185
0.0165591
-0.000834731
0.016712
-0.000616526
0.0168074
-0.000387151
0.0168435
-0.000149038
0.0168119
0.000118196
0.0167081
0.000410477
0.0165411
0.000662746
0.016298
0.00096666
0.0160012
0.00118281
0.0156597
0.00136097
0.0152817
0.00150827
0.0149125
0.0014746
0.014527
0.00154049
0.0141686
0.00143555
0.01389
0.00111674
0.013681
0.00083968
0.0135488
0.000533817
0.0134993
0.00020263
0.0134944
2.22241e-05
0.013476
7.44703e-05
0.0134012
0.000298115
0.0132594
0.0005653
0.0130357
0.000892577
0.0127292
0.00122396
0.0123533
0.00150061
0.011875
0.00190838
0.01129
0.00233715
0.0106341
0.00262372
0.00992691
0.00283284
0.00918604
0.00296504
0.00841856
0.00306892
0.00762897
0.00315158
0.00681691
0.0032435
0.00597512
0.00336375
0.00510215
0.00351048
0.00416224
0.0037175
0.00395507
0.00315528
-0.0783834
-0.00712514
-0.0769789
-0.00705585
-0.0755845
-0.00700498
-0.0741947
-0.00697676
-0.0728066
-0.00696736
-0.0714159
-0.00697679
-0.070019
-0.00700379
-0.0686123
-0.00704886
-0.0671925
-0.00711002
-0.0657581
-0.0071801
-0.0643062
-0.00726364
-0.0628352
-0.00735556
-0.0613451
-0.00744878
-0.0598347
-0.00754671
-0.0583029
-0.00764882
-0.0567511
-0.00774609
-0.0551816
-0.00783543
-0.0535923
-0.00793005
-0.0519886
-0.00800276
-0.0503691
-0.00808402
-0.0487356
-0.00815757
-0.047095
-0.00819448
-0.0454436
-0.00824496
-0.0437845
-0.00828807
-0.042118
-0.00832642
-0.04045
-0.00833562
-0.0387816
-0.00833797
-0.0371022
-0.00838628
-0.0354263
-0.0083779
-0.0337578
-0.00833802
-0.0320912
-0.00832371
-0.0304193
-0.00835211
-0.0287543
-0.00832433
-0.0271088
-0.00822315
-0.0254775
-0.00814736
-0.0238448
-0.00815326
-0.0222301
-0.00808137
-0.0206532
-0.00788495
-0.0190935
-0.00778604
-0.017542
-0.00775696
-0.0160326
-0.00755729
-0.0145702
-0.00730596
-0.0131349
-0.00717062
-0.0117405
-0.00698926
-0.0103958
-0.00673467
-0.00908898
-0.00653647
-0.00782647
-0.00632818
-0.00662668
-0.00601428
-0.00547554
-0.0057623
-0.00437762
-0.00550769
-0.00332771
-0.00526612
-0.00234935
-0.00491274
-0.00141826
-0.00466368
-0.000525503
-0.00448923
0.000301533
-0.00416096
0.00108087
-0.0038956
0.00181717
-0.00370481
0.00247875
-0.00332785
0.00307684
-0.00299571
0.00365188
-0.00289699
0.00417432
-0.00264377
0.00465185
-0.00240056
0.00511085
-0.00231521
0.00550713
-0.00200239
0.0058406
-0.00167032
0.00616943
-0.00165243
0.00648049
-0.00158144
0.00673382
-0.00128392
0.00697475
-0.00120788
0.00722767
-0.00128249
0.00744933
-0.00112818
0.00765083
-0.00100522
0.00787464
-0.00112471
0.00809654
-0.00112528
0.00830466
-0.00103791
0.00853569
-0.00115459
0.0087836
-0.00124859
0.00904431
-0.00129833
0.00932902
-0.00142245
0.0096352
-0.00153184
0.00996533
-0.00164508
0.0103229
-0.00178469
0.0107028
-0.00189549
0.0111033
-0.00199716
0.011519
-0.00207388
0.0119529
-0.00216276
0.0124049
-0.00225426
0.0128657
-0.00229965
0.0133218
-0.00227636
0.0137759
-0.00226586
0.014217
-0.0022049
0.0146416
-0.00212087
0.015055
-0.00206801
0.0154402
-0.00192918
0.0157887
-0.001744
0.0161011
-0.00156713
0.0163629
-0.00131365
0.0165702
-0.00104194
0.0167224
-0.000768753
0.0168171
-0.000481894
0.0168517
-0.000183647
0.0168206
0.000149327
0.0167158
0.000515235
0.0165477
0.000830858
0.0163033
0.0012111
0.0160052
0.00148091
0.0156621
0.00170404
0.0152829
0.00188743
0.0149126
0.00184492
0.0145263
0.00192679
0.0141678
0.00179408
0.013889
0.00139555
0.0136806
0.00104802
0.0135492
0.000665237
0.0135007
0.000251158
0.0134965
2.643e-05
0.0134786
9.23194e-05
0.013404
0.000372758
0.0132615
0.000707742
0.0130369
0.00111724
0.0127296
0.00153125
0.0123526
0.00187758
0.0118733
0.0023877
0.0112877
0.00292271
0.0106319
0.00327957
0.00992489
0.00353985
0.00918338
0.00370655
0.00841439
0.00383791
0.00762308
0.00394289
0.00680991
0.00405667
0.00596781
0.00420584
0.00509046
0.00438783
0.00417334
0.00463462
0.00492875
0.00319965
-0.0783458
-0.00853835
-0.0769466
-0.00845501
-0.0755562
-0.00839542
-0.0741708
-0.00836219
-0.0727867
-0.0083514
-0.0713997
-0.00836384
-0.070006
-0.00839752
-0.0686019
-0.00845291
-0.067184
-0.0085279
-0.0657511
-0.00861302
-0.0642998
-0.00871491
-0.0628289
-0.00882654
-0.0613382
-0.00893944
-0.059827
-0.00905791
-0.0582941
-0.00918169
-0.0567408
-0.00929939
-0.0551698
-0.00940647
-0.0535783
-0.00952149
-0.0519729
-0.00960819
-0.0503516
-0.00970535
-0.0487156
-0.00979351
-0.0470735
-0.00983662
-0.0454198
-0.0098986
-0.0437593
-0.00994862
-0.0420915
-0.00999426
-0.0404219
-0.0100052
-0.0387523
-0.0100076
-0.0370713
-0.0100673
-0.0353952
-0.010054
-0.0337257
-0.0100074
-0.0320577
-0.00999172
-0.0303849
-0.010025
-0.0287193
-0.00998987
-0.0270725
-0.00987003
-0.0254391
-0.00978077
-0.0238047
-0.00978765
-0.0221901
-0.00969596
-0.0206119
-0.00946309
-0.0190495
-0.00934845
-0.0174974
-0.00930904
-0.0159882
-0.00906657
-0.0145237
-0.00877042
-0.0130868
-0.0086075
-0.0116939
-0.00838217
-0.0103497
-0.00807888
-0.00904223
-0.00784394
-0.00778092
-0.00758949
-0.00658196
-0.00721325
-0.0054306
-0.00691366
-0.00433421
-0.00660408
-0.00328582
-0.00631451
-0.00230983
-0.00588873
-0.00137959
-0.00559391
-0.000489537
-0.00537928
0.000333677
-0.00498418
0.0011142
-0.00467612
0.00184781
-0.00443842
0.00250741
-0.00398745
0.00310597
-0.00359428
0.00367791
-0.00346892
0.00419614
-0.003162
0.00467286
-0.00287728
0.0051292
-0.00277155
0.00552328
-0.00239648
0.00585727
-0.00200431
0.00618505
-0.0019802
0.00649261
-0.001889
0.00674387
-0.00153517
0.00698431
-0.00144832
0.00723424
-0.00153242
0.00745328
-0.00134722
0.00765496
-0.00120691
0.00787782
-0.00134757
0.00809727
-0.00134473
0.0083061
-0.00124674
0.0085371
-0.00138559
0.00878373
-0.00149522
0.00904509
-0.00155969
0.00932965
-0.00170701
0.0096355
-0.00183769
0.00996637
-0.00197595
0.0103243
-0.00214258
0.0107047
-0.00227591
0.0111063
-0.00239876
0.0115228
-0.00249041
0.011958
-0.00259794
0.0124109
-0.00270722
0.0128725
-0.00276124
0.0133298
-0.0027336
0.0137852
-0.00272127
0.0142266
-0.00264628
0.0146519
-0.00254621
0.0150652
-0.00248136
0.0154504
-0.00231433
0.0157994
-0.00209301
0.0161121
-0.00187979
0.0163741
-0.0015757
0.0165812
-0.00124903
0.0167328
-0.000920317
0.0168267
-0.000575838
0.016861
-0.000217938
0.0168276
0.000182704
0.0167224
0.000620472
0.0165535
0.000999725
0.0163081
0.00145651
0.0160092
0.00177985
0.0156648
0.00204838
0.0152844
0.00226782
0.0149134
0.00221599
0.014526
0.00231418
0.0141674
0.00215265
0.0138886
0.00167441
0.0136803
0.00125627
0.0135496
0.000795916
0.013502
0.000298794
0.0134985
2.996e-05
0.0134814
0.000109439
0.0134073
0.00044685
0.0132645
0.000850528
0.0130392
0.00134248
0.0127314
0.00183908
0.0123537
0.00225528
0.0118735
0.00286795
0.0112868
0.00350939
0.0106301
0.00393621
0.00992258
0.00424741
0.00918099
0.00444814
0.00841159
0.00460731
0.00761836
0.00473612
0.00680215
0.00487288
0.00595814
0.00504985
0.00508243
0.00526354
0.00415634
0.00556071
0.0059213
0.00316379
-0.0783022
-0.00994569
-0.0769088
-0.00984833
-0.0755238
-0.0097805
-0.0741444
-0.00974158
-0.0727654
-0.00973037
-0.0713829
-0.00974635
-0.0699931
-0.00978735
-0.0685923
-0.00985369
-0.0671769
-0.00994323
-0.0657458
-0.0100441
-0.0642957
-0.010165
-0.0628251
-0.0102971
-0.0613343
-0.0104303
-0.0598222
-0.01057
-0.0582879
-0.010716
-0.0567329
-0.0108544
-0.05516
-0.0109794
-0.053566
-0.0111155
-0.0519587
-0.0112155
-0.050335
-0.011329
-0.0486966
-0.0114319
-0.0470528
-0.0114804
-0.0453968
-0.0115547
-0.0437348
-0.0116106
-0.0420658
-0.0116633
-0.0403949
-0.011676
-0.0387239
-0.0116786
-0.0370411
-0.0117502
-0.0353644
-0.0117307
-0.0336934
-0.0116784
-0.0320234
-0.0116617
-0.030349
-0.0116993
-0.0286826
-0.0116563
-0.0270336
-0.011519
-0.0253978
-0.0114166
-0.0237615
-0.0114239
-0.0221469
-0.0113106
-0.0205674
-0.0110427
-0.0190022
-0.0109136
-0.0174495
-0.0108617
-0.01594
-0.010576
-0.0144726
-0.0102378
-0.0130339
-0.0100462
-0.0116423
-0.00977376
-0.0102983
-0.00942295
-0.00899053
-0.00915168
-0.00773057
-0.00884945
-0.00653223
-0.00841158
-0.00538072
-0.00806518
-0.00428608
-0.00769871
-0.0032389
-0.00736169
-0.00226507
-0.00686256
-0.00133568
-0.00652331
-0.000448716
-0.00626625
0.000371494
-0.00580439
0.00115293
-0.00545756
0.00188427
-0.00516976
0.00254222
-0.0046454
0.00314231
-0.00419438
0.0037101
-0.0040367
0.00422334
-0.00367524
0.00469937
-0.00335332
0.00515133
-0.0032235
0.00554254
-0.00278768
0.00587703
-0.0023388
0.00620304
-0.00230622
0.00650649
-0.00219245
0.00675581
-0.00178449
0.00699584
-0.00168835
0.00724207
-0.00177865
0.00745846
-0.00156362
0.00766027
-0.00140871
0.00788135
-0.00156866
0.00809765
-0.00156103
0.0083075
-0.00145659
0.00853782
-0.00161591
0.00878279
-0.00174019
0.00904533
-0.00182223
0.00932965
-0.00199133
0.00963536
-0.0021434
0.00996707
-0.00230766
0.0103253
-0.00250076
0.0107063
-0.00265692
0.0111089
-0.00280139
0.0115262
-0.00290771
0.0119626
-0.00303433
0.0124166
-0.00316126
0.0128793
-0.00322394
0.0133377
-0.003192
0.0137944
-0.00317792
0.0142362
-0.00308813
0.0146623
-0.00297229
0.0150762
-0.00289523
0.0154614
-0.00269951
0.0158107
-0.00244235
0.0161234
-0.00219243
0.0163854
-0.00183773
0.0165923
-0.00145594
0.0167435
-0.00107155
0.016837
-0.000669266
0.0168699
-0.000250842
0.016837
0.000215526
0.0167312
0.000726349
0.0165614
0.00116951
0.0163147
0.00170318
0.0160145
0.00208005
0.0156684
0.00239444
0.0152863
0.00265
0.0149143
0.00258792
0.0145254
0.00270307
0.0141669
0.00251119
0.0138877
0.00195359
0.0136797
0.00146431
0.0135496
0.000925992
0.0135026
0.000345814
0.0135002
3.22954e-05
0.0134837
0.000125976
0.0134101
0.00052042
0.0132681
0.000992602
0.0130428
0.00156775
0.0127342
0.00214769
0.0123548
0.0026347
0.0118736
0.00334911
0.0112864
0.00409662
0.0106293
0.00459324
0.00992146
0.00495529
0.00917886
0.00519074
0.00840777
0.00537839
0.00761281
0.00553108
0.0067954
0.00569028
0.00595053
0.00589473
0.0050734
0.00614067
0.00415818
0.00647593
0.00689481
0.00318467
-0.0782623
-0.0113463
-0.0768758
-0.0112349
-0.0754983
-0.011158
-0.0741251
-0.0111148
-0.0727519
-0.0111035
-0.0713747
-0.0111236
-0.0699895
-0.0111726
-0.0685925
-0.0112506
-0.0671802
-0.0113556
-0.0657512
-0.0114731
-0.0643025
-0.0116138
-0.0628326
-0.0117671
-0.0613416
-0.0119212
-0.0598285
-0.0120831
-0.0582927
-0.0122518
-0.0567355
-0.0124116
-0.0551605
-0.0125545
-0.0535635
-0.0127124
-0.0519536
-0.0128255
-0.0503271
-0.0129555
-0.0486858
-0.0130732
-0.0470397
-0.0131264
-0.0453807
-0.0132136
-0.0437169
-0.0132744
-0.0420462
-0.013334
-0.0403738
-0.0133484
-0.0387013
-0.0133511
-0.0370167
-0.0134347
-0.0353397
-0.0134078
-0.0336669
-0.0133511
-0.0319947
-0.013334
-0.030319
-0.0133751
-0.0286512
-0.0133241
-0.0269996
-0.0131706
-0.0253604
-0.0130558
-0.0237219
-0.0130625
-0.0221067
-0.0129258
-0.0205246
-0.0126247
-0.0189562
-0.0124821
-0.0174029
-0.0124149
-0.0158926
-0.0120864
-0.0144214
-0.0117091
-0.0129805
-0.011487
-0.0115897
-0.0111646
-0.0102453
-0.0107674
-0.00893706
-0.0104599
-0.00767836
-0.0101081
-0.00648031
-0.00960963
-0.00532871
-0.00921679
-0.00423572
-0.0087917
-0.00318984
-0.00840758
-0.00221791
-0.00783448
-0.00128973
-0.00745149
-0.000406497
-0.00714948
0.000410679
-0.00662156
0.00119191
-0.00623879
0.00192113
-0.00589898
0.00257754
-0.0053018
0.00317994
-0.00479678
0.00374314
-0.0045999
0.00425139
-0.00418349
0.00472744
-0.00382937
0.00517459
-0.00367066
0.00556291
-0.003176
0.00589834
-0.00267423
0.00622232
-0.0026302
0.00652121
-0.00249134
0.00676833
-0.00203161
0.0070076
-0.00192762
0.00724954
-0.00202059
0.00746307
-0.00177715
0.00766483
-0.00161047
0.00788396
-0.00178779
0.00809669
-0.00177376
0.00830799
-0.00166789
0.00853747
-0.00184539
0.00878065
-0.00198337
0.00904421
-0.00208579
0.00932786
-0.00227498
0.00963309
-0.00244863
0.00996537
-0.00263995
0.0103236
-0.00285895
0.0107051
-0.00303845
0.0111088
-0.00320506
0.011527
-0.00332592
0.0119649
-0.00347223
0.0124202
-0.0036166
0.0128842
-0.00368794
0.013344
-0.00365181
0.0138023
-0.00363619
0.0142448
-0.00353066
0.0146719
-0.00339938
0.0150859
-0.00330919
0.0154715
-0.00308512
0.0158217
-0.00279253
0.0161346
-0.00250534
0.0163969
-0.00210006
0.0166037
-0.00166272
0.0167542
-0.00122209
0.0168469
-0.000761926
0.0168796
-0.000283544
0.016845
0.000250125
0.0167387
0.000832662
0.0165682
0.00133998
0.0163205
0.00195091
0.0160193
0.00238119
0.0156716
0.00274216
0.0152877
0.00303391
0.0149148
0.00296078
0.0145245
0.0030934
0.0141658
0.00286987
0.0138861
0.00223331
0.0136782
0.00167217
0.0135489
0.00105532
0.0135026
0.000392108
0.0135017
3.32295e-05
0.0134859
0.000141777
0.013413
0.000593325
0.0132715
0.00113407
0.0130462
0.00179309
0.0127371
0.00245673
0.0123566
0.00301523
0.0118743
0.00383143
0.0112867
0.00468419
0.0106288
0.00525112
0.00992013
0.00566399
0.00917729
0.00593358
0.00840587
0.00614981
0.00760945
0.00632751
0.00678907
0.00651066
0.00594148
0.00674232
0.00506361
0.00701854
0.00414827
0.00739128
0.00787658
0.00316649
-0.0782177
-0.0127394
-0.0768396
-0.012613
-0.07547
-0.0125276
-0.0741044
-0.0124804
-0.0727384
-0.0124694
-0.0713673
-0.0124947
-0.0699873
-0.0125526
-0.0685948
-0.0126431
-0.0671858
-0.0127646
-0.0657595
-0.0128994
-0.0643122
-0.013061
-0.062843
-0.0132363
-0.061352
-0.0134122
-0.059838
-0.0135971
-0.0583008
-0.013789
-0.0567417
-0.0139707
-0.0551643
-0.0141319
-0.0535644
-0.0143122
-0.0519517
-0.0144382
-0.050322
-0.0145852
-0.0486778
-0.0147175
-0.0470291
-0.0147751
-0.0453671
-0.0148757
-0.0437014
-0.0149402
-0.0420291
-0.0150062
-0.0403551
-0.0150225
-0.0386806
-0.0150256
-0.036994
-0.0151212
-0.0353161
-0.0150857
-0.0336408
-0.0150264
-0.0319662
-0.0150086
-0.0302889
-0.0150523
-0.0286198
-0.0149932
-0.0269652
-0.0148253
-0.0253226
-0.0146984
-0.0236818
-0.0147033
-0.0220658
-0.0145418
-0.0204807
-0.0142097
-0.0189086
-0.0140543
-0.0173548
-0.0139687
-0.0158431
-0.013598
-0.0143676
-0.0131846
-0.0129244
-0.0129302
-0.011534
-0.0125551
-0.0101891
-0.0121122
-0.00888107
-0.011768
-0.00762373
-0.0113655
-0.00642579
-0.0108076
-0.00527382
-0.0103688
-0.00418189
-0.00988363
-0.0031369
-0.00945257
-0.00216617
-0.00880522
-0.00123904
-0.00837862
-0.000358918
-0.0080296
0.000455495
-0.00743598
0.00123614
-0.00701944
0.0019633
-0.00662614
0.00261836
-0.00595687
0.00322208
-0.00540049
0.00378101
-0.00515884
0.0042837
-0.00468618
0.00475792
-0.00430359
0.00520021
-0.00411295
0.00558514
-0.00356093
0.00592192
-0.00301101
0.00624323
-0.00295151
0.00653734
-0.00278544
0.0067827
-0.00227697
0.00702117
-0.0021661
0.00725816
-0.00225758
0.00746879
-0.00198779
0.00767029
-0.00181197
0.00788665
-0.00200414
0.00809559
-0.0019827
0.00830827
-0.00188058
0.0085362
-0.00207331
0.00877798
-0.00222515
0.00904231
-0.00235012
0.00932541
-0.00255808
0.00963056
-0.00275378
0.00996362
-0.00297301
0.0103219
-0.00321725
0.010704
-0.00342058
0.0111087
-0.00360976
0.011528
-0.00374513
0.0119674
-0.00391171
0.012424
-0.00407321
0.0128894
-0.00415335
0.013351
-0.00411332
0.0138109
-0.00409614
0.0142541
-0.00397388
0.0146824
-0.00382768
0.0150963
-0.00372308
0.015482
-0.00347084
0.0158328
-0.00314328
0.0161462
-0.00281873
0.016409
-0.00236285
0.016616
-0.00186971
0.0167664
-0.0013725
0.0168584
-0.000853918
0.0168897
-0.000314849
0.016855
0.000284802
0.0167479
0.000939754
0.0165763
0.00151155
0.0163271
0.00220009
0.0160247
0.00268365
0.015675
0.00309187
0.0152892
0.00341971
0.014915
0.00333495
0.014523
0.00348541
0.014164
0.00322891
0.0138837
0.00251358
0.0136759
0.00187999
0.0135474
0.00118381
0.0135022
0.000437354
0.013502
3.34039e-05
0.0134879
0.000155903
0.0134162
0.000664943
0.0132749
0.00127539
0.0130495
0.00201853
0.0127404
0.00276581
0.0123594
0.00339623
0.0118754
0.00431544
0.011287
0.00527259
0.0106288
0.00590934
0.00991975
0.00637301
0.00917603
0.0066773
0.00840319
0.00692265
0.00760516
0.00712554
0.00678347
0.00733235
0.00593472
0.00759107
0.00505552
0.00789774
0.00414063
0.00830616
0.00884733
0.00316989
-0.0781717
-0.0141221
-0.0768014
-0.0139833
-0.0754407
-0.0138883
-0.0740839
-0.0138372
-0.0727261
-0.0138273
-0.0713623
-0.0138585
-0.0699884
-0.0139265
-0.0686011
-0.0140304
-0.0671961
-0.0141695
-0.0657727
-0.0143229
-0.0643273
-0.0145065
-0.0628591
-0.0147045
-0.0613679
-0.0149034
-0.0598528
-0.0151121
-0.0583139
-0.015328
-0.0567523
-0.0155322
-0.0551719
-0.0157123
-0.053569
-0.0159151
-0.0519529
-0.0160544
-0.0503198
-0.0162183
-0.0486722
-0.016365
-0.0470205
-0.0164268
-0.0453549
-0.0165412
-0.043687
-0.0166081
-0.0420129
-0.0166804
-0.040337
-0.0166984
-0.0386606
-0.016702
-0.0369726
-0.0168093
-0.0352939
-0.0167644
-0.033616
-0.0167043
-0.0319388
-0.0166858
-0.0302602
-0.0167309
-0.0285894
-0.016664
-0.0269312
-0.0164835
-0.0252846
-0.0163449
-0.0236416
-0.0163463
-0.0220242
-0.0161592
-0.0204354
-0.0157985
-0.0188597
-0.0156299
-0.0173053
-0.0155232
-0.0157915
-0.0151118
-0.014311
-0.0146652
-0.0128651
-0.014376
-0.0114743
-0.0139459
-0.0101284
-0.013458
-0.0088207
-0.0130757
-0.00756486
-0.0126213
-0.00636723
-0.0120052
-0.00521529
-0.0115207
-0.00412473
-0.0109742
-0.00308086
-0.0104964
-0.00211118
-0.0097749
-0.00118585
-0.00930395
-0.000308982
-0.00890647
0.00050233
-0.00824729
0.00128166
-0.00779877
0.0020067
-0.00735117
0.00266103
-0.0066112
0.00326554
-0.006005
0.003821
-0.0057143
0.00431866
-0.00518384
0.00479004
-0.00477497
0.00522758
-0.00455048
0.00560908
-0.00394244
0.00594768
-0.00334962
0.00626524
-0.00326906
0.00655383
-0.00307403
0.00679731
-0.00252045
0.00703462
-0.0024034
0.00726631
-0.00248927
0.00747404
-0.00219551
0.00767514
-0.00201307
0.00788828
-0.00221728
0.00809361
-0.00218803
0.00830717
-0.00209414
0.00853293
-0.00229907
0.00877354
-0.00246576
0.00903837
-0.00261495
0.00932101
-0.00284072
0.00962589
-0.00305866
0.00995939
-0.00330651
0.0103176
-0.0035755
0.0107003
-0.00380328
0.0111061
-0.00401554
0.0115264
-0.00416543
0.0119677
-0.004353
0.0124258
-0.00453135
0.012893
-0.00462046
0.0133565
-0.00457685
0.0138185
-0.00455818
0.0142626
-0.00441794
0.0146921
-0.00425719
0.0151068
-0.00413781
0.015493
-0.00385699
0.0158448