/*--------------------------------*- C++ -*----------------------------------*\
| =========                 |                                                 |
| \\      /  F ield         | OpenFOAM: The Open Source CFD Toolbox           |
|  \\    /   O peration     | Version:  v1912                                 |
|   \\  /    A nd           | Website:  www.openfoam.com                      |
|    \\/     M anipulation  |                                                 |
\*---------------------------------------------------------------------------*/
FoamFile
{
    version     2.0;
    format      ascii;
    class       volVectorField;
    location    "60";
    object      U;
}
// * * * * * * * * * * * * * * * * * * * * * * * * * * * * * * * * * * * * * //

dimensions      [0 1 -1 0 0 0 0];


internalField   nonuniform List<vector> 
14268
(
(-1.64835 -0.0876928 1.10508e-24)
(-1.63072 -0.0867747 0)
(-1.61309 -0.085873 -2.2306e-24)
(-1.59538 -0.0849855 2.19503e-25)
(-1.57749 -0.0841087 0)
(-1.55933 -0.0832365 1.21793e-24)
(-1.54084 -0.082362 0)
(-1.52191 -0.0814827 -1.05981e-24)
(-1.50247 -0.0805962 0)
(-1.48245 -0.0796857 0)
(-1.46178 -0.0787326 3.23753e-27)
(-1.4404 -0.077735 -2.03283e-24)
(-1.41826 -0.0766837 0)
(-1.39534 -0.075601 0)
(-1.37157 -0.0744955 0)
(-1.34696 -0.0733718 -2.35511e-24)
(-1.3215 -0.0722437 0)
(-1.29518 -0.0710715 -2.685e-24)
(-1.26801 -0.0699238 -2.42835e-24)
(-1.23999 -0.0688851 -3.82457e-25)
(-1.21115 -0.0676543 0)
(-1.18157 -0.0662126 -2.28486e-24)
(-1.15122 -0.064823 0)
(-1.12004 -0.063359 -2.21461e-24)
(-1.08813 -0.0618397 -2.17687e-24)
(-1.05561 -0.0602375 -2.15902e-24)
(-1.02239 -0.0585669 2.07166e-24)
(-0.988345 -0.0568841 0)
(-0.953638 -0.0551356 -2.64346e-24)
(-0.918501 -0.0533593 2.62434e-24)
(-0.882778 -0.0516091 0)
(-0.846207 -0.0499042 2.50247e-24)
(-0.809 -0.0481251 0)
(-0.771598 -0.0462348 -2.11966e-24)
(-0.73389 -0.0443603 0)
(-0.695434 -0.0425534 0)
(-0.656472 -0.0406426 -1.3607e-24)
(-0.617678 -0.0385583 0)
(-0.578861 -0.0365605 0)
(-0.539436 -0.0346349 6.83743e-25)
(-0.499912 -0.0325206 1.65568e-24)
(-0.461071 -0.0303536 0)
(-0.422523 -0.0283397 1.01839e-25)
(-0.383916 -0.0263082 0)
(-0.345916 -0.0242025 2.95467e-25)
(-0.308565 -0.022178 4.37392e-25)
(-0.271425 -0.0201777 5.48643e-25)
(-0.23519 -0.0180982 0)
(-0.200095 -0.0161324 2.51409e-24)
(-0.165765 -0.014216 0)
(-0.132059 -0.0123478 0)
(-0.0996152 -0.010428 5.81592e-25)
(-0.0688513 -0.0086768 0)
(-0.0382356 -0.00703311 0)
(-0.00861423 -0.00525671 2.06661e-25)
(0.0191405 -0.00361163 1.65353e-24)
(0.0463487 -0.002115 0)
(0.0723085 -0.000479746 -2.37048e-25)
(0.0960594 0.00100879 0)
(0.118796 0.00217861 0)
(0.14106 0.00349295 -7.48857e-25)
(0.162151 0.00476991 0)
(0.182393 0.00580943 0)
(0.201775 0.00703485 0)
(0.219106 0.00819938 0)
(0.235115 0.00896163 0)
(0.251391 0.00978266 0)
(0.267437 0.010867 0)
(0.281599 0.0116498 0)
(0.295914 0.012247 5.18268e-25)
(0.31092 0.0131262 0)
(0.32523 0.013966 2.09488e-26)
(0.339392 0.014506 0)
(0.354605 0.015205 0)
(0.37049 0.0160608 -7.28844e-25)
(0.386701 0.0167013 0)
(0.404067 0.0174141 0)
(0.423066 0.018294 -1.41011e-24)
(0.443655 0.019188 0)
(0.465888 0.0201973 0)
(0.489988 0.0212964 0)
(0.516276 0.0224454 0)
(0.544933 0.0237361 -1.73002e-24)
(0.575846 0.0251367 1.5962e-24)
(0.608824 0.0266307 0)
(0.643903 0.0282069 0)
(0.681371 0.0298924 0)
(0.721294 0.0317434 -5.11645e-25)
(0.763142 0.0337687 1.6859e-25)
(0.806364 0.0358697 0)
(0.850863 0.0380674 6.81669e-25)
(0.896602 0.0403386 0)
(0.943496 0.0426373 0)
(0.991355 0.0451188 0)
(1.03952 0.047697 0)
(1.08729 0.0502243 0)
(1.13435 0.0528054 -3.62017e-24)
(1.18024 0.0553115 0)
(1.22445 0.0577592 0)
(1.26666 0.0601874 0)
(1.30667 0.0624404 1.95806e-24)
(1.34425 0.0646404 0)
(1.37817 0.066612 0)
(1.40808 0.0683282 0)
(1.43406 0.070003 0)
(1.45544 0.0713899 0)
(1.4739 0.0726077 0)
(1.48941 0.0735196 0)
(1.50496 0.0742373 0)
(1.52079 0.0751122 0)
(1.53846 0.0759609 0)
(1.56199 0.0767577 -2.1111e-24)
(1.59649 0.0781009 0)
(1.6441 0.0800586 2.8821e-24)
(1.7056 0.0825504 -2.53285e-24)
(1.78122 0.0860939 0)
(1.86789 0.0904277 -1.52033e-24)
(1.95883 0.0951292 0)
(2.04824 0.0998553 0)
(2.13489 0.104681 -3.79441e-25)
(2.21919 0.109399 0)
(2.30103 0.113677 0)
(2.37935 0.117717 0)
(2.44494 0.121583 0)
(2.49901 0.124809 0)
(2.54769 0.126615 0)
(2.59511 0.128267 1.96277e-24)
(2.64332 0.131698 3.89065e-24)
(2.6952 0.135873 0)
(2.75356 0.135559 0)
(2.81905 0.134652 0)
(2.88983 0.135508 -1.06075e-22)
(2.96697 0.141078 2.19376e-22)
(3.05854 0.127039 0)
(-1.64551 -0.0940113 0)
(-1.62792 -0.0930115 0)
(-1.61033 -0.0920747 -3.40289e-24)
(-1.59264 -0.0912011 -4.12021e-24)
(-1.57477 -0.0903796 3.18334e-24)
(-1.55664 -0.0896029 2.90314e-24)
(-1.53816 -0.0888617 1.52211e-24)
(-1.51924 -0.088154 -7.04527e-25)
(-1.4998 -0.0874676 0)
(-1.47978 -0.0867689 -6.73483e-25)
(-1.45909 -0.0861251 4.16914e-24)
(-1.43768 -0.0854918 -3.41424e-24)
(-1.41553 -0.0848542 -2.03686e-24)
(-1.3926 -0.0841918 -2.29185e-24)
(-1.36883 -0.0834951 2.48576e-24)
(-1.34423 -0.082738 -2.63439e-24)
(-1.31878 -0.0818611 -2.69399e-24)
(-1.29248 -0.0809828 2.89722e-24)
(-1.2654 -0.0799275 -2.58736e-24)
(-1.23737 -0.0786129 -6.74254e-24)
(-1.20847 -0.0774177 0)
(-1.17886 -0.076322 2.21945e-24)
(-1.14849 -0.0750674 -2.06599e-24)
(-1.1173 -0.0738208 -1.93158e-24)
(-1.08538 -0.0725285 1.76982e-24)
(-1.05284 -0.071147 -1.63046e-24)
(-1.01961 -0.0697597 -5.21493e-24)
(-0.985546 -0.0684969 -1.63964e-24)
(-0.95086 -0.0670448 1.64895e-24)
(-0.915761 -0.0654001 0)
(-0.880069 -0.0637551 -1.27403e-24)
(-0.843516 -0.0621741 1.04872e-24)
(-0.806329 -0.0603936 -7.17393e-25)
(-0.768953 -0.0583864 -2.72896e-24)
(-0.731269 -0.0564289 0)
(-0.692822 -0.0546653 -6.9408e-25)
(-0.653873 -0.0527031 1.32102e-24)
(-0.615112 -0.0503741 1.94797e-24)
(-0.57631 -0.048328 0)
(-0.536887 -0.046501 3.10619e-24)
(-0.497397 -0.0441783 5.32284e-24)
(-0.458597 -0.0416911 4.26881e-24)
(-0.420067 -0.0395763 -4.72637e-24)
(-0.381498 -0.0373543 5.15106e-24)
(-0.343559 -0.0348856 5.53343e-24)
(-0.306247 -0.0326067 -5.79384e-24)
(-0.269144 -0.0303597 5.951e-24)
(-0.232977 -0.0278093 0)
(-0.19793 -0.025474 4.15988e-24)
(-0.163649 -0.0232077 0)
(-0.130009 -0.0209776 0)
(-0.0976452 -0.0184833 0)
(-0.0669448 -0.0163436 -5.0246e-24)
(-0.036381 -0.0144982 0)
(-0.00684806 -0.0122147 4.08407e-24)
(0.0208304 -0.0101549 2.30446e-24)
(0.0479899 -0.00842471 0)
(0.0738691 -0.00614303 0)
(0.0975511 -0.00405142 0)
(0.120248 -0.00275247 0)
(0.142446 -0.00102093 0)
(0.163464 0.000684054 0)
(0.183661 0.00184877 0)
(0.202981 0.00366319 -4.97377e-25)
(0.220258 0.00549483 0)
(0.236261 0.00629025 0)
(0.252511 0.00720618 0)
(0.268492 0.00882233 0)
(0.282635 0.00971031 0)
(0.296946 0.0101045 0)
(0.311917 0.011219 -3.02547e-24)
(0.326202 0.0122745 0)
(0.340374 0.0125565 4.44346e-24)
(0.355583 0.0132338 0)
(0.371451 0.0142558 -5.90471e-24)
(0.387683 0.0146597 0)
(0.405073 0.0151577 0)
(0.424086 0.0158835 0)
(0.444699 0.0163971 0)
(0.466954 0.0170059 8.32799e-24)
(0.491074 0.0177126 0)
(0.517382 0.01844 8.36313e-24)
(0.546054 0.0193688 0)
(0.576977 0.0204389 0)
(0.609962 0.0216973 0)
(0.645046 0.0230333 0)
(0.682519 0.0244597 0)
(0.722436 0.0261292 3.80616e-24)
(0.764268 0.0280862 2.67993e-24)
(0.807474 0.0300462 0)
(0.85195 0.0322123 7.29493e-26)
(0.897658 0.0345325 -1.39949e-24)
(0.944517 0.0367916 0)
(0.99233 0.0393052 0)
(1.04044 0.041953 0)
(1.08816 0.0445698 0)
(1.13516 0.0473757 0)
(1.18098 0.0502155 -8.90326e-24)
(1.2251 0.0529587 0)
(1.26724 0.0555964 -9.76973e-24)
(1.30717 0.0582498 -1.95797e-24)
(1.34466 0.0608842 -9.57701e-24)
(1.37848 0.063523 0)
(1.40833 0.0658417 0)
(1.43424 0.0680935 0)
(1.45557 0.0697673 -3.8184e-24)
(1.47398 0.0711532 -1.16872e-24)
(1.48946 0.0724126 0)
(1.50499 0.0729757 -5.25675e-24)
(1.52081 0.0738951 0)
(1.53851 0.0741821 0)
(1.56211 0.0739868 0)
(1.59668 0.0744729 0)
(1.64439 0.0754319 0)
(1.70598 0.0770067 -1.38222e-23)
(1.78165 0.079593 1.24359e-23)
(1.86833 0.0835798 0)
(1.95925 0.0884704 0)
(2.04865 0.0933771 0)
(2.13534 0.0982645 1.41356e-24)
(2.21971 0.103059 0)
(2.30161 0.107688 0)
(2.37999 0.112937 0)
(2.44565 0.117324 0)
(2.4998 0.120632 0)
(2.54845 0.124393 0)
(2.59582 0.12771 0)
(2.64411 0.12916 5.41939e-25)
(2.69622 0.130092 0)
(2.75436 0.136027 -1.84158e-23)
(2.81957 0.14325 0)
(2.8901 0.149356 0)
(2.97478 0.151338 0)
(3.02065 0.171983 -3.64727e-22)
(-1.64457 -0.104305 -1.07547e-23)
(-1.62703 -0.10323 0)
(-1.60948 -0.102241 0)
(-1.59183 -0.101336 -1.07873e-23)
(-1.574 -0.100514 3.04073e-24)
(-1.5559 -0.0997636 1.54449e-24)
(-1.53744 -0.0991159 2.15957e-25)
(-1.51854 -0.0985382 1.13826e-24)
(-1.49912 -0.0980174 0)
(-1.4791 -0.0975416 -3.54228e-24)
(-1.45843 -0.0970531 4.48324e-24)
(-1.43702 -0.0965609 3.52255e-24)
(-1.41488 -0.0960265 -5.85297e-24)
(-1.39194 -0.0954775 -6.28255e-24)
(-1.36815 -0.0949261 1.13046e-23)
(-1.34352 -0.094331 -6.68898e-24)
(-1.31803 -0.0937286 -1.15896e-23)
(-1.29169 -0.09307 1.87671e-24)
(-1.26455 -0.0923779 -6.72149e-24)
(-1.23644 -0.0919408 -6.75598e-24)
(-1.20749 -0.0912537 0)
(-1.17787 -0.0901177 6.42738e-24)
(-1.14747 -0.0891472 -1.05122e-23)
(-1.11626 -0.0880798 -6.03967e-24)
(-1.08433 -0.0869424 2.03392e-24)
(-1.05178 -0.085607 -8.99321e-24)
(-1.01855 -0.0841588 -5.14488e-24)
(-0.984489 -0.0828443 -7.1588e-24)
(-0.949803 -0.0812873 2.1008e-24)
(-0.914703 -0.0795834 0)
(-0.87899 -0.0780159 -3.50166e-24)
(-0.842396 -0.0766906 2.13909e-24)
(-0.805174 -0.075095 -2.70858e-24)
(-0.767783 -0.073082 -2.20764e-24)
(-0.730075 -0.0711759 0)
(-0.691575 -0.0696817 1.0339e-24)
(-0.652598 -0.0678194 1.61214e-24)
(-0.613858 -0.0652362 6.66163e-25)
(-0.575045 -0.0630973 0)
(-0.535583 -0.0613636 7.40675e-24)
(-0.496116 -0.0587748 3.67635e-24)
(-0.457348 -0.055862 4.72888e-24)
(-0.418794 -0.0535797 -5.61474e-24)
(-0.380238 -0.0511708 -2.0257e-24)
(-0.342349 -0.0483385 -1.99269e-24)
(-0.305047 -0.0457891 1.95808e-24)
(-0.267956 -0.0432736 -1.92136e-24)
(-0.231847 -0.0402236 0)
(-0.196827 -0.0375003 -9.48643e-24)
(-0.162582 -0.0348531 0)
(-0.128993 -0.0322622 0)
(-0.0966884 -0.0291725 -8.34828e-24)
(-0.066029 -0.0266234 -6.0555e-24)
(-0.0355011 -0.024525 0)
(-0.00603643 -0.0216505 -1.66748e-24)
(0.0216055 -0.0190905 0)
(0.0487475 -0.0170696 0)
(0.0745839 -0.0141126 -3.89108e-24)
(0.098223 -0.0114431 0)
(0.120889 -0.0100689 0)
(0.143026 -0.00792706 -1.44333e-24)
(0.163976 -0.00579883 0)
(0.184134 -0.00457555 0)
(0.203409 -0.00225635 1.51592e-24)
(0.220627 0.000130255 -3.38757e-25)
(0.236607 0.000841677 -4.12967e-25)
(0.252808 0.00179202 0)
(0.268699 0.00395252 0)
(0.282804 0.00496456 0)
(0.297097 0.00513958 0)
(0.31203 0.00651148 -2.52068e-24)
(0.326279 0.0077767 0)
(0.34045 0.00772801 -1.80132e-24)
(0.355645 0.00829257 0)
(0.371483 0.00941023 -7.37336e-24)
(0.38771 0.00946868 -1.01609e-23)
(0.405095 0.00966518 0)
(0.424091 0.0102402 -1.20659e-23)
(0.444696 0.0104934 0)
(0.466953 0.0109148 1.16893e-23)
(0.49108 0.0114127 0)
(0.517409 0.0118247 1.19219e-23)
(0.546101 0.0124813 -1.27317e-23)
(0.577047 0.0132721 0)
(0.610059 0.0142339 0)
(0.645176 0.0152214 -9.15509e-24)
(0.682687 0.016286 -7.50802e-24)
(0.722641 0.0176788 4.82215e-24)
(0.764501 0.0195009 3.02812e-24)
(0.807732 0.0213439 0)
(0.852231 0.0234667 -1.23641e-24)
(0.897956 0.0257576 -8.34751e-25)
(0.944832 0.0279392 0)
(0.992655 0.0306302 0)
(1.04077 0.0335934 0)
(1.0885 0.0364627 0)
(1.13549 0.0397073 1.39936e-23)
(1.18131 0.0429695 -1.67644e-23)
(1.22543 0.0461939 0)
(1.26755 0.0494621 -1.73963e-24)
(1.30745 0.0526064 1.95542e-23)
(1.34494 0.0558257 -2.19638e-24)
(1.37873 0.0590182 0)
(1.40852 0.0617731 0)
(1.43436 0.064778 0)
(1.4556 0.0671042 -1.05945e-23)
(1.47394 0.069073 -6.45109e-24)
(1.48933 0.0706273 1.97851e-24)
(1.50479 0.0710601 -4.07771e-24)
(1.52057 0.0721526 0)
(1.53824 0.0723672 0)
(1.56188 0.0714045 0)
(1.59651 0.0711401 -2.35948e-23)
(1.64429 0.0712218 0)
(1.70597 0.0716386 -1.95779e-23)
(1.78176 0.0737336 1.59842e-23)
(1.86851 0.0776652 -1.36997e-23)
(1.95945 0.0827718 0)
(2.04882 0.0882011 -3.15612e-24)
(2.13542 0.0939901 -1.41336e-24)
(2.21965 0.0997065 0)
(2.3014 0.104919 0)
(2.3797 0.110583 5.13192e-24)
(2.44536 0.116109 0)
(2.49951 0.120229 0)
(2.54822 0.122733 0)
(2.59559 0.124937 0)
(2.64368 0.12884 1.40158e-24)
(2.69541 0.133251 -4.68828e-25)
(2.75365 0.133585 -8.36768e-24)
(2.81914 0.133562 2.09879e-23)
(2.88979 0.135412 -4.88197e-23)
(2.96542 0.143071 1.20707e-22)
(3.05787 0.132081 -3.47499e-24)
(-1.6437 -0.11105 -1.32146e-23)
(-1.62622 -0.109897 0)
(-1.60872 -0.108902 0)
(-1.59112 -0.108066 -7.03801e-24)
(-1.57334 -0.107358 6.49584e-24)
(-1.55527 -0.106772 -4.29128e-24)
(-1.53685 -0.106269 0)
(-1.51799 -0.105874 1.18156e-25)
(-1.49858 -0.105566 0)
(-1.47859 -0.105309 0)
(-1.45792 -0.105134 0)
(-1.4365 -0.105009 7.36048e-24)
(-1.41432 -0.104886 -6.47768e-24)
(-1.39134 -0.104768 7.09704e-24)
(-1.3675 -0.104642 9.28047e-24)
(-1.34282 -0.104423 7.66695e-24)
(-1.31728 -0.104084 -1.8529e-24)
(-1.29088 -0.103737 -1.69347e-23)
(-1.26366 -0.103165 0)
(-1.23557 -0.102491 0)
(-1.20666 -0.101833 0)
(-1.17701 -0.101025 0)
(-1.14658 -0.1002 -1.54853e-23)
(-1.11534 -0.0993392 0)
(-1.08336 -0.0984216 -2.03532e-24)
(-1.05079 -0.0972972 -1.35222e-23)
(-1.01752 -0.0961197 0)
(-0.983384 -0.0952306 -6.78688e-24)
(-0.948631 -0.0939499 -6.24882e-24)
(-0.913483 -0.0923691 0)
(-0.877727 -0.0909182 0)
(-0.841094 -0.0897263 -4.81407e-24)
(-0.803855 -0.088121 0)
(-0.766461 -0.0859726 0)
(-0.728739 -0.0839819 4.00718e-25)
(-0.690207 -0.0825307 0)
(-0.651227 -0.0805748 -4.80421e-25)
(-0.612512 -0.0777142 0)
(-0.573666 -0.0755257 0)
(-0.534145 -0.0738563 3.66882e-24)
(-0.494687 -0.0709993 0)
(-0.45591 -0.0677424 0)
(-0.417281 -0.0653374 0)
(-0.378723 -0.0626657 -8.87108e-24)
(-0.340881 -0.059433 -9.72398e-24)
(-0.303567 -0.0566113 1.03321e-23)
(-0.26648 -0.0537841 -1.07043e-23)
(-0.230421 -0.0502234 -1.27926e-23)
(-0.195395 -0.0471131 -1.0898e-23)
(-0.16116 -0.0440709 0)
(-0.127603 -0.0411166 0)
(-0.0953397 -0.0374526 -9.59632e-24)
(-0.0647017 -0.0345392 0)
(-0.0342048 -0.0322365 0)
(-0.00482128 -0.028863 1.66698e-24)
(0.0227716 -0.0259293 0)
(0.0498806 -0.0236541 0)
(0.0756561 -0.0200438 -3.49252e-24)
(0.099251 -0.0167848 0)
(0.121883 -0.0152735 0)
(0.143939 -0.0126943 -2.00276e-26)
(0.164792 -0.010159 0)
(0.184887 -0.0088095 0)
(0.204094 -0.00586668 0)
(0.22127 -0.00280755 1.62124e-24)
(0.237251 -0.00206383 1.53685e-24)
(0.253416 -0.000989961 0)
(0.269216 0.00171028 0)
(0.283291 0.00280072 0)
(0.297556 0.00277535 0)
(0.312416 0.00440927 0)
(0.326611 0.00586726 0)
(0.340765 0.00556079 -7.22402e-24)
(0.355924 0.00612723 0)
(0.371718 0.00740615 -1.24726e-23)
(0.387956 0.00722315 -1.21832e-23)
(0.405357 0.00721703 0)
(0.424356 0.00761389 -1.50208e-23)
(0.444975 0.0074732 0)
(0.467249 0.00748115 0)
(0.491397 0.00756415 0)
(0.517752 0.00753583 -1.83136e-23)
(0.546468 0.00781407 -1.62615e-23)
(0.577442 0.00825369 0)
(0.610487 0.0089639 0)
(0.645643 0.00969328 -1.14762e-23)
(0.683195 0.0104807 -9.24217e-24)
(0.72318 0.0116836 -7.75897e-24)
(0.765068 0.0134497 0)
(0.808332 0.0151497 0)
(0.852865 0.0172432 0)
(0.898613 0.0195801 5.14446e-24)
(0.9455 0.0217056 0)
(0.99332 0.024444 -1.14951e-23)
(1.04142 0.0275273 0)
(1.08914 0.0305497 0)
(1.13613 0.0340596 2.12203e-23)
(1.18192 0.0376507 0)
(1.226 0.0411549 0)
(1.26805 0.0446376 2.61289e-23)
(1.30789 0.0482088 2.45889e-23)
(1.34526 0.0519684 2.61756e-23)
(1.37894 0.055817 0)
(1.40869 0.0591785 0)
(1.43446 0.0627468 0)
(1.45563 0.0653247 0)
(1.47391 0.0674541 5.00687e-24)
(1.48921 0.0693135 -1.45735e-24)
(1.50463 0.0696119 0)
(1.52035 0.0707452 0)
(1.53801 0.0703706 0)
(1.56168 0.0684368 0)
(1.59635 0.0672735 -2.91158e-23)
(1.6442 0.0664156 3.28652e-23)
(1.70599 0.0658858 -3.00594e-23)
(1.78186 0.0670673 0)
(1.86866 0.0708177 -1.6547e-23)
(1.95961 0.0762653 0)
(2.04896 0.0818964 -2.56185e-24)
(2.13549 0.087885 3.65621e-24)
(2.21964 0.093855 0)
(2.3013 0.0992112 0)
(2.37951 0.105706 9.93752e-24)
(2.44513 0.111704 0)
(2.49928 0.11626 0)
(2.54788 0.120835 0)
(2.59513 0.124217 0)
(2.64312 0.125344 -2.69978e-24)
(2.6945 0.12615 -7.04782e-25)
(2.75164 0.131509 0)
(2.81588 0.138152 2.37081e-23)
(2.88576 0.14395 -5.18466e-23)
(2.96918 0.144874 3.72893e-24)
(3.0212 0.16269 2.49963e-22)
(-1.64279 -0.120702 0)
(-1.62539 -0.119496 -1.6314e-23)
(-1.60797 -0.118438 1.36333e-23)
(-1.59046 -0.11753 -1.09895e-23)
(-1.57274 -0.116821 -1.65808e-24)
(-1.55475 -0.116267 -3.61612e-24)
(-1.53639 -0.115868 2.44118e-24)
(-1.51756 -0.115613 -1.759e-24)
(-1.49819 -0.115487 0)
(-1.47822 -0.115415 -4.35667e-24)
(-1.45757 -0.11543 0)
(-1.43616 -0.115485 7.42779e-24)
(-1.41399 -0.115521 -1.75377e-24)
(-1.39101 -0.115582 1.77786e-24)
(-1.36716 -0.115676 9.83242e-24)
(-1.34245 -0.115708 2.20916e-23)
(-1.31687 -0.115657 1.20827e-23)
(-1.29042 -0.115617 -2.23276e-23)
(-1.26316 -0.115377 1.00163e-23)
(-1.23499 -0.115193 9.7451e-24)
(-1.206 -0.114879 0)
(-1.17632 -0.114187 9.15714e-24)
(-1.14584 -0.113611 -1.07745e-23)
(-1.11455 -0.11294 0)
(-1.08255 -0.11219 2.0367e-24)
(-1.04996 -0.111148 -9.56177e-24)
(-1.01667 -0.110023 0)
(-0.982494 -0.109275 0)
(-0.947724 -0.108013 0)
(-0.912562 -0.10644 5.43288e-24)
(-0.876777 -0.105071 4.8562e-24)
(-0.840093 -0.104069 4.20366e-24)
(-0.802809 -0.102548 0)
(-0.765382 -0.100357 0)
(-0.727616 -0.0983859 2.16167e-24)
(-0.689007 -0.0971345 0)
(-0.649981 -0.0951904 -1.7624e-24)
(-0.611267 -0.0921005 0)
(-0.572371 -0.0898728 0)
(-0.532773 -0.0882854 0)
(-0.493321 -0.0851653 0)
(-0.454533 -0.0815713 0)
(-0.41582 -0.0790436 0)
(-0.377265 -0.0761387 -1.3634e-23)
(-0.339464 -0.07256 0)
(-0.302121 -0.0694942 0)
(-0.265025 -0.0663799 0)
(-0.229009 -0.0623341 -3.04001e-23)
(-0.19397 -0.0588642 0)
(-0.159752 -0.0554242 0)
(-0.126241 -0.0521004 -1.51175e-23)
(-0.0940244 -0.0478174 0)
(-0.0634129 -0.0444979 0)
(-0.0329612 -0.0418871 0)
(-0.00365114 -0.037909 8.91229e-24)
(0.0239186 -0.0345122 -1.00523e-23)
(0.0510096 -0.0318884 0)
(0.0767537 -0.0276184 -6.37565e-24)
(0.100329 -0.0238204 0)
(0.12292 -0.0221953 0)
(0.144893 -0.019191 0)
(0.165652 -0.016274 0)
(0.185683 -0.0148502 -2.44544e-25)
(0.204845 -0.01143 0)
(0.221993 -0.00788637 0)
(0.237955 -0.00721758 0)
(0.25405 -0.00607021 0)
(0.269732 -0.00285703 -1.97487e-24)
(0.283773 -0.00166753 0)
(0.297995 -0.0018697 -5.08927e-24)
(0.312781 9.94004e-06 0)
(0.326944 0.00161439 0)
(0.341087 0.000995919 0)
(0.356211 0.0014619 -1.35465e-23)
(0.371967 0.00277809 1.7611e-24)
(0.388203 0.00225537 0)
(0.4056 0.001972 -1.94219e-23)
(0.424581 0.00220592 -2.12978e-23)
(0.445196 0.00182279 -2.26232e-23)
(0.467478 0.00165516 0)
(0.491646 0.00152267 0)
(0.518032 0.0012111 1.35547e-24)
(0.546781 0.00123303 0)
(0.577792 0.00141029 -2.10153e-23)
(0.610886 0.0018569 0)
(0.646098 0.00225807 0)
(0.683712 0.00271607 0)
(0.723759 0.00365859 -9.17348e-24)
(0.765702 0.00526937 6.7817e-24)
(0.80902 0.00685699 0)
(0.853604 0.00892579 0)
(0.899394 0.011229 0)
(0.946311 0.0133195 1.0078e-23)
(0.994152 0.0162217 -1.5609e-23)
(1.04226 0.0195242 0)
(1.08999 0.0227139 -2.25764e-23)
(1.13697 0.0266351 0)
(1.18274 0.0306917 0)
(1.22679 0.0347289 3.03188e-23)
(1.26882 0.0388504 0)
(1.3086 0.042889 3.39274e-23)
(1.34596 0.047097 0)
(1.37963 0.0515093 -2.90549e-23)
(1.4093 0.0553134 2.56625e-23)
(1.43498 0.0596601 0)
(1.45604 0.0629089 0)
(1.47421 0.0656388 1.00859e-23)
(1.48938 0.0678111 0)
(1.50469 0.0679068 0)
(1.52031 0.0691946 0)
(1.53791 0.0687346 0)
(1.56158 0.065989 0)
(1.59627 0.0641534 0)
(1.64419 0.0622722 3.91633e-23)
(1.70607 0.0607042 -3.62017e-23)
(1.78206 0.0613707 0)
(1.86897 0.0648188 0)
(1.95997 0.0703271 0)
(2.04932 0.0764511 0)
(2.1358 0.0831701 0)
(2.21982 0.0897636 0)
(2.30128 0.0957777 0)
(2.37923 0.103116 0)
(2.4447 0.110483 0)
(2.4988 0.115446 0)
(2.54741 0.118417 0)
(2.59457 0.121152 0)
(2.64215 0.12591 3.00159e-24)
(2.69277 0.130416 -6.40902e-24)
(2.7492 0.131176 0)
(2.81273 0.131682 0)
(2.88217 0.13399 0)
(2.95965 0.143048 -6.43115e-23)
(3.04641 0.137897 0)
(-1.64196 -0.128147 0)
(-1.62466 -0.126825 -1.7978e-23)
(-1.60734 -0.125705 2.31852e-23)
(-1.5899 -0.124901 -1.12286e-23)
(-1.57227 -0.124258 -7.6958e-24)
(-1.55436 -0.123819 2.93472e-24)
(-1.53607 -0.123563 -3.71915e-25)
(-1.51731 -0.123494 0)
(-1.49798 -0.12358 0)
(-1.47805 -0.12375 -7.45898e-24)
(-1.45742 -0.124051 0)
(-1.43601 -0.124424 1.12078e-23)
(-1.41384 -0.124785 1.2504e-23)
(-1.39085 -0.125165 -1.92816e-23)
(-1.36697 -0.125563 1.40794e-23)
(-1.34222 -0.125876 1.44553e-23)
(-1.31661 -0.126065 0)
(-1.29011 -0.12629 -1.45764e-23)
(-1.26281 -0.126238 1.44356e-23)
(-1.23459 -0.12625 1.41794e-23)
(-1.20554 -0.126158 -5.94799e-24)
(-1.17581 -0.125642 1.34452e-23)
(-1.14528 -0.125252 0)
(-1.11394 -0.124751 0)
(-1.08189 -0.124183 -1.69966e-23)
(-1.04926 -0.123286 0)
(-1.01594 -0.122294 4.4204e-24)
(-0.98171 -0.121786 -4.12353e-24)
(-0.94691 -0.120626 0)
(-0.911727 -0.11913 8.9498e-24)
(-0.87591 -0.117902 5.21074e-24)
(-0.839181 -0.1171 7.53423e-24)
(-0.801859 -0.115654 2.1592e-24)
(-0.764402 -0.113403 0)
(-0.726591 -0.111419 -3.84572e-24)
(-0.687905 -0.11029 -4.21881e-26)
(-0.648836 -0.108274 2.71268e-25)
(-0.610117 -0.104939 -2.04456e-24)
(-0.571155 -0.102674 3.13877e-24)
(-0.53147 -0.101116 0)
(-0.492019 -0.0976973 0)
(-0.453199 -0.0937612 6.52871e-24)
(-0.414377 -0.0910767 0)
(-0.37582 -0.0878682 -2.27524e-23)
(-0.338062 -0.0839192 0)
(-0.300676 -0.0806085 9.36805e-24)
(-0.26357 -0.0771641 0)
(-0.227594 -0.0726145 -1.76796e-23)
(-0.192521 -0.0687836 0)
(-0.158311 -0.0649287 9.49824e-24)
(-0.124843 -0.061262 -1.65159e-23)
(-0.0926659 -0.0564077 0)
(-0.0620799 -0.0527757 8.02712e-24)
(-0.0316854 -0.0499384 -7.22888e-24)
(-0.00247155 -0.0454677 0)
(0.0250601 -0.0417805 -1.03793e-23)
(0.0521197 -0.0388398 4.62177e-24)
(0.0778203 -0.0339143 -5.95575e-24)
(0.101375 -0.0295454 -3.04135e-24)
(0.123918 -0.0277305 1.93804e-24)
(0.145799 -0.0242559 0)
(0.166446 -0.0209651 0)
(0.186403 -0.0193821 1.70364e-24)
(0.205516 -0.0153157 -3.71666e-25)
(0.222643 -0.0111162 2.19453e-25)
(0.238593 -0.0103978 0)
(0.254618 -0.00909502 0)
(0.270172 -0.00536218 7.05274e-25)
(0.284163 -0.00412757 0)
(0.298326 -0.00449865 -7.13736e-24)
(0.313012 -0.00234333 4.28487e-24)
(0.327121 -0.000573234 0)
(0.341243 -0.00142415 0)
(0.356318 -0.000925197 -6.38694e-24)
(0.372023 0.000522768 1.75044e-23)
(0.388257 -0.000233476 0)
(0.405651 -0.000708636 -2.19002e-23)
(0.424608 -0.000717293 -2.422e-23)
(0.445213 -0.0014543 -1.21466e-23)
(0.467499 -0.00201762 0)
(0.491679 -0.00257346 -1.45122e-23)
(0.518088 -0.00333691 4.15798e-23)
(0.546864 -0.00370006 0)
(0.577915 -0.00389459 -2.42926e-23)
(0.611063 -0.00374066 1.13763e-23)
(0.646338 -0.00365575 -9.76081e-24)
(0.684017 -0.00351202 0)
(0.724123 -0.00275974 0)
(0.766128 -0.00117374 1.11904e-23)
(0.809517 0.000251036 0)
(0.85417 0.00228901 7.46415e-25)
(0.900009 0.0046383 0)
(0.946958 0.00662885 7.14381e-24)
(0.99482 0.00962536 0)
(1.04295 0.0132332 0)
(1.09072 0.0166713 -4.28724e-23)
(1.13774 0.0208053 1.58949e-23)
(1.18354 0.0251056 0)
(1.22758 0.0293532 2.02329e-23)
(1.26957 0.0336726 0)
(1.30932 0.0381642 0)
(1.34659 0.043066 1.92318e-23)
(1.38016 0.0481276 -3.82935e-23)
(1.40982 0.0525486 1.85776e-23)
(1.43544 0.0574544 0)
(1.45641 0.0609588 0)
(1.47452 0.063859 0)
(1.48957 0.066329 0)
(1.50478 0.0663831 0)
(1.5203 0.0677215 1.32612e-23)
(1.53785 0.0666606 0)
(1.56151 0.0629876 -2.27229e-23)
(1.59622 0.0601235 0)
(1.64417 0.0575223 2.5453e-23)
(1.70616 0.0547643 0)
(1.78227 0.0545337 0)
(1.86928 0.0581042 0)
(1.96038 0.0641334 0)
(2.04981 0.0704532 0)
(2.13629 0.0775318 0)
(2.22025 0.0847424 -4.64865e-24)
(2.30166 0.0909929 0)
(2.37945 0.0988647 6.91102e-24)
(2.44468 0.106296 0)
(2.49857 0.11205 -3.3502e-24)
(2.54695 0.117528 0)
(2.59391 0.12111 0)
(2.64142 0.121766 2.96597e-24)
(2.6917 0.122825 -3.17969e-25)
(2.74686 0.127561 0)
(2.80871 0.133953 0)
(2.8769 0.139517 -1.0036e-23)
(2.95552 0.141023 0)
(3.02583 0.153797 8.05706e-23)
(-1.641 -0.136943 0)
(-1.62381 -0.135605 1.17374e-23)
(-1.6066 -0.134538 1.83799e-23)
(-1.58928 -0.133698 0)
(-1.57176 -0.133111 5.41228e-24)
(-1.55395 -0.132765 5.84528e-24)
(-1.53575 -0.132638 -5.30391e-25)
(-1.51706 -0.132733 -4.88067e-25)
(-1.49779 -0.133031 -2.14673e-24)
(-1.47791 -0.133416 0)
(-1.45731 -0.133967 -4.81128e-24)
(-1.43592 -0.134598 -5.79054e-24)
(-1.41375 -0.13522 -6.53822e-24)
(-1.39075 -0.135881 -7.95726e-24)
(-1.36684 -0.136576 -7.41117e-24)
(-1.34206 -0.137183 -7.60082e-24)
(-1.3164 -0.137651 0)
(-1.28984 -0.138189 -7.61373e-24)
(-1.2625 -0.138391 -7.50553e-24)
(-1.23422 -0.138682 0)
(-1.2051 -0.138856 -1.52228e-23)
(-1.17532 -0.138518 -6.87423e-24)
(-1.14474 -0.13838 0)
(-1.11335 -0.138072 -6.32579e-24)
(-1.08125 -0.137701 -1.30024e-23)
(-1.04859 -0.136933 0)
(-1.01524 -0.136052 1.03871e-24)
(-0.980946 -0.135772 -1.10066e-23)
(-0.946111 -0.134656 0)
(-0.91089 -0.13319 -4.14095e-24)
(-0.875029 -0.132037 -8.56797e-24)
(-0.83824 -0.131383 0)
(-0.800866 -0.129972 1.07684e-24)
(-0.763361 -0.127669 -1.91832e-24)
(-0.725495 -0.125693 -1.12025e-24)
(-0.686718 -0.124728 -1.25835e-24)
(-0.647602 -0.122658 1.00815e-24)
(-0.608876 -0.119111 -1.23795e-24)
(-0.569841 -0.116842 6.1626e-24)
(-0.530066 -0.115324 4.94408e-24)
(-0.490614 -0.111626 6.34374e-24)
(-0.451743 -0.10741 6.61569e-24)
(-0.412791 -0.104603 8.78215e-24)
(-0.374228 -0.101093 1.01556e-24)
(-0.336502 -0.0968061 0)
(-0.29907 -0.0932638 2.108e-23)
(-0.261963 -0.0894829 1.13618e-23)
(-0.226027 -0.0844387 0)
(-0.190914 -0.0802563 1.14549e-23)
(-0.156708 -0.0759537 2.14488e-23)
(-0.123285 -0.071902 0)
(-0.0911398 -0.0663936 1.0182e-23)
(-0.0605723 -0.0623675 1.80011e-23)
(-0.0302418 -0.0591634 -7.65111e-24)
(-0.00111499 -0.0540595 7.50966e-24)
(0.0263929 -0.0500001 6.97124e-24)
(0.0534316 -0.0466411 4.58224e-24)
(0.0791036 -0.0410825 4.43135e-24)
(0.102661 -0.0362457 8.10744e-25)
(0.12515 -0.0342631 1.37992e-24)
(0.146929 -0.0303603 1.18535e-24)
(0.167441 -0.0267816 5.90568e-25)
(0.187283 -0.0251099 -1.3398e-25)
(0.206322 -0.0205907 -1.36459e-24)
(0.22342 -0.0159665 8.54894e-25)
(0.239339 -0.0152799 -2.4986e-25)
(0.255269 -0.0138364 0)
(0.270687 -0.00960795 1.49911e-24)
(0.284633 -0.00830107 2.35172e-24)
(0.298722 -0.00879937 -2.56792e-24)
(0.313296 -0.00642008 9.13144e-24)
(0.327352 -0.00458206 6.74505e-24)
(0.341434 -0.00573105 0)
(0.356437 -0.00530881 1.83106e-23)
(0.372081 -0.00389865 1.13156e-23)
(0.388296 -0.00497527 0)
(0.405669 -0.00568146 1.38923e-23)
(0.424602 -0.00587813 1.53468e-23)
(0.445201 -0.00691799 1.54896e-23)
(0.467493 -0.00769269 1.68978e-23)
(0.49169 -0.00850665 7.169e-25)
(0.518126 -0.00954845 1.62109e-23)
(0.54693 -0.010193 1.61766e-23)
(0.578018 -0.0106584 1.50097e-23)
(0.611218 -0.0107284 2.62291e-23)
(0.646555 -0.010899 -1.09651e-23)
(0.684303 -0.0110181 9.35261e-24)
(0.72448 -0.0105254 7.08638e-24)
(0.766559 -0.0091309 4.26102e-24)
(0.810023 -0.00778548 2.08699e-24)
(0.854749 -0.0057342 4.11826e-25)
(0.900644 -0.00342557 0)
(0.947632 -0.00138095 -1.54198e-23)
(0.995531 0.00163926 -1.08545e-23)
(1.0437 0.00518921 0)
(1.09149 0.00881334 -3.36605e-23)
(1.13854 0.013513 6.02638e-25)
(1.18435 0.0184067 0)
(1.22839 0.0232871 -4.50081e-23)
(1.27037 0.0282766 -2.30418e-23)
(1.31008 0.0332251 0)
(1.34734 0.0384293 1.1033e-24)
(1.38092 0.0440467 -2.13053e-23)
(1.41054 0.0488955 -2.02628e-23)
(1.43608 0.0545695 -1.54602e-23)
(1.45695 0.0587077 -1.08347e-23)
(1.47495 0.0621933 -5.24836e-24)
(1.48982 0.0649547 1.28429e-24)
(1.50491 0.0647423 8.64474e-24)
(1.52031 0.0662565 2.92648e-23)
(1.53776 0.0650917 0)
(1.5614 0.0605623 1.68588e-24)
(1.5961 0.0570189 2.93544e-23)
(1.6441 0.0531804 2.8533e-23)
(1.70617 0.0496282 2.74934e-23)
(1.7824 0.0488802 2.33086e-23)
(1.86954 0.0519082 0)
(1.96076 0.0578907 1.00726e-23)
(2.05028 0.0649117 3.49874e-24)
(2.13682 0.0726824 0)
(2.22076 0.0800902 -1.19731e-23)
(2.3021 0.0866911 -7.35895e-24)
(2.37968 0.0954868 9.15282e-24)
(2.44466 0.10483 -6.71442e-24)
(2.49842 0.110569 -9.36761e-24)
(2.54674 0.114055 -2.07993e-24)
(2.59354 0.11724 3.74355e-25)
(2.64055 0.122541 3.47849e-24)
(2.69006 0.126668 0)
(2.74452 0.128305 3.93314e-24)
(2.80559 0.129188 8.96042e-25)
(2.87289 0.132055 -1.85893e-23)
(2.94918 0.140062 0)
(3.03461 0.142001 1.63653e-24)
(-1.64011 -0.144815 -1.56292e-23)
(-1.62305 -0.143349 -8.36407e-25)
(-1.60598 -0.142205 -8.28178e-25)
(-1.58881 -0.141361 0)
(-1.57142 -0.14083 -8.19852e-25)
(-1.55371 -0.140592 6.54114e-24)
(-1.53562 -0.140617 -1.36741e-24)
(-1.51702 -0.1409 -8.26124e-25)
(-1.49783 -0.141411 -6.22537e-24)
(-1.47801 -0.142032 0)
(-1.45745 -0.142849 -8.51617e-25)
(-1.43608 -0.143767 -8.63016e-25)
(-1.41392 -0.144679 -8.75338e-25)
(-1.3909 -0.145646 8.33826e-24)
(-1.36697 -0.146653 -9.01525e-25)
(-1.34215 -0.147553 -9.83312e-24)
(-1.31644 -0.148281 -8.96568e-24)
(-1.28981 -0.149112 -9.41021e-25)
(-1.26241 -0.149528 -9.53772e-25)
(-1.23406 -0.150069 8.5653e-24)
(-1.20487 -0.150474 -9.77925e-25)
(-1.17503 -0.15027 -1.70377e-23)
(-1.14437 -0.15034 7.71505e-24)
(-1.11293 -0.150169 -1.01124e-24)
(-1.08077 -0.149964 -1.02079e-24)
(-1.04807 -0.149329 6.60736e-24)
(-1.01469 -0.148573 -7.2677e-24)
(-0.980331 -0.14854 -1.27273e-23)
(-0.945468 -0.147503 5.37789e-24)
(-0.910209 -0.146143 -1.06139e-24)
(-0.874301 -0.145146 -9.93297e-24)
(-0.837456 -0.144685 3.92877e-24)
(-0.800027 -0.14334 -4.28657e-24)
(-0.762459 -0.141001 -1.08144e-24)
(-0.724518 -0.139015 -2.50823e-24)
(-0.685635 -0.138158 3.30137e-25)
(-0.646459 -0.135987 -1.08448e-24)
(-0.607703 -0.132229 -2.57733e-24)
(-0.568575 -0.129946 7.10443e-24)
(-0.528703 -0.128413 -1.06958e-24)
(-0.489241 -0.124413 -1.05923e-24)
(-0.450298 -0.119904 8.80082e-24)
(-0.411195 -0.116902 -1.03284e-24)
(-0.372611 -0.113025 1.02019e-23)
(-0.334899 -0.108398 -1.21053e-23)
(-0.29741 -0.104627 2.44266e-23)
(-0.2603 -0.100503 -9.61399e-25)
(-0.2244 -0.0949918 1.32573e-23)
(-0.189243 -0.0904754 -9.2262e-25)
(-0.155036 -0.0857343 2.48115e-23)
(-0.121661 -0.0813645 -1.23613e-23)
(-0.0895432 -0.0752851 -8.69501e-25)
(-0.0589969 -0.0709854 2.07885e-23)
(-0.0287409 -0.0675256 -9.7496e-24)
(0.00028152 -0.0619371 -8.31045e-25)
(0.0277454 -0.0576655 7.02823e-24)
(0.0547608 -0.0539088 6.14469e-24)
(0.0804018 -0.0476895 -8.098e-25)
(0.103971 -0.0423138 -8.0967e-25)
(0.126411 -0.0399942 2.39667e-24)