/*--------------------------------*- C++ -*----------------------------------*\
| =========                 |                                                 |
| \\      /  F ield         | OpenFOAM: The Open Source CFD Toolbox           |
|  \\    /   O peration     | Version:  v1912                                 |
|   \\  /    A nd           | Website:  www.openfoam.com                      |
|    \\/     M anipulation  |                                                 |
\*---------------------------------------------------------------------------*/
FoamFile
{
    version     2.0;
    format      ascii;
    class       volScalarField;
    location    "90";
    object      p_rgh;
}
// * * * * * * * * * * * * * * * * * * * * * * * * * * * * * * * * * * * * * //

dimensions      [1 -1 -2 0 0 0 0];


internalField   nonuniform List<scalar> 
114144
(
-33939
-39542.1
-38973.2
-37888
-35978.1
-33272.4
-29889
-25948.5
-21567.7
-16854.9
-11946.5
-7000.06
-2145.98
2496.63
6819.06
10712.3
14095.1
16920.5
19171.9
20858.4
22019.2
22720.8
23052.2
23112.3
22996.7
22783.2
22526.1
22259.6
22005.3
21772.2
21552
21316.2
21024.2
20645.3
20216.1
19629
15822.8
14266
12461.2
10599.3
8729.83
6932.79
5280.46
3826.2
2598.02
1598.67
810.313
200.536
-242.056
-561.105
-797.553
-982.072
-1133.53
-1260.62
-1365.28
-1446.89
-1506.43
-1549.88
-1584.61
-1619.13
-1662.27
-1725.86
-1825.94
-1978.72
-2194.67
-2474.63
-2808.67
-3178.25
-3549.35
-3898.44
-4203.41
-4450.07
-4633.73
-4758.87
-4837.12
-4883.98
-4915.59
-4945.85
-4984.14
-5033.25
-5088.34
-5136.77
-5162.73
-5136.52
-5109.31
-4886.42
-4527.18
-4113.96
-3603.34
-3002.79
-2330.18
-1608.33
-861.874
-114.691
611.907
1300.74
1939.56
2521.06
3042.45
3504.63
3911.16
4267.02
4578.07
4850.06
5087.21
5292.38
5467.31
5611.35
5721.64
5793.32
5819.94
5794.12
5708.35
5555.84
5331.36
5031.98
4658.22
4210.91
3699.4
3147.43
2509.07
1821.88
1089.61
315.633
-497.536
-1347.57
-2231.14
-3142.6
-4072.66
-5007.88
-5930.65
-6818.59
-7646.17
-8387.24
-9018.08
-9515.43
-9857.93
-10047
-10074.1
-9943.05
-9660.97
-9238.54
-8687.73
-8021.54
-7253.45
-6394.04
-5456.44
-4466.71
-3433.67
-2376.87
-1313.99
-190.348
880.396
1910.99
2888.03
3798.23
4633.03
5387.3
6059.16
6649.06
7161.98
7601.18
7977.27
8286.87
8553.35
8752.18
8906.73
9006.38
9054.69
9052.68
8995.96
8884.85
8722.75
8509.43
8245.06
7930.11
7564.75
7148.55
6680.37
6158.65
5581.82
4948.86
4260.57
3520.32
2734.25
1911.74
1065
206.119
-655.577
-1497.39
-2305.24
-3066.72
-3771.35
-4411.17
-4979.65
-5471.35
-5882.98
-6212.95
-6461.19
-6628.77
-6718.49
-6733.94
-6682.68
-6570.48
-6404.53
-6192.33
-5941.14
-5657.42
-5346.73
-5013.36
-4660.22
-4288.97
-3900.27
-3494.17
-3070.62
-2630.03
-2173.84
-1704.97
-1228.09
-749.884
-277.151
186.178
624.079
1027.28
1388.16
1700.26
1958.31
2158.39
2298.73
2379.6
2402.81
2372.56
2293.36
2170.93
2011.96
1823.58
1613.39
1389.17
1158.47
928.487
705.659
495.551
302.388
129.736
-20.114
-145.507
-245.269
-318.506
-364.851
-383.124
-19232.6
-23020.3
-22696
-21866.8
-20737
-19112.4
-17020.3
-14539.4
-11759.3
-8777.31
-5676.6
-2526.41
594.466
3612.65
6480.8
9023.33
11275.3
13192.3
14764.1
15997.9
16917.2
17559.8
17972.3
18203.9
18299.3
18293.8
18212.4
18071.3
17880.7
17646
17367.4
17042.1
16668.4
16258.1
15816.2
15289.7
11847.3
10657.9
9323.69
7989.74
6671.93
5410.61
4242.72
3195.27
2281.56
1501.23
840.793
284.116
-144.757
-471.421
-726.088
-928.887
-1093.93
-1229.7
-1341.22
-1432.84
-1510.37
-1584.45
-1658.91
-1739.25
-1830.82
-1939.17
-2070.58
-2231.15
-2424.75
-2650.92
-2903.98
-3175.82
-3438.69
-3683.1
-3897.03
-4073.51
-4210.99
-4312.67
-4385.06
-4435.98
-4472.63
-4500.21
-4520.89
-4533.12
-4531.4
-4506.41
-4448.38
-4337.83
-4223.02
-3934.97
-3559.64
-3133.9
-2641.08
-2086.67
-1483.8
-849.277
-201.014
443.706
1069.43
1663.63
2217.25
2724.7
3183.6
3594.16
3958.54
4279.79
4561.67
4807.47
5019.56
5199.01
5346.16
5459.46
5535.7
5570.31
5557.72
5491.94
5367.19
5178.54
4922.46
4597.37
4204.51
3744.85
3226.5
2676.19
2039.79
1358.25
633.271
-132.369
-936.15
-1775.11
-2644.82
-3538.32
-4445.04
-5350.58
-6236.98
-7082.21
-7861.78
-8551.21
-9128.87
-9573.92
-9866.76
-10010.7
-9998.47
-9834.52
-9525.98
-9083.16
-8517.36
-7840.75
-7066.13
-6204.18
-5266.46
-4277.39
-3249.27
-2199.87
-1145.7
-36.1767
1021.03
2036.4
2997.64
3892.14
4711.97
5452.52
6112.23
6691.75
7196.04
7628.27
7998.79
8304.08
8567.03
8763.2
8915.48
9013.07
9056.58
9056.39
8999.37
8887.5
8724.68
8510.98
8246.46
7931.58
7566.47
7150.66
6682.95
6161.7
5585.24
4952.4
4263.93
3523.1
2736.07
1912.24
1063.93
203.285
-660.195
-1503.71
-2313.08
-3075.84
-3781.53
-4422.16
-4991.19
-5483.2
-5894.93
-6224.83
-6472.81
-6639.95
-6728.95
-6743.64
-6691.49
-6578.31
-6411.33
-6198.14
-5946.04
-5661.56
-5350.27
-5016.49
-4663.12
-4291.79
-3903.1
-3497.03
-3073.44
-2632.69
-2176.13
-1706.64
-1228.92
-749.628
-275.646
189.061
628.359
1032.85
1394.86
1707.84
1966.5
2166.88
2307.23
2387.84
2410.58
2379.6
2299.53
2176.13
2016.09
1826.61
1615.31
1389.99
1158.27
927.373
703.765
493.029
299.394
126.407
-23.6756
-149.224
-249.089
-322.392
-368.736
-387.207
-13454.8
-15790.2
-15470.4
-14668.6
-13796.1
-12644.5
-11158.4
-9367.92
-7331.31
-5115.29
-2784.98
-401.599
1974.5
4288.39
6504.06
8487.77
10243.5
11750.5
13003.7
14008.9
14782.5
15350
15742.3
15990.9
16123.5
16162.1
16121.9
16012.6
15840.8
15610.8
15325.9
14988.9
14605.6
14192.1
13752.6
13242.1
10051
9021.02
7889.06
6775.29
5686.66
4649.2
3686.76
2816.26
2044.92
1369.57
770.35
262.325
-148.538
-472.225
-725.984
-928.775
-1094.04
-1230.94
-1345.78
-1443.66
-1530.26
-1612.19
-1698.24
-1791.47
-1895.91
-2015.47
-2153.86
-2314.21
-2497.93
-2703.62
-2926.69
-3165.63
-3388.21
-3592.71
-3770.43
-3917.23
-4032.92
-4120.64
-4185.51
-4233.01
-4267.5
-4291.2
-4303.68
-4301.7
-4279.27
-4228.02
-4139.74
-3999.29
-3846.75
-3539.35
-3160.14
-2731.66
-2245.45
-1707.76
-1130.56
-528.613
82.4974
687.86
1274.17
1830.66
2349.56
2826.06
3258.06
3645.7
3990.76
4295.74
4563.73
4796.99
4997.47
5165.64
5301.34
5402.65
5466.21
5487.47
5461.06
5381.35
5243.06
5041.77
4774.48
4440.01
4039.85
3575.06
3052.73
2504.94
1868.12
1188.48
466.483
-295.502
-1095.2
-1929.72
-2794.53
-3682.5
-4582.78
-5480.71
-6358.11
-7192.81
-7960.32
-8636.32
-9199.45
-9629.2
-9906.36
-10035.9
-10010
-9833.63
-9514.37
-9062.62
-8489.66
-7807.5
-7028.64
-6163.75
-5224.2
-4232.39
-3202.34
-2151.53
-1095.5
12.3968
1069.58
2083.95
3043.53
3935.72
4752.65
5489.85
6145.89
6721.69
7222.37
7651.36
8019.12
8322.31
8583.7
8779.03
8930.86
9028.51
9076.65
9071.83
9013.73
8901.59
8738.6
8524.66
8259.89
7944.87
7579.79
7164.16
6696.71
6175.58
5598.93
4965.43
4275.62
3532.67
2742.74
1915.37
1063.09
198.295
-669.237
-1516.45
-2329.02
-3094.42
-3802.2
-4444.39
-5014.46
-5507.05
-5918.96
-6248.65
-6496.11
-6662.38
-6749.91
-6763.09
-6709.14
-6593.98
-6424.95
-6209.76
-5955.84
-5669.81
-5357.33
-5022.73
-4668.91
-4297.42
-3908.76
-3502.75
-3079.11
-2638.03
-2180.74
-1710.04
-1230.6
-749.149
-272.654
194.814
636.917
1044.01
1408.27
1723.03
1982.9
2183.89
2324.23
2404.27
2426.01
2393.61
2311.82
2186.45
2024.29
1832.59
1619.04
1391.54
1157.78
925.051
699.894
487.916
293.35
119.704
-30.8307
-156.679
-256.744
-330.176
-376.54
-394.537
-10429.4
-11791.6
-11334.5
-10528.3
-9696.95
-8704.14
-7485.26
-6043.94
-4414.97
-2645.8
-786.988
1111.9
3002.75
4840.84
6592.34
8202.56
9602.44
10800.2
11799
12606.1
13235.8
13707.5
14043.4
14264.8
14389.2
14429.4
14393.5
14286.1
14110.5
13870
13569.2
13214.6
12817
12396.5
11945.2
11434.2
8483.43
7578.4
6607.83
5671.86
4771.64
3922
3135.93
2421.34
1779.71
1204.72
669.476
207.953
-174.64
-484.201
-732.884
-934.551
-1100.89
-1240.37
-1358.98
-1462.05
-1555.31
-1644.76
-1740.73
-1845.12
-1960.82
-2090.05
-2234.09
-2393.24
-2566.47
-2751.08
-2942.25
-3149.42
-3330.97
-3492.9
-3630.63
-3743.31
-3832.59
-3901.94
-3955.37
-3996.12
-4025.49
-4042.38
-4043.36
-4023.06
-3974.8
-3891.05
-3765.21
-3587.15
-3385.43
-3053.66
-2666.08
-2230.79
-1749.2
-1228.72
-680.171
-116.162
450.465
1007.67
1544.83
2053.52
2527.71
2963.73
3360.02
3716.75
4035.37
4317.74
4566.47
4781.62
4965.13
5116.57
5235.05
5318.1
5362.11
5362.49
5314.17
5212.04
5051.55
4829.12
4542.59
4191.5
3777.76
3302.74
2772.01
2225.14
1585.86
907.027
187.634
-570.582
-1365.65
-2194.64
-3052.76
-3932.36
-4822.05
-5706.56
-6567.33
-7381.99
-8126.11
-8775.77
-9310.35
-9710.52
-9958.62
-10058.3
-10005.5
-9805.17
-9465.19
-8996.2
-8409.42
-7716.57
-6929.73
-6059.59
-5116.68
-4120.47
-3088.69
-2037.27
-981.052
121.045
1174.44
2183.28
3136.18
4020.82
4829.62
5558.4
6206.03
6773.79
7267.06
7689.57
8051.84
8350.79
8608.77
8801.92
8952.22
9048.71
9086.44
9090.36
9032.9
8920.2
8756.39
8541.8
8276.6
7961.42
7596.48
7181.28
6714.42
6193.88
5617.43
4983.41
4292.05
3546.33
2752.39
1919.96
1061.89
190.943
-682.668
-1535.48
-2352.88
-3122.31
-3833.28
-4477.83
-5049.47
-5542.91
-5955.06
-6284.46
-6531.12
-6696.11
-6781.32
-6792.29
-6735.64
-6617.49
-6445.37
-6227.16
-5970.48
-5682.13
-5367.84
-5032.02
-4677.53
-4305.82
-3917.22
-3511.35
-3087.66
-2646.11
-2187.73
-1715.22
-1233.2
-748.501
-268.203
203.44
649.785
1060.82
1428.47
1745.91
2007.62
2209.51
2349.85
2429.06
2449.32
2414.74
2330.31
2201.98
2036.61
1841.57
1624.64
1393.85
1157.01
921.527
694.039
480.194
284.241
109.612
-41.5874
-167.877
-268.241
-341.88
-388.364
-407.516
-8515.6
-9242.63
-8668.81
-7853.35
-7030.57
-6103.56
-5021.34
-3778.79
-2396.78
-909.474
643.636
2222.3
3787.39
5303.08
6746.07
8081.94
9224.25
10194.3
10999
11647.4
12153
12532.6
12803.7
12981.9
13079.1
13102.2
13054.6
12937.2
12751.1
12498.6
12184.8
11818
11411
10983.2
10518.8
9991.57
7284.73
6458.11
5601.62
4791.61
4025.79
3311.7
2654.92
2056.94
1514.67
1018.51
534.223
116.489
-235.09
-525.162
-763.027
-959.438
-1123.88
-1263.48
-1383.42
-1488.45
-1584.08
-1676.21
-1776.93
-1886.79
-2008.04
-2141.79
-2287.75
-2444.46
-2609.4
-2779.15
-2952.34
-3129.56
-3285.32
-3416.13
-3523.34
-3608.74
-3675.61
-3728.05
-3769.72
-3802.59
-3825.97
-3836.45
-3828.36
-3794.74
-3728.25
-3621.76
-3469.54
-3264.8
-3026.16
-2679.44
-2283.71
-1843.22
-1364.09
-854.819
-325.826
211.579
746.335
1268.36
1768.97
2241.44
2681.12
3085.27
3452.9
3784.33
4080.92
4344.23
4576.57
4776.43
4945.91
5083.98
5189.19
5258.7
5288.61
5274.24
5210.6
5092.84
4916.78
4679.37
4378.93
4015.54
3591.41
3108.19
2569.55
2025.01
1382.66
704.221
-13.0539
-768.132
-1559.51
-2384.53
-3238.49
-4113.69
-4998.45
-5877.16
-6730.81
-7536.59
-8269.68
-8905.99
-9424.95
-9807.4
-10035.4
-10117
-10045.3
-9827.06
-9470.89
-8987.87
-8389.39
-7687.04
-6892.56
-6016.46
-5068.99
-4067.03
-3029.79
-1973.29
-911.494
191.01
1247.08
2257.09
3209.77
4092.75
4898.5
5623.01
6265.38
6827.36
7314.74
7731.77
8089.29
8384.63
8639.98
8831.84
8981.6
9079.03
9139.66
9120.76
9061.43
8948.33
8784.21
8569.18
8303.55
7988.15
7623.31
7208.52
6742.21
6222.02
5645.37
5010.16
4316.21
3566.28
2766.52
1926.89
1060.75
181.328
-700.577
-1560.95
-2384.88
-3159.7
-3874.93
-4522.63
-5096.34
-5590.91
-6003.36
-6332.34
-6577.95
-6741.34
-6823.28
-6831.34
-6771.07
-6648.89
-6472.6
-6250.32
-5989.94
-5698.45
-5381.75
-5044.29
-4688.92
-4316.97
-3928.51
-3522.86
-3099.15
-2657.02
-2197.24
-1722.31
-1236.85
-747.774
-262.361
214.905
666.964
1083.3
1455.52
1776.57
2040.74
2243.85
2384.17
2462.2
2480.52
2442.99
2355.03
2222.71
2053.05
1853.52
1632.06
1396.85
1155.88
916.714
686.112
469.785
271.984
96.0666
-55.9897
-182.847
-283.596
-357.503
-404.111
-422.683
-7178.69
-7481.15
-6822.06
-5997.92
-5174.9
-4279.02
-3273.24
-2151.38
-927.131
373.791
1719.65
3077.22
4414.28
5702.35
6925.61
8057.13
9003.34
9797.28
10447.2
10963.5
11360.1
11652.6
11856.8
11985.3
12046.1
12042.9
11975.3
11841.8
11641.4
11375.4
11049
10671.1
10256.1
9818.58
9337.15
8780.95
6316.4
5537.65
4763.87
4046.67
3381.3
2770.23
2213.55
1707.6
1245.84
818.679
376.546
-1.1971
-321.156
-589.167
-812.914
-1000.84
-1160.59
-1297.95
-1416.91
-1521.41
-1616.65
-1708.3
-1810.32
-1922.26
-2046
-2181.75
-2328.02
-2482
-2640.01
-2797.8
-2959.91
-3109.05
-3245.48
-3350.14
-3430.57
-3490.97
-3536.26
-3571.44
-3600.29
-3624.01
-3640.43
-3644.15
-3627.55
-3582.18
-3499.97
-3373.99
-3199.04
-2970.82
-2699.18
-2339.83
-1933.95
-1486.9
-1007.77
-506.112
7.75194
523.367
1031.04
1522.32
1990.19
2429.5
2836.91
3210.7
3550.47
3856.87
4131.26
4375.08
4590.96
4774.85
4929.77
5054.09
5145.83
5201.71
5217.52
5188.42
5109.42
4975.82
4783.77
4530.64
4215.27
3838.26
3402.21
2909.18
2360.35
1817.11
1170
490.804
-225.266
-977.978
-1766.38
-2588.18
-3438.87
-4310.74
-5191.87
-6066.16
-6914.07
-7712.13
-8434.89
-9057.86
-9560.37
-9923.6
-10131
-10189.2
-10095
-9854.99
-9478.88
-8978.33
-8365.06
-7650.56
-6846.21
-5962.23
-5008.38
-3999.19
-2954.73
-1891.42
-822.967
280.446
1339.65
2350.97
3303.19
4183.87
4985.54
5704.44
6339.95
6894.4
7374.11
7784
8135.27
8425.83
8677.55
8867.48
9016.21
9112.01
9139.9
9153.39
9096.04
8982.73
8817.71
8601.72
8335.32
8019.52
7654.83
7240.71
6775.38
6256.07
5679.62
5043.34
4346.51
3591.55
2784.59
1935.95
1059.59
169.407
-723.029
-1592.97
-2425.15
-3206.79
-3927.37
-4578.96
-5155.21
-5651.15
-6063.96
-6392.4
-6636.68
-6798.26
-6875.65
-6880.34
-6815.47
-6688.2
-6506.62
-6279.19
-6014.11
-5718.66
-5398.92
-5059.43
-4702.99
-4330.79
-3942.58
-3537.3
-3113.66
-2670.88
-2209.38
-1731.46
-1241.67
-747.081
-255.19
229.205
688.505
1111.56
1489.58
1815.19
2082.47
2287.1
2427.37
2503.86
2519.77
2478.46
2386.04
2248.71
2073.64
1868.48
1641.32
1400.54
1154.36
910.556
676.045
456.623
256.512
79.0182
-74.0725
-201.614
-302.836
-377.09
-423.867
-442.499
-6186.78
-6199.33
-5480.16
-4648.41
-3821.63
-2941.71
-1981.8
-936.841
182.982
1356.95
2558.43
3759.17
4932.1
6054.27
7114.43
8091.33
8885.18
9539.56
10062.9
10466.9
10766.6
10978.1
11116.7
11193.4
11214.4
11180.9
11090.1
10938.1
10722.2
10442.9
10104.9
9717.28
9295.35
8845.52
8344.11
7753.32
5516.34
4767.15
4053.03
3404.29
2814.43
2282.42
1804.14
1371.11
971.914
595.878
195.077
-140.649
-427.902
-672.318
-879.815
-1056.94
-1209.82
-1342.88
-1458.8
-1560.57
-1653
-1740.71
-1841.21
-1952.28
-2076.11
-2212.12
-2357.81
-2509.32
-2662.18
-2812.27
-2966.08
-3101.91
-3213.74
-3295.73
-3352.71
-3390.4
-3415.25
-3433.37
-3449.05
-3463.17
-3472.51
-3470.01
-3446.31
-3391.55
-3296.96
-3155.57
-2962.49
-2714.98
-2416.88
-2046.43
-1629.25
-1174.88
-693.773
-196.36
306.862
805.889
1291.98
1757.93
2198.08
2608.65
2987.53
3333.94
3648.16
3931.22
4184.63
4409.97
4610.03
4778.81
4920.04
5031.75
5111.42
5155.39
5159.12
5117.54
5025.53
4878.41
4672.51
4405.49
4076.59
3686.9
3239.47
2736.9
2177.33
1634.76
982.193
302.121
-412.938
-1163.55
-1949.42
-2768.81
-3617.59
-4488.29
-5368.85
-6242.74
-7089.82
-7885.73
-8604.05
-9219.52
-9710.96
-10059.4
-10248.1
-10287.6
-10172.8
-9912.2
-9516.63
-8998.63
-8370.4
-7643.42
-6828.65
-5935.88
-4974.4
-3956.93
-2902.74
-1829.55
-750.875
357.313
1423.49
2439.99
3395.25
4276.61
5076.57
5791.5
6421.12
6968.45
7440.49
7843.02
8187.84
8473.53
8721.84
8910.28
9058.76
9156.18
9205.02
9198.46
9139.54
9025.24
8859.5
8642.81
8375.68
8059.48
7694.94
7281.54
6817.26
6298.84
5722.45
5084.69
4384.19
3622.95
2807.08
1947.31
1058.4
155.033
-750.242
-1631.81
-2474
-3263.87
-3990.83
-4647.05
-5226.3
-5723.83
-6137.04
-6464.8
-6707.41
-6866.29
-6939.4
-6939.49
-6868.96
-6735.47
-6547.45
-6313.74
-6042.93
-5742.66
-5419.24
-5077.29
-4719.63
-4347.22
-3959.44
-3554.73
-3131.3
-2687.85
-2224.36
-1742.86
-1247.85
-746.578
-246.798
246.29
714.425
1145.68
1530.76
1861.93
2132.97
2339.43
2479.61
2554.08
2567.23
2521.23
2423.4
2280
2098.4
1886.41
1652.34
1404.83
1152.34
902.916
663.691
440.557
237.704
58.3741
-95.8988
-224.216
-325.982
-400.643
-447.666
-465.979
-5419.91
-5232.51
-4471.81
-3632.66
-2800.5
-1928.96
-997.753
-3.08751
1046.4
2132.68
3232.15
4319.83
5372.22
6370.23
7305.52
8162.05
8837.82
9379.9
9797.41
10104
10316.5
10452.4
10527.4
10552.4
10532.5
10467.4
10352.4
10181.6
9950.65
9659.04
9310.87
8914.96
8486.37
8021.77
7498.19
6870.74
4840.27
4109.01
3437.18
2838.5
2305.51
1834.83
1419.11
1045.75
695.463
330.899
-2.47401
-294.764
-549.879
-770.433
-960.607
-1125.45
-1269.87
-1397.08
-1508.22
-1605.24
-1692.77
-1778.91
-1870.28
-1977.94
-2100.02
-2235.14
-2379.87
-2529.51
-2679.02
-2827.67
-2972.63
-3094.75
-3189.24
-3251.51
-3287.34
-3303.79
-3308.8
-3309.79
-3311.87
-3316.03
-3318.28
-3310.17
-3280.66
-3218.56
-3114.3
-2960.74
-2753.14
-2489.6
-2171.36
-1787.92
-1359.01
-896.163
-410.951
85.3188
581.759
1068.5
1537.41
1982.23
2398.44
2783.52
3136.49
3457.52
3747.63
4008.34
4241.41
4448.66
4633.07
4787.1
4915.11
5014.76
5083.15
5116.2
5109.03
5056.24
4952.5
4793.04
4574.24
4293.98
3951.81
3549.32
3090.11
2577.66
2007.27
1461.28
803.261
122.11
-592.347
-1341.28
-2125.13
-2942.85
-3790.89
-4662.16
-5544.53
-6421.05
-7270.83
-8068.35
-8785.92
-9397.11
-9879.97
-10215.2
-10385.8
-10406
-10269.4
-9986.44
-9569.41
-9031.91
-8386.87
-7645.77
-6819.1
-5916.08
-4945.33
-3918.3
-2852.37
-1766.88
-675.76
439.479
1514.71
2538.28
3498.12
4381.18
5179.89
5890.77
6513.91
7053.15
7516.33
7910.28
8247.54
8527.52
8771.79
8958.48
9106.65
9205.17
9248.3
9248.08
9189.32
9074.54
8908.14
8690.33
8422.06
8105.25
7740.89
7328.51
6865.79
6348.81
5772.9
5133.75
4429.17
3660.62
2834.21
1961.18
1057.25
138.148
-782.394
-1677.73
-2531.74
-3331.24
-4065.62
-4727.17
-5309.83
-5809.14
-6222.76
-6549.7
-6790.26
-6945.54
-7014.74
-7008.84
-6931.61
-6790.75
-6595.07
-6353.89
-6076.27
-5770.28
-5442.5
-5097.7
-4738.69
-4366.16
-3979.04
-3575.18
-3152.17
-2708.09
-2242.4
-1756.77
-1255.63
-746.445
-237.297
266.138
744.786
1185.8
1579.29
1917.04
2192.53
2401.12
2541.18
2613.42
2622.75
2571.42
2467.19
2316.66
2127.36
1907.33
1665.13
1409.66
1149.73
893.683
648.922
421.483
215.428
34.0475
-121.527
-250.691
-353.059
-428.211
-475.6
-494.108
-4807.95
-4483.47
-3695.07
-2848.01
-2009.92
-1142.6
-229.486
732.34
1734.71
2760.65
3788
4793.61
5756.28
6659.37
7496.16
8253.45
8841.89
9292.78
9620.22
9840.65
9973.44
10038.2
10051.7
10025.7
9965.08
9868.35
9729.41
9540.52
9295.75
8993.48
8637.08
8235.07
7798.86
7317.41
6770.22
6106.24
4258.48
3537.11
2893.94
2330.92
1840.39
1417.51
1052.64
730.814
426.099
88.1401
-201.172
-457.439
-682.82
-880.09
-1052.62
-1204.41
-1339.38
-1459.66
-1564.68
-1655.61
-1737.56
-1817.79
-1898.91
-1999.97
-2118.65
-2252.07
-2395.83
-2544.42
-2692.72
-2842.75
-2980.8
-3092.42
-3172.17
-3217.06
-3233.48
-3229.69
-3215.14
-3198.78
-3186.83
-3180.76
-3176.11
-3163.16
-3129.31
-3061.95
-2950.67
-2787.97
-2569.18
-2292.69
-1959.89
-1561.58
-1120.3
-647.674
-156.253
341.796
834.992
1313.32
1768.98
2196.38
2591.99
2954.43
3283.79
3581.25
3848.58
4087.87
4301.27
4490.95
4659.86
4799.7
4915.11
5003.49
5061.58
5084.95
5068.29
5005.83
4891.92
4721.59
4491.13
4198.53
3843.62
3428.46
2957.32
2435.19
1863.72
1290.85
637.008
-44.8046
-758.78
-1506.21
-2288.34
-3104.97
-3953.35
-4827.01
-5713.83
-6596.42
-7453.11
-8256.89
-8978.41
-9589.74
-10067.7
-10392.4
-10546.5
-10548.3
-10389.8
-10083.7
-9644.14
-9086
-8423.17
-7667.07
-6827.65
-5913.47
-4932.19
-3894.27
-2815.02
-1714.43
-607.765
517.843
1605.27
2638.97
3606.05
4492.89
5291.78
5999.35
6616.11
7146.87
7600.47
7985.01
8314.01
8587.83
8828.01
9013.23
9161.67
9262.87
9319.03
9307.67
9248.31
9132.4
8964.32
8745.15
8475.79
8158.33
7794.19
7383.02
6922.17
6407.01
5831.8
5191.19
4481.99
3705
2866.28
1977.68
1056.15
118.596
-819.758
-1731.1
-2598.76
-3409.3
-4152.12
-4819.64
-5406.08
-5907.34
-6321.37
-6647.34
-6885.53
-7036.91
-7101.19
-7088.55
-7003.55
-6854.12
-6649.5
-6399.59
-6114.02
-5801.35
-5468.5
-5120.45
-4759.98
-4387.49
-4001.36
-3598.73
-3176.44
-2731.85
-2263.79
-1773.49
-1265.29
-746.908
-226.847
288.689
779.627
1232.05
1635.35
1980.79
2261.43
2472.44
2612.31
2682.11
2686.49
2629.12
2517.52
2358.72
2160.54
1931.23
1679.62
1414.94
1146.38
882.678
631.536
399.104
189.617
5.91622
-151.036
-281.08
-384.089
-459.801
-507.702
-526.276
-4305.84
-3890.19
-3085.37
-2229.75
-1385.69
-520.106
382.085
1323.45
2295.5
3281.14
4258.3
5204.57
6100.03
6929.48
7686.77
8359.06
8885.72
9261.65
9511.15
9653.98
9712.68
9709.56
9663.51
9587.35
9486.37
9358.62
9196.68
8991.14
8734.48
8423.72
8061.31
7655.84
7210.28
6710.28
6138.68
5439.72
3750.33
3032.58
2406.89
1867.79
1408.18
1022.39
699.478
422.51
161.827
-148.326
-403.363
-626.516
-823.732
-998.579
-1153.68
-1292.04
-1417.21
-1529.83
-1627.34
-1709.79
-1781.82
-1850.7
-1923.85
-2018.2
-2132.52
-2263.71
-2406.66
-2555.22
-2705.79
-2857.77
-2991.54
-3095.29
-3162.79
-3192.19
-3190.46
-3167.01
-3132.86
-3098.65
-3072.09
-3055.44
-3044.08
-3027.17
-2990.49
-2919.98
-2804.25
-2635.28
-2408.38
-2121.62
-1777.08
-1366.11
-909.664
-425.708
74.1415
576.841
1070.13
1543.6
1989.51
2402.73
2780.6
3122.77
3430.43
3705.75
3951.34
4169.91
4363.97
4537.32
4689.89
4816.22
4919.61
4997.41
5046.12
5060.93
5036.09
4965.37
4842.71
4662.79
4421.72
4117.51
3750.17
3322.22
2838.69
2305.94
1728.25
1136.4
481.472
-201.506
-915.184
-1661.22
-2441.82
-3257.85
-4107.54
-4985.32
-5879.14
-6771.21
-7638.98
-8453.55
-9183.6
-9799.14
-10275.4
-10591.7
-10730.4
-10713.5
-10532
-10201
-9737.13
-9156.48
-8474.35
-7702.01
-6848.74
-5922.4
-4929.27
-3878.81
-2784.8
-1666.95
-541.701
597.313
1699.74
2746.18
3722.72
4614.94
5414.94
6119.41
6729.37
7250.73
7693.51
8067.35
8386.97
8653.83
8889.45
9073.13
9221.94
9325.49
9386.07
9373.14
9314.18
9197.6
9027.75
8806.73
8536.03
8217.68
7853.81
7444.2
6985.84
6473.19
5899.25
5257.35
4543.14
3756.6
2903.7
1997.08
1055.12
96.2141
-862.659
-1792.32
-2675.51
-3498.51
-4250.75
-4924.82
-5515.35
-6018.68
-6433.09
-6757.95
-6993.52
-7140.47
-7198.96
-7178.77
-7084.91
-6925.64
-6710.73
-6450.73
-6155.98
-5835.63
-5496.99
-5145.3
-4783.31
-4411.06
-4026.34
-3625.43
-3204.26
-2759.38
-2288.84
-1793.36
-1277.15
-748.241
-215.609
313.895
819.017
1284.62
1699.24
2053.5
2340.03
2553.75
2693.3
2760.2
2758.94
2694.51
2574.48
2406.28
2197.99
1958.12
1695.77
1420.58
1142.16
869.724
611.333
373.325
160.008
-26.1581
-184.505
-315.425
-419.088
-495.435
-544.043
-562.978
-3882.33
-3410.45
-2599.84
-1735.41
-885.428
-20.0134
876.634
1807.06
2761.69
3722.41
4666.11
5570.21
6415.44
7187.49
7880.39
8483.44
8962.08
9275.25
9456.32
9528.07
9516.81
9448.26
9343.87
9218.13
9077.29
8919.29
8735.62
8515.31
8249.15
7932.73
7567.14
7159.94
6703.24
6183.57
5587.34
4855.91
3301.34
2581.62
1963.71
1438.49
1000.22
642.926
354.575
116.612
-101.668
-385.071
-608.893
-800.187
-970.173
-1123.59
-1262.29
-1387.87
-1503.54
-1607.73
-1696.13
-1768.04
-1828.44
-1885.3
-1946.63
-2032.85
-2141.88
-2270.45
-2412.88
-2562.69
-2719.35
-2873.5
-3005.55
-3103.76
-3161.44
-3176.99
-3158.04
-3115.16
-3060.99
-3008.16
-2966.17
-2938.46
-2920.51
-2900.51
-2862.64
-2791.18
-2673.62
-2501.22
-2269.1
-1974.78
-1621.21
-1198.4
-724.516
-227.612
283.009
793.244
1289.85
1761.79
2201.15
2603.06
2965.66
3289.58
3577.12
3831.46
4056.12
4254.52
4429.5
4582.64
4722.82
4836.47
4928.35
4996.27
5036.53
5043.94
5012.27
4934.74
4804.77
4616.58
4365.95
4050.81
3671.31
3230.39
2733.86
2189.27
1602.2
995.73
336.636
-348.197
-1061.7
-1806.29
-2585.41
-3401.11
-4252.91
-5136.48
-6039.9
-6944.97
-7828.29
-8658.58
-9402.11
-10026.4
-10504.5
-10814.8
-10939.3
-10903.4
-10697.4
-10339.9
-9849.81
-9244.82
-8542.1
-7752.55
-6884.6
-5945.43
-4939.41
-3874.91
-2764.48
-1627.46
-480.302
675.606
1796.27
2858.47
3847.09
4746.63
5548.91
6250.65
6853.47
7364.53
7795.26
8157.09
8466.26
8725.48
8956.34
9138.74
9288.35
9394.37
9454.47
9447.01
9388.54
9271.17
9099.28
8875.51
8602.79
8283.51
7919.95
7512.27
7057.02
6547.64
5975.63
5332.67
4613.15
3815.93
2946.91
2019.61
1054.18
70.7917
-911.486
-1861.9
-2762.54
-3599.41
-4361.98
-5043.13
-5638.01
-6143.47
-6558.21
-6881.84
-7114.61
-7256.37
-7308.32
-7279.74
-7175.89
-7005.42
-6778.78
-6507.25
-6201.99
-5872.88
-5527.69
-5171.96
-4808.41
-4436.71
-4053.93
-3655.36
-3235.86
-2791.01
-2317.97
-1816.83
-1291.63
-750.762
-203.799
341.682
863.011
1343.68
1771.23
2135.54
2428.73
2645.43
2784.49
2848.01
2840.27
2767.76
2638.19
2459.41
2239.75
1987.99
1713.55
1426.46
1136.9
854.586
588.057
343.878
126.368
-62.3153
-222.025
-353.767
-458.061
-535.113
-584.666
-604.119
-3514.31
-3013.64
-2208.84
-1336.57
-480.298
386.094
1281.78
2209.22
3156.86
4104.95
5028.38
5903.72
6711.82
7439.3
8080.2
8627.4
9064.7
9325.25
9445.75
9451.42
9373.11
9240.69
9078.66
8903.56
8723.11
8535.58
8331.56
8098.62
7825.82
7507.07
7142.1
6733.25
6264.3
5724.44
5103.82
4343.01
2901.28
2174.01
1555
1034.65
609.409
273.408
13.0891
-197.311
-361.311
-636.181
-820.134
-976.823
-1119.73
-1252.83
-1376.77
-1491.51
-1600.81
-1693.11
-1770.77
-1830.28
-1877.14
-1920.16
-1969.23
-2044.37
-2146.87
-2272.4
-2414.65
-2567.65
-2732.34
-2890.46
-3023.45
-3118.59
-3168.61
-3171.76
-3136.27
-3073.85
-2998.94
-2926.35
-2867.76
-2828.18
-2803.61
-2781.46
-2744.1
-2674.04
-2557.41
-2384.82
-2150.02
-1851.51
-1490.33
-1055.87
-562.652
-51.2011
472.672
993.405
1496.53
1970.16
2405.94
2799.14
3148.61
3455.98
3724.66
3958.92
4163.22
4341.85
4498.91
4629.58
4759.07
4860.24
4941
4999.67
5032.39
5033.56
4996.42
4913.55
4777.72
4582.59
4323.47
3998.06
3606.6
3152.39
2642.1
2084.35
1486.04
866.27
201.406
-485.937
-1199.32
-1942.29
-2719.75
-3535.2
-4389.68
-5280.62
-6196.19
-7117.88
-8021.48
-8872.7
-9635
-10272.7
-10756.3
-11062.9
-11174.1
-11118.6
-10886.4
-10500
-9981.31
-9349.75
-8624.95
-7817.2
-6933.71
-5981.2
-4961.41
-3881.47
-2752.89
-1594.57
-422.77
753.827
1896.07
2977.13
3980.49
4889.26
5694.93
6394.1
6989.2
7488.78
7905.91
8254.1
8551.44
8802.12
9027.86
9209.08
9359.86
9468.7
9529.64
9527.5
9470.61
9352.58
9178.53
8951.54
8675.91
8355.44
7992.27
7586.99
7135.74
6630.67
6061.49
5417.92
4692.83
3883.79
2996.5
2045.58
1053.35
42.0657
-966.71
-1940.43
-2860.49
-3712.64
-4486.36
-5175.02
-5774.43
-6282.02
-6697
-7019.3
-7249.13
-7384.78
-7429.41
-7391.71
-7276.66
-7093.57
-6853.62
-6568.98
-6251.8
-5912.77
-5560.25
-5200.1
-4835.01
-4464.23
-4084.02
-3688.57
-3271.45
-2827.07
-2351.6
-1844.36
-1309.18
-754.852
-191.64
371.983
911.698
1409.5
1851.71
2227.39
2528.02
2747.95
2886.27
2946
2930.69
2849.05
2708.79
2518.19
2285.87
2020.85
1732.88
1432.46
1130.38
837.016
561.423
310.468
88.4742
-102.703
-263.712
-396.136
-501.002
-578.833
-629.612
-649.861
-3183.76
-2676.57
-1890.38
-1014.28
-150.203
718.19
1617.45
2549.06
3498.44
4444.1
5357.97
6215.21
6996.53
7689.64
8288.66
8789.66
9186.81
9404.92
9471.88
9415.45
9272.05
9076.57
8857.05
8632.35
8412.21
8195.75
7972.63
7729.36
7453.16
7135.84
6775.8
6364.64
5882.99
5323.05
4678.56
3891.81
2542.97
1802.16
1173.46
649.39
229.652
-89.8908
-326.16
-518.262
-753.408
-896.818
-1031.25
-1153.19
-1269.89
-1384.88
-1498.61
-1610.55
-1725.42
-1793.1
-1852.94
-1896.75
-1928.17
-1955.4
-1989.02
-2052.68
-2147.43
-2269.46
-2411.89
-2571.16
-2744.54
-2909.02
-3045.77
-3140.5
-3184.95
-3177.04
-3125.45
-3043.08
-2946.3
-2852.43
-2775.74
-2723.17
-2691.76
-2668.27
-2633.34
-2567.23
-2454.61
-2284.95
-2051.04
-1751.04
-1381.96
-936.97
-422.449
105.27
645.073
1179.4
1692.3
2170.77
2605.78
2992.6
3330.79
3623
3873.78
4088.59
4272.89
4432.18
4571.42
4693.97
4799.3
4887.27
4957.24
5007.31
5033.42
5029.53
4988.3
4901.59
4761.4
4560.67
4294.09
3959.06
3555.76
3087.82
2562.8
1990.56
1379.54
746.404
74.7358
-615.635
-1328.79
-2069.74
-2845.22
-3660.25
-4517.74
-5417.59
-6347.9
-7289.98
-8219
-9096.79
-9883.61
-10540
-11032.9
-11337.8
-11436.5
-11360.4
-11099.6
-10681.4
-10131.6
-9471
-8722.7
-7895.93
-6996.19
-6030.2
-4995.99
-3899.35
-2750.94
-1568.86
-369.853
831.546
1999.05
3102.31
4123.33
5043.42
5853.58
6550.29
7136.99
7623.7
8025.45
8358.15
8642.22
8883.45
9103.84
9284.12
9436.83
9549.55
9613.83
9616.14
9561.04
9442.17
9265.53
9034.78
8755.42
8433.12
8070.44
7668.05
7221.73
6722.23
6157.01
5513.4
4782.63
3960.66
3052.9
2075.23
1052.6
9.72706
-1028.89
-2028.6
-2970.13
-3838.91
-4624.52
-5321.01
-5925.02
-6434.7
-6849.8
-7170.65
-7397.45
-7526.11
-7563.08
-7515.04
-7387.52
-7190.26
-6935.34
-6635.91
-6305.25
-5955.07
-5594.34
-5229.36
-4862.8
-4493.41
-4116.56
-3725.17
-3311.31
-2868.01
-2390.3
-1876.57
-1330.35
-760.957
-179.427
404.685
965.123
1482.28
1941.03
2329.48
2638.4
2861.76
2998.95
3054.34
3030.51
2938.56
2786.39
2582.7
2336.39
2056.71
1753.71
1438.43
1122.39
816.708
531.093
272.763
46.0546
-147.537
-309.683
-442.555
-547.9
-626.591
-678.879
-700.286
-2875.2
-2380.9
-1626.14
-754.974
119.645
991.121
1899.11
2841.56
3799.95
4751.82
5664.94
6512.71
7275.48
7942.17
8508.02
8968.84
9322.35
9508.45
9528.66
9413.59
9206.37
8948.07
8670.81
8395.75
8135.32
7890.46
7648.96
7397.57
7121.7
6810.57
6458.77
6045.18
5551.48
4972.35
4304.79
3495.61
2221.93
1460.91
813.811
277.178
-144.752
-451.698
-666.316
-829.924
-1027.23
-1146.13
-1240.71
-1327.75
-1417.59
-1514.53
-1620.75
-1746.86
-1832.04
-1887.06
-1936.24
-1965.85
-1981.99
-1995.67
-2022.04
-2060.39
-2143.46
-2261.25
-2404.35
-2572.76
-2755.76
-2929.27
-3072.81
-3169.9
-3211.19
-3193.72
-3126.39
-3023.38
-2903.23
-2786.07
-2689.17
-2622.05
-2583.1
-2558.7
-2527.92
-2468.61
-2363.67
-2200.69
-1971.91
-1671.78
-1295.26
-840.554
-303.274
242.693
801.398
1352.64
1878.72
2365.33
2802.37
3185.04
3513.67
3791.94
4025.6
4221.36
4385.63
4526.36
4646.32
4753.91
4842.3
4917.2
4976.59
5018.63
5038.98
5031.17
4987.27
4898.31
4755.39
4550.59
4277.76
3933.9
3518.99
3036.88
2496.09
1907.91
1282.7
635.29
-44.147
-738.102
-1450.84
-2189.19
-2962.08
-3776.11
-4636.44
-5546.44
-6493.89
-7460.08
-8420.06
-9330.6
-10148.3
-10829.3
-11335.6
-11641.2
-11728.1
-11630.5
-11337.9
-10884.6
-10300.7
-9608.13
-8834.83
-7988.32
-7071.63
-6092.39
-5043.42
-3928.96
-2759.19
-1550.91
-322.029
908.364
2105.15
3234.29
4276.2
5209.95
6025.74
6720.08
7297.54
7769.78
8154.07
8469.12
8738.14
8969.03
9183.53
9363.12
9518.66
9636.45
9705.66
9712.78
9659.84
9540.21
9360.61
9125.46
8841.51
8516.32
8154.19
7755.39
7315.21
6822.89
6263.22
5620.52
4884.13
4048.17
3117.47
2109.41
1052.15
-26.6251
-1098.84
-2127.33
-3092.39
-3979.08
-4777.18
-5481.68
-6090.25
-6601.86
-7016.93
-7336.19
-7560.06
-7680.56
-7709.45
-7650.09
-7508.71
-7295.62
-7023.87
-6707.77
-6361.91
-5999.18
-5629.33
-5259.15
-4891.27
-4523.9
-4151.37
-3765.19
-3355.71
-2914.3
-2434.66
-1914.11
-1355.79
-769.589
-167.452
439.712
1023.4
1562.34
2039.69
2442.46
2760.54
2987.56
3123.04
3174.18