/*--------------------------------*- C++ -*----------------------------------*\
| =========                 |                                                 |
| \\      /  F ield         | OpenFOAM: The Open Source CFD Toolbox           |
|  \\    /   O peration     | Version:  v1912                                 |
|   \\  /    A nd           | Website:  www.openfoam.com                      |
|    \\/     M anipulation  |                                                 |
\*---------------------------------------------------------------------------*/
FoamFile
{
    version     2.0;
    format      ascii;
    class       volVectorField;
    location    "20";
    object      U;
}
// * * * * * * * * * * * * * * * * * * * * * * * * * * * * * * * * * * * * * //

dimensions      [0 1 -1 0 0 0 0];


internalField   nonuniform List<vector> 
14268
(
(-4.40362 -0.625025 0)
(-4.39991 -0.605629 0)
(-4.35869 -0.593593 0)
(-4.34811 -0.578033 0)
(-4.36711 -0.580295 0)
(-4.3809 -0.58881 0)
(-4.36477 -0.600462 0)
(-4.29207 -0.615963 0)
(-4.17129 -0.617695 0)
(-4.05254 -0.607751 0)
(-3.87921 -0.580482 0)
(-3.64547 -0.535998 0)
(-3.42889 -0.492753 0)
(-3.28469 -0.453359 0)
(-3.25032 -0.433834 0)
(-3.4154 -0.432151 0)
(-3.62564 -0.428808 0)
(-3.66678 -0.435185 0)
(-3.63401 -0.418785 0)
(-3.49998 -0.381997 0)
(-3.40033 -0.378837 0)
(-3.36588 -0.383634 0)
(-3.36997 -0.383271 0)
(-3.38799 -0.383906 0)
(-3.38809 -0.384024 0)
(-3.33807 -0.377128 0)
(-3.1841 -0.358322 0)
(-3.02515 -0.345019 0)
(-2.94232 -0.346526 0)
(-2.95342 -0.355768 0)
(-3.21994 -0.371562 0)
(-3.39818 -0.372659 0)
(-3.46153 -0.378711 0)
(-3.46938 -0.379118 0)
(-3.36063 -0.3631 0)
(-3.17796 -0.340718 0)
(-3.02349 -0.315045 0)
(-2.87983 -0.293356 0)
(-2.73216 -0.269554 0)
(-2.57485 -0.245899 0)
(-2.40482 -0.220457 0)
(-2.23149 -0.216856 0)
(-2.06107 -0.191406 0)
(-1.87744 -0.156314 0)
(-1.68311 -0.143835 0)
(-1.47174 -0.141785 0)
(-1.26957 -0.137395 0)
(-1.07864 -0.144749 0)
(-0.879185 -0.165168 0)
(-0.742018 -0.160831 0)
(-1.25775 -0.147185 0)
(-1.58325 -0.161312 0)
(-1.70863 -0.161826 0)
(-1.74155 -0.188361 0)
(-1.75528 -0.192296 0)
(-1.6566 -0.184255 0)
(-1.58456 -0.175877 0)
(-1.45053 -0.170497 0)
(-1.37762 -0.164972 0)
(-1.74975 -0.165997 0)
(-1.98671 -0.201151 0)
(-2.0629 -0.207939 0)
(-2.06401 -0.205531 0)
(-1.98662 -0.19421 0)
(-1.94785 -0.189062 0)
(-1.91054 -0.188351 0)
(-1.88115 -0.190876 0)
(-1.85848 -0.1905 0)
(-1.80897 -0.181004 0)
(-1.77478 -0.171883 0)
(-1.74497 -0.172451 0)
(-1.71599 -0.179068 0)
(-1.65097 -0.176156 0)
(-1.56266 -0.162922 0)
(-1.4715 -0.14544 0)
(-1.37314 -0.13998 0)
(-1.28747 -0.133114 0)
(-1.20511 -0.122615 0)
(-1.09235 -0.110337 0)
(-0.914876 -0.087176 0)
(-0.717492 -0.0638309 0)
(-0.520068 -0.0461483 0)
(-0.463879 -0.0830432 0)
(-0.546107 -0.0557413 0)
(-0.651506 -0.095921 0)
(-0.295432 -0.129374 0)
(0.0346103 -0.0716813 0)
(0.131606 -0.0222756 0)
(-0.11228 -0.0266801 0)
(-0.0647352 -0.019531 0)
(-0.126232 -0.0185392 0)
(-0.166617 -0.0221974 0)
(-0.143648 -0.0196962 0)
(-0.130803 -0.0154184 0)
(-0.0720235 -0.00714422 0)
(0.088472 -0.014651 0)
(0.231306 -0.0585398 0)
(0.380916 -0.0205957 0)
(0.272324 0.019617 0)
(0.117679 0.00796295 0)
(0.142355 0.010702 0)
(0.213696 0.0182827 0)
(0.296784 0.0280527 0)
(0.373823 0.0369257 0)
(-4.94808 -0.310157 0)
(-4.96886 -0.336197 0)
(-4.96972 -0.340691 0)
(-4.97287 -0.357225 0)
(-5.02532 -0.356598 0)
(-5.05558 -0.356107 0)
(-5.05061 -0.345704 0)
(-4.9772 -0.320731 0)
(-4.81801 -0.293118 0)
(-4.64094 -0.275583 0)
(-4.41897 -0.267906 0)
(-4.13968 -0.262905 0)
(-3.84 -0.251126 0)
(-3.56957 -0.242777 0)
(-3.37174 -0.223924 0)
(-3.28221 -0.224891 0)
(-3.26859 -0.24813 0)
(-3.2502 -0.255018 0)
(-3.18415 -0.266673 0)
(-3.15235 -0.289313 0)
(-3.26001 -0.290729 0)
(-3.48568 -0.302234 0)
(-3.60889 -0.313701 0)
(-3.64299 -0.318443 0)
(-3.60772 -0.317465 0)
(-3.41332 -0.305461 0)
(-3.19526 -0.291306 0)
(-3.07781 -0.276246 0)
(-3.03473 -0.255546 0)
(-3.02387 -0.231118 0)
(-3.0128 -0.234504 0)
(-2.99289 -0.257918 0)
(-2.91242 -0.255158 0)
(-2.58514 -0.231019 0)
(-2.2838 -0.211678 0)
(-2.05852 -0.193569 0)
(-1.91906 -0.18722 0)
(-1.82606 -0.183292 0)
(-1.7309 -0.182879 0)
(-1.58737 -0.175977 0)
(-1.36847 -0.163296 0)
(-1.14092 -0.127287 0)
(-0.985265 -0.121233 0)
(-0.864906 -0.128012 0)
(-0.756979 -0.109582 0)
(-0.628751 -0.0804278 0)
(-0.640448 -0.0615964 0)
(-0.799657 -0.0551888 0)
(-0.512345 0.00517174 0)
(-0.263758 0.0696897 0)
(0.0785984 0.0564127 0)
(-0.310577 -0.00433341 0)
(0.231152 0.0206058 0)
(-0.0929784 0.00870398 0)
(-0.370135 -0.022755 0)
(-0.495 -0.0407687 0)
(-0.758471 -0.067326 0)
(-0.677423 -0.0506382 0)
(-0.424563 -0.0093831 0)
(-0.410652 -0.0299932 0)
(-0.434197 -0.0265994 0)
(-0.430745 -0.0375404 0)
(-0.357457 -0.0386304 0)
(-0.266192 -0.0345398 0)
(-0.213004 -0.027708 0)
(-0.144135 -0.0175838 0)
(0.00174859 0.00252534 0)
(0.0639541 0.0107922 0)
(-0.0247211 -0.0041129 0)
(-0.0945723 -0.0155488 0)
(-0.204785 -0.0232595 0)
(-0.405331 -0.0348195 0)
(-0.656041 -0.0592282 0)
(-0.817719 -0.0821306 0)
(-0.884056 -0.0975243 0)
(-0.73269 -0.0778558 0)
(-0.552281 -0.0578578 0)
(-0.47638 -0.0533836 0)
(-0.548078 -0.0636667 0)
(-0.495909 -0.0656892 0)
(-0.386282 -0.0577285 0)
(-0.0811286 -0.0203046 0)
(0.0174758 0.0397582 0)
(-0.00759955 0.0114045 0)
(0.194369 0.0379864 0)
(-0.212181 0.0408379 0)
(-0.220414 0.0297897 0)
(-0.111518 0.0292449 0)
(0.0981212 0.0330027 0)
(0.259358 0.0397959 0)
(0.398989 0.0508997 0)
(0.53609 0.0604738 0)
(0.612378 0.0650355 0)
(0.613394 0.0603813 0)
(0.590535 0.0504459 0)
(0.507239 0.0644953 0)
(0.496978 0.115434 0)
(0.591028 0.114054 0)
(0.552613 0.0762058 0)
(0.452577 0.0551641 0)
(0.456178 0.0448815 0)
(0.510434 0.0483287 0)
(0.618 0.0576202 0)
(0.773965 0.0729371 0)
(-4.45687 -0.619306 0)
(-4.32167 -0.593763 0)
(-4.25278 -0.580039 0)
(-4.23764 -0.564497 0)
(-4.24205 -0.559802 0)
(-4.19662 -0.568728 0)
(-3.95714 -0.558498 0)
(-3.58345 -0.547398 0)
(-3.24938 -0.529928 0)
(-3.00984 -0.508124 0)
(-2.87653 -0.485191 0)
(-2.82972 -0.461112 0)
(-2.82426 -0.438026 0)
(-2.85498 -0.413372 0)
(-3.0504 -0.419262 0)
(-3.18335 -0.405987 0)
(-3.26504 -0.393005 0)
(-3.31567 -0.408279 0)
(-3.38091 -0.402624 0)
(-3.55315 -0.391068 0)
(-3.65006 -0.389901 0)
(-3.66999 -0.393213 0)
(-3.54926 -0.388747 0)
(-3.2478 -0.366551 0)
(-3.01105 -0.350249 0)
(-2.82849 -0.335284 0)
(-2.66683 -0.312755 0)
(-2.50418 -0.292119 0)
(-2.37018 -0.286299 0)
(-2.27573 -0.280371 0)
(-2.12811 -0.256647 0)
(-2.005 -0.234767 0)
(-1.98389 -0.241398 0)
(-1.89387 -0.24014 0)
(-1.79181 -0.222389 0)
(-1.75968 -0.214368 0)
(-1.79477 -0.21089 0)
(-1.86591 -0.211688 0)
(-1.90535 -0.212454 0)
(-1.78884 -0.200652 0)
(-1.55937 -0.175843 0)
(-1.32993 -0.165211 0)
(-1.15562 -0.124576 0)
(-1.02894 -0.097266 0)
(-0.956599 -0.0928623 0)
(-0.805637 -0.096805 0)
(-1.0955 -0.125408 0)
(-1.301 -0.173972 0)
(-1.03494 -0.18254 0)
(-0.74872 -0.172296 0)
(-0.549915 -0.0626412 0)
(-0.0659183 -0.0185269 0)
(0.268692 0.021007 0)
(0.0641498 0.0227166 0)
(-0.362205 -0.0381592 0)
(-0.555026 -0.0563297 0)
(-0.815512 -0.0890013 0)
(-0.879418 -0.117803 0)
(-0.523292 -0.0838362 0)
(-0.073601 0.0146757 0)
(0.308097 0.0315571 0)
(0.360155 0.0317913 0)
(0.126928 0.00862491 0)
(-0.0176131 -0.0101558 0)
(-0.19217 -0.0240073 0)
(-0.226028 -0.0362677 0)
(-0.139222 -0.0326538 0)
(-0.158817 -0.0231365 0)
(-0.296523 -0.0279521 0)
(-0.372399 -0.0293188 0)
(-0.481759 -0.0400563 0)
(-0.621498 -0.0565409 0)
(-0.716504 -0.0681967 0)
(-0.743337 -0.0716201 0)
(-0.72704 -0.0740474 0)
(-0.65505 -0.0796843 0)
(-0.524342 -0.0654201 0)
(-0.455656 -0.0482169 0)
(-0.503323 -0.0554624 0)
(-0.499658 -0.0618087 0)
(-0.386889 -0.060142 0)
(-0.259285 -0.0499137 0)
(-0.349432 -0.078195 0)
(-0.424118 -0.0558175 0)
(-0.358132 -0.0547925 0)
(-0.27052 -0.0979174 0)
(0.158706 -0.0505504 0)
(0.396726 -0.00574471 0)
(0.507949 0.0235007 0)
(0.525111 0.0301139 0)
(0.591895 0.0431036 0)
(0.65367 0.05311 0)
(0.683917 0.0619311 0)
(0.670229 0.0668296 0)
(0.571914 0.062211 0)
(0.336999 0.0101469 0)
(0.357692 -0.0431926 0)
(0.46589 -0.0120021 0)
(0.585759 0.0531175 0)
(0.548929 0.057273 0)
(0.526904 0.0480667 0)
(0.545778 0.0456214 0)
(0.628065 0.0505513 0)
(0.782492 0.0688719 0)
(-4.70529 -0.296592 0)
(-4.55461 -0.309468 0)
(-4.21879 -0.271436 0)
(-3.91538 -0.25647 0)
(-3.63905 -0.222818 0)
(-3.33475 -0.200277 0)
(-3.07314 -0.182737 0)
(-2.92714 -0.160085 0)
(-2.86378 -0.140475 0)
(-2.85561 -0.13774 0)
(-2.85951 -0.150079 0)
(-2.8427 -0.169858 0)
(-2.81941 -0.181296 0)
(-2.8279 -0.189364 0)
(-3.13241 -0.196814 0)
(-3.29877 -0.230154 0)
(-3.3123 -0.252661 0)
(-3.23715 -0.246698 0)
(-3.18749 -0.255907 0)
(-3.15738 -0.269152 0)
(-3.23559 -0.277953 0)
(-3.27754 -0.28764 0)
(-3.19437 -0.295672 0)
(-3.02616 -0.284921 0)
(-2.88214 -0.273426 0)
(-2.75086 -0.270617 0)
(-2.55432 -0.259206 0)
(-2.27199 -0.22468 0)
(-2.03483 -0.176472 0)
(-1.89178 -0.136029 0)
(-1.78184 -0.131355 0)
(-1.72874 -0.14312 0)
(-1.86099 -0.163541 0)
(-1.93264 -0.194073 0)
(-1.855 -0.193086 0)
(-1.84693 -0.183166 0)
(-1.84811 -0.176486 0)
(-1.81807 -0.173528 0)
(-1.7227 -0.173357 0)
(-1.57752 -0.170778 0)
(-1.38698 -0.160088 0)
(-1.21364 -0.125618 0)
(-1.05421 -0.138269 0)
(-0.894628 -0.132295 0)
(-0.800603 -0.111232 0)
(-0.667632 -0.0699808 0)
(-0.809106 -0.0480407 0)
(-0.880446 -0.0601251 0)
(-0.453172 -0.0317398 0)
(-0.416527 0.0153351 0)
(-0.108294 0.00479509 0)
(-0.0500578 -0.00716281 0)
(0.198653 0.011746 0)
(0.0287792 0.0395365 0)
(-0.336469 0.00517599 0)
(-0.319014 -0.010111 0)
(-0.601949 -0.0352401 0)
(-0.629935 -0.07341 0)
(-0.280902 -0.0443751 0)
(0.217876 -0.00986002 0)
(0.386818 0.0334907 0)
(0.472269 0.058117 0)
(0.187518 0.0274589 0)
(-0.168332 -0.00828686 0)
(-0.189552 -0.0131653 0)
(-0.16836 -0.0183437 0)
(-0.0563254 -0.00209224 0)
(-0.0410577 0.00958259 0)
(-0.138354 -0.00406829 0)
(-0.199071 -0.0132129 0)
(-0.336592 -0.0198452 0)
(-0.540938 -0.0332118 0)
(-0.697862 -0.0579025 0)
(-0.760047 -0.0764908 0)
(-0.723537 -0.0847887 0)
(-0.643948 -0.0818847 0)
(-0.546616 -0.0707988 0)
(-0.464093 -0.0525764 0)
(-0.472305 -0.0530741 0)
(-0.436107 -0.0617666 0)
(-0.316523 -0.0553666 0)
(-0.100412 -0.0120342 0)
(-0.105435 0.0353606 0)
(-0.202442 -0.00420085 0)
(0.0169195 0.0163331 0)
(-0.107522 0.0297245 0)
(0.317818 0.0458888 0)
(0.537179 0.0792093 0)
(0.567099 0.0674217 0)
(0.536278 0.0550134 0)
(0.569286 0.0558342 0)
(0.627626 0.0598115 0)
(0.682413 0.0664153 0)
(0.67813 0.0692831 0)
(0.62631 0.0653917 0)
(0.487085 0.0741117 0)
(0.471506 0.0997785 0)
(0.538012 0.0931727 0)
(0.576859 0.0741465 0)
(0.525793 0.0603429 0)
(0.48687 0.0456842 0)
(0.515405 0.0414884 0)
(0.603414 0.0435347 0)
(0.75738 0.0614915 0)
(-3.8861 -0.562376 0)
(-3.5543 -0.525128 0)
(-3.10366 -0.477642 0)
(-2.77626 -0.430271 0)
(-2.6692 -0.415989 0)
(-2.71359 -0.429685 0)
(-2.77286 -0.434817 0)
(-2.83229 -0.458543 0)
(-2.86546 -0.472439 0)
(-2.89481 -0.470615 0)
(-2.87697 -0.459507 0)
(-2.81033 -0.43375 0)
(-2.76362 -0.400927 0)
(-2.77748 -0.371092 0)
(-3.12511 -0.392599 0)
(-3.35717 -0.399513 0)
(-3.41206 -0.406271 0)
(-3.26548 -0.40693 0)
(-3.07727 -0.378378 0)
(-2.98445 -0.35212 0)
(-2.97971 -0.339329 0)
(-2.98634 -0.340454 0)
(-2.95066 -0.352312 0)
(-2.80339 -0.350623 0)
(-2.59281 -0.332598 0)
(-2.38362 -0.31207 0)
(-2.15552 -0.284907 0)
(-1.88607 -0.254107 0)
(-1.62069 -0.229734 0)
(-1.36808 -0.203309 0)
(-1.18196 -0.170556 0)
(-1.20981 -0.153831 0)
(-1.6952 -0.200733 0)
(-1.81824 -0.222058 0)
(-1.73537 -0.21132 0)
(-1.6136 -0.200713 0)
(-1.62756 -0.197515 0)
(-1.65209 -0.201484 0)
(-1.65374 -0.212657 0)
(-1.51891 -0.210683 0)
(-1.33989 -0.200251 0)
(-1.1869 -0.194148 0)
(-1.13132 -0.132796 0)
(-1.02394 -0.112753 0)
(-0.893838 -0.105605 0)
(-0.757191 -0.0953811 0)
(-0.793203 -0.0826224 0)
(-0.726542 -0.147924 0)
(-0.447726 -0.160621 0)
(-0.128817 -0.0918792 0)
(-0.277292 -0.0551983 0)
(0.0178499 -0.035619 0)
(0.196103 0.0150555 0)
(0.0291736 0.04846 0)
(-0.33411 -0.0167119 0)
(-0.303659 -0.0219012 0)
(-0.503386 -0.0519291 0)
(-0.416457 -0.0705456 0)
(-0.0564671 -0.0487608 0)
(0.371027 0.0301987 0)
(0.437482 0.0320821 0)
(0.384048 0.041553 0)
(0.104312 0.0335186 0)
(-0.0937684 -0.0017979 0)
(-0.176215 -0.0216708 0)
(-0.191414 -0.0391528 0)
(-0.080725 -0.0327019 0)
(-0.0446783 -0.00930582 0)
(-0.215934 -0.0124883 0)
(-0.310307 -0.0148522 0)
(-0.422832 -0.0200281 0)
(-0.580657 -0.0368821 0)
(-0.707547 -0.0583075 0)
(-0.76107 -0.0731401 0)
(-0.727472 -0.0821955 0)
(-0.659506 -0.0864187 0)
(-0.561341 -0.074301 0)
(-0.475017 -0.0549953 0)
(-0.489759 -0.0513249 0)
(-0.472516 -0.0566988 0)
(-0.300304 -0.056351 0)
(-0.098329 -0.0489358 0)
(-0.172051 -0.0527709 0)
(-0.295385 -0.0475843 0)
(-0.14965 -0.0416472 0)
(0.0241789 -0.075775 0)
(0.350716 -0.053795 0)
(0.480711 -0.00747577 0)
(0.522203 0.0277834 0)
(0.545956 0.0341523 0)
(0.617406 0.0432085 0)
(0.66304 0.0520966 0)
(0.67082 0.0602462 0)
(0.659945 0.0679764 0)
(0.574323 0.0700218 0)
(0.409938 0.0252065 0)
(0.441496 -0.0277637 0)
(0.510314 -0.00499002 0)
(0.567883 0.0538489 0)
(0.513327 0.05796 0)
(0.478495 0.0438045 0)
(0.510816 0.0378997 0)
(0.600173 0.0380069 0)
(0.750332 0.0546876 0)
(-2.94505 -0.139425 0)
(-3.0538 -0.210256 0)
(-2.73667 -0.182881 0)
(-2.44205 -0.154283 0)
(-2.3721 -0.112774 0)
(-2.71639 -0.159827 0)
(-2.87563 -0.189053 0)
(-2.91008 -0.187429 0)
(-2.88468 -0.168378 0)
(-2.86827 -0.166739 0)
(-2.81527 -0.173235 0)
(-2.72869 -0.187328 0)
(-2.65256 -0.195184 0)
(-2.57707 -0.161183 0)
(-2.9885 -0.172911 0)
(-3.43792 -0.248651 0)
(-3.56551 -0.275402 0)
(-3.48889 -0.279849 0)
(-3.32591 -0.269778 0)
(-3.24472 -0.266284 0)
(-3.21087 -0.265861 0)
(-3.22744 -0.274863 0)
(-3.24089 -0.285433 0)
(-3.16107 -0.281155 0)
(-3.09585 -0.279584 0)
(-3.02729 -0.284534 0)
(-2.90007 -0.285325 0)
(-2.69651 -0.264214 0)
(-2.49789 -0.224654 0)
(-2.31483 -0.185756 0)
(-2.10877 -0.168435 0)
(-1.97417 -0.145873 0)
(-2.079 -0.149389 0)
(-2.13331 -0.200617 0)
(-1.99679 -0.198886 0)
(-2.03249 -0.186628 0)
(-2.00802 -0.175095 0)
(-1.94026 -0.167283 0)
(-1.79228 -0.160655 0)
(-1.61549 -0.156843 0)
(-1.43707 -0.145627 0)
(-1.29303 -0.130868 0)
(-1.10892 -0.135393 0)
(-0.922526 -0.121355 0)
(-0.848846 -0.107585 0)
(-0.635118 -0.0651069 0)
(-0.621321 -0.0479727 0)
(-0.766986 -0.0658338 0)
(-0.551153 -0.0490101 0)
(0.0118803 0.005087 0)
(-0.287804 -0.0175677 0)
(-0.0332121 -0.0255008 0)
(0.106615 -0.00161598 0)
(0.0270214 0.0580362 0)
(-0.326206 0.0160685 0)
(-0.242666 0.00208382 0)
(-0.438974 -0.0128269 0)
(-0.233905 -0.0646678 0)
(0.0118673 -0.0818603 0)
(0.385235 -0.0205607 0)
(0.426806 0.035928 0)
(0.43694 0.0691344 0)
(0.14474 0.0438505 0)
(-0.106748 0.0105127 0)
(-0.190894 -0.0102307 0)
(-0.223752 -0.0215028 0)
(-0.125529 -0.00890679 0)
(-0.103116 0.00573605 0)
(-0.189081 -0.00520032 0)
(-0.259571 -0.0149254 0)
(-0.403671 -0.0199425 0)
(-0.587916 -0.0307797 0)
(-0.711608 -0.051423 0)
(-0.76156 -0.0755053 0)
(-0.728633 -0.088188 0)
(-0.666017 -0.0896046 0)
(-0.569367 -0.07985 0)
(-0.465715 -0.0540266 0)
(-0.416296 -0.0502427 0)
(-0.327682 -0.0604936 0)
(-0.173678 -0.0599562 0)
(-0.036341 -0.0151025 0)
(-0.131851 0.0303889 0)
(-0.164942 -0.0062541 0)
(-0.0907231 -0.0101841 0)
(0.173392 0.0154061 0)
(0.354081 0.0188183 0)
(0.415193 0.0526704 0)
(0.487327 0.0636893 0)
(0.540091 0.0595726 0)
(0.61214 0.0569206 0)
(0.677283 0.0606256 0)
(0.683786 0.0671163 0)
(0.670077 0.073152 0)
(0.60939 0.0733178 0)
(0.476872 0.0758764 0)
(0.445658 0.0840355 0)
(0.505815 0.0782226 0)
(0.537139 0.0707461 0)
(0.490044 0.0640424 0)
(0.47703 0.0445951 0)
(0.51397 0.0362506 0)
(0.603887 0.0340703 0)
(0.753546 0.052164 0)
(-2.86857 -0.42541 0)
(-2.90465 -0.44823 0)
(-2.63717 -0.422901 0)
(-2.50857 -0.403696 0)
(-2.63424 -0.394329 0)
(-2.90401 -0.412372 0)
(-2.98407 -0.418051 0)
(-2.98949 -0.436819 0)
(-2.92132 -0.444265 0)
(-2.91406 -0.442188 0)
(-2.91373 -0.437687 0)
(-2.88041 -0.417685 0)
(-2.79406 -0.386062 0)
(-2.69336 -0.353474 0)
(-2.71877 -0.291485 0)
(-3.10886 -0.320684 0)
(-3.13492 -0.375699 0)
(-3.12134 -0.3953 0)
(-3.10781 -0.383046 0)
(-3.16455 -0.36363 0)
(-3.24318 -0.348557 0)
(-3.27863 -0.357536 0)
(-3.20907 -0.373367 0)
(-2.86828 -0.355072 0)
(-2.52079 -0.319812 0)
(-2.24235 -0.292325 0)
(-2.03933 -0.272619 0)
(-1.89222 -0.257382 0)
(-1.83825 -0.251591 0)
(-1.85895 -0.249989 0)
(-1.76843 -0.225213 0)
(-1.65491 -0.186111 0)
(-1.46416 -0.170607 0)
(-0.700628 -0.132093 0)
(-0.838351 -0.146224 0)
(-1.30329 -0.171054 0)
(-1.50504 -0.187923 0)
(-1.64847 -0.205026 0)
(-1.71472 -0.223615 0)
(-1.56999 -0.218857 0)
(-1.35772 -0.203077 0)
(-1.17233 -0.175757 0)
(-0.919536 -0.155153 0)
(-0.767388 -0.134563 0)
(-0.700407 -0.113809 0)
(-0.499707 -0.0836741 0)
(-0.714477 -0.0525325 0)
(-0.862766 -0.134766 0)
(-0.499193 -0.175345 0)
(-0.189105 -0.0752816 0)
(-0.112258 -0.0252215 0)
(-0.0300153 -0.0345899 0)
(0.171764 0.00756172 0)
(0.0141451 0.0676889 0)
(-0.297957 0.000794904 0)
(-0.212512 -0.001267 0)
(-0.389815 -0.0362803 0)
(-0.226003 -0.0635053 0)
(-0.247528 -0.0758603 0)
(0.290267 0.0105946 0)
(0.387072 0.0329155 0)
(0.417955 0.0556367 0)
(0.118378 0.0517293 0)
(-0.113938 0.00992552 0)
(-0.200577 -0.016447 0)
(-0.179679 -0.038891 0)
(-0.0198068 -0.028857 0)
(-0.0472554 0.00415592 0)
(-0.198849 0.00135135 0)
(-0.333583 -0.0109549 0)
(-0.494481 -0.0177698 0)
(-0.619057 -0.0275078 0)
(-0.705818 -0.0520876 0)
(-0.746466 -0.0712318 0)
(-0.724851 -0.0862457 0)
(-0.666941 -0.0934967 0)
(-0.572565 -0.0838983 0)
(-0.458218 -0.0608232 0)
(-0.354437 -0.0441236 0)
(-0.25056 -0.0552693 0)
(-0.146035 -0.0617882 0)
(-0.100483 -0.0317552 0)
(-0.126104 -0.0273164 0)
(-0.217534 -0.0358098 0)
(0.160881 -0.0264432 0)
(0.228208 -0.0580545 0)
(0.30791 -0.0487916 0)
(0.381863 -0.0124891 0)
(0.484146 0.0181334 0)
(0.531018 0.0281544 0)
(0.604029 0.04362 0)
(0.683384 0.055936 0)
(0.69857 0.0621011 0)
(0.680877 0.0740654 0)
(0.611166 0.084751 0)
(0.445084 0.040159 0)
(0.450121 -0.0156471 0)
(0.541463 0.00486902 0)
(0.573006 0.0592132 0)
(0.514464 0.0628386 0)
(0.479976 0.0450858 0)
(0.50614 0.0347384 0)
(0.593244 0.0303667 0)
(0.749348 0.0483884 0)
(-2.81687 -0.127319 0)
(-2.8516 -0.238459 0)
(-2.69463 -0.23356 0)
(-2.59932 -0.181339 0)
(-2.62285 -0.114108 0)
(-2.84027 -0.158938 0)
(-2.925 -0.19595 0)
(-2.95788 -0.207923 0)
(-2.86919 -0.182711 0)
(-2.82581 -0.167479 0)
(-2.7728 -0.170192 0)
(-2.72083 -0.185361 0)
(-2.72313 -0.197957 0)
(-2.75175 -0.163792 0)
(-2.66564 -0.157355 0)
(-2.86465 -0.20362 0)
(-3.02462 -0.240264 0)
(-3.07522 -0.274567 0)
(-2.9649 -0.268114 0)
(-2.84572 -0.243941 0)
(-2.86739 -0.241314 0)
(-2.9844 -0.258409 0)
(-2.76879 -0.282975 0)
(-2.36768 -0.274955 0)
(-2.05235 -0.256825 0)
(-1.79055 -0.24275 0)
(-1.61136 -0.232597 0)
(-1.47396 -0.208287 0)
(-1.37357 -0.166342 0)
(-1.33167 -0.137113 0)
(-1.12319 -0.110558 0)
(-0.758492 -0.0543882 0)
(-0.264825 -0.0176396 0)
(-0.0108873 -0.0127752 0)
(-0.322174 -0.00715045 0)
(-0.621375 -0.0330319 0)
(-0.862747 -0.0629058 0)
(-1.0524 -0.0952815 0)
(-1.15107 -0.142726 0)
(-1.16899 -0.179491 0)
(-1.18465 -0.186161 0)
(-1.11392 -0.175795 0)
(-1.00306 -0.124462 0)
(-0.850731 -0.111573 0)
(-0.643613 -0.111293 0)
(-0.427816 -0.0576721 0)
(-0.700305 -0.0415653 0)
(-0.850134 -0.0988246 0)
(-0.544058 -0.101819 0)
(-0.207988 -0.0320146 0)
(0.175273 0.000204358 0)
(-0.266538 -0.0670511 0)
(0.16143 0.00457994 0)
(-0.00913473 0.0722918 0)
(-0.306046 0.025352 0)
(-0.190982 0.00623169 0)
(-0.368065 -0.00546465 0)
(-0.455622 -0.0837983 0)
(-0.189233 -0.0924469 0)
(0.360454 -0.0237146 0)
(0.469216 0.0368317 0)
(0.426603 0.0791346 0)
(0.120601 0.0659706 0)
(-0.117614 0.0141965 0)
(-0.229857 -0.0164223 0)
(-0.163722 -0.034989 0)
(-0.0410488 -0.0207395 0)
(-0.0765903 0.00795089 0)
(-0.218337 0.00933957 0)
(-0.29387 0.00833262 0)
(-0.411766 0.00904146 0)
(-0.572377 -0.0105807 0)
(-0.688268 -0.0405233 0)
(-0.740148 -0.0714491 0)
(-0.726611 -0.0887121 0)
(-0.668636 -0.095915 0)
(-0.572048 -0.0885331 0)
(-0.450378 -0.0624787 0)
(-0.336733 -0.0495903 0)
(-0.265713 -0.0507932 0)
(-0.192657 -0.054588 0)
(-0.118261 -0.0248569 0)
(-0.164941 0.0272904 0)
(-0.287862 -0.0244811 0)
(0.150493 -0.0022068 0)
(0.25815 0.00546306 0)
(0.306927 0.000968094 0)
(0.366582 0.0297342 0)
(0.570126 0.0559634 0)
(0.647825 0.0556141 0)
(0.622798 0.0496532 0)
(0.66742 0.058409 0)
(0.708066 0.0716508 0)
(0.700083 0.0772906 0)
(0.625804 0.0806457 0)
(0.478711 0.0766183 0)
(0.481092 0.0689266 0)
(0.49947 0.0585294 0)
(0.53423 0.0669829 0)
(0.485691 0.0629754 0)
(0.45329 0.0425501 0)
(0.490972 0.0304109 0)
(0.586273 0.0231757 0)
(0.74568 0.0441652 0)
(-2.83382 -0.354757 0)
(-2.92612 -0.413327 0)
(-2.8928 -0.416305 0)
(-2.685 -0.398639 0)
(-2.59698 -0.376365 0)
(-2.78204 -0.383295 0)
(-2.85086 -0.400254 0)
(-2.87903 -0.432265 0)
(-2.71817 -0.430729 0)
(-2.61381 -0.435922 0)
(-2.51121 -0.430398 0)
(-2.42357 -0.412325 0)
(-2.39764 -0.37667 0)
(-2.53861 -0.345254 0)
(-2.70663 -0.296977 0)
(-2.90496 -0.311634 0)
(-3.09043 -0.361014 0)
(-3.1507 -0.375582 0)
(-3.11027 -0.364741 0)
(-2.91541 -0.335744 0)
(-2.63491 -0.296932 0)
(-2.44021 -0.291232 0)
(-2.29855 -0.317042 0)
(-2.17618 -0.316658 0)
(-2.09222 -0.287282 0)
(-1.99244 -0.263299 0)
(-1.86247 -0.248283 0)
(-1.7265 -0.223725 0)
(-1.61652 -0.201962 0)
(-1.51265 -0.194588 0)
(-1.17851 -0.171321 0)
(-0.734244 -0.130414 0)
(-0.26606 -0.0832834 0)
(-0.123141 -0.0668001 0)
(-0.494242 -0.0780163 0)
(-0.727386 -0.0853013 0)
(-0.866559 -0.0989918 0)
(-0.981499 -0.115145 0)
(-1.06688 -0.139016 0)
(-1.18772 -0.1589 0)
(-1.27243 -0.172379 0)
(-1.24999 -0.159927 0)
(-1.15802 -0.169897 0)
(-0.966686 -0.140112 0)
(-0.819992 -0.112436 0)
(-0.638495 -0.0765902 0)
(-0.786973 -0.0539046 0)
(-1.00977 -0.140168 0)
(-0.623467 -0.181893 0)
(-0.0659936 -0.0908496 0)
(0.0448607 -0.00972523 0)
(-0.402385 -0.0625684 0)
(0.10493 -0.0096168 0)
(-0.0122738 0.0883917 0)
(-0.170005 0.0253142 0)
(-0.165825 0.00913755 0)
(-0.363927 -0.0223725 0)
(-0.592431 -0.102653 0)
(0.0369099 -0.12881 0)
(0.387435 -0.0447336 0)
(0.427323 0.0256907 0)
(0.408992 0.0790629 0)
(0.141138 0.0880887 0)
(-0.105105 0.0334793 0)
(-0.207974 -0.0135797 0)
(-0.148517 -0.0442361 0)
(-0.0589256 -0.0329483 0)
(-0.0626493 0.00688593 0)
(-0.212558 0.00807715 0)
(-0.289614 -0.00364491 0)
(-0.429985 -0.0118264 0)
(-0.598316 -0.0213605 0)
(-0.708267 -0.0436398 0)
(-0.750927 -0.0693055 0)
(-0.724209 -0.0893085 0)
(-0.667699 -0.0997325 0)
(-0.56968 -0.0928439 0)
(-0.445563 -0.0682353 0)
(-0.325949 -0.0509985 0)
(-0.245454 -0.0626653 0)
(-0.154732 -0.0803747 0)
(0.0136836 -0.0397516 0)
(-0.192463 -0.0207996 0)
(-0.216698 -0.0502229 0)
(0.0272531 -0.0461128 0)
(0.263394 -0.0472159 0)
(0.310113 -0.055062 0)
(0.357506 -0.0170871 0)
(0.569478 0.0171454 0)
(0.773629 0.05175 0)
(0.70724 0.0447428 0)
(0.680135 0.0511236 0)
(0.704303 0.0628184 0)
(0.702967 0.0806425 0)
(0.628462 0.0972058 0)
(0.515914 0.0563708 0)
(0.507503 -0.00112041 0)
(0.504037 0.00916883 0)
(0.509369 0.0524927 0)
(0.444859 0.0581816 0)
(0.436245 0.0387348 0)
(0.485773 0.0238998 0)
(0.581947 0.0143408 0)
(0.738861 0.0347561 0)
(-2.87644 -0.149124 0)
(-3.01872 -0.270174 0)
(-2.93331 -0.269091 0)
(-2.50206 -0.207871 0)
(-2.44867 -0.109466 0)
(-2.75575 -0.15897 0)
(-2.89642 -0.205599 0)
(-2.94838 -0.230359 0)
(-2.78199 -0.206122 0)
(-2.67298 -0.169581 0)
(-2.56811 -0.161262 0)
(-2.46116 -0.161785 0)
(-2.39323 -0.16249 0)
(-2.47598 -0.127353 0)
(-2.79488 -0.0994423 0)
(-2.97494 -0.144085 0)
(-3.14462 -0.220172 0)
(-3.22862 -0.280268 0)
(-3.23795 -0.298379 0)
(-3.1578 -0.28061 0)
(-3.00591 -0.254734 0)
(-2.87979 -0.247625 0)
(-2.77344 -0.264886 0)
(-2.59412 -0.271007 0)
(-2.36082 -0.260665 0)
(-2.16171 -0.25087 0)
(-1.94309 -0.235465 0)
(-1.7014 -0.219893 0)
(-1.47575 -0.185997 0)
(-1.30433 -0.162215 0)
(-1.03982 -0.143244 0)
(-0.649429 -0.0804404 0)
(-0.251865 -0.0392386 0)
(-0.139456 -0.0171999 0)
(-0.55656 -0.00458164 0)
(-0.726302 -0.026413 0)
(-0.83528 -0.0514756 0)
(-0.942343 -0.0758471 0)
(-1.12032 -0.11954 0)
(-1.30603 -0.164532 0)
(-1.26203 -0.180746 0)
(-1.06754 -0.180655 0)
(-0.888481 -0.141705 0)
(-0.807975 -0.129025 0)
(-0.876283 -0.129606 0)
(-0.755397 -0.0824032 0)
(-0.790138 -0.0110889 0)
(-0.810763 -0.118382 0)
(-0.405602 -0.167509 0)
(-0.0627534 -0.0640282 0)
(-0.0768447 0.00899073 0)
(-0.122307 -0.0823101 0)
(0.0197839 -0.032596 0)
(-0.0279805 0.0851232 0)
(-0.232961 0.0312251 0)
(-0.134385 0.0159534 0)
(-0.382727 0.00598246 0)
(-0.345279 -0.10398 0)
(0.0475361 -0.0977586 0)
(0.352441 -0.0267858 0)
(0.412816 0.0290665 0)
(0.362945 0.0846741 0)
(0.175571 0.0936808 0)
(-0.104107 0.0351319 0)
(-0.210094 -0.00957178 0)
(-0.175036 -0.0309278 0)
(-0.081818 -0.0213816 0)
(-0.0344909 0.0206303 0)
(-0.204774 0.00799993 0)
(-0.301465 0.00730594 0)
(-0.462908 0.0110641 0)
(-0.624434 -0.00725743 0)
(-0.717107 -0.0409334 0)
(-0.74499 -0.0720735 0)
(-0.718971 -0.093881 0)
(-0.665853 -0.103018 0)
(-0.567484 -0.0971547 0)
(-0.442396 -0.0716965 0)
(-0.318573 -0.0555507 0)
(-0.213105 -0.0607193 0)
(-0.129383 -0.0633318 0)
(0.00915538 -0.0102214 0)
(-0.0743384 0.0269611 0)
(0.0307537 -0.016761 0)
(0.121186 -0.0465251 0)
(0.318319 -0.00268819 0)
(0.316703 -0.0136429 0)
(0.351347 0.00336058 0)
(0.547593 0.035643 0)
(0.81574 0.0698988 0)
(0.811672 0.0739311 0)
(0.702265 0.0597106 0)
(0.709005 0.0703036 0)
(0.705151 0.084723 0)
(0.643481 0.0956292 0)
(0.534356 0.087144 0)
(0.517528 0.0656849 0)
(0.48167 0.0486619 0)
(0.478304 0.0653705 0)
(0.422912 0.0598051 0)
(0.426203 0.0378468 0)
(0.479979 0.0227753 0)
(0.573836 0.0119944 0)
(0.726773 0.0310918 0)
(-2.85176 -0.278568 0)
(-2.9304 -0.391239 0)
(-2.36436 -0.373058 0)
(-2.24342 -0.35945 0)
(-2.38298 -0.327578 0)
(-2.73991 -0.336697 0)
(-2.88084 -0.373311 0)
(-2.9001 -0.405275 0)
(-2.73596 -0.410375 0)
(-2.61309 -0.411961 0)
(-2.4918 -0.404758 0)
(-2.38148 -0.385921 0)
(-2.31965 -0.345394 0)
(-2.3696 -0.304507 0)
(-2.8401 -0.293433 0)
(-3.0778 -0.310585 0)
(-3.20251 -0.359297 0)
(-3.21505 -0.383194 0)
(-3.06348 -0.37933 0)
(-3.06469 -0.368736 0)
(-3.11647 -0.354258 0)
(-3.08779 -0.355425 0)
(-2.84363 -0.360671 0)
(-2.50967 -0.343013 0)
(-2.19843 -0.313688 0)
(-1.9189 -0.312709 0)
(-1.69109 -0.295441 0)
(-1.48012 -0.245435 0)
(-1.31743 -0.196109 0)
(-1.24186 -0.179435 0)
(-1.03327 -0.170297 0)
(-0.655776 -0.146991 0)
(-0.267434 -0.0964187 0)
(-0.151304 -0.0556433 0)
(-0.705948 -0.071602 0)
(-0.93216 -0.0899423 0)
(-1.06646 -0.102742 0)
(-1.15384 -0.114945 0)
(-1.17395 -0.133113 0)
(-1.00262 -0.155473 0)
(-0.650184 -0.140085 0)
(-0.477701 -0.118514 0)
(-0.468326 -0.13159 0)
(-0.520631 -0.131322 0)
(-0.54062 -0.142479 0)
(-0.504413 -0.088553 0)
(-0.709857 -0.0600442 0)
(-0.435725 -0.111454 0)
(-0.260852 -0.175157 0)
(-0.2331 -0.103878 0)
(-0.0324656 -0.0183924 0)
(-0.00839283 -0.0237958 0)
(-0.00546415 -0.0189647 0)
(-0.0451876 0.0828128 0)
(-0.288768 0.0250108 0)
(-0.125985 0.0186308 0)
(-0.41642 -0.0101493 0)
(-0.135545 -0.0785052 0)
(0.0517946 -0.143105 0)
(0.343409 -0.0591727 0)
(0.386222 0.0238917 0)
(0.335501 0.0814001 0)
(0.215212 0.102588 0)
(-0.112307 0.0475545 0)
(-0.203376 -0.00689531 0)
(-0.140124 -0.0465746 0)
(-0.0464637 -0.0316686 0)
(-0.0290948 0.0145915 0)
(-0.208653 0.0221852 0)
(-0.315047 0.00638954 0)
(-0.485575 0.00198987 0)
(-0.638325 -0.0119116 0)
(-0.721303 -0.0411556 0)
(-0.733147 -0.0690037 0)
(-0.714328 -0.0918038 0)
(-0.66027 -0.104706 0)
(-0.559814 -0.101261 0)
(-0.434398 -0.0771877 0)
(-0.30616 -0.0578966 0)
(-0.194353 -0.0617307 0)
(-0.112243 -0.0755285 0)
(0.00620881 -0.0333018 0)
(0.0514809 0.00872381 0)
(0.142713 -0.0168874 0)
(0.33067 -0.0240807 0)
(0.376536 -0.0426438 0)
(0.28303 -0.0395882 0)
(0.292032 -0.0194659 0)
(0.552668 0.00830823 0)
(0.865231 0.0512236 0)
(0.879852 0.0699373 0)
(0.763249 0.0597198 0)
(0.713599 0.0626071 0)
(0.702836 0.0821306 0)
(0.644805 0.104132 0)
(0.534974 0.0678232 0)
(0.535325 0.0127165 0)
(0.490347 0.0144388 0)
(0.444998 0.0474757 0)
(0.388892 0.0555159 0)
(0.415731 0.034694 0)
(0.476694 0.018474 0)
(0.570811 0.00460428 0)
(0.720417 0.0252815 0)
(-2.75136 -0.133047 0)
(-2.49639 -0.279894 0)
(-2.16347 -0.288186 0)
(-2.2075 -0.190441 0)
(-2.57225 -0.117142 0)
(-2.83397 -0.169348 0)
(-2.92048 -0.217411 0)
(-2.89735 -0.26338 0)
(-2.7194 -0.241535 0)
(-2.58928 -0.202426 0)
(-2.46053 -0.190984 0)
(-2.33218 -0.184189 0)
(-2.24337 -0.166151 0)
(-2.24114 -0.106659 0)
(-2.73464 -0.10535 0)
(-3.02127 -0.143104 0)
(-3.12482 -0.220395 0)
(-2.83862 -0.265894 0)
(-2.52006 -0.243268 0)
(-2.477 -0.21992 0)
(-2.50966 -0.216105 0)
(-2.48248 -0.244104 0)
(-2.24257 -0.29008 0)
(-2.04409 -0.300473 0)
(-1.8892 -0.265424 0)
(-1.75585 -0.216938 0)
(-1.60573 -0.194797 0)
(-1.44828 -0.198839 0)
(-1.31662 -0.180166 0)
(-1.22276 -0.173084 0)
(-1.01393 -0.17741 0)
(-0.658547 -0.119117 0)
(-0.29676 -0.0719632 0)
(-0.143183 -0.00268499 0)
(-0.652095 0.00911333 0)
(-0.901673 -0.0394319 0)
(-1.05568 -0.0720561 0)
(-1.17689 -0.0975316 0)
(-1.20599 -0.143108 0)
(-0.87209 -0.134914 0)
(-0.517305 -0.122984 0)
(-0.242165 -0.0928739 0)
(-0.307414 -0.069841 0)
(-0.433901 -0.0709325 0)
(-0.415626 -0.0699548 0)
(-0.17442 -0.0230745 0)
(-0.487335 0.00371762 0)
(-0.394567 -0.082026 0)
(-0.250794 -0.150832 0)
(-0.264202 -0.0787385 0)
(-0.0280764 0.00178352 0)
(0.118656 -0.0388169 0)
(-0.00384011 -0.032009 0)
(-0.0736314 0.0983903 0)
(-0.239438 0.0354156 0)
(-0.142887 0.0220625 0)
(-0.475315 -0.00115235 0)
(-0.13953 -0.0964455 0)
(0.248608 -0.0940806 0)
(0.298854 -0.0496291 0)
(0.354991 0.0243817 0)
(0.318169 0.0773785 0)
(0.204562 0.113441 0)
(-0.103341 0.0562983 0)
(-0.176479 -0.0081052 0)
(-0.130908 -0.0477464 0)
(-0.0313627 -0.0345601 0)
(-0.0537349 0.0310058 0)
(-0.202579 0.0216991 0)
(-0.326134 0.0205554 0)
(-0.50231 0.0196336 0)
(-0.653722 -0.00120766 0)
(-0.732248 -0.0363839 0)
(-0.731043 -0.0695059 0)
(-0.71261 -0.0945428 0)
(-0.64909 -0.10871 0)
(-0.549632 -0.10488 0)
(-0.422263 -0.0808076 0)
(-0.29072 -0.0626256 0)
(-0.18089 -0.0633612 0)
(-0.090098 -0.0709149 0)
(0.0286643 -0.0193552 0)
(0.0924613 0.0375474 0)
(0.173107 -0.00699673 0)
(0.413462 -0.0250514 0)
(0.37982 -0.011722 0)
(0.258263 -0.0182065 0)
(0.347223 0.00516605 0)
(0.69441 0.0231572 0)
(0.927015 0.0665554 0)
(0.926354 0.0879704 0)
(0.82843 0.0815118 0)