/*--------------------------------*- C++ -*----------------------------------*\
| =========                 |                                                 |
| \\      /  F ield         | OpenFOAM: The Open Source CFD Toolbox           |
|  \\    /   O peration     | Version:  v1912                                 |
|   \\  /    A nd           | Website:  www.openfoam.com                      |
|    \\/     M anipulation  |                                                 |
\*---------------------------------------------------------------------------*/
FoamFile
{
    version     2.0;
    format      ascii;
    class       volScalarField;
    location    "90";
    object      p_rgh;
}
// * * * * * * * * * * * * * * * * * * * * * * * * * * * * * * * * * * * * * //

dimensions      [1 -1 -2 0 0 0 0];


internalField   nonuniform List<scalar> 
14268
(
-10884.6
-10846.3
-10762.3
-10629
-10446.3
-10212.6
-9927.72
-9596.33
-9234.93
-8939.91
-8411.09
-7862.36
-7299.57
-6739.52
-6197.23
-5685.15
-5212.21
-4782.15
-4391.21
-4025.64
-3664.55
-3307.68
-2954.12
-2594.54
-2214.24
-1796.72
-1326.89
-793.573
-192.548
470.063
1176.6
1912.86
2687.58
3503.9
4360.01
5252.28
6177.33
7133.12
8119
9135.34
10182.8
11261.4
12370.2
13506.3
14664.8
15839
17021.2
18202.2
19370.9
20517
21630.3
22701.4
23721.8
24683.6
25579.2
26401.2
27141.7
27800
28380.6
28856.7
29206.4
29431.2
29529.7
29501.4
29348.2
29074.1
28685.5
28190.2
27596.7
26913.6
26149.6
25311.2
24403.5
23430
22393.2
21295.8
20141.6
18937.4
17693.8
16414
15096.9
13743.7
12356.1
10934
9472.08
7919.5
6146.26
4684.57
3266.24
1882.21
518.536
-834.528
-2185.28
-3540.61
-4905.87
-6284.65
-7678.74
-9088.22
-10511.5
-11945.4
-13385.4
-14825.6
-16259.7
-17680.7
-19081.9
-20457.2
-21801.4
-23110.2
-24380.2
-25608.2
-26792.2
-27930.6
-29021.7
-30063.2
-31051.7
-31982.9
-32851.2
-33651.1
-34377.5
-35026.1
-35594.1
-36080.6
-36487.5
-36818.5
-37079.6
-37281.3
-37425.9
-37501.5
-37510.8
-37454.5
-37324.7
-37110.7
-36799.3
-36376.8
-35831.1
-35152.8
-34337.8
-33387.3
-32306.8
-31104.3
-29790
-28374.5
-26867.9
-25280.7
-23624
-21907.1
-20140
-18334.3
-16503
-14661.4
-12826
-11013.7
-9240.39
-7519.73
-5862.34
-4276.74
-2763.97
-1317.17
-95.7747
1202.17
2429.62
3600.61
4717.32
5785.2
-9746.77
-9636.06
-9496.57
-9323.36
-9114.15
-8864.97
-8573.54
-8243.83
-7895.05
-7660.25
-7194.62
-6667.24
-6153.89
-5657.86
-5184.47
-4739.02
-4323.2
-3934.4
-3566.29
-3209.99
-2855.47
-2491.68
-2107.67
-1693.02
-1238.43
-737.117
-186.623
414.177
1066
1765.86
2507.31
3282.78
4087.81
4920.44
5780.16
6667.4
7583.21
8528.94
9505.67
10513.7
11551.9
12617.7
13706.6
14812.5
15928.3
17045.8
18157.3
19254.8
20329.2
21372.7
22377.8
23337.2
24244
25091.2
25871.7
26578.1
27202.9
27745.3
28208.8
28567.7
28803.7
28920.2
28918.3
28799.9
28568.4
28228.9
27787.5
27251.2
26626.6
25920.4
25138.9
24286.9
23368.1
22385.2
21341.1
20238.6
19082.1
17877.1
16631.6
15355.5
14051.8
12720.4
11361.9
9975.12
8552.72
7043.28
5328.42
3902.41
2516.41
1159.69
-181.249
-1515.63
-2850.99
-4193.29
-5546.9
-6914.48
-8296.99
-9693.78
-11102.8
-12520.4
-13942.1
-15362
-16773.8
-18170.8
-19546.8
-20896.1
-22214
-23496.6
-24740.9
-25944
-27103.9
-28219
-29287.6
-30307.1
-31274.1
-32183.8
-33030.7
-33809.2
-34514.3
-35142.1
-35689.9
-36157.5
-36546.8
-36861.8
-37108.9
-37297.9
-37434.1
-37501.1
-37502.4
-37438.3
-37300.8
-37078.7
-36758.6
-36326.9
-35771.2
-35082.8
-34257.8
-33298
-32209.5
-31000.7
-29681.4
-28262.7
-26754.3
-25166.7
-23510.5
-21794.9
-20029.7
-18226.4
-16398.1
-14560
-12728.7
-10921.2
-9153.51
-7439.02
-5788.25
-4209.53
-2702.5
-1243.6
-66.4757
1244.01
2466.64
3633.14
4746.21
5810.83
-9230.99
-9089.73
-8929.56
-8745.06
-8531.68
-8281.91
-7990.12
-7659.04
-7309.05
-7085.57
-6644.21
-6130.38
-5623.51
-5136.74
-4675.4
-4241.9
-3836.08
-3455.09
-3093.51
-2743.47
-2394
-2032.67
-1646.89
-1225.35
-758.992
-241.699
329.304
953.668
1628.48
2348.62
3107.46
3898.21
4715.69
5556.99
6421.35
7309.75
8224.26
9167.23
10140.4
11144.2
12177.3
13236
14314.9
15407
16504
17597.4
18679.4
19742.2
20777.3
21777.6
22736.6
23647.7
24504.9
25301.5
26030.9
26686
27260
27752.7
28165.1
28471.9
28656.8
28724.1
28675.6
28514.2
28244
27870.6
27400.2
26839.7
26195.4
25473.2
24679
23816.9
22890
21900.7
20851.7
19745.8
18587
17380.5
16133.5
14855.6
13552.6
12224.8
10873.4
9497.24
8089.07
6596.46
4917.94
3508.58
2138.45
795.694
-532.865
-1856.35
-3182.12
-4515.93
-5861.88
-7222.33
-8597.94
-9987.77
-11389.5
-12799.5
-14212.8
-15623.9
-17026
-18412.8
-19777.8
-21115.5
-22421.3
-23691.9
-24924
-26115
-27263
-28366.7
-29424.3
-30433.5
-31390.6
-32290.8
-33128.5
-33897.8
-34593.7
-35212.3
-35750.8
-36209
-36588.9
-36894.8
-37133.4
-37316.5
-37447.3
-37510.7
-37509.4
-37444
-37306.2
-37084.4
-36764.6
-36332.6
-35775.8
-35085
-34256.4
-33292.6
-32200
-30987.5
-29664.9
-28243.6
-26733.2
-25144.3
-23487.3
-21771
-20004.9
-18200.5
-16370.7
-14530.7
-12697.5
-10888.4
-9119.4
-7404.28
-5753.67
-4176.11
-2670.75
-1217.55
-33.0178
1271.03
2489.67
3652.7
4763.12
5825.58
-8915.59
-8756.64
-8586.81
-8400.36
-8190.24
-7944.28
-7652.72
-7317.11
-6958.65
-6723.48
-6281.81
-5769
-5262.49
-4776.52
-4316.85
-3885.74
-3482.83
-3105.33
-2748.21
-2403.21
-2058.35
-1700.23
-1315.33
-891.584
-419.658
106.319
688.544
1325.8
2014.07
2747.3
3518.39
4320.36
5147.64
5996.82
6866.93
7759.09
8675.72
9619.65
10593
11596.3
12628
13684.1
14758.5
15843.4
16930.1
18009.6
19074
20115.3
21125.4
22097.4
23025.1
23902.9
24724.7
25484.6
26176.3
26793.1
27328.8
27784.5
28158.7
28424.2
28567.7
28594
28505.4
28305.5
27999.3
27592.7
27092.6
26505.9
25838.6
25096.9
24286.1
23410
22471
21471.6
20413.8
19300.5
18135.4
16923.7
15672.4
14390.1
13081.2
11749
10396.4
9023.42
7622.93
6140.95
4498.22
3102.91
1746.53
416.064
-901.397
-2214.97
-3532.01
-4858.17
-6197.4
-7551.83
-8921.82
-10306.1
-11702.1
-13106
-14512.8
-15916.6
-17310.6
-18688.4
-20043.3
-21370.1
-22664.2
-23922.5
-25142
-26320.2
-27455.4
-28546.5
-29592.1
-30589.8
-31536
-32425.7
-33253.1
-34012
-34697.3
-35304.9
-35832.1
-36278.3
-36645.8
-36939.3
-37165.6
-37341.9
-37465.6
-37523.2
-37518.2
-37451.1
-37313.2
-37092.1
-36773.2
-36340.9
-35782.3
-35087.5
-34253
-33282.3
-32183.1
-30964.1
-29635.8
-28209.7
-26695.8
-25104.3
-23445.6
-21727.7
-19959.8
-18153.3
-16321
-14478
-12641.9
-10830.4
-9059.84
-7344.2
-5694.33
-4119.13
-2617.65
-1176.88
26.7731
1317.45
2529.32
3686.86
4792.91
5851.89
-8698.19
-8528.32
-8355.46
-8173.39
-7972.02
-7733.28
-7442.63
-7100.98
-6730.48
-6471.63
-6018.02
-5500.59
-4990.72
-4502.25
-4041.14
-3609.89
-3208.27
-2833.52
-2480.54
-2140.7
-1801.42
-1448.45
-1067.39
-645.408
-172.727
356.571
944.383
1588.95
2285.57
3027.53
3807.17
4617.14
5451.53
6306.71
7181.56
8077.21
8996.25
9941.75
10916.1
11919.9
12951.7
14007.1
15079.7
16161.3
17242.7
18314.8
19369.3
20398.2
21393.1
22347.4
23255
24110.6
24908.6
25643.3
26308.7
26898.4
27406.5
27834.7
28185
28421.2
28534.2
28529.3
28409.2
28178.1
27841.4
27406
26879
26267.9
25578.8
24818
23990.8
23100.5
22149.6
21139.7
20072.9
18951.7
17779.7
16562.2
15306.1
14016.2
12697.7
11356.6
9997.88
8622.68
7224.47
5746.75
4135.82
2752
1407.37
87.8515
-1219.32
-2523.39
-3831.91
-5150.61
-6483.41
-7832.35
-9197.52
-10577.4
-11969.1
-13368.8
-14771.1
-16170
-17558.5
-18929.9
-20277.6
-21595.9
-22880.6
-24128.9
-25337.8
-26505.1
-27629.2
-28709.4
-29744.7
-30732.9
-31670.3
-32552
-33371.5
-34122.5
-34799.6
-35398.6
-35916.1
-36351.6
-36707.3
-36987.8
-37205.7
-37372.7
-37488.9
-37542.2
-37535.4
-37469.2
-37334.6
-37118.2
-36804.2
-36375.7
-35818.6
-35122.4
-34283.5
-33306.9
-32201.4
-30976.2
-29641.9
-28210.6
-26692.7
-25098
-23436.9
-21716.5
-19945.5
-18135.3
-16298.1
-14449.4
-12607.1
-10789.8
-9014.29
-7294.87
-5642.85
-4067.74
-2568.54
-1137.61
84.9294
1363.93
2568.78
3720.34
4821.49
5876.62
-8538
-8361.29
-8189.91
-8016.81
-7828.36
-7599.03
-7309.21
-6960.19
-6575.33
-6285.81
-5813.81
-5288.33
-4772.69
-4279.73
-3815.61
-3383.12
-2982.26
-2610.34
-2262.15
-1928.55
-1596.4
-1250.64
-875.97
-458.719
11.4466
540.647
1130.66
1779.36
2481.51
3229.79
4015.99
4832.3
5672.49
6532.75
7411.82
8310.77
9232.24
10179.5
11155.1
12160.1
13192.7
14248.8
15321.6
16402.5
17482.3
18551.4
19601.6
20624.3
21610.9
22554.6
23449.5
24290.5
25072.3
25789.5
26436.1
27006
27493.2
27899.1
28234.9
28450.7
28541.1
28511.6
28365.5
28107.6
27743.9
27281.9
26729.6
26094.7
25384.2
24604.2
23760.3
22855.7
21892.3
20871.7
19795.4
18665.9
17487
16263.8
14998.9
13696.9
12365.3
11011.8
9643.3
8262.01
6862.19
5383.71
3801.63
2427.63
1093.49
-215.847
-1513.16
-2807.95
-4108.11
-5419.58
-6746.37
-8090.5
-9451.85
-10828.5
-12217.4
-13614.6
-15014.5
-16410.6
-17795.7
-19162.9
-20505.1
-21816.7
-23093.4
-24332.7
-25532
-26689.2
-27802.7
-28872.5
-29898.3
-30877.7
-31807.6
-32682.4
-33495.3
-34239.7
-34909.8
-35501
-36009.3
-36433.9
-36776.8
-37043.8
-37251.9
-37408.4
-37516.1
-37564.4
-37556.4
-37492.9
-37364
-37155.2
-36849
-36426.8
-35873
-35176.1
-34332
-33348.4
-32235.6
-31003
-29660.9
-28223.1
-26700
-25101
-23436.9
-21712.9
-19937.6
-18122.1
-16278.3
-14421.5
-12570.7
-10745.3
-8962.84
-7237.9
-5582.42
-4006.64
-2509.21
-1086.43
151.329
1419.88
2617.08
3761.6
4856.78
5907.16
-8414.61
-8233.86
-8067.5
-7907.06
-7734.8
-7516.04
-7226.31
-6868.62
-6467.93
-6143.58
-5649.39
-5113.45
-4590.12
-4091.12
-3622.79
-3188.33
-2788.01
-2419.26
-2076.74
-1750.75
-1427.52
-1091.18
-725.379
-315.527
149.401
675.865
1265.65
1916.36
2622.31
3375.57
4167.3
4989.18
5834.69
6699.85
7583.15
8485.42
9409.31
10358.3
11335.3
12341.5
13375.5
14433.1
15507.4
16589.7
17670.5
18740.3
19790.3
20811.6
21795.1
22733.5
23621.2
24453.1
25224.3
25929.5
26562.9
27118.4
27590
27979.3
28300.8
28505.7
28579.7
28530.9
28363.2
28081.8
27693.5
27206.7
26630
25972.1
25240.2
24441.3
23580.8
22661.9
21686.2
20655
19569.8
18433.2
17248.4
16015.3
14736.7
13419.3
12071.9
10703.8
9323.01
7933.12
6529.12
5045.92
3490.25
2125.05
800.804
-498.584
-1786
-3071.31
-4362.92
-5667.1
-6988.1
-8327.98
-9686.37
-11060.9
-12448.5
-13844.8
-15243.8
-16638.8
-18022.3
-19387.2
-20725.9
-22032.1
-23301.9
-24532.9
-25723
-26870.4
-27973.6
-29033.4
-30050.2
-31021.8
-31945.1
-32814.3
-33622.1
-34361.6
-35026.3
-35611.2
-36110.9
-36524.4
-36852.9
-37108.5
-37303.6
-37448.4
-37546.8
-37590.5
-37582.3
-37523.6
-37403.6
-37206
-36911.5
-36498.9
-35951.1
-35254.7
-34405.1
-33414
-32293.5
-31052.7
-29701.7
-28256.5
-26727.5
-25123.5
-23455.9
-21727.6
-19946.8
-18124.8
-16272.4
-14404.9
-12542.8
-10706.6
-8914.42
-7181.39
-5520.34
-3942.29
-2445.28
-1028.69
221.028
1480.25
2669.6
3806.28
4894.58
5939.42
-8316.14
-8133.6
-7975.46
-7830.81
-7677.32
-7469.27
-7178.36
-6810.84
-6393.66
-6032.1
-5513.49
-4965.23
-4432.37
-3925.75
-3452.07
-3014.99
-2615.04
-2249.79
-1913.79
-1596.86
-1284.54
-959.926
-605.551
-205.719
251.435
772.848
1360.42
2011.59
2720.23
3477.73
4274.56
5101.83
5952.85
6823.39
7711.4
8617.28
9543.66
10494.2
11472.4
12479.7
13515.3
14575
15651.8
16737
17821.1
18894.4
19947.8
20971.7
21956.2
22893.7
23778.4
24605.4
25370.1
26067.6
26692.1
27237.3
27697.4
28074.1
28380.1
28580.9
28643.8
28580.2
28394.4
28092.2
27681.2
27170.7
26570.4
25889.6
25136.5
24318.7
23441.8
22508.9
21521.5
20480.8
19388.6
18246.5
17051.4
15803.8
14508.4
13173.1
11807.7
10422.8
9027.95
7627.65
6217.7
4726.48
3195.28
1838.28
523.658
-765.704
-2042.94
-3318.36
-4601.08
-5897.82
-7213.17
-8549.38
-9905.69
-11279
-12666.2
-14064.3
-15466
-16863.3
-18247.7
-19611.3
-20946.7
-22247.5
-23509.9
-24732.2
-25912.6
-27049.8
-28142.1
-29191.7
-30199.9
-31164.8
-32083
-32948.2
-33752.3
-34489
-35150.2
-35730.2
-36222
-36624
-36936.9
-37180
-37360.2
-37491.6
-37579.5
-37617.7
-37610.8
-37559.4
-37451.7
-37269.2
-36990.6
-36590.9
-36051.5
-35356.6
-34500.3
-33500.6
-32371.7
-31121.8
-29760.2
-28306.5
-26770.6
-25160.6
-23489.3
-21755.9
-19968.4
-18138.7
-16275.8
-14395
-12518.8
-10669.1
-8864.66
-7121.19
-5452.64
-3870.98
-2373.28
-961.631
297.158
1547.5
2728.71
3856.63
4937.08
5975.52
-8234.81
-8052.65
-7906.01
-7779.91
-7647.07
-7448.82
-7155.16
-6776.8
-6343.17
-5943.51
-5399.4
-4837.19
-4292.73
-3776.57
-3296.17
-2855.75
-2456.09
-2094.73
-1765.96
-1459.56
-1160.22
-849.804
-509.556
-122.461
324.374
838.515
1422.11
2072.47
2783.03
3544.44
4346.31
5179.27
6036.58
6913.6
7807.24
8717.24
9646.19
10598.2
11577.1
12585.3
13622.4
14684.3
15764.4
16853.7
17943
19022.4
20082.4
21112.5
22101.6
23041.6
23926.5
24752
25513.7
26206.8
26825.7
27364.2
27815.9
28183
28475.6
28671.5
28728.8
28654.1
28453.2
28132.5
27700.4
27167
26543.4
25839.9
25065.7
24229.1
23336
22389.8
21392
20344.4
19247.2
18095.1
16885.8
15621.1
14306.6
12951.2
11565.8
10162.3
8751.63
7339.51
5922.47
4420.47
2912.23
1563.11
258.148
-1020.87
-2287.46
-3552.38
-4825.72
-6114.74
-7424.53
-8757.76
-10113.6
-11489.8
-12881.4
-14282.6
-15686
-17084.9
-18470.3
-19833.5
-21166.9
-22463.2
-23719
-24932.9
-26103.4
-27230.2
-28310.7
-29349.1
-30348
-31305.9
-32219.4
-33081.6
-33884.4
-34621.5
-35282.3
-35859
-36343.1
-36732.3
-37031.4
-37257.9
-37420.7
-37537.5
-37613.5
-37645.8
-37640.9
-37599.3
-37507.6
-37344.9
-37087.2
-36704.5
-36176.8
-35484.2
-34619
-33609.2
-32471.7
-31212
-29837.4
-28374.3
-26830.7
-25213.8
-23539.2
-21799.7
-20004.5
-18166.2
-16290.8
-14393.9
-12500.6
-10634.7
-8815.19
-7058.6
-5380.35
-3793.51
-2293.89
-886.187
379.268
1620.68
2793.43
3911.54
4983.09
6014.23
-8164.91
-7985.61
-7854.25
-7749.08
-7637.99
-7447.51
-7149.43
-6759.46
-6310.09
-5872.8
-5303.4
-4725.82
-4166.66
-3638.1
-3149.22
-2704.65
-2305.27
-1948.53
-1628.05
-1333.45
-1049.16
-755.548
-432.324
-60.8719
372.965
877.572
1455.45
2103.9
2815.85
3581.12
4388.25
5227.59
6092.6
6977.78
7878.33
8793.06
9724.64
10677.6
11656.8
12665.4
13703.6
14768
15851.8
16946.3
18042.4
19130.2
20199.8
21239.3
22236.3
23181.8
24069.9
24896.5
25657.9
26349.3
26965.5
27500
27946.2
28306.3
28586.9
28775.2
28830.6
28748.4
28535.2
28198
27746
27190.4
26543.7
25817.4
25022
24166.9
23258.3
22300.1
21294.9
20242.5
19135.9
17970.5
16744.9
15461.3
14126
12748.6
11341.3
9917.24
8489.04
7063.9
5639.05
4123.9
2637.54
1296.17
1.0959
-1267.08
-2522.4
-3776.11
-5039.5
-6320.56
-7625.41
-8958.13
-10318
-11697.3
-13091.4
-14495.4
-15901.8
-17303.8
-18691.9
-20056
-21388.9
-22681.6
-23931.3
-25136.7
-26297.4
-27413.7
-28481.8
-29508
-30496.9
-31447.5
-32355.6
-33214.5
-34018
-34759.6
-35423.9
-35998.6
-36474.8
-36849.4
-37134.4
-37341.3
-37483.9
-37583.4
-37639
-37670
-37669.8
-37642.3
-37571.5
-37433.4
-37202
-36840.4
-36327
-35636.9
-34759.9
-33739.6
-32592.9
-31323
-29932.3
-28459.1
-26906.9
-25281.8
-23604.8
-21858.3
-20054.4
-18207
-16317.2
-14400.9
-12487.5
-10602.4
-8765.12
-6992.55
-5302.29
-3708.73
-2205.99
-801.499
468.579
1700.49
2864.51
3971.56
5033.09
6056.02
-8101.66
-7928.49
-7817.05
-7734.75
-7645.53
-7459.75
-7155.69
-6753.57
-6289.85
-5816.85
-5225.48
-4629.11
-4050.31
-3505.47
-3005.65
-2555.98
-2157.02
-1805.86
-1495.57
-1214.69
-947.394
-673.133
-369.965
-17.2914
400.661
893.347
1463.75
2109.19
2822.11
3591.41
4404.24
5251.15
6125.95
7021.54
7930.48
8850.59
9784.8
10738.3
11716.9
12725
13763.9
14830.6
15918.6
17019.2
18123.7
19222.2
20304.2
21356.4
22364.3
23317.9
24211.5
25041.5
25804.7
26496.8
27112.5
27645.4
28088.7
28444.6
28712.7
28894.4
28945.7
28859.2
28636.2
28284.5
27813.9
27236.7
26567
25817.8
25001.3
24128.1
23205.3
22238.1
21227.4
20166
19047.4
17867.2
16624
15320.3
13962.7
12561.6
11130.3
9683.7
8236.14
6796.88
5363.85
3833.56
2368.33
1034.69
-250.129
-1506.81
-2750.17
-3991.91
-5244.84
-6517.98
-7819.39
-9154.32
-10517.6
-11899.1
-13296.6
-14704.3
-16114.7
-17521
-18913.7
-20279.8
-21614.1
-22903.9
-24148.4
-25345.2
-26495.8
-27601.8
-28656.3
-29669.4
-30647.4
-31590.8
-32493
-33347.8
-34154.4
-34905.7
-35577.2
-36149.9
-36617.2
-36977.5
-37245.2
-37428.7
-37547.8
-37633.1
-37675
-37692.9
-37697
-37685.1
-37639.3
-37532.4
-37334.9
-36999.8
-36507.1
-35824.4
-34926.7
-33890.3
-32735.9
-31456.4
-30044.2
-28561.1
-26999.1
-25364.4
-23687.1
-21932.2
-20118.5
-18262
-16356
-14416.7
-12479.9
-10572.8
-8714.65
-6922.95
-5218.08
-3616.21
-2109.05
-707.232
565.076
1787.3
2942.02
4036.41
5086.69
6100.4
-8040.43
-7878.19
-7792.62
-7734.46
-7666
-7480.91
-7169.7
-6755.07
-6278.96
-5774.12
-5164.57
-4543.72
-3941.61
-3376.28
-2861.6
-2404.65
-2005.83
-1661.2
-1363.06
-1099.06
-851.678
-599.632
-319.604
10.9913
409.996
888.325
1449.39
2090.46
2803.97
3577.65
4396.99
5253.34
6140.75
7049.41
7968.33
8894.4
9831.11
10784.5
11761.3
12767.8
13806.8
14875.6
15968.2
17075.7
18190.2
19301.5
20398.8
21466.9
22488.6
23452.6
24353.7
25189
25955.8
26650.4
27267.7
27801.3
28244
28599.5
28851.3
29029.9
29075.7
28983.2
28752.6
28388.3
27900.5
27302.4
26609.9
25837.8
25000.3
24110.3
23175.9
22201.3
21181.2
20108.4
18976.8
17781.3
16520
15195.3
13814
12387.4
10930
9458.65
7989.59
6535.08
5093.82
3546.8
2102.25
776.344
-497.797
-1742.17
-2972.84
-4201.84
-5443.83
-6709.11
-8008.67
-9345.19
-10712.4
-12095.9
-13497.6
-14909.5
-16325.6
-17737.2
-19137
-20505.9
-21844.2
-23131.4
-24371.9
-25559.5
-26699.6
-27795.6
-28835.2
-29834.5
-30800.1
-31736.8
-32631.4
-33480.8
-34294.5
-35063.1
-35751.4
-36317.6
-36773.3
-37119
-37362.3
-37518.9
-37610.4
-37667.7
-37702.4
-37700
-37715.7
-37729.2
-37717.2
-37647.6
-37491.3
-37187.3
-36714.9
-36022
-35101.5
-34063.2
-32902.4
-31612.1
-30171.6
-28680.4
-27106.8
-25460.3
-23786.7
-22021.2
-20196.7
-18332.3
-16407.8
-14441.4
-12477.8
-10545.8
-8663.68
-6849.26
-5126.89
-3515.15
-2002.06
-603.255
670.013
1882.25
3025.81
4106.21
5143.85
6147.29
-7976.02
-7832.2
-7780.21
-7746.42
-7696.1
-7507.16
-7188.01
-6760.78
-6274.58
-5744.35
-5115.32
-4467.41
-3839.6
-3250.1
-2715.76
-2247.27
-1846.72
-1509.08
-1224.63
-980.085
-756.577
-530.78
-277.629
27.2799
403.786
864.161
1412.77
2048.09
2762.14
3541.04
4368.62
5237.32
6140.63
7065.24
7995.7
8928.17
9867.14
10819.4
11793.1
12796.7
13834.7
14905.3
16002.9
17118.1
18244.3
19370.7
20486
21573.2
22611.4
23588.1
24498.4
25340.5
26112.5
26811.2
27431.8
27967.9
28412.1
28763.4
29010.6
29182.3
29222.7
29122.1
28881.6
28505.6
28002.1
27384.2
26669.2
25874.5
25016.9
24112.2
23167.7
22182
21150.2
20065.4
18920.7
17710
16430.5
15084.2
13678.1
12224.2
10738.1
9239.57
7746.38
6275.45
4826.24
3261.38
1837.34
519.085
-743.982
-1975
-3192.19
-4407.83
-5638.29
-6895.74
-8193.01
-9530.37
-10903.1
-12287.3
-13695.3
-15111.3
-16535.3
-17952.6
-19363.2
-20734.9
-22081
-23365.1
-24603.7
-25780.7
-26910.1
-27996.4
-29019.2
-30002.9
-30954.2
-31886.4
-32772.7
-33613.7
-34439.4
-35232.4
-35924.4
-36489.5
-36940.3
-37274.2
-37482.4
-37601.9
-37670.9
-37690
-37702.6
-37704.1
-37732.7
-37764.6
-37785.2
-37757.3
-37660.7
-37388.5
-36956.2
-36325.3
-35366.7
-34269.7
-33081.2
-31796.7
-30311.8
-28817.5
-27229.6
-25568.2
-23905.3
-22125
-20289.1
-18419.3
-16473.9
-14475.2
-12481.3
-10521.7
-8612.27
-6771.09
-5027.92
-3404.81
-1883.79
-489.022
784.355
1985.48
3116
4180.87
5204.3
6196.34
-7901.51
-7788.51
-7779.88
-7769.19
-7732.64
-7537.49
-7209.41
-6768.25
-6274.17
-5724.34
-5075.44
-4398.25
-3743.29
-3126.58
-2567.81
-2082.2
-1675.61
-1343.94
-1074.35
-850.922
-654.095
-458.38
-236.15
39.3643
389.027
825.612
1354.9
1978.08
2693.41
3481.8
4321.59
5206.66
6129.09
7072.57
8015.99
8955.13
9896.02
10846.1
11815
12814
13849.9
14921.5
16024.7
17148.7
18288.4
19432
20568.1
21677.6
22735.1
23726.4
24647.3
25497.5
26276
26980.1
27605.5
28145.6
28592.4
28935.7
29192.2
29353.2
29387.9
29278.1
29025.2
28634.2
28114.7
27478.5
26741.9
25925.3
25049.5
24132
23174.1
22174.9
21130.6
20034.1
18877.2
17651.8
16354.5
14986.3
13554.2
12071.3
10553.7
9025.28
7504.55
6015.9
4559.25
2975.97
1572.44
261.423
-990.46
-2206.69
-3409.52
-4611.54
-5829.46
-7078.25
-8371.36
-9708.76
-11089.9
-12472.2
-13890
-15308.8
-16744.3
-18166.3
-19593.6
-20966
-22326.1
-23605
-24846.1
-26009.3
-27126.6
-28203.9
-29208.3
-30183.6
-31114.1
-32044.5
-32901
-33731
-34578.2
-35409.4
-35609
-33556.3
-31719.4
-30517.9
-29904.9
-29747.8
-29895.7
-30151.7
-30324.9
-30340.3
-30134.9
-29783.6
-29432.2
-29256.6
-29560.5
-30556
-32367.6
-34417.6
-34589.8
-34114.2
-33289.2
-32017.3
-30455.4
-28978.2
-27365.2
-25686.9
-24045.6
-22243
-20395.5
-18525.6
-16556
-14518.6
-12491
-10501.5
-8561.03
-6688.19
-4920.22
-3284.25
-1752.35
-364.174
908.91
2097.65
3212.75
4260.52
5267.79
6247.22
-7837.04
-7759.27
-7788.05
-7790.87
-7760.57
-7562.65
-7227.58
-6774.21
-6274.98
-5714.99
-5053.07
-4354.29
-3680.43
-3043.66
-2465.42
-1964.55
-1550.43
-1221.57
-962.933
-755.899
-579.548
-406.857
-208.08
44.8482
373.138
789.969
1302.99
1915.61
2630.15
3427.69
4280.15
5179.35
6116.27
7074.35
8027.08
8970.42
9912.1
10859.6
11824
12818.7
13852.6
14924.8
16032.6
17163.3
18313.7
19470.4
20622.2
21749.1
22821.4
23823.3
24752
25608.3
26391.9
27100.4
27730.1
28274.4
28724.2
29067.2
29326.4
29481.3
29512.4
29395.9
29133.4
28730.2
28196.9
27547.1
26796.8
25966.6
25080
24153.2
23185.2
22176.3
21123.8
20019.9
18855.1
17620.2
16310.5
14927.1
13476
11972
10430.5
8880.21
7338.14
5837.25
4376.93
2782.15
1393.42
87.1663
-1157.22
-2361.83
-3554.5
-4748.6
-5956.81
-7198.35
-8487.19
-9824.33
-11215.4
-12592.6
-14022
-15439.6
-16887.6
-18309.6
-19755.5
-21124
-22500.9
-23771.7
-25018.8
-26168.6
-27284.1
-28356.2
-29342.1
-30287.1
-31196.4
-32135.7
-32740.8
-27152.9
-17407.6
-8329.42
-1605.91
-557.331
-412.897
-291.873
-201.667
-106.725
-36.4604
30.8195
29.3981
21.8985
13.5057
4.87315
-2.32594
-9.27742
-12.9959
-32.0726
-270.714
-2060.32
-9419.56
-21138.1
-30323.7
-31746.6
-30585.1
-29092.3
-27471.4
-25769
-24158.1
-22330.4
-20475.5
-18611.7
-16622.5
-14552.9
-12500.3
-10489.4
-8525.37
-6627.34
-4839.72
-3194.49
-1651.81
-272.727
1001.05
2180.04
3282.74
4317.86
5312.59
6282.65
-7799.68
-7744.31
-7794.15
-7803.37
-7775.99
-7576.83
-7237.91
-6777.6
-6275.52
-5710.72
-5042.21
-4331.8
-3648.05
-3000.54
-2411.59
-1902.01
-1483.06
-1155.23
-902.435
-704.417
-539.246
-379.247
-193.089
47.3863
363.727
769.387
1273.23
1879.99
2594.12
3396.86
4256.91
5164.1
6108.75
7074.77
8032.44
8977.86
9919.84
10865.8
11827.5
12819.6
13852.4
14924.8
16035.3
17169.8
18326.1
19489.9
20650.2
21786.6
22866.9
23874.6
24807.4
25667.1
26453.4
27164.4
27796.5
28343.3
28795
29138.7
29398.9
29550.5
29579.9
29460
29192.3
28782.3
28241.5
27584
26826.4
25989.2
25097.2
24165.2
23191.8
22177.9
21121
20013.4
18844.7
17604.8
16288.7
14897.2
13435.9
11920.6
10366
8804.03
7250.09
5742.72
4280.78
2680.23
1299.49
-4.37
-1244.98
-2443.05
-3630.45
-4821.07
-6023.31
-7260.95
-8547.01
-9884.02
-11281.4
-12654.5
-14091.7
-15507.3
-16963.3
-18384.1
-19841.9
-21206.6
-22594
-23859.5
-25115.6
-26254.7
-27358.1
-28420.7
-29405.3
-29992.1
-23902.7
-14090.1
-4537.19
-383.864
-52.2957
130.267
184.86
169.68
145.608
122.924
99.9554
78.8219
56.6902
39.0039
30.3967
22.0312
13.6235
5.03565
-2.15746
-9.17096
-13.7876
-17.0044
-28.6178
-41.5615
-73.6405
-723.022
-5454.56
-18215
-27862.3
-29055
-27532.8
-25812
-24221.4
-22377.1
-20518.9
-18660
-16659.7
-14572
-12505.9
-10483.7
-8506.83
-6594.79
-4796.26
-3146.1
-1596.32
-224.286
1050.77
2224.32
3320.14
4348.45
5336.29
6301.31
-7757.92
-7729.85
-7802.25
-7817.05
-7792.35
-7592.13
-7249.18
-6781.3
-6276.26
-5707.01
-5032.24
-4309.89
-3616.32
-2957.87
-2357.67
-1838.52
-1413.54
-1085.93
-838.819
-649.884
-496.329
-349.598
-176.605
50.4452
353.644
746.923
1240.68
1841.18
2555.01
3363.49
4232.21
5148.02
6100.42
7074.72
8037.41
8984.87
9927.08
10871.3
11829.9
12819.2
13850.5
14923
16036.5
17175
18337.4
19508.7
20677.7
21824.1
22912.8
23926.5
24863.6
25726.6
26515.9
27229.5
27864.3
28413.6
28867.6
29212.6
29474.1
29621.7
29649.9
29526.8
29253.8
28836.9
28287.9
27622.1
26856.6
26012.6
25115.5
24178.3
23199.3
22180.2
21118.9
20007.8
18835.4
17590.8
16268.3
14868.8
13397.1
11870.4
10302.1
8728
7161.31
5647.32
4183.93
2577.69
1205.09
-96.5917
-1333.68
-2524.65
-3706.69
-4894.42
-6089.75
-7323.46
-8605.89
-9942.77
-11347.5
-12715.2
-14161.7
-15573.9
-17039.7
-18457.8
-19929.3
-21289.4
-22692.4
-23948.5
-25191.7
-26329.2
-27261.4
-22167.9
-12599.4
-3567.43
-128.222
155.461
310.21
281.871
235.83
211.459
185.859
167.858
144.359
121.926
99.1452
78.0816
55.4347
38.6284
30.6927
22.1271
13.7603
5.20354
-1.94313
-8.84
-12.5405
-14.8496
-25.2019
-44.062
-53.0192
-59.253
-96.2813
-823.765
-6490.42
-19443.8
-26017
-25870.8
-24288.7
-22427.8
-20563.4
-18712.4
-16699.6
-14592.4
-12512.5
-10479
-8488.65
-6561.65
-4751.5
-3096.31
-1540.55
-172.584
1102.13
2269.8
3358.35
4379.64
5360.21
6320.03
-7710.58
-7715.91
-7812.32
-7831.81
-7809.84
-7608.73
-7261.53
-6785.38
-6277.28
-5703.71
-5023.01
-4288.39
-3585.09
-2915.52
-2303.55
-1774.02
-1341.67
-1013.3
-771.724
-591.827
-450.387
-317.368
-158.237
54.342
343.089
722.69
1205.43
1799.33
2513.09
3327.95
4206.36
5131.43
6091.51
7074.45
8042.26
8991.67
9934.09
10876.4
11831.6
12817.5
13847.2
14919.6
16036.3
17179
18347.9
19527
20705
21861.9
22959.3
23979.2
24920.6
25787.2
26579.4
27295.8
27933.3
28485.5
28942
29288.8
29552
29694.8
29722.3
29596.1
29317.8
28893.6
28336.2
27661.4
26887.4
26036.5
25134.4
24192.1
23207.6
22183.1
21117.6
20003.3
18827.3
17578.2
16249.4
14842
13359.7
11821.4
10238.5
8652.17
7071.77
5551.09
4086.55
2474.63
1110.57
-189.196
-1423.08
-2606.22
-3782.9
-4968.55
-6155.64
-7385.68
-8663.39
-10000.3
-11413.7
-12774.2
-14232.4
-15639.1
-17116.4
-18530.6
-20021.6
-21370.5
-22769.1
-24021.9
-22922.7
-13652.3
-4166.77
-7.6568
258.924
400.97
376.67
330.858
309.556
278.149
233.686
207.863
184.015
166.655
143.216
121.136
98.769
78.2288
56.984
40.1756
31.14
22.2676
13.8851
5.3531
-1.80496
-8.77808
-13.595
-17.4093
-27.9671
-41.0743
-48.5769
-59.2967
-72.5472
-77.654
-149.002
-1413.34
-9371.36
-20819.5
-23832.6
-22483
-20610.5
-18767.8
-16742
-14613.6
-12519.9
-10475.1
-8470.6
-6527.69
-4705.22
-3045.02
-1483.7
-118.156
1155.29
2316.58
3397.4
4411.46
5384.36
6338.84
-7656.43
-7702.68
-7824.42
-7847.6
-7828.58
-7626.73
-7275.07
-6789.88
-6278.66
-5700.69
-5014.48
-4267.23
-3554.33
-2873.5
-2249.28
-1708.56
-1267.36
-937.058
-700.443
-530.004
-400.91
-281.902
-137.873
59.3384
332.146
696.647
1167.39
1754.39
2468.52
3290.49
4179.6
5114.58
6082.15
7074.06
8047.1
8998.37
9940.95
10881.1
11832.4
12814.7
13842.5
14914.7
16034.8
17182.1
18357.7
19544.9
20732.2
21900
23006.4
24032.6
24978.6
25848.8
26644.2
27363.3
28003.6
28558.9
29018.1
29367.2
29632.6
29770
29797.2
29668.1
29384.4
28952.7
28386.5
27702.2
26918.9
26060.6
25153.8
24206.6
23216.5
22186.7
21116.9
19999.5
18820.2
17566.9
16231.8
14816.6
13323.3
11773.4
10175.3
8576.41
6981.17
5453.82
3988.47
2370.83
1015.92
-282.353
-1513.44
-2687.8
-3859.21
-5043.85
-6220.87
-7447.86
-8719.37
-10056.7
-11480.4
-12831.3
-14303.8
-15702.8
-17197
-18601.1
-20091.3
-21420.2
-18723.2
-8590.85
-692.231
329.946
533.34
496.077
428.824
400.736
372.944
326.68
305.409
275.35
233.521
208.165
183.529
165.028
142.047
120.228
98.1383
77.7873
56.8146
40.5252
31.4857
22.3943
14.0157
5.50849
-1.62914
-8.55223
-13.1694
-17.126
-26.9816
-42.118
-50.5926
-57.8223
-70.3078
-77.0425
-89.3904
-98.4671
-285.034
-2828.44
-12941.9
-20412
-20667.8
-18827.9
-16790.7
-14635.3
-12527.8
-10472
-8452.77
-6492.89
-4657.34
-2992.11
-1425.38
-61.2311
1210.37
2364.3
3437.64
4443.93
5408.73
6357.71
-7593.98
-7690.49
-7838.61
-7864.4
-7848.72
-7646.23
-7289.91
-6794.82
-6280.47
-5697.87
-5006.58
-4246.33
-3524
-2831.8
-2194.87
-1642.23
-1190.55
-856.943
-624.371
-463.848
-347.293
-242.687
-115.024
65.745
320.896
668.74
1126.46
1706.24
2421.46
3251.41
4152.08
5097.57
6072.44
7073.67
8052.03
9005.03
9947.77
10885.5
11832.6
12810.8
13836.3
14908
16032.1
17184.1
18366.9
19562.5
20759.2
21938.4
23054.3
24087
25037.4
25911.4
26710
27432
28075.3
28633.7
29096.1
29447.7
29715.7
29847.3
29874.6
29742.9
29453.7
29014.3
28438.8
27744.4
26951.4
26085.4
25173.4
24221.7
23226.1
22190.8
21116.7
19996.7
18814.2
17556.9
16215.5
14792.7
13288.1
11726.5
10112.2
8500.73
6889.33
5355.4
3889.84
2266.13
921.111
-376.097
-1604.96
-2769.29
-3935.7
-5120.57
-6285.19
-7510.29
-8773.49
-10112
-11547.3
-12886.4
-14378.8
-15764.5
-17253.9
-18643.7
-16088.1
-6271.83
101.812
558.931
616.36
566.013
531.121
489.937
424.162
396.584
369.471
326.096
303.096
272.577
232.306
206.441
182.342
163.766
140.937
119.408
97.6701
77.7362
57.5166
41.3943
31.8346
22.5384
14.1393
5.64712
-1.50598
-8.49376
-13.6407
-18.278
-27.8429
-40.6951
-49.0754
-58.2042
-70.2814
-75.1419
-87.1554
-93.5739
-96.1843
-130.685
-746.124
-6118.05
-15942.3
-18553.2
-16840.6
-14667.7
-12536.4
-10469.6
-8435.18
-6457.23
-4607.68
-2937.41
-1365.28
-1.93518
1267.38
2413.05
3479.24
4476.92
5433.26
6376.61
-7521.39
-7679.73
-7854.96
-7882.17
-7870.38
-7667.36
-7306.17
-6800.22
-6282.77
-5695.15
-4999.25
-4225.64
-3494.07
-2790.43
-2140.38
-1575.14
-1111.19
-772.746
-543.092
-392.528
-288.848
-199.278
-88.8046
73.8667
309.394
638.888
1082.49
1655.6
2372.13
3210.85
4123.64
5080.27
6062.51
7073.39
8057.17
9011.72
9954.62
10889.7
11832.2
12805.7
13828.6
14899.6
16028.1
17185.3
18375.4
19579.9
20786.2
21977.2
23103
24142.3
25097.3
25975.1
26777.1
27502
28148.3
28710.1
29175.8
29530.3
29801.7
29926.6
29954.5
29820.3
29525.7
29078.4
28493.3
27788.4
26985
26111.1
25193.4
24237.4
23236.2
22195.4
21116.9
19994.6
18809.1
17548.1
16200.5
14770.3
13253.9
11680.7
10049.1
8425.1
6795.96
5255.64
3791.23
2159.66
826.131
-470.513
-1697.91
-2850.61
-4012.58
-5199.05
-6348.34
-7573.21
-8825.18
-10166.5
-11616.8
-12938.8
-14431.7
-15808.5
-14257.5
-5467.5
320.558
722.267
717.355
660.623
612.329
558.532
524.502
484.968
424.197
394.386
365.942
323.505
299.966
269.88
231.489
205.758
181.447
162.324
139.824
118.544
97.1108
77.3993
57.6307
41.8588
32.1374
22.6761
14.2625
5.78941
-1.36206
-8.32599
-13.5185
-18.4218
-27.9217
-40.9327
-49.3253
-57.1719
-68.9469
-75.2702
-86.189
-91.2988
-94.8982
-105.093
-107.544
-234.052
-2215.13
-10833.9
-15750.4
-14694
-12556.1
-10469.6
-8417.38
-6420.51
-4556.08
-2880.95
-1303.17
59.6477
1326.44
2463.23
3521.88
4510.44
5457.92
6395.52
-7433.35
-7670.61
-7874.12
-7901.54
-7894.51
-7691.02
-7324.59
-6806.28
-6285.74
-5692.36
-4992.16
-4204.37
-3463.46
-2747.95
-2083.9
-1505.05
-1026.39
-681.11
-452.781
-312.438
-222.41
-149.03
-57.4722
84.4204
297.304
605.887
1033.79
1599.72
2318.8
3166.94
4093.04
5061.92
6052.14
7073.32
8062.81
9018.75
9961.85
10894