/*--------------------------------*- C++ -*----------------------------------*\
| =========                 |                                                 |
| \\      /  F ield         | OpenFOAM: The Open Source CFD Toolbox           |
|  \\    /   O peration     | Version:  v1912                                 |
|   \\  /    A nd           | Website:  www.openfoam.com                      |
|    \\/     M anipulation  |                                                 |
\*---------------------------------------------------------------------------*/
FoamFile
{
    version     2.0;
    format      ascii;
    class       volScalarField;
    location    "100";
    object      k;
}
// * * * * * * * * * * * * * * * * * * * * * * * * * * * * * * * * * * * * * //

dimensions      [0 2 -2 0 0 0 0];


internalField   nonuniform List<scalar> 
14268
(
5.09545e-07
4.65244e-07
4.00644e-07
3.71231e-07
3.62324e-07
3.60912e-07
3.62461e-07
3.64394e-07
3.65842e-07
3.66688e-07
3.66824e-07
3.66835e-07
3.67694e-07
3.69699e-07
3.72908e-07
3.77551e-07
3.83711e-07
3.91232e-07
4.00044e-07
4.09994e-07
4.20675e-07
4.31708e-07
4.42741e-07
4.53368e-07
4.63033e-07
4.70551e-07
4.76124e-07
4.80656e-07
4.8448e-07
4.86907e-07
4.87468e-07
4.86646e-07
4.84909e-07
4.82583e-07
4.79475e-07
4.7547e-07
4.71169e-07
4.66493e-07
4.61613e-07
4.56744e-07
4.51991e-07
4.4751e-07
4.43855e-07
4.40974e-07
4.38648e-07
4.36669e-07
4.34855e-07
4.33075e-07
4.31407e-07
4.30046e-07
4.29047e-07
4.28484e-07
4.28489e-07
4.29221e-07
4.30757e-07
4.33144e-07
4.36346e-07
4.40232e-07
4.4458e-07
4.49069e-07
4.53391e-07
4.57344e-07
4.6073e-07
4.63518e-07
4.65714e-07
4.67359e-07
4.68611e-07
4.69471e-07
4.69895e-07
4.69886e-07
4.69419e-07
4.68522e-07
4.67344e-07
4.6591e-07
4.64222e-07
4.6255e-07
4.61062e-07
4.59525e-07
4.57681e-07
4.55345e-07
4.52448e-07
4.49022e-07
4.45265e-07
4.41393e-07
4.37709e-07
4.34489e-07
4.3183e-07
4.29856e-07
4.2855e-07
4.27818e-07
4.276e-07
4.28058e-07
4.29089e-07
4.30515e-07
4.32356e-07
4.35066e-07
4.38733e-07
4.43279e-07
4.48394e-07
4.53731e-07
4.58908e-07
4.63692e-07
4.67952e-07
4.71485e-07
4.74253e-07
4.76348e-07
4.77905e-07
4.79004e-07
4.79832e-07
4.80569e-07
4.81279e-07
4.82069e-07
4.83009e-07
4.84068e-07
4.8512e-07
4.8597e-07
4.86401e-07
4.86259e-07
4.85408e-07
4.83877e-07
4.81873e-07
4.79721e-07
4.77467e-07
4.75075e-07
4.72585e-07
4.70078e-07
4.67664e-07
4.65407e-07
4.63332e-07
4.61452e-07
4.59674e-07
4.5798e-07
4.56331e-07
4.54717e-07
4.53172e-07
4.51738e-07
4.50448e-07
4.49313e-07
4.48338e-07
4.47512e-07
4.46798e-07
4.46193e-07
4.46108e-07
4.46731e-07
4.47985e-07
4.49816e-07
4.52086e-07
4.54664e-07
4.57351e-07
4.6013e-07
4.62881e-07
4.65388e-07
4.67594e-07
4.69438e-07
4.70864e-07
4.71867e-07
4.72497e-07
4.72808e-07
4.729e-07
4.72695e-07
4.72148e-07
4.71494e-07
4.71087e-07
4.71113e-07
3.66207e-08
4.40894e-08
6.76304e-08
9.87199e-08
1.28991e-07
1.53136e-07
1.70887e-07
1.83141e-07
1.9107e-07
1.95912e-07
1.98782e-07
2.0045e-07
2.01564e-07
2.02834e-07
2.04506e-07
2.06718e-07
2.09525e-07
2.12933e-07
2.16833e-07
2.21213e-07
2.26048e-07
2.31239e-07
2.36684e-07
2.42317e-07
2.47966e-07
2.53191e-07
2.5771e-07
2.6126e-07
2.63724e-07
2.65209e-07
2.65478e-07
2.64488e-07
2.62399e-07
2.59526e-07
2.55976e-07
2.51895e-07
2.47254e-07
2.42551e-07
2.37894e-07
2.33452e-07
2.29363e-07
2.25732e-07
2.22632e-07
2.201e-07
2.18152e-07
2.16778e-07
2.15951e-07
2.15616e-07
2.157e-07
2.16129e-07
2.16892e-07
2.18015e-07
2.19538e-07
2.215e-07
2.23935e-07
2.2687e-07
2.30303e-07
2.3421e-07
2.38509e-07
2.43153e-07
2.48099e-07
2.52992e-07
2.57879e-07
2.62572e-07
2.67078e-07
2.71399e-07
2.7551e-07
2.79434e-07
2.8319e-07
2.86751e-07
2.90028e-07
2.92907e-07
2.95256e-07
2.9693e-07
2.97777e-07
2.97695e-07
2.96481e-07
2.93988e-07
2.90265e-07
2.85444e-07
2.79636e-07
2.73001e-07
2.65948e-07
2.58953e-07
2.52071e-07
2.45328e-07
2.38936e-07
2.33158e-07
2.28174e-07
2.24051e-07
2.20827e-07
2.18568e-07
2.17341e-07
2.17151e-07
2.18132e-07
2.2009e-07
2.22843e-07
2.26319e-07
2.30337e-07
2.34758e-07
2.39278e-07
2.44108e-07
2.48654e-07
2.5269e-07
2.56198e-07
2.59153e-07
2.61697e-07
2.64067e-07
2.66417e-07
2.6893e-07
2.71813e-07
2.75177e-07
2.79087e-07
2.83507e-07
2.8828e-07
2.93129e-07
2.97681e-07
3.01532e-07
3.04298e-07
3.05689e-07
3.05613e-07
3.04016e-07
3.00974e-07
2.96772e-07
2.91694e-07
2.86047e-07
2.80093e-07
2.7403e-07
2.68021e-07
2.62061e-07
2.56319e-07
2.50748e-07
2.45375e-07
2.40259e-07
2.35472e-07
2.31105e-07
2.27241e-07
2.23972e-07
2.21398e-07
2.19614e-07
2.18663e-07
2.18666e-07
2.19555e-07
2.21265e-07
2.23823e-07
2.27209e-07
2.31387e-07
2.36324e-07
2.4197e-07
2.48217e-07
2.54889e-07
2.61998e-07
2.69288e-07
2.76502e-07
2.83399e-07
2.89699e-07
2.95136e-07
2.99498e-07
3.02612e-07
3.04552e-07
3.05322e-07
3.05335e-07
3.04391e-07
3.02353e-07
2.46803e-09
5.31752e-09
1.08839e-08
1.99501e-08
3.14794e-08
4.3853e-08
5.42596e-08
6.18729e-08
6.69896e-08
7.04323e-08
7.28857e-08
7.47611e-08
7.64249e-08
7.82712e-08
8.04528e-08
8.30814e-08
8.62288e-08
8.99269e-08
9.41207e-08
9.87617e-08
1.03769e-07
1.09001e-07
1.14285e-07
1.19414e-07
1.2415e-07
1.28182e-07
1.31216e-07
1.33047e-07
1.33602e-07
1.32943e-07
1.31039e-07
1.28101e-07
1.24385e-07
1.20128e-07
1.15526e-07
1.10785e-07
1.05977e-07
1.01435e-07
9.72565e-08
9.35409e-08
9.03565e-08
8.77352e-08
8.56797e-08
8.41702e-08
8.31707e-08
8.26319e-08
8.2495e-08
8.27357e-08
8.32473e-08
8.39468e-08
8.48314e-08
8.59164e-08
8.72317e-08
8.88127e-08
9.06947e-08
9.29058e-08
9.54562e-08
9.8336e-08
1.01504e-07
1.04907e-07
1.08503e-07
1.12086e-07
1.15643e-07
1.19071e-07
1.22363e-07
1.25533e-07
1.28616e-07
1.31667e-07
1.34732e-07
1.37827e-07
1.40917e-07
1.43897e-07
1.46613e-07
1.48868e-07
1.50439e-07
1.51103e-07
1.5072e-07
1.49104e-07
1.46292e-07
1.42452e-07
1.37755e-07
1.32412e-07
1.26726e-07
1.21001e-07
1.15382e-07
1.09997e-07
1.05018e-07
1.00593e-07
9.68051e-08
9.36912e-08
9.12722e-08
8.95729e-08
8.86142e-08
8.83831e-08
8.88975e-08
8.99416e-08
9.14927e-08
9.351e-08
9.59018e-08
9.85655e-08
1.01336e-07
1.04203e-07
1.06964e-07
1.09426e-07
1.11551e-07
1.13325e-07
1.14835e-07
1.16225e-07
1.17627e-07
1.19187e-07
1.21054e-07
1.2332e-07
1.26042e-07
1.29207e-07
1.32725e-07
1.36418e-07
1.40019e-07
1.43217e-07
1.45703e-07
1.47214e-07
1.47606e-07
1.46823e-07
1.44835e-07
1.41887e-07
1.38249e-07
1.34188e-07
1.29932e-07
1.25648e-07
1.21469e-07
1.17414e-07
1.13575e-07
1.09941e-07
1.06516e-07
1.03325e-07
1.00396e-07
9.77701e-08
9.54896e-08
9.36014e-08
9.21559e-08
9.12002e-08
9.07432e-08
9.08665e-08
9.14648e-08
9.25112e-08
9.40237e-08
9.60185e-08
9.84933e-08
1.01454e-07
1.04883e-07
1.0874e-07
1.12954e-07
1.17506e-07
1.22263e-07
1.27066e-07
1.31741e-07
1.36077e-07
1.39871e-07
1.42947e-07
1.45162e-07
1.46505e-07
1.46982e-07
1.46819e-07
1.45846e-07
1.44108e-07
8.89941e-10
1.74314e-09
3.53523e-09
6.9167e-09
1.19047e-08
1.83859e-08
2.53769e-08
3.1145e-08
3.52755e-08
3.81037e-08
4.01222e-08
4.16812e-08
4.30413e-08
4.4343e-08
4.57053e-08
4.72241e-08
4.89643e-08
5.09604e-08
5.32034e-08
5.56725e-08
5.83171e-08
6.10546e-08
6.37846e-08
6.63892e-08
6.87388e-08
7.06891e-08
7.2106e-08
7.28814e-08
7.29304e-08
7.22546e-08
7.09154e-08
6.90951e-08
6.69521e-08
6.46329e-08
6.22644e-08
5.99591e-08
5.77698e-08
5.58145e-08
5.41186e-08
5.26997e-08
5.15577e-08
5.06791e-08
5.00424e-08
4.96224e-08
4.93928e-08
4.93252e-08
4.94074e-08
4.96133e-08
4.99167e-08
5.02943e-08
5.07456e-08
5.12772e-08
5.19021e-08
5.26358e-08
5.34954e-08
5.44949e-08
5.56413e-08
5.69323e-08
5.83545e-08
5.98808e-08
6.14901e-08
6.31015e-08
6.47064e-08
6.62614e-08
6.77656e-08
6.92246e-08
7.06634e-08
7.21067e-08
7.35736e-08
7.50729e-08
7.659e-08
7.80804e-08
7.94717e-08
8.06673e-08
8.15567e-08
8.1987e-08
8.18413e-08
8.10264e-08
7.95628e-08
7.75635e-08
7.51522e-08
7.24755e-08
6.96913e-08
6.69452e-08
6.43328e-08
6.19293e-08
5.98016e-08
5.79884e-08
5.64985e-08
5.53227e-08
5.44468e-08
5.38593e-08
5.35485e-08
5.35015e-08
5.3719e-08
5.41377e-08
5.47611e-08
5.55738e-08
5.65431e-08
5.76277e-08
5.87665e-08
5.99376e-08
6.11028e-08
6.21454e-08
6.30558e-08
6.38322e-08
6.45135e-08
6.51617e-08
6.5828e-08
6.65715e-08
6.74572e-08
6.85276e-08
6.98069e-08
7.12899e-08
7.29351e-08
7.46615e-08
7.63465e-08
7.78494e-08
7.90307e-08
7.97745e-08
8.00097e-08
7.96517e-08
7.86645e-08
7.71837e-08
7.53666e-08
7.33611e-08
7.12918e-08
6.9244e-08
6.72816e-08
6.54196e-08
6.36937e-08
6.20959e-08
6.0628e-08
5.92972e-08
5.81094e-08
5.70741e-08
5.62007e-08
5.55002e-08
5.49837e-08
5.46597e-08
5.45238e-08
5.46087e-08
5.4878e-08
5.53279e-08
5.5971e-08
5.68212e-08
5.78861e-08
5.9179e-08
6.07039e-08
6.24483e-08
6.43824e-08
6.65071e-08
6.87601e-08
7.10633e-08
7.33276e-08
7.54441e-08
7.73103e-08
7.88462e-08
7.9982e-08
8.07191e-08
8.10388e-08
8.102e-08
8.05475e-08
7.9631e-08
6.06247e-10
1.08468e-09
2.07228e-09
4.03012e-09
7.14852e-09
1.15183e-08
1.69812e-08
2.21191e-08
2.60739e-08
2.88241e-08
3.07508e-08
3.21414e-08
3.32061e-08
3.40852e-08
3.48926e-08
3.57144e-08
3.66126e-08
3.76223e-08
3.87577e-08
4.00229e-08
4.13947e-08
4.28263e-08
4.42581e-08
4.56188e-08
4.6833e-08
4.78243e-08
4.85302e-08
4.89033e-08
4.89075e-08
4.85556e-08
4.78835e-08
4.69784e-08
4.59253e-08
4.48047e-08
4.36847e-08
4.26196e-08
4.16383e-08
4.07829e-08
4.00602e-08
3.94723e-08
3.90136e-08
3.86736e-08
3.84398e-08
3.82994e-08
3.82385e-08
3.82495e-08
3.83235e-08
3.84507e-08
3.86163e-08
3.88103e-08
3.90335e-08
3.929e-08
3.95864e-08
3.99318e-08
4.03361e-08
4.08092e-08
4.13584e-08
4.19863e-08
4.26904e-08
4.3459e-08
4.42812e-08
4.51218e-08
4.59728e-08
4.6809e-08
4.76287e-08
4.84367e-08
4.92448e-08
5.00661e-08
5.09156e-08
5.18003e-08
5.27126e-08
5.36253e-08
5.44901e-08
5.52422e-08
5.58042e-08
5.60915e-08
5.60433e-08
5.56092e-08
5.47966e-08
5.36779e-08
5.23348e-08
5.086e-08
4.93426e-08
4.78636e-08
4.6483e-08
4.52395e-08
4.41601e-08
4.32582e-08
4.25322e-08
4.1974e-08
4.15738e-08
4.13225e-08
4.12075e-08
4.12282e-08
4.13644e-08
4.15799e-08
4.18788e-08
4.22598e-08
4.27141e-08
4.3225e-08
4.37679e-08
4.43251e-08
4.48877e-08
4.53835e-08
4.58063e-08
4.61594e-08
4.64655e-08
4.67638e-08
4.70777e-08
4.74388e-08
4.7885e-08
4.8443e-08
4.91305e-08
4.99492e-08
5.08816e-08
5.18861e-08
5.28936e-08
5.38132e-08
5.45508e-08
5.50203e-08
5.51675e-08
5.49668e-08
5.44099e-08
5.358e-08
5.25736e-08
5.14783e-08
5.03662e-08
4.92835e-08
4.82624e-08
4.7315e-08
4.64522e-08
4.56657e-08
4.49559e-08
4.43249e-08
4.37733e-08
4.33033e-08
4.29177e-08
4.26211e-08
4.24171e-08
4.23056e-08
4.22849e-08
4.2366e-08
4.25158e-08
4.27308e-08
4.30192e-08
4.33922e-08
4.38592e-08
4.44349e-08
4.51351e-08
4.59559e-08
4.68899e-08
4.79539e-08
4.91215e-08
5.0355e-08
5.16068e-08
5.28066e-08
5.38834e-08
5.47747e-08
5.54212e-08
5.58118e-08
5.59414e-08
5.58712e-08
5.55318e-08
5.49197e-08
5.14205e-10
8.87065e-10
1.64487e-09
3.16625e-09
5.66614e-09
9.30326e-09
1.40985e-08
1.9228e-08
2.34461e-08
2.64955e-08
2.86248e-08
3.00983e-08
3.10976e-08
3.17939e-08
3.23265e-08
3.27921e-08
3.325e-08
3.37388e-08
3.42786e-08
3.48902e-08
3.55786e-08
3.63232e-08
3.70938e-08
3.78465e-08
3.85322e-08
3.91008e-08
3.95141e-08
3.9745e-08
3.97736e-08
3.96116e-08
3.92783e-08
3.88283e-08
3.83113e-08
3.77725e-08
3.72503e-08
3.67731e-08
3.63568e-08
3.60177e-08
3.57555e-08
3.5567e-08
3.54442e-08
3.53773e-08
3.53548e-08
3.53696e-08
3.54134e-08
3.54792e-08
3.5563e-08
3.56615e-08
3.57683e-08
3.58822e-08
3.60042e-08
3.6136e-08
3.62798e-08
3.6442e-08
3.66246e-08
3.68344e-08
3.70785e-08
3.7359e-08
3.76775e-08
3.8031e-08
3.8417e-08
3.88205e-08
3.92389e-08
3.9658e-08
4.00759e-08
4.04947e-08
4.09186e-08
4.13553e-08
4.18114e-08
4.22889e-08
4.27822e-08
4.3276e-08
4.37442e-08
4.4151e-08
4.44548e-08
4.46093e-08
4.45743e-08
4.43214e-08
4.38606e-08
4.3239e-08
4.25109e-08
4.17357e-08
4.09662e-08
4.02486e-08
3.9617e-08
3.90855e-08
3.86611e-08
3.83437e-08
3.81237e-08
3.79883e-08
3.79229e-08
3.79145e-08
3.79548e-08
3.80313e-08
3.8127e-08
3.82376e-08
3.83665e-08
3.85177e-08
3.86937e-08
3.88895e-08
3.90981e-08
3.93113e-08
3.95333e-08
3.97326e-08
3.98933e-08
4.00257e-08
4.01452e-08
4.02753e-08
4.04206e-08
4.05914e-08
4.08051e-08
4.10719e-08
4.13992e-08
4.17858e-08
4.22221e-08
4.26875e-08
4.31473e-08
4.35594e-08
4.38823e-08
4.40799e-08
4.41307e-08
4.40066e-08
4.37017e-08
4.32673e-08
4.27591e-08
4.22257e-08
4.17046e-08
4.12172e-08
4.07766e-08
4.03892e-08
4.0056e-08
3.97687e-08
3.95269e-08
3.93312e-08
3.91798e-08
3.90716e-08
3.90038e-08
3.89728e-08
3.89783e-08
3.90128e-08
3.90699e-08
3.9147e-08
3.92345e-08
3.93315e-08
3.9442e-08
3.95758e-08
3.97388e-08
3.99437e-08
4.02054e-08
4.05248e-08
4.08963e-08
4.13387e-08
4.18388e-08
4.23769e-08
4.29291e-08
4.34577e-08
4.39272e-08
4.43108e-08
4.45835e-08
4.4753e-08
4.48203e-08
4.4798e-08
4.46236e-08
4.42831e-08
4.63238e-10
7.8342e-10
1.43002e-09
2.73298e-09
4.90588e-09
8.13257e-09
1.24732e-08
1.76142e-08
2.22098e-08
2.57537e-08
2.82616e-08
2.9941e-08
3.09935e-08
3.16696e-08
3.21282e-08
3.24799e-08
3.27877e-08
3.30878e-08
3.33931e-08
3.37171e-08
3.40655e-08
3.44484e-08
3.48601e-08
3.52774e-08
3.5671e-08
3.60073e-08
3.6261e-08
3.64096e-08
3.6441e-08
3.63662e-08
3.61966e-08
3.59652e-08
3.57038e-08
3.54407e-08
3.51981e-08
3.4992e-08
3.48305e-08
3.47201e-08
3.46577e-08
3.46376e-08
3.46535e-08
3.46952e-08
3.47547e-08
3.48262e-08
3.4905e-08
3.49877e-08
3.50729e-08
3.51595e-08
3.52446e-08
3.53291e-08
3.54144e-08
3.55011e-08
3.55886e-08
3.56828e-08
3.57782e-08
3.5877e-08
3.59864e-08
3.61098e-08
3.62487e-08
3.64036e-08
3.65784e-08
3.67666e-08
3.69718e-08
3.71877e-08
3.74139e-08
3.76494e-08
3.78967e-08
3.81585e-08
3.8437e-08
3.87317e-08
3.90388e-08
3.9348e-08
3.96416e-08
3.98959e-08
4.00832e-08
4.01775e-08
4.01568e-08
4.00049e-08
3.97296e-08
3.9365e-08
3.89468e-08
3.85113e-08
3.80934e-08
3.77198e-08
3.74102e-08
3.71681e-08
3.69944e-08
3.68871e-08
3.68373e-08
3.68355e-08
3.68725e-08
3.6938e-08
3.70243e-08
3.71173e-08
3.72053e-08
3.72828e-08
3.73506e-08
3.74121e-08
3.74745e-08
3.75414e-08
3.76103e-08
3.76797e-08
3.77546e-08
3.78314e-08
3.78833e-08
3.79206e-08
3.79577e-08
3.80127e-08
3.80837e-08
3.81738e-08
3.82918e-08
3.84424e-08
3.86278e-08
3.88479e-08
3.90986e-08
3.93702e-08
3.9643e-08
3.98902e-08
4.00825e-08
4.01936e-08
4.02094e-08
4.0122e-08
3.99362e-08
3.96842e-08
3.94006e-08
3.91142e-08
3.88457e-08
3.86036e-08
3.83944e-08
3.8221e-08
3.80807e-08
3.79659e-08
3.78763e-08
3.78129e-08
3.77749e-08
3.77619e-08
3.7775e-08
3.78129e-08
3.7871e-08
3.79436e-08
3.80253e-08
3.81102e-08
3.81852e-08
3.82466e-08
3.82963e-08
3.83412e-08
3.83865e-08
3.8443e-08
3.85249e-08
3.86362e-08
3.87737e-08
3.89577e-08
3.91858e-08
3.94509e-08
3.97421e-08
4.00365e-08
4.03051e-08
4.05243e-08
4.06706e-08
4.07429e-08
4.07448e-08
4.06904e-08
4.05343e-08
4.02673e-08
4.19776e-10
6.97248e-10
1.25653e-09
2.38491e-09
4.28624e-09
7.15709e-09
1.10894e-08
1.608e-08
2.10848e-08
2.51803e-08
2.81779e-08
3.0286e-08
3.17098e-08
3.25103e-08
3.29128e-08
3.31338e-08
3.33022e-08
3.34461e-08
3.35915e-08
3.3769e-08
3.39859e-08
3.42278e-08
3.44886e-08
3.47477e-08
3.49845e-08
3.51815e-08
3.53299e-08
3.54171e-08
3.5433e-08
3.53833e-08
3.52783e-08
3.51432e-08
3.4995e-08
3.48545e-08
3.47325e-08
3.46397e-08
3.45808e-08
3.45596e-08
3.45733e-08
3.46176e-08
3.46872e-08
3.47788e-08
3.48815e-08
3.4988e-08
3.50919e-08
3.51895e-08
3.52796e-08
3.53624e-08
3.54372e-08
3.55063e-08
3.55725e-08
3.56365e-08
3.56988e-08
3.57629e-08
3.5823e-08
3.58822e-08
3.59473e-08
3.60178e-08
3.60942e-08
3.6176e-08
3.62684e-08
3.6365e-08
3.64708e-08
3.65834e-08
3.67053e-08
3.68404e-08
3.69906e-08
3.71559e-08
3.73342e-08
3.75211e-08
3.7711e-08
3.78975e-08
3.80703e-08
3.82147e-08
3.83148e-08
3.83566e-08
3.83246e-08
3.82055e-08
3.80101e-08
3.77626e-08
3.74881e-08
3.72145e-08
3.69643e-08
3.67565e-08
3.66045e-08
3.65076e-08
3.64637e-08
3.64723e-08
3.65234e-08
3.66073e-08
3.67148e-08
3.6837e-08
3.69613e-08
3.70786e-08
3.71769e-08
3.72525e-08
3.73059e-08
3.7338e-08
3.73569e-08
3.73705e-08
3.73761e-08
3.7375e-08
3.73692e-08
3.73697e-08
3.73635e-08
3.7351e-08
3.73491e-08
3.73723e-08
3.7415e-08
3.74755e-08
3.75554e-08
3.76526e-08
3.77636e-08
3.78857e-08
3.80162e-08
3.81498e-08
3.82767e-08
3.83858e-08
3.84626e-08
3.84918e-08
3.84677e-08
3.83821e-08
3.82446e-08
3.80791e-08
3.79076e-08
3.7747e-08
3.76091e-08
3.7501e-08
3.74193e-08
3.73668e-08
3.73398e-08
3.7328e-08
3.73334e-08
3.73581e-08
3.74019e-08
3.74648e-08
3.7548e-08
3.76477e-08
3.77597e-08
3.78747e-08
3.79835e-08
3.80821e-08
3.81598e-08
3.82134e-08
3.82442e-08
3.8257e-08
3.82557e-08
3.82473e-08
3.82425e-08
3.82498e-08
3.82658e-08
3.8303e-08
3.8361e-08
3.84391e-08
3.85349e-08
3.86338e-08
3.87186e-08
3.87753e-08
3.87973e-08
3.87945e-08
3.87588e-08
3.87139e-08
3.86091e-08
3.84276e-08
3.76618e-10
6.11996e-10
1.08549e-09
2.04202e-09
3.67277e-09
6.18506e-09
9.718e-09
1.43569e-08
1.96627e-08
2.42943e-08
2.78581e-08
3.04625e-08
3.23701e-08
3.37344e-08
3.45124e-08
3.47611e-08
3.47815e-08
3.47271e-08
3.46402e-08
3.45817e-08
3.45813e-08
3.46428e-08
3.47649e-08
3.49187e-08
3.50736e-08
3.52054e-08
3.53013e-08
3.53479e-08
3.53429e-08
3.52877e-08
3.51962e-08
3.50896e-08
3.49772e-08
3.48762e-08
3.48004e-08
3.47616e-08
3.47661e-08
3.48186e-08
3.49174e-08
3.50571e-08
3.52274e-08
3.54135e-08
3.56002e-08
3.57759e-08
3.59313e-08
3.60619e-08
3.61682e-08
3.62525e-08
3.63182e-08
3.6369e-08
3.64091e-08
3.64422e-08
3.64672e-08
3.64761e-08
3.64716e-08
3.64587e-08
3.64429e-08
3.64281e-08
3.64194e-08
3.64206e-08
3.64403e-08
3.64732e-08
3.65251e-08
3.65944e-08
3.6681e-08
3.6784e-08
3.69048e-08
3.70428e-08
3.7194e-08
3.73514e-08
3.75056e-08
3.76494e-08
3.77721e-08
3.78604e-08
3.79036e-08
3.7899e-08
3.78334e-08
3.77025e-08
3.75218e-08
3.73116e-08
3.70916e-08
3.68834e-08
3.67026e-08
3.65632e-08
3.64738e-08
3.64316e-08
3.64347e-08
3.64829e-08
3.65714e-08
3.66932e-08
3.6839e-08
3.69972e-08
3.71556e-08
3.73039e-08
3.74251e-08
3.7509e-08
3.75506e-08
3.75514e-08
3.75317e-08
3.74999e-08
3.74607e-08
3.74189e-08
3.73763e-08
3.73394e-08
3.73078e-08
3.72721e-08
3.72521e-08
3.72605e-08
3.72945e-08
3.73509e-08
3.74275e-08
3.75174e-08
3.76131e-08
3.77096e-08
3.78023e-08
3.78848e-08
3.79502e-08
3.79906e-08
3.80009e-08
3.79781e-08
3.79176e-08
3.78232e-08
3.76991e-08
3.7571e-08
3.74484e-08
3.73469e-08
3.72697e-08
3.72243e-08
3.71994e-08
3.71944e-08
3.72054e-08
3.72235e-08
3.72502e-08
3.72885e-08
3.734e-08
3.74081e-08
3.74963e-08
3.76064e-08
3.77332e-08
3.78675e-08
3.79992e-08
3.81236e-08
3.82205e-08
3.82817e-08
3.83067e-08
3.83026e-08
3.8279e-08
3.82455e-08
3.8213e-08
3.81871e-08
3.81683e-08
3.81626e-08
3.81671e-08
3.81799e-08
3.81997e-08
3.82277e-08
3.82518e-08
3.82584e-08
3.82414e-08
3.82037e-08
3.81254e-08
3.80529e-08
3.79343e-08
3.77565e-08
3.31968e-10
5.24527e-10
9.11163e-10
1.69252e-09
3.03795e-09
5.15178e-09
8.22253e-09
1.23537e-08
1.75296e-08
2.26659e-08
2.69377e-08
3.01872e-08
3.25508e-08
3.43708e-08
3.5727e-08
3.64954e-08
3.67891e-08
3.67745e-08
3.65391e-08
3.61659e-08
3.58132e-08
3.55878e-08
3.54927e-08
3.54735e-08
3.54931e-08
3.55308e-08
3.55611e-08
3.55672e-08
3.55411e-08
3.54797e-08
3.54009e-08
3.53257e-08
3.52637e-08
3.52326e-08
3.52427e-08
3.53055e-08
3.54271e-08
3.56089e-08
3.58453e-08
3.61242e-08
3.64264e-08
3.67294e-08
3.7013e-08
3.72607e-08
3.74613e-08
3.76095e-08
3.77108e-08
3.77738e-08
3.78095e-08
3.78248e-08
3.78279e-08
3.78297e-08
3.7824e-08
3.77955e-08
3.77459e-08
3.76691e-08
3.75623e-08
3.7436e-08
3.73012e-08
3.71714e-08
3.70693e-08
3.70003e-08
3.69643e-08
3.69599e-08
3.69873e-08
3.70468e-08
3.71362e-08
3.72513e-08
3.7385e-08
3.75267e-08
3.76647e-08
3.77903e-08
3.78924e-08
3.79576e-08
3.79767e-08
3.79484e-08
3.78598e-08
3.77131e-08
3.75235e-08
3.73119e-08
3.70983e-08
3.69037e-08
3.67444e-08
3.66349e-08
3.65851e-08
3.65938e-08
3.66616e-08
3.67877e-08
3.69614e-08
3.71714e-08
3.74017e-08
3.76307e-08
3.78358e-08
3.80056e-08
3.81365e-08
3.82204e-08
3.82456e-08
3.81755e-08
3.8084e-08
3.79807e-08
3.78692e-08
3.77613e-08
3.76635e-08
3.75775e-08
3.75091e-08
3.74484e-08
3.74121e-08
3.7411e-08
3.74487e-08
3.75203e-08
3.76147e-08
3.77177e-08
3.78179e-08
3.79086e-08
3.79871e-08
3.80448e-08
3.80743e-08
3.80714e-08
3.8034e-08
3.79648e-08
3.78635e-08
3.77406e-08
3.76018e-08
3.74777e-08
3.73682e-08
3.72892e-08
3.72378e-08
3.72189e-08
3.72208e-08
3.72444e-08
3.72856e-08
3.73366e-08
3.73988e-08
3.74774e-08
3.7576e-08
3.77004e-08
3.78566e-08
3.80455e-08
3.8254e-08
3.84629e-08
3.86504e-08
3.88047e-08
3.89134e-08
3.89731e-08
3.89815e-08
3.89401e-08
3.88605e-08
3.87529e-08
3.86337e-08
3.85176e-08
3.84147e-08
3.83261e-08
3.82535e-08
3.81983e-08
3.81567e-08
3.81151e-08
3.80657e-08
3.80028e-08
3.79195e-08
3.78319e-08
3.77219e-08
3.7638e-08
3.75261e-08
3.73673e-08
2.85394e-10
4.35034e-10
7.36694e-10
1.34498e-09
2.3955e-09
4.07144e-09
6.56945e-09
1.00604e-08
1.46887e-08
2.01099e-08
2.50522e-08
2.91122e-08
3.22216e-08
3.44792e-08
3.62307e-08
3.75564e-08
3.83305e-08
3.85923e-08
3.85875e-08
3.83697e-08
3.79205e-08
3.73497e-08
3.68886e-08
3.65896e-08
3.6411e-08
3.63065e-08
3.62385e-08
3.61813e-08
3.61225e-08
3.60594e-08
3.60077e-08
3.59832e-08
3.59936e-08
3.60528e-08
3.61713e-08
3.63565e-08
3.66103e-08
3.69177e-08
3.72635e-08
3.76283e-08
3.79883e-08
3.83189e-08
3.85999e-08
3.88183e-08
3.89686e-08
3.90545e-08
3.90896e-08
3.90879e-08
3.90628e-08
3.90255e-08
3.89914e-08
3.89686e-08
3.89532e-08
3.89403e-08
3.89198e-08
3.88787e-08
3.88072e-08
3.87015e-08
3.85614e-08
3.83892e-08
3.8201e-08
3.80116e-08
3.78523e-08
3.77364e-08
3.76718e-08
3.76595e-08
3.77001e-08
3.77816e-08
3.78861e-08
3.79999e-08
3.81088e-08
3.82016e-08
3.82669e-08
3.82933e-08
3.8276e-08
3.82065e-08
3.80833e-08
3.79117e-08
3.77075e-08
3.74933e-08
3.72916e-08
3.71233e-08
3.70066e-08
3.69566e-08
3.69818e-08
3.70782e-08
3.72407e-08
3.74615e-08
3.77253e-08
3.80146e-08
3.82945e-08
3.85389e-08
3.87387e-08
3.89004e-08
3.90259e-08
3.91054e-08
3.91253e-08
3.903e-08
3.88509e-08
3.86574e-08
3.84585e-08
3.82634e-08
3.80829e-08
3.79253e-08
3.77989e-08
3.77053e-08
3.76539e-08
3.76516e-08
3.77028e-08
3.77975e-08
3.79223e-08
3.80549e-08
3.81701e-08
3.82579e-08
3.83186e-08
3.83533e-08
3.83539e-08
3.83137e-08
3.82325e-08
3.81223e-08
3.79841e-08
3.78348e-08
3.76812e-08
3.75538e-08
3.7454e-08
3.73978e-08
3.73822e-08
3.74082e-08
3.74666e-08
3.75483e-08
3.7646e-08
3.77512e-08
3.78644e-08
3.79902e-08
3.8131e-08
3.82918e-08
3.84786e-08
3.86877e-08
3.89042e-08
3.9117e-08
3.93088e-08
3.94754e-08
3.95865e-08
3.96363e-08
3.96284e-08
3.95704e-08
3.94656e-08
3.93246e-08
3.91626e-08
3.89949e-08
3.88399e-08
3.87001e-08
3.85738e-08
3.84583e-08
3.83556e-08
3.82551e-08
3.8151e-08
3.80363e-08
3.79138e-08
3.77906e-08
3.76451e-08
3.75303e-08
3.73953e-08
3.72334e-08
2.38023e-10
3.49933e-10
5.74903e-10
1.02477e-09
1.79878e-09
3.03937e-09
4.91732e-09
7.63072e-09
1.13743e-08
1.63579e-08
2.18993e-08
2.68465e-08
3.09126e-08
3.40164e-08
3.6249e-08
3.7924e-08
3.91882e-08
3.98066e-08
4.00195e-08
4.00289e-08
3.98327e-08
3.94082e-08
3.88626e-08
3.83596e-08
3.79518e-08
3.76425e-08
3.74283e-08
3.72844e-08
3.71848e-08
3.71221e-08
3.71007e-08
3.71184e-08
3.71746e-08
3.72649e-08
3.73888e-08
3.75474e-08
3.77408e-08
3.79787e-08
3.82565e-08
3.85572e-08
3.88587e-08
3.91379e-08
3.93752e-08
3.95558e-08
3.96714e-08
3.97241e-08
3.97213e-08
3.9681e-08
3.9624e-08
3.95651e-08
3.95189e-08
3.94955e-08
3.94932e-08
3.95085e-08
3.95333e-08
3.95527e-08
3.95526e-08
3.95234e-08
3.946e-08
3.93625e-08
3.92424e-08
3.9115e-08
3.89939e-08
3.8891e-08
3.88173e-08
3.87782e-08
3.87735e-08
3.88017e-08
3.88495e-08
3.89052e-08
3.89611e-08
3.90064e-08
3.9021e-08
3.89959e-08
3.89179e-08
3.87896e-08
3.86178e-08
3.84103e-08
3.81849e-08
3.79681e-08
3.7783e-08
3.76531e-08
3.75966e-08
3.76271e-08
3.77551e-08
3.79685e-08
3.82027e-08
3.84311e-08
3.86402e-08
3.8823e-08
3.89893e-08
3.91487e-08
3.93078e-08
3.94711e-08
3.96147e-08
3.97158e-08
3.97657e-08
3.97351e-08
3.95359e-08
3.92729e-08
3.9002e-08
3.87309e-08
3.84746e-08
3.82498e-08
3.80707e-08
3.79464e-08
3.7884e-08
3.78896e-08
3.79693e-08
3.8109e-08
3.83028e-08
3.85215e-08
3.87196e-08
3.88667e-08
3.89436e-08
3.89433e-08
3.88747e-08
3.87509e-08
3.85933e-08
3.8432e-08
3.82632e-08
3.80946e-08
3.79363e-08
3.7818e-08
3.77487e-08
3.77408e-08
3.77902e-08
3.78902e-08
3.8024e-08
3.81761e-08
3.83352e-08
3.84922e-08
3.86482e-08
3.88073e-08
3.89753e-08
3.91633e-08
3.9383e-08
3.96274e-08
3.98819e-08
4.01326e-08
4.03565e-08
4.05405e-08
4.06504e-08
4.06717e-08
4.05884e-08
4.04222e-08
4.02141e-08
3.99936e-08
3.97638e-08
3.95355e-08
3.93177e-08
3.91204e-08
3.89373e-08
3.87657e-08
3.86052e-08
3.84488e-08
3.82883e-08
3.81188e-08
3.7949e-08
3.77801e-08
3.7597e-08
3.74581e-08
3.73019e-08
3.71347e-08
1.92952e-10
2.71519e-10
4.29476e-10
7.41378e-10
1.27171e-09
2.12023e-09
3.4174e-09
5.33568e-09
8.08429e-09
1.19172e-08
1.71333e-08
2.28832e-08
2.80818e-08
3.23597e-08
3.55802e-08
3.78631e-08
3.94637e-08
4.04664e-08
4.0949e-08
4.11318e-08
4.11011e-08
4.08396e-08
4.03867e-08
3.98869e-08
3.94613e-08
3.91006e-08
3.87988e-08
3.85475e-08
3.83358e-08
3.81599e-08
3.80101e-08
3.78814e-08
3.77766e-08
3.77075e-08
3.76887e-08
3.77308e-08
3.78414e-08
3.80188e-08
3.82521e-08
3.85191e-08
3.87962e-08
3.90623e-08
3.92975e-08
3.94848e-08
3.96124e-08
3.96777e-08
3.96868e-08
3.96525e-08
3.96035e-08
3.95569e-08
3.95276e-08
3.95222e-08
3.95439e-08
3.95937e-08
3.96618e-08
3.97322e-08
3.97913e-08
3.98301e-08
3.98431e-08
3.98201e-08
3.97724e-08
3.97238e-08
3.96866e-08
3.96773e-08
3.97072e-08
3.97852e-08
3.99101e-08
4.00685e-08
4.02218e-08
4.03382e-08
4.03986e-08
4.03946e-08
4.03274e-08
4.01943e-08
4.00148e-08
3.98001e-08
3.95572e-08
3.92988e-08
3.90476e-08
3.88312e-08
3.86778e-08
3.86151e-08
3.86169e-08
3.86587e-08
3.86985e-08
3.86965e-08
3.87029e-08
3.87368e-08
3.87994e-08
3.88923e-08
3.90129e-08
3.91613e-08
3.93452e-08
3.95556e-08
3.97505e-08
3.9907e-08
4.00194e-08
4.00882e-08
3.99829e-08
3.97099e-08
3.9387e-08
3.90571e-08
3.87415e-08
3.84632e-08
3.82425e-08
3.8095e-08
3.8031e-08
3.80559e-08
3.81751e-08
3.83725e-08
3.86311e-08
3.89135e-08
3.91759e-08
3.93863e-08
3.9519e-08
3.95663e-08
3.95327e-08
3.94142e-08
3.92246e-08
3.90108e-08
3.87868e-08
3.8583e-08
3.84189e-08
3.83177e-08
3.82904e-08
3.83392e-08
3.84576e-08
3.86186e-08
3.87976e-08
3.89736e-08
3.91331e-08
3.92698e-08
3.93912e-08
3.9513e-08
3.96489e-08
3.98141e-08
4.00157e-08
4.02503e-08
4.051e-08
4.07822e-08
4.10457e-08
4.12913e-08
4.14801e-08
4.1584e-08
4.15646e-08
4.13986e-08
4.11176e-08
4.07674e-08
4.04201e-08
4.01028e-08
3.98096e-08
3.95416e-08
3.92954e-08
3.90686e-08
3.88575e-08
3.86548e-08
3.84468e-08
3.82285e-08
3.80096e-08
3.77911e-08
3.75642e-08
3.7388e-08
3.71969e-08
3.7032e-08
1.50592e-10
2.00601e-10
3.02762e-10
5.00003e-10
8.26378e-10
1.33977e-09
2.12297e-09
3.30115e-09
5.05332e-09
7.62795e-09
1.13277e-08
1.66435e-08
2.28502e-08
2.86096e-08
3.33291e-08
3.6912e-08
3.92942e-08
4.06605e-08
4.14636e-08
4.1885e-08
4.19813e-08
4.18002e-08
4.13528e-08
4.07822e-08
4.02628e-08
3.98126e-08
3.94168e-08
3.90654e-08
3.87417e-08
3.84534e-08
3.81933e-08
3.79609e-08
3.77703e-08
3.76219e-08
3.75201e-08
3.74672e-08
3.74596e-08
3.7506e-08
3.75899e-08
3.77003e-08
3.78264e-08
3.79595e-08
3.80899e-08
3.82114e-08
3.83166e-08
3.84002e-08
3.84606e-08
3.85026e-08
3.85406e-08
3.85964e-08
3.86761e-08
3.87869e-08
3.89313e-08
3.91081e-08
3.9305e-08
3.95027e-08
3.96772e-08
3.98069e-08
3.98851e-08
3.99138e-08
3.99074e-08
3.99003e-08
3.99098e-08
3.99574e-08
4.0072e-08
4.02609e-08
4.05258e-08
4.08514e-08
4.11981e-08
4.15097e-08
4.17491e-08
4.18843e-08
4.19028e-08
4.18025e-08
4.15712e-08
4.12534e-08
4.09079e-08
4.05698e-08
4.02532e-08
3.99649e-08
3.9703e-08
3.94508e-08
3.92111e-08
3.89869e-08
3.87985e-08
3.86619e-08
3.85561e-08
3.84764e-08
3.84244e-08
3.84031e-08
3.84248e-08
3.85155e-08
3.8708e-08
3.898e-08
3.92893e-08
3.96087e-08
3.98918e-08
4.00916e-08
4.0138e-08
3.9943e-08
3.96182e-08
3.92583e-08
3.89027e-08
3.8584e-08
3.83299e-08
3.81678e-08
3.8106e-08
3.81535e-08
3.83199e-08
3.85874e-08
3.89277e-08
3.92901e-08
3.96193e-08
3.98761e-08
4.0035e-08
4.00883e-08
4.00429e-08
3.98998e-08
3.96783e-08
3.94106e-08
3.91321e-08
3.88809e-08
3.86778e-08
3.85444e-08
3.84929e-08
3.85201e-08
3.86161e-08
3.87522e-08
3.89014e-08
3.90433e-08
3.91663e-08
3.92672e-08
3.9353e-08
3.9436e-08
3.95341e-08
3.96675e-08
3.98495e-08
4.00861e-08
4.03757e-08
4.07123e-08
4.10649e-08
4.14119e-08
4.17217e-08
4.19617e-08
4.2097e-08
4.21056e-08
4.19486e-08
4.16445e-08
4.12392e-08
4.08038e-08
4.04029e-08
4.0043e-08
3.97132e-08
3.94139e-08
3.91377e-08
3.88732e-08
3.86065e-08
3.83324e-08
3.80618e-08
3.77964e-08
3.7529e-08
3.73103e-08
3.71078e-08
3.69155e-08
1.23198e-10
1.56468e-10
2.26125e-10
3.57253e-10
5.67258e-10
8.90225e-10
1.3793e-09
2.12147e-09
3.2541e-09
4.98695e-09
7.58868e-09
1.14139e-08
1.69079e-08
2.36922e-08
2.9794e-08
3.47232e-08
3.82764e-08
4.04512e-08
4.1567e-08
4.2194e-08
4.24414e-08
4.23363e-08
4.18959e-08
4.12561e-08
4.06418e-08
4.01102e-08
3.96429e-08
3.92296e-08
3.88474e-08
3.85063e-08
3.82042e-08
3.79404e-08
3.76973e-08
3.74726e-08
3.72853e-08
3.71265e-08
3.69853e-08
3.68762e-08
3.67704e-08
3.66415e-08
3.64558e-08
3.61888e-08
3.5852e-08
3.55097e-08
3.52465e-08
3.51267e-08
3.51853e-08
3.53867e-08
3.56349e-08
3.59374e-08
3.62808e-08
3.66653e-08
3.70921e-08
3.75547e-08
3.80368e-08
3.8515e-08
3.89562e-08
3.9319e-08
3.95822e-08
3.97375e-08
3.98068e-08
3.98497e-08
3.98911e-08
3.99662e-08
4.01098e-08
4.03399e-08
4.06665e-08
4.10867e-08
4.15576e-08
4.20038e-08
4.23693e-08
4.26163e-08
4.27166e-08
4.26772e-08
4.2484e-08
4.21597e-08
4.1764e-08
4.13403e-08
4.09114e-08
4.04871e-08
4.00713e-08
3.96725e-08
3.93039e-08
3.89955e-08
3.87611e-08
3.85388e-08
3.83151e-08
3.80933e-08
3.78507e-08
3.75587e-08
3.72271e-08
3.69386e-08
3.68056e-08
3.69961e-08
3.75182e-08
3.8209e-08
3.89098e-08
3.95013e-08
3.99133e-08
3.9945e-08
3.96655e-08
3.93109e-08
3.89427e-08
3.86063e-08
3.83297e-08
3.81507e-08
3.80862e-08
3.81448e-08
3.8338e-08
3.86496e-08
3.90516e-08
3.94952e-08
3.99087e-08
4.02285e-08
4.04158e-08
4.04633e-08
4.03875e-08
4.02005e-08
3.99286e-08
3.96037e-08
3.92742e-08
3.89799e-08
3.87394e-08
3.8575e-08
3.85026e-08
3.85179e-08
3.86045e-08
3.87317e-08
3.88705e-08
3.89979e-08
3.9099e-08
3.91653e-08
3.9204e-08
3.923e-08
3.92565e-08
3.92984e-08
3.9362e-08
3.9451e-08
3.95794e-08
3.97892e-08
4.01193e-08
4.05965e-08
4.11372e-08
4.16455e-08
4.20226e-08
4.22076e-08
4.22014e-08
4.20382e-08
4.17281e-08
4.12917e-08
4.08263e-08
4.04023e-08
4.00162e-08