/*--------------------------------*- C++ -*----------------------------------*\
| =========                 |                                                 |
| \\      /  F ield         | OpenFOAM: The Open Source CFD Toolbox           |
|  \\    /   O peration     | Version:  v1912                                 |
|   \\  /    A nd           | Website:  www.openfoam.com                      |
|    \\/     M anipulation  |                                                 |
\*---------------------------------------------------------------------------*/
FoamFile
{
    version     2.0;
    format      ascii;
    class       surfaceScalarField;
    location    "60";
    object      alphaPhi0.water;
}
// * * * * * * * * * * * * * * * * * * * * * * * * * * * * * * * * * * * * * //

dimensions      [0 3 -1 0 0 0 0];
oriented        oriented;


internalField   nonuniform List<scalar> 
28285
(
1.61503e-09
7.01636e-11
2.08429e-09
-3.72469e-10
2.62802e-09
-1.00184e-10
3.01877e-09
-9.16858e-11
3.24614e-09
-8.67497e-11
4.18564e-09
-1.07101e-10
6.00837e-09
-1.71714e-10
1.64165e-08
2.08606e-10
5.71701e-08
3.60932e-09
4.26244e-08
1.23717e-08
3.51673e-08
9.63105e-09
3.20068e-08
2.58339e-10
3.13023e-08
-1.41909e-09
3.26108e-08
-1.8816e-09
3.4616e-08
-1.78251e-09
3.74666e-08
-1.56567e-09
4.10061e-08
-1.23838e-09
4.35153e-08
-8.39123e-10
4.35156e-08
-5.94739e-10
4.36748e-08
-5.07043e-10
4.59707e-08
-4.47875e-10
5.47012e-08
-1.63989e-10
8.25533e-08
1.35595e-09
8.19429e-08
4.66792e-09
7.48506e-08
7.54108e-09
7.22486e-08
2.15324e-09
7.19994e-08
-3.10956e-09
4.47149e-08
-4.04627e-09
6.40838e-09
-6.46967e-11
3.59307e-22
7.12924e-11
0
1.11134e-23
-2.84831e-47
-2.53877e-48
-2.15416e-31
-1.44045e-32
-1.29316e-31
-6.57319e-33
-5.06205e-32
-2.25955e-33
-1.69534e-32
-7.06843e-34
-5.3353e-33
-2.13209e-34
-1.61716e-33
-6.27546e-35
-4.67366e-34
-1.77544e-35
-1.26652e-34
-4.73634e-36
-3.18755e-35
-1.1783e-36
-7.44029e-36
-2.72715e-37
-1.61663e-36
-5.8898e-38
-3.28894e-37
-1.19326e-38
-6.30315e-38
-2.28082e-39
-1.14379e-38
-4.13291e-40
-1.97241e-39
-7.12396e-41
-3.23871e-40
-1.17018e-41
-5.0667e-41
-1.83259e-42
-7.54914e-42
-2.73482e-43
-1.07034e-42
-3.88568e-44
-1.4428e-43
-5.25067e-45
-1.84766e-44
-6.74307e-46
-2.24678e-45
-8.22454e-47
-2.59377e-46
-9.52658e-48
-2.84275e-47
-1.0477e-48
-2.95831e-48
-1.09438e-49
-2.92372e-49
-1.08569e-50
-2.74479e-50
-1.02337e-51
-2.44816e-51
-9.16625e-53
-2.07483e-52
-7.79948e-54
-1.67094e-53
-6.30904e-55
-1.27873e-54
-4.84797e-56
-9.29841e-56
-3.54121e-57
-6.4241e-57
-2.45752e-58
-4.21643e-58
-1.62022e-59
-2.6288e-59
-1.01472e-60
-1.5567e-60
-6.03623e-62
-8.75479e-62
-3.4103e-63
-4.67575e-63
-1.82976e-64
-2.37135e-64
-9.32272e-66
-1.142e-65
-4.51049e-67
-5.22221e-67
-2.07218e-68
-2.26755e-68
-9.03958e-70
-9.34929e-70
-3.74444e-71
-3.66033e-71
-1.4728e-72
-1.36077e-72
-5.50075e-74
-4.8037e-74
-1.95084e-75
-1.61023e-75
-6.56952e-77
-5.12524e-77
-2.10063e-78
-1.54896e-78
-6.37764e-80
-4.44473e-80
-1.83842e-81
-1.21088e-81
-5.03121e-83
-3.13162e-83
-1.30707e-84
-7.68794e-85
-3.22321e-86
-1.79132e-86
-7.5437e-88
-3.96098e-88
-1.6755e-89
-8.31076e-90
-3.53094e-91
-1.65433e-91
-7.05958e-93
-3.12376e-93
-1.33881e-94
-5.59423e-95
-2.40806e-96
-9.50033e-97
-4.107e-98
-1.52968e-98
-6.64127e-100
-2.33483e-100
-1.01798e-101
-3.37776e-102
-1.47896e-103
-4.63079e-104
-2.0361e-105
-6.01539e-106
-2.65597e-107
-7.40268e-108
-3.28208e-109
-8.62909e-110
-3.84159e-111
-9.52643e-112
-4.2586e-113
-9.95918e-114
-4.47007e-115
-9.85794e-116
-4.44284e-117
-9.23769e-118
-4.17985e-119
-8.19405e-120
-3.72283e-121
-6.87927e-122
-3.13768e-123
-5.46563e-124
-2.50312e-125
-4.10911e-126
-1.88905e-127
-2.92289e-128
-1.34927e-129
-1.96695e-130
-9.11306e-132
-1.2521e-132
-5.82599e-134
-7.53903e-135
-3.51953e-136
-4.29301e-137
-2.01357e-138
-2.31187e-139
-1.08726e-140
-1.17717e-141
-5.56633e-143
-5.66763e-144
-2.68451e-145
-2.5795e-146
-1.22982e-147
-1.10994e-148
-5.29397e-150
-4.51362e-151
-2.16972e-152
-1.73515e-153
-8.33372e-155
-6.3021e-156
-3.05371e-157
-2.16362e-158
-1.04675e-159
-7.01606e-161
-3.42507e-162
-2.15035e-163
-1.04853e-164
-6.22339e-166
-3.05863e-167
-1.7021e-168
-8.37057e-170
-4.39499e-171
-2.17322e-172
-1.0722e-173
-5.32012e-175
-2.46916e-176
-1.22813e-177
-5.3708e-179
-2.6885e-180
-1.1027e-181
-5.51897e-183
-2.13764e-184
-1.07876e-185
-3.91133e-187
-1.97156e-188
-6.75482e-190
-3.4331e-191
-1.10099e-192
-5.59467e-194
-1.69323e-195
-8.65988e-197
-2.45735e-198
-1.25952e-199
-3.36409e-201
-1.73092e-202
-4.345e-204
-2.24612e-205
-5.29277e-207
-2.74085e-208
-6.08092e-210
-3.16843e-211
-6.58811e-213
-3.43625e-214
-6.72989e-216
-3.53185e-217
-6.4817e-219
-3.40733e-220
-5.88429e-222
-3.10925e-223
-5.03546e-225
-2.66887e-226
-4.06051e-228
-2.16145e-229
-3.08548e-231
-1.65042e-232
-2.20842e-234
-1.18809e-235
-1.48888e-237
-8.04455e-239
-5.02587e-242
-9.46239e-241
5.12173e-10
5.48773e-11
7.67741e-11
-8.52573e-11
8.80833e-11
-8.07752e-11
1.20982e-10
-9.84015e-11
1.50699e-10
-1.01124e-10
2.11597e-10
-1.29885e-10
6.93623e-10
-1.01232e-10
8.27104e-09
4.04102e-11
4.84418e-08
4.80439e-09
4.98422e-08
1.31452e-08
3.59898e-08
1.66137e-09
1.69252e-08
4.61839e-13
9.06893e-09
-9.99046e-10
6.47865e-09
-7.07292e-10
5.37094e-09
-6.79214e-10
4.88694e-09
-9.79851e-10
4.93524e-09
-8.30061e-10
5.18222e-09
-7.51441e-10
5.19656e-09
-4.85976e-10
5.16956e-09
-5.72185e-10
5.41402e-09
-4.56638e-10
6.57757e-09
-2.09987e-10
1.52508e-08
2.66049e-10
4.27144e-08
2.18305e-10
6.48928e-08
4.3886e-09
6.15689e-08
2.36259e-09
5.58456e-08
-1.52931e-09
4.16572e-08
-3.17119e-09
1.01545e-08
5.76839e-10
9.6532e-22
5.39904e-10
0
3.66666e-23
-2.55059e-43
-4.95019e-44
-5.31028e-32
-6.9465e-33
-4.47868e-32
-4.52844e-33
-2.36657e-32
-2.11126e-33
-1.02713e-32
-8.56829e-34
-3.95809e-33
-3.16539e-34
-1.37997e-33
-1.07172e-34
-4.37108e-34
-3.32323e-35
-1.26315e-34
-9.45398e-36
-3.35162e-35
-2.47962e-36
-8.22741e-36
-6.0355e-37
-1.88232e-36
-1.37251e-37
-4.03954e-37
-2.93321e-38
-8.1724e-38
-5.91857e-39
-1.56409e-38
-1.13111e-39
-2.8378e-39
-2.05135e-40
-4.88606e-40
-3.53325e-41
-7.98581e-41
-5.78086e-42
-1.23881e-41
-8.98193e-43
-1.82334e-42
-1.32478e-43
-2.54533e-43
-1.8539e-44
-3.36875e-44
-2.46058e-45
-4.22576e-45
-3.09592e-46
-5.02266e-46
-3.69209e-47
-5.65537e-47
-4.17149e-48
-6.03136e-48
-4.46554e-49
-6.09183e-49
-4.52741e-50
-5.82684e-50
-4.34803e-51
-5.27798e-51
-3.95505e-52
-4.52768e-52
-3.40639e-53
-3.67876e-53
-2.77995e-54
-2.83149e-54
-2.14848e-55
-2.0649e-55
-1.5739e-56
-1.42711e-56
-1.09264e-57
-9.34981e-58
-7.19066e-59
-5.80849e-59
-4.48733e-60
-3.42272e-60
-2.65625e-61
-1.91365e-61
-1.49192e-62
-1.01549e-62
-7.95341e-64
-5.11612e-64
-4.02554e-65
-2.44786e-65
-1.935e-66
-1.11258e-66
-8.83567e-68
-4.80477e-68
-3.83355e-69
-1.97199e-69
-1.5807e-70
-7.69296e-71
-6.19519e-72
-2.85292e-72
-2.30815e-73
-1.00583e-73
-8.17527e-75
-3.37133e-75
-2.75287e-76
-1.07426e-76
-8.81221e-78
-3.25399e-78
-2.68147e-79
-9.36844e-80
-7.75544e-81
-2.56327e-81
-2.13159e-82
-6.6637e-83
-5.56651e-84
-1.64565e-84
-1.38087e-85
-3.85972e-86
-3.25317e-87
-8.59537e-88
-7.27686e-89
-1.81699e-89
-1.54505e-90
-3.64508e-91
-3.11317e-92
-6.93771e-93
-5.95113e-94
-1.25248e-94
-1.07904e-95
-2.14419e-96
-1.85521e-97
-3.48012e-98
-3.02401e-99
-5.35384e-100
-4.67192e-101
-7.80522e-102
-6.83993e-103
-1.07812e-103
-9.48755e-105
-1.41068e-105
-1.24661e-106
-1.74822e-107
-1.55131e-108
-2.05163e-109
-1.82805e-110
-2.27964e-111
-2.03959e-112
-2.39794e-113
-2.15416e-114
-2.38758e-115
-2.15362e-116
-2.24992e-117
-2.03759e-118
-2.00638e-119
-1.82441e-120
-1.69298e-121
-1.54552e-122
-1.35154e-123
-1.23879e-124
-1.02072e-125
-9.39214e-127
-7.29177e-128
-6.73654e-129
-4.92692e-130
-4.56907e-131
-3.14836e-132
-2.93161e-133
-1.90253e-134
-1.77797e-135
-1.08708e-136
-1.02023e-137
-5.87298e-139
-5.5301e-140
-2.99952e-141
-2.83736e-142
-1.44829e-143
-1.37387e-144
-6.60932e-146
-6.30166e-147
-2.85115e-148
-2.72448e-149
-1.16219e-150
-1.11685e-151
-4.4777e-153
-4.31007e-154
-1.62972e-155
-1.57828e-156
-5.60608e-158
-5.43644e-159
-1.82124e-160
-1.77693e-161
-5.59144e-163
-5.46409e-164
-1.62082e-165
-1.59263e-166
-4.4395e-168
-4.37314e-169
-1.14789e-170
-1.1356e-171
-2.80394e-173
-2.78463e-174
-6.46471e-176
-6.4383e-177
-1.40767e-178
-1.40928e-179
-2.89295e-181
-2.90098e-182
-5.61307e-184
-5.66284e-185
-1.02786e-186
-1.03824e-187
-1.77634e-189
-1.80501e-190
-2.8971e-192
-2.94915e-193
-4.45784e-195
-4.56064e-196
-6.47248e-198
-6.6417e-199
-8.86404e-201
-9.12932e-202
-1.1452e-203
-1.18448e-204
-1.39529e-206
-1.44703e-207
-1.60329e-209
-1.67092e-210
-1.73712e-212
-1.81475e-213
-1.77449e-215
-1.86279e-216
-1.70891e-218
-1.79896e-219
-1.55116e-221
-1.63999e-222
-1.3271e-224
-1.40811e-225
-1.06984e-227
-1.13983e-228
-8.1265e-231
-8.69989e-232
-5.81397e-234
-6.26156e-235
-3.91776e-237
-4.236e-238
-2.64619e-241
-2.48847e-240
7.49071e-11
2.18182e-14
2.80584e-11
-4.69171e-11
4.63087e-11
-7.53842e-11
8.55365e-11
-1.06243e-10
8.93935e-11
-1.08815e-10
1.38022e-10
-2.19055e-10
2.47553e-10
-5.59895e-11
3.70127e-09
2.01279e-12
3.25434e-08
2.12595e-09
4.48942e-08
1.34522e-08
3.24599e-08
3.92067e-09
1.34133e-08
6.37375e-11
3.61228e-09
-5.93756e-11
2.58192e-09
-1.73099e-10
2.72461e-09
-1.09198e-09
3.13688e-09
-1.08603e-09
3.46486e-09
-1.42794e-09
3.84427e-09
-8.25092e-10
3.82487e-09
-7.44174e-10
4.11235e-09
-5.57038e-10
4.26063e-09
-8.36463e-10
4.63242e-09
-3.50234e-10
4.52762e-09
1.75322e-10
9.02411e-09
4.43571e-10
2.25006e-08
1.97275e-14
3.21465e-08
5.39003e-10
3.8605e-08
1.11995e-10
3.75102e-08
-5.72676e-12
1.52614e-08
9.26196e-11
4.63304e-21
2.00049e-09
0
1.2119e-21
1.63895e-42
1.01274e-42
-2.09516e-32
-4.00967e-33
-2.41028e-32
-3.63173e-33
-1.60626e-32
-2.14718e-33
-8.12641e-33
-1.01702e-33
-3.43072e-33
-4.11713e-34
-1.25902e-33
-1.46734e-34
-4.10273e-34
-4.68097e-35
-1.20377e-34
-1.35206e-35
-3.21535e-35
-3.56984e-36
-7.89357e-36
-8.68988e-37
-1.7963e-36
-1.96557e-37
-3.81749e-37
-4.15984e-38
-7.62389e-38
-8.28571e-39
-1.43777e-38
-1.56033e-39
-2.56928e-39
-2.78709e-40
-4.35985e-40
-4.73115e-41
-7.03259e-41
-7.63953e-42
-1.07855e-41
-1.1735e-42
-1.57229e-42
-1.71429e-43
-2.1775e-43
-2.37998e-44
-2.86325e-44
-3.13834e-45
-3.57266e-45
-3.92778e-46
-4.22816e-46
-4.66399e-47
-4.74439e-47
-5.25143e-48
-5.04623e-48
-5.60651e-49
-5.08683e-49
-5.673e-50
-4.85949e-50
-5.44143e-51
-4.39948e-51
-4.94706e-52
-3.77501e-52
-4.26184e-53
-3.07043e-53
-3.48172e-54
-2.36772e-54
-2.6959e-55
-1.73144e-55
-1.98035e-56
-1.20101e-56
-1.37982e-57
-7.9044e-58
-9.12199e-59
-4.93748e-59
-5.7238e-60
-2.92812e-60
-3.40989e-61
-1.64911e-61
-1.92923e-62
-8.82285e-63
-1.0369e-63
-4.48519e-64
-5.2956e-65
-2.16703e-65
-2.57045e-66
-9.95268e-67
-1.18604e-67
-4.34577e-68
-5.20287e-69
-1.80419e-69
-2.17008e-70
-7.12202e-71
-8.6062e-72
-2.67311e-72
-3.24517e-73
-9.53879e-74
-1.16337e-74
-3.23578e-75
-3.96468e-76
-1.04328e-76
-1.28417e-77
-3.19651e-78
-3.95255e-79
-9.30467e-80
-1.15581e-80
-2.57258e-81
-3.21013e-82
-6.75404e-83
-8.46593e-84
-1.68332e-84
-2.11947e-85
-3.98164e-86
-5.03567e-87
-8.93575e-88
-1.13515e-88
-1.90221e-89
-2.42712e-90
-3.84005e-91
-4.92123e-92
-7.34956e-93
-9.45989e-94
-1.33331e-94
-1.72361e-95
-2.29224e-96
-2.97599e-97
-3.73386e-98
-4.8684e-99
-5.76163e-100
-7.54425e-101
-8.4207e-102
-1.10727e-102
-1.16546e-103
-1.53896e-104
-1.52733e-105
-2.02522e-106
-1.89493e-107
-2.5231e-108
-2.22547e-109
-2.97544e-110
-2.47382e-111
-3.32111e-112
-2.60247e-113
-3.50805e-114
-2.59076e-115
-3.50652e-116
-2.44035e-117
-3.31622e-118
-2.17478e-119
-2.96728e-120
-1.8335e-121
-2.51158e-122
-1.46221e-123
-2.01101e-124
-1.10297e-125
-1.5229e-126
-7.86882e-128
-1.0908e-128
-5.30901e-130
-7.38786e-131
-3.38714e-132
-4.73237e-133
-2.04337e-134
-2.86555e-135
-1.16548e-136
-1.64114e-137
-6.28483e-139
-8.88101e-140
-3.20366e-141
-4.54654e-142
-1.54377e-143
-2.19791e-144
-7.03057e-146
-1.00557e-146
-3.02648e-148
-4.34101e-149
-1.231e-150
-1.77439e-151
-4.73244e-153
-6.83834e-154
-1.71859e-155
-2.49621e-156
-5.89842e-158
-8.58717e-159
-1.91182e-160
-2.79762e-161
-5.85592e-163
-8.59064e-164
-1.6935e-165
-2.49607e-166
-4.62763e-168
-6.84193e-169
-1.19369e-170
-1.77176e-171
-2.90879e-173
-4.33471e-174
-6.69025e-176
-9.99939e-177
-1.45324e-178
-2.18261e-179
-2.9793e-181
-4.48455e-182
-5.76639e-184
-8.72611e-185
-1.05333e-186
-1.59721e-187
-1.81584e-189
-2.76776e-190
-2.95416e-192
-4.51392e-193
-4.53429e-195
-6.95961e-196
-6.56698e-198
-1.01128e-198
-8.97086e-201
-1.38648e-201
-1.15607e-203
-1.79409e-204
-1.40499e-206
-2.18691e-207
-1.61033e-209
-2.51785e-210
-1.74032e-212
-2.72888e-213
-1.77323e-215
-2.79278e-216
-1.70333e-218
-2.6912e-219
-1.54214e-221
-2.44644e-222
-1.316e-224
-2.09551e-225
-1.05816e-227
-1.69179e-228
-8.01705e-231
-1.28794e-231
-5.72084e-234
-9.24652e-235
-3.84501e-237
-6.23831e-238
-3.8875e-241
-2.43592e-240
8.02774e-12
7.43206e-11
1.5723e-11
-2.9988e-11
3.08635e-11
-3.76629e-11
7.18122e-11
-5.61303e-11
2.95352e-10
-2.5353e-10
6.01238e-10
-3.36302e-10
7.52109e-10
-2.66867e-10
2.08219e-09
9.68727e-12
1.55873e-08
1.12641e-09
2.79476e-08
7.43663e-09
2.33851e-08
3.0006e-09
1.6848e-08
9.73983e-10
5.89101e-09
-2.64952e-10
3.46816e-09
-1.065e-09
3.28662e-09
-1.42527e-09
3.49672e-09
-1.39217e-09
3.89624e-09
-1.46992e-09
4.10111e-09
-8.00881e-10
4.35235e-09
-1.86321e-10
5.54916e-09
-3.68192e-10
6.9478e-09
-9.06495e-10
7.26326e-09
-1.00658e-09
5.40893e-09
5.10712e-10
5.65971e-09
1.29521e-09
5.82872e-09
9.32881e-10
1.0745e-08
9.35021e-14
2.22447e-08
7.11549e-11
2.8511e-08
2.65557e-10
1.57157e-08
6.56315e-10
1.38325e-09
4.41651e-09
0
9.53221e-11
2.54306e-33
-2.78942e-32
-2.95154e-31
-7.37034e-32
-9.78139e-32
-1.95379e-32
-3.02476e-32
-5.38538e-33
-1.19389e-32
-1.99217e-33
-4.8264e-33
-7.72429e-34
-1.74519e-33
-2.71259e-34
-5.55151e-34
-8.44739e-35
-1.57397e-34
-2.35773e-35
-4.04111e-35
-5.98371e-36
-9.52746e-36
-1.39883e-36
-2.08615e-36
-3.04441e-37
-4.2796e-37
-6.21938e-38
-8.27714e-38
-1.19971e-38
-1.5156e-38
-2.19359e-39
-2.63389e-39
-3.81047e-40
-4.34993e-40
-6.2953e-41
-6.831e-41
-9.8963e-42
-1.02018e-41
-1.48032e-42
-1.44894e-42
-2.10686e-43
-1.95685e-43
-2.85237e-44
-2.51276e-44
-3.67301e-45
-3.06745e-45
-4.49741e-46
-3.55953e-46
-5.23635e-47
-3.92608e-47
-5.79541e-48
-4.11572e-48
-6.09814e-49
-4.10045e-49
-6.09849e-50
-3.88242e-50
-5.79763e-51
-3.49346e-51
-5.2387e-52
-2.98743e-52
-4.49779e-53
-2.42797e-53
-3.67163e-54
-1.8755e-54
-2.84781e-55
-1.37704e-55
-2.10039e-56
-9.61076e-57
-1.47249e-57
-6.37654e-58
-9.81348e-59
-4.02213e-59
-6.21802e-60
-2.41211e-60
-3.74596e-61
-1.37538e-61
-2.14571e-62
-7.45655e-63
-1.16865e-63
-3.84363e-64
-6.05187e-65
-1.88371e-65
-2.9797e-66
-8.77657e-67
-1.39475e-67
-3.88711e-68
-6.20605e-69
-1.6363e-69
-2.62463e-70
-6.54576e-71
-1.05482e-71
-2.48794e-72
-4.02784e-73
-8.98284e-74
-1.461e-74
-3.08024e-75
-5.03296e-76
-1.00288e-76
-1.64619e-77
-3.09965e-78
-5.11121e-79
-9.09213e-80
-1.50612e-80
-2.53051e-81
-4.21085e-82
-6.68096e-83
-1.11676e-83
-1.67287e-84
-2.80886e-85
-3.97178e-86
-6.69867e-87
-8.93966e-88
-1.51443e-88
-1.90716e-89
-3.24509e-90
-3.85569e-91
-6.58941e-92
-7.38579e-93
-1.26774e-93
-1.3403e-94
-2.31055e-95
-2.30385e-96
-3.98871e-97
-3.75053e-98
-6.52122e-99
-5.78182e-100
-1.00959e-100
-8.43951e-102
-1.47989e-102
-1.16628e-103
-2.0537e-104
-1.52571e-105
-2.69787e-106
-1.88925e-107
-3.35458e-108
-2.21414e-109
-3.9477e-110
-2.45577e-111
-4.39653e-112
-2.57748e-113
-4.63324e-114
-2.55972e-115
-4.62008e-116
-2.40518e-117
-4.35863e-118
-2.13807e-119
-3.89021e-120
-1.79798e-121
-3.28445e-122
-1.43021e-123
-2.62309e-124
-1.07608e-125
-1.98135e-126
-7.65723e-128
-1.41551e-128
-5.15303e-130
-9.5628e-131
-3.27925e-132
-6.10973e-133
-1.97328e-134
-3.69041e-135
-1.12267e-136
-2.10808e-137
-6.03894e-139
-1.13807e-139
-3.07074e-141
-5.81107e-142
-1.47612e-143
-2.80291e-144
-6.70632e-146
-1.27898e-146
-2.88005e-148
-5.50986e-149
-1.1687e-150
-2.24608e-151
-4.48255e-153
-8.63981e-154
-1.62414e-155
-3.14519e-156
-5.56174e-158
-1.08007e-158
-1.7987e-160
-3.50928e-161
-5.49746e-163
-1.07574e-163
-1.58643e-165
-3.11771e-166
-4.32587e-168
-8.53046e-169
-1.11352e-170
-2.20399e-171
-2.70789e-173
-5.38151e-174
-6.2156e-176
-1.239e-176
-1.34745e-178
-2.69852e-179
-2.75701e-181
-5.5354e-182
-5.32587e-184
-1.07462e-184
-9.71009e-187
-1.96401e-187
-1.6708e-189
-3.39571e-190
-2.71319e-192
-5.52968e-193
-4.15685e-195
-8.5082e-196
-6.00956e-198
-1.23426e-198
-8.19491e-201
-1.68917e-201
-1.05424e-203
-2.18181e-204
-1.27904e-206
-2.6554e-207
-1.4635e-209
-3.05145e-210
-1.579e-212
-3.30247e-213
-1.60621e-215
-3.37353e-216
-1.5404e-218
-3.24619e-219
-1.3924e-221
-2.94586e-222
-1.18634e-224
-2.51954e-225
-9.52418e-228
-2.03091e-228
-7.20482e-231
-1.54374e-231
-5.13344e-234
-1.10667e-234
-3.44505e-237
-7.45459e-238
-4.63895e-241
-2.1793e-240
2.47886e-11
3.07792e-10
3.37193e-12
-1.05996e-11
9.90819e-12
-6.77116e-12
2.3546e-11
-6.76366e-12
1.78741e-10
-7.5799e-12
1.08799e-09
-4.55817e-10
1.17982e-09
-2.33244e-11
1.37505e-09
3.81239e-10
5.61066e-09
7.25126e-10
1.3289e-08
2.65178e-09
1.45219e-08
2.61519e-09
1.29836e-08
6.79734e-10
1.19288e-08
1.05814e-10
9.7035e-09
-2.22393e-09
7.03361e-09
-1.48528e-09
7.32059e-09
-1.9431e-09
8.14468e-09
-2.384e-09
5.68755e-09
1.08084e-09
5.72197e-09
-2.31974e-13
1.06663e-08
1.43948e-10
1.26174e-08
-2.21549e-09
1.27793e-08
-5.23944e-10
1.07285e-08
9.64617e-10
6.19991e-09
2.46985e-09
5.03504e-09
1.57069e-09
5.61177e-09
5.90483e-10
1.15299e-08
1.09355e-11
2.05617e-08
2.67225e-10
1.92468e-08
7.44852e-10
4.4159e-09
7.50105e-09
0
9.56552e-10
-3.50948e-32
-3.64075e-32
-4.36866e-32
-1.34025e-32
-3.28049e-32
-8.15103e-33
-2.17544e-32
-4.83653e-33
-1.11993e-32
-2.33562e-33
-4.58177e-33
-9.16643e-34
-1.56549e-33
-3.04188e-34
-4.6527e-34
-8.85058e-35
-1.23982e-34
-2.32176e-35
-3.02895e-35
-5.60688e-36
-6.89338e-36
-1.26526e-36
-1.47711e-36
-2.69482e-37
-2.99905e-37
-5.44862e-38
-5.78735e-38
-1.04866e-38
-1.06253e-38
-1.92252e-39
-1.85595e-39
-3.35664e-40
-3.08326e-40
-5.5783e-41
-4.87043e-41
-8.82089e-42
-7.31506e-42
-1.32694e-42
-1.04477e-42
-1.89916e-43
-1.41935e-43
-2.58638e-44
-1.83465e-44
-3.35258e-45
-2.25706e-45
-4.13695e-46
-2.64338e-46
-4.86124e-47
-2.9477e-47
-5.4395e-48
-3.13009e-48
-5.79774e-49
-3.16514e-49
-5.88483e-50
-3.04772e-50
-5.68946e-51
-2.79418e-51
-5.23807e-52
-2.43876e-52
-4.59006e-53
-2.02597e-53
-3.82998e-54
-1.60162e-54
-3.04018e-55
-1.20459e-55
-2.29689e-56
-8.61721e-57
-1.65047e-57
-5.86186e-58
-1.12777e-58
-3.79086e-59
-7.32621e-60
-2.33006e-60
-4.52355e-61
-1.36089e-61
-2.6541e-62
-7.55095e-63
-1.47942e-63
-3.97931e-64
-7.83251e-65
-1.99135e-65
-3.93777e-66
-9.46084e-67
-1.87952e-67
-4.26643e-68
-8.51524e-69
-1.82585e-69
-3.66113e-70
-7.41397e-71
-1.49353e-71
-2.85588e-72
-5.77984e-73
-1.04341e-73
-2.12147e-74
-3.61513e-75
-7.38426e-76
-1.18761e-76
-2.43696e-77
-3.69862e-78
-7.6242e-79
-1.09183e-79
-2.26096e-80
-3.05464e-81
-6.35428e-82
-8.09836e-83
-1.69224e-83
-2.03428e-84
-4.26994e-85
-4.84115e-86
-1.02069e-86
-1.09135e-87
-2.31119e-88
-2.33027e-89
-4.95669e-90
-4.71234e-91
-1.00676e-91
-9.02425e-93
-1.93637e-93
-1.6364e-94
-3.52653e-95
-2.80956e-96
-6.08082e-97
-4.56685e-98
-9.92651e-99
-7.02736e-100
-1.53397e-100
-1.0236e-101
-2.24383e-102
-1.41124e-103
-3.10658e-104
-1.8415e-105
-4.07066e-106
-2.27411e-107
-5.04786e-108
-2.65761e-109
-5.92348e-110
-2.93888e-111
-6.57734e-112
-3.07505e-113
-6.91019e-114
-3.04422e-115
-6.86877e-116
-2.85117e-117
-6.45915e-118
-2.52619e-119
-5.746e-120
-2.11727e-121
-4.83509e-122
-1.6785e-123
-3.84842e-124
-1.25858e-125
-2.89702e-126
-8.92514e-128
-2.06256e-128
-5.98556e-130
-1.38862e-130
-3.79587e-132
-8.84109e-133
-2.27623e-134
-5.32187e-135
-1.29054e-136
-3.02936e-137
-6.9179e-139
-1.62987e-139
-3.50553e-141
-8.29277e-142
-1.67931e-143
-3.98661e-144
-7.60329e-146
-1.8126e-146
-3.25411e-148
-7.78348e-149
-1.31601e-150
-3.16147e-151
-5.03052e-153
-1.2123e-153
-1.81658e-155
-4.39721e-156
-6.20007e-158
-1.50544e-158
-1.99854e-160
-4.87388e-161
-6.08833e-163
-1.48958e-163
-1.75127e-165
-4.30218e-166
-4.76012e-168
-1.17359e-168
-1.22144e-170
-3.02229e-171
-2.96107e-173
-7.35685e-174
-6.77583e-176
-1.68866e-176
-1.46445e-178
-3.66629e-179
-2.98744e-181
-7.49949e-182
-5.75401e-184
-1.45131e-184
-1.04603e-186
-2.64543e-187
-1.79475e-189
-4.55981e-190
-2.90631e-192
-7.40606e-193
-4.44049e-195
-1.13623e-195
-6.40229e-198
-1.644e-198
-8.70734e-201
-2.24395e-201
-1.11726e-203
-2.89075e-204
-1.35204e-206
-3.50963e-207
-1.54318e-209
-4.0226e-210
-1.66093e-212
-4.34355e-213
-1.68553e-215
-4.42592e-216
-1.61272e-218
-4.24947e-219
-1.45447e-221
-3.84731e-222
-1.23649e-224
-3.28346e-225
-9.90542e-228
-2.64095e-228
-7.4775e-231
-2.00326e-231
-5.31685e-234
-1.4332e-234
-3.56105e-237
-9.6346e-238
-5.98431e-241
-2.24835e-240
1.57236e-12
9.62635e-11
2.44174e-12
-5.04658e-12
2.93181e-12
-7.26306e-12
4.21452e-12
-8.02934e-12
5.69831e-12
-9.06556e-12
2.75247e-10
-5.06898e-11
1.21511e-09
-1.31926e-10
1.32181e-09
4.67065e-10
1.13354e-09
1.10533e-09
3.57871e-09
1.09813e-09
6.82201e-09
1.15896e-09
7.5247e-09
7.31534e-10
6.38133e-09
5.04804e-11
3.08558e-09
-9.06336e-10
1.67549e-09
-4.68413e-10
1.61557e-09
-2.27372e-09
1.95976e-09
-2.73653e-09
4.88267e-09
-1.80733e-09
6.48995e-09
-3.51729e-09
5.88703e-09
-3.87429e-09
5.00925e-09
-3.56251e-09
5.0307e-09
-1.65837e-09
7.64854e-09
6.7747e-10
6.23051e-09
2.94792e-09
4.53884e-09
2.72664e-09
4.63054e-09
1.27257e-09
6.17827e-09
5.88724e-10
1.18104e-08
1.63106e-10
1.39537e-08
7.98708e-10
9.68579e-09
1.82798e-09
0
3.05125e-09
-7.03868e-33
0
-1.47046e-32
-5.33302e-33
-2.0265e-32
-6.01503e-33
-1.58854e-32
-4.23354e-33
-8.60322e-33
-2.15255e-33
-3.58498e-33
-8.60613e-34
-1.22438e-33
-2.85485e-34
-3.57625e-34
-8.16349e-35
-9.2298e-35
-2.07413e-35
-2.16322e-35
-4.80529e-36
-4.71259e-36
-1.038e-36
-9.71834e-37
-2.12766e-37
-1.91966e-37
-4.18525e-38
-3.65057e-38
-7.938e-39
-6.68284e-39
-1.45106e-39
-1.17442e-39
-2.54894e-40
-1.9749e-40
-4.28779e-41
-3.16978e-41
-6.88922e-42
-4.84877e-42
-1.05551e-42
-7.06461e-43
-1.54108e-43
-9.80337e-44
-2.14376e-44
-1.29595e-44
-2.84191e-45
-1.63249e-45
-3.59076e-46
-1.96003e-46
-4.3256e-47
-2.24317e-47
-4.96747e-48
-2.44696e-48
-5.43909e-49
-2.54373e-49
-5.67555e-50
-2.51914e-50
-5.64348e-51
-2.37571e-51
-5.3445e-52
-2.13251e-52
-4.81658e-53
-1.82111e-53
-4.1314e-54
-1.47883e-54
-3.36867e-55
-1.1414e-55
-2.61177e-56
-8.36953e-57
-1.92371e-57
-5.82834e-58
-1.34563e-58
-3.85316e-59
-8.93628e-60
-2.41761e-60
-5.63244e-61
-1.43925e-61
-3.36845e-62
-8.12768e-63
-1.91097e-63
-4.353e-64
-1.0282e-64
-2.21068e-65
-5.24597e-66
-1.0644e-66
-2.53759e-67
-4.85816e-68
-1.1636e-68
-2.10167e-69
-5.05722e-70
-8.61655e-71
-2.08303e-71
-3.34759e-72
-8.13027e-73
-1.2323e-73
-3.00675e-74
-4.29782e-75
-1.05349e-75
-1.41999e-76
-3.4967e-77
-4.44421e-78
-1.09938e-78
-1.31747e-79
-3.27399e-80
-3.69906e-81
-9.23415e-82
-9.83591e-83
-2.46648e-83
-2.47674e-84
-6.23867e-85
-5.90555e-86
-1.4942e-86
-1.3333e-87
-3.38844e-88
-2.85005e-89
-7.2751e-90
-5.76781e-91
-1.47877e-91
-1.10504e-92
-2.8455e-93
-2.00414e-94
-5.18307e-95
-3.44062e-96
-8.93642e-97
-5.59088e-98
-1.45836e-98
-8.59876e-100
-2.2525e-100
-1.25164e-101
-3.29261e-102
-1.72419e-103
-4.55483e-104
-2.24768e-105
-5.96256e-106
-2.77269e-107
-7.38589e-108
-3.23641e-109
-8.65676e-110
-3.57435e-111
-9.60003e-112
-3.7349e-113
-1.00722e-113
-3.6922e-115
-9.99759e-116
-3.45296e-117
-9.38754e-118
-3.05473e-119
-8.33836e-120
-2.55627e-121
-7.00562e-122
-2.02332e-123
-5.56718e-124
-1.5147e-125
-4.18418e-126
-1.0724e-127
-2.97413e-128
-7.18031e-130
-1.99911e-130
-4.54615e-132
-1.27072e-132
-2.72173e-134
-7.63682e-135
-1.54064e-136
-4.33998e-137
-8.24535e-139
-2.33139e-139
-4.1716e-141
-1.18428e-141
-1.99528e-143
-5.68481e-144
-9.0201e-146
-2.58053e-146
-3.8547e-148
-1.10658e-148
-1.55661e-150
-4.48746e-151
-5.94175e-153
-1.7186e-153
-2.14266e-155
-6.22386e-156
-7.30315e-158
-2.12836e-158
-2.35104e-160
-6.88033e-161
-7.15318e-163
-2.10055e-163
-2.05508e-165
-6.0585e-166
-5.57943e-168
-1.65099e-168
-1.43009e-170
-4.24669e-171
-3.46323e-173
-1.03267e-173
-7.91702e-176
-2.36806e-176
-1.70947e-178
-5.13611e-179
-3.48419e-181
-1.0498e-181
-6.7052e-184
-2.02961e-184
-1.218e-186
-3.6973e-187
-2.08832e-189
-6.36735e-190
-3.37947e-192
-1.03365e-192
-5.16031e-195
-1.58472e-195
-7.43608e-198
-2.2918e-198
-1.01084e-200
-3.12663e-201
-1.29648e-203
-4.02604e-204
-1.56834e-206
-4.88649e-207
-1.78949e-209
-5.5985e-210
-1.92552e-212
-6.04421e-213
-1.95364e-215
-6.15707e-216
-1.86896e-218
-5.91119e-219
-1.68538e-221
-5.35097e-222
-1.43272e-224
-4.56671e-225
-1.14774e-227
-3.67307e-228
-8.6645e-231
-2.7863e-231
-6.16139e-234
-1.99366e-234
-4.12724e-237
-1.34036e-237
-8.32708e-241
-2.60627e-240
2.61522e-12
2.82313e-11
1.77236e-12
-4.2038e-12
2.98019e-12
-8.45554e-12
4.31713e-12
-9.36636e-12
5.81685e-12
-1.05488e-11
2.26722e-11
-1.24385e-11
1.48858e-09
-9.54162e-10
1.32077e-09
6.27333e-10
1.05596e-09
1.56161e-09
9.07742e-10
1.44022e-09
1.41797e-09
2.63775e-09
3.65381e-09
3.41045e-09
3.56345e-09
-8.63876e-12
2.85382e-09
-1.15264e-09
3.21014e-09
-1.16324e-09
7.0428e-09
-5.93478e-09
8.77869e-09
-3.90241e-09
1.02232e-08
-2.40839e-09
1.27329e-08
-6.75881e-09
1.37474e-08
-4.15693e-09
1.42333e-08
-4.78027e-09
1.1158e-08
-9.36732e-10
1.07354e-08
4.92417e-10
7.82314e-09
4.38049e-09
4.54162e-09
4.17344e-09
4.44981e-09
2.13396e-09
4.27367e-09
6.76789e-10
6.05729e-09
1.03112e-09
8.82636e-09
6.34155e-10
7.8412e-09
1.04879e-09
2.7211e-09
1.21236e-09
0
6.02463e-10
-4.56534e-34
0
-5.28667e-33
-1.8232e-33
-6.04716e-33
-1.87825e-33
-4.06978e-33
-1.18762e-33
-1.97488e-33
-5.53032e-34
-7.56789e-34
-2.05849e-34
-2.41557e-34
-6.4326e-35
-6.65766e-35
-1.74538e-35
-1.62804e-35
-4.21904e-36
-3.6118e-36
-9.28103e-37
-7.41068e-37
-1.89279e-37
-1.42985e-37
-3.63688e-38
-2.62951e-38
-6.67061e-39
-4.65263e-39
-1.1786e-39
-7.95998e-40
-2.01553e-40
-1.31808e-40
-3.33868e-41
-2.10889e-41
-5.34738e-42
-3.2509e-42
-8.25622e-43
-4.81406e-43
-1.22517e-43
-6.83143e-44
-1.74285e-44
-9.27263e-45
-2.37233e-45
-1.20229e-45
-3.08527e-46
-1.48763e-46
-3.83028e-47
-1.75514e-47
-4.53457e-48
-1.97306e-48
-5.11672e-49
-2.11191e-49
-5.4975e-50
-2.15091e-50
-5.62173e-51
-2.08302e-51
-5.46715e-52
-1.91701e-52
-5.05155e-53
-1.67559e-53
-4.43488e-54
-1.39031e-54
-3.6949e-55
-1.09462e-55
-2.92225e-56
-8.17463e-57
-2.1921e-57
-5.78883e-58
-1.55929e-58
-3.88617e-59
-1.05152e-59
-2.4727e-60
-6.72105e-61
-1.49096e-61
-4.07114e-62
-8.51815e-63
-2.33663e-63
-4.61063e-64
-1.2706e-64
-2.36411e-65
-6.54525e-66
-1.14824e-66
-3.19379e-67
-5.28234e-68
-1.4761e-68
-2.30154e-69
-6.46136e-70
-9.49695e-71
-2.67858e-71
-3.7111e-72
-1.05156e-72
-1.37326e-73
-3.90923e-74
-4.81186e-75
-1.37611e-75
-1.59649e-76
-4.58669e-77
-5.01527e-78
-1.44747e-78
-1.49169e-79
-4.3249e-80
-4.20052e-81
-1.22341e-81
-1.11983e-82
-3.27625e-83
-2.82621e-84
-8.30574e-85
-6.75224e-86
-1.99324e-86
-1.52709e-87
-4.52795e-88
-3.26919e-89
-9.73623e-90
-6.62455e-91
-1.98157e-91
-1.27057e-92
-3.81719e-93
-2.30648e-94
-6.95945e-95
-3.96273e-96
-1.20085e-96
-6.4434e-98
-1.96094e-98
-9.91507e-100
-3.03034e-100
-1.44384e-101
-4.43148e-102
-1.98961e-103
-6.13228e-104
-2.59432e-105
-8.02953e-106
-3.20087e-107
-9.94808e-108
-3.73667e-109
-1.16613e-109
-4.12716e-111
-1.2933e-111
-4.31272e-113
-1.35696e-113
-4.26347e-115
-1.34693e-115
-3.98718e-117
-1.26474e-117
-3.52727e-119
-1.12336e-119
-2.95162e-121
-9.43789e-122
-2.33618e-123
-7.49983e-124
-1.74886e-125
-5.6366e-126
-1.23818e-127
-4.00645e-128
-8.29023e-130
-2.69302e-130
-5.24898e-132
-1.71181e-132
-3.14263e-134
-1.02883e-134
-1.77901e-136
-5.8471e-137
-9.52196e-139
-3.1414e-139
-4.81808e-141
-1.59587e-141
-2.30486e-143
-7.66221e-144
-1.04216e-145
-3.47858e-146
-4.45466e-148
-1.49216e-148
-1.79937e-150
-6.05209e-151
-6.8705e-153
-2.31881e-153
-2.47843e-155
-8.39937e-156
-8.45089e-158
-2.87383e-158
-2.72169e-160
-9.29295e-161
-8.28479e-163
-2.83883e-163
-2.3814e-165
-8.19118e-166
-6.46895e-168
-2.23359e-168
-1.65906e-170
-5.74839e-171
-4.02027e-173
-1.39874e-173
-9.19656e-176
-3.20977e-176
-1.98716e-178
-6.96622e-179
-4.05316e-181
-1.42506e-181
-7.80622e-184
-2.75697e-184
-1.41915e-186
-5.02698e-187
-2.43525e-189
-8.66366e-190
-3.94432e-192
-1.40779e-192
-6.02823e-195
-2.16013e-195
-8.69479e-198
-3.12698e-198
-1.18307e-200
-4.27008e-201
-1.51884e-203
-5.50366e-204
-1.83914e-206
-6.68688e-207
-2.10058e-209
-7.66852e-210
-2.26257e-212
-8.28809e-213
-2.29797e-215
-8.45111e-216
-2.20064e-218
-8.12256e-219
-1.98657e-221
-7.36024e-222
-1.69052e-224
-6.28831e-225
-1.35568e-227
-5.06311e-228
-1.0245e-230
-3.84482e-231
-7.29291e-234
-2.754e-234
-4.89025e-237
-1.85342e-237
-1.15267e-240
-3.09128e-240
4.61937e-12
3.39915e-12
1.33638e-12
-9.66655e-12
2.9658e-12
-1.06604e-11
4.23996e-12
-1.06252e-11
5.71529e-12
-1.20241e-11
7.41245e-12
-1.41204e-11
1.69686e-09
-2.4098e-09
1.64838e-09
9.06587e-10
1.1582e-09
2.24292e-09
6.51275e-10
2.14068e-09
2.70894e-09
8.20139e-09
4.01687e-09
6.7937e-09
3.05178e-09
7.00838e-10
3.10244e-09
-1.39888e-09
7.9716e-09
-4.4992e-09
1.3862e-08
-9.70006e-09
1.53583e-08
-3.27137e-09
1.59787e-08
-1.08549e-09
1.20373e-08
-4.99029e-10
1.18759e-08
-2.7451e-10
1.40603e-08
-2.7905e-10
1.91168e-08
-4.83519e-10
2.01386e-08
7.45506e-10
1.7124e-08
8.71814e-09
1.18711e-08
9.7817e-09
6.649e-09
6.2954e-09
4.80438e-09
2.00973e-09
2.87536e-09
8.08962e-10
4.10848e-09
3.33088e-10
4.29569e-09
8.33945e-10
2.13788e-09
6.75798e-10
6.47419e-11
2.49794e-10
5.06285e-25
1.32674e-12
1.87825e-33
2.1678e-27
-6.50749e-47
2.99815e-44
-1.41797e-33
-4.72743e-34
-8.31571e-34
-2.66085e-34
-3.48134e-34
-1.08207e-34
-1.17489e-34
-3.57527e-35
-3.36746e-35
-1.00885e-35
-8.47712e-36
-2.51048e-36
-1.92276e-36
-5.64629e-37
-4.01585e-37
-1.17217e-37
-7.8735e-38
-2.28864e-38
-1.47287e-38
-4.27005e-39
-2.66019e-39
-7.70118e-40
-4.66809e-40
-1.35082e-40
-7.96657e-41
-2.30615e-41
-1.31867e-41
-3.82126e-42
-2.10797e-42
-6.11825e-43
-3.24032e-43
-9.42456e-44
-4.77281e-44
-1.39159e-44
-6.71856e-45
-1.96443e-45
-9.02137e-46
-2.64574e-46
-1.15388e-46
-3.39536e-47
-1.40434e-47
-4.14658e-48
-1.62491e-48
-4.81586e-49
-1.78608e-49
-5.31355e-50
-1.86382e-50
-5.56732e-51
-1.8454e-51
-5.53544e-52
-1.73281e-52
-5.21851e-53
-1.54244e-53
-4.66573e-54
-1.30114e-54
-3.95199e-55
-1.03988e-55
-3.17275e-56
-7.87218e-57
-2.4126e-57
-5.644e-58
-1.73749e-58