/*--------------------------------*- C++ -*----------------------------------*\
| =========                 |                                                 |
| \\      /  F ield         | OpenFOAM: The Open Source CFD Toolbox           |
|  \\    /   O peration     | Version:  v1912                                 |
|   \\  /    A nd           | Website:  www.openfoam.com                      |
|    \\/     M anipulation  |                                                 |
\*---------------------------------------------------------------------------*/
FoamFile
{
    version     2.0;
    format      ascii;
    class       volScalarField;
    location    "60";
    object      omega;
}
// * * * * * * * * * * * * * * * * * * * * * * * * * * * * * * * * * * * * * //

dimensions      [0 0 -1 0 0 0 0];


internalField   nonuniform List<scalar> 
14268
(
101.591
137.741
152.513
160.455
167.465
165.719
147.921
107.595
61.9392
45.5448
43.8928
44.9053
47.702
54.8362
65.1046
73.4237
75.8145
75.2879
74.5464
74.0046
72.4008
68.2693
60.0717
48.9602
45.1909
43.3596
42.2662
42.3418
43.7108
44.5642
44.5929
44.5918
44.5916
44.5916
44.5916
44.5916
44.5916
44.5916
44.5916
44.5916
44.5916
44.5916
44.5916
44.5916
44.5916
44.5916
44.5916
44.5916
44.5916
44.5916
44.5916
44.5916
44.5916
44.5916
44.5916
44.5916
44.5916
44.5916
44.5916
44.5916
44.5916
44.5916
44.5916
44.5916
44.5916
44.5916
44.5916
44.5916
44.5916
44.5916
44.5916
44.5916
44.5916
44.5916
44.5916
44.5916
44.5916
44.5916
44.5916
44.5916
44.5916
44.5916
44.5916
44.5916
44.5916
44.5916
44.5916
44.5916
44.5916
44.5916
44.5916
44.5916
44.5916
44.5916
44.5916
44.5916
44.5916
44.5916
44.5916
44.5916
44.5916
44.5916
44.5916
44.5916
44.5916
44.5916
44.5916
44.5916
44.5916
44.5916
44.5916
44.5916
44.5916
44.5916
44.5916
44.5916
44.5916
44.5916
44.5916
44.5916
44.5916
44.5916
44.5916
44.5916
44.5916
44.5916
44.5916
44.5916
44.5916
44.5916
44.5916
44.5916
44.5916
44.5916
44.5916
44.5916
44.5916
44.5916
44.5916
44.5916
44.5916
44.5916
44.5916
44.5916
44.5916
44.5916
44.5916
44.5916
44.5916
44.5916
35.7868
48.1816
53.5275
56.5729
59.1117
58.0494
51.8024
39.0968
24.5246
19.523
15.9019
14.1967
14.585
16.6058
20.1777
23.3015
24.2839
24.3419
24.251
24.1118
23.5953
22.1962
19.4502
16.0536
15.7416
14.1082
10.6066
9.31892
9.18227
10.209
11.252
10.8598
9.94276
9.43738
9.22298
9.10225
9.01834
8.95166
8.89538
8.84669
8.8038
8.76537
8.73045
8.69832
8.6685
8.64057
8.61427
8.58935
8.56566
8.54303
8.52139
8.50058
8.48059
8.46127
8.44268
8.42466
8.40727
8.39043
8.3741
8.35834
8.34288
8.32802
8.31353
8.29952
8.2859
8.27266
8.25979
8.2473
8.23516
8.22337
8.21192
8.2008
8.18999
8.1795
8.16931
8.15942
8.14981
8.14048
8.13142
8.12263
8.1141
8.10583
8.09781
8.09002
8.08247
8.07516
8.06807
8.0612
8.05454
8.0481
8.04186
8.03581
8.02997
8.02431
8.01884
8.01355
8.00844
8.00349
7.99872
7.9941
7.98965
7.98534
7.98119
7.97718
7.97331
7.96958
7.96598
7.96251
7.95916
7.95594
7.95283
7.94984
7.94696
7.94418
7.94151
7.93894
7.93646
7.93409
7.93179
7.92959
7.92747
7.92544
7.92348
7.92161
7.9198
7.91807
7.9164
7.91481
7.91327
7.9118
7.91039
7.90903
7.90773
7.90648
7.90529
7.90414
7.90305
7.90199
7.90099
7.90002
7.89911
7.89822
7.89737
7.89656
7.89579
7.89506
7.89436
7.89371
7.89306
7.8922
22.6803
30.364
33.9293
35.9821
37.5296
36.7503
32.7733
25.1247
16.1761
12.3449
9.12177
8.06397
8.31933
9.72346
12.0134
13.9176
14.5732
14.7118
14.708
14.6442
14.3549
13.5225
11.9126
9.74217
8.75919
7.52986
5.48179
4.53355
4.40823
4.88573
5.09811
4.6262
3.98494
3.70728
3.58543
3.51504
3.46439
3.42176
3.38451
3.35183
3.32282
3.2967
3.27288
3.25091
3.23049
3.21136
3.19335
3.17631
3.16013
3.14469
3.12997
3.11584
3.1023
3.08926
3.07672
3.06463
3.05297
3.04173
3.03082
3.02034
3.0101
3.00027
2.99073
2.98151
2.97257
2.9639
2.9555
2.94736
2.93947
2.93183
2.92442
2.91724
2.91028
2.90353
2.89699
2.89066
2.88451
2.87856
2.8728
2.86721
2.8618
2.85656
2.85149
2.84658
2.84182
2.83722
2.83277
2.82846
2.82429
2.82026
2.81637
2.8126
2.80896
2.80544
2.80204
2.79876
2.79559
2.79253
2.78958
2.78673
2.78398
2.78132
2.77877
2.7763
2.77392
2.77163
2.76942
2.76729
2.76524
2.76327
2.76137
2.75954
2.75778
2.75608
2.75445
2.75288
2.75138
2.74993
2.74853
2.74719
2.7459
2.74467
2.74348
2.74234
2.74124
2.74019
2.73918
2.73821
2.73728
2.73639
2.73553
2.73471
2.73393
2.73317
2.73245
2.73176
2.7311
2.73046
2.72985
2.72927
2.72871
2.72818
2.72767
2.72718
2.72671
2.72627
2.72584
2.72546
2.72506
2.72455
17.2997
22.9792
25.7231
27.3162
28.3575
27.6611
24.7461
19.326
12.8447
9.23965
6.68815
5.86532
6.09098
7.15855
8.81312
10.1672
10.6708
10.8403
10.8776
10.8393
10.6446
10.0701
8.97503
7.45489
6.3587
5.21273
3.78436
3.18814
3.0876
3.16838
3.08926
2.65856
2.24232
2.07276
1.99132
1.94262
1.90593
1.87247
1.84222
1.81533
1.7913
1.76957
1.74969
1.73132
1.71424
1.69824
1.68319
1.66897
1.65548
1.64265
1.63042
1.61873
1.60754
1.5968
1.5865
1.5766
1.56706
1.5579
1.54903
1.54051
1.53225
1.52431
1.51663
1.50922
1.50206
1.49513
1.48844
1.48196
1.4757
1.46964
1.46379
1.45812
1.45264
1.44734
1.44221
1.43725
1.43246
1.42782
1.42333
1.41899
1.4148
1.41074
1.40682
1.40303
1.39936
1.39582
1.3924
1.3891
1.38591
1.38283
1.37985
1.37698
1.3742
1.37153
1.36894
1.36645
1.36405
1.36173
1.3595
1.35734
1.35527
1.35326
1.35134
1.34948
1.34769
1.34597
1.34431
1.34271
1.34117
1.33969
1.33827
1.3369
1.33558
1.33432
1.3331
1.33193
1.3308
1.32972
1.32868
1.32768
1.32672
1.3258
1.32492
1.32407
1.32326
1.32247
1.32172
1.32101
1.32031
1.31965
1.31902
1.31841
1.31783
1.31727
1.31673
1.31622
1.31573
1.31526
1.31481
1.31438
1.31396
1.31357
1.31319
1.31283
1.31248
1.31215
1.31184
1.31156
1.31126
1.31088
14.3332
18.9167
21.1986
22.5293
23.2668
22.6317
20.3107
16.0856
10.9962
7.54829
5.43342
4.72153
4.90137
5.76351
7.07033
8.13324
8.55151
8.72906
8.78457
8.75544
8.60499
8.16471
7.34673
6.21001
5.24453
4.24988
3.11808
2.60075
2.53452
2.42253
2.18194
1.79342
1.52852
1.40789
1.34288
1.30054
1.26899
1.23972
1.21308
1.18932
1.16803
1.14874
1.13108
1.11477
1.09961
1.08544
1.07215
1.0596
1.04775
1.0365
1.02581
1.01562
1.0059
0.996608
0.98771
0.979195
0.971012
0.963175
0.955618
0.948376
0.941386
0.934679
0.928216
0.921993
0.915994
0.91021
0.904633
0.899255
0.894068
0.889064
0.884237
0.879579
0.875085
0.870748
0.866563
0.862523
0.858625
0.854863
0.851232
0.847728
0.844348
0.841086
0.837938
0.834901
0.831971
0.829145
0.82642
0.823791
0.821256
0.818812
0.816455
0.814184
0.811995
0.809885
0.807852
0.805893
0.804006
0.802189
0.800438
0.798753
0.79713
0.795568
0.794064
0.792617
0.791224
0.789884
0.788596
0.787356
0.786164
0.785018
0.783916
0.782856
0.781838
0.78086
0.779919
0.779016
0.778149
0.777316
0.776516
0.775747
0.77501
0.774302
0.773623
0.772972
0.772346
0.771747
0.771171
0.77062
0.770091
0.769584
0.769098
0.768632
0.768186
0.767758
0.767349
0.766956
0.766581
0.766221
0.765878
0.765547
0.765233
0.76493
0.764643
0.764366
0.764104
0.763853
0.763615
0.763396
0.763172
0.762885
12.409
16.251
18.187
19.32
19.8435
19.2412
17.349
13.9535
9.81535
6.54693
4.65186
4.00365
4.14405
4.85767
5.93909
6.813
7.17303
7.35404
7.42283
7.39859
7.27216
6.92196
6.28105
5.39777
4.57324
3.7212
2.81036
2.31297
2.20682
2.05912
1.75049
1.36534
1.16184
1.06548
1.0108
0.973769
0.943254
0.915634
0.891139
0.869428
0.850004
0.832415
0.816343
0.801535
0.787816
0.775032
0.763074
0.75184
0.741258
0.731263
0.721799
0.71282
0.704281
0.696158
0.688407
0.68102
0.673949
0.6672
0.660723
0.654534
0.648588
0.6429
0.637439
0.632198
0.627164
0.622326
0.617678
0.613209
0.608913
0.604782
0.600809
0.596986
0.593309
0.58977
0.586364
0.583086
0.579931
0.576893
0.57397
0.571156
0.568447
0.565839
0.563328
0.560912
0.558585
0.556346
0.55419
0.552115
0.550118
0.548197
0.546347
0.544568
0.542855
0.541208
0.539623
0.538098
0.536632
0.535221
0.533864
0.53256
0.531306
0.530099
0.52894
0.527825
0.526755
0.525725
0.524736
0.523785
0.522872
0.521995
0.521152
0.520343
0.519566
0.518819
0.518103
0.517415
0.516755
0.516122
0.515514
0.514931
0.514371
0.513834
0.51332
0.512826
0.512353
0.511899
0.511464
0.511047
0.510647
0.510264
0.509897
0.509546
0.50921
0.508887
0.508579
0.508283
0.508
0.507729
0.50747
0.507222
0.506985
0.506758
0.506541
0.506334
0.506136
0.505948
0.505769
0.505604
0.505437
0.50522
11.0482
14.3736
16.0609
17.0487
17.4256
16.8547
15.2567
12.4183
8.92876
5.93954
4.15778
3.53691
3.63705
4.23954
5.16021
5.90113
6.2191
6.39329
6.46319
6.44276
6.33645
6.04823
5.51947
4.80926
4.11155
3.37968
2.62456
2.19345
1.96382
1.79354
1.46555
1.12052
0.951852
0.869033
0.818123
0.780263
0.749275
0.722959
0.700141
0.680049
0.662131
0.645962
0.631242
0.617739
0.605287
0.59374
0.58299
0.572945
0.563529
0.554682
0.546346
0.538479
0.531035
0.523987
0.517296
0.510949
0.504903
0.499158
0.493673
0.488453
0.483463
0.478707
0.474161
0.469817
0.46566
0.461683
0.457876
0.45423
0.450739
0.447393
0.444187
0.441113
0.438166
0.435339
0.432628
0.430026
0.42753
0.425135
0.422836
0.420629
0.418511
0.416477
0.414525
0.41265
0.410849
0.409121
0.407461
0.405866
0.404335
0.402865
0.401453
0.400097
0.398795
0.397545
0.396344
0.395191
0.394084
0.393021
0.392
0.39102
0.390079
0.389175
0.388308
0.387475
0.386677
0.385909
0.385173
0.384467
0.383789
0.383138
0.382514
0.381915
0.38134
0.380789
0.38026
0.379753
0.379267
0.378801
0.378354
0.377925
0.377514
0.37712
0.376742
0.376381
0.376034
0.375702
0.375383
0.375078
0.374786
0.374507
0.374239
0.373982
0.373737
0.373502
0.373277
0.373061
0.372855
0.372658
0.37247
0.372289
0.372117
0.371952
0.371795
0.371643
0.3715
0.371363
0.371234
0.371114
0.370993
0.370835
10.0192
12.944
14.4217
15.2898
15.5591
15.0092
13.6434
11.2425
8.25814
5.53903
3.83612
3.22229
3.2831
3.79243
4.58182
5.21672
5.50088
5.66559
5.73344
5.71687
5.62776
5.38659
4.93842
4.35362
3.7626
3.134
2.49908
2.12341
1.84017
1.55373
1.22782
0.948684
0.806111
0.731375
0.684288
0.649291
0.620602
0.596144
0.574939
0.556325
0.539802
0.524971
0.511547
0.499311
0.488094
0.47776
0.468199
0.459322
0.451053
0.443332
0.436101
0.429318
0.422938
0.416933
0.411265
0.405918
0.400855
0.396068
0.391524
0.387221
0.383129
0.379248
0.375558
0.372047
0.368705
0.365521
0.362487
0.359595
0.356836
0.354204
0.351692
0.349294
0.347003
0.344814
0.342722
0.340723
0.338811
0.336983
0.335234
0.33356
0.331959
0.330426
0.328959
0.327555
0.32621
0.324922
0.323689
0.322507
0.321375
0.320291
0.319253
0.318257
0.317304
0.31639
0.315514
0.314675
0.313871
0.3131
0.312361
0.311653
0.310975
0.310324
0.309701
0.309103
0.30853
0.307981
0.307455
0.306951
0.306468
0.306004
0.30556
0.305135
0.304727
0.304337
0.303963
0.303604
0.30326
0.302931
0.302616
0.302314
0.302024
0.301747
0.301482
0.301227
0.300984
0.300751
0.300528
0.300314
0.30011
0.299914
0.299727
0.299547
0.299376
0.299212
0.299055
0.298904
0.298761
0.298623
0.298492
0.298366
0.298247
0.298132
0.298022
0.297917
0.297818
0.297722
0.297632
0.297549
0.297465
0.297355
9.21117
11.8311
13.1473
13.9276
14.1205
13.5906
12.3917
10.306
7.69815
5.22587
3.60616
2.98859
3.01815
3.44827
4.13116
4.6845
4.94343
5.09798
5.16468
5.152
5.07505
4.86401
4.47131
3.97128
3.46834
2.93154
2.40164
2.07294
1.78621
1.42181
1.03976
0.812185
0.693538
0.626873
0.583854
0.553968
0.529083
0.506757
0.48718
0.470036
0.45491
0.441434
0.429329
0.418379
0.408419
0.399313
0.390951
0.383245
0.376119
0.369514
0.363372
0.35765
0.352305
0.347307
0.342621
0.338228
0.334095
0.330211
0.326546
0.323096
0.319835
0.316759
0.313849
0.311096
0.308489
0.306019
0.303676
0.301454
0.299345
0.297342
0.295439
0.29363
0.29191
0.290273
0.288716
0.287233
0.28582
0.284474
0.283192
0.281969
0.280804
0.279692
0.278631
0.277619
0.276652
0.27573
0.274849
0.274008
0.273204
0.272436
0.271703
0.271002
0.270331
0.269691
0.269078
0.268493
0.267933
0.267397
0.266885
0.266395
0.265926
0.265478
0.265049
0.264638
0.264246
0.263869
0.26351
0.263166
0.262836
0.262521
0.262219
0.26193
0.261654
0.26139
0.261136
0.260894
0.260662
0.26044
0.260228
0.260025
0.25983
0.259644
0.259466
0.259295
0.259133
0.258976
0.258827
0.258684
0.258548
0.258417
0.258292
0.258173
0.258059
0.257949
0.257845
0.257745
0.257649
0.257558
0.257471
0.257388
0.257308
0.257232
0.257159
0.25709
0.257024
0.256961
0.256901
0.256846
0.25679
0.256717
8.55295
10.9228
12.1
12.8095
12.9417
12.4272
11.3639
9.53897
7.24758
4.99004
3.42353
2.793
2.8054
3.16957
3.76412
4.25543
4.4957
4.64172
4.70888
4.69988
4.63186
4.44373
4.0917
3.64325
3.20373
2.7455
2.31528
2.02981
1.75389
1.36987
0.963442
0.742906
0.627944
0.56119
0.51622
0.484289
0.461313
0.440902
0.422952
0.407316
0.393635
0.381557
0.370806
0.36117
0.352482
0.344608
0.33744
0.330889
0.324881
0.319356
0.314259
0.309546
0.305177
0.301121
0.297346
0.293831
0.290547
0.287481
0.284608
0.28192
0.279395
0.277027
0.274801
0.272708
0.270736
0.268878
0.267126
0.265473
0.263912
0.262437
0.261042
0.259723
0.258475
0.257292
0.256172
0.25511
0.254103
0.253148
0.252241
0.25138
0.250562
0.249785
0.249046
0.248344
0.247676
0.24704
0.246435
0.245859
0.245311
0.244789
0.244291
0.243817
0.243365
0.242934
0.242523
0.242131
0.241757
0.2414
0.24106
0.240735
0.240425
0.240129
0.239846
0.239576
0.239319
0.239072
0.238837
0.238613
0.238398
0.238193
0.237997
0.23781
0.237631
0.23746
0.237296
0.23714
0.236991
0.236848
0.236711
0.236581
0.236456
0.236337
0.236223
0.236114
0.23601
0.23591
0.235815
0.235724
0.235637
0.235554
0.235475
0.235399
0.235326
0.235257
0.235191
0.235128
0.235067
0.23501
0.234954
0.234902
0.234851
0.234803
0.234757
0.234714
0.234672
0.234632
0.234595
0.23456
0.234525
0.234478
8.00533
10.179
11.2489
11.9049
11.9901
11.4936
10.5295
8.89803
6.85854
4.78558
3.26358
2.62097
2.6275
2.94108
3.46718
3.91435
4.14037
4.27742
4.34248
4.33564
4.27454
4.10552
3.78579
3.36724
2.96112
2.56473
2.22973
1.98702
1.72873
1.34095
0.919695
0.693832
0.577523
0.509936
0.464143
0.431663
0.409724
0.39104
0.374724
0.360642
0.348446
0.337792
0.328407
0.320079
0.312643
0.305969
0.299949
0.294496
0.289539
0.28502
0.280885
0.277093
0.273605
0.270392
0.267424
0.264681
0.262137
0.259777
0.257582
0.255541
0.253637
0.251863
0.250206
0.248656
0.247206
0.245847
0.244573
0.243377
0.242255
0.2412
0.240207
0.239274
0.238394
0.237566
0.236784
0.236047
0.235352
0.234695
0.234074
0.233487
0.232931
0.232406
0.231908
0.231437
0.230991
0.230568
0.230167
0.229786
0.229425
0.229082
0.228756
0.228447
0.228153
0.227874
0.227609
0.227356
0.227116
0.226888
0.22667
0.226463
0.226266
0.226078
0.2259
0.225729
0.225567
0.225412
0.225265
0.225124
0.22499
0.224862
0.22474
0.224624
0.224513
0.224407
0.224306
0.22421
0.224118
0.22403
0.223946
0.223866
0.22379
0.223717
0.223647
0.223581
0.223517
0.223456
0.223399
0.223343
0.223291
0.22324
0.223192
0.223146
0.223102
0.22306
0.22302
0.222982
0.222946
0.222911
0.222878
0.222846
0.222816
0.222787
0.222759
0.222733
0.222708
0.222684
0.222662
0.22264
0.22262
0.222591
7.53872
9.54977
10.5277
11.1433
11.192
10.7058
9.82058
8.35428
6.52668
4.59925
3.10856
2.47228
2.47719
2.75141
3.22201
3.63347
3.8468
3.97522
4.0375
4.03208
3.97649
3.8245
3.53381
3.1409
2.74756
2.3891
2.13756
1.93987
1.70467
1.31607
0.88141
0.649665
0.532375
0.465526
0.421043
0.390073
0.369711
0.352708
0.33804
0.325531
0.314825
0.30558
0.297525
0.290454
0.284205
0.278652
0.273691
0.269239
0.265229
0.261604
0.258316
0.255326
0.252597
0.250102
0.247816
0.245718
0.243787
0.242008
0.240364
0.238847
0.23744
0.236138
0.234929
0.233806
0.232761
0.231788
0.230881
0.230035
0.229245
0.228507
0.227816
0.227169
0.226564
0.225996
0.225463
0.224963
0.224494
0.224052
0.223637
0.223246
0.222879
0.222532
0.222206
0.221897
0.221607
0.221332
0.221073
0.220829
0.220597
0.220378
0.220172
0.219976
0.21979
0.219615
0.219448
0.219291
0.219141
0.218999
0.218865
0.218737
0.218616
0.218501
0.218392
0.218288
0.218189
0.218095
0.218006
0.217921
0.217841
0.217764
0.217691
0.217621
0.217555
0.217492
0.217432
0.217375
0.217321
0.217269
0.217219
0.217172
0.217127
0.217084
0.217044
0.217005
0.216968
0.216932
0.216899
0.216866
0.216836
0.216807
0.216779
0.216752
0.216727
0.216703
0.216679
0.216658
0.216636
0.216617
0.216597
0.216579
0.216562
0.216545
0.216529
0.216514
0.2165
0.216486
0.216473
0.216461
0.21645
0.216433
7.13609
9.01984
9.92982
10.537
10.5648
10.0661
9.22951
7.88666
6.21776
4.41274
2.95254
2.34779
2.35132
2.59331
3.01911
3.40064
3.60249
3.72393
3.78231
3.77759
3.72632
3.58785
3.32176
2.95468
2.57296
2.2308
2.03199
1.88205
1.67639
1.29667
0.850594
0.611339
0.4924
0.426899
0.384993
0.356779
0.338421
0.32309
0.310055
0.299089
0.289824
0.281917
0.275107
0.269193
0.264022
0.259472
0.255447
0.251868
0.248672
0.245808
0.243232
0.240907
0.238803
0.236893
0.235156
0.233572
0.232126
0.230801
0.229587
0.228472
0.227445
0.226501
0.225629
0.224824
0.22408
0.223391
0.222752
0.222159
0.221609
0.221097
0.220621
0.220178
0.219765
0.21938
0.219021
0.218685
0.218371
0.218078
0.217803
0.217546
0.217305
0.217079
0.216867
0.216668
0.216481
0.216305
0.21614
0.215985
0.215839
0.215701
0.215572
0.21545
0.215334
0.215226
0.215123
0.215026
0.214935
0.214849
0.214767
0.21469
0.214617
0.214548
0.214483
0.214421
0.214362
0.214307
0.214254
0.214204
0.214157
0.214112
0.214069
0.214029
0.213991
0.213954
0.21392
0.213887
0.213856
0.213826
0.213798
0.213771
0.213746
0.213721
0.213698
0.213676
0.213656
0.213635
0.213617
0.213598
0.213582
0.213565
0.21355
0.213535
0.213521
0.213507
0.213494
0.213482
0.213471
0.21346
0.213449
0.213439
0.21343
0.213421
0.213412
0.213404
0.213396
0.213388
0.213381
0.213375
0.213369
0.213359
6.78323
8.5612
9.41641
10.0226
10.0358
9.51602
8.71578
7.48145
5.93908
4.2306
2.80661
2.24436
2.2449
2.45897
2.84627
3.2018
3.39325
3.50803
3.56257
3.55827
3.51043
3.38365
3.13969
2.79825
2.43406
2.10584
1.91919
1.80897
1.63753
1.27793
0.825845
0.576263
0.45582
0.392986
0.354732
0.329953
0.313703
0.300033
0.2886
0.279123
0.271221
0.26456
0.258889
0.254016
0.2498
0.246124
0.242901
0.240061
0.237545
0.235308
0.233311
0.231521
0.229912
0.228462
0.227151
0.225962
0.224884
0.223902
0.223007
0.222189
0.221441
0.220755
0.220126
0.219549
0.219016
0.218527
0.218074
0.217657
0.217271
0.216914
0.216584
0.216278
0.215993
0.21573
0.215485
0.215257
0.215045
0.214848
0.214664
0.214493
0.214333
0.214183
0.214045
0.213914
0.213793
0.213679
0.213572
0.213472
0.213379
0.213291
0.213209
0.213132
0.21306
0.212992
0.212928
0.212868
0.212812
0.212759
0.212709
0.212662
0.212618
0.212576
0.212537
0.2125
0.212465
0.212432
0.212401
0.212372
0.212344
0.212318
0.212293
0.21227
0.212248
0.212227
0.212207
0.212188
0.21217
0.212153
0.212138
0.212122
0.212108
0.212094
0.212082
0.212069
0.212058
0.212047
0.212037
0.212027
0.212017
0.212008
0.212
0.211992
0.211984
0.211977
0.21197
0.211963
0.211957
0.211951
0.211945
0.21194
0.211935
0.21193
0.211926
0.211921
0.211917
0.211913
0.211909
0.211906
0.211903
0.211897
6.31494
7.97166
8.77593
9.32746
9.32557
8.81472
8.06155
6.95142
5.56877
3.96977
2.6178
2.11405
2.10586
2.28526
2.62549
2.94744
3.12489
3.23105
3.27953
3.27522
3.23141
3.11798
2.90128
2.59559
2.26204
1.96409
1.77683
1.68554
1.55262
1.22614
0.776396
0.519004
0.403423
0.348119
0.317252
0.298653
0.285386
0.274242
0.26515
0.257766
0.251725
0.246718
0.24252
0.238962
0.235923
0.233303
0.231031
0.229049
0.227307
0.225774
0.224412
0.223205
0.222123
0.221158
0.220287
0.219506
0.218797
0.218158
0.217578
0.217049
0.216571
0.216134
0.215735
0.215371
0.215036
0.214731
0.214449
0.214192
0.213953
0.213735
0.213533
0.213348
0.213176
0.213017
0.21287
0.212736
0.212609
0.212495
0.212387
0.212288
0.212197
0.21211
0.212034
0.211958
0.211892
0.211827
0.211769
0.211714
0.211663
0.211616
0.211572
0.21153
0.211492
0.211456
0.211423
0.211392
0.211363
0.211336
0.211311
0.211288
0.211266
0.211245
0.211226
0.211208
0.211191
0.211176
0.211161
0.211148
0.211135
0.211123
0.211111
0.211101
0.211091
0.211082
0.211073
0.211065
0.211057
0.21105
0.211044
0.211037
0.211031
0.211025
0.21102
0.211015
0.211011
0.211006
0.211002
0.210998
0.210995
0.210991
0.210988
0.210985
0.210982
0.210979
0.210977
0.210974
0.210972
0.21097
0.210967
0.210966
0.210964
0.210962
0.21096
0.210959
0.210957
0.210956
0.210955
0.210953
0.210953
0.21095
5.82228
7.36718
8.1007
8.47422
8.4589
8.03796
7.37338
6.41011
5.1901
3.6773
2.4383
1.98121
1.95855
2.10421
2.39824
2.68507
2.84682
2.94293
2.98437
2.97997
2.93986
2.84003
2.65151
2.38444
2.091
1.83741
1.67005
1.53891
1.38813
1.08669
0.671822
0.449392
0.355883
0.310443
0.286291
0.272964
0.262893
0.254563
0.247881
0.242549
0.238258
0.234746
0.231832
0.229381
0.227302
0.225519
0.223981
0.222642
0.221471
0.220438
0.219527
0.218717
0.217998
0.217353
0.216776
0.216255
0.215787
0.215363
0.214981
0.214632
0.214315
0.214023
0.213757
0.213514
0.21329
0.213086
0.212899
0.212727
0.212569
0.212425
0.212292
0.21217
0.212057
0.211954
0.211859
0.211772
0.21169
0.211615
0.211545
0.211479
0.211419
0.211361
0.21131
0.211261
0.211218
0.211176
0.211138
0.211103
0.211071
0.211041
0.211013
0.210988
0.210964
0.210942
0.210922
0.210904
0.210886
0.21087
0.210856
0.210842
0.21083
0.210818
0.210808
0.210798
0.210789
0.21078
0.210772
0.210765
0.210759
0.210753
0.210747
0.210742
0.210737
0.210732
0.210728
0.210725
0.210721
0.210718
0.210715
0.210712
0.210709
0.210707
0.210705
0.210703
0.210701
0.210699
0.210698
0.210696
0.210695
0.210693
0.210692
0.210691
0.21069
0.210689
0.210688
0.210688
0.210687
0.210686
0.210685
0.210685
0.210684
0.210684
0.210683
0.210683
0.210682
0.210682
0.210681
0.210681
0.210681
0.210681
5.42423
6.89899
7.5189
7.74773
7.72488
7.40642
6.83109
5.97317
4.87834
3.46592
2.30584
1.87154
1.83707
1.96068
2.21985
2.47815
2.627
2.71504
2.7514
2.74622
2.70851
2.6181
2.44924
2.20937
1.94953
1.73793
1.59277
1.45491
1.25198
0.915524
0.569976
0.407
0.330327
0.289804
0.267945
0.25722
0.24982
0.243687
0.23875
0.234805
0.23164
0.229042
0.226884
0.22507
0.22353
0.222206
0.221057
0.220054
0.219172
0.218392
0.217697
0.217079
0.216521
0.216023
0.215568
0.215161
0.214785
0.214443
0.214127
0.213839
0.213576
0.213338
0.213121
0.212923
0.212741
0.212574
0.212419
0.212278
0.212147
0.212026
0.211915
0.211812
0.211717
0.211629
0.211546
0.21147
0.211399
0.211334
0.211275
0.211223
0.211175
0.211132
0.211092
0.211055
0.211021
0.210989
0.21096
0.210934
0.210909
0.210886
0.210865
0.210846
0.210828
0.210812
0.210797
0.210783
0.21077
0.210758
0.210747
0.210737
0.210728
0.21072
0.210712
0.210705
0.210698
0.210692
0.210687
0.210682
0.210677
0.210673
0.210669
0.210665
0.210662
0.210659
0.210656
0.210654
0.210653
0.210651
0.210649
0.210647
0.210645
0.210643
0.210642
0.21064
0.210639
0.210638
0.210637
0.210636
0.210635
0.210634
0.210634
0.210633
0.210632
0.210632
0.210631
0.210631
0.21063
0.21063
0.21063
0.210629
0.210629
0.210629
0.210629
0.210629
0.210628
0.210628
0.210628
0.210628
0.210629
0.210628
5.09342
6.50727
6.95496
7.07556
7.04831
6.8385
6.36241
5.61675
4.62675
3.29963
2.19885
1.77761
1.73626
1.84329
2.07355
2.30767
2.44535
2.5262
2.55778
2.55189
2.51593
2.43354
2.28137
2.06119
1.82644
1.65212
1.52859
1.4001
1.18377
0.828775
0.529227
0.386753
0.316053
0.277947
0.257367
0.24807
0.242548
0.237849
0.23399
0.230884
0.228364
0.226288
0.224548
0.223075
0.221808
0.220712
0.219749
0.218905
0.218152
0.217485
0.216885
0.216349
0.215862
0.215421
0.215025
0.214657
0.214333
0.21403
0.213773
0.213533
0.213321
0.213119
0.212929
0.212752
0.212588
0.212437
0.212298
0.212169
0.21205
0.211941
0.211839
0.211746
0.21166
0.211581
0.211509
0.211444
0.211385
0.211332
0.211283
0.211236
0.211189
0.211145
0.211104
0.211066
0.211031
0.210998
0.210968
0.21094
0.210915
0.210891
0.210869
0.210849
0.21083
0.210813
0.210797
0.210782
0.210768
0.210756
0.210744
0.210734
0.210724
0.210715
0.210706
0.210699
0.210692
0.210685
0.210679
0.210673
0.210668
0.210664
0.21066
0.210656
0.210652
0.210649
0.210646
0.210641
0.210635
0.210633
0.210631
0.21063
0.210629
0.210627
0.210627
0.210625
0.210625
0.210624
0.210624
0.210623
0.210622
0.210622
0.210622
0.210621
0.210621
0.210621
0.21062
0.21062
0.21062
0.21062
0.21062
0.21062
0.21062
0.21062
0.21062
0.21062
0.21062
0.21062
0.21062
0.210621
0.210621
0.210621
4.80964
6.14459
6.447
6.47535
6.44703
6.33107
5.96435
5.31159
4.40969
3.15899
2.10556
1.69709
1.65213
1.74649
1.95297
2.16666
2.29481
2.36953
2.39759
2.39132
2.35667
2.27974
2.14021
1.93608
1.71719
1.57468
1.46949
1.35494
1.14446
0.794026
0.510882
0.374545
0.306586
0.270284
0.250858
0.242553
0.238303
0.234542
0.23137
0.228781
0.226658
0.22489
0.223396
0.222115
0.221006
0.220035
0.219183
0.218425
0.217754
0.217148
0.216609
0.216115
0.215678
0.215271
0.21491
0.214575
0.214274
0.213999
0.213733
0.213488
0.213237
0.21302
0.212823
0.21265
0.212492
0.212346
0.212211
0.212087
0.211973
0.211867
0.21177
0.21168
0.211597
0.21152
0.211448
0.21138
0.211315
0.211252
0.211192
0.211138
0.211093
0.211053
0.211017
0.210983
0.210952
0.210924
0.210898
0.210873
0.210851
0.210831
0.210812
0.210795
0.210779
0.210765
0.210752
0.21074
0.210729
0.210719
0.210709
0.210701
0.210693
0.210686
0.210679
0.210673
0.210668
0.210663
0.210659
0.210655
0.210651
0.210648
0.210645
0.210642
0.21064
0.210638
0.210636
0.210635
0.210635
0.210633
0.210632
0.210631
0.21063
0.210628
0.210627
0.210626
0.210626
0.210625
0.210624
0.210624
0.210623
0.210623
0.210623
0.210622
0.210622
0.210622
0.210621
0.210621
0.210621
0.210621
0.210621
0.210622
0.210622
0.210622
0.210622
0.210623
0.210623
0.210624
0.210624
0.210626
0.210628
0.210629
4.56007
5.77965
5.95574
5.91881
5.8865
5.8509
5.59821
5.05078
4.22438
3.0415
2.0228
1.62929
1.58149
1.66415
1.85031
2.04635
2.1661
2.23523
2.25979
2.25307
2.21929
2.14729
2.01914
1.83002
1.62168
1.50331
1.41418
1.31441
1.11921
0.780924
0.500245
0.365094
0.29899
0.264669
0.246868
0.239698
0.236274
0.233078
0.230306
0.228003
0.226087
0.224468
0.223084
0.221884
0.220841
0.219919
0.219106
0.218377
0.217728
0.217138
0.21661
0.216129
0.215693
0.215295
0.21493
0.214596
0.214287
0.214
0.213736
0.213488
0.213277
0.213078
0.212901
0.21273
0.212572
0.212426
0.21229
0.212165
0.21205
0.211943
0.211844
0.211752
0.211667
0.211588
0.211514
0.211447
0.211385
0.211329
0.211278
0.211231
0.211186
0.211143
0.211104
0.211067
0.211033
0.211002
0.210973
0.210946
0.210921
0.210897
0.210876
0.210856
0.210838
0.210821
0.210805
0.210791
0.210777
0.210765
0.210753
0.210743
0.210733
0.210724
0.210715
0.210707
0.2107
0.210694
0.210687
0.210682
0.210677
0.210672
0.210668
0.210664
0.21066
0.210657
0.210653
0.210652
0.210651
0.210649
0.210647
0.210645
0.210643
0.210641
0.21064
0.210638
0.210637
0.210636
0.210635
0.210634
0.210633
0.210632
0.210632
0.210631
0.210631
0.210631
0.21063
0.21063
0.21063
0.21063
0.21063
0.21063
0.21063
0.210631
0.210632
0.210633
0.210634
0.210636
0.210639
0.210643
0.210648
0.210641
4.32503
5.40153
5.48468
5.40596
5.38053
5.41069
5.27026
4.81282
4.05836
2.93898
1.95216
1.57121
1.52015
1.59373
1.76299
1.94382
2.05621
2.12034
2.14179
2.1344
2.10134
2.03299
1.91409
1.73896
1.5413
1.43729
1.3607
1.27253
1.09181
0.766933
0.488657
0.355191
0.291679
0.259913
0.243833
0.237668
0.234838
0.232031
0.229515
0.227388
0.225597
0.224072
0.222761
0.221616
0.220609
0.219715
0.218919
0.218205
0.217561
0.216978
0.216447
0.215969
0.215529
0.215129
0.214759
0.214418
0.214106
0.213813
0.21356
0.213324
0.213132
0.212946
0.212773
0.212605
0.212449
0.212305
0.212172
0.212049
0.211937
0.211833
0.211738
0.21165
0.211571
0.211499
0.211435
0.21138
0.211334
0.211293
0.211255
0.211216
0.21117
0.211127
0.211087
0.21105
0.211015
0.210984
0.210954
0.210927
0.210902
0.210879
0.210858
0.210838
0.21082
0.210803
0.210787
0.210773
0.21076
0.210747
0.210736
0.210726
0.210717
0.210708
0.2107
0.210692
0.210686
0.210679
0.210674
0.210668
0.210664
0.210659
0.210656
0.210652
0.210649
0.210646
0.210644
0.21064
0.210634
0.210632
0.210631
0.21063
0.210629
0.210628
0.210628
0.210627
0.210627
0.210626
0.210626
0.210626
0.210626
0.210626
0.210626
0.210626
0.210626
0.210626
0.210626
0.210626
0.210626
0.210627
0.210627
0.210628
0.210628
0.210629
0.210629
0.21063
0.210631
0.210632
0.210633
0.210635
0.210641
0.210638
3.49964
3.99508
3.89688
3.7852
3.82718
4.04233
4.21171
4.05684
3.54429
2.61952
1.74092
1.39528
1.33796
1.38843
1.51412
1.65526
1.74829
1.79817
1.80923
1.79897
1.76732
1.71029
1.61956
1.48932
1.33093
1.25002
1.20449
1.12894
0.967763
0.67472
0.430797
0.323348
0.275226
0.251265
0.239692
0.235972
0.23382
0.231385
0.22903
0.227041
0.225352
0.22389
0.222627
0.221513
0.220531
0.219656
0.218878
0.218177
0.217546
0.216974
0.216456
0.21599
0.215565
0.215179
0.214821
0.214498
0.214191
0.213919
0.213651
0.213414
0.21318
0.212977
0.212787
0.212619
0.212464
0.212321
0.21219
0.212069
0.211957
0.211853
0.211757
0.211669
0.211587
0.21151
0.211438
0.211369
0.211304
0.211243
0.211187
0.211136
0.211093
0.211053
0.211017
0.210984
0.210953
0.210924
0.210898
0.210874
0.210852
0.210832
0.210813
0.210796
0.21078
0.210766
0.210753
0.210741
0.21073
0.210719
0.21071
0.210701
0.210694
0.210687
0.21068
0.210674
0.210669
0.210664
0.21066
0.210656
0.210652
0.210649
0.210646
0.210643
0.21064
0.210638
0.210636
0.210635
0.210634
0.210633
0.210631
0.21063
0.210629
0.210627
0.210627
0.210625
0.210625
0.210624
0.210624
0.210623
0.210623
0.210623
0.210623
0.210623
0.210623
0.210623
0.210623
0.210624
0.210625
0.210626
0.210626
0.210628
0.210628
0.210629
0.21063
0.210631
0.210633
0.210634
0.210636
0.210638
0.210642
0.21064
2.61779
2.56592
2.33776
2.21905
2.25616
2.5165
3.02555
3.17523
2.94723
2.2555
1.51264
1.21664
1.15855
1.19405
1.28258
1.38312
1.45691
1.49909
1.50246
1.48495
1.44924
1.40029
1.33312
1.24581
1.15025
1.08803
1.03209
0.956868
0.792435
0.535143
0.3645
0.292884
0.261295
0.245474
0.238011
0.23576
0.233818
0.231388
0.229018
0.227058
0.225391
0.22395
0.222698
0.221596
0.220619
0.219751
0.218976
0.21828
0.21765
0.217078
0.216561
0.21609
0.215661
0.215265
0.214905
0.214568
0.214267
0.213986
0.213741
0.21351
0.213307
0.213113
0.212932
0.212762
0.212603
0.212456
0.21232
0.212193
0.212076
0.211968
0.211867
0.211774
0.211687
0.211607
0.211534
0.211467
0.211405
0.211348
0.211295
0.211245
0.211197
0.211153
0.211112
0.211074
0.211038
0.211006
0.210975
0.210947
0.210921
0.210897
0.210875
0.210854
0.210835
0.210817
0.210801
0.210786
0.210772
0.210759
0.210747
0.210736
0.210726
0.210716
0.210708
0.2107
0.210692
0.210686
0.210679
0.210674
0.210668
0.210664
0.210659
0.210655
0.210651
0.210648