/*--------------------------------*- C++ -*----------------------------------*\
| =========                 |                                                 |
| \\      /  F ield         | OpenFOAM: The Open Source CFD Toolbox           |
|  \\    /   O peration     | Version:  v1912                                 |
|   \\  /    A nd           | Website:  www.openfoam.com                      |
|    \\/     M anipulation  |                                                 |
\*---------------------------------------------------------------------------*/
FoamFile
{
    version     2.0;
    format      ascii;
    class       surfaceScalarField;
    location    "40";
    object      phi;
}
// * * * * * * * * * * * * * * * * * * * * * * * * * * * * * * * * * * * * * //

dimensions      [0 3 -1 0 0 0 0];
oriented        oriented;


internalField   nonuniform List<scalar> 
28285
(
8.70047e-06
4.96619e-07
8.22887e-06
4.71602e-07
7.78113e-06
4.47746e-07
7.35612e-06
4.25007e-07
6.95278e-06
4.03333e-07
6.5701e-06
3.82682e-07
6.20709e-06
3.63007e-07
5.86283e-06
3.44269e-07
5.5364e-06
3.26424e-07
5.22697e-06
3.09435e-07
4.9337e-06
2.93264e-07
4.65583e-06
2.77875e-07
4.39259e-06
2.63234e-07
4.14329e-06
2.49308e-07
3.90722e-06
2.36063e-07
3.68375e-06
2.23471e-07
3.47225e-06
2.11501e-07
3.27212e-06
2.00126e-07
3.08281e-06
1.89317e-07
2.90376e-06
1.7905e-07
2.73446e-06
1.693e-07
2.57441e-06
1.60042e-07
2.42316e-06
1.51254e-07
2.28025e-06
1.42914e-07
2.14525e-06
1.35e-07
2.01775e-06
1.27494e-07
1.89738e-06
1.20375e-07
1.78375e-06
1.13625e-07
1.67653e-06
1.07227e-07
1.57536e-06
1.01163e-07
1.47994e-06
9.54183e-08
1.38997e-06
8.99765e-08
1.30515e-06
8.48231e-08
1.2252e-06
7.9944e-08
1.14988e-06
7.53258e-08
1.07892e-06
7.09557e-08
1.0121e-06
6.68213e-08
9.49188e-07
6.29109e-08
8.89974e-07
5.92132e-08
8.34257e-07
5.57178e-08
7.81842e-07
5.24141e-08
7.3255e-07
4.92928e-08
6.86205e-07
4.63443e-08
6.42645e-07
4.356e-08
6.01714e-07
4.09312e-08
5.63264e-07
3.84502e-08
5.27155e-07
3.61089e-08
4.93254e-07
3.39005e-08
4.61437e-07
3.18176e-08
4.31583e-07
2.9854e-08
4.0358e-07
2.8003e-08
3.77321e-07
2.6259e-08
3.52705e-07
2.4616e-08
3.29636e-07
2.30687e-08
3.08024e-07
2.1612e-08
2.87783e-07
2.02409e-08
2.68833e-07
1.89508e-08
2.51095e-07
1.77373e-08
2.34499e-07
1.65961e-08
2.18976e-07
1.55233e-08
2.04461e-07
1.45151e-08
1.90893e-07
1.35679e-08
1.78215e-07
1.26782e-08
1.66372e-07
1.18429e-08
1.55313e-07
1.10588e-08
1.4499e-07
1.03231e-08
1.35357e-07
9.63296e-09
1.26371e-07
8.98583e-09
1.17992e-07
8.37918e-09
1.10181e-07
7.8107e-09
1.02903e-07
7.27815e-09
9.61237e-08
6.77943e-09
8.98111e-08
6.31256e-09
8.39355e-08
5.87565e-09
7.84685e-08
5.46691e-09
7.33839e-08
5.08468e-09
6.86565e-08
4.72735e-09
6.42631e-08
4.39344e-09
6.01816e-08
4.08151e-09
5.63913e-08
3.79022e-09
5.2873e-08
3.51832e-09
4.96084e-08
3.26461e-09
4.65804e-08
3.02796e-09
4.37731e-08
2.80732e-09
4.11714e-08
2.60167e-09
3.87614e-08
2.41009e-09
3.65297e-08
2.23167e-09
3.44641e-08
2.06559e-09
3.2553e-08
1.91105e-09
3.07857e-08
1.76731e-09
2.9152e-08
1.63369e-09
2.76425e-08
1.50951e-09
2.62484e-08
1.39417e-09
2.49613e-08
1.28709e-09
2.37735e-08
1.18773e-09
2.2678e-08
1.09556e-09
2.16679e-08
1.01013e-09
2.07369e-08
9.30969e-10
1.98792e-08
8.57672e-10
1.90894e-08
7.89836e-10
1.83623e-08
7.27098e-10
1.76932e-08
6.69112e-10
1.70776e-08
6.15556e-10
1.65115e-08
5.66135e-10
1.59909e-08
5.20563e-10
1.55123e-08
4.78583e-10
1.50724e-08
4.39952e-10
1.46679e-08
4.04446e-10
1.42961e-08
3.71861e-10
1.39541e-08
3.41997e-10
1.36394e-08
3.14687e-10
1.33496e-08
2.89753e-10
1.30826e-08
2.67075e-10
1.28361e-08
2.46466e-10
1.26082e-08
2.27915e-10
1.23971e-08
2.11077e-10
1.22008e-08
1.96321e-10
1.20181e-08
1.82679e-10
1.18464e-08
1.71704e-10
1.16859e-08
1.60486e-10
1.15322e-08
1.53758e-10
1.13884e-08
1.43797e-10
1.1246e-08
1.42338e-10
1.11141e-08
1.31949e-10
1.09766e-08
1.37496e-10
1.0852e-08
1.24576e-10
1.07128e-08
1.39193e-10
1.05907e-08
1.22119e-10
1.04466e-08
1.44125e-10
1.03204e-08
1.26163e-10
1.01677e-08
1.52665e-10
1.00351e-08
1.32615e-10
9.87131e-09
1.63803e-10
9.73362e-09
1.37689e-10
9.56015e-09
1.73475e-10
9.42564e-09
1.34506e-10
9.25167e-09
1.73973e-10
9.13877e-09
1.12898e-10
8.98576e-09
1.53017e-10
8.92045e-09
6.53031e-11
8.82125e-09
9.92034e-11
8.80947e-09
1.17829e-11
8.77304e-09
3.64309e-11
8.84531e-09
-7.22731e-11
8.89907e-09
-5.37597e-11
9.01799e-09
-1.18918e-10
9.11724e-09
-9.92586e-11
9.25593e-09
-1.3869e-10
9.37312e-09
-1.17183e-10
9.51198e-09
-1.38857e-10
9.62873e-09
-1.16755e-10
9.75627e-09
-1.27543e-10
9.86296e-09
-1.06689e-10
9.97488e-09
-1.11914e-10
1.00686e-08
-9.37195e-11
1.01657e-08
-9.7055e-11
1.02485e-08
-8.28887e-11
1.03357e-08
-8.71103e-11
1.04175e-08
-8.18536e-11
1.05072e-08
-8.9649e-11
1.06503e-08
-1.43132e-10
1.0812e-08
-1.61698e-10
1.36713e-08
-2.85936e-09
-2.87134e-09
8.68465e-06
9.92363e-07
8.21388e-06
9.42371e-07
7.76692e-06
8.94701e-07
7.34267e-06
8.49262e-07
6.94005e-06
8.05953e-07
6.55805e-06
7.64686e-07
6.19568e-06
7.25371e-07
5.85202e-06
6.87926e-07
5.52618e-06
6.52267e-07
5.2173e-06
6.1832e-07
4.92455e-06
5.86006e-07
4.64717e-06
5.55256e-07
4.38441e-06
5.25999e-07
4.13555e-06
4.9817e-07
3.89991e-06
4.71705e-07
3.67683e-06
4.46542e-07
3.46571e-06
4.22624e-07
3.26594e-06
3.99893e-07
3.07697e-06
3.78295e-07
2.89824e-06
3.57779e-07
2.72924e-06
3.38296e-07
2.56949e-06
3.19796e-07
2.4185e-06
3.02236e-07
2.27585e-06
2.8557e-07
2.14109e-06
2.69758e-07
2.01383e-06
2.54758e-07
1.89367e-06
2.40533e-07
1.78025e-06
2.27045e-07
1.67322e-06
2.1426e-07
1.57224e-06
2.02144e-07
1.47699e-06
1.90664e-07
1.38718e-06
1.7979e-07
1.30251e-06
1.69493e-07
1.22271e-06
1.59743e-07
1.14752e-06
1.50515e-07
1.07669e-06
1.41783e-07
1.00999e-06
1.33521e-07
9.47195e-07
1.25707e-07
8.8809e-07
1.18319e-07
8.32473e-07
1.11334e-07
7.80155e-07
1.04733e-07
7.30952e-07
9.84958e-08
6.84692e-07
9.26041e-08
6.41211e-07
8.70405e-08
6.00355e-07
8.17877e-08
5.61975e-07
7.683e-08
5.25932e-07
7.21518e-08
4.92094e-07
6.77389e-08
4.60335e-07
6.35769e-08
4.30535e-07
5.96532e-08
4.02584e-07
5.59546e-08
3.76373e-07
5.24697e-08
3.51802e-07
4.91867e-08
3.28776e-07
4.6095e-08
3.07204e-07
4.31842e-08
2.87e-07
4.04446e-08
2.68084e-07
3.78667e-08
2.50379e-07
3.54419e-08
2.33814e-07
3.31616e-08
2.18319e-07
3.1018e-08
2.03831e-07
2.90033e-08
1.90288e-07
2.71106e-08
1.77634e-07
2.53329e-08
1.65813e-07
2.36638e-08
1.54774e-07
2.20971e-08
1.4447e-07
2.0627e-08
1.34855e-07
1.9248e-08
1.25886e-07
1.79549e-08
1.17523e-07
1.67428e-08
1.09727e-07
1.56069e-08
1.02462e-07
1.45427e-08
9.56952e-08
1.35462e-08
8.93944e-08
1.26133e-08
8.35297e-08
1.17403e-08
7.8073e-08
1.09236e-08
7.29979e-08
1.01598e-08
6.82794e-08
9.44585e-09
6.38942e-08
8.77863e-09
5.98203e-08
8.15535e-09
5.60372e-08
7.57333e-09
5.25255e-08
7.03003e-09
4.9267e-08
6.52308e-09
4.62448e-08
6.05022e-09
4.34428e-08
5.60935e-09
4.0846e-08
5.19844e-09
3.84405e-08
4.81562e-09
3.6213e-08
4.45912e-09
3.41513e-08
4.12726e-09
3.22439e-08
3.81847e-09
3.048e-08
3.53127e-09
2.88494e-08
3.26427e-09
2.73427e-08
3.01615e-09
2.59512e-08
2.78569e-09
2.46666e-08
2.57173e-09
2.34811e-08
2.37319e-09
2.23876e-08
2.18904e-09
2.13794e-08
2.01833e-09
2.04502e-08
1.86016e-09
1.95942e-08
1.7137e-09
1.88059e-08
1.57816e-09
1.80802e-08
1.4528e-09
1.74123e-08
1.33694e-09
1.6798e-08
1.22993e-09
1.62329e-08
1.13118e-09
1.57134e-08
1.04013e-09
1.52357e-08
9.5625e-10
1.47966e-08
8.79063e-10
1.43929e-08
8.08119e-10
1.40218e-08
7.43012e-10
1.36804e-08
6.83343e-10
1.33663e-08
6.28777e-10
1.30771e-08
5.7896e-10
1.28105e-08
5.33649e-10
1.25645e-08
4.92475e-10
1.2337e-08
4.55406e-10
1.21263e-08
4.21778e-10
1.19304e-08
3.92278e-10
1.1748e-08
3.65064e-10
1.15766e-08
3.43069e-10
1.14163e-08
3.20809e-10
1.12629e-08
3.07126e-10
1.11191e-08
2.87586e-10
1.09773e-08
2.84204e-10
1.08452e-08
2.64021e-10
1.07082e-08
2.74453e-10
1.05834e-08
2.49389e-10
1.04448e-08
2.77791e-10
1.03224e-08
2.44557e-10
1.01789e-08
2.87625e-10
1.00524e-08
2.52696e-10
9.90035e-09
3.04677e-10
9.76733e-09
2.65642e-10
9.60421e-09
3.26917e-10
9.46608e-09
2.75823e-10
9.29334e-09
3.46207e-10
9.15837e-09
2.69479e-10
8.98521e-09
3.47137e-10
8.87184e-09
2.26264e-10
8.71969e-09
3.05167e-10
8.65394e-09
1.3105e-10
8.55559e-09
1.97553e-10
8.5433e-09
2.40797e-11
8.50771e-09
7.2016e-11
8.5795e-09
-1.44061e-10
8.63392e-09
-1.0818e-10
8.75226e-09
-2.37261e-10
8.85205e-09
-1.99042e-10
8.99014e-09
-2.7678e-10
9.10775e-09
-2.34793e-10
9.24601e-09
-2.77124e-10
9.36313e-09
-2.33867e-10
9.49011e-09
-2.54527e-10
9.59712e-09
-2.13695e-10
9.70852e-09
-2.23312e-10
9.80253e-09
-1.87738e-10
9.89911e-09
-1.9363e-10
9.9823e-09
-1.66084e-10
1.0069e-08
-1.73762e-10
1.01512e-08
-1.64052e-10
1.02404e-08
-1.7891e-10
1.03838e-08
-2.86537e-10
1.05493e-08
-3.27149e-10
1.34269e-08
-5.73698e-09
-5.76044e-09
8.67582e-06
1.48764e-06
8.2055e-06
1.4127e-06
7.75896e-06
1.34124e-06
7.33511e-06
1.27312e-06
6.93287e-06
1.20819e-06
6.55122e-06
1.14633e-06
6.1892e-06
1.08739e-06
5.84587e-06
1.03126e-06
5.52033e-06
9.77803e-07
5.21174e-06
9.26912e-07
4.91927e-06
8.78471e-07
4.64216e-06
8.32373e-07
4.37964e-06
7.88515e-07
4.13101e-06
7.46797e-07
3.8956e-06
7.07123e-07
3.67274e-06
6.69402e-07
3.46181e-06
6.33546e-07
3.26224e-06
5.9947e-07
3.07344e-06
5.67093e-07
2.89488e-06
5.36338e-07
2.72604e-06
5.07131e-07
2.56644e-06
4.79398e-07
2.4156e-06
4.53074e-07
2.27308e-06
4.2809e-07
2.13846e-06
4.04386e-07
2.01131e-06
3.819e-07
1.89127e-06
3.60575e-07
1.77796e-06
3.40356e-07
1.67103e-06
3.2119e-07
1.57015e-06
3.03027e-07
1.47499e-06
2.85818e-07
1.38527e-06
2.69517e-07
1.30068e-06
2.5408e-07
1.22096e-06
2.39465e-07
1.14584e-06
2.25632e-07
1.07508e-06
2.12541e-07
1.00845e-06
2.00156e-07
9.45709e-07
1.88443e-07
8.86661e-07
1.77367e-07
8.31099e-07
1.66896e-07
7.78831e-07
1.57001e-07
7.29676e-07
1.47651e-07
6.83461e-07
1.38819e-07
6.40023e-07
1.30479e-07
5.99207e-07
1.22604e-07
5.60864e-07
1.15172e-07
5.24857e-07
1.08159e-07
4.91052e-07
1.01544e-07
4.59323e-07
9.53051e-08
4.29553e-07
8.94231e-08
4.01629e-07
8.38788e-08
3.75444e-07
7.86547e-08
3.50898e-07
7.37332e-08
3.27894e-07
6.90986e-08
3.06343e-07
6.4735e-08
2.8616e-07
6.06282e-08
2.67263e-07
5.67638e-08
2.49576e-07
5.31289e-08
2.33027e-07
4.97106e-08
2.17547e-07
4.64972e-08
2.03074e-07
4.34771e-08
1.89544e-07
4.06399e-08
1.76902e-07
3.7975e-08
1.65093e-07
3.54729e-08
1.54066e-07
3.31243e-08
1.43772e-07
3.09206e-08
1.34167e-07
2.88534e-08
1.25207e-07
2.6915e-08
1.16852e-07
2.50979e-08
1.09064e-07
2.33951e-08
1.01806e-07
2.18e-08
9.50464e-08
2.03062e-08
8.8752e-08
1.89077e-08
8.28933e-08
1.7599e-08
7.74422e-08
1.63747e-08
7.23722e-08
1.52298e-08
6.76585e-08
1.41595e-08
6.32778e-08
1.31593e-08
5.92081e-08
1.2225e-08
5.54289e-08
1.13525e-08
5.19208e-08
1.05381e-08
4.86657e-08
9.77819e-09
4.56465e-08
9.06937e-09
4.28474e-08
8.40848e-09
4.02533e-08
7.79252e-09
3.78503e-08
7.21867e-09
3.56251e-08
6.68426e-09
3.35656e-08
6.18679e-09
3.16602e-08
5.72392e-09
2.9898e-08
5.2934e-09
2.82692e-08
4.89315e-09
2.67641e-08
4.52122e-09
2.5374e-08
4.17575e-09
2.40907e-08
3.85503e-09
2.29065e-08
3.5574e-09
2.18142e-08
3.28136e-09
2.08071e-08
3.02546e-09
1.98788e-08
2.78837e-09
1.90237e-08
2.56883e-09
1.82362e-08
2.36565e-09
1.75113e-08
2.17774e-09
1.68442e-08
2.00406e-09
1.62304e-08
1.84366e-09
1.5666e-08
1.69564e-09
1.5147e-08
1.55914e-09
1.46698e-08
1.43341e-09
1.42312e-08
1.31771e-09
1.38279e-08
1.21137e-09
1.34572e-08
1.11377e-09
1.31162e-08
1.02433e-09
1.28024e-08
9.42538e-10
1.25135e-08
8.67865e-10
1.22472e-08
7.99947e-10
1.20015e-08
7.38231e-10
1.17742e-08
6.82666e-10
1.15637e-08
6.32268e-10
1.13679e-08
5.88039e-10
1.11857e-08
5.47275e-10
1.10145e-08
5.14266e-10
1.08544e-08
4.80992e-10
1.07011e-08
4.60342e-10
1.05574e-08
4.31276e-10
1.04157e-08
4.25912e-10
1.02837e-08
3.96058e-10
1.01469e-08
4.11215e-10
1.00221e-08
3.7425e-10
9.88374e-09
4.1613e-10
9.76116e-09
3.67133e-10
9.61798e-09
4.30805e-10
9.49124e-09
3.79441e-10
9.33961e-09
4.56307e-10
9.2063e-09
3.98954e-10
9.04365e-09
4.89564e-10
8.90515e-09
4.14322e-10
8.73299e-09
5.18368e-10
8.59758e-09
4.04893e-10
8.4251e-09
5.19609e-10
8.31124e-09
3.40125e-10
8.15989e-09
4.56522e-10
8.09363e-09
1.97307e-10
7.99608e-09
2.951e-10
7.98323e-09
3.69332e-11
7.94852e-09
1.06727e-10
8.01985e-09
-2.15386e-10
8.07493e-09
-1.63265e-10
8.19278e-09
-3.55115e-10
8.29304e-09
-2.993e-10
8.43068e-09
-4.14417e-10
8.5486e-09
-3.52717e-10
8.68647e-09
-4.14995e-10
8.80378e-09
-3.51176e-10
8.93044e-09
-3.81183e-10
9.03756e-09
-3.2082e-10
9.14869e-09
-3.34441e-10
9.24279e-09
-2.81838e-10
9.33914e-09
-2.89979e-10
9.42241e-09
-2.4936e-10
9.50887e-09
-2.60213e-10
9.59118e-09
-2.46361e-10
9.68032e-09
-2.68056e-10
9.82373e-09
-4.29946e-10
9.99248e-09
-4.95897e-10
1.28584e-08
-8.60291e-09
-8.642e-09
8.67019e-06
1.98265e-06
8.20012e-06
1.88277e-06
7.75382e-06
1.78753e-06
7.33019e-06
1.69675e-06
6.92817e-06
1.61022e-06
6.54673e-06
1.52777e-06
6.1849e-06
1.44922e-06
5.84176e-06
1.37441e-06
5.51639e-06
1.30316e-06
5.20797e-06
1.23534e-06
4.91566e-06
1.17078e-06
4.63869e-06
1.10934e-06
4.37632e-06
1.05089e-06
4.12783e-06
9.95289e-07
3.89254e-06
9.42413e-07
3.6698e-06
8.9214e-07
3.45899e-06
8.44353e-07
3.25952e-06
7.98938e-07
3.07083e-06
7.55789e-07
2.89237e-06
7.148e-07
2.72362e-06
6.75873e-07
2.56411e-06
6.38913e-07
2.41335e-06
6.03829e-07
2.27091e-06
5.70532e-07
2.13636e-06
5.3894e-07
2.00929e-06
5.08972e-07
1.88931e-06
4.80552e-07
1.77606e-06
4.53604e-07
1.66919e-06
4.28061e-07
1.56836e-06
4.03854e-07
1.47326e-06
3.80919e-07
1.38359e-06
3.59194e-07
1.29904e-06
3.38621e-07
1.21937e-06
3.19143e-07
1.14429e-06
3.00706e-07
1.07357e-06
2.8326e-07
1.00698e-06
2.66754e-07
9.44276e-07
2.51143e-07
8.85261e-07
2.36382e-07
8.2973e-07
2.22427e-07
7.77492e-07
2.09239e-07
7.28365e-07
1.96778e-07
6.82176e-07
1.85007e-07
6.38763e-07
1.73892e-07
5.9797e-07
1.63397e-07
5.59649e-07
1.53493e-07
5.23663e-07
1.44146e-07
4.89877e-07
1.3533e-07
4.58167e-07
1.27015e-07
4.28414e-07
1.19176e-07
4.00506e-07
1.11787e-07
3.74336e-07
1.04824e-07
3.49804e-07
9.82654e-08
3.26814e-07
9.20888e-08
3.05276e-07
8.62733e-08
2.85104e-07
8.08e-08
2.66218e-07
7.56498e-08
2.48541e-07
7.08055e-08
2.32002e-07
6.62498e-08
2.16532e-07
6.19673e-08
2.02066e-07
5.79424e-08
1.88545e-07
5.41611e-08
1.75911e-07
5.06095e-08
1.64109e-07
4.72749e-08
1.53088e-07
4.41449e-08
1.42801e-07
4.1208e-08
1.33201e-07
3.84531e-08
1.24246e-07
3.58697e-08
1.15896e-07
3.34481e-08
1.08112e-07
3.11787e-08
1.0086e-07
2.90528e-08
9.41037e-08
2.7062e-08
8.78132e-08
2.51983e-08
8.1958e-08
2.34542e-08
7.65102e-08
2.18225e-08
7.14433e-08
2.02967e-08
6.67325e-08
1.88703e-08
6.23545e-08
1.75374e-08
5.82874e-08
1.62922e-08
5.45105e-08
1.51294e-08
5.10045e-08
1.40441e-08
4.77514e-08
1.30313e-08
4.47342e-08
1.20866e-08
4.19368e-08
1.12059e-08
3.93443e-08
1.0385e-08
3.69428e-08
9.62021e-09
3.4719e-08
8.908e-09
3.26608e-08
8.24503e-09
3.07566e-08
7.62816e-09
2.89956e-08
7.0544e-09
2.73677e-08
6.521e-09
2.58636e-08
6.02533e-09
2.44744e-08
5.56493e-09
2.31919e-08
5.1375e-09
2.20085e-08
4.74086e-09
2.09169e-08
4.37299e-09
1.99104e-08
4.03195e-09
1.89828e-08
3.71598e-09
1.81282e-08
3.42341e-09
1.73412e-08
3.15263e-09
1.66167e-08
2.90221e-09
1.595e-08
2.67076e-09
1.53367e-08
2.45699e-09
1.47726e-08
2.25972e-09
1.42539e-08
2.07782e-09
1.37771e-08
1.91026e-09
1.33387e-08
1.75607e-09
1.29357e-08
1.61435e-09
1.25652e-08
1.48429e-09
1.22245e-08
1.3651e-09
1.19109e-08
1.2561e-09
1.16222e-08
1.15659e-09
1.1356e-08
1.06608e-09
1.11104e-08
9.83834e-10
1.08833e-08
9.09784e-10
1.0673e-08
8.42631e-10
1.04773e-08
7.8368e-10
1.02952e-08
7.29386e-10
1.01241e-08
6.85355e-10
9.96401e-09
6.41103e-10
9.8109e-09
6.1345e-10
9.66724e-09
5.74941e-10
9.52567e-09
5.67478e-10
9.39358e-09
5.28154e-10
9.25704e-09
5.47756e-10
9.13199e-09
4.99298e-10
8.99399e-09
5.54126e-10
8.87109e-09
4.90037e-10
8.72837e-09
5.73528e-10
8.60118e-09
5.06632e-10
8.45011e-09
6.07369e-10
8.31623e-09
5.32834e-10
8.15429e-09
6.51511e-10
8.01509e-09
5.53522e-10
7.84379e-09
6.89662e-10
7.70754e-09
5.41148e-10
7.53612e-09
6.91029e-10
7.4213e-09
4.54939e-10
7.27117e-09
6.06659e-10
7.20391e-09
2.64561e-10
7.10764e-09
3.91371e-10
7.09372e-09
5.08509e-11
7.06033e-09
1.40124e-10
7.13076e-09
-2.85821e-10
7.18693e-09
-2.19438e-10
7.30395e-09
-4.72129e-10
7.40504e-09
-4.00391e-10
7.54195e-09
-5.51328e-10
7.66048e-09
-4.71242e-10
7.79775e-09
-5.5227e-10
7.91548e-09
-4.68902e-10
8.04166e-09
-5.07361e-10
8.14907e-09
-4.28234e-10
8.25982e-09
-4.45189e-10
8.35413e-09
-3.76153e-10
8.45016e-09
-3.86009e-10
8.53363e-09
-3.32831e-10
8.61979e-09
-3.4637e-10
8.70233e-09
-3.28903e-10
8.79123e-09
-3.5695e-10
8.93468e-09
-5.73396e-10
9.1057e-09
-6.66918e-10
1.18587e-08
-1.13559e-08
-1.14141e-08
8.6658e-06
2.47749e-06
8.19589e-06
2.35268e-06
7.74976e-06
2.23367e-06
7.32628e-06
2.12023e-06
6.9244e-06
2.0121e-06
6.54309e-06
1.90907e-06
6.18139e-06
1.81092e-06
5.83837e-06
1.71743e-06
5.51312e-06
1.62841e-06
5.20481e-06
1.54365e-06
4.9126e-06
1.46298e-06
4.63574e-06
1.38621e-06
4.37346e-06
1.31317e-06
4.12505e-06
1.24369e-06
3.88985e-06
1.17762e-06
3.66719e-06
1.1148e-06
3.45646e-06
1.05508e-06
3.25707e-06
9.98334e-07
3.06844e-06
9.44415e-07
2.89004e-06
8.93196e-07
2.72136e-06
8.44554e-07
2.56191e-06
7.98369e-07
2.41121e-06
7.54528e-07
2.26882e-06
7.12921e-07
2.13431e-06
6.73445e-07
2.00729e-06
6.35997e-07
1.88736e-06
6.00483e-07
1.77415e-06
5.66811e-07
1.66732e-06
5.34893e-07
1.56653e-06
5.04644e-07
1.47146e-06
4.75985e-07
1.38182e-06
4.48837e-07
1.29731e-06
4.2313e-07
1.21767e-06
3.9879e-07
1.14262e-06
3.75752e-07
1.07193e-06
3.53951e-07
1.00536e-06
3.33327e-07
9.42679e-07
3.1382e-07
8.83687e-07
2.95374e-07
8.28178e-07
2.77937e-07
7.7596e-07
2.61457e-07
7.26852e-07
2.45886e-07
6.80681e-07
2.31178e-07
6.37285e-07
2.17288e-07
5.96508e-07
2.04175e-07
5.58202e-07
1.91798e-07
5.2223e-07
1.80119e-07
4.88457e-07
1.69102e-07
4.5676e-07
1.58712e-07
4.27019e-07
1.48917e-07
3.99122e-07
1.39684e-07
3.72963e-07
1.30984e-07
3.4844e-07
1.22788e-07
3.25459e-07
1.1507e-07
3.0393e-07
1.07803e-07
2.83766e-07
1.00964e-07
2.64888e-07
9.45282e-08
2.47218e-07
8.84749e-08
2.30686e-07
8.27823e-08
2.15222e-07
7.7431e-08
2.00763e-07
7.24017e-08
1.87247e-07
6.76767e-08
1.74618e-07
6.32388e-08
1.62821e-07
5.90721e-08
1.51805e-07
5.5161e-08
1.41522e-07
5.14912e-08
1.31926e-07
4.80487e-08
1.22975e-07
4.48207e-08
1.14628e-07
4.17947e-08
1.06848e-07
3.8959e-08
9.95984e-08
3.63026e-08
9.28454e-08
3.38149e-08
8.65576e-08
3.14861e-08
8.0705e-08
2.93068e-08
7.52595e-08
2.7268e-08
7.01948e-08
2.53614e-08
6.54861e-08
2.35791e-08
6.111e-08
2.19135e-08
5.70446e-08
2.03576e-08
5.32694e-08
1.89047e-08
4.9765e-08
1.75484e-08
4.65133e-08
1.62829e-08
4.34974e-08
1.51026e-08
4.07013e-08
1.4002e-08
3.811e-08
1.29763e-08
3.57095e-08
1.20207e-08
3.34868e-08
1.11307e-08
3.14295e-08
1.03023e-08
2.95261e-08
9.53153e-09
2.77659e-08
8.81461e-09
2.61388e-08
8.14811e-09
2.46354e-08
7.52875e-09
2.32468e-08
6.95346e-09
2.1965e-08
6.41938e-09
2.07821e-08
5.92377e-09
1.96909e-08
5.4641e-09
1.86849e-08
5.03797e-09
1.77577e-08
4.64316e-09
1.69036e-08
4.27758e-09
1.6117e-08
3.93925e-09
1.53928e-08
3.62634e-09
1.47264e-08
3.33713e-09
1.41134e-08
3.07002e-09
1.35496e-08
2.82354e-09
1.30312e-08
2.59625e-09
1.25545e-08
2.38689e-09
1.21164e-08
2.19422e-09
1.17136e-08
2.01715e-09
1.13432e-08
1.85464e-09
1.10026e-08
1.70571e-09
1.06892e-08
1.56951e-09
1.04006e-08
1.44517e-09
1.01346e-08
1.33208e-09
9.88913e-09
1.22933e-09
9.66211e-09
1.1368e-09
9.45184e-09
1.05291e-09
9.25629e-09
9.79232e-10
9.07424e-09
9.11433e-10
8.90324e-09
8.56359e-10
8.74316e-09
8.01177e-10
8.59015e-09
7.6646e-10
8.44646e-09
7.18632e-10
8.30505e-09
7.08885e-10
8.17281e-09
6.60397e-10
8.03656e-09
6.84008e-10
7.91119e-09
6.24672e-10
7.77367e-09
6.91646e-10
7.65023e-09
6.13476e-10
7.50816e-09
7.15599e-10
7.38026e-09
6.3453e-10
7.23001e-09
7.57618e-10
7.09524e-09
6.676e-10
6.93431e-09
8.12447e-10
6.79401e-09
6.93819e-10
6.62397e-09
8.59705e-10
6.4864e-09
6.78719e-10
6.31649e-09
8.60932e-10
6.20018e-09
5.71254e-10
6.05179e-09
7.55049e-10
5.98294e-09
3.33407e-10
5.88851e-09
4.85806e-10
5.87295e-09
6.64038e-11
5.84145e-09
1.71624e-10
5.91045e-09
-3.54818e-10
5.96824e-09
-2.77231e-10
6.08396e-09
-5.87844e-10
6.18633e-09
-5.02758e-10
6.32215e-09
-6.87151e-10
6.44163e-09
-5.90722e-10
6.57803e-09
-6.88671e-10
6.69645e-09
-5.87318e-10
6.82194e-09
-6.32856e-10
6.92985e-09
-5.36146e-10
7.04006e-09
-5.554e-10
7.13476e-09
-4.70849e-10
7.23034e-09
-4.81592e-10
7.31416e-09
-4.16649e-10
7.39989e-09
-4.32101e-10
7.48283e-09
-4.11842e-10
7.57131e-09
-4.45433e-10
7.71481e-09
-7.16891e-10
7.88678e-09
-8.38887e-10
1.03671e-08
-1.38362e-08
-1.39133e-08
8.66184e-06
2.9722e-06
8.19206e-06
2.82246e-06
7.74604e-06
2.67969e-06
7.32268e-06
2.54359e-06
6.92091e-06
2.41387e-06
6.53971e-06
2.29027e-06
6.17811e-06
2.17252e-06
5.83518e-06
2.06036e-06
5.51002e-06
1.95356e-06
5.20179e-06
1.85188e-06
4.90967e-06
1.7551e-06
4.63288e-06
1.663e-06
4.37068e-06
1.57537e-06
4.12235e-06
1.49202e-06
3.88721e-06
1.41276e-06
3.66461e-06
1.33739e-06
3.45394e-06
1.26575e-06
3.2546e-06
1.19767e-06
3.06603e-06
1.13299e-06
2.88769e-06
1.07154e-06
2.71906e-06
1.01319e-06
2.55965e-06
9.57778e-07
2.40899e-06
9.05184e-07
2.26664e-06
8.55269e-07
2.13218e-06
8.0791e-07
2.00519e-06
7.62984e-07
1.88529e-06
7.20379e-07
1.77212e-06
6.79983e-07
1.66532e-06
6.41692e-07
1.56456e-06
6.05403e-07
1.46953e-06
5.71021e-07
1.37991e-06
5.38454e-07
1.29543e-06
5.07613e-07
1.2158e-06
4.78413e-07
1.14078e-06
4.50775e-07
1.07011e-06
4.24622e-07
1.00356e-06
3.99879e-07
9.40901e-07
3.76477e-07
8.81927e-07
3.54348e-07
8.26435e-07
3.33429e-07
7.74233e-07
3.13658e-07
7.2514e-07
2.94979e-07
6.78984e-07
2.77334e-07
6.35601e-07
2.60671e-07
5.94837e-07
2.44939e-07
5.56544e-07
2.30091e-07
5.20583e-07
2.1608e-07
4.86821e-07
2.02864e-07
4.55134e-07
1.90399e-07
4.25402e-07
1.78648e-07
3.97515e-07
1.67571e-07
3.71364e-07
1.57135e-07
3.46849e-07
1.47302e-07
3.23876e-07
1.38043e-07
3.02353e-07
1.29325e-07
2.82196e-07
1.21121e-07
2.63324e-07
1.134e-07
2.45661e-07
1.06138e-07
2.29134e-07
9.93093e-08
2.13675e-07
9.28896e-08
1.99221e-07
8.68561e-08
1.8571e-07
8.11878e-08
1.73085e-07
7.58639e-08
1.61291e-07
7.08652e-08
1.50279e-07
6.61733e-08
1.4e-07
6.17707e-08
1.30407e-07
5.7641e-08
1.21459e-07
5.37685e-08
1.13116e-07
5.01383e-08
1.05338e-07
4.67366e-08
9.8091e-08
4.35498e-08
9.13405e-08
4.05655e-08
8.50548e-08
3.77717e-08
7.92043e-08
3.51573e-08
7.37608e-08
3.27115e-08
6.86979e-08
3.04243e-08
6.39909e-08
2.82861e-08
5.96164e-08
2.6288e-08
5.55525e-08
2.44215e-08
5.17786e-08
2.26785e-08
4.82756e-08
2.10515e-08
4.50251e-08
1.95334e-08
4.20103e-08
1.81174e-08
3.92152e-08
1.67971e-08
3.66249e-08
1.55666e-08
3.42253e-08
1.44202e-08
3.20035e-08
1.33526e-08
2.99469e-08
1.23589e-08
2.80443e-08
1.14342e-08
2.62848e-08
1.05741e-08
2.46583e-08
9.77458e-09
2.31555e-08
9.03158e-09
2.17675e-08
8.34146e-09
2.04861e-08
7.70076e-09
1.93036e-08
7.10621e-09
1.8213e-08
6.55478e-09
1.72073e-08
6.04359e-09
1.62805e-08
5.56997e-09
1.54267e-08
5.13141e-09
1.46404e-08
4.72554e-09
1.39166e-08
4.35018e-09
1.32505e-08
4.00324e-09
1.26377e-08
3.68281e-09
1.20741e-08
3.38713e-09
1.15559e-08
3.11447e-09
1.10794e-08
2.86332e-09
1.06415e-08
2.6322e-09
1.02388e-08
2.41978e-09
9.86862e-09
2.22483e-09
9.52815e-09
2.04618e-09
9.21487e-09
1.8828e-09
8.92639e-09
1.73365e-09
8.66049e-09
1.59798e-09
8.4151e-09
1.47472e-09
8.18817e-09
1.36373e-09
7.97797e-09
1.26311e-09
7.78249e-09
1.1747e-09
7.6005e-09
1.09343e-09
7.42957e-09
1.02728e-09
7.26951e-09
9.61238e-10
7.11661e-09
9.1936e-10
6.97285e-09
8.62393e-10
6.83165e-09
8.5009e-10
6.69917e-09
7.92871e-10
6.5633e-09
8.1988e-10
6.43745e-09
7.50523e-10
6.30057e-09
8.28524e-10
6.17637e-09
7.37674e-10
6.03519e-09
8.56787e-10
5.90629e-09
7.63423e-10
5.75715e-09
9.06762e-10
5.62114e-09
8.03608e-10
5.46158e-09
9.72009e-10
5.31975e-09
8.35643e-10
5.15141e-09
1.02805e-09
5.012e-09
8.18128e-10
4.84416e-09
1.02877e-09
4.72573e-09
6.89683e-10
4.57973e-09
9.0105e-10
4.50862e-09
4.04514e-10
4.41674e-09
5.77688e-10
4.39885e-09
8.42961e-11
4.3699e-09
2.00578e-10
4.43681e-09
-4.21736e-10
4.49682e-09
-3.37239e-10
4.6107e-09
-7.01722e-10
4.71484e-09
-6.06898e-10
4.84915e-09
-8.21466e-10
4.96998e-09
-7.11548e-10
5.10519e-09
-8.23883e-10
5.2246e-09
-7.06725e-10
5.34917e-09
-7.57432e-10
5.45782e-09
-6.44787e-10
5.56731e-09
-6.64894e-10
5.66257e-09
-5.66113e-10
5.75756e-09
-5.76576e-10
5.84189e-09
-5.00979e-10
5.92704e-09
-5.17257e-10
6.01055e-09
-4.95351e-10
6.09842e-09
-5.33301e-10
6.24192e-09
-8.60395e-10
6.41318e-09
-1.01014e-09
8.46518e-09
-1.58882e-08
-1.59796e-08
8.65803e-06
3.46678e-06
8.18837e-06
3.29213e-06
7.74246e-06
3.12559e-06
7.3192e-06
2.96685e-06
6.91753e-06
2.81554e-06
6.53642e-06
2.67138e-06
6.17491e-06
2.53403e-06
5.83207e-06
2.40321e-06
5.50699e-06
2.27863e-06
5.19884e-06
2.16004e-06
4.90679e-06
2.04715e-06
4.63007e-06
1.93972e-06
4.36793e-06
1.83751e-06
4.11967e-06
1.74029e-06
3.88459e-06
1.64783e-06
3.66205e-06
1.55993e-06
3.45143e-06
1.47637e-06
3.25215e-06
1.39696e-06
3.06362e-06
1.32151e-06
2.88532e-06
1.24984e-06
2.71674e-06
1.18177e-06
2.55737e-06
1.11715e-06
2.40675e-06
1.0558e-06
2.26444e-06
9.97578e-07
2.13001e-06
9.42339e-07
2.00306e-06
8.89938e-07
1.8832e-06
8.40244e-07
1.77005e-06
7.93125e-07
1.66328e-06
7.48462e-07
1.56255e-06
7.06135e-07
1.46754e-06
6.66032e-07
1.37795e-06
6.28046e-07
1.29349e-06
5.92073e-07
1.21389e-06
5.58015e-07
1.13888e-06
5.25778e-07
1.06823e-06
4.95272e-07
1.0017e-06
4.66412e-07
9.39061e-07
4.39116e-07
8.80103e-07
4.13305e-07
8.24627e-07
3.88906e-07
7.7244e-07
3.65845e-07
7.23361e-07
3.44058e-07
6.77218e-07
3.23476e-07
6.33848e-07
3.04041e-07
5.93095e-07
2.85692e-07
5.54813e-07
2.68373e-07
5.18862e-07
2.52031e-07
4.8511e-07
2.36616e-07
4.53433e-07
2.22077e-07
4.2371e-07
2.08371e-07
3.9583e-07
1.95451e-07
3.69687e-07
1.83278e-07
3.4518e-07
1.71809e-07
3.22214e-07
1.6101e-07
3.00698e-07
1.50841e-07
2.80547e-07
1.41272e-07
2.6168e-07
1.32267e-07
2.44022e-07
1.23797e-07
2.275e-07
1.15831e-07
2.12047e-07
1.08343e-07
1.97597e-07
1.01306e-07
1.8409e-07
9.46947e-08
1.71469e-07
8.84849e-08
1.59679e-07
8.26546e-08
1.4867e-07
7.7182e-08
1.38394e-07
7.20471e-08
1.28805e-07
6.72302e-08
1.1986e-07
6.27135e-08
1.11519e-07
5.84793e-08
1.03744e-07
5.45116e-08
9.64991e-08
5.07946e-08
8.97507e-08
4.73138e-08
8.34672e-08
4.40553e-08
7.76186e-08
4.10059e-08
7.21769e-08
3.81532e-08
6.71157e-08
3.54854e-08
6.24102e-08
3.29916e-08
5.80372e-08
3.0661e-08
5.39747e-08
2.8484e-08
5.02021e-08
2.64511e-08
4.67002e-08
2.45534e-08
4.34509e-08
2.27827e-08
4.04372e-08
2.11311e-08
3.7643e-08
1.95912e-08
3.50536e-08
1.8156e-08
3.26549e-08
1.68189e-08
3.04338e-08
1.55737e-08
2.8378e-08
1.44146e-08
2.64761e-08
1.33361e-08
2.47172e-08
1.2333e-08
2.30913e-08
1.14005e-08
2.1589e-08
1.05339e-08
2.02015e-08
9.72894e-09
1.89206e-08
8.98167e-09
1.77386e-08
8.28822e-09
1.66483e-08
7.64507e-09
1.56431e-08
7.04884e-09
1.47166e-08
6.49643e-09
1.38631e-08
5.98493e-09
1.30771e-08
5.51154e-09
1.23535e-08
5.07374e-09
1.16877e-08
4.66909e-09
1.10751e-08
4.29537e-09
1.05117e-08
3.9505e-09
9.99371e-09
3.6325e-09
9.51746e-09
3.33957e-09
9.07965e-09
3.07001e-09
8.67718e-09
2.82226e-09
8.30712e-09
2.59489e-09
7.96678e-09
2.38652e-09
7.65361e-09
2.19597e-09
7.36524e-09
2.02201e-09
7.09943e-09
1.86379e-09
6.85412e-09
1.72004e-09
6.62728e-09
1.59057e-09
6.41714e-09
1.47324e-09
6.22174e-09
1.3701e-09
6.03978e-09
1.27539e-09
5.86894e-09
1.19812e-09
5.70888e-09
1.1213e-09
5.5561e-09
1.07213e-09
5.41223e-09
1.00626e-09
5.27127e-09
9.9105e-10
5.13849e-09
9.25653e-10
5.00309e-09
9.55279e-10
4.87663e-09
8.76982e-10
4.74055e-09
9.64604e-10
4.61539e-09
8.62835e-10
4.47531e-09
9.96869e-10
4.34516e-09
8.93573e-10
4.1974e-09
1.05452e-09
4.05982e-09
9.41186e-10
3.90199e-09
1.12985e-09
3.75822e-09
9.79411e-10
3.59202e-09
1.19425e-09
3.45025e-09
9.59896e-10
3.28503e-09
1.194e-09
3.16385e-09
8.10854e-10
3.02089e-09
1.04402e-09
2.9468e-09
4.78597e-10
2.85817e-09
6.66318e-10
2.83725e-09
1.05221e-10
2.81159e-09
2.26242e-10
2.87573e-09
-4.85881e-10
2.93861e-09
-4.00119e-10
3.05007e-09
-8.13184e-10
3.15651e-09
-7.13338e-10
3.28887e-09
-9.53821e-10
3.41145e-09
-8.34129e-10
3.54513e-09
-9.57561e-10
3.66583e-09
-8.27433e-10
3.78923e-09
-8.8083e-10
3.89884e-09
-7.54393e-10
4.00742e-09
-7.73473e-10
4.10343e-09
-6.6213e-10
4.19766e-09
-6.708e-10
4.28267e-09
-5.8599e-10
4.36709e-09
-6.01683e-10
4.45136e-09
-5.79619e-10
4.53845e-09
-6.20388e-10
4.68194e-09
-1.00389e-09
4.85095e-09
-1.17915e-09
6.38902e-09
-1.74263e-08
-1.7525e-08
8.65444e-06
3.96125e-06
8.18488e-06
3.76169e-06
7.73908e-06
3.5714e-06
7.31592e-06
3.39001e-06
6.91434e-06
3.21712e-06
6.53332e-06
3.05239e-06
6.1719e-06
2.89545e-06
5.82913e-06
2.74597e-06
5.50414e-06
2.60363e-06
5.19606e-06
2.46812e-06
4.90408e-06
2.33912e-06
4.62743e-06
2.21638e-06
4.36535e-06
2.09959e-06
4.11714e-06
1.9885e-06
3.88212e-06
1.88286e-06
3.65964e-06
1.78241e-06
3.44907e-06
1.68694e-06
3.24983e-06
1.5962e-06
3.06136e-06
1.50999e-06
2.8831e-06
1.42809e-06
2.71456e-06
1.35032e-06
2.55523e-06
1.27647e-06
2.40465e-06
1.20638e-06
2.26238e-06
1.13985e-06
2.12798e-06
1.07673e-06
2.00106e-06
1.01686e-06
1.88123e-06
9.60077e-07
1.76811e-06
9.06239e-07
1.66137e-06
8.55205e-07
1.56067e-06
8.06841e-07
1.46568e-06
7.61019e-07
1.37611e-06
7.17614e-07
1.29167e-06
6.7651e-07
1.21209e-06
6.37595e-07
1.13711e-06
6.0076e-07
1.06648e-06
5.65904e-07
9.99963e-07
5.32928e-07
9.3734e-07
5.01739e-07
8.78399e-07
4.72246e-07
8.22937e-07
4.44367e-07
7.70764e-07
4.18018e-07
7.21699e-07
3.93123e-07
6.75569e-07
3.69606e-07
6.3221e-07
3.474e-07
5.91469e-07
3.26433e-07
5.53198e-07
3.06645e-07
5.17257e-07
2.87972e-07
4.83515e-07
2.70358e-07
4.51846e-07
2.53746e-07
4.22132e-07
2.38085e-07
3.9426e-07
2.23323e-07
3.68124e-07
2.09413e-07
3.43624e-07
1.96309e-07
3.20665e-07
1.83969e-07
2.99155e-07
1.72351e-07
2.7901e-07
1.61417e-07
2.60149e-07
1.51128e-07
2.42496e-07
1.41449e-07
2.25979e-07
1.32348e-07
2.1053e-07
1.23793e-07
1.96084e-07
1.15752e-07
1.82582e-07
1.08197e-07
1.69964e-07
1.01102e-07
1.58179e-07
9.44405e-08
1.47173e-07
8.81874e-08
1.369e-07
8.23202e-08
1.27314e-07
7.68165e-08
1.18372e-07
7.16556e-08
1.10033e-07
6.68177e-08
1.02261e-07
6.22842e-08
9.50181e-08
5.80372e-08
8.82719e-08
5.406e-08
8.19903e-08
5.03368e-08
7.61436e-08
4.68526e-08