/*--------------------------------*- C++ -*----------------------------------*\
| =========                 |                                                 |
| \\      /  F ield         | OpenFOAM: The Open Source CFD Toolbox           |
|  \\    /   O peration     | Version:  v1912                                 |
|   \\  /    A nd           | Website:  www.openfoam.com                      |
|    \\/     M anipulation  |                                                 |
\*---------------------------------------------------------------------------*/
FoamFile
{
    version     2.0;
    format      ascii;
    class       surfaceScalarField;
    location    "30";
    object      alphaPhi0.water;
}
// * * * * * * * * * * * * * * * * * * * * * * * * * * * * * * * * * * * * * //

dimensions      [0 3 -1 0 0 0 0];
oriented        oriented;


internalField   nonuniform List<scalar> 
28285
(
-3.92397e-06
-8.00817e-08
-3.70961e-06
-7.62021e-08
-3.58479e-06
-2.01227e-08
-3.46703e-06
-2.67877e-08
-3.46263e-06
-3.13244e-08
-3.61369e-06
-3.19719e-08
-3.86456e-06
-3.8158e-08
-4.02629e-06
-3.25192e-08
-3.98415e-06
-4.86189e-08
-4.02721e-06
4.95444e-08
-2.77679e-06
-2.89169e-07
-1.8205e-06
-1.16121e-07
-1.80732e-06
-7.42622e-08
-2.85251e-06
1.8528e-08
-3.46263e-06
2.22803e-10
-3.8185e-06
2.40652e-07
-4.06499e-06
3.61711e-07
-3.83708e-06
1.53923e-08
-3.60768e-06
-1.09554e-07
-3.87357e-06
-4.86064e-08
-4.25668e-06
-1.97683e-08
-4.39814e-06
-1.87364e-08
-4.39265e-06
-2.74481e-08
-4.33584e-06
-2.95785e-08
-4.32905e-06
-2.44523e-08
-4.20315e-06
-5.20256e-08
-3.85457e-06
-2.99162e-07
-3.13071e-06
-4.62751e-07
-1.53122e-06
-1.45124e-09
-1.86524e-06
3.20688e-07
-2.37471e-06
5.22803e-07
-2.86024e-06
7.78387e-08
-2.92164e-06
-2.08483e-08
-2.96218e-06
-1.12021e-09
-2.94655e-06
-4.94531e-08
-2.91199e-06
-3.44551e-08
-2.82967e-06
-5.46868e-08
-2.70983e-06
-4.15513e-08
-2.58029e-06
-3.52648e-08
-2.41041e-06
-4.54129e-08
-2.19663e-06
-3.64462e-08
-2.00419e-06
-4.37861e-08
-1.85975e-06
-4.05905e-08
-1.77011e-06
-2.22578e-08
-1.71799e-06
-1.5153e-08
-1.67382e-06
2.6673e-09
-1.59754e-06
-2.57463e-08
-1.49506e-06
-6.98054e-08
-1.39115e-06
-8.90623e-08
-1.30056e-06
-6.2284e-08
-1.32069e-06
2.47288e-08
-1.30243e-06
3.88852e-08
-1.26217e-06
4.46806e-08
-1.2212e-06
1.19473e-08
-1.18975e-06
1.56976e-08
-1.11305e-06
-2.4015e-08
-1.04168e-06
-1.6063e-08
-9.64256e-07
-1.53248e-08
-8.79829e-07
-1.51145e-08
-7.89532e-07
-1.6397e-08
-7.12022e-07
-1.36372e-08
-6.53938e-07
-1.29142e-08
-6.09079e-07
-7.17946e-09
-5.6359e-07
-9.56722e-09
-5.13751e-07
-1.40416e-08
-4.79781e-07
-1.72808e-08
-4.9802e-07
3.57976e-08
-5.56004e-07
4.04246e-08
-5.44417e-07
-1.98777e-08
-5.39381e-07
-1.35607e-08
-5.44898e-07
-9.61139e-09
-4.98996e-07
-5.19223e-08
-4.15417e-07
-4.64413e-08
-3.10111e-07
-6.8224e-08
-1.74477e-07
-7.08497e-08
-1.01822e-07
9.29006e-10
-1.11913e-07
-1.61352e-08
-5.98652e-08
-5.55863e-08
1.62359e-10
-5.69943e-08
-2.10766e-08
2.42907e-08
-9.91918e-08
8.69977e-08
-9.82176e-08
7.94241e-09
-1.07605e-07
4.19677e-09
-1.25574e-07
1.46281e-08
-1.28818e-07
5.05235e-09
-1.08093e-07
-1.53007e-08
-9.01406e-08
-1.52773e-08
-6.3402e-08
-2.32397e-08
-3.96591e-08
-1.89258e-08
-2.62269e-08
-1.12912e-08
-2.47137e-08
4.93485e-10
-2.72371e-08
1.6963e-09
-3.1778e-08
3.10209e-09
-3.56522e-08
3.30686e-09
-3.39407e-08
-2.77315e-09
-3.41548e-08
-4.90012e-09
-3.96425e-08
2.81113e-09
-3.89385e-08
-1.0149e-09
-3.54894e-08
-3.55034e-09
-3.71952e-08
2.15602e-10
-4.08939e-08
1.02371e-09
-4.25871e-08
-9.82196e-10
-5.05799e-08
5.31718e-09
6.03854e-09
-5.92941e-08
-2.82796e-07
-1.5949e-07
-1.54178e-07
-1.27009e-07
-8.51113e-08
-1.63036e-13
-6.39825e-08
1.84076e-09
-7.11473e-08
-4.63229e-09
-1.1162e-07
-1.65229e-14
-1.55134e-07
-9.51097e-10
-2.76342e-07
-9.31364e-09
-7.82734e-07
-9.30119e-13
-1.32656e-06
6.9771e-09
-1.3547e-06
-2.10383e-07
-1.09986e-06
8.74478e-09
-5.17839e-07
1.1368e-08
-5.69548e-07
4.46333e-08
-1.21772e-06
3.55531e-10
-1.84126e-06
8.08991e-08
-1.69905e-06
1.6032e-07
-7.03495e-07
-2.28768e-08
-3.34381e-07
-9.98293e-08
-2.78433e-07
-4.24603e-08
-2.66552e-07
-1.93337e-08
-2.59271e-07
-1.82281e-08
-2.42123e-07
-3.59115e-08
-2.15496e-07
-4.28473e-08
-2.04996e-07
-2.42218e-08
-6.65109e-07
-4.05485e-08
-1.45859e-06
-2.59474e-07
-2.13565e-06
-4.65334e-07
-2.26388e-06
1.27723e-07
-2.43938e-06
5.10439e-07
-7.74991e-07
1.3579e-07
-5.39924e-07
-1.79746e-07
-3.45346e-07
-1.11405e-07
-2.11208e-07
-4.11513e-08
-1.34579e-07
-4.29829e-08
-9.26134e-08
-3.13737e-09
-1.02435e-07
-7.68811e-14
-1.14821e-07
-1.12704e-08
-1.21266e-07
-3.50845e-08
-9.86514e-08
-6.707e-08
-7.69396e-08
-4.51924e-08
-5.76185e-08
-3.80223e-08
-5.86404e-08
-1.63823e-08
-7.15664e-08
4.35297e-09
-9.36395e-08
-4.62579e-13
-1.06665e-07
-1.78787e-12
-1.39014e-07
-1.25962e-12
-2.52219e-07
-6.55573e-09
-4.03517e-07
-2.71911e-08
-4.73533e-07
-6.19995e-08
-4.3937e-07
2.78569e-10
-4.0805e-07
3.17446e-08
-3.09165e-07
2.17676e-08
-1.78675e-07
-7.42207e-08
-8.33863e-08
-5.15737e-08
-8.89247e-09
-7.90092e-08
2.70745e-09
-2.05512e-08
-2.65861e-09
-4.34411e-10
-1.16624e-08
2.81589e-09
-1.05342e-08
-9.13932e-09
-1.32341e-09
-1.8967e-08
9.23427e-09
-2.38448e-08
-3.82343e-09
-2.97088e-13
-9.6794e-09
3.26813e-09
-5.27761e-09
-1.75351e-08
8.27112e-09
-2.43853e-08
5.21077e-08
-1.18106e-13
5.57238e-08
3.55749e-08
1.33274e-08
-1.63227e-08
-5.30835e-09
3.5252e-10
-1.73947e-08
2.4749e-09
-1.22874e-07
-1.40821e-08
-2.07868e-07
-3.99116e-08
-1.2393e-07
-1.0984e-07
-3.07384e-08
-8.7813e-08
-4.07741e-08
2.43773e-08
-3.3868e-08
-2.3437e-08
-7.53485e-09
-8.21665e-08
-3.28458e-08
-6.08429e-11
-6.50422e-08
7.25217e-08
-6.55443e-08
1.12175e-07
1.86909e-08
-9.47691e-08
7.496e-08
-6.33951e-08
3.65177e-08
1.84202e-12
2.38453e-08
-4.55937e-14
3.0361e-08
1.27781e-09
1.33104e-08
3.88607e-14
1.25588e-08
-1.32495e-08
1.58933e-08
-9.3897e-09
2.53625e-08
-7.44459e-09
3.40339e-08
-2.00723e-09
2.92657e-08
2.57841e-09
9.65848e-09
2.96394e-10
-1.20793e-09
-2.442e-09
-3.07212e-09
-9.15178e-10
-7.01857e-09
-1.37483e-09
-7.06082e-09
1.46213e-09
-6.50463e-09
-2.63953e-09
-3.08725e-09
-8.03543e-09
-7.89125e-09
-6.40033e-10
-1.94738e-08
9.934e-09
-2.76002e-08
4.46887e-09
-2.46751e-08
4.02972e-09
5.69177e-09
-2.40924e-08
-1.74118e-07
-8.8521e-08
-1.17978e-07
-1.27865e-07
-3.62452e-08
7.92125e-09
-3.75771e-08
6.39214e-09
-4.17119e-08
-3.71703e-09
-7.88963e-08
8.79685e-10
-1.30573e-07
7.80386e-09
-1.94104e-07
1.72749e-09
-3.46323e-07
-2.4377e-12
-7.19361e-07
2.64384e-08
-8.98245e-07
-1.03894e-07
-7.6562e-07
-5.19374e-13
-2.4569e-07
1.04001e-07
-2.47083e-07
2.24716e-08
-2.22804e-07
-3.68133e-10
-4.20936e-07
-1.68417e-09
-4.30332e-07
6.32274e-08
-3.42477e-07
1.3385e-12
-2.63114e-07
-3.17838e-08
-2.6532e-07
-3.88434e-08
-2.6547e-07
-2.05947e-08
-2.582e-07
-2.66976e-08
-2.37903e-07
-5.51011e-08
-2.20303e-07
-6.04603e-08
-2.26946e-07
-1.75658e-08
-5.12178e-07
-2.14923e-08
-9.31551e-07
-8.4205e-08
-1.61704e-06
-2.04272e-07
-1.98286e-06
-1.3978e-08
-1.70177e-06
3.24002e-07
-7.79608e-07
8.90709e-08
-1.44616e-07
-1.08853e-07
-5.46708e-08
-2.48115e-08
-3.83906e-08
-6.45356e-09
-5.39044e-08
-1.00897e-08
-5.66719e-08
-4.57348e-09
-9.22664e-08
5.1049e-08
-1.32272e-07
4.41908e-08
-1.57448e-07
-1.9715e-08
-1.41491e-07
-9.29267e-08
-1.03695e-07
-6.21943e-08
-6.16215e-08
-5.47204e-08
-5.10044e-08
-1.23822e-08
-5.90082e-08
1.07619e-08
-6.0612e-08
8.42161e-13
-6.47414e-08
7.11279e-09
-8.37454e-08
2.84e-09
-1.05807e-07
-4.21299e-09
-1.42331e-07
-1.16294e-08
-2.15866e-07
-2.38954e-08
-2.52919e-07
-1.59506e-08
-2.26606e-07
9.0414e-09
-1.40945e-07
6.10339e-09
-8.57711e-08
-3.03632e-08
-4.65196e-08
-2.91386e-08
-5.24176e-09
-7.06128e-08
8.60208e-10
-2.66126e-08
-4.0554e-09
4.44354e-09
-1.30773e-08
1.18783e-08
-1.43298e-08
-7.92448e-09
-1.13602e-08
-2.1896e-08
-7.51633e-09
-1.61288e-08
-7.31862e-09
2.03799e-09
-1.25431e-08
4.29559e-09
-8.70008e-09
-4.13011e-08
-3.16327e-09
-4.99449e-08
8.18408e-09
-1.92813e-08
4.57083e-08
-1.4905e-12
-7.46105e-09
2.2837e-10
-2.31953e-08
1.60867e-08
-2.52954e-08
4.57506e-09
-3.69097e-08
-1.56211e-08
-6.88184e-08
-1.40748e-08
-8.71345e-08
-5.8073e-08
-1.56746e-09
-1.00431e-07
-1.3864e-07
8.42474e-08
-1.46545e-07
-6.99119e-08
-4.26427e-08
-1.46559e-07
-1.03374e-08
-6.61277e-08
-3.04921e-08
2.55775e-08
-6.94357e-09
8.71225e-08
3.93723e-08
-1.44466e-07
2.94898e-08
-3.58057e-08
2.52913e-08
-7.34792e-09
1.02995e-08
3.665e-12
1.12141e-08
6.37277e-14
2.25623e-08
5.56274e-09
1.17775e-08
-1.42176e-09
3.52384e-09
-2.46106e-09
4.19013e-09
-9.33767e-10
1.28367e-08
-1.23763e-09
2.13005e-08
1.92285e-10
1.74571e-08
3.90009e-09
1.66509e-09
4.24528e-09
-4.00245e-09
4.75858e-09
-5.68996e-09
3.06458e-10
-2.47267e-08
1.44389e-08
-3.63204e-08
-2.94174e-09
-2.08614e-08
-2.40244e-08
-7.78859e-09
-8.90604e-09
-5.05155e-09
2.74553e-09
-8.8623e-10
1.33337e-09
2.94268e-09
1.04841e-11
2.20028e-09
-5.34551e-10
-8.04985e-08
-4.56497e-08
-1.27147e-07
-9.72379e-08
-1.55182e-07
2.63783e-08
-7.07206e-08
2.89968e-08
-5.66544e-08
-1.55892e-08
-9.49841e-08
-1.14876e-09
-1.59961e-07
1.00762e-08
-1.3661e-07
8.44979e-09
-1.13382e-07
1.58912e-10
-2.0015e-07
1.22982e-13
-5.06358e-07
-5.25457e-08
-7.11436e-07
2.88964e-10
-7.7126e-07
4.86368e-08
-5.69994e-07
1.30393e-07
-3.61948e-07
-2.52261e-09
-3.43328e-07
7.43142e-08
-3.28465e-07
1.4236e-07
-6.23598e-07
1.73022e-08
-8.35468e-07
-6.26035e-08
-8.65515e-07
-6.56841e-08
-8.83034e-07
-3.47828e-08
-9.03047e-07
-3.42112e-08
-8.81314e-07
-8.49243e-08
-5.768e-07
-1.61006e-07
-2.55221e-07
-5.46608e-08
-1.53774e-07
-3.32603e-10
-1.59916e-07
-4.65555e-08
-4.70938e-07
-7.09118e-08
-8.0183e-07
-1.7257e-08
-6.76591e-07
6.46265e-08
-1.25835e-07
1.32137e-08
-1.66655e-08
-2.7075e-08
-9.70863e-09
-1.40161e-08
-8.39657e-09
-7.51233e-09
-9.051e-09
-9.44059e-09
-3.91515e-08
-4.68741e-09
-9.86024e-08
8.37569e-08
-3.56981e-07
1.4565e-07
-4.51088e-07
-1.94492e-08
-3.64593e-07
-1.62842e-07
-2.78312e-07
-8.44771e-08
-1.84548e-07
-9.04987e-08
-7.11178e-08
-1.24803e-08
-3.9411e-08
5.60496e-08
-3.71408e-08
2.38966e-08
-3.70284e-08
1.24026e-08
-3.94736e-08
1.06909e-08
-3.93778e-08
1.10164e-09
-3.98629e-08
-1.69466e-09
-4.61367e-08
-1.67259e-08
-6.3698e-08
-7.3367e-09
-5.17823e-08
-3.36133e-13
-1.85974e-08
-3.07835e-10
-1.49644e-08
-1.47486e-08
-1.01152e-08
-1.67207e-08
-1.38295e-08
-3.98795e-08
1.18266e-08
-1.11654e-07
-1.0258e-09
2.94735e-08
-3.60021e-08
6.66705e-08
-2.49254e-08
-8.49052e-09
-2.85618e-09
-5.98479e-08
-5.10213e-10
-8.93839e-09
-4.01346e-09
4.76277e-09
-3.15065e-08
2.25957e-08
-1.07638e-08
-5.48747e-08
8.43429e-09
-4.74601e-08
2.95554e-08
-2.91274e-08
4.19082e-08
-1.60795e-09
1.35331e-08
6.57177e-09
-1.13722e-08
4.09921e-08
-1.77491e-08
2.36657e-08
-1.66125e-08
-4.0203e-09
-1.67848e-08
-1.14243e-09
-2.60222e-08
-5.33149e-08
-6.31946e-08
-6.57301e-08
-1.56566e-07
1.04889e-07
-1.26859e-07
-1.08957e-07
-6.22411e-08
-2.01839e-07
-2.13461e-08
-1.63202e-07
-5.83725e-08
5.78446e-08
6.5647e-09
2.36891e-08
1.50021e-08
-5.1105e-08
1.43054e-08
-1.88005e-08
1.6965e-08
-4.89174e-09
4.63879e-09
1.4115e-10
1.32385e-09
-1.66583e-12
1.11126e-08
1.19606e-09
6.53388e-09
3.64857e-10
6.78651e-10
-2.98025e-10
6.90512e-10
-3.91208e-10
2.09591e-09
-4.81519e-10
9.19358e-09
-3.84445e-10
1.80309e-08
3.24949e-09
8.01689e-09
1.02436e-08
2.15976e-10
1.25533e-08
-3.59334e-09
9.30725e-09
-3.78129e-08
4.5352e-08
-3.47667e-08
-9.62756e-09
-1.94193e-08
-4.27346e-08
1.5193e-08
-3.08106e-08
1.47878e-08
-4.28122e-09
1.74595e-08
2.25139e-11
3.79762e-09
4.85895e-10
5.28731e-15
4.54414e-11
-6.12441e-08
-3.26216e-08
-1.45228e-07
-6.31931e-08
-1.90961e-07
6.64614e-09
-1.87079e-07
7.06541e-08
-7.94935e-08
-5.11185e-08
-8.77613e-08
-6.76456e-09
-1.33756e-07
1.01609e-08
-1.40616e-07
3.02776e-08
-6.22196e-08
4.60716e-09
-6.53512e-08
7.72699e-12
-3.60392e-07
-2.12905e-08
-7.56352e-07
1.95942e-09
-9.37827e-07
8.92645e-08
-9.47338e-07
1.73935e-07
-9.70061e-07
-1.383e-08
-3.72756e-07
1.19391e-07
-3.58707e-07
2.17247e-07
-7.13823e-07
7.16521e-08
-1.21804e-06
-1.04684e-07
-1.31453e-06
-7.70696e-08
-1.33962e-06
-4.20716e-08
-1.33288e-06
-5.51087e-08
-1.30526e-06
-1.40733e-07
-1.25063e-06
-1.87447e-07
-4.56639e-07
-1.24265e-07
-1.52635e-07
-9.14679e-09
-9.23711e-08
-1.96385e-08
-1.10281e-07
-2.69e-08
-1.74891e-07
-2.3814e-09
-1.34946e-07
9.43043e-09
-1.38773e-08
-1.72334e-09
-1.33621e-08
-2.65131e-11
-1.09345e-08
-1.61877e-08
-8.62042e-09
-9.82724e-09
-8.92619e-09
-8.88889e-09
-6.90711e-08
-4.10591e-09
-4.94769e-07
7.44911e-08
-7.06738e-07
3.69798e-07
-7.05556e-07
-9.25444e-09
-6.34069e-07
-2.2789e-07
-5.89777e-07
-1.21819e-07
-4.98119e-07
-8.54258e-08
-1.78939e-07
-5.24104e-08
-7.23076e-08
1.14976e-07
-5.83766e-08
6.36909e-08
-5.8836e-08
4.0548e-08
-6.15687e-08
2.47142e-08
-5.65659e-08
2.02731e-13
-3.14478e-08
-1.73529e-08
-2.78845e-08
-1.51187e-08
-2.38316e-08
-6.21342e-09
-1.88002e-08
1.50351e-10
-9.3695e-09
-8.47486e-14
-7.10101e-09
-1.21315e-08
-4.28311e-09
-1.46765e-08
-2.94243e-08
-7.13041e-09
-4.86237e-09
-1.85601e-08
-1.79794e-08
4.25862e-08
-5.36205e-08
1.02316e-07
-5.25855e-08
-9.52987e-09
-3.32766e-09
-1.20269e-07
-3.35136e-09
-8.91469e-09
-1.58588e-08
1.72703e-08
-3.08703e-08
5.25783e-08
-2.09681e-08
-1.19296e-08
4.01072e-09
-2.27324e-08
3.11015e-08
-1.45471e-08
2.90467e-08
3.98736e-09
-2.84369e-09
2.09561e-08
-2.93718e-08
6.75202e-08
-3.42557e-08
5.45435e-08
-2.38731e-08
-1.4777e-08
-1.93398e-08
-4.95473e-09
-8.0365e-08
-8.89377e-09
-1.54068e-07
-2.06391e-07
-1.48419e-07
1.33083e-07
-1.42025e-08
-1.31779e-07
3.72825e-09
-3.76941e-08
-9.15067e-10
-1.33504e-07
-7.77776e-09
6.0275e-08
1.41685e-08
-4.93559e-09
4.25276e-09
-3.43703e-08
4.89248e-09
-2.43684e-08
6.50926e-09
-1.08755e-09
4.87281e-09
1.92621e-10
1.3191e-09
2.75214e-10
1.67008e-09
6.7583e-10
1.14807e-09
1.16928e-14
2.73812e-10
-1.35245e-11
2.87451e-10
-2.88296e-10
4.56517e-10
-6.5794e-10
1.1492e-09
-4.5033e-10
8.13349e-09
2.79077e-10
1.17622e-08
6.37745e-09
3.11953e-09
1.34456e-08
-1.51383e-08
8.49941e-09
-4.25515e-08
7.70922e-08
-1.11454e-08
-4.05203e-08
2.01199e-08
-6.82494e-08
1.3141e-08
-4.81655e-09
1.87613e-08
-1.82651e-09
9.60826e-09
2.56219e-10
1.02194e-10
8.73703e-13
4.01254e-15
8.13622e-14
-5.00269e-08
-4.64603e-08
-7.39988e-08
-3.29077e-08
-1.63378e-07
1.60562e-09
-1.58815e-07
4.19694e-08
-1.24177e-07
-1.66494e-08
-4.045e-08
-1.06629e-08
-7.7157e-08
1.51755e-08
-1.03377e-07
2.70194e-08
-5.76584e-08
1.43282e-08
-5.9218e-08
6.80716e-09
-1.63254e-07
-8.93092e-09
-3.59631e-07
1.17679e-09
-4.08313e-07
2.9452e-08
-2.641e-07
3.21995e-08
-3.79292e-07
-1.13037e-08
-7.06246e-07
-1.35175e-09
-6.43989e-07
2.77465e-07
-4.37104e-07
8.15377e-08
-2.76247e-07
-2.38454e-07
-2.26638e-07
-8.64083e-08
-2.26501e-07
-4.45144e-08
-2.72893e-07
-6.48749e-08
-3.44592e-07
-1.66818e-07
-3.95343e-07
-2.07944e-07
-3.90972e-07
-8.63488e-08
-3.59618e-07
1.98907e-09
-6.95445e-08
-2.98738e-11
-2.2055e-08
-1.29599e-11
-2.08429e-08
-4.03103e-09
-1.8826e-08
7.85101e-09
-2.54095e-08
1.0951e-13
-1.83588e-08
-4.64942e-08
-1.10067e-08
-3.23881e-08
-8.50075e-09
-1.20873e-08
-7.77345e-09
-9.61701e-09
-3.20586e-08
-3.652e-09
-2.84096e-07
3.3805e-08
-3.38129e-07
1.46846e-07
-1.53611e-07
-2.45796e-08
-5.56792e-08
-6.57851e-08
-3.18114e-08
-5.2947e-08
-4.49318e-08
-4.04685e-08
-1.61817e-07
-1.34678e-08
-2.40808e-07
3.63705e-07
-2.01166e-07
1.8591e-07
-1.21035e-07
1.27212e-07
-1.29486e-07
8.03966e-08
-1.61187e-07
1.84828e-08
-1.20203e-07
-1.62091e-08
-3.91454e-08
-9.7671e-09
-2.1811e-08
-7.31066e-09
-2.28762e-08
-2.55642e-09
-3.16233e-08
-2.7931e-09
-8.7768e-09
-3.39395e-08
-2.42679e-09
-1.91269e-08
-1.66462e-09
-7.8927e-09
6.92545e-10
-6.49502e-09
-3.61198e-09
1.78814e-08
-9.84567e-09
6.4408e-08
-2.84718e-08
-4.1485e-09
-2.32575e-09
-1.36332e-07
-1.70844e-09
-9.53506e-09
-2.3938e-08
3.9865e-08
-3.54656e-09
4.17368e-08
-2.20583e-09
-1.47583e-08
1.85637e-09
-2.52912e-08
6.71471e-09
-1.95938e-08
2.93201e-08
1.97377e-09
3.8922e-09
3.21624e-08
-2.83152e-08
1.873e-07
-1.25044e-07
1.73209e-07
-1.03279e-07
-7.33388e-08
-5.29267e-08
-3.80805e-08
-4.51469e-08
-1.15572e-08
-9.8059e-08
-7.78791e-08
-1.77371e-08
1.30552e-08
5.68517e-09
-7.14541e-08
2.24236e-09
-1.22175e-08
-2.20081e-08
-4.30939e-08
-1.4591e-09
2.54936e-08
7.06977e-09
-3.91661e-08
1.009e-08
-4.4751e-08
2.72208e-08
-9.69219e-08
7.22532e-09
-7.34898e-09
6.71215e-10
8.87766e-10
5.26136e-10
4.14741e-10
5.64226e-10
6.32212e-10
4.75502e-10
-1.63016e-10
1.77215e-10
7.33187e-12
2.44438e-10
-1.35167e-10
3.58749e-10
-1.07886e-09
5.79677e-10
-8.24337e-10
7.08662e-10
-3.06337e-12
6.46906e-09
6.00437e-10
9.36789e-09
6.51817e-09
-1.09397e-08
1.33514e-08
-2.26492e-08
8.93151e-08
3.46084e-08
-9.82913e-08
3.95546e-09
-4.12166e-08
2.28212e-09
-8.78575e-10
7.45261e-09
3.33746e-16
5.83726e-09
7.37321e-14
6.66278e-11
4.10092e-12
2.6853e-12
-2.01465e-14
-1.03015e-07
-1.36515e-07
-8.89754e-08
-5.16507e-08
-6.75912e-08
8.13385e-10
-3.89143e-08
6.90562e-09
-1.22893e-08
-6.12575e-09
-1.52926e-08
-3.78841e-09
-3.05492e-08
1.2348e-08
-5.4948e-08
1.99146e-08
-4.16156e-08
1.53761e-08
-4.57498e-08
2.61073e-08
-5.40825e-08
-4.63956e-09
-9.17597e-08
1.06425e-13
-1.0076e-07
-1.0431e-12
-1.08393e-07
8.97663e-09
-3.42744e-07
-9.27805e-09
-7.57753e-07
1.23321e-08
-8.0654e-07
3.08815e-07
-7.89551e-07
8.19855e-08
-5.21188e-07
-1.65225e-07
-3.09455e-07
-1.0085e-07
-2.56955e-07
-9.91878e-08
-3.01109e-07
-7.53237e-08
-3.45888e-07
-2.16429e-07
-3.35179e-07
-2.81691e-07
-4.18311e-07
-6.64144e-08
-4.17108e-07
-8.03352e-09
-1.96497e-07
-6.18714e-08
-5.01353e-08
-2.0195e-08
-4.43534e-08
-1.68779e-09
-7.34562e-08
1.26201e-08
-1.46622e-07
-4.26752e-08
-1.11796e-07
-1.57729e-07
-2.55578e-08
-1.26582e-07
-8.97991e-09
-2.37589e-08
-7.1157e-09
-1.12447e-08
-1.06477e-08
-1.2086e-10
-8.39289e-08
6.03864e-09
-7.52267e-08
2.81336e-08
-1.25696e-08
-2.35477e-09
-1.45822e-08
-2.27622e-08
-1.3632e-08
-3.76602e-08
-1.76019e-08
-2.70796e-08
-1.87088e-07
4.93113e-09
-3.98958e-07
1.44211e-07
-4.68789e-07
2.5986e-07
-5.31115e-07
1.85419e-07
-5.61108e-07
1.14509e-07
-3.50344e-07
1.09248e-08
-2.0741e-07
1.80859e-09
-1.42853e-07
-7.67862e-08
-6.35465e-08
-7.30699e-08
-6.63991e-08
-3.85606e-09
-6.21234e-08
-2.08337e-08
-1.23599e-08
-7.91952e-08
-2.63557e-09
-6.73233e-09
-1.17052e-09
-8.79242e-09
4.45782e-10
-8.129e-09
6.1395e-09
1.51145e-09
2.76536e-09
1.33839e-08
-1.50282e-08
4.92979e-11
-4.5549e-09
-1.36446e-07
-2.46994e-09
-1.59507e-08
-2.25837e-08
6.07891e-08
-4.36619e-09
3.30403e-08
-1.46704e-09
-1.50895e-08
1.99409e-09
-2.87658e-08
6.33882e-09
-2.37488e-08
1.13111e-08
7.84506e-10
1.0156e-09
3.01574e-08
-7.47312e-08
9.87002e-07
-3.00956e-07
3.96204e-07
-2.70146e-07
-1.57833e-07
-1.26134e-07
-1.77973e-07
-3.91387e-08
-9.26659e-08
-4.43554e-08
-8.74759e-08
5.89034e-09
-4.4855e-08
6.36565e-09
-2.03712e-08
1.84808e-09
-7.74054e-09
-4.6945e-09
6.40107e-12
-3.1855e-09
3.77684e-08
9.36499e-09
-4.01702e-08
9.08057e-09
-2.51357e-08
4.35341e-08
-1.12071e-07
2.14435e-08
-1.32208e-08
1.00275e-09
1.91154e-09
8.57134e-10
9.55806e-10
1.11867e-09
7.67744e-10
3.37914e-10
1.24949e-10
8.01603e-11
1.37896e-12
8.82561e-11
-2.17079e-11
4.826e-10
-2.01247e-10
1.02413e-09
-1.06967e-09
7.88826e-10
1.0418e-10
1.05923e-09
2.27181e-12
5.97042e-09
8.55364e-10
-4.21996e-09
1.13734e-08
1.24158e-08
7.21659e-08
2.94377e-08
-1.05535e-07
3.36871e-10
-5.33501e-09
3.89429e-10
-1.27417e-10
4.44829e-09
3.80925e-11
3.35813e-09
3.24634e-10
8.69149e-11
1.88082e-10
1.05965e-11
-4.27181e-14
-1.46482e-07
-1.77278e-07
-5.24352e-08
-4.67822e-08
-2.29883e-08
1.27085e-09
-9.39885e-09
5.26604e-09
-6.34986e-09
-8.3964e-09
-5.88543e-09
-6.42235e-09
-8.30433e-09
8.68797e-09
-2.91074e-08
8.10945e-09
-3.2295e-08
1.05638e-08
-5.91706e-08
5.50942e-08
-4.20224e-08
-4.52515e-11
-4.62613e-08
6.27273e-09
-4.68105e-08
1.63388e-09
-6.66245e-08
2.97205e-08
-2.04441e-07
-3.02507e-09
-6.65403e-07
5.16391e-09
-6.96461e-07
1.49135e-07
-5.00394e-07
6.60207e-08
-2.46661e-07
-5.32246e-08
-2.27865e-07
-3.19758e-08
-5.08469e-07
-2.53606e-08
-8.50109e-07
-3.4593e-08
-9.57774e-07
-1.74416e-07
-8.94779e-07
-4.10673e-07
-9.22469e-07
-1.05059e-07
-9.33305e-07
-7.57608e-08
-6.53836e-07
-4.58007e-07
-2.97363e-07
-3.2181e-07
-2.27158e-07
-4.55179e-08
-3.203e-07
4.1375e-08
-3.39219e-07
-1.04902e-07
-2.62765e-07
-4.4191e-07
-9.65101e-08
-3.07459e-07
-5.83025e-08
-1.62654e-07
-7.07107e-09
-1.17343e-07
-5.78545e-09
-1.17956e-09
-7.2711e-09
7.52351e-09
-5.01753e-09
1.12855e-08
-5.72296e-09
-1.88734e-09
-8.48815e-09
-1.34549e-08
-1.0771e-08
-2.8378e-08
-1.75982e-08
-1.73025e-08
-6.69571e-08
1.74723e-09
-1.62724e-07
3.01981e-08
-2.3035e-07
6.54052e-08
-2.51661e-07
5.84758e-08
-1.88956e-07
3.73957e-08
-1.86431e-07
1.29401e-09
-3.13595e-07
-9.97384e-08
-3.13038e-07
-2.50272e-07
-2.07625e-07
-1.75411e-07
-1.73541e-07
-1.1303e-08
-4.26925e-08
-6.69293e-08
-3.67221e-09
-1.3695e-08
-2.57674e-09
-7.25758e-09
-1.271e-09
-1.01022e-08
3.72734e-10
-9.20201e-09
1.11529e-09
7.64809e-10
1.69407e-09
1.16169e-11
1.50817e-10
4.04549e-09
-5.8375e-10
-4.93118e-08
-3.26186e-09
-7.30082e-08
-2.39108e-08
8.10641e-08
-3.3075e-09
2.23419e-08
-1.67665e-09
-1.62192e-08
2.5306e-09
-3.01721e-08
6.43495e-09
-2.76658e-08
9.02996e-09
1.24022e-09
9.50428e-10
3.86087e-08
-8.45805e-08
3.61531e-07
-3.38609e-07
6.92724e-07
-3.50729e-07
-1.456e-07
-1.87522e-07
-3.41294e-07
-3.63886e-08
-2.1528e-07
-2.86321e-08
-8.04189e-08
1.39077e-10
-7.02479e-08
2.01889e-09
-1.13902e-08
1.56168e-09
-6.66305e-09
-1.16115e-09
5.82203e-10
-2.75599e-10
5.41721e-09
7.43946e-09
-1.41175e-08
2.62912e-08
4.49351e-08
4.48931e-08
-1.09414e-07
4.14136e-08
-3.36943e-08
2.96554e-09
3.22144e-09
1.60971e-10
9.87484e-10
9.29047e-10
3.46969e-10
3.85726e-10
2.90721e-10
2.15286e-11
2.11486e-11
1.83628e-11
-1.85312e-11
9.79072e-11
-3.95097e-11
1.15089e-09
-1.20175e-09
1.19314e-09
-1.80764e-10
7.15528e-10
2.28601e-12
2.16256e-09
4.96902e-12
5.99221e-11
6.99484e-10
1.8636e-08
5.41032e-08
3.21705e-09
-7.58462e-08
4.06718e-11
-5.70073e-11
5.44454e-11
-2.39497e-11
1.78357e-09
1.27626e-11
1.72844e-09
3.1643e-10
9.03503e-11
2.44709e-10
1.86062e-11
-6.98193e-14
-1.97284e-08
-7.65412e-08
-1.69994e-08
-2.56818e-08
-7.9534e-09
6.15434e-09
-1.01784e-08
6.54341e-09
-8.79381e-09
-9.08236e-09
-3.07406e-09
-1.119e-08
-2.83382e-09
8.80182e-09
-9.50722e-09
1.44396e-08
-2.45123e-08
8.36915e-09
-6.01288e-08
9.28915e-08
-5.96829e-08
1.68565e-09
-5.45288e-08
1.10373e-08
-1.01463e-07
4.4024e-08
-2.562e-07
1.24571e-07
-2.58719e-07
-2.49448e-09
-3.17748e-07
2.15092e-08
-3.35041e-07
1.08428e-07
-1.9166e-07
1.78303e-08
-8.97659e-08
-5.34985e-12
-9.01409e-08
-1.97099e-08
-8.94261e-08
-1.41261e-08
-8.26122e-08
-2.94005e-08
-4.80727e-07
-2.92867e-08
-1.26218e-06
-7.46606e-08
-1.46049e-06
-2.54609e-07
-1.49771e-06
-1.13788e-07
-1.35385e-06
-6.6247e-07
-1.05918e-06
-5.62986e-07
-6.52484e-07
-2.14017e-07
-6.44199e-07
9.90932e-08
-4.1564e-07
-1.74202e-07
-3.30612e-07
-7.5137e-08
-1.86452e-07
-1.85466e-07
-1.46346e-07
-5.97209e-07
-1.84531e-08
-2.4591e-07
-5.62192e-09
-7.52827e-09
-5.16441e-09
7.28321e-09
-5.29078e-09
1.11947e-08
-5.25709e-09
-1.47385e-09
-7.79553e-09
-1.11644e-08
-1.31306e-08
-1.41584e-08
-1.64673e-08
-5.16849e-09
-1.92753e-08
8.50561e-09
-3.34759e-08
2.11611e-08
-6.84724e-08
1.91024e-08
-8.36861e-08
1.16431e-08
-8.54049e-08
-1.37908e-13
-1.48475e-07
4.9654e-10
-3.37382e-07
-1.35503e-07
-3.13644e-07
-2.75324e-07
-2.81401e-07
-2.06339e-07
-1.73937e-07
-2.60881e-08
-5.06683e-09
-2.66712e-08
-4.2004e-09
-1.39913e-08
-2.81414e-09
-8.64879e-09
-1.34151e-09
-1.10041e-08
3.30598e-10
-1.08781e-08
1.29212e-09
3.07761e-10
6.95424e-10
1.03751e-09
6.82256e-09
6.73238e-09
2.92393e-09
-2.41557e-08
-2.83007e-09
-4.78071e-08
-8.32315e-09
9.84298e-08
-4.31238e-09
5.7485e-09
-6.99938e-10
-2.59741e-08
2.64779e-09
-3.05204e-08
6.77408e-09
-2.87455e-08
7.24258e-09
9.22443e-10
7.80739e-10
4.50002e-08
-1.30248e-07
8.67236e-08
-2.94804e-07
6.00108e-07
-2.97592e-07
-1.42924e-07
-3.33962e-07
-2.4287e-07
-7.22595e-08
-2.83601e-07
-2.29244e-08
-1.56107e-07
-2.37291e-10
-4.91772e-08
1.99329e-09
-1.32284e-08
1.62674e-09
-6.56467e-09
1.07245e-08
8.54877e-09
6.25486e-09
2.22453e-08
4.01499e-09
-4.8098e-08
1.44933e-08
-6.45818e-08
2.08275e-08
-7.75042e-08
4.7494e-08
-8.43736e-08
1.25699e-08
4.20165e-09
3.79029e-10
2.52535e-09
3.71886e-10
8.35365e-10
2.14433e-10
1.59787e-10
2.7088e-11
1.38218e-11
1.90889e-11
-1.02814e-11
2.26996e-11
-4.31077e-11
3.04208e-10
-1.29401e-10
1.35495e-09
-4.63559e-10
8.34154e-10
8.46865e-11
9.55093e-10
2.0542e-10
8.8893e-10
2.81287e-08
2.41985e-08
1.24667e-08
6.26871e-11
-4.78997e-08
9.85463e-12
-1.02684e-11
1.69255e-11
-2.49269e-11
4.75059e-10
2.26568e-11
6.78585e-10
1.36238e-10
6.66669e-11
1.63628e-10
1.70209e-11
-8.92455e-14
-1.76086e-08
-3.01606e-08
-1.99469e-08
-2.00747e-08
-2.02522e-08
9.73218e-09
-3.0098e-08
2.23584e-08
-2.34827e-08
-4.0316e-08
-1.04927e-08
-7.91529e-09
-2.57598e-09
6.48898e-09
-4.79319e-09
1.70001e-08
-2.95767e-08
3.50042e-08
-8.90478e-08
1.65063e-07
-7.28722e-08
1.66491e-08
-7.66514e-08
2.68015e-08
-2.12225e-07
1.10759e-07
-4.54213e-07
2.82296e-07
-3.92658e-07
-9.89272e-10
-1.45319e-07
1.61537e-08
-1.24741e-07
7.80849e-08
-1.51379e-07
5.08565e-08
-2.53607e-07
-5.74189e-08
-2.28742e-07
-1.63198e-07
-7.95768e-08
-8.91839e-08
-7.29186e-08
-4.11415e-09
-7.86789e-08
-5.11313e-08
-1.63082e-07
-5.42058e-08
-7.82162e-07
-3.24165e-08
-1.25682e-06
-5.01004e-08
-1.48518e-06
-5.07639e-07
-1.43465e-06
-5.79576e-07
-1.42264e-06
-2.59965e-07
-2.3538e-07
3.37349e-08
-2.49263e-08
-1.22417e-07
-3.35426e-08
-6.62127e-08
-1.17451e-07
-5.97136e-08
-1.39427e-07
-7.32374e-08
-4.33678e-08
-1.42333e-07
-5.34471e-09
-3.10693e-08
-5.31943e-09
7.25715e-09
-5.91425e-09
1.22328e-08
-5.67953e-09
-1.73037e-12
-4.64646e-09
-1.17422e-08
-8.99374e-09
-5.80429e-09
-1.13599e-08
1.37492e-12
-1.70657e-08
1.60987e-08
-2.04333e-08
2.50305e-08
-2.17558e-08
2.26807e-08
-2.35226e-08
1.43202e-08
-5.69352e-08
-1.20216e-09
-3.05346e-07
4.5773e-10
-3.12745e-07
-1.29419e-07
-3.03861e-07
-2.82894e-07
-2.30518e-07
-2.48515e-07
-3.49111e-08
-3.36571e-08
-3.12517e-08
-1.6555e-11
-1.69357e-08
-1.51938e-07
-8.12958e-09
-4.78561e-08
-1.52633e-09
-1.67955e-08
2.04721e-10
-1.20056e-08
2.30751e-09
-5.28948e-10
6.23895e-10
6.05682e-09
5.48457e-09
1.13388e-09
1.96109e-09
-7.1796e-09
-9.40386e-09
-1.69403e-08
-3.071e-09
2.63576e-07
-3.05475e-09
6.37624e-09
-1.69637e-10
-2.58598e-08
3.43796e-09
-3.42646e-08
5.03664e-09
-2.73466e-08
2.49408e-08
1.05985e-09
2.16973e-09
6.96542e-08
-1.83094e-07
2.47724e-07
-3.2188e-07
8.3232e-07
-2.21827e-07
-8.93145e-08
-3.8738e-08
-1.37717e-07
-8.09303e-08
-1.6675e-07
-1.49276e-08
-1.98194e-07
-6.02904e-10
-1.85031e-08
1.74421e-09
-1.56305e-08
1.5422e-09
-5.94935e-09
6.04927e-09
4.87176e-09
1.3322e-08
5.26279e-08
1.24956e-08
-7.48934e-08
3.14061e-08
-2.57818e-07
1.75118e-08
-5.50154e-08
4.49635e-08
-8.31117e-08
2.62907e-08
8.55159e-10
1.85663e-10
9.23835e-09
5.96974e-11
4.90004e-10
3.52086e-11
4.15099e-12
1.764e-11
2.53169e-11
1.66846e-11
-1.1767e-11
2.25262e-11
-4.87012e-11
4.46765e-11
-6.909e-11
1.42712e-09
-1.07994e-09
1.34843e-09
3.86345e-10
2.70796e-10
2.46963e-09
7.0346e-09
9.9723e-08
3.09546e-08
5.15297e-12
6.48778e-10
-2.50741e-08
2.01511e-11
-4.166e-09
2.71532e-11
-1.76121e-10
2.58284e-11
2.25802e-12
1.58827e-10
8.76332e-14
3.35443e-11
5.25586e-11
8.10629e-12
-9.30028e-14
-2.41532e-08
-3.59376e-08
-3.89977e-08
-1.67044e-08
-4.53827e-08
1.20969e-08
-5.31134e-08
3.86164e-08
-1.18235e-09
-1.15574e-08
-2.79147e-09
-2.73157e-09
-3.95487e-09
3.09619e-09
-8.0857e-09
8.59777e-08
-6.22713e-08
1.16559e-07
-1.65955e-07
4.13899e-07
-1.31931e-07
5.96248e-08
-1.39115e-07
7.68924e-08
-3.3385e-07
1.95768e-07
-7.5156e-07
5.38598e-07
-7.60082e-07
5.55507e-08
-2.27596e-07
6.11257e-09
-2.11143e-07
1.73168e-07
-5.67597e-07
8.43987e-08
-1.24138e-06
-1.48784e-07
-1.19553e-06
-6.02797e-07
-6.86158e-07
-3.23969e-07
-1.96227e-07
-1.21882e-07
-6.85959e-08
-9.62024e-08
-6.76105e-08
-7.9708e-08
-1.25591e-07
2.78403e-12
-2.84135e-07
-1.50009e-08
-6.75256e-07
-9.05434e-08
-9.05029e-07
-2.07746e-07
-6.44197e-07
-1.41962e-07
-9.14495e-08
-4.53946e-08
-2.56038e-08
-7.70832e-08
-1.90843e-08
-7.27325e-08
-1.57668e-08
-6.26944e-08
-3.95381e-08
-4.94657e-08
-8.05209e-08
-1.60122e-07
-6.75643e-09
-5.79021e-08
-4.96066e-09
1.46846e-08
-5.61007e-09
1.26553e-08
-7.82338e-09
-2.62245e-12
-1.00666e-08
-6.31342e-09
-9.72034e-09
-2.01556e-09
-1.13828e-08
2.11534e-09
-1.7616e-08
2.27566e-08
-2.10112e-08
3.07773e-08
-2.32716e-08
2.60723e-08
-3.22899e-08
2.43299e-08
-1.20316e-07
4.22644e-08
-1.50562e-07
4.78925e-09
-1.2739e-07
-4.83761e-08
-1.31175e-07
-8.7979e-08
-1.27516e-07
-1.02289e-07
-6.49888e-08
2.22644e-09
-1.28125e-07
-3.95951e-08
-7.46135e-08
-4.10427e-07
-1.65728e-08
-8.71553e-08
-1.55273e-09
-1.56916e-08
1.82873e-10
-1.37802e-08
1.29141e-09
-1.41571e-09
7.21643e-10
6.6215e-09
1.41966e-09
-7.18835e-11
1.42105e-09
-7.68398e-09
-6.80212e-09
2.08368e-08
-2.45814e-09
2.57793e-07
-2.22911e-09
6.16546e-09
4.04462e-10
-2.78494e-08
4.51901e-09
-4.33238e-08
1.03427e-08
-4.08501e-08
2.95992e-08
6.11203e-10
1.70527e-09
9.82823e-08
-1.92874e-07
5.43903e-07
-1.22745e-07
6.68766e-07
-6.22929e-08
-6.16064e-08
-1.05682e-08
-6.94295e-08
-6.76107e-08
-7.68082e-08
-4.78332e-09
-2.3671e-07
1.78102e-10
-2.50606e-08
1.85161e-09
-1.89332e-08
1.60888e-09
-5.71521e-09
1.74052e-09
3.12109e-09
2.51379e-08
1.24503e-08
3.37479e-08
-1.26249e-07
5.02012e-08
-2.74272e-07
1.49357e-08
-9.47638e-08
2.39284e-08
-3.74799e-08
4.18285e-08
-1.03748e-09
1.68195e-08
4.43352e-09
6.11182e-11
6.87096e-09
2.14486e-11
4.40686e-11
1.70525e-11
2.97297e-11
1.68917e-11
-1.1313e-11
2.27083e-11
-5.4503e-11
3.32886e-11
-7.94187e-11
8.66332e-10
-3.01421e-10
1.03172e-09
1.41379e-09
2.41787e-11
3.25279e-09
2.97277e-08
2.90197e-07
2.64797e-08
1.16573e-09
8.54263e-09
-3.98333e-08
2.93414e-09
-2.4147e-08
1.11625e-09
-7.21419e-09
1.22499e-12
8.39903e-11
1.06733e-12
2.54419e-13
7.40123e-12
4.49577e-12
3.1486e-12
-1.02777e-14
-4.53205e-08
-1.19276e-08
-6.53409e-08
-1.2832e-08
-5.24202e-08
2.41156e-08
-5.82919e-09
1.3e-08
-1.11445e-09
-3.45695e-09
-8.53722e-10
-2.64905e-09
-1.88549e-10
3.45236e-10
-4.69806e-08
5.01765e-08
-1.48354e-07
8.28769e-07
-2.9042e-07
9.5085e-07
-2.91316e-07
1.32946e-07
-2.21049e-07
2.39936e-07
-4.59091e-07
3.69709e-07
-1.05263e-06
8.55277e-07
-1.13132e-06