/*--------------------------------*- C++ -*----------------------------------*\
| =========                 |                                                 |
| \\      /  F ield         | OpenFOAM: The Open Source CFD Toolbox           |
|  \\    /   O peration     | Version:  v1912                                 |
|   \\  /    A nd           | Website:  www.openfoam.com                      |
|    \\/     M anipulation  |                                                 |
\*---------------------------------------------------------------------------*/
FoamFile
{
    version     2.0;
    format      ascii;
    class       volScalarField;
    location    "30";
    object      k;
}
// * * * * * * * * * * * * * * * * * * * * * * * * * * * * * * * * * * * * * //

dimensions      [0 2 -2 0 0 0 0];


internalField   nonuniform List<scalar> 
14268
(
0.0105371
0.00577335
0.00280487
0.00372647
0.00394382
0.0029985
0.00273243
0.00515474
0.00753179
0.00835987
0.00827547
0.00995996
0.0200322
0.0283732
0.0281121
0.0161398
0.00734157
0.0076141
0.0124601
0.0166062
0.0180845
0.0197403
0.021468
0.0220156
0.0201602
0.0158498
0.0122203
0.00890253
0.00788394
0.0104389
0.010582
0.0103766
0.0114705
0.0110058
0.0107389
0.00861234
0.00719872
0.00707258
0.00803105
0.00802327
0.00801793
0.00790705
0.00669751
0.00690508
0.00857828
0.00856781
0.00811896
0.00776423
0.00770878
0.00801517
0.00755267
0.00730685
0.00880812
0.0103517
0.00989349
0.0088437
0.00653142
0.00483328
0.00433741
0.00457296
0.00565922
0.00662254
0.00370304
0.0052814
0.0068632
0.0110725
0.0123988
0.00555151
0.00315728
0.00561264
0.0181001
0.0243121
0.0167718
0.00689812
0.00489168
0.0138629
0.0159413
0.01232
0.0115639
0.00513294
0.00339664
0.00551257
0.00486408
0.00452998
0.00303386
0.00252772
0.00227067
0.0029008
0.0042063
0.00608609
0.00626364
0.00612965
0.00496855
0.00277002
0.00193695
0.00394366
0.00509609
0.00514803
0.00400781
0.00233435
0.00127825
0.001902
0.00274806
0.00330305
0.067898
0.0443938
0.0170587
0.0204094
0.0262286
0.0190726
0.0116965
0.023103
0.0412399
0.0450256
0.0403361
0.0414404
0.0715608
0.123096
0.132131
0.0724479
0.0344932
0.0374844
0.0682186
0.0957052
0.107335
0.119051
0.129894
0.134788
0.125352
0.097565
0.0644034
0.0378529
0.0253809
0.0299162
0.0421643
0.0574685
0.0663131
0.0651594
0.0661368
0.0564882
0.0447554
0.0428829
0.0524237
0.0505233
0.0499379
0.0503996
0.0374103
0.0357713
0.0504419
0.0503061
0.0467615
0.0404753
0.036017
0.0375101
0.0349852
0.0350385
0.0415358
0.0514193
0.0519913
0.0500954
0.0413378
0.0291545
0.0236666
0.0238082
0.0298444
0.041702
0.0181397
0.0260965
0.0328225
0.0601616
0.0702111
0.0343094
0.0155806
0.0245831
0.0826194
0.110098
0.0693976
0.0285309
0.0147476
0.0497282
0.0584158
0.044969
0.0419917
0.0160327
0.0131041
0.0268265
0.0248737
0.0278983
0.0186627
0.0139538
0.0115184
0.0131176
0.0179326
0.0252804
0.0267038
0.0280122
0.0260426
0.016195
0.00951226
0.0161625
0.020423
0.02125
0.0172359
0.0111999
0.00583018
0.00759029
0.01154
0.0144391
0.0784166
0.0713274
0.0449959
0.0435469
0.0412193
0.0285245
0.0261231
0.03731
0.0571432
0.0620892
0.0653474
0.0711194
0.126102
0.2441
0.27819
0.171205
0.0703317
0.072077
0.145439
0.201842
0.233147
0.258745
0.280207
0.290145
0.277154
0.226189
0.155331
0.0855301
0.0400644
0.0336326
0.0454516
0.0664699
0.0762715
0.0732333
0.0816951
0.0673163
0.0598029
0.0869652
0.102254
0.0990527
0.0982178
0.0994352
0.0848785
0.0854893
0.10948
0.110134
0.10619
0.0960294
0.08576
0.0835573
0.0696451
0.0545937
0.0545194
0.0674863
0.0595102
0.0580828
0.0517862
0.0387587
0.0392074
0.0412715
0.0523356
0.0644466
0.0375505
0.0444983
0.0537158
0.0984548
0.1172
0.0417359
0.0201648
0.0588953
0.165622
0.216235
0.148481
0.0701775
0.0245716
0.0767348
0.0779102
0.0570535
0.0706991
0.0271982
0.0157954
0.0340401
0.0318691
0.0296197
0.0248254
0.016495
0.0136669
0.0168565
0.0259867
0.0397232
0.0386389
0.0342543
0.0300677
0.0236481
0.0172021
0.029594
0.0397101
0.0343749
0.0263854
0.0196402
0.00993238
0.0120673
0.018449
0.0220463
0.116924
0.105444
0.0577153
0.055527
0.0545363
0.0366647
0.031554
0.0454845
0.084648
0.120167
0.137278
0.127175
0.165699
0.305801
0.368039
0.270754
0.136903
0.123137
0.183797
0.241052
0.277256
0.307078
0.331107
0.34696
0.35114
0.318401
0.263299
0.184748
0.0988588
0.0543522
0.0614234
0.0967848
0.119987
0.112048
0.122055
0.0984145
0.0772827
0.111758
0.110147
0.100134
0.101671
0.10686
0.100583
0.121891
0.157801
0.160571
0.1561
0.148013
0.144159
0.151221
0.134082
0.107642
0.0995221
0.112416
0.0931375
0.0833286
0.0595461
0.0463015
0.0472419
0.0460925
0.0669489
0.0889304
0.0554355
0.0582609
0.0605812
0.120548
0.160708
0.0666055
0.0262774
0.0811128
0.216858
0.285301
0.228278
0.132926
0.0482617
0.0734362
0.0634393
0.0358126
0.0639923
0.0570988
0.0162437
0.041899
0.0540381
0.0420662
0.0348367
0.0260226
0.015821
0.0193406
0.0365552
0.0565131
0.0565793
0.0484016
0.0362491
0.027532
0.0229764
0.0384696
0.0549364
0.0324359
0.0227092
0.0166798
0.0140226
0.0161042
0.023538
0.0275686
0.156365
0.140655
0.0580891
0.0472946
0.0484424
0.0417145
0.0385401
0.0533993
0.107338
0.176899
0.212277
0.180968
0.193271
0.340698
0.413217
0.322689
0.186154
0.162999
0.190772
0.238136
0.277442
0.310952
0.338382
0.356881
0.371365
0.394053
0.368733
0.304437
0.20582
0.113939
0.0978272
0.142804
0.157842
0.142914
0.155051
0.129625
0.0751637
0.0862667
0.0759822
0.0631193
0.064633
0.0707989
0.0767735
0.142732
0.193419
0.198643
0.195422
0.189618
0.19119
0.209663
0.197723
0.166553
0.150232
0.157004
0.129118
0.111856
0.058143
0.0397876
0.0416823
0.0354198
0.0640825
0.109732
0.0720792
0.0639344
0.0595043
0.131091
0.184925
0.088818
0.0323551
0.103359
0.265114
0.348054
0.296283
0.18914
0.0542756
0.0547804
0.0539688
0.0362773
0.0434446
0.0963742
0.0231007
0.0698736
0.0787053
0.0572956
0.0439832
0.0349787
0.0228467
0.0256846
0.0458225
0.0703292
0.0726303
0.063548
0.0448524
0.0309772
0.0249654
0.0364279
0.0604237
0.0287678
0.0221438
0.020709
0.0175457
0.0197889
0.0276296
0.0365933
0.188097
0.175289
0.0644509
0.0322874
0.031595
0.0381065
0.0439664
0.0622034
0.125776
0.223685
0.283414
0.244385
0.235614
0.383466
0.468141
0.358217
0.207654
0.189414
0.221649
0.269578
0.31689
0.356318
0.381909
0.39268
0.400189
0.440884
0.44145
0.405239
0.311564
0.194685
0.152936
0.178731
0.18616
0.166311
0.180261
0.157209
0.0721994
0.053154
0.0464492
0.0497047
0.0561194
0.0620677
0.0617083
0.134023
0.195272
0.211312
0.217063
0.211608
0.213559
0.248186
0.247896
0.214442
0.188864
0.186738
0.157418
0.138644
0.075169
0.035301
0.032845
0.0327167
0.0502576
0.128014
0.0867774
0.0635659
0.0725545
0.151916
0.211507
0.108512
0.0410398
0.120015
0.291597
0.368827
0.331057
0.227639
0.0614844
0.0376247
0.0662135
0.0611217
0.0203047
0.0880481
0.0450946
0.0998222
0.0921758
0.0685049
0.0525867
0.0423752
0.0302193
0.0325286
0.0537059
0.0812729
0.085135
0.0762595
0.0547297
0.0350783
0.0254136
0.0296584
0.0539622
0.0258424
0.0227233
0.0217177
0.0199433
0.0229155
0.033079
0.0443997
0.205499
0.200677
0.0813592
0.032132
0.0317616
0.0407254
0.046867
0.0682975
0.1424
0.262973
0.3473
0.3215
0.315793
0.474653
0.567448
0.3981
0.208417
0.195737
0.259131
0.341161
0.400346
0.444525
0.466894
0.473756
0.467014
0.480692
0.49078
0.482911
0.395955
0.259403
0.190304
0.194846
0.198588
0.18331
0.20117
0.181639
0.0937845
0.052983
0.0495883
0.0803011
0.0925997
0.0996743
0.0781263
0.106988
0.160385
0.179324
0.189034
0.19151
0.21623
0.264847
0.274383
0.246821
0.211476
0.203007
0.1797
0.161287
0.106312
0.0444988
0.0367834
0.0358895
0.0359672
0.141855
0.0994615
0.0610855
0.0929526
0.180929
0.243793
0.131742
0.0553349
0.119227
0.303902
0.342169
0.324465
0.246195
0.094691
0.0462403
0.0956195
0.0937268
0.0215663
0.0526916
0.0565837
0.121298
0.0934018
0.0710482
0.0596531
0.0487778
0.0361492
0.0381398
0.0605442
0.090829
0.095741
0.0867564
0.0639817
0.0395982
0.0269339
0.0299957
0.0459897
0.0243921
0.0228056
0.0245871
0.02192
0.0255104
0.0381639
0.0511094
0.208427
0.213621
0.101497
0.0399129
0.0398674
0.0494873
0.0512823
0.0730124
0.158852
0.298704
0.405235
0.395175
0.399203
0.570186
0.660532
0.438702
0.20719
0.194058
0.293245
0.401208
0.459745
0.485914
0.498673
0.50549
0.493833
0.49213
0.498159
0.515549
0.445661
0.293574
0.193349
0.18329
0.186633
0.187413
0.211548
0.203341
0.126981
0.0817457
0.0827222
0.115426
0.123525
0.130189
0.101882
0.0964292
0.129111
0.14412
0.1542
0.169272
0.215393
0.254206
0.263824
0.253121
0.214702
0.219636
0.19902
0.179952
0.129648
0.0641447
0.0423634
0.0432578
0.0315525
0.144228
0.111449
0.0612605
0.10837
0.204933
0.271189
0.155261
0.0733329
0.102528
0.293206
0.289061
0.274147
0.230403
0.130205
0.0755483
0.127366
0.116642
0.0250619
0.0286628
0.0667229
0.135203
0.0913016
0.0655735
0.0634334
0.0544625
0.0411005
0.0428825
0.066676
0.0992238
0.104927
0.0954706
0.071766
0.0441139
0.0293101
0.0375666
0.0373527
0.0221221
0.0287359
0.028353
0.0242682
0.0283687
0.0427005
0.0569467
0.217173
0.236292
0.123054
0.053365
0.0492431
0.0570534
0.0576103
0.0769727
0.174842
0.331228
0.456618
0.459437
0.478327
0.656898
0.74114
0.4947
0.226014
0.216727
0.354614
0.470352
0.529825
0.548701
0.548289
0.523398
0.472342
0.456786
0.456251
0.478087
0.438495
0.286834
0.169144
0.157755
0.156269
0.168632
0.199608
0.221443
0.157385
0.115445
0.113255
0.143856
0.149988
0.15601
0.130294
0.12188
0.138242
0.145379
0.155172
0.179661
0.213883
0.227337
0.234306
0.231432
0.21659
0.243395
0.216153
0.196096
0.148522
0.0814676
0.0533923
0.0463994
0.0382772
0.131568
0.123952
0.0722542
0.120708
0.225685
0.295569
0.175691
0.0915254
0.0969126
0.263457
0.230232
0.20738
0.182954
0.154915
0.108266
0.158172
0.13621
0.0287972
0.0326113
0.0929676
0.150434
0.0975699
0.0567833
0.0631934
0.0594807
0.0457503
0.0472724
0.0723609
0.107001
0.113466
0.103458
0.0785768
0.0482815
0.031601
0.0489875
0.0297486
0.0243798
0.0359872
0.0326407
0.0269249
0.0313278
0.0469111
0.0623763
0.243612
0.270393
0.142704
0.0632784
0.0549838
0.0621047
0.0626627
0.0791024
0.187709
0.357105
0.499239
0.513703
0.54044
0.715057
0.790344
0.547847
0.272694
0.270697
0.418425
0.526866
0.596811
0.640566
0.639726
0.588908
0.480344
0.417654
0.396796
0.410333
0.377326
0.245671
0.162982
0.156097
0.146018
0.142138
0.174322
0.227575
0.182417
0.141066
0.136237
0.166651
0.173705
0.180281
0.158171
0.157774
0.173769
0.17758
0.185362
0.194148
0.197964
0.197987
0.201368
0.21201
0.23474
0.261162
0.228954
0.209434
0.164471
0.0950861
0.0628311
0.0486338
0.0505581
0.113438
0.128312
0.0897909
0.131229
0.243881
0.31707
0.186654
0.109037
0.112657
0.212411
0.164183
0.157325
0.158041
0.154346
0.142432
0.180893
0.151808
0.0376711
0.0369481
0.107823
0.15597
0.111016
0.0481206
0.0575425
0.0625267
0.050153
0.0514808
0.0777292
0.114138
0.12119
0.110785
0.0846626
0.0521669
0.0336031
0.0587971
0.0264762
0.0302902
0.0421698
0.0366692
0.0296498
0.0342654
0.0508294
0.0674169
0.27651
0.301116
0.15618
0.0677562
0.0576414
0.0678375
0.0671787
0.0788161
0.195064
0.3741
0.530474
0.558817
0.596745
0.758062
0.81995
0.581216
0.320987
0.323895
0.433929
0.513074
0.595641
0.689736
0.730239
0.696256
0.565807
0.43556
0.373816
0.357494
0.312722
0.211601
0.184185
0.182473
0.166706
0.136317
0.158244
0.214902
0.204096
0.162794
0.155472
0.185612
0.193754
0.204317
0.183595
0.187846
0.207728
0.212771
0.21892
0.204358
0.192805
0.191391
0.187716
0.210907
0.252848
0.254142
0.230174
0.219892
0.178594
0.106776
0.0717807
0.0570114
0.0629297
0.105027
0.117183
0.103772
0.140629
0.26012
0.33565
0.189502
0.125947
0.136347
0.155744
0.119383
0.146586
0.180417
0.14081
0.177238
0.201113
0.166548
0.053711
0.0266157
0.0996591
0.141503
0.122287
0.0452561
0.0472448
0.059106
0.0536189
0.0555034
0.0828779
0.12093
0.128428
0.117551
0.090327
0.0560414
0.0353495
0.0586797
0.0266146
0.0336245
0.0461525
0.0399269
0.0323114
0.0371386
0.0545679
0.0722374
0.305697
0.325433
0.162656
0.0681803
0.0629047
0.0753533
0.0726163
0.0765176
0.189354
0.378645
0.546407
0.584358
0.639863
0.778688
0.821841
0.581797
0.33522
0.339837
0.387361
0.44409
0.534285
0.657863
0.753779
0.75891
0.656679
0.51109
0.418835
0.360269
0.288668
0.201891
0.197977
0.200428
0.183953
0.148642
0.160428
0.193539
0.218611
0.182321
0.17181
0.198338
0.207954
0.227275
0.206692
0.213635
0.235844
0.240901
0.247738
0.229709
0.223862
0.220913
0.206342
0.215618
0.247307
0.224626
0.218836
0.230709
0.191235
0.117796
0.0802047
0.0675506
0.0716969
0.0981887
0.0973154
0.113709
0.148671
0.274898
0.344711
0.193883
0.143198
0.132927
0.100606
0.11227
0.159439
0.207961
0.144399
0.196711
0.212559
0.179138
0.0697575
0.0260293
0.0766198
0.117987
0.119775
0.0490034
0.0388329
0.0536329
0.0561329
0.0593241
0.0878498
0.127377
0.135188
0.123739
0.0957039
0.0598387
0.0369879
0.048465
0.0257434
0.0315327
0.0452359
0.0405046
0.0345054
0.0398633
0.0581298
0.076855
0.328051
0.341947
0.16647
0.0711972
0.0707318
0.0819072
0.0782609
0.0744002
0.175119
0.360513
0.537223
0.580784
0.677487
0.797963
0.821727
0.573399
0.29815
0.282346
0.307048
0.354632
0.453558
0.593261
0.708202
0.74021
0.695949
0.573779
0.478725
0.404693
0.308306
0.203652
0.205262
0.211626
0.19769
0.159443
0.172597
0.17741
0.219809
0.20093
0.184048
0.200338
0.214607
0.249826
0.228877
0.235775
0.253681
0.257348
0.269831
0.259493
0.251621
0.24004
0.21451
0.20645
0.216381
0.196145
0.218059
0.2424
0.202833
0.128258
0.0880544
0.0761696
0.0727988
0.0838082
0.0750669
0.114432
0.155495
0.288919
0.340089
0.200091
0.159547
0.112242
0.071102
0.130363
0.185129
0.236841
0.171956
0.195032
0.212227
0.190932
0.0828662
0.03498
0.0528774
0.0898913
0.0996712
0.051395
0.0388669
0.0543586
0.0591258
0.0629975
0.0927017
0.133635
0.141627
0.129483
0.100779
0.0634099
0.0387559
0.0352675
0.0252737
0.0278262
0.0389681
0.0372419
0.0357643
0.0424854
0.0615599
0.0813316
0.340668
0.352033
0.173189
0.0786865
0.0773874
0.0875587
0.083525
0.0748201
0.166762
0.342006
0.500729
0.545169
0.669259
0.779658
0.802832
0.573651
0.254543
0.213434
0.234268
0.278888
0.370241
0.51717
0.64386
0.685738
0.658881
0.573875
0.508047
0.445004
0.335884
0.209703
0.203024
0.213509
0.204516
0.169155
0.18713
0.173938
0.210214
0.21866
0.189271
0.188713
0.209625
0.27225
0.250158
0.249556
0.251405
0.249629
0.268977
0.265828
0.244435
0.221217
0.190556
0.174912
0.176433
0.191244
0.232953
0.253225
0.213557
0.13799
0.0953769
0.0836706
0.0646382
0.0680017
0.0613215
0.105175
0.159747
0.299621
0.323233
0.204556
0.159491
0.0860277
0.0762264
0.155256
0.208179
0.261067
0.181812
0.175289
0.201994
0.199615
0.0930118
0.0488314
0.0393771
0.064792
0.0725639
0.0468051
0.0438204
0.0598037
0.0630789
0.0665628
0.0974715
0.139677
0.147549
0.134737
0.105392
0.0667992
0.0407357
0.0266896
0.0256579
0.0259736
0.0334962
0.0356627
0.0374228
0.045084
0.0648836
0.0856842
0.344041
0.353663
0.186204
0.0899965
0.0855889
0.0947658
0.0908894
0.0768818
0.16716
0.338787
0.439241
0.467937
0.579376
0.704771
0.743023
0.584661
0.23276
0.153871
0.172448
0.216188
0.269062
0.402856
0.541269
0.594463
0.569754
0.507814
0.475738
0.452645
0.350158
0.210045
0.196294
0.207642
0.205215
0.180665
0.208878
0.182742
0.190942
0.241178
0.189734
0.162735
0.190372
0.30232
0.282137
0.250218
0.21021
0.200945
0.228411
0.236203
0.201912
0.167024
0.132697
0.118958
0.135814
0.212167
0.253629
0.268669
0.228608
0.151773
0.105796
0.0939343
0.0538049
0.0463688
0.0587236
0.0864759
0.161146
0.310266
0.293569
0.202996
0.138377
0.0565968
0.0985726
0.192456
0.23716
0.285541
0.165623
0.135232
0.198041
0.210983
0.106405
0.0642688
0.0380042
0.0423301
0.0405694
0.0323368
0.0482634
0.0691787
0.0694337
0.0717663
0.104434
0.146971
0.154711
0.141677
0.111512
0.0716749
0.0435179
0.0287481
0.0301595
0.027959
0.0330282
0.0403043
0.0415737
0.0489427
0.0697033
0.0920665
0.321706
0.323251
0.193898
0.0987231
0.0922254
0.101971
0.0996113
0.0801443
0.168863
0.3309
0.418384
0.403849
0.435634
0.573714
0.617589
0.523999
0.243653
0.163919
0.170122
0.200957
0.220025
0.288547
0.406164
0.456046
0.43177
0.356598
0.33132
0.321946
0.271307
0.20806
0.205827
0.209904
0.210111
0.194154
0.236232
0.208189
0.168325
0.232549
0.182041
0.155183
0.166497
0.29826
0.317027
0.250405
0.157709
0.139518
0.150887
0.159741
0.131683
0.102998
0.0862411
0.0931348
0.148303
0.236986
0.278655
0.287273
0.246242
0.168457
0.118525
0.105989
0.0669271
0.0447272
0.0559271
0.073445
0.163941
0.331162
0.296953
0.191083
0.0996517
0.0697938
0.117043
0.206064
0.23411
0.27888
0.131942
0.109822
0.225874
0.228976
0.119209
0.0780331
0.0495305
0.0343103
0.0282092
0.0259153
0.0494656
0.0784811
0.0774532
0.0781907
0.112366
0.146784
0.157571
0.147986
0.117978
0.0772918
0.0467559
0.0347418
0.0357098
0.0361691
0.0431597
0.0497097
0.0475101
0.0540846
0.075943
0.100257
0.295666
0.273611
0.168596
0.102291
0.0954169
0.106986
0.10731
0.083515
0.153692
0.314526
0.475702
0.424837
0.338979
0.436556
0.485616
0.389523
0.229291
0.187424
0.179165
0.198216
0.2132
0.230185
0.292423
0.325326
0.303499
0.247638
0.234274
0.228367
0.212527
0.215702
0.224427
0.229311
0.225436
0.209806
0.258434
0.236897
0.151881
0.196321
0.155673
0.177262
0.16483
0.258887
0.306175
0.269765
0.174144
0.144572
0.10982
0.103209
0.0866656
0.0820596
0.0906417
0.116772
0.168539
0.258263
0.29768
0.302325
0.261823
0.183807
0.1307
0.116819
0.0845171
0.0518146
0.0551496
0.0728125
0.172592
0.361921
0.344895
0.192237
0.0877146
0.101441
0.121163
0.186804
0.200011
0.243543
0.0944751
0.121252
0.242221
0.251014
0.131256
0.0901702
0.0643716
0.0314968
0.0266201
0.0272177
0.0535631
0.0849813
0.0846288
0.0837173
0.117197
0.138051
0.151421
0.150472
0.123421
0.0823851
0.0505404
0.0406994
0.0395041
0.0428658
0.0501837
0.0569977
0.0533426
0.0593132
0.0819621
0.108228
0.261663
0.217081
0.12902
0.103024
0.0961086
0.109195
0.112835
0.086833
0.128382
0.297571
0.557046
0.483873
0.313776
0.315686
0.345111
0.267641
0.217093
0.199567
0.185467
0.196174
0.209921
0.202445
0.214439
0.229086
0.22765
0.234767
0.250969
0.250846
0.22856
0.222604
0.231874
0.245644
0.236841
0.22292
0.259528
0.252911
0.150425
0.153294
0.121824
0.197964
0.178489
0.208268
0.266991
0.259521
0.199012
0.172834
0.115486
0.0888587
0.0880241
0.0852445
0.0943316
0.13048
0.182224
0.269502
0.306352
0.309888
0.272606
0.195826
0.142154
0.125708
0.100541
0.0671366
0.0581225
0.0747733
0.179876
0.388631
0.38126
0.211381
0.103068
0.133724
0.11829
0.184522
0.191965
0.196319
0.0860474
0.128046
0.235993
0.265917
0.140551
0.100922
0.0702244
0.030356
0.0271031
0.0301817
0.0581414
0.0893601
0.0905216
0.0878395
0.116249
0.126423
0.139481
0.148678
0.127106
0.0870844
0.0545424
0.0460587
0.0425552
0.043101
0.0489285
0.0586428
0.0584005
0.0646003
0.0879929
0.116044
0.205453
0.156353
0.103369
0.0997171
0.0935246
0.107423
0.114787
0.0902362
0.11005
0.295299
0.623946
0.549486
0.358769
0.241766
0.231883
0.212283
0.215726
0.1992
0.188095
0.194306
0.208734
0.195111
0.181407
0.18575
0.20152
0.250266
0.275185
0.27236
0.242385
0.230477
0.23569
0.260469
0.242609
0.227876
0.242817
0.249953
0.165134
0.11883
0.103627
0.197986
0.182389
0.154165
0.225255
0.223104
0.206509
0.199238
0.137506
0.0989973
0.0897628
0.0948588
0.095199
0.128488
0.179641
0.26763
0.301961
0.307432
0.27479
0.201586
0.15132
0.130259
0.111872
0.0803075
0.0639061
0.0775378
0.181587
0.393499
0.378792
0.236154
0.0978534
0.145999
0.125872
0.225442
0.230966
0.168452
0.0962753
0.135216
0.21594
0.270716
0.150249
0.111575
0.070376
0.0321495
0.0297208
0.0334444
0.0623937
0.0919338
0.0950735
0.090146
0.107641
0.114789
0.126913
0.142677
0.12753
0.0907365
0.0582083
0.0509767
0.0417742
0.0387571
0.0436103
0.0529252
0.061482
0.0699318
0.0939777
0.123703
0.13721
0.10323
0.091715
0.0914347
0.0870117
0.101851
0.112994
0.0933101
0.102105
0.310449
0.617493
0.53926
0.415052
0.218896
0.157073
0.189783
0.201758
0.1911
0.185448
0.18999
0.206433
0.202637
0.190315
0.176128
0.179861
0.245252
0.28104
0.281435
0.245806
0.230151
0.237632
0.271601
0.247832
0.225029
0.225653
0.237316
0.183005
0.112772
0.0997426
0.178602
0.169501
0.108797
0.186716
0.180935
0.200818
0.214951
0.155557
0.113849
0.0973041
0.102348
0.0957066
0.116174
0.159103
0.250646
0.285148
0.293636
0.266166
0.19996
0.155058
0.129658
0.115647
0.0896185
0.0693777
0.0791433
0.174424
0.367008
0.347434
0.247958
0.0759619
0.133363
0.133912
0.242494
0.235232
0.171564
0.106405
0.135843
0.194136
0.266305
0.158903
0.120596
0.0705555
0.037873
0.033589
0.0356406
0.0632817
0.0906529
0.0981725
0.0909787
0.0951814
0.103018
0.114377
0.132655
0.123812
0.092302
0.0611922
0.0539669
0.0377269
0.0375395
0.0431448
0.0494471
0.0631678
0.074979
0.0999497
0.131266
0.0952363
0.0771453
0.084727
0.0799142
0.0778974
0.0931381
0.108076
0.0953058
0.0963475
0.302297
0.554092
0.494444
0.409984
0.22039
0.130281
0.170603
0.185278
0.182654
0.179484
0.183687
0.202235
0.208405
0.194716
0.181366
0.168462
0.218987
0.259032
0.274269
0.245639
0.230029
0.238299
0.274802
0.255545
0.218763
0.210567
0.225603
0.193314
0.121542
0.10211
0.15918
0.152206
0.0904482
0.156729
0.149544
0.187175
0.212699
0.162834
0.121305
0.101542
0.102945
0.0957868
0.109083
0.138265
0.223861
0.259533
0.269474
0.247552
0.1929
0.152493
0.126025
0.113787
0.0928838
0.072293
0.0786766
0.159366
0.326559
0.314073
0.244107
0.0642063
0.112859
0.138487
0.23039
0.212792
0.171397
0.109752
0.128939
0.175065
0.252911
0.166681
0.129082
0.0735071
0.0449403
0.0378821
0.0368105
0.0591997
0.0848067
0.0957939
0.0901093
0.0869774
0.0928575
0.101767
0.119426
0.11621
0.0911755
0.0634507
0.055026
0.0374235
0.038329
0.0442412
0.0516195
0.0650719
0.0795807
0.105884
0.138754
0.0633046
0.0536456
0.0491796
0.0446776
0.0499365
0.0585308
0.0753991
0.0995401
0.0937586
0.120206
0.205124
0.261535
0.285119
0.190965
0.117521
0.113636
0.115429
0.122912
0.131727
0.14246
0.171662
0.217582
0.242761
0.217787
0.149725
0.119918
0.138068
0.199604
0.229218
0.23187
0.232467
0.267066
0.279038
0.196061
0.150106
0.183693
0.212763
0.158622
0.11246
0.0898171
0.0972001
0.0884179
0.0722778
0.0710694
0.0912299
0.13494
0.151173
0.136706
0.107979
0.0888266
0.0993913
0.106345
0.071518
0.0936628
0.123396
0.14366
0.151288
0.146032
0.125353
0.101303
0.0944782
0.0909952
0.0841902
0.0700013
0.0818621
0.132746
0.154458
0.182494
0.107924
0.0618322
0.125423
0.112783
0.0978613
0.0870043
0.101023
0.0870339
0.0966575
0.163453
0.190702
0.148266
0.0826347
0.0588672
0.0480332
0.041369
0.0365339
0.0458511
0.0632204
0.0750563
0.0681991
0.055305
0.0549788
0.0651982
0.0776137
0.0776328
0.0718739
0.0629634
0.0533467
0.0517939
0.0534904
0.0605248
0.0763954
0.101357
0.13465
0.174734
0.11901
0.104546
0.0839378
0.0594853
0.0424501
0.0407229
0.0426404
0.0543234
0.0759769
0.0854278
0.0884512
0.0948332
0.105073
0.100376
0.0876546
0.0718066
0.058105
0.0550991
0.0582871
0.0679085
0.0823364
0.0897199
0.0992465
0.120811
0.131306
0.121713
0.126276
0.122099
0.116555
0.113105
0.112912
0.122699
0.159631
0.205731
0.208189
0.217706
0.23247
0.234596
0.207029
0.166106
0.128714
0.119446
0.105466
0.0930035
0.0982656
0.10143
0.131101
0.160204
0.151181
0.127039
0.103696
0.0887597
0.0721251
0.0588811
0.0590922
0.0610141
0.066291
0.0731272
0.0735236
0.0692074
0.0641734
0.0608076
0.0630398
0.0617077
0.0569104
0.0471485
0.0474104
0.0672598
0.109389
0.0926499
0.0688854
0.0566762
0.0518202
0.0502963
0.0573271
0.0644943
0.0612364
0.0496791
0.0657651
0.050571
0.0321355
0.0296213
0.0319911
0.0415591
0.0499451
0.0489375
0.0481164
0.0474951
0.0446105
0.0381978
0.0346304
0.0354782
0.0401418
0.0493403
0.0610756
0.0636619
0.0639016
0.0653165
0.067184
0.0739992
0.0932102
0.12552
0.165005
0.21148
0.111906
0.104741
0.0944494
0.0751682
0.0569066
0.0578003
0.0548059
0.043637
0.0461443
0.0549652
0.0636784
0.068356
0.0676632
0.0656579
0.0611863
0.053855
0.0444949
0.0344852
0.0275064
0.0262412
0.026869
0.0282345
0.0297703
0.0334101
0.0380112
0.0399214
0.042125
0.044507
0.0478315
0.0500038
0.0501116
0.0520663
0.0623864
0.0800053
0.0994558
0.125986
0.166815
0.225804
0.245007
0.233103
0.190308
0.145026
0.123523
0.111343
0.113299
0.125286
0.151478
0.186823
0.193384
0.188514
0.171305
0.135481
0.0915385
0.0634422
0.0521574
0.0509124
0.0530528
0.0579897
0.0617637
0.0617798
0.0604533
0.0578061
0.0543611
0.0521635
0.0499937
0.0463567
0.0444488
0.0435675
0.0469824
0.0469404
0.0397545
0.0304399
0.025483
0.0228279
0.022665
0.022785
0.0227084
0.0224421
0.0211609
0.0174448
0.0128605
0.00843854
0.0073635
0.0079144
0.00942761
0.0120667
0.0163827
0.0184175
0.0179155
0.0161619
0.014923
0.0153047
0.0180682
0.0253753
0.0377064
0.0490497
0.0544411
0.0602318
0.0682974
0.0821586
0.103887
0.132921
0.16475
0.209532
0.0938084
0.0946625
0.0933303
0.0858766
0.0757314
0.0691992
0.0560014
0.0381174
0.0311131
0.0324878
0.0361694
0.0397398
0.0398217
0.0370817
0.0297782
0.0212678
0.0150615
0.0110769
0.00871689
0.00779333
0.0076277
0.0078828
0.00851108
0.00945999
0.010188
0.0105564
0.0112485
0.0124202
0.0143342
0.016277
0.0171887
0.0181725
0.0201896
0.023851
0.0313867
0.0461115
0.0710202
0.114351
0.180686
0.218695
0.225506
0.217816
0.197502
0.167939
0.152723
0.14421
0.137851
0.140276
0.144369
0.131695
0.120729
0.114717
0.0956866
0.0654187
0.0483947
0.0435773
0.0434712
0.0454982
0.0512922
0.0588678
0.061574
0.0612967
0.0588267
0.0537459
0.0481515
0.0444449
0.0404002
0.0355395
0.0333619
0.0302055
0.0256642
0.0199969
0.0136103
0.00855656
0.00627885
0.00541385
0.00488814
0.00465513
0.00443579
0.0038873
0.0032173
0.00247722
0.0023715
0.00248317
0.00268233
0.00299116
0.00351816
0.00418004
0.00470863
0.00500772
0.00530913
0.0057027
0.00663988
0.00922263
0.0147841
0.0236042
0.0339547
0.0449946
0.0572774
0.073774
0.0983385
0.127995
0.157099
0.195008
0.0360523
0.0509664
0.0730914
0.0898375
0.0904916
0.0857719
0.0636653
0.037535
0.0324898
0.0343344
0.0364803
0.0359136
0.0321243
0.0250839
0.017177
0.0116942
0.00844169
0.00667127
0.00537299
0.00440984
0.00371663
0.00322868
0.00295063
0.00289468
0.00295056
0.00307831
0.00331038
0.00367809
0.00421601
0.0049231
0.00577373
0.00679177
0.0081501
0.00994019
0.012316
0.0155333
0.0205897
0.0316345
0.057303
0.0949688
0.14527
0.183103
0.197668
0.200132
0.199354
0.190631
0.166959
0.131798
0.0932766
0.0605766
0.0533675
0.0567469
0.0607861
0.0575945
0.0498597
0.043437
0.0404146
0.0390454
0.03958
0.0427554
0.0496609
0.0572741
0.0582423
0.0563794
0.0518589
0.0458328
0.0388917
0.0326385
0.0280693
0.0236478
0.0189973
0.0134982
0.00761715
0.00378783
0.0019215
0.00113286
0.00078868
0.000649972
0.000610166
0.000570554
0.000530794
0.000490045
0.000498929
0.000559362
0.000686145
0.00088294
0.00115209
0.00147146
0.00179361
0.00210701
0.00244187
0.00282518
0.00336881
0.00437676
0.00628112
0.00972082
0.0152952
0.0240869
0.0370907
0.0553955
0.0814432
0.111701
0.139996
0.173016
0.00706779
0.0133269
0.0260707
0.0503528
0.0765286
0.0912296
0.081463
0.0489715
0.0458223
0.0546277
0.0536778
0.045582
0.0342031
0.0246919
0.0185054
0.0157876
0.0134511
0.0108349
0.00815316
0.00593394
0.00419288
0.00305732
0.00231017
0.00186403
0.00171289
0.00170563
0.0017854
0.00199548
0.00236857
0.00292675
0.00369125
0.00465894
0.00584673
0.0072685
0.00892687
0.0107445
0.0127091
0.0152223
0.020031
0.0302792
0.0496633
0.0789879
0.112699
0.143505
0.170754
0.182846
0.182861
0.166349
0.123085
0.0816645
0.066093
0.0648385
0.0644547
0.0637985
0.0617321
0.0569568
0.0494763
0.0411251
0.0374388
0.0372002
0.0390907
0.044618
0.0527336
0.0542059
0.0525139
0.0478457
0.0406867
0.032266
0.0249576
0.0189286
0.0130275
0.00763291
0.0037483
0.00165727
0.000774088
0.000447138
0.000346748
0.000330599
0.000334303
0.000332224
0.000319648
0.000286669
0.000240249
0.000214599
0.000212917
0.000232194
0.000285567
0.000373481
0.000492304
0.000647421
0.00085497
0.00113084
0.0015428
0.00220654
0.00318305
0.00469596
0.00718043
0.0114878
0.0189541
0.032544
0.0558531
0.0841263
0.113843
0.142522
0.00211437
0.00339382
0.00812838
0.0221654
0.0491193
0.0837745
0.0881592
0.0622483
0.0584061
0.0631278
0.0547228
0.0427345
0.0365943
0.0319607
0.0297961
0.0286685
0.0250915
0.0190177
0.0134123
0.00928359
0.00608016
0.00388027
0.00247716
0.00168025
0.00127967
0.00114366
0.00116387
0.00128999
0.00156613
0.0020513
0.00282165
0.0038914
0.00526239
0.00696334
0.00903178
0.0113035
0.0130694
0.0149041
0.0169752
0.019204
0.0222937
0.0281677
0.0376435
0.0537509
0.0788217
0.111718
0.142411
0.145882
0.136032
0.122365
0.107957
0.0968962
0.0902446
0.0856136
0.0799057
0.0712705
0.0604786
0.0485785
0.039573
0.0365246
0.0366283
0.0386054
0.0443534
0.0506204
0.0511999
0.0489657
0.0430871
0.0341192
0.0234767
0.0148108
0.008572
0.00436852
0.00203888
0.00103385
0.000670954
0.000577585
0.000578164
0.000615203
0.000663705
0.000670443
0.000627643
0.000504937
0.000334984
0.000215885
0.00014938
0.000115345
0.000102384
0.000101695
0.000112074
0.000143947
0.000205151
0.000304639
0.00047723
0.000786168
0.00129161
0.00207004
0.00334117
0.00545638
0.00912537
0.0164538
0.0305481
0.0519709
0.0787191
0.107186
0.0018753
0.00203971
0.00338306
0.0095415
0.0267687
0.0626547
0.0882006
0.0778536
0.0624536
0.0541241
0.0414785
0.0395169
0.0486954
0.0624624
0.0685361
0.0656624
0.05221
0.0365552
0.0241926
0.016049
0.0104019
0.00641135
0.00372962
0.0021107
0.00128383
0.000922506
0.000853188
0.000902152
0.0010788
0.00146897
0.00216729
0.0032699
0.00486212
0.00700511
0.00963319
0.0125549
0.0151761
0.0177163
0.0204579
0.0236935
0.0251747
0.025618
0.0260145
0.0271917
0.0315425
0.0407041
0.0566907
0.0845426
0.0986567
0.0981619
0.095916
0.0908594
0.0833257
0.0778084
0.0727603
0.0668794
0.0598704
0.052843
0.0451888
0.0395332
0.0381042
0.0386957
0.0416973
0.0479922
0.0514613
0.0505143
0.0457523
0.0366805
0.0243972
0.0133264
0.00665149
0.00317262
0.00170738
0.0012701
0.0012587
0.00141164
0.00167807
0.00187914
0.0019592
0.00193791
0.00175934
0.00137634
0.000893734
0.000536689
0.000310625
0.000175449
0.000101736
6.5429e-05
5.08871e-05
4.88204e-05
5.3568e-05
7.07205e-05
0.000114764
0.000211239
0.000392711
0.000717418
0.00131374
0.00234939
0.00408295
0.00762435
0.0145861
0.0262923
0.0433653
0.0674484
0.00235487
0.00228493
0.00254552
0.00486362
0.0139213
0.0404079
0.0803846
0.0846133
0.0705099
0.0542831
0.0396519
0.0429794
0.0663469
0.0758572
0.0796504
0.0782049
0.0658927
0.0494986
0.0343058
0.0240801
0.0160329
0.00999692
0.00574968
0.00304467
0.00156097
0.000885962
0.000657292
0.000646249
0.000733739
0.000998737
0.0015293
0.00245482
0.00394457
0.00608314