/*--------------------------------*- C++ -*----------------------------------*\
| =========                 |                                                 |
| \\      /  F ield         | OpenFOAM: The Open Source CFD Toolbox           |
|  \\    /   O peration     | Version:  v1912                                 |
|   \\  /    A nd           | Website:  www.openfoam.com                      |
|    \\/     M anipulation  |                                                 |
\*---------------------------------------------------------------------------*/
FoamFile
{
    version     2.0;
    format      ascii;
    class       volScalarField;
    location    "100";
    object      p_rgh;
}
// * * * * * * * * * * * * * * * * * * * * * * * * * * * * * * * * * * * * * //

dimensions      [1 -1 -2 0 0 0 0];


internalField   nonuniform List<scalar> 
114144
(
937.088
-351.604
-2073.39
-4236.01
-5923.01
-7481.29
-8902.28
-10143.6
-11151.6
-11872
-12252.6
-12275.8
-11940.5
-11175.8
-9982.13
-8391.18
-6449.05
-4204.95
-1518.21
1428.17
3750.24
5846.2
7749.62
9388.61
10708.1
11682.1
12296.3
12551.8
12434.8
11985.4
11215.1
10113.4
8689.77
6964.93
4987.37
2826.25
580.364
-1244.29
-3386.87
-5651.85
-7827.32
-9830.8
-11610.6
-13126.9
-14352.4
-15275.7
-15896.1
-16206.7
-16220.3
-15948.3
-15375
-14501.1
-13332.3
-11884.9
-10186.8
-8283.21
-6235.31
-4104.67
-1935.56
150.935
1789.11
3372.05
5002.74
6537.47
7965.39
9286.72
10506.5
11629.5
12656.3
13579.8
14385.6
15047.2
15527.2
15786
15782.8
15464.5
14822.5
13862.5
12581.5
10986.4
9093.34
6918.73
4492.75
1858.45
-942.846
-3894.84
-6782.98
-9582.61
-12195.7
-14521.2
-16450.8
-17875.3
-18711.3
-18892.3
-18414.1
-17396.7
-15901.6
-14058.6
-12007.1
-9880.91
-7757.87
-5693.61
-3863.52
-2352.33
-1149.62
-112.145
582.644
1726.37
2841.28
4029.4
5313.95
6658.58
8005.27
9297.99
10512.1
11628
12558.9
13239.5
13626.3
13700.4
13440.4
12891.9
12068.2
10989.7
9680.29
8161.93
6461.11
4607.98
2627.53
544.687
-1618.87
-3845.38
-6111.72
-8381.64
-10611.5
-12748.1
-14728.8
-16475.9
-17900.4
-18908.2
-19392.5
-19272.7
-18611
-17353.5
-15566.4
-13322
-10726.6
-7900.39
-4955.98
-1984.91
946.908
3648.1
6285.99
8653.54
10759.8
12568.9
14062.5
15221.7
16036.4
16505.3
16629.4
16478.9
16067
15427.8
14592.3
13638.5
12600.2
11526.5
10434.5
9333.54
8204.15
7003.98
5702.95
4269.11
2663.22
870.633
-1022.33
-3071.94
-5157.79
-7189.69
-9062.2
-10667.8
-11932
-12827.3
-13363
-13563.6
-13499.5
-13218.2
-12773.4
-12211
-11568.4
-10874.3
-10146.6
-9397.35
-8632.92
-7851.35
-7051.07
-6225.09
-5367.95
-4474.17
-3539.94
-2562.48
-1540.05
-471.935
640.907
1830.02
3048.07
4311.09
5615.03
6946.21
8285.56
9606.83
10877.8
12062.2
13120.9
14016
14708.5
15168.5
15371.5
15292.5
14953.6
14340.5
13463.5
12349.4
11026.8
9539.23
7928.21
6241.55
4517.07
2793.53
1097.77
-545.415
-2119.79
-3613.85
-5022.57
-6342.71
-7574.9
-8720.22
-9780.41
-10758
-11652.5
-12464.1
-13190.3
-13828.3
-14372.8
-14819.5
-15160.9
-15384.6
-15483.9
-15400.5
2250.39
1015.31
-616.689
-2791.11
-4558.93
-6246.54
-7844.06
-9307.93
-10580.9
-11600.5
-12298.8
-12566.7
-12457.3
-11910.8
-10934.8
-9586.53
-7877.63
-5849.54
-3396.18
-466.387
1968.52
4224.57
6290.55
8115.87
9662
10898.8
11800.6
12355.6
12543
12405.1
11926.7
11092.1
9911.66
8401.38
6598.36
4564.6
2390.6
515.115
-1764.69
-4165.95
-6495.79
-8671.39
-10639.2
-12350
-13756.7
-14847.3
-15634.3
-16111.4
-16284.9
-16163.2
-15733
-14993.3
-13949.4
-12617.3
-11021.9
-9202.04
-7211.76
-5113.95
-2979.99
-914.902
756.145
2436.2
4154.99
5777.74
7288.92
8683.23
9953.94
11117.2
12193.1
13174.3
14038.4
14756.4
15305.9
15660.1
15771.9
15570.7
15059.9
14236.7
13090.5
11621.4
9839.88
7757.75
5402.16
2814.36
36.7036
-2962.87
-5879.68
-8746.14
-11456.5
-13905.4
-15980.1
-17565.2
-18569.4
-18925
-18582.4
-17689
-16290.4
-14510.3
-12488.2
-10362.5
-8226.88
-6136.23
-4264.07
-2705.3
-1453.6
-379.306
370.096
1525.85
2643.08
3828.32
5104.34
6440.92
7785.15
9085.28
10309.3
11443.1
12409.6
13136.7
13576.9
13706.9
13499.1
13003.1
12220.9
11174.4
9887.08
8381.62
6686.15
4833.01
2850.07
764.134
-1409.01
-3645.4
-5926.12
-8215.33
-10470.1
-12633.5
-14641.9
-16424.6
-17889.4
-18938.4
-19460.8
-19372.3
-18735.4
-17495.5
-15717.8
-13475.1
-10876.6
-8044.27
-5091.22
-2108.2
836.291
3552.08
6208.11
8595.49
10722.8
12553.1
14066.5
15243.2
16071.4
16549.6
16679.4
16529.6
16114.8
15469.3
14625.3
13662.6
12616.5
11537.5
10443.2
9343.04
8217.35
7021.75
5724.97
4293.56
2687.54
890.625
-1010.06
-3073.04
-5173.23
-7219.36
-9104.52
-10718.5
-11985.8
-12879.1
-13407.8
-13602.2
-13530.7
-13242.4
-12791.3
-12223.8
-11577.3
-10880.5
-10151.1
-9400.98
-8636.49
-7855.4
-7055.93
-6230.89
-5374.61
-4481.57
-3547.91
-2570.9
-1548.82
-481.064
630.486
1821.01
3038.2
4301.95
5607.43
6941.06
8283.88
9609.64
10886
12076.4
13141.4
14042.6
14740.6
15204.8
15410.6
15333.5
14993.5
14377.7
13496.2
12376.4
11047.2
9552.75
7935.08
6242.33
4512.68
2784.97
1086.1
-559.13
-2134.73
-3629.29
-5038
-6357.79
-7589.46
-8734.26
-9794
-10771.3
-11665.7
-12477.4
-13203.9
-13842.3
-14387.5
-14835.2
-15177.7
-15402.7
-15513.4
-15457.1
3096.87
1869.98
279.839
-1911.36
-3736.5
-5512.21
-7228.26
-8840.21
-10287.5
-11500.9
-12400.5
-12862.3
-12933.5
-12550.6
-11706.6
-10426.4
-8774.23
-6840.99
-4522.11
-1588.37
915.213
3268.63
5447.8
7402.16
9094.49
10493.4
11569.4
12305.1
12674.4
12723.4
12417
11735.6
10687.2
9285.04
7562.95
5580.32
3423.06
1471.47
-924.308
-3419.6
-5837.38
-8085.7
-10124.2
-11912.7
-13417
-14620.2
-15521.4
-16109.1
-16385.1
-16357.3
-16014.4
-15353
-14376.1
-13097.3
-11541.2
-9747.57
-7773.01
-5683.15
-3552.77
-1484.61
208.096
1954.77
3724.62
5391.63
6935.89
8340.86
9630.59
10830.8
11951.8
12984.8
13906
14683.3
15282
15676.1
15841.4
15694.8
15248.6
14492.1
13409.2
11996.8
10262.6
8216.78
5885.43
3309.84
534.204
-2529.79
-5471.65
-8389.42
-11168.6
-13699.5
-15866.1
-17547.7
-18645
-19086.7
-18803.5
-17956.6
-16581.3
-14801.2
-12761.1
-10607.7
-8441.57
-6323.35
-4429.26
-2853.39
-1586.48
-507.654
263.691
1417.77
2527.88
3707.6
4981.09
6320.74
7674.57
8990.69
10234
11387.6
12382.5
13141.9
13615.2
13776.2
13596.8
13118.5
12349.4
11309.5
10023.1
8513.9
6811.75
4950.94
2961.03
868.669
-1310.83
-3557.39
-5851.68
-8159.34
-10438.8
-12632.8
-14673.8
-16486.7
-17986.7
-19072
-19615.4
-19553.9
-18926.1
-17686.4
-15899.8
-13640.5
-11021.9
-8168.67
-5195.09
-2188.82
776.592
3511.08
6190.06
8599.92
10749.8
12601.4
14133.4
15324.3
16161.1
16641.7
16769.8
16611
16183.8
15523
14662.7
13685
12627.2
11541.3
10445.5
9348.88
8230.61
7043.61
5754.24
4326.38
2718.88
912.705
-1003.11
-3089.81
-5217.75
-7290.84
-9198.56
-10826.2
-12097.2
-12984.7
-13498.1
-13679
-13592.5
-13290.1
-12826.8
-12249.2
-11594.9
-10892.8
-10160
-9408.27
-8643.69
-7863.56
-7065.69
-6242.55
-5388.02
-4496.43
-3563.9
-2587.78
-1566.39
-499.236
609.894
1802.52
3018.16
4283.48
5591.97
6930.5
8280.28
9615.06
10902.2
12104.7
13182.3
14095.8
14804.7
15277.3
15488.2
15410.4
15069.3
14447.7
13556.9
12425.2
11082.5
9574.11
7943.18
6238.53
4498.92
2763.31
1058.76
-590.071
-2167.61
-3662.7
-5071.01
-6389.71
-7620.06
-8763.54
-9822.18
-10798.7
-11692.7
-12504.5
-13231.5
-13870.8
-14417.3
-14866.5
-15210.7
-15437
-15542.3
-15495
3818.86
2583.28
1015.88
-1192.69
-3069.07
-4923.36
-6744.97
-8488.6
-10090.5
-11475.1
-12553
-13191.5
-13427.3
-13186.9
-12455.7
-11250.6
-9628.01
-7713.77
-5477.88
-2523.49
42.825
2485.71
4770.33
6843.81
8668
10210.1
11437.3
12328.7
12853
13058.6
12894.7
12337.3
11391.8
10068.5
8399.21
6441.44
4277.37
2230.05
-277.944
-2833.16
-5301.4
-7624.13
-9744.49
-11616.3
-13207
-14500.9
-15494.8
-16174.9
-16534.9
-16587.3
-16319.3
-15724.4
-14802.4
-13564.8
-12035.1
-10253.9
-8280.54
-6184.05
-4042.77
-1958.87
-243.944
1565.82
3379.19
5076.41
6630.58
8046.36
9358.26
10591.1
11754.5
12838.3
13816.3
14654.1
15314.3
15764.6
15956.2
15857.8
15468.9
14768.9
13737.4
12369.2
10669.9
8648.24
6330.07
3757.28
976.664
-2160.38
-5150.02
-8120.85
-10976.4
-13596.8
-15861.4
-17644.4
-18835.4
-19344.7
-19119.2
-18304.8
-16933.1
-15128.8
-13046.8
-10846.8
-8634.15
-6479.16
-4563.82
-2977
-1702.23
-628.688
154.303
1305.63
2401.25
3571
4841.78
6188.15
7557.67
8897.01
10168
11349.4
12380.7
13179.8
13692.2
13888.7
13740.2
13280.1
12522.2
11486.1
10196.6
8679.42
6966.36
5094.06
3095.3
995.61
-1191.62
-3450.62
-5762.47
-8094.94
-10407.9
-12644.5
-14736
-16597.9
-18147
-19276.7
-19855.2
-19837.1
-19218.2
-17975.9
-16172.8
-13884.9
-11233.9
-8348.62
-5344.64
-2304.32
690.432
3451.11
6163.26
8605.82
10789.1
12673
14233.3
15446.5
16296.5
16781.6
16909.6
16738.8
16293
15609.2
14723.4
13721.8
12645.3
11547.9
10448.6
9358.67
8252.68
7079.61
5802.19
4380.13
2770.38
949.894
-989.809
-3113.85
-5285.13
-7398.6
-9340.78
-10989.4
-12266.1
-13145.4
-13632.8
-13795
-13685.8
-13361.6
-12879.5
-12286.8
-11621
-10910.8
-10172.8
-9418.67
-8654.01
-7875.5
-7080.17
-6259.96
-5408.08
-4518.7
-3587.88
-2613.07
-1592.7
-526.112
586.03
1767.78
2987.71
4255.61
5568.58
6914.39
8274.57
9622.87
10926.2
12146.9
13243.7
14175.9
14901.3
15386.9
15606.1
15532
15187.2
14556.3
13651.1
12501.1
11137.7
9607.75
7956.46
6233.56
4478.73
2731.09
1017.94
-636.365
-2216.84
-3712.69
-5120.35
-6437.41
-7665.76
-8807.25
-9864.23
-10839.6
-11733.1
-12545
-13272.8
-13913.4
-14461.8
-14913.5
-15261
-15492.2
-15603
-15583.7
4503.07
3246.32
1688.05
-537.063
-2463.94
-4395.9
-6321.76
-8195.03
-9948.56
-11500.7
-12752.6
-13568.6
-13965.5
-13861.6
-13236
-12100.5
-10510.1
-8583.61
-6386.18
-3391.95
-758.424
1776.94
4170.01
6364.36
8319.92
10001.9
11375
12414.3
13083.9
13432.2
13396
12946.9
12087.3
10824.4
9188.45
7235.8
5045.62
2888.65
288.438
-2323.04
-4864.34
-7267.34
-9470.34
-11423.7
-13094.7
-14468.7
-15543.4
-16305.9
-16736.2
-16859
-16657.9
-16122.3
-15248
-14043.1
-12530
-10750.1
-8765.28
-6648.6
-4482.34
-2368.58
-627.876
1243.43
3095.73
4812.58
6372.64
7799.6
9130.4
10392.5
11595.9
12729.1
13763.1
14660.4
15380.6
15885.9
16133.4
16085.5
15732.9
15071.2
14077.5
12740.5
11062.7
9051.83
6733.72
4151.76
1356.25
-1846.06
-4903.48
-7961.58
-10904.1
-13611.5
-15978.4
-17866.6
-19152.3
-19714.9
-19531.3
-18731.1
-17339.5
-15483.8
-13333.1
-11065.3
-8788.05
-6585.21
-4646.01
-3051.61
-1776.4
-736.164
86.186
1210.71
2283.2
3437.49
4704.37
6060.12
7450.42
8819.22
10126.1
11344.4
12418.9
13262.5
13816.4
14047.9
13925.7
13478.7
12724.5
11683.5
10382.2
8847.82
7114.81
5228.34
3218.2
1107.47
-1089.67
-3363.38
-5695.42
-8056.59
-10408.8
-12695.7
-14847.5
-16776.2
-18383.1
-19560.4
-20179.7
-20228
-19597.7
-18345.1
-16515.1
-14186.1
-11490.5
-8561.1
-5515.15
-2428.49
606.151
3400.89
6155.63
8638.83
10863.2
12785.8
14379.9
15617.7
16481.5
16968.4
17094.2
16903.8
16431.1
15715.3
14795.1
13762.1
12661.5
11549.9
10449.3
9367.49
8278.08
7124.05
5863.14
4449.45
2837.33
998.404
-973.555
-3147.53
-5376.98
-7545.9
-9535.03
-11211.9
-12495.3
-13364.3
-13810.6
-13950.4
-13809.9
-13456.4
-12949.2
-12336.3
-11655.1
-10934.3
-10189.7
-9432.38
-8667.72
-7891.39
-7099.48
-6283.27
-5434.99
-4548.58
-3620.01
-2646.92
-1627.93
-562.355
550.143
1724.96
2946.86
4217.81
5536.58
6891.99
8266.01
9632.42
10957.6
12202.8
13325.3
14282.7
15030.5
15533.5
15763.3
15690.6
15343.2
14700.6
13776.1
12601.5
11210.4
9651.58
7973.04
6225.76
4450.67
2687.06
962.564
-698.923
-2283.12
-3779.81
-5186.46
-6501.2
-7726.78
-8865.55
-9920.27
-10894.1
-11786.9
-12599
-13327.7
-13970.2
-14521
-14976
-15327.9
-15563.7
-15673.1
-15661.2
5185.37
3896.08
2334.87
96.6255
-1881.96
-3894.23
-5927.93
-7934.92
-9844.42
-11568.4
-13002.8
-14002
-14562.7
-14595.9
-14074.6
-13005.6
-11442
-9502.22
-7304.36
-4249.24
-1540.77
1095.35
3605.06
5927.67
8020.61
9846.81
11368.1
12556.1
13370.2
13854.9
13939.5
13590
12805.5
11590.5
9973.53
8010.38
5777.89
3500.53
821.193
-1866.41
-4495.01
-6987.85
-9278.9
-11315.3
-13064.5
-14512.6
-15659.8
-16498.4
-16989
-17176.1
-17038
-16558.6
-15728.2
-14551.1
-13047.8
-11260
-9252.93
-7103.72
-4899.13
-2743.43
-970.707
963.345
2851.72
4583.99
6150.91
7587.03
8933.84
10222.5
11464.1
12646
13736.4
14693.9
15475
16037.8
16346.8
16359.2
16040.7
15421
14455.1
13136
11467.8
9456.26
7125.69
4522.06
1701.72
-1558.76
-4693.38
-7853.66
-10914.8
-13747.3
-16215.8
-18210.4
-19594.3
-20202.3
-20050
-19249.6
-17816.8
-15882.9
-13636.1
-11279.3
-8918.68
-6656.95
-4689.24
-3088.24
-1817.67
-823.846
42.509
1127.33
2167.28
3299.37
4560.08
5926.92
7342.49
8746.77
10097.3
11362.7
12489.1
13384.1
13984.2
14253
14156
13718.6
12962.6
11909.6
10587.9
9025.64
7270.77
5367.13
3342.49
1218.24
-991.25
-3281.51
-5636.29
-8030.37
-10428.2
-12774.8
-14998.7
-17012.6
-18687.2
-19926.8
-20605.5
-20711.8
-20074.2
-18807.1
-16939.3
-14554.9
-11802.7
-8817.81
-5718.34
-2573.38
510.749
3346.9
6153.79
8686.29
10960.7
12931.4
14566.6
15836.2
16713.8
17201
17332.3
17114
16605.9
15848.9
14884.5
13811
12679.4
11548.7
10446.4
9376.46
8309.42
7180.73
5941.75
4539.17
2924.14
1062.09
-952.289
-3190.75
-5494.27
-7735.12
-9784.78
-11497.4
-12787.6
-13633.5
-14043
-14146.7
-13965.2
-13574.1
-13035
-12396.8
-11696.6
-10962.4
-10209.4
-9448.29
-8683.81
-7910.56
-7123.28
-6312.31
-5468.66
-4585.99
-3660.23
-2689.25
-1672.01
-607.991
503.287
1673.19
2895.75
4169.97
5495.68
6862.91
8254.17
9643.24
10995.8
12271.9
13427.1
14416.5
15192.9
15718.2
15962.2
15892.7
15540.6
14882.4
13933.2
12727.5
11301
9705.64
7992.65
6214.69
4414.21
2630.69
892.173
-778.16
-2366.78
-3864.29
-5269.42
-6581.05
-7802.99
-8938.23
-9990.07
-10961.9
-11853.8
-12666.2
-13396.2
-14040.9
-14594.8
-15053.9
-15411.6
-15652.3
-15767.5
-15782.2
5884.64
4551.4
2975.43
730.655
-1301.79
-3398.99
-5547.01
-7695.22
-9768.83
-11674.1
-13303.9
-14502.1
-15229.5
-15403.2
-14988.3
-13984.8
-12444.1
-10490.2
-8263.97
-5127.8
-2334.62
413.803
3051.62
5513.39
7753.63
9732.54
11409.1
12751.2
13713.6
14333.3
14535.9
14281.1
13564.6
12388
10778.5
8791.45
6502.35
4096.95
1336.92
-1446.77
-4177.61
-6772.09
-9159.27
-11282.6
-13109.7
-14627.9
-15840.3
-16747.6
-17291.9
-17539.9
-17463.4
-17039.6
-16252.1
-15100
-13601.3
-11797.8
-9758.29
-7564.64
-5308.65
-3098.5
-1286.56
712.763
2637.61
4384.87
5958.88
7401.99
8761.97
10074.8
11353.1
12583.3
13730.7
14750
15594.2
16217.5
16590.6
16659
16386.6
15801.2
14863.1
13560.1
11898.1
9881.55
7533.34
4894.99
2029.45
-1283.9
-4507.18
-7784.19
-10981.8
-13962.9
-16575.9
-18689.6
-20154
-20812.5
-20685.7
-19872
-18376.5
-16335.4
-13963.9
-11496
-9032.44
-6700.12
-4697.16
-3088.37
-1825.28
-882.674
20.7327
1056.53
2053.28
3155.41
4406.2
5784.87
7229.55
8675.11
10077.5
11400.8
12588.6
13543.1
14195.2
14504.3
14432.1
14000.7
13236.8
12163.8
10809.1
9215.91
7434.9
5509.32
3466.46
1326.11
-898.305
-3206.66
-5586.31
-8016.92
-10466.3
-12881.3
-15189.2
-17301.4
-19067.1
-20381.4
-21141
-21332.9
-20651.1
-19362.6
-17445.7
-14991.9
-12177.7
-9125.79
-5958.42
-2739.51
406.219
3292.07
6161.22
8751.64
11085.2
13112.3
14796.9
16099.1
16995.1
17477.4
17627
17366.3
16813.7
16005.6
14986.7
13863.6
12694.1
11541.7
10438.1
9383.74
8345.06
7248.58
6037.68
4649.85
3032.25
1143.5
-925.059
-3243.08
-5638.38
-7969.14
-10094
-11851.1
-13147.3
-13955.6
-14335
-14384.6
-14151.4
-13714.2
-13136.7
-12468
-11744.7
-10994.8
-10232.1
-9466.65
-8702.61
-7933.31
-7151.72
-6347.28
-5509.37
-4631.25
-3708.78
-2740.24
-1725.1
-663.242
445.724
1611.53
2833.79
4111.26
5444.87
6826.02
8237.88
9654.27
11040.1
12353.8
13548.7
14577.3
15388.7
15941.4
16202.6
16137.4
15779.5
15102.4
14123
12879
11409.3
9769.31
8014.44
6199.32
4368.29
2560.96
805.827
-874.874
-2468.41
-3966.53
-5369.49
-6677.12
-7894.49
-9025.33
-10073.6
-11043.1
-11933.9
-12746.7
-13478.2
-14125.5
-14683.1
-15147.2
-15511.4
-15757.4
-15881.1
-15906.2
6612.19
5223.21
3620.55
1379.6
-709.413
-2897.65
-5168.72
-7467.96
-9716
-11813.6
-13650.4
-15123.5
-15974.8
-16292.8
-15989.1
-15052.4
-13531.8
-11560.4
-9284.99
-6051.63
-3161.63
-286.601
2493.36
5107.88
7508.25
9651.47
11493.5
12998.4
14116.2
14872.1
15192.5
15029.9
14376.5
13230.8
11618.9
9596.18
7237.38
4698.51
1844.45
-1053.72
-3902.97
-6612.99
-9106.62
-11322.2
-13228.2
-14813.5
-16084.7
-17046.3
-17642.9
-17950.7
-17936.3
-17569.7
-16826.1
-15698
-14200
-12373.4
-10291.9
-8042.04
-5721.38
-3443.48
-1584.07
484.741
2448.88
4212.27
5792.95
7240.68
8610.99
9945.43
11258.8
12536.7
13741.9
14825.2
15736.1
16424.3
16864.6
16986.1
16771.5
16217.1
15305.2
14016.8
12357.6
10331.3
7959.29
5280.36
2351.01
-1008.03
-4335.32
-7744.33
-11097.1
-14248.3
-17031.6
-19298.2
-20833.8
-21556
-21452.6
-20612.4
-19030.4
-16849.9
-14323.3
-11721.4
-9134.74
-6718.81
-4672.11
-3053.04
-1798.63
-905.656
21.0695
998.583
1940.45
3003.51
4239.02
5629.29
7106.49
8599.13
10061.9
11454.7
12714.9
13738
14449.2
14802.6
14755.4
14326.2
13548
12443.1
11050.1
9421.61
7608.51
5655.77
3590.79
1432
-809.622
-3136.91
-5542.95
-8013.19
-10519.6
-13012.4
-15416.8
-17638.8
-19524.7
-20928
-21765.4
-21966.3
-21328.7
-20018.3
-18039.6
-15505.6
-12614.4
-9482.9
-6238.51
-2931.4
289.53
3233.23
6174.58
8831.49
11233.3
13326.6
15067.6
16408
17328.3
17818.7
17962.6
17663.4
17057.6
16187.8
15102.9
13919.8
12705.9
11526.8
10422.4
9388.31
8385.29
7328.93
6153.58
4784.63
3164.17
1246.64
-891.202
-3304.03
-5811.53
-8253.04
-10469.8
-12280.8
-13583.7
-14336.3
-14677.8
-14661.8
-14367.8
-13875.6
-13252.7
-12548.5
-11798.6
-11030.2
-10256.3
-9485.96
-8722.77
-7958.67
-7184.39
-6388.03
-5557.05
-4684.34
-3765.67
-2799.87
-1787.13
-728.028
377.752
1539.52
2760.58
4041.1
5383.39
6780.44
8216.22
9664.62
11089.7
12447.9
13690
14765.3
15618.7
16204.5
16486.7
16426.2
16061.1
15361.6
14345.8
13056
11534.8
9841.71
8037.22
6178.41
4311.65
2476.71
702.482
-989.897
-2588.63
-4087.01
-5486.94
-6789.48
-8001.17
-9126.63
-10170.6
-11137.2
-12026.9
-12840.1
-13573.4
-14223.9
-14785.8
-15255.6
-15627.2
-15880.7
-16020.5
-16055.2
7374.6
5918.56
4277.43
2054.6
-94.1353
-2381.02
-4786.04
-7247.93
-9682
-11983.6
-14032.6
-15796.6
-16800.7
-17271.1
-17086.7
-16220.4
-14718.2
-12722.3
-10381
-7043.31
-4039.84
-1021.03
1917.35
4700.63
7276.54
9598.24
11618.4
13297.3
14579.7
15475.5
15915.1
15843.8
15250
14129.1
12506.3
10437.1
7996.32
5318.3
2351.67
-680.003
-3665.49
-6507.22
-9119.93
-11434.3
-13421
-15070.8
-16395.2
-17391
-18041
-18408.2
-18457.4
-18151.6
-17455
-16351.8
-14851.9
-12995.3
-10862.6
-8544.46
-6145.3
-3785.42
-1868.5
275.791
2283.71
4064.69
5651.39
7101.34
8478.99
9832.2
11178.3
12502.8
13766.5
14916.4
15898.7
16659.3
17169.2
17354
17188.9
16668.5
15783.9
14509.2
12850.3
10809.9
8408.37
5681.2
2664.48
-712.308
-4171.05
-7727.5
-11254.8
-14599.1
-17576.8
-20021
-21656.2
-22450.8
-22370.5
-21487.4
-19791.4
-17433.9
-14721.5
-11960.9
-9230.18
-6715.37
-4614.85
-2982.03
-1734.89
-886.424
46.4225
955.017
1828.31
2840.79
4054.81
5455.25
6968.04
8513.72
10046
11521
12865.4
13967.7
14746
15148.5
15127.3
14696.3
13894.5
12749.4
11314.2
9643.63
7791.7
5806.06
3714.83
1535.2
-724.804
-3071.4
-5504.62
-8016.88
-10585.4
-13165
-15679.7
-18026.4
-20060
-21578.8
-22508.5
-22738.8
-22122.6
-20781.6
-18724.9
-16098.1
-13112.8
-9887.92
-6554.73
-3153.55
159.294
3169.4
6192.94
8924.86
11404.3
13574.7
15376.7
16764.4
17712.6
18227.6
18338.3
18004.6
17336.5
16393.8
15230.7
13977.7
12708.4
11504.6
10397.9
9388.32
8429.05
7422.64
6291.4
4945.68
3323.65
1379.68
-852.703
-3373.49
-6016.44
-8591.15
-10917.7
-12794.6
-14106.4
-14770.8
-15081.4
-14983.4
-14614.7
-14057.7
-13382.1
-12637.5
-11857.3
-11068.1
-10281.8
-9506.24
-8744.5
-7986.95
-7221.4
-6434.79
-5612.11
-4745.65
-3831.12
-2868.17
-1858.05
-802.26
299.554
1456.87
2675.69
3958.84
5310.32
6725.02
8187.93
9673.03
11143.5
12553.3
13850.6
14980.7
15883.7
16508.5
16815.6
16761.4
16386.9
15661.1
14602.7
13259.1
11677.3
9922.11
8059.96
6150.62
4242.91
2376.55
580.933
-1124.25
-2728.16
-4226.22
-5622.03
-6918.27
-8123.08
-9242.06
-10280.8
-11244.1
-12132.6
-12946.3
-13681.7
-14335.8
-14902.7
-15379.1
-15758.6
-16021.7
-16176.8
-16220.8
8172.12
6643.73
4952.89
2765.42
553.316
-1841.61
-4394.09
-7031.89
-9664.2
-12182.6
-14448.2
-16414.1
-17691.5
-18341.8
-18290.1
-17499.4
-16017.5
-13984.4
-11556.7
-8129.97
-4985.82
-1802.96
1312.15
4282.59
7052.04
9568.88
11782.1
13648.1
15106.5
16147.2
16708.7
16728.7
16191.9
15090.8
13449.6
11324.2
8789.69
5965.81
2866.06
-320.121
-3461.52
-6453.89
-9201.01
-11621.3
-13691.1
-15401.9
-16775.3
-17784.6
-18485.8
-18911
-19026.2
-18787.3
-18143
-17067.6
-15564.4
-13671
-11478.2
-9079.58
-6587.29
-4130.22
-2142.79
84.4796
2141.63
3941.79
5533.99
6983.83
8365.55
9733.97
11109.5
12478.5
13800.8
15020.3
16079.3
16920.3
17504.6
17757.3
17648.7
17154.8
16300.6
15040.3
13379.5
11320.8
8884.42
6103.71
3005.39
-421.784
-4010.86
-7728.3
-11450.4
-15012.8
-18209.4
-20876.9
-22657.5
-23525.8
-23469
-22516.7
-20673.8
-18094.4
-15167.3
-12221.2
-9322.51
-6690.9
-4525.13
-2874.99
-1664.62
-784.784
102.589
927.946
1717.98
2668.21
3849.58
5257.17
6808.3
8413.39
10025
11596
13037.7
14230.9
15085.5
15542.9
15549.4
15110.2
14275.9
13087
11602.7
9882.27
7984.05
5959.33
3837.52
1634.83
-643.945
-3009.28
-5469.56
-8025.3
-10660.4
-13336
-15975.9
-18464.3
-20671.6
-22334.1
-23348.7
-23626.8
-23045.4
-21658.8
-19506
-16769.9
-13675.6
-10342.7
-6907.91
-3404.62
13.4272
3098.88
6214.11
9029.32
11596.2
13854
15724.1
17168.3
18147.9
18691.5
18774
18395.5
17653
16624.5
15369.4
14030.9
12701.5
11466.4
10361.1
9381.67
8476.72
7530.34
6452.99
5136.25
3517.78
1532.34
-795.543
-3449.8
-6256.93
-8992.33
-11450.7
-13401.7
-14689.8
-15295.3
-15513.7
-15341
-14889.6
-14259.3
-13524
-12733.5
-11919.3
-11106.8
-10306.8
-9525.85
-8766.29
-8016.98
-7262.3
-6487.44
-5674.62
-4815.4
-3905.35
-2945.27
-1937.9
-886.025
210.976
1362.96
2578.1
3863.1
5223.97
6657.9
8151.13
9677.81
11200.1
12669.2
14030
15223.4
16184
16854.5
17190.8
17143.5
16758.5
16002.1
14894.1
13487.9
11836.2
10009.2
8080.82
6114.06
4160.12
2258.75
439.669
-1279.16
-2887.88
-4384.79
-5775.06
-7063.53
-8260.02
-9371.26
-10404
-11363.5
-12250.5
-13065
-13803.1
-14461.4
-15033.7
-15517.2
-15905.4
-16181.4
-16351.6
-16410.1
8994.12
7404.21
5659.96
3521.81
1241.93
-1272.83
-3989.73
-6818.3
-9661.02
-12410.4
-14911
-17114.4
-18656.2
-19509.8
-19608.2
-18899.9
-17445.6
-15358.2
-12791.9
-9360.7
-6014.86
-2645.19
666.707
3845.3
6829.08
9560.35
11983.6
14051.6
15699.4
16891.2
17577.6
17689.5
17208.1
16122.5
14456.6
12266.2
9626.62
6649.13
3394.84
30.4344
-3288.52
-6453.86
-9354.17
-11887.6
-14043.3
-15810
-17227.3
-18225.4
-18976.5
-19456.7
-19640.5
-19477.7
-18893.7
-17851.4
-16345.2
-14408.1
-12146.9
-9654.99
-7053.8
-4483.75
-2407.84
-89.407
2022.49
3844.32
5441.96
6889.56
8271.62
9650.55
11050.5
12460.6
13841
15133.1
16274.3
17204
17872
18262.4
18160.5
17676.1
16856.9
15612.5
13948
11867
9390.61
6552.01
3372.35
-127.897
-3850.23
-7741.64
-11679.9
-15488.3
-18928
-21870.7
-23869.1
-24825.2
-24786.1
-23720.9
-21693.6
-18837.1
-15673
-12510.7
-9414.18
-6645.54
-4401.62
-2729.19
-1543.19
-630.117
193.673
920.518
1610.56
2482.5
3617.43
5028.48
6620.48
8292.02
9993.89
11675.9
13228.9
14526.2
15467.6
15986.3
16022.8
15566.5
14696.4
13458.1
11916.3
10137.2
8184.65
6114.14
3957.22
1729.27
-567.245
-2949.92
-5435.98
-8035.59
-10740.6
-13521.4
-16302.9
-18952.6
-21362.3
-23218.7
-24372.6
-24749.2
-24096.5
-22663.4
-20388.8
-17523.4
-14305.1
-10848.9
-7299.37
-3684.07
-150.774
3020.31
6235.93
9142.63
11807
14161.8
16109.8
17619.6
18633.4
19217.5
19263.9
18835.3
18005.8
16877.9
15515.6
14081.7
12678.3
11403.6
10303.7
9366.4
8526.29
7651.28
6643.87
5365.39
3743.01
1714.58
-720.173
-3533.84
-6537.12
-9463.48
-12076.1
-14122.9
-15339.3
-15919
-16033.7
-15750.7
-15195.4
-14478.1
-13675
-12833.6
-11982.3
-11145.5
-10331.1
-9544.54
-8788
-8048.78
-7307.16
-6546.24
-5744.95
-4893.85
-3988.46
-3031.08
-2026.36
-979.052
112.316
1257.74
2467.26
3752.99
5123.13
6577.64
8104.32
9677.5
11258.1
12794.3
14227.6
15493.7
16520.9
17244.5
17615
17576.6
17178.6
16387
15221.6
13743.3
12010.7
10101.5
8097.96
6066.58
4061.35
2121.55
277.374
-1455.71
-3068.47
-4563.05
-5946.19
-7225.18
-8411.86
-9513.99
-10539.7
-11495.2
-12380.9
-13196.4
-13937.5
-14600.1
-15179
-15669.8
-16066.7
-16359
-16544.9
-16619.3
9820.74
8187.94
6435.75
4334.6
1981.28
-668.58
-3571.75
-6607.41
-9671.5
-12666.9
-15421.7
-17891.9
-19688.5
-20780.2
-21050.9
-20432.9
-19012.4
-16867.7
-14151.1
-10701.6
-7136.82
-3560.41
-30.4526
3380.32
6602.48
9570.41
12223.1
14508.4
16362.5
17711.6
18525.9
18730.6
18303.1
17229.8
15533.8
13270.9
10515.5
7375.88
3945.55
375.451
-3144.45
-6509.18
-9586.37
-12239.1
-14484.3
-16299.7
-17728.8
-18726.4
-19512.3
-20041
-20295.9
-20223.3
-19710.7
-18709.4
-17202.9
-15213.9
-12877.5
-10278.6
-7551.13
-4851.76
-2663.51
-245.919
1925.46
3774.77
5378.05
6821.49
8199.41
9582.69
11000
12445.7
13882.8
15250
16479.5
17506.4
18267.7
18723.3
18728.2
18225.8
17454.6
16228.6
14558.5
12450.9
9929.32
7028.6
3764.95
175.215
-3684.04
-7762.17
-11939
-16025.4
-19730.2
-23003.2
-25325.8
-26453.7
-26396.8
-25114.6
-22868.9
-19666.3
-16252.5
-12836
-9506.24
-6578.83
-4242.91
-2544.51
-1351.27
-419.99
325.133
935.346
1504.77
2279.36
3353.06
4761.55
6396.66
8142.75
9947.24
11756
13435.5
14851.8
15891.8
16478.4
16543.1
16067.8
15158.8
13863.8
12255.2
10408
8392.14
6268.55
4071.76
1816.72
-495.738
-2892.85
-5401.97
-8044.39
-10821.3
-13715.9
-16657.6
-19492.4
-22134.5
-24211.5
-25444.9
-25880.7
-25354.5
-23800.3
-21382.8
-18361
-15004.9
-11407.9
-7730.23
-3993.56
-337.268
2932.16
6255.55
9261.91
12033.6
14495.3
16532.6
18117.8
19168.8
19808.1
19812.5
19330.2
18400
17157.3
15669.1
14123.7
12633.2
11316.9
10223.2
9337.94
8576.37
7796.66
6860.17
5636.79
4009.29
1931.96
-622.082
-3624.23
-6863.77
-10019.6
-12815.3
-14977.9
-16065.5
-16614.5
-16601
-16190.8
-15522.5
-14712
-13835.6
-12939.4
-12048.9
-11186.2
-10355.9
-9563.39
-8810.52
-8083.17
-7356.87
-6612.34
-5824.4
-4982.15
-4081.14
-3125.81
-2123.37
-1081.13
3.32851
1141.08
2342.26
3627.29
5006.07
6482.07
8044.95
9669.52
11315.4
12927.3
14442.6
15791.2
16894.7
17679.5
18089.7
18060.2
17647.5
16815.5
15584.5
14023.3
12198.8
10196.6
8108.87
6005.99
3944.37
1962.85
91.8398
-1656.19
-3272.06
-4763
-6136.8
-7404.64
-8579.78
-9671.51
-10689.3
-11640.5
-12524.6
-13341.2
-14085.8
-14753.9
-15338.8
-15837
-16244.2
-16555
-16757.3
-16852.2
10630.9
8999.32
7302.81
5216.01
2782.25
-22.9766
-3141.35
-6401.53
-9695.04
-12951.9
-15975.3
-18731.7
-20785.3
-22159
-22629.8
-22125.1
-20724.4
-18528.3
-15660.7
-12162.6
-8362.98
-4562.37
-791.985
2878.89
6367.32
9597.66
12501.8
15018.3
17102.4
18613.1
19557.7
19855.9
19481
18417.2
16687
14345.8
11464.8
8153.8
4526.98
717.932
-3027.19
-6622.51
-9907.94
-12682.9
-15023.2
-16875.3
-18268
-19288.7
-20090.5
-20657.3
-20985.3
-21024.2
-20597.1
-19647.7
-18147.9
-16095.8
-13680.3
-10959
-8085.29
-5229.66
-2920.56
-389.376
1854.04
3737.48
5346.67
6784.44
8152.4
9532.04
10956.4
12430
13921.2
15365.6
16689.5
17823
18691.3
19225.1
19324.4
18836.5
18096.4
16891
15213.5
13074.6
10502.3
7535.09
4183.38
491.384
-3506.72
-7783.88
-12223
-16625.1
-20610.5
-24267.4
-26992.6
-28352.1
-28287.7
-26723.4
-24221.1
-20584.7
-16911.3
-13196
-9598.65
-6490.02
-4048.22
-2325.31
-1066
-148.831
502.117
975.738
1402.86
2057.97
3052.71
4447.26
6127.43
7957.65
9879.37
11830.2
13653.1
15205.4
16357.3
17018.7
17108.7
16617.2
15665.1
14304.9
12619.1
10693.2
8604.42
6419.87
4178.27
1894.66
-430.821
-2837.74
-5365.72
-8048.51
-10898
-13914.7
-17035.6
-20084.8
-22977.7
-25341.5
-26906.3
-27471.1
-26643.9
-25088.3
-22500.1
-19285.2
-15778.4
-12021
-8201.3
-4335.95
-551.648
2833.15
6269.81
9384.05
12272.7
14851.9
16990.9
18662.3
19749.6
20462.3
20421.5
19876
18829.5
17452.7
15822
14145
12560
11197.9
10115.4
9292.48
8630.34
7959.18
7108.44
5942.3
4325.16
2190.84
-498.665
-3724.14
-7242.16
-10672.2
-13675.8
-15926.5
-16965.9
-17421.1
-17252.4
-16691.9
-15887.3
-14965
-14006
-13049.6
-12116.2
-11218.9
-10371.9
-9574.7
-8828.28
-8117.02
-7411.31
-6685.5
-5913.06
-5080.8
-4184.21
-3230.37
-2229.69
-1192.18
-115.889
1012.41
2202.59
3485.18
4871.61
6369.72
7971.41
9652.12
11370.3
13066.8
14674.2
16116.4
17306.9
18162
18618.5
18600.4
18169.6
17292.2
15986.3
14331.5
12403.6
10296.1
8113.7
5930.96
3807.08
1780.13
-119.295
-1882.88
-3500.44
-4985.65
-6347.78
-7601.8
-8763.28
-9841.53
-10849.4
-11792.8
-12675.6
-13494.2
-14243.6
-14917.4
-15510
-16016.5
-16434.3
-16764.4
-16986.7
-17103.5
11398.9
9847.87
8274.01
6183.27
3655.35
667.503
-2704.81
-6206.92
-9731.67
-13265.6
-16565
-19605.1
-21973.4
-23635.8
-24357.2
-23981.4
-22627.9
-20366.2
-17340.2
-13760.9
-9713.44
-5672.87
-1637.62
2327.76
6116.27
9640.15
12822.6
15578.7
17931.1
19600.3
20675.6
21066.8
20742.2
19684.6
17916.9
15493.6
12477.7
8985.73
5145.54
1055.41
-2937.02
-6799.26
-10335.5
-13227.9
-15676.3
-17503.9
-18880
-19899.1
-20707.1
-21296.7
-21697
-21880.6
-21556.7
-20672.5
-19195
-17063.2
-14570.2
-11708.6
-8665.36
-5656.81
-3154.65
-514.58
1804.53
3737.99
5351.76
6785.29
8135.31
9501.54
10919.7
12410.2
13949.9
15472.6
16896.8
18147
19135.3
19767.6
19943.5
19525.3
18785
17601.8
15914.9
13738.8
11109
8070.62
4622.49
823.812
-3313.56
-7800.72
-12526.3
-17291.1
-21555.4
-25653.3
-29016.8
-31766.9
-30482.7
-28260.6
-25789.1
-21594.5
-17658.8
-13589.8
-9691.22
-6379.46
-3818.09
-2038.41
-697.778
191.872
734.015
1048.5
1308.27
1818.76
2708.94
4073.22
5801.28
7727.17
9783.07
11889.8
13874.2
15581.8
16861.3
17605.5
17717.6
17217.5
16217.7
14783.7
13009.7
10993.9
8821.17
6566.21
4273.77
1959.83
-374.509
-2784.63
-5324.32
-8041.86
-10961
-14105.2
-17433.8
-20718.1
-23911.7
-26692.7
-28063.6
-28680.4
-28420.4
-26556.5
-23759.3
-20298.7
-16632.5
-12691.9
-8715.47
-4715.66
-796.388
2722.19
6274.88
9505.32
12519.8
15227.3
17481.9
19250.9
20362.1
21184.3
21100.4
20484.4
19308.3
17781.8
15987.5
14162.3
12454.7
11039.9
9972.25
9225.72
8683.2
8130.37
7397.13
6303.64
4699.94
2505.26
-334.134
-3822.8
-7685.4
-11452
-14690.2
-16971.6
-18016
-18300.9
-17965.9
-17216.6
-16259.6
-15220.1
-14170.8
-13149
-12169.2
-11243.3
-10380.8
-9578.55
-8839.85
-8146.9
-7464.45
-6762.49
-6008.79
-5188.54
-4296.4
-3343.2
-2343.58
-1310.78
-244.086
871.429
2047.12
3323.81
4716.06
6236.35
7879.34
9621.42
11419.6
13210.2
14921
16468.5
17757.7
18693.7
19203.9
19200.6
18747.2
17819
16428.2
14666.6
12619.9
10394.1
8105.5
5835.14
3644.1
1569.49
-358.927
-2134.55
-3750.64
-5228.04
-6575.56
-7813.11
-8957.57
-10015.9