/*--------------------------------*- C++ -*----------------------------------*\
| =========                 |                                                 |
| \\      /  F ield         | OpenFOAM: The Open Source CFD Toolbox           |
|  \\    /   O peration     | Version:  v1912                                 |
|   \\  /    A nd           | Website:  www.openfoam.com                      |
|    \\/     M anipulation  |                                                 |
\*---------------------------------------------------------------------------*/
FoamFile
{
    version     2.0;
    format      ascii;
    class       volScalarField;
    location    "10";
    object      k;
}
// * * * * * * * * * * * * * * * * * * * * * * * * * * * * * * * * * * * * * //

dimensions      [0 2 -2 0 0 0 0];


internalField   nonuniform List<scalar> 
14268
(
0.0981567
0.0669312
0.0690974
0.061064
0.0597525
0.104623
0.268048
0.272651
0.272885
0.234152
0.0891631
0.0515594
0.094339
0.0709304
0.078373
0.0844935
0.0774052
0.0416557
0.0623355
0.0424512
0.0387472
0.0368066
0.0365329
0.0409405
0.0711032
0.0319799
0.0546814
0.0634226
0.0682318
0.0922518
0.0638268
0.0567469
0.0593811
0.0313683
0.0119228
0.00826413
0.0128892
0.0201601
0.0291492
0.051356
0.0688036
0.0464535
0.0601919
0.0876197
0.0896438
0.0540269
0.0216449
0.0248808
0.0341778
0.0289546
0.0190774
0.0124278
0.012918
0.0153455
0.0145117
0.0131637
0.0166031
0.0402929
0.0940121
0.123295
0.128635
0.0870799
0.0381172
0.0113598
0.00722557
0.0281245
0.0235954
0.0265166
0.0273846
0.0524746
0.102473
0.142312
0.150739
0.0570728
0.0128961
0.00543951
0.00627371
0.0110357
0.0107533
0.011902
0.0286621
0.0565819
0.0551674
0.040362
0.0359602
0.0345362
0.033761
0.0353582
0.0361281
0.0363223
0.037321
0.0406948
0.0465065
0.0351437
0.011919
0.00158146
0.000123633
6.90858e-06
3.20219e-07
1.33516e-08
8.30669e-10
3.86949e-10
3.86928e-10
4.01843e-10
0.530283
0.380724
0.319778
0.230933
0.27209
0.37911
0.714345
0.725267
0.702405
0.701039
0.32353
0.170503
0.337411
0.262352
0.241135
0.206818
0.223127
0.154296
0.161737
0.0678654
0.0615645
0.0563411
0.0536659
0.0588976
0.15176
0.119477
0.151964
0.113096
0.10443
0.181139
0.125867
0.0838622
0.0936235
0.0587938
0.0246067
0.0192871
0.034867
0.0537046
0.0557647
0.0873797
0.174041
0.207625
0.29164
0.349371
0.369363
0.239065
0.0946398
0.0933167
0.0949515
0.0584624
0.0380796
0.0196589
0.032071
0.0516703
0.0376132
0.019212
0.0275227
0.117048
0.328154
0.388264
0.397218
0.347772
0.142072
0.0374847
0.0334441
0.0433737
0.0409095
0.0651
0.0479188
0.0968656
0.263498
0.395875
0.44059
0.206743
0.0326609
0.0206532
0.0321315
0.0767229
0.0745261
0.0552007
0.0821137
0.13551
0.153804
0.114503
0.086459
0.0666651
0.066255
0.0716354
0.0749883
0.0757078
0.0766489
0.0807017
0.101234
0.0943986
0.0404285
0.00554145
0.000469425
2.88703e-05
1.48105e-06
7.45585e-08
1.19139e-08
9.92018e-09
1.03117e-08
1.08048e-08
1.06715
0.767186
0.716224
0.526388
0.335069
0.416815
0.957427
0.693103
0.683326
0.748726
0.433834
0.263597
0.815863
0.658205
0.491856
0.319709
0.238852
0.274302
0.0947545
0.0358269
0.015164
0.0197164
0.0213458
0.0335491
0.137349
0.222834
0.103631
0.114412
0.093593
0.107386
0.0829408
0.0541196
0.068537
0.0527019
0.0864334
0.309528
0.255722
0.168262
0.0605651
0.0712987
0.161732
0.32406
0.488361
0.363809
0.392893
0.403235
0.245464
0.188205
0.100709
0.042893
0.0305885
0.0486952
0.108883
0.155567
0.0985115
0.0413712
0.0284348
0.164727
0.487258
0.474469
0.497286
0.533134
0.262884
0.0595044
0.0768606
0.050943
0.145539
0.275324
0.106393
0.105119
0.282007
0.351485
0.422631
0.300347
0.0489328
0.0398978
0.0981708
0.245449
0.248277
0.171991
0.154773
0.195152
0.197237
0.130164
0.0571078
0.036021
0.0408585
0.0537706
0.0593653
0.0572931
0.0547675
0.0544545
0.0569471
0.0680101
0.0552648
0.00985806
0.00078958
5.00067e-05
2.70326e-06
1.74143e-07
5.96324e-08
5.78084e-08
6.05603e-08
6.32724e-08
0.898779
0.545318
0.62614
0.675867
0.320014
0.450781
0.976432
0.531808
0.514957
0.647705
0.466246
0.328333
0.894913
0.896411
0.848735
0.581993
0.231712
0.219991
0.0623866
0.0358408
0.0454338
0.0787421
0.0520953
0.0456379
0.0966096
0.271648
0.130202
0.308826
0.256057
0.0503396
0.0341336
0.0125827
0.0211358
0.0202761
0.140342
0.803828
0.787958
0.590873
0.215132
0.0816565
0.124036
0.288821
0.43375
0.273279
0.305669
0.379403
0.381061
0.192423
0.0680417
0.0295804
0.0568773
0.170778
0.261163
0.364194
0.332961
0.207984
0.101958
0.235303
0.457788
0.426437
0.423831
0.519351
0.347274
0.0909724
0.12895
0.107289
0.657158
0.91598
0.469333
0.0828756
0.196934
0.244422
0.280516
0.273912
0.108039
0.0586419
0.162156
0.288922
0.3546
0.326927
0.287349
0.292107
0.243443
0.131485
0.0424885
0.0494446
0.0772387
0.101811
0.10348
0.0922284
0.0810531
0.0777806
0.0612162
0.0514771
0.0393614
0.010614
0.000985343
6.73698e-05
3.91346e-06
3.18659e-07
1.51596e-07
1.50725e-07
1.56865e-07
1.62455e-07
0.686149
0.429419
0.483044
0.628405
0.310877
0.6204
0.865607
0.43596
0.420515
0.542302
0.50137
0.471439
0.768984
0.7801
1.10954
0.966053
0.274546
0.17544
0.0781114
0.058929
0.374289
0.593954
0.461504
0.316679
0.0657914
0.214756
0.377795
0.599195
0.709498
0.0780116
0.0265153
0.0196145
0.0224533
0.0340076
0.189937
0.891191
1.0474
1.01849
0.619653
0.247523
0.151367
0.255261
0.357649
0.245275
0.294091
0.350003
0.360676
0.160967
0.0422849
0.0414309
0.105269
0.21437
0.264189
0.402741
0.373925
0.34339
0.191502
0.214838
0.360601
0.41409
0.5909
0.704348
0.473098
0.176499
0.118954
0.180323
0.888765
1.37326
0.969573
0.0789983
0.123874
0.14776
0.193663
0.210018
0.20115
0.149793
0.14204
0.238207
0.313224
0.326579
0.358126
0.408346
0.356627
0.199543
0.0670289
0.0971885
0.197574
0.229729
0.213671
0.187537
0.171512
0.174633
0.170428
0.123335
0.0455149
0.00983547
0.00099895
7.16618e-05
4.38046e-06
4.47924e-07
2.61483e-07
2.60292e-07
2.66647e-07
2.72116e-07
0.534412
0.34947
0.381999
0.528856
0.373108
0.871021
0.710116
0.326567
0.303827
0.431715
0.565198
0.635755
0.629052
0.654197
1.00361
1.14781
0.475013
0.155748
0.141614
0.0679446
0.931128
1.13756
1.03417
0.932043
0.0468763
0.137755
0.578223
0.468073
0.656673
0.274452
0.0445688
0.202661
0.302678
0.135608
0.22078
0.825169
0.995143
1.08448
0.874973
0.561741
0.359185
0.318882
0.318383
0.379902
0.570438
0.28059
0.261063
0.107064
0.0547626
0.129553
0.223559
0.360372
0.56878
0.673002
0.341443
0.266822
0.156747
0.165702
0.28504
0.51878
0.874342
1.01858
0.655282
0.316188
0.0825552
0.317788
0.86941
1.60539
1.27973
0.174399
0.0650016
0.106675
0.227839
0.227031
0.246326
0.207759
0.154792
0.249664
0.245459
0.23923
0.283742
0.390733
0.484164
0.333595
0.150064
0.114945
0.162037
0.186362
0.173441
0.146966
0.127271
0.119721
0.136637
0.179334
0.0885206
0.0128587
0.00115135
7.70062e-05
4.51796e-06
5.2268e-07
3.38092e-07
3.346e-07
3.38199e-07
3.41428e-07
0.403709
0.263493
0.280793
0.407978
0.424234
0.899348
0.590631
0.22786
0.192956
0.298128
0.44889
0.747882
0.505783
0.568215
0.848639
1.09125
0.807948
0.231877
0.275178
0.100427
1.52976
1.64409
1.28944
1.38969
0.110245
0.0929362
0.55726
0.395736
0.522178
0.436484
0.068616
0.612321
0.823572
0.511564
0.175186
0.713571
0.923522
1.0554
0.960795
0.675955
0.56637
0.528336
0.40522
0.763802
1.09336
0.278585
0.183444
0.0594611
0.167358
0.377542
0.461062
0.934339
1.21837
1.55193
0.434691
0.186155
0.116161
0.118723
0.264834
0.546907
0.810797
1.08666
0.791595
0.417113
0.0566208
0.260984
0.823148
1.5645
1.50153
0.38063
0.0733365
0.268617
0.545045
0.438487
0.256829
0.173242
0.260104
0.491967
0.286164
0.172209
0.203188
0.330268
0.511945
0.457325
0.240457
0.105291
0.110803
0.125421
0.120883
0.107175
0.0928643
0.0714716
0.0756498
0.117176
0.112998
0.0219619
0.00148707
8.15566e-05
4.26262e-06
5.36533e-07
3.77064e-07
3.72529e-07
3.73881e-07
3.75142e-07
0.27212
0.199655
0.240353
0.308637
0.411356
0.821222
0.476523
0.170093
0.168444
0.196755
0.310849
0.681702
0.385543
0.477899
0.743518
0.860823
0.984232
0.530199
0.385183
0.158731
2.03835
1.7546
1.03375
1.46076
0.364203
0.0391282
0.389968
0.295548
0.423321
0.492337
0.288223
0.961972
1.1474
0.834061
0.210101
0.607245
0.84183
0.990792
0.869221
0.583331
0.520589
0.512237
0.475834
1.04578
1.37008
0.483958
0.108224
0.0625512
0.427598
0.630792
0.764585
1.20144
1.04575
1.71848
0.920682
0.138216
0.0774537
0.0751645
0.288784
0.493806
0.718149
1.002
0.87157
0.515488
0.0589775
0.195882
0.919419
1.42663
1.47479
0.631143
0.251074
0.547075
0.766982
0.616495
0.234495
0.121054
0.381552
0.782261
0.594483
0.224805
0.193492
0.298476
0.486765
0.494558
0.322708
0.183854
0.173455
0.17519
0.188762
0.206742
0.206761
0.144114
0.0453322
0.0552308
0.070689
0.0248461
0.00152384
7.3623e-05
3.5237e-06
5.16259e-07
3.93637e-07
3.88942e-07
3.88902e-07
3.88913e-07
0.231489
0.313924
0.489324
0.283394
0.385131
0.804558
0.370909
0.212567
0.572795
0.2059
0.213512
0.484369
0.280353
0.407053
0.617656
0.720569
1.04047
0.785344
0.450579
0.320956
2.59425
1.48046
0.847188
1.31477
0.808782
0.0245594
0.275484
0.199036
0.301714
0.451108
0.470771
1.24378
1.44534
1.03389
0.653246
0.556497
0.733515
0.870498
0.746938
0.452608
0.409647
0.437123
0.468534
1.34633
1.61857
0.923887
0.112037
0.187407
0.633524
0.722597
1.02959
1.16429
0.892059
1.61813
1.40742
0.253044
0.0766697
0.0876184
0.32315
0.42909
0.627182
0.918915
0.914782
0.638212
0.137874
0.210181
1.18251
1.31255
1.36024
0.905995
0.567447
0.696465
0.861219
0.775127
0.214571
0.107765
0.612114
1.03485
0.795951
0.405491
0.319371
0.360118
0.488414
0.482471
0.356055
0.352137
0.383319
0.409593
0.435665
0.447792
0.427628
0.31918
0.0953307
0.0311811
0.0299865
0.0147507
0.00100872
4.85004e-05
2.57547e-06
4.95809e-07
4.00247e-07
3.95221e-07
3.94455e-07
3.93868e-07
0.593156
0.639819
0.797561
0.452113
0.470115
0.696805
0.300277
0.383871
0.935598
0.616344
0.146088
0.381761
0.192263
0.33596
0.500571
0.607226
0.900948
0.665984
0.554415
0.630602
2.86149
1.21171
0.767647
1.16455
1.24812
0.157002
0.204131
0.167533
0.251902
0.361418
0.337192
1.44749
1.64206
1.22975
1.05496
0.616529
0.637719
0.759218
0.617136
0.363694
0.301933
0.337326
0.518992
1.37634
1.72922
1.24486
0.31742
0.487302
0.682287
0.707432
1.17713
1.02851
0.837653
1.49285
1.69673
0.598935
0.0948935
0.259338
0.312555
0.341078
0.50317
0.815231
0.783079
0.545239
0.31663
0.39419
1.24245
1.18795
1.23501
1.0338
0.752925
0.632973
0.720115
0.784759
0.222361
0.274136
0.918805
1.25603
0.899276
0.478873
0.418543
0.486215
0.554252
0.497893
0.38224
0.477249
0.530728
0.57305
0.603109
0.605032
0.573348
0.44255
0.172252
0.0364471
0.0161544
0.00535733
0.000488467
3.09065e-05
2.15861e-06
4.93682e-07
4.03063e-07
3.9741e-07
3.96319e-07
3.95474e-07
0.67176
0.561655
0.766527
0.543324
0.547172
0.538487
0.255313
0.465481
1.0104
0.804245
0.187256
0.284609
0.137789
0.274328
0.449519
0.641595
0.781517
0.584384
0.648291
1.08295
2.58521
1.02202
0.669734
0.999755
1.41078
0.582345
0.274454
0.284437
0.332502
0.343607
0.322949
1.74917
1.8481
1.29338
1.38938
0.799001
0.547883
0.652522
0.518024
0.42881
0.276246
0.252983
0.763974
1.16335
1.63611
1.48899
0.542896
0.719162
0.689312
0.703582
1.26706
0.908039
0.735789
1.32231
1.81214
0.925285
0.282476
0.581644
0.290937
0.29545
0.400386
0.694754
0.627352
0.391063
0.235349
0.547304
1.17644
1.07365
1.12245
1.0473
0.800933
0.558788
0.581286
0.715597
0.442918
0.630586
1.1917
1.43613
1.03866
0.513404
0.492474
0.6609
0.717211
0.607008
0.48234
0.586631
0.647717
0.702874
0.732306
0.725997
0.684154
0.525857
0.235143
0.0546824
0.0160686
0.00314003
0.000345676
2.73003e-05
2.18473e-06
5.04896e-07
4.04725e-07
3.98128e-07
3.9688e-07
3.95939e-07
0.556467
0.467591
0.640939
0.525406
0.387718
0.400959
0.210382
0.413837
0.819549
0.719951
0.34278
0.197947
0.124171
0.201527
0.497474
0.981312
0.658688
0.499677
0.694169
1.4243
2.25959
0.852833
0.553977
0.874663
1.3661
0.792098
0.457852
0.415556
0.28439
0.418897
0.492722
2.03064
1.78319
1.0072
1.25776
1.00363
0.465625
0.533319
0.463963
0.617362
0.446667
0.280196
1.05927
0.996257
1.46906
1.54875
0.728809
0.682949
0.71437
0.836463
1.37569
0.783615
0.58603
1.12536
1.72986
1.10781
0.518374
0.716608
0.313043
0.421032
0.399204
0.607048
0.506347
0.290103
0.173886
0.504649
1.0622
0.965757
1.09539
1.02788
0.624394
0.410228
0.460294
0.599678
0.70201
0.969272
1.40366
1.59605
1.24423
0.590075
0.606878
0.883034
0.938001
0.793437
0.601254
0.669371
0.73521
0.776011
0.744357
0.71127
0.681852
0.53679
0.265481
0.0758169
0.0176592
0.00304871
0.000334667
2.85559e-05
2.4112e-06
5.24512e-07
4.0612e-07
3.98368e-07
3.9703e-07
3.96056e-07
0.419477
0.380755
0.546959
0.520493
0.298344
0.27666
0.168751
0.345142
0.688651
0.583014
0.437313
0.201843
0.125221
0.153647
0.755973
1.26415
0.555775
0.464233
0.761411
1.73858
2.01833
0.708189
0.427985
0.75064
1.27071
0.767449
0.631668
0.600997
0.243166
0.444142
0.838035
2.10352
1.48493
0.84719
1.04468
1.12538
0.433861
0.430559
0.494801
0.726607
0.62921
0.595213
1.19843
0.887466
1.31966
1.3901
0.838277
0.646596
0.834146
1.17453
1.38592
0.66041
0.456706
0.968836
1.5825
1.27008
0.790328
0.693556
0.364586
0.800131
0.779316
0.56915
0.418335
0.192922
0.11259
0.433427
0.944355
0.881947
1.12577
1.07444
0.521018
0.287315
0.320959
0.449927
0.705851
1.19898
1.5399
1.72258
1.4434
0.776917
0.757481
0.981355
1.02901
0.898711
0.658674
0.712244
0.75485
0.753023
0.671057
0.63248
0.607917
0.495843
0.275213
0.101497
0.0219912
0.00324686
0.000354573
3.20424e-05
2.75091e-06
5.46528e-07
4.07171e-07
3.98423e-07
3.97043e-07
3.96066e-07
0.279719
0.280279
0.44982
0.53637
0.260083
0.204394
0.149442
0.277262
0.576251
0.498795
0.493197
0.282122
0.144398
0.162031
1.17697
1.52897
0.582392
0.607629
0.931974
1.84677
1.75549
0.653866
0.315762
0.617473
1.17332
0.683509
0.606219
0.85873
0.310267
0.419432
0.883005
1.89413
1.23454
0.76165
0.940706
1.14787
0.515827
0.420702
0.580823
0.650357
0.648335
0.838944
1.25159
0.788745
1.15675
1.30205
0.758012
0.61985
1.0384
1.33389
1.26506
0.585025
0.408401
0.863097
1.41779
1.33221
0.935183
0.604177
0.418055
1.1664
1.14714
0.575851
0.394593
0.119618
0.0835163
0.420009
0.816747
0.812452
1.0382
1.12937
0.489411
0.192278
0.214417
0.325723
0.576564
1.20068
1.51352
1.73218
1.57848
0.996298
0.868903
0.976114
1.01076
0.892598
0.645812
0.712115
0.705432
0.660173
0.571473
0.533517
0.51404
0.417613
0.255717
0.123806
0.0271326
0.00364475
0.000401685
3.69959e-05
3.09462e-06
5.61878e-07
4.07559e-07
3.98401e-07
3.97023e-07
3.96049e-07
0.140845
0.163179
0.314623
0.526403
0.356767
0.199409
0.178514
0.198155
0.404837
0.414128
0.364564
0.240393
0.252332
0.444482
1.32548
1.4797
0.967985
1.33678
1.39997
1.56179
1.39959
0.600811
0.222145
0.461983
1.07196
0.703877
0.569164
1.32508
0.890264
0.403649
0.653682
1.43923
1.01366
0.588012
0.770874
1.1222
0.786998
0.653762
0.613471
0.508623
0.516706
0.879259
1.2118
0.705521
0.979038
1.22925
0.693035
0.673695
1.25995
1.25128
1.08951
0.520956
0.612108
0.786786
1.19878
1.11968
0.619233
0.451325
0.516005
1.62498
1.59351
0.641351
0.431033
0.0851719
0.101042
0.4822
0.665916
0.673312
0.923217
1.14382
0.562499
0.0914931
0.0996567
0.175491
0.394305
1.05757
1.35994
1.63123
1.64359
1.15576
0.929279
0.897084
0.923395
0.818604
0.59683
0.686104
0.665425
0.566856
0.461814
0.396301
0.364598
0.282879
0.181378
0.143833
0.0387589
0.00480093
0.000529708
4.59329e-05
3.41905e-06
5.62939e-07
4.06824e-07
3.98311e-07
3.96992e-07
3.96026e-07
0.139579
0.0892902
0.180668
0.450267
0.54085
0.35144
0.151393
0.121523
0.230292
0.379622
0.246281
0.1899
0.551863
1.00081
1.11012
1.20258
1.66813
2.34269
2.1262
1.6056
1.10558
0.583692
0.435431
0.329944
0.849815
0.84751
0.57354
1.85479
1.65745
0.708964
0.531946
1.17365
0.865365
0.444883
0.508061
0.937793
0.908736
0.780318
0.495303
0.307508
0.326219
0.654359
0.907176
0.574755
0.772772
1.21837
0.816618
1.03014
1.1538
1.03995
0.797484
0.529487
1.03159
1.03648
1.02078
0.704314
0.424511
0.282594
0.783142
2.04022
1.95168
0.680548
0.559919
0.224876
0.21318
0.557204
0.604624
0.508706
0.762322
0.969756
0.700283
0.120021
0.0924883
0.129131
0.269378
0.820017
1.10463
1.41155
1.57364
1.08691
0.725736
0.716567
0.741669
0.669114
0.606269
0.75015
0.82217
0.739498
0.577377
0.368952
0.233697
0.14426
0.0802948
0.0933892
0.0513842
0.0065436
0.000635531
4.77198e-05
3.16021e-06
5.31325e-07
4.04621e-07
3.98151e-07
3.96944e-07
3.9599e-07
0.216927
0.100095
0.10111
0.35882
0.654604
0.479216
0.098986
0.0780808
0.123463
0.356765
0.277239
0.337196
0.907837
0.984719
0.911921
1.00533
1.64222
2.35541
2.2359
1.98571
1.06035
0.965686
0.909733
0.254156
0.585517
0.530741
0.728125
2.25052
2.12954
1.48659
0.59499
1.04351
0.942353
0.59738
0.406408
0.718235
0.763735
0.64448
0.341475
0.200659
0.280674
0.451154
0.637093
0.423049
0.583097
1.09852
0.992113
0.986862
0.912593
0.792084
0.583419
0.790384
1.32304
1.39988
1.04133
0.44578
0.230205
0.219965
1.34047
2.40513
2.26348
0.720733
0.709465
0.629917
0.559496
0.683708
0.752673
0.397243
0.562818
0.750394
0.620458
0.258226
0.145133
0.155612
0.271493
0.570196
0.835594
1.18863
1.42292
0.988132
0.526595
0.515765
0.543535
0.517008
0.653775
0.815306
0.872771
0.876131
0.784461
0.554864
0.242686
0.0954303
0.0387325
0.044353
0.0393928
0.00733237
0.000601726
3.88603e-05
2.3185e-06
4.7891e-07
4.02126e-07
3.97995e-07
3.96888e-07
3.95948e-07
0.212189
0.106496
0.0934167
0.287653
0.686228
0.620795
0.183171
0.0725925
0.0728288
0.237839
0.468108
0.756688
0.909763
0.756523
0.684115
0.799017
1.36349
2.03674
1.87906
2.30262
1.44069
1.50074
1.45172
0.242644
0.388829
0.307772
1.05609
2.26181
2.10057
1.92401
1.0232
1.09329
1.00266
0.892759
0.575487
0.520482
0.589809
0.467324
0.217251
0.307904
0.387676
0.370465
0.405262
0.302589
0.416887
0.820091
0.741562
0.701168
0.646738
0.547998
0.487596
0.870974
1.1381
1.42485
1.19177
0.334354
0.120189
0.371282
1.65679
2.43523
2.41336
0.92109
0.718673
0.794173
0.766454
0.887649
1.01833
0.486579
0.398658
0.535266
0.469308
0.329777
0.217434
0.181133
0.218712
0.386111
0.59814
0.971605
1.25384
0.939468
0.39116
0.324582
0.340281
0.349305
0.579617
0.732963
0.7927
0.842024
0.852814
0.668982
0.263366
0.0873094
0.0353591
0.0241125
0.0207283
0.00508907
0.000385939
2.09012e-05
1.28155e-06
4.34345e-07
4.00472e-07
3.97848e-07
3.96796e-07
3.95871e-07
0.15974
0.109945
0.0998371
0.223383
0.567471
0.704814
0.283752
0.0860646
0.0617896
0.128895
0.387182
0.607085
0.579791
0.557196
0.452785
0.562985
1.11291
1.72251
1.59862
2.67296
1.83265
1.83509
1.83155
0.440577
0.208786
0.159116
1.21812
1.99987
1.8628
1.95411
1.39306
1.18093
0.860291
0.931909
0.756167
0.387813
0.414377
0.303221
0.146597
0.396955
0.475254
0.377236
0.245695
0.168112
0.254014
0.578296
0.533077
0.47006
0.408147
0.332594
0.517984
0.7872
0.978695
1.24866
1.16896
0.475886
0.233616
0.776908
1.72059
2.29163
2.25044
1.14456
0.618898
0.832804
0.957569
1.07778
1.10429
0.737222
0.319513
0.396418
0.395782
0.345728
0.268517
0.204079
0.200185
0.273278
0.414477
0.756521
1.10111
0.916771
0.322303
0.17714
0.180711
0.206663
0.460197
0.626094
0.692434
0.749943
0.791673
0.680404
0.280066
0.098777
0.0442716
0.0182063
0.00931165
0.00195454
0.000143454
8.01455e-06
7.54514e-07
4.16216e-07
3.99843e-07
3.97776e-07
3.96761e-07
3.95849e-07
0.155048
0.114584
0.109629
0.144284
0.435114
0.603846
0.225335
0.0821267
0.0536203
0.0636543
0.258842
0.356055
0.388996
0.377075
0.259805
0.355782
0.836395
1.41568
1.38629
2.48846
1.86919
1.72891
1.69256
0.635958
0.0881697
0.0990556
1.21226
1.7419
1.68274
1.82464
1.53091
1.14485
0.738715
0.81628
0.813561
0.358078
0.241751
0.144599
0.144119
0.478435
0.50443
0.357707
0.152723
0.0702455
0.126155
0.379568
0.349146
0.268927
0.216914
0.177051
0.520486
0.670018
0.803588
1.05894
1.02946
0.63251
0.457579
0.94474
1.62617
2.07526
1.98013
1.15831
0.484024
0.649626
0.941231
1.08238
1.02238
0.729245
0.367811
0.349859
0.429044
0.373676
0.295984
0.222101
0.19016
0.212695
0.300373
0.574613
0.933498
0.840074
0.332495
0.0967618
0.0977194
0.128992
0.323125
0.500488
0.583108
0.652544
0.691207
0.618739
0.258654
0.094034
0.0553208
0.0176547
0.0048072
0.000730413
5.83193e-05
3.97314e-06
5.99511e-07
4.10984e-07
3.9967e-07
3.97776e-07
3.96772e-07
3.95866e-07
0.174536
0.120855
0.122959
0.112188
0.348761
0.45733
0.202945
0.0758544
0.0505339
0.0675847
0.12781
0.234939
0.275312
0.247592
0.145462
0.225494
0.660292
1.18059
1.20621
2.18095
1.65533
1.51327
1.48625
0.696162
0.0674803
0.13642
1.1259
1.48833
1.47248
1.6514
1.40373
1.04152
0.636685
0.709504
0.72884
0.377686
0.149108
0.0718951
0.150778
0.436167
0.424362
0.324574
0.125347
0.0323368
0.0713248
0.276844
0.266556
0.155393
0.0997451
0.126839
0.47855
0.540255
0.618849
0.87594
0.907246
0.690699
0.583658
0.911886
1.4615
1.83254
1.70653
1.04905
0.402223
0.539173
0.760898
0.988093
0.900793
0.619336
0.365918
0.315226
0.397231
0.382405
0.315225
0.237947
0.186878
0.177943
0.24013
0.452496
0.78561
0.723033
0.347584
0.106269
0.0997445
0.11252
0.224842
0.384492
0.478034
0.553223
0.590999
0.534249
0.244285
0.0895026
0.0551463
0.0164901
0.00305548
0.000376085
3.29578e-05
2.70673e-06
5.43418e-07
4.08413e-07
3.99442e-07
3.97651e-07
3.96644e-07
3.95747e-07
0.269091
0.142492
0.136683
0.128318
0.114476
0.183149
0.11746
0.0565341
0.0578748
0.119805
0.209857
0.196288
0.111888
0.100717
0.089514
0.0681044
0.119298
0.248312
0.35986
0.668245
0.571467
0.489898
0.480904
0.417758
0.294011
0.438423
0.546107
0.529739
0.560906
0.627429
0.574836
0.362942
0.171711
0.22008
0.31067
0.273745
0.210975
0.127047
0.0486948
0.0600684
0.0911493
0.0999944
0.0875966
0.0681828
0.085488
0.130844
0.145128
0.145298
0.114205
0.0542838
0.113924
0.133719
0.175308
0.244396
0.355797
0.446307
0.432802
0.450497
0.505385
0.561015
0.474107
0.239962
0.116509
0.208528
0.387718
0.389749
0.269656
0.21676
0.209885
0.231551
0.308322
0.375267
0.348161
0.282834
0.195819
0.110172
0.0850787
0.119445
0.210166
0.212399
0.209882
0.191571
0.136718
0.0705978
0.0640197
0.0879285
0.13406
0.151009
0.15029
0.122062
0.044234
0.0153266
0.0108207
0.00390221
0.000680033
7.98993e-05
7.30576e-06
8.8719e-07
4.30962e-07
4.01822e-07
3.98758e-07
3.97357e-07
3.96431e-07
3.95585e-07
0.0788336
0.0876973
0.117221
0.162861
0.141681
0.136548
0.133259
0.100602
0.0736369
0.0705332
0.0755995
0.0922031
0.12757
0.128824
0.122308
0.108168
0.0874729
0.0723069
0.0756596
0.0927774
0.0831972
0.0916715
0.100949
0.101494
0.143043
0.13704
0.101789
0.11679
0.157512
0.195731
0.184633
0.144995
0.0934712
0.0896374
0.106991
0.112977
0.110253
0.084415
0.0439189
0.0198717
0.0128625
0.0112944
0.0146675
0.0144138
0.0182727
0.0360685
0.0904281
0.171537
0.181123
0.116075
0.0560212
0.0569609
0.0999838
0.110705
0.113933
0.128262
0.117598
0.0744105
0.0498783
0.0526879
0.0558772
0.0557192
0.08298
0.111703
0.181641
0.169164
0.0675369
0.0508412
0.0589371
0.107032
0.221095
0.309036
0.315474
0.301945
0.262159
0.196826
0.115576
0.0746717
0.0527334
0.0409002
0.0383829
0.0466956
0.0449585
0.0331792
0.0305982
0.0341972
0.0357171
0.0327443
0.0358249
0.0290885
0.0106142
0.00298979
0.00129681
0.000432042
7.54204e-05
8.86889e-06
1.11385e-06
4.50752e-07
4.03658e-07
3.99373e-07
3.97921e-07
3.968e-07
3.96006e-07
3.95262e-07
0.0219931
0.0287865
0.0495365
0.102162
0.122814
0.0993973
0.0859636
0.0749884
0.0685033
0.0600146
0.045959
0.0413039
0.060479
0.0858159
0.107847
0.104973
0.0892211
0.0613941
0.0304805
0.0183024
0.0187742
0.0193999
0.0226271
0.0300057
0.0424093
0.0385018
0.0293037
0.0242845
0.0259386
0.0345271
0.0520412
0.0522849
0.0472169
0.0406012
0.0401056
0.0400075
0.038273
0.0336472
0.0248045
0.0152335
0.011836
0.0103794
0.00867704
0.00790274
0.00823985
0.00903013
0.0125856
0.028535
0.0803563
0.0946366
0.0973727
0.0959567
0.0833624
0.0879268
0.0864717
0.0718296
0.0537448
0.0352255
0.017385
0.0140252
0.022057
0.0364663
0.0545381
0.0757503
0.0920969
0.0814206
0.0442608
0.0264933
0.0276787
0.0396785
0.0771913
0.115962
0.115989
0.0961985
0.0856321
0.0811882
0.0767401
0.0639022
0.0424794
0.0282809
0.0195772
0.0157461
0.014949
0.0157857
0.0185442
0.0197166
0.0186486
0.0149984
0.0104482
0.00540456
0.00166858
0.000503405
0.000175976
4.54748e-05
7.48744e-06
1.16797e-06
4.64698e-07
4.04984e-07
3.99559e-07
3.98028e-07
3.9697e-07
3.96047e-07
3.95375e-07
3.94742e-07
0.00915751
0.0158858
0.0326642
0.0652929
0.0801975
0.072094
0.0595898
0.0468091
0.0365428
0.0314415
0.0319523
0.0328716
0.0361642
0.049256
0.0713738
0.0765414
0.0791904
0.0859532
0.0818938
0.0740562
0.0579817
0.0295677
0.0148568
0.0102335
0.0101514
0.0108432
0.0132068
0.0142822
0.0127535
0.00995074
0.010056
0.0111051
0.0118205
0.0117894
0.0116748
0.0114616
0.0110811
0.0103931
0.00950921
0.00919879
0.0088892
0.00835852
0.00758041
0.00688547
0.00631236
0.00535573
0.00450376
0.0049366
0.0116177
0.026281
0.0466386
0.0662473
0.0687492
0.0688544
0.0694822
0.0883642
0.129606
0.125292
0.0703945
0.0271431
0.0241361
0.0249735
0.0237023
0.0244128
0.0245598
0.0211989
0.0182047
0.018475
0.0195998
0.0228154
0.0307954
0.0349206
0.0324422
0.0250723
0.0236116
0.025725
0.0298166
0.0295604
0.0278991
0.0258826
0.0214382
0.0148257
0.0112323
0.00969317
0.00921772
0.00886073
0.00785578
0.0055226
0.00286978
0.00110151
0.00031688
8.48018e-05
2.24716e-05
4.881e-06
1.03178e-06
4.66517e-07
4.05871e-07
3.99729e-07
3.98201e-07
3.97131e-07
3.96272e-07
3.95498e-07
3.94922e-07
3.94383e-07
0.00588762
0.0123632
0.0256774
0.0407484
0.0431334
0.0398239
0.0329417
0.0276364
0.0224398
0.0169493
0.0144386
0.014711
0.0157949
0.0189458
0.0296807
0.0351984
0.0395817
0.0457935
0.0541803
0.0545939
0.0560752
0.0636714
0.0692899
0.0602299
0.042045
0.0363103
0.0329354
0.0279577
0.021146
0.0139614
0.00926574
0.00712276
0.00638287
0.00597578
0.00592437
0.00627882
0.00717792
0.00827726
0.00903817
0.00894614
0.00843167
0.00771715
0.00696874
0.00638606
0.00590337
0.0055254
0.00501896
0.00437886
0.00478322
0.00670396
0.0116197
0.0214361
0.0352104
0.0441026
0.0520064
0.0699467
0.110523
0.145209
0.142302
0.0994519
0.0413685
0.0204897
0.0161262
0.0152825
0.0142228
0.0136828
0.0132878
0.0132203
0.0136417
0.0152814
0.0194106
0.0224078
0.0218107
0.0206428
0.02075
0.0215312
0.0221261
0.0227187
0.0236565
0.0222264
0.016015
0.00912551
0.00589095
0.00453137
0.00382638
0.00314725
0.00226624
0.00124087
0.000529969
0.000176971
4.81047e-05
1.19725e-05
2.90637e-06
8.28231e-07
4.55121e-07
4.05381e-07
3.99503e-07
3.98095e-07
3.97134e-07
3.96293e-07
3.95596e-07
3.94952e-07
3.94462e-07
3.94006e-07
0.00551027
0.0103175
0.0181335
0.0267033
0.0288158
0.0281955
0.0255255
0.0207417
0.0140096
0.00872339
0.00626541
0.00583265
0.00611154
0.0067138
0.00825102
0.00969832
0.0113012
0.0138965
0.0185902
0.02425
0.0308786
0.0433454
0.0551377
0.0550182
0.0527863
0.0483006
0.041615
0.0327591
0.0215049
0.012425
0.00817208
0.00632488
0.0049528
0.0041844
0.00400897
0.00407949
0.00426729
0.00454477
0.00487134
0.00518683
0.00550719
0.00566665
0.00566313
0.00565342
0.00564262
0.00553403
0.00533594
0.00503444
0.00465474
0.00473008
0.00542168
0.00736165
0.0114701
0.017591
0.0263694
0.0414161
0.0738534
0.121189
0.133822
0.128718
0.112116
0.0906942
0.0683589
0.0575352
0.0477796
0.0366006
0.0245605
0.0183114
0.0166076
0.0163435
0.0171263
0.0202962
0.0224983
0.02309
0.0239949
0.0255821
0.0256378
0.0255678
0.0232209
0.0162713
0.00844253
0.0045129
0.00266891
0.00181332
0.00133764
0.00094472
0.00055956
0.000258201
9.61962e-05
2.9028e-05
7.46266e-06
1.90742e-06
6.76595e-07
4.41327e-07
4.04472e-07
3.9922e-07
3.97899e-07
3.97015e-07
3.96253e-07
3.95566e-07
3.94987e-07
3.94444e-07
3.94026e-07
3.93639e-07
0.00634092
0.0112286
0.0182866
0.0222466
0.0222469
0.0196273
0.0141993
0.00960482
0.0078278
0.00738633
0.00733798
0.00752249
0.00800585
0.00816077
0.00842907
0.00867718
0.00895944
0.00952613
0.0108662
0.013211
0.0176767
0.0276002
0.0438708
0.0530258
0.0537288
0.05126
0.0445036
0.0317432
0.0155685
0.00706197
0.00382348
0.00273313
0.00253384
0.00256536
0.00276481
0.00330503
0.00416453
0.00515791
0.00582982
0.0062538
0.00637382
0.00637214
0.0064193
0.00664617
0.00716732
0.00760736
0.00802465
0.00792933
0.0075363
0.00691877
0.00683394
0.00717509
0.00791018
0.00931988
0.0124038
0.0199396
0.0387006
0.0784396
0.104838
0.104581
0.0996332
0.0968091
0.0937792
0.0871057
0.0771789
0.063352
0.0450288
0.032543
0.0287633
0.0273759
0.0253377
0.0229237
0.0242816
0.0308544
0.0366392
0.0356159
0.031055
0.0245625
0.0159319
0.00716575
0.00327186
0.00163159
0.000886267
0.00054258
0.000352474
0.000214461
0.000108673
4.4125e-05
1.48873e-05
4.35746e-06
1.30066e-06
5.73011e-07
4.27319e-07
4.02622e-07
3.98674e-07
3.97563e-07
3.96802e-07
3.96105e-07
3.95484e-07
3.94916e-07
3.94432e-07
3.93975e-07
3.93617e-07
3.93292e-07
0.00999518
0.0147891
0.0175094
0.0170311
0.0138811
0.00982689
0.00848737
0.00857591
0.00942826
0.010279
0.0105137
0.0105437
0.010501
0.0102513
0.00986856
0.00934486
0.00907203
0.00917198
0.00965508
0.0109415
0.0143085
0.0224627
0.0374034
0.0508834
0.0530795
0.0509007
0.0423029
0.025153
0.00984971
0.00404448
0.00238582
0.00216068
0.00238423
0.00308735
0.00416467
0.00544648
0.00648039
0.00677215
0.00675873
0.00676393
0.00684142
0.00701574
0.00744059
0.00806306
0.00878019
0.0093865
0.00965119
0.00980112
0.0102177
0.0114001
0.0131588
0.0131968
0.0123514
0.0106607
0.0107499
0.013083
0.02148
0.0401333
0.0658896
0.0703576
0.0672083
0.0661803
0.0727302
0.083471
0.083361
0.0750964
0.0581943
0.0469577
0.0436901
0.0433845
0.042216
0.0372352
0.0338542
0.0343878
0.0347826
0.0332735
0.0275467
0.0174933
0.00727522
0.00286918
0.00123244
0.000562704
0.000274764
0.000148741
8.4903e-05
4.51708e-05
2.02358e-05
7.55197e-06
2.53491e-06
9.3185e-07
5.10749e-07
4.18743e-07
4.01367e-07
3.98175e-07
3.97213e-07
3.96523e-07
3.95911e-07
3.95331e-07
3.94816e-07
3.94339e-07
3.93932e-07
3.93546e-07
3.9324e-07
3.92968e-07
0.011904
0.0131162
0.0117553
0.00884754
0.00700378
0.00668502
0.00720193
0.00861615
0.00996197
0.0102465
0.0101815
0.00986845
0.00918001
0.00841252
0.00820242
0.00820051
0.00828276
0.00851021
0.00904203
0.0102014
0.0132558
0.0205076
0.0339389
0.0492174
0.0527788
0.0484521
0.0332559
0.0133633
0.00479911
0.00248293
0.00224158
0.00262131
0.00348481
0.00448479
0.00534069
0.00626106
0.00685026
0.00691027
0.0068418
0.00688793
0.00717927
0.0077796
0.00850839
0.00885652
0.00864852
0.00825044
0.00757452
0.00681494
0.00712979
0.00821654
0.0100314
0.0122602
0.0132605
0.0126379
0.0112508
0.011676
0.0150753
0.0242589
0.039437
0.0429371
0.0418902