/*--------------------------------*- C++ -*----------------------------------*\
| =========                 |                                                 |
| \\      /  F ield         | OpenFOAM: The Open Source CFD Toolbox           |
|  \\    /   O peration     | Version:  v1912                                 |
|   \\  /    A nd           | Website:  www.openfoam.com                      |
|    \\/     M anipulation  |                                                 |
\*---------------------------------------------------------------------------*/
FoamFile
{
    version     2.0;
    format      ascii;
    class       surfaceScalarField;
    location    "90";
    object      phi;
}
// * * * * * * * * * * * * * * * * * * * * * * * * * * * * * * * * * * * * * //

dimensions      [0 3 -1 0 0 0 0];
oriented        oriented;


internalField   nonuniform List<scalar> 
28285
(
0.00155315
-8.9463e-06
0.00156765
-1.4506e-05
0.0015969
-2.92446e-05
0.00164656
-4.96625e-05
0.0017086
-6.20369e-05
0.00175884
-5.0238e-05
0.00177426
-1.54218e-05
0.0017473
2.69551e-05
0.00167632
7.09844e-05
0.00157859
9.77261e-05
0.00148911
8.94843e-05
0.00143507
5.40395e-05
0.00142629
8.77908e-06
0.00145383
-2.75452e-05
0.00151089
-5.70573e-05
0.00157972
-6.88243e-05
0.00163407
-5.43582e-05
0.00165376
-1.9688e-05
0.00164108
1.26826e-05
0.00159848
4.25986e-05
0.00153947
5.90079e-05
0.00150763
3.18397e-05
0.0015301
-2.24687e-05
0.00161435
-8.42497e-05
0.00174941
-0.000135056
0.00187227
-0.000122859
0.00190469
-3.24215e-05
0.00180582
9.88645e-05
0.00154835
0.00025747
0.00116464
0.000383717
0.000791345
0.000373292
0.000518872
0.000272473
0.000352906
0.000165966
0.00026944
8.34658e-05
0.000240259
2.91816e-05
0.00024805
-7.79135e-06
0.000284844
-3.67933e-05
0.000360129
-7.52852e-05
0.000457521
-9.73924e-05
0.000543867
-8.63458e-05
0.000601605
-5.77384e-05
0.000630877
-2.92717e-05
0.000620258
1.0619e-05
-5.03463e-05
0.000670604
0.00155312
-1.78961e-05
0.00156763
-2.9015e-05
0.00159688
-5.84931e-05
0.00164654
-9.93222e-05
0.00170856
-0.000124054
0.00175879
-0.000100472
0.00177422
-3.08536e-05
0.00174727
5.39097e-05
0.00167628
0.000141973
0.00157855
0.000195451
0.00148907
0.000178966
0.00143503
0.000108081
0.00142626
1.75508e-05
0.00145381
-5.50974e-05
0.00151087
-0.000114112
0.00157967
-0.000137626
0.00163402
-0.000108712
0.00165372
-3.93845e-05
0.00164104
2.53644e-05
0.00159844
8.51987e-05
0.00153945
0.000117996
0.00150763
6.36604e-05
0.0015301
-4.49408e-05
0.00161435
-0.000168505
0.00174942
-0.000270118
0.00187224
-0.000245684
0.00190464
-6.48228e-05
0.00180576
0.000197747
0.00154818
0.000515045
0.00116445
0.000767454
0.000791361
0.000746377
0.000518865
0.00054497
0.000352899
0.000331932
0.000269432
0.000166932
0.000240251
5.83621e-05
0.000248043
-1.55833e-05
0.000284838
-7.35883e-05
0.000360122
-0.000150569
0.00045748
-0.000194751
0.000542723
-0.000171588
0.00060131
-0.000116326
0.000624523
-5.24847e-05
0.000612661
2.24816e-05
-0.000102051
0.000664365
0.00155311
-2.68544e-05
0.00156762
-4.35328e-05
0.00159688
-8.7751e-05
0.00164653
-0.000148969
0.00170853
-0.000186053
0.00175877
-0.00015071
0.00177421
-4.6297e-05
0.00174726
8.0855e-05
0.00167627
0.000212967
0.00157851
0.000293208
0.00148901
0.000268467
0.00143498
0.00016211
0.00142624
2.62947e-05
0.00145381
-8.26673e-05
0.00151085
-0.000171155
0.00157963
-0.000206402
0.00163398
-0.000163065
0.00165369
-5.90894e-05
0.00164101
3.80405e-05
0.00159841
0.000127797
0.00153942
0.00017699
0.00150759
9.54821e-05
0.0015301
-6.74511e-05
0.00161442
-0.000252822
0.00174945
-0.000405146
0.00187218
-0.000368413
0.00190454
-9.71803e-05
0.00180551
0.000296777
0.00154789
0.000772664
0.00116423
0.00115111
0.000791363
0.00111925
0.000518817
0.000817516
0.000352869
0.00049788
0.000269415
0.000250387
0.00024024
8.75367e-05
0.000248034
-2.33774e-05
0.00028483
-0.000110384
0.000360104
-0.000225843
0.000457049
-0.000291696
0.000541336
-0.000255875
0.000600428
-0.000175418
0.000625026
-7.70829e-05
0.000617321
3.01864e-05
-0.00015619
0.00067146
0.00155308
-3.5808e-05
0.00156761
-5.80595e-05
0.00159686
-0.000117008
0.00164649
-0.000198593
0.00170849
-0.000248055
0.00175873
-0.000200948
0.00177414
-6.17049e-05
0.00174715
0.00010784
0.00167617
0.000283944
0.00157847
0.000390909
0.00148898
0.000357963
0.00143495
0.000216139
0.0014262
3.50402e-05
0.00145377
-0.00011023
0.00151081
-0.0002282
0.00157961
-0.0002752
0.00163396
-0.00021742
0.00165364
-7.87608e-05
0.00164094
5.07355e-05
0.00159837
0.000170363
0.00153939
0.000235975
0.00150754
0.000127334
0.00153005
-8.99656e-05
0.00161435
-0.000337118
0.00174936
-0.000540163
0.00187216
-0.000491207
0.00190452
-0.000129538
0.0018053
0.000395989
0.00154775
0.00103021
0.00116424
0.00153462
0.000791337
0.00149215
0.000518802
0.00109005
0.000352842
0.000663839
0.000269397
0.000333833
0.000240227
0.000116706
0.000248023
-3.11732e-05
0.000284818
-0.00014718
0.000360051
-0.000301075
0.000456516
-0.000388161
0.000539797
-0.000339156
0.000599206
-0.000234827
0.00062398
-0.000101858
0.000619827
3.43401e-05
-0.000209472
0.000673109
0.00155307
-4.475e-05
0.00156758
-7.25735e-05
0.00159684
-0.000146266
0.0016465
-0.000248245
0.00170849
-0.000310053
0.00175873
-0.000251181
0.00177413
-7.71131e-05
0.00174715
0.000134828
0.00167617
0.000354925
0.00157847
0.000488606
0.001489
0.000447429
0.00143494
0.000270206
0.00142618
4.37948e-05
0.00145375
-0.000137799
0.00151081
-0.000285262
0.00157962
-0.000344005
0.00163397
-0.000271768
0.00165365
-9.84405e-05
0.00164093
6.34557e-05
0.00159833
0.000212956
0.00153936
0.000294947
0.00150749
0.0001592
0.00153
-0.000112469
0.00161429
-0.000421405
0.00174937
-0.000675243
0.00187221
-0.000614056
0.00190464
-0.000161967
0.00180556
0.000495069
0.00154802
0.00128775
0.00116435
0.00191829
0.000791292
0.00186521
0.000518788
0.00136255
0.000352813
0.000829814
0.000269374
0.000417271
0.000240211
0.00014587
0.000248007
-3.89697e-05
0.000284797
-0.000183969
0.000359901
-0.00037618
0.000455872
-0.000484131
0.00053811
-0.000421394
0.00059666
-0.000293378
0.000621202
-0.000126399
0.000619306
3.62362e-05
-0.000263018
0.000672852
0.00155308
-5.36856e-05
0.00156757
-8.7063e-05
0.00159683
-0.000175524
0.00164652
-0.000297936
0.00170853
-0.000372065
0.00175879
-0.000301437
0.00177425
-9.25701e-05
0.0017473
0.000161777
0.0016763
0.000425926
0.00157854
0.00058636
0.00148907
0.000536904
0.00143496
0.000324312
0.00142618
5.25731e-05
0.00145378
-0.000165398
0.00151087
-0.000342354
0.00157965
-0.000412782
0.00163401
-0.000326131
0.00165372
-0.000118149
0.00164102
7.61573e-05
0.0015984
0.000255578
0.00153939
0.000353961
0.00150749
0.000191096
0.00152997
-0.000134953
0.00161433
-0.000505761
0.00174948
-0.000810394
0.00187229
-0.000736871
0.00190478
-0.000194452
0.00180587
0.000593981
0.00154831
0.00154531
0.00116444
0.00230216
0.000791251
0.0022384
0.000518731
0.00163507
0.000352776
0.00099577
0.000269345
0.000500703
0.000240188
0.000175026
0.000247983
-4.6765e-05
0.000284755
-0.000220741
0.000359586
-0.000451011
0.000454936
-0.00057948
0.000536074
-0.000502532
0.0005935
-0.000350803
0.000617193
-0.000150092
0.000617527
3.59017e-05
-0.000316573
0.000671082
0.00155307
-6.2613e-05
0.00156756
-0.00010155
0.0015968
-0.000204761
0.0016465
-0.000347637
0.00170855
-0.000434117
0.00175883
-0.000351724
0.00177431
-0.000108044
0.00174736
0.000188725
0.00167634
0.000496952
0.00157857
0.000684125
0.00148908
0.000626399
0.00143495
0.000378438
0.00142615
6.13746e-05
0.00145375
-0.000192996
0.00151088
-0.00039949
0.00157968
-0.000481578
0.00163406
-0.00038051
0.00165377
-0.00013786
0.00164108
8.88442e-05
0.00159844
0.000298217
0.00153939
0.00041301
0.00150746
0.000223024
0.00152993
-0.000157418
0.00161424
-0.000590071
0.00174947
-0.000945625
0.00187239
-0.000859794
0.00190491
-0.000226965
0.00180606
0.000692827
0.00154846
0.00180291
0.00116448
0.00268615
0.000791188
0.00261169
0.000518654
0.00190761
0.000352725
0.0011617
0.000269309
0.000584119
0.000240158
0.000204177
0.000247946
-5.45523e-05
0.00028468
-0.000257475
0.00035907
-0.000525401
0.000453653
-0.000674063
0.000533484
-0.000582363
0.000589361
-0.000406681
0.000611732
-0.000172462
0.000613392
3.42417e-05
-0.000370088
0.000666907
0.00155308
-7.15503e-05
0.00156759
-0.000116051
0.00159683
-0.000234004
0.00164651
-0.00039732
0.00170855
-0.00049616
0.00175885
-0.000402024
0.00177433
-0.000123519
0.00174737
0.000215681
0.00167629
0.000568033
0.00157851
0.000781904
0.00148901
0.000715906
0.0014349
0.000432548
0.00142612
7.01505e-05
0.00145371
-0.000220588
0.00151085
-0.000456633
0.00157969
-0.000550413
0.00163408
-0.000434903
0.0016538
-0.000157573
0.00164108
0.00010156
0.00159841
0.000340885
0.00153936
0.000472059
0.00150742
0.000254964
0.0015299
-0.000179892
0.00161433
-0.000674501
0.00174957
-0.00108087
0.00187244
-0.000982662
0.00190502
-0.000259548
0.00180615
0.0007917
0.00154849
0.00206056
0.00116446
0.00307018
0.000791116
0.00298503
0.000518581
0.00218014
0.000352662
0.00132762
0.000269264
0.000667517
0.000240119
0.000233321
0.00024789
-6.23232e-05
0.00028455
-0.000294135
0.000358352
-0.000599204
0.000451976
-0.000767687
0.000530299
-0.000660685
0.000584562
-0.000460945
0.000605628
-0.000193528
0.000608371
3.14996e-05
-0.000423383
0.000661665
0.00155308
-8.04779e-05
0.00156756
-0.000130539
0.00159681
-0.000263252
0.00164647
-0.000446979
0.00170853
-0.000558222
0.00175886
-0.000452349
0.00177435
-0.000139011
0.0017474
0.000242628
0.00167629
0.000639142
0.00157847
0.000879723
0.00148892
0.000805464
0.00143483
0.000486631
0.0014261
7.88837e-05
0.00145373
-0.000248221
0.00151085
-0.000513752
0.00157969
-0.000619245
0.00163409
-0.000489312
0.00165377
-0.000177253
0.00164103
0.000114303
0.00159839
0.000383524
0.00153934
0.000531111
0.00150738
0.000286927
0.00152983
-0.000202348
0.00161431
-0.000758974
0.00174955
-0.00121611
0.00187246
-0.00110558
0.00190511
-0.000292193
0.00180622
0.000890586
0.00154851
0.00231827
0.00116442
0.00345427
0.00079104
0.00335842
0.00051849
0.00245269
0.000352591
0.00149352
0.00026921
0.000750898
0.000240066
0.000262465
0.000247806
-7.00631e-05
0.000284336
-0.000330664
0.00035737
-0.000672238
0.000449806
-0.000860123
0.000526397
-0.000737277
0.00057886
-0.000513407
0.000598343
-0.000213012
0.000601652
2.81912e-05
-0.000476755
0.000655024
0.00155305
-8.93857e-05
0.00156751
-0.000145007
0.00159674
-0.000292481
0.00164647
-0.000496707
0.00170853
-0.000620279
0.00175887
-0.000502689
0.00177435
-0.000154498
0.00174737
0.000269616
0.00167624
0.000710272
0.00157844
0.000977523
0.00148887
0.000895028
0.00143479
0.000540718
0.00142605
8.76244e-05
0.00145368
-0.00027586
0.00151081
-0.000570878
0.00157967
-0.000688109
0.0016341
-0.000543742
0.00165376
-0.000196912
0.00164101
0.000127055
0.00159839
0.000426143
0.00153934
0.000590161
0.00150736
0.000318907
0.00152978
-0.00022477
0.00161413
-0.000843315
0.0017494
-0.00135138
0.00187254
-0.00122872
0.00190521
-0.000324869
0.00180627
0.000989526
0.00154856
0.00257599
0.00116441
0.00383842
0.000790954
0.00373188
0.00051839
0.00272526
0.000352513
0.00165939
0.000269147
0.000834264
0.000239993
0.000291619
0.000247677
-7.77466e-05
0.000283997
-0.000366984
0.000356026
-0.000744267
0.000446928
-0.000951026
0.000521611
-0.00081196
0.000572384
-0.00056418
0.000590462
-0.00023109
0.000594287
2.43667e-05
-0.000530136
0.000647668
0.00155304
-9.82901e-05
0.0015675
-0.000159465
0.00159672
-0.0003217
0.00164648
-0.000546466
0.00170853
-0.00068233
0.00175888
-0.000553041
0.00177436
-0.000169971
0.00174733
0.000296641
0.00167623
0.00078137
0.00157844
0.00107531
0.00148885
0.000984615
0.00143474
0.000594828
0.00142599
9.63834e-05
0.00145361
-0.000303489
0.00151081
-0.000628071
0.00157969
-0.00075699
0.00163413
-0.000598184
0.00165384
-0.000216619
0.00164111
0.000139783
0.00159841
0.000468849
0.00153932
0.000649245
0.00150731
0.000350914
0.00152973
-0.000247185
0.00161407
-0.000927656
0.00174948
-0.00148679
0.00187265
-0.00135189
0.00190536
-0.000357582
0.00180648
0.0010884
0.00154871
0.00283377
0.00116445
0.00422267
0.00079086
0.00410547
0.000518289
0.00299783
0.000352428
0.00182526
0.00026907
0.000917621
0.000239891
0.000320798
0.000247484
-8.53399e-05
0.000283483
-0.000402983
0.000354216
-0.000815
0.000443223
-0.00104003
0.000515839
-0.000884576
0.000564916
-0.000613257
0.000581499
-0.000247673
0.000585648
2.02182e-05
-0.000583964
0.000639476
0.00155303
-0.000107184
0.00156749
-0.000173924
0.00159672
-0.000350929
0.00164644
-0.000596182
0.00170854
-0.000744436
0.00175892
-0.000603419
0.00177442
-0.000185469
0.00174743
0.000323628
0.00167634
0.000852465
0.00157848
0.00117317
0.00148884
0.00107426
0.00143469
0.000648977
0.00142594
0.000105129
0.0014536
-0.000331144
0.00151081
-0.000685283
0.0015797
-0.00082588
0.00163417
-0.000652657
0.00165392
-0.000236369
0.00164117
0.000152534
0.00159844
0.000511576
0.00153928
0.000708405
0.00150724
0.000382961
0.00152965
-0.0002696
0.00161405
-0.00101206
0.00174962
-0.00162236
0.00187281
-0.00147508
0.0019055
-0.000390277
0.00180666
0.00118725
0.00154887
0.00309155
0.00116446
0.00460709
0.00079076
0.00447917
0.000518177
0.00327041
0.000352329
0.0019911
0.000268972
0.00100098
0.000239747
0.000350023
0.000247205
-9.27982e-05
0.000282738
-0.000438515
0.000351851
-0.000884113
0.000438587
-0.00112677
0.000509064
-0.000955053
0.000556675
-0.000660868
0.000572014
-0.000263012
0.000576541
1.56916e-05
-0.000638207
0.000630783
0.00155306
-0.000116086
0.00156752
-0.000188389
0.00159676
-0.000380168
0.00164647
-0.000645886
0.00170857
-0.00080654
0.00175897
-0.000653822
0.00177451
-0.000201004
0.00174754
0.000350596
0.00167637
0.000923632
0.00157847
0.00127108
0.0014888
0.00116392
0.00143464
0.000703139
0.00142594
0.000113837
0.00145363
-0.000358843
0.0015108
-0.000742447
0.00157969
-0.000894774
0.00163421
-0.000707175
0.00165394
-0.000256102
0.00164114
0.000165343
0.00159839
0.000554321
0.00153925
0.000767547
0.00150717
0.000415036
0.00152964
-0.000292065
0.00161405
-0.00109647
0.00174958
-0.00175788
0.00187289
-0.0015984
0.00190573
-0.000423118
0.0018069
0.00128608
0.00154912
0.00334934
0.0011645
0.0049917
0.000790679
0.00485299
0.000518071
0.00354302
0.000352213
0.00215696
0.000268841
0.00108435
0.000239543
0.000379321
0.000246812
-0.000100068
0.000281707
-0.00047341
0.000348833
-0.00095124
0.000432922
-0.00121086
0.000501236
-0.00102337
0.000547588
-0.00070722
0.00056169
-0.000277114
0.000566505
1.08768e-05
-0.000693418
0.000621716
0.00155302
-0.000124972
0.00156745
-0.000202812
0.00159664
-0.000409359
0.00164633
-0.00069558
0.00170851
-0.000868721
0.00175896
-0.000704269
0.00177445
-0.000216492
0.00174741
0.000377633
0.00167624
0.000994807
0.00157841
0.00136891
0.00148876
0.00125356
0.00143457
0.000757336
0.00142583
0.000122574
0.00145354
-0.000386558
0.00151073
-0.000799632
0.0015797
-0.000963747
0.00163424
-0.000761714
0.00165387
-0.00027573
0.00164104
0.000178176
0.00159825
0.000597107
0.00153917
0.000826627
0.00150704
0.00044717
0.00152936
-0.000314393
0.00161374
-0.00118084
0.00174927
-0.00189341
0.00187281
-0.00172194
0.00190573
-0.000456038
0.0018065
0.00138531
0.00154847
0.00360737
0.00116404
0.00537613
0.000790678
0.00522635
0.000518065
0.00381563
0.00035211
0.00232292
0.000268681
0.00116778
0.000239266
0.000408736
0.00024627
-0.000107072
0.000280284
-0.000507423
0.000345189
-0.00101615
0.000426057
-0.00129173
0.000492227
-0.00108954
0.000537657
-0.00075265
0.00055111
-0.000290567
0.000556118
5.86894e-06
-0.000749601
0.000612301
0.00310594
-0.000142666
0.00313471
-0.000231581
0.00319304
-0.000467689
0.0032925
-0.000795034
0.00341707
-0.000993298
0.00351814
-0.000805333
0.00354924
-0.000247599
0.00349519
0.000431688
0.00335278
0.00113722
0.00315679
0.0015649
0.00297724
0.00143311
0.00286887
0.000865714
0.0028514
0.000140039
0.00290681
-0.000441967
0.00302135
-0.000914177
0.00315945
-0.00110185
0.00326862
-0.000870879
0.003308
-0.000315107
0.00328238
0.000203792
0.00319681
0.000682681
0.00307829
0.000945149
0.00301386
0.000511595
0.00305849
-0.000359018
0.00322738
-0.00134974
0.00349875
-0.00216478
0.00374606
-0.00196925
0.00381224
-0.000522218
0.00361413
0.00158341
0.00309811
0.00412339
0.00232869
0.00614555
0.00158068
0.00597436
0.00103544
0.00436087
0.000703592
0.00265476
0.00053665
0.00133472
0.000477403
0.000467982
0.000490345
-0.000120014
0.000554923
-0.000572002
0.000677385
-0.00113861
0.000829544
-0.00144388
0.000956218
-0.00121621
0.00104131
-0.000837741
0.0010694
-0.000318656
0.001078
-2.72829e-06
-0.000866659
0.00119505
0.003106
-0.000160321
0.00313474
-0.000260313
0.00319307
-0.000526026
0.00329253
-0.000894489
0.00341718
-0.00111795
0.00351841
-0.000906569
0.0035497
-0.000278883
0.0034957
0.000485683
0.00335317
0.00127975
0.00315682
0.00176125
0.00297702
0.00161291
0.00286862
0.000974115
0.00285123
0.000157425
0.00290674
-0.000497477
0.00302139
-0.00102883
0.00315955
-0.00124001
0.00326884
-0.00098017
0.00330834
-0.000354601
0.00328273
0.000229397
0.003197
0.000768411
0.00307828
0.00106387
0.00301368
0.000576193
0.0030584
-0.000403738
0.00322735
-0.00151869
0.00349894
-0.00243636
0.00374663
-0.00221694
0.00381328
-0.00058887
0.00361546
0.00178123
0.00309924
0.00463961
0.00232893
0.00691586
0.00157982
0.00672347
0.00103451
0.00490619
0.000702603
0.00298667
0.000535309
0.00150201
0.000475042
0.00052825
0.000485566
-0.000130538
0.000543544
-0.00062998
0.000653313
-0.00124838
0.00079589
-0.00158646
0.000917217
-0.00133754
0.000996319
-0.000916843
0.00102139
-0.000343726
0.00103234
-1.36833e-05
-0.000989272
0.00115496
0.00310611
-0.000177948
0.00313481
-0.000289021
0.00319312
-0.00058433
0.0032925
-0.000993872
0.00341726
-0.0012427
0.00351868
-0.00100799
0.00355004
-0.000310239
0.00349609
0.000539625
0.00335348
0.00142236
0.00315685
0.00195788
0.00297686
0.0017929
0.00286836
0.00108262
0.00285102
0.000174759
0.00290661
-0.000553063
0.00302132
-0.00114354
0.00315963
-0.00137832
0.00326909
-0.00108963
0.00330865
-0.000394156
0.00328304
0.000255001
0.00319717
0.000854283
0.00307814
0.0011829
0.0030133
0.000641034
0.00305803
-0.000448468
0.00322717
-0.00168783
0.0034991
-0.00270829
0.00374728
-0.00246512
0.00381446
-0.00065605
0.00361688
0.00197882
0.00310046
0.00515602
0.00232917
0.00768715
0.00157915
0.0074735
0.00103339
0.00545194
0.00070118
0.00331888
0.000533098
0.0016701
0.000470894
0.000590454
0.000477021
-0.000136665
0.000525426
-0.000678385
0.000624446
-0.0013474
0.000763422
-0.00172544
0.000881078
-0.0014552
0.000952315
-0.00098808
0.000971439
-0.000362849
0.000985212
-2.74565e-05
-0.00111734
0.00111328
0.0031061
-0.000195489
0.00313472
-0.000317634
0.00319297
-0.000642582
0.00329241
-0.00109332
0.00341731
-0.0013676
0.00351893
-0.00110961
0.00355039
-0.000341698
0.00349641
0.000593606
0.00335365
0.00156511
0.00315682
0.00215471
0.00297663
0.00197309
0.00286806
0.00119119
0.00285079
0.000192025
0.00290638
-0.000608647
0.00302121
-0.00125837
0.00315974
-0.00151685
0.00326936
-0.00119926
0.00330896
-0.000433753
0.0032833
0.000280665
0.0031973
0.000940281
0.00307807
0.00130214
0.00301297
0.000706134
0.00305772
-0.000493219
0.00322713
-0.00185724
0.00349945
-0.00298061
0.00374804
-0.00271371
0.00381576
-0.00072377
0.00361845
0.00217613
0.00310149
0.00567297
0.00232904
0.00845961
0.00157801
0.00822452
0.00103167
0.00599828
0.000699055
0.0036515
0.000529561
0.00183959
0.000463936
0.000656078
0.000463124
-0.000135853
0.000499829
-0.00071509
0.000590732
-0.0014383
0.000729944
-0.00186465
0.000844539
-0.00156979
0.000907783
-0.00105132
0.000920723
-0.00037579
0.000935618
-4.2351e-05
-0.00125188
0.00107016
0.00310613
-0.000212931
0.00313465
-0.000346152
0.00319281
-0.000700745
0.0032923
-0.00119281
0.00341742
-0.00149272
0.00351922
-0.00121141
0.00355075
-0.000373223
0.00349667
0.000647683
0.00335363
0.00170815
0.00315671
0.00235163
0.00297636
0.00215344
0.00286776
0.00129978
0.00285054
0.000209244
0.00290618
-0.00066428
0.00302115
-0.00137334
0.00315986
-0.00165556
0.00326965
-0.00130906
0.00330923
-0.00047333
0.00328344
0.00030646
0.00319728
0.00102644
0.00307791
0.00142151
0.00301252
0.000771522
0.00305714
-0.000537832
0.00322678
-0.00202689
0.00349967
-0.0032535
0.00374868
-0.00296273
0.00381677
-0.000791857
0.00361906
0.00237385
0.00310192
0.00619011
0.00232881
0.00923272
0.00157672
0.00897661
0.00102943
0.00654557
0.000696022
0.00398491
0.000524046
0.00201157
0.000453368
0.000726756
0.000443402
-0.000125887
0.000469359
-0.000741047
0.000552345
-0.00152128
0.000686232
-0.00199854
0.000795138
-0.0016787
0.000854706
-0.00111089
0.000865158
-0.000386241
0.000882788
-5.99807e-05
-0.00139854
0.00102945
0.0031065
-0.000230276
0.00313489
-0.000374548
0.00319296
-0.000758813
0.00329244
-0.00129229
0.00341762
-0.0016179
0.00351963
-0.00131342
0.00355127
-0.000404861
0.00349711
0.000701842
0.00335386
0.0018514
0.00315673
0.00254876
0.00297638
0.00233379
0.00286767
0.00140849
0.00285063
0.000226291
0.00290658
-0.000720232
0.00302165
-0.00148841
0.00316019
-0.0017941
0.00327008
-0.00141894
0.00330966
-0.000512917
0.00328372
0.000332402
0.00319739
0.00111277
0.00307781
0.00154108
0.00301205
0.000837284
0.00305638
-0.000582163
0.00322607
-0.00219657
0.00349963
-0.00352706
0.00374964
-0.00321274
0.00381848
-0.000860699
0.00362101
0.00257132
0.00310359
0.00670753
0.00232877
0.0100075
0.0015747
0.00973068
0.00102641
0.00709386
0.000691948
0.00431937
0.000516981
0.00218653
0.000440262
0.000803476
0.000421137
-0.000106763
0.000440611
-0.000760521
0.000512407
-0.00159308
0.000629391
-0.00211552
0.000726299
-0.00177561
0.000783209
-0.0011678
0.000799129
-0.000402162
0.000828927
-8.97783e-05
-0.00155993
0.000990312
0.00310645
-0.000247389
0.00313458
-0.00040268
0.00319249
-0.000816714
0.00329209
-0.00139189
0.00341774
-0.00174355
0.00352004
-0.00141572
0.00355158
-0.000436403
0.00349729
0.000756137
0.00335404
0.00199465
0.003157
0.0027458
0.00297667
0.00251412
0.0028676
0.00151756
0.00285026
0.000243631
0.00290631
-0.000776282
0.00302175
-0.00160384
0.00316073
-0.00193309
0.00327073
-0.00152894
0.00331004
-0.000552233
0.00328394
0.000358511
0.0031974
0.0011993
0.00307761
0.00166088
0.0030111
0.000903791
0.00305501
-0.000626073
0.00322439
-0.00236595
0.00349824
-0.00380091
0.00374995
-0.00346446
0.00381944
-0.000930187
0.00362037
0.00277039
0.00310148
0.00722641
0.00232623
0.0107828
0.00157343
0.0104835
0.00102374
0.00764355
0.000687667
0.00465544
0.00050899
0.00236521
0.000426989
0.000885476
0.000403507
-8.32802e-05
0.000422511
-0.000779525
0.000487466
-0.00165804
0.000590479
-0.00221853
0.000675903
-0.00186103
0.000722578
-0.00121448
0.00074184
-0.000421424
0.000782157
-0.000130095
-0.00172618
0.000948411
0.042346
-0.000472032
0.0427199
-0.000776605
0.0435049
-0.00160164
0.0448703
-0.00275738
0.0466079
-0.00348113
0.0480321
-0.00283988
0.0484856
-0.00088994
0.0477466
0.00149517
0.0457744
0.00396679
0.043043
0.00547724
0.0405438
0.00501334
0.039045
0.00301639
0.0388142
0.000474378
0.0395895
-0.00155159
0.0411804
-0.00319475
0.0431002
-0.00385292
0.0446272
-0.00305587
0.0451757
-0.00110075
0.0448173
0.00071691
0.0436184
0.00239824
0.0419458
0.00333348
0.0410001
0.0018495
0.0415928
-0.00121879
0.0439226
-0.00469576
0.0477116
-0.00758988
0.0512272
-0.0069801
0.0522494
-0.00195236
0.0495598
0.00545995
0.0424272
0.0143591
0.0316572
0.0215528
0.0211522
0.0209885
0.0135572
0.0152386
0.00886196
0.00935068
0.00631555
0.00491162
0.00513821
0.00206281
0.00480809
0.000246841
0.00504557
-0.00101701
0.00588698
-0.00249944
0.00718401
-0.00351556
0.00824726
-0.00292428
0.00865975
-0.00162696
0.00893761
-0.000699283
0.00907279
-0.000265275
-0.00345026
0.0107969
0.0423611
-0.000660248
0.0426993
-0.00111478
0.0434619
-0.00236418
0.0448491
-0.00414466
0.0466736
-0.0053056
0.0482061
-0.00437239
0.0486898
-0.00137367
0.0479544
0.00223058
0.0458968
0.00602438
0.0430151
0.00835899
0.0403833
0.00764514
0.0388341
0.00456556
0.0386204
0.000688069
0.0394554
-0.00238657
0.0411283
-0.00486768
0.0431341
-0.00585868
0.0447558
-0.00467761
0.0453359
-0.00168084
0.0449421
0.00111075
0.043668
0.00367237
0.0418649
0.00513655
0.0407822
0.00293217
0.0413398
-0.00177637
0.04372
-0.00707598
0.04772
-0.0115898
0.0515385
-0.0107986
0.0528294
-0.00324328
0.050157
0.00813239
0.0428213
0.0216947
0.0313913
0.0329828
0.0201064
0.0322734
0.011828
0.023517
0.00649273
0.0146859
0.00317489
0.00822946
0.00112668
0.00411103
-0.000332825
0.00170634
-0.00158891
0.000239081
-0.00334908
-0.000739265
-0.00564196
-0.00122269
-0.00735845
-0.00120779
-0.00854665
-0.000438767
-0.00856396
-0.000681976
-0.00741201
-0.00141722
-0.00344677
-0.0074155
0.042635
-0.000790615
0.0429051
-0.00138486
0.043619
-0.00307805
0.0449979
-0.00552363
0.0468847
-0.00719232
0.0485019
-0.00598963
0.0490674
-0.00193921
0.0482646
0.00303344
0.0460675
0.00822148
0.0430008
0.0114257
0.0402335
0.0104124
0.0386628
0.00613629
0.0385347
0.000816167
0.0394354
-0.00328725
0.0412077
-0.00663998
0.0432963
-0.00794735
0.0450027
-0.00638403
0.0455847
-0.00226282
0.0451434
0.00155208
0.043723
0.00509276
0.041731
0.00712858
0.040413
0.00425012
0.0408629
-0.00222626
0.0432613
-0.00947437
0.0475682
-0.0158967
0.0519272
-0.0151576
0.0537063
-0.00502236
0.0511658
0.0106729
0.0434075
0.029453
0.03038
0.0460103
0.0166641
0.0459893
0.00707036
0.0331107
0.0018389
0.0199174
-0.000866023
0.0109344
-0.00234754
0.00559254
-0.00333003
0.00268884
-0.00411325
0.00102229
-0.00532588
0.000473366
-0.00811323
0.00156466
-0.0111195
0.00179844
-0.0135843
0.00202604
-0.0156563
0.00139007
-0.0186868
0.00161326
0.00176903
-0.0239026
0.0434722
-0.000853157
0.0436555
-0.0015681
0.0442663
-0.00368885
0.0455986
-0.00685594
0.0475546
-0.00914835
0.0493066
-0.00774165
0.0498499
-0.00248247
0.0490392
0.00384412
0.0466821
0.0105786
0.04336
0.0147478
0.0403863
0.0133862
0.0387784
0.00774421
0.0387207
0.000873796
0.0398259
-0.00439239
0.0417823
-0.00859642
0.0439817
-0.0101468
0.0457667
-0.00816894
0.0463586
-0.00285472
0.0458092
0.00210141
0.0441798
0.00672224
0.041815
0.00949337
0.04014
0.00592507
0.0403965
-0.00248274
0.0427176
-0.0117955
0.0471682
-0.0203473
0.0519155
-0.0199049
0.0540077
-0.00711457
0.051232
0.0134487
0.0424326
0.0382523
0.0280935
0.0603494
0.0142773
0.0598055
0.00589756
0.0414904
0.001717
0.0240979
-0.000316141
0.0129675
-0.00148605
0.00676245
-0.00223279
0.00343558
-0.00225324
0.00104275
-0.00128078
-0.000499101
0.00108575
-0.000801866
0.00262053
0.000263664
0.0029842
0.00166237
0.00192591
0.00244837
0.000480709
0.00305846
0.00466932
-0.00241958
0.0465727
-0.000833756
0.0466309
-0.00162631
0.0470635
-0.00412144
0.0481583
-0.00795073
0.0499263
-0.0109163
0.0516072
-0.00942256
0.0522152
-0.00309043
0.0512963
0.00476299
0.0487132
0.0131616
0.0451102
0.0183508
0.0419416
0.0165547
0.0403297
0.00935607
0.0404562
0.00074738
0.0416709
-0.0056071
0.0437974
-0.0107229
0.0461294
-0.0124789
0.0479987
-0.0100382
0.0485666
-0.0034226
0.0479102
0.00275782
0.0460411
0.0085913
0.0435265
0.0120079
0.0418212
0.00763046
0.042116
-0.0027776
0.0443742
-0.0140537
0.0485862
-0.0245593
0.053161
-0.0244797
0.0553676
-0.00932123
0.0528113
0.016005
0.0438522
0.0472114
0.0294824
0.0747192
0.0160614
0.0732265
0.00886861
0.0486832
0.00614382
0.0268227
0.00539005
0.0137213
0.00539216
0.00676034
0.00578564
0.0030421
0.00654662
0.000281767
0.00788008
-0.00183256
0.00924554
-0.00216732
0.00931956
0.000189642
0.00763163
0.0033503
0.0057247
0.00435529
0.00487669
0.00390648
0.00213794
0.00740807
0.0565721
-0.000857219
0.0565946
-0.00164887
0.0566097
-0.00413649
0.0567014
-0.00804243
0.0573115
-0.0115265
0.0582524
-0.0103635
0.0585057
-0.0033437
0.0574909
0.00577781
0.0547838
0.0158687
0.0509072
0.0222274
0.0474267
0.0200352
0.0456697
0.0111131
0.0456198
0.000797316
0.0467332
-0.00672056
0.0485706
-0.0125603
0.050781
-0.0146893
0.0527052
-0.0119623
0.0531949
-0.00391229
0.052321
0.00363168
0.0502741
0.0106381
0.0479014
0.0143807
0.0464089
0.00912294
0.0468919
-0.00326059
0.0493975
-0.0165592
0.0538744
-0.0290362
0.0586057
-0.0292109
0.0610434
-0.0117589
0.0586197
0.0184287
0.0508509
0.0549802
0.0388983
0.0866718
0.0256133
0.0865115
0.019599
0.0546976
0.0210956
0.0253261
0.0257853
0.00903156
0.0312949
0.00125082
0.0366623
-0.00232538
0.0411807
-0.00423663
0.0449601
-0.00561197
0.0469437
-0.00415089
0.0451254
0.00200793
0.0404109
0.00806484
0.0376345
0.00713168
0.0410287
0.000512306
-0.0145914
0.057758
0.0872344
-0.000961056
0.0871444
-0.00155887
0.0862564
-0.00324845
0.0837443
-0.00553039
0.0800697
-0.00785184
0.0770428
-0.00733657
0.0755173
-0.00181823
0.0739629
0.0073322
0.07132
0.0185116
0.0673014
0.026246
0.0625628
0.0247738
0.0592147
0.0144612
0.0581159
0.00189616
0.0577651
-0.00636977
0.0575154
-0.0123106
0.0578725
-0.0150464
0.058857
-0.0129468
0.0594642
-0.00451951
0.0582818
0.00481406
0.0559235
0.0129965
0.0531852
0.017119
0.0508725
0.0114356
0.0507058
-0.00309392
0.0535612
-0.0194146
0.0606153
-0.0360904
0.0686379
-0.0372335
0.0731162
-0.0162373
0.0733017
0.0182432
0.0731436
0.0551384
0.0754201
0.0843953
0.102045
0.0598865
0.10375
0.0529925
0.114449
0.0146277
0.137004
-0.0135243
0.154424
-0.0161691
0.158405
-0.0063061
0.154049
0.000119845
0.144956
0.00348105
0.130648
0.0101565
0.115045
0.0176109
0.105639
0.0174708
0.105109
0.00766168
0.108662
-0.00304067
-0.0260532
0.120124
0.127831
0.000794186
0.125137
0.00113468
0.121882
6.78086e-06
0.120018
-0.00366668
0.120632
-0.00846616
0.12124
-0.00794447
0.119879
-0.000456425
0.118119
0.00909152
0.117632
0.0189993
0.118144
0.0257339
0.121202
0.0217151
0.129683
0.00598061
0.135472
-0.00389246
0.127013
0.00208893
0.103216
0.0114862
0.0796739
0.00849574
0.0700171
-0.00328996
0.0685497
-0.00305211
0.066783
0.00658079
0.062626
0.0171534
0.0563814
0.0233636
0.04703
0.020787
0.0393894
0.00454666
0.0428235
-0.0228486
0.0589893
-0.0522562
0.0790246
-0.0572688
0.091695
-0.0289077
0.100184
0.00975383
0.114959
0.0403634
0.173833
0.0255218
0.172611
0.0611086
0.17559
0.0500132
0.178859
0.0113582
0.182904
-0.0175689
0.187864
-0.0211287
0.190348
-0.00879043
0.187452
0.00301621
0.182021
0.00891204
0.173791
0.0183858
0.165184
0.0262185
0.156004
0.02665
0.148673
0.0149933
0.141996
0.00363576
-0.0199652
0.135908
0.120195
0.000108331
0.118884
0.00244607
0.116829
0.0020616
0.116631
-0.00346839
0.121823