/*--------------------------------*- C++ -*----------------------------------*\
| =========                 |                                                 |
| \\      /  F ield         | OpenFOAM: The Open Source CFD Toolbox           |
|  \\    /   O peration     | Version:  v1912                                 |
|   \\  /    A nd           | Website:  www.openfoam.com                      |
|    \\/     M anipulation  |                                                 |
\*---------------------------------------------------------------------------*/
FoamFile
{
    version     2.0;
    format      ascii;
    class       volVectorField;
    location    "60";
    object      U;
}
// * * * * * * * * * * * * * * * * * * * * * * * * * * * * * * * * * * * * * //

dimensions      [0 1 -1 0 0 0 0];


internalField   nonuniform List<vector> 
114144
(
(0.705126 -0.00831785 0)
(0.738442 -0.0174075 0)
(0.701627 -0.0250101 0)
(0.653718 -0.0308106 0)
(0.597131 -0.0346018 0)
(0.534697 -0.0364156 0)
(0.469133 -0.0365098 0)
(0.402545 -0.035056 0)
(0.337831 -0.0312928 0)
(0.277265 -0.0270822 0)
(0.220411 -0.0242743 0)
(0.165952 -0.0226431 0)
(0.112368 -0.0223186 0)
(0.058031 -0.0234239 0)
(0.00139625 -0.0255398 0)
(-0.0596337 -0.0276347 0)
(-0.125411 -0.0302167 0)
(-0.19463 -0.0322287 0)
(-0.266354 -0.0333275 0)
(-0.339007 -0.0333282 0)
(-0.41075 -0.0321934 0)
(-0.479703 -0.0300383 0)
(-0.54417 -0.0271087 0)
(-0.602822 -0.0237281 0)
(-0.654861 -0.0201477 0)
(-0.69998 -0.0167392 0)
(-0.738175 -0.0137404 0)
(-0.769623 -0.0111824 0)
(-0.794466 -0.00894105 0)
(-0.81257 -0.00675895 0)
(-0.823403 -0.00424692 0)
(-0.825738 -0.00092001 0)
(-0.818007 0.0027193 0)
(-0.798321 0.00755305 0)
(-0.764483 0.0133332 0)
(-0.714728 0.0198403 0)
(-0.647809 0.0267178 0)
(-0.563294 0.0335084 0)
(-0.461769 0.0397085 0)
(-0.344914 0.0448342 0)
(-0.215409 0.0484906 0)
(-0.0767843 0.0504349 0)
(0.0665358 0.0503447 0)
(0.210041 0.0486189 0)
(0.349574 0.0452228 0)
(0.480891 0.040524 0)
(0.600522 0.0349309 0)
(0.705794 0.0288281 0)
(0.794869 0.0226059 0)
(0.866733 0.0165795 0)
(0.921084 0.0109676 0)
(0.958147 0.00588924 0)
(0.978537 0.00142937 0)
(0.983018 -0.00267322 0)
(0.97239 -0.00618678 0)
(0.947358 -0.00936804 0)
(0.908553 -0.0122834 0)
(0.856542 -0.0149906 0)
(0.791909 -0.0175112 0)
(0.715289 -0.0198283 0)
(0.627445 -0.0219063 0)
(0.52935 -0.0236931 0)
(0.422163 -0.0251337 0)
(0.307477 -0.0261649 0)
(0.185315 -0.0268356 0)
(0.0668637 -0.0266424 0)
(-0.0573128 -0.0264773 0)
(-0.18751 -0.0261649 0)
(-0.308199 -0.0252281 0)
(-0.42375 -0.0236103 0)
(-0.529734 -0.0213288 0)
(-0.623682 -0.0183769 0)
(-0.702792 -0.0147925 0)
(-0.764653 -0.0106553 0)
(-0.807343 -0.00609136 0)
(-0.829642 -0.00126674 0)
(-0.83101 0.00377463 0)
(-0.811833 0.00788031 0)
(-0.773556 0.0119108 0)
(-0.718163 0.0152468 0)
(-0.648608 0.0177563 0)
(-0.568202 0.0193922 0)
(-0.480525 0.0202053 0)
(-0.387669 0.0207023 0)
(-0.291419 0.0191257 0)
(-0.198036 0.0172595 0)
(-0.109731 0.0162686 0)
(-0.0383613 0.0147576 0)
(0.0384726 0.0144108 0)
(0.121646 0.0132193 0)
(0.189622 0.0123323 0)
(0.254511 0.0113425 0)
(0.312297 0.0102338 0)
(0.363036 0.0088292 0)
(0.405109 0.00703394 0)
(0.437047 0.00480541 0)
(0.457445 0.0021911 0)
(0.464907 -0.000942432 0)
(0.459089 -0.00353028 0)
(0.440398 -0.00625166 0)
(0.409513 -0.00856993 0)
(0.368317 -0.0103073 0)
(0.319098 -0.0113682 0)
(0.264809 -0.0117482 0)
(0.206322 -0.011935 0)
(0.147008 -0.00965824 0)
(0.0914256 -0.00869691 0)
(0.0430262 -0.00747994 0)
(-0.00264476 -0.00636129 0)
(-0.0488881 -0.00575709 0)
(-0.0912741 -0.00516718 0)
(-0.130962 -0.00491916 0)
(-0.168559 -0.00490387 0)
(-0.204866 -0.00497824 0)
(-0.239649 -0.00498507 0)
(-0.272429 -0.00478005 0)
(-0.302177 -0.00427086 0)
(-0.327635 -0.00342784 0)
(-0.347452 -0.00228559 0)
(-0.360451 -0.00094092 0)
(-0.365754 0.000528871 0)
(-0.362871 0.00184293 0)
(-0.351877 0.0030342 0)
(-0.33319 0.0039619 0)
(-0.30763 0.00459729 0)
(-0.276143 0.00495787 0)
(-0.239704 0.00510535 0)
(-0.199128 0.00512766 0)
(-0.154989 0.00511817 0)
(-0.107619 0.00515492 0)
(-0.0570418 0.00528824 0)
(-0.003387 0.00548827 0)
(0.0533739 0.00580073 0)
(0.11337 0.00606725 0)
(0.175824 0.00625434 0)
(0.240116 0.00628274 0)
(0.305116 0.00609966 0)
(0.369448 0.00568027 0)
(0.431535 0.00503168 0)
(0.489727 0.00418814 0)
(0.54244 0.00320522 0)
(0.588205 0.00214951 0)
(0.625782 0.00108112 0)
(0.654156 4.69518e-05 0)
(0.672585 -0.000922978 0)
(0.680098 -0.00182698 0)
(0.67662 -0.0026312 0)
(0.661794 -0.0033789 0)
(0.634843 -0.0040652 0)
(0.595498 -0.0046848 0)
(0.543469 -0.00520811 0)
(0.478504 -0.00558897 0)
(0.401145 -0.00573462 0)
(0.310882 -0.00569744 0)
(0.208044 -0.00509117 0)
(0.0989277 -0.00392325 0)
(-0.0189698 -0.00255971 0)
(-0.14482 -0.000832776 0)
(-0.272418 0.00126057 0)
(-0.399821 0.00354022 0)
(-0.5235 0.00574524 0)
(-0.638228 0.00781301 0)
(-0.744118 0.00938697 0)
(-0.830721 0.0106994 0)
(-0.903555 0.010992 0)
(-0.961533 0.0111493 0)
(-0.99405 0.0104646 0)
(-1.01033 0.00912865 0)
(-1.0046 0.00768863 0)
(-0.982499 0.00560295 0)
(-0.943192 0.00336885 0)
(-0.889907 0.00104942 0)
(-0.823532 -0.00134334 0)
(-0.746683 -0.00380005 0)
(-0.662197 -0.00604152 0)
(-0.572406 -0.00799188 0)
(-0.478835 -0.00984208 0)
(-0.383027 -0.0115364 0)
(-0.28618 -0.0129536 0)
(-0.189922 -0.0140621 0)
(-0.0956404 -0.0148839 0)
(-0.00192762 -0.0153945 0)
(0.0897107 -0.0156732 0)
(0.178306 -0.0157719 0)
(0.263947 -0.0157415 0)
(0.346682 -0.0155444 0)
(0.426634 -0.0152492 0)
(0.503738 -0.0148477 0)
(0.57773 -0.0142452 0)
(0.647914 -0.0133758 0)
(0.713142 -0.0122134 0)
(0.77184 -0.010742 0)
(0.822331 -0.00891694 0)
(0.862957 -0.00674463 0)
(0.892218 -0.00425502 0)
(0.908661 -0.00157938 0)
(0.911398 0.00120981 0)
(0.900444 0.00395269 0)
(0.875162 0.00666722 0)
(0.836462 0.00915297 0)
(0.785525 0.0113543 0)
(0.723892 0.013242 0)
(0.65312 0.0148157 0)
(0.57496 0.0160861 0)
(0.490671 0.0171192 0)
(0.401398 0.0179388 0)
(0.308207 0.0186179 0)
(0.211722 0.019139 0)
(0.112918 0.0194764 0)
(0.0120255 0.0196499 0)
(-0.089655 0.0195774 0)
(-0.190317 0.0192578 0)
(-0.288607 0.0185815 0)
(-0.382528 0.0175639 0)
(-0.470262 0.0161892 0)
(-0.549887 0.0144738 0)
(-0.619795 0.012477 0)
(-0.678726 0.0102524 0)
(-0.725605 0.00786734 0)
(-0.759746 0.00540327 0)
(-0.780781 0.00293441 0)
(-0.788842 0.000396589 0)
(-0.783628 -0.00197748 0)
(-0.766296 -0.00422014 0)
(-0.737522 -0.00629883 0)
(-0.698353 -0.00816575 0)
(-0.649883 -0.00981342 0)
(-0.593411 -0.0111923 0)
(-0.530446 -0.0122868 0)
(-0.462491 -0.0130762 0)
(-0.391254 -0.0135444 0)
(-0.318426 -0.0136812 0)
(-0.245857 -0.0134952 0)
(-0.175027 -0.0130108 0)
(-0.107644 -0.0122226 0)
(-0.04505 -0.0112134 0)
(0.0118126 -0.0100436 0)
(0.0620996 -0.00878729 0)
(0.105749 -0.00751193 0)
(0.142768 -0.00630219 0)
(0.173732 -0.00522817 0)
(0.19954 -0.00434827 0)
(0.221389 -0.00369899 0)
(0.240605 -0.00330287 0)
(0.258502 -0.00314489 0)
(0.276151 -0.00316209 0)
(0.294575 -0.00312492 0)
(0.313174 -0.00323452 0)
(0.334669 -0.00288092 0)
(0.351056 -0.00626733 0)
(0.710619 0.00845078 0)
(0.739339 0.0135315 0)
(0.702337 0.0186063 0)
(0.654097 0.0229449 0)
(0.597113 0.0261659 0)
(0.534264 0.0281094 0)
(0.468423 0.028884 0)
(0.402235 0.0291918 0)
(0.338055 0.030958 0)
(0.27717 0.033121 0)
(0.21986 0.0346125 0)
(0.165316 0.0356173 0)
(0.111684 0.0361367 0)
(0.0573315 0.0363679 0)
(0.000964141 0.0366862 0)
(-0.0599886 0.0384548 0)
(-0.125935 0.0396445 0)
(-0.195209 0.040866 0)
(-0.267113 0.0417801 0)
(-0.340035 0.0420378 0)
(-0.412079 0.0414151 0)
(-0.48131 0.0398426 0)
(-0.545995 0.0373828 0)
(-0.604749 0.0341728 0)
(-0.656807 0.0302497 0)
(-0.701934 0.0260045 0)
(-0.740127 0.0217283 0)
(-0.771576 0.0174726 0)
(-0.796454 0.013159 0)
(-0.814634 0.00861628 0)
(-0.825544 0.00357217 0)
(-0.828259 -0.00189897 0)
(-0.820969 -0.00858569 0)
(-0.801523 -0.0162362 0)
(-0.767958 -0.0249253 0)
(-0.71835 -0.0344636 0)
(-0.651374 -0.0444887 0)
(-0.566546 -0.0544953 0)
(-0.464423 -0.0638883 0)
(-0.346691 -0.0720554 0)
(-0.21606 -0.078423 0)
(-0.076215 -0.0825344 0)
(0.0684489 -0.0843185 0)
(0.213306 -0.0833046 0)
(0.353992 -0.0798826 0)
(0.486278 -0.0742674 0)
(0.606626 -0.0668467 0)
(0.712337 -0.0580629 0)
(0.801582 -0.0483931 0)
(0.873383 -0.038272 0)
(0.92749 -0.0280524 0)
(0.96421 -0.0179936 0)
(0.984131 -0.00822965 0)
(0.988151 0.00104711 0)
(0.977136 0.0100663 0)
(0.951687 0.0186986 0)
(0.912487 0.0269934 0)
(0.860083 0.0349651 0)
(0.795037 0.0425933 0)
(0.717955 0.0498141 0)
(0.629581 0.0565252 0)
(0.530872 0.0625937 0)
(0.422985 0.0678604 0)
(0.307479 0.0721735 0)
(0.184549 0.0752344 0)
(0.0650963 0.0777836 0)
(-0.0604463 0.0777802 0)
(-0.191815 0.0763268 0)
(-0.313518 0.0730997 0)
(-0.43007 0.0682492 0)
(-0.537 0.0616144 0)
(-0.631772 0.053271 0)
(-0.711521 0.043347 0)
(-0.773757 0.0320881 0)
(-0.81648 0.0198534 0)
(-0.838371 0.00716814 0)
(-0.839202 -0.00541478 0)
(-0.819026 -0.017836 0)
(-0.77916 -0.0288825 0)
(-0.722103 -0.0383067 0)
(-0.650771 -0.0457463 0)
(-0.568608 -0.0509989 0)
(-0.479181 -0.0540435 0)
(-0.385412 -0.05456 0)
(-0.288753 -0.0553662 0)
(-0.194334 -0.0561655 0)
(-0.105553 -0.0537101 0)
(-0.0339844 -0.051794 0)
(0.0427696 -0.046195 0)
(0.125513 -0.0438028 0)
(0.193513 -0.0404693 0)
(0.258517 -0.0371485 0)
(0.316631 -0.0331935 0)
(0.367825 -0.0284722 0)
(0.410401 -0.0227886 0)
(0.442768 -0.0161132 0)
(0.463296 -0.00856222 0)
(0.470792 -0.00054601 0)
(0.464612 0.00785597 0)
(0.444931 0.0157649 0)
(0.412827 0.0227878 0)
(0.37017 0.0284502 0)
(0.319397 0.0324175 0)
(0.263481 0.0345704 0)
(0.20435 0.034423 0)
(0.144344 0.0356342 0)
(0.0877761 0.0340803 0)
(0.0394376 0.0317973 0)
(-0.00601794 0.0292917 0)
(-0.0517466 0.0266337 0)
(-0.0934892 0.0250267 0)
(-0.132755 0.023889 0)
(-0.170127 0.0230862 0)
(-0.206468 0.0223715 0)
(-0.241541 0.0214167 0)
(-0.274808 0.0199247 0)
(-0.305139 0.0176567 0)
(-0.331151 0.0144927 0)
(-0.351372 0.0104535 0)
(-0.364515 0.00571428 0)
(-0.369717 0.000518115 0)
(-0.366436 -0.00483427 0)
(-0.354782 -0.0099779 0)
(-0.335321 -0.0146817 0)
(-0.30896 -0.0187826 0)
(-0.276748 -0.0222384 0)
(-0.239732 -0.0251132 0)
(-0.19876 -0.0275519 0)
(-0.154392 -0.0297342 0)
(-0.10691 -0.031826 0)
(-0.0562733 -0.0339291 0)
(-0.00248687 -0.0361224 0)
(0.0545107 -0.0382143 0)
(0.114905 -0.0401792 0)
(0.17795 -0.0417374 0)
(0.242987 -0.0426563 0)
(0.308824 -0.0427113 0)
(0.374004 -0.0417343 0)
(0.436863 -0.0396359 0)
(0.495678 -0.0364147 0)
(0.548807 -0.0321455 0)
(0.594761 -0.0269621 0)
(0.632311 -0.0210223 0)
(0.660478 -0.0144749 0)
(0.678556 -0.00743057 0)
(0.685613 1.20183e-05 0)
(0.681637 0.00761206 0)
(0.66621 0.0156307 0)
(0.638568 0.023952 0)
(0.598375 0.0324784 0)
(0.545276 0.0411199 0)
(0.478959 0.0496939 0)
(0.39989 0.058011 0)
(0.307683 0.0655996 0)
(0.202778 0.0721742 0)
(0.0913405 0.0777757 0)
(-0.0288559 0.0815176 0)
(-0.156595 0.0830487 0)
(-0.285566 0.0824101 0)
(-0.413732 0.0794465 0)
(-0.537391 0.0740148 0)
(-0.651374 0.066343 0)
(-0.755706 0.0567436 0)
(-0.840317 0.0457972 0)
(-0.910693 0.0328138 0)
(-0.966019 0.0207436 0)
(-0.995966 0.00790166 0)
(-1.00971 -0.00436404 0)
(-1.00162 -0.0161543 0)
(-0.977726 -0.0260968 0)
(-0.936894 -0.0347528 0)
(-0.882557 -0.0419208 0)
(-0.815634 -0.0476882 0)
(-0.738614 -0.0522133 0)
(-0.654258 -0.0554579 0)
(-0.564955 -0.0574981 0)
(-0.472266 -0.058367 0)
(-0.377629 -0.0582625 0)
(-0.282119 -0.0574321 0)
(-0.187273 -0.0560396 0)
(-0.0943355 -0.0543202 0)
(-0.0018385 -0.0523379 0)
(0.0887995 -0.0503385 0)
(0.176628 -0.048376 0)
(0.261781 -0.0465095 0)
(0.344285 -0.0448601 0)
(0.424231 -0.0432775 0)
(0.501531 -0.0416577 0)
(0.575881 -0.0398532 0)
(0.646536 -0.0376222 0)
(0.712292 -0.0347084 0)
(0.771535 -0.0309099 0)
(0.822575 -0.0260667 0)
(0.863712 -0.0202066 0)
(0.893414 -0.0134155 0)
(0.910228 -0.00589264 0)
(0.9132 0.00191875 0)
(0.902345 0.00974913 0)
(0.877044 0.017671 0)
(0.838226 0.0250308 0)
(0.787098 0.0316072 0)
(0.725243 0.0372895 0)
(0.65425 0.0420503 0)
(0.575895 0.0459263 0)
(0.491442 0.0491208 0)
(0.402031 0.0516753 0)
(0.308719 0.0537403 0)
(0.212115 0.0553944 0)
(0.113181 0.0565515 0)
(0.012133 0.0572421 0)
(-0.089738 0.0571665 0)
(-0.190629 0.0563238 0)
(-0.289186 0.0544739 0)
(-0.38338 0.0515757 0)
(-0.471382 0.0476182 0)
(-0.551252 0.0426219 0)
(-0.621365 0.0367668 0)
(-0.680459 0.0301962 0)
(-0.727446 0.0230972 0)
(-0.761638 0.0157353 0)
(-0.782678 0.00832736 0)
(-0.790692 0.00069097 0)
(-0.785392 -0.00646107 0)
(-0.767952 -0.0132032 0)
(-0.739036 -0.0194477 0)
(-0.699703 -0.0250598 0)
(-0.651047 -0.0300094 0)
(-0.594368 -0.0341568 0)
(-0.531177 -0.0374458 0)
(-0.462984 -0.0398136 0)
(-0.3915 -0.0412135 0)
(-0.318423 -0.0416065 0)
(-0.245615 -0.0410411 0)
(-0.174553 -0.0395799 0)
(-0.10698 -0.0372378 0)
(-0.0442344 -0.0342304 0)
(0.0127245 -0.0307407 0)
(0.0630484 -0.0269879 0)
(0.106681 -0.0231754 0)
(0.143624 -0.0195556 0)
(0.174465 -0.0163361 0)
(0.200113 -0.0137002 0)
(0.221779 -0.0117649 0)
(0.24081 -0.0105883 0)
(0.25854 -0.0101397 0)
(0.276085 -0.0102812 0)
(0.294662 -0.0108724 0)
(0.3144 -0.0116762 0)
(0.338 -0.0116754 0)
(0.35723 -0.0092202 0)
(0.717689 0.0140441 0)
(0.741385 0.0226251 0)
(0.704004 0.0308519 0)
(0.655176 0.0377549 0)
(0.597546 0.0428528 0)
(0.534125 0.0460495 0)
(0.46794 0.0476527 0)
(0.40175 0.0483508 0)
(0.337767 0.0488156 0)
(0.277105 0.0489809 0)
(0.219796 0.0494923 0)
(0.164934 0.0498936 0)
(0.111001 0.0502637 0)
(0.0565113 0.0505943 0)
(0.000359193 0.0505041 0)
(-0.0604347 0.0518319 0)
(-0.126513 0.0529548 0)
(-0.195895 0.0538549 0)
(-0.268002 0.0541989 0)
(-0.341208 0.0536684 0)
(-0.413568 0.0520741 0)
(-0.483098 0.0493936 0)
(-0.548036 0.045748 0)
(-0.607073 0.041336 0)
(-0.659331 0.0362506 0)
(-0.704412 0.0309001 0)
(-0.742447 0.0255758 0)
(-0.773747 0.0203221 0)
(-0.798529 0.0150487 0)
(-0.816716 0.00957027 0)
(-0.827669 0.00360605 0)
(-0.830335 -0.00290654 0)
(-0.823078 -0.0101364 0)
(-0.803728 -0.018453 0)
(-0.770125 -0.027679 0)
(-0.720354 -0.037567 0)
(-0.653073 -0.0477202 0)
(-0.567792 -0.0576238 0)
(-0.465093 -0.0666985 0)
(-0.346692 -0.0743723 0)
(-0.215357 -0.0801331 0)
(-0.0748263 -0.0836581 0)
(0.0704785 -0.0846234 0)
(0.215863 -0.083134 0)
(0.356932 -0.079295 0)
(0.489459 -0.0734162 0)
(0.609903 -0.0658807 0)
(0.715578 -0.0571419 0)
(0.804684 -0.0476398 0)
(0.876266 -0.0377739 0)
(0.930101 -0.0278711 0)
(0.966506 -0.0181719 0)
(0.986123 -0.0088527 0)
(0.989864 6.86345e-05 0)
(0.978548 0.00862404 0)
(0.952795 0.0167573 0)
(0.91331 0.0244911 0)
(0.860629 0.0318304 0)
(0.795308 0.0387542 0)
(0.717958 0.0452112 0)
(0.62932 0.0511237 0)
(0.530352 0.0563823 0)
(0.422215 0.0608572 0)
(0.306458 0.0644396 0)
(0.183439 0.0669122 0)
(0.0637282 0.0690126 0)
(-0.0620115 0.0685059 0)
(-0.193364 0.0675436 0)
(-0.31519 0.0648046 0)
(-0.431776 0.0607262 0)
(-0.538725 0.0550814 0)
(-0.633457 0.0479545 0)
(-0.71311 0.0394549 0)
(-0.775199 0.0297923 0)
(-0.817739 0.0192608 0)
(-0.839431 0.00826866 0)
(-0.839953 -0.00285438 0)
(-0.819517 -0.0134814 0)
(-0.779487 -0.0233822 0)
(-0.722211 -0.0320257 0)
(-0.650676 -0.039094 0)
(-0.568327 -0.0443765 0)
(-0.478717 -0.0478223 0)
(-0.384951 -0.0494114 0)
(-0.288804 -0.0501651 0)
(-0.194243 -0.0530984 0)
(-0.104983 -0.0519773 0)
(-0.0325613 -0.0512393 0)
(0.0443458 -0.0444705 0)
(0.126489 -0.0427873 0)
(0.194676 -0.0394191 0)
(0.259612 -0.0361496 0)
(0.317686 -0.0322088 0)
(0.368767 -0.0275999 0)
(0.411187 -0.0221783 0)
(0.443363 -0.0159458 0)
(0.463734 -0.00900645 0)
(0.470955 -0.00151743 0)
(0.464549 0.00588351 0)
(0.4448 0.0131199 0)
(0.412612 0.0196531 0)
(0.369909 0.0250943 0)
(0.319129 0.0291389 0)
(0.263179 0.0317031 0)
(0.204303 0.0324886 0)
(0.144541 0.0336658 0)
(0.0877322 0.0339264 0)
(0.0391205 0.0324458 0)
(-0.00656342 0.0304108 0)
(-0.0523603 0.0279474 0)
(-0.0941042 0.0264105 0)
(-0.133455 0.0251795 0)
(-0.170874 0.024138 0)
(-0.207209 0.0231292 0)
(-0.242219 0.0218931 0)
(-0.27537 0.0202061 0)
(-0.305548 0.0178717 0)
(-0.331395 0.0147796 0)
(-0.351463 0.0109228 0)
(-0.364495 0.00642963 0)
(-0.369596 0.00144539 0)
(-0.36626 -0.00373573 0)
(-0.354617 -0.00886515 0)
(-0.335168 -0.0137102 0)
(-0.308815 -0.0181085 0)
(-0.27659 -0.0219837 0)
(-0.239525 -0.0253486 0)
(-0.198464 -0.0282892 0)
(-0.153973 -0.0309318 0)
(-0.106341 -0.0334026 0)
(-0.0555549 -0.0357818 0)
(-0.00163242 -0.0381725 0)
(0.0554593 -0.0403768 0)
(0.11589 -0.0424331 0)
(0.178918 -0.0440904 0)
(0.243881 -0.0451476 0)
(0.309602 -0.0453937 0)
(0.374637 -0.0446575 0)
(0.437338 -0.0428298 0)
(0.495994 -0.0398783 0)
(0.548973 -0.0358393 0)
(0.594787 -0.0308082 0)
(0.6322 -0.0249149 0)
(0.660221 -0.0182901 0)
(0.678128 -0.0110446 0)
(0.685008 -0.00323111 0)
(0.680832 0.0047729 0)
(0.665148 0.0133778 0)
(0.637259 0.0224118 0)
(0.59685 0.0318038 0)
(0.543603 0.0414987 0)
(0.477268 0.0513669 0)
(0.398355 0.0612812 0)
(0.306375 0.0707998 0)
(0.201935 0.0796557 0)
(0.0911943 0.0879025 0)
(-0.0284079 0.0945689 0)
(-0.155617 0.0993059 0)
(-0.284111 0.101748 0)
(-0.412023 0.101621 0)
(-0.535646 0.0984558 0)
(-0.649878 0.0924035 0)
(-0.754611 0.0834085 0)
(-0.839806 0.0723328 0)
(-0.910818 0.0577749 0)
(-0.96663 0.0436523 0)
(-0.996935 0.027537 0)
(-1.01121 0.01092 0)
(-1.0034 -0.00493035 0)
(-0.979269 -0.0197479 0)
(-0.938454 -0.0333888 0)
(-0.884038 -0.0454872 0)
(-0.817048 -0.0560407 0)
(-0.739988 -0.0650776 0)
(-0.655594 -0.0724704 0)
(-0.566273 -0.0781508 0)
(-0.473539 -0.0823216 0)
(-0.378799 -0.0851177 0)
(-0.283146 -0.0866473 0)
(-0.188111 -0.0870401 0)
(-0.0949758 -0.0865953 0)
(-0.00227434 -0.0853325 0)
(0.0885346 -0.083627 0)
(0.176514 -0.0816472 0)
(0.261789 -0.0795384 0)
(0.344423 -0.0773329 0)
(0.424537 -0.0749991 0)
(0.502044 -0.0724261 0)
(0.576669 -0.0692774 0)
(0.647667 -0.0651613 0)
(0.713827 -0.0597645 0)
(0.773549 -0.0528753 0)
(0.825107 -0.0442726 0)
(0.866751 -0.034015 0)
(0.896897 -0.0222688 0)
(0.913998 -0.00939745 0)
(0.917101 0.00391828 0)
(0.906275 0.0171329 0)
(0.880835 0.0304394 0)
(0.841711 0.0427467 0)
(0.790167 0.0536986 0)
(0.72785 0.0631201 0)
(0.6564 0.0709788 0)
(0.577645 0.0773506 0)
(0.492852 0.0825755 0)
(0.403165 0.086747 0)
(0.309635 0.0901672 0)
(0.212812 0.0928872 0)
(0.11364 0.0947813 0)
(0.0122926 0.0958996 0)
(-0.089963 0.095779 0)
(-0.191306 0.094407 0)
(-0.290375 0.0913168 0)
(-0.385108 0.0864799 0)
(-0.473644 0.0798609 0)
(-0.553999 0.0715008 0)
(-0.62452 0.0616982 0)
(-0.683927 0.0507031 0)
(-0.73112 0.0388323 0)
(-0.765414 0.026525 0)
(-0.786454 0.0141537 0)
(-0.794378 0.00140386 0)
(-0.788904 -0.0105205 0)
(-0.771234 -0.0217705 0)
(-0.742035 -0.0321935 0)
(-0.702374 -0.0415556 0)
(-0.653344 -0.0498171 0)
(-0.59625 -0.0567379 0)
(-0.532606 -0.0622264 0)
(-0.463931 -0.0661814 0)
(-0.391947 -0.0685181 0)
(-0.318371 -0.0691792 0)
(-0.245087 -0.0682305 0)
(-0.173573 -0.0657834 0)
(-0.10563 -0.0618385 0)
(-0.0425898 -0.0567797 0)
(0.014564 -0.0509159 0)
(0.064962 -0.0446101 0)
(0.108561 -0.0382087 0)
(0.145357 -0.0321321 0)
(0.17595 -0.0267338 0)
(0.201273 -0.0223174 0)
(0.22257 -0.0190763 0)
(0.241226 -0.0171142 0)
(0.258618 -0.0163815 0)
(0.275897 -0.0166667 0)
(0.294239 -0.017635 0)
(0.313554 -0.0192609 0)
(0.33564 -0.0195225 0)
(0.357398 -0.0205194 0)
(0.72656 0.0184441 0)
(0.744922 0.029877 0)
(0.707026 0.0405187 0)
(0.657394 0.0493356 0)
(0.598862 0.0558111 0)
(0.534609 0.0598759 0)
(0.467793 0.0618704 0)
(0.401177 0.0624136 0)
(0.336814 0.0620873 0)
(0.275958 0.0611922 0)
(0.218741 0.0603869 0)
(0.164128 0.0599741 0)
(0.110441 0.0603784 0)
(0.0558769 0.0613925 0)
(-0.000169906 0.0620047 0)
(-0.0607128 0.0637439 0)
(-0.126876 0.0655335 0)
(-0.196479 0.0669115 0)
(-0.26893 0.067451 0)
(-0.342557 0.0667985 0)
(-0.41535 0.0647594 0)
(-0.48526 0.0613351 0)
(-0.550477 0.0567054 0)
(-0.609634 0.0511768 0)
(-0.661897 0.0451957 0)
(-0.706964 0.0389602 0)
(-0.744971 0.0325923 0)
(-0.776253 0.0261409 0)
(-0.801064 0.019503 0)
(-0.81934 0.0124442 0)
(-0.830451 0.00470974 0)
(-0.833421 -0.0037952 0)
(-0.82655 -0.013928 0)
(-0.807555 -0.0256145 0)
(-0.77424 -0.0388067 0)
(-0.724612 -0.0532126 0)
(-0.657263 -0.0683006 0)
(-0.571658 -0.0833386 0)
(-0.468358 -0.0974638 0)
(-0.349093 -0.109784 0)
(-0.216685 -0.119469 0)
(-0.0749086 -0.125946 0)
(0.071686 -0.128412 0)
(0.218294 -0.127297 0)
(0.360498 -0.122382 0)
(0.493967 -0.114117 0)
(0.615124 -0.103053 0)
(0.721267 -0.0898576 0)
(0.810601 -0.0752249 0)
(0.882205 -0.0598016 0)
(0.935897 -0.0441275 0)
(0.972049 -0.028609 0)
(0.991335 -0.0135082 0)
(0.994743 0.00088222 0)
(0.983117 0.0150457 0)
(0.957042 0.0286086 0)
(0.917243 0.0416687 0)
(0.864245 0.0542369 0)
(0.798588 0.066274 0)
(0.720863 0.0776772 0)
(0.631794 0.0882889 0)
(0.532325 0.0979002 0)
(0.423616 0.106264 0)
(0.307198 0.113149 0)
(0.183582 0.118215 0)
(0.0629469 0.122056 0)
(-0.0637881 0.122061 0)
(-0.195949 0.120588 0)
(-0.318737 0.116049 0)
(-0.436222 0.108907 0)
(-0.544074 0.098873 0)
(-0.639625 0.0860368 0)
(-0.719968 0.0705769 0)
(-0.782553 0.0528571 0)
(-0.825334 0.0334205 0)
(-0.846966 0.0130674 0)
(-0.847168 -0.00743895 0)
(-0.826077 -0.0274664 0)
(-0.785044 -0.0457997 0)
(-0.726556 -0.0617044 0)
(-0.653666 -0.0745687 0)
(-0.569925 -0.0840333 0)
(-0.478971 -0.0900437 0)
(-0.384114 -0.0927925 0)
(-0.287918 -0.0932318 0)
(-0.192811 -0.0947132 0)
(-0.102634 -0.0925623 0)
(-0.0290402 -0.0900109 0)
(0.048012 -0.0803169 0)
(0.129315 -0.0766249 0)
(0.197817 -0.0709425 0)
(0.262897 -0.0652065 0)
(0.321346 -0.0583369 0)
(0.372883 -0.0501288 0)
(0.415808 -0.0402654 0)
(0.448434 -0.0286978 0)
(0.469078 -0.0156268 0)
(0.476375 -0.00152304 0)
(0.469732 0.0128271 0)
(0.449351 0.026659 0)
(0.416252 0.0390523 0)
(0.372403 0.0492183 0)
(0.320365 0.0565873 0)
(0.263123 0.0609639 0)
(0.203416 0.0622402 0)
(0.14323 0.0622019 0)
(0.0856916 0.0613119 0)
(0.0365606 0.0578601 0)
(-0.0091878 0.0536959 0)
(-0.0546498 0.049349 0)
(-0.0958738 0.0464565 0)
(-0.134918 0.0443895 0)
(-0.17218 0.0428504 0)
(-0.208561 0.0414477 0)
(-0.243832 0.0396068 0)
(-0.277419 0.0368123 0)
(-0.308139 0.0326448 0)
(-0.334533 0.0268866 0)
(-0.355051 0.0195565 0)
(-0.368344 0.0109601 0)
(-0.373504 0.00148203 0)
(-0.369972 -0.00835324 0)
(-0.357895 -0.0178991 0)
(-0.33788 -0.0267256 0)
(-0.3109 -0.0345311 0)
(-0.278074 -0.0412116 0)
(-0.240505 -0.046855 0)
(-0.199074 -0.0516981 0)
(-0.154349 -0.05605 0)
(-0.106588 -0.0602018 0)
(-0.0557336 -0.0643367 0)
(-0.00169152 -0.0686002 0)
(0.0556147 -0.0726786 0)
(0.116384 -0.0764874 0)
(0.179937 -0.0795479 0)
(0.245584 -0.0814302 0)
(0.312108 -0.0817149 0)
(0.378001 -0.0800784 0)
(0.441539 -0.0763367 0)
(0.500943 -0.0704659 0)
(0.554523 -0.0625831 0)
(0.600764 -0.0529183 0)
(0.638425 -0.041752 0)
(0.666535 -0.0293526 0)
(0.684411 -0.0159369 0)
(0.691125 -0.00165777 0)
(0.686718 0.0129369 0)
(0.670754 0.0284744 0)
(0.642494 0.044646 0)
(0.601593 0.0613073 0)
(0.547676 0.0782957 0)
(0.480451 0.0953035 0)
(0.400343 0.111979 0)
(0.306947 0.127521 0)
(0.200934 0.141446 0)
(0.0882748 0.153468 0)
(-0.0333323 0.162159 0)
(-0.16239 0.167163 0)
(-0.292546 0.167821 0)
(-0.421838 0.163898 0)
(-0.546389 0.154966 0)
(-0.661116 0.14133 0)
(-0.765669 0.123436 0)
(-0.850362 0.102341 0)
(-0.92029 0.0767876 0)
(-0.974521 0.0523241 0)
(-1.00332 0.0258395 0)
(-1.01536 -0.000561458 0)
(-1.00541 -0.0250905 0)
(-0.979782 -0.0470935 0)
(-0.937344 -0.066591 0)
(-0.881617 -0.0832007 0)
(-0.813692 -0.0970088 0)
(-0.735995 -0.108148 0)
(-0.651215 -0.116604 0)
(-0.561823 -0.122431 0)
(-0.469357 -0.125859 0)
(-0.375145 -0.127303 0)
(-0.280185 -0.127085 0)
(-0.185953 -0.125491 0)
(-0.0936322 -0.12301 0)
(-0.0017028 -0.119754 0)
(0.0884686 -0.116225 0)
(0.175952 -0.112619 0)
(0.260916 -0.109088 0)
(0.343401 -0.10581 0)
(0.423562 -0.102552 0)
(0.50134 -0.0990765 0)
(0.576459 -0.0949952 0)
(0.648163 -0.0897473 0)
(0.715204 -0.0827527 0)
(0.775922 -0.0736001 0)
(0.828491 -0.0619434 0)
(0.87107 -0.0478691 0)
(0.902001 -0.0316158 0)
(0.919706 -0.0136731 0)
(0.92311 0.00505126 0)
(0.912284 0.0236943 0)
(0.886586 0.0425052 0)
(0.846979 0.0598841 0)
(0.794797 0.0753168 0)
(0.731774 0.0885609 0)
(0.659636 0.0995731 0)
(0.58029 0.10848 0)
(0.495013 0.115782 0)
(0.404927 0.121605 0)
(0.311047 0.126359 0)
(0.213879 0.130186 0)
(0.114327 0.132869 0)
(0.0125084 0.134483 0)
(-0.0903229 0.13435 0)
(-0.192344 0.132426 0)
(-0.292191 0.128102 0)
(-0.387735 0.121302 0)
(-0.47707 0.111993 0)
(-0.558152 0.100225 0)
(-0.629282 0.0864266 0)
(-0.689159 0.0709597 0)
(-0.736658 0.054258 0)
(-0.7711 0.036957 0)
(-0.792143 0.0195663 0)
(-0.79992 0.00164262 0)
(-0.794182 -0.0150969 0)
(-0.776178 -0.0308898 0)
(-0.746556 -0.0455188 0)
(-0.706402 -0.0586586 0)
(-0.656811 -0.0702552 0)
(-0.599092 -0.0799731 0)
(-0.534772 -0.0876826 0)
(-0.46538 -0.0932338 0)
(-0.392648 -0.0965161 0)
(-0.318323 -0.0974277 0)
(-0.244311 -0.0960916 0)
(-0.1721 -0.0926267 0)
(-0.103585 -0.0870575 0)
(-0.0400887 -0.0799273 0)
(0.0173584 -0.0716533 0)
(0.067864 -0.0627548 0)
(0.111408 -0.0537225 0)
(0.147976 -0.0451472 0)
(0.178193 -0.037533 0)
(0.203024 -0.031311 0)
(0.223762 -0.0267591 0)
(0.24185 -0.0240217 0)
(0.258734 -0.0230339 0)
(0.275635 -0.0234952 0)
(0.29383 -0.0250446 0)
(0.313457 -0.0270868 0)
(0.336404 -0.0285285 0)
(0.359507 -0.0272226 0)
(0.735886 0.0210084 0)
(0.749119 0.0345998 0)
(0.710526 0.0469857 0)
(0.659935 0.0571854 0)
(0.600367 0.0646607 0)
(0.535159 0.0693206 0)
(0.467594 0.0714838 0)
(0.40051 0.0717753 0)
(0.335989 0.071 0)
(0.27516 0.0699902 0)
(0.21805 0.0691492 0)
(0.163652 0.0689021 0)
(0.110254 0.0695823 0)
(0.0558311 0.0713074 0)
(-7.56759e-05 0.0733615 0)
(-0.0604493 0.0762684 0)
(-0.126699 0.0792285 0)
(-0.196579 0.081619 0)
(-0.269463 0.0828804 0)
(-0.34363 0.082571 0)
(-0.416997 0.080449 0)
(-0.487437 0.0765124 0)
(-0.553078 0.0709835 0)
(-0.612515 0.0642456 0)
(-0.664916 0.0567573 0)
(-0.710015 0.048901 0)
(-0.747998 0.0409293 0)
(-0.779265 0.0329104 0)
(-0.804135 0.0246971 0)
(-0.822589 0.0159493 0)
(-0.833925 0.00620591 0)
(-0.837308 -0.00440839 0)
(-0.831043 -0.0172594 0)
(-0.812603 -0.0322322 0)
(-0.779751 -0.0492465 0)
(-0.730394 -0.0679068 0)
(-0.663033 -0.087501 0)
(-0.577071 -0.107054 0)
(-0.473045 -0.125421 0)
(-0.352702 -0.141424 0)
(-0.218946 -0.153976 0)
(-0.0755461 -0.162306 0)
(0.0727002 -0.165401 0)
(0.220857 -0.163829 0)
(0.364539 -0.157317 0)
(0.499228 -0.146462 0)
(0.621311 -0.13201 0)
(0.728064 -0.11485 0)
(0.817707 -0.0959004 0)
(0.889357 -0.0760071 0)
(0.942892 -0.055873 0)
(0.978746 -0.0360176 0)
(0.997601 -0.0167695 0)
(1.00067 0.00159849 0)
(0.98874 0.0194384 0)
(0.962254 0.0365638 0)
(0.9221 0.0530379 0)
(0.868747 0.0688777 0)
(0.802712 0.0840351 0)
(0.724561 0.0983796 0)
(0.634999 0.111707 0)
(0.534956 0.123749 0)
(0.425589 0.134198 0)
(0.308418 0.142758 0)
(0.184108 0.149042 0)
(0.0624119 0.153504 0)
(-0.065388 0.153505 0)
(-0.198417 0.151573 0)
(-0.322308 0.145845 0)
(-0.440818 0.136809 0)
(-0.549701 0.124161 0)
(-0.646195 0.108003 0)
(-0.72734 0.0885672 0)
(-0.790518 0.0663127 0)
(-0.833621 0.0419257 0)
(-0.855224 0.0164019 0)
(-0.855105 -0.00919611 0)
(-0.833382 -0.0342252 0)
(-0.791343 -0.0571124 0)
(-0.731602 -0.0769319 0)
(-0.657304 -0.0929329 0)
(-0.572116 -0.104689 0)
(-0.479799 -0.112167 0)
(-0.383833 -0.115723 0)
(-0.287143 -0.116307 0)
(-0.19161 -0.116097 0)
(-0.100823 -0.114076 0)
(-0.0256706 -0.11053 0)
(0.0515934 -0.0994262 0)
(0.132035 -0.0945326 0)
(0.20088 -0.0875538 0)
(0.266111 -0.080438 0)
(0.324944 -0.071978 0)
(0.376939 -0.0618759 0)
(0.420368 -0.0497466 0)
(0.453448 -0.0355267 0)
(0.474413 -0.0194692 0)
(0.481748 -0.00205035 0)
(0.474861 0.0153909 0)
(0.453968 0.0323255 0)
(0.420042 0.0474815 0)
(0.375144 0.0599099 0)
(0.32195 0.0689331 0)
(0.263555 0.0743099 0)
(0.202925 0.0761082 0)
(0.142331 0.0753421 0)
(0.0842616 0.0741234 0)
(0.0344874 0.0701046 0)
(-0.0114397 0.0649434 0)
(-0.0566472 0.0598512 0)
(-0.0974494 0.0562552 0)
(-0.136229 0.0537237 0)
(-0.173355 0.0518387 0)
(-0.209762 0.0501364 0)
(-0.245239 0.0479164 0)
(-0.279178 0.044554 0)
(-0.310339 0.0395469 0)
(-0.337188 0.032637 0)
(-0.358096 0.0238502 0)
(-0.371642 0.0135544 0)
(-0.37687 0.00217602 0)
(-0.373217 -0.00953468 0)
(-0.360857 -0.0209435 0)
(-0.340427 -0.0314887 0)
(-0.312968 -0.0408081 0)
(-0.279664 -0.0487731 0)
(-0.241675 -0.0554852 0)
(-0.199916 -0.0612263 0)
(-0.154966 -0.0663645 0)
(-0.107061 -0.0712478 0)
(-0.0561209 -0.076104 0)
(-0.00197973 -0.0810977 0)
(0.0554762 -0.0859035 0)
(0.116471 -0.090385 0)
(0.18037 -0.0940031 0)
(0.246472 -0.0962525 0)
(0.31354 -0.0966428 0)
(0.380024 -0.0947958 0)
(0.444152 -0.0904976 0)
(0.504098 -0.0837217 0)
(0.558131 -0.0746074 0)
(0.604711 -0.0634256 0)
(0.64259 -0.0505073 0)
(0.670804 -0.0361691 0)
(0.68867 -0.0206668 0)
(0.695369 -0.00412303 0)
(0.690914 0.012706 0)
(0.674811 0.0306945 0)
(0.646421 0.0494795 0)
(0.605361 0.0689338 0)
(0.551242 0.0889125 0)
(0.483768 0.109113 0)
(0.403311 0.129156 0)
(0.309366 0.148188 0)
(0.202823 0.165482 0)
(0.0895646 0.180765 0)
(-0.0329375 0.192524 0)
(-0.163068 0.200237 0)
(-0.294401 0.20288 0)
(-0.424976 0.200102 0)
(-0.550774 0.191302 0)
(-0.666762 0.17677 0)
(-0.772283 0.156899 0)
(-0.857843 0.132937 0)
(-0.928323 0.103404 0)
(-0.982632 0.0744809 0)
(-1.01115 0.0427744 0)
(-1.02314 0.0107521 0)
(-1.01273 -0.0194201 0)
(-0.98588 -0.0469628 0)
(-0.942571 -0.0718551 0)
(-0.885916 -0.0935057 0)
(-0.817156 -0.111937 0)
(-0.738716 -0.127236 0)
(-0.653243 -0.139437 0)
(-0.563227 -0.14852 0)
(-0.470245 -0.15474 0)
(-0.375603 -0.15846 0)
(-0.280283 -0.159975 0)
(-0.185777 -0.159562 0)
(-0.0932267 -0.157806 0)
(-0.00111165 -0.154782 0)
(0.0891523 -0.151117 0)
(0.17669 -0.14712 0)
(0.261692 -0.143015 0)
(0.34426 -0.138941 0)
(0.424603 -0.134751 0)
(0.502673 -0.130208 0)
(0.578247 -0.124729 0)
(0.650587 -0.117574 0)
(0.718447 -0.108169 0)
(0.780161 -0.0960298 0)
(0.833795 -0.0806889 0)
(0.877404 -0.0622938 0)
(0.909215 -0.0411148 0)
(0.927533 -0.0177804 0)
(0.931227 0.00644431 0)
(0.920407 0.0305537 0)
(0.894358 0.0549254 0)
(0.854077 0.0774153 0)
(0.801018 0.0973426 0)
(0.737035 0.114392 0)
(0.663962 0.128515 0)
(0.583801 0.139897 0)
(0.497832 0.149207 0)
(0.407191 0.156633 0)
(0.31288 0.162751 0)
(0.215281 0.167673 0)
(0.11525 0.171176 0)
(0.0128369 0.173334 0)
(-0.0907559 0.173252 0)
(-0.193692 0.170885 0)
(-0.294594 0.16539 0)
(-0.391235 0.156674 0)
(-0.481649 0.144697 0)
(-0.563711 0.129509 0)