/*--------------------------------*- C++ -*----------------------------------*\
| =========                 |                                                 |
| \\      /  F ield         | OpenFOAM: The Open Source CFD Toolbox           |
|  \\    /   O peration     | Version:  v1912                                 |
|   \\  /    A nd           | Website:  www.openfoam.com                      |
|    \\/     M anipulation  |                                                 |
\*---------------------------------------------------------------------------*/
FoamFile
{
    version     2.0;
    format      ascii;
    class       surfaceScalarField;
    location    "30";
    object      phi;
}
// * * * * * * * * * * * * * * * * * * * * * * * * * * * * * * * * * * * * * //

dimensions      [0 3 -1 0 0 0 0];
oriented        oriented;


internalField   nonuniform List<scalar> 
28285
(
-0.0448427
-0.0007321
-0.0441037
-0.000739002
-0.0433581
-0.000745586
-0.0426063
-0.000751819
-0.0418486
-0.000757671
-0.0410855
-0.000763106
-0.0403174
-0.000768094
-0.0395448
-0.000772609
-0.0387682
-0.00077663
-0.0379881
-0.000780142
-0.0372049
-0.000783124
-0.0364194
-0.000785564
-0.0356319
-0.000787464
-0.0348431
-0.000788843
-0.0340534
-0.000789638
-0.0332636
-0.000789836
-0.0324742
-0.000789437
-0.0316857
-0.000788434
-0.0308989
-0.000786851
-0.0301142
-0.000784656
-0.0293324
-0.000781766
-0.0285543
-0.000778174
-0.0277803
-0.000773954
-0.0270112
-0.000769122
-0.0262476
-0.000763588
-0.0254902
-0.000757429
-0.0247395
-0.000750663
-0.0239962
-0.000743356
-0.0232606
-0.000735542
-0.0225334
-0.000727228
-0.021815
-0.000718407
-0.0211058
-0.000709143
-0.0204064
-0.000699463
-0.019717
-0.00068942
-0.0190379
-0.000679039
-0.0183696
-0.00066834
-0.0177122
-0.000657333
-0.0170662
-0.000646063
-0.0164316
-0.000634552
-0.0158089
-0.000622724
-0.0151983
-0.000610653
-0.0145999
-0.00059834
-0.0140141
-0.00058578
-0.0134412
-0.000572975
-0.0128812
-0.000559907
-0.0123346
-0.000546604
-0.0118015
-0.000533106
-0.0112821
-0.000519454
-0.0107764
-0.000505645
-0.0102848
-0.000491632
-0.00980726
-0.000477549
-0.00934384
-0.000463415
-0.00889459
-0.00044925
-0.00845943
-0.000435157
-0.00803837
-0.000421064
-0.00763132
-0.000407052
-0.00723813
-0.000393188
-0.00685866
-0.000379471
-0.0064927
-0.000365958
-0.00614009
-0.000352616
-0.00580062
-0.000339466
-0.00547409
-0.000326527
-0.00516029
-0.0003138
-0.00485901
-0.000301282
-0.00457005
-0.000288957
-0.00429323
-0.000276824
-0.00402835
-0.000264878
-0.00377524
-0.000253111
-0.00353371
-0.000241536
-0.00330355
-0.000230159
-0.00308456
-0.000218991
-0.00287649
-0.000208069
-0.00267908
-0.000197402
-0.00249206
-0.000187022
-0.0023151
-0.000176964
-0.00214785
-0.000167248
-0.00198996
-0.000157895
-0.00184105
-0.000148908
-0.00170076
-0.000140285
-0.00156875
-0.000132011
-0.00144469
-0.000124066
-0.00132826
-0.000116427
-0.00121919
-0.00010907
-0.00111721
-0.000101978
-0.00102207
-9.51444e-05
-0.000933495
-8.8573e-05
-0.00085121
-8.22849e-05
-0.000774915
-7.62948e-05
-0.000704286
-7.06295e-05
-0.000638987
-6.52984e-05
-0.000578682
-6.0305e-05
-0.000523049
-5.56338e-05
-0.000471793
-5.12551e-05
-0.000424661
-4.71324e-05
-0.00038143
-4.32308e-05
-0.000341897
-3.95334e-05
-0.000305862
-3.60347e-05
-0.000273116
-3.27461e-05
-0.000243428
-2.96877e-05
-0.000216554
-2.68743e-05
-0.000192246
-2.43081e-05
-0.000170275
-2.19715e-05
-0.000150445
-1.98296e-05
-0.000132594
-1.78511e-05
-0.000116594
-1.60002e-05
-0.000102321
-1.42725e-05
-8.96497e-05
-1.26715e-05
-7.84348e-05
-1.12149e-05
-6.85221e-05
-9.91273e-06
-5.97586e-05
-8.76344e-06
-5.20139e-05
-7.74473e-06
-4.51821e-05
-6.83181e-06
-3.91842e-05
-5.99784e-06
-3.39548e-05
-5.22948e-06
-2.94206e-05
-4.53417e-06
-2.55434e-05
-3.87723e-06
-2.22191e-05
-3.3243e-06
-1.94166e-05
-2.80248e-06
-1.69975e-05
-2.41905e-06
-1.49822e-05
-2.01529e-06
-1.322e-05
-1.76226e-06
-1.1773e-05
-1.44701e-06
-1.04439e-05
-1.32904e-06
-9.29156e-06
-1.15237e-06
-8.04292e-06
-1.24864e-06
-6.73129e-06
-1.31164e-06
-4.85773e-06
-1.87356e-06
-2.28594e-06
-2.57179e-06
1.89397e-06
-4.1799e-06
8.22799e-06
-6.33402e-06
1.7619e-05
-9.39102e-06
2.93054e-05
-1.16864e-05
4.2554e-05
-1.32486e-05
-1.14025e-07
4.2668e-05
-0.044778
-0.00146383
-0.0440394
-0.00147762
-0.0432942
-0.00149078
-0.0425428
-0.00150323
-0.0417855
-0.00151492
-0.0410229
-0.00152576
-0.0402553
-0.0015357
-0.0394832
-0.00154469
-0.0387071
-0.00155269
-0.0379276
-0.00155969
-0.0371451
-0.00156564
-0.0363601
-0.0015705
-0.0355733
-0.00157428
-0.0347851
-0.00157701
-0.0339962
-0.00157853
-0.0332072
-0.00157891
-0.0324185
-0.00157815
-0.0316307
-0.0015762
-0.0308445
-0.001573
-0.0300607
-0.00156845
-0.0292799
-0.00156258
-0.0285026
-0.00155547
-0.0277295
-0.00154706
-0.0269613
-0.00153734
-0.0261987
-0.00152616
-0.0254423
-0.00151384
-0.0246926
-0.00150035
-0.0239503
-0.00148572
-0.0232157
-0.00147007
-0.0224895
-0.00145344
-0.0217721
-0.00143578
-0.0210641
-0.00141723
-0.0203657
-0.00139787
-0.0196773
-0.00137777
-0.0189993
-0.00135701
-0.0183321
-0.00133562
-0.0176758
-0.0013136
-0.0170308
-0.00129105
-0.0163973
-0.00126804
-0.0157756
-0.0012444
-0.015166
-0.00122026
-0.0145687
-0.00119563
-0.013984
-0.00117053
-0.013412
-0.00114493
-0.0128531
-0.0011188
-0.0123076
-0.0010922
-0.0117755
-0.00106521
-0.011257
-0.00103791
-0.0107523
-0.00101032
-0.0102617
-0.000982292
-0.00978507
-0.000954142
-0.0093226
-0.00092589
-0.00887427
-0.000897572
-0.00844002
-0.000869412
-0.00801984
-0.00084124
-0.00761366
-0.000813235
-0.00722132
-0.000785529
-0.00684267
-0.000758117
-0.00647752
-0.000731115
-0.00612568
-0.000704456
-0.00578696
-0.000678179
-0.00546116
-0.000652327
-0.00514807
-0.000626897
-0.00484746
-0.000601883
-0.00455916
-0.000577256
-0.00428298
-0.000553013
-0.00401871
-0.000529145
-0.00376619
-0.000505633
-0.00352522
-0.000482504
-0.00329561
-0.000459771
-0.00307714
-0.000437456
-0.00286958
-0.000415634
-0.00267266
-0.000394319
-0.0024861
-0.00037358
-0.00230958
-0.000353487
-0.00214275
-0.000334078
-0.00198525
-0.000315393
-0.00183672
-0.000297441
-0.00169679
-0.000280216
-0.00156511
-0.000263687
-0.00144136
-0.000247817
-0.00132523
-0.000232558
-0.00121644
-0.000217862
-0.00111472
-0.000203694
-0.00101982
-0.000190043
-0.000931478
-0.000176915
-0.00084941
-0.000164353
-0.000773318
-0.000152387
-0.000702876
-0.000141071
-0.000637751
-0.000130424
-0.000577605
-0.000120451
-0.000522118
-0.000111121
-0.000470997
-0.000102376
-0.000423987
-9.41418e-05
-0.00038087
-8.63486e-05
-0.00034144
-7.89627e-05
-0.000305501
-7.19737e-05
-0.000272843
-6.54045e-05
-0.000243235
-5.92957e-05
-0.000216432
-5.3677e-05
-0.000192188
-4.85521e-05
-0.000170274
-4.38859e-05
-0.000150495
-3.96085e-05
-0.000132689
-3.56567e-05
-0.00011673
-3.19595e-05
-0.000102494
-2.85083e-05
-8.98552e-05
-2.53103e-05
-7.86692e-05
-2.24008e-05
-6.87817e-05
-1.98003e-05
-6.00399e-05
-1.75053e-05
-5.23138e-05
-1.54708e-05
-4.54973e-05
-1.36483e-05
-3.9514e-05
-1.19812e-05
-3.42969e-05
-1.04466e-05
-2.97724e-05
-9.05862e-06
-2.59047e-05
-7.74491e-06
-2.25863e-05
-6.64277e-06
-1.97906e-05
-5.5981e-06
-1.73739e-05
-4.83579e-06
-1.53632e-05
-4.02595e-06
-1.36003e-05
-3.52521e-06
-1.21557e-05
-2.89159e-06
-1.0823e-05
-2.6617e-06
-9.66947e-06
-2.30594e-06
-8.41343e-06
-2.50467e-06
-7.09297e-06
-2.6321e-06
-5.20965e-06
-3.75689e-06
-2.6139e-06
-5.16753e-06
1.5901e-06
-8.3839e-06
7.95023e-06
-1.26942e-05
1.73806e-05
-1.88213e-05
2.9102e-05
-2.34078e-05
4.2376e-05
-2.65226e-05
-2.99729e-07
4.25617e-05
-0.044764
-0.00219602
-0.044025
-0.0022167
-0.0432793
-0.00223643
-0.0425274
-0.0022551
-0.0417697
-0.00227263
-0.0410066
-0.00228888
-0.0402385
-0.00230377
-0.039466
-0.00231723
-0.0386895
-0.0023292
-0.0379095
-0.00233966
-0.0371266
-0.00234854
-0.0363413
-0.0023558
-0.0355542
-0.00236142
-0.0347658
-0.00236537
-0.0339767
-0.00236762
-0.0331875
-0.00236818
-0.0323986
-0.00236699
-0.0316109
-0.00236397
-0.0308248
-0.00235911
-0.0300408
-0.00235238
-0.0292598
-0.00234359
-0.0284825
-0.00233276
-0.0277095
-0.0023201
-0.0269412
-0.00230563
-0.0261785
-0.00228883
-0.0254222
-0.00227024
-0.0246726
-0.00224987
-0.0239304
-0.00222793
-0.0231961
-0.00220443
-0.0224701
-0.00217944
-0.0217529
-0.00215291
-0.0210451
-0.00212507
-0.020347
-0.00209599
-0.0196589
-0.00206584
-0.0189813
-0.00203466
-0.0183143
-0.00200254
-0.0176584
-0.00196953
-0.0170137
-0.00193574
-0.0163806
-0.00190121
-0.0157593
-0.0018657
-0.01515
-0.00182948
-0.0145531
-0.00179257
-0.0139687
-0.0017549
-0.0133971
-0.0017165
-0.0128386
-0.0016773
-0.0122934
-0.00163739
-0.0117618
-0.0015969
-0.0112437
-0.00155597
-0.0107394
-0.00151459
-0.0102492
-0.00147253
-0.00977301
-0.00143031
-0.00931096
-0.00138794
-0.00886307
-0.00134546
-0.00842924
-0.00130325
-0.00800949
-0.00126099
-0.00760373
-0.00121899
-0.0072118
-0.00117745
-0.00683357
-0.00113635
-0.00646881
-0.00109587
-0.00611736
-0.00105591
-0.00577903
-0.00101651
-0.0054536
-0.000977754
-0.00514087
-0.000939633
-0.00484061
-0.000902138
-0.00455265
-0.00086522
-0.00427679
-0.000828877
-0.00401283
-0.000793097
-0.00376062
-0.000757846
-0.00351995
-0.000723173
-0.00329063
-0.000689092
-0.00307245
-0.000655637
-0.00286516
-0.000622924
-0.00266851
-0.000590969
-0.00248221
-0.00055988
-0.00230594
-0.00052976
-0.00213935
-0.000500668
-0.00198208
-0.000472664
-0.00183376
-0.00044576
-0.00169403
-0.000419945
-0.00156254
-0.000395176
-0.00143896
-0.000371393
-0.001323
-0.000348524
-0.00121436
-0.000326497
-0.00111279
-0.000305263
-0.00101804
-0.000284801
-0.000929827
-0.000265123
-0.000847885
-0.000246295
-0.000771912
-0.00022836
-0.000701582
-0.000211401
-0.000636561
-0.000195445
-0.00057651
-0.000180501
-0.000521108
-0.000166523
-0.000470065
-0.00015342
-0.000423125
-0.000141081
-0.000380072
-0.000129402
-0.000340702
-0.000118332
-0.000304819
-0.000107857
-0.000272212
-9.80116e-05
-0.000242651
-8.88567e-05
-0.00021589
-8.04374e-05
-0.000191683
-7.27589e-05
-0.000169801
-6.5768e-05
-0.000150051
-5.93593e-05
-0.00013227
-5.34378e-05
-0.000116332
-4.7897e-05
-0.000102116
-4.27246e-05
-8.94946e-05
-3.79315e-05
-7.8324e-05
-3.35715e-05
-6.84493e-05
-2.96749e-05
-5.9718e-05
-2.62366e-05
-5.20001e-05
-2.31888e-05
-4.51911e-05
-2.04573e-05
-3.92116e-05
-1.79606e-05
-3.39982e-05
-1.566e-05
-2.9477e-05
-1.35798e-05
-2.56105e-05
-1.16114e-05
-2.22941e-05
-9.95924e-06
-1.94973e-05
-8.39491e-06
-1.7081e-05
-7.25207e-06
-1.5067e-05
-6.0399e-06
-1.33035e-05
-5.28872e-06
-1.18544e-05
-4.34066e-06
-1.05208e-05
-3.99529e-06
-9.3634e-06
-3.46339e-06
-8.10777e-06
-3.7603e-06
-6.78854e-06
-3.95133e-06
-4.90579e-06
-5.63964e-06
-2.32366e-06
-7.74966e-06
1.86767e-06
-1.25752e-05
8.21193e-06
-1.90384e-05
1.76079e-05
-2.82173e-05
2.92908e-05
-3.50908e-05
4.25156e-05
-3.97474e-05
-3.97973e-07
4.26139e-05
-0.0447537
-0.00292876
-0.0440141
-0.00295635
-0.0432679
-0.00298266
-0.0425154
-0.00300754
-0.0417572
-0.00303087
-0.0409936
-0.00305249
-0.0402251
-0.0030723
-0.0394521
-0.0030902
-0.0386752
-0.00310612
-0.0378948
-0.00312003
-0.0371115
-0.00313183
-0.0363258
-0.00314146
-0.0355384
-0.00314891
-0.0347496
-0.0031541
-0.0339601
-0.00315713
-0.0331704
-0.0031579
-0.0323811
-0.00315628
-0.0315929
-0.00315221
-0.0308063
-0.00314563
-0.0300222
-0.00313656
-0.0292409
-0.00312483
-0.0284633
-0.00311041
-0.0276899
-0.00309341
-0.0269219
-0.0030737
-0.0261594
-0.00305136
-0.025403
-0.00302655
-0.0246535
-0.00299945
-0.0239113
-0.00297011
-0.023177
-0.0029387
-0.0224512
-0.00290528
-0.0217342
-0.00286984
-0.0210266
-0.00283275
-0.0203286
-0.00279391
-0.0196408
-0.00275365
-0.0189634
-0.00271206
-0.0182967
-0.00266925
-0.017641
-0.00262521
-0.0169967
-0.00258005
-0.0163639
-0.00253405
-0.0157429
-0.00248667
-0.015134
-0.00243838
-0.0145374
-0.00238915
-0.0139534
-0.00233895
-0.0133821
-0.00228775
-0.012824
-0.00223544
-0.0122792
-0.00218221
-0.0117479
-0.00212822
-0.0112302
-0.00207364
-0.0107263
-0.0020185
-0.0102365
-0.00196235
-0.00976071
-0.00190607
-0.00929908
-0.00184957
-0.00885164
-0.0017929
-0.0084182
-0.00173668
-0.00799888
-0.00168032
-0.00759356
-0.00162431
-0.00720206
-0.00156895
-0.00682425
-0.00151416
-0.0064599
-0.00146022
-0.00610886
-0.00140695
-0.00577092
-0.00135445
-0.00544588
-0.0013028
-0.00513351
-0.001252
-0.00483361
-0.00120203
-0.004546
-0.00115284
-0.00427047
-0.0011044
-0.00400685
-0.00105672
-0.00375495
-0.00100974
-0.00351459
-0.000963532
-0.00328558
-0.00091811
-0.00306769
-0.000873519
-0.00286069
-0.000829924
-0.00266433
-0.000787335
-0.0024783
-0.000745903
-0.0023023
-0.000705766
-0.00213596
-0.000667002
-0.00197894
-0.000629691
-0.00183085
-0.000593847
-0.00169134
-0.000559456
-0.00156006
-0.000526458
-0.00143667
-0.000494775
-0.00132089
-0.000464309
-0.00121242
-0.000434965
-0.00111101
-0.000406672
-0.00101641
-0.000379407
-0.000928343
-0.000353186
-0.000846541
-0.000328097
-0.0007707
-0.000304201
-0.000700494
-0.000281607
-0.000635588
-0.000260351
-0.000575642
-0.000240447
-0.000520337
-0.000221829
-0.00046938
-0.000204377
-0.000422519
-0.000187942
-0.000379538
-0.000172383
-0.000340236
-0.000157635
-0.000304415
-0.000143678
-0.000271868
-0.000130559
-0.000242362
-0.000118362
-0.000215652
-0.000107147
-0.00019149
-9.69207e-05
-0.000169647
-8.76108e-05
-0.000149931
-7.90756e-05
-0.000132181
-7.11882e-05
-0.000116272
-6.38062e-05
-0.000102082
-5.69142e-05
-8.94857e-05
-5.05277e-05
-7.83381e-05
-4.4719e-05
-6.84842e-05
-3.95289e-05
-5.97711e-05
-3.49497e-05
-5.20693e-05
-3.08906e-05
-4.52737e-05
-2.72529e-05
-3.93088e-05
-2.39254e-05
-3.4108e-05
-2.08609e-05
-2.95991e-05
-1.80887e-05
-2.57448e-05
-1.54657e-05
-2.24394e-05
-1.32646e-05
-1.96544e-05
-1.118e-05
-1.72482e-05
-9.65823e-06
-1.5246e-05
-8.04214e-06
-1.34922e-05
-7.04247e-06
-1.20551e-05
-5.77777e-06
-1.07308e-05
-5.31958e-06
-9.5838e-06
-4.61044e-06
-8.3348e-06
-5.0093e-06
-7.01956e-06
-5.26657e-06
-5.13979e-06
-7.51941e-06
-2.54759e-06
-1.03419e-05
1.65607e-06
-1.67789e-05
8.02064e-06
-2.5403e-05
1.74536e-05
-3.76503e-05
2.91778e-05
-4.6815e-05
4.24357e-05
-5.30053e-05
-5.45467e-07
4.25832e-05
-0.0447463
-0.00366208
-0.0440061
-0.00369659
-0.0432593
-0.00372949
-0.0425062
-0.00376059
-0.0417473
-0.00378974
-0.0409831
-0.00381675
-0.0402139
-0.00384147
-0.0394403
-0.00386381
-0.0386628
-0.00388366
-0.0378818
-0.00390098
-0.037098
-0.00391567
-0.0363118
-0.00392766
-0.0355238
-0.0039369
-0.0347345
-0.00394335
-0.0339446
-0.00394706
-0.0331546
-0.00394792
-0.032365
-0.00394585
-0.0315765
-0.00394072
-0.0307897
-0.00393243
-0.0300052
-0.00392105
-0.0292237
-0.00390631
-0.028446
-0.00388816
-0.0276725
-0.00386686
-0.0269042
-0.00384199
-0.0261413
-0.00381427
-0.0253847
-0.00378323
-0.0246348
-0.00374932
-0.0238923
-0.00371262
-0.0231578
-0.00367318
-0.0224319
-0.00363117
-0.021715
-0.00358672
-0.0210076
-0.00354012
-0.02031
-0.00349155
-0.0196224
-0.00344123
-0.0189453
-0.00338918
-0.0182789
-0.00333566
-0.0176234
-0.00328071
-0.0169792
-0.00322427
-0.0163467
-0.00316653
-0.0157261
-0.00310726
-0.0151175
-0.00304703
-0.0145211
-0.00298545
-0.0139374
-0.00292266
-0.0133666
-0.0028586
-0.0128088
-0.0027932
-0.0122644
-0.00272668
-0.0117334
-0.00265921
-0.011216
-0.00259096
-0.0107125
-0.00252204
-0.0102231
-0.0024517
-0.0097478
-0.0023814
-0.00928657
-0.0023108
-0.00883958
-0.00223989
-0.00840654
-0.00216973
-0.00798766
-0.00209919
-0.0075828
-0.00202917
-0.00719175
-0.00196001
-0.00681438
-0.00189152
-0.00645045
-0.00182415
-0.00609981
-0.00175759
-0.00576229
-0.00169197
-0.00543764
-0.00162744
-0.00512567
-0.00156397
-0.00482615
-0.00150156
-0.00453889
-0.00144009
-0.00426371
-0.00137958
-0.00400042
-0.00132001
-0.00374886
-0.00126131
-0.00350882
-0.00120357
-0.00328012
-0.00114681
-0.00306254
-0.00109109
-0.00285585
-0.00103662
-0.00265978
-0.000983404
-0.00247404
-0.000931636
-0.00229832
-0.00088149
-0.00213226
-0.000833063
-0.00197549
-0.000786457
-0.00182765
-0.000741687
-0.00168837
-0.000698736
-0.0015573
-0.000657527
-0.00143412
-0.000617959
-0.00131852
-0.000579909
-0.00121023
-0.000543256
-0.00110898
-0.000507916
-0.00101454
-0.000473856
-0.000926624
-0.000441098
-0.000844966
-0.000409756
-0.000769263
-0.000379904
-0.000699188
-0.000351682
-0.000634404
-0.000325135
-0.00057457
-0.000300281
-0.000519364
-0.000277035
-0.000468496
-0.000255245
-0.000421715
-0.000234722
-0.000378807
-0.000215291
-0.000339572
-0.00019687
-0.000303815
-0.000179434
-0.000271327
-0.000163047
-0.000241876
-0.000147813
-0.000215216
-0.000133807
-0.000191098
-0.000121039
-0.000169293
-0.000109416
-0.000149608
-9.87601e-05
-0.000131885
-8.89114e-05
-0.000116
-7.96916e-05
-0.000101831
-7.10825e-05
-8.92544e-05
-6.31047e-05
-7.81238e-05
-5.58496e-05
-6.8284e-05
-4.93686e-05
-5.9582e-05
-4.36517e-05
-5.18884e-05
-3.85842e-05
-4.50992e-05
-3.40421e-05
-3.91375e-05
-2.98871e-05
-3.39391e-05
-2.60593e-05
-2.94318e-05
-2.25959e-05
-2.55773e-05
-1.93203e-05
-2.22716e-05
-1.65704e-05
-1.94835e-05
-1.39681e-05
-1.70743e-05
-1.20673e-05
-1.50661e-05
-1.00504e-05
-1.33073e-05
-8.80124e-06
-1.18624e-05
-7.22273e-06
-1.05321e-05
-6.64979e-06
-9.37773e-06
-5.76485e-06
-8.12482e-06
-6.26222e-06
-6.80785e-06
-6.58354e-06
-4.92649e-06
-9.40076e-06
-2.34302e-06
-1.29253e-05
1.85326e-06
-2.09752e-05
8.20744e-06
-3.17572e-05
1.76182e-05
-4.7061e-05
2.93186e-05
-5.85153e-05
4.25483e-05
-6.62351e-05
-6.31116e-07
4.2634e-05
-0.0447419
-0.00439603
-0.044001
-0.00443749
-0.0432535
-0.00447701
-0.0424998
-0.00451435
-0.0417402
-0.00454934
-0.0409752
-0.00458173
-0.0402053
-0.00461137
-0.039431
-0.00463812
-0.0386528
-0.00466185
-0.0378712
-0.00468255
-0.0370868
-0.0047001
-0.0363
-0.00471442
-0.0355114
-0.0047255
-0.0347215
-0.00473328
-0.0339309
-0.00473769
-0.0331402
-0.00473862
-0.03235
-0.004736
-0.031561
-0.00472977
-0.0307736
-0.00471978
-0.0299887
-0.00470594
-0.0292068
-0.00468823
-0.0284285
-0.00466645
-0.0276548
-0.00464059
-0.026886
-0.00461078
-0.026123
-0.00457726
-0.0253662
-0.00453997
-0.0246164
-0.00449914
-0.0238741
-0.00445491
-0.0231398
-0.0044075
-0.0224141
-0.00435684
-0.0216974
-0.00430342
-0.0209901
-0.0042475
-0.0202923
-0.00418927
-0.0196047
-0.00412882
-0.0189276
-0.00406636
-0.0182612
-0.00400207
-0.0176058
-0.00393605
-0.016962
-0.00386807
-0.0163297
-0.00379883
-0.0157092
-0.00372781
-0.0151007
-0.00365548
-0.0145046
-0.0035816
-0.0139211
-0.00350615
-0.0133505
-0.00342917
-0.0127931
-0.00335065
-0.0122489
-0.00327084
-0.0117183
-0.00318983
-0.0112015
-0.00310779
-0.0106983
-0.00302519
-0.0102094
-0.00294068
-0.00973442
-0.00285634
-0.00927364
-0.00277157
-0.00882705
-0.00268649
-0.00839431
-0.00260247
-0.00797598
-0.00251752
-0.00757162
-0.00243354
-0.00718099
-0.00235063
-0.00680408
-0.00226844
-0.00644058
-0.00218765
-0.00609039
-0.00210777
-0.0057533
-0.00202906
-0.00542908
-0.00195166
-0.0051175
-0.00187556
-0.00481835
-0.0018007
-0.00453147
-0.00172698
-0.00425665
-0.0016544
-0.00399371
-0.00158296
-0.00374249
-0.00151253
-0.00350278
-0.00144328
-0.0032744
-0.00137519
-0.00305716
-0.00130833
-0.00285077
-0.00124301
-0.00265501
-0.00117916
-0.00246959
-0.00111706
-0.00229417
-0.00105691
-0.0021284
-0.000998835
-0.00197191
-0.000942946
-0.00182433
-0.000889266
-0.00168529
-0.000837771
-0.00155445
-0.000788365
-0.00143149
-0.000740928
-0.00131609
-0.000695308
-0.00120798
-0.000651362
-0.00110691
-0.000608982
-0.00101264
-0.000568135
-0.000924888
-0.000528846
-0.000843388
-0.000491255
-0.000767838
-0.000455454
-0.000697906
-0.000421614
-0.000633255
-0.000389787
-0.000573542
-0.000359993
-0.000518447
-0.000332131
-0.000467677
-0.000306014
-0.000420985
-0.000281415
-0.000378157
-0.000258119
-0.000338997
-0.000236029
-0.000303312
-0.00021512
-0.000270892
-0.000195467
-0.000241505
-0.000177199
-0.000214904
-0.000160409
-0.000190838
-0.000145105
-0.000169077
-0.000131177
-0.000149431
-0.000118406
-0.000131742
-0.000106601
-0.000115887
-9.55458e-05
-0.000101749
-8.52212e-05
-8.92e-05
-7.56534e-05
-7.80958e-05
-6.69539e-05
-6.82796e-05
-5.91847e-05
-5.9598e-05
-5.23333e-05
-5.1922e-05
-4.62602e-05
-4.51476e-05
-4.08165e-05
-3.92007e-05
-3.58339e-05
-3.40155e-05
-3.12445e-05
-2.95208e-05
-2.70906e-05
-2.56788e-05
-2.31622e-05
-2.23845e-05
-1.98646e-05
-1.96082e-05
-1.67444e-05
-1.72093e-05
-1.44663e-05
-1.52126e-05
-1.20471e-05
-1.34636e-05
-1.05502e-05
-1.20301e-05
-8.65616e-06
-1.0709e-05
-7.97097e-06
-9.56357e-06
-6.91025e-06
-8.31573e-06
-7.51005e-06
-6.99995e-06
-7.89932e-06
-5.11858e-06
-1.12821e-05
-2.52358e-06
-1.55203e-05
1.68621e-06
-2.5185e-05
8.06182e-06
-3.81328e-05
1.75042e-05
-5.65034e-05
2.92422e-05
-7.02534e-05
4.24934e-05
-7.94863e-05
-7.51055e-07
4.26134e-05
-0.0447398
-0.00513073
-0.0439981
-0.00517917
-0.0432498
-0.00522533
-0.0424953
-0.00526893
-0.0417348
-0.00530975
-0.040969
-0.00534754
-0.0401983
-0.00538209
-0.0394232
-0.00541325
-0.0386442
-0.00544088
-0.0378617
-0.00546497
-0.0370765
-0.00548537
-0.0362889
-0.00550199
-0.0354996
-0.00551482
-0.0347091
-0.0055238
-0.0339179
-0.00552884
-0.0331267
-0.0055298
-0.0323362
-0.00552658
-0.0315468
-0.00551916
-0.0307591
-0.00550745
-0.0299738
-0.00549128
-0.0291913
-0.00547071
-0.0284124
-0.00544533
-0.0276381
-0.00541493
-0.0268688
-0.00538004
-0.0261053
-0.00534073
-0.0253484
-0.00529695
-0.0245983
-0.0052492
-0.0238557
-0.00519748
-0.0231213
-0.0051419
-0.0223953
-0.00508284
-0.0216785
-0.00502024
-0.0209712
-0.00495482
-0.0202738
-0.00488671
-0.0195865
-0.00481611
-0.0189096
-0.00474329
-0.0182434
-0.00466821
-0.0175884
-0.00459106
-0.0169445
-0.00451194
-0.0163126
-0.00443072
-0.0156922
-0.00434824
-0.0150841
-0.00426362
-0.0144883
-0.00417734
-0.0139052
-0.00408923
-0.013335
-0.00399943
-0.0127777
-0.00390797
-0.0122336
-0.00381486
-0.011703
-0.00372042
-0.0111862
-0.00362466
-0.0106839
-0.00352749
-0.010195
-0.00342957
-0.00972038
-0.00333095
-0.00925985
-0.00323209
-0.00881374
-0.0031326
-0.0083816
-0.0030346
-0.00796383
-0.0029353
-0.00755985
-0.00283751
-0.00716973
-0.00274075
-0.00679318
-0.00264499
-0.00643013
-0.0025507
-0.00608041
-0.00245749
-0.0057438
-0.00236568
-0.00541997
-0.00227549
-0.0051088
-0.00218672
-0.00481007
-0.00209944
-0.00452358
-0.00201347
-0.00424914
-0.00192884
-0.00398655
-0.00184555
-0.00373569
-0.00176339
-0.00349632
-0.00168264
-0.00326828
-0.00160324
-0.00305138
-0.00152523
-0.00284532
-0.00144907
-0.0026499
-0.00137459
-0.0024648
-0.00130216
-0.00228969
-0.00123202
-0.00212422
-0.0011643
-0.00196803
-0.00109914
-0.00182073
-0.00103657
-0.00168196
-0.000976542
-0.00155136
-0.000918959
-0.00142862
-0.000863672
-0.00131343
-0.0008105
-0.00120551
-0.000759272
-0.00110463
-0.000709865
-0.00101053
-0.000662238
-0.000922951
-0.000616424
-0.000841616
-0.000572591
-0.000766223
-0.000530846
-0.000696442
-0.000491395
-0.000631933
-0.000454297
-0.00057235
-0.000419576
-0.000517368
-0.000387113
-0.0004667
-0.000356683
-0.000420097
-0.000328017
-0.000377351
-0.000300865
-0.000338268
-0.000275112
-0.000302655
-0.000250733
-0.000270304
-0.000227818
-0.000240983
-0.000206521
-0.00021444
-0.000186952
-0.000190425
-0.00016912
-0.000168708
-0.000152894
-0.000149099
-0.000138015
-0.000131441
-0.000124259
-0.000115614
-0.000111373
-0.0001015
-9.9335e-05
-8.89741e-05
-8.81794e-05
-7.78902e-05
-7.80377e-05
-6.80914e-05
-6.89836e-05
-5.94235e-05
-6.10012e-05
-5.17577e-05
-5.3926e-05
-4.49911e-05
-4.75831e-05
-3.90491e-05
-4.17759e-05
-3.38676e-05
-3.6426e-05
-2.93758e-05
-3.15824e-05
-2.55351e-05
-2.7003e-05
-2.22416e-05
-2.31581e-05
-1.94636e-05
-1.95223e-05
-1.70627e-05
-1.68672e-05
-1.50611e-05
-1.40486e-05
-1.33079e-05
-1.23034e-05
-1.1868e-05
-1.00961e-05
-1.05421e-05
-9.29687e-06
-9.39171e-06
-8.06065e-06
-8.1427e-06
-8.75906e-06
-6.82929e-06
-9.21274e-06
-4.95102e-06
-1.31604e-05
-2.36773e-06
-1.81036e-05
1.8317e-06
-2.93844e-05
8.19544e-06
-4.44965e-05
1.76212e-05
-6.59292e-05
2.93436e-05
-8.19758e-05
4.25823e-05
-9.27249e-05
-8.26064e-07
4.26573e-05
-0.044741
-0.00586623
-0.0439985
-0.0059217
-0.0432493
-0.00597453
-0.0424938
-0.00602444
-0.0417324
-0.00607109
-0.0409657
-0.00611427
-0.040194
-0.00615374
-0.039418
-0.0061893
-0.0386381
-0.00622079
-0.0378548
-0.00624824
-0.0370687
-0.00627148
-0.0362803
-0.00629037
-0.0354902
-0.00630493
-0.0346989
-0.00631508
-0.033907
-0.00632071
-0.0331151
-0.00632175
-0.0323236
-0.00631809
-0.0315331
-0.0063096
-0.0307445
-0.00629612
-0.0299581
-0.0062776
-0.029175
-0.00625384
-0.0283958
-0.00622453
-0.0276211
-0.00618968
-0.0268516
-0.00614955
-0.0260879
-0.00610442
-0.0253306
-0.00605423
-0.0245802
-0.00599954
-0.0238374
-0.00594035
-0.0231027
-0.00587659
-0.0223768
-0.00580874
-0.0216598
-0.00573723
-0.0209523
-0.00566232
-0.0202546
-0.00558436
-0.0195672
-0.00550352
-0.0188904
-0.00542009
-0.0182245
-0.00533412
-0.0175698
-0.00524574
-0.0169265
-0.00515524
-0.016295
-0.00506222
-0.0156751
-0.00496819
-0.015067
-0.00487166
-0.0144714
-0.00477299
-0.0138883
-0.00467233
-0.0133182
-0.00456954
-0.0127612
-0.00446494
-0.0122176
-0.00435849
-0.0116877
-0.00425033
-0.0111715
-0.00414083
-0.0106695
-0.00402944
-0.0101809
-0.00391824
-0.00970647
-0.00380534
-0.00924642
-0.00369215
-0.0088
-0.00357903
-0.00836891
-0.00346569
-0.00795129
-0.00335293
-0.00754756
-0.00324123
-0.0071578
-0.00313051
-0.00678176
-0.00302103
-0.00641935
-0.00291312
-0.00607005
-0.00280679
-0.00573394
-0.00270179
-0.00541051
-0.00259893
-0.00509979
-0.00249744
-0.00480145
-0.00239777
-0.00451536
-0.00229957
-0.00424131
-0.00220289
-0.00397911
-0.00210774
-0.00372862
-0.00201387
-0.0034896
-0.00192167
-0.00326191
-0.00183092
-0.00304537
-0.00174177
-0.00283965
-0.0016548
-0.00264457
-0.00156967
-0.00245981
-0.00148692
-0.00228504
-0.00140679
-0.0021199
-0.00132944
-0.00196401
-0.00125503
-0.001817
-0.00118357
-0.0016785
-0.00111504
-0.00154816
-0.0010493
-0.00142565
-0.000986181
-0.00131068
-0.000925473
-0.00120297
-0.000866978
-0.00110229
-0.000810554
-0.00100837
-0.000756155
-0.000920972
-0.00070382
-0.000839813
-0.00065375
-0.000764592
-0.000606067
-0.000694974
-0.000561013
-0.000630615
-0.000518655
-0.00057117
-0.000479021
-0.000516313
-0.00044197
-0.000465754
-0.000407241
-0.00041925
-0.000374522
-0.000376593
-0.000343522
-0.000337593
-0.000314112
-0.000302059
-0.000286266
-0.000269785
-0.000260093
-0.000240536
-0.00023577
-0.00021406
-0.000213428
-0.000190104
-0.000193076
-0.000168437
-0.00017456
-0.00014887
-0.000157582
-0.000131249
-0.00014188
-0.000115456
-0.000127166
-0.000101374
-0.000113417
-8.88796e-05
-0.000100674
-7.78252e-05
-8.90921e-05
-6.80528e-05
-7.8756e-05
-5.94074e-05
-6.96466e-05
-5.17606e-05
-6.15728e-05
-4.50097e-05
-5.4334e-05
-3.90828e-05
-4.77028e-05
-3.39148e-05
-4.15941e-05
-2.94359e-05
-3.60613e-05
-2.56078e-05
-3.08311e-05
-2.2326e-05
-2.64399e-05
-1.95599e-05
-2.22884e-05
-1.71692e-05
-1.9258e-05
-1.51788e-05
-1.6039e-05
-1.34351e-05
-1.40471e-05
-1.20062e-05
-1.1525e-05
-1.06889e-05
-1.06142e-05
-9.54631e-06
-9.20328e-06
-8.30107e-06
-1.00043e-05
-6.98692e-06
-1.05269e-05
-5.10684e-06
-1.50405e-05
-2.51218e-06
-2.06983e-05
1.70055e-06
-3.35971e-05
8.08487e-06
-5.08808e-05
1.75379e-05
-7.53822e-05
2.92953e-05
-9.37332e-05
4.2548e-05
-0.000105978
-9.2205e-07
4.2644e-05
-0.0447451
-0.00660259
-0.0440016
-0.00666515
-0.0432514
-0.0067247
-0.0424949
-0.00678092
-0.0417326
-0.00683344
-0.0409648
-0.00688204
-0.0401921
-0.00692645
-0.039415
-0.00696636
-0.0386341
-0.00700172
-0.0378498
-0.00703252
-0.0370628
-0.00705856
-0.0362734
-0.00707969
-0.0354824
-0.00709597
-0.0346902
-0.00710728
-0.0338974
-0.00711352
-0.0331046
-0.00711459
-0.0323123
-0.00711036
-0.0315212
-0.00710069
-0.0307318
-0.00708547
-0.0299449
-0.00706459
-0.029161
-0.00703774
-0.028381
-0.00700453
-0.0276055
-0.00696514
-0.0268352
-0.00691988
-0.0260707
-0.00686888
-0.0253127
-0.00681221
-0.024562
-0.00675032
-0.023819
-0.00668333
-0.0230841
-0.00661142
-0.022358
-0.00653487
-0.0216409
-0.00645437
-0.0209333
-0.00636985
-0.0202358
-0.00628193
-0.0195484
-0.00619085
-0.0188717
-0.0060968
-0.0182059
-0.0059999
-0.0175513
-0.00590039
-0.016908
-0.00579856
-0.0162759
-0.00569426
-0.0156561
-0.00558802
-0.0150484
-0.00547934
-0.0144531
-0.00536832
-0.0138704
-0.00525497
-0.0133008
-0.0051392
-0.0127442
-0.00502154
-0.0122007
-0.00490193
-0.0116708
-0.00478023
-0.0111549
-0.00465678
-0.0106527
-0.00453168
-0.0101648
-0.00440611
-0.00969097
-0.00427916
-0.0092315
-0.00415162
-0.00878616
-0.00402436
-0.00835573
-0.00389612
-0.00793847
-0.00377019
-0.00753527
-0.00364443
-0.00714608
-0.00351971
-0.00677023
-0.00339688
-0.0064084
-0.00327495
-0.00605949
-0.0031557
-0.00572377
-0.0030375
-0.00540073
-0.00292197
-0.00509045
-0.00280772
-0.00479251
-0.00269572
-0.00450676
-0.00258532
-0.004233
-0.00247665
-0.00397121
-0.00236954
-0.00372107
-0.00226401
-0.00348241
-0.00216033
-0.00325514
-0.00205819
-0.00303896
-0.00195795
-0.00283357
-0.00186018
-0.00263887
-0.00176437
-0.00245446
-0.00167133
-0.00228004
-0.00158121
-0.00211524
-0.00149424
-0.00195968
-0.00141058
-0.00181299
-0.00133027
-0.00167478
-0.00125325
-0.00154472
-0.00117937
-0.00142246
-0.00110844
-0.00130772
-0.00104022
-0.00120022
-0.00097447
-0.00109974
-0.000911041
-0.00100601
-0.000849877
-0.000918808
-0.000791027
-0.000837835
-0.000734724
-0.000762793
-0.000681109
-0.000693345
-0.00063046
-0.000629148
-0.000582853
-0.000569849
-0.000538319
-0.000515122
-0.000496697
-0.000464677
-0.000457686
-0.000418273
-0.000420927
-0.000375707
-0.000386087
-0.000336793
-0.000353027
-0.000301341
-0.000321718
-0.000269145
-0.000292289
-0.00023997
-0.000264945
-0.000213562
-0.000239836
-0.000189665
-0.000216973
-0.000168048
-0.000196177
-0.000148523
-0.000177107
-0.000130937
-0.000159466
-0.000115175
-0.000142928
-0.000101122
-0.00012747
-8.86538e-05
-0.000113142
-7.76234e-05
-0.000100122
-6.78716e-05
-8.85078e-05
-5.92426e-05
-7.82757e-05
-5.16082e-05
-6.92072e-05
-4.48666e-05
-6.10755e-05
-3.89462e-05
-5.36232e-05
-3.37833e-05
-4.67571e-05
-2.93086e-05
-4.05359e-05
-2.54832e-05
-3.46565e-05
-2.22036e-05
-2.97196e-05
-1.94372e-05
-2.50548e-05
-1.70454e-05
-2.16497e-05
-1.50515e-05
-1.8033e-05
-1.33045e-05
-1.57941e-05
-1.18705e-05
-1.2959e-05
-1.05498e-05
-1.19349e-05
-9.40429e-06
-1.03488e-05
-8.16041e-06
-1.12482e-05
-6.85163e-06
-1.18357e-05
-4.97825e-06
-1.69139e-05
-2.39722e-06
-2.32793e-05
1.80343e-06
-3.77978e-05
8.17598e-06