/*--------------------------------*- C++ -*----------------------------------*\
| =========                 |                                                 |
| \\      /  F ield         | OpenFOAM: The Open Source CFD Toolbox           |
|  \\    /   O peration     | Version:  v1912                                 |
|   \\  /    A nd           | Website:  www.openfoam.com                      |
|    \\/     M anipulation  |                                                 |
\*---------------------------------------------------------------------------*/
FoamFile
{
    version     2.0;
    format      ascii;
    class       surfaceScalarField;
    location    "50";
    object      alphaPhi0.water;
}
// * * * * * * * * * * * * * * * * * * * * * * * * * * * * * * * * * * * * * //

dimensions      [0 3 -1 0 0 0 0];
oriented        oriented;


internalField   nonuniform List<scalar> 
28285
(
4.36179e-08
-7.82708e-10
4.77752e-08
-1.56209e-09
5.31452e-08
-2.77451e-09
6.02331e-08
-4.60101e-09
7.0353e-08
-6.29411e-09
8.54386e-08
-5.77613e-09
9.27693e-08
-3.37221e-09
9.77489e-08
-1.06774e-09
9.19365e-08
6.16984e-10
4.61316e-08
5.21242e-10
1.48962e-09
1.72167e-09
0
5.501e-12
8.41326e-34
7.53637e-35
-9.98877e-31
-6.18078e-32
-1.55332e-31
-8.61311e-33
-3.7349e-32
-1.96875e-33
-1.4447e-32
-7.32194e-34
-5.56677e-33
-2.70374e-34
-1.9738e-33
-9.19065e-35
-6.5368e-34
-2.93244e-35
-2.03875e-34
-8.86354e-36
-5.97682e-35
-2.53149e-36
-1.64016e-35
-6.79726e-37
-4.20426e-36
-1.71084e-37
-1.00716e-36
-4.03588e-38
-2.26022e-37
-8.93994e-39
-4.76803e-38
-1.86519e-39
-9.49267e-39
-3.67866e-40
-1.79092e-39
-6.88503e-41
-3.21439e-40
-1.2274e-41
-5.5072e-41
-2.09092e-42
-9.03002e-42
-3.41206e-43
-1.41916e-42
-5.34119e-44
-2.13857e-43
-8.02289e-45
-3.08809e-44
-1.15554e-45
-4.26696e-45
-1.59353e-46
-5.63122e-46
-2.10004e-47
-7.08396e-47
-2.63937e-48
-8.47843e-48
-3.15743e-49
-9.63831e-49
-3.58915e-50
-1.03931e-49
-3.87145e-51
-1.06192e-50
-3.95825e-52
-1.02735e-51
-3.83319e-53
-9.40561e-53
-3.51368e-54
-8.14628e-54
-3.04808e-55
-6.67352e-55
-2.50125e-56
-5.1706e-56
-1.94205e-57
-3.78897e-57
-1.42609e-58
-2.62616e-58
-9.90875e-60
-1.72181e-59
-6.51282e-61
-1.068e-60
-4.05066e-62
-6.26807e-62
-2.38431e-63
-3.48132e-63
-1.32781e-64
-1.83005e-64
-7.00293e-66
-9.10662e-66
-3.49486e-67
-4.29032e-67
-1.65205e-68
-1.91389e-68
-7.39449e-70
-8.08533e-70
-3.13448e-71
-3.23508e-71
-1.2585e-72
-1.2261e-72
-4.78653e-74
-4.40223e-74
-1.72469e-75
-1.49749e-75
-5.888e-77
-4.82661e-77
-1.90469e-78
-1.47415e-78
-5.83873e-80
-4.26676e-80
-1.69621e-81
-1.17042e-81
-4.67022e-83
-3.04297e-83
-1.21876e-84
-7.49884e-85
-3.01469e-86
-1.75167e-86
-7.06864e-88
-3.87874e-88
-1.57114e-89
-8.14193e-90
-3.3105e-91
-1.62023e-91
-6.61288e-93
-3.05672e-93
-1.25228e-94
-5.46726e-95
-2.24838e-96
-9.27108e-97
-3.82717e-98
-1.49054e-98
-6.17642e-100
-2.27203e-100
-9.45044e-102
-3.28357e-102
-1.37097e-103
-4.49925e-104
-1.88564e-105
-5.84517e-106
-2.45896e-107
-7.19969e-108
-3.0402e-109
-8.40792e-110
-3.56374e-111
-9.30929e-112
-3.96059e-113
-9.77217e-114
-4.17308e-115
-9.72535e-116
-4.16858e-117
-9.17593e-118
-3.94773e-119
-8.20761e-120
-3.54424e-121
-6.95974e-122
-3.0165e-123
-5.59458e-124
-2.43376e-125
-4.2631e-126
-1.86137e-127
-3.07932e-128
-1.34944e-129
-2.10832e-130
-9.27301e-132
-1.36822e-132
-6.03983e-134
-8.41585e-135
-3.72855e-136
-4.90614e-137
-2.18152e-138
-2.71059e-139
-1.20961e-140
-1.41921e-141
-6.35627e-143
-7.04161e-144
-3.16505e-145
-3.31065e-146
-1.49344e-147
-1.47485e-148
-6.67675e-150
-6.22519e-151
-2.82833e-152
-2.48944e-153
-1.13505e-154
-9.43123e-156
-4.31554e-157
-3.38476e-158
-1.55427e-159
-1.15067e-160
-5.30258e-162
-3.70517e-163
-1.71351e-164
-1.12998e-165
-5.24399e-167
-3.26371e-168
-1.52009e-169
-8.92682e-171
-4.17174e-172
-2.31203e-173
-1.08451e-174
-5.66989e-176
-2.66812e-177
-1.31643e-178
-6.21909e-180
-2.89363e-181
-1.37109e-182
-6.02079e-184
-2.86466e-185
-1.18583e-186
-5.65759e-188
-2.21045e-189
-1.05922e-190
-3.89971e-192
-1.87339e-193
-6.51008e-195
-3.14165e-196
-1.02841e-197
-4.97468e-199
-1.53697e-200
-7.46934e-202
-2.17328e-203
-1.0586e-204
-2.90668e-206
-1.42247e-207
-3.67753e-209
-1.80383e-210
-4.40006e-212
-2.16832e-213
-4.97916e-215
-2.45931e-216
-5.32732e-218
-2.64363e-219
-5.38978e-221
-2.6806e-222
-5.15463e-224
-2.57593e-225
-4.66066e-227
-2.33402e-228
-3.98258e-230
-2.00422e-231
-3.21675e-233
-1.62216e-234
-2.45492e-236
-1.24402e-237
-1.77054e-239
-8.9918e-241
-1.20625e-242
-6.15412e-244
-7.76468e-246
-3.97179e-247
-4.72036e-249
-2.42427e-250
-2.71069e-252
-1.39672e-253
-1.46978e-255
-7.59834e-257
-7.52606e-259
-3.9063e-260
-3.63796e-262
-1.89332e-263
-1.66025e-265
-8.67941e-267
-7.1511e-269
-3.74733e-270
-2.90718e-272
-1.53051e-273
-1.11522e-275
-5.886e-277
-4.03663e-279
-2.14015e-280
-1.37834e-282
-7.3319e-284
-4.43926e-286
-2.37281e-287
-1.34821e-289
-7.24943e-291
-3.86064e-293
-2.08191e-294
-5.53868e-298
-1.04322e-296
1.19971e-08
-2.20461e-09
1.59756e-08
-3.7723e-09
1.97472e-08
-6.03183e-09
2.25634e-08
-9.01556e-09
2.58446e-08
-1.21788e-08
2.67927e-08
-1.21423e-08
2.81713e-08
-6.0707e-09
3.69551e-08
-9.7425e-10
4.63026e-08
2.8567e-11
4.2492e-08
2.30728e-10
1.03258e-08
3.88425e-09
0
7.77177e-10
-3.6077e-33
-2.74668e-32
-1.23409e-31
-1.48287e-32
-1.41e-31
-1.55155e-32
-9.95058e-32
-1.0491e-32
-5.20613e-32
-5.28422e-33
-2.19658e-32
-2.1361e-33
-7.88839e-33
-7.35244e-34
-2.50787e-33
-2.25177e-34
-7.26253e-34
-6.31937e-35
-1.9521e-34
-1.65481e-35
-4.92143e-35
-4.08204e-36
-1.16927e-35
-9.52294e-37
-2.62349e-36
-2.10403e-37
-5.56903e-37
-4.40855e-38
-1.12164e-37
-8.78146e-39
-2.15222e-38
-1.66923e-39
-3.95386e-39
-3.04214e-40
-6.98832e-40
-5.34059e-41
-1.19289e-40
-9.06427e-42
-1.97033e-41
-1.49003e-42
-3.14828e-42
-2.37141e-43
-4.85547e-43
-3.64556e-44
-7.20274e-44
-5.39409e-45
-1.02367e-44
-7.65116e-46
-1.38862e-45
-1.03642e-46
-1.79219e-46
-1.33639e-47
-2.19521e-47
-1.63614e-48
-2.5472e-48
-1.89837e-49
-2.79643e-49
-2.08477e-50
-2.90234e-50
-2.16513e-51
-2.84635e-51
-2.12549e-52
-2.6371e-52
-1.97165e-53
-2.30798e-53
-1.72833e-54
-1.9082e-54
-1.43138e-55
-1.49057e-55
-1.12046e-56
-1.10023e-56
-8.28775e-58
-7.67542e-58
-5.796e-59
-5.06165e-59
-3.83179e-60
-3.15602e-60
-2.39566e-61
-1.86093e-61
-1.41673e-62
-1.0379e-62
-7.92277e-64
-5.47628e-64
-4.19403e-65
-2.73405e-65
-2.09995e-66
-1.29178e-66
-9.95523e-68
-5.7769e-68
-4.467e-69
-2.44564e-69
-1.89754e-70
-9.80257e-71
-7.63203e-72
-3.72041e-72
-2.90681e-73
-1.3372e-73
-1.0485e-74
-4.55203e-75
-3.58212e-76
-1.46777e-76
-1.15924e-77
-4.48328e-78
-3.55389e-79
-1.29734e-79
-1.03221e-80
-3.55687e-81
-2.84051e-82
-9.23986e-83
-7.40658e-84
-2.27444e-84
-1.83002e-85
-5.30542e-86
-4.28487e-87
-1.1728e-87
-9.5078e-89
-2.45699e-89
-1.99942e-90
-4.87843e-91
-3.98499e-92
-9.1805e-93
-7.52743e-94
-1.63748e-94
-1.34775e-95
-2.76832e-96
-2.28717e-97
-4.43609e-98
-3.67899e-99
-6.73803e-100
-5.60927e-101
-9.70107e-102
-8.10648e-103
-1.32393e-103
-1.1105e-104
-1.71264e-105
-1.44197e-106
-2.10004e-107
-1.77481e-108
-2.44089e-109
-2.07063e-110
-2.6892e-111
-2.28983e-112
-2.80833e-113
-2.40022e-114
-2.77984e-115
-2.38473e-116
-2.60813e-117
-2.24576e-118
-2.31936e-119
-2.00453e-120
-1.95492e-121
-1.69581e-122
-1.56171e-123
-1.35972e-124
-1.18242e-125
-1.03328e-126
-8.48454e-128
-7.44157e-129
-5.76976e-130
-5.07903e-131
-3.7183e-132
-3.28511e-133
-2.27077e-134
-2.01352e-135
-1.3141e-136
-1.16946e-137
-7.20589e-139
-6.43596e-140
-3.74401e-141
-3.35607e-142
-1.84313e-143
-1.65808e-144
-8.59648e-146
-7.76129e-147
-3.79851e-148
-3.44171e-149
-1.59005e-150
-1.44586e-151
-6.30503e-153
-5.75366e-154
-2.36822e-155
-2.16885e-156
-8.42535e-158
-7.74337e-159
-2.83897e-160
-2.61844e-161
-9.05966e-163
-8.38553e-164
-2.73789e-165
-2.54308e-166
-7.8351e-168
-7.30353e-169
-2.12309e-170
-1.98591e-171
-5.44698e-173
-5.11342e-174
-1.32307e-175
-1.24625e-176
-3.04233e-178
-2.87625e-179
-6.62233e-181
-6.28134e-182
-1.3644e-183
-1.29905e-184
-2.66069e-186
-2.54127e-187
-4.91017e-189
-4.70803e-190
-8.57551e-192
-8.24767e-193
-1.41708e-194
-1.36832e-195
-2.21578e-197
-2.14593e-198
-3.27754e-200
-3.18697e-201
-4.58666e-203
-4.4731e-204
-6.07092e-206
-5.94449e-207
-7.60094e-209
-7.4645e-210
-8.99922e-212
-8.8734e-213
-1.00768e-214
-9.96488e-216
-1.06678e-217
-1.05923e-218
-1.0679e-220
-1.06339e-221
-1.0105e-223
-1.01038e-224
-9.03983e-227
-9.06436e-228
-7.64264e-230
-7.69523e-231
-6.10742e-233
-6.16693e-234
-4.61145e-236
-4.6755e-237
-3.29052e-239
-3.34604e-240
-2.21798e-242
-2.26422e-243
-1.41257e-245
-1.44662e-246
-8.49634e-249
-8.73233e-250
-4.82742e-252
-4.97921e-253
-2.58986e-255
-2.67986e-256
-1.31218e-258
-1.36313e-259
-6.27622e-262
-6.5388e-263
-2.83429e-265
-2.96527e-266
-1.20807e-268
-1.26738e-269
-4.86025e-272
-5.12062e-273
-1.84517e-275
-1.94966e-276
-6.6101e-279
-7.01387e-280
-2.23399e-282
-2.37892e-283
-7.12199e-286
-7.6193e-287
-2.14111e-289
-2.30466e-290
-6.06968e-293
-6.55135e-294
-1.72583e-297
-1.62382e-296
1.26846e-08
-3.44472e-09
1.50531e-08
-5.28986e-09
1.64632e-08
-6.23818e-09
1.81828e-08
-8.89888e-09
2.05823e-08
-1.24121e-08
2.14691e-08
-1.91805e-08
2.10797e-08
-8.59077e-09
2.14375e-08
-2.11581e-09
2.72593e-08
6.04335e-10
2.92653e-08
5.476e-10
1.32117e-08
7.71805e-10
1.70441e-21
2.32474e-09
1.48287e-32
9.42953e-22
6.08854e-42
1.17103e-42
-2.95363e-32
-4.84362e-33
-3.14139e-32
-4.97037e-33
-1.95121e-32
-2.97515e-33
-9.21185e-33
-1.34518e-33
-3.64706e-33
-5.1027e-34
-1.26906e-33
-1.71021e-34
-3.98197e-34
-5.20003e-35
-1.14395e-34
-1.45532e-35
-3.03878e-35
-3.78254e-36
-7.51997e-36
-9.19105e-37
-1.74549e-36
-2.10077e-37
-3.82703e-37
-4.54637e-38
-7.98443e-38
-9.38086e-39
-1.59637e-38
-1.858e-39
-3.07637e-39
-3.55203e-40
-5.73401e-40
-6.57585e-41
-1.03435e-40
-1.17944e-41
-1.80221e-41
-2.04519e-42
-3.02175e-42
-3.41557e-43
-4.85418e-43
-5.46914e-44
-7.43944e-44
-8.36044e-45
-1.08389e-44
-1.21568e-45
-1.49714e-45
-1.67679e-46
-1.95672e-46
-2.18949e-47
-2.41674e-47
-2.70294e-48
-2.81854e-48
-3.15212e-49
-3.10265e-49
-3.47095e-50
-3.22318e-50
-3.60812e-51
-3.15996e-51
-3.54088e-52
-2.924e-52
-3.28049e-53
-2.55417e-53
-2.87012e-54
-2.10667e-54
-2.37129e-55
-1.64106e-55
-1.85108e-56
-1.20765e-56
-1.36505e-57
-8.3976e-58
-9.51558e-59
-5.51917e-59
-6.26955e-60
-3.42924e-60
-3.90604e-61
-2.01476e-61
-2.3016e-62
-1.11956e-62
-1.2824e-63
-5.88509e-64
-6.76316e-65
-2.92702e-65
-3.37347e-66
-1.37764e-66
-1.59313e-67
-6.13705e-68
-7.12081e-69
-2.58797e-69
-3.01304e-70
-1.03323e-70
-1.2071e-71
-3.90595e-72
-4.57929e-73
-1.39831e-73
-1.64521e-74
-4.74107e-75
-5.59831e-76
-1.52261e-76
-1.80447e-77
-4.63214e-78
-5.50979e-79
-1.33504e-79
-1.59387e-80
-3.6455e-81
-4.36848e-82
-9.43202e-83
-1.13449e-83
-2.31241e-84
-2.79184e-85
-5.37232e-86
-6.51063e-87
-1.18283e-87
-1.43887e-88
-2.46809e-89
-3.01372e-90
-4.88089e-91
-5.98258e-92
-9.14858e-93
-1.12558e-93
-1.62531e-94
-2.0073e-95
-2.73692e-96
-3.39301e-97
-4.36853e-98
-5.43633e-99
-6.60948e-100
-8.25623e-101
-9.47901e-102
-1.18855e-102
-1.28863e-103
-1.62189e-104
-1.66058e-105
-2.09794e-106
-2.02846e-107
-2.57236e-108
-2.34879e-109
-2.98978e-110
-2.57804e-111
-3.29391e-112
-2.68227e-113
-3.4399e-114
-2.6453e-115
-3.40516e-116
-2.47288e-117
-3.19506e-118
-2.19118e-119
-2.84161e-120
-1.84032e-121
-2.39544e-122
-1.465e-123
-1.91395e-124
-1.10536e-125
-1.4494e-126
-7.90447e-128
-1.04028e-128
-5.35719e-130
-7.07623e-131
-3.44097e-132
-4.56173e-133
-2.09454e-134
-2.78686e-135
-1.20822e-136
-1.61342e-137
-6.60444e-139
-8.85126e-140
-3.42089e-141
-4.60124e-142
-1.67894e-143
-2.26637e-144
-7.80744e-146
-1.05771e-146
-3.43982e-148
-4.67672e-149
-1.4358e-150
-1.9591e-151
-5.67758e-153
-7.7744e-154
-2.12676e-155
-2.92262e-156
-7.54636e-158
-1.0407e-158
-2.53626e-160
-3.51014e-161
-8.07348e-163
-1.12131e-163
-2.43396e-165
-3.39241e-166
-6.94901e-168
-9.71976e-169
-1.87873e-170
-2.637e-171
-4.80952e-173
-6.77481e-174
-1.16578e-175
-1.64779e-176
-2.67523e-178
-3.79503e-179
-5.81199e-181
-8.27262e-182
-1.19523e-183
-1.7075e-184
-2.32669e-186
-3.33491e-187
-4.28663e-189
-6.16704e-190
-7.47466e-192
-1.07885e-192
-1.23333e-194
-1.78684e-195
-1.92576e-197
-2.79897e-198
-2.84483e-200
-4.15051e-201
-3.9763e-203
-5.8197e-204
-5.25718e-206
-7.72378e-207
-6.57541e-209
-9.69096e-210
-7.77784e-212
-1.15071e-212
-8.70196e-215
-1.29146e-215
-9.20571e-218
-1.37149e-218
-9.20956e-221
-1.37632e-221
-8.70995e-224
-1.30673e-224
-7.78846e-227
-1.17208e-227
-6.58251e-230
-9.94473e-231
-5.25904e-233
-7.96992e-234
-3.97036e-236
-6.04015e-237
-2.83297e-239
-4.32361e-240
-1.9097e-242
-2.92528e-243
-1.21644e-245
-1.86966e-246
-7.31858e-249
-1.12874e-249
-4.15975e-252
-6.43908e-253
-2.23269e-255
-3.46707e-256
-1.13184e-258
-1.76451e-259
-5.41719e-262
-8.4703e-263
-2.44817e-265
-3.84369e-266
-1.04437e-268
-1.64442e-269
-4.20553e-272
-6.6493e-273
-1.59823e-275
-2.53461e-276
-5.73179e-279
-9.1274e-280
-1.93945e-282
-3.09975e-283
-6.19084e-286
-9.94016e-287
-1.86369e-289
-3.01089e-290
-5.2908e-293
-8.57079e-294
-2.26136e-297
-1.41758e-296
3.76515e-08
-7.88137e-09
4.15731e-08
-6.69036e-09
4.5559e-08
-7.69972e-09
5.08403e-08
-8.2988e-09
5.62725e-08
-1.16069e-08
5.85035e-08
-1.51986e-08
4.81569e-08
-2.86904e-08
2.19468e-08
-4.15028e-09
1.95656e-08
2.75748e-09
1.91695e-08
7.14355e-10
1.69542e-08
1.60029e-09
4.00563e-09
9.50361e-10
0
3.61183e-10
-3.58359e-33
1.36339e-32
-3.12692e-31
-6.80325e-32
-1.19113e-31
-2.5144e-32
-2.66582e-32
-5.42663e-33
-6.0735e-33
-1.18347e-33
-1.83892e-33
-3.43207e-34
-6.35423e-34
-1.1421e-34
-2.12667e-34
-3.70392e-35
-6.59042e-35
-1.11818e-35
-1.88792e-35
-3.1341e-36
-5.03406e-36
-8.20558e-37
-1.2591e-36
-2.02099e-37
-2.97468e-37
-4.71284e-38
-6.67623e-38
-1.04608e-38
-1.42921e-38
-2.21843e-39
-2.92486e-39
-4.50378e-40
-5.72487e-40
-8.7557e-41
-1.07077e-40
-1.6283e-41
-1.91047e-41
-2.89133e-42
-3.24485e-42
-4.89134e-43
-5.23556e-43
-7.86673e-44
-8.01058e-44
-1.20055e-44
-1.16055e-44
-1.7359e-45
-1.59033e-45
-2.37536e-46
-2.05967e-46
-3.07353e-47
-2.51988e-47
-3.75846e-48
-2.91139e-48
-4.34212e-49
-3.17615e-49
-4.73847e-50
-3.27169e-50
-4.88416e-51
-3.1823e-51
-4.75543e-52
-2.9232e-52
-4.37359e-53
-2.53625e-53
-3.80068e-54
-2.07886e-54
-3.12054e-55
-1.61005e-55
-2.42191e-56
-1.17849e-56
-1.77645e-57
-8.15415e-58
-1.23218e-58
-5.33437e-59
-8.08092e-60
-3.3001e-60
-5.01281e-61
-1.93106e-61
-2.94182e-62
-1.06899e-62
-1.63291e-63
-5.59931e-64
-8.58114e-65
-2.77561e-65
-4.26603e-66
-1.3023e-66
-2.00834e-67
-5.78441e-68
-8.95038e-69
-2.43256e-69
-3.77678e-70
-9.68683e-71
-1.50918e-71
-3.65315e-72
-5.71151e-73
-1.30488e-73
-2.04739e-74
-4.41511e-75
-6.95236e-76
-1.4152e-76
-2.2366e-77
-4.29775e-78
-6.81718e-79
-1.23666e-79
-1.96887e-80
-3.3719e-81
-5.38837e-82
-8.71261e-83
-1.39751e-83
-2.13353e-84
-3.43505e-85
-4.95164e-86
-8.00239e-87
-1.08924e-87
-1.76699e-88
-2.27114e-89
-3.69825e-90
-4.48877e-91
-7.33712e-92
-8.40985e-93
-1.37981e-93
-1.49363e-94
-2.45995e-95
-2.51477e-96
-4.1575e-97
-4.01392e-98
-6.66114e-99
-6.07381e-100
-1.01178e-100
-8.71325e-102
-1.45695e-102
-1.18503e-103
-1.989e-104
-1.52798e-105
-2.57429e-106
-1.86783e-107
-3.15873e-108
-2.16468e-109
-3.6745e-110
-2.37839e-111
-4.05242e-112
-2.47744e-113
-4.23698e-114
-2.44651e-115
-4.19971e-116
-2.2904e-117
-3.94637e-118
-2.03277e-119
-3.51548e-120
-1.71029e-121
-2.96873e-122
-1.36409e-123
-2.37654e-124
-1.03134e-125
-1.80343e-126
-7.39144e-128
-1.29724e-128
-5.02129e-130
-8.8449e-131
-3.23329e-132
-5.71618e-133
-1.97335e-134
-3.5014e-135
-1.14149e-136
-2.03277e-137
-6.25804e-139
-1.11846e-139
-3.25146e-141
-5.83217e-142
-1.60095e-143
-2.88196e-144
-7.46983e-146
-1.34953e-146
-3.30263e-148
-5.98803e-149
-1.38357e-150
-2.51757e-151
-5.49181e-153
-1.00285e-153
-2.06525e-155
-3.78482e-156
-7.35787e-158
-1.3532e-158
-2.48328e-160
-4.58329e-161
-7.93903e-163
-1.47046e-163
-2.40409e-165
-4.46858e-166
-6.89514e-168
-1.28617e-168
-1.87293e-170
-3.50588e-171
-4.8178e-173
-9.05033e-174
-1.17355e-175
-2.2122e-176
-2.70668e-178
-5.12048e-179
-5.9107e-181
-1.12202e-181
-1.22194e-183
-2.32797e-184
-2.39148e-186
-4.57152e-187
-4.43011e-189
-8.49947e-190
-7.76791e-192
-1.49531e-192
-1.28898e-194
-2.49039e-195
-2.02423e-197
-3.92391e-198
-3.00776e-200
-5.85203e-201
-4.22891e-203
-8.255e-204
-5.62466e-206
-1.10204e-206
-7.07768e-209
-1.39125e-209
-8.42326e-212
-1.66194e-212
-9.48236e-215
-1.87697e-215
-1.00939e-217
-2.00552e-218
-1.01616e-220
-2.02548e-221
-9.67125e-224
-1.93503e-224
-8.70317e-227
-1.74692e-227
-7.40271e-230
-1.49153e-230
-5.95238e-233
-1.2032e-233
-4.5228e-236
-9.17642e-237
-3.24804e-239
-6.61197e-240
-2.20369e-242
-4.50206e-243
-1.4128e-245
-2.89641e-246
-8.55508e-249
-1.75982e-249
-4.89404e-252
-1.01048e-252
-2.64378e-255
-5.47593e-256
-1.34887e-258
-2.80485e-259
-6.49732e-262
-1.35513e-262
-2.95505e-265
-6.18836e-266
-1.26859e-268
-2.66451e-269
-5.14064e-272
-1.08414e-272
-1.96581e-275
-4.15873e-276
-7.09369e-279
-1.50682e-279
-2.41499e-282
-5.14898e-283
-7.75551e-286
-1.66115e-286
-2.3487e-289
-5.06197e-290
-6.70705e-293
-1.44943e-293
-3.84668e-297
-1.8075e-296
1.40336e-08
-7.67649e-10
9.41356e-09
-2.91068e-10
6.65648e-09
-2.2685e-10
6.89832e-09
-3.21906e-10
8.56104e-09
-5.59744e-10
2.69135e-08
-2.49948e-09
4.16186e-08
-1.39156e-08
4.58215e-08
-3.83825e-09
1.37049e-08
6.63921e-09
1.03991e-08
3.34577e-11
9.5619e-09
1.00027e-09
3.79005e-09
9.54521e-10
0
2.19623e-10
5.98985e-32
0
-8.81191e-33
-2.38844e-33
-9.76298e-33
-2.57751e-33
-4.45438e-33
-1.13446e-33
-2.11028e-33
-5.1425e-34
-9.8913e-34
-2.30804e-34
-4.20109e-34
-9.43973e-35
-1.59786e-34
-3.47892e-35
-5.50179e-35
-1.16693e-35
-1.73581e-35
-3.60225e-36
-5.06647e-36
-1.03238e-36
-1.37797e-36
-2.76494e-37
-3.5107e-37
-6.95312e-38
-8.40993e-38
-1.6473e-38
-1.89906e-38
-3.68494e-39
-4.04882e-39
-7.79374e-40
-8.15753e-40
-1.55966e-40
-1.55382e-40
-2.95384e-41
-2.79825e-41
-5.29406e-42
-4.76369e-42
-8.97682e-43
-7.66408e-43
-1.43958e-43
-1.16494e-43
-2.18256e-44
-1.67245e-44
-3.12723e-45
-2.26727e-45
-4.23341e-46
-2.90187e-46
-5.41329e-47
-3.50618e-47
-6.53747e-48
-3.99909e-48
-7.45602e-49
-4.30602e-49
-8.03077e-50
-4.37743e-50
-8.16922e-51
-4.20198e-51
-7.84958e-52
-3.80943e-52
-7.12499e-53
-3.26233e-53
-6.11139e-54
-2.63973e-54
-4.95344e-55
-2.01863e-55
-3.79593e-56
-1.45926e-56
-2.74978e-57
-9.97446e-58
-1.88421e-58
-6.44822e-59
-1.22113e-59
-3.94354e-60
-7.4883e-61
-2.28207e-61
-4.34603e-62
-1.24988e-62
-2.38672e-63
-6.48029e-64
-1.2415e-64
-3.18122e-65
-6.11226e-66
-1.47893e-66
-2.85112e-67
-6.51218e-68
-1.25965e-68
-2.71645e-69
-5.27233e-70
-1.07358e-70
-2.09092e-71
-4.02054e-72
-7.85795e-73
-1.42693e-73
-2.7988e-74
-4.79991e-75
-9.44857e-76
-1.53046e-76
-3.02366e-77
-4.62597e-78
-9.17295e-79
-1.3256e-79
-2.63829e-80
-3.60146e-81
-7.19455e-82
-9.27738e-83
-1.86026e-83
-2.26608e-84
-4.56093e-85
-5.24866e-86
-1.06038e-86
-1.15281e-87
-2.33781e-88
-2.40114e-89
-4.88779e-90
-4.74284e-91
-9.69125e-92
-8.88438e-93
-1.82222e-93
-1.5783e-94
-3.24951e-95
-2.65907e-96
-5.49549e-97
-4.24862e-98
-8.81395e-99
-6.4379e-100
-1.34064e-100
-9.25161e-102
-1.93387e-102
-1.26085e-103
-2.64553e-104
-1.62959e-105
-3.43213e-106
-1.99734e-107
-4.22253e-108
-2.32158e-109
-4.92644e-110
-2.55893e-111
-5.45049e-112
-2.67466e-113
-5.71832e-114
-2.65096e-115
-5.68882e-116
-2.49143e-117
-5.3664e-118
-2.22021e-119
-4.79996e-120
-1.87596e-121
-4.07074e-122
-1.50287e-123
-3.2732e-124
-1.14149e-125
-2.49528e-126
-8.21974e-128
-1.80343e-128
-5.61128e-130
-1.23564e-130
-3.63131e-132
-8.02557e-133
-2.22763e-134
-4.94123e-135
-1.29533e-136
-2.88369e-137
-7.13927e-139
-1.59511e-139
-3.72941e-141
-8.36269e-142
-1.84636e-143
-4.15512e-144
-8.66279e-146
-1.95653e-146
-3.85159e-148
-8.73013e-149
-1.62269e-150
-3.69124e-151
-6.47768e-153
-1.47877e-153
-2.44998e-155
-5.613e-156
-8.77885e-158
-2.01841e-158
-2.97999e-160
-6.87591e-161
-9.58219e-163
-2.21878e-163
-2.91848e-165
-6.78175e-166
-8.41892e-168
-1.96325e-168
-2.30004e-170
-5.38248e-171
-5.95053e-173
-1.39746e-173
-1.45778e-175
-3.43549e-176
-3.38139e-178
-7.99716e-179
-7.42589e-181
-1.76234e-181
-1.5438e-183
-3.67695e-184
-3.03822e-186
-7.26109e-187
-5.65918e-189
-1.35738e-189
-9.97705e-192
-2.40118e-192
-1.66446e-194
-4.02039e-195
-2.62777e-197
-6.36865e-198
-3.92495e-200
-9.54715e-201
-5.54688e-203
-1.35377e-203
-7.41492e-206
-1.8163e-206
-9.37674e-209
-2.30452e-209
-1.12137e-211
-2.76613e-212
-1.26839e-214
-3.13914e-215
-1.35648e-217
-3.36959e-218
-1.3718e-220
-3.41885e-221
-1.31139e-223
-3.28049e-224
-1.18522e-226
-2.97462e-227
-1.01236e-229
-2.55026e-230
-8.17338e-233
-2.06583e-233
-6.23494e-236
-1.58167e-236
-4.49473e-239
-1.14411e-239
-3.06078e-242
-7.8185e-243
-1.96927e-245
-5.04829e-246
-1.19655e-248
-3.07766e-249
-6.86747e-252
-1.77305e-252
-3.72148e-255
-9.63864e-256
-1.90441e-258
-4.95189e-259
-9.19944e-262
-2.39935e-262
-4.19532e-265
-1.09864e-265
-1.80564e-268
-4.74277e-269
-7.3345e-272
-1.93435e-272
-2.81108e-275
-7.43726e-276
-1.01652e-278
-2.70036e-279
-3.4674e-282
-9.24587e-283
-1.11552e-285
-2.98824e-286
-3.3838e-289
-9.12127e-290
-9.67726e-293
-2.61562e-293
-6.9511e-297
-2.61141e-296
3.82816e-10
-3.0956e-11
2.04327e-10
-3.36122e-11
2.09037e-10
-5.70545e-11
3.49268e-10
-4.62884e-12
5.60275e-10
-3.36026e-14
3.71126e-09
-6.98176e-12
2.31837e-08
-3.52289e-09
3.94462e-08
-5.0336e-09
2.56638e-08
9.39889e-10
3.41653e-09
6.35493e-09
2.07169e-09
9.60797e-11
1.18209e-09
1.32008e-10
8.3566e-11
6.01628e-11
2.26828e-24
1.99732e-12
2.57751e-33
4.99221e-26
-1.28961e-44
-4.08668e-45
-2.97338e-33
-9.09232e-34
-1.75974e-33
-5.14706e-34
-7.89288e-34
-2.21009e-34
-3.29708e-34
-8.88966e-35
-1.28516e-34
-3.35751e-35
-4.62268e-35
-1.17651e-35
-1.53317e-35
-3.81792e-36
-4.70668e-36
-1.15085e-36
-1.34357e-36
-3.23502e-37
-3.58053e-37
-8.50959e-38
-8.9349e-38
-2.10013e-38
-2.09223e-38
-4.8717e-39
-4.60393e-39
-1.06347e-39
-9.52914e-40
-2.18629e-40
-1.85625e-40
-4.23454e-41
-3.40437e-41
-7.72903e-42
-5.87965e-42
-1.32959e-42
-9.56416e-43
-2.1558e-43
-1.46548e-43
-3.2948e-44
-2.11549e-44
-4.74683e-45
-2.87742e-45
-6.44731e-46
-3.68843e-46
-8.25683e-47
-4.45678e-47
-9.97207e-48
-5.07754e-48
-1.13603e-48
-5.45588e-49
-1.22106e-49
-5.53084e-50
-1.23863e-50
-5.29144e-51
-1.1862e-51
-4.77931e-52
-1.07271e-52
-4.07675e-53
-9.16471e-54
-3.2853e-54
-7.39802e-55
-2.50204e-55
-5.6461e-56
-1.80145e-56
-4.07364e-57
-1.22659e-57
-2.78055e-58
-7.90056e-59
-1.79544e-59
-4.81536e-60
-1.09728e-60
-2.77799e-61
-6.34872e-62
-1.51732e-62
-3.47699e-63
-7.84826e-64
-1.80435e-64
-3.84516e-65
-8.86577e-66
-1.78479e-66
-4.12905e-67
-7.84994e-68
-1.82216e-68
-3.27207e-69
-7.62112e-70
-1.29276e-70
-3.02145e-71
-4.84182e-72
-1.13561e-72
-1.71925e-73
-4.04673e-74
-5.78828e-75
-1.36735e-75
-1.84789e-76
-4.38112e-77
-5.59432e-78
-1.33122e-78
-1.60615e-79
-3.83613e-80
-4.37332e-81
-1.04842e-81
-1.12938e-82
-2.71759e-83
-2.76617e-84
-6.6812e-85
-6.42597e-86
-1.55794e-86
-1.41587e-87
-3.44568e-88
-2.95895e-89
-7.2282e-90
-5.86511e-91
-1.43819e-91
-1.10266e-92
-2.71404e-93
-1.96619e-94
-4.85796e-95
-3.32526e-96
-8.24713e-97
-5.33374e-98
-1.32787e-98
-8.11404e-100
-2.02771e-100
-1.17066e-101
-2.93659e-102
-1.60179e-103
-4.03326e-104
-2.07847e-105
-5.25332e-106
-2.55763e-107
-6.48876e-108
-2.98451e-109
-7.60025e-110
-3.30244e-111
-8.44144e-112
-3.46504e-113
-8.89024e-114
-3.44729e-115
-8.87774e-116
-3.25183e-117
-8.40557e-118
-2.90831e-119
-7.54555e-120
-2.46603e-121
-6.42179e-122
-1.98237e-123
-5.18136e-124
-1.5107e-125
-3.9631e-126
-1.09134e-127
-2.8735e-128
-7.47329e-130
-1.97493e-130
-4.85077e-132
-1.28657e-132
-2.98425e-134
-7.94401e-135
-1.74006e-136
-4.64884e-137
-9.61552e-139
-2.57825e-139
-5.03546e-141
-1.35506e-141
-2.49884e-143
-6.74872e-144
-1.17502e-145
-3.18486e-146
-5.23519e-148
-1.42408e-148
-2.20992e-150
-6.03301e-151
-8.83791e-153
-2.42132e-153
-3.34828e-155
-9.20613e-156
-1.20162e-157
-3.3156e-158
-4.08465e-160
-1.13109e-160
-1.31509e-162
-3.65453e-163
-4.00994e-165
-1.11829e-165
-1.1579e-167
-3.24055e-168
-3.16609e-170
-8.89208e-171
-8.19705e-173
-2.31032e-173
-2.00932e-175
-5.68312e-176
-4.66285e-178
-1.32351e-178
-1.02435e-180
-2.91766e-181
-2.12998e-183
-6.08846e-184
-4.19208e-186
-1.20244e-186
-7.80796e-189
-2.24763e-189
-1.37627e-191
-3.97544e-192
-2.2953e-194
-6.65393e-195
-3.62212e-197
-1.05363e-197
-5.40715e-200
-1.57855e-200
-7.63639e-203
-2.23694e-203
-1.02e-205
-2.99874e-206
-1.28869e-208
-3.8015e-209
-1.53958e-211
-4.55814e-212
-1.73943e-214
-5.16716e-215
-1.85792e-217
-5.53938e-218
-1.87635e-220
-5.61303e-221
-1.79109e-223
-5.37779e-224
-1.61623e-226
-4.86899e-227
-1.37819e-229
-4.16723e-230
-1.11072e-232
-3.36985e-233
-8.45705e-236
-2.57514e-236
-6.08459e-239
-1.85917e-239
-4.13484e-242
-1.26784e-242
-2.65454e-245
-8.16889e-246
-1.60928e-248
-4.9688e-249
-9.21456e-252
-2.85589e-252
-4.98116e-255
-1.54874e-255
-2.54257e-258
-7.93666e-259
-1.22499e-261
-3.83561e-262
-5.57132e-265
-1.75153e-265
-2.39115e-268
-7.54044e-269
-9.68485e-272
-3.06652e-272
-3.70088e-275
-1.17558e-275
-1.3342e-278
-4.25537e-279
-4.53677e-282
-1.45251e-282
-1.45486e-285
-4.67945e-286
-4.39857e-289
-1.42369e-289
-1.25368e-292
-4.0688e-293
-1.07759e-296
-3.37135e-296
5.08913e-11
-3.83826e-11
4.53042e-11
-4.35006e-11
2.26957e-11
-1.89705e-11
4.91808e-10
-1.32858e-09
2.64764e-09
-7.70535e-09
2.93271e-09
-8.52773e-09
4.40134e-09
-1.26818e-09
2.44288e-08
-1.78606e-09
2.72923e-08
7.65517e-10
5.65479e-09
8.7039e-09
2.04893e-10
-7.88063e-11
7.0985e-11
5.82276e-16
2.23949e-11
1.20574e-15
-5.00832e-26
1.49338e-12
-3.76749e-31
0
-1.49186e-33
-1.10848e-33
-1.53443e-33
-5.47631e-34
-9.15039e-34
-3.12266e-34
-4.64566e-34
-1.51746e-34
-2.13365e-34
-6.71054e-35
-8.93423e-35
-2.72271e-35
-3.41878e-35
-1.015e-35
-1.20061e-35
-3.48769e-36
-3.88853e-36
-1.10916e-36
-1.16661e-36
-3.27684e-37
-3.25338e-37
-9.02012e-38
-8.45586e-38
-2.31865e-38
-2.05234e-38
-5.575e-39
-4.65857e-39
-1.25539e-39
-9.90084e-40
-2.65006e-40
-1.97202e-40
-5.24821e-41
-3.68389e-41
-9.75727e-42
-6.45883e-42
-1.70394e-42
-1.06346e-42
-2.79654e-43
-1.64534e-43
-4.31561e-44
-2.39329e-44
-6.26511e-45
-3.27469e-45
-8.56026e-46
-4.21705e-46
-1.10135e-46
-5.1137e-47
-1.33488e-47
-5.84212e-48
-1.52493e-48
-6.29118e-49
-1.64267e-49
-6.38902e-50
-1.6693e-50
-6.1219e-51
-1.60109e-51
-5.53719e-52
-1.44995e-52
-4.72976e-53
-1.24049e-53
-3.81701e-54
-1.0028e-54
-2.91149e-55
-7.66512e-56
-2.09984e-56
-5.53982e-57
-1.43248e-57
-3.78854e-58
-9.24635e-59
-2.45152e-59
-5.64889e-60
-1.50178e-60
-3.2673e-61
-8.71159e-62
-1.78963e-62
-4.78455e-63
-9.28497e-64
-2.49047e-64
-4.5639e-65
-1.2277e-65
-2.12571e-66
-5.73748e-67
-9.38323e-68
-2.54113e-68
-3.92591e-69
-1.06682e-69
-1.55711e-70
-4.24591e-71
-5.85504e-72
-1.60216e-72
-2.08741e-73
-5.73231e-74
-7.05637e-75
-1.94477e-75
-2.2619e-76
-6.25662e-77
-6.87547e-78
-1.90881e-78
-1.98189e-79
-5.52263e-80
-5.41771e-81
-1.5153e-81
-1.40448e-82
-3.94295e-83
-3.45289e-84
-9.73014e-85
-8.05041e-86
-2.27714e-86
-1.78e-87
-5.05395e-88
-3.73235e-89
-1.06374e-89
-7.4217e-91
-2.12327e-91
-1.39951e-92
-4.01895e-93
-2.50261e-94
-7.21415e-95
-4.24373e-96
-1.22797e-96
-6.82383e-98
-1.98206e-98
-1.04046e-99
-3.03362e-100
-1.50429e-101
-4.4026e-102
-2.06222e-103
-6.05832e-104
-2.68054e-105
-7.90455e-106
-3.30355e-107
-9.7785e-108
-3.86012e-109
-1.1469e-109
-4.2763e-111
-1.27532e-111
-4.49126e-113
-1.34445e-113
-4.47186e-115
-1.34364e-115
-4.22097e-117
-1.27298e-117
-3.77681e-119
-1.14327e-119
-3.20341e-121
-9.73289e-122
-2.57546e-123
-7.85395e-124
-1.96263e-125
-6.00716e-126
-1.41756e-127
-4.35479e-128
-9.70396e-130
-2.99202e-130
-6.29565e-132
-1.94824e-132
-3.87076e-134
-1.2022e-134
-2.25526e-136
-7.03e-137
-1.24514e-138
-3.89538e-139
-6.51389e-141
-2.04523e-141
-3.2288e-143
-1.01744e-143
-1.51634e-145
-4.79542e-146
-6.74657e-148
-2.14126e-148
-2.84364e-150
-9.0577e-151
-1.13539e-152
-3.62943e-153
-4.2941e-155
-1.37758e-155
-1.53824e-157
-4.95235e-158
-5.21887e-160
-1.6862e-160
-1.67687e-162
-5.43712e-163
-5.10225e-165
-1.66025e-165
-1.47006e-167
-4.80044e-168
-4.01043e-170
-1.31423e-170
-1.03584e-172
-3.40649e-173
-2.53287e-175
-8.35905e-176
-5.86289e-178
-1.94174e-178
-1.2846e-180
-4.26941e-181
-2.66395e-183
-8.88516e-184
-5.22853e-186
-1.74998e-186
-9.71083e-189
-3.26178e-189
-1.70672e-191
-5.75265e-192
-2.83797e-194
-9.59981e-195
-4.46495e-197
-1.51556e-197
-6.64475e-200
-2.26355e-200
-9.35472e-203
-3.19768e-203
-1.24552e-205
-4.27285e-206
-1.5685e-208
-5.39926e-209
-1.86766e-211
-6.45237e-212
-2.10301e-214
-7.29019e-215
-2.23861e-217
-7.78856e-218
-2.253e-220
-7.86514e-221
-2.1431e-223
-7.50898e-224
-1.92701e-226
-6.77471e-227
-1.63729e-229
-5.77733e-230
-1.31474e-232
-4.65512e-233
-9.97367e-236
-3.54414e-236
-7.14908e-239
-2.54937e-239
-4.83997e-242
-1.73195e-242
-3.09544e-245
-1.11174e-245
-1.86937e-248
-6.73629e-249
-1.06624e-251
-3.85691e-252
-5.74128e-255
-2.08344e-255
-2.919e-258
-1.06348e-258
-1.40075e-261
-5.11926e-262
-6.3451e-265
-2.32833e-265
-2.71221e-268
-9.98338e-269
-1.09403e-271
-4.04342e-272
-4.16336e-275
-1.54376e-275
-1.49468e-278
-5.56487e-279
-5.0611e-282
-1.89159e-282
-1.61612e-285
-6.06831e-286
-4.86522e-289
-1.83842e-289
-1.3807e-292
-5.23142e-293
-1.37952e-296
-3.69676e-296
3.20355e-11
-5.04371e-15
4.16681e-10
-4.56631e-10
2.67884e-09
-3.19459e-09
8.22228e-09
-7.60217e-09
1.48796e-08
-2.28938e-08
1.76539e-08
-2.71049e-08
1.20374e-08
-9.22211e-09
1.15699e-08
-3.26674e-09
1.98617e-08
8.17876e-11
7.52106e-09
1.13596e-08
6.71259e-13
2.25352e-09
9.98158e-13
3.1418e-13
1.47189e-12
2.23627e-13
1.15889e-12
2.47042e-14
2.77679e-28
1.15709e-13
-1.62352e-32
2.6004e-28
-4.0651e-34
-1.6586e-34
-3.44297e-34
-1.34275e-34
-2.31075e-34
-8.62443e-35
-1.27818e-34
-4.59329e-35
-6.03385e-35
-2.10109e-35
-2.51183e-35
-8.5212e-36
-9.41929e-36
-3.12667e-36
-3.22195e-36
-1.05019e-36
-1.01282e-36
-3.25092e-37
-2.93988e-37
-9.3145e-38
-7.90653e-38
-2.47754e-38
-1.97526e-38
-6.1317e-39
-4.59361e-39
-1.41463e-39
-9.96182e-40
-3.04712e-40
-2.01758e-40
-6.13624e-41
-3.8212e-41
-1.15663e-41
-6.77568e-42
-2.04282e-42
-1.12602e-42
-3.38393e-43
-1.75545e-43
-5.26206e-44
-2.56962e-44
-7.68749e-45
-3.53461e-45
-1.05595e-45
-4.57235e-46
-1.3647e-46
-5.5664e-47
-1.66061e-47
-6.38181e-48
-1.90375e-48
-6.89487e-49
-2.05746e-49
-7.024e-50
-2.09736e-50
-6.75097e-51
-2.01784e-51
-6.12498e-52
-1.83298e-52
-5.24826e-53
-1.57311e-53
-4.24914e-54
-1.2758e-54
-3.25197e-55