/*--------------------------------*- C++ -*----------------------------------*\
| =========                 |                                                 |
| \\      /  F ield         | OpenFOAM: The Open Source CFD Toolbox           |
|  \\    /   O peration     | Version:  v1912                                 |
|   \\  /    A nd           | Website:  www.openfoam.com                      |
|    \\/     M anipulation  |                                                 |
\*---------------------------------------------------------------------------*/
FoamFile
{
    version     2.0;
    format      ascii;
    class       volScalarField;
    location    "50";
    object      p_rgh;
}
// * * * * * * * * * * * * * * * * * * * * * * * * * * * * * * * * * * * * * //

dimensions      [1 -1 -2 0 0 0 0];


internalField   nonuniform List<scalar> 
14268
(
5.7559
6.2093
6.27692
6.31731
6.367
6.61344
7.09787
7.1188
7.01992
5.36999
1.79164
0.407936
0.390378
0.384865
0.379981
0.374554
0.368514
0.361941
0.355016
0.347835
0.340466
0.332962
0.325362
0.3177
0.310004
0.302298
0.294604
0.28694
0.279323
0.271767
0.264284
0.256886
0.249581
0.242378
0.235284
0.228304
0.221443
0.214705
0.208094
0.201614
0.195266
0.189052
0.182974
0.177033
0.171229
0.165562
0.160032
0.15464
0.149384
0.144263
0.139276
0.134423
0.129701
0.12511
0.120647
0.116312
0.112101
0.108013
0.104047
0.1002
0.0964695
0.092854
0.0893511
0.0859585
0.082674
0.0794952
0.0764198
0.0734455
0.0705699
0.0677906
0.0651055
0.062512
0.0600079
0.0575908
0.0552585
0.0530086
0.0508389
0.0487472
0.0467313
0.0447889
0.042918
0.0411163
0.0393819
0.0377126
0.0361065
0.0345616
0.0330759
0.0316476
0.0302748
0.0289555
0.0276883
0.0264709
0.0253027
0.02418
0.0231044
0.0220697
0.0210809
0.0201272
0.0192203
0.0183408
0.0175114
0.0166989
0.0159435
0.0151908
0.0145068
0.0138063
0.013192
0.0125357
0.0119903
0.0113702
0.0108937
0.0103011
0.00989437
0.00932091
0.0089848
0.00842285
0.00815708
0.00760197
0.00740236
0.00685535
0.00671052
0.00618214
0.00607056
0.00558257
0.00547222
0.00505571
0.00490844
0.00459695
0.00437766
0.00419611
0.00388458
0.00383809
0.00343809
0.00350612
0.00304692
0.00318675
0.00271478
0.00287395
0.00243752
0.00256998
0.00220413
0.00228265
0.00200083
0.00202043
0.00181592
0.00178833
0.00164265
0.00158642
0.00147922
0.00141122
1.67573
2.0503
2.36407
2.53594
2.56667
2.43767
2.28692
2.53373
3.36782
3.4202
2.0315
0.5599
0.390304
0.384842
0.379967
0.374541
0.368501
0.361927
0.355001
0.34782
0.34045
0.332946
0.325346
0.317684
0.309988
0.302282
0.294588
0.286924
0.279307
0.271751
0.264268
0.25687
0.249566
0.242363
0.235269
0.228289
0.221428
0.214691
0.208081
0.201601
0.195253
0.189039
0.182962
0.177021
0.171217
0.16555
0.160021
0.154629
0.149373
0.144252
0.139266
0.134413
0.129691
0.1251
0.120638
0.116303
0.112092
0.108005
0.104039
0.100192
0.0964619
0.0928467
0.089344
0.0859516
0.0826673
0.0794887
0.0764135
0.0734394
0.070564
0.067785
0.0651
0.0625067
0.0600028
0.0575859
0.0552537
0.053004
0.0508345
0.048743
0.0467272
0.044785
0.0429142
0.0411127
0.0393784
0.0377092
0.0361033
0.0345585
0.0330729
0.0316447
0.030272
0.0289528
0.0276858
0.0264684
0.0253003
0.0241777
0.0231022
0.0220676
0.0210789
0.0201253
0.0192185
0.018339
0.0175097
0.0166972
0.015942
0.0151893
0.0145054
0.0138049
0.0131907
0.0125345
0.0119892
0.011369
0.0108926
0.0103
0.00989343
0.00931989
0.00898396
0.0084219
0.00815633
0.00760109
0.00740169
0.00685453
0.00670991
0.00618141
0.00606999
0.00558193
0.00547166
0.00505518
0.00490787
0.00459652
0.00437708
0.00419579
0.003884
0.00383784
0.00343753
0.00350591
0.00304642
0.00318655
0.00271435
0.00287373
0.00243717
0.00256974
0.00220385
0.00228241
0.0020006
0.0020202
0.00181572
0.00178811
0.00164247
0.00158623
0.00147905
0.00141105
2.06547
2.41868
2.52132
2.53778
2.54496
2.44247
1.99728
1.97101
2.08261
2.48132
2.05441
0.715282
0.390148
0.384796
0.379948
0.374526
0.368486
0.361912
0.354986
0.347804
0.340434
0.33293
0.32533
0.317668
0.309972
0.302266
0.294572
0.286908
0.279291
0.271735
0.264253
0.256855
0.249551
0.242348
0.235254
0.228275
0.221414
0.214677
0.208067
0.201587
0.19524
0.189026
0.182949
0.177008
0.171205
0.165539
0.16001
0.154618
0.149362
0.144242
0.139256
0.134403
0.129682
0.125091
0.120629
0.116294
0.112084
0.107997
0.104031
0.100184
0.0964542
0.0928392
0.0893368
0.0859447
0.0826606
0.0794822
0.0764072
0.0734333
0.0705581
0.0677793
0.0650945
0.0625014
0.0599976
0.0575809
0.055249
0.0529994
0.0508301
0.0487387
0.0467231
0.044781
0.0429103
0.041109
0.0393748
0.0377058
0.0361
0.0345553
0.0330699
0.0316417
0.0302692
0.0289501
0.0276832
0.0264659
0.0252979
0.0241754
0.0231
0.0220654
0.0210769
0.0201234
0.0192166
0.0183372
0.017508
0.0166956
0.0159404
0.0151877
0.014504
0.0138035
0.0131894
0.0125332
0.011988
0.0113678
0.0108916
0.0102989
0.00989247
0.00931886
0.0089831
0.00842095
0.00815556
0.00760021
0.007401
0.00685373
0.00670927
0.00618068
0.00606939
0.00558129
0.00547108
0.00505465
0.00490729
0.0045961
0.0043765
0.00419545
0.00388343
0.00383757
0.00343699
0.00350567
0.00304594
0.00318632
0.00271394
0.00287348
0.00243683
0.00256948
0.00220358
0.00228215
0.00200038
0.00201995
0.00181552
0.00178788
0.0016423
0.00158603
0.00147889
0.00141087
4.89155
5.10919
5.16932
5.15625
5.2657
5.28974
4.72794
2.54937
1.77177
1.76439
1.78561
1.12156
0.439711
0.38475
0.379926
0.374511
0.368471
0.361896
0.35497
0.347787
0.340418
0.332913
0.325313
0.317651
0.309955
0.302249
0.294555
0.286892
0.279275
0.271719
0.264237
0.256839
0.249535
0.242333
0.23524
0.22826
0.2214
0.214663
0.208053
0.201574
0.195226
0.189014
0.182936
0.176996
0.171193
0.165527
0.159998
0.154607
0.149351
0.144231
0.139245
0.134393
0.129672
0.125081
0.12062
0.116285
0.112075
0.107988
0.104023
0.100176
0.0964465
0.0928317
0.0893295
0.0859376
0.0826538
0.0794756
0.0764008
0.0734271
0.0705522
0.0677735
0.0650889
0.062496
0.0599925
0.0575759
0.0552441
0.0529948
0.0508256
0.0487344
0.0467189
0.044777
0.0429065
0.0411052
0.0393712
0.0377024
0.0360966
0.0345521
0.0330668
0.0316388
0.0302663
0.0289474
0.0276806
0.0264634
0.0252955
0.0241731
0.0230978
0.0220633
0.0210749
0.0201214
0.0192148
0.0183354
0.0175063
0.0166939
0.0159388
0.0151862
0.0145025
0.0138021
0.0131881
0.0125319
0.0119868
0.0113666
0.0108905
0.0102978
0.00989148
0.00931784
0.00898221
0.00842
0.00815476
0.00759933
0.00740028
0.00685293
0.00670861
0.00617997
0.00606877
0.00558067
0.00547048
0.00505412
0.0049067
0.00459566
0.00437592
0.0041951
0.00388286
0.00383728
0.00343646
0.0035054
0.00304547
0.00318605
0.00271355
0.00287321
0.00243652
0.0025692
0.00220332
0.00228186
0.00200016
0.00201968
0.00181533
0.00178765
0.00164212
0.00158582
0.00147872
0.00141069
2.42809
1.77995
1.33753
1.15337
1.1954
1.86678
3.41384
3.65434
2.2508
1.15903
1.15937
0.889195
0.495858
0.384708
0.379903
0.374494
0.368455
0.36188
0.354953
0.347771
0.340401
0.332896
0.325296
0.317634
0.309938
0.302233
0.294539
0.286875
0.279258
0.271703
0.264221
0.256824
0.24952
0.242318
0.235224
0.228245
0.221385
0.214649
0.208039
0.20156
0.195213
0.189
0.182924
0.176983
0.17118
0.165515
0.159987
0.154595
0.14934
0.14422
0.139235
0.134382
0.129662
0.125072
0.12061
0.116276
0.112066
0.10798
0.104014
0.100168
0.0964387
0.0928242
0.0893222
0.0859305
0.0826469
0.079469
0.0763944
0.0734209
0.0705461
0.0677677
0.0650833
0.0624906
0.0599872
0.0575709
0.0552393
0.0529901
0.0508211
0.04873
0.0467147
0.0447729
0.0429026
0.0411015
0.0393676
0.0376989
0.0360933
0.0345489
0.0330637
0.0316358
0.0302635
0.0289446
0.0276779
0.0264609
0.0252931
0.0241708
0.0230956
0.0220612
0.0210728
0.0201194
0.0192129
0.0183336
0.0175045
0.0166922
0.0159372
0.0151847
0.0145011
0.0138006
0.0131868
0.0125306
0.0119856
0.0113654
0.0108894
0.0102967
0.00989048
0.00931681
0.0089813
0.00841906
0.00815394
0.00759846
0.00739953
0.00685213
0.00670792
0.00617926
0.00606812
0.00558004
0.00546986
0.00505359
0.00490609
0.00459523
0.00437532
0.00419474
0.0038823
0.00383696
0.00343595
0.00350511
0.00304502
0.00318575
0.00271317
0.0028729
0.00243622
0.00256888
0.00220308
0.00228156
0.00199996
0.0020194
0.00181514
0.0017874
0.00164194
0.0015856
0.00147855
0.00141051
0.584315
0.512587
0.521575
0.551453
0.574139
0.682248
1.43829
2.97342
2.7459
1.14748
0.684962
0.556862
0.434423
0.385183
0.379876
0.374475
0.368438
0.361863
0.354936
0.347754
0.340384
0.332879
0.325279
0.317617
0.309921
0.302216
0.294522
0.286858
0.279242
0.271686
0.264205
0.256808
0.249504
0.242302
0.235209
0.22823
0.221371
0.214634
0.208025
0.201546
0.195199
0.188987
0.182911
0.176971
0.171168
0.165503
0.159975
0.154584
0.149329
0.144209
0.139224
0.134372
0.129652
0.125062
0.120601
0.116267
0.112057
0.107971
0.104006
0.10016
0.0964308
0.0928166
0.0893148
0.0859234
0.08264
0.0794623
0.0763879
0.0734147
0.0705401
0.0677619
0.0650777
0.0624851
0.059982
0.0575658
0.0552343
0.0529853
0.0508165
0.0487256
0.0467104
0.0447688
0.0428986
0.0410977
0.0393639
0.0376954
0.0360899
0.0345456
0.0330606
0.0316328
0.0302606
0.0289418
0.0276752
0.0264583
0.0252906
0.0241684
0.0230933
0.022059
0.0210707
0.0201174
0.0192109
0.0183317
0.0175028
0.0166906
0.0159356
0.0151831
0.0144996
0.0137992
0.0131854
0.0125292
0.0119843
0.0113642
0.0108883
0.0102956
0.00988945
0.00931579
0.00898037
0.00841811
0.00815309
0.0075976
0.00739876
0.00685135
0.00670721
0.00617855
0.00606745
0.00557943
0.00546922
0.00505307
0.00490547
0.00459478
0.00437473
0.00419437
0.00388173
0.00383663
0.00343544
0.00350479
0.00304459
0.00318543
0.00271282
0.00287256
0.00243594
0.00256854
0.00220285
0.00228123
0.00199976
0.00201911
0.00181496
0.00178714
0.00164176
0.00158538
0.00147837
0.00141031
0.454129
0.471448
0.496425
0.552821
0.783529
0.769718
0.753314
1.64097
2.30853
1.37018
0.50451
0.415222
0.394615
0.385089
0.379845
0.374456
0.368421
0.361846
0.354919
0.347736
0.340366
0.332861
0.325261
0.3176
0.309904
0.302198
0.294505
0.286841
0.279225
0.27167
0.264188
0.256791
0.249488
0.242287
0.235194
0.228215
0.221356
0.21462
0.208011
0.201532
0.195186
0.188974
0.182898
0.176958
0.171156
0.165491
0.159963
0.154572
0.149318
0.144198
0.139214
0.134362
0.129642
0.125052
0.120592
0.116257
0.112048
0.107962
0.103997
0.100152
0.0964229
0.0928089
0.0893074
0.0859162
0.082633
0.0794555
0.0763814
0.0734083
0.070534
0.067756
0.065072
0.0624796
0.0599766
0.0575607
0.0552294
0.0529806
0.0508119
0.0487212
0.0467062
0.0447647
0.0428946
0.0410939
0.0393603
0.0376918
0.0360865
0.0345423
0.0330574
0.0316297
0.0302576
0.028939
0.0276725
0.0264557
0.0252881
0.024166
0.023091
0.0220568
0.0210686
0.0201154
0.019209
0.0183299
0.017501
0.0166888
0.015934
0.0151815
0.0144981
0.0137978
0.013184
0.0125279
0.0119831
0.011363
0.0108871
0.0102945
0.0098884
0.00931476
0.00897941
0.00841717
0.00815222
0.00759674
0.00739796
0.00685057
0.00670647
0.00617786
0.00606676
0.00557882
0.00546856
0.00505255
0.00490484
0.00459434
0.00437412
0.00419398
0.00388118
0.00383628
0.00343495
0.00350444
0.00304417
0.00318507
0.00271249
0.0028722
0.00243567
0.00256818
0.00220264
0.00228089
0.00199957
0.00201879
0.00181478
0.00178687
0.00164158
0.00158515
0.0014782
0.00141012
0.443693
0.493084
0.68508
1.13944
1.9535
1.95818
1.33767
1.27714
1.76157
1.35661
0.529883
0.399094
0.388963
0.384593
0.379837
0.374436
0.368403
0.361828
0.354901
0.347718
0.340348
0.332843
0.325244
0.317582
0.309886
0.302181
0.294487
0.286824
0.279208
0.271653
0.264172
0.256775
0.249472
0.242271
0.235178
0.2282
0.221341
0.214605
0.207997
0.201518
0.195172
0.18896
0.182884
0.176945
0.171143
0.165478
0.159951
0.154561
0.149306
0.144187
0.139203
0.134351
0.129632
0.125042
0.120582
0.116248
0.112039
0.107954
0.103989
0.100143
0.0964149
0.0928011
0.0892999
0.0859089
0.082626
0.0794487
0.0763748
0.073402
0.0705278
0.06775
0.0650662
0.0624741
0.0599713
0.0575555
0.0552244
0.0529757
0.0508072
0.0487167
0.0467018
0.0447605
0.0428906
0.04109
0.0393565
0.0376882
0.0360831
0.034539
0.0330542
0.0316267
0.0302547
0.0289362
0.0276698
0.0264531
0.0252856
0.0241636
0.0230887
0.0220546
0.0210665
0.0201133
0.019207
0.018328
0.0174992
0.0166871
0.0159323
0.0151799
0.0144966
0.0137963
0.0131826
0.0125266
0.0119818
0.0113617
0.0108859
0.0102934
0.00988734
0.00931373
0.00897844
0.00841624
0.00815133
0.00759589
0.00739714
0.0068498
0.00670571
0.00617718
0.00606604
0.00557823
0.00546788
0.00505203
0.00490419
0.00459389
0.00437352
0.00419358
0.00388063
0.00383591
0.00343447
0.00350407
0.00304378
0.00318469
0.00271218
0.00287181
0.00243543
0.00256779
0.00220244
0.00228052
0.00199939
0.00201847
0.00181461
0.00178659
0.00164141
0.00158492
0.00147803
0.00140992
0.548115
0.956221
1.64509
2.25722
2.57564
2.58402
2.46325
1.77126
1.54072
1.20913
0.580653
0.397949
0.388523
0.384416
0.379798
0.374416
0.368384
0.361809
0.354882
0.3477
0.34033
0.332825
0.325225
0.317564
0.309868
0.302163
0.294469
0.286807
0.279191
0.271636
0.264155
0.256758
0.249456
0.242255
0.235163
0.228184
0.221326
0.21459
0.207982
0.201504
0.195158
0.188947
0.182871
0.176932
0.17113
0.165466
0.159939
0.154549
0.149295
0.144176
0.139192
0.134341
0.129621
0.125032
0.120572
0.116239
0.11203
0.107945
0.10398
0.100135
0.0964068
0.0927933
0.0892923
0.0859016
0.0826189
0.0794418
0.0763682
0.0733955
0.0705216
0.067744
0.0650604
0.0624685
0.0599659
0.0575503
0.0552194
0.0529709
0.0508026
0.0487122
0.0466975
0.0447564
0.0428866
0.0410861
0.0393528
0.0376846
0.0360796
0.0345357
0.033051
0.0316236
0.0302517
0.0289333
0.0276671
0.0264505
0.0252831
0.0241612
0.0230864
0.0220523
0.0210643
0.0201113
0.0192051
0.0183261
0.0174974
0.0166854
0.0159307
0.0151783
0.014495
0.0137948
0.0131812
0.0125252
0.0119805
0.0113605
0.0108848
0.0102922
0.00988626
0.00931271
0.00897745
0.00841531
0.00815042
0.00759504
0.0073963
0.00684905
0.00670493
0.00617651
0.00606531
0.00557764
0.00546718
0.00505152
0.00490354
0.00459345
0.00437291
0.00419318
0.00388009
0.00383552
0.00343401
0.00350368
0.00304341
0.00318429
0.00271189
0.00287139
0.00243521
0.00256739
0.00220226
0.00228015
0.00199923
0.00201814
0.00181444
0.00178631
0.00164124
0.00158468
0.00147785
0.00140972
1.06125
1.93787
2.50448
2.54527
2.39422
2.58703
2.56874
2.33688
1.85105
1.6242
0.783626
0.409896
0.388297
0.384365
0.379779
0.374395
0.368365
0.36179
0.354864
0.347681
0.340311
0.332807
0.325207
0.317545
0.30985
0.302145
0.294452
0.286789
0.279173
0.271619
0.264138
0.256742
0.249439
0.242239
0.235147
0.228169
0.22131
0.214575
0.207967
0.201489
0.195144
0.188933
0.182858
0.176919
0.171118
0.165454
0.159927
0.154537
0.149283
0.144165
0.139181
0.13433
0.129611
0.125022
0.120563
0.116229
0.112021
0.107936
0.103972
0.100127
0.0963987
0.0927854
0.0892847
0.0858942
0.0826117
0.0794349
0.0763615
0.0733891
0.0705154
0.067738
0.0650546
0.0624628
0.0599604
0.057545
0.0552143
0.052966
0.0507978
0.0487076
0.0466931
0.0447521
0.0428825
0.0410822
0.039349
0.037681
0.0360761
0.0345323
0.0330478
0.0316205
0.0302487
0.0289305
0.0276643
0.0264478
0.0252805
0.0241587
0.023084
0.0220501
0.0210622
0.0201092
0.0192031
0.0183242
0.0174955
0.0166836
0.015929
0.0151767
0.0144935
0.0137934
0.0131798
0.0125239
0.0119792
0.0113593
0.0108836
0.0102911
0.00988517
0.00931169
0.00897645
0.00841438
0.00814949
0.00759421
0.00739544
0.0068483
0.00670413
0.00617585
0.00606455
0.00557706
0.00546647
0.00505102
0.00490287
0.004593
0.0043723
0.00419277
0.00387955
0.00383512
0.00343356
0.00350327
0.00304306
0.00318386
0.00271163
0.00287095
0.00243501
0.00256696
0.00220209
0.00227975
0.00199907
0.0020178
0.00181428
0.00178602
0.00164107
0.00158445
0.00147769
0.00140952
1.92622
2.03326
1.92449
1.33155
0.853548
1.30523
2.56525
2.56375
1.91195
1.29297
1.05808
0.528119
0.388152
0.384303
0.379741
0.374372
0.368345
0.361771
0.354844
0.347661
0.340292
0.332788
0.325188
0.317527
0.309831
0.302127
0.294433
0.286771
0.279155
0.271601
0.264121
0.256725
0.249423
0.242222
0.235131
0.228153
0.221295
0.21456
0.207953
0.201475
0.19513
0.188919
0.182844
0.176906
0.171105
0.165441
0.159915
0.154525
0.149272
0.144154
0.13917
0.13432
0.129601
0.125012
0.120553
0.11622
0.112012
0.107927
0.103963
0.100118
0.0963905
0.0927775
0.089277
0.0858867
0.0826045
0.0794279
0.0763547
0.0733826
0.070509
0.0677319
0.0650487
0.0624571
0.0599549
0.0575397
0.0552092
0.0529611
0.0507931
0.048703
0.0466887
0.0447479
0.0428784
0.0410782
0.0393452
0.0376773
0.0360726
0.0345289
0.0330445
0.0316174
0.0302457
0.0289276
0.0276616
0.0264451
0.025278
0.0241563
0.0230817
0.0220478
0.02106
0.0201071
0.0192011
0.0183223
0.0174937
0.0166819
0.0159273
0.0151751
0.0144919
0.0137919
0.0131784
0.0125225
0.0119779
0.0113581
0.0108824
0.01029
0.00988405
0.00931068
0.00897542
0.00841346
0.00814855
0.00759339
0.00739456
0.00684757
0.0067033
0.0061752
0.00606378
0.0055765
0.00546575
0.00505052
0.0049022
0.00459256
0.0043717
0.00419235
0.00387903
0.0038347
0.00343313
0.00350283
0.00304273
0.0031834
0.00271138
0.00287049
0.00243483
0.00256651
0.00220195
0.00227934
0.00199893
0.00201744
0.00181413
0.00178573
0.00164091
0.0015842
0.00147752
0.00140932
2.07668
1.82297
0.896851
0.564023
0.538228
0.578348
1.51657
2.37721
1.90354
1.08353
0.70217
0.452617
0.388272
0.384196
0.379689
0.374349
0.368325
0.36175
0.354824
0.347642
0.340273
0.332768
0.325169
0.317508
0.309813
0.302108
0.294415
0.286753
0.279138
0.271584
0.264103
0.256708
0.249406
0.242206
0.235114
0.228137
0.221279
0.214545
0.207938
0.20146
0.195116
0.188905
0.182831
0.176893
0.171092
0.165428
0.159902
0.154513
0.14926
0.144142
0.139159
0.134309
0.12959
0.125002
0.120543
0.11621
0.112002
0.107918
0.103954
0.10011
0.0963823
0.0927695
0.0892692
0.0858792
0.0825972
0.0794209
0.0763479
0.073376
0.0705027
0.0677257
0.0650428
0.0624514
0.0599494
0.0575344
0.055204
0.0529561
0.0507883
0.0486984
0.0466842
0.0447436
0.0428743
0.0410743
0.0393414
0.0376737
0.036069
0.0345255
0.0330412
0.0316142
0.0302427
0.0289247
0.0276588
0.0264425
0.0252754
0.0241538
0.0230793
0.0220455
0.0210578
0.020105
0.0191991
0.0183203
0.0174918
0.0166801
0.0159256
0.0151735
0.0144904
0.0137904
0.0131769
0.0125212
0.0119766
0.0113568
0.0108811
0.0102889
0.00988293
0.00930966
0.00897438
0.00841255
0.00814758
0.00759257
0.00739366
0.00684685
0.00670246
0.00617457
0.00606299
0.00557594
0.00546501
0.00505003
0.00490152
0.00459211
0.00437109
0.00419192
0.00387851
0.00383426
0.00343272
0.00350237
0.00304241
0.00318292
0.00271116
0.00287
0.00243467
0.00256604
0.00220182
0.00227892
0.0019988
0.00201708
0.00181399
0.00178543
0.00164075
0.00158396
0.00147735
0.00140912
1.29197
0.751271
0.536698
0.510467
0.517959
0.521238
0.8704
1.73478
1.57305
0.860933
0.46372
0.399031
0.387588
0.384092
0.379649
0.374326
0.368304
0.36173
0.354804
0.347622
0.340253
0.332749
0.32515
0.317488
0.309794
0.302089
0.294397
0.286735
0.27912
0.271566
0.264086
0.256691
0.249389
0.242189
0.235098
0.228121
0.221264
0.21453
0.207923
0.201446
0.195101
0.188891
0.182817
0.176879
0.171079
0.165416
0.15989
0.154501
0.149248
0.144131
0.139148
0.134298
0.12958
0.124992
0.120533
0.1162
0.111993
0.107909
0.103945
0.100101
0.0963739
0.0927614
0.0892614
0.0858717
0.0825899
0.0794138
0.0763411
0.0733694
0.0704963
0.0677195
0.0650368
0.0624456
0.0599438
0.057529
0.0551988
0.0529511
0.0507835
0.0486938
0.0466798
0.0447393
0.0428701
0.0410703
0.0393375
0.0376699
0.0360654
0.0345221
0.0330379
0.031611
0.0302396
0.0289217
0.0276559
0.0264397
0.0252728
0.0241513
0.0230769
0.0220432
0.0210556
0.0201029
0.019197
0.0183184
0.01749
0.0166783
0.0159239
0.0151719
0.0144888
0.0137889
0.0131755
0.0125198
0.0119752
0.0113556
0.0108799
0.0102878
0.00988178
0.00930865
0.00897332
0.00841164
0.00814659
0.00759176
0.00739274
0.00684613
0.00670159
0.00617394
0.00606217
0.0055754
0.00546425
0.00504955
0.00490082
0.00459166
0.00437047
0.00419148
0.00387799
0.00383381
0.00343232
0.00350189
0.00304212
0.00318241
0.00271096
0.00286949
0.00243453
0.00256555
0.0022017
0.00227848
0.00199868
0.00201671
0.00181385
0.00178512
0.0016406
0.00158371
0.00147719
0.00140892
0.65279
0.489163
0.482828
0.496839
0.51078
0.507368
0.701957
1.47722
1.1931
0.591631
0.394341
0.392908
0.387002
0.383991
0.379622
0.374303
0.368282
0.361708
0.354783
0.347601
0.340232
0.332729
0.32513
0.317469
0.309774
0.30207
0.294378
0.286716
0.279101
0.271548
0.264068
0.256673
0.249372
0.242172
0.235082
0.228105
0.221248
0.214514
0.207907
0.201431
0.195087
0.188877
0.182803
0.176866
0.171066
0.165403
0.159877
0.154489
0.149236
0.144119
0.139136
0.134287
0.129569
0.124981
0.120523
0.116191
0.111983
0.107899
0.103936
0.100093
0.0963655
0.0927533
0.0892535
0.0858641
0.0825825
0.0794067
0.0763342
0.0733627
0.0704898
0.0677133
0.0650308
0.0624398
0.0599382
0.0575236
0.0551936
0.052946
0.0507786
0.0486891
0.0466752
0.0447349
0.0428659
0.0410662
0.0393336
0.0376662
0.0360618
0.0345186
0.0330346
0.0316078
0.0302366
0.0289188
0.0276531
0.026437
0.0252702
0.0241488
0.0230745
0.0220409
0.0210534
0.0201008
0.019195
0.0183164
0.0174881
0.0166765
0.0159221
0.0151702
0.0144872
0.0137874
0.013174
0.0125185
0.0119739
0.0113543
0.0108786
0.0102866
0.00988062
0.00930764
0.00897224
0.00841074
0.00814559
0.00759096
0.00739179
0.00684543
0.00670071
0.00617333
0.00606134
0.00557486
0.00546347
0.00504907
0.00490012
0.00459121
0.00436986
0.00419104
0.00387749
0.00383334
0.00343193
0.00350139
0.00304185
0.00318188
0.00271078
0.00286895
0.00243441
0.00256504
0.0022016
0.00227802
0.00199858
0.00201632
0.00181372
0.00178481
0.00164045
0.00158346
0.00147703
0.00140871
0.473132
0.448715
0.469224
0.487909
0.501753
0.498248
0.611712
1.471
1.28311
0.668089
0.393329
0.390714
0.386451
0.383847
0.379572
0.37427
0.36825
0.361676
0.354751
0.347569
0.340201
0.332698
0.3251
0.317439
0.309745
0.302041
0.294349
0.286688
0.279074
0.27152
0.264041
0.256647
0.249346
0.242147
0.235057
0.228081
0.221224
0.21449
0.207884
0.201408
0.195065
0.188855
0.182782
0.176845
0.171046
0.165383
0.159858
0.15447
0.149218
0.144102
0.139119
0.13427
0.129553
0.124966
0.120508
0.116176
0.111969
0.107885
0.103923
0.100079
0.0963529
0.092741
0.0892416
0.0858525
0.0825714
0.0793959
0.0763237
0.0733526
0.0704801
0.0677039
0.0650216
0.062431
0.0599297
0.0575154
0.0551857
0.0529384
0.0507712
0.048682
0.0466684
0.0447283
0.0428596
0.0410601
0.0393278
0.0376605
0.0360564
0.0345134
0.0330296
0.031603
0.0302319
0.0289143
0.0276488
0.0264329
0.0252662
0.024145
0.0230708
0.0220374
0.02105
0.0200975
0.0191919
0.0183135
0.0174852
0.0166738
0.0159195
0.0151677
0.0144848
0.0137851
0.0131718
0.0125164
0.0119718
0.0113525
0.0108767
0.0102849
0.00987885
0.00930612
0.00897059
0.00840939
0.00814405
0.00758976
0.00739035
0.00684438
0.00669934
0.00617242
0.00606006
0.00557406
0.00546229
0.00504835
0.00489905
0.00459053
0.00436893
0.00419035
0.00387674
0.00383261
0.00343137
0.0035006
0.00304147
0.00318105
0.00271054
0.00286811
0.00243426
0.00256424
0.00220147
0.00227731
0.00199843
0.00201572
0.00181354
0.00178433
0.00164022
0.00158307
0.00147678
0.0014084
0.409117
0.427261
0.457786
0.489796
0.666398
0.672233
0.608315
1.26942
1.85355
1.10005
0.466938
0.387459
0.385795
0.383714
0.379519
0.374224
0.368203
0.36163
0.354706
0.347526
0.340159
0.332656
0.325058
0.317399
0.309705
0.302002
0.29431
0.286649
0.279036
0.271483
0.264005
0.256611
0.249311
0.242112
0.235023
0.228047
0.221191
0.214459
0.207853
0.201378
0.195035
0.188826
0.182754
0.176817
0.171018
0.165357
0.159833
0.154445
0.149194
0.144078
0.139096
0.134248
0.129531
0.124945
0.120487
0.116156
0.11195
0.107867
0.103905
0.100062
0.0963357
0.0927244
0.0892255
0.0858369
0.0825563
0.0793813
0.0763096
0.0733389
0.0704669
0.0676911
0.0650093
0.0624191
0.0599182
0.0575043
0.055175
0.0529281
0.0507613
0.0486724
0.0466591
0.0447194
0.042851
0.0410518
0.0393198
0.0376529
0.036049
0.0345063
0.0330227
0.0315964
0.0302256
0.0289082
0.027643
0.0264273
0.0252608
0.0241398
0.0230658
0.0220326
0.0210454
0.0200932
0.0191877
0.0183094
0.0174814
0.0166701
0.0159159
0.0151644
0.0144815
0.013782
0.0131688
0.0125136
0.0119691
0.0113499
0.0108742
0.0102826
0.00987653
0.00930398
0.00896845
0.00840745
0.00814207
0.00758802
0.00738851
0.00684283
0.00669763
0.00617105
0.00605845
0.00557287
0.00546076
0.00504732
0.00489762
0.00458963
0.00436762
0.00418952
0.00387558
0.00383179
0.00343041
0.00349975
0.00304073
0.00318013
0.00271001
0.00286716
0.00243388
0.0025633
0.00220118
0.00227644
0.00199816
0.00201496
0.00181325
0.00178369
0.0016399
0.00158256
0.00147645
0.00140797
0.407771
0.452965
0.507123
0.635203
1.1678
1.2706
0.757421
1.21157
2.0015
1.99148
0.948124
0.412564
0.385346
0.383667
0.379493
0.374185
0.368154
0.361582
0.354659
0.34748
0.340114
0.332613
0.325016
0.317357
0.309664
0.301961
0.29427
0.28661
0.278997
0.271445
0.263967
0.256574
0.249275
0.242077
0.234988
0.228013
0.221158
0.214426
0.207821
0.201347
0.195004
0.188797
0.182725
0.176789
0.170991
0.16533
0.159806
0.15442
0.149169
0.144054
0.139073
0.134225
0.129509
0.124923
0.120466
0.116136
0.11193
0.107848
0.103886
0.100044
0.0963183
0.0927075
0.0892092
0.0858211
0.082541
0.0793665
0.0762953
0.0733251
0.0704535
0.0676782
0.0649968
0.062407
0.0599066
0.057493
0.0551641
0.0529176
0.0507512
0.0486626
0.0466497
0.0447104
0.0428423
0.0410434
0.0393117
0.0376451
0.0360415
0.0344991
0.0330158
0.0315897
0.0302192
0.0289021
0.027637
0.0264216
0.0252554
0.0241346
0.0230608
0.0220278
0.0210408
0.0200887
0.0191834
0.0183054
0.0174774
0.0166664
0.0159123
0.0151609
0.0144782
0.0137789
0.0131657
0.0125107
0.0119662
0.0113473
0.0108716
0.0102802
0.00987413
0.00930184
0.00896624
0.00840552
0.00814002
0.0075863
0.00738661
0.0068413
0.00669584
0.0061697
0.00605677
0.0055717
0.00545918
0.0050463
0.00489615
0.00458871
0.0043663
0.00418865
0.00387444
0.00383091
0.00342949
0.00349881
0.00304004
0.00317913
0.00270953
0.00286612
0.00243355
0.00256229
0.00220093
0.00227551
0.00199792
0.00201416
0.00181298
0.00178304
0.00163959
0.00158203
0.00147611
0.00140754
0.458138
0.522604
0.596541
0.970032
1.50061
1.50652
1.06522
0.97756
1.86485
2.1892
2.17279
1.15877
0.457799
0.383797
0.379584
0.37423
0.36812
0.361531
0.354611
0.347433
0.340069
0.332568
0.324972
0.317314
0.309621
0.301919
0.294229
0.28657
0.278958
0.271406
0.263929
0.256537
0.249238
0.242041
0.234953
0.227979
0.221124
0.214393
0.207789
0.201315
0.194974
0.188767
0.182695
0.17676
0.170963
0.165303
0.15978
0.154394
0.149144
0.144029
0.139049
0.134202
0.129486
0.124901
0.120445
0.116115
0.11191
0.107828
0.103867
0.100026
0.0963006
0.0926904
0.0891926
0.0858051
0.0825254
0.0793514
0.0762807
0.073311
0.0704399
0.067665
0.0649841
0.0623948
0.0598947
0.0574816
0.0551531
0.052907
0.0507409
0.0486527
0.0466402
0.0447012
0.0428334
0.0410349
0.0393035
0.0376372
0.0360339
0.0344918
0.0330088
0.031583
0.0302127
0.0288958
0.027631
0.0264158
0.0252498
0.0241293
0.0230557
0.0220229
0.0210361
0.0200842
0.0191791
0.0183012
0.0174734
0.0166626
0.0159087
0.0151574
0.0144748
0.0137757
0.0131626
0.0125078
0.0119634
0.0113447
0.010869
0.0102778
0.00987168
0.00929969
0.00896396
0.00840359
0.0081379
0.00758458
0.00738462
0.00683978
0.00669398
0.00616838
0.00605501
0.00557055
0.00545754
0.00504528
0.00489464
0.00458778
0.00436496
0.00418774
0.00387331
0.00382997
0.00342861
0.0034978
0.00303941
0.00317805
0.00270912
0.00286501
0.00243328
0.0025612
0.00220072
0.00227453
0.0019977
0.00201332
0.00181272
0.00178235
0.00163928
0.00158148
0.00147577
0.0014071
0.563911
0.63167
0.711145
1.4086
1.50413
1.51037
1.40364
0.973716
1.1388
2.17678
2.18968
1.35935
0.475948
0.384083
0.379717
0.374371
0.368146
0.36148
0.35456
0.347385
0.340021
0.332522
0.324927
0.317269
0.309578
0.301877
0.294188
0.286529
0.278917
0.271367
0.26389
0.256499
0.249201
0.242005
0.234917
0.227944
0.22109
0.214359
0.207756
0.201283
0.194942
0.188736
0.182665
0.176731
0.170935
0.165275
0.159753
0.154368
0.149118
0.144005
0.139025
0.134178
0.129464
0.124879
0.120423
0.116094
0.11189
0.107808
0.103848
0.100007
0.0962827
0.092673
0.0891758
0.0857887
0.0825096
0.0793362
0.076266
0.0732967
0.0704261
0.0676517
0.0649712
0.0623823
0.0598827
0.05747
0.0551419
0.0528961
0.0507305
0.0486427
0.0466305
0.0446918
0.0428244
0.0410262
0.0392952
0.0376292
0.0360262
0.0344843
0.0330016
0.0315761
0.0302061
0.0288895
0.0276249
0.02641
0.0252442
0.0241238
0.0230505
0.0220179
0.0210313
0.0200796
0.0191747
0.018297
0.0174694
0.0166587
0.0159049
0.0151539
0.0144714
0.0137725
0.0131594
0.0125049
0.0119604
0.011342
0.0108662
0.0102754
0.00986916
0.00929754
0.00896162
0.00840167
0.00813571
0.00758288
0.00738257
0.00683829
0.00669205
0.00616708
0.0060532
0.00556941
0.00545585
0.00504427
0.0048931
0.00458684
0.00436361
0.0041868
0.0038722
0.00382898
0.00342776
0.00349672
0.00303883
0.00317689
0.00270875
0.00286381
0.00243306
0.00256005
0.00220056
0.00227349
0.00199752
0.00201245
0.00181247
0.00178164
0.00163898
0.00158091
0.00147543
0.00140664
0.688412
0.762298
0.821218
1.47629
1.50673
1.51306
1.49212
1.04582
0.794612
1.22847
1.22181
0.765883
0.417643
0.384144
0.379674
0.374289
0.368081
0.361426
0.354508
0.347334
0.339972
0.332474
0.324881
0.317224
0.309534
0.301834
0.294145
0.286487
0.278876
0.271327
0.263851
0.25646
0.249163
0.241967
0.23488
0.227908
0.221055
0.214325
0.207723
0.20125
0.19491
0.188705
0.182635
0.176702
0.170906
0.165247
0.159726
0.154341
0.149092
0.143979
0.139
0.134155
0.12944
0.124856
0.120401
0.116073
0.111869
0.107788
0.103829
0.0999883
0.0962645
0.0926554
0.0891587
0.0857722
0.0824937
0.0793207
0.076251
0.0732822
0.0704121
0.0676382
0.0649582
0.0623697
0.0598706
0.0574583
0.0551306
0.0528853
0.05072
0.0486326
0.0466208
0.0446824
0.0428154
0.0410175
0.0392868
0.0376211
0.0360184
0.0344768
0.0329944
0.0315692
0.0301994
0.028883
0.0276188
0.026404
0.0252385
0.0241184
0.0230453
0.0220129
0.0210265
0.020075
0.0191702
0.0182928
0.0174653
0.0166548
0.0159011
0.0151504
0.0144679
0.0137693
0.0131562
0.0125019
0.0119575
0.0113393
0.0108635
0.010273
0.00986658
0.00929538
0.00895921
0.00839975
0.00813346
0.00758119
0.00738045
0.00683681
0.00669004
0.0061658
0.00605131
0.00556829
0.0054541
0.00504326
0.00489152
0.00458588
0.00436224
0.00418583
0.0038711
0.00382793
0.00342695
0.00349557
0.00303829
0.00317565
0.00270844
0.00286255
0.00243289
0.00255884
0.00220042
0.0022724
0.00199735
0.00201153
0.00181224
0.00178091
0.00163868
0.00158033
0.00147509
0.00140618
0.446792
0.814235
0.912919
1.21452
1.37648
1.51476
1.49566
1.26545