/*--------------------------------*- C++ -*----------------------------------*\
| =========                 |                                                 |
| \\      /  F ield         | OpenFOAM: The Open Source CFD Toolbox           |
|  \\    /   O peration     | Version:  v1912                                 |
|   \\  /    A nd           | Website:  www.openfoam.com                      |
|    \\/     M anipulation  |                                                 |
\*---------------------------------------------------------------------------*/
FoamFile
{
    version     2.0;
    format      ascii;
    class       volVectorField;
    location    "50";
    object      U;
}
// * * * * * * * * * * * * * * * * * * * * * * * * * * * * * * * * * * * * * //

dimensions      [0 1 -1 0 0 0 0];


internalField   nonuniform List<vector> 
14268
(
(0.452164 0.0302719 0)
(0.477686 0.0370948 0)
(0.518306 0.0429462 0)
(0.581206 0.0498728 0)
(0.672538 0.0592348 0)
(0.784379 0.0715985 0)
(0.877259 0.0843845 0)
(0.909245 0.0897103 0)
(0.908176 0.0895006 0)
(0.895676 0.0885334 0)
(0.865352 0.0861562 0)
(0.80534 0.0810576 0)
(0.736493 0.0742836 0)
(0.689499 0.0694141 0)
(0.652076 0.0656011 0)
(0.618756 0.0622266 0)
(0.588379 0.0591568 0)
(0.560592 0.0563498 0)
(0.53519 0.0537848 0)
(0.511852 0.0514299 0)
(0.490247 0.0492516 0)
(0.470108 0.0472224 0)
(0.451229 0.0453212 0)
(0.433449 0.0435316 0)
(0.416641 0.0418404 0)
(0.400701 0.0402372 0)
(0.385545 0.0387133 0)
(0.371105 0.0372616 0)
(0.35732 0.0358762 0)
(0.34414 0.0345518 0)
(0.331522 0.033284 0)
(0.319428 0.032069 0)
(0.307823 0.0309033 0)
(0.296678 0.029784 0)
(0.285967 0.0287082 0)
(0.275664 0.0276736 0)
(0.265749 0.026678 0)
(0.2562 0.0257193 0)
(0.247001 0.0247957 0)
(0.238135 0.0239055 0)
(0.229585 0.0230472 0)
(0.221339 0.0222193 0)
(0.213382 0.0214206 0)
(0.205703 0.0206498 0)
(0.19829 0.0199057 0)
(0.191133 0.0191873 0)
(0.184222 0.0184936 0)
(0.177547 0.0178236 0)
(0.171099 0.0171765 0)
(0.164871 0.0165514 0)
(0.158855 0.0159475 0)
(0.153042 0.0153641 0)
(0.147426 0.0148005 0)
(0.142002 0.014256 0)
(0.136761 0.01373 0)
(0.131698 0.0132219 0)
(0.126807 0.012731 0)
(0.122083 0.0122568 0)
(0.117519 0.0117988 0)
(0.113111 0.0113564 0)
(0.108854 0.0109291 0)
(0.104743 0.0105165 0)
(0.100774 0.0101181 0)
(0.0969412 0.00973339 0)
(0.0932413 0.00936203 0)
(0.08967 0.00900356 0)
(0.086223 0.00865758 0)
(0.0828967 0.0083237 0)
(0.079687 0.00800153 0)
(0.0765905 0.00769071 0)
(0.0736034 0.00739087 0)
(0.0707224 0.00710167 0)
(0.0679441 0.00682278 0)
(0.0652652 0.00655387 0)
(0.0626825 0.00629461 0)
(0.0601929 0.0060447 0)
(0.0577935 0.00580383 0)
(0.0554814 0.00557172 0)
(0.0532537 0.00534809 0)
(0.0511077 0.00513265 0)
(0.0490408 0.00492514 0)
(0.0470502 0.0047253 0)
(0.0451336 0.00453288 0)
(0.0432885 0.00434764 0)
(0.0415124 0.00416932 0)
(0.0398031 0.00399771 0)
(0.0381584 0.00383258 0)
(0.036576 0.0036737 0)
(0.0350538 0.00352087 0)
(0.0335899 0.00337388 0)
(0.0321821 0.00323253 0)
(0.0308287 0.00309663 0)
(0.0295276 0.00296598 0)
(0.028277 0.00284041 0)
(0.0270753 0.00271974 0)
(0.0259206 0.00260379 0)
(0.0248114 0.00249241 0)
(0.0237459 0.00238541 0)
(0.0227227 0.00228267 0)
(0.0217402 0.002184 0)
(0.0207971 0.00208928 0)
(0.0198917 0.00199836 0)
(0.0190228 0.0019111 0)
(0.018189 0.00182736 0)
(0.0173891 0.00174702 0)
(0.0166217 0.00166996 0)
(0.0158857 0.00159604 0)
(0.01518 0.00152516 0)
(0.0145033 0.00145719 0)
(0.0138546 0.00139204 0)
(0.0132329 0.00132959 0)
(0.012637 0.00126975 0)
(0.0120661 0.0012124 0)
(0.0115192 0.00115747 0)
(0.0109953 0.00110483 0)
(0.0104935 0.00105444 0)
(0.010013 0.00100617 0)
(0.00955304 0.000959971 0)
(0.00911273 0.000915728 0)
(0.00869129 0.000873405 0)
(0.00828803 0.000832883 0)
(0.00790218 0.000794132 0)
(0.00753309 0.000757044 0)
(0.00718008 0.000721587 0)
(0.00684246 0.000687664 0)
(0.00651973 0.000655242 0)
(0.00621108 0.000624235 0)
(0.00591623 0.000594606 0)
(0.00563426 0.000566284 0)
(0.00536503 0.000539223 0)
(0.0051076 0.00051337 0)
(0.0048619 0.000488669 0)
(0.00462705 0.000465086 0)
(0.00440297 0.000442557 0)
(0.00418891 0.000421061 0)
(0.00398468 0.000400528 0)
(0.00378972 0.000380948 0)
(0.00360368 0.000362247 0)
(0.00342625 0.000344423 0)
(0.0032569 0.000327402 0)
(0.00309551 0.000311185 0)
(0.00294148 0.000295707 0)
(0.00279475 0.00028096 0)
(0.00265478 0.000266895 0)
(0.00252142 0.000253492 0)
(0.0023943 0.000240719 0)
(0.00227306 0.000228533 0)
(0.00215762 0.000216936 0)
(0.00204679 0.000205794 0)
(0.00194303 0.000195347 0)
(0.502118 0.0636955 0)
(0.53547 0.0622899 0)
(0.578106 0.0639466 0)
(0.637578 0.0681115 0)
(0.724811 0.0753536 0)
(0.835315 0.085409 0)
(0.947787 0.0958204 0)
(0.997126 0.100475 0)
(0.988494 0.100769 0)
(0.950023 0.0967201 0)
(0.877183 0.0898006 0)
(0.79051 0.0813469 0)
(0.730749 0.0749031 0)
(0.687942 0.070075 0)
(0.651622 0.0662403 0)
(0.618424 0.0628161 0)
(0.587999 0.0596921 0)
(0.560182 0.0568339 0)
(0.534772 0.0542246 0)
(0.511436 0.0518328 0)
(0.489836 0.0496238 0)
(0.469703 0.047569 0)
(0.45083 0.0456459 0)
(0.433057 0.0438372 0)
(0.416256 0.0421291 0)
(0.400324 0.0405107 0)
(0.385176 0.0389731 0)
(0.370744 0.0375089 0)
(0.356967 0.036112 0)
(0.343796 0.034777 0)
(0.331186 0.0334995 0)
(0.3191 0.0322754 0)
(0.307503 0.0311012 0)
(0.296367 0.0299739 0)
(0.285663 0.0288906 0)
(0.275369 0.0278489 0)
(0.265461 0.0268466 0)
(0.255921 0.0258816 0)
(0.246729 0.024952 0)
(0.23787 0.0240561 0)
(0.229328 0.0231924 0)
(0.221089 0.0223593 0)
(0.213139 0.0215557 0)
(0.205467 0.0207801 0)
(0.198062 0.0200315 0)
(0.190911 0.0193087 0)
(0.184007 0.0186108 0)
(0.177338 0.0179368 0)
(0.170897 0.0172858 0)
(0.164675 0.016657 0)
(0.158665 0.0160496 0)
(0.152858 0.0154627 0)
(0.147248 0.0148957 0)
(0.141829 0.0143481 0)
(0.136594 0.013819 0)
(0.131537 0.0133079 0)
(0.126651 0.0128141 0)
(0.121932 0.0123371 0)
(0.117373 0.0118763 0)
(0.11297 0.0114313 0)
(0.108718 0.0110014 0)
(0.104611 0.0105864 0)
(0.100646 0.0101856 0)
(0.0968182 0.00979859 0)
(0.0931226 0.00942499 0)
(0.0895554 0.00906436 0)
(0.0861125 0.00871628 0)
(0.08279 0.00838037 0)
(0.0795842 0.00805623 0)
(0.0764913 0.0077435 0)
(0.0735078 0.00744181 0)
(0.0706302 0.00715083 0)
(0.0678552 0.0068702 0)
(0.0651796 0.00659961 0)
(0.0626001 0.00633872 0)
(0.0601136 0.00608724 0)
(0.0577171 0.00584485 0)
(0.0554079 0.00561126 0)
(0.053183 0.0053862 0)
(0.0510397 0.00516938 0)
(0.0489753 0.00496053 0)
(0.0469873 0.0047594 0)
(0.0450731 0.00456572 0)
(0.0432303 0.00437926 0)
(0.0414565 0.00419978 0)
(0.0397494 0.00402703 0)
(0.0381067 0.0038608 0)
(0.0365264 0.00370086 0)
(0.0350062 0.00354701 0)
(0.0335442 0.00339903 0)
(0.0321383 0.00325672 0)
(0.0307865 0.0031199 0)
(0.0294871 0.00298836 0)
(0.0282382 0.00286193 0)
(0.0270381 0.00274043 0)
(0.0258849 0.00262368 0)
(0.0247772 0.00251151 0)
(0.0237131 0.00240377 0)
(0.0226913 0.0023003 0)
(0.0217101 0.00220094 0)
(0.0207682 0.00210555 0)
(0.019864 0.00201398 0)
(0.0189963 0.0019261 0)
(0.0181636 0.00184176 0)
(0.0173648 0.00176084 0)
(0.0165984 0.00168322 0)
(0.0158635 0.00160876 0)
(0.0151586 0.00153736 0)
(0.0144829 0.0014689 0)
(0.0138351 0.00140327 0)
(0.0132142 0.00134035 0)
(0.0126192 0.00128007 0)
(0.012049 0.00122228 0)
(0.0115028 0.00116695 0)
(0.0109796 0.00111391 0)
(0.0104785 0.00106314 0)
(0.00999877 0.00101449 0)
(0.00953939 0.000967955 0)
(0.0090997 0.000923362 0)
(0.00867883 0.000880723 0)
(0.00827613 0.000839879 0)
(0.00789081 0.000800835 0)
(0.00752223 0.000763451 0)
(0.00716971 0.000727721 0)
(0.00683256 0.00069353 0)
(0.00651027 0.000660851 0)
(0.00620205 0.000629601 0)
(0.00590761 0.000599732 0)
(0.00562603 0.00057119 0)
(0.00535718 0.000543903 0)
(0.00510011 0.000517853 0)
(0.00485475 0.00049294 0)
(0.00462023 0.000469178 0)
(0.00439647 0.000446453 0)
(0.0041827 0.000424792 0)
(0.00397876 0.00040408 0)
(0.00378408 0.000384346 0)
(0.0035983 0.000365483 0)
(0.00342112 0.000347515 0)
(0.00325201 0.000330349 0)
(0.00309084 0.000313997 0)
(0.00293703 0.000298388 0)
(0.0027905 0.000283515 0)
(0.00265073 0.000269333 0)
(0.00251756 0.000255812 0)
(0.00239062 0.000242934 0)
(0.00226955 0.000230642 0)
(0.00215428 0.000218953 0)
(0.0020436 0.000207711 0)
(0.00194 0.000197135 0)
(0.49381 0.0333537 0)
(0.524785 0.0400912 0)
(0.5669 0.0453618 0)
(0.627443 0.0511316 0)
(0.716246 0.059021 0)
(0.825039 0.0701497 0)
(0.929125 0.0847091 0)
(0.979518 0.0946271 0)
(0.974152 0.0974273 0)
(0.938611 0.0954243 0)
(0.869753 0.0896668 0)
(0.784517 0.0816547 0)
(0.726857 0.0752738 0)
(0.686638 0.0706688 0)
(0.65118 0.0669173 0)
(0.61805 0.0634581 0)
(0.587567 0.0602721 0)
(0.559724 0.0573567 0)
(0.534319 0.0546996 0)
(0.510997 0.0522686 0)
(0.489415 0.050027 0)
(0.4693 0.0479444 0)
(0.450445 0.0459972 0)
(0.432689 0.0441675 0)
(0.415903 0.042441 0)
(0.399985 0.0408061 0)
(0.384852 0.0392536 0)
(0.370432 0.0377759 0)
(0.356668 0.0363666 0)
(0.343509 0.0350203 0)
(0.33091 0.0337322 0)
(0.318835 0.0324983 0)
(0.307248 0.0313149 0)
(0.296122 0.030179 0)
(0.285427 0.0290877 0)
(0.275142 0.0280384 0)
(0.265243 0.0270289 0)
(0.25571 0.026057 0)
(0.246527 0.025121 0)
(0.237675 0.0242189 0)
(0.22914 0.0233493 0)
(0.220908 0.0225107 0)
(0.212965 0.0217017 0)
(0.2053 0.020921 0)
(0.1979 0.0201675 0)
(0.190756 0.01944 0)
(0.183857 0.0187377 0)
(0.177194 0.0180593 0)
(0.170758 0.0174042 0)
(0.164541 0.0167713 0)
(0.158536 0.0161599 0)
(0.152734 0.0155694 0)
(0.147129 0.0149988 0)
(0.141714 0.0144477 0)
(0.136483 0.0139151 0)
(0.13143 0.0134008 0)
(0.126548 0.0129038 0)
(0.121833 0.0124238 0)
(0.117278 0.0119601 0)
(0.112878 0.0115122 0)
(0.108629 0.0110796 0)
(0.104526 0.0106619 0)
(0.100564 0.0102585 0)
(0.0967394 0.00986897 0)
(0.0930468 0.00949294 0)
(0.0894825 0.00912995 0)
(0.0860423 0.0087796 0)
(0.0827225 0.00844147 0)
(0.0795193 0.0081152 0)
(0.0764289 0.00780039 0)
(0.0734478 0.0074967 0)
(0.0705726 0.00720377 0)
(0.0677998 0.00692126 0)
(0.0651263 0.00664885 0)
(0.0625489 0.0063862 0)
(0.0600644 0.006133 0)
(0.0576699 0.00588896 0)
(0.0553625 0.00565377 0)
(0.0531394 0.00542716 0)
(0.0509978 0.00520884 0)
(0.0489351 0.00499854 0)
(0.0469486 0.00479601 0)
(0.045036 0.00460098 0)
(0.0431946 0.00441321 0)
(0.0414223 0.00423245 0)
(0.0397165 0.00405848 0)
(0.0380752 0.00389106 0)
(0.0364962 0.00372998 0)
(0.0349772 0.00357502 0)
(0.0335163 0.00342597 0)
(0.0321116 0.00328263 0)
(0.0307609 0.00314481 0)
(0.0294626 0.00301231 0)
(0.0282147 0.00288495 0)
(0.0270155 0.00276255 0)
(0.0258633 0.00264493 0)
(0.0247564 0.00253193 0)
(0.0236932 0.00242339 0)
(0.0226722 0.00231914 0)
(0.0216918 0.00221903 0)
(0.0207507 0.00212292 0)
(0.0198472 0.00203065 0)
(0.0189802 0.00194209 0)
(0.0181482 0.00185711 0)
(0.01735 0.00177557 0)
(0.0165843 0.00169734 0)
(0.0158499 0.00162231 0)
(0.0151457 0.00155036 0)
(0.0144705 0.00148135 0)
(0.0138232 0.00141521 0)
(0.0132028 0.00135179 0)
(0.0126082 0.00129103 0)
(0.0120386 0.00123279 0)
(0.0114928 0.00117701 0)
(0.01097 0.00112355 0)
(0.0104694 0.00107237 0)
(0.00998998 0.00102334 0)
(0.00953098 0.000976416 0)
(0.00909164 0.000931465 0)
(0.00867112 0.000888473 0)
(0.00826875 0.000847298 0)
(0.00788374 0.000807928 0)
(0.00751547 0.000770239 0)
(0.00716323 0.000734209 0)
(0.00682636 0.000699735 0)
(0.00650433 0.000666781 0)
(0.00619637 0.00063527 0)
(0.00590217 0.000605148 0)
(0.00562082 0.000576366 0)
(0.00535219 0.000548848 0)
(0.00509533 0.000522575 0)
(0.00485018 0.000497451 0)
(0.00461584 0.000473482 0)
(0.00439227 0.000450564 0)
(0.00417868 0.000428713 0)
(0.0039749 0.000407823 0)
(0.00378038 0.000387914 0)
(0.00359476 0.000368887 0)
(0.00341772 0.000350758 0)
(0.00324875 0.000333443 0)
(0.00308772 0.000316943 0)
(0.00293404 0.000301198 0)
(0.00278763 0.00028619 0)
(0.00264797 0.000271882 0)
(0.00251491 0.000258239 0)
(0.00238808 0.000245246 0)
(0.0022671 0.000232844 0)
(0.00215193 0.000221054 0)
(0.00204134 0.000209707 0)
(0.00193783 0.000198998 0)
(0.482476 0.0607525 0)
(0.510828 0.0597796 0)
(0.552606 0.0613157 0)
(0.614649 0.0651292 0)
(0.706712 0.0723326 0)
(0.822411 0.0829073 0)
(0.937142 0.0937802 0)
(0.983328 0.0981675 0)
(0.973643 0.0993122 0)
(0.933714 0.0973931 0)
(0.861221 0.0922329 0)
(0.779041 0.0836011 0)
(0.72417 0.0763373 0)
(0.685629 0.0714242 0)
(0.650734 0.0675875 0)
(0.617638 0.0640678 0)
(0.58712 0.0608258 0)
(0.559279 0.0578582 0)
(0.533898 0.0551563 0)
(0.510605 0.0526885 0)
(0.48905 0.0504166 0)
(0.468959 0.0483087 0)
(0.450125 0.0463399 0)
(0.432388 0.0444912 0)
(0.415619 0.0427478 0)
(0.399717 0.0410977 0)
(0.384598 0.0395315 0)
(0.370192 0.0380413 0)
(0.35644 0.0366204 0)
(0.343291 0.0352633 0)
(0.330703 0.0339652 0)
(0.318638 0.032722 0)
(0.30706 0.0315299 0)
(0.295942 0.0303857 0)
(0.285256 0.0292866 0)
(0.274978 0.02823 0)
(0.265086 0.0272134 0)
(0.255561 0.026235 0)
(0.246383 0.0252926 0)
(0.237538 0.0243845 0)
(0.229009 0.0235091 0)
(0.220782 0.022665 0)
(0.212844 0.0218507 0)
(0.205184 0.0210649 0)
(0.197789 0.0203065 0)
(0.190649 0.0195743 0)
(0.183754 0.0188675 0)
(0.177095 0.0181847 0)
(0.170664 0.0175254 0)
(0.164451 0.0168885 0)
(0.158449 0.0162732 0)
(0.15265 0.0156789 0)
(0.147048 0.0151046 0)
(0.141637 0.01455 0)
(0.136409 0.014014 0)
(0.131359 0.0134963 0)
(0.12648 0.0129962 0)
(0.121767 0.012513 0)
(0.117215 0.0120463 0)
(0.112818 0.0115955 0)
(0.108571 0.0111601 0)
(0.10447 0.0107396 0)
(0.100511 0.0103336 0)
(0.0966879 0.00994152 0)
(0.0929973 0.009563 0)
(0.0894349 0.0091976 0)
(0.0859967 0.0088449 0)
(0.0826787 0.00850451 0)
(0.0794771 0.00817603 0)
(0.0763884 0.0078591 0)
(0.0734089 0.00755334 0)
(0.0705352 0.00725841 0)
(0.0677639 0.00697396 0)
(0.0650919 0.00669967 0)
(0.0625158 0.00643521 0)
(0.0600326 0.00618025 0)
(0.0576393 0.0059345 0)
(0.0553331 0.00569767 0)
(0.0531112 0.00546945 0)
(0.0509707 0.00524959 0)
(0.0489091 0.0050378 0)
(0.0469237 0.00483381 0)
(0.045012 0.00463738 0)
(0.0431716 0.00444825 0)
(0.0414002 0.00426619 0)
(0.0396953 0.00409095 0)
(0.0380549 0.00392231 0)
(0.0364766 0.00376004 0)
(0.0349585 0.00360394 0)
(0.0334983 0.00345379 0)
(0.0320943 0.00330938 0)
(0.0307443 0.00317052 0)
(0.0294466 0.00303703 0)
(0.0281994 0.00290871 0)
(0.0270008 0.00278538 0)
(0.0258492 0.00266687 0)
(0.0247429 0.002553 0)
(0.0236802 0.00244363 0)
(0.0226598 0.00233857 0)
(0.0216799 0.00223769 0)
(0.0207392 0.00214083 0)
(0.0198362 0.00204784 0)
(0.0189696 0.00195859 0)
(0.018138 0.00187294 0)
(0.0173402 0.00179075 0)
(0.0165749 0.0017119 0)
(0.0158409 0.00163627 0)
(0.015137 0.00156374 0)
(0.0144622 0.00149419 0)
(0.0138152 0.00142751 0)
(0.0131952 0.00136358 0)
(0.0126009 0.00130233 0)
(0.0120315 0.00124361 0)
(0.011486 0.00118737 0)
(0.0109636 0.00113347 0)
(0.0104631 0.00108187 0)
(0.00998399 0.00103243 0)
(0.00952522 0.000985113 0)
(0.00908611 0.00093979 0)
(0.0086658 0.000896434 0)
(0.00826365 0.000854916 0)
(0.00787883 0.00081521 0)
(0.00751075 0.000777205 0)
(0.00715869 0.000740864 0)
(0.00682199 0.000706099 0)
(0.00650013 0.000672859 0)
(0.00619233 0.00064108 0)
(0.00589828 0.000610695 0)
(0.00561707 0.000581665 0)
(0.00534859 0.000553907 0)
(0.00509185 0.000527404 0)
(0.00484683 0.00050206 0)
(0.00461261 0.000477879 0)
(0.00438916 0.00045476 0)
(0.00417568 0.000432713 0)
(0.00397201 0.000411639 0)
(0.00377758 0.00039155 0)
(0.00359206 0.000372356 0)
(0.00341511 0.000354061 0)
(0.00324623 0.000336592 0)
(0.00308528 0.000319941 0)
(0.00293168 0.000304054 0)
(0.00278535 0.000288908 0)
(0.00264576 0.00027447 0)
(0.00251278 0.000260702 0)
(0.00238601 0.00024759 0)
(0.0022651 0.000235075 0)
(0.00214998 0.000223182 0)
(0.00203945 0.000211727 0)
(0.00193601 0.00020088 0)
(0.48998 0.0341003 0)
(0.523319 0.0395951 0)
(0.565902 0.043901 0)
(0.62673 0.0486386 0)
(0.715951 0.0554033 0)
(0.829413 0.0667523 0)
(0.943407 0.0846479 0)
(0.985452 0.0958027 0)
(0.973721 0.0986965 0)
(0.930865 0.0960967 0)
(0.855065 0.0914573 0)
(0.776866 0.0843335 0)
(0.723276 0.0771508 0)
(0.684909 0.0720823 0)
(0.650253 0.0682326 0)
(0.617192 0.0646809 0)
(0.586685 0.0613879 0)
(0.558874 0.058369 0)
(0.533528 0.0556236 0)
(0.510269 0.0531199 0)
(0.488742 0.0508178 0)
(0.468676 0.0486841 0)
(0.449864 0.046693 0)
(0.432145 0.0448247 0)
(0.415394 0.0430638 0)
(0.399506 0.0413981 0)
(0.3844 0.0398177 0)
(0.370006 0.0383144 0)
(0.356265 0.0368816 0)
(0.343126 0.0355134 0)
(0.330547 0.034205 0)
(0.31849 0.0329521 0)
(0.30692 0.0317509 0)
(0.295809 0.0305982 0)
(0.28513 0.029491 0)
(0.274858 0.0284268 0)
(0.264972 0.027403 0)
(0.255452 0.0264177 0)
(0.246279 0.0254687 0)
(0.237439 0.0245544 0)
(0.228914 0.0236731 0)
(0.220692 0.0228232 0)
(0.212758 0.0220035 0)
(0.205101 0.0212124 0)
(0.19771 0.0204491 0)
(0.190573 0.019712 0)
(0.183682 0.0190005 0)
(0.177026 0.0183132 0)
(0.170597 0.0176496 0)
(0.164387 0.0170085 0)
(0.158388 0.0163892 0)
(0.152592 0.015791 0)
(0.146992 0.0152129 0)
(0.141583 0.0146547 0)
(0.136357 0.0141151 0)
(0.131309 0.0135941 0)
(0.126432 0.0130907 0)
(0.121721 0.0126043 0)
(0.117171 0.0121345 0)
(0.112776 0.0116807 0)
(0.108531 0.0112424 0)
(0.104432 0.0108191 0)
(0.100474 0.0104104 0)
(0.0966521 0.0100157 0)
(0.0929629 0.0096346 0)
(0.0894018 0.00926672 0)
(0.0859649 0.00891162 0)
(0.0826481 0.00856891 0)
(0.0794478 0.00823818 0)
(0.0763602 0.00791906 0)
(0.0733818 0.00761119 0)
(0.0705091 0.00731421 0)
(0.0677389 0.00702777 0)
(0.0650678 0.00675156 0)
(0.0624926 0.00648523 0)
(0.0600103 0.00622847 0)
(0.057618 0.00598098 0)
(0.0553126 0.00574245 0)
(0.0530914 0.0055126 0)
(0.0509517 0.00529116 0)
(0.0488908 0.00507783 0)
(0.0469061 0.00487237 0)
(0.0449951 0.0046745 0)
(0.0431554 0.00448399 0)
(0.0413846 0.00430058 0)
(0.0396803 0.00412405 0)
(0.0380405 0.00395415 0)
(0.0364628 0.00379068 0)
(0.0349451 0.0036334 0)
(0.0334855 0.00348212 0)
(0.0320819 0.00333662 0)
(0.0307325 0.00319672 0)
(0.0294352 0.0030622 0)
(0.0281884 0.0029329 0)
(0.0269903 0.00280862 0)
(0.025839 0.00268919 0)
(0.0247331 0.00257445 0)
(0.0236708 0.00246422 0)
(0.0226507 0.00235835 0)
(0.0216712 0.00225667 0)
(0.0207308 0.00215905 0)
(0.0198281 0.00206532 0)
(0.0189619 0.00197537 0)
(0.0181306 0.00188903 0)
(0.0173331 0.00180619 0)
(0.016568 0.0017267 0)
(0.0158343 0.00165046 0)
(0.0151306 0.00157734 0)
(0.014456 0.00150722 0)
(0.0138093 0.00144 0)
(0.0131894 0.00137555 0)
(0.0125954 0.00131379 0)
(0.0120262 0.00125459 0)
(0.0114809 0.00119788 0)
(0.0109586 0.00114354 0)
(0.0104583 0.0010915 0)
(0.00997937 0.00104165 0)
(0.00952076 0.000993935 0)
(0.00908181 0.000948234 0)
(0.00866164 0.000904506 0)
(0.00825963 0.000862639 0)
(0.00787495 0.00082259 0)
(0.00750699 0.000784264 0)
(0.00715506 0.000747607 0)
(0.00681848 0.000712545 0)
(0.00649674 0.000679015 0)
(0.00618904 0.000646961 0)
(0.0058951 0.00061631 0)
(0.00561399 0.000587027 0)
(0.0053456 0.000559025 0)
(0.00508895 0.000532288 0)
(0.00484402 0.000506721 0)
(0.00460989 0.000482324 0)
(0.00438651 0.000459 0)
(0.00417311 0.000436754 0)
(0.00396951 0.000415493 0)
(0.00377516 0.000395221 0)
(0.0035897 0.000375856 0)
(0.00341282 0.000357393 0)
(0.003244 0.000339767 0)
(0.00308311 0.000322962 0)
(0.00292956 0.000306931 0)
(0.00278328 0.000291644 0)
(0.00264375 0.000277074 0)
(0.00251081 0.000263178 0)
(0.00238409 0.000249946 0)
(0.00226322 0.000237316 0)
(0.00214815 0.000225318 0)
(0.00203766 0.000213753 0)
(0.00193425 0.000202766 0)
(0.493015 0.0568672 0)
(0.517978 0.0550333 0)
(0.555711 0.0552749 0)
(0.615942 0.0574382 0)
(0.70538 0.0627173 0)
(0.817211 0.0720886 0)
(0.933219 0.086294 0)
(0.985745 0.0979036 0)
(0.975545 0.101621 0)
(0.930068 0.0991363 0)
(0.849408 0.0929127 0)
(0.773049 0.0852463 0)
(0.721544 0.0778835 0)
(0.684104 0.0727315 0)
(0.649738 0.0688853 0)
(0.616761 0.0652991 0)
(0.586292 0.0619538 0)
(0.558518 0.0588846 0)
(0.533211 0.0560956 0)
(0.509986 0.0535556 0)
(0.488487 0.0512232 0)
(0.468445 0.0490637 0)
(0.449653 0.0470502 0)
(0.431951 0.0451623 0)
(0.415214 0.043384 0)
(0.39934 0.0417025 0)
(0.384245 0.0401077 0)
(0.369861 0.0385914 0)
(0.356129 0.0371464 0)
(0.342999 0.035767 0)
(0.330427 0.0344481 0)
(0.318377 0.0331854 0)
(0.306813 0.0319751 0)
(0.295708 0.0308138 0)
(0.285034 0.0296984 0)
(0.274767 0.0286264 0)
(0.264885 0.0275954 0)
(0.255369 0.026603 0)
(0.246201 0.0256474 0)
(0.237364 0.0247268 0)
(0.228843 0.0238394 0)
(0.220624 0.0229837 0)
(0.212693 0.0221584 0)
(0.205039 0.0213621 0)
(0.19765 0.0205936 0)
(0.190517 0.0198516 0)
(0.183628 0.0191353 0)
(0.176974 0.0184435 0)
(0.170547 0.0177755 0)
(0.164339 0.0171301 0)
(0.158342 0.0165068 0)
(0.152548 0.0159046 0)
(0.14695 0.0153227 0)
(0.141543 0.0147608 0)
(0.136319 0.0142176 0)
(0.131272 0.0136931 0)
(0.126397 0.0131864 0)
(0.121687 0.0126968 0)
(0.117138 0.0122238 0)
(0.112744 0.011767 0)
(0.1085 0.0113258 0)
(0.104402 0.0108996 0)
(0.100445 0.0104881 0)
(0.0966249 0.0100907 0)
(0.0929367 0.00970705 0)
(0.0893767 0.00933666 0)
(0.0859407 0.00897912 0)
(0.0826248 0.00863405 0)
(0.0794254 0.00830103 0)
(0.0763386 0.0079797 0)
(0.0733611 0.00766969 0)
(0.0704892 0.00737063 0)
(0.0677197 0.00708218 0)
(0.0650493 0.00680402 0)
(0.0624748 0.00653581 0)
(0.0599932 0.00627722 0)
(0.0576015 0.00602796 0)
(0.0552967 0.00578772 0)
(0.0530761 0.00555622 0)
(0.050937 0.00533317 0)
(0.0488766 0.00511829 0)
(0.0468925 0.00491133 0)
(0.044982 0.00471201 0)
(0.0431427 0.0045201 0)
(0.0413724 0.00433533 0)
(0.0396686 0.00415749 0)
(0.0380291 0.00398633 0)
(0.0364518 0.00382163 0)
(0.0349346 0.00366317 0)
(0.0334754 0.00351074 0)
(0.0320722 0.00336414 0)
(0.030723 0.00322317 0)
(0.0294262 0.00308763 0)
(0.0281797 0.00295733 0)
(0.0269818 0.00283209 0)
(0.0258309 0.00271174 0)
(0.0247252 0.00259611 0)
(0.0236633 0.00248502 0)
(0.0226434 0.00237831 0)
(0.0216641 0.00227584 0)
(0.020724 0.00217744 0)
(0.0198215 0.00208297 0)
(0.0189555 0.0019923 0)
(0.0181244 0.00190527 0)
(0.0173271 0.00182177 0)
(0.0165623 0.00174164 0)
(0.0158287 0.00166479 0)
(0.0151253 0.00159107 0)
(0.0144508 0.00152038 0)
(0.0138043 0.00145261 0)
(0.0131846 0.00138763 0)
(0.0125907 0.00132536 0)
(0.0120217 0.00126567 0)
(0.0114765 0.00120849 0)
(0.0109543 0.0011537 0)
(0.0104542 0.00110123 0)
(0.00997539 0.00105096 0)
(0.0095169 0.00100284 0)
(0.00907806 0.000956753 0)
(0.00865801 0.00091265 0)
(0.00825611 0.000870431 0)
(0.00787153 0.000830036 0)
(0.00750368 0.000791384 0)
(0.00715184 0.000754409 0)
(0.00681535 0.000719047 0)
(0.00649369 0.000685223 0)
(0.00618608 0.000652893 0)
(0.00589222 0.000621973 0)
(0.00561119 0.000592434 0)
(0.00534287 0.000564185 0)
(0.00508629 0.000537212 0)
(0.00484143 0.00051142 0)
(0.00460736 0.000486805 0)
(0.00438405 0.000463275 0)
(0.0041707 0.000440827 0)
(0.00396716 0.000419378 0)
(0.00377286 0.000398921 0)
(0.00358745 0.000379382 0)
(0.00341062 0.00036075 0)
(0.00324185 0.000342965 0)
(0.003081 0.000326005 0)
(0.0029275 0.000309828 0)
(0.00278126 0.0002944 0)
(0.00264177 0.000279697 0)
(0.00250887 0.000265671 0)
(0.00238218 0.000252318 0)
(0.00226135 0.000239571 0)
(0.0021463 0.000227467 0)
(0.00203585 0.000215791 0)
(0.00193247 0.000204664 0)
(0.485023 0.0351605 0)
(0.512363 0.0399418 0)
(0.554854 0.0437152 0)
(0.619727 0.0479655 0)
(0.710314 0.0538033 0)
(0.818819 0.0634201 0)
(0.93042 0.0797295 0)
(0.983889 0.0936238 0)
(0.975351 0.100293 0)
(0.930083 0.0997716 0)
(0.846292 0.0937215 0)
(0.76875 0.0856028 0)
(0.718992 0.0783255 0)
(0.683032 0.073285 0)
(0.649301 0.0695175 0)
(0.61641 0.065916 0)
(0.585953 0.0625231 0)
(0.558211 0.0594037 0)
(0.53294 0.0565711 0)
(0.509747 0.0539948 0)
(0.488275 0.051632 0)
(0.468254 0.0494467 0)
(0.449479 0.0474108 0)
(0.431793 0.0455031 0)
(0.415068 0.0437071 0)
(0.399205 0.0420097 0)
(0.38412 0.0404005 0)
(0.369744 0.0388709 0)
(0.35602 0.0374137 0)
(0.342897 0.036023 0)
(0.330331 0.0346935 0)
(0.318286 0.0334209 0)
(0.306728 0.0322013 0)
(0.295627 0.0310312 0)
(0.284957 0.0299076 0)
(0.274694 0.0288278 0)
(0.264816 0.0277893 0)
(0.255304 0.0267899 0)
(0.246139 0.0258276 0)
(0.237304 0.0249006 0)
(0.228786 0.0240071 0)
(0.220569 0.0231455 0)
(0.212641 0.0223146 0)
(0.204989 0.0215128 0)
(0.197603 0.0207392 0)
(0.190471 0.0199922 0)
(0.183584 0.0192712 0)
(0.176932 0.0185748 0)
(0.170507 0.0179023 0)
(0.1643 0.0172527 0)
(0.158305 0.0166252 0)
(0.152512 0.016019 0)
(0.146916 0.0154332 0)
(0.14151 0.0148676 0)
(0.136287 0.0143208 0)
(0.131242 0.0137929 0)
(0.126367 0.0132827 0)
(0.121659 0.0127898 0)
(0.117111 0.0123137 0)
(0.112718 0.0118538 0)
(0.108475 0.0114096 0)
(0.104378 0.0109806 0)
(0.100422 0.0105663 0)
(0.0966024 0.0101662 0)
(0.0929151 0.00977995 0)
(0.0893558 0.00940702 0)
(0.0859206 0.00904704 0)
(0.0826055 0.00869958 0)
(0.0794067 0.00836427 0)
(0.0763207 0.00804071 0)
(0.0733437 0.00772853 0)
(0.0704725 0.00742738 0)
(0.0677036 0.00713691 0)
(0.0650338 0.00685679 0)
(0.0624598 0.00658667 0)
(0.0599787 0.00632625 0)
(0.0575875 0.0060752 0)
(0.0552833 0.00583324 0)
(0.0530632 0.00560007 0)
(0.0509245 0.00537541 0)
(0.0488646 0.00515897 0)
(0.0468808 0.0049505 0)
(0.0449707 0.00474972 0)
(0.0431319 0.00455639 0)
(0.0413619 0.00437027 0)
(0.0396585 0.0041911 0)
(0.0380194 0.00401867 0)
(0.0364424 0.00385274 0)
(0.0349255 0.00369309 0)
(0.0334666 0.00353951 0)
(0.0320637 0.0033918 0)
(0.0307149 0.00324975 0)
(0.0294182 0.00311318 0)
(0.028172 0.00298188 0)
(0.0269744 0.00285568 0)
(0.0258238 0.0027344 0)
(0.0247184 0.00261787 0)
(0.0236566 0.00250591 0)
(0.022637 0.00239837 0)
(0.0216579 0.00229509 0)
(0.020718 0.00219592 0)
(0.0198157 0.00210071 0)
(0.0189499 0.00200931 0)
(0.018119 0.00192159 0)
(0.0173218 0.00183742 0)
(0.0165571 0.00175665 0)
(0.0158238 0.00167918 0)
(0.0151205 0.00160486 0)
(0.0144462 0.0015336 0)
(0.0137998 0.00146527 0)
(0.0131802 0.00139977 0)
(0.0125865 0.00133698 0)
(0.0120176 0.0012768 0)
(0.0114725 0.00121914 0)
(0.0109505 0.0011639 0)
(0.0104505 0.00111099 0)
(0.00997173 0.0010603 0)
(0.00951335 0.00101177 0)
(0.00907461 0.000965305 0)
(0.00865465 0.000920825 0)
(0.00825284 0.000878252 0)
(0.00786835 0.000837509 0)
(0.00750058 0.000798531 0)
(0.00714882 0.000761234 0)
(0.00681241 0.000725571 0)
(0.00649083 0.000691453 0)
(0.00618328 0.000658844 0)
(0.00588949 0.000627654 0)
(0.00560853 0.000597858 0)
(0.00534027 0.000569362 0)
(0.00508375 0.000542151 0)
(0.00483894 0.000516132 0)
(0.00460493 0.000491298 0)
(0.00438167 0.00046756 0)
(0.00416837 0.000444911 0)
(0.00396488 0.000423272 0)
(0.00377063 0.000402629 0)
(0.00358527 0.000382917 0)
(0.00340848 0.000364114 0)
(0.00323974 0.000346169 0)
(0.00307894 0.000329053 0)
(0.00292547 0.00031273 0)
(0.00277927 0.00029716 0)
(0.00263981 0.000282322 0)
(0.00250694 0.000268167 0)
(0.00238028 0.000254692 0)
(0.00225948 0.000241828 0)
(0.00214446 0.000229616 0)
(0.00203403 0.000217828 0)
(0.00193069 0.000206561 0)
(0.486594 0.0535064 0)
(0.517406 0.0519202 0)
(0.561532 0.0520703 0)
(0.62534 0.053748 0)
(0.715139 0.0587716 0)
(0.82534 0.0681039 0)
(0.933041 0.0832461 0)
(0.980529 0.0954462 0)
(0.971934 0.101461 0)
(0.92779 0.101516 0)
(0.84308 0.0960204 0)
(0.764906 0.0871876 0)
(0.716616 0.0791904 0)
(0.681937 0.0739378 0)
(0.648951 0.0701799 0)
(0.616124 0.0665456 0)
(0.585662 0.063098 0)
(0.557945 0.0599263 0)
(0.532707 0.0570496 0)
(0.509543 0.0544369 0)
(0.488095 0.0520437 0)
(0.468093 0.0498323 0)
(0.449334 0.0477738 0)
(0.43166 0.0458461 0)
(0.414947 0.0440323 0)
(0.399093 0.0423189 0)
(0.384016 0.0406951 0)
(0.369647 0.0391521 0)
(0.355929 0.0376826 0)
(0.342811 0.0362805 0)
(0.330251 0.0349404 0)
(0.31821 0.0336578 0)
(0.306656 0.0324288 0)
(0.295559 0.0312499 0)
(0.284893 0.030118 0)
(0.274633 0.0290303 0)
(0.264758 0.0279843 0)
(0.255248 0.0269778 0)
(0.246085 0.0260087 0)
(0.237254 0.0250752 0)
(0.228738 0.0241755 0)
(0.220523 0.0233081 0)
(0.212597 0.0224715 0)
(0.204947 0.0216643 0)
(0.197562 0.0208855 0)
(0.190432 0.0201335 0)
(0.183546 0.0194077 0)
(0.176896 0.0187066 0)
(0.170472 0.0180297 0)
(0.164267 0.0173757 0)
(0.158272 0.016744 0)
(0.152481 0.0161339 0)
(0.146886 0.0155441 0)
(0.141481 0.0149748 0)
(0.136259 0.0144244 0)
(0.131215 0.0138929 0)
(0.126342 0.0133794 0)
(0.121634 0.0128833 0)
(0.117087 0.012404 0)
(0.112695 0.011941 0)
(0.108453 0.0114938 0)
(0.104357 0.0110619 0)
(0.100401 0.0106448 0)
(0.0965825 0.010242 0)
(0.0928959 0.0098531 0)
(0.0893373 0.00947763 0)
(0.0859027 0.00911518 0)
(0.0825882 0.00876534 0)
(0.0793901 0.00842772 0)
(0.0763046 0.00810191 0)
(0.0733282 0.00778757 0)
(0.0704575 0.00748432 0)
(0.0676891 0.00719181 0)
(0.0650198 0.00690972 0)
(0.0624463 0.0066377 0)
(0.0599657 0.00637543 0)
(0.0575749 0.0061226 0)
(0.0552711 0.00587891 0)
(0.0530514 0.00564407 0)
(0.0509132 0.00541778 0)
(0.0488536 0.00519978 0)
(0.0468703 0.00498979 0)
(0.0449605 0.00478755 0)
(0.043122 0.00459281 0)
(0.0413524 0.00440531 0)
(0.0396493 0.00422482 0)
(0.0380105 0.00405111 0)
(0.0364338 0.00388394 0)
(0.0349172 0.0037231 0)
(0.0334586 0.00356837 0)
(0.0320559 0.00341955 0)
(0.0307074 0.00327642 0)
(0.029411 0.00313881 0)
(0.028165 0.00300651 0)
(0.0269676 0.00287935 0)
(0.0258172 0.00275713 0)
(0.024712 0.0026397 0)
(0.0236504 0.00252687 0)
(0.022631 0.0024185 0)
(0.0216521 0.00231441 0)
(0.0207124 0.00221447 0)
(0.0198103 0.0021185 0)
(0.0189446 0.00202638 0)
(0.0181139 0.00193796 0)
(0.0173169 0.00185312 0)
(0.0165524 0.00177171 0)
(0.0158192 0.00169361 0)
(0.015116 0.0016187 0)
(0.0144419 0.00154686 0)
(0.0137956 0.00147798 0)
(0.0131761 0.00141194 0)
(0.0125825 0.00134864 0)
(0.0120137 0.00128797 0)
(0.0114688 0.00122984 0)
(0.0109468 0.00117414 0)
(0.0104469 0.00112078 0)
(0.0099683 0.00106968 0)
(0.00951001 0.00102074 0)
(0.00907137 0.000973891 0)
(0.0086515 0.000929033 0)
(0.00824976 0.000886104 0)
(0.00786536 0.000845013 0)
(0.00749766 0.000805707 0)
(0.00714598 0.000768089 0)
(0.00680964 0.000732124 0)
(0.00648812 0.00069771 0)
(0.00618064 0.000664822 0)
(0.00588691 0.000633361 0)
(0.00560601 0.000603307 0)
(0.00533781 0.000574562 0)
(0.00508135 0.000547114 0)
(0.00483659 0.000520868 0)
(0.00460263 0.000495813 0)
(0.00437941 0.000471868 0)
(0.00416616 0.000449016 0)
(0.00396272 0.000427187 0)
(0.00376851 0.000406357 0)
(0.00358318 0.000386471 0)
(0.00340643 0.000367497 0)
(0.00323774 0.000349393 0)
(0.00307696 0.00033212 0)
(0.00292353 0.00031565 0)
(0.00277736 0.000299937 0)
(0.00263793 0.000284964 0)
(0.00250509 0.000270679 0)
(0.00237847 0.000257082 0)
(0.00225769 0.0002441 0)