/*--------------------------------*- C++ -*----------------------------------*\
| =========                 |                                                 |
| \\      /  F ield         | OpenFOAM: The Open Source CFD Toolbox           |
|  \\    /   O peration     | Version:  v1912                                 |
|   \\  /    A nd           | Website:  www.openfoam.com                      |
|    \\/     M anipulation  |                                                 |
\*---------------------------------------------------------------------------*/
FoamFile
{
    version     2.0;
    format      ascii;
    class       surfaceScalarField;
    location    "10";
    object      phi;
}
// * * * * * * * * * * * * * * * * * * * * * * * * * * * * * * * * * * * * * //

dimensions      [0 3 -1 0 0 0 0];
oriented        oriented;


internalField   nonuniform List<scalar> 
28285
(
-5.13102e-08
-2.79665e-08
-2.56401e-08
-2.56701e-08
-2.0409e-09
-2.35992e-08
1.97406e-08
-2.17815e-08
3.98131e-08
-2.00725e-08
5.83738e-08
-1.85608e-08
7.55933e-08
-1.72194e-08
9.16257e-08
-1.60325e-08
1.06594e-07
-1.49679e-08
1.2063e-07
-1.40362e-08
1.33859e-07
-1.32294e-08
1.46392e-07
-1.25326e-08
1.58291e-07
-1.1899e-08
1.69693e-07
-1.14018e-08
1.80674e-07
-1.0981e-08
1.91315e-07
-1.06409e-08
2.01692e-07
-1.03779e-08
2.11881e-07
-1.01889e-08
2.21952e-07
-1.00707e-08
2.31973e-07
-1.00211e-08
2.42011e-07
-1.00383e-08
2.52133e-07
-1.01213e-08
2.62402e-07
-1.02693e-08
2.72884e-07
-1.04825e-08
2.83646e-07
-1.07614e-08
2.94753e-07
-1.11072e-08
3.06275e-07
-1.15216e-08
3.18282e-07
-1.20071e-08
3.30848e-07
-1.25665e-08
3.44052e-07
-1.32034e-08
3.57974e-07
-1.39219e-08
3.727e-07
-1.47267e-08
3.88323e-07
-1.56232e-08
4.04941e-07
-1.66173e-08
4.22656e-07
-1.77156e-08
4.41582e-07
-1.89252e-08
4.61835e-07
-2.02538e-08
4.83545e-07
-2.17093e-08
5.06845e-07
-2.33004e-08
5.31881e-07
-2.5036e-08
5.58806e-07
-2.69251e-08
5.87783e-07
-2.8977e-08
6.18984e-07
-3.12006e-08
6.52589e-07
-3.36048e-08
6.88786e-07
-3.61975e-08
7.27772e-07
-3.89859e-08
7.69748e-07
-4.19755e-08
8.14918e-07
-4.517e-08
8.63488e-07
-4.85702e-08
9.15662e-07
-5.21737e-08
9.71635e-07
-5.59736e-08
1.03159e-06
-5.99574e-08
1.0957e-06
-6.41059e-08
1.16409e-06
-6.83913e-08
1.23687e-06
-7.27757e-08
1.31407e-06
-7.72089e-08
1.3957e-06
-8.16257e-08
1.48164e-06
-8.59436e-08
1.5717e-06
-9.00593e-08
1.66555e-06
-9.3846e-08
1.7627e-06
-9.71489e-08
1.86248e-06
-9.97814e-08
1.964e-06
-1.01517e-07
2.06608e-06
-1.02085e-07
2.16725e-06
-1.0117e-07
2.26566e-06
-9.84066e-08
2.35903e-06
-9.33751e-08
2.44463e-06
-8.5594e-08
2.51914e-06
-7.45106e-08
2.57862e-06
-5.94794e-08
2.61835e-06
-3.9737e-08
2.6333e-06
-1.49492e-08
2.61794e-06
1.53592e-08
2.56377e-06
5.41748e-08
2.46322e-06
1.00548e-07
2.30718e-06
1.56039e-07
2.08554e-06
2.2164e-07
1.78723e-06
2.98312e-07
1.40028e-06
3.86953e-07
9.11936e-07
4.88343e-07
3.08962e-07
6.02974e-07
-4.23532e-07
7.32494e-07
-1.29725e-06
8.73713e-07
-2.32727e-06
1.03002e-06
-3.52607e-06
1.19881e-06
-4.90449e-06
1.37841e-06
-6.47089e-06
1.5664e-06
-8.23036e-06
1.75947e-06
-1.01835e-05
1.95312e-06
-1.23253e-05
2.14186e-06
-1.46441e-05
2.31878e-06
-1.71202e-05
2.47608e-06
-1.9725e-05
2.60475e-06
-2.24202e-05
2.69527e-06
-2.5158e-05
2.73779e-06
-2.78807e-05
2.72269e-06
-3.0522e-05
2.64125e-06
-3.30087e-05
2.48675e-06
-3.52642e-05
2.25546e-06
-3.7212e-05
1.9478e-06
-3.87809e-05
1.56897e-06
-3.99106e-05
1.12966e-06
-4.05573e-05
6.46672e-07
-4.06996e-05
1.4238e-07
-4.03435e-05
-3.5619e-07
-3.95293e-05
-8.1412e-07
-3.83274e-05
-1.2019e-06
-3.68364e-05
-1.49101e-06
-3.51766e-05
-1.65984e-06
-3.34779e-05
-1.69865e-06
-3.18644e-05
-1.61351e-06
-3.04353e-05
-1.4291e-06
-2.92493e-05
-1.18604e-06
-2.83123e-05
-9.36974e-07
-2.75746e-05
-7.37734e-07
-2.69372e-05
-6.37403e-07
-2.62741e-05
-6.63045e-07
-2.54579e-05
-8.16258e-07
-2.44002e-05
-1.05766e-06
-2.30645e-05
-1.33574e-06
-2.14842e-05
-1.58029e-06
-1.97336e-05
-1.75058e-06
-1.79364e-05
-1.79718e-06
-1.61957e-05
-1.74076e-06
-1.46458e-05
-1.54983e-06
-1.32869e-05
-1.35889e-06
-1.21847e-05
-1.10226e-06
-1.11235e-05
-1.06119e-06
-1.01414e-05
-9.8212e-07
-8.89884e-06
-1.24254e-06
-7.41649e-06
-1.48236e-06
-5.56049e-06
-1.856e-06
-3.2104e-06
-2.3501e-06
-2.32664e-06
-8.83754e-07
-1.96227e-07
-5.57189e-08
-1.70755e-07
-5.11427e-08
-1.47334e-07
-4.70195e-08
-1.25789e-07
-4.33264e-08
-1.05893e-07
-3.99685e-08
-8.74856e-08
-3.69685e-08
-7.04077e-08
-3.42973e-08
-5.45144e-08
-3.19258e-08
-3.96889e-08
-2.97934e-08
-2.57866e-08
-2.79385e-08
-1.26992e-08
-2.63168e-08
-3.19243e-10
-2.49125e-08
1.15517e-08
-2.377e-08
2.28874e-08
-2.27375e-08
3.37955e-08
-2.18891e-08
4.43606e-08
-2.1206e-08
5.46615e-08
-2.06788e-08
6.47728e-08
-2.03002e-08
7.47658e-08
-2.00637e-08
8.47093e-08
-1.99646e-08
9.46703e-08
-1.99993e-08
1.04714e-07
-2.01655e-08
1.14907e-07
-2.04619e-08
1.25313e-07
-2.08886e-08
1.35999e-07
-2.14467e-08
1.4703e-07
-2.21387e-08
1.58476e-07
-2.2968e-08
1.70409e-07
-2.39392e-08
1.829e-07
-2.50583e-08
1.96029e-07
-2.63323e-08
2.09877e-07
-2.77694e-08
2.24529e-07
-2.93792e-08
2.40078e-07
-3.11722e-08
2.56622e-07
-3.31606e-08
2.74263e-07
-3.53573e-08
2.93115e-07
-3.77766e-08
3.13295e-07
-4.04337e-08
3.3493e-07
-4.33449e-08
3.58157e-07
-4.65272e-08
3.83119e-07
-4.99985e-08
4.09971e-07
-5.37769e-08
4.38875e-07
-5.78809e-08
4.70003e-07
-6.23285e-08
5.03535e-07
-6.71372e-08
5.39661e-07
-7.23232e-08
5.78576e-07
-7.79005e-08
6.20481e-07
-8.38805e-08
6.65581e-07
-9.02705e-08
7.14083e-07
-9.70722e-08
7.6619e-07
-1.04281e-07
8.22099e-07
-1.11882e-07
8.81993e-07
-1.19852e-07
9.46038e-07
-1.28151e-07
1.01437e-06
-1.36725e-07
1.08709e-06
-1.45496e-07
1.16425e-06
-1.54365e-07
1.24582e-06
-1.632e-07
1.33171e-06
-1.71835e-07
1.42172e-06
-1.80064e-07
1.5155e-06
-1.87629e-07
1.61257e-06
-1.94219e-07
1.71225e-06
-1.99458e-07
1.81362e-06
-2.02893e-07
1.91553e-06
-2.03989e-07
2.01648e-06
-2.02122e-07
2.11464e-06
-1.96568e-07
2.20776e-06
-1.86491e-07
2.2931e-06
-1.70936e-07
2.36741e-06
-1.48824e-07
2.42689e-06
-1.18963e-07
2.46727e-06
-8.01121e-08
2.48245e-06
-3.01315e-08
2.46401e-06
3.38012e-08
2.40887e-06
1.09315e-07
2.30731e-06
2.02108e-07
2.15026e-06
3.13085e-07
1.92758e-06
4.44318e-07
1.62814e-06
5.97756e-07
1.23991e-06
7.75186e-07
7.50129e-07
9.78121e-07
1.45392e-07
1.20771e-06
-5.86693e-07
1.46458e-06
-1.4625e-06
1.74952e-06
-2.49449e-06
2.06201e-06
-3.69506e-06
2.39938e-06
-5.07512e-06
2.75847e-06
-6.64308e-06
3.13437e-06
-8.40399e-06
3.52038e-06
-1.03583e-05
3.90748e-06
-1.25012e-05
4.28469e-06
-1.48206e-05
4.63824e-06
-1.72969e-05
4.95238e-06
-1.99014e-05
5.20924e-06
-2.25959e-05
5.38974e-06
-2.53322e-05
5.47413e-06
-2.80527e-05
5.44315e-06
-3.06909e-05
5.27946e-06
-3.31738e-05
4.96964e-06
-3.54246e-05
4.50624e-06
-3.73669e-05
3.89014e-06
-3.89298e-05
3.13181e-06
-4.00528e-05
2.25267e-06
-4.06918e-05
1.28566e-06
-4.08271e-05
2.77689e-07
-4.04689e-05
-7.14366e-07
-3.96507e-05
-1.63229e-06
-3.84457e-05
-2.40695e-06
-3.69535e-05
-2.9832e-06
-3.52941e-05
-3.31922e-06
-3.35975e-05
-3.39527e-06
-3.19871e-05
-3.22387e-06
-3.05617e-05
-2.85454e-06
-2.93795e-05
-2.36827e-06
-2.84461e-05
-1.87029e-06
-2.77114e-05
-1.47251e-06
-2.70765e-05
-1.27225e-06
-2.64159e-05
-1.32362e-06
-2.56013e-05
-1.6309e-06
-2.45448e-05
-2.11411e-06
-2.321e-05
-2.67061e-06
-2.16311e-05
-3.15915e-06
-1.98822e-05
-3.49945e-06
-1.80884e-05
-3.59099e-06
-1.63525e-05
-3.47665e-06
-1.48062e-05
-3.09619e-06
-1.34523e-05
-2.71276e-06
-1.23524e-05
-2.20215e-06
-1.12949e-05
-2.11873e-06
-1.03179e-05
-1.95916e-06
-9.076e-06
-2.4844e-06
-7.5938e-06
-2.96455e-06
-5.73141e-06
-3.71838e-06
-3.37456e-06
-4.70695e-06
-4.74225e-06
-9.58956e-07
-1.39287e-07
-8.33391e-08
-1.13918e-07
-7.6512e-08
-9.05807e-08
-7.03568e-08
-6.90811e-08
-6.4826e-08
-4.92119e-08
-5.98377e-08
-3.08091e-08
-5.53713e-08
-1.37239e-08
-5.13825e-08
2.17677e-09
-4.78265e-08
1.70298e-08
-4.46465e-08
3.09694e-08
-4.18781e-08
4.41179e-08
-3.94654e-08
5.65859e-08
-3.73805e-08
6.84462e-08
-3.56302e-08
7.98147e-08
-3.41061e-08
9.07727e-08
-3.28471e-08
1.014e-07
-3.18334e-08
1.11773e-07
-3.1052e-08
1.21965e-07
-3.04919e-08
1.32045e-07
-3.01438e-08
1.42082e-07
-3.00011e-08
1.5214e-07
-3.00581e-08
1.62287e-07
-3.03117e-08
1.72585e-07
-3.07601e-08
1.831e-07
-3.14036e-08
1.93897e-07
-3.22439e-08
2.05043e-07
-3.32847e-08
2.16606e-07
-3.45312e-08
2.28658e-07
-3.59906e-08
2.41271e-07
-3.76718e-08
2.54524e-07
-3.95852e-08
2.68498e-07
-4.17435e-08
2.8328e-07
-4.41608e-08
2.9896e-07
-4.68531e-08
3.15638e-07
-4.98387e-08
3.33418e-07
-5.31368e-08
3.5241e-07
-5.6769e-08
3.72735e-07
-6.07583e-08
3.94519e-07
-6.51288e-08
4.17898e-07
-6.99064e-08
4.43017e-07
-7.51177e-08
4.70031e-07
-8.079e-08
4.99101e-07
-8.6951e-08
5.304e-07
-9.36278e-08
5.6411e-07
-1.00847e-07
6.00418e-07
-1.08632e-07
6.39522e-07
-1.17004e-07
6.81622e-07
-1.25981e-07
7.26925e-07
-1.35573e-07
7.75635e-07
-1.45783e-07
8.27958e-07
-1.56603e-07
8.84088e-07
-1.68013e-07
9.44212e-07
-1.79975e-07
1.00849e-06
-1.92432e-07
1.07707e-06
-2.05299e-07
1.15003e-06
-2.18463e-07
1.22744e-06
-2.31772e-07
1.30927e-06
-2.45031e-07
1.39543e-06
-2.57989e-07
1.4857e-06
-2.70335e-07
1.57976e-06
-2.81687e-07
1.67711e-06
-2.91575e-07
1.77709e-06
-2.99436e-07
1.87879e-06
-3.04594e-07
1.98105e-06
-3.0625e-07
2.08239e-06
-3.03459e-07
2.18095e-06
-2.95124e-07
2.27444e-06
-2.79981e-07
2.36009e-06
-2.56587e-07
2.43455e-06
-2.23289e-07
2.49377e-06
-1.78178e-07
2.53263e-06
-1.18976e-07
2.54677e-06
-4.42735e-08
2.53349e-06
4.70856e-08
2.47901e-06
1.6379e-07
2.37792e-06
3.03206e-07
2.22098e-06
4.70016e-07
1.99813e-06
6.67176e-07
1.6983e-06
8.97581e-07
1.30955e-06
1.16393e-06
8.1906e-07
1.46861e-06
2.13423e-07
1.81335e-06
-5.20865e-07
2.19887e-06
-1.39789e-06
2.62655e-06
-2.43143e-06
3.09554e-06
-3.63409e-06
3.60204e-06
-5.01675e-06
4.14112e-06
-6.58757e-06
4.70519e-06
-8.35159e-06
5.2844e-06
-1.03093e-05
5.86522e-06
-1.24556e-05
6.43101e-06
-1.47786e-05
6.96118e-06
-1.72584e-05
7.43218e-06
-1.98662e-05
7.81703e-06
-2.25635e-05
8.08707e-06
-2.53021e-05
8.21276e-06
-2.80242e-05
8.16523e-06
-3.06632e-05
7.91842e-06
-3.31458e-05
7.45225e-06
-3.53952e-05
6.75566e-06
-3.73352e-05
5.83009e-06
-3.88946e-05
4.69127e-06
-4.00134e-05
3.37145e-06
-4.06487e-05
1.92099e-06
-4.07791e-05
4.08022e-07
-4.04074e-05
-1.08605e-06
-3.9582e-05
-2.45768e-06
-3.83708e-05
-3.61814e-06
-3.68726e-05
-4.48141e-06
-3.52084e-05
-4.98339e-06
-3.35082e-05
-5.09548e-06
-3.18959e-05
-4.83617e-06
-3.04705e-05
-4.27997e-06
-2.92895e-05
-3.54925e-06
-2.83577e-05
-2.80209e-06
-2.76243e-05
-2.20586e-06
-2.69893e-05
-1.90726e-06
-2.63263e-05
-1.9867e-06
-2.55082e-05
-2.44894e-06
-2.44476e-05
-3.1747e-06
-2.31089e-05
-4.00937e-06
-2.15261e-05
-4.74193e-06
-1.97741e-05
-5.25149e-06
-1.79763e-05
-5.38871e-06
-1.62356e-05
-5.2174e-06
-1.46868e-05
-4.64494e-06
-1.33277e-05
-4.07185e-06
-1.22254e-05
-3.30446e-06
-1.11618e-05
-3.18231e-06
-1.01748e-05
-2.94619e-06
-8.92741e-06
-3.73181e-06
-7.44007e-06
-4.4519e-06
-5.58133e-06
-5.57712e-06
-3.23066e-06
-7.05762e-06
-7.0641e-06
-9.08805e-07
-1.48647e-07
-1.10532e-07
-1.23684e-07
-1.01475e-07
-1.00732e-07
-9.33084e-08
-7.95985e-08
-8.59597e-08
-6.00875e-08
-7.93486e-08
-4.20323e-08
-7.34265e-08
-2.52801e-08
-6.81347e-08
-9.69083e-09
-6.34158e-08
4.90883e-09
-5.92461e-08
1.86294e-08
-5.55987e-08
3.15619e-08
-5.23978e-08
4.38113e-08
-4.96299e-08
5.54541e-08
-4.7273e-08
6.66107e-08
-4.52627e-08
7.73608e-08
-4.35971e-08
8.77845e-08
-4.22572e-08
9.79582e-08
-4.12257e-08
1.07955e-07
-4.04885e-08
1.17845e-07
-4.00335e-08
1.27695e-07
-3.98516e-08
1.37573e-07
-3.99355e-08
1.47542e-07
-4.02811e-08
1.57668e-07
-4.08859e-08
1.68015e-07
-4.17505e-08
1.78648e-07
-4.28769e-08
1.89633e-07
-4.42704e-08
2.0104e-07
-4.59378e-08
2.12938e-07
-4.78887e-08
2.25401e-07
-5.01349e-08
2.38507e-07
-5.26906e-08
2.52336e-07
-5.55724e-08
2.66974e-07
-5.87995e-08
2.82514e-07
-6.23932e-08
2.99053e-07
-6.63776e-08
3.16695e-07
-7.0779e-08
3.35552e-07
-7.56257e-08
3.55743e-07
-8.09488e-08
3.77394e-07
-8.67803e-08
4.00642e-07
-9.31548e-08
4.25633e-07
-1.00108e-07
4.52519e-07
-1.07676e-07
4.81465e-07
-1.15897e-07
5.12643e-07
-1.24806e-07
5.46234e-07
-1.34438e-07
5.82429e-07
-1.44826e-07
6.21423e-07
-1.55999e-07
6.6342e-07
-1.67978e-07
7.08625e-07
-1.80778e-07
7.57247e-07
-1.94404e-07
8.09489e-07
-2.08845e-07
8.6555e-07
-2.24074e-07
9.25616e-07
-2.40041e-07
9.89854e-07
-2.5667e-07
1.0584e-06
-2.73848e-07
1.13136e-06
-2.91423e-07
1.20878e-06
-3.09194e-07
1.29065e-06
-3.26899e-07
1.37687e-06
-3.44204e-07
1.46723e-06
-3.60695e-07
1.5614e-06
-3.75857e-07
1.65889e-06
-3.89065e-07
1.75901e-06
-3.99564e-07
1.86087e-06
-4.06452e-07
1.96329e-06
-4.08665e-07
2.06478e-06
-4.04948e-07
2.16349e-06
-3.93841e-07
2.25718e-06
-3.73666e-07
2.3431e-06
-3.42506e-07
2.418e-06
-2.98195e-07
2.47815e-06
-2.38328e-07
2.51959e-06
-1.60414e-07
2.53585e-06
-6.05352e-08
2.51563e-06
6.7309e-08
2.46048e-06
2.1894e-07
2.35877e-06
4.0492e-07
2.20146e-06
6.27326e-07
1.97831e-06
8.90318e-07
1.6781e-06
1.1978e-06
1.2887e-06
1.55334e-06
7.97347e-07
1.95996e-06
1.90724e-07
2.41997e-06
-5.44482e-07
2.93407e-06
-1.42347e-06
3.50554e-06
-2.45943e-06
4.13151e-06
-3.66453e-06
4.80714e-06
-5.0497e-06
5.5263e-06
-6.62354e-06
6.27903e-06
-8.391e-06
7.05186e-06
-1.03525e-05
7.8267e-06
-1.2503e-05
8.58154e-06
-1.48306e-05
9.28875e-06
-1.73151e-05
9.91669e-06
-1.99276e-05
1.04295e-05
-2.26295e-05
1.0789e-05
-2.53725e-05
1.09558e-05
-2.80984e-05
1.08911e-05
-3.07405e-05
1.05605e-05
-3.32253e-05
9.93704e-06
-3.54756e-05
9.00599e-06
-3.74149e-05
7.76937e-06
-3.89721e-05
6.24841e-06
-4.00868e-05
4.4862e-06
-4.07149e-05
2.54907e-06
-4.08371e-05
5.30265e-07
-4.04681e-05
-1.45512e-06
-3.96364e-05
-3.28929e-06
-3.84185e-05
-4.8361e-06
-3.69155e-05
-5.98442e-06
-3.52478e-05
-6.65102e-06
-3.35464e-05
-6.79695e-06
-3.19346e-05
-6.44792e-06
-3.05106e-05
-5.70395e-06
-2.93322e-05
-4.72766e-06
-2.84043e-05
-3.73008e-06
-2.76751e-05
-2.93504e-06
-2.70445e-05
-2.5378e-06
-2.63858e-05
-2.64544e-06
-2.55706e-05
-3.26412e-06
-2.45118e-05
-4.23353e-06
-2.31735e-05
-5.34762e-06
-2.15913e-05
-6.32415e-06
-1.98401e-05
-7.00265e-06
-1.80454e-05
-7.1835e-06
-1.631e-05
-6.95276e-06
-1.47656e-05
-6.18938e-06
-1.34144e-05
-5.42296e-06
-1.23177e-05
-4.40118e-06
-1.12628e-05
-4.23724e-06
-1.0288e-05
-3.92096e-06
-9.04816e-06
-4.97167e-06
-7.56744e-06
-5.93262e-06
-5.70666e-06
-7.43789e-06
-3.35214e-06
-9.41214e-06
-9.4604e-06
-9.55845e-07
-1.35574e-07
-1.37554e-07
-1.10746e-07
-1.26303e-07
-8.78961e-08
-1.16158e-07
-6.68294e-08
-1.07026e-07
-4.7358e-08
-9.882e-08
-2.93161e-08
-9.14684e-08
-1.25511e-08
-8.48997e-08
3.07756e-09
-7.90444e-08
1.76905e-08
-7.38591e-08
3.14143e-08
-6.93225e-08
4.43709e-08
-6.53544e-08
5.66631e-08
-6.19221e-08
6.83773e-08
-5.89871e-08
7.9612e-08
-5.64974e-08
9.04501e-08
-5.44353e-08
1.00971e-07
-5.27776e-08
1.11248e-07
-5.15032e-08
1.21354e-07
-5.05945e-08
1.31357e-07
-5.00366e-08
1.41324e-07
-4.98183e-08
1.51319e-07
-4.9931e-08
1.61408e-07
-5.03694e-08
1.71652e-07
-5.11309e-08
1.82118e-07
-5.2216e-08
1.92869e-07
-5.36279e-08
2.03971e-07
-5.53729e-08
2.15493e-07
-5.74598e-08
2.27506e-07
-5.99008e-08
2.40081e-07
-6.27107e-08
2.53298e-07
-6.59072e-08
2.67237e-07
-6.95113e-08
2.81984e-07
-7.3547e-08
2.97632e-07
-7.80411e-08
3.14278e-07
-8.30237e-08
3.32027e-07
-8.85277e-08
3.5099e-07
-9.45888e-08
3.71287e-07
-1.01246e-07
3.93045e-07
-1.08538e-07
4.16401e-07
-1.16511e-07
4.41499e-07
-1.25207e-07
4.68496e-07
-1.34673e-07
4.97553e-07
-1.44954e-07
5.28845e-07
-1.56098e-07
5.62554e-07
-1.68147e-07
5.98869e-07
-1.81141e-07
6.37988e-07
-1.95118e-07
6.80115e-07
-2.10104e-07
7.25456e-07
-2.26119e-07
7.74219e-07
-2.43168e-07
8.26611e-07
-2.61237e-07
8.82831e-07
-2.80294e-07
9.43065e-07
-3.00276e-07
1.00748e-06
-3.21086e-07
1.07622e-06
-3.42586e-07
1.14938e-06
-3.64586e-07
1.22702e-06
-3.86834e-07
1.30913e-06
-4.09002e-07
1.3956e-06
-4.30674e-07
1.48623e-06
-4.51331e-07
1.58071e-06
-4.70331e-07
1.67854e-06
-4.86894e-07
1.77905e-06
-5.00076e-07
1.88135e-06
-5.08751e-07
1.98426e-06
-5.11582e-07
2.08631e-06
-5.06993e-07
2.18562e-06
-4.93153e-07
2.27991e-06
-4.67956e-07
2.3664e-06
-4.28996e-07
2.44173e-06
-3.73524e-07
2.50178e-06
-2.98376e-07
2.54112e-06
-1.99751e-07
2.55523e-06
-7.4651e-08
2.54444e-06
7.80971e-08
2.491e-06
2.72384e-07
2.39084e-06
5.05081e-07
2.23458e-06
7.83584e-07
2.01211e-06
1.11279e-06
1.71239e-06
1.49752e-06
1.32342e-06
1.9423e-06
8.32274e-07
2.45111e-06
2.25414e-07
3.02683e-06
-5.10676e-07
3.67016e-06
-1.38992e-06
4.38478e-06
-2.42646e-06
5.16805e-06
-3.63308e-06
6.01376e-06
-5.02067e-06
6.91388e-06
-6.59732e-06
7.85569e-06
-8.36811e-06
8.82265e-06
-1.03336e-05
9.79215e-06
-1.24884e-05
1.07364e-05
-1.48205e-05
1.16209e-05
-1.73101e-05
1.24063e-05
-1.99279e-05
1.30474e-05
-2.26353e-05
1.34964e-05
-2.53834e-05
1.37039e-05
-2.81141e-05
1.36218e-05
-3.07601e-05
1.32065e-05
-3.32476e-05
1.24246e-05
-3.54995e-05
1.12578e-05
-3.7439e-05
9.70894e-06
-3.8995e-05
7.80438e-06
-4.01071e-05
5.59828e-06
-4.07328e-05
3.1748e-06
-4.08517e-05
6.49181e-07
-4.04643e-05
-1.84256e-06
-3.96235e-05
-4.13005e-06
-3.83974e-05
-6.06227e-06
-3.68857e-05
-7.49613e-06
-3.5211e-05
-8.32571e-06
-3.35037e-05
-8.50426e-06
-3.18882e-05
-8.06336e-06
-3.04639e-05
-7.1283e-06
-2.92873e-05
-5.90427e-06
-2.83618e-05
-4.65555e-06
-2.76352e-05
-3.66166e-06
-2.70057e-05
-3.16724e-06
-2.63459e-05
-3.30524e-06
-2.55283e-05
-4.08176e-06
-2.44656e-05
-5.29618e-06
-2.31234e-05
-6.68986e-06
-2.15369e-05
-7.91061e-06
-1.97817e-05
-8.75783e-06
-1.79827e-05
-8.98256e-06
-1.62428e-05
-8.69266e-06
-1.46955e-05
-7.73665e-06
-1.33392e-05
-6.77923e-06
-1.22394e-05
-5.50106e-06
-1.11779e-05
-5.29874e-06
-1.01921e-05
-4.90673e-06
-8.94469e-06
-6.21908e-06
-7.45745e-06
-7.41986e-06
-5.59812e-06
-9.29721e-06
-3.24524e-06
-1.1765e-05
-1.17922e-05
-9.13464e-07
-1.40758e-07
-1.64008e-07
-1.16463e-07
-1.50598e-07
-9.41162e-08
-1.38505e-07
-7.35235e-08
-1.27619e-07
-5.45035e-08
-1.1784e-07
-3.68929e-08
-1.09079e-07
-2.05432e-08
-1.01249e-07
-5.31609e-09
-9.42716e-08
8.97006e-09
-8.81452e-08
2.23873e-08
-8.27398e-08
3.50458e-08
-7.80129e-08
4.70433e-08
-7.39196e-08
5.84731e-08
-7.04169e-08
6.94311e-08
-6.74554e-08
8.0001e-08
-6.50053e-08
9.02617e-08
-6.30383e-08
1.00288e-07
-6.15294e-08
1.10151e-07
-6.04576e-08
1.1992e-07
-5.98052e-08
1.2966e-07
-5.95591e-08
1.39438e-07
-5.97087e-08
1.49317e-07
-6.02481e-08
1.5936e-07
-6.11741e-08
1.69631e-07
-6.24874e-08
1.80195e-07
-6.41918e-08
1.91117e-07
-6.62949e-08
2.02465e-07
-6.88076e-08
2.14309e-07
-7.17443e-08
2.26721e-07
-7.51229e-08
2.39778e-07
-7.89648e-08
2.53562e-07
-8.32952e-08
2.68158e-07
-8.81431e-08
2.83658e-07
-9.35405e-08
3.00158e-07
-9.9524e-08
3.17763e-07
-1.06133e-07
3.36585e-07
-1.13411e-07
3.56742e-07
-1.21403e-07
3.78363e-07
-1.30159e-07
4.01583e-07
-1.39731e-07
4.26548e-07
-1.50172e-07
4.53413e-07
-1.61537e-07
4.82341e-07
-1.73883e-07
5.13507e-07
-1.87264e-07
5.47093e-07
-2.01733e-07
5.8329e-07
-2.17338e-07
6.22297e-07
-2.34124e-07
6.64317e-07
-2.52125e-07
7.0956e-07
-2.71362e-07
7.58235e-07
-2.91843e-07
8.10551e-07
-3.13553e-07
8.6671e-07
-3.36453e-07
9.26901e-07
-3.60466e-07
9.91294e-07
-3.8548e-07
1.06004e-06
-4.11327e-07
1.13323e-06
-4.3778e-07
1.21093e-06
-4.64537e-07
1.29314e-06
-4.91207e-07
1.37975e-06
-5.17291e-07
1.47059e-06
-5.42166e-07
1.56532e-06
-5.65059e-07
1.66345e-06
-5.85032e-07
1.76433e-06
-6.00949e-07
1.86703e-06
-6.11456e-07
1.9704e-06
-6.1495e-07
2.07295e-06
-6.09542e-07
2.17284e-06
-5.93039e-07
2.2678e-06
-5.62917e-07
2.3551e-06
-5.16297e-07
2.43149e-06
-4.49915e-07
2.49324e-06
-3.6013e-07
2.53663e-06
-2.43134e-07
2.5556e-06
-9.36256e-08
2.53601e-06
9.76895e-08
2.48257e-06
3.25822e-07
2.38253e-06
6.0512e-07
2.22689e-06
9.39229e-07
2.0053e-06
1.33438e-06
1.7064e-06
1.79641e-06
1.31797e-06
2.33073e-06
8.27191e-07
2.94189e-06
2.20715e-07
3.63331e-06
-5.15184e-07
4.40606e-06
-1.39553e-06
5.26513e-06
-2.43368e-06
6.2062e-06
-3.64187e-06
7.22195e-06
-5.03112e-06
8.30313e-06
-6.61023e-06
9.4348e-06
-8.38421e-06
1.05966e-05
-1.03535e-05
1.17614e-05
-1.2513e-05
1.28959e-05
-1.48509e-05
1.39587e-05
-1.73465e-05
1.49019e-05
-1.99708e-05
1.56716e-05
-2.26847e-05
1.62104e-05
-2.54395e-05
1.64587e-05
-2.81765e-05
1.63588e-05
-3.08283e-05
1.58583e-05
-3.33208e-05
1.49171e-05
-3.55761e-05
1.35132e-05
-3.75171e-05
1.16499e-05
-3.90723e-05
9.35959e-06
-4.01813e-05
6.70735e-06
-4.08e-05
3.79349e-06
-4.09085e-05
7.57673e-07
-4.05242e-05
-2.22689e-06
-3.96754e-05
-4.97884e-06
-3.84398e-05
-7.29783e-06
-3.69207e-05
-9.01529e-06
-3.52396e-05
-1.00068e-05
-3.35286e-05
-1.02152e-05
-3.19121e-05
-9.67993e-06
-3.04876e-05
-8.55272e-06
-2.93127e-05
-7.07916e-06
-2.83912e-05
-5.57714e-06
-2.76697e-05
-4.38317e-06
-2.70456e-05
-3.79126e-06
-2.63904e-05
-3.96046e-06
-2.55756e-05
-4.89663e-06
-2.45142e-05
-6.35755e-06
-2.31715e-05
-8.03253e-06
-2.15842e-05
-9.49794e-06
-1.98287e-05
-1.05134e-05
-1.80307e-05
-1.07805e-05
-1.62939e-05
-1.04295e-05
-1.47497e-05
-9.28085e-06
-1.33997e-05
-8.12926e-06
-1.23047e-05
-6.59599e-06
-1.12504e-05
-6.3531e-06
-1.02753e-05
-5.88185e-06
-9.03444e-06
-7.4599e-06
-7.55155e-06
-8.90275e-06
-5.6888e-06
-1.116e-05
-3.33322e-06
-1.41206e-05
-1.41785e-05
-9.46894e-07
-1.29862e-07
-1.90202e-07
-1.05781e-07
-1.74679e-07
-8.36063e-08
-1.6068e-07
-6.31456e-08
-1.4808e-07
-4.42231e-08
-1.36763e-07
-2.66767e-08
-1.26625e-07
-1.03561e-08
-1.1757e-07
4.88584e-09
-1.09513e-07
1.9131e-08
-1.0239e-07
3.25362e-08
-9.61449e-08
4.52051e-08
-9.06818e-08
5.72363e-08
-8.59507e-08
6.87193e-08
-8.19e-08
7.97438e-08
-7.84798e-08
9.03912e-08
-7.56526e-08
1.00738e-07
-7.33853e-08
1.10858e-07
-7.16487e-08
1.20819e-07
-7.04188e-08
1.30689e-07
-6.96752e-08
1.40532e-07
-6.94027e-08
1.50413e-07
-6.95895e-08
1.60394e-07
-7.0229e-08
1.70537e-07
-7.13175e-08
1.80906e-07
-7.28563e-08
1.91565e-07
-7.485e-08
2.02577e-07
-7.73077e-08
2.14012e-07
-8.02421e-08
2.25938e-07
-8.36704e-08
2.38429e-07
-8.76135e-08
2.51561e-07
-9.20967e-08
2.65415e-07
-9.71494e-08
2.80077e-07
-1.02805e-07
2.95639e-07
-1.09102e-07
3.12198e-07
-1.16083e-07
3.29859e-07
-1.23794e-07
3.48733e-07
-1.32285e-07
3.6894e-07
-1.4161e-07
3.90608e-07
-1.51827e-07
4.13874e-07
-1.62996e-07
4.38883e-07
-1.75181e-07
4.6579e-07
-1.88445e-07
4.94761e-07
-2.02854e-07
5.25971e-07
-2.18473e-07
5.59601e-07
-2.35363e-07
5.95845e-07
-2.53583e-07
6.34903e-07
-2.73182e-07
6.76979e-07
-2.94201e-07
7.22284e-07
-3.16667e-07
7.71029e-07
-3.40588e-07
8.23424e-07
-3.65949e-07
8.79673e-07
-3.92702e-07
9.39969e-07
-4.20761e-07
1.00448e-06
-4.49994e-07
1.07336e-06
-4.80207e-07
1.14672e-06
-5.11135e-07
1.22461e-06
-5.42428e-07
1.30703e-06
-5.73627e-07
1.39389e-06
-6.04155e-07
1.48501e-06
-6.33283e-07
1.58006e-06
-6.60113e-07
1.67858e-06
-6.83549e-07
1.7799e-06
-7.02269e-07
1.88314e-06
-7.14692e-07
1.98713e-06
-7.18938e-07
2.09038e-06
-7.12801e-07
2.19106e-06
-6.93716e-07
2.28687e-06
-6.5873e-07
2.37505e-06
-6.04473e-07
2.45224e-06
-5.27106e-07
2.51433e-06
-4.2222e-07
2.55574e-06
-2.84541e-07
2.57116e-06
-1.09047e-07
2.56351e-06
1.05343e-07
2.51266e-06
3.76664e-07
2.41517e-06
7.02611e-07
2.26149e-06
1.09291e-06
2.04147e-06
1.5544e-06
1.74401e-06
2.09387e-06
1.35705e-06
2.71769e-06
8.67498e-07
3.43145e-06
2.61652e-07
4.23915e-06
-4.74122e-07
5.14184e-06
-1.35361e-06
6.14461e-06
-2.39133e-06
7.24392e-06
-3.60042e-06
8.43104e-06
-4.99182e-06
9.69453e-06
-6.57365e-06
1.10166e-05
-8.35114e-06
1.23741e-05
-1.03249e-05
1.37351e-05
-1.24895e-05
1.50606e-05
-1.4833e-05
1.63021e-05
-1.73353e-05
1.74042e-05
-1.9967e-05
1.83033e-05
-2.26888e-05
1.89322e-05
-2.54516e-05
1.92215e-05
-2.81963e-05
1.91035e-05
-3.08551e-05
1.85171e-05
-3.33534e-05
1.74154e-05
-3.56131e-05
1.57729e-05
-3.7557e-05
1.35938e-05
-3.91132e-05
1.09158e-05
-4.0221e-05
7.8151e-06
-4.08375e-05
4.41004e-06
-4.0944e-05
8.64162e-07
-4.05407e-05
-2.63025e-06
-3.96811e-05
-5.83846e-06
-3.84352e-05
-8.54366e-06
-3.69049e-05
-1.05456e-05
-3.52146e-05
-1.16972e-05
-3.34957e-05
-1.1934e-05
-3.18739e-05
-1.13018e-05
-3.04487e-05
-9.97786e-06
-2.92762e-05
-8.25163e-06
-2.83584e-05
-6.49497e-06
-2.7641e-05
-5.10061e-06
-2.702e-05
-4.41228e-06
-2.63658e-05
-4.61459e-06
-2.55501e-05
-5.71239e-06
-2.44857e-05
-7.42186e-06
-2.31395e-05
-9.3788e-06
-2.15481e-05
-1.10893e-05
-1.97884e-05
-1.22731e-05
-1.79867e-05
-1.25822e-05
-1.62465e-05
-1.21697e-05
-1.47003e-05
-1.08271e-05
-1.33468e-05
-9.48272e-06
-1.22498e-05
-7.69298e-06
-1.11909e-05
-7.41207e-06
-1.02068e-05
-6.86595e-06
-8.9595e-06
-8.70715e-06
-7.47221e-06
-1.039e-05
-5.61207e-06
-1.30201e-05
-3.2568e-06
-1.64759e-05
-1.65193e-05
-9.16049e-07
-1.31636e-07
-2.15724e-07
-1.08183e-07
-1.98132e-07
-8.65955e-08
-1.82268e-07
-6.66867e-08
-1.67989e-07
-4.82843e-08
-1.55165e-07
-3.12308e-08
-1.43679e-07
-1.53848e-08
-1.33416e-07
-6.23404e-10
-1.24275e-07
1.32731e-08
-1.16287e-07
2.63194e-08
-1.09191e-07
3.86383e-08
-1.03001e-07
5.03295e-08
-9.76419e-08
6.14856e-08
-9.30561e-08
7.21948e-08
-8.9189e-08
8.25385e-08
-8.59963e-08
9.25932e-08
-8.34401e-08
1.02432e-07
-8.1487e-08
1.12123e-07
-8.011e-08
1.21734e-07
-7.9286e-08
1.31329e-07
-7.89979e-08
1.40972e-07
-7.92324e-08
1.50725e-07
-7.99821e-08
1.6065e-07
-8.12429e-08
1.7081e-07
-8.30164e-08
1.81268e-07
-8.5308e-08
1.92089e-07
-8.81282e-08
2.03338e-07
-9.14918e-08
2.15086e-07
-9.54182e-08
2.27404e-07
-9.99317e-08
2.40369e-07
-1.05061e-07
2.5406e-07
-1.1084e-07
2.68563e-07
-1.17308e-07
2.83968e-07
-1.24508e-07
3.00373e-07
-1.32488e-07
3.17882e-07
-1.41303e-07
3.36606e-07
-1.51008e-07
3.56663e-07
-1.61668e-07
3.78183e-07
-1.73346e-07
4.01301e-07
-1.86114e-07
4.26163e-07
-2.00043e-07
4.52926e-07
-2.15207e-07
4.81753e-07
-2.31681e-07
5.1282e-07
-2.4954e-07
5.46312e-07
-2.68855e-07
5.82421e-07
-2.89692e-07
6.2135e-07
-3.1211e-07
6.63306e-07
-3.36156e-07
7.08501e-07
-3.61862e-07
7.57149e-07
-3.89236e-07
8.09462e-07
-4.18263e-07
8.65649e-07
-4.48889e-07
9.25904e-07
-4.81017e-07
9.90406e-07
-5.14496e-07
1.05931e-06
-5.49107e-07
1.13272e-06
-5.8455e-07
1.21071e-06
-6.20422e-07
1.29329e-06
-6.56204e-07
1.38037e-06
-6.91234e-07
1.47177e-06
-7.24684e-07
1.56719e-06
-7.55528e-07
1.66615e-06
-7.8251e-07
1.768e-06
-8.04117e-07
1.87184e-06
-8.18539e-07
1.97654e-06
-8.2363e-07
2.0806e-06
-8.16867e-07
2.18221e-06
-7.95319e-07
2.27909e-06
-7.55616e-07
2.36853e-06
-6.93911e-07
2.44726e-06
-6.0584e-07
2.51154e-06
-4.865e-07
2.55767e-06
-3.30668e-07
2.58059e-06
-1.31966e-07
2.56391e-06
1.22019e-07
2.51389e-06
4.26685e-07
2.41736e-06
7.99142e-07
2.2653e-06
1.24497e-06
2.04726e-06
1.77244e-06
1.75177e-06
2.38937e-06
1.36646e-06
3.10301e-06
8.78408e-07
3.9195e-06
2.74187e-07
4.84337e-06
-4.60442e-07
5.87647e-06
-1.34007e-06
7.02424e-06
-2.37873e-06
8.28258e-06
-3.58856e-06
9.64087e-06
-4.98087e-06
1.10868e-05
-6.56473e-06
1.26005e-05
-8.34527e-06
1.41546e-05
-1.0323e-05
1.57129e-05
-1.24931e-05
1.72307e-05
-1.48433e-05
1.86524e-05
-1.73532e-05
1.99141e-05
-1.99931e-05
2.09432e-05
-2.27238e-05
2.16629e-05
-2.54957e-05
2.19934e-05
-2.82495e-05
2.18573e-05
-3.0917e-05
2.11846e-05
-3.34231e-05
1.99215e-05
-3.5689e-05
1.80387e-05
-3.76366e-05
1.55414e-05
-3.91938e-05
1.2473e-05
-4.02999e-05
8.92121e-06
-4.09108e-05
5.02093e-06
-4.10058e-05
9.59186e-07
-4.06023e-05
-3.03377e-06
-3.97326e-05
-6.70813e-06
-3.84749e-05
-9.80144e-06
-3.69343e-05
-1.20862e-05
-3.52346e-05
-1.33969e-05
-3.35098e-05
-1.36589e-05
-3.18852e-05
-1.29264e-05
-3.04588e-05
-1.14042e-05
-2.92876e-05
-9.42283e-06
-2.8374e-05
-7.40855e-06
-2.76628e-05
-5.81186e-06
-2.70481e-05
-5.02694e-06
-2.63989e-05
-5.26385e-06
-2.55859e-05
-6.52541e-06
-2.45224e-05
-8.48527e-06
-2.3175e-05
-1.07263e-05
-2.15816e-05
-1.26827e-05
-1.98205e-05
-1.40341e-05
-1.80185e-05
-1.43842e-05
-1.62797e-05
-1.39085e-05
-1.47355e-05
-1.23713e-05
-1.33868e-05
-1.08314e-05
-1.22942e-05
-8.78563e-06
-1.12411e-05
-8.46516e-06
-1.02662e-05
-7.84085e-06
-9.02489e-06
-9.94846e-06
-7.54023e-06
-1.18747e-05
-5.6758e-06
-1.48845e-05
-3.3184e-06
-1.88333e-05
-1.88984e-05
-9.39209e-07
-1.2225e-07
-2.40873e-07
-9.91123e-08
-2.21269e-07
-7.77898e-08
-2.0359e-07
-5.80983e-08
-1.8768e-07
-3.98699e-08
-1.73393e-07
-2.29506e-08
-1.60598e-07
-7.19521e-09
-1.49171e-07
7.5352e-09
-1.39005e-07
2.13154e-08
-1.30067e-07
3.43038e-08
-1.2218e-07
4.65952e-08
-1.15292e-07
5.82838e-08
-1.0933e-07
6.94574e-08
-1.0423e-07
8.02001e-08
-9.99317e-08
9.05901e-08
-9.63864e-08
1.00701e-07
-9.35514e-08
1.10604e-07
-9.13897e-08
1.20365e-07
-8.98711e-08
1.30049e-07
-8.89702e-08
1.3972e-07
-8.8668e-08
1.49437e-07
-8.89502e-08
1.59264e-07
-8.98086e-08
1.6926e-07
-9.12391e-08
1.79488e-07
-9.32438e-08
1.90009e-07
-9.5829e-08
2.00887e-07
-9.90069e-08
2.1219e-07
-1.02794e-07
2.23985e-07
-1.07213e-07
2.36344e-07
-1.12291e-07
2.49344e-07
-1.18061e-07
2.63065e-07
-1.24561e-07
2.77592e-07
-1.31835e-07
2.93016e-07
-1.39932e-07
3.09434e-07
-1.48906e-07
3.26951e-07
-1.58819e-07
3.45677e-07
-1.69735e-07
3.65733e-07
-1.81724e-07
3.87246e-07
-1.9486e-07
4.10354e-07
-2.09222e-07
4.35204e-07
-2.24892e-07
4.61951e-07
-2.41954e-07
4.90761e-07
-2.60492e-07
5.21812e-07
-2.80591e-07
5.55287e-07
-3.0233e-07
5.91381e-07
-3.25787e-07
6.30297e-07
-3.51027e-07
6.72245e-07
-3.78103e-07
7.17437e-07
-4.07054e-07
7.6609e-07
-4.3789e-07
8.1842e-07
-4.70593e-07
8.74637e-07
-5.05105e-07
9.34939e-07
-5.41319e-07
9.9951e-07
-5.79067e-07
1.0685e-06
-6.18102e-07
1.14204e-06
-6.58088e-07
1.2202e-06
-6.98576e-07
1.30298e-06
-7.38983e-07
1.39031e-06
-7.78566e-07
1.48202e-06
-8.16394e-07
1.57781e-06
-8.51316e-07
1.67722e-06
-8.81922e-07
1.77961e-06
-9.06511e-07
1.88412e-06
-9.23045e-07
1.98959e-06
-9.29104e-07
2.09457e-06
-9.21844e-07
2.19721e-06
-8.97963e-07
2.29526e-06
-8.53662e-07
2.38595e-06
-7.84606e-07
2.46597e-06
-6.85861e-07
2.53126e-06
-5.5179e-07
2.57631e-06
-3.75715e-07
2.59472e-06
-1.5037e-07
2.59095e-06
1.25783e-07
2.54427e-06
4.73363e-07
2.45118e-06
8.92237e-07
2.30198e-06
1.39416e-06
2.08645e-06
1.98796e-06
1.79341e-06
2.68241e-06
1.41066e-06
3.48575e-06
9.24934e-07
4.40523e-06
3.22313e-07
5.446e-06
-4.1113e-07
6.60991e-06
-1.28881e-06
7.90192e-06
-2.326e-06
9.31977e-06
-3.53606e-06
1.08509e-05
-4.93012e-06
1.24809e-05
-6.51651e-06
1.41869e-05
-8.3006e-06
1.59387e-05
-1.02832e-05
1.76955e-05
-1.24591e-05
1.94065e-05
-1.48161e-05
2.10094e-05
-1.73341e-05
2.24321e-05
-1.99835e-05
2.35926e-05
-2.27244e-05
2.44038e-05