/*--------------------------------*- C++ -*----------------------------------*\
| =========                 |                                                 |
| \\      /  F ield         | OpenFOAM: The Open Source CFD Toolbox           |
|  \\    /   O peration     | Version:  v1912                                 |
|   \\  /    A nd           | Website:  www.openfoam.com                      |
|    \\/     M anipulation  |                                                 |
\*---------------------------------------------------------------------------*/
FoamFile
{
    version     2.0;
    format      ascii;
    class       volScalarField;
    location    "70";
    object      nut;
}
// * * * * * * * * * * * * * * * * * * * * * * * * * * * * * * * * * * * * * //

dimensions      [0 2 -1 0 0 0 0];


internalField   nonuniform List<scalar> 
14268
(
0.000240677
0.000260816
0.000227005
0.000193952
0.000206586
0.000203979
0.000105239
5.68271e-05
0.000108575
7.4429e-05
0.000143648
0.000207358
0.000149137
0.000209636
0.00023685
0.00025662
0.000267701
0.000249785
0.000210311
0.000142242
0.000103322
6.98462e-05
6.49066e-05
4.79367e-05
5.81366e-05
0.000124109
0.000176952
0.000195056
0.000211324
0.00023317
0.000250738
0.000274532
0.000335367
0.000427251
0.000455961
0.000429222
0.000380346
0.000331775
0.000287585
0.000233118
0.000143282
5.218e-05
3.6323e-05
5.23778e-05
8.06991e-05
0.000113316
0.000145844
0.000173269
0.000199571
0.000216744
0.000228956
0.000229853
0.000219019
0.000178231
8.40121e-05
3.03121e-05
7.59454e-06
3.16283e-06
6.77198e-06
1.49192e-05
2.11083e-05
3.18707e-05
6.4075e-05
0.00010316
0.000119141
0.000122171
0.000124038
0.000123311
0.000121922
0.000118994
0.000111808
0.000100394
8.5639e-05
7.05286e-05
5.06246e-05
2.22079e-05
8.22976e-06
5.20362e-06
6.32465e-06
1.02885e-05
1.31149e-05
1.59287e-05
2.0186e-05
3.10942e-05
4.83675e-05
6.51445e-05
6.83564e-05
6.74604e-05
6.55244e-05
6.33776e-05
6.20599e-05
6.25786e-05
6.24429e-05
5.9978e-05
5.46953e-05
5.77836e-05
7.41764e-05
9.93532e-05
0.000105111
9.03016e-05
4.46473e-05
1.13317e-05
2.15929e-06
8.50163e-07
7.18921e-07
4.5219e-07
1.41856e-07
3.12651e-08
6.25268e-09
1.1971e-09
2.2181e-10
3.9734e-11
6.86261e-12
1.14149e-12
1.84524e-13
3.13418e-14
8.26131e-15
5.35961e-15
5.36948e-15
5.95309e-15
6.85063e-15
7.80089e-15
8.75335e-15
9.75472e-15
1.08369e-14
1.20061e-14
1.3265e-14
1.46176e-14
1.60598e-14
1.75761e-14
1.91459e-14
2.07574e-14
2.2416e-14
2.41395e-14
2.59435e-14
2.7829e-14
2.97771e-14
3.17643e-14
3.37808e-14
3.58322e-14
3.79278e-14
4.00649e-14
4.22244e-14
4.43914e-14
4.6548e-14
4.87325e-14
5.08563e-14
5.31505e-14
5.50844e-14
5.73387e-14
0.00247329
0.0025817
0.00201094
0.00171154
0.00194607
0.002099
0.00107032
0.000411094
0.000990701
0.000712594
0.0014979
0.00211816
0.00140282
0.00197635
0.00229908
0.00248198
0.00265254
0.00261523
0.002182
0.00143972
0.000984299
0.000702114
0.000610896
0.000558458
0.00056729
0.00116609
0.00162984
0.00177841
0.00193362
0.00215124
0.00232113
0.00248434
0.00298653
0.0037429
0.00402809
0.00379164
0.00340358
0.00300647
0.00261146
0.00211791
0.00127525
0.000364792
0.000348328
0.000499242
0.000753093
0.00107591
0.0013975
0.00161804
0.00182858
0.00198153
0.00209441
0.00211588
0.00203787
0.0017296
0.000770914
0.000308137
0.000147826
4.72563e-05
0.0001065
0.000226187
0.000328209
0.000408993
0.000690713
0.00104888
0.00118566
0.00120562
0.00123161
0.00123496
0.00123803
0.00123082
0.0011988
0.00113361
0.00101718
0.000880178
0.000707595
0.000382328
0.000169223
0.000114115
0.000118494
0.000167977
0.000201573
0.000244412
0.000309938
0.000436465
0.000610907
0.000776144
0.000816479
0.000807281
0.000786803
0.00076781
0.000750115
0.000757332
0.000758806
0.000738732
0.000687241
0.000697963
0.000854127
0.00109291
0.00115833
0.00101905
0.000519203
0.000208777
7.17926e-05
3.55117e-05
4.86331e-05
3.62473e-05
1.38523e-05
3.21479e-06
6.9812e-07
1.43696e-07
2.75729e-08
5.03627e-09
8.82299e-10
1.48532e-10
2.42894e-11
4.19015e-12
1.13882e-12
7.57962e-13
7.64656e-13
8.51906e-13
9.83368e-13
1.12278e-12
1.26348e-12
1.4123e-12
1.57397e-12
1.74962e-12
1.93974e-12
2.14493e-12
2.36458e-12
2.59621e-12
2.83643e-12
3.08331e-12
3.33836e-12
3.60497e-12
3.88611e-12
4.182e-12
4.48911e-12
4.80304e-12
5.12282e-12
5.44999e-12
5.78657e-12
6.13216e-12
6.48291e-12
6.83558e-12
7.18774e-12
7.54616e-12
7.89393e-12
8.2765e-12
8.58806e-12
8.97797e-12
0.00620052
0.00709242
0.00561692
0.00438808
0.00503695
0.00536191
0.0031721
0.000632707
0.00300164
0.00205527
0.00410363
0.0055946
0.00376585
0.00511498
0.00587404
0.00622358
0.00668046
0.00679482
0.00626239
0.00449408
0.0026199
0.00200802
0.00129098
0.00146198
0.00140226
0.00281777
0.00400528
0.00434502
0.00472171
0.00527401
0.00568243
0.00590921
0.00688573
0.0088789
0.00967721
0.0090187
0.00802466
0.00716644
0.00629515
0.00508683
0.00317052
0.000970674
0.000846984
0.00103763
0.00137881
0.00233322
0.00337198
0.00398215
0.00449257
0.00484534
0.00510853
0.00515204
0.00496692
0.00433274
0.00203226
0.000673224
0.000390186
0.000139359
0.000221843
0.000431064
0.000864161
0.00114712
0.00177779
0.00266001
0.00296666
0.00299588
0.00307698
0.00312111
0.00317441
0.00322311
0.00323036
0.00316966
0.00298075
0.00273795
0.00242449
0.00146878
0.000477952
0.000300282
0.000268902
0.000382474
0.000523325
0.000692027
0.00094409
0.00131329
0.00176717
0.0021811
0.00230216
0.00228849
0.00225219
0.00221821
0.00217232
0.00218814
0.00219819
0.00215474
0.00206012
0.0020917
0.00246942
0.00303886
0.00322714
0.00291929
0.00168919
0.000672064
0.000311459
0.000136927
0.000168224
0.000168274
9.32438e-05
2.65523e-05
6.80126e-06
1.53704e-06
3.16242e-07
6.12027e-08
1.12499e-08
1.97253e-09
3.35156e-10
6.12242e-11
1.87207e-11
1.35601e-11
1.39037e-11
1.5623e-11
1.80715e-11
2.06464e-11
2.32593e-11
2.60381e-11
2.90638e-11
3.23571e-11
3.59312e-11
3.98008e-11
4.39543e-11
4.83387e-11
5.2889e-11
5.75723e-11
6.24219e-11
6.75035e-11
7.28764e-11
7.85485e-11
8.44487e-11
9.04867e-11
9.66487e-11
1.02969e-10
1.09488e-10
1.16197e-10
1.23017e-10
1.29882e-10
1.36748e-10
1.43751e-10
1.50552e-10
1.58055e-10
1.64161e-10
1.71815e-10
0.00981975
0.0120068
0.010917
0.00810652
0.00871509
0.00851259
0.0055697
0.00272391
0.0071199
0.00471384
0.00664983
0.00880738
0.00631858
0.00832259
0.0095396
0.00996384
0.0107504
0.0109505
0.0112524
0.0100084
0.00642465
0.00497439
0.00205707
0.00219541
0.00209122
0.00458481
0.00668706
0.0071473
0.00776265
0.00868835
0.00930206
0.00908924
0.0106116
0.01448
0.0158766
0.0144228
0.0126318
0.011187
0.0100368
0.00829142
0.00530074
0.00185241
0.00150205
0.00180802
0.00185035
0.0031306
0.00507953
0.00645839
0.00728897
0.00783667
0.00811692
0.00813773
0.00782137
0.00702108
0.00374789
0.00122266
0.000682954
0.000431481
0.000451839
0.000572226
0.00113001
0.00181763
0.00291374
0.00439478
0.00485863
0.00487013
0.00496844
0.00505364
0.0051607
0.00527906
0.00534098
0.0052907
0.0050818
0.00486888
0.00466226
0.00347593
0.00105202
0.000532697
0.000520427
0.00087862
0.0012045
0.00142375
0.00180446
0.00240524
0.00311462
0.00378385
0.00401001
0.00393062
0.00386223
0.00380951
0.00374809
0.00378149
0.00379731
0.00373341
0.00365151
0.00376183
0.0043785
0.00523747
0.00553404
0.00518832
0.00352884
0.00183369
0.000752123
0.00027789
0.000295664
0.000350423
0.000238112
8.29548e-05
2.29707e-05
5.47256e-06
1.18543e-06
2.40089e-07
4.59366e-08
8.3542e-09
1.47824e-09
2.93491e-10
1.07046e-10
8.6208e-11
9.02153e-11
1.02449e-10
1.18711e-10
1.35608e-10
1.52883e-10
1.71379e-10
1.91557e-10
2.13541e-10
2.37446e-10
2.63401e-10
2.91351e-10
3.20883e-10
3.51556e-10
3.8317e-10
4.15978e-10
4.5043e-10
4.86936e-10
5.25568e-10
5.65815e-10
6.07049e-10
6.4919e-10
6.92503e-10
7.37276e-10
7.83412e-10
8.30373e-10
8.77692e-10
9.25067e-10
9.7353e-10
1.02057e-09
1.07262e-09
1.11501e-09
1.16807e-09
0.0138778
0.0176251
0.0171126
0.01295
0.0131831
0.0124605
0.00812443
0.00685148
0.012245
0.00761169
0.00820685
0.0116962
0.00860191
0.0122228
0.0137988
0.0143029
0.0152852
0.0153628
0.0164796
0.0161052
0.0106512
0.00860335
0.00303202
0.00219087
0.00250446
0.00674604
0.00972419
0.0102188
0.0111175
0.0123709
0.0126415
0.0123356
0.0155576
0.0215844
0.0238198
0.0215351
0.0181579
0.0155973
0.0137668
0.0116265
0.00769888
0.00320513
0.00227509
0.00272071
0.00292135
0.00389058
0.00625595
0.00859994
0.010397
0.0115283
0.0120252
0.0120402
0.011465
0.0102543
0.00599509
0.0019174
0.00112427
0.000944613
0.000856202
0.000792364
0.00108318
0.00191301
0.00395145
0.0063133
0.00695262
0.00695764
0.00706855
0.00714762
0.00724904
0.00742008
0.00751554
0.00746146
0.00723317
0.00703035
0.00692853
0.0057167
0.00232282
0.000832928
0.000763842
0.00133647
0.00193183
0.00224071
0.00273594
0.00355069
0.0045364
0.00552902
0.00593449
0.00578102
0.00546459
0.00515325
0.00503314
0.00507511
0.0051299
0.0051223
0.00515429
0.00544314
0.00633785
0.00757511
0.00802876
0.00761164
0.00557161
0.00336842
0.00167956
0.000421884
0.000371155
0.000552429
0.000422701
0.000170216
4.91712e-05
1.21357e-05
2.70996e-06
5.64172e-07
1.10754e-07
2.06632e-08
3.79091e-09
8.32294e-10
3.67776e-10
3.24129e-10
3.45638e-10
3.96148e-10
4.59258e-10
5.24144e-10
5.91069e-10
6.63159e-10
7.41872e-10
8.27617e-10
9.20941e-10
1.02244e-09
1.13196e-09
1.24774e-09
1.36804e-09
1.49211e-09
1.62101e-09
1.75655e-09
1.9003e-09
2.05256e-09
2.21115e-09
2.37367e-09
2.53983e-09
2.71072e-09
2.88756e-09
3.06971e-09
3.25508e-09
3.44186e-09
3.62887e-09
3.82061e-09
4.00624e-09
4.21199e-09
4.37986e-09
4.58884e-09
0.0176007
0.022914
0.022962
0.0181697
0.0182686
0.0169908
0.0111876
0.0116083
0.0168138
0.0100401
0.00905808
0.0142219
0.00989208
0.0158213
0.0166898
0.0183133
0.0194104
0.0191956
0.0209185
0.021231
0.0145433
0.0124027
0.00470863
0.00156069
0.00295316
0.00906733
0.0127533
0.0132161
0.0142388
0.0153105
0.0149518
0.0158497
0.0211514
0.0286755
0.0317519
0.0290009
0.0243352
0.0201587
0.0172525
0.0146107
0.0100346
0.0047331
0.00365929
0.00490467
0.00587603
0.00559785
0.00722617
0.0100035
0.0126128
0.0147961
0.0161812
0.0162963
0.0155113
0.0139486
0.00873308
0.00326515
0.00173622
0.00155814
0.00139167
0.00111804
0.000876412
0.00157494
0.00478921
0.00819358
0.00897797
0.00898536
0.00916238
0.00928395
0.00937776
0.0094568
0.00949151
0.009391
0.0091429
0.00895473
0.00895159
0.00774457
0.00393008
0.0012115
0.000931014
0.00139349
0.00235496
0.00302824
0.00370005
0.0047327
0.00598407
0.00731002
0.00794842
0.0078784
0.00739291
0.00677342
0.00628176
0.00598354
0.00599991
0.00596769
0.00619093
0.00694595
0.00817554
0.00978005
0.0103626
0.00990673
0.00747005
0.00482416
0.00279618
0.00072544
0.000307823
0.000643987
0.000592887
0.000282762
8.28396e-05
2.07693e-05
4.70762e-06
9.93615e-07
1.97799e-07
3.7549e-08
7.14689e-09
1.77371e-09
9.49558e-10
8.9669e-10
9.72804e-10
1.12302e-09
1.30075e-09
1.48205e-09
1.671e-09
1.87544e-09
2.09856e-09
2.34136e-09
2.60556e-09
2.89302e-09
3.20331e-09
3.53108e-09
3.87148e-09
4.22237e-09
4.58678e-09
4.97007e-09
5.37646e-09
5.80639e-09
6.2533e-09
6.7106e-09
7.17767e-09
7.65771e-09
8.15405e-09
8.66449e-09
9.18232e-09
9.70396e-09
1.02251e-08
1.07599e-08
1.12751e-08
1.18465e-08
1.23127e-08
1.28895e-08
0.0220184
0.0290467
0.0291135
0.0243755
0.0244746
0.0217678
0.0151155
0.0158508
0.0213088
0.0115497
0.0111434
0.0182122
0.0119535
0.0184236
0.0170288
0.0210784
0.0245199
0.0243356
0.0257767
0.0252937
0.0176613
0.0160837
0.00770518
0.00198964
0.00397247
0.0116738
0.0159806
0.0159855
0.0163345
0.0170814
0.0172
0.0204185
0.0272999
0.0367408
0.0408033
0.037443
0.0316306
0.025878
0.0212775
0.0175793
0.0124865
0.00635046
0.00537523
0.00768739
0.0101905
0.00921091
0.00986231
0.0124612
0.0153254
0.0182171
0.0203219
0.0208204
0.0200115
0.0180037
0.0118229
0.00503121
0.00240255
0.002147
0.00207367
0.00149105
0.0011518
0.00174602
0.00586495
0.010099
0.0109311
0.0108836
0.0112061
0.0115656
0.0117571
0.0117902
0.0116342
0.0110904
0.0105942
0.0102542
0.0102099
0.00898214
0.00529242
0.00212151
0.00126022
0.00129623
0.00235108
0.00362353
0.00464238
0.00588816
0.00739803
0.0090985
0.0100091
0.0101157
0.00975748
0.00915477
0.00834194
0.00769087
0.0075065
0.00700862
0.00692001
0.00801653
0.00966291
0.0117315
0.0124844
0.0119651
0.00921852
0.0061729
0.00406547
0.00160728
0.000298538
0.000492083
0.000640769
0.000396001
0.000117809
2.96269e-05
6.72474e-06
1.42171e-06
2.84067e-07
5.4529e-08
1.08699e-08
3.17203e-09
2.04688e-09
2.03297e-09
2.2431e-09
2.60205e-09
3.00685e-09
3.4187e-09
3.85223e-09
4.32245e-09
4.83476e-09
5.39112e-09
5.99575e-09
6.65314e-09
7.36128e-09
8.10762e-09
8.88119e-09
9.67696e-09
1.05018e-08
1.13684e-08
1.22856e-08
1.32522e-08
1.42543e-08
1.52742e-08
1.63132e-08
1.73796e-08
1.84788e-08
1.96044e-08
2.07412e-08
2.18836e-08
2.30196e-08
2.41848e-08
2.52985e-08
2.6533e-08
2.75368e-08
2.87714e-08
0.0246287
0.0346743
0.0345881
0.0306216
0.0307907
0.0243226
0.0189469
0.0195549
0.025603
0.0119759
0.0145518
0.023625
0.0149321
0.019068
0.0156099
0.0206819
0.0297066
0.0299521
0.0315048
0.0290157
0.0194908
0.019368
0.0113121
0.00367106
0.00531428
0.014216
0.0190747
0.0172004
0.0168629
0.0180781
0.020493
0.0256554
0.0333582
0.0446754
0.0497671
0.0457615
0.0388605
0.0321969
0.0258208
0.020539
0.0147584
0.00788243
0.00701325
0.0103681
0.0143541
0.0137697
0.014125
0.0164737
0.019328
0.0222458
0.0245959
0.025477
0.0246406
0.0222502
0.0150741
0.00698891
0.00341776
0.00290434
0.00327086
0.00230128
0.00144358
0.00242721
0.00700946
0.0114537
0.0115835
0.0112619
0.0119162
0.0131188
0.0139764
0.0142144
0.0140124
0.0130205
0.0119922
0.0110923
0.0107517
0.00902529
0.00566205
0.00305989
0.0016829
0.0014338
0.00208398
0.00369523
0.00527169
0.00674285
0.00850512
0.0106092
0.0118063
0.0122201
0.0120964
0.011598
0.0108698
0.0102902
0.00996752
0.00895719
0.00779525
0.00858695
0.0106586
0.0133359
0.0142733
0.0135701
0.0105648
0.00740082
0.00538519
0.00288322
0.000604669
0.000289035
0.000457367
0.000387671
0.000134422
3.41311e-05
7.81384e-06
1.66115e-06
3.34463e-07
6.5571e-08
1.41655e-08
5.11352e-09
3.90326e-09
4.01319e-09
4.50325e-09
5.23403e-09
6.02724e-09
6.83667e-09
7.69552e-09
8.62695e-09
9.63855e-09
1.07338e-08
1.19214e-08
1.32099e-08
1.4591e-08
1.60422e-08
1.75388e-08
1.90703e-08
2.06551e-08
2.23148e-08
2.40638e-08
2.58975e-08
2.77859e-08
2.96954e-08
3.16327e-08
3.36112e-08
3.56396e-08
3.77024e-08
3.9774e-08
4.18446e-08
4.38894e-08
4.59802e-08
4.79582e-08
5.01462e-08
5.19125e-08
5.40712e-08
0.0254726
0.0383286
0.0387123
0.0366308
0.036936
0.0243668
0.0218684
0.0220363
0.0287557
0.0121812
0.0168002
0.0298943
0.0182972
0.0186095
0.013731
0.0196251
0.0343212
0.0361426
0.0382022
0.0340088
0.0200727
0.0215751
0.0149406
0.00584655
0.00679031
0.0170056
0.0217062
0.0172078
0.0171321
0.0197606
0.0253789
0.0313612
0.0398342
0.0533663
0.0595086
0.0547886
0.0466438
0.0390163
0.031205
0.0238191
0.0171063
0.00947806
0.0085561
0.0128734
0.01825
0.0182418
0.0187556
0.0212755
0.0242873
0.0272468
0.0298183
0.0308538
0.0297775
0.0268658
0.0185805
0.00916148
0.0048123
0.00427301
0.0047792
0.0035229
0.00213893
0.00335368
0.00803146
0.0115637
0.0105098
0.0100964
0.0109848
0.0129612
0.0152569
0.0165484
0.0166313
0.0155784
0.014213
0.0127516
0.0118955
0.00887266
0.00507222
0.00346545
0.00255642
0.00192303
0.00190436
0.00335117
0.00526228
0.00703464
0.00921911
0.0118146
0.0132696
0.0140478
0.014335
0.0140364
0.0133673
0.012859
0.012559
0.0114574
0.00936181
0.00940142
0.011772
0.0152693
0.0166253
0.0154887
0.0116933
0.00840626
0.00670366
0.0042802
0.00135575
0.000281606
0.000225762
0.000235852
0.000119453
3.14754e-05
7.38403e-06
1.61344e-06
3.35039e-07
6.88089e-08
1.69046e-08
7.81589e-09
6.80206e-09
7.17501e-09
8.15597e-09
9.47817e-09
1.08672e-08
1.22958e-08
1.38188e-08
1.54651e-08
1.72444e-08
1.91633e-08
2.12368e-08
2.34763e-08
2.58603e-08
2.83533e-08
3.08986e-08
3.3488e-08
3.61588e-08
3.89411e-08
4.1853e-08
4.48824e-08
4.79668e-08
5.1067e-08
5.41894e-08
5.7353e-08
6.05684e-08
6.38098e-08
6.70358e-08
7.02337e-08
7.3362e-08
7.65417e-08
7.95123e-08
8.27882e-08
8.54077e-08
8.85875e-08
0.0253833
0.0394584
0.0403392
0.04156
0.0409927
0.0230588
0.0206305
0.0214449
0.0290717
0.0123945
0.0172491
0.0358904
0.0204735
0.0169094
0.0111805
0.0179762
0.0350947
0.0420476
0.0447408
0.0407201
0.0201189
0.0223843
0.018
0.00788456
0.00817469
0.0197395
0.0231236
0.0166191
0.0173706
0.0233751
0.0311154
0.0369911
0.0462189
0.0620063
0.0692486
0.0637642
0.0543171
0.0457259
0.0367769
0.0272337
0.0193804
0.0110359
0.00998957
0.0151651
0.0217657
0.0222927
0.0230284
0.0258905
0.0291942
0.0323371
0.0351272
0.0362196
0.0348177
0.0314316
0.0221751
0.0115687
0.00648506
0.00578816
0.0062205
0.00474957
0.00294903
0.00423147
0.0084349
0.00971017
0.00824937
0.00784603
0.00885689
0.0111991
0.0145104
0.0175623
0.018907
0.0181841
0.016909
0.0153663
0.0142715
0.0101442
0.00464643
0.00330006
0.00334066
0.00298893
0.00230752
0.00310477
0.00502001
0.00736782
0.0103262
0.0134657
0.0150562
0.0157024
0.0162092
0.0161815
0.0157238
0.015352
0.0150862
0.0139979
0.0116067
0.0110182
0.0135635
0.0178727
0.019718
0.0181265
0.0128669
0.00903636
0.00780387
0.0056594
0.00232172
0.000567417
0.000174043
0.000114327
6.17217e-05
1.97706e-05
5.19347e-06
1.2406e-06
2.79885e-07
6.41678e-08
1.95856e-08
1.16478e-08
1.10659e-08
1.18975e-08
1.36374e-08
1.58156e-08
1.80454e-08
2.03617e-08
2.28327e-08
2.54876e-08
2.83362e-08
3.13932e-08
3.46805e-08
3.82012e-08
4.19242e-08
4.57714e-08
4.96641e-08
5.35967e-08
5.76179e-08
6.17772e-08
6.60923e-08
7.05232e-08
7.49835e-08
7.94239e-08
8.38512e-08
8.8293e-08
9.2765e-08
9.72235e-08
1.01604e-07
1.05893e-07
1.10031e-07
1.14193e-07
1.18009e-07
1.22185e-07
1.2546e-07
1.29393e-07
0.0253545
0.0405255
0.0425266
0.0461851
0.0420105
0.0218744
0.0193198
0.0214515
0.0284322
0.0137937
0.0176709
0.0418926
0.0222972
0.0149079
0.00903296
0.0158622
0.0341077
0.0477103
0.0514582
0.0478011
0.0214426
0.0213248
0.0201754
0.00981627
0.00954488
0.0226778
0.0236082
0.0160158
0.0193357
0.0289713
0.0371975
0.0428408
0.0529855
0.0711536
0.0794465
0.0732235
0.0624395
0.0527588
0.0427023
0.0310095
0.0216313
0.0126037
0.0114129
0.0172954
0.0248391
0.0258483
0.0269285
0.0303302
0.0341145
0.0376202
0.0407267
0.0418799
0.0401362
0.0361182
0.0256757
0.0138668
0.00782426
0.00660576
0.00706506
0.00579749
0.00371743
0.00508259
0.00779408
0.00779392
0.00689087
0.00639789
0.00672725
0.00876927
0.0125324
0.0167604
0.019975
0.0205351
0.0196295
0.0181006
0.0171232
0.0126203
0.00535451
0.00306093
0.0037186
0.00398675
0.00333526
0.00351402
0.00540713
0.00842316
0.0121703
0.0158133
0.0175372
0.0176561
0.0177477
0.0177955
0.0175642
0.0174595
0.0173572
0.0163961
0.0139487
0.0132835
0.0161348
0.0210757
0.0232518
0.0212114
0.0142432
0.00934529
0.00824208
0.00675466
0.00330379
0.00104525
0.000313751
0.000114538
4.47292e-05
1.48829e-05
4.21133e-06
1.08169e-06
2.62793e-07
6.68777e-08
2.447e-08
1.71812e-08
1.70587e-08
1.85788e-08
2.13758e-08
2.46973e-08
2.80422e-08
3.15387e-08
3.52575e-08
3.92175e-08
4.34287e-08
4.79159e-08
5.27038e-08
5.77866e-08
6.31017e-08
6.85074e-08
7.39325e-08
7.93567e-08
8.48395e-08
9.0449e-08
9.62052e-08
1.02042e-07
1.0783e-07
1.135e-07
1.19057e-07
1.24528e-07
1.29923e-07
1.3521e-07
1.4033e-07
1.4528e-07
1.4999e-07
1.54674e-07
1.58907e-07
1.63515e-07
1.6707e-07
1.71318e-07
0.0262485
0.0413844
0.0465483
0.0495022
0.0430519
0.0233573
0.0208027
0.0246172
0.0287092
0.0169018
0.0196878
0.0469111
0.023356
0.0123513
0.00891207
0.0129717
0.0321802
0.0521134
0.0580455
0.054669
0.0257144
0.01893
0.0214808
0.011565
0.0108356
0.0255162
0.0230235
0.0160605
0.0236149
0.0347505
0.0431305
0.0485899
0.0596855
0.0802913
0.0896749
0.0826664
0.0704917
0.0597051
0.048643
0.035052
0.0237489
0.0140468
0.0127966
0.0192125
0.0271322
0.0281076
0.0296478
0.0338274
0.0383194
0.0424523
0.0459347
0.0471527
0.0450987
0.0406253
0.0290426
0.0155908
0.00850243
0.00684883
0.00727317
0.00654215
0.00440684
0.00557674
0.00656479
0.00729048
0.00751216
0.00701158
0.00595406
0.00643614
0.00978936
0.0145897
0.0192302
0.021779
0.0221317
0.0207016
0.0198382
0.0151657
0.00705156
0.00318719
0.00364977
0.00444227
0.00442433
0.00464182
0.0066082
0.00992882
0.0140482
0.0181168
0.0201271
0.0200909
0.0195374
0.019023
0.0187602
0.0188072
0.0188438
0.0181969
0.0161145
0.0157706
0.0190116
0.0244439
0.0267938
0.0244276
0.0159389
0.00947617
0.00782371
0.00683846
0.00395616
0.00150783
0.000527546
0.000176365
5.63355e-05
1.68735e-05
4.64896e-06
1.19117e-06
2.92993e-07
7.81714e-08
3.22927e-08
2.48185e-08
2.51383e-08
2.75915e-08
3.17489e-08
3.65014e-08
4.12359e-08
4.61955e-08
5.14349e-08
5.69436e-08
6.27374e-08
6.88589e-08
7.53309e-08
8.21239e-08
8.90901e-08
9.60915e-08
1.03048e-07
1.09913e-07
1.1673e-07
1.23563e-07
1.30408e-07
1.37183e-07
1.43781e-07
1.50141e-07
1.56279e-07
1.62236e-07
1.68035e-07
1.73644e-07
1.78996e-07
1.84102e-07
1.88893e-07
1.936e-07
1.97791e-07
2.02326e-07
2.05749e-07
2.09827e-07
0.0305699
0.0436474
0.052123
0.0535902
0.0472111
0.0290421
0.0253554
0.029172
0.0313053
0.0207064
0.0231584
0.0501495
0.0229646
0.0102659
0.0117661
0.0116455
0.0297744
0.0542571
0.0646538
0.0613696
0.0318174
0.0160849
0.0222595
0.0132628
0.012131
0.0284081
0.0220624
0.0185293
0.0287754
0.0406476
0.0491596
0.0545788
0.0667362
0.0897427
0.100152
0.0924231
0.0788625
0.0668984
0.054691
0.0395783
0.0260325
0.015081
0.0140699
0.0208873
0.0281766
0.028352
0.0308111
0.03627
0.0417631
0.046846
0.0507083
0.0519757
0.0496683
0.044879
0.0324447
0.0172927
0.00897266
0.00705362
0.00725748
0.00688339
0.00503592
0.00535956
0.00592813
0.0079098
0.00915075
0.0086267
0.0069841
0.00558339
0.00727294
0.0118
0.0171353
0.021332
0.0237835
0.0231959
0.0224303
0.0175676
0.00900724
0.00415973
0.00342149
0.0042127
0.00514105
0.00594441
0.0080848
0.0114832
0.0157167
0.0201182
0.0225429
0.0227964
0.0220272
0.0208648
0.0200331
0.0198569
0.0198965
0.019382
0.0178524
0.0182073
0.0219662
0.0278934
0.0303921
0.0277163
0.0179809
0.00983195
0.00719559
0.00598609
0.00384695
0.00184104
0.000711645
0.000245308
7.50929e-05
2.12719e-05
5.66976e-06
1.43007e-06
3.51816e-07
9.71077e-08
4.32139e-08
3.48271e-08
3.56124e-08
3.92277e-08
4.50359e-08
5.14705e-08
5.78287e-08
6.44795e-08
7.14251e-08
7.85979e-08
8.60616e-08
9.3881e-08
1.0206e-07
1.10498e-07
1.18973e-07
1.27304e-07
1.35364e-07
1.43125e-07
1.50687e-07
1.58134e-07
1.65478e-07
1.72641e-07
1.79505e-07
1.86013e-07
1.92195e-07
1.98104e-07
2.03765e-07
2.0916e-07
2.14225e-07
2.18993e-07
2.234e-07
2.27667e-07
2.31422e-07
2.35443e-07
2.38409e-07
2.41945e-07
0.0363816
0.0484965
0.058583
0.0593969
0.0517999
0.0323639
0.0308563
0.0336219
0.0363619
0.0243323
0.0261077
0.0508025
0.0228346
0.00913463
0.0153275
0.01411
0.0266803
0.0528916
0.0703555
0.067913
0.0378457
0.01416
0.0211077
0.0146437
0.0133701
0.0311083
0.0209826
0.0224261
0.0338036
0.0463864
0.0550637
0.0604974
0.0737303
0.0991988
0.110662
0.102173
0.0871831
0.0740261
0.0605534
0.0442428
0.0286439
0.0161061
0.0152315
0.0223659
0.0274414
0.0266366
0.0304285
0.037397
0.0439239
0.0500543
0.0543046
0.055623
0.053229
0.0485847
0.035836
0.0194084
0.00988018
0.00741584
0.00724351
0.0067629
0.00552742
0.00474741
0.0058005
0.00905
0.0108809
0.0102241
0.00819458
0.00590517
0.00600527
0.00915687
0.014208
0.0191963
0.0236034
0.0247372
0.0247237
0.0197811
0.0108328
0.00585734
0.0038873
0.00399429
0.00529505
0.00701977
0.00948686
0.0128584
0.0169545
0.0216841
0.0245214
0.0253251
0.0247577
0.0235222
0.0220999
0.0213447
0.0210256
0.0203633
0.0190703
0.0203108
0.0248103
0.0312652
0.0339216
0.0309527
0.0202206
0.0107936
0.00739259
0.00576403
0.00379423
0.00209107
0.000873305
0.000305518
9.41524e-05
2.65722e-05
7.02431e-06
1.76112e-06
4.33776e-07
1.22475e-07
5.72139e-08
4.74429e-08
4.87777e-08
5.37653e-08
6.14923e-08
6.97941e-08
7.79468e-08
8.6392e-08
9.50578e-08
1.0386e-07
1.12888e-07
1.2221e-07
1.31773e-07
1.41344e-07
1.50721e-07
1.59749e-07
1.6833e-07
1.76456e-07
1.84229e-07
1.91743e-07
1.99018e-07
2.05983e-07
2.12535e-07
2.18637e-07
2.24333e-07
2.29684e-07
2.34721e-07
2.39447e-07
2.4381e-07
2.47863e-07
2.51562e-07
2.55081e-07
2.58162e-07
2.614e-07
2.63744e-07
2.66556e-07
0.0404125
0.0556906
0.0690469
0.06957
0.0554496
0.0322419
0.0383563
0.0402465
0.0454817
0.0265576
0.0302415
0.0493456
0.0257579
0.00931997
0.0216745
0.0205889
0.0220259
0.0490986
0.0767137
0.0777152
0.046606
0.0142836
0.0175197
0.01539
0.0151795
0.0351553
0.0200407
0.0282451
0.0417728
0.0553251
0.0643797
0.0699851
0.0850527
0.11414
0.127103
0.117599
0.100453
0.0853383
0.0697511
0.0509876
0.0332041
0.0185142
0.0171194
0.0243674
0.0264916
0.0249228
0.0302981
0.0381762
0.0453103
0.0527922
0.0577211
0.0593494
0.0575517
0.0538735
0.0410457
0.0227917
0.0120953
0.00874742
0.00789874
0.00661098
0.00605502
0.0044974
0.00639578
0.0113545
0.0136762
0.0127821
0.0102713
0.00699728
0.00575633
0.00662993
0.00997966
0.0147941
0.0207351
0.0240178
0.0261303
0.0218952
0.0131165
0.0084981
0.00558369
0.00473787
0.00560594
0.00832141
0.0113739
0.0145611
0.0184506
0.023893
0.0272357
0.0288019
0.0288794
0.0278505
0.0262961
0.0248202
0.0236547
0.0223776
0.0207271
0.0231326
0.0290443
0.0364156
0.0393319
0.0358512
0.0236421
0.0129298
0.00895501
0.00714872
0.00483427
0.00258262
0.00111287
0.000392161
0.000121635
3.47719e-05
9.29986e-06
2.34999e-06
5.82465e-07
1.69454e-07
8.39572e-08
7.18363e-08
7.42262e-08
8.16516e-08
9.26351e-08
1.03983e-07
1.15066e-07
1.26241e-07
1.37336e-07
1.48228e-07
1.58969e-07
1.69568e-07
1.79936e-07
1.89949e-07
1.99455e-07
2.08336e-07
2.16538e-07
2.2407e-07
2.31081e-07
2.37649e-07
2.43835e-07
2.49578e-07
2.54838e-07
2.59593e-07
2.63924e-07
2.67888e-07
2.7153e-07
2.74879e-07
2.77874e-07
2.80597e-07
2.83015e-07
2.85239e-07
2.87162e-07
2.8911e-07
2.90482e-07
2.92158e-07
0.0370879
0.0551508
0.0766584
0.0823875
0.0518255
0.0259872
0.0416655
0.0461213
0.0565119
0.022802
0.0359901
0.0440433
0.0315868
0.012185
0.029673
0.0296745
0.0207594
0.0416035
0.0774299
0.0884926
0.0570324
0.0191717
0.0125302
0.0123813
0.0168886
0.039645
0.0223215
0.0359651
0.051637
0.0664607
0.0761934
0.0821707
0.0996226
0.13348
0.14845
0.137563
0.117486
0.0998009
0.0816721
0.0586147
0.0388889
0.0222289
0.0196639
0.0266141
0.0298986
0.0285861
0.0315533
0.0362829
0.0418662
0.0500257
0.0557869
0.0590571
0.060456
0.06062
0.0478708
0.0269327
0.0153092
0.0119267
0.0108598
0.00832959
0.0062422
0.00498658
0.00785831
0.0138967
0.0157209
0.0145773
0.0121064
0.00841908
0.00617669
0.00610932
0.00722931
0.00995768
0.0143739
0.0175816
0.0199911
0.0178031
0.013528
0.0110225
0.0083136
0.0073768
0.0077638
0.00985565
0.0127435
0.016023
0.0206786
0.0274646
0.0313153
0.0328932
0.0335209
0.0331209
0.0318774
0.0306405
0.0294066
0.0270817
0.0236548
0.026346
0.0340071
0.0427099
0.0459252
0.0417779
0.0276735
0.0158063
0.0115976
0.00986907
0.00697307
0.00346866
0.00143043
0.000499818
0.000155052
4.43002e-05
1.18597e-05
3.00219e-06
7.54448e-07
2.32658e-07
1.25959e-07
1.11905e-07
1.16058e-07
1.2692e-07
1.41873e-07
1.55922e-07
1.68898e-07
1.81351e-07
1.93165e-07
2.04265e-07
2.14768e-07
2.24748e-07
2.34174e-07
2.42946e-07
2.5093e-07
2.58065e-07
2.64357e-07
2.69878e-07
2.74775e-07
2.79162e-07
2.83105e-07
2.8662e-07
2.89696e-07
2.92368e-07
2.9469e-07
2.96722e-07
2.98511e-07
3.00055e-07
3.01401e-07
3.02535e-07
3.03592e-07
3.04518e-07
3.05366e-07
3.06158e-07
3.06746e-07
3.07494e-07
0.031944
0.052933
0.07601
0.094182
0.0515556
0.0227482
0.0374085
0.0410184
0.0656486
0.0174421
0.0420893
0.0385555
0.0315322
0.0160635
0.038328
0.0398353
0.0282242
0.0336829
0.0716896
0.0945709
0.0666643
0.0250714
0.00966745
0.0094123
0.0187089
0.0446642
0.02773
0.0444288
0.0616365
0.0779075
0.0884777
0.0950851
0.115022
0.153258
0.170109
0.158012
0.135249
0.114829
0.0940983
0.0671727
0.0434076
0.0248496
0.0214517
0.0291443
0.0336539
0.0310221
0.0269853
0.0288354
0.0355551
0.0454027
0.0520709
0.056449
0.0621935
0.0672002
0.0545951
0.0306581
0.0182803
0.015047
0.0140615
0.0107997
0.00610718
0.00558553
0.00972302
0.0152264
0.0154378
0.0139354
0.0118995
0.00907241
0.00678866
0.00647514
0.00695145
0.00803682
0.0101465
0.0123608
0.0137179
0.0124822
0.0114005
0.0112875
0.0101352
0.00980652
0.0104664
0.0118191
0.0140314
0.0178567
0.0240246
0.0323645
0.0366948
0.0378304
0.037986
0.037846
0.037074
0.0363596
0.0353432
0.0327178
0.0276073
0.0300092
0.0389569
0.0488909
0.0523468
0.0473418
0.0310552
0.0181828
0.0139927
0.0123995
0.0090883
0.00434286
0.00172305
0.000596411
0.000184562
5.24091e-05
1.39091e-05
3.50287e-06
8.94258e-07
2.94817e-07
1.73866e-07
1.59023e-07
1.64821e-07
1.78131e-07
1.94441e-07
2.08415e-07
2.21016e-07
2.32614e-07
2.4314e-07
2.52599e-07
2.61142e-07
2.68864e-07
2.75768e-07
2.81815e-07
2.86995e-07
2.91347e-07
2.94961e-07
2.97982e-07
3.00558e-07
3.02813e-07
3.04767e-07
3.06432e-07
3.07804e-07
3.08932e-07
3.0986e-07
3.10646e-07
3.11327e-07
3.1191e-07
3.12434e-07
3.12871e-07
3.13251e-07
3.13474e-07
3.13598e-07
3.1374e-07
3.13778e-07
3.13892e-07
0.0297948
0.0497883
0.0697179
0.0999364
0.0601366
0.0267724
0.0304278
0.0312859
0.0736103
0.0158078
0.0452623
0.0323855
0.0268344
0.0204286
0.0467379
0.0501489
0.0372419
0.0305513
0.0616607
0.0942725
0.0745551
0.0285676
0.0110762
0.0106374
0.0209687
0.0481269
0.0341538
0.0526654
0.0712898
0.0890329
0.100527
0.107857
0.130188
0.172937
0.191723
0.178373
0.152797
0.129614
0.106279
0.0761663
0.0466228
0.0256103
0.0223311
0.0309539
0.0337666
0.0282496
0.0199102
0.0200994
0.0272065
0.0397071
0.0476338
0.0525281
0.0625159
0.0719686
0.0604515
0.0339603
0.0209481
0.0178543
0.0169727
0.013214
0.00631372
0.00531856
0.0102658
0.0142741
0.0133118
0.0112889
0.00883265
0.00695025
0.00660019
0.0069903
0.00739814
0.00801645
0.00916697
0.0107536
0.0119725
0.0108481
0.0092623
0.00937113
0.0101526
0.0115108
0.0129151
0.0142586
0.0163287
0.0206444
0.0281377
0.0378797
0.0428459
0.0439
0.0431656
0.042345
0.0416136
0.0414003
0.0404747
0.0372335
0.0309978
0.0333924
0.0435849
0.0546192
0.0582602
0.052325
0.0335233
0.0194162
0.0155774
0.0144719
0.0111332
0.00514311
0.00194896
0.000663038
0.000202827
5.69951e-05
1.50048e-05
3.76401e-06
9.82436e-07
3.4899e-07
2.22525e-07
2.07173e-07
2.13249e-07
2.25907e-07
2.40455e-07
2.52556e-07
2.63091e-07
2.72342e-07
2.8034e-07
2.87186e-07
2.93074e-07
2.98123e-07
3.02387e-07
3.05943e-07
3.08852e-07
3.11151e-07
3.12979e-07
3.14469e-07
3.15662e-07
3.16529e-07
3.1711e-07
3.17506e-07
3.17772e-07