/*--------------------------------*- C++ -*----------------------------------*\
| =========                 |                                                 |
| \\      /  F ield         | OpenFOAM: The Open Source CFD Toolbox           |
|  \\    /   O peration     | Version:  v1912                                 |
|   \\  /    A nd           | Website:  www.openfoam.com                      |
|    \\/     M anipulation  |                                                 |
\*---------------------------------------------------------------------------*/
FoamFile
{
    version     2.0;
    format      ascii;
    class       volVectorField;
    location    "90";
    object      U;
}
// * * * * * * * * * * * * * * * * * * * * * * * * * * * * * * * * * * * * * //

dimensions      [0 1 -1 0 0 0 0];


internalField   nonuniform List<vector> 
114144
(
(-0.432396 -0.00350072 0)
(-0.395713 -0.0037626 0)
(-0.351314 -0.00399556 0)
(-0.304553 -0.00419785 0)
(-0.255777 -0.00436732 0)
(-0.205378 -0.00450159 0)
(-0.1538 -0.00459798 0)
(-0.101533 -0.00465289 0)
(-0.0490966 -0.00466052 0)
(0.00283117 -0.00458875 0)
(0.0536574 -0.00446914 0)
(0.102845 -0.00433799 0)
(0.149725 -0.00414174 0)
(0.193749 -0.00389631 0)
(0.234484 -0.00361947 0)
(0.271674 -0.00333193 0)
(0.305299 -0.0030592 0)
(0.335631 -0.0028296 0)
(0.363255 -0.00266942 0)
(0.389077 -0.00259625 0)
(0.414288 -0.00261671 0)
(0.440281 -0.00275284 0)
(0.468519 -0.00301812 0)
(0.500411 -0.00340731 0)
(0.537174 -0.0038983 0)
(0.579708 -0.00445541 0)
(0.628501 -0.00503335 0)
(0.683593 -0.0055875 0)
(0.744586 -0.00608333 0)
(0.810713 -0.00650139 0)
(0.880951 -0.00684313 0)
(0.95415 -0.0071155 0)
(1.02921 -0.00730808 0)
(1.10522 -0.00742863 0)
(1.18154 -0.00749872 0)
(1.25785 -0.00754539 0)
(1.33411 -0.0075938 0)
(1.41054 -0.00766177 0)
(1.48746 -0.0077564 0)
(1.56518 -0.00787291 0)
(1.64392 -0.00799561 0)
(1.72363 -0.00810076 0)
(1.80401 -0.00816062 0)
(1.88444 -0.00814813 0)
(1.96405 -0.00804117 0)
(2.04181 -0.00782572 0)
(2.1166 -0.00749736 0)
(2.1873 -0.00706099 0)
(2.25294 -0.00652886 0)
(2.31271 -0.00591754 0)
(2.36597 -0.00524433 0)
(2.41229 -0.0045239 0)
(2.45135 -0.00376588 0)
(2.48289 -0.00297393 0)
(2.50667 -0.00214637 0)
(2.5224 -0.00127834 0)
(2.52972 -0.000365331 0)
(2.52817 0.000598151 0)
(2.51744 0.00160686 0)
(2.49714 0.00266058 0)
(2.46705 0.0037334 0)
(2.42712 0.00480224 0)
(2.37761 0.00583937 0)
(2.31905 0.00681702 0)
(2.2522 0.00771151 0)
(2.17801 0.00850684 0)
(2.09754 0.00919713 0)
(2.01181 0.00978727 0)
(1.92177 0.010292 0)
(1.82814 0.0107328 0)
(1.73141 0.011134 0)
(1.63184 0.0115189 0)
(1.52945 0.0119048 0)
(1.42414 0.0123003 0)
(1.31576 0.012704 0)
(1.20422 0.0131053 0)
(1.08958 0.0134892 0)
(0.972094 0.0138438 0)
(0.852293 0.0141676 0)
(0.730938 0.0144069 0)
(0.60894 0.0145297 0)
(0.487277 0.0145354 0)
(0.366913 0.0144319 0)
(0.248698 0.0142343 0)
(0.133424 0.0139681 0)
(0.021581 0.0136465 0)
(-0.0880835 0.0132356 0)
(-0.1954 0.0129787 0)
(-0.299638 0.0127788 0)
(-0.401984 0.0126567 0)
(-0.503149 0.0126152 0)
(-0.603855 0.0126504 0)
(-0.704746 0.0127514 0)
(-0.806335 0.0129018 0)
(-0.908969 0.0130823 0)
(-1.01281 0.0132723 0)
(-1.11784 0.0134514 0)
(-1.22388 0.0136012 0)
(-1.33058 0.0137059 0)
(-1.43752 0.0137533 0)
(-1.54418 0.0137351 0)
(-1.64999 0.0136469 0)
(-1.7544 0.0134885 0)
(-1.85686 0.0132632 0)
(-1.95689 0.0129779 0)
(-2.05406 0.0126423 0)
(-2.14808 0.0122683 0)
(-2.23874 0.0118676 0)
(-2.32593 0.0114506 0)
(-2.4096 0.0110242 0)
(-2.48976 0.0105912 0)
(-2.56641 0.0101496 0)
(-2.63951 0.00969208 0)
(-2.70893 0.0092075 0)
(-2.77445 0.0086831 0)
(-2.83573 0.00810709 0)
(-2.89237 0.00747132 0)
(-2.94392 0.00677395 0)
(-2.98998 0.00602096 0)
(-3.03021 0.00522641 0)
(-3.06444 0.00440967 0)
(-3.09268 0.00359341 0)
(-3.11513 0.00279972 0)
(-3.13212 0.00204601 0)
(-3.14409 0.00134421 0)
(-3.15151 0.000699636 0)
(-3.155 0.000167155 0)
(-3.15467 -0.000444639 0)
(-3.15004 -0.00107146 0)
(-3.14086 -0.00176846 0)
(-3.12648 -0.00257259 0)
(-3.10598 -0.00351527 0)
(-3.0783 -0.0046157 0)
(-3.04238 -0.00587765 0)
(-2.99723 -0.00728698 0)
(-2.94206 -0.00881215 0)
(-2.87642 -0.0104028 0)
(-2.80016 -0.0120041 0)
(-2.71349 -0.0135691 0)
(-2.61689 -0.0150663 0)
(-2.51099 -0.0164711 0)
(-2.39652 -0.017774 0)
(-2.27416 -0.0189733 0)
(-2.14469 -0.0200802 0)
(-2.00864 -0.0211071 0)
(-1.8666 -0.0220582 0)
(-1.71913 -0.0229268 0)
(-1.5669 -0.0236886 0)
(-1.41079 -0.0243072 0)
(-1.2519 -0.0247397 0)
(-1.09162 -0.0249438 0)
(-0.931543 -0.0248864 0)
(-0.773411 -0.0245541 0)
(-0.618943 -0.0239579 0)
(-0.469697 -0.0231339 0)
(-0.326976 -0.0221385 0)
(-0.191316 -0.0210506 0)
(-0.0625302 -0.0198946 0)
(0.0571076 -0.018861 0)
(0.168989 -0.0178629 0)
(0.276364 -0.0170318 0)
(0.378594 -0.0163548 0)
(0.476686 -0.0157944 0)
(0.571307 -0.0153706 0)
(0.663087 -0.0149558 0)
(0.752724 -0.0147037 0)
(0.840502 -0.0144612 0)
(0.926668 -0.0142416 0)
(1.01138 -0.0140307 0)
(1.09468 -0.0138182 0)
(1.17665 -0.0135985 0)
(1.25732 -0.013365 0)
(1.3367 -0.0131222 0)
(1.41479 -0.0128922 0)
(1.49158 -0.0126731 0)
(1.56709 -0.0124608 0)
(1.64128 -0.0123036 0)
(1.71407 -0.0121781 0)
(1.78537 -0.0120486 0)
(1.85501 -0.0118952 0)
(1.92279 -0.0117133 0)
(1.98848 -0.0114504 0)
(2.05172 -0.0111319 0)
(2.11227 -0.0107542 0)
(2.16987 -0.0103216 0)
(2.22443 -0.00986433 0)
(2.27592 -0.00943765 0)
(2.32451 -0.00907668 0)
(2.37056 -0.00877865 0)
(2.41441 -0.00851813 0)
(2.45655 -0.00830152 0)
(2.49753 -0.00816172 0)
(2.53791 -0.00808225 0)
(2.57781 -0.00799587 0)
(2.61732 -0.00785678 0)
(2.65645 -0.00760639 0)
(2.69479 -0.00722805 0)
(2.73154 -0.00678449 0)
(2.76641 -0.00634323 0)
(2.79941 -0.00594947 0)
(2.83053 -0.00562172 0)
(2.85963 -0.00537997 0)
(2.88672 -0.0051791 0)
(2.91174 -0.00493661 0)
(2.93486 -0.0045884 0)
(2.95647 -0.00422734 0)
(2.97703 -0.00392632 0)
(2.99699 -0.00369372 0)
(3.01688 -0.00353515 0)
(3.03727 -0.00347804 0)
(3.05869 -0.00352859 0)
(3.08142 -0.00366669 0)
(3.10546 -0.00380554 0)
(3.13031 -0.00379072 0)
(3.15465 -0.00346769 0)
(3.17642 -0.0026578 0)
(3.1927 -0.00119997 0)
(3.1994 0.00106047 0)
(3.19465 0.00428027 0)
(3.17324 0.00823106 0)
(3.13011 0.0129787 0)
(3.06136 0.0183819 0)
(2.96368 0.0242754 0)
(2.835 0.030433 0)
(2.67456 0.0365568 0)
(2.48302 0.0422989 0)
(2.26257 0.0473187 0)
(2.01737 0.0513514 0)
(1.75319 0.0541792 0)
(1.47619 0.0557008 0)
(1.19355 0.0558125 0)
(0.912391 0.0546027 0)
(0.639526 0.0521968 0)
(0.381037 0.0489257 0)
(0.141647 0.0450074 0)
(-0.0758213 0.0405605 0)
(-0.269138 0.0356251 0)
(-0.436639 0.0305084 0)
(-0.578405 0.0255614 0)
(-0.695335 0.0209117 0)
(-0.789182 0.0166021 0)
(-0.861816 0.0124739 0)
(-0.915243 0.00838937 0)
(-0.951454 0.00405418 0)
(-0.971514 -0.00145508 0)
(-0.974873 -0.00827378 0)
(-0.956393 -0.01234 0)
(-0.926607 -0.0130633 0)
(-0.88584 -0.0118329 0)
(-0.841753 -0.0127038 0)
(-0.433232 -0.0191037 0)
(-0.396007 -0.020467 0)
(-0.351571 -0.0216818 0)
(-0.304768 -0.022736 0)
(-0.255948 -0.0236131 0)
(-0.2055 -0.0242946 0)
(-0.153869 -0.02476 0)
(-0.101543 -0.0249873 0)
(-0.0490316 -0.0249516 0)
(0.00297289 -0.0245965 0)
(0.0538507 -0.0239437 0)
(0.103096 -0.0230486 0)
(0.150044 -0.0218699 0)
(0.194119 -0.0204485 0)
(0.234882 -0.0188576 0)
(0.272071 -0.0172 0)
(0.305662 -0.0156044 0)
(0.335923 -0.0142172 0)
(0.363446 -0.0131877 0)
(0.389144 -0.0126482 0)
(0.414212 -0.012699 0)
(0.440044 -0.0134193 0)
(0.468121 -0.0148312 0)
(0.499872 -0.0168837 0)
(0.536531 -0.0194556 0)
(0.579011 -0.0223688 0)
(0.627807 -0.0254103 0)
(0.682953 -0.0283598 0)
(0.744036 -0.0310206 0)
(0.810273 -0.0332493 0)
(0.880622 -0.0349772 0)
(0.953931 -0.0362005 0)
(1.02909 -0.0369519 0)
(1.10518 -0.0373266 0)
(1.18154 -0.0374613 0)
(1.25786 -0.0375047 0)
(1.33411 -0.0375877 0)
(1.4105 -0.037799 0)
(1.48739 -0.03817 0)
(1.56509 -0.0386698 0)
(1.64384 -0.039212 0)
(1.72359 -0.0396702 0)
(1.80404 -0.0399004 0)
(1.88457 -0.0397649 0)
(1.96431 -0.0391541 0)
(2.04221 -0.0380023 0)
(2.11712 -0.036294 0)
(2.18795 -0.0340618 0)
(2.25369 -0.0313749 0)
(2.31354 -0.028323 0)
(2.36686 -0.0249972 0)
(2.41322 -0.0214733 0)
(2.45231 -0.0178001 0)
(2.48388 -0.0139943 0)
(2.5077 -0.0100453 0)
(2.52347 -0.00592528 0)
(2.53083 -0.001606 0)
(2.52933 0.00293847 0)
(2.51865 0.00767163 0)
(2.49838 0.0125916 0)
(2.46828 0.0175828 0)
(2.42832 0.02253 0)
(2.37875 0.0272985 0)
(2.32009 0.0317554 0)
(2.25312 0.0357884 0)
(2.17879 0.0393241 0)
(2.09818 0.0423384 0)
(2.01234 0.0448603 0)
(1.9222 0.0469659 0)
(1.8285 0.0487639 0)
(1.73174 0.0503772 0)
(1.63215 0.0519211 0)
(1.52977 0.0534832 0)
(1.42447 0.0551081 0)
(1.31609 0.0567907 0)
(1.20454 0.0584785 0)
(1.08986 0.0600851 0)
(0.972326 0.0615111 0)
(0.852442 0.0626684 0)
(0.730964 0.0634291 0)
(0.608828 0.0636973 0)
(0.487032 0.0634585 0)
(0.36655 0.0627453 0)
(0.248245 0.0616349 0)
(0.132908 0.0602455 0)
(0.0210106 0.0586986 0)
(-0.0886172 0.0569785 0)
(-0.19583 0.0556601 0)
(-0.299987 0.054615 0)
(-0.40224 0.053918 0)
(-0.503313 0.0535865 0)
(-0.603938 0.0536016 0)
(-0.704764 0.0539116 0)
(-0.806311 0.054441 0)
(-0.908927 0.0551003 0)
(-1.01278 0.0557956 0)
(-1.11784 0.0564367 0)
(-1.22392 0.0569428 0)
(-1.33069 0.0572473 0)
(-1.4377 0.0573003 0)
(-1.54444 0.0570693 0)
(-1.65033 0.0565397 0)
(-1.75482 0.0557142 0)
(-1.85735 0.0546116 0)
(-1.95743 0.0532652 0)
(-2.05465 0.0517198 0)
(-2.14871 0.050028 0)
(-2.23938 0.048242 0)
(-2.32657 0.0464066 0)
(-2.41025 0.0445522 0)
(-2.49041 0.0426898 0)
(-2.56706 0.0408084 0)
(-2.64018 0.0388757 0)
(-2.70963 0.0368429 0)
(-2.77519 0.034655 0)
(-2.83653 0.0322627 0)
(-2.89323 0.0296337 0)
(-2.94484 0.0267639 0)
(-2.99093 0.0236829 0)
(-3.03118 0.0204539 0)
(-3.0654 0.0171627 0)
(-3.09361 0.0139075 0)
(-3.116 0.0107813 0)
(-3.13292 0.00785225 0)
(-3.14481 0.00515824 0)
(-3.15216 0.00276523 0)
(-3.15561 0.000594816 0)
(-3.1553 -0.00172209 0)
(-3.15072 -0.00411188 0)
(-3.14163 -0.00679051 0)
(-3.12737 -0.00990337 0)
(-3.10701 -0.0135632 0)
(-3.07949 -0.0178282 0)
(-3.04369 -0.0226916 0)
(-2.99863 -0.028078 0)
(-2.94352 -0.0338506 0)
(-2.87785 -0.0398134 0)
(-2.80153 -0.0457612 0)
(-2.71475 -0.0515206 0)
(-2.61802 -0.0569766 0)
(-2.51197 -0.0620484 0)
(-2.39734 -0.0667108 0)
(-2.27485 -0.0709683 0)
(-2.14524 -0.0748651 0)
(-2.00907 -0.0784436 0)
(-1.8669 -0.0817152 0)
(-1.71929 -0.0846494 0)
(-1.56689 -0.0871558 0)
(-1.41057 -0.0891032 0)
(-1.25144 -0.0903417 0)
(-1.09088 -0.090728 0)
(-0.930521 -0.0901569 0)
(-0.772119 -0.0885949 0)
(-0.617418 -0.0860961 0)
(-0.467998 -0.0828022 0)
(-0.325178 -0.0789287 0)
(-0.189481 -0.0747522 0)
(-0.0607642 -0.0703795 0)
(0.0587526 -0.066578 0)
(0.170491 -0.0628288 0)
(0.277689 -0.0596653 0)
(0.379768 -0.0570837 0)
(0.477734 -0.054987 0)
(0.572271 -0.0533491 0)
(0.663977 -0.0518923 0)
(0.753547 -0.0508467 0)
(0.841304 -0.0498953 0)
(0.927459 -0.0490414 0)
(1.01216 -0.0482429 0)
(1.09546 -0.0474756 0)
(1.17743 -0.0467353 0)
(1.25811 -0.0460121 0)
(1.33749 -0.0453053 0)
(1.41557 -0.0445978 0)
(1.49236 -0.0439133 0)
(1.56786 -0.0432358 0)
(1.64204 -0.0424692 0)
(1.71483 -0.0416145 0)
(1.78614 -0.0406863 0)
(1.85579 -0.0396453 0)
(1.92357 -0.0384585 0)
(1.98926 -0.0371276 0)
(2.05249 -0.0356245 0)
(2.11303 -0.0339603 0)
(2.1706 -0.0322051 0)
(2.22511 -0.03042 0)
(2.2765 -0.0286402 0)
(2.32494 -0.0269936 0)
(2.37081 -0.0255539 0)
(2.41447 -0.0244012 0)
(2.4564 -0.0236093 0)
(2.49716 -0.0230928 0)
(2.53732 -0.0227271 0)
(2.57703 -0.0224033 0)
(2.61636 -0.0220927 0)
(2.65532 -0.0217885 0)
(2.69357 -0.0212557 0)
(2.73026 -0.0204333 0)
(2.76513 -0.0194482 0)
(2.79819 -0.0183864 0)
(2.8294 -0.0171983 0)
(2.85862 -0.0158884 0)
(2.88587 -0.0145622 0)
(2.91111 -0.0132624 0)
(2.9344 -0.0122888 0)
(2.95613 -0.0116549 0)
(2.97673 -0.0112968 0)
(2.99669 -0.0112371 0)
(3.01655 -0.0115363 0)
(3.03689 -0.0121453 0)
(3.05825 -0.0129462 0)
(3.08096 -0.0138072 0)
(3.10505 -0.0144854 0)
(3.13008 -0.0146556 0)
(3.15474 -0.0139177 0)
(3.17696 -0.0118055 0)
(3.19382 -0.0078478 0)
(3.20137 -0.00171062 0)
(3.19718 0.00569651 0)
(3.17621 0.016135 0)
(3.13361 0.0293781 0)
(3.06535 0.0447712 0)
(2.96803 0.0617231 0)
(2.83957 0.0795459 0)
(2.67915 0.0974987 0)
(2.48738 0.114713 0)
(2.26644 0.13023 0)
(2.02051 0.143126 0)
(1.75539 0.152558 0)
(1.47734 0.158116 0)
(1.19363 0.159606 0)
(0.911493 0.157092 0)
(0.637785 0.150794 0)
(0.37861 0.141297 0)
(0.138705 0.129462 0)
(-0.0791065 0.116256 0)
(-0.272656 0.102047 0)
(-0.440437 0.0873945 0)
(-0.582522 0.0730106 0)
(-0.699231 0.0593623 0)
(-0.791425 0.0467473 0)
(-0.860299 0.035404 0)
(-0.908145 0.0255397 0)
(-0.938332 0.0172631 0)
(-0.953852 0.0102363 0)
(-0.957192 0.00243393 0)
(-0.946988 -0.00679554 0)
(-0.924452 -0.014865 0)
(-0.887812 -0.0177126 0)
(-0.850951 -0.0162751 0)
(-0.434198 -0.033909 0)
(-0.396669 -0.0362981 0)
(-0.352152 -0.0384287 0)
(-0.305262 -0.0402779 0)
(-0.256344 -0.0418144 0)
(-0.205788 -0.0430027 0)
(-0.154037 -0.0438046 0)
(-0.101579 -0.044179 0)
(-0.0489208 -0.0440851 0)
(0.00324231 -0.0434804 0)
(0.0542752 -0.0423324 0)
(0.103665 -0.040668 0)
(0.150747 -0.0385172 0)
(0.194931 -0.035943 0)
(0.23576 -0.0330658 0)
(0.272954 -0.030062 0)
(0.306478 -0.0271566 0)
(0.336595 -0.0246085 0)
(0.363895 -0.0226885 0)
(0.389302 -0.0216514 0)
(0.414029 -0.0217041 0)
(0.439497 -0.022972 0)
(0.467223 -0.025474 0)
(0.498669 -0.0291093 0)
(0.535102 -0.03366 0)
(0.577458 -0.0388131 0)
(0.626242 -0.0441975 0)
(0.681487 -0.0494266 0)
(0.742764 -0.054147 0)
(0.809257 -0.0580877 0)
(0.87989 -0.0610944 0)
(0.953471 -0.0631425 0)
(1.02886 -0.064329 0)
(1.10511 -0.0648487 0)
(1.18156 -0.0649574 0)
(1.25788 -0.0649236 0)
(1.33408 -0.06498 0)
(1.41039 -0.0652825 0)
(1.48719 -0.0658839 0)
(1.56485 -0.0667264 0)
(1.6436 -0.0676537 0)
(1.72343 -0.0684398 0)
(1.80403 -0.0688289 0)
(1.88478 -0.068578 0)
(1.96479 -0.0674954 0)
(2.04297 -0.0654681 0)
(2.11817 -0.0624731 0)
(2.18925 -0.0585717 0)
(2.2552 -0.0538903 0)
(2.3152 -0.0485897 0)
(2.36863 -0.0428327 0)
(2.41507 -0.0367535 0)
(2.45422 -0.0304369 0)
(2.48586 -0.0239112 0)
(2.50975 -0.0171548 0)
(2.52561 -0.0101157 0)
(2.53308 -0.00274017 0)
(2.53169 0.00501715 0)
(2.5211 0.0130882 0)
(2.50089 0.0214753 0)
(2.47079 0.0299812 0)
(2.43077 0.0384038 0)
(2.38107 0.0465097 0)
(2.32221 0.0540674 0)
(2.25499 0.0608831 0)
(2.1804 0.0668303 0)
(2.09952 0.0718691 0)
(2.01344 0.0760521 0)
(1.92311 0.0795141 0)
(1.82928 0.0824469 0)
(1.73245 0.0850667 0)
(1.63286 0.0875765 0)
(1.5305 0.0901307 0)
(1.42523 0.0928086 0)
(1.31688 0.0956023 0)
(1.20531 0.0984199 0)
(1.09056 0.101103 0)
(0.972894 0.103455 0)
(0.852829 0.105281 0)
(0.731125 0.106419 0)
(0.608736 0.106756 0)
(0.48669 0.106247 0)
(0.365987 0.104942 0)
(0.24751 0.102973 0)
(0.13207 0.100543 0)
(0.0201057 0.0978947 0)
(-0.0894676 0.0950531 0)
(-0.19652 0.0927481 0)
(-0.300518 0.0909174 0)
(-0.402588 0.0896785 0)
(-0.50348 0.0890629 0)
(-0.603942 0.0890378 0)
(-0.70464 0.0895144 0)
(-0.8061 0.090363 0)
(-0.908676 0.0914308 0)
(-1.01253 0.092558 0)
(-1.11764 0.0935917 0)
(-1.22381 0.0943959 0)
(-1.3307 0.0948597 0)
(-1.43784 0.0949008 0)
(-1.54473 0.0944661 0)
(-1.65077 0.0935328 0)
(-1.7554 0.0921069 0)
(-1.85806 0.0902214 0)
(-1.95825 0.0879332 0)
(-2.05556 0.0853183 0)
(-2.14966 0.0824657 0)
(-2.24037 0.0794642 0)
(-2.32757 0.0763895 0)
(-2.41124 0.0732934 0)
(-2.49141 0.0701944 0)
(-2.56807 0.0670739 0)
(-2.64122 0.0638774 0)
(-2.71073 0.0605214 0)
(-2.77637 0.056913 0)
(-2.83781 0.0529684 0)
(-2.89463 0.0486329 0)
(-2.94634 0.0439 0)
(-2.99252 0.0388191 0)
(-3.03281 0.0334963 0)
(-3.06703 0.0280753 0)
(-3.09519 0.022721 0)
(-3.11749 0.0175883 0)
(-3.13429 0.0127946 0)
(-3.14603 0.00843287 0)
(-3.15326 0.00459161 0)
(-3.15667 0.00100245 0)
(-3.15637 -0.00274271 0)
(-3.15189 -0.0065881 0)
(-3.14296 -0.0108986 0)
(-3.12893 -0.0159172 0)
(-3.10885 -0.0218309 0)
(-3.08161 -0.0287364 0)
(-3.04607 -0.0366246 0)
(-3.00122 -0.0453722 0)
(-2.94622 -0.0547555 0)
(-2.88058 -0.0644453 0)
(-2.80418 -0.0740998 0)
(-2.71727 -0.083435 0)
(-2.62034 -0.0922684 0)
(-2.51408 -0.100466 0)
(-2.39924 -0.10799 0)
(-2.27655 -0.114849 0)
(-2.14677 -0.121124 0)
(-2.01045 -0.126889 0)
(-1.86812 -0.132167 0)
(-1.72033 -0.136915 0)
(-1.56769 -0.140983 0)
(-1.41107 -0.144158 0)
(-1.25157 -0.146192 0)
(-1.09058 -0.146849 0)
(-0.929757 -0.145951 0)
(-0.770899 -0.143439 0)
(-0.61579 -0.139398 0)
(-0.466046 -0.134058 0)
(-0.323019 -0.127774 0)
(-0.187197 -0.120984 0)
(-0.058601 -0.113874 0)
(0.0607698 -0.107764 0)
(0.172366 -0.101683 0)
(0.279283 -0.0965031 0)
(0.381099 -0.0922702 0)
(0.478839 -0.0888641 0)
(0.573209 -0.0862018 0)
(0.66478 -0.0838966 0)
(0.754235 -0.0821851 0)
(0.841935 -0.0806476 0)
(0.92805 -0.0792538 0)
(1.01272 -0.0779388 0)
(1.09598 -0.0766639 0)
(1.17791 -0.0754175 0)
(1.25853 -0.0741819 0)
(1.33786 -0.0729548 0)
(1.41589 -0.0717429 0)
(1.49265 -0.0706682 0)
(1.56816 -0.0696962 0)
(1.6424 -0.0686866 0)
(1.71524 -0.0675503 0)
(1.7866 -0.0662498 0)
(1.85632 -0.064746 0)
(1.92419 -0.0630183 0)
(1.98997 -0.0609787 0)
(2.05329 -0.0586699 0)
(2.11391 -0.0561018 0)
(2.17153 -0.053351 0)
(2.22607 -0.050535 0)
(2.27751 -0.0477933 0)
(2.32598 -0.0453225 0)
(2.37186 -0.0432001 0)
(2.41547 -0.0414433 0)
(2.45733 -0.0401478 0)
(2.49801 -0.0393255 0)
(2.53808 -0.0387356 0)
(2.57769 -0.0380978 0)
(2.61689 -0.0374275 0)
(2.65572 -0.0366106 0)
(2.69386 -0.0353587 0)
(2.73049 -0.0337498 0)
(2.76538 -0.032036 0)
(2.79851 -0.0302963 0)
(2.82982 -0.0285301 0)
(2.85917 -0.026824 0)
(2.88648 -0.0251387 0)
(2.91156 -0.0234152 0)
(2.93467 -0.0217478 0)
(2.95626 -0.0203762 0)
(2.97676 -0.0193882 0)
(2.9966 -0.0188468 0)
(3.01634 -0.0188317 0)
(3.03659 -0.019338 0)
(3.05794 -0.0202731 0)
(3.08075 -0.0214617 0)
(3.10505 -0.0225214 0)
(3.13043 -0.0227806 0)
(3.15567 -0.0215167 0)
(3.17869 -0.0178815 0)
(3.19655 -0.0110958 0)
(3.205 -0.000501268 0)
(3.20166 0.0131276 0)
(3.1822 0.0309414 0)
(3.14092 0.0533439 0)
(3.07366 0.0791861 0)
(2.97698 0.107538 0)
(2.84873 0.13732 0)
(2.68806 0.167243 0)
(2.49561 0.195772 0)
(2.27359 0.221267 0)
(2.02616 0.242291 0)
(1.75925 0.257572 0)
(1.47922 0.266445 0)
(1.19345 0.268498 0)
(0.909314 0.263891 0)
(0.633851 0.253069 0)
(0.373333 0.23725 0)
(0.1325 0.217795 0)
(-0.0858827 0.195939 0)
(-0.279701 0.172217 0)
(-0.447476 0.147719 0)
(-0.589597 0.123549 0)
(-0.706952 0.0999731 0)
(-0.800748 0.0774494 0)
(-0.871899 0.0566142 0)
(-0.921648 0.0379669 0)
(-0.951966 0.0217224 0)
(-0.9655 0.00550345 0)
(-0.963125 -0.0106303 0)
(-0.946878 -0.0251184 0)
(-0.920986 -0.0352517 0)
(-0.884719 -0.038173 0)
(-0.849386 -0.0364631 0)
(-0.435497 -0.0490685 0)
(-0.397711 -0.0525155 0)
(-0.353072 -0.0555931 0)
(-0.306045 -0.0582676 0)
(-0.256974 -0.0604921 0)
(-0.206248 -0.0622135 0)
(-0.154307 -0.0633744 0)
(-0.10164 -0.0639133 0)
(-0.048756 -0.0637713 0)
(0.00365083 -0.0629043 0)
(0.0549344 -0.0612522 0)
(0.104565 -0.0588247 0)
(0.151865 -0.0556712 0)
(0.196223 -0.0518942 0)
(0.237157 -0.0476689 0)
(0.274363 -0.0432493 0)
(0.307785 -0.0389628 0)
(0.337673 -0.0351908 0)
(0.364619 -0.032335 0)
(0.389559 -0.0307746 0)
(0.413739 -0.0308161 0)
(0.438625 -0.0326451 0)
(0.465788 -0.0362889 0)
(0.496747 -0.0415982 0)
(0.532821 -0.0482517 0)
(0.57498 -0.0557868 0)
(0.623751 -0.0636526 0)
(0.679158 -0.0712782 0)
(0.740746 -0.078146 0)
(0.807652 -0.0838587 0)
(0.878739 -0.0881884 0)
(0.952757 -0.0910991 0)
(1.02851 -0.0927379 0)
(1.10501 -0.0933993 0)
(1.18159 -0.0934662 0)
(1.25792 -0.0933384 0)
(1.33402 -0.0933611 0)
(1.4102 -0.0937645 0)
(1.48686 -0.0946254 0)
(1.56443 -0.0958571 0)
(1.64319 -0.0972275 0)
(1.72315 -0.098402 0)
(1.80399 -0.0990026 0)
(1.88509 -0.0986713 0)
(1.96552 -0.097127 0)
(2.04416 -0.0942051 0)
(2.11979 -0.0898745 0)
(2.19126 -0.0842289 0)
(2.25754 -0.077457 0)
(2.31779 -0.0697985 0)
(2.37139 -0.0614943 0)
(2.41795 -0.0527421 0)
(2.4572 -0.0436657 0)
(2.48893 -0.0343039 0)
(2.51293 -0.0246209 0)
(2.52894 -0.0145352 0)
(2.53657 -0.00396112 0)
(2.53535 0.00717513 0)
(2.52492 0.0187533 0)
(2.5048 0.0308001 0)
(2.47471 0.0430262 0)
(2.4346 0.055136 0)
(2.38469 0.0667869 0)
(2.32552 0.0776396 0)
(2.25792 0.0874097 0)
(2.1829 0.0959116 0)
(2.10161 0.103088 0)
(2.01515 0.109017 0)
(1.92452 0.113898 0)
(1.8305 0.118015 0)
(1.73358 0.121687 0)
(1.63397 0.125215 0)
(1.53166 0.128825 0)
(1.42645 0.132635 0)
(1.31814 0.136634 0)
(1.20654 0.140683 0)
(1.09169 0.144546 0)
(0.973819 0.147928 0)
(0.853462 0.150529 0)
(0.731405 0.152127 0)
(0.608626 0.152567 0)
(0.48619 0.151781 0)
(0.365141 0.149842 0)
(0.246399 0.146948 0)
(0.1308 0.143397 0)
(0.0187498 0.139562 0)
(-0.0907426 0.135523 0)
(-0.197561 0.13217 0)
(-0.301305 0.129513 0)
(-0.403089 0.127716 0)
(-0.503694 0.126827 0)
(-0.6039 0.126797 0)
(-0.704394 0.127494 0)
(-0.805717 0.12873 0)
(-0.908231 0.130282 0)
(-1.0121 0.131919 0)
(-1.11729 0.133417 0)
(-1.22359 0.134582 0)
(-1.33066 0.135255 0)
(-1.43802 0.135316 0)
(-1.54513 0.134691 0)
(-1.65141 0.133348 0)
(-1.75626 0.131296 0)
(-1.85912 0.128583 0)
(-1.95948 0.125293 0)
(-2.05692 0.121537 0)
(-2.15111 0.117442 0)
(-2.24187 0.113139 0)
(-2.32909 0.108739 0)
(-2.41276 0.104319 0)
(-2.49292 0.0999039 0)
(-2.56961 0.0954681 0)
(-2.6428 0.0909311 0)
(-2.7124 0.0861698 0)
(-2.77818 0.0810465 0)
(-2.83979 0.0754372 0)
(-2.89679 0.0692605 0)
(-2.94868 0.0625071 0)
(-2.99499 0.0552477 0)
(-3.03536 0.0476365 0)
(-3.06958 0.0398824 0)
(-3.09766 0.0322273 0)
(-3.11981 0.0248958 0)
(-3.13641 0.0180581 0)
(-3.14792 0.011957 0)
(-3.15499 0.00644363 0)
(-3.15834 0.00136844 0)
(-3.15806 -0.00391153 0)
(-3.15372 -0.00932684 0)
(-3.14507 -0.0154102 0)
(-3.13141 -0.022519 0)
(-3.11177 -0.0309262 0)
(-3.08498 -0.0407723 0)
(-3.04987 -0.0520441 0)
(-3.00536 -0.0645617 0)
(-2.95056 -0.0780018 0)
(-2.88495 -0.0918739 0)
(-2.80844 -0.105677 0)
(-2.7213 -0.119002 0)
(-2.62407 -0.131598 0)
(-2.51748 -0.14327 0)
(-2.4023 -0.153971 0)
(-2.2793 -0.163714 0)
(-2.14925 -0.172631 0)
(-2.01268 -0.18083 0)
(-1.87011 -0.188349 0)
(-1.72201 -0.195125 0)
(-1.56899 -0.200942 0)
(-1.41187 -0.205486 0)
(-1.25176 -0.208398 0)
(-1.09007 -0.209331 0)
(-0.928497 -0.208026 0)
(-0.7689 -0.204397 0)
(-0.613133 -0.198568 0)
(-0.462877 -0.190874 0)
(-0.319525 -0.181834 0)
(-0.183529 -0.172077 0)
(-0.0551178 -0.161932 0)
(0.0639905 -0.153072 0)
(0.175321 -0.144463 0)
(0.281806 -0.13708 0)
(0.383208 -0.131044 0)
(0.480588 -0.126216 0)
(0.574699 -0.122457 0)
(0.666064 -0.119258 0)
(0.755354 -0.116843 0)
(0.842978 -0.114685 0)
(0.929047 -0.112725 0)
(1.01368 -0.110875 0)
(1.09692 -0.109083 0)
(1.17881 -0.107341 0)
(1.2594 -0.105621 0)
(1.3387 -0.103927 0)
(1.41667 -0.10232 0)
(1.49332 -0.100748 0)
(1.56876 -0.0991768 0)
(1.643 -0.0975894 0)
(1.71594 -0.09584 0)
(1.78744 -0.0938849 0)
(1.85731 -0.0916522 0)
(1.92533 -0.089074 0)
(1.99127 -0.0861152 0)
(2.05474 -0.0827372 0)
(2.1155 -0.0789706 0)
(2.17324 -0.0749633 0)
(2.22787 -0.070879 0)
(2.27934 -0.0668362 0)
(2.32777 -0.0631209 0)
(2.37356 -0.0598698 0)
(2.41708 -0.0572273 0)
(2.45878 -0.0553707 0)
(2.49921 -0.0541827 0)
(2.53896 -0.053357 0)
(2.57822 -0.052589 0)
(2.6171 -0.0518544 0)
(2.65565 -0.0510362 0)
(2.69368 -0.0496635 0)
(2.73016 -0.0477247 0)
(2.76482 -0.0454695 0)
(2.79781 -0.0429445 0)
(2.82906 -0.0402109 0)
(2.85837 -0.0373193 0)
(2.88583 -0.0342935 0)
(2.91128 -0.0313189 0)
(2.9347 -0.028955 0)
(2.95644 -0.0272988 0)
(2.97692 -0.0262216 0)
(2.99666 -0.0258194 0)
(3.01623 -0.0262309 0)
(3.03627 -0.0274149 0)
(3.05742 -0.0291099 0)
(3.08011 -0.0310705 0)
(3.10453 -0.0327143 0)
(3.13041 -0.0332742 0)
(3.15663 -0.0317194 0)
(3.18097 -0.0269391 0)
(3.20058 -0.017797 0)
(3.2115 -0.00339899 0)
(3.20983 0.0153396 0)
(3.19182 0.039965 0)
(3.15217 0.0715804 0)
(3.08637 0.108196 0)
(2.99062 0.148494 0)
(2.86268 0.190823 0)
(2.70167 0.233349 0)
(2.50818 0.273937 0)
(2.28439 0.310334 0)
(2.03453 0.3404 0)
(1.76483 0.362149 0)
(1.48177 0.3747 0)
(1.19297 0.377555 0)
(0.905977 0.370984 0)
(0.627972 0.355579 0)
(0.36537 0.332899 0)
(0.122992 0.304914 0)
(-0.0963429 0.273688 0)
(-0.290604 0.240063 0)
(-0.458428 0.205548 0)
(-0.600189 0.171899 0)
(-0.716561 0.139856 0)
(-0.808648 0.109545 0)
(-0.877518 0.0812458 0)
(-0.925066 0.055774 0)
(-0.953946 0.0337681 0)
(-0.967072 0.0140534 0)
(-0.965949 -0.00491302 0)
(-0.951736 -0.0237791 0)
(-0.926999 -0.0388273 0)
(-0.890786 -0.0446812 0)
(-0.85602 -0.0427437 0)
(-0.437178 -0.0643653 0)
(-0.399139 -0.0688797 0)
(-0.354332 -0.072916 0)
(-0.307121 -0.0764292 0)
(-0.257841 -0.0793555 0)
(-0.206883 -0.081624 0)
(-0.154682 -0.0831567 0)
(-0.101729 -0.0838708 0)
(-0.0485349 -0.0836873 0)
(0.00420471 -0.0825534 0)
(0.0558352 -0.0803863 0)
(0.105802 -0.0771851 0)
(0.153406 -0.0730138 0)
(0.198008 -0.0680059 0)
(0.239092 -0.0623905 0)
(0.276319 -0.0565023 0)
(0.309604 -0.0507756 0)
(0.339179 -0.0457192 0)
(0.365634 -0.0418718 0)
(0.389928 -0.0397434 0)
(0.413348 -0.0397469 0)
(0.437426 -0.0421337 0)
(0.463806 -0.0469434 0)
(0.494088 -0.0539777 0)
(0.529661 -0.0628071 0)
(0.57155 -0.0728115 0)
(0.620303 -0.0832516 0)
(0.67594 -0.0933612 0)
(0.737965 -0.102446 0)
(0.805449 -0.109974 0)
(0.877173 -0.11564 0)
(0.9518 -0.119398 0)
(1.02806 -0.121453 0)
(1.10491 -0.122204 0)
(1.18166 -0.122172 0)
(1.25799 -0.1219 0)
(1.33396 -0.121855 0)
(1.40993 -0.122347 0)
(1.4864 -0.123479 0)
(1.56385 -0.125133 0)
(1.64261 -0.126994 0)
(1.72273 -0.128611 0)
(1.80391 -0.129473 0)
(1.88549 -0.129099 0)
(1.9665 -0.127111 0)
(2.04576 -0.123291 0)
(2.12201 -0.117601 0)
(2.19402 -0.110172 0)
(2.26073 -0.101261 0)
(2.32131 -0.091195 0)
(2.37515 -0.0802997 0)
(2.42187 -0.0688415 0)
(2.46124 -0.0569849 0)
(2.49309 -0.0447779 0)
(2.51725 -0.0321663 0)
(2.53344 -0.0190325 0)
(2.5413 -0.00525115 0)
(2.54032 0.0092904 0)
(2.5301 0.0244015 0)
(2.51012 0.0401471 0)
(2.48006 0.0561445 0)
(2.43981 0.0719978 0)
(2.38962 0.0872476 0)
(2.33004 0.101439 0)
(2.2619 0.114189 0)
(2.1863 0.12525 0)
(2.10442 0.134546 0)
(2.01745 0.142182 0)
(1.92642 0.14843 0)
(1.83213 0.153671 0)
(1.73508 0.158337 0)
(1.63547 0.162834 0)
(1.53323 0.167467 0)
(1.42812 0.172396 0)
(1.31987 0.177602 0)
(1.20825 0.182899 0)
(1.09325 0.187963 0)
(0.975103 0.192395 0)
(0.854346 0.195813 0)
(0.731802 0.1979 0)
(0.608484 0.198427 0)
(0.485512 0.197319 0)
(0.363988 0.194682 0)
(0.244886 0.190789 0)
(0.129081 0.186041 0)
(0.0169353 0.18095 0)
(-0.0924479 0.175672 0)
(-0.198962 0.171221 0)
(-0.302356 0.167699 0)
(-0.403743 0.165321 0)
(-0.503954 0.164149 0)
(-0.603807 0.164115 0)
(-0.70402 0.165044 0)
(-0.805157 0.166682 0)
(-0.907586 0.168735 0)
(-1.01147 0.170894 0)
(-1.11677 0.172868 0)
(-1.22326 0.174398 0)
(-1.33057 0.175279 0)
(-1.43822 0.175355 0)
(-1.54564 0.174529 0)
(-1.65224 0.17276 0)
(-1.75739 0.170062 0)
(-1.86053 0.166499 0)
(-1.96112 0.162183 0)
(-2.05873 0.157258 0)
(-2.15304 0.151898 0)
(-2.24386 0.146275 0)
(-2.33109 0.140537 0)
(-2.41476 0.13479 0)
(-2.49491 0.129068 0)
(-2.57162 0.123335 0)
(-2.64488 0.117486 0)
(-2.7146 0.111354 0)
(-2.78057 0.104752 0)
(-2.84241 0.097512 0)
(-2.89966 0.0895227 0)
(-2.95178 0.0807732 0)
(-2.99829 0.0713547 0)
(-3.03876 0.0614699 0)
(-3.07298 0.0513957 0)
(-3.10095 0.0414546 0)
(-3.1229 0.031947 0)
(-3.1392 0.0231622 0)
(-3.15041 0.0153276 0)
(-3.15728 0.00820373 0)
(-3.16051 0.00171436 0)
(-3.16027 -0.00497997 0)
(-3.15613 -0.0118348 0)
(-3.14784 -0.019554 0)
(-3.13469 -0.0286162 0)
(-3.11565 -0.0393843 0)
(-3.08949 -0.0520458 0)
(-3.05496 -0.0665854 0)
(-3.01091 -0.0827658 0)
(-2.95638 -0.100166 0)
(-2.89083 -0.118112 0)
(-2.81416 -0.135934 0)
(-2.72672 -0.153097 0)
(-2.6291 -0.169298 0)
(-2.52207 -0.184275 0)
(-2.40644 -0.197974 0)
(-2.28305 -0.210417 0)
(-2.15266 -0.221806 0)
(-2.01578 -0.232285 0)
(-1.8729 -0.241916 0)
(-1.72444 -0.250627 0)
(-1.57093 -0.258127 0)
(-1.41317 -0.264003 0)
(-1.25227 -0.267784 0)
(-1.08966 -0.269007 0)
(-0.927092 -0.267322 0)
(-0.766514 -0.262611 0)
(-0.609871 -0.255034 0)
(-0.458927 -0.245029 0)
(-0.315133 -0.233281 0)
(-0.178908 -0.220605 0)
(-0.0507081 -0.2075 0)
(0.0680666 -0.195907 0)
(0.179026 -0.184839 0)
(0.284954 -0.1753 0)
(0.3858 -0.167503 0)
(0.482691 -0.161298 0)
(0.576435 -0.15648 0)
(0.667522 -0.152458 0)
(0.756599 -0.14936 0)
(0.844112 -0.146604 0)
(0.930106 -0.144083 0)
(1.01467 -0.141688 0)
(1.09784 -0.139366 0)
(1.17964 -0.137113 0)
(1.26014 -0.134901 0)
(1.33932 -0.132835 0)
(1.41719 -0.131065 0)
(1.49386 -0.129209 0)
(1.56936 -0.127248 0)
(1.64366 -0.125152 0)
(1.71668 -0.122886 0)
(1.7883 -0.120404 0)
(1.85833 -0.117591 0)
(1.92655 -0.114386 0)
(1.99271 -0.110628 0)
(2.0564 -0.106365 0)
(2.11735 -0.101604 0)
(2.17526 -0.0965093 0)
(2.23002 -0.0912831 0)
(2.28159 -0.0861571 0)
(2.3301 -0.0815095 0)
(2.37592 -0.0775206 0)
(2.41936 -0.0742159 0)
(2.46088 -0.0717538 0)
(2.50115 -0.0701684 0)
(2.54076 -0.0690329 0)
(2.57985 -0.0679129 0)
(2.6185 -0.0668048 0)
(2.65677 -0.0655356 0)
(2.69459 -0.0634512 0)
(2.73097 -0.0606107 0)
(2.76567 -0.0575876 0)
(2.79877 -0.0546386 0)
(2.83015 -0.0515229 0)
(2.8597 -0.0484599 0)
(2.88717 -0.0454352 0)
(2.91227 -0.042208 0)
(2.93527 -0.0391925 0)
(2.95665 -0.0367207 0)
(2.97681 -0.0349544 0)
(2.99623 -0.0340631 0)
(3.01549 -0.0341832 0)
(3.0353 -0.0352724 0)
(3.05638 -0.0372167 0)
(3.07923 -0.03968 0)
(3.10406 -0.0420007 0)
(3.13062 -0.0429892 0)
(3.158 -0.0412866 0)
(3.184 -0.0352795 0)
(3.20567 -0.0235953 0)
(3.21873 -0.00499019 0)
(3.21914 0.0198024 0)
(3.20412 0.0508106 0)
(3.167 0.0912844 0)
(3.10322 0.138436 0)
(3.00878 0.190426 0)
(2.88134 0.245172 0)
(2.71992 0.300295 0)
(2.52505 0.353018 0)
(2.29896 0.400267 0)
(2.0459 0.439274 0)
(1.77235 0.467628 0)
(1.48509 0.484001 0)
(1.19207 0.487696 0)
(0.90111 0.479065 0)
(0.619747 0.458901 0)
(0.354569 0.429472 0)
(0.110283 0.393426 0)
(-0.110334 0.3532 0)
(-0.305141 0.309828 0)
(-0.472859 0.265322 0)
(-0.614323 0.221567 0)
(-0.730597 0.179065 0)
(-0.822833 0.138563 0)
(-0.892068 0.100907 0)
(-0.939847 0.0671337 0)
(-0.968158 0.0381119 0)
(-0.979576 0.00996905 0)
(-0.974765 -0.0160096 0)
(-0.956779 -0.0399218 0)
(-0.928928 -0.0576191 0)
(-0.891367 -0.0640645 0)
(-0.855765 -0.0598832 0)
(-0.439259 -0.0797642 0)
(-0.400954 -0.0853517 0)
(-0.355938 -0.0903566 0)
(-0.308493 -0.0947211 0)
(-0.258951 -0.0983638 0)
(-0.207697 -0.101194 0)
(-0.155166 -0.103114 0)
(-0.101847 -0.104016 0)
(-0.0482583 -0.1038 0)
(0.00490567 -0.102401 0)
(0.0569808 -0.0997151 0)
(0.107382 -0.0957315 0)
(0.15538 -0.0905235 0)