/*--------------------------------*- C++ -*----------------------------------*\
| =========                 |                                                 |
| \\      /  F ield         | OpenFOAM: The Open Source CFD Toolbox           |
|  \\    /   O peration     | Version:  v1912                                 |
|   \\  /    A nd           | Website:  www.openfoam.com                      |
|    \\/     M anipulation  |                                                 |
\*---------------------------------------------------------------------------*/
FoamFile
{
    version     2.0;
    format      ascii;
    class       surfaceScalarField;
    location    "40";
    object      alphaPhi0.water;
}
// * * * * * * * * * * * * * * * * * * * * * * * * * * * * * * * * * * * * * //

dimensions      [0 3 -1 0 0 0 0];
oriented        oriented;


internalField   nonuniform List<scalar> 
28285
(
-0.0501012
0.00400347
-0.0532948
0.00319361
-0.0553355
0.00204066
-0.0559922
0.000656774
-0.0550971
-0.000895105
-0.0526317
-0.00246546
-0.0486709
-0.00396076
-0.043421
-0.00524985
-0.0371636
-0.00625746
-0.0301922
-0.00697136
-0.0228642
-0.00732806
-0.0155279
-0.00733627
-0.00850369
-0.0070242
-0.00206453
-0.00643915
0.00353022
-0.00559476
0.00811126
-0.00458104
0.0115556
-0.00344431
0.0138091
-0.00225357
0.0148732
-0.00106406
0.0148265
4.67076e-05
0.0137768
0.00104966
0.0118728
0.00190402
0.00927709
0.00259572
0.00618949
0.0030876
0.00278563
0.00340386
-0.000737947
0.00352358
-0.00420832
0.00347037
-0.00742632
0.003218
-0.0101938
0.00276748
-0.0123705
0.00217673
-0.0136971
0.00132662
-0.0140847
0.000387555
-0.0133406
-0.000744047
-0.0113797
-0.00196098
-0.00824652
-0.00313315
-0.00395371
-0.00429281
0.0013338
-0.00528751
0.00739707
-0.00606327
0.0139818
-0.00658474
0.0207577
-0.00677584
0.027322
-0.00656439
0.0334885
-0.00616646
0.038732
-0.00524346
0.0430064
-0.00427443
0.0458307
-0.00282431
0.0473113
-0.00148064
0.0470308
0.000280578
0.0453356
0.00169517
0.0418202
0.00351537
0.0369136
0.00490664
0.0305294
0.00638416
0.0229807
0.0075487
0.0144757
0.00850503
0.00523243
0.00924326
-0.0044402
0.00967263
-0.0143406
0.00990037
-0.0242074
0.00986683
-0.0338409
0.00963347
-0.0430575
0.00921667
-0.0517067
0.00864912
-0.0596324
0.00792572
-0.0667392
0.00710686
-0.0728798
0.00614056
-0.0779679
0.00508811
-0.0818797
0.00391184
-0.0845258
0.00264601
-0.0858155
0.00128975
-0.0855645
-0.000250957
-0.0837582
-0.0018063
-0.0803511
-0.00340716
-0.0753309
-0.0050202
-0.0687338
-0.00659703
-0.0606475
-0.00808634
-0.0512204
-0.00942707
-0.0406541
-0.0105663
-0.0292034
-0.0114507
-0.0171665
-0.0120369
-0.00486852
-0.012298
0.00735138
-0.0122199
0.0191495
-0.0117982
0.0302062
-0.0110566
0.0402423
-0.0100361
0.0489824
-0.0087401
0.0562072
-0.00722479
0.0614707
-0.00526348
-0.00372761
0.0651983
-0.0506035
0.00795767
-0.0536819
0.00627194
-0.0555669
0.00392566
-0.056037
0.00112689
-0.0549651
-0.00196699
-0.0523346
-0.00509594
-0.048243
-0.00805234
-0.0429004
-0.0105925
-0.0366022
-0.0125556
-0.0296665
-0.0139071
-0.0224013
-0.0145933
-0.0151485
-0.014589
-0.00821732
-0.0139554
-0.00187315
-0.0127833
0.0036369
-0.0111048
0.00814994
-0.00909408
0.0115445
-0.00683887
0.0137667
-0.00447575
0.0148265
-0.00212383
0.0147833
8.98991e-05
0.0137554
0.00207753
0.0118702
0.00378926
0.00928434
0.00518153
0.00619387
0.00617807
0.00277497
0.00682276
-0.000773466
0.00707201
-0.00427605
0.00697295
-0.00752759
0.00646954
-0.010327
0.00556692
-0.0125324
0.00438214
-0.0138788
0.00267301
-0.0142758
0.00078448
-0.0135373
-0.00148249
-0.0115693
-0.00392899
-0.00842059
-0.00628187
-0.00410234
-0.00861105
0.00121987
-0.0106097
0.00732272
-0.0121661
0.0139522
-0.0132143
0.0207773
-0.0136009
0.0273876
-0.0131747
0.0336009
-0.0123798
0.0388832
-0.0105257
0.0431918
-0.00858302
0.0460417
-0.00567418
0.0475463
-0.00298526
0.0472715
0.00055533
0.0455731
0.00339357
0.0420442
0.00704425
0.037119
0.0098319
0.0307091
0.012794
0.0231277
0.0151301
0.0145888
0.017044
0.00530832
0.0185237
-0.0044006
0.0193815
-0.0143352
0.0198349
-0.0242331
0.0197648
-0.0338938
0.0192942
-0.0431342
0.018457
-0.0518048
0.0173197
-0.0597487
0.0158696
-0.0668739
0.0142321
-0.0730306
0.0122973
-0.078135
0.0101926
-0.0820626
0.00783943
-0.0847224
0.00530575
-0.0860252
0.0025926
-0.0857856
-0.000490548
-0.0839864
-0.00360555
-0.0805806
-0.006813
-0.0755553
-0.0100454
-0.0689458
-0.0132066
-0.060839
-0.0161931
-0.0513834
-0.0188827
-0.0407806
-0.0211691
-0.0292879
-0.0229433
-0.0172042
-0.0241206
-0.00485773
-0.0246445
0.00740991
-0.0244875
0.0192537
-0.0236419
0.0303508
-0.0221537
0.040421
-0.0201063
0.0492281
-0.0175472
0.0566416
-0.0146383
0.0624443
-0.0110662
-0.00741883
0.0661355
-0.0504879
0.0119481
-0.0536392
0.0094233
-0.0556271
0.00591352
-0.0562184
0.00171815
-0.0552211
-0.00296426
-0.0526522
-0.00766486
-0.0485981
-0.0121064
-0.043262
-0.0159286
-0.0369227
-0.0188949
-0.0298913
-0.0209385
-0.0225282
-0.0219565
-0.0151756
-0.0219417
-0.00814808
-0.0209829
-0.00172075
-0.0192106
0.00385478
-0.0166803
0.00841612
-0.0136554
0.0118423
-0.0102651
0.0140778
-0.00671128
0.0151301
-0.00317612
0.0150771
0.000142941
0.0140131
0.00314153
0.0120791
0.00572328
0.00943794
0.00782267
0.00628883
0.00932718
0.00280946
0.0103021
-0.000799664
0.0106811
-0.00436229
0.0105356
-0.00766963
0.00977688
-0.0105224
0.0084197
-0.0127801
0.00663987
-0.0141715
0.00406432
-0.0146099
0.00122289
-0.0138874
-0.00220498
-0.0119161
-0.00590027
-0.00874733
-0.00945062
-0.00438539
-0.012973
0.00100262
-0.0159977
0.00718319
-0.0183467
0.0139022
-0.0199333
0.0208257
-0.0205243
0.0275271
-0.0198762
0.0338351
-0.0186878
0.0391926
-0.0158833
0.043572
-0.0129624
0.0464639
-0.00856607
0.0479936
-0.00451503
0.0477252
0.000823763
0.0460311
0.00508766
0.0424744
0.010601
0.0375125
0.0147938
0.03105
0.0192565
0.0234027
0.0227774
0.0147959
0.0256508
0.0054413
0.0278783
-0.00433764
0.0291605
-0.014339
0.0298362
-0.0242971
0.0297229
-0.0340099
0.029007
-0.043296
0.0277431
-0.0520081
0.0260318
-0.0599863
0.0238478
-0.0671474
0.0213932
-0.0733354
0.0184853
-0.0784716
0.0153288
-0.0824296
0.0117974
-0.0851166
0.00799282
-0.0864496
0.00392556
-0.0862303
-0.000709803
-0.0844439
-0.00539193
-0.0810413
-0.0102157
-0.076006
-0.0150807
-0.0693715
-0.0198411
-0.0612237
-0.0243409
-0.05171
-0.0283964
-0.0410344
-0.0318448
-0.0294562
-0.0345215
-0.0172784
-0.0362983
-0.00483422
-0.0370887
0.00752896
-0.0368507
0.0194636
-0.0355766
0.0306424
-0.0333324
0.0407841
-0.0302481
0.0496554
-0.0264185
0.0570489
-0.0220318
0.0628752
-0.0168925
-0.0115851
0.0670415
-0.0510296
0.015968
-0.0541732
0.0125669
-0.0561119
0.00785225
-0.0566072
0.00221346
-0.0555147
-0.00405683
-0.0528238
-0.0103558
-0.0486375
-0.0162926
-0.0431725
-0.0213936
-0.0367273
-0.0253401
-0.0296307
-0.0280351
-0.0222187
-0.0293685
-0.0148346
-0.0293257
-0.00778917
-0.0280283
-0.00135402
-0.0256458
0.00421675
-0.0222511
0.00877114
-0.0182098
0.0121919
-0.0136858
0.0144169
-0.00893631
0.0154598
-0.00421904
0.0153837
0.000219035
0.0142973
0.00422796
0.0123248
0.00769577
0.00963205
0.0105154
0.00641817
0.0125411
0.00286445
0.0138559
-0.000828061
0.0143736
-0.00448113
0.0141886
-0.00787839
0.0131741
-0.0108195
0.0113609
-0.0131609
0.00898126
-0.0146204
0.00552381
-0.0151075
0.00170992
-0.0144189
-0.00289359
-0.0124452
-0.0078739
-0.00924709
-0.0126488
-0.00481882
-0.0174013
0.000669736
-0.0214863
0.00696583
-0.0246428
0.0138193
-0.0267868
0.0208915
-0.0275965
0.0277311
-0.0267157
0.0341815
-0.0251382
0.0396538
-0.0213556
0.044137
-0.0174456
0.0470998
-0.0115289
0.0486961
-0.00611125
0.0484329
0.0010869
0.0467335
0.00678707
0.043131
0.0142035
0.0381115
0.0198133
0.0315671
0.0258009
0.0238178
0.0305267
0.0151065
0.0343621
0.00563866
0.0373461
-0.00424777
0.0390469
-0.01435
0.0399385
-0.024399
0.0397719
-0.0341899
0.038798
-0.0435438
0.0370969
-0.0523175
0.0348055
-0.060346
0.0318763
-0.0675603
0.0286074
-0.0737945
0.0247196
-0.0789779
0.0205122
-0.0829818
0.0158012
-0.0857097
0.0107207
-0.0870826
0.00529849
-0.0868975
-0.000894922
-0.0851321
-0.00715735
-0.0817344
-0.0136134
-0.0766844
-0.0201306
-0.0700127
-0.0265129
-0.0618032
-0.0325505
-0.0522035
-0.037996
-0.0414181
-0.0426303
-0.0297115
-0.0462281
-0.0173923
-0.0486175
-0.00480089
-0.0496801
0.00770719
-0.0493588
0.0197788
-0.0476483
0.0310799
-0.0446335
0.0413268
-0.040495
0.0502899
-0.0353815
0.0578071
-0.029549
0.0638617
-0.0229472
-0.0158683
0.068145
-0.0513546
0.0201079
-0.0546296
0.0158419
-0.0566982
0.00992084
-0.0573278
0.00284302
-0.0562628
-0.00512184
-0.0535527
-0.0130658
-0.0492975
-0.0205478
-0.0437189
-0.0269722
-0.0371124
-0.0319466
-0.0298211
-0.0353264
-0.0222196
-0.03697
-0.0146601
-0.0368851
-0.00746053
-0.0352279
-0.000898028
-0.0322083
0.00475382
-0.027903
0.00936224
-0.0228182
0.0128103
-0.0171339
0.0150341
-0.0111601
0.0160524
-0.00523734
0.015935
0.000336415
0.0147804
0.00538262
0.0127235
0.00975265
0.00993747
0.0133015
0.00662422
0.0158543
0.00296509
0.017515
-0.000839108
0.0181778
-0.00460863
0.0179582
-0.00812097
0.0166865
-0.011178
0.0144179
-0.0136329
0.0114361
-0.0151919
0.00708279
-0.0157646
0.00228263
-0.0151217
-0.00353651
-0.0131486
-0.009847
-0.0099146
-0.0158827
-0.00539933
-0.0219165
0.000227827
-0.0271135
0.0066752
-0.0310902
0.0137097
-0.0338213
0.0209832
-0.0348701
0.0280085
-0.033741
0.0346509
-0.0317806
0.0402755
-0.0269802
0.044901
-0.0220711
0.0479534
-0.0145813
0.0496132
-0.00777107
0.0493687
0.00133141
0.047671
0.00848477
0.0440118
0.0178627
0.0389145
0.0249106
0.0322612
0.0324541
0.0243758
0.0384122
0.0155243
0.0432136
0.00590423
0.0469662
-0.0041253
0.0490765
-0.0143626
0.0501758
-0.0245331
0.0499423
-0.0344283
0.0486932
-0.0438726
0.0465413
-0.0527288
0.0436616
-0.0608238
0.0399714
-0.0681096
0.0358932
-0.0744055
0.0310155
-0.0796526
0.0257593
-0.0837181
0.0198668
-0.086501
0.0135036
-0.0879309
0.00672844
-0.0877923
-0.00103355
-0.0860538
-0.00889586
-0.0826635
-0.0170037
-0.0775953
-0.0251988
-0.0708744
-0.0332338
-0.0625821
-0.0408427
-0.0528663
-0.0477118
-0.0419335
-0.0535631
-0.0300545
-0.0581071
-0.0175449
-0.0611271
-0.00475583
-0.0624692
0.00794715
-0.0620618
0.020202
-0.0599032
0.0316656
-0.056097
0.0420522
-0.0508817
0.0511403
-0.0444696
0.0587508
-0.0371595
0.0648328
-0.0290292
-0.0203511
0.0693156
-0.0520423
0.024371
-0.0554178
0.0192175
-0.0575437
0.0120467
-0.0581544
0.00345373
-0.0570405
-0.00623567
-0.0542206
-0.0158857
-0.0498078
-0.0249607
-0.044041
-0.032739
-0.0372439
-0.0387437
-0.029776
-0.0427944
-0.0220088
-0.0447373
-0.0143034
-0.0445905
-0.0069796
-0.0425517
-0.0003074
-0.0388805
0.00539552
-0.0336059
0.0100415
-0.0274642
0.0135088
-0.0206012
0.0157254
-0.0133767
0.0167146
-0.00622659
0.0165521
0.000498921
0.0153296
0.00660519
0.0131845
0.0118977
0.0102935
0.0161924
0.00686163
0.0192862
0.00307626
0.0213004
-0.000864403
0.0221185
-0.00477875
0.0218725
-0.00843454
0.0203423
-0.0116374
0.0176208
-0.0142338
0.0140325
-0.0159171
0.0087661
-0.0165852
0.00295076
-0.0160071
-0.00411471
-0.0140386
-0.0118154
-0.0107612
-0.0191601
-0.00613805
-0.0265397
-0.00033169
-0.0329198
0.00630227
-0.0377241
0.0135653
-0.0410843
0.0210941
-0.0423988
0.0283544
-0.0410013
0.0352395
-0.0386657
0.0410565
-0.0327972
0.0458603
-0.0268749
0.0490292
-0.0177502
0.0507826
-0.00952447
0.050553
0.00156101
0.0488504
0.0101874
0.0451191
0.0215939
0.039923
0.0301067
0.0331317
0.0392454
0.0250727
0.0464712
0.0160431
0.0522431
0.00622968
0.0567797
-0.00397974
0.0592859
-0.014387
0.060583
-0.0247097
0.060265
-0.0347344
0.0587179
-0.0442907
0.0560976
-0.0532489
0.0526198
-0.0614248
0.0481473
-0.0687996
0.043268
-0.0751714
0.0373872
-0.0804972
0.031085
-0.0846404
0.02401
-0.087493
0.0163562
-0.0889885
0.00822385
-0.0889133
-0.00110872
-0.087211
-0.0105981
-0.0838312
-0.0203835
-0.0787403
-0.0302897
-0.0719587
-0.0400154
-0.0635642
-0.0492372
-0.0537033
-0.0575727
-0.0425851
-0.0646813
-0.0304882
-0.070204
-0.0177381
-0.0738772
-0.00469821
-0.0755091
0.00824921
-0.0750092
0.0207355
-0.0723895
0.0324032
-0.0677647
0.0429617
-0.0614403
0.0521837
-0.0536916
0.0599101
-0.0448859
0.0661062
-0.0352253
-0.0249694
0.0707245
-0.0527264
0.0288422
-0.0563088
0.0227999
-0.0586101
0.014348
-0.0593737
0.00421732
-0.058269
-0.00734036
-0.0553677
-0.018787
-0.0507951
-0.0295333
-0.044806
-0.0387281
-0.0377348
-0.0458148
-0.029973
-0.0505562
-0.0219244
-0.0527858
-0.0139639
-0.0525509
-0.00642283
-0.0500928
0.00040034
-0.0457037
0.00624336
-0.0394489
0.010961
-0.0321819
0.0144585
-0.0240987
0.0166655
-0.0155837
0.0176117
-0.00717285
0.0173781
0.000732523
0.0160512
0.00793212
0.0137831
0.0141659
0.0107568
0.0192187
0.00718096
0.022862
0.00324162
0.0252397
-0.000865097
0.0262252
-0.00495452
0.0259619
-0.00878523
0.024173
-0.0121679
0.0210035
-0.0149372
0.0168018
-0.0167822
0.0106111
-0.0175776
0.00374623
-0.0170795
-0.00461281
-0.0151204
-0.0137746
-0.0117915
-0.022489
-0.00703994
-0.0312913
-0.00104041
-0.0389194
0.00584619
-0.0446107
0.0133894
-0.0486275
0.0212304
-0.0502398
0.0287782
-0.0485491
0.0359579
-0.0458453
0.0420059
-0.0388453
0.047028
-0.0318971
0.0503369
-0.0210591
0.0521979
-0.0113854
0.0519932
0.00176569
0.0502813
0.0118994
0.046465
0.0254102
0.0411474
0.0354243
0.034188
0.0462048
0.0259184
0.0547408
0.0166719
0.0614897
0.00662428
0.0668273
-0.00380407
0.0697142
-0.0144164
0.0711954
-0.0249226
0.0707713
-0.0351022
0.0688975
-0.0447926
0.065788
-0.0538735
0.0617006
-0.0621444
0.0564183
-0.0696272
0.0507508
-0.0760883
0.0438483
-0.0815097
0.0365064
-0.0857476
0.028248
-0.0886855
0.0192941
-0.090259
0.00979738
-0.0902678
-0.00109991
-0.0886073
-0.0122586
-0.0852419
-0.023749
-0.0801265
-0.0354051
-0.0732729
-0.046869
-0.0647554
-0.0577547
-0.0547194
-0.0676087
-0.0433765
-0.0760242
-0.0310149
-0.0825657
-0.0179718
-0.0869202
-0.00462775
-0.0888532
0.00861681
-0.0882538
0.0213838
-0.0851565
0.0332967
-0.0796776
0.0440609
-0.0722045
0.0534459
-0.0630765
0.0613
-0.05274
0.0675578
-0.0414832
-0.0296406
0.072229
-0.0536321
0.0335464
-0.0574287
0.0265964
-0.0598863
0.0168057
-0.0607171
0.00504814
-0.0595899
-0.00846758
-0.0565658
-0.021811
-0.0517844
-0.0343147
-0.0455244
-0.0449882
-0.0381551
-0.0531841
-0.0300921
-0.0586192
-0.021754
-0.061124
-0.0135332
-0.0607717
-0.00577138
-0.0578547
0.00121492
-0.05269
0.00720153
-0.0454355
0.0119985
-0.0369789
0.0155294
-0.0276296
0.0177312
-0.0177855
0.0186288
-0.00807043
0.0183192
0.00104206
0.0168749
0.00937643
0.0144714
0.0165693
0.011288
0.0224021
0.00754076
0.0266093
0.00342548
0.029355
-0.000872386
0.0305231
-0.0051629
0.0302525
-0.0091938
0.0282039
-0.0127886
0.0245983
-0.0157652
0.0197783
-0.0178032
0.0126491
-0.0187393
0.00468236
-0.0183468
-0.00500536
-0.016407
-0.0157144
-0.0130173
-0.0258786
-0.00811563
-0.036193
-0.00188149
-0.0451535
0.00530037
-0.0517926
0.0131753
-0.0565025
0.0213869
-0.0584514
0.0292774
-0.0564397
0.036806
-0.0533739
0.0431255
-0.0451648
0.0484064
-0.0371779
0.0518813
-0.024534
0.0538691
-0.0133732
0.053696
0.00193876
0.0519667
0.0136287
0.048052
0.0293249
0.0425891
0.0408872
0.0354299
0.053364
0.0269098
0.0632609
0.0174044
0.0709952
0.00707938
0.0771522
-0.00360872
0.0804023
-0.0144623
0.082049
-0.0251838
0.0814928
-0.0355429
0.0792566
-0.0453877
0.0756328
-0.0546106
0.0709235
-0.0629881
0.0647957
-0.0705967
0.0583594
-0.0771598
0.0504115
-0.0826917
0.0420383
-0.0870418
0.0325981
-0.090082
0.0223342
-0.0917415
0.0114569
-0.0918539
-0.000987525
-0.0902464
-0.0138661
-0.0869009
-0.0270944
-0.081759
-0.040547
-0.074823
-0.0538049
-0.0661629
-0.0664149
-0.0559217
-0.0778499
-0.0443137
-0.0876321
-0.0316389
-0.0952405
-0.0182484
-0.100311
-0.00454458
-0.102557
0.0090519
-0.10185
0.0221504
-0.098255
0.0343517
-0.0918789
0.0453549
-0.0832077
0.0549203
-0.0726419
0.0629042
-0.0607239
0.0692393
-0.0478183
-0.0343567
0.0739553
-0.0546298
0.0385666
-0.0587338
0.0307004
-0.0614418
0.0195136
-0.0624518
0.0060581
-0.0613296
-0.00958973
-0.0581736
-0.0249671
-0.0531457
-0.0393427
-0.0465536
-0.0515802
-0.0387954
-0.0609423
-0.0303299
-0.0670847
-0.0216093
-0.0698446
-0.0130444
-0.0693366
-0.00499323
-0.0659059
0.00221149
-0.0598947
0.00836902
-0.051593
0.0132636
-0.0418734
0.0168212
-0.0311871
0.0190091
-0.0199734
0.0198524
-0.00891364
0.0194384
0.001456
0.0178519
0.0109629
0.0152799
0.0191414
0.0119147
0.0257673
0.00797751
0.0305465
0.00365732
0.0336752
-0.000860664
0.0350411
-0.00538266
0.0347745
-0.00965261
0.0324738
-0.0134939
0.0284396
-0.0166985
0.0229829
-0.0189801
0.0149307
-0.0200932
0.00579539
-0.019817
-0.00528152
-0.0179133
-0.0176181
-0.0144445
-0.0293474
-0.00937262
-0.0412649
-0.00286603
-0.0516601
0.0046615
-0.0593201
0.012922
-0.064763
0.0215657
-0.067095
0.0298593
-0.0647333
0.0377917
-0.0613063
0.0444218
-0.0517948
0.050004
-0.0427602
0.0536717
-0.0282017
0.0558043
-0.0155058
0.0556757
0.00206743
0.0539166
0.0153877
0.049893
0.0333486
0.0442588
0.0465213
0.0368657
0.0607571
0.028053
0.0720737
0.0182449
0.0808032
0.00759738
0.0877998
-0.00339184
0.0913916
-0.0145236
0.0931808
-0.0254921
0.0924613
-0.0360545
0.089819
-0.0460746
0.0856528
-0.0554593
0.0803083
-0.063954
0.0732904
-0.0717076
0.066113
-0.0783823
0.0570862
-0.0840422
0.0476982
-0.0885222
0.0370781
-0.0916807
0.0254926
-0.0934431
0.0132193
-0.0936763
-0.000754252
-0.0921326
-0.0154099
-0.0888144
-0.0304126
-0.0836458
-0.0457156
-0.0766174
-0.0608333
-0.067795
-0.0752372
-0.0573178
-0.0883272
-0.0454027
-0.0995473
-0.0323644
-0.108279
-0.0185699
-0.114105
-0.00444451
-0.116682
0.0095584
-0.115853
0.0230414
-0.111738
0.0355754
-0.104413
0.0468511
-0.0944834
0.0566206
-0.0824113
0.0647442
-0.0688475
0.0711515
-0.0542256
-0.0390868
0.0758816
-0.0557956
0.0439497
-0.0602429
0.0351477
-0.0632152
0.0224859
-0.0643834
0.0072263
-0.0632551
-0.010718
-0.059942
-0.0282801
-0.0546295
-0.0446552
-0.0476594
-0.0585503
-0.0394732
-0.0691286
-0.0305696
-0.0759882
-0.0214281
-0.0789861
-0.0124852
-0.0782795
-0.00411464
-0.0742764
0.00333768
-0.067347
0.00967973
-0.0579351
0.0146983
-0.046892
0.0182961
-0.034785
0.0204593
-0.0221366
0.0212488
-0.00970311
0.0207032
0.00200154
0.0189637
0.0127024
0.0162113
0.0218937
0.0126343
0.0293443
0.00846961
0.0347113
0.00392784
0.0382169
-0.00083322
0.0398021
-0.00562811
0.0395693
-0.0101544
0.0370001
-0.0142615
0.0325467
-0.0177691
0.0264905
-0.0203427
0.0175043
-0.0216372
0.00708995
-0.0214844
-0.00543431
-0.0196494
-0.0194531
-0.0160851
-0.0329117
-0.0108322
-0.0465178
-0.00400543
-0.0584869
0.0039246
-0.0672501
0.0126274
-0.0734658
0.0217649
-0.0762326
0.0305286
-0.073497
0.0389224
-0.0697002
0.0459061
-0.0587785
0.0518358
-0.0486898
0.0557241
-0.0320899
0.0580205
-0.0178023
0.0579467
0.00214125
0.0561423
0.0171921
0.052
0.0374909
0.0461652
0.0523562
0.038501
0.0684212
0.0293517
0.081223
0.019193
0.0909619
0.00817463
0.0988181
-0.00315922
0.102725
-0.0146073
0.104629
-0.0258561
0.10371
-0.0366458
0.100609
-0.0468612
0.0958682
-0.0564269
0.089874
-0.0650465
0.08191
-0.0729616
0.074028
-0.0797593
0.0638839
-0.0855632
0.0535021
-0.0901919
0.0417068
-0.0934838
0.0287846
-0.0953645
0.0150999
-0.0957382
-0.000380494
-0.0942724
-0.0168757
-0.09099
-0.0336949
-0.0857956
-0.05091
-0.0786665
-0.0679624
-0.0696625
-0.0842412
-0.0589174
-0.0990724
-0.0466517
-0.111813
-0.0331971
-0.121733
-0.0189366
-0.128366
-0.00432855
-0.13129
0.01014
-0.130322
0.0240652
-0.125663
0.036977
-0.117325
0.0485599
-0.106066
0.0585559
-0.0924074
0.0668245
-0.077116
0.0733029
-0.060704
-0.0438217
0.0780378
-0.0570907
0.0497858
-0.0619772
0.0400343
-0.0653036
0.0258123
-0.0667011
0.00862375
-0.0655818
-0.0118373
-0.0620844
-0.0317775
-0.0564288
-0.0503108
-0.0490041
-0.065975
-0.0403001
-0.0778325
-0.0308673
-0.0854211
-0.0212267
-0.0886267
-0.0118379
-0.0876683
-0.00309069
-0.0830236
0.00464636
-0.0750841
0.0111914
-0.0644801
0.0163435
-0.0520441
0.0199952
-0.0384367
0.0221273
-0.0242687
0.0228198
-0.0103957
0.0221337
0.00268765
0.020217
0.0146191
0.0172442
0.0248665
0.0134359
0.0331526
0.00903679
0.0391104
0.00424962
0.0430041
-0.000796519
0.0448483
-0.00589893
0.0446718
-0.0106975
0.0417987
-0.0151199
0.0369691
-0.0189877
0.0303583
-0.0218371
0.0203537
-0.0233919
0.00864476
-0.0234208
-0.00540544
-0.0216328
-0.0212411
-0.0179634
-0.0365811
-0.0125129
-0.0519682
-0.00532117
-0.0656786
0.00307505
-0.0756464
0.0122807
-0.0826714
0.0219746
-0.0859265
0.0312801
-0.0828025
0.0401894
-0.0786095
0.0475695
-0.0661586
0.0538906
-0.055011
0.0580312
-0.0362305
0.0605146
-0.0202857
0.0605129
0.00214294
0.0586487
0.0190563
0.054376
0.0417636
0.0483092
0.058423
0.0403358
0.0763946
0.030802
0.0907568
0.0202416
0.101522
0.00880325
0.110256
-0.00292367
0.114452
-0.0147276
0.116433
-0.0262883
0.115271
-0.0373252
0.111646
-0.0477553
0.106298
-0.0575225
0.0996412
-0.0662724
0.0906599
-0.0743685
0.0821241
-0.0812917
0.0708072
-0.0872572
0.0594675
-0.0920552
0.0465048
-0.0954968
0.0322262
-0.0975151
0.0171183
-0.0980463
0.000150696
-0.0966744
-0.0182476
-0.0934387
-0.0369307
-0.0882217
-0.056127
-0.0809837
-0.0752004
-0.0717789
-0.093446
-0.0607342
-0.110117
-0.0480728
-0.124474
-0.0341457
-0.135661
-0.0193543
-0.143157
-0.00419623
-0.146449
0.0108
-0.145318
0.0252274
-0.140091
0.0385639
-0.130661
0.0504897
-0.117992
0.0607351
-0.102653
0.0691553
-0.0855363
0.0757022
-0.0672508
-0.0485511
0.0804316
-0.0585391
0.0561475
-0.0639299
0.0454251
-0.0676551
0.0295375
-0.0693007
0.0102693
-0.0681907
-0.0129473
-0.0644824
-0.0354859
-0.0584387
-0.0563544
-0.0505031
-0.0739106
-0.04122
-0.0871157
-0.0311937
-0.0954474
-0.0209892
-0.0988312
-0.0111029
-0.0975546
-0.00193523
-0.0921913
0.00611899
-0.0831383
0.0128922
-0.0712534
0.0181825
-0.0573343
0.0218927
-0.0421469
0.0240137
-0.0263898
0.0245876
-0.0109696
0.0237388
0.0035365
0.0216278
0.0167301
0.01843
0.0280643
0.0143504
0.0372322
0.00966633
0.0437944
0.00461663
0.0480538
-0.000735343
0.0502002
-0.00617606
0.0501125
-0.011277
0.0468996
-0.0160573
0.0417494
-0.0203203
0.0346214
-0.0234958
0.0235292
-0.0253853
0.0105342
-0.0256232
-0.00516753
-0.0238625
-0.0230018
-0.0201165
-0.0403271
-0.01443
-0.0576547
-0.00682656
-0.0732821
0.00211009
-0.084583
0.0118863
-0.0924476
0.022199
-0.0962392
0.0321314
-0.0927348
0.0416131
-0.0880912
0.049442
-0.0739875
0.0562101
-0.061779
0.0606282
-0.0406486
0.0633258
-0.0229833
0.0634065
0.00206224
0.0614596
0.0210032
0.0570532
0.04617
0.0507192
0.064757
0.0423868
0.0847271
0.0324208
0.100723
0.0214009
0.112542
0.00948653
0.122171
-0.00268007
0.126619
-0.0148798
0.128632
-0.0267886
0.12718
-0.0380944
0.122951
-0.0487586
0.116963
-0.0587394
0.109622
-0.0676265
0.099547
-0.0759228
0.0904205
-0.0829743
0.0778587
-0.0891229
0.0656161
-0.0941019
0.0514838
-0.0977146
0.0358389
-0.0998901
0.0192937
-0.100588
0.000848493
-0.0993372
-0.0194983
-0.0961636
-0.0401043
-0.0909303
-0.0613603
-0.0835784
-0.0825522
-0.0741562
-0.102868
-0.0627801
-0.121493
-0.049676
-0.137578
-0.0352186
-0.150118
-0.0198279
-0.158548
-0.00404547
-0.162231
0.0115456
-0.160909
0.0265401
-0.155085
0.0403516
-0.144473
0.0526589
-0.130299
0.0631772
-0.113171
0.0717553
-0.0941144
0.0783658
-0.0738613
-0.0532641
0.0830788
-0.0601327
0.0631424
-0.0661385
0.0514309
-0.0703575
0.0337564
-0.0723125
0.0122244
-0.071221
-0.0140388
-0.0672604
-0.0394465
-0.0607518
-0.0628631
-0.0522144
-0.082448
-0.0422628
-0.0970673
-0.0315609
-0.106149
-0.0207158
-0.109676
-0.0102603
-0.10801
-0.00060755
-0.101844
0.00778593
-0.0915318
0.0148082
-0.0782757
0.0202455
-0.0627716
0.024009
-0.0459103
0.0261033
-0.0284841
0.0265654
-0.0114316
0.0255307
0.00457119
0.0231779
0.019083
0.0196889
0.0315533
0.0153278
0.0415934
0.0103598
0.0487624
0.00501044
0.0534032
-0.000684573
0.0558953
-0.00650132
0.0559292
-0.0119273
0.0523256
-0.0170947
0.0469168
-0.0218
0.0393266
-0.0253769
0.0271061
-0.0276365
0.0127938
-0.0281181
-0.00468588
-0.0264291
-0.0246908
-0.0225866
-0.0441697
-0.0166378
-0.0636035
-0.00857581
-0.0813441
0.00098428
-0.0941431
0.0114008
-0.102864
0.0223932
-0.107232
0.0330421
-0.103384
0.043161
-0.0982101
0.0514873
-0.0823138
0.0587542
-0.0690459
0.063488
-0.0453825
0.0664293
-0.0259245
0.0666052
0.00188631
0.0645585
0.0230498
0.0600119
0.0507167
0.0533647
0.0714042
0.0446259
0.0934659
0.0341652
0.111184
0.0226218
0.124086
0.0101805
0.134612
-0.00248153
0.139281
-0.0151109
0.141262
-0.0273937
0.139463
-0.0389675
0.134525
-0.0498776
0.127873
-0.0600656
0.11981
-0.0690986
0.10858
-0.0776067
0.0989285
-0.0847786
0.0850305
-0.0911223
0.0719599
-0.0963148
0.0566764
-0.100099
0.0396232
-0.102471
0.0216661
-0.103346
0.00172354
-0.102244
-0.0206006
-0.0991501
-0.0431984
-0.0939103
-0.0666
-0.0864444
-0.0900182
-0.076792
-0.112521
-0.0650578
-0.133227
-0.0514692
-0.151167
-0.0364241
-0.165163
-0.0203633
-0.174609
-0.00388416
-0.17871
0.0123675
-0.177161
0.0279978
-0.170716
0.0423377
-0.158812
0.0550669
-0.143029
0.0658847
-0.123989
0.0746289
-0.102859
0.0812982
-0.0805306
-0.0579516
0.0859856
-0.061874
0.070872
-0.0685947
0.0581517
-0.0733871
0.0385488
-0.0756945
0.0145317
-0.0746313
-0.0151019
-0.0703852
-0.0436927
-0.0633492
-0.069899
-0.0541271
-0.0916701
-0.0434172
-0.107777
-0.0319558
-0.117611
-0.0204024
-0.12123
-0.00932451
-0.119088
0.000818056
-0.111987
0.00963637
-0.10035
0.0169362
-0.0855755
0.0225332
-0.0683686
0.0263446
-0.0497218
0.0283882
-0.0305277
0.0287112
-0.0117546
0.0274504
0.00583199
0.0248223
0.0217111
0.0210257
0.0353499
0.016334
0.046285
0.0110574
0.054039
0.00539109
0.0590695
-0.000656721
0.0619431
-0.00684733
0.0621198
-0.0126072
0.0580854
-0.0181864
0.052496
-0.0233709
0.0445111
-0.0274004
0.0311355
-0.0300774
0.0154709
-0.0308523
-0.00391103
-0.0292805
-0.0262626
-0.0253378
-0.0481123
-0.0191043
-0.069837
-0.010555
-0.0898934
-0.000275665
-0.104422
0.0108307
-0.11397
0.0225505
-0.118951
0.0340061
-0.114839
0.044831
-0.109035
0.0537341
-0.0912168
0.0615475
-0.0768593
0.0666222
-0.0504572
0.0698408
-0.0291431
0.070113
0.00161411
0.0679361
0.0252267
0.0632629
0.0553899
0.0562743
0.0783928
0.047098
0.102642
0.0361244
0.122157
0.0240146
0.136196
0.0109996
0.147627
-0.00218956
0.15247
-0.0152771
0.154349
-0.0279833
0.152169
-0.0398262
0.146368
-0.0510027
0.139049
-0.0614017
0.130209
-0.0706068
0.117785
-0.0793402
0.107662
-0.0866495
0.0923398
-0.0932325
0.0785429
-0.0986288
0.0620727
-0.102633
0.0436278
-0.105236
0.0242683
-0.106264
0.0027516
-0.105369
-0.0214952
-0.102374
-0.0461933
-0.0971361
-0.0718381
-0.089551
-0.0976033
-0.0796516
-0.12242
-0.0675225
-0.145357
-0.0533981
-0.165291
-0.0377094
-0.180852
-0.0209141
-0.191404
-0.00366475
-0.195959
0.0133073
-0.194133
0.0296227
-0.187031
0.0445311
-0.173721
0.0577131
-0.156211
0.0688482
-0.135124
0.0777627
-0.111773
0.0844846
-0.0872525
-0.0626139
0.089147
-0.0223367
0.0738146
-0.0249236
0.0607386
-0.0267923
0.0404175
-0.0277127
0.0154522
-0.0273479
-0.0154667
-0.0257637
-0.0452769
-0.0231251
-0.0725375
-0.0196713
-0.0951239
-0.0156728
-0.111776
-0.0114092
-0.121874
-0.00712747
-0.125511
-0.00304015
-0.123175
0.000680541
-0.115707
0.00391053
-0.10358
0.00656578
-0.0882308
0.00858669
-0.0703895
0.00994581
-0.0510809
0.0106529
-0.0312348
0.0107263
-0.011828
0.0102261
0.00633212
0.00922486
0.0227123
0.00780573
0.036769
0.00607312
0.0480176
0.00412805
0.055984
0.00203707
0.0611605
-0.000191406
0.0641715
-0.00247004
0.0643985
-0.00458076
0.0601961
-0.00665089
0.0545662
-0.00860607
0.0464663
-0.0101549
0.0326844
-0.0112213
0.0165374
-0.0115847
-0.00354768
-0.0110659
-0.0267814
-0.00964408
-0.0495341
-0.00736069
-0.0721204
-0.00421191
-0.0930422
-0.00040099
-0.108233
0.00372298
-0.118094
0.00804758
-0.123276
0.0123025
-0.119094
0.0163093
-0.113042
0.019611
-0.0945185
0.0225147
-0.079763
0.0243912
-0.0523337
0.0256033
-0.0303552
0.0257306
0.00148678
0.0249258
0.0260316
0.0232455
0.0570702
0.0206856
0.0809527
0.0173328
0.105995
0.0133097
0.12618
0.00887266
0.140633
0.00411999
0.15238
-0.000694762
0.157285
-0.00544853
0.159103
-0.0100624
0.156783
-0.01432
0.150626
-0.0183503
0.143079
-0.0220799
0.133939
-0.0253896
0.121095
-0.0285425
0.110815
-0.0311684
0.0949658
-0.0335675
0.0809419
-0.0355406
0.0640458
-0.0370218
0.045109
-0.0380177
0.0252642
-0.038409
0.00314286
-0.0381556
-0.0217485
-0.0371193
-0.0472297
-0.0352653
-0.0736921
-0.0325467
-0.100322
-0.0289724
-0.125994
-0.0245675
-0.149761
-0.0194164
-0.170442
-0.0136801
-0.186588
-0.00752847
-0.197556
-0.00120914
-0.202279
0.00499325
-0.200335
0.0109454
-0.192983
0.0163671
-0.179142
0.0211425
-0.160986
0.0251583
-0.13914
0.0283502
-0.114965
0.0307352
-0.0896375
-0.0642538
0.0323752
-0.0225911
0.0768752
-0.0252905
0.063438
-0.0272466
0.0423736
-0.0282167
0.0164222
-0.0278546
-0.0158288
-0.0262224
-0.046909
-0.0235027
-0.0752572
-0.0199487
-0.0986779
-0.0158381
-0.115886
-0.0114606
-0.126252
-0.00707203
-0.1299
-0.00289078
-0.127357
0.000904615
-0.119503
0.00419468
-0.10687
0.00689039
-0.0909265
0.00893502
-0.0724341
0.010302
-0.0524479
0.0110027
-0.0319355
0.011054
-0.0118792
0.01053
0.00685611
0.00949299
0.0237493
0.00802561
0.0382364
0.00627127
0.049772
0.00429149
0.0579638
0.00213459
0.0633174
-0.000149339
0.0664555
-0.0024741
0.0667232
-0.00461923
0.0623413
-0.00673937
0.0566863
-0.00876517
0.0484921
-0.0103862
0.0343054
-0.0115225
0.0176736
-0.0119419
-0.00312823
-0.011446
-0.0272773
-0.0100048
-0.0509753
-0.00766917
-0.074456
-0.00444077
-0.0962706
-0.000520276
-0.112154
0.00371625
-0.122331
0.00813826
-0.127698
0.0124984
-0.123454
0.0166057
-0.117149
0.0199777
-0.0978905
0.0229561
-0.0827414
0.024863
-0.0542406
0.026113
-0.0316052
0.0262534
0.00134637
0.0254292
0.0268557
0.0237319
0.0587675
0.0211215
0.0835631
0.0177055
0.109411
0.013607
0.130279
0.0090872
0.145152
0.00425104
0.157216
-0.000644078
0.16218
-0.00546964
0.163929
-0.0101377
0.161451
-0.0144543
0.154942
-0.018531
0.147156
-0.0222777
0.137685
-0.0256315
0.124449
-0.0288068
0.11399
-0.0314657
0.0976246
-0.0338982
0.0833744
-0.0358962
0.0660438
-0.0374041
0.0466169
-0.0384358
0.026296
-0.0388361
0.00354312
-0.0386218
-0.0219628
-0.0376019
-0.0482496
-0.0357538
-0.0755402
-0.0330257
-0.10305
-0.0294233
-0.129597
-0.0249638
-0.154221
-0.0197325
-0.175674
-0.0138947
-0.192426
-0.00762266
-0.203828
-0.00117405
-0.208727
0.00514429
-0.206653
0.0112128
-0.199052
0.0167216
-0.184651
0.0215641
-0.165829
0.0256196
-0.143195
0.0288259
-0.118171