/*--------------------------------*- C++ -*----------------------------------*\
| =========                 |                                                 |
| \\      /  F ield         | OpenFOAM: The Open Source CFD Toolbox           |
|  \\    /   O peration     | Version:  v1912                                 |
|   \\  /    A nd           | Website:  www.openfoam.com                      |
|    \\/     M anipulation  |                                                 |
\*---------------------------------------------------------------------------*/
FoamFile
{
    version     2.0;
    format      ascii;
    class       volScalarField;
    location    "40";
    object      k;
}
// * * * * * * * * * * * * * * * * * * * * * * * * * * * * * * * * * * * * * //

dimensions      [0 2 -2 0 0 0 0];


internalField   nonuniform List<scalar> 
14268
(
8.01399e-07
7.99081e-07
7.96777e-07
7.94773e-07
7.93105e-07
7.92267e-07
7.92145e-07
7.92637e-07
7.94719e-07
7.97653e-07
8.01299e-07
8.05471e-07
8.09845e-07
8.14315e-07
8.18708e-07
8.23052e-07
8.27118e-07
8.30464e-07
8.32386e-07
8.32688e-07
8.32112e-07
8.31037e-07
8.29591e-07
8.27935e-07
8.26477e-07
8.25218e-07
8.2422e-07
8.2322e-07
8.22311e-07
8.21476e-07
8.20269e-07
8.194e-07
8.18641e-07
8.18585e-07
8.19605e-07
8.21237e-07
8.23735e-07
8.27174e-07
8.3097e-07
8.35581e-07
8.39889e-07
8.44667e-07
8.4864e-07
8.52896e-07
8.55493e-07
8.58232e-07
8.58876e-07
8.60492e-07
8.60842e-07
8.62305e-07
8.62724e-07
8.63824e-07
8.64495e-07
8.65452e-07
8.66342e-07
8.67315e-07
8.68338e-07
8.69426e-07
8.70557e-07
8.71695e-07
8.72759e-07
8.73616e-07
8.74266e-07
8.74784e-07
8.75111e-07
8.75366e-07
8.75514e-07
8.7562e-07
8.76421e-07
8.78297e-07
8.81234e-07
8.85212e-07
8.90201e-07
8.9613e-07
9.02932e-07
9.10656e-07
9.19248e-07
9.28578e-07
9.38438e-07
9.4861e-07
9.58715e-07
9.68585e-07
9.78473e-07
9.89268e-07
9.98792e-07
1.00181e-06
2.66651e-07
2.6519e-07
2.64321e-07
2.64624e-07
2.66105e-07
2.68298e-07
2.71197e-07
2.74665e-07
2.78662e-07
2.83132e-07
2.87996e-07
2.93144e-07
2.98374e-07
3.03661e-07
3.08831e-07
3.13857e-07
3.18422e-07
3.22206e-07
3.24796e-07
3.25857e-07
3.25165e-07
3.22549e-07
3.18562e-07
3.13561e-07
3.08463e-07
3.03425e-07
2.99043e-07
2.95202e-07
2.92131e-07
2.90257e-07
2.8873e-07
2.88763e-07
2.89536e-07
2.90759e-07
2.9315e-07
2.95947e-07
2.99586e-07
3.04192e-07
3.08857e-07
3.14205e-07
3.19836e-07
3.24495e-07
3.29979e-07
3.3357e-07
3.37576e-07
3.39036e-07
3.41065e-07
3.39807e-07
3.38726e-07
3.34414e-07
3.29581e-07
3.23036e-07
3.15459e-07
3.07425e-07
2.98693e-07
2.89964e-07
2.81181e-07
2.72688e-07
2.64585e-07
2.57e-07
2.5e-07
2.43727e-07
2.38152e-07
2.33469e-07
2.29656e-07
2.26866e-07
2.25134e-07
2.24571e-07
2.24786e-07
2.25461e-07
2.26612e-07
2.28274e-07
2.30469e-07
2.33214e-07
2.36518e-07
2.40367e-07
2.44733e-07
2.49557e-07
2.54743e-07
2.6017e-07
2.65644e-07
2.70957e-07
2.76557e-07
2.8201e-07
2.87514e-07
2.97425e-07
1.31171e-07
1.30887e-07
1.30794e-07
1.31025e-07
1.3154e-07
1.32231e-07
1.33114e-07
1.34137e-07
1.35308e-07
1.36599e-07
1.3799e-07
1.39447e-07
1.40927e-07
1.42416e-07
1.43876e-07
1.45286e-07
1.46542e-07
1.4754e-07
1.48165e-07
1.48334e-07
1.47951e-07
1.46968e-07
1.45565e-07
1.43878e-07
1.42193e-07
1.40578e-07
1.39196e-07
1.38009e-07
1.37085e-07
1.36483e-07
1.36025e-07
1.35966e-07
1.36144e-07
1.36444e-07
1.37041e-07
1.37761e-07
1.38695e-07
1.39896e-07
1.41113e-07
1.42546e-07
1.44048e-07
1.45325e-07
1.46795e-07
1.47767e-07
1.48801e-07
1.49122e-07
1.49577e-07
1.4902e-07
1.48428e-07
1.46838e-07
1.45058e-07
1.42831e-07
1.40346e-07
1.37857e-07
1.35294e-07
1.3287e-07
1.30581e-07
1.28498e-07
1.26634e-07
1.24995e-07
1.23575e-07
1.22371e-07
1.21363e-07
1.20553e-07
1.19924e-07
1.19474e-07
1.19199e-07
1.19098e-07
1.19103e-07
1.19156e-07
1.19262e-07
1.19424e-07
1.19651e-07
1.19951e-07
1.20336e-07
1.20813e-07
1.21387e-07
1.2206e-07
1.22826e-07
1.23664e-07
1.2454e-07
1.25419e-07
1.26346e-07
1.27239e-07
1.28176e-07
1.30174e-07
1.11233e-07
1.11205e-07
1.1122e-07
1.11303e-07
1.11422e-07
1.11564e-07
1.11759e-07
1.11967e-07
1.12221e-07
1.125e-07
1.1281e-07
1.13138e-07
1.13491e-07
1.13863e-07
1.14257e-07
1.14649e-07
1.14997e-07
1.15278e-07
1.1545e-07
1.15489e-07
1.1537e-07
1.1509e-07
1.14682e-07
1.14211e-07
1.13745e-07
1.13319e-07
1.12963e-07
1.12667e-07
1.12471e-07
1.1232e-07
1.12259e-07
1.12249e-07
1.12319e-07
1.12414e-07
1.12544e-07
1.12718e-07
1.12935e-07
1.13214e-07
1.13505e-07
1.13874e-07
1.14207e-07
1.14584e-07
1.14888e-07
1.15208e-07
1.15382e-07
1.15524e-07
1.15538e-07
1.15423e-07
1.15154e-07
1.14732e-07
1.14198e-07
1.13617e-07
1.1297e-07
1.12378e-07
1.11794e-07
1.11284e-07
1.10842e-07
1.10478e-07
1.10185e-07
1.09957e-07
1.09789e-07
1.09664e-07
1.09588e-07
1.09536e-07
1.09517e-07
1.09511e-07
1.09522e-07
1.09541e-07
1.09556e-07
1.09556e-07
1.09543e-07
1.09518e-07
1.09485e-07
1.09448e-07
1.09416e-07
1.09399e-07
1.09401e-07
1.09438e-07
1.09514e-07
1.09622e-07
1.09758e-07
1.09914e-07
1.10086e-07
1.10225e-07
1.10424e-07
1.10443e-07
1.07374e-07
1.07387e-07
1.07427e-07
1.07516e-07
1.07602e-07
1.07691e-07
1.07789e-07
1.07876e-07
1.07978e-07
1.08076e-07
1.08183e-07
1.08282e-07
1.08396e-07
1.08514e-07
1.08649e-07
1.08789e-07
1.08907e-07
1.08997e-07
1.0904e-07
1.09047e-07
1.08999e-07
1.08913e-07
1.08778e-07
1.08642e-07
1.08506e-07
1.0841e-07
1.08337e-07
1.0828e-07
1.08287e-07
1.08247e-07
1.08297e-07
1.08296e-07
1.08352e-07
1.08424e-07
1.08455e-07
1.08519e-07
1.08579e-07
1.08634e-07
1.08704e-07
1.08827e-07
1.08852e-07
1.09029e-07
1.09034e-07
1.0922e-07
1.09149e-07
1.09318e-07
1.09168e-07
1.09274e-07
1.09051e-07
1.09021e-07
1.0879e-07
1.08658e-07
1.08468e-07
1.08329e-07
1.08218e-07
1.08122e-07
1.08079e-07
1.08059e-07
1.08076e-07
1.08106e-07
1.08172e-07
1.08223e-07
1.08311e-07
1.08381e-07
1.08463e-07
1.08533e-07
1.08595e-07
1.08642e-07
1.08671e-07
1.08675e-07
1.08658e-07
1.08615e-07
1.08554e-07
1.08476e-07
1.08392e-07
1.0831e-07
1.08234e-07
1.08179e-07
1.08152e-07
1.08149e-07
1.08169e-07
1.0821e-07
1.08271e-07
1.08335e-07
1.08421e-07
1.08462e-07
1.07323e-07
1.07346e-07
1.07388e-07
1.07443e-07
1.07467e-07
1.07495e-07
1.07513e-07
1.07517e-07
1.07523e-07
1.07523e-07
1.07525e-07
1.07525e-07
1.07541e-07
1.0757e-07
1.07623e-07
1.07688e-07
1.07748e-07
1.07798e-07
1.07822e-07
1.07833e-07
1.07815e-07
1.07785e-07
1.07718e-07
1.07659e-07
1.07604e-07
1.07578e-07
1.07569e-07
1.07566e-07
1.07626e-07
1.07618e-07
1.07715e-07
1.07734e-07
1.07799e-07
1.07881e-07
1.07896e-07
1.07943e-07
1.07976e-07
1.07988e-07
1.08013e-07
1.08089e-07
1.0804e-07
1.08179e-07
1.08098e-07
1.08269e-07
1.0812e-07
1.08307e-07
1.0809e-07
1.08259e-07
1.08021e-07
1.08103e-07
1.07918e-07
1.079e-07
1.07816e-07
1.07758e-07
1.07751e-07
1.07728e-07
1.0776e-07
1.07801e-07
1.0787e-07
1.07937e-07
1.0804e-07
1.08111e-07
1.08223e-07
1.08309e-07
1.08404e-07
1.08486e-07
1.08556e-07
1.08609e-07
1.08642e-07
1.08649e-07
1.08636e-07
1.08595e-07
1.08534e-07
1.08457e-07
1.08371e-07
1.08282e-07
1.082e-07
1.08134e-07
1.08094e-07
1.08077e-07
1.08081e-07
1.08103e-07
1.08141e-07
1.08175e-07
1.08243e-07
1.08175e-07
1.06955e-07
1.0697e-07
1.07033e-07
1.07117e-07
1.0719e-07
1.07263e-07
1.07326e-07
1.07364e-07
1.07407e-07
1.07435e-07
1.07461e-07
1.07475e-07
1.07495e-07
1.07523e-07
1.07567e-07
1.07615e-07
1.07648e-07
1.07669e-07
1.07661e-07
1.07648e-07
1.07615e-07
1.0759e-07
1.0753e-07
1.07493e-07
1.0744e-07
1.07435e-07
1.07431e-07
1.07438e-07
1.07506e-07
1.07501e-07
1.076e-07
1.07629e-07
1.07695e-07
1.0779e-07
1.07813e-07
1.07863e-07
1.07897e-07
1.07905e-07
1.07924e-07
1.07999e-07
1.07919e-07
1.08059e-07
1.07935e-07
1.0811e-07
1.07914e-07
1.08116e-07
1.07851e-07
1.0805e-07
1.07771e-07
1.07895e-07
1.07705e-07
1.07705e-07
1.0765e-07
1.07592e-07
1.07616e-07
1.07603e-07
1.07652e-07
1.0771e-07
1.0779e-07
1.07864e-07
1.07986e-07
1.0806e-07
1.0819e-07
1.08282e-07
1.0839e-07
1.08482e-07
1.08561e-07
1.08629e-07
1.08675e-07
1.08695e-07
1.0869e-07
1.08659e-07
1.08607e-07
1.08533e-07
1.08448e-07
1.08361e-07
1.08274e-07
1.08203e-07
1.08156e-07
1.08132e-07
1.08124e-07
1.08137e-07
1.08164e-07
1.0819e-07
1.08235e-07
1.08187e-07
1.07288e-07
1.0732e-07
1.07391e-07
1.07469e-07
1.07521e-07
1.07574e-07
1.07598e-07
1.07595e-07
1.07587e-07
1.07567e-07
1.07547e-07
1.07523e-07
1.07514e-07
1.07523e-07
1.07551e-07
1.07583e-07
1.07607e-07
1.07621e-07
1.07612e-07
1.07596e-07
1.07564e-07
1.07538e-07
1.0748e-07
1.07442e-07
1.07421e-07
1.07423e-07
1.07432e-07
1.07449e-07
1.07533e-07
1.07525e-07
1.07656e-07
1.07703e-07
1.07781e-07
1.07895e-07
1.0794e-07
1.07993e-07
1.08035e-07
1.0805e-07
1.08058e-07
1.08138e-07
1.08028e-07
1.08176e-07
1.08021e-07
1.08196e-07
1.07972e-07
1.08171e-07
1.07881e-07
1.08079e-07
1.07779e-07
1.07908e-07
1.0771e-07
1.07706e-07
1.07658e-07
1.07593e-07
1.07629e-07
1.07617e-07
1.07674e-07
1.0774e-07
1.07829e-07
1.07909e-07
1.08045e-07
1.08116e-07
1.08262e-07
1.08361e-07
1.08477e-07
1.08579e-07
1.08666e-07
1.08742e-07
1.08799e-07
1.08824e-07
1.08827e-07
1.08807e-07
1.08757e-07
1.08689e-07
1.08606e-07
1.08516e-07
1.08424e-07
1.08347e-07
1.08289e-07
1.08255e-07
1.08234e-07
1.08235e-07
1.08246e-07
1.08265e-07
1.08312e-07
1.08258e-07
1.0715e-07
1.07176e-07
1.0727e-07
1.07396e-07
1.07514e-07
1.07625e-07
1.07696e-07
1.07724e-07
1.07744e-07
1.07744e-07
1.07734e-07
1.07715e-07
1.07698e-07
1.07698e-07
1.07714e-07
1.07738e-07
1.0775e-07
1.07751e-07
1.07727e-07
1.07701e-07
1.07655e-07
1.07616e-07
1.0755e-07
1.07522e-07
1.07473e-07
1.07466e-07
1.07473e-07
1.07478e-07
1.07562e-07
1.0758e-07
1.07698e-07
1.0777e-07
1.07867e-07
1.08017e-07
1.08084e-07
1.0816e-07
1.0822e-07
1.08252e-07
1.08248e-07
1.08343e-07
1.08195e-07
1.08359e-07
1.08166e-07
1.08347e-07
1.08087e-07
1.08281e-07
1.07957e-07
1.08153e-07
1.07821e-07
1.07953e-07
1.07743e-07
1.0773e-07
1.07687e-07
1.07603e-07
1.07652e-07
1.07632e-07
1.0769e-07
1.07764e-07
1.07856e-07
1.07929e-07
1.08081e-07
1.08137e-07
1.08303e-07
1.08398e-07
1.08521e-07
1.08633e-07
1.0873e-07
1.08818e-07
1.08889e-07
1.08924e-07
1.08941e-07
1.08932e-07
1.08891e-07
1.08832e-07
1.08755e-07
1.08662e-07
1.08568e-07
1.08487e-07
1.0842e-07
1.0838e-07
1.08348e-07
1.08338e-07
1.08338e-07
1.08342e-07
1.0837e-07
1.08297e-07
1.07371e-07
1.07415e-07
1.07523e-07
1.07656e-07
1.07776e-07
1.07885e-07
1.0794e-07
1.07946e-07
1.07942e-07
1.0792e-07
1.07888e-07
1.07851e-07
1.07813e-07
1.07787e-07
1.07787e-07
1.07797e-07
1.07803e-07
1.078e-07
1.07777e-07
1.07751e-07
1.07717e-07
1.07687e-07
1.07611e-07
1.07558e-07
1.07529e-07
1.07536e-07
1.07521e-07
1.07526e-07
1.07629e-07
1.07659e-07
1.07776e-07
1.07879e-07
1.07974e-07
1.08156e-07
1.08257e-07
1.08345e-07
1.08434e-07
1.08479e-07
1.08467e-07
1.08584e-07
1.08394e-07
1.08573e-07
1.0834e-07
1.08524e-07
1.08231e-07
1.08409e-07
1.08056e-07
1.08246e-07
1.07884e-07
1.08013e-07
1.07786e-07
1.07765e-07
1.07728e-07
1.07616e-07
1.07679e-07
1.07653e-07
1.07715e-07
1.07799e-07
1.07891e-07
1.07962e-07
1.08135e-07
1.08178e-07
1.08364e-07
1.08461e-07
1.08598e-07
1.08725e-07
1.08828e-07
1.08935e-07
1.09018e-07
1.09063e-07
1.09093e-07
1.09092e-07
1.09071e-07
1.09013e-07
1.08937e-07
1.08844e-07
1.08745e-07
1.08654e-07
1.0858e-07
1.08527e-07
1.08482e-07
1.08456e-07
1.0844e-07
1.0843e-07
1.08444e-07
1.08356e-07
1.07323e-07
1.07383e-07
1.07528e-07
1.0772e-07
1.079e-07
1.08063e-07
1.08168e-07
1.0821e-07
1.08241e-07
1.0823e-07
1.08183e-07
1.08122e-07
1.08063e-07
1.08022e-07
1.08002e-07
1.07993e-07
1.07972e-07
1.07947e-07
1.07899e-07
1.07861e-07
1.07822e-07
1.07786e-07
1.077e-07
1.07664e-07
1.0759e-07
1.07575e-07
1.07533e-07
1.07563e-07
1.07684e-07
1.07679e-07
1.07849e-07
1.07964e-07
1.08083e-07
1.08309e-07
1.08448e-07
1.08559e-07
1.08685e-07
1.08747e-07
1.08712e-07
1.0885e-07
1.08616e-07
1.08806e-07
1.08553e-07
1.08718e-07
1.08396e-07
1.08562e-07
1.08183e-07
1.08358e-07
1.07966e-07
1.08084e-07
1.07845e-07
1.07794e-07
1.07763e-07
1.07631e-07
1.07709e-07
1.07669e-07
1.07734e-07
1.07838e-07
1.07933e-07
1.08001e-07
1.08204e-07
1.08225e-07
1.0845e-07
1.08549e-07
1.08698e-07
1.08848e-07
1.08967e-07
1.0909e-07
1.09186e-07
1.09247e-07
1.09286e-07
1.09301e-07
1.09283e-07
1.09232e-07
1.0916e-07
1.09061e-07
1.08954e-07
1.08856e-07
1.08764e-07
1.08696e-07
1.08633e-07
1.0859e-07
1.08557e-07
1.08528e-07
1.08526e-07
1.08412e-07
1.07475e-07
1.07573e-07
1.07763e-07
1.07978e-07
1.08181e-07
1.08366e-07
1.08473e-07
1.08531e-07
1.08561e-07
1.08538e-07
1.08477e-07
1.08388e-07
1.08313e-07
1.08257e-07
1.08232e-07
1.08214e-07
1.08178e-07
1.08131e-07
1.08069e-07
1.08022e-07
1.07967e-07
1.07919e-07
1.07811e-07
1.07719e-07
1.07689e-07
1.0767e-07
1.07617e-07
1.07661e-07
1.07793e-07
1.07806e-07
1.07992e-07
1.08106e-07
1.08262e-07
1.08533e-07
1.08712e-07
1.08837e-07
1.08976e-07
1.0906e-07
1.08985e-07
1.09127e-07
1.08845e-07
1.0903e-07
1.08746e-07
1.08885e-07
1.08549e-07
1.08689e-07
1.08304e-07
1.08451e-07
1.08051e-07
1.08156e-07
1.07914e-07
1.07831e-07
1.07816e-07
1.07668e-07
1.07784e-07
1.0775e-07
1.07817e-07
1.0795e-07
1.08049e-07
1.08137e-07
1.08371e-07
1.08376e-07
1.08632e-07
1.08723e-07
1.08909e-07
1.09064e-07
1.09199e-07
1.09337e-07
1.09455e-07
1.09523e-07
1.0957e-07
1.09592e-07
1.09581e-07
1.09531e-07
1.09457e-07
1.0935e-07
1.09229e-07
1.09112e-07
1.08994e-07
1.08904e-07
1.08811e-07
1.08746e-07
1.08694e-07
1.08644e-07
1.08631e-07
1.08492e-07
1.07598e-07
1.0774e-07
1.07995e-07
1.08299e-07
1.08582e-07
1.08824e-07
1.08992e-07
1.09073e-07
1.09087e-07
1.09043e-07
1.08928e-07
1.08781e-07
1.08668e-07
1.08571e-07
1.08523e-07
1.08474e-07
1.08406e-07
1.08328e-07
1.08239e-07
1.08166e-07
1.08075e-07
1.07999e-07
1.07881e-07
1.07811e-07
1.07752e-07
1.07723e-07
1.07672e-07
1.07759e-07
1.07917e-07
1.07954e-07
1.0815e-07
1.08301e-07
1.08509e-07
1.08859e-07
1.09123e-07
1.09271e-07
1.09442e-07
1.09568e-07
1.09429e-07
1.09567e-07
1.0924e-07
1.09403e-07
1.09073e-07
1.09156e-07
1.08768e-07
1.08875e-07
1.08465e-07
1.08572e-07
1.08158e-07
1.08246e-07
1.07995e-07
1.07888e-07
1.07886e-07
1.07707e-07
1.07847e-07
1.0779e-07
1.07851e-07
1.08021e-07
1.08109e-07
1.08186e-07
1.08455e-07
1.08432e-07
1.08753e-07
1.08847e-07
1.09015e-07
1.09226e-07
1.09366e-07
1.09532e-07
1.09679e-07
1.09771e-07
1.09838e-07
1.09879e-07
1.09881e-07
1.09842e-07
1.09774e-07
1.09661e-07
1.09529e-07
1.09399e-07
1.09251e-07
1.09137e-07
1.09006e-07
1.08904e-07
1.08816e-07
1.08727e-07
1.0869e-07
1.08519e-07
1.07889e-07
1.08103e-07
1.08443e-07
1.08804e-07
1.09153e-07
1.09448e-07
1.09646e-07
1.09745e-07
1.09767e-07
1.0969e-07
1.09548e-07
1.09356e-07
1.09202e-07
1.09074e-07
1.08987e-07
1.08899e-07
1.08793e-07
1.08671e-07
1.08534e-07
1.08421e-07
1.08313e-07
1.08212e-07
1.08073e-07
1.08073e-07
1.08047e-07
1.08039e-07
1.07993e-07
1.08146e-07
1.08387e-07
1.08467e-07
1.08675e-07
1.08834e-07
1.09045e-07
1.09468e-07
1.09806e-07
1.09969e-07
1.10169e-07
1.1034e-07
1.10157e-07
1.10218e-07
1.09858e-07
1.09948e-07
1.0964e-07
1.09647e-07
1.0922e-07
1.09255e-07
1.08825e-07
1.08855e-07
1.08417e-07
1.08472e-07
1.08214e-07
1.08056e-07
1.08054e-07
1.07839e-07
1.08002e-07
1.07942e-07
1.07994e-07
1.08234e-07
1.0829e-07
1.08393e-07
1.08687e-07
1.08642e-07
1.09003e-07
1.0907e-07
1.09295e-07
1.09494e-07
1.09667e-07
1.09852e-07
1.1002e-07
1.10126e-07
1.10206e-07
1.10258e-07
1.10264e-07
1.10223e-07
1.10153e-07
1.10038e-07
1.09907e-07
1.09772e-07
1.09612e-07
1.09489e-07
1.09333e-07
1.09215e-07
1.09106e-07
1.08986e-07
1.08908e-07
1.08688e-07
1.08181e-07
1.0848e-07
1.08932e-07
1.09409e-07
1.09848e-07
1.10188e-07
1.10384e-07
1.10454e-07
1.10416e-07
1.10297e-07
1.10098e-07
1.09871e-07
1.09647e-07
1.09488e-07
1.09388e-07
1.09257e-07
1.0913e-07
1.08975e-07
1.08814e-07
1.08649e-07
1.08562e-07
1.08463e-07
1.08275e-07
1.08326e-07
1.0832e-07
1.08312e-07
1.08213e-07
1.084e-07
1.08695e-07
1.08797e-07
1.08951e-07
1.09099e-07
1.09318e-07
1.09777e-07
1.1017e-07
1.10357e-07
1.10624e-07
1.10903e-07
1.10788e-07
1.10795e-07
1.1041e-07
1.10396e-07
1.10068e-07
1.10037e-07
1.09565e-07
1.09556e-07
1.09099e-07
1.09092e-07
1.08638e-07
1.08677e-07
1.08412e-07
1.08209e-07
1.08205e-07
1.07954e-07
1.08131e-07
1.08057e-07
1.08065e-07
1.08325e-07
1.08335e-07
1.08441e-07
1.08725e-07
1.08654e-07
1.09054e-07
1.09101e-07
1.09354e-07
1.09578e-07
1.09752e-07
1.09993e-07
1.10201e-07
1.10339e-07
1.10442e-07
1.10512e-07
1.1052e-07
1.10475e-07
1.104e-07
1.10272e-07
1.10139e-07
1.09988e-07
1.09818e-07
1.09689e-07
1.0951e-07
1.09377e-07
1.09258e-07
1.09132e-07
1.09058e-07
1.08823e-07
1.08425e-07
1.08753e-07
1.09227e-07
1.09737e-07
1.10235e-07
1.10654e-07
1.10927e-07
1.11033e-07
1.10916e-07
1.10718e-07
1.10449e-07
1.10195e-07
1.09902e-07
1.09739e-07
1.09633e-07
1.0949e-07
1.09356e-07
1.09169e-07
1.09003e-07
1.08802e-07
1.08735e-07
1.08606e-07
1.08482e-07
1.0841e-07
1.08431e-07
1.0841e-07
1.08259e-07
1.08449e-07
1.0875e-07
1.08823e-07
1.08952e-07
1.09132e-07
1.09363e-07
1.0983e-07
1.10236e-07
1.10418e-07
1.10717e-07
1.11051e-07
1.11003e-07
1.1102e-07
1.10687e-07
1.10647e-07
1.10323e-07
1.10228e-07
1.09782e-07
1.09694e-07
1.09235e-07
1.09157e-07
1.08698e-07
1.08715e-07
1.08429e-07
1.08218e-07
1.08207e-07
1.07949e-07
1.08125e-07
1.08048e-07
1.08046e-07
1.08313e-07
1.083e-07
1.08436e-07
1.08715e-07
1.08669e-07
1.09113e-07
1.0918e-07
1.0948e-07
1.09748e-07
1.09948e-07
1.10206e-07
1.10434e-07
1.10597e-07
1.10715e-07
1.10794e-07
1.10774e-07
1.10698e-07
1.10593e-07
1.10433e-07
1.10272e-07
1.10097e-07
1.09915e-07
1.09782e-07
1.09591e-07
1.09442e-07
1.09305e-07
1.09156e-07
1.09057e-07
1.08795e-07
1.08512e-07
1.08831e-07
1.09303e-07
1.09852e-07
1.10407e-07
1.10911e-07
1.11299e-07
1.11504e-07
1.11471e-07
1.11241e-07
1.10876e-07
1.10529e-07
1.10157e-07
1.09973e-07
1.09839e-07
1.09697e-07
1.09561e-07
1.09387e-07
1.09223e-07
1.09015e-07
1.08927e-07
1.08692e-07
1.08734e-07
1.08407e-07
1.08532e-07
1.08514e-07
1.08349e-07
1.08563e-07
1.08773e-07
1.08853e-07
1.08983e-07
1.09203e-07
1.09456e-07
1.09906e-07
1.10307e-07
1.10469e-07
1.1078e-07
1.11151e-07
1.11152e-07
1.11181e-07
1.10897e-07
1.10828e-07
1.10544e-07
1.10456e-07
1.09939e-07
1.09814e-07
1.09316e-07
1.09241e-07
1.08787e-07
1.08767e-07
1.08459e-07
1.08223e-07
1.08207e-07
1.07933e-07
1.08108e-07
1.08028e-07
1.08022e-07
1.0831e-07
1.08293e-07
1.08482e-07
1.08804e-07
1.08794e-07
1.09275e-07
1.09357e-07
1.09652e-07
1.09892e-07
1.10139e-07
1.10375e-07
1.10604e-07
1.10791e-07
1.10944e-07
1.11063e-07
1.11093e-07
1.11007e-07
1.10863e-07
1.10668e-07
1.10455e-07
1.10248e-07
1.10023e-07
1.09879e-07
1.09674e-07
1.0952e-07
1.09377e-07
1.09218e-07
1.09112e-07
1.08839e-07
1.08458e-07
1.08766e-07
1.09237e-07
1.09815e-07
1.10418e-07
1.10982e-07
1.11466e-07
1.11781e-07
1.11878e-07
1.11726e-07
1.11383e-07
1.10949e-07
1.10465e-07
1.10216e-07
1.10022e-07
1.09843e-07
1.09666e-07
1.09465e-07
1.09287e-07
1.09071e-07
1.08962e-07
1.08754e-07
1.08746e-07
1.08368e-07
1.08621e-07
1.08526e-07
1.08478e-07
1.08675e-07
1.08789e-07
1.08799e-07
1.08957e-07
1.09197e-07
1.09495e-07
1.09944e-07
1.10345e-07
1.10528e-07
1.10827e-07
1.11236e-07
1.11287e-07
1.11295e-07
1.11051e-07
1.10938e-07
1.10707e-07
1.10648e-07
1.10207e-07
1.10015e-07
1.09537e-07
1.09363e-07
1.08879e-07
1.08811e-07
1.08467e-07
1.08234e-07
1.082e-07
1.07922e-07
1.08101e-07
1.08024e-07
1.08029e-07
1.08348e-07
1.08339e-07
1.08619e-07
1.08878e-07
1.08886e-07
1.09344e-07
1.09347e-07
1.0968e-07
1.09915e-07
1.1012e-07
1.10409e-07
1.10638e-07
1.10853e-07
1.11041e-07
1.11216e-07
1.11321e-07
1.11297e-07
1.11179e-07
1.10943e-07
1.10703e-07
1.10453e-07
1.10183e-07
1.10004e-07
1.09761e-07
1.09593e-07
1.09433e-07
1.09254e-07
1.09114e-07
1.08809e-07
1.08252e-07
1.08532e-07
1.08993e-07
1.09593e-07
1.1026e-07
1.10912e-07
1.11479e-07
1.11875e-07
1.12088e-07
1.12051e-07
1.11791e-07
1.11366e-07
1.10854e-07
1.10518e-07
1.10219e-07
1.09984e-07
1.09748e-07
1.0952e-07
1.09294e-07
1.09073e-07
1.08944e-07
1.08771e-07
1.08678e-07
1.084e-07
1.08713e-07
1.0851e-07
1.08689e-07
1.08768e-07
1.08739e-07
1.08753e-07
1.0896e-07
1.09265e-07
1.09548e-07
1.09961e-07
1.10357e-07
1.10562e-07
1.1089e-07
1.11347e-07
1.11411e-07
1.11388e-07
1.11162e-07
1.10987e-07
1.10753e-07
1.10753e-07
1.1026e-07
1.10139e-07
1.09616e-07
1.09475e-07
1.08994e-07
1.08874e-07
1.08492e-07
1.08249e-07
1.08207e-07
1.07918e-07
1.08103e-07
1.08038e-07
1.08071e-07
1.0843e-07
1.08376e-07
1.0868e-07
1.08878e-07
1.08887e-07
1.09335e-07
1.09349e-07
1.09645e-07
1.09887e-07
1.1007e-07
1.1034e-07
1.10586e-07
1.10822e-07
1.11042e-07
1.11259e-07
1.11423e-07
1.11494e-07
1.11454e-07
1.1124e-07
1.10959e-07
1.10674e-07
1.10372e-07
1.10163e-07
1.09887e-07
1.09698e-07
1.09531e-07
1.09357e-07
1.09234e-07
1.08942e-07
1.07736e-07
1.07923e-07
1.0833e-07
1.08932e-07
1.097e-07
1.10523e-07
1.11285e-07
1.11835e-07
1.12134e-07
1.12193e-07
1.12028e-07
1.11658e-07
1.1118e-07
1.10795e-07
1.10449e-07
1.10161e-07
1.09829e-07
1.0956e-07
1.0931e-07
1.09083e-07
1.08945e-07
1.08795e-07
1.0866e-07
1.08561e-07
1.08709e-07
1.08581e-07
1.08889e-07
1.08729e-07
1.08709e-07
1.08808e-07
1.09005e-07
1.09262e-07
1.09534e-07
1.09938e-07
1.10329e-07
1.10581e-07
1.10925e-07
1.1148e-07
1.11635e-07
1.11564e-07
1.11304e-07
1.11041e-07
1.10842e-07
1.10812e-07
1.10397e-07
1.1021e-07
1.0975e-07
1.09511e-07
1.09025e-07
1.08864e-07
1.08457e-07
1.08246e-07
1.08195e-07
1.07923e-07
1.08122e-07
1.08077e-07
1.08097e-07
1.08458e-07
1.08352e-07
1.08677e-07
1.0884e-07
1.08843e-07
1.09247e-07
1.09215e-07
1.09506e-07
1.09513e-07
1.09835e-07
1.10078e-07
1.10303e-07
1.10601e-07
1.10899e-07
1.11205e-07
1.11433e-07
1.11573e-07
1.11634e-07
1.11512e-07
1.11241e-07
1.1091e-07
1.10553e-07
1.10314e-07
1.09997e-07
1.09779e-07
1.09588e-07
1.09374e-07
1.09208e-07
1.08874e-07
1.06629e-07
1.06611e-07
1.06859e-07
1.07428e-07
1.08331e-07
1.09459e-07
1.10588e-07
1.11486e-07
1.12031e-07
1.12206e-07
1.12107e-07
1.11796e-07
1.11366e-07
1.10968e-07
1.10621e-07
1.10307e-07
1.09969e-07
1.0969e-07
1.0938e-07
1.09142e-07
1.08989e-07
1.08852e-07
1.08733e-07
1.08814e-07
1.08697e-07
1.08921e-07
1.08798e-07
1.08547e-07
1.08738e-07
1.08845e-07
1.08934e-07
1.09176e-07
1.0939e-07
1.09735e-07
1.10184e-07
1.1049e-07
1.10917e-07
1.1154e-07
1.11831e-07
1.11795e-07
1.11488e-07
1.11093e-07
1.1081e-07
1.10812e-07
1.1043e-07
1.10255e-07
1.09836e-07
1.09555e-07
1.09055e-07
1.08885e-07
1.08492e-07
1.0826e-07
1.08201e-07
1.07938e-07
1.08133e-07
1.08086e-07
1.08093e-07
1.0842e-07
1.0829e-07
1.08597e-07
1.08657e-07
1.08637e-07
1.0892e-07
1.08769e-07
1.08952e-07
1.08996e-07
1.08924e-07
1.09237e-07
1.09451e-07
1.09856e-07
1.10309e-07
1.10821e-07
1.11264e-07
1.11549e-07
1.11694e-07
1.1168e-07
1.11504e-07
1.11197e-07
1.10805e-07
1.10532e-07
1.10168e-07
1.09919e-07
1.09709e-07
1.09506e-07
1.09357e-07
1.09036e-07
1.04398e-07
1.04026e-07
1.03944e-07
1.04437e-07
1.05507e-07
1.07112e-07
1.08877e-07
1.10421e-07
1.11495e-07
1.12011e-07
1.12077e-07
1.11822e-07
1.11423e-07
1.1103e-07
1.10697e-07
1.10373e-07
1.10035e-07
1.09778e-07
1.09504e-07
1.0928e-07
1.09117e-07
1.08989e-07
1.08902e-07
1.08901e-07
1.08747e-07
1.09376e-07
1.08394e-07
1.08409e-07
1.08833e-07
1.0884e-07
1.08772e-07
1.08894e-07
1.09076e-07
1.09256e-07
1.09745e-07
1.10198e-07
1.10717e-07
1.1154e-07
1.11949e-07
1.12044e-07
1.11832e-07
1.11342e-07
1.10978e-07
1.10846e-07
1.10338e-07
1.10208e-07
1.09757e-07
1.09517e-07
1.09081e-07
1.08893e-07
1.08461e-07
1.08275e-07
1.08185e-07
1.0795e-07
1.08129e-07
1.0806e-07
1.08018e-07
1.08285e-07
1.08056e-07
1.08339e-07
1.08113e-07
1.08003e-07
1.07998e-07
1.07606e-07
1.07459e-07
1.0713e-07
1.07083e-07
1.06944e-07
1.07276e-07
1.07858e-07
1.08645e-07
1.09595e-07
1.10502e-07
1.11205e-07
1.11612e-07
1.11719e-07
1.11654e-07
1.11427e-07
1.11044e-07
1.10731e-07
1.10326e-07
1.10038e-07
1.09773e-07
1.09512e-07
1.09309e-07
1.08945e-07
1.00409e-07
9.94028e-08
9.87777e-08
9.90153e-08
1.00295e-07
1.02599e-07
1.05374e-07
1.08002e-07
1.10033e-07
1.11251e-07
1.11749e-07
1.11716e-07
1.114e-07
1.11029e-07
1.10715e-07
1.10403e-07
1.1008e-07
1.09832e-07
1.09558e-07
1.09352e-07
1.09183e-07
1.09059e-07
1.08975e-07
1.08889e-07
1.08851e-07
1.09377e-07
1.0774e-07
1.08496e-07
1.08711e-07
1.08508e-07
1.08219e-07
1.08131e-07
1.08004e-07
1.07928e-07
1.08551e-07
1.09326e-07
1.10141e-07
1.11302e-07
1.11947e-07
1.1216e-07
1.12072e-07
1.11622e-07
1.11162e-07
1.11009e-07
1.1056e-07
1.10338e-07
1.10037e-07
1.09681e-07
1.09169e-07
1.08958e-07
1.08514e-07
1.08331e-07
1.08183e-07
1.07936e-07
1.08066e-07
1.07911e-07
1.07785e-07
1.07906e-07
1.0751e-07
1.07539e-07
1.06904e-07
1.06481e-07
1.0585e-07
1.04978e-07
1.04239e-07
1.03276e-07
1.02726e-07
1.02498e-07
1.02632e-07
1.03555e-07
1.04922e-07
1.06711e-07
1.08553e-07
1.1012e-07
1.11164e-07
1.11634e-07
1.11706e-07
1.11584e-07
1.11279e-07
1.10959e-07
1.10538e-07
1.10232e-07
1.09956e-07
1.097e-07
1.095e-07
1.09097e-07
9.39299e-08
9.18949e-08
9.04006e-08
9.01528e-08
9.16365e-08
9.48941e-08
9.9172e-08
1.03454e-07
1.07004e-07
1.09416e-07
1.10718e-07
1.1118e-07
1.11115e-07
1.1083e-07
1.10555e-07
1.10256e-07
1.09961e-07
1.09743e-07
1.09505e-07
1.09308e-07
1.0915e-07
1.09028e-07
1.08923e-07
1.088e-07
1.08812e-07
1.0904e-07
1.07606e-07
1.08461e-07
1.07938e-07
1.07484e-07
1.06749e-07
1.06268e-07
1.05966e-07
1.0553e-07
1.06304e-07
1.07513e-07
1.08666e-07
1.10487e-07
1.11741e-07
1.12174e-07
1.12228e-07
1.11873e-07
1.11307e-07
1.11077e-07
1.10437e-07
1.1029e-07
1.09894e-07
1.09611e-07
1.09228e-07
1.08962e-07
1.08551e-07
1.08309e-07
1.08109e-07
1.0786e-07
1.0787e-07
1.07561e-07
1.07253e-07
1.0705e-07
1.06267e-07
1.05768e-07
1.04381e-07
1.03237e-07
1.01524e-07
9.98428e-08
9.81111e-08
9.636e-08
9.50409e-08
9.41938e-08
9.42661e-08
9.54047e-08
9.74501e-08
1.00533e-07
1.04013e-07
1.0726e-07
1.09702e-07
1.11075e-07
1.11603e-07
1.11625e-07
1.11433e-07
1.11155e-07
1.1071e-07
1.10366e-07
1.10046e-07
1.09747e-07
1.09557e-07
1.09186e-07
8.40274e-08
8.04991e-08
7.76856e-08
7.6662e-08
7.82251e-08
8.26735e-08
8.90866e-08
9.58205e-08
1.01682e-07
1.05954e-07
1.08572e-07
1.09879e-07
1.10337e-07
1.10351e-07
1.10234e-07
1.10036e-07
1.09806e-07
1.09607e-07
1.09386e-07
1.09185e-07
1.0902e-07
1.08881e-07
1.0872e-07
1.08506e-07
1.0846e-07
1.08171e-07
1.07451e-07
1.07784e-07
1.06055e-07
1.05388e-07
1.0397e-07
1.03148e-07
1.02356e-07
1.01482e-07
1.02417e-07
1.04128e-07
1.05898e-07
1.08693e-07
1.10902e-07
1.11905e-07
1.12266e-07
1.12056e-07
1.11613e-07
1.11341e-07
1.10681e-07
1.10291e-07
1.09987e-07
1.09698e-07
1.09262e-07
1.08997e-07
1.08483e-07
1.08276e-07
1.0793e-07
1.07625e-07
1.07407e-07
1.06797e-07
1.06108e-07
1.05308e-07
1.03805e-07
1.02366e-07
9.98098e-08
9.75228e-08
9.43731e-08
9.1563e-08
8.8754e-08
8.60888e-08
8.40223e-08
8.26269e-08
8.23333e-08
8.33214e-08
8.58355e-08
8.99099e-08
9.52943e-08
1.0117e-07
1.06154e-07
1.0942e-07
1.11023e-07
1.11534e-07
1.11495e-07
1.11304e-07
1.10883e-07
1.10547e-07
1.10229e-07
1.09891e-07
1.09594e-07
1.09125e-07
6.99657e-08
6.44731e-08
5.98723e-08
5.75817e-08
5.8818e-08
6.42822e-08
7.34199e-08
8.37224e-08
9.3004e-08
1.00093e-07
1.04753e-07
1.07399e-07
1.08657e-07
1.09144e-07
1.09297e-07
1.09293e-07
1.092e-07
1.09096e-07
1.08944e-07
1.08789e-07
1.08629e-07
1.08459e-07
1.08198e-07
1.07812e-07
1.07481e-07
1.06688e-07
1.06702e-07
1.05701e-07
1.02934e-07
1.01918e-07
9.98861e-08
9.84388e-08
9.71254e-08
9.57151e-08
9.65881e-08
9.89414e-08
1.01591e-07
1.05283e-07
1.08809e-07
1.10896e-07
1.11951e-07
1.12027e-07
1.11646e-07
1.11485e-07
1.10825e-07
1.1049e-07
1.10165e-07
1.0975e-07
1.09377e-07
1.08951e-07
1.08477e-07
1.08116e-07
1.07581e-07
1.07102e-07
1.06464e-07
1.05341e-07
1.03983e-07
1.02129e-07
9.94579e-08
9.6481e-08
9.24993e-08
8.87746e-08
8.42486e-08
8.06091e-08
7.67757e-08
7.35728e-08
7.12026e-08
6.9469e-08
6.9297e-08
7.08352e-08
7.38636e-08
7.78486e-08
8.31463e-08
9.02929e-08
9.87881e-08
1.05427e-07
1.09297e-07
1.10995e-07
1.11433e-07
1.11357e-07
1.11011e-07
1.10672e-07
1.10334e-07
1.10029e-07
1.09804e-07
1.09355e-07
5.25482e-08
4.58455e-08
4.09933e-08
3.87476e-08
3.95374e-08
4.4172e-08
5.26401e-08
6.54998e-08
7.96284e-08
9.07972e-08
9.85095e-08
1.03237e-07
1.05825e-07
1.07139e-07
1.07802e-07
1.08133e-07
1.08259e-07
1.0825e-07
1.08174e-07
1.08006e-07
1.07805e-07
1.07541e-07
1.07086e-07
1.06374e-07
1.05523e-07
1.04358e-07
1.04595e-07
1.0164e-07
9.84528e-08
9.69534e-08
9.41837e-08
9.17184e-08
8.95897e-08
8.73529e-08
8.80648e-08
9.12984e-08
9.49793e-08
1.00224e-07
1.05448e-07
1.08929e-07
1.1111e-07
1.11627e-07
1.11632e-07
1.11444e-07
1.10843e-07
1.10369e-07
1.1007e-07
1.09636e-07
1.09299e-07
1.08847e-07
1.08219e-07
1.07685e-07
1.06802e-07
1.06038e-07
1.04721e-07
1.0272e-07
1.0019e-07
9.6682e-08
9.2561e-08
8.78805e-08
8.27055e-08
7.79698e-08
7.28676e-08
6.88575e-08
6.42193e-08
6.0547e-08
5.8217e-08
5.65776e-08
5.69234e-08
5.95798e-08
6.30908e-08
6.73698e-08
7.25172e-08
7.85096e-08
8.67572e-08
9.73506e-08
1.05308e-07
1.09388e-07
1.10938e-07
1.1132e-07
1.11083e-07
1.10762e-07
1.10384e-07
1.10038e-07
1.09726e-07
1.09245e-07
3.55604e-08
2.99238e-08
2.5821e-08
2.3834e-08
2.44643e-08
2.8305e-08
3.47539e-08
4.496e-08
6.00748e-08
7.67239e-08
8.87126e-08
9.63799e-08
1.00875e-07
1.0341e-07
1.04864e-07
1.05751e-07
1.06257e-07
1.06507e-07
1.06591e-07
1.06451e-07
1.06217e-07
1.05842e-07
1.05092e-07
1.03884e-07
1.02384e-07
1.00994e-07
1.00588e-07
9.55833e-08
9.23131e-08
9.00227e-08
8.57179e-08
8.20254e-08
7.83869e-08
7.48945e-08
7.51433e-08
7.91429e-08
8.49149e-08
9.20949e-08
9.99419e-08
1.05389e-07
1.09244e-07
1.10831e-07
1.11203e-07
1.11306e-07
1.10635e-07
1.10108e-07
1.09716e-07
1.09348e-07
1.08952e-07
1.08423e-07
1.07659e-07
1.06905e-07
1.05488e-07
1.04092e-07
1.01689e-07
9.83787e-08
9.41628e-08
8.87215e-08
8.31253e-08
7.70925e-08
7.12669e-08
6.61605e-08
6.08521e-08
5.63014e-08
5.07392e-08
4.66854e-08
4.44663e-08
4.42171e-08
4.63094e-08
5.05418e-08
5.43874e-08
5.85085e-08
6.35866e-08
6.88798e-08
7.55437e-08
8.47523e-08
9.72368e-08
1.05658e-07
1.09491e-07
1.10941e-07
1.11066e-07
1.1081e-07
1.10479e-07
1.10252e-07
1.09999e-07
1.09536e-07
2.29605e-08
1.7987e-08
1.46076e-08
1.31849e-08
1.4022e-08
1.71773e-08
2.18326e-08
2.89095e-08
4.02332e-08
5.68067e-08
7.44756e-08
8.63481e-08
9.35282e-08
9.77768e-08
1.00351e-07
1.01979e-07
1.02976e-07
1.03535e-07
1.03792e-07
1.037e-07
1.0343e-07
1.02862e-07
1.01723e-07
9.99469e-08
9.78352e-08
9.60881e-08
9.41689e-08
8.73342e-08
8.37361e-08
7.99089e-08
7.3182e-08
6.77465e-08
6.31193e-08
5.96868e-08
5.93777e-08
6.29725e-08
6.99962e-08
7.99717e-08
9.08147e-08
9.93371e-08
1.05716e-07
1.08864e-07
1.10596e-07