/*--------------------------------*- C++ -*----------------------------------*\
| =========                 |                                                 |
| \\      /  F ield         | OpenFOAM: The Open Source CFD Toolbox           |
|  \\    /   O peration     | Version:  v1912                                 |
|   \\  /    A nd           | Website:  www.openfoam.com                      |
|    \\/     M anipulation  |                                                 |
\*---------------------------------------------------------------------------*/
FoamFile
{
    version     2.0;
    format      ascii;
    class       volScalarField;
    location    "30";
    object      p_rgh;
}
// * * * * * * * * * * * * * * * * * * * * * * * * * * * * * * * * * * * * * //

dimensions      [1 -1 -2 0 0 0 0];


internalField   nonuniform List<scalar> 
114144
(
227952
241483
239172
224608
198820
164994
125638
82351
36019
-12931.3
-64287.2
-117833
-173560
-231334
-290796
-351245
-411538
-470071
-524842
-573606
-614102
-644339
-662832
-669241
-662217
-643540
-614889
-578373
-536073
-489780
-440768
-389660
-336433
-280530
-221090
-157228
-88354.6
-14471.6
63626.7
144199
224675
302031
373070
434798
484803
521536
544507
554103
554127
534148
512349
483073
448831
410474
368671
323675
275522
224232
169999
113347
55235.7
-2982.79
-59555.4
-112768
-160843
-202297
-236070
-261621
-278913
-288411
-290998
-289868
-285409
-278226
-252932
-237152
-217412
-197132
-175664
-153441
-130727
-107905
-85401.1
-63660.4
-43096.5
-24034.6
-6737.8
8993.23
22895.7
35299.6
46459
56643
66063.9
74838.7
82964.1
90312.6
96651.6
101676
105079
106551
106028
103863
97820.5
90650.6
81547
71204.9
59945.8
48241.7
36506.6
25120.8
14389.4
4569.69
-4204.16
-11744.3
-18065.4
-23154.7
-27058.1
-29841.5
-31592
-32422.4
-32415.8
-31870.1
-30962.6
-29587
-27806.5
-25609.3
-23370
-20205
-17802.5
-15204.1
-12791.3
-10448.6
-8242.39
-6182.86
-4301.68
-2628.64
-1191.83
-19.5268
887.839
1530.21
1918.66
2091.39
2129.12
2111.1
2080.01
2104.06
2203.21
2441.1
2824.51
3336.96
3936.2
4564.23
5145.12
5611.82
5897.88
5953.5
5762.22
5285.3
4601.05
3647.96
2583.63
1409.27
178.131
-994.215
-2154.79
-3145.58
-4013.61
-4693.43
-5187.81
-5472.89
-5566.15
-5465.08
-5190.94
-4751.5
-4162.45
-3477.59
-2717.21
-1902.07
-1075.43
-261.6
559.073
1313.88
1999.57
2608.23
3131.37
3567.05
3915.25
4178.77
4361.09
4468.21
4506.72
4482.55
4398.76
4259.16
4067.47
3827.31
3542.47
3217.22
2856.51
2466.18
2052.9
1623.75
1186.18
747.275
313.051
-113.448
-525.362
-921.939
-1302.19
-1665.66
-2011.97
-2340.22
-2648.46
-2933.53
-3190.87
-3414.63
-3598.63
-3737.11
-3825.28
-3859.2
-3835.69
-3755.29
-3618.92
-3429.22
-3189.87
-2905.15
-2579.63
-2218.09
-1825.15
-1405.44
-963.686
-505.147
-34.9961
447.713
927.113
1398.76
1855.55
2289.44
2692.25
3056.1
3373.97
3639.79
3848.49
3996.03
4079.81
4098.4
4054.27
3948.11
3785.62
3568.55
152613
166663
166474
161005
145476
121523
91381
56701.9
18538.5
-22476.1
-65919.6
-111219
-158244
-206683
-256111
-305870
-355001
-402235
-446039
-484735
-516661
-540372
-554806
-559869
-554091
-538786
-515399
-485514
-450600
-411925
-370404
-326528
-280372
-231686
-180041
-125020
-66420.4
-4455.12
60217.9
125971
191002
253047
309790
359081
399191
429009
448175
456953
458027
442146
425521
402144
374183
342300
307115
268986
228147
184823
139354
92285.7
44441.9
-3068.73
-49091.7
-92223.6
-131227
-165034
-192882
-214374
-229526
-238737
-242615
-242832
-241007
-236838
-215125
-202624
-186236
-169310
-151257
-132515
-113330
-94034.6
-74969
-56474.8
-38860.8
-22370.4
-7128.96
6669.97
19175.3
30442.3
40628.7
49896.6
58371.8
66118.3
73121.8
79286.6
84448.8
88396.5
90925.8
91818.5
91111.6
89101.7
83707.2
77534.4
69762.5
60994.7
51465.9
41556.4
31597.9
21901.5
12721
4272.76
-3286.35
-9849.64
-15378.1
-19859.4
-23325.8
-25828.3
-27437.9
-28249
-28351.2
-27916.3
-27231.9
-26131
-24647.2
-22762.9
-20813.1
-17986
-15858.7
-13537.6
-11385.3
-9294.11
-7328.98
-5500.08
-3835.44
-2358.65
-1090.76
-43.6471
767.592
1356.74
1746.1
1968.34
2084.68
2150.35
2213.34
2314.33
2476.75
2737.1
3099.79
3548.52
4046.77
4546.86
4987.68
5313.12
5470.61
5421.33
5155.19
4639.74
3944.63
3019.19
2001.75
893.37
-261.072
-1352.77
-2432.59
-3348.3
-4147.99
-4768.17
-5210.82
-5455.74
-5519.34
-5394.94
-5104.94
-4657.39
-4066.72
-3382.61
-2628.56
-1822.3
-1006.21
-202.66
607.007
1352.73
2030.41
2632.58
3150.67
3582.59
3928.08
4189.7
4371.1
4477.38
4514.63
4490.31
4406.16
4266.22
4074.14
3833.5
3548.07
3222.09
2860.51
2469.22
2054.9
1624.69
1186.12
746.328
311.381
-115.567
-527.789
-924.524
-1304.84
-1668.37
-2014.81
-2343.32
-2652
-2937.68
-3195.78
-3420.37
-3605.18
-3744.36
-3833.06
-3867.31
-3843.87
-3763.33
-3626.63
-3436.46
-3196.55
-2911.22
-2585.09
-2222.93
-1829.38
-1409.04
-966.628
-507.372
-36.421
447.242
927.639
1400.37
1858.33
2293.41
2697.39
3062.35
3381.2
3647.85
3857.18
4005.12
4089.06
4107.66
4063.11
3956.28
3792.6
3573.4
100611
110135
110387
108393
99746.5
83715
61534.1
34556.9
3807.45
-30004.5
-66260.6
-104264
-143621
-183969
-224876
-265753
-305812
-344055
-379315
-410335
-435885
-454902
-466602
-471175
-466825
-455720
-438120
-414831
-386815
-354955
-319934
-282177
-241847
-198897
-153165
-104496
-52880
1411.53
57697.2
114788
171095
224826
274121
317232
352718
379607
397519
406551
408717
395796
382244
362313
337918
309642
278072
243601
206529
167147
125835
83123.4
39763.7
-3282.25
-44962.5
-84110.3
-119636
-150603
-176325
-196424
-210850
-219878
-224096
-224653
-223254
-219941
-200316
-188960
-173950
-158337
-141634
-124247
-106421
-88462.3
-70686.9
-53405.8
-36900.4
-21394.2
-7046.47
6134.99
18040.1
28806.2
38557
47427.8
55520.9
62886.3
69506.5
75294.4
80104.1
83747.9
86048.1
86810.5
86094.6
84136.1
79006.2
73160.5
65824.8
57558.1
48577
39233.4
29836
20675.5
11989
3987.65
-3212.49
-9442.47
-14706.6
-18981.7
-22297.1
-24698.8
-26253.2
-27047.1
-27168.9
-26762.9
-26109.6
-25079
-23673.8
-21882.9
-20002.9
-17304.7
-15250
-13016.8
-10940.4
-8923.67
-7027.71
-5263.6
-3658.24
-2234.64
-1012.07
-6.84233
778.716
1359.78
1742.66
1965.61
2086.14
2163.7
2237.83
2348.57
2519.99
2784.21
3144.81
3585.65
4070.18
4554.34
4973.8
5278.45
5415.78
5348.98
5068.14
4540.67
3841.43
2911.28
1893.48
787.346
-362.464
-1448.38
-2520.67
-3428.76
-4220.08
-4832.49
-5266.48
-5505.47
-5558.34
-5427.02
-5130.07
-4674.77
-4077.82
-3388.93
-2628.49
-1816.38
-995.381
-186.877
625.897
1374.86
2054.41
2657.66
3176.02
3607.53
3952.03
4212.15
4391.8
4496.71
4533.62
4507.37
4421.99
4280.91
4087.71
3845.87
3559.1
3231.6
2868.28
2475.03
2058.63
1626.33
1185.76
744.198
307.817
-120.003
-532.816
-929.836
-1310.26
-1673.88
-2020.55
-2349.57
-2659.11
-2946.02
-3205.62
-3431.87
-3618.31
-3758.9
-3848.68
-3883.58
-3860.3
-3779.46
-3642.08
-3450.96
-3209.91
-2923.37
-2596
-2232.61
-1837.84
-1416.26
-972.53
-511.838
-39.2921
446.283
928.67
1403.59
1863.86
2301.32
2707.66
3074.84
3395.68
3663.98
3874.57
4023.32
4107.57
4125.82
4080.61
3972.55
3806.88
3585.37
60516.9
65347.3
65507.7
64617.3
60042.7
49960.2
34498.4
14457.4
-9354.74
-36316.9
-66070.9
-97489.1
-130040
-163384
-197102
-230671
-263440
-294628
-323346
-348652
-369625
-385463
-395548
-400322
-397402
-388887
-374906
-356006
-332826
-305975
-275956
-243122
-207678
-169710
-129245
-86329
-41107.1
6081.46
54691.4
103541
151423
196929
238627
275165
305422
328623
344427
352840
355251
344910
333889
317099
296123
271468
243676
213167
180308
145463
109057
71612.8
33803.5
-3559.12
-39618.2
-73442.7
-104172
-131070
-153589
-171423
-184527
-193114
-197624
-198836
-197830
-195665
-178840
-168999
-155865
-142086
-127288
-111851
-96007.5
-80033.5
-64200.3
-48767.1
-33964.1
-19974.4
-6924.47
5130.8
16102.2
26077.4
35132.7
43354.3
50803.2
57503.3
63431.2
68514.8
72641.7
75671.1
77476.7
77911.4
77103.8
75180.6
70441
65146.6
58571
51205.9
43228.7
34938.7
26598.4
18457.8
10721.4
3576.71
-2870.34
-8459.48
-13197
-17056.5
-20062
-22251.8
-23684
-24434.6
-24588.8
-24247.7
-23663.9
-22786.1
-21549.9
-19952.9
-18232.4
-15785.5
-13896.4
-11850.1
-9943.66
-8094.3
-6358.29
-4747.28
-3285.41
-1991.9
-881.899
36.0657
761.599
1300.96
1678.35
1920.99
2079.71
2200.92
2323.81
2478
2683.68
2960.23
3307.77
3709.55
4131.03
4537.2
4867.17
5080.81
5132.92
4994.42
4658.63
4099.47
3384.57
2464.84
1470.31
401.221
-702.585
-1738.88
-2758.33
-3616.99
-4361.12
-4931.75
-5329.82
-5537.04
-5566.07
-5414.28
-5101.61
-4636.12
-4032.1
-3337.7
-2575.56
-1763.55
-944.204
-136.702
672.628
1419.89
2097.07
2698.1
3214.28
3643.69
3986.17
4244.42
4422.27
4525.29
4559.53
4532.21
4445.34
4302.81
4108.08
3864.54
3575.79
3245.98
2880.02
2483.82
2064.26
1628.77
1185.18
740.942
302.394
-126.733
-540.415
-937.832
-1318.38
-1682.1
-2029.1
-2358.88
-2669.72
-2958.48
-3220.37
-3449.14
-3638.04
-3780.77
-3872.17
-3908.04
-3884.97
-3803.7
-3665.3
-3472.74
-3229.98
-2941.6
-2612.37
-2247.14
-1850.54
-1427.09
-981.401
-518.565
-43.6398
444.81
930.184
1408.39
1872.16
2313.21
2723.09
3093.62
3417.46
3688.26
3900.76
4050.73
4135.45
4153.46
4107.12
3997.2
3828.7
3603.76
35837.4
37650.6
37502.2
36865.1
34115.6
27489.5
16459.2
1275.31
-17558.7
-39568.3
-64720.2
-91117.3
-118410
-146301
-174400
-202248
-229299
-254929
-278451
-299151
-316338
-329410
-337898
-342448
-340257
-333622
-322427
-306981
-287680
-264927
-239082
-210438
-179215
-145584
-109697
-71728.3
-31920.9
9358.07
51735
93950.3
135119
174128
209859
241255
267424
287728
301849
309716
312258
304123
295023
280728
262506
240807
216126
188890
159495
128340
95865.2
62571.6
29065.9
-3954.08
-35777.5
-65625.5
-92799.3
-116693
-136852
-153008
-165101
-173274
-177866
-179437
-178651
-177002
-162644
-153845
-142147
-129747
-116387
-102411
-88044.2
-73537.7
-59133.1
-45056.6
-31507.5
-18644.3
-6593.75
4658.08
14891.9
24235
32731.4
40440.4
47399.4
53617.4
59067.8
63687.4
67382.7
70039.7
71560.3
71825.7
70990.1
69106.7
64660.9
59736.8
53666.6
46889.7
39563.7
31954.7
24297.8
16817.9
9698.03
3115.27
-2855.7
-8017.59
-12404.3
-15984.1
-18778.4
-20820.4
-22163
-22874.2
-23033.6
-22730.3
-22163.1
-21363.5
-20221.1
-18741.5
-17105.3
-14832.6
-13038.5
-11110.4
-9306.05
-7557.72
-5916.04
-4393.87
-3013.74
-1793.82
-747.104
116.812
803.221
1319.91
1681.77
1924.53
2089.33
2221.88
2358.05
2525.14
2742.21
3024.34
3369.95
3761.58
4165.65
4550.36
4851.26
5035.25
5057.34
4891.58
4531.29
3952.22
3225.92
2295.61
1296.82
227.488
-872.21
-1902.09
-2911.39
-3759.25
-4490.9
-5049.05
-5432.51
-5627.54
-5642.95
-5479.08
-5154.01
-4675.35
-4059.68
-3353.81
-2579.28
-1755.69
-926.315
-108.589
707.418
1461.49
2142.84
2746.42
3263.47
3692.33
4033.06
4288.74
4463.65
4564.01
4596.6
4566.12
4476.96
4332.25
4135.35
3889.48
3598.09
3265.23
2895.73
2495.55
2071.76
1631.98
1184.32
736.48
295.02
-135.839
-550.661
-948.563
-1329.23
-1693.04
-2040.43
-2371.19
-2683.77
-2975
-3239.99
-3472.18
-3664.44
-3810.07
-3903.67
-3940.87
-3918.11
-3836.2
-3696.39
-3501.86
-3256.79
-2965.93
-2634.21
-2266.52
-1867.49
-1441.57
-993.281
-527.605
-49.5219
442.776
932.128
1414.73
1883.17
2329.04
2743.69
3118.71
3446.57
3720.74
3935.8
4087.41
4172.76
4190.35
4142.61
4030.28
3858.15
3628.94
22773.6
22945.3
22442.6
21515.3
18965.2
13684.6
5048.49
-7040.98
-22381.5
-40683.1
-62519.6
-84975.4
-108034
-131500
-155038
-178249
-200678
-221825
-241155
-258129
-272229
-283011
-290123
-294335
-292598
-287305
-278194
-265412
-249185
-229762
-207394
-182316
-154752
-124926
-93075.5
-59464.7
-24402.7
11728.6
48768.4
85280.1
120677
154082
184630
211507
234014
251635
264079
271228
273606
267447
259755
247517
231643
212529
190623
166347
140117
112354
83506.1
54052.9
24539.6
-4443.21
-32304.3
-58405.7
-82196.2
-103192
-121028
-135481
-146487
-154141
-158680
-160491
-159946
-158610
-146614
-138778
-128443
-117365
-105395
-92846.4
-79931.5
-66878.3
-53898.8
-41185.9
-28906.8
-17194.8
-6171.68
4239.44
13686.4
22350
30240.8
37391.5
43814.8
49504.6
54430.5
58538.1
61753.7
63990.8
65181.5
65236.9
64350.5
62480.8
58320.4
53774.4
48233.4
42083
35460
28595.2
21693
14950.4
8525.64
2582.27
-2852.31
-7505.63
-11477
-14721.2
-17257.3
-19113.8
-20338
-20990.7
-21144.2
-20877.7
-20325.9
-19609.5
-18574.9
-17231.3
-15696.5
-13627.6
-11951
-10166.6
-8489.34
-6867.73
-5346.37
-3939.11
-2666.45
-1544.25
-583.107
211.054
841.078
1329.77
1681.8
1923.65
2101.96
2254.36
2415.42
2606.13
2842.12
3131.81
3470.58
3839.96
4207.93
4545.44
4789.04
4913.99
4878.17
4661.05
4257.42
3648.57
2902.89
1967.77
974.537
-79.771
-1156.38
-2159.64
-3136.94
-3954.05
-4653.8
-5183.36
-5539.56
-5712.73
-5704.46
-5521.06
-5178.96
-4686.27
-4058
-3340.57
-2556.33
-1724.27
-887.977
-62.6625
757.266
1516.33
2200.42
2805.54
3322.83
3750.82
4089.71
4342.71
4514.55
4611.93
4641.21
4608.08
4516.26
4369
4169.5
3920.77
3626.09
3289.4
2915.45
2510.28
2081.14
1635.92
1183.11
730.719
285.594
-147.438
-563.653
-962.075
-1342.78
-1706.61
-2054.43
-2386.39
-2701.13
-2995.52
-3264.45
-3500.99
-3697.53
-3846.87
-3943.28
-3982.14
-3959.72
-3877.02
-3735.42
-3538.37
-3290.36
-2996.37
-2661.51
-2290.75
-1888.7
-1459.72
-1008.2
-539.003
-57.0048
440.126
934.446
1422.56
1896.89
2348.82
2769.48
3150.18
3483.11
3761.53
3979.82
4133.51
4219.68
4236.76
4187.25
4071.91
3895.42
3660.96
14685.2
14218
13588.4
12351.4
9788.12
5174.71
-2022.81
-12042.4
-24910
-40767.2
-59813.4
-79054
-98651.9
-118492
-138293
-157710
-176366
-193858
-209772
-223698
-235254
-244116
-250030
-253811
-252349
-248039
-240535
-229868
-216139
-199482
-180060
-158058
-133694
-107224
-78940.1
-49170.1
-18266
13382.6
45876.9
77524.5
108014
136658
162796
185804
205142
220396
231304
237718
239865
235322
228738
218202
204324
187446
167974
146317
122898
98147.2
72509
46440.2
20425.1
-5034.04
-29442.9
-52282.2
-73123
-91581.9
-107365
-120289
-130285
-137406
-141808
-143750
-143424
-142225
-132326
-125313
-116167
-106249
-95502.5
-84209.9
-72574.3
-60801.5
-49078.2
-37569.5
-26415.6
-15727.7
-5610.34
4024.98
12740.2
20769.9
28094.8
34727.1
40660.9
45878.3
50346.3
54017.2
56832.4
58726.7
59654.3
59550.7
58630.4
56780.1
52868.1
48640.9
43543.8
37916.2
31879.2
25635.1
19363.9
13239.4
7399.84
1997.94
-2954.12
-7201.22
-10816
-13769.7
-16079.2
-17770.3
-18885.1
-19478.5
-19615.1
-19367.5
-18831.6
-18162.4
-17208.7
-15972.7
-14514.2
-12618.5
-11036.1
-9370.46
-7795.94
-6276.65
-4851.3
-3534.87
-2346.33
-1300.4
-405.681
332.114
927.845
1377.02
1706.55
1941.36
2119.84
2277.39
2448.54
2650.23
2896.87
3193.04
3532.06
3894.63
4248.76
4568.07
4782.87
4878.37
4810.63
4562.62
4128.9
3494.17
2729.38
1776.04
771.854
-289.054
-1366.38
-2367.11
-3336.14
-4143.59
-4830.64
-5346.5
-5686.95
-5841.55
-5819.64
-5620.39
-5261.55
-4751.18
-4105.79
-3370.67
-2568.05
-1718.53
-866.583
-25.2953
805.629
1575.48
2266.54
2876.08
3395.14
3822.7
4159.35
4408.86
4576.59
4669.94
4695.82
4658.76
4563.58
4413.2
4210.57
3958.43
3659.85
3318.56
2939.26
2528.03
2092.37
1640.53
1181.43
723.517
273.992
-161.73
-579.538
-978.444
-1359.07
-1722.8
-2071.02
-2404.36
-2721.7
-3019.93
-3293.69
-3535.61
-3737.44
-3891.35
-3991.2
-4032.11
-4010.1
-3926.36
-3782.52
-3582.36
-3330.73
-3032.94
-2694.29
-2319.84
-1914.18
-1481.56
-1026.2
-552.83
-66.1821
436.785
937.05
1431.81
1913.27
2372.55
2800.49
3188.07
3527.17
3810.75
4032.97
4189.19
4276.34
4292.82
4241.19
4122.26
3940.64
3699.99
9398.61
8766.14
7991.03
6586.83
4062.13
-90.8812
-6302.8
-14853.6
-25924.7
-40400.2
-56812.8
-73347.3
-90073.9
-106909
-123612
-139893
-155437
-169920
-183022
-194436
-203884
-211133
-216011
-219323
-218029
-214455
-208209
-199245
-187572
-173238
-156335
-137004
-115451
-91948
-66826
-40454.5
-13215
14490.2
43090.6
70542.8
96815.9
121366
143698
163345
179897
193027
202504
208169
210055
206739
201050
191926
179753
164823
147500
128179
107281
85239
62487.9
39459
16580.9
-5710.69
-27021.4
-46924.7
-65096.7
-81241.5
-95129.9
-106612
-115621
-122176
-126369
-128360
-128229
-127077
-119020
-112747
-104665
-95797.3
-86166.1
-76024.8
-65566.6
-54977.2
-44420.4
-34035.7
-23938.2
-14220.8
-4999.29
3932.53
11924.8
19328.3
26092
32210.4
37661
42415.4
46438
49687.1
52117.3
53682.2
54355.5
54095.2
53137.2
51292.9
47601.5
43664.5
38977.1
33836.7
28350.7
22695.4
17027.9
11500
6230.77
1361.7
-3108.89
-6959.84
-10211.1
-12866.3
-14939.1
-16453.2
-17446.7
-17968.6
-18076.6
-17836.1
-17315.4
-16678.3
-15799.6
-14666.3
-13282
-11557.7
-10071.4
-8525.66
-7056.42
-5642.33
-4316.62
-3095.16
-1995.48
-1030.82
-208.609
467.949
1015.92
1432.03
1739.83
1963.5
2140.4
2304.05
2486.62
2700.83
2959.15
3261.88
3599.62
3948.42
4290.56
4581.41
4760.87
4816.96
4708.28
4420.49
3948.88
3283.03
2493.8
1522.4
509.201
-554.297
-1626.27
-2617.7
-3570.2
-4360.29
-5026.45
-5522.39
-5840.12
-5979.67
-5933.81
-5714.69
-5336.5
-4807.65
-4144
-3390.62
-2570.27
-1703.91
-836.719
20.6553
862.551
1643.52
2341.94
2956.3
3477.48
3904.85
4239.26
4484.99
4648.2
4737.04
4758.99
4717.68
4618.7
4464.79
4258.59
4002.54
3699.45
3352.81
2967.23
2548.86
2105.47
1645.76
1179.19
714.724
260.058
-178.944
-598.478
-997.749
-1378.08
-1741.5
-2090.05
-2424.92
-2745.31
-3048.1
-3327.66
-3576.05
-3784.23
-3943.64
-4047.62
-4090.96
-4069.39
-3984.38
-3837.81
-3633.91
-3377.96
-3075.65
-2732.54
-2353.79
-1943.95
-1507.13
-1047.35
-569.158
-77.1645
432.659
939.838
1442.41
1932.25
2400.21
2836.75
3232.48
3578.87
3868.55
4095.43
4254.64
4342.97
4358.75
4304.65
4181.52
3993.98
3746.17
5853.63
5180.71
4302.5
2838.06
415.784
-3348.53
-8812.35
-16276.3
-26111.9
-39280.1
-53557
-67836.8
-82163.8
-96485.8
-110602
-124268
-137223
-149210
-159982
-169312
-177003
-182897
-186883
-189721
-188529
-185515
-180273
-172700
-162742
-150383
-135653
-118656
-99581.4
-78710.1
-56396.4
-33038
-9036.53
15178.2
40435.5
64254.9
86886.3
107905
126942
143663
157763
168990
177148
182079
183708
181253
176309
168364
157654
144424
129001
111764
93126.8
73517.9
53360
33056.9
12988.9
-6472.39
-25007.6
-42279.8
-58051.2
-72101
-84255.7
-94396.4
-102461
-108442
-112380
-114360
-114399
-113254
-106769
-101165
-94023.3
-86100.6
-77474.9
-68376.8
-58988.7
-49478.2
-39988.1
-30635.4
-21510.4
-12687.2
-4205.51
3963.07
11259.2
18060.2
24284.1
29909.5
34900
39218.4
42827
45688.8
47769.6
49038.4
49484.9
49086.7
48094.7
46253.7
42755.6
39075
34750.5
30043.3
25049
19921.6
14798.1
9810.52
5059.32
680.509
-3356.43
-6830.88
-9740.08
-12113.8
-13960.5
-15303.2
-16175.8
-16622.6
-16694.7
-16451.2
-15944.4
-15322.6
-14505.6
-13460.9
-12140.5
-10570.7
-9171.66
-7734.17
-6359.99
-5040.43
-3803.93
-2667.14
-1646.5
-754.207
3.72109
626.803
1130.24
1507.57
1788.31
1995.73
2165.2
2324.79
2511.73
2733.3
3000.87
3311.48
3653.57
4002.26
4336.62
4616.48
4777.02
4806.04
4668.16
4349.03
3843.89
3146.58
2330.42
1331.82
298.771
-780.563
-1861.12
-2856.93
-3806.05
-4590.22
-5245.87
-5729.39
-6031.69
-6150.11
-6089.53
-5851.73
-5453.07
-4902.25
-4215.99
-3438.7
-2593.68
-1703.57
-814.472
65.6173
923.6
1719.71
2428.36
3049.35
3573.4
4000.54
4332.09
4573.14
4730.89
4814.01
4831.51
4784.96
4681.64
4523.76
4313.59
4053.18
3744.99
3392.26
2999.46
2572.82
2120.43
1651.52
1176.22
704.127
243.526
-199.293
-620.662
-1020.12
-1399.8
-1762.64
-2111.38
-2447.89
-2771.76
-3079.88
-3366.28
-3622.33
-3838.06
-4003.98
-4112.83
-4159.01
-4137.91
-4051.32
-3901.48
-3693.12
-3432.08
-3124.51
-2776.25
-2392.6
-1978.03
-1536.47
-1071.71
-588.081
-90.0809
427.631
942.675
1454.26
1953.79
2431.78
2878.29
3283.48
3638.35
3935.12
4167.41
4330.08
4419.79
4434.77
4377.83
4249.87
4055.6
3799.62
3432.17
2729.01
1802.44
348.066
-1930.63
-5344.26
-10209.2
-16862.1
-26112.6
-37709.9
-50136.8
-62515.2
-74821
-87025.8
-98964.9
-110435
-121224
-131126
-139956
-147551
-153774
-158525
-161745
-164134
-162998
-160421
-155990
-149569
-141059
-130392
-117551
-102605
-85725
-67193.4
-47378.3
-26695.3
-5558.03
15563.7
37925.8
58585.4
78059.4
96016.1
112191
126352
138285
147803
154745
158966
160350
158433
154113
147157
137704
125960
112219
96844.2
80238.4
62820.5
44998.6
27149.1
9608.88
-7309.58
-23344.7
-38243.8
-51841
-63980.2
-74537.1
-83421.8
-90578
-95979.5
-99626.9
-101548
-101719
-100597
-95409.4
-90416.4
-84108.2
-77037.1
-69322
-61173.9
-52764.3
-44244.3
-35738.1
-27341.7
-19123.8
-11138
-3336.39
4073.28
10711
16930.5
22631.1
27778.7
32325.4
36226.3
39441.7
41938.9
43692.9
44685.9
44920.9
44393.2
43367.1
41520.8
38189.5
34736.3
30737
26421.8
21875.7
17233.6
12614.4
8131.31
3870.72
-45.1343
-3666.57
-6782.27
-9355.55
-11451.1
-13071.9
-14240.1
-14986.2
-15350.3
-15377.9
-15121.4
-14625
-14006.6
-13241.8
-12276.9
-11014.7
-9589.22
-8275.04
-6940.52
-5658.11
-4429.68
-3279.66
-2225.24
-1282
-461.225
230.716
792.783
1253.47
1594.22
1845.69
2032.65
2189.68
2344.25
2534.04
2761.5
3037.85
3356.75
3702.07
4056.1
4385.09
4649.97
4794.58
4795.67
4627.85
4275.34
3733.78
3001.66
2154.27
1125.88
70.1922
-1027.24
-2117.38
-3117.89
-4062.45
-4839.19
-5481.97
-5951.12
-6233.43
-6338.98
-6255.47
-5996.63
-5575.66
-5001.71
-4291.25
-3488.52
-2617.69
-1702.57
-790.072
115.296
991.051
1803.85
2524.16
3152.84
3680.43
4107.6
4436.07
4671.87
4823.6
4900.83
4912.26
4860.4
4752.34
4590.12
4375.6
4110.42
3796.6
3437.04
3036.07
2599.99
2137.26
1657.74
1172.36
691.49
224.096
-223.038
-646.306
-1045.7
-1424.24
-1786.09
-2134.78
-2472.99
-2800.79
-3115.09
-3409.45
-3674.47
-3899.04
-4072.6
-4187.12
-4236.56
-4215.94
-4127.44
-3973.71
-3760.12
-3493.16
-3179.53
-2825.41
-2436.24
-2016.41
-1569.62
-1099.35
-609.694
-105.067
421.545
945.397
1467.22
1977.81
2467.26
2925.18
3341.19
3705.77
4010.68
4249.16
4415.81
4507.1
4521.18
4461.01
4327.56
4125.71
3860.5
1738.05
1012.56
74.2693
-1328.32
-3443.48
-6539.11
-10920.4
-17021.8
-25698.7
-35815.3
-46598.9
-57373.9
-67967.2
-78375.3
-88469.7
-98085.1
-107050
-115205
-122411
-128554
-133548
-137337
-139903
-141886
-140775
-138542
-134775
-129320
-122043
-112838
-101650
-88515
-73585.5
-57139.3
-39551.8
-21247.2
-2640.15
15794.4
35561.4
53459.8
70194.5
85491.9
99171.2
111088
121102
129081
134903
138440
139585
137944
134147
128017
119645
109202
96955
83246.3
68468.1
53026.6
37312.8
21676.1
6414.2
-8213.09
-21991.1
-34744.4
-46367.3
-56760
-65841.7
-73549.4
-79834.7
-84658.7
-87991.9
-89817.2
-90079.1
-89020.7
-84872.8
-80438.9
-74867.2
-68564.1
-61673.5
-54390.2
-46875.2
-39264.5
-31665.3
-24155.5
-16784.1
-9589.72
-2490.44
4215.18
10268.4
15930.6
21127.4
25815
29936.5
33440.4
36285.2
38441.5
39892.2
40630.6
40670.4
40022.5
38963.1
37104.2
33915.2
30662.3
26952
22988.3
18847.2
14647.3
10491
6474.72
2673.66
-812.89
-4039.54
-6815.05
-9063.41
-10889.6
-12289.3
-13284.4
-13902.3
-14179.2
-14155.8
-13878.6
-13387.8
-12766.7
-12042.8
-11146.5
-9940.09
-8644.11
-7410.36
-6170.85
-4974.22
-3830.47
-2760.86
-1782.91
-911.627
-157.384
473.716
987.685
1397.29
1695.24
1913.11
2074.99
2215.14
2358.31
2546.52
2777.74
3062.64
3391.74
3743.58
4110
4441.1
4704.96
4841.34
4818.47
4627.2
4244.35
3666.43
2896.6
2013.49
948.834
-138.082
-1262.81
-2371.53
-3385.2
-4332.87
-5108.69
-5744.52
-6203.59
-6470.09
-6555.34
-6455.15
-6175.27
-5730.3
-5130.02
-4391.29
-3558.04
-2655.69
-1710.07
-769.031
168.128
1065.53
1897.9
2632.19
3269.88
3801.46
4228.39
4552.96
4782.44
4927.02
4998.05
5001.25
4943.87
4830.73
4663.84
4444.69
4174.39
3854.42
3487.32
3077.22
2630.48
2155.96
1664.31
1167.38
676.515
201.407
-250.512
-675.662
-1074.65
-1451.44
-1811.73
-2160.05
-2499.95
-2832.13
-3153.49
-3457.07
-3732.52
-3967.39
-4149.81
-4270.91
-4324.07
-4303.91
-4213.06
-4054.72
-3835.03
-3561.24
-3240.7
-2880.01
-2484.71
-2059.11
-1606.63
-1130.36
-634.104
-122.229
414.162
947.798
1481.16
2004.21
2506.6
2977.42
3405.7
3781.3
4095.43
4340.93
4512.1
4605.18
4618.24
4554.45
4414.83
4204.51
3928.97
524.59
-214.349
-1140.36
-2467.63
-4414.16
-7226.81
-11233.3
-17091.9
-24903.6
-33678.2
-42903.7
-52405
-61541
-70412.2
-78932.8
-86973.2
-94397.3
-101082
-106927
-111856
-115821
-118800
-120809
-122443
-121333
-119375
-116158
-111517
-105299
-97367
-87634.2
-76105.8
-62915.5
-48333.8
-32737.3
-16551.3
-178.971
15996.2
33352.3
48812.5
63172.7
76159.4
87660.1
97603.9
105914
112507
117293
120170
121068
119513
116139
110695
103251
93948.2
83028.3
70814.6
57684.8
44030.1
30223.1
16586.6
3382.97
-9174.35
-20909.4
-31716.8
-41541.3
-50332.6
-58048
-64650.5
-70101
-74353.1
-77354.6
-79054.4
-79373.6
-78415
-75080
-71155.7
-66235.4
-60625.1
-54482
-47987.2
-41291
-34516.1
-27754.8
-21068.5
-14489.6
-8040.38
-1607.8
4426.6
9922.02
15047.1
19757.7
24001.7
27715
30840.5
33334.5
35170.8
36338.7
36840.5
36698.8
35939.4
34842.5
32964.2
29894
26815.7
23360.7
19711.8
15936.7
12140.9
8411.55
4829.82
1460.15
-1616.96
-4469.44
-6919.14
-8849.83
-10412.3
-11593.4
-12414.8
-12901.3
-13086
-13004.9
-12699
-12205.8
-11582.2
-10886.9
-10052.5
-8893.28
-7717.5
-6561.12
-5410.33
-4295.29
-3231.67
-2238.43
-1333.2
-530.713
158.864
728.972
1187.93
1550.08
1806.69
1988.43
2121.1
2239.9
2369.02
2551.78
2785.29
3078.74
3418.87
3785.42
4164
4501.39
4761.2
4897.63
4858.31
4642.36
4230.21
3614.52
2803.58
1879.76
776.085
-348.515
-1506.08
-2637.87
-3668.23
-4621.01
-5397.05
-6026.27
-6475.42
-6722.23
-6794.45
-6672.98
-6370.46
-5899.8
-5271.58
-4502.41
-3636.11
-2699.64
-1720.95
-749.434
225.747
1146.75
2000.59
2750.95
3398.91
3935.13
4361.84
4681.98
4904.28
5040.55
5105.02
5099.19
5035.36
4916.74
4744.94
4520.92
4245.19
3918.63
3543.3
3123.08
2664.39
2176.55
1671.12
1161.06
658.87
175.024
-282.096
-709.036
-1107.14
-1481.42
-1839.35
-2186.85
-2528.38
-2865.39
-3194.8
-3509
-3796.48
-4043.26
-4235.92
-4364.56
-4421.92
-4402.12
-4308.49
-4144.77
-3918
-3636.37
-3308.01
-2939.98
-2537.97
-2106.13
-1647.54
-1164.82
-661.412
-141.487
405.006
949.629
1495.92
2032.91
2549.8
3035.11
3477.18
3865.18
4189.69
4443.11
4619.36
4714.45
4726.46
4658.5
4511.98
4292.22
4005.2
-366.997
-1111.33
-2008.96
-3248.64
-5031.58
-7602.2
-11371.3
-16937.3
-23821.3
-31409.3
-39382.4
-47642.6
-55496
-63036.3
-70204.6
-76900.7
-83018.6
-88465.3
-93169.1
-97083.9
-100190
-102491
-104030
-105376
-104251
-102515
-99753.9
-95803.4
-90498.7
-83681.2
-75235.5
-65139.5
-53506.8
-40597.7
-26786.6
-12494.4
1891.29
16074.5
30736.4
44564.9
56895.1
67874.8
77471.3
85678.4
92471.8
97810.3
101637
103871
104485
102917
99856.3
94973.2
88321.6
80018.4
70281.3
59412.8
47774.3
35739.4
23661
11836.4
496.222
-10186.5
-20067.9
-29105.8
-37287.6
-44606.3
-51053
-56615.7
-61266.1
-64954.6
-67612.7
-69163.3
-69509.1
-68683.7
-65966.2
-62503.1
-58159.3
-53174.6
-47710
-41934.5
-35988.5
-29982.5
-23995.8
-18075.6
-12239.1
-6492.02
-702.1
4708.04
9663.75
14270.1
18511.1
22327.7
25649.9
28415
30577.6
32113.5
33017.4
33299.1
32988.2
32126
30983.9
29079.4
26106.2
23178.7
19947.4
16578.9
13133.8
9707.05
6371.6
3194.33
232.947
-2455.57
-4950.4
-7086.98
-8708.57
-10013.5
-10979.4
-11627.7
-11980.7
-12069
-11924.7
-11583.8
-11081.1
-10454.9
-9778.24
-9000.6
-7878.99
-6814.5
-5733.2
-4664.35
-3626.38
-2637.96
-1716.47
-879.534
-141.745
487.449
998.667
1389.91
1717.54
1929.81
2070.66
2169.56
2262.21
2372.95
2547.23
2781.68
3084.1
3435.66
3824.28
4219.93
4570.9
4818.1
4975.81
4929.72
4689.29
4247.92
3592.8
2736.05
1764.58
619.669
-552.65
-1750.9
-2912.83
-3966.14
-4929.12
-5709.38
-6335.47
-6777.85
-7005.62
-7060.92
-6920.74
-6594.93
-6096.68
-5437.55
-4634.13
-3730.03
-2754.31
-1737.7
-733.645
290.853
1236.6
2114.12
2883.06
3542.36
4083.53
4509.55
4824.16
5037.89
5165.86
5219.97
5205.3
5134.64
5010.26
4833.31
4604.28
4322.94
3989.43
3605.2
3173.85
2701.87
2199.05
1678.03
1153.11
638.131
144.48
-318.221
-746.815
-1143.37
-1514.19
-1868.77
-2214.86
-2557.87
-2900.17
-3238.7
-3565.07
-3866.44
-4126.96
-4331.42
-4468.69
-4530.78
-4511.3
-4414.22
-4244.14
-4009.18
-3718.6
-3381.43
-3005.29
-2595.97
-2157.47
-1692.44
-1202.87
-691.758
-161.306
392.026
950.614
1511.31
2063.76
2596.79
3098.24
3555.71
3957.57
4293.69
4555.94
4737.86
4835.19
4845.77
4773.37
4619.27
4389.08
4089.34
-1042.35
-1785.39
-2643.24
-3790.42
-5422.57
-7804.52
-11466.2
-16531.9
-22526
-29060.8
-35927
-43077.2
-49787.2
-56160.3
-62157.6
-67701.4
-72710.4
-77115.2
-80866.4
-83938.5
-86331.5
-88069
-89215.2
-90329
-89197.4
-87630.3
-85246.2
-81881.5
-77366.6
-71527.4
-64225
-55412
-45181.2
-33780.3
-21578
-8986.36
3626.68
16041.9
28380.1
40715
51282
60521.6
68455.8
75135.5
80579.9
84782.1
87713.9
89318.9
89586.8
87967.7
85101.8
80662.1
74682.5
67255.8
58577.2
48925.3
38643.4
28082.8
17576.5
7395.82
-2255.38
-11237.3
-19438.9
-26866.9
-33546.8
-39509.8
-44776.9
-49359.9
-53242.9
-56376.6
-58681.6
-60061.7
-60402.8
-59740
-57473.8
-54424
-50591.9
-46173.6
-41326.5
-36208.1
-30949.4
-25650.1
-20378.4
-15169.5
-10027.9
-4943.92
238.102
5053.89
9487.54
13591
17376.4
20779.8
23726.1
26147.9
27997.6
29252.7
29911.6
29990.2
29523.3
28567.9
27372.1
25435.2
22538.4
19738.1
16699.2
13577.7
10427.3
7336.16
4363.03
1562.24
-1011.57
-3329.71
-5480.43
-7306.81
-8633.06
-9686.67
-10440.5
-10915.8
-11133.1
-11121.1
-10908.2
-10525.9
-10006.9
-9377.15
-8708.92
-7964.42
-6912.37
-5931.04
-4922.13
-3929.1
-2964.26
-2046.8
-1193.08
-420.563
256.051
827.244
1283.41
1644.47
1899.31
2063.28
2160.19
2220.75
2282.66
2371.26
2533.01
2766.7
3078.11
3444.5
3858.76
4276.72
4649.17
4925.28
5074.61
5026.68
4757.77
4291.31
3596.33
2689.92
1658.56
480.684
-754.15
-2000.41
-3198.79
-4280.13
-5256.66
-6043.23
-6667.28
-7100.53
-7313.99
-7353.17
-7192.15
-6841.78
-6314.2
-5622.09
-4781.72
-3836.35
-2817.6
-1758.76
-712.659
354.016
1333.66
2237.54
3027.8
3699.62
4246.26
4671.26
4979.39
5183.12
5303.08
5342.86
5320.09
5241.89
5111.22
4929.08
4695.02
4407.94
4067.12
3673.36
3229.88
2743.19
2223.6
1684.99
1143.26
613.899
109.18
-359.457
-789.452
-1183.59
-1549.82
-1899.83
-2243.71
-2587.93
-2935.97
-3284.81
-3625.1
-3942.39
-4218.68
-4436.66
-4583.77
-4651.14
-4631.73
-4530.64
-4353.13
-4108.72
-3807.93
-3460.9
-3075.83
-2658.64
-2213.1
-1741.35
-1244.68
-725.461
-184.871
377.884
950.697
1527.15
2096.66
2647.54
3166.91
3641.51
4058.8
4407.84
4679.93
4868.16
4968
4977.37
4899.75
4737.19
4495.49
4181.73
-1400.89
-2138.39
-2962.78
-4047.99
-5593.1
-7904.94
-11437
-16109.1
-21541.2
-27438.4
-33639.3
-40117.2
-46135.1
-51810.2
-57114.9
-61984.6
-66351
-70156.9
-73363.7
-75955.6
-77942.5
-79358
-80277.7
-81262.3
-80150.5
-78668.5
-76499.3
-73479.2
-69436.4
-64187.8
-57579.6
-49547.6
-40170.5
-29688
-18464.6
-6906.79
4633.25
15997
27243.6
38436.9
47919.2
56100.7
63036.3
68793.9