/*--------------------------------*- C++ -*----------------------------------*\
| =========                 |                                                 |
| \\      /  F ield         | OpenFOAM: The Open Source CFD Toolbox           |
|  \\    /   O peration     | Version:  v1912                                 |
|   \\  /    A nd           | Website:  www.openfoam.com                      |
|    \\/     M anipulation  |                                                 |
\*---------------------------------------------------------------------------*/
FoamFile
{
    version     2.0;
    format      ascii;
    class       volSymmTensorField;
    location    "100";
    object      R;
}
// * * * * * * * * * * * * * * * * * * * * * * * * * * * * * * * * * * * * * //

dimensions      [0 2 -2 0 0 0 0];


internalField   nonuniform List<symmTensor> 
14268
(
(2.19433e-10 5.34194e-13 0 2.25796e-10 0 2.22564e-10)
(2.21727e-10 5.71891e-13 0 2.305e-10 0 2.26057e-10)
(2.26361e-10 6.32363e-13 0 2.37892e-10 0 2.32066e-10)
(2.33933e-10 7.03214e-13 0 2.48613e-10 0 2.41206e-10)
(2.43277e-10 7.76543e-13 0 2.61113e-10 0 2.52119e-10)
(2.52076e-10 7.96447e-13 0 2.72316e-10 0 2.62113e-10)
(2.56727e-10 7.97448e-13 0 2.77391e-10 0 2.66971e-10)
(2.55277e-10 7.58308e-13 0 2.74033e-10 0 2.64552e-10)
(2.4824e-10 7.13663e-13 0 2.63164e-10 0 2.55594e-10)
(2.37666e-10 6.50862e-13 0 2.48026e-10 0 2.42767e-10)
(2.26398e-10 6.21031e-13 0 2.32361e-10 0 2.29299e-10)
(2.14776e-10 5.93649e-13 0 2.16546e-10 0 2.15602e-10)
(2.04288e-10 5.83547e-13 0 2.02285e-10 0 2.03232e-10)
(1.95498e-10 5.78457e-13 0 1.90174e-10 0 1.92765e-10)
(1.87895e-10 5.65979e-13 0 1.79759e-10 0 1.8375e-10)
(1.80981e-10 5.30565e-13 0 1.70463e-10 0 1.75655e-10)
(1.74197e-10 4.73066e-13 0 1.61629e-10 0 1.6785e-10)
(1.67547e-10 4.03538e-13 0 1.53175e-10 0 1.60305e-10)
(1.62482e-10 3.32414e-13 0 1.46591e-10 0 1.54488e-10)
(1.60487e-10 2.91825e-13 0 1.43536e-10 0 1.51975e-10)
(1.61875e-10 2.68495e-13 0 1.44205e-10 0 1.5302e-10)
(1.67165e-10 2.59053e-13 0 1.48884e-10 0 1.58008e-10)
(1.78327e-10 2.71524e-13 0 1.60037e-10 0 1.6916e-10)
(1.96196e-10 2.98943e-13 0 1.79091e-10 0 1.8761e-10)
(2.15913e-10 3.22819e-13 0 2.00602e-10 0 2.08218e-10)
(2.37179e-10 3.78099e-13 0 2.23984e-10 0 2.30574e-10)
(2.77538e-10 4.91756e-13 0 2.73729e-10 0 2.75649e-10)
(3.48186e-10 5.76634e-13 0 3.65601e-10 0 3.5668e-10)
(4.11201e-10 5.72504e-13 0 4.49051e-10 0 4.29715e-10)
(4.71902e-10 7.90123e-13 0 5.34009e-10 0 5.03063e-10)
(6.1004e-10 1.33204e-12 0 7.62071e-10 0 6.85277e-10)
(1.0298e-09 3.25163e-12 0 1.59036e-09 0 1.30614e-09)
(2.45527e-09 9.21932e-12 0 5.21284e-09 0 3.80871e-09)
(5.45112e-09 1.97428e-11 0 1.51177e-08 0 1.01517e-08)
(9.48571e-09 -7.4204e-13 0 3.07144e-08 0 1.97497e-08)
(1.1674e-08 3.54261e-11 0 3.5943e-08 0 2.33796e-08)
(1.21682e-08 -2.85446e-12 0 3.21126e-08 0 2.1775e-08)
(1.15025e-08 -1.26071e-11 0 2.73637e-08 0 1.91565e-08)
(9.3107e-09 -1.259e-11 0 1.81464e-08 0 1.35829e-08)
(5.80556e-09 -4.4863e-12 0 7.93557e-09 0 6.82507e-09)
(3.21403e-09 -1.31262e-12 0 2.94944e-09 0 3.07344e-09)
(1.58767e-09 -6.71755e-13 0 1.08879e-09 0 1.33482e-09)
(7.36386e-10 -1.0356e-11 0 4.32062e-10 0 5.82668e-10)
(4.90928e-10 -8.0455e-11 0 3.1193e-10 0 3.98461e-10)
(2.95525e-09 1.20818e-11 0 3.03812e-09 0 2.99535e-09)
(2.96145e-09 1.24623e-11 0 3.06668e-09 0 3.01283e-09)
(2.98404e-09 1.31165e-11 0 3.11753e-09 0 3.04966e-09)
(3.02812e-09 1.37531e-11 0 3.19508e-09 0 3.11071e-09)
(3.08253e-09 1.41974e-11 0 3.2827e-09 0 3.18189e-09)
(3.1293e-09 1.38916e-11 0 3.35253e-09 0 3.24033e-09)
(3.14717e-09 1.33748e-11 0 3.36724e-09 0 3.25666e-09)
(3.11919e-09 1.26471e-11 0 3.30916e-09 0 3.21335e-09)
(3.05475e-09 1.207e-11 0 3.19153e-09 0 3.12204e-09)
(2.97169e-09 1.14799e-11 0 3.04764e-09 0 3.00873e-09)
(2.89139e-09 1.13537e-11 0 2.90838e-09 0 2.89873e-09)
(2.81112e-09 1.13027e-11 0 2.77089e-09 0 2.79012e-09)
(2.73906e-09 1.15676e-11 0 2.64618e-09 0 2.69183e-09)
(2.68063e-09 1.20002e-11 0 2.54035e-09 0 2.60935e-09)
(2.63655e-09 1.23408e-11 0 2.45627e-09 0 2.54502e-09)
(2.60839e-09 1.23234e-11 0 2.39407e-09 0 2.49983e-09)
(2.59246e-09 1.18834e-11 0 2.34773e-09 0 2.46857e-09)
(2.58391e-09 1.11003e-11 0 2.31114e-09 0 2.4459e-09)
(2.58697e-09 1.00467e-11 0 2.29087e-09 0 2.43699e-09)
(2.61054e-09 9.50073e-12 0 2.30119e-09 0 2.45387e-09)
(2.66346e-09 9.23677e-12 0 2.35118e-09 0 2.50557e-09)
(2.75099e-09 9.27677e-12 0 2.44564e-09 0 2.59653e-09)
(2.90118e-09 9.86649e-12 0 2.62721e-09 0 2.76242e-09)
(3.13358e-09 1.08455e-11 0 2.93267e-09 0 3.03059e-09)
(3.38084e-09 1.14445e-11 0 3.27588e-09 0 3.32479e-09)
(3.63634e-09 1.3019e-11 0 3.64223e-09 0 3.63674e-09)
(4.11895e-09 1.6431e-11 0 4.45205e-09 0 4.28391e-09)
(4.93103e-09 1.83364e-11 0 5.94426e-09 0 5.43003e-09)
(5.56069e-09 1.75428e-11 0 7.22848e-09 0 6.38142e-09)
(6.06776e-09 2.35767e-11 0 8.47103e-09 0 7.2711e-09)
(7.11955e-09 3.54148e-11 0 1.14868e-08 0 9.28012e-09)
(9.30052e-09 7.01043e-11 0 2.04404e-08 0 1.48017e-08)
(1.27208e-08 1.04622e-10 0 4.16226e-08 0 2.69046e-08)
(1.70021e-08 1.39067e-10 0 7.62898e-08 0 4.58068e-08)
(2.21446e-08 -5.49835e-11 0 1.16921e-07 0 6.79134e-08)
(2.46883e-08 1.79199e-10 0 1.3473e-07 0 7.76815e-08)
(2.76233e-08 -1.5812e-10 0 1.41681e-07 0 8.24828e-08)
(2.71907e-08 -2.17478e-10 0 1.34354e-07 0 7.88551e-08)
(2.46771e-08 -2.6448e-10 0 1.08042e-07 0 6.49643e-08)
(2.06032e-08 -1.15789e-10 0 6.66358e-08 0 4.29594e-08)
(1.49036e-08 -5.37015e-11 0 2.81082e-08 0 2.12339e-08)
(8.63226e-09 -3.19241e-11 0 9.0198e-09 0 8.76868e-09)
(5.00831e-09 -1.15578e-10 0 3.45239e-09 0 4.18376e-09)
(5.1667e-09 -1.37153e-09 0 2.82615e-09 0 3.98681e-09)
(1.03113e-08 3.73463e-11 0 1.04158e-08 0 1.03707e-08)
(1.0376e-08 3.71545e-11 0 1.05418e-08 0 1.04668e-08)
(1.04633e-08 3.69039e-11 0 1.07128e-08 0 1.0597e-08)
(1.05749e-08 3.55516e-11 0 1.09356e-08 0 1.07654e-08)
(1.06849e-08 3.30269e-11 0 1.11589e-08 0 1.09326e-08)
(1.0762e-08 3.02256e-11 0 1.1315e-08 0 1.10494e-08)
(1.07761e-08 2.76724e-11 0 1.13234e-08 0 1.10598e-08)
(1.07053e-08 2.71428e-11 0 1.11482e-08 0 1.09346e-08)
(1.05588e-08 2.81914e-11 0 1.08165e-08 0 1.06941e-08)
(1.03628e-08 3.01339e-11 0 1.04041e-08 0 1.03901e-08)
(1.01656e-08 3.18596e-11 0 9.99615e-09 0 1.00864e-08)
(9.96381e-09 3.31752e-11 0 9.58832e-09 0 9.7823e-09)
(9.77119e-09 3.45551e-11 0 9.20678e-09 0 9.49682e-09)
(9.60161e-09 3.68101e-11 0 8.86742e-09 0 9.24208e-09)
(9.45595e-09 3.8745e-11 0 8.58734e-09 0 9.02929e-09)
(9.34474e-09 3.98467e-11 0 8.37263e-09 0 8.86646e-09)
(9.2621e-09 3.92114e-11 0 8.20338e-09 0 8.73989e-09)
(9.19303e-09 3.70315e-11 0 8.05623e-09 0 8.63294e-09)
(9.14947e-09 3.41627e-11 0 7.95019e-09 0 8.56043e-09)
(9.15647e-09 3.33073e-11 0 7.94052e-09 0 8.55935e-09)
(9.23252e-09 3.33559e-11 0 8.04847e-09 0 8.64953e-09)
(9.39005e-09 3.3796e-11 0 8.28726e-09 0 8.84506e-09)
(9.68114e-09 3.50458e-11 0 8.76871e-09 0 9.22835e-09)
(1.01369e-08 3.54341e-11 0 9.56128e-09 0 9.85448e-09)
(1.05854e-08 3.35959e-11 0 1.0416e-08 0 1.05132e-08)
(1.10072e-08 3.42084e-11 0 1.13287e-08 0 1.11876e-08)
(1.1763e-08 3.59211e-11 0 1.32757e-08 0 1.2542e-08)
(1.28803e-08 2.66368e-11 0 1.65521e-08 0 1.47074e-08)
(1.35205e-08 1.62407e-11 0 1.90991e-08 0 1.62783e-08)
(1.37916e-08 1.82451e-11 0 2.14822e-08 0 1.76614e-08)
(1.45652e-08 2.1534e-11 0 2.64176e-08 0 2.0446e-08)
(1.54351e-08 7.99648e-11 0 3.80739e-08 0 2.66099e-08)
(1.66445e-08 1.48924e-10 0 5.99587e-08 0 3.78539e-08)
(1.93318e-08 2.44235e-10 0 9.2324e-08 0 5.47272e-08)
(2.37449e-08 -8.15293e-11 0 1.30211e-07 0 7.51204e-08)
(2.61164e-08 2.80762e-10 0 1.47443e-07 0 8.44958e-08)
(2.89588e-08 -2.04228e-10 0 1.55928e-07 0 8.99964e-08)
(2.86962e-08 -3.19204e-10 0 1.50328e-07 0 8.72578e-08)
(2.66465e-08 -4.95423e-10 0 1.28693e-07 0 7.59199e-08)
(2.40338e-08 -2.926e-10 0 9.30083e-08 0 5.72797e-08)
(2.04375e-08 -3.16242e-10 0 5.33493e-08 0 3.6573e-08)
(1.6316e-08 2.96841e-11 0 2.29371e-08 0 1.95686e-08)
(1.15282e-08 -3.20204e-10 0 9.06559e-09 0 1.03686e-08)
(1.00405e-08 -1.57712e-09 0 8.71189e-09 0 9.14202e-09)
(1.76748e-08 -1.87108e-11 0 1.76935e-08 0 1.76944e-08)
(1.7703e-08 -2.19551e-11 0 1.78094e-08 0 1.77675e-08)
(1.77386e-08 -2.65459e-11 0 1.79835e-08 0 1.78719e-08)
(1.77795e-08 -3.30296e-11 0 1.82208e-08 0 1.80085e-08)
(1.78162e-08 -3.9735e-11 0 1.84642e-08 0 1.81432e-08)
(1.7841e-08 -4.50684e-11 0 1.86332e-08 0 1.82359e-08)
(1.78484e-08 -4.73576e-11 0 1.86355e-08 0 1.82387e-08)
(1.78316e-08 -4.41892e-11 0 1.84388e-08 0 1.81329e-08)
(1.7792e-08 -3.68206e-11 0 1.8072e-08 0 1.79337e-08)
(1.77272e-08 -2.87714e-11 0 1.76178e-08 0 1.76823e-08)
(1.76656e-08 -2.30454e-11 0 1.71711e-08 0 1.74319e-08)
(1.75938e-08 -1.80321e-11 0 1.67197e-08 0 1.71732e-08)
(1.75165e-08 -1.54753e-11 0 1.62923e-08 0 1.69237e-08)
(1.74528e-08 -1.32953e-11 0 1.58971e-08 0 1.66958e-08)
(1.73875e-08 -1.19087e-11 0 1.55727e-08 0 1.65051e-08)
(1.73339e-08 -1.04817e-11 0 1.5331e-08 0 1.63601e-08)
(1.72974e-08 -8.51841e-12 0 1.51525e-08 0 1.62486e-08)
(1.72682e-08 -4.83177e-12 0 1.50054e-08 0 1.615e-08)
(1.72588e-08 1.75155e-12 0 1.49152e-08 0 1.60857e-08)
(1.72795e-08 7.75829e-12 0 1.49256e-08 0 1.60959e-08)
(1.73417e-08 1.2187e-11 0 1.50676e-08 0 1.62014e-08)
(1.74572e-08 1.39707e-11 0 1.53657e-08 0 1.64127e-08)
(1.76475e-08 1.37394e-11 0 1.59676e-08 0 1.68139e-08)
(1.79188e-08 9.34925e-12 0 1.69759e-08 0 1.74414e-08)
(1.81261e-08 -1.06384e-12 0 1.80349e-08 0 1.80554e-08)
(1.82271e-08 -5.62904e-12 0 1.91119e-08 0 1.86449e-08)
(1.83405e-08 -1.32919e-11 0 2.11764e-08 0 1.97333e-08)
(1.84688e-08 -3.90089e-11 0 2.44378e-08 0 2.13926e-08)
(1.83998e-08 -5.13607e-11 0 2.69432e-08 0 2.25829e-08)
(1.80518e-08 -3.81986e-11 0 2.93572e-08 0 2.36707e-08)
(1.79549e-08 -1.31824e-11 0 3.39025e-08 0 2.57967e-08)
(1.74454e-08 1.0236e-10 0 4.42335e-08 0 3.06332e-08)
(1.74046e-08 2.50624e-10 0 6.36527e-08 0 4.00669e-08)
(1.949e-08 4.04738e-10 0 9.38535e-08 0 5.56201e-08)
(2.38668e-08 -5.69817e-11 0 1.31104e-07 0 7.56208e-08)
(2.61973e-08 4.64395e-10 0 1.48302e-07 0 8.49749e-08)
(2.91004e-08 -1.57419e-10 0 1.56819e-07 0 9.04751e-08)
(2.86436e-08 -2.05228e-10 0 1.51251e-07 0 8.77589e-08)
(2.68399e-08 -4.73651e-10 0 1.30366e-07 0 7.68331e-08)
(2.37195e-08 -3.62382e-10 0 9.80692e-08 0 5.98739e-08)
(2.24398e-08 -4.62293e-10 0 6.23971e-08 0 4.19084e-08)
(2.07861e-08 -2.3024e-10 0 3.42493e-08 0 2.72568e-08)
(1.94648e-08 -4.35588e-10 0 1.73515e-08 0 1.8088e-08)
(1.93378e-08 -4.98875e-09 0 1.37518e-08 0 1.67508e-08)
(2.18e-08 -1.58059e-10 0 2.18037e-08 0 2.17814e-08)
(2.17928e-08 -1.61005e-10 0 2.19205e-08 0 2.18288e-08)
(2.1774e-08 -1.64398e-10 0 2.20745e-08 0 2.18931e-08)
(2.17408e-08 -1.69133e-10 0 2.22732e-08 0 2.19761e-08)
(2.17034e-08 -1.75133e-10 0 2.2467e-08 0 2.20577e-08)
(2.16781e-08 -1.80182e-10 0 2.25931e-08 0 2.21122e-08)
(2.16846e-08 -1.82282e-10 0 2.25903e-08 0 2.21171e-08)
(2.17326e-08 -1.77457e-10 0 2.24219e-08 0 2.20551e-08)
(2.18124e-08 -1.68689e-10 0 2.21118e-08 0 2.19372e-08)
(2.18972e-08 -1.58063e-10 0 2.17411e-08 0 2.17931e-08)
(2.19924e-08 -1.49754e-10 0 2.13718e-08 0 2.16516e-08)
(2.2081e-08 -1.43149e-10 0 2.0988e-08 0 2.15023e-08)
(2.21568e-08 -1.39662e-10 0 2.06153e-08 0 2.13544e-08)
(2.22357e-08 -1.39388e-10 0 2.02685e-08 0 2.12134e-08)
(2.22837e-08 -1.38346e-10 0 2.00023e-08 0 2.10988e-08)
(2.23169e-08 -1.35332e-10 0 1.98105e-08 0 2.10173e-08)
(2.23519e-08 -1.28655e-10 0 1.96587e-08 0 2.09591e-08)
(2.23906e-08 -1.15856e-10 0 1.9507e-08 0 2.09104e-08)
(2.24349e-08 -9.51315e-11 0 1.93615e-08 0 2.08787e-08)
(2.24526e-08 -8.08756e-11 0 1.93345e-08 0 2.08852e-08)
(2.24616e-08 -7.1043e-11 0 1.94494e-08 0 2.09487e-08)
(2.24542e-08 -6.62032e-11 0 1.97258e-08 0 2.10817e-08)
(2.24023e-08 -6.54826e-11 0 2.02738e-08 0 2.13225e-08)
(2.22951e-08 -7.63116e-11 0 2.11205e-08 0 2.16957e-08)
(2.20884e-08 -9.347e-11 0 2.20098e-08 0 2.20603e-08)
(2.18209e-08 -9.62263e-11 0 2.29836e-08 0 2.24283e-08)
(2.13499e-08 -1.0429e-10 0 2.48431e-08 0 2.31178e-08)
(2.06981e-08 -1.3447e-10 0 2.77532e-08 0 2.41978e-08)
(2.01847e-08 -1.41187e-10 0 3.00259e-08 0 2.50408e-08)
(1.95139e-08 -9.25935e-11 0 3.22023e-08 0 2.58609e-08)
(1.89761e-08 -2.4404e-12 0 3.62566e-08 0 2.75303e-08)
(1.7935e-08 1.81056e-10 0 4.56857e-08 0 3.16232e-08)
(1.75333e-08 3.83404e-10 0 6.41622e-08 0 4.03805e-08)
(1.96123e-08 5.45669e-10 0 9.41208e-08 0 5.57579e-08)
(2.38956e-08 -6.23046e-11 0 1.31384e-07 0 7.57711e-08)
(2.63561e-08 7.90685e-10 0 1.48884e-07 0 8.52637e-08)
(2.90684e-08 -1.41963e-10 0 1.56918e-07 0 9.05317e-08)
(2.8786e-08 -2.21604e-10 0 1.51514e-07 0 8.78856e-08)
(2.68831e-08 -2.73589e-10 0 1.3066e-07 0 7.70349e-08)
(2.39881e-08 -2.16901e-10 0 9.92189e-08 0 6.0413e-08)
(2.2654e-08 -6.00568e-10 0 6.56594e-08 0 4.36062e-08)
(2.24333e-08 -3.64932e-10 0 3.90993e-08 0 3.05814e-08)
(2.42727e-08 -7.16053e-10 0 2.25782e-08 0 2.33438e-08)
(2.75562e-08 -7.69919e-09 0 2.11099e-08 0 2.36994e-08)
(2.36704e-08 -2.73013e-10 0 2.36254e-08 0 2.36258e-08)
(2.36333e-08 -2.7645e-10 0 2.37175e-08 0 2.36589e-08)
(2.35832e-08 -2.78992e-10 0 2.38361e-08 0 2.36985e-08)
(2.3507e-08 -2.82618e-10 0 2.40015e-08 0 2.37454e-08)
(2.34286e-08 -2.88413e-10 0 2.41703e-08 0 2.3789e-08)
(2.33782e-08 -2.9301e-10 0 2.42803e-08 0 2.38154e-08)
(2.33805e-08 -2.95521e-10 0 2.42916e-08 0 2.38166e-08)
(2.34675e-08 -2.91843e-10 0 2.4134e-08 0 2.37805e-08)
(2.36083e-08 -2.86592e-10 0 2.38729e-08 0 2.37187e-08)
(2.37767e-08 -2.77641e-10 0 2.35496e-08 0 2.3642e-08)
(2.39609e-08 -2.69758e-10 0 2.32244e-08 0 2.35705e-08)
(2.41488e-08 -2.65718e-10 0 2.28837e-08 0 2.34993e-08)
(2.43386e-08 -2.64509e-10 0 2.25541e-08 0 2.34303e-08)
(2.452e-08 -2.67492e-10 0 2.22488e-08 0 2.33663e-08)
(2.46463e-08 -2.68834e-10 0 2.20183e-08 0 2.33135e-08)
(2.47348e-08 -2.66509e-10 0 2.18478e-08 0 2.32735e-08)
(2.48158e-08 -2.59229e-10 0 2.17083e-08 0 2.32447e-08)
(2.48844e-08 -2.44608e-10 0 2.15986e-08 0 2.3224e-08)
(2.49634e-08 -2.20057e-10 0 2.15056e-08 0 2.32085e-08)
(2.49859e-08 -2.01351e-10 0 2.15082e-08 0 2.32134e-08)
(2.49237e-08 -1.90732e-10 0 2.16313e-08 0 2.32484e-08)
(2.48331e-08 -1.8528e-10 0 2.1834e-08 0 2.33084e-08)
(2.4597e-08 -1.85378e-10 0 2.22728e-08 0 2.34217e-08)
(2.42523e-08 -1.96555e-10 0 2.30036e-08 0 2.36036e-08)
(2.38329e-08 -2.01618e-10 0 2.39065e-08 0 2.38181e-08)
(2.33491e-08 -1.83292e-10 0 2.48775e-08 0 2.40626e-08)
(2.25656e-08 -1.77059e-10 0 2.65535e-08 0 2.45153e-08)
(2.15081e-08 -1.95127e-10 0 2.91711e-08 0 2.52635e-08)
(2.07919e-08 -1.90294e-10 0 3.12433e-08 0 2.5923e-08)
(2.00353e-08 -1.1334e-10 0 3.3263e-08 0 2.66201e-08)
(1.93361e-08 2.23913e-11 0 3.70478e-08 0 2.80709e-08)
(1.80983e-08 2.596e-10 0 4.60499e-08 0 3.18593e-08)
(1.75837e-08 5.2913e-10 0 6.42621e-08 0 4.04462e-08)
(1.96135e-08 7.39336e-10 0 9.41593e-08 0 5.57807e-08)
(2.38915e-08 -3.06277e-10 0 1.31863e-07 0 7.60317e-08)
(2.64619e-08 1.15987e-09 0 1.49892e-07 0 8.58197e-08)
(2.94582e-08 -1.21951e-10 0 1.5827e-07 0 9.12676e-08)
(2.90105e-08 -5.79443e-10 0 1.52466e-07 0 8.84008e-08)
(2.71402e-08 -3.02227e-10 0 1.30938e-07 0 7.72463e-08)
(2.37721e-08 -8.92329e-11 0 9.93673e-08 0 6.0395e-08)
(2.31449e-08 -5.17622e-10 0 6.62825e-08 0 4.41526e-08)
(2.27276e-08 -4.84549e-10 0 4.12616e-08 0 3.18878e-08)
(2.67278e-08 -6.38286e-10 0 2.6729e-08 0 2.65548e-08)
(3.17582e-08 -9.78217e-09 0 2.25863e-08 0 2.74254e-08)
(2.45062e-08 -3.23333e-10 0 2.43254e-08 0 2.44367e-08)
(2.4442e-08 -3.24133e-10 0 2.44294e-08 0 2.44534e-08)
(2.43652e-08 -3.25758e-10 0 2.45454e-08 0 2.44702e-08)
(2.42577e-08 -3.29391e-10 0 2.47051e-08 0 2.44928e-08)
(2.41507e-08 -3.36292e-10 0 2.48601e-08 0 2.4516e-08)
(2.40889e-08 -3.42706e-10 0 2.49425e-08 0 2.45278e-08)
(2.40933e-08 -3.47182e-10 0 2.49379e-08 0 2.45298e-08)
(2.42194e-08 -3.47217e-10 0 2.47698e-08 0 2.45086e-08)
(2.43853e-08 -3.4549e-10 0 2.45543e-08 0 2.44814e-08)
(2.45996e-08 -3.40948e-10 0 2.42619e-08 0 2.44415e-08)
(2.48188e-08 -3.36669e-10 0 2.39873e-08 0 2.44083e-08)
(2.50662e-08 -3.34896e-10 0 2.36784e-08 0 2.43754e-08)
(2.53122e-08 -3.35066e-10 0 2.33894e-08 0 2.43514e-08)
(2.55595e-08 -3.37724e-10 0 2.31112e-08 0 2.43368e-08)
(2.57286e-08 -3.39451e-10 0 2.29182e-08 0 2.43291e-08)
(2.58518e-08 -3.39053e-10 0 2.27709e-08 0 2.43191e-08)
(2.59666e-08 -3.3652e-10 0 2.26414e-08 0 2.43082e-08)
(2.60794e-08 -3.30686e-10 0 2.25241e-08 0 2.42982e-08)
(2.6152e-08 -3.16675e-10 0 2.246e-08 0 2.42941e-08)
(2.61655e-08 -3.04842e-10 0 2.24634e-08 0 2.42974e-08)
(2.60787e-08 -2.99385e-10 0 2.25811e-08 0 2.43083e-08)
(2.59235e-08 -2.94526e-10 0 2.27882e-08 0 2.43311e-08)
(2.56404e-08 -2.91718e-10 0 2.31659e-08 0 2.43753e-08)
(2.51125e-08 -2.95285e-10 0 2.3832e-08 0 2.44544e-08)
(2.44682e-08 -2.84345e-10 0 2.46229e-08 0 2.45625e-08)
(2.39606e-08 -2.50165e-10 0 2.53846e-08 0 2.4699e-08)
(2.30024e-08 -2.1575e-10 0 2.69713e-08 0 2.50156e-08)
(2.17205e-08 -1.98362e-10 0 2.95309e-08 0 2.56073e-08)
(2.09402e-08 -1.73127e-10 0 3.15652e-08 0 2.61911e-08)
(2.01494e-08 -7.26089e-11 0 3.35104e-08 0 2.68353e-08)
(1.94103e-08 9.88757e-11 0 3.71785e-08 0 2.82128e-08)
(1.81117e-08 3.92711e-10 0 4.60513e-08 0 3.18997e-08)
(1.75693e-08 6.46919e-10 0 6.4234e-08 0 4.04334e-08)
(1.95709e-08 8.82162e-10 0 9.42126e-08 0 5.58117e-08)
(2.42468e-08 -7.72366e-10 0 1.33526e-07 0 7.69179e-08)
(2.71001e-08 1.29044e-09 0 1.52727e-07 0 8.73915e-08)
(2.97082e-08 1.12282e-10 0 1.59979e-07 0 9.22857e-08)
(2.92747e-08 -7.70904e-10 0 1.53847e-07 0 8.92109e-08)
(2.7449e-08 -5.45604e-10 0 1.31632e-07 0 7.76582e-08)
(2.37256e-08 -4.52737e-12 0 9.96975e-08 0 6.04967e-08)
(2.32431e-08 -4.0474e-10 0 6.62438e-08 0 4.42192e-08)
(2.32721e-08 -5.16857e-10 0 4.26319e-08 0 3.27519e-08)
(2.74065e-08 1.03316e-10 0 2.90605e-08 0 2.80517e-08)
(3.57179e-08 -1.15909e-08 0 2.62588e-08 0 3.06265e-08)
(2.48139e-08 -3.34793e-10 0 2.46854e-08 0 2.47438e-08)
(2.47399e-08 -3.3355e-10 0 2.47691e-08 0 2.47488e-08)
(2.46515e-08 -3.3419e-10 0 2.48704e-08 0 2.47558e-08)
(2.45305e-08 -3.3581e-10 0 2.50097e-08 0 2.4767e-08)
(2.44184e-08 -3.41817e-10 0 2.51432e-08 0 2.47816e-08)
(2.43503e-08 -3.48039e-10 0 2.52254e-08 0 2.47912e-08)
(2.43725e-08 -3.53082e-10 0 2.52086e-08 0 2.47935e-08)
(2.44878e-08 -3.55334e-10 0 2.50865e-08 0 2.47889e-08)
(2.46863e-08 -3.55396e-10 0 2.48709e-08 0 2.47802e-08)
(2.49394e-08 -3.53619e-10 0 2.45844e-08 0 2.47673e-08)
(2.51917e-08 -3.53667e-10 0 2.43197e-08 0 2.47632e-08)
(2.54623e-08 -3.55417e-10 0 2.40371e-08 0 2.47584e-08)
(2.57311e-08 -3.5778e-10 0 2.37746e-08 0 2.47574e-08)
(2.59933e-08 -3.59473e-10 0 2.3536e-08 0 2.47623e-08)
(2.61929e-08 -3.58798e-10 0 2.33622e-08 0 2.47706e-08)
(2.6351e-08 -3.57057e-10 0 2.32226e-08 0 2.47788e-08)
(2.64919e-08 -3.53926e-10 0 2.30989e-08 0 2.47879e-08)
(2.66306e-08 -3.49951e-10 0 2.29649e-08 0 2.47938e-08)
(2.67186e-08 -3.42197e-10 0 2.28673e-08 0 2.47951e-08)
(2.67282e-08 -3.34733e-10 0 2.28353e-08 0 2.4792e-08)
(2.65357e-08 -3.24937e-10 0 2.29957e-08 0 2.47859e-08)
(2.64295e-08 -3.16515e-10 0 2.31032e-08 0 2.47885e-08)
(2.61015e-08 -3.00826e-10 0 2.34597e-08 0 2.48017e-08)
(2.5515e-08 -2.86381e-10 0 2.41259e-08 0 2.4832e-08)
(2.48932e-08 -2.70903e-10 0 2.48962e-08 0 2.48923e-08)
(2.42558e-08 -2.41681e-10 0 2.5748e-08 0 2.50025e-08)
(2.31933e-08 -1.98203e-10 0 2.73278e-08 0 2.5257e-08)
(2.18106e-08 -1.63659e-10 0 2.98046e-08 0 2.5762e-08)
(2.10007e-08 -1.2228e-10 0 3.17878e-08 0 2.63139e-08)
(2.02254e-08 -3.7351e-12 0 3.36945e-08 0 2.69424e-08)
(1.94733e-08 1.62117e-10 0 3.73192e-08 0 2.8283e-08)
(1.8138e-08 4.62305e-10 0 4.61216e-08 0 3.19281e-08)
(1.75645e-08 7.55486e-10 0 6.4253e-08 0 4.04448e-08)
(1.96824e-08 1.01109e-09 0 9.45746e-08 0 5.6002e-08)
(2.45685e-08 -1.43081e-09 0 1.35492e-07 0 7.80273e-08)
(2.77343e-08 8.21838e-10 0 1.56592e-07 0 8.96666e-08)
(3.07561e-08 6.07914e-10 0 1.64149e-07 0 9.47285e-08)
(2.97777e-08 -1.42537e-10 0 1.56663e-07 0 9.08813e-08)
(2.76256e-08 -5.86347e-10 0 1.32509e-07 0 7.8246e-08)
(2.36073e-08 3.92312e-11 0 9.98473e-08 0 6.05308e-08)
(2.32929e-08 -2.99948e-10 0 6.62465e-08 0 4.42417e-08)
(2.35559e-08 -5.7716e-10 0 4.30603e-08 0 3.3104e-08)
(2.83887e-08 -5.83968e-10 0 3.01263e-08 0 2.90814e-08)
(3.6608e-08 -1.15319e-08 0 2.70443e-08 0 3.18999e-08)
(2.4926e-08 -3.46248e-10 0 2.47497e-08 0 2.48434e-08)
(2.4839e-08 -3.41523e-10 0 2.48481e-08 0 2.48477e-08)
(2.47401e-08 -3.40094e-10 0 2.49628e-08 0 2.48547e-08)
(2.46224e-08 -3.38078e-10 0 2.50997e-08 0 2.48613e-08)
(2.45194e-08 -3.44875e-10 0 2.52251e-08 0 2.48704e-08)
(2.44405e-08 -3.50665e-10 0 2.5324e-08 0 2.48795e-08)
(2.44604e-08 -3.56987e-10 0 2.53103e-08 0 2.48823e-08)
(2.45688e-08 -3.58405e-10 0 2.52056e-08 0 2.48828e-08)
(2.47829e-08 -3.55323e-10 0 2.49879e-08 0 2.48822e-08)
(2.50465e-08 -3.5059e-10 0 2.47174e-08 0 2.48835e-08)
(2.53274e-08 -3.51222e-10 0 2.44531e-08 0 2.48931e-08)
(2.56133e-08 -3.55486e-10 0 2.41825e-08 0 2.49031e-08)
(2.58942e-08 -3.59664e-10 0 2.39204e-08 0 2.4913e-08)
(2.61562e-08 -3.60656e-10 0 2.36933e-08 0 2.49272e-08)
(2.6391e-08 -3.60192e-10 0 2.34878e-08 0 2.49416e-08)
(2.65684e-08 -3.57247e-10 0 2.33359e-08 0 2.49554e-08)
(2.66914e-08 -3.51471e-10 0 2.32449e-08 0 2.49702e-08)
(2.68334e-08 -3.45738e-10 0 2.31302e-08 0 2.49844e-08)
(2.69346e-08 -3.35179e-10 0 2.30606e-08 0 2.49978e-08)
(2.69292e-08 -3.23351e-10 0 2.30887e-08 0 2.50071e-08)
(2.68523e-08 -3.13561e-10 0 2.31642e-08 0 2.50076e-08)
(2.66563e-08 -2.94712e-10 0 2.3343e-08 0 2.50025e-08)
(2.62909e-08 -2.71345e-10 0 2.36663e-08 0 2.49876e-08)
(2.55687e-08 -2.49935e-10 0 2.43526e-08 0 2.49706e-08)
(2.50101e-08 -2.42538e-10 0 2.4938e-08 0 2.49816e-08)
(2.43766e-08 -2.12777e-10 0 2.57507e-08 0 2.50709e-08)
(2.32262e-08 -1.65161e-10 0 2.74003e-08 0 2.53125e-08)
(2.18108e-08 -1.38208e-10 0 2.98757e-08 0 2.57967e-08)
(2.09997e-08 -1.00012e-10 0 3.18177e-08 0 2.63314e-08)
(2.02194e-08 2.08065e-11 0 3.36946e-08 0 2.69459e-08)
(1.94498e-08 1.97577e-10 0 3.72808e-08 0 2.82671e-08)
(1.81208e-08 5.401e-10 0 4.60871e-08 0 3.19133e-08)
(1.76013e-08 8.92969e-10 0 6.43603e-08 0 4.05011e-08)
(1.97537e-08 1.01675e-09 0 9.48386e-08 0 5.61444e-08)
(2.48701e-08 -2.49971e-09 0 1.37797e-07 0 7.94278e-08)
(2.93865e-08 6.17859e-10 0 1.64144e-07 0 9.40075e-08)
(3.24344e-08 1.16189e-09 0 1.70794e-07 0 9.87338e-08)
(3.1418e-08 8.52715e-10 0 1.62095e-07 0 9.41028e-08)
(2.82755e-08 -3.46534e-10 0 1.34874e-07 0 7.96263e-08)
(2.35911e-08 3.9326e-11 0 1.00081e-07 0 6.0649e-08)
(2.33483e-08 -1.87836e-10 0 6.62577e-08 0 4.42586e-08)
(2.37136e-08 -6.11177e-10 0 4.30956e-08 0 3.32341e-08)
(2.89655e-08 -1.05377e-09 0 3.07153e-08 0 2.96306e-08)
(3.7756e-08 -1.1536e-08 0 2.91128e-08 0 3.31004e-08)
(2.49494e-08 -3.53669e-10 0 2.48204e-08 0 2.48815e-08)
(2.48808e-08 -3.50414e-10 0 2.48944e-08 0 2.48883e-08)
(2.47772e-08 -3.49407e-10 0 2.50009e-08 0 2.48948e-08)
(2.46803e-08 -3.45691e-10 0 2.51028e-08 0 2.49007e-08)
(2.45492e-08 -3.53069e-10 0 2.52508e-08 0 2.49058e-08)
(2.44666e-08 -3.57566e-10 0 2.53523e-08 0 2.49105e-08)
(2.44906e-08 -3.67259e-10 0 2.53365e-08 0 2.49125e-08)
(2.46072e-08 -3.68998e-10 0 2.52291e-08 0 2.49144e-08)
(2.481e-08 -3.63642e-10 0 2.50366e-08 0 2.49157e-08)
(2.50836e-08 -3.5626e-10 0 2.4765e-08 0 2.49176e-08)
(2.53602e-08 -3.56391e-10 0 2.45174e-08 0 2.493e-08)
(2.56528e-08 -3.62061e-10 0 2.42555e-08 0 2.49451e-08)
(2.59506e-08 -3.66862e-10 0 2.39895e-08 0 2.49638e-08)
(2.62102e-08 -3.63296e-10 0 2.37741e-08 0 2.49848e-08)
(2.64382e-08 -3.57801e-10 0 2.359e-08 0 2.50045e-08)
(2.66381e-08 -3.53247e-10 0 2.34268e-08 0 2.50236e-08)
(2.67855e-08 -3.49025e-10 0 2.33116e-08 0 2.50406e-08)
(2.69126e-08 -3.46689e-10 0 2.32099e-08 0 2.50567e-08)
(2.70033e-08 -3.38197e-10 0 2.31365e-08 0 2.50684e-08)
(2.70109e-08 -3.24951e-10 0 2.31288e-08 0 2.50711e-08)
(2.69055e-08 -3.12175e-10 0 2.32102e-08 0 2.50627e-08)
(2.67025e-08 -2.90157e-10 0 2.33809e-08 0 2.50505e-08)
(2.63264e-08 -2.64411e-10 0 2.37119e-08 0 2.50302e-08)
(2.55923e-08 -2.47127e-10 0 2.44031e-08 0 2.50052e-08)
(2.50444e-08 -2.37075e-10 0 2.49656e-08 0 2.50096e-08)
(2.44077e-08 -2.04124e-10 0 2.57649e-08 0 2.5092e-08)
(2.32382e-08 -1.59435e-10 0 2.74061e-08 0 2.53237e-08)
(2.18067e-08 -1.39903e-10 0 2.98786e-08 0 2.57992e-08)
(2.0994e-08 -1.04052e-10 0 3.18238e-08 0 2.63339e-08)
(2.02168e-08 2.95011e-11 0 3.36988e-08 0 2.69483e-08)
(1.94591e-08 2.27287e-10 0 3.73064e-08 0 2.82798e-08)
(1.81431e-08 5.96671e-10 0 4.61426e-08 0 3.19411e-08)
(1.76221e-08 9.92432e-10 0 6.44544e-08 0 4.05537e-08)
(1.96458e-08 9.70894e-10 0 9.48688e-08 0 5.61862e-08)
(2.5455e-08 -3.63702e-09 0 1.40833e-07 0 8.1375e-08)
(3.15489e-08 1.86975e-09 0 1.7477e-07 0 1.00222e-07)
(3.50092e-08 2.71936e-09 0 1.80729e-07 0 1.04876e-07)
(3.33535e-08 2.53637e-09 0 1.69673e-07 0 9.88565e-08)
(2.93415e-08 2.93851e-10 0 1.38524e-07 0 8.18613e-08)
(2.37334e-08 3.00881e-11 0 1.00668e-07 0 6.09605e-08)
(2.33354e-08 -1.65803e-10 0 6.62572e-08 0 4.42372e-08)
(2.38475e-08 -6.37147e-10 0 4.31607e-08 0 3.33285e-08)
(2.9428e-08 -1.51147e-09 0 3.09289e-08 0 2.99879e-08)
(3.78289e-08 -1.13458e-08 0 2.9377e-08 0 3.34768e-08)
(2.49558e-08 -3.76112e-10 0 2.48208e-08 0 2.48961e-08)
(2.48819e-08 -3.71057e-10 0 2.4926e-08 0 2.4906e-08)
(2.47989e-08 -3.62672e-10 0 2.50309e-08 0 2.49114e-08)
(2.46874e-08 -3.6047e-10 0 2.51513e-08 0 2.49162e-08)
(2.45762e-08 -3.68236e-10 0 2.52661e-08 0 2.49214e-08)
(2.44965e-08 -3.76335e-10 0 2.53509e-08 0 2.49265e-08)
(2.45066e-08 -3.88646e-10 0 2.53448e-08 0 2.49308e-08)
(2.46248e-08 -3.96284e-10 0 2.52333e-08 0 2.49334e-08)
(2.48296e-08 -3.97387e-10 0 2.50281e-08 0 2.49334e-08)
(2.50936e-08 -3.88268e-10 0 2.47516e-08 0 2.49309e-08)
(2.53659e-08 -3.83348e-10 0 2.45043e-08 0 2.49408e-08)
(2.56606e-08 -3.83196e-10 0 2.42383e-08 0 2.49537e-08)
(2.59555e-08 -3.81768e-10 0 2.39994e-08 0 2.49758e-08)
(2.62225e-08 -3.73111e-10 0 2.37886e-08 0 2.50002e-08)
(2.64642e-08 -3.68897e-10 0 2.35917e-08 0 2.50235e-08)
(2.66663e-08 -3.63347e-10 0 2.34267e-08 0 2.50435e-08)
(2.68082e-08 -3.57865e-10 0 2.33263e-08 0 2.50619e-08)
(2.69305e-08 -3.54868e-10 0 2.32443e-08 0 2.50801e-08)
(2.70401e-08 -3.46265e-10 0 2.31587e-08 0 2.50934e-08)
(2.70376e-08 -3.30344e-10 0 2.31657e-08 0 2.50957e-08)
(2.69223e-08 -3.15804e-10 0 2.32633e-08 0 2.50872e-08)
(2.67168e-08 -2.91523e-10 0 2.34458e-08 0 2.50759e-08)
(2.63502e-08 -2.64816e-10 0 2.37672e-08 0 2.50547e-08)
(2.56277e-08 -2.54006e-10 0 2.44289e-08 0 2.50245e-08)
(2.50695e-08 -2.52459e-10 0 2.49958e-08 0 2.50279e-08)
(2.44251e-08 -2.22027e-10 0 2.57881e-08 0 2.51059e-08)
(2.32534e-08 -1.71404e-10 0 2.7419e-08 0 2.53327e-08)
(2.1808e-08 -1.50967e-10 0 2.98864e-08 0 2.5803e-08)
(2.10017e-08 -1.13124e-10 0 3.18338e-08 0 2.63393e-08)
(2.02238e-08 3.69097e-11 0 3.37229e-08 0 2.69588e-08)
(1.94596e-08 2.62327e-10 0 3.73108e-08 0 2.82836e-08)
(1.81352e-08 6.75685e-10 0 4.61402e-08 0 3.19444e-08)
(1.76332e-08 1.15111e-09 0 6.45757e-08 0 4.06254e-08)
(1.99319e-08 7.89688e-10 0 9.61479e-08 0 5.69221e-08)
(2.75142e-08 -3.87554e-09 0 1.47598e-07 0 8.54464e-08)
(3.54395e-08 5.34615e-09 0 1.91174e-07 0 1.09798e-07)
(3.97363e-08 6.39652e-09 0 1.96851e-07 0 1.14852e-07)
(3.70531e-08 5.543e-09 0 1.81825e-07 0 1.06477e-07)
(3.07655e-08 1.59532e-09 0 1.43885e-07 0 8.5239e-08)
(2.40462e-08 1.41501e-11 0 1.01475e-07 0 6.14932e-08)
(2.33341e-08 -1.67458e-10 0 6.62913e-08 0 4.4233e-08)
(2.40333e-08 -6.56603e-10 0 4.32848e-08 0 3.34503e-08)
(2.94798e-08 -1.56945e-09 0 3.11309e-08 0 3.01171e-08)
(3.822e-08 -1.14693e-08 0 3.01253e-08 0 3.3903e-08)
(2.49594e-08 -3.86977e-10 0 2.48549e-08 0 2.49065e-08)
(2.48961e-08 -3.87572e-10 0 2.49273e-08 0 2.49103e-08)
(2.48052e-08 -3.79259e-10 0 2.50251e-08 0 2.49137e-08)
(2.46893e-08 -3.74328e-10 0 2.51563e-08 0 2.49195e-08)
(2.45715e-08 -3.78801e-10 0 2.52868e-08 0 2.49256e-08)
(2.45043e-08 -3.92457e-10 0 2.53633e-08 0 2.49313e-08)
(2.45146e-08 -3.98998e-10 0 2.53671e-08 0 2.49365e-08)
(2.46286e-08 -4.10434e-10 0 2.52622e-08 0 2.49395e-08)
(2.48331e-08 -4.17276e-10 0 2.50628e-08 0 2.49414e-08)
(2.51111e-08 -4.1815e-10 0 2.47802e-08 0 2.49423e-08)
(2.53783e-08 -4.17815e-10 0 2.45394e-08 0 2.49538e-08)
(2.56744e-08 -4.21431e-10 0 2.42642e-08 0 2.49666e-08)
(2.59647e-08 -4.11886e-10 0 2.40035e-08 0 2.49837e-08)
(2.62267e-08 -4.05412e-10 0 2.37954e-08 0 2.50086e-08)
(2.64902e-08 -4.0139e-10 0 2.35862e-08 0 2.50351e-08)
(2.6683e-08 -3.95672e-10 0 2.34299e-08 0 2.5055e-08)
(2.68181e-08 -3.89046e-10 0 2.33298e-08 0 2.5072e-08)
(2.69434e-08 -3.81858e-10 0 2.32324e-08 0 2.50868e-08)
(2.7041e-08 -3.67583e-10 0 2.31523e-08 0 2.50974e-08)
(2.7036e-08 -3.48765e-10 0 2.31615e-08 0 2.50996e-08)
(2.69293e-08 -3.33599e-10 0 2.32522e-08 0 2.5092e-08)
(2.67237e-08 -3.11448e-10 0 2.34283e-08 0 2.50785e-08)
(2.637e-08 -2.86182e-10 0 2.37307e-08 0 2.50549e-08)
(2.56085e-08 -2.78606e-10 0 2.44281e-08 0 2.50217e-08)
(2.50547e-08 -2.72392e-10 0 2.49846e-08 0 2.50234e-08)
(2.44241e-08 -2.40987e-10 0 2.57612e-08 0 2.50994e-08)
(2.32494e-08 -1.85247e-10 0 2.73927e-08 0 2.53249e-08)
(2.18065e-08 -1.5633e-10 0 2.98584e-08 0 2.57943e-08)
(2.09939e-08 -1.0893e-10 0 3.18086e-08 0 2.63299e-08)
(2.02149e-08 5.43533e-11 0 3.37032e-08 0 2.69508e-08)
(1.94573e-08 3.07024e-10 0 3.72977e-08 0 2.82804e-08)
(1.81405e-08 7.83577e-10 0 4.61679e-08 0 3.19633e-08)
(1.76302e-08 1.24001e-09 0 6.47504e-08 0 4.07309e-08)
(2.04069e-08 7.37929e-10 0 9.80073e-08 0 5.79876e-08)
(2.92522e-08 -2.50611e-09 0 1.54415e-07 0 8.98486e-08)
(4.11171e-08 1.1373e-08 0 2.12875e-07 0 1.2286e-07)
(4.62767e-08 1.24694e-08 0 2.17922e-07 0 1.28426e-07)
(4.25199e-08 1.0607e-08 0 1.98431e-07 0 1.17328e-07)
(3.34077e-08 3.52951e-09 0 1.51807e-07 0 9.01662e-08)
(2.44621e-08 2.23967e-10 0 1.02568e-07 0 6.23241e-08)
(2.33289e-08 -2.06455e-10 0 6.63452e-08 0 4.42503e-08)
(2.42792e-08 -7.05027e-10 0 4.33278e-08 0 3.35829e-08)
(2.94761e-08 -1.64279e-09 0 3.12943e-08 0 3.01973e-08)
(3.81757e-08 -1.14119e-08 0 3.01764e-08 0 3.4002e-08)
(2.49619e-08 -3.97726e-10 0 2.48512e-08 0 2.49067e-08)
(2.48931e-08 -3.9516e-10 0 2.49273e-08 0 2.49097e-08)
(2.48076e-08 -3.89759e-10 0 2.5017e-08 0 2.49126e-08)
(2.46884e-08 -3.89627e-10 0 2.51464e-08 0 2.49178e-08)
(2.45709e-08 -3.91006e-10 0 2.52835e-08 0 2.49256e-08)
(2.44991e-08 -3.98027e-10 0 2.53697e-08 0 2.49319e-08)
(2.45158e-08 -4.10135e-10 0 2.53621e-08 0 2.49362e-08)
(2.46291e-08 -4.2229e-10 0 2.5259e-08 0 2.49396e-08)