/*--------------------------------*- C++ -*----------------------------------*\
| =========                 |                                                 |
| \\      /  F ield         | OpenFOAM: The Open Source CFD Toolbox           |
|  \\    /   O peration     | Version:  v1912                                 |
|   \\  /    A nd           | Website:  www.openfoam.com                      |
|    \\/     M anipulation  |                                                 |
\*---------------------------------------------------------------------------*/
FoamFile
{
    version     2.0;
    format      ascii;
    class       volScalarField;
    location    "50";
    object      alpha.water;
}
// * * * * * * * * * * * * * * * * * * * * * * * * * * * * * * * * * * * * * //

dimensions      [0 0 0 0 0 0 0];


internalField   nonuniform List<scalar> 
14268
(
1
1
1
1
1
1
1
1
1
1
1
1
1
1
1
1
1
1
1
1
1
1
1
1
1
1
1
1
1
1
1
1
1
1
1
1
1
1
1
1
1
1
1
1
1
1
1
1
1
1
1
1
1
1
1
1
1
1
1
1
1
1
1
1
1
1
1
1
1
1
1
1
1
1
1
1
1
1
1
1
1
1
1
1
1
1
1
1
1
1
1
1
1
1
1
1
1
1
1
1
1
1
1
1
1
1
1
1
1
1
1
1
1
1
1
1
1
1
1
1
1
1
1
1
1
1
1
1
1
1
1
1
1
1
1
1
1
1
1
1
1
1
1
1
1
1
1
1
1
1
1
1
1
1
1
1
1
1
1
1
1
1
1
1
1
1
1
1
1
1
1
1
1
1
1
1
1
1
1
1
1
1
1
1
1
1
1
1
1
1
1
1
1
1
1
1
1
1
1
1
1
1
1
1
1
1
1
1
1
1
1
1
1
1
1
1
1
1
1
1
1
1
1
1
1
1
1
1
1
1
1
1
1
1
1
1
1
1
1
1
1
1
1
1
1
1
1
1
1
1
1
1
1
1
1
1
1
1
1
1
1
1
1
1
1
1
1
1
1
1
1
1
0.909851
0.915644
0.921386
0.926954
0.932405
0.937588
0.942367
0.946532
0.34688
0.361741
0.375893
0.389735
0.403322
0.416415
0.428078
0.439199
0.00968782
0.0111825
0.0133339
0.0158884
0.0183162
0.0205079
0.0227178
0.0249504
4.12449e-05
6.95469e-05
0.000115195
0.000179558
0.000253148
0.000325631
0.000385081
0.00044565
-8.82284e-47
-2.33738e-47
-1.48251e-48
-2.27161e-43
5.39642e-42
4.32594e-42
4.30304e-42
5.69822e-41
5.88812e-27
6.82847e-27
1.13053e-26
3.7002e-24
4.13395e-23
2.13504e-22
8.78258e-22
2.317e-21
3.96786e-27
6.06295e-26
9.59431e-24
8.39333e-23
6.86031e-22
2.3145e-21
5.59842e-21
8.93036e-21
8.61457e-28
8.19372e-25
3.70748e-23
2.25192e-22
1.53201e-21
3.7551e-21
3.75202e-21
2.75241e-21
5.88594e-27
1.87613e-24
4.95983e-23
2.56399e-22
2.66861e-22
7.94511e-22
1.44199e-22
5.84647e-22
8.47923e-27
1.84471e-24
3.80897e-24
5.53133e-24
9.0629e-27
5.84375e-29
2.03471e-26
4.83997e-23
1.10645e-27
1.31126e-27
2.88964e-40
2.88964e-40
9.18561e-30
5.54789e-29
4.66327e-29
-8.40578e-45
9.47053e-31
2.51154e-40
2.58965e-37
1.69481e-35
7.8886e-35
4.80359e-34
1.2975e-37
-1.07377e-38
-1.00865e-38
2.54281e-40
4.05552e-37
1.4514e-36
2.22866e-36
8.0385e-37
-4.87312e-39
-2.11492e-38
-9.07229e-39
-1.56242e-40
-6.39031e-42
-2.12388e-41
-1.45084e-40
-8.97295e-40
-4.55562e-39
-1.78515e-38
-2.4083e-39
-5.66592e-41
-4.87569e-42
-1.9928e-41
-1.12472e-40
-5.85954e-40
-2.61063e-39
-9.59795e-39
-4.70226e-40
-1.50534e-41
-1.88108e-42
-7.94558e-42
-4.25996e-41
-2.1549e-40
-9.64765e-40
-3.62256e-39
-6.90752e-41
-2.95086e-42
-5.95735e-43
-2.81461e-42
-1.49026e-41
-7.27201e-41
-3.13235e-40
-1.15152e-39
-8.48139e-42
-4.72024e-43
-1.25389e-43
-6.28202e-43
-3.41494e-42
-1.70773e-41
-7.62487e-41
-2.90685e-40
-8.41011e-43
-6.07626e-44
-2.55893e-44
-1.40717e-43
-7.79196e-43
-3.89772e-42
-1.72815e-41
-6.57381e-41
-7.19062e-44
-6.62576e-45
-3.71557e-45
-2.1974e-44
-1.2804e-43
-6.7179e-43
-3.12814e-42
-1.24064e-41
-5.15089e-45
-6.15352e-46
-5.5472e-46
-3.5476e-45
-2.13112e-44
-1.13889e-43
-5.35565e-43
-2.14397e-42
-3.21469e-46
-4.92055e-47
-6.13731e-47
-4.23848e-46
-2.70818e-45
-1.53304e-44
-7.60998e-44
-3.18476e-43
-1.72367e-47
-3.54895e-48
-7.11625e-48
-5.24681e-47
-3.47639e-46
-2.02431e-45
-1.02619e-44
-4.37368e-44
-8.05144e-49
-2.23516e-49
-6.33283e-49
-5.02539e-48
-3.55476e-47
-2.20362e-46
-1.18191e-45
-5.27419e-45
-3.30103e-50
-1.36889e-50
-5.88783e-50
-4.94099e-49
-3.64082e-48
-2.33785e-47
-1.29055e-46
-5.9078e-46
-1.18554e-51
-7.46436e-52
-4.34115e-51
-3.90674e-50
-3.07532e-49
-2.10294e-48
-1.22814e-47
-5.89084e-47
-3.85856e-53
-4.2541e-53
-3.29425e-52
-3.12334e-51
-2.56772e-50
-1.8257e-49
-1.10326e-48
-5.4606e-48
-1.11982e-54
-2.1695e-54
-2.0551e-53
-2.07787e-52
-1.81792e-51
-1.37339e-50
-8.76937e-50
-4.5518e-49
-3.16672e-56
-1.16885e-55
-1.28678e-54
-1.36622e-53
-1.2517e-52
-9.87068e-52
-6.5507e-51
-3.52719e-50
-8.62773e-58
-5.52043e-57
-6.81715e-56
-7.69934e-55
-7.49559e-54
-6.26267e-53
-4.38319e-52
-2.47737e-51
-2.63449e-59
-2.66154e-58
-3.55965e-57
-4.21685e-56
-4.30116e-55
-3.76048e-54
-2.7458e-53
-1.61664e-52
-8.20809e-61
-1.11431e-59
-1.60821e-58
-2.02319e-57
-2.18752e-56
-2.02151e-55
-1.55536e-54
-9.62038e-54
-2.8615e-62
-4.61764e-61
-7.04259e-60
-9.29101e-59
-1.05432e-57
-1.0219e-56
-8.22606e-56
-5.31703e-55
-9.25773e-64
-1.67446e-62
-2.71854e-61
-3.79754e-60
-4.56854e-59
-4.67231e-58
-3.96152e-57
-2.69282e-56
-3.0392e-65
-5.8864e-64
-1.0037e-62
-1.4729e-61
-1.86259e-60
-1.99973e-59
-1.77871e-58
-1.26707e-57
-8.83803e-67
-1.8342e-65
-3.31239e-64
-5.14371e-63
-6.88876e-62
-7.80184e-61
-7.31406e-60
-5.48507e-59
-2.50487e-68
-5.46985e-67
-1.03693e-65
-1.69525e-64
-2.38887e-63
-2.84282e-62
-2.80148e-61
-2.20698e-60
-6.29082e-70
-1.45863e-68
-2.92744e-67
-5.07299e-66
-7.55308e-65
-9.48675e-64
-9.86706e-63
-8.19615e-62
-1.51902e-71
-3.70178e-70
-7.811e-69
-1.42532e-67
-2.23266e-66
-2.95423e-65
-3.23483e-64
-2.82879e-63
-3.27992e-73
-8.4708e-72
-1.89202e-70
-3.65388e-69
-6.04937e-68
-8.46385e-67
-9.78656e-66
-9.03928e-65
-6.76589e-75
-1.83862e-73
-4.32412e-72
-8.79958e-71
-1.53467e-69
-2.26345e-68
-2.75613e-67
-2.6891e-66
-1.25735e-76
-3.62097e-75
-9.01916e-74
-1.9429e-72
-3.58393e-71
-5.588e-70
-7.18786e-69
-7.43426e-68
-2.18314e-78
-6.64007e-77
-1.74765e-75
-3.98005e-74
-7.75861e-73
-1.27818e-71
-1.73808e-70
-1.90711e-69
-8.13745e-81
-2.60387e-79
-7.21233e-78
-1.72836e-76
-3.54647e-75
-6.15445e-74
-8.81658e-73
-1.01959e-71
-1.04376e-83
-3.81525e-82
-1.20655e-80
-3.29518e-79
-7.70469e-78
-1.52121e-76
-2.47683e-75
-3.24538e-74
-7.6331e-87
-3.31668e-85
-1.24213e-83
-4.00046e-82
-1.0996e-80
-2.54093e-79
-4.82063e-78
-7.32037e-77
-3.50648e-90
-1.84237e-88
-8.31717e-87
-3.21766e-85
-1.05832e-83
-2.9115e-82
-6.54355e-81
-1.17178e-79
-8.42325e-94
-5.5947e-92
-3.17908e-90
-1.54022e-88
-6.30501e-87
-2.14156e-85
-5.89775e-84
-1.28639e-82
-1.10361e-97
-9.59837e-96
-7.1215e-94
-4.48112e-92
-2.3634e-90
-1.02467e-88
-3.57283e-87
-9.80934e-86
-6.89446e-102
-8.3029e-100
-8.50053e-98
-7.32265e-96
-5.23668e-94
-3.05024e-92
-1.41896e-90
-5.16678e-89
-1.98137e-106
-3.49093e-104
-5.24114e-102
-6.57571e-100
-6.79177e-98
-5.67251e-96
-3.76128e-94
-1.93709e-92
-1.88921e-111
-5.1137e-109
-1.25022e-106
-2.58454e-104
-4.38519e-102
-5.96186e-100
-6.34241e-98
-5.12675e-96
-1.05309e-117
-4.48948e-115
-2.35296e-112
-1.19339e-109
-5.12265e-107
-1.73723e-104
-4.40084e-102
-7.76331e-100
1
1
1
1
1
1
1
1
1
1
1
1
1
1
1
1
1
1
1
1
1
1
1
1
1
1
1
1
1
1
1
1
1
1
1
1
1
1
1
1
1
1
1
1
1
1
1
1
1
1
1
1
1
1
1
1
1
1
1
1
1
1
1
1
1
1
1
1
1
1
1
1
1
1
1
1
1
1
1
1
1
1
1
1
1
1
1
1
1
1
1
1
1
1
1
1
1
1
1
1
1
1
1
1
1
1
1
1
1
1
1
1
1
1
1
1
1
1
1
1
1
1
1
1
1
1
1
1
1
1
1
1
1
1
1
1
1
1
1
1
1
1
1
1
1
1
1
1
1
1
1
1
1
1
1
1
1
1
1
1
1
1
1
1
1
1
1
1
1
1
1
1
1
1
1
1
1
1
1
1
1
1
1
1
1
1
1
1
1
1
1
1
1
1
1
1
1
1
1
1
1
1
1
1
1
1
1
1
1
1
1
1
1
1
1
1
1
1
1
1
1
1
1
1
1
1
1
1
1
1
1
1
1
1
1
1
1
1
1
1
1
1
1
1
1
1
1
1
1
1
1
1
1
1
1
1
1
1
1
1
1
1
1
1
1
1
1
1
1
1
1
1
1
1
1
1
1
1
1
1
1
1
1
1
1
1
1
1
1
1
1
1
1
1
1
1
1
1
1
1
1
1
1
1
1
1
1
1
1
1
1
1
1
1
1
1
1
1
1
1
1
1
1
1
1
1
1
1
1
1
1
1
1
1
1
1
1
1
1
1
1
1
1
1
1
1
1
1
1
1
1
1
1
1
1
1
1
1
1
1
1
1
1
1
1
1
1
1
1
1
1
1
1
1
1
1
1
1
1
1
1
1
1
1
1
1
1
1
1
1
1
1
1
1
1
1
1
1
1
1
1
1
1
1
1
1
1
1
1
1
1
1
1
1
1
1
1
1
1
1
1
1
1
1
1
1
1
1
1
1
1
1
1
1
1
1
1
1
1
1
1
1
1
1
1
1
1
1
1
1
1
1
1
1
1
1
1
1
1
1
1
1
1
1
1
1
1
1
1
1
1
1
1
1
1
1
1
1
1
1
1
1
1
1
1
1
1
1
1
1
1
1
1
1
1
1
1
1
1
1
1
1
1
1
1
1
1
1
1
1
1
1
1
1
1
1
1
1
1
1
1
1
1
1
1
1
1
1
1
1
1
1
1
1
1
1
1
1
1
1
1
1
1
1
1
1
1
1
1
1
1
1
1
1
1
1
1
1
1
1
1
1
1
1
1
1
1
1
1
1
1
1
1
1
1
1
1
1
1
1
1
1
1
1
1
1
1
1
1
1
1
1
1
1
1
1
1
1
1
1
1
1
1
1
1
1
1
1
1
1
1
1
1
1
1
1
1
1
1
1
1
1
1
1
1
1
1
1
1
1
1
1
1
1
1
1
1
1
1
1
1
1
1
1
1
1
1
1
1
1
1
1
1
1
1
1
1
1
1
1
1
1
1
1
1
1
1
1
1
1
1
1
1
1
1
1
1
1
1
1
1
1
1
1
1
1
1
1
1
1
1
1
1
1
1
1
1
1
1
1
1
1
1
1
1
1
1
1
1
1
1
1
1
1
1
1
1
1
1
1
1
1
1
1
1
1
1
1
1
1
1
1
1
1
1
1
1
1
1
1
1
1
1
1
1
1
1
1
1
1
1
1
1
1
1
1
1
1
1
1
1
1
1
1
1
1
1
1
1
1
1
1
1
1
1
1
1
1
1
1
1
1
1
1
1
1
1
1
1
1
1
1
1
1
1
1
1
1
1
1
1
1
1
1
1
1
1
1
1
1
1
1
1
1
1
1
1
1
1
1
1
1
1
1
1
1
1
1
1
1
1
1
1
1
1
1
1
1
1
1
1
1
1
1
1
1
1
1
1
1
1
1
1
1
1
1
1
1
1
1
1
1
1
1
1
1
1
1
1
1
1
1
1
1
1
1
1
1
1
1
1
1
1
1
1
1
1
1
1
1
1
1
1
1
1
1
1
1
1
1
1
1
1
1
1
1
1
1
1
1
1
1
1
1
1
1
1
1
1
1
1
1
1
1
1
1
1
1
1
1
1
1
1
1
1
1
1
1
1
1
1
1
1
1
1
1
1
1
1
1
1
1
1
1
1
1
1
1
1
1
1
1
1
1
1
1
1
1
1
1
1
1
1
1
1
1
1
1
1
1
1
1
1
1
1
1
1
1
1
1
1
1
1
1
1
1
1
1
1
1
1
1
1
1
1
1
1
1
1
1
1
1
1
1
1
1
1
1
1
1
1
1
1
1
1
1
1
1
1
1
1
1
1
1
1
1
1
1
1
1
1
1
1
1
1
1
1
1
1
1
1
1
1
1
1
1
1
1
1
1
1
1
1
1
1
1
1
1
1
1
1
1
1
1
1
1
1
1
1
1
1
1
1
1
1
1
1
1
1
1
1
1
1
1
1
1
1
1
1
1
1
1
1
1
1
1
1
1
1
1
1
1
1
1
1
1
1
1
1
1
1
1
1
1
1
1
1
1
1
1
1
1
1
1
1
1
1
1
1
1
1
1
1
1
1
1
1
1
1
1
1
1
1
1
1
1
1
1
1
1
1
1
1
1
1
1
1
1
1
1
1
1
1
1
1
1
1
1
1
1
1
1
1
1
1
1
1
1
1
1
1
1
1
1
1
1
1
1
1
1
1
1
1
1
1
1
1
1
1
1
1
1
1
1
1
1
1
1
1
1
1
1
1
1
1
1
1
1
1
1
1
1
1
1
1
1
1
1
1
1
1
1
1
1
1
1
1
1
1
1
1
1
1
1
1
1
1
1
1
1
1
1
1
1
1
1
1
1
1
1
1
1
1
1
1
1
1
1
1
1
1
1
1
1
1
1
1
1
1
1
1
1
1
1
1
1
1
1
1
1
1
1
1
1
1
1
1
1
1
1
1
1
1
1
1
1
1
1
1
1
1
1
1
1
1
1
1
1
1
1
1
1
1
1
1
1
1
1
1
1
1
1
1
1
1
1
1
1
1
1
1
1
1
1
1
1
1
1
1
1
1
1
1
1
1
1
1
1
1
1
1
1
1
1
1
1
1
1
1
1
1
1
1
1
1
1
1
1
1
1
1
1
1
1
1
1
1
1
1
1
1
1
1
1
1
1
1
1
1
1
1
1
1
1
1
1
1
1
1
1
1
1
1
1
1
1
1
1
1
1
1
1
1
1
1
1
1
1
1
1
1
1
1
1
1
1
1
1
1
1
1
1
1
1
1
1
1
1
1
1
1
1
1
1
1
1
1
1
1
1
1
1
1
1
1
1
1
1
1
1
1
1
1
1
1
1
1
1
1
1
1
1
1
1
1
1
1
1
1
1
1
1
1
1
1
1
1
1
1
1
1
1
1
1
1
1
1
1
1
1
1
1
1
1
1
1
1
1
1
1
1
1
1
1
1
1
1
1
1
1
1
1
1
1
1
1
1
1
1
1
1
1
1
1
1
1
1
1
1
1
1
1
1
1
1
1
1
1
1
1
1
1
1
1
1
1
1
1
1
1
1
1
1
1
1
1
1
1
1
1
1
1
1
1
1
1
1
1
1
1
1
1
1
1
1
1
1
1
1
1
1
1
1
1
1
1
1
1
1
1
1
1
1
1
1
1
1
1
1
1
1
1
1
1
1
1
1
1
1
1
1
1
1
1
1
1
1
1
1
1
1
1
1
1
1
1
1
1
1
1
1
1
1
1
1
1
1
1
1
1
1
1
1
1
1
1
1
1
1
1
1
1
1
1
1
1
1
1
1
1
1
1
1
1
1
1
1
1
1
1
1
1
1
1
1
1
1
1
1
1
1
1
1
1
1
1
1
1
1
1
1
1
1
1
1
1
1
1
1
1
1
1
1
1
1
1
1
1
1
1
1
1
1
1
1
1
1
1
1
1
1
1
1
1
1
1
1
1
1
1
1
1
1
1
1
1
1
1
1
1
1
1
1
1
1
1
1
1
1
1
1
1
1
1
1
1
1
1
1
1
1
1
1
1
1
1
1
1
1
1
1
1
1
1
1
1
1
1
1
1
1
1
1
1
1
1
1
1
1
1
1
1
1
1
1
1
1
1
1
1
1
1
1
1
1
1
1
1
1
1
1
1
1
1
1
1
1
1
1
1
1
1
1
1
1
1
1
1
1
1
1
1
1
1
1
1
1
1
1
1
1
1
1
1
1
1
1
1
1
1
1
1
1
1
1
1
1
1
1
1
1
1
1
1
1
1
1
1
1
1
1
1
1
1
1
1
1
1
1
1
1
1
1
1
1
1
1
1
1
1
1
1
1
1
1
1
1
1
1
1
1
1
1
1
1
1
1
1
1
1
1
1
1
1
1
1
1
1
1
1
1
1
1
1
1
1
1
1
1
1
1
1
1
1
1
1
1
1
1
1
1
1
1
1
1
1
1
1
1
1
1
1
1
1
1
1
1
1
1
1
1
1
1
1
1
1
1
1
1
1
1
1
1
1
1
1
1
1
1
1
1
1
1
1
1
1
1
1
1
1
1
1
1
1
1
1
1
1
1
1
1
1
1
1
1
1
1
1
1
1
1
1
1
1
1
1
1
1
1
1
1
1
1
1
1
1
1
1
1
1
1
1
1
1
1
1
1
1
1
1
1
1
1
1
1
1
1
1
1
1
1
1
1
1
1
1
1
1
1
1
1
1
1
1
1
1
1
1
1
1
1
1
1
1
1
1
1
1
1
1
1
1
1
1
1
1
1
1
1
1
1
1
1
1
1
1
1
1
1
1
1
1
1
1
1
1
1
1
1
1
1
1
1
1
1
1
1
1
1
1
1
1
1
1
1
1
1
1
1
1
1
1
1
1
1
1
1
1
1
1
1
1
1
1
1
1
1
1
1
1
1
1
1
1
1
1
1
1
1
1
1
1
1
1
1
1
1
1
1
1
1
1
1
1
1
1
1
1
1
1
1
1
1
1
1
1
1
1
1
1
1
1
1
1
1
1
1
1
1
1
1
1
1
1
1
1
1
1
1
1
1
1
1
1
1
1
1
1
1
1
1
1
1
1
1
1
1
1
1
1
1
1
1
1
1
1
1
1
1
1
1
1
1
1
1
1
1
1
1
1
1
1
1
1
1
1
1
1
1
1
1
1
1
1
1
1
1
1
1
1
1
1
1
1
1
1
1
1
1
1
1
1
1
1
1
1
1
1
1
1
1
1
1
1
1
1
1
1
1
1
1
1
1
1
1
1
1
1
1
1
1
1
1
1
1
1
1
1
1
1
1
1
1
1
1
1
1
1
1
1
1
1
1
1
1
1
1
1
1
1
1
1
1
1
1
1
1
1
1
1
1
1
1
1
1
1
1
1
1
1
1
1
1
1
1
1
1
1
1
1
1
1
1
1
1
1
1
1
1
1
1
1
1
1
1
1
1
1
1
1
1
1
1
1
1
1
1
1
1
1
1
1
1
1
1
1
1
1
1
1
1
1
1
1
1
1
1
1
1
1
1
1
1
1
1
1
1
1
1
1
1
1
1
1
1
1
1
1
1
1
1
1
1
1
1
1
1
1
1
1
1
1
1
1
1
1
1
1
1
1
1
1
1
1
1
1
1
1
1
1
1
1
1
1
1
1
1
1
1
1
1
1
1
1
1
1
1
1
1
1
1
1
1
1
1
1
1
1
1
1
1
1
1
1
1
1
1
1
1
1
1
1
1
1
1
1
1
1
1
1
1
1
1
1
1
1
1
1
1
1
1
1
1
1
1
1
1
1
1
1
1
1
1
1
1
1
1
1
1
1
1
1
1
1
1
1
1
1
1
1
1
1
1
1
1
1
1
1
1
1
1
1
1
1
1
1
1
1
1
1
1
1
1
1
1
1
1
1
1
1
1
1
1
1
1
1
1
1
1
1
1
1
1
1
1
1
1
1
1
1
1
1
1
1
1
1
1
1
1
1
1
1
1
1
1
1
1
1
1
1
1
1
1
1
1
1
1
1
1
1
1
1
1
1
1
1
1
1
1
1
1
1
1
1
1
1
1
1
1
1
1
1
1
1
1
1
1
1
1
1
1
1
1
1
1
1
1
1
1
1
1
1
1
1
1
1
1
1
1
1
1
1
1
1
1
1
1
1
1
1
1
1
1
1
1
1
1
1
1
1
1
1
1
1
1
1
1
1
1
1
1
1
1
1
1
1
1
1
1
1
1
1
1
1
1
1
1
1
1
1
1
1
1
1
1
1
1
1
1
1
1
1
1
1
1
1
1
1
1
1
1
1
1
1
1
1
1
1
1
1
1
1
1
1
1
1
1
1
1
1
1
1
1
1
1
1
1
1
1
1
1
1
1
1
1
1
1
1
1
1
1
1
1
1
1
1
1
1
1
1
1
1
1
1
1
1
1
1
1
1
1
1
1
1
1
1
1
1
1
1
1
1
1
1
1
1
1
1
1
1
1
1
1
1
1
1
1
1
1
1
1
1
1
1
1
1
1
1
1
1
1
1
1
1
1
1
1
1
1
1
1
1
1
1
1
1
1
1
1
1
1
1
1
1
1
1
1
1
1
1
1
1
1
1
1
1
1
1
1
1
1
1
1
1
1
1
1
1
1
1
1
1
1
1
1
1
1
1
1
1
1
1
1
1
1
1
1
1
1
1
1
1
1
1
1
1
1
1
1
1
1
1
1
1
1
1
1
1
1
1
1
1
1
1
1
1
1
1
1
1
1
1
1
1
1
1
1
1
1
1
1
1
1
1
1
1
1
1
1
1
1
1
1
1
1
1
1
1
1
1
1
1
1
1
1
1
1
1
1
1
1
1
1
1
1
1
1
1
1
1
1
1
1
1
1
1
1
1
1
1
1
1
1
1
1
1
1
1
1
1
1
1
1
1
1
1
1
1
1
1
1
1
1
1
1
1
1
1
1
1
1
1
1
1
1
1
1
1
1
1
1
1
1
1
1
1
1
1
1
1
1
1
1
1
1
1
1
1
1
1
1
1
1
1
1
1
1
1
1
1
1
1
1
1
1
1
1
1
1
1
1
1
1
1
1
1
1
1
1
1
1
1
1
1
1
1
1
1
1
1
1
1
1
1
1
1
1
1
1
1
1
1
1
1
1
1
1
1
1
1
1
1
1
1
1
1
1
1
1
1
1
1
1
1
1
1
1
1
1
1
1
1
1
1
1
1
1
1
1
1
1
1
1
1
1
1
1
1
1
1
1
1
1
1
1
1
1
1
1
1
1
1
1
1
1
1
1
1
1
1
1
1
1
1
1
1
1
1
1
1
1
1
1
1
1
1
1
1
1
1
1
1
1
1
1
1
1
1
1
1
1
1
1
1
1
1
1
1
1
1
1
1
1
1
1
1
1
1
1
1
1
1
1
1
1
1
1
1
1
1
1
1
1
1
1
1
1
1
1
1
1
1
1
1
1
1
1
1
1
1
1
1
1
1
1
1
1
1
1
1
1
1
1
1
1
1
1
1
1
1
1
1
1
1
1
1
1
1
1
1
1
1
1
1
1
1
1
1
1
1
1
1
1
1
1
1
1
1
1
1
1
1
1
1
1
1
1
1
1
1
1
1
1
1
1
1
1
1
1
1
1
1
1
1
1
1
1
1
1
1
1
1
1
1
1
1
1
1
1
1
1
1
1
1
1
1
1
1
1
1
1
1
1
1
1
1
1
1
1
1
1
1
1
1
1
1
1
1
1
1
1
1
1
1
1
1
1
1
1
1
1
1
1
1
1
1
1
1
1
1
1
1
1
1
1
1
1
1
1
1
1
1
1
1
1
1
1
1
1
1
1
1
1
1
1
1
1
1
1
1
1
1
1
1
1
1
1
1
1
1
1
1
1
1
1
1
1
1
1
1
1
1
1
1
1
1
1
1
1
1
1
1
1
1
1
1
1
1
1
1
1
1
1
1
1
1
1
1
1
1
1
1
1
1
1
1
1
1
1
1
1
1
1
1
1
1
1
1
1
1
1
1
1
1
1
1
1
1
1
1
1
1
1
1
1
1
1
1
1
1
1
1
1
1
1
1
1
1
1
1
1
1
1
1
1
1
1
1
1
1
1
1
1
1
1
1
1
1
1
1
1
1
1
1
1
1
1
1
1
1
1
1
1
1
1
1
1
1
1
1
1
1
1
1
1
1
1
1
1
1
1
1
1
1
1
1
1
1
1
1
1
1
1
1
1
1
1
1
1
1
1
1
1
1
1
1
1
1
1
1
1
1
1
1
1
1
1
1
1
1
1
1
1
1
1
1
1
1
1
1
1
1
1
1
1
1
1
1
1
1
1
1
1
1
1
1
1
1
1
1
1
1
1
1
1
1
1
1
1
1
1
1
1
1
1
1
1
1
1
1
1
1
1
1
1
1
1
1
1
1
1
1
1
1
1
1
1
1
1
1
1
1
1
1
1
1
1
1
1
1
1
1
1
1
1
1
1
1
1
1
1
1
1
1
1
1
1
1
1
1
1
1
1
1
1
1
1
1
1
1
1
1
1
1
1
1
1
1
1
1
1
1
1
1
1
1
1
1
1
1
1
1
1
1
1
1
1
1
1
1
1
1
1
1
1
1
1
1
1
1
1
1
1
1
1
1
1
1
1
1
1
1
1
1
1
1
1
1
1
1
1
1
1
1
1
1
1
1
1
1
1
1
1
1
1
1
1
1
1
1
1
1
1
1
1
1
1
1
1
1
1
1
1
1
1
1
1
1
1
1
1
1
1
1
1
1
1
1
1
1
1
1
1
1
1
1
1
1
1
1
1
1
1
1
1
1
1
1
1
1
1
1
1
1
1
1
1
1
1
1
1
1
1
1
1
1
1
1
1
1
1
1
1
1
1
1
1
1
1
1
1
1
1
1
1
1
1
1
1
1
1
1
1
1
1
1
1
1
1
1
1
1
1
1
1
1
1
1
1
1
1
1
1
1
1
1
1
1
1
1
1
1
1
1
1
1
1
1
1
1
1
1
1
1
1
1
1
1
1
1
1
1
1
1
1
1
1
1
1
1
1
1
1
1
1
1
1
1
1
1
1
1
1
1
1
1
1
1
1
1
1
1
1
1
1
1
1
1
1
1
1
1
1
1
1
1
1
1
1
1
1
1
1
1
1
1
1
1
1
1
1
1
1
1
1
1
1
1
1
1
1
1
1
1
1
1
1
1
1
1
1
1
1
1
1
1
1
1
1
1
1
1
1
1
1
1
1
1
1
1
1
1
1
1
1
1
1
1
1
1
1
1
1
1
1
1
1
1
1
1
1
1
1
1
1
1
1
1
1
1
1
1
1
1
1
1
1
1
1
1
1
1
1
1
1
1
1
1
1
1
1
1
1
1
1
1
1
1
1
1
1
1
1
1
1
1
1
1
1
1
1
1
1
1
1
1
1
1
1
1
1
1
1
1
1
1
1
1
1
1
1
1
1
1
1
1
1
1
1
1
1
1
1
1
1
1
1
1
1
1
1
1
1
1
1
1
1
1
1
1
1
1
1
1
1
1
1
1
1
1
1
1
1
1
1
1
1
1
1
1
1
1
1
1
1
1
1
1
1
1
1
1
1
1
1
1
1
1
1
1
1
1
1
1
1
1
1
1
1
1
1
1
1
1
1
1
1
1
1
1
1
1
1
1
1
1
1
1
1
1
1
1
1
1
1
1
1
1
1
1
1
1
1
1
1
1
1
1
1
1
1
1
1
1
1
1
1
1
1
1
1
1
1
1
1
1
1
1
1
1
1
1
1
1
1
1
1
1
1
1
1
1
1
1
1
1
1
1
1
1
1
1
1
1
1
1
1
1
1
1
1
1
1
1
1
1
1
1
1
1
1
1
1
1
1
1
1
1
1
1
1
1
1
1
1
1
1
1
1
1
1
1
1
1
1
1
1
1
1
1
1
1
1
1
1
1
1
1
1
1
1
1
1
1
1
1
1
1
1
1
1
1
1
1
1
1
1
1
1
1
1
1
1
1
1
1
1
1
1
1
1
1
1
1
1
1
1
1
1
1
1
1
1
1
1
1
1
1
1
1
1
1
1
1
1
1
1
1
1
1
1
1
1
1
1
1
1
1
1
1
1
1
1
1
1
1
1
1
1
1
1
1
1
1
1
1
1
1
1
1
1
1
1
1
1
1
1
1
1
1
1
1
1
1
1
1
1
1
1
1
1
1
1
1
1
1
1
1
1
1
1
1
1
1
1
1
1
1
1
1
1
1
1
1
1
1
1
1
1
1
1
1
1
1
1
1
1
1
1
1
1
1
1
1
1
1
1
1
1
1
1
1
1
1
1
1
1
1
1
1
1
1
1
1
1
1
1
1
1
1
1
1
1
1
1
1
1
1
1
1
1
1
1
1
1
1
1
1
1
1
1
1
1
1
1
1
1
1
1
1
1
1
1
1
1
1
1
1
1
1
1
1
1
1
1
1
1
1
1
1
1
1
1
1
1
1
1
1
1
1
1
1
1
1
1
1
1
1
1
1
1
1
1
1
1
1
1
1
1
1
1
1
1
1
1
1
1
1
1
1
1
1
1
1
1
1
1
1
1
1
1
1
1
1
1
1
1
1
1
1
1
1
1
1
1
1
1
1
1
1
1
1
1
1
1
1
1
1
1
1
1
1
1
1
1
1
1
1
1
1
1
1
1
1
1
1
1
1
1
1
1
1
1
1
1
1
1
1
1
1
1
1
1
1
1
1
1
1
1
1
1
1
1
1
1
1
1
1
1
1
1
1
1
1
1
1
1
1
1
1
1
1
1
1
1
1
1
1
1
1
1
1
1
1
1
1
1
1
1
1
1
1
1
1
1
1
1
1
1
1
1
1
1
1
1
1
1
1
1
1
1
1
1
1
1
1
1
1
1
1
1
1
1
1
1
1
1
1
1
1
1
1
1
1
1
1
1
1
1
1
1
1
1
1
1
1
1
1
1
1
1
1
1
1
1
1
1
1
1
1
1
1
1
1
1
1
1
1
1
1
1
1
1
1
1
1
1
1
1
1
1
1
1
1
1
1
1
1
1
1
1
1
1
1
1
1
1
1
1
1
1
1
1
1
1
1
1
1
1
1
1
1
1
1
1
1
1
1
1
1
1
1
1
1
1
1
1
1
1
1
1
1
1
1
1
1
1
1
1
1
1
1
1
1
1
1
1
1
1
1
1
1
1
1
1
1
1
1
1
1
1
1
1
1
1
1
1
1
1
1
1
1
1
1
1
1
1
1
1
1
1
1
1
1
1
1
1
1
1
1
1
1
1
1
1
1
1
1
1
1
1
1
1
1
1
1
1
1
1
1
1
1
1
1
1
1
1
1
1
1
1
1
1
1
1
1
1
1
1
1
1
1
1
1
1
1
1
1
1
1
1
1
1
1
1
1
1
1
1
1
1
1
1
1
1
1
1
1
1
1
1
1
1
1
1
1
1
1
1
1
1
1
1
1
1
1
1
1
1
1
1
1
1
1
1
1
1
1
1
1
1
1
1
1
1
1
1
1
1
1
1
1
1
1
1
1
1
1
1
1
1
1
1
1
1
1
1
1
1
1
1
1
1
1
1
1
1
1
1
1
1
1
1
1
1
1
1
1
1
1
1
1
1
1
1
1
1
1
1
1
1
1
1
1
1
1
1
1
1
1
1
1
1
1
1
1
1
1
1
1
1
1
1
1
1
1
1
1
1
1
1
1
1
1
1
1
1
1
1
1
1
1
1
1
1
1
1
1
1
1
1
1
1
1
1
1
1
1
1
1
1
1
1
1
1
1
1
1
1
1
1
1
1
1
1
1
1
1
1
1
1
1
1
1
1
1
1
1
1
1
1
1
1
1
1
1
1
1
1
1
1
1
1
1
1
1
1
1
1
1
1
1
1
1
1
1
1
1
1
1
1
1
1
1
1
1
1
1
1
1
1
1
1
1
1
1
1
1
1
0.999915
0.999917
0.999955
0.999912
0.999854
0.952262
0.959624
0.964718
0.968326
0.971346
0.974158
0.976629
0.978566
0.980081
0.981308
0.982127
0.982595
0.982927
0.983137
0.983249
0.983327
0.983395
0.983404
0.98334
0.983201
0.98299
0.982672
0.982185
0.981491
0.980592
0.979389
0.977771
0.975863
0.973465
0.97071
0.969105
0.968667
0.967913
0.966497
0.96436
0.961064
0.956277
0.950578
0.944488
0.938351
0.932454
0.927082
0.92254
0.919067
0.916701
0.915325
0.914731
0.914569
0.914484
0.914393
0.914398
0.914386
0.914327
0.914179
0.913946
0.913588
0.913044
0.912211
0.911082
0.909629
0.907758
0.905562
0.903109
0.900403
0.897414
0.894214
0.891
0.888051
0.885648
0.884012
0.883326
0.883728
0.885191
0.887636
0.890984
0.895172
0.900049
0.905415
0.910998
0.916512
0.9217
0.92639
0.930479
0.93392
0.936692
0.938787
0.940205
0.940951
0.941063
0.940566
0.939634
0.938505
0.937467
0.936841
0.936889
0.937662
0.939198
0.941546
0.944732
0.948665
0.953054
0.95748
0.96154
0.964967
0.967636
0.969503
0.970569
0.970806
0.969818
0.967601
0.964371
0.960388
0.955997
0.9516
0.947564
0.944122
0.941373
0.939233
0.937324
0.935049
0.931793
0.92703
0.92045
0.911986
0.901519
0.889278
0.876151
0.863402
0.852294
0.844125
0.840043
0.841015
0.848002
0.859535
0.873724
0.888525
0.902013
0.912962
0.92145
0.92733
0.930201
0.929797
0.925895
0.91995
0.912355
0.901373
0.884996
0.863315
0.8394
0.814706
0.791714
0.777891
0.779334
0.798109
0.830869
0.864966
0.45488
0.477727
0.500105
0.521024
0.540711
0.55958
0.577332
0.593475
0.608145
0.621363
0.632126
0.640254
0.64712
0.65299
0.657254
0.659519
0.659945
0.658855
0.656502
0.653253
0.649036
0.643535
0.636346
0.627174
0.616033
0.603207
0.588863
0.572698
0.55495
0.535147
0.51313
0.490464
0.468587
0.447169
0.425903
0.405253
0.386337
0.369404
0.354277
0.340591
0.328176
0.317146
0.30769
0.299964
0.294122
0.290306
0.288473
0.288887
0.29094
0.294154
0.297684
0.300831
0.303328
0.305159
0.306508
0.307355
0.307534
0.306945
0.305473
0.303025
0.299581
0.295169
0.289991
0.284325
0.278502
0.272895
0.267878
0.263616
0.260329
0.258093
0.257101
0.257673
0.259998
0.264177
0.270173
0.277949
0.287356
0.298288
0.310473
0.323551
0.337012
0.350283
0.362824
0.374183
0.383967
0.391823
0.397514
0.400933
0.402146
0.401394
0.399081
0.39583
0.392522
0.390083
0.389408
0.391469
0.396864
0.405857
0.418397
0.434136
0.452394
0.472115
0.491914
0.510281
0.525916
0.53764
0.544514
0.545986
0.542455
0.534431
0.522923
0.509273
0.494983
0.481478
0.469817
0.460465
0.453328
0.447733
0.44247
0.436145
0.427456
0.415268
0.398783
0.377803
0.353189
0.32639
0.299396
0.274718
0.254715
0.241303
0.235442
0.237257
0.245544
0.259821
0.279273
0.302558
0.32739
0.35147
0.372126
0.388341
0.399349
0.401934
0.394478
0.378918
0.360378
0.33854
0.309413
0.271593
0.228419
0.187381
0.158634
0.145963
0.149554
0.166573
0.194844
0.234305
0.031016
0.0386407
0.0470456
0.055713
0.0634427
0.0693518
0.0738937
0.0784226
0.08411
0.0908556
0.0977434
0.10387
0.109525
0.114482
0.117916
0.119046
0.118446
0.116562
0.114221
0.111743
0.109051
0.106
0.102432
0.0982231
0.0933174
0.0877643
0.0817353
0.0757293
0.070107
0.0651269
0.059996
0.053839
0.0467878
0.0396861
0.0333112
0.0280324
0.0239396
0.02085
0.0184805
0.0167144
0.0154516
0.0145407
0.0138399
0.0132507
0.012718
0.0122295
0.0118052
0.0114695
0.0113119
0.0114487
0.0118671
0.0124909
0.0131894
0.0138629
0.0144667
0.0149796
0.0154093
0.0157499
0.0159987
0.0161722
0.0162936
0.0163823
0.016439
0.0164981
0.0166032
0.01675
0.0168468
0.0168705
0.0168481
0.0167606
0.0166092
0.0163352
0.0158593
0.0153038
0.0148764
0.0147175
0.014928
0.0154287
0.0162266
0.0173381
0.0187646
0.0204678
0.0223601
0.0243321
0.026248
0.0279399
0.029217
0.0299335
0.030067
0.0297393
0.0291686
0.0285336
0.0279851
0.027616
0.0275542
0.0279928
0.0290656
0.0309199
0.0336247
0.0372185
0.0416879
0.0469166
0.0526153
0.058287
0.0633292
0.0671011
0.0691589
0.0693466
0.0676506
0.0644899
0.0604107
0.0559462
0.0515757
0.0476786
0.0445054
0.0421037
0.0403732
0.0391268
0.0381125
0.0370493
0.0356301
0.0335563
0.0307009
0.0272397
0.0235412
0.0200123
0.0170121
0.0147364
0.0131678
0.0122189
0.0118214
0.0118634
0.012181
0.0130285
0.0146563
0.0171572
0.0203953
0.0240784
0.0277944
0.0313244
0.0341222
0.0354463
0.0354203
0.0337308
0.0300857
0.025524
0.0218751
0.0181121
0.0135101
0.00961875
0.00727578
0.00638484
0.00655556
0.00701961
0.00687253
0.00664079
0.000473499
0.000467148
0.000427791
0.000351077
0.000277601
0.000233008
0.000214378
0.000205344
0.000194518
0.000175047
0.00013719
7.1502e-05
1.10416e-05
9.87334e-11
7.48749e-11
6.61838e-11
6.04558e-11
5.50128e-11
5.03609e-11
4.6784e-11
4.40197e-11
4.17811e-11
3.97681e-11
3.75965e-11
3.50129e-11
3.21255e-11
2.89874e-11
2.62269e-11
2.40119e-11
2.19221e-11
1.91662e-11
1.6135e-11
1.31816e-11
1.08333e-11
1.03966e-11
1.11102e-11
1.40347e-11
1.75694e-11
1.89059e-11
1.84866e-11
1.59008e-11
1.2328e-11
9.88194e-12
8.79262e-12
8.22661e-12
7.55254e-12
7.11278e-12
7.29172e-12
8.01984e-12
1.06411e-11
1.61586e-11
2.229e-11
2.32763e-11
2.07508e-11
1.39106e-11
9.86212e-12
9.6576e-12
9.99703e-12
1.084e-11
1.19002e-11
1.3145e-11
1.45998e-11
1.62368e-11
1.78939e-11
1.87169e-11
1.86782e-11
1.83272e-11
1.76808e-11
1.72523e-11
1.69594e-11
1.64041e-11
1.52098e-11
1.35474e-11
1.20443e-11
1.11055e-11
1.09606e-11
1.1112e-11
1.12329e-11
1.11985e-11
1.08834e-11
1.09738e-11
1.13531e-11
1.20703e-11
1.30598e-11
1.4187e-11
1.52585e-11
1.6065e-11
1.64735e-11
1.64348e-11
1.62034e-11
1.59104e-11
1.56956e-11
1.55249e-11
1.53242e-11
1.50956e-11
1.48665e-11
1.47738e-11
1.517e-11
1.62061e-11
1.80634e-11
2.05972e-11
2.37854e-11
2.74755e-11
3.11174e-11
3.40007e-11
3.55834e-11
3.57056e-11
3.47352e-11
3.31817e-11
3.14821e-11
2.9857e-11
2.83123e-11
2.68414e-11
2.54653e-11
2.42273e-11
2.31351e-11
2.21507e-11
2.12609e-11
2.04744e-11
1.9742e-11
1.92131e-11
1.86316e-11
1.76902e-11
1.63197e-11
1.45416e-11
1.25886e-11
1.08393e-11
9.64367e-12
9.14508e-12
9.36604e-12
9.88212e-12
1.03109e-11
1.02206e-11
9.81165e-12
9.63657e-12
1.00202e-11
1.07431e-11
1.14712e-11
1.19867e-11
1.2461e-11
1.26183e-11
1.16841e-11
1.09865e-11
1.13363e-11
1.33967e-11
3.49322e-11
1.28937e-10
8.04018e-11
1.65775e-11
8.09274e-12
6.30131e-12
6.13235e-12
6.53704e-12
6.67314e-12
7.67071e-12
9.473e-12
-2.33545e-24
3.53323e-24
-2.9528e-25
4.02581e-24
8.07591e-26
9.07185e-26
3.23912e-25
3.29278e-25
1.29152e-24
-1.77851e-24
6.58656e-25
9.66424e-25
1.04857e-24
1.01207e-24
3.29875e-20
9.75921e-20
1.34609e-19
1.56903e-19
1.80904e-19
2.09574e-19
2.26395e-19
2.25953e-19
2.19347e-19
2.06312e-19
1.93439e-19
1.79268e-19
1.59899e-19
1.47549e-19
1.48206e-19
1.55349e-19
1.73058e-19
2.30349e-19
4.18722e-19
8.89537e-19
1.8014e-18
2.94232e-18
3.72593e-18
3.89699e-18
3.80107e-18
3.42626e-18
2.95733e-18
2.4535e-18
1.92152e-18
1.41491e-18
1.01402e-18
7.56453e-19
7.16783e-19
7.38503e-19
7.45059e-19
6.70786e-19
3.44299e-19
4.27178e-20
3.2446e-31
-2.49243e-32
-3.71161e-33
-6.40539e-34
-6.08337e-36
-3.57272e-36
-7.57016e-37
-3.12949e-36
-7.14459e-37
-5.18618e-37
-1.8876e-37
-1.08126e-37
-3.831e-38
-1.03516e-38
-6.22906e-38
1.00242e-37
-7.53839e-38
3.62003e-38
-1.63386e-38
-6.44484e-40
-6.55898e-40
-6.51676e-40
-6.38906e-40
-6.05361e-40
-5.61534e-40
-5.25762e-40
-5.07427e-40
-4.87578e-40
-4.89586e-40
-4.60954e-40
-8.3749e-40
3.59736e-40
-1.38326e-39
-1.3458e-40
-3.04593e-40
-2.87036e-40
-2.90939e-40
-2.9542e-40
-2.90241e-40
-2.7573e-40
4.01121e-39
-2.33257e-39
-9.75349e-40
-1.70445e-40
-8.30214e-41
-2.05726e-40
-3.81864e-40
-4.14665e-40
-3.84629e-40
-3.31738e-40
2.33985e-40
-1.60814e-40
-1.69126e-40
-6.66377e-34
7.74501e-34
-8.45665e-35
6.63762e-35
-6.50637e-55
-1.43565e-36
-3.17354e-37
-7.09992e-38
-4.57851e-38
-9.33718e-38
1.18148e-35
-4.66434e-54
-7.55973e-37
-1.52257e-36
-1.68955e-36
-1.31829e-36
-9.0108e-37
-6.48823e-37
-5.29622e-37
-4.58403e-37
-3.86471e-37
-5.51267e-37
-9.72183e-37
-2.26934e-36
-3.37116e-36
-3.19175e-36
-2.17955e-36
-1.3773e-36
-6.90986e-37
-2.69885e-37
-1.40396e-37
-8.27012e-38
-8.23507e-38
-9.04709e-38
-1.05775e-35
1.08985e-35
2.12369e-37
-1.11923e-55
-3.5523e-35
6.93904e-34
4.74913e-34
4.43778e-35
2.47075e-36
-1.80387e-37
-8.35094e-37
-5.12989e-37
-1.56942e-37
-2.93615e-38
-5.91807e-39
-1.01689e-39
-2.06393e-40
3.71716e-21
4.64944e-21
6.73133e-21
1.30354e-20
2.16706e-20
2.81334e-20
2.76178e-20
2.61016e-20
2.10534e-20
9.85648e-21
1.18807e-21
8.25371e-24
1.85885e-23
7.58703e-23
4.48691e-23
2.19044e-24
8.91041e-28
1.0743e-27
1.29751e-27
1.41913e-27
1.40593e-27
1.37064e-27
1.32867e-27
1.26192e-27
1.14101e-27
9.41328e-28
6.68823e-28
3.9021e-28
2.24283e-28
2.12745e-28
2.4784e-28
4.82706e-28
1.39051e-27
3.33774e-27
6.4719e-27
9.84978e-27
1.11437e-26
1.0897e-26
9.7328e-27
8.04277e-27
6.35641e-27
4.90128e-27
3.89397e-27
3.82108e-27
3.96062e-27
4.22449e-27
4.29367e-27
4.23938e-27
3.69726e-27
2.25704e-27
6.51736e-28
5.59503e-30
1.04977e-48
-1.36038e-33
-4.17643e-34
-9.72011e-35
-2.41763e-35
-8.05453e-36
-3.23248e-36
-1.44721e-36
-6.71033e-37
-3.39775e-37
-1.8288e-37
-1.01601e-37
-5.59499e-38
-3.01108e-38
-1.62722e-38
-7.93622e-39
-5.44001e-39
-2.28763e-39
-2.09927e-39
-1.3056e-39
-9.02907e-40
-6.71316e-40
-5.29659e-40
-4.3839e-40
-3.75973e-40
-3.3188e-40
-3.02189e-40
-2.83614e-40
-2.76007e-40
-2.72929e-40
-2.96462e-40
-2.42693e-40
-3.17032e-40
-2.5271e-40
-2.28198e-40
-2.16085e-40
-2.08665e-40
-1.99746e-40
-1.84677e-40
-1.63442e-40
-8.5415e-41
-1.52187e-40
-1.82316e-40
-1.40963e-40
-1.09076e-40
-1.20686e-40
-1.62628e-40
-1.98539e-40
-2.1598e-40
-2.23447e-40
-1.41174e-40
-1.85498e-40
-2.34516e-40
-3.73469e-35
-1.89658e-36
-3.41272e-36
-1.35472e-36
-1.59769e-36
-1.51874e-36
-1.08775e-36
-7.53115e-37
-5.43149e-37
-7.95318e-37
-1.01111e-36
-1.10347e-36
-1.22985e-36
-1.30063e-36
-1.20455e-36
-9.87913e-37
-7.60655e-37
-5.79588e-37
-4.50379e-37
-3.54992e-37
-2.75579e-37
-2.1875e-37
-2.11431e-37
-2.61149e-37
-3.30464e-37
-3.99475e-37
-4.33948e-37
-3.73296e-37
-2.65701e-37
-1.76807e-37
-1.27647e-37
-1.12959e-37
-1.27309e-37
-1.54397e-37
-1.80532e-37
-2.02493e-37
-2.20875e-37
-2.19401e-37
-5.13487e-34
-6.89079e-34
-5.15664e-34
-3.0125e-34
-1.1906e-34
-2.4529e-35
-3.21232e-36
-1.34655e-36
-4.53563e-37
-1.22759e-37
-2.97936e-38
-6.80605e-39
-1.41633e-39
1.11975e-20
1.66204e-20
2.89825e-20
4.18434e-20
4.36376e-20
4.22172e-20
3.38024e-20
2.09527e-20
1.00785e-20
3.15528e-21
3.78062e-22
2.08274e-22
2.27483e-22
8.97174e-23
1.44638e-24
-3.44549e-44
-3.25132e-47
1.01079e-48
-8.51863e-52
-1.4505e-51
-1.84295e-48
2.3848e-48
-6.03589e-50
3.16721e-49
-7.6256e-49
-2.14587e-49
-1.32122e-41
-3.17744e-40
-5.90497e-40
-7.62683e-40
-8.82679e-40
-9.9931e-40
-1.13166e-39
-1.27753e-39
-1.37101e-39
-1.35675e-39
-1.24762e-39
-8.49411e-40
-3.38125e-41
4.57192e-39
1.14684e-38
1.54823e-38
1.37812e-38
1.37796e-38
2.72725e-36
1.56608e-34
4.63408e-33
7.61228e-32
5.99844e-31
1.65081e-30
1.83064e-30
1.23403e-30
3.391e-31
9.66983e-34
4.34303e-53
-4.11539e-36
-1.32965e-36
-4.7021e-37
-1.98409e-37
-1.0193e-37
-5.98148e-38
-3.86422e-38
-2.468e-38
-1.49125e-38
-8.42287e-39
-4.51705e-39
-2.42142e-39
-1.32512e-39
-8.0228e-40
-4.92988e-40
-3.3261e-40
-2.25096e-40
-1.60647e-40
-1.24713e-40
-1.03352e-40
-8.86e-41
-7.74064e-41
-6.88966e-41
-6.3489e-41
-6.13694e-41
-6.19843e-41
-6.42073e-41
-6.81653e-41
-6.77922e-41
-7.22549e-41
-6.90343e-41
-6.8549e-41
-6.92833e-41
-6.88302e-41
-6.5404e-41
-5.83577e-41
-4.91752e-41
-3.54429e-41
-3.05142e-41
-2.64251e-41
-2.54476e-41
-3.15818e-41
-4.48401e-41
-6.35225e-41
-8.19849e-41
-9.66832e-41
-1.08052e-40
-1.04057e-40
-1.09092e-40
-1.15306e-40
-2.32728e-36
-8.94711e-37
-4.59847e-37
-2.98162e-37
-3.8155e-37
-4.05296e-37
-3.46719e-37
-2.63289e-37
-1.87983e-37
-1.58384e-37
-1.49752e-37
-1.6955e-37
-2.06232e-37
-2.24363e-37
-2.13108e-37
-1.87878e-37
-1.64846e-37
-1.46647e-37
-1.29196e-37
-1.08978e-37
-8.65041e-38
-6.73133e-38
-5.81132e-38
-6.18716e-38
-7.65503e-38
-1.01447e-37
-1.23906e-37
-1.17345e-37
-8.92517e-38
-7.13305e-38
-7.84895e-38
-1.08663e-37
-1.49129e-37
-1.84536e-37
-2.08552e-37
-2.22504e-37
-2.2906e-37
-2.39807e-37
-3.53311e-35
-2.233e-34
-3.31705e-34
-2.74157e-34
-1.40837e-34
-4.2245e-35
-8.79665e-36
-2.96787e-36
-9.96704e-37
-2.83303e-37
-7.39e-38
-1.8191e-38
-4.11057e-39
5.84024e-21
2.04579e-20
4.01284e-20
4.2776e-20
4.27725e-20
3.76183e-20
2.7136e-20
1.59578e-20
7.71695e-21
3.22616e-21
1.42361e-21
8.20801e-22
2.94735e-22
2.0681e-23
7.96902e-35
-4.97002e-54
-7.92413e-39
-4.54861e-39
-2.31721e-39
-1.29411e-39
-8.34448e-40
-6.13336e-40
-5.10149e-40
-4.91523e-40
-5.51857e-40
-6.89676e-40
-8.57778e-40
-1.08749e-39
-1.4296e-39
-1.88801e-39
-2.47464e-39
-3.22075e-39
-4.15365e-39
-5.24761e-39
-6.35468e-39
-7.0577e-39
-6.55063e-39
-3.99581e-39
7.95944e-40
2.22511e-38
4.47601e-38
4.69346e-38
4.38193e-38
2.76016e-38
5.46708e-39
7.69204e-37
4.54942e-35
2.44065e-33