/*--------------------------------*- C++ -*----------------------------------*\
| =========                 |                                                 |
| \\      /  F ield         | OpenFOAM: The Open Source CFD Toolbox           |
|  \\    /   O peration     | Version:  v1912                                 |
|   \\  /    A nd           | Website:  www.openfoam.com                      |
|    \\/     M anipulation  |                                                 |
\*---------------------------------------------------------------------------*/
FoamFile
{
    version     2.0;
    format      ascii;
    class       volScalarField;
    location    "50";
    object      k;
}
// * * * * * * * * * * * * * * * * * * * * * * * * * * * * * * * * * * * * * //

dimensions      [0 2 -2 0 0 0 0];


internalField   nonuniform List<scalar> 
14268
(
1.47549e-09
1.42031e-09
1.36025e-09
1.30079e-09
1.24216e-09
1.18389e-09
1.14256e-09
1.10824e-09
2.96105e-08
2.88507e-08
2.79628e-08
2.70277e-08
2.60738e-08
2.51278e-08
2.41646e-08
2.38212e-08
6.80859e-08
6.7492e-08
6.67576e-08
6.59361e-08
6.50425e-08
6.41153e-08
6.30591e-08
6.26975e-08
8.11093e-08
8.09193e-08
8.06836e-08
8.04217e-08
8.01216e-08
7.98215e-08
7.93594e-08
7.95599e-08
8.38605e-08
8.38236e-08
8.37843e-08
8.3755e-08
8.37044e-08
8.36998e-08
8.36179e-08
8.36437e-08
8.42588e-08
8.42608e-08
8.42683e-08
8.42991e-08
8.43163e-08
8.43967e-08
8.43535e-08
8.46671e-08
8.43478e-08
8.43586e-08
8.43789e-08
8.44247e-08
8.44616e-08
8.4567e-08
8.4569e-08
8.46391e-08
8.43282e-08
8.43408e-08
8.43608e-08
8.44053e-08
8.44432e-08
8.45504e-08
8.45345e-08
8.47159e-08
8.43446e-08
8.43566e-08
8.43808e-08
8.44312e-08
8.44721e-08
8.45838e-08
8.45823e-08
8.47718e-08
8.43351e-08
8.43503e-08
8.43687e-08
8.44111e-08
8.44492e-08
8.45564e-08
8.45356e-08
8.46506e-08
8.43475e-08
8.43568e-08
8.43861e-08
8.44476e-08
8.44937e-08
8.46081e-08
8.46316e-08
8.49674e-08
8.4541e-08
8.45809e-08
8.4623e-08
8.47012e-08
8.48001e-08
8.50005e-08
8.53726e-08
8.66025e-08
8.4856e-08
8.50105e-08
8.52355e-08
8.55733e-08
8.60782e-08
8.68827e-08
8.90519e-08
9.26768e-08
8.4706e-08
8.48556e-08
8.50866e-08
8.54024e-08
8.59129e-08
8.66898e-08
8.88744e-08
8.83163e-08
8.43491e-08
8.43435e-08
8.4383e-08
8.44266e-08
8.44824e-08
8.46024e-08
8.45967e-08
8.58005e-08
8.43559e-08
8.43765e-08
8.43904e-08
8.44186e-08
8.44631e-08
8.45896e-08
8.47681e-08
8.52726e-08
8.43371e-08
8.43327e-08
8.43502e-08
8.43997e-08
8.44549e-08
8.45433e-08
8.45883e-08
8.4745e-08
8.44132e-08
8.44289e-08
8.44514e-08
8.44832e-08
8.45103e-08
8.45773e-08
8.46119e-08
8.48787e-08
8.43074e-08
8.43109e-08
8.43308e-08
8.43813e-08
8.44288e-08
8.45221e-08
8.45479e-08
8.46696e-08
8.44308e-08
8.44368e-08
8.44529e-08
8.44964e-08
8.45428e-08
8.46224e-08
8.46167e-08
8.48193e-08
8.43112e-08
8.43547e-08
8.44001e-08
8.44351e-08
8.44581e-08
8.45455e-08
8.45843e-08
8.47252e-08
8.43971e-08
8.43853e-08
8.43984e-08
8.44512e-08
8.4497e-08
8.46034e-08
8.45825e-08
8.4761e-08
8.43429e-08
8.43851e-08
8.44232e-08
8.44649e-08
8.44974e-08
8.46011e-08
8.46086e-08
8.48051e-08
8.44359e-08
8.44299e-08
8.44515e-08
8.45173e-08
8.4589e-08
8.46984e-08
8.47064e-08
8.48725e-08
8.43205e-08
8.43602e-08
8.44055e-08
8.44397e-08
8.4478e-08
8.45797e-08
8.46441e-08
8.48754e-08
8.4454e-08
8.44574e-08
8.44923e-08
8.45791e-08
8.46725e-08
8.47799e-08
8.48378e-08
8.4933e-08
8.43081e-08
8.43563e-08
8.43947e-08
8.44183e-08
8.44581e-08
8.45626e-08
8.46688e-08
8.4921e-08
8.44585e-08
8.44692e-08
8.45255e-08
8.4643e-08
8.475e-08
8.48607e-08
8.49955e-08
8.5084e-08
8.42908e-08
8.43379e-08
8.43685e-08
8.43861e-08
8.44258e-08
8.45353e-08
8.47073e-08
8.49554e-08
8.44976e-08
8.45158e-08
8.45939e-08
8.47169e-08
8.48181e-08
8.49381e-08
8.51563e-08
8.53002e-08
8.45823e-08
8.44658e-08
8.43845e-08
8.43505e-08
8.43538e-08
8.44561e-08
8.47164e-08
8.50578e-08
9.04472e-08
8.8269e-08
8.6856e-08
8.59749e-08
8.54976e-08
8.53565e-08
8.55272e-08
8.57129e-08
1.49637e-07
1.31977e-07
1.1765e-07
1.07073e-07
9.97261e-08
9.48005e-08
9.13932e-08
8.92709e-08
5.26504e-07
4.69118e-07
4.24538e-07
3.88634e-07
3.56789e-07
3.26715e-07
2.88565e-07
2.56342e-07
2.95507e-06
3.06286e-06
3.13924e-06
3.17773e-06
3.21622e-06
3.29798e-06
3.38059e-06
3.5702e-06
1.48278e-05
1.58204e-05
1.67536e-05
1.78555e-05
1.89206e-05
1.98956e-05
2.12343e-05
1.98798e-05
0.00176162
0.00129775
0.000784471
0.000420433
0.000290496
0.000253447
0.00022766
0.00013342
0.221723
0.219394
0.213435
0.20318
0.189998
0.177729
0.166046
0.151931
0.313444
0.319809
0.332628
0.347332
0.361003
0.375869
0.385893
0.385431
0.288634
0.307911
0.328437
0.348924
0.364867
0.381748
0.394787
0.406601
0.259053
0.281632
0.304924
0.328398
0.348521
0.370695
0.390075
0.405439
0.192454
0.209227
0.225009
0.240293
0.250263
0.263139
0.270774
0.273412
0.117786
0.126385
0.132263
0.136662
0.135635
0.136745
0.132392
0.123312
0.0523005
0.0538068
0.0528728
0.0505654
0.0452833
0.04141
0.0351493
0.027916
0.013263
0.0123505
0.0104467
0.00830777
0.00604355
0.00460143
0.003188
0.00222601
0.000914715
0.000689173
0.00043358
0.000247327
0.000131032
8.63654e-05
5.93424e-05
7.19777e-05
3.65867e-06
1.89083e-06
8.50648e-07
6.95716e-07
1.07376e-06
1.79898e-06
2.55606e-06
5.57532e-06
8.46552e-08
8.77482e-08
9.47958e-08
1.16209e-07
1.58067e-07
2.28628e-07
3.03935e-07
6.21365e-07
8.31551e-08
8.34991e-08
8.40747e-08
8.55124e-08
8.86404e-08
9.43613e-08
1.0121e-07
1.31607e-07
8.31824e-08
8.33364e-08
8.33061e-08
8.32444e-08
8.34368e-08
8.40007e-08
8.47711e-08
8.73501e-08
8.30527e-08
8.30319e-08
8.28955e-08
8.2754e-08
8.2651e-08
8.26894e-08
8.29646e-08
8.328e-08
8.36843e-08
8.37655e-08
8.37328e-08
8.37409e-08
8.36811e-08
8.37693e-08
8.39371e-08
8.40066e-08
8.32602e-08
8.32506e-08
8.31433e-08
8.30788e-08
8.30032e-08
8.30659e-08
8.32428e-08
8.33416e-08
8.39624e-08
8.40389e-08
8.39863e-08
8.40083e-08
8.39705e-08
8.40497e-08
8.41636e-08
8.42507e-08
8.34797e-08
8.34887e-08
8.33987e-08
8.33889e-08
8.33619e-08
8.34537e-08
8.36005e-08
8.37209e-08
8.41627e-08
8.42422e-08
8.41814e-08
8.42186e-08
8.41974e-08
8.42803e-08
8.43617e-08
8.44535e-08
8.3679e-08
8.3697e-08
8.36332e-08
8.36627e-08
8.36843e-08
8.37875e-08
8.39009e-08
8.40448e-08
8.4303e-08
8.43864e-08
8.43292e-08
8.43832e-08
8.43736e-08
8.44632e-08
8.44983e-08
8.45832e-08
8.38341e-08
8.3882e-08
8.38342e-08
8.38939e-08
8.39322e-08
8.40411e-08
8.41404e-08
8.42774e-08
8.43968e-08
8.45029e-08
8.44433e-08
8.45e-08
8.44931e-08
8.45814e-08
8.46008e-08
8.46749e-08
8.39783e-08
8.40461e-08
8.39962e-08
8.40629e-08
8.41059e-08
8.42244e-08
8.43197e-08
8.44425e-08
8.44698e-08
8.45734e-08
8.44998e-08
8.45683e-08
8.45748e-08
8.46472e-08
8.46684e-08
8.47271e-08
8.41041e-08
8.41824e-08
8.41192e-08
8.42094e-08
8.42389e-08
8.43476e-08
8.4445e-08
8.45434e-08
8.45242e-08
8.46202e-08
8.45507e-08
8.46221e-08
8.46187e-08
8.46766e-08
8.47066e-08
8.47456e-08
8.42147e-08
8.43004e-08
8.42239e-08
8.43256e-08
8.43341e-08
8.44413e-08
8.45269e-08
8.46033e-08
8.4578e-08
8.46519e-08
8.45937e-08
8.46604e-08
8.46473e-08
8.46948e-08
8.47273e-08
8.4754e-08
8.43238e-08
8.43811e-08
8.43199e-08
8.44195e-08
8.44186e-08
8.45147e-08
8.4575e-08
8.46461e-08
8.46178e-08
8.46882e-08
8.46218e-08
8.4706e-08
8.4655e-08
8.47257e-08
8.4734e-08
8.47647e-08
8.44215e-08
8.44388e-08
8.44147e-08
8.45031e-08
8.44799e-08
8.45878e-08
8.45976e-08
8.46781e-08
8.46685e-08
8.47088e-08
8.46425e-08
8.47411e-08
8.46779e-08
8.47621e-08
8.47322e-08
8.47759e-08
8.44878e-08
8.44997e-08
8.45047e-08
8.45596e-08
8.45122e-08
8.46634e-08
8.46196e-08
8.47068e-08
8.46962e-08
8.4712e-08
8.46819e-08
8.47538e-08
8.46866e-08
8.47806e-08
8.4744e-08
8.47812e-08
8.45274e-08
8.45447e-08
8.454e-08
8.45814e-08
8.45864e-08
8.4656e-08
8.46339e-08
8.47226e-08
8.4693e-08
8.47076e-08
8.46944e-08
8.47368e-08
8.46959e-08
8.47802e-08
8.46843e-08
8.47778e-08
8.45509e-08
8.45699e-08
8.45621e-08
8.46046e-08
8.45844e-08
8.46621e-08
8.46254e-08
8.47159e-08
8.46855e-08
8.47052e-08
8.46904e-08
8.47277e-08
8.46949e-08
8.47456e-08
8.46985e-08
8.47442e-08
8.45602e-08
8.45848e-08
8.45733e-08
8.46197e-08
8.4606e-08
8.46748e-08
8.46447e-08
8.47165e-08
8.4708e-08
8.47357e-08
8.47043e-08
8.47383e-08
8.46956e-08
8.4742e-08
8.46844e-08
8.4742e-08
8.46132e-08
8.46504e-08
8.46269e-08
8.46765e-08
8.46457e-08
8.47039e-08
8.4659e-08
8.47202e-08
8.46738e-08
8.47046e-08
8.46703e-08
8.47075e-08
8.46633e-08
8.47084e-08
8.46581e-08
8.47082e-08
8.46148e-08
8.46495e-08
8.46287e-08
8.46668e-08
8.46376e-08
8.46816e-08
8.46434e-08
8.46885e-08
8.46505e-08
8.46736e-08
8.46478e-08
8.46772e-08
8.46467e-08
8.46816e-08
8.46449e-08
8.46808e-08
8.46557e-08
8.46755e-08
8.46576e-08
8.46814e-08
8.46578e-08
8.4684e-08
8.46543e-08
8.46825e-08
8.50916e-08
8.50607e-08
8.50065e-08
8.49843e-08
8.4933e-08
8.49197e-08
8.48741e-08
8.48705e-08
8.87945e-08
8.84529e-08
8.81466e-08
8.78481e-08
8.75775e-08
8.73216e-08
8.70955e-08
8.69001e-08
1.17136e-07
1.14928e-07
1.12999e-07
1.10989e-07
1.09262e-07
1.07485e-07
1.06013e-07
1.04638e-07
3.22565e-07
3.1077e-07
2.99582e-07
2.87314e-07
2.75884e-07
2.63469e-07
2.524e-07
2.41999e-07
9.96016e-10
9.94954e-10
1.05367e-09
1.12529e-09
1.17826e-09
1.21197e-09
1.23598e-09
1.25122e-09
1.2618e-09
1.26805e-09
1.27397e-09
1.27863e-09
1.28365e-09
1.287e-09
1.28902e-09
1.29109e-09
1.29385e-09
1.29775e-09
1.301e-09
1.30221e-09
1.30271e-09
1.30335e-09
1.30497e-09
1.30676e-09
1.31023e-09
1.31358e-09
1.31286e-09
1.30939e-09
1.30455e-09
1.30009e-09
1.29672e-09
1.29451e-09
1.29297e-09
1.29242e-09
1.29274e-09
1.29451e-09
1.30181e-09
1.31231e-09
1.32418e-09
1.33638e-09
1.3476e-09
1.35719e-09
1.36472e-09
1.37019e-09
1.37393e-09
1.3762e-09
1.37723e-09
1.37825e-09
1.37952e-09
1.38123e-09
1.38266e-09
1.38342e-09
1.38319e-09
1.38193e-09
1.37981e-09
1.37705e-09
1.37386e-09
1.37068e-09
1.36774e-09
1.36536e-09
1.36551e-09
1.36748e-09
1.37059e-09
1.37429e-09
1.37841e-09
1.38285e-09
1.38729e-09
1.39122e-09
1.39399e-09
1.39504e-09
1.39406e-09
1.39071e-09
1.38613e-09
1.38085e-09
1.37513e-09
1.36907e-09
1.36312e-09
1.35761e-09
1.35276e-09
1.34852e-09
1.34483e-09
1.34142e-09
1.33798e-09
1.33465e-09
1.33148e-09
1.32871e-09
1.32661e-09
1.32509e-09
1.32383e-09
1.3225e-09
1.3212e-09
1.31978e-09
1.31745e-09
1.31453e-09
1.3114e-09
1.30804e-09
1.30465e-09
1.30119e-09
1.29786e-09
1.29445e-09
1.2905e-09
1.28579e-09
1.28032e-09
1.27445e-09
1.26879e-09
1.26361e-09
1.25851e-09
1.25351e-09
1.252e-09
1.2549e-09
1.26146e-09
1.27061e-09
1.28091e-09
1.29135e-09
1.30155e-09
1.31087e-09
1.31901e-09
1.32662e-09
1.33506e-09
1.34578e-09
1.36037e-09
1.37931e-09
1.40313e-09
1.42861e-09
1.45656e-09
1.48632e-09
1.5154e-09
1.53862e-09
1.55262e-09
1.56041e-09
1.5598e-09
1.55347e-09
1.54279e-09
1.5316e-09
1.51917e-09
1.50785e-09
1.49881e-09
1.49091e-09
1.47411e-09
1.45729e-09
1.44825e-09
1.44241e-09
1.4475e-09
1.45927e-09
1.47377e-09
1.49798e-09
1.5318e-09
1.57234e-09
1.61419e-09
1.64757e-09
1.66963e-09
1.67639e-09
1.66298e-09
1.64514e-09
1.62617e-09
1.60142e-09
2.22823e-08
2.25175e-08
2.39225e-08
2.57117e-08
2.71084e-08
2.80144e-08
2.86401e-08
2.9028e-08
2.92819e-08
2.94184e-08
2.95248e-08
2.95914e-08
2.96673e-08
2.97137e-08
2.97329e-08
2.97493e-08
2.97786e-08
2.98334e-08
2.98905e-08
2.99199e-08
2.99427e-08
2.99685e-08
3.0015e-08
3.007e-08
3.01694e-08
3.02961e-08
3.03793e-08
3.04285e-08
3.04622e-08
3.04823e-08
3.04855e-08
3.04872e-08
3.0494e-08
3.0516e-08
3.05567e-08
3.06169e-08
3.07001e-08
3.07967e-08
3.08963e-08
3.09979e-08
3.10911e-08
3.11713e-08
3.1232e-08
3.12724e-08
3.1297e-08
3.13072e-08
3.13054e-08
3.12998e-08
3.12888e-08
3.12775e-08
3.1265e-08
3.12526e-08
3.12373e-08
3.12173e-08
3.11938e-08
3.11693e-08
3.11464e-08
3.11315e-08
3.11268e-08
3.1131e-08
3.11465e-08
3.1166e-08
3.11878e-08
3.12078e-08
3.12261e-08
3.12427e-08
3.1257e-08
3.12682e-08
3.12752e-08
3.12777e-08
3.12747e-08
3.12609e-08
3.12346e-08
3.119e-08
3.11313e-08
3.10609e-08
3.0985e-08
3.09087e-08
3.08365e-08
3.07695e-08
3.07079e-08
3.06478e-08
3.05837e-08
3.0521e-08
3.04646e-08
3.04208e-08
3.03937e-08
3.03822e-08
3.03812e-08
3.03843e-08
3.03839e-08
3.03734e-08
3.03453e-08
3.0303e-08
3.02498e-08
3.01878e-08
3.01209e-08
3.0047e-08
2.99691e-08
2.98833e-08
2.97816e-08
2.96612e-08
2.95229e-08
2.93743e-08
2.92291e-08
2.90976e-08
2.89787e-08
2.88777e-08
2.8813e-08
2.87864e-08
2.87919e-08
2.88179e-08
2.88475e-08
2.88779e-08
2.89183e-08
2.8968e-08
2.90244e-08
2.90894e-08
2.91732e-08
2.92846e-08
2.94338e-08
2.96196e-08
2.98498e-08
3.00784e-08
3.03339e-08
3.05927e-08
3.08188e-08
3.09865e-08
3.10973e-08
3.1195e-08
3.12406e-08
3.1242e-08
3.11765e-08
3.10925e-08
3.09733e-08
3.0857e-08
3.07477e-08
3.06533e-08
3.04256e-08
3.02108e-08
3.01206e-08
3.00774e-08
3.01159e-08
3.01539e-08
3.02196e-08
3.03842e-08
3.05817e-08
3.07654e-08
3.0988e-08
3.12329e-08
3.14943e-08
3.16701e-08
3.16442e-08
3.14514e-08
3.11446e-08
3.07818e-08
6.0448e-08
6.09362e-08
6.27754e-08
6.47569e-08
6.61077e-08
6.69153e-08
6.74384e-08
6.77362e-08
6.79276e-08
6.80061e-08
6.80721e-08
6.80945e-08
6.81299e-08
6.81437e-08
6.81419e-08
6.81337e-08
6.81372e-08
6.81632e-08
6.82004e-08
6.82166e-08
6.82348e-08
6.82563e-08
6.83012e-08
6.83555e-08
6.84479e-08
6.85707e-08
6.86747e-08
6.87569e-08
6.88304e-08
6.88919e-08
6.89322e-08
6.89651e-08
6.89974e-08
6.90391e-08
6.90952e-08
6.91644e-08
6.92358e-08
6.93079e-08
6.93763e-08
6.94442e-08
6.9505e-08
6.95569e-08
6.95951e-08
6.96189e-08
6.9631e-08
6.9632e-08
6.96231e-08
6.96094e-08
6.95886e-08
6.95669e-08
6.95443e-08
6.95255e-08
6.95079e-08
6.94907e-08
6.94744e-08
6.94608e-08
6.94508e-08
6.94495e-08
6.94583e-08
6.94744e-08
6.94948e-08
6.95141e-08
6.95333e-08
6.95489e-08
6.95621e-08
6.95726e-08
6.95795e-08
6.95833e-08
6.95847e-08
6.95845e-08
6.95824e-08
6.95745e-08
6.95565e-08
6.95218e-08
6.9474e-08
6.94143e-08
6.93469e-08
6.92755e-08
6.92044e-08
6.91362e-08
6.90724e-08
6.90112e-08
6.89485e-08
6.88894e-08
6.88382e-08
6.88007e-08
6.878e-08
6.8775e-08
6.87818e-08
6.87953e-08
6.88068e-08
6.881e-08
6.87992e-08
6.87754e-08
6.87392e-08
6.86923e-08
6.86372e-08
6.85709e-08
6.84955e-08
6.84084e-08
6.83043e-08
6.81841e-08
6.80507e-08
6.79119e-08
6.7779e-08
6.7663e-08
6.75656e-08
6.74934e-08
6.74548e-08
6.74457e-08
6.74597e-08
6.7486e-08
6.75112e-08
6.75329e-08
6.75624e-08
6.76012e-08
6.76482e-08
6.77026e-08
6.77726e-08
6.78635e-08
6.79827e-08
6.81248e-08
6.82996e-08
6.84675e-08
6.86539e-08
6.88335e-08
6.89762e-08
6.90821e-08
6.91542e-08
6.92303e-08
6.92624e-08
6.92635e-08
6.92096e-08
6.91319e-08
6.90097e-08
6.88889e-08
6.87699e-08
6.86669e-08
6.84674e-08
6.82887e-08
6.82218e-08
6.82053e-08
6.82396e-08
6.82607e-08
6.83032e-08
6.84206e-08
6.85457e-08
6.86379e-08
6.87603e-08
6.89257e-08
6.91265e-08
6.92721e-08
6.92573e-08
6.9081e-08
6.87852e-08
6.84434e-08
7.8979e-08
7.9069e-08
7.94626e-08
8.00361e-08
8.04857e-08
8.07431e-08
8.09255e-08
8.10149e-08
8.10836e-08
8.11037e-08
8.11272e-08
8.11307e-08
8.11478e-08
8.11513e-08
8.11515e-08
8.11445e-08
8.11438e-08
8.11504e-08
8.11628e-08
8.11651e-08
8.1172e-08
8.11807e-08
8.11931e-08
8.12072e-08
8.12417e-08
8.12903e-08
8.13333e-08
8.13691e-08
8.14022e-08
8.14302e-08
8.14489e-08
8.14636e-08
8.14759e-08
8.14912e-08
8.15119e-08
8.15363e-08
8.15596e-08
8.15826e-08
8.16041e-08
8.16262e-08
8.16454e-08
8.16615e-08
8.16728e-08
8.16795e-08
8.16821e-08
8.16814e-08
8.16772e-08
8.16719e-08
8.1663e-08
8.16544e-08
8.16452e-08
8.16368e-08
8.16298e-08
8.16236e-08
8.16178e-08
8.16133e-08
8.16107e-08
8.16119e-08
8.16168e-08
8.16235e-08
8.16313e-08
8.16382e-08
8.1644e-08
8.16494e-08
8.16539e-08
8.16562e-08
8.16576e-08
8.16581e-08
8.16587e-08
8.16589e-08
8.16587e-08
8.1656e-08
8.16506e-08
8.16393e-08
8.16241e-08
8.16045e-08
8.15825e-08
8.15586e-08
8.15339e-08
8.15096e-08
8.14871e-08
8.1466e-08
8.1444e-08
8.14228e-08
8.14047e-08
8.1392e-08
8.13852e-08
8.1384e-08
8.1387e-08
8.13922e-08
8.13966e-08
8.13983e-08
8.13953e-08
8.13878e-08
8.1376e-08
8.13604e-08
8.13419e-08
8.1319e-08
8.12929e-08
8.12622e-08
8.12249e-08
8.11822e-08
8.11359e-08
8.10896e-08
8.10454e-08
8.10064e-08
8.09739e-08
8.09497e-08
8.09384e-08
8.09365e-08
8.09415e-08
8.09491e-08
8.09554e-08
8.09592e-08
8.09655e-08
8.09753e-08
8.09881e-08
8.10013e-08
8.10201e-08
8.1047e-08
8.10848e-08
8.11271e-08
8.11842e-08
8.12362e-08
8.1296e-08
8.1355e-08
8.13959e-08
8.14309e-08
8.14544e-08
8.14836e-08
8.1489e-08
8.14886e-08
8.14725e-08
8.14495e-08
8.13963e-08
8.13517e-08
8.13088e-08
8.12706e-08
8.12012e-08
8.11394e-08
8.11156e-08
8.11098e-08
8.11213e-08
8.113e-08
8.11449e-08
8.11823e-08
8.12156e-08
8.12346e-08
8.12725e-08
8.13344e-08
8.14104e-08
8.14629e-08
8.1452e-08
8.13829e-08
8.12707e-08
8.11404e-08
8.29789e-08
8.33792e-08
8.36155e-08
8.37283e-08
8.38159e-08
8.38354e-08
8.3855e-08
8.38631e-08
8.3878e-08
8.38763e-08
8.38814e-08
8.38761e-08
8.38718e-08
8.3867e-08
8.3868e-08
8.3867e-08
8.38681e-08
8.38684e-08
8.38724e-08
8.38718e-08
8.38754e-08
8.38782e-08
8.38875e-08
8.38925e-08
8.39025e-08
8.39128e-08
8.39248e-08
8.39351e-08
8.39436e-08
8.39515e-08
8.39562e-08
8.39601e-08
8.39631e-08
8.39664e-08
8.39715e-08
8.3977e-08
8.39821e-08
8.39867e-08
8.3991e-08
8.39962e-08
8.40004e-08
8.40038e-08
8.40057e-08
8.40071e-08
8.40077e-08
8.40074e-08
8.40057e-08
8.40043e-08
8.40016e-08
8.39996e-08
8.39968e-08
8.39953e-08
8.39937e-08
8.39924e-08
8.39913e-08
8.39905e-08
8.39898e-08
8.39906e-08
8.39924e-08
8.39939e-08
8.39958e-08
8.39972e-08
8.39994e-08
8.40006e-08
8.40024e-08
8.40037e-08
8.4004e-08
8.40041e-08
8.40047e-08
8.40053e-08
8.40057e-08
8.40047e-08
8.4003e-08
8.40001e-08
8.39967e-08
8.39922e-08
8.39873e-08
8.39813e-08
8.39749e-08
8.39685e-08
8.39631e-08
8.39584e-08
8.39534e-08
8.39487e-08
8.39445e-08
8.39416e-08
8.39404e-08
8.39407e-08
8.39418e-08
8.39434e-08
8.39448e-08
8.39454e-08
8.39446e-08
8.3943e-08
8.39402e-08
8.39368e-08
8.39331e-08
8.39283e-08
8.39219e-08
8.39142e-08
8.39045e-08
8.38938e-08
8.38837e-08
8.3875e-08
8.38665e-08
8.38584e-08
8.38513e-08
8.38461e-08
8.38448e-08
8.38455e-08
8.38466e-08
8.38473e-08
8.38481e-08
8.38468e-08
8.38461e-08
8.38463e-08
8.38469e-08
8.38458e-08
8.38471e-08
8.38515e-08
8.38599e-08
8.38678e-08
8.38819e-08
8.38925e-08
8.39041e-08
8.39194e-08
8.39242e-08
8.39371e-08
8.3944e-08
8.39573e-08
8.39532e-08
8.39534e-08
8.39508e-08
8.39446e-08
8.39283e-08
8.39158e-08
8.39053e-08
8.38967e-08
8.38787e-08
8.38652e-08
8.38595e-08
8.38584e-08
8.38606e-08
8.38636e-08
8.38701e-08
8.3878e-08
8.38825e-08
8.38832e-08
8.38946e-08
8.39209e-08
8.39469e-08
8.39618e-08
8.39512e-08
8.39255e-08
8.38901e-08
8.38532e-08
8.48406e-08
8.48388e-08
8.45411e-08
8.43367e-08
8.42746e-08
8.42712e-08
8.42808e-08
8.42818e-08
8.4285e-08
8.42803e-08
8.42807e-08
8.42758e-08
8.42944e-08
8.43014e-08
8.43022e-08
8.42958e-08
8.42919e-08
8.42912e-08
8.42938e-08
8.42915e-08
8.4294e-08
8.42971e-08
8.4308e-08
8.43103e-08
8.43054e-08
8.43007e-08
8.43e-08
8.42996e-08
8.42999e-08
8.43012e-08
8.43033e-08
8.43053e-08
8.43045e-08
8.4304e-08
8.43047e-08
8.43055e-08
8.4305e-08
8.43056e-08
8.43066e-08
8.43091e-08
8.43108e-08
8.43119e-08
8.43121e-08
8.4312e-08
8.43119e-08
8.43124e-08
8.43125e-08
8.43132e-08
8.43123e-08
8.43131e-08
8.43131e-08
8.43115e-08
8.43115e-08
8.43114e-08
8.43112e-08
8.43109e-08
8.43113e-08
8.43126e-08
8.43139e-08
8.43145e-08
8.43156e-08
8.43165e-08
8.43154e-08
8.43165e-08
8.43169e-08
8.43154e-08
8.43149e-08
8.4315e-08
8.43155e-08
8.43163e-08
8.43169e-08
8.43165e-08
8.43162e-08
8.43149e-08
8.43142e-08
8.43132e-08
8.43129e-08
8.43121e-08
8.43106e-08
8.43089e-08
8.43081e-08
8.43084e-08
8.43078e-08
8.43064e-08
8.43052e-08
8.43052e-08
8.43056e-08
8.43066e-08
8.43076e-08
8.43087e-08
8.43091e-08
8.43098e-08
8.43098e-08
8.43093e-08
8.43085e-08
8.43076e-08
8.43072e-08
8.43057e-08
8.43051e-08
8.43038e-08
8.43015e-08
8.43e-08
8.42999e-08
8.4302e-08
8.43035e-08
8.43041e-08
8.43043e-08
8.43023e-08
8.43031e-08
8.43048e-08
8.4306e-08
8.43057e-08
8.43045e-08
8.4302e-08
8.42994e-08
8.42973e-08
8.42956e-08
8.42907e-08
8.42868e-08
8.42852e-08
8.42873e-08
8.42873e-08
8.42925e-08
8.42934e-08
8.42946e-08
8.43022e-08
8.42996e-08
8.43061e-08
8.43085e-08
8.43181e-08
8.43108e-08
8.43099e-08
8.43117e-08
8.43175e-08
8.42998e-08
8.42953e-08
8.42942e-08
8.42926e-08
8.42859e-08
8.42828e-08
8.42837e-08
8.42848e-08
8.42857e-08
8.42881e-08
8.42907e-08
8.42936e-08
8.4293e-08
8.42896e-08
8.42957e-08
8.43096e-08
8.43234e-08
8.4328e-08
8.43169e-08
8.43037e-08
8.42928e-08
8.42759e-08
8.43738e-08
8.46595e-08
8.46096e-08
8.45405e-08
8.4484e-08
8.43992e-08
8.43694e-08
8.43566e-08
8.43634e-08
8.43688e-08
8.43853e-08
8.43897e-08
8.43821e-08
8.43724e-08
8.43779e-08
8.43847e-08
8.4391e-08
8.43905e-08
8.43914e-08
8.43878e-08
8.43877e-08
8.43859e-08
8.43785e-08
8.43681e-08
8.4367e-08
8.43676e-08
8.43688e-08
8.4369e-08
8.43683e-08
8.43689e-08
8.43686e-08
8.43692e-08
8.43696e-08
8.43693e-08
8.43697e-08
8.43697e-08
8.437e-08
8.43695e-08
8.43691e-08
8.43703e-08
8.43711e-08
8.43715e-08
8.43713e-08
8.43719e-08
8.43722e-08
8.43723e-08
8.43716e-08
8.43719e-08
8.43716e-08
8.4372e-08
8.43717e-08
8.43728e-08
8.43729e-08
8.43732e-08
8.43732e-08
8.43731e-08
8.43725e-08
8.43729e-08
8.43735e-08
8.43733e-08
8.43735e-08
8.43736e-08
8.4375e-08
8.43748e-08
8.4376e-08
8.43771e-08
8.43771e-08
8.4377e-08
8.43777e-08
8.43784e-08
8.4379e-08
8.43783e-08
8.43777e-08
8.43771e-08
8.4377e-08
8.43769e-08
8.43768e-08
8.43762e-08
8.43755e-08
8.43748e-08
8.43747e-08
8.43753e-08
8.43756e-08
8.43757e-08
8.43754e-08
8.43754e-08
8.43759e-08
8.43764e-08
8.43768e-08
8.43771e-08
8.43776e-08
8.43779e-08
8.4378e-08
8.43782e-08
8.4378e-08
8.43776e-08
8.4378e-08
8.43788e-08
8.43789e-08
8.43788e-08
8.43781e-08
8.4378e-08
8.43797e-08
8.43831e-08
8.43859e-08
8.43874e-08
8.43882e-08
8.4388e-08
8.43898e-08
8.4391e-08
8.4391e-08
8.43896e-08
8.43889e-08
8.43861e-08
8.43834e-08
8.43805e-08
8.43777e-08
8.43722e-08
8.43683e-08
8.43663e-08
8.4365e-08
8.43624e-08
8.43646e-08
8.43627e-08
8.4362e-08
8.4366e-08
8.4362e-08
8.43674e-08
8.43673e-08
8.43745e-08
8.43687e-08
8.43696e-08
8.43726e-08
8.4371e-08
8.43654e-08
8.43619e-08
8.43625e-08
8.43649e-08
8.4361e-08
8.43592e-08
8.43569e-08
8.43564e-08
8.4359e-08
8.43634e-08
8.43663e-08
8.43647e-08
8.43612e-08
8.43582e-08
8.43656e-08
8.43816e-08
8.43917e-08
8.43936e-08
8.4382e-08
8.43716e-08
8.43647e-08
8.43539e-08
8.49803e-08
8.50057e-08
8.47189e-08
8.44424e-08
8.43702e-08
8.43688e-08
8.43704e-08
8.4365e-08
8.43635e-08
8.43552e-08
8.43531e-08
8.43422e-08
8.4351e-08
8.43529e-08
8.43525e-08
8.43494e-08
8.43491e-08
8.43486e-08
8.43511e-08
8.43492e-08
8.43521e-08
8.43547e-08
8.43614e-08
8.43626e-08
8.43605e-08
8.43578e-08
8.43567e-08
8.43556e-08
8.43545e-08
8.43547e-08
8.43561e-08
8.43571e-08
8.4355e-08
8.43534e-08
8.43532e-08
8.43523e-08
8.43502e-08
8.43501e-08
8.43507e-08
8.43524e-08
8.43533e-08
8.43536e-08
8.4353e-08
8.43523e-08
8.43522e-08
8.43531e-08
8.43536e-08
8.43547e-08
8.4354e-08
8.43552e-08
8.43553e-08
8.43536e-08
8.43539e-08
8.43541e-08
8.43541e-08
8.43541e-08
8.4355e-08
8.43566e-08
8.43578e-08
8.4358e-08
8.43589e-08
8.43593e-08
8.43576e-08
8.43589e-08
8.43592e-08
8.43572e-08
8.43566e-08
8.43566e-08
8.43572e-08
8.43579e-08
8.43584e-08
8.43576e-08
8.43574e-08
8.43567e-08
8.43569e-08
8.4357e-08
8.43579e-08
8.43582e-08
8.43576e-08
8.43569e-08
8.43571e-08
8.43583e-08
8.43588e-08
8.43583e-08
8.43581e-08
8.43588e-08
8.43596e-08
8.43607e-08
8.43614e-08
8.4362e-08
8.43621e-08
8.43626e-08
8.43625e-08
8.43621e-08
8.4362e-08
8.43621e-08
8.43627e-08
8.43623e-08
8.4363e-08
8.43632e-08
8.43628e-08
8.43633e-08
8.43654e-08
8.43695e-08
8.43736e-08
8.43767e-08
8.43783e-08
8.43775e-08
8.43791e-08
8.43807e-08
8.43814e-08
8.43805e-08
8.43789e-08
8.43763e-08
8.43735e-08
8.43709e-08
8.43688e-08
8.43634e-08
8.43585e-08
8.43555e-08
8.43569e-08
8.43545e-08
8.43572e-08
8.43559e-08
8.43545e-08
8.43598e-08
8.43547e-08
8.43602e-08
8.43617e-08
8.43708e-08
8.43636e-08
8.43632e-08
8.43666e-08
8.43751e-08
8.43579e-08
8.43552e-08
8.43556e-08
8.43561e-08
8.43527e-08
8.43529e-08
8.43547e-08
8.43555e-08
8.43552e-08
8.43578e-08
8.43623e-08
8.43621e-08
8.43584e-08
8.43551e-08
8.43608e-08
8.43775e-08
8.43857e-08
8.43877e-08
8.43764e-08
8.43656e-08
8.43588e-08
8.43536e-08
8.45183e-08
8.47556e-08
8.46673e-08
8.45603e-08
8.44766e-08
8.43944e-08
8.4375e-08
8.4364e-08
8.43706e-08
8.43693e-08
8.4374e-08
8.43749e-08
8.43774e-08
8.43768e-08
8.43798e-08
8.43796e-08
8.43798e-08
8.43787e-08
8.43802e-08
8.43772e-08
8.43782e-08
8.43779e-08
8.43788e-08
8.43759e-08
8.43733e-08
8.43704e-08
8.4371e-08
8.43711e-08
8.43706e-08
8.43713e-08
8.43712e-08
8.43717e-08
8.4372e-08
8.43715e-08
8.43717e-08
8.43718e-08
8.43719e-08
8.43713e-08
8.43705e-08
8.43715e-08
8.43723e-08
8.43727e-08
8.43726e-08
8.43732e-08
8.43735e-08
8.43734e-08
8.43726e-08
8.43728e-08
8.43724e-08
8.43727e-08
8.43727e-08
8.43739e-08
8.43739e-08
8.43742e-08
8.43742e-08
8.43741e-08
8.43736e-08
8.4374e-08
8.43748e-08
8.43746e-08
8.43749e-08
8.43752e-08
8.43767e-08
8.43765e-08
8.43777e-08
8.43787e-08
8.43786e-08
8.43784e-08
8.4379e-08
8.43797e-08
8.43804e-08
8.438e-08
8.43795e-08
8.43789e-08
8.43788e-08
8.43785e-08
8.43785e-08
8.43779e-08
8.43773e-08
8.43766e-08
8.43767e-08
8.43774e-08
8.43778e-08
8.4378e-08
8.43778e-08
8.43777e-08
8.43782e-08
8.43789e-08
8.43794e-08
8.438e-08
8.43806e-08
8.4381e-08
8.43812e-08
8.43814e-08
8.43811e-08
8.43808e-08
8.43814e-08
8.43823e-08
8.43826e-08
8.43826e-08
8.43821e-08
8.4382e-08
8.43837e-08
8.43878e-08
8.43906e-08
8.43919e-08
8.43929e-08
8.43926e-08
8.43946e-08
8.43959e-08
8.43959e-08
8.43946e-08
8.43939e-08
8.43912e-08
8.43885e-08
8.43856e-08
8.43828e-08
8.43771e-08
8.4373e-08
8.43703e-08
8.43701e-08
8.43675e-08
8.43699e-08
8.4368e-08
8.43669e-08
8.43707e-08
8.43663e-08
8.4372e-08
8.43726e-08
8.43805e-08
8.43745e-08
8.43746e-08
8.43768e-08
8.43746e-08
8.43707e-08
8.43676e-08
8.43686e-08
8.43706e-08
8.43668e-08
8.43659e-08
8.43648e-08
8.43653e-08
8.43671e-08
8.43702e-08
8.43715e-08
8.43719e-08
8.43698e-08
8.43667e-08
8.43729e-08
8.43852e-08
8.43975e-08
8.43998e-08
8.4389e-08
8.43787e-08
8.4372e-08
8.43608e-08
8.49156e-08
8.49649e-08
8.46672e-08
8.4419e-08
8.43797e-08
8.43511e-08
8.43475e-08
8.43427e-08
8.43453e-08
8.43433e-08
8.43497e-08
8.43483e-08
8.43552e-08
8.43548e-08
8.43567e-08
8.43562e-08
8.43599e-08
8.43611e-08
8.43638e-08
8.4361e-08
8.43627e-08
8.43634e-08
8.43663e-08
8.43637e-08
8.43601e-08
8.43572e-08
8.4355e-08
8.43532e-08
8.43519e-08
8.43521e-08
8.43535e-08
8.43553e-08
8.43537e-08
8.43521e-08
8.43518e-08
8.43508e-08
8.43487e-08
8.43485e-08
8.43491e-08
8.43509e-08
8.4352e-08
8.43523e-08
8.43518e-08
8.43513e-08
8.43512e-08
8.43522e-08
8.43528e-08
8.43541e-08
8.43537e-08
8.43551e-08
8.43553e-08
8.43535e-08
8.43537e-08
8.43539e-08
8.43541e-08
8.43541e-08
8.43551e-08
8.43568e-08
8.43581e-08
8.43584e-08
8.43591e-08
8.43596e-08
8.43578e-08
8.43592e-08
8.43596e-08
8.43574e-08
8.43566e-08
8.43567e-08
8.43575e-08
8.43582e-08
8.43586e-08
8.43577e-08
8.43574e-08
8.43569e-08
8.43574e-08
8.43578e-08
8.43588e-08
8.43592e-08
8.43587e-08
8.43581e-08
8.43583e-08
8.43593e-08
8.436e-08
8.43597e-08
8.43596e-08
8.43604e-08
8.43612e-08
8.43622e-08
8.43628e-08
8.43633e-08
8.43633e-08
8.43639e-08
8.43639e-08
8.43637e-08
8.43639e-08
8.43644e-08
8.4365e-08
8.43646e-08
8.43652e-08
8.43653e-08
8.43648e-08
8.43654e-08
8.43681e-08
8.43722e-08
8.4377e-08
8.43807e-08
8.43825e-08
8.43819e-08
8.43837e-08
8.43852e-08
8.4386e-08
8.43852e-08
8.43838e-08
8.4381e-08
8.43782e-08
8.43757e-08
8.43735e-08
8.43676e-08
8.43628e-08
8.43603e-08
8.43597e-08
8.4358e-08
8.43607e-08
8.43588e-08
8.43573e-08
8.43622e-08
8.43578e-08
8.43634e-08
8.43647e-08
8.4373e-08
8.43658e-08
8.43659e-08
8.43701e-08
8.43791e-08
8.43609e-08
8.43587e-08
8.43592e-08
8.43604e-08
8.43579e-08
8.43571e-08
8.43577e-08
8.43585e-08
8.4359e-08
8.43621e-08
8.43654e-08
8.43648e-08
8.43615e-08
8.43582e-08
8.43645e-08
8.43791e-08
8.4389e-08
8.43909e-08
8.43795e-08
8.4369e-08
8.43633e-08
8.43554e-08
8.44791e-08
8.47312e-08
8.46789e-08
8.45589e-08
8.44428e-08
8.43969e-08
8.43841e-08
8.437e-08
8.43745e-08
8.43728e-08
8.43773e-08
8.43736e-08
8.43761e-08
8.43748e-08
8.43776e-08
8.43778e-08
8.43769e-08
8.4375e-08
8.4376e-08
8.43729e-08
8.43744e-08
8.43746e-08
8.43763e-08
8.43736e-08
8.43714e-08
8.43691e-08
8.43695e-08
8.43694e-08
8.43689e-08
8.43697e-08
8.43699e-08
8.43703e-08
8.43703e-08
8.43698e-08
8.437e-08
8.43701e-08
8.43701e-08
8.43698e-08
8.43692e-08
8.43702e-08
8.4371e-08
8.43714e-08
8.43712e-08
8.43714e-08
8.43718e-08
8.43718e-08
8.43713e-08
8.43714e-08
8.43708e-08
8.43713e-08
8.43712e-08
8.4372e-08
8.43722e-08
8.43724e-08
8.43724e-08
8.43723e-08
8.43721e-08
8.43726e-08
8.43733e-08
8.43733e-08
8.43737e-08
8.43741e-08
8.43753e-08
8.43754e-08
8.43763e-08
8.43769e-08
8.43769e-08
8.43767e-08
8.43772e-08
8.43779e-08
8.43787e-08
8.43784e-08
8.43779e-08
8.43773e-08
8.43771e-08
8.43768e-08
8.43768e-08
8.43763e-08
8.43757e-08
8.4375e-08
8.43752e-08
8.43761e-08
8.43765e-08
8.43766e-08
8.43763e-08
8.43764e-08
8.43769e-08
8.43777e-08
8.43783e-08
8.4379e-08
8.43797e-08
8.43802e-08
8.43804e-08
8.43806e-08
8.43802e-08
8.43798e-08
8.43803e-08
8.43814e-08
8.4382e-08
8.43823e-08
8.43819e-08
8.4382e-08
8.43835e-08
8.43874e-08
8.439e-08
8.43911e-08
8.43917e-08
8.43913e-08
8.4393e-08
8.43943e-08
8.43943e-08
8.43929e-08
8.43918e-08
8.43887e-08
8.43855e-08
8.43816e-08
8.43784e-08
8.43734e-08
8.43697e-08
8.43678e-08
8.43684e-08
8.43658e-08
8.43681e-08
8.43661e-08
8.43648e-08
8.43694e-08
8.43648e-08
8.43702e-08
8.43711e-08
8.43795e-08
8.43734e-08
8.43726e-08
8.43742e-08
8.43732e-08
8.43688e-08
8.43664e-08
8.43672e-08
8.43689e-08
8.43647e-08
8.43643e-08
8.43644e-08
8.4364e-08
8.43654e-08
8.43682e-08
8.43711e-08
8.43708e-08
8.43679e-08
8.43653e-08
8.43707e-08
8.43856e-08
8.43957e-08
8.43983e-08
8.43876e-08
8.43772e-08
8.43706e-08
8.43614e-08
8.52039e-08
8.496e-08
8.45983e-08
8.43998e-08
8.43777e-08
8.43314e-08
8.43222e-08
8.43245e-08
8.43337e-08
8.43339e-08
8.43403e-08
8.43408e-08
8.43476e-08
8.43473e-08
8.43491e-08
8.43479e-08
8.4352e-08
8.4355e-08
8.43586e-08
8.43561e-08
8.4358e-08
8.43589e-08
8.43619e-08
8.43596e-08
8.43556e-08
8.43524e-08
8.43503e-08
8.43489e-08
8.43479e-08
8.43484e-08
8.43498e-08
8.43517e-08
8.43502e-08
8.43485e-08
8.43482e-08
8.43472e-08
8.4345e-08
8.43447e-08
8.43452e-08
8.43471e-08
8.43483e-08
8.43486e-08
8.43483e-08
8.43482e-08
8.43482e-08
8.43491e-08
8.43495e-08
8.43511e-08
8.43508e-08
8.43522e-08
8.43528e-08
8.43509e-08
8.43509e-08