/*--------------------------------*- C++ -*----------------------------------*\
| =========                 |                                                 |
| \\      /  F ield         | OpenFOAM: The Open Source CFD Toolbox           |
|  \\    /   O peration     | Version:  v1912                                 |
|   \\  /    A nd           | Website:  www.openfoam.com                      |
|    \\/     M anipulation  |                                                 |
\*---------------------------------------------------------------------------*/
FoamFile
{
    version     2.0;
    format      ascii;
    class       volSymmTensorField;
    location    "10";
    object      R;
}
// * * * * * * * * * * * * * * * * * * * * * * * * * * * * * * * * * * * * * //

dimensions      [0 2 -2 0 0 0 0];


internalField   nonuniform List<symmTensor> 
14268
(
(4.642e-10 -6.34683e-12 0 4.64211e-10 0 4.64211e-10)
(4.64204e-10 -6.34718e-12 0 4.64216e-10 0 4.64216e-10)
(4.6421e-10 -6.34753e-12 0 4.64222e-10 0 4.64221e-10)
(4.64213e-10 -6.34786e-12 0 4.64226e-10 0 4.64226e-10)
(4.64218e-10 -6.34817e-12 0 4.64232e-10 0 4.64231e-10)
(4.64222e-10 -6.34846e-12 0 4.64236e-10 0 4.64235e-10)
(4.64226e-10 -6.34875e-12 0 4.64241e-10 0 4.64239e-10)
(4.6423e-10 -6.34902e-12 0 4.64245e-10 0 4.64243e-10)
(4.64233e-10 -6.34927e-12 0 4.64249e-10 0 4.64247e-10)
(4.64236e-10 -6.34951e-12 0 4.64253e-10 0 4.6425e-10)
(4.6424e-10 -6.34974e-12 0 4.64257e-10 0 4.64254e-10)
(4.64243e-10 -6.34996e-12 0 4.6426e-10 0 4.64257e-10)
(4.64246e-10 -6.35017e-12 0 4.64263e-10 0 4.6426e-10)
(4.64248e-10 -6.35036e-12 0 4.64267e-10 0 4.64263e-10)
(4.64251e-10 -6.35055e-12 0 4.6427e-10 0 4.64266e-10)
(4.64253e-10 -6.35073e-12 0 4.64272e-10 0 4.64269e-10)
(4.64256e-10 -6.35089e-12 0 4.64275e-10 0 4.64271e-10)
(4.64258e-10 -6.35105e-12 0 4.64278e-10 0 4.64274e-10)
(4.6426e-10 -6.3512e-12 0 4.6428e-10 0 4.64276e-10)
(4.64262e-10 -6.35135e-12 0 4.64283e-10 0 4.64278e-10)
(4.64264e-10 -6.35148e-12 0 4.64285e-10 0 4.6428e-10)
(4.64266e-10 -6.35161e-12 0 4.64287e-10 0 4.64282e-10)
(4.64267e-10 -6.35173e-12 0 4.64289e-10 0 4.64284e-10)
(4.64269e-10 -6.35185e-12 0 4.64291e-10 0 4.64286e-10)
(4.64271e-10 -6.35195e-12 0 4.64292e-10 0 4.64287e-10)
(4.64272e-10 -6.35206e-12 0 4.64294e-10 0 4.64289e-10)
(4.64274e-10 -6.35215e-12 0 4.64296e-10 0 4.6429e-10)
(4.64275e-10 -6.35225e-12 0 4.64297e-10 0 4.64292e-10)
(4.64276e-10 -6.35233e-12 0 4.64299e-10 0 4.64293e-10)
(4.64277e-10 -6.35242e-12 0 4.643e-10 0 4.64295e-10)
(4.64278e-10 -6.35249e-12 0 4.64301e-10 0 4.64296e-10)
(4.6428e-10 -6.35257e-12 0 4.64303e-10 0 4.64297e-10)
(4.64281e-10 -6.35264e-12 0 4.64304e-10 0 4.64298e-10)
(4.64282e-10 -6.3527e-12 0 4.64305e-10 0 4.64299e-10)
(4.64282e-10 -6.35276e-12 0 4.64306e-10 0 4.643e-10)
(4.64283e-10 -6.35282e-12 0 4.64307e-10 0 4.64301e-10)
(4.64284e-10 -6.35288e-12 0 4.64308e-10 0 4.64302e-10)
(4.64285e-10 -6.35293e-12 0 4.64309e-10 0 4.64303e-10)
(4.64286e-10 -6.35298e-12 0 4.6431e-10 0 4.64303e-10)
(4.64286e-10 -6.35301e-12 0 4.6431e-10 0 4.64304e-10)
(4.64287e-10 -6.35307e-12 0 4.64311e-10 0 4.64305e-10)
(4.64288e-10 -6.35311e-12 0 4.64312e-10 0 4.64305e-10)
(4.64288e-10 -6.35315e-12 0 4.64313e-10 0 4.64306e-10)
(4.64289e-10 -6.35319e-12 0 4.64313e-10 0 4.64307e-10)
(4.64289e-10 -6.35322e-12 0 4.64314e-10 0 4.64307e-10)
(4.6429e-10 -6.35326e-12 0 4.64314e-10 0 4.64308e-10)
(4.6429e-10 -6.35329e-12 0 4.64315e-10 0 4.64308e-10)
(4.64291e-10 -6.35332e-12 0 4.64315e-10 0 4.64309e-10)
(4.64291e-10 -6.35334e-12 0 4.64316e-10 0 4.64309e-10)
(4.64291e-10 -6.35337e-12 0 4.64316e-10 0 4.6431e-10)
(4.64292e-10 -6.35339e-12 0 4.64317e-10 0 4.6431e-10)
(4.64292e-10 -6.35342e-12 0 4.64317e-10 0 4.6431e-10)
(4.64292e-10 -6.35344e-12 0 4.64317e-10 0 4.64311e-10)
(4.64293e-10 -6.35346e-12 0 4.64318e-10 0 4.64311e-10)
(4.64293e-10 -6.35348e-12 0 4.64318e-10 0 4.64311e-10)
(4.64293e-10 -6.35349e-12 0 4.64318e-10 0 4.64312e-10)
(4.64294e-10 -6.35351e-12 0 4.64319e-10 0 4.64312e-10)
(4.64294e-10 -6.35353e-12 0 4.64319e-10 0 4.64312e-10)
(4.64294e-10 -6.35354e-12 0 4.64319e-10 0 4.64312e-10)
(4.64294e-10 -6.35355e-12 0 4.64319e-10 0 4.64313e-10)
(4.64294e-10 -6.35357e-12 0 4.6432e-10 0 4.64313e-10)
(4.64295e-10 -6.35358e-12 0 4.6432e-10 0 4.64313e-10)
(4.64295e-10 -6.35359e-12 0 4.6432e-10 0 4.64313e-10)
(4.64295e-10 -6.3536e-12 0 4.6432e-10 0 4.64313e-10)
(4.64295e-10 -6.35361e-12 0 4.64321e-10 0 4.64314e-10)
(4.64295e-10 -6.35362e-12 0 4.64321e-10 0 4.64314e-10)
(4.64295e-10 -6.35363e-12 0 4.64321e-10 0 4.64314e-10)
(4.64295e-10 -6.35364e-12 0 4.64321e-10 0 4.64314e-10)
(4.64296e-10 -6.35364e-12 0 4.64321e-10 0 4.64314e-10)
(4.64296e-10 -6.35365e-12 0 4.64321e-10 0 4.64314e-10)
(4.64296e-10 -6.35366e-12 0 4.64321e-10 0 4.64314e-10)
(4.64296e-10 -6.35366e-12 0 4.64321e-10 0 4.64314e-10)
(4.64296e-10 -6.35367e-12 0 4.64322e-10 0 4.64315e-10)
(4.64296e-10 -6.35367e-12 0 4.64322e-10 0 4.64315e-10)
(4.64296e-10 -6.35368e-12 0 4.64322e-10 0 4.64315e-10)
(4.64296e-10 -6.35368e-12 0 4.64322e-10 0 4.64315e-10)
(4.64296e-10 -6.35369e-12 0 4.64322e-10 0 4.64315e-10)
(4.64296e-10 -6.35369e-12 0 4.64322e-10 0 4.64315e-10)
(4.64296e-10 -6.3537e-12 0 4.64322e-10 0 4.64315e-10)
(4.64296e-10 -6.3537e-12 0 4.64322e-10 0 4.64315e-10)
(4.64297e-10 -6.3537e-12 0 4.64322e-10 0 4.64315e-10)
(4.64297e-10 -6.35371e-12 0 4.64322e-10 0 4.64315e-10)
(4.64297e-10 -6.35371e-12 0 4.64322e-10 0 4.64315e-10)
(4.64297e-10 -6.35371e-12 0 4.64322e-10 0 4.64315e-10)
(4.64297e-10 -6.35371e-12 0 4.64322e-10 0 4.64315e-10)
(4.64297e-10 -6.35372e-12 0 4.64322e-10 0 4.64315e-10)
(4.64297e-10 -6.35372e-12 0 4.64322e-10 0 4.64315e-10)
(4.64297e-10 -6.35372e-12 0 4.64323e-10 0 4.64315e-10)
(4.64297e-10 -6.35372e-12 0 4.64323e-10 0 4.64315e-10)
(4.64297e-10 -6.35372e-12 0 4.64323e-10 0 4.64315e-10)
(4.64297e-10 -6.35373e-12 0 4.64323e-10 0 4.64315e-10)
(4.64297e-10 -6.35373e-12 0 4.64323e-10 0 4.64316e-10)
(4.64297e-10 -6.35373e-12 0 4.64323e-10 0 4.64316e-10)
(4.64297e-10 -6.35373e-12 0 4.64323e-10 0 4.64316e-10)
(4.64297e-10 -6.35373e-12 0 4.64323e-10 0 4.64316e-10)
(4.64297e-10 -6.35373e-12 0 4.64323e-10 0 4.64316e-10)
(4.64297e-10 -6.35373e-12 0 4.64323e-10 0 4.64316e-10)
(4.64297e-10 -6.35373e-12 0 4.64323e-10 0 4.64316e-10)
(4.64297e-10 -6.35373e-12 0 4.64323e-10 0 4.64316e-10)
(4.64297e-10 -6.35374e-12 0 4.64323e-10 0 4.64316e-10)
(4.64297e-10 -6.35374e-12 0 4.64323e-10 0 4.64316e-10)
(4.64297e-10 -6.35374e-12 0 4.64323e-10 0 4.64316e-10)
(4.64297e-10 -6.35374e-12 0 4.64323e-10 0 4.64316e-10)
(4.64297e-10 -6.35374e-12 0 4.64323e-10 0 4.64316e-10)
(4.64297e-10 -6.35374e-12 0 4.64323e-10 0 4.64316e-10)
(4.64297e-10 -6.35374e-12 0 4.64323e-10 0 4.64316e-10)
(4.64297e-10 -6.35374e-12 0 4.64323e-10 0 4.64316e-10)
(4.64297e-10 -6.35374e-12 0 4.64323e-10 0 4.64316e-10)
(4.64297e-10 -6.35374e-12 0 4.64323e-10 0 4.64316e-10)
(4.64297e-10 -6.35374e-12 0 4.64323e-10 0 4.64316e-10)
(4.64297e-10 -6.35374e-12 0 4.64323e-10 0 4.64316e-10)
(4.64297e-10 -6.35374e-12 0 4.64323e-10 0 4.64316e-10)
(4.64297e-10 -6.35374e-12 0 4.64323e-10 0 4.64316e-10)
(4.64297e-10 -6.35374e-12 0 4.64323e-10 0 4.64316e-10)
(4.64297e-10 -6.35374e-12 0 4.64323e-10 0 4.64316e-10)
(4.64297e-10 -6.35374e-12 0 4.64323e-10 0 4.64316e-10)
(4.64297e-10 -6.35374e-12 0 4.64323e-10 0 4.64316e-10)
(4.64297e-10 -6.35374e-12 0 4.64323e-10 0 4.64316e-10)
(4.64297e-10 -6.35374e-12 0 4.64323e-10 0 4.64316e-10)
(4.64297e-10 -6.35374e-12 0 4.64323e-10 0 4.64316e-10)
(4.64297e-10 -6.35374e-12 0 4.64323e-10 0 4.64316e-10)
(4.64297e-10 -6.35374e-12 0 4.64323e-10 0 4.64316e-10)
(4.64297e-10 -6.35374e-12 0 4.64323e-10 0 4.64316e-10)
(4.64297e-10 -6.35374e-12 0 4.64323e-10 0 4.64316e-10)
(4.64297e-10 -6.35374e-12 0 4.64323e-10 0 4.64316e-10)
(4.64297e-10 -6.35374e-12 0 4.64323e-10 0 4.64316e-10)
(4.64297e-10 -6.35374e-12 0 4.64323e-10 0 4.64316e-10)
(4.64297e-10 -6.35374e-12 0 4.64323e-10 0 4.64316e-10)
(4.64297e-10 -6.35374e-12 0 4.64323e-10 0 4.64316e-10)
(4.64297e-10 -6.35374e-12 0 4.64323e-10 0 4.64316e-10)
(4.64297e-10 -6.35374e-12 0 4.64323e-10 0 4.64316e-10)
(4.64297e-10 -6.35374e-12 0 4.64323e-10 0 4.64316e-10)
(4.64297e-10 -6.35374e-12 0 4.64323e-10 0 4.64316e-10)
(4.64297e-10 -6.35374e-12 0 4.64323e-10 0 4.64316e-10)
(4.64297e-10 -6.35374e-12 0 4.64323e-10 0 4.64316e-10)
(4.64297e-10 -6.35374e-12 0 4.64323e-10 0 4.64316e-10)
(4.64297e-10 -6.35374e-12 0 4.64323e-10 0 4.64316e-10)
(4.64297e-10 -6.35374e-12 0 4.64323e-10 0 4.64316e-10)
(4.64297e-10 -6.35374e-12 0 4.64323e-10 0 4.64316e-10)
(4.64297e-10 -6.35375e-12 0 4.64323e-10 0 4.64316e-10)
(4.64297e-10 -6.35375e-12 0 4.64323e-10 0 4.64316e-10)
(4.64297e-10 -6.35375e-12 0 4.64323e-10 0 4.64316e-10)
(4.64297e-10 -6.35375e-12 0 4.64323e-10 0 4.64316e-10)
(4.64297e-10 -6.35376e-12 0 4.64323e-10 0 4.64316e-10)
(4.64297e-10 -6.35375e-12 0 4.64323e-10 0 4.64316e-10)
(4.64297e-10 -6.35376e-12 0 4.64323e-10 0 4.64316e-10)
(4.64297e-10 -6.35376e-12 0 4.64323e-10 0 4.64316e-10)
(4.64297e-10 -6.35376e-12 0 4.64323e-10 0 4.64316e-10)
(4.64297e-10 -6.35376e-12 0 4.64323e-10 0 4.64316e-10)
(4.64297e-10 -6.35376e-12 0 4.64323e-10 0 4.64316e-10)
(4.64297e-10 -6.35376e-12 0 4.64323e-10 0 4.64316e-10)
(4.64297e-10 -6.35376e-12 0 4.64323e-10 0 4.64316e-10)
(4.64297e-10 -6.35376e-12 0 4.64323e-10 0 4.64316e-10)
(4.64297e-10 -6.35376e-12 0 4.64323e-10 0 4.64316e-10)
(4.64297e-10 -6.35375e-12 0 4.64323e-10 0 4.64316e-10)
(4.64297e-10 -6.35376e-12 0 4.64323e-10 0 4.64316e-10)
(4.64297e-10 -6.35375e-12 0 4.64323e-10 0 4.64316e-10)
(4.64298e-10 -6.35376e-12 0 4.64323e-10 0 4.64316e-10)
(4.64297e-10 -6.35375e-12 0 4.64323e-10 0 4.64316e-10)
(4.64298e-10 -6.35376e-12 0 4.64324e-10 0 4.64316e-10)
(4.64298e-10 -6.35377e-12 0 4.64324e-10 0 4.64317e-10)
(4.64299e-10 -6.35372e-12 0 4.64325e-10 0 4.64317e-10)
(4.64338e-10 -6.35487e-12 0 4.64368e-10 0 4.64359e-10)
(4.66443e-10 -6.36425e-12 0 4.66489e-10 0 4.66472e-10)
(1.3098e-08 -3.2121e-10 0 1.30986e-08 0 1.30986e-08)
(1.30981e-08 -3.21226e-10 0 1.30988e-08 0 1.30987e-08)
(1.30982e-08 -3.21243e-10 0 1.3099e-08 0 1.30989e-08)
(1.30983e-08 -3.21258e-10 0 1.30991e-08 0 1.3099e-08)
(1.30985e-08 -3.21273e-10 0 1.30993e-08 0 1.30992e-08)
(1.30986e-08 -3.21286e-10 0 1.30994e-08 0 1.30993e-08)
(1.30987e-08 -3.21299e-10 0 1.30996e-08 0 1.30994e-08)
(1.30988e-08 -3.21312e-10 0 1.30997e-08 0 1.30995e-08)
(1.30989e-08 -3.21324e-10 0 1.30998e-08 0 1.30996e-08)
(1.3099e-08 -3.21335e-10 0 1.30999e-08 0 1.30997e-08)
(1.30991e-08 -3.21346e-10 0 1.31e-08 0 1.30998e-08)
(1.30992e-08 -3.21356e-10 0 1.31001e-08 0 1.30999e-08)
(1.30992e-08 -3.21365e-10 0 1.31003e-08 0 1.31e-08)
(1.30993e-08 -3.21375e-10 0 1.31003e-08 0 1.31001e-08)
(1.30994e-08 -3.21383e-10 0 1.31004e-08 0 1.31002e-08)
(1.30995e-08 -3.21392e-10 0 1.31005e-08 0 1.31003e-08)
(1.30995e-08 -3.21399e-10 0 1.31006e-08 0 1.31003e-08)
(1.30996e-08 -3.21407e-10 0 1.31007e-08 0 1.31004e-08)
(1.30996e-08 -3.21414e-10 0 1.31008e-08 0 1.31005e-08)
(1.30997e-08 -3.2142e-10 0 1.31008e-08 0 1.31005e-08)
(1.30998e-08 -3.21427e-10 0 1.31009e-08 0 1.31006e-08)
(1.30998e-08 -3.21433e-10 0 1.3101e-08 0 1.31007e-08)
(1.30999e-08 -3.21438e-10 0 1.3101e-08 0 1.31007e-08)
(1.30999e-08 -3.21444e-10 0 1.31011e-08 0 1.31008e-08)
(1.30999e-08 -3.21449e-10 0 1.31011e-08 0 1.31008e-08)
(1.31e-08 -3.21454e-10 0 1.31012e-08 0 1.31009e-08)
(1.31e-08 -3.21458e-10 0 1.31012e-08 0 1.31009e-08)
(1.31001e-08 -3.21462e-10 0 1.31013e-08 0 1.3101e-08)
(1.31001e-08 -3.21466e-10 0 1.31013e-08 0 1.3101e-08)
(1.31001e-08 -3.2147e-10 0 1.31014e-08 0 1.3101e-08)
(1.31002e-08 -3.21474e-10 0 1.31014e-08 0 1.31011e-08)
(1.31002e-08 -3.21477e-10 0 1.31015e-08 0 1.31011e-08)
(1.31002e-08 -3.21481e-10 0 1.31015e-08 0 1.31011e-08)
(1.31003e-08 -3.21484e-10 0 1.31015e-08 0 1.31012e-08)
(1.31003e-08 -3.21487e-10 0 1.31016e-08 0 1.31012e-08)
(1.31003e-08 -3.21489e-10 0 1.31016e-08 0 1.31012e-08)
(1.31003e-08 -3.21492e-10 0 1.31016e-08 0 1.31012e-08)
(1.31003e-08 -3.21494e-10 0 1.31016e-08 0 1.31013e-08)
(1.31004e-08 -3.21497e-10 0 1.31017e-08 0 1.31013e-08)
(1.31004e-08 -3.21499e-10 0 1.31017e-08 0 1.31013e-08)
(1.31004e-08 -3.21501e-10 0 1.31017e-08 0 1.31013e-08)
(1.31004e-08 -3.21503e-10 0 1.31017e-08 0 1.31014e-08)
(1.31004e-08 -3.21505e-10 0 1.31018e-08 0 1.31014e-08)
(1.31005e-08 -3.21506e-10 0 1.31018e-08 0 1.31014e-08)
(1.31005e-08 -3.21508e-10 0 1.31018e-08 0 1.31014e-08)
(1.31005e-08 -3.2151e-10 0 1.31018e-08 0 1.31014e-08)
(1.31005e-08 -3.21511e-10 0 1.31018e-08 0 1.31014e-08)
(1.31005e-08 -3.21512e-10 0 1.31018e-08 0 1.31015e-08)
(1.31005e-08 -3.21514e-10 0 1.31019e-08 0 1.31015e-08)
(1.31005e-08 -3.21515e-10 0 1.31019e-08 0 1.31015e-08)
(1.31005e-08 -3.21516e-10 0 1.31019e-08 0 1.31015e-08)
(1.31005e-08 -3.21517e-10 0 1.31019e-08 0 1.31015e-08)
(1.31006e-08 -3.21518e-10 0 1.31019e-08 0 1.31015e-08)
(1.31006e-08 -3.21519e-10 0 1.31019e-08 0 1.31015e-08)
(1.31006e-08 -3.2152e-10 0 1.31019e-08 0 1.31015e-08)
(1.31006e-08 -3.21521e-10 0 1.31019e-08 0 1.31015e-08)
(1.31006e-08 -3.21521e-10 0 1.3102e-08 0 1.31015e-08)
(1.31006e-08 -3.21522e-10 0 1.3102e-08 0 1.31016e-08)
(1.31006e-08 -3.21523e-10 0 1.3102e-08 0 1.31016e-08)
(1.31006e-08 -3.21524e-10 0 1.3102e-08 0 1.31016e-08)
(1.31006e-08 -3.21524e-10 0 1.3102e-08 0 1.31016e-08)
(1.31006e-08 -3.21525e-10 0 1.3102e-08 0 1.31016e-08)
(1.31006e-08 -3.21525e-10 0 1.3102e-08 0 1.31016e-08)
(1.31006e-08 -3.21526e-10 0 1.3102e-08 0 1.31016e-08)
(1.31006e-08 -3.21526e-10 0 1.3102e-08 0 1.31016e-08)
(1.31006e-08 -3.21527e-10 0 1.3102e-08 0 1.31016e-08)
(1.31006e-08 -3.21527e-10 0 1.3102e-08 0 1.31016e-08)
(1.31006e-08 -3.21527e-10 0 1.3102e-08 0 1.31016e-08)
(1.31006e-08 -3.21528e-10 0 1.3102e-08 0 1.31016e-08)
(1.31007e-08 -3.21528e-10 0 1.3102e-08 0 1.31016e-08)
(1.31007e-08 -3.21528e-10 0 1.3102e-08 0 1.31016e-08)
(1.31007e-08 -3.21529e-10 0 1.3102e-08 0 1.31016e-08)
(1.31007e-08 -3.21529e-10 0 1.3102e-08 0 1.31016e-08)
(1.31007e-08 -3.21529e-10 0 1.3102e-08 0 1.31016e-08)
(1.31007e-08 -3.21529e-10 0 1.3102e-08 0 1.31016e-08)
(1.31007e-08 -3.2153e-10 0 1.3102e-08 0 1.31016e-08)
(1.31007e-08 -3.2153e-10 0 1.3102e-08 0 1.31016e-08)
(1.31007e-08 -3.2153e-10 0 1.31021e-08 0 1.31016e-08)
(1.31007e-08 -3.2153e-10 0 1.31021e-08 0 1.31016e-08)
(1.31007e-08 -3.2153e-10 0 1.31021e-08 0 1.31016e-08)
(1.31007e-08 -3.21531e-10 0 1.31021e-08 0 1.31016e-08)
(1.31007e-08 -3.21531e-10 0 1.31021e-08 0 1.31016e-08)
(1.31007e-08 -3.21531e-10 0 1.31021e-08 0 1.31016e-08)
(1.31007e-08 -3.21531e-10 0 1.31021e-08 0 1.31016e-08)
(1.31007e-08 -3.21531e-10 0 1.31021e-08 0 1.31016e-08)
(1.31007e-08 -3.21531e-10 0 1.31021e-08 0 1.31017e-08)
(1.31007e-08 -3.21531e-10 0 1.31021e-08 0 1.31017e-08)
(1.31007e-08 -3.21531e-10 0 1.31021e-08 0 1.31017e-08)
(1.31007e-08 -3.21531e-10 0 1.31021e-08 0 1.31017e-08)
(1.31007e-08 -3.21532e-10 0 1.31021e-08 0 1.31017e-08)
(1.31007e-08 -3.21532e-10 0 1.31021e-08 0 1.31017e-08)
(1.31007e-08 -3.21532e-10 0 1.31021e-08 0 1.31017e-08)
(1.31007e-08 -3.21532e-10 0 1.31021e-08 0 1.31017e-08)
(1.31007e-08 -3.21532e-10 0 1.31021e-08 0 1.31017e-08)
(1.31007e-08 -3.21532e-10 0 1.31021e-08 0 1.31017e-08)
(1.31007e-08 -3.21532e-10 0 1.31021e-08 0 1.31017e-08)
(1.31007e-08 -3.21532e-10 0 1.31021e-08 0 1.31017e-08)
(1.31007e-08 -3.21532e-10 0 1.31021e-08 0 1.31017e-08)
(1.31007e-08 -3.21532e-10 0 1.31021e-08 0 1.31017e-08)
(1.31007e-08 -3.21532e-10 0 1.31021e-08 0 1.31017e-08)
(1.31007e-08 -3.21532e-10 0 1.31021e-08 0 1.31017e-08)
(1.31007e-08 -3.21532e-10 0 1.31021e-08 0 1.31017e-08)
(1.31007e-08 -3.21532e-10 0 1.31021e-08 0 1.31017e-08)
(1.31007e-08 -3.21532e-10 0 1.31021e-08 0 1.31017e-08)
(1.31007e-08 -3.21532e-10 0 1.31021e-08 0 1.31017e-08)
(1.31007e-08 -3.21532e-10 0 1.31021e-08 0 1.31017e-08)
(1.31007e-08 -3.21532e-10 0 1.31021e-08 0 1.31017e-08)
(1.31007e-08 -3.21532e-10 0 1.31021e-08 0 1.31017e-08)
(1.31007e-08 -3.21532e-10 0 1.31021e-08 0 1.31017e-08)
(1.31007e-08 -3.21532e-10 0 1.31021e-08 0 1.31017e-08)
(1.31007e-08 -3.21532e-10 0 1.31021e-08 0 1.31017e-08)
(1.31007e-08 -3.21532e-10 0 1.31021e-08 0 1.31017e-08)
(1.31007e-08 -3.21532e-10 0 1.31021e-08 0 1.31017e-08)
(1.31007e-08 -3.21532e-10 0 1.31021e-08 0 1.31017e-08)
(1.31007e-08 -3.21532e-10 0 1.31021e-08 0 1.31017e-08)
(1.31007e-08 -3.21532e-10 0 1.31021e-08 0 1.31017e-08)
(1.31007e-08 -3.21532e-10 0 1.31021e-08 0 1.31017e-08)
(1.31007e-08 -3.21532e-10 0 1.31021e-08 0 1.31017e-08)
(1.31007e-08 -3.21532e-10 0 1.31021e-08 0 1.31017e-08)
(1.31007e-08 -3.21532e-10 0 1.31021e-08 0 1.31017e-08)
(1.31007e-08 -3.21532e-10 0 1.31021e-08 0 1.31017e-08)
(1.31007e-08 -3.21532e-10 0 1.31021e-08 0 1.31017e-08)
(1.31007e-08 -3.21532e-10 0 1.31021e-08 0 1.31017e-08)
(1.31007e-08 -3.21532e-10 0 1.31021e-08 0 1.31017e-08)
(1.31007e-08 -3.21532e-10 0 1.31021e-08 0 1.31017e-08)
(1.31007e-08 -3.21532e-10 0 1.31021e-08 0 1.31017e-08)
(1.31007e-08 -3.21532e-10 0 1.31021e-08 0 1.31017e-08)
(1.31007e-08 -3.21532e-10 0 1.31021e-08 0 1.31017e-08)
(1.31007e-08 -3.21532e-10 0 1.31021e-08 0 1.31017e-08)
(1.31007e-08 -3.21532e-10 0 1.31021e-08 0 1.31017e-08)
(1.31007e-08 -3.21532e-10 0 1.31021e-08 0 1.31017e-08)
(1.31007e-08 -3.21532e-10 0 1.31021e-08 0 1.31017e-08)
(1.31007e-08 -3.21532e-10 0 1.31021e-08 0 1.31017e-08)
(1.31007e-08 -3.21532e-10 0 1.31021e-08 0 1.31017e-08)
(1.31007e-08 -3.21532e-10 0 1.31021e-08 0 1.31017e-08)
(1.31007e-08 -3.21532e-10 0 1.31021e-08 0 1.31017e-08)
(1.31007e-08 -3.21532e-10 0 1.31021e-08 0 1.31017e-08)
(1.31007e-08 -3.21532e-10 0 1.31021e-08 0 1.31017e-08)
(1.31007e-08 -3.21532e-10 0 1.31021e-08 0 1.31017e-08)
(1.31007e-08 -3.21533e-10 0 1.31021e-08 0 1.31017e-08)
(1.31007e-08 -3.21532e-10 0 1.31021e-08 0 1.31017e-08)
(1.31007e-08 -3.21533e-10 0 1.31021e-08 0 1.31017e-08)
(1.31007e-08 -3.21533e-10 0 1.31021e-08 0 1.31017e-08)
(1.31007e-08 -3.21533e-10 0 1.31021e-08 0 1.31017e-08)
(1.31007e-08 -3.21533e-10 0 1.31021e-08 0 1.31017e-08)
(1.31007e-08 -3.21533e-10 0 1.31021e-08 0 1.31017e-08)
(1.31007e-08 -3.21533e-10 0 1.31021e-08 0 1.31017e-08)
(1.31007e-08 -3.21533e-10 0 1.31021e-08 0 1.31017e-08)
(1.31007e-08 -3.21533e-10 0 1.31021e-08 0 1.31017e-08)
(1.31007e-08 -3.21533e-10 0 1.31021e-08 0 1.31017e-08)
(1.31007e-08 -3.21533e-10 0 1.31021e-08 0 1.31017e-08)
(1.31007e-08 -3.21533e-10 0 1.31021e-08 0 1.31017e-08)
(1.31007e-08 -3.21533e-10 0 1.31021e-08 0 1.31017e-08)
(1.31007e-08 -3.21533e-10 0 1.31021e-08 0 1.31017e-08)
(1.31007e-08 -3.21533e-10 0 1.31021e-08 0 1.31017e-08)
(1.31007e-08 -3.21533e-10 0 1.31021e-08 0 1.31017e-08)
(1.31007e-08 -3.21533e-10 0 1.31021e-08 0 1.31017e-08)
(1.31007e-08 -3.21533e-10 0 1.31021e-08 0 1.31017e-08)
(1.31007e-08 -3.21533e-10 0 1.31021e-08 0 1.31017e-08)
(1.31007e-08 -3.21533e-10 0 1.31021e-08 0 1.31017e-08)
(1.31007e-08 -3.21534e-10 0 1.31021e-08 0 1.31017e-08)
(1.31007e-08 -3.21531e-10 0 1.31021e-08 0 1.31017e-08)
(1.31017e-08 -3.21584e-10 0 1.31033e-08 0 1.31028e-08)
(1.31477e-08 -3.2167e-10 0 1.31501e-08 0 1.31492e-08)
(7.21305e-08 -2.87092e-09 0 7.21399e-08 0 7.21375e-08)
(7.2131e-08 -2.87101e-09 0 7.21407e-08 0 7.21382e-08)
(7.21316e-08 -2.8711e-09 0 7.21416e-08 0 7.2139e-08)
(7.21321e-08 -2.87118e-09 0 7.21423e-08 0 7.21395e-08)
(7.21327e-08 -2.87126e-09 0 7.21432e-08 0 7.21403e-08)
(7.21331e-08 -2.87134e-09 0 7.21438e-08 0 7.21408e-08)
(7.21337e-08 -2.87141e-09 0 7.21446e-08 0 7.21415e-08)
(7.21341e-08 -2.87148e-09 0 7.21452e-08 0 7.2142e-08)
(7.21345e-08 -2.87155e-09 0 7.21459e-08 0 7.21425e-08)
(7.21349e-08 -2.87161e-09 0 7.21465e-08 0 7.2143e-08)
(7.21353e-08 -2.87167e-09 0 7.21471e-08 0 7.21435e-08)
(7.21357e-08 -2.87172e-09 0 7.21476e-08 0 7.2144e-08)
(7.2136e-08 -2.87178e-09 0 7.21481e-08 0 7.21444e-08)
(7.21364e-08 -2.87183e-09 0 7.21486e-08 0 7.21448e-08)
(7.21367e-08 -2.87188e-09 0 7.21491e-08 0 7.21452e-08)
(7.2137e-08 -2.87192e-09 0 7.21495e-08 0 7.21456e-08)
(7.21373e-08 -2.87197e-09 0 7.21499e-08 0 7.21459e-08)
(7.21376e-08 -2.87201e-09 0 7.21504e-08 0 7.21463e-08)
(7.21378e-08 -2.87205e-09 0 7.21507e-08 0 7.21466e-08)
(7.21381e-08 -2.87208e-09 0 7.21511e-08 0 7.21469e-08)
(7.21383e-08 -2.87212e-09 0 7.21514e-08 0 7.21472e-08)
(7.21385e-08 -2.87215e-09 0 7.21518e-08 0 7.21475e-08)
(7.21387e-08 -2.87218e-09 0 7.21521e-08 0 7.21477e-08)
(7.2139e-08 -2.87221e-09 0 7.21524e-08 0 7.2148e-08)
(7.21391e-08 -2.87224e-09 0 7.21526e-08 0 7.21482e-08)
(7.21393e-08 -2.87227e-09 0 7.21529e-08 0 7.21484e-08)
(7.21395e-08 -2.8723e-09 0 7.21532e-08 0 7.21486e-08)
(7.21397e-08 -2.87232e-09 0 7.21534e-08 0 7.21488e-08)
(7.21398e-08 -2.87234e-09 0 7.21536e-08 0 7.2149e-08)
(7.214e-08 -2.87237e-09 0 7.21539e-08 0 7.21492e-08)
(7.21401e-08 -2.87239e-09 0 7.21541e-08 0 7.21494e-08)
(7.21402e-08 -2.87241e-09 0 7.21543e-08 0 7.21495e-08)
(7.21404e-08 -2.87242e-09 0 7.21544e-08 0 7.21497e-08)
(7.21405e-08 -2.87244e-09 0 7.21546e-08 0 7.21498e-08)
(7.21406e-08 -2.87246e-09 0 7.21548e-08 0 7.215e-08)
(7.21407e-08 -2.87247e-09 0 7.21549e-08 0 7.21501e-08)
(7.21408e-08 -2.87249e-09 0 7.21551e-08 0 7.21502e-08)
(7.21409e-08 -2.8725e-09 0 7.21552e-08 0 7.21503e-08)
(7.2141e-08 -2.87252e-09 0 7.21554e-08 0 7.21505e-08)
(7.2141e-08 -2.87253e-09 0 7.21555e-08 0 7.21506e-08)
(7.21411e-08 -2.87254e-09 0 7.21556e-08 0 7.21507e-08)
(7.21412e-08 -2.87255e-09 0 7.21557e-08 0 7.21507e-08)
(7.21413e-08 -2.87256e-09 0 7.21558e-08 0 7.21508e-08)
(7.21413e-08 -2.87257e-09 0 7.21559e-08 0 7.21509e-08)
(7.21414e-08 -2.87258e-09 0 7.2156e-08 0 7.2151e-08)
(7.21415e-08 -2.87259e-09 0 7.21561e-08 0 7.21511e-08)
(7.21415e-08 -2.8726e-09 0 7.21562e-08 0 7.21512e-08)
(7.21416e-08 -2.87261e-09 0 7.21563e-08 0 7.21512e-08)
(7.21416e-08 -2.87261e-09 0 7.21563e-08 0 7.21513e-08)
(7.21417e-08 -2.87262e-09 0 7.21564e-08 0 7.21513e-08)
(7.21417e-08 -2.87263e-09 0 7.21565e-08 0 7.21514e-08)
(7.21418e-08 -2.87263e-09 0 7.21565e-08 0 7.21514e-08)
(7.21418e-08 -2.87264e-09 0 7.21566e-08 0 7.21515e-08)
(7.21418e-08 -2.87264e-09 0 7.21566e-08 0 7.21515e-08)
(7.21419e-08 -2.87265e-09 0 7.21567e-08 0 7.21516e-08)
(7.21419e-08 -2.87265e-09 0 7.21568e-08 0 7.21516e-08)
(7.2142e-08 -2.87266e-09 0 7.21568e-08 0 7.21517e-08)
(7.2142e-08 -2.87266e-09 0 7.21568e-08 0 7.21517e-08)
(7.2142e-08 -2.87267e-09 0 7.21569e-08 0 7.21517e-08)
(7.2142e-08 -2.87267e-09 0 7.21569e-08 0 7.21518e-08)
(7.21421e-08 -2.87267e-09 0 7.2157e-08 0 7.21518e-08)
(7.21421e-08 -2.87268e-09 0 7.2157e-08 0 7.21518e-08)
(7.21421e-08 -2.87268e-09 0 7.2157e-08 0 7.21519e-08)
(7.21421e-08 -2.87268e-09 0 7.21571e-08 0 7.21519e-08)
(7.21421e-08 -2.87269e-09 0 7.21571e-08 0 7.21519e-08)
(7.21422e-08 -2.87269e-09 0 7.21571e-08 0 7.21519e-08)
(7.21422e-08 -2.87269e-09 0 7.21571e-08 0 7.21519e-08)
(7.21422e-08 -2.87269e-09 0 7.21572e-08 0 7.2152e-08)
(7.21422e-08 -2.8727e-09 0 7.21572e-08 0 7.2152e-08)
(7.21422e-08 -2.8727e-09 0 7.21572e-08 0 7.2152e-08)
(7.21422e-08 -2.8727e-09 0 7.21572e-08 0 7.2152e-08)
(7.21423e-08 -2.8727e-09 0 7.21572e-08 0 7.2152e-08)
(7.21423e-08 -2.8727e-09 0 7.21573e-08 0 7.2152e-08)
(7.21423e-08 -2.8727e-09 0 7.21573e-08 0 7.21521e-08)
(7.21423e-08 -2.87271e-09 0 7.21573e-08 0 7.21521e-08)
(7.21423e-08 -2.87271e-09 0 7.21573e-08 0 7.21521e-08)
(7.21423e-08 -2.87271e-09 0 7.21573e-08 0 7.21521e-08)
(7.21423e-08 -2.87271e-09 0 7.21573e-08 0 7.21521e-08)
(7.21423e-08 -2.87271e-09 0 7.21573e-08 0 7.21521e-08)
(7.21423e-08 -2.87271e-09 0 7.21573e-08 0 7.21521e-08)
(7.21423e-08 -2.87271e-09 0 7.21574e-08 0 7.21521e-08)
(7.21423e-08 -2.87271e-09 0 7.21574e-08 0 7.21521e-08)
(7.21423e-08 -2.87271e-09 0 7.21574e-08 0 7.21521e-08)
(7.21423e-08 -2.87272e-09 0 7.21574e-08 0 7.21521e-08)
(7.21424e-08 -2.87272e-09 0 7.21574e-08 0 7.21522e-08)
(7.21424e-08 -2.87272e-09 0 7.21574e-08 0 7.21522e-08)
(7.21424e-08 -2.87272e-09 0 7.21574e-08 0 7.21522e-08)
(7.21424e-08 -2.87272e-09 0 7.21574e-08 0 7.21522e-08)
(7.21424e-08 -2.87272e-09 0 7.21574e-08 0 7.21522e-08)
(7.21424e-08 -2.87272e-09 0 7.21574e-08 0 7.21522e-08)
(7.21424e-08 -2.87272e-09 0 7.21574e-08 0 7.21522e-08)
(7.21424e-08 -2.87272e-09 0 7.21574e-08 0 7.21522e-08)
(7.21424e-08 -2.87272e-09 0 7.21574e-08 0 7.21522e-08)
(7.21424e-08 -2.87272e-09 0 7.21574e-08 0 7.21522e-08)
(7.21424e-08 -2.87272e-09 0 7.21574e-08 0 7.21522e-08)
(7.21424e-08 -2.87272e-09 0 7.21574e-08 0 7.21522e-08)
(7.21424e-08 -2.87272e-09 0 7.21574e-08 0 7.21522e-08)
(7.21424e-08 -2.87272e-09 0 7.21575e-08 0 7.21522e-08)
(7.21424e-08 -2.87272e-09 0 7.21575e-08 0 7.21522e-08)
(7.21424e-08 -2.87272e-09 0 7.21575e-08 0 7.21522e-08)
(7.21424e-08 -2.87272e-09 0 7.21575e-08 0 7.21522e-08)
(7.21424e-08 -2.87272e-09 0 7.21575e-08 0 7.21522e-08)
(7.21424e-08 -2.87272e-09 0 7.21575e-08 0 7.21522e-08)
(7.21424e-08 -2.87272e-09 0 7.21575e-08 0 7.21522e-08)
(7.21424e-08 -2.87272e-09 0 7.21575e-08 0 7.21522e-08)
(7.21424e-08 -2.87272e-09 0 7.21575e-08 0 7.21522e-08)
(7.21424e-08 -2.87272e-09 0 7.21575e-08 0 7.21522e-08)
(7.21424e-08 -2.87272e-09 0 7.21575e-08 0 7.21522e-08)
(7.21424e-08 -2.87272e-09 0 7.21575e-08 0 7.21522e-08)
(7.21424e-08 -2.87272e-09 0 7.21575e-08 0 7.21522e-08)
(7.21424e-08 -2.87272e-09 0 7.21575e-08 0 7.21522e-08)
(7.21424e-08 -2.87272e-09 0 7.21575e-08 0 7.21522e-08)
(7.21424e-08 -2.87272e-09 0 7.21575e-08 0 7.21522e-08)
(7.21424e-08 -2.87272e-09 0 7.21575e-08 0 7.21522e-08)
(7.21424e-08 -2.87272e-09 0 7.21575e-08 0 7.21522e-08)
(7.21424e-08 -2.87272e-09 0 7.21575e-08 0 7.21522e-08)
(7.21424e-08 -2.87272e-09 0 7.21575e-08 0 7.21522e-08)
(7.21424e-08 -2.87272e-09 0 7.21575e-08 0 7.21522e-08)
(7.21424e-08 -2.87272e-09 0 7.21575e-08 0 7.21522e-08)
(7.21424e-08 -2.87272e-09 0 7.21575e-08 0 7.21522e-08)
(7.21424e-08 -2.87272e-09 0 7.21575e-08 0 7.21522e-08)
(7.21424e-08 -2.87272e-09 0 7.21575e-08 0 7.21522e-08)
(7.21424e-08 -2.87272e-09 0 7.21575e-08 0 7.21522e-08)
(7.21424e-08 -2.87272e-09 0 7.21575e-08 0 7.21522e-08)
(7.21424e-08 -2.87272e-09 0 7.21575e-08 0 7.21522e-08)
(7.21424e-08 -2.87272e-09 0 7.21575e-08 0 7.21522e-08)
(7.21424e-08 -2.87272e-09 0 7.21575e-08 0 7.21522e-08)
(7.21424e-08 -2.87272e-09 0 7.21575e-08 0 7.21522e-08)
(7.21424e-08 -2.87272e-09 0 7.21575e-08 0 7.21522e-08)
(7.21424e-08 -2.87272e-09 0 7.21575e-08 0 7.21522e-08)
(7.21424e-08 -2.87272e-09 0 7.21575e-08 0 7.21522e-08)
(7.21424e-08 -2.87272e-09 0 7.21575e-08 0 7.21522e-08)
(7.21424e-08 -2.87272e-09 0 7.21575e-08 0 7.21522e-08)
(7.21424e-08 -2.87272e-09 0 7.21575e-08 0 7.21522e-08)
(7.21424e-08 -2.87272e-09 0 7.21574e-08 0 7.21522e-08)
(7.21424e-08 -2.87272e-09 0 7.21575e-08 0 7.21522e-08)
(7.21424e-08 -2.87272e-09 0 7.21574e-08 0 7.21522e-08)
(7.21424e-08 -2.87272e-09 0 7.21575e-08 0 7.21522e-08)
(7.21424e-08 -2.87272e-09 0 7.21574e-08 0 7.21522e-08)
(7.21424e-08 -2.87272e-09 0 7.21575e-08 0 7.21522e-08)
(7.21424e-08 -2.87272e-09 0 7.21575e-08 0 7.21522e-08)
(7.21424e-08 -2.87273e-09 0 7.21575e-08 0 7.21522e-08)
(7.21424e-08 -2.87272e-09 0 7.21575e-08 0 7.21522e-08)
(7.21424e-08 -2.87273e-09 0 7.21575e-08 0 7.21523e-08)
(7.21424e-08 -2.87273e-09 0 7.21575e-08 0 7.21522e-08)
(7.21424e-08 -2.87273e-09 0 7.21575e-08 0 7.21523e-08)
(7.21424e-08 -2.87273e-09 0 7.21575e-08 0 7.21523e-08)
(7.21424e-08 -2.87273e-09 0 7.21575e-08 0 7.21523e-08)
(7.21424e-08 -2.87273e-09 0 7.21575e-08 0 7.21523e-08)
(7.21424e-08 -2.87273e-09 0 7.21575e-08 0 7.21523e-08)
(7.21424e-08 -2.87273e-09 0 7.21575e-08 0 7.21523e-08)
(7.21424e-08 -2.87273e-09 0 7.21575e-08 0 7.21523e-08)
(7.21424e-08 -2.87273e-09 0 7.21575e-08 0 7.21523e-08)
(7.21424e-08 -2.87273e-09 0 7.21575e-08 0 7.21523e-08)
(7.21424e-08 -2.87273e-09 0 7.21575e-08 0 7.21523e-08)
(7.21424e-08 -2.87273e-09 0 7.21575e-08 0 7.21523e-08)
(7.21424e-08 -2.87273e-09 0 7.21575e-08 0 7.21523e-08)
(7.21425e-08 -2.87273e-09 0 7.21575e-08 0 7.21523e-08)
(7.21424e-08 -2.87273e-09 0 7.21575e-08 0 7.21523e-08)
(7.21425e-08 -2.87273e-09 0 7.21576e-08 0 7.21523e-08)
(7.21425e-08 -2.87273e-09 0 7.21576e-08 0 7.21523e-08)
(7.21425e-08 -2.87271e-09 0 7.21577e-08 0 7.21524e-08)
(7.21463e-08 -2.87306e-09 0 7.21627e-08 0 7.21568e-08)
(7.23072e-08 -2.86763e-09 0 7.23319e-08 0 7.2322e-08)
(1.59129e-07 -8.66097e-09 0 1.59162e-07 0 1.59152e-07)
(1.5913e-07 -8.66113e-09 0 1.59163e-07 0 1.59153e-07)
(1.5913e-07 -8.66131e-09 0 1.59165e-07 0 1.59154e-07)
(1.59131e-07 -8.66146e-09 0 1.59166e-07 0 1.59155e-07)
(1.59132e-07 -8.66161e-09 0 1.59167e-07 0 1.59156e-07)
(1.59132e-07 -8.66175e-09 0 1.59168e-07 0 1.59156e-07)
(1.59133e-07 -8.66189e-09 0 1.59169e-07 0 1.59157e-07)
(1.59133e-07 -8.66202e-09 0 1.5917e-07 0 1.59158e-07)
(1.59134e-07 -8.66215e-09 0 1.59171e-07 0 1.59159e-07)
(1.59134e-07 -8.66226e-09 0 1.59172e-07 0 1.59159e-07)
(1.59135e-07 -8.66238e-09 0 1.59173e-07 0 1.5916e-07)
(1.59135e-07 -8.66248e-09 0 1.59174e-07 0 1.59161e-07)
(1.59135e-07 -8.66259e-09 0 1.59175e-07 0 1.59161e-07)
(1.59136e-07 -8.66268e-09 0 1.59176e-07 0 1.59162e-07)
(1.59136e-07 -8.66277e-09 0 1.59176e-07 0 1.59162e-07)
(1.59136e-07 -8.66286e-09 0 1.59177e-07 0 1.59163e-07)
(1.59137e-07 -8.66294e-09 0 1.59178e-07 0 1.59163e-07)
(1.59137e-07 -8.66302e-09 0 1.59179e-07 0 1.59164e-07)
(1.59137e-07 -8.6631e-09 0 1.59179e-07 0 1.59164e-07)
(1.59138e-07 -8.66317e-09 0 1.5918e-07 0 1.59165e-07)
(1.59138e-07 -8.66324e-09 0 1.5918e-07 0 1.59165e-07)
(1.59138e-07 -8.6633e-09 0 1.59181e-07 0 1.59166e-07)
(1.59138e-07 -8.66336e-09 0 1.59181e-07 0 1.59166e-07)
(1.59139e-07 -8.66342e-09 0 1.59182e-07 0 1.59166e-07)
(1.59139e-07 -8.66347e-09 0 1.59182e-07 0 1.59167e-07)
(1.59139e-07 -8.66353e-09 0 1.59183e-07 0 1.59167e-07)
(1.59139e-07 -8.66357e-09 0 1.59183e-07 0 1.59167e-07)
(1.59139e-07 -8.66362e-09 0 1.59183e-07 0 1.59167e-07)
(1.5914e-07 -8.66367e-09 0 1.59184e-07 0 1.59168e-07)
(1.5914e-07 -8.66371e-09 0 1.59184e-07 0 1.59168e-07)
(1.5914e-07 -8.66375e-09 0 1.59185e-07 0 1.59168e-07)
(1.5914e-07 -8.66379e-09 0 1.59185e-07 0 1.59168e-07)
(1.5914e-07 -8.66382e-09 0 1.59185e-07 0 1.59169e-07)
(1.5914e-07 -8.66386e-09 0 1.59185e-07 0 1.59169e-07)
(1.5914e-07 -8.66389e-09 0 1.59186e-07 0 1.59169e-07)
(1.59141e-07 -8.66392e-09 0 1.59186e-07 0 1.59169e-07)
(1.59141e-07 -8.66395e-09 0 1.59186e-07 0 1.59169e-07)
(1.59141e-07 -8.66397e-09 0 1.59186e-07 0 1.5917e-07)
(1.59141e-07 -8.664e-09 0 1.59187e-07 0 1.5917e-07)
(1.59141e-07 -8.66402e-09 0 1.59187e-07 0 1.5917e-07)