/*--------------------------------*- C++ -*----------------------------------*\
| =========                 |                                                 |
| \\      /  F ield         | OpenFOAM: The Open Source CFD Toolbox           |
|  \\    /   O peration     | Version:  v1912                                 |
|   \\  /    A nd           | Website:  www.openfoam.com                      |
|    \\/     M anipulation  |                                                 |
\*---------------------------------------------------------------------------*/
FoamFile
{
    version     2.0;
    format      ascii;
    class       volScalarField;
    location    "70";
    object      k;
}
// * * * * * * * * * * * * * * * * * * * * * * * * * * * * * * * * * * * * * //

dimensions      [0 2 -2 0 0 0 0];


internalField   nonuniform List<scalar> 
14268
(
6.16717e-07
6.16168e-07
6.1547e-07
6.14785e-07
6.13555e-07
6.11505e-07
6.09464e-07
6.08601e-07
6.08371e-07
6.08683e-07
6.09368e-07
6.1054e-07
6.11976e-07
6.13702e-07
6.15789e-07
6.18239e-07
6.20997e-07
6.24521e-07
6.28641e-07
6.3284e-07
6.36893e-07
6.40699e-07
6.43997e-07
6.46964e-07
6.49501e-07
6.51592e-07
6.53395e-07
6.55169e-07
6.57191e-07
6.59481e-07
6.6174e-07
6.63868e-07
6.65574e-07
6.66663e-07
6.67122e-07
6.67242e-07
6.67674e-07
6.68141e-07
6.6901e-07
6.70099e-07
6.71287e-07
6.72651e-07
6.73883e-07
6.75022e-07
6.76174e-07
6.77282e-07
6.78396e-07
6.79462e-07
6.80295e-07
6.81061e-07
6.81764e-07
6.82086e-07
6.82347e-07
6.81782e-07
6.81455e-07
6.81265e-07
6.81191e-07
6.80989e-07
6.80816e-07
6.8048e-07
6.80364e-07
6.79909e-07
6.79531e-07
6.79079e-07
6.78603e-07
6.78016e-07
6.77903e-07
6.78061e-07
6.7859e-07
6.79525e-07
6.80797e-07
6.82175e-07
6.83893e-07
6.85458e-07
6.87341e-07
6.89005e-07
6.9099e-07
6.928e-07
6.94937e-07
6.97383e-07
7.00701e-07
7.05492e-07
7.1262e-07
7.1892e-07
7.26006e-07
7.28715e-07
3.18877e-07
3.13914e-07
3.08207e-07
3.02355e-07
2.96201e-07
2.90082e-07
2.84225e-07
2.78738e-07
2.73689e-07
2.69062e-07
2.64891e-07
2.61259e-07
2.58178e-07
2.55769e-07
2.54185e-07
2.53645e-07
2.54328e-07
2.56152e-07
2.58921e-07
2.62414e-07
2.66287e-07
2.702e-07
2.73976e-07
2.77465e-07
2.80499e-07
2.8315e-07
2.8563e-07
2.88011e-07
2.90577e-07
2.93453e-07
2.9635e-07
2.98862e-07
3.00549e-07
3.01166e-07
3.00743e-07
2.99346e-07
2.97068e-07
2.93741e-07
2.89691e-07
2.85208e-07
2.80023e-07
2.74829e-07
2.6937e-07
2.63997e-07
2.59267e-07
2.55565e-07
2.53054e-07
2.52015e-07
2.51699e-07
2.52547e-07
2.5433e-07
2.55925e-07
2.58404e-07
2.59944e-07
2.61087e-07
2.62986e-07
2.6297e-07
2.63426e-07
2.62126e-07
2.60746e-07
2.59021e-07
2.57182e-07
2.55421e-07
2.5423e-07
2.53326e-07
2.52971e-07
2.53335e-07
2.53974e-07
2.54914e-07
2.56516e-07
2.58353e-07
2.60573e-07
2.63082e-07
2.65875e-07
2.68409e-07
2.71486e-07
2.7413e-07
2.77226e-07
2.80036e-07
2.83517e-07
2.87381e-07
2.9249e-07
2.97925e-07
2.99688e-07
2.99672e-07
2.97023e-07
1.34042e-07
1.31245e-07
1.28151e-07
1.25103e-07
1.22036e-07
1.19118e-07
1.16367e-07
1.13793e-07
1.11456e-07
1.09343e-07
1.07458e-07
1.05828e-07
1.04447e-07
1.03362e-07
1.02629e-07
1.02312e-07
1.02469e-07
1.03066e-07
1.04019e-07
1.05248e-07
1.06634e-07
1.08037e-07
1.09392e-07
1.10622e-07
1.11657e-07
1.12525e-07
1.13312e-07
1.14039e-07
1.14827e-07
1.15741e-07
1.16674e-07
1.17481e-07
1.17993e-07
1.18102e-07
1.17811e-07
1.1714e-07
1.1608e-07
1.14565e-07
1.12744e-07
1.1077e-07
1.08547e-07
1.06377e-07
1.0417e-07
1.02068e-07
1.00267e-07
9.8886e-08
9.79595e-08
9.75572e-08
9.74147e-08
9.76758e-08
9.82479e-08
9.87706e-08
9.95929e-08
1.00104e-07
1.00488e-07
1.01136e-07
1.01089e-07
1.01189e-07
1.00666e-07
1.00102e-07
9.94316e-08
9.87199e-08
9.80549e-08
9.7585e-08
9.7234e-08
9.70764e-08
9.71607e-08
9.73329e-08
9.76072e-08
9.80935e-08
9.867e-08
9.93714e-08
1.00181e-07
1.01083e-07
1.01912e-07
1.02916e-07
1.038e-07
1.04836e-07
1.05785e-07
1.06953e-07
1.08143e-07
1.09619e-07
1.10921e-07
1.1145e-07
1.11762e-07
1.12359e-07
7.96233e-08
7.85296e-08
7.73451e-08
7.62078e-08
7.50737e-08
7.40285e-08
7.30446e-08
7.21307e-08
7.13038e-08
7.057e-08
6.99187e-08
6.93595e-08
6.88859e-08
6.85117e-08
6.82553e-08
6.81331e-08
6.81603e-08
6.83294e-08
6.86146e-08
6.89932e-08
6.94272e-08
6.98747e-08
7.0312e-08
7.07114e-08
7.10472e-08
7.1329e-08
7.15834e-08
7.18184e-08
7.2076e-08
7.2382e-08
7.26995e-08
7.29741e-08
7.31478e-08
7.31796e-08
7.30636e-08
7.28046e-08
7.23998e-08
7.18353e-08
7.11701e-08
7.04637e-08
6.96811e-08
6.89284e-08
6.8184e-08
6.74935e-08
6.69185e-08
6.64877e-08
6.62131e-08
6.60942e-08
6.60563e-08
6.61463e-08
6.63032e-08
6.64637e-08
6.66946e-08
6.68409e-08
6.6963e-08
6.71346e-08
6.71227e-08
6.71114e-08
6.69549e-08
6.67575e-08
6.65506e-08
6.63223e-08
6.61267e-08
6.59757e-08
6.58772e-08
6.58272e-08
6.58496e-08
6.58923e-08
6.59762e-08
6.61024e-08
6.62729e-08
6.64628e-08
6.67007e-08
6.69423e-08
6.7201e-08
6.74684e-08
6.77519e-08
6.80367e-08
6.83431e-08
6.86851e-08
6.90425e-08
6.94368e-08
6.97473e-08
6.98515e-08
6.9914e-08
6.97547e-08
6.39233e-08
6.33761e-08
6.28184e-08
6.23051e-08
6.18158e-08
6.13949e-08
6.10065e-08
6.06659e-08
6.03733e-08
6.01355e-08
5.99343e-08
5.97794e-08
5.96628e-08
5.95871e-08
5.95549e-08
5.95624e-08
5.96139e-08
5.97051e-08
5.98251e-08
5.99686e-08
6.01259e-08
6.02835e-08
6.0438e-08
6.05775e-08
6.06927e-08
6.07867e-08
6.08692e-08
6.09415e-08
6.10186e-08
6.11091e-08
6.12104e-08
6.13029e-08
6.1365e-08
6.13753e-08
6.13356e-08
6.12468e-08
6.11013e-08
6.08972e-08
6.06518e-08
6.04041e-08
6.0128e-08
5.98788e-08
5.96342e-08
5.94233e-08
5.92583e-08
5.91417e-08
5.90839e-08
5.90548e-08
5.90549e-08
5.90982e-08
5.91411e-08
5.92063e-08
5.92621e-08
5.93085e-08
5.93581e-08
5.93835e-08
5.94034e-08
5.93739e-08
5.93492e-08
5.92866e-08
5.92403e-08
5.91789e-08
5.91434e-08
5.91061e-08
5.91009e-08
5.91001e-08
5.91161e-08
5.91333e-08
5.91753e-08
5.92013e-08
5.92584e-08
5.92995e-08
5.93743e-08
5.94133e-08
5.95092e-08
5.95475e-08
5.9657e-08
5.97101e-08
5.9826e-08
5.99073e-08
6.00304e-08
6.0148e-08
6.02574e-08
6.03157e-08
6.03617e-08
6.04528e-08
5.88749e-08
5.86532e-08
5.84362e-08
5.82528e-08
5.80814e-08
5.79507e-08
5.78308e-08
5.77294e-08
5.76479e-08
5.75939e-08
5.75501e-08
5.75242e-08
5.75119e-08
5.75112e-08
5.75273e-08
5.7548e-08
5.75785e-08
5.76167e-08
5.76597e-08
5.77082e-08
5.77569e-08
5.78052e-08
5.78536e-08
5.78972e-08
5.79351e-08
5.79692e-08
5.79977e-08
5.80227e-08
5.80512e-08
5.80827e-08
5.8123e-08
5.81632e-08
5.81947e-08
5.82031e-08
5.81942e-08
5.81606e-08
5.8099e-08
5.80217e-08
5.79236e-08
5.783e-08
5.77303e-08
5.76401e-08
5.75623e-08
5.75041e-08
5.74711e-08
5.74553e-08
5.74712e-08
5.7484e-08
5.75029e-08
5.75314e-08
5.75389e-08
5.75835e-08
5.759e-08
5.76046e-08
5.76301e-08
5.7618e-08
5.76403e-08
5.76152e-08
5.76229e-08
5.76046e-08
5.76087e-08
5.76005e-08
5.76156e-08
5.76153e-08
5.76425e-08
5.76615e-08
5.76753e-08
5.76906e-08
5.7724e-08
5.77253e-08
5.77535e-08
5.77526e-08
5.77835e-08
5.77702e-08
5.78188e-08
5.77944e-08
5.78544e-08
5.78394e-08
5.79047e-08
5.79073e-08
5.79653e-08
5.79955e-08
5.80206e-08
5.80201e-08
5.80193e-08
5.79348e-08
5.73993e-08
5.72147e-08
5.70469e-08
5.69136e-08
5.67958e-08
5.67286e-08
5.6666e-08
5.66316e-08
5.66127e-08
5.6623e-08
5.66386e-08
5.66721e-08
5.67195e-08
5.67754e-08
5.68398e-08
5.69016e-08
5.69635e-08
5.7022e-08
5.70723e-08
5.71152e-08
5.71484e-08
5.71735e-08
5.71961e-08
5.721e-08
5.72225e-08
5.72318e-08
5.72361e-08
5.72365e-08
5.72404e-08
5.72433e-08
5.72557e-08
5.72678e-08
5.7275e-08
5.72712e-08
5.72663e-08
5.72499e-08
5.72263e-08
5.71874e-08
5.71377e-08
5.70923e-08
5.70494e-08
5.70162e-08
5.69991e-08
5.69875e-08
5.69978e-08
5.70162e-08
5.70546e-08
5.7077e-08
5.71079e-08
5.71418e-08
5.7138e-08
5.71757e-08
5.71688e-08
5.7177e-08
5.71958e-08
5.7176e-08
5.71972e-08
5.71758e-08
5.71919e-08
5.71905e-08
5.72092e-08
5.72215e-08
5.72516e-08
5.72694e-08
5.73084e-08
5.73377e-08
5.73552e-08
5.73731e-08
5.74098e-08
5.74052e-08
5.74274e-08
5.7416e-08
5.74333e-08
5.74033e-08
5.74373e-08
5.73932e-08
5.74378e-08
5.74034e-08
5.74541e-08
5.74341e-08
5.74761e-08
5.74788e-08
5.74886e-08
5.75009e-08
5.75105e-08
5.75038e-08
5.6857e-08
5.67402e-08
5.66322e-08
5.65773e-08
5.65123e-08
5.64983e-08
5.64768e-08
5.64841e-08
5.64998e-08
5.65361e-08
5.65732e-08
5.6618e-08
5.66698e-08
5.67214e-08
5.67772e-08
5.68262e-08
5.68754e-08
5.69253e-08
5.69667e-08
5.70003e-08
5.70229e-08
5.70361e-08
5.70466e-08
5.70499e-08
5.70548e-08
5.70549e-08
5.70506e-08
5.70394e-08
5.70345e-08
5.70288e-08
5.70336e-08
5.70365e-08
5.70373e-08
5.70338e-08
5.70235e-08
5.70104e-08
5.69945e-08
5.69667e-08
5.69329e-08
5.69076e-08
5.68765e-08
5.68531e-08
5.68445e-08
5.68498e-08
5.68766e-08
5.69079e-08
5.69601e-08
5.7004e-08
5.70459e-08
5.70738e-08
5.7073e-08
5.71132e-08
5.70944e-08
5.71056e-08
5.71157e-08
5.70929e-08
5.71082e-08
5.70875e-08
5.71023e-08
5.71063e-08
5.71292e-08
5.71495e-08
5.71845e-08
5.72121e-08
5.72565e-08
5.7293e-08
5.73139e-08
5.73351e-08
5.73777e-08
5.73739e-08
5.73971e-08
5.73843e-08
5.73994e-08
5.73628e-08
5.73953e-08
5.73424e-08
5.73843e-08
5.73422e-08
5.73904e-08
5.7364e-08
5.74062e-08
5.74066e-08
5.7414e-08
5.74164e-08
5.74153e-08
5.7362e-08
5.67222e-08
5.65852e-08
5.6455e-08
5.63931e-08
5.6319e-08
5.63015e-08
5.62775e-08
5.62853e-08
5.63013e-08
5.63397e-08
5.63809e-08
5.64351e-08
5.65029e-08
5.65746e-08
5.66542e-08
5.67283e-08
5.68042e-08
5.6879e-08
5.69409e-08
5.69912e-08
5.70247e-08
5.70425e-08
5.70534e-08
5.70537e-08
5.70561e-08
5.70527e-08
5.70408e-08
5.7017e-08
5.69994e-08
5.69827e-08
5.69757e-08
5.69613e-08
5.69428e-08
5.6927e-08
5.69132e-08
5.69012e-08
5.68828e-08
5.68502e-08
5.68167e-08
5.67838e-08
5.676e-08
5.67447e-08
5.67448e-08
5.67576e-08
5.6793e-08
5.68384e-08
5.68977e-08
5.69414e-08
5.70002e-08
5.70452e-08
5.70454e-08
5.70812e-08
5.70664e-08
5.70794e-08
5.70854e-08
5.70614e-08
5.70666e-08
5.70444e-08
5.70528e-08
5.70605e-08
5.70837e-08
5.71105e-08
5.71515e-08
5.71913e-08
5.72427e-08
5.72909e-08
5.73222e-08
5.73436e-08
5.73974e-08
5.73977e-08
5.74263e-08
5.74144e-08
5.74315e-08
5.73889e-08
5.74234e-08
5.73648e-08
5.74056e-08
5.73578e-08
5.74081e-08
5.73805e-08
5.74253e-08
5.74253e-08
5.74274e-08
5.74218e-08
5.74168e-08
5.7375e-08
5.65865e-08
5.64543e-08
5.63307e-08
5.62809e-08
5.62158e-08
5.62114e-08
5.6199e-08
5.62224e-08
5.62525e-08
5.63029e-08
5.63553e-08
5.64174e-08
5.64883e-08
5.65611e-08
5.66431e-08
5.67172e-08
5.67912e-08
5.68687e-08
5.69362e-08
5.70004e-08
5.70495e-08
5.70737e-08
5.70976e-08
5.7109e-08
5.712e-08
5.71175e-08
5.70982e-08
5.70619e-08
5.70374e-08
5.70087e-08
5.69934e-08
5.69629e-08
5.69214e-08
5.689e-08
5.68617e-08
5.68492e-08
5.68234e-08
5.67918e-08
5.67567e-08
5.67233e-08
5.66984e-08
5.66831e-08
5.66809e-08
5.66959e-08
5.67392e-08
5.67969e-08
5.68778e-08
5.69635e-08
5.70346e-08
5.70673e-08
5.70804e-08
5.71248e-08
5.70879e-08
5.71117e-08
5.71071e-08
5.70825e-08
5.70773e-08
5.70542e-08
5.70537e-08
5.70639e-08
5.70892e-08
5.71193e-08
5.71648e-08
5.7211e-08
5.72693e-08
5.73292e-08
5.73687e-08
5.73897e-08
5.74536e-08
5.74581e-08
5.74886e-08
5.74776e-08
5.74937e-08
5.74434e-08
5.74775e-08
5.74132e-08
5.74528e-08
5.74008e-08
5.74523e-08
5.74222e-08
5.7469e-08
5.74689e-08
5.74718e-08
5.74665e-08
5.74629e-08
5.73998e-08
5.6499e-08
5.63547e-08
5.62226e-08
5.61698e-08
5.61037e-08
5.60987e-08
5.60795e-08
5.61044e-08
5.61303e-08
5.61814e-08
5.62362e-08
5.63087e-08
5.63963e-08
5.64937e-08
5.66074e-08
5.67178e-08
5.68294e-08
5.69368e-08
5.70274e-08
5.71104e-08
5.71703e-08
5.72043e-08
5.72297e-08
5.72369e-08
5.72414e-08
5.72269e-08
5.71934e-08
5.71339e-08
5.7094e-08
5.7045e-08
5.70082e-08
5.69556e-08
5.68842e-08
5.68474e-08
5.68067e-08
5.67954e-08
5.67636e-08
5.67356e-08
5.66933e-08
5.66585e-08
5.66286e-08
5.66041e-08
5.66064e-08
5.66394e-08
5.669e-08
5.67472e-08
5.68428e-08
5.69226e-08
5.70229e-08
5.70964e-08
5.71054e-08
5.71259e-08
5.7107e-08
5.7134e-08
5.71313e-08
5.71101e-08
5.70911e-08
5.70657e-08
5.70522e-08
5.70688e-08
5.70941e-08
5.71308e-08
5.71835e-08
5.72395e-08
5.7305e-08
5.73818e-08
5.74329e-08
5.7457e-08
5.75352e-08
5.7549e-08
5.75803e-08
5.75735e-08
5.75898e-08
5.75344e-08
5.75643e-08
5.74974e-08
5.75336e-08
5.74774e-08
5.753e-08
5.75014e-08
5.75518e-08
5.7553e-08
5.75536e-08
5.75401e-08
5.75303e-08
5.74427e-08
5.63818e-08
5.62224e-08
5.60779e-08
5.60151e-08
5.59447e-08
5.59434e-08
5.59187e-08
5.59596e-08
5.59952e-08
5.60622e-08
5.61329e-08
5.62237e-08
5.63317e-08
5.64481e-08
5.65873e-08
5.67298e-08
5.68751e-08
5.70075e-08
5.71182e-08
5.72221e-08
5.72971e-08
5.73405e-08
5.73729e-08
5.73821e-08
5.73823e-08
5.73672e-08
5.73315e-08
5.72514e-08
5.71906e-08
5.71198e-08
5.70572e-08
5.69786e-08
5.68966e-08
5.68396e-08
5.67768e-08
5.67553e-08
5.67099e-08
5.66773e-08
5.66341e-08
5.65906e-08
5.65509e-08
5.65549e-08
5.65359e-08
5.65594e-08
5.66413e-08
5.67536e-08
5.68868e-08
5.69998e-08
5.71246e-08
5.71716e-08
5.72151e-08
5.7256e-08
5.71732e-08
5.722e-08
5.72042e-08
5.71841e-08
5.71463e-08
5.71123e-08
5.70864e-08
5.71074e-08
5.71341e-08
5.71796e-08
5.72426e-08
5.73103e-08
5.73863e-08
5.74819e-08
5.75399e-08
5.75605e-08
5.76523e-08
5.76796e-08
5.77111e-08
5.77087e-08
5.77152e-08
5.76496e-08
5.76695e-08
5.76e-08
5.76277e-08
5.75674e-08
5.76164e-08
5.75845e-08
5.76363e-08
5.76409e-08
5.76416e-08
5.7621e-08
5.76082e-08
5.74946e-08
5.62215e-08
5.60435e-08
5.58899e-08
5.58205e-08
5.57507e-08
5.57606e-08
5.57401e-08
5.5801e-08
5.58509e-08
5.59505e-08
5.60557e-08
5.61858e-08
5.63316e-08
5.64871e-08
5.66645e-08
5.68407e-08
5.70154e-08
5.7187e-08
5.73432e-08
5.74932e-08
5.76121e-08
5.76841e-08
5.77106e-08
5.76843e-08
5.76377e-08
5.75952e-08
5.75663e-08
5.75006e-08
5.74541e-08
5.73559e-08
5.72737e-08
5.71371e-08
5.69358e-08
5.68134e-08
5.67304e-08
5.67006e-08
5.66484e-08
5.66193e-08
5.65901e-08
5.65486e-08
5.65386e-08
5.65059e-08
5.65117e-08
5.65742e-08
5.66806e-08
5.68026e-08
5.69408e-08
5.71006e-08
5.72613e-08
5.73464e-08
5.74049e-08
5.73683e-08
5.73339e-08
5.73764e-08
5.7334e-08
5.73081e-08
5.72476e-08
5.72021e-08
5.71607e-08
5.71804e-08
5.72062e-08
5.72624e-08
5.73422e-08
5.74273e-08
5.75175e-08
5.76504e-08
5.77302e-08
5.77527e-08
5.78664e-08
5.79155e-08
5.79445e-08
5.79477e-08
5.79359e-08
5.78565e-08
5.78503e-08
5.77765e-08
5.77842e-08
5.77135e-08
5.77552e-08
5.7718e-08
5.77669e-08
5.77717e-08
5.77672e-08
5.77412e-08
5.77271e-08
5.75824e-08
5.60356e-08
5.58434e-08
5.56841e-08
5.5615e-08
5.55491e-08
5.55707e-08
5.55644e-08
5.56462e-08
5.57195e-08
5.58447e-08
5.59756e-08
5.61262e-08
5.62912e-08
5.64641e-08
5.66496e-08
5.68301e-08
5.70154e-08
5.72184e-08
5.74129e-08
5.76176e-08
5.78052e-08
5.7958e-08
5.80739e-08
5.81119e-08
5.80937e-08
5.80475e-08
5.79972e-08
5.79002e-08
5.78444e-08
5.77164e-08
5.76029e-08
5.74367e-08
5.71817e-08
5.7006e-08
5.68503e-08
5.68006e-08
5.67261e-08
5.66914e-08
5.66508e-08
5.65883e-08
5.65525e-08
5.65288e-08
5.658e-08
5.66556e-08
5.67615e-08
5.69179e-08
5.71018e-08
5.72808e-08
5.74771e-08
5.7625e-08
5.76859e-08
5.77151e-08
5.7608e-08
5.76393e-08
5.75571e-08
5.75226e-08
5.74361e-08
5.73693e-08
5.73063e-08
5.73198e-08
5.7342e-08
5.73886e-08
5.747e-08
5.75603e-08
5.76561e-08
5.78132e-08
5.7918e-08
5.79502e-08
5.80805e-08
5.81755e-08
5.8229e-08
5.82676e-08
5.82756e-08
5.82047e-08
5.81833e-08
5.81055e-08
5.80876e-08
5.7997e-08
5.8019e-08
5.79707e-08
5.8015e-08
5.80127e-08
5.80083e-08
5.79773e-08
5.7966e-08
5.77874e-08
5.58995e-08
5.56948e-08
5.55346e-08
5.54668e-08
5.5404e-08
5.54335e-08
5.54371e-08
5.5531e-08
5.56145e-08
5.57481e-08
5.58852e-08
5.60385e-08
5.62084e-08
5.63753e-08
5.65375e-08
5.67002e-08
5.68802e-08
5.71017e-08
5.73203e-08
5.7564e-08
5.77972e-08
5.79939e-08
5.8168e-08
5.82822e-08
5.83326e-08
5.83221e-08
5.83139e-08
5.82563e-08
5.82299e-08
5.80828e-08
5.79217e-08
5.77125e-08
5.74184e-08
5.71751e-08
5.69733e-08
5.68973e-08
5.68024e-08
5.67293e-08
5.66713e-08
5.66189e-08
5.65561e-08
5.65548e-08
5.65707e-08
5.66342e-08
5.67401e-08
5.68849e-08
5.70534e-08
5.72313e-08
5.74553e-08
5.76271e-08
5.774e-08
5.78715e-08
5.76571e-08
5.77788e-08
5.76012e-08
5.75817e-08
5.74756e-08
5.74066e-08
5.7335e-08
5.7333e-08
5.73425e-08
5.73778e-08
5.74563e-08
5.75485e-08
5.76515e-08
5.78171e-08
5.79359e-08
5.79941e-08
5.8121e-08
5.82422e-08
5.83185e-08
5.83894e-08
5.84316e-08
5.8409e-08
5.83979e-08
5.83508e-08
5.83097e-08
5.82077e-08
5.82077e-08
5.81583e-08
5.82086e-08
5.82381e-08
5.82282e-08
5.81913e-08
5.8169e-08
5.79427e-08
5.58124e-08
5.56061e-08
5.5441e-08
5.53751e-08
5.53132e-08
5.53455e-08
5.53517e-08
5.54468e-08
5.55272e-08
5.56555e-08
5.5786e-08
5.59362e-08
5.60937e-08
5.62307e-08
5.63636e-08
5.65183e-08
5.66961e-08
5.69279e-08
5.71645e-08
5.74345e-08
5.77069e-08
5.79461e-08
5.81537e-08
5.82918e-08
5.83815e-08
5.84006e-08
5.84091e-08
5.8374e-08
5.83857e-08
5.82592e-08
5.81006e-08
5.78618e-08
5.75076e-08
5.72097e-08
5.69801e-08
5.68881e-08
5.67806e-08
5.67288e-08
5.66519e-08
5.65672e-08
5.65181e-08
5.65313e-08
5.65155e-08
5.657e-08
5.66753e-08
5.6823e-08
5.7001e-08
5.7173e-08
5.73836e-08
5.75783e-08
5.77227e-08
5.78154e-08
5.76832e-08
5.77441e-08
5.75968e-08
5.75697e-08
5.74569e-08
5.73838e-08
5.73015e-08
5.72803e-08
5.72712e-08
5.72828e-08
5.7346e-08
5.74311e-08
5.75372e-08
5.77024e-08
5.78451e-08
5.79229e-08
5.80492e-08
5.81966e-08
5.82939e-08
5.83822e-08
5.84368e-08
5.84286e-08
5.84271e-08
5.83938e-08
5.83534e-08
5.82575e-08
5.82496e-08
5.8207e-08
5.82659e-08
5.83372e-08
5.83494e-08
5.83159e-08
5.82864e-08
5.80181e-08
5.57291e-08
5.5512e-08
5.53457e-08
5.52772e-08
5.52121e-08
5.52424e-08
5.52438e-08
5.53318e-08
5.54014e-08
5.55209e-08
5.56445e-08
5.57926e-08
5.59252e-08
5.60185e-08
5.61523e-08
5.631e-08
5.64903e-08
5.67336e-08
5.69904e-08
5.72865e-08
5.7596e-08
5.78794e-08
5.81276e-08
5.82912e-08
5.84053e-08
5.8458e-08
5.84757e-08
5.84416e-08
5.84868e-08
5.83843e-08
5.8244e-08
5.80029e-08
5.76089e-08
5.7261e-08
5.69851e-08
5.68846e-08
5.67829e-08
5.67004e-08
5.66508e-08
5.65009e-08
5.64539e-08
5.64585e-08
5.64194e-08
5.64592e-08
5.65384e-08
5.66609e-08
5.68007e-08
5.69272e-08
5.71184e-08
5.73246e-08
5.75129e-08
5.76478e-08
5.75113e-08
5.76149e-08
5.74829e-08
5.74828e-08
5.73612e-08
5.7284e-08
5.71803e-08
5.71419e-08
5.71155e-08
5.7107e-08
5.71622e-08
5.72481e-08
5.73563e-08
5.75204e-08
5.76863e-08
5.77561e-08
5.78855e-08
5.80599e-08
5.81813e-08
5.8302e-08
5.83873e-08
5.84141e-08
5.84205e-08
5.83969e-08
5.83569e-08
5.82651e-08
5.82539e-08
5.82175e-08
5.82827e-08
5.83855e-08
5.8423e-08
5.84126e-08
5.84049e-08
5.8117e-08
5.56358e-08
5.54138e-08
5.52352e-08
5.51617e-08
5.50851e-08
5.5104e-08
5.50922e-08
5.51656e-08
5.52214e-08
5.53286e-08
5.54405e-08
5.55583e-08
5.56284e-08
5.56613e-08
5.57783e-08
5.59201e-08
5.61098e-08
5.63762e-08
5.66775e-08
5.70209e-08
5.73835e-08
5.77284e-08
5.80484e-08
5.82654e-08
5.8409e-08
5.84967e-08
5.8528e-08
5.84714e-08
5.85348e-08
5.84532e-08
5.83418e-08
5.81148e-08
5.77164e-08
5.73641e-08
5.70352e-08
5.69037e-08
5.67543e-08
5.66571e-08
5.65839e-08
5.64495e-08
5.6367e-08
5.63178e-08
5.62692e-08
5.62751e-08
5.63018e-08
5.63888e-08
5.6497e-08
5.66105e-08
5.6807e-08
5.70517e-08
5.72457e-08
5.73475e-08
5.7293e-08
5.74368e-08
5.72391e-08
5.72863e-08
5.71578e-08
5.70934e-08
5.69827e-08
5.69409e-08
5.69134e-08
5.69048e-08
5.6962e-08
5.70602e-08
5.71837e-08
5.73345e-08
5.74963e-08
5.76075e-08
5.77212e-08
5.791e-08
5.8043e-08
5.81842e-08
5.8289e-08
5.83519e-08
5.83736e-08
5.8363e-08
5.83188e-08
5.8231e-08
5.82125e-08
5.81848e-08
5.82567e-08
5.83853e-08
5.8438e-08
5.84408e-08
5.84506e-08
5.81596e-08
5.55262e-08
5.52915e-08
5.50995e-08
5.50078e-08
5.49093e-08
5.4909e-08
5.48773e-08
5.49292e-08
5.49639e-08
5.50476e-08
5.51263e-08
5.5175e-08
5.516e-08
5.51703e-08
5.5258e-08
5.5392e-08
5.55944e-08
5.58995e-08
5.62648e-08
5.66841e-08
5.71199e-08
5.75288e-08
5.79182e-08
5.82074e-08
5.83999e-08
5.85161e-08
5.85721e-08
5.8481e-08
5.85424e-08
5.84679e-08
5.83799e-08
5.81647e-08
5.77272e-08
5.73465e-08
5.70005e-08
5.68664e-08
5.6719e-08
5.66231e-08
5.64541e-08
5.63238e-08
5.62128e-08
5.61037e-08
5.60409e-08
5.59939e-08
5.59721e-08
5.60554e-08
5.61881e-08
5.63309e-08
5.65346e-08
5.67964e-08
5.70088e-08
5.71165e-08
5.71318e-08
5.72189e-08
5.69735e-08
5.70471e-08
5.69133e-08
5.68594e-08
5.67484e-08
5.67144e-08
5.6693e-08
5.66836e-08
5.67355e-08
5.68334e-08
5.69616e-08
5.70882e-08
5.7265e-08
5.74044e-08
5.75293e-08
5.77438e-08
5.78961e-08
5.80542e-08
5.81688e-08
5.826e-08
5.8297e-08
5.8297e-08
5.82505e-08
5.81598e-08
5.8129e-08
5.81048e-08
5.81791e-08
5.83428e-08
5.84208e-08
5.84379e-08
5.84581e-08
5.81711e-08
5.5403e-08
5.51395e-08
5.49206e-08
5.4801e-08
5.46663e-08
5.46334e-08
5.45711e-08
5.45863e-08
5.45828e-08
5.46147e-08
5.46222e-08
5.45593e-08
5.44427e-08
5.43887e-08
5.43899e-08
5.44817e-08
5.46913e-08
5.50587e-08
5.55273e-08
5.60822e-08
5.66648e-08
5.72056e-08
5.77076e-08
5.80963e-08
5.83677e-08
5.85213e-08
5.86082e-08
5.8491e-08
5.8536e-08
5.84563e-08
5.83853e-08
5.81996e-08
5.77836e-08
5.74005e-08
5.7001e-08
5.68007e-08
5.66079e-08
5.64857e-08
5.62987e-08
5.61121e-08
5.59587e-08
5.58195e-08
5.5721e-08
5.56138e-08
5.55499e-08
5.563e-08
5.57502e-08
5.58732e-08
5.60644e-08
5.63876e-08
5.66942e-08
5.68808e-08
5.69168e-08
5.69292e-08
5.66999e-08
5.68009e-08
5.66567e-08
5.66035e-08
5.64887e-08
5.64516e-08
5.64212e-08
5.63857e-08
5.6401e-08
5.6475e-08
5.65803e-08
5.66611e-08
5.68584e-08
5.7046e-08
5.71859e-08
5.74494e-08
5.76425e-08
5.78415e-08
5.79904e-08
5.81112e-08
5.81514e-08
5.81794e-08
5.81351e-08
5.80534e-08
5.80059e-08
5.79796e-08
5.806e-08
5.82529e-08
5.83525e-08
5.83883e-08
5.84157e-08
5.81256e-08
5.52331e-08
5.49422e-08
5.46754e-08
5.45144e-08
5.43309e-08
5.42503e-08
5.41399e-08
5.40939e-08
5.40238e-08
5.3967e-08
5.38468e-08
5.36276e-08
5.33931e-08
5.3217e-08
5.31208e-08
5.31634e-08
5.33689e-08
5.38129e-08
5.44093e-08
5.51451e-08
5.5943e-08
5.66935e-08
5.73668e-08
5.78904e-08
5.8287e-08
5.851e-08
5.86272e-08
5.85023e-08
5.85064e-08
5.83896e-08
5.83309e-08
5.81522e-08
5.76999e-08
5.72769e-08
5.68103e-08
5.66131e-08
5.63777e-08
5.62184e-08
5.60741e-08
5.58343e-08
5.56145e-08
5.54618e-08
5.53026e-08
5.51272e-08
5.50117e-08
5.50632e-08
5.51798e-08
5.53391e-08
5.55777e-08
5.59907e-08
5.63904e-08
5.66393e-08
5.67088e-08
5.65854e-08
5.6405e-08
5.65242e-08
5.63655e-08
5.63025e-08
5.61652e-08
5.60941e-08
5.60292e-08
5.59388e-08
5.58939e-08
5.59211e-08
5.59941e-08
5.59982e-08
5.62013e-08
5.63861e-08
5.65989e-08
5.69239e-08
5.71965e-08
5.75015e-08
5.77365e-08
5.7913e-08
5.79565e-08
5.80141e-08
5.79632e-08
5.79097e-08
5.78581e-08
5.78489e-08
5.79372e-08
5.81622e-08
5.8288e-08
5.8343e-08
5.83804e-08
5.80978e-08
5.5013e-08
5.46611e-08
5.43405e-08
5.41065e-08
5.38529e-08
5.3686e-08
5.34901e-08
5.3337e-08
5.315e-08
5.29343e-08
5.26005e-08
5.21731e-08
5.17569e-08
5.13843e-08
5.11377e-08
5.10891e-08
5.12838e-08
5.18291e-08
5.26088e-08
5.35996e-08
5.47042e-08
5.57657e-08
5.67411e-08
5.75029e-08
5.80813e-08
5.84537e-08
5.86317e-08
5.8512e-08
5.84901e-08
5.83314e-08
5.8298e-08
5.81499e-08
5.76897e-08
5.72449e-08
5.67033e-08
5.6355e-08
5.61319e-08
5.58646e-08
5.57135e-08
5.54601e-08
5.51909e-08
5.49954e-08
5.4748e-08
5.44775e-08
5.42775e-08
5.42413e-08
5.42665e-08
5.4355e-08
5.45892e-08
5.50833e-08
5.56795e-08
5.61081e-08
5.63126e-08
5.61587e-08
5.59738e-08
5.61232e-08
5.59401e-08
5.58586e-08
5.56636e-08
5.55206e-08
5.53807e-08
5.52016e-08
5.50681e-08
5.50239e-08
5.50142e-08
5.49345e-08
5.50975e-08
5.53721e-08
5.55864e-08
5.59857e-08
5.63715e-08
5.68233e-08
5.722e-08
5.75197e-08
5.76265e-08
5.77347e-08
5.76772e-08
5.76401e-08
5.76025e-08
5.76244e-08
5.7733e-08
5.79949e-08
5.81522e-08
5.82369e-08
5.82977e-08
5.80257e-08
5.47034e-08
5.4262e-08
5.38555e-08
5.35229e-08
5.31615e-08
5.28607e-08
5.25232e-08
5.21983e-08
5.18145e-08
5.13402e-08
5.07132e-08
5.00145e-08
4.93154e-08
4.86709e-08
4.82028e-08
4.80289e-08
4.81892e-08
4.88586e-08
4.99012e-08
5.12485e-08
5.27942e-08
5.43013e-08
5.5677e-08
5.67995e-08
5.76675e-08
5.82785e-08
5.86032e-08
5.85124e-08
5.84762e-08
5.82585e-08
5.81973e-08
5.80707e-08
5.75948e-08
5.70798e-08
5.64079e-08
5.59539e-08
5.56297e-08
5.53707e-08
5.51947e-08
5.4951e-08
5.46627e-08
5.43776e-08
5.40016e-08
5.35861e-08
5.32318e-08
5.30094e-08
5.28671e-08
5.29096e-08
5.31244e-08
5.37749e-08
5.45375e-08
5.51544e-08
5.55405e-08
5.53842e-08
5.53073e-08
5.54426e-08
5.52483e-08
5.51456e-08
5.48605e-08
5.45996e-08
5.43357e-08
5.40312e-08
5.37708e-08
5.36516e-08
5.35617e-08
5.33654e-08
5.36193e-08
5.39115e-08
5.40343e-08
5.44636e-08
5.49559e-08
5.55569e-08
5.61539e-08
5.67081e-08
5.69585e-08
5.72398e-08
5.72512e-08
5.7267e-08
5.72582e-08
5.73201e-08
5.74583e-08
5.77848e-08
5.79988e-08
5.81277e-08
5.8224e-08
5.80082e-08
5.42733e-08
5.37394e-08
5.31989e-08
5.2718e-08
5.21942e-08
5.16804e-08
5.11191e-08
5.05229e-08
4.983e-08
4.89785e-08
4.79666e-08
4.68823e-08
4.57472e-08
4.46763e-08
4.3847e-08
4.34558e-08
4.35473e-08
4.43842e-08
4.57983e-08
4.76414e-08
4.98067e-08
5.19575e-08
5.39381e-08
5.56161e-08
5.69243e-08
5.78935e-08
5.84915e-08
5.84971e-08
5.84833e-08
5.82458e-08
5.81275e-08
5.79712e-08
5.74182e-08
5.68048e-08
5.59329e-08
5.54771e-08
5.50195e-08
5.47771e-08
5.45711e-08
5.42847e-08
5.39583e-08
5.35424e-08
5.29928e-08
5.23651e-08
5.17507e-08
5.12228e-08
5.08858e-08
5.0819e-08
5.10824e-08
5.18247e-08
5.2854e-08
5.36816e-08
5.42317e-08
5.41149e-08
5.42026e-08
5.43479e-08
5.41661e-08
5.40706e-08
5.3668e-08
5.32574e-08
5.28549e-08
5.23856e-08
5.20196e-08
5.18482e-08
5.16881e-08
5.14832e-08
5.17645e-08
5.18339e-08
5.19926e-08
5.23654e-08
5.29672e-08
5.36543e-08
5.43965e-08
5.51883e-08
5.5603e-08
5.61301e-08
5.62975e-08
5.65436e-08
5.66167e-08
5.67564e-08
5.69446e-08
5.73483e-08
5.76282e-08
5.78265e-08
5.79469e-08
5.77859e-08
5.36915e-08
5.30253e-08
5.23054e-08
5.15944e-08
5.08317e-08
5.00143e-08
4.91207e-08
4.81262e-08
4.69848e-08
4.56232e-08
4.41004e-08
4.24489e-08
4.06922e-08
3.90235e-08
3.76865e-08
3.69929e-08
3.69709e-08
3.80047e-08
3.99044e-08
4.24067e-08
4.54102e-08
4.84473e-08
5.12777e-08
5.3727e-08
5.56887e-08
5.71774e-08
5.81628e-08
5.8361e-08
5.84558e-08
5.82409e-08
5.80794e-08
5.79243e-08
5.73596e-08
5.67189e-08
5.57755e-08
5.50096e-08
5.43814e-08
5.40016e-08
5.37345e-08
5.3401e-08
5.29816e-08
5.23803e-08
5.15905e-08
5.06694e-08
4.96985e-08
4.8813e-08
4.82086e-08
4.80533e-08
4.83239e-08
4.91945e-08
5.05128e-08
5.15855e-08
5.24072e-08
5.23487e-08
5.2602e-08
5.26998e-08
5.26294e-08
5.25041e-08
5.19686e-08
5.13891e-08
5.08206e-08
5.02192e-08
4.9772e-08
4.95608e-08
4.93372e-08
4.933e-08
4.94252e-08
4.944e-08
4.95364e-08
4.99483e-08
5.06248e-08
5.14137e-08
5.22525e-08
5.31372e-08
5.37138e-08
5.44303e-08
5.47599e-08
5.52045e-08
5.54497e-08
5.57899e-08
5.61217e-08
5.66724e-08
5.71104e-08
5.74333e-08
5.7632e-08
5.75215e-08
5.29135e-08
5.20423e-08
5.10836e-08
5.00602e-08
4.89403e-08
4.76838e-08
4.63021e-08
4.47306e-08
4.29586e-08
4.09066e-08
3.86388e-08
3.61583e-08
3.35379e-08
3.10537e-08
2.90532e-08
2.79772e-08
2.7845e-08
2.90588e-08
3.14834e-08
3.4833e-08
3.89714e-08
4.3191e-08
4.71746e-08
5.07674e-08
5.36594e-08
5.592e-08
5.75005e-08
5.80207e-08
5.82813e-08
5.8087e-08
5.78759e-08
5.76316e-08
5.70117e-08
5.62691e-08
5.5195e-08
5.41807e-08
5.34197e-08
5.29114e-08
5.25404e-08
5.21579e-08
5.1577e-08
5.074e-08
4.96413e-08
4.83494e-08
4.69308e-08
4.55751e-08
4.46438e-08
4.43123e-08
4.43947e-08
4.54302e-08
4.71343e-08
4.86713e-08
4.99382e-08
5.01036e-08
5.03981e-08
5.06121e-08
5.05702e-08
5.05191e-08
4.9857e-08
4.91323e-08
4.83997e-08
4.76421e-08
4.70835e-08
4.66574e-08
4.63923e-08
4.6343e-08
4.64004e-08
4.63863e-08
4.63407e-08
4.68827e-08
4.76112e-08
4.85739e-08
4.95892e-08
5.05972e-08
5.12902e-08
5.22329e-08
5.27402e-08
5.33405e-08
5.36355e-08
5.40896e-08
5.45147e-08
5.52703e-08
5.60708e-08
5.67115e-08
5.70901e-08
5.71395e-08
5.18899e-08
5.07293e-08
4.94332e-08
4.79673e-08
4.63522e-08
4.44768e-08
4.24147e-08
4.00756e-08
3.74952e-08
3.45616e-08
3.13799e-08
2.80225e-08
2.46735e-08
2.18303e-08
1.98567e-08
1.8946e-08
1.88659e-08
1.9865e-08
2.18504e-08
2.5071e-08
2.98726e-08
3.56145e-08
4.11915e-08
4.62904e-08
5.05106e-08
5.38652e-08
5.63257e-08
5.73862e-08
5.79463e-08
5.78953e-08
5.76787e-08
5.7367e-08
5.66191e-08
5.5775e-08
5.4481e-08
5.32832e-08
5.2334e-08
5.16272e-08
5.10173e-08
5.04543e-08
4.96335e-08
4.847e-08
4.69608e-08
4.52018e-08
4.32368e-08
4.13193e-08
3.99438e-08
3.9363e-08
3.9468e-08
4.05252e-08
4.2615e-08
4.48834e-08
4.68982e-08
4.73806e-08
4.79411e-08
4.8044e-08
4.81198e-08
4.81164e-08
4.72311e-08
4.6274e-08
4.52821e-08
4.42458e-08
4.31823e-08
4.22632e-08
4.17268e-08
4.15482e-08
4.13574e-08
4.1558e-08
4.16113e-08
4.25351e-08
4.35381e-08
4.48192e-08
4.61537e-08
4.74547e-08
4.834e-08
4.94602e-08
5.02195e-08
5.10783e-08
5.14129e-08
5.18677e-08
5.22235e-08
5.29742e-08
5.4038e-08
5.51174e-08
5.57812e-08
5.60439e-08
5.05424e-08
4.89737e-08
4.72159e-08
4.51405e-08
4.28689e-08
4.01557e-08
3.7207e-08
3.39118e-08
3.03548e-08
2.64115e-08
2.24132e-08
1.88605e-08
1.59789e-08
1.38579e-08
1.24562e-08
1.18361e-08
1.18237e-08
1.25433e-08
1.39415e-08
1.64412e-08
2.01615e-08
2.55737e-08
3.24499e-08
3.96593e-08
4.56816e-08
5.05224e-08
5.41965e-08
5.60611e-08
5.70703e-08
5.72005e-08
5.70682e-08
5.68606e-08
5.61893e-08
5.53518e-08
5.3936e-08
5.24493e-08
5.11331e-08
5.00632e-08
4.91345e-08
4.82431e-08
4.70493e-08
4.5418e-08
4.33624e-08
4.0994e-08
3.83332e-08
3.57227e-08
3.37354e-08
3.28357e-08
3.27799e-08
3.39221e-08
3.64432e-08
3.93835e-08
4.24534e-08
4.37497e-08
4.4912e-08
4.48399e-08
4.5035e-08
4.49692e-08
4.38292e-08
4.25002e-08
4.10888e-08
3.93372e-08
3.72563e-08
3.54016e-08
3.42613e-08
3.36266e-08
3.31127e-08
3.41515e-08
3.46661e-08
3.60357e-08
3.76093e-08
3.95541e-08
4.14754e-08
4.33397e-08
4.46589e-08
4.60912e-08
4.70746e-08
4.81599e-08
4.85881e-08
4.91476e-08
4.94607e-08
5.02695e-08
5.15044e-08
5.29931e-08
5.40486e-08
5.46109e-08
4.87309e-08
4.66612e-08
4.42945e-08
4.14188e-08
3.82969e-08
3.45195e-08
3.05308e-08
2.62769e-08
2.20033e-08
1.80277e-08
1.47278e-08
1.19617e-08
9.76235e-09
8.18707e-09
7.21832e-09
6.81359e-09
6.80618e-09
7.263e-09
8.18009e-09
9.91571e-09
1.25114e-08
1.67302e-08
2.23737e-08
3.00881e-08
3.84639e-08
4.54481e-08
5.09513e-08
5.41679e-08
5.59143e-08
5.64491e-08
5.64362e-08
5.61234e-08
5.52882e-08
5.43649e-08
5.28945e-08
5.11731e-08
4.94938e-08
4.80047e-08
4.66858e-08
4.53605e-08
4.36444e-08
4.13968e-08
3.86173e-08
3.54273e-08
3.18318e-08