/*--------------------------------*- C++ -*----------------------------------*\
| =========                 |                                                 |
| \\      /  F ield         | OpenFOAM: The Open Source CFD Toolbox           |
|  \\    /   O peration     | Version:  v1912                                 |
|   \\  /    A nd           | Website:  www.openfoam.com                      |
|    \\/     M anipulation  |                                                 |
\*---------------------------------------------------------------------------*/
FoamFile
{
    version     2.0;
    format      ascii;
    class       surfaceScalarField;
    location    "70";
    object      phi;
}
// * * * * * * * * * * * * * * * * * * * * * * * * * * * * * * * * * * * * * //

dimensions      [0 3 -1 0 0 0 0];
oriented        oriented;


internalField   nonuniform List<scalar> 
28285
(
0.0570729
0.00839856
0.0475498
0.00952309
0.0372132
0.0103367
0.0263671
0.0108461
0.0153251
0.011042
0.00434215
0.0109829
-0.00630685
0.010649
-0.0163677
0.0100609
-0.0256741
0.00930639
-0.0340787
0.00840462
-0.0414405
0.00736174
-0.0476482
0.00620778
-0.0525945
0.00494628
-0.0562018
0.0036073
-0.0584081
0.00220631
-0.0591571
0.000748928
-0.0584306
-0.000726475
-0.0563004
-0.00213017
-0.0528363
-0.00346414
-0.0480964
-0.00473985
-0.0421943
-0.00590213
-0.0352654
-0.00692889
-0.0274646
-0.00780084
-0.018972
-0.00849252
-0.00996746
-0.00900459
-0.000672734
-0.00929473
0.00866888
-0.00934161
0.0178091
-0.00914019
0.0264805
-0.00867141
0.0343873
-0.00790683
0.0412719
-0.00688458
0.0468909
-0.005619
0.0510455
-0.00415462
0.0535803
-0.0025348
0.0543907
-0.000810413
0.0534834
0.000907305
0.0508593
0.00262414
0.0466071
0.00425219
0.0409285
0.00567858
0.0340899
0.00683859
0.0264487
0.00764116
0.0183757
0.00807304
0.0102758
0.00809988
0.00254085
0.00773497
-0.00448528
0.00702614
-0.010541
0.00605574
-0.0154537
0.00491272
-0.019196
0.0037423
-0.0217987
0.00260269
-0.0234062
0.00160752
-0.0242925
0.000886292
-0.0246236
0.000331093
-0.0247997
0.00017606
-0.0250198
0.00022008
-0.0254817
0.000461908
-0.0264475
0.000965809
-0.0278454
0.00139786
-0.0297881
0.00194274
-0.0320974
0.00230928
-0.0346533
0.0025559
-0.0372487
0.00259538
-0.0396618
0.00241312
-0.0416638
0.00200208
-0.0430856
0.00142171
-0.0437562
0.000670633
-0.0435389
-0.000217341
-0.0424251
-0.00111377
-0.0404171
-0.00200794
-0.0375537
-0.00286342
-0.0339792
-0.00357448
-0.0297895
-0.00418977
-0.0251489
-0.00464061
-0.0201809
-0.00496793
-0.0150395
-0.00514144
-0.00976166
-0.00527784
-0.00451488
-0.00524678
0.000758116
-0.00527299
0.00592557
-0.00516745
0.01109
-0.00516447
0.0161187
-0.00502866
0.021112
-0.00499325
0.0259235
-0.00481157
0.0305343
-0.00461074
0.0349903
-0.00445607
0.0389357
-0.0039454
-0.00377171
0.0427074
0.0559123
0.0170152
0.0463116
0.0191238
0.0359673
0.0206809
0.025178
0.0216354
0.0142436
0.0219765
0.00341113
0.0218153
-0.00704287
0.021103
-0.016929
0.019947
-0.0260618
0.0184392
-0.0343051
0.0166479
-0.0415281
0.0145848
-0.0476269
0.0123065
-0.0524954
0.00981487
-0.0560572
0.00716906
-0.0582429
0.00439205
-0.0589852
0.00149121
-0.0582886
-0.0014231
-0.0562106
-0.00420813
-0.0527874
-0.00688735
-0.0480918
-0.00943546
-0.0422356
-0.0117583
-0.035347
-0.0138175
-0.0275751
-0.0155727
-0.0190975
-0.0169702
-0.010093
-0.0180091
-0.000785683
-0.018602
0.00858813
-0.0187154
0.0177671
-0.0183191
0.0264861
-0.0173905
0.0344437
-0.0158644
0.0413809
-0.0138218
0.0470479
-0.0112859
0.0512417
-0.00834843
0.0538056
-0.00509871
0.0546407
-0.00164553
0.0537314
0.00181662
0.0510932
0.00526233
0.0468142
0.00853124
0.041097
0.0113957
0.0342105
0.0137251
0.0265147
0.015337
0.018384
0.0162037
0.0102282
0.0162558
0.00244402
0.0155191
-0.00461898
0.0140891
-0.0106989
0.0121357
-0.0156206
0.00983439
-0.0193565
0.00747827
-0.0219385
0.0051846
-0.0235153
0.00318439
-0.0243645
0.00173545
-0.0246561
0.000622706
-0.0247947
0.000314668
-0.0249818
0.000407196
-0.0254231
0.000903145
-0.0263782
0.00192097
-0.0277782
0.0027978
-0.029733
0.00389759
-0.0320646
0.00464086
-0.0346477
0.00513906
-0.0372744
0.00522199
-0.0397184
0.00485717
-0.0417483
0.00403197
-0.043192
0.00286542
-0.0438776
0.00135628
-0.0436675
-0.000427497
-0.0425533
-0.00222792
-0.0405379
-0.0040234
-0.0376597
-0.00574157
-0.0340673
-0.00716687
-0.0298577
-0.00839939
-0.0251973
-0.009301
-0.0202118
-0.00995346
-0.0150563
-0.010297
-0.00976754
-0.0105666
-0.00451408
-0.0105002
0.000762913
-0.01055
0.00593138
-0.0103359
0.0110955
-0.0103286
0.0161285
-0.0100616
0.0211516
-0.0100164
0.0260598
-0.00971983
0.0308936
-0.00944447
0.0356199
-0.00918241
0.0398282
-0.00815373
-0.00717681
0.0432333
0.0562043
0.0255761
0.0465912
0.028737
0.0362319
0.0310402
0.0254197
0.0324475
0.0144491
0.0329472
0.00356989
0.0326945
-0.00695045
0.0316233
-0.0168941
0.0298907
-0.0260875
0.0276326
-0.0343935
0.0249538
-0.0416819
0.0218732
-0.0478471
0.0184717
-0.0527807
0.0147484
-0.0564003
0.0107887
-0.058626
0.00661767
-0.0594364
0.00230169
-0.058748
-0.00211149
-0.0566529
-0.00630326
-0.0532071
-0.0103332
-0.048479
-0.0141636
-0.0425828
-0.0176545
-0.0356469
-0.0207534
-0.0278212
-0.0233984
-0.0192847
-0.0255067
-0.0102156
-0.0270781
-0.000839928
-0.0279777
0.00860584
-0.0281612
0.0178588
-0.0275721
0.0266567
-0.0261883
0.0346918
-0.0238996
0.0417053
-0.0208353
0.0474411
-0.0170217
0.0516898
-0.0125971
0.0542899
-0.00769882
0.0551256
-0.00248123
0.0542153
0.00272692
0.0515508
0.00792678
0.0472194
0.0128627
0.0414266
0.0171885
0.0344452
0.0207065
0.0266411
0.0231411
0.0183967
0.0244481
0.0101302
0.0245223
0.00224795
0.0234013
-0.00488941
0.0212265
-0.0110162
0.0182625
-0.0159534
0.0147716
-0.0196761
0.0112009
-0.0222154
0.00772392
-0.02373
0.00469899
-0.0245037
0.00250915
-0.0247174
0.000836381
-0.0247854
0.000382699
-0.0249047
0.000526545
-0.0253024
0.00130081
-0.0262359
0.00285448
-0.02764
0.00420192
-0.0296192
0.00587678
-0.0319953
0.00701698
-0.0346339
0.00777759
-0.0373236
0.00791169
-0.0398298
0.00736344
-0.0419155
0.00611758
-0.0434034
0.00435331
-0.0441231
0.00207604
-0.0439247
-0.00062588
-0.0428083
-0.0033444
-0.0407769
-0.00605478
-0.0378684
-0.00865001
-0.0342394
-0.0107959
-0.0299893
-0.0126496
-0.0252889
-0.0140014
-0.0202681
-0.0149742
-0.0150842
-0.0154809
-0.00977319
-0.0158776
-0.00450519
-0.0157682
0.00078018
-0.0158354
0.00595167
-0.0155074
0.0111197
-0.0154967
0.0161537
-0.0150956
0.0211727
-0.0150354
0.0260558
-0.014603
0.0308205
-0.0142092
0.0354228
-0.0137847
0.0397908
-0.0125217
-0.011185
0.0437989
0.0557532
0.0343524
0.0460095
0.0384807
0.0355542
0.0414955
0.0246897
0.0433121
0.0137125
0.0439243
0.00287165
0.0435354
-0.00757149
0.0420665
-0.0174374
0.0397566
-0.0265523
0.0367475
-0.034788
0.0331896
-0.0420202
0.0291053
-0.0481449
0.0245964
-0.0530533
0.0196569
-0.0566639
0.0143993
-0.0589099
0.0088637
-0.0596915
0.00308332
-0.0590551
-0.00274795
-0.057004
-0.00835431
-0.0535761
-0.0137612
-0.0488583
-0.0188813
-0.0429628
-0.02355
-0.0360125
-0.0277037
-0.0281533
-0.0312576
-0.0195635
-0.0340966
-0.0104198
-0.0362218
-0.00095222
-0.0374453
0.00860399
-0.0377174
0.0179759
-0.036944
0.026903
-0.0351154
0.0350632
-0.0320598
0.0421931
-0.0279652
0.048029
-0.0228576
0.0523577
-0.0169258
0.0550139
-0.0103551
0.0558877
-0.003355
0.054958
0.00365664
0.052246
0.0106387
0.0478317
0.017277
0.0419217
0.0230985
0.0347944
0.0278338
0.0268242
0.0311112
0.0184055
0.0328668
0.00997152
0.0329562
0.00194228
0.0314306
-0.00530666
0.0284754
-0.0115039
0.0244598
-0.016464
0.0197316
-0.0201647
0.0149016
-0.0226383
0.0101976
-0.0240594
0.00612011
-0.0247174
0.00316714
-0.0248104
0.000929403
-0.0247671
0.00033938
-0.0247841
0.000543509
-0.0251179
0.00163465
-0.0260198
0.00375632
-0.0274307
0.00561283
-0.0294478
0.00789385
-0.0318921
0.00946137
-0.0346148
0.0105003
-0.0373999
0.0106968
-0.0400004
0.00996393
-0.0421705
0.00828769
-0.0437252
0.00590798
-0.0444909
0.00284176
-0.0443131
-0.000803629
-0.0431949
-0.00446269
-0.0411399
-0.00810974
-0.0381858
-0.0116042
-0.0345012
-0.0144804
-0.0301897
-0.016961
-0.0254284
-0.0187627
-0.0203539
-0.0200487
-0.0151274
-0.0207074
-0.00978266
-0.0212224
-0.00449602
-0.0210549
0.000801415
-0.0211328
0.00597787
-0.0206839
0.0111528
-0.0206715
0.0161963
-0.0201391
0.0212362
-0.0200753
0.0261521
-0.0195188
0.0309777
-0.0190348
0.0356784
-0.0184854
0.0401697
-0.017013
-0.0151953
0.04418
0.0561373
0.0432115
0.0462681
0.0483499
0.0356861
0.0520775
0.0246962
0.0543019
0.0136
0.0550206
0.00265746
0.0544779
-0.00787284
0.0525968
-0.0178079
0.0496916
-0.0269873
0.0459269
-0.0352861
0.0414883
-0.0425834
0.0364026
-0.048776
0.030789
-0.0537496
0.0246305
-0.0574167
0.0180664
-0.0596918
0.0111388
-0.0605508
0.0039423
-0.0598714
-0.00342736
-0.0577755
-0.0104502
-0.0542999
-0.0172368
-0.0495214
-0.0236598
-0.0435544
-0.0295169
-0.0365213
-0.0347368
-0.0285672
-0.0392116
-0.0198709
-0.0427929
-0.0106062
-0.0454865
-0.00100536
-0.0470462
0.00869086
-0.0474136
0.0182094
-0.0464626
0.0272952
-0.0442011
0.0356085
-0.0403731
0.0428838
-0.0352405
0.0488475
-0.0288213
0.0532773
-0.0213556
0.0560012
-0.0130789
0.0568941
-0.00424792
0.0559546
0.0045961
0.0531835
0.0134098
0.0486594
0.0218012
0.0425928
0.0291651
0.0352687
0.0351579
0.0270747
0.0393053
0.0184229
0.0415186
0.00976386
0.0416153
0.00153241
0.039662
-0.00586768
0.0358755
-0.0121599
0.0307519
-0.0171505
0.0247222
-0.0208231
0.0185743
-0.0232081
0.0125825
-0.0245024
0.00741449
-0.025002
0.00366667
-0.0249337
0.00086108
-0.0247428
0.000148556
-0.0246222
0.000422838
-0.0248666
0.00187911
-0.0257247
0.00461437
-0.0271444
0.00703257
-0.0292124
0.00996185
-0.0317489
0.0119979
-0.0345865
0.0133378
-0.037501
0.0136112
-0.0402293
0.0126923
-0.0425139
0.0105722
-0.0441584
0.00755252
-0.0449912
0.00367452
-0.0448389
-0.000955869
-0.0437154
-0.00558624
-0.0416274
-0.0101977
-0.0386105
-0.014621
-0.0348499
-0.0182411
-0.0304551
-0.0213558
-0.0256119
-0.023606
-0.020465
-0.0251955
-0.015182
-0.0259904
-0.00979063
-0.0266138
-0.00447858
-0.0263669
0.000834344
-0.0264457
0.00601493
-0.0258644
0.0111947
-0.0258513
0.0162437
-0.0251881
0.0212956
-0.0251272
0.026225
-0.0244482
0.0310688
-0.0238786
0.0357694
-0.023186
0.0403068
-0.0215504
-0.0195318
0.0446433
0.0562159
0.0523184
0.0461383
0.0584274
0.0353753
0.0628406
0.024244
0.0654331
0.0130431
0.0662215
0.00203126
0.0654898
-0.00852711
0.0631551
-0.0184744
0.0596389
-0.0276568
0.0551094
-0.0359552
0.0497867
-0.0432552
0.0437027
-0.0494587
0.0369925
-0.0544513
0.0296231
-0.0581444
0.0217594
-0.0604612
0.0134557
-0.061293
0.00477408
-0.0606768
-0.00404357
-0.0585955
-0.0125316
-0.0551087
-0.0207236
-0.0502998
-0.0284688
-0.044284
-0.0355327
-0.0371789
-0.0418419
-0.0291263
-0.0472642
-0.0203056
-0.0516136
-0.0108881
-0.054904
-0.00111443
-0.0568199
0.00877309
-0.0573011
0.0184894
-0.0561789
0.0277863
-0.0534981
0.0362974
-0.0488842
0.0437576
-0.0427007
0.0498807
-0.0349444
0.0544349
-0.0259099
0.0572439
-0.0158879
0.0581732
-0.00517723
0.0572116
0.00555766
0.0543636
0.0162578
0.0496992
0.0264656
0.0434331
0.0354313
0.035861
0.04273
0.0273847
0.0477816
0.0184352
0.050468
0.00948756
0.050563
0.000999501
0.0481501
-0.00659016
0.0434652
-0.0130032
0.0371649
-0.0180324
0.0297515
-0.021664
0.0222059
-0.0239322
0.0148507
-0.0250647
0.00854702
-0.0253625
0.00396441
-0.0250834
0.00058199
-0.0247007
-0.000234095
-0.0244071
0.000129184
-0.0245389
0.00201096
-0.0253442
0.00541962
-0.0267763
0.00846467
-0.0289109
0.0120964
-0.0315654
0.0146525
-0.0345499
0.0163223
-0.0376288
0.0166902
-0.0405202
0.0155837
-0.0429505
0.0130024
-0.0447095
0.00931155
-0.0456215
0.00458659
-0.0455029
-0.00107448
-0.0443745
-0.00671471
-0.0422448
-0.0123274
-0.039148
-0.0177178
-0.0352897
-0.0220994
-0.030789
-0.0258565
-0.0258407
-0.0285542
-0.0206021
-0.0304342
-0.015247
-0.0313455
-0.00979935
-0.0320614
-0.00445583
-0.0317105
0.000873626
-0.0317752
0.00605952
-0.0310503
0.011245
-0.0310368
0.0162986
-0.0302417
0.0213652
-0.0301938
0.0263193
-0.0294024
0.0312013
-0.0287606
0.0359802
-0.0279649
0.0406337
-0.0262038
-0.0239465
0.0450483
0.0567991
0.0616439
0.0464778
0.0687488
0.0354781
0.0738402
0.0241309
0.0767804
0.0127406
0.0776117
0.00157357
0.0766568
-0.00909773
0.0738264
-0.0191339
0.0696751
-0.0283976
0.064373
-0.0367761
0.0581652
-0.0441593
0.0510859
-0.0504486
0.0432819
-0.0555214
0.0346958
-0.0592805
0.0255186
-0.0616324
0.0158076
-0.0625262
0.00566784
-0.0618448
-0.00472494
-0.059711
-0.0146654
-0.0561591
-0.0242754
-0.0512665
-0.0333614
-0.045152
-0.0416472
-0.0379313
-0.0490626
-0.0297424
-0.0554531
-0.020765
-0.0605909
-0.0111649
-0.0645042
-0.00118726
-0.0667975
0.00891978
-0.0674082
0.018863
-0.0661222
0.0284077
-0.0630427
0.0371514
-0.0576279
0.0448327
-0.050382
0.0511468
-0.0412585
0.055849
-0.0306121
0.0587591
-0.018798
0.0597265
-0.0061446
0.0587409
0.0065432
0.0558012
0.0191976
0.0509685
0.0312983
0.0444627
0.0419371
0.0365882
0.0506045
0.027766
0.0566038
0.0184545
0.0597795
0.00915607
0.0598614
0.00034491
0.0569612
-0.00747209
0.0512822
-0.0140326
0.0437254
-0.019107
0.0348259
-0.022692
0.0257909
-0.0248195
0.0169782
-0.0257428
0.00947025
-0.0257946
0.00401619
-0.025261
4.84638e-05
-0.0246415
-0.000853646
-0.0241412
-0.000371075
-0.0241298
0.0019995
-0.0248696
0.00615948
-0.0263164
0.00991141
-0.0285331
0.0143131
-0.0313328
0.0174522
-0.0344992
0.0194887
-0.037781
0.0199719
-0.0408733
0.018676
-0.0434826
0.0156118
-0.0453812
0.0112102
-0.0463929
0.0055983
-0.0463147
-0.0011527
-0.0451768
-0.00785265
-0.0429944
-0.0145098
-0.039798
-0.0209142
-0.0358182
-0.0260793
-0.0311869
-0.0304877
-0.0261098
-0.0336314
-0.020759
-0.0357849
-0.0153173
-0.0367872
-0.00980279
-0.0375759
-0.00442116
-0.0370921
0.000927287
-0.0371236
0.00611721
-0.0362403
0.0113071
-0.0362267
0.0163665
-0.035301
0.0214508
-0.0352782
0.0264307
-0.0343823
0.0313486
-0.0336784
0.0361719
-0.0327882
0.0408744
-0.0309063
-0.0285227
0.0454506
0.0573179
0.0712686
0.046704
0.0793626
0.0354253
0.0851189
0.0238293
0.0883765
0.0122251
0.0892159
0.000878552
0.0880034
-0.00989587
0.0846009
-0.0200096
0.0797888
-0.029334
0.0736975
-0.0377634
0.0665945
-0.045196
0.0585185
-0.051539
0.0496249
-0.0566674
0.0398242
-0.0604819
0.0293331
-0.0628874
0.0182131
-0.0637778
0.00655821
-0.0631406
-0.0053621
-0.0609884
-0.0168176
-0.0573916
-0.0278722
-0.0524254
-0.0383276
-0.0462126
-0.04786
-0.0388655
-0.0564097
-0.0305167
-0.0638019
-0.0213488
-0.0697589
-0.0115229
-0.07433
-0.00129385
-0.0770266
0.00908259
-0.0777846
0.0193008
-0.0763403
0.0291445
-0.0728865
0.0381639
-0.0666473
0.0461054
-0.0583235
0.0526431
-0.0477962
0.0575184
-0.0354873
0.0605511
-0.0218308
0.0615666
-0.00716003
0.06055
0.00755974
0.0575024
0.0222452
0.0524703
0.0363304
0.045679
0.0487284
0.0374476
0.0588358
0.028215
0.0658364
0.0184679
0.0695267
0.00874879
0.0695805
-0.000413763
0.0661238
-0.00853452
0.059403
-0.0152795
0.0504704
-0.0204087
0.0399552
-0.0239251
0.0293073
-0.025873
0.0189261
-0.0265513
0.0101486
-0.0263088
0.0037736
-0.0254608
-0.000799502
-0.0245568
-0.00175759
-0.0238047
-0.00112317
-0.0236246
0.00181938
-0.0242898
0.00682464
-0.0257558
0.0113774
-0.0280738
0.0166312
-0.0310494
0.0204278
-0.034436
0.0228754
-0.0379606
0.0234965
-0.0412934
0.0220089
-0.0441171
0.0184355
-0.0461827
0.0132758
-0.0473081
0.00672372
-0.0472786
-0.00118222
-0.046129
-0.00900229
-0.0438829
-0.0167559
-0.0405664
-0.0242306
-0.0364388
-0.0302069
-0.0316512
-0.0352754
-0.026419
-0.0388636
-0.0209344
-0.0412694
-0.0153898
-0.0423318
-0.0097991
-0.0431667
-0.00437319
-0.042518
0.000992663
-0.0424895
0.00618471
-0.0414323
0.0113761
-0.0414181
0.0164385
-0.0403633
0.0215378
-0.0403775
0.0265445
-0.039389
0.0315044
-0.0386382
0.0363964
-0.0376802
0.0411981
-0.0357081
-0.0332011
0.0458766
0.0581635
0.0812274
0.0471958
0.0903303
0.0355757
0.096739
0.023673
0.100279
0.0118046
0.101084
0.000212372
0.0995956
-0.0106876
0.0955009
-0.0209212
0.0900224
-0.0303543
0.0831306
-0.0388889
0.0751291
-0.0464294
0.066059
-0.0528828
0.0560784
-0.0581134
0.0450547
-0.062012
0.0332318
-0.0644677
0.0206688
-0.065393
0.00748356
-0.0646985
-0.00605661
-0.0624847
-0.0190314
-0.058806
-0.031551
-0.0537334
-0.0434003
-0.0473936
-0.0541998
-0.0398953
-0.063908
-0.0313645
-0.0723328
-0.0219837
-0.0791396
-0.0119059
-0.0844079
-0.00139197
-0.0875405
0.00928972
-0.0884663
0.0198174
-0.086868
0.0300048
-0.083074
0.0393389
-0.0759813
0.0475836
-0.0665682
0.054382
-0.0545946
0.0594573
-0.0405625
0.0626341
-0.0250077
0.0637059
-0.00823175
0.0626558
0.00860984
0.0594836
0.0254173
0.054221
0.041593
0.0471011
0.0558483
0.0384504
0.0674864
0.0287343
0.0755525
0.0184805
0.0797806
0.00827022
0.0797907
-0.00132271
0.0757167
-0.00978729
0.0678675
-0.0167447
0.0574277
-0.0219348
0.0451454
-0.0253807
0.0327532
-0.0271111
0.0206565
-0.0275013
0.0105388
-0.0269001
0.00317241
-0.0256911
-0.00200845
-0.0244443
-0.0030044
-0.0233978
-0.00216966
-0.0230181
0.00143961
-0.0235928
0.00739931
-0.025082
0.0128667
-0.0275229
0.019072
-0.0307067
0.0236116
-0.0343547
0.0265233
-0.0381662
0.027308
-0.0417838
0.0256264
-0.0448608
0.0215125
-0.0471224
0.0155374
-0.04838
0.00798128
-0.0484061
-0.00115604
-0.0472382
-0.0101702
-0.0449149
-0.0190792
-0.0414554
-0.0276901
-0.0371513
-0.034511
-0.0321795
-0.0402472
-0.0267638
-0.0442793
-0.0211225
-0.0469108
-0.0154573
-0.0479969
-0.00978172
-0.0488423
-0.00430921
-0.0479905
0.00107125
-0.0478699
0.00626175
-0.0466228
0.0114516
-0.0466079
0.0165172
-0.045429
0.0216335
-0.0454938
0.026672
-0.0444275
0.0316799
-0.0436461
0.0366364
-0.0426367
0.0415264
-0.0405981
-0.0379722
0.0462975
0.0590739
0.0915752
0.0477039
0.1017
0.0356894
0.108753
0.0234275
0.112541
0.0112531
0.113259
-0.000534207
0.111383
-0.011668
0.106635
-0.0220329
0.100387
-0.0315685
0.0926662
-0.0401936
0.0837542
-0.0478241
0.0736895
-0.054373
0.0626273
-0.0596983
0.05038
-0.0636845
0.037218
-0.0662095
0.0231938
-0.0671539
0.00842792
-0.0664715
-0.00673895
-0.0642087
-0.0212942
-0.0604489
-0.0353108
-0.055261
-0.0485882
-0.0487781
-0.0606826
-0.041107
-0.0715791
-0.0323623
-0.0810774
-0.02273
-0.088772
-0.0123556
-0.0947822
-0.00150772
-0.0983883
0.00952676
-0.0995008
0.0204079
-0.0977491
0.0309927
-0.0936587
0.040687
-0.0856757
0.0492791
-0.0751603
0.0563714
-0.0616869
0.0616677
-0.0458588
0.0650155
-0.0283554
0.0661547
-0.00937103
0.0650679
0.00969666
0.0617592
0.0287261
0.0562336
0.0471186
0.0487362
0.0633457
0.0396105
0.0766121
0.0293362
0.0858269
0.0184826
0.0906341
0.00769054
0.0905828
-0.00240546
0.0858127
-0.0112556
0.0767177
-0.0184736
0.0646457
-0.023742
0.0504138
-0.0270671
0.0360782
-0.0285478
0.0221373
-0.0286048
0.0105957
-0.0275831
0.0021507
-0.0259385
-0.00365299
-0.0242932
-0.00464969
-0.0228962
-0.00356675
-0.0222884
0.000831809
-0.0227632
0.00787419
-0.0242824
0.0143859
-0.0268708
0.0216604
-0.0302995
0.0270403
-0.0342548
0.0304786
-0.038401
0.0314542
-0.0423503
0.0295758
-0.0457213
0.0248835
-0.0482105
0.0180265
-0.0496175
0.0093883
-0.0497053
-0.00106824
-0.0485136
-0.0113619
-0.0460984
-0.0214943
-0.0424706
-0.031318
-0.0379571
-0.0390244
-0.0327714
-0.0454329
-0.0271433
-0.0499074
-0.02132
-0.0527341
-0.0155178
-0.0537991
-0.00975026
-0.0546099
-0.00422554
-0.0535152
0.00116408
-0.0532596
0.00634871
-0.0518074
0.0115317
-0.0517909
0.0165998
-0.050497
0.0217318
-0.0506259
0.0268026
-0.0494984
0.0318617
-0.0487051
0.0368906
-0.0476657
0.0418831
-0.0455906
-0.0428222
0.0467331
0.0602131
0.102368
0.0483778
0.113536
0.0359113
0.12122
0.0232419
0.12521
0.0107249
0.125776
-0.00131734
0.123425
-0.0126815
0.117999
-0.0232062
0.110912
-0.0328761
0.102336
-0.0416304
0.0925085
-0.0493949
0.081454
-0.0560831
0.0693155
-0.061539
0.055836
-0.065634
0.041313
-0.0682296
0.0257894
-0.069194
0.00939233
-0.0684634
-0.00746954
-0.0661274
-0.0236303
-0.0622651
-0.039173
-0.0569441
-0.0539092
-0.0503016
-0.0673251
-0.0424418
-0.0794389
-0.0334662
-0.090053
-0.023562
-0.0986762
-0.0128634
-0.105481
-0.00164261
-0.109609
0.00978682
-0.11093
0.021061
-0.109023
0.0320961
-0.104694
0.042191
-0.0957707
0.0511706
-0.0841399
0.0585942
-0.0691105
0.0641399
-0.0514045
0.0676945
-0.0319101
0.0689154
-0.0105919
0.0677984
0.0108137
0.0643388
0.0321856
0.0585188
0.0529386
0.050599
0.0712654
0.0409244
0.0862867
0.0300035
0.0967478
0.0184655
0.102172
0.00700741
0.102041
-0.00368145
0.0965016
-0.0129702
0.0860065
-0.0204542
0.0721297
-0.0258263
0.0557859
-0.0290336
0.0392855
-0.0302278
0.0233315
-0.0298736
0.0102414
-0.028353
0.00063016
-0.026224
-0.00578204
-0.0241081
-0.00676555
-0.0223005
-0.00537443
-0.0214343
-3.43228e-05
-0.0217913
0.0082312
-0.023346
0.0159406
-0.0261101
0.0244244
-0.0298234
0.0307536
-0.0341358
0.0347911
-0.0386693
0.0359876
-0.0430018
0.0339083
-0.0467099
0.0285916
-0.0494594
0.020776
-0.0510387
0.0109676
-0.0511915
-0.000915388
-0.0499677
-0.0125857
-0.047447
-0.024015
-0.0436239
-0.0351411
-0.0388628
-0.0437855
-0.0334309
-0.0508648
-0.0275605
-0.0557778
-0.021531
-0.0587635
-0.0155713
-0.0597589
-0.00970067
-0.0604805
-0.00411846
-0.0590974
0.00127504
-0.0586531
0.00644618
-0.0569786
0.0116118
-0.0569566
0.0166789
-0.0555641
0.0218261
-0.055773
0.0269347
-0.054607
0.032051
-0.0538214
0.0371587
-0.0527735
0.0422599
-0.0506917
-0.0477328
0.0471704
0.0614848
0.11366
0.0491237
0.125897
0.0361381
0.134206
0.0229952
0.138353
0.0100793
0.138692
-0.00226713
0.135772
-0.0138749
0.129607
-0.0245677
0.121605
-0.034369
0.112137
-0.0432461
0.101386
-0.05114
0.0893479
-0.057969
0.0761445
-0.0635649
0.0614318
-0.0677861
0.0455341
-0.0704744
0.0284777
-0.0714716
0.0103895
-0.0707186
-0.00822248
-0.0683056
-0.0260433
-0.0643306
-0.0431481
-0.0588609
-0.0593789
-0.0520386
-0.0741474
-0.0439702
-0.0875073
-0.0347334
-0.0992899
-0.0245178
-0.108892
-0.0134495
-0.116549
-0.00180078
-0.121258
0.0100797
-0.122811
0.0217931
-0.120737
0.0333371
-0.116238
0.0438815
-0.106315
0.0533028
-0.0935612
0.0610984
-0.0769061
0.0669044
-0.0572105
0.0707036
-0.0357093
0.0720183
-0.0119066
0.0708588
0.0119732
0.0672361
0.0358084
0.0610881
0.0590867
0.0526927
0.0796607
0.042405
0.0965745
0.0307646
0.108388
0.0184378
0.114499
0.00618382
0.114295
-0.00519165
0.107877
-0.0149444
0.0957592
-0.0227325
0.0799178
-0.028262
0.0613153
-0.0313067
0.0423302
-0.0321519
0.0241768
-0.0313391
0.00942861
-0.0292372
-0.00147174
-0.0265223
-0.00849697
-0.0238673
-0.00942058
-0.021589
-0.00765264
-0.0204268
-0.00119661
-0.0206522
0.00845665
-0.0222524
0.0175408
-0.0252269
0.0273989
-0.0292701
0.0347968
-0.0339946
0.0395156
-0.0389721
0.0409651
-0.0437417
0.0386779
-0.047831
0.0326809
-0.0508793
0.0238243
-0.0526516
0.0127399
-0.0528745
-0.000692557
-0.0516108
-0.0138494
-0.0489723
-0.0266535
-0.0449278
-0.0391857
-0.0398746
-0.0488387
-0.0341568
-0.0565826
-0.0280094
-0.0619252
-0.0217463
-0.0650266
-0.0156067
-0.0658984
-0.00962872
-0.0664585
-0.00398204
-0.0647441
0.00141049
-0.0640456
0.00655893
-0.062127
0.0116926
-0.0620902
0.0167526
-0.0606242
0.0219114
-0.0609317
0.0270622
-0.0597579
0.0322388
-0.058998
0.0374332
-0.0579679
0.0426583
-0.0559167
-0.0527004
0.0476259
0.0629491
0.125516
0.0499895
0.138856
0.0364192
0.147776
0.0227485
0.152024
0.0093943
0.152046
-0.00328707
0.148453
-0.0151503
0.14147
-0.0260272
0.132482
-0.0359778
0.122088
-0.0450029
0.110411
-0.0530585
0.0974035
-0.060062
0.0831481
-0.0658265
0.0671963
-0.0701913
0.0498989
-0.072976
0.0312625
-0.0739926
0.0114061
-0.0731955
-0.00901958
-0.0706861
-0.0285527
-0.0665794
-0.0472548
-0.0609509
-0.0650074
-0.0539458
-0.0811525
-0.0456658
-0.0957873
-0.0361593
-0.108796
-0.0256184
-0.119433
-0.0141538
-0.128014
-0.00202987
-0.133382
0.0103518
-0.135192
0.0225475
-0.132932
0.0346592
-0.128349
0.0457006
-0.117357
0.0556214
-0.103482
0.0638478
-0.0851325
0.0699454
-0.0633081
0.074043
-0.0398069
0.0754465
-0.0133101
0.0742563
0.0131634
0.0704628
0.0396019
0.0639566
0.0655929
0.0550219
0.0885954
0.0440484
0.107548
0.031532
0.120905
0.0183095
0.127721
0.00534855
0.127256
-0.00676048
0.119986
-0.0172711
0.10627
-0.0254226
0.0880693
-0.0310106
0.0669034
-0.0338976
0.0452172
-0.0343787
0.0246578
-0.0329936
0.00804352
-0.0302035
-0.0042618
-0.0268568
-0.0118436
-0.0235744
-0.012703
-0.0207602
-0.0104669
-0.0192689
-0.00268794
-0.0193321
0.00851986
-0.0209839
0.0191926
-0.0242031
0.0306182
-0.0286236
0.0392173
-0.0338167
0.0447086
-0.0392996
0.046448
-0.0445658
0.0439441
-0.0490851
0.0372002
-0.0524798
0.027219
-0.05447
0.0147301
-0.0547677
-0.000394804
-0.0534433
-0.0151739
-0.0506698
-0.029427
-0.0463795
-0.043476
-0.0409887
-0.0542294
-0.0349421
-0.0626292
-0.0284807
-0.0683865
-0.0219551
-0.0715523
-0.0156191
-0.0722344
-0.00953144
-0.0725461
-0.0038175
-0.0704581
0.00156184
-0.0694249
0.00667577
-0.067241
0.0117571
-0.0671716
0.0168004
-0.0656674
0.0219655
-0.0660968
0.0271655
-0.0649578
0.0324074
-0.0642399
0.0376975
-0.0632581
0.0430634
-0.0612826
-0.0577249
0.0480878
0.0645468
0.138005
0.0509211
0.152482
0.0366958
0.162001
0.02243
0.16629
0.00858117
0.165895
-0.00446728
0.161501
-0.0165955
0.153598
-0.0276577
0.143544
-0.0377476
0.132178
-0.0469135
0.119577
-0.0551307
0.105621
-0.0623177
0.090335
-0.0682663
0.073145
-0.0727936
0.0544262
-0.0756902
0.0341591
-0.0767288
0.0124447
-0.0758817
-0.00986666
-0.0732561
-0.0311783
-0.0689922
-0.0515187
-0.0631766
-0.070823
-0.0559635
-0.0883656
-0.047469
-0.104282
-0.0376983
-0.118567
-0.0268314
-0.1303
-0.0149645
-0.139881
-0.0023365
-0.14601
0.0105987
-0.148127
0.0233225
-0.145656
0.0360623
-0.141089
0.0476486
-0.128943
0.058119
-0.113952
0.0668269
-0.0938404
0.0732045
-0.0696856
0.0776739
-0.0442763
0.0792078
-0.014844
0.0779818
0.0143894
0.0740087
0.043575
0.067111
0.0724906
0.0576295
0.0980769
0.0458528
0.119325
0.0325741
0.134183
0.0184438
0.141852
0.00432809
0.141372
-0.00862681
0.132941
-0.0197694
0.117412
-0.0283471
0.0966471
-0.0340367
0.0725929
-0.0367587
0.0479392
-0.0367919
0.0246911
-0.0347434
0.00599502
-0.0311966
-0.00780864
-0.0270863
-0.0159539
-0.0230912
-0.016698
-0.019715
-0.0138431
-0.0178506
-0.00455232
-0.0177206
0.00838986
-0.0194343
0.0209062
-0.0229455
0.0341294
-0.0278026
0.0440745
-0.0335271
0.0504331
-0.0395835
0.0525043
-0.0454164
0.049777
-0.0504199
0.0422038
-0.054214
0.031013
-0.0564399
0.0169561
-0.0568158
-1.88922e-05
-0.0554056
-0.0165841
-0.0524682
-0.0323644
-0.0479056
-0.0480386
-0.0421352
-0.0599998
-0.0357174
-0.069047
-0.0289058
-0.0751982
-0.0220858
-0.0783723
-0.0155379
-0.0787823
-0.00934613
-0.0787379
-0.00358039
-0.0762238
0.00177027
-0.0747756
0.00683079
-0.0723015
0.0118278
-0.0721685
0.0168362
-0.0706759
0.0219961
-0.0712567
0.0272495
-0.0702112
0.0325595
-0.0695499
0.0379484
-0.068647
0.0434581
-0.0667922
-0.0628391
0.0485723
0.0232806
0.14258
0.0182903
0.157472
0.013088
0.167204
0.00788513
0.171493
0.00285571
0.170924
-0.00185805
0.166215
-0.00621876
0.157959
-0.0101824
0.147507
-0.0137897
0.135785
-0.0170727
0.12286
-0.0200278
0.108576
-0.0226251
0.0929323
-0.0247845
0.0753044
-0.0264339
0.0560756
-0.0274905
0.0352157
-0.0278611
0.0128152
-0.0275423
-0.0101854
-0.0265773
-0.0321433
-0.0250193
-0.0530768
-0.0229025
-0.0729397
-0.020284
-0.0909841
-0.0172096
-0.107356
-0.0136757
-0.122101
-0.00974574
-0.13423
-0.00544455
-0.144182
-0.000845756
-0.150609
0.00387231
-0.152846
0.00850677
-0.150291
0.0131698
-0.145752
0.0174013
-0.133174
0.0212439
-0.117795
0.0244475
-0.097044
0.0267622
-0.0720003
0.0284478
-0.0459619
0.0290186
-0.0154149
0.0285825
0.0148255
0.0271428
0.0450148
0.0246217
0.0750116
0.0211188
0.10158
0.0167666
0.123677
0.0118411
0.139109
0.00658466
0.147108
0.00133189
0.146624
-0.00349417
0.137767
-0.00762363
0.121542
-0.0107777
0.0998011
-0.0128251
0.0746403
-0.0137406
0.0488547
-0.0136292
0.0245797
-0.0127257
0.00509145
-0.0112646
-0.00926966
-0.00960661
-0.017612
-0.00800683
-0.0182978
-0.0066647
-0.0151852
-0.00591029
-0.00530673
-0.00581306
0.00829263
-0.00643315
0.0215263
-0.00774363
0.0354399
-0.00957302
0.0459038
-0.0117469
0.052607
-0.0140521
0.0548096
-0.0162737
0.0519986
-0.0181756
0.0441056
-0.0196299
0.0324674
-0.0204816
0.0178078
-0.0206386
0.000138081
-0.0201084
-0.0171143
-0.0190161
-0.0334567
-0.017325
-0.0497296
-0.0151797
-0.0621452
-0.0128064
-0.0714203
-0.0103004
-0.0777041
-0.00780487
-0.0808678
-0.0054305
-0.0811567
-0.00321317
-0.0809553
-0.00116375
-0.0782732
0.000716724
-0.0766561
0.00248857
-0.0740733
0.00422656
-0.0739065
0.00598435
-0.0724337
0.00780539
-0.0730778
0.00967803
-0.0720839
0.011573
-0.0714449
0.0135032
-0.0705771
0.0154852
-0.0687742
-0.0646812
0.0173273
0.0235197
0.147247
0.0184318
0.16256
0.0131354
0.1725
0.00784408
0.176784
0.00274081
0.176027
-0.00202568
0.170982
-0.00642381
0.162357
-0.0104151
0.151499
-0.0140413
0.139412
-0.0173454
0.126164
-0.0203259
0.111556
-0.0229529
0.0955593
-0.0251426
0.0774941
-0.0268195
0.0577525
-0.0278966
0.0362928
-0.0282739
0.0131925
-0.0279528
-0.0105065
-0.0269731
-0.0331229
-0.0253923
-0.0546577
-0.0232456
-0.0750864
-0.0205882
-0.0936415
-0.0174689
-0.110476
-0.0138815
-0.125688
-0.00989072
-0.13822
-0.00551857
-0.148554
-0.000832376
-0.155295
0.00397533
-0.157653
0.00869242
-0.155008
0.0134465
-0.150506
0.0177483
-0.137476
0.0216656
-0.121712
0.024936
-0.100314
0.0272694
-0.0743337
0.0290114
-0.0477039
0.0295915
-0.015995
0.0291559
0.0152611
0.0276905
0.0464802
0.02511
0.077592
0.0215472
0.105143
0.0171265
0.128098
0.0120451
0.14419
0.00661329
0.15254
0.00121058
0.152027
-0.00375859
0.142736
-0.0079864
0.12577
-0.0112017
0.103016
-0.0132663
0.0767049
-0.0141542
0.0497427
-0.0139714
0.0243969
-0.0129535
0.0040735
-0.0113631
-0.01086
-0.00959635
-0.0193788
-0.00789132
-0.0200028
-0.00645838
-0.0166182
-0.00564955
-0.00611555
-0.00552386
0.00816693
-0.00615519
0.0221577
-0.00751829
0.036803
-0.00942319
0.0478087
-0.0116828
0.0548666
-0.0140799
0.0572066
-0.0163911
0.0543099
-0.0183657
0.0460802
-0.0198807
0.0339824
-0.0207683
0.0186953
-0.0209408
0.000310557
-0.0203913
-0.0176637
-0.0192672
-0.0345809
-0.0175341
-0.0514627
-0.0153299
-0.0643495
-0.0128959
-0.0738542
-0.0103332
-0.0802668
-0.00778758
-0.0834135
-0.00537516
-0.0835691
-0.00314059
-0.0831898
-0.00108525
-0.0803286
0.000790233
-0.0785315
0.00255037
-0.0758335
0.00427059
-0.0756268
0.00602002
-0.0741831
0.00783798
-0.0748957
0.00971909
-0.073965
0.0116234
-0.0733492
0.0135647