/*--------------------------------*- C++ -*----------------------------------*\
| =========                 |                                                 |
| \\      /  F ield         | OpenFOAM: The Open Source CFD Toolbox           |
|  \\    /   O peration     | Version:  v1912                                 |
|   \\  /    A nd           | Website:  www.openfoam.com                      |
|    \\/     M anipulation  |                                                 |
\*---------------------------------------------------------------------------*/
FoamFile
{
    version     2.0;
    format      ascii;
    class       volVectorField;
    location    "70";
    object      U;
}
// * * * * * * * * * * * * * * * * * * * * * * * * * * * * * * * * * * * * * //

dimensions      [0 1 -1 0 0 0 0];


internalField   nonuniform List<vector> 
14268
(
(0.811477 -0.00374751 0)
(0.689829 2.26543e-05 0)
(0.555786 0.00372073 0)
(0.414542 0.00744435 0)
(0.269635 0.0109108 0)
(0.126582 0.0139607 0)
(-0.0162464 0.0161999 0)
(-0.156154 0.0175772 0)
(-0.284743 0.0183233 0)
(-0.402866 0.0183898 0)
(-0.50743 0.01783 0)
(-0.597319 0.0167031 0)
(-0.670981 0.0150086 0)
(-0.72738 0.0126359 0)
(-0.76533 0.00967251 0)
(-0.784526 0.00615208 0)
(-0.783792 0.0027202 0)
(-0.763228 -0.00102036 0)
(-0.724239 -0.00484574 0)
(-0.668348 -0.00859837 0)
(-0.597108 -0.0121065 0)
(-0.511805 -0.0152441 0)
(-0.41412 -0.0179571 0)
(-0.306326 -0.0201412 0)
(-0.191222 -0.0217767 0)
(-0.0708508 -0.0227526 0)
(0.053372 -0.0230419 0)
(0.176963 -0.0226199 0)
(0.295555 -0.0214498 0)
(0.405643 -0.0194837 0)
(0.503569 -0.016818 0)
(0.586147 -0.0135809 0)
(0.650533 -0.00987166 0)
(0.694649 -0.00576762 0)
(0.716499 -0.00142539 0)
(0.715677 0.00304909 0)
(0.692211 0.00739662 0)
(0.64602 0.0114911 0)
(0.579811 0.0150393 0)
(0.496149 0.0178944 0)
(0.399605 0.0198311 0)
(0.295008 0.0208363 0)
(0.187398 0.0208178 0)
(0.0823193 0.0198367 0)
(-0.0159897 0.017979 0)
(-0.102921 0.0154946 0)
(-0.175011 0.0125901 0)
(-0.231581 0.00962745 0)
(-0.273039 0.00676392 0)
(-0.299631 0.00426709 0)
(-0.315337 0.00246427 0)
(-0.322681 0.00107417 0)
(-0.324388 0.000693426 0)
(-0.32784 0.00083315 0)
(-0.330953 0.00145034 0)
(-0.341315 0.00272897 0)
(-0.356809 0.00380522 0)
(-0.379096 0.00517748 0)
(-0.408139 0.00608093 0)
(-0.440555 0.00669875 0)
(-0.475536 0.00679784 0)
(-0.509039 0.00634192 0)
(-0.538561 0.0053106 0)
(-0.561092 0.00386072 0)
(-0.575017 0.00198362 0)
(-0.577818 -0.000201563 0)
(-0.568835 -0.00242718 0)
(-0.54811 -0.004656 0)
(-0.51554 -0.00679072 0)
(-0.472728 -0.00856675 0)
(-0.421175 -0.0101025 0)
(-0.362649 -0.0112307 0)
(-0.298895 -0.0120472 0)
(-0.232318 -0.0124735 0)
(-0.163296 -0.0128099 0)
(-0.094145 -0.0127223 0)
(-0.0246153 -0.0127865 0)
(0.0445152 -0.012529 0)
(0.112624 -0.012522 0)
(0.180103 -0.0121483 0)
(0.246148 -0.0119173 0)
(0.311377 -0.0112606 0)
(0.373585 -0.0103452 0)
(0.432726 -0.0100784 0)
(0.491345 -0.0093288 0)
(0.535863 -0.0155936 0)
(0.798986 0.0789482 0)
(0.675251 0.0858915 0)
(0.540142 0.0902143 0)
(0.398988 0.091802 0)
(0.25507 0.0907658 0)
(0.11368 0.087783 0)
(-0.0271153 0.0829897 0)
(-0.164678 0.076631 0)
(-0.290845 0.0692459 0)
(-0.40671 0.061068 0)
(-0.509269 0.0520895 0)
(-0.597519 0.0425309 0)
(-0.669954 0.0324244 0)
(-0.725549 0.0221636 0)
(-0.763113 0.0118415 0)
(-0.782075 0.00150464 0)
(-0.781445 -0.00947793 0)
(-0.761409 -0.0193336 0)
(-0.723045 -0.0284942 0)
(-0.667843 -0.0372517 0)
(-0.59729 -0.0452282 0)
(-0.512606 -0.0523214 0)
(-0.415412 -0.0583795 0)
(-0.307919 -0.0632362 0)
(-0.192917 -0.066896 0)
(-0.0724392 -0.0690223 0)
(0.052088 -0.0694517 0)
(0.176118 -0.0680792 0)
(0.295291 -0.0647758 0)
(0.406045 -0.0592995 0)
(0.50467 -0.0518975 0)
(0.587932 -0.0425522 0)
(0.652898 -0.031633 0)
(0.69747 -0.0195305 0)
(0.719685 -0.00663827 0)
(0.719007 0.00617922 0)
(0.695433 0.0190589 0)
(0.648968 0.0312899 0)
(0.582318 0.0420394 0)
(0.498078 0.0508073 0)
(0.400847 0.0569057 0)
(0.295495 0.060217 0)
(0.187127 0.0604873 0)
(0.0813381 0.057788 0)
(-0.0175486 0.0525096 0)
(-0.104887 0.0452401 0)
(-0.1772 0.0366665 0)
(-0.233782 0.0278857 0)
(-0.27505 0.0193185 0)
(-0.301285 0.0118373 0)
(-0.316541 0.0064106 0)
(-0.323343 0.00224311 0)
(-0.324573 0.00107234 0)
(-0.327508 0.0013807 0)
(-0.330277 0.00318106 0)
(-0.340434 0.0069399 0)
(-0.355878 0.0101817 0)
(-0.378256 0.0142682 0)
(-0.407544 0.0170383 0)
(-0.440294 0.0189007 0)
(-0.475671 0.0192028 0)
(-0.509599 0.017837 0)
(-0.539511 0.0147528 0)
(-0.562374 0.0103913 0)
(-0.576543 0.00474434 0)
(-0.57949 -0.00193547 0)
(-0.570542 -0.00866021 0)
(-0.549772 -0.0153785 0)
(-0.517041 -0.0218121 0)
(-0.474008 -0.0271592 0)
(-0.422203 -0.0317862 0)
(-0.36341 -0.0351733 0)
(-0.299404 -0.0376313 0)
(-0.232619 -0.0389365 0)
(-0.163437 -0.0399584 0)
(-0.0941556 -0.0397275 0)
(-0.0245839 -0.0399195 0)
(0.0445988 -0.0391158 0)
(0.112691 -0.0390907 0)
(0.180169 -0.0381026 0)
(0.246343 -0.0379703 0)
(0.312216 -0.0368132 0)
(0.376373 -0.0357224 0)
(0.439397 -0.034587 0)
(0.501748 -0.0301708 0)
(0.548159 -0.0225749 0)
(0.801658 0.0869133 0)
(0.678405 0.100674 0)
(0.543511 0.111605 0)
(0.402242 0.119434 0)
(0.258033 0.123903 0)
(0.116092 0.125376 0)
(-0.0254493 0.123381 0)
(-0.163795 0.118472 0)
(-0.290722 0.111183 0)
(-0.407372 0.101896 0)
(-0.510761 0.0907233 0)
(-0.599868 0.0779964 0)
(-0.673173 0.0636861 0)
(-0.729566 0.0480144 0)
(-0.767713 0.0311468 0)
(-0.787469 0.013077 0)
(-0.787259 -0.00533369 0)
(-0.76689 -0.0231608 0)
(-0.728383 -0.0402686 0)
(-0.673001 -0.0566486 0)
(-0.602053 -0.0716492 0)
(-0.51684 -0.0849729 0)
(-0.418994 -0.0963566 0)
(-0.310778 -0.105429 0)
(-0.194965 -0.112171 0)
(-0.0736069 -0.11604 0)
(0.0518507 -0.116863 0)
(0.176833 -0.114429 0)
(0.297016 -0.108638 0)
(0.408815 -0.0990911 0)
(0.508465 -0.0863105 0)
(0.592704 -0.0704098 0)
(0.658504 -0.0519853 0)
(0.703683 -0.031594 0)
(0.72613 -0.00991303 0)
(0.72546 0.0117142 0)
(0.701711 0.0332085 0)
(0.654722 0.0536282 0)
(0.587215 0.0715308 0)
(0.501833 0.0861065 0)
(0.403239 0.0962159 0)
(0.296404 0.101681 0)
(0.186533 0.102037 0)
(0.0793477 0.0974496 0)
(-0.0207048 0.0884731 0)
(-0.108857 0.076229 0)
(-0.181573 0.0617861 0)
(-0.238164 0.0469788 0)
(-0.279046 0.0325767 0)
(-0.304549 0.0200261 0)
(-0.318897 0.0109255 0)
(-0.3246 0.00397586 0)
(-0.324925 0.00205174 0)
(-0.326854 0.00264772 0)
(-0.328894 0.00577797 0)
(-0.338619 0.0121673 0)
(-0.35397 0.0176867 0)
(-0.37653 0.0246057 0)
(-0.406307 0.0292975 0)
(-0.43973 0.0324462 0)
(-0.475911 0.0330023 0)
(-0.510696 0.0307355 0)
(-0.54139 0.0255759 0)
(-0.56492 0.0182661 0)
(-0.579604 0.00881026 0)
(-0.58285 -0.00235335 0)
(-0.57394 -0.0136045 0)
(-0.553072 -0.0248523 0)
(-0.520004 -0.0356263 0)
(-0.476521 -0.044559 0)
(-0.424198 -0.052277 0)
(-0.364862 -0.0579185 0)
(-0.300351 -0.0619883 0)
(-0.233149 -0.0641167 0)
(-0.163642 -0.0657796 0)
(-0.0940942 -0.0653428 0)
(-0.0244229 -0.0656307 0)
(0.0448679 -0.0642803 0)
(0.112954 -0.0642224 0)
(0.180522 -0.0625411 0)
(0.246658 -0.0622287 0)
(0.312443 -0.0604034 0)
(0.376065 -0.058688 0)
(0.437795 -0.057096 0)
(0.498131 -0.051299 0)
(0.550837 -0.0486814 0)
(0.797826 0.15543 0)
(0.67231 0.172505 0)
(0.535603 0.184441 0)
(0.393186 0.190997 0)
(0.248589 0.192269 0)
(0.106859 0.189326 0)
(-0.0340903 0.181874 0)
(-0.171465 0.170879 0)
(-0.297276 0.157027 0)
(-0.412891 0.140948 0)
(-0.515445 0.122699 0)
(-0.603914 0.102738 0)
(-0.676776 0.0811022 0)
(-0.732953 0.0583894 0)
(-0.771262 0.0348125 0)
(-0.790825 0.0102741 0)
(-0.790675 -0.014848 0)
(-0.771013 -0.0383589 0)
(-0.732939 -0.0610587 0)
(-0.677851 -0.0826655 0)
(-0.60703 -0.102433 0)
(-0.521772 -0.1201 0)
(-0.423621 -0.13529 0)
(-0.314855 -0.147517 0)
(-0.198197 -0.156764 0)
(-0.0757328 -0.162199 0)
(0.0510773 -0.16355 0)
(0.17757 -0.160409 0)
(0.29941 -0.152662 0)
(0.412928 -0.139594 0)
(0.514194 -0.121916 0)
(0.599879 -0.0997383 0)
(0.66687 -0.0739207 0)
(0.712957 -0.045306 0)
(0.736035 -0.0148095 0)
(0.735484 0.0157833 0)
(0.711289 0.0462633 0)
(0.663436 0.0751934 0)
(0.594591 0.100552 0)
(0.507449 0.121178 0)
(0.406768 0.135449 0)
(0.29765 0.143093 0)
(0.185494 0.143511 0)
(0.0762036 0.136905 0)
(-0.0255926 0.124118 0)
(-0.114968 0.106691 0)
(-0.188285 0.0861801 0)
(-0.244878 0.0652311 0)
(-0.285144 0.0447995 0)
(-0.309542 0.0270381 0)
(-0.322515 0.0142006 0)
(-0.326539 0.00442283 0)
(-0.325417 0.00178757 0)
(-0.325807 0.00263735 0)
(-0.326759 0.00720446 0)
(-0.335862 0.0163165 0)
(-0.351071 0.0242603 0)
(-0.373922 0.0341169 0)
(-0.404452 0.0408748 0)
(-0.438902 0.0453865 0)
(-0.476301 0.0462052 0)
(-0.512379 0.0430096 0)
(-0.544259 0.0357124 0)
(-0.568797 0.0253661 0)
(-0.584221 0.0120162 0)
(-0.587906 -0.0037999 0)
(-0.579087 -0.0196951 0)
(-0.558079 -0.0355739 0)
(-0.524508 -0.0507949 0)
(-0.480342 -0.0633614 0)
(-0.427235 -0.074209 0)
(-0.367077 -0.0821068 0)
(-0.301793 -0.0877661 0)
(-0.233957 -0.090695 0)
(-0.163972 -0.0929766 0)
(-0.0940276 -0.0922967 0)
(-0.0242369 -0.092658 0)
(0.0452082 -0.0907129 0)
(0.113299 -0.0906476 0)
(0.181014 -0.0883091 0)
(0.247298 -0.088012 0)
(0.313459 -0.085534 0)
(0.377607 -0.0833583 0)
(0.440442 -0.0808546 0)
(0.502282 -0.0740114 0)
(0.556466 -0.0635456 0)
(0.802892 0.179839 0)
(0.676154 0.203292 0)
(0.538065 0.220981 0)
(0.394042 0.232378 0)
(0.247923 0.237264 0)
(0.104752 0.236575 0)
(-0.0375085 0.229917 0)
(-0.175915 0.218507 0)
(-0.302568 0.203117 0)
(-0.418966 0.184555 0)
(-0.522344 0.162948 0)
(-0.611678 0.138801 0)
(-0.685428 0.112 0)
(-0.742401 0.0830885 0)
(-0.78123 0.0523436 0)
(-0.801612 0.0199826 0)
(-0.801556 -0.0134504 0)
(-0.781088 -0.0452374 0)
(-0.742582 -0.0759208 0)
(-0.686897 -0.105037 0)
(-0.615254 -0.131602 0)
(-0.529018 -0.15524 0)
(-0.429698 -0.175462 0)
(-0.319635 -0.191604 0)
(-0.201481 -0.203681 0)
(-0.0773566 -0.210651 0)
(0.0512801 -0.212257 0)
(0.179671 -0.207974 0)
(0.303533 -0.197806 0)
(0.419161 -0.18072 0)
(0.522413 -0.157771 0)
(0.609928 -0.129011 0)
(0.678445 -0.09554 0)
(0.725651 -0.0584353 0)
(0.749297 -0.0188718 0)
(0.748824 0.0205892 0)
(0.72418 0.0600366 0)
(0.675201 0.0975921 0)
(0.604578 0.130541 0)
(0.515075 0.157355 0)
(0.411563 0.175931 0)
(0.299388 0.185903 0)
(0.184182 0.186426 0)
(0.0720405 0.177802 0)
(-0.0321598 0.161014 0)
(-0.12319 0.138254 0)
(-0.197308 0.111429 0)
(-0.253913 0.0839884 0)
(-0.293374 0.0572866 0)
(-0.316255 0.0342021 0)
(-0.327358 0.017491 0)
(-0.329124 0.00483796 0)
(-0.326013 0.00157979 0)
(-0.324449 0.00273246 0)
(-0.323861 0.00900951 0)
(-0.332096 0.0210584 0)
(-0.347109 0.0316676 0)
(-0.370352 0.0446511 0)
(-0.401888 0.0536394 0)
(-0.437745 0.0595902 0)
(-0.476795 0.0607854 0)
(-0.514631 0.0566775 0)
(-0.548121 0.0472123 0)
(-0.57402 0.0337416 0)
(-0.590477 0.0163954 0)
(-0.594767 -0.00421878 0)
(-0.58603 -0.0248741 0)
(-0.564813 -0.0454995 0)
(-0.530549 -0.0652827 0)
(-0.485443 -0.0815386 0)
(-0.431271 -0.0955345 0)
(-0.369994 -0.105679 0)
(-0.303681 -0.112883 0)
(-0.234994 -0.116534 0)
(-0.164368 -0.119379 0)
(-0.0938859 -0.118358 0)
(-0.0239231 -0.118745 0)
(0.0457193 -0.116167 0)
(0.113756 -0.116095 0)
(0.181616 -0.113108 0)
(0.247953 -0.112775 0)
(0.314348 -0.109673 0)
(0.378657 -0.107016 0)
(0.441839 -0.103873 0)
(0.503214 -0.0959641 0)
(0.560771 -0.087971 0)
(0.805781 0.237393 0)
(0.676078 0.264404 0)
(0.535299 0.283732 0)
(0.389081 0.294897 0)
(0.241428 0.298007 0)
(0.0971258 0.294395 0)
(-0.0459266 0.283668 0)
(-0.184651 0.267568 0)
(-0.311362 0.246909 0)
(-0.427716 0.222675 0)
(-0.531086 0.195002 0)
(-0.620498 0.164541 0)
(-0.694442 0.131234 0)
(-0.751743 0.0958688 0)
(-0.79108 0.0586697 0)
(-0.81142 0.0197647 0)
(-0.81152 -0.0198592 0)
(-0.791636 -0.0576561 0)
(-0.753214 -0.0943511 0)
(-0.69732 -0.129178 0)
(-0.62519 -0.161072 0)
(-0.538199 -0.189648 0)
(-0.437753 -0.214297 0)
(-0.326247 -0.234168 0)
(-0.206269 -0.249263 0)
(-0.0799776 -0.258161 0)
(0.0510826 -0.260539 0)
(0.182051 -0.25563 0)
(0.308631 -0.243534 0)
(0.42703 -0.222713 0)
(0.53282 -0.194626 0)
(0.622635 -0.159283 0)
(0.693037 -0.118091 0)
(0.741627 -0.0723768 0)
(0.76608 -0.0235628 0)
(0.76571 0.0252931 0)
(0.740422 0.074051 0)
(0.690001 0.120515 0)
(0.617105 0.161314 0)
(0.524602 0.194534 0)
(0.417548 0.217531 0)
(0.301491 0.229776 0)
(0.182366 0.230274 0)
(0.0665642 0.219396 0)
(-0.0406509 0.198279 0)
(-0.133755 0.169762 0)
(-0.208922 0.136208 0)
(-0.265499 0.102084 0)
(-0.303838 0.068756 0)
(-0.324765 0.040055 0)
(-0.333535 0.0192757 0)
(-0.332361 0.00381219 0)
(-0.326625 -8.37581e-05 0)
(-0.322596 0.00151701 0)
(-0.320049 0.00970788 0)
(-0.327228 0.0249482 0)
(-0.342003 0.0385043 0)
(-0.365775 0.0548651 0)
(-0.398601 0.0663326 0)
(-0.43626 0.0738718 0)
(-0.477415 0.0754718 0)
(-0.517487 0.0704238 0)
(-0.55303 0.0586916 0)
(-0.58066 0.0419416 0)
(-0.598392 0.0204504 0)
(-0.603425 -0.00517949 0)
(-0.59481 -0.0307713 0)
(-0.573345 -0.0563112 0)
(-0.5382 -0.0808394 0)
(-0.491888 -0.100861 0)
(-0.436353 -0.118055 0)
(-0.373651 -0.130443 0)
(-0.30602 -0.139133 0)
(-0.236244 -0.143412 0)
(-0.164829 -0.146756 0)
(-0.0936816 -0.145266 0)
(-0.023548 -0.145618 0)
(0.0463323 -0.142358 0)
(0.114307 -0.142272 0)
(0.182332 -0.138617 0)
(0.24869 -0.138337 0)
(0.31542 -0.134666 0)
(0.380094 -0.131655 0)
(0.443947 -0.127965 0)
(0.506682 -0.119607 0)
(0.565765 -0.107692 0)
(0.814458 0.274502 0)
(0.681829 0.307477 0)
(0.538069 0.331548 0)
(0.388904 0.346007 0)
(0.238713 0.350903 0)
(0.0921776 0.347679 0)
(-0.0527222 0.335936 0)
(-0.192801 0.317946 0)
(-0.320601 0.294552 0)
(-0.437943 0.26688 0)
(-0.542367 0.235063 0)
(-0.632887 0.19975 0)
(-0.707948 0.160658 0)
(-0.766228 0.118638 0)
(-0.806231 0.0740255 0)
(-0.827258 0.0272399 0)
(-0.827206 -0.0212305 0)
(-0.806443 -0.0672467 0)
(-0.767392 -0.111792 0)
(-0.710575 -0.153911 0)
(-0.637265 -0.192297 0)
(-0.548901 -0.226592 0)
(-0.446784 -0.256064 0)
(-0.333386 -0.279702 0)
(-0.211185 -0.297629 0)
(-0.0823512 -0.308114 0)
(0.0515486 -0.31086 0)
(0.185467 -0.304927 0)
(0.315192 -0.290675 0)
(0.436864 -0.26582 0)
(0.545655 -0.232427 0)
(0.638237 -0.190351 0)
(0.710887 -0.141213 0)
(0.761128 -0.0866751 0)
(0.786491 -0.0283011 0)
(0.786233 0.0301336 0)
(0.760195 0.088478 0)
(0.708045 0.144217 0)
(0.632423 0.193201 0)
(0.536309 0.233101 0)
(0.424886 0.260734 0)
(0.3041 0.275443 0)
(0.180224 0.275964 0)
(0.0599361 0.262775 0)
(-0.05102 0.236952 0)
(-0.146672 0.202442 0)
(-0.223071 0.161775 0)
(-0.279633 0.120279 0)
(-0.31666 0.0798875 0)
(-0.335144 0.0455627 0)
(-0.340929 0.0203625 0)
(-0.336239 0.00197206 0)
(-0.327296 -0.00232364 0)
(-0.320247 -0.000269372 0)
(-0.315309 0.0102293 0)
(-0.321154 0.0289849 0)
(-0.335622 0.0458596 0)
(-0.360055 0.0658804 0)
(-0.394457 0.0800965 0)
(-0.434352 0.0893802 0)
(-0.478103 0.0915261 0)
(-0.520934 0.0855451 0)
(-0.559009 0.0714664 0)
(-0.588758 0.0512783 0)
(-0.608066 0.0254517 0)
(-0.61402 -0.00547561 0)
(-0.605515 -0.0362329 0)
(-0.583719 -0.0668899 0)
(-0.547475 -0.0963659 0)
(-0.499654 -0.120258 0)
(-0.44244 -0.140688 0)
(-0.37798 -0.155312 0)
(-0.308742 -0.165419 0)
(-0.237641 -0.170236 0)
(-0.165285 -0.173992 0)
(-0.0933223 -0.171924 0)
(-0.0229989 -0.172157 0)
(0.047149 -0.168128 0)
(0.114994 -0.168053 0)
(0.18321 -0.163757 0)
(0.249606 -0.163562 0)
(0.316728 -0.159332 0)
(0.381754 -0.155945 0)
(0.446217 -0.151658 0)
(0.509416 -0.142406 0)
(0.569937 -0.131397 0)
(0.823151 0.326867 0)
(0.686695 0.363858 0)
(0.539187 0.390252 0)
(0.386522 0.405337 0)
(0.233417 0.409395 0)
(0.0843415 0.404088 0)
(-0.0625492 0.388826 0)
(-0.203893 0.366845 0)
(-0.332586 0.33886 0)
(-0.450582 0.306134 0)
(-0.555632 0.268859 0)
(-0.64682 0.227792 0)
(-0.722615 0.182612 0)
(-0.781662 0.134305 0)
(-0.822415 0.0831492 0)
(-0.843695 0.029568 0)
(-0.843855 -0.0253097 0)
(-0.823301 -0.0780393 0)
(-0.783906 -0.129162 0)
(-0.726341 -0.177639 0)
(-0.651905 -0.22198 0)
(-0.562107 -0.261787 0)
(-0.458089 -0.296242 0)
(-0.342406 -0.324067 0)
(-0.217481 -0.345395 0)
(-0.0854787 -0.358042 0)
(0.0518957 -0.361673 0)
(0.189424 -0.355097 0)
(0.322938 -0.339 0)
(0.448543 -0.310171 0)
(0.56087 -0.271473 0)
(0.656689 -0.222446 0)
(0.731963 -0.165135 0)
(0.784167 -0.10149 0)
(0.810664 -0.0332272 0)
(0.810525 0.0351446 0)
(0.783587 0.103459 0)
(0.729404 0.168874 0)
(0.650539 0.226433 0)
(0.550117 0.273359 0)
(0.433582 0.305863 0)
(0.307122 0.323044 0)
(0.177526 0.323421 0)
(0.0517961 0.307598 0)
(-0.0635532 0.276693 0)
(-0.162267 0.235535 0)
(-0.240267 0.187073 0)
(-0.296701 0.138052 0)
(-0.331866 0.0901891 0)
(-0.34753 0.0493889 0)
(-0.349765 0.0198629 0)
(-0.340765 -0.00146824 0)
(-0.327935 -0.00624869 0)
(-0.317217 -0.0034591 0)
(-0.309417 0.0096647 0)
(-0.31371 0.0323835 0)
(-0.327828 0.0529983 0)
(-0.353103 0.0770748 0)
(-0.389407 0.0944021 0)
(-0.432024 0.105617 0)
(-0.478895 0.108391 0)
(-0.525022 0.10146 0)
(-0.566136 0.0848989 0)
(-0.598414 0.0610373 0)
(-0.619573 0.0306687 0)
(-0.626602 -0.00586325 0)
(-0.618221 -0.0420265 0)
(-0.596025 -0.0780275 0)
(-0.558464 -0.112713 0)
(-0.5088 -0.140592 0)
(-0.449571 -0.164305 0)
(-0.382995 -0.181161 0)
(-0.311833 -0.19258 0)
(-0.239139 -0.197762 0)
(-0.165707 -0.201816 0)
(-0.0927867 -0.19899 0)
(-0.0222983 -0.198994 0)
(0.0481264 -0.194145 0)
(0.115769 -0.19406 0)
(0.184176 -0.189092 0)
(0.25054 -0.189057 0)
(0.318049 -0.184343 0)
(0.383471 -0.180706 0)
(0.448633 -0.17612 0)
(0.51296 -0.166552 0)
(0.574973 -0.154045 0)
(0.836025 0.372582 0)
(0.695152 0.415117 0)
(0.543202 0.445374 0)
(0.386299 0.46252 0)
(0.229616 0.467056 0)
(0.0773248 0.46097 0)
(-0.0720885 0.443108 0)
(-0.21517 0.418376 0)
(-0.345355 0.386946 0)
(-0.464675 0.35021 0)
(-0.571099 0.308328 0)
(-0.663721 0.262034 0)
(-0.740954 0.210747 0)
(-0.801273 0.15558 0)
(-0.842937 0.0968542 0)
(-0.864778 0.0351559 0)
(-0.864695 -0.0286461 0)
(-0.843327 -0.089513 0)
(-0.803084 -0.148317 0)
(-0.744282 -0.203938 0)
(-0.668325 -0.254604 0)
(-0.576734 -0.300087 0)
(-0.470492 -0.339445 0)
(-0.35226 -0.371181 0)
(-0.224295 -0.395651 0)
(-0.0887455 -0.410167 0)
(0.0526004 -0.414423 0)
(0.194192 -0.406951 0)
(0.331991 -0.389012 0)
(0.462142 -0.355972 0)
(0.578511 -0.311834 0)
(0.678132 -0.255728 0)
(0.756454 -0.189976 0)
(0.810938 -0.117029 0)
(0.838753 -0.0384708 0)
(0.83879 0.0402733 0)
(0.810833 0.118957 0)
(0.754277 0.194567 0)
(0.671686 0.261155 0)
(0.566297 0.315493 0)
(0.443664 0.353161 0)
(0.31059 0.373001 0)
(0.174364 0.373254 0)
(0.0422292 0.354534 0)
(-0.0783532 0.318212 0)
(-0.180655 0.269968 0)
(-0.260426 0.213114 0)
(-0.316703 0.155273 0)
(-0.349861 0.0994834 0)
(-0.362119 0.0522088 0)
(-0.359989 0.0178965 0)
(-0.345977 -0.00665752 0)
(-0.328624 -0.0114651 0)
(-0.313428 -0.00788443 0)
(-0.30235 0.0083342 0)
(-0.304766 0.0355236 0)
(-0.318441 0.0604097 0)
(-0.344768 0.0889696 0)
(-0.383329 0.109794 0)
(-0.429179 0.12322 0)
(-0.479739 0.126753 0)
(-0.529767 0.118865 0)
(-0.57448 0.0996956 0)
(-0.609736 0.0719164 0)
(-0.63307 0.0366926 0)
(-0.641332 -0.00581027 0)
(-0.633049 -0.04774 0)
(-0.61034 -0.0893818 0)
(-0.571218 -0.129583 0)
(-0.519332 -0.161606 0)
(-0.457727 -0.188645 0)
(-0.38865 -0.207723 0)
(-0.315221 -0.220348 0)
(-0.240642 -0.225759 0)
(-0.166013 -0.229958 0)
(-0.0920121 -0.226221 0)
(-0.0214094 -0.225841 0)
(0.0492694 -0.220073 0)
(0.116616 -0.219976 0)
(0.185229 -0.214387 0)
(0.251558 -0.214574 0)
(0.319518 -0.209438 0)
(0.385411 -0.205607 0)
(0.451334 -0.200658 0)
(0.516651 -0.190562 0)
(0.579946 -0.177814 0)
(0.850233 0.42489 0)
(0.704249 0.472 0)
(0.547127 0.505041 0)
(0.385261 0.523121 0)
(0.22438 0.527001 0)
(0.0681412 0.518913 0)
(-0.0842066 0.497342 0)
(-0.229047 0.468688 0)
(-0.360747 0.432877 0)
(-0.481244 0.391367 0)
(-0.58881 0.344369 0)
(-0.682645 0.292638 0)
(-0.761169 0.235401 0)
(-0.82274 0.173886 0)
(-0.865469 0.108357 0)
(-0.88787 0.0394244 0)
(-0.887966 -0.0316807 0)
(-0.866356 -0.0999746 0)
(-0.825318 -0.165976 0)
(-0.765216 -0.228569 0)
(-0.687544 -0.285693 0)
(-0.593922 -0.337103 0)
(-0.485111 -0.381842 0)
(-0.363839 -0.418101 0)
(-0.232308 -0.446294 0)
(-0.0925616 -0.463221 0)
(0.0533953 -0.468469 0)
(0.199657 -0.460335 0)
(0.342335 -0.440851 0)
(0.47777 -0.403508 0)
(0.598754 -0.353966 0)
(0.702709 -0.290499 0)
(0.784407 -0.215922 0)
(0.841493 -0.133278 0)
(0.870896 -0.0439513 0)
(0.871148 0.0456135 0)
(0.842083 0.135164 0)
(0.78289 0.221506 0)
(0.69599 0.297679 0)
(0.584916 0.359916 0)
(0.455423 0.403109 0)
(0.314538 0.425735 0)
(0.170443 0.425701 0)
(0.0307736 0.40369 0)
(-0.0956954 0.361558 0)
(-0.202236 0.30524 0)
(-0.284413 0.238856 0)
(-0.339978 0.17302 0)
(-0.370831 0.10761 0)
(-0.37892 0.0533344 0)
(-0.371983 0.0138993 0)
(-0.351815 -0.0134085 0)
(-0.329154 -0.0187048 0)
(-0.308727 -0.0138959 0)
(-0.293753 0.00594147 0)
(-0.294101 0.0381573 0)
(-0.30727 0.0678976 0)
(-0.334905 0.101502 0)
(-0.376111 0.126293 0)
(-0.425783 0.142168 0)
(-0.480658 0.1466 0)
(-0.535226 0.13773 0)
(-0.584138 0.115763 0)
(-0.622834 0.0837466 0)
(-0.648686 0.0433091 0)
(-0.658328 -0.00554201 0)
(-0.650115 -0.0536355 0)
(-0.62677 -0.101216 0)
(-0.585838 -0.147283 0)
(-0.531291 -0.183632 0)
(-0.466917 -0.214039 0)
(-0.394929 -0.235338 0)
(-0.318897 -0.249019 0)
(-0.242111 -0.254435 0)
(-0.166172 -0.258577 0)
(-0.0909659 -0.253717 0)
(-0.0203141 -0.252768 0)
(0.0505891 -0.246014 0)
(0.117528 -0.245912 0)
(0.186346 -0.239715 0)
(0.252603 -0.240183 0)
(0.321027 -0.234688 0)
(0.387396 -0.230738 0)
(0.454147 -0.225625 0)
(0.520645 -0.215349 0)
(0.585257 -0.201952 0)
(0.867661 0.476801 0)
(0.715791 0.529208 0)
(0.552729 0.565554 0)
(0.385233 0.584874 0)
(0.219614 0.588299 0)
(0.058964 0.578261 0)
(-0.0966602 0.553631 0)
(-0.243566 0.521225 0)
(-0.377146 0.481448 0)
(-0.49928 0.435576 0)
(-0.60854 0.383722 0)
(-0.704178 0.326604 0)
(-0.784542 0.263104 0)
(-0.847758 0.194594 0)
(-0.891712 0.121305 0)
(-0.914728 0.0439288 0)
(-0.914585 -0.0361648 0)
(-0.892155 -0.112639 0)
(-0.850007 -0.186305 0)
(-0.78832 -0.256096 0)
(-0.708717 -0.319608 0)
(-0.612848 -0.376875 0)
(-0.501235 -0.426891 0)
(-0.376701 -0.467434 0)
(-0.241301 -0.499299 0)
(-0.0969117 -0.518552 0)
(0.0542228 -0.524674 0)
(0.205701 -0.515694 0)
(0.35379 -0.494793 0)
(0.495266 -0.452884 0)
(0.621327 -0.397763 0)
(0.730119 -0.326693 0)
(0.815645 -0.243018 0)
(0.875783 -0.150612 0)
(0.907092 -0.0499229 0)
(0.90771 0.0511028 0)
(0.87752 0.152038 0)
(0.815316 0.249852 0)
(0.723652 0.336168 0)
(0.606156 0.40686 0)
(0.46859 0.456042 0)
(0.318786 0.481664 0)
(0.165707 0.48132 0)
(0.0174593 0.455759 0)
(-0.116232 0.406794 0)
(-0.227123 0.341714 0)
(-0.311445 0.266197 0)
(-0.36751 0.188641 0)
(-0.395114 0.113946 0)
(-0.398612 0.0527854 0)
(-0.385465 0.00761027 0)
(-0.358457 -0.0233446 0)
(-0.329816 -0.028011 0)
(-0.303026 -0.0219887 0)
(-0.283644 0.00222564 0)
(-0.281627 0.0401527 0)
(-0.294154 0.0754872 0)
(-0.323388 0.114783 0)
(-0.367685 0.144061 0)
(-0.421796 0.162769 0)
(-0.481675 0.168217 0)
(-0.541493 0.15837 0)
(-0.595246 0.133415 0)
(-0.637871 0.0968198 0)
(-0.666622 0.0507484 0)
(-0.677822 -0.0049406 0)
(-0.669592 -0.0596244 0)
(-0.645482 -0.113522 0)
(-0.602522 -0.165868 0)
(-0.54479 -0.206769 0)
(-0.477193 -0.240553 0)
(-0.401878 -0.26406 0)
(-0.322903 -0.278635 0)
(-0.243576 -0.283821 0)
(-0.166183 -0.287664 0)
(-0.0896082 -0.281467 0)
(-0.0189366 -0.279724 0)
(0.0521145 -0.2719 0)
(0.118479 -0.271782 0)
(0.187439 -0.265037 0)
(0.253571 -0.265864 0)
(0.322521 -0.260138 0)
(0.389437 -0.256184 0)
(0.457101 -0.250969 0)
(0.524884 -0.240536 0)
(0.590742 -0.226324 0)
(0.88724 0.532597 0)
(0.728699 0.59003 0)
(0.558833 0.629282 0)
(0.38481 0.649325 0)
(0.213648 0.651639 0)
(0.0479078 0.638824 0)
(-0.111403 0.610486 0)
(-0.260572 0.573534 0)
(-0.396011 0.52927 0)
(-0.519717 0.478724 0)
(-0.630574 0.421974 0)
(-0.727995 0.359618 0)
(-0.810279 0.29018 0)
(-0.875328 0.215121 0)
(-0.92078 0.134606 0)
(-0.944665 0.0492704 0)
(-0.944578 -0.0392246 0)
(-0.921458 -0.12402 0)
(-0.878084 -0.205458 0)
(-0.814635 -0.282634 0)
(-0.732841 -0.352866 0)
(-0.634465 -0.416272 0)
(-0.519753 -0.471962 0)
(-0.391454 -0.517349 0)
(-0.251663 -0.553313 0)
(-0.101931 -0.575329 0)
(0.0551393 -0.582594 0)
(0.212534 -0.572883 0)
(0.366572 -0.551044 0)
(0.514971 -0.504319 0)
(0.646701 -0.44362 0)
(0.761069 -0.364548 0)
(0.850691 -0.271123 0)
(0.914223 -0.168597 0)
(0.947782 -0.0559248 0)
(0.948736 0.0569225 0)
(0.917243 0.169806 0)
(0.851816 0.279765 0)
(0.754731 0.376969 0)
(0.63004 0.456702 0)
(0.483479 0.512411 0)
(0.323751 0.54128 0)
(0.159992 0.540525 0)
(0.00144193 0.510273 0)
(-0.140236 0.454208 0)
(-0.254865 0.381078 0)
(-0.343632 0.293038 0)
(-0.399369 0.204856 0)
(-0.422925 0.119869 0)
(-0.421214 0.0498598 0)
(-0.401198 -0.00128426 0)
(-0.365815 -0.0345485 0)
(-0.330126 -0.03989 0)
(-0.29617 -0.0319631 0)
(-0.271654 -0.00258967 0)
(-0.266995 0.0417831 0)
(-0.278778 0.0834844 0)
(-0.309988 0.129196 0)
(-0.357906 0.16352 0)
(-0.417146 0.185393 0)
(-0.482783 0.19206 0)
(-0.548604 0.181183 0)
(-0.607854 0.152965 0)
(-0.654932 0.111352 0)
(-0.686991 0.059182 0)
(-0.699952 -0.00395721 0)
(-0.691608 -0.0657913 0)
(-0.666597 -0.12637 0)
(-0.621456 -0.1855 0)
(-0.559966 -0.231243 0)
(-0.488581 -0.268383 0)
(-0.409446 -0.294075 0)
(-0.327126 -0.309355 0)
(-0.24491 -0.314074 0)
(-0.165927 -0.317293 0)
(-0.0878585 -0.309536 0)
(-0.0171749 -0.306686 0)
(0.053914 -0.297683 0)
(0.119514 -0.29752 0)
(0.188495 -0.290344 0)
(0.254414 -0.291612 0)
(0.323927 -0.285739 0)
(0.391441 -0.281854 0)
(0.460064 -0.276669 0)
(0.529288 -0.266303 0)
(0.5965 -0.251026 0)
(0.909742 0.59004 0)
(0.743595 0.652766 0)
(0.565987 0.69507 0)
(0.384667 0.715751 0)
(0.20734 0.716768 0)
(0.0361355 0.700998 0)
(-0.127113 0.668918 0)
(-0.278798 0.627389 0)
(-0.416267 0.578701 0)
(-0.541814 0.523607 0)
(-0.654657 0.46195 0)
(-0.754307 0.394227 0)
(-0.83895 0.31847 0)
(-0.906156 0.236306 0)
(-0.95326 0.147799 0)
(-0.977985 0.0536802 0)
(-0.97772 -0.0439736 0)
(-0.953623 -0.137444 0)
(-0.908735 -0.226928 0)
(-0.843286 -0.311631 0)
(-0.759227 -0.388475 0)
(-0.658335 -0.45794 0)
(-0.540418 -0.519453 0)
(-0.408224 -0.569636 0)
(-0.263825 -0.609965 0)
(-0.108226 -0.635024 0)
(0.0554601 -0.643489 0)
(0.219436 -0.632944 0)
(0.379891 -0.610399 0)
(0.536148 -0.558561 0)
(0.674094 -0.492278 0)
(0.79488 -0.405031 0)
(0.889188 -0.30146 0)
(0.956773 -0.189041 0)
(0.992843 -0.0634252 0)
(0.994171 0.0621855 0)
(0.961439 0.187863 0)
(0.892489 0.310974 0)
(0.789523 0.419869 0)
(0.656422 0.509732 0)
(0.500114 0.572591 0)
(0.327157 0.604879 0)
(0.15314 0.603388 0)
(-0.0137164 0.569896 0)
(-0.16659 0.505081 0)
(-0.289559 0.41979 0)
(-0.379945 0.320927 0)
(-0.435236 0.219146 0)
(-0.455022 0.122346 0)
(-0.447482 0.0445949 0)
(-0.418213 -0.0134905 0)
(-0.374046 -0.0507151 0)
(-0.330466 -0.0546454 0)
(-0.287935 -0.044885 0)
(-0.257957 -0.00944804 0)
(-0.250055 0.0422577 0)
(-0.260921 0.0913051 0)
(-0.294449 0.144419 0)
(-0.346566 0.184462 0)
(-0.411614 0.21001 0)
(-0.483817 0.217969 0)
(-0.556461 0.206043 0)
(-0.621942 0.174287 0)
(-0.674098 0.127282 0)
(-0.709954 0.0684355 0)
(-0.724933 -0.00278745 0)
(-0.716267 -0.0722728 0)
(-0.690035 -0.139952 0)
(-0.642603 -0.206401 0)
(-0.576791 -0.257398 0)
(-0.501006 -0.297851 0)
(-0.417529 -0.325653 0)
(-0.331427 -0.341389 0)
(-0.245988 -0.345288 0)
(-0.165338 -0.347521 0)
(-0.0857736 -0.337966 0)
(-0.0151058 -0.333661 0)
(0.0558428 -0.32339 0)
(0.120454 -0.323109 0)
(0.189261 -0.315629 0)
(0.254841 -0.317446 0)
(0.32496 -0.311657 0)
(0.393165 -0.308004 0)
(0.462822 -0.302946 0)
(0.533611 -0.292858 0)
(0.602445 -0.276064 0)
(0.934432 0.651856 0)
(0.759699 0.720104 0)
(0.573465 0.765152 0)
(0.383925 0.785975 0)
(0.19967 0.784938 0)
(0.0223756 0.765285 0)
(-0.145011 0.7287 0)
(-0.299387 0.681896 0)
(-0.438751 0.628393 0)
(-0.566024 0.568652 0)
(-0.680785 0.502302 0)
(-0.782734 0.429535 0)
(-0.869903 0.347818 0)
(-0.939506 0.258827 0)
(-0.9885 0.162515 0)
(-1.01424 0.059446 0)
(-1.01383 -0.0474577 0)
(-0.988556 -0.14991 0)
(-0.941835 -0.24771 0)
(-0.873994 -0.340364 0)
(-0.787283 -0.42436 0)
(-0.683644 -0.500215 0)
(-0.562606 -0.567718 0)
(-0.426521 -0.623192 0)
(-0.277492 -0.668171 0)
(-0.115792 -0.696629 0)
(0.0550389 -0.70636 0)
(0.226402 -0.694676 0)
(0.393604 -0.671865 0)
(0.558768 -0.61439 0)
(0.703407 -0.542459 0)
(0.831436 -0.4464 0)
(0.930661 -0.331615 0)
(1.00264 -0.209202 0)
(1.04211 -0.0695974 0)
(1.04397 0.0698189 0)
(1.0099 0.208858 0)
(0.937198 0.346172 0)
(0.827701 0.467783 0)
(0.686584 0.567631 0)
(0.517095 0.638549 0)
(0.337232 0.674332 0)
(0.146581 0.67197 0)
(-0.034001 0.63269 0)
(-0.195716 0.559787 0)
(-0.326414 0.462444 0)
(-0.419935 0.349578 0)
(-0.474699 0.234066 0)
(-0.490596 0.12484 0)
(-0.475139 0.0360675 0)
(-0.43635 -0.029254 0)
(-0.381836 -0.0680729 0)
(-0.328483 -0.0727564 0)
(-0.277033 -0.0602032 0)
(-0.241178 -0.0175597 0)
(-0.229335 0.0424374 0)
(-0.239138 0.100144 0)
(-0.275431 0.161544 0)
(-0.332551 0.207573 0)
(-0.404205 0.237297 0)
(-0.483834 0.247039 0)
(-0.564257 0.234074 0)
(-0.636822 0.198389 0)
(-0.694733 0.145497 0)
(-0.734806 0.07924 0)
(-0.75208 -0.000895519 0)
(-0.742882 -0.0788932 0)
(-0.714936 -0.154145 0)
(-0.664997 -0.228428 0)
(-0.59436 -0.285163 0)
(-0.513576 -0.328891 0)
(-0.425251 -0.358709 0)
(-0.334887 -0.374615 0)
(-0.245885 -0.377429 0)
(-0.163462 -0.378109 0)
(-0.0826285 -0.366592 0)
(-0.0120909 -0.360379 0)
(0.0583534 -0.348707 0)
(0.12165 -0.348202 0)
(0.189933 -0.340653 0)
(0.254981 -0.343122 0)
(0.325648 -0.337627 0)
(0.394666 -0.334125 0)
(0.46534 -0.329468 0)
(0.537733 -0.319801 0)
(0.608611 -0.301081 0)
(0.95271 0.694684 0)
(0.772124 0.76645 0)
(0.579667 0.813478 0)
(0.384289 0.83429 0)
(0.194981 0.831733 0)
(0.0134325 0.809301 0)
(-0.156983 0.769551 0)
(-0.313314 0.71917 0)
(-0.454023 0.662408 0)
(-0.582543 0.599638 0)
(-0.698815 0.530131 0)
(-0.802613 0.4539 0)
(-0.89184 0.367938 0)
(-0.963388 0.274036 0)
(-1.0139 0.172049 0)
(-1.04041 0.0625321 0)
(-1.03974 -0.050898 0)
(-1.01345 -0.159452 0)
(-0.965134 -0.262926 0)
(-0.89521 -0.360997 0)
(-0.806146 -0.449866 0)
(-0.70009 -0.530106 0)
(-0.576348 -0.601944 0)
(-0.437329 -0.661001 0)
(-0.285115 -0.709465 0)
(-0.119011 -0.740657 0)
(0.0568371 -0.751518 0)
(0.233539 -0.739099 0)
(0.405106 -0.716453 0)
(0.576487 -0.654908 0)
(0.725552 -0.579193 0)
(0.858929 -0.477286 0)
(0.961164 -0.354348 0)
(1.03637 -0.225828 0)
(1.07826 -0.0758455 0)
(1.08054 0.0726418 0)
(1.04582 0.221052 0)
(0.971032 0.367997 0)