/*--------------------------------*- C++ -*----------------------------------*\
| =========                 |                                                 |
| \\      /  F ield         | OpenFOAM: The Open Source CFD Toolbox           |
|  \\    /   O peration     | Version:  v1912                                 |
|   \\  /    A nd           | Website:  www.openfoam.com                      |
|    \\/     M anipulation  |                                                 |
\*---------------------------------------------------------------------------*/
FoamFile
{
    version     2.0;
    format      ascii;
    class       volScalarField;
    location    "20";
    object      p;
}
// * * * * * * * * * * * * * * * * * * * * * * * * * * * * * * * * * * * * * //

dimensions      [1 -1 -2 0 0 0 0];


internalField   nonuniform List<scalar> 
14268
(
250.313
239.825
244.809
235.015
183.147
151.576
140.799
126.292
109.292
77.7878
65.1378
52.7884
57.9099
54.7185
57.7901
50.619
47.3355
39.6491
28.1439
23.7229
19.6927
21.153
26.8716
31.9334
35.045
26.2819
14.6347
10.8424
5.93969
1.45346
-4.52451
-5.39517
-8.31697
-11.0005
-14.619
-16.4326
-16.7238
-16.0568
-14.6703
-12.9094
-10.5977
-10.9778
-13.7539
-17.8884
-19.7368
-20.1655
-20.4146
-21.0684
-22.1628
-22.8444
-23.0545
-23.122
-22.9833
-22.8094
-22.699
-23.2126
-25.4368
-26.686
-27.6754
-27.9329
-28.3811
-27.9733
-27.9227
-25.7735
-22.7752
-22.742
-23.7773
-24.7209
-26.7301
-28.2672
-29.6075
-30.3876
-30.7323
-30.8131
-31.3283
-31.4491
-30.9447
-30.8631
-31.4776
-32.338
-33.1596
-33.5435
-34.0694
-34.7975
-35.4982
-35.8905
-36.1324
-36.3602
-36.09
-36.0308
-36.3111
-36.4593
-36.7335
-37.9735
-39.1659
-39.6606
-40.0716
-40.2551
-40.531
-40.8866
-41.2441
-41.7305
-42.4869
-42.8397
236.85
225.472
230.959
219.194
168.395
140.018
133.268
119.582
103.288
71.7092
60.4568
48.9348
53.9282
49.6092
51.5549
44.2517
41.174
33.5164
23.1568
20.9627
17.0295
18.3253
23.2713
27.9887
30.8098
21.475
9.38511
5.50632
0.913043
-2.94524
-8.13104
-8.54755
-11.4464
-13.7375
-17.0263
-18.5875
-18.6949
-18.0906
-16.8577
-15.3193
-12.4332
-12.6235
-15.6607
-19.7314
-21.5543
-21.8955
-21.9193
-22.2267
-23.0142
-23.6361
-23.8856
-23.9124
-23.7089
-23.6322
-23.5696
-24.0358
-26.1285
-27.394
-28.3006
-28.5249
-28.9588
-28.5132
-28.4446
-26.8843
-24.3629
-24.3128
-25.1368
-25.8522
-27.5289
-29.0053
-30.4623
-31.0896
-31.3418
-31.4361
-31.959
-32.0827
-31.5961
-31.4924
-32.0874
-32.9236
-33.7089
-34.0612
-34.5667
-35.2786
-35.97
-36.364
-36.6184
-36.8482
-36.5875
-36.5381
-36.9475
-37.2261
-37.5161
-38.6637
-39.7934
-40.2713
-40.6766
-40.8645
-41.1678
-41.5386
-41.8984
-42.3729
-43.115
-43.4572
234.298
224.093
228.376
219.634
166.024
136.4
127.962
113.461
99.2565
68.8964
58.3129
47.7308
52.6828
48.755
51.0393
44.1059
41.0363
33.3831
22.9075
18.9534
14.861
14.7096
18.8894
23.238
26.8627
18.9823
8.36689
4.09649
-0.976706
-5.49172
-11.2412
-11.8776
-13.59
-15.1887
-18.0163
-19.2392
-19.2669
-18.9096
-17.878
-16.3339
-13.7224
-13.3593
-16.6706
-21.9876
-23.2384
-23.4018
-23.5197
-23.4437
-23.7074
-24.1716
-24.4567
-24.5501
-24.5078
-24.4189
-24.3786
-24.8221
-26.7179
-27.8336
-28.6791
-28.8504
-29.2706
-28.8521
-28.757
-27.1262
-24.7794
-25.0368
-26.1139
-26.5349
-28.1155
-29.6185
-31.0301
-31.6871
-31.8644
-31.8185
-32.3606
-32.4872
-31.9634
-31.8626
-32.4179
-33.2043
-33.9581
-34.2974
-34.7897
-35.4835
-36.1642
-36.5533
-36.8269
-37.0976
-36.8451
-37.04
-37.6086
-37.7873
-38.0017
-39.0998
-40.1902
-40.7073
-41.158
-41.3433
-41.6238
-41.9737
-42.2802
-42.7371
-43.469
-43.7971
223.335
215.916
219.61
208.364
159.773
131.046
123.009
108.95
92.9915
64.9265
55.4461
45.5497
50.2249
45.5896
47.4407
39.8885
35.8001
27.8656
18.7919
17.3125
13.1531
11.3717
13.2438
17.5672
18.943
10.3385
4.15459
0.175832
-4.65668
-8.39295
-13.6636
-13.8133
-16.0664
-16.7953
-18.8108
-19.6705
-19.8966
-19.7205
-18.8838
-17.4389
-14.77
-14.5841
-17.4914
-22.8905
-24.7361
-24.8918
-24.6881
-24.0156
-24.0505
-24.7441
-25.0914
-25.1944
-25.1466
-25.0768
-25.008
-25.4414
-27.2814
-28.1516
-28.9768
-29.1157
-29.5412
-29.1356
-29.1783
-27.9455
-25.5719
-26.1726
-27.4119
-27.9237
-29.1045
-30.1006
-31.2562
-32.0469
-32.2738
-32.157
-32.6778
-32.7343
-32.2156
-32.1877
-32.6895
-33.393
-34.1638
-34.5622
-35.0198
-35.6459
-36.3225
-36.7541
-37.0246
-37.3122
-37.1095
-37.5101
-38.586
-39.0798
-39.2678
-40.1578
-41.1039
-41.5292
-41.8671
-42.0575
-42.4835
-43.0076
-43.396
-43.8707
-44.5652
-44.8535
213.631
202.368
202.343
186.867
144.636
126.45
122.25
107.8
89.9445
60.9603
53.1857
43.5539
48.2076
42.8128
40.379
29.0223
23.7004
16.9339
15.1886
16.1622
12.3942
12.358
18.5697
25.1013
27.8821
13.5926
-1.94552
-6.64935
-14.2774
-18.046
-20.7654
-17.5648
-16.8627
-17.5971
-19.4058
-20.1295
-20.4669
-20.4507
-19.5949
-18.158
-15.2994
-15.3236
-17.8122
-21.6829
-23.2356
-23.2447
-23.5975
-23.9318
-24.5851
-25.2928
-25.6262
-25.747
-25.7775
-25.7209
-25.6731
-26.0471
-27.8069
-28.4933
-29.2067
-29.3069
-29.7137
-29.3371
-29.4909
-28.3645
-26.1152
-26.082
-27.5946
-28.3419
-30.0203
-30.4145
-31.5379
-32.3027
-32.5089
-32.4006
-32.901
-32.9117
-32.5215
-32.5371
-32.9894
-33.6089
-34.3783
-34.81
-35.2401
-35.8031
-36.4743
-36.9404
-37.235
-37.4936
-37.4088
-37.9355
-38.86
-39.0478
-39.2885
-40.3288
-41.2749
-41.4384
-41.6945
-41.8531
-42.2245
-42.7818
-43.2445
-43.7819
-44.4936
-44.823
179.781
172.343
167.895
156.176
105.738
103.038
107.235
91.7711
74.2199
46.4817
41.8696
37.4318
42.6144
34.4184
25.6012
6.96949
-0.49633
-1.79442
10.5961
15.0347
11.6289
11.9766
15.5181
19.9235
21.9609
7.99597
-13.1937
-19.9473
-21.3676
-21.6443
-26.9645
-26.9006
-21.6157
-19.003
-20.1738
-20.6445
-20.9278
-21.0881
-20.5522
-19.4571
-17.0031
-16.5252
-19.1435
-22.8608
-23.9859
-24.1403
-24.441
-24.7987
-25.2896
-25.8175
-26.2324
-26.5925
-26.6637
-26.567
-26.4508
-26.6863
-28.2467
-28.8469
-29.4968
-29.5843
-29.9584
-29.5685
-29.8985
-29.4498
-27.3331
-27.1745
-27.9583
-28.4791
-30.284
-31.2873
-31.9623
-32.5497
-32.6952
-32.5679
-33.0591
-33.1355
-32.8551
-32.8949
-33.2944
-33.8292
-34.5845
-35.0355
-35.4476
-35.9646
-36.6258
-37.1152
-37.4392
-37.6904
-37.6992
-38.2435
-38.7638
-38.9465
-39.1499
-40.1183
-41.0687
-41.3082
-41.6567
-41.8634
-42.1783
-42.5927
-42.9798
-43.4518
-44.1111
-44.3845
82.4768
169.772
194.798
173.784
99.6596
72.1108
67.4963
57.5836
35.1812
6.34987
7.093
8.69409
27.7696
27.163
25.7758
4.80403
-3.60284
-12.3322
-0.759674
13.8551
9.7863
9.93549
6.47069
3.61731
10.5506
2.69199
-15.9835
-17.629
-16.9671
-17.3757
-22.9813
-28.7635
-33.3508
-24.5699
-21.1975
-21.1285
-21.4518
-22.2678
-23.6222
-24.2207
-20.7182
-17.2926
-19.4088
-23.0814
-24.0609
-24.2923
-24.8442
-25.3197
-25.9126
-26.4142
-27.0589
-27.5358
-27.8547
-28.0682
-27.9161
-27.862
-28.9592
-29.2217
-29.8031
-29.8392
-30.1772
-29.7902
-30.1532
-30.1749
-28.8107
-28.6068
-28.4247
-28.2606
-30.0565
-31.4597
-32.1092
-32.6749
-32.8674
-32.7512
-33.2258
-33.3401
-33.1228
-33.2122
-33.5799
-34.0393
-34.78
-35.2444
-35.6409
-36.1209
-36.7694
-37.2811
-37.6316
-37.8989
-37.8294
-38.1689
-38.8806
-39.1951
-39.379
-40.1536
-41.0852
-41.4307
-41.8021
-41.9907
-42.2811
-42.6351
-42.9508
-43.3704
-44.0516
-44.3457
156.862
199.343
206.151
193.991
128.403
76.1553
65.7351
52.5157
35.1785
4.52577
-0.784098
-22.6152
-11.896
-1.33883
14.3756
15.0954
8.21451
-3.23871
-6.9821
10.6645
8.04074
-1.61829
-25.1885
-36.0102
-14.1432
-1.97474
-7.57941
-12.5381
-12.4754
-13.5075
-19.5972
-25.0727
-33.0803
-33.3531
-23.7999
-22.0248
-22.3939
-25.5598
-30.6857
-32.5124
-27.2345
-19.8948
-20.7319
-23.6653
-24.6677
-25.2223
-25.9134
-26.5457
-27.1945
-27.6086
-27.3817
-27.4746
-27.9325
-28.2229
-28.237
-28.6716
-29.8588
-29.6501
-30.1101
-30.1048
-30.3997
-30.0283
-30.4753
-31.0252
-31.0071
-30.9778
-30.3704
-28.8829
-30.2582
-31.8344
-32.4262
-32.9135
-33.052
-32.9259
-33.3799
-33.5073
-33.3727
-33.4992
-33.8514
-34.2454
-34.9722
-35.4455
-35.8325
-36.2783
-36.9161
-37.4449
-37.816
-38.1031
-38.0452
-38.3597
-39.273
-39.9301
-40.1231
-40.7631
-41.3772
-41.7096
-42.0454
-42.222
-42.5596
-42.9476
-43.2931
-43.7117
-44.3538
-44.6338
191.095
194.926
195.597
183.498
131.966
93.4079
77.6253
66.0516
52.1043
26.748
25.01
7.73399
-8.05426
-19.3485
-0.570667
19.3284
23.0742
13.966
-1.21271
2.51663
3.31724
-16.9707
-41.153
-41.0118
-43.459
-1.14829
-1.6609
-7.34981
-11.6887
-14.5741
-19.3778
-21.321
-26.5856
-27.343
-24.8061
-23.556
-25.4282
-30.7734
-33.7509
-32.9403
-30.2533
-24.885
-21.2027
-24.0043
-24.8405
-25.5258
-27.157
-28.0114
-28.7964
-29.6198
-28.4296
-27.1553
-27.1762
-27.1548
-27.1807
-27.6332
-29.4986
-29.9317
-30.3392
-30.3169
-30.5653
-30.1897
-30.7816
-32.7183
-34.3324
-33.3024
-31.9405
-29.1687
-30.6086
-32.1504
-32.527
-33.0551
-33.2107
-33.0865
-33.5273
-33.6743
-33.5997
-33.7582
-34.0934
-34.4393
-35.1579
-35.6522
-36.01
-36.4311
-37.0561
-37.6021
-37.9975
-38.3063
-38.3158
-38.7011
-39.7684
-40.8954
-41.1294
-41.0789
-41.5108
-41.819
-42.1262
-42.3629
-42.6955
-43.0755
-43.3818
-43.7582
-44.3973
-44.7061
190.422
186.644
186.77
174.967
127.566
99.5422
92.9616
81.4742
67.8
40.3262
35.9579
23.1743
10.584
-6.90409
-1.37816
2.73897
17.8063
14.0075
-8.23993
-21.8208
-24.5183
-32.1568
-30.1265
-33.2208
-49.9309
-16.4443
-3.41381
-7.24567
-12.613
-16.1396
-20.5603
-20.2742
-22.1144
-22.1748
-21.8871
-22.2506
-26.113
-30.5028
-31.5074
-31.1894
-29.0229
-29.3013
-23.6947
-24.414
-25.3086
-26.8034
-27.8867
-27.7664
-28.3349
-29.5783
-30.6495
-28.8479
-27.7268
-27.7495
-27.7724
-28.1974
-29.6937
-30.0353
-30.4572
-30.3902
-30.6914
-30.4065
-31.2187
-35.35
-39.4022
-40.5006
-35.0283
-30.5492
-31.1806
-32.4385
-32.7859
-33.2786
-33.3838
-33.2504
-33.6752
-33.8263
-33.8226
-34.0294
-34.3673
-34.6386
-35.3597
-35.8597
-36.1508
-36.5867
-37.1992
-37.7559
-38.1733
-38.5134
-38.6309
-39.0918
-40.3849
-41.6996
-41.6915
-41.4394
-41.7657
-42.0271
-42.343
-42.626
-43.0162
-43.4548
-43.7717
-44.0828
-44.6813
-44.9621
184.798
169.038
146.291
163.389
122.114
99.2573
93.7983
82.2718
69.7308
41.4063
35.5212
25.7654
30.0476
18.1915
19.3249
13.3977
14.0983
12.7231
-0.86483
-15.7097
-19.3662
-11.6067
-4.13239
-3.32873
-24.0721
-29.5669
-10.271
-14.2691
-19.5811
-19.5962
-21.0577
-20.6905
-21.5002
-21.3018
-21.4231
-21.6011
-22.1874
-24.1522
-27.3979
-27.9965
-23.8721
-22.7172
-25.4579
-24.7802
-25.5186
-26.6308
-26.9518
-26.7617
-27.3199
-28.8977
-30.2847
-31.6945
-29.8759
-28.4331
-28.4263
-28.7951
-30.1426
-30.1543
-30.5415
-30.4878
-30.8743
-30.5925
-31.0631
-34.2678
-38.1837
-39.3763
-36.0653
-31.467
-31.7368
-32.7088
-32.9717
-33.4286
-33.5278
-33.403
-33.8129
-33.9788
-34.0435
-34.286
-34.5824
-34.8467
-35.5631
-36.0381
-36.2751
-36.7355
-37.345
-37.9124
-38.3448
-38.7099
-38.9209
-39.4718
-40.8862
-41.5731
-41.4962
-41.6946
-41.9439
-42.1464
-42.4699
-42.7762
-43.192
-43.638
-43.9589
-44.2023
-44.7437
-45.0404
157.03
52.8458
-40.1195
76.7234
117.622
96.5663
89.9497
75.7328
62.4118
38.5225
33.8753
25.2618
33.6561
26.6683
28.015
19.4683
16.749
11.0693
4.07851
-0.406246
-4.72918
-2.67735
-1.52691
-1.39562
-17.4442
-51.5529
-51.036
-49.4381
-52.0846
-33.6671
-23.9151
-21.6789
-22.0285
-21.7473
-21.8796
-21.8378
-21.9941
-22.7139
-23.4713
-23.0405
-20.1579
-20.0474
-23.1909
-25.7967
-25.93
-26.4939
-26.3223
-26.3365
-26.6647
-27.7453
-29.6184
-31.4379
-33.6765
-30.7195
-29.2571
-29.2573
-30.575
-30.4679
-30.777
-30.6971
-31.1123
-30.8146
-31.0161
-32.4148
-36.4483
-38.0716
-32.4446
-30.4999
-32.1816
-33.1264
-33.2139
-33.6323
-33.6889
-33.5632
-33.9548
-34.116
-34.2253
-34.4785
-34.697
-34.9895
-35.6862
-36.1464
-36.3954
-36.8715
-37.4927
-38.0715
-38.5156
-38.9071
-39.2291
-39.9483
-41.2181
-41.4163
-41.3244
-41.6781
-42.1112
-42.2983
-42.6305
-42.9969
-43.4498
-43.9465
-44.2757
-44.525
-45.0149
-45.2749
82.2734
-64.7414
-108.376
-57.6572
101.3
91.937
87.4031
72.735
57.6289
33.3374
31.9763
22.2931
32.0987
27.3402
31.1043
21.2992
19.3059
10.2557
3.20516
2.0932
-1.23072
-2.67256
-14.2647
-30.5682
-48.3321
-79.8326
-107.01
-112.283
-95.0638
-61.1998
-33.9973
-24.3159
-22.9414
-22.1281
-22.1882
-22.0487
-22.1646
-22.564
-22.8279
-22.2452
-20.0152
-20.2889
-22.4175
-25.5533
-25.954
-25.9844
-26.1455
-26.3112
-26.6478
-27.1596
-28.5232
-30.9067
-33.8773
-35.4874
-32.4334
-30.5048
-31.0764
-30.7794
-31.0481
-30.9535
-31.3486
-31.0515
-31.1456
-31.2541
-33.7497
-36.2413
-31.3959
-31.2294
-32.5408
-33.2921
-33.3982
-33.7941
-33.8286
-33.7082
-34.089
-34.2588
-34.4303
-34.7105
-34.9139
-35.0315
-35.7491
-36.3718
-36.5553
-37.0181
-37.64
-38.2269
-38.6831
-39.1125
-39.5128
-40.2737
-41.3499
-41.1102
-40.9877
-41.6528
-42.2329
-42.3919
-42.7204
-43.1323
-43.6309
-44.1458
-44.4261
-44.6269
-45.0849
-45.3657
-22.8261
-87.3374
-81.2385
-140.532
63.3764
86.9222
84.0302
72.7732
58.3493
29.5885
26.9708
15.4076
28.3264
26.235
28.2196
17.4515
12.7871
-0.395728
-2.36123
-0.278282
-2.91182
-8.87445
-24.5962
-35.5935
-44.0381
-74.2269
-99.1817
-104.564
-103.046
-96.0666
-50.4566
-31.8328
-24.9536
-22.9327
-22.6575
-22.2985
-22.2327
-22.6125
-22.8775
-22.9416
-21.5177
-21.4672
-23.0127
-25.4797
-26.1754
-26.3458
-26.4663
-26.6131
-26.8682
-27.2334
-27.836
-30.1418
-33.3158
-36.443
-36.674
-32.4107
-31.7362
-31.126
-31.3579
-31.2275
-31.5617
-31.2029
-31.3765
-31.0558
-31.6097
-33.6242
-32.9128
-33.5713
-33.1646
-33.4995
-33.6171
-33.9857
-33.9897
-33.8738
-34.2331
-34.4048
-34.632
-34.9575
-35.148
-35.1265
-35.8122
-36.6028
-36.7457
-37.187
-37.7899
-38.3877
-38.8537
-39.3014
-39.7972
-40.8713
-41.5908
-40.9609
-41.0527
-41.8842
-42.4157
-42.5529
-42.8434
-43.2469
-43.8294
-44.4352
-44.7144
-44.9208
-45.3325
-45.5776
-17.134
-12.4545
-55.5563
-133.215
-4.61012
70.3619
72.7924
64.1232
53.7878
29.1818
21.4873
11.7983
26.6909
25.0143
24.8133
4.00258
-5.32752
-18.7699
-6.75189
-4.83096
-6.88083
-11.8595
-23.0054
-25.7662
-35.6416
-59.6927
-66.2067
-58.4367
-52.1543
-49.3544
-48.2138
-41.405
-26.9741
-24.9079
-23.8231
-22.6294
-22.5035
-22.7293
-23.0749
-24.5385
-25.2109
-25.6932
-24.6293
-26.3139
-26.7293
-26.6648
-26.7215
-26.7957
-27.0252
-27.4022
-27.772
-28.6839
-32.4844
-35.6419
-37.9054
-36.0851
-32.923
-31.7788
-31.857
-31.5527
-31.7171
-31.2885
-31.5715
-31.1371
-30.7719
-32.1603
-34.6464
-36.288
-34.8497
-33.8008
-33.8635
-34.2328
-34.2033
-34.1015
-34.4317
-34.6145
-34.9329
-35.3252
-35.4572
-35.3843
-35.8948
-36.6851
-37.0148
-37.4477
-38.0142
-38.6324
-39.1158
-39.567
-40.7672
-42.434
-41.8271
-41.1427
-41.2845
-42.0796
-42.5841
-42.734
-43.0428
-43.3189
-43.901
-44.5332
-45.0135
-45.0734
-45.4448
-45.7202
126.847
127.877
69.1618
-88.5442
-149.879
-75.6289
-20.4618
-9.54847
21.3928
27.5984
24.6946
15.205
26.3102
20.5319
21.6163
-1.11204
-16.1023
-41.9074
-22.0587
-7.62276
-9.54588
-7.21713
-8.0513
-12.236
-17.7127
-31.406
-30.4782
-28.4894
-29.4719
-29.6438
-29.8174
-27.6049
-25.4263
-25.8685
-25.2039
-23.21
-22.7389
-22.9498
-23.2979
-25.9276
-29.384
-30.0879
-26.8353
-27.0347
-27.1295
-27.1268
-27.0113
-27.1027
-27.3498
-27.6823
-28.0087
-28.4197
-30.2694
-34.6145
-36.8585
-38.2315
-34.1262
-32.1608
-32.2228
-31.8361
-31.9844
-31.5444
-31.7973
-31.6355
-31.3193
-32.4681
-34.8526
-35.551
-35.5879
-34.2083
-34.3068
-34.6298
-34.5176
-34.4383
-34.714
-34.8984
-35.3607
-35.9577
-35.9093
-35.7422
-36.107
-36.7846
-37.2975
-37.731
-38.3221
-38.9098
-39.4555
-39.8327
-41.7733
-42.6247
-41.8426
-41.644
-41.7355
-42.5836
-42.9028
-43.0317
-43.3539
-43.6655
-44.0836
-44.6997
-45.4508
-45.6205
-45.9014
-46.1228
109.341
110.519
87.4057
-56.1159
-125.072
-122.242
-81.7089
-70.3201
-35.5566
17.8093
24.2806
12.17
23.4202
13.3713
11.6422
4.6447
-7.9048
-39.5731
-47.7895
-14.6124
-14.0619
-11.7445
-11.2802
-10.6409
-10.5134
-18.4435
-21.2429
-22.7711
-25.9053
-27.411
-27.4436
-25.8459
-24.3747
-24.2618
-24.0349
-23.7432
-23.0597
-23.1852
-23.389
-24.6886
-27.2468
-28.8825
-28.2616
-26.5773
-26.824
-26.9913
-27.1188
-27.1845
-27.4604
-27.8999
-28.2856
-28.6808
-29.4554
-33.0792
-36.025
-37.9395
-35.4942
-32.6427
-32.7035
-32.2648
-32.3738
-31.8835
-32.0058
-31.9563
-31.8757
-32.9541
-34.198
-34.5192
-34.088
-34.5453
-34.7885
-35.0089
-34.796
-34.7548
-34.9746
-35.1692
-35.7613
-36.596
-36.3492
-36.0874
-36.4108
-36.8953
-37.5424
-37.9607
-38.6251
-39.1747
-39.7981
-40.0901
-41.0273
-42.0897
-42.0497
-41.9434
-42.0935
-42.825
-43.1257
-43.2634
-43.6156
-43.9895
-44.3625
-44.8116
-45.5085
-45.8348
-46.0716
-46.338
0.902541
-13.8178
58.6704
-14.176
-81.9548
-73.0103
4.12347
17.49
19.3306
1.96569
19.5829
11.2968
17.7394
-9.44755
-12.0073
-0.765368
-4.02519
-30.654
-56.8328
-33.5786
-19.1604
-17.3833
-13.955
-12.7861
-11.3422
-16.165
-20.6137
-22.6337
-25.3941
-26.6085
-27.4405
-26.0657
-24.2803
-23.9045
-23.7886
-23.6212
-23.2183
-23.3989
-23.6348
-24.3107
-25.4789
-27.8169
-28.9104
-26.7992
-27.1339
-27.5139
-27.5909
-27.5694
-27.8003
-28.1631
-28.5346
-28.9734
-29.3886
-31.4065
-34.8559
-37.1095
-37.1003
-33.2309
-33.3306
-32.7577
-32.8246
-32.292
-32.3391
-32.3215
-32.5501
-33.8064
-34.9028
-34.3269
-34.2312
-34.724
-35.1372
-35.3906
-35.1014
-35.1014
-35.2429
-35.4284
-36.1815
-37.2385
-36.8602
-36.4377
-36.7325
-37.0814
-37.8079
-38.1829
-38.8781
-39.4692
-40.1459
-40.4263
-40.857
-41.898
-42.4123
-42.3298
-42.5277
-43.2313
-43.4099
-43.5312
-43.8961
-44.3171
-44.6977
-45.067
-45.7201
-46.3662
-46.5029
-46.7045
-47.3415
-31.1511
57.0449
58.2215
-22.8653
-2.89946
35.933
39.0541
36.0601
15.9019
9.59732
1.27411
-4.13911
-37.5184
-31.398
-12.7114
-4.29612
-18.4366
-43.2253
-55.4283
-46.9381
-34.8069
-16.5484
-13.3789
-11.5456
-16.0458
-19.8516
-22.0149
-25.428
-26.8568
-27.4667
-26.186
-24.5881
-24.0852
-23.9676
-23.5652
-23.3807
-23.658
-23.8583
-24.3994
-24.4026
-25.4728
-26.5835
-27.0452
-27.4622
-27.7466
-27.8668
-27.8105
-28.0244
-28.4146
-28.7982
-29.2457
-29.611
-30.6136
-32.9466
-35.6834
-37.8253
-33.9482
-33.9936
-33.3344
-33.2234
-32.6275
-32.6332
-32.6366
-33.2572
-34.8781
-35.4505
-34.5606
-34.5545
-34.8034
-35.1014
-35.4533
-35.3487
-35.3205
-35.4936
-35.7087
-36.6731
-37.6495
-37.3533
-36.7755
-37.0446
-37.3795
-38.146
-38.4396
-39.0943
-39.7605
-40.4935
-40.7905
-41.1962
-42.1376
-42.7806
-42.6896
-42.746
-43.4571
-43.6534
-43.7716
-44.1477
-44.5849
-44.9399
-45.3249
-45.7863
-46.6422
-46.6689
-46.9175
-64.3678
-17.2701
75.899
76.4744
30.0782
19.6801
36.2611
37.4926
35.5751
21.1442
12.6607
-23.4015
-26.7164
-36.0478
-29.8991
-23.7492
-9.2467
-11.6537
-25.7341
-38.707
-51.199
-49.616
-24.6346
-16.0047
-13.4426
-17.0408
-20.9912
-22.994
-25.8658
-27.2
-27.8982
-26.6277
-24.9672
-24.4372
-24.2349
-23.8113
-23.6632
-23.8912
-24.1529
-24.9052
-24.9298
-25.3367
-26.2362
-27.2544
-27.9152
-28.2166
-28.2333
-28.1259
-28.3081
-28.6892
-29.0753
-29.4965
-29.8793
-30.5936
-31.8972
-34.0524
-36.8601
-35.3437
-34.7831
-33.7435
-33.4724
-32.8318
-32.8446
-32.9517
-34.3114
-36.3437
-36.0832
-35.1657
-34.9328
-35.0985
-35.1814
-35.4777
-35.566
-35.4985
-35.7621
-35.9995
-37.2344
-37.8209
-37.8768
-37.1282
-37.3518
-37.6843
-38.473
-38.7368
-39.3275
-40.0515
-40.8465
-41.1534
-41.6095
-42.5395
-43.1496
-43.1204
-43.184
-43.794
-43.9292
-44.0263
-44.401
-44.8553
-45.2114
-45.6212
-46.0946
-47.0911
-47.0411
-47.2202
-49.0373
-6.81067
95.905
78.3715
37.6056
19.1857
31.9276
33.4088
32.6362
19.1255
15.0565
-13.837
-12.8359
-25.0837
-20.7134
-23.6377
-11.5931
-10.4365
-19.9493
-22.2865
-39.8984
-47.6105
-30.8856
-18.1429
-13.8461
-17.5765
-20.7973
-22.6968
-26.1474
-27.5455
-28.1784
-26.9006
-25.338
-24.7888
-24.5734
-24.0927
-23.9344
-24.1613
-24.4065
-25.2294
-25.2606
-25.6673
-26.3679
-27.397
-28.1902
-28.4524
-28.4948
-28.3936
-28.5616
-28.9468
-29.3375
-29.7457
-30.1439
-30.8521
-31.8632
-33.5091
-35.9766
-36.532
-35.7373
-34.2048
-33.7482
-33.0237
-33.0239
-33.15
-34.2166
-36.2907
-36.4744
-35.4457
-35.2769
-35.4149
-35.4404
-35.7191
-35.7944
-35.7145
-36.0111
-36.2607
-37.674
-38.0598
-38.1994
-37.4512
-37.6595
-37.9874
-38.7915
-39.0542
-39.6097
-40.331
-41.1613
-41.5009
-41.986
-42.897
-43.4929
-43.4593
-43.4515
-44.0537
-44.1721
-44.2761
-44.6427
-45.0826
-45.4496
-45.8701
-46.2778
-47.1271
-47.1464
-47.3866
11.7841
30.9723
44.5089
41.4876
33.2201
20.3154
13.6116
10.7688
13.1354
10.8912
12.3481
18.5365
-1.98007
-8.95402
-13.9612
-12.6449
-15.6799
-18.5909
-19.3185
-22.8773
-23.894
-23.6355
-25.4282
-25.8644
-24.3447
-24.5552
-26.8624
-28.7209
-28.7955
-29.4685
-29.606
-28.833
-27.3969
-26.6495
-26.195
-25.8054
-25.5492
-25.6523
-26.068
-26.9631
-27.9047
-28.4521
-29.0166
-29.6124
-30.0301
-30.3685
-30.2792
-29.9623
-30.0919
-30.3745
-30.777
-31.0095
-31.495
-32.1968
-32.9929
-33.9275
-34.9542
-36.7081
-36.4706
-35.8362
-35.5443
-34.7525
-34.4154
-34.6541
-34.6584
-37.1636
-39.1191
-37.7575
-37.1978
-37.0539
-36.9881
-37.1046
-37.0738
-37.1263
-37.3118
-37.5102
-38.3259
-39.2154
-39.5466
-39.2085
-39.2212
-39.4313
-40.0949
-40.7193
-41.1114
-41.7838
-42.4885
-43.1585
-43.9797
-44.9305
-45.4677
-45.6287
-45.7587
-45.6898
-45.5662
-45.5985
-45.8826
-46.3285
-46.8467
-47.2969
-47.7626
-48.3518
-48.5967
-48.7647
-8.43312
-9.85309
-5.99128
4.27857
4.21283
-10.4724
-16.6534
-18.4453
-13.5533
-12.3062
-16.2049
-20.8466
-13.5243
-15.5782
-16.7013
-19.2549
-21.9152
-22.766
-24.7047
-26.4268
-26.3955
-26.5559
-28.7296
-29.4125
-28.8617
-28.0475
-27.6024
-27.6573
-29.8741
-31.4444
-32.2009
-31.4333
-30.45
-29.7614
-29.2066
-28.7494
-28.4651
-28.4286
-28.6133
-29.4487
-30.5131
-30.8802
-30.9988
-31.4181
-31.8773
-32.2094
-32.2819
-32.3889
-32.6161
-33.0664
-33.5651
-33.9262
-34.2351
-35.2444
-36.8481
-37.5671
-38.3531
-38.293
-38.7572
-38.5497
-38.1921
-37.6781
-37.4952
-37.3963
-38.1126
-39.494
-39.9758
-39.7564
-39.6578
-39.7448
-39.7215
-39.7234
-39.7709
-39.7873
-39.699
-39.8434
-40.5173
-41.3971
-42.2082
-42.3045
-42.1903
-42.1255
-42.4166
-43.1436
-43.7401
-44.3605
-44.848
-45.3307
-46.071
-46.7684
-47.0859
-47.0738
-47.2214
-47.5179
-47.7284
-47.8511
-48.1658
-48.6859
-49.0555
-49.3906
-49.6076
-49.8655
-50.2542
-50.4759
-24.8348
-20.6689
-15.1486
-11.5155
-16.3216
-22.9279
-27.8119
-26.6004
-23.8973
-23.3928
-24.8592
-26.9594
-26.1787
-26.9934
-27.5953
-27.5296
-27.8558
-29.1703
-30.8711
-32.8598
-32.0736
-32.2449
-33.1472
-33.4659
-33.2966
-33.0002
-33.1149
-33.8921
-34.4388
-34.9615
-34.9977
-34.3105
-33.3587
-32.5105
-31.9283
-31.4957
-31.2472
-31.3172
-31.6071
-32.0857
-32.8394
-33.5047
-34.0389
-34.5061
-34.9011
-35.2355
-35.5351
-35.7144
-35.7456
-35.9496
-36.4523
-36.8145
-37.1912
-38.0738
-39.1757
-40.0764
-40.7465
-41.3574
-41.3968
-41.0026
-40.6031
-40.1885
-39.8229
-39.8976
-40.3917
-41.3331
-42.28
-42.324
-42.2508
-42.2161
-42.2106
-42.2071
-42.3076
-42.3997
-42.5009
-42.5892
-43.3035
-44.4738
-44.7411
-45.1496
-45.275
-44.993
-45.2183
-45.6341
-46.2533
-46.8536
-47.3347
-47.752
-48.2457
-48.8195
-49.2025
-49.3375
-49.4682
-49.8147
-50.084
-50.304
-50.594
-51.1146
-51.6202
-52.0051
-52.2904
-52.7022
-53.036
-53.2349
-25.6326
-23.9569
-22.4068
-20.5188
-24.1445
-27.4262
-30.1054
-31.3193
-31.2232
-31.4298
-33.0463
-32.2944
-29.7211
-28.0442
-27.5927
-28.2341
-30.0937
-31.3597
-32.4805
-33.7439
-34.4914
-34.8636
-35.4339
-35.3654
-34.8068
-34.3191
-34.2431
-34.5734
-35.8104
-36.9626
-37.354
-36.9825
-36.0918
-35.2717
-34.639
-34.1116
-33.9858
-34.0244
-34.2265
-34.6414
-35.2522
-35.7882
-36.151
-36.5058
-36.8366
-37.0488
-37.3412
-37.6194
-37.9603
-38.408
-38.9599
-39.5749
-40.1267
-40.8485
-41.8992
-42.7951
-43.4891
-43.8416
-43.8796
-43.608
-43.1984
-42.847
-42.5219
-42.5501
-42.9946
-43.6045
-44.054
-44.2087
-44.3053
-44.3956
-44.462
-44.5422
-44.628
-44.7366
-44.9175
-45.2202
-45.9096
-46.9057
-47.5082
-47.5908
-47.3959
-47.7543
-48.0571
-48.3113
-48.7699
-49.3071
-49.7767
-50.1864
-50.6172
-51.0504
-51.4063
-51.4449
-51.5926
-51.7953
-52.1716
-52.5128
-52.8082
-53.2661
-53.6544
-53.9354
-54.1708
-54.507
-54.8452
-55.1298
-29.9896
-28.2567
-26.7934
-26.6791
-28.543
-30.7932
-32.3791
-33.2835
-33.0673
-32.7835
-33.7837
-34.3998
-34.5954
-34.617
-34.7458
-34.9392
-34.9672
-35.5337
-36.9485
-38.2732
-38.5586
-38.6767
-38.6425
-38.6482
-38.356
-38.054
-38.1964
-38.8648
-39.7595
-40.9471
-40.8364
-39.9179
-38.874
-37.9674
-37.2718
-36.8423
-36.703
-36.8225
-37.0528
-37.4001
-37.8703
-38.3385
-38.7757
-39.2181
-39.5854
-39.9311
-40.3586
-40.7308
-41.1088
-41.5041
-42.1032
-42.6746
-43.0387
-43.5165
-44.4447
-45.4183
-46.2007
-46.7409
-46.6371
-46.1564
-45.6532
-45.2485
-44.8912
-45.0192
-45.4197
-45.8418
-46.2791
-46.5476
-46.71
-46.8218
-46.9342
-47.04
-47.15
-47.3197
-47.5542
-47.8657
-48.4244
-49.2144
-49.8258
-50.2394
-50.5595
-50.4464
-50.4627
-50.856
-51.2831
-51.7838
-52.216
-52.5728
-52.8979
-53.2212
-53.6221
-53.7195
-53.8486
-54.1577
-54.5051
-54.904
-55.2269
-55.6084
-56.0674
-56.4319
-56.7012
-57.1253
-57.499
-57.7673
-30.6222
-30.1236
-29.863
-30.4937
-31.7525
-33.1305
-34.1738
-34.8033
-35.031
-35.3693
-35.8407
-35.9535
-35.5397
-34.9758
-34.979
-35.4501
-36.2949
-37.1991
-38.1127
-38.9254
-39.6038
-40.1941
-40.7756
-40.8241
-40.186
-39.7874
-39.9054
-40.7408
-41.8281
-42.5745
-43.0479
-42.1786
-41.3382
-40.4711
-39.8156
-39.47
-39.3508
-39.4735
-39.6851
-39.9897
-40.4037
-40.8322
-41.2375
-41.6157
-41.911
-42.2309
-42.6228
-43.0924
-43.5811
-44.0935
-44.6369
-45.2442
-45.785
-46.266
-47.0198
-47.8672
-48.5075
-48.8885
-48.7526
-48.3707
-47.8998
-47.5582
-47.4191
-47.5349
-47.8103
-48.1493
-48.4777
-48.7257
-48.8935
-49.0384
-49.1911
-49.3205
-49.4931
-49.6796
-49.8868
-50.2352
-50.7251
-51.3224
-51.9144
-52.2991
-52.5761
-52.8536
-53.1331
-53.318
-53.6414
-54.1707
-54.617
-54.9262
-55.1672
-55.488
-55.8506
-56.0168
-56.1178
-56.4408
-56.6816
-57.074
-57.4809
-57.84
-58.1844
-58.442
-58.6874
-59.0065
-59.3577
-59.7182
-34.1045
-34.073
-33.8356
-34.4649
-35.3264
-35.8771
-36.4836
-36.8815
-37.1788
-37.5244
-37.9164
-38.3174
-38.7613
-39.1175
-39.5208
-40.0021
-40.4333
-41.0109
-41.848
-42.6403
-43.2598
-43.6689
-43.8168
-43.7208
-43.559
-43.5115
-43.622
-44.3012
-45.2477
-45.7374
-45.6906
-44.9291
-43.7425
-42.7987
-42.2791
-42.0439
-42.0151
-42.1253
-42.392
-42.6778
-42.9997
-43.3717
-43.7698
-44.1431
-44.5494
-45.0036
-45.5318
-46.0743
-46.5695
-47.0872
-47.661
-48.1554
-48.7027
-49.2351
-49.6871
-50.2376
-50.7977
-51.1187
-51.0265
-50.6077
-50.1158
-49.8608
-49.8213
-49.9367
-50.1596
-50.4737
-50.7581
-51.003
-51.2083
-51.3905
-51.5643
-51.7317
-51.9185
-52.1359
-52.3875
-52.6949
-53.1484
-53.7133
-54.1963
-54.6387
-55.078
-55.3538
-55.6144
-56.0125
-56.2373
-56.6465
-57.1274
-57.3992
-57.4454
-57.6739
-57.9836
-58.3512
-58.4595
-58.814
-59.0646
-59.3996
-59.8206
-60.1665
-60.4905
-60.8341
-61.1202
-61.5053
-61.9579
-62.267
-36.5396
-36.2368
-36.3055
-36.8775
-37.5842
-38.1033
-38.5406
-38.9269
-39.3433
-39.639
-39.9787
-40.3912
-40.7176
-40.9819
-41.3026
-41.6749
-42.1618
-42.8584
-43.6129
-44.2627
-44.8124
-45.2779
-45.6551
-45.7606
-45.6516
-45.5806
-45.8076
-46.4186
-47.0407
-47.4083
-47.2403
-46.6766
-45.7803
-45.0911
-44.6952
-44.5604
-44.5906
-44.7412
-44.9757
-45.2579
-45.5657
-45.9324
-46.3152
-46.7006
-47.1244
-47.6583
-48.2204
-48.74
-49.2749
-49.8832
-50.4945
-50.8803
-51.2059
-51.6584
-52.0123
-52.4049
-52.7749
-52.7934
-52.673
-52.4763
-52.2592
-52.1413
-52.129
-52.2533
-52.4907
-52.7664
-53.0353
-53.2768
-53.4786
-53.6733
-53.8666
-54.052
-54.2596
-54.4851
-54.722
-55.0419
-55.4919
-56.0031
-56.4689
-56.9359
-57.3829
-57.716
-57.9702
-58.3478
-58.7873
-59.162
-59.5094
-59.6214
-59.6434
-59.8029
-60.1455
-60.66
-60.7497
-61.104
-61.4388
-61.7201
-62.0821
-62.4186
-62.723
-63.0093
-63.302
-63.6367
-63.9415
-64.3363
-39.334
-39.1359
-39.3317
-39.7797
-40.1815
-40.5414
-40.8456
-41.2247
-41.6315
-42.0447
-42.473
-42.9009
-43.3769
-43.9115
-44.4819
-45.0522
-45.6603
-46.3632
-46.9814
-47.6058
-48.1835
-48.6869
-49.0465
-49.2389
-49.1694
-49.1201
-49.2297
-49.3564
-49.6119
-49.7632
-49.3056
-48.5392
-47.9006
-47.3768
-47.1143
-47.097
-47.1602
-47.3003
-47.5231
-47.7923
-48.1222
-48.4898
-48.8773
-49.2904
-49.7996
-50.4294
-51.0151
-51.5629
-52.2189
-52.9271
-53.4541
-53.8509
-54.1315
-54.3726
-54.5728
-54.7404
-54.83
-54.7829
-54.8063
-54.5993
-54.398
-54.3626
-54.4321
-54.601
-54.8285
-55.0808
-55.3365
-55.5781
-55.8012
-56.0223
-56.2409
-56.4572
-56.6886
-56.9391
-57.2074
-57.5414
-57.9804
-58.4404
-58.8763
-59.3489
-59.8596
-60.2426
-60.5743
-60.8788
-61.3295
-61.6893
-61.9157
-62.0282
-62.032
-62.1043
-62.4486
-62.8958
-63.0731
-63.2963
-63.844
-64.0738
-64.3898
-64.7111
-65.0254
-65.3304
-65.652
-66.0214
-66.4722
-66.9683
-42.0759
-41.8409
-41.9759
-42.3526
-42.6934
-43.0125
-43.3249
-43.7034
-44.0884
-44.4546
-44.8433
-45.2794
-45.7473
-46.2345
-46.7413
-47.2693
-47.8552
-48.51
-49.2003
-49.84
-50.5285
-51.0719
-51.3875
-51.5403
-51.56
-51.5192
-51.4015
-51.3126
-51.3944
-51.2221
-50.7725
-50.3952
-49.9651
-49.6224
-49.4988
-49.512
-49.6222
-49.8058
-50.047
-50.3287
-50.6525
-51.0337
-51.4349
-51.8804
-52.4495
-53.0886
-53.6632
-54.2848
-55.0889
-55.8529
-56.3253
-56.6466
-56.8614
-56.9391
-56.9351
-56.9038
-56.8411
-56.8
-56.6913
-56.5172
-56.5028
-56.5529
-56.7068
-56.9217
-57.1609
-57.41
-57.6545
-57.8988
-58.1386
-58.3659
-58.5818
-58.7934
-59.0299
-59.2866
-59.5635
-59.9116
-60.3507
-60.8045
-61.2678
-61.8334
-62.3436
-62.7329
-63.1417
-63.485
-63.7556
-64.1658
-64.3355
-64.3676
-64.3185
-64.3595
-64.6776
-65.0105
-65.468
-65.5698
-66.1181
-66.4069
-66.7015
-67.0078
-67.3059
-67.6256
-67.9411
-68.3041
-68.6916
-69.1655
-44.9232
-44.6188
-44.7434
-45.0473
-45.3179
-45.5984
-45.9046
-46.2202
-46.5425
-46.8967
-47.2982
-47.7467
-48.2462
-48.7869
-49.3684
-49.9789
-50.63
-51.3355
-52.0411
-52.7348
-53.4604
-54.1144
-54.5046
-54.6485
-54.6069
-54.623
-54.489
-54.2276
-53.9895
-53.6176
-53.1293
-52.6671
-52.2857
-52.0362
-51.9445
-52.0055
-52.1539
-52.3348
-52.5602
-52.8561
-53.1811
-53.5758
-54.0017
-54.4783
-55.0904
-55.741
-56.3527
-57.0947
-58.0152
-58.7214
-59.1263
-59.4699
-59.6102
-59.543
-59.3749
-59.1697
-59.0167
-58.9101
-58.7693
-58.727
-58.7379
-58.7964
-58.9886
-59.2207
-59.4648
-59.7202
-59.9729
-60.2297
-60.4777
-60.7241
-60.9696
-61.2359
-61.5052
-61.7922
-62.1133
-62.4787
-62.8871
-63.3241
-63.8643
-64.4459
-64.9556
-65.3793
-65.8019
-66.1728
-66.251
-66.7372
-66.904
-66.8489
-66.7984
-66.8202
-67.0429
-67.3641
-67.8264
-67.8731