/*--------------------------------*- C++ -*----------------------------------*\
| =========                 |                                                 |
| \\      /  F ield         | OpenFOAM: The Open Source CFD Toolbox           |
|  \\    /   O peration     | Version:  v1912                                 |
|   \\  /    A nd           | Website:  www.openfoam.com                      |
|    \\/     M anipulation  |                                                 |
\*---------------------------------------------------------------------------*/
FoamFile
{
    version     2.0;
    format      ascii;
    class       volScalarField;
    location    "20";
    object      p_rgh;
}
// * * * * * * * * * * * * * * * * * * * * * * * * * * * * * * * * * * * * * //

dimensions      [1 -1 -2 0 0 0 0];


internalField   nonuniform List<scalar> 
14268
(
-235.341
-233.244
-230.807
-228.057
-225.018
-221.715
-218.173
-214.412
-210.456
-206.325
-202.039
-197.617
-193.077
-188.437
-183.713
-178.921
-174.077
-169.193
-164.284
-159.363
-154.441
-149.53
-144.641
-139.783
-134.967
-130.2
-125.492
-120.85
-116.281
-111.792
-107.39
-103.079
-98.8649
-94.7527
-90.7463
-86.8495
-83.0653
-79.3966
-75.8454
-72.4134
-69.1017
-65.9108
-62.8407
-59.8909
-57.0602
-54.3469
-51.7486
-49.2624
-46.885
-44.6122
-42.4396
-40.3621
-38.3743
-36.4704
-34.6444
-32.89
-31.2008
-29.5708
-27.9936
-26.4637
-24.9756
-23.5247
-22.1068
-20.7189
-19.3587
-18.0249
-16.7175
-15.4374
-14.1867
-12.9687
-11.7872
-10.6472
-9.55392
-8.51319
-7.53091
-6.6127
-5.76352
-4.98734
-4.28686
-3.66332
-3.11637
-2.64401
-2.24255
-1.90702
-1.63113
-1.40735
-1.22713
-1.08116
-0.959777
-0.853259
-0.752092
-0.647248
-0.530491
-0.394737
-0.234485
-0.0463212
0.17053
0.413665
0.677928
0.955384
1.23472
1.50285
1.74618
1.95234
2.11215
2.22055
2.2773
2.28694
2.25704
2.19951
2.12882
2.06028
2.0065
1.97804
1.9795
2.01047
2.06505
2.1358
2.20589
2.26703
2.30598
2.32175
2.31146
2.28502
2.23992
2.2039
2.15187
2.12595
2.06665
2.0269
1.92766
1.83353
1.66139
1.4735
-235.38
-233.268
-230.816
-228.053
-225.002
-221.688
-218.135
-214.366
-210.401
-206.262
-201.97
-197.541
-192.996
-188.352
-183.624
-178.829
-173.981
-169.095
-164.185
-159.262
-154.339
-149.428
-144.538
-139.681
-134.865
-130.099
-125.392
-120.751
-116.184
-111.697
-107.296
-102.987
-98.7752
-94.6653
-90.6614
-86.7671
-82.9856
-79.3196
-75.7712
-72.342
-69.0331
-65.8451
-62.7779
-59.831
-57.0032
-54.2927
-51.6972
-49.2139
-46.8391
-44.569
-42.3989
-40.3239
-38.3385
-36.4368
-34.6129
-32.8604
-31.1731
-29.5447
-27.9691
-26.4405
-24.9536
-23.5038
-22.0869
-20.6998
-19.3403
-18.0071
-16.7003
-15.4207
-14.1705
-12.9529
-11.7719
-10.6324
-9.53963
-8.49949
-7.51787
-6.6004
-5.75205
-4.97676
-4.27723
-3.6547
-3.10879
-2.63747
-2.23703
-1.90248
-1.62751
-1.40457
-1.22508
-1.07974
-0.958876
-0.852764
-0.75189
-0.647231
-0.530562
-0.394806
-0.234474
-0.0461752
0.17084
0.414153
0.678572
0.956216
1.23594
1.5043
1.74757
1.95356
2.11309
2.22115
2.27752
2.2868
2.25657
2.19877
2.12791
2.05929
2.0055
1.9771
1.97864
2.00972
2.06441
2.13525
2.20544
2.26662
2.30553
2.32124
2.31087
2.28438
2.23927
2.20325
2.15126
2.12538
2.06611
2.02641
1.9272
1.83312
1.66103
1.47321
-235.501
-233.366
-230.894
-228.11
-225.041
-221.71
-218.142
-214.358
-210.38
-206.229
-201.925
-197.487
-192.934
-188.281
-183.546
-178.745
-173.891
-169.001
-164.086
-159.16
-154.234
-149.321
-144.429
-139.571
-134.754
-129.988
-125.281
-120.64
-116.074
-111.587
-107.188
-102.881
-98.6709
-94.563
-90.5613
-86.6695
-82.8906
-79.2273
-75.6817
-72.2555
-68.9498
-65.7649
-62.701
-59.7574
-56.9329
-54.2258
-51.6337
-49.1537
-46.7823
-44.5155
-42.3486
-40.2767
-38.2943
-36.3956
-34.5744
-32.8245
-31.1396
-29.5134
-27.9399
-26.4131
-24.9279
-23.4794
-22.0637
-20.6776
-19.3189
-17.9865
-16.6801
-15.4009
-14.1511
-12.9337
-11.753
-10.6138
-9.52135
-8.48162
-7.50053
-6.58372
-5.73616
-4.96181
-4.26334
-3.64198
-3.09729
-2.62724
-2.22809
-1.89481
-1.62106
-1.39926
-1.22081
-1.07639
-0.956303
-0.850815
-0.750414
-0.646072
-0.529563
-0.393811
-0.233332
-0.0447371
0.172715
0.416557
0.681581
0.959686
1.23925
1.50746
1.75077
1.95663
2.11588
2.22356
2.27949
2.2883
2.25765
2.19951
2.12842
2.0597
2.00595
1.97771
1.97951
2.01086
2.06579
2.13675
2.20686
2.2679
2.3067
2.32227
2.3118
2.28521
2.24004
2.20398
2.15196
2.12604
2.06671
2.0269
1.92755
1.83332
1.66107
1.47315
-235.707
-233.542
-231.041
-228.231
-225.137
-221.784
-218.194
-214.391
-210.395
-206.228
-201.909
-197.457
-192.89
-188.226
-183.481
-178.67
-173.809
-168.911
-163.99
-159.059
-154.128
-149.211
-144.316
-139.455
-134.636
-129.868
-125.16
-120.519
-115.953
-111.467
-107.068
-102.762
-98.5537
-94.4476
-90.448
-86.5584
-82.7821
-79.1215
-75.579
-72.1559
-68.8535
-65.6721
-62.6118
-59.6719
-56.8512
-54.1479
-51.5598
-49.0837
-46.7163
-44.4534
-42.2905
-40.2224
-38.2438
-36.3486
-34.5309
-32.7843
-31.1025
-29.4792
-27.9082
-26.3838
-24.9006
-23.4539
-22.0397
-20.6549
-19.2972
-17.9654
-16.6596
-15.3808
-14.1311
-12.9139
-11.7333
-10.594
-9.50169
-8.46213
-7.48134
-6.565
-5.7181
-4.9446
-4.24719
-3.62706
-3.0838
-2.61527
-2.21772
-1.88607
-1.61392
-1.39366
-1.21664
-1.07352
-0.954582
-0.85008
-0.750482
-0.64676
-0.530687
-0.395185
-0.234777
-0.0460946
0.171562
0.415703
0.681051
0.959673
1.24048
1.50963
1.75322
1.9591
2.11815
2.22542
2.28079
2.28897
2.25767
2.19894
2.12739
2.05835
2.00442
1.97612
1.97796
2.00942
2.06451
2.1357
2.20612
2.26738
2.30619
2.3217
2.31111
2.28443
2.2392
2.20314
2.15116
2.12531
2.06605
2.02633
1.92707
1.83295
1.66079
1.47294
-235.995
-233.792
-231.256
-228.413
-225.289
-221.907
-218.29
-214.462
-210.444
-206.256
-201.917
-197.448
-192.865
-188.186
-183.427
-178.605
-173.733
-168.825
-163.896
-158.956
-154.02
-149.096
-144.197
-139.332
-134.509
-129.739
-125.029
-120.387
-115.82
-111.334
-106.935
-102.63
-98.4223
-94.3177
-90.3199
-86.4325
-82.6587
-79.0009
-75.4614
-72.0417
-68.7428
-65.5652
-62.5088
-59.5731
-56.7566
-54.0578
-51.4741
-49.0026
-46.6398
-44.3815
-42.2232
-40.1597
-38.1854
-36.2946
-34.481
-32.7383
-31.0602
-29.4402
-27.8724
-26.3507
-24.87
-23.4254
-22.013
-20.6295
-19.2728
-17.9418
-16.6365
-15.3579
-14.1083
-12.891
-11.7102
-10.5708
-9.47829
-8.43873
-7.45813
-6.5422
-5.69597
-4.92342
-4.22722
-3.60853
-3.06687
-2.6001
-2.20441
-1.87466
-1.60441
-1.38599
-1.2107
-1.06916
-0.951602
-0.848268
-0.749618
-0.646604
-0.530981
-0.395665
-0.235166
-0.0461048
0.172229
0.417291
0.683784
0.963391
1.24408
1.51323
1.75715
1.96307
2.12188
2.22868
2.28343
2.2909
2.25887
2.19953
2.12751
2.05819
2.00422
1.9761
1.97831
2.01023
2.06576
2.13721
2.20758
2.26866
2.30734
2.3227
2.31197
2.28516
2.23985
2.20376
2.15179
2.12593
2.06663
2.02683
1.92745
1.83319
1.66088
1.47295
-236.364
-234.117
-231.539
-228.657
-225.496
-222.079
-218.431
-214.573
-210.527
-206.313
-201.951
-197.46
-192.858
-188.161
-183.386
-178.548
-173.663
-168.743
-163.803
-158.854
-153.909
-148.978
-144.072
-139.202
-134.375
-129.601
-124.888
-120.244
-115.675
-111.188
-106.789
-102.484
-98.2773
-94.1739
-90.1778
-86.2925
-82.5211
-78.8662
-75.3299
-71.9136
-68.6185
-65.445
-62.3929
-59.4617
-56.65
-53.9561
-51.3775
-48.9111
-46.5536
-44.3006
-42.1475
-40.0892
-38.1201
-36.2342
-34.4255
-32.6874
-31.0136
-29.3977
-27.8334
-26.3151
-24.8372
-23.3951
-21.9847
-20.6029
-19.2474
-17.9173
-16.6124
-15.334
-14.0843
-12.8668
-11.6856
-10.5458
-9.45296
-8.41316
-7.4325
-6.51679
-5.67109
-4.89938
-4.20435
-3.58715
-3.04729
-2.58255
-2.18903
-1.86154
-1.59358
-1.37738
-1.2042
-1.0646
-0.948808
-0.847013
-0.749649
-0.647657
-0.532786
-0.397935
-0.237616
-0.0484671
0.170163
0.415681
0.682678
0.963082
1.24576
1.5164
1.7609
1.96703
2.1257
2.23203
2.28605
2.29263
2.25967
2.19944
2.12669
2.05686
2.00255
1.97431
1.97654
2.0086
2.06434
2.13612
2.20695
2.26837
2.30711
2.32238
2.31148
2.28453
2.23911
2.20298
2.15101
2.12523
2.06599
2.02629
1.92698
1.83281
1.66058
1.47272
-236.815
-234.516
-231.889
-228.961
-225.757
-222.301
-218.615
-214.722
-210.644
-206.4
-202.011
-197.494
-192.868
-188.15
-183.355
-178.5
-173.598
-168.664
-163.711
-158.75
-153.795
-148.855
-143.942
-139.064
-134.232
-129.453
-124.737
-120.089
-115.518
-111.029
-106.63
-102.324
-98.1182
-94.0158
-90.0211
-86.1378
-82.3688
-78.7168
-75.1837
-71.7712
-68.4801
-65.311
-62.2636
-59.3373
-56.5308
-53.8423
-51.2693
-48.8088
-46.4571
-44.2101
-42.063
-40.0106
-38.0474
-36.1672
-34.364
-32.6311
-30.9623
-29.3509
-27.7909
-26.2763
-24.8017
-23.3624
-21.9542
-20.5742
-19.22
-17.8907
-16.5862
-15.3078
-14.0579
-12.8399
-11.6581
-10.5177
-9.42422
-8.38397
-7.40314
-6.48757
-5.6424
-4.87164
-4.17795
-3.56247
-3.02461
-2.56212
-2.17105
-1.84612
-1.58075
-1.36711
-1.19636
-1.05901
-0.945226
-0.845165
-0.749242
-0.64837
-0.534264
-0.399806
-0.239479
-0.049898
0.169616
0.416423
0.685108
0.967067
1.24975
1.52071
1.76585
1.9722
2.13065
2.23642
2.28961
2.29521
2.26122
2.20007
2.12658
2.05625
2.00181
1.97373
1.97641
2.00908
2.06548
2.13769
2.20852
2.26975
2.30836
2.32345
2.31237
2.28525
2.23973
2.20357
2.15163
2.12586
2.06661
2.02684
1.92742
1.83312
1.66074
1.47279
-237.346
-234.988
-232.305
-229.325
-226.072
-222.57
-218.841
-214.909
-210.794
-206.516
-202.094
-197.549
-192.896
-188.153
-183.336
-178.46
-173.539
-168.588
-163.62
-158.646
-153.678
-148.728
-143.805
-138.92
-134.08
-129.296
-124.574
-119.923
-115.349
-110.858
-106.457
-102.151
-97.9452
-93.8434
-89.8501
-85.9686
-82.202
-78.5529
-75.0233
-71.6146
-68.3278
-65.1634
-62.121
-59.2002
-56.3994
-53.7168
-51.15
-48.6959
-46.3507
-44.1103
-41.9699
-39.9241
-37.9674
-36.0937
-34.2967
-32.5698
-30.9065
-29.3003
-27.745
-26.2346
-24.7638
-23.3276
-21.922
-20.5439
-19.1912
-17.8627
-16.5587
-15.2803
-14.0301
-12.8114
-11.6289
-10.4875
-9.39325
-8.35234
-7.37112
-6.45552
-5.61075
-4.84083
-4.14846
-3.53474
-2.99908
-2.53912
-2.15082
-1.8288
-1.5664
-1.35567
-1.18772
-1.05297
-0.941543
-0.843564
-0.749399
-0.649937
-0.536877
-0.403076
-0.243009
-0.0533081
0.166635
0.414095
0.683474
0.96649
1.25186
1.52473
1.77076
1.97749
2.13588
2.2411
2.29339
2.29786
2.26264
2.20031
2.12585
2.05483
1.99992
1.97168
1.9744
2.00726
2.06389
2.13651
2.20794
2.26963
2.30832
2.3233
2.31201
2.2847
2.23902
2.2028
2.15085
2.12515
2.06596
2.0263
1.92694
1.83274
1.66042
1.47254
-237.957
-235.532
-232.787
-229.749
-226.441
-222.887
-219.11
-215.133
-210.976
-206.659
-202.202
-197.623
-192.94
-188.169
-183.326
-178.427
-173.486
-168.515
-163.53
-158.54
-153.559
-148.596
-143.663
-138.768
-133.92
-129.129
-124.402
-119.746
-115.168
-110.674
-106.272
-101.964
-97.758
-93.6566
-89.6644
-85.7847
-82.0206
-78.3745
-74.8484
-71.4437
-68.1615
-65.002
-61.9651
-59.05
-56.2554
-53.5794
-51.0193
-48.5722
-46.2342
-44.0011
-41.868
-39.8297
-37.8802
-36.0137
-34.2235
-32.5032
-30.8461
-29.2458
-27.6957
-26.1901
-24.7233
-23.2906
-21.8878
-20.5119
-19.1607
-17.8331
-16.5294
-15.2509
-14.0001
-12.7806
-11.5969
-10.4544
-9.35908
-8.31728
-7.33549
-6.41976
-5.57536
-4.80638
-4.1155
-3.50376
-2.9705
-2.51331
-2.12806
-1.80927
-1.55016
-1.34271
-1.17789
-1.04606
-0.937279
-0.841605
-0.749383
-0.651461
-0.539495
-0.406311
-0.246343
-0.0561834
0.164819
0.413909
0.685524
0.970692
1.25624
1.52986
1.77686
1.98398
2.14217
2.24673
2.29799
2.30119
2.26463
2.20107
2.12559
2.05385
1.99867
1.97055
1.97378
2.00741
2.06493
2.13816
2.20966
2.27117
2.30973
2.3245
2.31298
2.28545
2.23964
2.20338
2.15148
2.12583
2.06664
2.02693
1.92745
1.83312
1.66064
1.47265
-238.646
-236.148
-233.335
-230.231
-226.862
-223.251
-219.421
-215.394
-211.19
-206.831
-202.334
-197.718
-193.001
-188.199
-183.328
-178.402
-173.437
-168.445
-163.44
-158.433
-153.436
-148.459
-143.514
-138.608
-133.751
-128.952
-124.218
-119.556
-114.974
-110.478
-106.072
-101.764
-97.5566
-93.4554
-89.4642
-85.5862
-81.8244
-78.1814
-74.6589
-71.2585
-67.9811
-64.8269
-61.7958
-58.887
-56.099
-53.43
-50.8773
-48.4378
-46.1076
-43.8825
-41.7575
-39.7272
-37.7858
-35.9271
-34.1446
-32.4315
-30.7813
-29.1873
-27.6431
-26.1427
-24.6804
-23.2515
-21.8518
-20.4783
-19.1287
-17.8021
-16.4987
-15.22
-13.9684
-12.7479
-11.563
-10.4191
-9.32246
-8.27955
-7.297
-6.381
-5.53688
-4.76876
-4.07934
-3.46966
-2.93902
-2.48488
-2.103
-1.78779
-1.53235
-1.32852
-1.16719
-1.03863
-0.932822
-0.839779
-0.749788
-0.653665
-0.543036
-0.41069
-0.251043
-0.0606978
0.160914
0.41091
0.683436
0.969938
1.25883
1.53473
1.7829
1.99058
2.14876
2.2527
2.30287
2.30468
2.26659
2.20157
2.12487
2.05225
1.99651
1.9682
1.97152
2.00539
2.06317
2.13689
2.20913
2.27118
2.30984
2.32449
2.31272
2.28495
2.23894
2.20261
2.15067
2.1251
2.06598
2.02638
1.92697
1.83272
1.66031
1.47238
-239.414
-236.835
-233.946
-230.771
-227.334
-223.661
-219.772
-215.69
-211.436
-207.029
-202.489
-197.832
-193.078
-188.241
-183.338
-178.384
-173.392
-168.377
-163.35
-158.324
-153.309
-148.317
-143.358
-138.44
-133.573
-128.765
-124.023
-119.355
-114.768
-110.268
-105.859
-101.549
-97.3408
-93.2397
-89.2492
-85.3728
-81.6135
-77.9735
-74.4548
-71.0589
-67.7865
-64.6379
-61.613
-58.7109
-55.9301
-53.2686
-50.7239
-48.2926
-45.971
-43.7545
-41.6383
-39.6169
-37.6842
-35.834
-34.0598
-32.3548
-30.7121
-29.1251
-27.5872
-26.0924
-24.6351
-23.2104
-21.814
-20.443
-19.0951
-17.7695
-16.4664
-15.1873
-13.9349
-12.7131
-11.5266
-10.3811
-9.2828
-8.23853
-7.25502
-6.33859
-5.49469
-4.72749
-4.03969
-3.43228
-2.90446
-2.45362
-2.07541
-1.76411
-1.51267
-1.31284
-1.15536
-1.0304
-0.927858
-0.83769
-0.750141
-0.655976
-0.54677
-0.415267
-0.255833
-0.0650198
0.157794
0.409724
0.68502
0.974244
1.26357
1.54072
1.79021
1.99845
2.15646
2.25963
2.30856
2.30883
2.26908
2.20251
2.1245
2.05095
1.99479
1.96656
1.97043
2.00521
2.06412
2.13863
2.21099
2.27289
2.31142
2.32584
2.31378
2.28576
2.23958
2.2032
2.15132
2.12582
2.06671
2.02707
1.92754
1.83317
1.66058
1.47254
-240.258
-237.592
-234.62
-231.367
-227.858
-224.116
-220.164
-216.023
-211.713
-207.254
-202.666
-197.965
-193.17
-188.296
-183.358
-178.373
-173.352
-168.31
-163.26
-158.212
-153.179
-148.17
-143.195
-138.264
-133.386
-128.567
-123.817
-119.142
-114.549
-110.044
-105.633
-101.32
-97.1107
-93.0092
-89.0194
-85.1446
-81.3876
-77.7507
-74.236
-70.8447
-67.5776
-64.4351
-61.4167
-58.5217
-55.7486
-53.0952
-50.559
-48.1366
-45.8242
-43.6171
-41.5104
-39.4985
-37.5753
-35.7345
-33.9693
-32.2729
-30.6384
-29.059
-27.5281
-26.0395
-24.5875
-23.1673
-21.7745
-20.4062
-19.0602
-17.7355
-16.4326
-15.153
-13.8996
-12.6763
-11.488
-10.3406
-9.2405
-8.19465
-7.20999
-6.29301
-5.44925
-4.68294
-3.99677
-3.39173
-2.86695
-2.4197
-2.04548
-1.73845
-1.4914
-1.29592
-1.14265
-1.02163
-0.922688
-0.835711
-0.750878
-0.658911
-0.551343
-0.420867
-0.261815
-0.0707408
0.152898
0.406044
0.682514
0.97345
1.26667
1.54641
1.79739
2.00637
2.16442
2.26688
2.31453
2.31312
2.27155
2.20321
2.12373
2.04912
1.9923
1.96387
1.96788
2.00299
2.06218
2.1373
2.21052
2.27305
2.31169
2.32597
2.31361
2.28531
2.23889
2.20242
2.1505
2.12508
2.06604
2.02652
1.92706
1.83277
1.66023
1.47226
-241.178
-238.418
-235.357
-232.02
-228.432
-224.617
-220.595
-216.389
-212.019
-207.505
-202.865
-198.117
-193.277
-188.362
-183.387
-178.367
-173.316
-168.245
-163.169
-158.098
-153.044
-148.016
-143.025
-138.08
-133.189
-128.359
-123.6
-118.917
-114.318
-109.808
-105.392
-101.077
-96.8659
-92.764
-88.7747
-84.9013
-81.1467
-77.5131
-74.0024
-70.6159
-67.3545
-64.2182
-61.2068
-58.3194
-55.5544
-52.9097
-50.3827
-47.9698
-45.6672
-43.4703
-41.3738
-39.3722
-37.4593
-35.6285
-33.8731
-32.186
-30.5604
-28.9892
-27.4657
-25.9838
-24.5376
-23.1222
-21.7334
-20.3679
-19.0238
-17.7001
-16.3974
-15.1172
-13.8625
-12.6375
-11.4472
-10.2975
-9.19528
-8.14756
-7.16153
-6.24383
-5.40013
-4.63472
-3.95032
-3.34784
-2.82632
-2.38292
-2.01301
-1.71058
-1.46828
-1.27753
-1.12882
-1.01209
-0.917046
-0.833515
-0.751621
-0.662027
-0.556205
-0.426793
-0.26806
-0.076504
0.148473
0.40384
0.683594
0.977716
1.27184
1.5534
1.80601
2.01568
2.17358
2.27516
2.32135
2.31811
2.27455
2.20435
2.12328
2.04752
1.99015
1.96174
1.96634
2.0025
2.06306
2.13907
2.2125
2.27491
2.31344
2.32745
2.31476
2.28616
2.23954
2.20301
2.15115
2.12583
2.06682
2.02729
1.9277
1.83328
1.66056
1.47246
-242.174
-239.312
-236.155
-232.728
-229.056
-225.161
-221.065
-216.79
-212.355
-207.781
-203.085
-198.285
-193.398
-188.44
-183.424
-178.367
-173.282
-168.181
-163.077
-157.982
-152.905
-147.857
-142.848
-137.887
-132.982
-128.141
-123.371
-118.68
-114.073
-109.557
-105.138
-100.819
-96.6065
-92.5038
-88.5149
-84.6429
-80.8906
-77.2604
-73.7539
-70.3725
-67.1169
-63.9873
-60.9832
-58.1038
-55.3475
-52.7121
-50.1948
-47.7921
-45.5001
-43.314
-41.2285
-39.2379
-37.336
-35.516
-33.7711
-32.0941
-30.478
-28.9156
-27.4003
-25.9255
-24.4855
-23.0753
-21.6906
-20.3282
-18.9861
-17.6634
-16.3608
-15.0798
-13.8237
-12.5967
-11.4041
-10.252
-9.1473
-8.09748
-7.10987
-6.19132
-5.34762
-4.58311
-3.90051
-3.30071
-2.78269
-2.34344
-1.97818
-1.68072
-1.44354
-1.2579
-1.11412
-1.00202
-0.911208
-0.831435
-0.752751
-0.665764
-0.561891
-0.433708
-0.275433
-0.0835461
0.142479
0.399394
0.680631
0.977035
1.27523
1.55978
1.81426
2.02492
2.18292
2.28372
2.32841
2.32322
2.27751
2.20524
2.12243
2.04541
1.98728
1.95865
1.96346
2.00002
2.06092
2.13773
2.21214
2.27523
2.31389
2.32773
2.31469
2.28576
2.23886
2.20222
2.15031
2.12508
2.06615
2.02673
1.92721
1.83287
1.66021
1.47217
-242.997
-240.052
-236.818
-233.318
-229.576
-225.616
-221.46
-217.127
-212.64
-208.015
-203.273
-198.43
-193.503
-188.507
-183.457
-178.369
-173.254
-168.127
-162.998
-157.881
-152.784
-147.718
-142.693
-137.717
-132.799
-127.947
-123.167
-118.468
-113.854
-109.332
-104.908
-100.585
-96.3702
-92.266
-88.2764
-84.4047
-80.6536
-77.0254
-73.5218
-70.1441
-66.893
-63.7687
-60.7707
-57.8979
-55.149
-52.5215
-50.0127
-47.6191
-45.3365
-43.1602
-41.0849
-39.1046
-37.2129
-35.4032
-33.6683
-32.001
-30.3941
-28.8403
-27.3328
-25.8651
-24.4313
-23.0261
-21.6454
-20.286
-18.9457
-17.6238
-16.3208
-15.0387
-13.7806
-12.5511
-11.3554
-10.2
-9.09212
-8.03936
-7.04939
-6.1293
-5.28503
-4.52106
-3.84014
-3.24311
-2.72885
-2.29426
-1.93436
-1.64278
-1.41178
-1.23241
-1.09481
-0.988609
-0.903288
-0.828466
-0.754103
-0.670695
-0.569546
-0.443107
-0.285462
-0.0929589
0.135056
0.395494
0.682109
0.983626
1.28494
1.57285
1.83028
2.04228
2.20028
2.29965
2.34173
2.33309
2.28348
2.20738
2.12121
2.04162
1.98211
1.95341
1.9595
1.99866
2.06304
2.14216
2.21745
2.28055
2.31905
2.33222
2.31821
2.28834
2.24079
2.20404
2.15256
2.12802
2.0695
2.03031
1.93014
1.83491
1.65996
1.46944
-243.597
-240.596
-237.307
-233.756
-229.965
-225.959
-221.758
-217.385
-212.858
-208.197
-203.42
-198.545
-193.587
-188.563
-183.487
-178.374
-173.236
-168.088
-162.94
-157.804
-152.691
-147.61
-142.571
-137.583
-132.654
-127.791
-123.003
-118.295
-113.674
-109.146
-104.716
-100.39
-96.171
-92.0641
-88.0727
-84.1999
-80.4485
-76.8208
-73.3184
-69.9428
-66.6944
-63.5735
-60.5796
-57.7117
-54.9682
-52.3469
-49.8449
-47.4587
-45.184
-43.016
-40.9494
-38.978
-37.0955
-35.295
-33.5693
-31.911
-30.3127
-28.767
-27.267
-25.8061
-24.3781
-22.9779
-21.6011
-20.2444
-18.9057
-17.5842
-16.2806
-14.9968
-13.7362
-12.5032
-11.3037
-10.144
-9.03181
-7.97499
-6.98156
-6.05891
-5.21321
-4.44907
-3.76931
-3.17481
-2.66439
-2.23481
-1.88091
-1.59608
-1.37237
-1.20057
-1.07057
-0.97179
-0.893527
-0.825237
-0.756721
-0.678322
-0.581166
-0.457502
-0.301197
-0.108417
0.121514
0.385101
0.675136
0.98291
1.29284
1.58627
1.85062
2.06653
2.22578
2.32394
2.36261
2.34883
2.29306
2.21052
2.11842
2.03409
1.97139
1.94133
1.94773
1.98793
2.05385
2.13762
2.21742
2.28375
2.32316
2.33553
2.31942
2.28706
2.23708
2.19889
2.14659
2.12222
2.064
2.02505
1.92506
1.82931
1.65423
1.46278
-244.219
-241.159
-237.815
-234.21
-230.369
-226.315
-222.069
-217.653
-213.085
-208.387
-203.574
-198.665
-193.676
-188.622
-183.519
-178.38
-173.219
-168.049
-162.881
-157.726
-152.596
-147.499
-142.446
-137.445
-132.504
-127.63
-122.832
-118.116
-113.488
-108.953
-104.518
-100.187
-95.9645
-91.8546
-87.8611
-83.9871
-80.2353
-76.6079
-73.1068
-69.733
-66.4873
-63.3699
-60.3802
-57.5173
-54.7795
-52.1645
-49.6695
-47.2909
-45.0245
-42.8652
-40.8076
-38.8457
-36.9729
-35.182
-33.466
-31.8171
-30.2278
-28.6907
-27.1987
-25.7449
-24.3232
-22.9281
-21.5554
-20.2016
-18.8645
-17.5435
-16.2391
-14.9534
-13.6899
-12.4533
-11.2493
-10.0849
-8.9679
-7.90653
-6.90916
-5.98355
-5.1361
-4.37161
-3.69298
-3.10109
-2.59471
-2.17045
-1.82296
-1.5454
-1.32957
-1.16597
-1.04424
-0.953548
-0.882989
-0.821845
-0.759755
-0.686882
-0.594148
-0.473556
-0.318695
-0.12544
0.10718
0.376104
0.674682
0.990267
1.30954
1.61244
1.8785
2.09661
2.25666
2.35305
2.38761
2.3679
2.30499
2.21509
2.11619
2.02634
1.96017
1.92925
1.93777
1.98349
2.05642
2.1438
2.22653
2.29425
2.3342
2.34559
2.32737
2.29287
2.24105
2.20256
2.15135
2.12986
2.07404
2.03901
1.94015
1.84775
1.67129
1.48199
-244.862
-241.742
-238.34
-234.68
-230.787
-226.684
-222.391
-217.931
-213.322
-208.584
-203.734
-198.791
-193.769
-188.685
-183.554
-178.389
-173.203
-168.01
-162.821
-157.647
-152.498
-147.386
-142.317
-137.302
-132.349
-127.465
-122.657
-117.932
-113.295
-108.754
-104.313
-99.977
-95.7505
-91.6375
-87.6417
-83.7663
-80.0139
-76.3868
-72.8867
-69.5148
-66.2719
-63.158
-60.1726
-57.3147
-54.5827
-51.9743
-49.4866
-47.1159
-44.8579
-42.7077
-40.6597
-38.7076
-36.8448
-35.0642
-33.3582
-31.7193
-30.1396
-28.6116
-27.1279
-25.6816
-24.2665
-22.877
-21.5085
-20.1577
-18.8223
-17.5017
-16.1964
-14.9086
-13.6419
-12.4012
-11.1924
-10.0228
-8.90042
-7.83396
-6.83219
-5.90323
-5.05375
-4.28873
-3.61117
-3.02199
-2.51986
-2.10128
-1.76066
-1.49093
-1.28359
-1.12886
-1.01607
-0.934156
-0.871987
-0.818664
-0.763643
-0.696899
-0.609131
-0.492078
-0.339027
-0.145568
0.0893911
0.362314
0.665636
0.990075
1.31656
1.62567
1.90334
2.12768
2.28979
2.38481
2.41509
2.38875
2.31775
2.21933
2.11244
2.01602
1.94541
1.91257
1.92146
1.96849
2.04481
2.14013
2.22899
2.30087
2.34224
2.35257
2.33122
2.29298
2.23746
2.19677
2.14464
2.12353
2.06866
2.03368
1.9355
1.84151
1.66524
1.47414
-245.526
-242.344
-238.882
-235.166
-231.22
-227.065
-222.725
-218.219
-213.567
-208.789
-203.901
-198.922
-193.867
-188.752
-183.591
-178.398
-173.187
-167.971
-162.76
-157.566
-152.399
-147.269
-142.185
-137.156
-132.19
-127.294
-122.476
-117.741
-113.097
-108.548
-104.101
-99.7598
-95.529
-91.4126
-87.4143
-83.5373
-79.7842
-76.1572
-72.6582
-69.2882
-66.048
-62.9376
-59.9566
-57.1039
-54.3778
-51.7762
-49.2959
-46.9335
-44.6844
-42.5436
-40.5055
-38.5637
-36.7115
-34.9415
-33.2462
-31.6176
-30.048
-28.5295
-27.0546
-25.6163
-24.2081
-22.8244
-21.4604
-20.1128
-18.7792
-17.4589
-16.1525
-14.8624
-13.5922
-12.347
-11.133
-9.95761
-8.82931
-7.75723
-6.75054
-5.8178
-4.96597
-4.20023
-3.5237
-2.9373
-2.43964
-2.02707
-1.69378
-1.43243
-1.23421
-1.08902
-0.985876
-0.913427
-0.860326
-0.815471
-0.768129
-0.708068
-0.625742
-0.512579
-0.361503
-0.167709
0.0702916
0.349546
0.662393
0.995827
1.33402
1.6556
1.93995
2.16538
2.32872
2.42174
2.44694
2.41304
2.33288
2.22488
2.10902
2.00526
1.92982
1.89558
1.90714
1.9618
2.04542
2.14615
2.24024
2.31424
2.35666
2.36563
2.34118
2.2997
2.24133
2.20006
2.14944
2.133
2.08196
2.05405
1.95835
1.87132
1.69396
1.50824
-246.211
-242.964
-239.442
-235.668
-231.666
-227.459
-223.069
-218.516
-213.821
-209.001
-204.074
-199.058
-193.968
-188.821
-183.63
-178.409
-173.172
-167.931
-162.697
-157.483
-152.297
-147.149
-142.049
-137.006
-132.026
-127.118
-122.289
-117.545
-112.892
-108.336
-103.882
-99.5353
-95.2999
-91.1799
-87.179
-83.3002
-79.5462
-75.9193
-72.4212
-69.053
-65.8155
-62.7087
-59.7321
-56.8847
-54.1648
-51.5701
-49.0976
-46.7437
-44.5038
-42.3728
-40.345
-38.414
-36.5728
-34.8139
-33.1298
-31.5122
-29.9531
-28.4446
-26.979
-25.5491
-24.1482
-22.7705
-21.4113
-20.067
-18.7352
-17.4151
-16.1076
-14.8149
-13.5409
-12.2908
-11.0711
-9.88937
-8.75459
-7.6763
-6.66416
-5.72721
-4.87272
-4.10608
-3.43051
-2.84699
-2.35405
-1.94787
-1.6224
-1.37001
-1.18157
-1.04661
-0.953821
-0.891556
-0.848228
-0.812529
-0.773528
-0.720774
-0.644455
-0.535672
-0.386947
-0.193069
0.0477029
0.332
0.652774
0.996822
1.34509
1.675
1.96271
2.20389
2.37036
2.46174
2.4816
2.43936
2.34895
2.23012
2.10399
1.99166
1.91041
1.87365
1.88572
1.94208
2.03426
2.14359
2.24348
2.32438
2.36898
2.3766
2.34776
2.30111
2.23759
2.19325
2.14166
2.12579
2.07664
2.04848
1.95403
1.86414
1.68738
1.49898
-246.916
-243.604
-240.018
-236.185
-232.126
-227.866
-223.425
-218.824
-214.083
-209.22
-204.253
-199.199
-194.074
-188.893
-183.671
-178.421
-173.157
-167.891
-162.634
-157.398
-152.192
-147.026
-141.91
-136.851
-131.858
-126.937
-122.097
-117.342
-112.68
-108.117
-103.656
-99.3034
-95.0632
-90.9394
-86.9356
-83.0548
-79.2999
-75.6729
-72.1756
-68.8093
-65.5744
-62.4712
-59.4992
-56.6572
-53.9436
-51.3561
-48.8915
-46.5464
-44.3161
-42.1953
-40.1782
-38.2584
-36.4287
-34.6816
-33.009
-31.4029
-29.8549
-28.357
-26.9011
-25.48
-24.0868
-22.7155
-21.3612
-20.0203
-18.6904
-17.3706
-16.0618
-14.7663
-13.4881
-12.2326
-11.0066
-9.81807
-8.67621
-7.5911
-6.57297
-5.63134
-4.77385
-4.00609
-3.33144
-2.75088
-2.2629
-1.86349
-1.54633
-1.3035
-1.12551
-1.0015
-0.919792
-0.868436
-0.835589
-0.809728
-0.779713
-0.734863
-0.665081
-0.561097
-0.414968
-0.220967
0.0231647
0.314738
0.645041
1.0009
1.36279
1.70703
2.01215
2.25013
2.41816
2.50724
2.52088
2.46923
2.36738
2.23648
2.09897
1.97722
1.88963
1.85088
1.86625
1.93307
2.03095
2.14951
2.25912
2.34174
2.38768
2.39324
2.35996
2.3086
2.24096
2.19565
2.14617
2.13693
2.09356
2.07574
1.9852
1.90597
1.72845
1.54906
-247.678
-244.295
-240.642
-236.744
-232.625
-228.306
-223.81
-219.157
-214.367
-209.458
-204.448
-199.353
-194.189
-188.972
-183.716
-178.434
-173.141
-167.848
-162.566
-157.306
-152.079
-146.893
-141.758
-136.683
-131.674
-126.74
-121.887
-117.122
-112.45
-107.877
-103.409
-99.0502
-94.8046
-90.6764
-86.6693
-82.7863
-79.0301
-75.4028
-71.9064
-68.5418
-65.3098
-62.2105
-59.2432
-56.4071
-53.7002
-51.1204
-48.6646
-46.3291
-44.1092
-41.9997
-39.9944
-38.0869
-36.2699
-34.5357
-32.8762
-31.2828
-29.7471
-28.2608
-26.8158
-25.4045
-24.0198
-22.6557
-21.307
-19.9699
-18.6419
-17.3224
-16.0119
-14.7132
-13.4302
-12.1686
-10.9353
-9.73881
-8.58871
-7.49563
-6.47044
-5.52331
-4.66222
-3.89303
-3.21928
-2.64199
-2.15956
-1.76778
-1.46005
-1.22809
-1.062
-0.950467
-0.881403
-0.842504
-0.821644
-0.807065
-0.787398
-0.751704
-0.689563
-0.59128
-0.448366
-0.254496
-0.00695163
0.291232
0.632788
1.00259
1.37913
1.73656
2.04811
2.30095
2.47313
2.56003
2.56658
2.50384
2.38836
2.24305
2.09176
1.95841
1.8629
1.82073
1.83689
1.90555
2.01808
2.14836
2.26568
2.35598
2.40604
2.40973
2.37008
2.31133
2.23626
2.18655
2.13598
2.12792
2.08737
2.06917
1.98069
1.8967
1.72035
1.53709
-248.502
-245.043
-241.317
-237.35
-233.165
-228.783
-224.228
-219.519
-214.676
-209.717
-204.659
-199.52
-194.315
-189.058
-183.765
-178.45
-173.124
-167.801
-162.492
-157.207
-151.956
-146.749
-141.594
-136.501
-131.476
-126.526
-121.66
-116.882
-112.199
-107.617
-103.14
-98.774
-94.5224
-90.3893
-86.3784
-82.4926
-78.7349
-75.1072
-71.6114
-68.2486
-65.0196
-61.9242
-58.9621
-56.1322
-53.4327
-50.8613
-48.4149
-46.0899
-43.8815
-41.7842
-39.792
-37.8981
-36.0952
-34.3753
-32.7301
-31.1509
-29.6289
-28.1557
-26.7228
-25.3224
-23.9473
-22.5911
-21.2485
-19.9157
-18.5899
-17.2705
-15.9581
-14.6556
-13.367
-12.0983
-10.8566
-9.6508
-8.49107
-7.38864
-6.35511
-5.40145
-4.53603
-3.76501
-3.0921
-2.51837
-2.04216
-1.65902
-1.362
-1.14244
-0.989929
-0.892652
-0.838036
-0.81338
-0.806245
-0.804611
-0.796861
-0.77177
-0.718552
-0.627005
-0.487971
-0.294347
-0.042632
0.26511
0.619337
1.00562
1.40062
1.77664
2.10707
2.36542
2.54021
2.62398
2.62174
2.54556
2.41376
2.25114
2.08339
1.93624
1.83134
1.78597
1.80676
1.89202
2.01087
2.15551
2.28727
2.38626
2.43468
2.43446
2.38738
2.32071
2.23886
2.18741
2.1403
2.14281
2.11196
2.11008
2.02804
1.96114
1.78457
1.61725
-249.35
-245.812
-242.012
-237.974
-233.72
-229.275
-224.659
-219.892
-214.994
-209.983
-204.877
-199.693
-194.444
-189.148
-183.817
-178.466
-173.108
-167.754
-162.416
-157.105
-151.83
-146.6
-141.425
-136.313
-131.27
-126.305
-121.425
-116.634
-111.94
-107.348
-102.862
-98.4885
-94.2304
-90.0921
-86.0771
-82.1885
-78.429
-74.8007
-71.3055
-67.9445
-64.7183
-61.6271
-58.6702
-55.8466
-53.1546
-50.5918
-48.1553
-45.8411
-43.6446
-41.5602
-39.5815
-37.7019
-35.9137
-34.2088
-32.5786
-31.0143
-29.5067
-28.0472
-26.627
-25.2382
-23.8731
-22.5253
-21.1893
-19.8608
-18.5374
-17.218
-15.9036
-14.5968
-13.3022
-12.0257
-10.7749
-9.55898
-8.3887
-7.27597
-6.23324
-5.27236
-4.40211
-3.62896
-2.95681
-2.38679
-1.91716
-1.54321
-1.25765
-1.05135
-0.913391
-0.831384
-0.792242
-0.782842
-0.790417
-0.802684
-0.807782
-0.794187
-0.750738
-0.666693
-0.532145
-0.339116
-0.0832596
0.232981
0.602375
1.00712
1.42243
1.81783
2.16267
2.43278
2.61336
2.6941
2.68225
2.59113
2.44108
2.25912
2.07276
1.90982
1.79402
1.74405
1.76627
1.85371
1.99567
2.15666
2.30037
2.40665
2.46138
2.4586
2.40226
2.32473
2.23203
2.17414
2.12595
2.13066
2.10455
2.10213
2.02345
1.94896
1.77453
1.60289
-250.221
-246.603
-242.726
-238.615
-234.292
-229.781
-225.101
-220.275
-215.321
-210.258
-205.102
-199.87
-194.578
-189.24
-183.87
-178.483
-173.091
-167.706
-162.339
-157
-151.7
-146.448
-141.251
-136.119
-131.059
-126.078
-121.182
-116.379
-111.673
-107.07
-102.575
-98.1934
-93.9286
-89.7848
-85.7655
-81.8737
-78.1123
-74.4833
-70.9886
-67.6292
-64.406
-61.3188
-58.3673
-55.5502
-52.8659
-50.312
-47.8855
-45.5826
-43.3985
-41.3274
-39.3629
-37.4981
-35.7253
-34.0361
-32.4218
-30.873
-29.3806
-27.9355
-26.5287
-25.152
-23.7976
-22.4586
-21.1294
-19.8056
-18.4844
-17.165
-15.8483
-14.537
-13.2358
-11.951
-10.6902
-9.46334
-8.28153
-7.1575
-6.10464
-5.13581
-4.26021
-3.48461
-2.81311
-2.24695
-1.78426
-1.4201
-1.14677
-0.954674
-0.832282
-0.766605
-0.744
-0.750895
-0.77419
-0.801337
-0.82023
-0.81905
-0.786246
-0.710492
-0.581034
-0.388865
-0.128561
0.199189
0.58334
1.00845
1.44656
1.86439
2.22905
2.51137
2.69558
2.77244
2.74961
2.64168
2.47132
2.26779
2.06073
1.88025
1.75233
1.69794
1.72532
1.82746
1.98421
2.16473
2.32687
2.45268
2.49961
2.49085
2.4237
2.33449
2.23213
2.17152
2.12833
2.14746
2.13494
2.15371