/*--------------------------------*- C++ -*----------------------------------*\
| =========                 |                                                 |
| \\      /  F ield         | OpenFOAM: The Open Source CFD Toolbox           |
|  \\    /   O peration     | Version:  v1912                                 |
|   \\  /    A nd           | Website:  www.openfoam.com                      |
|    \\/     M anipulation  |                                                 |
\*---------------------------------------------------------------------------*/
FoamFile
{
    version     2.0;
    format      ascii;
    class       volScalarField;
    location    "10";
    object      omega;
}
// * * * * * * * * * * * * * * * * * * * * * * * * * * * * * * * * * * * * * //

dimensions      [0 0 -1 0 0 0 0];


internalField   nonuniform List<scalar> 
14268
(
0.0123531
0.0123306
0.0123159
0.0123001
0.0122863
0.0122742
0.0122641
0.0122559
0.0122497
0.0122458
0.012244
0.0122445
0.0122472
0.0122519
0.0122584
0.0122664
0.0122756
0.0122858
0.0122967
0.0123082
0.0123203
0.0123329
0.0123459
0.0123595
0.0123737
0.0123885
0.0124039
0.0124198
0.012436
0.0124522
0.012468
0.0124832
0.0124975
0.0125107
0.0125226
0.0125329
0.0125419
0.0125499
0.012557
0.0125633
0.0125691
0.0125742
0.0125789
0.0125832
0.0125871
0.0125908
0.0125943
0.0125977
0.0126012
0.0126048
0.0126087
0.0126128
0.0126172
0.0126217
0.0126262
0.0126305
0.0126343
0.0126376
0.0126402
0.0126422
0.0126436
0.0126448
0.0126459
0.0126472
0.0126491
0.0126519
0.0126557
0.0126608
0.012667
0.0126744
0.0126828
0.0126919
0.0127017
0.0127119
0.0127221
0.0127324
0.0127424
0.0127521
0.0127613
0.0127698
0.0127774
0.012784
0.0127894
0.0127933
0.0127956
0.0127963
0.0127961
0.0127961
0.0127961
0.0127961
0.0127962
0.0127964
0.0127966
0.0127968
0.012797
0.0127972
0.0127974
0.0127977
0.012798
0.0127982
0.0127985
0.0127989
0.0127992
0.0127996
0.0127999
0.0128003
0.0128006
0.0128008
0.012801
0.0128011
0.0128012
0.0128011
0.012801
0.0128008
0.0128005
0.0128002
0.0127999
0.0127995
0.0127991
0.0127987
0.0127982
0.0127978
0.0127973
0.0127968
0.0127962
0.0127955
0.0127948
0.012794
0.0127931
0.012792
0.0127908
0.0127895
0.0127881
0.0127866
0.012785
0.0127833
0.0127816
0.0127798
0.0127779
0.0127761
0.0127741
0.0127721
0.0127702
0.0127682
0.0127662
0.0127641
0.012762
0.0127599
0.0127577
0.0127555
0.0127533
0.0127509
0.0127485
0.0127461
0.0127436
0.0127408
0.0127377
0.0127341
0.0127302
0.0127259
0.0127214
0.0127166
0.0127116
0.0127058
0.832344
0.831308
0.831205
0.831473
0.831672
0.831847
0.831998
0.832118
0.832206
0.832258
0.832275
0.83225
0.832188
0.832093
0.831969
0.831822
0.831658
0.831483
0.831303
0.831122
0.830942
0.830762
0.830582
0.8304
0.830217
0.830033
0.82985
0.82967
0.829496
0.82933
0.829175
0.82903
0.828899
0.828775
0.828664
0.828583
0.828521
0.828462
0.828406
0.82835
0.82829
0.828222
0.828143
0.828047
0.827933
0.827796
0.827631
0.827434
0.827203
0.826933
0.826622
0.826269
0.825872
0.825432
0.824947
0.82442
0.82385
0.823239
0.822588
0.821898
0.821167
0.820394
0.819576
0.81871
0.817791
0.816812
0.815769
0.814656
0.813467
0.812197
0.810842
0.809397
0.80785
0.80619
0.804412
0.802511
0.800487
0.798337
0.796065
0.793675
0.791175
0.788575
0.785892
0.783143
0.780346
0.777513
0.774822
0.772432
0.770342
0.768528
0.766952
0.765567
0.764318
0.763148
0.762006
0.760848
0.759635
0.758344
0.756968
0.75552
0.754021
0.752501
0.750999
0.749566
0.748258
0.747129
0.746228
0.745596
0.745271
0.745258
0.745565
0.746187
0.747076
0.748189
0.749485
0.750919
0.75244
0.754005
0.755595
0.757197
0.758836
0.760545
0.762357
0.764323
0.766479
0.768857
0.771464
0.774284
0.777324
0.780559
0.783942
0.787423
0.790943
0.794448
0.797891
0.80123
0.804434
0.807477
0.810343
0.813021
0.815502
0.81777
0.819811
0.821616
0.823173
0.824475
0.825525
0.826332
0.826915
0.827302
0.827526
0.827629
0.827648
0.827648
0.827649
0.82765
0.827654
0.827658
0.827676
0.827704
0.827839
0.827961
0.828144
0.828185
0.832879
0.831165
0.830873
0.831107
0.831298
0.831468
0.831614
0.831732
0.831818
0.83187
0.831887
0.831864
0.831805
0.831713
0.831593
0.831449
0.83129
0.83112
0.830947
0.830772
0.830599
0.830427
0.830256
0.830083
0.82991
0.829738
0.829567
0.8294
0.82924
0.829089
0.828949
0.828821
0.828707
0.828601
0.828506
0.828437
0.828384
0.828336
0.828295
0.82826
0.82823
0.828205
0.828185
0.828169
0.828156
0.828148
0.828143
0.828142
0.828142
0.828144
0.828146
0.828148
0.828149
0.828151
0.828152
0.828154
0.828159
0.828166
0.828177
0.828192
0.828213
0.828238
0.828266
0.828291
0.828316
0.828339
0.828362
0.828383
0.828403
0.82842
0.828433
0.828441
0.828442
0.828435
0.82842
0.828395
0.828361
0.828318
0.828267
0.828211
0.82815
0.828088
0.828027
0.827971
0.827924
0.827869
0.827801
0.827735
0.827673
0.827616
0.827564
0.827516
0.827474
0.827435
0.827398
0.827361
0.827324
0.827284
0.827241
0.827195
0.827146
0.827094
0.82704
0.826984
0.82693
0.826878
0.826832
0.826795
0.826767
0.826751
0.826748
0.826758
0.82678
0.826811
0.82685
0.826895
0.826944
0.826996
0.827046
0.827095
0.827141
0.827185
0.827228
0.827271
0.82732
0.827379
0.827441
0.827488
0.827535
0.827585
0.827633
0.82768
0.827724
0.827764
0.827799
0.82783
0.827857
0.82788
0.8279
0.827918
0.827934
0.827949
0.827965
0.827981
0.827996
0.828003
0.828002
0.827999
0.827992
0.827982
0.827974
0.82797
0.82797
0.827971
0.827974
0.827979
0.827985
0.827992
0.828009
0.828026
0.828121
0.828231
0.828428
0.828427
0.833314
0.831614
0.831363
0.831624
0.831845
0.832043
0.832217
0.83236
0.832468
0.83254
0.832572
0.832562
0.83251
0.83242
0.832297
0.832148
0.831979
0.831797
0.831609
0.831418
0.831228
0.831038
0.830848
0.830658
0.830469
0.83028
0.830091
0.829905
0.829722
0.829547
0.829382
0.829229
0.829089
0.82896
0.828845
0.828757
0.828687
0.828625
0.828572
0.828528
0.828489
0.828457
0.828428
0.828403
0.828384
0.828368
0.828354
0.828341
0.82833
0.828319
0.828306
0.82829
0.828272
0.82825
0.828226
0.828201
0.828176
0.828154
0.828136
0.828124
0.828117
0.828117
0.828123
0.828136
0.828155
0.82818
0.82821
0.828245
0.828286
0.828331
0.82838
0.82843
0.828481
0.828532
0.828582
0.828632
0.828681
0.828731
0.828784
0.828841
0.828904
0.828976
0.82906
0.82916
0.829268
0.829368
0.82946
0.829542
0.829616
0.829682
0.829741
0.829795
0.829848
0.829901
0.829958
0.830019
0.830085
0.830158
0.830236
0.830319
0.830404
0.830488
0.830567
0.830639
0.830699
0.830744
0.83077
0.830777
0.830763
0.830726
0.830671
0.830598
0.830513
0.830418
0.830318
0.830215
0.830114
0.830014
0.829917
0.82982
0.829721
0.829618
0.829509
0.829394
0.829276
0.829162
0.829044
0.82891
0.828775
0.828648
0.828529
0.828422
0.828329
0.828252
0.828189
0.828142
0.828108
0.828086
0.828075
0.828073
0.82808
0.828084
0.828082
0.828072
0.828054
0.828033
0.828012
0.827992
0.827971
0.827953
0.827942
0.827936
0.827934
0.827935
0.827941
0.827948
0.827957
0.827966
0.827984
0.828004
0.828098
0.828199
0.828427
0.828452
0.833453
0.831723
0.831501
0.831768
0.832
0.832213
0.832401
0.832559
0.832682
0.832766
0.83281
0.83281
0.832764
0.832679
0.832558
0.832408
0.832237
0.832052
0.83186
0.831665
0.83147
0.831277
0.831084
0.830892
0.830701
0.830509
0.830315
0.830121
0.829929
0.829743
0.829565
0.8294
0.829248
0.829108
0.828984
0.828887
0.828809
0.828739
0.82868
0.828629
0.828585
0.828549
0.828516
0.828488
0.828466
0.828449
0.828434
0.828422
0.828411
0.828401
0.828388
0.828373
0.828353
0.82833
0.828302
0.828273
0.828243
0.828215
0.828191
0.828172
0.82816
0.828154
0.828155
0.828163
0.828177
0.828196
0.828221
0.828251
0.828287
0.828328
0.828374
0.828424
0.828475
0.828529
0.828583
0.828638
0.828694
0.828752
0.828814
0.82888
0.828955
0.82904
0.829138
0.829251
0.829363
0.829467
0.829563
0.829651
0.82973
0.8298
0.829864
0.829924
0.829984
0.830045
0.830111
0.830184
0.830264
0.830352
0.830448
0.830549
0.830652
0.830756
0.830855
0.830944
0.83102
0.831079
0.831116
0.831129
0.831118
0.831081
0.831021
0.830942
0.830848
0.830744
0.830634
0.830521
0.830409
0.830302
0.830196
0.830092
0.829985
0.829873
0.829754
0.829627
0.829495
0.829364
0.82923
0.829079
0.828927
0.828784
0.82865
0.828529
0.828422
0.828334
0.828263
0.82821
0.82817
0.828141
0.828124
0.828118
0.828123
0.828131
0.828134
0.828124
0.828106
0.828086
0.828065
0.828042
0.828019
0.828002
0.82799
0.827986
0.827985
0.827987
0.827995
0.828007
0.82802
0.828033
0.828054
0.828074
0.828158
0.828254
0.828473
0.828476
0.833531
0.831765
0.83157
0.83184
0.832078
0.832304
0.832505
0.832676
0.832813
0.83291
0.832964
0.832974
0.832936
0.832856
0.832737
0.832588
0.832416
0.83223
0.832035
0.831839
0.831643
0.831448
0.831255
0.831062
0.830869
0.830676
0.83048
0.830282
0.830083
0.829889
0.829702
0.829526
0.829365
0.829216
0.829084
0.828981
0.828897
0.828823
0.82876
0.828707
0.82866
0.828621
0.828588
0.828558
0.828535
0.828517
0.828505
0.828495
0.828487
0.828479
0.828469
0.828456
0.828437
0.828413
0.828384
0.828352
0.828319
0.828287
0.828258
0.828235
0.828218
0.828209
0.828207
0.828212
0.828222
0.828237
0.828256
0.828278
0.828306
0.828339
0.828378
0.828422
0.828472
0.828524
0.828579
0.828636
0.828695
0.828758
0.828824
0.828896
0.828976
0.829067
0.829172
0.829279
0.829382
0.829477
0.829565
0.829645
0.829715
0.829778
0.829835
0.82989
0.829944
0.830002
0.830065
0.830137
0.830219
0.83031
0.830409
0.830514
0.830622
0.830728
0.83083
0.830922
0.830999
0.831058
0.831094
0.831104
0.83109
0.831049
0.830984
0.830901
0.830803
0.830695
0.830583
0.830469
0.830359
0.830254
0.830151
0.83005
0.829947
0.829839
0.829723
0.829598
0.829467
0.829337
0.829203
0.829054
0.828903
0.828763
0.828634
0.828519
0.828422
0.828344
0.828286
0.828244
0.828215
0.828198
0.828195
0.828204
0.828212
0.828213
0.828203
0.828182
0.828156
0.828128
0.828098
0.828066
0.828039
0.828017
0.828003
0.827997
0.827995
0.827999
0.828006
0.828019
0.828034
0.828051
0.828073
0.828096
0.828169
0.828257
0.828496
0.828513
0.833591
0.831784
0.831617
0.831889
0.832129
0.832367
0.832581
0.832765
0.832914
0.833024
0.833089
0.833109
0.833078
0.833002
0.832885
0.832736
0.832563
0.832374
0.832178
0.83198
0.831784
0.831589
0.831395
0.831201
0.831008
0.830813
0.830616
0.830413
0.830209
0.830007
0.829811
0.829626
0.829456
0.829298
0.829159
0.829051
0.828962
0.828884
0.828819
0.828764
0.828716
0.828675
0.828641
0.828612
0.828589
0.828573
0.828562
0.828556
0.828552
0.828549
0.828543
0.828533
0.828517
0.828494
0.828466
0.828432
0.828397
0.828362
0.82833
0.828305
0.828287
0.828277
0.828276
0.828282
0.828293
0.828308
0.828325
0.828343
0.828365
0.828392
0.828424
0.828462
0.828507
0.828557
0.828611
0.828669
0.82873
0.828794
0.828864
0.82894
0.829026
0.829124
0.829227
0.829328
0.829423
0.82951
0.829589
0.82966
0.829723
0.829779
0.829829
0.829878
0.829928
0.829981
0.830042
0.830111
0.830192
0.830284
0.830387
0.830497
0.83061
0.830722
0.830829
0.830925
0.831005
0.831065
0.831101
0.831111
0.831094
0.831051
0.830983
0.830897
0.830797
0.830688
0.830574
0.830463
0.830356
0.830255
0.830157
0.830061
0.829963
0.82986
0.829749
0.829627
0.829498
0.829369
0.829236
0.829086
0.828935
0.828795
0.828667
0.828556
0.828463
0.828392
0.82834
0.828303
0.828276
0.828265
0.828269
0.828281
0.828288
0.828285
0.828267
0.828242
0.828213
0.828181
0.828143
0.828108
0.828079
0.828055
0.82804
0.828034
0.828034
0.82804
0.82805
0.828066
0.828085
0.828106
0.828129
0.828155
0.828227
0.828313
0.828541
0.828548
0.833645
0.831799
0.831659
0.831933
0.832171
0.832421
0.832647
0.832844
0.833007
0.833129
0.833205
0.833235
0.833211
0.833138
0.833022
0.832872
0.832696
0.832505
0.832307
0.832108
0.83191
0.831716
0.831523
0.83133
0.831134
0.830938
0.830738
0.830532
0.830322
0.830112
0.829907
0.829712
0.829531
0.829366
0.82922
0.829107
0.829014
0.828933
0.828866
0.828809
0.828761
0.828719
0.828685
0.828658
0.828635
0.828621
0.828614
0.828612
0.828613
0.828616
0.828615
0.82861
0.828598
0.828577
0.828549
0.828515
0.828478
0.828441
0.828407
0.82838
0.828362
0.828353
0.828354
0.828363
0.828378
0.828395
0.82841
0.828427
0.828446
0.82847
0.828498
0.828531
0.82857
0.828616
0.828668
0.828725
0.828787
0.828854
0.828927
0.829008
0.8291
0.829199
0.829297
0.829391
0.829479
0.829559
0.829629
0.829692
0.829747
0.829795
0.829839
0.829881
0.829926
0.829976
0.830034
0.830102
0.830182
0.830274
0.830379
0.830493
0.830611
0.830728
0.83084
0.83094
0.831024
0.831086
0.831122
0.831131
0.831113
0.831066
0.830995
0.830906
0.830802
0.83069
0.830576
0.830465
0.830361
0.830264
0.830171
0.830081
0.82999
0.829892
0.829785
0.829666
0.829539
0.82941
0.829276
0.829124
0.828973
0.828833
0.828706
0.828597
0.828509
0.828444
0.828398
0.828363
0.828344
0.828342
0.828355
0.828368
0.828372
0.828356
0.828332
0.828303
0.828269
0.828227
0.828183
0.828145
0.828112
0.828085
0.828069
0.828061
0.828061
0.828068
0.828079
0.828095
0.828115
0.828138
0.828164
0.828193
0.82826
0.82834
0.828577
0.828592
0.833698
0.831814
0.8317
0.831977
0.832213
0.832472
0.832711
0.832922
0.833099
0.833234
0.833322
0.833361
0.833344
0.833274
0.833158
0.833006
0.832826
0.832631
0.83243
0.832229
0.832031
0.831838
0.831647
0.831454
0.831258
0.831058
0.830855
0.830644
0.830428
0.830209
0.829994
0.829789
0.829598
0.829424
0.829273
0.829154
0.829057
0.828974
0.828905
0.828847
0.828799
0.828758
0.828724
0.828698
0.828677
0.828666
0.828662
0.828666
0.828673
0.828682
0.828689
0.828689
0.828682
0.828664
0.828637
0.828603
0.828564
0.828525
0.82849
0.828462
0.828444
0.828437
0.828442
0.828456
0.828476
0.828491
0.828505
0.828519
0.828538
0.828561
0.82859
0.828621
0.828656
0.828697
0.828745
0.828801
0.828863
0.828932
0.829009
0.829095
0.829189
0.829284
0.829377
0.829466
0.829547
0.829619
0.829681
0.829735
0.829781
0.829821
0.829857
0.829894
0.829934
0.829981
0.830037
0.830103
0.830182
0.830274
0.83038
0.830497
0.830621
0.830745
0.830863
0.830969
0.831056
0.831121
0.831158
0.831167
0.831146
0.831096
0.831021
0.830927
0.830819
0.830703
0.830587
0.830478
0.830377
0.830284
0.830196
0.830112
0.830027
0.829935
0.829832
0.829717
0.829591
0.829463
0.829326
0.829173
0.829021
0.82888
0.828753
0.828647
0.828563
0.828504
0.828461
0.82843
0.828419
0.828426
0.828444
0.828456
0.82845
0.828427
0.828401
0.828368
0.828326
0.828276
0.82823
0.828188
0.828151
0.828121
0.828103
0.828095
0.828096
0.828105
0.828121
0.828141
0.828164
0.828192
0.828219
0.82825
0.828317
0.828397
0.828625
0.828633
0.833754
0.831833
0.831744
0.832024
0.832259
0.832525
0.832777
0.833002
0.833194
0.833344
0.833444
0.833492
0.833482
0.833414
0.833298
0.833141
0.832957
0.832757
0.832552
0.832349
0.832151
0.831958
0.831769
0.831579
0.831383
0.83118
0.830971
0.830756
0.830532
0.830303
0.830077
0.82986
0.829659
0.829476
0.829318
0.829194
0.829094
0.829009
0.828939
0.828881
0.828833
0.828793
0.82876
0.828735
0.828717
0.828709
0.82871
0.828719
0.828734
0.828751
0.828766
0.828773
0.828771
0.828758
0.828732
0.828698
0.828657
0.828616
0.828579
0.82855
0.828533
0.82853
0.828539
0.828561
0.828582
0.828596
0.828607
0.82862
0.828636
0.82866
0.82869
0.828723
0.828759
0.828797
0.828842
0.828895
0.828957
0.829027
0.829106
0.829193
0.829285
0.829377
0.829467
0.82955
0.829625
0.829689
0.829743
0.829786
0.829823
0.829854
0.829883
0.829914
0.82995
0.829993
0.830047
0.830112
0.83019
0.830282
0.830389
0.830509
0.830638
0.830769
0.830894
0.831006
0.831099
0.831167
0.831206
0.831214
0.831191
0.831136
0.831057
0.830958
0.830845
0.830724
0.830607
0.830498
0.830399
0.830309
0.830228
0.830151
0.830072
0.829986
0.829888
0.829777
0.829653
0.829524
0.829384
0.829229
0.829075
0.828933
0.828805
0.828702
0.828624
0.828569
0.828525
0.828502
0.8285
0.828518
0.828538
0.828542
0.828525
0.828501
0.828472
0.828432
0.828381
0.828328
0.828279
0.828232
0.828191
0.828159
0.82814
0.828132
0.828133
0.828142
0.828157
0.828178
0.828203
0.82823
0.828262
0.828299
0.828368
0.828448
0.828681
0.828693
0.833815
0.83186
0.831793
0.832077
0.83231
0.832582
0.832847
0.833088
0.833296
0.833462
0.833576
0.833633
0.83363
0.833563
0.833444
0.833283
0.833092
0.832886
0.832676
0.83247
0.832272
0.832082
0.831896
0.831708
0.831514
0.831307
0.831092
0.830869
0.830636
0.830396
0.830157
0.829928
0.829715
0.829522
0.829358
0.829229
0.829125
0.829039
0.828969
0.828912
0.828865
0.828826
0.828795
0.828771
0.828756
0.828752
0.828758
0.828774
0.828798
0.828824
0.828847
0.828863
0.828868
0.828859
0.828836
0.828801
0.828759
0.828716
0.828677
0.828647
0.828632
0.828632
0.828647
0.828675
0.828697
0.828708
0.828717
0.828727
0.828742
0.828765
0.828796
0.828832
0.828867
0.828905
0.828949
0.829001
0.829062
0.829133
0.829212
0.829298
0.829388
0.829478
0.829564
0.829643
0.829712
0.829768
0.829813
0.829846
0.829872
0.829893
0.829914
0.829938
0.829969
0.830009
0.830061
0.830126
0.830205
0.830297
0.830404
0.830526
0.830661
0.830799
0.830932
0.831051
0.831149
0.831221
0.831262
0.83127
0.831245
0.831187
0.831103
0.830998
0.830878
0.830752
0.830632
0.830523
0.830425
0.83034
0.830264
0.830195
0.830123
0.830044
0.829951
0.829845
0.829723
0.829592
0.829449
0.829292
0.829136
0.828991
0.828863
0.828764
0.82869
0.828633
0.828595
0.828581
0.82859
0.828615
0.828631
0.828622
0.828604
0.828581
0.828546
0.828497
0.82844
0.828385
0.828331
0.828279
0.828233
0.828198
0.828177
0.828168
0.828171
0.828185
0.828206
0.828231
0.828258
0.828287
0.828319
0.828358
0.828426
0.828511
0.828733
0.82874
0.833874
0.83189
0.831842
0.832134
0.83237
0.832646
0.832928
0.833186
0.833411
0.833595
0.833723
0.833788
0.833792
0.833724
0.833602
0.833433
0.833235
0.83302
0.832804
0.832595
0.832397
0.83221
0.832028
0.831846
0.831654
0.831445
0.831221
0.830988
0.830744
0.830492
0.830238
0.829994
0.829768
0.829564
0.829393
0.829259
0.829152
0.829065
0.828996
0.828941
0.828896
0.828859
0.828829
0.828807
0.828795
0.828795
0.828808
0.828832
0.828865
0.828902
0.828936
0.828962
0.828974
0.82897
0.82895
0.828915
0.828871
0.828825
0.828783
0.828753
0.82874
0.828744
0.828767
0.8288
0.82882
0.82883
0.828835
0.828842
0.828854
0.828877
0.828911
0.828948
0.828983
0.82902
0.829062
0.829112
0.829173
0.829244
0.829323
0.829409
0.829499
0.829587
0.82967
0.829744
0.829807
0.829855
0.82989
0.829913
0.829928
0.829938
0.829949
0.829966
0.829991
0.830028
0.830077
0.830142
0.830222
0.830317
0.830425
0.830549
0.830687
0.830833
0.830975
0.831102
0.831207
0.831284
0.831327
0.831335
0.831308
0.831246
0.831156
0.831045
0.830918
0.830785
0.830662
0.830552
0.830456
0.830373
0.830304
0.830243
0.83018
0.830108
0.830022
0.829921
0.829802
0.829668
0.829522
0.829361
0.829201
0.829053
0.828926
0.82883
0.828758
0.8287
0.82867
0.828666
0.828686
0.828713
0.828717
0.828706
0.828689
0.828662
0.828619
0.828565
0.828506
0.828447
0.828389
0.828333
0.828282
0.828247
0.828223
0.828214
0.828217
0.82823
0.82825
0.828274
0.8283
0.828331
0.82837
0.828416
0.828489
0.828579
0.828802
0.828815
0.833925
0.831922
0.831889
0.832212
0.832486
0.83281
0.833133
0.833409
0.833644
0.833858
0.833994
0.834026
0.834041
0.833924
0.833808
0.83361
0.833407
0.833165
0.832942
0.832725
0.832526
0.832346
0.832166
0.831989
0.8318
0.831591
0.83136
0.831113
0.830857
0.830591
0.830324
0.830065
0.829823
0.829607
0.829428
0.829287
0.829177
0.829089
0.829022
0.82897
0.828927
0.828891
0.828863
0.828842
0.828833
0.828837
0.828855
0.828889
0.828933
0.828983
0.82903
0.829067
0.829088
0.82909
0.829073
0.829038
0.828991
0.828941
0.828897
0.828867
0.828855
0.828865
0.828898
0.828933
0.82895
0.828956
0.828956
0.82896
0.828971
0.828992
0.829029
0.82907
0.829106
0.829142
0.829182
0.82923
0.829289
0.82936
0.82944
0.829527
0.829617
0.829705
0.829785
0.829855
0.829911
0.829951
0.829976
0.829988
0.829991
0.82999
0.82999
0.829997
0.830016
0.830049
0.830097
0.830162
0.830244
0.830342
0.830454
0.830579
0.830719
0.830873
0.831024
0.83116
0.831272
0.831354
0.8314
0.831407
0.831376
0.83131
0.831215
0.831097
0.830962
0.830821
0.830695
0.830584
0.83049
0.830411
0.830349
0.830298
0.830243
0.830178
0.830098
0.830003
0.829886
0.82975
0.829598
0.829432
0.829267
0.829117
0.82899
0.828896
0.828823
0.828771
0.82875
0.828758
0.828785
0.828803
0.828804
0.828796
0.828777
0.828743
0.828694
0.828639
0.828576
0.828511
0.828447
0.828384
0.828329
0.828289
0.828263
0.828253
0.82826
0.828281
0.828307
0.828334
0.828362
0.828396
0.828432
0.828477
0.82855
0.82865
0.828863
0.828878
0.833993
0.832037
0.832072
0.832736
0.833569
0.834532
0.835264
0.8356
0.835614
0.835946
0.836034
0.835526
0.83542
0.834768
0.834663
0.834197
0.834045
0.833411
0.833222
0.832861
0.832691
0.832462
0.8323
0.832128
0.831943
0.831734
0.831496
0.831232
0.83096
0.830682
0.830402
0.83013
0.829877
0.829651
0.829466
0.829319
0.829205
0.829118
0.829052
0.829002
0.828962
0.828929
0.828903
0.828884
0.828877
0.828884
0.828907
0.828947
0.829
0.829061
0.829119
0.829168
0.829201
0.829211
0.829201
0.829169
0.829122
0.829071
0.829024
0.828991
0.828978
0.828989
0.829026
0.829067
0.829084
0.829088
0.829086
0.829083
0.82909
0.829106
0.829139
0.829185
0.829225
0.829264
0.829303
0.829349
0.829406
0.829475
0.829557
0.829648
0.829742
0.829833
0.829915
0.829984
0.830036
0.830069
0.830086
0.830087
0.830078
0.830062
0.830047
0.830041
0.830047
0.830071
0.830114
0.830177
0.830259
0.830359
0.830475
0.830603
0.830747
0.830907
0.83107
0.831219
0.831342
0.831433
0.831485
0.831495
0.831465
0.831396
0.831294
0.831168
0.831023
0.830873
0.83074
0.830625
0.830529
0.830448
0.830394
0.830351
0.830306
0.830252
0.830184
0.830098
0.829988
0.829853
0.829698
0.829527
0.829358
0.829204
0.829074
0.828976
0.8289
0.828852
0.828835
0.82885
0.828873
0.828886
0.828892
0.828885
0.82886
0.828821
0.828772
0.828716
0.828652
0.828583
0.828515
0.828447
0.82839
0.828348
0.828322
0.828309
0.828315
0.828335
0.828358
0.82838
0.828408
0.82844
0.828483
0.828536
0.828619
0.828729
0.828949
0.82898
0.834474
0.833066
0.834095
0.837258
0.842957
0.848644
0.85228
0.853317
0.85175
0.852787
0.85223
0.84797
0.846735
0.842049
0.842189
0.839647
0.840027
0.83519
0.835462
0.833225
0.83341
0.832443
0.832393
0.832178
0.832022
0.831829
0.831598
0.831328
0.83104
0.830746
0.83045
0.830164
0.829899
0.829665
0.829475
0.829327
0.829213
0.829129
0.829068
0.829022
0.828986
0.828956
0.828932
0.828917
0.828913
0.828926
0.828958
0.829007
0.82907
0.829141
0.82921
0.829268
0.829307
0.829321
0.829312
0.82928
0.829232
0.829178
0.82913
0.829096
0.829084
0.829099
0.829141
0.829181
0.829195
0.829195
0.82919
0.829186
0.829191
0.829206
0.829237
0.829284
0.829325
0.829363
0.829402
0.829446
0.829501
0.829568
0.829649
0.829739
0.829834
0.829926
0.830008
0.830075
0.830124
0.830151
0.830159
0.830152
0.830132
0.830105
0.830079
0.830063
0.830062
0.83008
0.830121
0.830184
0.830268
0.830372
0.830493
0.830624
0.830771
0.830936
0.831107
0.831265
0.831396
0.831494
0.831549
0.83156
0.831527
0.831452
0.831343
0.831209
0.831055
0.830898
0.830759
0.830641
0.830544
0.830466
0.830418
0.830384
0.830348
0.830302
0.830243
0.830165
0.83006
0.829924
0.829765
0.829588
0.829414
0.829257
0.829122
0.829022
0.828946
0.828904
0.828894
0.828915
0.828937
0.828949
0.828959
0.828947
0.828919
0.828882
0.828835
0.828777
0.828709
0.828636
0.828561
0.828485
0.828423
0.828371
0.828339
0.828326
0.828343
0.828384
0.828422
0.82846
0.828489
0.828515
0.828556
0.828603
0.828681
0.828787
0.828998
0.829039
0.837321
0.838374
0.845033
0.857595
0.880569
0.901731
0.914564
0.91785
0.911972
0.915461
0.912768
0.89757
0.892523
0.874961
0.877046
0.868313
0.871359
0.846721
0.849677
0.83637
0.838895
0.83233
0.832903
0.832052
0.831933
0.831799
0.831602
0.831346
0.831063
0.830769
0.83047
0.830179
0.829906
0.829665
0.829472
0.829322
0.82921
0.82913
0.829073
0.829032
0.828998
0.828969
0.828945
0.82893
0.828927
0.828942
0.828978
0.829034
0.829106
0.829185
0.829263
0.829328
0.829372
0.829388
0.829378
0.829343
0.82929
0.829231
0.82918
0.829147
0.829139
0.829161
0.829212
0.829247
0.829256
0.829251
0.829241
0.829236
0.829242
0.829259
0.829295
0.829344
0.829384
0.829421
0.829458
0.829502
0.829556
0.829623
0.829702
0.829791
0.829884
0.829973
0.830051
0.830114
0.830156
0.830176
0.830178
0.830165
0.83014
0.830109
0.830081
0.830063
0.830062
0.830081
0.830125
0.830192
0.83028
0.830389
0.830515
0.83065
0.830798
0.830964
0.831137
0.831296
0.831428
0.831525
0.831577
0.831584
0.831546
0.831466
0.831352
0.831213
0.831057
0.830898
0.83076
0.830644
0.830551
0.830476
0.830433
0.830405
0.830374
0.830332
0.830275
0.830197
0.83009
0.82995
0.829786
0.829605
0.829429
0.829273
0.82914
0.829042
0.828969
0.828932
0.828928
0.828954
0.828973
0.828987
0.828999
0.82898
0.828954
0.828917
0.828868
0.828809
0.828742
0.82867
0.828599
0.828527
0.82847
0.828428
0.828404
0.828391
0.828392
0.828405
0.828418
0.828445
0.82847
0.828501
0.828548
0.82861
0.828702
0.828825
0.829059
0.829115
0.851799
0.868075
0.894522
0.93956
1.01086
1.07265
1.10931
1.1195
1.10667
1.11679
1.1073
1.06727
1.05083
1.00195
1.01375
0.993714
1.00839
0.909592
0.926535
0.860082
0.877077
0.834132
0.839465
0.832213
0.831825
0.83132
0.831385
0.831231
0.831006
0.830744
0.830462
0.830178
0.829907
0.829667
0.829473
0.829322
0.829211
0.829133
0.829079
0.829041
0.82901
0.828984
0.828961
0.828948
0.828948
0.828966
0.829005
0.829066
0.829143
0.829225
0.829309
0.82938
0.829429
0.829448
0.82944
0.829404
0.82935
0.829289
0.829236
0.829202
0.829194
0.829218
0.829272
0.829306
0.829314
0.829306
0.829293
0.829287
0.829292
0.829308
0.829344
0.829395
0.829435
0.829471
0.829508
0.829551
0.829605
0.829671
0.829749
0.829837
0.82993
0.830018
0.830095
0.830156
0.830195
0.830211
0.830208
0.83019
0.83016
0.830126
0.830095
0.830075
0.830073
0.830092
0.830138
0.830208
0.830298
0.830409
0.830536
0.830672
0.83082
0.830983
0.831158
0.831319
0.831454
0.831551
0.831603
0.831609
0.831568
0.831485
0.831367
0.831226
0.831067
0.830907
0.83077
0.830655
0.830563
0.830491
0.830452
0.830428
0.830401
0.830362
0.830306
0.830229
0.830124
0.829983
0.829816
0.829631
0.829456
0.829303
0.829171
0.829073
0.829001
0.828965
0.82896
0.828982
0.829
0.829018
0.829031
0.829012
0.828991
0.828956
0.828909
0.828849
0.828778
0.828698
0.828615
0.828531
0.828462
0.828409
0.828379
0.828371
0.828392
0.828447
0.82849
0.828527
0.828558
0.828587
0.828606
0.828667
0.828742
0.828852
0.829065
0.829129
0.935664
1.04623
1.16829
1.29846
1.4408
1.55737
1.63467
1.67969
1.67995
1.71642
1.67449
1.57679
1.52794
1.41888
1.45857
1.43568
1.49033
1.18407
1.26148
0.997801
1.08897
0.85777
0.898078
0.839523
0.836365
0.830246
0.829994
0.830456
0.830521
0.830448
0.830283
0.830067
0.829836
0.829618
0.829438
0.829297
0.829194
0.829122
0.829074
0.82904
0.829013
0.828989
0.828968
0.828957
0.828959
0.82898
0.829025
0.829093
0.82918
0.829269
0.82936
0.829437
0.82949
0.829513
0.829509
0.829474
0.829417
0.829353
0.829297
0.829261
0.829254
0.829281
0.829337
0.829371
0.829376
0.829364
0.829348
0.82934
0.829344
0.82936
0.829399
0.829449
0.82949
0.829526
0.829563
0.829606
0.82966
0.829727
0.829804
0.829891
0.829982
0.830071
0.830147
0.830206
0.830243
0.830255
0.830248
0.830224
0.83019
0.830151
0.830116
0.830093
0.830087
0.830104
0.830148
0.830216
0.830307
0.830419
0.830548
0.830688
0.830836
0.831
0.831176
0.831342
0.831479
0.831579
0.831632
0.831637
0.831595
0.831509
0.831389
0.831244
0.831083
0.830921
0.830783
0.830669
0.830577
0.830508
0.830472
0.83045
0.830426
0.830392
0.830339
0.830264
0.830163
0.83002
0.829852
0.829664
0.829488
0.829337
0.829203
0.829101
0.82903
0.828993
0.828989
0.829012
0.829032
0.829052
0.829063
0.829044
0.829021
0.828984
0.828937
0.828877
0.828806
0.828732
0.82866
0.828588
0.828532
0.828494
0.828471
0.828451
0.828436
0.82843
0.828441
0.828465
0.828492
0.828529
0.828583
0.828654
0.82875
0.828887
0.829141
0.829223
38.8497
206.033
163.864
226.726
564.563
42.252
14.9945
8.58096
5.87222
4.47195
3.64695
2.943
2.83605
2.60982
2.60524
2.61811
2.75565
2.09227
2.36792
1.60349
1.98554
1.03236
1.28477
0.915343
0.905512
0.83499
0.826054
0.827044
0.828218
0.828931
0.829292
0.829417
0.8294
0.829315
0.829219
0.829132
0.829067
0.829025
0.829
0.828985
0.828972
0.828959
0.828946
0.82894
0.828947
0.828974
0.829024
0.829097
0.829194
0.829312
0.82942
0.829503
0.829558
0.829583
0.82958
0.829546
0.829488
0.829422
0.829364
0.829328
0.829322
0.829351
0.82941
0.829443
0.829445
0.82943
0.829409
0.829397
0.829399
0.829414
0.829453
0.829504
0.829545
0.829582
0.829619
0.829662
0.829716
0.829784
0.829862
0.829949
0.830039
0.830126
0.830202
0.83026
0.830294
0.830303
0.830291
0.830261
0.830221
0.830176
0.830136
0.830107
0.830097
0.830111
0.830153
0.830221
0.830313
0.830427
0.830559
0.830702
0.830853
0.831018
0.831196
0.831365
0.831507
0.831609
0.831664
0.831669
0.831627
0.831539
0.831415
0.831266
0.831102
0.830939
0.830799
0.830684
0.830591
0.830524
0.83049
0.830471
0.830453
0.830423
0.830375
0.830301
0.830203
0.830057
0.829888
0.829699
0.829519
0.829367
0.82923
0.829127
0.829059
0.829022
0.829018
0.829044
0.829068
0.829092
0.829108
0.829095
0.829075
0.829042
0.829003
0.828942
0.828859
0.82877
0.828677
0.82858
0.828497
0.828438
0.82842
0.82844
0.828496
0.828544
0.828586
0.828623
0.828651
0.828671
0.828703
0.82876
0.828837
0.828948
0.829172
0.829281
13.46
15.2947
16.3325
24.929
23.4848
22.0236
26.0433
32.9751
47.0959
83.6978
326.315
31.5338
9.80101
6.80131
5.00291
5.02392
5.03685
4.2038
4.88158
3.49411
4.65425
1.9239
3.11428
1.43405
1.52757
0.930456
0.844732
0.814627
0.819358
0.822736
0.825013
0.826455
0.827317
0.82781
0.828091
0.828257
0.828369
0.828457
0.828534
0.828602
0.828657
0.828697
0.828726
0.828755
0.82879
0.828842
0.828915
0.829011
0.829143
0.829357
0.829548
0.829636
0.829666
0.829659
0.829635
0.829596
0.82954
0.829476
0.82942
0.829385
0.82938
0.829413
0.829475
0.829507
0.829507
0.82949
0.829468
0.829456
0.829458
0.829476
0.829513
0.829562
0.829602
0.829638
0.829675
0.829718
0.829773
0.829842
0.829922
0.830008
0.830097
0.830182
0.830257
0.830313
0.830345
0.83035
0.830334
0.830297
0.83025
0.8302
0.830154
0.83012
0.830107
0.830117
0.830157
0.830226
0.83032
0.830436
0.830571
0.830717
0.830871
0.831038
0.831219
0.831393
0.831538
0.831644
0.831701
0.831706
0.831663
0.831572
0.831444
0.831292
0.831124
0.830958
0.830816
0.830697
0.830603
0.83054
0.830508
0.830492
0.83048
0.830456
0.830412
0.830339
0.830241
0.830094
0.829925
0.829736
0.829553
0.8294
0.829264
0.829164
0.829102
0.829064
0.829061
0.82909
0.829111
0.829125
0.829127
0.829096
0.829066
0.829027
0.828976
0.828905
0.828825
0.82875
0.828691
0.828651
0.828624
0.828598
0.828571
0.828532
0.828491