/*--------------------------------*- C++ -*----------------------------------*\
| =========                 |                                                 |
| \\      /  F ield         | OpenFOAM: The Open Source CFD Toolbox           |
|  \\    /   O peration     | Version:  v1912                                 |
|   \\  /    A nd           | Website:  www.openfoam.com                      |
|    \\/     M anipulation  |                                                 |
\*---------------------------------------------------------------------------*/
FoamFile
{
    version     2.0;
    format      ascii;
    class       volScalarField;
    location    "20";
    object      k;
}
// * * * * * * * * * * * * * * * * * * * * * * * * * * * * * * * * * * * * * //

dimensions      [0 2 -2 0 0 0 0];


internalField   nonuniform List<scalar> 
14268
(
1.02032e-06
1.0033e-06
9.80395e-07
9.65779e-07
9.54877e-07
9.46621e-07
9.40433e-07
9.35831e-07
9.32572e-07
9.30442e-07
9.29135e-07
9.29061e-07
9.31138e-07
9.36295e-07
9.45248e-07
9.58372e-07
9.75389e-07
9.95491e-07
1.01733e-06
1.03967e-06
1.06102e-06
1.07996e-06
1.09456e-06
1.10527e-06
1.11266e-06
1.1175e-06
1.12023e-06
1.12141e-06
1.12168e-06
1.12154e-06
1.12115e-06
1.12049e-06
1.11957e-06
1.11843e-06
1.1167e-06
1.11407e-06
1.11109e-06
1.10766e-06
1.10361e-06
1.09882e-06
1.09348e-06
1.08804e-06
1.08313e-06
1.07946e-06
1.07669e-06
1.07462e-06
1.07301e-06
1.07156e-06
1.07014e-06
1.06867e-06
1.06716e-06
1.0656e-06
1.06394e-06
1.06215e-06
1.06017e-06
1.05798e-06
1.05577e-06
1.05361e-06
1.05159e-06
1.04973e-06
1.04802e-06
1.04638e-06
1.04477e-06
1.04317e-06
1.0416e-06
1.04006e-06
1.03857e-06
1.03719e-06
1.03651e-06
1.03684e-06
1.03838e-06
1.04116e-06
1.04554e-06
1.05177e-06
1.0598e-06
1.06939e-06
1.08012e-06
1.09177e-06
1.10319e-06
1.11393e-06
1.12338e-06
1.13106e-06
1.13669e-06
1.14019e-06
1.14161e-06
1.14116e-06
1.13958e-06
1.1379e-06
1.13608e-06
1.13401e-06
1.13173e-06
1.12928e-06
1.12676e-06
1.12419e-06
1.12157e-06
1.11891e-06
1.11625e-06
1.11292e-06
1.1094e-06
1.10553e-06
1.10145e-06
1.09729e-06
1.09274e-06
1.08809e-06
1.08334e-06
1.07857e-06
1.07381e-06
1.06906e-06
1.06432e-06
1.05958e-06
1.05486e-06
1.05014e-06
1.04542e-06
1.0409e-06
1.03685e-06
1.03329e-06
1.03012e-06
1.02703e-06
1.02414e-06
1.02101e-06
1.01732e-06
1.01341e-06
1.00958e-06
1.00575e-06
1.00191e-06
9.98118e-07
9.94331e-07
9.90556e-07
9.86859e-07
9.833e-07
9.79882e-07
9.76564e-07
9.73561e-07
9.71905e-07
9.7174e-07
9.73031e-07
9.756e-07
9.79238e-07
9.83697e-07
9.887e-07
9.9397e-07
9.9923e-07
1.00422e-06
1.0087e-06
1.01243e-06
1.0152e-06
1.01686e-06
1.01728e-06
1.01637e-06
1.01422e-06
1.01204e-06
1.00988e-06
1.00773e-06
1.00561e-06
1.00352e-06
1.00157e-06
9.9979e-07
9.98028e-07
9.96447e-07
9.95086e-07
9.93841e-07
9.92454e-07
9.91024e-07
9.89929e-07
2.1083e-07
2.4359e-07
2.64937e-07
2.75454e-07
2.79574e-07
2.80947e-07
2.81111e-07
2.80894e-07
2.80975e-07
2.81758e-07
2.83038e-07
2.84142e-07
2.85073e-07
2.86156e-07
2.87588e-07
2.89195e-07
2.9025e-07
2.90556e-07
2.90532e-07
2.90755e-07
2.91226e-07
2.92159e-07
2.93619e-07
2.95334e-07
2.97134e-07
2.99105e-07
3.01344e-07
3.03802e-07
3.06402e-07
3.09109e-07
3.11868e-07
3.14645e-07
3.17454e-07
3.20236e-07
3.22917e-07
3.25262e-07
3.26592e-07
3.2665e-07
3.25344e-07
3.22883e-07
3.19798e-07
3.1682e-07
3.14049e-07
3.1006e-07
3.06306e-07
3.03358e-07
3.01351e-07
3.0019e-07
2.99633e-07
2.99385e-07
2.99277e-07
2.98676e-07
2.97509e-07
2.95695e-07
2.93706e-07
2.91666e-07
2.88943e-07
2.85897e-07
2.82818e-07
2.79891e-07
2.7723e-07
2.749e-07
2.72945e-07
2.71404e-07
2.70298e-07
2.69655e-07
2.6956e-07
2.70083e-07
2.70771e-07
2.71616e-07
2.72696e-07
2.74105e-07
2.75838e-07
2.77867e-07
2.80184e-07
2.82814e-07
2.8568e-07
2.88704e-07
2.91813e-07
2.94939e-07
2.97883e-07
3.00556e-07
3.02873e-07
3.04752e-07
3.06144e-07
3.07062e-07
3.0712e-07
3.0557e-07
3.02619e-07
2.98682e-07
2.94094e-07
2.89227e-07
2.84462e-07
2.79685e-07
2.7473e-07
2.7043e-07
2.6687e-07
2.64076e-07
2.62279e-07
2.61514e-07
2.61776e-07
2.63341e-07
2.65925e-07
2.68747e-07
2.71741e-07
2.74761e-07
2.77732e-07
2.80559e-07
2.8327e-07
2.85909e-07
2.88599e-07
2.91531e-07
2.94837e-07
2.9848e-07
3.02304e-07
3.06329e-07
3.10539e-07
3.1485e-07
3.19142e-07
3.23291e-07
3.27249e-07
3.30434e-07
3.32334e-07
3.32929e-07
3.32224e-07
3.30351e-07
3.28089e-07
3.25461e-07
3.2306e-07
3.21303e-07
3.20577e-07
3.21251e-07
3.23268e-07
3.25867e-07
3.29035e-07
3.32794e-07
3.37154e-07
3.42115e-07
3.47655e-07
3.53729e-07
3.60278e-07
3.67209e-07
3.74395e-07
3.81669e-07
3.88831e-07
3.95682e-07
4.01955e-07
4.07392e-07
4.11688e-07
4.14413e-07
4.147e-07
4.12326e-07
4.07256e-07
3.99852e-07
3.90522e-07
3.79705e-07
3.67865e-07
3.55582e-07
3.43213e-07
3.31289e-07
3.20183e-07
3.10401e-07
3.01836e-07
2.9498e-07
1.74561e-07
2.03776e-07
2.11245e-07
2.1351e-07
2.13728e-07
2.13323e-07
2.12645e-07
2.11934e-07
2.11308e-07
2.10848e-07
2.10564e-07
2.10375e-07
2.10304e-07
2.10513e-07
2.11043e-07
2.1183e-07
2.12797e-07
2.13896e-07
2.15136e-07
2.16508e-07
2.1786e-07
2.19237e-07
2.20603e-07
2.21775e-07
2.22685e-07
2.23348e-07
2.23822e-07
2.24213e-07
2.24607e-07
2.25077e-07
2.25698e-07
2.26506e-07
2.27424e-07
2.28317e-07
2.29096e-07
2.29669e-07
2.29868e-07
2.29587e-07
2.28765e-07
2.27496e-07
2.25947e-07
2.24326e-07
2.22788e-07
2.21258e-07
2.20045e-07
2.19265e-07
2.18831e-07
2.18655e-07
2.18643e-07
2.18693e-07
2.18705e-07
2.18569e-07
2.18281e-07
2.17821e-07
2.17232e-07
2.16557e-07
2.15813e-07
2.15081e-07
2.14409e-07
2.13823e-07
2.13325e-07
2.12918e-07
2.12611e-07
2.12403e-07
2.1227e-07
2.12195e-07
2.12192e-07
2.12288e-07
2.12455e-07
2.12714e-07
2.13096e-07
2.13638e-07
2.1435e-07
2.15234e-07
2.16286e-07
2.175e-07
2.18821e-07
2.20203e-07
2.21635e-07
2.2303e-07
2.24276e-07
2.25299e-07
2.26035e-07
2.26447e-07
2.26531e-07
2.26321e-07
2.25811e-07
2.2499e-07
2.23949e-07
2.2278e-07
2.21565e-07
2.20371e-07
2.19242e-07
2.18179e-07
2.17248e-07
2.16539e-07
2.16011e-07
2.15599e-07
2.15344e-07
2.15249e-07
2.15232e-07
2.15356e-07
2.15583e-07
2.15875e-07
2.16209e-07
2.16554e-07
2.16899e-07
2.17223e-07
2.17534e-07
2.17831e-07
2.18142e-07
2.18505e-07
2.1895e-07
2.1949e-07
2.20113e-07
2.20836e-07
2.21662e-07
2.22543e-07
2.23405e-07
2.24234e-07
2.25014e-07
2.25649e-07
2.26025e-07
2.26109e-07
2.25883e-07
2.25363e-07
2.24717e-07
2.24069e-07
2.23525e-07
2.23153e-07
2.23017e-07
2.23178e-07
2.23621e-07
2.24207e-07
2.24931e-07
2.25805e-07
2.26843e-07
2.28054e-07
2.29449e-07
2.31033e-07
2.32807e-07
2.34758e-07
2.36851e-07
2.39039e-07
2.41252e-07
2.43402e-07
2.45379e-07
2.47063e-07
2.48331e-07
2.4903e-07
2.4891e-07
2.47902e-07
2.46065e-07
2.4358e-07
2.40653e-07
2.3748e-07
2.34327e-07
2.31425e-07
2.28784e-07
2.26543e-07
2.24777e-07
2.23521e-07
2.22459e-07
2.2172e-07
1.70343e-07
1.98969e-07
2.05682e-07
2.07495e-07
2.07524e-07
2.07089e-07
2.0661e-07
2.06176e-07
2.05799e-07
2.05528e-07
2.05448e-07
2.05711e-07
2.06243e-07
2.0691e-07
2.07766e-07
2.08793e-07
2.09934e-07
2.11139e-07
2.12388e-07
2.13631e-07
2.14826e-07
2.15929e-07
2.16925e-07
2.17705e-07
2.18242e-07
2.18568e-07
2.18735e-07
2.18819e-07
2.18891e-07
2.19008e-07
2.19186e-07
2.19411e-07
2.19686e-07
2.19985e-07
2.20233e-07
2.20351e-07
2.20285e-07
2.19993e-07
2.19485e-07
2.18816e-07
2.18071e-07
2.17344e-07
2.16708e-07
2.16148e-07
2.15694e-07
2.15469e-07
2.15419e-07
2.15454e-07
2.15529e-07
2.15611e-07
2.15664e-07
2.15655e-07
2.15622e-07
2.1557e-07
2.15497e-07
2.15413e-07
2.1534e-07
2.15299e-07
2.15302e-07
2.15342e-07
2.154e-07
2.1547e-07
2.15557e-07
2.15692e-07
2.15838e-07
2.15977e-07
2.16109e-07
2.16234e-07
2.16371e-07
2.16522e-07
2.16684e-07
2.16852e-07
2.17034e-07
2.17235e-07
2.17455e-07
2.17699e-07
2.17955e-07
2.18216e-07
2.18479e-07
2.1872e-07
2.18907e-07
2.19033e-07
2.19086e-07
2.19064e-07
2.18966e-07
2.18806e-07
2.18583e-07
2.18309e-07
2.18e-07
2.17687e-07
2.17388e-07
2.17121e-07
2.16883e-07
2.16676e-07
2.16493e-07
2.16427e-07
2.16442e-07
2.16482e-07
2.16502e-07
2.16539e-07
2.16547e-07
2.16531e-07
2.16548e-07
2.16563e-07
2.16582e-07
2.16605e-07
2.16631e-07
2.1666e-07
2.16691e-07
2.16722e-07
2.16758e-07
2.16805e-07
2.16856e-07
2.16917e-07
2.16986e-07
2.17073e-07
2.17184e-07
2.17279e-07
2.17332e-07
2.17359e-07
2.1739e-07
2.17434e-07
2.17487e-07
2.17543e-07
2.17577e-07
2.17554e-07
2.17558e-07
2.17622e-07
2.1774e-07
2.1789e-07
2.18057e-07
2.18225e-07
2.18384e-07
2.18528e-07
2.18653e-07
2.18764e-07
2.18871e-07
2.18984e-07
2.19111e-07
2.19265e-07
2.19457e-07
2.19689e-07
2.19953e-07
2.20241e-07
2.20541e-07
2.20843e-07
2.21139e-07
2.21411e-07
2.21633e-07
2.21749e-07
2.21678e-07
2.21392e-07
2.2092e-07
2.20349e-07
2.19737e-07
2.19147e-07
2.1868e-07
2.18412e-07
2.18249e-07
2.18252e-07
2.18399e-07
2.18678e-07
2.1885e-07
2.19028e-07
1.6863e-07
1.97516e-07
2.04423e-07
2.06529e-07
2.06803e-07
2.06676e-07
2.0652e-07
2.06472e-07
2.06543e-07
2.06724e-07
2.07031e-07
2.07473e-07
2.08048e-07
2.08713e-07
2.09472e-07
2.10326e-07
2.11264e-07
2.1226e-07
2.13289e-07
2.14296e-07
2.15284e-07
2.16178e-07
2.16958e-07
2.17558e-07
2.17946e-07
2.18178e-07
2.18314e-07
2.184e-07
2.18491e-07
2.18621e-07
2.18774e-07
2.18932e-07
2.19145e-07
2.19414e-07
2.19642e-07
2.19746e-07
2.19688e-07
2.19446e-07
2.19035e-07
2.18499e-07
2.17905e-07
2.17323e-07
2.16812e-07
2.1639e-07
2.16029e-07
2.15771e-07
2.15669e-07
2.15672e-07
2.15715e-07
2.15771e-07
2.15805e-07
2.15766e-07
2.15689e-07
2.1558e-07
2.15441e-07
2.15286e-07
2.15125e-07
2.14975e-07
2.14846e-07
2.14741e-07
2.14652e-07
2.14573e-07
2.14514e-07
2.14497e-07
2.14517e-07
2.14547e-07
2.14595e-07
2.14667e-07
2.14763e-07
2.14888e-07
2.1505e-07
2.15255e-07
2.1551e-07
2.15821e-07
2.16193e-07
2.16631e-07
2.17115e-07
2.17634e-07
2.1818e-07
2.18717e-07
2.19193e-07
2.19573e-07
2.19826e-07
2.19935e-07
2.199e-07
2.19731e-07
2.1946e-07
2.19118e-07
2.18726e-07
2.18313e-07
2.17895e-07
2.17493e-07
2.17111e-07
2.16757e-07
2.16414e-07
2.16179e-07
2.16035e-07
2.15926e-07
2.15823e-07
2.15744e-07
2.15692e-07
2.15687e-07
2.15712e-07
2.1574e-07
2.15772e-07
2.15796e-07
2.15805e-07
2.15802e-07
2.15786e-07
2.15767e-07
2.15754e-07
2.15757e-07
2.15781e-07
2.15834e-07
2.15917e-07
2.16036e-07
2.16197e-07
2.16348e-07
2.16463e-07
2.16538e-07
2.1659e-07
2.16619e-07
2.16622e-07
2.16589e-07
2.165e-07
2.16323e-07
2.16162e-07
2.16043e-07
2.15978e-07
2.15967e-07
2.16015e-07
2.16116e-07
2.1626e-07
2.16419e-07
2.16584e-07
2.16759e-07
2.16952e-07
2.1717e-07
2.1742e-07
2.17713e-07
2.18058e-07
2.18456e-07
2.1889e-07
2.19353e-07
2.19826e-07
2.20273e-07
2.20656e-07
2.20935e-07
2.2108e-07
2.21078e-07
2.20919e-07
2.20612e-07
2.20189e-07
2.19689e-07
2.19144e-07
2.18601e-07
2.18131e-07
2.17801e-07
2.1752e-07
2.17372e-07
2.17342e-07
2.17463e-07
2.17497e-07
2.17589e-07
1.69783e-07
1.99537e-07
2.06954e-07
2.09423e-07
2.09972e-07
2.10098e-07
2.10177e-07
2.10373e-07
2.10634e-07
2.10942e-07
2.11256e-07
2.11566e-07
2.11898e-07
2.12276e-07
2.12694e-07
2.13156e-07
2.13672e-07
2.1424e-07
2.14858e-07
2.15501e-07
2.1618e-07
2.16827e-07
2.17389e-07
2.17841e-07
2.18149e-07
2.18341e-07
2.18458e-07
2.18541e-07
2.18629e-07
2.18729e-07
2.18819e-07
2.18901e-07
2.19017e-07
2.19194e-07
2.19364e-07
2.19424e-07
2.19339e-07
2.19094e-07
2.18715e-07
2.18244e-07
2.17741e-07
2.17263e-07
2.16851e-07
2.16528e-07
2.16291e-07
2.1611e-07
2.15999e-07
2.15982e-07
2.16014e-07
2.16059e-07
2.16087e-07
2.16051e-07
2.15989e-07
2.1592e-07
2.15847e-07
2.15776e-07
2.15718e-07
2.15681e-07
2.1567e-07
2.15683e-07
2.15707e-07
2.15732e-07
2.15758e-07
2.158e-07
2.15883e-07
2.15977e-07
2.16078e-07
2.16184e-07
2.16298e-07
2.16426e-07
2.16569e-07
2.16726e-07
2.16899e-07
2.17094e-07
2.17316e-07
2.17569e-07
2.17842e-07
2.1813e-07
2.18429e-07
2.18718e-07
2.1896e-07
2.19134e-07
2.19222e-07
2.19218e-07
2.19118e-07
2.18937e-07
2.18709e-07
2.18429e-07
2.18116e-07
2.17801e-07
2.17502e-07
2.1723e-07
2.16995e-07
2.16796e-07
2.16621e-07
2.16517e-07
2.16499e-07
2.16522e-07
2.1655e-07
2.16531e-07
2.16488e-07
2.16515e-07
2.16547e-07
2.16572e-07
2.16594e-07
2.16608e-07
2.16612e-07
2.16616e-07
2.16615e-07
2.16617e-07
2.16627e-07
2.16646e-07
2.1667e-07
2.16701e-07
2.16745e-07
2.168e-07
2.16873e-07
2.16916e-07
2.16918e-07
2.16883e-07
2.16828e-07
2.16803e-07
2.16793e-07
2.16797e-07
2.16798e-07
2.16769e-07
2.16807e-07
2.16913e-07
2.1708e-07
2.17283e-07
2.17497e-07
2.17694e-07
2.17861e-07
2.18004e-07
2.18118e-07
2.18205e-07
2.18275e-07
2.18334e-07
2.18391e-07
2.1846e-07
2.1855e-07
2.18662e-07
2.18797e-07
2.18949e-07
2.19098e-07
2.19229e-07
2.19328e-07
2.19379e-07
2.19369e-07
2.19288e-07
2.19094e-07
2.18803e-07
2.18446e-07
2.18061e-07
2.17679e-07
2.1735e-07
2.17139e-07
2.1711e-07
2.17167e-07
2.17357e-07
2.1767e-07
2.18087e-07
2.18391e-07
2.18712e-07
1.7132e-07
2.01639e-07
2.09334e-07
2.11944e-07
2.12545e-07
2.12675e-07
2.12729e-07
2.12859e-07
2.13049e-07
2.13298e-07
2.13544e-07
2.13793e-07
2.14049e-07
2.14316e-07
2.14588e-07
2.1487e-07
2.15177e-07
2.15524e-07
2.15923e-07
2.16366e-07
2.16864e-07
2.17353e-07
2.17773e-07
2.18114e-07
2.18345e-07
2.18486e-07
2.18573e-07
2.18643e-07
2.18723e-07
2.18805e-07
2.18871e-07
2.18931e-07
2.1901e-07
2.19126e-07
2.19257e-07
2.19308e-07
2.19228e-07
2.19002e-07
2.18657e-07
2.18238e-07
2.17798e-07
2.17393e-07
2.17056e-07
2.16797e-07
2.16619e-07
2.16507e-07
2.16432e-07
2.16397e-07
2.16414e-07
2.16452e-07
2.16478e-07
2.16439e-07
2.1637e-07
2.16293e-07
2.16213e-07
2.16138e-07
2.16075e-07
2.1603e-07
2.16006e-07
2.16e-07
2.16007e-07
2.16011e-07
2.16006e-07
2.15998e-07
2.16032e-07
2.16101e-07
2.16183e-07
2.16278e-07
2.16382e-07
2.16498e-07
2.16629e-07
2.16772e-07
2.16931e-07
2.17111e-07
2.17318e-07
2.17559e-07
2.17827e-07
2.18117e-07
2.18425e-07
2.18727e-07
2.18988e-07
2.19183e-07
2.1929e-07
2.19301e-07
2.19211e-07
2.19033e-07
2.18812e-07
2.18538e-07
2.18234e-07
2.17925e-07
2.17631e-07
2.17361e-07
2.17123e-07
2.16913e-07
2.16728e-07
2.16581e-07
2.16516e-07
2.16496e-07
2.165e-07
2.16461e-07
2.16403e-07
2.1642e-07
2.16455e-07
2.16487e-07
2.16515e-07
2.16532e-07
2.16534e-07
2.16533e-07
2.16522e-07
2.16513e-07
2.16514e-07
2.16528e-07
2.16559e-07
2.16607e-07
2.16677e-07
2.16766e-07
2.16877e-07
2.16962e-07
2.17008e-07
2.17007e-07
2.16982e-07
2.16962e-07
2.16944e-07
2.16913e-07
2.16854e-07
2.16753e-07
2.16701e-07
2.16698e-07
2.16749e-07
2.16847e-07
2.16987e-07
2.17156e-07
2.17342e-07
2.17514e-07
2.17668e-07
2.17804e-07
2.17932e-07
2.1806e-07
2.18199e-07
2.18364e-07
2.18565e-07
2.18801e-07
2.19062e-07
2.19338e-07
2.19616e-07
2.19873e-07
2.20079e-07
2.20204e-07
2.20222e-07
2.20121e-07
2.19906e-07
2.19595e-07
2.19214e-07
2.18802e-07
2.18389e-07
2.18011e-07
2.17726e-07
2.17578e-07
2.17478e-07
2.1749e-07
2.17604e-07
2.17818e-07
2.17929e-07
2.18094e-07
1.72099e-07
2.02812e-07
2.10791e-07
2.13556e-07
2.1423e-07
2.14398e-07
2.14478e-07
2.14597e-07
2.1477e-07
2.14989e-07
2.15203e-07
2.15414e-07
2.15618e-07
2.15815e-07
2.15992e-07
2.16151e-07
2.16308e-07
2.16491e-07
2.16725e-07
2.17013e-07
2.1737e-07
2.17734e-07
2.18049e-07
2.18307e-07
2.18478e-07
2.18577e-07
2.18636e-07
2.1869e-07
2.18759e-07
2.18834e-07
2.18897e-07
2.18953e-07
2.19012e-07
2.19085e-07
2.19173e-07
2.19214e-07
2.19138e-07
2.1892e-07
2.18593e-07
2.18203e-07
2.17802e-07
2.17438e-07
2.17139e-07
2.16918e-07
2.16774e-07
2.16698e-07
2.16671e-07
2.16657e-07
2.16663e-07
2.16697e-07
2.16724e-07
2.1669e-07
2.16619e-07
2.16543e-07
2.16474e-07
2.16417e-07
2.16378e-07
2.16361e-07
2.16365e-07
2.16388e-07
2.16423e-07
2.16458e-07
2.16484e-07
2.16506e-07
2.16543e-07
2.16617e-07
2.16719e-07
2.16834e-07
2.16951e-07
2.17075e-07
2.17207e-07
2.17342e-07
2.17481e-07
2.17626e-07
2.17785e-07
2.17963e-07
2.18159e-07
2.18372e-07
2.18598e-07
2.18818e-07
2.19002e-07
2.19127e-07
2.19176e-07
2.19142e-07
2.19019e-07
2.18826e-07
2.18605e-07
2.18341e-07
2.18049e-07
2.1776e-07
2.17489e-07
2.17249e-07
2.17047e-07
2.16881e-07
2.16748e-07
2.16638e-07
2.16604e-07
2.16616e-07
2.1667e-07
2.16662e-07
2.16634e-07
2.16659e-07
2.16701e-07
2.16741e-07
2.16769e-07
2.16784e-07
2.16786e-07
2.16784e-07
2.16778e-07
2.16778e-07
2.1679e-07
2.16816e-07
2.16854e-07
2.16904e-07
2.1697e-07
2.17049e-07
2.17135e-07
2.17188e-07
2.17196e-07
2.17164e-07
2.17089e-07
2.17046e-07
2.1702e-07
2.16997e-07
2.16962e-07
2.16925e-07
2.16958e-07
2.17063e-07
2.17234e-07
2.17456e-07
2.17705e-07
2.17954e-07
2.18181e-07
2.18382e-07
2.18552e-07
2.18688e-07
2.18801e-07
2.18895e-07
2.18981e-07
2.19075e-07
2.19184e-07
2.19314e-07
2.19457e-07
2.19606e-07
2.19756e-07
2.19888e-07
2.19979e-07
2.20009e-07
2.19962e-07
2.19821e-07
2.19579e-07
2.19244e-07
2.18841e-07
2.18418e-07
2.18007e-07
2.17645e-07
2.17398e-07
2.17309e-07
2.173e-07
2.17439e-07
2.17711e-07
2.18096e-07
2.18386e-07
2.18724e-07
1.72417e-07
2.03414e-07
2.11698e-07
2.14639e-07
2.15402e-07
2.15621e-07
2.15737e-07
2.15859e-07
2.16034e-07
2.16228e-07
2.1642e-07
2.16607e-07
2.16777e-07
2.1693e-07
2.17046e-07
2.1712e-07
2.17169e-07
2.17232e-07
2.1734e-07
2.17507e-07
2.17752e-07
2.18009e-07
2.18245e-07
2.18443e-07
2.18565e-07
2.18627e-07
2.18663e-07
2.18705e-07
2.18769e-07
2.18837e-07
2.18901e-07
2.18969e-07
2.19027e-07
2.19073e-07
2.19118e-07
2.19138e-07
2.19067e-07
2.18857e-07
2.18536e-07
2.18157e-07
2.17776e-07
2.17436e-07
2.17165e-07
2.16971e-07
2.16851e-07
2.16796e-07
2.16794e-07
2.16819e-07
2.16832e-07
2.16865e-07
2.16894e-07
2.16869e-07
2.16796e-07
2.16719e-07
2.16654e-07
2.16609e-07
2.16587e-07
2.1659e-07
2.16614e-07
2.16653e-07
2.167e-07
2.16747e-07
2.16788e-07
2.16819e-07
2.16847e-07
2.16902e-07
2.17006e-07
2.17131e-07
2.17256e-07
2.17387e-07
2.17523e-07
2.17657e-07
2.17787e-07
2.17917e-07
2.18051e-07
2.18198e-07
2.18355e-07
2.18527e-07
2.1871e-07
2.18889e-07
2.19034e-07
2.19125e-07
2.19144e-07
2.19085e-07
2.18944e-07
2.18739e-07
2.18515e-07
2.18257e-07
2.17974e-07
2.17695e-07
2.17437e-07
2.17209e-07
2.1702e-07
2.16868e-07
2.1675e-07
2.16648e-07
2.1661e-07
2.16625e-07
2.16678e-07
2.16674e-07
2.16675e-07
2.16694e-07
2.16743e-07
2.16789e-07
2.16823e-07
2.16839e-07
2.16838e-07
2.1683e-07
2.16817e-07
2.16812e-07
2.16823e-07
2.16852e-07
2.16899e-07
2.16963e-07
2.17044e-07
2.17141e-07
2.17237e-07
2.17306e-07
2.17321e-07
2.17276e-07
2.17184e-07
2.17143e-07
2.17096e-07
2.17057e-07
2.16995e-07
2.16942e-07
2.16952e-07
2.17032e-07
2.1718e-07
2.17386e-07
2.17635e-07
2.17907e-07
2.18174e-07
2.18415e-07
2.18622e-07
2.18793e-07
2.18938e-07
2.19063e-07
2.19178e-07
2.19302e-07
2.19443e-07
2.19607e-07
2.1979e-07
2.19978e-07
2.20161e-07
2.20324e-07
2.20441e-07
2.20483e-07
2.20429e-07
2.20258e-07
2.19985e-07
2.19617e-07
2.19182e-07
2.18726e-07
2.18285e-07
2.17892e-07
2.17612e-07
2.17482e-07
2.1742e-07
2.17493e-07
2.17677e-07
2.17975e-07
2.18176e-07
2.1844e-07
1.72406e-07
2.03622e-07
2.12239e-07
2.15363e-07
2.16227e-07
2.16502e-07
2.16657e-07
2.16807e-07
2.17001e-07
2.17176e-07
2.17347e-07
2.17524e-07
2.17683e-07
2.17812e-07
2.17885e-07
2.17901e-07
2.17874e-07
2.17844e-07
2.17848e-07
2.17905e-07
2.18045e-07
2.18207e-07
2.18372e-07
2.18523e-07
2.18608e-07
2.18644e-07
2.18664e-07
2.18696e-07
2.18745e-07
2.18799e-07
2.18874e-07
2.18974e-07
2.19062e-07
2.19102e-07
2.19102e-07
2.19082e-07
2.18998e-07
2.18794e-07
2.18474e-07
2.18096e-07
2.17723e-07
2.17398e-07
2.17146e-07
2.16974e-07
2.16876e-07
2.16837e-07
2.16849e-07
2.16905e-07
2.16943e-07
2.16982e-07
2.1701e-07
2.17e-07
2.16923e-07
2.16843e-07
2.16781e-07
2.16747e-07
2.16743e-07
2.16768e-07
2.16815e-07
2.16876e-07
2.16943e-07
2.17008e-07
2.17068e-07
2.17121e-07
2.17171e-07
2.1724e-07
2.17344e-07
2.17481e-07
2.17623e-07
2.17779e-07
2.17939e-07
2.18089e-07
2.18224e-07
2.18344e-07
2.18457e-07
2.18566e-07
2.18679e-07
2.18799e-07
2.18922e-07
2.19038e-07
2.19125e-07
2.19164e-07
2.19139e-07
2.19042e-07
2.18872e-07
2.18648e-07
2.18411e-07
2.18152e-07
2.17872e-07
2.17597e-07
2.17347e-07
2.1713e-07
2.16954e-07
2.16817e-07
2.16714e-07
2.16631e-07
2.16603e-07
2.16643e-07
2.16693e-07
2.16707e-07
2.16734e-07
2.16739e-07
2.1681e-07
2.16868e-07
2.16911e-07
2.16935e-07
2.16939e-07
2.16932e-07
2.16921e-07
2.16918e-07
2.16936e-07
2.16974e-07
2.17035e-07
2.17114e-07
2.17205e-07
2.17314e-07
2.17418e-07
2.1747e-07
2.17461e-07
2.17352e-07
2.17307e-07
2.17259e-07
2.1718e-07
2.17125e-07
2.17064e-07
2.17037e-07
2.17087e-07
2.17225e-07
2.17446e-07
2.17738e-07
2.18073e-07
2.18422e-07
2.18744e-07
2.1903e-07
2.19269e-07
2.19457e-07
2.19608e-07
2.19726e-07
2.19818e-07
2.19909e-07
2.2001e-07
2.20126e-07
2.20253e-07
2.20375e-07
2.20491e-07
2.20589e-07
2.20646e-07
2.20633e-07
2.2053e-07
2.20317e-07
2.20005e-07
2.196e-07
2.19132e-07
2.18644e-07
2.18181e-07
2.17777e-07
2.17499e-07
2.17384e-07
2.17357e-07
2.17481e-07
2.17728e-07
2.18108e-07
2.18419e-07
2.1882e-07
1.72247e-07
2.03572e-07
2.12521e-07
2.15849e-07
2.1682e-07
2.17154e-07
2.17353e-07
2.17552e-07
2.17766e-07
2.17921e-07
2.18081e-07
2.18246e-07
2.18426e-07
2.18557e-07
2.18604e-07
2.18585e-07
2.18506e-07
2.18399e-07
2.18307e-07
2.18253e-07
2.18289e-07
2.18363e-07
2.18459e-07
2.18566e-07
2.18631e-07
2.18642e-07
2.18636e-07
2.18643e-07
2.18666e-07
2.18717e-07
2.18819e-07
2.18968e-07
2.19107e-07
2.1917e-07
2.19142e-07
2.19051e-07
2.1893e-07
2.1872e-07
2.184e-07
2.18022e-07
2.17651e-07
2.17335e-07
2.17097e-07
2.16944e-07
2.16865e-07
2.16844e-07
2.16866e-07
2.16941e-07
2.17011e-07
2.17063e-07
2.17089e-07
2.1709e-07
2.17012e-07
2.16927e-07
2.16867e-07
2.16843e-07
2.16857e-07
2.16904e-07
2.16976e-07
2.1706e-07
2.17147e-07
2.17228e-07
2.17302e-07
2.17369e-07
2.17447e-07
2.17532e-07
2.17647e-07
2.17786e-07
2.17951e-07
2.18134e-07
2.18323e-07
2.185e-07
2.18653e-07
2.18774e-07
2.18869e-07
2.18947e-07
2.19019e-07
2.19093e-07
2.19165e-07
2.19226e-07
2.19256e-07
2.19241e-07
2.19167e-07
2.19028e-07
2.18824e-07
2.18573e-07
2.18313e-07
2.1805e-07
2.17768e-07
2.17494e-07
2.17249e-07
2.17042e-07
2.16878e-07
2.16753e-07
2.16661e-07
2.16598e-07
2.16588e-07
2.16638e-07
2.16659e-07
2.1669e-07
2.16727e-07
2.16717e-07
2.16812e-07
2.16875e-07
2.16923e-07
2.16949e-07
2.16959e-07
2.16958e-07
2.16955e-07
2.16961e-07
2.16989e-07
2.17041e-07
2.17118e-07
2.17221e-07
2.17331e-07
2.17451e-07
2.17565e-07
2.17582e-07
2.17557e-07
2.17478e-07
2.17446e-07
2.17377e-07
2.17276e-07
2.17176e-07
2.171e-07
2.17073e-07
2.17126e-07
2.17279e-07
2.17525e-07
2.17851e-07
2.1823e-07
2.18635e-07
2.19018e-07
2.19359e-07
2.19645e-07
2.19864e-07
2.20041e-07
2.20175e-07
2.20273e-07
2.20361e-07
2.2046e-07
2.20572e-07
2.20693e-07
2.20808e-07
2.20908e-07
2.20986e-07
2.21018e-07
2.20976e-07
2.20836e-07
2.20582e-07
2.20232e-07
2.19792e-07
2.1929e-07
2.18769e-07
2.18273e-07
2.17837e-07
2.17533e-07
2.17393e-07
2.17345e-07
2.17445e-07
2.17655e-07
2.17993e-07
2.1828e-07
2.1867e-07
1.71895e-07
2.03313e-07
2.12581e-07
2.16157e-07
2.17249e-07
2.17653e-07
2.1792e-07
2.18187e-07
2.18421e-07
2.18553e-07
2.18684e-07
2.1886e-07
2.19061e-07
2.19213e-07
2.19264e-07
2.19233e-07
2.19121e-07
2.18942e-07
2.18756e-07
2.18591e-07
2.18525e-07
2.18504e-07
2.1853e-07
2.18606e-07
2.18655e-07
2.18628e-07
2.18569e-07
2.18534e-07
2.18536e-07
2.18601e-07
2.18749e-07
2.1896e-07
2.1916e-07
2.19269e-07
2.19244e-07
2.19084e-07
2.18863e-07
2.18627e-07
2.18305e-07
2.17925e-07
2.17555e-07
2.17244e-07
2.1702e-07
2.16887e-07
2.16829e-07
2.16828e-07
2.16862e-07
2.1695e-07
2.17052e-07
2.17129e-07
2.17153e-07
2.17152e-07
2.17083e-07
2.16988e-07
2.16926e-07
2.1691e-07
2.16942e-07
2.17014e-07
2.17114e-07
2.17225e-07
2.17334e-07
2.17434e-07
2.17522e-07
2.17607e-07
2.17704e-07
2.17824e-07
2.17965e-07
2.18135e-07
2.1832e-07
2.18535e-07
2.18755e-07
2.18956e-07
2.19122e-07
2.19249e-07
2.19337e-07
2.19391e-07
2.19423e-07
2.19444e-07
2.19455e-07
2.19455e-07
2.1942e-07
2.19344e-07
2.19215e-07
2.19029e-07
2.18785e-07
2.18501e-07
2.18214e-07
2.1794e-07
2.17652e-07
2.17375e-07
2.17132e-07
2.16933e-07
2.16778e-07
2.16662e-07
2.16584e-07
2.16544e-07
2.16559e-07
2.16615e-07
2.16614e-07
2.16666e-07
2.16729e-07
2.16764e-07
2.16798e-07
2.16889e-07
2.16943e-07
2.1697e-07
2.16975e-07
2.16967e-07
2.16964e-07
2.16981e-07
2.17028e-07
2.17108e-07
2.17219e-07
2.17358e-07
2.17492e-07
2.17603e-07
2.17697e-07
2.17748e-07
2.17717e-07
2.17664e-07
2.17607e-07
2.17513e-07
2.17389e-07
2.17257e-07
2.17166e-07
2.17143e-07
2.17218e-07
2.17416e-07
2.17729e-07
2.18141e-07
2.18613e-07
2.19109e-07
2.19568e-07
2.19972e-07
2.20306e-07
2.20549e-07
2.20743e-07
2.20876e-07
2.20968e-07
2.21031e-07
2.21105e-07
2.21187e-07
2.21275e-07
2.21356e-07
2.21417e-07
2.21448e-07
2.2143e-07
2.21335e-07
2.21147e-07
2.20843e-07
2.2044e-07
2.19944e-07
2.19391e-07
2.18823e-07
2.18291e-07
2.17829e-07
2.17511e-07
2.17365e-07
2.1733e-07
2.17458e-07
2.17715e-07
2.1811e-07
2.18476e-07
2.18958e-07
1.71334e-07
2.02837e-07
2.12503e-07
2.16327e-07
2.17544e-07
2.18036e-07
2.18388e-07
2.18719e-07
2.18958e-07
2.19082e-07
2.19224e-07
2.19424e-07
2.1965e-07
2.19824e-07
2.19893e-07
2.19856e-07
2.19716e-07
2.19486e-07
2.19216e-07
2.18991e-07
2.1879e-07
2.18661e-07
2.18608e-07
2.18631e-07
2.18651e-07
2.18572e-07
2.18451e-07
2.18373e-07
2.18365e-07
2.18461e-07
2.18675e-07
2.1896e-07
2.19223e-07
2.19389e-07
2.19394e-07
2.19211e-07
2.18878e-07
2.18492e-07
2.18171e-07
2.17793e-07
2.17423e-07
2.1712e-07
2.16909e-07
2.16798e-07
2.16766e-07
2.16793e-07
2.16849e-07
2.16943e-07
2.17072e-07
2.17178e-07
2.17193e-07
2.17174e-07
2.17124e-07
2.17019e-07
2.16957e-07
2.16954e-07
2.17009e-07
2.17113e-07
2.17246e-07
2.17388e-07
2.17524e-07
2.17643e-07
2.17746e-07
2.17848e-07
2.17965e-07
2.18101e-07
2.18288e-07
2.18502e-07
2.18733e-07
2.18988e-07
2.19241e-07
2.19469e-07
2.19657e-07
2.19793e-07
2.19876e-07
2.19909e-07
2.19897e-07
2.19867e-07
2.19799e-07
2.19714e-07
2.19606e-07
2.19461e-07
2.19269e-07
2.19028e-07
2.18737e-07
2.18417e-07
2.18101e-07
2.1781e-07
2.17514e-07
2.17234e-07
2.16992e-07
2.16801e-07
2.16656e-07
2.16554e-07
2.16494e-07
2.16478e-07
2.16499e-07
2.16537e-07
2.16553e-07
2.16627e-07
2.16715e-07
2.16786e-07
2.1676e-07
2.16884e-07
2.16961e-07
2.16992e-07
2.16994e-07
2.16978e-07
2.16969e-07
2.16986e-07
2.17045e-07
2.1715e-07
2.17303e-07
2.17481e-07
2.17651e-07
2.17807e-07
2.17927e-07
2.17994e-07
2.17965e-07
2.1791e-07
2.17825e-07
2.17692e-07
2.17531e-07
2.17365e-07
2.1725e-07
2.17222e-07
2.17314e-07
2.1755e-07
2.17922e-07
2.18405e-07
2.1896e-07
2.19542e-07
2.20086e-07
2.2056e-07
2.20949e-07
2.21231e-07
2.2144e-07
2.21572e-07
2.21663e-07
2.21711e-07
2.21759e-07
2.21808e-07
2.21866e-07
2.21926e-07
2.21964e-07
2.21964e-07
2.21906e-07
2.21764e-07
2.21524e-07
2.2116e-07
2.20694e-07
2.20136e-07
2.19525e-07
2.18906e-07
2.18326e-07
2.1782e-07
2.17478e-07
2.17321e-07
2.1729e-07
2.17421e-07
2.17692e-07
2.18104e-07
2.18482e-07
2.18957e-07
1.70557e-07
2.02132e-07
2.1225e-07
2.16369e-07
2.17784e-07
2.18405e-07
2.18848e-07
2.19216e-07
2.19439e-07
2.19567e-07
2.19785e-07
2.2006e-07
2.20306e-07
2.20459e-07
2.20543e-07
2.20479e-07
2.20287e-07
2.20013e-07
2.19696e-07
2.194e-07
2.19112e-07
2.18878e-07
2.18735e-07
2.18659e-07
2.18614e-07
2.18463e-07
2.18263e-07
2.18142e-07
2.18146e-07
2.18302e-07
2.18593e-07
2.18942e-07
2.19274e-07
2.19505e-07
2.1958e-07
2.19438e-07
2.19063e-07
2.18573e-07
2.1806e-07
2.17662e-07
2.17284e-07
2.16987e-07
2.16774e-07
2.1667e-07
2.16658e-07
2.16714e-07
2.16808e-07
2.16923e-07
2.17091e-07
2.17236e-07
2.17247e-07
2.17213e-07
2.17175e-07
2.17069e-07
2.17002e-07
2.17007e-07
2.17082e-07
2.17214e-07
2.1738e-07
2.17554e-07
2.1772e-07
2.17866e-07
2.17994e-07
2.18113e-07
2.18242e-07
2.18404e-07
2.18613e-07
2.18869e-07
2.19156e-07
2.19457e-07
2.19753e-07
2.20019e-07
2.20227e-07
2.20365e-07
2.20438e-07
2.20465e-07
2.20408e-07
2.20311e-07
2.20189e-07
2.20044e-07
2.19869e-07
2.19654e-07
2.19395e-07
2.1909e-07
2.18747e-07
2.18384e-07
2.18032e-07
2.17711e-07
2.17398e-07
2.1711e-07
2.16867e-07
2.16676e-07
2.16538e-07
2.16451e-07
2.16406e-07
2.16406e-07
2.16423e-07
2.16427e-07
2.16485e-07
2.1658e-07
2.16695e-07
2.16802e-07
2.16844e-07
2.16886e-07
2.16994e-07
2.17042e-07
2.17048e-07
2.17032e-07
2.17022e-07
2.17039e-07
2.171e-07
2.17207e-07
2.17375e-07
2.176e-07
2.17843e-07
2.18065e-07
2.18232e-07
2.18311e-07
2.18298e-07
2.18252e-07
2.18136e-07
2.17957e-07
2.1775e-07
2.17542e-07
2.17394e-07
2.17349e-07
2.17449e-07
2.17719e-07
2.18157e-07
2.1873e-07
2.19399e-07
2.20097e-07
2.20758e-07
2.2133e-07
2.21796e-07
2.22141e-07
2.22358e-07
2.22486e-07
2.2255e-07
2.22571e-07
2.22581e-07
2.22582e-07
2.22589e-07
2.22597e-07
2.22586e-07
2.22534e-07
2.22425e-07
2.22231e-07
2.21937e-07
2.21512e-07
2.20981e-07
2.20357e-07
2.19687e-07
2.19014e-07
2.1839e-07
2.17854e-07
2.17494e-07
2.17323e-07
2.17294e-07
2.17435e-07
2.17737e-07
2.18197e-07
2.18651e-07
2.19218e-07
1.69952e-07
2.01572e-07
2.12021e-07
2.16383e-07
2.17964e-07
2.18684e-07
2.19213e-07
2.1966e-07
2.19959e-07
2.20155e-07
2.20364e-07
2.20681e-07
2.21002e-07
2.21227e-07
2.21292e-07
2.21217e-07
2.20989e-07
2.20631e-07
2.20228e-07
2.19825e-07
2.19398e-07
2.19045e-07
2.18811e-07
2.18655e-07
2.18543e-07
2.18337e-07
2.18123e-07
2.18004e-07
2.18034e-07
2.18243e-07
2.18594e-07
2.19e-07
2.19375e-07
2.19646e-07
2.19749e-07
2.19625e-07
2.19237e-07
2.18665e-07
2.18068e-07
2.17564e-07
2.17174e-07
2.16876e-07
2.16662e-07
2.16564e-07
2.16566e-07
2.16643e-07
2.1678e-07
2.16924e-07
2.17121e-07
2.17285e-07
2.1729e-07
2.17243e-07
2.172e-07
2.17102e-07
2.1703e-07
2.17038e-07
2.17128e-07
2.17284e-07
2.17478e-07
2.17683e-07
2.1788e-07
2.18058e-07
2.18214e-07
2.18357e-07
2.18507e-07
2.18688e-07
2.18921e-07
2.19205e-07
2.19525e-07
2.19866e-07
2.20209e-07
2.20519e-07
2.20754e-07
2.20885e-07
2.20921e-07
2.2089e-07
2.2081e-07
2.20689e-07
2.20519e-07
2.20312e-07
2.20071e-07
2.19796e-07
2.19484e-07
2.19136e-07
2.18755e-07
2.1836e-07
2.17982e-07
2.1764e-07
2.17316e-07
2.17023e-07
2.16777e-07
2.16585e-07
2.16454e-07
2.16377e-07
2.16343e-07
2.16366e-07
2.16394e-07
2.16366e-07
2.16455e-07
2.16571e-07
2.16705e-07
2.16839e-07
2.16939e-07
2.16873e-07
2.17039e-07
2.17099e-07
2.1711e-07
2.17093e-07
2.17085e-07
2.17107e-07
2.17168e-07
2.17295e-07
2.17502e-07
2.17763e-07
2.18052e-07
2.18321e-07
2.18525e-07
2.18626e-07
2.18618e-07
2.1856e-07
2.18412e-07
2.1819e-07
2.17939e-07
2.17692e-07
2.1751e-07
2.17443e-07
2.17543e-07
2.17841e-07
2.18339e-07
2.18999e-07
2.19775e-07
2.20578e-07
2.21336e-07
2.21988e-07
2.22506e-07
2.22869e-07
2.23101e-07
2.23229e-07
2.23287e-07
2.23284e-07
2.23271e-07
2.23249e-07
2.23212e-07
2.23169e-07
2.2311e-07
2.23008e-07
2.22847e-07
2.22603e-07
2.22259e-07
2.21784e-07
2.212e-07
2.20526e-07
2.19811e-07
2.19102e-07
2.18441e-07