/*--------------------------------*- C++ -*----------------------------------*\
| =========                 |                                                 |
| \\      /  F ield         | OpenFOAM: The Open Source CFD Toolbox           |
|  \\    /   O peration     | Version:  v1912                                 |
|   \\  /    A nd           | Website:  www.openfoam.com                      |
|    \\/     M anipulation  |                                                 |
\*---------------------------------------------------------------------------*/
FoamFile
{
    version     2.0;
    format      ascii;
    class       volScalarField;
    location    "60";
    object      alpha.water;
}
// * * * * * * * * * * * * * * * * * * * * * * * * * * * * * * * * * * * * * //

dimensions      [0 0 0 0 0 0 0];


internalField   nonuniform List<scalar> 
14268
(
-1.19613e-108
-9.71368e-111
-7.37737e-113
-5.23932e-115
-3.47895e-117
-2.15956e-119
-1.25305e-121
-6.79521e-124
-3.44355e-126
-1.6305e-128
-7.21252e-131
-2.98018e-133
-1.15007e-135
-4.14452e-138
-1.39452e-140
-4.38036e-143
-1.2843e-145
-3.5142e-148
-8.97269e-151
-2.1374e-153
-4.74948e-156
-9.8431e-159
-1.90227e-161
-3.42761e-164
-5.75728e-167
-9.0131e-170
-1.31488e-172
-1.7872e-175
-2.26285e-178
-2.66845e-181
-2.93019e-184
-2.99563e-187
-2.8507e-190
-2.52465e-193
-2.08042e-196
-1.59483e-199
-1.13712e-202
-7.53934e-206
-4.64739e-209
-2.66282e-212
-1.41788e-215
-7.01466e-219
-3.22369e-222
-1.37588e-225
-5.45253e-229
-2.00587e-232
-6.84861e-236
-2.16968e-239
-6.3765e-243
-1.73806e-246
-4.39279e-250
-1.02922e-253
-2.23496e-257
-4.49697e-261
-8.38216e-265
-1.44702e-268
-2.31299e-272
-3.42256e-276
-4.68706e-280
-5.93912e-284
-6.96163e-288
-7.54686e-292
-7.5646e-296
-7.00921e-300
-6.00228e-304
-4.7493e-308
-3.47146e-312
-2.34352e-316
-1.42834e-320
0
0
0
0
0
0
0
0
0
0
0
0
0
0
0
0
0
0
0
0
0
0
0
0
0
0
0
0
0
0
0
0
0
0
0
0
0
0
0
0
0
0
0
0
0
0
0
0
0
0
0
0
0
0
0
0
0
0
0
0
0
0
0
0
0
0
0
0
0
0
0
0
0
0
0
0
0
0
0
0
0
0
0
0
0
0
0
0
0
0
0
0
0
0
0
-8.86321e-109
-7.15379e-111
-5.40076e-113
-3.81319e-115
-2.51757e-117
-1.55408e-119
-8.96823e-122
-4.8375e-124
-2.43869e-126
-1.14882e-128
-5.05645e-131
-2.0791e-133
-7.985e-136
-2.86406e-138
-9.59248e-141
-2.99954e-143
-8.75563e-146
-2.38539e-148
-6.0646e-151
-1.43862e-153
-3.1836e-156
-6.57124e-159
-1.26491e-161
-2.27029e-164
-3.79872e-167
-5.92447e-170
-8.61075e-173
-1.16609e-175
-1.47111e-178
-1.72861e-181
-1.89151e-184
-1.92705e-187
-1.82754e-190
-1.61305e-193
-1.32479e-196
-1.01222e-199
-7.19361e-203
-4.75414e-206
-2.92118e-209
-1.66846e-212
-8.85629e-216
-4.36788e-219
-2.00115e-222
-8.51494e-226
-3.36419e-229
-1.2339e-232
-4.2003e-236
-1.32673e-239
-3.88764e-243
-1.05655e-246
-2.66255e-250
-6.22014e-254
-1.34679e-257
-2.70203e-261
-5.02194e-265
-8.64444e-269
-1.37779e-272
-2.03286e-276
-2.77591e-280
-3.50729e-284
-4.09924e-288
-4.43096e-292
-4.42845e-296
-4.09133e-300
-3.49328e-304
-2.75588e-308
-2.00838e-312
-1.35175e-316
-8.05327e-321
0
0
0
0
0
0
0
0
0
0
0
0
0
0
0
0
0
0
0
0
0
0
0
0
0
0
0
0
0
0
0
0
0
0
0
0
0
0
0
0
0
0
0
0
0
0
0
0
0
0
0
0
0
0
0
0
0
0
0
0
0
0
0
0
0
0
0
0
0
0
0
0
0
0
0
0
0
0
0
0
0
0
0
0
0
0
0
0
0
0
0
0
0
0
0
-5.74368e-109
-4.63995e-111
-3.50596e-113
-2.4775e-115
-1.63711e-117
-1.01143e-119
-5.84166e-122
-3.15364e-124
-1.59113e-126
-7.50159e-129
-3.30442e-131
-1.35977e-133
-5.22641e-136
-1.87604e-138
-6.28805e-141
-1.9677e-143
-5.74781e-146
-1.56704e-148
-3.98674e-151
-9.46346e-154
-2.09557e-156
-4.32815e-159
-8.33638e-162
-1.4971e-164
-2.5064e-167
-3.91107e-170
-5.68735e-173
-7.70574e-176
-9.72587e-179
-1.14333e-181
-1.25158e-184
-1.27559e-187
-1.21015e-190
-1.06847e-193
-8.77786e-197
-6.70864e-200
-4.76879e-203
-3.15226e-206
-1.93724e-209
-1.10663e-212
-5.87464e-216
-2.89754e-219
-1.32755e-222
-5.64875e-226
-2.23169e-229
-8.18457e-233
-2.78575e-236
-8.79778e-240
-2.57743e-243
-7.00298e-247
-1.76425e-250
-4.12015e-254
-8.91744e-258
-1.78829e-261
-3.32202e-265
-5.71515e-269
-9.10353e-273
-1.34228e-276
-1.83157e-280
-2.3123e-284
-2.70023e-288
-2.916e-292
-2.91141e-296
-2.68685e-300
-2.29141e-304
-1.80544e-308
-1.31396e-312
-8.83084e-317
-5.11852e-321
0
0
0
0
0
0
0
0
0
0
0
0
0
0
0
0
0
0
0
0
0
0
0
0
0
0
0
0
0
0
0
0
0
0
0
0
0
0
0
0
0
0
0
0
0
0
0
0
0
0
0
0
0
0
0
0
0
0
0
0
0
0
0
0
0
0
0
0
0
0
0
0
0
0
0
0
0
0
0
0
0
0
0
0
0
0
0
0
0
0
0
0
0
0
0
-3.92047e-109
-3.17899e-111
-2.41094e-113
-1.7099e-115
-1.13393e-117
-7.03025e-120
-4.07444e-122
-2.20707e-124
-1.11726e-126
-5.28476e-129
-2.3354e-131
-9.64054e-134
-3.71691e-136
-1.33825e-138
-4.49886e-141
-1.41192e-143
-4.13614e-146
-1.1308e-148
-2.8848e-151
-6.86612e-154
-1.52441e-156
-3.15658e-159
-6.09511e-162
-1.09729e-164
-1.84144e-167
-2.88017e-170
-4.1978e-173
-5.70021e-176
-7.21017e-179
-8.49383e-182
-9.31716e-185
-9.51484e-188
-9.04426e-191
-8.00042e-194
-6.58466e-197
-5.04135e-200
-3.58976e-203
-2.37683e-206
-1.46303e-209
-8.37027e-213
-4.45003e-216
-2.19801e-219
-1.00843e-222
-4.29646e-226
-1.69954e-229
-6.24032e-233
-2.12637e-236
-6.72245e-240
-1.97138e-243
-5.36127e-247
-1.35181e-250
-3.15943e-254
-6.843e-258
-1.37316e-261
-2.55229e-265
-4.39305e-269
-7.0004e-273
-1.03251e-276
-1.4092e-280
-1.77932e-284
-2.07792e-288
-2.24383e-292
-2.23993e-296
-2.06659e-300
-1.76176e-304
-1.3874e-308
-1.00907e-312
-6.77648e-317
-3.88336e-321
0
0
0
0
0
0
0
0
0
0
0
0
0
0
0
0
0
0
0
0
0
0
0
0
0
0
0
0
0
0
0
0
0
0
0
0
0
0
0
0
0
0
0
0
0
0
0
0
0
0
0
0
0
0
0
0
0
0
0
0
0
0
0
0
0
0
0
0
0
0
0
0
0
0
0
0
0
0
0
0
0
0
0
0
0
0
0
0
0
0
0
0
0
0
0
-2.92339e-109
-2.38005e-111
-1.8121e-113
-1.2901e-115
-8.58712e-118
-5.34318e-120
-3.10757e-122
-1.68908e-124
-8.57889e-127
-4.07099e-129
-1.80466e-131
-7.47235e-134
-2.88948e-136
-1.04333e-138
-3.51717e-141
-1.10681e-143
-3.25082e-146
-8.91013e-149
-2.27866e-151
-5.43634e-154
-1.20975e-156
-2.5106e-159
-4.85821e-162
-8.7643e-165
-1.47376e-167
-2.30954e-170
-3.37241e-173
-4.58764e-176
-5.81292e-179
-6.85921e-182
-7.53609e-185
-7.70775e-188
-7.33726e-191
-6.49951e-194
-5.35648e-197
-4.10624e-200
-2.92742e-203
-1.94049e-206
-1.19573e-209
-6.84794e-213
-3.64414e-216
-1.80154e-219
-8.27205e-223
-3.527e-226
-1.39612e-229
-5.12937e-233
-1.74877e-236
-5.53132e-240
-1.62273e-243
-4.41456e-247
-1.11339e-250
-2.60266e-254
-5.63763e-258
-1.1313e-261
-2.1026e-265
-3.61845e-269
-5.76461e-273
-8.49944e-277
-1.15951e-280
-1.46323e-284
-1.70765e-288
-1.84257e-292
-1.8377e-296
-1.69373e-300
-1.4422e-304
-1.13426e-308
-8.23746e-313
-5.52285e-317
-3.12249e-321
0
0
0
0
0
0
0
0
0
0
0
0
0
0
0
0
0
0
0
0
0
0
0
0
0
0
0
0
0
0
0
0
0
0
0
0
0
0
0
0
0
0
0
0
0
0
0
0
0
0
0
0
0
0
0
0
0
0
0
0
0
0
0
0
0
0
0
0
0
0
0
0
0
0
0
0
0
0
0
0
0
0
0
0
0
0
0
0
0
0
0
0
0
0
0
-2.30327e-109
-1.88019e-111
-1.4352e-113
-1.02427e-115
-6.83377e-118
-4.26175e-120
-2.48395e-122
-1.3529e-124
-6.88489e-127
-3.27325e-129
-1.45362e-131
-6.02907e-134
-2.33516e-136
-8.4447e-139
-2.85097e-141
-8.98408e-144
-2.64219e-146
-7.25093e-149
-1.85651e-151
-4.43409e-154
-9.87744e-157
-2.05186e-159
-3.9741e-162
-7.17541e-165
-1.20752e-167
-1.8937e-170
-2.76702e-173
-3.76639e-176
-4.77495e-179
-5.63719e-182
-6.19618e-185
-6.33974e-188
-6.03699e-191
-5.34915e-194
-4.40939e-197
-3.38076e-200
-2.41048e-203
-1.59792e-206
-9.84638e-210
-5.63869e-213
-3.0003e-216
-1.48301e-219
-6.80792e-223
-2.90191e-226
-1.14829e-229
-4.21717e-233
-1.43711e-236
-4.54314e-240
-1.33204e-243
-3.62135e-247
-9.12662e-251
-2.13173e-254
-4.61348e-258
-9.24897e-262
-1.71719e-265
-2.95184e-269
-4.69687e-273
-6.916e-277
-9.42153e-281
-1.18712e-284
-1.38315e-288
-1.48979e-292
-1.48304e-296
-1.36408e-300
-1.15898e-304
-9.09385e-309
-6.58785e-313
-4.40506e-317
-2.4308e-321
0
0
0
0
0
0
0
0
0
0
0
0
0
0
0
0
0
0
0
0
0
0
0
0
0
0
0
0
0
0
0
0
0
0
0
0
0
0
0
0
0
0
0
0
0
0
0
0
0
0
0
0
0
0
0
0
0
0
0
0
0
0
0
0
0
0
0
0
0
0
0
0
0
0
0
0
0
0
0
0
0
0
0
0
0
0
0
0
0
0
0
0
0
0
0
-1.83844e-109
-1.50249e-111
-1.14812e-113
-8.20206e-116
-5.47728e-118
-3.41867e-120
-1.99409e-122
-1.08685e-124
-5.53443e-127
-2.63269e-129
-1.16974e-131
-4.85376e-134
-1.88065e-136
-6.80328e-139
-2.29743e-141
-7.24132e-144
-2.12999e-146
-5.84599e-149
-1.49689e-151
-3.57523e-154
-7.96402e-157
-1.65426e-159
-3.20364e-162
-5.78338e-165
-9.73068e-168
-1.52564e-170
-2.2286e-173
-3.03252e-176
-3.84316e-179
-4.53531e-182
-4.98284e-185
-5.09583e-188
-4.84996e-191
-4.29497e-194
-3.5383e-197
-2.71115e-200
-1.93174e-203
-1.27964e-206
-7.87922e-210
-4.50857e-213
-2.39696e-216
-1.18374e-219
-5.42905e-223
-2.31191e-226
-9.13895e-230
-3.35274e-233
-1.14125e-236
-3.60361e-240
-1.05527e-243
-2.86522e-247
-7.21129e-251
-1.68198e-254
-3.63475e-258
-7.27554e-262
-1.3486e-265
-2.31428e-269
-3.67581e-273
-5.40233e-277
-7.34492e-281
-9.23542e-285
-1.07368e-288
-1.15379e-292
-1.14577e-296
-1.05116e-300
-8.90683e-305
-6.96862e-309
-5.03294e-313
-3.35453e-317
-1.7984e-321
0
0
0
0
0
0
0
0
0
0
0
0
0
0
0
0
0
0
0
0
0
0
0
0
0
0
0
0
0
0
0
0
0
0
0
0
0
0
0
0
0
0
0
0
0
0
0
0
0
0
0
0
0
0
0
0
0
0
0
0
0
0
0
0
0
0
0
0
0
0
0
0
0
0
0
0
0
0
0
0
0
0
0
0
0
0
0
0
0
0
0
0
0
0
0
-1.4495e-109
-1.18474e-111
-9.05352e-114
-6.46769e-116
-4.31881e-118
-2.69531e-120
-1.57191e-122
-8.5657e-125
-4.36074e-127
-2.07377e-129
-9.211e-132
-3.82066e-134
-1.47977e-136
-5.35072e-139
-1.80606e-141
-5.68968e-144
-1.67269e-146
-4.58827e-149
-1.17415e-151
-2.80263e-154
-6.23893e-157
-1.29505e-159
-2.50623e-162
-4.52107e-165
-7.60106e-168
-1.19081e-170
-1.73809e-173
-2.36311e-176
-2.99226e-179
-3.52806e-182
-3.87271e-185
-3.95686e-188
-3.76237e-191
-3.32859e-194
-2.73944e-197
-2.09689e-200
-1.4925e-203
-9.87614e-207
-6.07438e-210
-3.47188e-213
-1.84367e-216
-9.09408e-220
-4.16578e-223
-1.77172e-226
-6.99455e-230
-2.56263e-233
-8.71109e-237
-2.74673e-240
-8.03177e-244
-2.17747e-247
-5.47184e-251
-1.27422e-254
-2.74901e-258
-5.49312e-262
-1.01639e-265
-1.74095e-269
-2.75985e-273
-4.048e-277
-5.49208e-281
-6.89058e-285
-7.99246e-289
-8.56824e-293
-8.48732e-297
-7.76599e-301
-6.56219e-305
-5.11925e-309
-3.68593e-313
-2.44878e-317
-1.24505e-321
0
0
0
0
0
0
0
0
0
0
0
0
0
0
0
0
0
0
0
0
0
0
0
0
0
0
0
0
0
0
0
0
0
0
0
0
0
0
0
0
0
0
0
0
0
0
0
0
0
0
0
0
0
0
0
0
0
0
0
0
0
0
0
0
0
0
0
0
0
0
0
0
0
0
0
0
0
0
0
0
0
0
0
0
0
0
0
0
0
0
0
0
0
0
0
-1.11763e-109
-9.13027e-112
-6.97338e-114
-4.97881e-116
-3.32259e-118
-2.07227e-120
-1.20775e-122
-6.57676e-125
-3.34579e-127
-1.58993e-129
-7.05659e-132
-2.92474e-134
-1.13186e-136
-4.08938e-139
-1.37915e-141
-4.34108e-144
-1.27511e-146
-3.49459e-149
-8.93467e-152
-2.13071e-154
-4.73879e-157
-9.8273e-160
-1.90001e-162
-3.42419e-165
-5.7513e-168
-9.00132e-171
-1.31251e-173
-1.78268e-176
-2.25499e-179
-2.65603e-182
-2.91245e-185
-2.9726e-188
-2.82347e-191
-2.49524e-194
-2.05134e-197
-1.56845e-200
-1.11512e-203
-7.3706e-207
-4.52812e-210
-2.58508e-213
-1.37112e-216
-6.75506e-220
-3.09054e-223
-1.31279e-226
-5.17615e-230
-1.89396e-233
-6.42958e-237
-2.0246e-240
-5.912e-244
-1.60052e-247
-4.01614e-251
-9.33838e-255
-2.01157e-258
-4.01319e-262
-7.41345e-266
-1.26769e-269
-2.00609e-273
-2.93708e-277
-3.97732e-281
-4.9803e-285
-5.76488e-289
-6.16697e-293
-6.09506e-297
-5.56397e-301
-4.68994e-305
-3.64922e-309
-2.62033e-313
-1.73584e-317
-8.10268e-322
0
0
0
0
0
0
0
0
0
0
0
0
0
0
0
0
0
0
0
0
0
0
0
0
0
0
0
0
0
0
0
0
0
0
0
0
0
0
0
0
0
0
0
0
0
0
0
0
0
0
0
0
0
0
0
0
0
0
0
0
0
0
0
0
0
0
0
0
0
0
0
0
0
0
0
0
0
0
0
0
0
0
0
0
0
0
0
0
0
0
0
0
0
0
0
-8.41526e-110
-6.86922e-112
-5.24219e-114
-3.73967e-116
-2.49354e-118
-1.55385e-120
-9.04809e-123
-4.92273e-125
-2.50208e-127
-1.18792e-129
-5.26746e-132
-2.18117e-134
-8.43318e-137
-3.044e-139
-1.02562e-141
-3.22522e-144
-9.46442e-147
-2.59135e-149
-6.61895e-152
-1.57694e-154
-3.50379e-157
-7.25912e-160
-1.40211e-162
-2.52443e-165
-4.23593e-168
-6.62317e-171
-9.64801e-174
-1.30914e-176
-1.65437e-179
-1.94669e-182
-2.13253e-185
-2.17444e-188
-2.06333e-191
-1.82167e-194
-1.49612e-197
-1.1428e-200
-8.11693e-204
-5.35967e-207
-3.2894e-210
-1.87601e-213
-9.94022e-217
-4.8922e-220
-2.23594e-223
-9.48782e-227
-3.73698e-230
-1.3659e-233
-4.63191e-237
-1.45693e-240
-4.24957e-244
-1.14914e-247
-2.88015e-251
-6.68894e-255
-1.43909e-258
-2.86745e-262
-5.29009e-266
-9.03389e-270
-1.42762e-273
-2.08716e-277
-2.82219e-281
-3.52842e-285
-4.0777e-289
-4.35479e-293
-4.29645e-297
-3.91485e-301
-3.29349e-305
-2.55743e-309
-1.83242e-313
-1.21113e-317
-5.2371e-322
0
0
0
0
0
0
0
0
0
0
0
0
0
0
0
0
0
0
0
0
0
0
0
0
0
0
0
0
0
0
0
0
0
0
0
0
0
0
0
0
0
0
0
0
0
0
0
0
0
0
0
0
0
0
0
0
0
0
0
0
0
0
0
0
0
0
0
0
0
0
0
0
0
0
0
0
0
0
0
0
0
0
0
0
0
0
0
0
0
0
0
0
0
0
0
-6.20346e-110
-5.05933e-112
-3.85758e-114
-2.74946e-116
-1.83165e-118
-1.14036e-120
-6.63437e-123
-3.60625e-125
-1.8313e-127
-8.6866e-130
-3.84834e-132
-1.5921e-134
-6.15008e-137
-2.21792e-139
-7.46623e-142
-2.34578e-144
-6.87763e-147
-1.88144e-149
-4.80148e-152
-1.14295e-154
-2.53732e-157
-5.25234e-160
-1.01364e-162
-1.82348e-165
-3.05723e-168
-4.77626e-171
-6.95195e-174
-9.42551e-177
-1.19016e-179
-1.39934e-182
-1.53173e-185
-1.56062e-188
-1.47973e-191
-1.30542e-194
-1.07132e-197
-8.17699e-201
-5.80348e-204
-3.82922e-207
-2.34837e-210
-1.33833e-213
-7.08602e-217
-3.48489e-220
-1.59157e-223
-6.74852e-227
-2.65606e-230
-9.7009e-234
-3.28719e-237
-1.03317e-240
-3.01122e-244
-8.13639e-248
-2.03764e-251
-4.72843e-255
-1.01645e-258
-2.0236e-262
-3.73003e-266
-6.36401e-270
-1.00476e-273
-1.46753e-277
-1.98235e-281
-2.47583e-285
-2.85812e-289
-3.04884e-293
-3.00438e-297
-2.73407e-301
-2.29705e-305
-1.78116e-309
-1.27431e-313
-8.40903e-318
-2.96439e-322
0
0
0
0
0
0
0
0
0
0
0
0
0
0
0
0
0
0
0
0
0
0
0
0
0
0
0
0
0
0
0
0
0
0
0
0
0
0
0
0
0
0
0
0
0
0
0
0
0
0
0
0
0
0
0
0
0
0
0
0
0
0
0
0
0
0
0
0
0
0
0
0
0
0
0
0
0
0
0
0
0
0
0
0
0
0
0
0
0
0
0
0
0
0
0
-4.49571e-110
-3.66355e-112
-2.79105e-114
-1.98768e-116
-1.32308e-118
-8.23073e-121
-4.78461e-123
-2.59871e-125
-1.31861e-127
-6.24985e-130
-2.76667e-132
-1.14373e-134
-4.41477e-137
-1.59093e-139
-5.35168e-142
-1.68021e-144
-4.92275e-147
-1.34573e-149
-3.43199e-152
-8.16408e-155
-1.81122e-157
-3.74687e-160
-7.22649e-163
-1.2992e-165
-2.1769e-168
-3.39894e-171
-4.94437e-174
-6.69983e-177
-8.45519e-180
-9.93594e-183
-1.08702e-185
-1.10695e-188
-1.04905e-191
-9.25019e-195
-7.58768e-198
-5.78869e-201
-4.10652e-204
-2.70832e-207
-1.66021e-210
-9.45735e-214
-5.00522e-217
-2.46051e-220
-1.12326e-223
-4.76083e-227
-1.87298e-230
-6.838e-234
-2.31614e-237
-7.27665e-241
-2.11994e-244
-5.72572e-248
-1.43331e-251
-3.32463e-255
-7.14368e-259
-1.42155e-262
-2.61906e-266
-4.46637e-270
-7.04802e-274
-1.02887e-277
-1.38904e-281
-1.73381e-285
-2.0003e-289
-2.13239e-293
-2.09984e-297
-1.90951e-301
-1.60302e-305
-1.24196e-309
-8.8774e-314
-5.85248e-318
-6.91692e-323
0
0
0
0
0
0
0
0
0
0
0
0
0
0
0
0
0
0
0
0
0
0
0
0
0
0
0
0
0
0
0
0
0
0
0
0
0
0
0
0
0
0
0
0
0
0
0
0
0
0
0
0
0
0
0
0
0
0
0
0
0
0
0
0
0
0
0
0
0
0
0
0
0
0
0
0
0
0
0
0
0
0
0
0
0
0
0
0
0
0
0
0
0
0
0
-3.21764e-110
-2.62029e-112
-1.99492e-114
-1.41977e-116
-9.44451e-119
-5.87156e-121
-3.41107e-123
-1.85155e-125
-9.38935e-128
-4.44768e-130
-1.96777e-132
-8.13012e-135
-3.1365e-137
-1.12969e-139
-3.79819e-142
-1.19189e-144
-3.49036e-147
-9.53714e-150
-2.43116e-152
-5.78078e-155
-1.28195e-157
-2.65091e-160
-5.11078e-163
-9.18494e-166
-1.53847e-168
-2.4013e-171
-3.49201e-174
-4.73038e-177
-5.96803e-180
-7.01128e-183
-7.66856e-186
-7.80724e-189
-7.39712e-192
-6.52113e-195
-5.34799e-198
-4.07922e-201
-2.89329e-204
-1.90784e-207
-1.16932e-210
-6.65998e-214
-3.52422e-217
-1.73223e-220
-7.90681e-224
-3.35081e-227
-1.3181e-230
-4.81162e-234
-1.62958e-237
-5.1191e-241
-1.4912e-244
-4.0271e-248
-1.00798e-251
-2.33776e-255
-5.02253e-259
-9.99316e-263
-1.84087e-266
-3.1388e-270
-4.95224e-274
-7.22796e-278
-9.7562e-282
-1.2175e-285
-1.40428e-289
-1.49661e-293
-1.47331e-297
-1.33932e-301
-1.12394e-305
-8.70424e-310
-6.21888e-314
-4.09758e-318
0
0
0
0
0
0
0
0
0
0
0
0
0
0
0
0
0
0
0
0
0
0
0
0
0
0
0
0
0
0
0
0
0
0
0
0
0
0
0
0
0
0
0
0
0
0
0
0
0
0
0
0
0
0
0
0
0
0
0
0
0
0
0
0
0
0
0
0
0
0
0
0
0
0
0
0
0
0
0
0
0
0
0
0
0
0
0
0
0
0
0
0
0
0
0
0
-2.28391e-110
-1.85899e-112
-1.41465e-114
-1.00633e-116
-6.69126e-119
-4.1581e-121
-2.41462e-123
-1.31015e-125
-6.64127e-128
-3.14476e-130
-1.39083e-132
-5.74447e-135
-2.21543e-137
-7.97701e-140
-2.68122e-142
-8.41148e-145
-2.46262e-147
-6.72733e-150
-1.71451e-152
-4.07592e-155
-9.03708e-158
-1.86843e-160
-3.60166e-163
-6.47189e-166
-1.0839e-168
-1.69161e-171
-2.45973e-174
-3.33175e-177
-4.20318e-180
-4.93765e-183
-5.40032e-186
-5.49781e-189
-5.20891e-192
-4.59203e-195
-3.76594e-198
-2.87254e-201
-2.03746e-204
-1.34355e-207
-8.23498e-211
-4.69053e-214
-2.48218e-217
-1.22012e-220
-5.56961e-224
-2.36049e-227
-9.28601e-231
-3.39003e-234
-1.1482e-237
-3.60718e-241
-1.05085e-244
-2.83809e-248
-7.10418e-252
-1.64774e-255
-3.54026e-259
-7.04429e-263
-1.2977e-266
-2.21273e-270
-3.4912e-274
-5.09555e-278
-6.87784e-282
-8.58283e-286
-9.89915e-290
-1.05493e-293
-1.03842e-297
-9.43879e-302
-7.91981e-306
-6.13242e-310
-4.38054e-314
-2.8857e-318
0
0
0
0
0
0
0
0
0
0
0
0
0
0
0
0
0
0
0
0
0
0
0
0
0
0
0
0
0
0
0
0
0
0
0
0
0
0
0
0
0
0
0
0
0
0
0
0
0
0
0
0
0
0
0
0
0
0
0
0
0
0
0
0
0
0
0
0
0
0
0
0
0
0
0
0
0
0
0
0
0
0
0
0
0
0
0
0
0
0
0
0
0
0
0
0
-1.22533e-110
-9.97066e-113
-7.58535e-115
-5.39459e-117
-3.5861e-119
-2.228e-121
-1.29356e-123
-7.01751e-126
-3.55671e-128
-1.68395e-130
-7.44675e-133
-3.07542e-135
-1.186e-137
-4.27016e-140
-1.43524e-142
-4.50256e-145
-1.31822e-147
-3.60118e-150
-9.17831e-153
-2.1821e-155
-4.83848e-158
-1.00046e-160
-1.92873e-163
-3.46618e-166
-5.80586e-169
-9.06234e-172
-1.31794e-174
-1.78548e-177
-2.25287e-180
-2.64704e-183
-2.89563e-186
-2.9485e-189
-2.79414e-192
-2.46376e-195
-2.02098e-198
-1.54187e-201
-1.09388e-204
-7.21487e-208
-4.42318e-211
-2.51994e-214
-1.33382e-217
-6.55782e-221
-2.99416e-224
-1.26924e-227
-4.99411e-231
-1.82355e-234
-6.17752e-238
-1.94107e-241
-5.65569e-245
-1.52771e-248
-3.82463e-252
-8.87197e-256
-1.90641e-259
-3.79368e-263
-6.98928e-267
-1.19182e-270
-1.88051e-274
-2.74474e-278
-3.70476e-282
-4.62302e-286
-5.33174e-290
-5.68142e-294
-5.59188e-298
-5.08201e-302
-4.26339e-306
-3.30048e-310
-2.35701e-314
-1.55207e-318
0
0
0
0
0
0
0
0
0
0
0
0
0
0
0
0
0
0
0
0
0
0
0
0
0
0
0
0
0
0
0
0
0
0
0
0
0
0
0
0
0
0
0
0
0
0
0
0
0
0
0
0
0
0
0
0
0
0
0
0
0
0
0
0
0
0
0
0
0
0
0
0
0
0
0
0
0
0
0
0
0
0
0
0
0
0
0
0
0
0
0
0
0
0
0
0
-6.66267e-111
-5.42128e-113
-4.1242e-115
-2.933e-117
-1.94972e-119
-1.21134e-121
-7.03298e-124
-3.81542e-126
-1.93384e-128
-9.15621e-131
-4.04923e-133
-1.67237e-135
-6.44968e-138
-2.32234e-140
-7.80614e-143
-2.4491e-145
-7.17084e-148
-1.95913e-150
-4.99368e-153
-1.18733e-155
-2.63298e-158
-5.44474e-161
-1.04976e-163
-1.88674e-166
-3.16059e-169
-4.9338e-172
-7.17589e-175
-9.72236e-178
-1.22684e-180
-1.44161e-183
-1.5771e-186
-1.606e-189
-1.52202e-192
-1.34212e-195
-1.10096e-198
-8.39993e-202
-5.95945e-205
-3.93073e-208
-2.4098e-211
-1.37288e-214
-7.26662e-218
-3.57257e-221
-1.63109e-224
-6.91383e-228
-2.72022e-231
-9.93173e-235
-3.36416e-238
-1.05694e-241
-3.07921e-245
-8.31624e-249
-2.08163e-252
-4.82785e-256
-1.0372e-259
-2.06351e-263
-3.80079e-267
-6.47947e-271
-1.02207e-274
-1.49133e-278
-2.01228e-282
-2.51017e-286
-2.8939e-290
-3.08247e-294
-3.03262e-298
-2.75488e-302
-2.31002e-306
-1.7874e-310
-1.27578e-314
-8.3964e-319
0
0
0
0
0
0
0
0
0
0
0
0
0
0
0
0
0
0
0
0
0
0
0
0
0
0
0
0
0
0
0
0
0
0
0
0
0
0
0
0
0
0
0
0
0
0
0
0
0
0
0
0
0
0
0
0
0
0
0
0
0
0
0
0
0
0
0
0
0
0
0
0
0
0
0
0
0
0
0
0
0
0
0
0
0
0
0
0
0
0
0
0
0
0
0
0
-3.68289e-111
-2.99698e-113
-2.28015e-115
-1.62173e-117
-1.07815e-119
-6.699e-122
-3.88977e-124
-2.1104e-126
-1.06974e-128
-5.06535e-131
-2.24027e-133
-9.2532e-136
-3.56883e-138
-1.28511e-140
-4.31991e-143
-1.35539e-145
-3.9687e-148
-1.08432e-150
-2.76391e-153
-6.57176e-156
-1.45734e-158
-3.01363e-161
-5.81028e-164
-1.04426e-166
-1.74924e-169
-2.7305e-172
-3.9711e-175
-5.37992e-178
-6.78823e-181
-7.97574e-184
-8.72442e-187
-8.88317e-190
-8.41742e-193
-7.42136e-196
-6.08683e-199
-4.64315e-202
-3.29349e-205
-2.17184e-208
-1.33117e-211
-7.58189e-215
-4.012e-218
-1.97191e-221
-9.00019e-225
-3.81378e-228
-1.50001e-231
-5.47474e-235
-1.85377e-238
-5.82185e-242
-1.6954e-245
-4.57696e-249
-1.14515e-252
-2.65468e-256
-5.70049e-260
-1.13356e-263
-2.08683e-267
-3.55567e-271
-5.60561e-275
-8.17463e-279
-1.10238e-282
-1.37429e-286
-1.58339e-290
-1.68549e-294
-1.65713e-298
-1.50433e-302
-1.26053e-306
-9.74645e-311
-6.95154e-315
-4.57001e-319
0
0
0
0
0
0
0
0
0
0
0
0
0
0
0
0
0
0
0
0
0
0
0
0
0
0
0
0
0
0
0
0
0
0
0
0
0
0
0
0
0
0
0
0
0
0
0
0
0
0
0
0
0
0
0
0
0
0
0
0
0
0
0
0
0
0
0
0
0
0
0
0
0
0
0
0
0
0
0
0
0
0
0
0
0
0
0
0
0
0
0
0
0
0
0
0
-2.0675e-111
-1.68259e-113
-1.28024e-115
-9.1061e-118
-6.05416e-120
-3.76187e-122
-2.18438e-124
-1.18515e-126
-6.00743e-129
-2.84454e-131
-1.25803e-133
-5.19593e-136
-2.00388e-138
-7.21531e-141
-2.42522e-143
-7.60845e-146
-2.22754e-148
-6.08521e-151
-1.55088e-153
-3.6869e-156
-8.17448e-159
-1.69006e-161
-3.25771e-164
-5.85357e-167
-9.80282e-170
-1.52977e-172
-2.22418e-175
-3.01232e-178
-3.79962e-181
-4.46278e-184
-4.87993e-187
-4.96685e-190
-4.70457e-193
-4.14614e-196
-3.39909e-199
-2.59172e-202
-1.8375e-205
-1.21112e-208
-7.4195e-212
-4.22368e-215
-2.23378e-218
-1.09729e-221
-5.00538e-225
-2.11974e-228
-8.33214e-232
-3.03915e-235
-1.0284e-238
-3.2276e-242
-9.3928e-246
-2.53394e-249
-6.33535e-253
-1.46758e-256
-3.14904e-260
-6.25715e-264
-1.15101e-267
-1.9596e-271
-3.08685e-275
-4.4978e-279
-6.06029e-283
-7.54865e-287
-8.68953e-291
-9.24154e-295
-9.07777e-299
-8.23314e-303
-6.89235e-307
-5.32408e-311
-3.79365e-315
-2.4894e-319
0
0
0
0
0
0
0
0
0
0
0
0
0
0
0
0
0
0
0
0
0
0
0
0
0
0
0
0
0
0
0
0
0
0
0
0
0
0
0
0
0
0
0
0
0
0
0
0
0
0
0
0
0
0
0
0
0
0
0
0
0
0
0
0
0
0
0
0
0
0
0
0
0
0
0
0
0
0
0
0
0
0
0
0
0
0
0
0
0
0
0
0
0
0
0
0
-1.17904e-111
-9.59514e-114
-7.30038e-116
-5.19231e-118
-3.45181e-120
-2.14463e-122
-1.24516e-124
-6.75478e-127
-3.42338e-129
-1.62069e-131
-7.16623e-134
-2.95916e-136
-1.14096e-138
-4.10716e-141
-1.38012e-143
-4.32843e-146
-1.26684e-148
-3.45957e-151
-8.81385e-154
-2.09452e-156
-4.64204e-159
-9.59328e-162
-1.84836e-164
-3.31968e-167
-5.5567e-170
-8.66714e-173
-1.25949e-175
-1.70487e-178
-2.14926e-181
-2.52292e-184
-2.75711e-187
-2.80449e-190
-2.65472e-193
-2.33809e-196
-1.91554e-199
-1.45955e-202
-1.03408e-205
-6.81081e-209
-4.16931e-212
-2.37166e-215
-1.25333e-218
-6.15185e-222
-2.80395e-225
-1.18648e-228
-4.65981e-232
-1.69821e-235
-5.74149e-239
-1.80035e-242
-5.23456e-246
-1.41086e-249
-3.52413e-253
-8.15592e-257
-1.74836e-260
-3.4706e-264
-6.37789e-268
-1.08474e-271
-1.70699e-275
-2.48466e-279
-3.3443e-283
-4.16121e-287
-4.78498e-291
-5.08341e-295
-4.98782e-299
-4.5187e-303
-3.77854e-307
-2.91545e-311
-2.075e-315
-1.35873e-319
0
0
0
0
0
0
0
0
0
0
0
0
0
0
0
0
0
0
0
0
0
0
0
0
0
0
0
0
0
0
0
0
0
0
0
0
0
0
0
0
0
0
0
0
0
0
0
0
0
0
0
0
0
0
0
0
0
0
0
0
0
0
0
0
0
0
0
0
0
0
0
0
0
0
0
0
0
0
0
0
0
0
0
0
0
0
0
0
0
0
0
0
0
0
0
0
-6.88204e-112
-5.59978e-114
-4.25977e-116
-3.0291e-118
-2.01328e-120
-1.25056e-122
-7.25875e-125
-3.93662e-127
-1.9945e-129
-9.43927e-132
-4.17232e-134
-1.72225e-136
-6.6379e-139
-2.38849e-141
-8.02251e-144
-2.51495e-146
-7.35726e-149
-2.00819e-151
-5.11361e-154
-1.21455e-156
-2.69031e-159
-5.55666e-162
-1.06999e-164
-1.92054e-167
-3.21273e-170
-5.00787e-173
-7.27249e-176
-9.83751e-179
-1.23931e-181
-1.45373e-184
-1.58751e-187
-1.61358e-190
-1.52623e-193
-1.34314e-196
-1.09952e-199
-8.37094e-203
-5.92577e-206
-3.89962e-209
-2.38512e-212
-1.35555e-215
-7.15712e-219
-3.50978e-222
-1.59824e-225
-6.75647e-229
-2.65101e-232
-9.65189e-236
-3.25998e-239
-1.0212e-242
-2.96615e-246
-7.98634e-250
-1.9928e-253
-4.60706e-257
-9.86539e-261
-1.95622e-264
-3.59097e-268
-6.1007e-272
-9.58949e-276
-1.39423e-279
-1.87445e-283
-2.32961e-287
-2.67567e-291
-2.83917e-295
-2.78244e-299
-2.51769e-303
-2.10272e-307
-1.62042e-311
-1.15185e-315
-7.5266e-320
0
0
0
0
0
0
0
0
0
0
0
0
0
0
0
0
0
0
0
0
0
0
0
0
0
0
0
0
0
0
0
0
0
0
0
0
0
0
0
0
0
0
0
0
0
0
0
0
0
0
0
0
0
0
0
0
0
0
0
0
0
0
0
0
0
0
0
0
0
0
0
0
0
0
0
0
0
0
0
0
0
0
0
0
0
0
0
0
0
0
0
0
0
0
0
0
-4.35171e-112
-3.53946e-114
-2.69139e-116
-1.91308e-118
-1.27101e-120
-7.89185e-123
-4.57894e-125
-2.4823e-127
-1.25716e-129
-5.94732e-132
-2.62775e-134
-1.08423e-136
-4.17709e-139
-1.50238e-141
-5.04404e-144
-1.58054e-146
-4.62163e-149
-1.26091e-151
-3.20923e-154
-7.61871e-157
-1.68676e-159
-3.48215e-162
-6.70177e-165
-1.20228e-167
-2.01013e-170
-3.13159e-173
-4.5452e-176
-6.14479e-179
-7.73657e-182
-9.06975e-185
-9.89837e-188
-1.00547e-190
-9.50445e-194
-8.35889e-197
-6.83827e-200
-5.2027e-203
-3.68049e-206
-2.42038e-209
-1.47934e-212
-8.40163e-216
-4.43274e-219
-2.17218e-222
-9.88397e-226
-4.17523e-229
-1.63696e-232
-5.95524e-236
-2.00982e-239
-6.2908e-243
-1.82572e-246
-4.91167e-250
-1.22456e-253
-2.82861e-257
-6.05189e-261
-1.19899e-264
-2.19902e-268
-3.73257e-272
-5.86181e-276
-8.51481e-280
-1.1437e-283
-1.42008e-287
-1.62949e-291
-1.72741e-295
-1.69125e-299
-1.52883e-303
-1.27558e-307
-9.82012e-312
-6.97342e-316
-4.54392e-320
0
0
0
0
0
0
0
0
0
0
0
0
0
0
0
0
0
0
0
0
0
0
0
0
0
0
0
0
0
0
0
0
0
0
0
0
0
0
0
0
0
0
0
0
0
0
0
0
0
0
0
0
0
0
0
0
0
0
0
0
0
0
0
0
0
0
0
0
0
0
0
0
0
0
0
0
0
0
0
0
0
0
0
0
0
0
0
0
0
0
0
0
0
0
0
0
-4.67021e-112
-3.78209e-114
-2.86489e-116
-2.02951e-118
-1.34434e-120
-8.32504e-123
-4.81901e-125
-2.60708e-127
-1.31797e-129
-6.22511e-132
-2.74669e-134
-1.13195e-136
-4.35645e-139
-1.56551e-141
-5.2521e-144
-1.64471e-146
-4.80685e-149
-1.31091e-151
-3.33548e-154
-7.91667e-157
-1.75248e-159
-3.61756e-162
-6.96237e-165
-1.2491e-167
-2.08865e-170
-3.25445e-173
-4.7245e-176
-6.38881e-179
-8.04614e-182
-9.43573e-185
-1.03015e-187
-1.04682e-190
-9.89943e-194
-8.71007e-197
-7.12882e-200
-5.42635e-203
-3.8406e-206
-2.52696e-209
-1.54529e-212
-8.78082e-216
-4.63531e-219
-2.27269e-222
-1.03471e-225
-4.37333e-229
-1.7156e-232
-6.24487e-236
-2.10877e-239
-6.60428e-243
-1.91779e-246
-5.1623e-250
-1.28778e-253
-2.9763e-257
-6.37144e-261
-1.263e-264
-2.31769e-268
-3.93614e-272
-6.18482e-276
-8.98878e-280
-1.20799e-283
-1.50069e-287
-1.72285e-291
-1.82728e-295
-1.78991e-299
-1.61878e-303
-1.35126e-307
-1.04075e-311
-7.39385e-316
-4.7371e-320
0
0
0
0
0
0
0
0
0
0
0
0
0
0
0
0
0
0
0
0
0
0
0
0
0
0
0
0
0
0
0
0
0
0
0
0
0
0
0
0
0
0
0
0
0
0
0
0
0
0
0
0
0
0
0
0
0
0
0
0
0
0
0
0
0
0
0
0
0
0
0
0
0
0
0
0
0
0
0
0
0
0
0
0
0
0
0
0
0
0
0
0
0
0
0
0
-4.67382e-112
-3.79099e-114
-2.87523e-116
-2.03882e-118
-1.35152e-120
-8.37423e-123
-4.84944e-125
-2.62425e-127
-1.32686e-129
-6.26745e-132
-2.7653e-134
-1.1395e-136
-4.38477e-139
-1.57534e-141
-5.28357e-144
-1.65403e-146
-4.83228e-149
-1.3173e-151
-3.35023e-154
-7.94779e-157
-1.75845e-159
-3.62786e-162
-6.97806e-165
-1.25114e-167
-2.09069e-170
-3.2554e-173
-4.7225e-176
-6.38134e-179
-8.0305e-182
-9.40981e-185
-1.02646e-187
-1.04218e-190
-9.8467e-194
-8.6557e-197
-7.0776e-200
-5.3821e-203
-3.80545e-206
-2.50124e-209
-1.52794e-212
-8.67281e-216
-4.57319e-219
-2.23967e-222
-1.01849e-225
-4.29962e-229
-1.68462e-232
-6.1245e-236
-2.0655e-239
-6.46038e-243
-1.87353e-246
-5.0364e-250
-1.25465e-253
-2.89573e-257
-6.1902e-261
-1.22532e-264
-2.24526e-268
-3.80752e-272
-5.97377e-276
-8.66888e-280
-1.16321e-283
-1.44281e-287
-1.6538e-291
-1.75125e-295
-1.71267e-299
-1.54641e-303
-1.28873e-307
-9.9094e-312
-7.02816e-316
-4.49797e-320
0
0
0
0
0
0
0
0
0
0
0
0
0
0
0
0
0
0
0
0
0
0
0
0
0
0
0
0
0
0
0
0
0
0
0
0
0
0
0
0
0
0
0
0
0
0
0
0
0
0
0
0
0
0
0
0
0
0
0
0
0
0
0
0
0
0
0
0
0
0
0
0
0
0
0
0
0
0
0
0
0
0
0
0
0
0
0
0
0
0
0
0
0
0
0
0
-3.92315e-112
-3.19801e-114
-2.43596e-116
-1.73375e-118
-1.15293e-120
-7.16291e-123
-4.15728e-125
-2.25384e-127
-1.14126e-129
-5.39702e-132
-2.38329e-134
-9.82659e-137
-3.7825e-139
-1.35909e-141
-4.55778e-144
-1.42638e-146
-4.16513e-149
-1.13468e-151
-2.88341e-154
-6.83375e-157
-1.5103e-159
-3.11206e-162
-5.97783e-165
-1.07023e-167
-1.78557e-170
-2.77566e-173
-4.01945e-176
-5.42128e-179
-6.80913e-182
-7.96259e-185
-8.66779e-188
-8.78152e-191
-8.27852e-194
-7.26057e-197
-5.92292e-200
-4.49323e-203
-3.16919e-206
-2.07783e-209
-1.26606e-212
-7.16773e-216
-3.76961e-219
-1.8412e-222
-8.35018e-226
-3.51543e-229
-1.37355e-232
-4.9796e-236
-1.67462e-239
-5.22285e-243
-1.51027e-246
-4.0481e-250
-1.0055e-253
-2.31383e-257
-4.93161e-261
-9.73269e-265
-1.77806e-268
-3.00614e-272
-4.70215e-276
-6.80279e-280
-9.10027e-284
-1.1253e-287
-1.2859e-291
-1.35747e-295
-1.32346e-299
-1.19127e-303
-9.89685e-308
-7.58628e-312
-5.36373e-316
-3.39423e-320
0
0
0
0
0
0
0
0
0
0
0
0
0
0
0
0
0
0
0
0
0
0
0
0
0
0
0
0
0
0
0
0
0
0
0
0
0
0
0
0
0
0
0
0
0
0
0
0
0
0
0
0
0
0
0
0
0
0
0
0
0
0
0
0
0
0
0
0
0
0
0
0
0
0
0
0
0
0
0
0
0
0
0
0
0
0
0
0
0
0
0
0
0
0
0
0
-2.79803e-112
-2.29257e-114
-1.75409e-116
-1.25327e-118
-8.36171e-121
-5.20945e-123
-3.03051e-125
-1.64606e-127
-8.34733e-130
-3.95177e-132
-1.74639e-134
-7.2037e-137
-2.77326e-139
-9.9632e-142
-3.33989e-144
-1.04457e-146
-3.04762e-149
-8.29366e-152
-2.10492e-154
-4.98156e-157
-1.09919e-159
-2.26099e-162
-4.33482e-165
-7.74504e-168
-1.2894e-170
-1.9998e-173
-2.88903e-176
-3.88694e-179
-4.86941e-182
-5.67911e-185
-6.16509e-188
-6.22834e-191
-5.85459e-194
-5.11949e-197
-4.16368e-200
-3.14891e-203
-2.21405e-206
-1.44699e-209
-8.78833e-213
-4.95921e-216
-2.5995e-219
-1.26544e-222
-5.71963e-226
-2.39977e-229
-9.34426e-233
-3.3759e-236
-1.13136e-239
-3.51616e-243
-1.01318e-246
-2.70612e-250
-6.69784e-254
-1.53581e-257
-3.26168e-261
-6.41401e-265
-1.16757e-268
-1.9669e-272
-3.06552e-276
-4.41903e-280
-5.89014e-284
-7.25725e-288
-8.263e-292
-8.69144e-296
-8.44311e-300
-7.57242e-304
-6.26834e-308
-4.7876e-312
-3.3728e-316
-2.08595e-320
0
0
0
0
0
0
0
0
0
0
0
0
0
0
0
0
0
0
0
0
0
0
0
0
0
0
0
0
0
0
0
0
0
0
0
0
0
0
0
0
0
0
0
0
0
0
0
0
0
0
0
0
0
0
0
0
0
0
0
0
0
0
0
0
0
0
0
0
0
0
0
0
0
0
0
0
0
0
0
0
0
0
0
0
0
0
0
0
0
0
0
0
0
0
0
0
-1.7614e-112
-1.44896e-114
-1.11245e-116
-7.97169e-119
-5.3318e-121
-3.32852e-123
-1.93944e-125
-1.05472e-127
-5.35324e-130
-2.53566e-132
-1.12082e-134
-4.6229e-137
-1.77908e-139
-6.38764e-142
-2.13947e-144
-6.68415e-147
-1.94767e-149
-5.29252e-152
-1.34102e-154
-3.16792e-157
-6.97632e-160
-1.43196e-162
-2.73919e-165
-4.88248e-168
-8.10807e-171
-1.25425e-173
-1.80707e-176
-2.42445e-179
-3.0285e-182
-3.52161e-185
-3.81135e-188
-3.83849e-191
-3.59671e-194
-3.13495e-197
-2.54129e-200
-1.91553e-203
-1.34229e-206
-8.74261e-210
-5.2915e-213
-2.97556e-216
-1.55423e-219
-7.5392e-223
-3.39547e-226