/*--------------------------------*- C++ -*----------------------------------*\
| =========                 |                                                 |
| \\      /  F ield         | OpenFOAM: The Open Source CFD Toolbox           |
|  \\    /   O peration     | Version:  v1912                                 |
|   \\  /    A nd           | Website:  www.openfoam.com                      |
|    \\/     M anipulation  |                                                 |
\*---------------------------------------------------------------------------*/
FoamFile
{
    version     2.0;
    format      ascii;
    class       surfaceScalarField;
    location    "60";
    object      alphaPhi0.water;
}
// * * * * * * * * * * * * * * * * * * * * * * * * * * * * * * * * * * * * * //

dimensions      [0 3 -1 0 0 0 0];
oriented        oriented;


internalField   nonuniform List<scalar> 
28285
(
-4.15255e-113
-2.32762e-114
-3.19205e-115
-1.79833e-116
-2.29414e-117
-1.29899e-118
-1.54138e-119
-8.77129e-121
-9.68013e-122
-5.53592e-123
-5.68175e-124
-3.26535e-125
-3.11641e-126
-1.7998e-127
-1.59713e-128
-9.26876e-130
-7.64682e-131
-4.45923e-132
-3.41993e-133
-2.00393e-134
-1.42853e-135
-8.41068e-137
-5.57234e-138
-3.29643e-139
-2.02954e-140
-1.20631e-141
-6.90095e-143
-4.12115e-144
-2.19031e-145
-1.31418e-146
-6.48818e-148
-3.91115e-149
-1.79348e-150
-1.08618e-151
-4.62547e-153
-2.8144e-154
-1.11285e-155
-6.8027e-157
-2.49729e-158
-1.53365e-159
-5.22615e-161
-3.22436e-162
-1.01977e-163
-6.32077e-165
-1.85508e-166
-1.15512e-167
-3.14545e-169
-1.96765e-170
-4.97043e-172
-3.12359e-173
-7.3184e-175
-4.6203e-176
-1.00386e-177
-6.36677e-179
-1.2826e-180
-8.17194e-182
-1.5261e-183
-9.76804e-185
-1.69073e-186
-1.08714e-187
-1.74374e-189
-1.12637e-190
-1.67388e-192
-1.0862e-193
-1.49525e-195
-9.74731e-197
-1.24271e-198
-8.13814e-200
-9.60731e-202
-6.32039e-203
-6.90759e-205
-4.56513e-206
-4.61801e-208
-3.06595e-209
-2.87009e-211
-1.91422e-212
-1.65791e-214
-1.11081e-215
-8.89935e-218
-5.98992e-219
-4.43807e-221
-3.00082e-222
-2.05578e-224
-1.39638e-225
-8.84322e-228
-6.03419e-229
-3.53183e-231
-2.42097e-232
-1.30933e-234
-9.01606e-236
-4.50466e-238
-3.11606e-239
-1.43793e-241
-9.99208e-243
-4.25777e-245
-2.97214e-246
-1.1692e-248
-8.19872e-250
-2.97691e-252
-2.09693e-253
-7.02595e-256
-4.97146e-257
-1.53677e-259
-1.0923e-260
-3.1144e-263
-2.22358e-264
-5.84654e-267
-4.19293e-268
-1.01644e-270
-7.32201e-272
-1.63612e-274
-1.18383e-275
-2.43782e-278
-1.77168e-279
-3.36153e-282
-2.45368e-283
-4.28862e-286
-3.14401e-287
-5.06105e-290
-3.72628e-291
-5.52339e-294
-4.08405e-295
-5.57326e-298
-4.13835e-299
-5.1982e-302
-3.87596e-303
-4.4806e-306
-3.35465e-307
-3.56829e-310
-2.68244e-311
-2.625e-314
-1.98119e-315
-1.7834e-318
-1.35127e-319
-1.13635e-322
-9.88131e-324
0
0
0
0
0
0
0
0
0
0
0
0
0
0
0
0
0
0
0
0
0
0
0
0
0
0
0
0
0
0
0
0
0
0
0
0
0
0
0
0
0
0
0
0
0
0
0
0
0
0
0
0
0
0
0
0
0
0
0
0
0
0
0
0
0
0
0
0
0
0
0
0
0
0
0
0
0
0
0
0
0
0
0
0
0
0
0
0
0
0
0
0
0
0
0
0
0
0
0
0
0
0
0
0
0
0
0
0
0
0
0
0
0
0
0
0
0
0
0
0
0
0
0
0
0
0
0
0
0
0
0
0
0
0
0
0
0
0
0
0
0
0
0
0
0
0
0
0
0
0
0
0
0
0
0
0
0
0
0
0
0
0
0
0
0
0
0
0
0
0
0
0
0
0
0
0
0
0
0
0
0
0
0
0
0
0
0
0
0
0
0
-3.0721e-113
-3.44681e-114
-2.34708e-115
-2.64675e-116
-1.67678e-117
-1.90041e-118
-1.12002e-119
-1.27575e-120
-6.99383e-122
-8.00589e-123
-4.08216e-124
-4.69595e-125
-2.22685e-126
-2.57423e-127
-1.13516e-128
-1.31864e-129
-5.40665e-131
-6.31096e-132
-2.40572e-133
-2.82162e-134
-9.9987e-136
-1.17835e-136
-3.88117e-138
-4.59577e-139
-1.40682e-140
-1.67375e-141
-4.7611e-143
-5.69124e-144
-1.50419e-145
-1.80651e-146
-4.43564e-148
-5.35217e-149
-1.22069e-150
-1.4798e-151
-3.13455e-153
-3.81766e-154
-7.50934e-156
-9.1884e-157
-1.67808e-158
-2.06283e-159
-3.49733e-161
-4.31911e-162
-6.79674e-164
-8.43263e-165
-1.23149e-166
-1.53495e-167
-2.07995e-169
-2.60445e-170
-3.27409e-172
-4.1186e-173
-4.8025e-175
-6.06905e-176
-6.56304e-178
-8.33203e-179
-8.35458e-181
-1.06552e-181
-9.90478e-184
-1.26903e-184
-1.09342e-186
-1.40735e-187
-1.12373e-189
-1.45301e-190
-1.07496e-192
-1.39633e-193
-9.56962e-196
-1.24875e-196
-7.92644e-199
-1.03907e-199
-6.10742e-202
-8.04288e-203
-4.37669e-205
-5.79011e-206
-2.91644e-208
-3.87597e-209
-1.80671e-211
-2.41214e-212
-1.04031e-214
-1.39528e-215
-5.56652e-218
-7.50012e-219
-2.7673e-221
-3.74564e-222
-1.27787e-224
-1.73756e-225
-5.47998e-228
-7.48544e-229
-2.18192e-231
-2.99406e-232
-8.06433e-235
-1.11166e-235
-2.76611e-238
-3.83047e-239
-8.80328e-242
-1.22463e-242
-2.59892e-245
-3.63184e-246
-7.11564e-249
-9.98896e-250
-1.80637e-252
-2.54731e-253
-4.2508e-256
-6.02156e-257
-9.27051e-260
-1.31917e-260
-1.87328e-263
-2.67763e-264
-3.50641e-267
-5.03451e-268
-6.0783e-271
-8.76625e-272
-9.75567e-275
-1.41325e-275
-1.44939e-278
-2.10893e-279
-1.99278e-282
-2.91235e-283
-2.535e-286
-3.72096e-287
-2.98289e-290
-4.39736e-291
-3.2459e-294
-4.80563e-295
-3.26564e-298
-4.8554e-299
-3.03693e-302
-4.53432e-303
-2.60996e-306
-3.91299e-307
-2.07237e-310
-3.1197e-311
-1.51998e-314
-2.29733e-315
-1.02954e-318
-1.56219e-319
-6.42285e-323
-9.88131e-324
0
0
0
0
0
0
0
0
0
0
0
0
0
0
0
0
0
0
0
0
0
0
0
0
0
0
0
0
0
0
0
0
0
0
0
0
0
0
0
0
0
0
0
0
0
0
0
0
0
0
0
0
0
0
0
0
0
0
0
0
0
0
0
0
0
0
0
0
0
0
0
0
0
0
0
0
0
0
0
0
0
0
0
0
0
0
0
0
0
0
0
0
0
0
0
0
0
0
0
0
0
0
0
0
0
0
0
0
0
0
0
0
0
0
0
0
0
0
0
0
0
0
0
0
0
0
0
0
0
0
0
0
0
0
0
0
0
0
0
0
0
0
0
0
0
0
0
0
0
0
0
0
0
0
0
0
0
0
0
0
0
0
0
0
0
0
0
0
0
0
0
0
0
0
0
0
0
0
0
0
0
0
0
0
0
0
0
0
0
0
0
-1.98906e-113
-3.34872e-114
-1.52096e-115
-2.57366e-116
-1.08753e-117
-1.84953e-118
-7.27046e-120
-1.24266e-120
-4.54384e-122
-7.8049e-123
-2.65439e-124
-4.58194e-125
-1.4492e-126
-2.51384e-127
-7.3936e-129
-1.28877e-129
-3.52439e-131
-6.1731e-132
-1.56947e-133
-2.76222e-134
-6.52828e-136
-1.15447e-136
-2.53607e-138
-4.50619e-139
-9.19968e-141
-1.6424e-141
-3.11581e-143
-5.58889e-144
-9.85121e-146
-1.77535e-146
-2.90711e-148
-5.26371e-149
-8.00607e-151
-1.45639e-151
-2.05728e-153
-3.75988e-154
-4.93191e-156
-9.05551e-157
-1.10284e-158
-2.03434e-159
-2.29993e-161
-4.26221e-162
-4.47248e-164
-8.32673e-165
-8.10849e-167
-1.51659e-167
-1.37029e-169
-2.57479e-170
-2.1582e-172
-4.07398e-173
-3.16738e-175
-6.00652e-176
-4.3307e-178
-8.2504e-179
-5.51553e-181
-1.0556e-181
-6.54194e-184
-1.25779e-184
-7.22494e-187
-1.39549e-187
-7.42827e-190
-1.44136e-190
-7.10858e-193
-1.38566e-193
-6.33045e-196
-1.23965e-196
-5.24514e-199
-1.03184e-199
-4.04261e-202
-7.98927e-203
-2.89776e-205
-5.75304e-206
-1.93138e-208
-3.85206e-209
-1.19671e-211
-2.39775e-212
-6.89181e-215
-1.3872e-215
-3.68815e-218
-7.45767e-219
-1.83367e-221
-3.72482e-222
-8.46788e-225
-1.72802e-225
-3.63142e-228
-7.44457e-229
-1.44587e-231
-2.97769e-232
-5.34358e-235
-1.10553e-235
-1.8327e-238
-3.80905e-239
-5.83183e-242
-1.21763e-242
-1.72137e-245
-3.61049e-246
-4.7119e-249
-9.92814e-250
-1.19583e-252
-2.53116e-253
-2.81317e-256
-5.9816e-257
-6.13293e-260
-1.30996e-260
-1.23875e-263
-2.65789e-264
-2.3176e-267
-4.99516e-268
-4.01541e-271
-8.6934e-272
-6.44097e-275
-1.40072e-275
-9.5631e-279
-2.08897e-279
-1.31391e-282
-2.88285e-283
-1.67013e-286
-3.68057e-287
-1.96357e-290
-4.34617e-291
-2.13476e-294
-4.74558e-295
-2.14563e-298
-4.79023e-299
-1.99324e-302
-4.46894e-303
-1.71105e-306
-3.85237e-307
-1.35694e-310
-3.06776e-311
-9.93927e-315
-2.25624e-315
-6.72275e-319
-1.5322e-319
-3.95253e-323
-9.88131e-324
0
0
0
0
0
0
0
0
0
0
0
0
0
0
0
0
0
0
0
0
0
0
0
0
0
0
0
0
0
0
0
0
0
0
0
0
0
0
0
0
0
0
0
0
0
0
0
0
0
0
0
0
0
0
0
0
0
0
0
0
0
0
0
0
0
0
0
0
0
0
0
0
0
0
0
0
0
0
0
0
0
0
0
0
0
0
0
0
0
0
0
0
0
0
0
0
0
0
0
0
0
0
0
0
0
0
0
0
0
0
0
0
0
0
0
0
0
0
0
0
0
0
0
0
0
0
0
0
0
0
0
0
0
0
0
0
0
0
0
0
0
0
0
0
0
0
0
0
0
0
0
0
0
0
0
0
0
0
0
0
0
0
0
0
0
0
0
0
0
0
0
0
0
0
0
0
0
0
0
0
0
0
0
0
0
0
0
0
0
0
0
-1.35694e-113
-3.04652e-114
-1.0415e-115
-2.3502e-116
-7.47453e-118
-1.69519e-118
-5.01512e-120
-1.14311e-120
-3.14552e-122
-7.2053e-123
-1.84399e-124
-4.24481e-125
-1.01023e-126
-2.33693e-127
-5.17154e-129
-1.20214e-129
-2.4734e-131
-5.77737e-132
-1.10505e-133
-2.59362e-134
-4.61128e-136
-1.08748e-136
-1.79701e-138
-4.25814e-139
-6.5389e-141
-1.5568e-141
-2.22136e-143
-5.31368e-144
-7.04413e-146
-1.69296e-146
-2.0848e-148
-5.03406e-149
-5.75784e-151
-1.39683e-151
-1.4837e-153
-3.61623e-154
-3.56662e-156
-8.7334e-157
-7.99681e-159
-1.96725e-159
-1.67207e-161
-4.13246e-162
-3.25988e-164
-8.09397e-165
-5.92487e-167
-1.4779e-167
-1.00372e-169
-2.51525e-170
-1.58463e-172
-3.9893e-173
-2.33103e-175
-5.89543e-176
-3.19443e-178
-8.11628e-179
-4.07741e-181
-1.04075e-181
-4.84664e-184
-1.24278e-184
-5.3639e-187
-1.38175e-187
-5.52614e-190
-1.4301e-190
-5.29883e-193
-1.37758e-193
-4.72792e-196
-1.23481e-196
-3.92469e-199
-1.02975e-199
-3.03039e-202
-7.98766e-203
-2.17602e-205
-5.76207e-206
-1.4528e-208
-3.86471e-209
-9.01656e-212
-2.40961e-212
-5.20083e-215
-1.39629e-215
-2.78747e-218
-7.5181e-219
-1.3879e-221
-3.76056e-222
-6.41835e-225
-1.74709e-225
-2.75619e-228
-7.53697e-229
-1.0988e-231
-3.01858e-232
-4.06587e-235
-1.12211e-235
-1.39609e-238
-3.87072e-239
-4.44737e-242
-1.23872e-242
-1.31407e-245
-3.67691e-246
-3.60047e-249
-1.01208e-249
-9.1458e-253
-2.58266e-253
-2.1533e-256
-6.10851e-257
-4.69788e-260
-1.3388e-260
-9.49536e-264
-2.71834e-264
-1.77757e-267
-5.11203e-268
-3.08137e-271
-8.9018e-272
-4.94488e-275
-1.435e-275
-7.3444e-279
-2.14094e-279
-1.00935e-282
-2.9555e-283
-1.28321e-286
-3.77419e-287
-1.50879e-290
-4.45733e-291
-1.64029e-294
-4.86715e-295
-1.64843e-298
-4.91266e-299
-1.53099e-302
-4.58239e-303
-1.31377e-306
-3.94908e-307
-1.04138e-310
-3.14355e-311
-7.62322e-315
-2.31078e-315
-5.15236e-319
-1.56821e-319
-3.45846e-323
-9.88131e-324
0
0
0
0
0
0
0
0
0
0
0
0
0
0
0
0
0
0
0
0
0
0
0
0
0
0
0
0
0
0
0
0
0
0
0
0
0
0
0
0
0
0
0
0
0
0
0
0
0
0
0
0
0
0
0
0
0
0
0
0
0
0
0
0
0
0
0
0
0
0
0
0
0
0
0
0
0
0
0
0
0
0
0
0
0
0
0
0
0
0
0
0
0
0
0
0
0
0
0
0
0
0
0
0
0
0
0
0
0
0
0
0
0
0
0
0
0
0
0
0
0
0
0
0
0
0
0
0
0
0
0
0
0
0
0
0
0
0
0
0
0
0
0
0
0
0
0
0
0
0
0
0
0
0
0
0
0
0
0
0
0
0
0
0
0
0
0
0
0
0
0
0
0
0
0
0
0
0
0
0
0
0
0
0
0
0
0
0
0
0
0
-1.01145e-113
-2.83884e-114
-7.79449e-116
-2.19881e-116
-5.61582e-118
-1.59221e-118
-3.78238e-120
-1.07777e-120
-2.38114e-122
-6.81868e-123
-1.40093e-124
-4.03156e-125
-7.70198e-127
-2.22733e-127
-3.95623e-129
-1.14968e-129
-1.89843e-131
-5.54358e-132
-8.50903e-134
-2.4967e-134
-3.56187e-136
-1.05013e-136
-1.39228e-138
-4.12438e-139
-5.08114e-141
-1.51235e-141
-1.73108e-143
-5.1768e-144
-5.50468e-146
-1.65394e-146
-1.63357e-148
-4.93131e-149
-4.52342e-151
-1.3719e-151
-1.16856e-153
-3.56069e-154
-2.81595e-156
-8.62042e-157
-6.32871e-159
-1.94641e-159
-1.32633e-161
-4.09811e-162
-2.59155e-164
-8.04457e-165
-4.72028e-167
-1.47204e-167
-8.01312e-170
-2.51048e-170
-1.26761e-172
-3.98974e-173
-1.86828e-175
-5.90748e-176
-2.56503e-178
-8.14805e-179
-3.27989e-181
-1.0467e-181
-3.90537e-184
-1.25205e-184
-4.32931e-187
-1.39437e-187
-4.46732e-190
-1.44546e-190
-4.29006e-193
-1.39451e-193
-3.83339e-196
-1.25181e-196
-3.18654e-199
-1.04538e-199
-2.46369e-202
-8.11972e-203
-1.77131e-205
-5.86475e-206
-1.18401e-208
-3.93832e-209
-7.35657e-212
-2.4583e-212
-4.24782e-215
-1.42603e-215
-2.27895e-218
-7.68602e-219
-1.13576e-221
-3.84819e-222
-5.25682e-225
-1.78937e-225
-2.25919e-228
-7.72568e-229
-9.01315e-232
-3.09648e-232
-3.33731e-235
-1.15185e-235
-1.1466e-238
-3.97575e-239
-3.65448e-242
-1.27303e-242
-1.08027e-245
-3.78054e-246
-2.96096e-249
-1.04102e-249
-7.52356e-253
-2.65739e-253
-1.77173e-256
-6.28686e-257
-3.86594e-260
-1.37813e-260
-7.81424e-264
-2.79847e-264
-1.46281e-267
-5.2628e-268
-2.53542e-271
-9.16368e-272
-4.06788e-275
-1.47697e-275
-6.03994e-279
-2.20301e-279
-8.29729e-283
-3.04013e-283
-1.05431e-286
-3.88052e-287
-1.23887e-290
-4.58035e-291
-1.34584e-294
-4.99815e-295
-1.35133e-298
-5.04094e-299
-1.2538e-302
-4.69779e-303
-1.07469e-306
-4.04434e-307
-8.50777e-311
-3.21561e-311
-6.21901e-315
-2.36064e-315
-4.19654e-319
-1.59969e-319
-2.47033e-323
-9.88131e-324
0
0
0
0
0
0
0
0
0
0
0
0
0
0
0
0
0
0
0
0
0
0
0
0
0
0
0
0
0
0
0
0
0
0
0
0
0
0
0
0
0
0
0
0
0
0
0
0
0
0
0
0
0
0
0
0
0
0
0
0
0
0
0
0
0
0
0
0
0
0
0
0
0
0
0
0
0
0
0
0
0
0
0
0
0
0
0
0
0
0
0
0
0
0
0
0
0
0
0
0
0
0
0
0
0
0
0
0
0
0
0
0
0
0
0
0
0
0
0
0
0
0
0
0
0
0
0
0
0
0
0
0
0
0
0
0
0
0
0
0
0
0
0
0
0
0
0
0
0
0
0
0
0
0
0
0
0
0
0
0
0
0
0
0
0
0
0
0
0
0
0
0
0
0
0
0
0
0
0
0
0
0
0
0
0
0
0
0
0
0
0
-7.96646e-114
-2.68335e-114
-6.15555e-116
-2.08393e-116
-4.44634e-118
-1.51289e-118
-3.00205e-120
-1.02658e-120
-1.89433e-122
-6.51013e-123
-1.11702e-124
-3.85778e-125
-6.1543e-127
-2.13591e-127
-3.16773e-129
-1.10476e-129
-1.52304e-131
-5.33742e-132
-6.83925e-134
-2.40835e-134
-2.86801e-136
-1.01478e-136
-1.12296e-138
-3.99233e-139
-4.10488e-141
-1.4663e-141
-1.40063e-143
-5.02689e-144
-4.46036e-146
-1.60839e-146
-1.32549e-148
-4.80215e-149
-3.67512e-151
-1.33772e-151
-9.50591e-154
-3.47629e-154
-2.29336e-156
-8.42593e-157
-5.15986e-159
-1.9046e-159
-1.08248e-161
-4.01422e-162
-2.11713e-164
-7.88754e-165
-3.85963e-167
-1.44461e-167
-6.55757e-170
-2.46579e-170
-1.03816e-172
-3.92178e-173
-1.53119e-175
-5.81106e-176
-2.10361e-178
-8.02038e-179
-2.69148e-181
-1.03092e-181
-3.20647e-184
-1.23386e-184
-3.55626e-187
-1.37478e-187
-3.67118e-190
-1.42577e-190
-3.52681e-193
-1.37604e-193
-3.15237e-196
-1.23564e-196
-2.62111e-199
-1.03215e-199
-2.02693e-202
-8.01872e-203
-1.45751e-205
-5.79275e-206
-9.74341e-209
-3.89039e-209
-6.05408e-212
-2.42851e-212
-3.49567e-215
-1.40875e-215
-1.87527e-218
-7.59246e-219
-9.34453e-222
-3.80093e-222
-4.32427e-225
-1.7671e-225
-1.85795e-228
-7.62781e-229
-7.41008e-232
-3.05639e-232
-2.74272e-235
-1.13655e-235
-9.41911e-239
-3.92136e-239
-3.00059e-242
-1.25503e-242
-8.86479e-246
-3.72512e-246
-2.42825e-249
-1.02515e-249
-6.16563e-253
-2.61515e-253
-1.45083e-256
-6.1824e-257
-3.16301e-260
-1.35414e-260
-6.38743e-264
-2.74733e-264
-1.1945e-267
-5.16165e-268
-2.06808e-271
-8.97818e-272
-3.31409e-275
-1.44544e-275
-4.91436e-279
-2.15333e-279
-6.7416e-283
-2.96765e-283
-8.55348e-287
-3.78261e-287
-1.00345e-290
-4.45796e-291
-1.08819e-294
-4.85659e-295
-1.0906e-298
-4.88952e-299
-1.00986e-302
-4.54805e-303
-8.63732e-307
-3.90747e-307
-6.82197e-311
-3.10002e-311
-4.9744e-315
-2.27048e-315
-3.34779e-319
-1.53477e-319
-1.97626e-323
-9.88131e-324
0
0
0
0
0
0
0
0
0
0
0
0
0
0
0
0
0
0
0
0
0
0
0
0
0
0
0
0
0
0
0
0
0
0
0
0
0
0
0
0
0
0
0
0
0
0
0
0
0
0
0
0
0
0
0
0
0
0
0
0
0
0
0
0
0
0
0
0
0
0
0
0
0
0
0
0
0
0
0
0
0
0
0
0
0
0
0
0
0
0
0
0
0
0
0
0
0
0
0
0
0
0
0
0
0
0
0
0
0
0
0
0
0
0
0
0
0
0
0
0
0
0
0
0
0
0
0
0
0
0
0
0
0
0
0
0
0
0
0
0
0
0
0
0
0
0
0
0
0
0
0
0
0
0
0
0
0
0
0
0
0
0
0
0
0
0
0
0
0
0
0
0
0
0
0
0
0
0
0
0
0
0
0
0
0
0
0
0
0
0
0
-6.35687e-114
-2.49825e-114
-4.91753e-116
-1.94243e-116
-3.55589e-118
-1.41168e-118
-2.40322e-120
-9.5886e-121
-1.51785e-122
-6.08621e-123
-8.9577e-125
-3.6096e-125
-4.93906e-127
-2.00003e-127
-2.54398e-129
-1.03519e-129
-1.2239e-131
-5.00448e-132
-5.49904e-134
-2.25939e-134
-2.30714e-136
-9.52488e-137
-9.03747e-139
-3.74891e-139
-3.3048e-141
-1.37742e-141
-1.12799e-143
-4.7237e-144
-3.59308e-146
-1.51179e-146
-1.06798e-148
-4.5147e-149
-2.96161e-151
-1.25785e-151
-7.6612e-154
-3.2691e-154
-1.84842e-156
-7.92425e-157
-4.15883e-159
-1.79123e-159
-8.72444e-162
-3.77517e-162
-1.7062e-164
-7.41728e-165
-3.11009e-167
-1.35832e-167
-5.2832e-170
-2.31813e-170
-8.36229e-173
-3.68618e-173
-1.23305e-175
-5.46063e-176
-1.69352e-178
-7.53457e-179
-2.16605e-181
-9.68161e-182
-2.57954e-184
-1.15832e-184
-2.85975e-187
-1.2901e-187
-2.95082e-190
-1.33735e-190
-2.83337e-193
-1.29008e-193
-2.5312e-196
-1.15785e-196
-2.10342e-199
-9.66636e-200
-1.6256e-202
-7.50522e-203
-1.16816e-205
-5.41834e-206
-7.80366e-209
-3.63648e-209
-4.84525e-212
-2.26839e-212
-2.7955e-215
-1.31487e-215
-1.49844e-218
-7.08083e-219
-7.46028e-222
-3.54182e-222
-3.44918e-225
-1.64518e-225
-1.48054e-228
-7.09495e-229
-5.89895e-232
-2.84011e-232
-2.1811e-235
-1.05504e-235
-7.48211e-239
-3.63625e-239
-2.38077e-242
-1.16248e-242
-7.0251e-246
-3.44636e-246
-1.92187e-249
-9.47271e-250
-4.87337e-253
-2.41336e-253
-1.14514e-256
-5.69766e-257
-2.49292e-260
-1.24621e-260
-5.02651e-264
-2.5246e-264
-9.38478e-268
-4.73583e-268
-1.62207e-271
-8.2241e-272
-2.59475e-275
-1.32177e-275
-3.84048e-279
-1.96558e-279
-5.25809e-283
-2.70379e-283
-6.65747e-287
-3.43946e-287
-7.79317e-291
-4.0451e-291
-8.43195e-295
-4.39715e-295
-8.43015e-299
-4.41674e-299
-7.7861e-303
-4.09828e-303
-6.64149e-307
-3.512e-307
-5.23065e-311
-2.7787e-311
-3.80254e-315
-2.0293e-315
-2.55096e-319
-1.36757e-319
-1.4822e-323
-9.88131e-324
0
0
0
0
0
0
0
0
0
0
0
0
0
0
0
0
0
0
0
0
0
0
0
0
0
0
0
0
0
0
0
0
0
0
0
0
0
0
0
0
0
0
0
0
0
0
0
0
0
0
0
0
0
0
0
0
0
0
0
0
0
0
0
0
0
0
0
0
0
0
0
0
0
0
0
0
0
0
0
0
0
0
0
0
0
0
0
0
0
0
0
0
0
0
0
0
0
0
0
0
0
0
0
0
0
0
0
0
0
0
0
0
0
0
0
0
0
0
0
0
0
0
0
0
0
0
0
0
0
0
0
0
0
0
0
0
0
0
0
0
0
0
0
0
0
0
0
0
0
0
0
0
0
0
0
0
0
0
0
0
0
0
0
0
0
0
0
0
0
0
0
0
0
0
0
0
0
0
0
0
0
0
0
0
0
0
0
0
0
0
0
-5.01057e-114
-2.25066e-114
-3.87645e-116
-1.7501e-116
-2.8032e-118
-1.27196e-118
-1.89449e-120
-8.63948e-121
-1.19646e-122
-5.48343e-123
-7.06021e-125
-3.25174e-125
-3.8922e-127
-1.80146e-127
-2.00435e-129
-9.32224e-130
-9.64048e-132
-4.50558e-132
-4.33023e-134
-2.03356e-134
-1.81616e-136
-8.57003e-137
-7.11157e-139
-3.37185e-139
-2.59948e-141
-1.23838e-141
-8.8686e-144
-4.24502e-144
-2.82363e-146
-1.35795e-146
-8.38846e-149
-4.05323e-149
-2.32494e-151
-1.12867e-151
-6.01079e-154
-2.93172e-154
-1.44935e-156
-7.10219e-157
-3.25889e-159
-1.6044e-159
-6.83203e-162
-3.37921e-162
-1.33519e-164
-6.6348e-165
-2.43208e-167
-1.21417e-167
-4.12838e-170
-2.07061e-170
-6.52943e-173
-3.29008e-173
-9.6203e-176
-4.87005e-176
-1.32021e-178
-6.71428e-179
-1.68716e-181
-8.62041e-182
-2.00749e-184
-1.03048e-184
-2.22358e-187
-1.1467e-187
-2.2923e-190
-1.18763e-190
-2.19899e-193
-1.14459e-193
-1.96258e-196
-1.0263e-196
-1.62929e-199
-8.55974e-200
-1.25789e-202
-6.63937e-203
-9.0298e-206
-4.78834e-206
-6.02576e-209
-3.21028e-209
-3.73725e-212
-2.00037e-212
-2.15381e-215
-1.15823e-215
-1.15315e-218
-6.23025e-219
-5.73437e-222
-3.11274e-222
-2.64799e-225
-1.44415e-225
-1.13522e-228
-6.22036e-229
-4.51723e-232
-2.48688e-232
-1.66801e-235
-9.22629e-236
-5.71417e-239
-3.17566e-239
-1.81566e-242
-1.01384e-242
-5.34983e-246
-3.00145e-246
-1.46138e-249
-8.23784e-250
-3.69994e-253
-2.0956e-253
-8.6802e-257
-4.93979e-257
-1.88651e-260
-1.07871e-260
-3.79726e-264
-2.18165e-264
-7.07708e-268
-4.08546e-268
-1.22095e-271
-7.08201e-272
-1.94933e-275
-1.13611e-275
-2.87941e-279
-1.68622e-279
-3.93403e-283
-2.31485e-283
-4.97015e-287
-2.93853e-287
-5.80474e-291
-3.4484e-291
-6.26554e-295
-3.73994e-295
-6.24853e-299
-3.74761e-299
-5.75599e-303
-3.46867e-303
-4.89627e-307
-2.96463e-307
-3.84496e-311
-2.33913e-311
-2.78663e-315
-1.70331e-315
-1.86337e-319
-1.14435e-319
-9.88131e-324
-4.94066e-324
0
0
0
0
0
0
0
0
0
0
0
0
0
0
0
0
0
0
0
0
0
0
0
0
0
0
0
0
0
0
0
0
0
0
0
0
0
0
0
0
0
0
0
0
0
0
0
0
0
0
0
0
0
0
0
0
0
0
0
0
0
0
0
0
0
0
0
0
0
0
0
0
0
0
0
0
0
0
0
0
0
0
0
0
0
0
0
0
0
0
0
0
0
0
0
0
0
0
0
0
0
0
0
0
0
0
0
0
0
0
0
0
0
0
0
0
0
0
0
0
0
0
0
0
0
0
0
0
0
0
0
0
0
0
0
0
0
0
0
0
0
0
0
0
0
0
0
0
0
0
0
0
0
0
0
0
0
0
0
0
0
0
0
0
0
0
0
0
0
0
0
0
0
0
0
0
0
0
0
0
0
0
0
0
0
0
0
0
0
0
0
-3.86232e-114
-1.95193e-114
-2.98658e-116
-1.51704e-116
-2.15852e-118
-1.10198e-118
-1.45796e-120
-7.48059e-121
-9.20208e-123
-4.74502e-123
-5.42659e-125
-2.81206e-125
-2.98961e-127
-1.55684e-127
-1.53848e-129
-8.05084e-130
-7.39443e-132
-3.8883e-132
-3.31891e-134
-1.75366e-134
-1.39093e-136
-7.38484e-137
-5.44222e-139
-2.90327e-139
-1.98768e-141
-1.06543e-141
-6.77576e-144
-3.64918e-144
-2.15549e-146
-1.16636e-146
-6.39802e-149
-3.47841e-149
-1.77172e-151
-9.67766e-152
-4.57644e-154
-2.51153e-154
-1.10249e-156
-6.0788e-157
-2.47669e-159
-1.37196e-159
-5.18736e-162
-2.88696e-162
-1.01281e-164
-5.66298e-165
-1.84309e-167
-1.03534e-167
-3.12555e-170
-1.76393e-170
-4.93849e-173
-2.80005e-173
-7.26899e-176
-4.1406e-176
-9.96527e-179
-5.70289e-179
-1.27222e-181
-7.31449e-182
-1.5122e-184
-8.73475e-185
-1.67323e-187
-9.70988e-188
-1.72311e-190
-1.0046e-190
-1.65121e-193
-9.67168e-194
-1.4721e-196
-8.66281e-197
-1.22076e-199
-7.21734e-200
-9.41444e-203
-5.59201e-203
-6.75059e-206
-4.02852e-206
-4.49967e-209
-2.69784e-209
-2.78753e-212
-1.67916e-212
-1.6046e-215
-9.71127e-216
-8.58078e-219
-5.21768e-219
-4.2619e-222
-2.60375e-222
-1.96563e-225
-1.20655e-225
-8.41627e-229
-5.1906e-229
-3.34472e-232
-2.0726e-232
-1.23345e-235
-7.67955e-236
-4.21989e-239
-2.63985e-239
-1.33904e-242
-8.41669e-243
-3.94e-246
-2.48838e-246
-1.07473e-249
-6.8202e-250
-2.71706e-253
-1.73251e-253
-6.36479e-257
-4.07798e-257
-1.38116e-260
-8.89185e-261
-2.77564e-264
-1.79558e-264
-5.16457e-268
-3.35716e-268
-8.89488e-272
-5.81e-272
-1.41764e-275
-9.30472e-276
-2.09022e-279
-1.37859e-279
-2.85039e-283
-1.8891e-283
-3.59403e-287
-2.39355e-287
-4.18893e-291
-2.80333e-291
-4.51178e-295
-3.03412e-295
-4.48945e-299
-3.03383e-299
-4.12587e-303
-2.80174e-303
-3.50098e-307
-2.389e-307
-2.74215e-311
-1.88031e-311
-1.98196e-315
-1.36566e-315
-1.32153e-319
-9.1501e-320
-9.88131e-324
-4.94066e-324
0
0
0
0
0
0
0
0
0
0
0
0
0
0
0
0
0
0
0
0
0
0
0
0
0
0
0
0
0
0
0
0
0
0
0
0
0
0
0
0
0
0
0
0
0
0
0
0
0
0
0
0
0
0
0
0
0
0
0
0
0
0
0
0
0
0
0
0
0
0
0
0
0
0
0
0
0
0
0
0
0
0
0
0
0
0
0
0
0
0
0
0
0
0
0
0
0
0
0
0
0
0
0
0
0
0
0
0
0
0
0
0
0
0
0
0
0
0
0
0
0
0
0
0
0
0
0
0
0
0
0
0
0
0
0
0
0
0
0
0
0
0
0
0
0
0
0
0
0
0
0
0
0
0
0
0
0
0
0
0
0
0
0
0
0
0
0
0
0
0
0
0
0
0
0
0
0
0
0
0
0
0
0
0
0
0
0
0
0
0
0
-2.90736e-114
-1.63274e-114
-2.24635e-116
-1.26796e-116
-1.6222e-118
-9.20289e-119
-1.09479e-120
-6.24203e-121
-6.90399e-123
-3.95602e-123
-4.06785e-125
-2.34245e-125
-2.23908e-127
-1.29571e-127
-1.15122e-129
-6.69448e-130
-5.52813e-132
-3.23031e-132
-2.47897e-134
-1.45557e-134
-1.03796e-136
-6.12391e-137
-4.05737e-139
-2.40531e-139
-1.4805e-141
-8.81865e-142
-5.04204e-144
-3.0176e-144
-1.60243e-146
-9.63584e-147
-4.75188e-149
-2.87093e-149
-1.31461e-151
-7.97987e-152
-3.39243e-154
-2.06893e-154
-8.16466e-157
-5.00273e-157
-1.83237e-159
-1.12801e-159
-3.8341e-162
-2.37132e-162
-7.47862e-165
-4.647e-165
-1.35961e-167
-8.48766e-168
-2.3034e-170
-1.44466e-170
-3.63589e-173
-2.29101e-173
-5.34643e-176
-3.38455e-176
-7.32238e-179
-4.65702e-179
-9.33891e-182
-5.96724e-182
-1.10896e-184
-7.11893e-185
-1.22584e-187
-7.90594e-188
-1.26114e-190
-8.17158e-191
-1.20731e-193
-7.85941e-194
-1.07528e-196
-7.03267e-197
-8.90807e-200
-5.85343e-200
-6.863e-203
-4.53078e-203
-4.91615e-206
-3.26077e-206
-3.2736e-209
-2.18152e-209
-2.02593e-212
-1.35644e-212
-1.16501e-215
-7.837e-216
-6.22361e-219
-4.20643e-219
-3.08795e-222
-2.09698e-222
-1.4227e-225
-9.70722e-226
-6.08518e-229
-4.17174e-229
-2.41574e-232
-1.66403e-232
-8.899e-236
-6.15918e-236
-3.04119e-239
-2.11496e-239
-9.63947e-243
-6.73584e-243
-2.83311e-246
-1.98924e-246
-7.71907e-250
-5.44603e-250
-1.94918e-253
-1.38185e-253
-4.56048e-257
-3.2488e-257
-9.88398e-261
-7.07538e-261
-1.98381e-264
-1.42702e-264
-3.68641e-268
-2.6647e-268
-6.34051e-272
-4.60564e-272
-1.00912e-275
-7.36608e-276
-1.48575e-279
-1.08985e-279
-2.02306e-283
-1.4913e-283
-2.54689e-287
-1.88672e-287
-2.96366e-291
-2.20632e-291
-3.18668e-295
-2.38412e-295
-3.16531e-299
-2.37989e-299
-2.90358e-303
-2.19396e-303
-2.45903e-307
-1.8673e-307
-1.9221e-311
-1.46685e-311
-1.38625e-315
-1.0632e-315
-9.22223e-320
-7.10812e-320
-4.94066e-324
-4.94066e-324
0
0
0
0
0
0
0
0
0
0
0
0
0
0
0
0
0
0
0
0
0
0
0
0
0
0
0
0
0
0
0
0
0
0
0
0
0
0
0
0
0
0
0
0
0
0
0
0
0
0
0
0
0
0
0
0
0
0
0
0
0
0
0
0
0
0
0
0
0
0
0
0
0
0
0
0
0
0
0
0
0
0
0
0
0
0
0
0
0
0
0
0
0
0
0
0
0
0
0
0
0
0
0
0
0
0
0
0
0
0
0
0
0
0
0
0
0
0
0
0
0
0
0
0
0
0
0
0
0
0
0
0
0
0
0
0
0
0
0
0
0
0
0
0
0
0
0
0
0
0
0
0
0
0
0
0
0
0
0
0
0
0
0
0
0
0
0
0
0
0
0
0
0
0
0
0
0
0
0
0
0
0
0
0
0
0
0
0
0
0
0
-2.14264e-114
-1.32375e-114
-1.65404e-116
-1.0271e-116
-1.1934e-118
-7.44814e-119
-8.04682e-121
-5.04734e-121
-5.06996e-123
-3.19599e-123
-2.98454e-125
-1.89071e-125
-1.6413e-127
-1.04489e-127
-8.43109e-130
-5.39371e-130
-4.04491e-132
-2.60029e-132
-1.81221e-134
-1.17063e-134
-7.58092e-137
-4.92062e-137
-2.9607e-139
-1.93095e-139
-1.07936e-141
-7.07312e-142
-3.6726e-144
-2.41814e-144
-1.16616e-146
-7.71475e-147
-3.45507e-149
-2.29651e-149
-9.55001e-152
-6.37763e-152
-2.46226e-154
-1.65207e-154
-5.92083e-157
-3.99128e-157
-1.32764e-159
-8.99168e-160
-2.77559e-162
-1.88863e-162
-5.40931e-165
-3.69794e-165
-9.82577e-168
-6.74852e-168
-1.66324e-170
-1.14768e-170
-2.62322e-173
-1.81854e-173
-3.85415e-176
-2.68436e-176
-5.27424e-179
-3.69058e-179
-6.72126e-182
-4.72508e-182
-7.97482e-185
-5.63252e-185
-8.80825e-188
-6.25025e-188
-9.0547e-191
-6.45519e-191
-8.66145e-194
-6.20376e-194
-7.70822e-197
-5.54689e-197
-6.38084e-200
-4.61325e-200
-4.91217e-203
-3.56812e-203
-3.51602e-206
-2.56601e-206
-2.33949e-209
-1.71542e-209
-1.44674e-212
-1.06583e-212
-8.31314e-216
-6.15339e-216
-4.43763e-219
-3.30032e-219
-2.20014e-222
-1.64405e-222
-1.0129e-225
-7.60492e-226
-4.32909e-229
-3.26584e-229
-1.71729e-232
-1.30172e-232
-6.32123e-236
-4.81454e-236
-2.15859e-239
-1.65199e-239
-6.83661e-243
-5.25739e-243
-2.00774e-246
-1.55144e-246
-5.46593e-250
-4.24416e-250
-1.3791e-253
-1.07605e-253
-3.22402e-257
-2.52783e-257
-6.98154e-261
-5.50075e-261
-1.40005e-264
-1.10851e-264
-2.59932e-268
-2.06819e-268
-4.46666e-272
-3.5715e-272
-7.10219e-276
-5.70696e-276
-1.04464e-279
-8.43589e-280
-1.42098e-283
-1.15321e-283
-1.78702e-287
-1.45752e-287
-2.07715e-291
-1.70263e-291
-2.23088e-295
-1.83782e-295
-2.21322e-299
-1.83246e-299
-2.02763e-303
-1.68726e-303
-1.71488e-307
-1.43423e-307
-1.33853e-311
-1.12515e-311
-9.63915e-316
-8.14372e-316
-6.4021e-320
-5.4367e-320
-4.94066e-324
-4.94066e-324
0
0
0
0
0
0
0
0
0
0
0
0
0
0
0
0
0
0
0
0
0
0
0
0
0
0
0
0
0
0
0
0
0
0
0
0
0
0
0
0
0
0
0
0
0
0
0
0
0
0
0
0
0
0
0
0
0
0
0
0
0
0
0
0
0
0
0
0
0
0
0
0
0
0
0
0
0
0
0
0
0
0
0
0
0
0
0
0
0
0
0
0
0
0
0
0
0
0
0
0
0
0
0
0
0
0
0
0
0
0
0
0
0
0
0
0
0
0
0
0
0
0
0
0
0
0
0
0
0
0
0
0
0
0
0
0
0
0
0
0
0
0
0
0
0
0
0
0
0
0
0
0
0
0
0
0
0
0
0
0
0
0
0
0
0
0
0
0
0
0
0
0
0
0
0
0
0
0
0
0
0
0
0
0
0
0
0
0
0
0
0
-1.55238e-114
-1.04638e-114
-1.1974e-116
-8.11226e-117
-8.63226e-119
-5.87789e-119
-5.81576e-121
-3.97999e-121
-3.66128e-123
-2.51809e-123
-2.15354e-125
-1.48848e-125
-1.18336e-127
-8.21936e-128
-6.07386e-130
-4.23945e-130
-2.9117e-132
-2.04221e-132
-1.30348e-134
-9.18667e-135
-5.44858e-137
-3.85856e-137
-2.1263e-139
-1.51302e-139
-7.74581e-142
-5.53807e-142
-2.63361e-144
-1.89194e-144
-8.35639e-147
-6.03155e-147
-2.47402e-149
-1.79417e-149
-6.83347e-152
-4.97906e-152
-1.76063e-154
-1.28889e-154
-4.23076e-157
-3.11173e-157
-9.48033e-160
-7.0055e-160
-1.98068e-162
-1.47048e-162
-3.85761e-165
-2.87735e-165
-7.00272e-168
-5.24769e-168
-1.18464e-170
-8.91893e-171
-1.86724e-173
-1.41238e-173
-2.7418e-176
-2.08359e-176
-3.74986e-179
-2.86296e-179
-4.77593e-182
-3.6634e-182
-5.66351e-185
-4.36455e-185
-6.25198e-188
-4.8406e-188
-6.42348e-191
-4.99668e-191
-6.1413e-194
-4.79959e-194
-5.46263e-197
-4.28923e-197
-4.51969e-200
-3.56553e-200
-3.47769e-203
-2.75643e-203
-2.48806e-206
-1.98135e-206
-1.65473e-209
-1.32395e-209
-1.02281e-212
-8.2223e-213
-5.87453e-216
-4.74489e-216
-3.13447e-219
-2.54377e-219
-1.55336e-222
-1.26663e-222
-7.14821e-226
-5.8566e-226
-3.0538e-229
-2.51399e-229
-1.21088e-232
-1.00163e-232
-4.45527e-236
-3.70309e-236
-1.52075e-239
-1.27011e-239
-4.8144e-243
-4.04039e-243
-1.41326e-246
-1.19181e-246
-3.84583e-250
-3.25901e-250
-9.69913e-254
-8.25934e-254
-2.26641e-257
-1.93943e-257
-4.90562e-261
-4.21853e-261
-9.83294e-265
-8.49744e-265
-1.8247e-268
-1.58467e-268
-3.13398e-272
-2.73525e-272
-4.98058e-276
-4.36858e-276
-7.32186e-280
-6.45427e-280
-9.95397e-284
-8.81851e-284
-1.25107e-287
-1.11393e-287
-1.45327e-291
-1.30051e-291
-1.55979e-295
-1.40291e-295
-1.54636e-299
-1.3979e-299
-1.41563e-303
-1.28625e-303
-1.19632e-307
-1.09255e-307
-9.32984e-312
-8.56426e-312
-6.71257e-316
-6.1935e-316
-4.454e-320
-4.13088e-320
-4.94066e-324
-4.94066e-324
0
0
0
0
0
0
0
0
0
0
0
0
0
0
0
0
0
0
0
0
0
0
0
0
0
0
0
0
0
0
0
0
0
0
0
0
0
0
0
0
0
0
0
0
0
0
0
0
0
0
0
0
0
0
0
0
0
0
0
0
0
0
0
0
0
0
0
0
0
0
0
0
0
0
0
0
0
0
0
0
0
0
0
0
0
0
0
0
0
0
0
0
0
0
0
0
0
0
0
0
0
0
0
0
0
0
0
0
0
0
0
0
0
0
0
0
0
0
0
0
0
0
0
0
0
0
0
0
0
0
0
0
0
0
0
0
0
0
0
0
0
0
0
0
0
0
0
0
0
0
0
0
0
0
0
0
0
0
0
0
0
0
0
0
0
0
0
0
0
0
0
0
0
0
0
0
0
0
0
0
0
0
0
0
0
0
0
0
0
0
0
-1.11078e-114
-8.11202e-115
-8.56198e-117
-6.28474e-117
-6.16836e-119
-4.55069e-119
-4.15303e-121
-3.0793e-121
-2.61283e-123
-1.94698e-123
-1.53587e-125
-1.15015e-125
-8.4342e-128
-6.34716e-128
-4.3264e-130
-3.27179e-130
-2.07275e-132
-1.57513e-132
-9.27364e-135
-7.08139e-135
-3.87418e-137
-2.9726e-137
-1.51104e-139
-1.16497e-139
-5.50153e-142
-4.26179e-142
-1.86956e-144
-1.45516e-144
-5.92901e-147
-4.63673e-147
-1.75449e-149
-1.37858e-149
-4.84372e-152
-3.82389e-152
-1.24739e-154
-9.89401e-155
-2.99611e-157
-2.38761e-157
-6.71079e-160
-5.37297e-160
-1.40147e-162
-1.12734e-162
-2.72843e-165
-2.20503e-165
-4.95101e-168
-4.01997e-168
-8.37245e-171
-6.8298e-171
-1.31921e-173
-1.08117e-173
-1.93643e-176
-1.59445e-176
-2.64753e-179
-2.19015e-179
-3.37093e-182
-2.80163e-182
-3.99623e-185
-3.33688e-185
-4.41023e-188
-3.69983e-188
-4.53001e-191
-3.81813e-191
-4.32992e-194
-3.66662e-194
-3.85051e-197
-3.27597e-197
-3.18513e-200
-2.72263e-200
-2.45029e-203
-2.10437e-203
-1.75267e-206
-1.51234e-206
-1.16542e-209
-1.01038e-209
-7.20233e-213
-6.27376e-213
-4.13596e-216
-3.61984e-216
-2.20646e-219
-1.94032e-219
-1.09329e-222
-9.66011e-223
-5.03035e-226
-4.46599e-226
-2.14872e-229
-1.91681e-229
-8.51885e-233
-7.63596e-233
-3.13398e-236
-2.82274e-236
-1.0696e-239
-9.6804e-240
-3.38573e-243
-3.07912e-243
-9.93751e-247
-9.08158e-247
-2.70389e-250
-2.48307e-250
-6.81827e-254
-6.29213e-254
-1.59302e-257
-1.47732e-257
-3.44759e-261
-3.21298e-261
-6.90941e-265
-6.4711e-265
-1.28198e-268
-1.20662e-268
-2.20147e-272
-2.0824e-272
-3.49799e-276
-3.32535e-276
-5.14133e-280
-4.91214e-280
-6.98808e-284
-6.71023e-284
-8.78093e-288
-8.47448e-288
-1.01975e-291
-9.89166e-292
-1.09419e-295
-1.06678e-295
-1.08444e-299
-1.06269e-299
-9.9242e-304
-9.77511e-304
-8.38361e-308
-8.30026e-308
-6.53545e-312
-6.50398e-312
-4.69993e-316
-4.70161e-316
-3.11706e-320
-3.13435e-320
0