/*--------------------------------*- C++ -*----------------------------------*\
| =========                 |                                                 |
| \\      /  F ield         | OpenFOAM: The Open Source CFD Toolbox           |
|  \\    /   O peration     | Version:  v1912                                 |
|   \\  /    A nd           | Website:  www.openfoam.com                      |
|    \\/     M anipulation  |                                                 |
\*---------------------------------------------------------------------------*/
FoamFile
{
    version     2.0;
    format      ascii;
    class       volScalarField;
    location    "60";
    object      omega;
}
// * * * * * * * * * * * * * * * * * * * * * * * * * * * * * * * * * * * * * //

dimensions      [0 0 -1 0 0 0 0];


internalField   nonuniform List<scalar> 
14268
(
44.5916
44.5916
44.5916
44.5916
44.5916
44.5916
44.5916
44.5916
44.5916
44.5916
44.5916
44.5916
44.5916
44.5916
44.5916
44.5916
44.5916
44.5916
44.5916
44.5916
44.5916
44.5916
44.5916
44.5916
44.5916
44.5916
44.5916
44.5916
44.5916
44.5916
44.5916
44.5916
44.5916
44.5916
44.5916
44.5916
44.5916
44.5916
44.5916
44.5916
44.5916
44.5916
44.5916
44.5916
44.5916
44.5916
44.5916
44.5916
44.5916
44.5916
44.5916
44.5916
44.5916
44.5916
44.5916
44.5916
44.5916
44.5916
44.5916
44.5916
44.5916
44.5916
44.5916
44.5916
44.5916
44.5916
44.5916
44.5916
44.5916
44.5916
44.5916
44.5916
44.5916
44.5916
44.5916
44.5916
44.5916
44.5916
44.5916
44.5916
44.5916
44.5916
44.5916
44.5916
44.5916
44.5916
44.5916
44.5916
44.5916
44.5916
44.5916
44.5916
44.5916
44.5916
44.5916
44.5916
44.5916
44.5916
44.5916
44.5916
44.5916
44.5916
44.5916
44.5916
44.5916
44.5916
44.5916
44.5916
44.5916
44.5916
44.5916
44.5916
44.5916
44.5916
44.5916
44.5916
44.5916
44.5916
44.5916
44.5916
44.5916
44.5916
44.5916
44.5916
44.5916
44.5916
44.5916
44.5916
44.5916
44.5916
44.5916
44.5916
44.5916
44.5916
44.5916
44.5916
44.5916
44.5916
44.5916
44.5916
44.5916
44.5916
44.5916
44.5916
44.5916
44.5916
44.5916
44.5916
44.5916
44.5916
44.5916
44.5916
44.5916
44.5916
44.5916
44.5916
44.5916
44.5916
44.5916
44.5916
44.5916
44.5916
44.5916
44.5916
7.99371
7.98819
7.98291
7.97785
7.97302
7.9684
7.96398
7.95976
7.95573
7.95188
7.94821
7.9447
7.94136
7.93818
7.93514
7.93225
7.9295
7.92688
7.92438
7.92201
7.91975
7.9176
7.91556
7.91362
7.91178
7.91003
7.90837
7.90679
7.9053
7.90388
7.90253
7.90126
7.90005
7.8989
7.89782
7.89679
7.89582
7.8949
7.89403
7.8932
7.89242
7.89169
7.89099
7.89033
7.88971
7.88912
7.88857
7.88805
7.88756
7.88709
7.88665
7.88624
7.88585
7.88548
7.88514
7.88481
7.88451
7.88422
7.88395
7.88369
7.88345
7.88323
7.88302
7.88282
7.88263
7.88246
7.88229
7.88214
7.88199
7.88186
7.88173
7.88161
7.8815
7.8814
7.8813
7.88121
7.88113
7.88105
7.88097
7.8809
7.88084
7.88078
7.88072
7.88067
7.88062
7.88057
7.88053
7.88049
7.88046
7.88042
7.88039
7.88036
7.88033
7.88031
7.88028
7.88026
7.88024
7.88022
7.88021
7.88019
7.88017
7.88016
7.88015
7.88014
7.88012
7.88011
7.88011
7.8801
7.88009
7.88008
7.88007
7.88007
7.88006
7.88006
7.88005
7.88005
7.88005
7.88004
7.88004
7.88004
7.88003
7.88003
7.88003
7.88003
7.88003
7.88002
7.88002
7.88002
7.88002
7.88002
7.88002
7.88002
7.88002
7.88002
7.88002
7.88002
7.88002
7.88002
7.88002
7.88001
7.88001
7.88
7.88001
7.88
7.88
7.88
7.88
7.88
7.88
7.88
7.88
7.88
7.88
7.88
7.88
7.88
7.88
7.88
7.88
7.88
7.88
7.88
7.87995
7.87538
2.78536
2.78201
2.77881
2.77575
2.77282
2.77003
2.76736
2.76482
2.76239
2.76008
2.75787
2.75576
2.75376
2.75185
2.75003
2.7483
2.74665
2.74508
2.74359
2.74217
2.74082
2.73954
2.73832
2.73717
2.73607
2.73503
2.73404
2.7331
2.73221
2.73136
2.73056
2.72981
2.72909
2.72841
2.72776
2.72715
2.72657
2.72603
2.72551
2.72502
2.72456
2.72412
2.72371
2.72332
2.72295
2.7226
2.72227
2.72196
2.72167
2.7214
2.72114
2.72089
2.72066
2.72044
2.72024
2.72005
2.71986
2.71969
2.71953
2.71938
2.71924
2.71911
2.71898
2.71887
2.71876
2.71865
2.71855
2.71846
2.71838
2.7183
2.71822
2.71815
2.71809
2.71803
2.71797
2.71791
2.71786
2.71782
2.71777
2.71773
2.71769
2.71766
2.71763
2.71759
2.71757
2.71754
2.71751
2.71749
2.71747
2.71745
2.71743
2.71741
2.7174
2.71738
2.71737
2.71735
2.71734
2.71733
2.71732
2.71731
2.7173
2.71729
2.71729
2.71728
2.71727
2.71727
2.71726
2.71726
2.71725
2.71725
2.71724
2.71724
2.71724
2.71723
2.71723
2.71723
2.71723
2.71722
2.71722
2.71722
2.71722
2.71722
2.71722
2.71721
2.71721
2.71721
2.71721
2.71721
2.71721
2.71721
2.71721
2.71721
2.71721
2.71721
2.71721
2.71721
2.71721
2.71721
2.71721
2.7172
2.71721
2.7172
2.7172
2.7172
2.7172
2.7172
2.7172
2.71719
2.7172
2.71719
2.7172
2.71719
2.7172
2.7172
2.7172
2.7172
2.7172
2.7172
2.7172
2.7172
2.71719
2.71719
2.71713
2.71438
1.35547
1.35298
1.35061
1.34834
1.34618
1.34412
1.34215
1.34027
1.33848
1.33678
1.33515
1.33361
1.33213
1.33073
1.3294
1.32813
1.32692
1.32577
1.32468
1.32364
1.32266
1.32172
1.32083
1.31999
1.31919
1.31843
1.3177
1.31702
1.31637
1.31576
1.31517
1.31462
1.3141
1.3136
1.31313
1.31269
1.31227
1.31187
1.31149
1.31114
1.3108
1.31049
1.31019
1.3099
1.30963
1.30938
1.30914
1.30892
1.30871
1.30851
1.30832
1.30814
1.30797
1.30782
1.30767
1.30753
1.3074
1.30727
1.30716
1.30705
1.30694
1.30685
1.30676
1.30667
1.30659
1.30652
1.30645
1.30638
1.30632
1.30626
1.30621
1.30615
1.30611
1.30606
1.30602
1.30598
1.30595
1.30591
1.30588
1.30585
1.30582
1.3058
1.30577
1.30575
1.30573
1.30571
1.30569
1.30567
1.30566
1.30564
1.30563
1.30562
1.30561
1.30559
1.30558
1.30558
1.30557
1.30556
1.30555
1.30554
1.30554
1.30553
1.30553
1.30552
1.30552
1.30551
1.30551
1.3055
1.3055
1.3055
1.3055
1.30549
1.30549
1.30549
1.30549
1.30548
1.30548
1.30548
1.30548
1.30548
1.30548
1.30548
1.30548
1.30548
1.30547
1.30547
1.30547
1.30547
1.30547
1.30547
1.30547
1.30547
1.30547
1.30547
1.30547
1.30547
1.30547
1.30547
1.30547
1.30547
1.30547
1.30546
1.30547
1.30546
1.30546
1.30546
1.30546
1.30546
1.30546
1.30546
1.30546
1.30546
1.30546
1.30546
1.30546
1.30546
1.30546
1.30546
1.30546
1.30546
1.30546
1.30546
1.30539
1.30358
0.796692
0.794781
0.792959
0.791222
0.789566
0.787988
0.786485
0.785053
0.78369
0.782392
0.781156
0.77998
0.778861
0.777797
0.776785
0.775823
0.774909
0.77404
0.773214
0.77243
0.771685
0.770978
0.770307
0.76967
0.769066
0.768492
0.767949
0.767433
0.766945
0.766482
0.766043
0.765628
0.765234
0.764862
0.764509
0.764176
0.76386
0.763562
0.763279
0.763013
0.76276
0.762522
0.762297
0.762085
0.761884
0.761695
0.761516
0.761347
0.761188
0.761038
0.760897
0.760764
0.760639
0.760521
0.760409
0.760305
0.760206
0.760113
0.760026
0.759944
0.759867
0.759795
0.759727
0.759663
0.759604
0.759547
0.759495
0.759445
0.759399
0.759355
0.759315
0.759277
0.759241
0.759208
0.759177
0.759147
0.75912
0.759095
0.759071
0.759049
0.759028
0.759008
0.75899
0.758973
0.758958
0.758943
0.75893
0.758917
0.758905
0.758894
0.758884
0.758874
0.758866
0.758857
0.75885
0.758843
0.758836
0.75883
0.758825
0.758819
0.758815
0.75881
0.758806
0.758802
0.758799
0.758796
0.758793
0.75879
0.758787
0.758785
0.758783
0.758781
0.758779
0.758778
0.758776
0.758775
0.758774
0.758772
0.758772
0.758771
0.75877
0.758769
0.758769
0.758768
0.758768
0.758767
0.758767
0.758767
0.758767
0.758766
0.758767
0.758766
0.758768
0.758766
0.758768
0.758766
0.758767
0.758765
0.758766
0.758763
0.758764
0.75876
0.758761
0.758757
0.758758
0.758756
0.758756
0.758755
0.758756
0.758755
0.758756
0.758755
0.758756
0.758756
0.758756
0.758756
0.758757
0.758757
0.758757
0.758757
0.758755
0.758755
0.758693
0.757419
0.530555
0.529102
0.527719
0.526402
0.525149
0.523956
0.52282
0.52174
0.520713
0.519736
0.518807
0.517924
0.517084
0.516286
0.515528
0.514808
0.514124
0.513474
0.512858
0.512272
0.511717
0.51119
0.510689
0.510215
0.509765
0.509339
0.508935
0.508551
0.508188
0.507845
0.507519
0.507211
0.506919
0.506643
0.506381
0.506134
0.5059
0.505679
0.50547
0.505273
0.505086
0.50491
0.504743
0.504586
0.504437
0.504297
0.504165
0.50404
0.503923
0.503812
0.503707
0.503609
0.503516
0.503429
0.503347
0.503269
0.503196
0.503128
0.503064
0.503003
0.502946
0.502893
0.502842
0.502795
0.502751
0.50271
0.502671
0.502634
0.5026
0.502568
0.502538
0.50251
0.502483
0.502459
0.502436
0.502414
0.502394
0.502375
0.502357
0.502341
0.502326
0.502311
0.502298
0.502286
0.502274
0.502263
0.502253
0.502244
0.502235
0.502227
0.502219
0.502212
0.502206
0.5022
0.502194
0.502189
0.502184
0.50218
0.502176
0.502172
0.502168
0.502165
0.502162
0.502159
0.502157
0.502154
0.502152
0.50215
0.502148
0.502146
0.502145
0.502143
0.502142
0.502141
0.50214
0.502139
0.502138
0.502137
0.502136
0.502136
0.502135
0.502135
0.502134
0.502134
0.502134
0.502133
0.502133
0.502133
0.502133
0.502133
0.502133
0.502133
0.502134
0.502133
0.502134
0.502132
0.502134
0.502132
0.502133
0.50213
0.502131
0.502128
0.502129
0.502126
0.502126
0.502124
0.502125
0.502124
0.502124
0.502124
0.502124
0.502124
0.502124
0.502124
0.502125
0.502125
0.502125
0.502125
0.502125
0.502125
0.502124
0.502123
0.50207
0.501156
0.389255
0.388182
0.387163
0.386193
0.385272
0.384396
0.383564
0.382773
0.382022
0.381309
0.380631
0.379988
0.379377
0.378796
0.378246
0.377723
0.377227
0.376756
0.37631
0.375886
0.375485
0.375104
0.374743
0.3744
0.374076
0.373769
0.373477
0.373201
0.37294
0.372693
0.372459
0.372237
0.372028
0.371829
0.371642
0.371464
0.371296
0.371138
0.370988
0.370846
0.370712
0.370586
0.370466
0.370354
0.370247
0.370147
0.370052
0.369963
0.369878
0.369799
0.369724
0.369654
0.369587
0.369525
0.369466
0.36941
0.369358
0.369309
0.369263
0.36922
0.369179
0.369141
0.369105
0.369071
0.36904
0.36901
0.368982
0.368956
0.368931
0.368908
0.368887
0.368867
0.368848
0.36883
0.368814
0.368798
0.368784
0.368771
0.368758
0.368746
0.368735
0.368725
0.368715
0.368707
0.368698
0.36869
0.368683
0.368677
0.36867
0.368665
0.368659
0.368654
0.368649
0.368645
0.368641
0.368637
0.368634
0.368631
0.368628
0.368625
0.368623
0.36862
0.368618
0.368616
0.368614
0.368612
0.368611
0.368609
0.368608
0.368607
0.368606
0.368605
0.368604
0.368603
0.368602
0.368601
0.368601
0.3686
0.3686
0.368599
0.368599
0.368599
0.368598
0.368598
0.368598
0.368598
0.368598
0.368597
0.368598
0.368597
0.368598
0.368597
0.368598
0.368597
0.368598
0.368597
0.368598
0.368596
0.368597
0.368595
0.368596
0.368594
0.368594
0.368592
0.368592
0.368591
0.368591
0.36859
0.368591
0.36859
0.368591
0.368591
0.368591
0.368591
0.368591
0.368591
0.368592
0.368591
0.368592
0.368591
0.368591
0.36859
0.368547
0.367896
0.310231
0.309468
0.308745
0.308058
0.307406
0.306788
0.306202
0.305645
0.305117
0.304616
0.304141
0.30369
0.303263
0.302858
0.302473
0.302109
0.301763
0.301436
0.301125
0.300831
0.300552
0.300288
0.300038
0.299801
0.299576
0.299364
0.299162
0.298972
0.298791
0.298621
0.298459
0.298306
0.298162
0.298025
0.297896
0.297774
0.297658
0.297549
0.297446
0.297348
0.297256
0.297169
0.297087
0.297009
0.296936
0.296867
0.296802
0.29674
0.296683
0.296628
0.296577
0.296528
0.296482
0.29644
0.296399
0.296361
0.296325
0.296292
0.29626
0.29623
0.296202
0.296176
0.296151
0.296128
0.296106
0.296086
0.296067
0.296049
0.296032
0.296016
0.296002
0.295988
0.295975
0.295963
0.295951
0.295941
0.295931
0.295922
0.295913
0.295905
0.295897
0.29589
0.295884
0.295878
0.295872
0.295867
0.295862
0.295857
0.295853
0.295849
0.295845
0.295842
0.295839
0.295836
0.295833
0.29583
0.295828
0.295826
0.295824
0.295822
0.29582
0.295818
0.295817
0.295816
0.295814
0.295813
0.295812
0.295811
0.29581
0.295809
0.295809
0.295808
0.295807
0.295807
0.295806
0.295806
0.295805
0.295805
0.295804
0.295804
0.295804
0.295804
0.295803
0.295803
0.295803
0.295803
0.295803
0.295803
0.295803
0.295803
0.295803
0.295803
0.295803
0.295803
0.295803
0.295803
0.295803
0.295802
0.295803
0.295801
0.295802
0.2958
0.295801
0.295799
0.295799
0.295798
0.295798
0.295798
0.295798
0.295798
0.295798
0.295798
0.295798
0.295798
0.295798
0.295798
0.295799
0.295799
0.295799
0.295799
0.295798
0.295798
0.295766
0.295306
0.265334
0.264814
0.264322
0.263856
0.263414
0.262996
0.2626
0.262225
0.261869
0.261533
0.261214
0.260912
0.260626
0.260355
0.260098
0.259855
0.259625
0.259407
0.2592
0.259005
0.25882
0.258645
0.258479
0.258322
0.258173
0.258033
0.2579
0.257774
0.257655
0.257543
0.257436
0.257335
0.25724
0.25715
0.257065
0.256985
0.256909
0.256837
0.256769
0.256705
0.256645
0.256588
0.256534
0.256483
0.256435
0.256389
0.256347
0.256306
0.256268
0.256232
0.256199
0.256167
0.256137
0.256109
0.256082
0.256057
0.256034
0.256012
0.255991
0.255971
0.255953
0.255936
0.25592
0.255905
0.25589
0.255877
0.255864
0.255853
0.255842
0.255831
0.255822
0.255813
0.255804
0.255796
0.255789
0.255782
0.255775
0.255769
0.255764
0.255758
0.255753
0.255749
0.255744
0.25574
0.255737
0.255733
0.25573
0.255727
0.255724
0.255722
0.255719
0.255717
0.255715
0.255713
0.255711
0.255709
0.255708
0.255706
0.255705
0.255704
0.255703
0.255702
0.255701
0.2557
0.255699
0.255698
0.255697
0.255697
0.255696
0.255696
0.255695
0.255695
0.255694
0.255694
0.255693
0.255693
0.255693
0.255693
0.255692
0.255692
0.255692
0.255692
0.255692
0.255692
0.255692
0.255691
0.255691
0.255691
0.255691
0.255691
0.255692
0.255691
0.255692
0.255691
0.255692
0.255691
0.255692
0.255691
0.255691
0.25569
0.255691
0.25569
0.25569
0.255689
0.255689
0.255688
0.255688
0.255688
0.255688
0.255688
0.255688
0.255688
0.255688
0.255688
0.255688
0.255688
0.255688
0.255688
0.255689
0.255688
0.255688
0.255688
0.255666
0.255337
0.239995
0.239655
0.239334
0.239031
0.238745
0.238474
0.238218
0.237976
0.237747
0.23753
0.237325
0.237132
0.236949
0.236776
0.236612
0.236457
0.23631
0.236172
0.236041
0.235917
0.235799
0.235689
0.235584
0.235484
0.235391
0.235302
0.235218
0.235139
0.235064
0.234993
0.234926
0.234863
0.234803
0.234747
0.234694
0.234643
0.234595
0.23455
0.234508
0.234468
0.23443
0.234394
0.23436
0.234329
0.234298
0.23427
0.234243
0.234218
0.234194
0.234172
0.234151
0.234131
0.234112
0.234095
0.234078
0.234062
0.234048
0.234034
0.234021
0.234009
0.233997
0.233987
0.233977
0.233967
0.233958
0.23395
0.233942
0.233935
0.233928
0.233921
0.233915
0.23391
0.233904
0.233899
0.233895
0.23389
0.233886
0.233883
0.233879
0.233876
0.233873
0.23387
0.233867
0.233865
0.233862
0.23386
0.233858
0.233856
0.233854
0.233853
0.233851
0.23385
0.233848
0.233847
0.233846
0.233845
0.233844
0.233843
0.233842
0.233842
0.233841
0.23384
0.23384
0.233839
0.233839
0.233838
0.233838
0.233837
0.233837
0.233837
0.233836
0.233836
0.233836
0.233835
0.233835
0.233835
0.233835
0.233835
0.233835
0.233834
0.233834
0.233834
0.233834
0.233834
0.233834
0.233834
0.233834
0.233834
0.233834
0.233834
0.233834
0.233834
0.233834
0.233834
0.233834
0.233834
0.233834
0.233834
0.233834
0.233833
0.233833
0.233833
0.233833
0.233832
0.233832
0.233832
0.233832
0.233832
0.233832
0.233832
0.233832
0.233832
0.233832
0.233832
0.233832
0.233832
0.233832
0.233832
0.233832
0.233832
0.233832
0.233832
0.233818
0.233572
0.225975
0.225762
0.225561
0.225371
0.225193
0.225024
0.224865
0.224716
0.224574
0.224441
0.224315
0.224196
0.224084
0.223978
0.223878
0.223783
0.223694
0.22361
0.22353
0.223455
0.223384
0.223317
0.223254
0.223194
0.223137
0.223084
0.223033
0.222986
0.222941
0.222898
0.222858
0.22282
0.222784
0.222751
0.222719
0.222689
0.22266
0.222633
0.222608
0.222584
0.222561
0.22254
0.22252
0.222501
0.222483
0.222466
0.22245
0.222435
0.222421
0.222408
0.222395
0.222383
0.222372
0.222362
0.222352
0.222342
0.222334
0.222325
0.222318
0.22231
0.222304
0.222297
0.222291
0.222286
0.22228
0.222275
0.222271
0.222266
0.222262
0.222258
0.222255
0.222251
0.222248
0.222245
0.222243
0.22224
0.222238
0.222235
0.222233
0.222231
0.222229
0.222228
0.222226
0.222225
0.222223
0.222222
0.222221
0.22222
0.222219
0.222218
0.222217
0.222216
0.222215
0.222214
0.222214
0.222213
0.222212
0.222212
0.222211
0.222211
0.222211
0.22221
0.22221
0.222209
0.222209
0.222209
0.222209
0.222208
0.222208
0.222208
0.222208
0.222208
0.222207
0.222207
0.222207
0.222207
0.222207
0.222207
0.222207
0.222207
0.222207
0.222207
0.222206
0.222206
0.222206
0.222206
0.222206
0.222206
0.222206
0.222206
0.222206
0.222206
0.222206
0.222206
0.222207
0.222206
0.222207
0.222206
0.222206
0.222206
0.222206
0.222206
0.222206
0.222205
0.222205
0.222205
0.222205
0.222205
0.222205
0.222205
0.222205
0.222205
0.222205
0.222205
0.222205
0.222205
0.222205
0.222205
0.222205
0.222205
0.222205
0.222205
0.222197
0.222001
0.218429
0.218299
0.218177
0.218063
0.217956
0.217855
0.21776
0.21767
0.217586
0.217507
0.217433
0.217363
0.217297
0.217234
0.217176
0.21712
0.217068
0.217019
0.216973
0.216929
0.216888
0.216849
0.216812
0.216778
0.216745
0.216715
0.216685
0.216658
0.216632
0.216608
0.216585
0.216563
0.216543
0.216523
0.216505
0.216488
0.216472
0.216457
0.216442
0.216429
0.216416
0.216404
0.216392
0.216381
0.216371
0.216361
0.216352
0.216344
0.216336
0.216328
0.216321
0.216314
0.216308
0.216302
0.216296
0.216291
0.216286
0.216282
0.216277
0.216273
0.216269
0.216265
0.216262
0.216259
0.216256
0.216253
0.21625
0.216248
0.216246
0.216243
0.216241
0.216239
0.216238
0.216236
0.216234
0.216233
0.216232
0.21623
0.216229
0.216228
0.216227
0.216226
0.216225
0.216224
0.216223
0.216223
0.216222
0.216221
0.216221
0.21622
0.21622
0.216219
0.216219
0.216218
0.216218
0.216218
0.216217
0.216217
0.216217
0.216216
0.216216
0.216216
0.216216
0.216216
0.216215
0.216215
0.216215
0.216215
0.216215
0.216215
0.216215
0.216215
0.216214
0.216214
0.216214
0.216214
0.216214
0.216214
0.216214
0.216214
0.216214
0.216214
0.216214
0.216214
0.216214
0.216214
0.216214
0.216214
0.216214
0.216214
0.216214
0.216214
0.216214
0.216214
0.216214
0.216214
0.216214
0.216214
0.216214
0.216214
0.216214
0.216213
0.216214
0.216213
0.216213
0.216213
0.216213
0.216213
0.216213
0.216213
0.216213
0.216213
0.216213
0.216213
0.216213
0.216213
0.216213
0.216213
0.216213
0.216213
0.216213
0.216213
0.216208
0.216043
0.2145
0.214423
0.214351
0.214284
0.214221
0.214162
0.214107
0.214055
0.214006
0.213961
0.213918
0.213878
0.21384
0.213805
0.213771
0.21374
0.213711
0.213683
0.213657
0.213633
0.213609
0.213588
0.213567
0.213548
0.21353
0.213513
0.213497
0.213482
0.213468
0.213454
0.213442
0.21343
0.213419
0.213408
0.213398
0.213389
0.21338
0.213372
0.213364
0.213357
0.21335
0.213343
0.213337
0.213331
0.213325
0.21332
0.213315
0.21331
0.213306
0.213302
0.213298
0.213294
0.213291
0.213288
0.213285
0.213282
0.213279
0.213277
0.213274
0.213272
0.21327
0.213268
0.213266
0.213264
0.213263
0.213261
0.21326
0.213258
0.213257
0.213256
0.213255
0.213254
0.213253
0.213252
0.213251
0.21325
0.213249
0.213249
0.213248
0.213247
0.213247
0.213246
0.213246
0.213245
0.213245
0.213244
0.213244
0.213244
0.213243
0.213243
0.213243
0.213243
0.213242
0.213242
0.213242
0.213242
0.213242
0.213241
0.213241
0.213241
0.213241
0.213241
0.213241
0.213241
0.213241
0.21324
0.21324
0.21324
0.21324
0.21324
0.21324
0.21324
0.21324
0.21324
0.21324
0.21324
0.21324
0.21324
0.21324
0.21324
0.21324
0.21324
0.21324
0.21324
0.21324
0.21324
0.21324
0.21324
0.21324
0.21324
0.21324
0.21324
0.21324
0.21324
0.21324
0.21324
0.21324
0.21324
0.21324
0.21324
0.21324
0.213239
0.21324
0.213239
0.213239
0.213239
0.213239
0.213239
0.213239
0.213239
0.213239
0.213239
0.213239
0.213239
0.213239
0.213239
0.213239
0.213239
0.213239
0.213239
0.213239
0.213239
0.213236
0.213081
0.212545
0.212499
0.212456
0.212416
0.212379
0.212345
0.212313
0.212283
0.212255
0.212229
0.212204
0.212182
0.21216
0.21214
0.212122
0.212104
0.212088
0.212072
0.212058
0.212045
0.212032
0.21202
0.212009
0.211999
0.211989
0.211979
0.211971
0.211963
0.211955
0.211948
0.211941
0.211935
0.211929
0.211923
0.211918
0.211913
0.211908
0.211904
0.2119
0.211896
0.211892
0.211889
0.211886
0.211883
0.21188
0.211877
0.211874
0.211872
0.211869
0.211867
0.211865
0.211863
0.211861
0.21186
0.211858
0.211857
0.211855
0.211854
0.211852
0.211851
0.21185
0.211849
0.211848
0.211847
0.211846
0.211845
0.211845
0.211844
0.211843
0.211843
0.211842
0.211842
0.211841
0.211841
0.21184
0.21184
0.211839
0.211839
0.211839
0.211838
0.211838
0.211838
0.211837
0.211837
0.211837
0.211837
0.211836
0.211836
0.211836
0.211836
0.211836
0.211836
0.211836
0.211835
0.211835
0.211835
0.211835
0.211835
0.211835
0.211835
0.211835
0.211835
0.211835
0.211835
0.211835
0.211835
0.211834
0.211834
0.211834
0.211834
0.211834
0.211834
0.211834
0.211834
0.211834
0.211834
0.211834
0.211834
0.211834
0.211834
0.211834
0.211834
0.211834
0.211834
0.211834
0.211834
0.211834
0.211834
0.211834
0.211834
0.211834
0.211834
0.211834
0.211834
0.211834
0.211834
0.211834
0.211834
0.211834
0.211834
0.211834
0.211834
0.211834
0.211834
0.211834
0.211834
0.211834
0.211834
0.211834
0.211834
0.211834
0.211834
0.211834
0.211834
0.211834
0.211834
0.211834
0.211834
0.211834
0.211834
0.211834
0.211834
0.211831
0.211639
0.21123
0.211207
0.211187
0.211168
0.211151
0.211135
0.21112
0.211107
0.211094
0.211083
0.211072
0.211062
0.211053
0.211045
0.211037
0.21103
0.211023
0.211017
0.211011
0.211005
0.211
0.210996
0.210991
0.210987
0.210984
0.21098
0.210977
0.210974
0.210971
0.210969
0.210966
0.210964
0.210962
0.21096
0.210958
0.210956
0.210954
0.210953
0.210952
0.21095
0.210949
0.210948
0.210947
0.210945
0.210944
0.210943
0.210943
0.210942
0.210941
0.21094
0.210939
0.210939
0.210938
0.210937
0.210937
0.210936
0.210936
0.210935
0.210935
0.210934
0.210934
0.210934
0.210933
0.210933
0.210932
0.210932
0.210932
0.210932
0.210931
0.210931
0.210931
0.210931
0.210931
0.21093
0.21093
0.21093
0.21093
0.21093
0.21093
0.21093
0.210929
0.210929
0.210929
0.210929
0.210929
0.210929
0.210929
0.210929
0.210929
0.210929
0.210929
0.210929
0.210929
0.210929
0.210929
0.210928
0.210928
0.210928
0.210928
0.210928
0.210928
0.210928
0.210928
0.210928
0.210928
0.210928
0.210928
0.210928
0.210928
0.210928
0.210928
0.210928
0.210928
0.210928
0.210928
0.210928
0.210928
0.210928
0.210928
0.210928
0.210928
0.210928
0.210928
0.210928
0.210928
0.210928
0.210928
0.210928
0.210928
0.210928
0.210928
0.210928
0.210928
0.210928
0.210928
0.210928
0.210928
0.210928
0.210928
0.210928
0.210928
0.210928
0.210928
0.210928
0.210928
0.210928
0.210928
0.210928
0.210928
0.210928
0.210928
0.210928
0.210928
0.210928
0.210928
0.210928
0.210928
0.210928
0.210928
0.210928
0.210928
0.210928
0.210926
0.212378
0.210808
0.210797
0.210785
0.210775
0.210766
0.210758
0.210751
0.210744
0.210738
0.210732
0.210727
0.210723
0.210719
0.210715
0.210711
0.210708
0.210706
0.210703
0.210701
0.210699
0.210697
0.210695
0.210693
0.210692
0.210691
0.210689
0.210688
0.210687
0.210686
0.210685
0.210685
0.210684
0.210683
0.210683
0.210682
0.210682
0.210681
0.210681
0.21068
0.21068
0.21068
0.210679
0.210679
0.210679
0.210679
0.210678
0.210678
0.210678
0.210678
0.210677
0.210677
0.210677
0.210677
0.210677
0.210676
0.210676
0.210676
0.210676
0.210676
0.210676
0.210676
0.210675
0.210675
0.210675
0.210675
0.210675
0.210675
0.210675
0.210675
0.210675
0.210675
0.210675
0.210674
0.210674
0.210674
0.210674
0.210674
0.210674
0.210674
0.210674
0.210674
0.210674
0.210674
0.210674
0.210674
0.210674
0.210674
0.210674
0.210674
0.210674
0.210674
0.210674
0.210674
0.210674
0.210674
0.210674
0.210674
0.210674
0.210674
0.210674
0.210674
0.210674
0.210674
0.210674
0.210674
0.210674
0.210674
0.210674
0.210674
0.210674
0.210674
0.210674
0.210674
0.210674
0.210674
0.210674
0.210674
0.210674
0.210674
0.210674
0.210674
0.210674
0.210674
0.210674
0.210674
0.210674
0.210674
0.210674
0.210674
0.210674
0.210674
0.210674
0.210674
0.210674
0.210674
0.210674
0.210674
0.210674
0.210674
0.210674
0.210674
0.210674
0.210674
0.210674
0.210674
0.210674
0.210674
0.210674
0.210674
0.210674
0.210674
0.210674
0.210674
0.210674
0.210674
0.210674
0.210674
0.210674
0.210674
0.210674
0.210674
0.210674
0.210675
0.214356
0.210715
0.210706
0.210697
0.21069
0.210683
0.210677
0.210672
0.210667
0.210662
0.210659
0.210655
0.210652
0.210649
0.210647
0.210644
0.210642
0.210641
0.210639
0.210638
0.210636
0.210635
0.210634
0.210633
0.210633
0.210632
0.210631
0.210631
0.21063
0.21063
0.21063
0.210629
0.210629
0.210629
0.210629
0.210628
0.210628
0.210628
0.210628
0.210628
0.210628
0.210628
0.210627
0.210627
0.210627
0.210627
0.210627
0.210627
0.210627
0.210627
0.210627
0.210627
0.210627
0.210626
0.210626
0.210626
0.210626
0.210626
0.210626
0.210626
0.210626
0.210626
0.210626
0.210626
0.210626
0.210626
0.210626
0.210626
0.210626
0.210626
0.210626
0.210626
0.210626
0.210625
0.210625
0.210625
0.210625
0.210625
0.210625
0.210625
0.210625
0.210625
0.210625
0.210625
0.210625
0.210625
0.210625
0.210625
0.210625
0.210625
0.210625
0.210625
0.210625
0.210625
0.210625
0.210625
0.210625
0.210625
0.210625
0.210625
0.210625
0.210625
0.210625
0.210625
0.210625
0.210625
0.210625
0.210625
0.210625
0.210625
0.210625
0.210625
0.210625
0.210625
0.210625
0.210625
0.210625
0.210625
0.210625
0.210625
0.210625
0.210625
0.210625
0.210625
0.210625
0.210625
0.210625
0.210625
0.210625
0.210625
0.210625
0.210625
0.210625
0.210625
0.210625
0.210625
0.210625
0.210625
0.210625
0.210625
0.210625
0.210625
0.210625
0.210625
0.210625
0.210625
0.210625
0.210625
0.210625
0.210625
0.210625
0.210625
0.210625
0.210625
0.210625
0.210625
0.210625
0.210625
0.210625
0.210625
0.210625
0.210625
0.210625
0.210628
0.214865
0.210695
0.210687
0.210679
0.210672
0.210666
0.210661
0.210656
0.210651
0.210648
0.210644
0.210641
0.210638
0.210636
0.210634
0.210632
0.21063
0.210628
0.210627
0.210626
0.210625
0.210624
0.210623
0.210622
0.210622
0.210621
0.210621
0.21062
0.21062
0.21062
0.21062
0.210619
0.210619
0.210619
0.210619
0.210619
0.210619
0.210619
0.210619
0.210619
0.210618
0.210618
0.210618
0.210618
0.210618
0.210618
0.210618
0.210618
0.210618
0.210618
0.210618
0.210618
0.210618
0.210618
0.210618
0.210618
0.210618
0.210618
0.210617
0.210617
0.210617
0.210617
0.210617
0.210617
0.210617
0.210617
0.210617
0.210617
0.210617
0.210617
0.210617
0.210617
0.210617
0.210617
0.210617
0.210617
0.210617
0.210617
0.210617
0.210617
0.210617
0.210617
0.210617
0.210617
0.210617
0.210617
0.210617
0.210617
0.210617
0.210617
0.210617
0.210617
0.210617
0.210617
0.210617
0.210617
0.210617
0.210617
0.210617
0.210617
0.210617
0.210617
0.210617
0.210617
0.210617
0.210617
0.210617
0.210617
0.210617
0.210617
0.210617
0.210617
0.210617
0.210617
0.210617
0.210617
0.210617
0.210617
0.210617
0.210617
0.210617
0.210617
0.210617
0.210617
0.210617
0.210617
0.210617
0.210617
0.210617
0.210617
0.210617
0.210617
0.210617
0.210617
0.210617
0.210617
0.210617
0.210617
0.210617
0.210617
0.210617
0.210617
0.210617
0.210617
0.210617
0.210617
0.210617
0.210617
0.210617
0.210617
0.210617
0.210617
0.210617
0.210617
0.210617
0.210617
0.210617
0.210617
0.210617
0.210617
0.210617
0.210617
0.210617
0.21062
0.214972
0.210691
0.210683
0.210676
0.210669
0.210663
0.210658
0.210653
0.210649
0.210645
0.210641
0.210638
0.210636
0.210633
0.210631
0.210629
0.210628
0.210626
0.210625
0.210624
0.210623
0.210622
0.210621
0.210621
0.21062
0.210619
0.210619
0.210619
0.210618
0.210618
0.210618
0.210618
0.210618
0.210617
0.210617
0.210617
0.210617
0.210617
0.210617
0.210617
0.210617
0.210617
0.210617
0.210617
0.210617
0.210617
0.210617
0.210617
0.210617
0.210617
0.210617
0.210616
0.210616
0.210616
0.210616
0.210616
0.210616
0.210616
0.210616
0.210616
0.210616
0.210616
0.210616
0.210616
0.210616
0.210616
0.210616
0.210616
0.210616
0.210616
0.210616
0.210616
0.210616
0.210616
0.210616
0.210616
0.210616
0.210616
0.210615
0.210615
0.210615
0.210615
0.210615
0.210615
0.210615
0.210615
0.210615
0.210615
0.210615
0.210615
0.210615
0.210615
0.210615
0.210615
0.210615
0.210615
0.210615
0.210615
0.210615
0.210615
0.210615
0.210615
0.210615
0.210615
0.210615
0.210615
0.210615
0.210615
0.210615
0.210615
0.210615
0.210615
0.210615
0.210615
0.210615
0.210615
0.210615
0.210615
0.210615
0.210615
0.210615
0.210615
0.210615
0.210615
0.210615
0.210615
0.210615
0.210615
0.210615
0.210615
0.210615
0.210615
0.210615
0.210615
0.210615
0.210615
0.210615
0.210615
0.210615
0.210615
0.210615
0.210615
0.210615
0.210615
0.210615
0.210615
0.210615
0.210615
0.210615
0.210615
0.210615
0.210615
0.210615
0.210615
0.210615
0.210615
0.210615
0.210615
0.210615
0.210615
0.210615
0.210615
0.210615
0.210619
0.214992
0.210691
0.210683
0.210675
0.210668
0.210662
0.210657
0.210652
0.210648
0.210644
0.210641
0.210638
0.210635
0.210633
0.210631
0.210629
0.210627
0.210626
0.210625
0.210623
0.210622
0.210622
0.210621
0.21062
0.21062
0.210619
0.210619
0.210618
0.210618
0.210618
0.210618
0.210617
0.210617
0.210617
0.210617
0.210617
0.210617
0.210617
0.210617
0.210617
0.210617
0.210617
0.210617
0.210617
0.210617
0.210617
0.210617
0.210617
0.210616
0.210616
0.210616
0.210616
0.210616
0.210616
0.210616
0.210616
0.210616
0.210616
0.210616
0.210616
0.210616
0.210616
0.210616
0.210616
0.210616
0.210616
0.210616
0.210616
0.210616
0.210616
0.210615
0.210615
0.210615
0.210615
0.210615
0.210615
0.210615
0.210615
0.210615
0.210615
0.210615
0.210615
0.210615
0.210615
0.210615
0.210615
0.210615
0.210615
0.210615
0.210615
0.210615
0.210615
0.210615
0.210615
0.210615
0.210615
0.210615
0.210615
0.210615
0.210615
0.210615
0.210615
0.210615
0.210615
0.210615
0.210615
0.210615
0.210615
0.210615
0.210615
0.210615
0.210615
0.210615
0.210615
0.210615
0.210615
0.210615
0.210615
0.210615
0.210615
0.210615
0.210615
0.210615
0.210615
0.210615
0.210615
0.210615
0.210615
0.210615
0.210615
0.210615
0.210615
0.210615
0.210615
0.210615
0.210615
0.210615
0.210615
0.210615
0.210615
0.210615
0.210615
0.210615
0.210615
0.210615
0.210615
0.210615
0.210615
0.210615
0.210615
0.210615
0.210615
0.210615
0.210615
0.210615
0.210615
0.210615
0.210615
0.210615
0.210615
0.210615
0.210615
0.210615
0.210619
0.214995
0.21069
0.210682
0.210674
0.210668
0.210662
0.210657
0.210652
0.210648
0.210644
0.210641
0.210638
0.210635
0.210633
0.210631
0.210629
0.210627
0.210626
0.210624
0.210623
0.210622
0.210622
0.210621
0.21062
0.21062
0.210619
0.210619
0.210618
0.210618
0.210618
0.210618
0.210617
0.210617
0.210617
0.210617
0.210617
0.210617
0.210617
0.210617
0.210617
0.210617
0.210617
0.210617
0.210617
0.210617
0.210617
0.210617
0.210617
0.210616
0.210616
0.210616
0.210616
0.210616
0.210616
0.210616
0.210616
0.210616
0.210616
0.210616
0.210616
0.210616
0.210616
0.210616
0.210616
0.210616
0.210616
0.210616