/*--------------------------------*- C++ -*----------------------------------*\
| =========                 |                                                 |
| \\      /  F ield         | OpenFOAM: The Open Source CFD Toolbox           |
|  \\    /   O peration     | Version:  v1912                                 |
|   \\  /    A nd           | Website:  www.openfoam.com                      |
|    \\/     M anipulation  |                                                 |
\*---------------------------------------------------------------------------*/
FoamFile
{
    version     2.0;
    format      ascii;
    class       volVectorField;
    location    "60";
    object      U;
}
// * * * * * * * * * * * * * * * * * * * * * * * * * * * * * * * * * * * * * //

dimensions      [0 1 -1 0 0 0 0];


internalField   nonuniform List<vector> 
14268
(
(0.0347407 0.00349372 0)
(0.0328922 0.00330792 0)
(0.0311337 0.00313116 0)
(0.0294614 0.00296304 0)
(0.0278713 0.0028032 0)
(0.0263601 0.00265127 0)
(0.0249241 0.00250691 0)
(0.0235601 0.00236978 0)
(0.0222648 0.00223956 0)
(0.0210351 0.00211592 0)
(0.0198681 0.00199859 0)
(0.0187609 0.00188726 0)
(0.0177107 0.00178166 0)
(0.0167148 0.00168152 0)
(0.0157707 0.00158659 0)
(0.014876 0.00149662 0)
(0.0140284 0.00141138 0)
(0.0132255 0.00133064 0)
(0.0124653 0.00125419 0)
(0.0117456 0.00118181 0)
(0.0110645 0.00111331 0)
(0.0104201 0.0010485 0)
(0.00981058 0.000987195 0)
(0.00923423 0.000929226 0)
(0.00868939 0.000874424 0)
(0.00817447 0.00082263 0)
(0.00768798 0.000773694 0)
(0.00722846 0.00072747 0)
(0.00679454 0.00068382 0)
(0.00638491 0.000642612 0)
(0.00599832 0.000603721 0)
(0.00563356 0.000567025 0)
(0.00528952 0.000532412 0)
(0.0049651 0.000499772 0)
(0.00465926 0.000469002 0)
(0.00437103 0.000440001 0)
(0.00409947 0.000412677 0)
(0.00384369 0.00038694 0)
(0.00360283 0.000362705 0)
(0.0033761 0.000339889 0)
(0.00316273 0.000318418 0)
(0.00296199 0.000298216 0)
(0.00277318 0.000279216 0)
(0.00259565 0.000261349 0)
(0.00242878 0.000244555 0)
(0.00227197 0.000228772 0)
(0.00212465 0.000213945 0)
(0.00198631 0.00020002 0)
(0.00185642 0.000186947 0)
(0.00173451 0.000174675 0)
(0.00162012 0.000163161 0)
(0.00151283 0.000152361 0)
(0.00141222 0.000142233 0)
(0.00131791 0.000132738 0)
(0.00122953 0.000123841 0)
(0.00114674 0.000115505 0)
(0.0010692 0.000107699 0)
(0.000996608 0.00010039 0)
(0.00092867 9.35494e-05 0)
(0.000865108 8.71492e-05 0)
(0.000805659 8.11631e-05 0)
(0.000750077 7.5566e-05 0)
(0.000698127 7.03346e-05 0)
(0.000649589 6.54464e-05 0)
(0.000604253 6.08807e-05 0)
(0.000561924 5.66176e-05 0)
(0.000522415 5.26384e-05 0)
(0.000485552 4.89256e-05 0)
(0.000451171 4.54625e-05 0)
(0.000419114 4.22336e-05 0)
(0.000389237 3.9224e-05 0)
(0.000361401 3.64199e-05 0)
(0.000335476 3.38082e-05 0)
(0.000311341 3.13767e-05 0)
(0.000288879 2.91137e-05 0)
(0.000267983 2.70085e-05 0)
(0.000248552 2.50506e-05 0)
(0.000230489 2.32306e-05 0)
(0.000213705 2.15394e-05 0)
(0.000198116 1.99685e-05 0)
(0.000183642 1.85099e-05 0)
(0.000170209 1.71561e-05 0)
(0.000157747 1.59002e-05 0)
(0.000146191 1.47355e-05 0)
(0.000135479 1.36558e-05 0)
(0.000125554 1.26554e-05 0)
(0.000116362 1.17289e-05 0)
(0.000107852 1.08711e-05 0)
(9.9978e-05 1.00773e-05 0)
(9.26947e-05 9.34301e-06 0)
(8.59609e-05 8.66412e-06 0)
(7.97381e-05 8.03671e-06 0)
(7.399e-05 7.45713e-06 0)
(6.86827e-05 6.92198e-06 0)
(6.37848e-05 6.42808e-06 0)
(5.92666e-05 5.97245e-06 0)
(5.51007e-05 5.55232e-06 0)
(5.12614e-05 5.1651e-06 0)
(4.77246e-05 4.80838e-06 0)
(4.4468e-05 4.4799e-06 0)
(4.14708e-05 4.17758e-06 0)
(3.87135e-05 3.89944e-06 0)
(3.61781e-05 3.64366e-06 0)
(3.38477e-05 3.40856e-06 0)
(3.17066e-05 3.19255e-06 0)
(2.97403e-05 2.99416e-06 0)
(2.79351e-05 2.81201e-06 0)
(2.62785e-05 2.64485e-06 0)
(2.47585e-05 2.49148e-06 0)
(2.33644e-05 2.3508e-06 0)
(2.20859e-05 2.22178e-06 0)
(2.09136e-05 2.10348e-06 0)
(1.98384e-05 1.99498e-06 0)
(1.88527e-05 1.89551e-06 0)
(1.7948e-05 1.80421e-06 0)
(1.71183e-05 1.72049e-06 0)
(1.63551e-05 1.64349e-06 0)
(1.56552e-05 1.57288e-06 0)
(1.50079e-05 1.50759e-06 0)
(1.44152e-05 1.44781e-06 0)
(1.38606e-05 1.39191e-06 0)
(1.3356e-05 1.34102e-06 0)
(1.28715e-05 1.29226e-06 0)
(1.24406e-05 1.2488e-06 0)
(1.20045e-05 1.205e-06 0)
(1.1635e-05 1.16773e-06 0)
(1.12275e-05 1.12692e-06 0)
(1.09076e-05 1.0946e-06 0)
(1.0512e-05 1.05516e-06 0)
(1.02294e-05 1.02652e-06 0)
(9.8347e-06 9.87373e-07 0)
(9.57436e-06 9.60844e-07 0)
(9.17865e-06 9.21736e-07 0)
(8.93401e-06 8.9672e-07 0)
(8.53247e-06 8.57074e-07 0)
(8.3062e-06 8.33751e-07 0)
(7.91826e-06 7.95492e-07 0)
(7.71162e-06 7.73808e-07 0)
(7.39038e-06 7.42213e-07 0)
(7.20921e-06 7.22672e-07 0)
(7.02677e-06 7.04831e-07 0)
(6.89185e-06 6.89853e-07 0)
(6.85866e-06 6.86776e-07 0)
(6.79308e-06 6.7867e-07 0)
(6.95161e-06 6.94611e-07 0)
(6.96969e-06 6.95505e-07 0)
(7.22137e-06 7.20837e-07 0)
(7.30062e-06 7.28239e-07 0)
(7.5703e-06 7.5544e-07 0)
(7.68571e-06 7.66706e-07 0)
(7.93419e-06 7.9182e-07 0)
(8.06545e-06 8.04828e-07 0)
(8.27474e-06 8.26018e-07 0)
(8.40905e-06 8.39411e-07 0)
(8.57494e-06 8.56235e-07 0)
(8.70756e-06 8.69483e-07 0)
(8.83251e-06 8.82165e-07 0)
(8.96731e-06 8.95631e-07 0)
(9.05571e-06 9.04547e-07 0)
(9.21381e-06 9.20321e-07 0)
(9.26971e-06 9.25353e-07 0)
(9.58635e-06 9.56912e-07 0)
(9.62177e-06 9.34334e-07 0)
(1.51265e-05 1.48475e-06 0)
(0.0346865 0.0035275 0)
(0.0328408 0.00334008 0)
(0.0310849 0.00316177 0)
(0.029415 0.00299217 0)
(0.0278274 0.0028309 0)
(0.0263184 0.00267762 0)
(0.0248846 0.00253195 0)
(0.0235227 0.00239358 0)
(0.0222294 0.00226216 0)
(0.0210016 0.00213739 0)
(0.0198364 0.00201897 0)
(0.0187309 0.00190661 0)
(0.0176822 0.00180002 0)
(0.0166879 0.00169894 0)
(0.0157453 0.00160311 0)
(0.014852 0.00151228 0)
(0.0140057 0.00142622 0)
(0.0132041 0.0013447 0)
(0.012445 0.00126751 0)
(0.0117265 0.00119442 0)
(0.0110464 0.00112525 0)
(0.0104031 0.0010598 0)
(0.00979451 0.000997888 0)
(0.00921907 0.00093934 0)
(0.0086751 0.000883988 0)
(0.008161 0.000831671 0)
(0.00767527 0.000782239 0)
(0.00721649 0.000735543 0)
(0.00678326 0.000691445 0)
(0.00637428 0.000649812 0)
(0.00598831 0.000610517 0)
(0.00562414 0.000573439 0)
(0.00528065 0.000538463 0)
(0.00495675 0.000505479 0)
(0.0046514 0.000474382 0)
(0.00436364 0.000445073 0)
(0.00409251 0.000417456 0)
(0.00383714 0.000391442 0)
(0.00359668 0.000366944 0)
(0.00337032 0.00034388 0)
(0.00315729 0.000322174 0)
(0.00295687 0.00030175 0)
(0.00276837 0.000282539 0)
(0.00259113 0.000264474 0)
(0.00242453 0.000247492 0)
(0.00226797 0.000231532 0)
(0.0021209 0.000216537 0)
(0.00198278 0.000202454 0)
(0.0018531 0.000189231 0)
(0.00173139 0.000176819 0)
(0.00161719 0.000165172 0)
(0.00151008 0.000154246 0)
(0.00140963 0.000143999 0)
(0.00131548 0.000134393 0)
(0.00122724 0.000125391 0)
(0.00114459 0.000116956 0)
(0.00106718 0.000109057 0)
(0.000994704 0.00010166 0)
(0.000926878 9.47371e-05 0)
(0.000863421 8.82593e-05 0)
(0.000804071 8.22001e-05 0)
(0.000748581 7.65344e-05 0)
(0.000696717 7.12384e-05 0)
(0.000648259 6.62896e-05 0)
(0.000602999 6.16669e-05 0)
(0.00056074 5.73503e-05 0)
(0.000521297 5.33209e-05 0)
(0.000484496 4.9561e-05 0)
(0.000450171 4.60537e-05 0)
(0.000418169 4.27833e-05 0)
(0.000388341 3.97348e-05 0)
(0.000360552 3.68943e-05 0)
(0.00033467 3.42485e-05 0)
(0.000310575 3.1785e-05 0)
(0.000288151 2.94922e-05 0)
(0.000267291 2.73589e-05 0)
(0.000247892 2.53749e-05 0)
(0.000229859 2.35304e-05 0)
(0.000213104 2.18163e-05 0)
(0.000197541 2.0224e-05 0)
(0.000183091 1.87454e-05 0)
(0.000169681 1.7373e-05 0)
(0.00015724 1.60997e-05 0)
(0.000145703 1.49187e-05 0)
(0.00013501 1.38239e-05 0)
(0.000125101 1.28094e-05 0)
(0.000115925 1.18696e-05 0)
(0.00010743 1.09996e-05 0)
(9.95691e-05 1.01943e-05 0)
(9.22981e-05 9.44945e-06 0)
(8.55759e-05 8.76067e-06 0)
(7.93637e-05 8.12406e-06 0)
(7.36254e-05 7.53594e-06 0)
(6.83272e-05 6.99284e-06 0)
(6.34377e-05 6.49156e-06 0)
(5.89273e-05 6.02908e-06 0)
(5.47685e-05 5.6026e-06 0)
(5.09358e-05 5.20949e-06 0)
(4.74051e-05 4.8473e-06 0)
(4.41541e-05 4.51377e-06 0)
(4.1162e-05 4.20675e-06 0)
(3.84095e-05 3.92427e-06 0)
(3.58785e-05 3.66449e-06 0)
(3.35522e-05 3.42568e-06 0)
(3.14148e-05 3.20624e-06 0)
(2.94519e-05 3.00469e-06 0)
(2.76498e-05 2.81963e-06 0)
(2.5996e-05 2.64978e-06 0)
(2.44787e-05 2.49393e-06 0)
(2.3087e-05 2.35098e-06 0)
(2.18107e-05 2.21987e-06 0)
(2.06404e-05 2.09964e-06 0)
(1.95672e-05 1.98939e-06 0)
(1.85831e-05 1.88831e-06 0)
(1.768e-05 1.79554e-06 0)
(1.68517e-05 1.71048e-06 0)
(1.60898e-05 1.63227e-06 0)
(1.53911e-05 1.56055e-06 0)
(1.47448e-05 1.49428e-06 0)
(1.41532e-05 1.43358e-06 0)
(1.35994e-05 1.37692e-06 0)
(1.30956e-05 1.32528e-06 0)
(1.26119e-05 1.27596e-06 0)
(1.21817e-05 1.23189e-06 0)
(1.17462e-05 1.18775e-06 0)
(1.13773e-05 1.14993e-06 0)
(1.09703e-05 1.10905e-06 0)
(1.06508e-05 1.07617e-06 0)
(1.02556e-05 1.03696e-06 0)
(9.97351e-06 1.00766e-06 0)
(9.57911e-06 9.69134e-07 0)
(9.31916e-06 9.41715e-07 0)
(8.9237e-06 9.03501e-07 0)
(8.67942e-06 8.77485e-07 0)
(8.27811e-06 8.38817e-07 0)
(8.05222e-06 8.14204e-07 0)
(7.66448e-06 7.76966e-07 0)
(7.45828e-06 7.53419e-07 0)
(7.13722e-06 7.22799e-07 0)
(6.95657e-06 7.00634e-07 0)
(6.77431e-06 6.83567e-07 0)
(6.63986e-06 6.65865e-07 0)
(6.60683e-06 6.63293e-07 0)
(6.54174e-06 6.52078e-07 0)
(6.7004e-06 6.68284e-07 0)
(6.71871e-06 6.67181e-07 0)
(6.97041e-06 6.9286e-07 0)
(7.04969e-06 6.99181e-07 0)
(7.31931e-06 7.26824e-07 0)
(7.43466e-06 7.37553e-07 0)
(7.68304e-06 7.63181e-07 0)
(7.81418e-06 7.75954e-07 0)
(8.02336e-06 7.97673e-07 0)
(8.15755e-06 8.10986e-07 0)
(8.32333e-06 8.28282e-07 0)
(8.45584e-06 8.41519e-07 0)
(8.5807e-06 8.54566e-07 0)
(8.7154e-06 8.68017e-07 0)
(8.80376e-06 8.77071e-07 0)
(8.96178e-06 8.92778e-07 0)
(9.0179e-06 8.96612e-07 0)
(9.334e-06 9.27815e-07 0)
(9.37843e-06 8.53328e-07 0)
(1.48558e-05 1.40102e-06 0)
(0.0346552 0.00356363 0)
(0.0328111 0.00337446 0)
(0.0310568 0.00319447 0)
(0.0293884 0.00302327 0)
(0.0278022 0.00286048 0)
(0.0262945 0.00270572 0)
(0.024862 0.00255866 0)
(0.0235012 0.00241894 0)
(0.0222091 0.00228625 0)
(0.0209824 0.00216026 0)
(0.0198182 0.00204067 0)
(0.0187136 0.00192719 0)
(0.0176659 0.00181954 0)
(0.0166725 0.00171745 0)
(0.0157307 0.00162066 0)
(0.0148382 0.00152891 0)
(0.0139926 0.00144198 0)
(0.0131917 0.00135962 0)
(0.0124333 0.00128163 0)
(0.0117154 0.00120779 0)
(0.011036 0.0011379 0)
(0.0103932 0.00107177 0)
(0.00978517 0.00100921 0)
(0.00921024 0.000950042 0)
(0.00866675 0.000894103 0)
(0.00815311 0.000841229 0)
(0.00766782 0.000791267 0)
(0.00720944 0.000744068 0)
(0.0067766 0.000699493 0)
(0.00636799 0.000657408 0)
(0.00598236 0.000617684 0)
(0.00561852 0.000580199 0)
(0.00527533 0.000544837 0)
(0.00495172 0.000511487 0)
(0.00464665 0.000480044 0)
(0.00435915 0.000450406 0)
(0.00408827 0.000422479 0)
(0.00383313 0.00039617 0)
(0.00359288 0.000371394 0)
(0.00336672 0.000348067 0)
(0.00315389 0.000326111 0)
(0.00295365 0.000305452 0)
(0.00276532 0.000286018 0)
(0.00258824 0.000267743 0)
(0.00242179 0.000250561 0)
(0.00226538 0.000234414 0)
(0.00211844 0.000219242 0)
(0.00198044 0.000204992 0)
(0.00185088 0.000191611 0)
(0.00172929 0.000179049 0)
(0.00161519 0.000167262 0)
(0.00150817 0.000156203 0)
(0.00140782 0.000145832 0)
(0.00131375 0.000136109 0)
(0.0012256 0.000126996 0)
(0.00114302 0.000118457 0)
(0.00106568 0.000110459 0)
(0.000993276 0.00010297 0)
(0.000925513 9.596e-05 0)
(0.000862115 8.94004e-05 0)
(0.00080282 8.32643e-05 0)
(0.000747382 7.75263e-05 0)
(0.000695566 7.21624e-05 0)
(0.000647153 6.71499e-05 0)
(0.000601935 6.24673e-05 0)
(0.000559716 5.80945e-05 0)
(0.00052031 5.40124e-05 0)
(0.000483543 5.02029e-05 0)
(0.000449251 4.66492e-05 0)
(0.000417278 4.33353e-05 0)
(0.000387479 4.02461e-05 0)
(0.000359716 3.73674e-05 0)
(0.000333859 3.46858e-05 0)
(0.000309787 3.21889e-05 0)
(0.000287384 2.98646e-05 0)
(0.000266543 2.77021e-05 0)
(0.000247163 2.56906e-05 0)
(0.000229148 2.38205e-05 0)
(0.000212408 2.20824e-05 0)
(0.00019686 2.04677e-05 0)
(0.000182424 1.89683e-05 0)
(0.000169027 1.75764e-05 0)
(0.000156598 1.62848e-05 0)
(0.000145073 1.50869e-05 0)
(0.000134389 1.39762e-05 0)
(0.000124491 1.29469e-05 0)
(0.000115323 1.19935e-05 0)
(0.000106836 1.11106e-05 0)
(9.89831e-05 1.02935e-05 0)
(9.17192e-05 9.53747e-06 0)
(8.50036e-05 8.83837e-06 0)
(7.87975e-05 8.19217e-06 0)
(7.30648e-05 7.59512e-06 0)
(6.77718e-05 7.04375e-06 0)
(6.28871e-05 6.53477e-06 0)
(5.83812e-05 6.06516e-06 0)
(5.42265e-05 5.63205e-06 0)
(5.03976e-05 5.2328e-06 0)
(4.68704e-05 4.86492e-06 0)
(4.36226e-05 4.52611e-06 0)
(4.06336e-05 4.21421e-06 0)
(3.78838e-05 3.92722e-06 0)
(3.53553e-05 3.66326e-06 0)
(3.30313e-05 3.42058e-06 0)
(3.08961e-05 3.19758e-06 0)
(2.89351e-05 2.99273e-06 0)
(2.71349e-05 2.80463e-06 0)
(2.54828e-05 2.63198e-06 0)
(2.3967e-05 2.47355e-06 0)
(2.25767e-05 2.32822e-06 0)
(2.13017e-05 2.19492e-06 0)
(2.01326e-05 2.0727e-06 0)
(1.90604e-05 1.96061e-06 0)
(1.80774e-05 1.85784e-06 0)
(1.71751e-05 1.76354e-06 0)
(1.63477e-05 1.67707e-06 0)
(1.55865e-05 1.59759e-06 0)
(1.48885e-05 1.5247e-06 0)
(1.42429e-05 1.4574e-06 0)
(1.36518e-05 1.39574e-06 0)
(1.30986e-05 1.33826e-06 0)
(1.25953e-05 1.28585e-06 0)
(1.2112e-05 1.23592e-06 0)
(1.16821e-05 1.1912e-06 0)
(1.1247e-05 1.14669e-06 0)
(1.08784e-05 1.10829e-06 0)
(1.04717e-05 1.0673e-06 0)
(1.01526e-05 1.03385e-06 0)
(9.7576e-06 9.94855e-07 0)
(9.47571e-06 9.64871e-07 0)
(9.08149e-06 9.26947e-07 0)
(8.82176e-06 8.98626e-07 0)
(8.42645e-06 8.61291e-07 0)
(8.18238e-06 8.34261e-07 0)
(7.78121e-06 7.96552e-07 0)
(7.55556e-06 7.70646e-07 0)
(7.16794e-06 7.34416e-07 0)
(6.96205e-06 7.08949e-07 0)
(6.64113e-06 6.7932e-07 0)
(6.46088e-06 6.54457e-07 0)
(6.2788e-06 6.38136e-07 0)
(6.14471e-06 6.17627e-07 0)
(6.11185e-06 6.15474e-07 0)
(6.04719e-06 6.0127e-07 0)
(6.20599e-06 6.17622e-07 0)
(6.22448e-06 6.14721e-07 0)
(6.47623e-06 6.40691e-07 0)
(6.55554e-06 6.45997e-07 0)
(6.82513e-06 6.74069e-07 0)
(6.94041e-06 6.84276e-07 0)
(7.18872e-06 7.10397e-07 0)
(7.31975e-06 7.2296e-07 0)
(7.52884e-06 7.45165e-07 0)
(7.66291e-06 7.58423e-07 0)
(7.8286e-06 7.76155e-07 0)
(7.96101e-06 7.89388e-07 0)
(8.08579e-06 8.02777e-07 0)
(8.22041e-06 8.16221e-07 0)
(8.30873e-06 8.25394e-07 0)
(8.46667e-06 8.41046e-07 0)
(8.52299e-06 8.43737e-07 0)
(8.83829e-06 8.74505e-07 0)
(8.89024e-06 7.48725e-07 0)
(1.42868e-05 1.28835e-06 0)
(0.0346352 0.00360073 0)
(0.0327922 0.00340977 0)
(0.0310388 0.00322806 0)
(0.0293713 0.00305521 0)
(0.0277859 0.00289084 0)
(0.0262791 0.00273458 0)
(0.0248474 0.00258608 0)
(0.0234874 0.00244499 0)
(0.0221959 0.00231098 0)
(0.0209699 0.00218373 0)
(0.0198064 0.00206295 0)
(0.0187024 0.00194832 0)
(0.0176553 0.00183958 0)
(0.0166624 0.00173645 0)
(0.0157211 0.00163866 0)
(0.0148291 0.00154597 0)
(0.013984 0.00145814 0)
(0.0131835 0.00137493 0)
(0.0124256 0.00129612 0)
(0.0117081 0.0012215 0)
(0.011029 0.00115087 0)
(0.0103866 0.00108404 0)
(0.00977889 0.00102081 0)
(0.00920429 0.000961005 0)
(0.00866109 0.000904462 0)
(0.00814774 0.000851015 0)
(0.00766272 0.000800508 0)
(0.00720459 0.000752793 0)
(0.006772 0.000707728 0)
(0.00636361 0.000665177 0)
(0.0059782 0.000625011 0)
(0.00561456 0.000587107 0)
(0.00527157 0.000551349 0)
(0.00494814 0.000517623 0)
(0.00464325 0.000485823 0)
(0.0043559 0.000455849 0)
(0.00408517 0.000427602 0)
(0.00383018 0.000400991 0)
(0.00359007 0.000375928 0)
(0.00336404 0.000352331 0)
(0.00315132 0.000330119 0)
(0.0029512 0.000309218 0)
(0.00276298 0.000289555 0)
(0.002586 0.000271064 0)
(0.00241965 0.000253679 0)
(0.00226332 0.000237338 0)
(0.00211647 0.000221985 0)
(0.00197855 0.000207562 0)
(0.00184907 0.000194019 0)
(0.00172754 0.000181305 0)
(0.00161351 0.000169374 0)
(0.00150655 0.000158179 0)
(0.00140626 0.00014768 0)
(0.00131225 0.000137836 0)
(0.00122415 0.000128609 0)
(0.00114161 0.000119964 0)
(0.00106432 0.000111865 0)
(0.000991958 0.000104282 0)
(0.000924235 9.71826e-05 0)
(0.000860874 9.05393e-05 0)
(0.000801615 8.43245e-05 0)
(0.000746209 7.85126e-05 0)
(0.000694424 7.30792e-05 0)
(0.00064604 6.80014e-05 0)
(0.000600849 6.32576e-05 0)
(0.000558655 5.88274e-05 0)
(0.000519273 5.46913e-05 0)
(0.000482528 5.08313e-05 0)
(0.000448257 4.72302e-05 0)
(0.000416303 4.38719e-05 0)
(0.000386522 4.0741e-05 0)
(0.000358776 3.78234e-05 0)
(0.000332935 3.51053e-05 0)
(0.000308877 3.25742e-05 0)
(0.000286488 3.02181e-05 0)
(0.00026566 2.80256e-05 0)
(0.000246292 2.59863e-05 0)
(0.000228288 2.40901e-05 0)
(0.000211559 2.23276e-05 0)
(0.00019602 2.06902e-05 0)
(0.000181593 1.91695e-05 0)
(0.000168204 1.77577e-05 0)
(0.000155783 1.64477e-05 0)
(0.000144265 1.52325e-05 0)
(0.000133588 1.41058e-05 0)
(0.000123696 1.30616e-05 0)
(0.000114534 1.20942e-05 0)
(0.000106053 1.11984e-05 0)
(9.82046e-05 1.03692e-05 0)
(9.09454e-05 9.60197e-06 0)
(8.4234e-05 8.89245e-06 0)
(7.80319e-05 8.23656e-06 0)
(7.23029e-05 7.63052e-06 0)
(6.70134e-05 7.0708e-06 0)
(6.21318e-05 6.55408e-06 0)
(5.76288e-05 6.07728e-06 0)
(5.34768e-05 5.63752e-06 0)
(4.96504e-05 5.2321e-06 0)
(4.61255e-05 4.85852e-06 0)
(4.28798e-05 4.51443e-06 0)
(3.98928e-05 4.19765e-06 0)
(3.71448e-05 3.90614e-06 0)
(3.4618e-05 3.638e-06 0)
(3.22955e-05 3.39148e-06 0)
(3.01617e-05 3.16492e-06 0)
(2.82021e-05 2.9568e-06 0)
(2.6403e-05 2.76569e-06 0)
(2.4752e-05 2.59026e-06 0)
(2.32373e-05 2.42928e-06 0)
(2.18479e-05 2.2816e-06 0)
(2.05737e-05 2.14616e-06 0)
(1.94054e-05 2.02196e-06 0)
(1.8334e-05 1.90807e-06 0)
(1.73516e-05 1.80365e-06 0)
(1.64499e-05 1.70785e-06 0)
(1.56231e-05 1.62002e-06 0)
(1.48624e-05 1.5393e-06 0)
(1.41649e-05 1.46528e-06 0)
(1.35197e-05 1.39698e-06 0)
(1.29289e-05 1.3344e-06 0)
(1.2376e-05 1.27614e-06 0)
(1.18731e-05 1.22297e-06 0)
(1.13901e-05 1.17247e-06 0)
(1.09605e-05 1.12713e-06 0)
(1.05256e-05 1.08226e-06 0)
(1.01572e-05 1.04332e-06 0)
(9.75071e-06 1.00222e-06 0)
(9.43172e-06 9.68236e-07 0)
(9.0369e-06 9.29413e-07 0)
(8.75515e-06 8.98808e-07 0)
(8.36104e-06 8.61414e-07 0)
(8.10145e-06 8.32278e-07 0)
(7.70624e-06 7.95718e-07 0)
(7.46229e-06 7.67783e-07 0)
(7.0612e-06 7.30919e-07 0)
(6.8357e-06 7.03847e-07 0)
(6.44817e-06 6.68494e-07 0)
(6.24252e-06 6.4134e-07 0)
(5.92169e-06 6.12532e-07 0)
(5.74176e-06 5.85296e-07 0)
(5.55984e-06 5.69607e-07 0)
(5.42602e-06 5.46702e-07 0)
(5.39335e-06 5.4492e-07 0)
(5.32907e-06 5.27682e-07 0)
(5.48805e-06 5.44263e-07 0)
(5.50673e-06 5.39234e-07 0)
(5.75857e-06 5.65526e-07 0)
(5.8379e-06 5.69723e-07 0)
(6.1075e-06 5.98228e-07 0)
(6.22272e-06 6.07904e-07 0)
(6.47098e-06 6.34546e-07 0)
(6.60192e-06 6.46893e-07 0)
(6.81093e-06 6.69644e-07 0)
(6.9449e-06 6.82843e-07 0)
(7.11051e-06 7.0107e-07 0)
(7.24282e-06 7.14312e-07 0)
(7.36754e-06 7.28083e-07 0)
(7.50208e-06 7.4153e-07 0)
(7.59037e-06 7.50839e-07 0)
(7.74823e-06 7.6643e-07 0)
(7.80477e-06 7.67816e-07 0)
(8.11908e-06 7.98028e-07 0)
(8.17722e-06 6.19997e-07 0)
(1.33872e-05 1.14097e-06 0)
(0.0346207 0.00363839 0)
(0.0327784 0.00344559 0)
(0.0310257 0.00326214 0)
(0.0293588 0.00308761 0)
(0.0277741 0.00292164 0)
(0.0262678 0.00276385 0)
(0.0248367 0.00261388 0)
(0.0234772 0.00247139 0)
(0.0221862 0.00233604 0)
(0.0209607 0.00220752 0)
(0.0197976 0.00208552 0)
(0.018694 0.00196973 0)
(0.0176473 0.00185988 0)
(0.0166548 0.00175569 0)
(0.015714 0.00165689 0)
(0.0148223 0.00156324 0)
(0.0139775 0.00147449 0)
(0.0131773 0.00139041 0)
(0.0124197 0.00131078 0)
(0.0117024 0.00123537 0)
(0.0110236 0.00116399 0)
(0.0103814 0.00109644 0)
(0.00977401 0.00103253 0)
(0.00919963 0.000972088 0)
(0.00865665 0.000914932 0)
(0.0081435 0.000860904 0)
(0.00765867 0.000809845 0)
(0.00720072 0.000761605 0)
(0.0067683 0.000716042 0)
(0.00636008 0.000673019 0)
(0.00597482 0.000632406 0)
(0.00561132 0.000594078 0)
(0.00526847 0.000557917 0)
(0.00494517 0.00052381 0)
(0.00464039 0.00049165 0)
(0.00435316 0.000461333 0)
(0.00408255 0.000432763 0)
(0.00382765 0.000405846 0)
(0.00358764 0.000380493 0)
(0.0033617 0.000356622 0)
(0.00314908 0.000334151 0)
(0.00294903 0.000313004 0)
(0.00276089 0.00029311 0)
(0.00258398 0.0002744 0)
(0.0024177 0.000256808 0)
(0.00226144 0.000240273 0)
(0.00211464 0.000224735 0)
(0.00197678 0.000210139 0)
(0.00184735 0.000196432 0)
(0.00172588 0.000183563 0)
(0.0016119 0.000171486 0)
(0.00150499 0.000160154 0)
(0.00140474 0.000149526 0)
(0.00131076 0.00013956 0)
(0.0012227 0.000130218 0)
(0.0011402 0.000121465 0)
(0.00106294 0.000113264 0)
(0.000990607 0.000105585 0)
(0.000922914 9.83961e-05 0)
(0.00085958 9.16682e-05 0)
(0.000800346 8.5374e-05 0)
(0.000744964 7.94874e-05 0)
(0.000693202 7.39838e-05 0)
(0.000644839 6.88402e-05 0)
(0.000599667 6.40346e-05 0)
(0.000557492 5.95462e-05 0)
(0.000518127 5.53558e-05 0)
(0.000481399 5.14448e-05 0)
(0.000447142 4.77959e-05 0)
(0.000415203 4.43927e-05 0)
(0.000385435 4.12199e-05 0)
(0.000357701 3.82629e-05 0)
(0.000331872 3.55081e-05 0)
(0.000307825 3.29426e-05 0)
(0.000285446 3.05542e-05 0)
(0.000264628 2.83317e-05 0)
(0.000245268 2.62642e-05 0)
(0.000227272 2.43417e-05 0)
(0.000210551 2.25547e-05 0)
(0.000195019 2.08943e-05 0)
(0.000180599 1.93522e-05 0)
(0.000167216 1.79206e-05 0)
(0.000154801 1.65919e-05 0)
(0.000143288 1.53594e-05 0)
(0.000132616 1.42166e-05 0)
(0.000122729 1.31573e-05 0)
(0.000113571 1.21759e-05 0)
(0.000105094 1.1267e-05 0)
(9.72495e-05 1.04257e-05 0)
(8.99937e-05 9.64722e-06 0)
(8.32856e-05 8.92723e-06 0)
(7.70864e-05 8.26162e-06 0)
(7.13602e-05 7.64655e-06 0)
(6.60732e-05 7.07845e-06 0)
(6.1194e-05 6.55396e-06 0)
(5.66932e-05 6.06996e-06 0)
(5.25433e-05 5.62352e-06 0)
(4.87187e-05 5.21193e-06 0)
(4.51956e-05 4.83262e-06 0)
(4.19516e-05 4.48324e-06 0)
(3.8966e-05 4.16156e-06 0)
(3.62194e-05 3.86553e-06 0)
(3.36938e-05 3.59322e-06 0)
(3.13725e-05 3.34285e-06 0)
(2.92398e-05 3.11274e-06 0)
(2.72812e-05 2.90134e-06 0)
(2.5483e-05 2.70722e-06 0)
(2.38329e-05 2.52902e-06 0)
(2.23189e-05 2.36549e-06 0)
(2.09302e-05 2.21547e-06 0)
(1.96567e-05 2.07788e-06 0)
(1.8489e-05 1.95172e-06 0)
(1.74181e-05 1.83603e-06 0)
(1.64362e-05 1.72997e-06 0)
(1.5535e-05 1.63267e-06 0)
(1.47086e-05 1.54347e-06 0)
(1.39483e-05 1.46152e-06 0)
(1.32511e-05 1.38638e-06 0)
(1.26062e-05 1.31709e-06 0)
(1.20158e-05 1.25359e-06 0)
(1.14631e-05 1.19455e-06 0)
(1.09604e-05 1.14063e-06 0)
(1.04776e-05 1.08956e-06 0)
(1.00482e-05 1.04361e-06 0)
(9.61352e-06 9.98361e-07 0)
(9.24529e-06 9.58895e-07 0)
(8.83891e-06 9.17669e-07 0)
(8.52003e-06 8.83171e-07 0)
(8.12532e-06 8.44495e-07 0)
(7.84367e-06 8.13302e-07 0)
(7.44963e-06 7.76394e-07 0)
(7.19012e-06 7.46492e-07 0)
(6.79497e-06 7.10648e-07 0)
(6.55109e-06 6.81865e-07 0)
(6.15006e-06 6.45771e-07 0)
(5.92467e-06 6.17618e-07 0)
(5.5372e-06 5.83063e-07 0)
(5.33172e-06 5.54278e-07 0)
(5.01098e-06 5.2624e-07 0)
(4.83132e-06 4.96729e-07 0)
(4.64955e-06 4.81562e-07 0)
(4.51598e-06 4.56429e-07 0)
(4.48349e-06 4.54846e-07 0)
(4.41957e-06 4.34751e-07 0)
(4.57876e-06 4.51406e-07 0)
(4.59762e-06 4.44347e-07 0)
(4.84958e-06 4.70885e-07 0)
(4.92894e-06 4.74014e-07 0)
(5.19858e-06 5.02935e-07 0)
(5.31375e-06 5.12092e-07 0)
(5.56199e-06 5.39239e-07 0)
(5.69284e-06 5.51404e-07 0)
(5.90181e-06 5.74669e-07 0)
(6.03567e-06 5.8785e-07 0)
(6.20123e-06 6.06549e-07 0)
(6.33345e-06 6.19819e-07 0)
(6.45811e-06 6.33965e-07 0)
(6.59258e-06 6.47431e-07 0)
(6.68085e-06 6.56859e-07 0)
(6.83864e-06 6.72408e-07 0)
(6.8954e-06 6.72462e-07 0)
(7.20838e-06 7.02042e-07 0)
(7.27125e-06 4.73821e-07 0)
(1.21332e-05 9.60005e-07 0)
(0.0346089 0.00367631 0)
(0.0327671 0.00348168 0)
(0.031015 0.00329646 0)
(0.0293486 0.00312025 0)
(0.0277643 0.00295266 0)
(0.0262586 0.00279332 0)
(0.0248278 0.00264188 0)
(0.0234687 0.00249797 0)
(0.0221782 0.00236128 0)
(0.020953 0.00223147 0)
(0.0197902 0.00210824 0)
(0.018687 0.00199128 0)
(0.0176407 0.00188031 0)
(0.0166484 0.00177506 0)
(0.0157079 0.00167525 0)
(0.0148165 0.00158063 0)
(0.0139719 0.00149096 0)
(0.013172 0.001406 0)
(0.0124146 0.00132553 0)
(0.0116976 0.00124933 0)
(0.011019 0.00117719 0)
(0.010377 0.00110893 0)
(0.00976975 0.00104433 0)
(0.00919555 0.000983239 0)
(0.00865274 0.000925468 0)
(0.00813975 0.000870853 0)
(0.00765507 0.000819238 0)
(0.00719727 0.000770471 0)
(0.00676498 0.000724407 0)
(0.00635689 0.000680909 0)
(0.00597175 0.000639845 0)
(0.00560838 0.00060109 0)
(0.00526563 0.000564524 0)
(0.00494244 0.000530034 0)
(0.00463776 0.00049751 0)
(0.00435062 0.000466849 0)
(0.00408009 0.000437952 0)
(0.00382528 0.000410727 0)
(0.00358535 0.000385083 0)
(0.00335948 0.000360935 0)
(0.00314693 0.000338203 0)
(0.00294695 0.00031681 0)
(0.00275887 0.000296683 0)
(0.00258202 0.000277753 0)
(0.00241579 0.000259953 0)
(0.00225958 0.000243221 0)
(0.00211284 0.000227498 0)
(0.00197503 0.000212727 0)
(0.00184564 0.000198855 0)
(0.0017242 0.000185831 0)
(0.00161026 0.000173606 0)
(0.00150339 0.000162137 0)
(0.00140317 0.000151378 0)
(0.00130923 0.000141289 0)
(0.0012212 0.000131832 0)
(0.00113873 0.000122969 0)
(0.0010615 0.000114666 0)
(0.00098919 0.000106891 0)
(0.00092152 9.96111e-05 0)
(0.000858208 9.2798e-05 0)
(0.000798995 8.64236e-05 0)
(0.000743633 8.04617e-05 0)
(0.000691889 7.48874e-05 0)
(0.000643544 6.96774e-05 0)
(0.000598389 6.48094e-05 0)
(0.000556228 6.02626e-05 0)
(0.000516878 5.60173e-05 0)
(0.000480163 5.20548e-05 0)
(0.000445919 4.83576e-05 0)
(0.000413992 4.49092e-05 0)
(0.000384235 4.16941e-05 0)
(0.000356511 3.86974e-05 0)
(0.000330691 3.59054e-05 0)
(0.000306653 3.33051e-05 0)
(0.000284283 3.08843e-05 0)
(0.000263472 2.86313e-05 0)
(0.00024412 2.65354e-05 0)
(0.000226131 2.45863e-05 0)
(0.000209416 2.27745e-05 0)
(0.000193891 2.10909e-05 0)
(0.000179476 1.95272e-05 0)
(0.000166098 1.80753e-05 0)
(0.000153688 1.67278e-05 0)
(0.000142179 1.54778e-05 0)
(0.000131512 1.43185e-05 0)
(0.000121628 1.3244e-05 0)
(0.000112475 1.22484e-05 0)
(0.000104001 1.13263e-05 0)
(9.61592e-05 1.04727e-05 0)
(8.89064e-05 9.68278e-06 0)
(8.22009e-05 8.95215e-06 0)
(7.60043e-05 8.27665e-06 0)
(7.02804e-05 7.65239e-06 0)
(6.49956e-05 7.07576e-06 0)
(6.01184e-05 6.54336e-06 0)
(5.56195e-05 6.05201e-06 0)
(5.14713e-05 5.59876e-06 0)
(4.76483e-05 5.18085e-06 0)
(4.41267e-05 4.7957e-06 0)
(4.0884e-05 4.44091e-06 0)
(3.78997e-05 4.11422e-06 0)
(3.51543e-05 3.81356e-06 0)
(3.26298e-05 3.53697e-06 0)
(3.03095e-05 3.28264e-06 0)
(2.81777e-05 3.04888e-06 0)
(2.62199e-05 2.83411e-06 0)
(2.44226e-05 2.63688e-06 0)
(2.27731e-05 2.45582e-06 0)
(2.12598e-05 2.28966e-06 0)
(1.98718e-05 2.13722e-06 0)
(1.85988e-05 1.99741e-06 0)
(1.74316e-05 1.8692e-06 0)
(1.63612e-05 1.75165e-06 0)
(1.53797e-05 1.64387e-06 0)
(1.44789e-05 1.54502e-06 0)
(1.36529e-05 1.4544e-06 0)
(1.28929e-05 1.37116e-06 0)
(1.2196e-05 1.29484e-06 0)
(1.15514e-05 1.2245e-06 0)
(1.09612e-05 1.16003e-06 0)
(1.04088e-05 1.10017e-06 0)
(9.90629e-06 1.04546e-06 0)
(9.4237e-06 9.93773e-07 0)
(8.99443e-06 9.4718e-07 0)
(8.55989e-06 9.01534e-07 0)
(8.19177e-06 8.61513e-07 0)
(7.78551e-06 8.20136e-07 0)
(7.46672e-06 7.85104e-07 0)
(7.07209e-06 7.46561e-07 0)
(6.79051e-06 7.14765e-07 0)
(6.39652e-06 6.78338e-07 0)
(6.13708e-06 6.47657e-07 0)
(5.74196e-06 6.12523e-07 0)
(5.49813e-06 5.8289e-07 0)
(5.09714e-06 5.4756e-07 0)
(4.87183e-06 5.18299e-07 0)
(4.48439e-06 4.84523e-07 0)
(4.27907e-06 4.54095e-07 0)
(3.9584e-06 4.26764e-07 0)
(3.77898e-06 3.94868e-07 0)
(3.59738e-06 3.80222e-07 0)
(3.46404e-06 3.52596e-07 0)
(3.43177e-06 3.51284e-07 0)
(3.36819e-06 3.28301e-07 0)
(3.5276e-06 3.45008e-07 0)
(3.54663e-06 3.36162e-07 0)
(3.79874e-06 3.62866e-07 0)
(3.87813e-06 3.65096e-07 0)
(4.14782e-06 3.94309e-07 0)
(4.26294e-06 4.03078e-07 0)
(4.51119e-06 4.30626e-07 0)
(4.64195e-06 4.42669e-07 0)
(4.85089e-06 4.6638e-07 0)
(4.98467e-06 4.79565e-07 0)
(5.15018e-06 4.98675e-07 0)
(5.28232e-06 5.12e-07 0)
(5.40694e-06 5.26458e-07 0)
(5.54135e-06 5.39967e-07 0)
(5.62962e-06 5.49482e-07 0)
(5.78734e-06 5.6501e-07 0)
(5.84432e-06 5.63842e-07 0)
(6.15561e-06 5.92766e-07 0)
(6.2215e-06 3.20471e-07 0)
(1.05493e-05 7.5328e-07 0)
(0.0345985 0.00371438 0)
(0.0327571 0.00351789 0)
(0.0310054 0.0033309 0)
(0.0293395 0.00315299 0)
(0.0277556 0.00298378 0)
(0.0262502 0.0028229 0)
(0.0248198 0.00266997 0)
(0.0234611 0.00252465 0)
(0.0221709 0.0023866 0)
(0.020946 0.0022555 0)
(0.0197836 0.00213104 0)
(0.0186807 0.0020129 0)
(0.0176346 0.00190081 0)
(0.0166426 0.00179449 0)
(0.0157023 0.00169366 0)
(0.0148111 0.00159807 0)
(0.0139668 0.00150748 0)
(0.0131671 0.00142164 0)
(0.0124099 0.00134033 0)
(0.0116931 0.00126333 0)
(0.0110147 0.00119044 0)
(0.0103729 0.00112145 0)
(0.00976578 0.00105617 0)
(0.00919173 0.000994423 0)
(0.00864907 0.000936033 0)
(0.00813622 0.00088083 0)
(0.00765168 0.000828657 0)
(0.00719401 0.00077936 0)
(0.00676184 0.000732793 0)
(0.00635386 0.000688818 0)
(0.00596883 0.000647302 0)
(0.00560556 0.000608119 0)
(0.00526291 0.000571147 0)
(0.00493981 0.000536271 0)
(0.00463522 0.000503383 0)
(0.00434817 0.000472376 0)
(0.00407771 0.000443153 0)
(0.00382298 0.000415618 0)
(0.00358311 0.000389681 0)
(0.00335731 0.000365257 0)
(0.00314482 0.000342263 0)
(0.0029449 0.000320623 0)
(0.00275688 0.000300262 0)
(0.00258008 0.00028111 0)
(0.0024139 0.000263102 0)
(0.00225774 0.000246173 0)
(0.00211104 0.000230263 0)
(0.00197327 0.000215317 0)
(0.00184392 0.000201279 0)
(0.00172252 0.000188099 0)
(0.00160862 0.000175727 0)
(0.00150177 0.000164118 0)
(0.00140159 0.000153229 0)
(0.00130768 0.000143017 0)
(0.00121967 0.000133443 0)
(0.00113723 0.000124472 0)
(0.00106002 0.000116066 0)
(0.000987734 0.000108194 0)
(0.000920085 0.000100823 0)
(0.000856794 9.39243e-05 0)
(0.0007976 8.74695e-05 0)
(0.000742256 8.14321e-05 0)
(0.000690529 7.57868e-05 0)
(0.000642199 7.05101e-05 0)
(0.000597058 6.55796e-05 0)
(0.000554912 6.09741e-05 0)
(0.000515574 5.66736e-05 0)
(0.000478871 5.26595e-05 0)
(0.000444639 4.89139e-05 0)
(0.000412722 4.54201e-05 0)
(0.000382975 4.21624e-05 0)
(0.000355261 3.9126e-05 0)
(0.00032945 3.62967e-05 0)
(0.00030542 3.36615e-05 0)
(0.000283057 3.1208e-05 0)
(0.000262254 2.89245e-05 0)
(0.000242908 2.68001e-05 0)
(0.000224925 2.48243e-05 0)
(0.000208216 2.29876e-05 0)
(0.000192696 2.12808e-05 0)
(0.000178287 1.96953e-05 0)
(0.000164914 1.82232e-05 0)
(0.000152508 1.68568e-05 0)
(0.000141003 1.55891e-05 0)
(0.00013034 1.44134e-05 0)
(0.00012046 1.33236e-05 0)
(0.000111309 1.23137e-05 0)
(0.000102838 1.13784e-05 0)
(9.49996e-05 1.05124e-05 0)
(8.77495e-05 9.71099e-06 0)