/*--------------------------------*- C++ -*----------------------------------*\
| =========                 |                                                 |
| \\      /  F ield         | OpenFOAM: The Open Source CFD Toolbox           |
|  \\    /   O peration     | Version:  v1912                                 |
|   \\  /    A nd           | Website:  www.openfoam.com                      |
|    \\/     M anipulation  |                                                 |
\*---------------------------------------------------------------------------*/
FoamFile
{
    version     2.0;
    format      ascii;
    class       volScalarField;
    location    "80";
    object      omega;
}
// * * * * * * * * * * * * * * * * * * * * * * * * * * * * * * * * * * * * * //

dimensions      [0 0 -1 0 0 0 0];


internalField   nonuniform List<scalar> 
14268
(
44.5916
44.5916
44.5916
44.5916
44.5916
44.5916
44.5916
44.5916
44.5916
44.5916
44.5916
44.5916
44.5916
44.5916
44.5916
44.5916
44.5916
44.5916
44.5916
44.5916
44.5916
44.5916
44.5916
44.5916
44.5916
44.5916
44.5916
44.5916
44.5916
44.5916
44.5916
44.5916
44.5916
44.5916
44.5916
44.5916
44.5916
44.5916
44.5916
44.5916
44.5916
44.5916
44.5916
44.5916
44.5916
44.5916
44.5916
44.5916
44.5916
44.5916
44.5916
44.5916
44.5916
44.5916
44.5916
44.5916
44.5916
44.5916
44.5916
44.5916
44.5916
44.5916
44.5916
44.5916
44.5916
44.5916
44.5916
44.5916
44.5916
44.5916
44.5916
44.5916
44.5916
44.5916
44.5916
44.5916
44.5916
44.5916
44.5916
44.5916
44.5916
44.5916
44.5916
44.5916
44.5916
44.5916
44.5916
44.5916
44.5916
44.5916
44.5916
44.5916
44.5916
44.5916
44.5916
44.5916
44.5916
44.5916
44.5916
44.5916
44.5916
44.5916
44.5916
44.5916
44.5916
44.5916
44.5916
44.5916
44.5916
44.5916
44.5916
44.5916
44.5916
44.5916
44.5916
44.5916
44.5916
44.5916
44.5916
44.5916
44.5916
44.5916
44.5916
44.5916
44.5916
44.5916
44.5916
44.5916
44.5916
44.5916
44.5916
44.5916
44.5916
44.5916
44.5916
44.5916
44.5916
44.5916
44.5916
44.5916
44.5916
44.5916
44.5916
44.5916
44.5916
44.5916
44.5916
44.5916
44.5916
44.5916
44.5916
44.5916
44.5916
44.5916
44.5916
44.5916
44.5916
44.5916
44.5916
44.5916
44.5916
44.5916
44.5916
44.5916
7.90503
7.90377
7.90257
7.90142
7.90033
7.89929
7.89829
7.89735
7.89645
7.89559
7.89478
7.894
7.89326
7.89256
7.89189
7.89126
7.89065
7.89008
7.88953
7.88901
7.88852
7.88805
7.88761
7.88719
7.88679
7.88641
7.88605
7.88571
7.88539
7.88508
7.88479
7.88452
7.88425
7.88401
7.88377
7.88355
7.88334
7.88315
7.88296
7.88278
7.88262
7.88246
7.88231
7.88217
7.88204
7.88191
7.88179
7.88168
7.88157
7.88148
7.88138
7.88129
7.88121
7.88113
7.88106
7.88099
7.88092
7.88086
7.88081
7.88075
7.8807
7.88065
7.88061
7.88056
7.88052
7.88049
7.88045
7.88042
7.88039
7.88036
7.88033
7.88031
7.88028
7.88026
7.88024
7.88022
7.8802
7.88019
7.88017
7.88016
7.88014
7.88013
7.88012
7.88011
7.8801
7.88009
7.88008
7.88007
7.88006
7.88005
7.88005
7.88004
7.88004
7.88003
7.88003
7.88002
7.88002
7.88001
7.88001
7.88001
7.88
7.88
7.88
7.87999
7.87999
7.87999
7.87999
7.87999
7.87999
7.87998
7.87998
7.87998
7.87998
7.87998
7.87998
7.87998
7.87998
7.87998
7.87998
7.87998
7.87998
7.87998
7.87998
7.87998
7.87998
7.87998
7.87998
7.87998
7.87998
7.87999
7.87998
7.87999
7.87998
7.87998
7.87997
7.87998
7.87997
7.87997
7.87996
7.87996
7.87996
7.87996
7.87996
7.87996
7.87996
7.87996
7.87996
7.87996
7.87996
7.87996
7.87996
7.87996
7.87996
7.87996
7.87996
7.87996
7.87996
7.87996
7.87996
7.87996
7.87996
7.87996
7.87991
7.87535
2.73178
2.73103
2.73031
2.72962
2.72897
2.72835
2.72776
2.72719
2.72665
2.72614
2.72566
2.72519
2.72475
2.72433
2.72393
2.72356
2.7232
2.72285
2.72253
2.72222
2.72193
2.72165
2.72138
2.72113
2.72089
2.72067
2.72045
2.72025
2.72006
2.71988
2.7197
2.71954
2.71939
2.71924
2.7191
2.71897
2.71884
2.71873
2.71862
2.71851
2.71841
2.71832
2.71823
2.71814
2.71807
2.71799
2.71792
2.71785
2.71779
2.71773
2.71768
2.71762
2.71757
2.71753
2.71748
2.71744
2.7174
2.71737
2.71733
2.7173
2.71727
2.71724
2.71722
2.71719
2.71717
2.71714
2.71712
2.7171
2.71709
2.71707
2.71705
2.71704
2.71702
2.71701
2.717
2.71699
2.71698
2.71697
2.71696
2.71695
2.71694
2.71693
2.71693
2.71692
2.71691
2.71691
2.7169
2.7169
2.71689
2.71689
2.71688
2.71688
2.71688
2.71687
2.71687
2.71687
2.71686
2.71686
2.71686
2.71686
2.71686
2.71685
2.71685
2.71685
2.71685
2.71685
2.71685
2.71685
2.71685
2.71685
2.71684
2.71684
2.71684
2.71684
2.71684
2.71684
2.71684
2.71684
2.71684
2.71684
2.71684
2.71684
2.71684
2.71684
2.71684
2.71685
2.71684
2.71685
2.71685
2.71685
2.71684
2.71685
2.71684
2.71685
2.71684
2.71684
2.71684
2.71684
2.71683
2.71683
2.71683
2.71683
2.71683
2.71683
2.71683
2.71683
2.71683
2.71683
2.71683
2.71683
2.71683
2.71683
2.71683
2.71683
2.71683
2.71683
2.71683
2.71683
2.71683
2.71683
2.71683
2.71683
2.71677
2.71401
1.31485
1.31429
1.31376
1.31326
1.31278
1.31232
1.31189
1.31147
1.31108
1.3107
1.31034
1.31
1.30968
1.30937
1.30908
1.3088
1.30854
1.30828
1.30805
1.30782
1.3076
1.3074
1.30721
1.30702
1.30685
1.30668
1.30652
1.30638
1.30623
1.3061
1.30597
1.30585
1.30574
1.30563
1.30553
1.30543
1.30534
1.30526
1.30518
1.3051
1.30503
1.30496
1.30489
1.30483
1.30477
1.30472
1.30467
1.30462
1.30457
1.30453
1.30449
1.30445
1.30441
1.30438
1.30435
1.30432
1.30429
1.30426
1.30424
1.30421
1.30419
1.30417
1.30415
1.30413
1.30411
1.3041
1.30408
1.30407
1.30405
1.30404
1.30403
1.30402
1.30401
1.304
1.30399
1.30398
1.30397
1.30397
1.30396
1.30395
1.30395
1.30394
1.30394
1.30393
1.30393
1.30392
1.30392
1.30392
1.30391
1.30391
1.30391
1.3039
1.3039
1.3039
1.3039
1.30389
1.30389
1.30389
1.30389
1.30389
1.30389
1.30389
1.30388
1.30388
1.30388
1.30388
1.30388
1.30388
1.30388
1.30388
1.30388
1.30388
1.30388
1.30388
1.30388
1.30388
1.30388
1.30388
1.30388
1.30388
1.30388
1.30388
1.30388
1.30388
1.30388
1.30388
1.30388
1.30388
1.30388
1.30388
1.30388
1.30388
1.30388
1.30388
1.30387
1.30388
1.30387
1.30387
1.30387
1.30387
1.30386
1.30387
1.30386
1.30386
1.30386
1.30386
1.30386
1.30387
1.30386
1.30387
1.30387
1.30387
1.30387
1.30387
1.30387
1.30387
1.30387
1.30387
1.30387
1.30387
1.30387
1.30387
1.3038
1.30197
0.762789
0.762363
0.761956
0.761569
0.761201
0.760849
0.760515
0.760197
0.759894
0.759605
0.759331
0.75907
0.758822
0.758586
0.758362
0.758149
0.757946
0.757753
0.757571
0.757397
0.757232
0.757076
0.756927
0.756786
0.756652
0.756526
0.756405
0.756291
0.756183
0.756081
0.755984
0.755892
0.755805
0.755723
0.755645
0.755572
0.755502
0.755436
0.755373
0.755315
0.755259
0.755206
0.755157
0.75511
0.755065
0.755023
0.754984
0.754947
0.754912
0.754879
0.754847
0.754818
0.75479
0.754764
0.75474
0.754717
0.754695
0.754674
0.754655
0.754637
0.75462
0.754604
0.754589
0.754575
0.754562
0.75455
0.754538
0.754527
0.754517
0.754507
0.754498
0.75449
0.754482
0.754475
0.754468
0.754461
0.754455
0.75445
0.754445
0.75444
0.754435
0.754431
0.754427
0.754423
0.75442
0.754416
0.754413
0.754411
0.754408
0.754406
0.754403
0.754401
0.754399
0.754398
0.754396
0.754394
0.754393
0.754392
0.75439
0.754389
0.754388
0.754387
0.754387
0.754386
0.754385
0.754384
0.754384
0.754383
0.754383
0.754382
0.754382
0.754382
0.754382
0.754381
0.754381
0.754381
0.754381
0.754381
0.754381
0.754382
0.754381
0.754382
0.754382
0.754383
0.754382
0.754383
0.754383
0.754384
0.754383
0.754385
0.754383
0.754385
0.754382
0.754384
0.75438
0.754381
0.754377
0.754377
0.754373
0.754373
0.754371
0.754371
0.75437
0.75437
0.75437
0.75437
0.75437
0.754371
0.754371
0.754371
0.754372
0.754372
0.754372
0.754373
0.754373
0.754373
0.754373
0.754373
0.754373
0.754373
0.754372
0.754371
0.754308
0.753001
0.499566
0.499238
0.498925
0.498628
0.498344
0.498074
0.497817
0.497573
0.49734
0.497118
0.496908
0.496707
0.496517
0.496336
0.496164
0.496
0.495845
0.495697
0.495557
0.495424
0.495297
0.495177
0.495063
0.494955
0.494853
0.494756
0.494664
0.494576
0.494494
0.494415
0.494341
0.494271
0.494204
0.494141
0.494081
0.494025
0.493971
0.493921
0.493873
0.493828
0.493785
0.493745
0.493707
0.493671
0.493637
0.493605
0.493575
0.493546
0.493519
0.493494
0.49347
0.493448
0.493427
0.493407
0.493388
0.49337
0.493353
0.493338
0.493323
0.493309
0.493296
0.493284
0.493273
0.493262
0.493252
0.493242
0.493233
0.493225
0.493217
0.49321
0.493203
0.493197
0.493191
0.493185
0.49318
0.493175
0.49317
0.493166
0.493162
0.493158
0.493155
0.493151
0.493148
0.493145
0.493143
0.49314
0.493138
0.493136
0.493134
0.493132
0.49313
0.493129
0.493127
0.493126
0.493125
0.493123
0.493122
0.493121
0.49312
0.49312
0.493119
0.493118
0.493117
0.493117
0.493116
0.493116
0.493115
0.493115
0.493115
0.493114
0.493114
0.493114
0.493114
0.493114
0.493113
0.493114
0.493113
0.493114
0.493113
0.493114
0.493113
0.493114
0.493114
0.493115
0.493114
0.493115
0.493115
0.493116
0.493115
0.493117
0.493115
0.493117
0.493114
0.493116
0.493112
0.493113
0.49311
0.493111
0.493107
0.493107
0.493105
0.493105
0.493104
0.493104
0.493104
0.493104
0.493104
0.493105
0.493105
0.493105
0.493105
0.493106
0.493106
0.493106
0.493107
0.493107
0.493107
0.493107
0.493107
0.493107
0.493105
0.493105
0.493047
0.492078
0.358295
0.358046
0.357809
0.357583
0.357368
0.357164
0.356969
0.356784
0.356608
0.356441
0.356281
0.35613
0.355986
0.355849
0.355719
0.355595
0.355478
0.355367
0.355261
0.35516
0.355065
0.354974
0.354888
0.354807
0.354729
0.354656
0.354587
0.354521
0.354458
0.354399
0.354343
0.35429
0.35424
0.354192
0.354147
0.354104
0.354064
0.354026
0.35399
0.353956
0.353924
0.353893
0.353865
0.353838
0.353812
0.353788
0.353765
0.353744
0.353723
0.353704
0.353686
0.353669
0.353653
0.353638
0.353624
0.353611
0.353598
0.353586
0.353575
0.353565
0.353555
0.353546
0.353537
0.353529
0.353521
0.353514
0.353508
0.353501
0.353495
0.35349
0.353485
0.35348
0.353475
0.353471
0.353467
0.353463
0.35346
0.353457
0.353454
0.353451
0.353448
0.353446
0.353443
0.353441
0.353439
0.353437
0.353436
0.353434
0.353433
0.353431
0.35343
0.353429
0.353428
0.353427
0.353426
0.353425
0.353424
0.353423
0.353422
0.353422
0.353421
0.353421
0.35342
0.35342
0.353419
0.353419
0.353419
0.353418
0.353418
0.353418
0.353418
0.353418
0.353417
0.353417
0.353417
0.353417
0.353417
0.353417
0.353417
0.353418
0.353417
0.353418
0.353418
0.353418
0.353418
0.353419
0.353419
0.35342
0.353419
0.35342
0.353419
0.35342
0.353418
0.353419
0.353416
0.353417
0.353415
0.353415
0.353412
0.353412
0.35341
0.35341
0.353409
0.35341
0.353409
0.35341
0.35341
0.35341
0.35341
0.353411
0.353411
0.353411
0.353411
0.353412
0.353412
0.353412
0.353412
0.353412
0.353412
0.353412
0.353411
0.35341
0.35336
0.352639
0.277321
0.277137
0.276961
0.276795
0.276636
0.276485
0.276341
0.276205
0.276075
0.275951
0.275833
0.275722
0.275616
0.275515
0.275419
0.275328
0.275241
0.275159
0.275081
0.275007
0.274937
0.27487
0.274807
0.274747
0.27469
0.274636
0.274585
0.274536
0.27449
0.274447
0.274405
0.274366
0.274329
0.274294
0.274261
0.27423
0.2742
0.274172
0.274146
0.274121
0.274097
0.274075
0.274054
0.274034
0.274015
0.273997
0.27398
0.273965
0.27395
0.273936
0.273922
0.27391
0.273898
0.273887
0.273877
0.273867
0.273858
0.273849
0.273841
0.273833
0.273826
0.273819
0.273813
0.273807
0.273801
0.273796
0.273791
0.273786
0.273782
0.273778
0.273774
0.273771
0.273767
0.273764
0.273761
0.273758
0.273756
0.273754
0.273751
0.273749
0.273747
0.273745
0.273744
0.273742
0.273741
0.273739
0.273738
0.273737
0.273736
0.273735
0.273734
0.273733
0.273732
0.273731
0.273731
0.27373
0.273729
0.273729
0.273728
0.273728
0.273727
0.273727
0.273727
0.273726
0.273726
0.273726
0.273726
0.273725
0.273725
0.273725
0.273725
0.273725
0.273725
0.273725
0.273725
0.273725
0.273724
0.273725
0.273725
0.273725
0.273725
0.273725
0.273725
0.273726
0.273725
0.273726
0.273726
0.273726
0.273726
0.273727
0.273726
0.273727
0.273725
0.273726
0.273724
0.273725
0.273723
0.273723
0.27372
0.27372
0.273719
0.273719
0.273718
0.273719
0.273718
0.273719
0.273719
0.273719
0.273719
0.273719
0.27372
0.27372
0.27372
0.27372
0.27372
0.27372
0.273721
0.273721
0.273721
0.273721
0.273719
0.273719
0.273679
0.273148
0.229456
0.229324
0.229199
0.229079
0.228965
0.228857
0.228754
0.228657
0.228564
0.228475
0.228391
0.228311
0.228236
0.228163
0.228095
0.22803
0.227968
0.227909
0.227854
0.227801
0.227751
0.227703
0.227658
0.227615
0.227574
0.227536
0.227499
0.227465
0.227432
0.227401
0.227371
0.227344
0.227317
0.227292
0.227269
0.227246
0.227225
0.227205
0.227186
0.227168
0.227152
0.227136
0.227121
0.227106
0.227093
0.22708
0.227068
0.227057
0.227046
0.227036
0.227027
0.227018
0.22701
0.227002
0.226994
0.226987
0.226981
0.226975
0.226969
0.226963
0.226958
0.226953
0.226949
0.226945
0.226941
0.226937
0.226933
0.22693
0.226927
0.226924
0.226921
0.226919
0.226916
0.226914
0.226912
0.22691
0.226908
0.226907
0.226905
0.226904
0.226902
0.226901
0.2269
0.226899
0.226897
0.226896
0.226896
0.226895
0.226894
0.226893
0.226893
0.226892
0.226891
0.226891
0.22689
0.22689
0.226889
0.226889
0.226889
0.226888
0.226888
0.226888
0.226887
0.226887
0.226887
0.226887
0.226887
0.226887
0.226886
0.226886
0.226886
0.226886
0.226886
0.226886
0.226886
0.226886
0.226886
0.226886
0.226886
0.226886
0.226886
0.226886
0.226886
0.226887
0.226887
0.226887
0.226887
0.226887
0.226887
0.226888
0.226887
0.226888
0.226887
0.226887
0.226886
0.226886
0.226884
0.226885
0.226883
0.226883
0.226882
0.226882
0.226881
0.226882
0.226881
0.226882
0.226882
0.226882
0.226882
0.226882
0.226882
0.226882
0.226883
0.226883
0.226883
0.226883
0.226883
0.226883
0.226883
0.226883
0.226882
0.226882
0.226851
0.226466
0.200949
0.200857
0.20077
0.200688
0.200609
0.200534
0.200463
0.200395
0.200331
0.20027
0.200212
0.200157
0.200104
0.200055
0.200007
0.199963
0.19992
0.199879
0.199841
0.199805
0.19977
0.199737
0.199706
0.199676
0.199648
0.199622
0.199597
0.199573
0.19955
0.199529
0.199509
0.199489
0.199471
0.199454
0.199438
0.199422
0.199408
0.199394
0.199381
0.199369
0.199357
0.199346
0.199336
0.199326
0.199317
0.199308
0.1993
0.199292
0.199285
0.199278
0.199271
0.199265
0.199259
0.199254
0.199249
0.199244
0.19924
0.199235
0.199231
0.199228
0.199224
0.199221
0.199218
0.199215
0.199212
0.199209
0.199207
0.199205
0.199203
0.199201
0.199199
0.199197
0.199195
0.199194
0.199192
0.199191
0.19919
0.199189
0.199187
0.199186
0.199185
0.199185
0.199184
0.199183
0.199182
0.199182
0.199181
0.19918
0.19918
0.199179
0.199179
0.199178
0.199178
0.199178
0.199177
0.199177
0.199177
0.199176
0.199176
0.199176
0.199176
0.199176
0.199175
0.199175
0.199175
0.199175
0.199175
0.199175
0.199175
0.199175
0.199174
0.199174
0.199174
0.199174
0.199174
0.199174
0.199174
0.199174
0.199174
0.199175
0.199174
0.199175
0.199175
0.199175
0.199175
0.199175
0.199175
0.199175
0.199175
0.199176
0.199175
0.199176
0.199175
0.199175
0.199174
0.199174
0.199173
0.199174
0.199172
0.199172
0.199171
0.199172
0.199171
0.199171
0.199171
0.199171
0.199171
0.199171
0.199171
0.199172
0.199172
0.199172
0.199172
0.199172
0.199172
0.199172
0.199172
0.199172
0.199172
0.199172
0.199172
0.199171
0.199149
0.198869
0.184099
0.184037
0.183979
0.183924
0.183871
0.183821
0.183774
0.183729
0.183686
0.183645
0.183607
0.18357
0.183535
0.183502
0.183471
0.183441
0.183413
0.183386
0.18336
0.183336
0.183313
0.183291
0.18327
0.183251
0.183232
0.183214
0.183198
0.183182
0.183167
0.183153
0.183139
0.183127
0.183114
0.183103
0.183092
0.183082
0.183072
0.183063
0.183055
0.183046
0.183039
0.183031
0.183025
0.183018
0.183012
0.183006
0.183001
0.182996
0.182991
0.182986
0.182982
0.182978
0.182974
0.18297
0.182967
0.182964
0.182961
0.182958
0.182955
0.182953
0.18295
0.182948
0.182946
0.182944
0.182942
0.182941
0.182939
0.182938
0.182936
0.182935
0.182934
0.182932
0.182931
0.18293
0.182929
0.182928
0.182928
0.182927
0.182926
0.182925
0.182925
0.182924
0.182924
0.182923
0.182923
0.182922
0.182922
0.182921
0.182921
0.182921
0.18292
0.18292
0.18292
0.18292
0.182919
0.182919
0.182919
0.182919
0.182919
0.182919
0.182918
0.182918
0.182918
0.182918
0.182918
0.182918
0.182918
0.182918
0.182918
0.182918
0.182918
0.182918
0.182917
0.182917
0.182917
0.182917
0.182917
0.182918
0.182917
0.182918
0.182918
0.182918
0.182918
0.182918
0.182918
0.182918
0.182918
0.182918
0.182918
0.182918
0.182918
0.182918
0.182918
0.182918
0.182917
0.182918
0.182917
0.182917
0.182916
0.182916
0.182915
0.182916
0.182915
0.182915
0.182915
0.182915
0.182915
0.182915
0.182915
0.182916
0.182916
0.182916
0.182916
0.182916
0.182916
0.182916
0.182916
0.182916
0.182916
0.182916
0.182916
0.182915
0.182901
0.182686
0.174312
0.174272
0.174235
0.174199
0.174165
0.174133
0.174103
0.174074
0.174046
0.17402
0.173995
0.173972
0.173949
0.173928
0.173908
0.173889
0.173871
0.173854
0.173837
0.173822
0.173807
0.173793
0.17378
0.173767
0.173755
0.173744
0.173733
0.173723
0.173714
0.173705
0.173696
0.173688
0.17368
0.173673
0.173666
0.173659
0.173653
0.173647
0.173642
0.173637
0.173632
0.173627
0.173623
0.173619
0.173615
0.173611
0.173607
0.173604
0.173601
0.173598
0.173595
0.173593
0.17359
0.173588
0.173586
0.173584
0.173582
0.17358
0.173578
0.173577
0.173575
0.173574
0.173573
0.173571
0.17357
0.173569
0.173568
0.173567
0.173566
0.173565
0.173565
0.173564
0.173563
0.173562
0.173562
0.173561
0.173561
0.17356
0.17356
0.173559
0.173559
0.173559
0.173558
0.173558
0.173558
0.173557
0.173557
0.173557
0.173557
0.173556
0.173556
0.173556
0.173556
0.173556
0.173555
0.173555
0.173555
0.173555
0.173555
0.173555
0.173555
0.173555
0.173555
0.173555
0.173555
0.173554
0.173554
0.173554
0.173554
0.173554
0.173554
0.173554
0.173554
0.173554
0.173554
0.173554
0.173554
0.173554
0.173554
0.173554
0.173554
0.173554
0.173554
0.173555
0.173554
0.173555
0.173555
0.173555
0.173555
0.173555
0.173555
0.173555
0.173554
0.173555
0.173554
0.173554
0.173554
0.173554
0.173553
0.173553
0.173553
0.173553
0.173553
0.173553
0.173553
0.173553
0.173553
0.173553
0.173553
0.173553
0.173553
0.173553
0.173553
0.173553
0.173553
0.173553
0.173553
0.173553
0.173553
0.173553
0.173553
0.173553
0.173543
0.173356
0.168769
0.168744
0.168721
0.168699
0.168678
0.168658
0.168639
0.168621
0.168604
0.168588
0.168572
0.168558
0.168544
0.168531
0.168518
0.168507
0.168495
0.168485
0.168475
0.168465
0.168456
0.168447
0.168439
0.168431
0.168424
0.168417
0.168411
0.168404
0.168398
0.168393
0.168387
0.168382
0.168378
0.168373
0.168369
0.168365
0.168361
0.168358
0.168354
0.168351
0.168348
0.168345
0.168342
0.16834
0.168337
0.168335
0.168333
0.168331
0.168329
0.168327
0.168325
0.168324
0.168322
0.168321
0.16832
0.168318
0.168317
0.168316
0.168315
0.168314
0.168313
0.168312
0.168311
0.168311
0.16831
0.168309
0.168309
0.168308
0.168307
0.168307
0.168306
0.168306
0.168306
0.168305
0.168305
0.168304
0.168304
0.168304
0.168303
0.168303
0.168303
0.168303
0.168303
0.168302
0.168302
0.168302
0.168302
0.168302
0.168302
0.168301
0.168301
0.168301
0.168301
0.168301
0.168301
0.168301
0.168301
0.168301
0.168301
0.1683
0.1683
0.1683
0.1683
0.1683
0.1683
0.1683
0.1683
0.1683
0.1683
0.1683
0.1683
0.1683
0.1683
0.1683
0.1683
0.1683
0.1683
0.1683
0.1683
0.1683
0.1683
0.1683
0.1683
0.1683
0.1683
0.1683
0.1683
0.1683
0.1683
0.1683
0.1683
0.1683
0.1683
0.1683
0.1683
0.1683
0.1683
0.1683
0.168299
0.1683
0.168299
0.168299
0.168299
0.168299
0.168299
0.168299
0.168299
0.168299
0.168299
0.168299
0.168299
0.168299
0.168299
0.168299
0.168299
0.168299
0.1683
0.1683
0.1683
0.1683
0.168299
0.168299
0.168293
0.168087
0.165739
0.165724
0.165709
0.165696
0.165683
0.165671
0.16566
0.165649
0.165639
0.165629
0.16562
0.165611
0.165603
0.165595
0.165587
0.16558
0.165573
0.165567
0.165561
0.165555
0.16555
0.165545
0.16554
0.165535
0.165531
0.165526
0.165522
0.165519
0.165515
0.165512
0.165509
0.165506
0.165503
0.1655
0.165497
0.165495
0.165493
0.165491
0.165489
0.165487
0.165485
0.165483
0.165481
0.16548
0.165478
0.165477
0.165476
0.165475
0.165473
0.165472
0.165471
0.16547
0.165469
0.165469
0.165468
0.165467
0.165466
0.165466
0.165465
0.165464
0.165464
0.165463
0.165463
0.165462
0.165462
0.165462
0.165461
0.165461
0.16546
0.16546
0.16546
0.16546
0.165459
0.165459
0.165459
0.165459
0.165458
0.165458
0.165458
0.165458
0.165458
0.165458
0.165458
0.165457
0.165457
0.165457
0.165457
0.165457
0.165457
0.165457
0.165457
0.165457
0.165457
0.165457
0.165457
0.165456
0.165456
0.165456
0.165456
0.165456
0.165456
0.165456
0.165456
0.165456
0.165456
0.165456
0.165456
0.165456
0.165456
0.165456
0.165456
0.165456
0.165456
0.165456
0.165456
0.165456
0.165456
0.165456
0.165456
0.165456
0.165456
0.165456
0.165456
0.165456
0.165456
0.165456
0.165456
0.165456
0.165456
0.165456
0.165456
0.165456
0.165456
0.165456
0.165456
0.165456
0.165456
0.165456
0.165456
0.165456
0.165456
0.165456
0.165455
0.165456
0.165455
0.165456
0.165456
0.165456
0.165456
0.165456
0.165456
0.165456
0.165456
0.165456
0.165456
0.165456
0.165456
0.165456
0.165456
0.165456
0.165456
0.165456
0.165451
0.165167
0.163405
0.163399
0.163392
0.163386
0.163381
0.163376
0.163371
0.163366
0.163362
0.163357
0.163353
0.16335
0.163346
0.163343
0.163339
0.163336
0.163334
0.163331
0.163328
0.163326
0.163324
0.163321
0.163319
0.163317
0.163315
0.163314
0.163312
0.16331
0.163309
0.163307
0.163306
0.163305
0.163303
0.163302
0.163301
0.1633
0.163299
0.163298
0.163297
0.163297
0.163296
0.163295
0.163294
0.163294
0.163293
0.163293
0.163292
0.163291
0.163291
0.16329
0.16329
0.16329
0.163289
0.163289
0.163289
0.163288
0.163288
0.163288
0.163287
0.163287
0.163287
0.163287
0.163286
0.163286
0.163286
0.163286
0.163286
0.163286
0.163285
0.163285
0.163285
0.163285
0.163285
0.163285
0.163285
0.163285
0.163285
0.163284
0.163284
0.163284
0.163284
0.163284
0.163284
0.163284
0.163284
0.163284
0.163284
0.163284
0.163284
0.163284
0.163284
0.163284
0.163284
0.163284
0.163284
0.163284
0.163284
0.163284
0.163284
0.163284
0.163284
0.163284
0.163284
0.163284
0.163284
0.163284
0.163284
0.163284
0.163284
0.163284
0.163284
0.163284
0.163284
0.163284
0.163284
0.163284
0.163284
0.163284
0.163284
0.163284
0.163284
0.163284
0.163284
0.163284
0.163284
0.163284
0.163284
0.163284
0.163284
0.163284
0.163284
0.163284
0.163284
0.163284
0.163283
0.163284
0.163283
0.163284
0.163283
0.163283
0.163283
0.163283
0.163283
0.163283
0.163283
0.163283
0.163283
0.163283
0.163283
0.163283
0.163283
0.163283
0.163283
0.163283
0.163283
0.163283
0.163283
0.163283
0.163283
0.163283
0.163283
0.163283
0.163279
0.162836
0.16253
0.162528
0.162525
0.162523
0.162522
0.16252
0.162518
0.162516
0.162515
0.162514
0.162512
0.162511
0.16251
0.162509
0.162508
0.162507
0.162506
0.162505
0.162504
0.162503
0.162503
0.162502
0.162501
0.162501
0.1625
0.162499
0.162499
0.162498
0.162498
0.162497
0.162497
0.162497
0.162496
0.162496
0.162495
0.162495
0.162495
0.162494
0.162494
0.162494
0.162494
0.162493
0.162493
0.162493
0.162493
0.162493
0.162492
0.162492
0.162492
0.162492
0.162492
0.162492
0.162492
0.162491
0.162491
0.162491
0.162491
0.162491
0.162491
0.162491
0.162491
0.162491
0.162491
0.162491
0.162491
0.16249
0.16249
0.16249
0.16249
0.16249
0.16249
0.16249
0.16249
0.16249
0.16249
0.16249
0.16249
0.16249
0.16249
0.16249
0.16249
0.16249
0.16249
0.16249
0.16249
0.16249
0.16249
0.16249
0.16249
0.16249
0.16249
0.16249
0.16249
0.16249
0.16249
0.16249
0.16249
0.16249
0.16249
0.16249
0.16249
0.16249
0.16249
0.16249
0.16249
0.16249
0.16249
0.16249
0.16249
0.16249
0.16249
0.16249
0.16249
0.16249
0.16249
0.16249
0.16249
0.16249
0.16249
0.16249
0.16249
0.16249
0.16249
0.16249
0.16249
0.16249
0.16249
0.16249
0.16249
0.16249
0.16249
0.16249
0.16249
0.16249
0.16249
0.16249
0.16249
0.16249
0.16249
0.16249
0.16249
0.16249
0.16249
0.16249
0.16249
0.16249
0.16249
0.16249
0.16249
0.16249
0.16249
0.16249
0.16249
0.16249
0.16249
0.16249
0.16249
0.16249
0.16249
0.16249
0.16249
0.16249
0.162487
0.164643
0.162304
0.162303
0.162302
0.162301
0.162301
0.1623
0.1623
0.162299
0.162298
0.162298
0.162298
0.162297
0.162297
0.162296
0.162296
0.162296
0.162296
0.162295
0.162295
0.162295
0.162295
0.162294
0.162294
0.162294
0.162294
0.162294
0.162293
0.162293
0.162293
0.162293
0.162293
0.162293
0.162293
0.162292
0.162292
0.162292
0.162292
0.162292
0.162292
0.162292
0.162292
0.162292
0.162292
0.162292
0.162292
0.162291
0.162291
0.162291
0.162291
0.162291
0.162291
0.162291
0.162291
0.162291
0.162291
0.162291
0.162291
0.162291
0.162291
0.162291
0.162291
0.162291
0.162291
0.162291
0.162291
0.162291
0.162291
0.162291
0.162291
0.162291
0.162291
0.162291
0.162291
0.162291
0.162291
0.162291
0.162291
0.162291
0.162291
0.162291
0.162291
0.162291
0.162291
0.162291
0.162291
0.162291
0.162291
0.162291
0.162291
0.162291
0.162291
0.162291
0.162291
0.162291
0.162291
0.162291
0.162291
0.162291
0.162291
0.162291
0.162291
0.162291
0.162291
0.162291
0.162291
0.162291
0.162291
0.162291
0.162291
0.162291
0.162291
0.162291
0.162291
0.162291
0.162291
0.162291
0.162291
0.162291
0.162291
0.162291
0.162291
0.162291
0.162291
0.162291
0.162291
0.162291
0.162291
0.162291
0.162291
0.162291
0.162291
0.162291
0.162291
0.162291
0.162291
0.162291
0.162291
0.162291
0.162291
0.162291
0.162291
0.162291
0.162291
0.162291
0.162291
0.162291
0.162291
0.162291
0.162291
0.162291
0.162291
0.162291
0.162291
0.162291
0.162291
0.162291
0.162291
0.162291
0.162291
0.162291
0.162291
0.162291
0.162292
0.166971
0.16225
0.162249
0.162249
0.162249
0.162248
0.162248
0.162248
0.162248
0.162247
0.162247
0.162247
0.162247
0.162247
0.162247
0.162247
0.162246
0.162246
0.162246
0.162246
0.162246
0.162246
0.162246
0.162246
0.162246
0.162246
0.162246
0.162246
0.162246
0.162246
0.162246
0.162245
0.162245
0.162245
0.162245
0.162245
0.162245
0.162245
0.162245
0.162245
0.162245
0.162245
0.162245
0.162245
0.162245
0.162245
0.162245
0.162245
0.162245
0.162245
0.162245
0.162245
0.162245
0.162245
0.162245
0.162245
0.162245
0.162245
0.162245
0.162245
0.162245
0.162245
0.162245
0.162245
0.162245
0.162245
0.162245
0.162245
0.162245
0.162245
0.162245
0.162245
0.162245
0.162245
0.162245
0.162245
0.162245
0.162245
0.162245
0.162245
0.162245
0.162245
0.162245
0.162245
0.162245
0.162245
0.162245
0.162245
0.162245
0.162245
0.162245
0.162245
0.162245
0.162245
0.162245
0.162245
0.162245
0.162245
0.162245
0.162245
0.162245
0.162245
0.162245
0.162245
0.162245
0.162245
0.162245
0.162245
0.162245
0.162245
0.162245
0.162245
0.162245
0.162245
0.162245
0.162245
0.162245
0.162245
0.162245
0.162245
0.162245
0.162245
0.162245
0.162245
0.162245
0.162245
0.162245
0.162245
0.162245
0.162245
0.162245
0.162245
0.162245
0.162245
0.162245
0.162245
0.162245
0.162245
0.162245
0.162245
0.162245
0.162245
0.162245
0.162245
0.162245
0.162245
0.162245
0.162245
0.162245
0.162245
0.162245
0.162245
0.162245
0.162245
0.162245
0.162245
0.162245
0.162245
0.162245
0.162245
0.162245
0.162245
0.162245
0.162249
0.167826
0.162238
0.162238
0.162237
0.162237
0.162237
0.162237
0.162237
0.162236
0.162236
0.162236
0.162236
0.162236
0.162236
0.162236
0.162236
0.162236
0.162236
0.162236
0.162236
0.162236
0.162236
0.162236
0.162236
0.162236
0.162236
0.162235
0.162235
0.162235
0.162235
0.162235
0.162235
0.162235
0.162235
0.162235
0.162235
0.162235
0.162235
0.162235
0.162235
0.162235
0.162235
0.162235
0.162235
0.162235
0.162235
0.162235
0.162235
0.162235
0.162235
0.162235
0.162235
0.162235
0.162235
0.162235
0.162235
0.162235
0.162235
0.162235
0.162235
0.162235
0.162235
0.162235
0.162235
0.162235
0.162235
0.162235
0.162235
0.162235
0.162235
0.162235
0.162235
0.162235
0.162235
0.162235
0.162235
0.162235
0.162235
0.162235
0.162235
0.162235
0.162235
0.162235
0.162235
0.162235
0.162235
0.162235
0.162235
0.162235
0.162235
0.162235
0.162235
0.162235
0.162235
0.162235
0.162235
0.162235
0.162235
0.162235
0.162235
0.162235
0.162235
0.162235
0.162235
0.162235
0.162235
0.162235
0.162235
0.162235
0.162235
0.162235
0.162235
0.162235
0.162235
0.162235
0.162235
0.162235
0.162235
0.162235
0.162235
0.162235
0.162235
0.162235
0.162235
0.162235
0.162235
0.162235
0.162235
0.162235
0.162235
0.162235
0.162235
0.162235
0.162235
0.162235
0.162235
0.162235
0.162235
0.162235
0.162235
0.162235
0.162235
0.162235
0.162235
0.162235
0.162235
0.162235
0.162235
0.162235
0.162235
0.162235
0.162235
0.162235
0.162235
0.162235
0.162235
0.162235
0.162235
0.162235
0.162235
0.162235
0.162235
0.162235
0.162241
0.168042
0.162236
0.162235
0.162235
0.162235
0.162235
0.162234
0.162234
0.162234
0.162234
0.162234
0.162234
0.162234
0.162234
0.162234
0.162234
0.162234
0.162234
0.162234
0.162234
0.162234
0.162234
0.162234
0.162234
0.162234
0.162233
0.162233
0.162233
0.162233
0.162233
0.162233
0.162233
0.162233
0.162233
0.162233
0.162233
0.162233
0.162233
0.162233
0.162233
0.162233
0.162233
0.162233
0.162233
0.162233
0.162233
0.162233
0.162233
0.162233
0.162233
0.162233
0.162233
0.162233
0.162233
0.162233
0.162233
0.162233
0.162233
0.162233
0.162233
0.162233
0.162233
0.162233
0.162233
0.162233
0.162233
0.162233
0.162233
0.162233
0.162233
0.162233
0.162233
0.162233
0.162233
0.162233
0.162233
0.162233
0.162233
0.162233
0.162233
0.162233
0.162233
0.162233
0.162233
0.162233
0.162233
0.162233
0.162233
0.162233
0.162233
0.162233
0.162233
0.162233
0.162233
0.162233
0.162233
0.162233
0.162233
0.162233
0.162233
0.162233
0.162233
0.162233
0.162233
0.162233
0.162233
0.162233
0.162233
0.162233
0.162233
0.162233
0.162233
0.162233
0.162233
0.162233
0.162233
0.162233
0.162233
0.162233
0.162233
0.162233
0.162233
0.162233
0.162233
0.162233
0.162233
0.162233
0.162233
0.162233
0.162233
0.162233
0.162233
0.162233
0.162233
0.162233
0.162233
0.162233
0.162233
0.162233
0.162233
0.162233
0.162233
0.162233
0.162233
0.162233
0.162233
0.162233
0.162233
0.162233
0.162233
0.162233
0.162233
0.162233
0.162233
0.162233
0.162233
0.162233
0.162233
0.162233
0.162233
0.162233
0.162233
0.162233
0.16224
0.168097
0.162235
0.162235
0.162234
0.162234
0.162234
0.162234
0.162234
0.162234
0.162234
0.162234
0.162233
0.162233
0.162233
0.162233
0.162233
0.162233
0.162233
0.162233
0.162233
0.162233
0.162233
0.162233
0.162233
0.162233
0.162233
0.162233
0.162233
0.162233
0.162233
0.162233
0.162233
0.162233
0.162233
0.162233
0.162233
0.162233
0.162233
0.162233
0.162233
0.162233
0.162233
0.162233
0.162233
0.162233
0.162233
0.162233
0.162233
0.162233
0.162233
0.162233
0.162233
0.162233
0.162233
0.162233
0.162233
0.162233
0.162233
0.162233
0.162233
0.162233
0.162233
0.162233
0.162233
0.162233
0.162233
0.162232
0.162232
0.162232
0.162232
0.162232
0.162232