/*--------------------------------*- C++ -*----------------------------------*\
| =========                 |                                                 |
| \\      /  F ield         | OpenFOAM: The Open Source CFD Toolbox           |
|  \\    /   O peration     | Version:  v1912                                 |
|   \\  /    A nd           | Website:  www.openfoam.com                      |
|    \\/     M anipulation  |                                                 |
\*---------------------------------------------------------------------------*/
FoamFile
{
    version     2.0;
    format      ascii;
    class       volSymmTensorField;
    location    "60";
    object      R;
}
// * * * * * * * * * * * * * * * * * * * * * * * * * * * * * * * * * * * * * //

dimensions      [0 2 -2 0 0 0 0];


internalField   nonuniform List<symmTensor> 
14268
(
(5.55106e-12 -8.76557e-15 0 5.54747e-12 0 5.54926e-12)
(5.55336e-12 -8.80908e-15 0 5.54997e-12 0 5.55166e-12)
(5.55555e-12 -8.85051e-15 0 5.55236e-12 0 5.55395e-12)
(5.55764e-12 -8.88996e-15 0 5.55464e-12 0 5.55614e-12)
(5.55963e-12 -8.92752e-15 0 5.55681e-12 0 5.55822e-12)
(5.56153e-12 -8.96324e-15 0 5.55888e-12 0 5.5602e-12)
(5.56334e-12 -8.99726e-15 0 5.56085e-12 0 5.56209e-12)
(5.56506e-12 -9.02958e-15 0 5.56273e-12 0 5.56389e-12)
(5.5667e-12 -9.06036e-15 0 5.56451e-12 0 5.5656e-12)
(5.56826e-12 -9.08958e-15 0 5.56621e-12 0 5.56723e-12)
(5.56974e-12 -9.11741e-15 0 5.56782e-12 0 5.56878e-12)
(5.57115e-12 -9.14379e-15 0 5.56937e-12 0 5.57026e-12)
(5.57249e-12 -9.16894e-15 0 5.57083e-12 0 5.57166e-12)
(5.57377e-12 -9.19274e-15 0 5.57222e-12 0 5.57299e-12)
(5.57499e-12 -9.21543e-15 0 5.57354e-12 0 5.57426e-12)
(5.57614e-12 -9.23689e-15 0 5.5748e-12 0 5.57547e-12)
(5.57724e-12 -9.25734e-15 0 5.576e-12 0 5.57661e-12)
(5.57828e-12 -9.27667e-15 0 5.57713e-12 0 5.5777e-12)
(5.57927e-12 -9.29509e-15 0 5.57821e-12 0 5.57874e-12)
(5.58021e-12 -9.31249e-15 0 5.57924e-12 0 5.57972e-12)
(5.5811e-12 -9.32906e-15 0 5.58021e-12 0 5.58065e-12)
(5.58195e-12 -9.34471e-15 0 5.58113e-12 0 5.58154e-12)
(5.58275e-12 -9.3596e-15 0 5.58201e-12 0 5.58238e-12)
(5.58352e-12 -9.37367e-15 0 5.58284e-12 0 5.58318e-12)
(5.58424e-12 -9.38703e-15 0 5.58363e-12 0 5.58393e-12)
(5.58493e-12 -9.39966e-15 0 5.58438e-12 0 5.58465e-12)
(5.58558e-12 -9.41164e-15 0 5.58509e-12 0 5.58533e-12)
(5.58619e-12 -9.42297e-15 0 5.58576e-12 0 5.58598e-12)
(5.58678e-12 -9.43371e-15 0 5.5864e-12 0 5.58659e-12)
(5.58733e-12 -9.44385e-15 0 5.58701e-12 0 5.58717e-12)
(5.58786e-12 -9.45347e-15 0 5.58758e-12 0 5.58772e-12)
(5.58836e-12 -9.46255e-15 0 5.58812e-12 0 5.58824e-12)
(5.58883e-12 -9.47115e-15 0 5.58863e-12 0 5.58873e-12)
(5.58927e-12 -9.47927e-15 0 5.58912e-12 0 5.58919e-12)
(5.5897e-12 -9.48695e-15 0 5.58958e-12 0 5.58963e-12)
(5.5901e-12 -9.49421e-15 0 5.59002e-12 0 5.59005e-12)
(5.59047e-12 -9.50106e-15 0 5.59043e-12 0 5.59045e-12)
(5.59083e-12 -9.50754e-15 0 5.59082e-12 0 5.59082e-12)
(5.59117e-12 -9.51365e-15 0 5.59119e-12 0 5.59117e-12)
(5.59149e-12 -9.51943e-15 0 5.59154e-12 0 5.59151e-12)
(5.59179e-12 -9.52487e-15 0 5.59186e-12 0 5.59182e-12)
(5.59207e-12 -9.53002e-15 0 5.59218e-12 0 5.59212e-12)
(5.59234e-12 -9.53485e-15 0 5.59247e-12 0 5.5924e-12)
(5.5926e-12 -9.53944e-15 0 5.59275e-12 0 5.59267e-12)
(5.59284e-12 -9.54374e-15 0 5.59301e-12 0 5.59292e-12)
(5.59306e-12 -9.54781e-15 0 5.59326e-12 0 5.59316e-12)
(5.59328e-12 -9.55162e-15 0 5.59349e-12 0 5.59338e-12)
(5.59348e-12 -9.55524e-15 0 5.59371e-12 0 5.59359e-12)
(5.59367e-12 -9.55862e-15 0 5.59392e-12 0 5.59379e-12)
(5.59385e-12 -9.56183e-15 0 5.59411e-12 0 5.59398e-12)
(5.59402e-12 -9.56483e-15 0 5.5943e-12 0 5.59415e-12)
(5.59418e-12 -9.56766e-15 0 5.59447e-12 0 5.59432e-12)
(5.59433e-12 -9.57032e-15 0 5.59463e-12 0 5.59448e-12)
(5.59447e-12 -9.57283e-15 0 5.59479e-12 0 5.59462e-12)
(5.5946e-12 -9.57518e-15 0 5.59493e-12 0 5.59476e-12)
(5.59473e-12 -9.57739e-15 0 5.59507e-12 0 5.59489e-12)
(5.59484e-12 -9.57947e-15 0 5.5952e-12 0 5.59502e-12)
(5.59496e-12 -9.58142e-15 0 5.59532e-12 0 5.59513e-12)
(5.59506e-12 -9.58326e-15 0 5.59543e-12 0 5.59524e-12)
(5.59516e-12 -9.58498e-15 0 5.59554e-12 0 5.59534e-12)
(5.59525e-12 -9.58659e-15 0 5.59564e-12 0 5.59544e-12)
(5.59534e-12 -9.5881e-15 0 5.59573e-12 0 5.59553e-12)
(5.59542e-12 -9.58953e-15 0 5.59582e-12 0 5.59562e-12)
(5.59549e-12 -9.59086e-15 0 5.59591e-12 0 5.5957e-12)
(5.59556e-12 -9.59211e-15 0 5.59598e-12 0 5.59577e-12)
(5.59563e-12 -9.59328e-15 0 5.59606e-12 0 5.59584e-12)
(5.59569e-12 -9.59437e-15 0 5.59613e-12 0 5.59591e-12)
(5.59575e-12 -9.5954e-15 0 5.59619e-12 0 5.59597e-12)
(5.59581e-12 -9.59636e-15 0 5.59625e-12 0 5.59603e-12)
(5.59586e-12 -9.59725e-15 0 5.59631e-12 0 5.59608e-12)
(5.59591e-12 -9.5981e-15 0 5.59636e-12 0 5.59613e-12)
(5.59596e-12 -9.59888e-15 0 5.59641e-12 0 5.59618e-12)
(5.596e-12 -9.59962e-15 0 5.59646e-12 0 5.59622e-12)
(5.59604e-12 -9.6003e-15 0 5.5965e-12 0 5.59627e-12)
(5.59607e-12 -9.60094e-15 0 5.59654e-12 0 5.5963e-12)
(5.59611e-12 -9.60154e-15 0 5.59658e-12 0 5.59634e-12)
(5.59614e-12 -9.6021e-15 0 5.59661e-12 0 5.59637e-12)
(5.59617e-12 -9.60262e-15 0 5.59665e-12 0 5.59641e-12)
(5.5962e-12 -9.6031e-15 0 5.59668e-12 0 5.59644e-12)
(5.59623e-12 -9.60356e-15 0 5.59671e-12 0 5.59646e-12)
(5.59625e-12 -9.60398e-15 0 5.59673e-12 0 5.59649e-12)
(5.59628e-12 -9.60437e-15 0 5.59676e-12 0 5.59651e-12)
(5.5963e-12 -9.60474e-15 0 5.59678e-12 0 5.59654e-12)
(5.59632e-12 -9.60508e-15 0 5.5968e-12 0 5.59656e-12)
(5.59634e-12 -9.60539e-15 0 5.59682e-12 0 5.59658e-12)
(5.59635e-12 -9.60569e-15 0 5.59684e-12 0 5.59659e-12)
(5.59637e-12 -9.60596e-15 0 5.59686e-12 0 5.59661e-12)
(5.59638e-12 -9.60622e-15 0 5.59688e-12 0 5.59663e-12)
(5.5964e-12 -9.60645e-15 0 5.59689e-12 0 5.59664e-12)
(5.59641e-12 -9.60667e-15 0 5.59691e-12 0 5.59666e-12)
(5.59642e-12 -9.60687e-15 0 5.59692e-12 0 5.59667e-12)
(5.59643e-12 -9.60706e-15 0 5.59693e-12 0 5.59668e-12)
(5.59644e-12 -9.60723e-15 0 5.59694e-12 0 5.59669e-12)
(5.59645e-12 -9.60739e-15 0 5.59695e-12 0 5.5967e-12)
(5.59646e-12 -9.60754e-15 0 5.59696e-12 0 5.59671e-12)
(5.59647e-12 -9.60768e-15 0 5.59697e-12 0 5.59672e-12)
(5.59648e-12 -9.6078e-15 0 5.59698e-12 0 5.59672e-12)
(5.59648e-12 -9.60792e-15 0 5.59699e-12 0 5.59673e-12)
(5.59649e-12 -9.60803e-15 0 5.59699e-12 0 5.59674e-12)
(5.5965e-12 -9.60812e-15 0 5.597e-12 0 5.59674e-12)
(5.5965e-12 -9.60821e-15 0 5.59701e-12 0 5.59675e-12)
(5.59651e-12 -9.60829e-15 0 5.59701e-12 0 5.59675e-12)
(5.59651e-12 -9.60836e-15 0 5.59701e-12 0 5.59676e-12)
(5.59651e-12 -9.60843e-15 0 5.59702e-12 0 5.59676e-12)
(5.59652e-12 -9.60849e-15 0 5.59702e-12 0 5.59676e-12)
(5.59652e-12 -9.60854e-15 0 5.59702e-12 0 5.59677e-12)
(5.59652e-12 -9.60859e-15 0 5.59703e-12 0 5.59677e-12)
(5.59652e-12 -9.60863e-15 0 5.59703e-12 0 5.59677e-12)
(5.59652e-12 -9.60866e-15 0 5.59703e-12 0 5.59677e-12)
(5.59652e-12 -9.60869e-15 0 5.59703e-12 0 5.59677e-12)
(5.59652e-12 -9.60871e-15 0 5.59703e-12 0 5.59677e-12)
(5.59652e-12 -9.60872e-15 0 5.59703e-12 0 5.59677e-12)
(5.59652e-12 -9.60873e-15 0 5.59703e-12 0 5.59677e-12)
(5.59652e-12 -9.60873e-15 0 5.59703e-12 0 5.59677e-12)
(5.59652e-12 -9.60873e-15 0 5.59703e-12 0 5.59677e-12)
(5.59651e-12 -9.60872e-15 0 5.59702e-12 0 5.59676e-12)
(5.59651e-12 -9.60871e-15 0 5.59702e-12 0 5.59676e-12)
(5.59651e-12 -9.60868e-15 0 5.59701e-12 0 5.59675e-12)
(5.59651e-12 -9.60866e-15 0 5.59701e-12 0 5.59675e-12)
(5.59649e-12 -9.6086e-15 0 5.597e-12 0 5.59674e-12)
(5.5965e-12 -9.60859e-15 0 5.597e-12 0 5.59674e-12)
(5.59648e-12 -9.6085e-15 0 5.59698e-12 0 5.59673e-12)
(5.59648e-12 -9.60848e-15 0 5.59699e-12 0 5.59673e-12)
(5.59646e-12 -9.60837e-15 0 5.59696e-12 0 5.59671e-12)
(5.59647e-12 -9.60835e-15 0 5.59697e-12 0 5.59672e-12)
(5.59644e-12 -9.60821e-15 0 5.59694e-12 0 5.59668e-12)
(5.59646e-12 -9.60822e-15 0 5.59696e-12 0 5.5967e-12)
(5.59641e-12 -9.60806e-15 0 5.59691e-12 0 5.59666e-12)
(5.59644e-12 -9.60813e-15 0 5.59694e-12 0 5.59669e-12)
(5.59639e-12 -9.60794e-15 0 5.59689e-12 0 5.59664e-12)
(5.59645e-12 -9.60814e-15 0 5.59694e-12 0 5.59669e-12)
(5.59639e-12 -9.60794e-15 0 5.59689e-12 0 5.59663e-12)
(5.59647e-12 -9.60835e-15 0 5.59697e-12 0 5.59671e-12)
(5.59641e-12 -9.60819e-15 0 5.59691e-12 0 5.59666e-12)
(5.59652e-12 -9.60884e-15 0 5.59702e-12 0 5.59677e-12)
(5.59647e-12 -9.60883e-15 0 5.59697e-12 0 5.59672e-12)
(5.59657e-12 -9.61056e-15 0 5.59708e-12 0 5.59682e-12)
(5.59653e-12 -9.60947e-15 0 5.59704e-12 0 5.59679e-12)
(5.59667e-12 -9.61043e-15 0 5.59719e-12 0 5.59693e-12)
(5.59664e-12 -9.61061e-15 0 5.59716e-12 0 5.5969e-12)
(5.59673e-12 -9.61108e-15 0 5.59725e-12 0 5.59699e-12)
(5.5967e-12 -9.61114e-15 0 5.59722e-12 0 5.59696e-12)
(5.59675e-12 -9.61135e-15 0 5.59728e-12 0 5.59701e-12)
(5.59672e-12 -9.61132e-15 0 5.59725e-12 0 5.59698e-12)
(5.59675e-12 -9.61137e-15 0 5.59728e-12 0 5.59701e-12)
(5.59672e-12 -9.61127e-15 0 5.59725e-12 0 5.59698e-12)
(5.59674e-12 -9.61121e-15 0 5.59726e-12 0 5.597e-12)
(5.59671e-12 -9.61108e-15 0 5.59723e-12 0 5.59697e-12)
(5.59672e-12 -9.61097e-15 0 5.59724e-12 0 5.59697e-12)
(5.59669e-12 -9.61083e-15 0 5.59722e-12 0 5.59695e-12)
(5.59669e-12 -9.61072e-15 0 5.59721e-12 0 5.59695e-12)
(5.59668e-12 -9.6106e-15 0 5.5972e-12 0 5.59693e-12)
(5.59667e-12 -9.61048e-15 0 5.59719e-12 0 5.59693e-12)
(5.59666e-12 -9.61039e-15 0 5.59718e-12 0 5.59692e-12)
(5.59665e-12 -9.6103e-15 0 5.59717e-12 0 5.59691e-12)
(5.59665e-12 -9.61023e-15 0 5.59717e-12 0 5.59691e-12)
(5.59664e-12 -9.61017e-15 0 5.59716e-12 0 5.5969e-12)
(5.59665e-12 -9.61013e-15 0 5.59717e-12 0 5.5969e-12)
(5.59665e-12 -9.61018e-15 0 5.59716e-12 0 5.5969e-12)
(5.59666e-12 -9.6101e-15 0 5.59718e-12 0 5.59691e-12)
(5.59673e-12 -9.61082e-15 0 5.59725e-12 0 5.59698e-12)
(5.59675e-12 -9.60611e-15 0 5.59727e-12 0 5.59701e-12)
(5.59976e-12 -9.62633e-15 0 5.60044e-12 0 5.6001e-12)
(5.6619e-12 -9.14169e-15 0 5.66287e-12 0 5.66238e-12)
(1.6365e-10 -4.61198e-13 0 1.63471e-10 0 1.6356e-10)
(1.63716e-10 -4.63362e-13 0 1.63547e-10 0 1.63632e-10)
(1.6378e-10 -4.65423e-13 0 1.63621e-10 0 1.637e-10)
(1.6384e-10 -4.67386e-13 0 1.63691e-10 0 1.63765e-10)
(1.63898e-10 -4.69255e-13 0 1.63757e-10 0 1.63827e-10)
(1.63953e-10 -4.71032e-13 0 1.63821e-10 0 1.63887e-10)
(1.64005e-10 -4.72725e-13 0 1.63881e-10 0 1.63943e-10)
(1.64055e-10 -4.74333e-13 0 1.63939e-10 0 1.63997e-10)
(1.64102e-10 -4.75865e-13 0 1.63994e-10 0 1.64048e-10)
(1.64148e-10 -4.77319e-13 0 1.64046e-10 0 1.64096e-10)
(1.6419e-10 -4.78704e-13 0 1.64095e-10 0 1.64143e-10)
(1.64231e-10 -4.80017e-13 0 1.64143e-10 0 1.64187e-10)
(1.6427e-10 -4.81269e-13 0 1.64187e-10 0 1.64229e-10)
(1.64307e-10 -4.82454e-13 0 1.6423e-10 0 1.64268e-10)
(1.64342e-10 -4.83583e-13 0 1.64271e-10 0 1.64306e-10)
(1.64376e-10 -4.84652e-13 0 1.64309e-10 0 1.64342e-10)
(1.64407e-10 -4.8567e-13 0 1.64346e-10 0 1.64377e-10)
(1.64438e-10 -4.86633e-13 0 1.64381e-10 0 1.64409e-10)
(1.64466e-10 -4.8755e-13 0 1.64414e-10 0 1.6444e-10)
(1.64493e-10 -4.88416e-13 0 1.64446e-10 0 1.64469e-10)
(1.64519e-10 -4.89241e-13 0 1.64475e-10 0 1.64497e-10)
(1.64544e-10 -4.90021e-13 0 1.64504e-10 0 1.64524e-10)
(1.64567e-10 -4.90762e-13 0 1.64531e-10 0 1.64549e-10)
(1.64589e-10 -4.91463e-13 0 1.64556e-10 0 1.64572e-10)
(1.6461e-10 -4.92128e-13 0 1.6458e-10 0 1.64595e-10)
(1.6463e-10 -4.92758e-13 0 1.64603e-10 0 1.64616e-10)
(1.64649e-10 -4.93355e-13 0 1.64625e-10 0 1.64637e-10)
(1.64667e-10 -4.93919e-13 0 1.64646e-10 0 1.64656e-10)
(1.64683e-10 -4.94454e-13 0 1.64666e-10 0 1.64674e-10)
(1.64699e-10 -4.9496e-13 0 1.64684e-10 0 1.64692e-10)
(1.64715e-10 -4.95439e-13 0 1.64702e-10 0 1.64708e-10)
(1.64729e-10 -4.95891e-13 0 1.64718e-10 0 1.64723e-10)
(1.64743e-10 -4.9632e-13 0 1.64734e-10 0 1.64738e-10)
(1.64756e-10 -4.96725e-13 0 1.64749e-10 0 1.64752e-10)
(1.64768e-10 -4.97108e-13 0 1.64763e-10 0 1.64765e-10)
(1.64779e-10 -4.97469e-13 0 1.64777e-10 0 1.64778e-10)
(1.6479e-10 -4.97811e-13 0 1.64789e-10 0 1.64789e-10)
(1.64801e-10 -4.98134e-13 0 1.64801e-10 0 1.64801e-10)
(1.6481e-10 -4.98439e-13 0 1.64812e-10 0 1.64811e-10)
(1.6482e-10 -4.98727e-13 0 1.64823e-10 0 1.64821e-10)
(1.64828e-10 -4.98998e-13 0 1.64833e-10 0 1.64831e-10)
(1.64837e-10 -4.99255e-13 0 1.64843e-10 0 1.64839e-10)
(1.64844e-10 -4.99496e-13 0 1.64852e-10 0 1.64848e-10)
(1.64852e-10 -4.99724e-13 0 1.6486e-10 0 1.64856e-10)
(1.64859e-10 -4.99939e-13 0 1.64868e-10 0 1.64863e-10)
(1.64865e-10 -5.00142e-13 0 1.64876e-10 0 1.6487e-10)
(1.64871e-10 -5.00332e-13 0 1.64883e-10 0 1.64877e-10)
(1.64877e-10 -5.00513e-13 0 1.6489e-10 0 1.64883e-10)
(1.64883e-10 -5.00682e-13 0 1.64896e-10 0 1.64889e-10)
(1.64888e-10 -5.00841e-13 0 1.64902e-10 0 1.64895e-10)
(1.64893e-10 -5.00991e-13 0 1.64908e-10 0 1.649e-10)
(1.64897e-10 -5.01133e-13 0 1.64913e-10 0 1.64905e-10)
(1.64902e-10 -5.01265e-13 0 1.64918e-10 0 1.6491e-10)
(1.64906e-10 -5.0139e-13 0 1.64923e-10 0 1.64914e-10)
(1.6491e-10 -5.01508e-13 0 1.64927e-10 0 1.64918e-10)
(1.64913e-10 -5.01618e-13 0 1.64932e-10 0 1.64922e-10)
(1.64917e-10 -5.01722e-13 0 1.64936e-10 0 1.64926e-10)
(1.6492e-10 -5.01819e-13 0 1.64939e-10 0 1.64929e-10)
(1.64923e-10 -5.01911e-13 0 1.64943e-10 0 1.64933e-10)
(1.64926e-10 -5.01997e-13 0 1.64946e-10 0 1.64936e-10)
(1.64928e-10 -5.02078e-13 0 1.64949e-10 0 1.64939e-10)
(1.64931e-10 -5.02153e-13 0 1.64952e-10 0 1.64941e-10)
(1.64933e-10 -5.02224e-13 0 1.64955e-10 0 1.64944e-10)
(1.64935e-10 -5.02291e-13 0 1.64957e-10 0 1.64946e-10)
(1.64938e-10 -5.02353e-13 0 1.6496e-10 0 1.64948e-10)
(1.64939e-10 -5.02411e-13 0 1.64962e-10 0 1.64951e-10)
(1.64941e-10 -5.02466e-13 0 1.64964e-10 0 1.64952e-10)
(1.64943e-10 -5.02517e-13 0 1.64966e-10 0 1.64954e-10)
(1.64945e-10 -5.02565e-13 0 1.64968e-10 0 1.64956e-10)
(1.64946e-10 -5.0261e-13 0 1.6497e-10 0 1.64958e-10)
(1.64947e-10 -5.02652e-13 0 1.64971e-10 0 1.64959e-10)
(1.64949e-10 -5.02691e-13 0 1.64973e-10 0 1.64961e-10)
(1.6495e-10 -5.02728e-13 0 1.64974e-10 0 1.64962e-10)
(1.64951e-10 -5.02762e-13 0 1.64976e-10 0 1.64963e-10)
(1.64952e-10 -5.02794e-13 0 1.64977e-10 0 1.64964e-10)
(1.64953e-10 -5.02824e-13 0 1.64978e-10 0 1.64965e-10)
(1.64954e-10 -5.02852e-13 0 1.64979e-10 0 1.64966e-10)
(1.64955e-10 -5.02878e-13 0 1.6498e-10 0 1.64967e-10)
(1.64956e-10 -5.02903e-13 0 1.64981e-10 0 1.64968e-10)
(1.64957e-10 -5.02925e-13 0 1.64982e-10 0 1.64969e-10)
(1.64957e-10 -5.02946e-13 0 1.64983e-10 0 1.6497e-10)
(1.64958e-10 -5.02966e-13 0 1.64983e-10 0 1.64971e-10)
(1.64959e-10 -5.02984e-13 0 1.64984e-10 0 1.64971e-10)
(1.64959e-10 -5.03001e-13 0 1.64985e-10 0 1.64972e-10)
(1.6496e-10 -5.03017e-13 0 1.64986e-10 0 1.64972e-10)
(1.6496e-10 -5.03032e-13 0 1.64986e-10 0 1.64973e-10)
(1.64961e-10 -5.03045e-13 0 1.64987e-10 0 1.64974e-10)
(1.64961e-10 -5.03058e-13 0 1.64987e-10 0 1.64974e-10)
(1.64962e-10 -5.0307e-13 0 1.64988e-10 0 1.64974e-10)
(1.64962e-10 -5.03081e-13 0 1.64988e-10 0 1.64975e-10)
(1.64962e-10 -5.03091e-13 0 1.64988e-10 0 1.64975e-10)
(1.64963e-10 -5.031e-13 0 1.64989e-10 0 1.64976e-10)
(1.64963e-10 -5.03109e-13 0 1.64989e-10 0 1.64976e-10)
(1.64963e-10 -5.03117e-13 0 1.64989e-10 0 1.64976e-10)
(1.64963e-10 -5.03124e-13 0 1.6499e-10 0 1.64976e-10)
(1.64964e-10 -5.03131e-13 0 1.6499e-10 0 1.64977e-10)
(1.64964e-10 -5.03138e-13 0 1.6499e-10 0 1.64977e-10)
(1.64964e-10 -5.03143e-13 0 1.6499e-10 0 1.64977e-10)
(1.64964e-10 -5.03149e-13 0 1.64991e-10 0 1.64977e-10)
(1.64964e-10 -5.03153e-13 0 1.64991e-10 0 1.64977e-10)
(1.64965e-10 -5.03158e-13 0 1.64991e-10 0 1.64978e-10)
(1.64965e-10 -5.03162e-13 0 1.64991e-10 0 1.64978e-10)
(1.64965e-10 -5.03166e-13 0 1.64991e-10 0 1.64978e-10)
(1.64965e-10 -5.03169e-13 0 1.64991e-10 0 1.64978e-10)
(1.64965e-10 -5.03172e-13 0 1.64992e-10 0 1.64978e-10)
(1.64965e-10 -5.03174e-13 0 1.64992e-10 0 1.64978e-10)
(1.64965e-10 -5.03177e-13 0 1.64992e-10 0 1.64978e-10)
(1.64965e-10 -5.03179e-13 0 1.64992e-10 0 1.64978e-10)
(1.64965e-10 -5.0318e-13 0 1.64992e-10 0 1.64978e-10)
(1.64965e-10 -5.03182e-13 0 1.64992e-10 0 1.64978e-10)
(1.64965e-10 -5.03183e-13 0 1.64992e-10 0 1.64978e-10)
(1.64965e-10 -5.03183e-13 0 1.64992e-10 0 1.64978e-10)
(1.64965e-10 -5.03184e-13 0 1.64992e-10 0 1.64978e-10)
(1.64965e-10 -5.03184e-13 0 1.64992e-10 0 1.64978e-10)
(1.64965e-10 -5.03184e-13 0 1.64992e-10 0 1.64978e-10)
(1.64965e-10 -5.03183e-13 0 1.64992e-10 0 1.64978e-10)
(1.64965e-10 -5.03182e-13 0 1.64991e-10 0 1.64978e-10)
(1.64965e-10 -5.03181e-13 0 1.64991e-10 0 1.64978e-10)
(1.64965e-10 -5.0318e-13 0 1.64991e-10 0 1.64978e-10)
(1.64964e-10 -5.03177e-13 0 1.64991e-10 0 1.64977e-10)
(1.64964e-10 -5.03176e-13 0 1.64991e-10 0 1.64978e-10)
(1.64964e-10 -5.03171e-13 0 1.6499e-10 0 1.64977e-10)
(1.64964e-10 -5.0317e-13 0 1.64991e-10 0 1.64977e-10)
(1.64963e-10 -5.03165e-13 0 1.6499e-10 0 1.64976e-10)
(1.64964e-10 -5.03164e-13 0 1.6499e-10 0 1.64977e-10)
(1.64963e-10 -5.03157e-13 0 1.64989e-10 0 1.64976e-10)
(1.64963e-10 -5.03157e-13 0 1.6499e-10 0 1.64976e-10)
(1.64962e-10 -5.03148e-13 0 1.64988e-10 0 1.64975e-10)
(1.64963e-10 -5.03152e-13 0 1.64989e-10 0 1.64976e-10)
(1.64962e-10 -5.03142e-13 0 1.64988e-10 0 1.64974e-10)
(1.64963e-10 -5.03152e-13 0 1.64989e-10 0 1.64976e-10)
(1.64961e-10 -5.03142e-13 0 1.64987e-10 0 1.64974e-10)
(1.64964e-10 -5.03163e-13 0 1.6499e-10 0 1.64977e-10)
(1.64962e-10 -5.03155e-13 0 1.64988e-10 0 1.64975e-10)
(1.64965e-10 -5.03188e-13 0 1.64992e-10 0 1.64978e-10)
(1.64964e-10 -5.03188e-13 0 1.6499e-10 0 1.64977e-10)
(1.64967e-10 -5.03218e-13 0 1.64993e-10 0 1.6498e-10)
(1.64966e-10 -5.0322e-13 0 1.64992e-10 0 1.64979e-10)
(1.6497e-10 -5.03269e-13 0 1.64997e-10 0 1.64983e-10)
(1.64969e-10 -5.03279e-13 0 1.64996e-10 0 1.64982e-10)
(1.64971e-10 -5.03303e-13 0 1.64998e-10 0 1.64984e-10)
(1.6497e-10 -5.03306e-13 0 1.64997e-10 0 1.64984e-10)
(1.64972e-10 -5.03317e-13 0 1.64999e-10 0 1.64985e-10)
(1.64971e-10 -5.03315e-13 0 1.64998e-10 0 1.64984e-10)
(1.64972e-10 -5.03318e-13 0 1.64999e-10 0 1.64985e-10)
(1.64971e-10 -5.03313e-13 0 1.64998e-10 0 1.64984e-10)
(1.64971e-10 -5.0331e-13 0 1.64999e-10 0 1.64985e-10)
(1.6497e-10 -5.03303e-13 0 1.64998e-10 0 1.64984e-10)
(1.64971e-10 -5.03298e-13 0 1.64998e-10 0 1.64984e-10)
(1.6497e-10 -5.03291e-13 0 1.64997e-10 0 1.64984e-10)
(1.6497e-10 -5.03285e-13 0 1.64997e-10 0 1.64983e-10)
(1.6497e-10 -5.03279e-13 0 1.64997e-10 0 1.64983e-10)
(1.64969e-10 -5.03273e-13 0 1.64997e-10 0 1.64983e-10)
(1.64969e-10 -5.03268e-13 0 1.64996e-10 0 1.64983e-10)
(1.64969e-10 -5.03263e-13 0 1.64996e-10 0 1.64982e-10)
(1.64969e-10 -5.0326e-13 0 1.64996e-10 0 1.64982e-10)
(1.64969e-10 -5.03257e-13 0 1.64996e-10 0 1.64982e-10)
(1.64969e-10 -5.03255e-13 0 1.64996e-10 0 1.64982e-10)
(1.64969e-10 -5.03257e-13 0 1.64996e-10 0 1.64982e-10)
(1.64969e-10 -5.03253e-13 0 1.64996e-10 0 1.64982e-10)
(1.64971e-10 -5.0329e-13 0 1.64998e-10 0 1.64984e-10)
(1.64972e-10 -5.03044e-13 0 1.64999e-10 0 1.64985e-10)
(1.65058e-10 -5.04043e-13 0 1.65093e-10 0 1.65075e-10)
(1.66713e-10 -4.78086e-13 0 1.66764e-10 0 1.66738e-10)
(1.10274e-09 -5.01326e-12 0 1.10101e-09 0 1.10187e-09)
(1.10316e-09 -5.03185e-12 0 1.10153e-09 0 1.10234e-09)
(1.10356e-09 -5.04955e-12 0 1.10202e-09 0 1.10279e-09)
(1.10394e-09 -5.06641e-12 0 1.1025e-09 0 1.10321e-09)
(1.1043e-09 -5.08247e-12 0 1.10295e-09 0 1.10362e-09)
(1.10464e-09 -5.09774e-12 0 1.10337e-09 0 1.10401e-09)
(1.10497e-09 -5.1123e-12 0 1.10378e-09 0 1.10438e-09)
(1.10529e-09 -5.12612e-12 0 1.10417e-09 0 1.10473e-09)
(1.10558e-09 -5.13931e-12 0 1.10454e-09 0 1.10506e-09)
(1.10587e-09 -5.15182e-12 0 1.10489e-09 0 1.10538e-09)
(1.10614e-09 -5.16375e-12 0 1.10523e-09 0 1.10568e-09)
(1.10639e-09 -5.17505e-12 0 1.10555e-09 0 1.10597e-09)
(1.10664e-09 -5.18583e-12 0 1.10585e-09 0 1.10624e-09)
(1.10687e-09 -5.19604e-12 0 1.10614e-09 0 1.1065e-09)
(1.10709e-09 -5.20578e-12 0 1.10641e-09 0 1.10675e-09)
(1.1073e-09 -5.21499e-12 0 1.10668e-09 0 1.10699e-09)
(1.1075e-09 -5.22378e-12 0 1.10692e-09 0 1.10721e-09)
(1.10769e-09 -5.23208e-12 0 1.10716e-09 0 1.10742e-09)
(1.10787e-09 -5.24e-12 0 1.10738e-09 0 1.10762e-09)
(1.10804e-09 -5.24748e-12 0 1.10759e-09 0 1.10781e-09)
(1.1082e-09 -5.25461e-12 0 1.1078e-09 0 1.108e-09)
(1.10835e-09 -5.26134e-12 0 1.10799e-09 0 1.10817e-09)
(1.1085e-09 -5.26775e-12 0 1.10817e-09 0 1.10833e-09)
(1.10864e-09 -5.2738e-12 0 1.10834e-09 0 1.10849e-09)
(1.10877e-09 -5.27956e-12 0 1.10851e-09 0 1.10864e-09)
(1.1089e-09 -5.285e-12 0 1.10866e-09 0 1.10878e-09)
(1.10901e-09 -5.29017e-12 0 1.10881e-09 0 1.10891e-09)
(1.10913e-09 -5.29506e-12 0 1.10895e-09 0 1.10903e-09)
(1.10923e-09 -5.29969e-12 0 1.10908e-09 0 1.10915e-09)
(1.10933e-09 -5.30408e-12 0 1.10921e-09 0 1.10927e-09)
(1.10943e-09 -5.30823e-12 0 1.10932e-09 0 1.10937e-09)
(1.10952e-09 -5.31215e-12 0 1.10944e-09 0 1.10948e-09)
(1.1096e-09 -5.31587e-12 0 1.10954e-09 0 1.10957e-09)
(1.10969e-09 -5.31938e-12 0 1.10964e-09 0 1.10966e-09)
(1.10976e-09 -5.32271e-12 0 1.10974e-09 0 1.10975e-09)
(1.10983e-09 -5.32585e-12 0 1.10983e-09 0 1.10983e-09)
(1.1099e-09 -5.32882e-12 0 1.10991e-09 0 1.10991e-09)
(1.10997e-09 -5.33163e-12 0 1.11e-09 0 1.10998e-09)
(1.11003e-09 -5.33427e-12 0 1.11007e-09 0 1.11005e-09)
(1.11009e-09 -5.33678e-12 0 1.11014e-09 0 1.11011e-09)
(1.11014e-09 -5.33914e-12 0 1.11021e-09 0 1.11018e-09)
(1.11019e-09 -5.34137e-12 0 1.11028e-09 0 1.11023e-09)
(1.11024e-09 -5.34347e-12 0 1.11034e-09 0 1.11029e-09)
(1.11029e-09 -5.34546e-12 0 1.1104e-09 0 1.11034e-09)
(1.11033e-09 -5.34733e-12 0 1.11045e-09 0 1.11039e-09)
(1.11037e-09 -5.3491e-12 0 1.1105e-09 0 1.11044e-09)
(1.11041e-09 -5.35076e-12 0 1.11055e-09 0 1.11048e-09)
(1.11045e-09 -5.35234e-12 0 1.11059e-09 0 1.11052e-09)
(1.11048e-09 -5.35381e-12 0 1.11064e-09 0 1.11056e-09)
(1.11052e-09 -5.35521e-12 0 1.11068e-09 0 1.1106e-09)
(1.11055e-09 -5.35652e-12 0 1.11072e-09 0 1.11063e-09)
(1.11058e-09 -5.35775e-12 0 1.11075e-09 0 1.11066e-09)
(1.1106e-09 -5.35891e-12 0 1.11079e-09 0 1.11069e-09)
(1.11063e-09 -5.36001e-12 0 1.11082e-09 0 1.11072e-09)
(1.11065e-09 -5.36103e-12 0 1.11085e-09 0 1.11075e-09)
(1.11068e-09 -5.362e-12 0 1.11088e-09 0 1.11077e-09)
(1.1107e-09 -5.36291e-12 0 1.1109e-09 0 1.1108e-09)
(1.11072e-09 -5.36376e-12 0 1.11093e-09 0 1.11082e-09)
(1.11074e-09 -5.36457e-12 0 1.11095e-09 0 1.11084e-09)
(1.11075e-09 -5.36532e-12 0 1.11097e-09 0 1.11086e-09)
(1.11077e-09 -5.36603e-12 0 1.111e-09 0 1.11088e-09)
(1.11079e-09 -5.36669e-12 0 1.11101e-09 0 1.1109e-09)
(1.1108e-09 -5.36731e-12 0 1.11103e-09 0 1.11092e-09)
(1.11082e-09 -5.36789e-12 0 1.11105e-09 0 1.11093e-09)
(1.11083e-09 -5.36844e-12 0 1.11107e-09 0 1.11095e-09)
(1.11084e-09 -5.36896e-12 0 1.11108e-09 0 1.11096e-09)
(1.11085e-09 -5.36944e-12 0 1.1111e-09 0 1.11097e-09)
(1.11086e-09 -5.36989e-12 0 1.11111e-09 0 1.11098e-09)
(1.11087e-09 -5.37031e-12 0 1.11112e-09 0 1.111e-09)
(1.11088e-09 -5.3707e-12 0 1.11113e-09 0 1.11101e-09)
(1.11089e-09 -5.37108e-12 0 1.11114e-09 0 1.11102e-09)
(1.1109e-09 -5.37142e-12 0 1.11115e-09 0 1.11103e-09)
(1.11091e-09 -5.37174e-12 0 1.11116e-09 0 1.11103e-09)
(1.11091e-09 -5.37204e-12 0 1.11117e-09 0 1.11104e-09)
(1.11092e-09 -5.37233e-12 0 1.11118e-09 0 1.11105e-09)
(1.11093e-09 -5.37259e-12 0 1.11119e-09 0 1.11106e-09)
(1.11093e-09 -5.37284e-12 0 1.1112e-09 0 1.11106e-09)
(1.11094e-09 -5.37307e-12 0 1.1112e-09 0 1.11107e-09)
(1.11094e-09 -5.37328e-12 0 1.11121e-09 0 1.11108e-09)
(1.11095e-09 -5.37348e-12 0 1.11122e-09 0 1.11108e-09)
(1.11095e-09 -5.37367e-12 0 1.11122e-09 0 1.11109e-09)
(1.11096e-09 -5.37384e-12 0 1.11123e-09 0 1.11109e-09)
(1.11096e-09 -5.374e-12 0 1.11123e-09 0 1.11109e-09)
(1.11096e-09 -5.37416e-12 0 1.11124e-09 0 1.1111e-09)
(1.11097e-09 -5.3743e-12 0 1.11124e-09 0 1.1111e-09)
(1.11097e-09 -5.37443e-12 0 1.11124e-09 0 1.11111e-09)
(1.11097e-09 -5.37455e-12 0 1.11125e-09 0 1.11111e-09)
(1.11098e-09 -5.37466e-12 0 1.11125e-09 0 1.11111e-09)
(1.11098e-09 -5.37476e-12 0 1.11126e-09 0 1.11112e-09)
(1.11098e-09 -5.37486e-12 0 1.11126e-09 0 1.11112e-09)
(1.11098e-09 -5.37495e-12 0 1.11126e-09 0 1.11112e-09)
(1.11099e-09 -5.37503e-12 0 1.11126e-09 0 1.11112e-09)
(1.11099e-09 -5.37511e-12 0 1.11127e-09 0 1.11112e-09)
(1.11099e-09 -5.37518e-12 0 1.11127e-09 0 1.11113e-09)
(1.11099e-09 -5.37525e-12 0 1.11127e-09 0 1.11113e-09)
(1.11099e-09 -5.37531e-12 0 1.11127e-09 0 1.11113e-09)
(1.11099e-09 -5.37536e-12 0 1.11127e-09 0 1.11113e-09)
(1.111e-09 -5.37541e-12 0 1.11127e-09 0 1.11113e-09)
(1.111e-09 -5.37546e-12 0 1.11128e-09 0 1.11113e-09)
(1.111e-09 -5.3755e-12 0 1.11128e-09 0 1.11114e-09)
(1.111e-09 -5.37554e-12 0 1.11128e-09 0 1.11114e-09)
(1.111e-09 -5.37558e-12 0 1.11128e-09 0 1.11114e-09)
(1.111e-09 -5.37561e-12 0 1.11128e-09 0 1.11114e-09)
(1.111e-09 -5.37564e-12 0 1.11128e-09 0 1.11114e-09)
(1.111e-09 -5.37566e-12 0 1.11128e-09 0 1.11114e-09)
(1.111e-09 -5.37569e-12 0 1.11128e-09 0 1.11114e-09)
(1.111e-09 -5.37571e-12 0 1.11128e-09 0 1.11114e-09)
(1.111e-09 -5.37572e-12 0 1.11128e-09 0 1.11114e-09)
(1.111e-09 -5.37574e-12 0 1.11128e-09 0 1.11114e-09)
(1.111e-09 -5.37575e-12 0 1.11128e-09 0 1.11114e-09)
(1.111e-09 -5.37575e-12 0 1.11128e-09 0 1.11114e-09)
(1.111e-09 -5.37576e-12 0 1.11128e-09 0 1.11114e-09)
(1.111e-09 -5.37576e-12 0 1.11128e-09 0 1.11114e-09)
(1.111e-09 -5.37576e-12 0 1.11128e-09 0 1.11114e-09)
(1.111e-09 -5.37576e-12 0 1.11128e-09 0 1.11114e-09)
(1.111e-09 -5.37575e-12 0 1.11128e-09 0 1.11114e-09)
(1.111e-09 -5.37574e-12 0 1.11128e-09 0 1.11114e-09)
(1.111e-09 -5.37572e-12 0 1.11128e-09 0 1.11114e-09)
(1.111e-09 -5.37571e-12 0 1.11128e-09 0 1.11114e-09)
(1.111e-09 -5.37568e-12 0 1.11128e-09 0 1.11114e-09)
(1.111e-09 -5.37566e-12 0 1.11128e-09 0 1.11114e-09)
(1.11099e-09 -5.37562e-12 0 1.11127e-09 0 1.11113e-09)
(1.111e-09 -5.37561e-12 0 1.11127e-09 0 1.11113e-09)
(1.11099e-09 -5.37555e-12 0 1.11127e-09 0 1.11113e-09)
(1.11099e-09 -5.37554e-12 0 1.11127e-09 0 1.11113e-09)
(1.11099e-09 -5.37546e-12 0 1.11126e-09 0 1.11112e-09)
(1.11099e-09 -5.37546e-12 0 1.11127e-09 0 1.11113e-09)
(1.11098e-09 -5.37537e-12 0 1.11126e-09 0 1.11112e-09)
(1.11099e-09 -5.37541e-12 0 1.11127e-09 0 1.11113e-09)
(1.11098e-09 -5.3753e-12 0 1.11126e-09 0 1.11112e-09)
(1.11099e-09 -5.3754e-12 0 1.11127e-09 0 1.11113e-09)
(1.11098e-09 -5.37529e-12 0 1.11125e-09 0 1.11111e-09)
(1.11099e-09 -5.3755e-12 0 1.11127e-09 0 1.11113e-09)
(1.11098e-09 -5.37541e-12 0 1.11126e-09 0 1.11112e-09)
(1.111e-09 -5.37575e-12 0 1.11128e-09 0 1.11114e-09)
(1.11099e-09 -5.37574e-12 0 1.11127e-09 0 1.11113e-09)
(1.11101e-09 -5.37604e-12 0 1.11129e-09 0 1.11115e-09)
(1.111e-09 -5.37607e-12 0 1.11129e-09 0 1.11114e-09)
(1.11103e-09 -5.37656e-12 0 1.11132e-09 0 1.11117e-09)
(1.11102e-09 -5.37666e-12 0 1.11131e-09 0 1.11116e-09)
(1.11104e-09 -5.37689e-12 0 1.11133e-09 0 1.11118e-09)
(1.11103e-09 -5.37693e-12 0 1.11132e-09 0 1.11117e-09)
(1.11104e-09 -5.37704e-12 0 1.11133e-09 0 1.11119e-09)
(1.11104e-09 -5.37703e-12 0 1.11133e-09 0 1.11118e-09)
(1.11104e-09 -5.37706e-12 0 1.11133e-09 0 1.11119e-09)
(1.11104e-09 -5.37701e-12 0 1.11133e-09 0 1.11118e-09)
(1.11104e-09 -5.37698e-12 0 1.11133e-09 0 1.11118e-09)
(1.11103e-09 -5.37692e-12 0 1.11132e-09 0 1.11118e-09)
(1.11104e-09 -5.37687e-12 0 1.11132e-09 0 1.11118e-09)
(1.11103e-09 -5.3768e-12 0 1.11132e-09 0 1.11117e-09)
(1.11103e-09 -5.37674e-12 0 1.11132e-09 0 1.11117e-09)
(1.11103e-09 -5.37668e-12 0 1.11132e-09 0 1.11117e-09)
(1.11103e-09 -5.37663e-12 0 1.11132e-09 0 1.11117e-09)
(1.11103e-09 -5.37658e-12 0 1.11131e-09 0 1.11117e-09)
(1.11103e-09 -5.37653e-12 0 1.11131e-09 0 1.11117e-09)
(1.11102e-09 -5.3765e-12 0 1.11131e-09 0 1.11117e-09)
(1.11102e-09 -5.37647e-12 0 1.11131e-09 0 1.11116e-09)
(1.11102e-09 -5.37645e-12 0 1.11131e-09 0 1.11117e-09)
(1.11102e-09 -5.37648e-12 0 1.11131e-09 0 1.11117e-09)
(1.11103e-09 -5.37644e-12 0 1.11131e-09 0 1.11117e-09)
(1.11104e-09 -5.37681e-12 0 1.11133e-09 0 1.11118e-09)
(1.11104e-09 -5.37419e-12 0 1.11133e-09 0 1.11119e-09)
(1.11159e-09 -5.38365e-12 0 1.11196e-09 0 1.11177e-09)
(1.12117e-09 -5.09635e-12 0 1.1217e-09 0 1.12144e-09)
(3.63202e-09 -2.34373e-11 0 3.62496e-09 0 3.62849e-09)
(3.63326e-09 -2.35066e-11 0 3.62662e-09 0 3.62994e-09)
(3.63445e-09 -2.35726e-11 0 3.6282e-09 0 3.63132e-09)
(3.63558e-09 -2.36356e-11 0 3.62972e-09 0 3.63264e-09)
(3.63665e-09 -2.36955e-11 0 3.63115e-09 0 3.63389e-09)
(3.63767e-09 -2.37525e-11 0 3.63252e-09 0 3.63509e-09)
(3.63865e-09 -2.38069e-11 0 3.63382e-09 0 3.63623e-09)
(3.63958e-09 -2.38586e-11 0 3.63507e-09 0 3.63731e-09)
(3.64046e-09 -2.39079e-11 0 3.63625e-09 0 3.63835e-09)
(3.6413e-09 -2.39546e-11 0 3.63738e-09 0 3.63933e-09)
(3.6421e-09 -2.39992e-11 0 3.63845e-09 0 3.64026e-09)
(3.64286e-09 -2.40415e-11 0 3.63947e-09 0 3.64116e-09)
(3.64358e-09 -2.40819e-11 0 3.64043e-09 0 3.642e-09)
(3.64427e-09 -2.41201e-11 0 3.64136e-09 0 3.64281e-09)
(3.64492e-09 -2.41565e-11 0 3.64223e-09 0 3.64357e-09)
(3.64555e-09 -2.4191e-11 0 3.64307e-09 0 3.6443e-09)
(3.64614e-09 -2.4224e-11 0 3.64386e-09 0 3.64499e-09)
(3.6467e-09 -2.4255e-11 0 3.64461e-09 0 3.64565e-09)
(3.64723e-09 -2.42847e-11 0 3.64532e-09 0 3.64627e-09)
(3.64774e-09 -2.43128e-11 0 3.646e-09 0 3.64686e-09)
(3.64822e-09 -2.43395e-11 0 3.64665e-09 0 3.64742e-09)
(3.64868e-09 -2.43648e-11 0 3.64726e-09 0 3.64796e-09)
(3.64911e-09 -2.43888e-11 0 3.64784e-09 0 3.64847e-09)
(3.64952e-09 -2.44116e-11 0 3.64839e-09 0 3.64895e-09)
(3.64991e-09 -2.44332e-11 0 3.64891e-09 0 3.6494e-09)
(3.65028e-09 -2.44537e-11 0 3.64941e-09 0 3.64984e-09)
(3.65063e-09 -2.44731e-11 0 3.64988e-09 0 3.65025e-09)
(3.65096e-09 -2.44915e-11 0 3.65032e-09 0 3.65064e-09)
(3.65128e-09 -2.45089e-11 0 3.65075e-09 0 3.651e-09)
(3.65158e-09 -2.45254e-11 0 3.65115e-09 0 3.65135e-09)
(3.65186e-09 -2.4541e-11 0 3.65152e-09 0 3.65168e-09)
(3.65213e-09 -2.45558e-11 0 3.65188e-09 0 3.652e-09)
(3.65238e-09 -2.45698e-11 0 3.65222e-09 0 3.6523e-09)
(3.65262e-09 -2.4583e-11 0 3.65255e-09 0 3.65258e-09)
(3.65285e-09 -2.45955e-11 0 3.65285e-09 0 3.65284e-09)
(3.65306e-09 -2.46074e-11 0 3.65314e-09 0 3.65309e-09)
(3.65327e-09 -2.46186e-11 0 3.65341e-09 0 3.65333e-09)
(3.65346e-09 -2.46292e-11 0 3.65367e-09 0 3.65356e-09)
(3.65364e-09 -2.46392e-11 0 3.65391e-09 0 3.65377e-09)
(3.65381e-09 -2.46486e-11 0 3.65414e-09 0 3.65397e-09)
(3.65397e-09 -2.46575e-11 0 3.65436e-09 0 3.65416e-09)
(3.65413e-09 -2.4666e-11 0 3.65457e-09 0 3.65434e-09)