/*--------------------------------*- C++ -*----------------------------------*\
| =========                 |                                                 |
| \\      /  F ield         | OpenFOAM: The Open Source CFD Toolbox           |
|  \\    /   O peration     | Version:  v1912                                 |
|   \\  /    A nd           | Website:  www.openfoam.com                      |
|    \\/     M anipulation  |                                                 |
\*---------------------------------------------------------------------------*/
FoamFile
{
    version     2.0;
    format      ascii;
    class       volScalarField;
    location    "10";
    object      alpha.water;
}
// * * * * * * * * * * * * * * * * * * * * * * * * * * * * * * * * * * * * * //

dimensions      [0 0 0 0 0 0 0];


internalField   nonuniform List<scalar> 
14268
(
1
1
1
1
1
1
1
1
1
1
1
1
1
1
1
1
1
1
1
1
1
1
1
1
1
1
1
1
1
1
1
1
1
1
1
1
1
1
1
1
1
1
1
1
1
1
1
1
1
1
1
1
1
1
1
1
1
1
1
1
1
1
1
1
1
1
1
1
1
1
1
1
1
1
1
1
1
1
1
1
1
1
1
1
1
1
1
1
1
1
1
1
1
1
1
1
1
1
1
1
1
1
1
1
1
1
1
1
1
1
1
1
1
1
1
1
1
1
1
1
1
1
1
1
1
1
1
1
1
1
1
1
1
1
1
1
1
1
1
1
1
1
1
1
1
1
1
1
1
1
1
1
1
1
1
1
1
1
1
1
1
1
1
1
1
1
1
1
1
1
1
1
1
1
1
1
1
1
1
1
1
1
1
1
1
1
1
1
1
1
1
1
1
1
1
1
1
1
1
1
1
1
1
1
1
1
1
1
1
1
1
1
1
1
1
1
1
1
1
1
1
1
1
1
1
1
1
1
1
1
1
1
1
1
1
1
1
1
1
1
1
1
1
1
1
1
1
1
1
1
1
1
1
1
1
1
1
1
1
1
1
1
1
1
1
1
1
1
1
1
1
1
1
1
1
1
1
1
1
1
0.894352
0.879538
0.864308
0.848629
0.832474
0.816063
0.79959
0.784029
0.0542277
0.0489447
0.0442119
0.0399294
0.0360069
0.0324449
0.0292474
0.0250578
4.13886e-05
3.62398e-05
3.15693e-05
2.73374e-05
2.35159e-05
2.01452e-05
1.69447e-05
1.4586e-05
-3.13807e-47
2.40163e-47
-5.55316e-48
-1.89925e-29
-2.20707e-28
-4.744e-28
-6.89992e-28
8.20634e-43
1.52532e-27
1.60015e-27
8.51861e-28
-1.49213e-29
-6.02542e-28
-8.02051e-28
-7.11868e-28
4.56825e-23
-2.24261e-28
-7.38708e-28
-1.83563e-27
-1.92864e-27
-1.04647e-27
-4.55816e-28
-1.50538e-28
7.80523e-46
-3.19943e-28
-6.76107e-28
-9.43494e-28
-5.37578e-28
-9.92386e-30
2.51289e-35
1.3843e-29
6.78847e-26
-4.10366e-29
-1.68382e-28
-3.29815e-28
-2.25907e-28
-6.23714e-30
-1.22858e-51
9.39592e-30
4.46417e-29
-1.05144e-29
-4.34864e-29
-8.87859e-29
-6.86678e-29
-3.06395e-30
-3.93018e-31
-1.84432e-33
3.99827e-31
-1.81576e-30
-8.40156e-30
-1.95875e-29
-1.78445e-29
-1.21542e-30
-1.9302e-31
-5.16875e-32
-2.46018e-31
-2.53989e-31
-1.33204e-30
-3.493e-30
-3.62755e-30
-3.68179e-31
-7.08901e-32
-1.99696e-32
-8.97226e-32
-3.45761e-32
-1.82537e-31
-5.02275e-31
-5.74451e-31
-8.3693e-32
-1.92983e-32
-5.92051e-33
-2.34487e-32
-3.44889e-33
-1.98e-32
-5.93371e-32
-7.56792e-32
-1.54061e-32
-4.25057e-33
-1.26462e-33
-3.72487e-33
-3.20652e-34
-1.84854e-33
-5.79897e-33
-8.05082e-33
-2.2056e-33
-7.20341e-34
-2.30975e-34
-5.5754e-34
-2.20815e-35
-1.38389e-34
-4.71918e-34
-7.30362e-34
-2.63983e-34
-1.01933e-34
-3.38454e-35
-5.70931e-35
-1.48298e-36
-9.29106e-36
-3.2849e-35
-5.48406e-35
-2.53262e-35
-1.1414e-35
-4.15651e-36
-5.78689e-36
-7.31026e-38
-4.99308e-37
-1.92114e-36
-3.57311e-36
-2.07622e-36
-1.09298e-36
-4.27358e-37
-4.25831e-37
-3.66219e-39
-2.49176e-38
-9.89317e-38
-1.97851e-37
-1.4088e-37
-8.54585e-38
-3.67569e-38
-3.17758e-38
-1.33138e-40
-9.90236e-40
-4.29309e-39
-9.56959e-39
-8.26318e-39
-5.79443e-39
-2.71553e-39
-1.89153e-39
-5.09088e-42
-3.77151e-41
-1.68458e-40
-4.03101e-40
-4.12908e-40
-3.29794e-40
-1.69615e-40
-1.10568e-40
-1.41038e-43
-1.14178e-42
-5.57675e-42
-1.48569e-41
-1.79593e-41
-1.6424e-41
-9.24249e-42
-5.58831e-42
-4.17888e-45
-3.38384e-44
-1.70616e-43
-4.87708e-43
-6.8222e-43
-7.03094e-43
-4.32893e-43
-2.63605e-43
-9.08451e-47
-8.01286e-46
-4.41388e-45
-1.40086e-44
-2.26756e-44
-2.65124e-44
-1.78836e-44
-1.10671e-44
-2.11301e-48
-1.87788e-47
-1.07204e-46
-3.65019e-46
-6.71106e-46
-8.75792e-46
-6.45252e-46
-4.19993e-46
-3.69101e-50
-3.5572e-49
-2.21337e-48
-8.33757e-48
-1.74911e-47
-2.5669e-47
-2.07473e-47
-1.43469e-47
-6.83282e-52
-6.68959e-51
-4.33335e-50
-1.7509e-49
-4.1157e-49
-6.68997e-49
-5.90993e-49
-4.39023e-49
-9.78581e-54
-1.0343e-52
-7.28251e-52
-3.24435e-51
-8.6121e-51
-1.56045e-50
-1.51405e-50
-1.21715e-50
-1.46177e-55
-1.58202e-54
-1.16489e-53
-5.56741e-53
-1.64068e-52
-3.27412e-52
-3.48006e-52
-3.03518e-52
-1.74767e-57
-2.03476e-56
-1.62506e-55
-8.53585e-55
-2.81413e-54
-6.20536e-54
-7.25404e-54
-6.89746e-54
-2.13501e-59
-2.56352e-58
-2.15089e-57
-1.21429e-56
-4.41729e-56
-1.06812e-55
-1.37251e-55
-1.42244e-55
-2.16958e-61
-2.79607e-60
-2.53906e-59
-1.56766e-58
-6.31669e-58
-1.6755e-57
-2.37328e-57
-2.68927e-57
-2.19932e-63
-2.94405e-62
-2.82436e-61
-1.87835e-60
-8.30754e-60
-2.40774e-59
-3.76214e-59
-4.65838e-59
-1.93298e-65
-2.76916e-64
-2.86216e-63
-2.06942e-62
-1.00506e-61
-3.18011e-61
-5.49209e-61
-7.44106e-61
-1.6545e-67
-2.47928e-66
-2.72129e-65
-2.12149e-64
-1.12521e-63
-3.87919e-63
-7.41407e-63
-1.0987e-62
-1.27177e-69
-2.03155e-68
-2.39358e-67
-2.0199e-66
-1.16843e-65
-4.38557e-65
-9.28817e-65
-1.50564e-64
-9.36491e-72
-1.57462e-70
-1.97702e-69
-1.79798e-68
-1.13029e-67
-4.61442e-67
-1.084e-66
-1.92188e-66
-6.35126e-74
-1.13616e-72
-1.52793e-71
-1.49844e-70
-1.02177e-69
-4.5353e-69
-1.18254e-68
-2.29274e-68
-4.09954e-76
-7.75455e-75
-1.11314e-73
-1.17421e-72
-8.6636e-72
-4.17944e-71
-1.20987e-70
-2.56447e-70
-2.48037e-78
-4.98589e-77
-7.65062e-76
-8.67285e-75
-6.91224e-74
-3.62396e-73
-1.16459e-72
-2.69798e-72
-1.42725e-80
-3.04221e-79
-4.982e-78
-6.05833e-77
-5.20693e-76
-2.96683e-75
-1.05787e-74
-2.67796e-74
-7.76201e-83
-1.75825e-81
-3.07437e-80
-4.00808e-79
-3.71239e-78
-2.3e-77
-9.09317e-77
-2.51553e-76
-4.00728e-85
-9.64212e-84
-1.79861e-82
-2.51103e-81
-2.50456e-80
-1.68774e-79
-7.39002e-79
-2.23534e-78
-6.75386e-88
-1.73046e-86
-3.44646e-85
-5.14522e-84
-5.50981e-83
-3.99533e-82
-1.89854e-81
-6.17208e-81
-5.24491e-91
-1.52622e-89
-3.45901e-88
-5.89051e-87
-7.21293e-86
-6.00146e-85
-3.27938e-84
-1.22137e-83
-3.62336e-94
-1.2174e-92
-3.18951e-91
-6.29425e-90
-8.94436e-89
-8.65722e-88
-5.50952e-87
-2.39216e-86
-2.15018e-97
-8.4857e-96
-2.6142e-94
-6.07488e-93
-1.01733e-91
-1.16186e-90
-8.72425e-90
-4.50323e-89
-1.06245e-100
-5.03238e-99
-1.86151e-97
-5.19449e-96
-1.04414e-94
-1.42947e-93
-1.28429e-92
-8.07215e-92
-4.19662e-104
-2.45318e-102
-1.11907e-100
-3.84607e-99
-9.49706e-98
-1.58934e-96
-1.73573e-95
-1.36373e-94
-1.23149e-107
-9.253e-106
-5.41354e-104
-2.37812e-102
-7.46103e-101
-1.56897e-99
-2.12219e-98
-2.13262e-97
-2.32978e-111
-2.40869e-109
-1.92892e-107
-1.1514e-105
-4.8498e-104
-1.33863e-102
-2.29127e-101
-2.977e-100
-2.02261e-115
-3.30269e-113
-4.12829e-111
-3.7871e-109
-2.39293e-107
-9.45557e-106
-2.10655e-104
-3.51094e-103
-2.25938e-120
-8.83551e-118
-2.56761e-115
-5.24547e-113
-6.9256e-111
-5.10709e-109
-1.55956e-107
-3.31489e-106
1
1
1
1
1
1
1
1
1
1
1
1
1
1
1
1
1
1
1
1
1
1
1
1
1
1
1
1
1
1
1
1
1
1
1
1
1
1
1
1
1
1
1
1
1
1
1
1
1
1
1
1
1
1
1
1
1
1
1
1
1
1
1
1
1
1
1
1
1
1
1
1
1
1
1
1
1
1
1
1
1
1
1
1
1
1
1
1
1
1
1
1
1
1
1
1
1
1
1
1
1
1
1
1
1
1
1
1
1
1
1
1
1
1
1
1
1
1
1
1
1
1
1
1
1
1
1
1
1
1
1
1
1
1
1
1
1
1
1
1
1
1
1
1
1
1
1
1
1
1
1
1
1
1
1
1
1
1
1
1
1
1
1
1
1
1
1
1
1
1
1
1
1
1
1
1
1
1
1
1
1
1
1
1
1
1
1
1
1
1
1
1
1
1
1
1
1
1
1
1
1
1
1
1
1
1
1
1
1
1
1
1
1
1
1
1
1
1
1
1
1
1
1
1
1
1
1
1
1
1
1
1
1
1
1
1
1
1
1
1
1
1
1
1
1
1
1
1
1
1
1
1
1
1
1
1
1
1
1
1
1
1
1
1
1
1
1
1
1
1
1
1
1
1
1
1
1
1
1
1
1
1
1
1
1
1
1
1
1
1
1
1
1
1
1
1
1
1
1
1
1
1
1
1
1
1
1
1
1
1
1
1
1
1
1
1
1
1
1
1
1
1
1
1
1
1
1
1
1
1
1
1
1
1
1
1
1
1
1
1
1
1
1
1
1
1
1
1
1
1
1
1
1
1
1
1
1
1
1
1
1
1
1
1
1
1
1
1
1
1
1
1
1
1
1
1
1
1
1
1
1
1
1
1
1
1
1
1
1
1
1
1
1
1
1
1
1
1
1
1
1
1
1
1
1
1
1
1
1
1
1
1
1
1
1
1
1
1
1
1
1
1
1
1
1
1
1
1
1
1
1
1
1
1
1
1
1
1
1
1
1
1
1
1
1
1
1
1
1
1
1
1
1
1
1
1
1
1
1
1
1
1
1
1
1
1
1
1
1
1
1
1
1
1
1
1
1
1
1
1
1
1
1
1
1
1
1
1
1
1
1
1
1
1
1
1
1
1
1
1
1
1
1
1
1
1
1
1
1
1
1
1
1
1
1
1
1
1
1
1
1
1
1
1
1
1
1
1
1
1
1
1
1
1
1
1
1
1
1
1
1
1
1
1
1
1
1
1
1
1
1
1
1
1
1
1
1
1
1
1
1
1
1
1
1
1
1
1
1
1
1
1
1
1
1
1
1
1
1
1
1
1
1
1
1
1
1
1
1
1
1
1
1
1
1
1
1
1
1
1
1
1
1
1
1
1
1
1
1
1
1
1
1
1
1
1
1
1
1
1
1
1
1
1
1
1
1
1
1
1
1
1
1
1
1
1
1
1
1
1
1
1
1
1
1
1
1
1
1
1
1
1
1
1
1
1
1
1
1
1
1
1
1
1
1
1
1
1
1
1
1
1
1
1
1
1
1
1
1
1
1
1
1
1
1
1
1
1
1
1
1
1
1
1
1
1
1
1
1
1
1
1
1
1
1
1
1
1
1
1
1
1
1
1
1
1
1
1
1
1
1
1
1
1
1
1
1
1
1
1
1
1
1
1
1
1
1
1
1
1
1
1
1
1
1
1
1
1
1
1
1
1
1
1
1
1
1
1
1
1
1
1
1
1
1
1
1
1
1
1
1
1
1
1
1
1
1
1
1
1
1
1
1
1
1
1
1
1
1
1
1
1
1
1
1
1
1
1
1
1
1
1
1
1
1
1
1
1
1
1
1
1
1
1
1
1
1
1
1
1
1
1
1
1
1
1
1
1
1
1
1
1
1
1
1
1
1
1
1
1
1
1
1
1
1
1
1
1
1
1
1
1
1
1
1
1
1
1
1
1
1
1
1
1
1
1
1
1
1
1
1
1
1
1
1
1
1
1
1
1
1
1
1
1
1
1
1
1
1
1
1
1
1
1
1
1
1
1
1
1
1
1
1
1
1
1
1
1
1
1
1
1
1
1
1
1
1
1
1
1
1
1
1
1
1
1
1
1
1
1
1
1
1
1
1
1
1
1
1
1
1
1
1
1
1
1
1
1
1
1
1
1
1
1
1
1
1
1
1
1
1
1
1
1
1
1
1
1
1
1
1
1
1
1
1
1
1
1
1
1
1
1
1
1
1
1
1
1
1
1
1
1
1
1
1
1
1
1
1
1
1
1
1
1
1
1
1
1
1
1
1
1
1
1
1
1
1
1
1
1
1
1
1
1
1
1
1
1
1
1
1
1
1
1
1
1
1
1
1
1
1
1
1
1
1
1
1
1
1
1
1
1
1
1
1
1
1
1
1
1
1
1
1
1
1
1
1
1
1
1
1
1
1
1
1
1
1
1
1
1
1
1
1
1
1
1
1
1
1
1
1
1
1
1
1
1
1
1
1
1
1
1
1
1
1
1
1
1
1
1
1
1
1
1
1
1
1
1
1
1
1
1
1
1
1
1
1
1
1
1
1
1
1
1
1
1
1
1
1
1
1
1
1
1
1
1
1
1
1
1
1
1
1
1
1
1
1
1
1
1
1
1
1
1
1
1
1
1
1
1
1
1
1
1
1
1
1
1
1
1
1
1
1
1
1
1
1
1
1
1
1
1
1
1
1
1
1
1
1
1
1
1
1
1
1
1
1
1
1
1
1
1
1
1
1
1
1
1
1
1
1
1
1
1
1
1
1
1
1
1
1
1
1
1
1
1
1
1
1
1
1
1
1
1
1
1
1
1
1
1
1
1
1
1
1
1
1
1
1
1
1
1
1
1
1
1
1
1
1
1
1
1
1
1
1
1
1
1
1
1
1
1
1
1
1
1
1
1
1
1
1
1
1
1
1
1
1
1
1
1
1
1
1
1
1
1
1
1
1
1
1
1
1
1
1
1
1
1
1
1
1
1
1
1
1
1
1
1
1
1
1
1
1
1
1
1
1
1
1
1
1
1
1
1
1
1
1
1
1
1
1
1
1
1
1
1
1
1
1
1
1
1
1
1
1
1
1
1
1
1
1
1
1
1
1
1
1
1
1
1
1
1
1
1
1
1
1
1
1
1
1
1
1
1
1
1
1
1
1
1
1
1
1
1
1
1
1
1
1
1
1
1
1
1
1
1
1
1
1
1
1
1
1
1
1
1
1
1
1
1
1
1
1
1
1
1
1
1
1
1
1
1
1
1
1
1
1
1
1
1
1
1
1
1
1
1
1
1
1
1
1
1
1
1
1
1
1
1
1
1
1
1
1
1
1
1
1
1
1
1
1
1
1
1
1
1
1
1
1
1
1
1
1
1
1
1
1
1
1
1
1
1
1
1
1
1
1
1
1
1
1
1
1
1
1
1
1
1
1
1
1
1
1
1
1
1
1
1
1
1
1
1
1
1
1
1
1
1
1
1
1
1
1
1
1
1
1
1
1
1
1
1
1
1
1
1
1
1
1
1
1
1
1
1
1
1
1
1
1
1
1
1
1
1
1
1
1
1
1
1
1
1
1
1
1
1
1
1
1
1
1
1
1
1
1
1
1
1
1
1
1
1
1
1
1
1
1
1
1
1
1
1
1
1
1
1
1
1
1
1
1
1
1
1
1
1
1
1
1
1
1
1
1
1
1
1
1
1
1
1
1
1
1
1
1
1
1
1
1
1
1
1
1
1
1
1
1
1
1
1
1
1
1
1
1
1
1
1
1
1
1
1
1
1
1
1
1
1
1
1
1
1
1
1
1
1
1
1
1
1
1
1
1
1
1
1
1
1
1
1
1
1
1
1
1
1
1
1
1
1
1
1
1
1
1
1
1
1
1
1
1
1
1
1
1
1
1
1
1
1
1
1
1
1
1
1
1
1
1
1
1
1
1
1
1
1
1
1
1
1
1
1
1
1
1
1
1
1
1
1
1
1
1
1
1
1
1
1
1
1
1
1
1
1
1
1
1
1
1
1
1
1
1
1
1
1
1
1
1
1
1
1
1
1
1
1
1
1
1
1
1
1
1
1
1
1
1
1
1
1
1
1
1
1
1
1
1
1
1
1
1
1
1
1
1
1
1
1
1
1
1
1
1
1
1
1
1
1
1
1
1
1
1
1
1
1
1
1
1
1
1
1
1
1
1
1
1
1
1
1
1
1
1
1
1
1
1
1
1
1
1
1
1
1
1
1
1
1
1
1
1
1
1
1
1
1
1
1
1
1
1
1
1
1
1
1
1
1
1
1
1
1
1
1
1
1
1
1
1
1
1
1
1
1
1
1
1
1
1
1
1
1
1
1
1
1
1
1
1
1
1
1
1
1
1
1
1
1
1
1
1
1
1
1
1
1
1
1
1
1
1
1
1
1
1
1
1
1
1
1
1
1
1
1
1
1
1
1
1
1
1
1
1
1
1
1
1
1
1
1
1
1
1
1
1
1
1
1
1
1
1
1
1
1
1
1
1
1
1
1
1
1
1
1
1
1
1
1
1
1
1
1
1
1
1
1
1
1
1
1
1
1
1
1
1
1
1
1
1
1
1
1
1
1
1
1
1
1
1
1
1
1
1
1
1
1
1
1
1
1
1
1
1
1
1
1
1
1
1
1
1
1
1
1
1
1
1
1
1
1
1
1
1
1
1
1
1
1
1
1
1
1
1
1
1
1
1
1
1
1
1
1
1
1
1
1
1
1
1
1
1
1
1
1
1
1
1
1
1
1
1
1
1
1
1
1
1
1
1
1
1
1
1
1
1
1
1
1
1
1
1
1
1
1
1
1
1
1
1
1
1
1
1
1
1
1
1
1
1
1
1
1
1
1
1
1
1
1
1
1
1
1
1
1
1
1
1
1
1
1
1
1
1
1
1
1
1
1
1
1
1
1
1
1
1
1
1
1
1
1
1
1
1
1
1
1
1
1
1
1
1
1
1
1
1
1
1
1
1
1
1
1
1
1
1
1
1
1
1
1
1
1
1
1
1
1
1
1
1
1
1
1
1
1
1
1
1
1
1
1
1
1
1
1
1
1
1
1
1
1
1
1
1
1
1
1
1
1
1
1
1
1
1
1
1
1
1
1
1
1
1
1
1
1
1
1
1
1
1
1
1
1
1
1
1
1
1
1
1
1
1
1
1
1
1
1
1
1
1
1
1
1
1
1
1
1
1
1
1
1
1
1
1
1
1
1
1
1
1
1
1
1
1
1
1
1
1
1
1
1
1
1
1
1
1
1
1
1
1
1
1
1
1
1
1
1
1
1
1
1
1
1
1
1
1
1
1
1
1
1
1
1
1
1
1
1
1
1
1
1
1
1
1
1
1
1
1
1
1
1
1
1
1
1
1
1
1
1
1
1
1
1
1
1
1
1
1
1
1
1
1
1
1
1
1
1
1
1
1
1
1
1
1
1
1
1
1
1
1
1
1
1
1
1
1
1
1
1
1
1
1
1
1
1
1
1
1
1
1
1
1
1
1
1
1
1
1
1
1
1
1
1
1
1
1
1
1
1
1
1
1
1
1
1
1
1
1
1
1
1
1
1
1
1
1
1
1
1
1
1
1
1
1
1
1
1
1
1
1
1
1
1
1
1
1
1
1
1
1
1
1
1
1
1
1
1
1
1
1
1
1
1
1
1
1
1
1
1
1
1
1
1
1
1
1
1
1
1
1
1
1
1
1
1
1
1
1
1
1
1
1
1
1
1
1
1
1
1
1
1
1
1
1
1
1
1
1
1
1
1
1
1
1
1
1
1
1
1
1
1
1
1
1
1
1
1
1
1
1
1
1
1
1
1
1
1
1
1
1
1
1
1
1
1
1
1
1
1
1
1
1
1
1
1
1
1
1
1
1
1
1
1
1
1
1
1
1
1
1
1
1
1
1
1
1
1
1
1
1
1
1
1
1
1
1
1
1
1
1
1
1
1
1
1
1
1
1
1
1
1
1
1
1
1
1
1
1
1
1
1
1
1
1
1
1
1
1
1
1
1
1
1
1
1
1
1
1
1
1
1
1
1
1
1
1
1
1
1
1
1
1
1
1
1
1
1
1
1
1
1
1
1
1
1
1
1
1
1
1
1
1
1
1
1
1
1
1
1
1
1
1
1
1
1
1
1
1
1
1
1
1
1
1
1
1
1
1
1
1
1
1
1
1
1
1
1
1
1
1
1
1
1
1
1
1
1
1
1
1
1
1
1
1
1
1
1
1
1
1
1
1
1
1
1
1
1
1
1
1
1
1
1
1
1
1
1
1
1
1
1
1
1
1
1
1
1
1
1
1
1
1
1
1
1
1
1
1
1
1
1
1
1
1
1
1
1
1
1
1
1
1
1
1
1
1
1
1
1
1
1
1
1
1
1
1
1
1
1
1
1
1
1
1
1
1
1
1
1
1
1
1
1
1
1
1
1
1
1
1
1
1
1
1
1
1
1
1
1
1
1
1
1
1
1
1
1
1
1
1
1
1
1
1
1
1
1
1
1
1
1
1
1
1
1
1
1
1
1
1
1
1
1
1
1
1
1
1
1
1
1
1
1
1
1
1
1
1
1
1
1
1
1
1
1
1
1
1
1
1
1
1
1
1
1
1
1
1
1
1
1
1
1
1
1
1
1
1
1
1
1
1
1
1
1
1
1
1
1
1
1
1
1
1
1
1
1
1
1
1
1
1
1
1
1
1
1
1
1
1
1
1
1
1
1
1
1
1
1
1
1
1
1
1
1
1
1
1
1
1
1
1
1
1
1
1
1
1
1
1
1
1
1
1
1
1
1
1
1
1
1
1
1
1
1
1
1
1
1
1
1
1
1
1
1
1
1
1
1
1
1
1
1
1
1
1
1
1
1
1
1
1
1
1
1
1
1
1
1
1
1
1
1
1
1
1
1
1
1
1
1
1
1
1
1
1
1
1
1
1
1
1
1
1
1
1
1
1
1
1
1
1
1
1
1
1
1
1
1
1
1
1
1
1
1
1
1
1
1
1
1
1
1
1
1
1
1
1
1
1
1
1
1
1
1
1
1
1
1
1
1
1
1
1
1
1
1
1
1
1
1
1
1
1
1
1
1
1
1
1
1
1
1
1
1
1
1
1
1
1
1
1
1
1
1
1
1
1
1
1
1
1
1
1
1
1
1
1
1
1
1
1
1
1
1
1
1
1
1
1
1
1
1
1
1
1
1
1
1
1
1
1
1
1
1
1
1
1
1
1
1
1
1
1
1
1
1
1
1
1
1
1
1
1
1
1
1
1
1
1
1
1
1
1
1
1
1
1
1
1
1
1
1
1
1
1
1
1
1
1
1
1
1
1
1
1
1
1
1
1
1
1
1
1
1
1
1
1
1
1
1
1
1
1
1
1
1
1
1
1
1
1
1
1
1
1
1
1
1
1
1
1
1
1
1
1
1
1
1
1
1
1
1
1
1
1
1
1
1
1
1
1
1
1
1
1
1
1
1
1
1
1
1
1
1
1
1
1
1
1
1
1
1
1
1
1
1
1
1
1
1
1
1
1
1
1
1
1
1
1
1
1
1
1
1
1
1
1
1
1
1
1
1
1
1
1
1
1
1
1
1
1
1
1
1
1
1
1
1
1
1
1
1
1
1
1
1
1
1
1
1
1
1
1
1
1
1
1
1
1
1
1
1
1
1
1
1
1
1
1
1
1
1
1
1
1
1
1
1
1
1
1
1
1
1
1
1
1
1
1
1
1
1
1
1
1
1
1
1
1
1
1
1
1
1
1
1
1
1
1
1
1
1
1
1
1
1
1
1
1
1
1
1
1
1
1
1
1
1
1
1
1
1
1
1
1
1
1
1
1
1
1
1
1
1
1
1
1
1
1
1
1
1
1
1
1
1
1
1
1
1
1
1
1
1
1
1
1
1
1
1
1
1
1
1
1
1
1
1
1
1
1
1
1
1
1
1
1
1
1
1
1
1
1
1
1
1
1
1
1
1
1
1
1
1
1
1
1
1
1
1
1
1
1
1
1
1
1
1
1
1
1
1
1
1
1
1
1
1
1
1
1
1
1
1
1
1
1
1
1
1
1
1
1
1
1
1
1
1
1
1
1
1
1
1
1
1
1
1
1
1
1
1
1
1
1
1
1
1
1
1
1
1
1
1
1
1
1
1
1
1
1
1
1
1
1
1
1
1
1
1
1
1
1
1
1
1
1
1
1
1
1
1
1
1
1
1
1
1
1
1
1
1
1
1
1
1
1
1
1
1
1
1
1
1
1
1
1
1
1
1
1
1
1
1
1
1
1
1
1
1
1
1
1
1
1
1
1
1
1
1
1
1
1
1
1
1
1
1
1
1
1
1
1
1
1
1
1
1
1
1
1
1
1
1
1
1
1
1
1
1
1
1
1
1
1
1
1
1
1
1
1
1
1
1
1
1
1
1
1
1
1
1
1
1
1
1
1
1
1
1
1
1
1
1
1
1
1
1
1
1
1
1
1
1
1
1
1
1
1
1
1
1
1
1
1
1
1
1
1
1
1
1
1
1
1
1
1
1
1
1
1
1
1
1
1
1
1
1
1
1
1
1
1
1
1
1
1
1
1
1
1
1
1
1
1
1
1
1
1
1
1
1
1
1
1
1
1
1
1
1
1
1
1
1
1
1
1
1
1
1
1
1
1
1
1
1
1
1
1
1
1
1
1
1
1
1
1
1
1
1
1
1
1
1
1
1
1
1
1
1
1
1
1
1
1
1
1
1
1
1
1
1
1
1
1
1
1
1
1
1
1
1
1
1
1
1
1
1
1
1
1
1
1
1
1
1
1
1
1
1
1
1
1
1
1
1
1
1
1
1
1
1
1
1
1
1
1
1
1
1
1
1
1
1
1
1
1
1
1
1
1
1
1
1
1
1
1
1
1
1
1
1
1
1
1
1
1
1
1
1
1
1
1
1
1
1
1
1
1
1
1
1
1
1
1
1
1
1
1
1
1
1
1
1
1
1
1
1
1
1
1
1
1
1
1
1
1
1
1
1
1
1
1
1
1
1
1
1
1
1
1
1
1
1
1
1
1
1
1
1
1
1
1
1
1
1
1
1
1
1
1
1
1
1
1
1
1
1
1
1
1
1
1
1
1
1
1
1
1
1
1
1
1
1
1
1
1
1
1
1
1
1
1
1
1
1
1
1
1
1
1
1
1
1
1
1
1
1
1
1
1
1
1
1
1
1
1
1
1
1
1
1
1
1
1
1
1
1
1
1
1
1
1
1
1
1
1
1
1
1
1
1
1
1
1
1
1
1
1
1
1
1
1
1
1
1
1
1
1
1
1
1
1
1
1
1
1
1
1
1
1
1
1
1
1
1
1
1
1
1
1
1
1
1
1
1
1
1
1
1
1
1
1
1
1
1
1
1
1
1
1
1
1
1
1
1
1
1
1
1
1
1
1
1
1
1
1
1
1
1
1
1
1
1
1
1
1
1
1
1
1
1
1
1
1
1
1
1
1
1
1
1
1
1
1
1
1
1
1
1
1
1
1
1
1
1
1
1
1
1
1
1
1
1
1
1
1
1
1
1
1
1
1
1
1
1
1
1
1
1
1
1
1
1
1
1
1
1
1
1
1
1
1
1
1
1
1
1
1
1
1
1
1
1
1
1
1
1
1
1
1
1
1
1
1
1
1
1
1
1
1
1
1
1
1
1
1
1
1
1
1
1
1
1
1
1
1
1
1
1
1
1
1
1
1
1
1
1
1
1
1
1
1
1
1
1
1
1
1
1
1
1
1
1
1
1
1
1
1
1
1
1
1
1
1
1
1
1
1
1
1
1
1
1
1
1
1
1
1
1
1
1
1
1
1
1
1
1
1
1
1
1
1
1
1
1
1
1
1
1
1
1
1
1
1
1
1
1
1
1
1
1
1
1
1
1
1
1
1
1
1
1
1
1
1
1
1
1
1
1
1
1
1
1
1
1
1
1
1
1
1
1
1
1
1
1
1
1
1
1
1
1
1
1
1
1
1
1
1
1
1
1
1
1
1
1
1
1
1
1
1
1
1
1
1
1
1
1
1
1
1
1
1
1
1
1
1
1
1
1
1
1
1
1
1
1
1
1
1
1
1
1
1
1
1
1
1
1
1
1
1
1
1
1
1
1
1
1
1
1
1
1
1
1
1
1
1
1
1
1
1
1
1
1
1
1
1
1
1
1
1
1
1
1
1
1
1
1
1
1
1
1
1
1
1
1
1
1
1
1
1
1
1
1
1
1
1
1
1
1
1
1
1
1
1
1
1
1
1
1
1
1
1
1
1
1
1
1
1
1
1
1
1
1
1
1
1
1
1
1
1
1
1
1
1
1
1
1
1
1
1
1
1
1
1
1
1
1
1
1
1
1
1
1
1
1
1
1
1
1
1
1
1
1
1
1
1
1
1
1
1
1
1
1
1
1
1
1
1
1
1
1
1
1
1
1
1
1
1
1
1
1
1
1
1
1
1
1
1
1
1
1
1
1
1
1
1
1
1
1
1
1
1
1
1
1
1
1
1
1
1
1
1
1
1
1
1
1
1
1
1
1
1
1
1
1
1
1
1
1
1
1
1
1
1
1
1
1
1
1
1
1
1
1
1
1
1
1
1
1
1
1
1
1
1
1
1
1
1
1
1
1
1
1
1
1
1
1
1
1
1
1
1
1
1
1
1
1
1
1
1
1
1
1
1
1
1
1
1
1
1
1
1
1
1
1
1
1
1
1
1
1
1
1
1
1
1
1
1
1
1
1
1
1
1
1
1
1
1
1
1
1
1
1
1
1
1
1
1
1
1
1
1
1
1
1
1
1
1
1
1
1
1
1
1
1
1
1
1
1
1
1
1
1
1
1
1
1
1
1
1
1
1
1
1
1
1
1
1
1
1
1
1
1
1
1
1
1
1
1
1
1
1
1
1
1
1
1
1
1
1
1
1
1
1
1
1
1
1
1
1
1
1
1
1
1
1
1
1
1
1
1
1
1
1
1
1
1
1
1
1
1
1
1
1
1
1
1
1
1
1
1
1
1
1
1
1
1
1
1
1
1
1
1
1
1
1
1
1
1
1
1
1
1
1
1
1
1
1
1
1
1
1
1
1
1
1
1
1
1
1
1
1
1
1
1
1
1
1
1
1
1
1
1
1
1
1
1
1
1
1
1
1
1
1
1
1
1
1
1
1
1
1
1
1
1
1
1
1
1
1
1
1
1
1
1
1
1
1
1
1
1
1
1
1
1
1
1
1
1
1
1
1
1
1
1
1
1
1
1
1
1
1
1
1
1
1
1
1
1
1
1
1
1
1
1
1
1
1
1
1
1
1
1
1
1
1
1
1
1
1
1
1
1
1
1
1
1
1
1
1
1
1
1
1
1
1
1
1
1
1
1
1
1
1
1
1
1
1
1
1
1
1
1
1
1
1
1
1
1
1
1
1
1
1
1
1
1
1
1
1
1
1
1
1
1
1
1
1
1
1
1
1
1
1
1
1
1
1
1
1
1
1
1
1
1
1
1
1
1
1
1
1
1
1
1
1
1
1
1
1
1
1
1
1
1
1
1
1
1
1
1
1
1
1
1
1
1
1
1
1
1
1
1
1
1
1
1
1
1
1
1
1
1
1
1
1
1
1
1
1
1
1
1
1
1
1
1
1
1
1
1
1
1
1
1
1
1
1
1
1
1
1
1
1
1
1
1
1
1
1
1
1
1
1
1
1
1
1
1
1
1
1
1
1
1
1
1
1
1
1
1
1
1
1
1
1
1
1
1
1
1
1
1
1
1
1
1
1
1
1
1
1
1
1
1
1
1
1
1
1
1
1
1
1
1
1
1
1
1
1
1
1
1
1
1
1
1
1
1
1
1
1
1
1
1
1
1
1
1
1
1
1
1
1
1
1
1
1
1
1
1
1
1
1
1
1
1
1
1
1
1
1
1
1
1
1
1
1
1
1
1
1
1
1
1
1
1
1
1
1
1
1
1
1
1
1
1
1
1
1
1
1
1
1
1
1
1
1
1
1
1
1
1
1
1
1
1
1
1
1
1
1
1
1
1
1
1
1
1
1
1
1
1
1
1
1
1
1
1
1
1
1
1
1
1
1
1
1
1
1
1
1
1
1
1
1
1
1
1
1
1
1
1
1
1
1
1
1
1
1
1
1
1
1
1
1
1
1
1
1
1
1
1
1
1
1
1
1
1
1
1
1
1
1
1
1
1
1
1
1
1
1
1
1
1
1
1
1
1
1
1
1
1
1
1
1
1
1
1
1
1
1
1
1
1
1
1
1
1
1
1
1
1
1
1
1
1
1
1
0.775551
0.778269
0.780778
0.781477
0.782209
0.783577
0.784854
0.785354
0.785495
0.785465
0.784731
0.783213
0.7826
0.783994
0.781813
0.774066
0.774298
0.787187
0.795381
0.79327
0.786429
0.774295
0.762362
0.769249
0.779993
0.773472
0.760492
0.756589
0.771703
0.791975
0.80209
0.804731
0.805933
0.80686
0.807483
0.807792
0.807829
0.80775
0.807602
0.807407
0.807184
0.806947
0.806711
0.806486
0.806279
0.806095
0.805937
0.805804
0.805697
0.805613
0.80555
0.805506
0.805478
0.805463
0.805459
0.805463
0.805473
0.805489
0.805512
0.80554
0.805572
0.805606
0.805639
0.805671
0.8057
0.805727
0.805752
0.805773
0.805791
0.805807
0.805819
0.805829
0.805837
0.805843
0.805847
0.80585
0.805851
0.805851
0.805851
0.80585
0.805849
0.805848
0.805847
0.805845
0.805844
0.805843
0.805841
0.80584
0.805838
0.805836
0.805835
0.805833
0.805832
0.805831
0.805829
0.805828
0.805826
0.805825
0.805824
0.805823
0.805821
0.80582
0.805818
0.805817
0.805815
0.805813
0.805812
0.805811
0.80581
0.805809
0.805809
0.80581
0.805811
0.805813
0.805815
0.805819
0.805824
0.805831
0.805839
0.80585
0.805863
0.805878
0.805898
0.805921
0.805949
0.805982
0.806022
0.806069
0.806125
0.80619
0.806266
0.806354
0.806457
0.806575
0.80671
0.806864
0.807038
0.807235
0.807456
0.807703
0.807976
0.808277
0.808606
0.808963
0.809347
0.809758
0.810193
0.810649
0.811122
0.811607
0.812098
0.812588
0.813068
0.813531
0.813969
0.814373
0.0237245
0.0221123
0.0210852
0.0204938
0.0199198
0.0190031
0.0178711
0.0169451
0.0161778
0.0154839
0.0148269
0.0136673
0.0126456
0.0127513
0.0133823
0.0159079
0.0314685
0.0512312
0.0434727
0.030793
0.024391
0.020493
0.0235739
0.0390617
0.0451337
0.0401891
0.0259155
0.0194968
0.0202358
0.0172426
0.00948718
0.0062549
0.00563119
0.00538677
0.00522993
0.00510439
0.00498274
0.00475552
0.00442183
0.00401511
0.00356735
0.00310417
0.00264728
0.00221405
0.00181619
0.001461
0.00115204
0.000889831
0.000672655
0.000497222
0.000359262
0.000253933
0.000176346
0.000121825
8.60325e-05
6.50943e-05
5.55565e-05
5.41266e-05
5.41966e-05
5.42623e-05
5.43202e-05
5.43702e-05
5.44108e-05
5.44403e-05
5.44576e-05
5.44612e-05
5.44512e-05
5.44236e-05
5.43774e-05
5.43123e-05
5.42254e-05
5.41147e-05
5.39755e-05
5.38037e-05
5.35959e-05
5.33495e-05
5.30582e-05
5.27165e-05
5.2056e-05
5.09241e-05
4.94097e-05
4.7594e-05
4.55464e-05
4.33217e-05
4.09723e-05
3.85408e-05
3.60618e-05
3.35635e-05
3.10684e-05
2.85946e-05
2.61566e-05
2.3766e-05
2.14318e-05
1.91622e-05
1.69644e-05
1.48474e-05
1.28219e-05
1.09026e-05
9.10922e-06
7.47778e-06
6.0451e-06
4.83709e-06
4.00899e-06
3.66747e-06
3.71256e-06
4.0554e-06
4.68445e-06
5.63793e-06
6.97802e-06
8.7893e-06
1.11822e-05
1.42947e-05
1.82929e-05
2.33734e-05
2.97677e-05
3.77539e-05
4.76731e-05
5.99231e-05
7.49674e-05
9.33483e-05
0.0001157
0.00014276
0.000175383
0.000214558
0.000261419
0.000317259
0.000383547
0.000461936
0.000554276
0.000662615
0.0007892
0.000936474
0.00110706
0.00130373
0.0015294
0.00178705
0.00207968
0.00241025
0.00278159
0.00319626
0.00365648
0.00416395
0.00471969
0.00532388
0.00597566
0.00667296
0.00741226
0.00818848
0.0089948
0.00982264
0.0106617
0.0115
0.0123234
0.0131174
0.0138685
0.0145622
1.32561e-05
1.15223e-05
1.00785e-05
8.90599e-06
7.91465e-06
7.03401e-06
6.29542e-06
5.70825e-06
5.21367e-06
4.79867e-06
4.35764e-06
3.7845e-06
3.59447e-06
3.76483e-06
3.86799e-06
3.90328e-06
4.12051e-06
4.74461e-06
6.66945e-06
8.25356e-06
7.25127e-06
5.84128e-06
6.54845e-06
1.00833e-05
1.13445e-05
7.12476e-06
1.02761e-06
7.14091e-11
3.11745e-11
1.17588e-11
4.13179e-12
1.3028e-12
5.08287e-13
3.02581e-13
2.25931e-13
1.83472e-13
1.54062e-13
1.30497e-13
1.10138e-13
9.20516e-14
7.58139e-14
6.14336e-14
4.8874e-14
3.80442e-14
2.88926e-14
2.13436e-14
1.53047e-14
1.06392e-14
7.17095e-15
4.71253e-15
3.05644e-15
2.00292e-15
1.36831e-15
1.00341e-15
7.97413e-16
6.78923e-16
6.05247e-16
5.53917e-16
5.11933e-16
4.74895e-16
4.41885e-16
4.11993e-16
3.84648e-16
3.5948e-16
3.36243e-16
3.14709e-16
2.9456e-16
2.7577e-16
2.58267e-16
2.41763e-16
2.2622e-16
2.11564e-16
1.97798e-16
1.84853e-16
1.7261e-16
1.60987e-16
1.4997e-16
1.39379e-16
1.28871e-16
1.18322e-16
1.07844e-16
9.75504e-17
8.76152e-17
7.81605e-17
6.92648e-17
6.09784e-17
5.3339e-17
4.63682e-17
4.00804e-17
3.4454e-17
2.94718e-17
2.51178e-17
2.13618e-17
1.81745e-17
1.55287e-17
1.34113e-17
1.17461e-17
1.04792e-17
9.43833e-18
8.56329e-18
7.45323e-18
5.13197e-18
2.7058e-18
1.34813e-18
8.14328e-19
6.58292e-19
6.73986e-19
8.24095e-19
1.13485e-18
1.6801e-18
2.60279e-18
4.13021e-18
6.62613e-18
1.06668e-17
1.7128e-17
2.7307e-17
4.3121e-17
6.73699e-17
1.0408e-16
1.58929e-16
2.39741e-16
3.57192e-16
5.25412e-16
7.62823e-16
1.09307e-15
1.54549e-15
2.15594e-15
2.96687e-15
4.02717e-15
5.3924e-15
7.12396e-15
9.2878e-15
1.19542e-14
1.51976e-14
1.90969e-14
2.37369e-14
2.92105e-14
3.56216e-14
4.30883e-14
5.17421e-14
6.1735e-14
7.32421e-14
8.6435e-14
1.01513e-13
1.18682e-13
1.38115e-13
1.59969e-13
1.8434e-13
2.11245e-13
2.40588e-13
2.72135e-13
3.05486e-13
3.40039e-13
3.75034e-13
4.09592e-13
4.42774e-13
-8.25019e-42
1.95575e-21
3.60958e-21
7.21754e-21
2.19604e-20
3.90665e-20
1.09464e-19
1.99005e-19
4.92253e-22
4.92227e-22
1.60241e-19
1.73407e-19
1.53179e-19
1.0306e-19
5.67415e-20
2.34046e-25
2.6387e-25
7.75963e-25
6.40815e-25
1.63319e-25
2.74146e-26
1.0925e-25
2.47385e-26
9.50428e-36
-4.39076e-37
-4.75896e-46
-1.31549e-46
-3.8692e-56
-4.57208e-66
-2.74852e-76
-6.98664e-78
-2.80772e-88
-5.06283e-90
-1.18818e-100
-2.08871e-111
-2.88772e-122
-3.24218e-133
-3.00005e-144
-1.31794e-146
-8.73264e-158
-2.80704e-160
-1.38922e-171
-5.99081e-183
-1.28196e-185
-4.29864e-197
-7.23659e-200
-1.93026e-211
-2.61239e-214
-5.66256e-226
-1.11224e-237
-1.98363e-249
-1.81764e-252
-2.68852e-264
-3.61832e-276
-4.42418e-288
-2.77322e-291
-2.79491e-303
-2.55287e-315
0
0
0
0
0
0
0
0
0
0
0
0
0
0
0
0
0
0
0
0
5.74086e-167
3.66674e-87
-1.18576e-85
-1.37277e-74
2.69093e-60
7.06731e-62
7.14832e-65
1.63219e-66
4.93634e-51
-1.13892e-50
1.16338e-48
7.34521e-50
1.01436e-51
-2.9947e-48
8.92614e-49
-1.36023e-53
-4.01555e-61
-5.21771e-63
-1.02365e-60
-7.89584e-57
-2.96318e-56
-1.34166e-55
-3.98023e-57
2.33811e-56
4.22704e-54
2.13704e-53
4.90698e-56
3.64021e-53
1.0571e-54
-6.21521e-52
-4.43992e-56
-6.16453e-59
-5.10316e-66
-6.49779e-69
-4.11976e-75
-1.73637e-79
-1.91122e-83
-2.10928e-87
-2.40978e-90
-1.50461e-95
-1.58656e-98
-5.57523e-104
-2.81876e-108
-1.34692e-112
-6.24228e-117
-3.14417e-121
-2.02651e-125
-1.25975e-129
-1.56773e-132
-5.13118e-138
-8.09096e-141
-2.32988e-146
-1.55149e-150
-9.97385e-155
-2.97767e-157
-3.57256e-163
-1.94565e-167
-9.80439e-172
-4.57074e-176
-2.00223e-180
-8.17929e-185
-3.19817e-189
-1.22991e-193
-1.42328e-195
-2.1142e-202
-3.13483e-204
-4.12959e-211
-1.74621e-215
-6.99732e-220
-2.48433e-224
-6.44118e-226
-2.72707e-233
-7.83868e-238
-2.7717e-239
-5.76888e-247
-2.48263e-248
-3.14694e-256
-1.63618e-257
4.81515e-22
2.55989e-21
5.41725e-21
5.60818e-21
4.88711e-21
3.6899e-21
2.51081e-21
1.50554e-21
8.15055e-22
4.93539e-22
3.66354e-22
2.91049e-22
2.02183e-22
1.17935e-22
1.16391e-22
2.13971e-22
2.73488e-22
1.63845e-22
5.71934e-23
2.70303e-23
1.90301e-23
7.30539e-24
3.03401e-25
3.5646e-39
-2.73348e-30
-2.00386e-30
-6.61691e-31
-9.92406e-32
-7.36462e-33
-3.2496e-34
-1.01192e-35
-2.57889e-37
-5.40608e-39
-9.25008e-41
-1.319e-42
-1.60145e-44
-1.69026e-46
-1.57359e-48
-1.30187e-50
-9.5995e-53
-6.31623e-55
-3.7131e-57
-1.95386e-59
-9.22935e-62
-3.92673e-64
-1.51051e-66
-5.27492e-69
-1.67896e-71
-4.88931e-74
-1.30705e-76
-3.21603e-79
-7.29604e-82
-1.52736e-84
-2.95004e-87
-5.25276e-90
-8.61095e-93
-1.29763e-95
-1.7946e-98
-2.2766e-101
-2.65232e-104
-2.84174e-107
-2.80338e-110
-2.54894e-113
-2.13798e-116
-1.65561e-119
-1.18449e-122
-7.83469e-126
-4.79402e-129
-2.71539e-132
-1.42456e-135
-6.92632e-139
-3.12281e-142
-1.30636e-145
-5.07353e-149
-1.83042e-152
-6.13804e-156
-1.91414e-159
-5.55401e-163
-1.49954e-166
2.13979e-98
-7.02336e-88
-4.12858e-77
2.5531e-71
6.45224e-73
3.04764e-68
7.03364e-70
2.0685e-55
-1.58398e-53
2.03009e-54
4.65655e-52
8.11874e-54
-8.8904e-51
6.55136e-50
9.72753e-52
5.71016e-74
-3.06311e-64
1.13052e-61
1.42312e-55
2.38581e-54
9.14552e-54
-3.16509e-53
-9.19315e-51
-4.26159e-49
-5.87032e-51
-8.50709e-49
-2.90976e-51
-5.4113e-53
-3.73496e-55
-2.69128e-58
-1.37548e-61
-4.34945e-65
-1.01244e-68
-1.78253e-72
-2.41666e-76
-2.5512e-80
-2.1112e-84
-1.37531e-88
-7.08208e-93
-2.90543e-97
-9.66887e-102
-2.71973e-106
-7.08365e-111
-2.06866e-115
-8.92796e-120
-6.22347e-124
-5.96989e-128
-6.93807e-132
-9.32833e-136
-1.43306e-139
-2.50016e-143
-4.92859e-147
-1.09176e-150
-2.70153e-154
-7.42152e-158
-2.24939e-161
-7.47533e-165
-2.70755e-168
-1.06277e-171
-4.49774e-175
-2.04357e-178
-9.93299e-182
-5.15022e-185
-2.84391e-188
-1.67016e-191
-1.04227e-194
-6.91031e-198
-4.86696e-201
-3.64326e-204
-2.89773e-207
-2.44732e-210
-2.19313e-213
-2.08294e-216
-2.09296e-219
-2.21949e-222
-2.47751e-225
-2.90307e-228
1.25413e-22
7.43455e-22
1.03635e-21
8.55899e-22
5.45704e-22
2.9446e-22
1.55496e-22
9.45635e-23
7.5336e-23
7.08313e-23
6.21677e-23
4.51019e-23
2.66593e-23
1.89174e-23
3.22349e-23
1.60598e-22
3.56217e-22
3.64661e-22
3.11226e-22
1.83372e-22
4.02005e-23
1.30938e-25
5.03169e-27
6.6218e-41
-3.28664e-30
-1.94991e-30
-5.23147e-31
-6.06543e-32
-3.75601e-33
-1.54101e-34
-4.81966e-36
-1.27062e-37
-2.73226e-39
-4.72052e-41
-6.74869e-43
-8.25354e-45
-8.8035e-47
-8.26286e-49
-6.85131e-51
-5.02986e-53
-3.27695e-55
-1.89992e-57
-9.83877e-60
-4.57034e-62
-1.91275e-64
-7.24486e-67
-2.49476e-69
-7.84324e-72
-2.25959e-74
-5.98315e-77
-1.45912e-79
-3.28053e-82
-6.80003e-85
-1.29866e-87
-2.28259e-90
-3.68798e-93
-5.47197e-96
-7.45135e-99
-9.31412e-102
-1.06989e-104
-1.13072e-107
-1.10072e-110
-9.87918e-114
-8.18221e-117
-6.25852e-120
-4.42435e-123
-2.89279e-126
-1.75052e-129
-9.81062e-133
-5.09559e-136
-2.45443e-139
-1.09712e-142
-4.55396e-146
-1.7565e-149
-6.29964e-153
-2.10221e-156
-6.53125e-160
-1.89032e-163
-5.10053e-167
-1.16288e-164
-2.70129e-90
-1.04853e-79
1.15926e-95
8.86157e-96
9.39538e-91
1.81006e-76
3.92224e-78
3.2803e-56
6.35277e-58
1.94335e-58
3.17917e-60
-1.67691e-53
5.17448e-56
1.93118e-54
7.90223e-57
8.49844e-79
3.40265e-64
4.15638e-58
6.91643e-57
2.69411e-56
-9.43071e-56
-2.45754e-53
-8.87859e-52
-9.20143e-54
-7.57244e-52
-2.34131e-54
-3.37267e-56
-1.34998e-58
-1.19217e-61
-6.31624e-65
-2.20508e-68
-5.54555e-72
-1.04814e-75
-1.52322e-79
-1.72238e-83
-1.52272e-87
-1.05258e-91
-5.67508e-96
-2.38431e-100
-7.88568e-105
-2.15447e-109
-5.70157e-114
-2.06943e-118
-1.29886e-122
-1.18599e-126
-1.32476e-130
-1.71989e-134
-2.56222e-138
-4.36152e-142
-8.44189e-146
-1.84716e-149
-4.53966e-153
-1.24454e-156
-3.77909e-160
-1.26198e-163
-4.60203e-167
-1.82038e-170
-7.76263e-174
-3.54928e-177
-1.73214e-180
-8.99208e-184
-4.95357e-187
-2.89117e-190
-1.78748e-193
-1.17062e-196
-8.11996e-200
-5.96762e-203
-4.64702e-206
-3.83412e-209
-3.34953e-212
-3.09424e-215
-3.01717e-218
-3.09872e-221
-3.34299e-224
-3.77774e-227
-4.45914e-230
3.10453e-24
1.34686e-23
1.37458e-23
7.80753e-24
3.1034e-24
1.94832e-24
1.67645e-24
1.56692e-24
1.54137e-24
1.25442e-24
6.05399e-25
2.67999e-25
2.73732e-25
5.08197e-25
1.75768e-24
1.70873e-23
1.55918e-22
3.1213e-22
2.63639e-22
9.85319e-23
3.88385e-24
7.48611e-35
9.76181e-38
-2.50131e-30
-2.36935e-30
-1.09175e-30
-2.33174e-31
-2.16905e-32
-1.19645e-33
-4.51922e-35
-1.31442e-36
-3.16817e-38
-6.37752e-40
-1.0756e-41
-1.54142e-43
-1.90245e-45
-2.04257e-47
-1.91845e-49
-1.5821e-51
-1.14952e-53
-7.38666e-56
-4.21539e-58
-2.14626e-60
-9.79574e-63
-4.02591e-65
-1.49661e-67
-5.05425e-70
-1.55692e-72
-4.3905e-75
-1.137e-77
-2.71049e-80
-5.95718e-83
-1.20788e-85
-2.25911e-88
-3.89461e-91
-6.18168e-94
-9.0225e-97
-1.20987e-99
-1.49057e-102
-1.68868e-105
-1.76116e-108
-1.69262e-111
-1.50055e-114
-1.22813e-117
-9.28734e-121
-6.49419e-124
-4.20207e-127
-2.51778e-130
-1.39796e-133
-7.19788e-137
-3.43922e-140
-1.52606e-143
-6.29296e-147
-2.41337e-150
-8.61375e-154
-2.86322e-157
-8.86931e-161
-2.56193e-164
-6.90558e-168
-1.6595e-167
-8.48412e-93
-2.40974e-82
-7.56275e-82
-1.95122e-83
-2.5065e-85
9.36293e-89
1.26578e-104
9.08036e-59
2.81967e-61
1.84223e-69
2.67012e-71
-2.56198e-56
-1.65851e-60
3.66962e-76
8.85232e-60
1.94786e-62
1.27335e-69
1.27409e-69
2.0589e-68
7.87502e-68
-1.51623e-58
-3.48019e-56
-1.01107e-54
-8.43906e-57
-4.03309e-55
-1.13634e-57
-1.27733e-59
-3.82973e-62
-3.52651e-65
-1.9078e-68
-6.9483e-72
-1.83927e-75
-3.69325e-79
-5.76648e-83