/*--------------------------------*- C++ -*----------------------------------*\
| =========                 |                                                 |
| \\      /  F ield         | OpenFOAM: The Open Source CFD Toolbox           |
|  \\    /   O peration     | Version:  v1912                                 |
|   \\  /    A nd           | Website:  www.openfoam.com                      |
|    \\/     M anipulation  |                                                 |
\*---------------------------------------------------------------------------*/
FoamFile
{
    version     2.0;
    format      ascii;
    class       volScalarField;
    location    "10";
    object      k;
}
// * * * * * * * * * * * * * * * * * * * * * * * * * * * * * * * * * * * * * //

dimensions      [0 2 -2 0 0 0 0];


internalField   nonuniform List<scalar> 
14268
(
8.82597e-08
8.80275e-08
8.7856e-08
8.76947e-08
8.75375e-08
8.73393e-08
8.71606e-08
8.69993e-08
3.56879e-07
3.56793e-07
3.56651e-07
3.56278e-07
3.55688e-07
3.54781e-07
3.53942e-07
3.53127e-07
3.89754e-07
3.89689e-07
3.89634e-07
3.89565e-07
3.89524e-07
3.89454e-07
3.89379e-07
3.8931e-07
3.91159e-07
3.91208e-07
3.9126e-07
3.91254e-07
3.9121e-07
3.91076e-07
3.90989e-07
3.90928e-07
3.91721e-07
3.91659e-07
3.91617e-07
3.91592e-07
3.91628e-07
3.9168e-07
3.91712e-07
3.91749e-07
3.91204e-07
3.91263e-07
3.91325e-07
3.91329e-07
3.91293e-07
3.91156e-07
3.91082e-07
3.91038e-07
3.91737e-07
3.91672e-07
3.91625e-07
3.91598e-07
3.9163e-07
3.9169e-07
3.91717e-07
3.91744e-07
3.91209e-07
3.91266e-07
3.91328e-07
3.91334e-07
3.91307e-07
3.9116e-07
3.91097e-07
3.91066e-07
3.91733e-07
3.9167e-07
3.91624e-07
3.91594e-07
3.9162e-07
3.91686e-07
3.91705e-07
3.91719e-07
3.91241e-07
3.91291e-07
3.91343e-07
3.91345e-07
3.9133e-07
3.91184e-07
3.9114e-07
3.91127e-07
3.9171e-07
3.91655e-07
3.91618e-07
3.91591e-07
3.9161e-07
3.91676e-07
3.9168e-07
3.9168e-07
3.9133e-07
3.91365e-07
3.91396e-07
3.91396e-07
3.91391e-07
3.91261e-07
3.91252e-07
3.91242e-07
3.91816e-07
3.91864e-07
3.91917e-07
3.91972e-07
3.92065e-07
3.92189e-07
3.92188e-07
3.9196e-07
3.91581e-07
3.91709e-07
3.91741e-07
3.91892e-07
3.91962e-07
3.92072e-07
3.92227e-07
3.92326e-07
3.91418e-07
3.91447e-07
3.91415e-07
3.91461e-07
3.91465e-07
3.91621e-07
3.91722e-07
3.92087e-07
3.91555e-07
3.91501e-07
3.91464e-07
3.91385e-07
3.91302e-07
3.91196e-07
3.91141e-07
3.91216e-07
3.91478e-07
3.91486e-07
3.91488e-07
3.91477e-07
3.91532e-07
3.91542e-07
3.91522e-07
3.91506e-07
3.91643e-07
3.91603e-07
3.91615e-07
3.91588e-07
3.9153e-07
3.91487e-07
3.91452e-07
3.9145e-07
3.91431e-07
3.91448e-07
3.91411e-07
3.91384e-07
3.91453e-07
3.91463e-07
3.91531e-07
3.91535e-07
3.91703e-07
3.91658e-07
3.91688e-07
3.91682e-07
3.91662e-07
3.9161e-07
3.91493e-07
3.91422e-07
3.91331e-07
3.91333e-07
3.91276e-07
3.91224e-07
3.91272e-07
3.9129e-07
3.91416e-07
3.91506e-07
3.91685e-07
3.9163e-07
3.91626e-07
3.91585e-07
3.91583e-07
3.91534e-07
3.91488e-07
3.91377e-07
3.91484e-07
3.91518e-07
3.91534e-07
3.91515e-07
3.91531e-07
3.91519e-07
3.91543e-07
3.91564e-07
3.918e-07
3.91718e-07
3.91688e-07
3.91686e-07
3.91721e-07
3.91709e-07
3.91658e-07
3.91467e-07
3.91438e-07
3.91504e-07
3.91547e-07
3.9153e-07
3.91546e-07
3.91529e-07
3.91582e-07
3.91633e-07
3.91938e-07
3.91826e-07
3.91771e-07
3.91778e-07
3.91847e-07
3.91856e-07
3.91809e-07
3.9147e-07
3.91395e-07
3.91485e-07
3.91548e-07
3.91543e-07
3.91572e-07
3.91557e-07
3.91638e-07
3.91704e-07
3.92078e-07
3.91933e-07
3.91851e-07
3.91866e-07
3.91967e-07
3.92014e-07
3.92013e-07
3.9151e-07
3.91366e-07
3.91462e-07
3.91531e-07
3.9155e-07
3.91614e-07
3.91619e-07
3.91736e-07
3.91791e-07
3.92214e-07
3.92028e-07
3.91928e-07
3.91941e-07
3.92074e-07
3.92179e-07
3.92275e-07
3.91616e-07
3.91364e-07
3.91431e-07
3.91484e-07
3.91543e-07
3.91667e-07
3.91749e-07
3.91954e-07
3.91941e-07
3.92348e-07
3.92107e-07
3.9199e-07
3.91996e-07
3.92151e-07
3.92292e-07
3.92575e-07
3.91704e-07
3.9124e-07
3.91328e-07
3.91394e-07
3.91525e-07
3.91785e-07
3.92121e-07
3.92602e-07
3.92432e-07
3.82149e-07
3.85468e-07
3.87154e-07
3.87982e-07
3.88427e-07
3.88895e-07
3.89401e-07
3.8925e-07
2.16834e-07
2.0746e-07
2.07213e-07
2.06913e-07
2.08005e-07
2.03835e-07
2.06031e-07
2.09305e-07
3.4928e-06
3.93227e-06
4.40624e-06
4.93504e-06
5.39387e-06
5.69262e-06
5.79753e-06
5.52185e-06
1.19958e-05
1.27498e-05
1.35288e-05
1.44376e-05
1.60368e-05
1.63675e-05
2.17602e-05
1.84659e-05
0.0806965
0.0747773
0.0687465
0.0626013
0.0568496
0.0507452
0.0463982
0.0413564
0.616341
0.563543
0.509257
0.458007
0.404943
0.355936
0.298793
0.25041
0.0173485
0.014376
0.0116535
0.00938448
0.00727497
0.00558595
0.00389161
0.00265395
4.95527e-05
3.45722e-05
2.32898e-05
1.56225e-05
1.01076e-05
6.71953e-06
4.34424e-06
3.43814e-06
4.40879e-07
4.55551e-07
4.75471e-07
5.11941e-07
5.51521e-07
6.32457e-07
6.91863e-07
7.95828e-07
4.00959e-07
3.98752e-07
3.88685e-07
3.90724e-07
3.97763e-07
4.12717e-07
4.29739e-07
4.48463e-07
3.85694e-07
3.86515e-07
3.88671e-07
3.90537e-07
3.91355e-07
3.95919e-07
4.00698e-07
4.05742e-07
3.75442e-07
3.76667e-07
3.77992e-07
3.7945e-07
3.81167e-07
3.83759e-07
3.86379e-07
3.89938e-07
3.88351e-07
3.8859e-07
3.89299e-07
3.9083e-07
3.91486e-07
3.93221e-07
3.94164e-07
3.96487e-07
3.79075e-07
3.79855e-07
3.80924e-07
3.82065e-07
3.83186e-07
3.84575e-07
3.86141e-07
3.88712e-07
3.8958e-07
3.89866e-07
3.90311e-07
3.91482e-07
3.91934e-07
3.93484e-07
3.94355e-07
3.9603e-07
3.82788e-07
3.83502e-07
3.84344e-07
3.85357e-07
3.86339e-07
3.8759e-07
3.88634e-07
3.90281e-07
3.90175e-07
3.90459e-07
3.90733e-07
3.91704e-07
3.92142e-07
3.93466e-07
3.93866e-07
3.94948e-07
3.8562e-07
3.86274e-07
3.86924e-07
3.87837e-07
3.88686e-07
3.89714e-07
3.90322e-07
3.91522e-07
3.90388e-07
3.90721e-07
3.90999e-07
3.91805e-07
3.92185e-07
3.93256e-07
3.93486e-07
3.94284e-07
3.87725e-07
3.88329e-07
3.88871e-07
3.89741e-07
3.90306e-07
3.91175e-07
3.91597e-07
3.92554e-07
3.90588e-07
3.90983e-07
3.91286e-07
3.91932e-07
3.92301e-07
3.93136e-07
3.9332e-07
3.94054e-07
3.8902e-07
3.89546e-07
3.90016e-07
3.90822e-07
3.9116e-07
3.91956e-07
3.92279e-07
3.92996e-07
3.91017e-07
3.91424e-07
3.91711e-07
3.92261e-07
3.92554e-07
3.93215e-07
3.93455e-07
3.94107e-07
3.89738e-07
3.90249e-07
3.90693e-07
3.91381e-07
3.9164e-07
3.9236e-07
3.92661e-07
3.93357e-07
3.91469e-07
3.91831e-07
3.92064e-07
3.92565e-07
3.92736e-07
3.93291e-07
3.93543e-07
3.94026e-07
3.90272e-07
3.90767e-07
3.91173e-07
3.91768e-07
3.9199e-07
3.92646e-07
3.92998e-07
3.93732e-07
3.91811e-07
3.9213e-07
3.92299e-07
3.92744e-07
3.92872e-07
3.93332e-07
3.93493e-07
3.93896e-07
3.9071e-07
3.91184e-07
3.91532e-07
3.92056e-07
3.92249e-07
3.92891e-07
3.93309e-07
3.9393e-07
3.92064e-07
3.92345e-07
3.92454e-07
3.92867e-07
3.92987e-07
3.93332e-07
3.93408e-07
3.93811e-07
3.91088e-07
3.91532e-07
3.91801e-07
3.92249e-07
3.92458e-07
3.93131e-07
3.93437e-07
3.93983e-07
3.92238e-07
3.92482e-07
3.92568e-07
3.92954e-07
3.92998e-07
3.93317e-07
3.93383e-07
3.93753e-07
3.91413e-07
3.91812e-07
3.92003e-07
3.92435e-07
3.92661e-07
3.93263e-07
3.9346e-07
3.93972e-07
3.92338e-07
3.9256e-07
3.92645e-07
3.92965e-07
3.92968e-07
3.93333e-07
3.93394e-07
3.93713e-07
3.91688e-07
3.9203e-07
3.922e-07
3.92642e-07
3.92829e-07
3.93317e-07
3.93458e-07
3.93908e-07
3.92396e-07
3.92608e-07
3.92657e-07
3.92952e-07
3.92969e-07
3.93344e-07
3.9342e-07
3.93726e-07
3.91918e-07
3.92234e-07
3.9239e-07
3.92793e-07
3.92927e-07
3.93338e-07
3.93442e-07
3.93829e-07
3.9243e-07
3.92625e-07
3.92675e-07
3.92944e-07
3.92982e-07
3.93347e-07
3.93414e-07
3.93741e-07
3.92122e-07
3.92396e-07
3.92531e-07
3.92892e-07
3.92975e-07
3.93336e-07
3.93407e-07
3.9375e-07
3.92461e-07
3.92638e-07
3.92684e-07
3.92946e-07
3.92995e-07
3.9333e-07
3.93391e-07
3.93696e-07
3.92283e-07
3.92529e-07
3.92651e-07
3.92941e-07
3.93004e-07
3.93326e-07
3.93382e-07
3.93675e-07
3.92491e-07
3.92657e-07
3.9272e-07
3.9297e-07
3.93028e-07
3.93328e-07
3.9338e-07
3.93651e-07
3.92417e-07
3.92622e-07
3.9272e-07
3.92971e-07
3.93035e-07
3.93319e-07
3.93368e-07
3.93625e-07
3.92467e-07
3.92625e-07
3.92696e-07
3.92918e-07
3.92971e-07
3.93241e-07
3.93285e-07
3.93529e-07
3.92448e-07
3.92607e-07
3.9269e-07
3.92894e-07
3.92947e-07
3.93198e-07
3.93251e-07
3.93479e-07
3.9255e-07
3.9268e-07
3.92757e-07
3.92928e-07
3.92994e-07
3.93184e-07
3.93242e-07
3.93414e-07
3.92643e-07
3.92748e-07
3.92817e-07
3.92937e-07
3.92996e-07
3.93125e-07
3.93178e-07
3.93293e-07
3.92663e-07
3.92737e-07
3.92799e-07
3.92887e-07
3.92947e-07
3.93038e-07
3.93093e-07
3.93175e-07
3.92656e-07
3.92716e-07
3.92774e-07
3.92837e-07
3.92896e-07
3.92959e-07
3.9301e-07
3.93067e-07
3.9266e-07
3.92712e-07
3.92763e-07
3.92815e-07
3.92864e-07
3.92914e-07
3.92956e-07
3.92999e-07
3.92645e-07
3.92691e-07
3.92736e-07
3.9278e-07
3.92823e-07
3.92863e-07
3.92898e-07
3.92931e-07
3.92641e-07
3.92683e-07
3.92723e-07
3.92761e-07
3.92798e-07
3.92832e-07
3.92862e-07
3.92887e-07
3.92667e-07
3.92698e-07
3.92728e-07
3.92758e-07
3.92786e-07
3.92812e-07
3.92835e-07
3.92854e-07
3.94455e-07
3.94224e-07
3.94012e-07
3.93821e-07
3.9365e-07
3.93498e-07
3.93366e-07
3.93251e-07
4.61233e-07
4.56457e-07
4.51604e-07
4.467e-07
4.41761e-07
4.3681e-07
4.31876e-07
4.26996e-07
8.75339e-08
8.78356e-08
8.80335e-08
8.82031e-08
8.83046e-08
8.83849e-08
8.84255e-08
8.84543e-08
8.84678e-08
8.84769e-08
8.84835e-08
8.84901e-08
8.84853e-08
8.84731e-08
8.846e-08
8.84558e-08
8.8434e-08
8.83818e-08
8.83523e-08
8.83593e-08
8.83824e-08
8.84171e-08
8.84639e-08
8.84998e-08
8.85465e-08
8.86106e-08
8.86825e-08
8.87221e-08
8.86818e-08
8.85877e-08
8.84943e-08
8.84183e-08
8.83646e-08
8.8329e-08
8.8307e-08
8.82947e-08
8.82895e-08
8.82891e-08
8.82902e-08
8.82924e-08
8.82951e-08
8.82981e-08
8.83012e-08
8.83044e-08
8.83073e-08
8.83101e-08
8.83125e-08
8.83146e-08
8.83164e-08
8.83179e-08
8.83191e-08
8.832e-08
8.83207e-08
8.83212e-08
8.83215e-08
8.83217e-08
8.83218e-08
8.83218e-08
8.83218e-08
8.83216e-08
8.83213e-08
8.8321e-08
8.83206e-08
8.83202e-08
8.83198e-08
8.83194e-08
8.83191e-08
8.83188e-08
8.83185e-08
8.83183e-08
8.83181e-08
8.83179e-08
8.83177e-08
8.83176e-08
8.83175e-08
8.83175e-08
8.83174e-08
8.83174e-08
8.83174e-08
8.83174e-08
8.83174e-08
8.83174e-08
8.83174e-08
8.83175e-08
8.83175e-08
8.83175e-08
8.83175e-08
8.83175e-08
8.83175e-08
8.83176e-08
8.83176e-08
8.83176e-08
8.83176e-08
8.83176e-08
8.83176e-08
8.83177e-08
8.83177e-08
8.83177e-08
8.83177e-08
8.83177e-08
8.83177e-08
8.83177e-08
8.83178e-08
8.83178e-08
8.83178e-08
8.83178e-08
8.83178e-08
8.83178e-08
8.83178e-08
8.83178e-08
8.83178e-08
8.83177e-08
8.83177e-08
8.83177e-08
8.83176e-08
8.83176e-08
8.83175e-08
8.83174e-08
8.83172e-08
8.83171e-08
8.83169e-08
8.83166e-08
8.83163e-08
8.8316e-08
8.83156e-08
8.83151e-08
8.83145e-08
8.83138e-08
8.83129e-08
8.8312e-08
8.83109e-08
8.83096e-08
8.83081e-08
8.83064e-08
8.83045e-08
8.83022e-08
8.82998e-08
8.8297e-08
8.82938e-08
8.82904e-08
8.82866e-08
8.82824e-08
8.82779e-08
8.8273e-08
8.82678e-08
8.82623e-08
8.82565e-08
8.82505e-08
8.82444e-08
8.82382e-08
8.8232e-08
8.8226e-08
8.82202e-08
8.82148e-08
8.82099e-08
8.82057e-08
3.53501e-07
3.54779e-07
3.55649e-07
3.56389e-07
3.56728e-07
3.56906e-07
3.56959e-07
3.57003e-07
3.57012e-07
3.57018e-07
3.56984e-07
3.5695e-07
3.56914e-07
3.56891e-07
3.56873e-07
3.56869e-07
3.56868e-07
3.56853e-07
3.56843e-07
3.56841e-07
3.56861e-07
3.5689e-07
3.56932e-07
3.56926e-07
3.56938e-07
3.56986e-07
3.57059e-07
3.57077e-07
3.57061e-07
3.57026e-07
3.56996e-07
3.56972e-07
3.56956e-07
3.56947e-07
3.56942e-07
3.5694e-07
3.56941e-07
3.56944e-07
3.5695e-07
3.56958e-07
3.56968e-07
3.56979e-07
3.5699e-07
3.57e-07
3.5701e-07
3.57019e-07
3.57027e-07
3.57034e-07
3.5704e-07
3.57045e-07
3.57049e-07
3.57052e-07
3.57055e-07
3.57057e-07
3.57058e-07
3.57059e-07
3.5706e-07
3.5706e-07
3.57061e-07
3.57061e-07
3.57061e-07
3.57061e-07
3.57061e-07
3.57061e-07
3.57061e-07
3.57061e-07
3.57061e-07
3.57061e-07
3.57061e-07
3.57061e-07
3.57061e-07
3.57061e-07
3.57062e-07
3.57062e-07
3.57062e-07
3.57062e-07
3.57062e-07
3.57062e-07
3.57062e-07
3.57062e-07
3.57062e-07
3.57062e-07
3.57062e-07
3.57062e-07
3.57062e-07
3.57062e-07
3.57062e-07
3.57062e-07
3.57062e-07
3.57062e-07
3.57062e-07
3.57062e-07
3.57063e-07
3.57063e-07
3.57063e-07
3.57063e-07
3.57063e-07
3.57063e-07
3.57063e-07
3.57063e-07
3.57063e-07
3.57063e-07
3.57063e-07
3.57063e-07
3.57063e-07
3.57063e-07
3.57063e-07
3.57063e-07
3.57063e-07
3.57063e-07
3.57063e-07
3.57063e-07
3.57062e-07
3.57062e-07
3.57062e-07
3.57062e-07
3.57061e-07
3.57061e-07
3.5706e-07
3.57059e-07
3.57059e-07
3.57058e-07
3.57057e-07
3.57055e-07
3.57054e-07
3.57052e-07
3.5705e-07
3.57047e-07
3.57044e-07
3.57041e-07
3.57037e-07
3.57033e-07
3.57028e-07
3.57022e-07
3.57015e-07
3.57008e-07
3.57e-07
3.56991e-07
3.56981e-07
3.56969e-07
3.56957e-07
3.56943e-07
3.56929e-07
3.56913e-07
3.56896e-07
3.56877e-07
3.56858e-07
3.56838e-07
3.56817e-07
3.56795e-07
3.56773e-07
3.56751e-07
3.56729e-07
3.56707e-07
3.56686e-07
3.56667e-07
3.89362e-07
3.89508e-07
3.89545e-07
3.8961e-07
3.89599e-07
3.89634e-07
3.89625e-07
3.89635e-07
3.89627e-07
3.89631e-07
3.89631e-07
3.89635e-07
3.89632e-07
3.89632e-07
3.89624e-07
3.89621e-07
3.8962e-07
3.89614e-07
3.89611e-07
3.89608e-07
3.8961e-07
3.89609e-07
3.89622e-07
3.8962e-07
3.8962e-07
3.89618e-07
3.89629e-07
3.89631e-07
3.89626e-07
3.89614e-07
3.89605e-07
3.89597e-07
3.89591e-07
3.89587e-07
3.89583e-07
3.89581e-07
3.89579e-07
3.89578e-07
3.89577e-07
3.89576e-07
3.89574e-07
3.89574e-07
3.89573e-07
3.89572e-07
3.89572e-07
3.89571e-07
3.89571e-07
3.8957e-07
3.8957e-07
3.89569e-07
3.89569e-07
3.89568e-07
3.89568e-07
3.89568e-07
3.89567e-07
3.89567e-07
3.89566e-07
3.89566e-07
3.89566e-07
3.89565e-07
3.89565e-07
3.89565e-07
3.89564e-07
3.89564e-07
3.89564e-07
3.89564e-07
3.89563e-07
3.89563e-07
3.89563e-07
3.89563e-07
3.89563e-07
3.89562e-07
3.89562e-07
3.89562e-07
3.89562e-07
3.89562e-07
3.89562e-07
3.89562e-07
3.89562e-07
3.89562e-07
3.89562e-07
3.89562e-07
3.89562e-07
3.89562e-07
3.89562e-07
3.89562e-07
3.89562e-07
3.89562e-07
3.89562e-07
3.89562e-07
3.89562e-07
3.89562e-07
3.89562e-07
3.89562e-07
3.89562e-07
3.89562e-07
3.89562e-07
3.89562e-07
3.89562e-07
3.89562e-07
3.89562e-07
3.89562e-07
3.89562e-07
3.89562e-07
3.89562e-07
3.89562e-07
3.89562e-07
3.89562e-07
3.89562e-07
3.89562e-07
3.89562e-07
3.89562e-07
3.89562e-07
3.89562e-07
3.89562e-07
3.89562e-07
3.89562e-07
3.89563e-07
3.89563e-07
3.89563e-07
3.89563e-07
3.89563e-07
3.89564e-07
3.89564e-07
3.89564e-07
3.89565e-07
3.89565e-07
3.89565e-07
3.89566e-07
3.89566e-07
3.89566e-07
3.89567e-07
3.89567e-07
3.89568e-07
3.89568e-07
3.89568e-07
3.89569e-07
3.89569e-07
3.89569e-07
3.89569e-07
3.89569e-07
3.8957e-07
3.8957e-07
3.8957e-07
3.8957e-07
3.8957e-07
3.8957e-07
3.89569e-07
3.89569e-07
3.89569e-07
3.89569e-07
3.89569e-07
3.8957e-07
3.8957e-07
3.8957e-07
3.89571e-07
3.90948e-07
3.91079e-07
3.91114e-07
3.91232e-07
3.91251e-07
3.91289e-07
3.91278e-07
3.91299e-07
3.91298e-07
3.91306e-07
3.91292e-07
3.91289e-07
3.91287e-07
3.91292e-07
3.91292e-07
3.91296e-07
3.91305e-07
3.91306e-07
3.9131e-07
3.91313e-07
3.91316e-07
3.91312e-07
3.91321e-07
3.91321e-07
3.91323e-07
3.91322e-07
3.9133e-07
3.91336e-07
3.91345e-07
3.91347e-07
3.91351e-07
3.91354e-07
3.91357e-07
3.91359e-07
3.91362e-07
3.91363e-07
3.91365e-07
3.91367e-07
3.91369e-07
3.91371e-07
3.91374e-07
3.91376e-07
3.91379e-07
3.91381e-07
3.91383e-07
3.91384e-07
3.91386e-07
3.91388e-07
3.91389e-07
3.9139e-07
3.91391e-07
3.91392e-07
3.91393e-07
3.91394e-07
3.91394e-07
3.91395e-07
3.91395e-07
3.91396e-07
3.91396e-07
3.91396e-07
3.91397e-07
3.91397e-07
3.91398e-07
3.91398e-07
3.91398e-07
3.91399e-07
3.91399e-07
3.91399e-07
3.91399e-07
3.914e-07
3.914e-07
3.914e-07
3.914e-07
3.914e-07
3.914e-07
3.914e-07
3.914e-07
3.914e-07
3.914e-07
3.914e-07
3.914e-07
3.914e-07
3.914e-07
3.914e-07
3.91401e-07
3.91401e-07
3.91401e-07
3.91401e-07
3.91401e-07
3.91401e-07
3.91401e-07
3.91401e-07
3.91401e-07
3.91401e-07
3.91401e-07
3.91401e-07
3.91401e-07
3.91402e-07
3.91401e-07
3.91402e-07
3.91402e-07
3.91402e-07
3.91402e-07
3.91402e-07
3.91402e-07
3.91402e-07
3.91401e-07
3.91401e-07
3.91401e-07
3.91401e-07
3.91401e-07
3.91401e-07
3.91401e-07
3.91401e-07
3.91401e-07
3.91401e-07
3.914e-07
3.914e-07
3.914e-07
3.914e-07
3.91399e-07
3.91399e-07
3.91399e-07
3.91398e-07
3.91398e-07
3.91397e-07
3.91396e-07
3.91396e-07
3.91395e-07
3.91394e-07
3.91393e-07
3.91392e-07
3.91391e-07
3.9139e-07
3.91389e-07
3.91387e-07
3.91386e-07
3.91384e-07
3.91383e-07
3.91381e-07
3.91379e-07
3.91377e-07
3.91375e-07
3.91372e-07
3.9137e-07
3.91367e-07
3.91364e-07
3.91362e-07
3.91359e-07
3.91355e-07
3.91352e-07
3.91349e-07
3.91345e-07
3.91342e-07
3.91338e-07
3.91335e-07
3.91754e-07
3.91738e-07
3.9166e-07
3.91632e-07
3.91576e-07
3.91592e-07
3.91576e-07
3.91579e-07
3.9157e-07
3.91573e-07
3.91578e-07
3.91585e-07
3.91586e-07
3.91588e-07
3.91582e-07
3.91579e-07
3.91579e-07
3.91576e-07
3.91574e-07
3.91572e-07
3.9157e-07
3.91565e-07
3.91572e-07
3.91569e-07
3.91567e-07
3.91558e-07
3.91561e-07
3.91561e-07
3.9156e-07
3.91553e-07
3.91549e-07
3.91545e-07
3.91543e-07
3.91541e-07
3.91539e-07
3.91538e-07
3.91536e-07
3.91535e-07
3.91533e-07
3.91531e-07
3.91529e-07
3.91528e-07
3.91526e-07
3.91524e-07
3.91522e-07
3.91521e-07
3.9152e-07
3.91519e-07
3.91517e-07
3.91516e-07
3.91516e-07
3.91515e-07
3.91514e-07
3.91513e-07
3.91513e-07
3.91512e-07
3.91512e-07
3.91512e-07
3.91511e-07
3.91511e-07
3.91511e-07
3.9151e-07
3.9151e-07
3.9151e-07
3.91509e-07
3.91509e-07
3.91509e-07
3.91508e-07
3.91508e-07
3.91508e-07
3.91508e-07
3.91508e-07
3.91508e-07
3.91507e-07
3.91507e-07
3.91507e-07
3.91507e-07
3.91507e-07
3.91507e-07
3.91507e-07
3.91507e-07
3.91507e-07
3.91507e-07
3.91507e-07
3.91507e-07
3.91507e-07
3.91507e-07
3.91507e-07
3.91507e-07
3.91506e-07
3.91506e-07
3.91506e-07
3.91506e-07
3.91506e-07
3.91506e-07
3.91506e-07
3.91506e-07
3.91506e-07
3.91506e-07
3.91506e-07
3.91506e-07
3.91506e-07
3.91506e-07
3.91506e-07
3.91506e-07
3.91506e-07
3.91506e-07
3.91506e-07
3.91506e-07
3.91506e-07
3.91506e-07
3.91506e-07
3.91506e-07
3.91506e-07
3.91507e-07
3.91507e-07
3.91507e-07
3.91507e-07
3.91507e-07
3.91508e-07
3.91508e-07
3.91508e-07
3.91509e-07
3.91509e-07
3.9151e-07
3.9151e-07
3.91511e-07
3.91512e-07
3.91512e-07
3.91513e-07
3.91514e-07
3.91515e-07
3.91516e-07
3.91517e-07
3.91518e-07
3.91519e-07
3.9152e-07
3.91522e-07
3.91523e-07
3.91525e-07
3.91526e-07
3.91528e-07
3.9153e-07
3.91532e-07
3.91534e-07
3.91536e-07
3.91538e-07
3.9154e-07
3.91543e-07
3.91545e-07
3.91548e-07
3.9155e-07
3.91553e-07
3.91556e-07
3.91558e-07
3.91561e-07
3.9105e-07
3.91154e-07
3.91174e-07
3.91289e-07
3.9131e-07
3.91348e-07
3.91337e-07
3.91362e-07
3.91363e-07
3.91372e-07
3.91355e-07
3.91352e-07
3.91353e-07
3.9136e-07
3.91362e-07
3.91366e-07
3.91377e-07
3.91379e-07
3.91384e-07
3.91388e-07
3.91391e-07
3.91386e-07
3.91396e-07
3.91399e-07
3.91402e-07
3.914e-07
3.91407e-07
3.91414e-07
3.91421e-07
3.91423e-07
3.91426e-07
3.91428e-07
3.91431e-07
3.91433e-07
3.91436e-07
3.91438e-07
3.9144e-07
3.91442e-07
3.91444e-07
3.91447e-07
3.91449e-07
3.91452e-07
3.91454e-07
3.91456e-07
3.91458e-07
3.9146e-07
3.91461e-07
3.91463e-07
3.91464e-07
3.91465e-07
3.91467e-07
3.91467e-07
3.91468e-07
3.91469e-07
3.9147e-07
3.9147e-07
3.91471e-07
3.91471e-07
3.91472e-07
3.91472e-07
3.91473e-07
3.91473e-07
3.91474e-07
3.91474e-07
3.91475e-07
3.91475e-07
3.91475e-07
3.91476e-07
3.91476e-07
3.91476e-07
3.91477e-07
3.91477e-07
3.91477e-07
3.91477e-07
3.91477e-07
3.91477e-07
3.91477e-07
3.91477e-07
3.91477e-07
3.91477e-07
3.91478e-07
3.91478e-07
3.91478e-07
3.91478e-07
3.91478e-07
3.91478e-07
3.91478e-07
3.91478e-07
3.91478e-07
3.91479e-07
3.91479e-07
3.91479e-07
3.91479e-07
3.91479e-07
3.91479e-07
3.91479e-07
3.91479e-07
3.91479e-07
3.91479e-07
3.9148e-07
3.9148e-07
3.9148e-07
3.9148e-07
3.9148e-07
3.9148e-07
3.9148e-07
3.9148e-07
3.9148e-07
3.91479e-07
3.91479e-07
3.91479e-07
3.91479e-07
3.91479e-07
3.91479e-07
3.91479e-07
3.91478e-07
3.91478e-07
3.91478e-07
3.91478e-07
3.91477e-07
3.91477e-07
3.91477e-07
3.91476e-07
3.91476e-07
3.91475e-07
3.91475e-07
3.91474e-07
3.91473e-07
3.91472e-07
3.91471e-07
3.91471e-07
3.9147e-07
3.91468e-07
3.91467e-07
3.91466e-07
3.91465e-07
3.91463e-07
3.91462e-07
3.9146e-07
3.91458e-07
3.91457e-07
3.91455e-07
3.91452e-07
3.9145e-07
3.91448e-07
3.91445e-07
3.91443e-07
3.9144e-07
3.91437e-07
3.91434e-07
3.9143e-07
3.91427e-07
3.91424e-07
3.9142e-07
3.91416e-07
3.91413e-07
3.91745e-07
3.9174e-07
3.91671e-07
3.91642e-07
3.91586e-07
3.91603e-07
3.91586e-07
3.91587e-07
3.91576e-07
3.91579e-07
3.91587e-07
3.91594e-07
3.91594e-07
3.91594e-07
3.91587e-07
3.91583e-07
3.91583e-07
3.9158e-07
3.91577e-07
3.91574e-07
3.91573e-07
3.91567e-07
3.91573e-07
3.91568e-07
3.91566e-07
3.91556e-07
3.91559e-07
3.91559e-07
3.9156e-07
3.91555e-07
3.91552e-07
3.91548e-07
3.91547e-07
3.91544e-07
3.91543e-07
3.91541e-07
3.9154e-07
3.91539e-07
3.91536e-07
3.91534e-07
3.91533e-07
3.91531e-07
3.91529e-07
3.91528e-07
3.91526e-07
3.91525e-07
3.91524e-07
3.91522e-07
3.91521e-07
3.9152e-07
3.9152e-07
3.91519e-07
3.91518e-07
3.91518e-07
3.91517e-07
3.91517e-07
3.91516e-07
3.91516e-07
3.91515e-07
3.91515e-07
3.91515e-07
3.91514e-07
3.91514e-07
3.91513e-07
3.91513e-07
3.91513e-07
3.91512e-07
3.91512e-07
3.91512e-07
3.91511e-07
3.91511e-07
3.91511e-07
3.91511e-07
3.91511e-07
3.91511e-07
3.91511e-07
3.91511e-07
3.91511e-07
3.9151e-07
3.9151e-07
3.9151e-07
3.9151e-07
3.9151e-07
3.9151e-07
3.9151e-07
3.9151e-07
3.9151e-07
3.9151e-07
3.91509e-07
3.91509e-07
3.91509e-07
3.91509e-07
3.91509e-07
3.91509e-07
3.91509e-07
3.91509e-07
3.91508e-07
3.91508e-07
3.91508e-07
3.91508e-07
3.91508e-07
3.91508e-07
3.91508e-07
3.91508e-07
3.91508e-07
3.91508e-07
3.91508e-07
3.91508e-07
3.91508e-07
3.91508e-07
3.91509e-07
3.91509e-07
3.91509e-07
3.91509e-07
3.91509e-07
3.91509e-07
3.9151e-07
3.9151e-07
3.9151e-07
3.9151e-07
3.91511e-07
3.91511e-07
3.91512e-07
3.91512e-07
3.91513e-07
3.91513e-07
3.91514e-07
3.91514e-07
3.91515e-07
3.91516e-07
3.91517e-07
3.91518e-07
3.91519e-07
3.9152e-07
3.91521e-07
3.91522e-07
3.91523e-07
3.91524e-07
3.91526e-07
3.91527e-07
3.91529e-07
3.9153e-07
3.91532e-07
3.91534e-07
3.91536e-07
3.91538e-07
3.9154e-07
3.91542e-07
3.91544e-07
3.91547e-07
3.91549e-07
3.91552e-07
3.91555e-07
3.91557e-07
3.9156e-07
3.91563e-07
3.91076e-07
3.91162e-07
3.91167e-07
3.91279e-07
3.91301e-07
3.91339e-07
3.91328e-07
3.91355e-07
3.91358e-07
3.91367e-07
3.91348e-07
3.91346e-07
3.91347e-07
3.91356e-07
3.9136e-07
3.91365e-07
3.91376e-07
3.91377e-07
3.91383e-07
3.91388e-07
3.91391e-07
3.91386e-07
3.91397e-07
3.91401e-07
3.91404e-07
3.91403e-07
3.9141e-07
3.91418e-07
3.91424e-07
3.91424e-07
3.91426e-07
3.91428e-07
3.9143e-07
3.91433e-07
3.91435e-07
3.91438e-07
3.9144e-07
3.91442e-07
3.91444e-07
3.91447e-07
3.91449e-07
3.91451e-07
3.91453e-07
3.91455e-07
3.91457e-07
3.91458e-07
3.9146e-07
3.91462e-07
3.91463e-07
3.91464e-07
3.91465e-07
3.91466e-07
3.91467e-07
3.91468e-07
3.91468e-07
3.91469e-07
3.9147e-07
3.9147e-07
3.91471e-07
3.91471e-07
3.91472e-07
3.91472e-07
3.91473e-07
3.91473e-07
3.91474e-07
3.91474e-07
3.91475e-07
3.91475e-07
3.91475e-07
3.91476e-07
3.91476e-07
3.91476e-07
3.91476e-07
3.91476e-07
3.91477e-07
3.91477e-07
3.91477e-07
3.91477e-07
3.91477e-07
3.91477e-07
3.91477e-07
3.91477e-07
3.91477e-07
3.91478e-07
3.91478e-07
3.91478e-07
3.91478e-07
3.91478e-07
3.91478e-07
3.91479e-07
3.91479e-07
3.91479e-07
3.91479e-07
3.91479e-07
3.91479e-07
3.91479e-07
3.9148e-07
3.9148e-07
3.9148e-07
3.9148e-07
3.9148e-07
3.9148e-07
3.9148e-07
3.9148e-07
3.9148e-07
3.9148e-07
3.9148e-07
3.9148e-07
3.9148e-07
3.9148e-07
3.9148e-07
3.91479e-07
3.91479e-07
3.91479e-07
3.91479e-07
3.91479e-07
3.91478e-07
3.91478e-07
3.91478e-07
3.91478e-07
3.91477e-07
3.91477e-07
3.91476e-07
3.91476e-07
3.91475e-07
3.91475e-07
3.91474e-07
3.91473e-07
3.91472e-07
3.91472e-07
3.91471e-07
3.9147e-07
3.91469e-07
3.91468e-07
3.91466e-07
3.91465e-07
3.91464e-07
3.91462e-07
3.91461e-07
3.91459e-07
3.91458e-07
3.91456e-07
3.91454e-07
3.91452e-07
3.9145e-07
3.91447e-07
3.91445e-07
3.91442e-07
3.91439e-07
3.91436e-07
3.91433e-07
3.9143e-07
3.91427e-07
3.91423e-07
3.9142e-07
3.91416e-07
3.91716e-07
3.91724e-07
3.9167e-07
3.91646e-07
3.91591e-07
3.91608e-07
3.91591e-07
3.91591e-07
3.91579e-07
3.91582e-07
3.91592e-07
3.91599e-07
3.91598e-07
3.91597e-07
3.91588e-07
3.91585e-07
3.91584e-07
3.91581e-07
3.91578e-07
3.91574e-07
3.91573e-07
3.91567e-07
3.91572e-07
3.91567e-07
3.91564e-07
3.91555e-07
3.91557e-07
3.91557e-07
3.91559e-07
3.91554e-07
3.91551e-07
3.91548e-07
3.91546e-07
3.91544e-07
3.91542e-07
3.9154e-07
3.91539e-07
3.91537e-07
3.91535e-07
3.91534e-07
3.91532e-07
3.91531e-07
3.91529e-07
3.91528e-07
3.91527e-07
3.91525e-07
3.91524e-07
3.91523e-07
3.91522e-07
3.91522e-07
3.91521e-07
3.9152e-07
3.91519e-07
3.91519e-07
3.91518e-07
3.91518e-07
3.91517e-07
3.91517e-07
3.91516e-07
3.91516e-07
3.91515e-07
3.91515e-07
3.91515e-07
3.91514e-07
3.91514e-07
3.91513e-07
3.91513e-07
3.91513e-07
3.91512e-07
3.91512e-07
3.91512e-07
3.91512e-07
3.91512e-07
3.91512e-07
3.91511e-07
3.91511e-07
3.91511e-07
3.91511e-07
3.91511e-07
3.91511e-07
3.91511e-07
3.91511e-07
3.91511e-07
3.91511e-07
3.9151e-07
3.9151e-07
3.9151e-07
3.9151e-07
3.9151e-07
3.9151e-07
3.91509e-07
3.91509e-07
3.91509e-07
3.91509e-07
3.91509e-07
3.91509e-07
3.91509e-07
3.91508e-07
3.91508e-07
3.91508e-07
3.91508e-07
3.91508e-07
3.91508e-07
3.91508e-07
3.91508e-07
3.91508e-07
3.91508e-07
3.91508e-07
3.91508e-07
3.91508e-07
3.91509e-07
3.91509e-07
3.91509e-07
3.91509e-07
3.91509e-07
3.9151e-07
3.9151e-07
3.9151e-07
3.9151e-07
3.91511e-07
3.91511e-07
3.91511e-07
3.91512e-07
3.91512e-07
3.91513e-07
3.91513e-07
3.91514e-07
3.91514e-07
3.91515e-07
3.91516e-07
3.91517e-07
3.91517e-07
3.91518e-07
3.91519e-07
3.9152e-07
3.91521e-07
3.91522e-07
3.91524e-07
3.91525e-07
3.91526e-07
3.91527e-07
3.91529e-07
3.9153e-07
3.91532e-07
3.91533e-07
3.91535e-07
3.91537e-07
3.91539e-07
3.91541e-07
3.91543e-07
3.91546e-07
3.91548e-07
3.9155e-07
3.91553e-07
3.91556e-07
3.91558e-07
3.91133e-07
3.91193e-07
3.91175e-07
3.91276e-07
3.91296e-07
3.91333e-07
3.91322e-07
3.91351e-07
3.91354e-07
3.91363e-07
3.91342e-07
3.91341e-07
3.91343e-07
3.91353e-07
3.91358e-07
3.91363e-07
3.91374e-07
3.91375e-07
3.91381e-07
3.91386e-07
3.91389e-07
3.91386e-07
3.91397e-07
3.91401e-07
3.91405e-07
3.91403e-07
3.91411e-07
3.91419e-07
3.91425e-07
3.91424e-07
3.91427e-07
3.91429e-07
3.91431e-07
3.91434e-07
3.91436e-07
3.91439e-07
3.91441e-07
3.91443e-07
3.91445e-07
3.91447e-07
3.9145e-07
3.91451e-07
3.91453e-07
3.91455e-07
3.91456e-07
3.91457e-07
3.91459e-07
3.9146e-07
3.91461e-07
3.91463e-07
3.91464e-07
3.91464e-07
3.91465e-07
3.91466e-07
3.91467e-07
3.91468e-07
3.91468e-07
3.91469e-07
3.91469e-07
3.9147e-07
3.91471e-07
3.91471e-07
3.91472e-07
3.91472e-07
3.91473e-07
3.91473e-07
3.91474e-07
3.91474e-07
3.91474e-07
3.91475e-07
3.91475e-07
3.91475e-07
3.91475e-07
3.91476e-07
3.91476e-07
3.91476e-07
3.91476e-07
3.91476e-07
3.91476e-07
3.91476e-07
3.91477e-07
3.91477e-07
3.91477e-07
3.91477e-07
3.91477e-07
3.91478e-07
3.91478e-07
3.91478e-07
3.91478e-07
3.91478e-07
3.91479e-07
3.91479e-07
3.91479e-07
3.91479e-07
3.91479e-07
3.9148e-07
3.9148e-07
3.9148e-07
3.9148e-07
3.9148e-07
3.9148e-07
3.9148e-07
3.9148e-07
3.9148e-07
3.9148e-07
3.9148e-07
3.9148e-07
3.9148e-07
3.9148e-07
3.9148e-07
3.9148e-07
3.9148e-07
3.91479e-07
3.91479e-07
3.91479e-07
3.91479e-07
3.91478e-07
3.91478e-07
3.91478e-07
3.91478e-07
3.91477e-07
3.91477e-07
3.91476e-07
3.91476e-07
3.91475e-07
3.91475e-07
3.91474e-07
3.91473e-07
3.91473e-07
3.91472e-07
3.91471e-07
3.9147e-07
3.91469e-07
3.91468e-07
3.91467e-07
3.91466e-07
3.91465e-07
3.91464e-07
3.91462e-07
3.91461e-07
3.9146e-07
3.91458e-07
3.91456e-07
3.91455e-07
3.91453e-07
3.91451e-07
3.91449e-07
3.91446e-07
3.91444e-07
3.91441e-07
3.91439e-07
3.91436e-07
3.91433e-07
3.9143e-07
3.91427e-07
3.91424e-07
3.91672e-07
3.91697e-07
3.91662e-07
3.91647e-07
3.91594e-07
3.91613e-07
3.91596e-07
3.91595e-07
3.91583e-07
3.91586e-07
3.91598e-07
3.91604e-07
3.91602e-07
3.916e-07
3.9159e-07
3.91587e-07
3.91587e-07
3.91583e-07
3.9158e-07
3.91576e-07
3.91574e-07
3.91567e-07
3.91572e-07
3.91566e-07
3.91564e-07
3.91555e-07
3.91556e-07
3.91557e-07
3.91559e-07
3.91554e-07
3.91551e-07
3.91548e-07
3.91546e-07
3.91543e-07
3.91541e-07
3.91539e-07
3.91537e-07
3.91536e-07
3.91534e-07
3.91532e-07
3.91531e-07
3.9153e-07
3.91529e-07
3.91528e-07
3.91527e-07
3.91526e-07
3.91525e-07
3.91524e-07
3.91523e-07
3.91522e-07
3.91522e-07
3.91521e-07
3.9152e-07
3.9152e-07
3.91519e-07
3.91519e-07
3.91518e-07
3.91518e-07
3.91517e-07
3.91517e-07
3.91516e-07
3.91516e-07
3.91515e-07
3.91515e-07
3.91515e-07
3.91514e-07
3.91514e-07
3.91514e-07
3.91513e-07
3.91513e-07
3.91513e-07
3.91513e-07
3.91512e-07
3.91512e-07
3.91512e-07
3.91512e-07
3.91512e-07
3.91512e-07
3.91512e-07
3.91512e-07
3.91512e-07
3.91511e-07
3.91511e-07
3.91511e-07
3.91511e-07
3.91511e-07
3.9151e-07
3.9151e-07
3.9151e-07
3.9151e-07
3.9151e-07
3.9151e-07
3.91509e-07
3.91509e-07
3.91509e-07
3.91509e-07
3.91509e-07
3.91509e-07
3.91508e-07
3.91508e-07
3.91508e-07
3.91508e-07
3.91508e-07
3.91508e-07
3.91508e-07
3.91508e-07
3.91508e-07
3.91508e-07
3.91508e-07
3.91509e-07
3.91509e-07
3.91509e-07
3.91509e-07
3.91509e-07
3.91509e-07
3.9151e-07
3.9151e-07
3.9151e-07
3.9151e-07
3.91511e-07
3.91511e-07
3.91511e-07
3.91512e-07
3.91512e-07
3.91513e-07
3.91513e-07
3.91514e-07
3.91514e-07
3.91515e-07
3.91516e-07
3.91516e-07
3.91517e-07
3.91518e-07
3.91519e-07
3.91519e-07
3.9152e-07
3.91521e-07
3.91522e-07
3.91523e-07
3.91524e-07
3.91526e-07
3.91527e-07
3.91528e-07
3.91529e-07
3.91531e-07
3.91532e-07
3.91534e-07
3.91535e-07
3.91537e-07
3.91539e-07
3.91541e-07
3.91543e-07
3.91545e-07
3.91547e-07
3.91549e-07
3.91551e-07
3.91212e-07
3.91236e-07
3.91189e-07
3.91275e-07
3.91292e-07
3.91328e-07
3.91316e-07
3.91346e-07
3.9135e-07
3.9136e-07
3.91337e-07
3.91337e-07
3.9134e-07
3.91351e-07
3.91356e-07
3.91361e-07
3.91371e-07
3.91372e-07
3.91378e-07
3.91383e-07
3.91387e-07
3.91385e-07
3.91396e-07
3.914e-07
3.91404e-07
3.91402e-07
3.91411e-07
3.91419e-07
3.91425e-07
3.91425e-07
3.91428e-07
3.91429e-07
3.91432e-07
3.91435e-07
3.91437e-07
3.9144e-07
3.91442e-07
3.91444e-07
3.91446e-07
3.91448e-07
3.9145e-07
3.91451e-07
3.91453e-07
3.91454e-07
3.91455e-07
3.91456e-07
3.91458e-07