/*--------------------------------*- C++ -*----------------------------------*\
| =========                 |                                                 |
| \\      /  F ield         | OpenFOAM: The Open Source CFD Toolbox           |
|  \\    /   O peration     | Version:  v1912                                 |
|   \\  /    A nd           | Website:  www.openfoam.com                      |
|    \\/     M anipulation  |                                                 |
\*---------------------------------------------------------------------------*/
FoamFile
{
    version     2.0;
    format      ascii;
    class       volScalarField;
    location    "10";
    object      nut;
}
// * * * * * * * * * * * * * * * * * * * * * * * * * * * * * * * * * * * * * //

dimensions      [0 2 -1 0 0 0 0];


internalField   nonuniform List<scalar> 
14268
(
2.94052e-08
2.93282e-08
2.92713e-08
2.92177e-08
2.91655e-08
2.90997e-08
2.90404e-08
2.89868e-08
3.85399e-07
3.85196e-07
3.84665e-07
3.8341e-07
3.81605e-07
3.79055e-07
3.76746e-07
3.74589e-07
4.68612e-07
4.68553e-07
4.68483e-07
4.68341e-07
4.68165e-07
4.6789e-07
4.67624e-07
4.67368e-07
4.72329e-07
4.72416e-07
4.72503e-07
4.72488e-07
4.7241e-07
4.72185e-07
4.72038e-07
4.71933e-07
4.73035e-07
4.73004e-07
4.72984e-07
4.7297e-07
4.72989e-07
4.73005e-07
4.73013e-07
4.73026e-07
4.72432e-07
4.72536e-07
4.72643e-07
4.72646e-07
4.72582e-07
4.72352e-07
4.72228e-07
4.72152e-07
4.73046e-07
4.73014e-07
4.72991e-07
4.72975e-07
4.72991e-07
4.73008e-07
4.73011e-07
4.73016e-07
4.72436e-07
4.72539e-07
4.72647e-07
4.72654e-07
4.72604e-07
4.72355e-07
4.72246e-07
4.72192e-07
4.73045e-07
4.73014e-07
4.72991e-07
4.72973e-07
4.72986e-07
4.73004e-07
4.73002e-07
4.73e-07
4.72489e-07
4.72579e-07
4.7267e-07
4.72673e-07
4.72642e-07
4.72391e-07
4.72314e-07
4.72289e-07
4.73036e-07
4.73009e-07
4.7299e-07
4.72972e-07
4.72982e-07
4.72999e-07
4.7299e-07
4.72981e-07
4.72628e-07
4.7269e-07
4.72745e-07
4.72741e-07
4.72726e-07
4.72496e-07
4.72473e-07
4.72464e-07
4.73116e-07
4.73154e-07
4.7319e-07
4.73224e-07
4.7328e-07
4.73342e-07
4.73336e-07
4.73184e-07
4.72914e-07
4.73051e-07
4.73073e-07
4.73173e-07
4.73219e-07
4.7329e-07
4.73388e-07
4.73454e-07
4.72796e-07
4.72838e-07
4.72794e-07
4.72863e-07
4.72871e-07
4.73007e-07
4.73065e-07
4.73303e-07
4.72959e-07
4.72912e-07
4.72874e-07
4.72752e-07
4.72618e-07
4.72441e-07
4.72351e-07
4.72455e-07
4.72875e-07
4.72888e-07
4.72896e-07
4.72866e-07
4.72923e-07
4.72946e-07
4.72925e-07
4.7291e-07
4.73021e-07
4.72994e-07
4.73003e-07
4.72976e-07
4.72915e-07
4.72889e-07
4.72852e-07
4.72852e-07
4.72804e-07
4.72827e-07
4.72773e-07
4.72721e-07
4.72819e-07
4.72848e-07
4.72947e-07
4.72945e-07
4.7306e-07
4.73029e-07
4.73048e-07
4.73039e-07
4.73029e-07
4.72991e-07
4.72903e-07
4.72804e-07
4.72641e-07
4.72637e-07
4.72545e-07
4.72464e-07
4.72538e-07
4.7257e-07
4.72783e-07
4.72915e-07
4.7305e-07
4.73014e-07
4.73011e-07
4.72982e-07
4.72983e-07
4.72949e-07
4.72907e-07
4.72735e-07
4.7289e-07
4.72929e-07
4.72947e-07
4.72932e-07
4.72945e-07
4.72934e-07
4.72954e-07
4.72969e-07
4.73125e-07
4.73073e-07
4.73053e-07
4.73048e-07
4.73071e-07
4.73062e-07
4.7303e-07
4.72868e-07
4.72813e-07
4.72894e-07
4.72947e-07
4.72938e-07
4.7295e-07
4.72931e-07
4.72976e-07
4.73015e-07
4.73214e-07
4.73143e-07
4.73106e-07
4.73106e-07
4.73151e-07
4.73155e-07
4.73125e-07
4.72852e-07
4.7274e-07
4.72854e-07
4.72933e-07
4.72937e-07
4.72964e-07
4.72941e-07
4.73006e-07
4.73061e-07
4.73306e-07
4.73213e-07
4.73158e-07
4.73162e-07
4.73226e-07
4.73255e-07
4.73254e-07
4.72853e-07
4.72686e-07
4.72809e-07
4.72894e-07
4.7292e-07
4.72984e-07
4.72975e-07
4.73061e-07
4.73116e-07
4.73396e-07
4.73276e-07
4.73208e-07
4.7321e-07
4.73293e-07
4.7336e-07
4.73421e-07
4.72899e-07
4.72669e-07
4.72751e-07
4.72812e-07
4.72874e-07
4.73001e-07
4.73055e-07
4.73196e-07
4.7318e-07
4.73494e-07
4.73331e-07
4.7325e-07
4.73243e-07
4.73342e-07
4.73436e-07
4.73614e-07
4.72936e-07
4.72504e-07
4.72611e-07
4.72663e-07
4.72794e-07
4.73046e-07
4.73301e-07
4.73624e-07
4.73485e-07
4.60321e-07
4.64672e-07
4.66734e-07
4.67684e-07
4.68169e-07
4.68676e-07
4.69381e-07
4.6911e-07
2.33569e-07
2.27263e-07
2.28925e-07
2.29867e-07
2.31844e-07
2.2916e-07
2.36329e-07
2.45924e-07
8.31005e-07
8.80298e-07
9.33965e-07
1.00128e-06
1.06433e-06
1.11226e-06
1.14239e-06
1.132e-06
1.90724e-07
2.12357e-07
2.38278e-07
2.70299e-07
3.23801e-07
3.51265e-07
5.13126e-07
4.50446e-07
0.00624889
0.00580984
0.00536454
0.00490567
0.0044666
0.00399145
0.00362947
0.00324717
0.0212852
0.0194967
0.0176379
0.0158785
0.0141051
0.0124
0.0105924
0.00881804
0.00424998
0.00358905
0.00295152
0.00239604
0.00189605
0.00146106
0.00105031
0.000707832
3.67672e-05
2.46124e-05
1.5959e-05
1.04596e-05
6.71241e-06
4.32534e-06
2.75458e-06
2.04127e-06
4.64714e-07
4.74376e-07
4.87196e-07
5.15946e-07
5.49201e-07
6.10704e-07
6.59342e-07
7.27141e-07
4.48454e-07
4.48164e-07
4.41882e-07
4.43829e-07
4.50313e-07
4.63751e-07
4.80242e-07
4.95596e-07
4.41492e-07
4.4303e-07
4.4661e-07
4.49333e-07
4.50968e-07
4.55752e-07
4.60426e-07
4.64573e-07
4.33666e-07
4.35648e-07
4.3824e-07
4.40717e-07
4.43421e-07
4.46582e-07
4.49368e-07
4.52793e-07
4.51795e-07
4.52325e-07
4.53957e-07
4.56471e-07
4.58028e-07
4.60031e-07
4.60813e-07
4.62755e-07
4.43709e-07
4.44876e-07
4.46724e-07
4.48682e-07
4.50575e-07
4.52214e-07
4.53578e-07
4.55718e-07
4.58498e-07
4.58985e-07
4.59947e-07
4.61792e-07
4.62907e-07
4.64647e-07
4.65284e-07
4.66282e-07
4.52337e-07
4.53401e-07
4.54748e-07
4.56332e-07
4.57863e-07
4.59279e-07
4.59991e-07
4.60965e-07
4.62808e-07
4.63301e-07
4.63913e-07
4.65331e-07
4.66208e-07
4.67595e-07
4.6764e-07
4.6791e-07
4.58646e-07
4.59632e-07
4.60652e-07
4.61989e-07
4.63167e-07
4.64229e-07
4.64367e-07
4.64831e-07
4.65527e-07
4.66083e-07
4.66646e-07
4.67781e-07
4.68367e-07
4.69385e-07
4.69203e-07
4.69273e-07
4.63147e-07
4.64056e-07
4.649e-07
4.66129e-07
4.66792e-07
4.67622e-07
4.67514e-07
4.67897e-07
4.67342e-07
4.67941e-07
4.68505e-07
4.69408e-07
4.69855e-07
4.70584e-07
4.70345e-07
4.70565e-07
4.65911e-07
4.66702e-07
4.67432e-07
4.68551e-07
4.68834e-07
4.69626e-07
4.69426e-07
4.69783e-07
4.68805e-07
4.69407e-07
4.69937e-07
4.70674e-07
4.70986e-07
4.71543e-07
4.71433e-07
4.71816e-07
4.67544e-07
4.68311e-07
4.68998e-07
4.69912e-07
4.70099e-07
4.708e-07
4.70726e-07
4.71296e-07
4.69995e-07
4.7054e-07
4.70992e-07
4.71606e-07
4.71771e-07
4.72222e-07
4.7229e-07
4.72655e-07
4.68784e-07
4.69517e-07
4.70135e-07
4.7087e-07
4.71014e-07
4.71686e-07
4.71869e-07
4.72528e-07
4.70922e-07
4.714e-07
4.71749e-07
4.72225e-07
4.72335e-07
4.72751e-07
4.72864e-07
4.73098e-07
4.69799e-07
4.70486e-07
4.70989e-07
4.71581e-07
4.71693e-07
4.72403e-07
4.72738e-07
4.73279e-07
4.7165e-07
4.72055e-07
4.72282e-07
4.72664e-07
4.72793e-07
4.7314e-07
4.73119e-07
4.73381e-07
4.70659e-07
4.71275e-07
4.71623e-07
4.72091e-07
4.72274e-07
4.73038e-07
4.73243e-07
4.73705e-07
4.72204e-07
4.72523e-07
4.72664e-07
4.73011e-07
4.73104e-07
4.73412e-07
4.73352e-07
4.73619e-07
4.71373e-07
4.71892e-07
4.721e-07
4.72564e-07
4.72794e-07
4.73442e-07
4.73533e-07
4.73979e-07
4.7259e-07
4.72835e-07
4.72956e-07
4.73256e-07
4.73313e-07
4.73623e-07
4.73589e-07
4.73832e-07
4.71951e-07
4.72365e-07
4.72539e-07
4.7302e-07
4.73204e-07
4.73681e-07
4.73742e-07
4.74132e-07
4.72857e-07
4.7307e-07
4.73158e-07
4.7343e-07
4.73468e-07
4.73782e-07
4.73797e-07
4.74048e-07
4.72411e-07
4.72774e-07
4.72929e-07
4.73352e-07
4.73469e-07
4.73836e-07
4.73893e-07
4.74214e-07
4.73052e-07
4.73241e-07
4.73327e-07
4.73547e-07
4.73597e-07
4.73896e-07
4.73934e-07
4.74215e-07
4.72791e-07
4.7309e-07
4.7322e-07
4.73568e-07
4.73635e-07
4.73935e-07
4.73986e-07
4.74275e-07
4.73212e-07
4.7337e-07
4.73446e-07
4.73647e-07
4.73704e-07
4.73971e-07
4.74021e-07
4.74274e-07
4.73083e-07
4.7333e-07
4.73446e-07
4.73684e-07
4.73749e-07
4.74002e-07
4.74055e-07
4.74292e-07
4.73332e-07
4.7346e-07
4.73547e-07
4.73736e-07
4.73808e-07
4.74035e-07
4.74092e-07
4.74301e-07
4.73313e-07
4.7348e-07
4.73586e-07
4.73771e-07
4.73847e-07
4.74057e-07
4.74114e-07
4.74305e-07
4.73378e-07
4.73504e-07
4.73586e-07
4.73752e-07
4.73815e-07
4.74019e-07
4.7407e-07
4.74252e-07
4.73388e-07
4.73518e-07
4.73594e-07
4.73756e-07
4.73805e-07
4.74007e-07
4.74053e-07
4.74229e-07
4.73532e-07
4.73629e-07
4.73702e-07
4.73826e-07
4.73892e-07
4.74028e-07
4.7408e-07
4.74194e-07
4.73668e-07
4.73743e-07
4.73798e-07
4.73877e-07
4.73917e-07
4.73999e-07
4.74035e-07
4.74106e-07
4.73696e-07
4.73744e-07
4.73785e-07
4.73842e-07
4.73881e-07
4.73938e-07
4.73974e-07
4.74024e-07
4.7369e-07
4.73729e-07
4.73766e-07
4.73806e-07
4.73844e-07
4.73884e-07
4.73915e-07
4.73949e-07
4.73692e-07
4.73724e-07
4.73757e-07
4.7379e-07
4.7382e-07
4.73851e-07
4.73877e-07
4.73902e-07
4.73681e-07
4.7371e-07
4.73738e-07
4.73765e-07
4.73792e-07
4.73816e-07
4.73837e-07
4.73855e-07
4.73678e-07
4.73703e-07
4.73728e-07
4.73752e-07
4.73774e-07
4.73794e-07
4.73811e-07
4.73826e-07
4.73685e-07
4.73705e-07
4.73725e-07
4.73744e-07
4.73762e-07
4.73778e-07
4.73791e-07
4.73802e-07
4.74341e-07
4.74266e-07
4.74198e-07
4.74135e-07
4.74079e-07
4.74029e-07
4.73985e-07
4.73945e-07
4.96412e-07
4.95023e-07
4.93584e-07
4.92099e-07
4.90573e-07
4.89013e-07
4.87426e-07
4.85825e-07
2.9237e-08
2.93374e-08
2.94032e-08
2.94597e-08
2.94934e-08
2.95202e-08
2.95337e-08
2.95433e-08
2.95478e-08
2.95508e-08
2.9553e-08
2.95552e-08
2.95536e-08
2.95495e-08
2.95452e-08
2.95438e-08
2.95365e-08
2.95191e-08
2.95093e-08
2.95117e-08
2.95194e-08
2.95309e-08
2.95464e-08
2.95584e-08
2.9574e-08
2.95953e-08
2.96192e-08
2.96324e-08
2.9619e-08
2.95876e-08
2.95566e-08
2.95313e-08
2.95134e-08
2.95016e-08
2.94942e-08
2.94902e-08
2.94884e-08
2.94883e-08
2.94887e-08
2.94894e-08
2.94903e-08
2.94913e-08
2.94923e-08
2.94934e-08
2.94944e-08
2.94953e-08
2.94961e-08
2.94968e-08
2.94974e-08
2.94979e-08
2.94983e-08
2.94986e-08
2.94988e-08
2.9499e-08
2.94991e-08
2.94991e-08
2.94992e-08
2.94992e-08
2.94992e-08
2.94991e-08
2.9499e-08
2.94989e-08
2.94988e-08
2.94986e-08
2.94985e-08
2.94984e-08
2.94983e-08
2.94982e-08
2.94981e-08
2.9498e-08
2.94979e-08
2.94979e-08
2.94978e-08
2.94978e-08
2.94978e-08
2.94977e-08
2.94977e-08
2.94977e-08
2.94977e-08
2.94977e-08
2.94977e-08
2.94977e-08
2.94977e-08
2.94977e-08
2.94977e-08
2.94977e-08
2.94977e-08
2.94977e-08
2.94978e-08
2.94978e-08
2.94978e-08
2.94978e-08
2.94978e-08
2.94978e-08
2.94978e-08
2.94978e-08
2.94978e-08
2.94978e-08
2.94978e-08
2.94978e-08
2.94978e-08
2.94978e-08
2.94978e-08
2.94978e-08
2.94978e-08
2.94978e-08
2.94978e-08
2.94978e-08
2.94978e-08
2.94978e-08
2.94978e-08
2.94978e-08
2.94978e-08
2.94978e-08
2.94978e-08
2.94978e-08
2.94977e-08
2.94977e-08
2.94976e-08
2.94976e-08
2.94975e-08
2.94974e-08
2.94974e-08
2.94972e-08
2.94971e-08
2.94969e-08
2.94967e-08
2.94965e-08
2.94962e-08
2.94959e-08
2.94955e-08
2.94951e-08
2.94946e-08
2.9494e-08
2.94934e-08
2.94927e-08
2.94918e-08
2.94909e-08
2.94899e-08
2.94887e-08
2.94874e-08
2.94861e-08
2.94845e-08
2.94829e-08
2.94812e-08
2.94794e-08
2.94774e-08
2.94754e-08
2.94734e-08
2.94714e-08
2.94693e-08
2.94673e-08
2.94654e-08
2.94636e-08
2.94619e-08
2.94605e-08
3.75588e-07
3.7929e-07
3.81854e-07
3.83977e-07
3.84967e-07
3.85433e-07
3.85578e-07
3.85664e-07
3.85683e-07
3.85688e-07
3.85597e-07
3.85482e-07
3.8535e-07
3.85242e-07
3.8515e-07
3.85092e-07
3.85042e-07
3.84966e-07
3.84889e-07
3.84836e-07
3.8491e-07
3.85059e-07
3.85236e-07
3.85179e-07
3.85172e-07
3.85369e-07
3.85684e-07
3.8575e-07
3.85704e-07
3.85614e-07
3.85531e-07
3.85462e-07
3.85412e-07
3.85376e-07
3.85352e-07
3.85337e-07
3.85327e-07
3.85323e-07
3.85335e-07
3.8536e-07
3.85393e-07
3.85431e-07
3.85471e-07
3.85511e-07
3.85549e-07
3.85585e-07
3.85618e-07
3.85647e-07
3.85671e-07
3.85692e-07
3.85709e-07
3.85723e-07
3.85733e-07
3.85742e-07
3.85747e-07
3.85751e-07
3.85754e-07
3.85755e-07
3.85755e-07
3.85755e-07
3.85755e-07
3.85755e-07
3.85755e-07
3.85755e-07
3.85755e-07
3.85755e-07
3.85755e-07
3.85755e-07
3.85755e-07
3.85755e-07
3.85755e-07
3.85755e-07
3.85755e-07
3.85755e-07
3.85755e-07
3.85755e-07
3.85755e-07
3.85755e-07
3.85755e-07
3.85755e-07
3.85755e-07
3.85755e-07
3.85755e-07
3.85755e-07
3.85755e-07
3.85755e-07
3.85756e-07
3.85756e-07
3.85756e-07
3.85756e-07
3.85757e-07
3.85757e-07
3.85757e-07
3.85757e-07
3.85758e-07
3.85758e-07
3.85758e-07
3.85758e-07
3.85758e-07
3.85759e-07
3.85759e-07
3.85759e-07
3.85759e-07
3.85759e-07
3.85759e-07
3.85759e-07
3.85759e-07
3.85758e-07
3.85758e-07
3.85758e-07
3.85758e-07
3.85757e-07
3.85756e-07
3.85756e-07
3.85755e-07
3.85754e-07
3.85752e-07
3.8575e-07
3.85748e-07
3.85746e-07
3.85743e-07
3.85739e-07
3.85735e-07
3.8573e-07
3.85723e-07
3.85716e-07
3.85708e-07
3.85698e-07
3.85687e-07
3.85674e-07
3.85659e-07
3.85642e-07
3.85622e-07
3.856e-07
3.85574e-07
3.85546e-07
3.85513e-07
3.85478e-07
3.85438e-07
3.85394e-07
3.85346e-07
3.85294e-07
3.85237e-07
3.85176e-07
3.85112e-07
3.85044e-07
3.84973e-07
3.849e-07
3.84825e-07
3.8475e-07
3.84675e-07
3.84603e-07
3.84533e-07
3.84468e-07
3.84408e-07
3.84356e-07
4.67474e-07
4.67916e-07
4.68172e-07
4.68393e-07
4.68459e-07
4.68527e-07
4.68527e-07
4.68543e-07
4.68536e-07
4.68543e-07
4.68538e-07
4.68534e-07
4.68522e-07
4.68513e-07
4.68501e-07
4.68494e-07
4.68491e-07
4.68483e-07
4.68477e-07
4.68473e-07
4.68477e-07
4.68483e-07
4.68507e-07
4.685e-07
4.685e-07
4.68511e-07
4.68542e-07
4.68549e-07
4.68542e-07
4.68526e-07
4.68513e-07
4.68501e-07
4.68492e-07
4.68484e-07
4.68478e-07
4.68475e-07
4.68472e-07
4.68471e-07
4.68469e-07
4.68468e-07
4.68467e-07
4.68467e-07
4.68468e-07
4.68468e-07
4.68468e-07
4.68469e-07
4.68469e-07
4.68469e-07
4.68469e-07
4.68469e-07
4.68469e-07
4.68468e-07
4.68468e-07
4.68467e-07
4.68467e-07
4.68466e-07
4.68466e-07
4.68465e-07
4.68465e-07
4.68464e-07
4.68464e-07
4.68463e-07
4.68463e-07
4.68462e-07
4.68461e-07
4.68461e-07
4.68461e-07
4.6846e-07
4.6846e-07
4.68459e-07
4.68459e-07
4.68459e-07
4.68459e-07
4.68459e-07
4.68458e-07
4.68458e-07
4.68458e-07
4.68458e-07
4.68458e-07
4.68458e-07
4.68458e-07
4.68458e-07
4.68458e-07
4.68458e-07
4.68458e-07
4.68458e-07
4.68458e-07
4.68458e-07
4.68458e-07
4.68458e-07
4.68458e-07
4.68458e-07
4.68458e-07
4.68458e-07
4.68458e-07
4.68457e-07
4.68457e-07
4.68457e-07
4.68457e-07
4.68457e-07
4.68457e-07
4.68457e-07
4.68457e-07
4.68457e-07
4.68458e-07
4.68458e-07
4.68458e-07
4.68458e-07
4.68458e-07
4.68458e-07
4.68458e-07
4.68458e-07
4.68458e-07
4.68458e-07
4.68458e-07
4.68459e-07
4.68459e-07
4.68459e-07
4.68459e-07
4.6846e-07
4.6846e-07
4.6846e-07
4.68461e-07
4.68461e-07
4.68461e-07
4.68462e-07
4.68462e-07
4.68462e-07
4.68463e-07
4.68463e-07
4.68463e-07
4.68463e-07
4.68463e-07
4.68463e-07
4.68463e-07
4.68462e-07
4.68462e-07
4.68461e-07
4.6846e-07
4.68459e-07
4.68457e-07
4.68456e-07
4.68453e-07
4.68451e-07
4.68448e-07
4.68444e-07
4.68441e-07
4.68436e-07
4.68432e-07
4.68428e-07
4.68423e-07
4.68419e-07
4.68415e-07
4.6841e-07
4.68407e-07
4.68403e-07
4.71967e-07
4.72188e-07
4.72254e-07
4.72456e-07
4.72491e-07
4.72553e-07
4.72535e-07
4.72569e-07
4.72567e-07
4.72581e-07
4.72556e-07
4.72549e-07
4.72545e-07
4.72553e-07
4.72552e-07
4.72558e-07
4.72573e-07
4.72575e-07
4.72581e-07
4.72586e-07
4.7259e-07
4.72583e-07
4.726e-07
4.72598e-07
4.72602e-07
4.726e-07
4.72613e-07
4.72624e-07
4.7264e-07
4.72643e-07
4.72651e-07
4.72655e-07
4.7266e-07
4.72665e-07
4.72668e-07
4.72671e-07
4.72674e-07
4.72677e-07
4.72681e-07
4.72685e-07
4.72689e-07
4.72693e-07
4.72697e-07
4.72701e-07
4.72705e-07
4.72708e-07
4.72711e-07
4.72714e-07
4.72716e-07
4.72718e-07
4.7272e-07
4.72722e-07
4.72723e-07
4.72724e-07
4.72726e-07
4.72726e-07
4.72727e-07
4.72728e-07
4.72728e-07
4.72729e-07
4.7273e-07
4.7273e-07
4.72731e-07
4.72732e-07
4.72732e-07
4.72733e-07
4.72733e-07
4.72734e-07
4.72734e-07
4.72734e-07
4.72735e-07
4.72735e-07
4.72735e-07
4.72735e-07
4.72736e-07
4.72736e-07
4.72736e-07
4.72736e-07
4.72736e-07
4.72736e-07
4.72736e-07
4.72736e-07
4.72736e-07
4.72736e-07
4.72736e-07
4.72736e-07
4.72737e-07
4.72737e-07
4.72737e-07
4.72737e-07
4.72737e-07
4.72737e-07
4.72737e-07
4.72738e-07
4.72738e-07
4.72738e-07
4.72738e-07
4.72738e-07
4.72738e-07
4.72738e-07
4.72738e-07
4.72738e-07
4.72738e-07
4.72738e-07
4.72738e-07
4.72738e-07
4.72738e-07
4.72738e-07
4.72738e-07
4.72738e-07
4.72738e-07
4.72737e-07
4.72737e-07
4.72737e-07
4.72737e-07
4.72736e-07
4.72736e-07
4.72736e-07
4.72735e-07
4.72735e-07
4.72734e-07
4.72733e-07
4.72733e-07
4.72732e-07
4.72731e-07
4.7273e-07
4.72729e-07
4.72727e-07
4.72726e-07
4.72724e-07
4.72723e-07
4.72721e-07
4.72719e-07
4.72717e-07
4.72715e-07
4.72712e-07
4.7271e-07
4.72707e-07
4.72704e-07
4.72701e-07
4.72697e-07
4.72694e-07
4.7269e-07
4.72686e-07
4.72681e-07
4.72677e-07
4.72672e-07
4.72666e-07
4.72661e-07
4.72656e-07
4.7265e-07
4.72644e-07
4.72638e-07
4.72632e-07
4.72625e-07
4.72619e-07
4.73031e-07
4.73039e-07
4.72997e-07
4.7299e-07
4.72958e-07
4.72971e-07
4.7296e-07
4.72964e-07
4.72959e-07
4.72962e-07
4.72964e-07
4.72968e-07
4.72968e-07
4.7297e-07
4.72967e-07
4.72965e-07
4.72966e-07
4.72965e-07
4.72964e-07
4.72963e-07
4.72962e-07
4.72958e-07
4.72964e-07
4.72961e-07
4.72961e-07
4.72955e-07
4.72958e-07
4.72959e-07
4.72958e-07
4.72954e-07
4.72952e-07
4.7295e-07
4.72949e-07
4.72948e-07
4.72947e-07
4.72947e-07
4.72946e-07
4.72946e-07
4.72945e-07
4.72944e-07
4.72943e-07
4.72942e-07
4.72941e-07
4.7294e-07
4.72939e-07
4.72938e-07
4.72937e-07
4.72937e-07
4.72936e-07
4.72936e-07
4.72935e-07
4.72935e-07
4.72934e-07
4.72934e-07
4.72934e-07
4.72934e-07
4.72933e-07
4.72933e-07
4.72933e-07
4.72933e-07
4.72933e-07
4.72932e-07
4.72932e-07
4.72932e-07
4.72932e-07
4.72932e-07
4.72932e-07
4.72931e-07
4.72931e-07
4.72931e-07
4.72931e-07
4.72931e-07
4.72931e-07
4.72931e-07
4.72931e-07
4.72931e-07
4.72931e-07
4.72931e-07
4.72931e-07
4.72931e-07
4.72931e-07
4.72931e-07
4.72931e-07
4.72931e-07
4.72931e-07
4.72931e-07
4.7293e-07
4.7293e-07
4.7293e-07
4.7293e-07
4.7293e-07
4.7293e-07
4.7293e-07
4.7293e-07
4.7293e-07
4.7293e-07
4.7293e-07
4.7293e-07
4.7293e-07
4.7293e-07
4.7293e-07
4.7293e-07
4.7293e-07
4.7293e-07
4.7293e-07
4.7293e-07
4.7293e-07
4.7293e-07
4.7293e-07
4.7293e-07
4.7293e-07
4.7293e-07
4.7293e-07
4.7293e-07
4.7293e-07
4.7293e-07
4.72931e-07
4.72931e-07
4.72931e-07
4.72931e-07
4.72931e-07
4.72931e-07
4.72932e-07
4.72932e-07
4.72932e-07
4.72932e-07
4.72933e-07
4.72933e-07
4.72934e-07
4.72934e-07
4.72934e-07
4.72935e-07
4.72935e-07
4.72936e-07
4.72937e-07
4.72937e-07
4.72938e-07
4.72939e-07
4.72939e-07
4.7294e-07
4.72941e-07
4.72942e-07
4.72943e-07
4.72944e-07
4.72945e-07
4.72946e-07
4.72947e-07
4.72949e-07
4.7295e-07
4.72951e-07
4.72952e-07
4.72954e-07
4.72955e-07
4.72957e-07
4.72958e-07
4.7296e-07
4.72172e-07
4.72347e-07
4.72386e-07
4.72584e-07
4.72621e-07
4.72682e-07
4.72664e-07
4.72704e-07
4.72705e-07
4.72721e-07
4.72691e-07
4.72685e-07
4.72685e-07
4.72697e-07
4.727e-07
4.72707e-07
4.72725e-07
4.72727e-07
4.72736e-07
4.72743e-07
4.72747e-07
4.72739e-07
4.72756e-07
4.7276e-07
4.72765e-07
4.72762e-07
4.72772e-07
4.72785e-07
4.72799e-07
4.728e-07
4.72807e-07
4.72811e-07
4.72815e-07
4.72819e-07
4.72823e-07
4.72827e-07
4.7283e-07
4.72833e-07
4.72838e-07
4.72842e-07
4.72847e-07
4.72851e-07
4.72855e-07
4.72858e-07
4.72862e-07
4.72865e-07
4.72868e-07
4.72871e-07
4.72873e-07
4.72875e-07
4.72877e-07
4.72878e-07
4.7288e-07
4.72881e-07
4.72883e-07
4.72884e-07
4.72885e-07
4.72885e-07
4.72886e-07
4.72887e-07
4.72888e-07
4.72889e-07
4.7289e-07
4.7289e-07
4.72891e-07
4.72892e-07
4.72892e-07
4.72893e-07
4.72894e-07
4.72894e-07
4.72894e-07
4.72895e-07
4.72895e-07
4.72895e-07
4.72895e-07
4.72896e-07
4.72896e-07
4.72896e-07
4.72896e-07
4.72896e-07
4.72896e-07
4.72896e-07
4.72897e-07
4.72897e-07
4.72897e-07
4.72897e-07
4.72897e-07
4.72898e-07
4.72898e-07
4.72898e-07
4.72898e-07
4.72898e-07
4.72899e-07
4.72899e-07
4.72899e-07
4.72899e-07
4.72899e-07
4.729e-07
4.729e-07
4.729e-07
4.729e-07
4.729e-07
4.729e-07
4.729e-07
4.729e-07
4.729e-07
4.729e-07
4.729e-07
4.729e-07
4.72899e-07
4.72899e-07
4.72899e-07
4.72899e-07
4.72898e-07
4.72898e-07
4.72898e-07
4.72897e-07
4.72897e-07
4.72896e-07
4.72896e-07
4.72895e-07
4.72894e-07
4.72894e-07
4.72893e-07
4.72892e-07
4.72891e-07
4.7289e-07
4.72888e-07
4.72887e-07
4.72885e-07
4.72884e-07
4.72882e-07
4.7288e-07
4.72878e-07
4.72876e-07
4.72873e-07
4.72871e-07
4.72868e-07
4.72865e-07
4.72862e-07
4.72859e-07
4.72855e-07
4.72851e-07
4.72847e-07
4.72843e-07
4.72839e-07
4.72834e-07
4.72829e-07
4.72824e-07
4.72818e-07
4.72813e-07
4.72807e-07
4.72801e-07
4.72794e-07
4.72788e-07
4.72781e-07
4.73019e-07
4.73038e-07
4.73002e-07
4.72997e-07
4.72966e-07
4.72979e-07
4.72968e-07
4.72971e-07
4.72964e-07
4.72967e-07
4.72971e-07
4.72975e-07
4.72975e-07
4.72975e-07
4.72972e-07
4.7297e-07
4.7297e-07
4.72969e-07
4.72968e-07
4.72966e-07
4.72966e-07
4.72962e-07
4.72967e-07
4.72964e-07
4.72963e-07
4.72957e-07
4.7296e-07
4.7296e-07
4.72961e-07
4.72958e-07
4.72957e-07
4.72955e-07
4.72954e-07
4.72953e-07
4.72952e-07
4.72952e-07
4.72951e-07
4.7295e-07
4.72949e-07
4.72948e-07
4.72947e-07
4.72946e-07
4.72946e-07
4.72945e-07
4.72944e-07
4.72943e-07
4.72943e-07
4.72942e-07
4.72941e-07
4.72941e-07
4.72941e-07
4.7294e-07
4.7294e-07
4.72939e-07
4.72939e-07
4.72939e-07
4.72939e-07
4.72939e-07
4.72938e-07
4.72938e-07
4.72938e-07
4.72938e-07
4.72937e-07
4.72937e-07
4.72937e-07
4.72937e-07
4.72937e-07
4.72936e-07
4.72936e-07
4.72936e-07
4.72936e-07
4.72936e-07
4.72936e-07
4.72936e-07
4.72936e-07
4.72936e-07
4.72936e-07
4.72936e-07
4.72936e-07
4.72936e-07
4.72936e-07
4.72936e-07
4.72936e-07
4.72935e-07
4.72935e-07
4.72935e-07
4.72935e-07
4.72935e-07
4.72935e-07
4.72935e-07
4.72935e-07
4.72935e-07
4.72935e-07
4.72935e-07
4.72935e-07
4.72935e-07
4.72935e-07
4.72935e-07
4.72935e-07
4.72934e-07
4.72934e-07
4.72934e-07
4.72934e-07
4.72934e-07
4.72934e-07
4.72934e-07
4.72934e-07
4.72935e-07
4.72935e-07
4.72935e-07
4.72935e-07
4.72935e-07
4.72935e-07
4.72935e-07
4.72935e-07
4.72935e-07
4.72935e-07
4.72935e-07
4.72936e-07
4.72936e-07
4.72936e-07
4.72936e-07
4.72936e-07
4.72937e-07
4.72937e-07
4.72937e-07
4.72938e-07
4.72938e-07
4.72938e-07
4.72939e-07
4.72939e-07
4.7294e-07
4.7294e-07
4.72941e-07
4.72941e-07
4.72942e-07
4.72943e-07
4.72943e-07
4.72944e-07
4.72945e-07
4.72946e-07
4.72947e-07
4.72947e-07
4.72948e-07
4.72949e-07
4.7295e-07
4.72952e-07
4.72953e-07
4.72954e-07
4.72955e-07
4.72956e-07
4.72958e-07
4.72959e-07
4.72961e-07
4.72962e-07
4.72964e-07
4.7221e-07
4.72355e-07
4.72372e-07
4.72566e-07
4.72604e-07
4.72665e-07
4.72648e-07
4.72693e-07
4.72697e-07
4.72713e-07
4.72678e-07
4.72673e-07
4.72675e-07
4.7269e-07
4.72696e-07
4.72704e-07
4.72722e-07
4.72725e-07
4.72735e-07
4.72742e-07
4.72746e-07
4.72739e-07
4.72757e-07
4.72764e-07
4.72769e-07
4.72766e-07
4.72778e-07
4.72792e-07
4.72803e-07
4.72802e-07
4.72807e-07
4.7281e-07
4.72814e-07
4.72819e-07
4.72823e-07
4.72826e-07
4.7283e-07
4.72833e-07
4.72838e-07
4.72842e-07
4.72846e-07
4.7285e-07
4.72854e-07
4.72857e-07
4.7286e-07
4.72863e-07
4.72865e-07
4.72868e-07
4.7287e-07
4.72872e-07
4.72874e-07
4.72876e-07
4.72877e-07
4.72879e-07
4.7288e-07
4.72881e-07
4.72882e-07
4.72883e-07
4.72884e-07
4.72885e-07
4.72886e-07
4.72887e-07
4.72888e-07
4.72888e-07
4.72889e-07
4.7289e-07
4.72891e-07
4.72891e-07
4.72892e-07
4.72893e-07
4.72893e-07
4.72893e-07
4.72894e-07
4.72894e-07
4.72894e-07
4.72894e-07
4.72895e-07
4.72895e-07
4.72895e-07
4.72895e-07
4.72895e-07
4.72896e-07
4.72896e-07
4.72896e-07
4.72896e-07
4.72897e-07
4.72897e-07
4.72897e-07
4.72898e-07
4.72898e-07
4.72898e-07
4.72898e-07
4.72899e-07
4.72899e-07
4.72899e-07
4.729e-07
4.729e-07
4.729e-07
4.729e-07
4.729e-07
4.729e-07
4.72901e-07
4.72901e-07
4.729e-07
4.72901e-07
4.729e-07
4.729e-07
4.729e-07
4.729e-07
4.729e-07
4.729e-07
4.72899e-07
4.72899e-07
4.72899e-07
4.72898e-07
4.72898e-07
4.72898e-07
4.72897e-07
4.72897e-07
4.72896e-07
4.72895e-07
4.72895e-07
4.72894e-07
4.72893e-07
4.72892e-07
4.72891e-07
4.7289e-07
4.72888e-07
4.72887e-07
4.72885e-07
4.72884e-07
4.72882e-07
4.7288e-07
4.72878e-07
4.72876e-07
4.72874e-07
4.72872e-07
4.72869e-07
4.72866e-07
4.72863e-07
4.7286e-07
4.72857e-07
4.72854e-07
4.7285e-07
4.72846e-07
4.72842e-07
4.72838e-07
4.72833e-07
4.72828e-07
4.72823e-07
4.72818e-07
4.72812e-07
4.72806e-07
4.728e-07
4.72794e-07
4.72787e-07
4.73001e-07
4.73027e-07
4.73e-07
4.72998e-07
4.72968e-07
4.72982e-07
4.7297e-07
4.72972e-07
4.72966e-07
4.72968e-07
4.72973e-07
4.72977e-07
4.72976e-07
4.72977e-07
4.72972e-07
4.7297e-07
4.72971e-07
4.72969e-07
4.72968e-07
4.72966e-07
4.72966e-07
4.72962e-07
4.72966e-07
4.72963e-07
4.72962e-07
4.72956e-07
4.72958e-07
4.72958e-07
4.7296e-07
4.72957e-07
4.72956e-07
4.72955e-07
4.72954e-07
4.72953e-07
4.72952e-07
4.72951e-07
4.7295e-07
4.7295e-07
4.72949e-07
4.72948e-07
4.72947e-07
4.72946e-07
4.72945e-07
4.72945e-07
4.72944e-07
4.72944e-07
4.72943e-07
4.72942e-07
4.72942e-07
4.72942e-07
4.72941e-07
4.72941e-07
4.7294e-07
4.7294e-07
4.7294e-07
4.7294e-07
4.72939e-07
4.72939e-07
4.72939e-07
4.72939e-07
4.72938e-07
4.72938e-07
4.72938e-07
4.72938e-07
4.72937e-07
4.72937e-07
4.72937e-07
4.72937e-07
4.72937e-07
4.72937e-07
4.72937e-07
4.72936e-07
4.72936e-07
4.72936e-07
4.72936e-07
4.72936e-07
4.72936e-07
4.72936e-07
4.72936e-07
4.72936e-07
4.72936e-07
4.72936e-07
4.72936e-07
4.72936e-07
4.72936e-07
4.72936e-07
4.72936e-07
4.72935e-07
4.72935e-07
4.72935e-07
4.72935e-07
4.72935e-07
4.72935e-07
4.72935e-07
4.72935e-07
4.72935e-07
4.72935e-07
4.72935e-07
4.72935e-07
4.72935e-07
4.72935e-07
4.72934e-07
4.72934e-07
4.72934e-07
4.72934e-07
4.72934e-07
4.72935e-07
4.72935e-07
4.72935e-07
4.72935e-07
4.72935e-07
4.72935e-07
4.72935e-07
4.72935e-07
4.72935e-07
4.72935e-07
4.72935e-07
4.72936e-07
4.72936e-07
4.72936e-07
4.72936e-07
4.72936e-07
4.72936e-07
4.72937e-07
4.72937e-07
4.72937e-07
4.72938e-07
4.72938e-07
4.72938e-07
4.72939e-07
4.72939e-07
4.7294e-07
4.7294e-07
4.72941e-07
4.72941e-07
4.72942e-07
4.72942e-07
4.72943e-07
4.72944e-07
4.72944e-07
4.72945e-07
4.72946e-07
4.72946e-07
4.72947e-07
4.72948e-07
4.72949e-07
4.7295e-07
4.72951e-07
4.72952e-07
4.72953e-07
4.72954e-07
4.72955e-07
4.72957e-07
4.72958e-07
4.72959e-07
4.72961e-07
4.72302e-07
4.72403e-07
4.72382e-07
4.72559e-07
4.72594e-07
4.72655e-07
4.72636e-07
4.72684e-07
4.7269e-07
4.72706e-07
4.72667e-07
4.72664e-07
4.72668e-07
4.72685e-07
4.72692e-07
4.727e-07
4.72719e-07
4.72721e-07
4.72731e-07
4.72738e-07
4.72744e-07
4.72737e-07
4.72757e-07
4.72764e-07
4.72769e-07
4.72765e-07
4.72779e-07
4.72793e-07
4.72804e-07
4.72803e-07
4.72808e-07
4.72812e-07
4.72816e-07
4.7282e-07
4.72824e-07
4.72829e-07
4.72833e-07
4.72836e-07
4.7284e-07
4.72844e-07
4.72847e-07
4.7285e-07
4.72854e-07
4.72856e-07
4.72859e-07
4.72861e-07
4.72863e-07
4.72866e-07
4.72868e-07
4.7287e-07
4.72872e-07
4.72873e-07
4.72875e-07
4.72876e-07
4.72878e-07
4.72879e-07
4.7288e-07
4.72881e-07
4.72882e-07
4.72883e-07
4.72884e-07
4.72885e-07
4.72886e-07
4.72887e-07
4.72888e-07
4.72888e-07
4.72889e-07
4.7289e-07
4.7289e-07
4.72891e-07
4.72892e-07
4.72892e-07
4.72892e-07
4.72893e-07
4.72893e-07
4.72893e-07
4.72893e-07
4.72894e-07
4.72894e-07
4.72894e-07
4.72894e-07
4.72895e-07
4.72895e-07
4.72895e-07
4.72896e-07
4.72896e-07
4.72897e-07
4.72897e-07
4.72897e-07
4.72898e-07
4.72898e-07
4.72898e-07
4.72899e-07
4.72899e-07
4.72899e-07
4.729e-07
4.729e-07
4.729e-07
4.729e-07
4.72901e-07
4.72901e-07
4.72901e-07
4.72901e-07
4.72901e-07
4.72901e-07
4.72901e-07
4.72901e-07
4.72901e-07
4.729e-07
4.729e-07
4.729e-07
4.729e-07
4.72899e-07
4.72899e-07
4.72898e-07
4.72898e-07
4.72898e-07
4.72897e-07
4.72896e-07
4.72896e-07
4.72895e-07
4.72894e-07
4.72894e-07
4.72893e-07
4.72892e-07
4.72891e-07
4.7289e-07
4.72889e-07
4.72887e-07
4.72886e-07
4.72884e-07
4.72883e-07
4.72881e-07
4.72879e-07
4.72877e-07
4.72875e-07
4.72873e-07
4.72871e-07
4.72869e-07
4.72866e-07
4.72864e-07
4.72861e-07
4.72858e-07
4.72855e-07
4.72852e-07
4.72848e-07
4.72844e-07
4.7284e-07
4.72836e-07
4.72832e-07
4.72827e-07
4.72822e-07
4.72817e-07
4.72812e-07
4.72806e-07
4.72801e-07
4.72978e-07
4.73013e-07
4.72996e-07
4.72998e-07
4.72969e-07
4.72984e-07
4.72973e-07
4.72974e-07
4.72967e-07
4.7297e-07
4.72976e-07
4.72979e-07
4.72978e-07
4.72978e-07
4.72973e-07
4.72971e-07
4.72972e-07
4.7297e-07
4.72969e-07
4.72967e-07
4.72966e-07
4.72962e-07
4.72966e-07
4.72961e-07
4.7296e-07
4.72955e-07
4.72957e-07
4.72957e-07
4.72959e-07
4.72957e-07
4.72956e-07
4.72954e-07
4.72953e-07
4.72952e-07
4.72951e-07
4.7295e-07
4.72949e-07
4.72949e-07
4.72948e-07
4.72947e-07
4.72946e-07
4.72946e-07
4.72945e-07
4.72945e-07
4.72944e-07
4.72944e-07
4.72943e-07
4.72943e-07
4.72942e-07
4.72942e-07
4.72942e-07
4.72941e-07
4.72941e-07
4.72941e-07
4.7294e-07
4.7294e-07
4.7294e-07
4.7294e-07
4.72939e-07
4.72939e-07
4.72939e-07
4.72939e-07
4.72938e-07
4.72938e-07
4.72938e-07
4.72938e-07
4.72938e-07
4.72937e-07
4.72937e-07
4.72937e-07
4.72937e-07
4.72937e-07
4.72937e-07
4.72937e-07
4.72937e-07
4.72937e-07
4.72937e-07
4.72937e-07
4.72937e-07
4.72936e-07
4.72936e-07
4.72936e-07
4.72936e-07
4.72936e-07
4.72936e-07
4.72936e-07
4.72936e-07
4.72936e-07
4.72936e-07
4.72936e-07
4.72935e-07
4.72935e-07
4.72935e-07
4.72935e-07
4.72935e-07
4.72935e-07
4.72935e-07
4.72935e-07
4.72935e-07
4.72935e-07
4.72935e-07
4.72934e-07
4.72934e-07
4.72934e-07
4.72934e-07
4.72935e-07
4.72935e-07
4.72935e-07
4.72935e-07
4.72935e-07
4.72935e-07
4.72935e-07
4.72935e-07
4.72935e-07
4.72935e-07
4.72935e-07
4.72935e-07
4.72936e-07
4.72936e-07
4.72936e-07
4.72936e-07
4.72936e-07
4.72937e-07
4.72937e-07
4.72937e-07
4.72937e-07
4.72938e-07
4.72938e-07
4.72938e-07
4.72939e-07
4.72939e-07
4.72939e-07
4.7294e-07
4.7294e-07
4.72941e-07
4.72941e-07
4.72942e-07
4.72942e-07
4.72943e-07
4.72943e-07
4.72944e-07
4.72944e-07
4.72945e-07
4.72946e-07
4.72946e-07
4.72947e-07
4.72948e-07
4.72949e-07
4.7295e-07
4.72951e-07
4.72951e-07
4.72952e-07
4.72953e-07
4.72954e-07
4.72955e-07
4.72957e-07
4.7243e-07
4.72473e-07
4.72403e-07
4.72555e-07
4.72587e-07
4.72645e-07
4.72625e-07
4.72676e-07
4.72682e-07
4.72698e-07
4.72656e-07
4.72656e-07
4.72661e-07
4.7268e-07
4.72688e-07
4.72696e-07
4.72713e-07
4.72716e-07
4.72725e-07
4.72732e-07
4.7274e-07
4.72735e-07
4.72755e-07
4.72762e-07
4.72768e-07
4.72764e-07
4.72779e-07
4.72793e-07
4.72804e-07
4.72804e-07
4.72809e-07
4.72813e-07
4.72817e-07
4.72822e-07
4.72826e-07
4.72831e-07
4.72835e-07
4.72838e-07
4.72842e-07
4.72845e-07
4.72848e-07
4.7285e-07
4.72853e-07