/*--------------------------------*- C++ -*----------------------------------*\
| =========                 |                                                 |
| \\      /  F ield         | OpenFOAM: The Open Source CFD Toolbox           |
|  \\    /   O peration     | Version:  v1912                                 |
|   \\  /    A nd           | Website:  www.openfoam.com                      |
|    \\/     M anipulation  |                                                 |
\*---------------------------------------------------------------------------*/
FoamFile
{
    version     2.0;
    format      ascii;
    class       volSymmTensorField;
    location    "50";
    object      R;
}
// * * * * * * * * * * * * * * * * * * * * * * * * * * * * * * * * * * * * * //

dimensions      [0 2 -2 0 0 0 0];


internalField   nonuniform List<symmTensor> 
14268
(
(1.45565e-09 -8.13306e-11 0 1.59936e-09 0 1.52703e-09)
(1.2764e-09 -6.65533e-11 0 1.36372e-09 0 1.31994e-09)
(1.07925e-09 -5.10848e-11 0 1.11287e-09 0 1.09626e-09)
(9.48294e-10 -4.09085e-11 0 9.5505e-10 0 9.51454e-10)
(8.95704e-10 -3.57193e-11 0 8.96643e-10 0 8.9591e-10)
(9.21001e-10 -3.26189e-11 0 9.38358e-10 0 9.28821e-10)
(1.20554e-09 -3.87811e-11 0 1.31522e-09 0 1.2584e-09)
(1.87393e-09 -5.95839e-11 0 2.23272e-09 0 2.05709e-09)
(2.21293e-08 -1.44624e-09 0 2.47941e-08 0 2.34562e-08)
(2.03885e-08 -1.21578e-09 0 2.19143e-08 0 2.11524e-08)
(1.81112e-08 -9.47464e-10 0 1.84141e-08 0 1.82682e-08)
(1.6482e-08 -7.81851e-10 0 1.61701e-08 0 1.63187e-08)
(1.58442e-08 -7.15856e-10 0 1.53928e-08 0 1.56043e-08)
(1.61407e-08 -7.12861e-10 0 1.60475e-08 0 1.60493e-08)
(1.91243e-08 -9.10019e-10 0 2.10296e-08 0 1.99484e-08)
(2.44715e-08 -1.23838e-09 0 3.06987e-08 0 2.74113e-08)
(4.45317e-08 -8.60993e-10 0 5.03464e-08 0 4.74152e-08)
(4.4097e-08 -6.9796e-10 0 4.74559e-08 0 4.57723e-08)
(4.31502e-08 -4.99649e-10 0 4.31968e-08 0 4.31968e-08)
(4.21625e-08 -4.55413e-10 0 4.01122e-08 0 4.11594e-08)
(4.1649e-08 -5.57695e-10 0 3.88845e-08 0 4.03205e-08)
(4.16477e-08 -8.84709e-10 0 3.92159e-08 0 4.05378e-08)
(4.26666e-08 -1.87278e-09 0 4.38911e-08 0 4.35699e-08)
(4.37996e-08 -2.75181e-09 0 5.33702e-08 0 4.93182e-08)
(5.1554e-08 -1.26725e-09 0 5.79615e-08 0 5.47399e-08)
(5.23693e-08 -1.10361e-09 0 5.58825e-08 0 5.41251e-08)
(5.33697e-08 -9.02202e-10 0 5.30073e-08 0 5.31978e-08)
(5.40379e-08 -8.45933e-10 0 5.09966e-08 0 5.24905e-08)
(5.42492e-08 -9.50723e-10 0 5.03242e-08 0 5.2219e-08)
(5.42553e-08 -1.41741e-09 0 5.09378e-08 0 5.23813e-08)
(5.31244e-08 -2.58445e-09 0 5.57401e-08 0 5.3907e-08)
(5.03376e-08 -3.40798e-09 0 6.31489e-08 0 5.6219e-08)
(5.307e-08 -1.43955e-09 0 5.9302e-08 0 5.61569e-08)
(5.4215e-08 -1.30565e-09 0 5.77489e-08 0 5.59731e-08)
(5.54338e-08 -1.17544e-09 0 5.61368e-08 0 5.58011e-08)
(5.70814e-08 -1.12434e-09 0 5.41849e-08 0 5.56524e-08)
(5.78598e-08 -1.38429e-09 0 5.31203e-08 0 5.55849e-08)
(5.75116e-08 -1.84805e-09 0 5.33135e-08 0 5.56012e-08)
(5.49096e-08 -2.65118e-09 0 5.59495e-08 0 5.58126e-08)
(5.03238e-08 -2.8453e-09 0 6.0666e-08 0 5.61056e-08)
(5.34062e-08 -1.50017e-09 0 5.93622e-08 0 5.6381e-08)
(5.4279e-08 -1.41528e-09 0 5.83776e-08 0 5.63313e-08)
(5.52403e-08 -1.33636e-09 0 5.73716e-08 0 5.63107e-08)
(5.82001e-08 -1.18145e-09 0 5.45009e-08 0 5.6333e-08)
(5.93295e-08 -1.37234e-09 0 5.39083e-08 0 5.65281e-08)
(5.80016e-08 -1.96445e-09 0 5.61136e-08 0 5.67972e-08)
(5.55514e-08 -2.59638e-09 0 5.95e-08 0 5.70917e-08)
(5.1618e-08 -3.04683e-09 0 6.40016e-08 0 5.73807e-08)
(5.34047e-08 -1.52935e-09 0 5.95549e-08 0 5.64449e-08)
(5.43456e-08 -1.4477e-09 0 5.8508e-08 0 5.64061e-08)
(5.55224e-08 -1.36587e-09 0 5.7283e-08 0 5.63974e-08)
(5.89428e-08 -1.23505e-09 0 5.39551e-08 0 5.64737e-08)
(5.87346e-08 -1.41169e-09 0 5.42677e-08 0 5.65525e-08)
(5.7739e-08 -1.94328e-09 0 5.5003e-08 0 5.65277e-08)
(5.43128e-08 -2.71962e-09 0 5.77845e-08 0 5.63841e-08)
(5.1389e-08 -2.80258e-09 0 6.03428e-08 0 5.63412e-08)
(5.33507e-08 -1.51696e-09 0 5.94772e-08 0 5.64107e-08)
(5.4254e-08 -1.44599e-09 0 5.84986e-08 0 5.63797e-08)
(5.54372e-08 -1.36452e-09 0 5.73026e-08 0 5.63794e-08)
(5.88341e-08 -1.22792e-09 0 5.42048e-08 0 5.65054e-08)
(5.91089e-08 -1.49483e-09 0 5.46154e-08 0 5.67794e-08)
(5.80739e-08 -1.9987e-09 0 5.62944e-08 0 5.69604e-08)
(5.60541e-08 -2.48838e-09 0 5.88753e-08 0 5.71127e-08)
(5.15489e-08 -2.95553e-09 0 6.36412e-08 0 5.72739e-08)
(5.33523e-08 -1.35842e-09 0 5.94983e-08 0 5.64209e-08)
(5.41024e-08 -1.30944e-09 0 5.8696e-08 0 5.63987e-08)
(5.57747e-08 -1.2248e-09 0 5.70231e-08 0 5.64058e-08)
(5.89004e-08 -1.16228e-09 0 5.4092e-08 0 5.65162e-08)
(5.8795e-08 -1.35596e-09 0 5.43154e-08 0 5.66e-08)
(5.7841e-08 -1.82319e-09 0 5.51191e-08 0 5.65969e-08)
(5.44002e-08 -2.62409e-09 0 5.80385e-08 0 5.64759e-08)
(5.15489e-08 -2.75132e-09 0 6.06043e-08 0 5.64501e-08)
(5.3371e-08 -2.7986e-10 0 5.96791e-08 0 5.65005e-08)
(5.43052e-08 -2.62036e-10 0 5.86715e-08 0 5.64758e-08)
(5.55858e-08 -2.50291e-10 0 5.73841e-08 0 5.64828e-08)
(5.89074e-08 -3.10614e-10 0 5.43887e-08 0 5.66252e-08)
(5.89989e-08 -7.76744e-10 0 5.48385e-08 0 5.68369e-08)
(5.78763e-08 -1.50838e-09 0 5.63469e-08 0 5.69344e-08)
(5.59171e-08 -2.20398e-09 0 5.86236e-08 0 5.70065e-08)
(5.26198e-08 -2.90601e-09 0 6.19578e-08 0 5.70747e-08)
(5.39581e-08 5.28268e-09 0 6.05955e-08 0 5.7236e-08)
(5.55211e-08 5.51988e-09 0 5.93941e-08 0 5.74282e-08)
(5.81608e-08 5.5702e-09 0 5.71672e-08 0 5.76356e-08)
(5.94308e-08 5.25776e-09 0 5.60636e-08 0 5.77191e-08)
(5.9686e-08 3.92386e-09 0 5.53983e-08 0 5.75594e-08)
(5.78781e-08 9.09072e-10 0 5.58254e-08 0 5.69554e-08)
(5.47046e-08 -1.27278e-09 0 5.80868e-08 0 5.65778e-08)
(5.17055e-08 -2.42736e-09 0 6.09154e-08 0 5.65753e-08)
(5.74856e-08 1.50593e-08 0 6.28275e-08 0 5.99706e-08)
(6.22312e-08 1.91427e-08 0 6.22909e-08 0 6.20198e-08)
(6.82615e-08 2.31399e-08 0 6.17561e-08 0 6.46863e-08)
(7.12265e-08 2.45876e-08 0 6.16173e-08 0 6.60342e-08)
(7.07417e-08 2.26195e-08 0 6.08661e-08 0 6.54155e-08)
(6.35846e-08 1.38002e-08 0 5.95482e-08 0 6.12226e-08)
(5.64203e-08 5.53009e-09 0 6.02795e-08 0 5.80577e-08)
(5.22403e-08 -5.30148e-10 0 6.23538e-08 0 5.71557e-08)
(5.88128e-08 1.60377e-08 0 6.29228e-08 0 6.07529e-08)
(6.54136e-08 2.16371e-08 0 6.31246e-08 0 6.40519e-08)
(7.61524e-08 2.87815e-08 0 6.39646e-08 0 6.96424e-08)
(8.36042e-08 3.31605e-08 0 6.50232e-08 0 7.37439e-08)
(8.52706e-08 3.39921e-08 0 6.53633e-08 0 7.47268e-08)
(7.52749e-08 2.65532e-08 0 6.34671e-08 0 6.90031e-08)
(5.94701e-08 1.32656e-08 0 6.11598e-08 0 6.03056e-08)
(5.22885e-08 2.87917e-09 0 6.16376e-08 0 5.71829e-08)
(5.44471e-08 6.08548e-09 0 6.06082e-08 0 5.75481e-08)
(5.74547e-08 7.9983e-09 0 5.96169e-08 0 5.8521e-08)
(6.25891e-08 1.06869e-08 0 5.85004e-08 0 6.04595e-08)
(6.63811e-08 1.31043e-08 0 5.84356e-08 0 6.22291e-08)
(6.72634e-08 1.40894e-08 0 5.88093e-08 0 6.28165e-08)
(6.3561e-08 1.23652e-08 0 5.98039e-08 0 6.14039e-08)
(5.60788e-08 5.46214e-09 0 6.08872e-08 0 5.82263e-08)
(5.2271e-08 -4.6888e-10 0 6.22429e-08 0 5.71317e-08)
(5.45614e-08 -6.38858e-09 0 5.95594e-08 0 5.69646e-08)
(5.66069e-08 -8.66096e-09 0 5.83997e-08 0 5.74302e-08)
(6.11423e-08 -1.18192e-08 0 5.59883e-08 0 5.84525e-08)
(6.49494e-08 -1.45757e-08 0 5.49513e-08 0 5.97861e-08)
(6.61587e-08 -1.54344e-08 0 5.4886e-08 0 6.03529e-08)
(6.48597e-08 -1.47637e-08 0 5.57385e-08 0 6.01372e-08)
(5.81255e-08 -1.01874e-08 0 5.86641e-08 0 5.83311e-08)
(5.32925e-08 -6.02732e-09 0 6.09925e-08 0 5.72372e-08)
(5.31798e-08 -3.83097e-09 0 5.99273e-08 0 5.65877e-08)
(5.49283e-08 -4.825e-09 0 5.83202e-08 0 5.6677e-08)
(5.75395e-08 -5.8484e-09 0 5.63103e-08 0 5.6981e-08)
(6.08318e-08 -6.89485e-09 0 5.42475e-08 0 5.75697e-08)
(6.15237e-08 -7.32963e-09 0 5.42544e-08 0 5.79043e-08)
(6.06739e-08 -7.01057e-09 0 5.5011e-08 0 5.78386e-08)
(5.62719e-08 -5.23089e-09 0 5.81313e-08 0 5.72069e-08)
(5.27335e-08 -3.64455e-09 0 6.0774e-08 0 5.68476e-08)
(5.33581e-08 -1.83497e-09 0 5.97582e-08 0 5.64875e-08)
(5.41314e-08 -1.75537e-09 0 5.88767e-08 0 5.64469e-08)
(5.53242e-08 -1.76282e-09 0 5.76527e-08 0 5.64386e-08)
(5.89093e-08 -1.84889e-09 0 5.42818e-08 0 5.65516e-08)
(5.91716e-08 -2.03211e-09 0 5.44301e-08 0 5.67629e-08)
(5.85678e-08 -2.1003e-09 0 5.50885e-08 0 5.67852e-08)
(5.49657e-08 -2.22757e-09 0 5.85136e-08 0 5.67218e-08)
(5.22666e-08 -2.28663e-09 0 6.09207e-08 0 5.6675e-08)
(5.34269e-08 -2.37746e-09 0 5.95689e-08 0 5.64867e-08)
(5.42874e-08 -2.3732e-09 0 5.8612e-08 0 5.64537e-08)
(5.54688e-08 -2.2832e-09 0 5.73858e-08 0 5.64389e-08)
(5.89388e-08 -2.061e-09 0 5.4069e-08 0 5.65281e-08)
(5.90945e-08 -2.03412e-09 0 5.42991e-08 0 5.67092e-08)
(5.84647e-08 -2.02195e-09 0 5.50403e-08 0 5.67461e-08)
(5.48683e-08 -2.09871e-09 0 5.84813e-08 0 5.66848e-08)
(5.21983e-08 -2.33094e-09 0 6.08969e-08 0 5.66571e-08)
(5.36228e-08 -2.63055e-09 0 5.96368e-08 0 5.66199e-08)
(5.45507e-08 -2.58605e-09 0 5.85804e-08 0 5.65739e-08)
(5.57001e-08 -2.50631e-09 0 5.73924e-08 0 5.65503e-08)
(5.88772e-08 -2.25886e-09 0 5.4317e-08 0 5.66167e-08)
(5.92658e-08 -2.13015e-09 0 5.41761e-08 0 5.67569e-08)
(5.83875e-08 -2.06852e-09 0 5.51182e-08 0 5.67786e-08)
(5.46959e-08 -2.04099e-09 0 5.86222e-08 0 5.67161e-08)
(5.21719e-08 -2.25895e-09 0 6.10149e-08 0 5.67116e-08)
(5.37826e-08 -2.20348e-09 0 5.94456e-08 0 5.67687e-08)
(5.46049e-08 -2.2673e-09 0 5.84661e-08 0 5.66516e-08)
(5.6053e-08 -2.26882e-09 0 5.70431e-08 0 5.66127e-08)
(5.84428e-08 -2.22501e-09 0 5.49017e-08 0 5.67042e-08)
(5.95462e-08 -2.11232e-09 0 5.36557e-08 0 5.6822e-08)
(5.83539e-08 -1.94946e-09 0 5.49229e-08 0 5.6881e-08)
(5.45729e-08 -1.53165e-09 0 5.84153e-08 0 5.6756e-08)
(5.20926e-08 -1.6532e-09 0 6.06582e-08 0 5.67409e-08)
(5.44617e-08 -1.59716e-09 0 5.88356e-08 0 5.7315e-08)
(5.47851e-08 -1.93254e-09 0 5.80978e-08 0 5.68008e-08)
(5.59843e-08 -2.00679e-09 0 5.68276e-08 0 5.66659e-08)
(5.89163e-08 -1.9942e-09 0 5.417e-08 0 5.67897e-08)
(5.94979e-08 -1.76531e-09 0 5.34434e-08 0 5.70676e-08)
(5.8303e-08 -1.6824e-09 0 5.45975e-08 0 5.69851e-08)
(5.45932e-08 -1.26995e-09 0 5.79297e-08 0 5.68146e-08)
(5.2051e-08 -1.19827e-09 0 6.00917e-08 0 5.68048e-08)
(6.12306e-08 1.47751e-09 0 5.63274e-08 0 6.24176e-08)
(5.84108e-08 3.85162e-11 0 5.59561e-08 0 5.9356e-08)
(5.79218e-08 -7.20153e-10 0 5.51123e-08 0 5.79681e-08)
(5.85747e-08 -1.09927e-09 0 5.40534e-08 0 5.75272e-08)
(5.97689e-08 -1.34225e-09 0 5.30074e-08 0 5.74459e-08)
(5.8735e-08 -1.32896e-09 0 5.4114e-08 0 5.73703e-08)
(5.4732e-08 -9.30631e-10 0 5.80909e-08 0 5.72349e-08)
(5.23107e-08 -7.19263e-10 0 6.00739e-08 0 5.73499e-08)
(9.98123e-08 1.78158e-08 0 3.90481e-08 0 9.40595e-08)
(7.95812e-08 1.10255e-08 0 4.19092e-08 0 7.74667e-08)
(6.93446e-08 7.30945e-09 0 4.31736e-08 0 6.84212e-08)
(6.48239e-08 5.73806e-09 0 4.25028e-08 0 6.41974e-08)
(6.39842e-08 6.38105e-09 0 3.87525e-08 0 6.32389e-08)
(6.3057e-08 6.81624e-09 0 3.71732e-08 0 6.30962e-08)
(6.0498e-08 5.96723e-09 0 3.96208e-08 0 6.26797e-08)
(5.6243e-08 3.88704e-09 0 4.48549e-08 0 6.25362e-08)
(1.72373e-07 5.83321e-08 0 1e-15 0 1.6027e-07)
(1.36503e-07 4.77157e-08 0 1e-15 0 1.30837e-07)
(1.09552e-07 4.00424e-08 0 1e-15 0 1.08028e-07)
(8.9213e-08 3.29791e-08 0 1e-15 0 9.18075e-08)
(7.71174e-08 2.68455e-08 0 1e-15 0 8.14204e-08)
(7.24296e-08 2.53835e-08 0 1e-15 0 7.89539e-08)
(7.11175e-08 2.60863e-08 0 1e-15 0 8.27114e-08)
(7.28394e-08 2.99763e-08 0 1e-15 0 9.17465e-08)
(2.92766e-07 2.00933e-07 0 1e-15 0 3.43444e-07)
(2.4144e-07 1.63927e-07 0 1e-15 0 2.81581e-07)
(1.96889e-07 1.30661e-07 0 1e-15 0 2.26606e-07)
(1.49556e-07 9.9095e-08 0 1e-15 0 1.7191e-07)
(1.03232e-07 6.93535e-08 0 1e-15 0 1.21266e-07)
(6.73406e-08 4.99905e-08 0 1e-15 0 8.71963e-08)
(5.89e-08 5.13402e-08 0 1e-15 0 8.93319e-08)
(7.30031e-08 6.93771e-08 0 1e-15 0 1.18284e-07)
(4.07007e-06 4.02088e-06 0 1e-15 0 5.40944e-06)
(3.24055e-06 3.24001e-06 0 1e-15 0 4.35527e-06)
(2.89284e-06 2.73194e-06 0 1e-15 0 3.78531e-06)
(2.69986e-06 2.26208e-06 0 1e-15 0 3.30386e-06)
(2.23104e-06 1.56785e-06 0 1e-15 0 2.47199e-06)
(1.08607e-06 7.29328e-07 0 1e-15 0 1.1644e-06)
(3.23663e-07 2.25426e-07 0 1e-15 0 3.59206e-07)
(5.89577e-08 5.72617e-08 0 1e-15 0 8.30085e-08)
(0.0117277 0.00664067 0 1e-15 0 0.0106017)
(0.00863682 0.00495591 0 1e-15 0 0.00783776)
(0.00622819 0.00358107 0 1e-15 0 0.00567401)
(0.00450726 0.00256259 0 1e-15 0 0.00410653)
(0.00310071 0.00168383 0 1e-15 0 0.00279024)
(0.00142282 0.000770464 0 1e-15 0 0.00128109)
(0.000265005 0.000144264 0 1e-15 0 0.000244023)
(2.26094e-05 1.28712e-05 0 1e-15 0 2.20849e-05)
(0.230125 0.0523034 0 1e-15 0 0.166365)
(0.232117 0.0547253 0 1e-15 0 0.168241)
(0.233878 0.0577273 0 1e-15 0 0.169814)
(0.234819 0.0615835 0 1e-15 0 0.170574)
(0.231236 0.0626507 0 1e-15 0 0.168019)
(0.213795 0.0600206 0 1e-15 0 0.155334)
(0.158179 0.0446342 0 1e-15 0 0.115358)
(0.0706529 0.026487 0 1e-15 0 0.0547715)
(0.242274 0.0754361 0 0.0874149 0 0.18123)
(0.255663 0.079752 0 0.0909262 0 0.190626)
(0.27187 0.0841246 0 0.0934805 0 0.201307)
(0.290371 0.0894418 0 0.0983047 0 0.213131)
(0.308844 0.091591 0 0.0973359 0 0.224239)
(0.316985 0.0921214 0 0.0924131 0 0.2291)
(0.305485 0.0889194 0 0.0834787 0 0.22159)
(0.249544 0.0785807 0 0.0848429 0 0.184647)
(0.222206 0.0737754 0 0.105093 0 0.171315)
(0.232646 0.0768542 0 0.108932 0 0.17931)
(0.243596 0.0795893 0 0.112138 0 0.187247)
(0.254743 0.0821596 0 0.115896 0 0.195063)
(0.263257 0.080933 0 0.114573 0 0.200469)
(0.26408 0.0779211 0 0.112357 0 0.200961)
(0.260506 0.0753229 0 0.109523 0 0.199429)
(0.25214 0.0782896 0 0.111337 0 0.196281)
(0.217077 0.0767631 0 0.114019 0 0.168707)
(0.228121 0.0801 0 0.119384 0 0.177389)
(0.239159 0.0829957 0 0.124104 0 0.185611)
(0.249973 0.0857068 0 0.129284 0 0.1936)
(0.258152 0.086342 0 0.131552 0 0.199389)
(0.258975 0.0848796 0 0.133021 0 0.201324)
(0.254293 0.0841998 0 0.135355 0 0.201424)
(0.250865 0.0866968 0 0.14237 0 0.203053)
(0.209874 0.0772766 0 0.113876 0 0.162894)
(0.222102 0.0813073 0 0.120385 0 0.172563)
(0.233912 0.0848856 0 0.126266 0 0.181618)
(0.244743 0.0879843 0 0.13216 0 0.190125)
(0.253303 0.0891481 0 0.135461 0 0.196453)
(0.256719 0.0888209 0 0.138844 0 0.200227)
(0.25738 0.0899123 0 0.14425 0 0.203829)
(0.259563 0.0943517 0 0.152086 0 0.209121)
(0.201945 0.0765509 0 0.111287 0 0.155851)
(0.215636 0.0812799 0 0.119033 0 0.166587)
(0.228897 0.0855863 0 0.126101 0 0.176739)
(0.241642 0.0897154 0 0.133618 0 0.186747)
(0.252173 0.0922085 0 0.138721 0 0.194867)
(0.258015 0.0939345 0 0.144701 0 0.200926)
(0.261168 0.0968046 0 0.15223 0 0.206532)
(0.265277 0.101719 0 0.161824 0 0.213334)
(0.189482 0.0730145 0 0.103057 0 0.145016)
(0.204294 0.0783309 0 0.111305 0 0.156515)
(0.21862 0.0833126 0 0.119022 0 0.167503)
(0.232263 0.0881157 0 0.127118 0 0.178295)
(0.243714 0.0912546 0 0.132897 0 0.187149)
(0.252257 0.0941006 0 0.139851 0 0.194973)
(0.259669 0.0985307 0 0.148214 0 0.202996)
(0.268065 0.104553 0 0.158965 0 0.212142)
(0.173336 0.0675355 0 0.0937814 0 0.131681)
(0.189134 0.0733401 0 0.102585 0 0.14381)
(0.204634 0.0789497 0 0.111018 0 0.155623)
(0.219741 0.0845545 0 0.120046 0 0.167438)
(0.232983 0.0889682 0 0.127241 0 0.177696)
(0.243775 0.0933838 0 0.135992 0 0.187306)
(0.253286 0.098765 0 0.145431 0 0.196728)
(0.262745 0.104777 0 0.155333 0 0.206292)
(0.152922 0.0598681 0 0.0811726 0 0.115313)
(0.16918 0.0659418 0 0.0899573 0 0.127667)
(0.185205 0.0719357 0 0.0985356 0 0.139837)
(0.200791 0.0779125 0 0.107626 0 0.151965)
(0.214736 0.0827376 0 0.115007 0 0.162681)
(0.227321 0.0878883 0 0.123875 0 0.173281)
(0.239431 0.0940584 0 0.133273 0 0.183994)
(0.251583 0.100679 0 0.143345 0 0.194843)
(0.130472 0.0512089 0 0.068691 0 0.0977798)
(0.146851 0.0574102 0 0.0775 0 0.110134)
(0.163167 0.0636409 0 0.0862966 0 0.12247)
(0.179262 0.069947 0 0.0956173 0 0.134869)
(0.194216 0.0755038 0 0.103744 0 0.146313)
(0.208164 0.0814823 0 0.113455 0 0.15783)
(0.221422 0.0880185 0 0.12323 0 0.169152)
(0.234123 0.0943811 0 0.132778 0 0.18003)
(0.106502 0.0417694 0 0.0550343 0 0.0793318)
(0.122346 0.0478284 0 0.0633806 0 0.0912152)
(0.138269 0.0540003 0 0.0717895 0 0.103203)
(0.154091 0.0602398 0 0.0806162 0 0.115277)
(0.169131 0.0658759 0 0.0884443 0 0.126659)
(0.183743 0.0720794 0 0.0976873 0 0.138363)
(0.197999 0.0787487 0 0.106873 0 0.149958)
(0.212006 0.0853304 0 0.116027 0 0.161316)
(0.0826902 0.0323782 0 0.0423749 0 0.0612836)
(0.0976191 0.0381411 0 0.0502505 0 0.0724451)
(0.112858 0.0440814 0 0.0583027 0 0.0838561)
(0.128314 0.0502043 0 0.0667854 0 0.095529)
(0.143347 0.0560014 0 0.0747532 0 0.106858)
(0.158168 0.0623436 0 0.0840743 0 0.118584)
(0.172542 0.0688583 0 0.0930769 0 0.130035)
(0.186574 0.0750648 0 0.101755 0 0.141119)
(0.0596412 0.0232746 0 0.0301004 0 0.0440005)
(0.0732631 0.0285657 0 0.0371761 0 0.0541466)
(0.0874064 0.0340735 0 0.0444174 0 0.0646554)
(0.101898 0.0397878 0 0.0520654 0 0.0754891)
(0.116114 0.0452771 0 0.0593441 0 0.0861286)
(0.130462 0.0513431 0 0.0677726 0 0.0972781)
(0.144709 0.0575628 0 0.0759127 0 0.108314)
(0.158929 0.0636462 0 0.0839525 0 0.119237)
(0.0385312 0.014966 0 0.0193115 0 0.0283275)
(0.0505609 0.0196574 0 0.025519 0 0.0372451)
(0.0633467 0.0246076 0 0.0319922 0 0.0466664)
(0.0765998 0.029832 0 0.0389238 0 0.05651)
(0.0897606 0.0349843 0 0.0458204 0 0.0663547)
(0.103337 0.0406652 0 0.0537093 0 0.0767838)
(0.117007 0.0464362 0 0.0613222 0 0.0871932)
(0.130661 0.052036 0 0.0688159 0 0.0975145)
(0.0205687 0.00791818 0 0.0102158 0 0.0150722)
(0.0303789 0.0117414 0 0.0151698 0 0.022299)
(0.041236 0.0159266 0 0.0205109 0 0.0302456)
(0.0527321 0.020444 0 0.0264087 0 0.0387529)
(0.0644444 0.0250189 0 0.0323543 0 0.0474654)
(0.0769381 0.0301395 0 0.0391479 0 0.056899)
(0.0897272 0.0353814 0 0.0458046 0 0.0664642)
(0.102603 0.0405807 0 0.0525519 0 0.0760883)
(0.00769254 0.00291005 0 0.00378112 0 0.00561677)
(0.0142143 0.00543358 0 0.00702767 0 0.010394)
(0.0222998 0.00853934 0 0.0109869 0 0.0162932)
(0.0316024 0.0121861 0 0.0157479 0 0.0231599)
(0.0416502 0.0160978 0 0.0208508 0 0.0305839)
(0.0527779 0.0205697 0 0.0267793 0 0.0388799)
(0.064255 0.0251704 0 0.0327084 0 0.0473911)
(0.0759164 0.0297703 0 0.0387961 0 0.0560576)
(0.00149803 0.000547325 0 0.000726861 0 0.0010887)
(0.00411187 0.00153924 0 0.00201823 0 0.00299513)
(0.00842257 0.00317872 0 0.00411961 0 0.00613376)
(0.014612 0.00557608 0 0.00723757 0 0.0106798)
(0.0222145 0.00850069 0 0.0109615 0 0.0162458)
(0.0312894 0.0120824 0 0.0155795 0 0.0229411)
(0.041014 0.0159237 0 0.0204361 0 0.0301027)
(0.0512872 0.0199362 0 0.0256481 0 0.037693)
(0.000103579 3.5226e-05 0 4.93361e-05 0 7.49708e-05)
(0.000500822 0.000180006 0 0.000243254 0 0.000363882)
(0.00159131 0.0005834 0 0.000772069 0 0.00115584)
(0.00406164 0.00151775 0 0.0019966 0 0.00296049)
(0.00815926 0.00306866 0 0.00398281 0 0.00594331)
(0.0141423 0.00538506 0 0.00699134 0 0.0103311)
(0.021417 0.00821509 0 0.01061 0 0.0156613)
(0.0298206 0.0114458 0 0.014828 0 0.0218305)
(2.03279e-06 5.67609e-07 0 9.74656e-07 0 1.47339e-06)
(1.69808e-05 5.46627e-06 0 8.14148e-06 0 1.22712e-05)
(9.42623e-05 3.22316e-05 0 4.52865e-05 0 6.83402e-05)
(0.000446367 0.000159632 0 0.000217746 0 0.000324662)
(0.00144539 0.000525559 0 0.000699596 0 0.00104883)
(0.00370703 0.00137443 0 0.00181539 0 0.00269773)
(0.00751375 0.00282082 0 0.00367474 0 0.00547041)
(0.0130263 0.00491059 0 0.00638101 0 0.00949153)
(7.18281e-08 -3.45906e-09 0 5.62756e-08 0 6.41302e-08)
(1.84948e-07 2.74339e-08 0 1.10934e-07 0 1.48003e-07)
(1.26671e-06 3.41137e-07 0 6.25281e-07 0 9.34838e-07)
(1.23477e-05 3.87583e-06 0 5.83202e-06 0 8.89812e-06)
(7.49809e-05 2.52225e-05 0 3.55884e-05 0 5.41536e-05)
(0.000355699 0.000124443 0 0.000171098 0 0.000257486)
(0.001218 0.000437954 0 0.000586293 0 0.000882407)
(0.00321434 0.00117405 0 0.00155042 0 0.00233089)
(6.24863e-08 -5.38417e-09 0 5.2363e-08 0 5.73495e-08)
(6.21983e-08 -5.48011e-09 0 5.29713e-08 0 5.74715e-08)
(6.57171e-08 -4.68367e-09 0 5.4741e-08 0 6.01277e-08)
(1.29962e-07 1.12805e-08 0 8.51868e-08 0 1.07102e-07)
(8.2481e-07 2.13911e-07 0 4.11582e-07 0 6.12963e-07)
(7.48904e-06 2.32731e-06 0 3.57035e-06 0 5.43265e-06)
(5.46198e-05 1.80078e-05 0 2.58478e-05 0 3.94177e-05)
(0.000281183 9.62984e-05 0 0.000132854 0 0.000202332)
(6.23655e-08 -5.47313e-09 0 5.21594e-08 0 5.72817e-08)
(6.18533e-08 -5.61839e-09 0 5.26941e-08 0 5.72545e-08)
(6.14939e-08 -5.74761e-09 0 5.29212e-08 0 5.72133e-08)
(6.11684e-08 -5.87259e-09 0 5.35504e-08 0 5.7296e-08)
(6.25956e-08 -5.52126e-09 0 5.44131e-08 0 5.84125e-08)
(8.99184e-08 1.39322e-09 0 6.73723e-08 0 7.81322e-08)
(5.07614e-07 1.21727e-07 0 2.58259e-07 0 3.77714e-07)
(4.90453e-06 1.4991e-06 0 2.29839e-06 0 3.55001e-06)
(6.21926e-08 -5.21981e-09 0 5.24649e-08 0 5.72854e-08)
(6.18907e-08 -5.46518e-09 0 5.27557e-08 0 5.72724e-08)
(6.15872e-08 -5.64144e-09 0 5.30252e-08 0 5.72534e-08)
(6.1101e-08 -5.9635e-09 0 5.34206e-08 0 5.72258e-08)
(6.07854e-08 -5.98265e-09 0 5.35767e-08 0 5.71683e-08)
(6.03432e-08 -6.11083e-09 0 5.40823e-08 0 5.7184e-08)
(6.05885e-08 -5.89979e-09 0 5.44603e-08 0 5.75045e-08)
(6.71744e-08 -4.35337e-09 0 5.7856e-08 0 6.23109e-08)
(6.22232e-08 -5.19268e-09 0 5.23559e-08 0 5.72704e-08)
(6.17277e-08 -5.34163e-09 0 5.28406e-08 0 5.72379e-08)
(6.1285e-08 -5.60359e-09 0 5.31268e-08 0 5.71939e-08)
(6.10017e-08 -5.764e-09 0 5.3504e-08 0 5.72075e-08)
(6.086e-08 -5.95471e-09 0 5.35849e-08 0 5.71942e-08)
(6.04684e-08 -6.12927e-09 0 5.40574e-08 0 5.71986e-08)
(6.02247e-08 -6.12238e-09 0 5.41567e-08 0 5.71426e-08)
(5.97002e-08 -6.17745e-09 0 5.44544e-08 0 5.70646e-08)
(6.2095e-08 -5.09869e-09 0 5.2463e-08 0 5.72517e-08)
(6.18325e-08 -5.3172e-09 0 5.27803e-08 0 5.72567e-08)
(6.1402e-08 -5.56772e-09 0 5.3154e-08 0 5.72345e-08)
(6.09621e-08 -5.70645e-09 0 5.34989e-08 0 5.71935e-08)
(6.06167e-08 -5.82658e-09 0 5.37071e-08 0 5.71485e-08)
(6.0267e-08 -6.04034e-09 0 5.40718e-08 0 5.71509e-08)
(6.01634e-08 -6.08666e-09 0 5.41534e-08 0 5.71331e-08)
(5.9906e-08 -6.28268e-09 0 5.44671e-08 0 5.71383e-08)
(6.20348e-08 -4.97788e-09 0 5.2508e-08 0 5.72383e-08)
(6.16251e-08 -5.26283e-09 0 5.28093e-08 0 5.72025e-08)
(6.11501e-08 -5.56133e-09 0 5.32182e-08 0 5.71794e-08)
(6.10119e-08 -5.64028e-09 0 5.34615e-08 0 5.71968e-08)
(6.0744e-08 -5.78087e-09 0 5.37329e-08 0 5.71904e-08)
(6.03382e-08 -5.96818e-09 0 5.41471e-08 0 5.71849e-08)
(6.01668e-08 -5.97012e-09 0 5.41738e-08 0 5.71359e-08)
(5.97101e-08 -6.20858e-09 0 5.45235e-08 0 5.71006e-08)
(6.19288e-08 -4.96501e-09 0 5.25399e-08 0 5.72152e-08)
(6.16583e-08 -5.17382e-09 0 5.29461e-08 0 5.72384e-08)
(6.12725e-08 -5.39297e-09 0 5.32763e-08 0 5.72169e-08)
(6.09618e-08 -5.51498e-09 0 5.34718e-08 0 5.7178e-08)
(6.05047e-08 -5.79054e-09 0 5.37617e-08 0 5.71345e-08)
(6.02075e-08 -5.95716e-09 0 5.40987e-08 0 5.71407e-08)
(6.01339e-08 -5.98961e-09 0 5.4194e-08 0 5.71359e-08)
(5.98032e-08 -6.1724e-09 0 5.45775e-08 0 5.71424e-08)
(6.18881e-08 -4.79635e-09 0 5.26299e-08 0 5.7215e-08)
(6.1467e-08 -5.16769e-09 0 5.2938e-08 0 5.71846e-08)
(6.10569e-08 -5.39915e-09 0 5.32347e-08 0 5.71492e-08)
(6.09731e-08 -5.4662e-09 0 5.34061e-08 0 5.71652e-08)
(6.05778e-08 -5.71043e-09 0 5.38927e-08 0 5.71813e-08)
(6.02497e-08 -5.82368e-09 0 5.42012e-08 0 5.7167e-08)
(6.01103e-08 -5.86962e-09 0 5.42321e-08 0 5.71337e-08)
(5.9651e-08 -6.15776e-09 0 5.46263e-08 0 5.71166e-08)
(6.16977e-08 -4.85643e-09 0 5.26739e-08 0 5.71751e-08)
(6.14686e-08 -5.06325e-09 0 5.30127e-08 0 5.71962e-08)
(6.11566e-08 -5.21844e-09 0 5.33294e-08 0 5.71874e-08)
(6.09019e-08 -5.34734e-09 0 5.35311e-08 0 5.71674e-08)
(6.04641e-08 -5.70441e-09 0 5.38608e-08 0 5.71455e-08)
(6.0117e-08 -5.79913e-09 0 5.41336e-08 0 5.7115e-08)
(6.00229e-08 -5.88025e-09 0 5.42477e-08 0 5.71166e-08)
(5.96965e-08 -6.1107e-09 0 5.46483e-08 0 5.71341e-08)
(6.17415e-08 -4.70247e-09 0 5.27277e-08 0 5.71916e-08)
(6.13367e-08 -4.99855e-09 0 5.30729e-08 0 5.71702e-08)
(6.09806e-08 -5.22006e-09 0 5.33005e-08 0 5.71334e-08)
(6.08062e-08 -5.37147e-09 0 5.34975e-08 0 5.7137e-08)
(6.04492e-08 -5.65847e-09 0 5.39204e-08 0 5.7153e-08)
(6.02246e-08 -5.63433e-09 0 5.41446e-08 0 5.71366e-08)
(5.99993e-08 -5.77488e-09 0 5.43354e-08 0 5.71245e-08)
(5.95794e-08 -6.05193e-09 0 5.47251e-08 0 5.71183e-08)
(6.15414e-08 -4.73389e-09 0 5.27841e-08 0 5.71504e-08)
(6.12978e-08 -4.91252e-09 0 5.30514e-08 0 5.71514e-08)
(6.09981e-08 -5.11397e-09 0 5.3387e-08 0 5.71519e-08)
(6.07514e-08 -5.31639e-09 0 5.36536e-08 0 5.71546e-08)
(6.03969e-08 -5.54161e-09 0 5.39553e-08 0 5.7141e-08)
(6.01479e-08 -5.61574e-09 0 5.41187e-08 0 5.71103e-08)
(5.99404e-08 -5.78835e-09 0 5.43238e-08 0 5.71109e-08)
(5.95402e-08 -6.01436e-09 0 5.4727e-08 0 5.71083e-08)
(6.15718e-08 -4.61728e-09 0 5.28284e-08 0 5.7163e-08)
(6.12193e-08 -4.86133e-09 0 5.31658e-08 0 5.71515e-08)
(6.09325e-08 -5.07095e-09 0 5.33861e-08 0 5.7132e-08)
(6.06812e-08 -5.29225e-09 0 5.36124e-08 0 5.71262e-08)
(6.03272e-08 -5.52441e-09 0 5.39625e-08 0 5.71227e-08)
(6.01475e-08 -5.54815e-09 0 5.41346e-08 0 5.71109e-08)
(5.9846e-08 -5.75717e-09 0 5.44638e-08 0 5.71186e-08)
(5.95297e-08 -5.87079e-09 0 5.47229e-08 0 5.70969e-08)
(6.14529e-08 -4.64397e-09 0 5.2855e-08 0 5.71374e-08)
(6.1155e-08 -4.86671e-09 0 5.31519e-08 0 5.71319e-08)
(6.08863e-08 -5.06213e-09 0 5.34096e-08 0 5.71251e-08)
(6.06436e-08 -5.24982e-09 0 5.36788e-08 0 5.71294e-08)
(6.03367e-08 -5.38529e-09 0 5.3976e-08 0 5.71204e-08)
(6.01083e-08 -5.50527e-09 0 5.41668e-08 0 5.71059e-08)
(5.98215e-08 -5.74773e-09 0 5.44728e-08 0 5.71143e-08)
(5.95596e-08 -5.73617e-09 0 5.46749e-08 0 5.70847e-08)
(6.14467e-08 -4.57391e-09 0 5.29131e-08 0 5.71449e-08)
(6.11081e-08 -4.82576e-09 0 5.32472e-08 0 5.7138e-08)
(6.08595e-08 -4.99646e-09 0 5.3462e-08 0 5.71264e-08)
(6.05786e-08 -5.20401e-09 0 5.37211e-08 0 5.71198e-08)
(6.02784e-08 -5.36797e-09 0 5.40027e-08 0 5.71101e-08)
(6.003e-08 -5.51459e-09 0 5.42339e-08 0 5.7103e-08)
(5.9748e-08 -5.70618e-09 0 5.45216e-08 0 5.71056e-08)
(5.95134e-08 -5.72703e-09 0 5.46825e-08 0 5.7074e-08)
(6.13577e-08 -4.57032e-09 0 5.29195e-08 0 5.71218e-08)
(6.10529e-08 -4.805e-09 0 5.32158e-08 0 5.71153e-08)
(6.07777e-08 -5.0123e-09 0 5.34855e-08 0 5.71108e-08)
(6.05593e-08 -5.17656e-09 0 5.37049e-08 0 5.71102e-08)
(6.0243e-08 -5.34195e-09 0 5.40217e-08 0 5.71042e-08)
(6.00142e-08 -5.49805e-09 0 5.42338e-08 0 5.70989e-08)
(5.97407e-08 -5.66358e-09 0 5.45123e-08 0 5.70986e-08)
(5.9521e-08 -5.67818e-09 0 5.46745e-08 0 5.70715e-08)
(6.12833e-08 -4.50238e-09 0 5.3012e-08 0 5.71168e-08)
(6.09802e-08 -4.75998e-09 0 5.33343e-08 0 5.71189e-08)
(6.07645e-08 -4.95294e-09 0 5.3535e-08 0 5.71151e-08)
(6.05084e-08 -5.15587e-09 0 5.37844e-08 0 5.71132e-08)
(6.02274e-08 -5.32465e-09 0 5.40539e-08 0 5.71069e-08)
(5.99722e-08 -5.47352e-09 0 5.42799e-08 0 5.7098e-08)
(5.97265e-08 -5.60276e-09 0 5.45403e-08 0 5.70979e-08)
(5.95098e-08 -5.65682e-09 0 5.47019e-08 0 5.70757e-08)
(6.11747e-08 -4.4391e-09 0 5.30366e-08 0 5.70868e-08)
(6.09164e-08 -4.70114e-09 0 5.33063e-08 0 5.70915e-08)
(6.06593e-08 -4.96352e-09 0 5.35618e-08 0 5.70932e-08)
(6.04724e-08 -5.13111e-09 0 5.3766e-08 0 5.70985e-08)
(6.01603e-08 -5.34355e-09 0 5.40834e-08 0 5.70976e-08)
(5.99556e-08 -5.4617e-09 0 5.42711e-08 0 5.70917e-08)
(5.97089e-08 -5.58139e-09 0 5.45257e-08 0 5.70893e-08)
(5.94875e-08 -5.67949e-09 0 5.47088e-08 0 5.70768e-08)
(6.10169e-08 -4.24629e-09 0 5.31427e-08 0 5.70522e-08)
(6.08078e-08 -4.52416e-09 0 5.33784e-08 0 5.70632e-08)
(6.06081e-08 -4.78895e-09 0 5.36106e-08 0 5.70778e-08)
(6.0352e-08 -5.0493e-09 0 5.38688e-08 0 5.70828e-08)
(6.01268e-08 -5.24014e-09 0 5.41106e-08 0 5.70885e-08)
(5.99231e-08 -5.40137e-09 0 5.4308e-08 0 5.70878e-08)
(5.96807e-08 -5.54256e-09 0 5.45598e-08 0 5.70874e-08)
(5.94645e-08 -5.66602e-09 0 5.47539e-08 0 5.70805e-08)
(6.09045e-08 -4.12343e-09 0 5.31676e-08 0 5.70158e-08)
(6.06669e-08 -4.39245e-09 0 5.34308e-08 0 5.70251e-08)
(6.04813e-08 -4.66469e-09 0 5.36414e-08 0 5.70394e-08)
(6.02684e-08 -4.92516e-09 0 5.38828e-08 0 5.70529e-08)
(6.00708e-08 -5.15929e-09 0 5.4115e-08 0 5.7067e-08)
(5.98584e-08 -5.37266e-09 0 5.4333e-08 0 5.70738e-08)
(5.9631e-08 -5.54331e-09 0 5.45821e-08 0 5.70801e-08)
(5.94195e-08 -5.67375e-09 0 5.47705e-08 0 5.7074e-08)
(6.07969e-08 -3.96637e-09 0 5.3231e-08 0 5.69886e-08)
(6.05441e-08 -4.2449e-09 0 5.34979e-08 0 5.6995e-08)
(6.0368e-08 -4.49659e-09 0 5.36924e-08 0 5.70063e-08)
(6.01309e-08 -4.73695e-09 0 5.39542e-08 0 5.7016e-08)
(5.99653e-08 -4.97237e-09 0 5.41507e-08 0 5.7032e-08)
(5.9738e-08 -5.21544e-09 0 5.43855e-08 0 5.70409e-08)
(5.95638e-08 -5.40848e-09 0 5.46038e-08 0 5.70566e-08)
(5.9361e-08 -5.56862e-09 0 5.4791e-08 0 5.70559e-08)
(6.06912e-08 -3.91618e-09 0 5.3283e-08 0 5.69668e-08)
(6.04506e-08 -4.18551e-09 0 5.35375e-08 0 5.69729e-08)
(6.02772e-08 -4.38784e-09 0 5.37337e-08 0 5.69814e-08)
(6.00267e-08 -4.65018e-09 0 5.39958e-08 0 5.69895e-08)
(5.98722e-08 -4.82341e-09 0 5.41783e-08 0 5.70005e-08)
(5.96447e-08 -5.03657e-09 0 5.44255e-08 0 5.70092e-08)
(5.94753e-08 -5.22357e-09 0 5.4622e-08 0 5.70217e-08)
(5.92767e-08 -5.44529e-09 0 5.48266e-08 0 5.70304e-08)
(6.05939e-08 -3.86281e-09 0 5.33484e-08 0 5.6951e-08)
(6.03796e-08 -4.08467e-09 0 5.35811e-08 0 5.69564e-08)
(6.01974e-08 -4.33938e-09 0 5.3776e-08 0 5.69661e-08)
(5.99634e-08 -4.56831e-09 0 5.40203e-08 0 5.69718e-08)
(5.97956e-08 -4.7416e-09 0 5.421e-08 0 5.69806e-08)
(5.95487e-08 -4.94445e-09 0 5.44581e-08 0 5.69832e-08)
(5.93963e-08 -5.09064e-09 0 5.46328e-08 0 5.69921e-08)
(5.9172e-08 -5.27174e-09 0 5.48598e-08 0 5.69953e-08)
(6.05074e-08 -3.83397e-09 0 5.34168e-08 0 5.69412e-08)
(6.02888e-08 -4.0809e-09 0 5.36448e-08 0 5.69461e-08)
(6.01298e-08 -4.28634e-09 0 5.38258e-08 0 5.69555e-08)
(5.99002e-08 -4.49836e-09 0 5.40688e-08 0 5.69609e-08)
(5.97262e-08 -4.67851e-09 0 5.42582e-08 0 5.69679e-08)
(5.94903e-08 -4.87032e-09 0 5.44939e-08 0 5.69702e-08)
(5.93112e-08 -5.01651e-09 0 5.46857e-08 0 5.69751e-08)
(5.91188e-08 -5.15781e-09 0 5.48715e-08 0 5.69753e-08)
(6.04475e-08 -3.80896e-09 0 5.34472e-08 0 5.69302e-08)
(6.01986e-08 -4.04695e-09 0 5.3709e-08 0 5.69339e-08)
(6.00559e-08 -4.25617e-09 0 5.38741e-08 0 5.69448e-08)
(5.98413e-08 -4.4921e-09 0 5.40963e-08 0 5.69513e-08)
(5.96792e-08 -4.65119e-09 0 5.42794e-08 0 5.69589e-08)
(5.94464e-08 -4.82827e-09 0 5.45145e-08 0 5.69606e-08)
(5.92659e-08 -4.96979e-09 0 5.47076e-08 0 5.6965e-08)
(5.9072e-08 -5.09356e-09 0 5.48928e-08 0 5.6963e-08)