/*--------------------------------*- C++ -*----------------------------------*\
| =========                 |                                                 |
| \\      /  F ield         | OpenFOAM: The Open Source CFD Toolbox           |
|  \\    /   O peration     | Version:  v1912                                 |
|   \\  /    A nd           | Website:  www.openfoam.com                      |
|    \\/     M anipulation  |                                                 |
\*---------------------------------------------------------------------------*/
FoamFile
{
    version     2.0;
    format      ascii;
    class       volScalarField;
    location    "100";
    object      p;
}
// * * * * * * * * * * * * * * * * * * * * * * * * * * * * * * * * * * * * * //

dimensions      [1 -1 -2 0 0 0 0];


internalField   nonuniform List<scalar> 
14268
(
-146.781
-147.331
-147.877
-148.484
-149.044
-149.672
-150.279
-150.927
-151.536
-152.165
-152.77
-153.367
-153.969
-154.571
-155.172
-155.772
-156.371
-156.971
-157.57
-158.169
-158.768
-159.367
-159.965
-160.564
-161.162
-161.76
-162.359
-162.957
-163.555
-164.152
-164.75
-165.347
-165.944
-166.541
-167.137
-167.733
-168.329
-168.925
-169.52
-170.116
-170.71
-171.305
-171.899
-172.493
-173.087
-173.681
-174.274
-174.867
-175.46
-176.052
-176.645
-177.237
-177.829
-178.421
-179.012
-179.604
-180.195
-180.786
-181.377
-181.968
-182.558
-183.149
-183.739
-184.33
-184.92
-185.51
-186.1
-186.69
-187.279
-187.869
-188.459
-189.048
-189.638
-190.227
-190.817
-191.406
-191.995
-192.585
-193.174
-193.763
-194.352
-194.941
-195.53
-196.119
-196.708
-197.297
-197.886
-198.475
-199.064
-199.653
-200.241
-200.83
-201.419
-202.008
-202.597
-203.185
-203.774
-204.363
-204.951
-205.54
-206.129
-206.718
-207.306
-207.895
-208.484
-209.072
-209.661
-210.25
-210.838
-211.427
-212.015
-212.604
-213.193
-213.781
-214.37
-214.959
-215.547
-216.136
-216.724
-217.313
-217.902
-218.49
-219.079
-219.668
-220.256
-220.845
-221.433
-222.022
-222.611
-223.199
-223.788
-224.376
-224.965
-225.554
-226.142
-226.731
-227.319
-227.908
-228.497
-229.085
-229.674
-230.262
-230.851
-231.44
-232.028
-232.617
-233.205
-233.794
-234.383
-234.971
-235.56
-236.148
-236.737
-237.326
-237.914
-238.503
-239.091
-239.68
-240.269
-240.857
-241.446
-242.034
-242.623
-243.212
-146.916
-147.465
-148.013
-148.623
-149.184
-149.816
-150.424
-151.068
-151.668
-152.29
-152.894
-153.49
-154.091
-154.693
-155.294
-155.894
-156.493
-157.093
-157.692
-158.291
-158.89
-159.489
-160.087
-160.686
-161.284
-161.882
-162.481
-163.079
-163.676
-164.274
-164.872
-165.469
-166.066
-166.663
-167.259
-167.855
-168.451
-169.047
-169.642
-170.237
-170.832
-171.427
-172.021
-172.615
-173.209
-173.803
-174.396
-174.989
-175.582
-176.174
-176.767
-177.359
-177.951
-178.543
-179.134
-179.726
-180.317
-180.908
-181.499
-182.09
-182.68
-183.271
-183.861
-184.451
-185.042
-185.632
-186.222
-186.812
-187.401
-187.991
-188.581
-189.17
-189.76
-190.349
-190.939
-191.528
-192.117
-192.707
-193.296
-193.885
-194.474
-195.063
-195.652
-196.241
-196.83
-197.419
-198.008
-198.597
-199.186
-199.774
-200.363
-200.952
-201.541
-202.13
-202.718
-203.307
-203.896
-204.485
-205.073
-205.662
-206.251
-206.839
-207.428
-208.017
-208.605
-209.194
-209.783
-210.371
-210.96
-211.549
-212.137
-212.726
-213.315
-213.903
-214.492
-215.081
-215.669
-216.258
-216.846
-217.435
-218.024
-218.612
-219.201
-219.789
-220.378
-220.967
-221.555
-222.144
-222.732
-223.321
-223.91
-224.498
-225.087
-225.676
-226.264
-226.853
-227.441
-228.03
-228.619
-229.207
-229.796
-230.384
-230.973
-231.562
-232.15
-232.739
-233.327
-233.916
-234.505
-235.093
-235.682
-236.27
-236.859
-237.448
-238.036
-238.625
-239.213
-239.802
-240.391
-240.979
-241.568
-242.156
-242.745
-243.334
-147.041
-147.591
-148.139
-148.752
-149.313
-149.943
-150.553
-151.199
-151.797
-152.415
-153.017
-153.612
-154.213
-154.815
-155.416
-156.016
-156.615
-157.215
-157.814
-158.413
-159.012
-159.611
-160.209
-160.808
-161.406
-162.004
-162.603
-163.201
-163.798
-164.396
-164.994
-165.591
-166.188
-166.784
-167.381
-167.977
-168.573
-169.169
-169.764
-170.359
-170.954
-171.549
-172.143
-172.737
-173.331
-173.925
-174.518
-175.111
-175.704
-176.296
-176.889
-177.481
-178.073
-178.664
-179.256
-179.847
-180.439
-181.03
-181.621
-182.212
-182.802
-183.393
-183.983
-184.573
-185.164
-185.754
-186.344
-186.934
-187.523
-188.113
-188.703
-189.292
-189.882
-190.471
-191.061
-191.65
-192.239
-192.828
-193.418
-194.007
-194.596
-195.185
-195.774
-196.363
-196.952
-197.541
-198.13
-198.719
-199.308
-199.896
-200.485
-201.074
-201.663
-202.252
-202.84
-203.429
-204.018
-204.607
-205.195
-205.784
-206.373
-206.961
-207.55
-208.139
-208.727
-209.316
-209.905
-210.493
-211.082
-211.671
-212.259
-212.848
-213.437
-214.025
-214.614
-215.202
-215.791
-216.38
-216.968
-217.557
-218.146
-218.734
-219.323
-219.911
-220.5
-221.089
-221.677
-222.266
-222.854
-223.443
-224.032
-224.62
-225.209
-225.797
-226.386
-226.975
-227.563
-228.152
-228.74
-229.329
-229.918
-230.506
-231.095
-231.683
-232.272
-232.861
-233.449
-234.038
-234.626
-235.215
-235.804
-236.392
-236.981
-237.569
-238.158
-238.747
-239.335
-239.924
-240.512
-241.101
-241.69
-242.278
-242.867
-243.455
-147.171
-147.722
-148.273
-148.887
-149.446
-150.073
-150.68
-151.329
-151.926
-152.54
-153.14
-153.735
-154.335
-154.937
-155.538
-156.138
-156.737
-157.336
-157.936
-158.535
-159.134
-159.732
-160.331
-160.93
-161.528
-162.126
-162.724
-163.322
-163.92
-164.518
-165.115
-165.713
-166.31
-166.906
-167.503
-168.099
-168.695
-169.291
-169.886
-170.481
-171.076
-171.671
-172.265
-172.859
-173.453
-174.046
-174.64
-175.233
-175.826
-176.418
-177.011
-177.603
-178.195
-178.786
-179.378
-179.969
-180.561
-181.152
-181.743
-182.333
-182.924
-183.515
-184.105
-184.695
-185.285
-185.876
-186.466
-187.055
-187.645
-188.235
-188.825
-189.414
-190.004
-190.593
-191.183
-191.772
-192.361
-192.95
-193.54
-194.129
-194.718
-195.307
-195.896
-196.485
-197.074
-197.663
-198.252
-198.841
-199.429
-200.018
-200.607
-201.196
-201.785
-202.374
-202.962
-203.551
-204.14
-204.729
-205.317
-205.906
-206.495
-207.083
-207.672
-208.261
-208.849
-209.438
-210.027
-210.615
-211.204
-211.793
-212.381
-212.97
-213.558
-214.147
-214.736
-215.324
-215.913
-216.502
-217.09
-217.679
-218.267
-218.856
-219.445
-220.033
-220.622
-221.211
-221.799
-222.388
-222.976
-223.565
-224.154
-224.742
-225.331
-225.919
-226.508
-227.097
-227.685
-228.274
-228.862
-229.451
-230.04
-230.628
-231.217
-231.805
-232.394
-232.983
-233.571
-234.16
-234.748
-235.337
-235.926
-236.514
-237.103
-237.691
-238.28
-238.869
-239.457
-240.046
-240.634
-241.223
-241.812
-242.4
-242.989
-243.577
-147.296
-147.849
-148.405
-149.021
-149.58
-150.2
-150.798
-151.444
-152.046
-152.665
-153.263
-153.857
-154.458
-155.059
-155.66
-156.26
-156.859
-157.458
-158.058
-158.657
-159.256
-159.854
-160.453
-161.052
-161.65
-162.248
-162.846
-163.444
-164.042
-164.64
-165.237
-165.835
-166.432
-167.028
-167.625
-168.221
-168.817
-169.413
-170.008
-170.603
-171.198
-171.793
-172.387
-172.981
-173.575
-174.168
-174.762
-175.355
-175.947
-176.54
-177.132
-177.725
-178.317
-178.908
-179.5
-180.091
-180.683
-181.274
-181.865
-182.455
-183.046
-183.637
-184.227
-184.817
-185.407
-185.998
-186.587
-187.177
-187.767
-188.357
-188.947
-189.536
-190.126
-190.715
-191.304
-191.894
-192.483
-193.072
-193.661
-194.251
-194.84
-195.429
-196.018
-196.607
-197.196
-197.785
-198.374
-198.963
-199.551
-200.14
-200.729
-201.318
-201.907
-202.495
-203.084
-203.673
-204.262
-204.85
-205.439
-206.028
-206.617
-207.205
-207.794
-208.383
-208.971
-209.56
-210.149
-210.737
-211.326
-211.915
-212.503
-213.092
-213.68
-214.269
-214.858
-215.446
-216.035
-216.624
-217.212
-217.801
-218.389
-218.978
-219.567
-220.155
-220.744
-221.332
-221.921
-222.51
-223.098
-223.687
-224.275
-224.864
-225.453
-226.041
-226.63
-227.218
-227.807
-228.396
-228.984
-229.573
-230.162
-230.75
-231.339
-231.927
-232.516
-233.105
-233.693
-234.282
-234.87
-235.459
-236.048
-236.636
-237.225
-237.813
-238.402
-238.991
-239.579
-240.168
-240.756
-241.345
-241.934
-242.522
-243.111
-243.699
-147.43
-147.982
-148.543
-149.165
-149.725
-150.343
-150.932
-151.569
-152.167
-152.787
-153.386
-153.979
-154.58
-155.181
-155.782
-156.382
-156.981
-157.58
-158.18
-158.779
-159.378
-159.976
-160.575
-161.173
-161.772
-162.37
-162.968
-163.566
-164.164
-164.762
-165.359
-165.957
-166.554
-167.15
-167.747
-168.343
-168.939
-169.535
-170.13
-170.725
-171.32
-171.915
-172.509
-173.103
-173.697
-174.29
-174.884
-175.477
-176.069
-176.662
-177.254
-177.847
-178.438
-179.03
-179.622
-180.213
-180.804
-181.396
-181.987
-182.577
-183.168
-183.758
-184.349
-184.939
-185.529
-186.119
-186.709
-187.299
-187.889
-188.479
-189.068
-189.658
-190.248
-190.837
-191.426
-192.016
-192.605
-193.194
-193.783
-194.373
-194.962
-195.551
-196.14
-196.729
-197.318
-197.907
-198.496
-199.084
-199.673
-200.262
-200.851
-201.44
-202.029
-202.617
-203.206
-203.795
-204.384
-204.972
-205.561
-206.15
-206.738
-207.327
-207.916
-208.505
-209.093
-209.682
-210.271
-210.859
-211.448
-212.036
-212.625
-213.214
-213.802
-214.391
-214.98
-215.568
-216.157
-216.745
-217.334
-217.923
-218.511
-219.1
-219.689
-220.277
-220.866
-221.454
-222.043
-222.632
-223.22
-223.809
-224.397
-224.986
-225.575
-226.163
-226.752
-227.34
-227.929
-228.518
-229.106
-229.695
-230.283
-230.872
-231.461
-232.049
-232.638
-233.226
-233.815
-234.404
-234.992
-235.581
-236.169
-236.758
-237.347
-237.935
-238.524
-239.112
-239.701
-240.29
-240.878
-241.467
-242.055
-242.644
-243.233
-243.821
-147.561
-148.112
-148.677
-149.304
-149.867
-150.481
-151.064
-151.693
-152.288
-152.909
-153.508
-154.102
-154.702
-155.303
-155.904
-156.503
-157.103
-157.702
-158.302
-158.901
-159.5
-160.098
-160.697
-161.295
-161.894
-162.492
-163.09
-163.688
-164.286
-164.884
-165.481
-166.079
-166.675
-167.272
-167.869
-168.465
-169.061
-169.657
-170.252
-170.847
-171.442
-172.037
-172.631
-173.225
-173.819
-174.412
-175.006
-175.599
-176.191
-176.784
-177.376
-177.968
-178.56
-179.152
-179.744
-180.335
-180.926
-181.517
-182.108
-182.699
-183.29
-183.88
-184.471
-185.061
-185.651
-186.241
-186.831
-187.421
-188.011
-188.601
-189.19
-189.78
-190.369
-190.959
-191.548
-192.138
-192.727
-193.316
-193.905
-194.494
-195.084
-195.673
-196.262
-196.851
-197.44
-198.029
-198.618
-199.206
-199.795
-200.384
-200.973
-201.562
-202.151
-202.739
-203.328
-203.917
-204.506
-205.094
-205.683
-206.272
-206.86
-207.449
-208.038
-208.626
-209.215
-209.804
-210.392
-210.981
-211.57
-212.158
-212.747
-213.336
-213.924
-214.513
-215.102
-215.69
-216.279
-216.867
-217.456
-218.045
-218.633
-219.222
-219.81
-220.399
-220.988
-221.576
-222.165
-222.754
-223.342
-223.931
-224.519
-225.108
-225.697
-226.285
-226.874
-227.462
-228.051
-228.64
-229.228
-229.817
-230.405
-230.994
-231.583
-232.171
-232.76
-233.348
-233.937
-234.526
-235.114
-235.703
-236.291
-236.88
-237.469
-238.057
-238.646
-239.234
-239.823
-240.412
-241
-241.589
-242.177
-242.766
-243.355
-243.943
-147.694
-148.249
-148.817
-149.448
-150.011
-150.627
-151.204
-151.823
-152.413
-153.032
-153.631
-154.224
-154.824
-155.425
-156.026
-156.625
-157.225
-157.824
-158.424
-159.023
-159.621
-160.22
-160.819
-161.417
-162.016
-162.614
-163.212
-163.81
-164.408
-165.006
-165.603
-166.2
-166.797
-167.394
-167.991
-168.587
-169.183
-169.779
-170.374
-170.969
-171.564
-172.159
-172.753
-173.347
-173.941
-174.534
-175.127
-175.72
-176.313
-176.906
-177.498
-178.09
-178.682
-179.274
-179.866
-180.457
-181.048
-181.639
-182.23
-182.821
-183.412
-184.002
-184.593
-185.183
-185.773
-186.363
-186.953
-187.543
-188.133
-188.723
-189.312
-189.902
-190.491
-191.081
-191.67
-192.26
-192.849
-193.438
-194.027
-194.616
-195.206
-195.795
-196.384
-196.973
-197.562
-198.151
-198.739
-199.328
-199.917
-200.506
-201.095
-201.684
-202.272
-202.861
-203.45
-204.039
-204.627
-205.216
-205.805
-206.394
-206.982
-207.571
-208.16
-208.748
-209.337
-209.926
-210.514
-211.103
-211.692
-212.28
-212.869
-213.458
-214.046
-214.635
-215.223
-215.812
-216.401
-216.989
-217.578
-218.167
-218.755
-219.344
-219.932
-220.521
-221.11
-221.698
-222.287
-222.875
-223.464
-224.053
-224.641
-225.23
-225.818
-226.407
-226.996
-227.584
-228.173
-228.761
-229.35
-229.939
-230.527
-231.116
-231.704
-232.293
-232.882
-233.47
-234.059
-234.647
-235.236
-235.825
-236.413
-237.002
-237.59
-238.179
-238.768
-239.356
-239.945
-240.533
-241.122
-241.711
-242.299
-242.888
-243.476
-244.065
-147.82
-148.381
-148.954
-149.587
-150.15
-150.761
-151.334
-151.95
-152.537
-153.154
-153.753
-154.346
-154.946
-155.547
-156.148
-156.747
-157.347
-157.946
-158.545
-159.145
-159.743
-160.342
-160.941
-161.539
-162.138
-162.736
-163.334
-163.932
-164.53
-165.128
-165.725
-166.322
-166.919
-167.516
-168.113
-168.709
-169.305
-169.9
-170.496
-171.091
-171.686
-172.28
-172.875
-173.469
-174.063
-174.656
-175.249
-175.842
-176.435
-177.028
-177.62
-178.212
-178.804
-179.396
-179.988
-180.579
-181.17
-181.761
-182.352
-182.943
-183.534
-184.124
-184.715
-185.305
-185.895
-186.485
-187.075
-187.665
-188.255
-188.845
-189.434
-190.024
-190.613
-191.203
-191.792
-192.382
-192.971
-193.56
-194.149
-194.738
-195.327
-195.917
-196.506
-197.095
-197.684
-198.272
-198.861
-199.45
-200.039
-200.628
-201.217
-201.806
-202.394
-202.983
-203.572
-204.161
-204.749
-205.338
-205.927
-206.516
-207.104
-207.693
-208.282
-208.87
-209.459
-210.048
-210.636
-211.225
-211.814
-212.402
-212.991
-213.579
-214.168
-214.757
-215.345
-215.934
-216.523
-217.111
-217.7
-218.288
-218.877
-219.466
-220.054
-220.643
-221.232
-221.82
-222.409
-222.997
-223.586
-224.175
-224.763
-225.352
-225.94
-226.529
-227.118
-227.706
-228.295
-228.883
-229.472
-230.061
-230.649
-231.238
-231.826
-232.415
-233.004
-233.592
-234.181
-234.769
-235.358
-235.947
-236.535
-237.124
-237.712
-238.301
-238.89
-239.478
-240.067
-240.655
-241.244
-241.833
-242.421
-243.01
-243.598
-244.187
-147.945
-148.514
-149.094
-149.73
-150.29
-150.9
-151.469
-152.079
-152.661
-153.277
-153.876
-154.468
-155.068
-155.669
-156.269
-156.869
-157.469
-158.068
-158.667
-159.266
-159.865
-160.464
-161.063
-161.661
-162.26
-162.858
-163.456
-164.054
-164.652
-165.25
-165.847
-166.444
-167.041
-167.638
-168.235
-168.831
-169.427
-170.022
-170.618
-171.213
-171.808
-172.402
-172.997
-173.591
-174.185
-174.778
-175.371
-175.964
-176.557
-177.15
-177.742
-178.334
-178.926
-179.518
-180.11
-180.701
-181.292
-181.883
-182.474
-183.065
-183.656
-184.246
-184.837
-185.427
-186.017
-186.607
-187.197
-187.787
-188.377
-188.967
-189.556
-190.146
-190.735
-191.325
-191.914
-192.503
-193.093
-193.682
-194.271
-194.86
-195.449
-196.038
-196.627
-197.216
-197.805
-198.394
-198.983
-199.572
-200.161
-200.75
-201.339
-201.928
-202.516
-203.105
-203.694
-204.283
-204.871
-205.46
-206.049
-206.637
-207.226
-207.815
-208.404
-208.992
-209.581
-210.17
-210.758
-211.347
-211.935
-212.524
-213.113
-213.701
-214.29
-214.879
-215.467
-216.056
-216.645
-217.233
-217.822
-218.41
-218.999
-219.588
-220.176
-220.765
-221.353
-221.942
-222.531
-223.119
-223.708
-224.296
-224.885
-225.474
-226.062
-226.651
-227.24
-227.828
-228.417
-229.005
-229.594
-230.183
-230.771
-231.36
-231.948
-232.537
-233.126
-233.714
-234.303
-234.891
-235.48
-236.069
-236.657
-237.246
-237.834
-238.423
-239.012
-239.6
-240.189
-240.777
-241.366
-241.955
-242.543
-243.132
-243.72
-244.309
-148.064
-148.638
-149.226
-149.862
-150.422
-151.028
-151.595
-152.205
-152.786
-153.4
-153.998
-154.59
-155.19
-155.791
-156.391
-156.991
-157.591
-158.19
-158.789
-159.388
-159.987
-160.586
-161.185
-161.783
-162.382
-162.98
-163.578
-164.176
-164.774
-165.372
-165.969
-166.566
-167.163
-167.76
-168.357
-168.953
-169.549
-170.144
-170.74
-171.335
-171.93
-172.524
-173.119
-173.713
-174.306
-174.9
-175.493
-176.086
-176.679
-177.272
-177.864
-178.456
-179.048
-179.64
-180.231
-180.823
-181.414
-182.005
-182.596
-183.187
-183.778
-184.368
-184.959
-185.549
-186.139
-186.729
-187.319
-187.909
-188.499
-189.088
-189.678
-190.268
-190.857
-191.447
-192.036
-192.625
-193.215
-193.804
-194.393
-194.982
-195.571
-196.16
-196.749
-197.338
-197.927
-198.516
-199.105
-199.694
-200.283
-200.872
-201.461
-202.049
-202.638
-203.227
-203.816
-204.405
-204.993
-205.582
-206.171
-206.759
-207.348
-207.937
-208.525
-209.114
-209.703
-210.291
-210.88
-211.469
-212.057
-212.646
-213.235
-213.823
-214.412
-215.001
-215.589
-216.178
-216.766
-217.355
-217.944
-218.532
-219.121
-219.71
-220.298
-220.887
-221.475
-222.064
-222.653
-223.241
-223.83
-224.418
-225.007
-225.596
-226.184
-226.773
-227.361
-227.95
-228.539
-229.127
-229.716
-230.304
-230.893
-231.482
-232.07
-232.659
-233.247
-233.836
-234.425
-235.013
-235.602
-236.19
-236.779
-237.368
-237.956
-238.545
-239.133
-239.722
-240.311
-240.899
-241.488
-242.076
-242.665
-243.254
-243.842
-244.431
-148.186
-148.763
-149.353
-149.991
-150.548
-151.155
-151.724
-152.333
-152.911
-153.523
-154.121
-154.712
-155.312
-155.913
-156.513
-157.113
-157.713
-158.312
-158.911
-159.51
-160.109
-160.708
-161.307
-161.905
-162.504
-163.102
-163.7
-164.298
-164.896
-165.494
-166.091
-166.688
-167.285
-167.882
-168.478
-169.075
-169.671
-170.266
-170.862
-171.457
-172.052
-172.646
-173.241
-173.835
-174.428
-175.022
-175.615
-176.208
-176.801
-177.394
-177.986
-178.578
-179.17
-179.762
-180.353
-180.945
-181.536
-182.127
-182.718
-183.309
-183.9
-184.49
-185.08
-185.671
-186.261
-186.851
-187.441
-188.031
-188.621
-189.21
-189.8
-190.39
-190.979
-191.569
-192.158
-192.747
-193.337
-193.926
-194.515
-195.104
-195.693
-196.282
-196.871
-197.46
-198.049
-198.638
-199.227
-199.816
-200.405
-200.994
-201.583
-202.171
-202.76
-203.349
-203.938
-204.526
-205.115
-205.704
-206.293
-206.881
-207.47
-208.059
-208.647
-209.236
-209.825
-210.413
-211.002
-211.591
-212.179
-212.768
-213.357
-213.945
-214.534
-215.123
-215.711
-216.3
-216.888
-217.477
-218.066
-218.654
-219.243
-219.831
-220.42
-221.009
-221.597
-222.186
-222.775
-223.363
-223.952
-224.54
-225.129
-225.718
-226.306
-226.895
-227.483
-228.072
-228.661
-229.249
-229.838
-230.426
-231.015
-231.604
-232.192
-232.781
-233.369
-233.958
-234.547
-235.135
-235.724
-236.312
-236.901
-237.49
-238.078
-238.667
-239.255
-239.844
-240.433
-241.021
-241.61
-242.198
-242.787
-243.376
-243.964
-244.553
-148.308
-148.876
-149.467
-150.104
-150.663
-151.269
-151.846
-152.459
-153.035
-153.645
-154.243
-154.834
-155.434
-156.035
-156.635
-157.235
-157.835
-158.434
-159.033
-159.632
-160.231
-160.83
-161.429
-162.027
-162.626
-163.224
-163.822
-164.42
-165.018
-165.616
-166.213
-166.81
-167.407
-168.004
-168.6
-169.197
-169.793
-170.388
-170.984
-171.579
-172.174
-172.768
-173.363
-173.957
-174.55
-175.144
-175.737
-176.33
-176.923
-177.516
-178.108
-178.7
-179.292
-179.884
-180.475
-181.067
-181.658
-182.249
-182.84
-183.431
-184.021
-184.612
-185.202
-185.793
-186.383
-186.973
-187.563
-188.153
-188.743
-189.332
-189.922
-190.512
-191.101
-191.69
-192.28
-192.869
-193.458
-194.048
-194.637
-195.226
-195.815
-196.404
-196.993
-197.582
-198.171
-198.76
-199.349
-199.938
-200.527
-201.116
-201.704
-202.293
-202.882
-203.471
-204.06
-204.648
-205.237
-205.826
-206.415
-207.003
-207.592
-208.181
-208.769
-209.358
-209.947
-210.535
-211.124
-211.713
-212.301
-212.89
-213.479
-214.067
-214.656
-215.244
-215.833
-216.422
-217.01
-217.599
-218.188
-218.776
-219.365
-219.953
-220.542
-221.131
-221.719
-222.308
-222.896
-223.485
-224.074
-224.662
-225.251
-225.839
-226.428
-227.017
-227.605
-228.194
-228.782
-229.371
-229.96
-230.548
-231.137
-231.726
-232.314
-232.903
-233.491
-234.08
-234.669
-235.257
-235.846
-236.434
-237.023
-237.612
-238.2
-238.789
-239.377
-239.966
-240.555
-241.143
-241.732
-242.32
-242.909
-243.498
-244.086
-244.675
-148.436
-148.999
-149.583
-150.223
-150.786
-151.397
-151.975
-152.587
-153.16
-153.769
-154.365
-154.957
-155.556
-156.157
-156.757
-157.357
-157.957
-158.556
-159.155
-159.754
-160.353
-160.952
-161.551
-162.149
-162.747
-163.346
-163.944
-164.542
-165.14
-165.737
-166.335
-166.932
-167.529
-168.126
-168.722
-169.319
-169.914
-170.51
-171.106
-171.701
-172.296
-172.89
-173.484
-174.078
-174.672
-175.266
-175.859
-176.452
-177.045
-177.637
-178.23
-178.822
-179.414
-180.006
-180.597
-181.189
-181.78
-182.371
-182.962
-183.553
-184.143
-184.734
-185.324
-185.915
-186.505
-187.095
-187.685
-188.275
-188.865
-189.454
-190.044
-190.633
-191.223
-191.812
-192.402
-192.991
-193.58
-194.17
-194.759
-195.348
-195.937
-196.526
-197.115
-197.704
-198.293
-198.882
-199.471
-200.06
-200.649
-201.238
-201.826
-202.415
-203.004
-203.593
-204.182
-204.77
-205.359
-205.948
-206.536
-207.125
-207.714
-208.303
-208.891
-209.48
-210.069
-210.657
-211.246
-211.835
-212.423
-213.012
-213.6
-214.189
-214.778
-215.366
-215.955
-216.544
-217.132
-217.721
-218.309
-218.898
-219.487
-220.075
-220.664
-221.253
-221.841
-222.43
-223.018
-223.607
-224.196
-224.784
-225.373
-225.961
-226.55
-227.139
-227.727
-228.316
-228.904
-229.493
-230.082
-230.67
-231.259
-231.847
-232.436
-233.025
-233.613
-234.202
-234.79
-235.379
-235.968
-236.556
-237.145
-237.733
-238.322
-238.911
-239.499
-240.088
-240.676
-241.265
-241.854
-242.442
-243.031
-243.619
-244.208
-244.797
-148.62
-149.179
-149.76
-150.404
-150.979
-151.59
-152.168
-152.776
-153.347
-153.953
-154.549
-155.14
-155.739
-156.34
-156.94
-157.54
-158.14
-158.739
-159.338
-159.937
-160.536
-161.135
-161.734
-162.332
-162.93
-163.529
-164.127
-164.725
-165.323
-165.92
-166.518
-167.115
-167.712
-168.309
-168.905
-169.501
-170.097
-170.693
-171.288
-171.884
-172.478
-173.073
-173.667
-174.261
-174.855
-175.449
-176.042
-176.635
-177.228
-177.82
-178.413
-179.005
-179.597
-180.189
-180.78
-181.372
-181.963
-182.554
-183.145
-183.736
-184.326
-184.917
-185.507
-186.097
-186.688
-187.278
-187.868
-188.458
-189.047
-189.637
-190.227
-190.816
-191.406
-191.995
-192.585
-193.174
-193.763
-194.353
-194.942
-195.531
-196.12
-196.709
-197.298
-197.887
-198.476
-199.065
-199.654
-200.243
-200.832
-201.42
-202.009
-202.598
-203.187
-203.776
-204.364
-204.953
-205.542
-206.131
-206.719
-207.308
-207.897
-208.485
-209.074
-209.663
-210.251
-210.84
-211.429
-212.017
-212.606
-213.195
-213.783
-214.372
-214.961
-215.549
-216.138
-216.727
-217.315
-217.904
-218.492
-219.081
-219.67
-220.258
-220.847
-221.435
-222.024
-222.613
-223.201
-223.79
-224.378
-224.967
-225.556
-226.144
-226.733
-227.321
-227.91
-228.499
-229.087
-229.676
-230.265
-230.853
-231.442
-232.03
-232.619
-233.208
-233.796
-234.385
-234.973
-235.562
-236.151
-236.739
-237.328
-237.916
-238.505
-239.094
-239.682
-240.271
-240.859
-241.448
-242.037
-242.625
-243.214
-243.802
-244.391
-244.98
-148.869
-149.433
-150.021
-150.678
-151.255
-151.865
-152.433
-153.032
-153.597
-154.2
-154.793
-155.384
-155.983
-156.584
-157.184
-157.784
-158.384
-158.983
-159.582
-160.181
-160.78
-161.379
-161.977
-162.576
-163.174
-163.773
-164.371
-164.969
-165.567
-166.164
-166.762
-167.359
-167.956
-168.553
-169.149
-169.745
-170.341
-170.937
-171.532
-172.127
-172.722
-173.317
-173.911
-174.505
-175.099
-175.693
-176.286
-176.879
-177.472
-178.064
-178.657
-179.249
-179.841
-180.432
-181.024
-181.615
-182.207
-182.798
-183.389
-183.979
-184.57
-185.161
-185.751
-186.341
-186.932
-187.522
-188.112
-188.701
-189.291
-189.881
-190.471
-191.06
-191.65
-192.239
-192.829
-193.418
-194.007
-194.596
-195.186
-195.775
-196.364
-196.953
-197.542
-198.131
-198.72
-199.309
-199.898
-200.487
-201.075
-201.664
-202.253
-202.842
-203.431
-204.02
-204.608
-205.197
-205.786
-206.375
-206.963
-207.552
-208.141
-208.729
-209.318
-209.907
-210.495
-211.084
-211.673
-212.261
-212.85
-213.439
-214.027
-214.616
-215.204
-215.793
-216.382
-216.97
-217.559
-218.148
-218.736
-219.325
-219.913
-220.502
-221.091
-221.679
-222.268
-222.856
-223.445
-224.034
-224.622
-225.211
-225.8
-226.388
-226.977
-227.565
-228.154
-228.743
-229.331
-229.92
-230.508
-231.097
-231.686
-232.274
-232.863
-233.451
-234.04
-234.629
-235.217
-235.806
-236.394
-236.983
-237.572
-238.16
-238.749
-239.337
-239.926
-240.515
-241.103
-241.692
-242.28
-242.869
-243.458
-244.046
-244.635
-245.223
-149.12
-149.683
-150.279
-150.942
-151.523
-152.126
-152.689
-153.284
-153.845
-154.445
-155.038
-155.629
-156.227
-156.828
-157.428
-158.028
-158.627
-159.227
-159.826
-160.425
-161.024
-161.623
-162.221
-162.82
-163.418
-164.016
-164.615
-165.213
-165.811
-166.408
-167.006
-167.603
-168.2
-168.797
-169.393
-169.989
-170.585
-171.181
-171.776
-172.371
-172.966
-173.561
-174.155
-174.749
-175.343
-175.936
-176.53
-177.123
-177.716
-178.308
-178.9
-179.493
-180.085
-180.676
-181.268
-181.859
-182.451
-183.042
-183.633
-184.223
-184.814
-185.405
-185.995
-186.585
-187.175
-187.765
-188.355
-188.945
-189.535
-190.125
-190.714
-191.304
-191.894
-192.483
-193.072
-193.662
-194.251
-194.84
-195.429
-196.019
-196.608
-197.197
-197.786
-198.375
-198.964
-199.553
-200.142
-200.73
-201.319
-201.908
-202.497
-203.086
-203.675
-204.263
-204.852
-205.441
-206.03
-206.618
-207.207
-207.796
-208.384
-208.973
-209.562
-210.151
-210.739
-211.328
-211.916
-212.505
-213.094
-213.682
-214.271
-214.86
-215.448
-216.037
-216.626
-217.214
-217.803
-218.391
-218.98
-219.569
-220.157
-220.746
-221.335
-221.923
-222.512
-223.1
-223.689
-224.278
-224.866
-225.455
-226.043
-226.632
-227.221
-227.809
-228.398
-228.986
-229.575
-230.164
-230.752
-231.341
-231.929
-232.518
-233.107
-233.695
-234.284
-234.872
-235.461
-236.05
-236.638
-237.227
-237.815
-238.404
-238.993
-239.581
-240.17
-240.758
-241.347
-241.936
-242.524
-243.113
-243.701
-244.29
-244.879
-245.467
-149.389
-149.945
-150.536
-151.2
-151.784
-152.391
-152.95
-153.539
-154.094
-154.691
-155.283
-155.873
-156.471
-157.072
-157.672
-158.272
-158.871
-159.471
-160.07
-160.669
-161.268
-161.867
-162.465
-163.064
-163.662
-164.26
-164.859
-165.457
-166.054
-166.652
-167.25
-167.847
-168.444
-169.04
-169.637
-170.233
-170.829
-171.425
-172.02
-172.615
-173.21
-173.805
-174.399
-174.993
-175.587
-176.18
-176.774
-177.367
-177.959
-178.552
-179.144
-179.736
-180.328
-180.92
-181.512
-182.103
-182.694
-183.285
-183.876
-184.467
-185.058
-185.648
-186.239
-186.829
-187.419
-188.009
-188.599
-189.189
-189.779
-190.369
-190.958
-191.548
-192.137
-192.727
-193.316
-193.906
-194.495
-195.084
-195.673
-196.262
-196.852
-197.441
-198.03
-198.619
-199.208
-199.797
-200.385
-200.974
-201.563
-202.152
-202.741
-203.33
-203.918
-204.507
-205.096
-205.685
-206.273
-206.862
-207.451
-208.04
-208.628
-209.217
-209.806
-210.394
-210.983
-211.572
-212.16
-212.749
-213.338
-213.926
-214.515
-215.104
-215.692
-216.281
-216.869
-217.458
-218.047
-218.635
-219.224
-219.813
-220.401
-220.99
-221.578
-222.167
-222.756
-223.344
-223.933
-224.521
-225.11
-225.699
-226.287
-226.876
-227.464
-228.053
-228.642
-229.23
-229.819
-230.407
-230.996
-231.585
-232.173
-232.762
-233.35
-233.939
-234.528
-235.116
-235.705
-236.293
-236.882
-237.471
-238.059
-238.648
-239.236
-239.825
-240.414
-241.002
-241.591
-242.179
-242.768
-243.357
-243.945
-244.534
-245.122
-245.711
-149.646
-150.205
-150.797
-151.453
-152.034
-152.642
-153.203
-153.791
-154.343
-154.937
-155.528
-156.117
-156.716
-157.316
-157.916
-158.516
-159.115
-159.715
-160.314
-160.913
-161.512
-162.111
-162.709
-163.308
-163.906
-164.504
-165.102
-165.7
-166.298
-166.896
-167.493
-168.091
-168.688
-169.284
-169.881
-170.477
-171.073
-171.669
-172.264
-172.859
-173.454
-174.049
-174.643
-175.237
-175.831
-176.424
-177.017
-177.61
-178.203
-178.796
-179.388
-179.98
-180.572
-181.164
-181.756
-182.347
-182.938
-183.529
-184.12
-184.711
-185.302
-185.892
-186.483
-187.073
-187.663
-188.253
-188.843
-189.433
-190.023
-190.613
-191.202
-191.792
-192.381
-192.971
-193.56
-194.149
-194.739
-195.328
-195.917
-196.506
-197.095
-197.684
-198.273
-198.862
-199.451
-200.04
-200.629
-201.218
-201.807
-202.396
-202.985
-203.574
-204.162
-204.751
-205.34
-205.929
-206.517
-207.106
-207.695
-208.283
-208.872
-209.461
-210.05
-210.638
-211.227
-211.816
-212.404
-212.993
-213.581
-214.17
-214.759
-215.347
-215.936
-216.525
-217.113
-217.702
-218.291
-218.879
-219.468
-220.056
-220.645
-221.234
-221.822
-222.411
-222.999
-223.588
-224.177
-224.765
-225.354
-225.942
-226.531
-227.12
-227.708
-228.297
-228.885
-229.474
-230.063
-230.651
-231.24
-231.829
-232.417
-233.006
-233.594
-234.183
-234.772
-235.36
-235.949
-236.537
-237.126
-237.715
-238.303
-238.892
-239.48
-240.069
-240.658
-241.246
-241.835
-242.423
-243.012
-243.601
-244.189
-244.778
-245.366
-245.955
-149.908
-150.468
-151.064
-151.719
-152.295
-152.902
-153.461
-154.045
-154.592
-155.182
-155.772
-156.362
-156.96
-157.56
-158.16
-158.76
-159.359
-159.959
-160.558
-161.157
-161.756
-162.354
-162.953
-163.552
-164.15
-164.748
-165.346
-165.944
-166.542
-167.14
-167.737
-168.335
-168.931
-169.528
-170.125
-170.721
-171.317
-171.913
-172.508
-173.103
-173.698
-174.292
-174.887
-175.481
-176.075
-176.668
-177.261
-177.854
-178.447
-179.04
-179.632
-180.224
-180.816
-181.408
-181.999
-182.591
-183.182
-183.773
-184.364
-184.955
-185.546
-186.136
-186.726
-187.317
-187.907
-188.497
-189.087
-189.677
-190.267
-190.856
-191.446
-192.036
-192.625
-193.215
-193.804
-194.393
-194.983
-195.572
-196.161
-196.75
-197.339
-197.928
-198.517
-199.106
-199.695
-200.284
-200.873
-201.462
-202.051
-202.64
-203.229
-203.817
-204.406
-204.995
-205.584
-206.172
-206.761
-207.35
-207.939
-208.527
-209.116
-209.705
-210.293
-210.882
-211.471
-212.059
-212.648
-213.237
-213.825
-214.414
-215.003
-215.591
-216.18
-216.769
-217.357
-217.946
-218.534
-219.123
-219.712
-220.3
-220.889
-221.477
-222.066
-222.655
-223.243
-223.832
-224.42
-225.009
-225.598
-226.186
-226.775
-227.364
-227.952
-228.541
-229.129
-229.718
-230.307
-230.895
-231.484
-232.072
-232.661
-233.25
-233.838
-234.427
-235.015
-235.604
-236.193
-236.781
-237.37
-237.958
-238.547
-239.136
-239.724
-240.313
-240.901
-241.49
-242.079
-242.667
-243.256
-243.844
-244.433