/*--------------------------------*- C++ -*----------------------------------*\
| =========                 |                                                 |
| \\      /  F ield         | OpenFOAM: The Open Source CFD Toolbox           |
|  \\    /   O peration     | Version:  v1912                                 |
|   \\  /    A nd           | Website:  www.openfoam.com                      |
|    \\/     M anipulation  |                                                 |
\*---------------------------------------------------------------------------*/
FoamFile
{
    version     2.0;
    format      ascii;
    class       volScalarField;
    location    "80";
    object      p;
}
// * * * * * * * * * * * * * * * * * * * * * * * * * * * * * * * * * * * * * //

dimensions      [1 -1 -2 0 0 0 0];


internalField   nonuniform List<scalar> 
14268
(
-83.497
-84.0883
-84.6793
-85.2715
-85.8306
-86.3818
-86.947
-87.5361
-88.1241
-88.7488
-89.4157
-90.0128
-90.562
-91.1316
-91.7105
-92.2998
-92.8551
-93.3754
-93.8032
-94.1851
-94.6511
-95.2725
-96.0219
-96.7656
-97.5127
-98.1536
-98.7362
-99.3192
-99.9151
-100.517
-101.118
-101.714
-102.311
-102.908
-103.504
-104.1
-104.696
-105.292
-105.888
-106.485
-107.082
-107.679
-108.277
-108.874
-109.471
-110.069
-110.666
-111.264
-111.862
-112.459
-113.056
-113.654
-114.251
-114.848
-115.445
-116.042
-116.639
-117.235
-117.832
-118.428
-119.024
-119.62
-120.216
-120.812
-121.407
-122.003
-122.598
-123.193
-123.788
-124.382
-124.977
-125.571
-126.166
-126.76
-127.354
-127.947
-128.541
-129.134
-129.728
-130.321
-130.914
-131.507
-132.1
-132.692
-133.285
-133.877
-134.469
-135.061
-135.653
-136.245
-136.837
-137.429
-138.02
-138.612
-139.203
-139.794
-140.386
-140.977
-141.568
-142.158
-142.749
-143.34
-143.93
-144.521
-145.111
-145.702
-146.292
-146.882
-147.472
-148.063
-148.653
-149.243
-149.833
-150.423
-151.012
-151.602
-152.192
-152.782
-153.371
-153.961
-154.55
-155.14
-155.729
-156.319
-156.908
-157.497
-158.086
-158.676
-159.265
-159.854
-160.443
-161.033
-161.622
-162.211
-162.8
-163.389
-163.978
-164.567
-165.156
-165.745
-166.334
-166.923
-167.512
-168.101
-168.69
-169.278
-169.867
-170.456
-171.045
-171.634
-83.6284
-84.2192
-84.8102
-85.4055
-85.9751
-86.5424
-87.1209
-87.7164
-88.3026
-88.9115
-89.5547
-90.1455
-90.6953
-91.2657
-91.8443
-92.434
-92.9934
-93.526
-93.9765
-94.3897
-94.8718
-95.49
-96.2237
-96.9431
-97.6619
-98.2896
-98.8692
-99.4499
-100.042
-100.641
-101.241
-101.837
-102.433
-103.03
-103.626
-104.222
-104.818
-105.414
-106.01
-106.607
-107.204
-107.801
-108.398
-108.996
-109.593
-110.191
-110.788
-111.386
-111.983
-112.581
-113.178
-113.776
-114.373
-114.97
-115.567
-116.164
-116.761
-117.357
-117.954
-118.55
-119.146
-119.742
-120.338
-120.934
-121.529
-122.125
-122.72
-123.315
-123.91
-124.504
-125.099
-125.693
-126.288
-126.882
-127.476
-128.069
-128.663
-129.256
-129.85
-130.443
-131.036
-131.629
-132.222
-132.814
-133.407
-133.999
-134.591
-135.183
-135.775
-136.367
-136.959
-137.551
-138.142
-138.734
-139.325
-139.916
-140.507
-141.098
-141.689
-142.28
-142.871
-143.462
-144.052
-144.643
-145.233
-145.824
-146.414
-147.004
-147.594
-148.185
-148.775
-149.365
-149.954
-150.544
-151.134
-151.724
-152.314
-152.903
-153.493
-154.083
-154.672
-155.262
-155.851
-156.441
-157.03
-157.619
-158.208
-158.798
-159.387
-159.976
-160.565
-161.155
-161.744
-162.333
-162.922
-163.511
-164.1
-164.689
-165.278
-165.867
-166.456
-167.045
-167.634
-168.222
-168.812
-169.4
-169.989
-170.578
-171.167
-171.756
-83.761
-84.3517
-84.942
-85.5375
-86.1089
-86.6778
-87.2573
-87.8534
-88.4396
-89.0485
-89.6894
-90.2784
-90.8288
-91.3995
-91.9765
-92.5639
-93.1218
-93.6536
-94.1045
-94.5226
-95.0069
-95.6255
-96.3557
-97.0734
-97.7899
-98.4177
-98.9993
-99.5814
-100.171
-100.765
-101.364
-101.96
-102.556
-103.152
-103.748
-104.343
-104.94
-105.536
-106.132
-106.729
-107.326
-107.923
-108.52
-109.118
-109.715
-110.313
-110.91
-111.508
-112.105
-112.703
-113.3
-113.898
-114.495
-115.092
-115.689
-116.286
-116.883
-117.479
-118.076
-118.672
-119.268
-119.864
-120.46
-121.056
-121.651
-122.246
-122.842
-123.437
-124.032
-124.626
-125.221
-125.815
-126.409
-127.004
-127.597
-128.191
-128.785
-129.378
-129.972
-130.565
-131.158
-131.751
-132.343
-132.936
-133.529
-134.121
-134.713
-135.305
-135.897
-136.489
-137.081
-137.673
-138.264
-138.856
-139.447
-140.038
-140.629
-141.22
-141.811
-142.402
-142.993
-143.584
-144.174
-144.765
-145.355
-145.946
-146.536
-147.126
-147.716
-148.307
-148.896
-149.487
-150.076
-150.666
-151.256
-151.846
-152.436
-153.025
-153.615
-154.205
-154.794
-155.384
-155.973
-156.562
-157.152
-157.741
-158.33
-158.92
-159.509
-160.098
-160.687
-161.276
-161.866
-162.455
-163.044
-163.633
-164.222
-164.811
-165.4
-165.989
-166.578
-167.167
-167.756
-168.344
-168.934
-169.522
-170.111
-170.7
-171.289
-171.878
-83.8922
-84.4834
-85.0737
-85.6707
-86.2491
-86.8308
-87.4197
-88.0202
-88.6046
-89.2028
-89.8289
-90.4141
-90.9649
-91.535
-92.111
-92.6978
-93.2574
-93.7974
-94.2652
-94.7016
-95.1947
-95.8118
-96.5323
-97.2354
-97.9332
-98.5484
-99.129
-99.7117
-100.3
-100.89
-101.486
-102.082
-102.678
-103.274
-103.87
-104.465
-105.061
-105.658
-106.254
-106.851
-107.448
-108.045
-108.642
-109.24
-109.837
-110.435
-111.032
-111.63
-112.227
-112.825
-113.422
-114.02
-114.617
-115.214
-115.811
-116.408
-117.005
-117.601
-118.198
-118.794
-119.39
-119.986
-120.582
-121.178
-121.773
-122.368
-122.964
-123.559
-124.154
-124.748
-125.343
-125.937
-126.531
-127.125
-127.719
-128.313
-128.907
-129.5
-130.094
-130.687
-131.28
-131.873
-132.465
-133.058
-133.651
-134.243
-134.835
-135.427
-136.019
-136.611
-137.203
-137.795
-138.386
-138.978
-139.569
-140.16
-140.751
-141.342
-141.933
-142.524
-143.115
-143.706
-144.296
-144.887
-145.477
-146.068
-146.658
-147.248
-147.838
-148.428
-149.018
-149.609
-150.198
-150.788
-151.378
-151.968
-152.557
-153.147
-153.737
-154.326
-154.916
-155.506
-156.095
-156.684
-157.274
-157.863
-158.452
-159.042
-159.631
-160.22
-160.809
-161.398
-161.988
-162.577
-163.166
-163.755
-164.344
-164.933
-165.522
-166.111
-166.7
-167.288
-167.878
-168.466
-169.056
-169.644
-170.233
-170.822
-171.411
-172
-84.0191
-84.6114
-85.2029
-85.7996
-86.3773
-86.9566
-87.5449
-88.1459
-88.7308
-89.3307
-89.959
-90.5442
-91.0945
-91.6642
-92.2385
-92.8234
-93.3818
-93.9214
-94.3868
-94.8266
-95.3221
-95.9381
-96.6563
-97.359
-98.0592
-98.6678
-99.2516
-99.8354
-100.423
-101.012
-101.609
-102.204
-102.8
-103.396
-103.991
-104.587
-105.183
-105.78
-106.376
-106.973
-107.57
-108.167
-108.764
-109.362
-109.959
-110.557
-111.154
-111.752
-112.349
-112.947
-113.544
-114.141
-114.739
-115.336
-115.933
-116.53
-117.126
-117.723
-118.32
-118.916
-119.512
-120.108
-120.704
-121.299
-121.895
-122.49
-123.086
-123.681
-124.275
-124.87
-125.465
-126.059
-126.653
-127.247
-127.841
-128.435
-129.029
-129.622
-130.215
-130.809
-131.402
-131.995
-132.587
-133.18
-133.772
-134.365
-134.957
-135.549
-136.141
-136.733
-137.325
-137.917
-138.508
-139.1
-139.691
-140.282
-140.873
-141.464
-142.055
-142.646
-143.237
-143.828
-144.418
-145.009
-145.599
-146.19
-146.78
-147.37
-147.96
-148.55
-149.14
-149.73
-150.32
-150.91
-151.5
-152.09
-152.679
-153.269
-153.859
-154.448
-155.038
-155.627
-156.217
-156.806
-157.396
-157.985
-158.574
-159.164
-159.753
-160.342
-160.931
-161.52
-162.109
-162.698
-163.288
-163.877
-164.466
-165.055
-165.644
-166.232
-166.822
-167.41
-168
-168.588
-169.178
-169.766
-170.355
-170.944
-171.533
-172.122
-84.1436
-84.7373
-85.3315
-85.9324
-86.5158
-87.1051
-87.6996
-88.3028
-88.8857
-89.475
-90.0917
-90.674
-91.2234
-91.7912
-92.3656
-92.951
-93.5124
-94.0606
-94.5405
-94.9922
-95.4923
-96.1068
-96.8204
-97.5118
-98.202
-98.7958
-99.3772
-99.9571
-100.543
-101.133
-101.731
-102.326
-102.922
-103.518
-104.114
-104.709
-105.305
-105.902
-106.498
-107.095
-107.692
-108.289
-108.886
-109.484
-110.081
-110.679
-111.276
-111.874
-112.471
-113.069
-113.666
-114.263
-114.861
-115.458
-116.055
-116.652
-117.248
-117.845
-118.441
-119.038
-119.634
-120.23
-120.826
-121.421
-122.017
-122.612
-123.207
-123.803
-124.397
-124.992
-125.587
-126.181
-126.775
-127.369
-127.963
-128.557
-129.151
-129.744
-130.337
-130.931
-131.524
-132.117
-132.709
-133.302
-133.894
-134.487
-135.079
-135.671
-136.263
-136.855
-137.447
-138.038
-138.63
-139.221
-139.813
-140.404
-140.995
-141.586
-142.177
-142.768
-143.359
-143.949
-144.54
-145.131
-145.721
-146.311
-146.902
-147.492
-148.082
-148.672
-149.262
-149.852
-150.442
-151.032
-151.622
-152.212
-152.801
-153.391
-153.981
-154.57
-155.16
-155.749
-156.339
-156.928
-157.517
-158.107
-158.696
-159.286
-159.875
-160.464
-161.053
-161.642
-162.231
-162.82
-163.41
-163.998
-164.588
-165.176
-165.766
-166.354
-166.944
-167.532
-168.122
-168.71
-169.299
-169.888
-170.477
-171.066
-171.655
-172.244
-84.2634
-84.8581
-85.4561
-86.0614
-86.6478
-87.2365
-87.8316
-88.4359
-89.0181
-89.605
-90.2186
-90.798
-91.3446
-91.9126
-92.4872
-93.073
-93.6364
-94.1831
-94.6586
-95.1119
-95.6096
-96.225
-96.9403
-97.6337
-98.3284
-98.9259
-99.5038
-100.082
-100.666
-101.256
-101.853
-102.449
-103.044
-103.64
-104.236
-104.831
-105.427
-106.024
-106.62
-107.217
-107.814
-108.411
-109.008
-109.606
-110.203
-110.801
-111.398
-111.996
-112.593
-113.191
-113.788
-114.385
-114.983
-115.58
-116.177
-116.774
-117.37
-117.967
-118.563
-119.16
-119.756
-120.352
-120.948
-121.543
-122.139
-122.734
-123.329
-123.924
-124.519
-125.114
-125.709
-126.303
-126.897
-127.491
-128.085
-128.679
-129.273
-129.866
-130.459
-131.053
-131.646
-132.238
-132.831
-133.424
-134.016
-134.609
-135.201
-135.793
-136.385
-136.977
-137.569
-138.16
-138.752
-139.343
-139.935
-140.526
-141.117
-141.708
-142.299
-142.89
-143.481
-144.071
-144.662
-145.253
-145.843
-146.433
-147.024
-147.614
-148.204
-148.794
-149.384
-149.974
-150.564
-151.154
-151.744
-152.334
-152.923
-153.513
-154.103
-154.692
-155.282
-155.871
-156.461
-157.05
-157.639
-158.229
-158.818
-159.407
-159.997
-160.586
-161.175
-161.764
-162.353
-162.942
-163.532
-164.12
-164.71
-165.298
-165.888
-166.476
-167.066
-167.654
-168.244
-168.832
-169.421
-170.01
-170.599
-171.188
-171.777
-172.365
-84.3872
-84.9808
-85.5795
-86.1901
-86.785
-87.3865
-87.9889
-88.5947
-89.175
-89.7499
-90.3452
-90.9186
-91.4649
-92.0348
-92.6126
-93.202
-93.7687
-94.3192
-94.8023
-95.2616
-95.7674
-96.3798
-97.0884
-97.7766
-98.4669
-99.0621
-99.631
-100.207
-100.79
-101.379
-101.976
-102.571
-103.166
-103.762
-104.358
-104.953
-105.549
-106.146
-106.742
-107.339
-107.936
-108.533
-109.13
-109.728
-110.325
-110.923
-111.52
-112.118
-112.715
-113.313
-113.91
-114.507
-115.105
-115.702
-116.299
-116.896
-117.492
-118.089
-118.685
-119.282
-119.878
-120.474
-121.07
-121.665
-122.261
-122.856
-123.451
-124.046
-124.641
-125.236
-125.831
-126.425
-127.019
-127.613
-128.207
-128.801
-129.395
-129.988
-130.581
-131.174
-131.768
-132.36
-132.953
-133.546
-134.138
-134.731
-135.323
-135.915
-136.507
-137.099
-137.691
-138.282
-138.874
-139.465
-140.057
-140.648
-141.239
-141.83
-142.421
-143.012
-143.603
-144.193
-144.784
-145.374
-145.965
-146.555
-147.146
-147.736
-148.326
-148.916
-149.506
-150.096
-150.686
-151.276
-151.866
-152.456
-153.045
-153.635
-154.224
-154.814
-155.404
-155.993
-156.582
-157.172
-157.761
-158.351
-158.94
-159.529
-160.118
-160.708
-161.297
-161.886
-162.475
-163.064
-163.654
-164.242
-164.832
-165.42
-166.01
-166.598
-167.188
-167.776
-168.366
-168.954
-169.543
-170.132
-170.721
-171.31
-171.899
-172.487
-84.5151
-85.1077
-85.7049
-86.3151
-86.9126
-87.5144
-88.1177
-88.726
-89.3069
-89.8792
-90.4657
-91.0368
-91.5862
-92.1606
-92.7387
-93.3286
-93.8941
-94.439
-94.9174
-95.3846
-95.8952
-96.5032
-97.2067
-97.894
-98.5909
-99.1931
-99.7593
-100.332
-100.914
-101.503
-102.099
-102.694
-103.289
-103.884
-104.479
-105.075
-105.671
-106.267
-106.864
-107.461
-108.058
-108.655
-109.252
-109.849
-110.447
-111.044
-111.642
-112.24
-112.837
-113.435
-114.032
-114.629
-115.227
-115.824
-116.421
-117.017
-117.614
-118.211
-118.807
-119.404
-120
-120.596
-121.192
-121.787
-122.383
-122.978
-123.573
-124.168
-124.763
-125.358
-125.952
-126.547
-127.141
-127.735
-128.329
-128.923
-129.516
-130.11
-130.703
-131.296
-131.889
-132.482
-133.075
-133.668
-134.26
-134.853
-135.445
-136.037
-136.629
-137.221
-137.813
-138.404
-138.996
-139.587
-140.179
-140.77
-141.361
-141.952
-142.543
-143.134
-143.725
-144.315
-144.906
-145.496
-146.087
-146.677
-147.268
-147.858
-148.448
-149.038
-149.628
-150.218
-150.808
-151.398
-151.988
-152.578
-153.167
-153.757
-154.346
-154.936
-155.525
-156.115
-156.704
-157.294
-157.883
-158.473
-159.062
-159.651
-160.24
-160.83
-161.419
-162.008
-162.597
-163.186
-163.775
-164.364
-164.954
-165.542
-166.132
-166.72
-167.31
-167.898
-168.487
-169.076
-169.665
-170.254
-170.843
-171.432
-172.021
-172.609
-84.643
-85.2362
-85.8336
-86.4448
-87.047
-87.6594
-88.2687
-88.8778
-89.4577
-90.0224
-90.5944
-91.162
-91.7157
-92.2932
-92.8719
-93.4604
-94.0255
-94.572
-95.0581
-95.5401
-96.057
-96.6656
-97.3567
-98.031
-98.7237
-99.3263
-99.8901
-100.457
-101.038
-101.626
-102.222
-102.816
-103.411
-104.006
-104.601
-105.197
-105.793
-106.389
-106.986
-107.583
-108.18
-108.777
-109.374
-109.971
-110.569
-111.166
-111.764
-112.361
-112.959
-113.556
-114.154
-114.751
-115.348
-115.946
-116.543
-117.139
-117.736
-118.333
-118.929
-119.526
-120.122
-120.718
-121.314
-121.909
-122.505
-123.1
-123.695
-124.29
-124.885
-125.48
-126.074
-126.669
-127.263
-127.857
-128.451
-129.045
-129.638
-130.232
-130.825
-131.418
-132.011
-132.604
-133.197
-133.79
-134.382
-134.975
-135.567
-136.159
-136.751
-137.343
-137.935
-138.526
-139.118
-139.709
-140.3
-140.892
-141.483
-142.074
-142.665
-143.256
-143.847
-144.437
-145.028
-145.618
-146.209
-146.799
-147.389
-147.98
-148.57
-149.16
-149.75
-150.34
-150.93
-151.52
-152.11
-152.699
-153.289
-153.879
-154.468
-155.058
-155.647
-156.237
-156.826
-157.416
-158.005
-158.595
-159.184
-159.773
-160.362
-160.952
-161.541
-162.13
-162.719
-163.308
-163.897
-164.486
-165.076
-165.664
-166.254
-166.842
-167.432
-168.02
-168.609
-169.198
-169.787
-170.376
-170.965
-171.554
-172.142
-172.731
-84.7696
-85.3632
-85.9618
-86.5741
-87.1774
-87.7884
-88.3981
-89.0088
-89.5891
-90.154
-90.7239
-91.2906
-91.8462
-92.4253
-93.0021
-93.5883
-94.1502
-94.6901
-95.1796
-95.6696
-96.1888
-96.7979
-97.4855
-98.1525
-98.846
-99.4553
-100.019
-100.583
-101.162
-101.749
-102.345
-102.939
-103.533
-104.128
-104.723
-105.319
-105.915
-106.511
-107.108
-107.705
-108.302
-108.899
-109.496
-110.093
-110.691
-111.288
-111.886
-112.483
-113.081
-113.678
-114.276
-114.873
-115.47
-116.068
-116.665
-117.261
-117.858
-118.455
-119.051
-119.647
-120.244
-120.84
-121.435
-122.031
-122.627
-123.222
-123.817
-124.412
-125.007
-125.602
-126.196
-126.791
-127.385
-127.979
-128.573
-129.167
-129.76
-130.354
-130.947
-131.54
-132.133
-132.726
-133.319
-133.912
-134.504
-135.096
-135.689
-136.281
-136.873
-137.465
-138.056
-138.648
-139.24
-139.831
-140.422
-141.014
-141.605
-142.196
-142.787
-143.378
-143.968
-144.559
-145.15
-145.74
-146.331
-146.921
-147.511
-148.102
-148.692
-149.282
-149.872
-150.462
-151.052
-151.642
-152.231
-152.821
-153.411
-154.001
-154.59
-155.18
-155.769
-156.359
-156.948
-157.538
-158.127
-158.717
-159.306
-159.895
-160.484
-161.074
-161.663
-162.252
-162.841
-163.43
-164.019
-164.608
-165.197
-165.786
-166.376
-166.964
-167.553
-168.142
-168.731
-169.32
-169.909
-170.498
-171.087
-171.675
-172.264
-172.853
-84.896
-85.4902
-86.0901
-86.7048
-87.3132
-87.9347
-88.5503
-89.1605
-89.7384
-90.2962
-90.8566
-91.4217
-91.9783
-92.5574
-93.1347
-93.7189
-94.2783
-94.8223
-95.3222
-95.8226
-96.3452
-96.9539
-97.6369
-98.2915
-98.9765
-99.5856
-100.147
-100.708
-101.285
-101.872
-102.467
-103.061
-103.655
-104.25
-104.845
-105.441
-106.037
-106.633
-107.23
-107.827
-108.424
-109.021
-109.618
-110.215
-110.813
-111.41
-112.008
-112.605
-113.203
-113.8
-114.398
-114.995
-115.592
-116.189
-116.786
-117.383
-117.98
-118.577
-119.173
-119.769
-120.366
-120.962
-121.557
-122.153
-122.749
-123.344
-123.939
-124.534
-125.129
-125.724
-126.318
-126.913
-127.507
-128.101
-128.695
-129.289
-129.882
-130.476
-131.069
-131.662
-132.255
-132.848
-133.441
-134.034
-134.626
-135.218
-135.811
-136.403
-136.995
-137.587
-138.178
-138.77
-139.362
-139.953
-140.544
-141.136
-141.727
-142.318
-142.909
-143.5
-144.09
-144.681
-145.272
-145.862
-146.453
-147.043
-147.633
-148.224
-148.814
-149.404
-149.994
-150.584
-151.174
-151.764
-152.353
-152.943
-153.533
-154.123
-154.712
-155.302
-155.891
-156.481
-157.07
-157.66
-158.249
-158.838
-159.428
-160.017
-160.606
-161.196
-161.785
-162.374
-162.963
-163.552
-164.141
-164.73
-165.319
-165.908
-166.497
-167.086
-167.675
-168.264
-168.853
-169.442
-170.031
-170.62
-171.209
-171.797
-172.386
-172.975
-85.0216
-85.6162
-86.217
-86.833
-87.4428
-88.0633
-88.6794
-89.2923
-89.8717
-90.4288
-90.9869
-91.5505
-92.1072
-92.687
-93.2629
-93.8454
-94.3996
-94.9411
-95.446
-95.9514
-96.475
-97.0842
-97.7668
-98.4169
-99.0999
-99.7127
-100.274
-100.833
-101.408
-101.994
-102.589
-103.182
-103.777
-104.372
-104.967
-105.563
-106.159
-106.755
-107.352
-107.949
-108.545
-109.143
-109.74
-110.337
-110.935
-111.532
-112.13
-112.727
-113.325
-113.922
-114.52
-115.117
-115.714
-116.311
-116.908
-117.505
-118.102
-118.699
-119.295
-119.891
-120.488
-121.084
-121.679
-122.275
-122.871
-123.466
-124.061
-124.656
-125.251
-125.846
-126.44
-127.035
-127.629
-128.223
-128.817
-129.411
-130.004
-130.598
-131.191
-131.784
-132.377
-132.97
-133.563
-134.155
-134.748
-135.34
-135.933
-136.525
-137.117
-137.709
-138.3
-138.892
-139.484
-140.075
-140.666
-141.258
-141.849
-142.44
-143.031
-143.622
-144.212
-144.803
-145.394
-145.984
-146.575
-147.165
-147.755
-148.346
-148.936
-149.526
-150.116
-150.706
-151.296
-151.886
-152.475
-153.065
-153.655
-154.245
-154.834
-155.424
-156.013
-156.603
-157.192
-157.782
-158.371
-158.96
-159.55
-160.139
-160.728
-161.317
-161.907
-162.496
-163.085
-163.674
-164.263
-164.852
-165.441
-166.03
-166.619
-167.208
-167.797
-168.386
-168.975
-169.564
-170.153
-170.742
-171.331
-171.919
-172.508
-173.097
-85.1471
-85.7422
-86.3445
-86.9628
-87.5775
-88.2079
-88.8299
-89.4412
-90.0177
-90.5686
-91.1179
-91.6791
-92.2353
-92.8156
-93.3934
-93.9743
-94.5263
-95.0745
-95.588
-96.1011
-96.6261
-97.234
-97.9131
-98.5554
-99.2291
-99.8406
-100.401
-100.958
-101.531
-102.115
-102.71
-103.304
-103.898
-104.494
-105.089
-105.685
-106.281
-106.877
-107.474
-108.07
-108.667
-109.265
-109.862
-110.459
-111.057
-111.654
-112.252
-112.849
-113.447
-114.044
-114.642
-115.239
-115.836
-116.433
-117.03
-117.627
-118.224
-118.821
-119.417
-120.013
-120.609
-121.205
-121.801
-122.397
-122.992
-123.588
-124.183
-124.778
-125.373
-125.968
-126.562
-127.157
-127.751
-128.345
-128.939
-129.533
-130.126
-130.72
-131.313
-131.906
-132.499
-133.092
-133.685
-134.277
-134.87
-135.462
-136.054
-136.647
-137.239
-137.83
-138.422
-139.014
-139.605
-140.197
-140.788
-141.379
-141.971
-142.562
-143.153
-143.743
-144.334
-144.925
-145.516
-146.106
-146.696
-147.287
-147.877
-148.467
-149.058
-149.648
-150.238
-150.828
-151.418
-152.008
-152.597
-153.187
-153.777
-154.367
-154.956
-155.546
-156.135
-156.725
-157.314
-157.904
-158.493
-159.082
-159.671
-160.261
-160.85
-161.439
-162.028
-162.618
-163.207
-163.796
-164.385
-164.974
-165.563
-166.152
-166.741
-167.33
-167.919
-168.508
-169.097
-169.686
-170.275
-170.863
-171.453
-172.041
-172.63
-173.219
-85.3342
-85.9298
-86.5336
-87.1539
-87.7711
-88.4017
-89.0233
-89.6404
-90.2172
-90.766
-91.3102
-91.8678
-92.4222
-93.0035
-93.5819
-94.1622
-94.7105
-95.2555
-95.7753
-96.2936
-96.8216
-97.4315
-98.1084
-98.746
-99.4162
-100.03
-100.59
-101.145
-101.714
-102.297
-102.891
-103.486
-104.081
-104.677
-105.272
-105.868
-106.464
-107.06
-107.657
-108.253
-108.85
-109.447
-110.045
-110.642
-111.24
-111.837
-112.435
-113.032
-113.63
-114.227
-114.825
-115.422
-116.019
-116.616
-117.213
-117.81
-118.407
-119.003
-119.6
-120.196
-120.792
-121.388
-121.984
-122.58
-123.175
-123.771
-124.366
-124.961
-125.556
-126.151
-126.745
-127.339
-127.934
-128.528
-129.122
-129.715
-130.309
-130.902
-131.496
-132.089
-132.682
-133.275
-133.868
-134.46
-135.053
-135.645
-136.237
-136.829
-137.421
-138.013
-138.605
-139.197
-139.788
-140.38
-140.971
-141.562
-142.153
-142.745
-143.335
-143.926
-144.517
-145.108
-145.698
-146.289
-146.879
-147.47
-148.06
-148.65
-149.24
-149.831
-150.421
-151.011
-151.6
-152.19
-152.78
-153.37
-153.96
-154.549
-155.139
-155.729
-156.318
-156.908
-157.497
-158.087
-158.676
-159.265
-159.854
-160.444
-161.033
-161.622
-162.211
-162.801
-163.39
-163.979
-164.568
-165.157
-165.746
-166.335
-166.924
-167.513
-168.102
-168.691
-169.28
-169.868
-170.458
-171.046
-171.635
-172.224
-172.813
-173.402
-85.5814
-86.1777
-86.7843
-87.4097
-88.0363
-88.6853
-89.3205
-89.9321
-90.5052
-91.0403
-91.5618
-92.1146
-92.6733
-93.2566
-93.8357
-94.4115
-94.9639
-95.5237
-96.0557
-96.5839
-97.112
-97.7174
-98.3911
-99.0192
-99.6749
-100.284
-100.843
-101.393
-101.959
-102.541
-103.135
-103.73
-104.325
-104.921
-105.516
-106.112
-106.708
-107.304
-107.901
-108.497
-109.094
-109.691
-110.289
-110.886
-111.483
-112.081
-112.679
-113.276
-113.874
-114.471
-115.068
-115.666
-116.263
-116.86
-117.457
-118.054
-118.651
-119.247
-119.844
-120.44
-121.036
-121.632
-122.228
-122.824
-123.419
-124.015
-124.61
-125.205
-125.8
-126.394
-126.989
-127.583
-128.178
-128.772
-129.366
-129.959
-130.553
-131.146
-131.74
-132.333
-132.926
-133.519
-134.112
-134.704
-135.297
-135.889
-136.481
-137.073
-137.665
-138.257
-138.849
-139.441
-140.032
-140.624
-141.215
-141.806
-142.397
-142.988
-143.579
-144.17
-144.761
-145.352
-145.942
-146.533
-147.123
-147.714
-148.304
-148.894
-149.484
-150.074
-150.664
-151.255
-151.844
-152.434
-153.024
-153.614
-154.203
-154.793
-155.383
-155.972
-156.562
-157.152
-157.741
-158.33
-158.92
-159.509
-160.098
-160.688
-161.277
-161.866
-162.455
-163.044
-163.634
-164.223
-164.812
-165.401
-165.99
-166.579
-167.168
-167.757
-168.346
-168.934
-169.524
-170.112
-170.702
-171.29
-171.879
-172.468
-173.057
-173.646
-85.8266
-86.4225
-87.0299
-87.6564
-88.2872
-88.938
-89.571
-90.1945
-90.7719
-91.3019
-91.814
-92.3641
-92.9276
-93.5134
-94.0846
-94.6529
-95.2061
-95.7654
-96.305
-96.8374
-97.3697
-97.9783
-98.6489
-99.2727
-99.9233
-100.534
-101.094
-101.643
-102.205
-102.785
-103.379
-103.974
-104.569
-105.165
-105.76
-106.356
-106.952
-107.548
-108.144
-108.741
-109.338
-109.935
-110.533
-111.13
-111.727
-112.325
-112.922
-113.52
-114.118
-114.715
-115.312
-115.91
-116.507
-117.104
-117.701
-118.298
-118.895
-119.491
-120.088
-120.684
-121.28
-121.876
-122.472
-123.068
-123.663
-124.258
-124.854
-125.449
-126.044
-126.638
-127.233
-127.827
-128.421
-129.015
-129.609
-130.203
-130.797
-131.39
-131.984
-132.577
-133.17
-133.763
-134.355
-134.948
-135.541
-136.133
-136.725
-137.317
-137.909
-138.501
-139.093
-139.685
-140.276
-140.867
-141.459
-142.05
-142.641
-143.232
-143.823
-144.414
-145.005
-145.596
-146.186
-146.777
-147.367
-147.957
-148.548
-149.138
-149.728
-150.318
-150.908
-151.498
-152.088
-152.678
-153.268
-153.858
-154.447
-155.037
-155.627
-156.216
-156.806
-157.395
-157.985
-158.574
-159.163
-159.753
-160.342
-160.932
-161.521
-162.11
-162.699
-163.288
-163.877
-164.466
-165.056
-165.644
-166.234
-166.822
-167.412
-168
-168.59
-169.178
-169.768
-170.356
-170.945
-171.534
-172.123
-172.712
-173.301
-173.889
-86.0703
-86.6661
-87.2747
-87.9052
-88.5438
-89.2108
-89.8545
-90.4672
-91.0438
-91.57
-92.0709
-92.6184
-93.1861
-93.7734
-94.341
-94.9005
-95.4554
-96.0314
-96.5806
-97.1206
-97.6524
-98.2567
-98.9242
-99.5437
-100.177
-100.781
-101.341
-101.89
-102.452
-103.03
-103.623
-104.218
-104.813
-105.409
-106.004
-106.6
-107.196
-107.792
-108.388
-108.985
-109.582
-110.179
-110.776
-111.374
-111.971
-112.569
-113.166
-113.764
-114.361
-114.959
-115.556
-116.154
-116.751
-117.348
-117.945
-118.542
-119.139
-119.735
-120.332
-120.928
-121.524
-122.12
-122.716
-123.312
-123.907
-124.502
-125.098
-125.693
-126.287
-126.882
-127.477
-128.071
-128.665
-129.259
-129.853
-130.447
-131.041
-131.634
-132.227
-132.821
-133.414
-134.007
-134.599
-135.192
-135.784
-136.377
-136.969
-137.561
-138.153
-138.745
-139.337
-139.928
-140.52
-141.111
-141.703
-142.294
-142.885
-143.476
-144.067
-144.658
-145.249
-145.839
-146.43
-147.021
-147.611
-148.201
-148.792
-149.382
-149.972
-150.562
-151.152
-151.742
-152.332
-152.922
-153.512
-154.102
-154.691
-155.281
-155.87
-156.46
-157.05
-157.639
-158.229
-158.818
-159.407
-159.997
-160.586
-161.175
-161.764
-162.354
-162.943
-163.532
-164.121
-164.71
-165.3
-165.888
-166.478
-167.066
-167.656
-168.244
-168.834
-169.422
-170.012
-170.6
-171.189
-171.778
-172.367
-172.956
-173.545
-174.133
-86.3128
-86.9073
-87.515
-88.1445
-88.7859
-89.45
-90.0757
-90.6898
-91.2777
-91.8182
-92.324
-92.8692
-93.4405
-94.0297
-94.5941
-95.1462
-95.7006
-96.2729
-96.8286
-97.3725
-97.9089
-98.5173
-99.1808
-99.7966
-100.426
-101.024
-101.582
-102.133
-102.695
-103.274
-103.867
-104.462
-105.057
-105.652
-106.248
-106.844
-107.44
-108.036
-108.632
-109.229
-109.826
-110.423
-111.02
-111.618
-112.215
-112.813
-113.41
-114.008
-114.605
-115.203
-115.8
-116.397
-116.995
-117.592
-118.189
-118.786
-119.382
-119.979
-120.575
-121.172
-121.768
-122.364
-122.96
-123.555
-124.151
-124.746
-125.341
-125.936
-126.531
-127.126
-127.721
-128.315
-128.909
-129.503
-130.097
-130.691
-131.285
-131.878
-132.471
-133.064
-133.657
-134.25
-134.843
-135.436
-136.028
-136.621
-137.213
-137.805
-138.397
-138.989
-139.581
-140.172
-140.764
-141.355
-141.947
-142.538
-143.129
-143.72
-144.311
-144.902
-145.493
-146.083
-146.674
-147.264
-147.855
-148.445
-149.035
-149.626
-150.216
-150.806
-151.396
-151.986
-152.576
-153.166
-153.756
-154.345
-154.935
-155.525
-156.114
-156.704
-157.293
-157.883
-158.472
-159.062
-159.651
-160.241
-160.83
-161.419
-162.008
-162.598
-163.187
-163.776
-164.365
-164.954
-165.543
-166.132
-166.722
-167.31
-167.9
-168.488
-169.078
-169.666
-170.255
-170.844
-171.433
-172.022
-172.611
-173.199
-173.788
-174.377
-86.5542
-87.1489
-87.7538
-88.3853
-89.0343
-89.7021
-90.3173
-90.9146
-91.5026
-92.0606
-92.5752
-93.1209
-93.6973
-94.288
-94.853
-95.3994
-95.9542
-96.5396
-97.1006
-97.6504
-98.186
-98.7874
-99.4505
-100.064
-100.682
-101.271
-101.823
-102.371
-102.936
-103.518
-104.111
-104.706
-105.301
-105.896
-106.492
-107.088
-107.683
-108.28
-108.876
-109.473
-110.07
-110.667
-111.264
-111.862
-112.459
-113.057
-113.654
-114.252
-114.849
-115.447
-116.044
-116.641
-117.239
-117.836
-118.433
-119.03
-119.626
-120.223
-120.819
-121.416
-122.012
-122.608
-123.204
-123.799
-124.395
-124.99
-125.585
-126.18
-126.775
-127.37
-127.964
-128.559
-129.153
-129.747
-130.341
-130.935
-131.528
-132.122
-132.715
-133.308
-133.901
-134.494
-135.087
-135.68
-136.272
-136.864
-137.457
-138.049
-138.641
-139.233
-139.824
-140.416
-141.008
-141.599
-142.19
-142.782
-143.373
-143.964
-144.555
-145.146
-145.736
-146.327
-146.918
-147.508
-148.099
-148.689
-149.279
-149.87
-150.46
-151.05
-151.64
-152.23
-152.82
-153.41
-153.999
-154.589
-155.179
-155.769
-156.358
-156.948
-157.537
-158.127
-158.716
-159.306
-159.895
-160.484
-161.074
-161.663
-162.252
-162.842
-163.431
-164.02
-164.609
-165.198
-165.787
-166.376
-166.965
-167.554
-168.143
-168.732
-169.321
-169.91
-170.499
-171.088
-171.677
-172.266
-172.855
-173.443
-174.032
-174.621
-86.7946
-87.3891
-87.9898
-88.6163
-89.2617
-89.9171
-90.5144
-91.1216
-91.7118
-92.2838
-92.8169
-93.3692
-93.9501
-94.5411
-95.1046
-95.6487
-96.2032
-96.7825
-97.348
-97.9019
-98.4422
-99.0466
-99.7054
-100.315
-100.936
-101.521
-102.067
-102.614
-103.18
-103.762
-104.356
-104.95
-105.545
-106.14
-106.736
-107.331
-107.927
-108.524
-109.12
-109.717
-110.314
-110.911
-111.508
-112.106
-112.703
-113.3
-113.898
-114.496
-115.093
-115.691
-116.288
-116.885
-117.483
-118.08
-118.677
-119.273
-119.87
-120.467
-121.063
-121.66
-122.256
-122.852
-123.447
-124.043
-124.639
-125.234
-125.829
-126.424
-127.019
-127.614
-128.208
-128.803
-129.397
-129.991
-130.585
-131.179
-131.772
-132.366
-132.959
-133.552
-134.145
-134.738
-135.331
-135.923
-136.516
-137.108
-137.701
-138.293
-138.885
-139.477
-140.068
-140.66
-141.252
-141.843
-142.434
-143.026
-143.617
-144.208
-144.799
-145.389
-145.98
-146.571
-147.162
-147.752
-148.343
-148.933
-149.523
-150.113
-150.704
-151.294
-151.884
-152.474
-153.064
-153.654
-154.243
-154.833
-155.423
-156.013
-156.602
-157.192
-157.781
-158.371
-158.96
-159.55
-160.139
-160.728
-161.317
-161.907
-162.496
-163.085
-163.674
-164.264
-164.853
-165.442
-166.031
-166.62
-167.209
-167.798
-168.387
-168.976
-169.565
-170.154
-170.743
-171.332
-171.921
-172.509
-173.098
-173.687
-174.276
-174.865
-87.672
-88.2625
-88.8606
-89.47
-90.0813
-90.7078
-91.3245
-91.8998
-92.4831
-93.0621
-93.6439
-94.2223
-94.822
-95.4064
-95.9656
-96.498
-97.0465
-97.6597
-98.2305
-98.7924
-99.3233
-99.9024
-100.553
-101.145
-101.744
-102.314
-102.839
-103.373
-103.933
-104.508
-105.095
-105.684
-106.274
-106.864
-107.455
-108.045
-108.636
-109.227
-109.819
-110.41
-111.002
-111.594
-112.187
-112.779
-113.371
-113.964
-114.556
-115.149
-115.741
-116.334
-116.926
-117.518
-118.11
-118.703
-119.294
-119.886
-120.478
-121.07
-121.661
-122.252
-122.843
-123.434
-124.025
-124.616
-125.206
-125.796
-126.387
-126.976
-127.566
-128.156
-128.745
-129.335
-129.924
-130.513
-131.102
-131.691
-132.279
-132.868
-133.456
-134.044
-134.632
-135.22
-135.807
-136.395
-136.982
-137.57
-138.157
-138.744
-139.331
-139.918
-140.504
-141.091
-141.678
-142.264
-142.85
-143.436
-144.022
-144.608
-145.194
-145.78
-146.366
-146.952
-147.537
-148.123
-148.708
-149.293
-149.878
-150.464
-151.049
-151.634
-152.219
-152.804
-153.388
-153.973
-154.558
-155.143
-155.727
-156.312
-156.896
-157.481
-158.065
-158.65
-159.234
-159.819
-160.403
-160.987
-161.571
-162.156
-162.74
-163.324