/*--------------------------------*- C++ -*----------------------------------*\
| =========                 |                                                 |
| \\      /  F ield         | OpenFOAM: The Open Source CFD Toolbox           |
|  \\    /   O peration     | Version:  v1912                                 |
|   \\  /    A nd           | Website:  www.openfoam.com                      |
|    \\/     M anipulation  |                                                 |
\*---------------------------------------------------------------------------*/
FoamFile
{
    version     2.0;
    format      ascii;
    class       volSymmTensorField;
    location    "80";
    object      R;
}
// * * * * * * * * * * * * * * * * * * * * * * * * * * * * * * * * * * * * * //

dimensions      [0 2 -2 0 0 0 0];


internalField   nonuniform List<symmTensor> 
14268
(
(0.00136912 -0.000201083 0 0.000397802 0 0.00131244)
(0.00129723 -0.000176707 0 0.000307979 0 0.00121057)
(0.00132989 -0.000192519 0 0.000336366 0 0.00120441)
(0.00166648 -0.000320205 0 0.000824069 0 0.00148305)
(0.00255301 -0.000592207 0 0.00247793 0 0.00229471)
(0.00385279 -0.000803697 0 0.00525433 0 0.00359018)
(0.00491762 -0.000763983 0 0.00764243 0 0.00476188)
(0.00540169 -0.000648155 0 0.008812 0 0.00537385)
(0.00519101 -0.000405519 0 0.00850649 0 0.00523744)
(0.00398429 -0.000310317 0 0.00558536 0 0.00395674)
(0.00203666 -0.000178858 0 0.00144452 0 0.00189076)
(0.00166533 -0.000148303 0 0.000487491 0 0.00148791)
(0.001862 -0.000180918 0 0.000578902 0 0.00167859)
(0.00209064 -0.000232192 0 0.000787524 0 0.00190966)
(0.00212782 -0.000283733 0 0.000867755 0 0.00191431)
(0.00229911 -0.000369207 0 0.00115932 0 0.00203839)
(0.0030246 -0.000589816 0 0.0021682 0 0.00270194)
(0.00455915 -0.000978972 0 0.00449163 0 0.00424852)
(0.00684942 -0.00142748 0 0.0085684 0 0.00679683)
(0.00955345 -0.00138621 0 0.01453 0 0.0102711)
(0.0106766 -0.000771126 0 0.0177662 0 0.012038)
(0.0103327 -0.000253866 0 0.0173217 0 0.0117303)
(0.00897202 0.000465118 0 0.0143506 0 0.00999189)
(0.00685918 0.000800087 0 0.00970194 0 0.00731579)
(0.00399888 0.000610878 0 0.00426913 0 0.0040796)
(0.00160806 0.000257694 0 0.00154754 0 0.00156833)
(0.000620523 0.000115125 0 0.000853049 0 0.000581574)
(0.000289539 -1.68563e-05 0 0.000611744 0 0.000257949)
(0.000109889 -3.0792e-05 0 0.000197051 0 9.15507e-05)
(2.27291e-05 -6.4937e-06 0 2.66512e-05 0 1.84025e-05)
(3.99401e-06 -9.41099e-07 0 3.13202e-06 0 3.21037e-06)
(7.18636e-07 -1.30783e-07 0 4.1412e-07 0 5.79704e-07)
(1.35886e-07 -1.90585e-08 0 7.64165e-08 0 1.11413e-07)
(2.58233e-08 -2.39776e-09 0 1.6733e-08 0 2.18453e-08)
(4.95393e-09 -2.30269e-10 0 3.64973e-09 0 4.31858e-09)
(9.5366e-10 -1.85029e-11 0 7.66053e-10 0 8.49668e-10)
(1.82563e-10 -1.77316e-12 0 1.54512e-10 0 1.65204e-10)
(3.4565e-11 -1.83476e-13 0 3.01452e-11 0 3.16584e-11)
(6.46376e-12 -1.31862e-14 0 5.72372e-12 0 5.97566e-12)
(1.23174e-12 2.60938e-15 0 1.09658e-12 0 1.14669e-12)
(2.95965e-13 3.27114e-15 0 2.62088e-13 0 2.76627e-13)
(1.48703e-13 3.3671e-15 0 1.30151e-13 0 1.39051e-13)
(1.39182e-13 3.6181e-15 0 1.2151e-13 0 1.30199e-13)
(1.53838e-13 4.03337e-15 0 1.34536e-13 0 1.44068e-13)
(1.83018e-13 4.69294e-15 0 1.6066e-13 0 1.71719e-13)
(2.16092e-13 5.36833e-15 0 1.90487e-13 0 2.03162e-13)
(2.47552e-13 5.9621e-15 0 2.19053e-13 0 2.33166e-13)
(2.79046e-13 6.51746e-15 0 2.47816e-13 0 2.63287e-13)
(3.11585e-13 7.05513e-15 0 2.7769e-13 0 2.94487e-13)
(3.45432e-13 7.57815e-15 0 3.08921e-13 0 3.2702e-13)
(3.80332e-13 8.08051e-15 0 3.41285e-13 0 3.60647e-13)
(4.16032e-13 8.55754e-15 0 3.7455e-13 0 3.95126e-13)
(4.52413e-13 9.00705e-15 0 4.0861e-13 0 4.30344e-13)
(4.89406e-13 9.42805e-15 0 4.43399e-13 0 4.66233e-13)
(5.26931e-13 9.81939e-15 0 4.78846e-13 0 5.02718e-13)
(5.64903e-13 1.01805e-14 0 5.14868e-13 0 5.39715e-13)
(6.03246e-13 1.05108e-14 0 5.51395e-13 0 5.77151e-13)
(6.4189e-13 1.08103e-14 0 5.88357e-13 0 6.14955e-13)
(6.80758e-13 1.10785e-14 0 6.2568e-13 0 6.53052e-13)
(7.19773e-13 1.13159e-14 0 6.63284e-13 0 6.91364e-13)
(7.58859e-13 1.15222e-14 0 7.01097e-13 0 7.29816e-13)
(7.97984e-13 1.1699e-14 0 7.39082e-13 0 7.68373e-13)
(8.37062e-13 1.18456e-14 0 7.77153e-13 0 8.06952e-13)
(8.76104e-13 1.19642e-14 0 8.15319e-13 0 8.45559e-13)
(9.15007e-13 1.20544e-14 0 8.53475e-13 0 8.84094e-13)
(9.53769e-13 1.21178e-14 0 8.91617e-13 0 9.22549e-13)
(9.92315e-13 1.2155e-14 0 9.29662e-13 0 9.60849e-13)
(1.03063e-12 1.21675e-14 0 9.67597e-13 0 9.98981e-13)
(1.06869e-12 1.2156e-14 0 1.00539e-12 0 1.03691e-12)
(1.10646e-12 1.21217e-14 0 1.04299e-12 0 1.0746e-12)
(1.14389e-12 1.20655e-14 0 1.08038e-12 0 1.11201e-12)
(1.18097e-12 1.19887e-14 0 1.11749e-12 0 1.14912e-12)
(1.21765e-12 1.18923e-14 0 1.15432e-12 0 1.18587e-12)
(1.25391e-12 1.17775e-14 0 1.19082e-12 0 1.22226e-12)
(1.28973e-12 1.16454e-14 0 1.22696e-12 0 1.25824e-12)
(1.32508e-12 1.14971e-14 0 1.26271e-12 0 1.2938e-12)
(1.35994e-12 1.13337e-14 0 1.29806e-12 0 1.32891e-12)
(1.3943e-12 1.11564e-14 0 1.33297e-12 0 1.36355e-12)
(1.42813e-12 1.09662e-14 0 1.36743e-12 0 1.3977e-12)
(1.46142e-12 1.07641e-14 0 1.4014e-12 0 1.43134e-12)
(1.49416e-12 1.05513e-14 0 1.43488e-12 0 1.46445e-12)
(1.52632e-12 1.03288e-14 0 1.46785e-12 0 1.49701e-12)
(1.5579e-12 1.00974e-14 0 1.50028e-12 0 1.52903e-12)
(1.5889e-12 9.85828e-15 0 1.53217e-12 0 1.56047e-12)
(1.61929e-12 9.6122e-15 0 1.56349e-12 0 1.59133e-12)
(1.64907e-12 9.36015e-15 0 1.59425e-12 0 1.6216e-12)
(1.67824e-12 9.10289e-15 0 1.62442e-12 0 1.65128e-12)
(1.70679e-12 8.84134e-15 0 1.65401e-12 0 1.68035e-12)
(1.73471e-12 8.5762e-15 0 1.68299e-12 0 1.70881e-12)
(1.76202e-12 8.30831e-15 0 1.71137e-12 0 1.73665e-12)
(1.78868e-12 8.03828e-15 0 1.73914e-12 0 1.76388e-12)
(1.81473e-12 7.7669e-15 0 1.7663e-12 0 1.79048e-12)
(1.84014e-12 7.4947e-15 0 1.79284e-12 0 1.81646e-12)
(1.86493e-12 7.22236e-15 0 1.81877e-12 0 1.84182e-12)
(1.88909e-12 6.9504e-15 0 1.84407e-12 0 1.86655e-12)
(1.91263e-12 6.67937e-15 0 1.86876e-12 0 1.89067e-12)
(1.93555e-12 6.40977e-15 0 1.89283e-12 0 1.91417e-12)
(1.95786e-12 6.14202e-15 0 1.91628e-12 0 1.93705e-12)
(1.97956e-12 5.87659e-15 0 1.93912e-12 0 1.95932e-12)
(2.00066e-12 5.61384e-15 0 1.96135e-12 0 1.98099e-12)
(2.02116e-12 5.35411e-15 0 1.98298e-12 0 2.00206e-12)
(2.04108e-12 5.09782e-15 0 2.00402e-12 0 2.02253e-12)
(2.06041e-12 4.84505e-15 0 2.02446e-12 0 2.04242e-12)
(2.07918e-12 4.59642e-15 0 2.04432e-12 0 2.06173e-12)
(2.09737e-12 4.35168e-15 0 2.06359e-12 0 2.08047e-12)
(2.11502e-12 4.11164e-15 0 2.08231e-12 0 2.09866e-12)
(2.13212e-12 3.87577e-15 0 2.10045e-12 0 2.11628e-12)
(2.14869e-12 3.64506e-15 0 2.11806e-12 0 2.13337e-12)
(2.16473e-12 3.41874e-15 0 2.13511e-12 0 2.14991e-12)
(2.18026e-12 3.19785e-15 0 2.15163e-12 0 2.16594e-12)
(2.19528e-12 2.98158e-15 0 2.16763e-12 0 2.18145e-12)
(2.20981e-12 2.77085e-15 0 2.18311e-12 0 2.19646e-12)
(2.22386e-12 2.56497e-15 0 2.1981e-12 0 2.21098e-12)
(2.23744e-12 2.36461e-15 0 2.21259e-12 0 2.22501e-12)
(2.25056e-12 2.16929e-15 0 2.2266e-12 0 2.23857e-12)
(2.26322e-12 1.9794e-15 0 2.24013e-12 0 2.25167e-12)
(2.27545e-12 1.79469e-15 0 2.25321e-12 0 2.26433e-12)
(2.28725e-12 1.61524e-15 0 2.26584e-12 0 2.27654e-12)
(2.29864e-12 1.44107e-15 0 2.27803e-12 0 2.28834e-12)
(2.30962e-12 1.27199e-15 0 2.28979e-12 0 2.2997e-12)
(2.32021e-12 1.10817e-15 0 2.30114e-12 0 2.31067e-12)
(2.33041e-12 9.49304e-16 0 2.31208e-12 0 2.32124e-12)
(2.34024e-12 7.95594e-16 0 2.32263e-12 0 2.33144e-12)
(2.34971e-12 6.46714e-16 0 2.33279e-12 0 2.34125e-12)
(2.35883e-12 5.0281e-16 0 2.34259e-12 0 2.35071e-12)
(2.3676e-12 3.63623e-16 0 2.35201e-12 0 2.3598e-12)
(2.37606e-12 2.29197e-16 0 2.3611e-12 0 2.36858e-12)
(2.38417e-12 9.93562e-17 0 2.36982e-12 0 2.377e-12)
(2.392e-12 -2.59446e-17 0 2.37824e-12 0 2.38512e-12)
(2.3995e-12 -1.46822e-16 0 2.38631e-12 0 2.39291e-12)
(2.40674e-12 -2.63375e-16 0 2.39411e-12 0 2.40043e-12)
(2.41366e-12 -3.75694e-16 0 2.40157e-12 0 2.40762e-12)
(2.42035e-12 -4.83923e-16 0 2.40877e-12 0 2.41456e-12)
(2.42674e-12 -5.88092e-16 0 2.41566e-12 0 2.4212e-12)
(2.4329e-12 -6.88429e-16 0 2.42229e-12 0 2.4276e-12)
(2.4388e-12 -7.84857e-16 0 2.42866e-12 0 2.43373e-12)
(2.44446e-12 -8.77724e-16 0 2.43477e-12 0 2.43962e-12)
(2.4499e-12 -9.66838e-16 0 2.44064e-12 0 2.44527e-12)
(2.45511e-12 -1.05264e-15 0 2.44626e-12 0 2.45069e-12)
(2.46012e-12 -1.13488e-15 0 2.45166e-12 0 2.45589e-12)
(2.4649e-12 -1.214e-15 0 2.45683e-12 0 2.46087e-12)
(2.46951e-12 -1.2898e-15 0 2.4618e-12 0 2.46566e-12)
(2.4739e-12 -1.36263e-15 0 2.46655e-12 0 2.47023e-12)
(2.47812e-12 -1.4324e-15 0 2.47111e-12 0 2.47462e-12)
(2.48215e-12 -1.49931e-15 0 2.47546e-12 0 2.47881e-12)
(2.48599e-12 -1.56322e-15 0 2.47961e-12 0 2.48281e-12)
(2.48963e-12 -1.62453e-15 0 2.48355e-12 0 2.4866e-12)
(2.49303e-12 -1.68146e-15 0 2.48722e-12 0 2.49013e-12)
(2.4964e-12 -1.73717e-15 0 2.49088e-12 0 2.49365e-12)
(2.5009e-12 -1.80065e-15 0 2.49573e-12 0 2.49832e-12)
(0.00658333 -0.00110114 0 0.00218049 0 0.00628865)
(0.00652528 -0.000960321 0 0.00160683 0 0.00602161)
(0.00674313 -0.00104375 0 0.00142609 0 0.005953)
(0.00750235 -0.00161344 0 0.00378655 0 0.00647659)
(0.00930964 -0.00253351 0 0.0112851 0 0.0081583)
(0.0122001 -0.00288635 0 0.0229367 0 0.0112691)
(0.0150066 -0.00272831 0 0.0325253 0 0.0145218)
(0.0163291 -0.00253038 0 0.0369867 0 0.0163408)
(0.0158389 -0.00171516 0 0.0357335 0 0.0161215)
(0.013057 -0.0011614 0 0.0243494 0 0.0130568)
(0.00851266 -0.000710627 0 0.00615625 0 0.00782797)
(0.00820199 -0.000713912 0 0.00142124 0 0.00709676)
(0.00875248 -0.000826505 0 0.00203191 0 0.00768462)
(0.00933587 -0.00101864 0 0.00314914 0 0.00838202)
(0.00946884 -0.00126725 0 0.00336827 0 0.0083621)
(0.0099007 -0.00165642 0 0.0043554 0 0.00857606)
(0.0116902 -0.00251391 0 0.00822826 0 0.0102371)
(0.0156069 -0.00406636 0 0.0169519 0 0.0144742)
(0.0213808 -0.00578696 0 0.0321024 0 0.0216572)
(0.0278972 -0.00572635 0 0.0540333 0 0.031648)
(0.0301807 -0.00339749 0 0.0656283 0 0.0366825)
(0.029219 -0.0012864 0 0.0639209 0 0.0357903)
(0.0261121 0.00147921 0 0.0532203 0 0.0309188)
(0.0211288 0.00285143 0 0.0365682 0 0.0233357)
(0.0142093 0.00261841 0 0.0159309 0 0.0146295)
(0.00664159 0.00125423 0 0.0063345 0 0.00640183)
(0.00279104 0.000672144 0 0.00535021 0 0.00252715)
(0.00138288 -0.000157922 0 0.00556967 0 0.00115915)
(0.000971802 -0.000492327 0 0.00279113 0 0.000710455)
(0.000381052 -0.000169637 0 0.000468341 0 0.000259816)
(9.73262e-05 -3.17646e-05 0 5.45353e-05 0 6.63946e-05)
(2.03937e-05 -4.96445e-06 0 5.86722e-06 0 1.42549e-05)
(3.94411e-06 -7.65724e-07 0 1.26794e-06 0 2.86458e-06)
(7.411e-07 -1.03772e-07 0 3.56284e-07 0 5.6482e-07)
(1.39317e-07 -1.07188e-08 0 8.53385e-08 0 1.11195e-07)
(2.65847e-08 -9.75934e-10 0 1.88657e-08 0 2.19595e-08)
(5.10522e-09 -1.04162e-10 0 3.93667e-09 0 4.32292e-09)
(9.74769e-10 -1.20047e-11 0 7.85644e-10 0 8.41591e-10)
(1.83857e-10 -1.13808e-12 0 1.51256e-10 0 1.61205e-10)
(3.53666e-11 5.01079e-14 0 2.92406e-11 0 3.13779e-11)
(8.64301e-12 1.48734e-13 0 7.05194e-12 0 7.72118e-12)
(4.43689e-12 1.63929e-13 0 3.5373e-12 0 3.96745e-12)
(4.18343e-12 1.77717e-13 0 3.31805e-12 0 3.74306e-12)
(4.63395e-12 1.98635e-13 0 3.68533e-12 0 4.15345e-12)
(5.51586e-12 2.31297e-13 0 4.41476e-12 0 4.95914e-12)
(6.51013e-12 2.64563e-13 0 5.24759e-12 0 5.87224e-12)
(7.4561e-12 2.93826e-13 0 6.04913e-12 0 6.74555e-12)
(8.40305e-12 3.21215e-13 0 6.8594e-12 0 7.62377e-12)
(9.38111e-12 3.47736e-13 0 7.70379e-12 0 8.53466e-12)
(1.03977e-11 3.73527e-13 0 8.58903e-12 0 9.48528e-12)
(1.14452e-11 3.98292e-13 0 9.50889e-12 0 1.04687e-11)
(1.25158e-11 4.21802e-13 0 1.04569e-11 0 1.14778e-11)
(1.36061e-11 4.43947e-13 0 1.14301e-11 0 1.25095e-11)
(1.4714e-11 4.64679e-13 0 1.24266e-11 0 1.35615e-11)
(1.58369e-11 4.8394e-13 0 1.34444e-11 0 1.46318e-11)
(1.69723e-11 5.01705e-13 0 1.4481e-11 0 1.57178e-11)
(1.8118e-11 5.17938e-13 0 1.55345e-11 0 1.68174e-11)
(1.92718e-11 5.32645e-13 0 1.66028e-11 0 1.79285e-11)
(2.04314e-11 5.45796e-13 0 1.76836e-11 0 1.90488e-11)
(2.15945e-11 5.57423e-13 0 1.87748e-11 0 2.01761e-11)
(2.27588e-11 5.67509e-13 0 1.9874e-11 0 2.1308e-11)
(2.39234e-11 5.76127e-13 0 2.09802e-11 0 2.24435e-11)
(2.50858e-11 5.83256e-13 0 2.20909e-11 0 2.35803e-11)
(2.62462e-11 5.88993e-13 0 2.32063e-11 0 2.47183e-11)
(2.74018e-11 5.93325e-13 0 2.43231e-11 0 2.58548e-11)
(2.85524e-11 5.96332e-13 0 2.54415e-11 0 2.69895e-11)
(2.96958e-11 5.98041e-13 0 2.65586e-11 0 2.812e-11)
(3.08316e-11 5.98524e-13 0 2.76742e-11 0 2.92459e-11)
(3.19592e-11 5.97825e-13 0 2.87871e-11 0 3.03664e-11)
(3.30772e-11 5.95992e-13 0 2.98962e-11 0 3.14802e-11)
(3.41848e-11 5.93082e-13 0 3.10001e-11 0 3.25862e-11)
(3.52809e-11 5.8915e-13 0 3.20977e-11 0 3.36834e-11)
(3.63649e-11 5.84251e-13 0 3.3188e-11 0 3.47707e-11)
(3.74358e-11 5.78442e-13 0 3.42699e-11 0 3.58474e-11)
(3.84931e-11 5.71779e-13 0 3.53425e-11 0 3.69126e-11)
(3.95359e-11 5.64317e-13 0 3.6405e-11 0 3.79655e-11)
(4.05639e-11 5.56112e-13 0 3.74565e-11 0 3.90055e-11)
(4.15764e-11 5.47218e-13 0 3.84962e-11 0 4.00318e-11)
(4.25729e-11 5.37688e-13 0 3.95234e-11 0 4.10439e-11)
(4.3553e-11 5.27577e-13 0 4.05374e-11 0 4.20412e-11)
(4.45162e-11 5.16935e-13 0 4.15376e-11 0 4.30231e-11)
(4.54623e-11 5.05814e-13 0 4.25233e-11 0 4.39892e-11)
(4.63907e-11 4.94259e-13 0 4.3494e-11 0 4.4939e-11)
(4.73015e-11 4.82321e-13 0 4.44492e-11 0 4.58722e-11)
(4.81941e-11 4.70044e-13 0 4.53885e-11 0 4.67883e-11)
(4.90686e-11 4.57474e-13 0 4.63115e-11 0 4.76872e-11)
(4.99246e-11 4.44649e-13 0 4.72177e-11 0 4.85686e-11)
(5.07623e-11 4.31616e-13 0 4.81071e-11 0 4.94322e-11)
(5.15812e-11 4.18407e-13 0 4.8979e-11 0 5.02778e-11)
(5.23815e-11 4.05065e-13 0 4.98335e-11 0 5.11054e-11)
(5.31631e-11 3.9162e-13 0 5.06701e-11 0 5.19146e-11)
(5.39261e-11 3.7811e-13 0 5.1489e-11 0 5.27057e-11)
(5.46703e-11 3.64563e-13 0 5.22897e-11 0 5.34783e-11)
(5.5396e-11 3.51012e-13 0 5.30723e-11 0 5.42326e-11)
(5.61031e-11 3.37482e-13 0 5.38368e-11 0 5.49685e-11)
(5.67918e-11 3.24e-13 0 5.4583e-11 0 5.5686e-11)
(5.74623e-11 3.10592e-13 0 5.5311e-11 0 5.63854e-11)
(5.81146e-11 2.97277e-13 0 5.60207e-11 0 5.70665e-11)
(5.8749e-11 2.84079e-13 0 5.67125e-11 0 5.77297e-11)
(5.93656e-11 2.71017e-13 0 5.73861e-11 0 5.83749e-11)
(5.99647e-11 2.58105e-13 0 5.80418e-11 0 5.90024e-11)
(6.05464e-11 2.45366e-13 0 5.86797e-11 0 5.96123e-11)
(6.1111e-11 2.32803e-13 0 5.93e-11 0 6.02048e-11)
(6.16589e-11 2.20446e-13 0 5.99029e-11 0 6.07803e-11)
(6.21901e-11 2.08283e-13 0 6.04884e-11 0 6.13387e-11)
(6.27052e-11 1.96356e-13 0 6.10571e-11 0 6.18807e-11)
(6.32041e-11 1.84636e-13 0 6.16087e-11 0 6.24059e-11)
(6.36875e-11 1.73172e-13 0 6.21441e-11 0 6.29154e-11)
(6.41553e-11 1.61928e-13 0 6.26629e-11 0 6.34087e-11)
(6.46082e-11 1.50953e-13 0 6.31658e-11 0 6.38867e-11)
(6.50462e-11 1.40209e-13 0 6.36529e-11 0 6.43493e-11)
(6.54698e-11 1.29739e-13 0 6.41246e-11 0 6.4797e-11)
(6.58793e-11 1.19512e-13 0 6.45811e-11 0 6.523e-11)
(6.62749e-11 1.09557e-13 0 6.50227e-11 0 6.56487e-11)
(6.66572e-11 9.98559e-14 0 6.54498e-11 0 6.60534e-11)
(6.70262e-11 9.04213e-14 0 6.58626e-11 0 6.64443e-11)
(6.73825e-11 8.1247e-14 0 6.62616e-11 0 6.6822e-11)
(6.77262e-11 7.23317e-14 0 6.66469e-11 0 6.71865e-11)
(6.80578e-11 6.36805e-14 0 6.70191e-11 0 6.75384e-11)
(6.83775e-11 5.52803e-14 0 6.73781e-11 0 6.78778e-11)
(6.86858e-11 4.71435e-14 0 6.77248e-11 0 6.82053e-11)
(6.89827e-11 3.92507e-14 0 6.80589e-11 0 6.85208e-11)
(6.9269e-11 3.16156e-14 0 6.83813e-11 0 6.88252e-11)
(6.95444e-11 2.42191e-14 0 6.86917e-11 0 6.91182e-11)
(6.981e-11 1.70704e-14 0 6.89913e-11 0 6.94007e-11)
(7.00651e-11 1.01558e-14 0 6.92793e-11 0 6.96723e-11)
(7.03112e-11 3.47706e-15 0 6.95573e-11 0 6.99344e-11)
(7.05472e-11 -2.97298e-15 0 6.98241e-11 0 7.01858e-11)
(7.0775e-11 -9.19904e-15 0 7.00818e-11 0 7.04285e-11)
(7.09931e-11 -1.52038e-14 0 7.03287e-11 0 7.06611e-11)
(7.12037e-11 -2.09957e-14 0 7.05672e-11 0 7.08856e-11)
(7.14051e-11 -2.65754e-14 0 7.07955e-11 0 7.11005e-11)
(7.15995e-11 -3.1954e-14 0 7.10159e-11 0 7.13078e-11)
(7.17854e-11 -3.71294e-14 0 7.12268e-11 0 7.15063e-11)
(7.19644e-11 -4.21158e-14 0 7.14301e-11 0 7.16975e-11)
(7.2136e-11 -4.69073e-14 0 7.16249e-11 0 7.18806e-11)
(7.23007e-11 -5.15225e-14 0 7.18121e-11 0 7.20566e-11)
(7.24588e-11 -5.59511e-14 0 7.19919e-11 0 7.22256e-11)
(7.26102e-11 -6.02151e-14 0 7.21641e-11 0 7.23874e-11)
(7.27558e-11 -6.43026e-14 0 7.23297e-11 0 7.2543e-11)
(7.28949e-11 -6.82349e-14 0 7.2488e-11 0 7.26917e-11)
(7.30287e-11 -7.20031e-14 0 7.26404e-11 0 7.28348e-11)
(7.31564e-11 -7.5623e-14 0 7.27859e-11 0 7.29713e-11)
(7.32791e-11 -7.90912e-14 0 7.29257e-11 0 7.31026e-11)
(7.3396e-11 -8.24171e-14 0 7.3059e-11 0 7.32278e-11)
(7.35078e-11 -8.55944e-14 0 7.31865e-11 0 7.33474e-11)
(7.36136e-11 -8.86424e-14 0 7.33072e-11 0 7.34607e-11)
(7.37124e-11 -9.14698e-14 0 7.34197e-11 0 7.35662e-11)
(7.38101e-11 -9.42354e-14 0 7.3532e-11 0 7.36715e-11)
(7.39412e-11 -9.74046e-14 0 7.36807e-11 0 7.38109e-11)
(0.00892952 -0.00167517 0 0.0110363 0 0.00888897)
(0.00887237 -0.00147509 0 0.0098409 0 0.00856608)
(0.00934329 -0.00165573 0 0.00833539 0 0.00853009)
(0.0104537 -0.00236556 0 0.0115207 0 0.00924679)
(0.0130581 -0.00369517 0 0.0238435 0 0.0115196)
(0.0172576 -0.00434984 0 0.0430885 0 0.015932)
(0.0213514 -0.0043651 0 0.0583537 0 0.0206433)
(0.0232709 -0.00423531 0 0.0653253 0 0.0233024)
(0.022601 -0.0031441 0 0.0632704 0 0.0230078)
(0.0187118 -0.00200193 0 0.046278 0 0.0187528)
(0.0128233 -0.00123126 0 0.0174918 0 0.0118249)
(0.0121105 -0.00124563 0 0.00904408 0 0.0106164)
(0.0126952 -0.00128193 0 0.0106516 0 0.0113233)
(0.0134614 -0.00148049 0 0.0125046 0 0.0122967)
(0.0137543 -0.0018759 0 0.01187 0 0.0123779)
(0.0145673 -0.00248566 0 0.011758 0 0.0128134)
(0.0172929 -0.00382142 0 0.0163827 0 0.0152691)
(0.0229066 -0.00635883 0 0.0291248 0 0.0213356)
(0.0309576 -0.00906548 0 0.0531785 0 0.0316641)
(0.0401373 -0.00924085 0 0.0882736 0 0.0462853)
(0.0433572 -0.00581618 0 0.106452 0 0.053713)
(0.0419507 -0.00257271 0 0.10354 0 0.0523726)
(0.0375397 0.00171018 0 0.0862832 0 0.0451982)
(0.0304863 0.00403498 0 0.0605786 0 0.0340195)
(0.0214306 0.00401907 0 0.0270166 0 0.0220975)
(0.0105591 0.00198455 0 0.0104315 0 0.0101275)
(0.00434246 0.000734577 0 0.0105936 0 0.00387703)
(0.00194698 -0.00035217 0 0.0126119 0 0.00159794)
(0.0012723 -0.000697757 0 0.00845612 0 0.00096401)
(0.000579519 -0.000326082 0 0.00198874 0 0.000395418)
(0.000194811 -8.24516e-05 0 0.000282333 0 0.000126407)
(5.38659e-05 -1.66433e-05 0 3.49675e-05 0 3.51722e-05)
(1.32809e-05 -3.19484e-06 0 6.82087e-06 0 8.94129e-06)
(3.05093e-06 -5.61475e-07 0 2.07725e-06 0 2.14307e-06)
(6.64413e-07 -8.23521e-08 0 5.13571e-07 0 4.87959e-07)
(1.40206e-07 -1.15535e-08 0 1.13469e-07 0 1.06982e-07)
(2.88477e-08 -1.66529e-09 0 2.37411e-08 0 2.27326e-08)
(5.78383e-09 -2.36877e-10 0 4.74962e-09 0 4.68351e-09)
(1.13237e-09 -3.09316e-11 0 9.17667e-10 0 9.37701e-10)
(2.25867e-10 -2.70431e-12 0 1.78943e-10 0 1.90318e-10)
(5.85203e-11 9.2864e-13 0 4.43018e-11 0 4.98094e-11)
(3.20716e-11 1.48939e-12 0 2.30818e-11 0 2.73384e-11)
(3.07939e-11 1.66822e-12 0 2.19244e-11 0 2.6271e-11)
(3.42619e-11 1.87593e-12 0 2.44753e-11 0 2.93018e-11)
(4.07713e-11 2.17897e-12 0 2.93933e-11 0 3.50176e-11)
(4.79883e-11 2.47864e-12 0 3.49526e-11 0 4.14015e-11)
(5.48278e-11 2.73917e-12 0 4.03111e-11 0 4.7496e-11)
(6.16687e-11 2.98138e-12 0 4.57485e-11 0 5.36312e-11)
(6.87167e-11 3.21402e-12 0 5.14251e-11 0 5.999e-11)
(7.60182e-11 3.43818e-12 0 5.73816e-11 0 6.6616e-11)
(8.35168e-11 3.65133e-12 0 6.35762e-11 0 7.34602e-11)
(9.11585e-11 3.85167e-12 0 6.99667e-11 0 8.04744e-11)
(9.89175e-11 4.0384e-12 0 7.65333e-11 0 8.76358e-11)
(1.06779e-10 4.21123e-12 0 8.32632e-11 0 9.49303e-11)
(1.14724e-10 4.36979e-12 0 9.01426e-11 0 1.02342e-10)
(1.22736e-10 4.51403e-12 0 9.71552e-11 0 1.09854e-10)
(1.30797e-10 4.64377e-12 0 1.04287e-10 0 1.17451e-10)
(1.38895e-10 4.75922e-12 0 1.11525e-10 0 1.2512e-10)
(1.47012e-10 4.86022e-12 0 1.18853e-10 0 1.32843e-10)
(1.55133e-10 4.94726e-12 0 1.26256e-10 0 1.40606e-10)
(1.63241e-10 5.02028e-12 0 1.33718e-10 0 1.48393e-10)
(1.71333e-10 5.08008e-12 0 1.41233e-10 0 1.56198e-10)
(1.79388e-10 5.12657e-12 0 1.48781e-10 0 1.64002e-10)
(1.87414e-10 5.16069e-12 0 1.56366e-10 0 1.71809e-10)
(1.95386e-10 5.18245e-12 0 1.63964e-10 0 1.79596e-10)
(2.03306e-10 5.19261e-12 0 1.71577e-10 0 1.87365e-10)
(2.11161e-10 5.19151e-12 0 1.79185e-10 0 1.95099e-10)
(2.18946e-10 5.17984e-12 0 1.86785e-10 0 2.02794e-10)
(2.26659e-10 5.15804e-12 0 1.94371e-10 0 2.10446e-10)
(2.34291e-10 5.1266e-12 0 2.01933e-10 0 2.18046e-10)
(2.41837e-10 5.08607e-12 0 2.09463e-10 0 2.25586e-10)
(2.49291e-10 5.03697e-12 0 2.16953e-10 0 2.33061e-10)
(2.56648e-10 4.97984e-12 0 2.24395e-10 0 2.40463e-10)
(2.63903e-10 4.9152e-12 0 2.31782e-10 0 2.47786e-10)
(2.71053e-10 4.84356e-12 0 2.39108e-10 0 2.55027e-10)
(2.78093e-10 4.76545e-12 0 2.46367e-10 0 2.62179e-10)
(2.8502e-10 4.68137e-12 0 2.53552e-10 0 2.69238e-10)
(2.91833e-10 4.5918e-12 0 2.60659e-10 0 2.762e-10)
(2.98527e-10 4.49721e-12 0 2.67682e-10 0 2.83061e-10)
(3.051e-10 4.39808e-12 0 2.74616e-10 0 2.89817e-10)
(3.1155e-10 4.29487e-12 0 2.81457e-10 0 2.96464e-10)
(3.17875e-10 4.18802e-12 0 2.882e-10 0 3.03001e-10)
(3.24074e-10 4.07794e-12 0 2.94842e-10 0 3.09423e-10)
(3.30146e-10 3.96506e-12 0 3.01379e-10 0 3.1573e-10)
(3.36089e-10 3.84974e-12 0 3.07808e-10 0 3.21918e-10)
(3.41904e-10 3.73239e-12 0 3.14127e-10 0 3.27986e-10)
(3.47589e-10 3.61332e-12 0 3.20331e-10 0 3.33933e-10)
(3.53144e-10 3.49293e-12 0 3.26421e-10 0 3.39757e-10)
(3.58568e-10 3.37148e-12 0 3.32392e-10 0 3.45456e-10)
(3.63864e-10 3.24934e-12 0 3.38245e-10 0 3.51032e-10)
(3.69028e-10 3.12675e-12 0 3.43976e-10 0 3.56481e-10)
(3.74065e-10 3.00402e-12 0 3.49585e-10 0 3.61806e-10)
(3.78972e-10 2.88137e-12 0 3.55071e-10 0 3.67003e-10)
(3.83752e-10 2.75908e-12 0 3.60434e-10 0 3.72076e-10)
(3.88405e-10 2.63734e-12 0 3.65672e-10 0 3.77023e-10)
(3.92932e-10 2.51638e-12 0 3.70785e-10 0 3.81844e-10)
(3.97336e-10 2.39639e-12 0 3.75775e-10 0 3.86542e-10)
(4.01615e-10 2.27753e-12 0 3.80639e-10 0 3.91115e-10)
(4.05774e-10 2.15998e-12 0 3.8538e-10 0 3.95566e-10)
(4.09812e-10 2.04389e-12 0 3.89997e-10 0 3.99894e-10)
(4.13733e-10 1.92938e-12 0 3.94492e-10 0 4.04103e-10)
(4.17536e-10 1.81661e-12 0 3.98865e-10 0 4.08192e-10)
(4.21225e-10 1.70561e-12 0 4.03117e-10 0 4.12163e-10)
(4.24802e-10 1.5966e-12 0 4.07251e-10 0 4.16019e-10)
(4.28267e-10 1.4895e-12 0 4.11265e-10 0 4.19759e-10)
(4.31625e-10 1.3846e-12 0 4.15164e-10 0 4.23389e-10)
(4.34875e-10 1.28169e-12 0 4.18946e-10 0 4.26905e-10)
(4.38022e-10 1.18114e-12 0 4.22616e-10 0 4.30315e-10)
(4.41066e-10 1.08268e-12 0 4.26174e-10 0 4.33615e-10)
(4.44011e-10 9.86646e-13 0 4.29622e-10 0 4.36813e-10)
(4.46857e-10 8.92784e-13 0 4.32962e-10 0 4.39906e-10)
(4.49608e-10 8.01363e-13 0 4.36196e-10 0 4.42899e-10)
(4.52266e-10 7.12205e-13 0 4.39327e-10 0 4.45794e-10)
(4.54832e-10 6.25439e-13 0 4.42355e-10 0 4.48592e-10)
(4.57311e-10 5.41021e-13 0 4.45284e-10 0 4.51296e-10)
(4.59702e-10 4.58919e-13 0 4.48115e-10 0 4.53907e-10)
(4.6201e-10 3.79218e-13 0 4.50851e-10 0 4.5643e-10)
(4.64235e-10 3.01745e-13 0 4.53493e-10 0 4.58863e-10)
(4.66382e-10 2.26691e-13 0 4.56046e-10 0 4.61213e-10)
(4.6845e-10 1.53791e-13 0 4.58508e-10 0 4.63478e-10)
(4.70444e-10 8.32792e-14 0 4.60885e-10 0 4.65664e-10)
(4.72363e-10 1.48636e-14 0 4.63176e-10 0 4.6777e-10)
(4.74213e-10 -5.12411e-14 0 4.65388e-10 0 4.698e-10)
(4.75991e-10 -1.15285e-13 0 4.67517e-10 0 4.71754e-10)
(4.77706e-10 -1.77134e-13 0 4.69571e-10 0 4.73639e-10)
(4.79353e-10 -2.36948e-13 0 4.71546e-10 0 4.7545e-10)
(4.80941e-10 -2.94698e-13 0 4.73453e-10 0 4.77198e-10)
(4.82463e-10 -3.50445e-13 0 4.75283e-10 0 4.78874e-10)
(4.83932e-10 -4.04257e-13 0 4.7705e-10 0 4.80492e-10)
(4.85338e-10 -4.56119e-13 0 4.78744e-10 0 4.82042e-10)
(4.86695e-10 -5.06161e-13 0 4.80379e-10 0 4.83538e-10)
(4.87993e-10 -5.54326e-13 0 4.81945e-10 0 4.84971e-10)
(4.89245e-10 -6.00782e-13 0 4.83456e-10 0 4.86352e-10)
(4.90443e-10 -6.4544e-13 0 4.84903e-10 0 4.87674e-10)
(4.91595e-10 -6.88499e-13 0 4.86297e-10 0 4.88948e-10)
(4.927e-10 -7.29834e-13 0 4.87633e-10 0 4.90168e-10)
(4.9376e-10 -7.69678e-13 0 4.88917e-10 0 4.9134e-10)
(4.94777e-10 -8.07879e-13 0 4.9015e-10 0 4.92465e-10)
(4.95751e-10 -8.44682e-13 0 4.91331e-10 0 4.93543e-10)
(4.96688e-10 -8.79942e-13 0 4.92467e-10 0 4.94579e-10)
(4.97582e-10 -9.13876e-13 0 4.93553e-10 0 4.95569e-10)
(4.98442e-10 -9.46385e-13 0 4.94598e-10 0 4.96522e-10)
(4.99263e-10 -9.77618e-13 0 4.95596e-10 0 4.97431e-10)
(5.00052e-10 -1.00754e-12 0 4.96555e-10 0 4.98305e-10)
(5.00803e-10 -1.03624e-12 0 4.97469e-10 0 4.99138e-10)
(5.01522e-10 -1.06364e-12 0 4.98343e-10 0 4.99935e-10)
(5.02201e-10 -1.08994e-12 0 4.99171e-10 0 5.00689e-10)
(5.02837e-10 -1.11419e-12 0 4.99942e-10 0 5.01391e-10)
(5.03463e-10 -1.13789e-12 0 5.00714e-10 0 5.02093e-10)
(5.04307e-10 -1.16598e-12 0 5.01732e-10 0 5.0302e-10)
(0.0108323 -0.00260003 0 0.0177579 0 0.0107066)
(0.0108126 -0.00241875 0 0.0170048 0 0.0103706)
(0.0115306 -0.00265889 0 0.0150492 0 0.0104454)
(0.012978 -0.003519 0 0.0174629 0 0.0113435)
(0.0159025 -0.00515812 0 0.0323782 0 0.0138191)
(0.0205365 -0.00586624 0 0.0564764 0 0.0187339)
(0.0251704 -0.00588776 0 0.0754355 0 0.0241622)
(0.0273622 -0.00572758 0 0.0842023 0 0.0272982)
(0.0265572 -0.00433785 0 0.0817111 0 0.0269789)
(0.0222949 -0.00296775 0 0.0622526 0 0.0222858)
(0.015751 -0.00202911 0 0.0287206 0 0.0144411)
(0.0149771 -0.00207409 0 0.018686 0 0.0130523)
(0.0156442 -0.00210477 0 0.0204949 0 0.0138694)
(0.0165949 -0.00236203 0 0.0218594 0 0.0150762)
(0.017193 -0.00295713 0 0.0198688 0 0.0153687)
(0.0184726 -0.00378818 0 0.0184809 0 0.0160986)
(0.0219951 -0.00561365 0 0.0230603 0 0.0191759)
(0.0287284 -0.00902571 0 0.0386134 0 0.0264393)
(0.0378219 -0.0125745 0 0.0689512 0 0.0385172)
(0.0475713 -0.0126106 0 0.112448 0 0.0553834)
(0.0504641 -0.00764669 0 0.134251 0 0.0637604)
(0.048754 -0.00321122 0 0.130514 0 0.0621559)
(0.0441941 0.00263788 0 0.109419 0 0.0540903)
(0.0365969 0.00567173 0 0.0781009 0 0.0411862)
(0.0267104 0.00556572 0 0.0355582 0 0.0275662)
(0.0136423 0.00296704 0 0.0106111 0 0.0130485)
(0.00544205 0.0011245 0 0.01013 0 0.00486437)
(0.00218037 -0.00036437 0 0.0148285 0 0.00176686)
(0.00134002 -0.000860028 0 0.0129261 0 0.000999375)
(0.000679231 -0.000453784 0 0.00414734 0 0.000451556)
(0.000262751 -0.000125094 0 0.000701116 0 0.000156428)
(8.67182e-05 -2.83967e-05 0 0.000123179 0 5.06225e-05)
(2.46492e-05 -5.93327e-06 0 2.36168e-05 0 1.48902e-05)
(6.34551e-06 -1.20699e-06 0 6.71432e-06 0 4.04249e-06)
(1.51897e-06 -2.2229e-07 0 1.71668e-06 0 1.0233e-06)
(3.45047e-07 -3.83648e-08 0 3.69664e-07 0 2.44598e-07)
(7.53245e-08 -6.52893e-09 0 7.53281e-08 0 5.58135e-08)
(1.58689e-08 -1.07168e-09 0 1.47678e-08 0 1.22021e-08)
(3.24735e-09 -1.62601e-10 0 2.82051e-09 0 2.57219e-09)
(6.8184e-10 -1.9217e-11 0 5.51177e-10 0 5.52167e-10)
(1.93748e-10 2.35895e-12 0 1.41094e-10 0 1.5869e-10)
(1.16919e-10 5.96691e-12 0 7.7421e-11 0 9.58341e-11)
(1.1501e-10 6.85598e-12 0 7.4718e-11 0 9.43456e-11)
(1.28887e-10 7.78257e-12 0 8.39628e-11 0 1.06054e-10)
(1.53321e-10 9.0193e-12 0 1.01e-10 0 1.26811e-10)
(1.7974e-10 1.01973e-11 0 1.19922e-10 0 1.49463e-10)
(2.04657e-10 1.12098e-11 0 1.38164e-10 0 1.7102e-10)
(2.29569e-10 1.21462e-11 0 1.56744e-10 0 1.92746e-10)
(2.55148e-10 1.30376e-11 0 1.76151e-10 0 2.15222e-10)
(2.8152e-10 1.38875e-11 0 1.96497e-10 0 2.38566e-10)
(3.08482e-10 1.46868e-11 0 2.1764e-10 0 2.62607e-10)
(3.35844e-10 1.54295e-11 0 2.39441e-10 0 2.8718e-10)
(3.63514e-10 1.61132e-11 0 2.61834e-10 0 3.12205e-10)
(3.91437e-10 1.67376e-11 0 2.84774e-10 0 3.37633e-10)
(4.19548e-10 1.73016e-11 0 3.08212e-10 0 3.63405e-10)
(4.47784e-10 1.78061e-11 0 3.32092e-10 0 3.89464e-10)
(4.7609e-10 1.82507e-11 0 3.56368e-10 0 4.15757e-10)
(5.0442e-10 1.8637e-11 0 3.80994e-10 0 4.42239e-10)
(5.3271e-10 1.89647e-11 0 4.0591e-10 0 4.68849e-10)
(5.60919e-10 1.92367e-11 0 4.31073e-10 0 4.95541e-10)
(5.88978e-10 1.9453e-11 0 4.56414e-10 0 5.2225e-10)
(6.16901e-10 1.96173e-11 0 4.81934e-10 0 5.4898e-10)
(6.44591e-10 1.97298e-11 0 5.07541e-10 0 5.7564e-10)
(6.72096e-10 1.97943e-11 0 5.33268e-10 0 6.02266e-10)
(6.9933e-10 1.98113e-11 0 5.59026e-10 0 6.28775e-10)
(7.2631e-10 1.9784e-11 0 5.84818e-10 0 6.55172e-10)
(7.52981e-10 1.97141e-11 0 6.10583e-10 0 6.81403e-10)
(7.79342e-10 1.96045e-11 0 6.36307e-10 0 7.07459e-10)
(8.05381e-10 1.94571e-11 0 6.61968e-10 0 7.33322e-10)
(8.31075e-10 1.9274e-11 0 6.87535e-10 0 7.58967e-10)
(8.5641e-10 1.90574e-11 0 7.1298e-10 0 7.8437e-10)
(8.81369e-10 1.88096e-11 0 7.38276e-10 0 8.09511e-10)
(9.05939e-10 1.85326e-11 0 7.63397e-10 0 8.3437e-10)
(9.30107e-10 1.82288e-11 0 7.8832e-10 0 8.58929e-10)
(9.53865e-10 1.79001e-11 0 8.13023e-10 0 8.83173e-10)
(9.77204e-10 1.75485e-11 0 8.37486e-10 0 9.07086e-10)
(1.00011e-09 1.71762e-11 0 8.61689e-10 0 9.30656e-10)
(1.02259e-09 1.67849e-11 0 8.85616e-10 0 9.53871e-10)
(1.04463e-09 1.63765e-11 0 9.09248e-10 0 9.76718e-10)
(1.06622e-09 1.59528e-11 0 9.3257e-10 0 9.99188e-10)
(1.08737e-09 1.55156e-11 0 9.55565e-10 0 1.02127e-09)
(1.10806e-09 1.50666e-11 0 9.78222e-10 0 1.04296e-09)
(1.1283e-09 1.46073e-11 0 1.00053e-09 0 1.06424e-09)
(1.14809e-09 1.41393e-11 0 1.02247e-09 0 1.08511e-09)
(1.16742e-09 1.3664e-11 0 1.04404e-09 0 1.10557e-09)
(1.18629e-09 1.31829e-11 0 1.06523e-09 0 1.12562e-09)
(1.20472e-09 1.26971e-11 0 1.08603e-09 0 1.14523e-09)
(1.22269e-09 1.22081e-11 0 1.10643e-09 0 1.16443e-09)
(1.24021e-09 1.17169e-11 0 1.12643e-09 0 1.1832e-09)
(1.25728e-09 1.12247e-11 0 1.14602e-09 0 1.20154e-09)
(1.27391e-09 1.07325e-11 0 1.16519e-09 0 1.21945e-09)
(1.2901e-09 1.02413e-11 0 1.18396e-09 0 1.23693e-09)
(1.30585e-09 9.75199e-12 0 1.2023e-09 0 1.25398e-09)
(1.32116e-09 9.26548e-12 0 1.22022e-09 0 1.27061e-09)
(1.33606e-09 8.78248e-12 0 1.23771e-09 0 1.28681e-09)
(1.35053e-09 8.30374e-12 0 1.25479e-09 0 1.30259e-09)
(1.36458e-09 7.83e-12 0 1.27144e-09 0 1.31795e-09)
(1.37822e-09 7.36171e-12 0 1.28768e-09 0 1.33289e-09)
(1.39147e-09 6.89964e-12 0 1.30349e-09 0 1.34742e-09)
(1.40431e-09 6.44408e-12 0 1.31889e-09 0 1.36155e-09)
(1.41676e-09 5.99564e-12 0 1.33387e-09 0 1.37527e-09)