/*--------------------------------*- C++ -*----------------------------------*\
| =========                 |                                                 |
| \\      /  F ield         | OpenFOAM: The Open Source CFD Toolbox           |
|  \\    /   O peration     | Version:  v1912                                 |
|   \\  /    A nd           | Website:  www.openfoam.com                      |
|    \\/     M anipulation  |                                                 |
\*---------------------------------------------------------------------------*/
FoamFile
{
    version     2.0;
    format      ascii;
    class       surfaceScalarField;
    location    "40";
    object      alphaPhi0.water;
}
// * * * * * * * * * * * * * * * * * * * * * * * * * * * * * * * * * * * * * //

dimensions      [0 3 -1 0 0 0 0];
oriented        oriented;


internalField   nonuniform List<scalar> 
28285
(
-5.70761e-05
-1.04182e-05
-2.92368e-05
-1.07126e-05
-1.73344e-05
-4.02214e-06
-9.18045e-06
-4.27644e-06
-7.4308e-06
3.70389e-07
-1.11914e-05
-3.79573e-07
-1.62373e-05
-6.93293e-07
-2.12204e-05
4.7034e-06
-2.91352e-05
8.19455e-06
-2.61553e-05
3.357e-07
-1.66715e-05
-3.02886e-06
-6.52142e-06
-6.97444e-06
-1.19711e-06
-6.60183e-06
-2.50331e-06
1.33372e-06
-6.28949e-06
3.75865e-06
-8.52239e-06
6.89592e-07
-7.82151e-06
-2.20901e-06
-9.05821e-06
1.73006e-06
-1.38868e-05
9.45905e-09
-1.10049e-05
-4.88897e-06
-9.4078e-06
-4.52596e-06
-5.8714e-06
-1.66481e-06
-1.52828e-06
-5.54596e-06
1.39638e-06
-4.64699e-06
1.17434e-06
-9.60869e-07
1.83111e-07
5.35974e-07
-3.25239e-07
7.28002e-08
1.09894e-06
-1.31219e-06
1.7665e-06
-5.58328e-07
-7.71136e-08
7.8539e-07
-3.53549e-07
3.3778e-07
9.84988e-08
-5.13393e-07
4.65181e-07
-7.83558e-07
3.22996e-07
2.51281e-11
2.64597e-07
5.8658e-08
1.59477e-07
1.04861e-07
2.0783e-07
4.10627e-08
2.08208e-07
7.27094e-08
6.68205e-08
1.41395e-07
-9.38236e-09
7.61993e-08
-1.49741e-08
5.59844e-09
1.56405e-08
-3.06186e-08
1.36707e-07
-1.2106e-07
3.38889e-07
-2.02187e-07
7.77724e-07
-1.57722e-07
4.96656e-07
2.81089e-07
1.03959e-07
3.92677e-07
-1.41703e-07
1.18041e-07
-1.7972e-07
5.64616e-08
-1.33516e-07
-7.03536e-09
-5.14558e-08
-1.36273e-08
6.85258e-08
-2.34654e-08
2.20196e-07
-3.30192e-08
5.16593e-07
-5.24975e-08
7.81747e-07
-1.61249e-07
9.27111e-07
-8.25022e-08
4.13269e-07
2.53272e-08
4.17571e-08
1.9252e-08
-6.88516e-07
2.04975e-07
-1.08226e-06
3.8338e-07
-1.09561e-06
2.37096e-08
-9.66698e-07
-1.02406e-07
-8.17216e-07
-5.76365e-08
-7.78577e-07
1.68416e-08
-7.59011e-07
1.76736e-08
-7.01275e-07
-2.17081e-08
-6.37606e-07
-2.69486e-08
-5.77189e-07
-2.36737e-08
-5.16399e-07
-2.33723e-08
-4.31402e-07
-4.91807e-08
-3.17829e-07
-7.77432e-08
-2.44449e-07
5.19788e-09
-3.14155e-07
4.06828e-08
-4.31301e-07
5.18361e-08
-5.67337e-07
3.2592e-08
-6.27706e-07
4.92581e-11
-6.35234e-07
-6.64442e-09
-6.16653e-07
-2.11553e-08
-5.87383e-07
-3.18283e-08
-5.58337e-07
-3.15946e-08
-5.32744e-07
-2.81234e-08
-4.50948e-07
-5.51925e-08
-3.71336e-07
-2.1028e-08
-3.27981e-07
-1.19094e-09
-2.13144e-07
-2.87388e-08
-1.46116e-07
-1.15836e-08
-1.10078e-07
-7.01154e-09
-9.68647e-08
-8.30039e-09
-4.0255e-08
-3.58045e-08
2.94545e-08
-6.97095e-08
-1.41445e-09
3.08689e-08
-3.47208e-08
3.33063e-08
-5.37902e-08
5.55659e-08
-8.8263e-08
3.43292e-08
-8.90055e-08
-8.19363e-10
-6.09304e-08
-9.13549e-09
-9.04765e-09
-2.09298e-08
6.32541e-08
-3.60209e-08
7.9452e-08
-8.16766e-09
9.99168e-08
-1.24617e-08
1.19907e-07
-5.59897e-08
1.21891e-07
-2.65009e-08
9.78719e-08
4.21556e-09
6.84798e-09
7.11929e-08
-1.87971e-05
-5.25219e-06
-1.01029e-05
-4.82465e-06
-6.38268e-06
-2.77605e-06
-4.41325e-06
-7.50242e-06
-6.58973e-06
6.20871e-07
-1.21883e-05
1.0809e-06
-1.71524e-05
-1.34467e-06
-2.02555e-05
2.97491e-06
-8.09083e-06
3.02941e-06
-4.03176e-06
-3.39104e-09
-3.68554e-06
-7.1461e-07
-6.6607e-06
-3.09874e-06
-7.55134e-06
-4.4844e-06
-1.13684e-05
6.45179e-06
-2.33036e-05
1.7945e-05
-2.61274e-05
3.80735e-06
-2.0163e-05
-3.90989e-06
-1.20509e-05
-4.79874e-08
-7.11694e-06
-1.41892e-06
-9.47026e-06
-1.47331e-06
-1.25354e-05
-4.39212e-06
-1.19521e-05
-2.24606e-06
-6.81661e-06
-1.06835e-05
3.67862e-07
-7.54335e-06
1.19227e-06
-5.2583e-06
-1.53476e-07
2.0264e-06
-2.1269e-07
8.81666e-07
1.39132e-07
-5.36788e-07
3.66814e-07
-1.67591e-07
-8.91704e-08
5.87636e-07
-3.68369e-07
8.44906e-07
9.16622e-08
-1.87897e-07
8.05351e-07
-1.29082e-06
2.68568e-07
-5.10243e-07
1.82842e-07
3.54149e-07
1.70456e-07
1.01663e-06
2.88385e-07
1.0422e-08
4.27908e-07
1.09906e-07
3.13922e-07
7.09532e-07
2.77165e-09
8.99857e-07
-1.36843e-07
3.0925e-07
-4.37008e-08
-3.20318e-07
2.62912e-07
-1.07179e-06
3.44432e-07
-8.2153e-07
6.69675e-07
-8.64531e-10
7.20901e-07
2.29844e-07
4.74171e-07
1.9212e-07
7.70491e-08
8.15176e-08
-3.81615e-10
-7.13555e-13
-2.96187e-09
8.81427e-10
-2.27778e-10
-1.31705e-08
1.1083e-08
-4.30519e-08
3.08258e-08
-6.30467e-08
6.32649e-08
-8.335e-08
3.14826e-07
-7.45907e-08
6.45178e-07
-2.02202e-07
3.62133e-07
3.45261e-08
7.72523e-08
5.5159e-08
-1.59018e-07
6.42229e-07
-3.54416e-07
3.02944e-07
-2.83419e-07
-5.92495e-09
-1.28253e-07
-1.13844e-07
-2.12408e-08
-7.82841e-08
2.30612e-08
-2.82077e-08
9.11951e-09
7.83209e-10
-6.00432e-09
-8.41888e-13
-8.96786e-09
-3.64415e-09
-1.55467e-08
-7.30239e-09
-1.99415e-08
-1.25352e-08
-5.48353e-08
-2.88194e-08
-1.00086e-07
-3.17483e-08
-9.0693e-08
1.32481e-08
-7.88278e-08
4.16934e-08
-7.59769e-08
3.61471e-08
-6.58258e-08
9.62894e-09
-6.95316e-08
-2.73656e-09
-8.27896e-08
-4.50046e-09
-1.09907e-07
-5.82724e-09
-1.70861e-07
-9.16664e-09
-2.62006e-07
-2.50963e-09
-2.99172e-07
2.96504e-09
-2.75997e-07
-2.54797e-08
-2.0414e-07
-3.21081e-08
-7.34484e-08
-3.23646e-08
-1.56639e-08
-3.11359e-08
-6.03135e-09
-4.26453e-09
-4.80722e-09
-7.79756e-09
-4.89958e-09
-7.80399e-09
-7.39147e-09
-8.28864e-09
1.03874e-08
-1.68628e-08
5.99236e-08
-5.29959e-09
-6.97749e-09
7.01594e-08
-9.10328e-08
1.09505e-07
-1.86749e-08
1.49998e-07
-1.56878e-08
-3.90516e-09
-1.29799e-08
-1.17447e-08
-2.19437e-09
-3.1814e-08
1.31218e-08
-4.84912e-08
2.7714e-08
-7.30449e-09
4.02553e-08
-2.2413e-08
9.36103e-08
-1.2399e-07
1.20387e-07
-6.93669e-08
1.41289e-07
8.12729e-12
3.18035e-09
1.37688e-07
-3.94211e-06
-4.07861e-06
-2.97738e-06
-3.76964e-06
-3.98667e-06
-1.7935e-06
-7.95578e-06
-9.48596e-06
-1.70643e-05
4.08198e-06
-1.72642e-05
8.17255e-07
-5.20184e-06
-1.38665e-05
-6.21077e-06
7.50798e-07
-2.4166e-06
1.85705e-06
-1.97703e-06
4.71415e-09
-2.00552e-06
-7.06143e-07
-1.02056e-06
-4.04927e-06
-6.29235e-06
-2.61983e-06
-1.22796e-05
1.31092e-05
-2.02019e-05
2.51971e-05
-1.70301e-05
1.30569e-06
-1.05444e-05
-6.09018e-06
-2.87139e-06
3.70838e-07
-2.44356e-06
-6.29521e-07
-3.36035e-06
-2.89742e-06
-7.35951e-06
-2.55536e-06
-8.30231e-06
-7.29446e-07
-2.19908e-07
-5.34343e-06
1.1204e-06
-2.7707e-06
3.36764e-06
-1.09521e-06
2.99894e-08
6.04223e-06
-3.38174e-08
1.34919e-06
1.27084e-07
-8.40706e-07
1.83017e-07
-2.12579e-07
-1.98911e-08
3.6765e-07
-4.59649e-07
1.60121e-06
1.96668e-07
-4.103e-09
9.90509e-07
-2.03005e-06
9.88016e-07
-4.53604e-07
6.02425e-07
2.4807e-07
4.60412e-07
7.01581e-07
4.9628e-07
-2.39207e-08
7.33182e-07
-4.79232e-09
6.57204e-07
1.1275e-06
1.20882e-07
1.78793e-06
-1.97743e-07
6.87258e-07
8.36971e-08
-6.48085e-07
8.53486e-07
-1.79525e-06
7.11261e-07
-1.30643e-06
6.10116e-07
-5.40218e-08
7.83778e-07
1.30292e-07
3.29817e-07
1.41855e-07
1.43066e-08
2.38712e-08
-1.74582e-09
1.15157e-08
-5.25066e-09
1.3938e-09
-2.54454e-09
-3.90752e-08
9.14364e-09
-7.94837e-08
2.54962e-08
-9.32211e-08
4.54496e-08
-1.1119e-07
7.93245e-08
-1.16392e-07
3.95796e-07
-2.33637e-07
2.14966e-07
1.3049e-09
5.32561e-08
1.86229e-07
-1.43019e-08
9.00205e-07
-7.57482e-08
3.73562e-07
-7.13813e-08
-8.9409e-11
-3.67263e-08
-8.82345e-08
3.65829e-08
-2.52659e-07
9.16435e-08
-1.84572e-07
4.71048e-08
2.24199e-13
3.90942e-08
1.98736e-09
2.51303e-08
3.64859e-09
-4.79783e-09
5.50196e-09
-2.47358e-08
3.55408e-09
-4.33273e-08
-1.0281e-08
-4.69431e-08
-2.23787e-08
-2.90282e-08
1.41616e-12
-4.75626e-08
6.51186e-08
-6.48583e-08
4.89158e-08
-7.02751e-08
2.0122e-08
-7.06487e-08
-6.79911e-09
-6.36535e-08
-6.69189e-09
-5.3004e-08
-2.0612e-08
-4.33205e-08
-1.43331e-08
-3.25036e-08
-2.19853e-08
-2.87827e-08
-2.01496e-14
-2.6788e-08
-3.11908e-09
-3.07723e-08
-6.99482e-09
-2.59847e-08
-1.64533e-08
-7.11338e-09
-1.27935e-08
-8.06619e-09
-2.45532e-10
-5.72737e-09
-1.36198e-08
-1.88502e-09
-1.51362e-08
-1.19702e-09
-2.77671e-12
1.93862e-09
-1.7021e-08
3.01116e-08
-6.61852e-09
4.93746e-08
2.34194e-08
-5.23079e-08
1.13157e-07
-3.47615e-08
6.3094e-08
-2.28101e-08
-7.22694e-09
-2.60812e-08
-2.26276e-08
-1.09266e-09
-1.49561e-07
1.09864e-08
-5.84584e-08
1.39765e-08
-1.24065e-08
1.92569e-08
-3.69183e-08
8.98915e-08
-1.89259e-07
9.87342e-08
-4.61617e-08
1.14001e-07
8.82522e-09
1.1765e-08
1.00421e-07
-4.5555e-06
-5.52808e-06
-2.42681e-06
-5.15257e-06
-3.90338e-06
-1.06268e-06
-1.30853e-05
-2.69718e-06
-1.94325e-05
6.9472e-06
-1.29816e-05
3.23842e-06
-1.19947e-06
-5.33324e-06
3.04588e-08
-1.07158e-06
-4.95737e-07
1.42051e-06
-1.93384e-06
7.26516e-07
-1.5986e-06
-1.06445e-06
-4.70525e-07
-5.19737e-06
-4.4629e-06
-1.40375e-06
-1.44883e-05
7.09819e-06
-1.46335e-05
2.60125e-05
-8.26751e-06
2.25297e-08
-4.62109e-06
-3.79724e-06
-2.42543e-06
2.08915e-07
-2.84915e-06
-1.76681e-06
-2.22525e-06
-7.17563e-06
-3.28788e-06
-1.13744e-06
-1.44356e-06
-3.46005e-07
1.11773e-07
-1.79295e-06
6.50868e-07
-3.2828e-06
1.2834e-06
-2.64602e-07
2.96107e-08
1.10111e-05
-3.20011e-07
2.94519e-06
1.57144e-07
-1.57334e-06
4.13203e-08
-1.6063e-07
-8.37379e-08
5.56583e-07
-6.17621e-07
2.1221e-06
2.52822e-07
-3.84136e-06
5.6203e-07
-5.97622e-07
1.43202e-06
-1.26899e-06
5.53579e-07
1.57836e-07
2.19506e-07
8.79584e-08
1.84797e-07
-7.74683e-08
1.65112e-07
1.70329e-08
3.75659e-07
2.60799e-07
6.00708e-08
2.09471e-06
-1.3929e-07
8.95423e-07
4.08386e-08
-2.22393e-07
2.96655e-07
-3.34453e-07
1.08494e-06
-2.71856e-06
2.97683e-07
-2.06682e-07
2.41699e-07
3.4874e-09
1.15339e-07
4.32353e-08
1.28926e-08
2.67159e-08
-5.18387e-09
2.51659e-08
-3.04555e-08
6.56009e-08
-1.35423e-09
-1.40384e-07
5.33256e-08
-1.36846e-07
1.12863e-07
-1.14041e-07
1.67897e-07
-1.29241e-07
1.97148e-07
-1.60459e-07
5.6785e-07
-3.55251e-07
1.97519e-07
4.21749e-07
4.66731e-08
3.31218e-07
2.08132e-08
1.30423e-06
-5.16471e-08
9.12972e-07
-1.65196e-07
8.63901e-08
-4.90769e-08
-4.44069e-07
1.33439e-07
-3.36697e-07
9.79168e-08
-3.31121e-07
1.5297e-08
-1.30093e-09
1.34869e-08
3.47193e-14
2.18351e-08
2.93766e-09
3.18649e-09
8.40462e-09
-7.90448e-09
4.98925e-09
-1.14132e-08
-2.78239e-09
-1.97605e-08
-3.17376e-08
-5.07792e-08
2.91464e-08
-7.77079e-08
1.17649e-07
-1.11613e-07
1.55161e-07
-1.55643e-07
5.88401e-08
-1.51795e-07
-8.45903e-09
-1.48143e-07
-1.98912e-08
-1.35651e-07
-2.17169e-08
-7.23437e-08
-4.91688e-08
-1.62108e-08
-3.44749e-08
-5.68015e-09
-4.43098e-10
-5.6217e-09
-4.02054e-09
-6.58173e-09
-6.88264e-09
-2.12764e-08
-6.81929e-09
-1.4677e-08
-1.9605e-09
-3.29367e-08
6.09443e-10
-2.24905e-08
-3.98859e-08
-8.39038e-09
-3.02861e-08
-2.12839e-09
-1.70281e-08
1.39629e-10
-2.19659e-08
3.27218e-09
-1.24369e-08
1.46733e-08
9.76018e-09
1.96756e-08
3.57592e-08
-2.47525e-08
4.64396e-08
-4.98302e-08
1.40587e-09
-8.39755e-08
-7.21536e-08
-6.50482e-09
-4.86236e-07
1.61052e-08
-6.47295e-08
1.95035e-08
-3.35516e-08
7.12735e-08
-9.31137e-08
6.75836e-08
-2.00135e-07
3.75242e-08
-1.53156e-08
6.95583e-08
3.0755e-09
1.0266e-08
6.92644e-08
-8.46918e-06
-1.20702e-05
-3.2819e-06
-8.62714e-06
-2.69585e-06
-9.02986e-07
-1.41384e-05
-3.84191e-06
-1.57038e-05
4.98588e-06
-4.30467e-06
1.00868e-06
-1.13212e-06
-5.21108e-07
-2.30628e-08
-1.10899e-06
-4.51197e-07
1.83427e-06
-5.59019e-06
5.87989e-06
-5.04507e-06
-6.05649e-06
-1.09437e-06
-1.84049e-05
-3.36155e-07
-4.90792e-06
-4.87246e-06
5.93049e-06
-7.8954e-06
8.81406e-06
-3.91506e-06
-9.32432e-07
-9.73154e-07
-2.63634e-06
-1.01386e-06
1.51589e-07
-8.92242e-06
-4.73514e-07
-8.28774e-06
-1.27883e-05
-1.26157e-06
-3.96311e-06
-4.09389e-07
-9.2718e-07
6.97946e-08
-2.27175e-06
4.52325e-07
-3.66571e-06
5.07742e-07
-1.03275e-07
8.15135e-08
1.16421e-05
-3.30172e-07
3.15211e-06
5.37581e-07
-2.98903e-06
1.35784e-07
-1.57326e-07
-1.06303e-07
7.34796e-07
-9.78276e-07
3.0002e-06
5.52541e-08
-1.05085e-05
1.05337e-07
-6.19638e-07
9.77678e-07
-7.03202e-07
2.65082e-07
1.14182e-07
7.49286e-08
2.86704e-07
8.98697e-08
-7.9346e-08
6.938e-08
4.76048e-08
8.47823e-08
3.0854e-07
1.27299e-07
7.91319e-07
-1.79197e-08
3.17311e-07
-1.68778e-08
-1.59819e-07
7.16967e-08
-4.26594e-07
1.09204e-06
-2.00315e-06
1.09557e-06
-7.18035e-07
7.59911e-09
2.49176e-07
2.60702e-08
-7.92204e-10
8.28348e-09
4.62206e-08
-8.55002e-09
2.7627e-07
-6.42069e-08
1.27859e-07
-2.07168e-08
-1.77522e-07
7.2183e-08
-1.21505e-07
1.69677e-07
-8.66022e-08
2.87395e-07
-1.04228e-07
4.05272e-07
-9.55423e-08
5.46789e-07
-2.46556e-07
2.3335e-07
7.20945e-07
5.49934e-08
5.02877e-07
3.76482e-08
1.55744e-06
-4.31003e-08
1.03745e-06
-2.21385e-07
2.37462e-07
-3.15109e-08
-6.3547e-07
3.27962e-07
-5.40102e-07
3.2698e-08
-2.24612e-08
3.77061e-09
-6.31273e-10
4.05326e-09
6.17009e-13
1.12437e-08
1.10771e-09
2.60608e-09
1.7691e-08
-3.55745e-09
1.34355e-09
-4.02751e-09
9.01144e-11
-8.85908e-08
-2.06433e-08
-1.61103e-07
2.64953e-08
-2.16256e-07
2.32462e-07
-2.71962e-07
1.51207e-07
-2.49277e-07
7.68679e-08
-2.52721e-07
-2.11964e-08
-2.31199e-07
-2.5239e-08
-2.17674e-07
-5.12348e-08
-1.81518e-07
-6.94854e-08
-5.59237e-08
-5.56524e-08
-2.31365e-08
-1.98534e-09
-6.60698e-09
-9.61816e-09
-5.6419e-09
-8.69073e-09
-1.11822e-08
-2.47619e-09
-1.76526e-08
8.63033e-12
-4.57157e-08
4.77332e-09
-3.1269e-08
-4.56771e-08
-1.75177e-08
-5.26929e-08
-5.6965e-09
-3.68207e-08
3.78265e-09
-5.58979e-08
3.67355e-09
-2.60257e-08
5.0584e-09
2.22457e-09
7.94128e-09
1.4621e-08
-3.36352e-09
2.40247e-08
-8.09078e-08
2.05753e-08
-1.22004e-07
-1.69879e-07
-4.59387e-09
-6.03657e-07
2.4138e-08
-6.98748e-08
5.41252e-08
-4.89006e-08
1.0619e-07
-1.30437e-07
2.79081e-08
-1.43349e-07
1.07102e-08
-1.0365e-08
1.93893e-08
1.43757e-09
3.22754e-09
2.67824e-08
-1.2494e-05
-5.61005e-06
-5.22366e-06
-1.25875e-05
-5.35843e-06
-4.13483e-06
-9.38429e-06
-7.32111e-06
-1.0302e-05
4.07795e-06
-3.36208e-06
4.65285e-08
-2.71233e-06
-8.02358e-06
-5.71093e-07
-3.13261e-06
-9.56737e-07
2.23429e-06
-8.14992e-06
1.27347e-05
-7.39166e-06
-7.19496e-06
-2.63383e-06
-2.27825e-05
1.29279e-06
-1.64649e-05
7.72409e-07
-1.14513e-06
-2.85838e-06
2.09369e-06
-3.11379e-06
2.72619e-07
-1.04313e-06
4.49718e-08
-2.68901e-06
5.33494e-07
-8.99085e-06
-2.87329e-06
-9.09206e-06
-1.4017e-05
-8.75958e-07
-1.08493e-05
-3.44398e-07
-8.07563e-07
-1.0335e-07
-2.51318e-06
8.60454e-07
-4.16874e-06
3.58473e-07
-1.37324e-08
7.14014e-09
1.17887e-05
-6.2313e-07
1.79386e-06
7.06552e-07
-5.59101e-06
1.4996e-08
-4.42191e-08
-4.06035e-07
1.83381e-06
-1.45735e-06
6.60278e-06
-5.49778e-08
-1.17473e-05
6.3492e-08
-7.19931e-07
2.86276e-07
-4.17679e-07
1.95609e-07
2.12219e-07
7.35526e-08
4.20853e-07
2.58104e-07
-9.9828e-08
2.60716e-07
2.12908e-07
2.08473e-08
6.1062e-07
-6.03213e-08
2.31357e-07
-7.15344e-08
4.81768e-08
-9.50766e-08
-2.13338e-07
3.85598e-08
-6.47913e-07
3.8994e-07
-2.27849e-06
1.14751e-06
-1.98901e-06
2.2e-07
4.4978e-07
2.65771e-08
9.97427e-08
5.35739e-09
6.57223e-08
-8.56776e-08
1.15166e-06
-3.91494e-08
1.96208e-07
-3.70239e-09
-3.81596e-08
6.7216e-09
-7.62195e-11
1.51828e-08
-6.30556e-12
2.52056e-08
-1.29658e-07
3.49854e-08
-5.63196e-08
3.89146e-07
-2.43626e-07
4.40635e-07
9.83572e-07
6.93478e-08
9.07185e-07
5.8908e-08
5.53451e-07
-5.77645e-08
1.15248e-06
-1.89759e-07
3.67951e-07
1.0702e-07
-9.33905e-07
1.14314e-08
-4.05934e-07
3.03094e-09
-4.93605e-09
2.63092e-09
-1.96862e-10
2.68777e-09
1.13087e-09
7.26611e-09
3.74292e-10
4.27483e-09
5.3926e-08
-2.07974e-09
-5.45456e-10
-4.63966e-09
2.65007e-09
-3.77436e-08
-6.53478e-09
-1.14637e-07
2.46441e-08
-1.48189e-07
1.40203e-07
-1.17888e-07
1.10017e-07
-7.04001e-08
7.67718e-09
-7.04868e-08
-2.66303e-08
-6.52499e-08
-3.51059e-08
-4.52668e-08
-4.91019e-08
-2.79364e-08
-6.87955e-08
-2.94759e-08
-3.70692e-08
-3.00452e-08
-5.5354e-09
-1.72608e-08
-1.82832e-08
-1.3084e-08
-1.15915e-08
-1.09517e-08
-4.90453e-09
-3.00404e-08
1.8869e-09
-2.02316e-08
9.48574e-09
-7.38826e-09
-7.87172e-09
-2.06472e-08
-7.77921e-09
-9.56707e-09
-1.78958e-08
1.68533e-09
-3.89665e-08
8.69389e-09
-3.52736e-08
4.38282e-09
-4.2252e-10
3.86508e-09
1.24402e-08
1.94149e-09
1.34188e-08
-1.02939e-08
6.15668e-09
-9.32257e-08
-1.24924e-07
-1.37721e-10
-6.96734e-07
1.19966e-08
-1.45853e-07
7.54006e-08
-9.75625e-08
6.71986e-08
-1.0247e-07
6.14314e-09
-8.93076e-08
4.79613e-09
-1.65157e-08
3.39294e-09
6.83319e-10
1.25375e-09
3.21127e-09
-3.92215e-06
-5.77226e-06
-7.70334e-06
-8.69177e-06
-6.38867e-06
-9.44874e-06
-5.36629e-06
-1.58416e-05
-6.73363e-06
5.45605e-06
-7.81887e-06
-3.94932e-08
-6.23139e-06
-3.19937e-05
-1.06006e-06
-3.0886e-06
-2.05254e-06
3.21239e-06
-7.48683e-06
1.58962e-05
-3.64715e-06
-2.5506e-06
-3.43553e-06
-6.90159e-06
-5.26834e-08
-3.51631e-06
7.50377e-07
9.57949e-07
-1.59247e-06
1.12556e-06
-2.43208e-06
1.52207e-07
-9.43617e-07
-4.78304e-07
-2.5185e-06
8.39019e-07
-6.011e-06
1.01066e-07
-5.83964e-06
-3.65875e-06
-1.95523e-06
-1.90325e-06
-6.46771e-07
-9.67765e-07
1.97031e-07
-6.85492e-06
1.27895e-06
-4.8035e-06
5.82883e-07
4.30426e-08
1.15656e-06
1.14198e-05
2.06382e-07
5.66609e-07
4.89408e-07
-6.1112e-06
2.20925e-07
-2.16891e-09
-1.21773e-06
7.86767e-06
-1.48483e-06
7.04267e-06
-1.85174e-08
-1.3523e-05
6.12402e-08
-7.70965e-07
1.71228e-07
-5.09276e-07
1.10917e-07
3.00329e-07
3.25827e-08
9.71606e-07
4.0204e-07
-4.69874e-07
4.24366e-07
1.9117e-07
4.99063e-08
1.5283e-06
-4.73123e-08
3.37931e-07
-3.99461e-07
3.9097e-07
-3.79138e-07
-7.08204e-07
5.39524e-08
-2.61809e-06
2.8639e-07
-2.43361e-06
9.31766e-07
-2.94302e-06
5.70569e-07
3.58543e-07
5.51891e-08
3.93966e-07
9.3493e-09
1.1322e-07
-5.23255e-09
1.228e-06
-5.02904e-09
1.49137e-08
1.86612e-09
-1.16401e-07
2.42729e-08
-4.2047e-07
4.36587e-08
-4.40712e-07
2.82942e-08
-2.89274e-07
3.1023e-08
-7.86292e-08
1.89676e-07
-1.07116e-07
5.35718e-07
7.70408e-07
7.22905e-08
2.54838e-06
6.75162e-08
9.156e-08
-1.40379e-08
3.73299e-07
-5.54001e-08
4.07669e-07
2.2877e-07
-1.03036e-06
6.59447e-09
-2.17152e-07
2.21187e-09
-5.53446e-10
2.08107e-09
-6.60612e-11
1.88711e-09
1.32484e-09
3.238e-09
9.09375e-10
9.72805e-09
1.44572e-07
-2.46118e-09
5.39877e-09
-5.52287e-09
5.71174e-09
-1.09142e-08
-6.7658e-12
-4.31495e-08
1.45117e-08
-2.91458e-08
2.10406e-08
-3.68985e-08
1.16766e-07
-7.57308e-08
4.74262e-08
-7.78626e-08
-2.55495e-08
-6.87372e-08
-3.94492e-08
-5.28738e-08
-4.73598e-08
-2.2576e-08
-1.12155e-07
-1.44596e-08
-2.81266e-08
-1.6043e-08
-3.03437e-09
-2.13073e-08
-8.2286e-09
-1.66787e-08
-1.28014e-08
-8.06068e-09
-1.0111e-08
-1.74012e-08
1.23013e-09
-2.05813e-09
1.9926e-09
-2.29883e-09
-7.75198e-09
-1.79518e-09
-8.12193e-09
-1.48656e-09
-6.50162e-09
1.88791e-09
-9.2259e-09
1.46572e-08
-5.03116e-08
1.46118e-08
-1.23196e-08
3.17748e-09
2.12196e-08
1.99772e-09
1.46015e-08
-5.82623e-09
6.74066e-09
-6.14908e-08
-5.90267e-08
-2.13379e-09
-2.39349e-07
1.46723e-08
-3.58649e-07
4.92349e-08
-9.57772e-08
1.58747e-08
-6.94828e-08
1.7837e-08
-6.87899e-08
2.00562e-08
-1.45916e-08
6.42812e-09
2.74555e-09
3.55709e-09
1.96734e-09
-3.4295e-06
-7.05252e-06
-3.08553e-06
-9.01105e-06
-6.30184e-06
-4.71808e-06
-5.0117e-06
-1.28652e-05
-3.93981e-06
4.36254e-06
-5.87495e-06
-7.93087e-06
-7.63085e-06
-3.02378e-05
-1.18277e-06
-5.52566e-06
-3.0772e-06
4.74879e-06
-1.98665e-06
1.79965e-05
-7.49975e-07
1.33472e-09
-8.68295e-08
-9.38455e-06
4.16969e-07
-2.0108e-06
1.98253e-06
9.67114e-07
-3.47984e-07
2.06098e-06
-3.40347e-06
6.58325e-07
-2.38271e-06
-1.34846e-06
-4.3538e-06
5.19613e-06
-2.64566e-06
-7.50883e-07
-7.62472e-07
-2.31861e-06
-3.87198e-07
-1.16185e-06
-4.37302e-07
-9.40856e-07
1.75131e-07
-2.24656e-06
6.0824e-07
-2.03698e-06
9.47147e-07
3.94342e-07
8.77577e-07
5.21198e-06
1.39205e-07
-3.95471e-10
5.54219e-07
-7.40728e-06
1.67607e-07
4.01428e-07
-1.32964e-06
1.84235e-05
-1.47624e-06
6.99806e-06
-1.87481e-08
-1.48078e-05
2.81034e-08
-8.54639e-07
1.1371e-07
-5.66372e-07
4.60262e-08
3.86374e-07
2.50931e-08
3.08252e-06
2.69246e-07
-3.19172e-07
1.42819e-07
2.17169e-08
1.59564e-07
1.69136e-06
-4.29653e-08
5.3021e-07
-6.01475e-07
8.92415e-07
-5.80967e-07
-6.79409e-07
1.58253e-07
-2.64755e-06
5.38573e-07
-3.92151e-06
8.15519e-07
-2.17195e-06
1.01586e-06
2.84685e-07
6.38038e-08
9.08612e-07
8.37106e-09
1.67094e-07
-2.00718e-10
1.17481e-06
-3.63908e-09
1.7672e-08
1.33124e-08
-3.04007e-07
1.22094e-07
-8.97829e-07
2.192e-07
-1.09083e-06
1.50463e-07
-1.26753e-06
3.76854e-08
-1.07133e-07
8.22896e-08
-9.9941e-08
4.74323e-07
5.15551e-07
3.72149e-07
2.65055e-06
4.16917e-08
5.34049e-07
1.05181e-08
2.06958e-07
1.84204e-07
2.32499e-07
5.57582e-08
-8.48751e-07
4.46453e-09
-2.55466e-07
2.41841e-09
-2.8499e-08
2.19356e-09
1.58787e-10
1.87481e-09
1.64359e-09
1.53615e-09
2.20269e-09
1.69773e-08
1.05624e-07
-1.67597e-09
1.06605e-08
-7.82139e-09
1.18572e-08
-8.74369e-09
2.7696e-13
-1.16603e-08
1.65078e-08
-4.36347e-08
7.20163e-08
-1.13586e-07
1.64715e-07
-1.81405e-07
1.16483e-07
-1.74386e-07
-3.49977e-08
-1.74719e-07
-3.66865e-08
-1.08155e-07
-7.35141e-08
-1.87157e-08
-2.40336e-08
-9.75579e-09
-2.02839e-08
-5.7404e-09
-3.96336e-09
-5.20504e-09
-7.04387e-09
-4.17916e-09
-1.22227e-08
-4.36363e-09
-8.58043e-09
-6.79427e-09
9.87292e-10
-2.76177e-09
1.01185e-10
-2.2578e-09
-7.7749e-09
-1.36305e-09
-8.86835e-09
-6.80537e-10
-7.1871e-09
4.49105e-11
-9.30195e-09
7.81029e-09
-1.94983e-08
2.57421e-08
-1.21956e-08
7.29655e-09
4.78448e-08
2.45623e-09
1.94389e-08
-1.18141e-09
1.03812e-08
-1.19179e-08
-3.42104e-08
2.12652e-09
-2.39266e-07
5.50007e-08
-7.13172e-07
6.9079e-09
-8.66261e-08
7.95214e-11
-6.17633e-08
1.39837e-08
-6.03936e-08
2.24381e-08
-1.8944e-08
1.59509e-08
4.39346e-10
7.692e-09
3.4933e-09
-3.36882e-06
-8.02759e-06
-2.44951e-06
-9.94688e-06
-2.26513e-06
-4.87552e-06
-8.6819e-06
-6.12125e-06
-8.97035e-06
2.11231e-06
-9.74158e-06
-7.15961e-06
-1.0421e-05
-2.95584e-05
-1.35204e-06
-1.45946e-05
-2.26202e-06
9.11101e-06
-2.07718e-06
1.69426e-05
-1.89907e-06
-6.62001e-06
-2.86786e-07
-3.11872e-05
2.48178e-08
-2.146e-06
1.00625e-06
1.29926e-08
9.15414e-08
2.97315e-06
-2.46261e-06
2.12732e-07
-6.73566e-06
-1.54526e-06
-9.03949e-06
9.64341e-06
-6.05408e-06
-3.69925e-06
-6.72384e-07
-1.56409e-06
-4.73257e-07
-9.5282e-07
-2.03551e-07
-1.14013e-06
2.8501e-08
-2.40579e-06
3.1645e-07
-2.2548e-06
7.311e-07
1.39425e-06
2.37616e-07
1.16513e-06
3.27869e-08
1.60219e-07
1.47792e-06
-1.0163e-05
1.10005e-07
2.1484e-06
-6.32445e-07
1.99514e-05
-1.71735e-06
3.55487e-06
2.37895e-07
-1.70835e-05
9.22216e-08
-7.34877e-06
2.52483e-08
-4.81008e-07
2.96144e-08
2.06324e-06
1.99498e-07
4.58259e-06
1.46264e-07
-2.65264e-07
1.20817e-07
4.71647e-08
2.03261e-07
1.44026e-06
-1.45502e-08
1.22826e-06
-5.83683e-07
2.20552e-06
-5.2462e-08
-1.05832e-06
4.72698e-08
-4.13182e-07
3.12861e-07
-1.05822e-06
6.45126e-07
-1.14944e-06
9.01073e-07
1.61193e-07
7.67888e-07
1.16828e-06
2.52893e-08
7.77455e-07
6.79958e-09
4.02274e-07
1.71928e-10
2.32923e-08
3.19222e-08
-5.41866e-07
1.54162e-07
-1.02087e-06
3.07712e-07
-1.24428e-06
4.59327e-07
-1.41994e-06
8.83027e-08
-4.56908e-07
6.18306e-08
-2.0784e-08
3.06531e-07
3.35228e-07
4.58532e-07
2.49855e-06
1.23881e-07
1.32777e-06
2.23198e-08
2.14982e-07
2.32453e-07
7.62108e-08
9.35752e-08
-5.29904e-07
1.02174e-07
-2.96746e-07
2.48965e-08
-9.68263e-08
3.47184e-09
1.08132e-09
2.54893e-09
2.5665e-09
1.58058e-09
3.16881e-09
2.21218e-08
1.0859e-07
-1.08946e-09
1.42977e-08
-1.95012e-08
3.48455e-08
-2.11179e-08
-3.39029e-09
-5.98725e-08
8.08899e-08
-1.45791e-07
2.59276e-07
-1.4402e-07
1.89739e-07
-1.37556e-07
8.32235e-08
-1.24767e-07
-1.53338e-08
-6.45664e-08
-1.67007e-08
-5.08174e-09
-2.08263e-08
-6.218e-09
-1.13601e-08
-8.70861e-09
-1.59397e-08
-6.53009e-09
-3.21e-09
-5.83551e-09
-4.30608e-09
-3.80136e-09
-1.08309e-08
-2.49132e-09
-6.47135e-09
-3.55281e-09
8.0811e-09
-3.38968e-09
3.53889e-09
-2.15917e-09
-9.47538e-09
-1.17501e-09
-9.37145e-09
-5.9116e-10
-7.62262e-09
9.48323e-11
-9.99092e-09
2.56938e-09
-1.22538e-08
1.74878e-08
-2.32629e-08
2.46127e-08
7.13022e-08
3.00927e-09
4.39549e-08
2.86211e-10
1.31014e-08
-4.92694e-09
-1.80775e-08
1.38053e-08
-5.83053e-07
5.99004e-08
-7.85243e-07
7.9871e-10
-5.71441e-08
2.59781e-08
-1.16858e-07
6.32076e-09
-3.27958e-08
7.9954e-09
-2.15336e-09
1.68756e-08
3.89255e-10
3.77531e-10
6.48683e-09
-3.30602e-06
-8.78183e-06
-3.14895e-06
-1.54457e-05
-6.44431e-06
-1.44786e-05
-6.77761e-06
-7.68571e-06
-4.96627e-06
1.33847e-06
-8.14048e-06
-6.64213e-06
-7.33695e-06
-3.03619e-05
-8.26376e-06
-1.06594e-05
-1.26447e-05
3.40777e-05
-7.17302e-06
4.08001e-05
-7.37591e-06
-1.15818e-05
-5.04911e-07
-5.05851e-05
-1.10985e-07
-2.53316e-06
6.24389e-07
-5.45179e-07
1.8836e-07
3.41673e-06
-2.04513e-06
2.9695e-06
-7.30313e-06
-4.76892e-06
-9.45951e-06
1.23709e-05
-8.2146e-06
-5.51522e-06
-7.73029e-07
-3.60899e-06
-9.50244e-07
-3.55658e-07
-9.44721e-08
-5.24781e-06
-4.00717e-08
-2.38977e-06
2.44385e-07
-2.46644e-06
4.02987e-07
1.89498e-06
7.02332e-08
2.47371e-09
1.06053e-07
8.38632e-08
1.71445e-06
-1.17656e-05
1.56304e-07
4.49822e-06
-5.02001e-07
2.06107e-05
-1.27692e-06
3.81367e-07
1.92592e-07
-1.07611e-05
-7.99862e-09
-1.20367e-05
-1.14662e-10
-4.61023e-07
1.02171e-07
5.73438e-06
1.65042e-07
1.82479e-06
1.68601e-07
-9.14024e-07
9.32919e-08
1.22473e-07
1.99481e-07
4.47858e-07
6.0576e-09
2.18842e-06
-5.96738e-07
4.85938e-06
-2.74552e-08
-2.4289e-07
1.54746e-09
-4.42741e-07
8.62904e-08
-1.14241e-06
3.311e-07
-7.71331e-07
6.819e-07
5.53559e-08
5.10196e-07
4.52521e-07
1.63226e-08
1.18997e-06
3.85968e-09
1.68944e-07
-8.69486e-09
1.72905e-07
1.80632e-08
-5.69353e-07
1.5992e-07
-1.16272e-06
3.03068e-07
-1.38815e-06
4.69829e-07
-1.58661e-06
3.77755e-07
-1.47875e-06
8.94159e-08
-7.60394e-08
1.19343e-07
1.71447e-07
2.35574e-07
3.14737e-06
2.85817e-07
2.8306e-06
4.28717e-08
4.7042e-07
1.22858e-07
1.37764e-09
7.70858e-08
-3.11551e-07
1.09552e-07
-3.59401e-07
1.19871e-07
-1.28065e-07
3.98588e-09
1.34347e-08
2.12273e-09
4.42966e-09
1.67104e-09
3.99101e-09
1.75762e-08
4.72097e-08
1.89568e-10
1.15111e-08
-6.71053e-08
1.2627e-07
-8.70319e-08
5.72527e-08
-1.37185e-07
2.81845e-07
-1.26809e-07
2.78316e-07
-9.11455e-08
1.05569e-07
-2.01873e-08
1.51069e-08
-1.39924e-08
-6.29912e-09
-9.36966e-09
-5.27206e-09
-4.20432e-09
-6.56386e-09
-5.30774e-09
-1.03197e-08
-9.6854e-09
-1.0847e-08
-9.01831e-09
-1.34223e-09
-6.49037e-09
-7.60708e-09
-4.34755e-09
-9.54094e-09
-4.08085e-09
-3.31213e-09
-7.82448e-09
1.97808e-08
-4.68515e-09
9.64306e-09
-2.01212e-09
-1.76927e-08
-1.22485e-09
-1.00105e-08
-8.7986e-10
-7.97071e-09
7.37897e-11
-1.99165e-08
4.75277e-09
-2.41142e-08
9.10433e-09
-3.49262e-08
2.86987e-08
4.59619e-08
4.35198e-09
7.4305e-08
7.50765e-10
1.67055e-08
-1.2815e-08
4.42715e-10
2.60962e-08
-9.71651e-07
5.9135e-08
-8.43681e-07
6.46101e-09
-5.76127e-09
1.59829e-08
-4.1681e-08
1.62888e-09
-5.00822e-09
8.35199e-10
-1.44182e-09
7.56006e-09
8.56663e-11
5.40246e-09
7.02705e-09
-6.54056e-06
-1.63875e-05
-1.19231e-05
-8.81765e-05
-1.37467e-05
-3.839e-05
-4.52647e-06
-2.28601e-05
-2.22331e-06
-9.70064e-07
-4.62923e-06
-1.66085e-06
-6.43653e-06
-1.75508e-05
-1.00003e-05
-4.28421e-06
-8.88699e-06
4.29325e-05
-2.0169e-06
1.8174e-05
-5.44001e-06
-9.09526e-06
-3.06125e-07
-5.51811e-05
1.20024e-07
-2.80615e-06
5.47385e-07
-9.67528e-07
1.34441e-07
4.00904e-06
-2.40252e-06
7.65251e-06
-5.49287e-06
2.11868e-09
-6.16626e-06
5.87594e-06
-1.15677e-05
-4.58395e-06
-4.99974e-07
-1.20761e-05
-7.5454e-07
-9.71289e-07
-2.46763e-08
-1.18377e-05
-9.11259e-08
-5.23834e-06
1.54441e-07
-2.63877e-06
5.85023e-07
1.34241e-06
5.95488e-08
3.64458e-07
1.25005e-07
2.68074e-08
2.17176e-06
-1.38061e-05
4.37019e-07
5.48658e-06
3.1061e-07
2.06148e-05
1.0475e-07
1.18357e-08
1.1011e-07
-4.75082e-06
-2.9727e-09
-1.17582e-05
3.5588e-09
-4.35209e-07
9.03432e-07
4.84076e-06
1.39989e-07
1.19985e-06
3.11398e-07
-1.08868e-06
1.19851e-07
8.32476e-08
1.12239e-07
4.59986e-07
7.68272e-08
3.60749e-06
-1.26854e-07
5.09897e-06
-4.72331e-08
-1.3783e-07
2.23224e-09
-4.9165e-07
6.51876e-08
-1.20592e-06
1.47956e-07
-4.6349e-07
2.45736e-07
1.31731e-09
9.54237e-08
1.06212e-07
6.66559e-08
2.39328e-06
4.21724e-09
1.53916e-07
-1.85185e-08
3.3284e-07
2.75123e-09
-5.90616e-07
1.40468e-07
-4.9932e-07
3.08911e-07
-1.55659e-06
4.78248e-07
-1.75666e-06
5.97449e-07
-1.59794e-06
1.53179e-07
-6.47301e-08
6.08594e-08
3.19215e-07
3.49698e-07
3.50383e-06
3.42408e-07
7.80779e-07
1.40488e-08
5.76488e-07
3.99483e-08
-2.50485e-09
4.89646e-08
-2.46202e-07
8.42331e-08
-6.36888e-08
1.33469e-07
-2.08809e-07
3.75795e-08
3.21458e-08
1.64507e-09
1.9024e-08
1.80982e-09
2.43636e-09
7.88912e-09
1.29191e-08
5.42765e-10
5.29202e-09
-1.16768e-07
3.42721e-07
-2.46999e-07
1.86557e-07
-1.95642e-07
2.31415e-07
-7.56135e-08
1.86713e-07
-2.10005e-08
2.06855e-08
-5.15734e-09
4.07887e-09
-3.89048e-09
-6.29986e-09
-3.61156e-09
-3.30167e-09
-4.22003e-09
-6.34231e-09
-4.65743e-09
-7.96698e-09
-7.6575e-09
-8.67131e-09
-5.27983e-09
-1.81543e-09
-5.04779e-09
-4.39244e-09
-3.73486e-09
-7.41411e-09
-5.4055e-09
-1.35774e-09
-3.65153e-08
5.89584e-08
-1.4944e-08
1.74791e-08
-1.88034e-09
-4.86749e-08
-1.12931e-09
-1.07614e-08
-9.76965e-10
-9.6863e-09
-4.55806e-10
-2.04837e-08
1.21706e-08
-9.21844e-09
1.76992e-08
-4.0856e-08
2.82959e-08
4.11111e-08
9.37865e-09
1.78257e-07
1.80923e-09
2.4272e-08
7.181e-10
4.59224e-10
3.20728e-08
-1.02892e-06
7.36943e-08
-9.11065e-07
7.71581e-10
-1.10862e-08
6.00388e-10
-2.23256e-08
7.19176e-10
-3.86249e-09
7.76898e-10
-1.41741e-09
1.91157e-09
3.50673e-14
6.19806e-09
2.31584e-09
-1.64615e-05
-1.92954e-05
-1.39204e-05
-9.07183e-05
-1.58655e-05
-3.64455e-05
-2.81671e-06
-3.59096e-05
-1.97368e-06
-1.82523e-06
-3.30464e-06
-3.18223e-06
-2.75341e-06
-1.24369e-05
-9.56213e-06
-1.58856e-06
-3.34964e-06
2.67519e-05
-1.58649e-06
4.6687e-06
-2.79234e-06
-8.84276e-06
-2.67816e-08
-5.84845e-05
-4.78964e-08
-9.68261e-06
1.70165e-07
-1.16763e-06
2.06816e-07
3.9774e-06
-3.90548e-06
1.13522e-05
-1.6718e-06
3.80936e-08
-1.55569e-06
3.41453e-06
-8.80915e-06
-4.80213e-07
-2.43446e-07
-2.0285e-05
3.08278e-07
-3.4857e-06
1.22564e-06
-1.28801e-05
-9.71182e-08
-2.11148e-05
-1.34811e-07
-2.53051e-06
8.05944e-07