/*--------------------------------*- C++ -*----------------------------------*\
| =========                 |                                                 |
| \\      /  F ield         | OpenFOAM: The Open Source CFD Toolbox           |
|  \\    /   O peration     | Version:  v1912                                 |
|   \\  /    A nd           | Website:  www.openfoam.com                      |
|    \\/     M anipulation  |                                                 |
\*---------------------------------------------------------------------------*/
FoamFile
{
    version     2.0;
    format      ascii;
    class       volScalarField;
    location    "40";
    object      k;
}
// * * * * * * * * * * * * * * * * * * * * * * * * * * * * * * * * * * * * * //

dimensions      [0 2 -2 0 0 0 0];


internalField   nonuniform List<scalar> 
14268
(
0.00652801
0.0118529
0.0138901
0.025716
0.0459364
0.0573737
0.0324964
0.00601954
0.00333637
0.00935834
0.0156138
0.0247964
0.0155878
0.0272206
0.0223739
0.0194238
0.0149048
0.0113638
0.0206118
0.0224051
0.00479315
0.00793851
0.0160431
0.0170543
0.0304036
0.0242553
0.0286338
0.0406722
0.0409174
0.0118308
0.0600023
0.136751
0.0943335
0.058784
0.0567887
0.0510026
0.049977
0.0310673
0.02336
0.0317201
0.0416207
0.0463204
0.0475985
0.0450016
0.0199159
0.00426836
0.00277105
0.00466882
0.0141352
0.0244639
0.0281545
0.0335997
0.0380085
0.0429847
0.0377432
0.0188507
0.00521963
0.00475407
0.00876515
0.013271
0.0203312
0.0257326
0.0313406
0.0245099
0.0160134
0.00766293
0.00314637
0.00296324
0.00573694
0.00771051
0.00760036
0.00388998
0.00297978
0.00268701
0.00308206
0.00337745
0.00304085
0.00269674
0.00265754
0.00283343
0.00324831
0.00430653
0.00496449
0.00385322
0.00347027
0.00637047
0.0164805
0.0260928
0.0235608
0.0214696
0.0128102
0.0062734
0.00682928
0.00443987
0.00722985
0.0171754
0.0336141
0.0359871
0.0151813
0.00673791
0.00332101
0.00299442
0.00279309
0.00348997
0.0419879
0.0615812
0.0743395
0.118966
0.172583
0.178934
0.0948501
0.0298188
0.013421
0.0649249
0.112561
0.14336
0.0503095
0.0740811
0.0507848
0.0325935
0.0296375
0.0290808
0.100266
0.106038
0.0107142
0.014536
0.0231487
0.0203883
0.0413343
0.0833759
0.113818
0.191286
0.176944
0.0458297
0.197953
0.375059
0.220097
0.172396
0.184081
0.151734
0.133829
0.0739344
0.0507812
0.0926921
0.111509
0.114812
0.114032
0.127157
0.0692209
0.0173477
0.0130263
0.0201542
0.0587087
0.104537
0.11624
0.134048
0.149669
0.172341
0.150914
0.0661105
0.0182628
0.0195955
0.0433691
0.0707924
0.0948362
0.113685
0.150802
0.134624
0.0987552
0.053111
0.0188268
0.0132198
0.0289955
0.0418906
0.0361242
0.0178737
0.0150543
0.0150153
0.0174584
0.0191859
0.0163067
0.0130204
0.0126571
0.0131481
0.0144842
0.0177931
0.0201139
0.017561
0.0159795
0.0263894
0.0603361
0.0985674
0.0914928
0.0795133
0.0450145
0.0259698
0.0229631
0.0173331
0.0289153
0.0582632
0.114785
0.126368
0.0552412
0.0263558
0.0114911
0.0116001
0.0121877
0.0149519
0.159149
0.187728
0.233743
0.217784
0.228418
0.197066
0.134837
0.100298
0.0143374
0.147023
0.442668
0.467805
0.112548
0.0605816
0.0486659
0.019354
0.0314901
0.0413564
0.308837
0.332943
0.050539
0.00231381
0.0187895
0.0626214
0.013579
0.118455
0.212969
0.440566
0.452593
0.141525
0.328237
0.581823
0.318102
0.165836
0.199421
0.173085
0.165827
0.0690054
0.0356808
0.0891371
0.11232
0.114831
0.1036
0.136109
0.110413
0.0375046
0.0202891
0.0317992
0.126002
0.197572
0.209352
0.230078
0.252168
0.290829
0.272068
0.119404
0.041585
0.0442054
0.0691166
0.108183
0.130665
0.160193
0.192726
0.163617
0.124918
0.0721534
0.0324774
0.0208141
0.0425086
0.0782384
0.0807776
0.0460831
0.0368296
0.0347069
0.0410528
0.0467874
0.043473
0.0368563
0.028144
0.0175996
0.020928
0.0260906
0.0286734
0.0241385
0.0251487
0.0499961
0.101135
0.165274
0.163337
0.147495
0.0879641
0.0420893
0.0251617
0.0233964
0.0441294
0.0937935
0.18047
0.205701
0.0974671
0.0505538
0.0196634
0.018658
0.0196917
0.0229823
0.45535
0.420608
0.458532
0.304842
0.1813
0.152997
0.177035
0.354024
0.039391
0.272488
0.696393
0.716336
0.273347
0.0639778
0.0319307
0.0251569
0.0645599
0.0973774
0.551174
0.518824
0.200259
0.0207365
0.0658945
0.306955
0.0760509
0.108762
0.173354
0.466411
0.671001
0.277585
0.410824
0.681301
0.439377
0.149601
0.217531
0.235963
0.248599
0.121108
0.037395
0.0536907
0.0835174
0.113213
0.113204
0.0963862
0.121034
0.0729165
0.036199
0.0607845
0.17829
0.23982
0.23538
0.254728
0.28052
0.326351
0.323257
0.145772
0.0694502
0.0710592
0.0751106
0.131263
0.171964
0.193011
0.21647
0.176941
0.141072
0.0862946
0.039471
0.0250845
0.0529945
0.111818
0.125196
0.0819727
0.0571052
0.0485631
0.0515859
0.0552025
0.0527806
0.0466444
0.0409435
0.0312922
0.0286855
0.0407429
0.0456088
0.0373846
0.0348442
0.0646516
0.119147
0.198994
0.20797
0.200781
0.143558
0.0800594
0.0316444
0.0282907
0.0460058
0.0992736
0.184025
0.235791
0.121693
0.0536845
0.0239067
0.0255036
0.0279004
0.0325538
0.481566
0.509664
0.65735
0.409825
0.135968
0.13243
0.451005
0.732013
0.248269
0.386414
0.702858
0.748234
0.481705
0.109518
0.0359227
0.0380371
0.190173
0.304473
0.629571
0.460911
0.237708
0.23067
0.34408
0.5288
0.282885
0.0980642
0.117626
0.421888
0.805186
0.40611
0.516493
0.642246
0.665414
0.194451
0.311267
0.380394
0.38842
0.248069
0.089293
0.0387601
0.0997686
0.22772
0.239439
0.0754549
0.112439
0.13042
0.0838792
0.10115
0.229322
0.236833
0.228648
0.255888
0.290818
0.346847
0.350882
0.156666
0.0942187
0.104549
0.0732534
0.132768
0.197852
0.198662
0.204771
0.182022
0.15317
0.0987616
0.0455062
0.030346
0.0612463
0.141488
0.164104
0.0930566
0.0533671
0.0408713
0.0392072
0.039932
0.0378973
0.0317025
0.0284113
0.0272061
0.0369947
0.0536946
0.0617466
0.0532477
0.0458125
0.0704611
0.12666
0.223094
0.240189
0.237301
0.189015
0.121474
0.0519131
0.0305656
0.0412716
0.0807507
0.174491
0.259433
0.12679
0.0416527
0.0287111
0.0308276
0.0333526
0.0391298
0.470795
0.459521
0.737372
0.457096
0.122378
0.173712
0.751007
0.809279
0.430808
0.453441
0.610026
0.63611
0.504886
0.263045
0.0612447
0.0511936
0.343443
0.519429
0.629739
0.367741
0.173653
0.427172
0.545016
0.56133
0.39672
0.0671226
0.0569735
0.319548
0.825873
0.497351
0.475688
0.57937
0.844062
0.336089
0.462574
0.518248
0.412477
0.256343
0.16221
0.083709
0.20924
0.38335
0.335671
0.0918276
0.0878856
0.160529
0.13432
0.132086
0.214098
0.200554
0.230427
0.279404
0.325385
0.387493
0.399589
0.19599
0.0970455
0.139583
0.0780647
0.123006
0.192373
0.202891
0.201145
0.195479
0.16624
0.10966
0.0513294
0.0357206
0.0685781
0.169598
0.198826
0.0978129
0.0389805
0.0259315
0.0288352
0.0333397
0.0311915
0.0249744
0.0249513
0.0269
0.039318
0.0578403
0.0708874
0.0646069
0.0572076
0.0713385
0.136025
0.244957
0.255284
0.254216
0.212973
0.152192
0.0770936
0.041163
0.0439299
0.0639886
0.15241
0.291324
0.118775
0.0315826
0.0324185
0.037985
0.0410231
0.0467
0.623406
0.565704
0.696822
0.49162
0.209398
0.290796
0.719215
0.724316
0.469216
0.434859
0.539316
0.68911
0.488423
0.370056
0.101041
0.0711679
0.501544
0.725652
0.637883
0.317083
0.128803
0.509866
0.685389
0.563036
0.448936
0.046218
0.0234596
0.318407
0.846322
0.50928
0.407559
0.531185
1.01608
0.524008
0.626689
0.638113
0.376137
0.205228
0.170706
0.211615
0.371626
0.417028
0.340676
0.140937
0.0604628
0.15371
0.18078
0.172191
0.183162
0.208449
0.281979
0.335847
0.386485
0.461387
0.481016
0.264778
0.0858082
0.159663
0.0973064
0.127742
0.177598
0.209796
0.219262
0.2101
0.17635
0.118245
0.0569881
0.0387105
0.0739825
0.195647
0.23954
0.12675
0.043756
0.0298181
0.0391268
0.0454654
0.0434717
0.0377506
0.0302822
0.0329186
0.0444244
0.0610121
0.0745653
0.0700924
0.0694529
0.0756556
0.155991
0.278602
0.284645
0.280006
0.227781
0.169952
0.0972194
0.0567618
0.0530751
0.0672146
0.151121
0.333301
0.122663
0.0383804
0.0392004
0.0434947
0.048055
0.0556945
0.973552
0.70729
0.780219
0.53622
0.326717
0.31416
0.607293
0.614375
0.537902
0.48711
0.640533
0.991654
0.642241
0.452794
0.185876
0.131551
0.541006
0.731445
0.665401
0.445578
0.285347
0.672032
0.765252
0.633297
0.467911
0.0263438
0.0840757
0.418996
0.840197
0.457814
0.324674
0.457843
1.15748
0.643219
0.772925
0.602975
0.341514
0.189642
0.142844
0.337163
0.475829
0.347108
0.242767
0.124491
0.0388269
0.119422
0.201362
0.206969
0.141466
0.270797
0.31963
0.325398
0.377081
0.472756
0.5396
0.32651
0.0705557
0.143595
0.130469
0.143231
0.168481
0.213618
0.225238
0.218391
0.183539
0.124862
0.0620572
0.0385346
0.0767784
0.222086
0.277726
0.167103
0.0684375
0.0434585
0.0437985
0.0433153
0.0416741
0.0353487
0.0335162
0.0420029
0.0544644
0.0699684
0.0808478
0.0774435
0.0833819
0.0857641
0.1744
0.306345
0.318936
0.312359
0.24347
0.177184
0.111287
0.0703533
0.0632782
0.0740939
0.178434
0.325245
0.140595
0.057044
0.0495059
0.0479545
0.0524127
0.0632929
1.14973
0.893477
1.03417
0.68733
0.294247
0.239057
0.524536
0.488889
0.617777
0.584183
0.821705
1.03164
1.03356
0.660736
0.370938
0.215969
0.489414
0.580052
0.634229
0.59221
0.706787
0.943463
0.92536
0.830666
0.476703
0.0337799
0.248325
0.371084
0.808421
0.365093
0.242144
0.38938
1.15589
0.737928
0.854082
0.513951
0.384157
0.2606
0.109525
0.430274
0.531697
0.256624
0.188399
0.119947
0.0426642
0.0742665
0.146933
0.238855
0.118677
0.330757
0.305244
0.285496
0.338105
0.44046
0.569882
0.384846
0.0792434
0.11784
0.151175
0.166219
0.173014
0.203526
0.221815
0.221029
0.188825
0.129848
0.066376
0.0371316
0.0787475
0.248987
0.311059
0.202559
0.0818209
0.0403103
0.0335606
0.0328372
0.0339392
0.03493
0.0372518
0.0511652
0.0637755
0.0807057
0.0908952
0.0883866
0.0982835
0.0986997
0.19
0.333005
0.351707
0.34651
0.267666
0.187689
0.116655
0.0829059
0.0731298
0.0832785
0.212711
0.297059
0.167158
0.0724286
0.0606768
0.0545803
0.056086
0.0698809
1.34368
1.05113
1.09884
0.727038
0.262644
0.19542
0.410625
0.359192
0.36077
0.347099
0.782869
0.964389
1.33508
0.979182
0.560236
0.362839
0.394855
0.454236
0.538093
0.586532
1.0116
1.03532
1.09231
1.02202
0.453915
0.140944
0.409382
0.317822
0.759131
0.283356
0.206815
0.305832
1.02638
0.809747
0.742557
0.418888
0.437416
0.311873
0.0886252
0.49209
0.478612
0.169788
0.238867
0.186472
0.0749301
0.0374562
0.0893001
0.271295
0.136316
0.362522
0.256158
0.229058
0.283415
0.387621
0.545862
0.427452
0.1312
0.11362
0.142366
0.177187
0.19477
0.207924
0.215729
0.215845
0.191199
0.133851
0.0701514
0.0362126
0.0810902
0.273091
0.31962
0.214781
0.0745242
0.0285721
0.0303389
0.0360378
0.0371223
0.037751
0.0459782
0.0597787
0.0712312
0.0890522
0.099557
0.098031
0.111915
0.109151
0.201825
0.354672
0.378723
0.373977
0.290078
0.20294
0.115218
0.0934466
0.0821864
0.091677
0.20359
0.261514
0.190085
0.0852429
0.0718037
0.0630424
0.0614471
0.0756268
1.44842
0.874119
0.97397
0.67795
0.399204
0.313618
0.315112
0.236937
0.260504
0.277633
0.837693
0.92511
1.6
1.2828
0.70991
0.49625
0.312082
0.330296
0.471746
0.521687
1.23405
0.918731
1.25655
1.18256
0.417757
0.325784
0.556984
0.249436
0.682404
0.21971
0.247647
0.287519
0.92844
0.868335
0.645788
0.378095
0.438169
0.347428
0.11801
0.530727
0.412319
0.133007
0.301219
0.252301
0.126684
0.0340187
0.0662388
0.295758
0.176414
0.348343
0.199377
0.171688
0.222523
0.330055
0.498815
0.447657
0.202896
0.11558
0.117859
0.181171
0.208082
0.219647
0.218057
0.208915
0.189432
0.136804
0.0738409
0.0374302
0.0845053
0.292231
0.290019
0.183513
0.0611868
0.0279194
0.0324527
0.0413742
0.0384734
0.0402903
0.0527383
0.0675958
0.0780979
0.0963368
0.107055
0.106448
0.121258
0.108594
0.210181
0.375635
0.403931
0.39644
0.304438
0.212957
0.113438
0.100277
0.0918765
0.106773
0.175223
0.227451
0.211167
0.103167
0.08296
0.0712152
0.0680333
0.0816923
1.36448
0.650142
0.856132
0.605892
0.644183
0.476789
0.294889
0.162838
0.154229
0.280936
0.933021
0.869741
1.6248
1.46026
0.857696
0.299614
0.239269
0.273083
0.463105
0.434266
1.21559
0.802379
1.18151
1.29396
0.373394
0.474573
0.678359
0.172632
0.591213
0.160061
0.329184
0.405672
0.818319
0.89106
0.530655
0.399795
0.416849
0.375638
0.175185
0.482365
0.329055
0.164211
0.353508
0.273203
0.174571
0.0670717
0.0925787
0.270001
0.20679
0.301019
0.148566
0.14275
0.172509
0.262669
0.442288
0.444131
0.264276
0.111137
0.106074
0.1734
0.209748
0.231504
0.231667
0.206996
0.185287
0.138426
0.0776776
0.0405713
0.0879815
0.283605
0.245677
0.137557
0.0590694
0.0388225
0.0439243
0.0482907
0.0413001
0.042927
0.0583161
0.0745978
0.0848751
0.103474
0.11353
0.112021
0.126284
0.0984896
0.2158
0.393851
0.426277
0.417787
0.321793
0.218445
0.113804
0.0998167
0.0980112
0.125522
0.141287
0.190363
0.221769
0.120882
0.0930983
0.0786839
0.0743022
0.0877307
1.41884
0.632677
0.725562
0.522765
0.699125
0.488032
0.250376
0.246743
0.0806066
0.383697
0.947832
0.809684
1.48972
1.4402
1.00808
0.216479
0.169129
0.324164
0.440953
0.336238
1.09211
0.692831
1.03743
1.39836
0.377231
0.600602
0.799947
0.135803
0.506085
0.11275
0.42947
0.389021
0.698074
0.916441
0.401205
0.419526
0.396481
0.403548
0.220181
0.410114
0.241812
0.206335
0.392174
0.266453
0.208156
0.108641
0.141383
0.224799
0.22835
0.243855
0.135295
0.16321
0.164666
0.207294
0.381279
0.426924
0.298778
0.110951
0.114866
0.16376
0.20417
0.24275
0.248977
0.214429
0.182454
0.138833
0.0818246
0.0442932
0.0899732
0.249719
0.198528
0.110346
0.0764525
0.0536622
0.0531321
0.0529115
0.0439667
0.0452938
0.0631142
0.0808979
0.0905804
0.108359
0.118611
0.11138
0.12114
0.0867179
0.222261
0.411645
0.448596
0.441514
0.344232
0.226472
0.120125
0.0956993
0.0968473
0.145482
0.103554
0.151039
0.215446
0.13181
0.102132
0.0856137
0.0796295
0.0924649
1.47093
0.794839
0.639746
0.430907
0.620042
0.40024
0.188876
0.447286
0.0899959
0.520009
0.849134
0.744138
1.33085
1.34164
1.13828
0.195974
0.126751
0.282106
0.366525
0.234928
0.935056
0.555436
0.945599
1.48076
0.439769
0.724141
0.913536
0.221109
0.407459
0.132857
0.523902
0.317378
0.575924
0.943667
0.311487
0.440335
0.375554
0.405235
0.216259
0.322794
0.16967
0.240173
0.401128
0.253244
0.217782
0.144575
0.18624
0.174587
0.242273
0.191362
0.154865
0.186879
0.188297
0.188459
0.314018
0.39545
0.28339
0.105201
0.117197
0.166163
0.204792
0.254386
0.264085
0.228286
0.183088
0.138619
0.086235
0.0477667
0.0905688
0.20501
0.151823
0.11608
0.0989437
0.0640703
0.0542295
0.0525134
0.0451177
0.0474263
0.0672982
0.0863861
0.093898
0.110021
0.120796
0.104401
0.106934
0.0789489
0.228165
0.427955
0.469155
0.463306
0.364496
0.241229
0.132043
0.0923913
0.0945579
0.164765
0.0779428
0.110364
0.18971
0.133898
0.110193
0.0921385
0.0839209
0.0945748
1.25883
0.890673
0.678719
0.379811
0.465488
0.253795
0.100578
0.68541
0.310847
0.691128
0.69577
0.633998
1.15374
1.19189
1.22889
0.307079
0.184344
0.177882
0.236672
0.126788
0.70482
0.376472
0.783191
1.38248
0.53107
0.759016
0.873449
0.420209
0.284075
0.254674
0.654299
0.208155
0.422786
0.943178
0.253037
0.448232
0.36392
0.379495
0.196359
0.201723
0.0965222
0.284904
0.386519
0.233968
0.210186
0.183481
0.251011
0.122033
0.246203
0.146681
0.182152
0.217968
0.22194
0.204392
0.230096
0.335913
0.231015
0.10013
0.123021
0.178227
0.215665
0.272023
0.284224
0.248506
0.186492
0.135285
0.0893946
0.052613
0.085103
0.134946
0.100575
0.14992
0.126471
0.0695027
0.046173
0.0455522
0.0437492
0.0499816
0.0720174
0.0917141
0.0966516
0.109762
0.120073
0.0896305
0.0821171
0.0770059
0.23561
0.449814
0.489535
0.485805
0.392532
0.267761
0.146348
0.09505
0.101007
0.19484
0.0786775
0.0751867
0.14594
0.131444
0.121567
0.101533
0.089488
0.0956632
1.09422
0.886834
1.08162
0.724853
0.414185
0.169294
0.0694088
0.700258
0.630285
0.860915
0.615667
0.526154
1.10335
1.20714
1.34938
0.649732
0.477267
0.126521
0.112874
0.094436
0.494922
0.216252
0.543581
1.12849
0.590868
0.559355
0.65301
0.615605
0.216767
0.309632
0.517528
0.0973334
0.33047
0.76087
0.262854
0.425633
0.346628
0.393141
0.253603
0.102353
0.0690552
0.325147
0.392968
0.236119
0.216592
0.218724
0.296303
0.142361
0.212159
0.157614
0.210841
0.248616
0.256589
0.233612
0.193342
0.268801
0.192835
0.125464
0.151801
0.19608
0.235455
0.29373
0.306642
0.271217
0.194969
0.123799
0.0822092
0.0551601
0.063384
0.0691609
0.0874651
0.19743
0.145962
0.0575186
0.0457737
0.0452698
0.0448408
0.048537
0.0679881
0.0864845
0.101479
0.114105
0.122327
0.0826745
0.0557724
0.0825259
0.241547
0.453903
0.468371
0.46925
0.417473
0.296963
0.149652
0.11059
0.120256
0.193088
0.121563
0.107869
0.131949
0.142969
0.136553
0.112808
0.0972901
0.100414
0.940258
0.844402
1.30514
0.738158
0.785959
0.420136
0.127932
0.609835
0.635084
0.701935
0.801608
0.62596
1.00487
1.26758
1.39081
0.745221
0.734148
0.318417
0.111985
0.078578
0.391038
0.166515
0.356475
0.907442
0.630378
0.350115
0.445341
0.768171
0.328621
0.288275
0.3849
0.0771083
0.345136
0.584766
0.271717
0.396629
0.309149
0.50015
0.319016
0.0749997
0.0790981
0.357685
0.392177
0.287091
0.275967
0.260147
0.261681
0.143636
0.163967
0.176816
0.236007
0.275093
0.286185
0.263011
0.20595
0.228876
0.210703
0.186962
0.188669
0.214025
0.251052
0.311174
0.325903
0.290738
0.209182
0.116209
0.0709055
0.0498651
0.0459173
0.0445861
0.11034
0.237882
0.147624
0.0517398
0.0537556
0.0561409
0.0516958
0.0451491
0.0527862
0.0725183
0.0998358
0.122503
0.130548
0.0917423
0.0497744
0.0854525
0.24688
0.425116
0.428463
0.432649
0.428217
0.321422
0.156661
0.108139
0.131084
0.157592
0.129628
0.149123
0.1671
0.171112
0.150998
0.122357
0.105798
0.109471
0.768556
0.787954
1.28114
0.674608
0.802241
0.488041
0.210824
0.536406
0.36324
0.48088
0.978292
0.927196
0.932608
1.12268
1.01601
0.565051
0.948622
0.482825
0.188684
0.0911615
0.212106
0.116499
0.232525
0.676022
0.637647
0.209206
0.267424
0.882765
0.4395
0.353455
0.254912
0.0986386
0.362271
0.418187
0.28213
0.356137
0.274142
0.570774
0.349745
0.0806069
0.106803
0.385574
0.354277
0.332552
0.330086
0.312681
0.206364
0.117471
0.123948
0.193006
0.25616
0.296588
0.310393
0.288032
0.230032
0.194798
0.256989
0.247212
0.220085
0.23037
0.260675
0.32419
0.34257
0.307857
0.224335
0.117394
0.063056
0.0417402
0.0424869
0.043446
0.140097
0.224453
0.115691
0.0589028
0.0619042
0.0640587
0.0578057
0.0473665
0.0441918
0.0571232
0.0876313
0.120733
0.13748
0.0996023
0.0558329
0.0854456
0.248905
0.378283
0.386731
0.392718
0.424059
0.33707
0.169853
0.0946167
0.109481
0.10488
0.0920761
0.162597
0.196097
0.193349
0.162412
0.129444
0.113233
0.119543
0.620565
0.730588
1.21466
0.578372
0.667972
0.393053
0.233634
0.402635
0.222609
0.341105
0.938455
0.859214
0.857712
0.977765
0.831819
0.452481
1.10514
0.595472
0.239613
0.0950302
0.0870336
0.0823284
0.169302
0.52834
0.638109
0.238299
0.239477
0.901755
0.597444
0.481529
0.191614
0.132075
0.317623
0.251166
0.309793
0.331505
0.236076
0.589422
0.362983
0.08748
0.137059
0.411952
0.313835
0.359358
0.358348
0.371667
0.15948
0.0937171
0.126187
0.211369
0.273489
0.315525
0.331689
0.311919
0.255246
0.173069
0.290177
0.290062
0.247972
0.241393
0.264172
0.335814
0.357411
0.323172
0.2382
0.125191
0.0644692
0.0423837
0.0433839
0.0452441
0.169931
0.176467
0.0754107
0.0653202
0.0669518
0.0702
0.0629211
0.0528617
0.047495
0.0471577
0.0714342
0.108421
0.141082
0.10579
0.0616604
0.0857794
0.24362
0.329841
0.347452
0.3542
0.407604
0.340517
0.183762
0.0917469
0.0797576
0.0621444
0.0643584
0.149404
0.209428
0.202296
0.167118
0.133046
0.118365
0.127941
0.490646
0.656465
1.09887
0.470333
0.505105
0.324851
0.136792
0.262341
0.0974551
0.315194
0.736308
0.741078
0.761114
0.850895
0.779807
0.472987
1.11215
0.670838
0.260983
0.0933126
0.038849
0.0600688
0.122438
0.433275
0.576708
0.337578
0.440533
0.818044
0.665475
0.58173
0.235473
0.16739
0.240096
0.120283
0.30736
0.299842
0.181528
0.561674
0.353494
0.092646
0.152515
0.410581
0.267679
0.349388
0.335331
0.360704
0.134604
0.0933901
0.137996
0.227013
0.288262
0.331885
0.350111
0.333316
0.277913
0.172819
0.281548
0.300963
0.262515
0.242811
0.264374
0.347384
0.370623
0.337039
0.251188
0.135957
0.0713772
0.0470846
0.0447857
0.0455088
0.156438
0.122785
0.0626386
0.0636524
0.0666539
0.0730737
0.0667964
0.0574153
0.0526457
0.0471181
0.0579005
0.0941779
0.136165
0.108135
0.0654642
0.0861121
0.228209
0.279527
0.308449
0.315248
0.378356
0.329103
0.193219
0.100634
0.0794074
0.0540459
0.0682663
0.127202
0.198548
0.188296
0.161856
0.133036
0.122114
0.134591
0.412295
0.589426
0.973499
0.401349
0.407186
0.315999
0.0869082
0.187644
0.036407
0.503254
0.627368
0.629219
0.689872
0.777564
0.766496
0.528595
1.04595
0.675992
0.266442
0.101895
0.0459392
0.0492748
0.0903672
0.350497
0.503379
0.409558
0.520414
0.73374
0.632311
0.584737
0.258575
0.164205
0.180416
0.0605984
0.287096
0.257837
0.143614
0.508691
0.324492
0.0955073
0.158447
0.372496
0.222076
0.30461
0.287504
0.317984
0.141731
0.105471
0.155838
0.241439
0.301298
0.346429
0.366292
0.352733
0.298515
0.185578
0.252919
0.282388
0.255464
0.23671
0.26705
0.358323
0.382653
0.349358
0.263458
0.147567
0.0800453
0.0531331
0.0466476
0.0445703
0.125547
0.087541
0.0671516
0.0614579
0.0633217
0.0719216
0.0689926
0.0612781
0.0573677
0.0511037
0.054018
0.0845522
0.123775
0.1043
0.0670878
0.0845269
0.204034
0.238358
0.270453
0.276396
0.339476
0.304047
0.192891
0.109119
0.092256
0.0719522
0.0861326
0.113256
0.175559
0.161179
0.147084
0.130134
0.125968
0.140889
0.166108
0.240918
0.40191
0.216264
0.251839
0.22843
0.0958335
0.0749644
0.457984
0.825323
0.239624
0.218556
0.349377
0.457602
0.700738
0.707209
0.714384
0.43038
0.190578
0.0557595
0.0290031
0.0180777
0.037756
0.0786938
0.211248
0.525647
0.488346
0.305193
0.246624
0.293413
0.268148
0.0831178
0.0580365
0.05045
0.0888107
0.0745672
0.0834598
0.161775
0.126836
0.103846
0.123345
0.149762
0.110388
0.146253
0.149026
0.128912
0.120905
0.15342
0.230698
0.30426
0.361087
0.4052
0.427364
0.428914
0.386889
0.253959
0.137488
0.129944
0.138647
0.177279
0.286363
0.410777
0.436731
0.4045
0.320878
0.201636
0.119206
0.0852392
0.0590916
0.0458312
0.0397548
0.0509048
0.0740982
0.0617167
0.0512471
0.0601212
0.07367
0.0784085
0.0789253
0.07482
0.0625374
0.0593415
0.0669217
0.071591
0.0657671
0.0690711
0.0906066
0.0884796
0.0983104
0.105877
0.15083
0.169903
0.152592
0.131611
0.148328
0.160427
0.140823
0.0934317
0.0837594
0.0817449
0.0945272
0.116883
0.143267
0.171593
0.0926722
0.0691977
0.059534
0.0504567
0.055698
0.0713234
0.0585236
0.0609092
0.140157
0.241008
0.142681
0.112504
0.126064
0.154252
0.166554
0.169265
0.185231
0.185367
0.191303
0.186945
0.160716
0.121894
0.076179
0.0881989
0.0926244
0.144657
0.0962477
0.0542411
0.0668118
0.104725
0.120514
0.101823
0.0817967
0.0330473
0.0329804
0.0909172
0.0883588
0.0800695
0.0914945
0.10352
0.0774527
0.0889423
0.107646
0.112904
0.104016
0.0990029
0.111673
0.170399
0.268662
0.349319
0.396659
0.435111
0.463073
0.494539
0.501753
0.451901
0.345693
0.205666
0.178098
0.22787
0.365335
0.495083
0.499338
0.45035
0.356964
0.225966
0.12227
0.0897331
0.0760072
0.0601485
0.039279
0.0464285
0.0593527
0.0564783
0.0602773
0.0633303
0.0754932
0.0919041
0.0971833
0.0984278
0.0883451
0.0658599
0.0513618
0.0600202
0.0729625
0.0651365
0.0479987
0.0474327
0.0488632
0.0533047
0.062011
0.0781558
0.0863744
0.0839952
0.0799165
0.086891
0.0829058
0.0787448
0.0802179
0.0811443
0.0835957
0.103082
0.131027
0.161363
0.0277246
0.0202873
0.023493
0.0279644
0.0266053
0.0238681
0.0231873
0.0263911
0.0395713
0.0599514
0.0623283
0.0632263
0.0577588
0.0443327
0.0460077
0.0543648
0.061525
0.0746833
0.0854782
0.0885887
0.0814897
0.0688559
0.0571958
0.0497967
0.037324
0.0324476
0.0202462
0.0143315
0.0356873
0.131631
0.179518
0.173473
0.132486
0.0646248
0.031177
0.0496617
0.0502429
0.0440289
0.0649849
0.11247
0.123691
0.134572
0.158547
0.202521
0.203812
0.167476
0.168579
0.221263
0.310388
0.363167
0.392908
0.413072
0.44
0.489978
0.550151
0.561675
0.519978
0.408217
0.323138
0.349087
0.46547
0.551173
0.528597
0.460641
0.369779
0.247443
0.130642
0.0896089
0.0817801
0.0697593
0.0504468
0.0516467
0.0560676
0.0598456
0.0675069
0.0761778
0.0807013
0.0862855
0.0875241
0.0863111
0.0859848
0.0754847
0.0715205
0.0809542
0.0918596
0.0881344
0.0821584
0.0821892
0.0809288
0.0807685
0.0814184
0.0846614
0.0887112
0.0873428
0.0792746
0.0611653
0.0611768
0.0652365
0.0711268
0.0797532
0.0882569
0.103541
0.127947
0.152259
0.009119
0.0157004
0.0298296
0.0472614
0.0575671
0.0829972
0.142459
0.167519
0.153935
0.133549
0.144972
0.180883
0.2388
0.332876
0.488975
0.590925
0.570325
0.498119
0.41016
0.300822
0.223442
0.15969
0.107608
0.0769181
0.0564151
0.0488384
0.0501155
0.0565642
0.0649356
0.0698495
0.0762329
0.0835944
0.0922655
0.106401
0.109769
0.106848
0.0982437
0.0955841
0.0989251
0.0955785
0.090987
0.0925561
0.109703
0.186166
0.302186
0.299287
0.268608
0.286554
0.33303
0.350336
0.347433
0.341953
0.355646
0.412453
0.538916
0.615063
0.590038
0.500206
0.407036
0.432103
0.510451
0.527118
0.514876
0.465838
0.39232
0.286846
0.164216
0.098701
0.0825224
0.0724882
0.0624012
0.0577112
0.0590824
0.0658545
0.0748384
0.0748841
0.0673427
0.0610609
0.0569601
0.0547853
0.0567842
0.0552418
0.0584802
0.0674076
0.0782123
0.0837276
0.0848247
0.0866394
0.0864388
0.0858824
0.0861436
0.0880414
0.0919793
0.0927693
0.0906866
0.0880384
0.0847932
0.0826653
0.0799249
0.0762961
0.0760845
0.0835841
0.103172
0.136401
0.166919
0.190195
0.225889
0.263587
0.32743
0.486151
0.778916
1.01927
1.06248
1.03198
1.04199
1.09591
1.19646
1.32241
1.388
1.38874
1.34471
1.24175
1.07515
0.87362
0.66174
0.446494
0.269697
0.171809
0.143773
0.14727
0.175982
0.231629
0.296624
0.306159
0.28515
0.241699
0.183065
0.14035
0.117915
0.100881
0.0917031
0.0833329
0.0696587
0.0616426
0.063424
0.0721852
0.0917247
0.140767
0.26253
0.331886
0.322777
0.322207
0.331198
0.314961
0.285066
0.276122
0.277479
0.332786
0.491435
0.624037
0.608684
0.526182
0.419408
0.441886
0.454618
0.443329
0.466087
0.45479
0.40798
0.327218
0.215076
0.119611
0.0832732
0.0717676
0.0663007
0.0627048
0.0651204
0.0733676
0.0750613
0.0646619
0.0529693
0.0482336
0.0470968
0.0481905
0.0475376
0.049245
0.0541725
0.0617781
0.0698868
0.0762746
0.0790988
0.0812116
0.0811914
0.0807787
0.0812243
0.0835974
0.0882625
0.0915665
0.0916065
0.091681
0.090828
0.088579
0.0854268
0.0822641
0.078355
0.0759597
0.0805105
0.097692
0.466521
0.482374
0.499617
0.560565
0.755314
1.11657
1.56315
1.83923
1.94091
1.90642
1.84491
1.78703
1.72882
1.71469
1.69809
1.65853
1.58312
1.46557
1.31109
1.13263
0.937974
0.715243
0.483014
0.380233
0.375331
0.411355
0.497107
0.594699
0.635359
0.63374
0.600504
0.533164
0.440507
0.331428
0.225327
0.156603
0.116919
0.082105
0.0716294
0.0763372
0.092086
0.11743
0.144831
0.175929
0.237471
0.331209
0.356088
0.348949
0.327852
0.27489
0.23987
0.234475
0.224575
0.262779
0.375508
0.534216
0.575402
0.509094
0.395718
0.356204
0.346729
0.350636
0.394486
0.433103
0.420213
0.369631
0.275054
0.158184
0.0923158
0.0733337
0.0695532
0.0681106
0.0712648
0.0752659
0.072934
0.0642725
0.0609618
0.0616854
0.0613144
0.0606477
0.060325
0.0614927
0.0667321
0.0743065
0.0786932
0.0788973
0.0783866
0.0786559
0.0788581
0.0787669
0.0796528
0.0828793
0.0884125
0.0920667
0.093403
0.0946556
0.0937936
0.0913474
0.087932
0.0853322
0.0825156
0.0790002
0.0749822
0.0774854
0.663286
0.72886
0.857045
1.13096
1.56501
2.00199
2.24795
2.24793
2.12747
1.94691
1.81077
1.7336
1.70716
1.69115
1.66447
1.62027
1.54387
1.43701
1.30387
1.15909
0.996426
0.816224
0.705873
0.695064
0.734593
0.823482
0.906493
0.925221
0.914191
0.87407
0.812104
0.737923
0.65309
0.556999
0.43932
0.33207
0.265285
0.226945
0.226588
0.241455
0.271992
0.301885
0.29913
0.279788
0.280427
0.316145
0.351204
0.347125
0.320059
0.254664
0.193904
0.181228
0.181627
0.203533
0.264824
0.382299
0.488307
0.466281
0.376638
0.258501
0.227074
0.25034
0.323511
0.421226
0.442201
0.413913
0.33617
0.213709
0.113582
0.0792654
0.0733871
0.0742485
0.0760755
0.0743763
0.0702578
0.0698599
0.0776035
0.0841584
0.0819138
0.0756659
0.0699448
0.0708452
0.0783477
0.0929101
0.103378
0.101332
0.0928216
0.0829512
0.0792954
0.0794862
0.0818274
0.0872913
0.0946933
0.0976323
0.0995557
0.10021
0.0987906
0.0954607
0.0914647
0.0867716
0.0834301
0.0801226
0.0761414
0.0740369
1.00824
1.24959
1.58599
2.01041
2.36038
2.41204
2.27706
1.9976
1.6366
1.36991
1.25333
1.26221
1.34729
1.43399
1.45414
1.44533
1.40762
1.3291
1.23086
1.12118
1.01811
0.981595
1.01773
1.12151
1.22005
1.2271
1.19207
1.13335
1.06718
0.999748
0.932232
0.861572
0.789762
0.713357
0.626376
0.543894
0.485445
0.448506
0.447344
0.453705
0.457376
0.451535
0.431302
0.39163
0.337685
0.327188
0.339247
0.339044
0.315603
0.257854
0.18343
0.151133
0.156006
0.175862
0.212236
0.295496
0.407781
0.428067
0.375814
0.263895
0.202552
0.229535
0.271563
0.37126
0.464536
0.46159
0.397641
0.274921
0.146075
0.0907073
0.0794453
0.0801447
0.0798327
0.0750216
0.0718947
0.0802738
0.0972619
0.11151
0.111608
0.0991042
0.0819846
0.0798461
0.0901372
0.11056
0.125326
0.124451
0.113576
0.0971789
0.0894503
0.0890725
0.0932816
0.103247
0.113543
0.117106
0.119139
0.118488
0.114038
0.106986
0.0999773
0.093199
0.0865794
0.08164
0.0768623
0.0737594
1.73149
2.13886
2.50982
2.58435
2.44012
2.11988
1.67501
1.26597
1.00879
0.878161
0.874983
0.955391
1.10385
1.22325
1.26922
1.26882
1.24474
1.18822
1.11716
1.07095
1.08349
1.17474
1.36655
1.51876
1.48261
1.36206
1.22582
1.14091
1.07628
1.01115
0.947023
0.890965
0.83477
0.771809
0.703727
0.657628
0.616879
0.593128
0.591915
0.592212
0.586325
0.567647
0.531615
0.475563
0.407066
0.351265
0.329182
0.321165
0.301951
0.257043
0.185891
0.148332
0.159225
0.195079
0.222007
0.278372
0.364103
0.408137
0.386579
0.31458
0.233546
0.213625
0.234607
0.312354
0.439321
0.471835
0.424051
0.320296
0.187847
0.108608
0.0864357
0.0842371
0.0828602
0.0775932
0.0757674
0.0861468
0.10651
0.140002
0.163279
0.140373
0.0959469
0.086701
0.0970165
0.118233
0.13016
0.129959
0.121849
0.105104
0.0985401
0.100534
0.109227
0.125822
0.138937
0.142421
0.143824
0.141318
0.1334
0.123521
0.113862
0.104268
0.0934946
0.0843336
0.0773673
0.0722285
2.61281
2.65449
2.5485
2.26865
1.85066
1.38962
1.00434
0.781998
0.713692
0.718649
0.766532
0.85792
0.978297
1.0687
1.11288
1.11889
1.10556
1.06897
1.04728
1.07053
1.16871
1.37668
1.576
1.56789
1.4484
1.26796
1.14642
1.07236
1.00939
0.951604
0.903441
0.861229
0.816299
0.763954
0.71739
0.693521
0.675182
0.669974
0.674459
0.6775
0.669232
0.643617
0.59383
0.528491
0.450442
0.377898
0.337565
0.311991
0.283751
0.241413
0.174187
0.150198
0.168052
0.233242
0.29609
0.319888