/*--------------------------------*- C++ -*----------------------------------*\
| =========                 |                                                 |
| \\      /  F ield         | OpenFOAM: The Open Source CFD Toolbox           |
|  \\    /   O peration     | Version:  v1912                                 |
|   \\  /    A nd           | Website:  www.openfoam.com                      |
|    \\/     M anipulation  |                                                 |
\*---------------------------------------------------------------------------*/
FoamFile
{
    version     2.0;
    format      ascii;
    class       volScalarField;
    location    "40";
    object      p;
}
// * * * * * * * * * * * * * * * * * * * * * * * * * * * * * * * * * * * * * //

dimensions      [1 -1 -2 0 0 0 0];


internalField   nonuniform List<scalar> 
14268
(
45.4227
49.0243
48.6249
53.3429
47.2269
44.5134
46.3495
46.7502
34.6179
27.3466
29.1457
34.3263
28.6773
22.3711
13.2209
11.6632
11.2517
8.15981
7.26726
8.44037
2.50782
2.17027
2.7314
1.17929
-3.17855
-4.00593
-4.72838
-5.85037
-6.61468
-8.72958
-11.1671
-9.3501
-10.778
-13.2689
-15.9723
-18.3759
-20.0482
-21.6049
-22.7012
-22.0331
-21.8108
-22.5203
-22.4875
-22.2747
-22.211
-22.5403
-23.3628
-24.4342
-25.3326
-25.9578
-26.437
-26.668
-26.766
-26.6991
-26.6399
-26.5558
-26.5814
-26.9164
-27.659
-28.4403
-28.8067
-28.9705
-29.0246
-29.2739
-29.7229
-30.0568
-30.3672
-30.713
-31.1144
-31.2126
-31.3343
-32.041
-32.8855
-33.4983
-33.9604
-34.3505
-34.7553
-35.154
-35.5309
-35.888
-36.2432
-36.544
-36.8319
-37.1236
-37.3902
-37.7287
-37.858
-37.8314
-37.9447
-38.1967
-38.4657
-38.826
-39.1571
-39.5379
-39.8839
-39.9712
-40.0245
-40.3059
-40.8049
-41.3055
-41.6997
-42.1648
-42.5853
-42.9764
42.0151
46.8459
46.6872
50.826
43.3427
39.8874
41.6085
44.1166
31.8475
25.5005
27.0154
31.7343
26.8022
19.6564
10.5245
8.80029
8.56072
6.04032
4.52104
4.69419
0.212066
-0.914567
-0.109124
-0.595961
-5.20704
-4.9217
-5.7162
-7.12301
-8.07184
-9.32166
-11.9982
-11.2732
-12.08
-13.9783
-16.6223
-18.981
-20.7079
-22.1393
-23.2373
-22.6663
-22.567
-23.2983
-23.2207
-22.8991
-22.6523
-22.8265
-23.6213
-24.6669
-25.603
-26.3045
-26.8019
-27.0597
-27.1891
-27.176
-27.1215
-26.8907
-26.8031
-27.1004
-27.8613
-28.6621
-29.0462
-29.2218
-29.2658
-29.4764
-29.9042
-30.229
-30.5337
-30.8776
-31.2829
-31.424
-31.5886
-32.2469
-33.0658
-33.6714
-34.136
-34.5311
-34.9333
-35.3304
-35.7109
-36.0752
-36.4365
-36.7387
-37.019
-37.2963
-37.5476
-37.8909
-38.0741
-38.1329
-38.2528
-38.502
-38.7057
-39.0159
-39.3521
-39.7051
-40.0463
-40.208
-40.3872
-40.6958
-41.0527
-41.4953
-41.8501
-42.3098
-42.7308
-43.1254
40.0088
44.9016
44.8266
48.7486
40.3496
36.2585
39.7873
40.8749
29.854
24.4054
25.7042
30.9915
25.4944
18.629
8.99192
7.71075
7.38065
5.14001
3.29618
4.1758
-1.44303
-2.34171
-1.42784
-1.81644
-5.53734
-5.63549
-6.38722
-7.44821
-8.17082
-9.70461
-12.429
-12.0577
-12.643
-14.3879
-17.1499
-19.3807
-20.9711
-22.2784
-23.4082
-23.128
-23.0762
-23.672
-23.4975
-23.2625
-22.9424
-23.094
-23.8351
-24.8344
-25.8197
-26.5228
-27.0007
-27.2579
-27.3959
-27.387
-27.3314
-27.1119
-27.0086
-27.2785
-28.0496
-28.8691
-29.2533
-29.4504
-29.465
-29.6539
-30.0569
-30.3688
-30.6678
-31.0081
-31.4348
-31.6453
-31.8138
-32.4528
-33.252
-33.8526
-34.3264
-34.7308
-35.1334
-35.5226
-35.8855
-36.2258
-36.593
-36.8943
-37.1737
-37.446
-37.6971
-38.0534
-38.2327
-38.3083
-38.4436
-38.6886
-38.8955
-39.1894
-39.5003
-39.8468
-40.1895
-40.3656
-40.5736
-40.884
-41.2239
-41.6607
-41.9926
-42.4489
-42.8706
-43.2665
37.7896
43.1601
42.875
46.9503
36.2252
33.7263
35.8145
39.3123
28.9596
23.458
23.7288
28.4044
23.6504
16.7378
7.0894
5.62498
5.36406
2.99661
0.569094
0.243259
-3.56238
-4.86648
-3.04283
-3.28766
-6.75254
-6.74405
-8.17116
-9.77573
-9.48352
-10.3072
-13.3047
-13.6561
-13.1492
-14.7068
-17.4854
-19.6519
-21.308
-22.6751
-23.768
-23.4418
-23.4408
-24.0254
-23.7178
-23.4763
-23.3399
-23.413
-24.0668
-25.0558
-26.1132
-26.8901
-27.3957
-27.6561
-27.813
-27.8609
-27.8142
-27.4339
-27.254
-27.489
-28.2455
-29.0895
-29.5067
-29.7074
-29.6687
-29.8172
-30.2099
-30.5108
-30.7981
-31.1378
-31.5767
-31.8531
-32.0658
-32.6803
-33.4477
-34.0328
-34.4992
-34.9024
-35.3055
-35.6944
-36.0568
-36.3904
-36.7357
-37.0501
-37.3342
-37.5996
-37.8492
-38.2132
-38.4231
-38.5751
-38.7208
-38.9727
-39.1483
-39.4002
-39.6673
-40.0038
-40.3326
-40.5793
-40.9045
-41.2307
-41.4537
-41.8303
-42.1319
-42.5848
-43.0096
-43.4081
32.6616
40.5734
41.1163
44.9704
37.6195
35.0097
37.2229
36.5384
27.8448
22.4565
19.3138
24.0529
21.9163
15.8725
5.53812
4.33806
3.81839
2.44243
-2.83707
-7.25177
-6.71503
-5.17489
-4.1976
-4.43376
-7.65104
-7.41626
-8.33613
-11.4593
-10.3664
-10.7572
-13.8985
-16.4525
-13.3223
-14.8777
-17.7609
-20.0396
-21.6796
-23.0652
-24.0992
-23.6398
-23.6477
-24.1672
-24.0011
-23.4829
-23.572
-23.7268
-24.2905
-25.2485
-26.3239
-27.0962
-27.5094
-27.7738
-27.9354
-27.992
-27.9936
-27.5824
-27.4842
-27.7008
-28.3808
-29.2651
-29.7327
-29.8674
-29.7637
-29.9513
-30.3562
-30.6534
-30.9295
-31.2699
-31.7124
-32.0465
-32.2837
-32.883
-33.6018
-34.1711
-34.6213
-35.0149
-35.4188
-35.8042
-36.1725
-36.517
-36.8785
-37.2004
-37.4874
-37.7544
-37.9991
-38.346
-38.5405
-38.7149
-38.8878
-39.1563
-39.3454
-39.6035
-39.8342
-40.1393
-40.433
-40.6662
-41.0156
-41.3982
-41.6014
-41.9286
-42.2677
-42.7142
-43.1363
-43.5367
32.6052
37.304
37.3803
41.3129
36.083
31.945
30.713
29.8315
27.0042
21.3962
15.6366
18.7388
18.0179
14.0302
4.00518
3.33128
1.76553
0.256157
-5.20147
-9.23016
-8.27879
-7.25295
-5.68493
-6.81333
-8.78604
-8.09905
-8.18802
-12.0027
-12.18
-11.3898
-16.1024
-17.7495
-14.3133
-15.3582
-18.2272
-20.5881
-22.5799
-23.7147
-24.576
-24.1343
-24.165
-25.0067
-24.6364
-23.7923
-23.7657
-24.1152
-24.5728
-25.4772
-26.677
-27.2625
-27.6507
-27.9096
-28.0738
-28.1332
-28.1366
-27.8004
-27.7299
-27.9365
-28.5421
-29.398
-29.9422
-29.9645
-29.8886
-30.1022
-30.5007
-30.7925
-31.0628
-31.4044
-31.8502
-32.243
-32.5032
-33.035
-33.7146
-34.2765
-34.7307
-35.131
-35.5346
-35.922
-36.2963
-36.6455
-37.0082
-37.3364
-37.6323
-37.9032
-38.153
-38.4795
-38.6891
-38.9023
-39.111
-39.3807
-39.5656
-39.7925
-40.0156
-40.298
-40.5717
-40.7784
-41.169
-41.5841
-41.7508
-42.0444
-42.4024
-42.8494
-43.2724
-43.6707
34.3762
40.5254
32.1256
39.2442
35.0497
30.4151
16.1532
19.2
25.8943
20.011
17.5051
24.0998
17.9322
12.702
3.35022
2.55467
0.456419
-0.451755
-5.53319
-4.30834
-6.77712
-8.43607
-6.69406
-7.09106
-9.50136
-8.3952
-8.16797
-10.0113
-12.6407
-12.4484
-17.0317
-17.2284
-14.7901
-15.8375
-18.8145
-21.0782
-22.8539
-23.7171
-24.9396
-24.5967
-24.7358
-25.8742
-25.2408
-24.0727
-23.8705
-24.4001
-24.8187
-25.666
-26.7336
-27.1999
-27.7618
-28.113
-28.3048
-28.3319
-28.3465
-28.0581
-27.8919
-28.2045
-28.7342
-29.5343
-30.0425
-30.0811
-30.0708
-30.2757
-30.6454
-30.9302
-31.1963
-31.5346
-31.9814
-32.4364
-32.705
-33.2087
-33.8584
-34.4186
-34.8867
-35.2938
-35.6973
-36.0804
-36.4331
-36.7803
-37.142
-37.4654
-37.7633
-38.0398
-38.303
-38.6039
-38.8237
-39.0484
-39.2134
-39.4949
-39.7107
-39.9647
-40.1755
-40.4534
-40.7092
-40.8974
-41.2628
-41.8081
-41.8584
-42.1759
-42.5352
-42.9785
-43.4033
-43.8032
33.1248
38.5362
36.9776
38.3754
30.7467
25.0368
4.7674
12.284
25.173
19.7131
21.5073
25.6985
20.7143
11.7924
2.64017
1.69198
-3.62979
-6.04937
-6.92414
-2.58582
-7.16959
-8.32536
-7.59322
-6.3982
-10.3246
-8.96543
-8.82684
-11.0317
-13.9697
-14.1335
-16.6635
-17.4221
-15.7599
-16.467
-19.4252
-22.6814
-22.7513
-23.6946
-25.1299
-25.1358
-25.4797
-26.8432
-25.6564
-24.3914
-24.0229
-24.5577
-25.1321
-25.896
-26.7786
-27.5234
-28.1384
-28.5517
-28.7891
-28.8635
-28.7145
-28.3401
-28.0322
-28.452
-28.9435
-29.6906
-30.1406
-30.2416
-30.2482
-30.4415
-30.789
-31.066
-31.3303
-31.661
-32.1124
-32.6307
-32.9458
-33.4367
-34.0461
-34.5914
-35.044
-35.4329
-35.8343
-36.2116
-36.5614
-36.9208
-37.2857
-37.606
-37.8973
-38.1767
-38.4588
-38.7507
-38.9969
-39.2692
-39.4481
-39.7082
-39.8768
-40.1151
-40.3341
-40.6097
-40.8659
-41.075
-41.4676
-42.2065
-42.0416
-42.344
-42.6753
-43.1055
-43.5328
-43.9376
30.5654
37.4722
36.441
39.1098
25.1757
22.7882
9.31276
11.0637
22.941
17.8784
18.4036
15.7598
19.1909
11.845
1.99026
0.893783
-7.30974
-16.5046
-11.7106
-7.4643
-8.43172
-8.71593
-7.39481
-6.42939
-10.7375
-9.51566
-9.2887
-13.9997
-15.3565
-15.6131
-15.8505
-17.0969
-18.9271
-16.8543
-20.557
-23.3008
-22.6261
-23.937
-25.164
-25.6372
-26.2444
-26.3267
-24.9925
-24.4436
-24.1987
-24.5529
-25.4355
-26.1353
-26.8057
-27.7248
-28.4032
-28.5836
-28.8444
-29.1038
-29.0468
-28.5763
-28.1935
-28.5389
-29.1696
-29.8605
-30.2645
-30.3902
-30.4045
-30.5986
-30.9327
-31.2018
-31.4643
-31.7849
-32.2405
-32.829
-33.1736
-33.6529
-34.227
-34.7269
-35.1561
-35.54
-35.9488
-36.339
-36.6925
-37.0622
-37.4282
-37.7506
-38.0392
-38.3218
-38.6124
-38.894
-39.1369
-39.421
-39.6156
-39.8802
-40.0223
-40.2466
-40.4767
-40.7575
-41.0076
-41.2136
-41.7115
-42.3132
-42.2081
-42.4883
-42.8132
-43.235
-43.6562
-44.0656
29.6466
34.8643
26.4564
28.9908
27.3215
24.9686
10.5564
15.7414
13.2217
9.80741
12.5089
3.57777
17.5918
10.5891
1.23155
0.330473
-8.69286
-14.961
-15.3716
-14.5118
-9.71052
-11.876
-8.13796
-7.62882
-11.5627
-10.1951
-10.0003
-13.9186
-16.6817
-15.6335
-15.3236
-16.7391
-24.9405
-17.3869
-24.5869
-22.639
-23.2821
-24.342
-25.3037
-26.167
-27.9205
-25.8402
-25.1349
-24.6984
-24.4514
-24.5748
-25.3013
-26.3585
-26.9733
-28.0726
-28.4986
-28.6021
-28.8623
-29.1493
-29.5436
-28.8614
-28.4482
-28.6515
-29.3533
-30.0289
-30.4187
-30.5518
-30.5441
-30.7433
-31.0751
-31.3372
-31.5987
-31.9097
-32.3698
-33.0434
-33.493
-33.9047
-34.3652
-34.8408
-35.2842
-35.6798
-36.0848
-36.4689
-36.8315
-37.2027
-37.5676
-37.8923
-38.1812
-38.4667
-38.7692
-39.0447
-39.2944
-39.6213
-39.8284
-40.0974
-40.2222
-40.405
-40.6051
-40.9057
-41.1574
-41.391
-42.0042
-42.4021
-42.4066
-42.6365
-42.9535
-43.3704
-43.7861
-44.1962
26.5684
20.2745
4.15722
19.1075
28.4081
24.8618
15.3197
22.0849
11.4483
13.0445
16.3342
4.01858
16.5154
9.75024
0.585614
-1.24875
-6.31858
-9.26622
-10.027
-19.1546
-10.4938
-19.6451
-9.81607
-8.26912
-11.6053
-10.7589
-10.4384
-13.5636
-18.162
-15.1756
-15.6279
-15.7438
-24.6148
-18.009
-24.8634
-21.9327
-23.7157
-24.548
-25.527
-26.7893
-27.9369
-25.6056
-25.4813
-25.0204
-24.6946
-24.7052
-25.3095
-26.6624
-27.1788
-28.3528
-28.41
-28.5235
-28.7945
-29.0867
-29.6352
-29.132
-28.7437
-28.8498
-29.4436
-30.181
-30.5732
-30.7178
-30.6803
-30.8703
-31.2113
-31.4724
-31.7332
-32.0386
-32.5012
-33.2571
-33.7707
-34.1171
-34.4706
-34.9696
-35.416
-35.8156
-36.2116
-36.5959
-36.9697
-37.3417
-37.7048
-38.0295
-38.3185
-38.6074
-38.9198
-39.178
-39.4294
-39.7712
-39.9922
-40.2697
-40.3876
-40.5633
-40.7253
-41.0488
-41.2993
-41.5346
-42.0831
-42.4503
-42.5695
-42.7809
-43.0921
-43.5052
-43.9148
-44.323
18.8657
6.3853
-0.163032
15.7186
24.1416
20.9226
20.0817
25.764
14.5213
16.4273
15.5382
4.98875
10.2608
8.33031
-0.00736989
-6.35785
-5.63326
-5.33328
-8.7971
-18.9501
-14.1645
-22.2764
-18.0041
-9.19294
-11.6796
-11.4086
-11.031
-13.1508
-18.6273
-14.9207
-16.1389
-16.3455
-23.5757
-18.8988
-24.2236
-22.1609
-23.9155
-24.8672
-25.8494
-28.2215
-27.8039
-25.92
-25.7002
-25.338
-24.9501
-24.9236
-25.497
-27.0534
-27.3979
-28.4874
-28.4031
-28.5793
-28.7714
-29.0548
-29.6328
-29.3847
-29.0025
-29.0318
-29.5631
-30.3191
-30.7292
-30.8787
-30.8351
-30.9992
-31.3398
-31.6075
-31.8688
-32.1717
-32.6348
-33.5656
-33.8068
-34.1029
-34.5987
-35.1223
-35.5661
-35.9565
-36.3422
-36.7256
-37.1042
-37.4797
-37.8432
-38.1683
-38.4569
-38.7479
-39.0637
-39.2862
-39.5722
-39.9587
-40.186
-40.4443
-40.5294
-40.7036
-40.8521
-41.1818
-41.446
-41.7339
-42.1578
-42.5257
-42.7652
-42.9399
-43.2331
-43.6402
-44.0479
-44.4536
22.3228
23.1722
6.22867
17.5889
16.9945
15.4817
13.5563
25.5309
17.7043
16.1105
10.8998
5.45554
-4.0512
4.6686
-0.627649
-3.93602
-4.84295
-5.361
-11.0149
-16.0739
-18.9231
-20.2102
-27.2676
-9.82705
-11.1455
-12.0444
-11.4632
-12.7581
-17.6836
-14.6526
-16.6275
-18.5077
-22.9524
-19.2926
-23.1817
-22.5598
-24.0328
-25.0519
-26.112
-28.4954
-27.4152
-26.0605
-25.9614
-25.494
-25.1822
-25.1307
-25.721
-27.1661
-27.5869
-28.4192
-28.4489
-28.7096
-28.8324
-28.9506
-29.585
-29.5379
-29.3314
-29.18
-29.7116
-30.4289
-30.8675
-31.0346
-30.9998
-31.1396
-31.4647
-31.7405
-32.0049
-32.3066
-32.7682
-33.7418
-33.8077
-34.1067
-34.7593
-35.2761
-35.7096
-36.09
-36.4715
-36.8539
-37.2376
-37.6162
-37.9792
-38.304
-38.5913
-38.8783
-39.2014
-39.3821
-39.6983
-40.1093
-40.346
-40.6048
-40.6966
-40.8382
-40.9837
-41.3015
-41.5764
-41.8939
-42.2044
-42.5636
-42.9207
-43.086
-43.3698
-43.7736
-44.1755
-44.5803
20.2229
31.7873
19.5189
20.7529
7.14685
9.94122
13.8946
23.9012
17.7016
14.883
3.48588
6.11518
-16.1994
0.542385
-1.1131
-2.4343
-4.4009
-7.85708
-13.3275
-13.4216
-21.7343
-19.1418
-25.2794
-11.4784
-11.4944
-12.7569
-12.068
-13.1897
-17.3387
-14.8823
-17.1112
-19.3995
-21.8127
-19.7599
-21.4864
-22.8347
-24.2145
-25.4657
-26.3901
-28.2299
-26.919
-26.3385
-26.2954
-25.6284
-25.411
-25.339
-25.9532
-27.1231
-27.7795
-28.3848
-28.6392
-28.9034
-29.0269
-29.0154
-29.5318
-29.7007
-29.6335
-29.3436
-29.8684
-30.5593
-31.0035
-31.183
-31.1624
-31.2948
-31.5947
-31.8738
-32.1431
-32.4412
-32.9052
-33.7888
-33.7998
-34.2326
-34.9388
-35.4249
-35.8408
-36.2158
-36.5973
-36.9816
-37.3707
-37.7524
-38.1133
-38.4351
-38.7245
-38.9953
-39.3051
-39.4859
-39.8427
-40.2876
-40.5366
-40.7996
-40.8746
-40.9817
-41.1309
-41.4206
-41.6985
-42.0886
-42.2772
-42.602
-43.0385
-43.2214
-43.5086
-43.906
-44.3044
-44.7039
-4.06306
23.1948
29.0336
29.3481
8.47787
12.8865
15.772
21.5576
15.7759
13.178
3.52262
7.04359
-11.8952
-0.581153
-2.04422
-2.78661
-4.92312
-7.20301
-11.6112
-10.3248
-18.9072
-15.1512
-23.7449
-20.5994
-12.1239
-15.423
-15.9255
-14.2347
-15.461
-15.5804
-17.8903
-18.6138
-19.3791
-21.3005
-21.161
-23.4414
-24.3286
-25.6327
-26.4703
-27.435
-26.6219
-26.5797
-26.5311
-25.8002
-25.6568
-25.65
-26.2714
-27.0938
-28.0681
-28.3909
-28.847
-29.1225
-29.2586
-29.223
-29.369
-29.7744
-29.7313
-29.5846
-30.0987
-30.7716
-31.2188
-31.4058
-31.3941
-31.5319
-31.7954
-32.0712
-32.3498
-32.6437
-33.1048
-33.7947
-33.7813
-34.5068
-35.1935
-35.6313
-36.0109
-36.3881
-36.7808
-37.1728
-37.5674
-37.9534
-38.3066
-38.6233
-38.9134
-39.1552
-39.443
-39.6586
-40.0383
-40.5306
-40.8382
-41.0994
-41.1181
-41.2211
-41.3576
-41.6063
-41.8933
-42.3425
-42.4566
-42.6782
-43.097
-43.4037
-43.7138
-44.1056
-44.4928
-44.8825
-10.0644
11.4806
22.248
26.2089
18.2263
15.9404
13.9142
15.6243
12.9566
10.3754
11.7841
9.68889
1.92653
4.47419
-3.045
-4.20418
-6.95152
-7.35486
-10.5636
-11.4392
-13.7332
-13.1303
-20.7826
-27.5279
-13.2847
-18.414
-19.2003
-15.3698
-15.1819
-16.7121
-20.3753
-18.5143
-18.3897
-24.2492
-21.8085
-23.8692
-24.9149
-25.8707
-26.8704
-27.2171
-26.9085
-26.9998
-26.7658
-26.062
-25.9234
-26.0009
-26.7706
-27.4026
-28.3425
-28.6994
-29.1716
-29.4496
-29.5895
-29.5626
-29.5089
-29.8364
-29.7935
-29.9613
-30.4441
-31.0721
-31.5182
-31.6917
-31.6949
-31.8359
-32.0641
-32.3154
-32.6007
-32.9068
-33.329
-33.8553
-34.0158
-34.8809
-35.5092
-35.8623
-36.2582
-36.6367
-37.0289
-37.4184
-37.8144
-38.2
-38.5685
-38.8802
-39.1665
-39.3888
-39.6361
-39.9237
-40.3138
-40.8996
-41.2164
-41.4811
-41.4629
-41.5362
-41.6181
-41.891
-42.1879
-42.7219
-42.8498
-43.0187
-43.2861
-43.6747
-43.9885
-44.3695
-44.7465
-45.127
-6.25857
2.77623
16.5618
12.9152
14.2535
13.9014
12.8135
11.5245
7.59476
4.3317
10.601
12.1892
-6.49062
-0.0483393
-5.6465
-6.99663
-8.26421
-8.28761
-11.176
-11.7378
-13.8347
-13.2881
-16.199
-24.97
-14.0872
-16.3268
-17.4495
-16.2537
-15.9649
-17.0456
-20.2654
-18.8599
-19.1035
-24.8691
-22.1577
-24.1771
-25.2106
-26.3431
-27.309
-27.398
-27.1918
-27.3536
-27.2044
-26.4123
-26.2843
-26.3632
-27.2415
-27.7938
-28.4831
-28.965
-29.4512
-29.7295
-29.8802
-29.8447
-29.7915
-29.9948
-30.0873
-30.3667
-30.7836
-31.3715
-31.8084
-31.9681
-31.9863
-32.1312
-32.3433
-32.5596
-32.8354
-33.1555
-33.5625
-34.025
-34.3305
-35.2648
-35.7971
-36.0915
-36.5168
-36.9025
-37.2889
-37.6601
-38.0344
-38.4242
-38.8214
-39.1499
-39.4346
-39.6568
-39.8705
-40.1788
-40.5715
-41.1912
-41.3977
-41.677
-41.7676
-41.8358
-41.8767
-42.1519
-42.4775
-42.9364
-43.1642
-43.3592
-43.5907
-43.9809
-44.2673
-44.633
-45.0004
-45.3786
-5.08892
2.11509
6.85642
10.5626
2.7832
9.65763
10.3432
10.2629
-1.65804
2.76227
6.56168
8.21052
-7.7278
-9.98558
-12.2374
-10.1634
-9.68632
-9.75915
-12.1569
-12.5215
-15.3717
-13.9266
-14.6713
-21.6809
-14.9184
-14.6026
-15.6472
-17.3796
-17.0496
-17.575
-19.506
-19.4434
-20.0738
-24.0733
-22.6589
-24.585
-25.5498
-27.0326
-27.7426
-27.7168
-27.5803
-27.6977
-27.5054
-26.8343
-26.7463
-26.7506
-27.4675
-28.0492
-28.6765
-29.2734
-29.7419
-30.0276
-30.1821
-30.1643
-30.0972
-30.2184
-30.4801
-30.7698
-31.1254
-31.6674
-32.0879
-32.2352
-32.2738
-32.4218
-32.6248
-32.8222
-33.0809
-33.4032
-33.8147
-34.28
-34.6801
-35.6575
-36.029
-36.3512
-36.7812
-37.1665
-37.5474
-37.9115
-38.2677
-38.6439
-39.0536
-39.4081
-39.7026
-39.9247
-40.135
-40.4313
-40.8403
-41.3841
-41.5909
-41.8733
-42.0671
-42.1372
-42.1529
-42.373
-42.7146
-43.0966
-43.3772
-43.6777
-43.9298
-44.2899
-44.5414
-44.8921
-45.2555
-45.635
-3.54806
2.31698
2.08788
11.0585
-1.3257
8.08552
8.70764
5.28051
-0.26785
8.21162
-0.149186
-1.31651
-6.5598
-11.6032
-7.60367
-7.76921
-10.8086
-10.5328
-12.688
-12.9898
-14.9138
-14.2866
-14.9489
-17.1888
-15.5504
-14.9162
-14.9135
-19.041
-17.6736
-18.4177
-19.42
-19.9443
-20.8856
-23.1057
-23.0269
-24.8664
-25.8594
-27.5571
-28.0963
-28.0381
-27.9268
-28.0465
-27.7145
-27.2025
-27.1908
-27.148
-27.6053
-28.2763
-28.9259
-29.5315
-30.0189
-30.3051
-30.4636
-30.4454
-30.3873
-30.4359
-30.8633
-31.1385
-31.4448
-31.9479
-32.3508
-32.493
-32.5559
-32.709
-32.9009
-33.0932
-33.3409
-33.6589
-34.0761
-34.5404
-35.0311
-35.8812
-36.1862
-36.6119
-37.0363
-37.4234
-37.8034
-38.1692
-38.5216
-38.8747
-39.2711
-39.6398
-39.966
-40.1866
-40.3941
-40.6796
-41.0939
-41.537
-41.7678
-42.0535
-42.3242
-42.4169
-42.4284
-42.6132
-42.8996
-43.2295
-43.5574
-43.9161
-44.219
-44.5839
-44.8121
-45.148
-45.5066
-45.8875
-1.64663
1.11416
-1.74678
11.2949
1.71532
8.89754
7.44694
2.62524
1.80077
8.85434
-6.24377
-2.72336
-7.18899
-9.10836
-6.00639
-7.41923
-13.3292
-11.6164
-13.361
-13.5038
-15.1882
-14.9209
-15.3713
-16.519
-16.8465
-15.6978
-15.9734
-20.62
-19.3258
-19.2175
-19.8354
-20.4554
-21.3463
-22.2555
-23.6393
-25.3626
-26.1269
-28.0626
-28.4797
-28.3511
-28.273
-28.4389
-27.9495
-27.5622
-27.5976
-27.7461
-27.8421
-28.5498
-29.2184
-29.8262
-30.298
-30.5895
-30.7525
-30.7426
-30.6904
-30.6997
-31.2178
-31.4991
-31.767
-32.2185
-32.6056
-32.7536
-32.8388
-32.9874
-33.1807
-33.369
-33.6107
-33.9241
-34.3397
-34.8004
-35.3925
-36.0151
-36.3943
-36.8605
-37.2862
-37.6793
-38.0585
-38.4255
-38.7805
-39.1243
-39.4965
-39.867
-40.2173
-40.4451
-40.6522
-40.9316
-41.331
-41.7054
-41.9664
-42.2509
-42.5673
-42.6768
-42.7006
-42.8772
-43.142
-43.4625
-43.8331
-44.1424
-44.496
-44.8431
-45.0635
-45.3967
-45.7555
-46.1382
0.70067
1.30885
-3.15108
11.7351
5.87307
7.9807
6.9914
1.77332
0.724704
7.81849
-4.15382
-1.34587
-6.09227
-7.97656
-7.45006
-8.52057
-14.7588
-12.6188
-13.8229
-14.013
-15.7296
-15.3718
-15.8721
-16.7145
-17.6264
-16.3577
-17.1555
-20.5685
-20.1993
-20.1939
-20.4254
-20.9797
-21.5876
-22.2816
-23.9579
-25.6764
-26.3724
-28.3256
-28.7783
-28.6558
-28.5806
-28.728
-28.1806
-27.8336
-27.8771
-27.8318
-28.1309
-28.8417
-29.4937
-30.0857
-30.5697
-30.8638
-31.0291
-31.0271
-30.9773
-30.9953
-31.4464
-31.7826
-32.0407
-32.4625
-32.8536
-33.0138
-33.1123
-33.2653
-33.4615
-33.6445
-33.8819
-34.1903
-34.6002
-35.0604
-35.6365
-36.1879
-36.6548
-37.1117
-37.5271
-37.9239
-38.3092
-38.6795
-39.0369
-39.3808
-39.7379
-40.101
-40.451
-40.6905
-40.9031
-41.1771
-41.5499
-41.8503
-42.149
-42.4327
-42.7601
-42.8981
-42.9568
-43.1412
-43.4191
-43.7415
-44.1167
-44.3725
-44.7132
-45.0651
-45.301
-45.6419
-46.0046
-46.3865
-2.46853
-5.18159
0.329523
2.05564
0.797902
-2.68526
-3.6123
-2.3306
-1.35913
-9.85277
-10.1516
-4.17003
-7.1838
-14.4315
-14.9298
-16.0128
-17.5895
-16.6387
-17.3455
-17.3389
-18.7895
-19.8406
-20.5123
-18.2818
-20.416
-21.345
-21.5443
-22.0248
-22.8244
-22.8817
-23.0481
-23.3612
-24.241
-25.2244
-26.4778
-27.4771
-28.3052
-29.6261
-30.1007
-30.2972
-30.2712
-30.0529
-29.7483
-29.3906
-29.1847
-29.381
-29.8621
-30.4249
-31.0265
-31.6348
-32.0685
-32.3687
-32.5412
-32.5559
-32.5394
-32.5518
-32.5677
-32.9173
-33.3304
-33.7424
-34.1844
-34.4141
-34.5395
-34.7241
-34.9478
-35.1247
-35.3377
-35.6084
-35.9767
-36.4532
-36.8502
-37.3889
-37.9749
-38.4052
-38.798
-39.2087
-39.6126
-39.9994
-40.3659
-40.7135
-41.048
-41.3609
-41.6561
-41.9342
-42.1798
-42.4293
-42.6465
-42.8514
-43.0869
-43.3396
-43.6454
-43.9233
-44.1723
-44.4499
-44.7805
-45.1547
-45.5036
-45.6847
-45.9643
-46.2366
-46.518
-46.8492
-47.2236
-47.6078
-21.1527
-19.2656
-15.553
-11.4691
-10.5434
-13.268
-15.9557
-16.5311
-16.6957
-20.8857
-21.6975
-12.043
-11.9273
-18.7839
-23.5206
-22.5357
-21.973
-22.4181
-22.5177
-22.8229
-24.0006
-25.3536
-24.6262
-24.2504
-25.7082
-26.7612
-27.5544
-27.539
-27.1532
-27.4259
-27.372
-28.0492
-28.2877
-28.8635
-29.2882
-30.0571
-31.1973
-32.2063
-32.9212
-33.2715
-33.265
-32.9871
-32.7569
-32.5373
-32.0809
-32.2248
-32.3877
-32.9732
-33.6109
-34.2119
-34.6916
-34.9888
-35.1846
-35.2593
-35.2849
-35.3176
-35.3668
-35.55
-35.8743
-36.2523
-36.6664
-36.9969
-37.1665
-37.3192
-37.4944
-37.645
-37.8348
-38.1522
-38.5095
-38.9305
-39.4423
-39.8989
-40.3429
-40.7707
-41.1614
-41.5359
-41.9484
-42.354
-42.736
-43.0936
-43.4239
-43.7178
-43.9932
-44.2507
-44.5145
-44.7437
-44.9
-45.0545
-45.2994
-45.5617
-45.8154
-46.0904
-46.3399
-46.6153
-46.9071
-47.2701
-47.671
-47.9198
-48.1934
-48.5249
-48.7822
-49.0616
-49.3967
-49.7603
-24.4102
-24.1103
-21.3899
-17.9474
-17.8543
-20.3518
-22.168
-22.4114
-21.5923
-23.8049
-26.936
-24.1748
-24.337
-27.0375
-27.9051
-27.7179
-27.4758
-27.116
-26.9785
-26.9185
-27.5399
-28.4233
-29.24
-30.3249
-30.6163
-31.1605
-32.0954
-31.8433
-31.4877
-31.3007
-31.3946
-31.9861
-32.1932
-32.5152
-33.1863
-33.4795
-34.5375
-35.6559
-36.2135
-36.3963
-36.2014
-35.7246
-35.3291
-35.0136
-34.5967
-34.5342
-34.9213
-35.5274
-36.2231
-36.8797
-37.34
-37.6241
-37.8171
-37.8992
-37.9664
-38.0298
-38.0952
-38.2887
-38.5897
-38.8867
-39.2726
-39.5904
-39.7077
-39.8659
-40.0201
-40.1512
-40.3275
-40.6456
-41.006
-41.4076
-41.8745
-42.2905
-42.7141
-43.126
-43.5194
-43.9247
-44.329
-44.7129
-45.0768
-45.4286
-45.7683
-46.0862
-46.3605
-46.614
-46.8371
-47.0482
-47.2509
-47.4346
-47.6535
-47.8844
-48.1318
-48.3772
-48.6083
-48.884
-49.1762
-49.5192
-49.869
-50.2006
-50.5073
-50.7851
-51.0347
-51.3212
-51.6374
-51.9716
-27.4595
-26.736
-24.7301
-23.0815
-22.9553
-23.8811
-25.3379
-26.2717
-26.8606
-28.6811
-29.8012
-29.4677
-29.109
-29.4604
-30.4129
-30.8608
-30.7794
-30.63
-30.8891
-30.8306
-31.0345
-31.5509
-31.6819
-32.2519
-33.202
-34.37
-35.2531
-35.1702
-34.5783
-34.3787
-34.5377
-34.5616
-34.5459
-35.1336
-35.7233
-36.3876
-37.2364
-38.2552
-39.015
-39.195
-38.6525
-38.0679
-37.6471
-37.3817
-37.0209
-36.8606
-37.3883
-38.0605
-38.8219
-39.5265
-39.9727
-40.2046
-40.3374
-40.4473
-40.5696
-40.6175
-40.7543
-40.8562
-41.0915
-41.4285
-41.7869
-42.0547
-42.1997
-42.3557
-42.5038
-42.6675
-42.8433
-43.0876
-43.4538
-43.8584
-44.2652
-44.6673
-45.0861
-45.489
-45.885
-46.2849
-46.6714
-47.0275
-47.3865
-47.7358
-48.0727
-48.3927
-48.6658
-48.9103
-49.1251
-49.3262
-49.5176
-49.6866
-49.8964
-50.124
-50.3559
-50.5936
-50.8341
-51.112
-51.4289
-51.7566
-52.1064
-52.4056
-52.668
-52.9292
-53.2131
-53.4693
-53.7715
-54.1391
-28.7855
-28.2266
-27.2157
-26.5102
-26.3929
-27.4003
-28.8184
-29.9964
-30.8048
-31.8767
-33.1461
-33.555
-33.5766
-33.98
-34.4964
-34.7468
-34.8455
-34.8221
-34.8339
-34.7019
-34.6537
-34.9846
-35.254
-35.6723
-36.2638
-36.8374
-37.3669
-37.5199
-37.4381
-37.48
-37.6229
-37.9182
-38.1323
-38.3683
-38.9256
-39.6623
-40.4127
-41.1338
-41.7989
-41.6564
-41.2307
-40.5232
-39.9933
-39.7302
-39.4954
-39.4168
-39.8555
-40.6229
-41.4581
-42.1939
-42.6396
-42.7859
-42.8611
-42.9652
-43.1183
-43.2871
-43.3441
-43.3582
-43.5816
-43.9054
-44.1527
-44.3602
-44.6112
-44.8088
-44.971
-45.1626
-45.3503
-45.538
-45.8825
-46.2798
-46.664
-47.0559
-47.4668
-47.8748
-48.289
-48.6933
-49.0584
-49.3959
-49.731
-50.0674
-50.4127
-50.7304
-51.0071
-51.2343
-51.4167
-51.5971
-51.7823
-51.9619
-52.1591
-52.3724
-52.5961
-52.826
-53.0662
-53.3442
-53.6563
-53.9751
-54.3011
-54.6229
-54.9274
-55.1985
-55.4659
-55.7525
-56.002
-56.3185
-30.803
-30.5747
-30.0832
-29.8277
-30.1627
-31.2554
-32.7429
-34.0118
-35.1974
-36.4974
-37.3961
-37.5217
-37.2436
-37.2887
-37.4971
-37.6357
-37.7579
-37.8116
-37.728
-37.8265
-37.6576
-37.6326
-37.7111
-37.8979
-38.4449
-39.104
-39.6621
-40.0856
-40.3075
-40.4165
-40.5085
-40.655
-40.9119
-41.2615
-41.8018
-42.5314
-43.1718
-43.7082
-43.9623
-44.0007
-43.6499
-42.9908
-42.4609
-42.2413
-42.0605
-42.0693
-42.5072
-43.2725
-44.1258
-44.8589
-45.3643
-45.4285
-45.4304
-45.5268
-45.6529
-45.8533
-45.844
-45.8946
-45.9943
-46.1662
-46.3803
-46.6107
-46.9342
-47.1936
-47.4063
-47.6267
-47.8321
-47.9993
-48.2943
-48.6884
-49.0722
-49.4526
-49.8598
-50.2815
-50.7132
-51.1098
-51.4493
-51.7702
-52.0994
-52.4366
-52.7829
-53.1066
-53.3752
-53.5912
-53.7427
-53.8965
-54.0633
-54.2312
-54.4174
-54.6196
-54.8312
-55.0516
-55.2885
-55.5659
-55.8693
-56.1758
-56.505
-56.8261
-57.1133
-57.3753
-57.6483
-57.9574
-58.211
-58.4894
-33.1535
-32.9144
-32.958
-33.4279
-34.2318
-35.3365
-36.5739
-37.7953
-38.9739
-39.7493
-40.2143
-40.3653
-40.0039
-40.0972
-40.3182
-40.4301
-40.5538
-40.6173
-40.6892
-40.6744
-40.5865
-40.5401
-40.6718
-41.0445
-41.571
-42.1182
-42.7039
-43.03
-43.1813
-43.3894
-43.5386
-43.6507
-43.9682
-44.2967
-44.6688
-45.2143
-45.6741
-45.9369
-46.1855
-46.273
-45.9171
-45.5335
-45.1771
-44.9719
-45.0124
-45.0077
-45.3051
-46.0212
-46.8562
-47.5909
-48.1428
-48.1876
-48.1266
-48.1162
-48.1543
-48.2258
-48.2758
-48.3589
-48.3844
-48.3917
-48.555
-48.8831
-49.2798
-49.6135
-49.8505
-50.0878
-50.308
-50.4788
-50.7087
-51.0873
-51.4789
-51.8576
-52.2666
-52.7084
-53.1516
-53.5343
-53.8595
-54.1685
-54.4879
-54.8169
-55.1626
-55.4723
-55.7474
-55.9527
-56.0875
-56.2203
-56.3637
-56.5218
-56.6949
-56.8827
-57.0848
-57.3031
-57.5443
-57.8228
-58.1128
-58.4136
-58.7416
-59.0599
-59.3297
-59.6143
-59.911
-60.1928
-60.4696
-60.7378
-35.9485
-36.0787
-36.4845
-37.2473
-38.2645
-39.1231
-40.1081
-40.8311
-41.0427
-41.1965
-41.6455
-42.1107
-42.3157
-42.6617
-42.9531
-43.0844
-43.1765
-43.302
-43.3109
-43.2839
-43.2535
-43.2905
-43.5276
-43.9585
-44.5616
-45.0543
-45.4504
-45.62
-45.8065
-46.0122
-46.098
-46.3477
-46.6379
-46.9211
-47.2766
-47.6895
-48.1089
-48.3232
-48.5402
-48.5284
-48.3745
-48.227
-48.0654
-47.7938
-47.7386
-47.8914
-48.2624
-48.8312
-49.6135
-50.3845
-50.9085
-51.0715
-50.9608
-50.7786
-50.718
-50.627
-50.6583
-50.7963
-50.8314
-50.8366
-50.9921
-51.2471
-51.6041
-52.006
-52.2987
-52.5548
-52.7698
-52.9561
-53.1425
-53.4806
-53.8801
-54.2746
-54.6877
-55.1416
-55.5941
-55.9525
-56.2643
-56.5776
-56.8901
-57.2095
-57.5455
-57.8492
-58.1159
-58.3027
-58.4328
-58.5548
-58.6878
-58.8319
-58.9866
-59.1584
-59.3501
-59.5659
-59.8124
-60.086
-60.3577
-60.6592
-60.9981
-61.3091
-61.5519
-61.8253
-62.1257
-62.4029
-62.6617
-62.9359
-39.486
-40.0677
-40.7943
-41.3016
-41.8524
-42.1651
-42.2222
-42.3535
-42.5904
-43.0003
-43.6156
-44.2385
-44.7634
-45.1136
-45.3952
-45.597
-45.7209
-45.8841
-45.884
-46.0828
-46.1576
-46.349
-46.769
-47.3013
-47.785
-47.9508
-48.0693
-48.1878
-48.3762
-48.5767
-48.7931
-49.0397
-49.2863
-49.575
-49.9004
-50.1636
-50.4596
-50.7448
-50.8491
-50.8676
-50.8387
-50.7795
-50.7725
-50.8485
-50.6483
-50.7057
-51.1659
-51.7665
-52.4124
-53.1546
-53.6782
-53.97
-53.7355
-53.4089
-53.2035
-53.0809
-53.0486
-53.2189
-53.264
-53.3697
-53.5161
-53.7165
-53.9755
-54.3085
-54.6635
-54.9524
-55.2162
-55.4235
-55.6106
-55.8935
-56.2878
-56.7013
-57.1174
-57.5721
-58.0334
-58.3793
-58.6824
-59.0123
-59.3412
-59.6231
-59.9391
-60.2557
-60.4818
-60.646
-60.7685
-60.8836
-61.0062
-61.1411
-61.2857
-61.4461
-61.6326
-61.8522
-62.108
-62.3793
-62.647
-62.9544
-63.2881
-63.564
-63.8053
-64.0987
-64.3969
-64.6522
-64.8896
-65.1482
-43.6299
-43.9604
-44.295
-44.3195
-44.0059
-43.7568
-43.8424
-44.2562
-44.8701
-45.6937
-46.4713
-47.078
-47.578
-47.877
-48.1495
-48.2402
-48.3169
-48.4547
-48.5533
-48.667
-48.9159
-49.2625
-49.8187
-50.3688
-50.4603
-50.3404
-50.4046
-50.6039
-50.8391
-51.0824
-51.3134
-51.546
-51.8214
-52.1329
-52.367
-52.5526
-52.8552
-53.1092
-53.2061
-53.2496
-53.3276
-53.4245
-53.5544
-53.5103
-53.5045
-53.6691
-53.9248
-54.5119
-55.1606
-55.8032
-56.3804
-56.648
-56.3668
-55.9867
-55.6806
-55.5
-55.4475
-55.5946
-55.6691
-55.8406
-55.9955
-56.2164
-56.4786
-56.7652
-57.0448
-57.3307
-57.6013
-57.8629
-58.1068
-58.3444
-58.7029
-59.1291
-59.556
-60.0029
-60.459
-60.8044
-61.1038
-61.4928
-61.8674
-62.0794
-62.35
-62.6459
-62.8452
-62.9787
-63.0881
-63.1911
-63.3077
-63.4342
-63.5746
-63.7323
-63.924
-64.1522
-64.4163
-64.6782
-64.9408
-65.2582
-65.5772
-65.8149
-66.0699
-66.3781
-66.6453
-66.8534
-67.1071
-67.3574
-47.0771
-46.8557
-46.3151
-45.7952
-45.6429
-45.7921
-46.4168
-47.1613
-47.8311
-48.5653
-49.3288
-49.8381
-50.191
-50.4877
-50.8013
-50.9529
-50.9929
-51.1417
-51.2656
-51.4464
-51.8117
-52.218
-52.6941
-52.874
-52.7098
-52.6418
-52.8098
-53.0604
-53.3177
-53.5771
-53.8184
-54.063
-54.3463
-54.6441
-54.8271
-55.0068
-55.3109
-55.5104
-55.6269
-55.7102
-55.859
-56.0859
-56.2334
-56.1402
-56.3667
-56.6776
-56.869
-57.2868
-57.7938
-58.2031
-58.7993
-59.0522
-58.7482
-58.3316
-58.0313
-57.8758
-57.9037
-58.0003
-58.0897
-58.285
-58.4831
-58.6996
-58.9889
-59.254
-59.5174
-59.7808
-59.9953
-60.2977
-60.5944
-60.8287
-61.1453
-61.5583
-61.9896
-62.4282
-62.8701
-63.2228
-63.5132
-63.9549
-64.3802
-64.5866
-64.8124
-65.0406
-65.2001
-65.3115
-65.3995
-65.49
-65.601
-65.7164
-65.8568