/*--------------------------------*- C++ -*----------------------------------*\
| =========                 |                                                 |
| \\      /  F ield         | OpenFOAM: The Open Source CFD Toolbox           |
|  \\    /   O peration     | Version:  v1912                                 |
|   \\  /    A nd           | Website:  www.openfoam.com                      |
|    \\/     M anipulation  |                                                 |
\*---------------------------------------------------------------------------*/
FoamFile
{
    version     2.0;
    format      ascii;
    class       surfaceScalarField;
    location    "80";
    object      alphaPhi0.water;
}
// * * * * * * * * * * * * * * * * * * * * * * * * * * * * * * * * * * * * * //

dimensions      [0 3 -1 0 0 0 0];
oriented        oriented;


internalField   nonuniform List<scalar> 
28285
(
0.027423
0.00589952
0.0212029
0.00622006
0.0148165
0.00638643
0.00839909
0.00641738
0.0020957
0.00630339
-0.00392623
0.00602192
-0.00949722
0.00557099
-0.0145089
0.00501165
-0.0188793
0.00437043
-0.0225604
0.00368111
-0.0255381
0.00297774
-0.0278293
0.00229118
-0.0294697
0.0016404
-0.0305066
0.00103687
-0.0309831
0.000476456
-0.0309457
-3.73492e-05
-0.0304275
-0.000518176
-0.0294615
-0.000966043
-0.0280797
-0.00138181
-0.0263193
-0.00176034
-0.0242146
-0.00210478
-0.0218109
-0.00240363
-0.0191582
-0.00265275
-0.0163204
-0.00283782
-0.0133517
-0.00296863
-0.0103162
-0.00303554
-0.00726232
-0.00305387
-0.00423234
-0.00302998
-0.00125762
-0.00297472
0.00164531
-0.00290294
0.0044676
-0.00282229
0.00720244
-0.00273483
0.00984104
-0.00263861
0.0123673
-0.00252626
0.0147571
-0.00238978
0.0169801
-0.00222304
0.0189966
-0.00201648
0.0207667
-0.00177013
0.0222492
-0.00148246
0.0234022
-0.00115304
0.0241884
-0.000786201
0.0245671
-0.000378666
0.0245026
6.45412e-05
0.023959
0.00054358
0.0228932
0.00106573
0.0212691
0.00162417
0.0190586
0.00221048
0.016239
0.00281955
0.0128027
0.00343637
0.00875715
0.00404553
0.00413577
0.00462138
-0.00101521
0.00515097
-0.00661355
0.00559834
-0.0125548
0.00594127
-0.0187093
0.00615447
-0.0249095
0.00620023
-0.0309941
0.00608455
-0.0367693
0.00577519
-0.0420495
0.00528026
-0.0466593
0.00460979
-0.0504362
0.00377687
-0.0532537
0.00281748
-0.0550237
0.00177001
-0.0556714
0.000647779
-0.0551907
-0.000480754
-0.0536132
-0.00157753
-0.0510506
-0.00256256
-0.0475969
-0.00345367
-0.0433878
-0.00420908
-0.0385571
-0.00483069
-0.0332375
-0.00531968
-0.0275431
-0.00569434
-0.0215652
-0.0059779
-0.0153801
-0.00618508
-0.00904148
-0.00633867
-0.00259583
-0.00644565
0.0039102
-0.00650603
0.0104291
-0.00651892
0.0168931
-0.00646397
0.0232159
-0.0063228
0.0292947
-0.00607882
0.0349838
-0.00568907
0.040105
-0.00512126
0.0445785
-0.00447351
0.0480168
-0.00343828
-0.00267744
0.0506943
0.0267806
0.0118565
0.0205402
0.0124604
0.0141585
0.0127682
0.00777264
0.0128032
0.00152711
0.0125489
-0.00439841
0.0119474
-0.00987938
0.011052
-0.0147948
0.00992703
-0.0190711
0.00864677
-0.0226678
0.00727782
-0.0255758
0.00588573
-0.0278144
0.00452973
-0.0294198
0.00324583
-0.0304353
0.00205237
-0.0309088
0.000949959
-0.0308685
-7.759e-05
-0.0303716
-0.0010151
-0.029429
-0.00190871
-0.028073
-0.0027378
-0.0263387
-0.00349459
-0.024257
-0.00418649
-0.0218727
-0.00478793
-0.019234
-0.0052915
-0.016404
-0.00566782
-0.0134368
-0.00593576
-0.0103978
-0.0060746
-0.00733687
-0.00611477
-0.00429786
-0.00606899
-0.0013128
-0.00595977
0.00160263
-0.00581837
0.0044374
-0.00565706
0.00718501
-0.00548244
0.00983609
-0.00528969
0.0123744
-0.00506458
0.0147752
-0.00479054
0.0170075
-0.00445539
0.0190316
-0.00404057
0.0208082
-0.00354677
0.0222966
-0.00297083
0.0234549
-0.00231132
0.0242465
-0.00157781
0.0246331
-0.000765256
0.0245735
0.000124122
0.0240338
0.00108326
0.0229727
0.00212692
0.0213525
0.0032443
0.019145
0.00441797
0.0163268
0.00563781
0.0128894
0.00687374
0.00883996
0.00809497
0.00421077
0.00925057
-0.000951489
0.0103132
-0.00656521
0.0112121
-0.0125254
0.0119015
-0.0187023
0.0123313
-0.0249273
0.0124253
-0.0310383
0.0121956
-0.0368403
0.0115772
-0.042146
0.010586
-0.046779
0.00924275
-0.0505749
0.00757271
-0.053406
0.00564858
-0.0551842
0.0035483
-0.0558314
0.00129493
-0.0553465
-0.000965661
-0.0537573
-0.00316668
-0.0511793
-0.00514062
-0.0477073
-0.0069257
-0.0434789
-0.00843743
-0.0386296
-0.00967996
-0.0332933
-0.010656
-0.0275852
-0.0114025
-0.0215963
-0.0119668
-0.0154029
-0.0123784
-0.00905715
-0.0126845
-0.00260493
-0.0128979
0.00390857
-0.0130195
0.0104369
-0.0130473
0.0169125
-0.0129395
0.0232489
-0.0126593
0.0293479
-0.0121778
0.0350937
-0.0114349
0.0403898
-0.0104174
0.0451175
-0.00920123
0.0489386
-0.00725936
-0.0050668
0.0513279
0.0268568
0.0177962
0.0206253
0.0186919
0.0142429
0.0191506
0.00784289
0.0192033
0.00157265
0.0188192
-0.00439375
0.0179138
-0.00991268
0.0165709
-0.0148644
0.0148787
-0.0191705
0.0129529
-0.0227885
0.0108958
-0.0257093
0.00880649
-0.0279531
0.00677353
-0.0295583
0.00485111
-0.0305732
0.00306721
-0.0310449
0.00142162
-0.031017
-0.000105473
-0.0305082
-0.00152384
-0.0295637
-0.00285323
-0.0282079
-0.00409359
-0.0264684
-0.00523407
-0.0243765
-0.00627844
-0.0219785
-0.00718594
-0.0193228
-0.00794712
-0.0164741
-0.00851652
-0.0134884
-0.00892146
-0.0104331
-0.00912991
-0.00735885
-0.00918905
-0.00430947
-0.00911837
-0.00131651
-0.00895273
0.00160495
-0.00873983
0.00444563
-0.00849775
0.00720074
-0.00823755
0.00986127
-0.00795022
0.0124104
-0.00761372
0.0148228
-0.00720296
0.0170675
-0.00670008
0.0191038
-0.00607681
0.0208922
-0.00533521
0.0223919
-0.00447056
0.0235612
-0.00348063
0.0243637
-0.00238032
0.0247565
-0.001158
0.0247079
0.000172665
0.0241814
0.00160975
0.0231311
0.00317729
0.0215198
0.00485553
0.0193186
0.00661921
0.0165028
0.00845358
0.0130632
0.0103134
0.00900545
0.0121527
0.00436056
0.0138955
-0.000824061
0.0154979
-0.00646799
0.016856
-0.0124655
0.017899
-0.0186867
0.0185525
-0.024961
0.0186996
-0.0311247
0.0183593
-0.0369804
0.0174329
-0.0423371
0.0159427
-0.0470161
0.0139217
-0.0508498
0.0114064
-0.0537083
0.00850708
-0.0555025
0.00534251
-0.0561529
0.00194532
-0.0556567
-0.00146181
-0.0540431
-0.00478031
-0.0514338
-0.00774987
-0.0479251
-0.0104345
-0.0436579
-0.0127047
-0.0387712
-0.0145666
-0.033402
-0.0160252
-0.0276661
-0.0171383
-0.0216558
-0.0179772
-0.0154458
-0.0185884
-0.00908634
-0.0190439
-0.00262154
-0.0193627
0.00390762
-0.0195487
0.0104553
-0.0195949
0.0169556
-0.0194399
0.0233232
-0.0190269
0.0294585
-0.018313
0.0352282
-0.0172046
0.040493
-0.0156821
0.0451077
-0.0138159
0.0490162
-0.0111678
-0.00813149
0.0520809
0.0264977
0.0237997
0.0202169
0.0249727
0.0137986
0.0255689
0.00737895
0.0256229
0.00110637
0.0250917
-0.00483229
0.0238525
-0.0103192
0.0220578
-0.0152286
0.0197882
-0.0194849
0.0172091
-0.0230503
0.0144613
-0.0259199
0.011676
-0.0281182
0.00897192
-0.0296877
0.00642052
-0.0306767
0.00405629
-0.0311333
0.00187815
-0.0310871
-0.000151651
-0.0305981
-0.00201279
-0.0296654
-0.00378594
-0.0283213
-0.00543777
-0.0265917
-0.00696364
-0.024505
-0.00836513
-0.0221062
-0.0095847
-0.0194439
-0.0106094
-0.0165832
-0.0113772
-0.0135808
-0.0119239
-0.0105067
-0.0122041
-0.00741348
-0.0122822
-0.00434693
-0.0121849
-0.00133917
-0.0119605
0.00159597
-0.011675
0.00444958
-0.0113514
0.0072182
-0.0110062
0.00989382
-0.0106258
0.0124604
-0.0101803
0.0148916
-0.00963414
0.0171557
-0.00896416
0.0192109
-0.00813202
0.0210179
-0.00714216
0.0225351
-0.00598784
0.0237211
-0.00466661
0.0245402
-0.00319944
0.0249548
-0.00157251
0.0249214
0.000206041
0.0244074
0.00212368
0.0233711
0.00421367
0.0217721
0.00645452
0.0195796
0.00881167
0.0167674
0.0112658
0.0133244
0.0137564
0.00925325
0.0162239
0.00458576
0.0185629
-0.000633756
0.0207174
-0.00632363
0.0225459
-0.0123779
0.0239533
-0.0186664
0.024841
-0.0250153
0.0250485
-0.0312584
0.0246024
-0.0371943
0.0233689
-0.0426275
0.0213759
-0.0473759
0.0186701
-0.0512665
0.015297
-0.054166
0.0114066
-0.0559847
0.00716118
-0.0566337
0.0025943
-0.0561247
-0.00197081
-0.0544755
-0.00642948
-0.051819
-0.0104064
-0.0482545
-0.0139989
-0.0439286
-0.0170307
-0.0389855
-0.0195097
-0.033566
-0.0214447
-0.0277889
-0.0229154
-0.0217461
-0.0240199
-0.0155116
-0.0248229
-0.0091322
-0.0254233
-0.00264786
-0.025847
0.00390321
-0.0260998
0.0104793
-0.026171
0.0170164
-0.0259769
0.0234298
-0.0254403
0.0296197
-0.0245029
0.0354516
-0.0230365
0.0408084
-0.0210389
0.0455721
-0.0185796
0.0496755
-0.0152712
-0.0111688
0.0527128
0.0265386
0.0298372
0.0202144
0.0312968
0.0137413
0.0320421
0.00725585
0.0321083
0.000914978
0.0314326
-0.00508464
0.0298521
-0.0106206
0.0275937
-0.0155664
0.0247341
-0.0198424
0.0214851
-0.0234118
0.0180307
-0.0262724
0.0145367
-0.0284531
0.0111526
-0.0300003
0.00796773
-0.0309694
0.00502537
-0.03141
0.0023188
-0.0313611
-0.000200622
-0.0308449
-0.00252894
-0.0299033
-0.00472754
-0.0285494
-0.00679166
-0.0268045
-0.00870853
-0.0246968
-0.0104728
-0.0222711
-0.0120104
-0.0195772
-0.0133033
-0.0166825
-0.0142719
-0.0136464
-0.01496
-0.0105426
-0.0153079
-0.00742536
-0.0153995
-0.00434138
-0.0152689
-0.00132245
-0.0149794
0.00162024
-0.0146176
0.00448101
-0.0142121
0.00725985
-0.013785
0.00994987
-0.0133158
0.0125349
-0.0127654
0.0149877
-0.0120869
0.0172756
-0.0112521
0.019355
-0.0102114
0.0211857
-0.00897286
0.0227259
-0.00752812
0.0239337
-0.00587438
0.0247745
-0.00404021
0.0252061
-0.00200416
0.025196
0.000216211
0.0247047
0.00261493
0.0236895
0.00522891
0.0221083
0.00803568
0.019929
0.010991
0.0171225
0.0140723
0.0136752
0.0172038
0.00958777
0.0203113
0.00488882
0.0232619
-0.000376249
0.0259824
-0.00612622
0.0282958
-0.012256
0.030083
-0.0186343
0.0312193
-0.0250834
0.0314976
-0.0314336
0.0309526
-0.0374783
0.0294136
-0.0430148
0.0269124
-0.0478571
0.0235123
-0.0518244
0.0192643
-0.0547797
0.0143619
-0.0566306
0.00901208
-0.0572845
0.00324827
-0.0567536
-0.00250176
-0.0550541
-0.00812891
-0.052333
-0.0131275
-0.048693
-0.0176389
-0.0442874
-0.0214363
-0.0392683
-0.0245288
-0.0337816
-0.0269314
-0.0279495
-0.0287475
-0.0218641
-0.0301054
-0.0155968
-0.0310902
-0.00919165
-0.0318285
-0.00268205
-0.0323566
0.00389757
-0.0326794
0.0105112
-0.0327847
0.0170969
-0.0325626
0.0235705
-0.0319139
0.0298322
-0.0307647
0.0357444
-0.0289487
0.0411824
-0.0264769
0.0459888
-0.023386
0.0501124
-0.0193948
-0.0145214
0.053465
0.0263801
0.0359572
0.0199777
0.0376993
0.0134286
0.0385912
0.00687117
0.0386657
0.000462499
0.0378413
-0.00556647
0.0358811
-0.0111231
0.0331503
-0.0160722
0.0296831
-0.0203307
0.0257436
-0.0238658
0.0215658
-0.0266816
0.0173525
-0.0288146
0.0132856
-0.0303182
0.00947136
-0.0312505
0.00595757
-0.0316619
0.00273022
-0.0315945
-0.000268
-0.0310891
-0.00303433
-0.0301497
-0.005667
-0.0287973
-0.00814402
-0.0270491
-0.0104567
-0.0249299
-0.012592
-0.022483
-0.0144574
-0.0197594
-0.0160269
-0.0168288
-0.0172025
-0.0137528
-0.018036
-0.0106104
-0.0184503
-0.00745918
-0.0185507
-0.00434831
-0.0183798
-0.00131004
-0.0180177
0.00164666
-0.0175744
0.00451915
-0.0170846
0.00731125
-0.0165771
0.0100188
-0.0160234
0.0126269
-0.0153735
0.0151067
-0.0145668
0.0174247
-0.0135701
0.0195345
-0.0123212
0.0213954
-0.0108337
0.0229645
-0.00909723
0.0241995
-0.00710939
0.0250672
-0.00490791
0.0255286
-0.00246556
0.0255437
0.000201059
0.0250779
0.00308074
0.0240886
0.00621826
0.0225298
0.0095945
0.0203665
0.0131542
0.0175676
0.0168712
0.0141155
0.0206558
0.0100079
0.0244189
0.00526989
0.0279999
-5.65945e-05
0.0313089
-0.00587861
0.0341178
-0.0121037
0.0363081
-0.0185955
0.037711
-0.0251708
0.0380729
-0.0316557
0.0374375
-0.0378372
0.035595
-0.0435039
0.0325792
-0.0484645
0.0284729
-0.0525289
0.0233287
-0.0555542
0.0173872
-0.0574467
0.0109045
-0.0581
0.00390159
-0.0575452
-0.00305658
-0.0557833
-0.00989083
-0.0529796
-0.0159312
-0.0492437
-0.0213748
-0.0447371
-0.0259429
-0.0396217
-0.0296442
-0.0340499
-0.0325032
-0.0281489
-0.0346485
-0.0220094
-0.0362448
-0.0157032
-0.0373965
-0.00926773
-0.0382639
-0.00272852
-0.0388958
0.00388632
-0.0392942
0.0105463
-0.0394447
0.0171923
-0.0392086
0.0237406
-0.0384622
0.0300902
-0.0371142
0.0360977
-0.0349562
0.0416339
-0.0320132
0.0465668
-0.0283189
0.0508462
-0.0236741
-0.0179536
0.0542783
0.0264407
0.042157
0.0199462
0.0441939
0.0132939
0.0452434
0.0066243
0.0453353
8.59918e-05
0.0443796
-0.00601412
0.0419812
-0.0116399
0.0387762
-0.0166363
0.0346795
-0.020915
0.0300224
-0.0244453
0.025096
-0.0272367
0.0201439
-0.0293327
0.0153816
-0.0307945
0.0109332
-0.0316895
0.00685263
-0.0320717
0.00311237
-0.0319789
-0.000360743
-0.0314446
-0.00356863
-0.0304903
-0.0066213
-0.0291211
-0.00951326
-0.02735
-0.0122278
-0.0252001
-0.0147419
-0.0227133
-0.0169442
-0.0199431
-0.0187971
-0.0169621
-0.0201835
-0.0138354
-0.0211627
-0.0106478
-0.0216378
-0.00746042
-0.0217381
-0.00432417
-0.021516
-0.00127047
-0.0210714
0.00169478
-0.0205396
0.00457516
-0.019965
0.00737935
-0.0193813
0.0101056
-0.0187496
0.0127398
-0.0180077
0.0152514
-0.0170784
0.0176051
-0.0159238
0.0197515
-0.0144676
0.0216485
-0.0127307
0.0232521
-0.0107009
0.0245198
-0.00837705
0.0254198
-0.00580797
0.0259121
-0.00295782
0.0259608
0.000152416
0.0255258
0.00351564
0.0245686
0.00717555
0.0230376
0.0111255
0.0208954
0.0152964
0.0181067
0.01966
0.0146502
0.0241123
0.0105193
0.0285498
0.0057354
0.0327837
0.000335841
0.0367085
-0.00557228
0.040026
-0.0119125
0.0426484
-0.0185412
0.0443397
-0.0252697
0.0448015
-0.0319188
0.0440866
-0.0382671
0.0419433
-0.0440931
0.0384051
-0.0491986
0.0335784
-0.0533815
0.0275117
-0.0564931
0.0204988
-0.0584353
0.0128467
-0.0590936
0.0045599
-0.0585057
-0.00364451
-0.0566648
-0.0117317
-0.0537584
-0.0188377
-0.0499046
-0.0252285
-0.045274
-0.0305735
-0.0400407
-0.0348775
-0.0343656
-0.0381783
-0.0283814
-0.0406327
-0.0221793
-0.042447
-0.015827
-0.0437487
-0.0093573
-0.0447336
-0.0027843
-0.0454688
0.00387152
-0.04595
0.010586
-0.0461592
0.0173042
-0.0459268
0.0239428
-0.0451007
0.0303997
-0.0435711
0.0365255
-0.0410821
0.0421835
-0.0376711
0.0472311
-0.0333665
0.0515724
-0.0280155
-0.0215281
0.0551469
0.0264394
0.0484613
0.0198313
0.050802
0.0130563
0.0520184
0.00626177
0.0521298
-0.000360403
0.0510018
-0.00659573
0.0482165
-0.0122947
0.0444751
-0.01733
0.0397149
-0.0216125
0.0343048
-0.0251158
0.0285993
-0.027859
0.0228871
-0.0298968
0.0174194
-0.0313007
0.0123371
-0.0321451
0.00769701
-0.0324827
0.00344998
-0.0323735
-0.000469997
-0.0318362
-0.00410588
-0.0308757
-0.00758185
-0.0294981
-0.0108908
-0.0277105
-0.0140155
-0.0255319
-0.0169205
-0.0230027
-0.0194733
-0.0201794
-0.0216204
-0.0171379
-0.0232251
-0.0139477
-0.0243529
-0.0107021
-0.0248834
-0.00746688
-0.0249733
-0.00429633
-0.0246866
-0.00122234
-0.0241454
0.00175495
-0.0235169
0.00464429
-0.0228543
0.00746102
-0.022198
0.0102073
-0.0214959
0.0128709
-0.0206714
0.0154195
-0.0196269
0.0178153
-0.0183196
0.0200048
-0.0166571
0.0219443
-0.0146701
0.0235882
-0.0123448
0.0248934
-0.00968223
0.0258307
-0.0067452
0.0263605
-0.00348764
0.0264475
6.53589e-05
0.0260489
0.00391431
0.0251295
0.00809487
0.0236319
0.0126231
0.0215159
0.0174124
0.0187405
0.0224353
0.0152797
0.0275731
0.0111217
0.0327078
0.00628568
0.0376197
0.000811666
0.0421825
-0.00520782
0.0460455
-0.0116847
0.0491253
-0.0184751
0.0511301
-0.0253848
0.0517111
-0.0322279
0.0509297
-0.0387736
0.048489
-0.0447881
0.0444196
-0.0500655
0.0388557
-0.0543888
0.031835
-0.0576032
0.0237132
-0.059604
0.0148475
-0.0602641
0.00522004
-0.0596389
-0.00426976
-0.0577044
-0.0136662
-0.0546738
-0.0218682
-0.0506789
-0.0292234
-0.0458998
-0.0353526
-0.0405261
-0.0402512
-0.034729
-0.0439753
-0.0286475
-0.0467142
-0.0223719
-0.0487227
-0.0159692
-0.0501514
-0.00946087
-0.0512419
-0.00285233
-0.0520774
0.00384863
-0.052651
0.0106252
-0.0529358
0.0174272
-0.0527288
0.0241716
-0.0518451
0.0307537
-0.0501533
0.0370129
-0.0473412
0.0428048
-0.0434631
0.0479876
-0.0385493
0.052456
-0.0324838
-0.025211
0.0561388
0.0265635
0.0548826
0.0198196
0.0575459
0.0128936
0.0589444
0.00594178
0.0590816
-0.000822632
0.0577662
-0.00720612
0.0546
-0.0130112
0.0502802
-0.0181135
0.0448172
-0.022422
0.0386133
-0.0259139
0.0320913
-0.028617
0.0255902
-0.0305974
0.0193998
-0.0319386
0.0136783
-0.032727
0.00848541
-0.03302
0.00374298
-0.0328707
-0.000619291
-0.0323058
-0.00467081
-0.0313278
-0.00855987
-0.0299302
-0.0122884
-0.0281143
-0.0158313
-0.0258951
-0.0191397
-0.0233111
-0.0220573
-0.0204229
-0.0245087
-0.01731
-0.026338
-0.0140471
-0.0276157
-0.0107369
-0.0281936
-0.00745062
-0.0282596
-0.00424585
-0.0278913
-0.00115291
-0.0272383
0.00183214
-0.0265019
0.00472737
-0.0257496
0.00755533
-0.025026
0.0103228
-0.0242634
0.0130197
-0.0233682
0.0156108
-0.022218
0.0180558
-0.0207645
0.0202957
-0.018897
0.0222843
-0.0166588
0.0239741
-0.0140347
0.0253221
-0.0110301
0.0263011
-0.0077242
0.0268732
-0.00405982
0.0270038
-6.52355e-05
0.0266475
0.00427063
0.0257728
0.00896959
0.0243154
0.0140805
0.0222305
0.0194973
0.0194722
0.0251936
0.0160085
0.0310368
0.0118214
0.0368948
0.00692743
0.0425138
0.0013643
0.0477456
-0.00477879
0.0521886
-0.0114131
0.0557596
-0.0183901
0.0581071
-0.02551
0.058831
-0.0325787
0.0579985
-0.0393544
0.0552647
-0.0455895
0.0506548
-0.0510682
0.0443344
-0.0555558
0.0363226
-0.0588901
0.0270475
-0.0609596
0.016917
-0.0616246
0.00588509
-0.0609521
-0.00494224
-0.0589059
-0.0157124
-0.0557273
-0.0250468
-0.0515661
-0.0333846
-0.0466125
-0.0403063
-0.0410741
-0.0457896
-0.0351351
-0.0499144
-0.0289411
-0.0529081
-0.0225839
-0.0550799
-0.0161264
-0.0566088
-0.00957923
-0.0577891
-0.00293217
-0.0587244
0.00381683
-0.0594
0.0106626
-0.0597815
0.01756
-0.0596262
0.0244263
-0.0587114
0.0311533
-0.0568803
0.0375689
-0.0537569
0.0435209
-0.0494151
0.0488534
-0.0438818
0.0534375
-0.0370678
-0.0289855
0.057212
0.0266937
0.0614367
0.0197944
0.0644452
0.0126926
0.0660462
0.00555641
0.0662178
-0.0013818
0.0647044
-0.00792973
0.0611479
-0.0138547
0.0562052
-0.0190261
0.0499885
-0.0233524
0.0429395
-0.0268168
0.0355557
-0.0294601
0.0282335
-0.0313644
0.021304
-0.0326277
0.0149417
-0.0333484
0.00920609
-0.0335848
0.00397936
-0.0334094
-0.000794681
-0.032833
-0.00524723
-0.0318437
-0.00954917
-0.0304309
-0.0137012
-0.0285881
-0.0176741
-0.0263249
-0.0214029
-0.0236778
-0.0247044
-0.0207129
-0.0274736
-0.0175142
-0.0295367
-0.0141627
-0.0309672
-0.0107734
-0.0315829
-0.00742505
-0.0316079
-0.00417946
-0.0311369
-0.00106668
-0.0303511
0.00192533
-0.0294939
0.00482413
-0.0286484
0.0076617
-0.0278636
0.010451
-0.0270526
0.0131842
-0.0261015
0.015824
-0.0248578
0.0183257
-0.0232662
0.0206239
-0.0211953
0.0226689
-0.0187038
0.0244103
-0.015776
0.0258052
-0.0124251
0.0268306
-0.00874953
0.0274501
-0.00467937
0.0276302
-0.000245308
0.0273229
0.00457789
0.0264992
0.00979331
0.0250888
0.0154909
0.0230416
0.0215445
0.0203047
0.0279306
0.0168398
0.0345018
0.0126215
0.0411131
0.00766288
0.0474724
0.00200198
0.0534065
-0.00428263
0.0584732
-0.0110963
0.0625733
-0.0182859
0.0652967
-0.0256462
0.0661912
-0.032974
0.0653263
-0.0400138
0.0623045
-0.0465027
0.0571437
-0.0522138
0.0500455
-0.0568898
0.0409986
-0.0603635
0.0305212
-0.0625109
0.0190643
-0.0631794
0.0065536
-0.0624534
-0.00566826
-0.0602771
-0.0178887
-0.0569242
-0.0283997
-0.0525698
-0.037739
-0.047413
-0.0454632
-0.0416836
-0.0515189
-0.0355809
-0.0560171
-0.0292607
-0.0592283
-0.022813
-0.0615277
-0.0162973
-0.0631245
-0.00971032
-0.0643761
-0.00302738
-0.0654073
0.00377311
-0.0662005
0.0106942
-0.0667026
0.0176985
-0.0666306
0.0247038
-0.0657167
0.0315969
-0.0637734
0.0381906
-0.0603505
0.044321
-0.0555454
0.0498187
-0.0493796
0.0545397
-0.0417887
-0.0328622
0.0584163
0.0269097
0.0681389
0.0198322
0.0715228
0.0125268
0.0733516
0.00517519
0.0735694
-0.00197332
0.0718529
-0.00871225
0.0678869
-0.0147846
0.0622775
-0.0200465
0.0552504
-0.0244048
0.0472979
-0.0278482
0.0389991
-0.0304306
0.0308158
-0.0322516
0.023125
-0.0334272
0.0161173
-0.0340676
0.00984649
-0.034245
0.00415678
-0.0340248
-0.00101492
-0.0334212
-0.00585082
-0.032416
-0.0105543
-0.0309835
-0.0151337
-0.0291086
-0.019549
-0.0267943
-0.0237173
-0.0240748
-0.0274239
-0.0210229
-0.0305255
-0.0177274
-0.0328323
-0.0142762
-0.0344183
-0.010798
-0.0350611
-0.00738177
-0.0350242
-0.00409405
-0.0344246
-0.000962914
-0.0334823
0.00203195
-0.0324888
0.0049304
-0.0315468
0.0077754
-0.0307086
0.0105873
-0.0298645
0.0133609
-0.0288751
0.0160559
-0.0275527
0.0186225
-0.0258329
0.020988
-0.0235608
0.0230969
-0.0208127
0.0248958
-0.0175749
0.0263423
-0.0138716
0.0274179
-0.00982517
0.028089
-0.00535041
0.028323
-0.000479337
0.0280739
0.00482703
0.0273077
0.0105594
0.0259518
0.0168468
0.0239494
0.0235469
0.0212394
0.0306406
0.0177756
0.0379656
0.0135243
0.0453643
0.00849749
0.0524992
0.00272642
0.0591776
-0.00371579
0.0649154
-0.010731
0.0695885
-0.0181601
0.0727258
-0.025793
0.0738241
-0.0334144
0.0729477
-0.0407545
0.0696447
-0.0475339
0.0639231
-0.05351
0.0560215
-0.0584009
0.0458895
-0.0620353
0.0341556
-0.0642705
0.0212995
-0.0649453
0.00722846
-0.0641556
-0.006458
-0.0618288
-0.0202155
-0.0582721
-0.0319563
-0.0536948
-0.0423163
-0.0483034
-0.0508546
-0.0423539
-0.0574685
-0.0360642
-0.0623068
-0.0296019
-0.0656905
-0.0230568
-0.0680728
-0.0164815
-0.0696998
-0.00985985
-0.0709978
-0.00314038
-0.0721268
0.00371079
-0.0730517
0.0107128
-0.0737046
0.0178354
-0.0737532
0.0249976
-0.0728789
0.0320788
-0.0708546
0.0388753
-0.067147
0.0452101
-0.0618802
0.0508914
-0.0550609
0.0557622
-0.0466595
-0.0368452
0.0597452
0.0271673
0.075003
0.0198898
0.0788003
0.0123504
0.0808911
0.00474796
0.0811718
-0.00264671
0.0792475
-0.00960598
0.0748461
-0.0158469
0.0685184
-0.0212069
0.0606104
-0.0255927
0.0516836
-0.0290008
0.0424072
-0.0315027
0.0333178
-0.0332204
0.0248427
-0.0342939
0.0171908
-0.0348383
0.0103909
-0.0349528
0.00427121
-0.0346957
-0.00127201
-0.0340739
-0.00647262
-0.033059
-0.0115692
-0.0316109
-0.0165818
-0.0297042
-0.0214557
-0.0273334
-0.026088
-0.0245307
-0.0302266
-0.021378
-0.0336782
-0.0179692
-0.0362411
-0.0144006
-0.0379869
-0.0108179
-0.0386439
-0.00732344
-0.0385187
-0.00398906
-0.037759
-0.000841123
-0.0366302
0.00215164
-0.0354816
0.00504384
-0.034439
0.00789258
-0.0335573
0.0107276
-0.0326995
0.0135458
-0.0316933
0.0163033
-0.0303102
0.0189442
-0.0284738
0.0213867
-0.0260033
0.0235679
-0.0229939
0.0254306
-0.0194376
0.0269326
-0.0153736
0.0280619
-0.0109545
0.0287897
-0.00607827
0.0290837
-0.000773346
0.0289025
0.00500824
0.0281985
0.0112635
0.0269066
0.0181387
0.0249569
0.0254966
0.0222812
0.0333163
0.0188221
0.0414246
0.0145368
0.0496497
0.00943861
0.0575974
0.00354578
0.0650704
-0.00307204
0.0715332
-0.0103113
0.0768278
-0.0180077
0.0804222
-0.0259465
0.0817629
-0.0338988
0.0809001
-0.0415778
0.0773237
-0.0486868
0.0710321
-0.0549639
0.0622986
-0.0600978
0.0510233
-0.0639159
0.0379737
-0.0662506
0.0236343
-0.06693
0.00790785
-0.0660705
-0.00731756
-0.0635735
-0.0227125
-0.0597793
-0.0357505
-0.0549453
-0.0471503
-0.0492854
-0.0565145
-0.0430836
-0.0636703
-0.0365818
-0.0688086
-0.0299613
-0.072311
-0.0233122
-0.0747219
-0.0166783
-0.0763337
-0.0100265
-0.0776496
-0.00327784
-0.0788755
0.00362586
-0.0799554
0.0107147
-0.0807935
0.0179682
-0.0810066
0.0253067
-0.0802174
0.032601
-0.0781489
0.0396287
-0.0741747
0.0461952
-0.0684467
0.0520809
-0.0609467
0.0571161
-0.0516947
-0.0409462
0.0612171
0.0274998
0.0820443
0.0199981
0.086302
0.0121932
0.0886959
0.00430486
0.0890602
-0.00337216
0.0869246
-0.0105837
0.0820576
-0.0170215
0.0749562
-0.0224978
0.0660868
-0.0269186
0.0561044
-0.0302889
0.0457775
-0.0326997
0.0357286
-0.0342999
0.026443
-0.035254
0.0181449
-0.0356882
0.0108251
-0.0357334
0.00431645
-0.0354296
-0.0015758
-0.0347835
-0.00711875
-0.0337606
-0.0125921
-0.0322989
-0.0180435
-0.0303598
-0.0233948
-0.0279278
-0.02852
-0.0250328
-0.0331216
-0.0217678
-0.0369432
-0.0182326
-0.0397762
-0.0145324
-0.0416871
-0.010832
-0.0423442
-0.00725133
-0.0420993
-0.00386795
-0.0411424
-0.000707546
-0.0397906
0.00227662
-0.0384657
0.00515424
-0.0373166
0.00800106
-0.0364041
0.0108591
-0.0355576
0.0137268
-0.0345611
0.0165553
-0.0331386
0.0192799
-0.0311984
0.0218095
-0.0285329
0.0240723
-0.0252566
0.0260057
-0.021371
0.0275685
-0.0169364
0.0287545
-0.0121405
0.0295452
-0.00686888
0.0299022
-0.00113042
0.0298014
0.00510904
0.0291659
0.011899
0.0279479
0.0193567
0.0260611
0.0273834
0.0234275
0.0359499
0.0199775
0.0448746
0.01566
0.0539673
0.010485
0.0627723
0.00445416
0.0711013
-0.00235448
0.0783418
-0.00983967
0.084313
-0.0178312
0.0884137
-0.0261103
0.090042
-0.0344299
0.0892196
-0.0424861
0.0853799
-0.049964
0.07851
-0.0565767
0.0689113
-0.0619822
0.0564288
-0.0660087
0.0420003
-0.0684562
0.0260818
-0.0691433
0.00859494
-0.0682012
-0.00825965
-0.065512
-0.0254017
-0.0614433
-0.0398192
-0.0563169
-0.0522766
-0.0503535
-0.0624779
-0.0438678
-0.070156
-0.0371291
-0.0755473
-0.0303358
-0.0791043
-0.0235798
-0.0814779
-0.0168958
-0.0830178
-0.0102218
-0.0843235
-0.00345382
-0.0856435
0.00349729
-0.0869065
0.010676
-0.0879722
0.0180717
-0.0884023
0.0256067
-0.0877524
0.0331406
-0.0856827
0.0404301
-0.0814643
0.0472598
-0.0752763
0.0533716
-0.0670585
0.0585881
-0.0569112
-0.0451736
0.0628154
0.0278888
0.0892755
0.0201403
0.0940506
0.0120367
0.0967995
0.00382226
0.0972746
-0.00417611
0.0949229
-0.0116752
0.0895568
-0.0183379
0.0816189
-0.0239419
0.0716908
-0.0283949
0.0605574
-0.0317132
0.0490958
-0.0340113
0.0380266
-0.0354733
0.027905
-0.0362781
0.0189497
-0.0366021
0.0111491
-0.0365659
0.00428023
-0.0362182
-0.00192352
-0.035552
-0.0077849
-0.0345246
-0.0136194
-0.0330526
-0.0195155
-0.0310805
-0.0253669
-0.02858
-0.0310205
-0.0255795
-0.0361222
-0.0221849
-0.0403378
-0.0185037
-0.0434574
-0.0146517
-0.0455391
-0.0108152
-0.0461807
-0.00713667
-0.0457779
-0.00370131
-0.0445777
-0.000530815
-0.0429611
0.002435
-0.0414315
0.00528718
-0.0401688
0.00812412
-0.0392411
0.0110031
-0.0384365
0.0139241
-0.0374821
0.0168312
-0.0360458
0.0196482
-0.0340153
0.022273
-0.0311577
0.0246227
-0.0276064
0.0266302
-0.0233785
0.0282553
-0.0185615
0.0294998
-0.013385
0.0303548
-0.00772393
0.0307819
-0.00155745
0.0307651
0.00512575
0.0302106
0.0124536
0.0290732
0.0204941
0.0272585
0.0291981
0.0246763
0.0385321
0.0212409
0.04831
0.0169012
0.0583069
0.0116436
0.0680299
0.00546428
0.0772806
-0.00154144
0.0853475
-0.00928485
0.0920564
-0.0175897
0.0967185
-0.0262353
0.0986877
-0.0349551
0.0979394
-0.0434253
0.09385
-0.0513128
0.0863975
-0.0582978
0.0758964
-0.0640048
0.0621358
-0.0682654
0.0462608
-0.0708389
0.0286554
-0.0715199
0.00927595
-0.0704869
-0.00929267
-0.0675859
-0.0283027
-0.0632014
-0.0442038
-0.0577405
-0.0577374
-0.0514383
-0.0687802
-0.044638
-0.0769564
-0.0376395
-0.0825458
-0.0306643
-0.0860796
-0.0238066
-0.0883356
-0.0170833
-0.089741
-0.0104102
-0.0909966
-0.00363899
-0.0924147
0.00334576
-0.0938912
0.0106105
-0.095237
0.0181547
-0.0959465
0.0259031
-0.0955008
0.0337024
-0.093482
0.0412867
-0.0890485
0.0484094
-0.0823991
0.0547751
-0.0734242
0.0601947
-0.0623308
-0.0495498
0.064571
0.00999493
0.0918792
0.0071915
0.096854
0.00424665
0.0997443
0.0012523
0.100269
-0.00166618
0.0978414
-0.00440034
0.0922909
-0.00682393
0.0840425
-0.00884634
0.0737132
-0.0104347
0.0621458
-0.0115973
0.0502584
-0.012382
0.0388113
-0.0128603
0.0283833
-0.0131067
0.019196
-0.01319
0.0112324
-0.0131542
0.00424449
-0.0130185
-0.00205929
-0.0127771
-0.00802625
-0.0124114
-0.0139852
-0.0118868
-0.0200401
-0.0111786
-0.026075
-0.010273
-0.0319261
-0.00917986
-0.0372154
-0.00794045
-0.0415772
-0.00659576
-0.0448021
-0.00519024
-0.0469446
-0.00379465
-0.0475763
-0.00246654
-0.047106
-0.00123836
-0.0458059
-0.000116422
-0.044083
0.00092548
-0.0424734
0.00192383
-0.0411672
0.00292166
-0.0402389
0.00394359
-0.0394584
0.00499012
-0.0385286
0.00603913
-0.0370948
0.00705969
-0.0350359
0.00801319
-0.0321112
0.00886675
-0.0284599
0.00959542
-0.0241072
0.0101857
-0.0191518
0.0106395
-0.0138388
0.010958
-0.00804242
0.0111264
-0.00172582
0.0111413
0.00511079
0.0109703
0.0126245
0.0105888
0.0208757
0.00996705
0.0298198
0.00907037
0.0394288
0.00786157
0.0495188
0.00632627
0.0598423
0.00444595
0.0699102
0.00222412
0.0795024
-0.000305046
0.0878767
-0.00310932
0.0948606
-0.00612951
0.0997387
-0.00928626
0.101844
-0.0124788
0.101132
-0.0155886
0.0969599
-0.0184929
0.0893017
-0.0210665
0.07847
-0.0231705
0.0642398
-0.0247465
0.0478368
-0.0256943
0.0296032
-0.0259342
0.00951587
-0.0255419
-0.00968506
-0.0244584
-0.0293861
-0.0228183
-0.0458439
-0.0207898
-0.0597659
-0.0184635
-0.0711064
-0.0159683
-0.0794516
-0.0134193
-0.0850948
-0.0108999
-0.0885989
-0.0084456
-0.0907899
-0.00605801
-0.0921286
-0.00369934
-0.0933553
-0.00130838
-0.0948057
0.00116807
-0.0963677
0.00375775
-0.0978267
0.00646315
-0.0986519
0.00925844
-0.0982961
0.012086
-0.0963096
0.0148463
-0.0918088
0.017442
-0.0849948
0.019761
-0.0757432
0.0217306
-0.0643004
-0.0511375
0.0233183
0.0100614
0.0945084
0.00722186
0.0996936
0.00423134
0.102735
0.00118566
0.103315
-0.00178357
0.100811
-0.00456345
0.0950708
-0.00702288
0.0865019
-0.00906394
0.0757543
-0.0106548
0.0637367
-0.0118059
0.0514095
-0.0125714
0.0395767
-0.0130244
0.0288364
-0.0132486
0.0194202
-0.0133134
0.0112972
-0.0132649
0.00419605
-0.0131226
-0.00220157
-0.0128789
-0.00827002
-0.0125129
-0.0143511
-0.0119873
-0.0205658
-0.0112735
-0.0267888
-0.0103558
-0.0328438
-0.00924416
-0.038327
-0.00798145
-0.0428399
-0.00661091
-0.0461727
-0.00517981
-0.0483757
-0.0037612
-0.0489949
-0.00241646
-0.0484508
-0.00117976
-0.0470426
-5.73601e-05
-0.0452054
0.000980223
-0.043511
0.00197214
-0.0421591
0.002966
-0.0412328
0.00398901
-0.0404814
0.00504172
-0.0395814
0.00610083
-0.0381539
0.00713358
-0.0360687
0.00809954
-0.0330771
0.00896392
-0.0293243
0.00970204
-0.0248453
0.0102995
-0.0197493
0.0107598
-0.0142991
0.0110868
-0.00836938
0.0112639
-0.00190291
0.0112906
0.00508413
0.0111338
0.0127813
0.0107637
0.0212458
0.0101537
0.0304298
0.00926651
0.0403161
0.00806332
0.050722
0.00652734
0.0613782
0.00463402
0.0718035
0.00239288
0.0817436
-0.000166203
0.0904358
-0.00300851
0.097703
-0.00607705
0.102807
-0.00929129
0.105059
-0.0125467
0.104387
-0.0157223
0.100136
-0.0186922
0.0922716
-0.0213235
0.0811014
-0.0234759
0.0663922
-0.0250906
0.0494515
-0.0260597
0.0305723
-0.0263002
0.00975639
-0.0258935
-0.0100918
-0.0247811