/*--------------------------------*- C++ -*----------------------------------*\
| =========                 |                                                 |
| \\      /  F ield         | OpenFOAM: The Open Source CFD Toolbox           |
|  \\    /   O peration     | Version:  v1912                                 |
|   \\  /    A nd           | Website:  www.openfoam.com                      |
|    \\/     M anipulation  |                                                 |
\*---------------------------------------------------------------------------*/
FoamFile
{
    version     2.0;
    format      ascii;
    class       volVectorField;
    location    "70";
    object      U;
}
// * * * * * * * * * * * * * * * * * * * * * * * * * * * * * * * * * * * * * //

dimensions      [0 1 -1 0 0 0 0];


internalField   nonuniform List<vector> 
114144
(
(1.09475 0.155014 0)
(1.10678 0.119369 0)
(1.23631 0.0865191 0)
(1.32489 0.0581901 0)
(1.38016 0.0310211 0)
(1.40163 0.0050718 0)
(1.38912 -0.0185295 0)
(1.34463 -0.0384914 0)
(1.27228 -0.0538384 0)
(1.1779 -0.0640241 0)
(1.06822 -0.0690727 0)
(0.949999 -0.0695557 0)
(0.829175 -0.0663714 0)
(0.710466 -0.0605147 0)
(0.59764 -0.0528578 0)
(0.492624 -0.0455511 0)
(0.393394 -0.0416259 0)
(0.294422 -0.0421887 0)
(0.190426 -0.0458231 0)
(0.0698573 -0.0513304 0)
(-0.0506084 -0.0543857 0)
(-0.173461 -0.0618257 0)
(-0.321485 -0.0723047 0)
(-0.484048 -0.0802543 0)
(-0.654703 -0.0839012 0)
(-0.829043 -0.0856133 0)
(-1.00422 -0.0850579 0)
(-1.1753 -0.0819047 0)
(-1.33668 -0.0758464 0)
(-1.48235 -0.0668053 0)
(-1.60598 -0.0549332 0)
(-1.70113 -0.0402704 0)
(-1.76157 -0.0229857 0)
(-1.78196 -0.00319752 0)
(-1.75724 0.0179667 0)
(-1.68398 0.040102 0)
(-1.56119 0.0619944 0)
(-1.39006 0.0823668 0)
(-1.17452 0.0998986 0)
(-0.921211 0.113395 0)
(-0.639692 0.121914 0)
(-0.332017 0.125502 0)
(-0.0349063 0.116537 0)
(0.253322 0.112318 0)
(0.53893 0.098737 0)
(0.788322 0.0824535 0)
(1.0027 0.0643923 0)
(1.17694 0.0461986 0)
(1.3102 0.0293371 0)
(1.40417 0.0149347 0)
(1.46279 0.00398477 0)
(1.49249 -0.00276253 0)
(1.49801 -0.00915303 0)
(1.48511 -0.0127091 0)
(1.45931 -0.0136784 0)
(1.42216 -0.0140318 0)
(1.37485 -0.0146764 0)
(1.31692 -0.016254 0)
(1.2469 -0.0190367 0)
(1.16304 -0.0229282 0)
(1.064 -0.0275293 0)
(0.94945 -0.0322583 0)
(0.82041 -0.0364938 0)
(0.679417 -0.0397246 0)
(0.525841 -0.0421056 0)
(0.367107 -0.0374129 0)
(0.217535 -0.0333331 0)
(0.0959409 -0.0291588 0)
(-0.0204687 -0.0247666 0)
(-0.142296 -0.0210149 0)
(-0.242803 -0.0162033 0)
(-0.326247 -0.0120281 0)
(-0.396114 -0.00893296 0)
(-0.45693 -0.00728598 0)
(-0.513298 -0.00725022 0)
(-0.570123 -0.00880716 0)
(-0.632162 -0.0118412 0)
(-0.703202 -0.015706 0)
(-0.784208 -0.019234 0)
(-0.873221 -0.0217826 0)
(-0.966794 -0.0231133 0)
(-1.06057 -0.0230146 0)
(-1.14942 -0.021368 0)
(-1.22794 -0.0182067 0)
(-1.29089 -0.0137158 0)
(-1.33374 -0.008197 0)
(-1.35305 -0.00204062 0)
(-1.34655 0.00439745 0)
(-1.31288 0.0107843 0)
(-1.25226 0.0168112 0)
(-1.1659 0.0222678 0)
(-1.05587 0.0270045 0)
(-0.925036 0.0309183 0)
(-0.776753 0.0339578 0)
(-0.615311 0.0361114 0)
(-0.442505 0.0380135 0)
(-0.259047 0.0359707 0)
(-0.0971031 0.0343969 0)
(0.0676891 0.0326846 0)
(0.239945 0.0297474 0)
(0.387761 0.0259558 0)
(0.524831 0.0216126 0)
(0.6449 0.0173734 0)
(0.750146 0.0135831 0)
(0.841709 0.0106558 0)
(0.92244 0.00887237 0)
(0.995681 0.0083512 0)
(1.06488 0.00898918 0)
(1.13281 0.0104297 0)
(1.20087 0.0121311 0)
(1.26852 0.0134499 0)
(1.33317 0.0138006 0)
(1.39035 0.0127184 0)
(1.4344 0.00994033 0)
(1.45891 0.00532924 0)
(1.45752 -0.000305993 0)
(1.42651 -0.00734748 0)
(1.36189 -0.01473 0)
(1.26268 -0.021735 0)
(1.13059 -0.02769 0)
(0.968876 -0.0321185 0)
(0.785243 -0.0346606 0)
(0.579999 -0.0360454 0)
(0.360391 -0.0324391 0)
(0.162304 -0.0298622 0)
(-0.0365173 -0.0262914 0)
(-0.241588 -0.023187 0)
(-0.428387 -0.0197097 0)
(-0.605539 -0.0167856 0)
(-0.767713 -0.0146966 0)
(-0.918572 -0.0132708 0)
(-1.05737 -0.0122948 0)
(-1.18434 -0.0113648 0)
(-1.29817 -0.0100789 0)
(-1.39652 -0.0081175 0)
(-1.47595 -0.00529235 0)
(-1.53232 -0.00167119 0)
(-1.56241 0.00260505 0)
(-1.56207 0.00708743 0)
(-1.5272 0.011386 0)
(-1.45778 0.0150305 0)
(-1.35482 0.0177243 0)
(-1.22059 0.0193011 0)
(-1.0611 0.0196878 0)
(-0.879446 0.0199961 0)
(-0.679864 0.0169574 0)
(-0.475674 0.0148762 0)
(-0.276894 0.0124946 0)
(-0.0887725 0.00914112 0)
(0.102189 0.00844329 0)
(0.288368 0.00576572 0)
(0.455633 0.00380942 0)
(0.608676 0.00192873 0)
(0.744799 0.000139807 0)
(0.862737 -0.00165729 0)
(0.960971 -0.00352899 0)
(1.03805 -0.0054914 0)
(1.09292 -0.0074532 0)
(1.12338 -0.00939544 0)
(1.12953 -0.0103918 0)
(1.11297 -0.0108794 0)
(1.07135 -0.0104418 0)
(1.00688 -0.00911952 0)
(0.91844 -0.00682231 0)
(0.811477 -0.00374751 0)
(0.689829 2.26543e-05 0)
(0.555786 0.00372073 0)
(0.414542 0.00744435 0)
(0.269635 0.0109108 0)
(0.126582 0.0139607 0)
(-0.0162464 0.0161999 0)
(-0.156154 0.0175772 0)
(-0.284743 0.0183233 0)
(-0.402866 0.0183898 0)
(-0.50743 0.01783 0)
(-0.597319 0.0167031 0)
(-0.670981 0.0150086 0)
(-0.72738 0.0126359 0)
(-0.76533 0.00967251 0)
(-0.784526 0.00615208 0)
(-0.783792 0.0027202 0)
(-0.763228 -0.00102036 0)
(-0.724239 -0.00484574 0)
(-0.668348 -0.00859837 0)
(-0.597108 -0.0121065 0)
(-0.511805 -0.0152441 0)
(-0.41412 -0.0179571 0)
(-0.306326 -0.0201412 0)
(-0.191222 -0.0217767 0)
(-0.0708508 -0.0227526 0)
(0.053372 -0.0230419 0)
(0.176963 -0.0226199 0)
(0.295555 -0.0214498 0)
(0.405643 -0.0194837 0)
(0.503569 -0.016818 0)
(0.586147 -0.0135809 0)
(0.650533 -0.00987166 0)
(0.694649 -0.00576762 0)
(0.716499 -0.00142539 0)
(0.715677 0.00304909 0)
(0.692211 0.00739662 0)
(0.64602 0.0114911 0)
(0.579811 0.0150393 0)
(0.496149 0.0178944 0)
(0.399605 0.0198311 0)
(0.295008 0.0208363 0)
(0.187398 0.0208178 0)
(0.0823193 0.0198367 0)
(-0.0159897 0.017979 0)
(-0.102921 0.0154946 0)
(-0.175011 0.0125901 0)
(-0.231581 0.00962745 0)
(-0.273039 0.00676392 0)
(-0.299631 0.00426709 0)
(-0.315337 0.00246427 0)
(-0.322681 0.00107417 0)
(-0.324388 0.000693426 0)
(-0.32784 0.00083315 0)
(-0.330953 0.00145034 0)
(-0.341315 0.00272897 0)
(-0.356809 0.00380522 0)
(-0.379096 0.00517748 0)
(-0.408139 0.00608093 0)
(-0.440555 0.00669875 0)
(-0.475536 0.00679784 0)
(-0.509039 0.00634192 0)
(-0.538561 0.0053106 0)
(-0.561092 0.00386072 0)
(-0.575017 0.00198362 0)
(-0.577818 -0.000201563 0)
(-0.568835 -0.00242718 0)
(-0.54811 -0.004656 0)
(-0.51554 -0.00679072 0)
(-0.472728 -0.00856675 0)
(-0.421175 -0.0101025 0)
(-0.362649 -0.0112307 0)
(-0.298895 -0.0120472 0)
(-0.232318 -0.0124735 0)
(-0.163296 -0.0128099 0)
(-0.094145 -0.0127223 0)
(-0.0246153 -0.0127865 0)
(0.0445152 -0.012529 0)
(0.112624 -0.012522 0)
(0.180103 -0.0121483 0)
(0.246148 -0.0119173 0)
(0.311377 -0.0112606 0)
(0.373585 -0.0103452 0)
(0.432726 -0.0100784 0)
(0.491345 -0.0093288 0)
(0.535863 -0.0155936 0)
(1.02005 0.02298 0)
(1.09904 -0.0061843 0)
(1.23443 -0.0238878 0)
(1.32711 -0.0240363 0)
(1.38378 -0.0150974 0)
(1.40556 -0.00215207 0)
(1.39275 0.0120852 0)
(1.34758 0.0257791 0)
(1.27429 0.0375878 0)
(1.17885 0.0466783 0)
(1.06816 0.0527662 0)
(0.949167 0.0561701 0)
(0.828034 0.05815 0)
(0.709692 0.0599828 0)
(0.597469 0.0630136 0)
(0.492286 0.0666788 0)
(0.392168 0.0688529 0)
(0.292828 0.0691812 0)
(0.189397 0.0699437 0)
(0.0709724 0.0727897 0)
(-0.0490388 0.0873149 0)
(-0.174453 0.0909699 0)
(-0.323338 0.0919883 0)
(-0.484827 0.0953067 0)
(-0.655348 0.10094 0)
(-0.830868 0.104386 0)
(-1.00732 0.104711 0)
(-1.17967 0.101456 0)
(-1.34229 0.0940586 0)
(-1.4893 0.082397 0)
(-1.61429 0.0668465 0)
(-1.71071 0.0475461 0)
(-1.77215 0.0247906 0)
(-1.79339 -0.00130532 0)
(-1.76913 -0.0290558 0)
(-1.69566 -0.0583483 0)
(-1.57205 -0.0876116 0)
(-1.39937 -0.1153 0)
(-1.18151 -0.139763 0)
(-0.925176 -0.159356 0)
(-0.639873 -0.172668 0)
(-0.330674 -0.177401 0)
(-0.0286083 -0.18745 0)
(0.265061 -0.171619 0)
(0.551717 -0.158313 0)
(0.803142 -0.139171 0)
(1.01837 -0.116942 0)
(1.1925 -0.0931314 0)
(1.32473 -0.0695593 0)
(1.41711 -0.0476836 0)
(1.47403 -0.0283773 0)
(1.5008 -0.0118514 0)
(1.50339 -0.000640057 0)
(1.48942 0.00951248 0)
(1.46295 0.0177064 0)
(1.42529 0.024959 0)
(1.37793 0.0319939 0)
(1.32026 0.0394197 0)
(1.25061 0.0475969 0)
(1.16697 0.0565435 0)
(1.06776 0.0658856 0)
(0.952465 0.0749091 0)
(0.822002 0.0826318 0)
(0.678758 0.0879668 0)
(0.52453 0.0893909 0)
(0.364436 0.094627 0)
(0.211139 0.0937227 0)
(0.0869864 0.0877721 0)
(-0.0310454 0.0778257 0)
(-0.152785 0.0645362 0)
(-0.251791 0.0542015 0)
(-0.333368 0.0454495 0)
(-0.400867 0.039301 0)
(-0.459197 0.0362564 0)
(-0.513348 0.0363125 0)
(-0.568614 0.0388455 0)
(-0.629895 0.0426891 0)
(-0.700799 0.047054 0)
(-0.782339 0.0517093 0)
(-0.872762 0.0557045 0)
(-0.968466 0.0577429 0)
(-1.06472 0.0568574 0)
(-1.15607 0.052549 0)
(-1.2368 0.0447391 0)
(-1.30146 0.0337091 0)
(-1.34535 0.0200223 0)
(-1.36503 0.0045187 0)
(-1.35822 -0.0121943 0)
(-1.32362 -0.0291463 0)
(-1.26162 -0.0456724 0)
(-1.17352 -0.0611514 0)
(-1.06149 -0.0750691 0)
(-0.928475 -0.087002 0)
(-0.777897 -0.0965607 0)
(-0.613758 -0.103585 0)
(-0.439327 -0.106489 0)
(-0.254107 -0.110562 0)
(-0.0891091 -0.111181 0)
(0.0776951 -0.104378 0)
(0.251017 -0.0977257 0)
(0.399354 -0.0887622 0)
(0.536287 -0.0793922 0)
(0.655542 -0.0696783 0)
(0.759296 -0.0607517 0)
(0.848904 -0.0533202 0)
(0.927513 -0.0479195 0)
(0.99881 -0.0446942 0)
(1.06658 -0.0433731 0)
(1.13386 -0.0432807 0)
(1.20226 -0.0434611 0)
(1.27126 -0.0427382 0)
(1.33818 -0.0398618 0)
(1.39824 -0.033711 0)
(1.44531 -0.0235258 0)
(1.47269 -0.00902844 0)
(1.47308 0.00958632 0)
(1.44248 0.0305386 0)
(1.37696 0.053379 0)
(1.27526 0.0760205 0)
(1.13933 0.0967402 0)
(0.972822 0.113916 0)
(0.78372 0.126681 0)
(0.574351 0.13305 0)
(0.350829 0.139317 0)
(0.148866 0.138174 0)
(-0.051872 0.133091 0)
(-0.257411 0.125001 0)
(-0.443402 0.11672 0)
(-0.619423 0.108639 0)
(-0.780358 0.100794 0)
(-0.930265 0.0935229 0)
(-1.06873 0.0863306 0)
(-1.19614 0.0785884 0)
(-1.31108 0.0694643 0)
(-1.41095 0.0581178 0)
(-1.4919 0.0439806 0)
(-1.5493 0.0268564 0)
(-1.57974 0.00735686 0)
(-1.5785 -0.0155458 0)
(-1.54137 -0.0389791 0)
(-1.46856 -0.0622236 0)
(-1.36127 -0.0837922 0)
(-1.22222 -0.10238 0)
(-1.05761 -0.117176 0)
(-0.871944 -0.126538 0)
(-0.66871 -0.134277 0)
(-0.460704 -0.137012 0)
(-0.259971 -0.135364 0)
(-0.0697401 -0.132148 0)
(0.121683 -0.122334 0)
(0.307367 -0.11458 0)
(0.47456 -0.104541 0)
(0.627171 -0.0935747 0)
(0.7628 -0.0815084 0)
(0.880104 -0.0683031 0)
(0.977464 -0.0539449 0)
(1.05326 -0.038474 0)
(1.10618 -0.0219417 0)
(1.13409 -0.00489687 0)
(1.13712 0.0120293 0)
(1.11647 0.0278436 0)
(1.07038 0.0434373 0)
(1.00145 0.0574644 0)
(0.909048 0.0693117 0)
(0.798986 0.0789482 0)
(0.675251 0.0858915 0)
(0.540142 0.0902143 0)
(0.398988 0.091802 0)
(0.25507 0.0907658 0)
(0.11368 0.087783 0)
(-0.0271153 0.0829897 0)
(-0.164678 0.076631 0)
(-0.290845 0.0692459 0)
(-0.40671 0.061068 0)
(-0.509269 0.0520895 0)
(-0.597519 0.0425309 0)
(-0.669954 0.0324244 0)
(-0.725549 0.0221636 0)
(-0.763113 0.0118415 0)
(-0.782075 0.00150464 0)
(-0.781445 -0.00947793 0)
(-0.761409 -0.0193336 0)
(-0.723045 -0.0284942 0)
(-0.667843 -0.0372517 0)
(-0.59729 -0.0452282 0)
(-0.512606 -0.0523214 0)
(-0.415412 -0.0583795 0)
(-0.307919 -0.0632362 0)
(-0.192917 -0.066896 0)
(-0.0724392 -0.0690223 0)
(0.052088 -0.0694517 0)
(0.176118 -0.0680792 0)
(0.295291 -0.0647758 0)
(0.406045 -0.0592995 0)
(0.50467 -0.0518975 0)
(0.587932 -0.0425522 0)
(0.652898 -0.031633 0)
(0.69747 -0.0195305 0)
(0.719685 -0.00663827 0)
(0.719007 0.00617922 0)
(0.695433 0.0190589 0)
(0.648968 0.0312899 0)
(0.582318 0.0420394 0)
(0.498078 0.0508073 0)
(0.400847 0.0569057 0)
(0.295495 0.060217 0)
(0.187127 0.0604873 0)
(0.0813381 0.057788 0)
(-0.0175486 0.0525096 0)
(-0.104887 0.0452401 0)
(-0.1772 0.0366665 0)
(-0.233782 0.0278857 0)
(-0.27505 0.0193185 0)
(-0.301285 0.0118373 0)
(-0.316541 0.0064106 0)
(-0.323343 0.00224311 0)
(-0.324573 0.00107234 0)
(-0.327508 0.0013807 0)
(-0.330277 0.00318106 0)
(-0.340434 0.0069399 0)
(-0.355878 0.0101817 0)
(-0.378256 0.0142682 0)
(-0.407544 0.0170383 0)
(-0.440294 0.0189007 0)
(-0.475671 0.0192028 0)
(-0.509599 0.017837 0)
(-0.539511 0.0147528 0)
(-0.562374 0.0103913 0)
(-0.576543 0.00474434 0)
(-0.57949 -0.00193547 0)
(-0.570542 -0.00866021 0)
(-0.549772 -0.0153785 0)
(-0.517041 -0.0218121 0)
(-0.474008 -0.0271592 0)
(-0.422203 -0.0317862 0)
(-0.36341 -0.0351733 0)
(-0.299404 -0.0376313 0)
(-0.232619 -0.0389365 0)
(-0.163437 -0.0399584 0)
(-0.0941556 -0.0397275 0)
(-0.0245839 -0.0399195 0)
(0.0445988 -0.0391158 0)
(0.112691 -0.0390907 0)
(0.180169 -0.0381026 0)
(0.246343 -0.0379703 0)
(0.312216 -0.0368132 0)
(0.376373 -0.0357224 0)
(0.439397 -0.034587 0)
(0.501748 -0.0301708 0)
(0.548159 -0.0225749 0)
(0.969548 -0.00571146 0)
(1.09183 -0.0249119 0)
(1.23197 -0.0392601 0)
(1.32999 -0.0370328 0)
(1.38931 -0.0226103 0)
(1.41181 -0.00242632 0)
(1.39865 0.0195287 0)
(1.35246 0.0404701 0)
(1.27776 0.0583542 0)
(1.18081 0.0720305 0)
(1.06877 0.0812149 0)
(0.948933 0.0863489 0)
(0.827549 0.0881465 0)
(0.709293 0.0885092 0)
(0.597188 0.0888835 0)
(0.491822 0.089514 0)
(0.391242 0.0900249 0)
(0.291586 0.0904023 0)
(0.188326 0.0914739 0)
(0.0725906 0.0941164 0)
(-0.0478907 0.10903 0)
(-0.176281 0.110866 0)
(-0.324735 0.113853 0)
(-0.485804 0.117766 0)
(-0.656613 0.121525 0)
(-0.833087 0.123097 0)
(-1.01078 0.121383 0)
(-1.1846 0.115808 0)
(-1.34878 0.105844 0)
(-1.49696 0.0914494 0)
(-1.62267 0.0730897 0)
(-1.71953 0.0510451 0)
(-1.78129 0.0257898 0)
(-1.80215 -0.00234448 0)
(-1.77709 -0.0316992 0)
(-1.70278 -0.061932 0)
(-1.57778 -0.0914315 0)
(-1.40333 -0.118673 0)
(-1.18344 -0.142108 0)
(-0.924923 -0.160287 0)
(-0.637178 -0.172094 0)
(-0.327958 -0.176023 0)
(-0.0233312 -0.183237 0)
(0.273304 -0.167474 0)
(0.559194 -0.153918 0)
(0.810879 -0.135258 0)
(1.02579 -0.114006 0)
(1.19928 -0.0915921 0)
(1.33062 -0.0695623 0)
(1.42193 -0.0491866 0)
(1.47763 -0.0314808 0)
(1.50357 -0.0171401 0)
(1.50612 -0.00577532 0)
(1.49166 0.00529276 0)
(1.46437 0.0138013 0)
(1.4264 0.0213287 0)
(1.37873 0.0284285 0)
(1.32074 0.0355444 0)
(1.25076 0.0429232 0)
(1.16674 0.0505566 0)
(1.06712 0.0581726 0)
(0.951413 0.0652488 0)
(0.820533 0.0710954 0)
(0.676883 0.075034 0)
(0.52312 0.0765202 0)
(0.363607 0.0795107 0)
(0.210033 0.0807853 0)
(0.0854651 0.077454 0)
(-0.0331374 0.070158 0)
(-0.154499 0.0593831 0)
(-0.25271 0.0521476 0)
(-0.334144 0.0460368 0)
(-0.401594 0.0416721 0)
(-0.459996 0.0393534 0)
(-0.514369 0.039002 0)
(-0.570017 0.0400936 0)
(-0.631711 0.041854 0)
(-0.702825 0.0438239 0)
(-0.784306 0.0459043 0)
(-0.874539 0.0476555 0)
(-0.970038 0.048234 0)
(-1.0661 0.0468559 0)
(-1.15724 0.0430065 0)
(-1.23776 0.0364955 0)
(-1.3022 0.0274141 0)
(-1.34589 0.0160966 0)
(-1.36533 0.00310203 0)
(-1.35829 -0.0109834 0)
(-1.32349 -0.0255941 0)
(-1.26126 -0.0400945 0)
(-1.1729 -0.0539211 0)
(-1.06061 -0.0665717 0)
(-0.927318 -0.0776141 0)
(-0.776475 -0.0866499 0)
(-0.612074 -0.0934495 0)
(-0.437856 -0.0973098 0)
(-0.253392 -0.100835 0)
(-0.0874392 -0.10503 0)
(0.0798299 -0.0970997 0)
(0.252321 -0.0931953 0)
(0.400557 -0.0859202 0)
(0.53722 -0.0786772 0)
(0.656453 -0.0708401 0)
(0.760264 -0.0634319 0)
(0.850063 -0.0569349 0)
(0.92896 -0.0517636 0)
(1.00061 -0.0480283 0)
(1.06871 -0.045529 0)
(1.13623 -0.0437753 0)
(1.20467 -0.0420635 0)
(1.27347 -0.0395503 0)
(1.33994 -0.0353086 0)
(1.39932 -0.028493 0)
(1.44557 -0.0185356 0)
(1.47185 -0.00504224 0)
(1.47135 0.0110992 0)
(1.44015 0.0297721 0)
(1.37405 0.0500318 0)
(1.27213 0.0704226 0)
(1.13621 0.0895585 0)
(0.970015 0.106016 0)
(0.781249 0.119173 0)
(0.572935 0.126685 0)
(0.350325 0.135668 0)
(0.148054 0.137965 0)
(-0.0530105 0.135228 0)
(-0.258696 0.129527 0)
(-0.444893 0.122828 0)
(-0.621288 0.115908 0)
(-0.782618 0.108385 0)
(-0.932711 0.100897 0)
(-1.07112 0.0931062 0)
(-1.19813 0.0846887 0)
(-1.31237 0.0750741 0)
(-1.41133 0.0635961 0)
(-1.49132 0.0497749 0)
(-1.54781 0.0332994 0)
(-1.57752 0.0147168 0)
(-1.57588 -0.00761775 0)
(-1.53867 -0.0309695 0)
(-1.46599 -0.0549242 0)
(-1.35893 -0.0780208 0)
(-1.22018 -0.0989157 0)
(-1.05573 -0.116632 0)
(-0.870296 -0.129198 0)
(-0.667586 -0.139747 0)
(-0.459729 -0.14615 0)
(-0.259016 -0.147353 0)
(-0.0681975 -0.146378 0)
(0.123327 -0.137585 0)
(0.308518 -0.130883 0)
(0.475627 -0.121387 0)
(0.62784 -0.110733 0)
(0.762952 -0.0988092 0)
(0.879602 -0.0856555 0)
(0.976248 -0.0713243 0)
(1.05142 -0.0558315 0)
(1.10397 -0.0391273 0)
(1.13173 -0.0213248 0)
(1.13493 -0.00359321 0)
(1.11496 0.0150322 0)
(1.06996 0.0344724 0)
(1.00223 0.053314 0)
(0.910928 0.07087 0)
(0.801658 0.0869133 0)
(0.678405 0.100674 0)
(0.543511 0.111605 0)
(0.402242 0.119434 0)
(0.258033 0.123903 0)
(0.116092 0.125376 0)
(-0.0254493 0.123381 0)
(-0.163795 0.118472 0)
(-0.290722 0.111183 0)
(-0.407372 0.101896 0)
(-0.510761 0.0907233 0)
(-0.599868 0.0779964 0)
(-0.673173 0.0636861 0)
(-0.729566 0.0480144 0)
(-0.767713 0.0311468 0)
(-0.787469 0.013077 0)
(-0.787259 -0.00533369 0)
(-0.76689 -0.0231608 0)
(-0.728383 -0.0402686 0)
(-0.673001 -0.0566486 0)
(-0.602053 -0.0716492 0)
(-0.51684 -0.0849729 0)
(-0.418994 -0.0963566 0)
(-0.310778 -0.105429 0)
(-0.194965 -0.112171 0)
(-0.0736069 -0.11604 0)
(0.0518507 -0.116863 0)
(0.176833 -0.114429 0)
(0.297016 -0.108638 0)
(0.408815 -0.0990911 0)
(0.508465 -0.0863105 0)
(0.592704 -0.0704098 0)
(0.658504 -0.0519853 0)
(0.703683 -0.031594 0)
(0.72613 -0.00991303 0)
(0.72546 0.0117142 0)
(0.701711 0.0332085 0)
(0.654722 0.0536282 0)
(0.587215 0.0715308 0)
(0.501833 0.0861065 0)
(0.403239 0.0962159 0)
(0.296404 0.101681 0)
(0.186533 0.102037 0)
(0.0793477 0.0974496 0)
(-0.0207048 0.0884731 0)
(-0.108857 0.076229 0)
(-0.181573 0.0617861 0)
(-0.238164 0.0469788 0)
(-0.279046 0.0325767 0)
(-0.304549 0.0200261 0)
(-0.318897 0.0109255 0)
(-0.3246 0.00397586 0)
(-0.324925 0.00205174 0)
(-0.326854 0.00264772 0)
(-0.328894 0.00577797 0)
(-0.338619 0.0121673 0)
(-0.35397 0.0176867 0)
(-0.37653 0.0246057 0)
(-0.406307 0.0292975 0)
(-0.43973 0.0324462 0)
(-0.475911 0.0330023 0)
(-0.510696 0.0307355 0)
(-0.54139 0.0255759 0)
(-0.56492 0.0182661 0)
(-0.579604 0.00881026 0)
(-0.58285 -0.00235335 0)
(-0.57394 -0.0136045 0)
(-0.553072 -0.0248523 0)
(-0.520004 -0.0356263 0)
(-0.476521 -0.044559 0)
(-0.424198 -0.052277 0)
(-0.364862 -0.0579185 0)
(-0.300351 -0.0619883 0)
(-0.233149 -0.0641167 0)
(-0.163642 -0.0657796 0)
(-0.0940942 -0.0653428 0)
(-0.0244229 -0.0656307 0)
(0.0448679 -0.0642803 0)
(0.112954 -0.0642224 0)
(0.180522 -0.0625411 0)
(0.246658 -0.0622287 0)
(0.312443 -0.0604034 0)
(0.376065 -0.058688 0)
(0.437795 -0.057096 0)
(0.498131 -0.051299 0)
(0.550837 -0.0486814 0)
(0.934934 -0.0464481 0)
(1.08836 -0.0529287 0)
(1.23167 -0.057033 0)
(1.33484 -0.0486047 0)
(1.39765 -0.0283067 0)
(1.42148 -0.00201444 0)
(1.40818 0.0263278 0)
(1.36076 0.0531874 0)
(1.28415 0.0759283 0)
(1.18502 0.0931722 0)
(1.07084 0.104618 0)
(0.94895 0.110806 0)
(0.826 0.112546 0)
(0.707154 0.111819 0)
(0.59507 0.110357 0)
(0.489948 0.109159 0)
(0.389698 0.108744 0)
(0.290489 0.109519 0)
(0.187781 0.111971 0)
(0.0743161 0.116216 0)
(-0.0461887 0.130799 0)
(-0.176452 0.136105 0)
(-0.324737 0.142457 0)
(-0.486108 0.148414 0)
(-0.657645 0.153031 0)
(-0.835295 0.154786 0)
(-1.01441 0.152587 0)
(-1.18969 0.145747 0)
(-1.35533 0.13398 0)
(-1.50503 0.117002 0)
(-1.63227 0.094495 0)
(-1.73051 0.0665543 0)
(-1.7933 0.033646 0)
(-1.81502 -0.00312052 0)
(-1.79041 -0.044075 0)
(-1.71581 -0.0866168 0)
(-1.5899 -0.129109 0)
(-1.41384 -0.169393 0)
(-1.19164 -0.205146 0)
(-0.9302 -0.2341 0)
(-0.639073 -0.254424 0)
(-0.327895 -0.264707 0)
(-0.0185723 -0.271845 0)
(0.282683 -0.255084 0)
(0.569741 -0.236118 0)
(0.823313 -0.209076 0)
(1.0391 -0.177166 0)
(1.21265 -0.142686 0)
(1.34326 -0.108164 0)
(1.43324 -0.0757482 0)
(1.48724 -0.0470264 0)
(1.51109 -0.022905 0)
(1.51202 -0.00354842 0)
(1.49664 0.0109174 0)
(1.4685 0.0245448 0)
(1.43001 0.0364643 0)
(1.38219 0.0479061 0)
(1.32429 0.0597951 0)
(1.25446 0.0726639 0)
(1.17052 0.0865201 0)
(1.07071 0.10083 0)
(0.954394 0.114587 0)
(0.822463 0.126483 0)
(0.677391 0.13522 0)
(0.522705 0.139921 0)
(0.362562 0.142975 0)
(0.207002 0.143832 0)
(0.0798615 0.136689 0)
(-0.0406314 0.122823 0)
(-0.16197 0.104489 0)
(-0.258847 0.0898268 0)
(-0.339075 0.0773893 0)
(-0.404978 0.0684108 0)
(-0.461739 0.063672 0)
(-0.514655 0.0632261 0)
(-0.569261 0.0663854 0)
(-0.630398 0.0719333 0)
(-0.701381 0.0786509 0)
(-0.783184 0.0854081 0)
(-0.874297 0.0907797 0)
(-0.971212 0.0931813 0)
(-1.06905 0.0912515 0)
(-1.16212 0.0841354 0)
(-1.24447 0.0715754 0)
(-1.31046 0.0538632 0)
(-1.35528 0.031761 0)
(-1.37534 0.00647963 0)
(-1.36841 -0.0208821 0)
(-1.33325 -0.0490273 0)
(-1.27022 -0.0767696 0)
(-1.18072 -0.103049 0)
(-1.067 -0.126955 0)
(-0.932037 -0.147724 0)
(-0.779374 -0.164688 0)
(-0.61293 -0.177423 0)
(-0.437001 -0.185121 0)
(-0.25177 -0.189518 0)
(-0.0825314 -0.193828 0)
(0.0872387 -0.180549 0)
(0.2599 -0.171889 0)
(0.409139 -0.157383 0)
(0.545847 -0.142117 0)
(0.664737 -0.126042 0)
(0.767605 -0.111041 0)
(0.856068 -0.0983048 0)
(0.93344 -0.0887594 0)
(1.00364 -0.0827077 0)
(1.07066 -0.0797568 0)
(1.13769 -0.0788137 0)
(1.20639 -0.0782423 0)
(1.27629 -0.0760366 0)
(1.34461 -0.070068 0)
(1.40642 -0.0584565 0)
(1.45533 -0.039945 0)
(1.48407 -0.0139307 0)
(1.48537 0.0185844 0)
(1.45507 0.055769 0)
(1.38867 0.0962101 0)
(1.28518 0.136557 0)
(1.1465 0.173821 0)
(0.976704 0.205198 0)
(0.783496 0.229165 0)
(0.572037 0.242822 0)
(0.346372 0.253523 0)
(0.140062 0.254278 0)
(-0.0634853 0.246466 0)
(-0.270138 0.233981 0)
(-0.456222 0.219708 0)
(-0.632162 0.205611 0)
(-0.792939 0.191459 0)
(-0.942556 0.178029 0)
(-1.08092 0.16453 0)
(-1.20847 0.149941 0)
(-1.32382 0.132852 0)
(-1.42432 0.111776 0)
(-1.50604 0.0856674 0)
(-1.56402 0.0540862 0)
(-1.5948 0.0181713 0)
(-1.59332 -0.0246902 0)
(-1.55496 -0.0688627 0)
(-1.48005 -0.113262 0)
(-1.36972 -0.155037 0)
(-1.227 -0.191706 0)
(-1.05804 -0.221452 0)
(-0.868757 -0.241959 0)
(-0.662689 -0.256553 0)
(-0.45099 -0.26395 0)
(-0.247573 -0.262714 0)
(-0.0539066 -0.256945 0)
(0.138911 -0.240956 0)
(0.324051 -0.226287 0)
(0.491755 -0.207688 0)
(0.64413 -0.187064 0)
(0.77935 -0.164261 0)
(0.895993 -0.139203 0)
(0.992442 -0.111913 0)
(1.0671 -0.0824303 0)
(1.11863 -0.0509178 0)
(1.14467 -0.0181267 0)
(1.14595 0.0145072 0)
(1.12347 0.046273 0)
(1.07532 0.0780525 0)
(1.00434 0.107443 0)
(0.909903 0.133382 0)
(0.797826 0.15543 0)
(0.67231 0.172505 0)
(0.535603 0.184441 0)
(0.393186 0.190997 0)
(0.248589 0.192269 0)
(0.106859 0.189326 0)
(-0.0340903 0.181874 0)
(-0.171465 0.170879 0)
(-0.297276 0.157027 0)
(-0.412891 0.140948 0)
(-0.515445 0.122699 0)
(-0.603914 0.102738 0)
(-0.676776 0.0811022 0)
(-0.732953 0.0583894 0)
(-0.771262 0.0348125 0)
(-0.790825 0.0102741 0)
(-0.790675 -0.014848 0)
(-0.771013 -0.0383589 0)
(-0.732939 -0.0610587 0)
(-0.677851 -0.0826655 0)
(-0.60703 -0.102433 0)
(-0.521772 -0.1201 0)
(-0.423621 -0.13529 0)
(-0.314855 -0.147517 0)
(-0.198197 -0.156764 0)
(-0.0757328 -0.162199 0)
(0.0510773 -0.16355 0)
(0.17757 -0.160409 0)
(0.29941 -0.152662 0)
(0.412928 -0.139594 0)
(0.514194 -0.121916 0)
(0.599879 -0.0997383 0)
(0.66687 -0.0739207 0)
(0.712957 -0.045306 0)
(0.736035 -0.0148095 0)
(0.735484 0.0157833 0)
(0.711289 0.0462633 0)
(0.663436 0.0751934 0)
(0.594591 0.100552 0)
(0.507449 0.121178 0)
(0.406768 0.135449 0)
(0.29765 0.143093 0)
(0.185494 0.143511 0)
(0.0762036 0.136905 0)
(-0.0255926 0.124118 0)
(-0.114968 0.106691 0)
(-0.188285 0.0861801 0)
(-0.244878 0.0652311 0)
(-0.285144 0.0447995 0)
(-0.309542 0.0270381 0)
(-0.322515 0.0142006 0)
(-0.326539 0.00442283 0)
(-0.325417 0.00178757 0)
(-0.325807 0.00263735 0)
(-0.326759 0.00720446 0)
(-0.335862 0.0163165 0)
(-0.351071 0.0242603 0)
(-0.373922 0.0341169 0)
(-0.404452 0.0408748 0)
(-0.438902 0.0453865 0)
(-0.476301 0.0462052 0)
(-0.512379 0.0430096 0)
(-0.544259 0.0357124 0)
(-0.568797 0.0253661 0)
(-0.584221 0.0120162 0)
(-0.587906 -0.0037999 0)
(-0.579087 -0.0196951 0)
(-0.558079 -0.0355739 0)
(-0.524508 -0.0507949 0)
(-0.480342 -0.0633614 0)
(-0.427235 -0.074209 0)
(-0.367077 -0.0821068 0)
(-0.301793 -0.0877661 0)
(-0.233957 -0.090695 0)
(-0.163972 -0.0929766 0)
(-0.0940276 -0.0922967 0)
(-0.0242369 -0.092658 0)
(0.0452082 -0.0907129 0)
(0.113299 -0.0906476 0)
(0.181014 -0.0883091 0)
(0.247298 -0.088012 0)
(0.313459 -0.085534 0)
(0.377607 -0.0833583 0)
(0.440442 -0.0808546 0)
(0.502282 -0.0740114 0)
(0.556466 -0.0635456 0)
(0.916141 -0.0874321 0)
(1.08924 -0.0823667 0)
(1.23493 -0.0741177 0)
(1.34194 -0.0573573 0)
(1.40758 -0.0315055 0)
(1.43253 -0.00140635 0)
(1.41897 0.0314792 0)
(1.37006 0.0622495 0)
(1.2912 0.0881806 0)
(1.18959 0.107759 0)
(1.07311 0.120643 0)
(0.949461 0.127511 0)
(0.825411 0.130104 0)
(0.705954 0.129941 0)
(0.593701 0.128564 0)
(0.488755 0.127369 0)
(0.388924 0.127403 0)
(0.290322 0.129426 0)
(0.188307 0.133932 0)
(0.0769731 0.140877 0)
(-0.0432351 0.156418 0)
(-0.174992 0.166165 0)
(-0.323342 0.176105 0)
(-0.485204 0.184999 0)
(-0.657702 0.191662 0)
(-0.836795 0.194604 0)
(-1.01769 0.19258 0)
(-1.19499 0.184685 0)
(-1.36274 0.170312 0)
(-1.51459 0.149052 0)
(-1.64394 0.120686 0)
(-1.74412 0.0852794 0)
(-1.80846 0.0434039 0)
(-1.83149 -0.00364717 0)
(-1.80768 -0.0559851 0)
(-1.73297 -0.110624 0)
(-1.60613 -0.165318 0)
(-1.4282 -0.217257 0)
(-1.2032 -0.263418 0)
(-0.938175 -0.300873 0)
(-0.642899 -0.327239 0)
(-0.328378 -0.340882 0)
(-0.0135741 -0.345739 0)
(0.2928 -0.32724 0)
(0.582062 -0.302127 0)
(0.83804 -0.267007 0)
(1.05504 -0.225543 0)
(1.22873 -0.180887 0)
(1.35851 -0.136318 0)
(1.44689 -0.0946393 0)
(1.49879 -0.0579324 0)
(1.52062 -0.0273614 0)
(1.51908 -0.00300351 0)
(1.50207 0.0146944 0)
(1.47349 0.0315649 0)
(1.4344 0.0461126 0)
(1.38642 0.0601201 0)
(1.32867 0.0748468 0)
(1.2591 0.0909892 0)
(1.17529 0.10853 0)
(1.07528 0.12674 0)
(0.958311 0.144304 0)
(0.825236 0.15957 0)
(0.678643 0.170932 0)
(0.522574 0.177319 0)
(0.361542 0.179528 0)
(0.204155 0.179322 0)
(0.0741846 0.170247 0)
(-0.0483517 0.152417 0)
(-0.169642 0.130621 0)
(-0.265242 0.112036 0)
(-0.344228 0.0963016 0)
(-0.408554 0.0848103 0)
(-0.46362 0.0786052 0)
(-0.515003 0.0778201 0)
(-0.568471 0.0817191 0)
(-0.628972 0.0888949 0)
(-0.699815 0.0976842 0)
(-0.781984 0.106361 0)
(-0.874004 0.113051 0)
(-0.972331 0.11587 0)
(-1.07194 0.113254 0)
(-1.16692 0.10423 0)
(-1.25111 0.0885263 0)
(-1.31869 0.06653 0)
(-1.36471 0.0391962 0)
(-1.38541 0.00798725 0)
(-1.37864 -0.0255767 0)
(-1.34324 -0.0600908 0)
(-1.27951 -0.094041 0)
(-1.18895 -0.126137 0)
(-1.07387 -0.155279 0)
(-0.937336 -0.180553 0)
(-0.782936 -0.20119 0)
(-0.614639 -0.216648 0)
(-0.436978 -0.226393 0)
(-0.251042 -0.231006 0)
(-0.0784717 -0.235236 0)
(0.0936685 -0.21945 0)
(0.266208 -0.209024 0)
(0.416602 -0.191499 0)
(0.553413 -0.172808 0)
(0.672096 -0.153189 0)
(0.774225 -0.134839 0)
(0.8616 -0.119231 0)
(0.937707 -0.107491 0)
(1.0067 -0.100008 0)
(1.0728 -0.0963199 0)
(1.13941 -0.0950965 0)
(1.20831 -0.0943246 0)
(1.27908 -0.0915681 0)
(1.34887 -0.0842846 0)
(1.41259 -0.070252 0)
(1.46363 -0.0480291 0)
(1.49415 -0.0167762 0)
(1.49693 0.0214814 0)
(1.46755 0.0657779 0)
(1.401 0.113744 0)
(1.29645 0.161645 0)
(1.15578 0.205942 0)
(0.983341 0.243369 0)
(0.786912 0.272062 0)
(0.572824 0.289331 0)
(0.344938 0.300389 0)
(0.135525 0.302176 0)
(-0.0704429 0.292871 0)
(-0.278153 0.278747 0)
(-0.464527 0.261733 0)
(-0.640363 0.244958 0)
(-0.800935 0.228063 0)
(-0.950253 0.212027 0)
(-1.08852 0.195995 0)
(-1.21626 0.178808 0)
(-1.33215 0.158854 0)
(-1.43349 0.134414 0)
(-1.51628 0.104244 0)
(-1.57526 0.067755 0)
(-1.60682 0.0262698 0)
(-1.60596 -0.0232267 0)
(-1.56748 -0.0747156 0)
(-1.49173 -0.126764 0)
(-1.37973 -0.176063 0)
(-1.23472 -0.219727 0)
(-1.06292 -0.255513 0)
(-0.870701 -0.281074 0)
(-0.66234 -0.298191 0)
(-0.448147 -0.307941 0)
(-0.242473 -0.307536 0)
(-0.0463772 -0.300936 0)
(0.147621 -0.283738 0)
(0.332838 -0.266901 0)
(0.501031 -0.245829 0)
(0.653478 -0.22242 0)
(0.788692 -0.19663 0)
(0.905252 -0.168375 0)
(1.00157 -0.137676 0)
(1.07612 -0.104517 0)
(1.12756 -0.0689011 0)
(1.1537 -0.0312553 0)
(1.15472 0.00556829 0)
(1.13168 0.04333 0)
(1.0831 0.0817772 0)
(1.01134 0.118145 0)
(0.916011 0.150991 0)
(0.802892 0.179839 0)
(0.676154 0.203292 0)
(0.538065 0.220981 0)
(0.394042 0.232378 0)
(0.247923 0.237264 0)
(0.104752 0.236575 0)
(-0.0375085 0.229917 0)
(-0.175915 0.218507 0)
(-0.302568 0.203117 0)
(-0.418966 0.184555 0)
(-0.522344 0.162948 0)
(-0.611678 0.138801 0)
(-0.685428 0.112 0)
(-0.742401 0.0830885 0)
(-0.78123 0.0523436 0)
(-0.801612 0.0199826 0)
(-0.801556 -0.0134504 0)
(-0.781088 -0.0452374 0)
(-0.742582 -0.0759208 0)
(-0.686897 -0.105037 0)
(-0.615254 -0.131602 0)
(-0.529018 -0.15524 0)
(-0.429698 -0.175462 0)
(-0.319635 -0.191604 0)
(-0.201481 -0.203681 0)
(-0.0773566 -0.210651 0)
(0.0512801 -0.212257 0)
(0.179671 -0.207974 0)
(0.303533 -0.197806 0)
(0.419161 -0.18072 0)
(0.522413 -0.157771 0)
(0.609928 -0.129011 0)
(0.678445 -0.09554 0)
(0.725651 -0.0584353 0)
(0.749297 -0.0188718 0)
(0.748824 0.0205892 0)
(0.72418 0.0600366 0)
(0.675201 0.0975921 0)
(0.604578 0.130541 0)
(0.515075 0.157355 0)
(0.411563 0.175931 0)
(0.299388 0.185903 0)
(0.184182 0.186426 0)
(0.0720405 0.177802 0)
(-0.0321598 0.161014 0)
(-0.12319 0.138254 0)
(-0.197308 0.111429 0)
(-0.253913 0.0839884 0)
(-0.293374 0.0572866 0)
(-0.316255 0.0342021 0)
(-0.327358 0.017491 0)
(-0.329124 0.00483796 0)
(-0.326013 0.00157979 0)
(-0.324449 0.00273246 0)
(-0.323861 0.00900951 0)
(-0.332096 0.0210584 0)
(-0.347109 0.0316676 0)
(-0.370352 0.0446511 0)
(-0.401888 0.0536394 0)
(-0.437745 0.0595902 0)
(-0.476795 0.0607854 0)
(-0.514631 0.0566775 0)
(-0.548121 0.0472123 0)
(-0.57402 0.0337416 0)
(-0.590477 0.0163954 0)
(-0.594767 -0.00421878 0)
(-0.58603 -0.0248741 0)
(-0.564813 -0.0454995 0)
(-0.530549 -0.0652827 0)
(-0.485443 -0.0815386 0)
(-0.431271 -0.0955345 0)
(-0.369994 -0.105679 0)
(-0.303681 -0.112883 0)
(-0.234994 -0.116534 0)
(-0.164368 -0.119379 0)
(-0.0938859 -0.118358 0)
(-0.0239231 -0.118745 0)
(0.0457193 -0.116167 0)
(0.113756 -0.116095 0)
(0.181616 -0.113108 0)
(0.247953 -0.112775 0)
(0.314348 -0.109673 0)
(0.378657 -0.107016 0)
(0.441839 -0.103873 0)
(0.503214 -0.0959641 0)
(0.560771 -0.087971 0)