/*--------------------------------*- C++ -*----------------------------------*\
| =========                 |                                                 |
| \\      /  F ield         | OpenFOAM: The Open Source CFD Toolbox           |
|  \\    /   O peration     | Version:  v1912                                 |
|   \\  /    A nd           | Website:  www.openfoam.com                      |
|    \\/     M anipulation  |                                                 |
\*---------------------------------------------------------------------------*/
FoamFile
{
    version     2.0;
    format      ascii;
    class       volScalarField;
    location    "80";
    object      p_rgh;
}
// * * * * * * * * * * * * * * * * * * * * * * * * * * * * * * * * * * * * * //

dimensions      [1 -1 -2 0 0 0 0];


internalField   nonuniform List<scalar> 
14268
(
195734
298217
363669
405756
429860
439829
440361
425040
409371
390742
371115
351441
331886
312024
291045
267943
241686
211375
176390
136489
91847.7
43040.9
-8977.01
-62939
-117399
-170653
-220988
-266707
-306173
-337895
-360632
-373552
-376512
-374555
-351548
-326171
-294255
-258381
-220699
-183386
-148280
-116707
-89365.7
-66288.4
-47065.4
-30933.1
-16808.5
-3593.55
9626.55
23593.3
38683.9
54770.4
71513.7
88236.4
104089
118200
129827
138461
143897
146245
146058
144859
142089
132738
126329
118839
111009
102598
93463.4
83423.7
72360.2
60268.5
47296.9
33754.9
20087.2
6841.37
-5406.29
-16211.1
-25164.3
-32064.4
-36948.3
-40019.8
-41635
-42242.8
-42303.2
-42182.4
-42141.7
-42418.8
-43198.3
-44550.4
-46420.5
-48656.4
-50999.1
-53333.4
-54919.4
-56967.3
-56611.5
-55843.4
-54106.9
-51286.6
-47408.6
-42549.6
-36832.6
-30419
-23502
-16297.7
-9031.9
-1923.81
4826
11055.2
16648.2
21534.5
25693.9
29156.7
31977.9
34223.6
35952
37201.3
37973.3
38253.6
37950
37083.6
35332.7
33001.6
29873.7
26081.2
21699.3
16894.5
11853.7
6788.64
1903.64
-2629.07
-6664.66
-10106.7
-12928
-15126
-16730.5
-17791.1
-18361.2
-18489.6
-18213.8
-17584.7
-16570.8
-15282.6
-13764.3
-12053.7
-9795.34
-7607.7
-5290.65
-2988.15
-765.811
1312.37
3181.62
4797.3
6134.41
7167.18
7925.29
8397.12
8617.6
8605.21
8391.32
7999.15
7427.09
6742.1
156138
239677
295670
332596
354825
365538
367974
357682
346341
331935
316058
299454
282298
264357
245132
223985
200253
173359
142906
108763
71094.8
30361.6
-12683.4
-57001.1
-101534
-144794
-185421
-222091
-253549
-278682
-296598
-306760
-309162
-307606
-289439
-269603
-244750
-216804
-187345
-157958
-129972
-104342
-81582.5
-61801.6
-44676.4
-29617
-16006.4
-3225.99
9326.37
22053.6
35158.6
48702.7
62407.6
75825.1
88391.8
99528
108735
115669
120194
122400
122612
121864
120116
112435
107187
100874
94097.1
86696.5
78629
69828
60267.7
49994.3
39150.1
27978.1
16803.5
6012.79
-4009.75
-12806.6
-20215.7
-26121.9
-30527.7
-33582.7
-35540.8
-36713.8
-37409.9
-37877.5
-38303
-38850.6
-39653.2
-40776.2
-42198.3
-43825.2
-45472.6
-47089.2
-48044.7
-49451.4
-48773.3
-47827.6
-46069.2
-43444.2
-39961.1
-35682
-30707.5
-25170.5
-19228.9
-13058.3
-6840.87
-752.246
5047.3
10420.4
15283.6
19565.6
23240.5
26320.6
28834.7
30821.2
32313.1
33332.1
33874.5
33933
33434.2
32428.8
30611.2
28328.4
25372.3
21883.4
17928.4
13653.1
9213.1
4783.23
530.051
-3407.85
-6912.54
-9902.15
-12348.6
-14254.5
-15635.6
-16527.4
-16969.5
-17000.2
-16650.7
-15969.4
-14932.7
-13639.2
-12157
-10511.9
-8371.51
-6323.22
-4176.27
-2059.88
-30.1525
1859.98
3554.97
5017.56
6225.14
7166.18
7836.44
8250.91
8432.22
8394.86
8166.01
7767.71
7198.35
6513.59
125954
189549
235599
267355
287675
298854
302879
297596
289777
278941
266396
252699
238020
222258
205133
186263
165244
141720
115453
86383.5
54661.4
20646.2
-15086.3
-51927
-88615.7
-124292
-157894
-188353
-214648
-235868
-251294
-260505
-263551
-262694
-248849
-233255
-213429
-190841
-166719
-142311
-118682
-96615.8
-76566.5
-58658.5
-42736.9
-28452.6
-15366.1
-3022.98
8995.57
21016.8
33204.1
45554.9
57889.3
69868.8
81056
90990
99265
105594
109853
112107
112632
112025
110749
103964
99216.3
93413.9
87114
80196
72640.7
64409.7
55499.2
45965.2
35943.7
25654.6
15385.9
5482.19
-3715.38
-11843.5
-18725.6
-24251.2
-28439.7
-31421.1
-33415.8
-34692.1
-35517.2
-36111.7
-36644.8
-37260.1
-38071.2
-39134.9
-40435.6
-41893.8
-43349.9
-44756.3
-45552.9
-46735.9
-46026.5
-45055.5
-43317.2
-40777.4
-37441.3
-33365.4
-28642.8
-23396.3
-17772.7
-11935
-6052.61
-288.669
5206.42
10309.3
14931.6
19010.8
22517.9
25461.4
27864.3
29758.5
31171.6
32121.5
32603
32610.6
32073.3
31049.9
29227.6
26973.1
24072.6
20669.5
16827.8
12688.5
8401.06
4132.55
41.8636
-3740.57
-7100.59
-9963.6
-12302.8
-14119.4
-15428.8
-16265
-16664.7
-16664
-16292.2
-15595.4
-14552.2
-13255.9
-11779.3
-10142
-8028.47
-6003.01
-3887.74
-1805.16
188.598
2042.73
3702.98
5133.51
6312.86
7217.81
7875.7
8275.64
8444
8396.58
8159.83
7754.74
7180.61
6492.71
100367
145428
181071
207067
224805
235730
241104
239742
235357
228654
219971
209651
197875
184670
169955
153574
135337
115061
92626.1
68015.4
41353.7
12915.1
-16857.7
-47535
-78084.1
-107721
-135593
-160841
-182647
-200294
-213225
-221128
-224035
-223228
-212718
-200319
-184481
-166292
-146699
-126652
-106964
-88242.9
-70851.8
-54920.5
-40373.7
-27004.9
-14560.9
-2779.31
8597.75
19771.6
30841.7
41814.1
52563.2
62853.8
72378.1
80807.5
87849
93292.5
97046
99153.4
99799.9
99324.8
98348.5
92632
88437.5
83254
77535.1
71208.3
64290.9
56790
48738.5
40211.6
31340.4
22312.8
13360.8
4755.33
-3246.84
-10308.9
-16346
-21280
-25130
-28000.9
-30063.3
-31521.1
-32574.4
-33391
-34102.8
-34818.7
-35623.6
-36563
-37630.4
-38770.1
-39862.2
-40873.7
-41353.6
-42096
-41309.1
-40226.5
-38480.9
-36052.7
-32943.4
-29202.2
-24910.2
-20174.5
-15122.1
-9893.76
-4634.26
517.57
5433.69
10007.4
14165.5
17848.4
21025.7
23697.5
25874.8
27575.5
28814.7
29601.6
29928.6
29794
29135.3
28035.9
26165.3
23943.7
21145.8
17924.6
14339.2
10519.6
6598.37
2722.2
-971.548
-4373.02
-7383.3
-9941.38
-12018.1
-13623
-14763.5
-15467.2
-15763.7
-15682.8
-15250.4
-14509.2
-13445.4
-12136.1
-10676.5
-9070.45
-7035.76
-5093.14
-3085.03
-1119.86
750.312
2481.6
4025.53
5350.97
6438.89
7277.88
7871.57
8220.43
8353.45
8281.01
8026.8
7611.52
7033.98
6340.53
81735.9
113090
140455
161982
177877
188850
196036
197185
195062
190724
184398
176296
166565
155284
142472
128101
112112
94438.8
75043.3
53950.7
31280.4
7261.13
-17721.9
-43613.1
-69219.3
-93983.6
-117233
-138283
-156483
-171262
-182187
-189015
-191740
-191031
-183157
-173284
-160583
-145856
-129835
-113244
-96709.7
-80701.4
-65512.7
-51267.3
-37951.7
-25470.1
-13700.4
-2516.02
8220.67
18631.4
28775.7
38652.1
48178.9
57194.2
65479.9
72798.1
78932.6
83724.2
87099.2
89082.7
89799.3
89431.3
88595.1
83773.4
80001
75310.4
70067.1
64235.4
57852.7
50950.7
43581.7
35829.3
27818
19713.2
11709.1
4031.72
-3135.43
-9438.11
-14867.8
-19355.3
-22923.6
-25660.4
-27705
-29221.4
-30370.9
-31289.4
-32085.8
-32847.6
-33641.8
-34504.9
-35433.1
-36383.8
-37261.7
-38034.7
-38340.3
-38811.6
-37993.2
-36871.9
-35149.8
-32817
-29875.2
-26368.8
-22370.9
-17977.7
-13303.5
-8474.84
-3621.81
1131.76
5669.84
9900.06
13749.5
17166.3
20118.4
22602.2
24622.8
26191.3
27316.7
28003.7
28243.3
28035.3
27320.3
26195.5
24308.5
22118.7
19385.4
16268.7
12824.2
9177.15
5452.47
1787.85
-1689.17
-4879.92
-7689.21
-10061.5
-11990.8
-13466.6
-14500.5
-15119.7
-15350.1
-15218.9
-14749.6
-13981.3
-12904.1
-11584.9
-10128
-8527.57
-6527.1
-4613.02
-2646.69
-727.09
1093.72
2774.5
4268.71
5547.56
6591.93
7386.06
7949.75
8274.11
8384.5
8294.04
8025.14
7597.74
7011.62
6310.78
69636.1
91933.9
112742
130143
143796
153983
161823
164467
163243
160329
155585
149085
140926
131200
119982
107324
93252
77780.1
60928.1
42750.6
23363.9
2965.8
-18063.8
-40099.2
-61670.2
-82440.8
-101887
-119466
-134659
-147019
-156209
-162038
-164472
-163834
-157949
-150065
-139857
-127919
-114812
-101084
-87204.3
-73529.5
-60285.8
-47582
-35439.5
-23839.8
-12766
-2206.82
7875.84
17538.5
26804.8
35671.2
44087.9
51950.9
59114.8
65417.1
70706.2
74867.9
77846.5
79653.2
80364.6
80072.6
79285.9
75261.4
71860.4
67617.6
62815.2
57449.1
51573.9
45243.5
38527.3
31516.7
24330.2
17112.5
10023.4
3245.11
-3126.24
-8661.38
-13474.7
-17499.9
-20762.8
-23337.1
-25334.2
-26882
-28104.6
-29106.6
-29971.1
-30764.1
-31534.6
-32309.7
-33087.8
-33837.6
-34487.8
-35008.5
-35125.1
-35301.4
-34441.7
-33266.5
-31559.2
-29317
-26543.5
-23279.2
-19589.5
-15560.2
-11292.8
-6898.78
-2492.35
1818.93
5932.9
9773.29
13269.1
16377.1
19064.4
21324.1
23154.8
24559.9
25541.6
26099.5
26222.6
25912.9
25114.3
23949.2
22024
19860.2
17194.9
14198.8
10924.3
7490.68
4013.52
618.857
-2578.83
-5495.39
-8042.6
-10192.8
-11903.8
-13204.8
-14094.3
-14597.6
-14736.1
-14533.1
-14009.1
-13199.7
-12100.4
-10764.1
-9310.15
-7720.23
-5770.39
-3904.56
-2005.65
-161.316
1578.11
3175.5
4587.96
5789.82
6765.38
7498.65
8020.24
8296.64
8372.38
8255.42
7966.21
7523.99
6928.15
6217.62
60650
76877
92708.7
106611
118084
127204
135145
138607
137686
135620
131954
126633
119702
111248
101374
90182.6
77757.9
64166.2
49467.2
33734.9
17079.3
-334.919
-18191.2
-36959.7
-55177.5
-72637
-88927.7
-103619
-116300
-126623
-134326
-139259
-141383
-140826
-136426
-130122
-121907
-112221
-101495
-90133.8
-78484.9
-66806.9
-55266.6
-43951.7
-32902.2
-22154.5
-11774.7
-1845.69
7588.06
16539.4
25000.6
32968.8
40417.3
47287.2
53489.6
58920.1
63477.9
67084.2
69697.8
71320.4
71994.2
71759.5
70980.2
67630.7
64552.1
60702.8
56296.8
51354.3
45941.9
40129.7
33998.7
27644.7
21180.1
14732.3
8433.32
2431.09
-3217.63
-8126.05
-12397.3
-16002.4
-18971.5
-21368.9
-23284.9
-24820
-26069.4
-27113
-28012.6
-28815.9
-29557.7
-30257.7
-30914.9
-31506.3
-31978.2
-32302.4
-32275.7
-32221.8
-31333.9
-30128.2
-28447.2
-26291.9
-23668.3
-20613.5
-17187
-13466.1
-9541.34
-5512.63
-1481.25
2458.27
6214.26
9724.49
12917.8
15759.1
18215.8
20278.6
21942.2
23204.9
24063.9
24514.9
24545.8
24158.8
23301.1
22112.2
20162.5
18022
15409.4
12503.7
9354.87
6078.66
2784.97
-407.483
-3392.95
-6098.34
-8436.45
-10388.8
-11941.2
-13098.8
-13868.3
-14274.3
-14335.7
-14072.9
-13503.8
-12659.9
-11540.1
-10187.3
-8728.13
-7135.89
-5214.58
-3372
-1510.1
291.927
1984.1
3531.36
4892.82
6045.04
6971.98
7664.98
8134.36
8384.81
8431.67
8290.9
7981.73
7522.67
6913.55
6191.15
53522.4
65533.8
77617.3
88654
98165.4
106152
113895
117668
116812
115245
112322
107884
101925
94520.9
85789.2
75862.8
64864.1
52894.6
40040
26385.3
12031.2
-2895.97
-18218.9
-34150.7
-49551.7
-64241.1
-77891.6
-90161.4
-100728
-109319
-115737
-119868
-121679
-121209
-117886
-112835
-106214
-98355.7
-89584.5
-80196.1
-70436.1
-60482.8
-50447.9
-40392.9
-30362.9
-20432.2
-10733
-1431.03
7360.56
15638
23349.1
30500.5
37083.3
43073.6
48426.9
53084.7
56987
60083.9
62347.1
63772.8
64379.2
64174.6
63390
60597.9
57803.1
54302.3
50255.1
45700.1
40713.6
35377.5
29782.3
24026.2
18216.5
12465.3
6882.07
1585.17
-3385.12
-7742.08
-11504.1
-14704.6
-17377.9
-19582.2
-21391.7
-22884.6
-24132.3
-25191.5
-26105.1
-26903.8
-27609.5
-28234.7
-28778.9
-29225.5
-29535.5
-29683.4
-29525.1
-29267
-28349.2
-27115.9
-25460.3
-23386.1
-20901.9
-18042.5
-14862.4
-11431.1
-7830.04
-4148.3
-475.565
3105.76
6513.61
9701.74
12594.7
15168.8
17391.5
19252.6
20743.4
21857.6
22588.2
22927.1
22860.9
22391.5
21469.5
20254.2
18275.3
16149.3
13581.7
10758.6
7728.63
4604.71
1492.09
-1497.02
-4265.63
-6752.03
-8867.98
-10616.6
-11992.4
-12991.4
-13626.8
-13923.5
-13897.4
-13565.9
-12944.1
-12059.2
-10913.8
-9540.43
-8071.45
-6475.25
-4583.52
-2766.18
-945.207
808.453
2445.82
3934.08
5234.59
6326.5
7196.3
7835.9
8264.24
8471.92
8483.2
8313.55
7980.95
7502.94
6879.06
6143.19
47649.7
56630.8
65870.6
74588.3
82393.2
89281.8
96666.1
100368
99531.8
98251.6
95844.4
92076.1
86897.2
80367.2
72611.3
63781.5
54024.7
43465.3
32204.7
20332.8
7939.71
-4882.32
-18064.9
-31619.6
-44645.4
-57002
-68428.9
-78656
-87430.4
-94543.6
-99848.1
-103264
-104773
-104395
-101831
-97766.4
-92419.7
-86046.2
-78885.3
-71146.1
-62993.1
-54536
-45836.2
-36925.3
-27843.6
-18687.6
-9645.86
-960.152
7177.07
14839.9
21852.9
28258.3
34065.4
39274.6
43876.5
47849.1
51164.3
53795.9
55727.2
56952
57472.1
57275
56489.9
54146.3
51603.3
48411.4
44689.2
40488.4
35892.1
30991.6
25883.6
20668.2
15447
10319.7
5376.83
710.977
-3659.5
-7506.9
-10794.9
-13610.7
-15991.8
-17992.9
-19675.8
-21102.1
-22322
-23374.2
-24283.4
-25065.5
-25730.9
-26286.1
-26730.6
-27052.8
-27225.3
-27226.3
-26955.6
-26533.9
-25588.3
-24336.8
-22710.1
-20713.3
-18357.3
-15675
-12716.8
-9545.95
-6235.78
-2866.3
482.773
3739.42
6829.25
9723.32
12337.9
14662.5
16665.2
18335.3
19662.1
20635.9
21246.3
21481.8
21327.8
20784.4
19806.6
18567
16570.3
14449.4
11916.1
9157.99
6223.79
3224.51
262.709
-2553.71
-5134.83
-7428.02
-9343.46
-10912.4
-12116.1
-12966.3
-13476.2
-13670.3
-13562.3
-13166.8
-12495.8
-11572
-10400.3
-9005.74
-7520.1
-5912.08
-4037.45
-2231.46
-435.163
1287.05
2886.84
4332.53
5586.99
6631.18
7452.23
8054.36
8424.68
8599.79
8577.22
8379.14
8022.22
7523.16
6881.52
6129.69
42691.3
49431.5
56488.3
63333.2
69675.6
75540.2
82484.9
85854.8
85048.5
83932.3
81888.8
78635.4
74088.4
68292.7
61375.7
53501.5
44832.3
35506.2
25633.2
15303.8
4597.48
-6420.96
-17769.6
-29329.6
-40344.2
-50724.9
-60268.5
-68763.1
-76012.2
-81858.2
-86195.3
-88973.4
-90193.7
-89916.5
-87859.7
-84562.5
-80231.8
-75062.5
-69229
-62872.1
-56090.6
-48936.7
-41425.3
-33555.6
-25351.3
-16926.4
-8519.36
-435.854
7082.88
14140.1
20505.3
26225.1
31332
35842.4
39774.3
43134
45918.9
48122.2
49737.7
50759.6
51179.1
50970.4
50189.9
48200.5
45881.2
42963.3
39535.6
35658.3
31419.6
26917.6
22253.6
17528
12838.2
8272.86
3906.96
-188.581
-4015.89
-7396.39
-10236.8
-12682.6
-14773.4
-16562.1
-18101.7
-19440.1
-20612.1
-21638.6
-22528.7
-23284.5
-23905.7
-24393.5
-24747.3
-24959.7
-25011.7
-24887
-24517.2
-23963.2
-22988.5
-21724.3
-20126.8
-18202.6
-15964.7
-13444.7
-10689.5
-7756.96
-4713.83
-1632.23
1416.8
4370.15
7159
9778.44
12125.2
14208.1
15995.9
17478.2
18642.9
19477.8
19969.5
20103.6
19863.8
19247.8
18214.9
16945.1
14945.6
12813.2
10304.5
7597.76
4743.7
1852.35
-974.574
-3631.93
-6036.08
-8143.4
-9857.08
-11247.6
-12277.5
-12973.7
-13352.8
-13439.7
-13246
-12783.1
-12060
-11094.3
-9892.58
-8474.3
-6965.8
-5341.76
-3479.43
-1680.7
95.0975
1788.65
3352.69
4756.37
5963.83
6957.9
7726.11
8282.34
8602.05
8742.1
8681.33
8451.51
8067.89
7546.1
6885.31
6116.23
38434.8
43480.2
48840.6
54168.8
59264.7
64191
70656.6
73542
72763.5
71748.9
69968.8
67118
63089.1
57915.4
51724.7
44688.1
36976.6
28735.2
20077.4
11091.2
1846.9
-7611.35
-17381.2
-27254.7
-36557.5
-45256
-53196.5
-60214.8
-66160.2
-70915.8
-74409.9
-76618.8
-77565.4
-77395.2
-75651.9
-72941
-69413.8
-65217.8
-60477.1
-55279.2
-49670.6
-43654.6
-37204.1
-30280.2
-22889.8
-15152.5
-7349.68
151.517
7112.9
13539.9
19296.3
24386.1
28856.8
32740.1
36072
38881
41184.7
42992.2
44307
45125.8
45434.3
45198.8
44425.8
42711
40590.7
37916.3
34756
31174.7
27263.9
23126.4
18866.5
14584.7
10374.1
6314.75
2468.95
-1110.75
-4445
-7395.37
-9811.04
-11900.8
-13704
-15273.3
-16656
-17889.3
-18996.2
-19982
-20841.2
-21563.1
-22137.8
-22561.7
-22834
-22950.5
-22899.1
-22668.1
-22212.6
-21557.5
-20552.7
-19281.6
-17713.9
-15858.2
-13729
-11356.8
-8786
-6069.99
-3269.8
-451.05
2322.73
4995.76
7507.2
9864.62
11960.9
13812.6
15393.9
16694.6
17702.3
18403
18780.8
18818.4
18498
17813.7
16728.3
15402.2
13460.2
11278.1
8784.27
6113.7
3321.54
517.427
-2195.8
-4714.02
-6959.45
-8897.81
-10409.4
-11632.3
-12491.2
-13036.1
-13286.6
-13268.2
-12990.8
-12462.6
-11688.8
-10681.9
-9448.62
-8005.51
-6467.83
-4821.21
-2961.98
-1160.87
605.596
2281.39
3820.24
5191.61
6360.35
7310.12
8026.29
8530.16
8812.73
8912.42
8813.55
8551.1
8139.42
7592.98
6910.69
6122.18
34738.1
38479.7
42506.8
46600.7
50634.5
54705.8
60671.4
62995.5
62235.7
61288.4
59704.6
57173.9
53575.2
48934
43377.3
37079.9
30216.7
22934.5
15345.8
7535.18
-434.272
-8532.24
-16939
-25375.4
-33212.8
-40471.8
-47041.3
-52796.7
-57623.8
-61438.5
-64196.3
-65896.4
-66582.8
-66524.7
-64947.1
-62672
-59772.3
-56357.2
-52512.3
-48284.6
-43678.5
-38656.5
-33150
-27086.9
-20449.4
-13360.4
-6137.91
787.309
7180.29
13012
18207.1
22724.2
26615.7
29934.6
32727.7
35040.1
36905.2
38345.3
39373
39989.3
40178.2
39902.3
39136.7
37630.6
35686.2
33229
30312.2
27002.3
23392.6
19588.9
15697
11817
8038.53
4434.85
1058.44
-2053.11
-4936.38
-7488.28
-9499.75
-11246
-12764.2
-14108.1
-15322.1
-16436.3
-17462.7
-18394.6
-19213
-19895
-20421.9
-20785.4
-20984.8
-21017.8
-20877.9
-20557.6
-20028
-19298.1
-18262.5
-16989.4
-15451.4
-13659.8
-11630.2
-9392.77
-6989.47
-4470.27
-1891.55
686.542
3206.82
5620.08
7874.42
9978.97
11838.5
13468.2
14849.1
15972.5
16826.3
17395.9
17663.1
17608.1
17210.9
16461.6
15328.1
13963.1
12042.3
9817.03
7331.01
4682.02
1934.3
-801.78
-3420.03
-5815.58
-7915.72
-9683.73
-11012.3
-12060.2
-12747.9
-13138.6
-13257.6
-13132.1
-12769.8
-12175.7
-11350.6
-10301.6
-9034.35
-7564.46
-5991.56
-4316.84
-2454.04
-643.986
1120.35
2784.61
4303.65
5646.88
6779.42
7685.92
8355.85
8792.44
9044.34
9102.54
8962.87
8665.28
8223.75
7651.31
6946.31
6137.24
31501.9
34227
37196.6
40280.7
43406.8
46697.6
52146.6
53882.7
53130.2
52229.9
50795.4
48523.2
45286.9
41106.8
36109.4
30470
24363
17933
11288.9
4510.81
-2342.79
-9247.33
-16472
-23677.4
-30251.1
-36271.6
-41663.7
-46334.9
-50200.1
-53201.1
-55314.9
-56558.8
-56996.9
-57051.7
-55531.6
-53566.8
-51147.2
-48350.8
-45234.6
-41815.3
-38064
-33907.7
-29236.9
-23957.4
-18008.3
-11531.2
-4878.63
1466.14
7266.41
12451.9
17221.9
21221.6
24585.4
27396.7
29705.7
31569.1
33032.9
34130.4
34883
35297.4
35358.9
35030.1
34268.9
32917.2
31127.6
28864.6
26170.5
23110.6
19778.3
16280.8
12724
9207.32
5818.02
2624.15
-328.417
-3013.46
-5480.66
-7658.32
-9287.64
-10702.4
-11938.2
-13051.6
-14086.4
-15068.7
-16002
-16869.3
-17638.9
-18277
-18756
-19063.1
-19197.7
-19159
-18944.7
-18549
-17957.1
-17174
-16108.8
-14837.7
-13328.9
-11597.1
-9658.63
-7543.46
-5291.94
-2951.15
-573.794
1784.4
4071.53
6243.94
8256.37
10124.5
11757.2
13173.2
14359.6
15310.1
16014
16456
16616.7
16473.4
16003.8
15193.6
14017.7
12619.8
10699.6
8430.74
5944.22
3302.14
580.95
-2106.96
-4649.54
-6939.61
-8906.33
-10504.4
-11670.3
-12535
-13049.6
-13284.8
-13271.1
-13039
-12592.8
-11934.2
-11059.1
-9968.69
-8666.28
-7167.59
-5554.25
-3844.45
-1970.1
-142.585
1629.06
3290.62
4798
6120.11
7221.95
8089.3
8723.34
9112.38
9304.58
9312.06
9133.6
8799.32
8326.53
7726.54
6997.2
6165.91
28654.7
30580.3
32705.6
34960.2
37307.4
39882
44791.7
45946.5
45189.3
44321.1
42999.9
40939.6
38013.5
34239.3
29741.9
24694.4
19266.6
13597.6
7790.19
1920.24
-3955.63
-9810.42
-16005.8
-22141.8
-27622.4
-32571.3
-36948.3
-40685.8
-43721.8
-46018.4
-47568.6
-48403.1
-48602.7
-48762.5
-47231.3
-45470.6
-43405.7
-41089.1
-38557
-35804
-32774.8
-29361.4
-25425.8
-20835
-15480.4
-9629.19
-3563.04
2181.65
7386.45
11898.3
16315.6
19852
22746.7
25100.6
26977.3
28436.1
29532.9
30310.2
30797.9
31009.9
30935.4
30539.4
29775.4
28533
26877.8
24789.3
22300.8
19473.7
16399.3
13184.4
9933.64
6745.14
3705.03
877.887
-1693.6
-3990.39
-6071.86
-7882.52
-9163.39
-10259.5
-11215.7
-12093.7
-12939.4
-13777.3
-14604.9
-15396.4
-16109.6
-16699.5
-17131.3
-17387.3
-17466.5
-17367.9
-17093.8
-16638
-15994
-15174.3
-14084.7
-12818.7
-11338.4
-9662.01
-7806.43
-5801.75
-3687.07
-1507.22
687.918
2846.06
4919.58
6869.16
8655.11
10300.4
11716.3
12926.1
13922.9
14703.7
15260.3
15577.4
15634.8
15407.4
14870.2
14004.1
12791.3
11360.8
9436.7
7118.92
4623.04
1973.15
-740.442
-3401.45
-5889.06
-8092.24
-9939.08
-11374.5
-12373.4
-13056.8
-13394.4
-13470.7
-13321.3
-12981.4
-12451.3
-11729.1
-10805.2
-9673.88
-8335.53
-6805.17
-5148.91
-3396.14
-1503.18
349.801
2137.36
3804.23
5306.76
6613.52
7688
8517.9
9116.62
9453.96
9588.42
9540.9
9323.11
8949.85
8444.5
7815.96
7061.62
6207.31
26940.5
28432.7
30096.6
31887.1
33781.2
35911.7
40438.5
41229.5
40467.4
39616.3
38356.1
36415
33668.9
30135.6
25939.4
21251.1
16235.2
11025.6
5720.23
391.773
-4902.25
-10128
-15718.4
-21215.2
-26044.1
-30357.1
-34133.5
-37318.6
-39862.8
-41739.5
-42949.4
-43529.3
-43569.4
-43778.6
-42233.2
-40549.3
-38659.2
-36596.8
-34387
-32012.4
-29401.7
-26420.2
-22915.8
-18699.9
-13658.8
-8237.19
-2624.3
2698.04
7502.83
11674.5
15780.7
19020.2
21628.7
23696.7
25306.8
26514.3
27380.1
27952.3
28266.6
28342.6
28172.9
27724.8
26954.7
25764.9
24189.2
22207.3
19847.4
17166.1
14252.4
11212.5
8149.25
5160.24
2331.99
-272.275
-2609.91
-4662.15
-6496.58
-8056.69
-9126.05
-10012.2
-10780
-11496.1
-12209
-12943.8
-13694.6
-14430.9
-15103.8
-15661
-16062.1
-16286.8
-16333.7
-16201.6
-15892.5
-15404
-14730.5
-13888.9
-12792.4
-11528.4
-10066.1
-8424.1
-6619.41
-4682.41
-2651.57
-570.515
1512.24
3546.25
5486.17
7294.85
8935.8
10438.5
11713.1
12787.2
13658.6
14327
14786.1
15021.3
15011.5
14730.5
14150.6
13249.4
12014.7
10557.1
8627.82
6271.49
3761.64
1095.85
-1625.57
-4282.25
-6745.52
-8901.61
-10674.8
-11997
-12884.5
-13441.3
-13655.3
-13620.9
-13377.3
-12964.2
-12378.2
-11614.3
-10659.1
-9500.69
-8137.76
-6583.86
-4896.32
-3108.52
-1197.79
678.306
2482.68
4158.68
5662.42
6962.85
8020.92
8825.83
9403.88
9701.48
9796.53
9710.47
9463.58
9062.42
8534.16
7885.57
7113.78
6242.95
26078.5
27360.9
28800.9
30364.3
32033.3
33938.2
38259.7
38868.1
38103.2
37260.2
36029.7
34147
31490.5
28077.8
24033.2
19526
14717.7
9739.29
4685.69
-371.921
-5375.19
-10285.8
-15574.4
-20752.2
-25253.7
-29248.9
-32726
-35636.2
-37935.5
-39603
-40642.8
-41093.9
-41051
-41280.9
-39728.8
-38073.9
-36263.7
-34321.9
-32267.6
-30078.4
-27675
-24906.3
-21613.8
-17568
-12571.6
-7481.51
-2125.47
2972.75
7569.1
11562.8
15510.4
18601.6
21065.7
22988.5
24463.5
25543.3
26291.1
26757.9
26982.4
26987.3
26767.1
26290.7
25516.4
24350.8
22814.7
20886.7
18592.3
15985.3
13153.5
10202.4
7233.83
4345.17
1623.45
-868.736
-3088.35
-5015.63
-6723.25
-8153.44
-9114.84
-9891.93
-10561.4
-11192.3
-11835
-12514.8
-13224.6
-13931.4
-14582.8
-15123.2
-15508.5
-15717.6
-15748.5
-15600.6
-15273.8
-14769.7
-14082
-13227.4
-12133
-10867.9
-9414.86
-7790.28
-6011.2
-4108.23
-2119.54
-88.2091
1937.87
3909.07
5781.18
7517.97
9084.48
10514.1
11715.7
12719.6
13525.8
14135.8
14544.4
14737.1
14692.7
14384.2
13782.6
12863.5
11618.4
10145.7
8213.08
5835.99
3317.51
641.403
-2086.71
-4743.96
-7197.15
-9331.1
-11067
-12329.5
-13158.6
-13648.2
-13796.7
-13703.7
-13410.4
-12958.9
-12343.9
-11558.5
-10587.3
-9414.94
-8039.19
-6472.64
-4768.23
-2961.11
-1040.09
849.222
2663.53
4345.34
5850.53
7148.38
8198.24
8990.23
9557.44
9833.29
9908.04
9801.85
9539.18
9123.17
8582.78
7923.64
7142.75
6263.14
25251.9
26340.7
27573.4
28924.3
30379.3
32064.4
36173.4
36605.5
35836.3
34999.9
33796
31968.4
29397.6
26101.7
22204.6
17873.4
13266.3
8510.77
3698.82
-1099.97
-5826.02
-10436.2
-15435.1
-20307.1
-24495.3
-28187.6
-31380.5
-34030.2
-36097.4
-37567
-38445.4
-38772.9
-38648.2
-38893.7
-37335.3
-35698.4
-33955.6
-32120.6
-30207.6
-28189.5
-25977.6
-23411.1
-20313.2
-16405
-11478
-6668.5
-1618.91
3249.79
7638.51
11457.3
15241.8
18195.6
20522.3
22305.2
23650.5
24607.2
25240.3
25603.7
25739.1
25672.5
25400.6
24893.8
24113.4
22968.3
21469.7
19594
17363.8
14830.1
12078.4
9214.16
6337.44
3545.4
925.903
-1458.96
-3565.37
-5371.18
-6955.23
-8256.88
-9112.83
-9782
-10353.4
-10898.4
-11469.6
-12093.2
-12760.4
-13436.4
-14065.6
-14588.9
-14958.6
-15153
-15169.4
-15007.2
-14665.1
-14146.5
-13446.1
-12579.9
-11488
-10222.6
-8778.7
-7170.97
-5416.49
-3546.14
-1597.84
385.843
2357.49
4268.24
6074.81
7741.74
9235.45
10593.5
11723.2
12657.6
13399
13950.7
14308.9
14459.4
14380.8
14045.4
13422.8
12486.4
11232
9744.28
7808.02
5409.93
2881.72
193.337
-2544.23
-5205.22
-7651.39
-9766.17
-11466.1
-12669
-13439.8
-13861.5
-13943.2
-13791
-13447.4
-12957.5
-12313.8
-11507.2
-10520.5
-9334.35
-7945.97
-6366.59
-4644.95
-2817.5
-885.206
1018.52
2844.04
4532.87
6040.51
7336.71
8378.91
9162.4
9710.56
9968.63
10022.6
9896.13
9616.99
9186
8633.36
7963.65
7173.79
6285.41
24459.7
25370
26411
27563.6
28814.9
30285.8
34174.2
34436.8
33661.9
32830.3
31650.1
29874.4
27386
24203.4
20450
16290.2
11878
7337.34
2757.14
-1794.61
-6256.64
-10581.3
-15301
-19879.7
-23767.2
-27170.1
-30092.5
-32494.4
-34341.1
-35622.6
-36347.3
-36555.7
-36349.9
-36605.6
-35041.9
-33413.7
-31727.4
-29987.1
-28202.7
-26342.7
-24307.4
-21934.2
-19014.2
-15204.8
-10368.5
-5825.28
-1107.64
3528.31
7710.26
11355.1
14970.8
17801.7
19998.2
21646.1
22867.2
23705.1
24226.8
24488.8
24535.8
24397.5
24072.5
23533.4
22744.9
21617.1
20154
18328.7
16161.7
13699.9
11027
8247.45
5459.6
2760.38
238.817
-2043.44
-4041.39
-5728.97
-7192.42
-8367.56
-9119.59
-9681.62
-10154.9
-10613.5
-11112.1
-11678
-12301.4
-12945.5
-13551.8
-14058
-14412.8
-14593.2
-14596.2
-14420.8
-14066
-13533.9
-12822
-11945.2
-10855.8
-9590.99
-8155.96
-6564.55
-4833.72
-2994.72
-1085.22
852.659
2771.89
4624.26
6367.37
7966.27
9388.61
10676.6
11735.4
12600.8
13277.8
13771.5
14079.5
14188.1
14075.7
13714.2
13071.1
12118
10855.2
9352.2
7411.56
4992.03
2452.79
-249.922
-2999.67
-5667.43
-8109.47
-10207.9
-11872.9
-13016
-13728.5
-14080.8
-14094.8
-13882.5
-13488
-12959.6
-12287.3
-11459.9
-10458
-9258.41
-7857.56
-6265.07
-4525.64
-2676.98
-732.365
1186.92
3024.86
4721.78
6232.72
7528.03
8563.14
9341.75
9863.63
10106.7
10140
9992.98
9696.8
9250.68
8685.65
8005.34
7206.54
6309.26
23700.4
24445.9
25310
26277.4
27335
28596.9
32255.4
32355.8
31573.9
30745.1
29585.8
27859
25450.2
22378
18765
14772.3
10549.2
6215.87
1857.93
-2458.16
-6668.93
-10722.9
-15172.9
-19469.4
-23068
-26194.1
-28859
-31025.3
-32662.3
-33765.3
-34344
-34437.6
-34151.7
-34412.2
-32843.8
-31215.9
-29575.8
-27918.6
-26250.7
-24536.5
-22665.4
-20472.4
-17713.7
-13918.4
-9207.78
-4984.28
-594.307
3807.1
7783.48
11255.3
14684.2
17418.8
19491.5
21012.6
22112.7
22836
23249.5
23411.9
23371
23160.6
22781.2
22207.9
21408.7
20295.4
18865.7
17089.5
14984.7
12593.9
9998.29
7301.59
4599.85
1989.72
-438.091
-2622.4
-4516.76
-6088.92
-7434.97
-8485.85
-9135.02
-9590.57
-9965.81
-10337.3
-10762
-11269
-11847.1
-12458.2
-13041
-13530
-13870.3
-14038
-14028.6
-13841.8
-13475.7
-12931.8
-12209.5
-11323
-10236.6
-8973.04
-7546.71
-5971.07
-4262.94
-2454.01
-581.713
1312.22
3181.08
4977.18
6658.92
8191.64
9544
10763.4
11752.3
12549.3
13162.2
13598.1
13856.1
13923
13777.2
13390
12727.3
11758.1
10487.8
8969.07
7023.38
4582.09
2030.48
-688.596
-3453.29
-6130.9
-8571.71
-10656.7
-12288
-13370.7
-14024.5
-14306.5
-14251.3
-13978.2
-13531.9
-12965.2
-12264.4
-11416.5
-10400.1
-9187.3
-7774.24
-6168.45
-4410.52
-2540
-581.924
1354.12
3205.74
4911.92
6427.08
7722.34
8750.96
9524.46
10021.1
10248
10260.2
10092.4
9778.52
9317.18
8739.64
8048.71
7241.05
6334.74
22972.4
23566
24267.1
25061.7
25934.7
26992.8
30411.2
30356.9
29566.7
28738.5
27597.4
25916.8
23585
20620.7
17145.4
13316.2
9276.68
5143.51
998.709
-3092.74
-7064.55
-10862.9
-15050.9
-19075.9
-22396.1
-25257.3
-27677.1
-29619.4
-31057
-31990.8
-32430.8
-32413.9
-32048.8
-32308.2
-30736.1
-29100.9
-27497.2
-25912.3
-24349.2
-22769.4
-21050.1
-19024.9
-16413.7
-12508.3
-8081.51
-4151.71
-82.2593
4084.9
7857.31
11157.2
14356.8
17046.5
19000.9
20404.3
21386.1
21999.1
22307.3
22371.9
22243.7
21960.6
21525.5
20916
20103.3
19001.9
17603.7
15874.9
13831.6
11511.1
8991.64
6376.13
3757.8
1233.11
-1105.08
-3196.11
-4991.9
-6451.04
-7683.02
-8611.96
-9158.96
-9508.55
-9785.76
-10069.4
-10419.2
-10865.8
-11397.3
-11974.2
-12532.7
-13004.6
-13330.9
-13486.8
-13466.7
-13269.9
-12894.1
-12339.9
-11608.5
-10713.2
-9629.82
-8368.38
-6950.49
-5390.11
-3703.73
-1923.63
-86.9859
1764.83
3585.28
5327.19
6949.62
8417.95
9701.59
10853.9
11774
12503.1
13052.1
13430.2
13638.4
13663.9
13485
13072.9
12391.2
11406.4
10129.8
8595
6643.52
4180.3
1615
-1122.56
-3905.12
-6595.81
-9038.49
-11113.1
-12712
-13733.1
-14328.9
-14538.6
-14412.8
-14077.9
-13579
-12973.8
-12245
-11376.9
-10346.7
-9120.85
-7695.88
-6076.56
-4299.22
-2406.45
-433.703
1520.31
3386.88
5103.47
6623.71
7919.7
8942.45
9711.22
10181.9
10392.3
10383.3
10194.2
9862.04
9385.4
8795.26
8093.69
7277.27
6361.86
22274.5
22728
23279.2
23912.8
24609.7
25469.1
28635.7
28434.5
27634.7
26805
25679.2
24042.4
21785.4
18927.1
15587.3
11918.2
8057.38
4117.55
177.134
-3700.39
-7445.06
-11002.9
-14935.1
-18698.7
-21750.2
-24357.5
-26544.1
-28273.5
-29521.3
-30295
-30603.9
-30480.8
-30037.5
-30289.4
-28714.7
-27065.4
-25488.8
-23965.7
-22496.3
-21040.5
-19459.9
-17590.4
-15115
-11150.8
-7016.89
-3277.56
425.984
4360.43
7930.98
11061.1
13958.9
16684.8
18527.5
19818
20687
21193.5
21399.4
21367.7
21152.6
20796.4
20304
19656.3
18826.9
17735
16366.3
14683.8
12701.5
10450.6
8006.3
5470.5
2933.04
490.158
-1762.44
-3764.82
-5466.84
-6816.12
-7936.73
-8745.99
-9191.29
-9435.33
-9614.47
-9809.54
-10083.1
-10468.1
-10951.4
-11492.9
-12026.7
-12481.2
-12794.1
-12939.3
-12910.2
-12705.1
-12321.1
-11758.2
-11018.7
-10115.5
-9035.22
-7776.84
-6367.11
-4821.47
-3155.9
-1403.39
399.123
2210.62
3984.63
5674.39
7239.57
8645.3
9861.44
10948.2
11800.3
12462
12947.3
13267.8
13426.3
13410.5
13199
12762.5
12062.5
11062.6
9781
8229.76
6271.66
3786.47
1206.1
-1552.07
-4355.46
-7062.55
-9510.12
-11577.6
-13146.8
-14102.1
-14640.4
-14777.1
-14579.2
-14181.6
-13629.2
-12985.5
-12228.9
-11341.1
-10297.6
-9059.12
-7622.64
-5989.14
-4192.66
-2276.49
-287.871
1685.37
3568.21
5296.39
6822.62
8120.17
9137.76
9901.93
10346.5
10539.8
10509.2
10298.5
9947.19
9455.31
8852.49
8140.32
7315.29
6390.69
21581.8
21901.9
22311
22789.3
23312.2
23971
26863.5
26518.2
25707.5
24873.2
23760.5
22166.6
19985.5
17235.4
14034.3
10528.2
6847.44
3101.08
-636.468
-4303.36
-7824.63
-11149.5
-14821.6
-18324.2
-21106.8
-23461.9
-25419.1
-26939
-27999.9
-28617.2
-28798
-28569.4
-28046.3
-28283.3
-26707.2
-25037.2
-23479.3
-22009.6
-20626.2
-19284.6
-17840.9
-16117.3
-13771.1
-9648.77
-5959.11
-2477.44
942.646
4641.83
8006.46
10967.5
13695.1
16325.2
18055.1
19233.4
19990.6
20391.2
20494.1
20364.4
20059.5
19627
19073.5
18384.3
17533.7
16449.6
15109.4
13473.5
11554
9375
7007.69
4553.12
2096.86
-265.049
-2433.14
-4348.56
-5955.75
-7199.55
-8205.48
-8893.03
-9233.34
-9368.44
-9446.01
-9548.62
-9742.02
-10061.7
-10493.6
-10997
-11504.7
-11940.7
-12240.6
-12376.1
-12339.2
-12127.5
-11736.7
-11166.4
-10419.6
-9509.35