/*--------------------------------*- C++ -*----------------------------------*\
| =========                 |                                                 |
| \\      /  F ield         | OpenFOAM: The Open Source CFD Toolbox           |
|  \\    /   O peration     | Version:  v1912                                 |
|   \\  /    A nd           | Website:  www.openfoam.com                      |
|    \\/     M anipulation  |                                                 |
\*---------------------------------------------------------------------------*/
FoamFile
{
    version     2.0;
    format      ascii;
    class       volVectorField;
    location    "80";
    object      U;
}
// * * * * * * * * * * * * * * * * * * * * * * * * * * * * * * * * * * * * * //

dimensions      [0 1 -1 0 0 0 0];


internalField   nonuniform List<vector> 
14268
(
(0.39119 -0.0393002 0)
(0.41054 -0.0395041 0)
(0.350524 -0.0427082 0)
(0.277847 -0.0450394 0)
(0.198334 -0.0458491 0)
(0.115281 -0.0451228 0)
(0.0344662 -0.042523 0)
(-0.045378 -0.040694 0)
(-0.124532 -0.0375864 0)
(-0.198562 -0.0346276 0)
(-0.26916 -0.0321994 0)
(-0.33678 -0.0304757 0)
(-0.402148 -0.0294586 0)
(-0.465954 -0.0289868 0)
(-0.528581 -0.0287708 0)
(-0.589924 -0.0284546 0)
(-0.649303 -0.0276848 0)
(-0.7055 -0.0261676 0)
(-0.756855 -0.0237012 0)
(-0.801408 -0.0201852 0)
(-0.837056 -0.0156166 0)
(-0.861708 -0.0100693 0)
(-0.873436 -0.00368116 0)
(-0.870558 0.0033413 0)
(-0.851768 0.0108938 0)
(-0.816201 0.0186017 0)
(-0.763436 0.0262044 0)
(-0.693669 0.0334205 0)
(-0.607776 0.0399457 0)
(-0.507351 0.0454655 0)
(-0.39468 0.0496825 0)
(-0.272604 0.0523458 0)
(-0.141719 0.0531877 0)
(-0.016631 0.0499836 0)
(0.105964 0.0487495 0)
(0.229328 0.0439357 0)
(0.338947 0.0379716 0)
(0.435772 0.0311313 0)
(0.517675 0.0240061 0)
(0.583999 0.017138 0)
(0.635119 0.0110302 0)
(0.672406 0.00606892 0)
(0.697957 0.00249317 0)
(0.7144 0.000521647 0)
(0.724494 -0.000194446 0)
(0.730491 -0.000268193 0)
(0.733946 4.16061e-05 0)
(0.73566 0.00045208 0)
(0.735381 0.000437389 0)
(0.731991 -0.000103672 0)
(0.723978 -0.00121682 0)
(0.709427 -0.00335365 0)
(0.686469 -0.00615581 0)
(0.653825 -0.00933161 0)
(0.610827 -0.0125458 0)
(0.55757 -0.015469 0)
(0.494902 -0.0178298 0)
(0.424309 -0.0194547 0)
(0.347701 -0.0202962 0)
(0.266903 -0.0204656 0)
(0.182613 -0.0196898 0)
(0.0984528 -0.0171145 0)
(0.0245724 -0.0154589 0)
(-0.0519008 -0.0158056 0)
(-0.132765 -0.0146545 0)
(-0.206122 -0.014154 0)
(-0.277695 -0.0137529 0)
(-0.3465 -0.0134138 0)
(-0.412443 -0.0130059 0)
(-0.474783 -0.0123858 0)
(-0.532395 -0.0114193 0)
(-0.583803 -0.0100122 0)
(-0.627376 -0.00813079 0)
(-0.661524 -0.00581011 0)
(-0.684981 -0.00314724 0)
(-0.696988 -0.000258139 0)
(-0.697324 0.00281203 0)
(-0.686558 0.00495875 0)
(-0.666087 0.00673999 0)
(-0.63758 0.00815506 0)
(-0.60319 0.00893141 0)
(-0.565287 0.00907069 0)
(-0.526062 0.00864936 0)
(-0.487377 0.00775842 0)
(-0.450695 0.00650319 0)
(-0.416801 0.00519217 0)
(-0.385311 0.00427738 0)
(-0.354867 0.00391726 0)
(-0.323808 0.00407876 0)
(-0.290442 0.00472449 0)
(-0.253111 0.00579759 0)
(-0.210422 0.00720248 0)
(-0.160876 0.00883629 0)
(-0.105287 0.0104878 0)
(-0.03766 0.0123242 0)
(0.0314212 0.0128932 0)
(0.103641 0.0148375 0)
(0.188464 0.0158972 0)
(0.274209 0.016198 0)
(0.361054 0.0161807 0)
(0.447185 0.0157242 0)
(0.530421 0.0148171 0)
(0.608532 0.0134699 0)
(0.679372 0.0117162 0)
(0.740947 0.00961434 0)
(0.791562 0.00724764 0)
(0.82988 0.00471817 0)
(0.855045 0.00215061 0)
(0.866621 -0.000378515 0)
(0.864658 -0.00255636 0)
(0.849942 -0.00455152 0)
(0.823106 -0.00619867 0)
(0.785195 -0.00750577 0)
(0.737179 -0.00852099 0)
(0.67993 -0.00933727 0)
(0.614031 -0.0100694 0)
(0.539732 -0.010833 0)
(0.457065 -0.0117152 0)
(0.365756 -0.0127553 0)
(0.266013 -0.0139257 0)
(0.157084 -0.0151141 0)
(0.0418159 -0.0164144 0)
(-0.0804224 -0.0170507 0)
(-0.208641 -0.0174506 0)
(-0.337557 -0.0172021 0)
(-0.465368 -0.0162649 0)
(-0.587669 -0.0146207 0)
(-0.700893 -0.012338 0)
(-0.801262 -0.00956931 0)
(-0.88572 -0.00652019 0)
(-0.951806 -0.00341009 0)
(-0.998177 -0.000474114 0)
(-1.02422 0.00215583 0)
(-1.03087 0.00393615 0)
(-1.01818 0.00572934 0)
(-0.987839 0.00687832 0)
(-0.941629 0.00764604 0)
(-0.881062 0.00814773 0)
(-0.807542 0.00850784 0)
(-0.72214 0.00882409 0)
(-0.625797 0.00913061 0)
(-0.519906 0.00945264 0)
(-0.40267 0.00973366 0)
(-0.276652 0.00947478 0)
(-0.151801 0.00919678 0)
(-0.0258255 0.00836033 0)
(0.104912 0.00779446 0)
(0.233667 0.00636458 0)
(0.354379 0.00468442 0)
(0.464592 0.00277998 0)
(0.561876 0.000776722 0)
(0.643729 -0.00115388 0)
(0.708827 -0.00288083 0)
(0.756571 -0.00427436 0)
(0.787116 -0.00534534 0)
(0.800737 -0.00606034 0)
(0.799428 -0.0058862 0)
(0.784883 -0.00560826 0)
(0.757452 -0.00507784 0)
(0.719009 -0.0043937 0)
(0.670832 -0.00362743 0)
(0.613775 -0.00283946 0)
(0.547006 -0.00163138 0)
(0.475221 -0.000214006 0)
(0.411756 0.00307897 0)
(0.41405 0.0222161 0)
(0.351548 0.0308754 0)
(0.27804 0.0360588 0)
(0.198037 0.0392526 0)
(0.114874 0.0410731 0)
(0.0334718 0.0429479 0)
(-0.0467598 0.0405676 0)
(-0.125612 0.0402681 0)
(-0.199674 0.0396902 0)
(-0.270278 0.0389414 0)
(-0.337882 0.0381645 0)
(-0.40324 0.0373989 0)
(-0.46706 0.0366014 0)
(-0.529739 0.0356693 0)
(-0.591182 0.034451 0)
(-0.650722 0.0327503 0)
(-0.70714 0.0303445 0)
(-0.758764 0.0270165 0)
(-0.803616 0.0225899 0)
(-0.839562 0.0169595 0)
(-0.864483 0.0101041 0)
(-0.876436 0.00211215 0)
(-0.873675 -0.00664204 0)
(-0.854911 -0.0163795 0)
(-0.819305 -0.0264964 0)
(-0.766363 -0.0365995 0)
(-0.696266 -0.0463017 0)
(-0.609879 -0.0551988 0)
(-0.508791 -0.0628696 0)
(-0.395294 -0.0688886 0)
(-0.272281 -0.0728466 0)
(-0.141193 -0.0745003 0)
(-0.0144651 -0.078237 0)
(0.10984 -0.0719634 0)
(0.233349 -0.0673103 0)
(0.343639 -0.0605833 0)
(0.440811 -0.0526334 0)
(0.522776 -0.0439865 0)
(0.588861 -0.0352799 0)
(0.639482 -0.027107 0)
(0.676088 -0.0199355 0)
(0.70094 -0.014043 0)
(0.716696 -0.00939397 0)
(0.726031 -0.00598083 0)
(0.731411 -0.00369902 0)
(0.734621 -0.00205895 0)
(0.736366 -0.000528476 0)
(0.736374 0.00125588 0)
(0.733547 0.00375388 0)
(0.726034 0.00728659 0)
(0.711847 0.0116608 0)
(0.6892 0.016895 0)
(0.656662 0.0227339 0)
(0.61351 0.0287911 0)
(0.559831 0.0346198 0)
(0.49651 0.0397921 0)
(0.425103 0.0439592 0)
(0.347596 0.0468895 0)
(0.266073 0.048463 0)
(0.181735 0.0491682 0)
(0.0971762 0.0516113 0)
(0.0218245 0.0514022 0)
(-0.0548951 0.0474723 0)
(-0.135266 0.0464253 0)
(-0.208692 0.0447823 0)
(-0.280187 0.0432413 0)
(-0.349051 0.0415602 0)
(-0.415216 0.0395558 0)
(-0.477945 0.0369821 0)
(-0.536069 0.0336118 0)
(-0.588034 0.0292881 0)
(-0.632105 0.0239713 0)
(-0.666582 0.0177688 0)
(-0.690084 0.0109399 0)
(-0.701751 0.00390529 0)
(-0.701689 -0.00280925 0)
(-0.690285 -0.00932716 0)
(-0.668624 -0.0147763 0)
(-0.638851 -0.0188036 0)
(-0.603305 -0.021391 0)
(-0.564407 -0.0225933 0)
(-0.524471 -0.022665 0)
(-0.485455 -0.0220339 0)
(-0.448782 -0.0212077 0)
(-0.415087 -0.0204458 0)
(-0.383961 -0.0197837 0)
(-0.354102 -0.0195256 0)
(-0.323772 -0.0200774 0)
(-0.291129 -0.0216593 0)
(-0.2544 -0.0242831 0)
(-0.212108 -0.0278124 0)
(-0.162735 -0.0319561 0)
(-0.106975 -0.0366067 0)
(-0.0393125 -0.040655 0)
(0.0305383 -0.0468801 0)
(0.103934 -0.0489025 0)
(0.189285 -0.0512593 0)
(0.27589 -0.0530458 0)
(0.363776 -0.0534625 0)
(0.450895 -0.0525101 0)
(0.535059 -0.0501489 0)
(0.613998 -0.0463941 0)
(0.685519 -0.0413176 0)
(0.747583 -0.035058 0)
(0.798454 -0.0278176 0)
(0.836769 -0.0198571 0)
(0.861649 -0.0114792 0)
(0.872745 -0.00299446 0)
(0.870074 0.00533545 0)
(0.854466 0.0131559 0)
(0.826742 0.02045 0)
(0.787985 0.0271084 0)
(0.739251 0.0331928 0)
(0.681461 0.0388459 0)
(0.615206 0.0442638 0)
(0.540704 0.0496413 0)
(0.457903 0.0551246 0)
(0.366419 0.0607529 0)
(0.266346 0.0664353 0)
(0.156729 0.0719482 0)
(0.040543 0.0765337 0)
(-0.0829886 0.0807696 0)
(-0.212969 0.0830006 0)
(-0.34378 0.083279 0)
(-0.473551 0.0811225 0)
(-0.597659 0.0763826 0)
(-0.712341 0.0690906 0)
(-0.813638 0.059509 0)
(-0.898403 0.0480797 0)
(-0.96414 0.0353895 0)
(-1.00955 0.0221117 0)
(-1.03435 0.00902362 0)
(-1.03929 -0.00401998 0)
(-1.02466 -0.0158314 0)
(-0.992666 -0.0266417 0)
(-0.944929 -0.0364075 0)
(-0.883064 -0.0452316 0)
(-0.808445 -0.0532924 0)
(-0.722067 -0.0607193 0)
(-0.624735 -0.0675952 0)
(-0.517716 -0.0738169 0)
(-0.3993 -0.0791177 0)
(-0.271764 -0.0839155 0)
(-0.145104 -0.0868488 0)
(-0.0169595 -0.0880638 0)
(0.115584 -0.0858694 0)
(0.24582 -0.0820856 0)
(0.367733 -0.0758109 0)
(0.478548 -0.0674071 0)
(0.575775 -0.0573006 0)
(0.65686 -0.0459873 0)
(0.720586 -0.0340816 0)
(0.766444 -0.0221532 0)
(0.794758 -0.0106556 0)
(0.806245 -0.000201367 0)
(0.802911 0.00938086 0)
(0.786177 0.0177649 0)
(0.756946 0.0252025 0)
(0.716929 0.0316573 0)
(0.667325 0.0372614 0)
(0.609096 0.0420345 0)
(0.541322 0.0463118 0)
(0.468389 0.0500089 0)
(0.429618 0.0149784 0)
(0.419547 0.0381813 0)
(0.35387 0.0508669 0)
(0.278937 0.0586682 0)
(0.198062 0.0633577 0)
(0.11448 0.0658049 0)
(0.0321245 0.0670771 0)
(-0.0485044 0.063981 0)
(-0.12689 0.0625323 0)
(-0.201037 0.0601616 0)
(-0.27167 0.0576909 0)
(-0.339268 0.0553774 0)
(-0.404626 0.0532619 0)
(-0.468476 0.0512468 0)
(-0.531235 0.0491481 0)
(-0.592817 0.0467263 0)
(-0.652561 0.0437126 0)
(-0.709245 0.0398395 0)
(-0.761183 0.0348771 0)
(-0.806371 0.028665 0)
(-0.842642 0.0211344 0)
(-0.867837 0.0123172 0)
(-0.879879 0.00236424 0)
(-0.877208 -0.00822758 0)
(-0.858452 -0.0196666 0)
(-0.822517 -0.0312971 0)
(-0.769084 -0.0426672 0)
(-0.698369 -0.0533418 0)
(-0.611254 -0.062885 0)
(-0.509353 -0.0708655 0)
(-0.394977 -0.0768783 0)
(-0.271058 -0.0805875 0)
(-0.139981 -0.081864 0)
(-0.0119814 -0.0846933 0)
(0.11366 -0.0776441 0)
(0.236869 -0.0721405 0)
(0.347365 -0.0646682 0)
(0.444492 -0.056087 0)
(0.526237 -0.0469396 0)
(0.591951 -0.0378593 0)
(0.642107 -0.029403 0)
(0.678213 -0.0219966 0)
(0.702565 -0.0158851 0)
(0.717899 -0.0111734 0)
(0.726987 -0.00765192 0)
(0.73224 -0.00493152 0)
(0.735353 -0.00270403 0)
(0.73705 -0.000648994 0)
(0.73703 0.00163389 0)
(0.734143 0.0043475 0)
(0.726622 0.00765465 0)
(0.712446 0.011777 0)
(0.689735 0.0165543 0)
(0.657076 0.0217556 0)
(0.613754 0.0270569 0)
(0.559869 0.0320985 0)
(0.496327 0.0365423 0)
(0.4247 0.0401186 0)
(0.34699 0.0426677 0)
(0.265285 0.044169 0)
(0.181283 0.0448199 0)
(0.0967883 0.0468127 0)
(0.0205245 0.0471986 0)
(-0.0562356 0.043383 0)
(-0.136163 0.0426069 0)
(-0.209675 0.0412662 0)
(-0.281219 0.0398968 0)
(-0.350142 0.0382604 0)
(-0.416335 0.0362604 0)
(-0.479058 0.0337496 0)
(-0.537138 0.0305947 0)
(-0.589026 0.0267048 0)
(-0.632988 0.0220648 0)
(-0.667336 0.0167584 0)
(-0.690707 0.0109722 0)
(-0.70226 0.00497847 0)
(-0.702002 -0.000915171 0)
(-0.690416 -0.00632259 0)
(-0.668723 -0.0110111 0)
(-0.638934 -0.0148209 0)
(-0.603364 -0.0175675 0)
(-0.564477 -0.0192938 0)
(-0.524584 -0.0201865 0)
(-0.485622 -0.0205475 0)
(-0.448965 -0.0206845 0)
(-0.415195 -0.0207513 0)
(-0.383925 -0.0208171 0)
(-0.353922 -0.0210864 0)
(-0.323483 -0.0218641 0)
(-0.290759 -0.0233816 0)
(-0.253961 -0.025712 0)
(-0.211591 -0.0287905 0)
(-0.162177 -0.0323849 0)
(-0.106245 -0.0365314 0)
(-0.0388847 -0.0398546 0)
(0.0312316 -0.0464472 0)
(0.105187 -0.0473346 0)
(0.190273 -0.0496587 0)
(0.276871 -0.0512261 0)
(0.364797 -0.0516413 0)
(0.451929 -0.0508044 0)
(0.536078 -0.0486662 0)
(0.614968 -0.0452293 0)
(0.68641 -0.0405509 0)
(0.748371 -0.0347477 0)
(0.799122 -0.0279907 0)
(0.837311 -0.0205006 0)
(0.862084 -0.012536 0)
(0.873036 -0.00433359 0)
(0.870265 0.00375403 0)
(0.854616 0.0116039 0)
(0.826815 0.0190982 0)
(0.787978 0.0261235 0)
(0.73914 0.0326992 0)
(0.681209 0.0389083 0)
(0.614768 0.0448791 0)
(0.540034 0.0507393 0)
(0.456968 0.0565852 0)
(0.365205 0.0624255 0)
(0.264871 0.0681766 0)
(0.154994 0.0736709 0)
(0.0387513 0.0779231 0)
(-0.0847576 0.0823554 0)
(-0.214717 0.08461 0)
(-0.345332 0.0851507 0)
(-0.474851 0.0834253 0)
(-0.598656 0.079294 0)
(-0.713035 0.0727241 0)
(-0.814067 0.0638834 0)
(-0.898629 0.0530968 0)
(-0.96423 0.0408474 0)
(-1.00961 0.0277407 0)
(-1.03429 0.0144122 0)
(-1.03918 0.00117265 0)
(-1.02464 -0.0117374 0)
(-0.992511 -0.0236831 0)
(-0.944601 -0.0347286 0)
(-0.882488 -0.0448659 0)
(-0.807571 -0.0542012 0)
(-0.720887 -0.0628045 0)
(-0.62328 -0.0707551 0)
(-0.516037 -0.0779498 0)
(-0.397587 -0.0841808 0)
(-0.27014 -0.089996 0)
(-0.143631 -0.0939825 0)
(-0.0155778 -0.0961478 0)
(0.116665 -0.0947405 0)
(0.246431 -0.0918422 0)
(0.368001 -0.0863877 0)
(0.478499 -0.0786542 0)
(0.575494 -0.0690338 0)
(0.656459 -0.0579237 0)
(0.720159 -0.0458832 0)
(0.766119 -0.0334344 0)
(0.794544 -0.0210115 0)
(0.806097 -0.00913491 0)
(0.80283 0.0016012 0)
(0.786145 0.01205 0)
(0.756914 0.0216465 0)
(0.716879 0.0303199 0)
(0.667292 0.03815 0)
(0.609126 0.0452276 0)
(0.54156 0.0518145 0)
(0.46894 0.0580677 0)
(0.446622 0.0284508 0)
(0.426363 0.0516179 0)
(0.357636 0.0663434 0)
(0.280884 0.0756678 0)
(0.198737 0.0811278 0)
(0.11423 0.0836083 0)
(0.0307559 0.0835093 0)
(-0.0504754 0.0806851 0)
(-0.128968 0.0782637 0)
(-0.203353 0.0749343 0)
(-0.273872 0.0715812 0)
(-0.341287 0.0685217 0)
(-0.406484 0.0658143 0)
(-0.470252 0.0633327 0)
(-0.533035 0.0608187 0)
(-0.594759 0.0579332 0)
(-0.654759 0.0543065 0)
(-0.711793 0.0495858 0)
(-0.764143 0.0434803 0)
(-0.809764 0.0357951 0)
(-0.846449 0.0264499 0)
(-0.872 0.0154778 0)
(-0.884299 0.00300047 0)
(-0.88174 -0.0104002 0)
(-0.862993 -0.0246917 0)
(-0.82697 -0.0395272 0)
(-0.773277 -0.0544019 0)
(-0.702119 -0.068759 0)
(-0.614378 -0.082005 0)
(-0.511671 -0.0935274 0)
(-0.396342 -0.102735 0)
(-0.271402 -0.10915 0)
(-0.139898 -0.112625 0)
(-0.0100939 -0.115613 0)
(0.11728 -0.108789 0)
(0.240701 -0.10206 0)
(0.351889 -0.0924414 0)
(0.449386 -0.0809076 0)
(0.531218 -0.0682334 0)
(0.596728 -0.0553318 0)
(0.64643 -0.0430634 0)
(0.681908 -0.0321343 0)
(0.70555 -0.0230097 0)
(0.720186 -0.0158658 0)
(0.728669 -0.010585 0)
(0.733489 -0.00677865 0)
(0.736386 -0.00386147 0)
(0.738085 -0.0011501 0)
(0.738259 0.00200802 0)
(0.735707 0.00614342 0)
(0.72858 0.0116044 0)
(0.714772 0.0184878 0)
(0.692331 0.0266393 0)
(0.659777 0.0356652 0)
(0.616353 0.0449985 0)
(0.562153 0.0539932 0)
(0.498113 0.0620296 0)
(0.425861 0.0686078 0)
(0.34748 0.0734273 0)
(0.265189 0.076454 0)
(0.180999 0.0780525 0)
(0.0963363 0.0796202 0)
(0.0188087 0.0802909 0)
(-0.058338 0.0754181 0)
(-0.137712 0.0738752 0)
(-0.211338 0.0716684 0)
(-0.282911 0.0694808 0)
(-0.351969 0.0669713 0)
(-0.418398 0.0638739 0)
(-0.481469 0.0598356 0)
(-0.539983 0.0545281 0)
(-0.592341 0.0477209 0)
(-0.636739 0.0393512 0)
(-0.67141 0.0295689 0)
(-0.694916 0.0187483 0)
(-0.706357 0.00748121 0)
(-0.705813 -0.00345181 0)
(-0.693728 -0.0138969 0)
(-0.671271 -0.022809 0)
(-0.640621 -0.0297728 0)
(-0.604192 -0.0345659 0)
(-0.564547 -0.0372407 0)
(-0.524084 -0.0381254 0)
(-0.484794 -0.0377589 0)
(-0.448032 -0.0367616 0)
(-0.41433 -0.0356779 0)
(-0.383283 -0.0349486 0)
(-0.35367 -0.0350491 0)
(-0.323756 -0.0364435 0)
(-0.291607 -0.0394343 0)
(-0.255336 -0.0440743 0)
(-0.213355 -0.0501826 0)
(-0.164193 -0.0573267 0)
(-0.10813 -0.0653147 0)
(-0.0411576 -0.0723596 0)
(0.0297769 -0.0828407 0)
(0.104991 -0.0866267 0)
(0.190187 -0.09128 0)
(0.277599 -0.0942302 0)
(0.366426 -0.0950425 0)
(0.45448 -0.0934946 0)
(0.53953 -0.0894845 0)
(0.619264 -0.0830096 0)
(0.691449 -0.0741758 0)
(0.754006 -0.0632085 0)
(0.80517 -0.0504457 0)
(0.843558 -0.03633 0)
(0.868296 -0.0213796 0)
(0.87901 -0.00611722 0)
(0.875808 0.00890697 0)
(0.859576 0.0232143 0)
(0.831139 0.0366833 0)
(0.791676 0.0491076 0)
(0.74229 0.0605702 0)
(0.683934 0.0712981 0)
(0.617207 0.0816146 0)
(0.542308 0.0918446 0)
(0.459131 0.102233 0)
(0.367226 0.112834 0)
(0.266632 0.12349 0)
(0.156081 0.13378 0)
(0.0391535 0.14226 0)
(-0.0853864 0.150336 0)
(-0.217003 0.15465 0)
(-0.349338 0.155483 0)
(-0.480739 0.151887 0)
(-0.606372 0.143583 0)
(-0.722369 0.130571 0)
(-0.824646 0.113271 0)
(-0.90997 0.0924234 0)
(-0.975783 0.0690623 0)
(-1.02084 0.0444062 0)
(-1.04479 0.0198132 0)
(-1.04859 -0.00469635 0)
(-1.03272 -0.0275248 0)
(-0.999212 -0.0484698 0)
(-0.950026 -0.0675523 0)
(-0.886782 -0.0849083 0)
(-0.810879 -0.100833 0)
(-0.723311 -0.115546 0)
(-0.624809 -0.129204 0)
(-0.516549 -0.141633 0)
(-0.397096 -0.152404 0)
(-0.268307 -0.161947 0)
(-0.140023 -0.168236 0)
(-0.00971418 -0.170868 0)
(0.124479 -0.167739 0)
(0.255895 -0.161048 0)
(0.379031 -0.14969 0)
(0.490624 -0.13414 0)
(0.588168 -0.115221 0)
(0.66907 -0.0938339 0)
(0.73213 -0.0711194 0)
(0.776918 -0.0481135 0)
(0.803797 -0.0257976 0)
(0.813579 -0.00501666 0)
(0.808712 0.0138234 0)
(0.790375 0.0310554 0)
(0.75955 0.0463986 0)
(0.71811 0.0599183 0)
(0.667253 0.0718311 0)
(0.608031 0.0823277 0)
(0.539567 0.0917159 0)
(0.46584 0.100095 0)
(0.460646 0.0405905 0)
(0.432884 0.0613981 0)
(0.361613 0.076477 0)
(0.282953 0.0864796 0)
(0.199361 0.0923302 0)
(0.113619 0.0947541 0)
(0.0292586 0.0938484 0)
(-0.0522199 0.0910649 0)
(-0.13073 0.0885924 0)
(-0.205166 0.085476 0)
(-0.275628 0.0823006 0)
(-0.342916 0.0794142 0)
(-0.407995 0.0769085 0)
(-0.471717 0.0746468 0)
(-0.534572 0.0723151 0)
(-0.596511 0.0694833 0)
(-0.656871 0.065674 0)
(-0.714391 0.0604293 0)
(-0.767322 0.0533684 0)
(-0.813574 0.0442302 0)
(-0.850893 0.0328962 0)
(-0.877047 0.0193845 0)
(-0.88975 0.00376318 0)
(-0.88748 -0.0129351 0)
(-0.868969 -0.0311342 0)
(-0.832945 -0.0501107 0)
(-0.77902 -0.0692093 0)
(-0.707387 -0.087717 0)
(-0.618921 -0.104867 0)
(-0.515247 -0.119864 0)
(-0.398743 -0.13194 0)
(-0.272515 -0.140465 0)
(-0.140039 -0.145129 0)
(-0.00816644 -0.147229 0)
(0.12112 -0.140088 0)
(0.245213 -0.131244 0)
(0.357336 -0.118747 0)
(0.455384 -0.103698 0)
(0.537387 -0.0871569 0)
(0.602681 -0.0703286 0)
(0.651835 -0.0543538 0)
(0.686521 -0.0401744 0)
(0.709246 -0.0284194 0)
(0.72297 -0.0193431 0)
(0.730677 -0.0127821 0)
(0.734947 -0.00820202 0)
(0.737576 -0.00480858 0)
(0.739299 -0.00166659 0)
(0.739746 0.00213269 0)
(0.737636 0.00727696 0)
(0.731035 0.0142134 0)
(0.717727 0.0230726 0)
(0.69565 0.0336117 0)
(0.663243 0.0452844 0)
(0.619706 0.0573295 0)
(0.565133 0.0688958 0)
(0.500498 0.0791785 0)
(0.427503 0.0875432 0)
(0.348334 0.0936228 0)
(0.265331 0.0973884 0)
(0.180719 0.0991996 0)
(0.0958438 0.100063 0)
(0.0171636 0.100396 0)
(-0.0604296 0.0950878 0)
(-0.139275 0.092841 0)
(-0.212996 0.0900275 0)
(-0.284608 0.087244 0)
(-0.353822 0.0841035 0)
(-0.420525 0.0802431 0)
(-0.483994 0.0752023 0)
(-0.543002 0.0685545 0)
(-0.595892 0.0600047 0)
(-0.640788 0.049475 0)
(-0.675835 0.0371586 0)
(-0.699525 0.0235308 0)
(-0.710854 0.00932899 0)
(-0.71001 -0.00431784 0)
(-0.69742 -0.0174521 0)
(-0.674192 -0.0285982 0)
(-0.64267 -0.0373171 0)
(-0.605352 -0.0433076 0)
(-0.564911 -0.046628 0)
(-0.523833 -0.0476663 0)
(-0.484158 -0.0470645 0)
(-0.447242 -0.0455889 0)
(-0.41359 -0.0439762 0)
(-0.382777 -0.0429066 0)
(-0.353564 -0.0430016 0)
(-0.324171 -0.0447774 0)
(-0.292589 -0.0485425 0)
(-0.256842 -0.054324 0)
(-0.215252 -0.0618782 0)
(-0.166349 -0.0706841 0)
(-0.110168 -0.0804182 0)
(-0.0434989 -0.0891999 0)
(0.0280287 -0.100985 0)
(0.104412 -0.10662 0)
(0.189931 -0.112117 0)
(0.278079 -0.115514 0)
(0.367748 -0.11635 0)
(0.456681 -0.114329 0)
(0.542597 -0.109322 0)
(0.623144 -0.101331 0)
(0.696047 -0.0904883 0)
(0.759188 -0.0770741 0)
(0.810768 -0.0615038 0)
(0.849376 -0.0443169 0)
(0.874136 -0.0261487 0)
(0.884642 -0.00760008 0)
(0.881085 0.0105107 0)
(0.864405 0.0278276 0)
(0.835428 0.0440822 0)
(0.795427 0.0590463 0)
(0.745558 0.0728187 0)
(0.686817 0.0856769 0)
(0.619814 0.0980148 0)
(0.544735 0.110228 0)
(0.461425 0.122617 0)
(0.369366 0.135248 0)
(0.268512 0.147949 0)
(0.157422 0.160139 0)
(0.0399669 0.170322 0)
(-0.0854107 0.179872 0)
(-0.218329 0.185011 0)
(-0.352007 0.186015 0)
(-0.484894 0.181769 0)
(-0.611988 0.171946 0)
(-0.729312 0.156549 0)
(-0.83266 0.136079 0)
(-0.918708 0.111407 0)
(-0.984834 0.0837567 0)
(-1.02987 0.054596 0)
(-1.05336 0.0253477 0)
(-1.05639 -0.00316482 0)
(-1.03968 -0.0304581 0)
(-1.00522 -0.0552741 0)
(-0.9551 -0.0778723 0)
(-0.89099 -0.0983948 0)
(-0.814317 -0.117204 0)
(-0.726072 -0.134581 0)
(-0.626929 -0.150727 0)
(-0.517968 -0.165484 0)
(-0.397878 -0.178344 0)
(-0.268291 -0.1897 0)
(-0.138882 -0.197449 0)
(-0.00707531 -0.200719 0)
(0.128416 -0.197736 0)
(0.260931 -0.190314 0)
(0.385184 -0.177547 0)
(0.497643 -0.159882 0)
(0.59576 -0.138291 0)
(0.676913 -0.113797 0)
(0.739905 -0.0876762 0)
(0.784358 -0.061114 0)
(0.810605 -0.0350722 0)
(0.819827 -0.0106435 0)
(0.81422 0.0108209 0)
(0.794831 0.0314553 0)
(0.763219 0.0499528 0)
(0.721044 0.0664371 0)
(0.66955 0.0811558 0)
(0.609804 0.0943657 0)
(0.541009 0.106237 0)
(0.466995 0.117091 0)
(0.471962 0.0554529 0)
(0.439272 0.0753109 0)
(0.366175 0.0912758 0)
(0.285733 0.102583 0)
(0.200591 0.109469 0)
(0.113463 0.112429 0)
(0.0280008 0.111677 0)
(-0.05381 0.108485 0)
(-0.132388 0.105625 0)
(-0.206997 0.101832 0)
(-0.277375 0.0980787 0)
(-0.34448 0.0948215 0)
(-0.409387 0.0921685 0)
(-0.473038 0.0899249 0)
(-0.535986 0.0876555 0)
(-0.598218 0.0847724 0)
(-0.659071 0.080632 0)
(-0.71726 0.0746274 0)
(-0.770988 0.0662651 0)
(-0.818106 0.0552172 0)
(-0.856298 0.0413469 0)
(-0.883298 0.0247064 0)
(-0.896602 0.00548962 0)
(-0.894791 -0.0155285 0)
(-0.876673 -0.0383422 0)
(-0.840743 -0.0621644 0)
(-0.786624 -0.0862018 0)
(-0.714485 -0.109571 0)
(-0.625188 -0.131309 0)
(-0.520359 -0.150404 0)
(-0.402409 -0.16587 0)
(-0.274532 -0.176862 0)
(-0.140494 -0.182826 0)
(-0.00621237 -0.184248 0)
(0.125304 -0.176574 0)
(0.250641 -0.165253 0)
(0.364045 -0.149317 0)
(0.462897 -0.130048 0)
(0.545198 -0.108856 0)
(0.610271 -0.0873065 0)
(0.658747 -0.0668922 0)
(0.692413 -0.0488524 0)
(0.713933 -0.0340207 0)
(0.726441 -0.0227317 0)
(0.733094 -0.0147844 0)
(0.736617 -0.0094827 0)
(0.738897 -0.00574834 0)
(0.740689 -0.00230513 0)
(0.741567 0.00207863 0)
(0.740138 0.00832975 0)
(0.734333 0.0170542 0)
(0.721783 0.0283853 0)
(0.700277 0.0419953 0)
(0.66814 0.057141 0)
(0.624508 0.0727997 0)
(0.56947 0.0878353 0)
(0.504054 0.10118 0)
(0.430066 0.111998 0)
(0.349826 0.11981 0)
(0.265832 0.124567 0)
(0.180479 0.12667 0)
(0.0952181 0.126957 0)
(0.0153776 0.126667 0)
(-0.0627409 0.120876 0)
(-0.141095 0.117769 0)
(-0.21488 0.114235 0)
(-0.286523 0.11079 0)
(-0.355932 0.106984 0)
(-0.423017 0.102299 0)
(-0.487068 0.0960943 0)
(-0.546818 0.0877723 0)
(-0.600529 0.076917 0)
(-0.64621 0.0634075 0)
(-0.681881 0.04749 0)
(-0.705917 0.0297896 0)
(-0.717153 0.0112934 0)
(-0.715974 -0.00665777 0)
(-0.702741 -0.0236428 0)
(-0.678414 -0.0381209 0)
(-0.645643 -0.04936 0)
(-0.607038 -0.0569638 0)
(-0.565424 -0.0609905 0)
(-0.523419 -0.0619357 0)
(-0.483148 -0.0606357 0)
(-0.445999 -0.0581265 0)
(-0.412457 -0.0554821 0)
(-0.38206 -0.0536756 0)
(-0.353515 -0.0535773 0)
(-0.32496 -0.0558355 0)
(-0.294265 -0.0607969 0)
(-0.259334 -0.0684481 0)
(-0.218369 -0.0784355 0)
(-0.169874 -0.0900821 0)
(-0.113636 -0.102829 0)
(-0.0472296 -0.114707 0)
(0.0250414 -0.129057 0)
(0.102821 -0.137327 0)
(0.188962 -0.144659 0)
(0.278217 -0.149146 0)
(0.36913 -0.150288 0)
(0.459378 -0.147712 0)
(0.546614 -0.14125 0)
(0.628423 -0.130894 0)
(0.70247 -0.116812 0)
(0.766572 -0.0993655 0)
(0.81887 -0.0790981 0)
(0.857905 -0.0567226 0)
(0.882784 -0.0330774 0)
(0.893072 -0.00898434 0)
(0.889049 0.0145284 0)
(0.871724 0.0369044 0)
(0.841974 0.0578155 0)
(0.801203 0.0769659 0)
(0.750665 0.0945075 0)
(0.691427 0.110838 0)
(0.624125 0.126515 0)
(0.548924 0.142104 0)
(0.465583 0.158035 0)
(0.373471 0.174421 0)
(0.272387 0.191045 0)
(0.160578 0.20708 0)
(0.0423571 0.220761 0)
(-0.0843158 0.233336 0)
(-0.219337 0.240307 0)
(-0.355278 0.241749 0)
(-0.490709 0.236233 0)
(-0.620355 0.223295 0)
(-0.740034 0.202944 0)
(-0.845323 0.175861 0)
(-0.932729 0.143232 0)
(-0.999522 0.106733 0)
(-1.04457 0.0683427 0)
(-1.06731 0.0299749 0)
(-1.06927 -0.00763583 0)
(-1.05134 -0.042907 0)
(-1.01525 -0.0749914 0)
(-0.963685 -0.104076 0)
(-0.898296 -0.130439 0)
(-0.820534 -0.154605 0)
(-0.731344 -0.176991 0)
(-0.63127 -0.197885 0)
(-0.52123 -0.217082 0)
(-0.400022 -0.233877 0)
(-0.268919 -0.248514 0)
(-0.13733 -0.258482 0)
(-0.00277276 -0.262312 0)
(0.135249 -0.258324 0)
(0.270123 -0.247983 0)
(0.39665 -0.23054 0)
(0.510919 -0.206531 0)
(0.610223 -0.177296 0)
(0.691858 -0.1443 0)
(0.754618 -0.109299 0)
(0.798226 -0.0739183 0)
(0.823131 -0.0396429 0)
(0.830354 -0.00768975 0)
(0.823113 0.0206036 0)
(0.802273 0.047037 0)
(0.768971 0.070398 0)
(0.725317 0.0910158 0)
(0.672525 0.109243 0)
(0.611661 0.125465 0)
(0.541897 0.139864 0)
(0.466754 0.152717 0)
(0.482806 0.0737107 0)
(0.446027 0.0947578 0)
(0.371292 0.112162 0)
(0.28901 0.124729 0)
(0.202119 0.132312 0)
(0.113398 0.135292 0)
(0.0266687 0.134055 0)
(-0.055619 0.130066 0)
(-0.13433 0.125887 0)
(-0.209071 0.120925 0)
(-0.279278 0.116239 0)
(-0.34609 0.112381 0)
(-0.410727 0.109461 0)
(-0.474251 0.1072 0)
(-0.537301 0.105007 0)
(-0.599905 0.102096 0)
(-0.6614 0.0976227 0)
(-0.720466 0.090801 0)
(-0.775237 0.0810052 0)
(-0.823486 0.0678308 0)
(-0.86281 0.0511256 0)
(-0.890856 0.0309951 0)
(-0.905056 0.00790701 0)
(-0.903967 -0.0180866 0)
(-0.886332 -0.0460586 0)
(-0.850572 -0.0752625 0)
(-0.796275 -0.104761 0)
(-0.723573 -0.133484 0)
(-0.633301 -0.160249 0)
(-0.52708 -0.183806 0)
(-0.407356 -0.202918 0)
(-0.2774 -0.216487 0)
(-0.141192 -0.223694 0)
(-0.00411401 -0.224464 0)
(0.130027 -0.215879 0)
(0.257193 -0.201701 0)
(0.372242 -0.181823 0)
(0.472152 -0.157781 0)
(0.554855 -0.131382 0)
(0.619662 -0.104604 0)
(0.667279 -0.0793354 0)
(0.699642 -0.0571455 0)
(0.719614 -0.0390867 0)
(0.730558 -0.0255746 0)
(0.735855 -0.0163427 0)
(0.738423 -0.0104882 0)
(0.740273 -0.00661265 0)
(0.742188 -0.00305815 0)
(0.743662 0.00176601 0)
(0.743156 0.00901481 0)
(0.738427 0.0194881 0)
(0.726897 0.0333345 0)
(0.706166 0.0501113 0)
(0.674409 0.0688527 0)
(0.630683 0.0882426 0)
(0.575071 0.106831 0)
(0.508674 0.123265 0)
(0.43343 0.136497 0)
(0.351833 0.14593 0)
(0.266564 0.1515 0)
(0.180186 0.153663 0)
(0.0943566 0.153265 0)
(0.0133971 0.151986 0)
(-0.0652538 0.145692 0)
(-0.143164 0.141623 0)
(-0.216957 0.13734 0)
(-0.288609 0.133244 0)
(-0.358233 0.128819 0)
(-0.425784 0.123383 0)
(-0.490566 0.116106 0)
(-0.551263 0.106212 0)
(-0.606029 0.0931607 0)
(-0.652729 0.0767855 0)
(-0.689224 0.0573867 0)
(-0.713739 0.0357355 0)
(-0.724974 0.0130598 0)
(-0.723338 -0.00934381 0)
(-0.70924 -0.0297109 0)
(-0.683632 -0.0473165 0)
(-0.649325 -0.0608913 0)
(-0.609123 -0.0699368 0)
(-0.566046 -0.0745127 0)
(-0.522874 -0.0752266 0)
(-0.481848 -0.0731169 0)
(-0.444405 -0.0694871 0)
(-0.41102 -0.0657172 0)
(-0.381179 -0.0631015 0)
(-0.353506 -0.0627183 0)
(-0.326012 -0.0653516 0)
(-0.296425 -0.0713702 0)
(-0.2625 -0.0807056 0)
(-0.222309 -0.0928859 0)
(-0.174306 -0.107082 0)
(-0.118057 -0.122492 0)
(-0.0517925 -0.137153 0)
(0.0212431 -0.153502 0)
(0.100465 -0.164207 0)
(0.187516 -0.173075 0)
(0.278088 -0.178437 0)
(0.370468 -0.179758 0)
(0.462269 -0.176616 0)
(0.551068 -0.168813 0)
(0.634379 -0.156346 0)
(0.709793 -0.139417 0)
(0.775049 -0.118463 0)
(0.82822 -0.0941438 0)
(0.867786 -0.0673248 0)
(0.89283 -0.0390257 0)
(0.902886 -0.0102386 0)
(0.898338 0.0177258 0)
(0.880271 0.0442814 0)
(0.849632 0.0689695 0)
(0.807978 0.0914549 0)
(0.756678 0.111939 0)
(0.696888 0.13093 0)
(0.629275 0.149135 0)
(0.553985 0.167272 0)
(0.470674 0.185895 0)
(0.378577 0.205169 0)
(0.277296 0.224852 0)
(0.164805 0.24387 0)
(0.0457526 0.260457 0)
(-0.0824006 0.275351 0)
(-0.21974 0.283838 0)
(-0.358249 0.28567 0)
(-0.496573 0.279197 0)
(-0.629129 0.263847 0)
(-0.751496 0.239657 0)
(-0.859009 0.207471 0)
(-0.94798 0.168738 0)
(-1.01556 0.125503 0)
(-1.0607 0.080166 0)
(-1.08286 0.0348299 0)
(-1.08351 -0.00940498 0)
(-1.06406 -0.0503863 0)
(-1.0264 -0.0876718 0)
(-0.973328 -0.121318 0)
(-0.906622 -0.151712 0)
(-0.827777 -0.179533 0)
(-0.737691 -0.205347 0)
(-0.63677 -0.229527 0)
(-0.525733 -0.251889 0)
(-0.403456 -0.271554 0)
(-0.270903 -0.28866 0)
(-0.137135 -0.300515 0)
(0.00015876 -0.305016 0)
(0.140824 -0.300849 0)
(0.278191 -0.288907 0)
(0.407118 -0.268712 0)
(0.523345 -0.240832 0)
(0.624007 -0.206868 0)
(0.706331 -0.168574 0)
(0.769117 -0.127997 0)
(0.812125 -0.0870224 0)
(0.835898 -0.0473474 0)
(0.842202 -0.0106002 0)
(0.833518 0.0219492 0)
(0.810771 0.0525567 0)
(0.77613 0.0795905 0)
(0.731247 0.103527 0)
(0.677381 0.124811 0)
(0.61558 0.143902 0)
(0.545038 0.160922 0)
(0.469094 0.176237 0)
(0.494168 0.0935418 0)
(0.453578 0.117207 0)
(0.377075 0.136688 0)
(0.292734 0.150679 0)
(0.203816 0.15886 0)
(0.113248 0.161609 0)
(0.0250902 0.159527 0)
(-0.0578551 0.154437 0)
(-0.13678 0.148414 0)
(-0.211544 0.141928 0)
(-0.281445 0.136061 0)
(-0.347814 0.131453 0)
(-0.41205 0.128211 0)
(-0.475369 0.125948 0)
(-0.538518 0.123888 0)
(-0.601576 0.121017 0)
(-0.663878 0.116253 0)
(-0.724048 0.108607 0)
(-0.780137 0.0973022 0)
(-0.829811 0.0818481 0)
(-0.870554 0.0620733 0)
(-0.899876 0.0381276 0)
(-0.915273 0.0106303 0)
(-0.915168 -0.0205578 0)
(-0.898116 -0.054089 0)
(-0.862605 -0.0891147 0)
(-0.808141 -0.124527 0)
(-0.734807 -0.159051 0)
(-0.643398 -0.191267 0)
(-0.535522 -0.219659 0)
(-0.413652 -0.242714 0)
(-0.281139 -0.25905 0)
(-0.142138 -0.267573 0)
(-0.00180426 -0.267765 0)
(0.135431 -0.257959 0)
(0.265036 -0.240613 0)
(0.382136 -0.216345 0)
(0.483372 -0.187007 0)
(0.566578 -0.154848 0)
(0.631052 -0.122318 0)
(0.677592 -0.0917512 0)
(0.708317 -0.065086 0)
(0.726343 -0.0436173 0)
(0.735321 -0.0278453 0)
(0.738918 -0.0174201 0)
(0.740296 -0.0112019 0)
(0.741629 -0.00741881 0)
(0.743736 -0.00397183 0)
(0.745992 0.00116042 0)
(0.746692 0.00929371 0)
(0.743371 0.021561 0)
(0.733169 0.0380896 0)
(0.713452 0.0582973 0)
(0.682206 0.0809711 0)
(0.638386 0.104457 0)
(0.582075 0.126943 0)
(0.514464 0.14675 0)
(0.437661 0.162583 0)
(0.354374 0.173716 0)
(0.267509 0.180072 0)
(0.179814 0.182195 0)
(0.0931973 0.181056 0)
(0.0111455 0.178538 0)
(-0.0680115 0.171643 0)
(-0.145517 0.166535 0)
(-0.219243 0.161479 0)
(-0.290867 0.156769 0)
(-0.360718 0.151801 0)
(-0.428827 0.145703 0)
(-0.494514 0.137418 0)
(-0.556401 0.125958 0)
(-0.612507 0.110626 0)
(-0.660516 0.0911962 0)
(-0.698083 0.0680234 0)
(-0.723249 0.0420441 0)
(-0.734604 0.0147683 0)
(-0.732353 -0.0123437 0)
(-0.717118 -0.0366839 0)
(-0.69002 -0.0577625 0)
(-0.653816 -0.0738813 0)