/*--------------------------------*- C++ -*----------------------------------*\
| =========                 |                                                 |
| \\      /  F ield         | OpenFOAM: The Open Source CFD Toolbox           |
|  \\    /   O peration     | Version:  v1912                                 |
|   \\  /    A nd           | Website:  www.openfoam.com                      |
|    \\/     M anipulation  |                                                 |
\*---------------------------------------------------------------------------*/
FoamFile
{
    version     2.0;
    format      ascii;
    class       volScalarField;
    location    "50";
    object      nut;
}
// * * * * * * * * * * * * * * * * * * * * * * * * * * * * * * * * * * * * * //

dimensions      [0 2 -1 0 0 0 0];


internalField   nonuniform List<scalar> 
14268
(
7.61491e-05
7.61056e-05
7.60538e-05
7.59921e-05
7.5927e-05
7.58589e-05
7.57845e-05
7.57038e-05
7.56227e-05
7.55436e-05
7.54641e-05
7.5382e-05
7.52945e-05
7.51991e-05
7.50941e-05
7.49797e-05
7.48604e-05
7.47423e-05
7.46244e-05
7.45015e-05
7.43709e-05
7.42334e-05
7.40918e-05
7.39556e-05
7.38122e-05
7.36606e-05
7.3533e-05
7.34443e-05
7.33969e-05
7.33951e-05
7.3439e-05
7.35194e-05
7.36427e-05
7.37983e-05
7.39634e-05
7.41239e-05
7.42574e-05
7.43588e-05
7.44354e-05
7.44924e-05
7.45355e-05
7.45692e-05
7.45968e-05
7.46213e-05
7.46421e-05
7.46736e-05
7.47283e-05
7.48014e-05
7.48894e-05
7.49889e-05
7.50979e-05
7.52146e-05
7.53379e-05
7.54665e-05
7.55993e-05
7.57356e-05
7.58743e-05
7.60144e-05
7.61555e-05
7.62971e-05
7.64387e-05
7.65799e-05
7.67204e-05
7.68593e-05
7.6996e-05
7.71297e-05
7.72607e-05
7.73903e-05
7.75194e-05
7.76492e-05
7.77791e-05
7.79098e-05
7.80404e-05
7.81696e-05
7.82971e-05
7.84232e-05
7.855e-05
7.86808e-05
7.88131e-05
7.89854e-05
7.91417e-05
7.92513e-05
7.9383e-05
7.99301e-05
8.09741e-05
8.14184e-05
3.26908e-06
3.22431e-06
3.18354e-06
3.14754e-06
3.11615e-06
3.08882e-06
3.06597e-06
3.04873e-06
3.03695e-06
3.02952e-06
3.0244e-06
3.01942e-06
3.01239e-06
3.00127e-06
2.98498e-06
2.96322e-06
2.93572e-06
2.90107e-06
2.85638e-06
2.79808e-06
2.72433e-06
2.63507e-06
2.53107e-06
2.41367e-06
2.28574e-06
2.14867e-06
2.00208e-06
1.84689e-06
1.68859e-06
1.53204e-06
1.38292e-06
1.24605e-06
1.12425e-06
1.01863e-06
9.28984e-07
8.54278e-07
7.93104e-07
7.44077e-07
7.05731e-07
6.7661e-07
6.55385e-07
6.40878e-07
6.3199e-07
6.27745e-07
6.27425e-07
6.3001e-07
6.33e-07
6.36405e-07
6.40193e-07
6.44297e-07
6.48692e-07
6.5335e-07
6.58253e-07
6.63382e-07
6.68725e-07
6.74271e-07
6.80003e-07
6.85896e-07
6.91944e-07
6.98119e-07
7.04426e-07
7.10844e-07
7.1736e-07
7.2392e-07
7.30489e-07
7.37097e-07
7.43806e-07
7.50738e-07
7.5785e-07
7.64981e-07
7.72207e-07
7.79578e-07
7.87141e-07
7.94901e-07
8.02803e-07
8.10893e-07
8.19127e-07
8.27626e-07
8.36722e-07
8.46363e-07
8.57558e-07
8.68183e-07
8.80264e-07
9.07699e-07
9.56224e-07
9.84009e-07
8.56827e-07
8.47006e-07
8.37399e-07
8.29058e-07
8.21916e-07
8.15838e-07
8.10743e-07
8.06793e-07
8.03975e-07
8.02062e-07
8.00607e-07
7.99152e-07
7.9721e-07
7.94383e-07
7.90505e-07
7.85523e-07
7.79285e-07
7.71351e-07
7.61074e-07
7.4778e-07
7.31105e-07
7.11106e-07
6.88346e-07
6.63376e-07
6.36131e-07
6.06037e-07
5.73793e-07
5.41234e-07
5.09482e-07
4.79475e-07
4.5258e-07
4.29666e-07
4.11109e-07
3.96724e-07
3.85912e-07
3.78015e-07
3.72496e-07
3.68751e-07
3.66237e-07
3.64602e-07
3.63581e-07
3.62967e-07
3.6264e-07
3.6252e-07
3.62539e-07
3.62658e-07
3.62801e-07
3.62967e-07
3.63158e-07
3.63373e-07
3.6361e-07
3.63874e-07
3.64163e-07
3.64478e-07
3.64822e-07
3.65188e-07
3.65575e-07
3.65988e-07
3.66425e-07
3.66882e-07
3.67367e-07
3.67875e-07
3.68407e-07
3.68968e-07
3.69568e-07
3.70186e-07
3.70792e-07
3.71399e-07
3.72003e-07
3.72669e-07
3.73417e-07
3.74161e-07
3.74933e-07
3.75727e-07
3.7653e-07
3.77358e-07
3.78249e-07
3.7918e-07
3.80148e-07
3.81286e-07
3.82553e-07
3.83765e-07
3.8534e-07
3.88418e-07
3.93368e-07
3.96548e-07
4.66544e-07
4.63028e-07
4.59594e-07
4.56661e-07
4.54032e-07
4.51797e-07
4.49961e-07
4.48547e-07
4.47547e-07
4.46874e-07
4.46363e-07
4.45842e-07
4.45132e-07
4.44088e-07
4.42669e-07
4.4089e-07
4.3868e-07
4.35863e-07
4.32247e-07
4.27604e-07
4.21898e-07
4.15415e-07
4.08023e-07
3.99478e-07
3.90179e-07
3.81169e-07
3.72669e-07
3.64132e-07
3.559e-07
3.49026e-07
3.43724e-07
3.40094e-07
3.381e-07
3.37291e-07
3.37386e-07
3.38196e-07
3.39237e-07
3.40286e-07
3.41291e-07
3.42157e-07
3.42824e-07
3.43315e-07
3.43612e-07
3.43768e-07
3.43743e-07
3.43625e-07
3.43481e-07
3.43312e-07
3.43128e-07
3.42931e-07
3.42729e-07
3.42523e-07
3.42315e-07
3.42109e-07
3.41903e-07
3.417e-07
3.41499e-07
3.41302e-07
3.41112e-07
3.40929e-07
3.40756e-07
3.4059e-07
3.40431e-07
3.40283e-07
3.40148e-07
3.4003e-07
3.39926e-07
3.39834e-07
3.3975e-07
3.39673e-07
3.39601e-07
3.39534e-07
3.39474e-07
3.39424e-07
3.39388e-07
3.39364e-07
3.39348e-07
3.39343e-07
3.39364e-07
3.39413e-07
3.39513e-07
3.39573e-07
3.3968e-07
3.39773e-07
3.40465e-07
3.40959e-07
3.68135e-07
3.66718e-07
3.65316e-07
3.64134e-07
3.63069e-07
3.62201e-07
3.61456e-07
3.60831e-07
3.60319e-07
3.59933e-07
3.59618e-07
3.59321e-07
3.58972e-07
3.58513e-07
3.57922e-07
3.57189e-07
3.56294e-07
3.55238e-07
3.53912e-07
3.52244e-07
3.50251e-07
3.47835e-07
3.44931e-07
3.41913e-07
3.39281e-07
3.36501e-07
3.33576e-07
3.30936e-07
3.28858e-07
3.27126e-07
3.26304e-07
3.26988e-07
3.28215e-07
3.30005e-07
3.3206e-07
3.34059e-07
3.35942e-07
3.37655e-07
3.39091e-07
3.40224e-07
3.4109e-07
3.41691e-07
3.42053e-07
3.42241e-07
3.42193e-07
3.42048e-07
3.41862e-07
3.41651e-07
3.41416e-07
3.41167e-07
3.40907e-07
3.4064e-07
3.40367e-07
3.40091e-07
3.39813e-07
3.39535e-07
3.39257e-07
3.38982e-07
3.3871e-07
3.38441e-07
3.38182e-07
3.37936e-07
3.37706e-07
3.37486e-07
3.37267e-07
3.37044e-07
3.36822e-07
3.36611e-07
3.36414e-07
3.36231e-07
3.36058e-07
3.3589e-07
3.35718e-07
3.35545e-07
3.35381e-07
3.35225e-07
3.35071e-07
3.34923e-07
3.34807e-07
3.34724e-07
3.34633e-07
3.34561e-07
3.34533e-07
3.34476e-07
3.34619e-07
3.3468e-07
3.39689e-07
3.38968e-07
3.38237e-07
3.37684e-07
3.37186e-07
3.36765e-07
3.36358e-07
3.36026e-07
3.35782e-07
3.35604e-07
3.35469e-07
3.35315e-07
3.351e-07
3.34811e-07
3.34477e-07
3.34139e-07
3.33773e-07
3.33274e-07
3.32586e-07
3.31689e-07
3.30609e-07
3.29364e-07
3.28057e-07
3.26894e-07
3.25879e-07
3.24629e-07
3.23405e-07
3.22567e-07
3.22323e-07
3.22418e-07
3.23382e-07
3.24874e-07
3.26783e-07
3.29044e-07
3.31357e-07
3.33648e-07
3.35741e-07
3.37536e-07
3.39024e-07
3.40209e-07
3.41091e-07
3.41698e-07
3.4206e-07
3.42221e-07
3.42155e-07
3.41989e-07
3.41796e-07
3.41569e-07
3.41325e-07
3.41063e-07
3.40791e-07
3.40513e-07
3.40228e-07
3.39939e-07
3.39646e-07
3.39356e-07
3.3907e-07
3.38789e-07
3.38512e-07
3.38238e-07
3.37968e-07
3.37705e-07
3.37453e-07
3.37211e-07
3.3698e-07
3.36758e-07
3.36544e-07
3.36335e-07
3.36131e-07
3.35922e-07
3.35713e-07
3.35512e-07
3.35318e-07
3.35131e-07
3.34952e-07
3.34781e-07
3.34616e-07
3.34456e-07
3.34327e-07
3.34227e-07
3.34132e-07
3.3404e-07
3.33956e-07
3.33849e-07
3.33876e-07
3.33875e-07
3.31359e-07
3.30889e-07
3.30404e-07
3.3008e-07
3.29789e-07
3.29505e-07
3.29213e-07
3.28969e-07
3.28747e-07
3.2856e-07
3.28411e-07
3.28274e-07
3.28113e-07
3.279e-07
3.27647e-07
3.27405e-07
3.27153e-07
3.26843e-07
3.26413e-07
3.25864e-07
3.25252e-07
3.24639e-07
3.24053e-07
3.23496e-07
3.22985e-07
3.22532e-07
3.2219e-07
3.21809e-07
3.21865e-07
3.22264e-07
3.23242e-07
3.24786e-07
3.2682e-07
3.29056e-07
3.31457e-07
3.33746e-07
3.35809e-07
3.37607e-07
3.39083e-07
3.40244e-07
3.41095e-07
3.41695e-07
3.42051e-07
3.42206e-07
3.42109e-07
3.41946e-07
3.41737e-07
3.41504e-07
3.41246e-07
3.40974e-07
3.40693e-07
3.40407e-07
3.40117e-07
3.39824e-07
3.39533e-07
3.39246e-07
3.38966e-07
3.38688e-07
3.38408e-07
3.38125e-07
3.37841e-07
3.37567e-07
3.37307e-07
3.37056e-07
3.36814e-07
3.36589e-07
3.36374e-07
3.36165e-07
3.35954e-07
3.35753e-07
3.35557e-07
3.3535e-07
3.35142e-07
3.34942e-07
3.34754e-07
3.34575e-07
3.34399e-07
3.34231e-07
3.34099e-07
3.34003e-07
3.33899e-07
3.33812e-07
3.33786e-07
3.33753e-07
3.3385e-07
3.33621e-07
3.28794e-07
3.28417e-07
3.28021e-07
3.27747e-07
3.27489e-07
3.27268e-07
3.27056e-07
3.2686e-07
3.26667e-07
3.26484e-07
3.26323e-07
3.26167e-07
3.25999e-07
3.25807e-07
3.25594e-07
3.25364e-07
3.25113e-07
3.24896e-07
3.24658e-07
3.2434e-07
3.23942e-07
3.23513e-07
3.23103e-07
3.22634e-07
3.22123e-07
3.21695e-07
3.2142e-07
3.21106e-07
3.21194e-07
3.21508e-07
3.22444e-07
3.24167e-07
3.26412e-07
3.28938e-07
3.31501e-07
3.33881e-07
3.36062e-07
3.37931e-07
3.39447e-07
3.40593e-07
3.41415e-07
3.41947e-07
3.42256e-07
3.4232e-07
3.4221e-07
3.42012e-07
3.4178e-07
3.41517e-07
3.41236e-07
3.40943e-07
3.4064e-07
3.40334e-07
3.40026e-07
3.39721e-07
3.3942e-07
3.39127e-07
3.38837e-07
3.38552e-07
3.38274e-07
3.38005e-07
3.37737e-07
3.37461e-07
3.37181e-07
3.36907e-07
3.36652e-07
3.36425e-07
3.36218e-07
3.36019e-07
3.35831e-07
3.35614e-07
3.35412e-07
3.3522e-07
3.3503e-07
3.34844e-07
3.34667e-07
3.34502e-07
3.34344e-07
3.34192e-07
3.34071e-07
3.33979e-07
3.33891e-07
3.33802e-07
3.3377e-07
3.33777e-07
3.33826e-07
3.33652e-07
3.28029e-07
3.27698e-07
3.27334e-07
3.2706e-07
3.26824e-07
3.26641e-07
3.26444e-07
3.26243e-07
3.26053e-07
3.2589e-07
3.25752e-07
3.25607e-07
3.25447e-07
3.25253e-07
3.25054e-07
3.24869e-07
3.24687e-07
3.24464e-07
3.24151e-07
3.23793e-07
3.23414e-07
3.23017e-07
3.22608e-07
3.2218e-07
3.21724e-07
3.21409e-07
3.21326e-07
3.21293e-07
3.21514e-07
3.2185e-07
3.22866e-07
3.24717e-07
3.26952e-07
3.29317e-07
3.31683e-07
3.34009e-07
3.36103e-07
3.3785e-07
3.39283e-07
3.40441e-07
3.413e-07
3.41881e-07
3.42245e-07
3.42319e-07
3.42202e-07
3.41982e-07
3.41736e-07
3.41476e-07
3.41201e-07
3.40913e-07
3.40618e-07
3.40313e-07
3.39998e-07
3.39671e-07
3.3933e-07
3.38994e-07
3.38675e-07
3.38376e-07
3.38089e-07
3.37805e-07
3.37508e-07
3.37215e-07
3.36945e-07
3.36702e-07
3.36475e-07
3.36245e-07
3.35968e-07
3.35705e-07
3.35462e-07
3.35244e-07
3.3505e-07
3.34867e-07
3.34688e-07
3.34508e-07
3.34332e-07
3.34164e-07
3.34e-07
3.33845e-07
3.33725e-07
3.33637e-07
3.33541e-07
3.33459e-07
3.33456e-07
3.33469e-07
3.33584e-07
3.33419e-07
3.27737e-07
3.2742e-07
3.2705e-07
3.26797e-07
3.26586e-07
3.26409e-07
3.26208e-07
3.25985e-07
3.25755e-07
3.25528e-07
3.2533e-07
3.25138e-07
3.24924e-07
3.24682e-07
3.24442e-07
3.24309e-07
3.24131e-07
3.24024e-07
3.23779e-07
3.23484e-07
3.23149e-07
3.22772e-07
3.22437e-07
3.22138e-07
3.2185e-07
3.21675e-07
3.21625e-07
3.2149e-07
3.21436e-07
3.21639e-07
3.22584e-07
3.24296e-07
3.26469e-07
3.28937e-07
3.31673e-07
3.34283e-07
3.36489e-07
3.3831e-07
3.39681e-07
3.40612e-07
3.41212e-07
3.41567e-07
3.41757e-07
3.41604e-07
3.41483e-07
3.41325e-07
3.41157e-07
3.40969e-07
3.40758e-07
3.40536e-07
3.40302e-07
3.40054e-07
3.39786e-07
3.39512e-07
3.39242e-07
3.38972e-07
3.38695e-07
3.38392e-07
3.38066e-07
3.37755e-07
3.37464e-07
3.37189e-07
3.36923e-07
3.36662e-07
3.3641e-07
3.36157e-07
3.35896e-07
3.35649e-07
3.35428e-07
3.35223e-07
3.3503e-07
3.34833e-07
3.34628e-07
3.34424e-07
3.34233e-07
3.3405e-07
3.33869e-07
3.33712e-07
3.33584e-07
3.33478e-07
3.33373e-07
3.33277e-07
3.33227e-07
3.33253e-07
3.33325e-07
3.33127e-07
3.27572e-07
3.2727e-07
3.26913e-07
3.2667e-07
3.2647e-07
3.263e-07
3.26111e-07
3.25906e-07
3.2567e-07
3.25416e-07
3.25192e-07
3.24977e-07
3.24768e-07
3.24541e-07
3.24305e-07
3.2406e-07
3.2393e-07
3.23626e-07
3.2325e-07
3.2301e-07
3.22813e-07
3.22607e-07
3.22386e-07
3.22157e-07
3.21921e-07
3.21632e-07
3.21332e-07
3.20954e-07
3.20706e-07
3.2074e-07
3.2155e-07
3.23123e-07
3.25151e-07
3.27435e-07
3.29488e-07
3.31082e-07
3.32406e-07
3.33456e-07
3.34261e-07
3.34934e-07
3.35508e-07
3.35991e-07
3.36368e-07
3.36531e-07
3.36649e-07
3.36744e-07
3.36855e-07
3.36997e-07
3.37131e-07
3.3724e-07
3.37302e-07
3.37338e-07
3.3735e-07
3.37334e-07
3.37291e-07
3.37215e-07
3.37098e-07
3.36975e-07
3.36861e-07
3.3673e-07
3.36573e-07
3.36368e-07
3.36152e-07
3.35946e-07
3.35759e-07
3.35601e-07
3.3548e-07
3.35368e-07
3.35217e-07
3.35026e-07
3.34812e-07
3.34611e-07
3.34423e-07
3.34254e-07
3.34095e-07
3.33928e-07
3.33784e-07
3.3362e-07
3.33491e-07
3.33377e-07
3.3325e-07
3.33124e-07
3.33055e-07
3.33031e-07
3.33104e-07
3.32858e-07
3.27064e-07
3.26398e-07
3.25862e-07
3.25734e-07
3.25716e-07
3.25841e-07
3.25706e-07
3.25389e-07
3.24646e-07
3.24145e-07
3.24108e-07
3.24129e-07
3.24029e-07
3.23877e-07
3.2372e-07
3.23548e-07
3.2342e-07
3.23324e-07
3.23112e-07
3.22728e-07
3.22329e-07
3.22083e-07
3.21851e-07
3.21646e-07
3.21353e-07
3.20872e-07
3.20268e-07
3.19723e-07
3.19399e-07
3.1925e-07
3.19301e-07
3.19692e-07
3.20085e-07
3.20095e-07
3.1936e-07
3.18159e-07
3.16565e-07
3.14789e-07
3.13139e-07
3.11885e-07
3.11062e-07
3.10616e-07
3.10519e-07
3.1088e-07
3.11687e-07
3.13377e-07
3.15529e-07
3.17857e-07
3.19707e-07
3.21738e-07
3.2392e-07
3.25918e-07
3.27632e-07
3.29067e-07
3.30227e-07
3.31207e-07
3.32021e-07
3.32657e-07
3.33204e-07
3.33667e-07
3.33994e-07
3.34187e-07
3.34298e-07
3.34377e-07
3.34418e-07
3.34381e-07
3.34307e-07
3.34238e-07
3.34173e-07
3.3411e-07
3.34037e-07
3.33956e-07
3.33863e-07
3.33748e-07
3.33623e-07
3.33504e-07
3.33373e-07
3.33273e-07
3.3318e-07
3.33105e-07
3.33022e-07
3.32936e-07
3.32865e-07
3.32914e-07
3.33007e-07
3.32833e-07
3.24702e-07
3.23178e-07
3.22731e-07
3.22921e-07
3.23975e-07
3.24837e-07
3.24746e-07
3.24306e-07
3.22886e-07
3.21547e-07
3.21452e-07
3.21625e-07
3.21796e-07
3.21744e-07
3.21598e-07
3.2154e-07
3.21437e-07
3.21135e-07
3.20725e-07
3.20599e-07
3.20402e-07
3.20202e-07
3.19914e-07
3.19485e-07
3.18879e-07
3.17917e-07
3.1663e-07
3.15116e-07
3.12806e-07
3.08462e-07
3.01228e-07
2.90351e-07
2.73372e-07
2.52995e-07
2.32998e-07
2.14418e-07
1.98332e-07
1.85874e-07
1.77452e-07
1.7279e-07
1.71184e-07
1.71821e-07
1.88332e-07
2.03147e-07
2.17312e-07
2.301e-07
2.41201e-07
2.50676e-07
2.59752e-07
2.67078e-07
2.73042e-07
2.78933e-07
2.8467e-07
2.89981e-07
2.9506e-07
3.00248e-07
3.0559e-07
3.09477e-07
3.1294e-07
3.16164e-07
3.19056e-07
3.21552e-07
3.23643e-07
3.25363e-07
3.26755e-07
3.27875e-07
3.28789e-07
3.29549e-07
3.30186e-07
3.30706e-07
3.31122e-07
3.31448e-07
3.31692e-07
3.3188e-07
3.32014e-07
3.32125e-07
3.32161e-07
3.32199e-07
3.32222e-07
3.32247e-07
3.3227e-07
3.32281e-07
3.323e-07
3.32437e-07
3.3261e-07
3.32574e-07
3.21218e-07
3.20119e-07
3.19399e-07
3.19417e-07
3.20713e-07
3.21755e-07
3.21485e-07
3.20597e-07
3.1881e-07
3.17093e-07
3.17031e-07
3.173e-07
3.17347e-07
3.17169e-07
3.16756e-07
3.16071e-07
3.15806e-07
3.15736e-07
3.15692e-07
3.15386e-07
3.1491e-07
3.14273e-07
3.13229e-07
3.12178e-07
3.1064e-07
3.08085e-07
3.04297e-07
2.9851e-07
2.8882e-07
2.72742e-07
2.4952e-07
2.23066e-07
1.98015e-07
1.75314e-07
1.56468e-07
1.45489e-07
1.4382e-07
1.46814e-07
1.50907e-07
1.54437e-07
1.56489e-07
1.57027e-07
1.53406e-07
1.48966e-07
1.43423e-07
1.37466e-07
1.3225e-07
1.30985e-07
1.39073e-07
1.62179e-07
1.74459e-07
1.83473e-07
1.93348e-07
2.02965e-07
2.1093e-07
2.15726e-07
2.19456e-07
2.25187e-07
2.34294e-07
2.4495e-07
2.56078e-07
2.6619e-07
2.75253e-07
2.83165e-07
2.89956e-07
2.95742e-07
3.00674e-07
3.04885e-07
3.08501e-07
3.11629e-07
3.14346e-07
3.16705e-07
3.18753e-07
3.20538e-07
3.22102e-07
3.23462e-07
3.24652e-07
3.25626e-07
3.26447e-07
3.27165e-07
3.27833e-07
3.28382e-07
3.28817e-07
3.2949e-07
3.30211e-07
3.30666e-07
3.1882e-07
3.17458e-07
3.16216e-07
3.15954e-07
3.17419e-07
3.18613e-07
3.18127e-07
3.16804e-07
3.14775e-07
3.12779e-07
3.12672e-07
3.13104e-07
3.1326e-07
3.13183e-07
3.12832e-07
3.12282e-07
3.1194e-07
3.11567e-07
3.10956e-07
3.10304e-07
3.09593e-07
3.08706e-07
3.07356e-07
3.05303e-07
3.02618e-07
2.98359e-07
2.9211e-07
2.8235e-07
2.66464e-07
2.42217e-07
2.14409e-07
1.86944e-07
1.60065e-07
1.37562e-07
1.26139e-07
1.28994e-07
1.42217e-07
1.61041e-07
1.82235e-07
2.00271e-07
2.13334e-07
2.19628e-07
2.18158e-07
2.09911e-07
1.98599e-07
1.85914e-07
1.71158e-07
1.54443e-07
1.41045e-07
1.34262e-07
1.30774e-07
1.27266e-07
1.24341e-07
1.21072e-07
1.30071e-07
1.27893e-07
1.2506e-07
1.22771e-07
1.23852e-07
1.28837e-07
1.41062e-07
1.5787e-07
1.75724e-07
1.93428e-07
2.09748e-07
2.23729e-07
2.36055e-07
2.46918e-07
2.56498e-07
2.65016e-07
2.72614e-07
2.79404e-07
2.85453e-07
2.90807e-07
2.95526e-07
2.99674e-07
3.03264e-07
3.06375e-07
3.09083e-07
3.11525e-07
3.13798e-07
3.15733e-07
3.17381e-07
3.19176e-07
3.21465e-07
3.23383e-07
3.16793e-07
3.15014e-07
3.1339e-07
3.13058e-07
3.14603e-07
3.15846e-07
3.15153e-07
3.13462e-07
3.11338e-07
3.09188e-07
3.08816e-07
3.09223e-07
3.09404e-07
3.09322e-07
3.08957e-07
3.08325e-07
3.07905e-07
3.07261e-07
3.06516e-07
3.05875e-07
3.04985e-07
3.03738e-07
3.01847e-07
2.99132e-07
2.95488e-07
2.90058e-07
2.81951e-07
2.693e-07
2.49182e-07
2.21079e-07
1.93723e-07
1.65172e-07
1.38448e-07
1.20677e-07
1.1841e-07
1.298e-07
1.48496e-07
1.6523e-07
1.7321e-07
1.71503e-07
1.65668e-07
1.57893e-07
1.523e-07
1.52041e-07
1.54031e-07
1.59519e-07
1.66103e-07
1.72713e-07
1.76269e-07
1.77554e-07
1.77796e-07
1.7296e-07
1.58606e-07
1.428e-07
1.28063e-07
1.09153e-07
9.02183e-08
7.64096e-08
7.62331e-08
7.74197e-08
8.06252e-08
8.77269e-08
9.96394e-08
1.13987e-07
1.31117e-07
1.4941e-07
1.67017e-07
1.83358e-07
1.98104e-07
2.11475e-07
2.23749e-07
2.34992e-07
2.45252e-07
2.54546e-07
2.62899e-07
2.70348e-07
2.76915e-07
2.82615e-07
2.87615e-07
2.92131e-07
2.96233e-07
2.99793e-07
3.02903e-07
3.06059e-07
3.09892e-07
3.13485e-07
3.13827e-07
3.11572e-07
3.09506e-07
3.0911e-07
3.1069e-07
3.11921e-07
3.10864e-07
3.08697e-07
3.06539e-07
3.04259e-07
3.03297e-07
3.03732e-07
3.04017e-07
3.03956e-07
3.03592e-07
3.0281e-07
3.02385e-07
3.01805e-07
3.01016e-07
3.00186e-07
2.98835e-07
2.97047e-07
2.94382e-07
2.90875e-07
2.86074e-07
2.79013e-07
2.6833e-07
2.52271e-07
2.27533e-07
1.99766e-07
1.71944e-07
1.4276e-07
1.19098e-07
1.08532e-07
1.14727e-07
1.28365e-07
1.36216e-07
1.30102e-07
1.16996e-07
8.16377e-08
6.78279e-09
4.03769e-09
5.88215e-09
9.39967e-09
1.50859e-08
2.85768e-08
4.90623e-08
6.541e-08
8.37914e-08
1.05825e-07
1.32205e-07
1.60829e-07
1.81646e-07
1.84131e-07
1.69744e-07
1.43604e-07
1.08773e-07
7.89886e-08
6.08228e-08
5.19042e-08
4.94151e-08
5.11859e-08
5.65237e-08
6.40975e-08
7.30686e-08
8.46489e-08
9.87042e-08
1.13745e-07
1.29638e-07
1.46082e-07
1.62291e-07
1.77624e-07
1.92173e-07
2.05581e-07
2.17974e-07
2.29234e-07
2.39342e-07
2.4831e-07
2.56335e-07
2.63535e-07
2.70106e-07
2.75911e-07
2.81123e-07
2.86369e-07
2.92166e-07
2.97892e-07
3.09715e-07
3.06701e-07
3.04277e-07
3.03897e-07
3.05543e-07
3.06709e-07
3.05126e-07
3.02483e-07
3.00226e-07
2.97311e-07
2.95723e-07
2.96434e-07
2.96931e-07
2.96979e-07
2.96669e-07
2.95791e-07
2.9545e-07
2.94976e-07
2.94072e-07
2.92777e-07
2.90766e-07
2.88263e-07
2.84726e-07
2.80115e-07
2.7387e-07
2.6477e-07
2.51206e-07
2.31363e-07
2.04134e-07
1.78951e-07
1.49974e-07
1.22187e-07
1.03602e-07
1.03301e-07
1.14713e-07
1.28345e-07
1.10054e-07
2.70959e-08
1.0658e-08
2.68351e-09
1.53905e-10
7.66135e-11
3.16844e-11
6.31956e-13
4.52089e-13
5.4973e-13
2.09468e-11
6.86049e-10
2.21782e-09
5.43278e-09
1.96852e-08
4.55009e-08
6.87868e-08
9.42375e-08
1.10372e-07
1.14994e-07
1.07532e-07
8.81028e-08
6.7334e-08
5.17954e-08
4.13294e-08
3.63403e-08
3.62151e-08
3.83429e-08
4.19362e-08
4.6793e-08
5.31876e-08
6.29343e-08
7.17927e-08
8.25221e-08
9.54476e-08
1.10394e-07
1.25882e-07
1.41961e-07
1.57828e-07
1.7292e-07
1.86806e-07
1.99195e-07
2.10449e-07
2.20907e-07
2.30688e-07
2.39622e-07
2.47831e-07
2.56099e-07
2.64769e-07
2.73534e-07
3.04139e-07
3.00157e-07
2.96788e-07
2.96187e-07
2.98384e-07
2.99477e-07
2.96908e-07
2.93276e-07
2.90121e-07
2.86671e-07
2.8552e-07
2.86693e-07
2.87447e-07
2.87653e-07
2.8741e-07
2.86468e-07
2.86161e-07
2.85797e-07
2.84852e-07
2.83218e-07
2.80379e-07
2.7675e-07
2.72123e-07
2.6623e-07
2.58448e-07
2.47121e-07
2.30083e-07
2.07062e-07
1.83525e-07
1.57929e-07
1.29164e-07
1.04674e-07
9.71495e-08
1.09266e-07
1.3304e-07
8.68346e-08
2.20174e-08
4.15952e-09
1.23854e-09
3.63977e-10
2.78526e-10
3.58211e-10
4.14245e-10
4.1986e-10
2.81519e-10
1.44449e-10
7.06892e-11
4.28593e-11
1.53017e-11
1.25579e-12
4.79147e-12
3.92467e-10
2.39775e-09
1.20583e-08
3.4e-08
4.15903e-08
4.11109e-08
3.943e-08
3.90688e-08
3.78491e-08
3.64261e-08
3.44428e-08
3.224e-08
3.14592e-08
3.10174e-08
3.1555e-08
3.41133e-08
3.74835e-08
4.1598e-08
4.66554e-08
5.26925e-08
6.27888e-08
7.31427e-08
8.42717e-08
9.59811e-08
1.09109e-07
1.22856e-07
1.36905e-07
1.50717e-07
1.64038e-07
1.76805e-07
1.88774e-07
2.00409e-07
2.12179e-07
2.24049e-07
2.36134e-07
2.96705e-07
2.91409e-07
2.86876e-07
2.85341e-07
2.86887e-07
2.87242e-07
2.83556e-07
2.7937e-07
2.76151e-07
2.73015e-07
2.72287e-07
2.74092e-07
2.75208e-07
2.75627e-07
2.75532e-07
2.74671e-07
2.7444e-07
2.74086e-07
2.72888e-07
2.70714e-07
2.66876e-07
2.61897e-07
2.56257e-07
2.49129e-07
2.3986e-07
2.26413e-07
2.05636e-07
1.84062e-07
1.63424e-07
1.37521e-07
1.10422e-07
9.51651e-08
1.06745e-07
1.41458e-07
7.81044e-08
1.47591e-08
4.60924e-09
1.60452e-09
1.24097e-09
1.68837e-09
2.38807e-09
3.05262e-09
3.5481e-09
3.93791e-09
3.71072e-09
3.00433e-09
2.31616e-09
1.71121e-09
1.05442e-09
3.01856e-10
1.32608e-10
1.04975e-10
6.0846e-11
4.90292e-11
1.82236e-09
2.36327e-09
2.74599e-09
4.08555e-09
7.02968e-09
1.1914e-08
1.45409e-08
1.53428e-08
1.86184e-08
2.25247e-08
2.62686e-08
2.79402e-08
2.84122e-08
2.9129e-08
2.97626e-08
3.12923e-08
3.45894e-08
3.91252e-08
4.49078e-08
5.13004e-08
5.75518e-08
6.4313e-08
7.4151e-08
8.25036e-08
9.17495e-08
1.01776e-07
1.1317e-07
1.25984e-07
1.39771e-07
1.54709e-07
1.69796e-07
1.84416e-07
2.86927e-07
2.79875e-07
2.73853e-07
2.71277e-07
2.71895e-07
2.71255e-07
2.66521e-07
2.61882e-07
2.58602e-07
2.55802e-07
2.55556e-07
2.58134e-07
2.59645e-07
2.60262e-07
2.60377e-07
2.59753e-07
2.5949e-07
2.5898e-07
2.57379e-07
2.5442e-07
2.49408e-07
2.42928e-07
2.36191e-07
2.27972e-07
2.17586e-07
2.02755e-07
1.83219e-07
1.64955e-07
1.43712e-07
1.18128e-07
9.65915e-08
9.98372e-08
1.32612e-07
1.341e-07
8.25283e-09
5.75717e-09
2.8088e-09
2.97275e-09
5.35742e-09
8.62315e-09
9.95941e-09
9.34061e-09
8.65701e-09
9.1021e-09
9.42405e-09
8.63662e-09
6.82292e-09
4.70479e-09
2.93915e-09
2.31671e-09
2.17547e-09
1.936e-09
1.59362e-09
1.227e-09
6.83447e-10
2.72071e-10
1.79426e-10
2.14305e-10
3.63648e-10
6.82074e-10
1.21711e-09
1.83605e-09
3.3189e-09
5.69582e-09
8.48343e-09
1.19524e-08
1.61778e-08
2.04232e-08
2.39831e-08
2.61116e-08
2.82695e-08
3.15937e-08
3.51231e-08
3.77622e-08
4.02558e-08
4.33884e-08
4.72053e-08
5.14657e-08
5.61349e-08
6.08432e-08
6.53221e-08
7.36713e-08
8.1717e-08
9.26266e-08
1.06129e-07
1.20414e-07
2.73617e-07
2.64247e-07
2.56318e-07
2.52516e-07
2.52218e-07
2.50515e-07
2.4471e-07
2.39473e-07
2.36115e-07
2.33683e-07
2.34072e-07
2.37429e-07
2.39228e-07
2.39943e-07
2.40268e-07
2.401e-07
2.39817e-07
2.38936e-07
2.36585e-07
2.32331e-07
2.25747e-07
2.17754e-07
2.09972e-07
2.01185e-07
1.90512e-07
1.762e-07
1.60822e-07
1.43636e-07
1.23101e-07
1.00559e-07
9.2828e-08
1.23257e-07
1.76053e-07
1.49085e-08
8.65565e-09
3.92268e-09
4.85739e-09
9.76405e-09
1.58658e-08
2.1244e-08
2.44612e-08
2.52867e-08
2.56792e-08
2.6935e-08
2.84001e-08
2.84048e-08
2.58921e-08
2.11755e-08
1.51298e-08
9.61862e-09
6.16265e-09
4.16544e-09
2.92136e-09
2.30655e-09
1.44522e-09
5.44711e-10
2.81742e-10
1.93569e-10
1.04978e-10
5.78012e-11
1.14397e-10
1.22005e-10
1.61254e-10
2.03757e-10
2.8062e-10
5.39257e-10
1.82818e-09
8.08521e-09
1.2647e-08
1.42299e-08
1.61188e-08
2.01554e-08
2.67779e-08
3.30833e-08
3.64326e-08
3.73276e-08
3.855e-08
3.9243e-08
3.93738e-08
4.06209e-08
4.23072e-08
4.44503e-08
4.7834e-08
5.3377e-08
6.05697e-08
6.49966e-08
2.56027e-07
2.43901e-07
2.3385e-07
2.28746e-07
2.27567e-07
2.24877e-07
2.18201e-07
2.12389e-07
2.08939e-07
2.06796e-07
2.078e-07
2.11549e-07
2.13162e-07
2.13682e-07
2.14151e-07
2.14532e-07
2.14381e-07
2.12931e-07
2.0924e-07
2.02988e-07
1.94327e-07
1.84895e-07
1.76374e-07
1.68023e-07
1.5836e-07
1.46842e-07
1.35611e-07
1.20458e-07
1.03339e-07
8.82667e-08
1.00513e-07
1.57043e-07
1.06449e-07
1.11003e-08
5.33141e-09
5.37815e-09
1.27543e-08
2.40859e-08
3.6456e-08
4.79211e-08
5.64885e-08
6.26304e-08
6.59785e-08
6.7257e-08
6.92094e-08
7.10227e-08
6.94574e-08
6.23078e-08
4.98864e-08
3.61835e-08
2.63095e-08
2.01145e-08
1.49994e-08
1.1493e-08
9.05931e-09
5.87411e-09
4.52057e-09
3.54035e-09
1.81519e-09
7.4484e-10
2.76541e-10
1.27799e-10
6.47582e-11
2.41642e-11
6.76189e-12
1.55267e-12
2.13056e-13
2.96012e-11
8.4636e-10
2.16045e-09
4.27141e-09
7.91009e-09
1.10626e-08
1.35575e-08
1.68144e-08
2.18087e-08
2.71419e-08
3.20827e-08
3.46857e-08
3.41938e-08
3.27977e-08
3.14826e-08
3.1463e-08
3.3891e-08
3.82147e-08
3.98809e-08
2.34368e-07
2.19276e-07
2.07388e-07
2.01161e-07
1.99245e-07
1.95841e-07
1.88705e-07
1.82521e-07
1.78968e-07
1.76898e-07
1.78127e-07
1.81302e-07
1.81783e-07
1.81489e-07
1.81819e-07
1.8256e-07
1.82577e-07
1.80496e-07
1.75004e-07
1.66191e-07
1.55187e-07
1.44403e-07
1.35977e-07
1.29183e-07
1.21981e-07
1.15029e-07
1.08702e-07
9.90469e-08
8.64302e-08
8.31868e-08
1.14286e-07
8.79447e-08
1.11861e-08
9.8329e-09
4.40055e-09
1.09793e-08
2.92255e-08
5.24429e-08
7.54944e-08
9.58219e-08
1.12422e-07
1.23548e-07
1.27891e-07
1.29233e-07
1.32709e-07
1.35849e-07
1.34315e-07
1.24071e-07
1.05144e-07
8.31693e-08
6.41744e-08
5.31518e-08
4.87523e-08
4.42001e-08
3.86926e-08
3.13974e-08
2.49234e-08
1.97264e-08
1.19448e-08
6.84174e-09
4.11707e-09
2.26398e-09
1.51682e-09
9.14634e-10
5.14832e-10
2.73596e-10
1.5822e-10
1.5456e-10
4.06837e-10
3.66711e-10
4.28034e-10
5.99401e-10
9.09351e-10
1.35386e-09
1.97907e-09
3.06496e-09
5.60219e-09
9.00028e-09
1.25006e-08
1.59848e-08
1.87206e-08
2.1056e-08
2.32022e-08
2.61812e-08
2.87164e-08
2.72065e-08
2.09022e-07
1.91107e-07
1.78027e-07
1.71087e-07
1.6866e-07
1.64914e-07
1.57837e-07
1.51583e-07
1.47926e-07
1.45653e-07
1.46344e-07
1.47623e-07
1.45846e-07
1.43978e-07
1.43624e-07
1.44274e-07
1.44352e-07
1.41723e-07
1.34475e-07
1.23286e-07
1.10503e-07
9.90637e-08
9.19972e-08
8.7384e-08
8.35128e-08
8.15468e-08
8.12993e-08
7.81367e-08
7.39063e-08
8.53476e-08
9.76307e-08
1.75885e-09
2.58782e-09
6.02135e-09
5.64272e-09
2.35639e-08
6.03614e-08
1.00248e-07
1.36075e-07
1.64124e-07
1.81259e-07
1.88674e-07
1.9013e-07
1.91113e-07
1.94382e-07
1.97041e-07
1.94501e-07
1.82547e-07
1.61387e-07
1.37527e-07
1.17462e-07
1.05011e-07
9.85849e-08
9.47147e-08
8.92169e-08
8.00426e-08
6.78393e-08
5.25961e-08
3.51104e-08
2.2207e-08
1.58985e-08
1.34834e-08
1.07108e-08
8.07778e-09
6.1574e-09
4.79719e-09
3.49019e-09
2.10564e-09
9.71868e-10
5.06037e-10
2.81353e-10
1.75271e-10
1.36822e-10
1.2491e-10
1.01975e-10
5.56682e-11
4.61572e-11
9.7463e-11
2.76743e-10
6.49875e-10
1.37004e-09
8.16606e-09
1.35267e-08
1.60849e-08
1.81059e-08
1.75141e-08
1.80946e-07
1.60899e-07
1.47423e-07
1.40376e-07
1.377e-07
1.33985e-07
1.27486e-07
1.21489e-07
1.1776e-07
1.15033e-07
1.14301e-07
1.12616e-07
1.08079e-07
1.04354e-07
1.02895e-07
1.02989e-07
1.0299e-07
1.00103e-07
9.19798e-08
7.99811e-08
6.72931e-08
5.73088e-08
5.28956e-08
5.03651e-08
4.9146e-08
5.06759e-08
5.55996e-08
5.78544e-08
6.63004e-08
7.70321e-08
5.91222e-08
1.57892e-10
1.47485e-09
3.81528e-09
9.71972e-09
4.82222e-08
1.10671e-07
1.65332e-07
2.02214e-07
2.22927e-07
2.33169e-07
2.3706e-07
2.37596e-07
2.39436e-07
2.42582e-07
2.44635e-07
2.41843e-07
2.30586e-07
2.10601e-07
1.87917e-07
1.691e-07
1.58197e-07
1.53046e-07
1.50117e-07
1.45085e-07
1.35478e-07
1.20262e-07
1.0056e-07
7.94528e-08
6.01678e-08
4.74858e-08
3.99726e-08
3.27946e-08
2.57377e-08
2.09172e-08
1.7025e-08
1.34975e-08
1.06413e-08
7.48537e-09
4.74856e-09
2.84179e-09
1.67116e-09
9.68902e-10
5.74881e-10
3.09628e-10
1.48884e-10
6.29772e-11
3.80144e-11
2.46114e-11
9.63803e-12
1.72708e-12
2.78662e-12
4.02809e-10
1.52284e-09
3.40149e-09
6.18254e-09
1.516e-07
1.30538e-07
1.17498e-07
1.10899e-07
1.08243e-07
1.04863e-07
9.93463e-08
9.39077e-08
9.01585e-08
8.68532e-08
8.41042e-08
7.94871e-08
7.29452e-08
6.77527e-08
6.53744e-08
6.5034e-08
6.49252e-08
6.2186e-08
5.46001e-08
4.40635e-08
3.38331e-08
2.74128e-08
2.54932e-08
2.4445e-08
2.45178e-08
2.72552e-08
3.41161e-08
3.96843e-08
5.1225e-08
5.61054e-08
1.42235e-08
6.98643e-11
1.2637e-09
4.2513e-09
2.00877e-08
9.22598e-08
1.75351e-07
2.24341e-07
2.50999e-07
2.64892e-07
2.71342e-07
2.73985e-07
2.74636e-07
2.76197e-07
2.78554e-07
2.80129e-07
2.77845e-07
2.68584e-07
2.51762e-07
2.32796e-07
2.17413e-07
2.08322e-07
2.04457e-07
2.02432e-07
1.97692e-07
1.87473e-07
1.70592e-07
1.4777e-07
1.2282e-07
1.0006e-07
8.4924e-08
7.77714e-08
7.07407e-08
6.17977e-08
5.55677e-08
4.96198e-08
4.40113e-08
3.83579e-08
3.19745e-08
2.54466e-08
1.91533e-08
1.38506e-08
1.01164e-08
7.67124e-09
5.44563e-09
3.59854e-09
2.29789e-09
2.45838e-09
2.15856e-09
1.54416e-09
9.00104e-10
3.85452e-10
6.17627e-10
6.50601e-10
7.63813e-10
7.95734e-10
1.22631e-07
1.01835e-07
8.98974e-08
8.41376e-08
8.17087e-08
7.88577e-08
7.4518e-08
6.99341e-08
6.61589e-08
6.22899e-08
5.7718e-08
5.14816e-08
4.38643e-08
3.83416e-08
3.59638e-08
3.54964e-08
3.53905e-08
3.31597e-08
2.72618e-08
1.9619e-08
1.32593e-08
1.03436e-08
9.71382e-09
9.48649e-09
9.98275e-09
1.24329e-08
1.83175e-08
2.4768e-08
3.47164e-08
2.93583e-08
2.4326e-09
3.05704e-10
2.27906e-09
6.73567e-09
4.52154e-08
1.5463e-07
2.31566e-07
2.67307e-07
2.85321e-07
2.94961e-07
2.99504e-07
3.01314e-07
3.01661e-07
3.02585e-07
3.04127e-07
3.05322e-07
3.03972e-07
2.97866e-07
2.85946e-07
2.71456e-07
2.59617e-07
2.52479e-07
2.49339e-07
2.47622e-07
2.43121e-07
2.33536e-07
2.17721e-07
1.95283e-07
1.69209e-07
1.44669e-07
1.27162e-07
1.19163e-07
1.11641e-07
1.00778e-07
9.42728e-08
8.8462e-08
8.29968e-08
7.7614e-08
7.07771e-08
6.22592e-08
5.24864e-08
4.34398e-08
3.78458e-08
3.36485e-08
2.85746e-08
2.29627e-08
1.77253e-08
1.21562e-08
7.49774e-09
4.76292e-09
3.82073e-09
3.15027e-09
1.88575e-09
9.91859e-10
7.70236e-10
5.38436e-10
9.54636e-08
7.60809e-08
6.56404e-08
6.08936e-08
5.87881e-08
5.64921e-08
5.32471e-08
4.96504e-08
4.5999e-08
4.16823e-08
3.62635e-08
2.93926e-08
2.20749e-08
1.76277e-08
1.58581e-08
1.55332e-08
1.55103e-08
1.41203e-08
1.07228e-08
6.97275e-09
4.43446e-09
3.42014e-09
3.12824e-09
3.03605e-09
3.26651e-09
4.49552e-09
7.99263e-09
1.38706e-08
1.96674e-08
9.29291e-09
9.88522e-10
1.23744e-09
4.09988e-09
1.49174e-08
9.43068e-08
2.15014e-07
2.72916e-07
2.96289e-07
3.08177e-07
3.14642e-07
3.17661e-07
3.18805e-07
3.1946e-07
3.20163e-07