/*--------------------------------*- C++ -*----------------------------------*\
| =========                 |                                                 |
| \\      /  F ield         | OpenFOAM: The Open Source CFD Toolbox           |
|  \\    /   O peration     | Version:  v1912                                 |
|   \\  /    A nd           | Website:  www.openfoam.com                      |
|    \\/     M anipulation  |                                                 |
\*---------------------------------------------------------------------------*/
FoamFile
{
    version     2.0;
    format      ascii;
    class       volScalarField;
    location    "20";
    object      p_rgh;
}
// * * * * * * * * * * * * * * * * * * * * * * * * * * * * * * * * * * * * * //

dimensions      [1 -1 -2 0 0 0 0];


internalField   nonuniform List<scalar> 
14268
(
0.00130908
0.00123329
0.00116161
0.00109384
0.00102979
0.000969262
0.000912075
0.000858057
0.000807046
0.000758883
0.000713421
0.000670518
0.00063004
0.000591858
0.000555851
0.000521903
0.000489903
0.000459748
0.000431338
0.000404578
0.000379379
0.000355656
0.000333327
0.000312317
0.000292552
0.000273964
0.000256486
0.000240057
0.000224618
0.000210113
0.000196489
0.000183697
0.000171688
0.000160418
0.000149844
0.000139926
0.000130626
0.000121908
0.000113738
0.000106083
9.89138e-05
9.22007e-05
8.59169e-05
8.00365e-05
7.45354e-05
6.93906e-05
6.45807e-05
6.0085e-05
5.58845e-05
5.1961e-05
4.82975e-05
4.48776e-05
4.16864e-05
3.87095e-05
3.59334e-05
3.33454e-05
3.09337e-05
2.86868e-05
2.65944e-05
2.46465e-05
2.28337e-05
2.11472e-05
1.95788e-05
1.81208e-05
1.67659e-05
1.55072e-05
1.43384e-05
1.32535e-05
1.22467e-05
1.13129e-05
1.04471e-05
9.64463e-06
8.90117e-06
8.21265e-06
7.57528e-06
6.98549e-06
6.43996e-06
5.93558e-06
5.46944e-06
5.03883e-06
4.64121e-06
4.27421e-06
3.93563e-06
3.62341e-06
3.33563e-06
3.07049e-06
2.82634e-06
2.60161e-06
2.39487e-06
2.20476e-06
2.03005e-06
1.86956e-06
1.72222e-06
1.58702e-06
1.46303e-06
1.34939e-06
1.2453e-06
1.15002e-06
1.06285e-06
9.83171e-07
9.10383e-07
8.43948e-07
7.83361e-07
7.2816e-07
6.77919e-07
6.32245e-07
5.90777e-07
5.53183e-07
5.19161e-07
4.88432e-07
4.60744e-07
4.35868e-07
4.13595e-07
3.93739e-07
3.76131e-07
3.60623e-07
3.47084e-07
3.354e-07
3.25472e-07
3.17224e-07
3.10584e-07
3.05516e-07
3.01965e-07
2.99957e-07
2.99403e-07
3.00519e-07
3.02873e-07
3.07498e-07
3.12552e-07
3.21473e-07
3.28888e-07
3.43173e-07
3.52601e-07
3.73366e-07
3.84562e-07
4.12672e-07
4.25586e-07
4.61029e-07
4.75842e-07
5.17198e-07
5.34114e-07
5.78095e-07
5.97045e-07
6.4115e-07
6.60774e-07
7.0012e-07
7.19544e-07
7.52272e-07
7.70478e-07
7.9639e-07
8.12557e-07
8.32471e-07
8.45976e-07
8.61198e-07
8.71673e-07
8.83463e-07
8.90819e-07
9.00126e-07
9.04429e-07
9.11893e-07
9.12955e-07
9.18963e-07
9.1467e-07
9.18314e-07
0.00130891
0.00123313
0.00116146
0.0010937
0.00102966
0.000969137
0.000911957
0.000857945
0.00080694
0.000758783
0.000713326
0.000670428
0.000629955
0.000591778
0.000555775
0.000521831
0.000489836
0.000459684
0.000431278
0.000404521
0.000379325
0.000355605
0.000333279
0.000312272
0.000292509
0.000273923
0.000256448
0.000240021
0.000224584
0.000210081
0.000196459
0.000183668
0.000171661
0.000160392
0.00014982
0.000139903
0.000130604
0.000121887
0.000113718
0.000106065
9.88963e-05
9.21841e-05
8.59011e-05
8.00215e-05
7.45212e-05
6.93771e-05
6.45678e-05
6.00728e-05
5.58729e-05
5.195e-05
4.82869e-05
4.48676e-05
4.16769e-05
3.87003e-05
3.59246e-05
3.3337e-05
3.09256e-05
2.86791e-05
2.6587e-05
2.46394e-05
2.28268e-05
2.11406e-05
1.95725e-05
1.81147e-05
1.676e-05
1.55015e-05
1.43329e-05
1.32481e-05
1.22415e-05
1.13078e-05
1.04421e-05
9.63977e-06
8.89642e-06
8.20801e-06
7.57074e-06
6.98104e-06
6.4356e-06
5.9313e-06
5.46523e-06
5.03468e-06
4.63713e-06
4.27019e-06
3.93166e-06
3.61949e-06
3.33176e-06
3.06666e-06
2.82255e-06
2.59786e-06
2.39115e-06
2.20108e-06
2.02639e-06
1.86593e-06
1.71861e-06
1.58343e-06
1.45946e-06
1.34585e-06
1.24177e-06
1.14651e-06
1.05936e-06
9.79689e-07
9.06914e-07
8.4049e-07
7.79914e-07
7.24724e-07
6.74492e-07
6.28826e-07
5.87365e-07
5.49779e-07
5.15762e-07
4.8504e-07
4.57357e-07
4.32486e-07
4.10218e-07
3.90366e-07
3.72762e-07
3.57258e-07
3.43722e-07
3.32042e-07
3.22118e-07
3.13872e-07
3.07236e-07
3.02171e-07
2.98624e-07
2.96619e-07
2.96068e-07
2.97187e-07
2.99546e-07
3.04174e-07
3.09233e-07
3.18156e-07
3.25578e-07
3.39864e-07
3.49302e-07
3.70066e-07
3.81274e-07
4.0938e-07
4.22308e-07
4.57746e-07
4.7257e-07
5.13917e-07
5.30844e-07
5.74814e-07
5.93771e-07
6.37883e-07
6.57496e-07
6.96852e-07
7.16265e-07
7.48997e-07
7.67193e-07
7.93106e-07
8.09263e-07
8.29177e-07
8.42675e-07
8.57895e-07
8.68364e-07
8.80152e-07
8.87503e-07
8.96808e-07
9.0111e-07
9.08572e-07
9.09639e-07
9.15645e-07
9.11492e-07
9.15121e-07
0.00130873
0.00123296
0.0011613
0.00109355
0.00102951
0.000968996
0.000911823
0.000857818
0.000806818
0.000758667
0.000713216
0.000670324
0.000629855
0.000591683
0.000555685
0.000521745
0.000489753
0.000459605
0.000431202
0.000404449
0.000379257
0.000355539
0.000333217
0.000312212
0.000292452
0.000273868
0.000256395
0.00023997
0.000224535
0.000210034
0.000196414
0.000183625
0.000171619
0.000160352
0.000149781
0.000139866
0.000130568
0.000121853
0.000113685
0.000106032
9.88646e-05
9.21534e-05
8.58713e-05
7.99925e-05
7.4493e-05
6.93496e-05
6.4541e-05
6.00467e-05
5.58474e-05
5.1925e-05
4.82625e-05
4.48437e-05
4.16534e-05
3.86773e-05
3.5902e-05
3.33148e-05
3.09037e-05
2.86576e-05
2.65658e-05
2.46185e-05
2.28062e-05
2.11202e-05
1.95523e-05
1.80948e-05
1.67403e-05
1.5482e-05
1.43136e-05
1.32289e-05
1.22225e-05
1.1289e-05
1.04235e-05
9.62125e-06
8.87802e-06
8.18973e-06
7.55256e-06
6.96297e-06
6.41762e-06
5.91341e-06
5.44742e-06
5.01695e-06
4.61947e-06
4.25259e-06
3.91413e-06
3.60202e-06
3.31433e-06
3.04929e-06
2.80522e-06
2.58057e-06
2.3739e-06
2.18387e-06
2.00921e-06
1.84878e-06
1.70149e-06
1.56634e-06
1.4424e-06
1.32881e-06
1.22476e-06
1.12951e-06
1.04238e-06
9.62727e-07
8.89969e-07
8.2356e-07
7.62997e-07
7.0782e-07
6.576e-07
6.11945e-07
5.70495e-07
5.32918e-07
4.98911e-07
4.68196e-07
4.40521e-07
4.15657e-07
3.93396e-07
3.7355e-07
3.55952e-07
3.40453e-07
3.26922e-07
3.15245e-07
3.05325e-07
2.97084e-07
2.90451e-07
2.85389e-07
2.81845e-07
2.79843e-07
2.79294e-07
2.80416e-07
2.82775e-07
2.87408e-07
2.92466e-07
3.01396e-07
3.08816e-07
3.2311e-07
3.32545e-07
3.53319e-07
3.64523e-07
3.92643e-07
4.05565e-07
4.41022e-07
4.55838e-07
4.97215e-07
5.14127e-07
5.58128e-07
5.7707e-07
6.21171e-07
6.40792e-07
6.80129e-07
6.99543e-07
7.32264e-07
7.50459e-07
7.76364e-07
7.92521e-07
8.12428e-07
8.25926e-07
8.41141e-07
8.51611e-07
8.63392e-07
8.70745e-07
8.80044e-07
8.84345e-07
8.91799e-07
8.92853e-07
8.98847e-07
8.94534e-07
8.981e-07
0.00130853
0.00123276
0.00116111
0.00109337
0.00102934
0.000968835
0.000911669
0.000857671
0.000806677
0.000758532
0.000713087
0.000670199
0.000629736
0.000591568
0.000555575
0.000521639
0.000489651
0.000459507
0.000431108
0.000404358
0.000379169
0.000355454
0.000333135
0.000312132
0.000292375
0.000273794
0.000256323
0.0002399
0.000224468
0.000209968
0.00019635
0.000183562
0.000171558
0.000160293
0.000149723
0.000139809
0.000130513
0.000121799
0.000113632
0.00010598
9.88139e-05
9.21035e-05
8.58223e-05
7.99444e-05
7.44456e-05
6.9303e-05
6.44951e-05
6.00014e-05
5.58027e-05
5.18809e-05
4.82189e-05
4.48006e-05
4.16108e-05
3.86352e-05
3.58603e-05
3.32734e-05
3.08628e-05
2.86169e-05
2.65255e-05
2.45784e-05
2.27664e-05
2.10807e-05
1.95131e-05
1.80557e-05
1.67014e-05
1.54434e-05
1.42751e-05
1.31907e-05
1.21844e-05
1.1251e-05
1.03856e-05
9.58353e-06
8.84042e-06
8.15224e-06
7.51518e-06
6.92568e-06
6.38042e-06
5.87629e-06
5.41038e-06
4.97998e-06
4.58256e-06
4.21574e-06
3.87734e-06
3.56527e-06
3.27764e-06
3.01264e-06
2.76861e-06
2.544e-06
2.33736e-06
2.14735e-06
1.97273e-06
1.81232e-06
1.66506e-06
1.52993e-06
1.40601e-06
1.29243e-06
1.1884e-06
1.09317e-06
1.00605e-06
9.2641e-07
8.53662e-07
7.87263e-07
7.2671e-07
6.71541e-07
6.21328e-07
5.7568e-07
5.34236e-07
4.96664e-07
4.62662e-07
4.31952e-07
4.04281e-07
3.79421e-07
3.57163e-07
3.3732e-07
3.19725e-07
3.04229e-07
2.90701e-07
2.79028e-07
2.69111e-07
2.60872e-07
2.54242e-07
2.49184e-07
2.45643e-07
2.43645e-07
2.431e-07
2.44226e-07
2.46592e-07
2.51226e-07
2.56294e-07
2.65223e-07
2.72657e-07
2.86946e-07
2.964e-07
3.17165e-07
3.28392e-07
3.56497e-07
3.69445e-07
4.0488e-07
4.19723e-07
4.61063e-07
4.78004e-07
5.21967e-07
5.4093e-07
5.85054e-07
6.04649e-07
6.44017e-07
6.63411e-07
6.96149e-07
7.14325e-07
7.40239e-07
7.56379e-07
7.7629e-07
7.89774e-07
8.04991e-07
8.15449e-07
8.27232e-07
8.34576e-07
8.43876e-07
8.48174e-07
8.5563e-07
8.56704e-07
8.627e-07
8.58525e-07
8.62017e-07
0.00130832
0.00123256
0.00116092
0.00109319
0.00102917
0.000968665
0.000911506
0.000857514
0.000806527
0.000758388
0.000712948
0.000670066
0.000629608
0.000591445
0.000555456
0.000521524
0.000489541
0.000459401
0.000431005
0.000404258
0.000379072
0.000355361
0.000333044
0.000312045
0.00029229
0.000273711
0.000256243
0.000239822
0.000224391
0.000209894
0.000196278
0.000183492
0.000171489
0.000160225
0.000149657
0.000139745
0.00013045
0.000121736
0.000113571
0.00010592
9.8755e-05
9.20456e-05
8.57653e-05
7.98882e-05
7.43902e-05
6.92484e-05
6.44412e-05
5.99481e-05
5.575e-05
5.18288e-05
4.81674e-05
4.47495e-05
4.15602e-05
3.8585e-05
3.58106e-05
3.32242e-05
3.08138e-05
2.85684e-05
2.64772e-05
2.45305e-05
2.27188e-05
2.10334e-05
1.9466e-05
1.80089e-05
1.66548e-05
1.53969e-05
1.42288e-05
1.31446e-05
1.21385e-05
1.12053e-05
1.034e-05
9.53807e-06
8.7951e-06
8.10704e-06
7.47009e-06
6.8807e-06
6.33553e-06
5.8315e-06
5.36567e-06
4.93536e-06
4.53801e-06
4.17127e-06
3.83293e-06
3.52092e-06
3.23334e-06
2.9684e-06
2.72442e-06
2.49985e-06
2.29326e-06
2.1033e-06
1.92871e-06
1.76834e-06
1.62111e-06
1.48601e-06
1.36212e-06
1.24856e-06
1.14456e-06
1.04935e-06
9.6225e-07
8.82632e-07
8.09903e-07
7.43521e-07
6.82984e-07
6.27829e-07
5.7763e-07
5.31996e-07
4.90563e-07
4.53003e-07
4.19011e-07
3.8831e-07
3.60649e-07
3.35797e-07
3.13546e-07
2.93711e-07
2.76122e-07
2.60632e-07
2.4711e-07
2.35441e-07
2.25528e-07
2.17294e-07
2.10668e-07
2.05612e-07
2.02074e-07
2.00078e-07
1.99535e-07
2.00664e-07
2.03028e-07
2.07668e-07
2.12731e-07
2.21669e-07
2.29095e-07
2.43397e-07
2.5284e-07
2.73623e-07
2.84835e-07
3.12966e-07
3.25896e-07
3.61365e-07
3.76187e-07
4.17581e-07
4.34491e-07
4.78507e-07
4.97446e-07
5.41549e-07
5.61163e-07
6.00496e-07
6.19899e-07
6.52616e-07
6.70797e-07
6.96699e-07
7.12842e-07
7.32745e-07
7.46232e-07
7.61441e-07
7.71904e-07
7.83678e-07
7.91028e-07
8.00317e-07
8.04617e-07
8.12059e-07
8.13111e-07
8.19088e-07
8.14694e-07
8.18178e-07
0.00130812
0.00123237
0.00116073
0.00109301
0.001029
0.000968502
0.00091135
0.000857365
0.000806384
0.000758251
0.000712817
0.00066994
0.000629487
0.000591329
0.000555344
0.000521417
0.000489438
0.000459301
0.000430909
0.000404166
0.000378984
0.000355275
0.000332961
0.000311965
0.000292213
0.000273636
0.00025617
0.000239752
0.000224323
0.000209828
0.000196213
0.000183429
0.000171428
0.000160166
0.000149599
0.000139688
0.000130394
0.000121682
0.000113518
0.000105868
9.87041e-05
9.19957e-05
8.57163e-05
7.984e-05
7.43429e-05
6.92018e-05
6.43952e-05
5.99028e-05
5.57054e-05
5.17848e-05
4.81239e-05
4.47066e-05
4.15177e-05
3.8543e-05
3.5769e-05
3.31829e-05
3.0773e-05
2.85279e-05
2.6437e-05
2.44906e-05
2.26792e-05
2.0994e-05
1.94269e-05
1.797e-05
1.66161e-05
1.53585e-05
1.41906e-05
1.31065e-05
1.21006e-05
1.11675e-05
1.03024e-05
9.50056e-06
8.75771e-06
8.06976e-06
7.43292e-06
6.84362e-06
6.29855e-06
5.7946e-06
5.32885e-06
4.89861e-06
4.50133e-06
4.13465e-06
3.79636e-06
3.48441e-06
3.19688e-06
2.93198e-06
2.68804e-06
2.46351e-06
2.25696e-06
2.06702e-06
1.89247e-06
1.73212e-06
1.58491e-06
1.44984e-06
1.32597e-06
1.21243e-06
1.10844e-06
1.01325e-06
9.26165e-07
8.46559e-07
7.73842e-07
7.0747e-07
6.46942e-07
5.91796e-07
5.41604e-07
4.95976e-07
4.5455e-07
4.16994e-07
3.83007e-07
3.52311e-07
3.24653e-07
2.99804e-07
2.77557e-07
2.57725e-07
2.40139e-07
2.24652e-07
2.11132e-07
1.99466e-07
1.89556e-07
1.81325e-07
1.74701e-07
1.6965e-07
1.66115e-07
1.64123e-07
1.63584e-07
1.64717e-07
1.67088e-07
1.71731e-07
1.76804e-07
1.85741e-07
1.93182e-07
2.07479e-07
2.16942e-07
2.37714e-07
2.48952e-07
2.77064e-07
2.90024e-07
3.25466e-07
3.40319e-07
3.81663e-07
3.98614e-07
4.42575e-07
4.61544e-07
5.05678e-07
5.25261e-07
5.64635e-07
5.84013e-07
6.16752e-07
6.34911e-07
6.60824e-07
6.76949e-07
6.96858e-07
7.10328e-07
7.25541e-07
7.3599e-07
7.47767e-07
7.55105e-07
7.64397e-07
7.68693e-07
7.76139e-07
7.77215e-07
7.83193e-07
7.7899e-07
7.82536e-07
0.00130792
0.00123218
0.00116056
0.00109284
0.00102884
0.000968351
0.000911205
0.000857227
0.000806253
0.000758125
0.000712697
0.000669826
0.000629378
0.000591225
0.000555245
0.000521322
0.000489347
0.000459214
0.000430826
0.000404087
0.000378907
0.000355202
0.000332891
0.000311897
0.000292148
0.000273574
0.00025611
0.000239694
0.000224268
0.000209774
0.000196162
0.000183379
0.00017138
0.000160119
0.000149554
0.000139644
0.000130352
0.000121641
0.000113478
0.00010583
9.86664e-05
9.1959e-05
8.56805e-05
7.98051e-05
7.43088e-05
6.91684e-05
6.43627e-05
5.98709e-05
5.56741e-05
5.17541e-05
4.80937e-05
4.4677e-05
4.14886e-05
3.85144e-05
3.57408e-05
3.31551e-05
3.07456e-05
2.85008e-05
2.64103e-05
2.44642e-05
2.26531e-05
2.09682e-05
1.94013e-05
1.79446e-05
1.6591e-05
1.53336e-05
1.41659e-05
1.3082e-05
1.20762e-05
1.11433e-05
1.02783e-05
9.47666e-06
8.73394e-06
8.04612e-06
7.40938e-06
6.82019e-06
6.27522e-06
5.77136e-06
5.3057e-06
4.87553e-06
4.47833e-06
4.11172e-06
3.7735e-06
3.46161e-06
3.17413e-06
2.90928e-06
2.66539e-06
2.44091e-06
2.23439e-06
2.0445e-06
1.86997e-06
1.70966e-06
1.56249e-06
1.42744e-06
1.3036e-06
1.19009e-06
1.08612e-06
9.90946e-07
9.03884e-07
8.24297e-07
7.51597e-07
6.85242e-07
6.24729e-07
5.69597e-07
5.19419e-07
4.73803e-07
4.32388e-07
3.94844e-07
3.60867e-07
3.3018e-07
3.02532e-07
2.77691e-07
2.55452e-07
2.35626e-07
2.18047e-07
2.02566e-07
1.89052e-07
1.77391e-07
1.67486e-07
1.59259e-07
1.52639e-07
1.4759e-07
1.44058e-07
1.42069e-07
1.41531e-07
1.42667e-07
1.45036e-07
1.49685e-07
1.54753e-07
1.637e-07
1.71132e-07
1.85442e-07
1.94895e-07
2.15684e-07
2.26909e-07
2.55045e-07
2.67989e-07
3.03464e-07
3.18298e-07
3.59699e-07
3.76613e-07
4.2064e-07
4.39576e-07
4.83689e-07
5.03291e-07
5.42631e-07
5.62015e-07
5.94738e-07
6.12899e-07
6.38803e-07
6.54927e-07
6.74829e-07
6.88301e-07
7.03507e-07
7.13959e-07
7.25728e-07
7.33071e-07
7.42353e-07
7.46651e-07
7.54085e-07
7.55144e-07
7.61108e-07
7.56846e-07
7.60471e-07
0.00130774
0.00123201
0.00116039
0.00109269
0.00102869
0.000968209
0.000911071
0.000857099
0.000806131
0.00075801
0.000712588
0.000669722
0.00062928
0.000591131
0.000555156
0.000521237
0.000489267
0.000459138
0.000430754
0.000404018
0.000378842
0.00035514
0.000332832
0.000311841
0.000292094
0.000273523
0.000256062
0.000239648
0.000224223
0.000209732
0.000196121
0.000183341
0.000171343
0.000160084
0.00014952
0.000139612
0.000130321
0.000121612
0.000113449
0.000105802
9.86399e-05
9.19335e-05
8.56559e-05
7.97814e-05
7.42859e-05
6.91464e-05
6.43413e-05
5.98503e-05
5.56541e-05
5.17347e-05
4.80749e-05
4.46586e-05
4.14708e-05
3.8497e-05
3.57238e-05
3.31386e-05
3.07294e-05
2.8485e-05
2.63949e-05
2.4449e-05
2.26382e-05
2.09536e-05
1.9387e-05
1.79306e-05
1.65772e-05
1.53199e-05
1.41524e-05
1.30687e-05
1.20631e-05
1.11304e-05
1.02656e-05
9.46401e-06
8.72142e-06
8.03371e-06
7.39709e-06
6.808e-06
6.26312e-06
5.75935e-06
5.29377e-06
4.86368e-06
4.46654e-06
4.1e-06
3.76184e-06
3.45e-06
3.16258e-06
2.89777e-06
2.65393e-06
2.42949e-06
2.22301e-06
2.03315e-06
1.85865e-06
1.69837e-06
1.55122e-06
1.4162e-06
1.29238e-06
1.17889e-06
1.07494e-06
9.79781e-07
8.92734e-07
8.13161e-07
7.40473e-07
6.74129e-07
6.13626e-07
5.58504e-07
5.08334e-07
4.62725e-07
4.21317e-07
3.83779e-07
3.49807e-07
3.19125e-07
2.91481e-07
2.66644e-07
2.44408e-07
2.24586e-07
2.0701e-07
1.91532e-07
1.78021e-07
1.66363e-07
1.56461e-07
1.48236e-07
1.4162e-07
1.36575e-07
1.33046e-07
1.31061e-07
1.30528e-07
1.31668e-07
1.34043e-07
1.38695e-07
1.43771e-07
1.52719e-07
1.60164e-07
1.74471e-07
1.8394e-07
2.04722e-07
2.15969e-07
2.44089e-07
2.5706e-07
2.92511e-07
3.07373e-07
3.4873e-07
3.65682e-07
4.09653e-07
4.28622e-07
4.72767e-07
4.92339e-07
5.31718e-07
5.5108e-07
5.83821e-07
6.01963e-07
6.27875e-07
6.43983e-07
6.6389e-07
6.77346e-07
6.92555e-07
7.02994e-07
7.14765e-07
7.22098e-07
7.31383e-07
7.35677e-07
7.43113e-07
7.44194e-07
7.50159e-07
7.46046e-07
7.49737e-07
0.00130756
0.00123184
0.00116023
0.00109253
0.00102854
0.000968072
0.000910941
0.000856977
0.000806015
0.0007579
0.000712484
0.000669624
0.000629187
0.000591043
0.000555072
0.000521159
0.000489192
0.000459068
0.000430687
0.000403955
0.000378782
0.000355083
0.000332778
0.00031179
0.000292046
0.000273477
0.000256019
0.000239607
0.000224185
0.000209696
0.000196087
0.000183308
0.000171312
0.000160055
0.000149492
0.000139586
0.000130296
0.000121588
0.000113427
0.000105781
9.86196e-05
9.19141e-05
8.56375e-05
7.97639e-05
7.42692e-05
6.91304e-05
6.43261e-05
5.98358e-05
5.56403e-05
5.17214e-05
4.80622e-05
4.46465e-05
4.14592e-05
3.84858e-05
3.57131e-05
3.31283e-05
3.07195e-05
2.84755e-05
2.63857e-05
2.44402e-05
2.26296e-05
2.09453e-05
1.93789e-05
1.79228e-05
1.65696e-05
1.53126e-05
1.41453e-05
1.30618e-05
1.20563e-05
1.11238e-05
1.02591e-05
9.45769e-06
8.71523e-06
8.02764e-06
7.39113e-06
6.80215e-06
6.25737e-06
5.75369e-06
5.2882e-06
4.85819e-06
4.46112e-06
4.09465e-06
3.75655e-06
3.44477e-06
3.1574e-06
2.89265e-06
2.64885e-06
2.42445e-06
2.21801e-06
2.02819e-06
1.85373e-06
1.69348e-06
1.54636e-06
1.41137e-06
1.28757e-06
1.17411e-06
1.07018e-06
9.75041e-07
8.88012e-07
8.08457e-07
7.35785e-07
6.69456e-07
6.08967e-07
5.53857e-07
5.03699e-07
4.58102e-07
4.16704e-07
3.79176e-07
3.45213e-07
3.1454e-07
2.86904e-07
2.62075e-07
2.39846e-07
2.2003e-07
2.0246e-07
1.86988e-07
1.73482e-07
1.61829e-07
1.51931e-07
1.4371e-07
1.37097e-07
1.32055e-07
1.2853e-07
1.26547e-07
1.26015e-07
1.27159e-07
1.29534e-07
1.34192e-07
1.39265e-07
1.48221e-07
1.55662e-07
1.69978e-07
1.79443e-07
2.00236e-07
2.11477e-07
2.39616e-07
2.52578e-07
2.88051e-07
3.02903e-07
3.443e-07
3.61227e-07
4.05256e-07
4.24192e-07
4.68326e-07
4.87906e-07
5.27268e-07
5.46627e-07
5.79363e-07
5.97498e-07
6.23409e-07
6.3951e-07
6.59414e-07
6.72867e-07
6.88072e-07
6.9851e-07
7.10275e-07
7.17609e-07
7.26886e-07
7.31181e-07
7.38608e-07
7.39684e-07
7.45641e-07
7.41563e-07
7.45297e-07
0.00130738
0.00123167
0.00116007
0.00109238
0.0010284
0.000967937
0.000910814
0.000856856
0.000805901
0.000757793
0.000712382
0.000669528
0.000629095
0.000590957
0.000554991
0.000521082
0.00048912
0.000458999
0.000430622
0.000403894
0.000378725
0.000355029
0.000332727
0.000311742
0.000292001
0.000273435
0.000255978
0.000239569
0.000224149
0.000209662
0.000196055
0.000183278
0.000171284
0.000160028
0.000149467
0.000139562
0.000130274
0.000121567
0.000113407
0.000105762
9.8602e-05
9.18975e-05
8.56219e-05
7.97492e-05
7.42553e-05
6.91173e-05
6.43137e-05
5.98241e-05
5.56292e-05
5.1711e-05
4.80524e-05
4.46372e-05
4.14504e-05
3.84776e-05
3.57053e-05
3.31209e-05
3.07125e-05
2.84688e-05
2.63794e-05
2.44342e-05
2.2624e-05
2.09399e-05
1.93738e-05
1.79179e-05
1.65649e-05
1.53081e-05
1.4141e-05
1.30577e-05
1.20524e-05
1.112e-05
1.02555e-05
9.45425e-06
8.71192e-06
8.02446e-06
7.38807e-06
6.79919e-06
6.25451e-06
5.75092e-06
5.28551e-06
4.85558e-06
4.45859e-06
4.09218e-06
3.75415e-06
3.44243e-06
3.15512e-06
2.89041e-06
2.64666e-06
2.42231e-06
2.21591e-06
2.02612e-06
1.8517e-06
1.69148e-06
1.54439e-06
1.40942e-06
1.28564e-06
1.1722e-06
1.06829e-06
9.73177e-07
8.86165e-07
8.06626e-07
7.33969e-07
6.67653e-07
6.07177e-07
5.52078e-07
5.0193e-07
4.56342e-07
4.14953e-07
3.77432e-07
3.43476e-07
3.12809e-07
2.85178e-07
2.60354e-07
2.3813e-07
2.18319e-07
2.00753e-07
1.85284e-07
1.71781e-07
1.60132e-07
1.50237e-07
1.4202e-07
1.3541e-07
1.30372e-07
1.2685e-07
1.24871e-07
1.24343e-07
1.25491e-07
1.27869e-07
1.32532e-07
1.37609e-07
1.46569e-07
1.54017e-07
1.68334e-07
1.77809e-07
1.98601e-07
2.09856e-07
2.37986e-07
2.50966e-07
2.86429e-07
3.01298e-07
3.42671e-07
3.59623e-07
4.03609e-07
4.22576e-07
4.66732e-07
4.86294e-07
5.25678e-07
5.45024e-07
5.77769e-07
5.95892e-07
6.21805e-07
6.37895e-07
6.578e-07
6.71242e-07
6.86447e-07
6.96876e-07
7.08641e-07
7.15968e-07
7.25244e-07
7.29538e-07
7.36963e-07
7.3805e-07
7.44003e-07
7.40023e-07
7.43784e-07
0.0013072
0.0012315
0.00115991
0.00109223
0.00102826
0.000967802
0.000910686
0.000856735
0.000805787
0.000757685
0.00071228
0.000669431
0.000629005
0.000590871
0.00055491
0.000521006
0.000489048
0.000458931
0.000430558
0.000403833
0.000378668
0.000354975
0.000332677
0.000311694
0.000291956
0.000273392
0.000255938
0.000239532
0.000224114
0.000209629
0.000196024
0.000183249
0.000171256
0.000160002
0.000149443
0.000139539
0.000130252
0.000121547
0.000113388
0.000105744
9.85853e-05
9.18819e-05
8.56072e-05
7.97353e-05
7.42423e-05
6.91052e-05
6.43023e-05
5.98134e-05
5.56192e-05
5.17016e-05
4.80436e-05
4.4629e-05
4.14426e-05
3.84703e-05
3.56985e-05
3.31145e-05
3.07065e-05
2.84632e-05
2.63741e-05
2.44292e-05
2.26193e-05
2.09355e-05
1.93697e-05
1.7914e-05
1.65613e-05
1.53047e-05
1.41378e-05
1.30547e-05
1.20496e-05
1.11174e-05
1.0253e-05
9.4519e-06
8.7097e-06
8.02237e-06
7.38609e-06
6.79733e-06
6.25275e-06
5.74925e-06
5.28393e-06
4.85408e-06
4.45717e-06
4.09083e-06
3.75286e-06
3.44121e-06
3.15395e-06
2.8893e-06
2.64559e-06
2.42128e-06
2.21493e-06
2.02518e-06
1.85079e-06
1.69061e-06
1.54355e-06
1.40861e-06
1.28486e-06
1.17144e-06
1.06756e-06
9.7246e-07
8.85468e-07
8.05946e-07
7.33305e-07
6.67005e-07
6.06542e-07
5.51457e-07
5.01321e-07
4.55744e-07
4.14365e-07
3.76853e-07
3.42906e-07
3.12248e-07
2.84625e-07
2.59808e-07
2.3759e-07
2.17785e-07
2.00225e-07
1.84762e-07
1.71264e-07
1.59619e-07
1.49728e-07
1.41515e-07
1.34909e-07
1.29874e-07
1.26354e-07
1.24379e-07
1.23852e-07
1.25004e-07
1.27383e-07
1.3205e-07
1.37128e-07
1.46093e-07
1.5354e-07
1.67864e-07
1.77339e-07
1.98138e-07
2.09392e-07
2.37534e-07
2.50512e-07
2.85989e-07
3.00855e-07
3.42254e-07
3.59193e-07
4.03221e-07
4.22163e-07
4.66317e-07
4.85881e-07
5.25257e-07
5.44598e-07
5.7734e-07
5.95455e-07
6.21368e-07
6.3745e-07
6.57354e-07
6.7079e-07
6.85992e-07
6.96418e-07
7.08177e-07
7.15504e-07
7.24774e-07
7.29067e-07
7.36486e-07
7.37571e-07
7.43515e-07
7.39564e-07
7.43335e-07
0.00130702
0.00123133
0.00115975
0.00109208
0.00102811
0.000967666
0.000910557
0.000856613
0.000805672
0.000757576
0.000712178
0.000669334
0.000628913
0.000590785
0.000554829
0.000520929
0.000488975
0.000458863
0.000430494
0.000403773
0.00037861
0.000354922
0.000332626
0.000311647
0.000291911
0.00027335
0.000255899
0.000239494
0.000224079
0.000209596
0.000195993
0.000183219
0.000171229
0.000159976
0.000149419
0.000139516
0.000130231
0.000121527
0.000113369
0.000105727
9.85688e-05
9.18664e-05
8.55927e-05
7.97218e-05
7.42296e-05
6.90933e-05
6.42912e-05
5.9803e-05
5.56095e-05
5.16925e-05
4.8035e-05
4.4621e-05
4.14352e-05
3.84633e-05
3.56919e-05
3.31084e-05
3.07008e-05
2.84579e-05
2.63691e-05
2.44246e-05
2.2615e-05
2.09315e-05
1.93659e-05
1.79105e-05
1.65581e-05
1.53017e-05
1.4135e-05
1.3052e-05
1.20471e-05
1.11151e-05
1.02509e-05
9.44989e-06
8.70783e-06
8.02062e-06
7.38447e-06
6.79581e-06
6.25133e-06
5.74793e-06
5.2827e-06
4.85293e-06
4.45609e-06
4.08982e-06
3.75192e-06
3.44033e-06
3.15312e-06
2.88852e-06
2.64487e-06
2.4206e-06
2.21429e-06
2.02458e-06
1.85023e-06
1.69007e-06
1.54304e-06
1.40813e-06
1.28441e-06
1.17101e-06
1.06715e-06
9.72074e-07
8.851e-07
8.05595e-07
7.3297e-07
6.66684e-07
6.06234e-07
5.5116e-07
5.01036e-07
4.55469e-07
4.14099e-07
3.76596e-07
3.42657e-07
3.12005e-07
2.84388e-07
2.59577e-07
2.37365e-07
2.17565e-07
2.00009e-07
1.8455e-07
1.71056e-07
1.59415e-07
1.49528e-07
1.41318e-07
1.34715e-07
1.29684e-07
1.26167e-07
1.24195e-07
1.23673e-07
1.24828e-07
1.2721e-07
1.31882e-07
1.36962e-07
1.45932e-07
1.53384e-07
1.67711e-07
1.77192e-07
1.97993e-07
2.09256e-07
2.37396e-07
2.50385e-07
2.8586e-07
3.00737e-07
3.42126e-07
3.59079e-07
4.03078e-07
4.22044e-07
4.66216e-07
4.85768e-07
5.25159e-07
5.44489e-07
5.77237e-07
5.95341e-07
6.21255e-07
6.37327e-07
6.57231e-07
6.70658e-07
6.85859e-07
6.96277e-07
7.08036e-07
7.15357e-07
7.24625e-07
7.28917e-07
7.36332e-07
7.37425e-07
7.43365e-07
7.395e-07
7.43302e-07
0.00130684
0.00123116
0.00115959
0.00109192
0.00102797
0.000967528
0.000910427
0.000856491
0.000805556
0.000757466
0.000712074
0.000669237
0.000628821
0.000590698
0.000554747
0.000520851
0.000488902
0.000458794
0.000430429
0.000403712
0.000378553
0.000354867
0.000332575
0.000311599
0.000291866
0.000273308
0.000255859
0.000239457
0.000224043
0.000209562
0.000195961
0.00018319
0.000171201
0.00015995
0.000149394
0.000139493
0.00013021
0.000121506
0.00011335
0.000105709
9.85522e-05
9.18509e-05
8.55781e-05
7.97082e-05
7.42169e-05
6.90813e-05
6.428e-05
5.97925e-05
5.55997e-05
5.16834e-05
4.80265e-05
4.4613e-05
4.14277e-05
3.84563e-05
3.56854e-05
3.31023e-05
3.06951e-05
2.84526e-05
2.63642e-05
2.442e-05
2.26107e-05
2.09275e-05
1.93622e-05
1.79071e-05
1.65549e-05
1.52987e-05
1.41322e-05
1.30495e-05
1.20447e-05
1.11128e-05
1.02488e-05
9.44797e-06
8.70605e-06
8.01896e-06
7.38293e-06
6.79438e-06
6.25001e-06
5.7467e-06
5.28156e-06
4.85187e-06
4.45511e-06
4.08892e-06
3.75108e-06
3.43955e-06
3.1524e-06
2.88786e-06
2.64425e-06
2.42003e-06
2.21376e-06
2.02409e-06
1.84978e-06
1.68966e-06
1.54266e-06
1.40777e-06
1.28408e-06
1.17071e-06
1.06687e-06
9.71816e-07
8.84862e-07
8.05375e-07
7.32767e-07
6.66497e-07
6.06061e-07
5.51001e-07
5.00888e-07
4.55333e-07
4.13974e-07
3.7648e-07
3.4255e-07
3.11907e-07
2.84298e-07
2.59494e-07
2.37289e-07
2.17495e-07
1.99945e-07
1.84491e-07
1.71002e-07
1.59365e-07
1.49483e-07
1.41277e-07
1.34678e-07
1.29649e-07
1.26136e-07
1.24167e-07
1.23646e-07
1.24805e-07
1.27188e-07
1.31865e-07
1.36945e-07
1.4592e-07
1.53371e-07
1.67705e-07
1.77185e-07
1.97994e-07
2.09257e-07
2.37406e-07
2.50395e-07
2.85883e-07
3.00758e-07
3.4217e-07
3.59114e-07
4.03152e-07
4.22097e-07
4.66268e-07
4.85819e-07
5.25205e-07
5.44528e-07
5.77275e-07
5.95372e-07
6.21285e-07
6.37349e-07
6.57251e-07
6.70672e-07
6.85871e-07
6.96285e-07
7.08039e-07
7.15359e-07
7.24622e-07
7.28913e-07
7.36321e-07
7.37411e-07
7.43343e-07
7.39524e-07
7.43369e-07
0.00130666
0.00123099
0.00115942
0.00109177
0.00102782
0.000967389
0.000910296
0.000856366
0.000805439
0.000757356
0.000711969
0.000669138
0.000628728
0.00059061
0.000554664
0.000520773
0.000488828
0.000458725
0.000430363
0.00040365
0.000378495
0.000354813
0.000332523
0.00031155
0.00029182
0.000273265
0.000255818
0.000239419
0.000224007
0.000209529
0.00019593
0.00018316
0.000171174
0.000159924
0.00014937
0.00013947
0.000130188
0.000121486
0.000113331
0.000105691
9.85355e-05
9.18352e-05
8.55634e-05
7.96944e-05
7.4204e-05
6.90693e-05
6.42688e-05
5.9782e-05
5.55898e-05
5.16742e-05
4.80179e-05
4.4605e-05
4.14202e-05
3.84493e-05
3.56789e-05
3.30963e-05
3.06895e-05
2.84473e-05
2.63593e-05
2.44154e-05
2.26064e-05
2.09235e-05
1.93585e-05
1.79036e-05
1.65516e-05
1.52957e-05
1.41295e-05
1.30469e-05
1.20424e-05
1.11106e-05
1.02467e-05
9.44606e-06
8.70427e-06
8.01732e-06
7.3814e-06
6.79297e-06
6.2487e-06
5.74549e-06
5.28044e-06
4.85084e-06
4.45416e-06
4.08803e-06
3.75026e-06
3.43879e-06
3.15171e-06
2.88722e-06
2.64366e-06
2.41949e-06
2.21325e-06
2.02362e-06
1.84935e-06
1.68926e-06
1.54229e-06
1.40744e-06
1.28377e-06
1.17042e-06
1.06661e-06
9.71573e-07
8.84638e-07
8.05169e-07
7.32576e-07
6.66321e-07
6.05899e-07
5.50852e-07
5.00751e-07
4.55206e-07
4.13857e-07
3.76372e-07
3.42451e-07
3.11814e-07
2.84212e-07
2.59415e-07
2.37215e-07
2.17426e-07
1.99881e-07
1.84432e-07
1.70947e-07
1.59314e-07
1.49435e-07
1.41233e-07
1.34637e-07
1.29612e-07
1.26102e-07
1.24137e-07
1.23619e-07
1.24782e-07
1.27167e-07
1.31849e-07
1.36931e-07
1.45912e-07
1.53365e-07
1.67704e-07
1.77189e-07
1.98e-07
2.09269e-07
2.37421e-07
2.50417e-07
2.85908e-07
3.00789e-07
3.42198e-07
3.59152e-07
4.03165e-07
4.22132e-07
4.66322e-07
4.85862e-07
5.25261e-07
5.44575e-07
5.77326e-07
5.95413e-07
6.21327e-07
6.37381e-07
6.57283e-07
6.70695e-07
6.85892e-07
6.963e-07
7.08052e-07
7.15367e-07
7.24627e-07
7.28917e-07
7.36321e-07
7.37419e-07
7.43346e-07
7.39603e-07
7.43484e-07
0.00130638
0.00123072
0.00115918
0.00109153
0.0010276
0.000967179
0.000910097
0.000856178
0.000805261
0.000757188
0.000711811
0.000668988
0.000628586
0.000590477
0.000554538
0.000520654
0.000488717
0.000458619
0.000430264
0.000403556
0.000378406
0.000354729
0.000332445
0.000311476
0.000291751
0.000273199
0.000255757
0.000239361
0.000223953
0.000209478
0.000195882
0.000183115
0.000171131
0.000159884
0.000149333
0.000139435
0.000130155
0.000121455
0.000113302
0.000105664
9.85101e-05
9.18114e-05
8.55412e-05
7.96735e-05
7.41845e-05
6.9051e-05
6.42517e-05
5.9766e-05
5.55749e-05
5.16602e-05
4.80048e-05
4.45928e-05
4.14088e-05
3.84387e-05
3.5669e-05
3.3087e-05
3.06808e-05
2.84393e-05
2.63518e-05
2.44084e-05
2.25999e-05
2.09175e-05
1.93529e-05
1.78984e-05
1.65468e-05
1.52912e-05
1.41252e-05
1.3043e-05
1.20387e-05
1.11072e-05
1.02436e-05
9.44314e-06
8.70157e-06
8.01481e-06
7.37908e-06
6.79082e-06
6.24671e-06
5.74365e-06
5.27873e-06
4.84926e-06
4.4527e-06
4.08668e-06
3.74902e-06
3.43764e-06
3.15064e-06
2.88623e-06
2.64275e-06
2.41865e-06
2.21249e-06
2.02292e-06
1.84869e-06
1.68866e-06
1.54174e-06
1.40693e-06
1.2833e-06
1.17e-06
1.06621e-06
9.71211e-07
8.84306e-07
8.04865e-07
7.32298e-07
6.66066e-07
6.05667e-07
5.50639e-07
5.00557e-07
4.5503e-07
4.13696e-07
3.76226e-07
3.42318e-07
3.11694e-07
2.84104e-07
2.59317e-07
2.37128e-07
2.17348e-07
1.99812e-07
1.8437e-07
1.70893e-07
1.59267e-07
1.49394e-07
1.41198e-07
1.34607e-07
1.29587e-07
1.26082e-07
1.24121e-07
1.23607e-07
1.24775e-07
1.27161e-07
1.3185e-07
1.36932e-07
1.4592e-07
1.53374e-07
1.67721e-07
1.77207e-07
1.98028e-07
2.09301e-07
2.37462e-07
2.50462e-07
2.85968e-07
3.0085e-07
3.42289e-07
3.59233e-07
4.03303e-07
4.22239e-07
4.66431e-07
4.85967e-07
5.25363e-07
5.44666e-07
5.77418e-07
5.95491e-07
6.21405e-07
6.37446e-07
6.57347e-07
6.70749e-07
6.85942e-07
6.96343e-07
7.08089e-07
7.15401e-07
7.24652e-07
7.28941e-07
7.36334e-07