/*--------------------------------*- C++ -*----------------------------------*\
| =========                 |                                                 |
| \\      /  F ield         | OpenFOAM: The Open Source CFD Toolbox           |
|  \\    /   O peration     | Version:  v1912                                 |
|   \\  /    A nd           | Website:  www.openfoam.com                      |
|    \\/     M anipulation  |                                                 |
\*---------------------------------------------------------------------------*/
FoamFile
{
    version     2.0;
    format      ascii;
    class       volVectorField;
    location    "20";
    object      U;
}
// * * * * * * * * * * * * * * * * * * * * * * * * * * * * * * * * * * * * * //

dimensions      [0 1 -1 0 0 0 0];


internalField   nonuniform List<vector> 
14268
(
(0.00113162 0.000113803 0)
(0.00107069 0.000107677 0)
(0.00101286 0.000101863 0)
(0.000957976 9.63448e-05 0)
(0.00090591 9.11096e-05 0)
(0.000856517 8.61433e-05 0)
(0.000809677 8.14335e-05 0)
(0.000765261 7.69674e-05 0)
(0.000723157 7.27336e-05 0)
(0.00068325 6.87207e-05 0)
(0.000645435 6.49181e-05 0)
(0.000609608 6.13153e-05 0)
(0.000575674 5.79028e-05 0)
(0.000543538 5.46711e-05 0)
(0.000513114 5.16114e-05 0)
(0.000484314 4.8715e-05 0)
(0.00045706 4.5974e-05 0)
(0.000431272 4.33804e-05 0)
(0.000406881 4.09272e-05 0)
(0.000383811 3.86068e-05 0)
(0.000362 3.64131e-05 0)
(0.00034138 3.43391e-05 0)
(0.000321896 3.23793e-05 0)
(0.000303483 3.05272e-05 0)
(0.000286093 2.87779e-05 0)
(0.000269667 2.71256e-05 0)
(0.000254161 2.55657e-05 0)
(0.000239521 2.40931e-05 0)
(0.000225708 2.27035e-05 0)
(0.000212673 2.13922e-05 0)
(0.00020038 2.01554e-05 0)
(0.000188786 1.8989e-05 0)
(0.000177857 1.78895e-05 0)
(0.000167555 1.6853e-05 0)
(0.000157848 1.58764e-05 0)
(0.000148703 1.49562e-05 0)
(0.000140091 1.40897e-05 0)
(0.000131982 1.32738e-05 0)
(0.000124349 1.25058e-05 0)
(0.000117166 1.17829e-05 0)
(0.000110409 1.1103e-05 0)
(0.000104052 1.04634e-05 0)
(9.80766e-05 9.86204e-06 0)
(9.24582e-05 9.29665e-06 0)
(8.71794e-05 8.76542e-06 0)
(8.22191e-05 8.26623e-06 0)
(7.75612e-05 7.79746e-06 0)
(7.31868e-05 7.35722e-06 0)
(6.90815e-05 6.94405e-06 0)
(6.52283e-05 6.55625e-06 0)
(6.16143e-05 6.1925e-06 0)
(5.82243e-05 5.85131e-06 0)
(5.50465e-05 5.53146e-06 0)
(5.20676e-05 5.23162e-06 0)
(4.92768e-05 4.95072e-06 0)
(4.66623e-05 4.68755e-06 0)
(4.42145e-05 4.44116e-06 0)
(4.19227e-05 4.21047e-06 0)
(3.97784e-05 3.99462e-06 0)
(3.77721e-05 3.79266e-06 0)
(3.58961e-05 3.60381e-06 0)
(3.41419e-05 3.42723e-06 0)
(3.25028e-05 3.26222e-06 0)
(3.09712e-05 3.10804e-06 0)
(2.95409e-05 2.96406e-06 0)
(2.82054e-05 2.82961e-06 0)
(2.69591e-05 2.70415e-06 0)
(2.57962e-05 2.58708e-06 0)
(2.47117e-05 2.4779e-06 0)
(2.37006e-05 2.37611e-06 0)
(2.27582e-05 2.28124e-06 0)
(2.18803e-05 2.19285e-06 0)
(2.10626e-05 2.11054e-06 0)
(2.03014e-05 2.03391e-06 0)
(1.9593e-05 1.96259e-06 0)
(1.8934e-05 1.89625e-06 0)
(1.83211e-05 1.83456e-06 0)
(1.77515e-05 1.77721e-06 0)
(1.72221e-05 1.72393e-06 0)
(1.67305e-05 1.67444e-06 0)
(1.62739e-05 1.62848e-06 0)
(1.58502e-05 1.58584e-06 0)
(1.54571e-05 1.54627e-06 0)
(1.50926e-05 1.50958e-06 0)
(1.47547e-05 1.47557e-06 0)
(1.44415e-05 1.44406e-06 0)
(1.41515e-05 1.41487e-06 0)
(1.38829e-05 1.38785e-06 0)
(1.36343e-05 1.36284e-06 0)
(1.34044e-05 1.3397e-06 0)
(1.31917e-05 1.31831e-06 0)
(1.29951e-05 1.29853e-06 0)
(1.28134e-05 1.28026e-06 0)
(1.26456e-05 1.26338e-06 0)
(1.24906e-05 1.24779e-06 0)
(1.23476e-05 1.23341e-06 0)
(1.22156e-05 1.22014e-06 0)
(1.20938e-05 1.2079e-06 0)
(1.19814e-05 1.1966e-06 0)
(1.18778e-05 1.18619e-06 0)
(1.17823e-05 1.17659e-06 0)
(1.16942e-05 1.16775e-06 0)
(1.16129e-05 1.15959e-06 0)
(1.1538e-05 1.15207e-06 0)
(1.14689e-05 1.14514e-06 0)
(1.14051e-05 1.13874e-06 0)
(1.13462e-05 1.13283e-06 0)
(1.12917e-05 1.12737e-06 0)
(1.12413e-05 1.12231e-06 0)
(1.11945e-05 1.11763e-06 0)
(1.11511e-05 1.11328e-06 0)
(1.11106e-05 1.10922e-06 0)
(1.10727e-05 1.10544e-06 0)
(1.10372e-05 1.10188e-06 0)
(1.10037e-05 1.09853e-06 0)
(1.09719e-05 1.09535e-06 0)
(1.09415e-05 1.09231e-06 0)
(1.09122e-05 1.08939e-06 0)
(1.08839e-05 1.08655e-06 0)
(1.0856e-05 1.08377e-06 0)
(1.08285e-05 1.08101e-06 0)
(1.08009e-05 1.07826e-06 0)
(1.0773e-05 1.07546e-06 0)
(1.07445e-05 1.07261e-06 0)
(1.0715e-05 1.06965e-06 0)
(1.06844e-05 1.06659e-06 0)
(1.06515e-05 1.0633e-06 0)
(1.06182e-05 1.05996e-06 0)
(1.05796e-05 1.05612e-06 0)
(1.05436e-05 1.05249e-06 0)
(1.04968e-05 1.04786e-06 0)
(1.04588e-05 1.04401e-06 0)
(1.04019e-05 1.03839e-06 0)
(1.03628e-05 1.03442e-06 0)
(1.02965e-05 1.02787e-06 0)
(1.02579e-05 1.02393e-06 0)
(1.01876e-05 1.01701e-06 0)
(1.01517e-05 1.0133e-06 0)
(1.00911e-05 1.00734e-06 0)
(1.00609e-05 1.0043e-06 0)
(1.00307e-05 1.00127e-06 0)
(1.00121e-05 9.99549e-07 0)
(1.00092e-05 9.99197e-07 0)
(1.00103e-05 9.98331e-07 0)
(1.00567e-05 1.00349e-06 0)
(1.00777e-05 1.00477e-06 0)
(1.01398e-05 1.01139e-06 0)
(1.01759e-05 1.0145e-06 0)
(1.02407e-05 1.02131e-06 0)
(1.02852e-05 1.02546e-06 0)
(1.03445e-05 1.03165e-06 0)
(1.03918e-05 1.03621e-06 0)
(1.04419e-05 1.04145e-06 0)
(1.04891e-05 1.04605e-06 0)
(1.05295e-05 1.05029e-06 0)
(1.05768e-05 1.05489e-06 0)
(1.06077e-05 1.05817e-06 0)
(1.06594e-05 1.06316e-06 0)
(1.06814e-05 1.06546e-06 0)
(1.07519e-05 1.07228e-06 0)
(1.07658e-05 1.07303e-06 0)
(1.09499e-05 1.09112e-06 0)
(1.09595e-05 1.06452e-06 0)
(1.61619e-05 1.58458e-06 0)
(0.00112924 0.000114897 0)
(0.00106844 0.000108718 0)
(0.00101073 0.000102853 0)
(0.000955965 9.72867e-05 0)
(0.000904011 9.20054e-05 0)
(0.000854724 8.69951e-05 0)
(0.000807985 8.22433e-05 0)
(0.000763664 7.77372e-05 0)
(0.000721651 7.34653e-05 0)
(0.000681829 6.94161e-05 0)
(0.000644096 6.55788e-05 0)
(0.000608347 6.19431e-05 0)
(0.000574486 5.84992e-05 0)
(0.00054242 5.52376e-05 0)
(0.000512061 5.21495e-05 0)
(0.000483323 4.9226e-05 0)
(0.000456128 4.64592e-05 0)
(0.000430396 4.38412e-05 0)
(0.000406057 4.13646e-05 0)
(0.000383037 3.90221e-05 0)
(0.000361274 3.68072e-05 0)
(0.000340699 3.47132e-05 0)
(0.000321256 3.27342e-05 0)
(0.000302884 3.08641e-05 0)
(0.000285531 2.90975e-05 0)
(0.000269141 2.74289e-05 0)
(0.000253668 2.58535e-05 0)
(0.000239061 2.43661e-05 0)
(0.000225277 2.29624e-05 0)
(0.000212271 2.16378e-05 0)
(0.000200005 2.03884e-05 0)
(0.000188436 1.921e-05 0)
(0.000177531 1.80991e-05 0)
(0.000167251 1.70518e-05 0)
(0.000157565 1.60649e-05 0)
(0.00014844 1.51351e-05 0)
(0.000139847 1.42593e-05 0)
(0.000131755 1.34346e-05 0)
(0.00012414 1.26584e-05 0)
(0.000116972 1.19277e-05 0)
(0.00011023 1.12403e-05 0)
(0.000103887 1.05936e-05 0)
(9.79246e-05 9.9856e-06 0)
(9.23186e-05 9.4139e-06 0)
(8.70514e-05 8.87667e-06 0)
(8.2102e-05 8.37181e-06 0)
(7.74543e-05 7.89767e-06 0)
(7.30896e-05 7.45235e-06 0)
(6.89932e-05 7.03436e-06 0)
(6.51486e-05 6.64202e-06 0)
(6.15425e-05 6.27396e-06 0)
(5.816e-05 5.92869e-06 0)
(5.49892e-05 5.60498e-06 0)
(5.20169e-05 5.30151e-06 0)
(4.92323e-05 5.01715e-06 0)
(4.66236e-05 4.75074e-06 0)
(4.41812e-05 4.50126e-06 0)
(4.18945e-05 4.26766e-06 0)
(3.9755e-05 4.04906e-06 0)
(3.77531e-05 3.8445e-06 0)
(3.58813e-05 3.65319e-06 0)
(3.4131e-05 3.47429e-06 0)
(3.24956e-05 3.30709e-06 0)
(3.09674e-05 3.15084e-06 0)
(2.95403e-05 3.0049e-06 0)
(2.82078e-05 2.86861e-06 0)
(2.69643e-05 2.7414e-06 0)
(2.5804e-05 2.62269e-06 0)
(2.4722e-05 2.51195e-06 0)
(2.37131e-05 2.40869e-06 0)
(2.27728e-05 2.31244e-06 0)
(2.18968e-05 2.22274e-06 0)
(2.1081e-05 2.13919e-06 0)
(2.03215e-05 2.06139e-06 0)
(1.96147e-05 1.98898e-06 0)
(1.89572e-05 1.9216e-06 0)
(1.83458e-05 1.85893e-06 0)
(1.77774e-05 1.80065e-06 0)
(1.72493e-05 1.74649e-06 0)
(1.67587e-05 1.69618e-06 0)
(1.63032e-05 1.64944e-06 0)
(1.58805e-05 1.60606e-06 0)
(1.54883e-05 1.5658e-06 0)
(1.51246e-05 1.52845e-06 0)
(1.47874e-05 1.49382e-06 0)
(1.4475e-05 1.46172e-06 0)
(1.41856e-05 1.43198e-06 0)
(1.39177e-05 1.40444e-06 0)
(1.36697e-05 1.37893e-06 0)
(1.34403e-05 1.35533e-06 0)
(1.32281e-05 1.3335e-06 0)
(1.30319e-05 1.3133e-06 0)
(1.28507e-05 1.29464e-06 0)
(1.26833e-05 1.27739e-06 0)
(1.25287e-05 1.26145e-06 0)
(1.23859e-05 1.24674e-06 0)
(1.22542e-05 1.23315e-06 0)
(1.21327e-05 1.22061e-06 0)
(1.20206e-05 1.20905e-06 0)
(1.19173e-05 1.19837e-06 0)
(1.1822e-05 1.18853e-06 0)
(1.17341e-05 1.17945e-06 0)
(1.1653e-05 1.17107e-06 0)
(1.15783e-05 1.16334e-06 0)
(1.15094e-05 1.15621e-06 0)
(1.14457e-05 1.14962e-06 0)
(1.1387e-05 1.14354e-06 0)
(1.13326e-05 1.13792e-06 0)
(1.12823e-05 1.13271e-06 0)
(1.12356e-05 1.12789e-06 0)
(1.11923e-05 1.1234e-06 0)
(1.11519e-05 1.11923e-06 0)
(1.11141e-05 1.11533e-06 0)
(1.10787e-05 1.11168e-06 0)
(1.10452e-05 1.10824e-06 0)
(1.10135e-05 1.10499e-06 0)
(1.09832e-05 1.1019e-06 0)
(1.0954e-05 1.09893e-06 0)
(1.09256e-05 1.09606e-06 0)
(1.08979e-05 1.09326e-06 0)
(1.08704e-05 1.09051e-06 0)
(1.08429e-05 1.08776e-06 0)
(1.0815e-05 1.08501e-06 0)
(1.07866e-05 1.0822e-06 0)
(1.0757e-05 1.07932e-06 0)
(1.07265e-05 1.07631e-06 0)
(1.06936e-05 1.07319e-06 0)
(1.06603e-05 1.06982e-06 0)
(1.06218e-05 1.06634e-06 0)
(1.05859e-05 1.06249e-06 0)
(1.05391e-05 1.05847e-06 0)
(1.05011e-05 1.05413e-06 0)
(1.04443e-05 1.0494e-06 0)
(1.04053e-05 1.04463e-06 0)
(1.0339e-05 1.03921e-06 0)
(1.03006e-05 1.03409e-06 0)
(1.02303e-05 1.02849e-06 0)
(1.01945e-05 1.02308e-06 0)
(1.0134e-05 1.0186e-06 0)
(1.01039e-05 1.01291e-06 0)
(1.0074e-05 1.01166e-06 0)
(1.00552e-05 1.00709e-06 0)
(1.00524e-05 1.00822e-06 0)
(1.00537e-05 1.00692e-06 0)
(1.00999e-05 1.01188e-06 0)
(1.0121e-05 1.01341e-06 0)
(1.0183e-05 1.02002e-06 0)
(1.02191e-05 1.02311e-06 0)
(1.02838e-05 1.02998e-06 0)
(1.03282e-05 1.03406e-06 0)
(1.03874e-05 1.0403e-06 0)
(1.04346e-05 1.04482e-06 0)
(1.04847e-05 1.05007e-06 0)
(1.05318e-05 1.05465e-06 0)
(1.05721e-05 1.05887e-06 0)
(1.06194e-05 1.06348e-06 0)
(1.06502e-05 1.06673e-06 0)
(1.07019e-05 1.07176e-06 0)
(1.07238e-05 1.07406e-06 0)
(1.07942e-05 1.08089e-06 0)
(1.08083e-05 1.08159e-06 0)
(1.09915e-05 1.0995e-06 0)
(1.10089e-05 1.02982e-06 0)
(1.64677e-05 1.57526e-06 0)
(0.00112779 0.000116002 0)
(0.00106705 0.000109765 0)
(0.0010094 0.000103843 0)
(0.000954693 9.82236e-05 0)
(0.00090279 9.28914e-05 0)
(0.000853553 8.78328e-05 0)
(0.00080686 8.30349e-05 0)
(0.000762584 7.84851e-05 0)
(0.000720612 7.41714e-05 0)
(0.000680831 7.00826e-05 0)
(0.000643135 6.62075e-05 0)
(0.000607421 6.25361e-05 0)
(0.000573595 5.9058e-05 0)
(0.00054156 5.57641e-05 0)
(0.000511232 5.2645e-05 0)
(0.000482523 4.96924e-05 0)
(0.000455356 4.68978e-05 0)
(0.000429649 4.42534e-05 0)
(0.000405335 4.17517e-05 0)
(0.000382338 3.93855e-05 0)
(0.000360596 3.7148e-05 0)
(0.000340042 3.50327e-05 0)
(0.000320619 3.30334e-05 0)
(0.000302266 3.11441e-05 0)
(0.00028493 2.93592e-05 0)
(0.000268557 2.76734e-05 0)
(0.0002531 2.60815e-05 0)
(0.000238507 2.45786e-05 0)
(0.000224737 2.31603e-05 0)
(0.000211745 2.18218e-05 0)
(0.000199491 2.05593e-05 0)
(0.000187934 1.93685e-05 0)
(0.000177039 1.82457e-05 0)
(0.00016677 1.71873e-05 0)
(0.000157095 1.61899e-05 0)
(0.000147979 1.52502e-05 0)
(0.000139395 1.4365e-05 0)
(0.000131311 1.35315e-05 0)
(0.000123703 1.27468e-05 0)
(0.000116543 1.20083e-05 0)
(0.000109807 1.13134e-05 0)
(0.000103471 1.06598e-05 0)
(9.75148e-05 1.00451e-05 0)
(9.19146e-05 9.46718e-06 0)
(8.66528e-05 8.92406e-06 0)
(8.17085e-05 8.41368e-06 0)
(7.70656e-05 7.93432e-06 0)
(7.27054e-05 7.48412e-06 0)
(6.86133e-05 7.06151e-06 0)
(6.47727e-05 6.66484e-06 0)
(6.11702e-05 6.2927e-06 0)
(5.77913e-05 5.94362e-06 0)
(5.46238e-05 5.61631e-06 0)
(5.16546e-05 5.30947e-06 0)
(4.88728e-05 5.02195e-06 0)
(4.62669e-05 4.75258e-06 0)
(4.38269e-05 4.50031e-06 0)
(4.15427e-05 4.26412e-06 0)
(3.94053e-05 4.04308e-06 0)
(3.74056e-05 3.83624e-06 0)
(3.55357e-05 3.6428e-06 0)
(3.37873e-05 3.46191e-06 0)
(3.21535e-05 3.29285e-06 0)
(3.06269e-05 3.13486e-06 0)
(2.92013e-05 2.9873e-06 0)
(2.78702e-05 2.8495e-06 0)
(2.6628e-05 2.72088e-06 0)
(2.54689e-05 2.60086e-06 0)
(2.4388e-05 2.48891e-06 0)
(2.33802e-05 2.38451e-06 0)
(2.24409e-05 2.28721e-06 0)
(2.15659e-05 2.19654e-06 0)
(2.07509e-05 2.11208e-06 0)
(1.99922e-05 2.03345e-06 0)
(1.92861e-05 1.96026e-06 0)
(1.86293e-05 1.89216e-06 0)
(1.80185e-05 1.82883e-06 0)
(1.74507e-05 1.76994e-06 0)
(1.69231e-05 1.71522e-06 0)
(1.64331e-05 1.66439e-06 0)
(1.59781e-05 1.61719e-06 0)
(1.55558e-05 1.57337e-06 0)
(1.5164e-05 1.53271e-06 0)
(1.48007e-05 1.495e-06 0)
(1.44639e-05 1.46004e-06 0)
(1.41518e-05 1.42764e-06 0)
(1.38627e-05 1.39763e-06 0)
(1.35951e-05 1.36984e-06 0)
(1.33473e-05 1.34411e-06 0)
(1.31181e-05 1.32031e-06 0)
(1.29062e-05 1.2983e-06 0)
(1.27102e-05 1.27794e-06 0)
(1.25292e-05 1.25914e-06 0)
(1.23619e-05 1.24176e-06 0)
(1.22075e-05 1.22572e-06 0)
(1.20649e-05 1.2109e-06 0)
(1.19333e-05 1.19724e-06 0)
(1.18119e-05 1.18462e-06 0)
(1.17e-05 1.17299e-06 0)
(1.15967e-05 1.16227e-06 0)
(1.15015e-05 1.15238e-06 0)
(1.14137e-05 1.14326e-06 0)
(1.13327e-05 1.13486e-06 0)
(1.12581e-05 1.12711e-06 0)
(1.11892e-05 1.11997e-06 0)
(1.11256e-05 1.11338e-06 0)
(1.10669e-05 1.1073e-06 0)
(1.10126e-05 1.10168e-06 0)
(1.09624e-05 1.09648e-06 0)
(1.09157e-05 1.09167e-06 0)
(1.08724e-05 1.0872e-06 0)
(1.08321e-05 1.08304e-06 0)
(1.07943e-05 1.07916e-06 0)
(1.07589e-05 1.07553e-06 0)
(1.07255e-05 1.07211e-06 0)
(1.06938e-05 1.06887e-06 0)
(1.06635e-05 1.06579e-06 0)
(1.06343e-05 1.06283e-06 0)
(1.0606e-05 1.05997e-06 0)
(1.05783e-05 1.05718e-06 0)
(1.05508e-05 1.05443e-06 0)
(1.05233e-05 1.05168e-06 0)
(1.04955e-05 1.04892e-06 0)
(1.0467e-05 1.0461e-06 0)
(1.04375e-05 1.0432e-06 0)
(1.0407e-05 1.04018e-06 0)
(1.03742e-05 1.03704e-06 0)
(1.03409e-05 1.03366e-06 0)
(1.03024e-05 1.03016e-06 0)
(1.02665e-05 1.02631e-06 0)
(1.02198e-05 1.02228e-06 0)
(1.01818e-05 1.01794e-06 0)
(1.0125e-05 1.01321e-06 0)
(1.0086e-05 1.00844e-06 0)
(1.00198e-05 1.00304e-06 0)
(9.98136e-06 9.97911e-07 0)
(9.91119e-06 9.92345e-07 0)
(9.87542e-06 9.86945e-07 0)
(9.81494e-06 9.82463e-07 0)
(9.78484e-06 9.77151e-07 0)
(9.75502e-06 9.75573e-07 0)
(9.73615e-06 9.71619e-07 0)
(9.73347e-06 9.72496e-07 0)
(9.73496e-06 9.69087e-07 0)
(9.78118e-06 9.75312e-07 0)
(9.8023e-06 9.74899e-07 0)
(9.8643e-06 9.82463e-07 0)
(9.90036e-06 9.84369e-07 0)
(9.96506e-06 9.92008e-07 0)
(1.00095e-05 9.95385e-07 0)
(1.00686e-05 1.00226e-06 0)
(1.01158e-05 1.00635e-06 0)
(1.01658e-05 1.01213e-06 0)
(1.02128e-05 1.01643e-06 0)
(1.02531e-05 1.02112e-06 0)
(1.03003e-05 1.02543e-06 0)
(1.03311e-05 1.02912e-06 0)
(1.03827e-05 1.03373e-06 0)
(1.04047e-05 1.03625e-06 0)
(1.04751e-05 1.04253e-06 0)
(1.04893e-05 1.04178e-06 0)
(1.06725e-05 1.05884e-06 0)
(1.06972e-05 9.25609e-07 0)
(1.62654e-05 1.48135e-06 0)
(0.00112602 0.0001171 0)
(0.00106532 0.0001108 0)
(0.00100769 0.00010482 0)
(0.000953013 9.9144e-05 0)
(0.000901136 9.37583e-05 0)
(0.000851923 8.86489e-05 0)
(0.000805254 8.38024e-05 0)
(0.000761 7.92066e-05 0)
(0.00071905 7.48489e-05 0)
(0.000679289 7.07184e-05 0)
(0.000641612 6.68036e-05 0)
(0.000605916 6.30945e-05 0)
(0.000572107 5.95805e-05 0)
(0.000540089 5.62525e-05 0)
(0.000509776 5.3101e-05 0)
(0.000481082 5.01176e-05 0)
(0.000453928 4.72937e-05 0)
(0.000428235 4.46215e-05 0)
(0.000403933 4.20934e-05 0)
(0.000380948 3.97022e-05 0)
(0.000359218 3.7441e-05 0)
(0.000338674 3.53031e-05 0)
(0.000319261 3.32823e-05 0)
(0.000300917 3.13727e-05 0)
(0.000283591 2.95686e-05 0)
(0.000267226 2.78646e-05 0)
(0.000251777 2.62554e-05 0)
(0.000237192 2.47361e-05 0)
(0.000223429 2.33022e-05 0)
(0.000210444 2.19491e-05 0)
(0.000198196 2.06726e-05 0)
(0.000186645 1.94686e-05 0)
(0.000175756 1.83334e-05 0)
(0.000165493 1.72632e-05 0)
(0.000155822 1.62546e-05 0)
(0.000146711 1.53043e-05 0)
(0.000138132 1.44092e-05 0)
(0.000130052 1.35663e-05 0)
(0.000122448 1.27727e-05 0)
(0.000115292 1.20257e-05 0)
(0.00010856 1.13229e-05 0)
(0.000102228 1.06617e-05 0)
(9.62741e-05 1.00399e-05 0)
(9.06771e-05 9.45533e-06 0)
(8.5418e-05 8.90589e-06 0)
(8.04765e-05 8.38957e-06 0)
(7.5836e-05 7.90458e-06 0)
(7.14782e-05 7.44908e-06 0)
(6.73883e-05 7.02148e-06 0)
(6.35498e-05 6.62011e-06 0)
(5.99493e-05 6.24354e-06 0)
(5.65722e-05 5.89029e-06 0)
(5.34064e-05 5.55905e-06 0)
(5.04389e-05 5.24852e-06 0)
(4.76586e-05 4.95752e-06 0)
(4.50542e-05 4.68488e-06 0)
(4.26155e-05 4.42954e-06 0)
(4.03326e-05 4.19046e-06 0)
(3.81964e-05 3.96669e-06 0)
(3.61978e-05 3.75731e-06 0)
(3.43289e-05 3.56147e-06 0)
(3.25815e-05 3.37833e-06 0)
(3.09486e-05 3.20715e-06 0)
(2.94229e-05 3.04719e-06 0)
(2.79981e-05 2.89776e-06 0)
(2.66677e-05 2.75822e-06 0)
(2.54262e-05 2.62797e-06 0)
(2.42678e-05 2.50641e-06 0)
(2.31875e-05 2.39302e-06 0)
(2.21803e-05 2.28729e-06 0)
(2.12416e-05 2.18872e-06 0)
(2.0367e-05 2.09687e-06 0)
(1.95525e-05 2.01131e-06 0)
(1.87942e-05 1.93164e-06 0)
(1.80886e-05 1.85749e-06 0)
(1.74321e-05 1.78849e-06 0)
(1.68217e-05 1.72431e-06 0)
(1.62542e-05 1.66464e-06 0)
(1.57269e-05 1.60918e-06 0)
(1.52372e-05 1.55766e-06 0)
(1.47825e-05 1.50981e-06 0)
(1.43604e-05 1.46539e-06 0)
(1.39689e-05 1.42418e-06 0)
(1.36058e-05 1.38594e-06 0)
(1.32691e-05 1.35049e-06 0)
(1.29572e-05 1.31764e-06 0)
(1.26683e-05 1.2872e-06 0)
(1.24008e-05 1.25901e-06 0)
(1.21532e-05 1.23292e-06 0)
(1.19242e-05 1.20877e-06 0)
(1.17124e-05 1.18644e-06 0)
(1.15165e-05 1.16578e-06 0)
(1.13356e-05 1.1467e-06 0)
(1.11684e-05 1.12906e-06 0)
(1.10141e-05 1.11278e-06 0)
(1.08716e-05 1.09774e-06 0)
(1.07401e-05 1.08387e-06 0)
(1.06188e-05 1.07106e-06 0)
(1.05069e-05 1.05925e-06 0)
(1.04037e-05 1.04836e-06 0)
(1.03085e-05 1.03832e-06 0)
(1.02208e-05 1.02906e-06 0)
(1.01399e-05 1.02053e-06 0)
(1.00653e-05 1.01266e-06 0)
(9.99645e-06 1.0054e-06 0)
(9.93292e-06 9.98701e-07 0)
(9.87423e-06 9.92518e-07 0)
(9.81997e-06 9.86807e-07 0)
(9.76974e-06 9.81525e-07 0)
(9.72315e-06 9.76632e-07 0)
(9.67986e-06 9.72092e-07 0)
(9.63952e-06 9.6787e-07 0)
(9.6018e-06 9.63932e-07 0)
(9.56639e-06 9.60245e-07 0)
(9.53299e-06 9.5678e-07 0)
(9.5013e-06 9.53505e-07 0)
(9.47103e-06 9.50392e-07 0)
(9.44189e-06 9.47412e-07 0)
(9.41359e-06 9.44536e-07 0)
(9.38586e-06 9.41735e-07 0)
(9.35839e-06 9.38982e-07 0)
(9.33091e-06 9.36244e-07 0)
(9.30308e-06 9.335e-07 0)
(9.27465e-06 9.30705e-07 0)
(9.24513e-06 9.27848e-07 0)
(9.21464e-06 9.24856e-07 0)
(9.18178e-06 9.21792e-07 0)
(9.14854e-06 9.18412e-07 0)
(9.11007e-06 9.15077e-07 0)
(9.07411e-06 9.11127e-07 0)
(9.02742e-06 9.07393e-07 0)
(8.98941e-06 9.02828e-07 0)
(8.93264e-06 8.98531e-07 0)
(8.89369e-06 8.93371e-07 0)
(8.82742e-06 8.88544e-07 0)
(8.78904e-06 8.82807e-07 0)
(8.7189e-06 8.77921e-07 0)
(8.68316e-06 8.71657e-07 0)
(8.62274e-06 8.67904e-07 0)
(8.59268e-06 8.61326e-07 0)
(8.56298e-06 8.60531e-07 0)
(8.54409e-06 8.54787e-07 0)
(8.54138e-06 8.56683e-07 0)
(8.54302e-06 8.52288e-07 0)
(8.58926e-06 8.59014e-07 0)
(8.61039e-06 8.57848e-07 0)
(8.67242e-06 8.65901e-07 0)
(8.70847e-06 8.6721e-07 0)
(8.77317e-06 8.75295e-07 0)
(8.81754e-06 8.78259e-07 0)
(8.87664e-06 8.85506e-07 0)
(8.9238e-06 8.89347e-07 0)
(8.9738e-06 8.9541e-07 0)
(9.02083e-06 8.99547e-07 0)
(9.06105e-06 9.04469e-07 0)
(9.10824e-06 9.0864e-07 0)
(9.13897e-06 9.12523e-07 0)
(9.19063e-06 9.16966e-07 0)
(9.21253e-06 9.19622e-07 0)
(9.28284e-06 9.25645e-07 0)
(9.29729e-06 9.24201e-07 0)
(9.47963e-06 9.40609e-07 0)
(9.50999e-06 7.51225e-07 0)
(1.45425e-05 1.25274e-06 0)
(0.00112353 0.00011814 0)
(0.00106284 0.000111777 0)
(0.00100523 0.000105735 0)
(0.00095057 0.000100002 0)
(0.000898709 9.45609e-05 0)
(0.000849512 8.93991e-05 0)
(0.000802857 8.45026e-05 0)
(0.000758618 7.98592e-05 0)
(0.000716681 7.54562e-05 0)
(0.000676933 7.12827e-05 0)
(0.000639268 6.73268e-05 0)
(0.000603584 6.35787e-05 0)
(0.000569785 6.00276e-05 0)
(0.000537778 5.66643e-05 0)
(0.000507475 5.34793e-05 0)
(0.00047879 5.0464e-05 0)
(0.000451645 4.76098e-05 0)
(0.000425961 4.49089e-05 0)
(0.000401667 4.23534e-05 0)
(0.000378689 3.99363e-05 0)
(0.000356966 3.76503e-05 0)
(0.00033643 3.54891e-05 0)
(0.000317023 3.34461e-05 0)
(0.000298685 3.15155e-05 0)
(0.000281365 2.96913e-05 0)
(0.000265005 2.79683e-05 0)
(0.000249561 2.63411e-05 0)
(0.000234981 2.48049e-05 0)
(0.000221223 2.33548e-05 0)
(0.000208242 2.19864e-05 0)
(0.000195999 2.06954e-05 0)
(0.000184452 1.94777e-05 0)
(0.000173567 1.83294e-05 0)
(0.000163307 1.72469e-05 0)
(0.00015364 1.62267e-05 0)
(0.000144532 1.52654e-05 0)
(0.000135955 1.43598e-05 0)
(0.000127879 1.3507e-05 0)
(0.000120278 1.27041e-05 0)
(0.000113124 1.19483e-05 0)
(0.000106394 1.12372e-05 0)
(0.000100064 1.05681e-05 0)
(9.41125e-05 9.93893e-06 0)
(8.85174e-05 9.34732e-06 0)
(8.32602e-05 8.79124e-06 0)
(7.83205e-05 8.26868e-06 0)
(7.36816e-05 7.77778e-06 0)
(6.93255e-05 7.31674e-06 0)
(6.5237e-05 6.88388e-06 0)
(6.13999e-05 6.47758e-06 0)
(5.78007e-05 6.09634e-06 0)
(5.44249e-05 5.73871e-06 0)
(5.12602e-05 5.40334e-06 0)
(4.82938e-05 5.08892e-06 0)
(4.55146e-05 4.79425e-06 0)
(4.29111e-05 4.51817e-06 0)
(4.04734e-05 4.25958e-06 0)
(3.81913e-05 4.01746e-06 0)
(3.60559e-05 3.79083e-06 0)
(3.4058e-05 3.57876e-06 0)
(3.21898e-05 3.38039e-06 0)
(3.04431e-05 3.19488e-06 0)
(2.88108e-05 3.02148e-06 0)
(2.72857e-05 2.85942e-06 0)
(2.58615e-05 2.70804e-06 0)
(2.45316e-05 2.56666e-06 0)
(2.32906e-05 2.43468e-06 0)
(2.21326e-05 2.31152e-06 0)
(2.10528e-05 2.19662e-06 0)
(2.00459e-05 2.08946e-06 0)
(1.91075e-05 1.98958e-06 0)
(1.82333e-05 1.89649e-06 0)
(1.74192e-05 1.80978e-06 0)
(1.66612e-05 1.72903e-06 0)
(1.59558e-05 1.65386e-06 0)
(1.52996e-05 1.58392e-06 0)
(1.46894e-05 1.51887e-06 0)
(1.41222e-05 1.45838e-06 0)
(1.35951e-05 1.40216e-06 0)
(1.31056e-05 1.34992e-06 0)
(1.2651e-05 1.30141e-06 0)
(1.22292e-05 1.25638e-06 0)
(1.18378e-05 1.21459e-06 0)
(1.14748e-05 1.17583e-06 0)
(1.11383e-05 1.13989e-06 0)
(1.08266e-05 1.10657e-06 0)
(1.05378e-05 1.07571e-06 0)
(1.02704e-05 1.04713e-06 0)
(1.00229e-05 1.02067e-06 0)
(9.79393e-06 9.96189e-07 0)
(9.5822e-06 9.73545e-07 0)
(9.38645e-06 9.52607e-07 0)
(9.20558e-06 9.33257e-07 0)
(9.03849e-06 9.1538e-07 0)
(8.8842e-06 8.98871e-07 0)
(8.74177e-06 8.83629e-07 0)
(8.61033e-06 8.69563e-07 0)
(8.48907e-06 8.56585e-07 0)
(8.37722e-06 8.44617e-07 0)
(8.27407e-06 8.33579e-07 0)
(8.17895e-06 8.23404e-07 0)
(8.09125e-06 8.14024e-07 0)
(8.01038e-06 8.05379e-07 0)
(7.9358e-06 7.9741e-07 0)
(7.86699e-06 7.90063e-07 0)
(7.80349e-06 7.83288e-07 0)
(7.74482e-06 7.77035e-07 0)
(7.69059e-06 7.71262e-07 0)
(7.64037e-06 7.65925e-07 0)
(7.59381e-06 7.60986e-07 0)
(7.55053e-06 7.56405e-07 0)
(7.5102e-06 7.52149e-07 0)
(7.4725e-06 7.48182e-07 0)
(7.4371e-06 7.44471e-07 0)
(7.40371e-06 7.40986e-07 0)
(7.37202e-06 7.37695e-07 0)
(7.34176e-06 7.34569e-07 0)
(7.31263e-06 7.31578e-07 0)
(7.28434e-06 7.28695e-07 0)
(7.25661e-06 7.25889e-07 0)
(7.22915e-06 7.23134e-07 0)
(7.20167e-06 7.20394e-07 0)
(7.17385e-06 7.17652e-07 0)
(7.14541e-06 7.14861e-07 0)
(7.1159e-06 7.12016e-07 0)
(7.08541e-06 7.09026e-07 0)
(7.05255e-06 7.06004e-07 0)
(7.01931e-06 7.02595e-07 0)
(6.98083e-06 6.99372e-07 0)
(6.94487e-06 6.95331e-07 0)
(6.89818e-06 6.91798e-07 0)
(6.86017e-06 6.87064e-07 0)
(6.80339e-06 6.83057e-07 0)
(6.76444e-06 6.77641e-07 0)
(6.69817e-06 6.73175e-07 0)
(6.65979e-06 6.67065e-07 0)
(6.58965e-06 6.62612e-07 0)
(6.55393e-06 6.55796e-07 0)
(6.49352e-06 6.52517e-07 0)
(6.46349e-06 6.45327e-07 0)
(6.43382e-06 6.44881e-07 0)
(6.41491e-06 6.39058e-07 0)
(6.41235e-06 6.40934e-07 0)
(6.41407e-06 6.34959e-07 0)
(6.46037e-06 6.423e-07 0)
(6.48154e-06 6.40083e-07 0)
(6.54359e-06 6.48623e-07 0)
(6.57965e-06 6.49289e-07 0)
(6.64436e-06 6.57782e-07 0)
(6.68871e-06 6.60375e-07 0)
(6.74781e-06 6.67962e-07 0)
(6.79494e-06 6.7159e-07 0)
(6.84494e-06 6.77946e-07 0)
(6.89194e-06 6.8194e-07 0)
(6.93214e-06 6.87123e-07 0)
(6.97931e-06 6.9114e-07 0)
(7.01003e-06 6.95257e-07 0)
(7.06169e-06 6.99484e-07 0)
(7.08359e-06 7.02222e-07 0)
(7.15388e-06 7.07948e-07 0)
(7.16852e-06 7.05509e-07 0)
(7.34976e-06 7.21125e-07 0)
(7.38313e-06 4.87163e-07 0)
(1.11858e-05 8.65035e-07 0)
(0.00112074 0.000119176 0)
(0.00106007 0.000112749 0)
(0.00100248 0.000106646 0)
(0.000947831 0.000100854 0)
(0.000895983 9.53574e-05 0)
(0.0008468 9.01425e-05 0)
(0.000800157 8.51954e-05 0)
(0.000755929 8.05039e-05 0)
(0.000714003 7.60551e-05 0)
(0.000674264 7.1838e-05 0)
(0.000636609 6.78406e-05 0)
(0.000600935 6.4053e-05 0)
(0.000567145 6.04643e-05 0)
(0.000535146 5.70654e-05 0)
(0.000504851 5.38463e-05 0)
(0.000476174 5.07988e-05 0)
(0.000449036 4.79138e-05 0)
(0.000423359 4.51838e-05 0)
(0.000399071 4.26006e-05 0)
(0.0003761 4.01571e-05 0)
(0.000354383 3.78461e-05 0)
(0.000333852 3.56612e-05 0)
(0.000314451 3.35956e-05 0)
(0.000296118 3.16436e-05 0)
(0.000278802 2.97992e-05 0)
(0.000262447 2.80569e-05 0)
(0.000247007 2.64114e-05 0)
(0.000232431 2.48579e-05 0)
(0.000218677 2.33913e-05 0)
(0.0002057 2.20074e-05 0)
(0.00019346 2.07015e-05 0)
(0.000181916 1.94699e-05 0)
(0.000171034 1.83083e-05 0)
(0.000160777 1.72133e-05 0)
(0.000151113 1.61812e-05 0)
(0.000142008 1.52086e-05 0)
(0.000133433 1.42924e-05 0)
(0.000125359 1.34295e-05 0)
(0.00011776 1.2617e-05 0)
(0.000110608 1.18522e-05 0)
(0.000103881 1.11325e-05 0)
(9.75524e-05 1.04554e-05 0)
(9.16028e-05 9.81856e-06 0)
(8.60094e-05 9.21974e-06 0)
(8.07538e-05 8.65683e-06 0)
(7.58155e-05 8.12783e-06 0)
(7.11781e-05 7.63085e-06 0)
(6.68233e-05 7.16406e-06 0)
(6.2736e-05 6.72577e-06 0)
(5.89002e-05 6.31435e-06 0)
(5.5302e-05 5.92827e-06 0)
(5.19273e-05 5.56608e-06 0)
(4.87636e-05 5.2264e-06 0)
(4.57981e-05 4.90793e-06 0)
(4.30197e-05 4.60943e-06 0)
(4.04171e-05 4.32975e-06 0)
(3.79801e-05 4.06776e-06 0)
(3.56988e-05 3.82244e-06 0)
(3.3564e-05 3.59279e-06 0)
(3.15669e-05 3.37788e-06 0)
(2.96992e-05 3.17683e-06 0)
(2.79531e-05 2.9888e-06 0)
(2.63213e-05 2.81302e-06 0)
(2.47967e-05 2.64873e-06 0)
(2.3373e-05 2.49525e-06 0)
(2.20436e-05 2.3519e-06 0)
(2.08029e-05 2.21806e-06 0)
(1.96454e-05 2.09315e-06 0)
(1.85659e-05 1.97661e-06 0)
(1.75593e-05 1.86791e-06 0)
(1.66213e-05 1.76657e-06 0)
(1.57474e-05 1.67212e-06 0)
(1.49335e-05 1.58413e-06 0)
(1.41758e-05 1.50217e-06 0)
(1.34707e-05 1.42588e-06 0)
(1.28147e-05 1.35488e-06 0)
(1.22047e-05 1.28883e-06 0)
(1.16377e-05 1.2274e-06 0)
(1.11109e-05 1.1703e-06 0)
(1.06215e-05 1.11725e-06 0)
(1.01671e-05 1.06797e-06 0)
(9.74539e-06 1.02221e-06 0)
(9.35414e-06 9.7974e-07 0)
(8.99132e-06 9.4034e-07 0)
(8.65497e-06 9.038e-07 0)
(8.34331e-06 8.69927e-07 0)
(8.05462e-06 8.38538e-07 0)
(7.78734e-06 8.09465e-07 0)
(7.53995e-06 7.82545e-07 0)
(7.31109e-06 7.5763e-07 0)
(7.09944e-06 7.34579e-07 0)
(6.90377e-06 7.13262e-07 0)
(6.72298e-06 6.93556e-07 0)
(6.55595e-06 6.75345e-07 0)
(6.40173e-06 6.58524e-07 0)
(6.25935e-06 6.4299e-07 0)
(6.12797e-06 6.28651e-07 0)
(6.00676e-06 6.15418e-07 0)
(5.89495e-06 6.03212e-07 0)
(5.79185e-06 5.91952e-07 0)
(5.69677e-06 5.8157e-07 0)
(5.60911e-06 5.71995e-07 0)
(5.52828e-06 5.63168e-07 0)
(5.45373e-06 5.55028e-07 0)
(5.38495e-06 5.47521e-07 0)
(5.32148e-06 5.40597e-07 0)
(5.26284e-06 5.34205e-07 0)
(5.20863e-06 5.28303e-07 0)
(5.15843e-06 5.22847e-07 0)
(5.11189e-06 5.17797e-07 0)
(5.06863e-06 5.13114e-07 0)
(5.02832e-06 5.08764e-07 0)
(4.99063e-06 5.04713e-07 0)
(4.95525e-06 5.00927e-07 0)
(4.92187e-06 4.97376e-07 0)
(4.89019e-06 4.94029e-07 0)
(4.85994e-06 4.90856e-07 0)
(4.83081e-06 4.8783e-07 0)
(4.80253e-06 4.84922e-07 0)
(4.77481e-06 4.82101e-07 0)
(4.74734e-06 4.79345e-07 0)
(4.71986e-06 4.76613e-07 0)
(4.69204e-06 4.73895e-07 0)
(4.6636e-06 4.71133e-07 0)
(4.63408e-06 4.68342e-07 0)
(4.60359e-06 4.65389e-07 0)
(4.57071e-06 4.62479e-07 0)
(4.53746e-06 4.59062e-07 0)
(4.49897e-06 4.56067e-07 0)
(4.463e-06 4.51904e-07 0)
(4.4163e-06 4.48754e-07 0)
(4.37827e-06 4.43747e-07 0)
(4.32149e-06 4.4028e-07 0)
(4.28252e-06 4.34396e-07 0)
(4.21625e-06 4.30624e-07 0)
(4.17786e-06 4.23787e-07 0)
(4.10774e-06 4.20135e-07 0)
(4.07203e-06 4.12255e-07 0)
(4.01168e-06 4.09845e-07 0)
(3.98169e-06 4.00988e-07 0)
(3.95212e-06 4.01544e-07 0)
(3.93325e-06 3.93683e-07 0)
(3.93062e-06 3.96557e-07 0)
(3.93247e-06 3.90034e-07 0)
(3.97881e-06 3.97399e-07 0)
(4e-06 3.95035e-07 0)
(4.06209e-06 4.03701e-07 0)
(4.09815e-06 4.04167e-07 0)
(4.16288e-06 4.12816e-07 0)
(4.20722e-06 4.15258e-07 0)
(4.26632e-06 4.22992e-07 0)
(4.31344e-06 4.26536e-07 0)
(4.36343e-06 4.32998e-07 0)
(4.41042e-06 4.36952e-07 0)
(4.45062e-06 4.42207e-07 0)
(4.49777e-06 4.46204e-07 0)
(4.52848e-06 4.50364e-07 0)
(4.58012e-06 4.54572e-07 0)
(4.60203e-06 4.57325e-07 0)
(4.67224e-06 4.62988e-07 0)
(4.68702e-06 4.60086e-07 0)
(4.86606e-06 4.75122e-07 0)
(4.89936e-06 2.16131e-07 0)
(7.24791e-06 4.4828e-07 0)
(0.00111837 0.000120258 0)
(0.00105771 0.000113766 0)
(0.00100013 0.000107601 0)
(0.000945494 0.000101751 0)
(0.000893659 9.61977e-05 0)
(0.000844486 9.09295e-05 0)
(0.000797854 8.59315e-05 0)
(0.000753637 8.11917e-05 0)
(0.000711721 7.66967e-05 0)
(0.000671992 7.24357e-05 0)
(0.000634347 6.83965e-05 0)
(0.000598681 6.45692e-05 0)
(0.000564899 6.09426e-05 0)
(0.000532908 5.75078e-05 0)
(0.000502621 5.42544e-05 0)
(0.000473951 5.11745e-05 0)
(0.00044682 4.82585e-05 0)
(0.000421148 4.54991e-05 0)
(0.000396867 4.28879e-05 0)
(0.000373901 4.04179e-05 0)
(0.00035219 3.80817e-05 0)
(0.000331664 3.58728e-05 0)
(0.000312268 3.37844e-05 0)
(0.000293939 3.18108e-05 0)
(0.000276628 2.99458e-05 0)
(0.000260278 2.81841e-05 0)
(0.000244842 2.65201e-05 0)
(0.00023027 2.4949e-05 0)
(0.000216519 2.34658e-05 0)
(0.000203545 2.20661e-05 0)
(0.000191308 2.07453e-05 0)
(0.000179768 1.94995e-05 0)
(0.000168889 1.83245e-05 0)
(0.000158634 1.72168e-05 0)
(0.000148972 1.61725e-05 0)
(0.00013987 1.51885e-05 0)
(0.000131298 1.42615e-05 0)
(0.000123226 1.33883e-05 0)
(0.000115629 1.25661e-05 0)
(0.000108479 1.17922e-05 0)
(0.000101753 1.10637e-05 0)
(9.54268e-05 1.03784e-05 0)
(8.94789e-05 9.73377e-06 0)
(8.38871e-05 9.12759e-06 0)
(7.8633e-05 8.55772e-06 0)
(7.36962e-05 8.02214e-06 0)
(6.906e-05 7.51893e-06 0)
(6.47065e-05 7.04627e-06 0)
(6.06204e-05 6.60242e-06 0)
(5.67857e-05 6.18576e-06 0)
(5.31886e-05 5.79473e-06 0)
(4.98149e-05 5.42786e-06 0)
(4.66521e-05 5.08377e-06 0)
(4.36875e-05 4.76113e-06 0)
(4.09099e-05 4.4587e-06 0)
(3.83081e-05 4.17531e-06 0)
(3.58718e-05 3.90982e-06 0)
(3.35912e-05 3.6612e-06 0)
(3.14571e-05 3.42844e-06 0)
(2.94605e-05 3.2106e-06 0)
(2.75935e-05 3.00678e-06 0)
(2.58479e-05 2.81616e-06 0)
(2.42167e-05 2.63793e-06 0)
(2.26926e-05 2.47133e-06 0)
(2.12692e-05 2.31567e-06 0)