/*--------------------------------*- C++ -*----------------------------------*\
| =========                 |                                                 |
| \\      /  F ield         | OpenFOAM: The Open Source CFD Toolbox           |
|  \\    /   O peration     | Version:  v1912                                 |
|   \\  /    A nd           | Website:  www.openfoam.com                      |
|    \\/     M anipulation  |                                                 |
\*---------------------------------------------------------------------------*/
FoamFile
{
    version     2.0;
    format      ascii;
    class       volScalarField;
    location    "100";
    object      alpha.water;
}
// * * * * * * * * * * * * * * * * * * * * * * * * * * * * * * * * * * * * * //

dimensions      [0 0 0 0 0 0 0];


internalField   nonuniform List<scalar> 
14268
(
1
1
1
1
1
1
1
1
1
1
1
1
1
1
1
1
1
1
1
1
1
1
1
1
1
1
1
1
1
1
1
1
1
1
1
1
1
1
1
1
1
1
1
1
1
1
1
1
1
1
1
1
1
1
1
1
1
1
1
1
1
1
1
1
1
1
1
1
1
1
1
1
1
1
1
1
1
1
1
1
1
1
1
1
1
1
1
1
1
1
1
1
1
1
1
1
1
1
1
1
1
1
1
1
1
1
1
1
1
1
1
1
1
1
1
1
1
1
1
1
1
1
1
1
1
1
1
1
1
1
1
1
1
1
1
1
1
1
1
1
1
1
1
1
1
1
1
1
1
1
1
1
1
1
1
1
1
1
1
1
1
1
1
1
1
1
1
1
1
1
1
1
1
1
1
1
1
1
1
1
1
1
1
1
1
1
1
1
1
1
1
1
1
1
1
1
1
1
1
1
1
1
1
1
1
1
1
1
1
1
1
1
1
1
1
1
1
1
1
1
1
1
1
1
1
1
1
1
1
1
1
1
1
1
1
1
1
1
1
1
1
1
1
1
1
1
1
1
1
1
1
1
1
1
1
1
1
1
1
1
1
1
1
1
1
1
1
1
1
1
1
1
1
1
1
1
1
1
1
1
1
1
1
1
1
1
1
1
1
1
1
1
1
1
1
1
1
1
1
1
1
1
1
1
1
1
1
1
1
1
1
1
1
1
1
1
1
1
1
1
1
1
1
1
1
1
1
1
1
1
1
1
1
1
1
1
1
1
1
1
1
1
1
1
1
1
1
1
1
1
1
1
1
1
1
1
1
1
1
1
1
1
1
1
1
1
1
1
1
1
1
1
1
1
1
1
1
1
1
1
1
1
1
1
1
1
1
1
1
1
1
1
1
1
1
1
1
1
1
1
1
1
1
1
1
1
1
1
1
1
1
1
1
1
1
1
1
1
1
1
1
1
1
1
1
1
1
1
1
1
1
1
1
1
1
1
1
1
1
1
1
1
1
1
1
1
1
1
1
1
1
1
1
1
1
1
1
1
1
1
1
1
1
1
1
1
1
1
1
1
1
1
1
1
1
1
1
1
1
1
1
1
1
1
1
1
1
1
1
1
1
1
1
1
1
1
1
1
1
1
1
1
1
1
1
1
1
1
1
1
1
1
1
1
1
1
1
1
1
1
1
1
1
1
1
1
1
1
1
1
1
1
1
1
1
1
1
1
1
1
1
1
1
1
1
1
1
1
1
1
1
1
1
1
1
1
1
1
1
1
1
1
1
1
1
1
1
1
1
1
1
1
1
1
1
1
1
1
1
1
1
1
1
1
1
1
1
1
1
1
1
1
1
1
1
1
1
1
1
1
1
1
1
1
1
1
1
1
1
1
1
1
1
1
1
1
1
1
1
1
1
1
1
1
1
1
1
1
1
1
1
1
1
1
1
1
1
1
1
1
1
1
1
1
1
1
1
1
1
1
1
1
1
1
1
1
1
1
1
1
1
1
1
1
1
1
1
1
1
1
1
1
1
1
1
1
1
1
1
1
1
1
1
1
1
1
1
1
1
1
1
1
1
1
1
1
1
1
1
1
1
1
1
1
1
1
1
1
1
1
1
1
1
1
1
1
1
1
1
1
1
1
1
1
1
1
1
1
1
1
1
1
1
1
1
1
1
1
1
1
1
1
1
1
1
1
1
1
1
1
1
1
1
1
1
1
1
1
1
1
1
1
1
1
1
1
1
1
1
1
1
1
1
1
1
1
1
1
1
1
1
1
1
1
1
1
1
1
1
1
1
1
1
1
1
1
1
1
1
1
1
1
1
1
1
1
1
1
1
1
1
1
1
1
1
1
1
1
1
1
1
1
1
1
1
1
1
1
1
1
1
1
1
1
1
1
1
1
1
1
1
1
1
1
1
1
1
1
1
1
1
1
1
1
1
1
1
1
1
1
1
1
1
1
1
1
1
1
1
1
1
1
1
1
1
1
1
1
1
1
1
1
1
1
1
1
1
1
1
1
1
1
1
1
1
1
1
1
1
1
1
1
1
1
1
1
1
1
1
1
1
1
1
1
1
1
1
1
1
1
1
1
1
1
1
1
1
1
1
1
1
1
1
1
1
1
1
1
1
1
1
1
1
1
1
1
1
1
1
1
1
1
1
1
1
1
1
1
1
1
1
1
1
1
1
1
1
1
1
1
1
1
1
1
1
1
1
1
1
1
1
1
1
1
1
1
1
1
1
1
1
1
1
1
1
1
1
1
1
1
1
1
1
1
1
1
1
1
1
1
1
1
1
1
1
1
1
1
1
1
1
1
1
1
1
1
1
1
1
1
1
1
1
1
1
1
1
1
1
1
1
1
1
1
1
1
1
1
1
1
1
1
1
1
1
1
1
1
1
1
1
1
1
1
1
1
1
1
1
1
1
1
1
1
1
1
1
1
1
1
1
1
1
1
1
1
1
1
1
1
1
1
1
1
1
1
1
1
1
1
1
1
1
1
1
1
1
1
1
1
1
1
1
1
1
1
1
1
1
1
1
1
1
1
1
1
1
1
1
1
1
1
1
1
1
1
1
1
1
1
1
1
1
1
1
1
1
1
1
1
1
1
1
1
1
1
1
1
1
1
1
1
1
1
1
1
1
1
1
1
1
1
1
1
1
1
1
1
1
1
1
1
1
1
1
1
1
1
1
1
1
1
1
1
1
1
1
1
1
1
1
1
1
1
1
1
1
1
1
1
1
1
1
1
1
1
1
1
1
1
1
1
1
1
1
1
1
1
1
1
1
1
1
1
1
1
1
1
1
1
1
1
1
1
1
1
1
1
1
1
1
1
1
1
1
1
1
1
1
1
1
1
1
1
1
1
1
1
1
1
1
1
1
1
1
1
1
1
1
1
1
1
1
1
1
1
1
1
1
1
1
1
1
1
1
1
1
1
1
1
1
1
1
1
1
1
1
1
1
1
1
1
1
1
1
1
1
1
1
1
1
1
1
1
1
1
1
1
1
1
1
1
1
1
1
1
1
1
1
1
1
1
1
1
1
1
1
1
1
1
1
1
1
1
1
1
1
1
1
1
1
1
1
1
1
1
1
1
1
1
1
1
1
1
1
1
1
1
1
1
1
1
1
1
1
1
1
1
1
1
1
1
1
1
1
1
1
1
1
1
1
1
1
1
1
1
1
1
1
1
1
1
1
1
1
1
1
1
1
1
1
1
1
1
1
1
1
1
1
1
1
1
1
1
1
1
1
1
1
1
1
1
1
1
1
1
1
1
1
1
1
1
1
1
1
1
1
1
1
1
1
1
1
1
1
1
1
1
1
1
1
1
1
1
1
1
1
1
1
1
1
1
1
1
1
1
1
1
1
1
1
1
1
1
1
1
1
1
1
1
1
1
1
1
1
1
1
1
1
1
1
1
1
1
1
1
1
1
1
1
1
1
1
1
1
1
1
1
1
1
1
1
1
1
1
1
1
1
1
1
1
1
1
1
1
1
1
1
1
1
1
1
1
1
1
1
1
1
1
1
1
1
1
1
1
1
1
1
1
1
1
1
1
1
1
1
1
1
1
1
1
1
1
1
1
1
1
1
1
1
1
1
1
1
1
1
1
1
1
1
1
1
1
1
1
1
1
1
1
1
1
1
1
1
1
1
1
1
1
1
1
1
1
1
1
1
1
1
1
1
1
1
1
1
1
1
1
1
1
1
1
1
1
1
1
1
1
1
1
1
1
1
1
1
1
1
1
1
1
1
1
1
1
1
1
1
1
1
1
1
1
1
1
1
1
1
1
1
1
1
1
1
1
1
1
1
1
1
1
1
1
1
1
1
1
1
1
1
1
1
1
1
1
1
1
1
1
1
1
1
1
1
1
1
1
1
1
1
1
1
1
1
1
1
1
1
1
1
1
1
1
1
1
1
1
1
1
1
1
1
1
1
1
1
1
1
1
1
1
1
1
1
1
1
1
1
1
1
1
1
1
1
1
1
1
1
1
1
1
1
1
1
1
1
1
1
1
1
1
1
1
1
1
1
1
1
1
1
1
1
1
1
1
1
1
1
1
1
1
1
1
1
1
1
1
1
1
1
1
1
1
1
1
1
1
1
1
1
1
1
1
1
1
1
1
1
1
1
1
1
1
1
1
1
1
1
1
1
1
1
1
1
1
1
1
1
1
1
1
1
1
1
1
1
1
1
1
1
1
1
1
1
1
1
1
1
1
1
1
1
1
1
1
1
1
1
1
1
1
1
1
1
1
1
1
1
1
1
1
1
1
1
1
1
1
1
1
1
1
1
1
1
1
1
1
1
1
1
1
1
1
1
1
1
1
1
1
1
1
1
1
1
1
1
1
1
1
1
1
1
1
1
1
1
1
1
1
1
1
1
1
1
1
1
1
1
1
1
1
1
1
1
1
1
1
1
1
1
1
1
1
1
1
1
1
1
1
1
1
1
1
1
1
1
1
1
1
1
1
1
1
1
1
1
1
1
1
1
1
1
1
1
1
1
1
1
1
1
1
1
1
1
1
1
1
1
1
1
1
1
1
1
1
1
1
1
1
1
1
1
1
1
1
1
1
1
1
1
1
1
1
1
1
1
1
1
1
1
1
1
1
1
1
1
1
1
1
1
1
1
1
1
1
1
1
1
1
1
1
1
1
1
1
1
1
1
1
1
1
1
1
1
1
1
1
1
1
1
1
1
1
1
1
1
1
1
1
1
1
1
1
1
1
1
1
1
1
1
1
1
1
1
1
1
1
1
1
1
1
1
1
1
1
1
1
1
1
1
1
1
1
1
1
1
1
1
1
1
1
1
1
1
1
1
1
1
1
1
1
1
1
1
1
1
1
1
1
1
1
1
1
1
1
1
1
1
1
1
1
1
1
1
1
1
1
1
1
1
1
1
1
1
1
1
1
1
1
1
1
1
1
1
1
1
1
1
1
1
1
1
1
1
1
1
1
1
1
1
1
1
1
1
1
1
1
1
1
1
1
1
1
1
1
1
1
1
1
1
1
1
1
1
1
1
1
1
1
1
1
1
1
1
1
1
1
1
1
1
1
1
1
1
1
1
1
1
1
1
1
1
1
1
1
1
1
1
1
1
1
1
1
1
1
1
1
1
1
1
1
1
1
1
1
1
1
1
1
1
1
1
1
1
1
1
1
1
1
1
1
1
1
1
1
1
1
1
1
1
1
1
1
1
1
1
1
1
1
1
1
1
1
1
1
1
1
1
1
1
1
1
1
1
1
1
1
1
1
1
1
1
1
1
1
1
1
1
1
1
1
1
1
1
1
1
1
1
1
1
1
1
1
1
1
1
1
1
1
1
1
1
1
1
1
1
1
1
1
1
1
1
1
1
1
1
1
1
1
1
1
1
1
1
1
1
1
1
1
1
1
1
1
1
1
1
1
1
1
1
1
1
1
1
1
1
1
1
1
1
1
1
1
1
1
1
1
1
1
1
1
1
1
1
1
1
1
1
1
1
1
1
1
1
1
1
1
1
1
1
1
1
1
1
1
1
1
1
1
1
1
1
1
1
1
1
1
1
1
1
1
1
1
1
1
1
1
1
1
1
1
1
1
1
1
1
1
1
1
1
1
1
1
1
1
1
1
1
1
1
1
1
1
1
1
1
1
1
1
1
1
1
1
1
1
1
1
1
1
1
1
1
1
1
1
1
1
1
1
1
1
1
1
1
1
1
1
1
1
1
1
1
1
1
1
1
1
1
1
1
1
1
1
1
1
1
1
1
1
1
1
1
1
1
1
1
1
1
1
1
1
1
1
1
1
1
1
1
1
1
1
1
1
1
1
1
1
1
1
1
1
1
1
1
1
1
1
1
1
1
1
1
1
1
1
1
1
1
1
1
1
1
1
1
1
1
1
1
1
1
1
1
1
1
1
1
1
1
1
1
1
1
1
1
1
1
1
1
1
1
1
1
1
1
1
1
1
1
1
1
1
1
1
1
1
1
1
1
1
1
1
1
1
1
1
1
1
1
1
1
1
1
1
1
1
1
1
1
1
1
1
1
1
1
1
1
1
1
1
1
1
1
1
1
1
1
1
1
1
1
1
1
1
1
1
1
1
1
1
1
1
1
1
1
1
1
1
1
1
1
1
1
1
1
1
1
1
1
1
1
1
1
1
1
1
1
1
1
1
1
1
1
1
1
1
1
1
1
1
1
1
1
1
1
1
1
1
1
1
1
1
1
1
1
1
1
1
1
1
1
1
1
1
1
1
1
1
1
1
1
1
1
1
1
1
1
1
1
1
1
1
1
1
1
1
1
1
1
1
1
1
1
1
1
1
1
1
1
1
1
1
1
1
1
1
1
1
1
1
1
1
1
1
1
1
1
1
1
1
1
1
1
1
1
1
1
1
1
1
1
1
1
1
1
1
1
1
1
1
1
1
1
1
1
1
1
1
1
1
1
1
1
1
1
1
1
1
1
1
1
1
1
1
1
1
1
1
1
1
1
1
1
1
1
1
1
1
1
1
1
1
1
1
1
1
1
1
1
1
1
1
1
1
1
1
1
1
1
1
1
1
1
1
1
1
1
1
1
1
1
1
1
1
1
1
1
1
1
1
1
1
1
1
1
1
1
1
1
1
1
1
1
1
1
1
1
1
1
1
1
1
1
1
1
1
1
1
1
1
1
1
1
1
1
1
1
1
1
1
1
1
1
1
1
1
1
1
1
1
1
1
1
1
1
1
1
1
1
1
1
1
1
1
1
1
1
1
1
1
1
1
1
1
1
1
1
1
1
1
1
1
1
1
1
1
1
1
1
1
1
1
1
1
1
1
1
1
1
1
1
1
1
1
1
1
1
1
1
1
1
1
1
1
1
1
1
1
1
1
1
1
1
1
1
1
1
1
1
1
1
1
1
1
1
1
1
1
1
1
1
1
1
1
1
1
1
1
1
1
1
1
1
1
1
1
1
1
1
1
1
1
1
1
1
1
1
1
1
1
1
1
1
1
1
1
1
1
1
1
1
1
1
1
1
1
1
1
1
1
1
1
1
1
1
1
1
1
1
1
1
1
1
1
1
1
1
1
1
1
1
1
1
1
1
1
1
1
1
1
1
1
1
1
1
1
1
1
1
1
1
1
1
1
1
1
1
1
1
1
1
1
1
1
1
1
1
1
1
1
1
1
1
1
1
1
1
1
1
1
1
1
1
1
1
1
1
1
1
1
1
1
1
1
1
1
1
1
1
1
1
1
1
1
1
1
1
1
1
1
1
1
1
1
1
1
1
1
1
1
1
1
1
1
1
1
1
1
1
1
1
1
1
1
1
1
1
1
1
1
1
1
1
1
1
1
1
1
1
1
1
1
1
1
1
1
1
1
1
1
1
1
1
1
1
1
1
1
1
1
1
1
1
1
1
1
1
1
1
1
1
1
1
1
1
1
1
1
1
1
1
1
1
1
1
1
1
1
1
1
1
1
1
1
1
1
1
1
1
1
1
1
1
1
1
1
1
1
1
1
1
1
1
1
1
1
1
1
1
1
1
1
1
1
1
1
1
1
1
1
1
1
1
1
1
1
1
1
1
1
1
1
1
1
1
1
1
1
1
1
1
1
1
1
1
1
1
1
1
1
1
1
1
1
1
1
1
1
1
1
1
1
1
1
1
1
1
1
1
1
1
1
1
1
1
1
1
1
1
1
1
1
1
1
1
1
1
1
1
1
1
1
1
1
1
1
1
1
1
1
1
1
1
1
1
1
1
1
1
1
1
1
1
1
1
1
1
1
1
1
1
1
1
1
1
1
1
1
1
1
1
1
1
1
1
1
1
1
1
1
1
1
1
1
1
1
1
1
1
1
1
1
1
1
1
1
1
1
1
1
1
1
1
1
1
1
1
1
1
1
1
1
1
1
1
1
1
1
1
1
1
1
1
1
1
1
1
1
1
1
1
1
1
1
1
1
1
1
1
1
1
1
1
1
1
1
1
1
1
1
1
1
1
1
1
1
1
1
1
1
1
1
1
1
1
1
1
1
1
1
1
1
1
1
1
1
1
1
1
1
1
1
1
1
1
1
1
1
1
1
1
1
1
1
1
1
1
1
1
1
1
1
1
1
1
1
1
1
1
1
1
1
1
1
1
1
1
1
1
1
1
1
1
1
1
1
1
1
1
1
1
1
1
1
1
1
1
1
1
1
1
1
1
1
1
1
1
1
1
1
1
1
1
1
1
1
1
1
1
1
1
1
1
1
1
1
1
1
1
1
1
1
1
1
1
1
1
1
1
1
1
1
1
1
1
1
1
1
1
1
1
1
1
1
1
1
1
1
1
1
1
1
1
1
1
1
1
1
1
1
1
1
1
1
1
1
1
1
1
1
1
1
1
1
1
1
1
1
1
1
1
1
1
1
1
1
1
1
1
1
1
1
1
1
1
1
1
1
1
1
1
1
1
1
1
1
1
1
1
1
1
1
1
1
1
1
1
1
1
1
1
1
1
1
1
1
1
1
1
1
1
1
1
1
1
1
1
1
1
1
1
1
1
1
1
1
1
1
1
1
1
1
1
1
1
1
1
1
1
1
1
1
1
1
1
1
1
1
1
1
1
1
1
1
1
1
1
1
1
1
1
1
1
1
1
1
1
1
1
1
1
1
1
1
1
1
1
1
1
1
1
1
1
1
1
1
1
1
1
1
1
1
1
1
1
1
1
1
1
1
1
1
1
1
1
1
1
1
1
1
1
1
1
1
1
1
1
1
1
1
1
1
1
1
1
1
1
1
1
1
1
1
1
1
1
1
1
1
1
1
1
1
1
1
1
1
1
1
1
1
1
1
1
1
1
1
1
1
1
1
1
1
1
1
1
1
1
1
1
1
1
1
1
1
1
1
1
1
1
1
1
1
1
1
1
1
1
1
1
1
1
1
1
1
1
1
1
1
1
1
1
1
1
1
1
1
1
1
1
1
1
1
1
1
1
1
1
1
1
1
1
1
1
1
1
1
1
1
1
1
1
1
1
1
1
1
1
1
1
1
1
1
1
1
1
1
1
1
1
1
1
1
1
1
1
1
1
1
1
1
1
1
1
1
1
1
1
1
1
1
1
1
1
1
1
1
1
1
1
1
1
1
1
1
1
1
1
1
1
1
1
1
1
1
1
1
1
1
1
1
1
1
1
1
1
1
1
1
1
1
1
1
1
1
1
1
1
1
1
1
1
1
1
1
1
1
1
1
1
1
1
1
1
1
1
1
1
1
1
1
1
1
1
1
1
1
1
1
1
1
1
1
1
1
1
1
1
1
1
1
1
1
1
1
1
1
1
1
1
1
1
1
1
1
1
1
1
1
1
1
1
1
1
1
1
1
1
1
1
1
1
1
1
1
1
1
1
1
1
1
1
1
1
1
1
1
1
1
1
1
1
1
1
1
1
1
1
1
1
1
1
1
1
1
1
1
1
1
1
1
1
1
1
1
1
1
1
1
1
1
1
1
1
1
1
1
1
1
1
1
1
1
1
1
1
1
1
1
1
1
1
1
1
1
1
1
1
1
1
1
1
1
1
1
1
1
1
1
1
1
1
1
1
1
1
1
1
1
1
1
1
1
1
1
1
1
1
1
1
1
1
1
1
1
1
1
1
1
1
1
1
1
1
1
1
1
1
1
1
1
1
1
1
1
1
1
1
1
1
1
1
1
1
1
1
1
1
1
1
1
1
1
1
1
1
1
1
1
1
1
1
1
1
1
1
1
1
1
1
1
1
1
1
1
1
1
1
1
1
1
1
1
1
1
1
1
1
1
1
1
1
1
1
1
1
1
1
1
1
1
1
1
1
1
1
1
1
1
1
1
1
1
1
1
1
1
1
1
1
1
1
1
1
1
1
1
1
1
1
1
1
1
1
1
1
1
1
1
1
1
1
1
1
1
1
1
1
1
1
1
1
1
1
1
1
1
1
1
1
1
1
1
1
1
1
1
1
1
1
1
1
1
1
1
1
1
1
1
1
1
1
1
1
1
1
1
1
1
1
1
1
1
1
1
1
1
1
1
1
1
1
1
1
1
1
1
1
1
1
1
1
1
1
1
1
1
1
1
1
1
1
1
1
1
1
1
1
1
1
1
1
1
1
1
1
1
1
1
1
1
1
1
1
1
1
1
1
1
1
1
1
1
1
1
1
1
1
1
1
1
1
1
1
1
1
1
1
1
1
1
1
1
1
1
1
1
1
1
1
1
1
1
1
1
1
1
1
1
1
1
1
1
1
1
1
1
1
1
1
1
1
1
1
1
1
1
1
1
1
1
1
1
1
1
1
1
1
1
1
1
1
1
1
1
1
1
1
1
1
1
1
1
1
1
1
1
1
1
1
1
1
1
1
1
1
1
1
1
1
1
1
1
1
1
1
1
1
1
1
1
1
1
1
1
1
1
1
1
1
1
1
1
1
1
1
1
1
1
1
1
1
1
1
1
1
1
1
1
1
1
1
1
1
1
1
1
1
1
1
1
1
1
1
1
1
1
1
1
1
1
1
1
1
1
1
1
1
1
1
1
1
1
1
1
1
1
1
1
1
1
1
1
1
1
1
1
1
1
1
1
1
1
1
1
1
1
1
1
1
1
1
1
1
1
1
1
1
1
1
1
1
1
1
1
1
1
1
1
1
1
1
1
1
1
1
1
1
1
1
1
1
1
1
1
1
1
1
1
1
1
1
1
1
1
1
1
1
1
1
1
1
1
1
1
1
1
1
1
1
1
1
1
1
1
1
1
1
1
1
1
1
1
1
1
1
1
1
1
1
1
1
1
1
1
1
1
1
1
1
1
1
1
1
1
1
1
1
1
1
1
1
1
1
1
1
1
1
1
1
1
1
1
1
1
1
1
1
1
1
1
1
1
1
1
1
1
1
1
1
1
1
1
1
1
1
1
1
1
1
1
1
1
1
1
1
1
1
1
1
1
1
1
1
1
1
1
1
1
1
1
1
1
1
1
1
1
1
1
1
1
1
1
1
1
1
1
1
1
1
1
1
1
1
1
1
1
1
1
1
1
1
1
1
1
1
1
1
1
1
1
1
1
1
1
1
1
1
1
1
1
1
1
1
1
1
1
1
1
1
1
1
1
1
1
1
1
1
1
1
1
1
1
1
1
1
1
1
1
1
1
1
1
1
1
1
1
1
1
1
1
1
1
1
1
1
1
1
1
1
1
1
1
1
1
1
1
1
1
1
1
1
1
1
1
1
1
1
1
1
1
1
1
1
1
1
1
1
1
1
1
1
1
1
1
1
1
1
1
1
1
1
1
1
1
1
1
1
1
1
1
1
1
1
1
1
1
1
1
1
1
1
1
1
1
1
1
1
1
1
1
1
1
1
1
1
1
1
1
1
1
1
1
1
1
1
1
1
1
1
1
1
1
1
1
1
1
1
1
1
1
1
0.999851
0.994195
0.98871
0.992696
1
1
1
1
1
1
1
1
1
1
1
1
1
1
1
1
1
1
1
1
1
1
1
1
1
1
1
1
1
1
1
1
1
1
1
1
1
1
1
1
1
1
1
1
1
1
1
1
1
1
1
1
1
1
1
1
1
1
1
1
1
1
1
1
1
1
1
1
1
1
1
1
1
1
1
1
1
1
1
1
1
1
1
1
1
1
1
1
1
1
1
1
1
1
1
1
1
1
1
1
1
1
1
1
1
1
1
1
1
1
1
1
1
1
1
1
1
1
1
1
1
1
1
1
1
1
1
1
1
1
1
1
1
1
1
1
1
1
1
1
1
1
1
1
1
1
1
1
1
1
1
1
1
1
1
1
0.999985
0.968226
0.723034
0.475378
0.318173
0.275563
0.35767
0.553207
0.83494
0.967797
0.999981
1
1
1
1
1
1
1
1
1
1
1
1
1
1
1
1
1
1
1
1
1
1
1
1
1
1
1
1
1
1
1
1
1
1
1
1
1
1
1
1
1
1
1
1
1
1
1
0.999998
0.972747
0.931488
0.973299
0.999824
0.999813
0.999837
0.999953
1
1
1
1
1
1
1
1
1
1
1
1
1
1
1
1
1
1
1
1
1
1
1
1
1
1
1
1
1
1
1
1
1
1
1
1
1
1
1
1
1
1
1
1
1
1
1
1
1
1
1
1
1
1
1
0.990654
0.923675
0.961602
0.994163
1
1
1
1
1
1
1
1
1
1
1
1
1
1
1
1
1
1
1
1
1
1
1
1
1
1
1
1
1
1
1
1
1
1
1
1
0.999995
0.981197
0.741913
0.405362
0.0882209
0.0133409
0.00413217
0.000434295
3.1711e-10
1.81631e-07
9.60328e-05
0.0211691
0.30577
0.749036
0.965576
1
1
1
1
1
1
1
1
1
1
1
1
1
1
1
1
1
1
1
1
1
1
1
1
1
1
1
1
1
1
1
1
1
1
1
1
1
1
1
1
1
1
1
1
0.874352
0.460322
0.154052
0.00439977
0.000139278
0.00224229
0.0968098
0.263548
0.462095
0.685321
0.925247
0.999368
0.999737
1
1
1
1
1
1
1
1
1
1
1
1
1
1
1
1
1
1
1
1
1
1
1
1
1
1
1
1
1
1
1
1
1
1
1
1
0.999998
0.965891
0.869568
0.852556
0.925779
0.998092
0.999132
0.999514
0.999878
1
1
1
1
0.974897
0.675007
0.32235
0.0523914
1.13046e-12
0.0134775
0.27532
0.757925
0.994176
1
1
1
1
1
1
1
1
1
1
1
1
1
1
1
1
1
1
1
1
1
1
1
1
1
1
1
1
0.999996
0.995891
0.91264
0.798124
0.680901
0.533392
0.336354
0.0978992
0.0182236
0.00483944
3.61807e-21
1.41308e-19
1.30895e-21
9.19523e-20
1.39263e-16
2.05718e-13
1.78239e-10
9.09155e-08
6.46888e-05
0.0210053
0.368641
0.858004
0.989572
1
1
1
1
1
1
1
1
1
1
1
1
1
1
1
1
1
1
1
1
1
1
1
1
1
1
1
1
1
1
1
1
1
1
1
1
1
1
1
1
0.966401
0.472455
0.0232692
0.000157307
1.03443e-22
1.67465e-40
3.10453e-44
-1.17164e-62
-6.20083e-66
-1.4707e-68
-9.12206e-72
-3.47809e-70
0.00855576
0.222082
0.554356
0.911948
0.999331
1
1
1
1
1
1
1
1
1
1
1
1
1
1
1
1
1
1
1
1
1
1
1
1
1
1
1
1
1
1
1
0.990707
0.75398
0.440953
0.177255
0.0113498
0.00127779
0.000376425
2.47012e-06
0.0749261
0.271029
0.476378
0.648937
0.74829
0.742569
0.616902
0.376934
0.0760437
0.00192217
0.000220285
8.1453e-21
-1.96528e-41
-1.61757e-45
2.11797e-16
0.00659512
0.469767
0.980491
1
1
1
1
1
1
1
1
1
1
1
1
1
1
1
1
1
1
1
1
1
1
1
1
0.999999
0.955593
0.629573
0.320279
0.0964877
0.0234652
0.015935
0.0119922
0.00812389
0.00205998
1.95426e-10
-1.28841e-23
-2.22799e-26
3.66042e-41
8.29586e-39
1.1763e-28
5.39273e-25
1.69769e-21
2.02432e-18
2.10651e-15
1.91732e-12
1.59745e-09
8.44204e-07
0.000559116
0.0901098
0.598171
0.947676
1
1
1
1
1
1
1
1
1
1
1
1
1
1
1
1
1
1
1
1
1
1
1
1
1
1
1
1
1
1
1
1
1
1
1
1
1
1
0.829986
0.170722
0.000217521
2.96209e-20
1.48848e-22
1.71414e-40
2.14104e-58
3.21248e-63
-1.21844e-67
-4.9405e-62
-6.05813e-65
-2.40555e-68
-4.89919e-72
-1.1032e-75
-2.81356e-79
-1.38172e-57
0.026028
0.383037
0.851482
0.999197
1
1
1
1
1
1
1
1
1
1
1
1
0.999969
0.999931
1
1
1
1
1
1
1
1
1
1
1
1
0.999996
0.827708
0.463853
0.111263
0.00244917
0.000830649
6.19227e-08
1.77368e-20
2.95021e-21
1.164e-22
1.23944e-25
7.08127e-29
5.34611e-49
-4.83979e-70
-4.71113e-57
2.09439e-08
0.000627862
0.00104635
0.000512408
9.40091e-08
1.43857e-20
6.16328e-22
9.106e-25
-4.72496e-45
-1.4788e-48
-3.98179e-51
1.5356e-20
0.000103947
0.320736
0.961133
1
1
1
1
1
1
1
1
1
1
1
1
1
1
1
1
1
1
1
1
1
1
0.98214
0.587492
0.110738
0.0144891
0.00158351
4.02563e-18
9.844e-19
6.46233e-19
5.04721e-19
3.27901e-19
8.20432e-20
6.63989e-37
-2.45936e-25
-1.42763e-27
-1.10585e-26
-2.34902e-28
-8.68443e-31
4.9798e-30
3.15101e-26
5.9331e-23
8.1673e-20
5.84883e-17
6.48547e-14
5.57252e-11
3.33093e-08
1.78542e-05
0.00854394
0.312502
0.839782
0.986388
1
1
1
1
1
1
1
1
1
1
1
1
1
1
1
1
1
1
1
1
1
1
1
1
1
1
1
1
1
1
1
1
1
1
0.999997
0.623527
0.0408745
1.22379e-20
-2.36621e-26
-4.80506e-44
-1.00155e-61
-1.89136e-65
-7.39082e-82
-1.31707e-89
-8.71359e-72
-3.43077e-58
-2.04289e-61
-5.4351e-65
-8.27327e-69
-1.14125e-72
-1.71467e-76
-2.33977e-80
-2.90586e-84
-2.63675e-88
0.0137103
0.36907
0.848308
0.999128
0.999822
1
1
1
1
1
1
0.906394
0.6994
0.577329
0.559246
0.642387
0.807622
0.980583
0.999349
0.999694
0.99992
1
1
1
1
1
0.859763
0.537304
0.19171
0.00340799
0.00108071
3.96212e-08
-4.41258e-25
-2.30842e-28
1.56894e-45
9.93729e-49
-8.2972e-66
-5.00246e-69
-8.58239e-68
-2.07541e-53
-3.91587e-56
-2.62465e-59
-8.47188e-63
-1.13864e-66
-1.11892e-70
-1.93337e-74
8.09778e-92
4.24732e-95
4.78743e-112
1.73678e-77
3.65473e-78
3.68615e-81
1.97489e-100
-2.41853e-117
8.26051e-64
-2.33372e-49
2.00863e-05
0.263795
0.945273
1
1
1
1
1
1
1
1
1
1
1
1
1
1
1
1
1
1
1
0.999988
0.825027
0.23052
0.0150206
1.39881e-20
-2.71234e-23
-7.71613e-41
2.29552e-45
6.67945e-47
-3.01228e-49
-6.45975e-50
3.43759e-49
9.55197e-47
-1.88619e-26
-5.11508e-27
-4.16595e-29
-6.2834e-28
-1.32948e-29
-1.22659e-31
-8.73085e-34
2.12117e-31
2.38893e-27
3.87369e-24
5.34183e-21
3.60208e-18
2.77942e-15
2.49193e-12
1.68502e-09
8.52013e-07
0.00045871
0.0866425
0.57928
0.930334
0.998445
1
1
1
1
1
1
1
1
1
1
1
1
1
1
1
1
1
1
1
0.999997
0.999973
1
1
1
1
1
1
1
1
1
1
0.93497
0.353889
0.000362535
5.99097e-20
9.36383e-39
-1.3579e-28
-4.33026e-32
-7.77878e-36
-1.3278e-39
-2.92201e-43
-5.05423e-47
-9.03598e-51
-2.1059e-54
-4.5966e-58
-7.50826e-62
-8.77678e-66
-8.50569e-70
-7.5806e-74
-6.48192e-78
-5.70626e-82
-4.09531e-86
-3.84713e-51
-1.44203e-46
0.00954789
0.289456
0.630101
0.849757
0.932297
0.879101
0.710449
0.462143
0.179661
0.00311548
0.000369659
0.000121305
2.71474e-09
1.16485e-67
-9.10099e-45
0.0424059
0.254164
0.459696
0.610095
0.683724
0.670047
0.570054
0.392836
0.152077
0.00318622
0.00125535
2.82352e-08
3.73034e-20
3.40588e-21
8.42943e-25
-1.56854e-27
-1.56706e-30
-8.36975e-34
-4.9247e-37
-3.03882e-40
-1.73691e-43
-8.80765e-47
-4.32225e-50
-2.00482e-53
-7.18924e-57
-1.77252e-60
-2.68702e-64
-3.36127e-68
-6.83515e-72
-2.51375e-75
-1.48486e-78
-1.28768e-81
-1.00361e-97
-6.41651e-92
-2.83382e-94
1.15207e-95
2.92386e-96
1.19693e-62
-2.41021e-48
-1.05623e-50
2.7164e-07
0.215801
0.909101
1
1
1
1
1
1
1
1
1
1
1
1
1
1
1
1
1
0.97773
0.530318
0.0508052
9.44364e-18
9.83932e-19
4.6655e-38
-6.97927e-25
-2.53639e-27
-9.21356e-30
-3.31061e-32
-1.18337e-34
-3.27027e-36
-5.2631e-34
-9.56378e-31
-1.29147e-27
-1.01994e-28
-9.65952e-31
-1.91903e-29
-3.96858e-31
-3.50657e-33
-2.0366e-35
1.022e-36
1.23244e-32
1.03765e-28
2.87719e-25
2.89726e-22
2.66178e-19
1.26693e-16
1.03557e-13
7.69143e-11
4.04969e-08
1.71046e-05
0.00614306
0.242971
0.702053
0.934845
0.98152
0.999373
1
1
1
0.999998
0.999797
0.991359
0.970254
0.959542
0.969695
0.99472
1
1
1
0.999999
0.999995
0.999969
0.999725
0.996845
0.797067
0.999971
0.999985
0.999996
1
1
1
1
0.980328
0.602819
0.0943947
8.53049e-05
5.45952e-22
8.9075e-38
-5.79634e-29
-3.08855e-31
-8.7035e-35
-1.84873e-38
-4.62055e-42
-8.66925e-46
-1.55465e-49
-3.53347e-53
-7.9705e-57
-1.40797e-60
-1.8249e-64
-1.75911e-68
-1.54391e-72
-1.46813e-76
-1.42288e-80
-1.28102e-84
-8.73345e-89
-5.58616e-49
-3.72579e-44
-5.05826e-40
-1.32549e-35
8.80918e-48
-3.76588e-28
2.94545e-08
0.000216088
0.000365146
0.000239951
-5.42897e-177
-2.90716e-175
-6.16864e-170
1.10249e-152
-1.6105e-133
-2.3933e-98
-6.15808e-42
-3.17486e-37
-5.43779e-33
-2.55799e-29
-5.63669e-26
2.3046e-05
0.000389649
0.000574657
0.000366194
7.04931e-19
1.97737e-20
1.66882e-82
7.05932e-87
8.82507e-59
2.48719e-38
7.08287e-42
-6.33852e-30
-8.11057e-33
-6.44028e-36
-4.58948e-39
-2.98982e-42
-1.70328e-45
-8.62941e-49
-4.30784e-52
-2.11751e-55
-8.39951e-59
-2.34577e-62
-4.20067e-66
-6.72139e-70
-1.629e-73
-6.72585e-77
-4.3199e-80
-3.88454e-83
-4.17496e-86
-5.37897e-89
-7.43618e-92
-1.1224e-94
-1.6863e-97
-4.93502e-96
4.26764e-62
-8.42097e-56
1.53687e-31
1.84004e-10
0.131421
0.781483
0.992241
1
1
1
1
1
1
1
1
1
1
1
1
1
0.996166
0.710128
0.198282
0.0120843
3.3986e-18
4.75052e-24
5.83562e-35
-1.37472e-28
-1.88101e-26
-1.2644e-28
-6.52452e-31
-2.98355e-33
-1.24897e-35
-1.68857e-36
-2.15728e-34
-2.2736e-31
-4.70511e-29
-2.00368e-30
-2.14253e-32
-4.1872e-31
-8.27357e-33
-6.49159e-35
-3.12647e-37
-1.28732e-39
1.44728e-38
4.57418e-34
1.81771e-30
1.03674e-26
1.33039e-23
1.00821e-20
5.29478e-18
2.60636e-15
1.83644e-12
9.891e-10
3.42298e-07
9.03822e-05
0.0134166
0.222015
0.515379
0.715014
0.80748
0.786723
0.67289
0.5171
0.363363
0.255039
0.235425
0.301733
0.447663
0.656455
0.866615
0.948268
0.987374
0.999705
0.998969
0.993512
0.944304
0.703734
5.08723e-07
0.165789
0.453495
0.652515
0.756052
0.756917
0.647433
0.420517
0.097901
0.000189418
2.16569e-19
2.21494e-22
1.59691e-39
3.96868e-55
-2.39796e-31
-3.58674e-34
-1.16286e-37
-3.7003e-41
-7.91927e-45
-1.51994e-48
-3.64919e-52
-8.44069e-56
-1.54151e-59
-2.13621e-63
-2.23061e-67
-1.90679e-71
-1.762e-75
-1.9234e-79
-1.95598e-83
-1.69586e-87
-1.12394e-91
-2.0118e-66
-2.36876e-61
-2.65538e-57
-1.3101e-53
-2.94378e-50
-1.60245e-47
-9.12848e-44
9.63643e-23
8.62432e-22
1.28503e-21
-1.84171e-177
-8.01392e-176
-1.04151e-171
3.10608e-155
-2.42078e-135
-3.38398e-96
-3.54223e-80
-1.06553e-76
-4.46481e-74
-6.59954e-73
2.61516e-45
9.85986e-29
4.40942e-22
3.19947e-21
3.09271e-21
6.92775e-36
3.49475e-37
1.30858e-97
2.15689e-101
5.25245e-69
5.45737e-55
-5.81575e-36
-2.42026e-32
-3.62092e-35
-3.45987e-38
-2.73569e-41
-1.84367e-44
-1.06666e-47
-5.61605e-51
-2.99618e-54
-1.60348e-57
-6.89973e-61
-2.07009e-64
-4.08557e-68
-7.6188e-72
-2.08676e-75
-9.39063e-79
-6.42932e-82
-5.92537e-85
-6.46855e-88
-7.97878e-91
-1.05676e-93
-1.51613e-96
-2.30898e-99
-7.94753e-96
-6.59686e-79
-3.55113e-53
-5.46995e-39
1.40771e-34
2.22289e-14
0.0208052
0.410389
0.843803
0.990369
0.996182
0.998415
0.999874
1
1
1
0.999405
0.967262
0.887148
0.745979
0.516129
0.188148
0.0174451
1.31677e-17
8.2565e-19
6.32044e-34
2.06919e-35
-2.77199e-34
-4.19102e-29
-5.07405e-28
-4.72269e-30
-3.06938e-32
-1.6489e-34
-7.64647e-37
-4.7586e-37
-4.44092e-35
-2.69606e-32
-1.25869e-30
-4.03979e-32
-4.88629e-34
-7.22414e-33
-1.33016e-34
-9.17014e-37
-3.76534e-39
-1.34905e-41
-4.31864e-44
8.91231e-42
3.37942e-37
6.70492e-33
1.95744e-29
5.15066e-26
5.61798e-23
2.43721e-20
9.89265e-18
3.77611e-15
1.28451e-12
3.04398e-10
3.62788e-08
2.52947e-06
3.29526e-05
7.81917e-05
0.00018251
0.00174632
0.00846209
0.00736166
0.00191437
2.35621e-08
2.20244e-07
6.1468e-06
0.000162789
0.00403276
0.0711197
0.281913
0.489581
0.612071
0.60694
0.490255
0.276317
0.103383
-5.65639e-51
-6.91669e-46
-4.12767e-36
-2.99959e-32
2.32664e-10
2.34751e-05
5.36424e-05
4.19775e-05
1.2597e-19
3.56704e-22
4.82375e-37
5.75154e-40
2.22399e-57
3.717e-75
-3.42365e-34
-3.6409e-37
-1.78957e-40
-4.72173e-44
-1.02117e-47
-2.72902e-51
-7.00751e-55
-1.33716e-58
-1.90345e-62
-2.08965e-66
-1.87176e-70
-1.65345e-74
-1.79499e-78
-2.09649e-82
-2.07451e-86
-1.73279e-90
-1.16844e-94
-4.52626e-99
-6.34393e-103
-6.39047e-99
-2.8109e-95
-6.34566e-92
8.71863e-65
4.24972e-59
1.63896e-41
1.87043e-39
6.23194e-39
-3.64966e-178
-1.15367e-176
-1.25199e-173
4.34925e-158
-4.85009e-132
-4.74038e-94
-2.33713e-78
-7.21388e-75
-3.93091e-72
-5.09756e-71
2.06369e-50
4.54167e-43
1.08176e-39
2.57273e-38
1.26475e-38
3.02859e-53
4.05617e-54
6.66158e-120
3.54007e-115
-5.56959e-88
-3.67219e-49
-4.55106e-37
-8.78098e-35
-1.46275e-37
-1.56153e-40
-1.3222e-43
-9.25355e-47
-5.63156e-50
-3.23353e-53
-1.89267e-56
-1.08089e-59
-4.80096e-63
-1.47401e-66
-3.07892e-70
-6.3446e-74
-1.89128e-77
-9.07446e-81
-6.52794e-84
-6.09714e-87
-6.47894e-90
-7.64731e-93
-9.69067e-96
-1.31982e-98
-1.88707e-101
-3.23545e-96
-5.28245e-79
-2.45413e-57
-8.0011e-42
-5.02217e-38
-1.30357e-35
-4.69855e-33
3.82234e-13
0.00234069
0.124844
0.25148
0.276247
0.237417
0.172565
0.108512
0.0583513
0.0200471
0.00685883
0.00880057
0.00847684
0.00602528
5.40876e-06
2.19636e-18
6.75584e-34
4.97289e-35
-4.47429e-31
-8.10081e-33
-3.0259e-34
-6.35536e-30
-1.36423e-29
-1.57902e-31
-1.20044e-33
-7.11532e-36
-3.5209e-38
-9.13998e-38
-6.11324e-36
-2.12556e-33
-2.88974e-32
-8.44909e-34
-1.13466e-35
-1.02916e-34
-1.73418e-36
-1.05559e-38
-3.78906e-41
-1.20048e-43
-3.51895e-46
-1.00341e-48
1.01919e-48
1.42775e-46
2.98848e-67
4.89926e-39
6.28303e-34
1.54345e-29
1.06006e-25
3.22951e-22
7.00604e-19
1.9917e-15
1.01442e-14
-3.93136e-45
-1.02787e-58
2.01213e-57
1.35875e-55
5.65067e-40
6.47828e-19
1.21278e-18
7.27663e-20
3.86104e-26
3.68649e-30
1.66609e-11
9.71389e-09
5.8758e-07
1.68309e-05
0.000284172
0.00347235
0.0234488
0.0472434
0.0342696
0.00230078
3.42814e-17
-9.0349e-70
-1.25959e-64
2.22905e-74
3.98063e-49
2.85955e-29
1.3392e-24
2.07024e-27
5.10211e-23
1.66076e-37
6.5026e-40
5.38636e-55
1.58366e-143
6.54482e-92
-7.93936e-78
-3.83104e-37
-4.93907e-40
-1.8998e-43
-4.8866e-47
-1.53085e-50
-4.57588e-54
-9.85383e-58
-1.48015e-61
-1.6506e-65
-1.51329e-69
-1.35376e-73
-1.42819e-77
-1.71691e-81
-1.9527e-85
-1.84907e-89
-1.55038e-93
-1.12214e-97
-4.61487e-102
-9.10081e-101
-1.28049e-96
-9.24845e-93
-4.71391e-89
-1.95773e-85
-7.40941e-82
-2.72299e-78
1.97846e-60
9.83152e-57
-4.39516e-179
-1.05656e-177
-1.14562e-175
3.95336e-161
-1.23503e-128
-6.12925e-92
-9.95896e-77
-3.46014e-73
-3.12384e-70
-1.19137e-67
-1.30724e-65
1.07283e-62
2.68321e-57
6.75349e-56
-2.63884e-59
1.51767e-70
2.03362e-95
-1.02444e-118
8.58764e-117
-3.5595e-83
-5.24688e-50
-1.73022e-38
-3.04107e-37
-5.48828e-40
-6.34405e-43
-5.72204e-46
-4.28306e-49
-2.87859e-52
-1.85196e-55
-1.16135e-58
-6.71696e-62
-2.94015e-65
-8.9543e-69
-1.93025e-72
-4.25637e-76
-1.34939e-79
-6.79774e-83
-5.07267e-86
-4.7486e-89
-4.85116e-92
-5.47253e-95
-6.61548e-98
-8.53264e-101
-1.14526e-103
-1.45338e-106
-1.23363e-87
-9.46379e-73
-3.00292e-54
-4.89296e-47
-6.53334e-44
-2.98882e-41
-6.09314e-39
-3.76917e-37
-3.45966e-34
2.30888e-14
4.43384e-13
-4.8081e-39
4.68066e-19
9.92185e-25
3.65555e-22
1.25984e-19
1.69671e-19
1.5196e-19
2.28785e-19
2.47351e-19
2.48444e-40
-3.09307e-37
-3.04398e-32
-1.31782e-29
-2.6698e-31
-3.75682e-33
-1.11526e-34
-6.39283e-31
-3.70949e-31
-4.96029e-33
-4.15578e-35
-2.6194e-37
-1.36553e-39
-1.32743e-38
-6.32846e-37
-1.25391e-34
-6.20323e-34
-1.79377e-35
-2.57108e-37
-1.23956e-36
-1.89211e-38
-1.02782e-40
-3.30772e-43
-9.56141e-46
-2.66095e-48
-7.52847e-51
-2.32226e-53
-1.81921e-53
-2.45833e-50
-9.31312e-48
-5.96109e-46
5.60142e-43
3.63014e-41
2.19754e-34
3.23684e-32
1.26259e-31
-6.85647e-53
9.05972e-59
3.04528e-39
1.47868e-37
6.4058e-37
1.4913e-36
-3.55213e-56
1.04648e-34
1.87224e-36
4.19194e-31
3.66189e-30
-9.18843e-32
-2.36061e-31
7.43677e-41
4.28343e-21
3.59206e-28
2.35488e-19
3.62712e-18
1.0769e-17
3.78411e-23
6.64026e-24
2.88156e-22
1.03951e-118
4.46018e-97
2.4971e-77
2.12774e-68
2.66388e-48
1.65939e-43
-1.37851e-60
1.85845e-41
9.36273e-56
1.74027e-57
-1.084e-154
2.98615e-153
2.86933e-140
-6.47211e-81
-5.71219e-40
-4.64347e-43
-1.6597e-46
-6.35656e-50
-2.33725e-53
-5.92292e-57
-1.01095e-60
-1.19524e-64
-1.09044e-68
-9.6635e-73
-1.0311e-76
-1.24793e-80
-1.4829e-84
-1.5923e-88
-1.48876e-92
-1.3338e-96
-1.05065e-100
-4.36403e-105
-3.35728e-105
-4.65678e-101
-3.33738e-97
-1.68693e-93
-6.91576e-90
-2.54377e-86
-9.07597e-83
-2.94851e-185
-1.09497e-182
-3.674e-180
-6.77395e-179
-9.13193e-178
2.60163e-164
-3.68833e-125
-6.40738e-90
-1.59094e-76
-9.42153e-73
-1.80846e-69
-1.88748e-66
-1.2476e-63
-5.59537e-61
-1.66757e-58
-3.31081e-56
-3.59513e-54
7.19571e-88
8.85843e-115
-2.19585e-119
1.32408e-117
-1.12335e-83
-3.88141e-51
-4.26261e-40
-1.01272e-39
-1.95752e-42
-2.4418e-45
-2.40185e-48
-2.01166e-51
-1.53107e-54
-1.07414e-57
-6.82138e-61
-3.81397e-64
-1.60106e-67
-4.76562e-71
-1.04719e-74
-2.42555e-78
-8.05223e-82
-4.20697e-85
-3.21565e-88
-2.98037e-91
-2.89435e-94
-3.11422e-97
-3.58291e-100
-4.36941e-103
-5.49985e-106
-6.52575e-109
-6.66695e-88
-3.29539e-73
-8.73668e-54
-2.07661e-46
-1.93056e-43
-6.80886e-41
-1.47897e-38
-2.12358e-36
-2.15383e-34
-1.86069e-32
-1.25657e-30
-5.58563e-29
1.0005e-36
-9.38187e-45
1.33405e-47
1.60984e-38
4.26822e-36
-6.21023e-39
6.04443e-36
9.58391e-36
-1.8056e-37
-4.33995e-35
-1.24943e-32
-4.86882e-30
-6.59832e-32
-8.16127e-34
-2.42706e-35
-4.80853e-32
-1.03267e-32
-1.49317e-34
-1.32307e-36
-8.7033e-39
-4.80175e-41
-1.54974e-39
-5.25123e-38
-5.90428e-36
-1.28751e-35
-3.74051e-37
-5.52175e-39
-1.28541e-38
-1.77385e-40
-8.73846e-43
-2.59148e-45
-7.09101e-48
-1.95529e-50
-5.68719e-53
-1.81254e-55
-5.25455e-54
-7.89838e-51
-3.74843e-48
-6.50065e-46
-4.63243e-44
-1.35721e-42
-1.50823e-41
-6.00466e-41
1.37021e-47
-3.93821e-52
-1.11214e-50
-2.19497e-49
-2.61709e-48
-1.06914e-47
-1.28615e-47
-1.36218e-44
1.08656e-54
-1.27387e-36
-5.10252e-35
-1.64753e-33
-3.09716e-32
-2.00435e-31
3.45975e-32
1.25659e-29
3.59175e-28
3.95917e-26
2.74199e-25
3.33259e-24
1.9351e-23
5.08323e-24
4.25934e-23
-3.87394e-103
-1.69858e-96
-3.19126e-91
-1.64395e-86
-1.80982e-82
-5.99566e-69
-1.79693e-64
-1.73663e-180
-5.0064e-177
-8.20061e-159
-2.21561e-155
-9.61637e-152
1.03502e-142
-5.19739e-84
-5.14789e-43
-3.51659e-46
-1.92068e-49
-9.05776e-53
-2.8473e-56
-5.73379e-60
-7.71509e-64
-7.43284e-68
-6.36428e-72
-6.68633e-76
-8.3987e-80
-1.02274e-83
-1.14621e-87
-1.18677e-91
-1.16866e-95
-1.16209e-99
-9.54804e-104
-3.80762e-108
-5.28731e-110
-6.55929e-106
-4.11445e-102
-1.7508e-98
-5.67386e-95
-1.45138e-91
-2.4854e-88
-2.3164e-186
-8.33257e-184
-2.28144e-181
-3.24449e-180
-8.92871e-180
1.31652e-167
-1.24373e-121
-4.63642e-88
-5.77369e-78
-3.49768e-74
-7.48502e-71
-8.91689e-68
-6.85426e-65
-3.65822e-62
-1.34651e-59
-3.15098e-57
-3.90465e-55
-4.58424e-85
1.09627e-134
-3.57693e-120
4.00792e-137
-1.8445e-84
-1.9633e-52
-7.65882e-42
-3.2975e-42
-6.8724e-45
-9.47828e-48
-1.05859e-50
-1.01274e-53
-8.45714e-57
-6.09568e-60
-3.73369e-63
-1.96554e-66
-7.82293e-70
-2.2644e-73
-5.04442e-77
-1.21455e-80
-4.18009e-84
-2.24098e-87
-1.73098e-90
-1.56785e-93
-1.43229e-96
-1.46715e-99
-1.60331e-102
-1.84674e-105
-2.18058e-108
-2.57287e-111
-1.04145e-89
-1.14806e-74
-1.81416e-56
-1.20813e-49
-1.04338e-46
-3.61809e-44
-8.03129e-42
-1.23872e-39
-1.3805e-37
-1.23321e-35
-8.0943e-34
-2.95291e-32
-4.76855e-57
-3.07022e-48
1.43963e-61
1.13641e-58
2.91088e-56
1.49344e-71
2.8099e-55
-2.5914e-56
-4.08948e-38
-9.25508e-36
-2.32992e-33
-8.85249e-31
-9.93695e-33
-1.12051e-34
-3.80812e-36
-2.89036e-33
-2.95261e-34
-4.36903e-36
-3.99435e-38
-2.726e-40
-1.63469e-42
-1.51323e-40
-3.63711e-39
-2.31258e-37
-2.58937e-37
-7.48902e-39
-1.11281e-40
-1.17011e-40
-1.46796e-42
-6.71369e-45
-1.90352e-47
-5.15988e-50
-1.46461e-52
-4.41985e-55
-1.4171e-57
-1.35216e-57
-2.14638e-54
-1.10334e-51
-2.12588e-49
-1.71753e-47
-5.76178e-46
-7.31406e-45
-3.34951e-44
-1.31337e-53
-6.91024e-52
-2.5105e-50
-6.39716e-49
-9.6947e-48
-7.49999e-47
-2.1688e-44
-3.91346e-42
-4.13364e-40
-3.26541e-38
-7.39756e-37
-3.66784e-35
-6.85259e-34
1.4716e-33
1.54103e-31
2.25805e-29
6.26916e-28
8.83795e-26
4.87145e-25
3.42985e-24
2.41488e-23
1.54837e-24
2.39406e-26
-3.59788e-99
-1.50642e-92
-3.97592e-87
-4.12877e-82
-2.48012e-77
-1.01254e-72
-2.32981e-68
-7.60585e-167
-2.33409e-163
-6.43458e-160
-1.72352e-156
-7.97367e-153
8.28488e-144
-3.60392e-87
-3.46846e-46
-3.67936e-49
-2.60252e-52
-1.05448e-55
-2.63375e-59
-4.17562e-63
-4.5462e-67
-4.05573e-71
-4.07657e-75
-5.1714e-79
-6.61621e-83
-7.61179e-87
-8.12137e-91
-8.6239e-95
-9.49806e-99
-1.0192e-102