/*--------------------------------*- C++ -*----------------------------------*\
| =========                 |                                                 |
| \\      /  F ield         | OpenFOAM: The Open Source CFD Toolbox           |
|  \\    /   O peration     | Version:  v1912                                 |
|   \\  /    A nd           | Website:  www.openfoam.com                      |
|    \\/     M anipulation  |                                                 |
\*---------------------------------------------------------------------------*/
FoamFile
{
    version     2.0;
    format      ascii;
    class       volScalarField;
    location    "100";
    object      k;
}
// * * * * * * * * * * * * * * * * * * * * * * * * * * * * * * * * * * * * * //

dimensions      [0 2 -2 0 0 0 0];


internalField   nonuniform List<scalar> 
14268
(
6.07902e-07
6.10963e-07
6.05714e-07
5.97138e-07
5.89668e-07
5.82524e-07
5.75701e-07
5.6955e-07
5.63945e-07
5.58741e-07
5.53868e-07
5.49278e-07
5.44984e-07
5.41118e-07
5.37799e-07
5.35084e-07
5.33061e-07
5.31733e-07
5.31026e-07
5.30825e-07
5.30982e-07
5.31361e-07
5.31882e-07
5.32738e-07
5.34048e-07
5.35848e-07
5.3811e-07
5.40713e-07
5.43542e-07
5.46524e-07
5.49598e-07
5.52727e-07
5.55873e-07
5.58607e-07
5.60878e-07
5.62719e-07
5.64153e-07
5.65236e-07
5.66053e-07
5.66698e-07
5.67228e-07
5.67674e-07
5.68099e-07
5.68522e-07
5.68941e-07
5.69302e-07
5.69539e-07
5.69671e-07
5.69715e-07
5.69682e-07
5.69592e-07
5.69456e-07
5.6929e-07
5.69086e-07
5.68812e-07
5.68468e-07
5.68101e-07
5.67718e-07
5.67299e-07
5.66831e-07
5.66322e-07
5.65804e-07
5.65299e-07
5.64816e-07
5.64353e-07
5.63909e-07
5.63507e-07
5.63182e-07
5.62944e-07
5.62752e-07
5.62534e-07
5.62219e-07
5.61838e-07
5.6144e-07
5.6101e-07
5.60554e-07
5.60083e-07
5.59609e-07
5.59146e-07
5.58722e-07
5.58387e-07
5.58174e-07
5.58219e-07
5.58654e-07
5.59545e-07
5.60887e-07
5.62615e-07
5.64643e-07
5.66839e-07
5.69027e-07
5.71084e-07
5.7288e-07
5.74322e-07
5.75365e-07
5.75998e-07
5.76247e-07
5.76159e-07
5.75766e-07
5.75111e-07
5.74231e-07
5.73217e-07
5.72203e-07
5.712e-07
5.70212e-07
5.69242e-07
5.68288e-07
5.67349e-07
5.6643e-07
5.65535e-07
5.64682e-07
5.63896e-07
5.6318e-07
5.62533e-07
5.62015e-07
5.61608e-07
5.61278e-07
5.6101e-07
5.60782e-07
5.60579e-07
5.60389e-07
5.60203e-07
5.6001e-07
5.598e-07
5.5957e-07
5.59323e-07
5.59065e-07
5.58797e-07
5.58512e-07
5.58213e-07
5.58035e-07
5.58145e-07
5.5856e-07
5.59294e-07
5.60325e-07
5.61635e-07
5.6318e-07
5.64885e-07
5.66657e-07
5.68548e-07
5.7047e-07
5.72367e-07
5.74081e-07
5.75566e-07
5.76797e-07
5.77738e-07
5.78384e-07
5.78755e-07
5.78889e-07
5.78826e-07
5.78602e-07
5.78244e-07
5.77779e-07
5.77242e-07
5.76667e-07
5.76091e-07
5.75543e-07
5.75041e-07
5.74568e-07
5.74111e-07
5.73675e-07
5.73279e-07
5.72882e-07
5.72651e-07
5.7262e-07
3.25569e-08
4.99532e-08
9.77444e-08
1.52188e-07
1.86089e-07
2.03774e-07
2.11677e-07
2.14336e-07
2.14545e-07
2.13706e-07
2.1218e-07
2.10256e-07
2.08113e-07
2.05795e-07
2.03434e-07
2.01296e-07
1.9942e-07
1.97903e-07
1.96787e-07
1.96099e-07
1.95856e-07
1.96095e-07
1.96823e-07
1.97877e-07
1.99134e-07
2.0052e-07
2.02002e-07
2.03779e-07
2.05898e-07
2.08271e-07
2.10879e-07
2.13694e-07
2.16662e-07
2.19345e-07
2.21681e-07
2.23783e-07
2.25652e-07
2.2728e-07
2.28666e-07
2.29812e-07
2.30718e-07
2.31443e-07
2.3216e-07
2.32939e-07
2.33748e-07
2.34531e-07
2.35438e-07
2.36397e-07
2.37412e-07
2.38438e-07
2.39425e-07
2.40264e-07
2.4088e-07
2.41202e-07
2.41179e-07
2.40809e-07
2.40141e-07
2.39217e-07
2.38071e-07
2.36763e-07
2.35377e-07
2.33971e-07
2.32616e-07
2.31386e-07
2.30345e-07
2.29545e-07
2.2901e-07
2.28735e-07
2.28694e-07
2.28854e-07
2.29173e-07
2.29594e-07
2.30053e-07
2.3047e-07
2.30816e-07
2.3109e-07
2.31299e-07
2.31482e-07
2.31706e-07
2.31992e-07
2.32431e-07
2.33119e-07
2.34193e-07
2.35748e-07
2.37827e-07
2.40424e-07
2.43495e-07
2.4695e-07
2.50678e-07
2.54563e-07
2.58463e-07
2.622e-07
2.65649e-07
2.68698e-07
2.7127e-07
2.73334e-07
2.74898e-07
2.75999e-07
2.76687e-07
2.77008e-07
2.76973e-07
2.76539e-07
2.7571e-07
2.74483e-07
2.7284e-07
2.70778e-07
2.68324e-07
2.65526e-07
2.62454e-07
2.59195e-07
2.55862e-07
2.52468e-07
2.49238e-07
2.46198e-07
2.43417e-07
2.40928e-07
2.38698e-07
2.36697e-07
2.34895e-07
2.33251e-07
2.31725e-07
2.30285e-07
2.28922e-07
2.27657e-07
2.26538e-07
2.25632e-07
2.25005e-07
2.24706e-07
2.24823e-07
2.25315e-07
2.2617e-07
2.27388e-07
2.28983e-07
2.30936e-07
2.33243e-07
2.35902e-07
2.3885e-07
2.41934e-07
2.45152e-07
2.48379e-07
2.51618e-07
2.5483e-07
2.57876e-07
2.60655e-07
2.63133e-07
2.65269e-07
2.6707e-07
2.68576e-07
2.69842e-07
2.70937e-07
2.71941e-07
2.72929e-07
2.73957e-07
2.75049e-07
2.76206e-07
2.77417e-07
2.78648e-07
2.7984e-07
2.80893e-07
2.81747e-07
2.82256e-07
2.82554e-07
2.82356e-07
2.81689e-07
3.03937e-09
7.09748e-09
1.94212e-08
3.89633e-08
5.69852e-08
6.75773e-08
7.29414e-08
7.51631e-08
7.57083e-08
7.54941e-08
7.47222e-08
7.36053e-08
7.22918e-08
7.08597e-08
6.94147e-08
6.80854e-08
6.69135e-08
6.59495e-08
6.52187e-08
6.47317e-08
6.4488e-08
6.44868e-08
6.47255e-08
6.51421e-08
6.57231e-08
6.64864e-08
6.74334e-08
6.85245e-08
6.97123e-08
7.09757e-08
7.23288e-08
7.37593e-08
7.5253e-08
7.66393e-08
7.78545e-08
7.88846e-08
7.97565e-08
8.04833e-08
8.10667e-08
8.15146e-08
8.18499e-08
8.2112e-08
8.23577e-08
8.26246e-08
8.29417e-08
8.33121e-08
8.37543e-08
8.42596e-08
8.48061e-08
8.53662e-08
8.59035e-08
8.63628e-08
8.66986e-08
8.68732e-08
8.68657e-08
8.66732e-08
8.63155e-08
8.58188e-08
8.52103e-08
8.45258e-08
8.38063e-08
8.30856e-08
8.2401e-08
8.17883e-08
8.12781e-08
8.08942e-08
8.06496e-08
8.05436e-08
8.05674e-08
8.07005e-08
8.09162e-08
8.11828e-08
8.1466e-08
8.17315e-08
8.19546e-08
8.21241e-08
8.22429e-08
8.2331e-08
8.24252e-08
8.2552e-08
8.27541e-08
8.30831e-08
8.35963e-08
8.43375e-08
8.53323e-08
8.65874e-08
8.80922e-08
8.98137e-08
9.17038e-08
9.37058e-08
9.57464e-08
9.77359e-08
9.96014e-08
1.01277e-07
1.02715e-07
1.03894e-07
1.04815e-07
1.05495e-07
1.05964e-07
1.06245e-07
1.06335e-07
1.06206e-07
1.05851e-07
1.05263e-07
1.04434e-07
1.03361e-07
1.02061e-07
1.00567e-07
9.89244e-08
9.71883e-08
9.54241e-08
9.36695e-08
9.20105e-08
9.04805e-08
8.91037e-08
8.78934e-08
8.68317e-08
8.58979e-08
8.50699e-08
8.43239e-08
8.36371e-08
8.29943e-08
8.23902e-08
8.1834e-08
8.13464e-08
8.09555e-08
8.06925e-08
8.05826e-08
8.0663e-08
8.09104e-08
8.13105e-08
8.18664e-08
8.25851e-08
8.34614e-08
8.44924e-08
8.56789e-08
8.69936e-08
8.8388e-08
8.98554e-08
9.13436e-08
9.2846e-08
9.43399e-08
9.57708e-08
9.70959e-08
9.82956e-08
9.93419e-08
1.0024e-07
1.01005e-07
1.01664e-07
1.02251e-07
1.02807e-07
1.03369e-07
1.03964e-07
1.04602e-07
1.05282e-07
1.05994e-07
1.06714e-07
1.07407e-07
1.08022e-07
1.08514e-07
1.08808e-07
1.08963e-07
1.08836e-07
1.08432e-07
1.67398e-09
3.48912e-09
9.17335e-09
1.90992e-08
2.95886e-08
3.61078e-08
3.95799e-08
4.11944e-08
4.18029e-08
4.19021e-08
4.17183e-08
4.13617e-08
4.09289e-08
4.04649e-08
4.00132e-08
3.96156e-08
3.92871e-08
3.90411e-08
3.88812e-08
3.88051e-08
3.88102e-08
3.8893e-08
3.90491e-08
3.92629e-08
3.95361e-08
3.98752e-08
4.02816e-08
4.07409e-08
4.12337e-08
4.1749e-08
4.22836e-08
4.28349e-08
4.33873e-08
4.39072e-08
4.43773e-08
4.47864e-08
4.51396e-08
4.54405e-08
4.56907e-08
4.58942e-08
4.60608e-08
4.62048e-08
4.6342e-08
4.64834e-08
4.66403e-08
4.68202e-08
4.70304e-08
4.72613e-08
4.75048e-08
4.77512e-08
4.79892e-08
4.81996e-08
4.83661e-08
4.84767e-08
4.85246e-08
4.85102e-08
4.84399e-08
4.83231e-08
4.81705e-08
4.79948e-08
4.78095e-08
4.76253e-08
4.74547e-08
4.73084e-08
4.71954e-08
4.71224e-08
4.70921e-08
4.71053e-08
4.71586e-08
4.72447e-08
4.73539e-08
4.7476e-08
4.76018e-08
4.77207e-08
4.78234e-08
4.79076e-08
4.79742e-08
4.80301e-08
4.80878e-08
4.81566e-08
4.82513e-08
4.83889e-08
4.85859e-08
4.88559e-08
4.92073e-08
4.96437e-08
5.01633e-08
5.07561e-08
5.14071e-08
5.21003e-08
5.28111e-08
5.35078e-08
5.41659e-08
5.47622e-08
5.52798e-08
5.57109e-08
5.60555e-08
5.63197e-08
5.65131e-08
5.66442e-08
5.67065e-08
5.66842e-08
5.65737e-08
5.63719e-08
5.60763e-08
5.56878e-08
5.52151e-08
5.4673e-08
5.40811e-08
5.34616e-08
5.28388e-08
5.22325e-08
5.16716e-08
5.11596e-08
5.07034e-08
5.03089e-08
4.99676e-08
4.96713e-08
4.94116e-08
4.91808e-08
4.89709e-08
4.87771e-08
4.85978e-08
4.84357e-08
4.82975e-08
4.8191e-08
4.8125e-08
4.81078e-08
4.81487e-08
4.82409e-08
4.83811e-08
4.85698e-08
4.88109e-08
4.91026e-08
4.94452e-08
4.98408e-08
5.02793e-08
5.075e-08
5.12498e-08
5.1755e-08
5.22669e-08
5.27847e-08
5.32868e-08
5.3759e-08
5.41901e-08
5.45727e-08
5.49079e-08
5.51999e-08
5.5457e-08
5.56915e-08
5.59181e-08
5.61496e-08
5.63958e-08
5.66604e-08
5.69415e-08
5.72363e-08
5.75354e-08
5.78259e-08
5.80878e-08
5.83062e-08
5.84477e-08
5.85385e-08
5.84943e-08
5.83123e-08
1.46423e-09
2.91713e-09
7.40373e-09
1.52646e-08
2.37187e-08
2.90203e-08
3.18652e-08
3.32351e-08
3.38322e-08
3.40415e-08
3.40655e-08
3.40065e-08
3.39099e-08
3.38049e-08
3.37079e-08
3.36332e-08
3.35866e-08
3.35712e-08
3.35869e-08
3.36317e-08
3.37031e-08
3.3799e-08
3.39175e-08
3.4053e-08
3.42041e-08
3.43719e-08
3.45558e-08
3.47568e-08
3.49718e-08
3.51969e-08
3.54289e-08
3.56652e-08
3.59014e-08
3.61304e-08
3.63458e-08
3.65411e-08
3.67155e-08
3.68686e-08
3.70002e-08
3.7112e-08
3.72075e-08
3.72933e-08
3.73771e-08
3.74626e-08
3.75537e-08
3.76536e-08
3.77697e-08
3.78943e-08
3.80222e-08
3.815e-08
3.82752e-08
3.83881e-08
3.84818e-08
3.85516e-08
3.85947e-08
3.86114e-08
3.86051e-08
3.85789e-08
3.85376e-08
3.84868e-08
3.84321e-08
3.83774e-08
3.83275e-08
3.82867e-08
3.82586e-08
3.82457e-08
3.82502e-08
3.82725e-08
3.8311e-08
3.83628e-08
3.84237e-08
3.84896e-08
3.85564e-08
3.86191e-08
3.86738e-08
3.8719e-08
3.87555e-08
3.87871e-08
3.88195e-08
3.88548e-08
3.89019e-08
3.89672e-08
3.90573e-08
3.91775e-08
3.9332e-08
3.95235e-08
3.97531e-08
4.0017e-08
4.03102e-08
4.06287e-08
4.09613e-08
4.12923e-08
4.16096e-08
4.19005e-08
4.21555e-08
4.23693e-08
4.25411e-08
4.26734e-08
4.27706e-08
4.28371e-08
4.28714e-08
4.28694e-08
4.28291e-08
4.27483e-08
4.26258e-08
4.24622e-08
4.22617e-08
4.20311e-08
4.17797e-08
4.15178e-08
4.12559e-08
4.10076e-08
4.07859e-08
4.05845e-08
4.0407e-08
4.0258e-08
4.01323e-08
4.0026e-08
3.9935e-08
3.98559e-08
3.97847e-08
3.97193e-08
3.9659e-08
3.96053e-08
3.95613e-08
3.95299e-08
3.95143e-08
3.95193e-08
3.95466e-08
3.95928e-08
3.96566e-08
3.97372e-08
3.9837e-08
3.99552e-08
4.00928e-08
4.02519e-08
4.04303e-08
4.06263e-08
4.08362e-08
4.10462e-08
4.126e-08
4.14838e-08
4.17044e-08
4.19127e-08
4.21036e-08
4.22723e-08
4.24187e-08
4.25443e-08
4.26528e-08
4.27506e-08
4.28448e-08
4.29422e-08
4.30478e-08
4.3163e-08
4.32868e-08
4.34181e-08
4.35504e-08
4.36771e-08
4.37877e-08
4.38799e-08
4.39412e-08
4.39813e-08
4.39439e-08
4.38247e-08
1.42037e-09
2.79094e-09
7.03392e-09
1.45106e-08
2.26352e-08
2.77381e-08
3.04632e-08
3.17772e-08
3.23682e-08
3.26286e-08
3.27434e-08
3.27962e-08
3.28251e-08
3.28457e-08
3.2866e-08
3.28931e-08
3.29301e-08
3.29781e-08
3.30367e-08
3.31051e-08
3.31823e-08
3.32675e-08
3.33598e-08
3.34569e-08
3.35595e-08
3.36683e-08
3.37832e-08
3.39045e-08
3.40298e-08
3.41569e-08
3.42839e-08
3.44073e-08
3.4527e-08
3.4642e-08
3.47516e-08
3.48526e-08
3.49449e-08
3.50284e-08
3.5103e-08
3.51692e-08
3.52285e-08
3.52848e-08
3.53412e-08
3.53987e-08
3.54579e-08
3.55208e-08
3.55915e-08
3.56646e-08
3.57373e-08
3.58095e-08
3.5881e-08
3.59473e-08
3.60053e-08
3.60534e-08
3.60908e-08
3.61181e-08
3.61368e-08
3.61486e-08
3.61557e-08
3.61608e-08
3.6166e-08
3.61721e-08
3.61806e-08
3.61929e-08
3.62096e-08
3.62314e-08
3.62588e-08
3.62915e-08
3.63289e-08
3.63694e-08
3.64114e-08
3.64536e-08
3.64956e-08
3.65351e-08
3.65699e-08
3.66001e-08
3.66275e-08
3.66553e-08
3.66837e-08
3.67119e-08
3.67457e-08
3.67867e-08
3.68364e-08
3.68962e-08
3.69672e-08
3.70506e-08
3.71474e-08
3.72557e-08
3.73736e-08
3.75024e-08
3.76374e-08
3.77712e-08
3.78993e-08
3.80168e-08
3.81198e-08
3.82066e-08
3.82775e-08
3.8334e-08
3.83782e-08
3.84118e-08
3.84338e-08
3.84406e-08
3.84317e-08
3.84059e-08
3.83632e-08
3.83042e-08
3.82319e-08
3.81496e-08
3.80617e-08
3.79727e-08
3.78866e-08
3.78113e-08
3.77533e-08
3.77023e-08
3.76599e-08
3.76293e-08
3.76074e-08
3.75921e-08
3.75811e-08
3.75743e-08
3.75704e-08
3.75678e-08
3.75677e-08
3.75699e-08
3.75763e-08
3.75868e-08
3.76019e-08
3.76228e-08
3.76482e-08
3.76772e-08
3.77108e-08
3.77472e-08
3.77881e-08
3.78327e-08
3.78818e-08
3.79372e-08
3.79992e-08
3.80681e-08
3.81418e-08
3.82094e-08
3.82772e-08
3.8354e-08
3.84309e-08
3.85033e-08
3.85707e-08
3.86304e-08
3.8683e-08
3.87289e-08
3.87697e-08
3.88077e-08
3.88458e-08
3.88862e-08
3.89304e-08
3.8978e-08
3.90277e-08
3.90799e-08
3.91324e-08
3.91831e-08
3.92288e-08
3.92701e-08
3.92981e-08
3.93302e-08
3.93097e-08
3.92442e-08
1.4055e-09
2.73933e-09
6.90077e-09
1.43449e-08
2.26016e-08
2.78487e-08
3.06472e-08
3.19918e-08
3.25986e-08
3.28742e-08
3.30115e-08
3.30948e-08
3.31595e-08
3.3219e-08
3.32779e-08
3.33399e-08
3.34058e-08
3.34744e-08
3.35435e-08
3.36117e-08
3.36786e-08
3.37439e-08
3.38078e-08
3.38702e-08
3.39334e-08
3.39985e-08
3.40669e-08
3.41391e-08
3.42147e-08
3.42933e-08
3.43741e-08
3.44551e-08
3.45365e-08
3.46155e-08
3.46904e-08
3.47588e-08
3.48209e-08
3.48771e-08
3.49277e-08
3.49729e-08
3.5014e-08
3.50549e-08
3.50964e-08
3.51385e-08
3.51811e-08
3.52292e-08
3.52802e-08
3.53311e-08
3.53812e-08
3.54312e-08
3.54803e-08
3.55274e-08
3.55698e-08
3.56065e-08
3.56376e-08
3.56635e-08
3.56852e-08
3.57039e-08
3.57207e-08
3.57376e-08
3.57556e-08
3.57744e-08
3.57944e-08
3.58162e-08
3.58398e-08
3.58653e-08
3.58931e-08
3.59229e-08
3.59542e-08
3.59859e-08
3.6017e-08
3.60471e-08
3.60766e-08
3.61038e-08
3.6127e-08
3.61472e-08
3.61666e-08
3.6188e-08
3.62099e-08
3.62323e-08
3.62584e-08
3.62886e-08
3.63235e-08
3.6363e-08
3.64073e-08
3.6457e-08
3.65132e-08
3.65746e-08
3.66405e-08
3.67134e-08
3.67914e-08
3.68698e-08
3.69465e-08
3.70181e-08
3.70817e-08
3.7136e-08
3.71807e-08
3.72168e-08
3.72456e-08
3.7268e-08
3.7284e-08
3.7292e-08
3.72914e-08
3.72817e-08
3.72625e-08
3.72343e-08
3.71992e-08
3.71592e-08
3.7117e-08
3.70753e-08
3.70359e-08
3.70048e-08
3.69862e-08
3.69708e-08
3.69597e-08
3.69555e-08
3.69557e-08
3.69592e-08
3.69639e-08
3.69696e-08
3.69765e-08
3.69832e-08
3.69919e-08
3.70015e-08
3.70139e-08
3.70288e-08
3.70466e-08
3.70678e-08
3.70912e-08
3.71159e-08
3.71418e-08
3.71674e-08
3.71937e-08
3.72207e-08
3.72482e-08
3.72786e-08
3.73127e-08
3.73518e-08
3.73945e-08
3.74307e-08
3.74672e-08
3.7514e-08
3.75624e-08
3.76083e-08
3.76512e-08
3.76887e-08
3.77208e-08
3.77476e-08
3.777e-08
3.77901e-08
3.78101e-08
3.78321e-08
3.78572e-08
3.78853e-08
3.79149e-08
3.79454e-08
3.79763e-08
3.80046e-08
3.80281e-08
3.80477e-08
3.80565e-08
3.8074e-08
3.80514e-08
3.79974e-08
1.39028e-09
2.68708e-09
6.77069e-09
1.42154e-08
2.27713e-08
2.83626e-08
3.1358e-08
3.2791e-08
3.34318e-08
3.37203e-08
3.3868e-08
3.39648e-08
3.40462e-08
3.41239e-08
3.41997e-08
3.42743e-08
3.43464e-08
3.44142e-08
3.44756e-08
3.453e-08
3.45772e-08
3.46178e-08
3.46521e-08
3.46807e-08
3.47058e-08
3.4728e-08
3.47488e-08
3.47694e-08
3.47911e-08
3.48151e-08
3.48423e-08
3.48719e-08
3.4905e-08
3.49399e-08
3.49765e-08
3.50127e-08
3.5048e-08
3.50819e-08
3.51143e-08
3.51448e-08
3.5174e-08
3.52055e-08
3.52381e-08
3.52712e-08
3.5304e-08
3.53453e-08
3.53861e-08
3.54252e-08
3.54638e-08
3.5502e-08
3.55396e-08
3.55768e-08
3.56108e-08
3.56408e-08
3.56667e-08
3.56892e-08
3.5709e-08
3.57271e-08
3.57446e-08
3.5763e-08
3.57832e-08
3.58046e-08
3.58273e-08
3.58513e-08
3.58764e-08
3.59026e-08
3.59298e-08
3.59577e-08
3.59857e-08
3.6013e-08
3.6039e-08
3.60632e-08
3.60868e-08
3.61089e-08
3.61267e-08
3.61422e-08
3.61587e-08
3.61773e-08
3.61977e-08
3.62199e-08
3.62443e-08
3.62727e-08
3.63046e-08
3.6339e-08
3.63757e-08
3.64146e-08
3.64562e-08
3.64994e-08
3.6543e-08
3.65898e-08
3.66381e-08
3.66847e-08
3.67284e-08
3.67676e-08
3.68015e-08
3.68299e-08
3.68532e-08
3.68724e-08
3.68885e-08
3.69024e-08
3.69134e-08
3.69199e-08
3.69211e-08
3.69169e-08
3.6907e-08
3.6892e-08
3.68736e-08
3.68536e-08
3.68337e-08
3.68159e-08
3.68017e-08
3.67956e-08
3.67991e-08
3.68045e-08
3.68125e-08
3.68251e-08
3.68398e-08
3.68555e-08
3.6871e-08
3.68861e-08
3.69008e-08
3.69161e-08
3.69333e-08
3.69514e-08
3.69715e-08
3.69935e-08
3.70173e-08
3.70421e-08
3.70671e-08
3.70922e-08
3.71164e-08
3.7139e-08
3.71601e-08
3.71799e-08
3.71976e-08
3.72157e-08
3.72346e-08
3.72561e-08
3.72788e-08
3.72936e-08
3.73063e-08
3.7327e-08
3.73486e-08
3.73683e-08
3.73866e-08
3.7402e-08
3.74149e-08
3.74256e-08
3.74346e-08
3.74434e-08
3.74533e-08
3.74656e-08
3.74804e-08
3.74964e-08
3.75115e-08
3.75266e-08
3.7541e-08
3.7554e-08
3.75639e-08
3.7574e-08
3.75754e-08
3.75898e-08
3.7573e-08
3.75335e-08
1.36723e-09
2.61832e-09
6.59925e-09
1.40023e-08
2.27665e-08
2.88208e-08
3.21384e-08
3.37551e-08
3.44684e-08
3.47715e-08
3.49073e-08
3.49813e-08
3.50357e-08
3.50854e-08
3.51328e-08
3.51792e-08
3.52243e-08
3.52669e-08
3.53063e-08
3.53412e-08
3.53707e-08
3.53949e-08
3.54136e-08
3.5427e-08
3.54368e-08
3.54443e-08
3.54502e-08
3.54545e-08
3.54573e-08
3.54591e-08
3.54613e-08
3.54639e-08
3.54679e-08
3.54717e-08
3.54762e-08
3.54808e-08
3.54865e-08
3.54946e-08
3.55047e-08
3.55166e-08
3.55306e-08
3.55489e-08
3.55692e-08
3.55896e-08
3.56142e-08
3.56446e-08
3.56714e-08
3.56956e-08
3.57191e-08
3.57422e-08
3.57651e-08
3.57892e-08
3.58124e-08
3.58338e-08
3.58531e-08
3.5871e-08
3.58881e-08
3.59051e-08
3.59229e-08
3.59423e-08
3.59641e-08
3.59872e-08
3.60113e-08
3.60361e-08
3.60612e-08
3.60862e-08
3.61108e-08
3.61347e-08
3.61573e-08
3.61783e-08
3.61972e-08
3.62137e-08
3.6229e-08
3.62437e-08
3.62533e-08
3.62613e-08
3.62721e-08
3.62855e-08
3.63028e-08
3.63232e-08
3.63446e-08
3.63704e-08
3.63994e-08
3.64299e-08
3.64609e-08
3.64922e-08
3.65244e-08
3.65571e-08
3.65896e-08
3.66248e-08
3.66618e-08
3.66981e-08
3.67326e-08
3.67635e-08
3.67896e-08
3.68105e-08
3.6827e-08
3.68405e-08
3.68519e-08
3.68618e-08
3.68699e-08
3.68743e-08
3.68742e-08
3.68693e-08
3.68594e-08
3.68451e-08
3.6828e-08
3.68096e-08
3.6792e-08
3.67771e-08
3.6766e-08
3.67627e-08
3.67679e-08
3.67763e-08
3.67873e-08
3.68025e-08
3.6819e-08
3.6836e-08
3.68522e-08
3.6868e-08
3.68836e-08
3.68983e-08
3.69122e-08
3.69287e-08
3.69472e-08
3.69681e-08
3.69914e-08
3.70163e-08
3.70421e-08
3.70688e-08
3.70942e-08
3.71175e-08
3.71391e-08
3.71589e-08
3.71768e-08
3.71947e-08
3.72135e-08
3.72346e-08
3.72575e-08
3.72734e-08
3.72873e-08
3.7308e-08
3.73295e-08
3.73484e-08
3.73654e-08
3.73787e-08
3.73889e-08
3.73967e-08
3.74031e-08
3.7409e-08
3.74168e-08
3.74274e-08
3.74413e-08
3.74577e-08
3.74728e-08
3.74877e-08
3.75018e-08
3.75134e-08
3.7519e-08
3.7525e-08
3.75199e-08
3.75281e-08
3.75061e-08
3.74638e-08
1.3323e-09
2.52424e-09
6.36123e-09
1.3656e-08
2.25569e-08
2.88912e-08
3.2502e-08
3.43009e-08
3.51193e-08
3.54591e-08
3.55947e-08
3.56528e-08
3.56871e-08
3.57188e-08
3.5751e-08
3.57847e-08
3.58174e-08
3.58479e-08
3.58779e-08
3.59055e-08
3.59292e-08
3.5948e-08
3.59613e-08
3.5969e-08
3.59729e-08
3.59749e-08
3.59757e-08
3.59746e-08
3.59721e-08
3.59675e-08
3.5963e-08
3.59589e-08
3.5956e-08
3.59519e-08
3.59474e-08
3.59424e-08
3.59382e-08
3.59353e-08
3.59341e-08
3.59356e-08
3.59408e-08
3.59508e-08
3.59631e-08
3.59755e-08
3.59998e-08
3.60226e-08
3.60394e-08
3.60531e-08
3.60651e-08
3.60762e-08
3.60873e-08
3.61e-08
3.61132e-08
3.61264e-08
3.61392e-08
3.6152e-08
3.61654e-08
3.61799e-08
3.61958e-08
3.62138e-08
3.62342e-08
3.62558e-08
3.62782e-08
3.63013e-08
3.63244e-08
3.63471e-08
3.63689e-08
3.63891e-08
3.64073e-08
3.64233e-08
3.64368e-08
3.64476e-08
3.64563e-08
3.64656e-08
3.64683e-08
3.64704e-08
3.64764e-08
3.64866e-08
3.65024e-08
3.65232e-08
3.65458e-08
3.6572e-08
3.66015e-08
3.66305e-08
3.66571e-08
3.66803e-08
3.67011e-08
3.6719e-08
3.67345e-08
3.67517e-08
3.67711e-08
3.67902e-08
3.68085e-08
3.6825e-08
3.68387e-08
3.68493e-08
3.68571e-08
3.68636e-08
3.68703e-08
3.68768e-08
3.68823e-08
3.6885e-08
3.68836e-08
3.68777e-08
3.68672e-08
3.68526e-08
3.68354e-08
3.68175e-08
3.6801e-08
3.67884e-08
3.67808e-08
3.67817e-08
3.67915e-08
3.68058e-08
3.68235e-08
3.68452e-08
3.68679e-08
3.68901e-08
3.69107e-08
3.69293e-08
3.69461e-08
3.69627e-08
3.69801e-08
3.69995e-08
3.70216e-08
3.70471e-08
3.70758e-08
3.71058e-08
3.71354e-08
3.7165e-08
3.71934e-08
3.72176e-08
3.72389e-08
3.72567e-08
3.72717e-08
3.72835e-08
3.7294e-08
3.7306e-08
3.73196e-08
3.7327e-08
3.73321e-08
3.7343e-08
3.73551e-08
3.73653e-08
3.73744e-08
3.73808e-08
3.73846e-08
3.73869e-08
3.73883e-08
3.73903e-08
3.73949e-08
3.74029e-08
3.74147e-08
3.7429e-08
3.7441e-08
3.74523e-08
3.7462e-08
3.74688e-08
3.7468e-08
3.74697e-08
3.74589e-08
3.74628e-08
3.74399e-08
3.73995e-08
1.28535e-09
2.40522e-09
6.05505e-09
1.31588e-08
2.21534e-08
2.87717e-08
3.25651e-08
3.45577e-08
3.54749e-08
3.58668e-08
3.60186e-08
3.60767e-08
3.61048e-08
3.61293e-08
3.61543e-08
3.61823e-08
3.62098e-08
3.62356e-08
3.62623e-08
3.62884e-08
3.63123e-08
3.63317e-08
3.63458e-08
3.6354e-08
3.63577e-08
3.63592e-08
3.63588e-08
3.63558e-08
3.63503e-08
3.63421e-08
3.63333e-08
3.63248e-08
3.63164e-08
3.63058e-08
3.62934e-08
3.62805e-08
3.62683e-08
3.62578e-08
3.62494e-08
3.62445e-08
3.62448e-08
3.62507e-08
3.62586e-08
3.62752e-08
3.63031e-08
3.63223e-08
3.63362e-08
3.63464e-08
3.63546e-08
3.63614e-08
3.6368e-08
3.63756e-08
3.63835e-08
3.6391e-08
3.63985e-08
3.64062e-08
3.64145e-08
3.64239e-08
3.6435e-08
3.64484e-08
3.64645e-08
3.64824e-08
3.65017e-08
3.65225e-08
3.65444e-08
3.65665e-08
3.6588e-08
3.6608e-08
3.66259e-08
3.66411e-08
3.66531e-08
3.66622e-08
3.66679e-08
3.66719e-08
3.66698e-08
3.66679e-08
3.66704e-08
3.66783e-08
3.66934e-08
3.67148e-08
3.67405e-08
3.677e-08
3.68047e-08
3.68407e-08
3.68745e-08
3.6903e-08
3.69261e-08
3.69419e-08
3.69503e-08
3.69547e-08
3.69566e-08
3.69559e-08
3.6954e-08
3.69516e-08
3.69486e-08
3.69449e-08
3.69409e-08
3.69376e-08
3.69375e-08
3.69385e-08
3.69407e-08
3.69408e-08
3.69371e-08
3.69294e-08
3.69178e-08
3.69027e-08
3.68856e-08
3.68681e-08
3.68525e-08
3.68428e-08
3.68389e-08
3.68433e-08
3.68563e-08
3.68744e-08
3.6895e-08
3.69185e-08
3.69417e-08
3.69631e-08
3.69815e-08
3.69969e-08
3.70098e-08
3.70219e-08
3.70346e-08
3.70496e-08
3.70687e-08
3.70933e-08
3.7123e-08
3.71563e-08
3.71908e-08
3.72253e-08
3.72589e-08
3.72887e-08
3.7315e-08
3.73361e-08
3.73548e-08
3.73687e-08
3.73782e-08
3.73867e-08
3.73957e-08
3.73995e-08
3.74006e-08
3.74054e-08
3.74111e-08
3.74151e-08
3.74185e-08
3.74193e-08
3.74184e-08
3.74165e-08
3.74152e-08
3.74152e-08
3.74191e-08
3.7428e-08
3.7442e-08
3.74592e-08
3.74737e-08
3.74868e-08
3.7497e-08
3.75026e-08
3.7499e-08
3.74968e-08
3.7482e-08
3.74814e-08
3.74555e-08
3.74125e-08
1.22831e-09
2.26618e-09
5.69375e-09
1.25224e-08
2.15266e-08
2.8498e-08
3.24962e-08
3.46038e-08
3.56428e-08
3.60909e-08
3.62658e-08
3.63297e-08
3.6357e-08
3.63766e-08
3.63977e-08
3.64229e-08
3.6449e-08
3.64739e-08
3.65006e-08
3.65286e-08
3.65553e-08
3.65786e-08
3.65965e-08
3.66088e-08
3.66172e-08
3.66229e-08
3.66258e-08
3.66253e-08
3.66209e-08
3.66125e-08
3.66032e-08
3.65948e-08
3.65848e-08
3.65704e-08
3.65523e-08
3.65325e-08
3.65123e-08
3.64927e-08
3.64749e-08
3.64605e-08
3.64534e-08
3.645e-08
3.64553e-08
3.64803e-08
3.65058e-08
3.65218e-08
3.65337e-08
3.65423e-08
3.6548e-08
3.65522e-08
3.65557e-08
3.65593e-08
3.65625e-08
3.65648e-08
3.65665e-08
3.65682e-08
3.65704e-08
3.65739e-08
3.65796e-08
3.65885e-08
3.66014e-08
3.66173e-08
3.66359e-08
3.66573e-08
3.66809e-08
3.67059e-08
3.6731e-08
3.67546e-08
3.67754e-08
3.67925e-08
3.68056e-08
3.6816e-08
3.68191e-08
3.68155e-08
3.6808e-08
3.68021e-08
3.68004e-08
3.68056e-08
3.68194e-08
3.6842e-08
3.68712e-08
3.69056e-08
3.69465e-08
3.69912e-08
3.70348e-08
3.70732e-08
3.71047e-08
3.71273e-08
3.71405e-08
3.71474e-08
3.7149e-08
3.71445e-08
3.71355e-08
3.71229e-08
3.71079e-08
3.70919e-08
3.70766e-08
3.70638e-08
3.70554e-08
3.70501e-08
3.70483e-08
3.70454e-08
3.70391e-08
3.7028e-08
3.70116e-08
3.69905e-08
3.69666e-08
3.69409e-08
3.6916e-08
3.68977e-08
3.68868e-08
3.68856e-08
3.68942e-08
3.69087e-08
3.69267e-08
3.69478e-08
3.69684e-08
3.69868e-08
3.70021e-08
3.70143e-08
3.70242e-08
3.70335e-08
3.70439e-08
3.70576e-08
3.70769e-08
3.71036e-08
3.71367e-08
3.71752e-08
3.7216e-08
3.72574e-08
3.72975e-08
3.73356e-08
3.73703e-08
3.74003e-08
3.7426e-08
3.74477e-08
3.74631e-08
3.74746e-08
3.74848e-08
3.74885e-08
3.74882e-08
3.74878e-08
3.74861e-08
3.74821e-08
3.74773e-08
3.74702e-08
3.74612e-08
3.74525e-08
3.7445e-08
3.74411e-08
3.74426e-08
3.74496e-08
3.74616e-08
3.74772e-08
3.74918e-08
3.75042e-08
3.75124e-08
3.7515e-08
3.75077e-08
3.75005e-08
3.74829e-08
3.74766e-08
3.74482e-08
3.7402e-08
1.16363e-09
2.11305e-09
5.29371e-09
1.17728e-08
2.06869e-08
2.80392e-08
3.23161e-08
3.45645e-08
3.5663e-08
3.61661e-08
3.63692e-08
3.64434e-08
3.64718e-08
3.64885e-08
3.65066e-08
3.65297e-08
3.65557e-08
3.65819e-08
3.661e-08
3.66403e-08
3.66699e-08
3.6697e-08
3.67191e-08
3.67365e-08
3.67509e-08
3.67628e-08
3.67717e-08
3.67767e-08
3.67771e-08
3.67716e-08
3.67643e-08
3.67594e-08
3.67513e-08
3.67361e-08
3.67146e-08
3.66895e-08
3.66621e-08
3.66334e-08
3.66055e-08
3.65793e-08
3.65586e-08
3.65479e-08
3.65598e-08
3.65859e-08
3.6604e-08
3.66179e-08
3.66295e-08
3.66384e-08
3.66444e-08
3.66484e-08
3.66509e-08
3.66522e-08
3.66524e-08
3.66507e-08
3.66477e-08
3.66442e-08
3.66411e-08
3.66395e-08
3.66412e-08
3.66475e-08
3.6659e-08
3.6675e-08
3.66951e-08
3.6719e-08
3.67463e-08
3.67764e-08
3.68073e-08
3.6837e-08
3.68631e-08
3.68842e-08
3.68994e-08
3.69097e-08
3.69088e-08
3.68961e-08
3.68827e-08
3.68705e-08
3.68629e-08
3.68636e-08
3.6875e-08
3.68985e-08
3.69316e-08
3.69714e-08
3.70202e-08
3.70748e-08
3.71297e-08
3.71797e-08
3.72211e-08
3.72511e-08
3.72687e-08
3.72776e-08
3.72793e-08
3.72738e-08
3.72625e-08
3.72466e-08
3.72276e-08
3.72069e-08
3.71864e-08
3.71679e-08
3.71526e-08
3.71405e-08
3.71309e-08
3.71199e-08
3.71035e-08
3.70813e-08
3.70539e-08
3.70219e-08
3.69867e-08
3.69507e-08
3.69175e-08
3.68936e-08
3.68787e-08
3.68746e-08
3.68814e-08
3.68948e-08
3.69126e-08
3.69336e-08
3.69537e-08
3.69711e-08
3.69844e-08
3.69938e-08
3.70005e-08
3.70063e-08
3.70136e-08
3.70251e-08
3.70438e-08
3.7071e-08
3.71062e-08
3.71489e-08
3.71954e-08
3.72437e-08
3.72915e-08
3.73374e-08
3.738e-08
3.74182e-08
3.74522e-08
3.74826e-08
3.75055e-08
3.75224e-08
3.75356e-08
3.7542e-08
3.75423e-08
3.75394e-08
3.75334e-08
3.75242e-08
3.75137e-08
3.7501e-08
3.74873e-08
3.74742e-08
3.74623e-08
3.74555e-08
3.74563e-08
3.74641e-08
3.74784e-08
3.74972e-08
3.75152e-08
3.753e-08
3.75385e-08
3.75394e-08
3.75284e-08
3.7514e-08
3.74907e-08
3.74769e-08
3.74448e-08
3.73932e-08
1.09363e-09
1.95135e-09
4.86916e-09
1.09396e-08
1.9667e-08
2.73965e-08
3.19992e-08
3.44488e-08
3.56354e-08
3.61641e-08
3.63751e-08
3.6449e-08
3.6474e-08
3.64873e-08
3.65031e-08
3.65256e-08
3.65532e-08
3.65834e-08
3.66158e-08
3.66503e-08
3.66843e-08
3.67153e-08
3.67414e-08
3.67635e-08
3.67829e-08
3.67999e-08
3.68141e-08
3.68246e-08
3.68306e-08
3.68297e-08
3.68259e-08
3.6825e-08
3.68194e-08
3.68034e-08
3.67782e-08
3.67469e-08
3.67108e-08
3.66714e-08
3.66309e-08
3.65896e-08
3.65615e-08
3.65601e-08
3.65799e-08
3.65972e-08
3.6612e-08
3.66267e-08
3.66407e-08
3.66521e-08
3.66603e-08
3.66656e-08
3.66681e-08
3.66676e-08
3.6666e-08
3.66616e-08
3.66553e-08
3.66483e-08
3.66421e-08
3.66378e-08
3.66375e-08
3.66423e-08
3.6653e-08
3.66691e-08
3.66905e-08
3.67174e-08
3.67497e-08
3.67857e-08
3.68233e-08
3.686e-08
3.68929e-08
3.69199e-08
3.69402e-08
3.69498e-08
3.69485e-08
3.69269e-08
3.69062e-08
3.68869e-08
3.68724e-08
3.68673e-08
3.6875e-08
3.68979e-08
3.69348e-08
3.69779e-08
3.70332e-08
3.70969e-08
3.71625e-08
3.72253e-08
3.72801e-08
3.7321e-08
3.73452e-08
3.73555e-08
3.73542e-08
3.73429e-08
3.73242e-08
3.73003e-08
3.72734e-08
3.72459e-08
3.72196e-08
3.71964e-08
3.71774e-08
3.71625e-08
3.71505e-08
3.71372e-08
3.71177e-08
3.7091e-08
3.70587e-08
3.70215e-08
3.69801e-08
3.6937e-08
3.68959e-08
3.68641e-08
3.68426e-08
3.68333e-08
3.6836e-08
3.68459e-08
3.68607e-08
3.68783e-08
3.68945e-08
3.69072e-08
3.69146e-08
3.69172e-08
3.69163e-08
3.69143e-08
3.69146e-08
3.69204e-08
3.69354e-08
3.69608e-08
3.69968e-08
3.70434e-08
3.70966e-08
3.71552e-08
3.72173e-08
3.72804e-08
3.73412e-08
3.73967e-08
3.7445e-08
3.74862e-08
3.75175e-08
3.7541e-08
3.75585e-08
3.75691e-08
3.75711e-08
3.75663e-08
3.75563e-08
3.75421e-08
3.75262e-08
3.75078e-08
3.74881e-08
3.74709e-08
3.74547e-08
3.74458e-08
3.74466e-08
3.74566e-08
3.74741e-08
3.74966e-08
3.75185e-08
3.75361e-08
3.75457e-08
3.75458e-08
3.7533e-08
3.75131e-08
3.74843e-08
3.74644e-08
3.74289e-08
3.73718e-08
1.04488e-09
1.84068e-09
4.57765e-09
1.03555e-08
1.89215e-08
2.69013e-08
3.17356e-08
3.43378e-08
3.55984e-08
3.61508e-08
3.63668e-08
3.64394e-08
3.64606e-08
3.64686e-08
3.64784e-08
3.6494e-08
3.65139e-08
3.65358e-08
3.65605e-08
3.65898e-08
3.66218e-08
3.66539e-08
3.66846e-08
3.67135e-08
3.67412e-08
3.6767e-08
3.67902e-08
3.68096e-08
3.68236e-08
3.68294e-08
3.68299e-08
3.68328e-08
3.68296e-08
3.68143e-08
3.67881e-08
3.67542e-08
3.67143e-08
3.66697e-08
3.66232e-08
3.65748e-08
3.65508e-08
3.65612e-08
3.65763e-08
3.65883e-08
3.66031e-08
3.66195e-08
3.66357e-08
3.66494e-08
3.66593e-08
3.66656e-08
3.66681e-08
3.66662e-08
3.66636e-08
3.66575e-08
3.66492e-08
3.66399e-08
3.66311e-08
3.66239e-08
3.66205e-08
3.66223e-08
3.66299e-08
3.66428e-08
3.66611e-08
3.6685e-08
3.67145e-08
3.67496e-08
3.67888e-08
3.68292e-08
3.68673e-08
3.68997e-08
3.69257e-08
3.6936e-08
3.69389e-08
3.69092e-08
3.688e-08
3.68546e-08
3.68334e-08
3.68211e-08
3.68221e-08
3.68401e-08
3.68777e-08
3.69214e-08
3.69844e-08
3.70601e-08
3.7141e-08
3.72197e-08
3.72881e-08
3.73405e-08
3.73738e-08
3.73902e-08
3.73904e-08
3.73766e-08
3.7353e-08
3.73232e-08
3.72904e-08
3.72576e-08
3.7227e-08
3.72005e-08
3.71795e-08
3.71638e-08
3.71516e-08
3.71383e-08
3.71186e-08
3.70908e-08
3.70562e-08
3.70152e-08
3.69679e-08
3.6918e-08
3.68698e-08
3.68314e-08
3.68038e-08
3.67885e-08
3.67855e-08
3.67892e-08
3.6797e-08
3.68064e-08
3.68133e-08
3.68156e-08
3.68107e-08
3.6799e-08
3.67817e-08
3.67609e-08
3.67401e-08
3.67229e-08
3.67128e-08
3.67129e-08
3.67276e-08
3.67606e-08
3.68124e-08
3.68832e-08
3.6969e-08
3.7066e-08
3.71672e-08
3.72653e-08
3.7354e-08
3.74294e-08
3.74873e-08
3.75291e-08
3.75573e-08
3.75738e-08
3.75793e-08
3.75751e-08
3.75635e-08
3.75464e-08
3.75263e-08
3.75032e-08
3.74801e-08
3.74615e-08
3.7443e-08
3.74334e-08
3.74345e-08
3.74468e-08
3.74675e-08
3.74937e-08