/*--------------------------------*- C++ -*----------------------------------*\
| =========                 |                                                 |
| \\      /  F ield         | OpenFOAM: The Open Source CFD Toolbox           |
|  \\    /   O peration     | Version:  v1912                                 |
|   \\  /    A nd           | Website:  www.openfoam.com                      |
|    \\/     M anipulation  |                                                 |
\*---------------------------------------------------------------------------*/
FoamFile
{
    version     2.0;
    format      ascii;
    class       volScalarField;
    location    "100";
    object      p_rgh;
}
// * * * * * * * * * * * * * * * * * * * * * * * * * * * * * * * * * * * * * //

dimensions      [1 -1 -2 0 0 0 0];


internalField   uniform 0;

boundaryField
{
    atmosphere
    {
        type            totalPressure;
        rho             rho;
        psi             none;
        gamma           1;
        p0              uniform 0;
        value           nonuniform List<scalar> 
164
(
0
0
0
0
0
0
0
0
0
0
0
0
0
0
0
0
0
0
0
0
0
0
0
0
0
0
-0.000207956
-0.00103599
-0.00229333
-0.00374895
-0.00518041
-0.00639632
-0.00725554
-0.00767828
-0.00765311
-0.00722561
-0.00648635
-0.00554876
-0.00452784
-0.0035225
-0.00260495
-0.00181792
-0.00117846
-0.000685926
-0.000331206
-0.000105146
-4.85782e-06
0
0
0
0
0
0
0
0
0
0
0
0
0
0
0
0
0
0
0
0
0
0
0
0
0
0
0
-1.77811e-05
-0.000399714
-0.00134812
-0.00296842
-0.0053771
-0.00868714
-0.0129845
-0.0182999
-0.024576
-0.0316394
-0.0391834
-0.046764
-0.0538301
-0.0597649
-0.0639738
-0.0659555
-0.0654063
-0.062263
-0.0567398
-0.0492988
-0.0405814
-0.0313379
-0.0223141
-0.0142018
-0.00757232
-0.00286326
-0.000368252
0
0
0
0
0
0
0
0
0
0
0
0
0
0
0
0
0
0
0
0
0
0
0
0
0
0
0
0
0
-0.000516356
-0.00278685
-0.006826
-0.0124695
-0.019465
-0.027407
-0.0358593
-0.0442494
-0.0520853
-0.0588175
-0.0640852
-0.067553
-0.0691748
-0.0689154
-0.0670539
-0.0638016
-0.0595752
-0.0546867
-0.049473
-0.0441902
-0.0389963
-0.0340077
-0.0292346
-0.0246951
-0.0203464
-0.0161887
-0.0122434
-0.00860232
-0.00539097
-0.00278358
-0.000953683
-6.82351e-05
0
0
)
;
    }
    inlet
    {
        type            waveSurfacePressure;
        value           uniform 0;
    }
    outlet
    {
        type            zeroGradient;
    }
    bottom
    {
        type            zeroGradient;
    }
    frontBack
    {
        type            empty;
    }
    procBoundary0to1
    {
        type            processor;
        value           uniform 0;
    }
}


// ************************************************************************* //
