/*--------------------------------*- C++ -*----------------------------------*\
| =========                 |                                                 |
| \\      /  F ield         | OpenFOAM: The Open Source CFD Toolbox           |
|  \\    /   O peration     | Version:  v1912                                 |
|   \\  /    A nd           | Website:  www.openfoam.com                      |
|    \\/     M anipulation  |                                                 |
\*---------------------------------------------------------------------------*/
FoamFile
{
    version     2.0;
    format      ascii;
    class       volScalarField;
    location    "90";
    object      alpha.water;
}
// * * * * * * * * * * * * * * * * * * * * * * * * * * * * * * * * * * * * * //

dimensions      [0 0 0 0 0 0 0];


internalField   nonuniform List<scalar> 
14268
(
-5.33806e-37
-8.47608e-38
-1.25536e-38
-1.73569e-39
-2.24213e-40
-2.70812e-41
-3.06051e-42
-3.2381e-43
-3.20883e-44
-2.97909e-45
-2.59154e-46
-2.11231e-47
-1.61292e-48
-1.15343e-49
-7.72179e-51
-4.83695e-52
-2.83339e-53
-1.55114e-54
-7.93115e-56
-3.78513e-57
-1.68506e-58
-6.99321e-60
-2.70406e-61
-9.73639e-63
-3.26288e-64
-1.01722e-65
-2.94881e-67
-7.94524e-69
-1.98892e-70
-4.62389e-72
-9.97964e-74
-1.99886e-75
-3.71419e-77
-6.4005e-79
-1.02258e-80
-1.51422e-82
-2.07758e-84
-2.64049e-86
-3.10782e-88
-3.38654e-90
-3.41568e-92
-3.18793e-94
-2.75261e-96
-2.19827e-98
-1.62335e-100
-1.10824e-102
-6.99276e-105
-4.07707e-107
-2.196e-109
-1.09245e-111
-5.01822e-114
-2.12803e-116
-8.32876e-119
-3.00785e-121
-1.00208e-123
-3.07901e-126
-8.72328e-129
-2.27825e-131
-5.4836e-134
-1.2161e-136
-2.48425e-139
-4.67345e-142
-8.09436e-145
-1.29037e-147
-1.89287e-150
-2.55436e-153
-3.17016e-156
-3.61741e-159
-3.79411e-162
-3.65674e-165
-3.23763e-168
-2.63257e-171
-1.9653e-174
-1.3466e-177
-8.46611e-181
-4.88235e-184
-2.5819e-187
-1.25164e-190
-5.56052e-194
-2.2631e-197
-8.43544e-201
-2.87862e-204
-8.99069e-208
-2.56914e-211
-6.71469e-215
-1.60458e-218
-3.50466e-222
-6.99415e-226
-1.27491e-229
-2.12193e-233
-3.22361e-237
-4.46854e-241
-5.65006e-245
-6.51414e-249
-6.84591e-253
-6.55589e-257
-5.71893e-261
-4.54296e-265
-3.28522e-269
-2.16201e-273
-1.29446e-277
-7.04892e-282
-3.49013e-286
-1.57083e-290
-6.42495e-295
-2.38761e-299
-8.05956e-304
-2.47075e-308
-6.87762e-313
-1.73808e-317
-8.89318e-323
0
0
0
0
0
0
0
0
0
0
0
0
0
0
0
0
0
0
0
0
0
0
0
0
0
0
0
0
0
0
0
0
0
0
0
0
0
0
0
0
0
0
0
0
0
0
0
0
0
0
0
0
0
-5.87528e-37
-9.57207e-38
-1.45583e-38
-2.06656e-39
-2.73742e-40
-3.38329e-41
-3.90117e-42
-4.19639e-43
-4.21067e-44
-3.94086e-45
-3.44011e-46
-2.80077e-47
-2.12662e-48
-1.50591e-49
-9.94459e-51
-6.12406e-52
-3.51669e-53
-1.88298e-54
-9.40031e-56
-4.37505e-57
-1.8981e-58
-7.67527e-60
-2.89224e-61
-1.01544e-62
-3.32098e-64
-1.01147e-65
-2.8681e-67
-7.56928e-69
-1.85859e-70
-4.24446e-72
-9.01166e-74
-1.77812e-75
-3.25926e-77
-5.54758e-79
-8.76488e-81
-1.28492e-82
-1.74716e-84
-2.2027e-86
-2.57389e-88
-2.78669e-90
-2.79451e-92
-2.5948e-94
-2.23022e-96
-1.7738e-98
-1.30511e-100
-8.88084e-103
-5.58731e-105
-3.24919e-107
-1.74605e-109
-8.66824e-112
-3.97455e-114
-1.68273e-116
-6.57663e-119
-2.37215e-121
-7.89445e-124
-2.42345e-126
-6.86071e-129
-1.79068e-131
-4.30792e-134
-9.55013e-137
-1.95043e-139
-3.66875e-142
-6.35416e-145
-1.01306e-147
-1.48639e-150
-2.00646e-153
-2.49122e-156
-2.84416e-159
-2.98494e-162
-2.87893e-165
-2.55103e-168
-2.07617e-171
-1.55146e-174
-1.06419e-177
-6.69839e-181
-3.86772e-184
-2.04805e-187
-9.94235e-191
-4.42346e-194
-1.8031e-197
-6.73163e-201
-2.30102e-204
-7.1991e-208
-2.06085e-211
-5.39609e-215
-1.2919e-218
-2.82714e-222
-5.6531e-226
-1.03251e-229
-1.72197e-233
-2.62135e-237
-3.64121e-241
-4.61355e-245
-5.33024e-249
-5.61346e-253
-5.3869e-257
-4.70898e-261
-3.74844e-265
-2.71625e-269
-1.79119e-273
-1.07458e-277
-5.86302e-282
-2.9085e-286
-1.31148e-290
-5.37377e-295
-2.0004e-299
-6.76358e-304
-2.07666e-308
-5.78898e-313
-1.46492e-317
0
0
0
0
0
0
0
0
0
0
0
0
0
0
0
0
0
0
0
0
0
0
0
0
0
0
0
0
0
0
0
0
0
0
0
0
0
0
0
0
0
0
0
0
0
0
0
0
0
0
0
0
0
0
-4.40994e-37
-7.2155e-38
-1.10194e-38
-1.57015e-39
-2.08686e-40
-2.5866e-41
-2.98951e-42
-3.22162e-43
-3.23697e-44
-3.03241e-45
-2.64869e-46
-2.15715e-47
-1.63817e-48
-1.16006e-49
-7.66072e-51
-4.71772e-52
-2.70939e-53
-1.45105e-54
-7.24674e-56
-3.37461e-57
-1.46514e-58
-5.92996e-60
-2.23697e-61
-7.8635e-63
-2.57518e-64
-7.85444e-66
-2.23048e-67
-5.89533e-69
-1.4497e-70
-3.31544e-72
-7.04879e-74
-1.39258e-75
-2.55551e-77
-4.3542e-79
-6.88552e-81
-1.01016e-82
-1.37439e-84
-1.73354e-86
-2.02633e-88
-2.19427e-90
-2.20057e-92
-2.04319e-94
-1.75581e-96
-1.3961e-98
-1.02683e-100
-6.98406e-103
-4.39161e-105
-2.55231e-107
-1.37063e-109
-6.79954e-112
-3.11527e-114
-1.31784e-116
-5.14602e-119
-1.85445e-121
-6.16574e-124
-1.89092e-126
-5.34778e-129
-1.39436e-131
-3.35098e-134
-7.42077e-137
-1.5139e-139
-2.8445e-142
-4.92108e-145
-7.8369e-148
-1.14853e-150
-1.54859e-153
-1.92047e-156
-2.18995e-159
-2.2956e-162
-2.21139e-165
-1.95712e-168
-1.59084e-171
-1.18731e-174
-8.13381e-178
-5.11315e-181
-2.94858e-184
-1.5593e-187
-7.55969e-191
-3.35888e-194
-1.36729e-197
-5.09758e-201
-1.74003e-204
-5.43623e-208
-1.55396e-211
-4.06287e-215
-9.71252e-219
-2.12221e-222
-4.2369e-226
-7.72619e-230
-1.28643e-233
-1.95506e-237
-2.71103e-241
-3.42893e-245
-3.9544e-249
-4.15672e-253
-3.98125e-257
-3.47327e-261
-2.75907e-265
-1.99501e-269
-1.31264e-273
-7.85649e-278
-4.27618e-282
-2.11591e-286
-9.51543e-291
-3.88803e-295
-1.44307e-299
-4.86404e-304
-1.48854e-308
-4.13511e-313
-1.04254e-317
0
0
0
0
0
0
0
0
0
0
0
0
0
0
0
0
0
0
0
0
0
0
0
0
0
0
0
0
0
0
0
0
0
0
0
0
0
0
0
0
0
0
0
0
0
0
0
0
0
0
0
0
0
0
-2.92211e-37
-4.79405e-38
-7.34e-39
-1.04849e-39
-1.39715e-40
-1.73656e-41
-2.01326e-42
-2.17716e-43
-2.19625e-44
-2.06682e-45
-1.81461e-46
-1.48648e-47
-1.13621e-48
-8.10415e-50
-5.39398e-51
-3.35011e-52
-1.94148e-53
-1.04975e-54
-5.29495e-56
-2.49101e-57
-1.09277e-58
-4.46903e-60
-1.7033e-61
-6.04817e-63
-2.00011e-64
-6.15771e-66
-1.76419e-67
-4.70173e-69
-1.16512e-70
-2.68348e-72
-5.74195e-74
-1.14096e-75
-2.10455e-77
-3.60205e-79
-5.71849e-81
-8.41773e-83
-1.14853e-84
-1.45204e-86
-1.70046e-88
-1.84406e-90
-1.85131e-92
-1.72011e-94
-1.47873e-96
-1.17588e-98
-8.64692e-101
-5.87868e-103
-3.69411e-105
-2.14508e-107
-1.15074e-109
-5.70178e-112
-2.60876e-114
-1.10192e-116
-4.29587e-119
-1.54539e-121
-5.12866e-124
-1.56982e-126
-4.43064e-129
-1.15279e-131
-2.76436e-134
-6.1079e-137
-1.24318e-139
-2.33027e-142
-4.02164e-145
-6.38862e-148
-9.33908e-151
-1.25597e-153
-1.5535e-156
-1.76678e-159
-1.84701e-162
-1.7744e-165
-1.56604e-168
-1.2694e-171
-9.44721e-175
-6.45347e-178
-4.04515e-181
-2.32591e-184
-1.2264e-187
-5.92809e-191
-2.62606e-194
-1.06576e-197
-3.96127e-201
-1.348e-204
-4.19835e-208
-1.19634e-211
-3.11796e-215
-7.42981e-219
-1.61817e-222
-3.22004e-226
-5.85241e-230
-9.71166e-234
-1.4709e-237
-2.0326e-241
-2.5618e-245
-2.94382e-249
-3.08315e-253
-2.94201e-257
-2.55687e-261
-2.0232e-265
-1.45709e-269
-9.54783e-274
-5.69051e-278
-3.0838e-282
-1.51905e-286
-6.79957e-291
-2.76492e-295
-1.02108e-299
-3.42367e-304
-1.04202e-308
-2.87817e-313
-7.21285e-318
0
0
0
0
0
0
0
0
0
0
0
0
0
0
0
0
0
0
0
0
0
0
0
0
0
0
0
0
0
0
0
0
0
0
0
0
0
0
0
0
0
0
0
0
0
0
0
0
0
0
0
0
0
0
-2.11577e-37
-3.48034e-38
-5.3513e-39
-7.69026e-40
-1.03285e-40
-1.29635e-41
-1.5205e-42
-1.66654e-43
-1.70687e-44
-1.63347e-45
-1.46054e-46
-1.22001e-47
-9.51921e-49
-6.93659e-50
-4.71953e-51
-2.99739e-52
-1.77639e-53
-9.82048e-55
-5.06243e-56
-2.43244e-57
-1.08893e-58
-4.53992e-60
-1.76198e-61
-6.36314e-63
-2.13738e-64
-6.67501e-66
-1.93736e-67
-5.22376e-69
-1.30799e-70
-3.04029e-72
-6.55771e-74
-1.3121e-75
-2.43452e-77
-4.18746e-79
-6.67493e-81
-9.85768e-83
-1.34838e-84
-1.70782e-86
-2.00241e-88
-2.17289e-90
-2.18166e-92
-2.02628e-94
-1.7405e-96
-1.38232e-98
-1.01487e-100
-6.88615e-103
-4.3173e-105
-2.50047e-107
-1.33754e-109
-6.60653e-112
-3.01248e-114
-1.26784e-116
-4.92371e-119
-1.76407e-121
-5.82951e-124
-1.77641e-126
-4.99056e-129
-1.29225e-131
-3.08344e-134
-6.7781e-137
-1.37233e-139
-2.55849e-142
-4.39107e-145
-6.936e-148
-1.00807e-150
-1.34771e-153
-1.65697e-156
-1.87295e-159
-1.94586e-162
-1.8576e-165
-1.62901e-168
-1.3119e-171
-9.6997e-175
-6.58216e-178
-4.09827e-181
-2.34057e-184
-1.22575e-187
-5.88436e-191
-2.5887e-194
-1.0433e-197
-3.85069e-201
-1.30116e-204
-4.02382e-208
-1.13846e-211
-2.94594e-215
-6.96954e-219
-1.50699e-222
-2.97709e-226
-5.3715e-230
-8.84851e-234
-1.33033e-237
-1.82479e-241
-2.28281e-245
-2.60363e-249
-2.70636e-253
-2.56291e-257
-2.21039e-261
-1.73555e-265
-1.24019e-269
-8.06251e-274
-4.76689e-278
-2.56235e-282
-1.2518e-286
-5.55632e-291
-2.24006e-295
-8.20017e-300
-2.7249e-304
-8.21726e-309
-2.24822e-313
-5.5791e-318
0
0
0
0
0
0
0
0
0
0
0
0
0
0
0
0
0
0
0
0
0
0
0
0
0
0
0
0
0
0
0
0
0
0
0
0
0
0
0
0
0
0
0
0
0
0
0
0
0
0
0
0
0
0
-1.86055e-37
-3.09158e-38
-4.80892e-39
-7.00192e-40
-9.54216e-41
-1.21696e-41
-1.45223e-42
-1.62119e-43
-1.69261e-44
-1.65223e-45
-1.50738e-46
-1.28484e-47
-1.02276e-48
-7.59986e-50
-5.26924e-51
-3.40719e-52
-2.05373e-53
-1.15341e-54
-6.03274e-56
-2.93723e-57
-1.33066e-58
-5.60687e-60
-2.19648e-61
-7.99693e-63
-2.70494e-64
-8.49731e-66
-2.47832e-67
-6.70881e-69
-1.68506e-70
-3.92589e-72
-8.48174e-74
-1.69877e-75
-3.15334e-77
-5.42346e-79
-8.64055e-81
-1.27485e-82
-1.7415e-84
-2.2021e-86
-2.57692e-88
-2.79009e-90
-2.79443e-92
-2.5884e-94
-2.21688e-96
-1.75522e-98
-1.28442e-100
-8.68512e-103
-5.42559e-105
-3.13061e-107
-1.66812e-109
-8.20632e-112
-3.72649e-114
-1.56167e-116
-6.03834e-119
-2.15373e-121
-7.08457e-124
-2.14875e-126
-6.0077e-129
-1.54804e-131
-3.67538e-134
-8.03838e-137
-1.61911e-139
-3.00274e-142
-5.12607e-145
-8.05322e-148
-1.16402e-150
-1.54754e-153
-1.89193e-156
-2.12632e-159
-2.19632e-162
-2.08443e-165
-1.8171e-168
-1.45462e-171
-1.06899e-174
-7.20978e-178
-4.46135e-181
-2.53206e-184
-1.31769e-187
-6.28566e-191
-2.74756e-194
-1.10018e-197
-4.03424e-201
-1.35425e-204
-4.16034e-208
-1.16925e-211
-3.0053e-215
-7.0619e-219
-1.51655e-222
-2.97538e-226
-5.33122e-230
-8.72074e-234
-1.30187e-237
-1.77303e-241
-2.2021e-245
-2.49331e-249
-2.57261e-253
-2.4181e-257
-2.06975e-261
-1.61267e-265
-1.14342e-269
-7.37456e-274
-4.325e-278
-2.3057e-282
-1.11695e-286
-4.91512e-291
-1.96407e-295
-7.12464e-300
-2.34539e-304
-7.0046e-309
-1.89731e-313
-4.65934e-318
0
0
0
0
0
0
0
0
0
0
0
0
0
0
0
0
0
0
0
0
0
0
0
0
0
0
0
0
0
0
0
0
0
0
0
0
0
0
0
0
0
0
0
0
0
0
0
0
0
0
0
0
0
0
-1.81919e-37
-3.06741e-38
-4.84106e-39
-7.1512e-40
-9.88663e-41
-1.279e-41
-1.54789e-42
-1.75192e-43
-1.85365e-44
-1.83268e-45
-1.69234e-46
-1.45887e-47
-1.17344e-48
-8.80236e-50
-6.15491e-51
-4.00975e-52
-2.43267e-53
-1.3738e-54
-7.21859e-56
-3.52774e-57
-1.60285e-58
-6.76844e-60
-2.65546e-61
-9.67633e-63
-3.27398e-64
-1.02829e-65
-2.99718e-67
-8.10498e-69
-2.03293e-70
-4.72837e-72
-1.01955e-73
-2.03756e-75
-3.77316e-77
-6.47283e-79
-1.02843e-80
-1.51304e-82
-2.06073e-84
-2.59773e-86
-3.03025e-88
-3.27024e-90
-3.26445e-92
-3.01354e-94
-2.57211e-96
-2.02936e-98
-1.47978e-100
-9.97034e-103
-6.20596e-105
-3.56781e-107
-1.89408e-109
-9.28337e-112
-4.19982e-114
-1.7534e-116
-6.75397e-119
-2.39979e-121
-7.86365e-124
-2.37583e-126
-6.61681e-129
-1.69833e-131
-4.01638e-134
-8.74953e-137
-1.75536e-139
-3.24244e-142
-5.51311e-145
-8.6264e-148
-1.24182e-150
-1.64427e-153
-2.00197e-156
-2.24076e-159
-2.30498e-162
-2.17849e-165
-1.89119e-168
-1.50759e-171
-1.10325e-174
-7.40938e-178
-4.56535e-181
-2.58001e-184
-1.33687e-187
-6.3495e-191
-2.76337e-194
-1.10166e-197
-4.0218e-201
-1.34406e-204
-4.1105e-208
-1.15001e-211
-2.94235e-215
-6.88208e-219
-1.47104e-222
-2.87249e-226
-5.12229e-230
-8.33846e-234
-1.2387e-237
-1.67859e-241
-2.07425e-245
-2.33645e-249
-2.3981e-253
-2.24198e-257
-1.90848e-261
-1.47867e-265
-1.04236e-269
-6.68298e-274
-3.89549e-278
-2.06364e-282
-9.9318e-287
-4.34095e-291
-1.72246e-295
-6.20254e-300
-2.02626e-304
-6.00317e-309
-1.61244e-313
-3.92464e-318
0
0
0
0
0
0
0
0
0
0
0
0
0
0
0
0
0
0
0
0
0
0
0
0
0
0
0
0
0
0
0
0
0
0
0
0
0
0
0
0
0
0
0
0
0
0
0
0
0
0
0
0
0
0
-1.80717e-37
-3.08627e-38
-4.92924e-39
-7.36291e-40
-1.02851e-40
-1.34332e-41
-1.64003e-42
-1.87102e-43
-1.99381e-44
-1.98368e-45
-1.84178e-46
-1.59506e-47
-1.2879e-48
-9.69071e-50
-6.79201e-51
-4.43223e-52
-2.69182e-53
-1.52089e-54
-7.99129e-56
-3.90346e-57
-1.77197e-58
-7.47314e-60
-2.92729e-61
-1.0647e-62
-3.59483e-64
-1.12645e-65
-3.27509e-67
-8.83307e-69
-2.20939e-70
-5.12396e-72
-1.10156e-73
-2.19471e-75
-4.0515e-77
-6.92828e-79
-1.09726e-80
-1.60906e-82
-2.18434e-84
-2.74452e-86
-3.19091e-88
-3.43226e-90
-3.41484e-92
-3.14195e-94
-2.67286e-96
-2.1019e-98
-1.52764e-100
-1.02591e-102
-6.36485e-105
-3.64727e-107
-1.93001e-109
-9.42902e-112
-4.25207e-114
-1.76957e-116
-6.79471e-119
-2.40668e-121
-7.8616e-124
-2.36784e-126
-6.57423e-129
-1.68224e-131
-3.96622e-134
-8.61414e-137
-1.72301e-139
-3.1732e-142
-5.37939e-145
-8.39239e-148
-1.2046e-150
-1.59035e-153
-1.93073e-156
-2.1548e-159
-2.21023e-162
-2.08299e-165
-1.80316e-168
-1.43337e-171
-1.04599e-174
-7.00514e-178
-4.30422e-181
-2.42565e-184
-1.25338e-187
-5.93642e-191
-2.57639e-194
-1.02425e-197
-3.72874e-201
-1.24262e-204
-3.78953e-208
-1.0572e-211
-2.69714e-215
-6.29028e-219
-1.34061e-222
-2.61004e-226
-4.64028e-230
-7.5307e-234
-1.11522e-237
-1.50644e-241
-1.85547e-245
-2.08302e-249
-2.13064e-253
-1.98487e-257
-1.68342e-261
-1.29935e-265
-9.12341e-270
-5.82533e-274
-3.381e-278
-1.78304e-282
-8.54083e-287
-3.71444e-291
-1.46614e-295
-5.25023e-300
-1.70506e-304
-5.01994e-309
-1.33935e-313
-3.2367e-318
0
0
0
0
0
0
0
0
0
0
0
0
0
0
0
0
0
0
0
0
0
0
0
0
0
0
0
0
0
0
0
0
0
0
0
0
0
0
0
0
0
0
0
0
0
0
0
0
0
0
0
0
0
0
-1.75714e-37
-3.0274e-38
-4.87453e-39
-7.33476e-40
-1.0313e-40
-1.35472e-41
-1.66213e-42
-1.90411e-43
-2.03593e-44
-2.03094e-45
-1.88934e-46
-1.63838e-47
-1.32383e-48
-9.96273e-50
-6.98048e-51
-4.55181e-52
-2.76133e-53
-1.55787e-54
-8.17118e-56
-3.98329e-57
-1.80416e-58
-7.59047e-60
-2.96557e-61
-1.07569e-62
-3.62166e-64
-1.13154e-65
-3.28002e-67
-8.81927e-69
-2.19909e-70
-5.08402e-72
-1.08951e-73
-2.16378e-75
-3.98164e-77
-6.78702e-79
-1.07145e-80
-1.56621e-82
-2.11942e-84
-2.65453e-86
-3.07661e-88
-3.299e-90
-3.27213e-92
-3.00143e-94
-2.54559e-96
-1.99582e-98
-1.44624e-100
-9.68407e-103
-5.99076e-105
-3.42313e-107
-1.80631e-109
-8.80025e-112
-3.95769e-114
-1.64263e-116
-6.29062e-119
-2.22233e-121
-7.24084e-124
-2.17539e-126
-6.02494e-129
-1.53793e-131
-3.61734e-134
-7.83797e-137
-1.56415e-139
-2.87411e-142
-4.86153e-145
-7.56792e-148
-1.08393e-150
-1.42803e-153
-1.73008e-156
-1.92696e-159
-1.97258e-162
-1.85537e-165
-1.60303e-168
-1.27186e-171
-9.26396e-175
-6.19276e-178
-3.79815e-181
-2.13661e-184
-1.10207e-187
-5.21056e-191
-2.25742e-194
-8.95885e-198
-3.2558e-201
-1.08314e-204
-3.29748e-208
-9.18336e-212
-2.33878e-215
-5.44494e-219
-1.15839e-222
-2.2512e-226
-3.99495e-230
-6.47121e-234
-9.56469e-238
-1.28944e-241
-1.58493e-245
-1.77552e-249
-1.81208e-253
-1.6842e-257
-1.42495e-261
-1.09704e-265
-7.68211e-270
-4.89105e-274
-2.83014e-278
-1.48771e-282
-7.10163e-287
-3.07712e-291
-1.20976e-295
-4.31368e-300
-1.39447e-304
-4.08511e-309
-1.08407e-313
-2.60466e-318
0
0
0
0
0
0
0
0
0
0
0
0
0
0
0
0
0
0
0
0
0
0
0
0
0
0
0
0
0
0
0
0
0
0
0
0
0
0
0
0
0
0
0
0
0
0
0
0
0
0
0
0
0
0
-1.6555e-37
-2.86852e-38
-4.64245e-39
-7.01734e-40
-9.90539e-41
-1.30543e-41
-1.60585e-42
-1.84326e-43
-1.97355e-44
-1.97025e-45
-1.83333e-46
-1.58943e-47
-1.28339e-48
-9.64808e-50
-6.75043e-51
-4.39425e-52
-2.66047e-53
-1.49768e-54
-7.83669e-56
-3.8105e-57
-1.72128e-58
-7.22156e-60
-2.81331e-61
-1.01745e-62
-3.41527e-64
-1.0638e-65
-3.07414e-67
-8.24007e-69
-2.04826e-70
-4.72056e-72
-1.00847e-73
-1.99662e-75
-3.66268e-77
-6.22417e-79
-9.79603e-81
-1.42762e-82
-1.92612e-84
-2.40531e-86
-2.77963e-88
-2.97199e-90
-2.93943e-92
-2.68874e-94
-2.27413e-96
-1.77819e-98
-1.28513e-100
-8.5829e-103
-5.29604e-105
-3.01862e-107
-1.58897e-109
-7.72293e-112
-3.46509e-114
-1.4349e-116
-5.48289e-119
-1.93278e-121
-6.28412e-124
-1.88407e-126
-5.20767e-129
-1.32673e-131
-3.11466e-134
-6.73637e-137
-1.34191e-139
-2.46148e-142
-4.15657e-145
-6.45998e-148
-9.23787e-151
-1.21518e-153
-1.47003e-156
-1.63496e-159
-1.67134e-162
-1.56992e-165
-1.35463e-168
-1.07341e-171
-7.80892e-175
-5.21388e-178
-3.19407e-181
-1.79476e-184
-9.2472e-188
-4.36735e-191
-1.89011e-194
-7.49332e-198
-2.72041e-201
-9.04106e-205
-2.74966e-208
-7.64997e-212
-1.94629e-215
-4.52655e-219
-9.62006e-223
-1.86757e-226
-3.31058e-230
-5.35663e-234
-7.90809e-238
-1.06482e-241
-1.30716e-245
-1.46238e-249
-1.49037e-253
-1.3831e-257
-1.1683e-261
-8.97883e-266
-6.27576e-270
-3.98758e-274
-2.30231e-278
-1.20738e-282
-5.74857e-287
-2.48384e-291
-9.73522e-296
-3.45967e-300
-1.11429e-304
-3.25123e-309
-8.58988e-314
-2.05382e-318
0
0
0
0
0
0
0
0
0
0
0
0
0
0
0
0
0
0
0
0
0
0
0
0
0
0
0
0
0
0
0
0
0
0
0
0
0
0
0
0
0
0
0
0
0
0
0
0
0
0
0
0
0
0
-1.50703e-37
-2.62221e-38
-4.25982e-39
-6.46009e-40
-9.14383e-41
-1.20769e-41
-1.48798e-42
-1.70972e-43
-1.83145e-44
-1.82834e-45
-1.70043e-46
-1.47286e-47
-1.18774e-48
-8.91454e-50
-6.22537e-51
-4.0438e-52
-2.44257e-53
-1.37156e-54
-7.15779e-56
-3.47078e-57
-1.56335e-58
-6.53978e-60
-2.54012e-61
-9.15876e-63
-3.06495e-64
-9.51755e-66
-2.74194e-67
-7.32709e-69
-1.81576e-70
-4.17201e-72
-8.88591e-74
-1.75402e-75
-3.20814e-77
-5.43582e-79
-8.53061e-81
-1.23968e-82
-1.66787e-84
-2.07708e-86
-2.39384e-88
-2.55271e-90
-2.51819e-92
-2.29757e-94
-1.93845e-96
-1.51203e-98
-1.09018e-100
-7.26404e-103
-4.47215e-105
-2.54343e-107
-1.33598e-109
-6.47989e-112
-2.90154e-114
-1.1992e-116
-4.57361e-119
-1.60931e-121
-5.22322e-124
-1.56334e-126
-4.3141e-129
-1.09735e-131
-2.57226e-134
-5.5552e-137
-1.10508e-139
-2.02435e-142
-3.41404e-145
-5.29949e-148
-7.56951e-151
-9.94614e-154
-1.20193e-156
-1.33543e-159
-1.36383e-162
-1.2799e-165
-1.10342e-168
-8.73636e-172
-6.35058e-175
-4.23701e-178
-2.59378e-181
-1.45647e-184
-7.49938e-188
-3.53967e-191
-1.53099e-194
-6.06612e-198
-2.20104e-201
-7.31099e-205
-2.22229e-208
-6.17946e-212
-1.57133e-215
-3.6525e-219
-7.75818e-223
-1.50526e-226
-2.66673e-230
-4.31216e-234
-6.36189e-238
-8.56013e-242
-1.05003e-245
-1.17375e-249
-1.19513e-253
-1.10801e-257
-9.34922e-262
-7.17668e-266
-5.00956e-270
-3.17843e-274
-1.8322e-278
-9.59137e-283
-4.55769e-287
-1.96501e-291
-7.68317e-296
-2.72315e-300
-8.74487e-305
-2.5432e-309
-6.69496e-314
-1.59426e-318
0
0
0
0
0
0
0
0
0
0
0
0
0
0
0
0
0
0
0
0
0
0
0
0
0
0
0
0
0
0
0
0
0
0
0
0
0
0
0
0
0
0
0
0
0
0
0
0
0
0
0
0
0
0
-1.32935e-37
-2.32071e-38
-3.78205e-39
-5.752e-40
-8.16117e-41
-1.0799e-41
-1.33223e-42
-1.53182e-43
-1.64111e-44
-1.6377e-45
-1.52185e-46
-1.31653e-47
-1.05996e-48
-7.94037e-50
-5.53307e-51
-3.58557e-52
-2.16026e-53
-1.20978e-54
-6.29579e-56
-3.04398e-57
-1.36706e-58
-5.70151e-60
-2.20782e-61
-7.93638e-63
-2.64778e-64
-8.19708e-66
-2.35436e-67
-6.27244e-69
-1.54976e-70
-3.55032e-72
-7.53974e-74
-1.48402e-75
-2.70661e-77
-4.57326e-79
-7.15733e-81
-1.03732e-82
-1.39195e-84
-1.729e-86
-1.98767e-88
-2.11438e-90
-2.08079e-92
-1.89406e-94
-1.59439e-96
-1.24091e-98
-8.92787e-101
-5.93646e-103
-3.64747e-105
-2.07039e-107
-1.08547e-109
-5.25531e-112
-2.3491e-114
-9.69252e-117
-3.69069e-119
-1.29664e-121
-4.20219e-124
-1.25597e-126
-3.46124e-129
-8.79285e-132
-2.0586e-134
-4.44075e-137
-8.82417e-140
-1.6148e-142
-2.7207e-145
-4.21939e-148
-6.02159e-151
-7.90589e-154
-9.54663e-157
-1.05996e-159
-1.08181e-162
-1.01463e-165
-8.74243e-169
-6.91831e-172
-5.02667e-175
-3.35228e-178
-2.05137e-181
-1.15148e-184
-5.92704e-188
-2.7967e-191
-1.2093e-194
-4.79028e-198
-1.7377e-201
-5.77063e-205
-1.75369e-208
-4.87539e-212
-1.23946e-215
-2.88044e-219
-6.11686e-223
-1.18651e-226
-2.10147e-230
-3.39711e-234
-5.01021e-238
-6.73887e-242
-8.26275e-246
-9.23179e-250
-9.39482e-254
-8.70452e-258
-7.33951e-262
-5.62942e-266
-3.92591e-270
-2.48829e-274
-1.43268e-278
-7.48998e-283
-3.55381e-287
-1.52962e-291
-5.96952e-296
-2.11131e-300
-6.76404e-305
-1.96194e-309
-5.14959e-314
-1.22221e-318
0
0
0
0
0
0
0
0
0
0
0
0
0
0
0
0
0
0
0
0
0
0
0
0
0
0
0
0
0
0
0
0
0
0
0
0
0
0
0
0
0
0
0
0
0
0
0
0
0
0
0
0
0
0
-1.13729e-37
-1.99394e-38
-3.26217e-39
-4.97785e-40
-7.08156e-41
-9.3887e-42
-1.15968e-42
-1.33418e-43
-1.42929e-44
-1.42547e-45
-1.32321e-46
-1.14298e-47
-9.18552e-49
-6.86641e-50
-4.77341e-51
-3.08539e-52
-1.85388e-53
-1.03527e-54
-5.37194e-56
-2.58957e-57
-1.15947e-58
-4.821e-60
-1.86115e-61
-6.66976e-63
-2.21843e-64
-6.84711e-66
-1.96073e-67
-5.20827e-69
-1.28307e-70
-2.93092e-72
-6.20671e-74
-1.21825e-75
-2.21584e-77
-3.73406e-79
-5.82871e-81
-8.42611e-83
-1.12787e-84
-1.39759e-86
-1.6029e-88
-1.70119e-90
-1.67045e-92
-1.51728e-94
-1.27456e-96
-9.89994e-99
-7.10881e-101
-4.71807e-103
-2.89366e-105
-1.63967e-107
-8.58228e-110
-4.14853e-112
-1.85157e-114
-7.62863e-117
-2.90081e-119
-1.0178e-121
-3.29446e-124
-9.83512e-127
-2.7074e-129
-6.8707e-132
-1.60702e-134
-3.46347e-137
-6.87643e-140
-1.25738e-142
-2.11698e-145
-3.28092e-148
-4.67944e-151
-6.14035e-154
-7.41098e-157
-8.22472e-160
-8.39088e-163
-7.86703e-166
-6.77646e-169
-5.36113e-172
-3.89438e-175
-2.59667e-178
-1.58875e-181
-8.9169e-185
-4.58938e-188
-2.16537e-191
-9.3627e-195
-3.70864e-198
-1.34531e-201
-4.46755e-205
-1.35769e-208
-3.7745e-212
-9.59586e-216
-2.23003e-219
-4.73559e-223
-9.18557e-227
-1.6268e-230
-2.62958e-234
-3.87779e-238
-5.21494e-242
-6.39294e-246
-7.1409e-250
-7.26474e-254
-6.72839e-258
-5.67066e-262
-4.34704e-266
-3.02964e-270
-1.91879e-274
-1.10382e-278
-5.76494e-283
-2.73219e-287
-1.17445e-291
-4.57665e-296
-1.61597e-300
-5.16736e-305
-1.49565e-309
-3.91638e-314
-9.26981e-319
0
0
0
0
0
0
0
0
0
0
0
0
0
0
0
0
0
0
0
0
0
0
0
0
0
0
0
0
0
0
0
0
0
0
0
0
0
0
0
0
0
0
0
0
0
0
0
0
0
0
0
0
0
0
-9.4578e-38
-1.66878e-38
-2.74439e-39
-4.20481e-40
-5.99987e-41
-7.97093e-42
-9.85727e-43
-1.13452e-43
-1.21511e-44
-1.21088e-45
-1.12256e-46
-9.68014e-48
-7.76359e-49
-5.79013e-50
-4.01506e-51
-2.58824e-52
-1.55077e-53
-8.63473e-55
-4.46709e-56
-2.14684e-57
-9.58288e-59
-3.97224e-60
-1.52877e-61
-5.46185e-63
-1.81115e-64
-5.57329e-66
-1.59123e-67
-4.21447e-69
-1.03527e-70
-2.35822e-72
-4.9802e-74
-9.74884e-76
-1.76854e-77
-2.97265e-79
-4.62863e-81
-6.67505e-83
-8.91382e-85
-1.10203e-86
-1.26114e-88
-1.33561e-90
-1.30878e-92
-1.18642e-94
-9.94723e-97
-7.7122e-99
-5.52812e-101
-3.6628e-103
-2.24284e-105
-1.26894e-107
-6.63211e-110
-3.2014e-112
-1.42697e-114
-5.87196e-117
-2.23022e-119
-7.81655e-122
-2.52748e-124
-7.53819e-127
-2.07325e-129
-5.25705e-132
-1.22866e-134
-2.64618e-137
-5.25043e-140
-9.59512e-143
-1.61464e-145
-2.50125e-148
-3.56598e-151
-4.67763e-154
-5.64389e-157
-6.26204e-160
-6.38725e-163
-5.98753e-166
-5.1569e-169
-4.0795e-172
-2.96327e-175
-1.97581e-178
-1.2089e-181
-6.78534e-185
-3.49255e-188
-1.64801e-191
-7.12653e-195
-2.82323e-198
-1.02426e-201
-3.40188e-205
-1.03398e-208
-2.87497e-212
-7.31e-216
-1.69902e-219
-3.60837e-223
-6.99976e-227
-1.23977e-230
-2.00406e-234
-2.95538e-238
-3.97433e-242
-4.87172e-246
-5.44101e-250
-5.53435e-254
-5.12449e-258
-4.31753e-262
-3.30844e-266
-2.30469e-270
-1.45881e-274
-8.38636e-279
-4.37651e-283
-2.07227e-287
-8.89845e-292
-3.46345e-296
-1.22125e-300
-3.89922e-305
-1.12665e-309
-2.94447e-314
-6.95323e-319
0
0
0
0
0
0
0
0
0
0
0
0
0
0
0
0
0
0
0
0
0
0
0
0
0
0
0
0
0
0
0
0
0
0
0
0
0
0
0
0
0
0
0
0
0
0
0
0
0
0
0
0
0
0
-6.246e-38
-1.11491e-38
-1.84972e-39
-2.85222e-40
-4.08759e-41
-5.44464e-42
-6.74084e-43
-7.75773e-44
-8.29956e-45
-8.25444e-46
-7.632e-47
-6.56002e-48
-5.24176e-49
-3.89345e-50
-2.6881e-51
-1.72492e-52
-1.02862e-53
-5.69967e-55
-2.93421e-56
-1.4032e-57
-6.23254e-59
-2.57078e-60
-9.84581e-62
-3.50071e-63
-1.15535e-64
-3.53874e-66
-1.00576e-67
-2.65198e-69
-6.48637e-71
-1.47131e-72
-3.0945e-74
-6.03359e-76
-1.09037e-77
-1.82597e-79
-2.83305e-81
-4.07159e-83
-5.41925e-85
-6.67873e-87
-7.6198e-89
-8.04642e-91
-7.86298e-93
-7.10904e-95
-5.9455e-97
-4.59867e-99
-3.28894e-101
-2.17455e-103
-1.32888e-105
-7.50441e-108
-3.91533e-110
-1.8869e-112
-8.39782e-115
-3.45085e-117
-1.30898e-119
-4.58238e-122
-1.48013e-124
-4.41024e-127
-1.21192e-129
-3.07068e-132
-7.17196e-135
-1.54375e-137
-3.06157e-140
-5.59279e-143
-9.40843e-146
-1.45712e-148
-2.07706e-151
-2.72431e-154
-3.28699e-157
-3.64713e-160
-3.72041e-163
-3.48808e-166
-3.00477e-169
-2.37756e-172
-1.72748e-175
-1.15218e-178
-7.05196e-182
-3.95952e-185
-2.0388e-188
-9.62401e-192
-4.16332e-195
-1.64996e-198
-5.9883e-202
-1.98962e-205
-6.04945e-209
-1.68259e-212
-4.27947e-216
-9.94913e-220
-2.11346e-223
-4.10054e-227
-7.2636e-231
-1.17422e-234
-1.7316e-238
-2.32846e-242
-2.85378e-246
-3.1865e-250
-3.24009e-254
-2.99885e-258
-2.52526e-262
-1.9338e-266
-1.34606e-270
-8.51249e-275
-4.88851e-279
-2.54806e-283
-1.20486e-287
-5.16577e-292
-2.00715e-296
-7.0638e-301
-2.25049e-305
-6.48718e-310
-1.69094e-314
-3.98118e-319
0
0
0
0
0
0
0
0
0
0
0
0
0
0
0
0
0
0
0
0
0
0
0
0
0
0
0
0
0
0
0
0
0
0
0
0
0
0
0
0
0
0
0
0
0
0
0
0
0
0
0
0
0
0
-3.98086e-38
-7.16923e-39
-1.19711e-39
-1.85405e-40
-2.66433e-41
-3.55359e-42
-4.40042e-43
-5.0604e-44
-5.40551e-45
-5.36442e-46
-4.94649e-47
-4.23841e-48
-3.37494e-49
-2.49744e-50
-1.71747e-51
-1.09756e-52
-6.51753e-54
-3.59597e-55
-1.84324e-56
-8.77663e-58
-3.88152e-59
-1.59422e-60
-6.07998e-62
-2.15282e-63
-7.07618e-65
-2.1588e-66
-6.11194e-68
-1.60556e-69
-3.91269e-71
-8.84399e-73
-1.85378e-74
-3.60266e-76
-6.49013e-78
-1.08359e-79
-1.67636e-81
-2.40257e-83
-3.18938e-85
-3.92076e-87
-4.46256e-89
-4.70178e-91
-4.58478e-93
-4.13682e-95
-3.45319e-97
-2.6662e-99
-1.90368e-101
-1.25672e-103
-7.66887e-106
-4.32499e-108
-2.25375e-110
-1.08493e-112
-4.8237e-115
-1.98035e-117
-7.50573e-120
-2.62563e-122
-8.4755e-125
-2.52398e-127
-6.93252e-130
-1.75581e-132
-4.09959e-135
-8.82204e-138
-1.74926e-140
-3.19507e-143
-5.37449e-146
-8.32352e-149
-1.18651e-151
-1.55635e-154
-1.87799e-157
-2.08404e-160
-2.12625e-163
-1.99384e-166
-1.71792e-169
-1.35962e-172
-9.88086e-176
-6.5917e-179
-4.03537e-182
-2.26626e-185
-1.16715e-188
-5.51048e-192
-2.38421e-195
-9.4501e-199
-3.43013e-202
-1.13975e-205
-3.4655e-209
-9.63876e-213
-2.45135e-216
-5.69838e-220
-1.21028e-223
-2.34764e-227
-4.15733e-231
-6.71821e-235
-9.90295e-239
-1.33095e-242
-1.63026e-246
-1.81911e-250
-1.8483e-254
-1.70923e-258
-1.43794e-262
-1.1e-266
-7.64795e-271
-4.83048e-275
-2.77021e-279
-1.44177e-283
-6.80643e-288
-2.91311e-292
-1.12974e-296
-3.9678e-301
-1.26134e-305
-3.6273e-310
-9.43085e-315
-2.21203e-319
0
0
0
0
0
0
0
0
0
0
0
0
0
0
0
0
0
0
0
0
0
0
0
0
0
0
0
0
0
0
0
0
0
0
0
0
0
0
0
0
0
0
0
0
0
0
0
0
0
0
0
0
0
0
-2.45595e-38
-4.45193e-39
-7.46778e-40
-1.16005e-40
-1.66987e-41
-2.22864e-42
-2.75911e-43
-3.16994e-44
-3.38096e-45
-3.34852e-46
-3.08023e-47
-2.63211e-48
-2.08965e-49
-1.54142e-50
-1.0565e-51
-6.72844e-53
-3.98148e-54
-2.18895e-55
-1.11803e-56
-5.30462e-58
-2.33775e-59
-9.56822e-61
-3.63666e-62
-1.28338e-63
-4.20467e-65
-1.27871e-66
-3.60916e-68
-9.45298e-70
-2.29711e-71
-5.17805e-73
-1.08253e-74
-2.09854e-76
-3.77149e-78
-6.28261e-80
-9.69865e-82
-1.3872e-83
-1.83797e-85
-2.2554e-87
-2.56275e-89
-2.6959e-91
-2.62498e-93
-2.36531e-95
-1.97197e-97
-1.52082e-99
-1.08474e-101
-7.15419e-104
-4.362e-106
-2.45816e-108
-1.2801e-110
-6.15865e-113
-2.73681e-115
-1.12311e-117
-4.25522e-120
-1.48813e-122
-4.80262e-125
-1.42998e-127
-3.9273e-130
-9.94628e-133
-2.32232e-135
-4.99769e-138
-9.91033e-141
-1.81036e-143
-3.04566e-146
-4.71761e-149
-6.7261e-152
-8.82437e-155
-1.06502e-157
-1.18211e-160
-1.2063e-163
-1.1314e-166
-9.75014e-170
-7.71789e-173
-5.60974e-176
-3.74284e-179
-2.29156e-182
-1.28702e-185
-6.62858e-189
-3.12955e-192
-1.35399e-195
-5.36625e-199
-1.94754e-202
-6.46997e-206
-1.96678e-209
-5.4687e-213
-1.39033e-216
-3.23061e-220
-6.85826e-224
-1.32963e-227
-2.35317e-231
-3.80018e-235
-5.59756e-239
-7.51709e-243
-9.1996e-247
-1.02557e-250
-1.04097e-254
-9.61603e-259
-8.08043e-263
-6.17377e-267
-4.28682e-271
-2.70383e-275
-1.54834e-279
-8.04599e-284
-3.79224e-288
-1.62028e-292
-6.27238e-297
-2.1988e-301
-6.97608e-306
-2.00199e-310
-5.19385e-315
-1.21313e-319
0
0
0
0
0
0
0
0
0
0
0
0
0
0
0
0
0
0
0
0
0
0
0
0
0
0
0
0
0
0
0
0
0
0
0
0
0
0
0
0
0
0
0
0
0
0
0
0
0
0
0
0
0
0
-1.46565e-38
-2.67141e-39
-4.49825e-40
-7.0052e-41
-1.00985e-41
-1.34859e-42
-1.66941e-43
-1.91669e-44
-2.04194e-45
-2.01924e-46
-1.85403e-47
-1.58097e-48
-1.25225e-49
-9.21457e-51
-6.29949e-52
-4.00129e-53
-2.36134e-54
-1.29469e-55
-6.59478e-57
-3.12052e-58
-1.37154e-59
-5.59891e-61
-2.12257e-62
-7.47191e-64
-2.44208e-65
-7.40948e-67
-2.08666e-68
-5.45362e-70
-1.32255e-71
-2.97547e-73
-6.20915e-75
-1.20159e-76
-2.15599e-78
-3.58602e-80
-5.52799e-82
-7.89629e-84
-1.04495e-85
-1.28083e-87
-1.45389e-89
-1.52801e-91
-1.48657e-93
-1.33851e-95
-1.11519e-97
-8.59556e-100
-6.12784e-102
-4.03978e-104
-2.46224e-106
-1.38718e-108
-7.22222e-111
-3.47413e-113
-1.54369e-115
-6.33457e-118
-2.40001e-120
-8.3936e-123
-2.70905e-125
-8.06707e-128
-2.21583e-130
-5.61268e-133
-1.31071e-135
-2.82119e-138
-5.59544e-141
-1.02234e-143
-1.72026e-146
-2.6651e-149
-3.80041e-152
-4.98675e-155
-6.01936e-158
-6.68189e-161
-6.81918e-164
-6.39612e-167
-5.51209e-170
-4.36309e-173
-3.1711e-176
-2.11554e-179
-1.29504e-182
-7.27192e-186
-3.7443e-189
-1.76725e-192
-7.64317e-196
-3.02792e-199
-1.09838e-202
-3.64698e-206
-1.10797e-209
-3.07871e-213
-7.82148e-217
-1.816e-220
-3.85194e-224
-7.46108e-228
-1.31918e-231
-2.12818e-235
-3.13133e-239
-4.2003e-243
-5.13419e-247
-5.71627e-251
-5.7944e-255
-5.34516e-259
-4.48506e-263
-3.42159e-267
-2.37209e-271
-1.49371e-275
-8.53931e-280
-4.42975e-284
-2.08408e-288
-8.888e-293
-3.43412e-297
-1.20148e-301
-3.80419e-306
-1.08946e-310
-2.82038e-315
-6.5602e-320
0
0
0
0
0
0
0
0
0
0
0
0
0
0
0
0
0
0
0
0
0
0
0
0
0
0
0
0
0
0
0
0
0
0
0
0
0
0
0
0
0
0
0
0
0
0
0
0
0
0
0
0
0
0
-8.46387e-39
-1.55115e-39
-2.6222e-40
-4.09487e-41
-5.91379e-42
-7.9057e-43
-9.79055e-44
-1.12397e-44
-1.19681e-45
-1.18251e-46
-1.08454e-47
-9.23575e-49
-7.30441e-50
-5.36608e-51
-3.66215e-52
-2.32194e-53
-1.36777e-54
-7.48545e-56
-3.80582e-57
-1.79754e-58
-7.88643e-60
-3.21375e-61
-1.21627e-62
-4.27452e-64
-1.39486e-65
-4.22579e-67
-1.18838e-68
-3.10173e-70
-7.5125e-72
-1.68817e-73
-3.51902e-75
-6.80317e-77
-1.21956e-78
-2.02678e-80
-3.12201e-82
-4.45655e-84