/*--------------------------------*- C++ -*----------------------------------*\
| =========                 |                                                 |
| \\      /  F ield         | OpenFOAM: The Open Source CFD Toolbox           |
|  \\    /   O peration     | Version:  v1912                                 |
|   \\  /    A nd           | Website:  www.openfoam.com                      |
|    \\/     M anipulation  |                                                 |
\*---------------------------------------------------------------------------*/
FoamFile
{
    version     2.0;
    format      ascii;
    class       volScalarField;
    location    "10";
    object      p_rgh;
}
// * * * * * * * * * * * * * * * * * * * * * * * * * * * * * * * * * * * * * //

dimensions      [1 -1 -2 0 0 0 0];


internalField   nonuniform List<scalar> 
114144
(
-3167.64
-3448.43
-3773.92
-4139.48
-4518.83
-4874.53
-5171.93
-5386.66
-5505.36
-5520.59
-5430.52
-5240.51
-4963.96
-4634.49
-4300.87
-4014.2
-3810.94
-3698.12
-3647.23
-3604.14
-3514.52
-3347.47
-3102.16
-2793.99
-2382.7
-1835.29
-1143.17
369.886
1205.19
1963.86
2654.27
3272.45
3807.02
4244.09
4572.4
4788.66
4897.67
4907.45
4833.65
4673.52
4425.24
4083.24
3645.32
3113.65
2495.64
1803.69
1055.44
276.985
-469.353
-1130.63
-1760.85
-2288.15
-2684.5
-2934.82
-3036.24
-3000.32
-2848.14
-2607.38
-2303.55
-1954.25
-1595.49
-1279.38
-1032.63
-863.758
-768.4
-733.307
-740.678
-773.32
-820.137
-869.986
-924.605
-981.55
-1037.7
-1090.16
-1133.65
-1159.26
-1160.2
-1131.27
-1068.46
-971.376
-841.226
-681.353
-496.782
-293.399
-76.8543
148.47
389.15
629.876
884.74
1163
1475.63
1831.67
2234.29
2677.69
3145.87
3613.79
4050.59
4425.71
4720.5
4911.62
4958.07
4829.35
4492.32
3953.42
3214.44
2287.87
1196.32
-22.9829
-1359.12
-2683.16
-3980.08
-5203.19
-6304.1
-7239.95
-7973.97
-8478.69
-8735.03
-8742.4
-8487.17
-7993.55
-7273.66
-6348.64
-5242.69
-3987.54
-2620.99
-1183.09
272.091
1717.23
3107.68
4392.47
5541.24
6527.03
7329.35
7935.16
8341.31
8550.82
8563.58
8404.43
8078.42
7600.6
6989.67
6265.21
5448.15
4560.78
3624.07
2656.24
1672.93
693.948
-270.18
-1217.83
-2137.49
-3010.31
-3823.4
-4560.74
-5203.67
-5731
-6124.31
-6369.33
-6456.1
-6386.56
-6176.48
-5848.69
-5437.73
-4966.46
-4496.1
-4019.26
-3582.91
-3185.54
-2833.54
-2513.68
-2209.36
-1896.62
-1552.74
-1154.34
-692.044
-172.548
399.618
1022.77
1662.84
2286.74
2867.4
3378.98
3800.41
4116.25
4317.74
4402.89
4381.04
4259.58
4055.31
3788.82
3478.66
3144.2
2803.1
2469.23
2152.03
1857.09
1587.15
1342.01
1119.58
916.975
731.268
560.049
401.637
255.088
120.029
-3.43614
-114.989
-214.285
-301.081
-375.319
-437.165
-487.022
-525.501
-553.385
-571.577
-581.057
-582.893
-578.102
-567.693
-552.624
-533.793
-512.019
-488.046
-462.532
-436.053
-409.107
-382.112
-355.418
-329.311
-304.017
-279.713
-256.53
-234.563
-213.87
-194.48
-176.399
-159.615
-144.098
-129.807
-116.691
-104.696
-93.7578
-83.8143
-74.8003
-66.6511
-59.3033
-52.696
-46.7704
-41.4769
-36.7593
-3071.23
-3343.56
-3658.6
-4015.19
-4392.43
-4757.4
-5077.05
-5324.63
-5481.13
-5534.25
-5474.44
-5315.02
-5070.69
-4771.48
-4459.52
-4180.96
-3971.65
-3842.44
-3771.3
-3711.81
-3616.94
-3458.6
-3227.94
-2927.8
-2543.63
-2032.2
-1371.19
4.88879
858.424
1635.26
2352.29
3001.12
3566.82
4036.91
4403.88
4666.06
4826.72
4890.07
4868.59
4759.14
4557.77
4258.69
3858.98
3359.56
2766.63
2092.44
1356.02
584.167
-168.417
-863.077
-1528.73
-2099.83
-2546.47
-2850.26
-3004.55
-3018.51
-2900.58
-2686.31
-2392.86
-2050.68
-1703.44
-1389.21
-1133.86
-948.977
-833.542
-777.134
-764.168
-779.176
-813.109
-853.419
-903.309
-959.422
-1017.43
-1072.16
-1118.26
-1148.8
-1156.31
-1135.36
-1080.35
-991.317
-868.604
-715.012
-535.22
-335.022
-120.292
103.983
342.186
581.956
834.74
1109.27
1416.35
1765.44
2160.72
2597.87
3062.78
3532.41
3977.85
4368.57
4677.14
4883.19
4954.87
4855.9
4552.02
4045.58
3336.04
2433.77
1359.69
149.559
-1185.19
-2526.29
-3836.44
-5079.89
-6206.75
-7170.59
-7933.06
-8465.32
-8747
-8778.48
-8542.42
-8065.99
-7360.72
-6447.37
-5349.93
-4100
-2735.25
-1295.64
164.567
1622.34
3023.23
4321.08
5484.01
6483.78
7301.21
7923.68
8345.04
8567.75
8592.08
8440.31
8119.87
7645.18
7035.16
6309.71
5490.19
4599.38
3658.69
2686.71
1699.36
716.77
-251.391
-1202.66
-2126.04
-3002.81
-3820.32
-4562.52
-5210.61
-5743.02
-6140.81
-6389.34
-6477.95
-6408.14
-6196.14
-5865.06
-5449.83
-4973.82
-4498.96
-4018.37
-3579.57
-3181.33
-2830.07
-2512.35
-2211.1
-1901.75
-1560.91
-1164.74
-703.206
-182.999
391.42
1018.1
1661.93
2290.02
2874.73
3389.8
3813.88
4131.34
4333.34
4417.79
4394.72
4271.11
4064.17
3794.85
3481.94
3145.04
2801.97
2466.7
2148.65
1853.37
1583.49
1338.65
1116.64
914.46
729.109
558.145
399.884
253.398
118.333
-5.17184
-116.767
-216.094
-302.893
-377.104
-438.89
-488.658
-527.025
-554.779
-572.829
-582.163
-583.851
-578.915
-568.368
-553.171
-534.221
-512.341
-488.273
-462.676
-436.125
-409.118
-382.072
-355.337
-329.197
-303.877
-279.553
-256.357
-234.382
-213.684
-194.293
-176.214
-159.433
-143.922
-129.638
-116.531
-104.544
-93.6152
-83.6811
-74.6763
-66.5362
-59.1971
-52.598
-46.68
-41.392
-36.6777
-3005.23
-3269.24
-3578.69
-3934.4
-4317.4
-4695.6
-5035.13
-5306.65
-5487.74
-5562.83
-5521.28
-5376.05
-5142.98
-4852.31
-4545.33
-4267.25
-4054.32
-3919.45
-3843.62
-3783.11
-3692.83
-3544.63
-3325.99
-3033.33
-2659.57
-2162.31
-1512.83
-238.016
650.661
1446.61
2184.13
2854.23
3441.26
3933.07
4323.26
4611.43
4801.88
4897.57
4906.66
4828.17
4656.32
4383.78
4006.28
3523.66
2941.48
2272
1534.89
757.496
-10.2293
-736.245
-1428.9
-2028.9
-2505.26
-2837.69
-3017.47
-3051.09
-2944.87
-2734.06
-2440.05
-2101.64
-1757.48
-1442.55
-1182.01
-988.407
-862.163
-794.244
-770.267
-775.786
-802.861
-839.645
-888.821
-946.471
-1007.53
-1065.92
-1115.27
-1149.14
-1160.76
-1144.31
-1093.76
-1008.78
-889.395
-738.182
-559.773
-360.105
-145.375
78.8131
313.937
552.303
802.431
1073
1375.17
1719.2
2110.47
2546.02
3013.01
3489.44
3946.94
4354.45
4681.72
4902.35
4990.78
4910.16
4624.89
4134.23
3436.51
2540.96
1468.02
253.151
-1089.29
-2452.6
-3785.51
-5049.75
-6197.06
-7181.65
-7963.57
-8513.11
-8809.28
-8852.46
-8623.79
-8152.97
-7451.29
-6539.23
-5440.6
-4186.92
-2815.89
-1367.45
104.072
1575.25
2991.1
4303.63
5480.75
6493.78
7323.34
7956.66
8386.82
8615.92
8643.59
8493.76
8172.37
7694.55
7079.78
6348.39
5522.32
4624.86
3677.85
2700.18
1707.94
721.253
-251.423
-1206.36
-2133.61
-3014.7
-3837.32
-4585.31
-5239.59
-5777.9
-6180.49
-6432.04
-6520.79
-6448.88
-6230.98
-5891.76
-5467.29
-4981.77
-4498.44
-4011.2
-3568.55
-3169.55
-2820.55
-2507.61
-2212.74
-1910.16
-1575.25
-1183.34
-723.162
-201.361
377.421
1010.97
1662.05
2298.19
2890.58
3412.26
3841.33
4161.77
4364.59
4447.65
4421.72
4293.76
4081.49
3806.55
3488.17
3146.43
2799.48
2461.47
2141.76
1845.84
1576.09
1331.89
1110.74
909.42
724.789
554.34
396.382
250.018
114.939
-8.64909
-120.331
-219.717
-306.525
-380.68
-442.346
-491.936
-530.076
-557.568
-575.333
-584.37
-585.761
-580.537
-569.714
-554.26
-535.075
-512.982
-488.724
-462.961
-436.267
-409.138
-381.99
-355.172
-328.965
-303.594
-279.232
-256.01
-234.017
-213.31
-193.917
-175.842
-159.07
-143.57
-129.3
-116.209
-104.24
-93.3292
-83.4136
-74.4274
-66.3054
-58.9839
-52.4013
-46.4985
-41.2226
-36.5173
-2948.28
-3201.99
-3506.02
-3863.02
-4254.9
-4649.21
-5010.42
-5306.33
-5511.22
-5606.29
-5579.83
-5443.75
-5214.67
-4923.94
-4613.79
-4330.47
-4111.78
-3973.09
-3897.56
-3842.32
-3761.78
-3626.72
-3422
-3140.19
-2775.22
-2286.83
-1643.26
-458.403
477.18
1293.88
2052.69
2744.19
3351.85
3863.51
4273.59
4583.03
4797.73
4921.07
4956.41
4904.51
4758.74
4509.57
4150.96
3681.42
3105.72
2436.01
1692.46
903.04
113.132
-648.306
-1369.75
-1998.31
-2501.83
-2858.13
-3056.45
-3103.08
-2997.61
-2784.36
-2488.69
-2148.59
-1802.32
-1483.54
-1216.8
-1014.99
-879.408
-801.736
-768.607
-766.291
-787.572
-822.962
-873.042
-933.52
-998.702
-1061.95
-1116.26
-1154.62
-1170.42
-1158.22
-1111.82
-1030.37
-913.521
-763.731
-585.669
-385.559
-170.045
54.5098
285.631
522.008
768.403
1033.6
1329.37
1667.24
2054.19
2488.98
2960.23
3446.87
3920.75
4349.94
4701.76
4944.98
5053.42
4992.39
4727.13
4252
3564.37
2672.26
1595.82
370.536
-984.697
-2376.56
-3739.03
-5033.79
-6210.68
-7222.67
-8028.65
-8598.81
-8913.78
-8965.09
-8743.12
-8277.29
-7578.2
-6665.61
-5563.13
-4302.36
-2921.01
-1459.11
28.8289
1519.62
2956.16
4289.27
5486.08
6517.22
7363.16
8010.96
8452.7
8689.95
8722.01
8573.73
8250.5
7767.72
7145.72
6405.45
5569.63
4662.3
3705.96
2719.93
1720.66
728.308
-251.476
-1211.61
-2144.47
-3032
-3862.36
-4619.25
-5283.09
-5830.64
-6240.77
-6497.15
-6586.78
-6510.94
-6283.76
-5932.23
-5493.84
-4993.9
-4497.69
-4000.34
-3551.78
-3151.61
-2806.12
-2500.54
-2215.53
-1923.43
-1597.68
-1212.3
-754.273
-229.908
355.378
999.455
1661.76
2310.26
2914.44
3446.24
3882.92
4207.9
4411.94
4493.14
4462.75
4328.05
4107.69
3824.18
3497.45
3148.33
2795.51
2453.36
2131.21
1834.37
1564.89
1321.7
1101.88
901.879
718.342
548.666
391.158
244.97
109.857
-13.8649
-125.682
-225.163
-311.984
-386.056
-447.541
-496.861
-534.66
-561.757
-579.092
-587.685
-588.629
-582.969
-571.733
-555.892
-536.353
-513.94
-489.398
-463.385
-436.476
-409.164
-381.865
-354.922
-328.616
-303.168
-278.749
-255.487
-233.469
-212.749
-193.353
-175.284
-158.524
-143.042
-128.794
-115.727
-103.784
-92.9007
-83.013
-74.0546
-65.96
-58.6648
-52.1072
-46.2275
-40.9711
-36.2819
-2894.77
-3135.49
-3433.02
-3792.06
-4194.97
-4608.32
-4994.36
-5317.62
-5548.56
-5664.68
-5652.85
-5523.51
-5293.89
-4996.97
-4677.1
-4382.91
-4154.99
-4011.76
-3938.71
-3892.79
-3826.12
-3707.82
-3520.59
-3253.24
-2898.45
-2417.21
-1776.49
-672.11
319.586
1159.02
1941.54
2656.6
3286.28
3818.08
4247.06
4575.51
4811.28
4960.64
5018.4
4991.24
4869.65
4642.1
4300.45
3841.62
3269.41
2595.57
1840.6
1033.15
214.353
-586.833
-1340.34
-1999.31
-2529.99
-2907.86
-3118.32
-3164.56
-3065.26
-2846.49
-2543.71
-2196.01
-1842.16
-1515.52
-1240.39
-1029.78
-885.41
-799.294
-758.63
-750.101
-767.121
-802.895
-855.424
-919.965
-990.287
-1059.36
-1119.81
-1164.19
-1185.49
-1177.42
-1134.68
-1056.25
-941.122
-791.687
-612.764
-411.016
-193.637
31.8033
258.866
493.006
734.965
993.679
1281.87
1612.68
1995.09
2429.9
2907.3
3407.05
3900.88
4355.77
4736.78
5009.22
5142.61
5102.56
4856.91
4395.05
3713.75
2819.72
1733.03
489.842
-885.059
-2312
-3711.17
-5043.06
-6255.5
-7299.89
-8133.31
-8725.75
-9058.93
-9117.43
-8901.44
-8437.34
-7735.88
-6817.6
-5706.57
-4433.6
-3036.49
-1555.36
-45.0541
1470.61
2933.71
4292.64
5513.7
6566.65
7431.47
8094.78
8548.02
8792.23
8826.24
8677.47
8349.2
7857.73
7224.53
6471.38
5621.99
4701.34
3732.73
2735.99
1728.09
729.029
-260.038
-1226.09
-2165.41
-3060.65
-3900.54
-4668.51
-5344.38
-5903.53
-6323.05
-6585.19
-6674.85
-6593.23
-6354.48
-5985.65
-5528.02
-5008.38
-4494.69
-3983.77
-3527.39
-3125.86
-2785.35
-2489.92
-2218.4
-1940.57
-1627.31
-1250.74
-795.728
-267.772
326.124
984.212
1661.69
2326.8
2946.75
3492.09
3938.92
4269.92
4475.58
4554.11
4517.64
4373.8
4142.54
3847.46
3509.54
3150.53
2789.85
2442.19
2116.8
1818.83
1549.79
1308.03
1090.06
891.87
709.815
541.175
384.256
238.282
103.103
-20.8159
-132.826
-232.441
-319.285
-393.246
-454.488
-503.444
-540.784
-567.35
-584.107
-592.102
-592.449
-586.207
-574.417
-558.061
-538.048
-515.209
-490.287
-463.943
-436.748
-409.193
-381.691
-354.583
-328.146
-302.596
-278.101
-254.786
-232.735
-211.998
-192.6
-174.538
-157.795
-142.337
-128.117
-115.083
-103.175
-92.3291
-82.4787
-73.5575
-65.4994
-58.2395
-51.7153
-45.8668
-40.6375
-35.972
-2842.31
-3066.75
-3355.95
-3717
-4132.58
-4567.99
-4982.82
-5337.76
-5598.64
-5738.4
-5742.39
-5618.62
-5384.98
-5076.6
-4740.87
-4429.99
-4188.63
-4038.59
-3968.75
-3935.34
-3886.63
-3789.31
-3624.31
-3375.43
-3033.12
-2558.84
-1919.54
-886.91
167.697
1032.3
1842.17
2584.16
3238.38
3791.71
4239.71
4586.09
4840.6
5019.85
5092.89
5089.91
4991.87
4785.23
4459.67
4010.27
3439.5
2758.41
1987.61
1156.45
302.398
-542.162
-1332.32
-2024.66
-2582.99
-2980.34
-3201.61
-3248.06
-3151.49
-2923.22
-2607.96
-2246.92
-1880.17
-1541.49
-1255.26
-1034.61
-881.328
-787.454
-740.441
-726.998
-741.265
-778.933
-835.324
-905.125
-981.648
-1057.57
-1125.23
-1176.76
-1204.55
-1202.32
-1163.61
-1087.42
-973.191
-823.136
-642.139
-437.241
-217.012
9.49465
231.949
464.443
701.345
952.381
1231.53
1553.94
1931.11
2366.2
2851.23
3366.71
3884.1
4369.07
4784.17
5091.68
5255.65
5241.29
5016.37
4566.53
3889.05
2988.69
1885.67
617.444
-784.121
-2252.97
-3696.57
-5073.42
-6328.57
-7411.16
-8275.9
-8892.72
-9242.92
-9308.88
-9097.69
-8634.32
-7929.19
-7002.13
-5877.18
-4586.76
-3168.67
-1662.73
-124.171
1422.16
2917.83
4308.18
5558.56
6637.54
7524.5
8205.5
8671.36
8922.56
8958.01
8806.67
8470.96
7967.7
7319.79
6550.06
5683.43
4746.01
3762.09
2752.14
1734.01
727.642
-274.151
-1246.56
-2193.27
-3097.77
-3949.4
-4731.2
-5422.25
-5996.16
-6427.67
-6697.13
-6787.19
-6697.72
-6443.8
-6053.05
-5570.73
-5025.86
-4489.77
-3961.49
-3495.18
-3092.04
-2758.06
-2475.86
-2221.89
-1962.68
-1665.58
-1300.37
-849.432
-316.724
288.189
964.045
1661.12
2347.56
2987.66
3550.27
4010.01
4348.59
4556.27
4632.46
4587.14
4431.5
4186.32
3876.49
3524.28
3152.72
2782.12
2427.57
2098.23
1798.97
1530.65
1290.83
1075.29
879.436
699.271
531.928
375.731
229.994
94.6928
-29.5002
-141.774
-241.569
-328.447
-402.27
-463.203
-511.7
-548.458
-574.356
-590.38
-597.626
-597.22
-590.247
-577.763
-560.76
-540.156
-516.783
-491.387
-464.628
-437.075
-409.218
-381.464
-354.151
-327.549
-301.873
-277.285
-253.905
-231.813
-211.056
-191.654
-173.604
-156.882
-141.454
-127.271
-114.278
-102.415
-91.6144
-81.8109
-72.9365
-64.9241
-57.7085
-51.2263
-45.4171
-40.2231
-35.589
-2789.76
-2993.97
-3272.29
-3634.63
-4064.08
-4524.57
-4972.79
-5364.85
-5660.95
-5828.12
-5850.45
-5732.02
-5491.4
-5166.49
-4808.63
-4474.74
-4214.5
-4054.51
-3987.47
-3969.34
-3943.04
-3871.56
-3734.56
-3508.75
-3181.97
-2714.93
-2076.63
-1106.67
14.7256
907.581
1749.55
2522.86
3205.02
3782.03
4249.89
4613.78
4884.51
5077.9
5179.86
5201.52
5126.86
4940.98
4631.33
4190.8
3620.17
2929.42
2138.97
1279
390.112
-505.119
-1339.19
-2070.97
-2661.71
-3081.67
-3314.81
-3360.4
-3258.59
-3016.48
-2683.19
-2303.02
-1917.97
-1562.84
-1262.45
-1030.09
-867.487
-766.136
-713.753
-696.568
-709.927
-750.74
-812.337
-888.617
-972.44
-1056.31
-1132.31
-1192.16
-1227.61
-1232.22
-1198.55
-1124.92
-1010.81
-858.811
-674.304
-465.255
-241.324
-12.8709
205.055
436.296
667.629
909.761
1178.21
1490.59
1861.4
2296.65
2790.38
3324
3868.52
4388.13
4842.61
5190.83
5391.56
5410.98
5208.24
4768.33
4092.46
3181.67
2056.17
755.425
-680.52
-2198.34
-3694.68
-5124.78
-6430.23
-7557.31
-8457.48
-9101.15
-9468.4
-9539.94
-9332.86
-8868.3
-8157.01
-7218.59
-6076.49
-4763.06
-3318.17
-1781.49
-208.52
1374.56
2909.1
4336.72
5621.66
6731.07
7643.53
8344.32
8823.75
9081.68
9117.77
8961.47
8615.56
8097.01
7430.53
6640.2
5752.4
4794.56
3792.17
2766.48
1736.63
723.54
-296.312
-1274.32
-2228.98
-3144.11
-4009.56
-4807.89
-5517.28
-6109.21
-6555.41
-6833.81
-6924.3
-6825.13
-6552.34
-6135.07
-5621.9
-5045.76
-4481.93
-3932.25
-3453.7
-3048.68
-2722.96
-2457.4
-2225.4
-1989.32
-1712.52
-1361.4
-915.816
-377.142
241.337
938.695
1659.99
2372.62
3037.4
3621.12
4096.58
4444.34
4654.38
4726.46
4671.25
4501.15
4238.9
3910.98
3541.34
3154.52
2771.91
2409.1
2075.13
1774.52
1507.29
1270.03
1057.57
864.638
686.792
521.012
365.653
220.152
84.6484
-39.9158
-152.537
-252.567
-339.494
-413.153
-473.71
-521.647
-557.697
-582.783
-597.916
-604.255
-602.94
-595.085
-581.764
-563.983
-542.667
-518.653
-492.688
-465.431
-437.451
-409.232
-381.177
-353.618
-326.822
-300.995
-276.296
-252.84
-230.701
-209.921
-190.516
-172.478
-155.784
-140.392
-126.254
-113.311
-101.501
-90.7566
-81.0096
-72.1914
-64.2343
-57.0719
-50.6404
-44.8788
-39.7281
-35.1335
-2736.66
-2915.94
-3180.02
-3542.13
-3986.02
-4474.58
-4961.32
-5397.07
-5735.11
-5934.95
-5979.4
-5866.84
-5616.65
-5270.05
-4883.34
-4519.39
-4233.78
-4059.35
-3993.48
-3993.33
-3994.22
-3954.41
-3852.44
-3654.35
-3347.57
-2888.24
-2250.84
-1333.16
-145.373
780.023
1660.11
2470.14
3184.48
3788.03
4277.17
4658.82
4945.14
5143.63
5280.54
5326.82
5275.37
5110.46
4817.04
4385.47
3814.42
3112.3
2299.21
1406.93
478.755
-473.746
-1358.93
-2137.1
-2766.22
-3212.97
-3459.07
-3504.37
-3389.44
-3128.11
-2770.91
-2365.52
-1956.54
-1580.26
-1262.34
-1016.27
-843.661
-734.932
-678.079
-658.284
-672.781
-718.015
-786.202
-870.17
-962.417
-1055.39
-1140.95
-1210.35
-1254.74
-1267
-1239.02
-1168.34
-1054.24
-899.564
-710.458
-495.951
-266.961
-35.6029
178.904
408.536
634.013
865.967
1121.87
1422.24
1785.12
2219.94
2723.08
3277.04
3852.25
4411.31
4910.9
5306.11
5550.29
5608.37
5434.4
5004.37
4327.54
3401.97
2247.55
906.395
-572.494
-2146.6
-3704.66
-5196.98
-6560.99
-7739.44
-8679.29
-9352.58
-9737.71
-9810.77
-9607.93
-9140.5
-8420.72
-7467.93
-6305.38
-4964.6
-3487
-1913.43
-299.72
1326.57
2906.45
4377.45
5702.44
6846.9
7788.43
8511.36
9005.53
9270.07
9306.82
9142.55
8783.71
8246.32
7557.32
6742.26
5829.24
4847.21
3823.08
2779.02
1735.89
718.505
-327.676
-1308.56
-2271.76
-3198.84
-4080.33
-4898.12
-5629.45
-6243.13
-6707.27
-6996.63
-7088.04
-6977.2
-6681.54
-6232.35
-5681.88
-5067.98
-4470.54
-3895.06
-3401.75
-2994.62
-2679.15
-2433.96
-2228.88
-2021.51
-1769.37
-1435.6
-996.418
-450.971
184.236
907.159
1657.85
2402.04
3096.44
3705.43
4199.64
4558.2
4770.9
4838.47
4770.82
4583.31
4300.58
3950.96
3560.48
3155.45
2758.65
2386.2
2047.01
1745.12
1479.5
1245.52
1036.93
847.555
672.484
508.531
354.11
208.819
72.989
-52.0635
-165.133
-265.462
-352.458
-425.924
-486.035
-533.305
-568.516
-592.643
-606.717
-611.99
-609.605
-600.714
-586.412
-567.72
-545.572
-520.809
-494.181
-466.345
-437.866
-409.226
-380.821
-352.978
-325.956
-299.957
-275.131
-251.587
-229.394
-208.589
-189.182
-171.161
-154.498
-139.151
-125.065
-112.181
-100.434
-89.7554
-80.0748
-71.3227
-63.4301
-56.3302
-49.9582
-44.2526
-39.1535
-34.6064
-2683.14
-2831.76
-3077.4
-3436.71
-3894.8
-4414.11
-4945.04
-5432.26
-5820.73
-6060.78
-6132.13
-6026.82
-5764.73
-5390.99
-4968
-4565.92
-4247.54
-4052.35
-3984.34
-4004.55
-4038.83
-4037.91
-3979.03
-3813.88
-3531.25
-3081.99
-2444.88
-1566.61
-319.534
645.227
1570.9
2424.15
3175.84
3809.51
4321.91
4721.96
5024.22
5237.19
5397.07
5466.22
5437.7
5294.14
5017.72
4595.83
4024.49
3310.06
2471.86
1543.51
570.348
-445.855
-1390.11
-2222.59
-2897.19
-3376.03
-3635.65
-3681.76
-3546.55
-3260.09
-2872.6
-2435.45
-1996.5
-1594
-1254.82
-992.783
-809.343
-693.026
-632.743
-611.358
-629.334
-680.462
-756.698
-849.558
-951.381
-1054.65
-1151.04
-1231.32
-1285.95
-1306.79
-1285.4
-1218.09
-1103.91
-945.961
-751.14
-529.707
-294.141
-58.7626
154.313
381.369
600.826
821.316
1062.61
1348.51
1701.47
2134.82
2647.65
3223.91
3833.33
4436.9
4987.79
5436.91
5732.62
5832.54
5694.43
5272.1
4596.54
3654.21
2465.01
1073.45
-458.383
-2096.49
-3726.04
-5290.33
-6721.9
-7959.31
-8943.1
-9648.98
-10053.4
-10122.2
-9924.3
-9452.07
-8721.42
-7751.29
-6564.92
-5192.45
-3676.78
-2059.98
-398.954
1277.32
2909.28
4430.07
5800.86
6985.24
7959.65
8707.21
9217.33
9488.34
9526.2
9350.94
8975.87
8415.88
7700.17
6856.04
5913.55
4903.36
3854.09
2788.92
1730.47
701.329
-358.124
-1348.56
-2321.36
-3261.64
-4161.38
-5001.75
-5758.92
-6398.57
-6884.35
-7187.09
-7280.29
-7155.55
-6832.86
-6345.76
-5750.95
-5092.11
-4454.59
-3848.43
-3337.57
-2928.07
-2624.97
-2404.55
-2232.27
-2058.97
-1837.09
-1524.59
-1092.17
-539.43
115.753
868.569
1654.27
2435.77
3165.05
3803.75
4319.87
4690.92
4906.57
4968.55
4886.1
4678.06
4371.18
3996.02
3581.11
3154.9
2741.7
2358.24
2013.33
1710.37
1447.04
1217.25
1013.38
828.292
656.482
494.618
341.207
196.066
59.7371
-65.9463
-179.583
-280.287
-367.376
-440.62
-500.21
-546.702
-580.932
-603.935
-616.801
-620.832
-617.21
-607.126
-591.696
-571.96
-548.858
-523.239
-495.853
-467.355
-438.309
-409.189
-380.388
-352.223
-324.946
-298.751
-273.783
-250.141
-227.889
-207.056
-187.649
-169.649
-153.025
-137.728
-123.704
-110.889
-99.2143
-88.6108
-79.0066
-70.3303
-62.512
-55.4838
-49.1802
-43.5391
-38.4998
-34.008
-2629.58
-2740.91
-2963
-3315.48
-3786.24
-4338.51
-4919.71
-5467.57
-5917.04
-6207.79
-6312.12
-6216.53
-5940.52
-5533.76
-5066.09
-4616.47
-4256.22
-4032.31
-3956.62
-3998.68
-4076.72
-4147.63
-4115.79
-3989.13
-3734.96
-3299.13
-2661.6
-1805.08
-517.502
498.849
1479.26
2383.42
3178.7
3846.91
4385.17
4804.57
5122.37
5356.81
5530.29
5619.8
5613.68
5491.95
5233.69
4822.86
4252.19
3525.27
2659.96
1691.35
667.435
-419.208
-1431.46
-2327.29
-3055.68
-3573.69
-3845.96
-3889.72
-3732.19
-3414.61
-2989.86
-2513.78
-2038.27
-1603.98
-1239.45
-958.915
-763.845
-639.424
-576.791
-554.674
-579.206
-637.714
-723.573
-826.591
-939.175
-1053.96
-1162.49
-1255.02
-1321.25
-1351.67
-1338.11
-1274.7
-1160.44
-998.576
-796.837
-566.874
-323
-82.2656
131.815
355.676
568.448
776.257
1000.58
1269.56
1609.96
2039.98
2562.27
3162.53
3809.65
4462.99
5071.81
5582.33
5937.33
6085.04
5984.89
5578.01
4899.36
3939.09
2711.28
1261.96
-336.164
-2046.73
-3758.48
-5405.45
-6914.48
-8219.28
-9251.07
-9992.29
-10410.9
-10481.7
-10283.8
-9804.35
-9060.48
-8069.94
-6856.56
-5447.78
-3889
-2222.71
-507.569
1225.8
2916.84
4494.18
5916.81
7146.24
8157.57
8932.49
9459.78
9737.14
9777.38
9587.8
9192.67
8606.09
7859.27
6981.5
6005.1
4962.56
3884.6
2795.52
1719.94
676.064
-392.414
-1394.09
-2377.3
-3331.84
-4252.11
-5118.4
-5905.76
-6576.23
-7088.01
-7407.03
-7503.37
-7362.38
-7008.16
-6476.46
-5829.51
-5117.86
-4432.99
-3790.83
-3259.33
-2847.09
-2558.73
-2368.49
-2234.98
-2102.99
-1917.03
-1629.32
-1206
-644.425
34.3849
821.703
1648.8
2473.94
3243.88
3917.1
4458.58
4843.82
5062.65
5118.46
5018.29
4786.12
4451.09
4046.2
3602.93
3152.21
2720.23
2324.41
1973.41
1669.8
1409.64
1185.11
986.999
806.988
638.952
479.433
327.067
181.985
44.9094
-81.5711
-195.914
-297.083
-384.294
-457.287
-516.274
-561.866
-594.967
-616.669
-628.175
-630.779
-625.751
-614.313
-597.607
-576.689
-552.513
-525.929
-497.69
-468.45
-438.767
-409.111
-379.866
-351.342
-323.782
-297.371
-272.245
-248.497
-226.181
-205.32
-185.914
-167.941
-151.36
-136.123
-122.169
-109.432
-97.8405
-87.3227
-77.805
-69.2146
-61.4803
-54.5332
-48.307
-42.7389
-37.7677
-33.3392
-2576.15
-2642.8
-2835.59
-3175.35
-3655.44
-4241.96
-4879.81
-5499.04
-6022.59
-6376.99
-6523.54
-6441.67
-6150.16
-5703.9
-5181.86
-4673.68
-4260.52
-3997.74
-3905.92
-3969.15
-4106.29
-4214.69
-4247.49
-4180.61
-3961.5
-3542.8
-2904.3
-2039.7
-758.242
336.711
1382.59
2346.71
3193.03
3901.23
4468.7
4908.68
5242.75
5497.06
5679.77
5787.24
5802.73
5703.29
5464.74
5067.06
4498.9
3760.29
2866.53
1853.28
772.823
-391.313
-1481.72
-2451.26
-3243.05
-3805.95
-4096.33
-4131.9
-3949.61
-3594.32
-3124.54
-2601.5
-2082.12
-1609.86
-1215.47
-913.624
-706.204
-572.943
-509.278
-499.492
-521.337
-588.69
-686.51
-801.085
-925.677
-1053.23
-1175.21
-1281.43
-1360.68
-1401.99
-1397.42
-1338.74
-1224.49
-1058.08
-848.122
-607.839
-353.645
-105.899
111.904
332.725
537.352
731.369
936.472
1185.32
1509.88
1934.01
2464.96
3090.63
3778.8
4487.41
5161.19
5741.17
6163.53
6368.42
6306.18
5925.74
5237.67
4258.33
2987.75
1474.26
-203.174
-1996.06
-3801.81
-5543.27
-7140.66
-8522.46
-9605.87
-10384.3
-10811.8
-10891.2
-10687.6
-10198.7
-9439.36
-8425.19
-7182.02
-5731.94
-4125.06
-2403.32
-626.979
1170.93
2928.36
4569.37
6050.21
7330.13
8382.73
9187.92
9733.49
10015.6
10062.7
9854.01
9434.66
8817.25
8034.64
7118.44
6103.44
5024.15
3913.77
2798.01
1703.73
643.536
-432.367
-1445.19
-2439.15
-3408.72
-4351.83
-5247.7
-6070.11
-6776.96
-7319.82
-7658.69
-7759.54
-7600.16
-7209.6
-6625.84
-5918.06
-5144.77
-4404.37
-3720.24
-3164.78
-2749.31
-2478.67
-2324.34
-2236.39
-2154.32
-2010.95
-1751.95
-1340.15
-768.394
-61.3913
765.041
1640.8
2516.5
3333.39
4046.34
4616.83
5017.97
5240.1
5288.62
5167.91
4907.57
4539.97
4100.81
3625.03
3146.46
2693.32
2283.82
1926.48
1622.83
1366.98
1149.02
957.854
783.814
620.1
463.165
311.83
166.69
28.5089
-98.9483
-214.159
-315.901
-403.267
-475.974
-534.269
-578.833
-610.648
-630.866
-640.836
-641.83
-635.22
-622.263
-604.129
-581.893
-556.52
-528.864
-499.677
-469.613
-439.226
-408.977
-379.244
-350.325
-322.454
-295.807
-270.511
-246.648
-224.264
-203.376
-183.975
-166.032
-149.504
-134.334
-120.46
-107.81
-96.3125
-85.8908
-76.4701
-67.9758
-60.3353
-53.4788
-47.339
-41.8527
-36.9579
-32.6006
-2495.95
-2535.78
-2695.3
-3013.06
-3496.5
-4117.08
-4818.01
-5521.18
-6134.89
-6569.06
-6771.53
-6709.43
-6401.5
-5908.42
-5320.72
-4740.91
-4261.47
-3947.25
-3827.57
-3905.06
-4069.42
-4245.65
-4387.67
-4386.44
-4211.96
-3817.55
-3179.09
-2297.06
-1028.88
156.308
1278.26
2312.76
3219.08
3974.05
4575.06
5036.76
5387.71
5651.75
5844.61
5968.01
6003.79
5926.92
5710.07
5328.42
4765.65
4017.28
3094.77
2032.71
889.715
-359.209
-1539.47
-2594.63
-3460.84
-4075.51
-4391.94
-4415.05
-4203.07
-3802.4
-3278.78
-2699.63
-2128.25
-1611.05
-1181.83
-855.561
-635.653
-493.322
-425.917
-422.207
-455.72
-532.186
-645.093
-772.904
-910.823
-1052.39
-1189.14
-1310.48
-1404.35
-1458.18
-1463.74
-1410.85
-1296.84
-1125.27
-905.685
-653.068
-386.196
-129.367
95.1193
313.586
508.598
687.442
870.65
1095.52
1400.32
1815.4
2353.52
3005.64
3738.03
4507.65
5253.77
5911.89
6410.36
6681.11
6664.07
6315.97
5611.48
4613.9
3296.77
1710.77
-55.7651
-1943.11
-3855.91
-5705
-7402.84
-8872.83
-10010.6
-10827.3
-11263.6
-11346.6
-11136.9
-10636.6
-9859.71
-8818.37
-7543.37
-6046.45
-4386.44
-2603.65
-758.776
1111.54
2942.92
4655.1
6200.86
7537.09
8635.69
9474.38
10039.4
10323.3
10383.6
10150.3
9702.47
9049.83
8226.51
7266.84
6208.3
5087.5
3940.79
2795.66
1681.12
603.554
-478.836
-1501.79
-2506.34
-3491.33
-4459.55
-5388.94
-6251.8
-7001.51
-7581.47
-7944.66
-8051.71
-7871.93
-7439.91
-6795.61
-6017.28
-5172.51
-4367.36
-3634.61
-3052.13
-2632.15
-2382.97
-2269.84
-2236.49
-2213.01
-2120.41
-1896.02
-1497.02
-913.816
-171.63
695.007
1629.62
2563.55
3434.33
4192.73
4796.22
5215.04
5440.3
5481.51
5336.46
5043.47
4638.45
4160
3647.06
3136.76
2659.82
2235.36
1871.62
1568.86
1318.74
1108.93
926.079
759
600.185
446.037
295.653
150.34
10.5014
-118.088
-234.363
-336.8
-424.358
-496.741
-554.247
-597.642
-628.001
-646.537
-654.798
-653.981
-645.609
-630.966
-611.249
-587.556
-560.862
-532.025
-501.796
-470.828
-439.669
-408.773
-378.507
-349.159
-320.952
-294.052
-268.572
-244.588
-222.134
-201.219
-181.827
-163.921
-147.452
-132.36
-118.575
-106.024
-94.6299
-84.3152
-75.002
-66.6142
-59.0777
-52.3213
-46.2772
-40.8812
-36.0712
-31.7928
-2492.83
-2445.14
-2545.5
-2825.01
-3302.11
-3954.32
-4724.43
-5526.29
-6250.05
-6784.15
-7062.84
-7028.92
-6704.64
-6156.32
-5489.58
-4822.59
-4260.49
-3878.14
-3716.37
-3803.96
-4009.77
-4265.86
-4499.04
-4602.88
-4493.89
-4130.51
-3493.72
-2588.86
-1330.52
-45.8708
1163.18
2280.25
3257.3
4067.63
4707.79
5195.82
5554.57
5823.3
6025.24
6161.53
6215.34
6160.81
5968.16
5606.45
5053.08
4298.27
3348.13
2233.91
1021.91
-319.214
-1603.11
-2757.59
-3712.23
-4387.52
-4733.49
-4744.75
-4497.72
-4042.6
-3455.09
-2809.28
-2176.76
-1606.65
-1137.2
-783.026
-549.106
-393.519
-331.006
-336.054
-384.104
-468.758
-599.155
-742.06
-894.643
-1051.41
-1204.16
-1342.1
-1452.3
-1520.83
-1537.66
-1491.77
-1378.37
-1201.08
-970.357
-703.143
-420.8
-152.267
82.0412
299.231
483.833
645.16
803.648
1000.53
1280.7
1682.6
2225.48
2904.69
3684.21
4520.85
5347.05
6092.7
6676.84
7022.94
7060.62
6742.63
6034.94
5007.94
3640.85
1972.84
108.067
-1886.83
-3921.13
-5892.5
-7703.99
-9275.54
-10469
-11323.1
-11766.8
-11849.6
-11633.2
-11119.4
-10323.4
-9250.56
-7943.1
-6392.8
-4674.79
-2825.57
-904.522
1046.54
2959.67
4750.93
6368.74
7767.51
8917.2
9792.86
10379
10673.8
10729.9
10476.6
9996.34
9303.77
8434.37
7425.93
6318.64
5151.33
3964.29
2787.28
1650.83
555.35
-532.427
-1563.9
-2578.31
-3578.68
-4574.35
-5541.74
-6451.08
-7251.34
-7875.33
-8268.24
-8384.54
-8181.39
-7702.12
-6987.68
-6128.01
-5200.46
-4319.93
-3530.7
-2915.91
-2492.45
-2268.76
-2203.44
-2234.73
-2280.72
-2248.25
-2064.67
-1680.58
-1084.22
-303.214
614.069
1614.75
2615.22
3547.49
4357.56
4998.36
5436.72
5664.53
5697.79
5524.11
5193.6
4745.6
4222.44
3667.5
3121.67
2618.45
2177.82
1807.87
1507.16
1264.71
1064.76
891.826
732.809
579.509
428.305
278.696
132.691
-8.74811
-138.984
-256.579
-359.857
-447.644
-519.657
-576.264
-618.337
-647.024
-663.717
-670.073
-667.223
-656.906
-640.405
-618.947
-593.657
-565.519
-535.392
-504.028
-472.076
-440.079
-408.483
-377.641
-347.832
-319.265
-292.093
-266.421
-242.309
-219.784
-198.845
-179.466
-161.604
-145.203
-130.198
-116.513
-104.071
-92.7923
-82.5956
-73.401
-65.1302
-57.7078
-51.0614
-45.1221
-39.8253
-35.1083
-30.9167
-2499.61
-2361.46
-2385.78
-2606.35
-3063.1
-3741.38
-4585.75
-5503.87
-6362.4
-7027.53
-7400.91
-7411.8
-7073.07
-6459.4
-5697.74
-4925
-4260.87
-3788.57
-3565.53
-3664.56
-3906.08
-4254.77
-4604.09
-4827.12
-4813.7
-4497.21
-3859.46
-2927.14
-1667.75
-275.813
1032.43
2246.91
3307.92
4184.63
4870.89
5392.8
5746.46
6016.93
6223.05
6367.06
6435.22
6401.93
6236.23
5899.92
5361.07
4604.68
3630.1
2461.88
1173.88
-266.738
-1670.84
-2940.21
-4000.5
-4745.28
-5123.71
-5128.3
-4840.41
-4319.82
-3656.97
-2932.06
-2228.12
-1595.75
-1080.22
-698.874
-434.297
-277.233
-222.284
-238.123
-304.367
-399.074
-549.027
-708.733
-877.225
-1050.23
-1220.12
-1376.05
-1504.4
-1589.92
-1619.28
-1582.28
-1470.13
-1286.73
-1043.31
-758.998
-457.864
-174.306
73.209
290.822
464.942
606.064
736.837
901.121
1150.89
1534.02
2077.98
2784.22
3613.15
4522.96
5437.05
6280.29
6960.47
7392.62
7499.81
7204.27
6515.86
5443.19
4024.17
2265.82
291.232
-1823.48
-3995.83
-6106.39
-8046.67
-9736.87
-10985.6
-11878.5
-12321.8
-12400.8
-12178.7
-11648.9
-10832.8
-9722.79
-8384.72
-6772.9
-4992.53
-3071.97
-1066.4
973.458
2976.52
4855.18
6552.65
8020.84
9227.38
10143.9
10753.1
11069.1
11102.3
10833.8
10318
9580.86
8659.78
7597.13
6435.48
5216.03
3984.14
2772.49
1612.19
498.265
-593.52
-1631.17
-2654.03
-3669.02
-4694.2
-5704.41
-6666.72
-7526.55
-8202.72
-8632.78
-8761.21
-8532.38
-8000.34
-7204.61
-6251.58
-5228.62
-4260.82
-3407.23
-2753.5
-2326.46
-2132.75
-2123.3
-2230.97
-2358.73
-2396.8
-2260.86