/*--------------------------------*- C++ -*----------------------------------*\
| =========                 |                                                 |
| \\      /  F ield         | OpenFOAM: The Open Source CFD Toolbox           |
|  \\    /   O peration     | Version:  v1912                                 |
|   \\  /    A nd           | Website:  www.openfoam.com                      |
|    \\/     M anipulation  |                                                 |
\*---------------------------------------------------------------------------*/
FoamFile
{
    version     2.0;
    format      ascii;
    class       volScalarField;
    location    "10";
    object      p;
}
// * * * * * * * * * * * * * * * * * * * * * * * * * * * * * * * * * * * * * //

dimensions      [1 -1 -2 0 0 0 0];


internalField   nonuniform List<scalar> 
14268
(
-49.8567
-50.4807
-51.1031
-51.7239
-52.3433
-52.9613
-53.578
-54.1935
-54.8079
-55.4212
-56.0335
-56.6448
-57.2552
-57.8648
-58.4735
-59.0814
-59.6886
-60.2951
-60.9008
-61.506
-62.1105
-62.7144
-63.3177
-63.9205
-64.5227
-65.1245
-65.7257
-66.3265
-66.9268
-67.5267
-68.1262
-68.7253
-69.324
-69.9223
-70.5203
-71.1179
-71.7152
-72.3122
-72.9088
-73.5052
-74.1013
-74.6971
-75.2926
-75.8879
-76.4829
-77.0777
-77.6722
-78.2666
-78.8607
-79.4546
-80.0483
-80.6418
-81.2351
-81.8283
-82.4212
-83.014
-83.6067
-84.1992
-84.7915
-85.3837
-85.9758
-86.5677
-87.1595
-87.7511
-88.3427
-88.9341
-89.5254
-90.1166
-90.7078
-91.2988
-91.8897
-92.4805
-93.0712
-93.6619
-94.2524
-94.8429
-95.4333
-96.0237
-96.6139
-97.2041
-97.7942
-98.3843
-98.9743
-99.5643
-100.154
-100.744
-101.334
-101.924
-102.513
-103.103
-103.692
-104.282
-104.872
-105.461
-106.05
-106.64
-107.229
-107.819
-108.408
-108.997
-109.586
-110.176
-110.765
-111.354
-111.943
-112.532
-113.121
-113.71
-114.299
-114.888
-115.477
-116.066
-116.655
-117.244
-117.833
-118.422
-119.011
-119.6
-120.189
-120.778
-121.367
-121.955
-122.544
-123.133
-123.722
-124.311
-124.899
-125.488
-126.077
-126.666
-127.255
-127.843
-128.432
-129.021
-129.61
-130.198
-130.787
-131.376
-131.964
-132.553
-133.142
-133.73
-134.319
-134.908
-135.496
-136.085
-136.674
-137.262
-137.851
-138.44
-49.9787
-50.6027
-51.2251
-51.8459
-52.4652
-53.0832
-53.7
-54.3155
-54.9299
-55.5432
-56.1554
-56.7668
-57.3772
-57.9867
-58.5954
-59.2034
-59.8106
-60.417
-61.0228
-61.6279
-62.2324
-62.8363
-63.4397
-64.0424
-64.6447
-65.2464
-65.8477
-66.4485
-67.0488
-67.6487
-68.2482
-68.8473
-69.4459
-70.0443
-70.6422
-71.2399
-71.8371
-72.4341
-73.0308
-73.6271
-74.2232
-74.819
-75.4145
-76.0098
-76.6048
-77.1996
-77.7942
-78.3885
-78.9826
-79.5765
-80.1702
-80.7637
-81.357
-81.9502
-82.5432
-83.136
-83.7286
-84.3211
-84.9134
-85.5056
-86.0977
-86.6896
-87.2814
-87.8731
-88.4646
-89.056
-89.6474
-90.2386
-90.8297
-91.4207
-92.0116
-92.6024
-93.1932
-93.7838
-94.3744
-94.9648
-95.5553
-96.1456
-96.7358
-97.326
-97.9162
-98.5062
-99.0962
-99.6862
-100.276
-100.866
-101.456
-102.045
-102.635
-103.225
-103.814
-104.404
-104.993
-105.583
-106.172
-106.762
-107.351
-107.94
-108.53
-109.119
-109.708
-110.297
-110.887
-111.476
-112.065
-112.654
-113.243
-113.832
-114.421
-115.01
-115.599
-116.188
-116.777
-117.366
-117.955
-118.544
-119.133
-119.722
-120.311
-120.9
-121.489
-122.077
-122.666
-123.255
-123.844
-124.433
-125.021
-125.61
-126.199
-126.788
-127.377
-127.965
-128.554
-129.143
-129.731
-130.32
-130.909
-131.498
-132.086
-132.675
-133.264
-133.852
-134.441
-135.03
-135.618
-136.207
-136.796
-137.384
-137.973
-138.562
-50.1007
-50.7247
-51.3471
-51.9679
-52.5872
-53.2052
-53.8219
-54.4375
-55.0518
-55.6651
-56.2774
-56.8887
-57.4992
-58.1087
-58.7174
-59.3253
-59.9325
-60.539
-61.1448
-61.7499
-62.3544
-62.9583
-63.5616
-64.1644
-64.7666
-65.3684
-65.9696
-66.5704
-67.1707
-67.7706
-68.3701
-68.9692
-69.5679
-70.1662
-70.7642
-71.3618
-71.9591
-72.5561
-73.1527
-73.7491
-74.3451
-74.9409
-75.5365
-76.1317
-76.7268
-77.3215
-77.9161
-78.5104
-79.1045
-79.6984
-80.2921
-80.8857
-81.479
-82.0721
-82.6651
-83.2579
-83.8505
-84.443
-85.0354
-85.6276
-86.2196
-86.8115
-87.4033
-87.995
-88.5865
-89.178
-89.7693
-90.3605
-90.9516
-91.5426
-92.1335
-92.7244
-93.3151
-93.9057
-94.4963
-95.0868
-95.6772
-96.2675
-96.8578
-97.448
-98.0381
-98.6282
-99.2182
-99.8081
-100.398
-100.988
-101.578
-102.167
-102.757
-103.347
-103.936
-104.526
-105.115
-105.705
-106.294
-106.884
-107.473
-108.062
-108.652
-109.241
-109.83
-110.419
-111.009
-111.598
-112.187
-112.776
-113.365
-113.954
-114.543
-115.132
-115.721
-116.31
-116.899
-117.488
-118.077
-118.666
-119.255
-119.844
-120.433
-121.022
-121.61
-122.199
-122.788
-123.377
-123.966
-124.554
-125.143
-125.732
-126.321
-126.91
-127.498
-128.087
-128.676
-129.265
-129.853
-130.442
-131.031
-131.619
-132.208
-132.797
-133.386
-133.974
-134.563
-135.152
-135.74
-136.329
-136.918
-137.506
-138.095
-138.684
-50.2227
-50.8467
-51.4691
-52.0899
-52.7092
-53.3272
-53.9439
-54.5594
-55.1738
-55.7871
-56.3994
-57.0107
-57.6211
-58.2307
-58.8394
-59.4473
-60.0545
-60.6609
-61.2667
-61.8718
-62.4763
-63.0802
-63.6836
-64.2863
-64.8886
-65.4903
-66.0916
-66.6924
-67.2927
-67.8926
-68.4921
-69.0911
-69.6898
-70.2882
-70.8861
-71.4837
-72.081
-72.678
-73.2747
-73.871
-74.4671
-75.0629
-75.6584
-76.2537
-76.8487
-77.4435
-78.038
-78.6324
-79.2265
-79.8204
-80.4141
-81.0076
-81.6009
-82.1941
-82.787
-83.3798
-83.9725
-84.565
-85.1573
-85.7495
-86.3416
-86.9335
-87.5253
-88.1169
-88.7085
-89.2999
-89.8912
-90.4824
-91.0735
-91.6646
-92.2555
-92.8463
-93.437
-94.0277
-94.6182
-95.2087
-95.7991
-96.3894
-96.9797
-97.5699
-98.16
-98.7501
-99.3401
-99.93
-100.52
-101.11
-101.7
-102.289
-102.879
-103.469
-104.058
-104.648
-105.237
-105.827
-106.416
-107.006
-107.595
-108.184
-108.774
-109.363
-109.952
-110.541
-111.131
-111.72
-112.309
-112.898
-113.487
-114.076
-114.665
-115.254
-115.843
-116.432
-117.021
-117.61
-118.199
-118.788
-119.377
-119.966
-120.555
-121.143
-121.732
-122.321
-122.91
-123.499
-124.088
-124.676
-125.265
-125.854
-126.443
-127.032
-127.62
-128.209
-128.798
-129.386
-129.975
-130.564
-131.153
-131.741
-132.33
-132.919
-133.508
-134.096
-134.685
-135.274
-135.862
-136.451
-137.04
-137.628
-138.217
-138.806
-50.3447
-50.9687
-51.5911
-52.2119
-52.8312
-53.4492
-54.0659
-54.6814
-55.2958
-55.9091
-56.5214
-57.1327
-57.7431
-58.3526
-58.9613
-59.5693
-60.1764
-60.7829
-61.3887
-61.9938
-62.5983
-63.2022
-63.8055
-64.4083
-65.0105
-65.6123
-66.2135
-66.8143
-67.4146
-68.0145
-68.614
-69.2131
-69.8118
-70.4101
-71.0081
-71.6057
-72.203
-72.7999
-73.3966
-73.993
-74.589
-75.1848
-75.7803
-76.3756
-76.9706
-77.5654
-78.16
-78.7543
-79.3484
-79.9423
-80.536
-81.1295
-81.7229
-82.316
-82.909
-83.5018
-84.0944
-84.6869
-85.2792
-85.8714
-86.4635
-87.0554
-87.6472
-88.2389
-88.8304
-89.4218
-90.0132
-90.6044
-91.1955
-91.7865
-92.3774
-92.9682
-93.5589
-94.1496
-94.7401
-95.3306
-95.921
-96.5114
-97.1016
-97.6918
-98.282
-98.872
-99.462
-100.052
-100.642
-101.232
-101.821
-102.411
-103.001
-103.591
-104.18
-104.77
-105.359
-105.949
-106.538
-107.128
-107.717
-108.306
-108.896
-109.485
-110.074
-110.663
-111.252
-111.842
-112.431
-113.02
-113.609
-114.198
-114.787
-115.376
-115.965
-116.554
-117.143
-117.732
-118.321
-118.91
-119.499
-120.088
-120.677
-121.265
-121.854
-122.443
-123.032
-123.621
-124.21
-124.798
-125.387
-125.976
-126.565
-127.153
-127.742
-128.331
-128.92
-129.508
-130.097
-130.686
-131.275
-131.863
-132.452
-133.041
-133.629
-134.218
-134.807
-135.395
-135.984
-136.573
-137.162
-137.75
-138.339
-138.927
-50.4667
-51.0907
-51.7131
-52.3339
-52.9532
-53.5712
-54.1879
-54.8034
-55.4178
-56.0311
-56.6433
-57.2547
-57.8651
-58.4746
-59.0833
-59.6912
-60.2984
-60.9049
-61.5106
-62.1158
-62.7203
-63.3242
-63.9275
-64.5302
-65.1325
-65.7342
-66.3355
-66.9363
-67.5366
-68.1365
-68.736
-69.335
-69.9337
-70.532
-71.13
-71.7276
-72.3249
-72.9219
-73.5185
-74.1149
-74.711
-75.3068
-75.9023
-76.4976
-77.0926
-77.6874
-78.2819
-78.8762
-79.4703
-80.0642
-80.658
-81.2515
-81.8448
-82.4379
-83.0309
-83.6237
-84.2163
-84.8088
-85.4012
-85.9934
-86.5854
-87.1773
-87.7691
-88.3608
-88.9523
-89.5438
-90.1351
-90.7263
-91.3174
-91.9084
-92.4993
-93.0901
-93.6809
-94.2715
-94.8621
-95.4526
-96.043
-96.6333
-97.2236
-97.8138
-98.4039
-98.9939
-99.5839
-100.174
-100.764
-101.354
-101.943
-102.533
-103.123
-103.712
-104.302
-104.892
-105.481
-106.071
-106.66
-107.249
-107.839
-108.428
-109.017
-109.607
-110.196
-110.785
-111.374
-111.964
-112.553
-113.142
-113.731
-114.32
-114.909
-115.498
-116.087
-116.676
-117.265
-117.854
-118.443
-119.032
-119.621
-120.21
-120.798
-121.387
-121.976
-122.565
-123.154
-123.743
-124.332
-124.92
-125.509
-126.098
-126.687
-127.275
-127.864
-128.453
-129.042
-129.63
-130.219
-130.808
-131.397
-131.985
-132.574
-133.163
-133.751
-134.34
-134.929
-135.517
-136.106
-136.695
-137.283
-137.872
-138.461
-139.049
-50.5888
-51.2127
-51.8351
-52.4559
-53.0752
-53.6932
-54.3099
-54.9254
-55.5397
-56.153
-56.7653
-57.3766
-57.987
-58.5966
-59.2053
-59.8132
-60.4204
-61.0268
-61.6326
-62.2377
-62.8422
-63.4461
-64.0494
-64.6522
-65.2544
-65.8562
-66.4574
-67.0582
-67.6585
-68.2584
-68.8579
-69.457
-70.0557
-70.654
-71.252
-71.8496
-72.4469
-73.0438
-73.6405
-74.2368
-74.8329
-75.4287
-76.0242
-76.6195
-77.2145
-77.8093
-78.4038
-78.9982
-79.5923
-80.1862
-80.7799
-81.3734
-81.9667
-82.5599
-83.1528
-83.7456
-84.3383
-84.9308
-85.5231
-86.1153
-86.7074
-87.2993
-87.8911
-88.4827
-89.0743
-89.6657
-90.257
-90.8482
-91.4393
-92.0303
-92.6213
-93.2121
-93.8028
-94.3934
-94.984
-95.5745
-96.1649
-96.7552
-97.3455
-97.9357
-98.5258
-99.1159
-99.7059
-100.296
-100.886
-101.476
-102.065
-102.655
-103.245
-103.834
-104.424
-105.014
-105.603
-106.193
-106.782
-107.371
-107.961
-108.55
-109.139
-109.729
-110.318
-110.907
-111.496
-112.085
-112.675
-113.264
-113.853
-114.442
-115.031
-115.62
-116.209
-116.798
-117.387
-117.976
-118.565
-119.154
-119.743
-120.331
-120.92
-121.509
-122.098
-122.687
-123.276
-123.865
-124.453
-125.042
-125.631
-126.22
-126.809
-127.397
-127.986
-128.575
-129.164
-129.752
-130.341
-130.93
-131.519
-132.107
-132.696
-133.285
-133.873
-134.462
-135.051
-135.639
-136.228
-136.817
-137.405
-137.994
-138.583
-139.171
-50.7108
-51.3347
-51.9571
-52.5778
-53.1972
-53.8152
-54.4319
-55.0474
-55.6617
-56.275
-56.8873
-57.4986
-58.109
-58.7185
-59.3272
-59.9352
-60.5423
-61.1488
-61.7546
-62.3597
-62.9642
-63.5681
-64.1714
-64.7742
-65.3764
-65.9781
-66.5794
-67.1802
-67.7805
-68.3804
-68.9799
-69.5789
-70.1776
-70.7759
-71.3739
-71.9715
-72.5688
-73.1658
-73.7624
-74.3588
-74.9548
-75.5506
-76.1462
-76.7414
-77.3365
-77.9312
-78.5258
-79.1201
-79.7142
-80.3081
-80.9018
-81.4953
-82.0887
-82.6818
-83.2748
-83.8676
-84.4602
-85.0527
-85.645
-86.2372
-86.8293
-87.4212
-88.013
-88.6047
-89.1962
-89.7876
-90.3789
-90.9702
-91.5613
-92.1523
-92.7432
-93.334
-93.9247
-94.5154
-95.1059
-95.6964
-96.2868
-96.8772
-97.4674
-98.0576
-98.6477
-99.2378
-99.8278
-100.418
-101.008
-101.597
-102.187
-102.777
-103.367
-103.956
-104.546
-105.135
-105.725
-106.314
-106.904
-107.493
-108.083
-108.672
-109.261
-109.851
-110.44
-111.029
-111.618
-112.207
-112.797
-113.386
-113.975
-114.564
-115.153
-115.742
-116.331
-116.92
-117.509
-118.098
-118.687
-119.276
-119.865
-120.453
-121.042
-121.631
-122.22
-122.809
-123.398
-123.986
-124.575
-125.164
-125.753
-126.342
-126.931
-127.519
-128.108
-128.697
-129.286
-129.874
-130.463
-131.052
-131.64
-132.229
-132.818
-133.406
-133.995
-134.584
-135.173
-135.761
-136.35
-136.939
-137.527
-138.116
-138.705
-139.293
-50.8328
-51.4567
-52.0791
-52.6998
-53.3192
-53.9371
-54.5538
-55.1693
-55.7837
-56.397
-57.0093
-57.6206
-58.231
-58.8405
-59.4492
-60.0571
-60.6643
-61.2708
-61.8765
-62.4816
-63.0861
-63.69
-64.2933
-64.8961
-65.4983
-66.1001
-66.7013
-67.3021
-67.9024
-68.5023
-69.1018
-69.7009
-70.2996
-70.8979
-71.4958
-72.0935
-72.6907
-73.2877
-73.8844
-74.4807
-75.0768
-75.6726
-76.2681
-76.8634
-77.4584
-78.0532
-78.6477
-79.242
-79.8362
-80.4301
-81.0238
-81.6173
-82.2106
-82.8037
-83.3967
-83.9895
-84.5821
-85.1746
-85.767
-86.3592
-86.9512
-87.5431
-88.1349
-88.7266
-89.3181
-89.9096
-90.5009
-91.0921
-91.6832
-92.2742
-92.8651
-93.4559
-94.0467
-94.6373
-95.2279
-95.8183
-96.4087
-96.9991
-97.5893
-98.1795
-98.7697
-99.3597
-99.9497
-100.54
-101.13
-101.719
-102.309
-102.899
-103.489
-104.078
-104.668
-105.257
-105.847
-106.436
-107.026
-107.615
-108.205
-108.794
-109.383
-109.972
-110.562
-111.151
-111.74
-112.329
-112.918
-113.508
-114.097
-114.686
-115.275
-115.864
-116.453
-117.042
-117.631
-118.22
-118.809
-119.398
-119.986
-120.575
-121.164
-121.753
-122.342
-122.931
-123.52
-124.108
-124.697
-125.286
-125.875
-126.464
-127.052
-127.641
-128.23
-128.819
-129.407
-129.996
-130.585
-131.174
-131.762
-132.351
-132.94
-133.528
-134.117
-134.706
-135.295
-135.883
-136.472
-137.061
-137.649
-138.238
-138.827
-139.415
-50.9548
-51.5787
-52.2011
-52.8218
-53.4412
-54.0591
-54.6758
-55.2913
-55.9057
-56.519
-57.1312
-57.7426
-58.3529
-58.9625
-59.5712
-60.1791
-60.7863
-61.3927
-61.9985
-62.6036
-63.2081
-63.812
-64.4153
-65.0181
-65.6203
-66.222
-66.8233
-67.4241
-68.0244
-68.6243
-69.2237
-69.8228
-70.4215
-71.0198
-71.6178
-72.2154
-72.8127
-73.4096
-74.0063
-74.6027
-75.1987
-75.7945
-76.39
-76.9853
-77.5803
-78.1751
-78.7697
-79.364
-79.9581
-80.552
-81.1457
-81.7392
-82.3325
-82.9257
-83.5186
-84.1114
-84.7041
-85.2966
-85.8889
-86.4811
-87.0731
-87.6651
-88.2569
-88.8485
-89.4401
-90.0315
-90.6228
-91.214
-91.8051
-92.3961
-92.987
-93.5779
-94.1686
-94.7592
-95.3498
-95.9403
-96.5307
-97.121
-97.7113
-98.3015
-98.8916
-99.4817
-100.072
-100.662
-101.251
-101.841
-102.431
-103.021
-103.611
-104.2
-104.79
-105.379
-105.969
-106.558
-107.148
-107.737
-108.327
-108.916
-109.505
-110.094
-110.684
-111.273
-111.862
-112.451
-113.04
-113.629
-114.219
-114.808
-115.397
-115.986
-116.575
-117.164
-117.753
-118.342
-118.931
-119.519
-120.108
-120.697
-121.286
-121.875
-122.464
-123.053
-123.642
-124.23
-124.819
-125.408
-125.997
-126.586
-127.174
-127.763
-128.352
-128.941
-129.529
-130.118
-130.707
-131.295
-131.884
-132.473
-133.062
-133.65
-134.239
-134.828
-135.416
-136.005
-136.594
-137.182
-137.771
-138.36
-138.948
-139.537
-51.0768
-51.7007
-52.3231
-52.9438
-53.5632
-54.1811
-54.7978
-55.4133
-56.0277
-56.6409
-57.2532
-57.8645
-58.4749
-59.0844
-59.6932
-60.3011
-60.9082
-61.5147
-62.1204
-62.7256
-63.3301
-63.9339
-64.5373
-65.14
-65.7423
-66.344
-66.9452
-67.546
-68.1463
-68.7462
-69.3457
-69.9448
-70.5435
-71.1418
-71.7397
-72.3373
-72.9346
-73.5316
-74.1282
-74.7246
-75.3207
-75.9165
-76.512
-77.1072
-77.7023
-78.297
-78.8916
-79.4859
-80.08
-80.6739
-81.2676
-81.8611
-82.4545
-83.0476
-83.6406
-84.2334
-84.826
-85.4185
-86.0108
-86.603
-87.1951
-87.787
-88.3788
-88.9704
-89.562
-90.1534
-90.7447
-91.3359
-91.9271
-92.5181
-93.109
-93.6998
-94.2905
-94.8812
-95.4717
-96.0622
-96.6526
-97.2429
-97.8332
-98.4234
-99.0135
-99.6036
-100.194
-100.784
-101.373
-101.963
-102.553
-103.143
-103.732
-104.322
-104.912
-105.501
-106.091
-106.68
-107.27
-107.859
-108.448
-109.038
-109.627
-110.216
-110.806
-111.395
-111.984
-112.573
-113.162
-113.751
-114.34
-114.93
-115.519
-116.108
-116.697
-117.286
-117.875
-118.464
-119.052
-119.641
-120.23
-120.819
-121.408
-121.997
-122.586
-123.175
-123.764
-124.352
-124.941
-125.53
-126.119
-126.707
-127.296
-127.885
-128.474
-129.062
-129.651
-130.24
-130.829
-131.417
-132.006
-132.595
-133.184
-133.772
-134.361
-134.95
-135.538
-136.127
-136.716
-137.304
-137.893
-138.482
-139.07
-139.659
-51.1988
-51.8227
-52.4451
-53.0658
-53.6852
-54.3031
-54.9198
-55.5353
-56.1496
-56.7629
-57.3752
-57.9865
-58.5969
-59.2064
-59.8151
-60.423
-61.0302
-61.6366
-62.2424
-62.8475
-63.452
-64.0559
-64.6592
-65.262
-65.8642
-66.4659
-67.0672
-67.668
-68.2683
-68.8682
-69.4676
-70.0667
-70.6654
-71.2637
-71.8617
-72.4593
-73.0566
-73.6535
-74.2502
-74.8465
-75.4426
-76.0384
-76.6339
-77.2292
-77.8242
-78.419
-79.0135
-79.6079
-80.202
-80.7959
-81.3896
-81.9831
-82.5764
-83.1695
-83.7625
-84.3553
-84.9479
-85.5404
-86.1328
-86.725
-87.317
-87.9089
-88.5007
-89.0924
-89.6839
-90.2754
-90.8667
-91.4579
-92.049
-92.64
-93.2309
-93.8217
-94.4124
-95.0031
-95.5936
-96.1841
-96.7745
-97.3649
-97.9551
-98.5453
-99.1354
-99.7255
-100.316
-100.905
-101.495
-102.085
-102.675
-103.265
-103.854
-104.444
-105.034
-105.623
-106.213
-106.802
-107.392
-107.981
-108.57
-109.16
-109.749
-110.338
-110.928
-111.517
-112.106
-112.695
-113.284
-113.873
-114.462
-115.051
-115.641
-116.23
-116.819
-117.408
-117.997
-118.585
-119.174
-119.763
-120.352
-120.941
-121.53
-122.119
-122.708
-123.297
-123.885
-124.474
-125.063
-125.652
-126.241
-126.829
-127.418
-128.007
-128.596
-129.184
-129.773
-130.362
-130.951
-131.539
-132.128
-132.717
-133.306
-133.894
-134.483
-135.072
-135.66
-136.249
-136.838
-137.426
-138.015
-138.604
-139.192
-139.781
-51.3208
-51.9448
-52.5671
-53.1878
-53.8071
-54.4251
-55.0418
-55.6573
-56.2716
-56.8849
-57.4972
-58.1085
-58.7189
-59.3284
-59.9371
-60.545
-61.1522
-61.7586
-62.3644
-62.9695
-63.574
-64.1779
-64.7812
-65.3839
-65.9862
-66.5879
-67.1891
-67.7899
-68.3902
-68.9901
-69.5896
-70.1887
-70.7874
-71.3857
-71.9836
-72.5812
-73.1785
-73.7755
-74.3721
-74.9685
-75.5645
-76.1603
-76.7559
-77.3511
-77.9461
-78.5409
-79.1355
-79.7298
-80.3239
-80.9178
-81.5115
-82.105
-82.6983
-83.2915
-83.8844
-84.4772
-85.0699
-85.6624
-86.2547
-86.8469
-87.4389
-88.0309
-88.6226
-89.2143
-89.8059
-90.3973
-90.9886
-91.5798
-92.1709
-92.7619
-93.3528
-93.9436
-94.5344
-95.125
-95.7156
-96.3061
-96.8965
-97.4868
-98.0771
-98.6672
-99.2574
-99.8474
-100.437
-101.027
-101.617
-102.207
-102.797
-103.387
-103.976
-104.566
-105.156
-105.745
-106.335
-106.924
-107.514
-108.103
-108.692
-109.282
-109.871
-110.46
-111.049
-111.639
-112.228
-112.817
-113.406
-113.995
-114.584
-115.173
-115.762
-116.351
-116.94
-117.529
-118.118
-118.707
-119.296
-119.885
-120.474
-121.063
-121.652
-122.241
-122.83
-123.418
-124.007
-124.596
-125.185
-125.774
-126.363
-126.951
-127.54
-128.129
-128.718
-129.306
-129.895
-130.484
-131.073
-131.661
-132.25
-132.839
-133.427
-134.016
-134.605
-135.193
-135.782
-136.371
-136.96
-137.548
-138.137
-138.726
-139.314
-139.903
-51.4428
-52.0668
-52.6891
-53.3098
-53.9291
-54.5471
-55.1638
-55.7793
-56.3936
-57.0069
-57.6192
-58.2305
-58.8408
-59.4504
-60.0591
-60.667
-61.2741
-61.8806
-62.4863
-63.0914
-63.6959
-64.2998
-64.9031
-65.5059
-66.1081
-66.7098
-67.3111
-67.9119
-68.5122
-69.1121
-69.7115
-70.3106
-70.9093
-71.5076
-72.1056
-72.7032
-73.3005
-73.8974
-74.4941
-75.0904
-75.6865
-76.2823
-76.8778
-77.4731
-78.0681
-78.6629
-79.2574
-79.8517
-80.4458
-81.0397
-81.6334
-82.2269
-82.8203
-83.4134
-84.0064
-84.5992
-85.1918
-85.7843
-86.3766
-86.9688
-87.5609
-88.1528
-88.7446
-89.3362
-89.9278
-90.5192
-91.1105
-91.7017
-92.2928
-92.8838
-93.4748
-94.0656
-94.6563
-95.2469
-95.8375
-96.428
-97.0184
-97.6087
-98.199
-98.7892
-99.3793
-99.9694
-100.559
-101.149
-101.739
-102.329
-102.919
-103.509
-104.098
-104.688
-105.277
-105.867
-106.457
-107.046
-107.635
-108.225
-108.814
-109.404
-109.993
-110.582
-111.171
-111.761
-112.35
-112.939
-113.528
-114.117
-114.706
-115.295
-115.884
-116.473
-117.062
-117.651
-118.24
-118.829
-119.418
-120.007
-120.596
-121.185
-121.774
-122.363
-122.952
-123.54
-124.129
-124.718
-125.307
-125.896
-126.485
-127.073
-127.662
-128.251
-128.84
-129.428
-130.017
-130.606
-131.195
-131.783
-132.372
-132.961
-133.549
-134.138
-134.727
-135.315
-135.904
-136.493
-137.081
-137.67
-138.259
-138.847
-139.436
-140.025
-51.6258
-52.2498
-52.8721
-53.4928
-54.1121
-54.7301
-55.3468
-55.9622
-56.5766
-57.1899
-57.8021
-58.4134
-59.0238
-59.6333
-60.242
-60.8499
-61.4571
-62.0635
-62.6693
-63.2744
-63.8789
-64.4828
-65.0861
-65.6888
-66.2911
-66.8928
-67.494
-68.0948
-68.6951
-69.295
-69.8945
-70.4935
-71.0922
-71.6905
-72.2885
-72.8861
-73.4834
-74.0803
-74.677
-75.2733
-75.8694
-76.4652
-77.0607
-77.656
-78.251
-78.8458
-79.4403
-80.0346
-80.6287
-81.2226
-81.8163
-82.4098
-83.0032
-83.5963
-84.1893
-84.7821
-85.3747
-85.9672
-86.5595
-87.1517
-87.7438
-88.3357
-88.9275
-89.5191
-90.1107
-90.7021
-91.2934
-91.8846
-92.4757
-93.0667
-93.6577
-94.2485
-94.8392
-95.4298
-96.0204
-96.6109
-97.2013
-97.7916
-98.3819
-98.9721
-99.5622
-100.152
-100.742
-101.332
-101.922
-102.512
-103.102
-103.691
-104.281
-104.871
-105.46
-106.05
-106.639
-107.229
-107.818
-108.408
-108.997
-109.586
-110.176
-110.765
-111.354
-111.943
-112.533
-113.122
-113.711
-114.3
-114.889
-115.478
-116.067
-116.656
-117.245
-117.834
-118.423
-119.012
-119.601
-120.19
-120.779
-121.368
-121.957
-122.546
-123.134
-123.723
-124.312
-124.901
-125.49
-126.079
-126.667
-127.256
-127.845
-128.434
-129.022
-129.611
-130.2
-130.789
-131.377
-131.966
-132.555
-133.144
-133.732
-134.321
-134.91
-135.498
-136.087
-136.676
-137.264
-137.853
-138.442
-139.03
-139.619
-140.208
-51.8698
-52.4938
-53.1161
-53.7368
-54.3561
-54.9741
-55.5907
-56.2062
-56.8206
-57.4338
-58.0461
-58.6574
-59.2677
-59.8773
-60.486
-61.0939
-61.701
-62.3075
-62.9132
-63.5183
-64.1228
-64.7267
-65.33
-65.9327
-66.535
-67.1367
-67.7379
-68.3387
-68.939
-69.5389
-70.1384
-70.7374
-71.3361
-71.9344
-72.5324
-73.13
-73.7273
-74.3242
-74.9209
-75.5172
-76.1133
-76.7091
-77.3046
-77.8999
-78.4949
-79.0896
-79.6842
-80.2785
-80.8726
-81.4665
-82.0602
-82.6537
-83.247
-83.8402
-84.4331
-85.0259
-85.6186
-86.2111
-86.8034
-87.3956
-87.9876
-88.5796
-89.1713
-89.763
-90.3545
-90.946
-91.5373
-92.1285
-92.7196
-93.3106
-93.9015
-94.4923
-95.0831
-95.6737
-96.2643
-96.8547
-97.4451
-98.0355
-98.6257
-99.2159
-99.806
-100.396
-100.986
-101.576
-102.166
-102.756
-103.346
-103.935
-104.525
-105.115
-105.704
-106.294
-106.883
-107.473
-108.062
-108.652
-109.241
-109.83
-110.42
-111.009
-111.598
-112.187
-112.777
-113.366
-113.955
-114.544
-115.133
-115.722
-116.311
-116.9
-117.489
-118.078
-118.667
-119.256
-119.845
-120.434
-121.023
-121.612
-122.201
-122.789
-123.378
-123.967
-124.556
-125.145
-125.734
-126.322
-126.911
-127.5
-128.089
-128.677
-129.266
-129.855
-130.444
-131.032
-131.621
-132.21
-132.799
-133.387
-133.976
-134.565
-135.154
-135.742
-136.331
-136.92
-137.508
-138.097
-138.686
-139.274
-139.863
-140.452
-52.1139
-52.7378
-53.3601
-53.9808
-54.6001
-55.2181
-55.8347
-56.4502
-57.0645
-57.6778
-58.29
-58.9013
-59.5117
-60.1212
-60.7299
-61.3378
-61.9449
-62.5514
-63.1571
-63.7622
-64.3667
-64.9706
-65.5739
-66.1766
-66.7789
-67.3806
-67.9818
-68.5826
-69.1829
-69.7828
-70.3823
-70.9813
-71.58
-72.1783
-72.7763
-73.3739
-73.9712
-74.5681
-75.1648
-75.7611
-76.3572
-76.953
-77.5485
-78.1437
-78.7387
-79.3335
-79.9281
-80.5224
-81.1165
-81.7104
-82.3041
-82.8976
-83.4909
-84.084
-84.677
-85.2698
-85.8624
-86.4549
-87.0473
-87.6395
-88.2315
-88.8234
-89.4152
-90.0069
-90.5984
-91.1898
-91.7811
-92.3724
-92.9635
-93.5545
-94.1454
-94.7362
-95.3269
-95.9176
-96.5081
-97.0986
-97.689
-98.2793
-98.8696
-99.4598
-100.05
-100.64
-101.23
-101.82
-102.41
-103
-103.589
-104.179
-104.769
-105.358
-105.948
-106.538
-107.127
-107.717
-108.306
-108.895
-109.485
-110.074
-110.663
-111.253
-111.842
-112.431
-113.02
-113.61
-114.199
-114.788
-115.377
-115.966
-116.555
-117.144
-117.733
-118.322
-118.911
-119.5
-120.089
-120.678
-121.267
-121.856
-122.444
-123.033
-123.622
-124.211
-124.8
-125.389
-125.978
-126.566
-127.155
-127.744
-128.333
-128.921
-129.51
-130.099
-130.688
-131.276
-131.865
-132.454
-133.043
-133.631
-134.22
-134.809
-135.397
-135.986
-136.575
-137.163
-137.752
-138.341
-138.929
-139.518
-140.107
-140.695
-52.3579
-52.9818
-53.6041
-54.2248
-54.8441
-55.4621
-56.0787
-56.6942
-57.3085
-57.9218
-58.534
-59.1453
-59.7557
-60.3652
-60.9738
-61.5817
-62.1889
-62.7953
-63.4011
-64.0062
-64.6106
-65.2145
-65.8178
-66.4206
-67.0228
-67.6245
-68.2257
-68.8265
-69.4268
-70.0267
-70.6262
-71.2252
-71.8239
-72.4222
-73.0202
-73.6178
-74.215
-74.812
-75.4086
-76.005
-76.6011
-77.1968
-77.7924
-78.3876
-78.9826
-79.5774
-80.1719
-80.7663
-81.3604
-81.9543
-82.548
-83.1415
-83.7348
-84.3279
-84.9209
-85.5137
-86.1063
-86.6988
-87.2911
-87.8833
-88.4754
-89.0673
-89.6591
-90.2507
-90.8423
-91.4337
-92.025
-92.6162
-93.2073
-93.7983
-94.3892
-94.98
-95.5708
-96.1614
-96.752
-97.3425
-97.9329
-98.5232
-99.1134
-99.7036
-100.294
-100.884
-101.474
-102.064
-102.654
-103.243
-103.833
-104.423
-105.013
-105.602
-106.192
-106.781
-107.371
-107.96
-108.55
-109.139
-109.729
-110.318
-110.907
-111.497
-112.086
-112.675
-113.264
-113.853
-114.443
-115.032
-115.621
-116.21
-116.799
-117.388
-117.977
-118.566
-119.155
-119.744
-120.333
-120.922
-121.511
-122.099
-122.688
-123.277
-123.866
-124.455
-125.044
-125.632
-126.221
-126.81
-127.399
-127.988
-128.577
-129.165
-129.754
-130.343
-130.932
-131.52
-132.109
-132.698
-133.286
-133.875
-134.464
-135.052
-135.641
-136.23
-136.819
-137.407
-137.996
-138.585
-139.173
-139.762
-140.351
-140.939
-52.6019
-53.2259
-53.8481
-54.4688
-55.0881
-55.706
-56.3227
-56.9382
-57.5525
-58.1657
-58.778
-59.3892
-59.9996
-60.6091
-61.2178
-61.8257
-62.4328
-63.0393
-63.645
-64.2501
-64.8546
-65.4584
-66.0617
-66.6645
-67.2667
-67.8684
-68.4696
-69.0704
-69.6707
-70.2706
-70.8701
-71.4691
-72.0678
-72.6661
-73.2641
-73.8617
-74.4589
-75.0559
-75.6525
-76.2489
-76.8449
-77.4407
-78.0362
-78.6315
-79.2265
-79.8213
-80.4158
-81.0101
-81.6042
-82.1981
-82.7918
-83.3853
-83.9786
-84.5718
-85.1647
-85.7575
-86.3502
-86.9427
-87.535
-88.1272
-88.7192
-89.3111
-89.9029
-90.4946
-91.0861
-91.6776
-92.2689
-92.8601
-93.4512
-94.0422
-94.6331
-95.2239
-95.8146
-96.4053
-96.9958
-97.5863
-98.1767
-98.767
-99.3573
-99.9475
-100.538
-101.128
-101.718
-102.308
-102.898
-103.487
-104.077
-104.667
-105.257
-105.846
-106.436
-107.025
-107.615
-108.204
-108.794
-109.383
-109.973
-110.562
-111.151
-111.74
-112.33
-112.919
-113.508
-114.097
-114.686
-115.275
-115.865
-116.454
-117.043
-117.632
-118.221
-118.81
-119.399
-119.988
-120.577
-121.165
-121.754
-122.343
-122.932
-123.521
-124.11
-124.699
-125.288
-125.876
-126.465
-127.054
-127.643
-128.231
-128.82
-129.409
-129.998
-130.587
-131.175
-131.764
-132.353
-132.941
-133.53
-134.119
-134.708
-135.296
-135.885
-136.474
-137.062
-137.651
-138.24
-138.828
-139.417
-140.006
-140.594
-141.183
-52.846
-53.4699
-54.0921
-54.7129
-55.3321
-55.95
-56.5667
-57.1821
-57.7964
-58.4097
-59.0219
-59.6332
-60.2436
-60.8531
-61.4617
-62.0696
-62.6768
-63.2832
-63.8889
-64.494
-65.0985
-65.7024
-66.3057
-66.9084
-67.5106
-68.1123
-68.7136
-69.3143
-69.9146
-70.5145
-71.114
-71.713
-72.3117
-72.91
-73.5079
-74.1056
-74.7028
-75.2998
-75.8964
-76.4928
-77.0888
-77.6846
-78.2801
-78.8754
-79.4704
-80.0652
-80.6597
-81.254
-81.8481
-82.442
-83.0357
-83.6292
-84.2225
-84.8157
-85.4086
-86.0014
-86.594
-87.1865
-87.7789
-88.371
-88.9631
-89.555
-90.1468
-90.7385
-91.33
-91.9214
-92.5127
-93.1039
-93.695
-94.286
-94.8769
-95.4678
-96.0585
-96.6491
-97.2397
-97.8302
-98.4206
-99.0109
-99.6012
-100.191
-100.781
-101.372
-101.962
-102.551
-103.141
-103.731
-104.321
-104.911
-105.5
-106.09
-106.68
-107.269
-107.859
-108.448
-109.038
-109.627
-110.216
-110.806
-111.395
-111.984
-112.574
-113.163
-113.752
-114.341
-114.93
-115.519
-116.108
-116.697
-117.287
-117.876
-118.465
-119.054
-119.643
-120.231
-120.82
-121.409
-121.998
-122.587
-123.176
-123.765
-124.354
-124.943
-125.531
-126.12
-126.709
-127.298
-127.887
-128.475
-129.064
-129.653
-130.242
-130.83
-131.419
-132.008
-132.597
-133.185
-133.774
-134.363
-134.952
-135.54
-136.129
-136.718
-137.306
-137.895
-138.484
-139.072
-139.661
-140.25
-140.838
-141.427
-53.09
-53.7139
-54.3362
-54.9569
-55.5761
-56.194
-56.8107
-57.4261
-58.0404
-58.6537
-59.2659
-59.8772
-60.4875
-61.097
-61.7057
-62.3136
-62.9207
-63.5271
-64.1329
-64.7379
-65.3424
-65.9463
-66.5496
-67.1523
-67.7545
-68.3562
-68.9575
-69.5582
-70.1585
-70.7584
-71.3579
-71.9569
-72.5556
-73.1539
-73.7518
-74.3494
-74.9467
-75.5437
-76.1403
-76.7366
-77.3327
-77.9285
-78.524
-79.1193
-79.7143
-80.309
-80.9036
-81.4979
-82.092
-82.6859
-83.2796
-83.8731
-84.4664
-85.0595
-85.6525
-86.2453
-86.8379
-87.4304
-88.0227
-88.6149
-89.207
-89.7989
-90.3907
-90.9823
-91.5739
-92.1653
-92.7566
-93.3478
-93.9389
-94.5299
-95.1208
-95.7116
-96.3023
-96.893
-97.4835
-98.074
-98.6644
-99.2548
-99.845
-100.435
-101.025
-101.615
-102.205
-102.795
-103.385
-103.975
-104.565
-105.155
-105.744
-106.334
-106.923
-107.513
-108.103
-108.692
-109.281
-109.871
-110.46
-111.05
-111.639
-112.228
-112.817
-113.407
-113.996
-114.585
-115.174
-115.763
-116.352
-116.941
-117.53
-118.119
-118.708
-119.297
-119.886
-120.475
-121.064
-121.653
-122.242
-122.831
-123.42
-124.009
-124.598
-125.186
-125.775
-126.364
-126.953
-127.542
-128.13
-128.719
-129.308
-129.897
-130.486
-131.074
-131.663
-132.252
-132.841
-133.429
-134.018
-134.607
-135.195
-135.784
-136.373
-136.961
-137.55
-138.139
-138.727
-139.316
-139.905
-140.493
-141.082
-141.671
-53.9807
-54.5995
-55.2167
-55.8323
-56.4465
-57.0593
-57.6709
-58.2813
-58.8905
-59.4987
-60.1059
-60.7121
-61.3174
-61.9218
-62.5254
-63.1282
-63.7303
-64.3317
-64.9324
-65.5324
-66.1318
-66.7306
-67.3289
-67.9266
-68.5237
-69.1204
-69.7166
-70.3123
-70.9075
-71.5024
-72.0968
-72.6908
-73.2844
-73.8777
-74.4706
-75.0631
-75.6554
-76.2473
-76.8388
-77.4301
-78.0212
-78.6119
-79.2024
-79.7926
-80.3825
-80.9723
-81.5617
-82.151
-82.7401
-83.3289
-83.9176
-84.506
-85.0943
-85.6824
-86.2703
-86.8581
-87.4456
-88.0331
-88.6204
-89.2075
-89.7945
-90.3814
-90.9681
-91.5547
-92.1412
-92.7276
-93.3139
-93.9
-94.4861
-95.072
-95.6579
-96.2437
-96.8293
-97.4149
-98.0005
-98.5859
-99.1712
-99.7565
-100.342
-100.927
-101.512
-102.097
-102.682
-103.267
-103.852
-104.436
-105.021
-105.606
-106.19
-106.775
-107.36
-107.944
-108.529
-109.113
-109.697
-110.282
-110.866
-111.45
-112.035
-112.619
-113.203
-113.787
-114.371
-114.955
-115.539
-116.123
-116.708
-117.292
-117.876
-118.459
-119.043
-119.627
-120.211
-120.795
-121.379
-121.963
-122.547
-123.13
-123.714
-124.298
-124.882
-125.466
-126.049
-126.633
-127.217
-127.8