/*--------------------------------*- C++ -*----------------------------------*\
| =========                 |                                                 |
| \\      /  F ield         | OpenFOAM: The Open Source CFD Toolbox           |
|  \\    /   O peration     | Version:  v1912                                 |
|   \\  /    A nd           | Website:  www.openfoam.com                      |
|    \\/     M anipulation  |                                                 |
\*---------------------------------------------------------------------------*/
FoamFile
{
    version     2.0;
    format      ascii;
    class       surfaceScalarField;
    location    "10";
    object      phi;
}
// * * * * * * * * * * * * * * * * * * * * * * * * * * * * * * * * * * * * * //

dimensions      [0 3 -1 0 0 0 0];
oriented        oriented;


internalField   nonuniform List<scalar> 
28285
(
2.29376e-07
1.25553e-08
2.17446e-07
1.19291e-08
2.06137e-07
1.13098e-08
1.95395e-07
1.07415e-08
1.85215e-07
1.01798e-08
1.75551e-07
9.66441e-09
1.66396e-07
9.15531e-09
1.57707e-07
8.68837e-09
1.4948e-07
8.22713e-09
1.41676e-07
7.80449e-09
1.34289e-07
7.38683e-09
1.27284e-07
7.00462e-09
1.20657e-07
6.62678e-09
1.14376e-07
6.28132e-09
1.08436e-07
5.93976e-09
1.02809e-07
5.62775e-09
9.74893e-08
5.31939e-09
9.24515e-08
5.03771e-09
8.7692e-08
4.75953e-09
8.31866e-08
4.50545e-09
7.89318e-08
4.25476e-09
7.49061e-08
4.02573e-09
7.11061e-08
3.79999e-09
6.75123e-08
3.59376e-09
6.41217e-08
3.39064e-09
6.09166e-08
3.20512e-09
5.78941e-08
3.02245e-09
5.50383e-08
2.85581e-09
5.23467e-08
2.69161e-09
4.98046e-08
2.54209e-09
4.741e-08
2.39459e-09
4.51494e-08
2.2606e-09
4.30212e-08
2.1282e-09
4.1013e-08
2.00824e-09
3.91235e-08
1.88953e-09
3.73413e-08
1.7822e-09
3.56654e-08
1.67589e-09
3.40855e-08
1.57993e-09
3.26006e-08
1.48486e-09
3.12015e-08
1.39909e-09
2.98873e-08
1.31421e-09
2.86497e-08
1.23758e-09
2.74878e-08
1.16192e-09
2.63943e-08
1.0935e-09
2.53681e-08
1.02615e-09
2.44031e-08
9.65078e-10
2.34978e-08
9.0522e-10
2.26471e-08
8.50754e-10
2.18495e-08
7.97633e-10
2.11004e-08
7.49097e-10
2.03984e-08
7.01995e-10
1.97396e-08
6.58806e-10
1.91225e-08
6.17072e-10
1.85438e-08
5.78711e-10
1.8002e-08
5.41744e-10
1.74943e-08
5.0774e-10
1.70193e-08
4.75007e-10
1.65744e-08
4.44921e-10
1.61584e-08
4.15961e-10
1.5769e-08
3.89372e-10
1.54052e-08
3.63788e-10
1.50649e-08
3.40303e-10
1.47472e-08
3.17753e-10
1.44502e-08
2.97006e-10
1.4173e-08
2.77183e-10
1.39141e-08
2.58859e-10
1.36727e-08
2.41468e-10
1.34474e-08
2.25297e-10
1.32373e-08
2.10058e-10
1.30415e-08
1.95816e-10
1.2859e-08
1.82464e-10
1.26891e-08
1.69961e-10
1.25308e-08
1.58255e-10
1.23835e-08
1.4731e-10
1.22465e-08
1.37058e-10
1.2119e-08
1.27482e-10
1.20004e-08
1.18527e-10
1.18903e-08
1.10153e-10
1.17879e-08
1.02352e-10
1.16929e-08
9.50361e-11
1.16047e-08
8.8245e-11
1.15228e-08
8.18726e-11
1.14468e-08
7.5959e-11
1.13764e-08
7.0427e-11
1.13111e-08
6.52838e-11
1.12506e-08
6.04915e-11
1.11946e-08
5.60213e-11
1.11427e-08
5.18795e-11
1.10947e-08
4.80043e-11
1.10503e-08
4.44304e-11
1.10092e-08
4.10785e-11
1.09712e-08
3.79932e-11
1.09361e-08
3.51129e-11
1.09037e-08
3.24485e-11
1.08737e-08
2.99887e-11
1.0846e-08
2.76901e-11
1.08204e-08
2.5594e-11
1.07968e-08
2.36183e-11
1.07749e-08
2.18353e-11
1.07548e-08
2.01509e-11
1.07361e-08
1.86382e-11
1.07189e-08
1.72096e-11
1.0703e-08
1.59327e-11
1.06883e-08
1.47371e-11
1.06746e-08
1.36707e-11
1.06619e-08
1.26818e-11
1.06501e-08
1.17997e-11
1.06391e-08
1.0999e-11
1.06288e-08
1.0284e-11
1.06192e-08
9.65404e-12
1.06101e-08
9.09564e-12
1.06015e-08
8.62049e-12
1.05932e-08
8.21509e-12
1.05854e-08
7.88668e-12
1.05777e-08
7.63255e-12
1.05703e-08
7.45006e-12
1.05629e-08
7.34716e-12
1.05556e-08
7.31877e-12
1.05482e-08
7.37343e-12
1.05407e-08
7.51077e-12
1.0533e-08
7.73781e-12
1.05249e-08
8.05384e-12
1.05165e-08
8.46852e-12
1.05075e-08
8.98517e-12
1.04979e-08
9.60949e-12
1.04875e-08
1.03406e-11
1.04763e-08
1.1192e-11
1.04642e-08
1.21346e-11
1.0451e-08
1.32231e-11
1.04367e-08
1.43075e-11
1.0421e-08
1.56488e-11
1.04045e-08
1.65268e-11
1.03859e-08
1.86139e-11
1.03683e-08
1.76302e-11
1.0346e-08
2.22924e-11
1.03298e-08
1.61906e-11
1.03046e-08
2.51884e-11
1.02929e-08
1.16522e-11
1.02685e-08
2.44183e-11
1.02651e-08
3.45264e-12
1.02479e-08
1.71292e-11
1.02532e-08
-5.30215e-12
1.0246e-08
7.22387e-12
1.02632e-08
-1.7151e-11
1.02704e-08
-7.25495e-12
1.02918e-08
-2.14343e-11
1.03077e-08
-1.58854e-11
1.03305e-08
-2.2746e-11
1.03507e-08
-2.02515e-11
1.03729e-08
-2.21378e-11
1.03937e-08
-2.08593e-11
1.04147e-08
-2.09968e-11
1.0434e-08
-1.92813e-11
1.04546e-08
-2.06028e-11
1.04711e-08
-1.65324e-11
1.04932e-08
-2.21073e-11
1.05075e-08
-1.42902e-11
1.05337e-08
-2.6197e-11
1.05503e-08
-1.65745e-11
1.05862e-08
-3.58586e-11
1.06398e-08
-5.36234e-11
1.07227e-08
-8.28929e-11
1.30624e-08
-2.33967e-09
-2.37395e-09
2.2975e-07
2.50765e-08
2.17854e-07
2.38255e-08
2.06574e-07
2.2589e-08
1.95862e-07
2.14536e-08
1.8571e-07
2.0332e-08
1.76072e-07
1.93024e-08
1.66942e-07
1.82857e-08
1.58277e-07
1.7353e-08
1.50073e-07
1.64319e-08
1.42289e-07
1.55876e-08
1.34923e-07
1.47535e-08
1.27937e-07
1.39901e-08
1.21329e-07
1.32355e-08
1.15064e-07
1.25454e-08
1.09141e-07
1.18633e-08
1.03529e-07
1.12401e-08
9.82237e-08
1.06243e-08
9.31998e-08
1.00616e-08
8.84533e-08
9.50606e-09
8.39602e-08
8.99853e-09
7.97171e-08
8.49788e-09
7.57024e-08
8.04041e-09
7.19128e-08
7.58959e-09
6.83289e-08
7.17765e-09
6.49476e-08
6.77198e-09
6.17513e-08
6.40144e-09
5.87371e-08
6.03662e-09
5.58892e-08
5.70376e-09
5.32049e-08
5.37583e-09
5.06698e-08
5.07719e-09
4.82818e-08
4.7826e-09
4.60275e-08
4.51497e-09
4.39051e-08
4.25056e-09
4.19024e-08
4.01095e-09
4.00181e-08
3.77386e-09
3.82408e-08
3.55949e-09
3.65695e-08
3.34717e-09
3.4994e-08
3.15549e-09
3.35132e-08
2.96563e-09
3.2118e-08
2.79432e-09
3.08074e-08
2.6248e-09
2.95732e-08
2.47172e-09
2.84145e-08
2.32063e-09
2.73241e-08
2.18397e-09
2.63008e-08
2.04946e-09
2.53384e-08
1.92748e-09
2.44357e-08
1.80793e-09
2.35873e-08
1.69914e-09
2.27919e-08
1.59304e-09
2.20448e-08
1.49611e-09
2.13448e-08
1.40202e-09
2.06878e-08
1.31579e-09
2.00725e-08
1.2324e-09
1.94954e-08
1.15582e-09
1.89552e-08
1.08195e-09
1.84489e-08
1.01408e-09
1.79752e-08
9.48656e-10
1.75315e-08
8.88611e-10
1.71168e-08
8.30724e-10
1.67285e-08
7.77668e-10
1.63657e-08
7.26522e-10
1.60264e-08
6.79667e-10
1.57095e-08
6.3458e-10
1.54134e-08
5.9319e-10
1.5137e-08
5.53559e-10
1.48789e-08
5.16987e-10
1.46381e-08
4.82239e-10
1.44134e-08
4.4994e-10
1.4204e-08
4.19512e-10
1.40087e-08
3.91058e-10
1.38268e-08
3.64399e-10
1.36574e-08
3.39423e-10
1.34996e-08
3.16047e-10
1.33527e-08
2.94184e-10
1.3216e-08
2.73712e-10
1.30889e-08
2.54584e-10
1.29708e-08
2.36702e-10
1.28609e-08
2.19972e-10
1.27589e-08
2.04395e-10
1.26642e-08
1.8978e-10
1.25762e-08
1.76219e-10
1.24946e-08
1.63491e-10
1.24188e-08
1.5168e-10
1.23486e-08
1.40632e-10
1.22836e-08
1.3036e-10
1.22233e-08
1.20789e-10
1.21674e-08
1.1186e-10
1.21157e-08
1.03587e-10
1.20679e-08
9.58477e-11
1.20236e-08
8.87099e-11
1.19827e-08
8.20152e-11
1.19448e-08
7.58518e-11
1.19098e-08
7.00985e-11
1.18775e-08
6.47773e-11
1.18476e-08
5.98649e-11
1.182e-08
5.52673e-11
1.17945e-08
5.10846e-11
1.1771e-08
4.71367e-11
1.17493e-08
4.35781e-11
1.17292e-08
4.02128e-11
1.17107e-08
3.71936e-11
1.16935e-08
3.43456e-11
1.16777e-08
3.17998e-11
1.1663e-08
2.94134e-11
1.16494e-08
2.72841e-11
1.16367e-08
2.53107e-11
1.1625e-08
2.35489e-11
1.1614e-08
2.19512e-11
1.16038e-08
2.05249e-11
1.15942e-08
1.92675e-11
1.15851e-08
1.81546e-11
1.15765e-08
1.72069e-11
1.15684e-08
1.63997e-11
1.15605e-08
1.57466e-11
1.15529e-08
1.52411e-11
1.15455e-08
1.48804e-11
1.15381e-08
1.46772e-11
1.15308e-08
1.46247e-11
1.15235e-08
1.47367e-11
1.15159e-08
1.50148e-11
1.15082e-08
1.54714e-11
1.15002e-08
1.61059e-11
1.14917e-08
1.69371e-11
1.14827e-08
1.79719e-11
1.14731e-08
1.92215e-11
1.14628e-08
2.06836e-11
1.14516e-08
2.23853e-11
1.14394e-08
2.42692e-11
1.14262e-08
2.64428e-11
1.14119e-08
2.86112e-11
1.13963e-08
3.12849e-11
1.13797e-08
3.30535e-11
1.13612e-08
3.71823e-11
1.13435e-08
3.52828e-11
1.13213e-08
4.44725e-11
1.13051e-08
3.23983e-11
1.128e-08
5.02717e-11
1.12685e-08
2.31864e-11
1.12442e-08
4.87618e-11
1.12411e-08
6.54151e-12
1.12242e-08
3.39626e-11
1.12295e-08
-1.05856e-11
1.1222e-08
1.47463e-11
1.1239e-08
-3.41462e-11
1.12461e-08
-1.43669e-11
1.12675e-08
-4.2785e-11
1.12833e-08
-3.17416e-11
1.1306e-08
-4.53896e-11
1.13262e-08
-4.04759e-11
1.13483e-08
-4.42061e-11
1.13691e-08
-4.16837e-11
1.139e-08
-4.19353e-11
1.14093e-08
-3.85508e-11
1.14298e-08
-4.11032e-11
1.14463e-08
-3.30662e-11
1.14683e-08
-4.40815e-11
1.14825e-08
-2.84663e-11
1.15086e-08
-5.23414e-11
1.15248e-08
-3.27254e-11
1.15607e-08
-7.18189e-11
1.16136e-08
-1.06512e-10
1.17004e-08
-1.69656e-10
1.43287e-08
-4.968e-09
-5.06404e-09
2.29385e-07
3.75855e-08
2.175e-07
3.57104e-08
2.06232e-07
3.38571e-08
1.95531e-07
3.21552e-08
1.85388e-07
3.04742e-08
1.7576e-07
2.89309e-08
1.66638e-07
2.74072e-08
1.57982e-07
2.60091e-08
1.49786e-07
2.46286e-08
1.4201e-07
2.33631e-08
1.34651e-07
2.2113e-08
1.27672e-07
2.09686e-08
1.2107e-07
1.98377e-08
1.14812e-07
1.88033e-08
1.08894e-07
1.77811e-08
1.03287e-07
1.68469e-08
9.79877e-08
1.59239e-08
9.29688e-08
1.50805e-08
8.8227e-08
1.42479e-08
8.37383e-08
1.34872e-08
7.94994e-08
1.27368e-08
7.54887e-08
1.20511e-08
7.17028e-08
1.13755e-08
6.81225e-08
1.0758e-08
6.47445e-08
1.015e-08
6.15513e-08
9.59457e-09
5.85401e-08
9.04782e-09
5.5695e-08
8.54888e-09
5.30134e-08
8.05741e-09
5.04809e-08
7.60976e-09
4.80952e-08
7.16827e-09
4.58431e-08
6.7671e-09
4.37228e-08
6.37083e-09
4.17221e-08
6.01165e-09
3.98396e-08
5.65634e-09
3.80641e-08
5.33499e-09
3.63945e-08
5.01681e-09
3.48205e-08
4.72947e-09
3.33412e-08
4.44496e-09
3.19474e-08
4.18814e-09
3.0638e-08
3.93412e-09
2.94051e-08
3.70463e-09
2.82476e-08
3.47822e-09
2.71582e-08
3.27333e-09
2.61359e-08
3.07179e-09
2.51744e-08
2.88891e-09
2.42726e-08
2.70977e-09
2.3425e-08
2.54668e-09
2.26304e-08
2.38769e-09
2.18841e-08
2.24239e-09
2.11848e-08
2.10138e-09
2.05284e-08
1.97212e-09
1.99137e-08
1.84715e-09
1.93372e-08
1.73236e-09
1.87975e-08
1.62165e-09
1.82916e-08
1.51992e-09
1.78184e-08
1.42186e-09
1.73751e-08
1.33187e-09
1.69608e-08
1.24511e-09
1.65728e-08
1.16559e-09
1.62104e-08
1.08893e-09
1.58714e-08
1.0187e-09
1.55549e-08
9.51126e-10
1.5259e-08
8.89091e-10
1.49828e-08
8.29696e-10
1.47249e-08
7.74877e-10
1.44844e-08
7.228e-10
1.42599e-08
6.7439e-10
1.40506e-08
6.28783e-10
1.38556e-08
5.8614e-10
1.36738e-08
5.46178e-10
1.35045e-08
5.08749e-10
1.33468e-08
4.73708e-10
1.32e-08
4.40944e-10
1.30635e-08
4.10258e-10
1.29365e-08
3.81589e-10
1.28184e-08
3.54791e-10
1.27087e-08
3.29712e-10
1.26067e-08
3.06371e-10
1.2512e-08
2.84459e-10
1.24241e-08
2.6414e-10
1.23425e-08
2.45058e-10
1.22668e-08
2.2736e-10
1.21967e-08
2.10799e-10
1.21316e-08
1.95402e-10
1.20714e-08
1.8106e-10
1.20155e-08
1.67674e-10
1.19638e-08
1.55281e-10
1.1916e-08
1.43674e-10
1.18717e-08
1.32981e-10
1.18308e-08
1.22943e-10
1.1793e-08
1.13709e-10
1.1758e-08
1.05086e-10
1.17256e-08
9.71067e-11
1.16958e-08
8.97491e-11
1.16682e-08
8.28504e-11
1.16427e-08
7.65893e-11
1.16191e-08
7.06614e-11
1.15974e-08
6.53389e-11
1.15773e-08
6.02835e-11
1.15587e-08
5.5769e-11
1.15416e-08
5.14853e-11
1.15257e-08
4.76786e-11
1.1511e-08
4.4093e-11
1.14974e-08
4.09085e-11
1.14848e-08
3.79451e-11
1.1473e-08
3.53079e-11
1.14621e-08
3.29113e-11
1.14518e-08
3.07728e-11
1.14422e-08
2.88882e-11
1.14331e-08
2.72188e-11
1.14245e-08
2.57982e-11
1.14164e-08
2.45875e-11
1.14085e-08
2.36067e-11
1.14009e-08
2.28493e-11
1.13935e-08
2.23058e-11
1.13861e-08
2.20018e-11
1.13788e-08
2.19202e-11
1.13715e-08
2.20881e-11
1.1364e-08
2.25028e-11
1.13563e-08
2.31868e-11
1.13483e-08
2.41364e-11
1.13398e-08
2.5382e-11
1.13309e-08
2.6932e-11
1.13213e-08
2.88046e-11
1.1311e-08
3.0996e-11
1.12998e-08
3.35471e-11
1.12877e-08
3.63715e-11
1.12745e-08
3.96295e-11
1.12602e-08
4.28812e-11
1.12446e-08
4.6887e-11
1.12281e-08
4.95397e-11
1.12096e-08
5.57239e-11
1.1192e-08
5.28864e-11
1.11698e-08
6.66535e-11
1.11537e-08
4.85683e-11
1.11286e-08
7.53629e-11
1.1117e-08
3.47585e-11
1.10926e-08
7.3153e-11
1.10893e-08
9.8624e-12
1.1072e-08
5.12273e-11
1.10773e-08
-1.58801e-11
1.10703e-08
2.171e-11
1.10875e-08
-5.13474e-11
1.10948e-08
-2.15852e-11
1.11161e-08
-6.41659e-11
1.1132e-08
-4.76483e-11
1.11547e-08
-6.80311e-11
1.11749e-08
-6.06971e-11
1.1197e-08
-6.62513e-11
1.12178e-08
-6.24854e-11
1.12387e-08
-6.28361e-11
1.12579e-08
-5.78151e-11
1.12784e-08
-6.15524e-11
1.1295e-08
-4.96473e-11
1.13169e-08
-6.60198e-11
1.13312e-08
-4.27431e-11
1.13573e-08
-7.84928e-11
1.13737e-08
-4.9065e-11
1.14098e-08
-1.08002e-10
1.14632e-08
-1.59881e-10
1.15537e-08
-2.60137e-10
1.41042e-08
-7.51848e-09
-7.69601e-09
2.26521e-07
5.00892e-08
2.14642e-07
4.759e-08
2.03378e-07
4.51204e-08
1.92681e-07
4.28521e-08
1.82543e-07
4.06122e-08
1.72919e-07
3.85553e-08
1.63802e-07
3.65248e-08
1.55149e-07
3.46613e-08
1.46956e-07
3.28218e-08
1.39184e-07
3.11351e-08
1.31828e-07
2.94694e-08
1.24852e-07
2.7944e-08
1.18253e-07
2.64372e-08
1.11998e-07
2.50584e-08
1.06083e-07
2.36963e-08
1.00478e-07
2.24511e-08
9.51809e-08
2.12213e-08
9.01643e-08
2.00971e-08
8.54245e-08
1.89878e-08
8.09379e-08
1.79737e-08
7.67008e-08
1.6974e-08
7.2692e-08
1.60599e-08
6.89077e-08
1.51597e-08
6.53291e-08
1.43366e-08
6.19525e-08
1.35266e-08
5.87609e-08
1.27862e-08
5.5751e-08
1.20577e-08
5.29072e-08
1.13926e-08
5.02268e-08
1.07379e-08
4.76954e-08
1.01411e-08
4.53108e-08
9.55293e-09
4.30598e-08
9.0181e-09
4.09404e-08
8.49022e-09
3.89407e-08
8.01134e-09
3.7059e-08
7.53805e-09
3.52844e-08
7.10958e-09
3.36154e-08
6.68578e-09
3.20423e-08
6.30262e-09
3.05636e-08
5.92369e-09
2.91705e-08
5.58121e-09
2.78617e-08
5.24291e-09
2.66295e-08
4.93686e-09
2.54724e-08
4.63534e-09
2.43836e-08
4.3621e-09
2.33617e-08
4.0937e-09
2.24008e-08
3.8498e-09
2.14993e-08
3.61124e-09
2.06523e-08
3.39374e-09
1.9858e-08
3.182e-09
1.91121e-08
2.98823e-09
1.84131e-08
2.80044e-09
1.77571e-08
2.62807e-09
1.71426e-08
2.46163e-09
1.65664e-08
2.30857e-09
1.60269e-08
2.16111e-09
1.55214e-08
2.02546e-09
1.50484e-08
1.89487e-09
1.46054e-08
1.77486e-09
1.41912e-08
1.65931e-09
1.38035e-08
1.55326e-09
1.34413e-08
1.45118e-09
1.31025e-08
1.35752e-09
1.27861e-08
1.26754e-09
1.24904e-08
1.1848e-09
1.22144e-08
1.1057e-09
1.19566e-08
1.0326e-09
1.17162e-08
9.63231e-10
1.14919e-08
8.98701e-10
1.12827e-08
8.37928e-10
1.10878e-08
7.81102e-10
1.09061e-08
7.27842e-10
1.07369e-08
6.77967e-10
1.05793e-08
6.31269e-10
1.04327e-08
5.87604e-10
1.02962e-08
5.46714e-10
1.01693e-08
5.08507e-10
1.00513e-08
4.72793e-10
9.94164e-09
4.39373e-10
9.83975e-09
4.08264e-10
9.74514e-09
3.79069e-10
9.6573e-09
3.51985e-10
9.5758e-09
3.2656e-10
9.50018e-09
3.02971e-10
9.43008e-09
2.80904e-10
9.3651e-09
2.60384e-10
9.30489e-09
2.41272e-10
9.24913e-09
2.23432e-10
9.19749e-09
2.06914e-10
9.14972e-09
1.9145e-10
9.1055e-09
1.77198e-10
9.06462e-09
1.63822e-10
9.02682e-09
1.51513e-10
8.99188e-09
1.40024e-10
8.9596e-09
1.29389e-10
8.92976e-09
1.19583e-10
8.90222e-09
1.10392e-10
8.87677e-09
1.02044e-10
8.85328e-09
9.41482e-11
8.83157e-09
8.70517e-11
8.81153e-09
8.03187e-11
8.793e-09
7.42994e-11
8.77589e-09
6.85967e-11
8.76005e-09
6.35182e-11
8.7454e-09
5.87424e-11
8.73181e-09
5.44983e-11
8.71921e-09
5.05517e-11
8.70748e-09
4.70363e-11
8.69654e-09
4.38452e-11
8.68632e-09
4.09963e-11
8.67672e-09
3.84861e-11
8.66768e-09
3.62632e-11
8.6591e-09
3.43715e-11
8.65093e-09
3.27606e-11
8.64308e-09
3.14559e-11
8.63548e-09
3.04485e-11
8.62806e-09
2.97279e-11
8.62074e-09
2.93244e-11
8.61344e-09
2.922e-11
8.60608e-09
2.94459e-11
8.59858e-09
3.00024e-11
8.59085e-09
3.09167e-11
8.5828e-09
3.21855e-11
8.57433e-09
3.38485e-11
8.56535e-09
3.5917e-11
8.55574e-09
3.84153e-11
8.5454e-09
4.13378e-11
8.53421e-09
4.47392e-11
8.52207e-09
4.85052e-11
8.50885e-09
5.28473e-11
8.49455e-09
5.71836e-11
8.47892e-09
6.25171e-11
8.4624e-09
6.60645e-11
8.44386e-09
7.4265e-11
8.42617e-09
7.05691e-11
8.40414e-09
8.86836e-11
8.38771e-09
6.50026e-11
8.36311e-09
9.99571e-11
8.351e-09
4.68727e-11
8.32751e-09
9.66414e-11
8.32362e-09
1.37557e-11
8.30773e-09
6.71143e-11
8.31199e-09
-2.01417e-11
8.30539e-09
2.83119e-11
8.32173e-09
-6.76899e-11
8.32942e-09
-2.92711e-11
8.35044e-09
-8.51881e-11
8.36645e-09
-6.36579e-11
8.38902e-09
-9.06043e-11
8.40924e-09
-8.09113e-11
8.43129e-09
-8.83e-11
8.45208e-09
-8.32804e-11
8.47299e-09
-8.3739e-11
8.49224e-09
-7.70724e-11
8.51263e-09
-8.19396e-11
8.52934e-09
-6.63623e-11
8.55088e-09
-8.75541e-11
8.56569e-09
-5.75499e-11
8.59088e-09
-1.03686e-10
8.60814e-09
-6.63281e-11
8.64275e-09
-1.42605e-10
8.69713e-09
-2.14262e-10
8.7865e-09
-3.49512e-10
1.05851e-08
-9.31706e-09
-9.56296e-09
2.22586e-07
6.25897e-08
2.1071e-07
5.94663e-08
1.99449e-07
5.63808e-08
1.88756e-07
5.3546e-08
1.7862e-07
5.07474e-08
1.68999e-07
4.81768e-08
1.59884e-07
4.56399e-08
1.51234e-07
4.33111e-08
1.43043e-07
4.10128e-08
1.35273e-07
3.89048e-08
1.27919e-07
3.68238e-08
1.20946e-07
3.49173e-08
1.14348e-07
3.30348e-08
1.08095e-07
3.13116e-08
1.02181e-07
2.961e-08
9.65787e-08
2.80535e-08
9.12828e-08
2.65173e-08
8.62677e-08
2.51122e-08
8.15292e-08
2.37263e-08
7.70441e-08
2.24588e-08
7.28081e-08
2.121e-08
6.88006e-08
2.00675e-08
6.50174e-08
1.89429e-08
6.14399e-08
1.79141e-08
5.80642e-08
1.69022e-08
5.48737e-08
1.59768e-08
5.18646e-08
1.50668e-08
4.90218e-08
1.42354e-08
4.63421e-08
1.34176e-08
4.38116e-08
1.26715e-08
4.14276e-08
1.19369e-08
3.91774e-08
1.12683e-08
3.70586e-08
1.0609e-08
3.50597e-08
1.00103e-08
3.31784e-08
9.41927e-09
3.14045e-08
8.8835e-09
2.9736e-08
8.35432e-09
2.81634e-08
7.87517e-09
2.66851e-08
7.40205e-09
2.52926e-08
6.97374e-09
2.39841e-08
6.55136e-09
2.27524e-08
6.16861e-09
2.15955e-08
5.79217e-09
2.05072e-08
5.45044e-09
1.94855e-08
5.11535e-09
1.8525e-08
4.81031e-09
1.76238e-08
4.51248e-09
1.67771e-08
4.24048e-09
1.59829e-08
3.97611e-09
1.52374e-08
3.7338e-09
1.45385e-08
3.49931e-09
1.38828e-08
3.28378e-09
1.32685e-08
3.07595e-09
1.26925e-08
2.88456e-09
1.21532e-08
2.70043e-09
1.16478e-08
2.53081e-09
1.11749e-08
2.36776e-09
1.07321e-08
2.21767e-09
1.0318e-08
2.07342e-09
9.93049e-09
1.94078e-09
9.56832e-09
1.81336e-09
9.22963e-09
1.6962e-09
8.9133e-09
1.58387e-09
8.6177e-09
1.4804e-09
8.34176e-09
1.38164e-09
8.08412e-09
1.29025e-09
7.84375e-09
1.2036e-09
7.6195e-09
1.12295e-09
7.4104e-09
1.04702e-09
7.21549e-09
9.76016e-10
7.03387e-09
9.09463e-10
6.86469e-09
8.47145e-10
6.70716e-09
7.88795e-10
6.56054e-09
7.34233e-10
6.42411e-09
6.83143e-10
6.29722e-09
6.35399e-10
6.17923e-09
5.90775e-10
6.06959e-09
5.49019e-10
5.96771e-09
5.10142e-10
5.87311e-09
4.7367e-10
5.78527e-09
4.3982e-10
5.70378e-09
4.08057e-10
5.62817e-09
3.78578e-10
5.55807e-09
3.51007e-10
5.49309e-09
3.25366e-10
5.43287e-09
3.01485e-10
5.37711e-09
2.79195e-10
5.32547e-09
2.58555e-10
5.27769e-09
2.39233e-10
5.23346e-09
2.21422e-10
5.19257e-09
2.04712e-10
5.15476e-09
1.8933e-10
5.1198e-09
1.74977e-10
5.08751e-09
1.61685e-10
5.05766e-09
1.49434e-10
5.0301e-09
1.37947e-10
5.00462e-09
1.27521e-10
4.98112e-09
1.17648e-10
4.95939e-09
1.08789e-10
4.93934e-09
1.00367e-10
4.92078e-09
9.28549e-11
4.90366e-09
8.5721e-11
4.88779e-09
7.93876e-11
4.87312e-09
7.34109e-11
4.85951e-09
6.81156e-11
4.84688e-09
6.31769e-11
4.83513e-09
5.8789e-11
4.82417e-09
5.47986e-11
4.81393e-09
5.12379e-11
4.80432e-09
4.81022e-11
4.79526e-09
4.53218e-11
4.78667e-09
4.29587e-11
4.77849e-09
4.0944e-11
4.77063e-09
3.93119e-11
4.76303e-09
3.80537e-11
4.7556e-09
3.71494e-11
4.74828e-09
3.66467e-11
4.74099e-09
3.65121e-11
4.73364e-09
3.67955e-11
4.72615e-09
3.74881e-11
4.71844e-09
3.86309e-11
4.71041e-09
4.02147e-11
4.70197e-09
4.22932e-11
4.69301e-09
4.48772e-11
4.68342e-09
4.79994e-11
4.67311e-09
5.16515e-11
4.66194e-09
5.5903e-11
4.64984e-09
6.06103e-11
4.63665e-09
6.6036e-11
4.62238e-09
7.14588e-11
4.60677e-09
7.81177e-11
4.59026e-09
8.25746e-11
4.57176e-09
9.27741e-11
4.55399e-09
8.83323e-11
4.53222e-09
1.10456e-10
4.51525e-09
8.19774e-11
4.49151e-09
1.23688e-10
4.47811e-09
6.02818e-11
4.45602e-09
1.18725e-10
4.45018e-09
1.95957e-11
4.43552e-09
8.17764e-11
4.43838e-09
-2.30057e-11
4.43407e-09
3.26271e-11
4.44906e-09
-8.26859e-11
4.45793e-09
-3.81403e-11
4.47824e-09
-1.0549e-10
4.49475e-09
-8.01703e-11
4.51708e-09
-1.12938e-10
4.53739e-09
-1.01216e-10
4.55939e-09
-1.10305e-10
4.5802e-09
-1.04085e-10
4.60106e-09
-1.04602e-10
4.62039e-09
-9.64001e-11
4.64057e-09
-1.02126e-10
4.65775e-09
-8.35394e-11
4.67857e-09
-1.08377e-10
4.69456e-09
-7.35382e-11
4.71836e-09
-1.27481e-10
4.73774e-09
-8.57089e-11
4.7702e-09
-1.75063e-10
4.82712e-09
-2.71183e-10
4.91196e-09
-4.34354e-10
5.79744e-09
-1.02025e-08
-1.04844e-08
2.1973e-07
7.50872e-08
2.07857e-07
7.13397e-08
1.96599e-07
6.76385e-08
1.85908e-07
6.42372e-08
1.75775e-07
6.08802e-08
1.66156e-07
5.77959e-08
1.57043e-07
5.47529e-08
1.48396e-07
5.19586e-08
1.40207e-07
4.92018e-08
1.32439e-07
4.66725e-08
1.25086e-07
4.41764e-08
1.18115e-07
4.18889e-08
1.11519e-07
3.96309e-08
1.05267e-07
3.75632e-08
9.93549e-08
3.55222e-08
9.37539e-08
3.36545e-08
8.84593e-08
3.1812e-08
8.34456e-08
3.01258e-08
7.87082e-08
2.84637e-08
7.42243e-08
2.69427e-08
6.99894e-08
2.54449e-08
6.59829e-08
2.40739e-08
6.22007e-08
2.27252e-08
5.86242e-08
2.14906e-08
5.52494e-08
2.0277e-08
5.20598e-08
1.91664e-08
4.90514e-08
1.80752e-08
4.62095e-08
1.70774e-08
4.35304e-08
1.60966e-08
4.10007e-08
1.52012e-08
3.86173e-08
1.43204e-08
3.63678e-08
1.35178e-08
3.42495e-08
1.27273e-08
3.22512e-08
1.20086e-08
3.03705e-08
1.13e-08
2.85971e-08
1.06568e-08
2.6929e-08
1.00224e-08
2.5357e-08
9.44719e-09
2.3879e-08
8.88003e-09
2.24869e-08
8.36579e-09
2.11788e-08
7.85949e-09
1.99475e-08
7.39992e-09
1.8791e-08
6.9487e-09
1.7703e-08
6.53838e-09
1.66816e-08
6.13672e-09
1.57215e-08
5.77048e-09
1.48205e-08
5.41347e-09
1.39741e-08
5.0869e-09
1.31802e-08
4.76999e-09
1.24349e-08
4.47908e-09
1.17362e-08
4.19798e-09
1.10808e-08
3.93923e-09
1.04667e-08
3.69008e-09
9.8909e-09
3.46032e-09
9.35174e-09
3.23959e-09
8.8466e-09
3.03595e-09
8.37387e-09
2.8405e-09
7.93124e-09
2.6603e-09
7.51726e-09
2.4874e-09
7.12991e-09
2.32813e-09
6.76786e-09
2.17541e-09
6.42933e-09
2.03473e-09
6.11311e-09
1.90009e-09
5.81764e-09
1.77586e-09
5.54181e-09
1.65747e-09
5.28429e-09
1.54777e-09
5.04402e-09
1.44387e-09
4.81988e-09
1.3471e-09
4.61088e-09
1.25601e-09
4.41606e-09
1.17084e-09
4.23453e-09
1.09099e-09
4.06544e-09
1.01624e-09
3.908e-09
9.4624e-10
3.76145e-09
8.80782e-10
3.62509e-09
8.19497e-10
3.49827e-09
7.62221e-10
3.38036e-09
7.08686e-10
3.27078e-09
6.58599e-10
3.16897e-09
6.11951e-10
3.07443e-09
5.68211e-10
2.98666e-09
5.27591e-10
2.90522e-09
4.89499e-10
2.82967e-09
4.54126e-10
2.75962e-09
4.21055e-10
2.69469e-09
3.90295e-10
2.63453e-09
3.61646e-10
2.57882e-09
3.34908e-10
2.52723e-09
3.10141e-10
2.47949e-09
2.86971e-10
2.43532e-09
2.65595e-10
2.39448e-09
2.45558e-10
2.35671e-09
2.27097e-10
2.3218e-09
2.09883e-10
2.28955e-09
1.93939e-10
2.25975e-09
1.79236e-10
2.23223e-09
1.65465e-10
2.2068e-09
1.52945e-10
2.18334e-09
1.41116e-10
2.16165e-09
1.30474e-10
2.14163e-09
1.20386e-10
2.12312e-09
1.11362e-10
2.10603e-09
1.02817e-10
2.09021e-09
9.52075e-11
2.07557e-09
8.8048e-11
2.062e-09
8.16886e-11
2.0494e-09
7.57709e-11
2.03769e-09
7.05051e-11
2.02677e-09
6.57206e-11
2.01655e-09
6.14519e-11
2.00696e-09
5.76901e-11
1.99793e-09
5.43589e-11
1.98936e-09
5.15248e-11
1.98119e-09
4.91117e-11
1.97335e-09
4.71566e-11
1.96575e-09
4.56495e-11
1.95833e-09
4.45697e-11
1.95101e-09
4.39685e-11
1.94371e-09
4.38129e-11
1.93635e-09
4.41558e-11
1.92885e-09
4.49919e-11
1.92111e-09
4.6367e-11
1.91305e-09
4.82716e-11
1.90458e-09
5.07694e-11
1.89558e-09
5.38737e-11
1.88596e-09
5.76231e-11
1.8756e-09
6.20083e-11
1.86439e-09
6.71109e-11
1.85224e-09
7.27628e-11
1.83901e-09
7.92691e-11
1.82468e-09
8.57858e-11
1.80905e-09
9.37511e-11
1.79246e-09
9.9158e-11
1.77401e-09
1.11225e-10
1.75598e-09
1.06366e-10
1.73478e-09
1.31649e-10
1.71689e-09
9.98673e-11
1.69455e-09
1.46037e-10
1.67959e-09
7.52368e-11
1.65961e-09
1.38708e-10
1.65209e-09
2.71161e-11
1.64002e-09
9.38393e-11
1.64043e-09
-2.34127e-11
1.63766e-09
3.54009e-11
1.65062e-09
-9.56471e-11
1.66104e-09
-4.85597e-11
1.68013e-09
-1.24578e-10
1.69738e-09
-9.74204e-11
1.71926e-09
-1.34823e-10
1.73973e-09
-1.21687e-10
1.76167e-09
-1.32246e-10
1.78251e-09
-1.24917e-10
1.80333e-09
-1.25422e-10
1.82277e-09
-1.15841e-10
1.84265e-09
-1.22006e-10
1.86039e-09
-1.01279e-10
1.88025e-09
-1.28244e-10
1.89746e-09
-9.07459e-11
1.91944e-09
-1.49463e-10
1.94076e-09
-1.07022e-10
1.97039e-09
-2.047e-10
2.02923e-09
-3.30017e-10
2.10797e-09
-5.13096e-10
2.40451e-09
-1.04991e-08
-1.0792e-08
2.18365e-07
8.7582e-08
2.06495e-07
8.32104e-08
1.95239e-07
7.88938e-08
1.8455e-07
7.4926e-08
1.7442e-07
7.10108e-08
1.64803e-07
6.74128e-08
1.55692e-07
6.38639e-08
1.47047e-07
6.06042e-08
1.38859e-07
5.73891e-08
1.31093e-07
5.44384e-08
1.23742e-07
5.15274e-08
1.16773e-07
4.88587e-08
1.10178e-07
4.62255e-08
1.03928e-07
4.38132e-08
9.80171e-08
4.1433e-08
9.24174e-08
3.92542e-08
8.7124e-08
3.71054e-08
8.21115e-08
3.51383e-08
7.73752e-08
3.32e-08
7.28924e-08
3.14255e-08
6.86584e-08
2.96789e-08
6.4653e-08
2.80793e-08
6.08716e-08
2.65066e-08
5.7296e-08
2.50662e-08
5.3922e-08
2.36511e-08
5.07331e-08
2.23553e-08
4.77255e-08
2.10828e-08
4.48843e-08
1.99186e-08
4.22058e-08
1.8775e-08
3.96768e-08
1.77303e-08
3.72939e-08
1.67032e-08
3.5045e-08
1.57668e-08
3.29272e-08
1.48451e-08
3.09294e-08
1.40064e-08
2.90491e-08
1.31803e-08
2.72762e-08
1.24297e-08
2.56084e-08
1.16902e-08
2.40368e-08
1.10188e-08
2.25592e-08
1.03577e-08
2.11675e-08
9.75748e-09
1.98597e-08
9.16732e-09
1.86287e-08
8.63092e-09
1.74724e-08
8.10498e-09
1.63847e-08
7.62605e-09
1.53636e-08
7.15787e-09
1.44037e-08
6.7304e-09
1.35029e-08
6.31426e-09
1.26567e-08
5.9331e-09
1.1863e-08
5.5637e-09
1.11179e-08
5.22418e-09
1.04193e-08
4.8965e-09
9.76404e-09
4.59453e-09
9.15004e-09
4.30408e-09
8.57442e-09
4.03595e-09
8.03537e-09
3.77863e-09
7.53035e-09
3.54097e-09
7.0577e-09
3.31314e-09
6.61518e-09
3.10283e-09
6.20128e-09
2.9013e-09
5.81401e-09
2.7154e-09
5.45203e-09
2.53739e-09
5.11357e-09
2.37319e-09
4.7974e-09
2.21626e-09
4.50199e-09
2.07127e-09
4.22621e-09
1.93325e-09
3.96872e-09
1.80525e-09
3.72849e-09
1.6841e-09
3.50438e-09
1.57121e-09
3.29541e-09
1.46498e-09
3.10061e-09
1.36564e-09
2.9191e-09
1.2725e-09
2.75002e-09
1.18532e-09
2.59259e-09
1.10367e-09
2.44605e-09
1.02732e-09
2.3097e-09
9.55845e-10
2.18289e-09
8.89037e-10
2.06497e-09
8.26597e-10
1.95539e-09
7.68183e-10
1.85358e-09
7.13765e-10
1.75903e-09
6.6276e-10
1.67125e-09
6.1537e-10
1.58979e-09
5.70952e-10
1.51423e-09
5.29687e-10
1.44417e-09
4.91118e-10
1.37923e-09
4.55239e-10
1.31905e-09
4.21822e-10
1.26332e-09
3.90643e-10
1.21171e-09
3.61748e-10
1.16395e-09
3.34733e-10
1.11975e-09
3.09789e-10
1.07888e-09
2.86431e-10
1.04109e-09
2.6489e-10
1.00616e-09
2.44817e-10
9.73873e-10
2.26221e-10
9.44044e-10
2.09065e-10
9.16494e-10
1.93015e-10
8.91042e-10
1.78398e-10
8.67543e-10
1.64615e-10
8.45829e-10
1.52188e-10
8.2578e-10
1.40435e-10
8.07244e-10
1.29898e-10
7.90118e-10
1.19943e-10
7.74266e-10
1.11059e-10
7.59598e-10
1.02717e-10
7.45993e-10
9.52929e-11
7.3337e-10
8.83942e-11
7.21625e-10
8.22506e-11
7.10676e-10
7.66688e-11
7.00437e-10
7.16909e-11
6.90827e-10
6.73002e-11
6.8177e-10
6.3416e-11
6.73187e-10
6.0108e-11
6.65005e-10
5.72932e-11
6.57151e-10
5.50108e-11
6.49548e-10
5.32528e-11
6.42128e-10
5.19897e-11
6.34806e-10
5.12901e-11
6.27515e-10
5.11038e-11
6.20165e-10
5.15058e-11
6.12678e-10
5.24798e-11
6.04961e-10
5.4084e-11
5.96926e-10
5.6306e-11
5.88476e-10
5.92199e-11
5.79508e-10
6.28418e-11
5.69915e-10
6.72161e-11
5.5959e-10
7.23333e-11
5.48415e-10
7.82852e-11
5.36294e-10
8.48838e-11
5.23098e-10
9.24653e-11
5.08795e-10
1.00089e-10
4.93208e-10
1.09338e-10
4.7659e-10
1.15776e-10
4.5833e-10
1.29485e-10
4.39916e-10
1.24779e-10
4.19444e-10
1.52122e-10
4.00487e-10
1.18824e-10
3.7946e-10
1.67064e-10
3.62744e-10
9.19535e-11
3.445e-10
1.56951e-10
3.34561e-10
3.70551e-11
3.24135e-10
1.04265e-10
3.22844e-10
-2.21213e-11
3.22977e-10
3.52676e-11
3.34043e-10
-1.06713e-10
3.46116e-10
-6.06332e-11
3.6398e-10
-1.42442e-10
3.82236e-10
-1.15676e-10
4.03471e-10
-1.56059e-10
4.24316e-10
-1.42532e-10
4.46048e-10
-1.53978e-10
4.66961e-10
-1.4583e-10
4.87661e-10
-1.46122e-10
5.07324e-10
-1.35504e-10
5.2682e-10
-1.41502e-10
5.45207e-10
-1.19665e-10
5.64253e-10
-1.4729e-10
5.8269e-10
-1.09183e-10
6.03377e-10
-1.7015e-10
6.26675e-10
-1.3032e-10
6.54588e-10
-2.32614e-10
7.15435e-10
-3.90865e-10
7.90218e-10
-5.87878e-10
8.29913e-10
-1.05388e-08
-1.08303e-08
2.17851e-07
1.00074e-07
2.05983e-07
9.50784e-08
1.94731e-07
9.01465e-08
1.84044e-07
8.56124e-08
1.73916e-07
8.11391e-08
1.64301e-07
7.70276e-08
1.55192e-07
7.29728e-08
1.46549e-07
6.92478e-08
1.38363e-07
6.55744e-08
1.30599e-07
6.22026e-08
1.2325e-07
5.88766e-08
1.16282e-07
5.5827e-08
1.09689e-07
5.28185e-08
1.0344e-07
5.00618e-08
9.75307e-08
4.73425e-08
9.19324e-08
4.48525e-08
8.66401e-08
4.23977e-08
8.16289e-08
4.01496e-08
7.68937e-08
3.79352e-08
7.2412e-08
3.59073e-08
6.8179e-08
3.39118e-08
6.41745e-08
3.20838e-08
6.03941e-08
3.02871e-08
5.68194e-08
2.86409e-08
5.34462e-08
2.70243e-08
5.02581e-08
2.55433e-08
4.72512e-08
2.40897e-08
4.44107e-08
2.27592e-08
4.17329e-08
2.14528e-08
3.92045e-08
2.02587e-08
3.68223e-08
1.90855e-08
3.45739e-08
1.80151e-08
3.24566e-08
1.69624e-08
3.04594e-08
1.60037e-08
2.85795e-08
1.50602e-08
2.68071e-08
1.42021e-08
2.51398e-08
1.33575e-08
2.35686e-08
1.259e-08
2.20914e-08
1.18349e-08
2.07001e-08
1.11488e-08
1.93926e-08
1.04748e-08
1.8162e-08
9.86156e-09
1.7006e-08
9.26094e-09
1.59186e-08
8.7134e-09
1.48978e-08
8.17874e-09
1.39381e-08
7.69003e-09
1.30376e-08
7.21479e-09
1.21917e-08
6.77905e-09
1.13982e-08
6.35718e-09
1.06533e-08
5.96904e-09
9.95501e-09
5.59481e-09
9.29992e-09
5.24961e-09
8.68611e-09
4.91789e-09
8.11067e-09
4.61139e-09
7.5718e-09
4.31751e-09
7.06694e-09
4.04583e-09
6.59445e-09
3.78563e-09
6.15208e-09
3.5452e-09
5.73832e-09
3.31505e-09
5.3512e-09
3.10253e-09
4.98934e-09
2.89925e-09
4.65101e-09
2.71153e-09
4.33495e-09
2.53232e-09
4.03966e-09
2.36656e-09
3.76398e-09
2.20893e-09
3.5066e-09
2.06263e-09
3.26647e-09
1.92423e-09
3.04245e-09
1.79523e-09
2.83358e-09
1.67386e-09
2.63887e-09
1.56035e-09
2.45744e-09
1.45393e-09
2.28845e-09
1.35431e-09
2.13109e-09
1.26103e-09
1.98463e-09
1.17379e-09