/*--------------------------------*- C++ -*----------------------------------*\
| =========                 |                                                 |
| \\      /  F ield         | OpenFOAM: The Open Source CFD Toolbox           |
|  \\    /   O peration     | Version:  v1912                                 |
|   \\  /    A nd           | Website:  www.openfoam.com                      |
|    \\/     M anipulation  |                                                 |
\*---------------------------------------------------------------------------*/
FoamFile
{
    version     2.0;
    format      ascii;
    class       volScalarField;
    location    "90";
    object      k;
}
// * * * * * * * * * * * * * * * * * * * * * * * * * * * * * * * * * * * * * //

dimensions      [0 2 -2 0 0 0 0];


internalField   nonuniform List<scalar> 
14268
(
5.75727e-07
5.68392e-07
5.59076e-07
5.51154e-07
5.48127e-07
5.48423e-07
5.50121e-07
5.52515e-07
5.57258e-07
5.64123e-07
5.71656e-07
5.78827e-07
5.84897e-07
5.8952e-07
5.92409e-07
5.9491e-07
6.0322e-07
6.44033e-07
8.79405e-07
2.22845e-06
9.44737e-06
4.5107e-05
0.000202457
0.000769472
0.00227052
0.00420329
0.0054282
0.00591235
0.00591591
0.00531382
0.00361859
0.00187662
0.000763986
0.000235873
5.61708e-05
1.18266e-05
2.69676e-06
9.42713e-07
6.58168e-07
6.99422e-07
1.36475e-06
5.09429e-06
2.44957e-05
0.000116988
0.000507047
0.00187734
0.00562737
0.0133619
0.0229925
0.0305324
0.0359766
0.0396546
0.0418518
0.0426755
0.0426175
0.0417259
0.0400568
0.0385155
0.0372697
0.0363009
0.0356365
0.0354544
0.0363593
0.0384426
0.0417965
0.045451
0.0490056
0.0543638
0.0605308
0.0647093
0.0725001
0.0823525
0.0885241
0.105201
0.138176
0.130297
0.103585
0.0660295
0.0322111
0.0399811
0.078746
0.107046
0.0918588
0.0604772
0.080733
0.133727
0.146952
0.140102
0.123247
0.101904
0.0819255
0.0679119
0.0573207
0.0497522
0.0444275
0.0384058
0.0324938
0.028032
0.0215678
0.0111476
0.0133604
0.0359059
0.0701524
0.0684854
0.0609469
0.0392628
0.0391496
0.112085
0.173053
0.169552
0.113915
0.0595272
0.0600721
0.079966
0.112844
0.102257
0.0644089
0.0377833
0.0526623
0.0721166
0.0795894
0.0873211
0.0902883
0.0773335
0.0414162
0.0310197
0.0421249
0.0401624
0.0254328
0.0184023
0.0223772
0.0351231
0.0535957
0.0549611
2.59652e-07
2.76777e-07
3.17479e-07
3.74734e-07
4.14077e-07
4.20283e-07
3.88345e-07
3.29008e-07
2.88502e-07
2.69103e-07
2.63297e-07
2.65509e-07
2.77193e-07
2.88336e-07
3.11769e-07
3.80808e-07
6.81696e-07
2.14055e-06
9.28928e-06
4.36413e-05
0.000196689
0.000809002
0.00288772
0.00842696
0.01856
0.0274041
0.0328499
0.0350577
0.0352488
0.0331043
0.026553
0.016945
0.0091481
0.00405695
0.00142627
0.000393206
8.67333e-05
1.63598e-05
3.14312e-06
1.62802e-06
4.92008e-06
2.59196e-05
0.000128259
0.000581317
0.00233364
0.00787783
0.0211341
0.0440446
0.0668792
0.0848173
0.0983715
0.108128
0.114348
0.117206
0.11767
0.11644
0.113729
0.111328
0.109602
0.108587
0.108233
0.108973
0.112199
0.117855
0.126258
0.135964
0.145984
0.159037
0.175907
0.190845
0.213397
0.241008
0.261109
0.305424
0.383717
0.369056
0.302322
0.196469
0.104838
0.142357
0.243827
0.333749
0.34374
0.254488
0.312272
0.425704
0.438363
0.410536
0.359268
0.300194
0.249135
0.211427
0.181783
0.159552
0.143193
0.125114
0.107689
0.0938167
0.0740566
0.0415861
0.0498676
0.104903
0.205463
0.223801
0.209232
0.149434
0.151163
0.359615
0.539205
0.510589
0.331405
0.183714
0.193658
0.269381
0.371728
0.343193
0.228105
0.147075
0.189734
0.243879
0.263267
0.27839
0.281274
0.243712
0.139771
0.108578
0.143319
0.142971
0.0968491
0.0650763
0.0751886
0.118261
0.183252
0.204581
7.05059e-07
1.64561e-06
3.45236e-06
5.27731e-06
6.28595e-06
6.42473e-06
5.33747e-06
3.03211e-06
1.49759e-06
6.70085e-07
3.02982e-07
1.74555e-07
1.46931e-07
1.71446e-07
3.628e-07
1.23009e-06
5.05766e-06
2.16278e-05
9.14922e-05
0.000372899
0.00139426
0.00458097
0.0126511
0.0284545
0.0464668
0.0597894
0.0677428
0.0710246
0.0714647
0.0691999
0.0619049
0.0488115
0.03337
0.0200248
0.0101295
0.00412703
0.00129135
0.00030214
5.42603e-05
1.30371e-05
1.53681e-05
7.42865e-05
0.000344278
0.00142287
0.00513078
0.0152513
0.0358584
0.0656525
0.0929964
0.115332
0.132855
0.145777
0.154355
0.158899
0.160283
0.159644
0.157368
0.155312
0.15399
0.153518
0.153866
0.155881
0.160726
0.16858
0.17961
0.19242
0.205801
0.22257
0.244465
0.26512
0.294459
0.330027
0.358993
0.419512
0.517892
0.504307
0.433379
0.30362
0.179703
0.215585
0.333115
0.474255
0.527111
0.449244
0.523481
0.621937
0.615145
0.569645
0.499882
0.422254
0.354522
0.303122
0.262517
0.231696
0.208673
0.184124
0.161462
0.1417
0.114652
0.0714884
0.0780011
0.147795
0.289423
0.302058
0.282851
0.219179
0.234613
0.524858
0.768502
0.716086
0.461129
0.270368
0.289176
0.3941
0.538646
0.50248
0.360601
0.253675
0.2986
0.362399
0.384886
0.400959
0.40848
0.35818
0.216885
0.174462
0.218801
0.22094
0.160934
0.109494
0.111422
0.169643
0.26909
0.304256
1.77698e-05
4.31737e-05
8.31801e-05
0.000113557
0.000128577
0.000129309
0.000104998
5.78174e-05
2.75242e-05
1.13602e-05
4.03769e-06
1.29783e-06
5.77964e-07
6.09553e-07
1.9912e-06
8.19081e-06
3.27033e-05
0.000126099
0.000466866
0.00162577
0.00507231
0.0136233
0.0309817
0.0554298
0.0758358
0.0901427
0.0985278
0.102082
0.102696
0.100991
0.0950016
0.0837442
0.0678888
0.0496795
0.0323407
0.017747
0.0078243
0.00260332
0.000619943
0.000124218
6.57777e-05
0.000190435
0.000821305
0.00304055
0.00959834
0.0246705
0.0509716
0.0834874
0.112418
0.136523
0.15563
0.169752
0.179398
0.184985
0.187336
0.187611
0.186455
0.185349
0.184867
0.185254
0.18671
0.189934
0.196009
0.205171
0.217427
0.231549
0.246413
0.264273
0.287556
0.310767
0.342445
0.380787
0.416647
0.487438
0.596513
0.58955
0.510817
0.361938
0.228503
0.261356
0.377638
0.566714
0.705083
0.632316
0.699809
0.75971
0.722862
0.66172
0.583105
0.49833
0.424272
0.366184
0.31955
0.283522
0.255917
0.22774
0.202344
0.179022
0.147225
0.0963785
0.101979
0.177898
0.357687
0.363251
0.331582
0.263884
0.296207
0.662736
0.95618
0.867891
0.545384
0.329271
0.364066
0.5027
0.672822
0.632675
0.466725
0.341233
0.39084
0.464068
0.488787
0.503077
0.504848
0.442957
0.277828
0.225105
0.276396
0.282314
0.215043
0.141781
0.132811
0.205633
0.326261
0.375668
0.00036224
0.000786645
0.00122986
0.00151556
0.00163163
0.00161652
0.00130524
0.000734763
0.000357844
0.000151715
5.5346e-05
1.75513e-05
6.04509e-06
4.32837e-06
9.65682e-06
3.70347e-05
0.000135184
0.00046625
0.00152169
0.00458464
0.0122103
0.0280869
0.0547177
0.0806466
0.100346
0.113823
0.121726
0.125126
0.125735
0.124358
0.119603
0.110611
0.0973928
0.0813371
0.0633149
0.0432905
0.0248114
0.01118
0.00374773
0.000947768
0.00035748
0.000495369
0.00183954
0.00607328
0.0165695
0.0369648
0.0673796
0.0998282
0.128658
0.153034
0.172572
0.187332
0.197829
0.204483
0.207964
0.209142
0.209085
0.208945
0.209413
0.210819
0.213378
0.217744
0.224924
0.235176
0.248352
0.263379
0.279147
0.297576
0.321638
0.34644
0.379557
0.420555
0.463023
0.546894
0.669798
0.664983
0.584624
0.429287
0.274983
0.294512
0.394856
0.63467
0.872866
0.821572
0.867626
0.881636
0.814581
0.740569
0.654156
0.562616
0.482186
0.418366
0.366888
0.326842
0.295828
0.264806
0.237234
0.211894
0.177111
0.122135
0.124389
0.202059
0.429057
0.429536
0.36905
0.296668
0.354645
0.787545
1.11305
0.983059
0.622232
0.386179
0.431693
0.589738
0.787847
0.741502
0.565419
0.42773
0.477346
0.556649
0.583008
0.592272
0.59399
0.525001
0.338225
0.274094
0.330255
0.343421
0.276533
0.185585
0.158842
0.234094
0.375897
0.436211
0.00418081
0.00703318
0.00918083
0.0104207
0.0108249
0.0106343
0.00887632
0.00548564
0.00291983
0.00134945
0.0005328
0.000179675
5.7623e-05
3.01052e-05
3.81987e-05
0.000122375
0.000412974
0.00128244
0.00371208
0.00982168
0.0230519
0.0472217
0.0766195
0.100284
0.117914
0.130007
0.137197
0.140355
0.140941
0.139762
0.135783
0.128463
0.117803
0.104716
0.089783
0.0726012
0.0512707
0.0295344
0.0132457
0.00462816
0.00178006
0.00155446
0.00382287
0.0112018
0.0266366
0.0520313
0.0839647
0.11471
0.142151
0.165483
0.184395
0.19908
0.209966
0.217309
0.221601
0.223702
0.224778
0.22587
0.227606
0.230253
0.23406
0.239616
0.247779
0.2588
0.272421
0.287682
0.303549
0.32146
0.344683
0.369405
0.402174
0.444349
0.494387
0.593353
0.732323
0.732664
0.640152
0.470201
0.309769
0.309863
0.397956
0.666218
1.02642
1.00797
1.01597
0.97644
0.877257
0.794245
0.704175
0.609594
0.525973
0.458752
0.404232
0.361481
0.327956
0.295403
0.266781
0.240023
0.203352
0.145191
0.145776
0.21891
0.469136
0.513221
0.413819
0.319572
0.404468
0.896557
1.23188
1.05189
0.651226
0.425924
0.488609
0.664563
0.885587
0.840847
0.654842
0.506082
0.556313
0.639428
0.665288
0.669072
0.66713
0.593462
0.391824
0.316672
0.37462
0.396623
0.326212
0.215237
0.174691
0.254811
0.413326
0.487305
0.0211701
0.0282154
0.0329858
0.0354423
0.0361421
0.0355589
0.0316228
0.0227391
0.0138013
0.00734664
0.00335152
0.00129486
0.000443305
0.000188584
0.000159216
0.000331646
0.00101974
0.00288146
0.00746296
0.0176677
0.0373695
0.0666627
0.0929176
0.113412
0.128796
0.139538
0.146059
0.14902
0.149636
0.14873
0.14537
0.139308
0.130796
0.120446
0.108571
0.0947773
0.0776181
0.0552616
0.0318007
0.0149757
0.00714036
0.00547447
0.00814695
0.0194182
0.0404788
0.0691325
0.0994722
0.127999
0.153468
0.175286
0.193305
0.207693
0.218756
0.226624
0.231664
0.234753
0.237007
0.23938
0.242439
0.246388
0.251469
0.258185
0.267273
0.278979
0.292955
0.308301
0.323998
0.341148
0.363257
0.387492
0.419887
0.464498
0.524994
0.644628
0.805356
0.808397
0.708461
0.522752
0.341027
0.322493
0.413802
0.668163
1.17655
1.20286
1.1637
1.06757
0.9355
0.84603
0.752627
0.6536
0.565714
0.49492
0.437568
0.392531
0.357075
0.323242
0.293778
0.266291
0.228454
0.167378
0.16711
0.23832
0.476398
0.595248
0.480989
0.352759
0.459541
1.00163
1.33009
1.10197
0.6717
0.468222
0.541207
0.724935
0.972471
0.929717
0.742334
0.585234
0.634463
0.720687
0.745767
0.743175
0.740436
0.662784
0.447598
0.360584
0.418346
0.448815
0.380273
0.257404
0.197446
0.272718
0.44839
0.533717
0.047586
0.0552304
0.060054
0.0624705
0.0631796
0.0627788
0.0596389
0.0517547
0.0385607
0.0244533
0.0133254
0.00622138
0.00253692
0.00109193
0.00074524
0.000912576
0.00220378
0.00565846
0.0132853
0.0284266
0.0539876
0.081134
0.103115
0.12057
0.134051
0.143718
0.149707
0.152481
0.153104
0.15231
0.149404
0.14459
0.138159
0.130503
0.121535
0.110854
0.0973498
0.0796029
0.056156
0.0345325
0.021175
0.0169702
0.0188439
0.0323184
0.0574135
0.0854576
0.11281
0.138779
0.162006
0.18206
0.198875
0.212561
0.223372
0.231435
0.237111
0.241107
0.244499
0.248195
0.252649
0.257971
0.264342
0.272174
0.282071
0.294273
0.308354
0.323404
0.338485
0.354307
0.374435
0.3973
0.428789
0.475978
0.550219
0.695268
0.879517
0.888738
0.782316
0.576082
0.374268
0.357886
0.448257
0.61819
1.30799
1.40047
1.30135
1.14202
0.977903
0.886216
0.790791
0.687922
0.59694
0.523758
0.464619
0.418078
0.381305
0.346935
0.317257
0.289362
0.251259
0.188801
0.187879
0.255956
0.469488
0.647061
0.531323
0.386421
0.51516
1.09224
1.38937
1.10772
0.650334
0.500252
0.583006
0.768327
1.04305
1.01316
0.823838
0.659588
0.707388
0.794566
0.818023
0.811356
0.807531
0.726354
0.497829
0.398222
0.455894
0.496591
0.431347
0.294634
0.207428
0.285087
0.475985
0.575995
0.0664087
0.0728181
0.0770782
0.0794325
0.0802863
0.080265
0.0786218
0.07369
0.0645457
0.051079
0.0345679
0.0201943
0.0104142
0.00537114
0.00356
0.00335508
0.00497255
0.0105471
0.0222852
0.0425864
0.0681369
0.0900366
0.108146
0.123231
0.13547
0.144511
0.15013
0.152686
0.153174
0.151968
0.149
0.145278
0.140877
0.135894
0.13002
0.122471
0.112289
0.0984927
0.0790323
0.0585891
0.0444432
0.0388056
0.0394124
0.050701
0.0739148
0.0989391
0.123302
0.146961
0.168282
0.186806
0.202445
0.215302
0.225703
0.233721
0.239708
0.244492
0.249019
0.254143
0.260097
0.266839
0.274506
0.283424
0.294084
0.306718
0.320835
0.335455
0.349752
0.36412
0.382076
0.403525
0.434687
0.486811
0.580825
0.757723
0.968715
0.984786
0.877681
0.643253
0.42265
0.518184
0.495632
0.51335
1.40733
1.60135
1.4423
1.21794
1.02015
0.92724
0.830426
0.721569
0.626339
0.550407
0.489476
0.441654
0.4039
0.369124
0.339318
0.311386
0.273354
0.21031
0.209579
0.276051
0.470257
0.721574
0.593168
0.42347
0.573996
1.17671
1.44411
1.07611
0.617074
0.541695
0.621602
0.797369
1.10124
1.09196
0.905504
0.734634
0.780911
0.868025
0.890684
0.88536
0.882959
0.795021
0.552634
0.438606
0.493219
0.543709
0.48308
0.335521
0.225425
0.296671
0.502732
0.614795
0.0772587
0.0829934
0.0871477
0.0897493
0.0909658
0.0912172
0.09052
0.0877212
0.0818667
0.0726528
0.0599743
0.0442393
0.0300594
0.0201001
0.0150648
0.0136895
0.0146393
0.0212068
0.0363556
0.0578531
0.0774724
0.0945806
0.109808
0.123391
0.134745
0.143141
0.148321
0.150379
0.150356
0.14747
0.143792
0.141199
0.13923
0.137385
0.134542
0.130257
0.123385
0.113256
0.0978516
0.0800721
0.067407
0.0620916
0.0620913
0.0697248
0.0875353
0.109344
0.130991
0.152599
0.172108
0.189038
0.203359
0.215151
0.224582
0.232091
0.238254
0.243772
0.249488
0.25612
0.263629
0.271795
0.280692
0.29059
0.301906
0.314847
0.328836
0.342831
0.356076
0.368783
0.384359
0.404396
0.435903
0.495211
0.613381
0.826527
1.06023
1.0898
0.978732
0.723558
0.502644
0.816247
0.553075
0.411733
1.43615
1.80008
1.58339
1.31758
1.10892
0.963584
0.864658
0.748646
0.649659
0.571778
0.509785
0.461225
0.422941
0.388214
0.358639
0.3309
0.293355
0.231162
0.230266
0.294743
0.47685
0.822529
0.65618
0.453455
0.632215
1.24529
1.51765
1.10787
0.570025
0.584906
0.653238
0.806567
1.141
1.16693
0.98251
0.806711
0.850363
0.93577
0.960091
0.957493
0.95388
0.865574
0.603092
0.474706
0.526688
0.587259
0.532032
0.375714
0.234016
0.30346
0.524122
0.650507
0.0838644
0.0890227
0.0930689
0.0959538
0.0976522
0.0982839
0.0982341
0.0968832
0.0933508
0.0872856
0.0786159
0.0671557
0.0557033
0.0468716
0.0415124
0.0395748
0.0397983
0.0439872
0.0547877
0.0695458
0.0834233
0.0968076
0.109879
0.122138
0.132477
0.140121
0.144776
0.146488
0.145459
0.139147
0.133371
0.131725
0.132908
0.134963
0.135667
0.134652
0.131055
0.124373
0.112983
0.0981938
0.0868667
0.0815588
0.0810521
0.0859619
0.0990812
0.117411
0.136739
0.156347
0.17414
0.189675
0.202679
0.213087
0.221282
0.227924
0.233797
0.239803
0.246882
0.255296
0.264504
0.274112
0.284214
0.29508
0.307015
0.320215
0.333962
0.347257
0.3594
0.370544
0.383992
0.40295
0.436226
0.507205
0.65705
0.909627
1.16397
1.20963
1.09977
0.833579
0.636973
1.1012
0.639699
0.803791
1.62912
1.99683
1.74818
1.56041
1.35095
1.02105
0.901071
0.775229
0.67171
0.591643
0.528575
0.479436
0.44082
0.406252
0.37698
0.349607
0.312917
0.251843
0.251432
0.314147
0.487351
0.911706
0.763318
0.496168
0.691398
1.32239
1.68437
1.55561
0.638418
0.646605
0.689426
0.799289
1.16455
1.24076
1.0596
0.878999
0.919958
1.00378
1.03341
1.02212
1.0142
0.931234
0.65753
0.511941
0.559234
0.629841
0.58168
0.417177
0.248827
0.31101
0.545187
0.684823
0.0871123
0.091644
0.0955027
0.0985413
0.100655
0.101851
0.102246
0.101957
0.100241
0.0966868
0.0911345
0.0833978
0.0751217
0.0687534
0.0649761
0.0636098
0.0636445
0.065564
0.0704358
0.078364
0.0879142
0.0980982
0.109254
0.120011
0.128971
0.135619
0.139879
0.141736
0.140996
0.13288
0.12302
0.119234
0.121926
0.129159
0.133905
0.135911
0.135684
0.132207
0.124477
0.112951
0.103321
0.0982716
0.0972907
0.100172
0.10954
0.124256
0.141096
0.158462
0.174427
0.188262
0.19953
0.20818
0.214585
0.219793
0.224874
0.231364
0.24006
0.250604
0.26171
0.272871
0.284182
0.295892
0.308313
0.32162
0.335019
0.347581
0.358581
0.368145
0.379642
0.398277
0.435708
0.523394
0.707764
0.998598
1.26905
1.33874
1.2406
1.01399
0.940942
1.22665
0.95195
1.95873
2.53696
2.2456
1.95252
1.91951
1.67218
1.16603
0.933653
0.796357
0.688796
0.60738
0.54383
0.494502
0.455885
0.421734
0.39299
0.36617
0.330585
0.271819
0.271351
0.332259
0.497457
0.945727
1.02051
0.604152
0.770549
1.43556
1.98468
2.5138
0.806051
0.726255
0.734132
0.768713
1.1677
1.30982
1.13323
0.949598
0.98628
1.06724
1.09747
1.0717
1.06147
0.985395
0.710941
0.548426
0.589171
0.669431
0.629314
0.457683
0.260874
0.313717
0.561911
0.716315
0.0875624
0.0914583
0.0950088
0.098092
0.100549
0.102208
0.103091
0.103325
0.102844
0.101049
0.0979481
0.0933648
0.0880396
0.0836798
0.0808022
0.0794435
0.0791624
0.0796641
0.0816355
0.0856094
0.0913553
0.0987093
0.107853
0.11672
0.123948
0.129311
0.133244
0.136219
0.138094
0.136063
0.124834
0.115972
0.11222
0.119563
0.128799
0.134953
0.137221
0.136753
0.132351
0.12398
0.116344
0.111949
0.11078
0.11228
0.118671
0.13005
0.144162
0.15917
0.17313
0.185058
0.194502
0.201196
0.205448
0.20849
0.212214
0.218943
0.229565
0.242655
0.255905
0.268794
0.281407
0.294007
0.306906
0.320232
0.333186
0.344892
0.354723
0.362898
0.373114
0.392764
0.437668
0.549023
0.770086
1.09502
1.38066
1.48096
1.41361
1.36521
1.44854
1.27464
1.86763
3.03219
3.54881
2.58233
2.26718
2.27052
1.96101
1.43253
0.976993
0.816777
0.704365
0.621686
0.557746
0.508389
0.469902
0.436286
0.408139
0.381936
0.347764
0.291268
0.291271
0.350034
0.507051
0.943423
1.42156
0.922016
0.941116
1.64419
2.55238
3.6988
1.1301
0.832843
0.801807
0.720477
1.15444
1.3783
1.20669
1.02015
1.05261
1.13048
1.15868
1.13112
1.11395
1.03969
0.764842
0.586357
0.618174
0.7079
0.67732
0.499421
0.27744
0.318238
0.578091
0.74734
0.0836337
0.0865848
0.0897037
0.0927668
0.0956205
0.0980017
0.0997122
0.100694
0.101037
0.100803
0.0993247
0.0967522
0.093624
0.0910374
0.0892395
0.088125
0.0875946
0.0874596
0.0878338
0.0893909
0.0926934
0.097835
0.104653
0.111389
0.116778
0.120747
0.124019
0.127841
0.135603
0.145643
0.148176
0.135004
0.118069
0.11157
0.120059
0.13083
0.136505
0.137916
0.136217
0.130914
0.125291
0.12189
0.120808
0.121429
0.125609
0.134138
0.145532
0.158162
0.16973
0.179606
0.187255
0.191895
0.19351
0.193284
0.194771
0.201272
0.214319
0.230537
0.246252
0.26108
0.275055
0.288495
0.301765
0.314968
0.327391
0.338205
0.346967
0.354156
0.364125
0.386975
0.443672
0.585143
0.838733
1.19022
1.48924
1.62548
1.61012
1.77743
1.98078
1.37792
3.24158
3.63945
3.78452
2.93592
2.6545
2.53492
2.21835
1.71316
1.04249
0.830941
0.715242
0.632427
0.568697
0.519607
0.481504
0.448569
0.421181
0.395754
0.363107
0.309939
0.309786
0.366465
0.515678
0.924502
1.64222
1.38236
1.20035
1.90703
3.34617
4.6654
1.86926
0.976357
0.888113
0.672278
1.13185
1.44265
1.27805
1.08949
1.11598
1.18996
1.22514
1.21388
1.17967
1.09515
0.816287
0.624161
0.644571
0.743574
0.723958
0.540206
0.292162
0.31794
0.592198
0.778417
0.0749943
0.0772385
0.0798672
0.0827618
0.0858681
0.0886979
0.0910083
0.0927412
0.0938767
0.0944163
0.0944533
0.0937935
0.0924758
0.0910866
0.0900139
0.0892605
0.0887429
0.0884276
0.0883478
0.0889111
0.0906486
0.0939728
0.0991073
0.104364
0.108453
0.111348
0.113754
0.117249
0.126123
0.144548
0.157803
0.156975
0.138061
0.119885
0.114579
0.125057
0.133447
0.136217
0.136291
0.133294
0.12937
0.126934
0.126087
0.126405
0.129282
0.135751
0.145057
0.155185
0.164464
0.17241
0.178658
0.18221
0.181897
0.176568
0.174063
0.179011
0.195012
0.214903
0.233448
0.250486
0.265928
0.280169
0.293687
0.306664
0.318448
0.328294
0.33611
0.342706
0.353785
0.382742
0.456883
0.631558
0.917023
1.29137
1.60458
1.78603
1.84662
2.0887
2.3695
1.83798
4.69126
4.82532
3.85068
3.26687
2.95459
2.6462
2.37651
1.95675
1.17397
0.848268
0.726516
0.643949
0.581013
0.53272
0.495481
0.463885
0.437862
0.413751
0.383797
0.335855
0.336389
0.38985
0.527737
0.892524
1.65341
1.79033
1.6253
2.47411
4.53513
5.75617
3.49924
1.35477
1.09975
0.671243
1.12709
1.59207
1.43725
1.24942
1.27095
1.34428
1.42915
1.48411
1.39962
1.28243
0.98554
0.757674
0.740759
0.891494
0.942642
0.753257
0.388919
0.338171
0.695845
1.06223
0.0657568
0.0674008
0.0695745
0.0720756
0.0751866
0.0782321
0.0808592
0.0830219
0.0847047
0.0858981
0.0866227
0.0869063
0.0868718
0.086481
0.0861749
0.0858773
0.0855639
0.0852355
0.085032
0.0850751
0.0859933
0.0884106
0.0925462
0.0967352
0.0998871
0.102
0.103667
0.106525
0.114701
0.133213
0.152657
0.162145
0.15482
0.136741
0.123563
0.122288
0.129719
0.132766
0.133734
0.132701
0.13012
0.128407
0.127791
0.12801
0.130255
0.135402
0.142777
0.150678
0.157842
0.163901
0.168894
0.172384
0.17283
0.164604
0.157623
0.157703
0.171897
0.195438
0.217241
0.236752
0.253724
0.268635
0.282208
0.294751
0.305717
0.314496
0.321508
0.328048
0.342102
0.380932
0.477664
0.683692
0.996147
1.38938
1.71431
1.94509
2.11932
2.37525
2.67366
3.5811
5.99605
6.411
4.23849
3.44063
2.98109
2.56176
2.30093
1.99236
1.33821
0.86985
0.730063
0.650308
0.589769
0.54301
0.507236
0.477547
0.45346
0.431281
0.405096
0.365774
0.366447
0.413661
0.537889
0.859349
1.46881
1.67087
2.18316
3.3786
4.7961
5.3779
3.57295
2.09857
1.88151
1.45057
1.4743
1.85336
1.68496
1.4875
1.49083
1.59064
1.79396
1.8433
1.71957
1.61481
1.29112
0.992628
0.840673
1.0968
1.34167
1.09825
0.614229
0.305728
0.746777
1.35013
0.0518392
0.0526848
0.0541813
0.0560518
0.0587155
0.0619251
0.0648469
0.0674929
0.0697827
0.0716464
0.0730901
0.0741949
0.0749964
0.0755437
0.0759589
0.0762646
0.0764221
0.0764321
0.0764019
0.0765568
0.0772849
0.0793277
0.0828631
0.0862133
0.0886047
0.0900523
0.0910588
0.0932135
0.100505
0.117722
0.138535
0.153037
0.158285
0.1507
0.137592
0.126612
0.12468
0.126857
0.12853
0.128927
0.127817
0.126918
0.126594
0.126841
0.128546
0.132384
0.138004
0.143834
0.14896
0.153202
0.156919
0.160821
0.164643
0.163544
0.154443
0.148913
0.150677
0.1711
0.19655
0.219506
0.238322
0.25393
0.267429
0.279424
0.289482
0.297246
0.303752
0.311125
0.330192
0.381592
0.503166
0.736427
1.06864
1.47
1.80564
2.09098
2.38909
2.69805
3.14797
6.03423
7.1557
7.0664
4.50276
3.4821
2.90161
2.45142
2.16257
1.86603
1.44661
0.920321
0.730042
0.652176
0.59441
0.549517
0.515371
0.487798
0.465526
0.445233
0.422602
0.391129
0.392576
0.431956
0.544992
0.853305
1.37208
1.74761
2.8601
3.86185
4.5302
4.72498
3.81263
4.04439
3.98613
3.34245
2.02999
2.11472
1.93606
1.71567
1.68834
1.80291
2.07987
2.0876
1.82159
1.83836
1.62745
1.20307
1.06854
1.95744
2.14349
1.54074
0.81705
0.748525
1.5519
1.90633
0.0308239
0.0310686
0.0318124
0.032599
0.033649
0.035796
0.0391279
0.0427386
0.0462769
0.0493516
0.0517009
0.0533375
0.0545507
0.0556087
0.0566467
0.0576614
0.058577
0.0593808
0.0601784
0.0611884
0.0626696
0.0651533
0.0685966
0.0714985
0.073413
0.0744065
0.0749195
0.0763844
0.0827302
0.0983311
0.11907
0.134575
0.143373
0.14505
0.136919
0.124993
0.118251
0.117934
0.120155
0.121424
0.121532
0.121296
0.121248
0.121668
0.123155
0.126041
0.130112
0.134052
0.137359
0.139994
0.142411
0.145824
0.153851
0.164644
0.164295
0.153145
0.144407
0.148089
0.171385
0.198221
0.219195
0.235491
0.248805
0.260151
0.269287
0.276225
0.282567
0.291701
0.317905
0.382782
0.524217
0.776701
1.12296
1.52157
1.87002
2.21275
2.636
3.06829
3.81607
6.88655
7.42051
6.86234
4.53346
3.46534
2.79476
2.32586
2.01964
1.73291
1.44676
0.979329
0.72646
0.645417
0.592144
0.549806
0.517512
0.492073
0.471688
0.453138
0.434045
0.409962
0.412544
0.443986
0.548195
0.866465
1.46947
2.25923
3.47643
3.88698
4.15673
4.38985
5.5189
6.671
6.43181
5.54587
2.73711
2.31542
2.18728
1.9242
1.85093
1.95372
2.22229
2.17567
1.77195
2.0162
1.99498
1.46617
1.91724
5.06814
3.96852
2.11185
1.17814
1.60739
3.46464
2.89418
0.0198986
0.019626
0.0195176
0.0196996
0.0203348
0.0215556
0.0229991
0.0244566
0.0260758
0.0277278
0.0291516
0.0302361
0.0310452
0.0317413
0.0324296
0.0331662
0.0338793
0.034551
0.0352558
0.0361844
0.0392111
0.0430911
0.0473303
0.0507926
0.0530156
0.0539487
0.0542561
0.0550889
0.059935
0.073337
0.093607
0.108523
0.116759
0.11899
0.115206
0.108015
0.10467
0.104564
0.10755
0.109595
0.110497
0.110844
0.111077
0.111618
0.112992
0.115158
0.117867
0.120266
0.122091
0.123415
0.124709
0.127512
0.135912
0.153964
0.165584
0.160466
0.147573
0.140774
0.149159
0.174523
0.196285
0.213103
0.226068
0.23672
0.244991
0.25137
0.258039
0.269778
0.303669
0.3793
0.53175
0.795912
1.1491
1.53899
1.89858
2.29876
2.84205
3.44546
4.41807
6.53193
6.83414
6.25641
4.42131
3.39932
2.67616
2.19433
1.88211
1.60434
1.35218
1.02451
0.736535
0.634149
0.585053
0.545739
0.515712
0.492647
0.473951
0.456979
0.440725
0.423314
0.426925
0.451376
0.54952
0.878846
1.60376
2.73681
3.66514
3.66525
3.85097
4.43693
7.36644
8.63776
8.17995
7.38868
4.44707
2.86736
2.46434
2.11261
1.98889
2.08769
2.32834
2.20674
1.91511
3.11234
2.77983
2.12144
4.5485
9.5355
7.02179
3.08528
1.81655
2.97463
4.64527
3.38362
0.00859786
0.0077923
0.00732471
0.00712253
0.00717447
0.00769616
0.0085478
0.00968351
0.0112866
0.0129632
0.0143972
0.0156185
0.0167685
0.0179167
0.0189473
0.0199477
0.0209403
0.0219191
0.0229251
0.024031
0.0252962
0.0268716
0.0287759
0.0305186
0.0318775
0.0326748
0.0330575
0.0334204
0.0351952
0.0403298
0.0577496
0.0727311
0.0813648
0.0838254
0.0831114
0.0806625
0.0801361
0.0825521
0.08734
0.0909324
0.0927716
0.0935268
0.0939396
0.0946237
0.0960644
0.0978011
0.0994988
0.100761
0.101521
0.101895
0.102398
0.104572
0.111548
0.128753
0.146026
0.15305
0.148464
0.142916
0.140922
0.150723
0.169529
0.185865
0.198329
0.208358
0.216005
0.222121
0.229601
0.244468
0.284576
0.364823
0.520725
0.788147
1.13346
1.51204
1.87869
2.3202
2.97402
3.72695
4.72385
5.95609
6.03254
5.62381
4.24462
3.28529
2.53848
2.05202
1.74252
1.4781
1.25033
1.03834
0.761553
0.620604
0.569775
0.534499
0.507357
0.487001
0.470277
0.454805
0.441796
0.429759
0.434838
0.454068
0.547032
0.878584
1.60636
2.78113
3.44153
3.34743
3.57196
4.45836
7.43274
9.90391
9.7299
8.9802
6.93259
3.99051
2.80821
2.32307
2.14031
2.20362
2.40591
2.346
3.8993
6.79673
5.10436
3.65758
7.44335
11.8896
11.084
5.58747
3.73272
4.90638
4.79814
3.28775
0.00202875
0.00112544
0.000832312
0.000676759
0.000650943
0.000689289
0.000844657
0.00108179
0.00177891
0.00262444
0.00332655
0.00408905
0.00504254
0.00611458
0.00697779
0.00774063
0.00848834
0.00930325
0.010238
0.0112144
0.0121387
0.0130044
0.0139448
0.0150091
0.0161555
0.0170841
0.0177676
0.0184191
0.02
0.0241695
0.0316812
0.0376209
0.0415714
0.0440851
0.045771
0.0470885
0.0484241
0.0501013
0.0533872
0.0604189
0.0643705
0.0662316
0.0672503
0.0682835
0.0697273
0.0710518
0.0720267
0.0724942
0.07269
0.0726327
0.0729932
0.0750748
0.0806486
0.093044
0.108898
0.120001
0.125663
0.126883
0.126598
0.125965
0.13751
0.151956
0.163962
0.173791
0.181247
0.187538
0.196309
0.214131
0.256815
0.33399
0.482098
0.739075
1.06364
1.42836
1.79134
2.25798
3.00005
3.84624
4.76683
5.46613
5.38027
5.12708
4.08591
3.14829
2.3922
1.90092
1.59636
1.34974
1.14766
0.996309
0.786194
0.619283
0.550612
0.517665
0.493898
0.476681
0.461894
0.447967
0.437573
0.430397
0.435558
0.450972
0.545768
0.872849
1.55947
2.61089
3.1082
3.03404
3.33441
4.38907
7.11444
9.99806
11.0942
10.3917
8.9168
5.30929
3.28772
2.55936
2.26304
2.2794
2.50885
3.30408
7.59193
9.58647
9.91443
7.77118
8.86665
11.2577
14.2654
10.6475
8.52415
7.42185
5.01349
3.23515
0.0245799
0.0150894
0.0075638
0.00546021
0.00553644
0.0075609
0.00911854
0.00819009
0.00472854
0.00266295
0.00192023
0.00149806
0.00122407
0.00104895
0.00110256
0.00130507
0.0015387
0.00189719
0.00271556
0.00359769
0.00435714
0.00484881
0.00508621
0.00500165
0.00537234
0.00600737
0.00650271
0.00681494
0.00727755
0.00882725
0.0122847
0.0162697
0.0197429
0.0228564
0.0255769
0.0279213
0.030022
0.0324049
0.0349165
0.0368635
0.0382349
0.0393674
0.0404414
0.0416826
0.0429281
0.0440798
0.0449924
0.0455572
0.0458181
0.0457438
0.0453437
0.0455517
0.0472538
0.0514197
0.0575035
0.0626545
0.0662052
0.0750185
0.0805874
0.0849651
0.0912261
0.102682
0.114848
0.126448
0.135742
0.143797
0.154625
0.173957
0.213047
0.278486
0.406746
0.632663
0.914698
1.25499
1.6059
2.07406
2.88531
3.79011
4.62662
5.06564
4.91214
4.71913
3.93484
2.98282
2.22463
1.72836
1.43327
1.21074
1.0378
0.915194
0.784893
0.627043
0.532547
0.492306
0.471735
0.458462
0.44591
0.433497
0.42619
0.421342
0.4272
0.442752
0.538483
0.87098
1.52023
2.42141
2.79612
2.71699
3.0709
4.24219
6.64435
9.28912
10.9696
10.8102
9.45372
6.03129
3.70217
2.71218
2.30202
2.31001
2.75027
4.6989
8.63384
8.73695
12.652
14.3254
11.4353
10.6181
13.7918
14.9257
13.6839
8.99846
5.09408
3.21074
0.397801
0.298935
0.148974
0.0875645
0.076272
0.090671
0.118366
0.143816
0.140159
0.128454
0.125561
0.129496
0.133187
0.137243
0.142111
0.139162
0.124013
0.106995
0.0879006
0.065134
0.0416981
0.0227437
0.0105941
0.00440776
0.00200314
0.00120296
0.000847169
0.000570401
0.000405156
0.000395194
0.000693384
0.00137698
0.00266204
0.00551118
0.00852371
0.010987
0.0128194
0.0143378
0.015732
0.0169198
0.0179407
0.0191946
0.020208
0.0209575
0.0214483
0.0216701
0.0218314
0.0218447
0.0215786
0.021334
0.0210541
0.0211837
0.0222352
0.0250936
0.0295119
0.0335012
0.037178
0.0415244
0.0468776
0.0520569
0.0567927
0.0620573
0.0689191
0.078229
0.0867319
0.0950985
0.10511
0.120078
0.147464
0.192807
0.286254
0.435065
0.609543
0.912135
1.23061
1.68632
2.52226
3.49732
4.30145
4.68816
4.57752
4.45154
3.77443
2.80349
2.03229
1.52676
1.24373
1.05322
0.913724
0.818904
0.733093
0.621148
0.521783
0.466779
0.442069
0.431392
0.42108
0.410573
0.405432
0.402462
0.407748
0.426085
0.53025
0.88238
1.49841
2.28052
2.51047
2.40195
2.80781
4.04716
6.13986
8.30081
9.9456
10.1238
8.82577
5.97218
3.83216
2.72081
2.25384
2.29112
2.92127
4.97872
7.784
8.07937
11.6846
16.0105
13.482
10.5142
12.5104
14.4907
13.9649
9.07017
5.16984
3.26422
1.03133
0.733938
0.424775
0.221247
0.152335
0.160321
0.197329
0.225065
0.229548
0.239999
0.256777
0.269422
0.27768
0.290633
0.315286
0.352454
0.386339
0.409163
0.420177
0.414442
0.377844
0.312521
0.238317
0.149745
0.0699134
0.0276313
0.0105589
0.00372965
0.00146966
0.000587917
0.000327549
0.00015416
2.83214e-05
5.41325e-05
0.000223039
0.000448724
0.000617211
0.000645378
0.000761085
0.00101334
0.00185673
0.00324523
0.00423449
0.00462147
0.0045563
0.00409194
0.00405317
0.0041409
0.0041106
0.00416185
0.00418557
0.00440441
0.00488119
0.00614481
0.00860327
0.0106539
0.0122135
0.0142201
0.0169543
0.0194728
0.0210451
0.0226387
0.0265815
0.0340374
0.041961
0.0502043
0.0590457
0.0684634
0.0858662
0.118578
0.18628
0.263895
0.330032
0.464984
0.663438
0.991193
1.80788
2.95042
3.82879
4.28569
4.31837
4.30622
3.59757
2.60977
1.82846
1.31018
1.03381
0.883442
0.782598
0.713114
0.648526
0.573249
0.495548
0.439509
0.408313
0.395159
0.385889
0.377368
0.374669
0.37314
0.379209
0.402033