/*--------------------------------*- C++ -*----------------------------------*\
| =========                 |                                                 |
| \\      /  F ield         | OpenFOAM: The Open Source CFD Toolbox           |
|  \\    /   O peration     | Version:  v1912                                 |
|   \\  /    A nd           | Website:  www.openfoam.com                      |
|    \\/     M anipulation  |                                                 |
\*---------------------------------------------------------------------------*/
FoamFile
{
    version     2.0;
    format      ascii;
    class       volScalarField;
    location    "10";
    object      omega;
}
// * * * * * * * * * * * * * * * * * * * * * * * * * * * * * * * * * * * * * //

dimensions      [0 0 -1 0 0 0 0];


internalField   nonuniform List<scalar> 
14268
(
3.02667
3.02632
3.02573
3.02507
3.02479
3.02438
3.02428
3.02498
3.02575
3.02645
3.02589
3.02537
3.02572
3.02679
3.0267
3.02562
3.02533
3.02747
3.03086
3.03011
3.02809
3.02746
3.02704
3.02593
3.02405
3.02267
3.02232
3.02309
3.02551
3.06477
3.48652
5.86917
12.5515
24.6653
41.4278
53.8288
61.8177
67.1629
69.9489
74.4751
80.1908
84.2927
80.58
74.046
70.5526
74.8866
79.1104
76.3506
72.4874
72.2456
86.295
96.8433
98.8472
92.9093
86.2151
87.5943
105.162
119.18
120.939
119.046
124.131
136.657
146.151
150.928
151.274
159.414
156.788
131.007
122.074
140.449
151.502
142.748
135.192
132.298
134.753
140.578
148.473
156.276
161.553
163.87
165.032
164.295
158.648
146.559
138.856
139.716
144.258
153.843
168.538
195.367
213.981
205.149
193.972
189.993
181.546
199.884
239.569
298.869
347.873
353.219
342.389
318.879
227.655
200.191
0.977838
0.986375
1.02412
1.07531
1.10769
1.15247
1.13783
1.10357
1.06223
1.02998
1.03275
1.04067
1.01793
0.98779
1.03356
1.17599
1.17593
1.11937
1.05
1.02712
1.14084
1.17015
1.23608
1.4484
1.83415
2.29981
2.42911
2.40069
2.07372
1.85178
1.99553
3.36959
8.486
17.3418
22.3076
23.6867
24.4582
24.9602
26.5637
28.667
29.6281
29.1774
28.4522
27.4038
28.0607
27.5413
27.6032
27.2113
26.9682
28.4211
31.5871
34.7238
35.6967
33.8209
31.863
32.0246
37.2318
42.6058
44.0141
43.7725
45.1305
49.2084
52.462
54.1636
54.668
57.5843
62.8371
66.6866
82.3372
92.865
126.789
163.857
159.285
158.771
168.936
184.221
198.555
207.827
214.16
213.808
211.051
210
206.35
199.187
185.707
181.362
186.408
190.311
186.738
181.461
162.145
132.915
148.855
191.214
207.781
196.156
172.854
119.788
108.159
101.329
92.0569
90.8332
103.042
111.108
0.845764
0.846327
0.849491
0.856
0.862621
0.875664
0.875726
0.870322
0.862296
0.859094
0.856935
0.854757
0.854357
0.85576
0.865393
0.8966
0.897632
0.888739
0.886846
0.878353
0.892095
0.893888
0.909864
0.987495
1.19524
1.63377
1.91868
1.9445
1.57678
1.30453
1.35147
2.31822
6.38717
13.1794
16.2696
16.6868
16.7891
16.9969
18.1863
19.3247
19.699
19.0936
18.7255
18.4309
18.8538
18.4687
18.3835
18.3284
18.3161
19.3705
21.4624
23.7495
24.4891
23.1333
21.6416
21.6354
25.4048
29.4509
30.5335
30.1643
30.841
33.6057
36.0304
37.464
37.6565
39.1811
42.9845
46.3874
52.3562
69.6362
134.64
164.718
158.099
155.633
160.559
169.405
177.182
177.913
178.275
170.389
151.002
137.337
128.867
125.291
127.409
135.356
152.45
171.552
175.133
165.432
137.98
118.516
117.534
114.49
111.345
114.241
96.0005
70.2352
66.7338
63.6387
58.6171
56.723
59.5046
70.5334
0.8359
0.836068
0.836887
0.839305
0.842384
0.847668
0.845961
0.843194
0.840306
0.840116
0.838918
0.83709
0.837832
0.841974
0.851348
0.863358
0.860768
0.860644
0.867378
0.861601
0.864981
0.863137
0.871532
0.901391
1.00125
1.30996
1.61283
1.69362
1.37586
1.13397
1.15816
1.91541
5.31723
11.1616
13.8323
14.1197
14.0822
14.1869
15.0503
15.7901
15.9784
15.5652
15.2739
15.0676
15.3271
15.1374
15.2529
15.2518
15.226
15.9826
17.9635
20.1596
20.8321
19.4606
17.9815
17.9506
21.6995
25.4286
26.2523
25.6555
26.0717
28.5582
30.9503
32.5091
32.5396
32.9088
35.9857
40.5307
44.8884
66.4874
129.087
114.901
103.329
98.136
97.1669
98.0676
98.7318
93.8632
87.6071
80.0118
70.3183
68.4673
69.0227
69.9561
76.2478
84.0354
92.9182
109.149
129.724
138.655
135.305
103.176
77.8514
69.2927
70.0206
75.664
68.7674
57.8434
54.4862
52.3314
49.5225
47.2293
46.9186
53.672
0.835476
0.836002
0.836377
0.837877
0.840261
0.843968
0.843509
0.841225
0.839203
0.839422
0.837136
0.835987
0.838814
0.845026
0.855059
0.858208
0.854659
0.857766
0.866756
0.861754
0.861792
0.859492
0.866022
0.887691
0.943811
1.14797
1.41941
1.52198
1.25659
1.06221
1.0868
1.73068
4.71034
10.0729
12.5685
12.8364
12.7793
12.8758
13.544
14.1374
14.2751
14.0356
13.7182
13.5225
13.7087
13.6927
14.0392
14.0807
13.9212
14.4815
16.6148
19.0528
19.7084
18.1752
16.5976
16.5367
20.8254
24.649
25.1072
24.1982
24.5941
27.2286
29.9635
31.875
31.76
30.7606
32.7751
39.5803
46.9053
79.5514
93.8918
82.8173
77.2124
74.463
74.7003
74.1551
71.2406
64.0472
57.486
54.0849
52.6574
53.595
55.3864
56.6763
59.102
64.1432
69.8925
79.8253
98.6344
118.48
118.435
74.1799
60.9691
57.8886
57.3501
60.4684
58.3965
52.173
48.5089
46.3647
44.5153
42.5163
42.7493
47.1542
0.83595
0.835957
0.836422
0.838323
0.841643
0.844885
0.843508
0.841171
0.838652
0.838644
0.837234
0.835367
0.836927
0.842651
0.853082
0.857059
0.855346
0.858809
0.867419
0.861487
0.86243
0.859891
0.865304
0.888316
0.931076
1.07497
1.29491
1.40139
1.18599
1.02411
1.05158
1.6221
4.28839
9.30595
11.7681
12.1208
12.1331
12.2613
12.774
13.2564
13.4321
13.3653
13.003
12.7229
12.8388
13.072
13.6285
13.6889
13.3736
13.7536
16.1853
18.9422
19.6187
17.8556
16.1412
16.0817
21.1252
25.2036
25.2637
24.0531
24.5616
27.5327
30.7187
32.8542
32.933
31.6101
32.4703
40.6096
53.6972
84.8135
72.5455
64.7929
62.489
61.1611
63.547
66.0105
62.1382
54.4442
48.6938
46.5373
47.0517
48.3097
51.0579
52.827
52.2765
55.6452
60.5335
67.4484
86.7369
105.659
94.801
58.5394
55.6355
55.016
52.6953
54.0515
53.9519
50.531
46.9741
43.273
41.3825
40.0189
40.6084
44.2708
0.835609
0.835876
0.836437
0.838218
0.840653
0.844019
0.844057
0.842063
0.839747
0.839762
0.83754
0.836326
0.839593
0.846228
0.857195
0.859914
0.855549
0.858727
0.867809
0.862005
0.861783
0.85907
0.86606
0.884899
0.917419
1.02343
1.21793
1.3233
1.1401
1.00552
1.03412
1.55348
3.98848
8.80796
11.3204
11.7881
11.8712
12.0183
12.4189
12.8487
13.1059
13.1923
12.799
12.3823
12.4341
12.9159
13.7254
13.7856
13.2557
13.5121
16.3327
19.5449
20.2257
18.1436
16.2707
16.3081
22.3924
26.7634
26.2605
24.7168
25.4939
28.9972
32.4429
34.1827
34.6173
33.597
33.9855
46.3963
66.9413
65.6497
57.8475
54.5349
54.6222
52.7643
54.9878
58.9867
55.7352
51.6154
45.7918
43.8577
43.7061
44.7381
48.9754
52.7736
50.3079
50.9487
55.2817
61.5765
83.3483
107.025
81.3997
52.2409
50.9737
51.3904
49.9636
50.3682
50.843
49.2326
44.2445
41.615
39.7517
38.4616
39.7375
43.2702
0.836561
0.836663
0.836877
0.838796
0.842791
0.845651
0.844383
0.842119
0.839374
0.839257
0.837855
0.835706
0.837753
0.845053
0.855318
0.857194
0.856112
0.859834
0.869324
0.863433
0.863533
0.860632
0.865988
0.887342
0.91256
1.00397
1.16685
1.26165
1.10522
0.993156
1.0247
1.50252
3.74596
8.40097
10.9844
11.5909
11.7687
11.9577
12.2642
12.6316
13.0274
13.2636
12.8563
12.2515
12.2405
13.0068
14.1026
14.1611
13.3653
13.4938
16.8011
20.5361
21.2058
18.7896
16.7098
16.8775
24.1952
28.9115
27.6916
25.8593
27.0166
31.1268
34.4214
35.6271
36.1303
35.8216
35.3616
49.2865
63.9752
52.6286
48.0466
46.7463
47.1515
45.5609
46.9484
48.0614
48.8469
48.2339
43.1932
41.4372
41.4052
42.0957
46.6487
50.9002
47.3272
48.8393
53.18
58.2142
90.0862
118.708
77.155
50.1233
46.578
46.8975
47.5722
47.9766
49.6588
50.2519
42.658
39.3444
37.6537
37.5878
39.3724
43.7791
0.836149
0.836262
0.836788
0.838383
0.841713
0.844398
0.845099
0.843595
0.841204
0.840644
0.83833
0.837198
0.841085
0.848465
0.860313
0.862718
0.857442
0.86072
0.870607
0.864464
0.86317
0.86049
0.866634
0.887945
0.914745
0.995778
1.13524
1.22409
1.08943
0.987796
1.01775
1.46473
3.5491
8.09517
10.7897
11.5464
11.8225
12.0536
12.2981
12.6023
13.1524
13.5537
13.1504
12.303
12.2295
13.3004
14.7515
14.7968
13.6594
13.6897
17.5853
21.9473
22.5437
19.7445
17.4429
17.8413
26.5956
31.6695
29.7125
27.5297
29.1735
33.6469
36.6467
36.8526
36.8632
38.3416
43.5557
49.1906
48.4499
44.4028
41.5804
40.5228
40.3748
39.1688
40.0652
40.3631
39.9392
42.5574
41.3395
39.637
39.386
39.6075
41.1206
42.0854
41.7558
44.8482
48.1618
55.2208
99.4767
119.242
77.8527
49.1507
44.1399
44.0238
44.5588
46.491
49.7216
50.9368
42.3331
38.2058
35.6334
37.1232
39.7616
43.5298
0.837464
0.837505
0.837981
0.840323
0.844678
0.847894
0.8464
0.843733
0.841263
0.840636
0.838722
0.836839
0.839506
0.849097
0.858325
0.858355
0.857729
0.863292
0.874496
0.866852
0.865676
0.861511
0.868185
0.887603
0.914777
0.988141
1.11648
1.19537
1.07308
0.982668
1.01343
1.4318
3.37774
7.8221
10.6278
11.5456
11.9327
12.2111
12.4106
12.6349
13.3735
13.9651
13.5892
12.4412
12.2912
13.6984
15.5746
15.606
14.0669
13.9751
18.5732
23.6339
24.0897
20.9299
18.336
19.0833
29.424
34.5685
31.9482
29.5013
31.6376
36.0334
38.934
38.1349
36.7472
39.311
45.5109
41.2781
40.2942
37.8962
36.0308
35.6499
35.4896
34.3206
35.4852
35.4458
34.3197
36.2938
38.0382
37.874
37.268
37.1792
37.16
37.8694
37.8856
39.9114
42.5326
50.6768
82.5603
86.1236
66.3639
47.0288
41.1088
40.4093
41.029
43.3252
47.9479
50.0025
42.3652
38.2303
34.4916
36.2657
40.4662
44.0939
0.837141
0.836775
0.836695
0.838407
0.843368
0.845356
0.846448
0.845561
0.843503
0.842041
0.839863
0.838649
0.843158
0.851807
0.864902
0.86648
0.86045
0.864544
0.876931
0.868073
0.865846
0.862907
0.868488
0.888398
0.913957
0.986348
1.10323
1.17886
1.06605
0.980797
1.00991
1.40483
3.22753
7.5891
10.5277
11.6123
12.1232
12.4521
12.6235
12.7715
13.6911
14.517
14.1968
12.6876
12.4409
14.2151
16.6175
16.6181
14.607
14.3812
19.832
25.6647
25.8627
22.3618
19.4586
20.7581
32.3731
37.0342
34.237
31.841
34.0188
37.7221
40.5388
39.3504
36.5798
40.8551
40.0683
35.7678
34.2315
33.3009
31.9775
31.75
31.9218
31.7075
33.6973
33.6066
32.264
32.5722
34.3301
34.5388
34.3172
34.4379
34.3245
34.8493
35.4079
37.0305
39.4069
46.1777
64.6394
68.7964
57.9162
44.0634
37.5357
34.8634
35.4939
40.2724
48.0493
50.3563
40.4946
35.9494
33.3216
35.8612
42.3005
46.032
0.839106
0.839091
0.839962
0.84273
0.84745
0.850998
0.849406
0.846893
0.843664
0.842359
0.841342
0.839694
0.84319
0.855049
0.864303
0.863138
0.861402
0.865174
0.877464
0.873164
0.869336
0.865501
0.870525
0.890645
0.915315
0.986619
1.09559
1.16542
1.05803
0.978759
1.00722
1.38115
3.09237
7.36846
10.4346
11.6896
12.3321
12.7254
12.859
12.9325
14.0272
15.1467
14.9327
12.9824
12.6154
14.7765
17.8264
17.7825
15.2433
14.8215
21.2858
27.9337
27.7683
24.0082
20.6973
23.04
33.7713
39.2898
36.73
34.5274
35.6566
38.1857
40.004
39.1861
33.1132
35.6927
35.5979
32.0349
29.6074
30.39
29.5799
28.7735
29.5584
30.6643
32.7818
32.7679
31.5658
30.8788
31.7243
31.721
31.8152
32.6336
32.5035
32.7909
33.5054
35.1868
37.9342
43.8244
54.3428
56.84
49.5802
38.3122
33.4585
32.0997
32.919
38.1171
47.3664
48.8193
37.3279
30.8849
31.0112
35.703
43.21
45.942
0.839312
0.838785
0.839603
0.841772
0.846777
0.848891
0.849886
0.849286
0.846163
0.843776
0.842897
0.842124
0.846852
0.856764
0.871816
0.872243
0.864917
0.870582
0.899141
0.887345
0.874153
0.870184
0.878204
0.897626
0.91947
0.986394
1.08888
1.15457
1.05522
0.977681
1.00461
1.35933
2.96831
7.16146
10.3671
11.7996
12.5871
13.0622
13.1534
13.1617
14.4014
15.8963
15.8417
13.3576
12.8435
15.4142
19.2547
19.1238
16.0174
15.3503
22.9991
30.4956
30.0059
25.8431
22.1295
26.0724
33.5418
40.7916
39.1021
36.6012
36.2756
37.5112
36.3969
33.3593
30.0438
31.5199
31.3149
28.8482
26.9795
28.9939
28.4871
27.3602
28.389
29.9275
31.9034
32.0016
30.8999
29.887
30.2744
30.0976
30.4387
31.6922
31.8261
31.9814
32.7008
34.3955
37.3841
43.3303
50.0962
48.1594
41.0006
33.1322
31.2454
31.0977
32.0399
36.1672
46.1458
48.1093
34.1639
28.3191
27.5794
33.2232
45.4439
45.0874
0.840571
0.840714
0.842703
0.846377
0.85161
0.855412
0.852856
0.849225
0.844599
0.84195
0.842725
0.84245
0.847314
0.860725
0.87253
0.870324
0.86626
0.872292
0.952885
0.938951
0.894069
0.887951
0.905266
0.910862
0.924225
0.985667
1.08623
1.1502
1.05166
0.976884
1.0021
1.33922
2.85471
6.95486
10.2961
11.904
12.8455
13.4224
13.4514
13.389
14.7237
16.687
16.8818
13.778
13.0683
16.0532
20.8288
20.6105
16.8719
15.9288
24.8913
32.685
32.093
27.7453
23.7397
28.0711
32.7693
40.1502
40.2797
37.244
35.5476
35.0449
29.7677
29.3188
27.3286
28.2412
28.276
26.3639
25.7396
28.2061
27.9151
26.758
27.7424
29.289
30.9441
31.1613
30.3959
29.4524
29.4074
29.1722
29.777
31.1635
31.4028
31.5538
32.1665
33.8476
37.4784
43.0184
46.576
42.8419
37.2022
31.4614
30.4761
30.4844
31.2696
33.6892
44.7093
44.5921
31.824
27.5297
25.9364
29.6904
43.0777
42.7727
0.839347
0.838837
0.83991
0.841964
0.846603
0.848451
0.849127
0.848698
0.846371
0.847047
0.844282
0.842954
0.847167
0.857105
0.874738
0.876179
0.867299
0.876251
1.12793
1.15361
1.00177
0.994651
1.09647
1.04054
0.958761
0.990123
1.08451
1.14365
1.04965
0.975308
0.998463
1.30909
2.69624
6.64036
10.1966
12.0863
13.2855
14.0626
13.9602
13.7811
15.17
17.8895
18.6556
14.5823
13.4535
17.0754
23.1893
23.1253
18.3623
16.9737
27.5788
34.2061
35.0346
30.8914
26.7875
28.1237
29.5127
36.056
39.4965
36.2931
32.9275
27.9899
23.0417
24.7255
24.8524
25.6073
25.3815
24.3209
24.6942
26.3103
26.2513
25.8433
26.9187
28.3993
29.5368
29.9458
29.5016
28.7366
28.7129
28.4772
28.8417
29.6824
30.141
30.1835
30.9592
32.9513
35.6512
38.3867
40.4362
39.7086
35.552
30.1748
28.4121
28.4079
29.2643
31.2949
40.9904
38.4385
29.7683
27.1025
24.93
25.8654
34.9284
39.7524
0.844373
0.844272
0.845579
0.848921
0.853829
0.857576
0.855455
0.852153
0.850188
0.850149
0.848947
0.848546
0.853917
0.867509
0.875288
0.873379
0.86729
0.935296
1.77012
2.06129
1.5038
1.49533
1.73858
1.48519
1.08763
1.00348
1.08207
1.14102
1.04702
0.974837
0.994174
1.27245
2.50634
6.17627
10.0319
12.3413
13.9845
15.0758
14.6819
14.2118
15.3917
19.0495
21.2611
16.1298
13.8591
18.5263
24.987
26.5163
21.1258
19.26
26.6602
32.2739
37.284
34.0024
29.6287
26.5518
22.9244
26.768
31.6818
29.738
26.5256
21.4847
18.908
20.25
22.559
23.9702
24.1358
23.5573
23.4985
24.5084
24.9577
25.0811
26.4649
27.8343
28.5015
29.0535
28.8694
28.7469
28.8691
28.7531
28.4558
28.1927
28.1919
28.2378
28.8774
31.4255
34.454
35.8129
36.4309
35.7689
33.4932
29.7383
27.2613
26.9324
28.1388
29.4393
35.4148
32.9086
28.2495
25.8984
24.23
24.1462
26.5876
35.9901
0.847588
0.846797
0.84779
0.850447
0.855194
0.856075
0.856209
0.855827
0.859114
0.862906
0.857812
0.856741
0.862288
0.873842
0.883836
0.882978
0.874812
1.14318
3.29346
4.52207
2.90052
2.90054
3.63443
2.52023
1.3225
1.03751
1.08773
1.1422
1.04414
0.973335
0.989455
1.23321
2.32095
5.66034
9.80191
12.5965
14.847
16.4918
15.6311
14.6204
15.362
19.6149
23.0184
18.4666
14.2033
20.2277
21.5694
27.902
23.82
21.8414
21.8721
25.5301
33.9034
32.961
29.4902
26.2082
18.1428
18.37
20.6852
20.098
19.2618
17.4207
16.9164
18.5333
21.7314
23.4323
23.8079
23.2268
22.6525
23.3746
24.0398
24.6233
26.6366
28.1808
28.6508
29.0333
29.4208
29.8217
30.0574
30.2422
29.3714
27.6557
26.9717
27.0339
27.7189
28.8037
30.823
34.8282
36.7469
36.5164
35.0844
32.4931
28.8182
25.9998
26.9411
28.0924
30.6832
29.6443
27.5476
25.1154
23.3978
23.0569
24.0696
28.2512
0.857395
0.857522
0.857824
0.860138
0.864253
0.866977
0.864641
0.863059
0.868237
0.872778
0.868312
0.868433
0.878849
0.914572
0.917324
0.90133
0.881867
1.79267
5.04884
7.84556
5.75689
7.25071
9.67826
4.43122
1.6817
1.07436
1.09268
1.14151
1.04464
0.975337
0.988655
1.19992
2.14104
5.11201
9.4497
12.6796
15.6045
18.1105
16.6647
14.8987
14.8354
16.4185
21.0372
21.3321
14.437
17.4564
16.7819
24.4519
23.835
21.1741
18.1369
18.9225
26.238
29.7739
28.1432
20.9682
14.2995
13.8668
14.5181
14.9709
15.6999
15.5483
15.6663
17.0074
20.1087
23.4259
24.057
23.2058
22.3277
22.4567
23.3408
24.8022
27.8125
31.6528
35.4737
35.5009
32.407
31.91
32.5076
34.283
35.0605
32.9352
28.0336
26.8582
26.9484
27.6707
28.6361
31.1931
33.2601
32.9069
32.2842
32.5896
32.6013
27.2009
26.1606
27.046
28.2627
28.107
26.8488
24.5915
22.5552
22.3759
23.0028
25.744
0.863208
0.862374
0.862521
0.864248
0.867351
0.868234
0.867821
0.873093
0.884474
0.894253
0.882567
0.88096
0.90033
0.984373
0.983437
0.93086
0.928784
2.84223
6.04134
9.45915
11.1413
13.8242
12.7999
7.08119
2.14707
1.13247
1.09975
1.14166
1.0499
0.989614
1.00083
1.18949
2.01066
4.58267
8.95129
12.4089
15.49
19.4648
17.8311
15.2487
15.0802
13.6201
16.9379
21.4179
16.1365
15.3928
13.5737
18.1523
20.9401
20.5409
15.7466
14.7221
17.3999
22.9845
19.5548
15.7096
12.6211
12.9654
13.1471
13.7382
14.5357
14.6501
15.1875
16.1596
18.3763
22.1487
23.7958
23.5439
22.7339
20.9676
20.539
24.1686
31.8223
42.8367
48.3474
44.6174
30.7461
26.5426
28.4719
35.316
39.9593
38.9831
30.1829
26.3654
26.6781
27.1583
28.1908
30.3997
31.9674
31.7223
31.2422
31.0403
31.0323
29.0159
28.0427
27.2239
27.5022
27.3586
26.4914
24.3705
22.0525
22.0394
22.5417
25.5506
0.87379
0.873127
0.872122
0.872767
0.874156
0.87624
0.877391
0.889886
0.914525
0.943216
0.934889
0.93428
0.985607
1.13978
1.10816
0.97636
1.14359
3.59332
4.80586
7.42001
11.9845
13.0218
11.7304
9.39961
2.67114
1.19459
1.1046
1.14522
1.08218
1.04314
1.05538
1.20896
1.97471
4.17509
8.23922
11.4646
13.2882
17.4937
19.6204
15.8244
15.1172
13.1973
14.4651
18.7919
16.7185
14.3934
12.3062
13.8982
18.1134
15.4869
13.2723
13.7729
13.9101
15.0395
14.3451
13.7522
12.0915
12.4175
12.5947
13.4966
14.5048
14.6497
15.0384
15.4726
16.7823
21.9784
24.5601
24.8742
24.2747
18.5197
16.6557
18.4229
26.9921
43.0191
46.5211
40.8747
25.7578
20.032
20.2662
22.0988
24.9422
26.1052
25.0863
25.136
27.2421
28.2121
28.4198
29.0739
29.8012
29.9904
30.7614
31.3665
31.3391
30.0448
30.765
28.2677
27.0807
27.0867
26.3931
24.0427
21.6789
21.5559
21.9764
25.9226
0.881266
0.879751
0.880058
0.881752
0.883281
0.884887
0.89478
0.933235
0.985796
1.08539
1.06193
1.05904
1.13441
1.29374
1.29677
1.17629
1.62734
3.51257
3.66206
5.57968
8.93352
9.37134
7.87579
7.41665
2.7889
1.29741
1.13401
1.18667
1.19367
1.26343
1.29886
1.41765
2.20771
4.30343
7.98047
10.7236
11.6099
13.5025
19.767
16.6872
13.8252
13.0315
13.735
16.4252
15.6394
13.2566
12.1452
12.189
12.9756
12.921
12.8488
13.7367
14.3148
13.4526
13.3791
13.2838
11.947
11.9149
12.7538
14.0431
14.9189
14.8898
15.4364
15.4348
15.6606
20.7646
26.8873
27.714
25.1556
16.5675
15.4848
15.9888
18.511
23.4559
29.1171
27.8844
22.8236
18.8652
18.5513
18.7379
19.2421
20.4184
22.1888
23.7626
26.3171
28.8291
30.5722
31.5951
31.9701
31.626
30.8465
29.2916
29.3945
30.3906
27.9806
26.8461
27.0357
26.6391
26.0041
23.5915
20.5346
20.1807
21.1747
24.6882
1.00708
1.02106
1.04262
1.05744
1.08264
1.11131
1.20302
1.38331
1.57752
1.72047
1.69136
1.58521
1.66138
1.77626
1.87646
2.1811
2.64798
2.94911
3.72379
5.06818
6.28409
6.7225
6.31584
6.24992
4.97214
3.2261
2.62038
3.05282
3.77269
4.88592
5.91742
6.13699
6.90575
8.09521
9.3315
10.1333
10.9363
12.7151
14.0904
13.0618
13.0202
12.6388
13.1581
12.8774
12.6264
12.1285
12.1038
12.1963
12.3151
12.5598
12.9684
13.7309
15.0693
15.4061
14.9666
13.7018
12.305
12.0533
12.3707
13.229
13.6119
13.1573
12.4218
12.7909
14.2671
16.5054
18.7716
20.2172
19.0813
15.0615
14.5246
14.8698
15.3692
15.621
16.4612
17.9453
18.0396
18.0123
18.0491
18.2744
18.7808
19.4241
20.6315
21.9023
24.075
26.678
29.347
31.7772
33.4487
33.8202
32.0794
27.3935
26.4444
27.6043
26.8075
23.923
22.3736
21.6579
21.0222
20.1223
18.4766
17.3356
17.5995
19.3608
1.87252
1.61145
1.43621
1.46193
1.76182
2.21844
2.61648
2.69552
2.57431
2.50602
2.69313
2.79172
2.66761
2.58138
2.64292
3.32754
4.44879
5.38755
6.13882
6.51777
7.16115
8.08115
9.1975
10.4841
10.9888
10.8187
10.529
10.5461
10.7273
11.104
11.5921
12.2909
12.1656
11.9574
11.7088
12.1061
13.0365
13.4493
13.2526
13.3967
13.8508
14.4882
14.2043
13.6764
13.5463
13.6308
13.6042
13.5429
13.489
13.4645
13.3813
13.335
13.2986
13.2004
12.9988
12.9823
13.1729
13.5836
14.1393
14.5056
14.839
15.3366
15.7445
15.6773
15.2753
14.6098
14.0696
14.1111
14.3454
14.3788
14.2655
14.2504
14.3317
14.236
13.7621
13.1306
13.0554
13.3581
14.1485
14.6299
14.6491
14.3861
14.3577
14.5125
14.7326
14.7277
14.6377
14.3377
14.4362
15.0534
15.5596
15.8607
16.9497
21.1918
24.419
23.8908
22.202
20.1219
18.4433
17.4037
16.7083
16.22
15.6401
14.8019
2.3935
2.39626
2.19881
2.13354
2.42024
3.1787
3.9296
4.46251
4.78802
5.26782
6.14489
7.34919
8.77897
9.55124
9.60713
9.63878
9.92026
10.4048
10.9525
11.4909
12.0926
12.3321
12.6278
12.6601
12.5458
12.2549
11.7578
11.7052
11.8317
12.1051
12.5102
13.2011
14.0987
15.6454
17.6705
19.5374
21.3534
23.3089
24.0508
23.8328
23.1506
22.199
21.1327
20.0397
18.8366
17.9
16.9436
16.0493
15.331
14.9587
14.8837
14.8057
14.5783
14.1495
13.7245
13.7312
14.0051
14.5716
14.8144
15.0566
15.6206
16.8915
18.0615
18.1303
17.7447
16.672
15.7912
15.9508
16.9185
17.9289
17.8067
16.841
15.6156
15.2851
15.4773
16.3502
18.0658
19.9444
20.9656
21.4545
21.8533
22.3949
23.0048
23.2779
23.2863
23.0556
22.5079
21.8128
20.9432
19.768
18.4598
16.6683
16.0908
17.3383
20.6375
20.9999
19.9035
17.8644
15.9996
14.3709
12.6304
11.4172
11.3099
11.516
5.87494
7.11577
8.68077
8.68775
8.45073
8.67314
9.10096
9.7101
10.4273
11.1074
11.8223
12.4803
13.4144
13.5698
13.478
13.3903
13.6767
14.2706
14.7276
15.04
14.9961
14.8331
14.5458
14.3564
14.212
13.9996
13.9685
13.9985
14.059
14.1475
14.2742
14.3371
14.3072
14.2021
14.0819
13.9385
14.0089
14.2125
14.4661
14.7941
15.1902
15.6478
15.7661
15.5997
15.604
15.7202
15.9062
16.0554
16.3021
16.7665
17.4312
18.0695
17.9473
17.6095
17.7312
18.4541
19.8977
20.8915
21.3646
21.8763
22.4606
22.8986
23.1715
23.2113
23.1239
23.0783
23.1321
23.3855
23.5458
23.2471
22.4819
21.8798
21.7415
21.8854
21.94
21.6527
20.8955
20.2077
19.9135
19.8685
19.8229
19.5366
18.8861
18.0809
17.3095
16.7466
16.4129
16.0901
16.0099
16.2602
16.6337
16.2737
15.3379
15.5145
16.5969
16.475
15.7245
14.6334
13.3043
11.8799
11.0591
10.728
10.8473
11.5344
11.2052
11.7946
12.3669
12.6748
12.5262
12.1125
11.9324
12.1119
12.4842
13.0354
13.7323
14.561
15.671
16.9807
18.5057
19.416
19.3797
18.992
18.2729
17.3386
16.254
15.2778
14.384
13.7075
13.1709
12.7672
12.3495
12.1178
12.1177
12.2111
12.3745
12.637
13.0779
13.7744
14.7772
16.0837
17.5363
18.8919
19.5928
19.9228
20.2478
20.5627
20.5385
20.4124
20.5319
20.8935
21.5685
21.8423
21.7913
21.7302
21.7574
21.9617
22.3706
22.6295
22.711
22.4565
21.6382
20.2382
18.9845
18.3431
18.0187
17.9342
18.0536
18.4687
19.1182
19.78
20.2451
20.3157
20.0008
19.2948
18.4358
17.636
16.8409
16.2252
15.8196
15.5686
15.3828
15.1573
14.7346
14.0424
13.124
12.1664
11.5808
11.4465
11.5265
11.8995
12.4553
12.843
13.033
13.294
13.822
14.2019
13.9433
13.8867
14.0106
13.5538
13.5245
13.6992
14.0565
14.9818
16.5082
17.1034
17.207
17.2583
12.1132
12.1592
12.1534
12.2055
12.3007
12.5337
12.8323
13.1181
13.3331
13.5574
13.6384
13.7427
13.7445
13.6806
13.6726
13.7712
13.9896
14.2674
14.5595
14.8148
14.9648
15.0931
15.2477
15.4319
15.5361
15.6959
15.9996
16.4993
17.1633
17.9746
18.6234
19.1841
19.8076
20.5069
21.1376
21.5659
21.8404
22.0372
22.046
22.1058
22.1583
22.3066
22.2573
22.2535
22.4917
22.9718
23.0746
22.5957
21.2849
19.6502
18.6172
17.8525
17.1345
16.2804
14.9893
13.3778
12.3037
11.8442
11.8182
12.0219
12.3459
12.4544
12.5561
12.7381
13.0381
13.3276
13.4634
13.3782
13.0207
12.477
11.8508
11.1463
10.5175
10.05
9.63343
9.22155
8.76876
8.29329
7.83351
7.45465
7.20727
7.12095
7.24319
7.71179
8.62344
9.96672
11.5202
12.4628
12.8077
12.9122
13.1253
13.259
13.1474
13.1429
13.2749
13.5759
14.3344
16.0797
17.5816
17.5759
16.7317
15.3981
14.5776
14.0827
14.2399
13.9506
13.6392
13.3297
13.0295
13.0503
13.1871
13.4799
13.9392
14.5012
15.1502
15.8861
16.4779
16.9883
17.4687
17.9612
18.4732
18.9978
19.3977
19.5391
19.6752
19.858
20.1378
20.4039
20.5136
20.6544
20.9388
21.3712
21.6109
21.4994
21.127
20.4612
19.4884
18.8825
18.6003
18.4948
18.2413
17.8547
17.5675
17.1567
16.1822
14.8078
13.1131
12.4992
12.419
12.1523
11.3355
10.1694
9.70054
9.48455
9.09598
8.4859
7.91259
7.44431
6.91459
6.44384
6.15278
5.97337
5.862
5.80942
5.78497
5.80303
5.85889
5.93523
6.03911
6.10199
6.07812
5.94409
5.72451
5.48355
5.2368
5.03823
4.88288
4.75161
4.6201
4.50011
4.35616
4.2373
4.1514
4.12378
4.19159
4.39285
4.80784
5.51138
6.70316
8.5815
10.8378
12.4064
13.1167
13.402
13.4121
13.4256
13.4966
13.8413
14.6623
16.2415
17.7188
17.856
16.8543
14.7938
12.4506
10.9731
10.0027
9.44142
15.1742
15.5938
16.0355
16.5402
17.1643
17.9112
18.7015
19.487
19.989
20.1577
20.392
20.3697
20.1627
20.151
20.3028
20.5971
20.9612
21.2504
21.1553
21.0652
21.3286
21.6852
21.473
20.4116
18.6455
17.1473
16.2581
15.4672
14.5904
13.4686
12.0551
10.5122
9.66593
9.31949
8.9368
8.26939
7.23836
6.34499
6.18086
6.00088
5.27505
4.37679
3.89328
4.09437
4.24202
4.28994
4.20539
4.0314
3.82285
3.69901
3.62946
3.62634
3.52519
3.30075
2.98463
2.75516
2.64476
2.60869
2.60987
2.63246
2.64542
2.67253
2.67415
2.63623
2.59326
2.55816
2.5322
2.53481
2.54352
2.54602
2.5383
2.54764
2.55237
2.54987
2.53116
2.50997
2.47205
2.45497
2.45501
2.50337
2.63836
2.86337
3.24165
3.81138
4.76958
6.32579
8.66386
11.2247
12.8974
13.8534
14.2946
14.5752
15.0589
15.8231
16.5673
16.805
16.3552
14.5414
11.5447
8.67295
7.06171
6.18094
5.61818
5.39575
20.0551
20.4187
20.7304
20.8799
20.9524
20.9535
20.8686
20.6105
19.9074
18.6575
17.0333
15.4788
15.3355
15.9223
16.9188
16.8339
15.824
14.0309
12.5001
11.4982
11.0947
10.8207
10.0023
8.67506
7.49714
6.76054
6.0697
5.2156
4.32952
3.78713
3.47385
3.18569
3.10511
2.99747
2.68233
2.23642
1.92552
1.79632
1.81999
1.7417
1.53692
1.39742
1.36807
1.45846
1.48283
1.50861
1.50045
1.44862
1.45601
1.54384
1.70179
1.71186
1.5775
1.42365
1.32051
1.27621
1.27052
1.28747
1.31094
1.32453
1.32655
1.33298
1.32808
1.31671
1.31634
1.32805
1.35863
1.40744
1.45825
1.48448
1.51031
1.54022
1.56297
1.58205
1.58481
1.59021
1.59451
1.60976
1.62858
1.68159
1.78323
1.93371
2.16745
2.50748
3.13255
4.09284
5.62302
7.90071
10.3069
12.2055
13.3426
14.0298
14.557
14.8429
14.5443
13.2957
10.8791
7.92394
5.72412
4.56039
3.94824
3.60118
3.40424
3.35643
20.2184
19.6409
17.6319
14.8411
13.5112
12.7232
11.7991
10.3341
8.25678
6.86148
6.10926
5.54822
5.52732
5.39855
4.94378
4.29357
3.56645
2.93071
2.6642
2.6852
2.74594
2.67417
2.48763
2.32646
2.21844
1.99352
1.67741
1.41535
1.26297
1.19837
1.17587
1.16048
1.18448
1.18812
1.11928
1.03366
0.989409
0.974229
0.981856
0.970001
0.95314
0.946524
0.948699
0.961708
0.965705
0.975928
0.976407
0.97784
1.00469
1.06417
1.13069
1.12588
1.07975
1.03172
0.999654
0.988505
0.993151
1.00636
1.01828
1.0252
1.02955
1.03369
1.03639
1.04241
1.05008
1.06421
1.09842
1.14679
1.1821
1.19438
1.20957
1.23046
1.25461
1.28275
1.29178
1.29933
1.30887
1.31574
1.31409
1.33873
1.39436
1.4804
1.59598
1.76299
2.0741
2.53579
3.30664
4.38716
5.93948
7.76198
9.35219
10.2782
10.5241
10.0078
8.56125
6.59489
4.87719
3.71417
3.00596
2.61562
2.42134
2.33352
2.27579
2.25896
6.02374
4.99065
3.89188
3.37616
3.03969
2.57836
2.10587
1.82038
1.66879
1.64044
1.60528
1.50094
1.45809
1.44686
1.41025
1.24159
1.1081
1.03989
1.02353
1.04755
1.07622
1.0816
1.06726
1.05538
1.04316
0.995148
0.938556
0.904709
0.892648
0.890441
0.891859
0.896203
0.902515
0.90276
0.889307
0.877247
0.872252
0.870248
0.872207
0.872656
0.872691
0.872962
0.872414
0.873614
0.87429
0.878476
0.883864
0.891218
0.905053
0.928149
0.953986
0.959212
0.948827
0.937118
0.929859
0.92633
0.927749
0.933228
0.939732
0.94528
0.951953
0.95597
0.958965
0.96343
0.967546
0.974744
0.998106
1.03401
1.05828
1.06407
1.06764
1.07438
1.09556
1.1248
1.1387
1.15704
1.16845
1.17197
1.17199
1.18589
1.22056
1.26925
1.31695
1.39204
1.52322
1.72298
2.0088
2.38881
2.9649
3.62176
4.24089
4.74429
4.73662
4.26098
3.57688
2.96615
2.49995
2.13196
1.92302
1.80109
1.75247
1.73201
1.72136
1.72486
1.20929
1.11559
1.07185
1.06685
1.05033
0.990541
0.951196
0.928196
0.917152
0.919413
0.927064
0.927794
0.926126
0.924813
0.920554
0.899205
0.877819
0.872071
0.875094
0.880211
0.88716
0.891511
0.889268
0.884721
0.878203
0.868774
0.861741
0.85719
0.856541
0.859661
0.863104
0.864986
0.866312
0.865019
0.860743
0.859102
0.85889
0.858989
0.860863
0.861838
0.863314
0.863843
0.864888
0.864785
0.864642
0.867082
0.872378
0.879739
0.889385
0.899378
0.908181
0.914358
0.916458
0.916771
0.914422
0.911114
0.911262
0.914966
0.920469
0.924844
0.931029
0.935745
0.939538
0.938983
0.936858
0.936866
0.942819
0.957345
0.97944
0.992909
0.997937
1.00182
1.01267
1.03091
1.04782
1.06054
1.0736
1.08399
1.09608
1.11375
1.1358
1.16018
1.17463
1.20304
1.2632
1.35143
1.46317
1.60217
1.7688
1.93473
2.09436
2.22599
2.22383
2.10082
1.90129
1.7665
1.64283
1.54634
1.48217
1.45471
1.44806
1.4543
1.47544
1.50952
0.885583
0.886403
0.888573
0.889422
0.884304
0.875016
0.867718
0.866328
0.868669
0.872875
0.875869
0.876344
0.8768
0.87432
0.871531
0.866566
0.860004
0.857486
0.858523
0.862993
0.867366
0.870698
0.872511
0.871115
0.863555
0.85478
0.850897
0.849964
0.849943
0.850584
0.851368
0.852769
0.854741
0.856061
0.854379
0.852972
0.852501
0.852125
0.853464
0.854716
0.856484
0.858396
0.859352
0.85881
0.858365
0.861382
0.866412
0.87196
0.879219
0.886339
0.890717
0.892622
0.89368
0.894514
0.895651
0.89731
0.899108
0.901387
0.90466
0.906338
0.908694
0.911254
0.914779
0.915218
0.914653
0.913305
0.915401
0.924404
0.941651
0.954245
0.952694
0.950042
0.956248
0.971866
0.98198
0.986785
0.988798
0.999666
1.01909
1.04548
1.05841
1.06943
1.07136
1.08565
1.11835
1.1626
1.22229
1.28836
1.35031
1.39962
1.44009
1.47199
1.46937
1.42665
1.37656
1.3589
1.32545
1.30801
1.28786
1.27931
1.28882
1.309
1.34308
1.40479
0.871557
0.873939
0.874558
0.872317
0.867225
0.861446
0.857013
0.85581
0.856199
0.858926
0.862592
0.865622
0.868497
0.869388
0.864885
0.857144
0.852557
0.85087
0.850749
0.852378
0.853957
0.855312
0.855784
0.855061
0.851734
0.848328
0.846088
0.844539
0.844403
0.845397
0.847151
0.848577
0.849303
0.849241
0.848098
0.847762
0.847801
0.847917
0.849228
0.850569
0.852042
0.852938
0.85383
0.855011
0.85646
0.857889
0.861238
0.865935
0.870744
0.875437
0.880548
0.884738
0.886542
0.887783
0.8886
0.889746
0.890911
0.892773
0.895675
0.896521
0.897461
0.898792
0.900471
0.901895
0.903059
0.902922
0.902321