/*--------------------------------*- C++ -*----------------------------------*\
| =========                 |                                                 |
| \\      /  F ield         | OpenFOAM: The Open Source CFD Toolbox           |
|  \\    /   O peration     | Version:  v1912                                 |
|   \\  /    A nd           | Website:  www.openfoam.com                      |
|    \\/     M anipulation  |                                                 |
\*---------------------------------------------------------------------------*/
FoamFile
{
    version     2.0;
    format      ascii;
    class       volScalarField;
    location    "60";
    object      p_rgh;
}
// * * * * * * * * * * * * * * * * * * * * * * * * * * * * * * * * * * * * * //

dimensions      [1 -1 -2 0 0 0 0];


internalField   nonuniform List<scalar> 
14268
(
-551.458
-200.565
160.21
527.789
902.013
1281.63
1667.21
2051.37
-551.279
-200.381
160.398
527.981
902.208
1281.83
1667.41
2051.64
-551.101
-200.197
160.586
528.173
902.403
1282.03
1667.61
2051.84
-550.925
-200.016
160.772
528.362
902.596
1282.23
1667.8
2052.1
-550.75
-199.836
160.957
528.551
902.788
1282.42
1668
2052.31
-550.576
-199.657
161.14
528.738
902.978
1282.62
1668.19
2052.56
-550.404
-199.48
161.322
528.924
903.168
1282.81
1668.38
2052.78
-550.233
-199.304
161.503
529.108
903.356
1283
1668.57
2053.01
-550.064
-199.13
161.682
529.292
903.543
1283.19
1668.76
2053.24
-549.896
-198.957
161.86
529.474
903.728
1283.38
1668.95
2053.46
-549.73
-198.785
162.036
529.654
903.913
1283.57
1669.14
2053.69
-549.564
-198.614
162.212
529.834
904.096
1283.76
1669.32
2053.91
-549.401
-198.446
162.385
530.011
904.277
1283.95
1669.5
2054.13
-549.245
-198.279
162.557
530.188
904.458
1284.13
1669.68
2054.36
-551.316
-200.69
159.703
526.801
900.402
1279.2
1663.58
2046.53
-550.345
-199.778
160.554
527.58
901.102
1279.82
1664.08
2047.01
-549.438
-198.916
161.372
528.338
901.79
1280.43
1664.58
2047.49
-548.599
-198.103
162.142
529.056
902.448
1281.03
1665.07
2047.96
-547.815
-197.333
162.879
529.75
903.086
1281.61
1665.55
2048.43
-547.087
-196.607
163.583
530.42
903.711
1282.18
1666.02
2048.9
-546.421
-195.931
164.243
531.053
904.295
1282.72
1666.46
2049.34
-542.187
-191.16
169.564
536.973
910.894
1290.26
1674.97
2060.21
-540.615
-189.179
171.899
539.715
914.017
1293.87
1678.54
2064.75
-540.162
-188.289
173.167
541.395
916.096
1296.49
1681.25
2068.33
-540.75
-188.416
173.46
542.15
917.305
1298.3
1683.3
2071.17
-542.448
-189.628
172.711
541.923
917.606
1299.26
1684.7
2073.37
-545.202
-191.859
170.975
540.752
917.014
1299.39
1685.46
2074.97
-549.055
-195.16
168.202
538.61
915.531
1298.69
1685.61
2076.07
-553.974
-199.55
164.34
535.462
913.14
1297.2
1685.17
2076.75
-560.048
-205.009
159.416
531.2
909.613
1294.59
1683.93
2076.94
-567.166
-211.423
153.582
525.63
904.804
1291.17
1681
2075.47
-575.165
-218.805
146.77
519.943
899.566
1287.54
1678.87
2075.04
-585.214
-228.016
138.338
512.923
893.726
1281.82
1675.37
2073.67
-597.01
-238.068
128.972
504.117
885.703
1274.51
1669.78
2070.9
-149.838
79.5123
336.964
623.998
941.211
1290.62
1670.4
2072.31
522.1
672.622
847.13
1048.23
1279.7
1547.59
1854.75
2201.61
49.6129
74.113
112.712
173.102
267.193
413.588
636.895
964.523
2.85254
3.51762
4.57097
6.25506
9.18303
14.5676
24.8309
43.5183
1.02171
0.919158
0.810502
0.683295
0.53648
0.37673
0.481551
1.58956
0.900938
0.767152
0.618712
0.443812
0.228622
-0.042328
-0.279926
-0.368548
0.849505
0.71402
0.564355
0.388908
0.17393
-0.097766
-0.342547
-0.464302
0.823552
0.686922
0.536145
0.362009
0.155246
-0.0917946
-0.326862
-0.467954
0.803311
0.667259
0.516736
0.343423
0.13937
-0.0964159
-0.318246
-0.457659
0.786514
0.651796
0.503211
0.333348
0.136101
-0.0888547
-0.305547
-0.460107
0.769512
0.635649
0.487813
0.320015
0.129136
-0.0837311
-0.29061
-0.446726
0.752483
0.620226
0.474802
0.310829
0.125834
-0.0775999
-0.279944
-0.440716
0.734149
0.603225
0.459744
0.298969
0.120237
-0.0727387
-0.263826
-0.428047
0.715054
0.585754
0.444477
0.287303
0.113868
-0.0717984
-0.257016
-0.420693
0.694788
0.567109
0.427952
0.274771
0.106499
-0.0714695
-0.248849
-0.411952
0.674619
0.548524
0.411475
0.261577
0.0982164
-0.0736173
-0.245308
-0.406001
0.655056
0.530524
0.395723
0.249069
0.0901943
-0.0758749
-0.243388
-0.403203
0.636178
0.513297
0.380783
0.237137
0.0824417
-0.0782919
-0.241316
-0.399584
0.618
0.496861
0.366659
0.226043
0.0753402
-0.080525
-0.239409
-0.395802
0.600503
0.481146
0.353313
0.215552
0.0686957
-0.0827561
-0.237647
-0.391803
0.583635
0.466114
0.340714
0.205679
0.0625933
-0.0847376
-0.235797
-0.387458
0.567356
0.451687
0.328638
0.196408
0.0568737
-0.0866401
-0.234015
-0.382831
0.55165
0.437852
0.317002
0.18789
0.051646
-0.0882346
-0.232047
-0.377914
0.536454
0.424539
0.305895
0.179767
0.0467301
-0.0896964
-0.229994
-0.372662
0.521791
0.411772
0.295372
0.172143
0.0422497
-0.0908415
-0.227748
-0.367212
0.507571
0.399458
0.2853
0.164859
0.038061
-0.0917805
-0.225307
-0.361484
0.49384
0.387652
0.275747
0.158005
0.0342423
-0.0924566
-0.222687
-0.355579
0.480537
0.376277
0.266615
0.151499
0.0307219
-0.0928909
-0.219873
-0.349459
0.467646
0.365319
0.257895
0.145346
0.0274922
-0.0931136
-0.216905
-0.343203
0.45515
0.354761
0.249558
0.139528
0.0245425
-0.093114
-0.213768
-0.336792
0.443016
0.344567
0.241567
0.13401
0.0218421
-0.0929189
-0.210485
-0.330268
0.431233
0.334724
0.233912
0.128784
0.019385
-0.0925294
-0.207064
-0.323639
0.419783
0.325209
0.226568
0.123834
0.0171562
-0.0919549
-0.203519
-0.316923
0.408643
0.316004
0.219513
0.119143
0.0151357
-0.0912163
-0.199859
-0.310134
0.397803
0.307095
0.212734
0.114699
0.0133127
-0.0903235
-0.196087
-0.303293
0.387246
0.298458
0.206211
0.110484
0.011675
-0.0892945
-0.19222
-0.29641
0.376958
0.290085
0.199936
0.106486
0.010206
-0.0881388
-0.188268
-0.289496
0.366924
0.281956
0.193891
0.102686
0.00888919
-0.0868696
-0.184247
-0.282565
0.357131
0.27406
0.188061
0.0990723
0.00771537
-0.0854996
-0.180168
-0.275636
0.347562
0.266379
0.182429
0.0956292
0.00667338
-0.0840408
-0.176045
-0.268724
0.338213
0.258908
0.17699
0.0923543
0.00576003
-0.0824933
-0.17188
-0.261827
0.329093
0.251656
0.171748
0.089254
0.00498227
-0.0808506
-0.167665
-0.254938
0.320216
0.244634
0.166718
0.0863389
0.00434736
-0.0791063
-0.163398
-0.248056
0.29458
0.22443
0.152329
0.0781405
0.0027722
-0.0737561
-0.150727
-0.227798
0.255494
0.194018
0.131071
0.0665743
0.0013434
-0.0646012
-0.130574
-0.196308
0.219396
0.166245
0.111995
0.0566365
0.000849877
-0.0553049
-0.111246
-0.166712
0.18561
0.14041
0.0943876
0.0476106
0.000591481
-0.046543
-0.0933351
-0.139524
0.153593
0.116001
0.0778146
0.0391252
0.000324857
-0.0384338
-0.0767977
-0.114525
0.122905
0.0925963
0.0618716
0.0308326
-0.000236381
-0.0311746
-0.0617176
-0.0916576
0.0932031
0.0699123
0.0463454
0.0225978
-0.00112268
-0.0246819
-0.0478857
-0.0705655
0.0641759
0.0476748
0.0310193
0.0142774
-0.00240987
-0.0189373
-0.035174
-0.0509996
0.035575
0.0257092
0.0157799
0.00584707
-0.00402421
-0.0137579
-0.0232892
-0.0325395
0.00720174
0.00387773
0.00057195
-0.00267407
-0.00585769
-0.00894537
-0.0119258
-0.0147699
2451.78
2841.89
3214.61
3570.47
3907.78
4219.88
4500.55
4743.49
4942.01
5089.89
5181.34
5209.74
5172.71
5071.96
4905.59
4675.38
4386.66
4046.92
3664.93
3252.36
2822.59
2388.26
1960.83
1549.85
1162.83
805.28
480.98
191.921
-61.2694
-279.343
-463.996
-617.464
-742.549
-841.818
-917.459
-971.33
-1004.98
-1019.8
-1018.02
-1000.79
-969.509
-925.55
-870.318
-805.311
-732.104
-652.361
-567.875
-480.505
-392.181
-304.9
-220.641
-141.261
-68.3554
-3.18913
53.3713
100.959
139.704
170.278
193.791
211.457
224.988
237.387
250.384
265.513
284.725
308.988
338.783
373.975
413.832
457.131
502.386
548.015
592.478
634.385
672.644
706.467
735.656
760.336
781.011
797.964
812.066
823.509
832.219
837.641
838.623
833.489
820.328
797.065
761.7
712.685
649.371
572.36
483.289
385.213
282.057
178.802
81.0863
-5.4896
-76.1401
-126.588
-154.549
-159.679
-143.669
-109.85
-62.5103
-7.29658
49.389
101.378
143.446
171.472
182.733
176.6
153.896
116.243
66.5716
9.16713
-47.8696
-100.881
-144.89
-174.717
-186.716
-179.037
-152.309
-108.818
-53.9166
4.5013
59.3769
102.348
127.122
130.305
111.871
75.4193
26.7126
-24.359
-67.6255
-95.5065
-103.831
-92.5775
-66.4436
-32.6272
1.57361
29.8516
47.9503
54.4991
50.264
37.0788
17.7389
-4.05147
-24.3921
-39.2051
-43.6255
-35.4602
-14.6557
15.9849
48.9538
75.7827
2451.85
2841.89
3214.61
3570.47
3907.78
4219.88
4500.55
4743.5
4942.01
5089.9
5181.34
5209.75
5172.72
5071.97
4905.6
4675.38
4386.67
4046.92
3664.94
3252.36
2822.59
2388.26
1960.82
1549.85
1162.82
805.275
480.976
191.917
-61.2735
-279.347
-464
-617.468
-742.552
-841.821
-917.461
-971.332
-1004.98
-1019.8
-1018.02
-1000.79
-969.511
-925.551
-870.319
-805.312
-732.105
-652.361
-567.875
-480.505
-392.181
-304.9
-220.64
-141.26
-68.3547
-3.18833
53.3721
100.96
139.704
170.279
193.792
211.457
224.988
237.387
250.384
265.512
284.724
308.987
338.783
373.974
413.831
457.131
502.386
548.015
592.479
634.385
672.645
706.467
735.657
760.336
781.011
797.964
812.066
823.509
832.219
837.642
838.623
833.49
820.329
797.066
761.702
712.687
649.372
572.361
483.29
385.213
282.057
178.801
81.0851
-5.49133
-76.1423
-126.59
-154.551
-159.682
-143.671
-109.851
-62.5112
-7.29681
49.3894
101.379
143.448
171.474
182.735
176.602
153.898
116.244
66.5723
9.16727
-47.87
-100.882
-144.891
-174.719
-186.719
-179.039
-152.31
-108.82
-53.917
4.5017
59.3781
102.349
127.124
130.307
111.873
75.4205
26.7127
-24.3599
-67.6271
-95.5084
-103.833
-92.579
-66.4444
-32.6273
1.57419
29.8526
47.9515
54.5003
50.265
37.0794
17.7392
-4.05166
-24.3927
-39.2062
-43.6268
-35.4615
-14.6566
15.9847
48.9544
75.7841
2451.84
2841.89
3214.61
3570.48
3907.79
4219.89
4500.56
4743.51
4942.03
5089.91
5181.36
5209.77
5172.73
5071.98
4905.61
4675.39
4386.68
4046.93
3664.94
3252.36
2822.59
2388.26
1960.82
1549.84
1162.81
805.267
480.967
191.908
-61.282
-279.355
-464.007
-617.474
-742.558
-841.826
-917.466
-971.336
-1004.98
-1019.81
-1018.02
-1000.79
-969.513
-925.554
-870.322
-805.314
-732.106
-652.362
-567.876
-480.505
-392.181
-304.899
-220.639
-141.259
-68.3532
-3.18671
53.3738
100.961
139.706
170.28
193.793
211.457
224.988
237.387
250.383
265.511
284.723
308.986
338.781
373.973
413.831
457.131
502.386
548.016
592.479
634.386
672.646
706.468
735.658
760.337
781.012
797.965
812.066
823.51
832.22
837.643
838.625
833.492
820.331
797.068
761.705
712.69
649.375
572.364
483.291
385.214
282.057
178.8
81.0826
-5.49479
-76.1465
-126.595
-154.556
-159.686
-143.675
-109.854
-62.513
-7.29728
49.3902
101.381
143.45
171.477
182.738
176.605
153.901
116.246
66.5736
9.16756
-47.8709
-100.884
-144.894
-174.723
-186.723
-179.044
-152.314
-108.822
-53.9179
4.50248
59.3805
102.353
127.128
130.311
111.877
75.4227
26.713
-24.3615
-67.6302
-95.5124
-103.837
-92.582
-66.4461
-32.6274
1.57536
29.8546
47.9539
54.5025
50.2668
37.0806
17.7396
-4.05204
-24.3939
-39.2083
-43.6294
-35.4641
-14.6585
15.9843
48.9556
75.7868
2451.92
2841.9
3214.62
3570.48
3907.79
4219.9
4500.57
4743.52
4942.04
5089.92
5181.38
5209.79
5172.75
5072
4905.63
4675.41
4386.69
4046.94
3664.95
3252.36
2822.59
2388.25
1960.81
1549.83
1162.8
805.253
480.953
191.895
-61.2946
-279.367
-464.018
-617.484
-742.567
-841.834
-917.473
-971.343
-1004.99
-1019.81
-1018.03
-1000.8
-969.518
-925.557
-870.325
-805.317
-732.108
-652.364
-567.877
-480.505
-392.18
-304.899
-220.638
-141.257
-68.351
-3.18424
53.3763
100.964
139.708
170.282
193.794
211.458
224.988
237.386
250.382
265.51
284.721
308.984
338.779
373.972
413.829
457.13
502.386
548.016
592.48
634.387
672.647
706.47
735.659
760.338
781.013
797.965
812.067
823.511
832.221
837.644
838.626
833.494
820.335
797.072
761.709
712.695
649.379
572.368
483.294
385.216
282.057
178.798
81.079
-5.49994
-76.1529
-126.602
-154.564
-159.693
-143.681
-109.858
-62.5156
-7.29794
49.3914
101.384
143.455
171.482
182.743
176.611
153.906
116.25
66.5757
9.168
-47.8723
-100.887
-144.899
-174.728
-186.729
-179.05
-152.319
-108.826
-53.9192
4.50368
59.3842
102.359
127.135
130.318
111.882
75.426
26.7135
-24.3639
-67.635
-95.5183
-103.843
-92.5866
-66.4485
-32.6277
1.57713
29.8577
47.9574
54.5059
50.2696
37.0824
17.7403
-4.05259
-24.3958
-39.2115
-43.6332
-35.4681
-14.6614
15.9836
48.9576
75.791
2451.91
2841.89
3214.62
3570.49
3907.8
4219.91
4500.59
4743.54
4942.06
5089.95
5181.4
5209.82
5172.78
5072.03
4905.66
4675.43
4386.71
4046.95
3664.95
3252.37
2822.59
2388.24
1960.8
1549.81
1162.78
805.236
480.936
191.877
-61.3113
-279.382
-464.032
-617.496
-742.578
-841.844
-917.483
-971.352
-1005
-1019.82
-1018.03
-1000.8
-969.523
-925.562
-870.329
-805.32
-732.111
-652.366
-567.878
-480.506
-392.18
-304.897
-220.636
-141.255
-68.3479
-3.18091
53.3797
100.967
139.711
170.284
193.796
211.459
224.988
237.385
250.38
265.508
284.718
308.981
338.777
373.97
413.828
457.129
502.386
548.016
592.481
634.389
672.649
706.472
735.661
760.34
781.015
797.967
812.068
823.512
832.222
837.646
838.629
833.498
820.339
797.078
761.715
712.701
649.385
572.373
483.298
385.218
282.057
178.795
81.0743
-5.5068
-76.1614
-126.612
-154.573
-159.702
-143.688
-109.864
-62.519
-7.29874
49.3932
101.388
143.46
171.489
182.751
176.618
153.912
116.255
66.5785
9.16861
-47.874
-100.891
-144.905
-174.736
-186.737
-179.058
-152.326
-108.83
-53.9209
4.5053
59.3891
102.366
127.144
130.327
111.89
75.4305
26.7141
-24.3671
-67.6412
-95.5261
-103.851
-92.5927
-66.4518
-32.628
1.5795
29.8618
47.9622
54.5105
50.2732
37.0849
17.7412
-4.05331
-24.3983
-39.2157
-43.6383
-35.4734
-14.6651
15.9827
48.9601
75.7965
2451.99
2841.9
3214.63
3570.5
3907.81
4219.92
4500.61
4743.56
4942.09
5089.98
5181.43
5209.86
5172.81
5072.06
4905.69
4675.46
4386.74
4046.97
3664.96
3252.37
2822.58
2388.23
1960.78
1549.79
1162.76
805.214
480.913
191.855
-61.3322
-279.402
-464.049
-617.512
-742.592
-841.857
-917.494
-971.362
-1005.01
-1019.83
-1018.04
-1000.81
-969.53
-925.568
-870.334
-805.325
-732.115
-652.369
-567.88
-480.506
-392.18
-304.896
-220.634
-141.251
-68.3442
-3.17675
53.384
100.971
139.715
170.287
193.798
211.46
224.988
237.384
250.378
265.505
284.715
308.978
338.774
373.967
413.826
457.128
502.385
548.017
592.483
634.391
672.651
706.474
735.664
760.342
781.017
797.968
812.07
823.513
832.224
837.648
838.632
833.502
820.344
797.084
761.722
712.708
649.393
572.379
483.303
385.22
282.057
178.792
81.0683
-5.51537
-76.1719
-126.624
-154.586
-159.714
-143.698
-109.871
-62.5232
-7.29979
49.3953
101.393
143.467
171.498
182.76
176.627
153.92
116.261
66.582
9.16937
-47.8763
-100.896
-144.912
-174.745
-186.747
-179.068
-152.334
-108.836
-53.923
4.50732
59.3953
102.376
127.155
130.338
111.899
75.4361
26.7149
-24.3711
-67.6491
-95.5359
-103.861
-92.6003
-66.4559
-32.6283
1.58246
29.867
47.9682
54.5162
50.2779
37.0879
17.7424
-4.0542
-24.4013
-39.221
-43.6446
-35.48
-14.6698
15.9817
48.9633
75.8033
2452
2841.9
3214.63
3570.51
3907.83
4219.94
4500.63
4743.59
4942.12
5090.01
5181.47
5209.9
5172.85
5072.1
4905.73
4675.5
4386.76
4046.99
3664.98
3252.37
2822.58
2388.22
1960.76
1549.77
1162.74
805.187
480.887
191.829
-61.3573
-279.425
-464.071
-617.531
-742.609
-841.873
-917.509
-971.376
-1005.02
-1019.84
-1018.05
-1000.82
-969.538
-925.576
-870.341
-805.33
-732.119
-652.372
-567.881
-480.507
-392.179
-304.894
-220.631
-141.248
-68.3396
-3.17177
53.3891
100.976
139.719
170.291
193.801
211.462
224.989
237.383
250.376
265.502
284.711
308.974
338.77
373.964
413.823
457.127
502.385
548.018
592.484
634.393
672.654
706.477
735.666
760.344
781.019
797.97
812.071
823.515
832.226
837.651
838.636
833.507
820.351
797.092
761.731
712.717
649.401
572.387
483.308
385.223
282.056
178.789
81.0611
-5.52566
-76.1847
-126.638
-154.6
-159.727
-143.71
-109.88
-62.5285
-7.30113
49.3977
101.398
143.476
171.508
182.77
176.637
153.929
116.268
66.5862
9.17028
-47.8789
-100.902
-144.921
-174.757
-186.76
-179.08
-152.345
-108.844
-53.9256
4.50975
59.4026
102.387
127.169
130.352
111.91
75.4429
26.7159
-24.3759
-67.6585
-95.5476
-103.873
-92.6094
-66.4608
-32.6288
1.58602
29.8732
47.9754
54.523
50.2834
37.0915
17.7438
-4.05528
-24.405
-39.2274
-43.6522
-35.4879
-14.6754
15.9804
48.9672
75.8116
2452.05
2841.91
3214.64
3570.52
3907.84
4219.96
4500.65
4743.62
4942.16
5090.06
5181.52
5209.95
5172.9
5072.15
4905.77
4675.54
4386.8
4047.01
3664.99
3252.37
2822.57
2388.2
1960.74
1549.75
1162.71
805.156
480.855
191.799
-61.3866
-279.452
-464.095
-617.554
-742.629
-841.891
-917.525
-971.391
-1005.03
-1019.85
-1018.06
-1000.83
-969.548
-925.584
-870.348
-805.336
-732.124
-652.375
-567.884
-480.508
-392.178
-304.892
-220.627
-141.243
-68.3343
-3.16597
53.3951
100.982
139.724
170.295
193.804
211.464
224.989
237.382
250.374
265.498
284.707
308.969
338.766
373.96
413.821
457.125
502.385
548.019
592.486
634.396
672.657
706.48
735.67
760.347
781.022
797.972
812.073
823.517
832.229
837.655
838.641
833.513
820.359
797.101
761.741
712.728
649.412
572.396
483.315
385.227
282.056
178.784
81.0527
-5.53767
-76.1995
-126.655
-154.617
-159.743
-143.724
-109.89
-62.5345
-7.30266
49.4006
101.405
143.486
171.521
182.783
176.65
153.94
116.276
66.5911
9.17135
-47.882
-100.909
-144.932
-174.77
-186.774
-179.094
-152.357
-108.852
-53.9286
4.51258
59.4112
102.4
127.185
130.368
111.923
75.4507
26.717
-24.3816
-67.6695
-95.5613
-103.887
-92.62
-66.4665
-32.6293
1.59018
29.8804
47.9838
54.531
50.2899
37.0958
17.7455
-4.05653
-24.4093
-39.2348
-43.6611
-35.4971
-14.682
15.9789
48.9717
75.8212
2452.08
2841.91
3214.65
3570.53
3907.86
4219.98
4500.68
4743.65
4942.2
5090.1
5181.57
5210.01
5172.95
5072.21
4905.83
4675.58
4386.83
4047.04
3665.01
3252.38
2822.56
2388.19
1960.72
1549.72
1162.67
805.121
480.819
191.763
-61.42
-279.483
-464.124
-617.579
-742.652
-841.911
-917.544
-971.408
-1005.05
-1019.87
-1018.08
-1000.84
-969.559
-925.594
-870.357
-805.343
-732.13
-652.38
-567.886
-480.509
-392.178
-304.89
-220.624
-141.238
-68.3283
-3.15933
53.4019
100.989
139.73
170.3
193.807
211.465
224.989
237.381
250.371
265.494
284.702
308.964
338.761
373.956
413.817
457.123
502.384
548.02
592.488
634.399
672.661
706.484
735.674
760.351
781.025
797.974
812.076
823.519
832.231
837.658
838.646
833.52
820.367
797.111
761.752
712.74
649.423
572.406
483.323
385.231
282.056
178.779
81.0431
-5.55138
-76.2164
-126.674
-154.637
-159.761
-143.739
-109.902
-62.5414
-7.30439
49.4039
101.413
143.497
171.534
182.797
176.664
153.952
116.286
66.5967
9.17257
-47.8856
-100.917
-144.944
-174.785
-186.791
-179.11
-152.371
-108.862
-53.9321
4.51582
59.4211
102.415
127.203
130.386
111.938
75.4597
26.7183
-24.388
-67.6821
-95.577
-103.903
-92.6322
-66.473
-32.6299
1.59492
29.8886
47.9933
54.5401
50.2973
37.1006
17.7474
-4.05797
-24.4142
-39.2432
-43.6713
-35.5076
-14.6895
15.9772
48.9768
75.8322
2452.13
2841.92
3214.66
3570.54
3907.88
4220.01
4500.71
4743.69
4942.25
5090.16
5181.63
5210.08
5173.01
5072.27
4905.88
4675.63
4386.88
4047.07
3665.02
3252.38
2822.56
2388.17
1960.69
1549.68
1162.64
805.081
480.779
191.724
-61.4577
-279.518
-464.156
-617.608
-742.678
-841.935
-917.565
-971.428
-1005.07
-1019.88
-1018.09
-1000.85
-969.571
-925.605
-870.366
-805.351
-732.136
-652.384
-567.889
-480.51
-392.177
-304.887
-220.619
-141.232
-68.3215
-3.15187
53.4096
100.996
139.737
170.306
193.812
211.468
224.989
237.379
250.367
265.489
284.696
308.958
338.755
373.951
413.814
457.121
502.384
548.021
592.491
634.402
672.665
706.489
735.678
760.355
781.029
797.977
812.078
823.522
832.234
837.663
838.652
833.528
820.377
797.123
761.766
712.754
649.436
572.417
483.331
385.235
282.056
178.774
81.0324
-5.56682
-76.2355
-126.695
-154.659
-159.782
-143.757
-109.915
-62.5492
-7.30634
49.4076
101.422
143.51
171.55
182.813
176.68
153.966
116.297
66.6029
9.17393
-47.8896
-100.927
-144.958
-174.802
-186.809
-179.128
-152.386
-108.872
-53.9359
4.51946
59.4321
102.432
127.223
130.406
111.955
75.4698
26.7197
-24.3952
-67.6962
-95.5946
-103.921
-92.6459
-66.4804
-32.6305
1.60026
29.8979
48.0041
54.5503
50.3056
37.106
17.7495
-4.05958
-24.4197
-39.2528
-43.6827
-35.5195
-14.6979
15.9753
48.9826
75.8446
2452.16
2841.93
3214.67
3570.56
3907.9
4220.04
4500.75
4743.74
4942.3
5090.22
5181.7
5210.15
5173.08
5072.34
4905.95
4675.69
4386.92
4047.11
3665.04
3252.39
2822.55
2388.15
1960.66
1549.64
1162.6
805.037
480.735
191.68
-61.4996
-279.557
-464.191
-617.64
-742.707
-841.961
-917.589
-971.449
-1005.09
-1019.9
-1018.11
-1000.87
-969.585
-925.617
-870.377
-805.36
-732.143
-652.39
-567.893
-480.511
-392.176
-304.884
-220.614
-141.226
-68.3139
-3.14358
53.4181
101.004
139.744
170.312
193.816
211.47
224.99
237.377
250.363
265.484
284.69
308.952
338.749
373.946
413.81
457.119
502.383
548.022
592.493
634.406
672.67
706.494
735.683
760.359
781.033
797.98
812.081
823.525
832.238
837.667
838.658
833.537
820.388
797.136
761.78
712.769
649.451
572.43
483.341
385.24
282.055
178.767
81.0204
-5.58396
-76.2567
-126.719
-154.683
-159.805
-143.776
-109.93
-62.5578
-7.30849
49.4118
101.432
143.524
171.567
182.831
176.698
153.982
116.308
66.6099
9.17546
-47.894
-100.937
-144.973
-174.821
-186.83
-179.149
-152.403
-108.884
-53.9402
4.5235
59.4444
102.451
127.246
130.429
111.973
75.4811
26.7213
-24.4032
-67.7119
-95.6142
-103.941
-92.6611
-66.4885
-32.6313
1.6062
29.9082
48.0161
54.5617
50.3148
37.1121
17.7519
-4.06137
-24.4258
-39.2633
-43.6954
-35.5327
-14.7073
15.9731
48.989
75.8584
2452.21
2841.94
3214.68
3570.58
3907.92
4220.07
4500.79
4743.79
4942.35
5090.28
5181.77
5210.23
5173.16
5072.41
4906.02
4675.75
4386.97
4047.14
3665.07
3252.39
2822.54
2388.12
1960.62
1549.6
1162.55
804.988
480.685
191.632
-61.5456
-279.6
-464.23
-617.675
-742.738
-841.989
-917.615
-971.473
-1005.11
-1019.92
-1018.13
-1000.89
-969.6
-925.63
-870.388
-805.37
-732.151
-652.395
-567.896
-480.512
-392.175
-304.881
-220.609
-141.219
-68.3056
-3.13445
53.4275
101.013
139.752
170.318
193.821
211.473
224.99
237.375
250.359
265.478
284.683
308.944
338.742
373.94
413.806
457.116
502.383
548.023
592.496
634.411
672.675
706.499
735.688
760.363
781.038
797.983
812.084
823.528
832.242
837.672
838.665
833.546
820.4
797.15
761.796
712.786
649.467
572.444
483.351
385.246
282.055
178.761
81.0072
-5.60283
-76.28
-126.745
-154.71
-159.83
-143.798
-109.946
-62.5673
-7.31087
49.4164
101.442
143.539
171.587
182.851
176.717
153.999
116.322
66.6176
9.17713
-47.8989
-100.948
-144.989
-174.841
-186.853
-179.171
-152.422
-108.897
-53.9449
4.52795
59.4579
102.472
127.271
130.454
111.994
75.4934
26.7231
-24.4121
-67.7292
-95.6357
-103.963
-92.6778
-66.4975
-32.6321
1.61273
29.9196
48.0293
54.5743
50.325
37.1188
17.7545
-4.06334
-24.4326
-39.275
-43.7094
-35.5472
-14.7176
15.9708
48.9961
75.8735
2452.25
2841.94
3214.7
3570.6
3907.95
4220.1
4500.83
4743.84
4942.42
5090.35
5181.85
5210.32
5173.24
5072.5
4906.1
4675.82
4387.03
4047.19
3665.09
3252.4
2822.53
2388.1
1960.59
1549.56
1162.5
804.935
480.632
191.579
-61.5959
-279.647
-464.273
-617.713
-742.772
-842.02
-917.643
-971.499
-1005.13
-1019.94
-1018.15
-1000.9
-969.616
-925.645
-870.401
-805.381
-732.16
-652.402
-567.9
-480.514
-392.174
-304.878
-220.603
-141.211
-68.2965
-3.1245
53.4377
101.023
139.761
170.326
193.826
211.476
224.99
237.373
250.355
265.472
284.676
308.937
338.735
373.933
413.801
457.113
502.382
548.025
592.5
634.415
672.681
706.505
735.694
760.369
781.042
797.987
812.087
823.532
832.246
837.678
838.673
833.556
820.413
797.166
761.814
712.804
649.485
572.459
483.362
385.252
282.054
178.753
80.9928
-5.62341
-76.3054
-126.774
-154.739
-159.857
-143.821
-109.964
-62.5776
-7.31346
49.4213
101.454
143.556
171.607
182.872
176.738
154.018
116.336
66.626
9.17896
-47.9042
-100.96
-145.008
-174.864
-186.878
-179.195
-152.443
-108.912
-53.9501
4.5328
59.4727
102.495
127.298
130.481
112.016
75.5069
26.725
-24.4217
-67.7481
-95.6592
-103.987
-92.696
-66.5073
-32.633
1.61985
29.9319
48.0436
54.5879
50.3361
37.126
17.7573
-4.06549
-24.4399
-39.2877
-43.7246
-35.563
-14.7289
15.9682
49.0038
75.8901
2452.29
2841.95
3214.71
3570.62
3907.98
4220.14
4500.88
4743.9
4942.49
5090.43
5181.93
5210.41
5173.32
5072.59
4906.18
4675.9
4387.09
4047.23
3665.12
3252.41
2822.51
2388.07
1960.55
1549.51
1162.44
804.878
480.574
191.522
-61.6503
-279.697
-464.319
-617.754
-742.809
-842.054
-917.674
-971.527
-1005.16
-1019.97
-1018.17
-1000.92
-969.634
-925.661
-870.415
-805.393
-732.169
-652.409
-567.904
-480.515
-392.173
-304.874
-220.597
-141.203
-68.2867
-3.11372
53.4488
101.034
139.771
170.334
193.832
211.479
224.991
237.371
250.35
265.465
284.668
308.928
338.726
373.927
413.796
457.11
502.381
548.026
592.503
634.42
672.687
706.512
735.7
760.374
781.048
797.991
812.091
823.535
832.251
837.684
838.681
833.568
820.427
797.183
761.832
712.823
649.504
572.476
483.375
385.258
282.054
178.745
80.9773
-5.6457
-76.333
-126.805
-154.771
-159.887
-143.846
-109.982
-62.5888
-7.31626
49.4267
101.467
143.574
171.63
182.896
176.761
154.038
116.351
66.6351
9.18093
-47.91
-100.973
-145.027
-174.888
-186.905
-179.222
-152.465
-108.927
-53.9557
4.53805
59.4886
102.519
127.327
130.51
112.04
75.5215
26.7271
-24.4321
-67.7685
-95.6846
-104.014
-92.7158
-66.5179
-32.6339
1.62757
29.9453
48.0592
54.6027
50.3481
37.1339
17.7604
-4.06782
-24.4479
-39.3014
-43.7411
-35.5801
-14.7411
15.9654
49.0121
75.908
2452.35
2841.97
3214.73
3570.65
3908.02
4220.2
4500.96
4743.99
4942.59
5090.55
5182.07
5210.57
5173.47
5072.73
4906.32
4676.02
4387.19
4047.3
3665.16
3252.42
2822.5
2388.03
1960.48
1549.43
1162.36
804.785
480.48
191.43
-61.7381
-279.779
-464.393
-617.821
-742.869
-842.108
-917.723
-971.573
-1005.2
-1020
-1018.2
-1000.96
-969.663
-925.687
-870.437
-805.411
-732.184
-652.42
-567.911
-480.518
-392.171
-304.868
-220.587
-141.19
-68.2708
-3.0963
53.4667
101.051
139.787
170.347
193.842
211.484
224.991
237.367
250.342
265.454
284.655
308.914
338.713
373.915
413.787
457.106
502.38
548.029
592.509
634.429
672.696
706.522
735.71
760.383
781.056
797.997
812.097
823.541
832.258
837.694
838.695
833.586
820.45
797.21
761.863
712.855
649.534
572.502
483.394
385.269
282.053
178.732
80.9521
-5.68171
-76.3775
-126.855
-154.822
-159.935
-143.887
-110.013
-62.6069
-7.32078
49.4355
101.487
143.604
171.666
182.933
176.799
154.071
116.376
66.6497
9.18413
-47.9193
-100.994
-145.059
-174.928
-186.948
-179.264
-152.501
-108.953
-53.9647
4.54655
59.5145
102.559
127.375
130.557
112.079
75.5451
26.7305
-24.449
-67.8015
-95.7258
-104.056
-92.7477
-66.5351
-32.6355
1.64004
29.967
48.0843
54.6266
50.3675
37.1466
17.7653
-4.07161
-24.4608
-39.3237
-43.7679
-35.6079
-14.7608
15.9609
49.0256
75.9369
2452.44
2841.99
3214.77
3570.7
3908.09
4220.29
4501.07
4744.13
4942.76
5090.74
5182.28
5210.81
5173.68
5072.95
4906.52
4676.2
4387.34
4047.41
3665.22
3252.44
2822.47
2387.96
1960.39
1549.31
1162.22
804.644
480.337
191.29
-61.8719
-279.904
-464.506
-617.923
-742.961
-842.19
-917.799
-971.642
-1005.26
-1020.06
-1018.26
-1001
-969.707
-925.726
-870.471
-805.44
-732.207
-652.436
-567.922
-480.522
-392.168
-304.858
-220.572
-141.169
-68.2466
-3.06976
53.4939
101.077
139.81
170.366
193.856
211.492
224.992
237.361
250.33
265.437
284.635
308.893
338.693
373.898
413.775
457.098
502.379
548.033
592.518
634.441
672.711
706.538
735.725
760.396
781.069
798.007
812.106
823.551
832.269
837.709
838.716
833.613
820.485
797.252
761.909
712.904
649.581
572.543
483.425
385.285
282.052
178.712
80.9138
-5.7366
-76.4453
-126.931
-154.9
-160.008
-143.95
-110.06
-62.6345
-7.32765
49.4488
101.518
143.649
171.722
182.991
176.855
154.121
116.415
66.6721
9.189
-47.9335
-101.027
-145.107
-174.988
-187.014
-179.329
-152.556
-108.991
-53.9784
4.5595
59.5538
102.619
127.447
130.63
112.139
75.5811
26.7356
-24.4747
-67.8518
-95.7884
-104.119
-92.7963
-66.5612
-32.6378
1.65906
30
48.1228
54.6632
50.3971
37.166
17.7729
-4.0773
-24.4804
-39.3575
-43.8083
-35.65
-14.7908
15.9541
49.0462
75.981
2452.53
2842.01
3214.81
3570.75
3908.16
4220.39
4501.2
4744.3
4942.95
5090.96
5182.51
5211.07
5173.92
5073.2
4906.76
4676.4
4387.51
4047.54
3665.3
3252.46
2822.44
2387.88
1960.28
1549.18
1162.07
804.485
480.176
191.132
-62.0226
-280.044
-464.634
-618.038
-743.064
-842.283
-917.884
-971.721
-1005.34
-1020.13
-1018.32
-1001.06
-969.756
-925.77
-870.51
-805.472
-732.233
-652.455
-567.933
-480.526
-392.165
-304.848
-220.555
-141.147
-68.2194
-3.03989
53.5246
101.107
139.837
170.388
193.872
211.501
224.993
237.354
250.317
265.418
284.612
308.87
338.671
373.879
413.76
457.09
502.377
548.037
592.528
634.455
672.728
706.555
735.742
760.412
781.084
798.018
812.116
823.561
832.282
837.726
838.739
833.644
820.524
797.298
761.962
712.958
649.634
572.589
483.459
385.303
282.051
178.69
80.8707
-5.79835
-76.5216
-127.017
-154.987
-160.09
-144.02
-110.112
-62.6655
-7.33541
49.4637
101.554
143.7
171.785
183.055
176.919
154.177
116.458
66.6972
9.19448
-47.9495
-101.063
-145.162
-175.056
-187.089
-179.402
-152.618
-109.034
-53.9939
4.57406
59.5981
102.687
127.528
130.711
112.206
75.6215
26.7414
-24.5036
-67.9085
-95.859
-104.193
-92.8511
-66.5907
-32.6404
1.68043
30.0371
48.1657
54.7039
50.4303
37.1878
17.7813
-4.08381
-24.5025
-39.3957
-43.8543
-35.6977
-14.8246
15.9464
49.0692
76.0305
2452.62
2842.04
3214.86
3570.82
3908.25
4220.51
4501.35
4744.47
4943.16
5091.2
5182.78
5211.36
5174.19
5073.47
4907.02
4676.63
4387.69
4047.67
3665.38
3252.48
2822.4
2387.8
1960.15
1549.03
1161.9
804.309
479.998
190.957
-62.1901
-280.2
-464.776
-618.165
-743.178
-842.387
-917.978
-971.807
-1005.42
-1020.2
-1018.38
-1001.12
-969.811
-925.818
-870.552
-805.508
-732.261
-652.476
-567.946
-480.531
-392.161
-304.836
-220.536
-141.121
-68.1892
-3.00671
53.5587
101.14
139.867
170.413
193.89
211.511
224.994
237.347
250.302
265.397
284.587
308.843
338.646
373.858
413.745
457.081
502.375
548.042
592.539
634.471
672.747
706.575
735.762
760.429
781.1
798.03
812.127
823.573
832.296
837.745
838.765
833.678
820.568
797.35
762.02
713.019
649.692
572.64
483.497
385.323
282.05
178.665
80.8228
-5.86696
-76.6064
-127.112
-155.085
-160.182
-144.098
-110.171
-62.7
-7.34405
49.4803
101.593
143.756
171.854
183.127
176.99
154.239
116.505
66.7252
9.20057
-47.9672
-101.104
-145.222
-175.131
-187.171
-179.482
-152.687
-109.082
-54.011
4.59024