/*--------------------------------*- C++ -*----------------------------------*\
| =========                 |                                                 |
| \\      /  F ield         | OpenFOAM: The Open Source CFD Toolbox           |
|  \\    /   O peration     | Version:  v1912                                 |
|   \\  /    A nd           | Website:  www.openfoam.com                      |
|    \\/     M anipulation  |                                                 |
\*---------------------------------------------------------------------------*/
FoamFile
{
    version     2.0;
    format      ascii;
    class       volVectorField;
    location    "60";
    object      U;
}
// * * * * * * * * * * * * * * * * * * * * * * * * * * * * * * * * * * * * * //

dimensions      [0 1 -1 0 0 0 0];


internalField   nonuniform List<vector> 
14268
(
(-0.0424867 -0.00236529 0)
(0.00619076 6.4635e-05 -1.64558e-25)
(0.055654 0.00253277 1.61637e-25)
(0.106421 0.0050706 0)
(0.158766 0.00764847 0)
(0.212773 0.0104754 0)
(0.271202 0.0128364 0)
(0.332217 0.0172813 0)
(-0.0422454 -0.00288029 0)
(0.00637635 -0.000465692 -4.50223e-25)
(0.0557813 0.00198527 4.34086e-25)
(0.106487 0.0044912 0)
(0.158766 0.00710564 0)
(0.212738 0.00962956 0)
(0.270947 0.0129536 0)
(0.331709 0.0148374 0)
(-0.0422525 -0.00334258 0)
(0.00636941 -0.000936274 0)
(0.0557743 0.00150604 7.05809e-25)
(0.10648 0.00401274 0)
(0.158761 0.00655311 0)
(0.212721 0.0093103 0)
(0.270932 0.0115849 0)
(0.331754 0.0158495 0)
(-0.0422077 -0.00388379 1.05161e-24)
(0.00641535 -0.00149014 0)
(0.0558213 0.000939296 1.02491e-24)
(0.106529 0.00341858 -9.76174e-25)
(0.158808 0.00599266 0)
(0.212784 0.00849076 0)
(0.270892 0.0115802 0)
(0.331691 0.0139548 0)
(-0.0421619 -0.00435127 1.36797e-24)
(0.00646103 -0.00196758 0)
(0.0558679 0.000448602 0)
(0.106577 0.00292372 -8.3519e-31)
(0.158859 0.00542894 0)
(0.212826 0.00811608 0)
(0.270919 0.0103927 0)
(0.331676 0.0143535 0)
(-0.0421123 -0.00486661 0)
(0.00651164 -0.00249303 0)
(0.0559193 -8.59213e-05 0)
(0.10663 0.00236595 1.52374e-24)
(0.158911 0.00489709 0)
(0.21289 0.00737723 0)
(0.270903 0.0101718 0)
(0.331652 0.0130978 0)
(-0.0420636 -0.00535859 -2.05093e-24)
(0.00656139 -0.0029963 0)
(0.0559703 -0.000603719 0)
(0.106682 0.00184196 0)
(0.158966 0.00431818 0)
(0.21294 0.00692033 -1.50748e-24)
(0.270918 0.00923857 0)
(0.331631 0.0128704 0)
(-0.0420139 -0.00585864 -2.35965e-24)
(0.0066118 -0.00350371 -2.2671e-24)
(0.0560217 -0.00112013 0)
(0.106736 0.0013045 0)
(0.159019 0.00378953 0)
(0.213001 0.00625701 -1.72526e-24)
(0.270918 0.00874672 0)
(0.331619 0.0121845 0)
(-0.0419612 -0.00636252 0)
(0.0066654 -0.0040193 -2.58546e-24)
(0.0560762 -0.00165173 2.48828e-24)
(0.106791 0.000762469 0)
(0.159075 0.00320962 0)
(0.213057 0.00573715 0)
(0.270927 0.00806074 0)
(0.331673 0.0114873 0)
(-0.0418886 -0.00684085 0)
(0.00674001 -0.00450969 0)
(0.0561501 -0.00214738 2.78386e-24)
(0.106865 0.000253145 0)
(0.159148 0.00268988 0)
(0.213136 0.00513177 0)
(0.270954 0.00744991 0)
(0.331979 0.0111757 4.35565e-24)
(-0.0417568 -0.00737983 0)
(0.00688177 -0.00505395 0)
(0.0563062 -0.00270942 0)
(0.107033 -0.000326776 0)
(0.159322 0.00209568 0)
(0.213314 0.00455738 0)
(0.271116 0.00673608 0)
(0.333185 0.010334 3.66711e-24)
(-0.0417323 -0.00779662 3.5663e-24)
(0.00695225 -0.00548066 0)
(0.0564218 -0.00314174 0)
(0.107195 -0.000765298 0)
(0.159526 0.00162839 0)
(0.213553 0.00404207 0)
(0.271415 0.00621472 0)
(0.334848 0.010041 0)
(-0.0426639 -0.00841632 -7.79691e-31)
(0.00601289 -0.00612216 0)
(0.0554968 -0.00379378 0)
(0.106281 -0.00144251 0)
(0.158594 0.000931703 0)
(0.212493 0.00333171 0)
(0.270265 0.00535798 0)
(0.334728 0.00933525 0)
(-0.0445798 -0.00901703 -5.56247e-24)
(0.00384355 -0.00672368 0)
(0.0529718 -0.00442623 0)
(0.103327 -0.00209164 0)
(0.155081 0.000255558 0)
(0.208078 0.00258784 0)
(0.264909 0.00455874 0)
(0.328892 0.00854112 0)
(-0.0447444 -0.0108159 0)
(0.00362026 -0.00846962 0)
(0.052714 -0.00609177 -2.09482e-25)
(0.103049 -0.003694 0)
(0.154769 -0.00120443 0)
(0.207681 0.0012152 0)
(0.264422 0.00313961 0)
(0.326167 0.00693273 0)
(-0.0427056 -0.0138172 0)
(0.00575392 -0.0111827 0)
(0.0549801 -0.00851348 1.26361e-24)
(0.105515 -0.00581015 0)
(0.157541 -0.00320903 4.97486e-24)
(0.211116 -0.000485882 0)
(0.26819 0.00171202 -4.81428e-24)
(0.327978 0.0058916 0)
(-0.0425679 -0.0171314 -2.41612e-24)
(0.0058602 -0.0142573 0)
(0.0550262 -0.0113754 3.43414e-24)
(0.105449 -0.00847963 0)
(0.157335 -0.00543671 8.37845e-24)
(0.210716 -0.00249023 -5.20728e-24)
(0.267341 -0.000289041 -4.35532e-24)
(0.326422 0.00442432 -8.48145e-24)
(-0.042264 -0.0201538 -5.07932e-24)
(0.00614037 -0.017119 0)
(0.055277 -0.0140264 2.59672e-24)
(0.105668 -0.0108574 0)
(0.157498 -0.00772684 3.80079e-24)
(0.210825 -0.00447078 -1.19038e-23)
(0.26725 -0.00192258 0)
(0.326219 0.00297216 -8.1256e-24)
(-0.0420218 -0.0234207 -2.767e-24)
(0.00635469 -0.0200668 0)
(0.0554646 -0.0166919 0)
(0.105843 -0.0133286 0)
(0.157655 -0.00991265 0)
(0.210983 -0.00646513 -6.82642e-24)
(0.26733 -0.00381798 0)
(0.326195 0.00175019 0)
(-0.0416214 -0.0263618 0)
(0.00674194 -0.0228608 0)
(0.0558298 -0.0192984 0)
(0.106161 -0.0156456 0)
(0.157914 -0.0119933 0)
(0.211189 -0.00825612 0)
(0.267412 -0.005473 0)
(0.32624 0.000298142 0)
(-0.0408316 -0.0298186 0)
(0.00747507 -0.0260243 0)
(0.056532 -0.0221955 0)
(0.106872 -0.0183428 0)
(0.158621 -0.0144279 0)
(0.21188 -0.0104218 0)
(0.267985 -0.00735309 0)
(0.326542 -0.00102308 0)
(-0.0387141 -0.0373916 0)
(0.00986396 -0.0336873 0)
(0.059219 -0.0299965 1.97817e-24)
(0.109855 -0.0262658 0)
(0.161925 -0.0226814 -2.5361e-24)
(0.215759 -0.0188898 0)
(0.272044 -0.0170355 2.78601e-24)
(0.332182 -0.0101061 3.90089e-24)
(-0.0380212 -0.0522451 0)
(0.0106504 -0.048716 0)
(0.060024 -0.0451524 9.88726e-25)
(0.110647 -0.0416054 0)
(0.162595 -0.0381087 -1.74595e-24)
(0.216369 -0.0346506 0)
(0.271777 -0.0328601 2.25923e-24)
(0.33121 -0.0263321 -1.49126e-26)
(-0.0372149 -0.0651028 0)
(0.0114828 -0.061917 0)
(0.0608046 -0.0588488 -1.81611e-26)
(0.11138 -0.0558847 0)
(0.163233 -0.0532258 0)
(0.216995 -0.0503269 0)
(0.27191 -0.0502011 0)
(0.330842 -0.0441236 -2.33868e-24)
(-0.0363506 -0.0793841 0)
(0.0124697 -0.0763679 0)
(0.0618508 -0.0733902 9.684e-25)
(0.112412 -0.0705532 0)
(0.164122 -0.0679968 0)
(0.217711 -0.0654636 0)
(0.272205 -0.0652743 0)
(0.330349 -0.0601195 -1.69772e-24)
(-0.0356445 -0.0929152 0)
(0.0132579 -0.0902291 2.38374e-24)
(0.0626436 -0.0876653 0)
(0.113171 -0.0852968 -1.41458e-24)
(0.164788 -0.0833717 0)
(0.218275 -0.0813501 0)
(0.272567 -0.082029 0)
(0.330391 -0.0778206 -1.08653e-24)
(-0.0350548 -0.106617 0)
(0.0140052 -0.104063 1.37867e-26)
(0.0634626 -0.1016 0)
(0.11394 -0.0994415 -2.35155e-24)
(0.165397 -0.0977594 -1.7448e-24)
(0.218658 -0.0961588 0)
(0.272723 -0.097046 0)
(0.329966 -0.0935901 0)
(-0.0343708 -0.120757 0)
(0.0147663 -0.118573 -1.38076e-26)
(0.0642424 -0.116465 0)
(0.114646 -0.114638 0)
(0.165959 -0.113374 -1.46311e-26)
(0.21904 -0.112261 -1.79641e-24)
(0.272993 -0.113603 0)
(0.329961 -0.111049 1.34789e-25)
(-0.0338326 -0.133921 0)
(0.015466 -0.131847 5.48751e-24)
(0.0650116 -0.129714 4.97149e-24)
(0.115284 -0.128031 0)
(0.166352 -0.127073 3.61265e-24)
(0.219155 -0.126461 -2.73249e-24)
(0.272941 -0.128255 1.54364e-24)
(0.32952 -0.126363 -3.10628e-25)
(-0.0330852 -0.148975 0)
(0.016465 -0.147268 0)
(0.0662163 -0.145484 1.41709e-26)
(0.11645 -0.144007 0)
(0.16726 -0.143181 4.76708e-24)
(0.219712 -0.142703 0)
(0.273311 -0.144243 1.50576e-26)
(0.329674 -0.142775 0)
(-0.037086 -0.16187 -8.00109e-24)
(0.0135235 -0.160232 0)
(0.064383 -0.158469 -6.84599e-24)
(0.115569 -0.157275 0)
(0.167066 -0.15705 5.6036e-24)
(0.219753 -0.157853 -4.13812e-24)
(0.273161 -0.161411 -1.50896e-26)
(0.329086 -0.160756 -1.62917e-24)
(-0.0548637 -0.176252 -9.43305e-24)
(-0.00231396 -0.175291 0)
(0.0512841 -0.173518 0)
(0.105423 -0.172039 0)
(0.160123 -0.171479 6.07807e-24)
(0.215665 -0.171649 -5.26035e-24)
(0.271049 -0.173762 3.4489e-24)
(0.328209 -0.173654 -1.58333e-24)
(-0.0989496 -0.19313 0)
(-0.044593 -0.192294 0)
(0.0123257 -0.190713 0)
(0.0707949 -0.189541 0)
(0.130429 -0.189433 7.45153e-24)
(0.191989 -0.190329 7.04163e-24)
(0.254761 -0.192428 -5.12759e-24)
(0.317707 -0.1921 0)
(-0.132042 -0.207937 0)
(-0.0802512 -0.20829 9.90667e-24)
(-0.0250287 -0.208152 0)
(0.0339807 -0.207956 0)
(0.09641 -0.208381 0)
(0.162777 -0.209668 5.84052e-24)
(0.22967 -0.213321 -1.53241e-26)
(0.298273 -0.213214 1.60103e-24)
(-0.133299 -0.219668 0)
(-0.0828817 -0.219915 1.12436e-23)
(-0.0296019 -0.219482 0)
(0.0269588 -0.219669 0)
(0.0869888 -0.220986 0)
(0.151593 -0.223212 0)
(0.219478 -0.224995 7.01892e-24)
(0.288651 -0.226015 4.07475e-24)
(-0.0701498 -0.243382 0)
(-0.0084296 -0.24522 0)
(0.0532231 -0.247149 0)
(0.114674 -0.249278 0)
(0.175097 -0.252349 0)
(0.234906 -0.256005 0)
(0.292543 -0.260994 8.10026e-24)
(0.353021 -0.26017 0)
(0.186119 -0.243974 8.04624e-24)
(0.203027 -0.244965 0)
(0.231946 -0.245005 -8.18508e-24)
(0.26873 -0.244849 0)
(0.31697 -0.245354 -6.49363e-24)
(0.370535 -0.246951 0)
(0.429712 -0.247324 2.3825e-26)
(0.488496 -0.250326 0)
(1.08253 -0.245846 -3.23314e-27)
(1.08228 -0.255694 2.4284e-23)
(1.09616 -0.262674 -2.15557e-23)
(1.13235 -0.270638 -1.93751e-23)
(1.19187 -0.279037 -1.61226e-23)
(1.24069 -0.2848 0)
(1.24137 -0.294091 -2.33801e-23)
(1.06394 -0.296234 2.19145e-23)
(1.02448 -0.22756 -2.19542e-23)
(1.04174 -0.238467 -4.45954e-27)
(1.07435 -0.251095 2.23868e-23)
(1.13526 -0.264836 -2.34214e-23)
(1.23988 -0.272201 0)
(1.38639 -0.26123 0)
(1.59492 -0.207365 0)
(1.62247 -0.114357 3.76223e-23)
(0.662537 -0.258709 0)
(0.67877 -0.27311 -3.45668e-23)
(0.69521 -0.292229 3.51886e-23)
(0.709936 -0.319197 0)
(0.72332 -0.34881 0)
(0.737388 -0.369978 0)
(0.771104 -0.322998 8.00048e-24)
(0.884282 -0.188553 0)
(0.50135 -0.249146 3.12478e-23)
(0.516288 -0.260378 3.24005e-23)
(0.531402 -0.273744 3.33405e-23)
(0.543033 -0.288448 3.30086e-23)
(0.542713 -0.300699 -2.95369e-23)
(0.525334 -0.303648 1.98135e-23)
(0.483519 -0.284986 5.85934e-27)
(0.521529 -0.226946 4.03451e-23)
(0.405343 -0.258431 -4.17693e-27)
(0.412903 -0.272362 1.88112e-23)
(0.417084 -0.290768 1.91452e-23)
(0.41666 -0.312762 -6.09256e-27)
(0.406844 -0.332045 -1.37751e-23)
(0.397149 -0.332672 -8.27687e-25)
(0.375775 -0.29655 -1.00972e-23)
(0.405979 -0.208126 -2.84586e-24)
(0.324808 -0.257752 -1.48783e-23)
(0.331748 -0.267499 0)
(0.336069 -0.279998 0)
(0.3373 -0.293016 -1.14295e-23)
(0.323288 -0.306582 0)
(0.304488 -0.309271 -1.44456e-24)
(0.273342 -0.295207 0)
(0.286122 -0.248699 0)
(0.253377 -0.263219 0)
(0.253798 -0.275382 0)
(0.25085 -0.290819 -1.15738e-23)
(0.246484 -0.30554 0)
(0.23095 -0.317051 3.93509e-24)
(0.217667 -0.311937 -5.39443e-24)
(0.196685 -0.291219 1.1431e-23)
(0.204489 -0.239138 0)
(0.194217 -0.259594 0)
(0.193821 -0.269458 0)
(0.190561 -0.282587 5.04961e-27)
(0.186744 -0.293562 0)
(0.170632 -0.305071 3.95813e-24)
(0.156661 -0.302741 0)
(0.136575 -0.287057 5.80428e-27)
(0.134044 -0.251636 0)
(0.125575 -0.26314 -1.42291e-23)
(0.119929 -0.273166 -1.30275e-23)
(0.112284 -0.286559 2.24909e-23)
(0.102265 -0.296533 -8.37847e-24)
(0.0832396 -0.306469 0)
(0.0706928 -0.30364 4.66858e-24)
(0.0587193 -0.289262 -1.10775e-23)
(0.0678333 -0.256545 7.76179e-24)
(0.095441 -0.258003 -1.50802e-23)
(0.0866818 -0.267571 -1.38719e-23)
(0.0769456 -0.280237 1.21778e-23)
(0.0611685 -0.288186 -9.39968e-24)
(0.0363174 -0.297291 0)
(0.0126916 -0.293913 2.55218e-24)
(-0.0158481 -0.280099 0)
(-0.0306117 -0.252101 8.31458e-24)
(0.0588347 -0.258409 0)
(0.0475456 -0.267611 0)
(0.0373585 -0.27924 1.27938e-23)
(0.0174351 -0.285377 0)
(0.00142606 -0.294655 0)
(-0.0192881 -0.292721 0)
(-0.0376231 -0.282856 -6.26248e-24)
(-0.0466181 -0.262045 0)
(0.0500491 -0.253166 -8.16546e-24)
(0.037292 -0.26204 -7.51227e-24)
(0.024042 -0.272391 1.32946e-23)
(0.00167257 -0.277127 -5.16402e-24)
(-0.0164221 -0.285369 3.1094e-24)
(-0.0481592 -0.279825 0)
(-0.0737886 -0.267914 -4.93027e-24)
(-0.090317 -0.248234 3.07071e-24)
(0.0429099 -0.251634 -8.0245e-24)
(0.0305147 -0.26017 -1.47681e-23)
(0.0145434 -0.26943 6.49757e-24)
(-0.00457652 -0.275387 -1.03277e-23)
(-0.0236482 -0.282079 -2.68764e-27)
(-0.0523226 -0.278592 0)
(-0.0708141 -0.271732 0)
(-0.0890797 -0.256192 1.85778e-24)
(0.0423637 -0.246365 0)
(0.0292015 -0.254051 -1.42218e-23)
(0.0152588 -0.262384 1.23744e-23)
(-0.00652144 -0.26608 2.44981e-27)
(-0.0248669 -0.271782 -3.143e-24)
(-0.0527489 -0.266433 -8.83097e-25)
(-0.0718159 -0.258821 -8.82004e-25)
(-0.090211 -0.244632 0)
(0.0400013 -0.243956 7.48822e-24)
(0.0275282 -0.251459 -1.35929e-23)
(0.012318 -0.258469 5.85865e-24)
(-0.00610919 -0.263184 9.25515e-24)
(-0.0239317 -0.267991 2.96293e-24)
(-0.0483536 -0.263888 2.59614e-27)
(-0.0670942 -0.258166 -8.78275e-25)
(-0.0842187 -0.246407 -1.57447e-24)
(0.0380425 -0.23976 7.20781e-24)
(0.0251427 -0.246512 2.0157e-27)
(0.0109053 -0.252937 -5.5395e-24)
(-0.00841187 -0.256063 4.33699e-24)
(-0.0259703 -0.260063 -2.4585e-27)
(-0.0496247 -0.25474 8.4672e-25)
(-0.067525 -0.249155 8.08927e-25)
(-0.0844408 -0.238277 -1.65087e-24)
(0.0369779 -0.236888 0)
(0.0245262 -0.243391 1.24182e-23)
(0.00994972 -0.249088 -5.23001e-24)
(-0.00707769 -0.252623 0)
(-0.0246536 -0.255992 -2.53956e-24)
(-0.0454285 -0.251809 0)
(-0.0624306 -0.247477 7.96106e-25)
(-0.0787981 -0.238138 -1.76e-24)
(0.0345728 -0.232932 6.7007e-24)
(0.022133 -0.238849 -1.94828e-27)
(0.00766613 -0.243804 0)
(-0.00944892 -0.246315 3.84935e-24)
(-0.0267455 -0.249014 0)
(-0.0467627 -0.244259 7.38972e-25)
(-0.0635344 -0.239731 0)
(-0.0793662 -0.231394 -3.77208e-24)
(0.0341342 -0.229987 6.4651e-24)
(0.0218549 -0.235612 -1.14183e-23)
(0.00755034 -0.240221 0)
(-0.00792542 -0.242847 3.57474e-24)
(-0.0251973 -0.245153 0)
(-0.0433456 -0.24127 -2.33287e-27)
(-0.0592769 -0.237516 0)
(-0.0747569 -0.229734 -2.00074e-24)
(0.0317155 -0.226106 0)
(0.0196378 -0.231292 -1.09703e-23)
(0.00534593 -0.235257 4.58929e-24)
(-0.010044 -0.237118 -3.34622e-24)
(-0.026794 -0.23886 2.02236e-24)
(-0.0443855 -0.234864 -5.75193e-25)
(-0.0599837 -0.231164 0)
(-0.0744943 -0.224564 0)
(0.0314217 -0.223101 -6.03945e-24)
(0.0194385 -0.228019 -5.26942e-24)
(0.00550655 -0.231814 4.36376e-24)
(-0.00861797 -0.233627 -3.1655e-24)
(-0.0253209 -0.235049 1.87131e-24)
(-0.0416237 -0.231581 0)
(-0.0568413 -0.22819 0)
(-0.0717008 -0.221505 0)
(0.0292163 -0.219349 1.71465e-27)
(0.0175329 -0.223946 0)
(0.00357609 -0.227255 0)
(-0.010431 -0.228577 0)
(-0.0264975 -0.229584 0)
(-0.0420712 -0.226341 0)
(-0.0567673 -0.223177 0)
(-0.0703337 -0.217566 0)
(0.0288019 -0.216183 5.65439e-24)
(0.0173843 -0.220594 0)
(0.0037013 -0.223721 3.96337e-24)
(-0.00976224 -0.224878 0)
(-0.025394 -0.225625 0)
(-0.0404504 -0.222554 0)
(-0.0550486 -0.219487 1.06905e-24)
(-0.0689227 -0.213729 0)
(0.0272959 -0.2128 0)
(0.0160783 -0.216911 0)
(0.00246391 -0.219672 -1.84208e-27)
(-0.0107163 -0.220592 0)
(-0.0257084 -0.221084 1.4633e-24)
(-0.0398769 -0.218329 0)
(-0.0540039 -0.215459 2.28638e-24)
(-0.0672009 -0.21028 0)
(0.0264192 -0.209535 0)
(0.0154302 -0.213421 0)
(0.00205552 -0.215938 -3.60555e-24)
(-0.0108345 -0.216735 0)
(-0.0253006 -0.217032 1.34412e-24)
(-0.0391313 -0.214333 0)
(-0.0529386 -0.211537 1.21228e-24)
(-0.0659852 -0.206453 0)
(0.0252388 -0.206332 2.57052e-24)
(0.0146268 -0.210002 2.17735e-24)
(0.00148076 -0.21223 0)
(-0.0111716 -0.212924 0)
(-0.0250797 -0.213064 0)
(-0.0383691 -0.2105 9.01261e-27)
(-0.0518153 -0.207795 0)
(-0.0645347 -0.20299 -1.30682e-24)
(0.0244682 -0.203171 2.49377e-24)
(0.0140787 -0.206646 2.09983e-24)
(0.00110085 -0.208584 0)
(-0.0113033 -0.209209 0)
(-0.0247545 -0.209232 0)
(-0.0375905 -0.206759 -3.32331e-26)
(-0.0506697 -0.204118 0)
(-0.0632678 -0.199431 -1.33371e-24)
(0.023326 -0.200057 0)
(0.0131784 -0.203329 0)
(0.000458132 -0.204988 -1.58244e-24)
(-0.0115545 -0.205575 1.0836e-24)
(-0.0245705 -0.205495 5.14559e-25)
(-0.0370539 -0.203086 0)
(-0.0497591 -0.200449 6.95165e-25)
(-0.0620907 -0.195949 0)
(0.022798 -0.197014 -2.35437e-24)
(0.012814 -0.200109 0)
(0.000216276 -0.201531 -1.51687e-24)
(-0.0113025 -0.202138 1.02603e-24)
(-0.0240438 -0.201941 4.66776e-25)
(-0.0362482 -0.199617 0)
(-0.0485543 -0.196989 7.21561e-25)
(-0.0607504 -0.192588 0)
(0.0217553 -0.193994 -2.2891e-24)
(0.0119204 -0.196886 0)
(-0.000468065 -0.198089 1.45769e-24)
(-0.0114544 -0.198703 -9.73465e-25)
(-0.0238936 -0.198354 0)
(-0.0358588 -0.196089 0)
(-0.0477201 -0.193477 0)
(-0.0595798 -0.189214 0)
(0.0213387 -0.191059 0)
(0.0116029 -0.193766 1.83621e-24)
(-0.000553342 -0.194845 1.40029e-24)
(-0.0110975 -0.195477 -1.84504e-24)
(-0.0234201 -0.19495 -3.84007e-25)
(-0.0350322 -0.192805 0)
(-0.0465918 -0.190214 0)
(-0.0582466 -0.185976 -1.39877e-24)
(0.0204448 -0.188151 0)
(0.0107338 -0.190636 3.55777e-24)
(-0.000983066 -0.19162 -1.34783e-24)
(-0.0112459 -0.192209 7.99834e-28)
(-0.0232992 -0.19153 -6.91219e-25)
(-0.0344564 -0.1895 -2.02633e-25)
(-0.0458483 -0.186875 0)
(-0.057038 -0.182752 -1.40822e-24)
(0.0200377 -0.185315 1.05749e-24)
(0.0104318 -0.187634 1.72482e-24)
(-0.000938481 -0.188562 -1.29667e-24)
(-0.0109391 -0.18912 8.30171e-25)
(-0.0228774 -0.18829 -3.10127e-25)
(-0.0335857 -0.186381 -2.29256e-25)
(-0.0448243 -0.183733 0)
(-0.0556985 -0.17968 0)
(0.0191768 -0.182498 1.03092e-24)
(0.00970147 -0.184651 0)
(-0.00119617 -0.185527 -6.24795e-25)
(-0.0111106 -0.185976 0)
(-0.0226724 -0.185062 1.39579e-25)
(-0.0329429 -0.183263 0)
(-0.0439782 -0.18058 4.08988e-25)
(-0.0545559 -0.176604 0)
(0.0187593 -0.179757 0)
(0.00942026 -0.181795 0)
(-0.00116625 -0.182622 -6.02229e-25)
(-0.0109298 -0.18299 0)
(-0.022146 -0.182025 2.49582e-25)
(-0.0321054 -0.180305 1.36457e-25)
(-0.0430262 -0.177555 3.9245e-28)
(-0.053294 -0.173667 0)
(0.0179766 -0.177047 -9.83174e-25)
(0.00882387 -0.178969 0)
(-0.0014259 -0.179737 0)
(-0.0110523 -0.180009 0)
(-0.0217776 -0.179034 1.11032e-25)
(-0.0315639 -0.177324 2.91761e-25)
(-0.0422188 -0.174549 -3.81304e-28)
(-0.0521474 -0.170761 7.07694e-25)
(0.0176711 -0.174426 -1.44119e-24)
(0.00865606 -0.176258 0)
(-0.00132431 -0.176975 -2.81243e-25)
(-0.0107936 -0.177187 0)
(-0.0212227 -0.176179 -4.92666e-26)
(-0.030827 -0.174485 1.54702e-25)
(-0.0412737 -0.171668 6.36018e-25)
(-0.0508627 -0.168006 7.06051e-25)
(0.0172508 -0.171831 -4.69101e-25)
(0.00841885 -0.173567 0)
(-0.00128697 -0.174222 1.66993e-28)
(-0.0105719 -0.174367 0)
(-0.0206616 -0.173343 -4.25504e-26)
(-0.0301353 -0.171633 0)
(-0.0402264 -0.168848 2.14204e-25)
(-0.0496445 -0.16523 0)
(0.0172754 -0.169266 0)
(0.00859778 -0.170926 0)
(-0.000840531 -0.171539 3.91688e-25)
(-0.00995504 -0.171627 0)
(-0.0197654 -0.17058 1.79057e-26)
(-0.0290735 -0.168872 0)
(-0.0389132 -0.166087 1.08211e-25)
(-0.0481982 -0.162509 0)
(0.0167507 -0.166683 0)
(0.00830364 -0.168272 0)
(-0.000844685 -0.16884 1.25893e-25)
(-0.00969643 -0.168875 0)
(-0.0191783 -0.167812 1.47743e-26)
(-0.0282289 -0.166102 0)
(-0.0377632 -0.163333 1.09085e-25)
(-0.0467992 -0.159813 0)
(0.0145288 -0.159861 0)
(0.00660311 -0.161258 0)
(-0.00188877 -0.161715 0)
(-0.010124 -0.1616 0)
(-0.0188342 -0.160497 0)
(-0.0271908 -0.158734 0)
(-0.0359121 -0.156009 0)
(-0.0442096 -0.152554 0)
(0.012114 -0.148892 0)
(0.00512566 -0.150038 0)
(-0.00228538 -0.150397 0)
(-0.00948283 -0.15012 0)
(-0.017018 -0.149038 0)
(-0.024277 -0.147243 0)
(-0.0317833 -0.144649 0)
(-0.038969 -0.14129 0)
(0.0106338 -0.139886 0)
(0.00450476 -0.140839 0)
(-0.00191742 -0.141121 0)
(-0.0081964 -0.140704 0)
(-0.014692 -0.139612 0)
(-0.0210002 -0.13776 0)
(-0.0274475 -0.135253 0)
(-0.0336576 -0.131943 0)
(0.00865707 -0.131724 0)
(0.00342368 -0.13255 0)
(-0.00201588 -0.132796 0)
(-0.0073553 -0.132315 0)
(-0.0128308 -0.131267 0)
(-0.0181653 -0.129432 0)
(-0.0235766 -0.127054 0)
(-0.0288034 -0.123847 0)
(0.00737661 -0.125088 0)
(0.0029785 -0.125813 0)
(-0.00157006 -0.126013 0)
(-0.00604831 -0.125475 0)
(-0.0106116 -0.124431 0)
(-0.0150751 -0.122601 0)
(-0.0195683 -0.120297 0)
(-0.0239263 -0.117169 0)
(0.00575175 -0.11937 0)
(0.00219617 -0.120038 0)
(-0.00146468 -0.120226 0)
(-0.00507515 -0.119677 0)
(-0.00873559 -0.118668 0)
(-0.0123191 -0.116883 0)
(-0.0159122 -0.114678 0)
(-0.0193958 -0.11166 0)
(0.00458525 -0.115037 0)
(0.00183352 -0.115653 0)
(-0.000995045 -0.115813 0)
(-0.00379178 -0.115246 0)
(-0.0066152 -0.114245 0)
(-0.00939384 -0.112483 0)
(-0.012153 -0.110336 0)
(-0.0148539 -0.107413 0)
(0.00316198 -0.111641 0)
(0.0012125 -0.112233 0)
(-0.000785128 -0.112386 0)
(-0.00276056 -0.111824 0)
(-0.00474958 -0.110842 0)
(-0.00670618 -0.109128 0)
(-0.00864046 -0.107033 0)
(-0.0105465 -0.104189 0)
(0.00192284 -0.109537 0)
(0.000752921 -0.110104 0)
(-0.000426404 -0.110246 0)
(-0.00161625 -0.109677 0)
(-0.00279768 -0.1087 0)
(-0.00397758 -0.107004 0)
(-0.00513629 -0.10493 0)
(-0.00629185 -0.102131 0)
(-2.9486e-05 -0.108329 0)
(-0.000429248 -0.108894 0)
(-0.000827979 -0.109023 0)
(-0.00121796 -0.108464 0)
(-0.00160182 -0.107486 0)
(-0.00197534 -0.105809 0)
(-0.00233821 -0.103741 0)
(-0.00269261 -0.100974 0)
(0.390079 0.0019603 0)
(0.442662 0.000929569 0)
(0.496898 0.000310128 0)
(0.550107 -4.96975e-05 0)
(0.601213 -0.000183273 0)
(0.650297 -0.000217005 0)
(0.696008 -0.000208053 0)
(0.736682 -0.000179607 0)
(0.770747 -0.000141873 0)
(0.796675 -9.65727e-05 0)
(0.813058 -4.31931e-05 0)
(0.818463 1.79052e-05 0)
(0.812913 8.09045e-05 0)
(0.79486 0.000148261 0)
(0.764114 0.000214319 0)
(0.721125 0.000276484 0)
(0.666778 0.000332706 0)
(0.602462 0.000380798 0)
(0.530154 0.00041792 0)
(0.452179 0.000441246 0)
(0.370929 0.000449788 0)
(0.288855 0.000444771 0)
(0.208087 0.000428586 0)
(0.130422 0.000403913 0)
(0.0572932 0.000373706 0)
(-0.0101805 0.000343506 0)
(-0.0712179 0.000307187 0)
(-0.125364 0.000268991 0)
(-0.172406 0.000230506 0)
(-0.212417 0.000193347 0)
(-0.245722 0.000158243 0)
(-0.272632 0.000125531 0)
(-0.293687 9.64457e-05 0)
(-0.309613 7.11081e-05 0)
(-0.320997 4.88925e-05 0)
(-0.328395 2.96696e-05 0)
(-0.332363 1.32773e-05 0)
(-0.333462 -5.27392e-07 0)
(-0.332145 -1.1522e-05 0)
(-0.328929 -2.04347e-05 0)
(-0.324176 -2.76949e-05 0)
(-0.31814 -3.35567e-05 0)
(-0.311074 -3.84318e-05 0)
(-0.303134 -4.24142e-05 0)
(-0.294558 -4.56847e-05 0)
(-0.285295 -4.93333e-05 0)
(-0.275301 -5.2892e-05 0)
(-0.26462 -5.68557e-05 0)
(-0.253048 -6.21798e-05 0)
(-0.240346 -6.87913e-05 0)
(-0.226272 -7.6482e-05 0)
(-0.210632 -8.52258e-05 0)
(-0.193269 -9.4396e-05 0)
(-0.174127 -0.000103637 0)
(-0.153226 -0.000112412 0)
(-0.130689 -0.000120285 0)
(-0.10678 -0.000126649 0)
(-0.0817841 -0.000131313 0)
(-0.0560969 -0.000133323 0)
(-0.0302133 -0.000133445 0)
(-0.00418636 -0.000131722 0)
(0.0211053 -0.000126277 0)
(0.0453565 -0.000121298 0)
(0.0683793 -0.000113532 0)
(0.0897083 -0.000104233 0)
(0.109118 -9.35428e-05 0)
(0.126371 -8.23518e-05 0)
(0.141442 -7.12736e-05 0)
(0.154326 -6.04853e-05 0)
(0.165137 -5.02698e-05 0)
(0.174033 -4.11266e-05 0)
(0.181287 -3.36175e-05 0)
(0.187218 -2.74452e-05 0)
(0.192036 -2.26744e-05 0)
(0.196039 -1.87572e-05 0)
(0.19916 -1.44243e-05 0)
(0.201492 -1.07157e-05 0)
(0.203072 -6.00891e-06 0)
(0.203588 -5.3511e-08 0)
(0.202913 6.70357e-06 0)
(0.200863 1.42451e-05 0)
(0.197349 2.20743e-05 0)
(0.19237 2.95453e-05 0)
(0.186075 3.5753e-05 0)
(0.178786 3.9948e-05 0)
(0.170957 4.1444e-05 0)
(0.163128 3.98072e-05 0)
(0.155911 3.49555e-05 0)
(0.149897 2.71749e-05 0)
(0.145596 1.72221e-05 0)
(0.143358 5.95314e-06 0)
(0.143337 -5.57993e-06 0)
(0.145395 -1.54812e-05 0)
(0.149114 -2.26174e-05 0)
(0.153907 -2.5896e-05 0)
(0.158943 -2.43952e-05 0)
(0.163243 -1.77215e-05 0)
(0.165797 -6.19206e-06 0)
(0.165677 9.64646e-06 0)
(0.162187 2.83515e-05 0)
(0.154957 4.80607e-05 0)
(0.143943 6.70872e-05 0)
(0.129494 8.36624e-05 0)
(0.112221 9.62038e-05 0)
(0.0929335 0.000103578 0)
(0.0726979 0.000105221 0)
(0.0527088 0.000100843 0)
(0.0341135 9.0981e-05 0)
(0.0179331 7.65431e-05 0)
(0.00490538 5.85967e-05 0)
(-0.00438537 3.90118e-05 0)
(-0.00974739 1.92523e-05 0)
(-0.0114128 3.30805e-07 0)
(-0.00973741 -1.53619e-05 0)
(-0.0053257 -2.70008e-05 0)
(0.000939863 -3.36562e-05 0)
(0.00788533 -3.46404e-05 0)
(0.0143905 -3.0077e-05 0)
(0.0195352 -2.03683e-05 0)
(0.0223669 -6.31114e-06 0)
(0.0221453 1.06683e-05 0)
(0.0184829 2.8704e-05 0)
(0.0114042 4.53858e-05 0)
(0.00122586 5.85334e-05 0)
(-0.0110005 6.56156e-05 0)
(-0.0237589 6.49748e-05 0)
(-0.0356397 5.56981e-05 0)
(-0.0449212 3.85763e-05 0)
(-0.0502934 1.61411e-05 0)
(-0.051005 -8.32264e-06 0)
(-0.0471078 -3.08426e-05 0)
(-0.0392162 -4.7619e-05 0)
(-0.0286833 -5.51646e-05 0)
(-0.0175928 -5.2371e-05 0)
(-0.00808745 -3.95233e-05 0)
(-0.00186529 -2.04224e-05 0)
(0.000229036 3.00903e-07 0)
(-0.0016598 1.8559e-05 0)
(-0.00658689 3.06051e-05 0)
(-0.0131469 3.44257e-05 0)
(-0.0195806 3.01473e-05 0)
(-0.0245141 2.05381e-05 0)
(-0.0272864 8.31895e-06 0)
(-0.027569 -3.98435e-06 0)
(-0.0256812 -1.40322e-05 0)
(-0.0221041 -2.14451e-05 0)
(-0.0172965 -2.60018e-05 0)
(-0.0118892 -2.72161e-05 0)
(-0.00662188 -2.42707e-05 0)
(-0.00231029 -1.65282e-05 0)
(-8.87016e-06 -4.52069e-06 0)
(-0.000384554 9.8853e-06 0)
(-0.00365518 2.33846e-05 0)
(-0.00919042 3.04376e-05 0)
(-0.0152706 2.84044e-05 0)
(-0.0200434 1.71847e-05 0)
(0.389412 -0.00301018 0)
(0.442153 -0.00204981 0)
(0.496618 -0.00138994 0)
(0.550038 -0.00101478 0)
(0.601225 -0.000859321 0)
(0.650307 -0.000766875 0)
(0.696002 -0.000689538 0)
(0.736672 -0.000597857 0)
(0.770738 -0.000483345 0)
(0.796666 -0.000345864 0)
(0.81305 -0.000188083 0)
(0.818455 -1.36762e-05 0)
(0.812905 0.000161533 0)
(0.794852 0.000358467 0)
(0.764106 0.000553993 0)
(0.721116 0.000739513 0)
(0.666769 0.000906934 0)
(0.602453 0.00104772 0)
(0.530144 0.00115423 0)
(0.452169 0.00122281 0)
(0.370919 0.00125371 0)
(0.288844 0.0012503 0)
(0.208076 0.00121816 0)
(0.130411 0.001164 0)
(0.0572817 0.00109111 0)
(-0.010192 0.000994618 0)
(-0.0712294 0.000891439 0)
(-0.125376 0.000783027 0)
(-0.172418 0.000673707 0)
(-0.212428 0.000567244 0)
(-0.245733 0.000465829 0)
(-0.272644 0.000370447 0)
(-0.293699 0.000285548 0)
(-0.309625 0.00021105 0)
(-0.321009 0.0001452 0)
(-0.328407 8.76797e-05 0)
(-0.332374 3.8594e-05 0)
(-0.333474 -3.14091e-06 0)
(-0.332156 -3.64924e-05 0)
(-0.328941 -6.33686e-05 0)
(-0.324187 -8.51554e-05 0)
(-0.318151 -0.00010286 0)
(-0.311085 -0.000117575 0)
(-0.303146 -0.000129182 0)
(-0.294569 -0.000138718 0)
(-0.285306 -0.000149883 0)
(-0.275312 -0.000160641 0)
(-0.264631 -0.000172704 0)
(-0.25306 -0.00018864 0)
(-0.240357 -0.000208418 0)
(-0.226283 -0.00023162 0)
(-0.210644 -0.000257309 0)
(-0.193281 -0.000284723 0)
(-0.174138 -0.000312451 0)
(-0.153237 -0.000338994 0)
(-0.1307 -0.000362641 0)
(-0.106791 -0.000381858 0)
(-0.0817951 -0.000395584 0)
(-0.0561078 -0.0004029 0)
(-0.0302241 -0.000404637 0)
(-0.00419723 -0.000399271 0)
(0.0210944 -0.000390132 0)
(0.0453456 -0.000369961 0)
(0.0683685 -0.000344848 0)
(0.0896975 -0.000316835 0)
(0.109108 -0.000285219 0)
(0.12636 -0.000251463 0)
(0.141431 -0.000217157 0)
(0.154315 -0.000184142 0)
(0.165126 -0.000152965 0)
(0.174022 -0.000125023 0)
(0.181276 -0.000102019 0)
(0.187207 -8.32721e-05 0)
(0.192026 -6.83049e-05 0)
(0.196028 -5.61302e-05 0)
(0.199149 -4.24689e-05 0)
(0.201481 -3.12377e-05 0)
(0.203061 -1.72841e-05 0)
(0.203577 4.08679e-07 0)
(0.202902 2.0369e-05 0)
(0.200852 4.27956e-05 0)
(0.197338 6.58918e-05 0)
(0.192359 8.79608e-05 0)
(0.186064 0.000106378 0)
(0.178775 0.000118632 0)
(0.170946 0.000122654 0)
(0.163117 0.000117391 0)
(0.1559 0.000102555 0)
(0.149886 7.91394e-05 0)
(0.145585 4.92334e-05 0)
(0.143347 1.5674e-05 0)
(0.143326 -1.80588e-05 0)
(0.145384 -4.75425e-05 0)
(0.149103 -6.86407e-05 0)
(0.153896 -7.81718e-05 0)
(0.158932 -7.35476e-05 0)
(0.163232 -5.3557e-05 0)
(0.165787 -1.86785e-05 0)
(0.165667 2.8844e-05 0)
(0.162177 8.46681e-05 0)
(0.154946 0.000143456 0)
(0.143933 0.000199955 0)
(0.129484 0.000248746 0)
(0.112211 0.000285536 0)
(0.0929227 0.000306936 0)
(0.0726869 0.000310828 0)
(0.0526978 0.000297427 0)
(0.0341024 0.00026767 0)
(0.0179219 0.000224158 0)
(0.0048942 0.000170707 0)
(-0.00439659 0.000112496 0)
(-0.00975855 5.36708e-05 0)
(-0.011424 -1.53856e-06 0)
(-0.0097485 -4.83221e-05 0)
(-0.00533668 -8.29957e-05 0)
(0.000928984 -0.000102824 0)
(0.0078745 -0.000105622 0)
(0.0143798 -9.18643e-05 0)
(0.0195246 -6.259e-05 0)
(0.0223563 -2.03557e-05 0)
(0.0221348 3.07035e-05 0)
(0.0184724 8.46349e-05 0)
(0.0113936 0.00013446 0)
(0.00121531 0.000173532 0)
(-0.0110113 0.000194509 0)
(-0.0237698 0.000192045 0)
(-0.0356507 0.000163908 0)
(-0.0449324 0.000112476 0)
(-0.0503047 4.51561e-05 0)
(-0.0510162 -2.78786e-05 0)
(-0.0471189 -9.55388e-05 0)
(-0.0392273 -0.00014585 0)
(-0.028694 -0.000168481 0)
(-0.0176035 -0.000159161 0)
(-0.00809789 -0.000121549 0)
(-0.00187565 -6.41819e-05 0)
(0.000218636 -1.66719e-06 0)
(-0.00167032 5.33147e-05 0)
(-0.00659753 8.9413e-05 0)
(-0.0131577 0.000100619 0)
(-0.0195915 8.75017e-05 0)
(-0.0245251 5.82571e-05 0)
(-0.0272974 2.18358e-05 0)
(-0.02758 -1.43724e-05 0)
(-0.0256921 -4.44051e-05 0)
(-0.0221149 -6.63714e-05 0)
(-0.0173073 -7.98313e-05 0)
(-0.0118999 -8.31267e-05 0)
(-0.00663251 -7.45153e-05 0)
(-0.00232079 -5.10787e-05 0)
(-1.93505e-05 -1.48978e-05 0)
(-0.00039506 2.85028e-05 0)
(-0.00366571 6.93938e-05 0)
(-0.00920108 9.10079e-05 0)
(-0.0152814 8.44453e-05 0)
(-0.0200544 4.98629e-05 0)
(0.38939 0.000548271 0)
(0.441985 -0.000300753 0)
(0.49633 -0.000824682 0)
(0.549817 -0.00112826 0)
(0.601141 -0.00122226 0)
(0.650297 -0.00121275 0)
(0.696003 -0.00111463 0)
(0.736667 -0.000963821 0)
(0.770727 -0.000771391 0)
(0.796655 -0.000542321 0)
(0.81304 -0.000277551 0)
(0.818445 1.60182e-05 0)
(0.812896 0.0003094 0)
(0.794843 0.000635438 0)
(0.764097 0.000957098 0)
(0.721107 0.00125961 0)
(0.66676 0.00153118 0)
(0.602443 0.00175998 0)
(0.530133 0.00193703 0)
(0.452158 0.00205845 0)
(0.370908 0.00211806 0)
(0.288832 0.00211902 0)
(0.208063 0.00206738 0)
(0.130398 0.00196575 0)
(0.0572693 0.00182482 0)
(-0.0102047 0.00166858 0)
(-0.0712422 0.00149584 0)
(-0.125388 0.0013142 0)
(-0.172431 0.00113014 0)
(-0.212441 0.000951101 0)
(-0.245746 0.000780679 0)
(-0.272656 0.000620683 0)
(-0.293711 0.000478069 0)
(-0.309637 0.000353106 0)
(-0.321021 0.000242849 0)
(-0.328418 0.000146831 0)
(-0.332386 6.49223e-05 0)
(-0.333485 -4.33119e-06 0)
(-0.332168 -5.96064e-05 0)