/*--------------------------------*- C++ -*----------------------------------*\
| =========                 |                                                 |
| \\      /  F ield         | OpenFOAM: The Open Source CFD Toolbox           |
|  \\    /   O peration     | Version:  v1912                                 |
|   \\  /    A nd           | Website:  www.openfoam.com                      |
|    \\/     M anipulation  |                                                 |
\*---------------------------------------------------------------------------*/
FoamFile
{
    version     2.0;
    format      ascii;
    class       volScalarField;
    location    "10";
    object      nut;
}
// * * * * * * * * * * * * * * * * * * * * * * * * * * * * * * * * * * * * * //

dimensions      [0 2 -1 0 0 0 0];


internalField   nonuniform List<scalar> 
14268
(
2.94593e-08
2.94583e-08
2.94577e-08
2.94573e-08
2.94572e-08
2.94573e-08
2.94577e-08
2.94583e-08
2.9459e-08
2.94598e-08
2.94605e-08
2.94612e-08
2.94617e-08
2.94621e-08
2.94623e-08
2.94623e-08
2.94623e-08
2.94623e-08
2.94623e-08
2.94626e-08
2.94631e-08
2.94638e-08
2.94649e-08
2.94664e-08
2.94689e-08
2.94728e-08
2.94792e-08
2.94896e-08
2.95055e-08
2.95288e-08
2.9556e-08
2.95864e-08
2.96039e-08
2.96316e-08
2.96653e-08
2.97613e-08
2.99036e-08
3.01788e-08
3.05974e-08
3.12024e-08
3.19971e-08
3.27058e-08
3.30327e-08
3.18447e-08
3.84312e-07
3.84276e-07
3.8425e-07
3.84234e-07
3.84227e-07
3.84228e-07
3.84236e-07
3.84248e-07
3.84264e-07
3.8428e-07
3.84293e-07
3.84301e-07
3.84303e-07
3.84298e-07
3.84286e-07
3.84269e-07
3.84249e-07
3.84231e-07
3.84218e-07
3.84213e-07
3.84219e-07
3.84237e-07
3.84267e-07
3.84307e-07
3.84352e-07
3.84405e-07
3.84468e-07
3.84549e-07
3.84646e-07
3.84778e-07
3.84914e-07
3.85102e-07
3.85205e-07
3.85417e-07
3.85492e-07
3.85845e-07
3.86199e-07
3.86931e-07
3.88006e-07
3.89449e-07
3.91517e-07
3.9321e-07
3.94309e-07
3.91155e-07
4.684e-07
4.68398e-07
4.68397e-07
4.68397e-07
4.68397e-07
4.68398e-07
4.68399e-07
4.684e-07
4.68402e-07
4.68403e-07
4.68404e-07
4.68405e-07
4.68405e-07
4.68405e-07
4.68404e-07
4.68403e-07
4.68402e-07
4.68401e-07
4.684e-07
4.684e-07
4.68401e-07
4.68402e-07
4.68404e-07
4.68406e-07
4.68408e-07
4.68411e-07
4.68416e-07
4.68426e-07
4.68436e-07
4.68456e-07
4.68468e-07
4.685e-07
4.68494e-07
4.68545e-07
4.68528e-07
4.68612e-07
4.68641e-07
4.68756e-07
4.68894e-07
4.69077e-07
4.695e-07
4.69716e-07
4.70234e-07
4.69912e-07
4.72613e-07
4.72607e-07
4.726e-07
4.72594e-07
4.72588e-07
4.72583e-07
4.72577e-07
4.72572e-07
4.72568e-07
4.72563e-07
4.72558e-07
4.72554e-07
4.72549e-07
4.72543e-07
4.72538e-07
4.72531e-07
4.72525e-07
4.72518e-07
4.72511e-07
4.72505e-07
4.72499e-07
4.72493e-07
4.72488e-07
4.72484e-07
4.7248e-07
4.72476e-07
4.72471e-07
4.72467e-07
4.72459e-07
4.72462e-07
4.72447e-07
4.72474e-07
4.72414e-07
4.72475e-07
4.7235e-07
4.72402e-07
4.72304e-07
4.72278e-07
4.72294e-07
4.7223e-07
4.72508e-07
4.72534e-07
4.73084e-07
4.7233e-07
4.72961e-07
4.72962e-07
4.72964e-07
4.72965e-07
4.72967e-07
4.72968e-07
4.72969e-07
4.7297e-07
4.72971e-07
4.72972e-07
4.72972e-07
4.72973e-07
4.72974e-07
4.72975e-07
4.72975e-07
4.72976e-07
4.72977e-07
4.72978e-07
4.72978e-07
4.72979e-07
4.7298e-07
4.72981e-07
4.72981e-07
4.72981e-07
4.72981e-07
4.7298e-07
4.7298e-07
4.7298e-07
4.72979e-07
4.72981e-07
4.72977e-07
4.72989e-07
4.7297e-07
4.72996e-07
4.72967e-07
4.73013e-07
4.72993e-07
4.73027e-07
4.73057e-07
4.73087e-07
4.7333e-07
4.73376e-07
4.73833e-07
4.73954e-07
4.72774e-07
4.72767e-07
4.7276e-07
4.72753e-07
4.72746e-07
4.72739e-07
4.72732e-07
4.72726e-07
4.7272e-07
4.72714e-07
4.72708e-07
4.72702e-07
4.72696e-07
4.72689e-07
4.72683e-07
4.72675e-07
4.72668e-07
4.7266e-07
4.72652e-07
4.72644e-07
4.72637e-07
4.7263e-07
4.72623e-07
4.72617e-07
4.72612e-07
4.72606e-07
4.72599e-07
4.72594e-07
4.72585e-07
4.72588e-07
4.72574e-07
4.72603e-07
4.72544e-07
4.72608e-07
4.72476e-07
4.72525e-07
4.72432e-07
4.72405e-07
4.7243e-07
4.72387e-07
4.72691e-07
4.72751e-07
4.7331e-07
4.72896e-07
4.72965e-07
4.72967e-07
4.72968e-07
4.7297e-07
4.72971e-07
4.72973e-07
4.72974e-07
4.72976e-07
4.72977e-07
4.72978e-07
4.72979e-07
4.7298e-07
4.72981e-07
4.72981e-07
4.72982e-07
4.72983e-07
4.72984e-07
4.72985e-07
4.72986e-07
4.72987e-07
4.72988e-07
4.72989e-07
4.7299e-07
4.7299e-07
4.7299e-07
4.7299e-07
4.7299e-07
4.7299e-07
4.72988e-07
4.7299e-07
4.72985e-07
4.72995e-07
4.72975e-07
4.73e-07
4.72971e-07
4.73015e-07
4.72988e-07
4.73015e-07
4.73032e-07
4.73049e-07
4.73279e-07
4.73323e-07
4.73811e-07
4.73901e-07
4.72781e-07
4.72774e-07
4.72766e-07
4.72759e-07
4.72751e-07
4.72744e-07
4.72736e-07
4.72729e-07
4.72722e-07
4.72716e-07
4.72709e-07
4.72702e-07
4.72696e-07
4.72689e-07
4.72681e-07
4.72673e-07
4.72665e-07
4.72656e-07
4.72648e-07
4.72639e-07
4.72631e-07
4.72622e-07
4.72614e-07
4.72608e-07
4.72601e-07
4.72594e-07
4.72585e-07
4.7258e-07
4.7257e-07
4.72574e-07
4.72564e-07
4.72597e-07
4.72543e-07
4.72615e-07
4.7248e-07
4.72535e-07
4.72459e-07
4.72447e-07
4.72502e-07
4.72512e-07
4.72835e-07
4.72928e-07
4.73475e-07
4.73226e-07
4.72962e-07
4.72964e-07
4.72965e-07
4.72967e-07
4.72968e-07
4.7297e-07
4.72971e-07
4.72973e-07
4.72974e-07
4.72976e-07
4.72977e-07
4.72978e-07
4.72979e-07
4.7298e-07
4.72981e-07
4.72982e-07
4.72983e-07
4.72984e-07
4.72986e-07
4.72987e-07
4.72988e-07
4.72989e-07
4.72991e-07
4.72991e-07
4.72991e-07
4.72992e-07
4.72992e-07
4.72992e-07
4.7299e-07
4.72992e-07
4.72986e-07
4.72995e-07
4.72973e-07
4.72995e-07
4.72966e-07
4.73008e-07
4.72974e-07
4.72994e-07
4.73e-07
4.7301e-07
4.73231e-07
4.7328e-07
4.73781e-07
4.73806e-07
4.72795e-07
4.72788e-07
4.72782e-07
4.72774e-07
4.72767e-07
4.72759e-07
4.72752e-07
4.72744e-07
4.72737e-07
4.7273e-07
4.72723e-07
4.72716e-07
4.72709e-07
4.72702e-07
4.72694e-07
4.72686e-07
4.72677e-07
4.72668e-07
4.72659e-07
4.7265e-07
4.72641e-07
4.72632e-07
4.72622e-07
4.72615e-07
4.72607e-07
4.72599e-07
4.7259e-07
4.72583e-07
4.72573e-07
4.72577e-07
4.72569e-07
4.72605e-07
4.72555e-07
4.72638e-07
4.72503e-07
4.72565e-07
4.72509e-07
4.72515e-07
4.72589e-07
4.72654e-07
4.72973e-07
4.73078e-07
4.73599e-07
4.73415e-07
4.72958e-07
4.72959e-07
4.7296e-07
4.72962e-07
4.72963e-07
4.72965e-07
4.72967e-07
4.72968e-07
4.7297e-07
4.72971e-07
4.72972e-07
4.72974e-07
4.72975e-07
4.72976e-07
4.72978e-07
4.72979e-07
4.7298e-07
4.72982e-07
4.72983e-07
4.72984e-07
4.72986e-07
4.72987e-07
4.72989e-07
4.7299e-07
4.7299e-07
4.72991e-07
4.72991e-07
4.72992e-07
4.7299e-07
4.72992e-07
4.72985e-07
4.72993e-07
4.7297e-07
4.7299e-07
4.7296e-07
4.72999e-07
4.72958e-07
4.72972e-07
4.72969e-07
4.72976e-07
4.73194e-07
4.7325e-07
4.73752e-07
4.73709e-07
4.72811e-07
4.72806e-07
4.728e-07
4.72794e-07
4.72787e-07
4.7278e-07
4.72773e-07
4.72766e-07
4.72759e-07
4.72751e-07
4.72744e-07
4.72737e-07
4.7273e-07
4.72723e-07
4.72715e-07
4.72707e-07
4.72697e-07
4.72687e-07
4.72678e-07
4.72669e-07
4.72659e-07
4.7265e-07
4.7264e-07
4.72632e-07
4.72624e-07
4.72615e-07
4.72605e-07
4.72597e-07
4.72586e-07
4.72589e-07
4.72582e-07
4.72619e-07
4.72572e-07
4.72665e-07
4.72531e-07
4.726e-07
4.72562e-07
4.72582e-07
4.72661e-07
4.72757e-07
4.73063e-07
4.73162e-07
4.73671e-07
4.7354e-07
4.72953e-07
4.72954e-07
4.72955e-07
4.72956e-07
4.72958e-07
4.72959e-07
4.72961e-07
4.72962e-07
4.72964e-07
4.72966e-07
4.72967e-07
4.72969e-07
4.7297e-07
4.72971e-07
4.72973e-07
4.72974e-07
4.72976e-07
4.72977e-07
4.72979e-07
4.72981e-07
4.72982e-07
4.72984e-07
4.72986e-07
4.72987e-07
4.72988e-07
4.72989e-07
4.72989e-07
4.7299e-07
4.72989e-07
4.7299e-07
4.72983e-07
4.72991e-07
4.72968e-07
4.72985e-07
4.72954e-07
4.72989e-07
4.72942e-07
4.7295e-07
4.72938e-07
4.72941e-07
4.73158e-07
4.73225e-07
4.73731e-07
4.73647e-07
4.72823e-07
4.72819e-07
4.72814e-07
4.72808e-07
4.72802e-07
4.72796e-07
4.72789e-07
4.72782e-07
4.72775e-07
4.72768e-07
4.72761e-07
4.72753e-07
4.72746e-07
4.72739e-07
4.72731e-07
4.72722e-07
4.72712e-07
4.72702e-07
4.72692e-07
4.72682e-07
4.72672e-07
4.72662e-07
4.72652e-07
4.72644e-07
4.72635e-07
4.72626e-07
4.72614e-07
4.72606e-07
4.72593e-07
4.72596e-07
4.72588e-07
4.72625e-07
4.72579e-07
4.72678e-07
4.72543e-07
4.72618e-07
4.72588e-07
4.72619e-07
4.72694e-07
4.72804e-07
4.73101e-07
4.73183e-07
4.73697e-07
4.73601e-07
4.72944e-07
4.72944e-07
4.72945e-07
4.72946e-07
4.72947e-07
4.72947e-07
4.72948e-07
4.72949e-07
4.7295e-07
4.72951e-07
4.72952e-07
4.72953e-07
4.72954e-07
4.72955e-07
4.72956e-07
4.72957e-07
4.72958e-07
4.7296e-07
4.72961e-07
4.72962e-07
4.72963e-07
4.72965e-07
4.72966e-07
4.72967e-07
4.72968e-07
4.72968e-07
4.72969e-07
4.7297e-07
4.7297e-07
4.72972e-07
4.72968e-07
4.72977e-07
4.72957e-07
4.72973e-07
4.72939e-07
4.72967e-07
4.72922e-07
4.72928e-07
4.72918e-07
4.72918e-07
4.73143e-07
4.73213e-07
4.73732e-07
4.73641e-07
4.72878e-07
4.72877e-07
4.72875e-07
4.72872e-07
4.72869e-07
4.72866e-07
4.72863e-07
4.7286e-07
4.72856e-07
4.72853e-07
4.72849e-07
4.72845e-07
4.72841e-07
4.72838e-07
4.72834e-07
4.72829e-07
4.72823e-07
4.72817e-07
4.72812e-07
4.72807e-07
4.72802e-07
4.72796e-07
4.72791e-07
4.72787e-07
4.72782e-07
4.72777e-07
4.72769e-07
4.72763e-07
4.72753e-07
4.72756e-07
4.72744e-07
4.72777e-07
4.72723e-07
4.72809e-07
4.7268e-07
4.72766e-07
4.7269e-07
4.72722e-07
4.7275e-07
4.72812e-07
4.73079e-07
4.73168e-07
4.73707e-07
4.73635e-07
4.72944e-07
4.72945e-07
4.72945e-07
4.72946e-07
4.72946e-07
4.72947e-07
4.72948e-07
4.72949e-07
4.7295e-07
4.72951e-07
4.72952e-07
4.72953e-07
4.72954e-07
4.72955e-07
4.72956e-07
4.72957e-07
4.72959e-07
4.7296e-07
4.72961e-07
4.72963e-07
4.72964e-07
4.72966e-07
4.72967e-07
4.72968e-07
4.72969e-07
4.7297e-07
4.72971e-07
4.72972e-07
4.72972e-07
4.72975e-07
4.7297e-07
4.72981e-07
4.7296e-07
4.72976e-07
4.72943e-07
4.72967e-07
4.72914e-07
4.72917e-07
4.72893e-07
4.72891e-07
4.73113e-07
4.73183e-07
4.73728e-07
4.73659e-07
4.72881e-07
4.72881e-07
4.72879e-07
4.72877e-07
4.72874e-07
4.72872e-07
4.72869e-07
4.72866e-07
4.72863e-07
4.72859e-07
4.72856e-07
4.72852e-07
4.72849e-07
4.72846e-07
4.72842e-07
4.72838e-07
4.72832e-07
4.72826e-07
4.72821e-07
4.72816e-07
4.72811e-07
4.72805e-07
4.728e-07
4.72796e-07
4.72792e-07
4.72787e-07
4.72779e-07
4.72772e-07
4.7276e-07
4.72762e-07
4.72748e-07
4.7278e-07
4.72723e-07
4.72808e-07
4.72675e-07
4.72754e-07
4.72676e-07
4.72699e-07
4.72731e-07
4.72772e-07
4.73041e-07
4.73145e-07
4.73715e-07
4.73664e-07
4.72943e-07
4.72943e-07
4.72944e-07
4.72944e-07
4.72945e-07
4.72946e-07
4.72946e-07
4.72947e-07
4.72948e-07
4.72949e-07
4.72951e-07
4.72952e-07
4.72953e-07
4.72953e-07
4.72954e-07
4.72955e-07
4.72956e-07
4.72958e-07
4.72959e-07
4.7296e-07
4.72962e-07
4.72963e-07
4.72965e-07
4.72966e-07
4.72967e-07
4.72967e-07
4.72968e-07
4.7297e-07
4.7297e-07
4.72973e-07
4.72969e-07
4.7298e-07
4.7296e-07
4.72976e-07
4.72942e-07
4.72965e-07
4.72904e-07
4.72903e-07
4.72864e-07
4.72855e-07
4.73074e-07
4.73151e-07
4.73722e-07
4.73706e-07
4.72884e-07
4.72884e-07
4.72883e-07
4.72881e-07
4.72878e-07
4.72876e-07
4.72873e-07
4.7287e-07
4.72867e-07
4.72863e-07
4.7286e-07
4.72856e-07
4.72853e-07
4.7285e-07
4.72848e-07
4.72844e-07
4.72839e-07
4.72833e-07
4.72827e-07
4.72823e-07
4.72817e-07
4.72811e-07
4.72806e-07
4.72802e-07
4.72798e-07
4.72793e-07
4.72784e-07
4.72777e-07
4.72764e-07
4.72764e-07
4.72749e-07
4.72778e-07
4.7272e-07
4.72801e-07
4.72665e-07
4.72734e-07
4.72656e-07
4.72669e-07
4.72709e-07
4.72734e-07
4.73008e-07
4.73125e-07
4.73728e-07
4.73638e-07
4.72944e-07
4.72944e-07
4.72944e-07
4.72944e-07
4.72945e-07
4.72946e-07
4.72947e-07
4.72948e-07
4.72949e-07
4.7295e-07
4.72951e-07
4.72952e-07
4.72953e-07
4.72954e-07
4.72955e-07
4.72956e-07
4.72957e-07
4.72959e-07
4.7296e-07
4.72961e-07
4.72963e-07
4.72965e-07
4.72966e-07
4.72967e-07
4.72968e-07
4.72969e-07
4.7297e-07
4.72972e-07
4.72973e-07
4.72977e-07
4.72974e-07
4.72985e-07
4.72966e-07
4.72983e-07
4.72951e-07
4.72975e-07
4.72913e-07
4.72911e-07
4.7286e-07
4.72852e-07
4.73058e-07
4.73138e-07
4.73768e-07
4.73866e-07
4.72928e-07
4.72928e-07
4.72928e-07
4.72927e-07
4.72927e-07
4.72926e-07
4.72926e-07
4.72926e-07
4.72926e-07
4.72925e-07
4.72925e-07
4.72925e-07
4.72925e-07
4.72925e-07
4.72924e-07
4.72924e-07
4.72923e-07
4.72922e-07
4.72921e-07
4.72921e-07
4.7292e-07
4.72919e-07
4.72919e-07
4.72918e-07
4.72916e-07
4.72914e-07
4.72911e-07
4.72908e-07
4.72901e-07
4.72905e-07
4.7289e-07
4.72915e-07
4.72864e-07
4.72906e-07
4.72796e-07
4.72853e-07
4.72733e-07
4.72694e-07
4.72658e-07
4.72602e-07
4.72836e-07
4.72996e-07
4.73716e-07
4.73767e-07
4.72933e-07
4.72933e-07
4.72933e-07
4.72933e-07
4.72933e-07
4.72933e-07
4.72934e-07
4.72934e-07
4.72934e-07
4.72934e-07
4.72935e-07
4.72935e-07
4.72935e-07
4.72935e-07
4.72935e-07
4.72935e-07
4.72935e-07
4.72935e-07
4.72935e-07
4.72935e-07
4.72935e-07
4.72936e-07
4.72935e-07
4.72935e-07
4.72935e-07
4.72934e-07
4.72932e-07
4.7293e-07
4.72924e-07
4.72927e-07
4.72914e-07
4.72932e-07
4.72885e-07
4.72922e-07
4.72808e-07
4.72847e-07
4.72706e-07
4.72601e-07
4.72493e-07
4.7233e-07
4.72534e-07
4.72787e-07
4.7377e-07
4.74207e-07
4.72926e-07
4.72926e-07
4.72925e-07
4.72923e-07
4.72922e-07
4.72921e-07
4.7292e-07
4.72919e-07
4.72918e-07
4.72917e-07
4.72917e-07
4.72917e-07
4.72917e-07
4.72916e-07
4.72916e-07
4.72915e-07
4.72914e-07
4.72913e-07
4.72911e-07
4.7291e-07
4.72909e-07
4.72908e-07
4.72906e-07
4.72905e-07
4.72903e-07
4.72899e-07
4.72892e-07
4.72886e-07
4.72873e-07
4.72871e-07
4.72852e-07
4.72879e-07
4.72824e-07
4.72861e-07
4.72732e-07
4.72734e-07
4.72549e-07
4.72358e-07
4.72153e-07
4.71875e-07
4.72138e-07
4.7239e-07
4.7353e-07
4.74357e-07
4.72935e-07
4.72935e-07
4.72935e-07
4.72936e-07
4.72936e-07
4.72936e-07
4.72937e-07
4.72937e-07
4.72937e-07
4.72938e-07
4.72938e-07
4.72938e-07
4.72938e-07
4.72939e-07
4.72939e-07
4.72939e-07
4.72939e-07
4.72939e-07
4.72939e-07
4.72939e-07
4.72939e-07
4.72938e-07
4.72938e-07
4.72938e-07
4.72937e-07
4.72936e-07
4.72931e-07
4.72927e-07
4.72915e-07
4.72914e-07
4.72898e-07
4.72919e-07
4.72868e-07
4.72893e-07
4.72769e-07
4.72758e-07
4.72559e-07
4.72314e-07
4.72023e-07
4.7166e-07
4.71837e-07
4.72219e-07
4.73804e-07
4.75171e-07
4.7292e-07
4.72918e-07
4.72916e-07
4.72913e-07
4.72911e-07
4.72908e-07
4.72906e-07
4.72905e-07
4.72904e-07
4.72903e-07
4.72903e-07
4.72903e-07
4.72903e-07
4.72903e-07
4.72903e-07
4.72902e-07
4.72901e-07
4.72899e-07
4.72898e-07
4.72896e-07
4.72894e-07
4.72892e-07
4.7289e-07
4.72888e-07
4.72885e-07
4.7288e-07
4.72871e-07
4.7286e-07
4.72841e-07
4.72834e-07
4.72812e-07
4.72841e-07
4.72791e-07
4.72824e-07
4.72692e-07
4.72636e-07
4.72396e-07
4.7204e-07
4.71649e-07
4.71143e-07
4.71302e-07
4.7156e-07
4.73257e-07
4.75425e-07
4.72941e-07
4.72941e-07
4.72941e-07
4.72942e-07
4.72942e-07
4.72943e-07
4.72943e-07
4.72943e-07
4.72944e-07
4.72944e-07
4.72944e-07
4.72945e-07
4.72945e-07
4.72945e-07
4.72945e-07
4.72946e-07
4.72946e-07
4.72946e-07
4.72946e-07
4.72946e-07
4.72946e-07
4.72946e-07
4.72946e-07
4.72945e-07
4.72944e-07
4.72941e-07
4.72934e-07
4.72926e-07
4.7291e-07
4.72903e-07
4.72885e-07
4.72907e-07
4.72852e-07
4.72861e-07
4.72735e-07
4.7267e-07
4.72432e-07
4.72047e-07
4.71564e-07
4.70974e-07
4.70961e-07
4.71391e-07
4.73821e-07
4.76793e-07
4.729e-07
4.72896e-07
4.72893e-07
4.72889e-07
4.72885e-07
4.72882e-07
4.7288e-07
4.72878e-07
4.72877e-07
4.72877e-07
4.72878e-07
4.72878e-07
4.72879e-07
4.72879e-07
4.72879e-07
4.72879e-07
4.72878e-07
4.72877e-07
4.72875e-07
4.72873e-07
4.7287e-07
4.72867e-07
4.72865e-07
4.72863e-07
4.7286e-07
4.72855e-07
4.72844e-07
4.7283e-07
4.72803e-07
4.72788e-07
4.72765e-07
4.72798e-07
4.7276e-07
4.72793e-07
4.72677e-07
4.72582e-07
4.72298e-07
4.71814e-07
4.71241e-07
4.70458e-07
4.70074e-07
4.70491e-07
4.73097e-07
4.77479e-07
4.72951e-07
4.72952e-07
4.72953e-07
4.72953e-07
4.72954e-07
4.72954e-07
4.72954e-07
4.72955e-07
4.72954e-07
4.72954e-07
4.72954e-07
4.72954e-07
4.72954e-07
4.72954e-07
4.72954e-07
4.72954e-07
4.72954e-07
4.72953e-07
4.72952e-07
4.72952e-07
4.72951e-07
4.72951e-07
4.7295e-07
4.72949e-07
4.72946e-07
4.72942e-07
4.72932e-07
4.72919e-07
4.72893e-07
4.72874e-07
4.7284e-07
4.72864e-07
4.72802e-07
4.72825e-07
4.72709e-07
4.72613e-07
4.72384e-07
4.71825e-07
4.71168e-07
4.70189e-07
4.69701e-07
4.70319e-07
4.73894e-07
4.80369e-07
4.72864e-07
4.72859e-07
4.72854e-07
4.72849e-07
4.72845e-07
4.72842e-07
4.72841e-07
4.72841e-07
4.72842e-07
4.72842e-07
4.72843e-07
4.72844e-07
4.72845e-07
4.72846e-07
4.72846e-07
4.72847e-07
4.72847e-07
4.72846e-07
4.72844e-07
4.72841e-07
4.72838e-07
4.72836e-07
4.72835e-07
4.72835e-07
4.72833e-07
4.7283e-07
4.72821e-07
4.72806e-07
4.72777e-07
4.72761e-07
4.72746e-07
4.72781e-07
4.72747e-07
4.72745e-07
4.72624e-07
4.72504e-07
4.72235e-07
4.71672e-07
4.71045e-07
4.69915e-07
4.68712e-07
4.69093e-07
4.71834e-07
4.80121e-07
4.72967e-07
4.72968e-07
4.72968e-07
4.72969e-07
4.72968e-07
4.72967e-07
4.72964e-07
4.7296e-07
4.72958e-07
4.72956e-07
4.72955e-07
4.72955e-07
4.72954e-07
4.72955e-07
4.72955e-07
4.72955e-07
4.72955e-07
4.72955e-07
4.72955e-07
4.72956e-07
4.72955e-07
4.72953e-07
4.7295e-07
4.72948e-07
4.72946e-07
4.72941e-07
4.72929e-07
4.72909e-07
4.72864e-07
4.72811e-07
4.72737e-07
4.72742e-07
4.72701e-07
4.7276e-07
4.72682e-07
4.72581e-07
4.72336e-07
4.71643e-07
4.70764e-07
4.69332e-07
4.68616e-07
4.67847e-07
4.62108e-07
4.71197e-07
4.72813e-07
4.72807e-07
4.72803e-07
4.728e-07
4.728e-07
4.72801e-07
4.72801e-07
4.72802e-07
4.72802e-07
4.72803e-07
4.72804e-07
4.72805e-07
4.72805e-07
4.72806e-07
4.72806e-07
4.72804e-07
4.72801e-07
4.72796e-07
4.72791e-07
4.72787e-07
4.72784e-07
4.72785e-07
4.72786e-07
4.72787e-07
4.72788e-07
4.72789e-07
4.72784e-07
4.7277e-07
4.72737e-07
4.72726e-07
4.72731e-07
4.7278e-07
4.72746e-07
4.72722e-07
4.72619e-07
4.72522e-07
4.72287e-07
4.71743e-07
4.71042e-07
4.69461e-07
4.66287e-07
4.53629e-07
4.3338e-07
4.29217e-07
4.72984e-07
4.72982e-07
4.72978e-07
4.72971e-07
4.72963e-07
4.72956e-07
4.72949e-07
4.72944e-07
4.7294e-07
4.72937e-07
4.72936e-07
4.72936e-07
4.72936e-07
4.72937e-07
4.72938e-07
4.72939e-07
4.72941e-07
4.72942e-07
4.72943e-07
4.72942e-07
4.72937e-07
4.7293e-07
4.72924e-07
4.7292e-07
4.72915e-07
4.7291e-07
4.72899e-07
4.72875e-07
4.72811e-07
4.72701e-07
4.72564e-07
4.72539e-07
4.72552e-07
4.72629e-07
4.72557e-07
4.72421e-07
4.72206e-07
4.71231e-07
4.69555e-07
4.65296e-07
4.54629e-07
4.15495e-07
3.9249e-07
3.73254e-07
4.72731e-07
4.72732e-07
4.72733e-07
4.72735e-07
4.72736e-07
4.72738e-07
4.72739e-07
4.7274e-07
4.72741e-07
4.72741e-07
4.72741e-07
4.72741e-07
4.72739e-07
4.72735e-07
4.7273e-07
4.72723e-07
4.72716e-07
4.7271e-07
4.72706e-07
4.72706e-07
4.72708e-07
4.72711e-07
4.72711e-07
4.72701e-07
4.72687e-07
4.72674e-07
4.72637e-07
4.72511e-07
4.72114e-07
4.7108e-07
4.68971e-07
4.66789e-07
4.66308e-07
4.6713e-07
4.67341e-07
4.6655e-07
4.64785e-07
4.58331e-07
4.43439e-07
4.14889e-07
3.71095e-07
3.62383e-07
4.22231e-07
3.40675e-07
2.36417e-07
2.36464e-07
2.36499e-07
2.36521e-07
2.3653e-07
2.36526e-07
2.36512e-07
2.36489e-07
2.3646e-07
2.3643e-07
2.36405e-07
2.36387e-07
2.3638e-07
2.36385e-07
2.36403e-07
2.36431e-07
2.36465e-07
2.36499e-07
2.36526e-07
2.36538e-07
2.36531e-07
2.36502e-07
2.36456e-07
2.36406e-07
2.36361e-07
2.36324e-07
2.36284e-07
2.36238e-07
2.36137e-07
2.35651e-07
2.3431e-07
2.32477e-07
2.31524e-07
2.31631e-07
2.3155e-07
2.31712e-07
2.32993e-07
2.34778e-07
2.36861e-07
2.31726e-07
2.66127e-07
5.08336e-07
5.29063e-07
4.69024e-07
2.10489e-07
2.09714e-07
2.08926e-07
2.08123e-07
2.07307e-07
2.06483e-07
2.05654e-07
2.04824e-07
2.04001e-07
2.03191e-07
2.02403e-07
2.01653e-07
2.0096e-07
2.00349e-07
1.9983e-07
1.99451e-07
1.99231e-07
1.99042e-07
1.98875e-07
1.98702e-07
1.98518e-07
1.98282e-07
1.98001e-07
1.97684e-07
1.97336e-07
1.96969e-07
1.9659e-07
1.96218e-07
1.95838e-07
1.94865e-07
1.84899e-07
1.57934e-07
1.38271e-07
1.42723e-07
1.576e-07
1.779e-07
2.04096e-07
2.25283e-07
2.19166e-07
1.55642e-07
2.46008e-07
7.69517e-07
8.74136e-07
8.21417e-07
1.90327e-07
1.85258e-07
1.79781e-07
1.73948e-07
1.67771e-07
1.61269e-07
1.54457e-07
1.47385e-07
1.40146e-07
1.3284e-07
1.25637e-07
1.18748e-07
1.12444e-07
1.07026e-07
1.0265e-07
9.9154e-08
9.60149e-08
9.26844e-08
8.90949e-08
8.50566e-08
8.05665e-08
7.54202e-08
6.99687e-08
6.45288e-08
5.91618e-08
5.39816e-08
4.90714e-08
4.46011e-08
3.98211e-08
3.12067e-08
1.52975e-08
7.08371e-09
5.04775e-09
5.47667e-09
6.85613e-09
1.12377e-08
1.5266e-08
1.61937e-08
1.57747e-08
3.12232e-08
1.23144e-07
5.74579e-07
8.98251e-07
1.39165e-06
2.83382e-07
2.8275e-07
2.82132e-07
2.8153e-07
2.8095e-07
2.80395e-07
2.79866e-07
2.79362e-07
2.78872e-07
2.78388e-07
2.779e-07
2.77393e-07
2.76847e-07
2.76261e-07
2.75651e-07
2.75115e-07
2.74729e-07
2.74386e-07
2.74108e-07
2.73927e-07
2.73822e-07
2.73815e-07
2.73851e-07
2.7387e-07
2.73752e-07
2.73073e-07
2.71166e-07
2.65968e-07
2.50774e-07
2.16361e-07
1.61432e-07
9.69581e-08
5.70837e-08
3.9703e-08
3.27784e-08
2.46323e-08
1.77316e-08
1.73545e-08
4.88892e-08
1.104e-07
1.72311e-07
1.94728e-07
1.59949e-07
2.08805e-07
4.65055e-07
4.6492e-07
4.64828e-07
4.64779e-07
4.64774e-07
4.64815e-07
4.6489e-07
4.64972e-07
4.6506e-07
4.65153e-07
4.65252e-07
4.65355e-07
4.65454e-07
4.65528e-07
4.6557e-07
4.65581e-07
4.65567e-07
4.6555e-07
4.65554e-07
4.65604e-07
4.65721e-07
4.65869e-07
4.66046e-07
4.6626e-07
4.66495e-07
4.66598e-07
4.66186e-07
4.64384e-07
4.57831e-07
4.39173e-07
4.06815e-07
3.72775e-07
3.54724e-07
3.48018e-07
3.30315e-07
2.96204e-07
2.78595e-07
3.13805e-07
3.76551e-07
4.21699e-07
4.49891e-07
4.68165e-07
4.78607e-07
5.84612e-07
4.71797e-07
4.71793e-07
4.71793e-07
4.71796e-07
4.71799e-07
4.71804e-07
4.71814e-07
4.71829e-07
4.71848e-07
4.71869e-07
4.71892e-07
4.71914e-07
4.71938e-07
4.71963e-07
4.71988e-07
4.72016e-07
4.72046e-07
4.72076e-07
4.72111e-07
4.72146e-07
4.72184e-07
4.72224e-07
4.72256e-07
4.72233e-07
4.72193e-07
4.72077e-07
4.7161e-07
4.70616e-07
4.68593e-07
4.64196e-07
4.56265e-07
4.48296e-07
4.45623e-07
4.44853e-07
4.42742e-07
4.38741e-07
4.40439e-07
4.48855e-07
4.61171e-07
4.66445e-07
4.6954e-07
4.8166e-07
4.79744e-07
4.89416e-07
4.73047e-07
4.73025e-07
4.73e-07
4.72976e-07
4.72959e-07
4.72936e-07
4.72902e-07
4.72861e-07
4.72815e-07
4.72767e-07
4.72719e-07
4.72673e-07
4.72632e-07
4.72597e-07
4.7257e-07
4.72545e-07
4.7252e-07
4.72492e-07
4.72462e-07
4.72424e-07
4.7237e-07
4.72311e-07
4.72295e-07
4.72315e-07
4.72344e-07
4.72407e-07
4.72628e-07
4.73101e-07
4.74031e-07
4.75543e-07
4.7678e-07
4.7672e-07
4.7453e-07
4.7349e-07
4.73866e-07
4.75082e-07
4.76823e-07
4.76409e-07
4.68736e-07
4.53973e-07
4.49788e-07
4.68977e-07
4.72702e-07
4.75483e-07
4.71923e-07
4.71924e-07
4.71929e-07
4.71934e-07
4.71941e-07
4.71953e-07
4.71971e-07
4.71993e-07
4.72021e-07
4.72054e-07
4.72092e-07
4.72132e-07
4.72174e-07
4.72218e-07
4.72258e-07
4.72305e-07
4.72353e-07
4.72401e-07
4.72455e-07
4.72508e-07
4.72558e-07
4.72586e-07
4.72548e-07
4.72422e-07
4.72284e-07
4.7214e-07
4.71716e-07
4.70874e-07
4.69512e-07
4.67617e-07
4.65263e-07
4.63351e-07
4.63616e-07
4.64338e-07
4.6467e-07
4.65479e-07
4.67147e-07
4.69722e-07
4.73094e-07
4.74515e-07
4.67351e-07
4.73458e-07
4.75029e-07
4.72513e-07
4.73107e-07
4.73091e-07
4.7307e-07
4.73052e-07
4.73026e-07
4.72989e-07
4.72945e-07
4.72897e-07
4.72844e-07
4.72786e-07
4.72725e-07
4.72664e-07
4.72604e-07
4.72547e-07
4.72494e-07
4.72443e-07
4.72394e-07
4.72346e-07
4.72315e-07
4.72283e-07
4.7225e-07
4.7223e-07
4.72271e-07
4.72342e-07
4.72444e-07
4.7257e-07
4.72802e-07
4.7322e-07
4.73888e-07
4.74797e-07
4.75595e-07
4.75747e-07
4.75268e-07
4.74941e-07
4.7526e-07
4.75645e-07
4.75141e-07
4.73353e-07
4.6738e-07
4.57518e-07
4.52467e-07
4.62851e-07
4.67925e-07
4.65948e-07
4.72002e-07
4.72009e-07
4.72025e-07
4.72044e-07
4.72067e-07
4.72095e-07
4.72129e-07
4.72165e-07
4.72205e-07
4.72246e-07
4.72296e-07
4.7235e-07
4.72408e-07
4.72469e-07
4.72518e-07
4.72511e-07
4.72489e-07
4.7246e-07
4.72386e-07
4.72298e-07
4.72221e-07
4.72144e-07
4.72058e-07
4.71894e-07
4.71657e-07
4.71435e-07
4.71106e-07
4.7046e-07
4.69436e-07
4.68055e-07
4.66271e-07
4.64692e-07
4.64014e-07
4.64498e-07
4.65075e-07
4.66346e-07
4.68057e-07
4.69998e-07
4.70945e-07
4.71561e-07
4.65505e-07
4.68512e-07
4.6741e-07
4.67205e-07
4.73081e-07
4.73071e-07
4.73054e-07
4.73028e-07
4.72995e-07
4.72956e-07
4.72912e-07
4.72865e-07
4.72816e-07
4.72767e-07
4.72715e-07
4.72662e-07
4.7262e-07
4.72589e-07
4.7256e-07
4.72548e-07
4.7254e-07
4.7253e-07
4.72519e-07
4.7251e-07
4.72505e-07
4.72514e-07
4.72555e-07
4.72634e-07
4.72767e-07
4.72933e-07
4.73138e-07
4.73476e-07
4.7394e-07
4.74506e-07
4.75056e-07
4.7521e-07
4.75203e-07
4.7489e-07
4.74519e-07
4.74172e-07
4.73238e-07
4.71374e-07
4.65607e-07
4.60244e-07
4.55674e-07
4.61456e-07
4.64367e-07
4.63955e-07
4.72152e-07
4.72168e-07
4.7219e-07
4.7222e-07
4.72253e-07
4.72288e-07
4.72327e-07
4.72366e-07
4.72409e-07
4.72441e-07
4.72422e-07
4.7238e-07
4.72309e-07
4.72216e-07
4.7213e-07
4.72061e-07
4.71996e-07
4.71931e-07
4.71872e-07
4.7181e-07
4.71746e-07
4.71675e-07
4.71592e-07
4.71438e-07
4.71177e-07
4.70868e-07
4.7061e-07
4.70127e-07
4.69364e-07
4.68393e-07
4.67208e-07
4.66159e-07
4.6562e-07
4.66284e-07
4.66957e-07
4.67688e-07
4.67221e-07
4.67337e-07
4.66819e-07
4.68588e-07
4.64787e-07
4.6555e-07
4.64579e-07
4.65307e-07
4.73035e-07
4.73023e-07
4.7301e-07
4.72992e-07
4.72969e-07
4.72941e-07
4.72909e-07
4.72878e-07
4.72861e-07
4.72848e-07
4.72848e-07
4.72852e-07
4.72852e-07
4.7285e-07
4.72848e-07
4.72843e-07
4.72837e-07
4.72831e-07
4.72823e-07
4.72818e-07
4.72821e-07
4.72837e-07
4.72872e-07
4.72926e-07
4.73e-07
4.73111e-07
4.73218e-07
4.73384e-07
4.73652e-07
4.7399e-07
4.74344e-07
4.74476e-07
4.74406e-07
4.74121e-07
4.7367e-07
4.73217e-07
4.71779e-07
4.70207e-07
4.6506e-07
4.62992e-07
4.58573e-07
4.60783e-07
4.61679e-07
4.63534e-07
4.72321e-07
4.72339e-07
4.72358e-07
4.72381e-07
4.72404e-07
4.72428e-07
4.72412e-07
4.72365e-07
4.72272e-07
4.72168e-07
4.72079e-07
4.71992e-07
4.71909e-07
4.7183e-07
4.7175e-07
4.71678e-07
4.71608e-07
4.71542e-07
4.71479e-07
4.71416e-07
4.7135e-07
4.71277e-07
4.71177e-07
4.71023e-07
4.70782e-07
4.7048e-07
4.70218e-07
4.69992e-07
4.69556e-07
4.68951e-07
4.68264e-07
4.67765e-07
4.67424e-07
4.66822e-07
4.65643e-07
4.64858e-07
4.63451e-07
4.64441e-07
4.63714e-07
4.66532e-07
4.64645e-07
4.64438e-07
4.6279e-07
4.64466e-07
4.72969e-07
4.72956e-07
4.72942e-07
4.72928e-07
4.7292e-07
4.72924e-07
4.72938e-07
4.72954e-07
4.72966e-07
4.72975e-07
4.72981e-07
4.72987e-07
4.72991e-07
4.72993e-07
4.72994e-07
4.72992e-07
4.72987e-07
4.7298e-07
4.72969e-07
4.72955e-07
4.72939e-07
4.72922e-07
4.72906e-07
4.72902e-07
4.72932e-07
4.72997e-07
4.73089e-07
4.73167e-07
4.73291e-07
4.7347e-07
4.73634e-07
4.73628e-07
4.73648e-07
4.73579e-07
4.73019e-07
4.72328e-07
4.70307e-07
4.69259e-07
4.65558e-07
4.64506e-07
4.60616e-07
4.61289e-07
4.61188e-07
4.6343e-07
4.72486e-07
4.72499e-07
4.72505e-07
4.72466e-07
4.72398e-07
4.72292e-07
4.72198e-07
4.72111e-07
4.72033e-07
4.71953e-07
4.71875e-07
4.71797e-07
4.7172e-07
4.71643e-07
4.71565e-07
4.71488e-07
4.71411e-07
4.71335e-07
4.71264e-07
4.71194e-07
4.71126e-07
4.71059e-07
4.70992e-07
4.70906e-07
4.70741e-07
4.70489e-07
4.70174e-07
4.69907e-07
4.69685e-07
4.69403e-07
4.68966e-07
4.682e-07
4.66462e-07
4.65128e-07
4.63876e-07
4.63681e-07
4.62312e-07
4.63661e-07
4.62323e-07
4.65069e-07
4.64664e-07
4.63914e-07
4.62526e-07
4.64319e-07
4.72902e-07
4.72893e-07
4.72899e-07
4.72915e-07
4.7293e-07
4.72941e-07
4.72949e-07
4.72955e-07
4.72959e-07
4.72962e-07
4.72963e-07
4.72963e-07
4.72962e-07
4.72959e-07
4.72954e-07
4.72946e-07
4.72937e-07
4.72924e-07
4.72907e-07
4.72886e-07
4.72862e-07
4.72834e-07
4.72805e-07
4.7278e-07
4.72776e-07
4.72807e-07
4.72869e-07
4.72947e-07
4.73017e-07
4.73089e-07
4.73197e-07
4.73312e-07
4.73231e-07
4.72957e-07
4.72111e-07
4.71366e-07
4.69168e-07
4.68634e-07
4.65426e-07
4.65548e-07
4.62357e-07
4.6161e-07
4.61434e-07
4.639e-07
4.7258e-07
4.72523e-07
4.72425e-07
4.7234e-07
4.72261e-07
4.72188e-07
4.72116e-07
4.72045e-07
4.71978e-07
4.71912e-07
4.71847e-07
4.71783e-07
4.71719e-07
4.71656e-07
4.71593e-07
4.71529e-07
4.71465e-07
4.71399e-07
4.71335e-07
4.71271e-07
4.71208e-07
4.71148e-07
4.71092e-07
4.71023e-07
4.70923e-07
4.70718e-07
4.70415e-07
4.70044e-07
4.69626e-07
4.69109e-07
4.68356e-07
4.67292e-07
4.66036e-07
4.65033e-07
4.63924e-07
4.63899e-07
4.62378e-07
4.63818e-07
4.62283e-07
4.64291e-07
4.64427e-07
4.63641e-07
4.62807e-07
4.64562e-07
4.7288e-07
4.72893e-07
4.72902e-07
4.72909e-07
4.72914e-07
4.72917e-07
4.72919e-07
4.72919e-07
4.72917e-07
4.72914e-07
4.72909e-07
4.72902e-07
4.72893e-07
4.72882e-07
4.72869e-07
4.72854e-07
4.72837e-07
4.72816e-07
4.72793e-07
4.72765e-07
4.72734e-07
4.72699e-07
4.72657e-07
4.72618e-07
4.72583e-07
4.72575e-07
4.72597e-07
4.72642e-07
4.72696e-07
4.7276e-07
4.72804e-07
4.72789e-07
4.72544e-07
4.7219e-07
4.71266e-07
4.70624e-07
4.68536e-07
4.68251e-07
4.65389e-07
4.65583e-07
4.63757e-07
4.61843e-07
4.61994e-07
4.64397e-07
4.72496e-07
4.72429e-07
4.72368e-07
4.72307e-07
4.72247e-07
4.7219e-07
4.72133e-07
4.72077e-07
4.72022e-07
4.71968e-07
4.71915e-07
4.71864e-07
4.71815e-07
4.71766e-07
4.71718e-07
4.71671e-07
4.71623e-07
4.71574e-07
4.71525e-07
4.71476e-07
4.71426e-07
4.71379e-07
4.71328e-07
4.71286e-07
4.71218e-07
4.71074e-07
4.70821e-07
4.70456e-07
4.69977e-07
4.69361e-07
4.68566e-07
4.67611e-07
4.66576e-07
4.657e-07
4.64583e-07
4.6468e-07
4.63092e-07
4.64417e-07
4.62722e-07
4.64129e-07
4.6393e-07
4.63535e-07
4.63302e-07
4.64982e-07
4.72872e-07
4.72875e-07
4.72876e-07
4.72875e-07
4.72874e-07
4.7287e-07
4.72865e-07
4.72859e-07
4.72851e-07
4.72842e-07
4.7283e-07
4.72816e-07
4.728e-07
4.72782e-07
4.72761e-07
4.72737e-07
4.72709e-07
4.72679e-07
4.72644e-07
4.72606e-07
4.72563e-07
4.72511e-07
4.7246e-07
4.72397e-07
4.72333e-07
4.7228e-07
4.72249e-07
4.7224e-07
4.72242e-07
4.72251e-07
4.72216e-07
4.72125e-07
4.71824e-07
4.71432e-07
4.70537e-07
4.7007e-07
4.68114e-07
4.67975e-07
4.65423e-07
4.6548e-07
4.64271e-07
4.62346e-07
4.62625e-07
4.64809e-07
4.72474e-07
4.72426e-07
4.7238e-07
4.72335e-07
4.7229e-07
4.72247e-07
4.72204e-07
4.72163e-07
4.72123e-07
4.72083e-07
4.72046e-07
4.72009e-07
4.71973e-07
4.71938e-07
4.71903e-07
4.71868e-07
4.71833e-07
4.71795e-07
4.71757e-07
4.71718e-07
4.71678e-07
4.71633e-07
4.71596e-07
4.71556e-07
4.71509e-07
4.71418e-07
4.71233e-07
4.70929e-07
4.70495e-07
4.69913e-07
4.69173e-07
4.68336e-07