/*--------------------------------*- C++ -*----------------------------------*\
| =========                 |                                                 |
| \\      /  F ield         | OpenFOAM: The Open Source CFD Toolbox           |
|  \\    /   O peration     | Version:  v1912                                 |
|   \\  /    A nd           | Website:  www.openfoam.com                      |
|    \\/     M anipulation  |                                                 |
\*---------------------------------------------------------------------------*/
FoamFile
{
    version     2.0;
    format      ascii;
    class       volVectorField;
    location    "50";
    object      U;
}
// * * * * * * * * * * * * * * * * * * * * * * * * * * * * * * * * * * * * * //

dimensions      [0 1 -1 0 0 0 0];


internalField   nonuniform List<vector> 
14268
(
(0.000341067 3.42997e-05 0)
(0.000323064 3.24897e-05 0)
(0.000305977 3.07717e-05 0)
(0.000289764 2.91415e-05 0)
(0.00027438 2.75947e-05 0)
(0.000259789 2.61275e-05 0)
(0.000245949 2.47359e-05 0)
(0.000232828 2.34166e-05 0)
(0.000220388 2.21657e-05 0)
(0.0002086 2.09802e-05 0)
(0.000197427 1.98567e-05 0)
(0.000186844 1.87925e-05 0)
(0.000176819 1.77842e-05 0)
(0.000167327 1.68296e-05 0)
(0.000158338 1.59256e-05 0)
(0.000149831 1.50701e-05 0)
(0.000141779 1.42602e-05 0)
(0.000134162 1.34942e-05 0)
(0.000126956 1.27693e-05 0)
(0.000120142 1.2084e-05 0)
(0.000113698 1.14358e-05 0)
(0.000107608 1.08233e-05 0)
(0.000101852 1.02442e-05 0)
(9.64139e-05 9.69718e-06 0)
(9.12763e-05 9.18036e-06 0)
(8.6425e-05 8.69232e-06 0)
(8.18441e-05 8.23148e-06 0)
(7.75203e-05 7.79649e-06 0)
(7.34398e-05 7.38596e-06 0)
(6.959e-05 6.99863e-06 0)
(6.59586e-05 6.63327e-06 0)
(6.25342e-05 6.28873e-06 0)
(5.93059e-05 5.96389e-06 0)
(5.6263e-05 5.65772e-06 0)
(5.33958e-05 5.36921e-06 0)
(5.06947e-05 5.09741e-06 0)
(4.8151e-05 4.84142e-06 0)
(4.57558e-05 4.60039e-06 0)
(4.35013e-05 4.3735e-06 0)
(4.13796e-05 4.15998e-06 0)
(3.93837e-05 3.9591e-06 0)
(3.75062e-05 3.77014e-06 0)
(3.57411e-05 3.59249e-06 0)
(3.40817e-05 3.42546e-06 0)
(3.25225e-05 3.26851e-06 0)
(3.10573e-05 3.12104e-06 0)
(2.96815e-05 2.98254e-06 0)
(2.83894e-05 2.85247e-06 0)
(2.71767e-05 2.73039e-06 0)
(2.60386e-05 2.61581e-06 0)
(2.4971e-05 2.50832e-06 0)
(2.39697e-05 2.40751e-06 0)
(2.30308e-05 2.31298e-06 0)
(2.21509e-05 2.22438e-06 0)
(2.13263e-05 2.14136e-06 0)
(2.0554e-05 2.06359e-06 0)
(1.98307e-05 1.99074e-06 0)
(1.91536e-05 1.92256e-06 0)
(1.85199e-05 1.85874e-06 0)
(1.79271e-05 1.79904e-06 0)
(1.73725e-05 1.74318e-06 0)
(1.68541e-05 1.69097e-06 0)
(1.63695e-05 1.64215e-06 0)
(1.59167e-05 1.59654e-06 0)
(1.54936e-05 1.55392e-06 0)
(1.50986e-05 1.51413e-06 0)
(1.47298e-05 1.47698e-06 0)
(1.43857e-05 1.4423e-06 0)
(1.40645e-05 1.40994e-06 0)
(1.3765e-05 1.37977e-06 0)
(1.34857e-05 1.35162e-06 0)
(1.32253e-05 1.32538e-06 0)
(1.29826e-05 1.30092e-06 0)
(1.27565e-05 1.27814e-06 0)
(1.25458e-05 1.2569e-06 0)
(1.23496e-05 1.23713e-06 0)
(1.21668e-05 1.21871e-06 0)
(1.19966e-05 1.20156e-06 0)
(1.18381e-05 1.18558e-06 0)
(1.16906e-05 1.17071e-06 0)
(1.15532e-05 1.15686e-06 0)
(1.14252e-05 1.14396e-06 0)
(1.1306e-05 1.13194e-06 0)
(1.11948e-05 1.12074e-06 0)
(1.10912e-05 1.1103e-06 0)
(1.09945e-05 1.10055e-06 0)
(1.09042e-05 1.09145e-06 0)
(1.08197e-05 1.08294e-06 0)
(1.07406e-05 1.07497e-06 0)
(1.06664e-05 1.06749e-06 0)
(1.05966e-05 1.06047e-06 0)
(1.05308e-05 1.05385e-06 0)
(1.04687e-05 1.04759e-06 0)
(1.04097e-05 1.04165e-06 0)
(1.03535e-05 1.03601e-06 0)
(1.02996e-05 1.03059e-06 0)
(1.0248e-05 1.0254e-06 0)
(1.01972e-05 1.02032e-06 0)
(1.01494e-05 1.01551e-06 0)
(1.00996e-05 1.01055e-06 0)
(1.00548e-05 1.00602e-06 0)
(1.00035e-05 1.00097e-06 0)
(9.96118e-06 9.96635e-07 0)
(9.90612e-06 9.91261e-07 0)
(9.8665e-06 9.8717e-07 0)
(9.80307e-06 9.81007e-07 0)
(9.76858e-06 9.77396e-07 0)
(9.69109e-06 9.69876e-07 0)
(9.6656e-06 9.67128e-07 0)
(9.5669e-06 9.57539e-07 0)
(9.55686e-06 9.56286e-07 0)
(9.4278e-06 9.43718e-07 0)
(9.44335e-06 9.44963e-07 0)
(9.27276e-06 9.28288e-07 0)
(9.32853e-06 9.33492e-07 0)
(9.10356e-06 9.11415e-07 0)
(9.21846e-06 9.22452e-07 0)
(8.92655e-06 8.9373e-07 0)
(9.11965e-06 9.12466e-07 0)
(8.75269e-06 8.76365e-07 0)
(9.03294e-06 9.03605e-07 0)
(8.59263e-06 8.6047e-07 0)
(8.94465e-06 8.94573e-07 0)
(8.4454e-06 8.46031e-07 0)
(8.82334e-06 8.82351e-07 0)
(8.29322e-06 8.31213e-07 0)
(8.64548e-06 8.64398e-07 0)
(8.14334e-06 8.16569e-07 0)
(8.41843e-06 8.41563e-07 0)
(8.02326e-06 8.04651e-07 0)
(8.18106e-06 8.17491e-07 0)
(7.99102e-06 8.01164e-07 0)
(7.99355e-06 7.98265e-07 0)
(8.06184e-06 8.07703e-07 0)
(7.90279e-06 7.8886e-07 0)
(8.20452e-06 8.21348e-07 0)
(7.91835e-06 7.9026e-07 0)
(8.38528e-06 8.39059e-07 0)
(7.99114e-06 7.97525e-07 0)
(8.57815e-06 8.57472e-07 0)
(8.21926e-06 8.20374e-07 0)
(8.77892e-06 8.7732e-07 0)
(8.47869e-06 8.46434e-07 0)
(8.97257e-06 8.96578e-07 0)
(8.74336e-06 8.73053e-07 0)
(9.15172e-06 9.145e-07 0)
(8.98961e-06 8.97838e-07 0)
(9.31162e-06 9.30573e-07 0)
(9.20508e-06 9.19544e-07 0)
(9.45117e-06 9.44624e-07 0)
(9.38659e-06 9.37844e-07 0)
(9.57176e-06 9.56762e-07 0)
(9.53689e-06 9.53007e-07 0)
(9.6767e-06 9.67315e-07 0)
(9.66162e-06 9.65579e-07 0)
(9.77112e-06 9.76791e-07 0)
(9.76831e-06 9.76301e-07 0)
(9.86361e-06 9.8603e-07 0)
(9.86755e-06 9.86184e-07 0)
(9.97578e-06 9.97126e-07 0)
(9.98234e-06 9.9705e-07 0)
(1.02371e-05 1.02248e-06 0)
(1.0249e-05 9.97295e-07 0)
(1.5742e-05 1.54652e-06 0)
(0.000340349 3.4614e-05 0)
(0.000322371 3.27869e-05 0)
(0.000305307 3.10526e-05 0)
(0.000289115 2.94068e-05 0)
(0.000273752 2.78452e-05 0)
(0.000259181 2.63639e-05 0)
(0.00024536 2.49589e-05 0)
(0.000232257 2.36268e-05 0)
(0.000219834 2.23637e-05 0)
(0.000208062 2.11666e-05 0)
(0.000196904 2.0032e-05 0)
(0.000186336 1.89573e-05 0)
(0.000176324 1.7939e-05 0)
(0.000166845 1.69749e-05 0)
(0.000157868 1.60619e-05 0)
(0.000149373 1.51977e-05 0)
(0.000141332 1.43797e-05 0)
(0.000133726 1.36058e-05 0)
(0.000126529 1.28736e-05 0)
(0.000119725 1.21812e-05 0)
(0.00011329 1.15264e-05 0)
(0.000107208 1.09075e-05 0)
(0.00010146 1.03224e-05 0)
(9.6029e-05 9.76969e-06 0)
(9.08985e-05 9.24746e-06 0)
(8.60539e-05 8.75427e-06 0)
(8.14793e-05 8.28855e-06 0)
(7.71615e-05 7.84892e-06 0)
(7.30865e-05 7.434e-06 0)
(6.92421e-05 7.04251e-06 0)
(6.56157e-05 6.6732e-06 0)
(6.21961e-05 6.32492e-06 0)
(5.89722e-05 5.99654e-06 0)
(5.59335e-05 5.68701e-06 0)
(5.30703e-05 5.39532e-06 0)
(5.0373e-05 5.12051e-06 0)
(4.78327e-05 4.86168e-06 0)
(4.54408e-05 4.61795e-06 0)
(4.31895e-05 4.38851e-06 0)
(4.10707e-05 4.17257e-06 0)
(3.90776e-05 3.96942e-06 0)
(3.72028e-05 3.7783e-06 0)
(3.54402e-05 3.59861e-06 0)
(3.3783e-05 3.42965e-06 0)
(3.2226e-05 3.27089e-06 0)
(3.07629e-05 3.12169e-06 0)
(2.9389e-05 2.98157e-06 0)
(2.80987e-05 2.84997e-06 0)
(2.68877e-05 2.72644e-06 0)
(2.57512e-05 2.6105e-06 0)
(2.46851e-05 2.50173e-06 0)
(2.36852e-05 2.3997e-06 0)
(2.27477e-05 2.30403e-06 0)
(2.1869e-05 2.21435e-06 0)
(2.10456e-05 2.13031e-06 0)
(2.02744e-05 2.05158e-06 0)
(1.95521e-05 1.97784e-06 0)
(1.8876e-05 1.90881e-06 0)
(1.82431e-05 1.84419e-06 0)
(1.76511e-05 1.78374e-06 0)
(1.70974e-05 1.72718e-06 0)
(1.65797e-05 1.6743e-06 0)
(1.60957e-05 1.62486e-06 0)
(1.56436e-05 1.57866e-06 0)
(1.52211e-05 1.5355e-06 0)
(1.48267e-05 1.49519e-06 0)
(1.44584e-05 1.45755e-06 0)
(1.41148e-05 1.42242e-06 0)
(1.37941e-05 1.38964e-06 0)
(1.3495e-05 1.35906e-06 0)
(1.3216e-05 1.33054e-06 0)
(1.2956e-05 1.30395e-06 0)
(1.27137e-05 1.27917e-06 0)
(1.24879e-05 1.25608e-06 0)
(1.22775e-05 1.23455e-06 0)
(1.20816e-05 1.21451e-06 0)
(1.1899e-05 1.19584e-06 0)
(1.17291e-05 1.17846e-06 0)
(1.15709e-05 1.16227e-06 0)
(1.14235e-05 1.14719e-06 0)
(1.12863e-05 1.13315e-06 0)
(1.11585e-05 1.12008e-06 0)
(1.10394e-05 1.1079e-06 0)
(1.09285e-05 1.09655e-06 0)
(1.0825e-05 1.08597e-06 0)
(1.07284e-05 1.07609e-06 0)
(1.06382e-05 1.06687e-06 0)
(1.05539e-05 1.05825e-06 0)
(1.04749e-05 1.05019e-06 0)
(1.04008e-05 1.04262e-06 0)
(1.03311e-05 1.03552e-06 0)
(1.02654e-05 1.02882e-06 0)
(1.02033e-05 1.0225e-06 0)
(1.01444e-05 1.01651e-06 0)
(1.00883e-05 1.01081e-06 0)
(1.00344e-05 1.00536e-06 0)
(9.98287e-06 1.00014e-06 0)
(9.93219e-06 9.95039e-07 0)
(9.8844e-06 9.90184e-07 0)
(9.83463e-06 9.8526e-07 0)
(9.78994e-06 9.80652e-07 0)
(9.7387e-06 9.75724e-07 0)
(9.69639e-06 9.71242e-07 0)
(9.64136e-06 9.66087e-07 0)
(9.60178e-06 9.61795e-07 0)
(9.53838e-06 9.55929e-07 0)
(9.50393e-06 9.5206e-07 0)
(9.42647e-06 9.44931e-07 0)
(9.40103e-06 9.41849e-07 0)
(9.30235e-06 9.32747e-07 0)
(9.29235e-06 9.3108e-07 0)
(9.16333e-06 9.19082e-07 0)
(9.17892e-06 9.19824e-07 0)
(9.00837e-06 9.038e-07 0)
(9.06417e-06 9.08371e-07 0)
(8.83927e-06 8.87037e-07 0)
(8.95419e-06 8.9726e-07 0)
(8.66237e-06 8.69416e-07 0)
(8.85548e-06 8.87067e-07 0)
(8.48861e-06 8.52111e-07 0)
(8.7689e-06 8.77904e-07 0)
(8.32863e-06 8.36402e-07 0)
(8.68073e-06 8.68596e-07 0)
(8.18141e-06 8.2247e-07 0)
(8.55951e-06 8.56309e-07 0)
(8.0292e-06 8.08384e-07 0)
(8.38176e-06 8.38326e-07 0)
(7.87934e-06 7.9436e-07 0)
(8.15487e-06 8.15126e-07 0)
(7.75935e-06 7.82651e-07 0)
(7.91778e-06 7.90003e-07 0)
(7.7273e-06 7.78703e-07 0)
(7.73053e-06 7.69727e-07 0)
(7.79834e-06 7.84232e-07 0)
(7.63992e-06 7.59641e-07 0)
(7.9412e-06 7.96697e-07 0)
(7.65553e-06 7.60741e-07 0)
(8.122e-06 8.13662e-07 0)
(7.72826e-06 7.68013e-07 0)
(8.31505e-06 8.30365e-07 0)
(7.95629e-06 7.90897e-07 0)
(8.51576e-06 8.49795e-07 0)
(8.21555e-06 8.17139e-07 0)
(8.70929e-06 8.68861e-07 0)
(8.48002e-06 8.44021e-07 0)
(8.88828e-06 8.86813e-07 0)
(8.72608e-06 8.69144e-07 0)
(9.04801e-06 9.0301e-07 0)
(8.94138e-06 8.91194e-07 0)
(9.18739e-06 9.17237e-07 0)
(9.12274e-06 9.09808e-07 0)
(9.30784e-06 9.29554e-07 0)
(9.27293e-06 9.25231e-07 0)
(9.41266e-06 9.40245e-07 0)
(9.39755e-06 9.38005e-07 0)
(9.507e-06 9.49787e-07 0)
(9.50417e-06 9.48844e-07 0)
(9.59942e-06 9.58993e-07 0)
(9.60338e-06 9.58627e-07 0)
(9.71157e-06 9.6981e-07 0)
(9.71838e-06 9.68176e-07 0)
(9.97268e-06 9.93354e-07 0)
(9.99356e-06 9.15794e-07 0)
(1.54793e-05 1.46427e-06 0)
(0.000339546 3.49166e-05 0)
(0.000321582 3.30715e-05 0)
(0.000304533 3.13202e-05 0)
(0.000288354 2.96582e-05 0)
(0.000273004 2.80811e-05 0)
(0.000258444 2.6585e-05 0)
(0.000244635 2.51659e-05 0)
(0.000231543 2.38204e-05 0)
(0.00021913 2.25445e-05 0)
(0.000207367 2.13353e-05 0)
(0.000196219 2.01892e-05 0)
(0.000185659 1.91035e-05 0)
(0.000175655 1.80748e-05 0)
(0.000166184 1.71007e-05 0)
(0.000157215 1.61782e-05 0)
(0.000148727 1.53051e-05 0)
(0.000140692 1.44785e-05 0)
(0.000133092 1.36965e-05 0)
(0.000125902 1.29566e-05 0)
(0.000119103 1.22569e-05 0)
(0.000112673 1.15952e-05 0)
(0.000106597 1.09696e-05 0)
(0.000100853 1.03783e-05 0)
(9.54271e-05 9.8196e-06 0)
(9.03009e-05 9.29171e-06 0)
(8.54603e-05 8.79317e-06 0)
(8.08895e-05 8.32237e-06 0)
(7.65754e-05 7.87793e-06 0)
(7.25038e-05 7.45843e-06 0)
(6.86626e-05 7.06262e-06 0)
(6.50393e-05 6.6892e-06 0)
(6.16226e-05 6.33703e-06 0)
(5.84014e-05 6.00497e-06 0)
(5.53653e-05 5.69195e-06 0)
(5.25045e-05 5.39696e-06 0)
(4.98095e-05 5.11902e-06 0)
(4.72714e-05 4.85723e-06 0)
(4.48815e-05 4.6107e-06 0)
(4.26321e-05 4.37862e-06 0)
(4.05152e-05 4.16018e-06 0)
(3.85237e-05 3.95465e-06 0)
(3.66505e-05 3.7613e-06 0)
(3.48894e-05 3.57949e-06 0)
(3.32337e-05 3.40854e-06 0)
(3.1678e-05 3.24788e-06 0)
(3.02162e-05 3.0969e-06 0)
(2.88434e-05 2.9551e-06 0)
(2.75543e-05 2.82191e-06 0)
(2.63443e-05 2.69689e-06 0)
(2.52088e-05 2.57953e-06 0)
(2.41436e-05 2.46943e-06 0)
(2.31446e-05 2.36614e-06 0)
(2.22079e-05 2.26929e-06 0)
(2.133e-05 2.17849e-06 0)
(2.05073e-05 2.0934e-06 0)
(1.97367e-05 2.01368e-06 0)
(1.9015e-05 1.93901e-06 0)
(1.83395e-05 1.8691e-06 0)
(1.77073e-05 1.80365e-06 0)
(1.71158e-05 1.74242e-06 0)
(1.65625e-05 1.68513e-06 0)
(1.60453e-05 1.63156e-06 0)
(1.55618e-05 1.58147e-06 0)
(1.511e-05 1.53467e-06 0)
(1.46879e-05 1.49093e-06 0)
(1.42939e-05 1.45009e-06 0)
(1.39259e-05 1.41195e-06 0)
(1.35825e-05 1.37634e-06 0)
(1.32621e-05 1.34312e-06 0)
(1.29633e-05 1.31212e-06 0)
(1.26846e-05 1.28321e-06 0)
(1.24249e-05 1.25626e-06 0)
(1.21827e-05 1.23113e-06 0)
(1.19571e-05 1.20772e-06 0)
(1.17469e-05 1.1859e-06 0)
(1.15512e-05 1.16558e-06 0)
(1.13688e-05 1.14664e-06 0)
(1.1199e-05 1.12902e-06 0)
(1.10409e-05 1.1126e-06 0)
(1.08937e-05 1.09731e-06 0)
(1.07566e-05 1.08307e-06 0)
(1.06289e-05 1.06981e-06 0)
(1.051e-05 1.05746e-06 0)
(1.03991e-05 1.04595e-06 0)
(1.02957e-05 1.03522e-06 0)
(1.01992e-05 1.02521e-06 0)
(1.01091e-05 1.01586e-06 0)
(1.00248e-05 1.00713e-06 0)
(9.94591e-06 9.98956e-07 0)
(9.87186e-06 9.91296e-07 0)
(9.80225e-06 9.84102e-07 0)
(9.73662e-06 9.77331e-07 0)
(9.67458e-06 9.70941e-07 0)
(9.61569e-06 9.64888e-07 0)
(9.55962e-06 9.59136e-07 0)
(9.50581e-06 9.53638e-07 0)
(9.45431e-06 9.48375e-07 0)
(9.40366e-06 9.43258e-07 0)
(9.3559e-06 9.38357e-07 0)
(9.30616e-06 9.33468e-07 0)
(9.2615e-06 9.28776e-07 0)
(9.21029e-06 9.23974e-07 0)
(9.168e-06 9.19336e-07 0)
(9.11299e-06 9.14404e-07 0)
(9.07344e-06 9.09902e-07 0)
(9.01006e-06 9.04345e-07 0)
(8.97563e-06 9.00209e-07 0)
(8.89819e-06 8.93476e-07 0)
(8.87276e-06 8.9006e-07 0)
(8.7741e-06 8.81451e-07 0)
(8.76411e-06 8.79359e-07 0)
(8.63512e-06 8.67957e-07 0)
(8.65072e-06 8.68161e-07 0)
(8.48022e-06 8.5282e-07 0)
(8.53601e-06 8.56739e-07 0)
(8.31119e-06 8.36147e-07 0)
(8.42609e-06 8.45576e-07 0)
(8.13438e-06 8.18559e-07 0)
(8.32745e-06 8.352e-07 0)
(7.96071e-06 8.01297e-07 0)
(8.24096e-06 8.25695e-07 0)
(7.80078e-06 7.85803e-07 0)
(8.15288e-06 8.16028e-07 0)
(7.65357e-06 7.72414e-07 0)
(8.03171e-06 8.03589e-07 0)
(7.50133e-06 7.59099e-07 0)
(7.85403e-06 7.85276e-07 0)
(7.35145e-06 7.45736e-07 0)
(7.62727e-06 7.61781e-07 0)
(7.23151e-06 7.34201e-07 0)
(7.3904e-06 7.35955e-07 0)
(7.19961e-06 7.29754e-07 0)
(7.20339e-06 7.14709e-07 0)
(7.27086e-06 7.34251e-07 0)
(7.11294e-06 7.03957e-07 0)
(7.41389e-06 7.45539e-07 0)
(7.12862e-06 7.04743e-07 0)
(7.59475e-06 7.61821e-07 0)
(7.20134e-06 7.11977e-07 0)
(7.78799e-06 7.76807e-07 0)
(7.42933e-06 7.34931e-07 0)
(7.98867e-06 7.95754e-07 0)
(7.68846e-06 7.614e-07 0)
(8.18212e-06 8.14593e-07 0)
(7.95279e-06 7.8858e-07 0)
(8.36099e-06 8.32553e-07 0)
(8.19871e-06 8.14014e-07 0)
(8.52058e-06 8.48916e-07 0)
(8.41387e-06 8.36377e-07 0)
(8.65983e-06 8.63337e-07 0)
(8.59511e-06 8.55287e-07 0)
(8.78016e-06 8.75815e-07 0)
(8.7452e-06 8.70972e-07 0)
(8.88489e-06 8.86625e-07 0)
(8.86974e-06 8.83944e-07 0)
(8.97915e-06 8.96237e-07 0)
(8.9763e-06 8.94884e-07 0)
(9.07152e-06 9.05419e-07 0)
(9.07549e-06 9.04572e-07 0)
(9.18364e-06 9.15974e-07 0)
(9.19068e-06 9.12845e-07 0)
(9.44425e-06 9.37682e-07 0)
(9.47269e-06 8.07648e-07 0)
(1.48988e-05 1.35004e-06 0)
(0.000338579 3.51948e-05 0)
(0.000320625 3.33315e-05 0)
(0.000303585 3.15628e-05 0)
(0.000287415 2.98841e-05 0)
(0.000272073 2.82913e-05 0)
(0.000257521 2.67802e-05 0)
(0.000243719 2.53468e-05 0)
(0.000230634 2.39876e-05 0)
(0.000218227 2.26989e-05 0)
(0.000206471 2.14773e-05 0)
(0.000195329 2.03195e-05 0)
(0.000184775 1.92226e-05 0)
(0.000174777 1.81834e-05 0)
(0.00016531 1.71992e-05 0)
(0.000156346 1.62671e-05 0)
(0.000147863 1.53849e-05 0)
(0.000139833 1.45497e-05 0)
(0.000132237 1.37595e-05 0)
(0.00012505 1.30118e-05 0)
(0.000118255 1.23047e-05 0)
(0.000111829 1.1636e-05 0)
(0.000105756 1.10038e-05 0)
(0.000100015 1.04061e-05 0)
(9.45923e-05 9.84146e-06 0)
(8.94689e-05 9.3079e-06 0)
(8.4631e-05 8.80398e-06 0)
(8.00628e-05 8.32807e-06 0)
(7.5751e-05 7.87881e-06 0)
(7.16817e-05 7.45473e-06 0)
(6.78426e-05 7.05459e-06 0)
(6.42213e-05 6.67707e-06 0)
(6.08065e-05 6.32102e-06 0)
(5.75871e-05 5.98528e-06 0)
(5.45528e-05 5.6688e-06 0)
(5.16936e-05 5.37051e-06 0)
(4.90001e-05 5.08947e-06 0)
(4.64634e-05 4.82474e-06 0)
(4.40749e-05 4.57544e-06 0)
(4.18267e-05 4.34073e-06 0)
(3.9711e-05 4.11982e-06 0)
(3.77207e-05 3.91195e-06 0)
(3.58485e-05 3.7164e-06 0)
(3.40884e-05 3.5325e-06 0)
(3.24337e-05 3.35959e-06 0)
(3.08789e-05 3.19708e-06 0)
(2.94179e-05 3.04436e-06 0)
(2.80459e-05 2.90091e-06 0)
(2.67575e-05 2.76617e-06 0)
(2.55483e-05 2.63969e-06 0)
(2.44134e-05 2.52095e-06 0)
(2.33488e-05 2.40956e-06 0)
(2.23503e-05 2.30505e-06 0)
(2.14142e-05 2.20706e-06 0)
(2.05368e-05 2.11518e-06 0)
(1.97146e-05 2.02908e-06 0)
(1.89445e-05 1.94841e-06 0)
(1.82232e-05 1.87285e-06 0)
(1.75481e-05 1.8021e-06 0)
(1.69162e-05 1.73587e-06 0)
(1.63251e-05 1.67389e-06 0)
(1.57721e-05 1.61592e-06 0)
(1.52552e-05 1.5617e-06 0)
(1.4772e-05 1.51101e-06 0)
(1.43205e-05 1.46363e-06 0)
(1.38987e-05 1.41937e-06 0)
(1.35048e-05 1.37802e-06 0)
(1.31371e-05 1.33942e-06 0)
(1.27939e-05 1.30338e-06 0)
(1.24737e-05 1.26975e-06 0)
(1.21751e-05 1.23838e-06 0)
(1.18965e-05 1.20911e-06 0)
(1.16369e-05 1.18183e-06 0)
(1.13949e-05 1.15639e-06 0)
(1.11695e-05 1.1327e-06 0)
(1.09594e-05 1.11061e-06 0)
(1.07638e-05 1.09004e-06 0)
(1.05815e-05 1.07088e-06 0)
(1.04119e-05 1.05304e-06 0)
(1.02538e-05 1.03642e-06 0)
(1.01067e-05 1.02095e-06 0)
(9.96971e-06 1.00654e-06 0)
(9.84209e-06 9.93129e-07 0)
(9.72321e-06 9.80634e-07 0)
(9.61239e-06 9.68991e-07 0)
(9.50907e-06 9.5814e-07 0)
(9.41263e-06 9.48018e-07 0)
(9.32257e-06 9.38572e-07 0)
(9.23834e-06 9.29745e-07 0)
(9.15946e-06 9.21489e-07 0)
(9.08545e-06 9.13753e-07 0)
(9.01588e-06 9.06493e-07 0)
(8.95029e-06 8.99661e-07 0)
(8.88828e-06 8.93218e-07 0)
(8.82942e-06 8.87119e-07 0)
(8.77338e-06 8.81327e-07 0)
(8.71959e-06 8.75797e-07 0)
(8.66811e-06 8.70504e-07 0)
(8.61749e-06 8.65373e-07 0)
(8.56974e-06 8.6044e-07 0)
(8.52002e-06 8.55574e-07 0)
(8.47538e-06 8.50822e-07 0)
(8.42418e-06 8.46108e-07 0)
(8.38191e-06 8.41362e-07 0)
(8.32691e-06 8.36587e-07 0)
(8.28737e-06 8.3194e-07 0)
(8.224e-06 8.26596e-07 0)
(8.18958e-06 8.22277e-07 0)
(8.11216e-06 8.15825e-07 0)
(8.08673e-06 8.12171e-07 0)
(7.98809e-06 8.03912e-07 0)
(7.9781e-06 8.01528e-07 0)
(7.84914e-06 7.90533e-07 0)
(7.86471e-06 7.90386e-07 0)
(7.69428e-06 7.75505e-07 0)
(7.75003e-06 7.78981e-07 0)
(7.5253e-06 7.58913e-07 0)
(7.64013e-06 7.67765e-07 0)
(7.34855e-06 7.41367e-07 0)
(7.54154e-06 7.57233e-07 0)
(7.17494e-06 7.24143e-07 0)
(7.45511e-06 7.47524e-07 0)
(7.01505e-06 7.08785e-07 0)
(7.36709e-06 7.37709e-07 0)
(6.86783e-06 6.95806e-07 0)
(7.24595e-06 7.25269e-07 0)
(6.71553e-06 6.83098e-07 0)
(7.0683e-06 7.0703e-07 0)
(6.56563e-06 6.70255e-07 0)
(6.84164e-06 6.82948e-07 0)
(6.44574e-06 6.58894e-07 0)
(6.60498e-06 6.558e-07 0)
(6.41399e-06 6.54043e-07 0)
(6.4182e-06 6.33302e-07 0)
(6.48544e-06 6.57676e-07 0)
(6.32791e-06 6.21761e-07 0)
(6.62864e-06 6.67989e-07 0)
(6.34368e-06 6.22206e-07 0)
(6.80956e-06 6.83692e-07 0)
(6.4164e-06 6.29441e-07 0)
(7.003e-06 6.96957e-07 0)
(6.64441e-06 6.52441e-07 0)
(7.20368e-06 7.15401e-07 0)
(6.90346e-06 6.79118e-07 0)
(7.39709e-06 7.34028e-07 0)
(7.16768e-06 7.066e-07 0)
(7.57586e-06 7.52043e-07 0)
(7.41348e-06 7.32424e-07 0)
(7.73534e-06 7.68577e-07 0)
(7.62853e-06 7.55186e-07 0)
(7.87448e-06 7.83232e-07 0)
(7.80967e-06 7.74465e-07 0)
(7.9947e-06 7.95948e-07 0)
(7.95967e-06 7.90459e-07 0)
(8.09934e-06 8.06943e-07 0)
(8.08414e-06 8.03675e-07 0)
(8.19354e-06 8.1665e-07 0)
(8.19065e-06 8.14755e-07 0)
(8.28587e-06 8.258e-07 0)
(8.28983e-06 8.24318e-07 0)
(8.39796e-06 8.36006e-07 0)
(8.40525e-06 8.31032e-07 0)
(8.65793e-06 8.55402e-07 0)
(8.69263e-06 6.71031e-07 0)
(1.39225e-05 1.19361e-06 0)
(0.000337427 3.5453e-05 0)
(0.00031948 3.35711e-05 0)
(0.000302446 3.17848e-05 0)
(0.000286283 3.00893e-05 0)
(0.000270946 2.84805e-05 0)
(0.0002564 2.69542e-05 0)
(0.000242603 2.55064e-05 0)
(0.000229523 2.41334e-05 0)
(0.000217122 2.28315e-05 0)
(0.00020537 2.15975e-05 0)
(0.000194232 2.04278e-05 0)
(0.000183683 1.93196e-05 0)
(0.000173688 1.82697e-05 0)
(0.000164226 1.72753e-05 0)
(0.000155265 1.63336e-05 0)
(0.000146785 1.54422e-05 0)
(0.000138758 1.45983e-05 0)
(0.000131165 1.37998e-05 0)
(0.000123981 1.30442e-05 0)
(0.000117189 1.23296e-05 0)
(0.000110766 1.16538e-05 0)
(0.000104695 1.10149e-05 0)
(9.89565e-05 1.04109e-05 0)
(9.35356e-05 9.84013e-06 0)
(8.84142e-05 9.30084e-06 0)
(8.35783e-05 8.79149e-06 0)
(7.90119e-05 8.31044e-06 0)
(7.47019e-05 7.8563e-06 0)
(7.06342e-05 7.4276e-06 0)
(6.67968e-05 7.02309e-06 0)
(6.31769e-05 6.64143e-06 0)
(5.97636e-05 6.28147e-06 0)
(5.65454e-05 5.94202e-06 0)
(5.35124e-05 5.62203e-06 0)
(5.06543e-05 5.32044e-06 0)
(4.79619e-05 5.03627e-06 0)
(4.54263e-05 4.76857e-06 0)
(4.30388e-05 4.51648e-06 0)
(4.07916e-05 4.27913e-06 0)
(3.86767e-05 4.05572e-06 0)
(3.66872e-05 3.8455e-06 0)
(3.48159e-05 3.64773e-06 0)
(3.30565e-05 3.46174e-06 0)
(3.14024e-05 3.28685e-06 0)
(2.98483e-05 3.12248e-06 0)
(2.83879e-05 2.96801e-06 0)
(2.70165e-05 2.8229e-06 0)
(2.57287e-05 2.68661e-06 0)
(2.452e-05 2.55866e-06 0)
(2.33856e-05 2.43855e-06 0)
(2.23214e-05 2.32585e-06 0)
(2.13234e-05 2.22012e-06 0)
(2.03877e-05 2.12098e-06 0)
(1.95106e-05 2.02803e-06 0)
(1.86888e-05 1.94092e-06 0)
(1.7919e-05 1.85929e-06 0)
(1.71981e-05 1.78284e-06 0)
(1.65232e-05 1.71125e-06 0)
(1.58916e-05 1.64423e-06 0)
(1.53008e-05 1.58152e-06 0)
(1.47481e-05 1.52285e-06 0)
(1.42314e-05 1.46799e-06 0)
(1.37483e-05 1.41669e-06 0)
(1.3297e-05 1.36875e-06 0)
(1.28754e-05 1.32395e-06 0)
(1.24817e-05 1.28211e-06 0)
(1.21142e-05 1.24304e-06 0)
(1.17711e-05 1.20657e-06 0)
(1.14511e-05 1.17253e-06 0)
(1.11526e-05 1.14078e-06 0)
(1.08742e-05 1.11117e-06 0)
(1.06147e-05 1.08356e-06 0)
(1.03728e-05 1.05782e-06 0)
(1.01474e-05 1.03383e-06 0)
(9.93744e-06 1.01148e-06 0)
(9.7419e-06 9.90667e-07 0)
(9.55974e-06 9.71276e-07 0)
(9.39015e-06 9.53224e-07 0)
(9.23221e-06 9.36412e-07 0)
(9.08515e-06 9.20761e-07 0)
(8.9482e-06 9.06186e-07 0)
(8.82064e-06 8.92617e-07 0)
(8.70181e-06 8.79978e-07 0)
(8.59105e-06 8.68205e-07 0)
(8.48777e-06 8.57233e-07 0)
(8.39137e-06 8.47002e-07 0)
(8.30135e-06 8.37454e-07 0)
(8.21715e-06 8.28536e-07 0)
(8.13831e-06 8.20197e-07 0)
(8.06433e-06 8.12386e-07 0)
(7.99478e-06 8.05058e-07 0)
(7.92922e-06 7.98167e-07 0)
(7.86724e-06 7.9167e-07 0)
(7.8084e-06 7.85526e-07 0)
(7.75238e-06 7.79693e-07 0)
(7.6986e-06 7.74131e-07 0)
(7.64714e-06 7.68807e-07 0)
(7.59653e-06 7.63662e-07 0)
(7.5488e-06 7.58696e-07 0)
(7.49909e-06 7.53853e-07 0)
(7.45447e-06 7.49044e-07 0)
(7.40327e-06 7.44412e-07 0)
(7.36101e-06 7.39564e-07 0)
(7.30602e-06 7.34934e-07 0)
(7.26648e-06 7.30154e-07 0)
(7.20312e-06 7.25009e-07 0)
(7.1687e-06 7.20522e-07 0)
(7.09128e-06 7.14324e-07 0)
(7.06585e-06 7.10465e-07 0)
(6.96723e-06 7.02522e-07 0)
(6.95722e-06 6.99873e-07 0)
(6.82829e-06 6.89263e-07 0)
(6.84383e-06 6.88777e-07 0)
(6.67345e-06 6.74334e-07 0)
(6.72915e-06 6.77405e-07 0)
(6.5045e-06 6.57793e-07 0)
(6.61926e-06 6.66167e-07 0)
(6.3278e-06 6.40252e-07 0)
(6.5207e-06 6.55528e-07 0)
(6.15424e-06 6.23038e-07 0)
(6.43432e-06 6.45606e-07 0)
(5.99438e-06 6.07838e-07 0)
(6.34634e-06 6.35593e-07 0)
(5.84715e-06 5.95283e-07 0)
(6.22521e-06 6.23079e-07 0)
(5.69479e-06 5.832e-07 0)
(6.04757e-06 6.04738e-07 0)
(5.54484e-06 5.70905e-07 0)
(5.82099e-06 5.80035e-07 0)
(5.42496e-06 5.5967e-07 0)
(5.58451e-06 5.51841e-07 0)
(5.39335e-06 5.54381e-07 0)
(5.39793e-06 5.28122e-07 0)
(5.46501e-06 5.57161e-07 0)
(5.3078e-06 5.15777e-07 0)
(5.60839e-06 5.66565e-07 0)
(5.32368e-06 5.15844e-07 0)
(5.78937e-06 5.81818e-07 0)
(5.39641e-06 5.23017e-07 0)
(5.98302e-06 5.93305e-07 0)
(5.62448e-06 5.46098e-07 0)
(6.18374e-06 6.11151e-07 0)
(5.88348e-06 5.73034e-07 0)
(6.37712e-06 6.29518e-07 0)
(6.14762e-06 6.00864e-07 0)
(6.55583e-06 6.47572e-07 0)
(6.39334e-06 6.27051e-07 0)
(6.71521e-06 6.64341e-07 0)
(6.6083e-06 6.50184e-07 0)
(6.85425e-06 6.79269e-07 0)
(6.78935e-06 6.69821e-07 0)
(6.97438e-06 6.92219e-07 0)
(6.93927e-06 6.86138e-07 0)
(7.07894e-06 7.03396e-07 0)
(7.06368e-06 6.996e-07 0)
(7.17308e-06 7.13213e-07 0)
(7.17015e-06 7.10807e-07 0)
(7.26538e-06 7.2234e-07 0)
(7.26934e-06 7.2024e-07 0)
(7.37746e-06 7.32199e-07 0)
(7.38498e-06 7.25372e-07 0)
(7.63642e-06 7.49175e-07 0)
(7.67586e-06 5.13072e-07 0)
(1.24921e-05 9.94044e-07 0)
(0.000336122 3.57045e-05 0)
(0.000318181 3.38038e-05 0)
(0.000301152 3.19996e-05 0)
(0.000284993 3.02871e-05 0)
(0.000269661 2.8662e-05 0)
(0.00025512 2.71202e-05 0)
(0.000241327 2.56576e-05 0)
(0.000228251 2.42706e-05 0)
(0.000215854 2.29554e-05 0)
(0.000204106 2.17086e-05 0)
(0.000192971 2.05269e-05 0)
(0.000182425 1.94072e-05 0)
(0.000172433 1.83463e-05 0)
(0.000162974 1.73415e-05 0)
(0.000154016 1.63899e-05 0)
(0.000145539 1.54891e-05 0)
(0.000137514 1.46363e-05 0)
(0.000129924 1.38293e-05 0)
(0.000122742 1.30657e-05 0)
(0.000115952 1.23434e-05 0)
(0.000109531 1.16603e-05 0)
(0.000103462 1.10145e-05 0)
(9.77257e-05 1.04039e-05 0)
(9.23066e-05 9.827e-06 0)
(8.71869e-05 9.28182e-06 0)
(8.23525e-05 8.76687e-06 0)
(7.77876e-05 8.28052e-06 0)
(7.34791e-05 7.82135e-06 0)
(6.94127e-05 7.3879e-06 0)
(6.55765e-05 6.97887e-06 0)
(6.19579e-05 6.59293e-06 0)
(5.85457e-05 6.22893e-06 0)
(5.53286e-05 5.88564e-06 0)
(5.22966e-05 5.56202e-06 0)
(4.94395e-05 5.25698e-06 0)
(4.6748e-05 4.96957e-06 0)
(4.42132e-05 4.69879e-06 0)
(4.18266e-05 4.44379e-06 0)
(3.95801e-05 4.20368e-06 0)
(3.7466e-05 3.97768e-06 0)
(3.54772e-05 3.765e-06 0)
(3.36065e-05 3.5649e-06 0)
(3.18477e-05 3.37672e-06 0)
(3.01942e-05 3.19976e-06 0)
(2.86406e-05 3.03343e-06 0)
(2.71807e-05 2.8771e-06 0)
(2.58099e-05 2.73025e-06 0)
(2.45224e-05 2.59231e-06 0)
(2.33142e-05 2.46281e-06 0)
(2.21802e-05 2.34123e-06 0)
(2.11164e-05 2.22716e-06 0)
(2.01187e-05 2.12013e-06 0)
(1.91833e-05 2.01977e-06 0)
(1.83066e-05 1.92566e-06 0)
(1.74851e-05 1.83746e-06 0)
(1.67156e-05 1.75481e-06 0)
(1.59949e-05 1.67739e-06 0)
(1.53203e-05 1.60489e-06 0)
(1.46889e-05 1.53703e-06 0)
(1.40983e-05 1.47351e-06 0)
(1.35458e-05 1.41409e-06 0)
(1.30293e-05 1.35852e-06 0)
(1.25464e-05 1.30656e-06 0)
(1.20953e-05 1.25799e-06 0)
(1.16739e-05 1.21261e-06 0)
(1.12803e-05 1.17022e-06 0)
(1.09129e-05 1.13063e-06 0)
(1.057e-05 1.09367e-06 0)
(1.02501e-05 1.05919e-06 0)
(9.95167e-06 1.02701e-06 0)
(9.67337e-06 9.96997e-07 0)
(9.41398e-06 9.69013e-07 0)
(9.17218e-06 9.42924e-07 0)
(8.94692e-06 9.18614e-07 0)
(8.73701e-06 8.95958e-07 0)
(8.54154e-06 8.74858e-07 0)
(8.35945e-06 8.55201e-07 0)
(8.18994e-06 8.36901e-07 0)
(8.03205e-06 8.19857e-07 0)
(7.88506e-06 8.0399e-07 0)
(7.74816e-06 7.89216e-07 0)
(7.62065e-06 7.7546e-07 0)
(7.50187e-06 7.62648e-07 0)
(7.39114e-06 7.50715e-07 0)
(7.2879e-06 7.39595e-07 0)
(7.19155e-06 7.29227e-07 0)
(7.10156e-06 7.19553e-07 0)
(7.01739e-06 7.10519e-07 0)
(6.93858e-06 7.02075e-07 0)
(6.86463e-06 6.94167e-07 0)
(6.7951e-06 6.86753e-07 0)
(6.72956e-06 6.79783e-07 0)
(6.6676e-06 6.73216e-07 0)
(6.60878e-06 6.67011e-07 0)
(6.55278e-06 6.61124e-07 0)
(6.49902e-06 6.55519e-07 0)
(6.44757e-06 6.50154e-07 0)
(6.39697e-06 6.44989e-07 0)
(6.34925e-06 6.39978e-07 0)
(6.29955e-06 6.35163e-07 0)
(6.25493e-06 6.30277e-07 0)
(6.20374e-06 6.25754e-07 0)
(6.16149e-06 6.2077e-07 0)
(6.1065e-06 6.16332e-07 0)
(6.06696e-06 6.11378e-07 0)
(6.0036e-06 6.06488e-07 0)
(5.96917e-06 6.01788e-07 0)
(5.89177e-06 5.95919e-07 0)
(5.86631e-06 5.91793e-07 0)
(5.76771e-06 5.84248e-07 0)
(5.75767e-06 5.81286e-07 0)
(5.62877e-06 5.71119e-07 0)
(5.64427e-06 5.70271e-07 0)
(5.47393e-06 5.56306e-07 0)
(5.52958e-06 5.58931e-07 0)
(5.30501e-06 5.39842e-07 0)
(5.41969e-06 5.47638e-07 0)
(5.12834e-06 5.22329e-07 0)
(5.32114e-06 5.36807e-07 0)
(4.95482e-06 5.05138e-07 0)
(5.2348e-06 5.26605e-07 0)
(4.79499e-06 4.90077e-07 0)
(5.14686e-06 5.16334e-07 0)
(4.64773e-06 4.77985e-07 0)
(5.02573e-06 5.03775e-07 0)
(4.4953e-06 4.6658e-07 0)
(4.84809e-06 4.85324e-07 0)
(4.34528e-06 4.54848e-07 0)
(4.62154e-06 4.60457e-07 0)
(4.2254e-06 4.43791e-07 0)
(4.3852e-06 4.31191e-07 0)
(4.19391e-06 4.38035e-07 0)
(4.19881e-06 4.06412e-07 0)
(4.26578e-06 4.39815e-07 0)
(4.10884e-06 3.93377e-07 0)
(4.40935e-06 4.48057e-07 0)
(4.12485e-06 3.93142e-07 0)
(4.59042e-06 4.62585e-07 0)
(4.19759e-06 4.003e-07 0)
(4.7843e-06 4.7238e-07 0)
(4.42577e-06 4.23397e-07 0)
(4.98506e-06 4.8988e-07 0)
(4.68473e-06 4.50483e-07 0)
(5.17843e-06 5.08116e-07 0)
(4.94883e-06 4.78544e-07 0)
(5.35708e-06 5.26251e-07 0)
(5.19447e-06 5.05054e-07 0)
(5.51638e-06 5.43179e-07 0)
(5.40936e-06 5.28516e-07 0)
(5.65534e-06 5.58316e-07 0)
(5.59035e-06 5.48448e-07 0)
(5.7754e-06 5.71478e-07 0)
(5.74022e-06 5.65003e-07 0)
(5.8799e-06 5.8282e-07 0)
(5.86458e-06 5.78651e-07 0)
(5.97399e-06 5.92724e-07 0)
(5.97103e-06 5.8996e-07 0)
(6.06627e-06 6.0184e-07 0)
(6.07023e-06 5.99277e-07 0)
(6.17833e-06 6.11438e-07 0)
(6.18606e-06 6.03096e-07 0)
(6.43582e-06 6.263e-07 0)
(6.47807e-06 3.46738e-07 0)
(1.06427e-05 7.62342e-07 0)
(0.000334748 3.59478e-05 0)
(0.000316811 3.40283e-05 0)
(0.000299787 3.2206e-05 0)
(0.000283632 3.04763e-05 0)
(0.000268305 2.88349e-05 0)
(0.000253767 2.72775e-05 0)
(0.000239978 2.58002e-05 0)
(0.000226906 2.4399e-05 0)
(0.000214512 2.30704e-05 0)
(0.000202767 2.18109e-05 0)
(0.000191635 2.06171e-05 0)
(0.000181092 1.94858e-05 0)
(0.000171103 1.84139e-05 0)
(0.000161646 1.73987e-05 0)
(0.000152691 1.64372e-05 0)
(0.000144216 1.55269e-05 0)
(0.000136194 1.46652e-05 0)
(0.000128605 1.38497e-05 0)
(0.000121426 1.3078e-05 0)
(0.000114638 1.23481e-05 0)
(0.000108218 1.16577e-05 0)
(0.000102151 1.10049e-05 0)
(9.64163e-05 1.03878e-05 0)
(9.09987e-05 9.80466e-06 0)
(8.58805e-05 9.25357e-06 0)
(8.10476e-05 8.73303e-06 0)
(7.64839e-05 8.24137e-06 0)
(7.21767e-05 7.77718e-06 0)
(6.81115e-05 7.33895e-06 0)
(6.42764e-05 6.92541e-06 0)
(6.06588e-05 6.53519e-06 0)
(5.72476e-05 6.16714e-06 0)
(5.40315e-05 5.82001e-06 0)
(5.10004e-05 5.49277e-06 0)
(4.81441e-05 5.18429e-06 0)
(4.54535e-05 4.89363e-06 0)
(4.29194e-05 4.61978e-06 0)
(4.05335e-05 4.36188e-06 0)
(3.82877e-05 4.11902e-06 0)
(3.61742e-05 3.89042e-06 0)
(3.4186e-05 3.67528e-06 0)
(3.23159e-05 3.47287e-06 0)
(3.05577e-05 3.2825e-06 0)
(2.89047e-05 3.10347e-06 0)
(2.73515e-05 2.93519e-06 0)
(2.58921e-05 2.77703e-06 0)
(2.45217e-05 2.62844e-06 0)
(2.32347e-05 2.48887e-06 0)
(2.20268e-05 2.35782e-06 0)
(2.08931e-05 2.23479e-06 0)
(1.98297e-05 2.11935e-06 0)
(1.88323e-05 2.01103e-06 0)
(1.78973e-05 1.90945e-06 0)
(1.70208e-05 1.81419e-06 0)
(1.61995e-05 1.72492e-06 0)
(1.54303e-05 1.64125e-06 0)
(1.47099e-05 1.56289e-06 0)
(1.40355e-05 1.48949e-06 0)
(1.34043e-05 1.42078e-06 0)
(1.28139e-05 1.35648e-06 0)
(1.22616e-05 1.29632e-06 0)
(1.17452e-05 1.24004e-06 0)
(1.12625e-05 1.18743e-06 0)
(1.08115e-05 1.13824e-06 0)
(1.03902e-05 1.09229e-06 0)