/*--------------------------------*- C++ -*----------------------------------*\
| =========                 |                                                 |
| \\      /  F ield         | OpenFOAM: The Open Source CFD Toolbox           |
|  \\    /   O peration     | Version:  v1912                                 |
|   \\  /    A nd           | Website:  www.openfoam.com                      |
|    \\/     M anipulation  |                                                 |
\*---------------------------------------------------------------------------*/
FoamFile
{
    version     2.0;
    format      ascii;
    class       volScalarField;
    location    "40";
    object      alpha.water;
}
// * * * * * * * * * * * * * * * * * * * * * * * * * * * * * * * * * * * * * //

dimensions      [0 0 0 0 0 0 0];


internalField   nonuniform List<scalar> 
14268
(
1
1
1
1
1
1
1
1
1
1
1
1
1
1
1
1
1
1
1
1
1
1
1
1
1
1
1
1
1
1
1
1
1
1
1
1
1
1
1
1
1
1
1
1
1
1
1
1
1
1
1
1
1
1
1
1
1
1
1
1
1
1
1
1
1
1
1
1
1
1
1
1
1
1
1
1
1
1
1
1
1
1
1
1
1
1
1
1
1
1
1
1
1
1
1
1
1
1
1
1
1
1
1
1
1
1
1
1
1
1
1
1
1
1
1
1
1
1
1
1
1
1
1
1
1
1
1
1
1
1
1
1
1
1
1
1
1
1
1
1
1
1
1
1
1
1
1
1
1
1
1
1
1
1
1
1
1
1
1
1
1
1
1
1
1
1
1
1
1
1
1
1
1
1
1
1
1
1
1
1
1
1
1
1
1
1
1
1
1
1
1
1
1
1
1
1
1
1
1
1
0.998515
0.99824
0.997779
0.996765
0.994653
0.990917
0.986257
0.98208
0.568971
0.552112
0.535358
0.518078
0.500832
0.484185
0.467806
0.450728
0.0555164
0.0532501
0.0509339
0.0485416
0.0465045
0.0450397
0.0439657
0.0429106
2.33617e-05
2.33748e-05
2.32945e-05
2.31985e-05
2.31798e-05
2.32882e-05
2.32675e-05
2.24705e-05
-3.10734e-39
-5.23349e-39
-8.77456e-39
-1.40494e-38
-2.1119e-38
-2.85185e-38
-3.6186e-38
-3.36138e-35
-1.71871e-38
-3.05349e-38
-5.37852e-38
-9.0234e-38
-1.43128e-37
-2.05431e-37
-2.76901e-37
-1.26734e-34
-1.11016e-37
-2.09169e-37
-3.87212e-37
-6.83612e-37
-1.14978e-36
-1.76632e-36
-2.59788e-36
-3.34132e-36
-4.0496e-37
-8.08462e-37
-1.59385e-36
-3.05139e-36
-5.71314e-36
-9.99844e-36
-1.70232e-35
-2.63826e-35
-1.26004e-36
-2.69084e-36
-5.78644e-36
-1.24642e-35
-2.70631e-35
-5.59045e-35
-1.13674e-34
-2.15451e-34
-2.83445e-36
-6.63164e-36
-1.62813e-35
-4.14668e-35
-1.07672e-34
-2.65212e-34
-6.29111e-34
-1.41448e-33
-5.15132e-36
-1.38389e-35
-4.06086e-35
-1.24556e-34
-3.80394e-34
-1.07981e-33
-2.8813e-33
-7.27985e-33
-7.94345e-36
-2.56301e-35
-9.04535e-35
-3.24818e-34
-1.11761e-33
-3.50786e-33
-1.01191e-32
-2.74506e-32
-1.11914e-35
-4.325e-35
-1.7544e-34
-7.0195e-34
-2.61615e-33
-8.80396e-33
-2.68212e-32
-7.55554e-32
-1.45788e-35
-6.41293e-35
-2.8199e-34
-1.2067e-33
-4.74037e-33
-1.67546e-32
-5.29371e-32
-1.50932e-31
-1.70135e-35
-8.02384e-35
-3.64994e-34
-1.62012e-33
-6.57964e-33
-2.40637e-32
-7.79622e-32
-2.21062e-31
-1.70059e-35
-8.25072e-35
-3.75404e-34
-1.68619e-33
-6.94852e-33
-2.59074e-32
-8.51919e-32
-2.37733e-31
-1.45182e-35
-7.05254e-35
-3.10529e-34
-1.37549e-33
-5.61245e-33
-2.09455e-32
-6.93283e-32
-1.8949e-31
-1.08659e-35
-5.11489e-35
-2.07426e-34
-8.85907e-34
-3.47735e-33
-1.26995e-32
-4.19192e-32
-1.13079e-31
-7.19245e-36
-3.17563e-35
-1.13725e-34
-4.76719e-34
-1.77041e-33
-6.08726e-33
-1.93009e-32
-5.12081e-32
-2.49061e-36
-1.16138e-35
-5.26081e-35
-2.28503e-34
-8.428e-34
-2.54965e-33
-7.13885e-33
-1.86098e-32
-6.56026e-37
-3.41815e-36
-1.59082e-35
-6.53439e-35
-2.36896e-34
-7.80048e-34
-2.335e-33
-6.09223e-33
-1.22731e-37
-6.47557e-37
-3.12326e-36
-1.36473e-35
-5.27795e-35
-1.81087e-34
-5.46883e-34
-1.43467e-33
-1.63745e-38
-9.55518e-38
-4.97341e-37
-2.27424e-36
-9.11577e-36
-3.2623e-35
-1.03181e-34
-2.88688e-34
-2.12659e-39
-1.24866e-38
-6.59214e-38
-3.13164e-37
-1.3254e-36
-5.0136e-36
-1.67424e-35
-4.95755e-35
-2.35261e-40
-1.44501e-39
-8.02526e-39
-3.98906e-38
-1.76041e-37
-6.95431e-37
-2.43714e-36
-7.64888e-36
-2.46904e-41
-1.56355e-40
-8.93891e-40
-4.58699e-39
-2.10773e-38
-8.72839e-38
-3.22217e-37
-1.07224e-36
-2.29068e-42
-1.50752e-41
-9.01501e-41
-4.84229e-40
-2.33288e-39
-1.0136e-38
-3.94127e-38
-1.39142e-37
-1.95879e-43
-1.33773e-42
-8.30538e-42
-4.62735e-41
-2.32512e-40
-1.05885e-39
-4.34259e-39
-1.62777e-38
-1.5096e-44
-1.07327e-43
-6.96147e-43
-4.05922e-42
-2.14501e-41
-1.02895e-40
-4.46094e-40
-1.77725e-39
-1.04892e-45
-7.79476e-45
-5.27987e-44
-3.21396e-43
-1.78065e-42
-8.97122e-42
-4.11071e-41
-1.74236e-40
-6.7444e-47
-5.23444e-46
-3.69988e-45
-2.35645e-44
-1.37371e-43
-7.29624e-43
-3.5472e-42
-1.60298e-41
-3.81674e-48
-3.11081e-47
-2.30156e-46
-1.53913e-45
-9.46624e-45
-5.31157e-44
-2.74378e-43
-1.32264e-42
-2.06313e-49
-1.75456e-48
-1.3543e-47
-9.5056e-47
-6.15876e-46
-3.64583e-45
-1.99928e-44
-1.02781e-43
-9.55502e-51
-8.544e-50
-6.93245e-49
-5.14262e-48
-3.52663e-47
-2.21494e-46
-1.29854e-45
-7.15905e-45
-4.35237e-52
-4.05678e-51
-3.44561e-50
-2.69236e-49
-1.94511e-48
-1.29249e-47
-8.06272e-47
-4.73711e-46
-1.65637e-53
-1.62845e-52
-1.46444e-51
-1.21517e-50
-9.31326e-50
-6.59884e-49
-4.4172e-48
-2.78916e-47
-6.36593e-55
-6.55571e-54
-6.2025e-53
-5.4203e-52
-4.37825e-51
-3.29288e-50
-2.3485e-49
-1.58183e-48
-2.02425e-56
-2.20974e-55
-2.21682e-54
-2.05778e-53
-1.77038e-52
-1.4288e-51
-1.09571e-50
-7.94782e-50
-6.63159e-58
-7.5808e-57
-7.99955e-56
-7.82966e-55
-7.14208e-54
-6.14051e-53
-5.00818e-52
-3.8776e-51
-1.77935e-59
-2.16186e-58
-2.42808e-57
-2.53623e-56
-2.48117e-55
-2.29406e-54
-2.01034e-53
-1.68152e-52
-4.97811e-61
-6.36075e-60
-7.54117e-59
-8.34485e-58
-8.66378e-57
-8.50939e-56
-7.94393e-55
-7.10659e-54
-1.15143e-62
-1.56685e-61
-1.98199e-60
-2.34427e-59
-2.61176e-58
-2.76006e-57
-2.7815e-56
-2.69396e-55
-2.76493e-64
-3.97213e-63
-5.31865e-62
-6.68023e-61
-7.91866e-60
-8.91959e-59
-9.59671e-58
-9.91392e-57
-5.59568e-66
-8.58104e-65
-1.22921e-63
-1.65527e-62
-2.10901e-61
-2.5578e-60
-2.96682e-59
-3.30622e-58
-1.16059e-67
-1.88764e-66
-2.87318e-65
-4.11842e-64
-5.59121e-63
-7.23045e-62
-8.94419e-61
-1.06151e-59
-2.08815e-69
-3.62619e-68
-5.90748e-67
-9.0841e-66
-1.32574e-64
-1.84528e-63
-2.45839e-62
-3.14393e-61
-3.76142e-71
-6.94681e-70
-1.20548e-68
-1.97697e-67
-3.0795e-66
-4.5776e-65
-6.51265e-64
-8.8899e-63
-6.11174e-73
-1.2041e-71
-2.233e-70
-3.92021e-69
-6.54727e-68
-1.04459e-66
-1.59618e-65
-2.34036e-64
-9.71497e-75
-2.0373e-73
-4.02692e-72
-7.54168e-71
-1.34428e-69
-2.28929e-68
-3.73362e-67
-5.84294e-66
-1.43564e-76
-3.20986e-75
-6.77217e-74
-1.35512e-72
-2.58282e-71
-4.70464e-70
-8.20696e-69
-1.3731e-67
-2.05383e-78
-4.8878e-77
-1.09884e-75
-2.3446e-74
-4.76626e-73
-9.25915e-72
-1.72204e-70
-3.07004e-69
-2.77276e-80
-7.00678e-79
-1.6744e-77
-3.80106e-76
-8.22626e-75
-1.70179e-73
-3.37029e-72
-6.39517e-71
-7.35225e-82
-1.74114e-80
-3.89876e-79
-8.30065e-78
-1.68793e-76
-3.2898e-75
-6.15792e-74
-1.10791e-72
-1.86807e-85
-5.133e-84
-1.33219e-82
-3.28425e-81
-7.72635e-80
-1.74051e-78
-3.7615e-77
-7.803e-76
-2.2872e-89
-7.35498e-88
-2.23018e-86
-6.41302e-85
-1.75712e-83
-4.60387e-82
-1.15602e-80
-2.78384e-79
-1.55607e-93
-5.9576e-92
-2.14209e-90
-7.27373e-89
-2.3439e-87
-7.19665e-86
-2.11129e-84
-5.92707e-83
-5.99242e-98
-2.79808e-96
-1.22124e-94
-5.00772e-93
-1.9381e-91
-7.10805e-90
-2.47819e-88
-8.23159e-87
-1.15161e-102
-6.81548e-101
-3.75102e-99
-1.92848e-97
-9.29972e-96
-4.22186e-94
-1.80991e-92
-7.34449e-91
-8.69094e-108
-6.83261e-106
-4.97572e-104
-3.36895e-102
-2.12788e-100
-1.25745e-98
-6.96943e-97
-3.63022e-95
-1.46007e-113
-1.64504e-111
-1.70969e-109
-1.64401e-107
-1.46652e-105
-1.21639e-103
-9.3998e-102
-6.77845e-100
-2.18648e-120
-3.89423e-118
-6.38333e-116
-9.65448e-114
-1.35024e-111
-1.74926e-109
-2.10212e-107
-2.34555e-105
-3.55825e-130
-1.31007e-127
-4.47952e-125
-1.42384e-122
-4.2088e-120
-1.15677e-117
-2.95444e-115
-7.00493e-113
1
1
1
1
1
1
1
1
1
1
1
1
1
1
1
1
1
1
1
1
1
1
1
1
1
1
1
1
1
1
1
1
1
1
1
1
1
1
1
1
1
1
1
1
1
1
1
1
1
1
1
1
1
1
1
1
1
1
1
1
1
1
1
1
1
1
1
1
1
1
1
1
1
1
1
1
1
1
1
1
1
1
1
1
1
1
1
1
1
1
1
1
1
1
1
1
1
1
1
1
1
1
1
1
1
1
1
1
1
1
1
1
1
1
1
1
1
1
1
1
1
1
1
1
1
1
1
1
1
1
1
1
1
1
1
1
1
1
1
1
1
1
1
1
1
1
1
1
1
1
1
1
1
1
1
1
1
1
1
1
1
1
1
1
1
1
1
1
1
1
1
1
1
1
1
1
1
1
1
1
1
1
1
1
1
1
1
1
1
1
1
1
1
1
1
1
1
1
1
1
1
1
1
1
1
1
1
1
1
1
1
1
1
1
1
1
1
1
1
1
1
1
1
1
1
1
1
1
1
1
1
1
1
1
1
1
1
1
1
1
1
1
1
1
1
1
1
1
1
1
1
1
1
1
1
1
1
1
1
1
1
1
1
1
1
1
1
1
1
1
1
1
1
1
1
1
1
1
1
1
1
1
1
1
1
1
1
1
1
1
1
1
1
1
1
1
1
1
1
1
1
1
1
1
1
1
1
1
1
1
1
1
1
1
1
1
1
1
1
1
1
1
1
1
1
1
1
1
1
1
1
1
1
1
1
1
1
1
1
1
1
1
1
1
1
1
1
1
1
1
1
1
1
1
1
1
1
1
1
1
1
1
1
1
1
1
1
1
1
1
1
1
1
1
1
1
1
1
1
1
1
1
1
1
1
1
1
1
1
1
1
1
1
1
1
1
1
1
1
1
1
1
1
1
1
1
1
1
1
1
1
1
1
1
1
1
1
1
1
1
1
1
1
1
1
1
1
1
1
1
1
1
1
1
1
1
1
1
1
1
1
1
1
1
1
1
1
1
1
1
1
1
1
1
1
1
1
1
1
1
1
1
1
1
1
1
1
1
1
1
1
1
1
1
1
1
1
1
1
1
1
1
1
1
1
1
1
1
1
1
1
1
1
1
1
1
1
1
1
1
1
1
1
1
1
1
1
1
1
1
1
1
1
1
1
1
1
1
1
1
1
1
1
1
1
1
1
1
1
1
1
1
1
1
1
1
1
1
1
1
1
1
1
1
1
1
1
1
1
1
1
1
1
1
1
1
1
1
1
1
1
1
1
1
1
1
1
1
1
1
1
1
1
1
1
1
1
1
1
1
1
1
1
1
1
1
1
1
1
1
1
1
1
1
1
1
1
1
1
1
1
1
1
1
1
1
1
1
1
1
1
1
1
1
1
1
1
1
1
1
1
1
1
1
1
1
1
1
1
1
1
1
1
1
1
1
1
1
1
1
1
1
1
1
1
1
1
1
1
1
1
1
1
1
1
1
1
1
1
1
1
1
1
1
1
1
1
1
1
1
1
1
1
1
1
1
1
1
1
1
1
1
1
1
1
1
1
1
1
1
1
1
1
1
1
1
1
1
1
1
1
1
1
1
1
1
1
1
1
1
1
1
1
1
1
1
1
1
1
1
1
1
1
1
1
1
1
1
1
1
1
1
1
1
1
1
1
1
1
1
1
1
1
1
1
1
1
1
1
1
1
1
1
1
1
1
1
1
1
1
1
1
1
1
1
1
1
1
1
1
1
1
1
1
1
1
1
1
1
1
1
1
1
1
1
1
1
1
1
1
1
1
1
1
1
1
1
1
1
1
1
1
1
1
1
1
1
1
1
1
1
1
1
1
1
1
1
1
1
1
1
1
1
1
1
1
1
1
1
1
1
1
1
1
1
1
1
1
1
1
1
1
1
1
1
1
1
1
1
1
1
1
1
1
1
1
1
1
1
1
1
1
1
1
1
1
1
1
1
1
1
1
1
1
1
1
1
1
1
1
1
1
1
1
1
1
1
1
1
1
1
1
1
1
1
1
1
1
1
1
1
1
1
1
1
1
1
1
1
1
1
1
1
1
1
1
1
1
1
1
1
1
1
1
1
1
1
1
1
1
1
1
1
1
1
1
1
1
1
1
1
1
1
1
1
1
1
1
1
1
1
1
1
1
1
1
1
1
1
1
1
1
1
1
1
1
1
1
1
1
1
1
1
1
1
1
1
1
1
1
1
1
1
1
1
1
1
1
1
1
1
1
1
1
1
1
1
1
1
1
1
1
1
1
1
1
1
1
1
1
1
1
1
1
1
1
1
1
1
1
1
1
1
1
1
1
1
1
1
1
1
1
1
1
1
1
1
1
1
1
1
1
1
1
1
1
1
1
1
1
1
1
1
1
1
1
1
1
1
1
1
1
1
1
1
1
1
1
1
1
1
1
1
1
1
1
1
1
1
1
1
1
1
1
1
1
1
1
1
1
1
1
1
1
1
1
1
1
1
1
1
1
1
1
1
1
1
1
1
1
1
1
1
1
1
1
1
1
1
1
1
1
1
1
1
1
1
1
1
1
1
1
1
1
1
1
1
1
1
1
1
1
1
1
1
1
1
1
1
1
1
1
1
1
1
1
1
1
1
1
1
1
1
1
1
1
1
1
1
1
1
1
1
1
1
1
1
1
1
1
1
1
1
1
1
1
1
1
1
1
1
1
1
1
1
1
1
1
1
1
1
1
1
1
1
1
1
1
1
1
1
1
1
1
1
1
1
1
1
1
1
1
1
1
1
1
1
1
1
1
1
1
1
1
1
1
1
1
1
1
1
1
1
1
1
1
1
1
1
1
1
1
1
1
1
1
1
1
1
1
1
1
1
1
1
1
1
1
1
1
1
1
1
1
1
1
1
1
1
1
1
1
1
1
1
1
1
1
1
1
1
1
1
1
1
1
1
1
1
1
1
1
1
1
1
1
1
1
1
1
1
1
1
1
1
1
1
1
1
1
1
1
1
1
1
1
1
1
1
1
1
1
1
1
1
1
1
1
1
1
1
1
1
1
1
1
1
1
1
1
1
1
1
1
1
1
1
1
1
1
1
1
1
1
1
1
1
1
1
1
1
1
1
1
1
1
1
1
1
1
1
1
1
1
1
1
1
1
1
1
1
1
1
1
1
1
1
1
1
1
1
1
1
1
1
1
1
1
1
1
1
1
1
1
1
1
1
1
1
1
1
1
1
1
1
1
1
1
1
1
1
1
1
1
1
1
1
1
1
1
1
1
1
1
1
1
1
1
1
1
1
1
1
1
1
1
1
1
1
1
1
1
1
1
1
1
1
1
1
1
1
1
1
1
1
1
1
1
1
1
1
1
1
1
1
1
1
1
1
1
1
1
1
1
1
1
1
1
1
1
1
1
1
1
1
1
1
1
1
1
1
1
1
1
1
1
1
1
1
1
1
1
1
1
1
1
1
1
1
1
1
1
1
1
1
1
1
1
1
1
1
1
1
1
1
1
1
1
1
1
1
1
1
1
1
1
1
1
1
1
1
1
1
1
1
1
1
1
1
1
1
1
1
1
1
1
1
1
1
1
1
1
1
1
1
1
1
1
1
1
1
1
1
1
1
1
1
1
1
1
1
1
1
1
1
1
1
1
1
1
1
1
1
1
1
1
1
1
1
1
1
1
1
1
1
1
1
1
1
1
1
1
1
1
1
1
1
1
1
1
1
1
1
1
1
1
1
1
1
1
1
1
1
1
1
1
1
1
1
1
1
1
1
1
1
1
1
1
1
1
1
1
1
1
1
1
1
1
1
1
1
1
1
1
1
1
1
1
1
1
1
1
1
1
1
1
1
1
1
1
1
1
1
1
1
1
1
1
1
1
1
1
1
1
1
1
1
1
1
1
1
1
1
1
1
1
1
1
1
1
1
1
1
1
1
1
1
1
1
1
1
1
1
1
1
1
1
1
1
1
1
1
1
1
1
1
1
1
1
1
1
1
1
1
1
1
1
1
1
1
1
1
1
1
1
1
1
1
1
1
1
1
1
1
1
1
1
1
1
1
1
1
1
1
1
1
1
1
1
1
1
1
1
1
1
1
1
1
1
1
1
1
1
1
1
1
1
1
1
1
1
1
1
1
1
1
1
1
1
1
1
1
1
1
1
1
1
1
1
1
1
1
1
1
1
1
1
1
1
1
1
1
1
1
1
1
1
1
1
1
1
1
1
1
1
1
1
1
1
1
1
1
1
1
1
1
1
1
1
1
1
1
1
1
1
1
1
1
1
1
1
1
1
1
1
1
1
1
1
1
1
1
1
1
1
1
1
1
1
1
1
1
1
1
1
1
1
1
1
1
1
1
1
1
1
1
1
1
1
1
1
1
1
1
1
1
1
1
1
1
1
1
1
1
1
1
1
1
1
1
1
1
1
1
1
1
1
1
1
1
1
1
1
1
1
1
1
1
1
1
1
1
1
1
1
1
1
1
1
1
1
1
1
1
1
1
1
1
1
1
1
1
1
1
1
1
1
1
1
1
1
1
1
1
1
1
1
1
1
1
1
1
1
1
1
1
1
1
1
1
1
1
1
1
1
1
1
1
1
1
1
1
1
1
1
1
1
1
1
1
1
1
1
1
1
1
1
1
1
1
1
1
1
1
1
1
1
1
1
1
1
1
1
1
1
1
1
1
1
1
1
1
1
1
1
1
1
1
1
1
1
1
1
1
1
1
1
1
1
1
1
1
1
1
1
1
1
1
1
1
1
1
1
1
1
1
1
1
1
1
1
1
1
1
1
1
1
1
1
1
1
1
1
1
1
1
1
1
1
1
1
1
1
1
1
1
1
1
1
1
1
1
1
1
1
1
1
1
1
1
1
1
1
1
1
1
1
1
1
1
1
1
1
1
1
1
1
1
1
1
1
1
1
1
1
1
1
1
1
1
1
1
1
1
1
1
1
1
1
1
1
1
1
1
1
1
1
1
1
1
1
1
1
1
1
1
1
1
1
1
1
1
1
1
1
1
1
1
1
1
1
1
1
1
1
1
1
1
1
1
1
1
1
1
1
1
1
1
1
1
1
1
1
1
1
1
1
1
1
1
1
1
1
1
1
1
1
1
1
1
1
1
1
1
1
1
1
1
1
1
1
1
1
1
1
1
1
1
1
1
1
1
1
1
1
1
1
1
1
1
1
1
1
1
1
1
1
1
1
1
1
1
1
1
1
1
1
1
1
1
1
1
1
1
1
1
1
1
1
1
1
1
1
1
1
1
1
1
1
1
1
1
1
1
1
1
1
1
1
1
1
1
1
1
1
1
1
1
1
1
1
1
1
1
1
1
1
1
1
1
1
1
1
1
1
1
1
1
1
1
1
1
1
1
1
1
1
1
1
1
1
1
1
1
1
1
1
1
1
1
1
1
1
1
1
1
1
1
1
1
1
1
1
1
1
1
1
1
1
1
1
1
1
1
1
1
1
1
1
1
1
1
1
1
1
1
1
1
1
1
1
1
1
1
1
1
1
1
1
1
1
1
1
1
1
1
1
1
1
1
1
1
1
1
1
1
1
1
1
1
1
1
1
1
1
1
1
1
1
1
1
1
1
1
1
1
1
1
1
1
1
1
1
1
1
1
1
1
1
1
1
1
1
1
1
1
1
1
1
1
1
1
1
1
1
1
1
1
1
1
1
1
1
1
1
1
1
1
1
1
1
1
1
1
1
1
1
1
1
1
1
1
1
1
1
1
1
1
1
1
1
1
1
1
1
1
1
1
1
1
1
1
1
1
1
1
1
1
1
1
1
1
1
1
1
1
1
1
1
1
1
1
1
1
1
1
1
1
1
1
1
1
1
1
1
1
1
1
1
1
1
1
1
1
1
1
1
1
1
1
1
1
1
1
1
1
1
1
1
1
1
1
1
1
1
1
1
1
1
1
1
1
1
1
1
1
1
1
1
1
1
1
1
1
1
1
1
1
1
1
1
1
1
1
1
1
1
1
1
1
1
1
1
1
1
1
1
1
1
1
1
1
1
1
1
1
1
1
1
1
1
1
1
1
1
1
1
1
1
1
1
1
1
1
1
1
1
1
1
1
1
1
1
1
1
1
1
1
1
1
1
1
1
1
1
1
1
1
1
1
1
1
1
1
1
1
1
1
1
1
1
1
1
1
1
1
1
1
1
1
1
1
1
1
1
1
1
1
1
1
1
1
1
1
1
1
1
1
1
1
1
1
1
1
1
1
1
1
1
1
1
1
1
1
1
1
1
1
1
1
1
1
1
1
1
1
1
1
1
1
1
1
1
1
1
1
1
1
1
1
1
1
1
1
1
1
1
1
1
1
1
1
1
1
1
1
1
1
1
1
1
1
1
1
1
1
1
1
1
1
1
1
1
1
1
1
1
1
1
1
1
1
1
1
1
1
1
1
1
1
1
1
1
1
1
1
1
1
1
1
1
1
1
1
1
1
1
1
1
1
1
1
1
1
1
1
1
1
1
1
1
1
1
1
1
1
1
1
1
1
1
1
1
1
1
1
1
1
1
1
1
1
1
1
1
1
1
1
1
1
1
1
1
1
1
1
1
1
1
1
1
1
1
1
1
1
1
1
1
1
1
1
1
1
1
1
1
1
1
1
1
1
1
1
1
1
1
1
1
1
1
1
1
1
1
1
1
1
1
1
1
1
1
1
1
1
1
1
1
1
1
1
1
1
1
1
1
1
1
1
1
1
1
1
1
1
1
1
1
1
1
1
1
1
1
1
1
1
1
1
1
1
1
1
1
1
1
1
1
1
1
1
1
1
1
1
1
1
1
1
1
1
1
1
1
1
1
1
1
1
1
1
1
1
1
1
1
1
1
1
1
1
1
1
1
1
1
1
1
1
1
1
1
1
1
1
1
1
1
1
1
1
1
1
1
1
1
1
1
1
1
1
1
1
1
1
1
1
1
1
1
1
1
1
1
1
1
1
1
1
1
1
1
1
1
1
1
1
1
1
1
1
1
1
1
1
1
1
1
1
1
1
1
1
1
1
1
1
1
1
1
1
1
1
1
1
1
1
1
1
1
1
1
1
1
1
1
1
1
1
1
1
1
1
1
1
1
1
1
1
1
1
1
1
1
1
1
1
1
1
1
1
1
1
1
1
1
1
1
1
1
1
1
1
1
1
1
1
1
1
1
1
1
1
1
1
1
1
1
1
1
1
1
1
1
1
1
1
1
1
1
1
1
1
1
1
1
1
1
1
1
1
1
1
1
1
1
1
1
1
1
1
1
1
1
1
1
1
1
1
1
1
1
1
1
1
1
1
1
1
1
1
1
1
1
1
1
1
1
1
1
1
1
1
1
1
1
1
1
1
1
1
1
1
1
1
1
1
1
1
1
1
1
1
1
1
1
1
1
1
1
1
1
1
1
1
1
1
1
1
1
1
1
1
1
1
1
1
1
1
1
1
1
1
1
1
1
1
1
1
1
1
1
1
1
1
1
1
1
1
1
1
1
1
1
1
1
1
1
1
1
1
1
1
1
1
1
1
1
1
1
1
1
1
1
1
1
1
1
1
1
1
1
1
1
1
1
1
1
1
1
1
1
1
1
1
1
1
1
1
1
1
1
1
1
1
1
1
1
1
1
1
1
1
1
1
1
1
1
1
1
1
1
1
1
1
1
1
1
1
1
1
1
1
1
1
1
1
1
1
1
1
1
1
1
1
1
1
1
1
1
1
1
1
1
1
1
1
1
1
1
1
1
1
1
1
1
1
1
1
1
1
1
1
1
1
1
1
1
1
1
1
1
1
1
1
1
1
1
1
1
1
1
1
1
1
1
1
1
1
1
1
1
1
1
1
1
1
1
1
1
1
1
1
1
1
1
1
1
1
1
1
1
1
1
1
1
1
1
1
1
1
1
1
1
1
1
1
1
1
1
1
1
1
1
1
1
1
1
1
1
1
1
1
1
1
1
1
1
1
1
1
1
1
1
1
1
1
1
1
1
1
1
1
1
1
1
1
1
1
1
1
1
1
1
1
1
1
1
1
1
1
1
1
1
1
1
1
1
1
1
1
1
1
1
1
1
1
1
1
1
1
1
1
1
1
1
1
1
1
1
1
1
1
1
1
1
1
1
1
1
1
1
1
1
1
1
1
1
1
1
1
1
1
1
1
1
1
1
1
1
1
1
1
1
1
1
1
1
1
1
1
1
1
1
1
1
1
1
1
1
1
1
1
1
1
1
1
1
1
1
1
1
1
1
1
1
1
1
1
1
1
1
1
1
1
1
1
1
1
1
1
1
1
1
1
1
1
1
1
1
1
1
1
1
1
1
1
1
1
1
1
1
1
1
1
1
1
1
1
1
1
1
1
1
1
1
1
1
1
1
1
1
1
1
1
1
1
1
1
1
1
1
1
1
1
1
1
1
1
1
1
1
1
1
1
1
1
1
1
1
1
1
1
1
1
1
1
1
1
1
1
1
1
1
1
1
1
1
1
1
1
1
1
1
1
1
1
1
1
1
1
1
1
1
1
1
1
1
1
1
1
1
1
1
1
1
1
1
1
1
1
1
1
1
1
1
1
1
1
1
1
1
1
1
1
1
1
1
1
1
1
1
1
1
1
1
1
1
1
1
1
1
1
1
1
1
1
1
1
1
1
1
1
1
1
1
1
1
1
1
1
1
1
1
1
1
1
1
1
1
1
1
1
1
1
1
1
1
1
1
1
1
1
1
1
1
1
1
1
1
1
1
1
1
1
1
1
1
1
1
1
1
1
1
1
1
1
1
1
1
1
1
1
1
1
1
1
1
1
1
1
1
1
1
1
1
1
1
1
0.979863
0.980389
0.980864
0.981508
0.982031
0.982328
0.982276
0.98179
0.981152
0.980464
0.979798
0.979205
0.978709
0.97831
0.977961
0.977672
0.97746
0.977365
0.977372
0.977434
0.97742
0.977278
0.977148
0.977108
0.977201
0.977439
0.977796
0.978269
0.97866
0.978981
0.979331
0.979573
0.979766
0.979884
0.979874
0.97984
0.979683
0.979389
0.979344
0.979428
0.979232
0.97867
0.977884
0.977173
0.976816
0.976729
0.976882
0.97688
0.976307
0.974866
0.972971
0.972329
0.972628
0.972769
0.972415
0.970811
0.967146
0.962208
0.956937
0.953155
0.951899
0.952231
0.953246
0.953706
0.953252
0.950971
0.94704
0.943179
0.940299
0.938743
0.938646
0.939926
0.942248
0.945782
0.948163
0.946972
0.944021
0.942199
0.940121
0.935057
0.925817
0.915603
0.910015
0.908957
0.909841
0.911824
0.914758
0.918465
0.922403
0.926429
0.930431
0.933996
0.937562
0.941909
0.94687
0.953398
0.961002
0.965432
0.967094
0.967666
0.968582
0.968984
0.968009
0.964398
0.957831
0.95088
0.945191
0.941051
0.938402
0.937985
0.939932
0.943336
0.945763
0.947506
0.94988
0.952379
0.954694
0.956788
0.957975
0.956882
0.954115
0.950283
0.945621
0.940706
0.936251
0.932705
0.930839
0.931266
0.933947
0.93843
0.943636
0.948594
0.952674
0.955697
0.95778
0.959274
0.960685
0.962518
0.965099
0.968396
0.972024
0.975451
0.978243
0.980193
0.981269
0.981535
0.981139
0.980114
0.978426
0.975938
0.972444
0.967872
0.962567
0.957382
0.953459
0.951708
0.441396
0.442429
0.443369
0.443657
0.443945
0.444387
0.445123
0.44631
0.447791
0.449425
0.451114
0.452643
0.453881
0.454798
0.455478
0.455988
0.456377
0.456764
0.457245
0.457831
0.458552
0.459325
0.459982
0.460527
0.461055
0.461638
0.462404
0.463411
0.464833
0.466581
0.468431
0.470395
0.47234
0.474033
0.47589
0.478193
0.480977
0.484299
0.487679
0.490814
0.494006
0.497111
0.500096
0.502726
0.504613
0.505901
0.506807
0.506721
0.504925
0.501364
0.499555
0.499995
0.502027
0.503955
0.504673
0.502181
0.494354
0.48248
0.46988
0.460185
0.456733
0.458978
0.465549
0.472279
0.474937
0.471933
0.463694
0.452907
0.441593
0.432506
0.42801
0.427415
0.42885
0.431816
0.435996
0.435993
0.433184
0.435326
0.438175
0.431953
0.412346
0.39216
0.386135
0.388991
0.394428
0.399248
0.404501
0.412193
0.422529
0.432062
0.440929
0.450212
0.458631
0.466063
0.475293
0.493053
0.518632
0.535893
0.538819
0.546525
0.553426
0.552868
0.545095
0.529361
0.508668
0.485865
0.463968
0.447407
0.438448
0.437682
0.443508
0.453275
0.464173
0.473963
0.48354
0.492846
0.500937
0.506804
0.510628
0.511716
0.506953
0.496046
0.480625
0.46318
0.446841
0.434317
0.427857
0.42804
0.435111
0.449018
0.467783
0.488234
0.506809
0.521469
0.531892
0.539292
0.54625
0.555855
0.5708
0.592096
0.61851
0.646782
0.672738
0.692653
0.704183
0.70676
0.702239
0.692861
0.67913
0.660364
0.635899
0.606872
0.576735
0.550175
0.531663
0.523979
0.0439115
0.0438492
0.0437852
0.0437217
0.0436191
0.0434291
0.0431299
0.0427265
0.0422551
0.0417658
0.0412863
0.0407986
0.0402691
0.0396842
0.0391095
0.0386758
0.0384262
0.0383345
0.0383498
0.0383603
0.0382963
0.0380162
0.0374711
0.0367213
0.0359366
0.0353165
0.0349276
0.0348835
0.0349688
0.0351069
0.0351497
0.035011
0.0345578
0.0338766
0.0334348
0.0334742
0.0337419
0.034287
0.0351527
0.0361709
0.036764
0.0366565
0.0362888
0.0359893
0.0359307
0.0361392
0.036261
0.0358961
0.0345298
0.0333692
0.0334382
0.0345831
0.035916
0.0356336
0.0337326
0.0299107
0.0259504
0.0249003
0.0250239
0.0252406
0.0253857
0.0251095
0.024524
0.0237742
0.0232078
0.0226104
0.0214494
0.0195919
0.017787
0.0166242
0.0160955
0.0159036
0.0159612
0.0162425
0.0171272
0.0186969
0.0198987
0.0213119
0.0271672
0.0410304
0.050828
0.0557145
0.0564707
0.0557647
0.0548248
0.0553521
0.0585465
0.0642672
0.0690964
0.0712806
0.0723997
0.0737952
0.0762997
0.0802298
0.0850905
0.0938319
0.104844
0.109781
0.107538
0.0969657
0.0838593
0.073729
0.0644058
0.0560111
0.0481699
0.0413145
0.036143
0.0327344
0.0312434
0.0308211
0.0307427
0.0316593
0.0350102
0.0401181
0.0451708
0.049469
0.0526356
0.0541038
0.0537918
0.0523048
0.0501686
0.0474473
0.0441181
0.0404621
0.0367658
0.0334501
0.0311848
0.0315455
0.0344569
0.0392712
0.0455233
0.0525561
0.0592581
0.0647158
0.0685346
0.0711342
0.0736933
0.0775258
0.0838387
0.0933112
0.105738
0.119884
0.133644
0.14464
0.150997
0.152112
0.148392
0.138745
0.124882
0.108417
0.0909954
0.0747307
0.0613993
0.0518503
0.0461653
0.0440049
2.529e-05
2.52197e-05
2.52399e-05
2.52321e-05
2.51059e-05
2.46613e-05
2.38425e-05
2.26809e-05
2.12543e-05
1.95431e-05
1.74027e-05
1.48115e-05
1.23734e-05
1.15863e-05
1.17036e-05
1.23861e-05
1.36942e-05
1.50079e-05
1.59197e-05
1.64243e-05
1.67815e-05
1.71658e-05
1.72136e-05
1.70916e-05
1.67077e-05
1.62143e-05
1.57636e-05
1.54146e-05
1.50751e-05
1.47053e-05
1.44992e-05
1.4486e-05
1.45262e-05
1.46242e-05
1.47228e-05
1.48891e-05
1.53163e-05
1.61479e-05
1.70081e-05
1.70773e-05
1.6852e-05
1.63415e-05
1.57549e-05
1.51752e-05
1.46032e-05
1.39999e-05
1.35754e-05
1.31848e-05
1.33297e-05
1.585e-05
2.3629e-05
2.65618e-05
2.26872e-05
1.37182e-05
9.17952e-06
9.17127e-06
9.99085e-06
1.30371e-05
1.88833e-05
2.63214e-05
2.58412e-05
1.59992e-05
6.22129e-06
1.69285e-06
3.19395e-08
2.23749e-11
2.2835e-11
2.28467e-11
2.07792e-11
1.60265e-11
1.10816e-11
7.32442e-12
4.86925e-12
3.86683e-12
3.86362e-12
3.97292e-12
4.46104e-12
5.19236e-12
5.88562e-12
6.65164e-12
9.19843e-12
2.13855e-11
2.32753e-11
1.00866e-11
4.08281e-13
-1.8638e-25
-3.76893e-25
-6.1469e-26
-5.50009e-26
-8.89507e-27
-1.46947e-26
-2.37621e-27
-2.36775e-27
-5.79086e-38
-1.82182e-38
-3.85318e-42
-1.57512e-42
5.68845e-42
-8.04768e-42
-3.11492e-43
-2.79021e-43
-1.41798e-38
-3.35797e-39
-2.54476e-40
-1.41236e-41
-7.42125e-43
-3.35801e-44
-1.93888e-43
-2.27725e-43
-5.92632e-43
-3.03214e-43
-1.0544e-43
1.38528e-43
-8.36723e-43
-4.01101e-41
-2.17426e-41
-1.06275e-41
-1.61345e-41
-7.6762e-40
2.1732e-41
-4.45464e-42
-6.66977e-43
-7.36173e-44
-6.52515e-45
-5.09007e-46
-3.23249e-47
-2.04682e-48
-4.55617e-50
-2.81807e-51
-5.44326e-53
-7.21109e-55
-9.89277e-57
7.23525e-58
-1.15533e-60
-9.78234e-63
-8.48172e-65
-8.89377e-67
1.72327e-67
-1.70198e-68
-6.45604e-74
-3.40775e-76
9.83135e-77
-4.55307e-81
-1.51213e-83
-3.11471e-86
-9.02263e-89
-3.91041e-88
-1.29699e-88
-8.4253e-90
-3.01241e-91
-6.81915e-93
-1.02973e-94
-9.319e-97
-5.21938e-99
-1.8162e-101
-3.95745e-104
-5.94344e-32
-1.17272e-30
-1.15023e-29
-7.23152e-29
-3.52394e-28
1.06876e-25
1.38854e-25
2.68653e-26
1.71031e-26
1.5805e-26
1.0819e-26
3.63812e-27
9.12226e-29
6.18091e-30
-5.82158e-28
6.70943e-27
1.69076e-26
1.83268e-26
1.18325e-26
2.84087e-26
1.1905e-26
3.70681e-26
-1.42261e-26
7.27914e-28
4.21717e-27
1.74407e-26
3.35128e-27
4.2095e-27
-3.67749e-26
3.00611e-26
-3.22389e-26
3.38293e-27
3.38752e-27
3.3803e-27
3.34963e-27
3.24001e-27
2.69488e-27
1.67406e-27
1.44697e-27
1.56544e-25
-6.11362e-26
-1.97042e-29
-1.90939e-29
-1.88365e-29
-1.86547e-29
-1.86449e-29
-1.83472e-29
-4.44351e-30
1.32863e-29
6.88094e-29
-3.97621e-30
-2.23913e-29
-7.71819e-31
-6.88281e-30
-1.50602e-29
-2.37636e-29
-2.48838e-29
-2.22621e-29
-2.15279e-29
-2.10619e-29
2.52287e-30
1.60935e-29
-5.22854e-27
-2.96837e-26
-9.19544e-26
-1.89648e-25
-3.83479e-25
-7.42226e-25
-1.27918e-24
-1.96253e-24
-2.76666e-24
-3.62166e-24
-4.4009e-24
-5.0229e-24
-5.50477e-24
-5.56355e-24
-1.98308e-24
1.02246e-31
2.6025e-31
-2.03755e-31
-4.11642e-31
-5.27007e-31
3.57603e-31
6.16891e-35
3.37146e-34
-8.10162e-25
-9.92356e-25
-9.34677e-25
-7.27569e-25
-4.49984e-25
-2.01805e-25
-6.16632e-26
-1.31416e-26
-2.05728e-27
-2.47928e-28
-2.41004e-29
-2.0125e-30
-1.56138e-31
-1.1739e-32
-8.57736e-34
-5.9419e-35
-3.6968e-36
-1.96866e-37
-9.1696e-39
-3.8573e-40
-1.49153e-41
-5.10855e-43
-1.04933e-43
-1.34609e-43
-2.28431e-43
-1.74882e-43
-7.07376e-44
-1.53106e-42
-3.18302e-42
-8.79608e-41
-7.78989e-41
-3.39776e-41
-3.40617e-41
-3.18204e-40
-1.1762e-40
-2.70371e-41
-4.09526e-42
-4.69773e-43
-4.44281e-44
-3.65869e-45
-2.72501e-46
-1.67786e-47
-7.42929e-49
-2.11576e-50
-3.61844e-52
-4.48092e-54
-7.07013e-56
-1.1886e-57
-2.14241e-59
-3.32696e-61
-3.76583e-63
-2.43039e-65
-4.61983e-68
-1.31344e-69
-2.5078e-72
-9.66529e-75
-2.21009e-77
-2.35042e-79
-2.79767e-81
-3.50156e-83
-4.39979e-85
-2.21031e-85
-1.5844e-86
-5.26692e-88
-1.21629e-89
-2.0711e-91
-2.44622e-93
-1.78852e-95
-9.2157e-98
-2.88917e-100
-5.83748e-103
-2.47037e-32
-3.10752e-31
-2.00527e-30
-8.45829e-30
-2.43528e-29
1.76949e-46
-1.26905e-27
-7.64362e-28
-2.03901e-28
-1.85743e-29
-2.34844e-30
-2.43113e-31
-3.60198e-32
-2.78343e-32
-7.7704e-31
-4.22831e-47
2.81058e-39
5.32296e-39
4.85334e-38
2.60368e-37
1.88897e-38
8.04447e-39
-3.44681e-28
-3.50339e-28
-2.38462e-28
-1.66769e-28
-1.64139e-28
-2.00238e-28
-3.3815e-28
-1.11146e-28
-3.23906e-28
-1.57941e-28
-8.95328e-29
-5.65368e-29
-3.16503e-29
-1.07027e-29
3.68508e-48
1.85151e-38
2.29501e-38
6.80451e-37
-1.27234e-27
-5.80816e-28
-2.73187e-28
-1.36081e-28
-7.77891e-29
-6.16865e-29
-7.39417e-29
-1.04388e-28
-1.54518e-28
-1.92111e-28
-2.22197e-28
-2.62279e-28
-3.24066e-28
-3.8606e-28
-4.02938e-28
-3.75316e-28
-3.40953e-28
-3.42448e-28
-4.59619e-28
-1.08449e-27
-4.36545e-27
-1.97386e-26
-6.97125e-26
-1.96793e-25
-4.59248e-25
-8.02335e-25
-1.236e-24
-1.8245e-24
-2.65099e-24
-3.75672e-24
-5.08066e-24
-6.45676e-24
-7.6687e-24
-8.60737e-24
-9.30205e-24
-9.54658e-24
-8.73602e-24
-6.8015e-24
-4.68057e-24
-3.04936e-24
-1.89791e-24
-9.99951e-25
-4.95399e-25
-5.92972e-25
-1.09903e-24
-1.4178e-24
-1.48867e-24
-1.31827e-24
-9.41834e-25
-5.08646e-25
-1.93155e-25
-5.17086e-26
-1.02517e-26
-1.53551e-27
-1.76768e-28
-1.62795e-29
-1.29811e-30
-9.95876e-32
-7.6757e-33
-5.76517e-34
-4.00516e-35
-2.45286e-36
-1.30314e-37
-5.93537e-39
-2.3949e-40
-8.87416e-42
-3.00725e-43
-5.20636e-44
-6.01794e-44
-8.40703e-44
-6.42933e-44
-2.96175e-44
-1.56691e-42
-2.30198e-42
-7.59684e-41
-6.94823e-41
-3.06256e-41
-2.76655e-41
-1.22656e-40
-5.81288e-41
-1.56985e-41
-2.92717e-42
-4.06457e-43
-4.38847e-44
-3.74255e-45
-2.49154e-46
-1.34567e-47
-5.65765e-49
-1.74793e-50
-3.7569e-52
-7.88307e-54
-1.78063e-55
-4.11723e-57
-9.12383e-59
-1.79183e-60
-2.91137e-62
-3.75653e-64
-3.84675e-66
-3.369e-68
-2.94228e-70
-3.02412e-72
-3.86654e-74
-5.97876e-76
-1.0541e-77
-1.99497e-79
-3.85122e-81
-7.2499e-83
-1.28634e-84
-2.09579e-86
-3.06131e-88
-3.85267e-90
-3.91475e-92
-2.90498e-94
-1.33797e-96
-3.05199e-99
-5.22351e-102
-3.92738e-33
-5.29399e-32
-3.01935e-31
-1.10098e-30
-2.57456e-30
-2.46554e-30
-2.55577e-29
-1.50851e-29
-5.01433e-30
-1.50032e-30
-5.26978e-31
-3.23182e-31
-3.75113e-31
-5.73066e-31
-9.27617e-31
-6.66961e-30
-2.84372e-29
-8.78715e-29
-1.19676e-28
-1.10197e-28
-1.20911e-28
-1.08968e-28
-9.10424e-29
-7.36392e-29
-8.37666e-29
-1.18199e-28
-1.66446e-28
-2.24078e-28
-2.90088e-28
-3.61107e-28
-4.39736e-28
-5.20494e-28
-5.99209e-28
-6.6728e-28
-7.14785e-28
-7.38425e-28
-7.44815e-28
-7.4097e-28
-7.33809e-28
-7.27524e-28
-7.47992e-28
-7.33168e-28
-7.1628e-28
-7.03106e-28
-6.95693e-28
-6.94488e-28
-7.00507e-28
-7.07931e-28
-7.08513e-28
-6.93196e-28
-6.79134e-28
-6.902e-28
-7.22382e-28
-7.46902e-28
-7.55823e-28
-8.14139e-28
-1.09237e-27
-1.91414e-27
-4.01662e-27
-1.03975e-26
-3.42807e-26
-1.15237e-25
-3.17579e-25
-6.78799e-25
-1.13551e-24
-1.57814e-24
-2.06375e-24
-2.80697e-24
-3.99215e-24
-5.5799e-24
-7.34934e-24
-9.02274e-24
-1.03665e-23
-1.13279e-23
-1.1993e-23
-1.22431e-23
-1.1621e-23
-1.00494e-23
-7.90719e-24
-5.78229e-24
-3.89007e-24
-2.20616e-24
-1.1678e-24
-1.04456e-24
-1.3448e-24
-1.53815e-24
-1.51076e-24
-1.25937e-24
-8.37118e-25
-4.07547e-25
-1.38334e-25
-3.36094e-26
-6.06483e-27
-8.35885e-28
-9.10294e-29
-8.27688e-30
-6.81305e-31
-5.4921e-32
-4.40928e-33
-3.449e-34
-2.4922e-35
-1.58277e-36
-8.68733e-38
-4.14613e-39
-1.75863e-40
-6.70535e-42
-2.25285e-43
-2.03917e-44
-1.78319e-44
-2.05194e-44
-1.55201e-44
-7.65352e-45
-6.17719e-43
-8.60789e-43
-3.52165e-41
-3.17108e-41
-1.37515e-41
-1.12263e-41
-3.1024e-41
-1.60356e-41
-4.80355e-42
-9.55276e-43
-1.35724e-43
-1.45233e-44
-1.20586e-45
-7.91486e-47
-4.29907e-48
-1.89937e-49
-6.17274e-51
-1.42138e-52
-3.04631e-54
-6.75824e-56
-1.51873e-57
-3.28755e-59
-6.48117e-61
-1.10831e-62
-1.57782e-64
-1.86163e-66
-1.93386e-68
-2.00028e-70
-2.31731e-72
-3.1785e-74
-5.09204e-76
-9.09348e-78
-1.71983e-79
-3.29098e-81
-6.13255e-83
-1.08149e-84
-1.76385e-86
-2.59534e-88
-3.33162e-90
-3.54147e-92
-2.89612e-94
-1.64767e-96
-5.6457e-99
-1.08979e-101
-1.04369e-34
-1.15711e-33
-7.94701e-33
-3.71513e-32
-1.04112e-31
-1.42573e-31
-3.5267e-31
-2.37999e-31
-1.92049e-31
-3.55041e-31
-6.64125e-31
-1.01491e-30
-1.29557e-30
-1.42965e-30
-1.37851e-30
-1.83859e-30
-5.58842e-30
-1.85279e-29
-3.43131e-29
-4.18142e-29
-4.46555e-29
-4.27312e-29
-4.14533e-29
-4.51068e-29
-5.62018e-29
-7.6381e-29
-1.1186e-28
-1.65352e-28
-2.35175e-28
-3.1921e-28
-4.14724e-28
-5.19071e-28
-6.29437e-28
-7.42803e-28
-8.55449e-28
-9.66757e-28
-1.0794e-27
-1.19047e-27
-1.29488e-27
-1.38981e-27
-1.47262e-27
-1.53879e-27
-1.58455e-27
-1.60865e-27
-1.6118e-27
-1.59287e-27
-1.55035e-27
-1.48092e-27
-1.38861e-27
-1.27924e-27
-1.18135e-27
-1.1188e-27
-1.09241e-27
-1.12433e-27
-1.35273e-27
-2.19369e-27
-4.62149e-27
-1.04558e-26
-2.31095e-26
-5.38407e-26
-1.40059e-25
-3.52704e-25
-7.43152e-25
-1.26132e-24
-1.70093e-24
-2.04559e-24
-2.60527e-24
-3.70772e-24
-5.41769e-24
-7.48805e-24
-9.53455e-24
-1.1225e-23
-1.23966e-23
-1.31212e-23
-1.35649e-23
-1.37686e-23
-1.34178e-23
-1.2158e-23
-1.01878e-23
-7.92101e-24
-5.60815e-24
-3.37038e-24
-1.89472e-24
-1.51752e-24
-1.62181e-24
-1.65477e-24
-1.4643e-24
-1.08588e-24
-6.41911e-25
-2.80219e-25
-8.77157e-26
-2.02998e-26
-3.59636e-27
-4.98204e-28
-5.49727e-29
-5.02195e-30
-4.09164e-31
-3.25482e-32
-2.58555e-33
-1.98621e-34
-1.39087e-35
-8.60986e-37
-4.61614e-38
-2.14595e-39
-8.81809e-41
-3.27058e-42
-1.09237e-43
-6.54028e-45
-4.02343e-45
-4.05719e-45
-2.90159e-45
-1.49025e-45
-1.51606e-43
-2.14098e-43
-1.03776e-41
-9.36014e-42
-3.93841e-42
-2.94551e-42
-5.85962e-42
-3.06898e-42
-9.57025e-43
-1.98664e-43
-2.88985e-44
-3.06275e-45
-2.40746e-46
-1.4195e-47
-6.79585e-49
-2.9672e-50
-1.04597e-51
-2.79646e-53
-6.65255e-55
-1.54503e-56
-3.51893e-58
-7.5867e-60
-1.47959e-61
-2.51019e-63
-3.63749e-65
-4.57454e-67
-5.26514e-69
-6.06365e-71
-7.65116e-73
-1.10455e-74
-1.80017e-76
-3.18538e-78
-5.85576e-80
-1.07477e-81
-1.91102e-83
-3.22208e-85
-5.03715e-87
-7.1267e-89
-8.84129e-91
-9.18785e-93
-7.52338e-95
-4.50286e-97
-1.8222e-99
-4.9954e-102
-3.43502e-34
-6.10788e-34
-1.41135e-33
-4.35578e-33
-1.50399e-32
-5.04305e-32
-1.67406e-31
-4.91193e-31
-1.21226e-30
-2.46506e-30
-4.05527e-30
-5.56165e-30
-6.55986e-30
-6.75253e-30
-6.04014e-30
-4.97228e-30
-4.80376e-30
-7.03134e-30
-1.16765e-29
-1.63184e-29
-2.0168e-29
-2.48746e-29
-3.55097e-29
-6.3277e-29
-1.25533e-28
-2.31063e-28
-3.67311e-28
-5.17744e-28
-6.70939e-28