/*--------------------------------*- C++ -*----------------------------------*\
| =========                 |                                                 |
| \\      /  F ield         | OpenFOAM: The Open Source CFD Toolbox           |
|  \\    /   O peration     | Version:  v1912                                 |
|   \\  /    A nd           | Website:  www.openfoam.com                      |
|    \\/     M anipulation  |                                                 |
\*---------------------------------------------------------------------------*/
FoamFile
{
    version     2.0;
    format      ascii;
    class       volScalarField;
    location    "80";
    object      alpha.water;
}
// * * * * * * * * * * * * * * * * * * * * * * * * * * * * * * * * * * * * * //

dimensions      [0 0 0 0 0 0 0];


internalField   nonuniform List<scalar> 
14268
(
1
1
1
1
1
1
1
1
1
1
1
1
1
1
1
1
1
1
1
1
1
1
1
1
1
1
1
1
1
1
1
1
1
1
1
1
1
1
1
1
1
1
1
1
1
1
1
1
1
1
1
1
1
1
1
1
1
1
1
1
1
1
1
1
1
1
1
1
1
1
1
1
1
1
1
1
1
1
1
1
1
1
1
1
1
1
1
1
1
1
1
1
1
1
1
1
1
1
1
1
1
1
1
1
1
1
1
1
1
1
1
1
1
1
1
1
1
1
1
1
1
1
1
1
1
1
1
1
1
1
1
1
1
1
1
1
1
1
1
1
1
1
1
1
1
1
1
1
1
1
1
1
1
1
1
1
1
1
1
1
1
1
1
1
1
1
1
1
1
1
1
1
1
1
1
1
1
1
1
1
1
1
1
1
1
1
1
1
1
1
1
1
1
1
1
1
1
1
1
1
1
1
1
1
1
1
1
1
1
1
1
1
1
1
1
1
1
1
1
1
1
1
1
1
1
1
1
1
1
1
1
1
1
1
1
1
1
1
1
1
1
1
1
1
1
1
1
1
1
1
1
1
1
1
1
1
1
1
1
1
1
1
1
1
1
1
1
1
1
1
1
1
1
1
1
1
1
1
1
1
1
1
1
1
1
1
1
1
1
1
1
1
1
1
1
1
1
1
1
1
1
1
1
1
1
1
1
1
1
1
1
1
1
1
1
1
1
1
1
1
1
1
1
1
1
1
1
1
1
1
1
1
1
1
1
1
1
1
1
1
1
1
1
1
1
1
1
1
1
1
1
1
1
1
1
1
1
1
1
1
1
1
1
1
1
1
1
1
1
1
1
1
1
1
1
1
1
1
1
1
1
1
1
1
1
1
1
1
1
1
1
1
1
1
1
1
1
1
1
1
1
1
1
1
1
1
1
1
1
1
1
1
1
1
1
1
1
1
1
1
1
1
1
1
1
1
1
1
1
1
1
1
1
1
1
1
1
1
1
1
1
1
1
1
1
1
1
1
1
1
1
1
1
1
1
1
1
1
1
1
1
1
1
1
1
1
1
1
1
1
1
1
1
1
1
1
1
1
1
1
1
1
1
1
1
1
1
1
1
1
1
1
1
1
1
1
1
1
1
1
1
1
1
1
1
1
1
1
1
1
1
1
1
1
1
1
1
1
1
1
1
1
1
1
1
1
1
1
1
1
1
1
1
1
1
1
1
1
1
1
1
1
1
1
1
1
1
1
1
1
1
1
1
1
1
1
1
1
1
1
1
1
1
1
1
1
1
1
1
1
1
1
1
1
1
1
1
1
1
1
1
1
1
1
1
1
1
1
1
1
1
1
1
1
1
1
1
1
1
1
1
1
1
1
1
1
1
1
1
1
1
1
1
1
1
1
1
1
1
1
1
1
1
1
1
1
1
1
1
1
1
1
1
1
1
1
1
1
1
1
1
1
1
1
1
1
1
1
1
1
1
1
1
1
1
1
1
1
1
1
1
1
1
1
1
1
1
1
1
1
1
1
1
1
1
1
1
1
1
1
1
1
1
1
1
1
1
1
1
1
1
1
1
1
1
1
1
1
1
1
1
1
1
1
1
1
1
1
1
1
1
1
1
1
1
1
1
1
1
1
1
1
1
1
1
1
1
1
1
1
1
1
1
1
1
1
1
1
1
1
1
1
1
1
1
1
1
1
1
1
1
1
1
1
1
1
1
1
1
1
1
1
1
1
1
1
1
1
1
1
1
1
1
1
1
1
1
1
1
1
1
1
1
1
1
1
1
1
1
1
1
1
1
1
1
1
1
1
1
1
1
1
1
1
1
1
1
1
1
1
1
1
1
1
1
1
1
1
1
1
1
1
1
1
1
1
1
1
1
1
1
1
1
1
1
1
1
1
1
1
1
1
1
1
1
1
1
1
1
1
1
1
1
1
1
1
1
1
1
1
1
1
1
1
1
1
1
1
1
1
1
1
1
1
1
1
1
1
1
1
1
1
1
1
1
1
1
1
1
1
1
1
1
1
1
1
1
1
1
1
1
1
1
1
1
1
1
1
1
1
1
1
1
1
1
1
1
1
1
1
1
1
1
1
1
1
1
1
1
1
1
1
1
1
1
1
1
1
1
1
1
1
1
1
1
1
1
1
1
1
1
1
1
1
1
1
1
1
1
1
1
1
1
1
1
1
1
1
1
1
1
1
1
1
1
1
1
1
1
1
1
1
1
1
1
1
1
1
1
1
1
1
1
1
1
1
1
1
1
1
1
1
1
1
1
1
1
1
1
1
1
1
1
1
1
1
1
1
1
1
1
1
1
1
1
1
1
1
1
1
1
1
1
1
1
1
1
1
1
1
1
1
1
1
1
1
1
1
1
1
1
1
1
1
1
1
1
1
1
1
1
1
1
1
1
1
1
1
1
1
1
1
1
1
1
1
1
1
1
1
1
1
1
1
1
1
1
1
1
1
1
1
1
1
1
1
1
1
1
1
1
1
1
1
1
1
1
1
1
1
1
1
1
1
1
1
1
1
1
1
1
1
1
1
1
1
1
1
1
1
1
1
1
1
1
1
1
1
1
1
1
1
1
1
1
1
1
1
1
1
1
1
1
1
1
1
1
1
1
1
1
1
1
1
1
1
1
1
1
1
1
1
1
1
1
1
1
1
1
1
1
1
1
1
1
1
1
1
1
1
1
1
1
1
1
1
1
1
1
1
1
1
1
1
1
1
1
1
1
1
1
1
1
1
1
1
1
1
1
1
1
1
1
1
1
1
1
1
1
1
1
1
1
1
1
1
1
1
1
1
1
1
1
1
1
1
1
1
1
1
1
1
1
1
1
1
1
1
1
1
1
1
1
1
1
1
1
1
1
1
1
1
1
1
1
1
1
1
1
1
1
1
1
1
1
1
1
1
1
1
1
1
1
1
1
1
1
1
1
1
1
1
1
1
1
1
1
1
1
1
1
1
1
1
1
1
1
1
1
1
1
1
1
1
1
1
1
1
1
1
1
1
1
1
1
1
1
1
1
1
1
1
1
1
1
1
1
1
1
1
1
1
1
1
1
1
1
1
1
1
1
1
1
1
1
1
1
1
1
1
1
1
1
1
1
1
1
1
1
1
1
1
1
1
1
1
1
1
1
1
1
1
1
1
1
1
1
1
1
1
1
1
1
1
1
1
1
1
1
1
1
1
1
1
1
1
1
1
1
1
1
1
1
1
1
1
1
1
1
1
1
1
1
1
1
1
1
1
1
1
1
1
1
1
1
1
1
1
1
1
1
1
1
1
1
1
1
1
1
1
1
1
1
1
1
1
1
1
1
1
1
1
1
1
1
1
1
1
1
1
1
1
1
1
1
1
1
1
1
1
1
1
1
1
1
1
1
1
1
1
1
1
1
1
1
1
1
1
1
1
1
1
1
1
1
1
1
1
1
1
1
1
1
1
1
1
1
1
1
1
1
1
1
1
1
1
1
1
1
1
1
1
1
1
1
1
1
1
1
1
1
1
1
1
1
1
1
1
1
1
1
1
1
1
1
1
1
1
1
1
1
1
1
1
1
1
1
1
1
1
1
1
1
1
1
1
1
1
1
1
1
1
1
1
1
1
1
1
1
1
1
1
1
1
1
1
1
1
1
1
1
1
1
1
1
1
1
1
1
1
1
1
1
1
1
1
1
1
1
1
1
1
1
1
1
1
1
1
1
1
1
1
1
1
1
1
1
1
1
1
1
1
1
1
1
1
1
1
1
1
1
1
1
1
1
1
1
1
1
1
1
1
1
1
1
1
1
1
1
1
1
1
1
1
1
1
1
1
1
1
1
1
1
1
1
1
1
1
1
1
1
1
1
1
1
1
1
1
1
1
1
1
1
1
1
1
1
1
1
1
1
1
1
1
1
1
1
1
1
1
1
1
1
1
1
1
1
1
1
1
1
1
1
1
1
1
1
1
1
1
1
1
1
1
1
1
1
1
1
1
1
1
1
1
1
1
1
1
1
1
1
1
1
1
1
1
1
1
1
1
1
1
1
1
1
1
1
1
1
1
1
1
1
1
1
1
1
1
1
1
1
1
1
1
1
1
1
1
1
1
1
1
1
1
1
1
1
1
1
1
1
1
1
1
1
1
1
1
1
1
1
1
1
1
1
1
1
1
1
1
1
1
1
1
1
1
1
1
1
1
1
1
1
1
1
1
1
1
1
1
1
1
1
1
1
1
1
1
1
1
1
1
1
1
1
1
1
1
1
1
1
1
1
1
1
1
1
1
1
1
1
1
1
1
1
1
1
1
1
1
1
1
1
1
1
1
1
1
1
1
1
1
1
1
1
1
1
1
1
1
1
1
1
1
1
1
1
1
1
1
1
1
1
1
1
1
1
1
1
1
1
1
1
1
1
1
1
1
1
1
1
1
1
1
1
1
1
1
1
1
1
1
1
1
1
1
1
1
1
1
1
1
1
1
1
1
1
1
1
1
1
1
1
1
1
1
1
1
1
1
1
1
1
1
1
1
1
1
1
1
1
1
1
1
1
1
1
1
1
1
1
1
1
1
1
1
1
1
1
1
1
1
1
1
1
1
1
1
1
1
1
1
1
1
1
1
1
1
1
1
1
1
1
1
1
1
1
1
1
1
1
1
1
1
1
1
1
1
1
1
1
1
1
1
1
1
1
1
1
1
1
1
1
1
1
1
1
1
1
1
1
1
1
1
1
1
1
1
1
1
1
1
1
1
1
1
1
1
1
1
1
1
1
1
1
1
1
1
1
1
1
1
1
1
1
1
1
1
1
1
1
1
1
1
1
1
1
1
1
1
1
1
1
1
1
1
1
1
1
1
1
1
1
1
1
1
1
1
1
1
1
1
1
1
1
1
1
1
1
1
1
1
1
1
1
1
1
1
1
1
1
1
1
1
1
1
1
1
1
1
1
1
1
1
1
1
1
1
1
1
1
1
1
1
1
1
1
1
1
1
1
1
1
1
1
1
1
1
1
1
1
1
1
1
1
1
1
1
1
1
1
1
1
1
1
1
1
1
1
1
1
1
1
1
1
1
1
1
1
1
1
1
1
1
1
1
1
1
1
1
1
1
1
1
1
1
1
1
1
1
1
1
1
1
1
1
1
1
1
1
1
1
1
1
1
1
1
1
1
1
1
1
1
1
1
1
1
1
1
1
1
1
1
1
1
1
1
1
1
1
1
1
1
1
1
1
1
1
1
1
1
1
1
1
1
1
1
1
1
1
1
1
1
1
1
1
1
1
1
1
1
1
1
1
1
1
1
1
1
1
1
1
1
1
1
1
1
1
1
1
1
1
1
1
1
1
1
1
1
1
1
1
1
1
1
1
1
1
1
1
1
1
1
1
1
1
1
1
1
1
1
1
1
1
1
1
1
1
1
1
1
1
1
1
1
1
1
1
1
1
1
1
1
1
1
1
1
1
1
1
1
1
1
1
1
1
1
1
1
1
1
1
1
1
1
1
1
1
1
1
1
1
1
1
1
1
1
1
1
1
1
1
1
1
1
1
1
1
1
1
1
1
1
1
1
1
1
1
1
1
1
1
1
1
1
1
1
1
1
1
1
1
1
1
1
1
1
1
1
1
1
1
1
1
1
1
1
1
1
1
1
1
0.999988
0.995243
0.998344
0.999637
1
1
1
1
1
1
1
1
1
1
1
1
1
1
1
1
1
1
1
1
1
1
1
1
1
1
1
1
1
1
1
1
1
1
1
1
1
1
1
1
1
1
1
1
1
1
1
0.998458
0.98782
0.978632
0.986796
1
1
1
1
1
1
1
1
1
1
1
1
1
1
1
1
1
1
1
1
1
1
1
1
1
1
1
1
1
1
1
1
1
1
1
1
1
1
1
1
1
1
1
1
1
1
1
1
1
1
1
1
1
1
1
1
1
1
1
1
1
1
1
1
1
1
1
1
1
1
1
1
1
1
1
1
1
1
1
1
1
1
1
1
1
1
1
1
1
1
1
1
1
1
1
1
1
1
1
1
1
1
1
1
1
1
1
1
0.981526
0.479466
0.0393198
0.112196
0.591181
0.993625
1
1
1
1
1
1
1
1
1
1
1
1
1
1
1
1
1
1
1
1
1
1
1
1
1
1
1
1
1
1
1
1
1
1
1
1
1
1
1
1
0.999998
0.998949
0.945994
0.815903
0.63957
0.416139
0.187176
0.0317165
0.0400083
0.3101
0.815653
0.999918
1
1
1
1
1
1
1
1
1
1
1
1
1
1
1
1
1
1
1
1
1
1
1
1
1
1
1
1
1
1
1
1
1
1
1
1
1
1
1
1
1
1
1
1
1
1
1
1
1
1
1
1
1
1
1
1
1
1
1
1
1
1
1
1
1
1
1
1
1
1
1
1
1
1
1
1
1
1
1
1
1
1
1
1
1
1
1
1
1
1
1
1
1
1
1
1
1
1
1
1
1
1
1
1
1
0.999324
0.403123
0.00130408
3.78194e-21
-4.82066e-24
0.000191128
0.362634
0.979699
1
1
1
1
1
1
1
1
1
1
1
1
1
1
1
1
1
1
1
1
1
1
1
1
1
1
1
1
1
1
1
1
1
1
1
1
1
0.997883
0.731965
0.328633
0.102869
0.0150705
0.00751251
0.00320291
0.000630261
1.50522e-21
9.58678e-18
6.60288e-12
1.06286e-05
0.0610743
0.759893
1
1
1
1
1
1
1
1
1
1
1
1
1
1
1
1
1
1
1
1
1
1
1
1
1
1
1
1
1
1
1
1
1
1
1
1
1
1
1
1
1
1
1
1
1
1
1
1
1
1
1
1
0.999939
0.998443
0.988848
0.999778
1
1
1
1
1
1
1
1
1
1
1
1
1
1
1
1
1
1
1
1
1
1
1
1
1
1
1
1
1
1
1
1
1
1
1
1
1
1
1
1
1
1
1
1
1
1
1
1
0.999893
0.678623
0.00110693
9.32118e-15
3.7861e-34
-3.16049e-27
-4.26823e-30
0.000132945
0.343929
0.986945
1
1
1
1
1
1
1
1
1
1
1
1
1
1
1
1
1
1
1
1
1
1
1
1
1
1
1
1
1
1
1
1
1
1
1
0.991007
0.456988
0.016468
0.00147089
3.75424e-12
4.0718e-13
1.12343e-13
9.62456e-15
2.90733e-40
2.41742e-33
7.64442e-25
3.26299e-18
9.63409e-12
3.64233e-05
0.0928423
0.892491
1
1
1
1
1
1
1
1
1
1
1
1
1
1
1
1
1
1
1
1
1
1
1
1
1
1
1
1
1
1
1
1
1
1
1
1
1
0.999874
0.995947
0.980439
0.9948
0.997112
1
1
1
1
1
1
1
0.999995
0.998232
0.934516
0.650205
0.544194
0.760543
0.975008
1
1
1
1
1
1
1
1
1
1
1
1
1
1
1
1
1
1
1
1
1
1
1
1
1
1
1
1
1
1
1
1
1
1
1
1
1
1
1
1
1
1
1
1
1
1
1
0.963763
0.113679
4.01173e-22
1.10472e-33
1.17022e-37
-2.07197e-30
-4.40987e-33
-7.69017e-36
0.00023177
0.40241
0.995596
1
1
1
1
1
1
1
1
1
1
1
1
1
1
1
1
1
1
1
1
1
1
1
1
1
1
1
1
1
1
1
1
1
0.998569
0.532922
0.00720355
-1.95477e-21
-2.65711e-23
2.74778e-31
1.07881e-33
3.39488e-36
-3.84201e-43
-1.75387e-39
6.64975e-41
5.78421e-32
1.96031e-23
1.22795e-16
5.60539e-10
0.00216636
0.308507
0.996846
1
1
1
1
1
1
1
1
1
1
1
1
1
1
1
1
1
1
1
1
1
1
1
1
1
1
1
1
1
1
1
1
1
1
1
0.99981
0.961332
0.497375
0.139386
0.201465
0.6303
0.96713
1
1
1
1
0.999999
0.999889
0.992573
0.807083
0.21956
0.0294233
0.0269332
0.117342
0.552717
0.974372
1
1
1
1
1
1
1
1
1
1
1
1
1
1
1
1
1
1
1
1
1
1
1
1
1
1
1
1
1
1
1
1
1
1
1
1
1
1
1
1
1
1
1
1
1
0.999825
0.557061
4.00121e-07
1.00849e-23
-1.39369e-43
3.31919e-41
-1.65845e-33
-7.64562e-36
-2.05761e-37
-8.49422e-40
0.000417646
0.473672
0.997165
1
1
1
1
1
1
1
1
1
1
1
1
1
1
1
1
1
1
1
1
1
1
1
1
1
1
1
1
1
1
1
0.999982
0.825406
0.0236912
3.69876e-13
-1.94396e-32
-9.45084e-26
-3.55418e-28
-1.47162e-30
-1.00904e-32
-9.19874e-35
-7.41779e-37
-4.65473e-39
2.27144e-38
1.08035e-28
4.60372e-21
2.85482e-14
2.44644e-07
0.0112004
0.72614
1
1
1
1
1
1
1
1
1
1
1
1
1
1
1
1
1
1
1
1
1
1
1
1
1
1
1
1
1
1
1
1
1
1
0.999955
0.980321
0.402976
0.0240678
2.67185e-06
0.000410418
0.0311544
0.372097
0.916593
1
1
0.999994
0.999707
0.988056
0.74813
0.133503
5.29616e-05
0.000262714
0.000743064
0.00406384
0.0612331
0.582612
0.997995
1
1
1
1
1
1
1
1
1
1
1
1
1
1
1
1
0.984771
1
1
1
1
1
1
1
1
1
1
1
1
1
1
1
1
1
1
1
1
1
1
1
1
1
1
1
0.958725
0.0894845
3.51354e-10
1.05168e-25
-7.50327e-46
4.08569e-43
-1.47937e-36
-5.72153e-38
-1.67037e-39
-3.14168e-41
5.87911e-29
0.000816401
0.480752
0.995363
1
1
1
1
1
1
1
1
1
1
1
1
1
1
1
1
1
1
1
1
1
1
1
1
1
1
1
1
1
1
0.994193
0.239168
2.42365e-05
2.24994e-16
9.27794e-33
-7.9965e-28
-6.49626e-30
-6.2512e-32
-6.88201e-34
-6.14937e-36
-4.20295e-38
-2.25754e-40
-7.11699e-43
6.70525e-35
3.07843e-25
3.0278e-18
1.75787e-11
0.000165483
0.159314
0.981925
1
1
1
1
1
1
1
1
1
1
1
1
1
1
1
1
1
1
1
1
1
1
1
1
1
1
1
1
1
1
1
1
0.999996
0.995071
0.595121
0.013371
5.71207e-05
5.72091e-08
2.57368e-06
4.24651e-05
0.00786515
0.211504
0.776574
0.974533
0.997833
0.961163
0.606562
0.0935298
0.000371963
3.12727e-06
8.74612e-06
2.85999e-05
0.000141347
0.00250356
0.0699259
0.734277
1
1
1
1
1
1
1
1
1
1
1
1
1
1
1
1
0.185909
0.802993
0.999933
1
1
1
1
1
1
1
1
1
1
1
1
1
1
1
1
1
1
1
1
1
1
1
1
0.999913
0.560238
7.66582e-05
1.33653e-21
2.35881e-38
4.48803e-49
-8.57046e-45
-2.29271e-39
-3.8641e-40
-8.09394e-42
-1.17902e-43
-1.2496e-45
-4.10815e-48
0.000227867
0.4001
0.980866
1
1
1
1
1
1
1
1
1
1
1
1
1
1
1
1
1
1
1
1
1
1
1
1
1
1
1
1
0.999845
0.721948
0.00128013
1.36548e-22
-4.64077e-36
-1.52198e-29
-8.89314e-30
-1.76589e-31
-2.7752e-33
-3.05435e-35
-2.37861e-37
-1.37933e-39
-6.43974e-42
-2.64158e-44
1.15627e-39
1.52435e-30
2.72859e-22
2.17572e-15
2.14174e-08
0.00492342
0.618459
1
1
1
1
1
1
1
1
1
1
1
1
1
1
1
1
1
1
1
1
1
1
1
1
1
1
1
1
1
1
1
1
0.999607
0.879528
0.0619185
6.9577e-16
8.9475e-15
1.05143e-12
1.38916e-10
1.12676e-08
2.34201e-06
0.000530256
0.0385591
0.282174
0.406155
0.223071
0.0291815
1.23843e-09
7.20478e-09
4.22677e-08
2.27378e-07
1.05043e-06
5.08005e-06
5.91977e-05
0.00317116
0.125827
0.878561
1
1
1
1
1
1
1
1
1
1
1
1
1
1
1
0
0.0214201
0.581862
0.999711
1
1
1
1
1
1
1
1
1
1
1
1
1
1
1
1
1
1
1
1
1
1
1
0.973516
0.104583
1.32249e-21
2.2078e-38
3.81675e-55
-1.54436e-42
-6.5309e-44
-5.46293e-42
-1.81651e-42
-2.76536e-44
-3.17179e-46
-2.79167e-48
-1.96329e-50
-3.21087e-42
3.04039e-05
0.269353
0.922769
1
1
1
1
1
1
1
1
1
1
1
1
1
1
1
1
1
1
1
1
1
1
1
1
1
1
1
0.996778
0.207904
7.85324e-18
3.9107e-38
-2.20248e-30
-2.1351e-30
-2.40926e-31
-6.72908e-33
-1.03241e-34
-9.98237e-37
-6.72834e-39
-3.36352e-41
-1.38904e-43
-5.15156e-46
6.23579e-44
3.9383e-36
1.96491e-26
2.6783e-19
1.8564e-12
2.59318e-05
0.104526
0.968574
1
1
1
1
1
1
1
1
1
1
1
1
1
1
1
1
1
1
1
1
1
1
1
1
1
1
1
1
1
1
0.999989
0.989841
0.284129
0.000103821
2.62568e-20
2.80839e-19
1.20411e-18
3.16999e-17
6.23817e-15
1.24925e-12
2.5287e-10
1.1535e-07
3.25566e-05
0.00178756
1.1199e-06
4.90935e-12
3.68113e-11
2.48426e-10
1.4174e-09
8.40343e-09
4.20289e-08
1.98616e-07
1.78997e-06
5.99327e-05
0.00750199
0.295924
0.964501
1
1
1
1
1
1
1
1
1
1
1
1
1
1
0
-4.96764e-204
2.22084e-08
0.457532
0.997324
1
1
1
1
1
1
1
1
1
1
1
1
1
1
1
1
1
1
1
1
1
1
0.613149
0.000201528
2.17596e-21
2.62689e-45
-6.82268e-42
-6.65144e-43
-3.06115e-44
-1.47159e-44
-6.44635e-45
-7.38595e-47
-6.76962e-49
-4.9621e-51
-2.97638e-53
4.43452e-54
-2.1875e-34
2.63242e-10
0.123522
0.771888
0.997053
1
1
1
1
1
1
1
1
1
1
1
1
1
1
1
1
1
1
1
1
1
1
1
1
0.999997
0.786471
0.0020466
1.06655e-27
6.57505e-28
3.9417e-29
5.23394e-48
-7.05208e-33
-2.04944e-34
-2.85309e-36
-2.42747e-38
-1.43541e-40
-6.26226e-43
-2.32082e-45
-7.9499e-48
4.99109e-48
2.41015e-40
1.23858e-31
3.89161e-23
3.3654e-16
4.25986e-09
0.00210191
0.570285
0.999997
1
1
1
1
1
1
1
1
1
1
1
1
1
1
1
1
1
1
1
1
1
1
1
1
1
1
1
1
1
0.999581
0.725583
0.00872428
7.74469e-18
5.08541e-27
7.25419e-27
3.8804e-27
1.49648e-27
7.21232e-26
1.11993e-23
2.3421e-21
5.61669e-19
4.84803e-17
1.18279e-15
1.69985e-14
2.08609e-13
1.96178e-12
1.18373e-11
5.47278e-11
2.89942e-10
1.55067e-09
6.85969e-09
6.17954e-08
1.3803e-06
0.000117533
0.0141918
0.519924
0.993972
1
1
1
1
1
1
1
1
1
1
1
1
1
0
0
0
7.00423e-13
0.468276
0.999785
1
1
1
1
1
1
1
1
1
1
1
1
1
1
1
1
1
1
1
1
0.989213
0.147417
3.51083e-19
1.94693e-36
1.04644e-47
-1.32019e-42
-1.02031e-43
-3.88349e-45
-1.25775e-46
-1.984e-47
-1.82579e-49
-1.41844e-51
-9.28045e-54
-5.20103e-56
-2.29823e-58
-7.06574e-61
-1.55055e-63
3.54841e-18
0.0174236
0.482817
0.967685
0.999278
1
1
1
1
1
1
1
1
1
1
1
1
1
1
1
1
1
1
1
1
1
1
0.999973
0.325575
0.000132564
5.38947e-21
2.99334e-28
2.08983e-29
-2.9185e-48
-1.75046e-34
-4.82854e-36
-6.07978e-38
-4.60932e-40
-2.42948e-42
-9.4154e-45
-3.20592e-47
-1.05466e-49
-2.5407e-52
2.06165e-44
8.71902e-37
3.29414e-27
4.9624e-20
4.15764e-13
7.01497e-06
0.0834657
0.955821
1
1
1
1
1
1
1
1
1
1
1
1
1
1
1
1
1
1
1
1
1
1
1
1
1
1
1
1
0.999992
0.97075
0.145406
5.9736e-19
7.28635e-28
1.45384e-28
9.50556e-32
1.06068e-31
2.37348e-29
3.92105e-27
4.73256e-25
7.62569e-23
1.46176e-20
1.58613e-18
4.68754e-17
7.49212e-16
9.36666e-15
7.82445e-14
5.35687e-13
2.54233e-12
1.06251e-11
4.86224e-11
2.23056e-10
1.75635e-09
3.8296e-08
1.97829e-06
0.000297898
0.0344459
0.682338
0.997533
1
1
1
1
1
1
1
1
1
1
1
1
0
0
0
-2.94231e-169
3.26022e-05
0.58277
0.999956
1
1
1
1
1
1
1
1
1
1
1
1
1
1
1
1
1
1
1
0.661945
0.000350395
1.65266e-21
1.61705e-41
-7.24436e-61
-1.49223e-43
-8.79034e-45
-2.70492e-46
-5.32444e-48
-1.14944e-49
-1.05942e-51
-8.53028e-54
-5.94663e-56
-3.58426e-58
-1.70619e-60
-5.69698e-63
-1.34632e-65
-2.21167e-68
-2.4955e-71
5.45627e-08
0.148343
0.66811
0.98811
0.997746
0.99988
1
1
1
1
1
1
1
1
1
1
1
1
1
1
1
1
1
1
1
0.914023
0.0207538
1.76647e-18
5.9262e-23
1.34162e-29
1.39259e-30
4.81322e-33
3.67858e-52
-6.87177e-38
-9.23692e-40
-6.58886e-42
-3.19256e-44
-1.13761e-46
-3.66926e-49
-1.23085e-51
-5.08157e-54
2.038e-48
7.08478e-41
2.00094e-32
7.49578e-24
7.08018e-17
1.01972e-09
0.000474551
0.514665
0.999135
1
1
1
1
1
1
1
1
1
1
1
1
1
1
1
1
1
1
1
1
1
1
1
1
1
1
1
0.99884
0.542565
0.00411512
2.22289e-33
-8.69099e-26
-6.66078e-27
-2.75827e-28
-7.55659e-30
2.97475e-31
1.6534e-28
1.90512e-26
2.43842e-24
4.80056e-22
4.37711e-20
1.31706e-18
2.16885e-17
2.49581e-16
2.19117e-15
1.5719e-14
8.81155e-14
3.69746e-13
1.57619e-12
7.35909e-12
4.66938e-11
8.5207e-10
3.82009e-08
3.73583e-06
0.000661188
0.0768871
0.71986
0.985707
1
1
1
1
1
1
1
1
1
1
1
0
0
0
0
-2.23921e-135
0.0157973
0.74066
0.999999
1
1
1
1
1
1
1
1
1
1
1
1
1
1
1
1
1
0.990941
0.169272
1.4087e-22
1.21949e-23
1.76992e-27
2.67089e-30
-4.04703e-49
-4.48258e-46
-1.1958e-47
-1.92786e-49
-2.22973e-51
-1.89293e-53
-1.38734e-55
-8.72673e-58
-4.7092e-60
-2.01306e-62
-6.11781e-65
-1.32876e-67
-2.01563e-70
-2.0372e-73
-7.70183e-77
-3.01931e-27
3.97357e-07
0.141902
0.480013
0.724576
0.89182
0.988469
0.994643
0.997005
0.999999
1
1
1
1
1
1
1
1
1
1
1
1
1
1
0.535355
0.00144658
3.06592e-26
2.46451e-29
1.45255e-30
1.24322e-34
7.29566e-34
2.10089e-35
2.34225e-54
-7.43337e-42
-6.05974e-44
-2.90042e-46
-1.00533e-48
-3.95368e-51
-3.49757e-53
-6.37519e-55
8.17691e-53
6.06637e-45
1.8165e-37
4.60753e-28
8.40384e-21
7.48614e-14
1.27966e-06
0.055502
0.909454
1
1
1
1
1
1
1
1
1
1
1
1
1
1
1
1
1
1
1
1
1
1
1
1
1
1
0.999909
0.876437
0.0608238
1.35102e-17
1.56196e-34
-3.74987e-26
-2.74119e-27
-1.02824e-28
-2.58284e-30
-1.21535e-32
2.37195e-30
3.48427e-28
3.87704e-26
6.95336e-24
6.56954e-22
2.75853e-20
5.45013e-19
6.88804e-18
6.2845e-17
4.83772e-16
2.99121e-15
1.37326e-14
5.67585e-14
2.6655e-13
1.6878e-12
1.61892e-11
6.16037e-10
4.89385e-08
6.86995e-06
0.00106841
0.0901838
0.615014
0.912308
0.988358
1
1
1
1
1
1
1
1
1
0
0
0
0
0
2.47769e-200
0.0798776
0.879369
1
1
1
1
1
1
1
1
1
1
1
1
1
1
1
1
1
0.637695
0.000407895
1.60814e-21
-6.02624e-41
4.64123e-29
1.37323e-31
2.60505e-51
-1.25258e-47
-3.32026e-49
-4.69948e-51
-4.3985e-53
-3.12852e-55
-1.94428e-57
-1.04665e-59
-4.865e-62
-1.81434e-64
-4.91556e-67
-9.66105e-70
-1.34284e-72
-1.26985e-75
-7.23785e-79
-4.84854e-50
-1.11886e-46
4.81974e-43
9.92825e-23
4.09827e-13
4.91556e-06
0.0390151
0.210051
0.500579
0.902244
0.998901
1
1
1
1
1
1
1
1
1
1
1
1
0.991141
0.126945
-1.34701e-20
-9.58739e-24
-3.89404e-26
-2.82883e-28
-1.86863e-30
-1.16529e-32
-6.82976e-35
-3.72576e-37
-1.76782e-39
-6.88808e-42
-2.10912e-44
-5.00272e-47
-9.06603e-50
-1.46643e-52
-6.54605e-55
-9.38456e-57
4.63868e-49
1.23154e-41
1.29407e-33
8.41549e-25
7.53569e-18
8.47744e-11
0.000320074
0.363484
0.994352
1
1
1
1
1
1
1
1
1
1
1
1
1
1
1
1
1
1
1
1
1
1
1
1
0.999979
0.967669
0.25277
9.44569e-06
9.18696e-20
2.96871e-21
-1.76093e-40
-3.68709e-28
-1.54408e-29
-3.83126e-31
-5.24637e-33
2.51809e-32
5.73718e-30
7.5791e-28
1.02993e-25
1.08782e-23
5.18524e-22
1.3571e-20
2.04976e-19
1.97857e-18
1.52246e-17
9.71722e-17
4.85414e-16
1.93769e-15
8.84279e-15
5.77569e-14
5.16269e-13
8.33832e-12
6.5404e-10
8.71957e-08
1.34623e-05
0.00117612
0.0431532
0.330428
0.627961
0.806565
0.890399
0.962398
0.999945
1
1
1
1
1
0
0
0
0
0
3.88839e-199
4.5129e-202
0.196707
0.962319
1
1
1
1
1
1
1
1
1
1
1
1
1
1
1
0.955043
0.113116
1.32086e-21
1.06123e-36
1.15777e-55
9.69196e-54
1.85209e-34
6.67842e-37
-2.06813e-56
-4.50191e-51
-6.72707e-53
-5.53879e-55
-7.40731e-57
-7.70885e-59
-4.62957e-61
-2.03781e-63
-6.46549e-66
-1.37835e-68
-2.07379e-71
-2.20502e-74
-1.63119e-77
-7.74049e-81
-1.87249e-84
2.8323e-83
7.70373e-80
7.731e-80
-3.07861e-133
-1.51877e-134
3.95242e-41
2.33907e-61
3.49638e-12
0.0634468
0.687419
0.997566
1
1
1
1
1
1
1
1
1
1
1
0.762194
0.00339772
3.68961e-19
1.31796e-35
-1.4761e-27
-1.80505e-29
-1.58085e-31
-1.19025e-33
-7.9047e-36
-4.34861e-38
-1.89285e-40
-6.33962e-43
-1.59411e-45
-2.98031e-48
-4.48555e-51
-1.63933e-53
-2.66253e-55
-4.54587e-57
9.48359e-54
7.26544e-46
1.39518e-38
1.09901e-29
4.25094e-22
2.6926e-15
3.30875e-08
0.0102446
0.710982
0.999878
1
1
1
1
1
1
1
1
1
1
1
1
1
1
1
1
1
1
1
1
1
1
0.999972
0.981105
0.436121
0.00469744
2.01187e-18
1.63174e-25
5.52134e-22
7.85403e-24
2.05096e-43
-1.00696e-30
-3.03577e-32
-4.91887e-34
2.63549e-34
6.87562e-32
1.39294e-29
2.16939e-27
1.88022e-25
9.94108e-24
3.31808e-22
5.85991e-21
6.35219e-20
4.68461e-19
2.81165e-18
1.3904e-17
6.25815e-17
2.61166e-16
1.745e-15
1.93339e-14
3.04185e-13
8.47158e-12
1.05185e-09
1.63956e-07
1.55001e-05
0.000507893
0.00659716
0.0390823
0.13284
0.307421
0.537493
0.798252
0.964689
1
1
1
1
0
0
0
0
0
0
0
4.39863e-54
0.32844
0.992046
1
1
1
1
1
1
1
1
1
1
1
1
1
1
0.425111
7.58597e-05
1.51948e-22
3.83904e-39
-8.23945e-37
-3.0675e-38
7.29441e-53
3.45711e-39
4.29825e-42
-3.50635e-62
-3.84754e-50
-4.8065e-52
-2.94789e-54
-1.21759e-56
-3.88261e-59
-1.02682e-61
-2.19211e-64
-3.50827e-67
-4.18579e-70
-3.61422e-73
-2.18119e-76
-8.48096e-80
-1.75741e-83
-1.06469e-87
-1.44285e-105
-2.62681e-126
-1.70464e-131
-2.7796e-135
-6.17752e-91
-6.25271e-81
-7.13442e-82
0
0.0132806
0.658765
0.99981
1
1
1
1
1
1
1
1
1
0.99999
0.327741
0.00010249
2.29213e-20
5.49148e-24
1.22212e-42
-5.329e-31
-7.08139e-33
-6.58923e-35
-4.63673e-37
-2.41701e-39
-9.15028e-42
-2.45441e-44
-4.48312e-47
-5.91853e-50
-3.45499e-52
-7.55859e-54
-1.33742e-55
-1.90816e-57
-1.39329e-60
1.95994e-50
4.49377e-43
4.96692e-36
6.40886e-27
3.91728e-20
1.94113e-13
1.94554e-06
0.0877341
0.853336
1
1
1
1
1
1
1
1
1
0.999223
0.995536
0.994554
0.995445
0.997078
0.998564
0.999585
0.999999
1
1
1
0.999993
0.999296
0.929152
0.416244
0.0238831
4.4176e-18
1.33612e-19
3.21916e-27
1.17931e-27
6.18631e-25
5.66513e-27
-3.91214e-46
-1.17649e-33
-2.3971e-35
3.19608e-36
1.00028e-33
2.64602e-31
5.45534e-29
4.19788e-27
2.26133e-25
6.69169e-24
1.36e-22
1.56257e-21
1.17641e-20
6.41534e-20
3.03175e-19
1.499e-18
7.65978e-18
5.69915e-17
6.16368e-16
1.16445e-14
2.69241e-13
1.18214e-11
1.52616e-09
1.66978e-07
7.82959e-06
0.000106384
0.000509365
0.00162019
0.00574371
0.0314013
0.184809
0.569996
0.907489
1
1
1
0
0
0
0
0
0
-1.99627e-204
1.32333e-35
2.54966e-17
0.399042
0.993942
1
1
1
1
1
1
1
1
1
1
1
1
0.661662
0.00650219
4.33131e-22
1.85195e-24
4.68652e-28
1.65428e-47
-2.6311e-39
-3.38211e-41
-1.14949e-57
1.15508e-44
5.62495e-48
-2.91184e-50
-1.51097e-52
-4.93298e-55
-1.34547e-57
-3.25846e-60
-7.06429e-63
-1.28866e-65
-1.81687e-68
-1.9518e-71
-1.55124e-74
-8.83555e-78
-3.35993e-81
-7.23106e-85
-5.48358e-89
-9.33333e-103
-8.49175e-124
-6.71883e-129
-1.19511e-132
-4.0009e-126
-7.78691e-81
-3.28163e-82
-6.25359e-39
4.15674e-17
0.0322328
0.786957
1
1
1
1
1
1
1
1
1
0.915081
0.0297566
7.71762e-22
-2.80406e-39
7.06142e-25
6.88141e-27
3.67694e-46
-1.76069e-34
-2.24186e-36
-1.68722e-38
-8.69859e-41
-3.5649e-43
-2.17112e-45
-2.85964e-47
-4.0763e-49
-4.89485e-51
-5.04754e-53
-4.62353e-55
-3.80028e-57
-2.93467e-59
3.46983e-56
3.28182e-48
2.89898e-41
2.6973e-34
1.69618e-25
2.79793e-19
5.66846e-13
4.52795e-06
0.130833
0.791547
0.980212
0.995177
1
0.999946
0.874486
0.605252
0.387022
0.250687
0.199695
0.222801
0.28922
0.374917
0.461822
0.541365
0.613125
0.679844
0.739403
0.780701
0.777429
0.695138
0.49029
0.171274
0.0160998
2.17124e-20
-1.46996e-36
1.45076e-23
4.71582e-25
4.74164e-30
4.77194e-30
2.71163e-28
1.96949e-30
1.38045e-49
-5.36944e-37
3.99761e-38
2.26161e-35
4.81579e-33
1.13484e-30
9.93552e-29
3.88601e-27
1.06906e-25
2.05309e-24
2.39255e-23
1.94228e-22
1.13089e-21
5.53498e-21
2.93222e-20
2.228e-19
3.0442e-18
1.61109e-17
3.37179e-16
9.80968e-15
3.7295e-13
2.37194e-11
2.87593e-09
1.38165e-07
1.63021e-06
7.90381e-06
2.85496e-05
8.98744e-05
0.000408638
0.00411089
0.0615602
0.414179
0.872119
1
1
0
0
0
0
0
0
-3.34456e-206
8.49921e-54
-3.35779e-35
1.77855e-15
0.328023
0.946906
0.9997
1
1
1
1
1
1
1
1
0.999999
0.637467
0.0311758
2.79849e-20
-1.63199e-41
7.98905e-44
1.28321e-29
1.58742e-32
7.83237e-52
-1.29394e-42
-1.19296e-44
-6.9073e-47
-5.39912e-49
-2.40104e-51
-7.84128e-54
-2.13257e-56
-5.19182e-59
-1.13737e-61
-2.21904e-64
-3.63686e-67
-4.65351e-70
-4.59955e-73
-3.43249e-76
-1.88501e-79
-7.15735e-83
-1.61943e-86
-1.4863e-90
-3.91928e-100
-2.56809e-121
-2.38826e-126
-4.30658e-130
-5.49286e-125
-8.72687e-112
-1.10967e-96
-4.25606e-81
-7.94823e-36
9.66805e-15
0.128371
0.937968
1
1
1
1
1
1
1
1
0.521253
0.00137242
-2.11827e-23
-1.38234e-25
2.90773e-43
2.58079e-28
1.25205e-30
-1.09888e-49
-8.77853e-37
-2.00427e-38
-2.42693e-40
-2.1337e-42
-1.57026e-44
-1.05215e-46
-6.83765e-49
-4.45836e-51
-2.97974e-53
-2.01491e-55
-1.32929e-57
-8.62128e-60
-5.44266e-62
3.05432e-55
2.21987e-47
1.04242e-40
1.85401e-33
2.24146e-25
4.83126e-19
1.49351e-12
1.51739e-06
0.0305906
0.309348
0.474388
0.404491
0.185134
0.0223772
0.00865495
0.0022852
2.95595e-07
7.64887e-25
2.45301e-34
3.40977e-14
4.07532e-11
1.00618e-08
8.60729e-07
3.37936e-05
0.000580252
0.00388078
0.0108146
0.020748
0.0275991
0.0173323
0.000101827
5.74981e-19
-3.87221e-22
-2.2114e-25
2.77708e-24
2.34604e-25
3.46148e-29
2.17385e-32
2.1861e-32
5.95106e-32
3.05839e-34
-6.13041e-54
6.82895e-40
2.80573e-37
6.87738e-35
1.365e-32
1.31847e-30
4.48096e-29
9.75406e-28
1.5276e-26
2.25411e-25
2.16766e-24
2.2142e-23
1.23533e-22
4.42478e-22
1.06459e-20
3.478e-19
5.86638e-19
1.60237e-17
5.05079e-16
2.13433e-14
1.05845e-12
4.20896e-11
1.56238e-09
2.16484e-08
1.07069e-07
3.13067e-07
1.27891e-06
6.43259e-06
5.53408e-05
0.00123119
0.0355622
0.34472
0.866755
1
0
0
0
0
0
0
-4.11257e-204
1.98034e-62
-4.24589e-80
-2.46854e-76
-4.65932e-73
0.105139
0.542987
0.84868
0.991641
0.999911
1
0.998374
0.957405
0.860425
0.658776
0.277397
0.00291029
1.13643e-19
-7.08561e-39
-9.05336e-28
-1.39768e-30
-3.99959e-48
1.14597e-34
1.27283e-37
4.69009e-58
-3.53948e-46
-3.70305e-48
-2.14482e-50
-8.36191e-53
-2.48485e-55
-6.16488e-58
-1.37007e-60
-2.72568e-63
-4.79637e-66
-7.09516e-69
-8.29919e-72
-7.62968e-75
-5.4262e-78
-2.92409e-81
-1.12594e-84
-2.69127e-88
-2.88437e-92
-1.15315e-97
-7.40896e-119
-8.00896e-124
-1.3439e-127
-7.58296e-124
-1.08423e-110
-9.22105e-96
-4.93956e-80
-6.09994e-79
1.33923e-25
1.6927e-09
0.369194
0.99468
1
1
1
1
1
1
0.966869
0.0998935
-6.05905e-21
-1.06336e-23
-1.77672e-25
-1.10299e-27
9.05892e-47
2.14162e-32
-9.38744e-36
-1.00046e-36
-1.19067e-38
-1.02277e-40
-7.40469e-43
-4.80271e-45
-2.90878e-47
-1.71019e-49
-1.00263e-51
-6.00784e-54
-3.64753e-56
-2.17686e-58
-1.28466e-60
-7.62018e-63
2.96888e-62
3.27352e-54
1.02165e-46
1.62268e-40
5.15686e-34
1.86112e-26
9.10687e-21
7.17244e-16
3.06829e-13
2.2791e-09
9.51142e-06
0.00122505
4.59335e-07
5.97092e-19
1.46261e-22
2.59091e-20
1.90575e-25
2.8381e-40
2.03228e-36
1.94842e-34
-1.67162e-45
-9.46607e-44
-7.42066e-44
4.30357e-24
5.9694e-40
6.63205e-21
1.38809e-19
3.79351e-19
7.42945e-19
5.92174e-19
2.77795e-21
8.70395e-37
-5.50308e-23
-1.32786e-25
-3.27719e-42
1.94106e-26
2.04412e-28
2.67492e-31
5.6907e-39
3.26623e-35
7.52575e-36
2.26964e-38
-8.44509e-59
1.1957e-39
4.65761e-37
6.76759e-35
6.9464e-33
2.72337e-31
5.04113e-30
8.00536e-29
1.10685e-27
1.37191e-26
1.29871e-24
9.38267e-24
9.83622e-24
1.04012e-21
4.06974e-20
3.58772e-20
7.67766e-19
2.19025e-17
4.06784e-16
1.41976e-14
4.61567e-13
9.93669e-12
1.36971e-10
8.13262e-10
2.80671e-09
1.14718e-08
6.81642e-08
6.55642e-07
1.31627e-05
0.000669665
0.0286564
0.332242
0.875038
0
0
0
0
0
0
-1.48755e-219
-1.47228e-82
-8.71548e-78
-6.38905e-74
-1.80828e-70
-2.06177e-67
-1.11672e-64
4.98791e-20
0.0129397
0.0450335
0.0373134
0.00945264
0.000595155
0.00088569
0.00086734
5.76791e-05
4.17748e-25
7.48137e-39
-8.08928e-42
-3.32917e-29
-3.52698e-32
-1.85552e-35
7.15299e-54
7.36704e-40
6.36329e-43
-7.10528e-63
-9.25708e-50
-6.37211e-52
-2.36445e-54
-6.34934e-57
-1.41275e-59
-2.83289e-62
-5.08943e-65
-8.07395e-68
-1.08247e-70
-1.16699e-73
-1.01084e-76
-6.96669e-80
-3.74549e-83
-1.4767e-86
-3.71849e-90
-4.52229e-94
-9.27574e-99
-2.02907e-116
-2.60354e-121
-3.73204e-125
-1.06824e-122
-1.47448e-109
-7.78787e-95
-5.2544e-79
1.75415e-60
-1.92058e-42
-3.10422e-45
0.00219547
0.674496
0.999557
1
1
1
1
1
0.597458
0.00346405
1.94755e-22
-2.68027e-24
-2.47833e-26
-1.45757e-28
-6.36541e-31
-3.44772e-33
-3.24307e-35
-3.19475e-37
-2.75565e-39
-2.05911e-41
-1.36841e-43
-8.32847e-46
-4.77757e-48
-2.65614e-50
-1.45934e-52
-8.11743e-55
-4.54247e-57
-2.49784e-59
-1.35919e-61
-7.42359e-64
-4.01095e-66
7.45118e-63
-7.97718e-51
-6.48464e-44
-8.35437e-40
3.52062e-30
1.27823e-26
4.48922e-26
4.57439e-28
-2.75798e-32
-3.62781e-40
-3.15669e-40
1.45301e-42
-9.44219e-44
2.81791e-42
1.16479e-39
-2.4011e-26
-5.17249e-61
-6.23197e-48
-8.05441e-46
-9.93685e-44
-1.31338e-41
-1.755e-39
-2.13828e-37
-1.57571e-35
-1.61733e-34
4.71017e-43
-7.60221e-41
-1.08753e-39
7.64207e-39
-1.28851e-39
-1.28331e-23
-1.57012e-23
-4.34693e-26
-3.59883e-28
-1.51431e-44
1.75897e-29
2.27894e-31
1.38898e-53
-3.36521e-36
-7.92042e-38
-1.15075e-38
-5.11715e-40
2.51786e-59
7.27197e-40
1.70009e-37
1.10243e-35
1.8442e-33
2.39394e-32
2.24295e-31
2.29038e-30
5.86033e-29
1.37557e-25
9.84037e-25
5.17684e-25
6.21522e-23
2.28048e-21
1.39737e-21
4.40972e-22
1.50161e-21
6.78175e-20
2.22134e-18
4.13423e-16
2.51617e-14
4.00498e-13
2.46444e-12
9.62371e-12
6.79295e-11
3.82254e-10
3.95779e-09
1.00232e-07
4.5802e-06
0.000446787
0.024446
0.334855
0
0
0
0
0
0
-3.49151e-219
-2.27406e-80
-1.45232e-75
-1.23949e-71
-4.27961e-68
-7.00572e-65
-7.30618e-62
-6.64167e-59
2.22109e-30
4.24255e-24
6.84815e-21
6.56551e-21
8.846e-22
2.28897e-21
1.50898e-21
2.8943e-22
-2.431e-43
-5.20708e-40
-6.45722e-43
-4.43275e-31
-3.84843e-34
-3.74121e-37
-3.48981e-40
3.82339e-58
2.0848e-45
7.16673e-49
-4.00961e-51
-1.94548e-53
-5.76331e-56
-1.34239e-58
-2.66778e-61
-4.82638e-64
-7.83076e-67
-1.1232e-69
-1.37466e-72
-1.38219e-75
-1.14672e-78
-7.7951e-82
-4.23395e-85
-1.71322e-88
-4.50818e-92
-6.06575e-96
-2.19336e-100
-5.17364e-114
-8.14277e-119
-9.19891e-123
-1.53935e-121
-2.02821e-108
-6.39167e-94
-5.14432e-78
-2.34584e-63
-1.4453e-41
-5.46537e-38
5.77318e-18
0.0781183
0.88134
1
1
1
1
0.941984
0.107179
1.53761e-17
9.97304e-35
-1.71923e-25
-1.59965e-27
-1.06739e-29
-6.9278e-32
-5.72059e-34
-5.51482e-36
-5.02666e-38
-4.02239e-40
-2.8228e-42
-1.77955e-44
-1.03571e-46
-5.70673e-49
-3.03882e-51
-1.58468e-53
-8.29527e-56
-4.33609e-58
-2.2221e-60
-1.12529e-62
-5.704e-65
-2.85507e-67
-3.55117e-64
-2.57687e-51
-3.13256e-44
-1.23238e-39
-3.58062e-37
-1.4999e-35
-2.9776e-34
-3.25037e-33
-1.73986e-32
-6.18044e-39
-1.65879e-37
-4.66328e-36
-2.0566e-34
-1.79746e-32
-2.96864e-30
-5.88752e-28
-7.18808e-49
-1.12332e-46
-1.81144e-44
-3.24936e-42
-6.09777e-40
-1.06591e-37
-1.59563e-35
-1.84464e-33
-1.50178e-31
-8.36606e-30
-3.11735e-28
-7.03015e-27
-7.70876e-26
-1.54415e-25
-4.43767e-24
-2.96727e-24
-1.05297e-26
-1.69292e-28
-3.75354e-30
7.06038e-48
7.37155e-33
-1.02896e-34
-1.08791e-35
-4.71823e-37
-1.53942e-38
-4.17206e-40
-8.99569e-42
-6.99261e-61
5.14725e-41
5.04412e-39
1.58463e-34
1.16338e-33
1.44131e-33
1.50032e-32
1.60072e-30
7.80395e-27
4.66175e-26
2.08722e-26
1.62862e-27
4.79177e-35
3.22135e-35
1.61505e-33
8.78138e-31
6.59328e-28
5.29557e-25
7.397e-23
2.14392e-21
2.61056e-16
1.72236e-15
5.43599e-15
5.46462e-14
6.21869e-13
8.44303e-12
2.15407e-10
1.55232e-08
1.38356e-06
0.000206715
0.0174268
0
0
0
0
0
0
-5.52342e-219
-2.38887e-78
-1.629e-73
-1.63621e-69
-7.15679e-66
-1.68027e-62
-2.80849e-59
-4.28458e-56
-3.992e-53
-1.05264e-50
5.06678e-54
5.72722e-51
2.63796e-48
7.90028e-46
6.68363e-41
1.47637e-63
-3.22952e-45
-3.80599e-42
-2.34672e-45
-3.32226e-33