/*--------------------------------*- C++ -*----------------------------------*\
| =========                 |                                                 |
| \\      /  F ield         | OpenFOAM: The Open Source CFD Toolbox           |
|  \\    /   O peration     | Version:  v1912                                 |
|   \\  /    A nd           | Website:  www.openfoam.com                      |
|    \\/     M anipulation  |                                                 |
\*---------------------------------------------------------------------------*/
FoamFile
{
    version     2.0;
    format      ascii;
    class       volVectorField;
    location    "70";
    object      U;
}
// * * * * * * * * * * * * * * * * * * * * * * * * * * * * * * * * * * * * * //

dimensions      [0 1 -1 0 0 0 0];


internalField   nonuniform List<vector> 
14268
(
(-0.575731 -0.21727 0)
(-0.51816 -0.195922 0)
(-0.931648 -0.283029 0)
(-0.710963 -0.383455 0)
(-0.677466 -0.333731 0)
(-0.92739 -0.370744 0)
(-0.723532 -0.399268 0)
(-0.393961 -0.373637 0)
(-0.129825 -0.296804 0)
(0.0286878 -0.190628 0)
(-0.399246 -0.1525 0)
(-0.770499 -0.252691 0)
(-0.74262 -0.358907 0)
(-0.429016 -0.396755 0)
(-0.206277 -0.327851 0)
(-0.103846 -0.279728 0)
(-0.230111 -0.265649 0)
(-0.36867 -0.243496 0)
(-0.303197 -0.179991 0)
(-0.628607 -0.177203 0)
(-0.758428 -0.255125 0)
(-0.561007 -0.363134 0)
(-0.137885 -0.331629 0)
(0.496463 -0.239632 0)
(0.265214 -0.0968276 0)
(0.0702156 -0.115442 0)
(-0.140859 -0.12609 0)
(-0.063892 -0.199103 0)
(0.118203 -0.154333 0)
(0.153899 -0.0562009 0)
(-0.264478 -0.0774968 0)
(-0.270049 -0.139694 0)
(-0.393588 -0.171863 0)
(-0.345587 -0.21616 0)
(-0.228391 -0.19775 0)
(-0.216587 -0.181904 0)
(-0.221248 -0.163697 0)
(-0.298646 -0.1037 0)
(-0.536043 -0.14479 0)
(-0.525719 -0.217012 0)
(-0.421719 -0.218882 0)
(-0.333441 -0.244571 0)
(-0.131443 -0.215862 0)
(0.0922066 -0.112741 0)
(0.203548 -0.00908662 0)
(-0.320678 -0.0585396 0)
(-0.242791 -0.0980726 0)
(-0.276132 -0.100372 0)
(-0.43913 -0.110319 0)
(-0.514013 -0.114779 0)
(-0.526605 -0.103002 0)
(-0.486675 -0.107945 0)
(-0.365585 -0.119561 0)
(-0.2608 -0.145584 0)
(-0.219943 -0.14636 0)
(-0.286717 -0.128918 0)
(-0.241476 -0.0933931 0)
(-0.191953 -0.0828214 0)
(-0.157254 -0.0980807 0)
(-0.300973 -0.11782 0)
(-0.0861079 -0.118498 0)
(-0.154308 -0.0519552 0)
(-0.383423 -0.109233 0)
(-0.230124 -0.142143 0)
(-0.140464 -0.133176 0)
(0.0159549 -0.0963256 0)
(0.133405 -0.0622813 0)
(0.103127 -0.0459796 0)
(0.0764581 -0.0449403 0)
(0.0437717 -0.0359278 0)
(0.0492429 -0.0305585 0)
(0.0612643 -0.0276624 0)
(0.102801 -0.019573 0)
(0.105383 -0.00664091 0)
(0.0271259 -0.00752831 0)
(-0.0840239 -0.0368122 0)
(-0.174877 -0.0794127 0)
(-0.317207 -0.147342 0)
(-0.30232 -0.172215 0)
(-0.14836 -0.144776 0)
(-0.197943 -0.0825043 0)
(-0.544631 -0.0726621 0)
(-0.615992 -0.0996067 0)
(-0.418381 -0.132704 0)
(-0.172459 -0.104364 0)
(-0.172919 -0.113361 0)
(-0.208206 -0.102182 0)
(-0.20588 -0.119006 0)
(-0.245186 -0.13504 0)
(-0.172757 -0.127256 0)
(-0.217836 -0.0795622 0)
(-0.395274 -0.0898536 0)
(-0.459879 -0.0875758 0)
(-0.350606 -0.0599331 0)
(-0.245706 -0.0374543 0)
(-0.242211 -0.0347958 0)
(-0.199496 -0.0564137 0)
(-0.157669 -0.068477 0)
(-0.086591 -0.0530684 0)
(-0.158084 -0.0577652 0)
(-0.20287 -0.0375864 0)
(-0.279969 -0.0418531 0)
(-0.246037 -0.0457448 0)
(-0.348826 -0.0556553 0)
(-0.641831 0.0627915 0)
(-0.76043 0.0515254 0)
(-1.03217 0.0652785 0)
(-0.855081 0.175522 0)
(-0.759456 0.173895 0)
(-0.971235 0.137932 0)
(-0.761711 0.178752 0)
(-0.484144 0.216372 0)
(-0.338643 0.194397 0)
(-0.382819 0.145129 0)
(-0.572467 0.0727193 0)
(-0.68773 0.105374 0)
(-0.734212 0.153908 0)
(-0.560698 0.218689 0)
(-0.397523 0.196837 0)
(-0.340322 0.19545 0)
(-0.434547 0.187251 0)
(-0.509757 0.131945 0)
(-0.438867 0.105942 0)
(-0.594824 0.0649069 0)
(-0.687172 0.0947785 0)
(-0.507478 0.191132 0)
(-0.124396 0.211488 0)
(0.356214 0.274707 0)
(-0.116805 0.121445 0)
(-0.0373603 0.120486 0)
(-0.133134 0.0926411 0)
(-0.0643172 0.154668 0)
(0.0148722 0.143732 0)
(-0.0786716 0.0716725 0)
(-0.251599 0.0351938 0)
(-0.246915 0.0845369 0)
(-0.359296 0.0899695 0)
(-0.335649 0.122424 0)
(-0.250327 0.126804 0)
(-0.261022 0.120901 0)
(-0.311058 0.106293 0)
(-0.393665 0.0396254 0)
(-0.518499 0.0413211 0)
(-0.498198 0.0911983 0)
(-0.437114 0.105721 0)
(-0.380167 0.135594 0)
(-0.217543 0.134404 0)
(-0.0572154 0.0875421 0)
(0.0686324 0.0491798 0)
(-0.30084 0.00862756 0)
(-0.20959 0.0420715 0)
(-0.305325 0.0424132 0)
(-0.436837 0.0254832 0)
(-0.502665 0.00991054 0)
(-0.494368 -0.00502122 0)
(-0.445745 0.00164386 0)
(-0.336191 0.0311003 0)
(-0.25987 0.0755592 0)
(-0.275974 0.0851719 0)
(-0.337557 0.0581906 0)
(-0.228624 0.0358734 0)
(-0.166391 0.0365893 0)
(-0.159346 0.0641127 0)
(-0.272343 0.0510431 0)
(-0.101987 0.0820837 0)
(-0.13044 0.0306526 0)
(-0.299882 0.0400205 0)
(-0.185209 0.077392 0)
(-0.1457 0.0817589 0)
(0.0174428 0.078648 0)
(0.154845 0.0822543 0)
(0.169273 0.073149 0)
(0.154738 0.0675509 0)
(0.148748 0.0547307 0)
(0.159554 0.0493066 0)
(0.159557 0.045917 0)
(0.170974 0.0439278 0)
(0.18794 0.0403054 0)
(0.156245 0.0311852 0)
(-0.00928807 0.0311445 0)
(-0.122055 0.0523945 0)
(-0.298316 0.083953 0)
(-0.30684 0.0919411 0)
(-0.19497 0.0922108 0)
(-0.210462 0.0541868 0)
(-0.493864 -0.0189265 0)
(-0.589166 -0.0269175 0)
(-0.416694 0.0195216 0)
(-0.177622 0.0473948 0)
(-0.194385 0.071115 0)
(-0.213168 0.0519784 0)
(-0.229543 0.0688679 0)
(-0.278482 0.0711002 0)
(-0.223146 0.0766067 0)
(-0.232213 0.0379384 0)
(-0.364854 0.0177256 0)
(-0.41749 -0.00429903 0)
(-0.287925 -0.0171856 0)
(-0.149537 -0.00728768 0)
(-0.118401 -0.00178958 0)
(-0.113625 0.0189456 0)
(-0.111935 0.0332845 0)
(-0.00189548 0.0414667 0)
(-0.0745926 0.036249 0)
(-0.0478209 0.020163 0)
(-0.107513 0.00682267 0)
(-0.112852 0.0121313 0)
(-0.307647 -0.00823619 0)
(-0.544778 -0.193197 0)
(-0.788253 -0.185296 0)
(-1.00372 -0.259503 0)
(-0.756126 -0.356474 0)
(-0.675956 -0.272977 0)
(-0.920199 -0.274181 0)
(-0.72327 -0.313816 0)
(-0.443176 -0.303911 0)
(-0.189465 -0.226773 0)
(-0.0527265 -0.151456 0)
(-0.408961 -0.11361 0)
(-0.740526 -0.205135 0)
(-0.758261 -0.289693 0)
(-0.450736 -0.311224 0)
(-0.242218 -0.236724 0)
(-0.183892 -0.228189 0)
(-0.293887 -0.22039 0)
(-0.379348 -0.206915 0)
(-0.308216 -0.152832 0)
(-0.616157 -0.146465 0)
(-0.753279 -0.224138 0)
(-0.521408 -0.302948 0)
(-0.113913 -0.261766 0)
(0.473674 -0.177314 0)
(0.172572 -0.0648578 0)
(0.0448904 -0.0934491 0)
(-0.145319 -0.101319 0)
(-0.0772445 -0.167353 0)
(0.125682 -0.12672 0)
(0.0715493 -0.0326178 0)
(-0.266653 -0.0571567 0)
(-0.283439 -0.12042 0)
(-0.384005 -0.145974 0)
(-0.326583 -0.187348 0)
(-0.224206 -0.171487 0)
(-0.221498 -0.154974 0)
(-0.226636 -0.143511 0)
(-0.326349 -0.0831203 0)
(-0.533356 -0.12087 0)
(-0.535518 -0.194128 0)
(-0.425164 -0.185154 0)
(-0.324324 -0.206873 0)
(-0.154139 -0.177161 0)
(0.0340211 -0.0995006 0)
(0.0778092 -0.000275445 0)
(-0.308996 -0.0351851 0)
(-0.260247 -0.0870281 0)
(-0.32376 -0.0831512 0)
(-0.479867 -0.0912506 0)
(-0.549201 -0.104575 0)
(-0.532939 -0.0938685 0)
(-0.453696 -0.0962137 0)
(-0.321799 -0.104285 0)
(-0.236827 -0.127349 0)
(-0.214203 -0.124379 0)
(-0.294596 -0.116976 0)
(-0.24494 -0.0856982 0)
(-0.161979 -0.0698322 0)
(-0.110516 -0.0791518 0)
(-0.25565 -0.104015 0)
(-0.0739122 -0.10455 0)
(-0.10178 -0.0291812 0)
(-0.307132 -0.0879856 0)
(-0.197233 -0.122204 0)
(-0.132062 -0.115079 0)
(0.0322122 -0.0863554 0)
(0.156708 -0.0563787 0)
(0.14275 -0.0358774 0)
(0.11172 -0.036883 0)
(0.0952467 -0.030028 0)
(0.102509 -0.0246851 0)
(0.110119 -0.0221246 0)
(0.132915 -0.0177832 0)
(0.15436 0.000145203 0)
(0.178371 0.0210889 0)
(-0.0123006 -0.00590162 0)
(-0.153545 -0.0523034 0)
(-0.302929 -0.120638 0)
(-0.277816 -0.153719 0)
(-0.149692 -0.129398 0)
(-0.144337 -0.0509549 0)
(-0.423956 -0.0395528 0)
(-0.549759 -0.0885299 0)
(-0.408773 -0.124383 0)
(-0.174641 -0.0950774 0)
(-0.18464 -0.0973885 0)
(-0.196065 -0.0869983 0)
(-0.208671 -0.103862 0)
(-0.253538 -0.118996 0)
(-0.170753 -0.115436 0)
(-0.191183 -0.0642535 0)
(-0.363744 -0.0773731 0)
(-0.439274 -0.085038 0)
(-0.356662 -0.062615 0)
(-0.224418 -0.0386635 0)
(-0.167977 -0.0304669 0)
(-0.149423 -0.0473795 0)
(-0.136248 -0.0630702 0)
(-0.0543655 -0.0461541 0)
(-0.113255 -0.050649 0)
(-0.0964118 -0.0306039 0)
(-0.202995 -0.0351619 0)
(-0.162358 -0.0259064 0)
(-0.272205 -0.0358936 0)
(-0.602606 0.0283694 0)
(-0.76863 0.0921499 0)
(-1.05742 0.0763473 0)
(-0.917968 0.142127 0)
(-0.793056 0.125151 0)
(-0.902505 0.0612908 0)
(-0.748173 0.0415225 0)
(-0.558288 0.0788441 0)
(-0.377659 0.107232 0)
(-0.372223 0.118799 0)
(-0.551343 0.0784369 0)
(-0.667557 0.0863713 0)
(-0.682524 0.0817863 0)
(-0.507657 0.108851 0)
(-0.350134 0.111578 0)
(-0.304045 0.163769 0)
(-0.428175 0.156379 0)
(-0.534839 0.101021 0)
(-0.445136 0.0860875 0)
(-0.600806 0.0560034 0)
(-0.685644 0.0577052 0)
(-0.450887 0.0896138 0)
(-0.142471 0.0559311 0)
(0.305002 0.192535 0)
(-0.104799 0.116608 0)
(-0.0160782 0.108705 0)
(-0.149548 0.0769582 0)
(-0.0803355 0.100858 0)
(0.0166112 0.109411 0)
(-0.0613177 0.0633736 0)
(-0.26428 0.0338257 0)
(-0.25613 0.0705214 0)
(-0.362623 0.0720819 0)
(-0.337078 0.0859777 0)
(-0.267015 0.0939184 0)
(-0.276241 0.0981128 0)
(-0.326153 0.0923169 0)
(-0.400089 0.0345457 0)
(-0.528241 0.0337742 0)
(-0.499868 0.0637998 0)
(-0.422385 0.0670825 0)
(-0.359705 0.0826814 0)
(-0.219359 0.0660078 0)
(-0.0477951 0.0462303 0)
(0.0409658 0.0496032 0)
(-0.298458 0.0151567 0)
(-0.212537 0.039457 0)
(-0.330652 0.0449033 0)
(-0.451979 0.0318274 0)
(-0.491796 0.0039226 0)
(-0.452723 -0.0138723 0)
(-0.425264 -0.0192956 0)
(-0.305518 0.0105595 0)
(-0.240097 0.0605616 0)
(-0.270573 0.0726815 0)
(-0.353867 0.0486756 0)
(-0.191689 0.0205664 0)
(-0.105519 0.0261104 0)
(-0.165474 0.0655966 0)
(-0.266318 0.0451857 0)
(-0.104672 0.0586613 0)
(-0.11961 0.0299912 0)
(-0.29283 0.0341351 0)
(-0.192402 0.0471808 0)
(-0.130527 0.0462795 0)
(0.0251857 0.0426187 0)
(0.166917 0.0638248 0)
(0.187113 0.0691045 0)
(0.160122 0.0643452 0)
(0.145197 0.052162 0)
(0.15539 0.0460757 0)
(0.156733 0.0416137 0)
(0.161036 0.0388192 0)
(0.135881 0.0289602 0)
(0.156231 0.0383529 0)
(0.0131133 0.0362688 0)
(-0.123463 0.0471926 0)
(-0.283815 0.0717941 0)
(-0.291401 0.0706767 0)
(-0.188154 0.0698232 0)
(-0.141778 0.0550984 0)
(-0.34148 0.0104541 0)
(-0.483869 -0.021161 0)
(-0.353485 -0.0135796 0)
(-0.171692 0.0231171 0)
(-0.173165 0.0625316 0)
(-0.208071 0.041556 0)
(-0.259035 0.0603584 0)
(-0.311569 0.0579097 0)
(-0.245835 0.0634567 0)
(-0.239964 0.0389288 0)
(-0.404131 0.02087 0)
(-0.48277 -0.00789064 0)
(-0.325957 -0.0342877 0)
(-0.20032 -0.0243245 0)
(-0.141256 -0.00833442 0)
(-0.123873 0.011143 0)
(-0.126947 0.0184124 0)
(-0.031089 0.0330682 0)
(-0.0780918 0.0363747 0)
(-0.0578331 0.0228259 0)
(-0.159879 0.00538002 0)
(-0.137488 0.00421002 0)
(-0.194096 0.00472307 0)
(-0.690631 -0.168508 0)
(-0.738845 -0.140421 0)
(-1.02365 -0.236342 0)
(-0.750201 -0.318108 0)
(-0.674618 -0.225176 0)
(-0.809141 -0.234265 0)
(-0.710557 -0.247106 0)
(-0.482722 -0.236667 0)
(-0.307587 -0.237953 0)
(-0.282988 -0.125743 0)
(-0.45685 -0.0735779 0)
(-0.701571 -0.164075 0)
(-0.765976 -0.236878 0)
(-0.483324 -0.228894 0)
(-0.293595 -0.179548 0)
(-0.20476 -0.182131 0)
(-0.307694 -0.163578 0)
(-0.376572 -0.173911 0)
(-0.306093 -0.119916 0)
(-0.55719 -0.107379 0)
(-0.695965 -0.194946 0)
(-0.410585 -0.271929 0)
(-0.145812 -0.185143 0)
(0.422895 -0.127414 0)
(0.0681062 -0.036923 0)
(-0.000551664 -0.0669276 0)
(-0.13527 -0.0747254 0)
(-0.0509529 -0.126437 0)
(0.106633 -0.102328 0)
(-0.0251704 0.000225014 0)
(-0.271772 -0.0377027 0)
(-0.280946 -0.097009 0)
(-0.382999 -0.121922 0)
(-0.334631 -0.159577 0)
(-0.238788 -0.149388 0)
(-0.23419 -0.138075 0)
(-0.228023 -0.122299 0)
(-0.328431 -0.0623031 0)
(-0.512251 -0.0964208 0)
(-0.510014 -0.173675 0)
(-0.410744 -0.15718 0)
(-0.31738 -0.168572 0)
(-0.175708 -0.137641 0)
(-0.0426781 -0.0893328 0)
(0.0462913 0.018763 0)
(-0.299223 -0.0220999 0)
(-0.141856 -0.0708711 0)
(-0.301907 -0.0628329 0)
(-0.383949 -0.0704604 0)
(-0.399822 -0.0829747 0)
(-0.444956 -0.0833782 0)
(-0.449437 -0.0998434 0)
(-0.32127 -0.099493 0)
(-0.225072 -0.110532 0)
(-0.220027 -0.101732 0)
(-0.286492 -0.107982 0)
(-0.0384816 -0.0633555 0)
(-0.0267545 -0.0489622 0)
(-0.106231 -0.0649164 0)
(-0.209201 -0.0924306 0)
(-0.0740844 -0.0888015 0)
(-0.0971294 -0.00938755 0)
(-0.292584 -0.0680898 0)
(-0.186373 -0.102474 0)
(-0.139783 -0.0957086 0)
(0.0321164 -0.0697011 0)
(0.162094 -0.0467032 0)
(0.136496 -0.0267419 0)
(0.0826344 -0.0283622 0)
(0.071398 -0.023503 0)
(0.0892387 -0.0183469 0)
(0.108451 -0.0146599 0)
(0.146324 -0.00902965 0)
(0.161071 0.00394664 0)
(0.156185 0.0166985 0)
(0.0516649 0.0218117 0)
(-0.143141 -0.0210678 0)
(-0.303471 -0.092101 0)
(-0.27309 -0.13371 0)
(-0.132773 -0.109987 0)
(-0.0966398 -0.0326782 0)
(-0.275689 -0.00446496 0)
(-0.366516 -0.064892 0)
(-0.230658 -0.0994011 0)
(-0.149527 -0.0848418 0)
(-0.186002 -0.0832549 0)
(-0.19606 -0.0740962 0)
(-0.22152 -0.0883064 0)
(-0.241564 -0.106176 0)
(-0.162493 -0.105326 0)
(-0.197928 -0.0389058 0)
(-0.365855 -0.0479082 0)
(-0.366863 -0.079648 0)
(-0.302868 -0.0731226 0)
(-0.202305 -0.0465395 0)
(-0.146058 -0.0286683 0)
(-0.125671 -0.0394123 0)
(-0.123501 -0.055107 0)
(-0.0520622 -0.043018 0)
(-0.100859 -0.0411171 0)
(-0.0681851 -0.0207703 0)
(-0.165416 -0.025029 0)
(-0.140782 -0.0209697 0)
(-0.126509 -0.011798 0)
(-0.731929 -0.0586931 0)
(-0.665219 0.0600059 0)
(-0.944123 0.0507807 0)
(-0.726557 0.0391066 0)
(-0.730909 0.108376 0)
(-0.901127 0.0737011 0)
(-0.737337 0.043261 0)
(-0.478475 0.0691256 0)
(-0.350429 0.142077 0)
(-0.268195 0.0969846 0)
(-0.553309 0.0537348 0)
(-0.696199 0.0779989 0)
(-0.646587 0.0410389 0)
(-0.560558 -0.0049244 0)
(-0.41437 0.0502055 0)
(-0.338595 0.104341 0)
(-0.437629 0.124468 0)
(-0.506128 0.0729844 0)
(-0.429453 0.0764519 0)
(-0.561976 0.0486534 0)
(-0.622403 0.0321189 0)
(-0.449761 0.0428417 0)
(-0.150641 -0.0498927 0)
(0.344314 0.14571 0)
(-0.0467472 0.111046 0)
(-0.0382844 0.0761257 0)
(-0.13245 0.052181 0)
(-0.00767179 0.049589 0)
(0.0224628 0.0855493 0)
(-0.0766256 0.0454933 0)
(-0.280614 0.0417789 0)
(-0.285133 0.0527561 0)
(-0.385 0.0534539 0)
(-0.322719 0.0548135 0)
(-0.250069 0.0724433 0)
(-0.293658 0.0869762 0)
(-0.336159 0.0776189 0)
(-0.39943 0.0304322 0)
(-0.507001 0.0196458 0)
(-0.497804 0.0334796 0)
(-0.401831 0.0259643 0)
(-0.318068 0.0302415 0)
(-0.220329 -4.32072e-05 0)
(-0.104306 0.00188443 0)
(0.0125249 0.0396589 0)
(-0.292663 0.0173164 0)
(-0.0902322 0.0418791 0)
(-0.262153 0.0429605 0)
(-0.338767 0.0322179 0)
(-0.39913 0.00643784 0)
(-0.446691 -0.0159922 0)
(-0.418159 -0.0274142 0)
(-0.316251 -0.0192629 0)
(-0.241305 0.0381958 0)
(-0.247797 0.0620048 0)
(-0.246598 0.0389701 0)
(-0.0173394 0.010858 0)
(-0.0482367 0.0240808 0)
(-0.0741773 0.0626997 0)
(-0.178315 0.0376679 0)
(-0.102136 0.0276724 0)
(-0.110094 0.0284458 0)
(-0.267776 0.0230459 0)
(-0.181897 0.0137321 0)
(-0.140682 0.0206106 0)
(0.0447091 0.0164517 0)
(0.16016 0.0587569 0)
(0.173078 0.0718108 0)
(0.203626 0.0687007 0)
(0.208772 0.0527351 0)
(0.17257 0.0407349 0)
(0.1481 0.0352028 0)
(0.151586 0.0349258 0)
(0.16198 0.0306056 0)
(0.163351 0.0415282 0)
(0.0903761 0.0533362 0)
(-0.12405 0.0433671 0)
(-0.300327 0.0558527 0)
(-0.232409 0.0455645 0)
(-0.133928 0.0421635 0)
(-0.10766 0.0649754 0)
(-0.192809 0.0182864 0)
(-0.124886 0.0105563 0)
(-0.117395 -0.0178255 0)
(-0.14019 0.00633683 0)
(-0.177914 0.0564754 0)
(-0.190121 0.035802 0)
(-0.238924 0.046617 0)
(-0.296538 0.0385282 0)
(-0.252734 0.0411948 0)
(-0.235371 0.0291511 0)
(-0.319011 0.0174818 0)
(-0.341455 -0.00654207 0)
(-0.334902 -0.0443297 0)
(-0.21715 -0.0300932 0)
(-0.142436 -0.015019 0)
(-0.115954 0.00483651 0)
(-0.124352 0.00696946 0)
(-0.0442228 0.0244748 0)
(-0.0947661 0.0272952 0)
(-0.0717943 0.0263258 0)
(-0.148703 0.00721836 0)
(-0.143994 0.0028684 0)
(-0.133367 0.0066151 0)
(-0.65415 -0.170929 0)
(-0.735566 -0.0734287 0)
(-0.876286 -0.195443 0)
(-0.749819 -0.244809 0)
(-0.71265 -0.200079 0)
(-0.892465 -0.217058 0)
(-0.700639 -0.253173 0)
(-0.40038 -0.218392 0)
(-0.247733 -0.227074 0)
(-0.232266 -0.117427 0)
(-0.559735 -0.0375912 0)
(-0.553533 -0.112357 0)
(-0.63904 -0.254703 0)
(-0.557501 -0.244758 0)
(-0.465876 -0.213455 0)
(-0.432415 -0.148121 0)
(-0.344488 -0.143836 0)
(-0.469166 -0.163974 0)
(-0.402793 -0.108378 0)
(-0.560296 -0.0645128 0)
(-0.581659 -0.163352 0)
(-0.438267 -0.243228 0)
(-0.101265 -0.180826 0)
(0.401248 -0.095349 0)
(-0.0199513 -0.00160482 0)
(0.00663416 -0.0205384 0)
(-0.132497 -0.057595 0)
(-0.0335484 -0.0976944 0)
(0.114556 -0.0787257 0)
(-0.0723986 0.0267185 0)
(-0.284395 -0.0298186 0)
(-0.318391 -0.0770221 0)
(-0.396492 -0.0988472 0)
(-0.349311 -0.140296 0)
(-0.262199 -0.132254 0)
(-0.242958 -0.11665 0)
(-0.235957 -0.0909237 0)
(-0.320019 -0.0323849 0)
(-0.481666 -0.0713671 0)
(-0.475559 -0.152413 0)
(-0.396359 -0.134093 0)
(-0.295886 -0.141211 0)
(-0.226614 -0.111531 0)
(-0.0767647 -0.0732964 0)
(0.0253714 0.042915 0)
(-0.287523 -0.00228777 0)
(-0.0995342 -0.0601041 0)
(-0.2254 -0.0318858 0)
(-0.314562 -0.0495588 0)
(-0.394179 -0.0675793 0)
(-0.436023 -0.0736657 0)
(-0.394766 -0.0873426 0)
(-0.31147 -0.0885978 0)
(-0.259088 -0.104077 0)
(-0.218211 -0.0868339 0)
(-0.0925257 -0.085497 0)
(-0.00407148 -0.0516645 0)
(-0.043696 -0.0374439 0)
(-0.0790526 -0.0415227 0)
(-0.157473 -0.072994 0)
(-0.071586 -0.0707078 0)
(-0.0953447 0.00624044 0)
(-0.244752 -0.0469165 0)
(-0.168208 -0.0852286 0)
(-0.13327 -0.100402 0)
(0.0188447 -0.0848717 0)
(0.159268 -0.0538371 0)
(0.236428 -0.0182107 0)
(0.303966 -0.0110933 0)
(0.241161 -0.00724632 0)
(0.152692 -0.0112646 0)
(0.132076 -0.0155815 0)
(0.143538 -0.0134656 0)
(0.141633 0.00326265 0)
(0.173785 0.028804 0)
(0.132962 0.0410904 0)
(-0.130393 0.0121456 0)
(-0.295271 -0.0698023 0)
(-0.0748087 -0.100627 0)
(-0.0939577 -0.0944429 0)
(-0.108936 -0.0133389 0)
(-0.135055 0.0153057 0)
(0.0303714 -0.0227383 0)
(-0.0510532 -0.0669022 0)
(-0.1281 -0.0657245 0)
(-0.188203 -0.0705951 0)
(-0.188845 -0.0596015 0)
(-0.213284 -0.0678914 0)
(-0.274769 -0.0934882 0)
(-0.221021 -0.0956997 0)
(-0.222871 -0.0346712 0)
(-0.293706 -0.0266496 0)
(-0.347727 -0.0678745 0)
(-0.326041 -0.072127 0)
(-0.201771 -0.0523035 0)
(-0.122414 -0.0295275 0)
(-0.111166 -0.0326555 0)
(-0.109585 -0.0465549 0)
(-0.0404374 -0.0362756 0)
(-0.0858804 -0.0366973 0)
(-0.0761232 -0.0177457 0)
(-0.13568 -0.016742 0)
(-0.135821 -0.0186662 0)
(-0.140671 -0.00532298 0)
(-0.673484 -0.0456953 0)
(-0.711603 -0.013756 0)
(-0.842593 0.0411873 0)
(-0.755186 -0.000989854 0)
(-0.751965 0.08595 0)
(-0.971107 0.0201835 0)
(-0.754482 -0.0612535 0)
(-0.51508 -0.0763003 0)
(-0.275639 0.0847772 0)
(-0.312011 0.136896 0)
(-0.475995 0.0585105 0)
(-0.556969 0.0225103 0)
(-0.687466 0.0453505 0)
(-0.569797 0.00934722 0)
(-0.449281 0.0249639 0)
(-0.444629 0.0476365 0)
(-0.491278 0.107752 0)
(-0.523894 0.0616177 0)
(-0.433186 0.0599661 0)
(-0.547411 0.0400915 0)
(-0.587271 0.00530401 0)
(-0.423658 -0.0217476 0)
(-0.0758362 -0.10199 0)
(0.360953 0.0853611 0)
(-0.14418 0.0900242 0)
(-0.0212993 0.0585992 0)
(-0.150924 0.064603 0)
(-0.0893177 0.0300511 0)
(0.14596 0.0766117 0)
(-0.0659493 0.0725678 0)
(-0.29288 0.0250804 0)
(-0.355498 0.0258889 0)
(-0.412363 0.0259202 0)
(-0.329689 0.0206986 0)
(-0.24751 0.040641 0)
(-0.275088 0.0624554 0)
(-0.291522 0.0551211 0)
(-0.37203 0.0288434 0)
(-0.48978 0.0129089 0)
(-0.490004 0.0137936 0)
(-0.401062 0.00650192 0)
(-0.324694 0.00779566 0)
(-0.259382 -0.0144924 0)
(-0.0586328 -0.00914387 0)
(0.0409645 0.0591165 0)
(-0.273181 0.0178014 0)
(-0.100763 0.0314681 0)
(-0.248737 0.038195 0)
(-0.370051 0.0284545 0)
(-0.466131 0.0013125 0)
(-0.450515 -0.0218411 0)
(-0.365709 -0.0357606 0)
(-0.264008 -0.0318513 0)
(-0.244593 0.0180963 0)
(-0.149948 0.0509471 0)
(-0.0185642 0.0380308 0)
(-0.0539338 -0.00510188 0)
(-0.0510024 0.0199558 0)
(-0.0513561 0.0584353 0)
(-0.138873 0.0310104 0)
(-0.0831327 0.0122278 0)
(-0.0949692 0.0277345 0)
(-0.225262 0.0193976 0)
(-0.155208 -0.00322381 0)
(-0.118823 -0.00159857 0)
(0.0232206 -0.0101009 0)
(0.15352 0.0316719 0)
(0.233079 0.0632115 0)
(0.289359 0.0723286 0)
(0.231162 0.0588191 0)
(0.170751 0.0447052 0)
(0.159451 0.036376 0)
(0.151854 0.032466 0)
(0.136406 0.0245484 0)
(0.153865 0.040007 0)
(0.157512 0.0655249 0)
(-0.10472 0.0507707 0)
(-0.304187 0.0357162 0)
(-0.0170131 0.0320312 0)
(-0.132941 0.024717 0)
(-0.0725842 0.062887 0)
(-0.125784 0.0179591 0)
(-0.00249729 0.0108964 0)
(-0.0631516 -0.0192336 0)
(-0.100873 0.00257119 0)
(-0.179882 0.0457676 0)
(-0.182663 0.0249392 0)
(-0.215565 0.0382584 0)
(-0.294693 0.0289977 0)
(-0.260278 0.0232093 0)
(-0.248875 0.0236006 0)
(-0.305536 0.0118446 0)
(-0.365279 -0.0125907 0)
(-0.331094 -0.055437 0)
(-0.217471 -0.0397922 0)
(-0.133728 -0.0147318 0)
(-0.106491 0.00126973 0)
(-0.0934023 -0.0037387 0)
(-0.0324894 0.0192752 0)
(-0.0988128 0.0247903 0)
(-0.0935684 0.0208199 0)
(-0.13675 0.00984732 0)
(-0.136375 0.00226254 0)
(-0.138783 0.00957977 0)
(-0.649504 -0.159802 0)
(-0.644525 0.00487304 0)
(-0.874923 -0.167377 0)
(-0.710308 -0.223884 0)
(-0.762644 -0.177668 0)
(-0.909372 -0.18566 0)
(-0.754163 -0.219475 0)
(-0.613497 -0.148992 0)
(-0.285602 -0.202586 0)
(-0.288563 -0.102616 0)
(-0.416507 -0.0192295 0)
(-0.616889 -0.0341853 0)
(-0.666834 -0.17978 0)
(-0.401138 -0.15862 0)
(-0.371559 -0.1416 0)
(-0.339179 -0.136643 0)
(-0.633252 -0.154293 0)
(-0.493728 -0.160122 0)
(-0.417543 -0.0999607 0)
(-0.564979 -0.0399689 0)
(-0.632825 -0.131911 0)
(-0.356162 -0.214345 0)
(-0.0442344 -0.180869 0)
(0.334366 -0.0388907 0)
(-0.171582 0.0254721 0)
(-0.0388351 -0.0111988 0)
(-0.142212 -0.0590037 0)
(-0.110072 -0.103327 0)
(0.146774 -0.0607598 0)
(-0.0630712 0.045057 0)
(-0.285785 0.0218596 0)
(-0.325802 -0.0452886 0)
(-0.400556 -0.0839003 0)
(-0.289566 -0.124694 0)
(-0.255754 -0.11451 0)
(-0.277151 -0.101598 0)
(-0.262073 -0.0724862 0)
(-0.362754 -0.0191472 0)
(-0.495339 -0.0399416 0)
(-0.488841 -0.133576 0)
(-0.390159 -0.123767 0)
(-0.332298 -0.129948 0)
(-0.216173 -0.12913 0)
(-0.0903026 -0.0947502 0)
(0.0544362 0.0395686 0)
(-0.272871 0.0112358 0)
(-0.107701 -0.0533525 0)
(-0.253593 -0.00580202 0)
(-0.379204 -0.0303131 0)
(-0.434207 -0.0654019 0)
(-0.433826 -0.0720209 0)
(-0.331961 -0.0800035 0)
(-0.229748 -0.0798505 0)
(-0.198121 -0.0866404 0)
(-0.128922 -0.0794786 0)
(0.0114536 -0.0635741 0)
(-0.0473206 -0.0448112 0)
(-0.0450818 -0.031712 0)
(-0.0295823 -0.0223696 0)
(-0.0861507 -0.0552826 0)
(-0.0698872 -0.0586916 0)
(-0.0917487 0.0233527 0)
(-0.20669 -0.0287385 0)
(-0.133957 -0.0724973 0)
(-0.112011 -0.0842781 0)
(0.0265141 -0.0715208 0)
(0.177053 -0.0480843 0)
(0.21497 -0.0191019 0)
(0.246995 -0.00780957 0)
(0.189829 0.0024389 0)
(0.153063 -0.0017938 0)
(0.164589 -0.00612705 0)
(0.175477 -0.00435143 0)
(0.158552 0.00505737 0)
(0.15127 0.0265368 0)
(0.190616 0.0647775 0)
(-0.110922 0.0326037 0)
(-0.311242 -0.0523369 0)
(0.0402472 -0.0696183 0)
(-0.111236 -0.0765453 0)
(0.0436858 -0.00468647 0)
(-0.114057 0.0214162 0)
(-0.00317367 -0.0214582 0)
(-0.0665003 -0.0518857 0)
(-0.13859 -0.0557235 0)
(-0.187293 -0.0496309 0)
(-0.156899 -0.0461134 0)
(-0.223151 -0.0492503 0)
(-0.285828 -0.0830736 0)
(-0.242643 -0.0855349 0)
(-0.249106 -0.0235198 0)
(-0.315446 -0.0148362 0)
(-0.359555 -0.0635418 0)
(-0.329681 -0.0745222 0)
(-0.227532 -0.0598792 0)
(-0.148908 -0.0330924 0)
(-0.0942538 -0.0272213 0)
(-0.0684838 -0.0374535 0)
(-0.0218702 -0.0293086 0)
(-0.111353 -0.0300705 0)
(-0.0849309 -0.0106108 0)
(-0.125297 -0.0132014 0)
(-0.126426 -0.0167443 0)
(-0.137628 0.00327197 0)
(-0.784602 -0.0655985 0)
(-0.528922 0.0296496 0)
(-0.778156 0.0438796 0)
(-0.731038 -0.0549337 0)
(-0.839547 0.0799023 0)
(-0.849576 -0.000217201 0)
(-0.794152 -0.15289 0)
(-0.682629 -0.174303 0)
(-0.433688 0.0174981 0)
(-0.31369 0.125878 0)
(-0.464396 0.0875914 0)
(-0.703725 0.0118707 0)
(-0.675648 -0.0512831 0)
(-0.469775 -0.0833724 0)
(-0.416496 -0.0140385 0)
(-0.417022 0.0659846 0)
(-0.561841 0.111187 0)
(-0.581761 0.036876 0)
(-0.523803 0.0430323 0)
(-0.605792 0.0091679 0)
(-0.599945 -0.0551896 0)
(-0.392652 -0.114362 0)
(-0.0518327 -0.162618 0)
(0.305314 0.0611049 0)
(-0.175063 0.0763371 0)
(-0.0332999 0.0449376 0)
(-0.146308 0.0443495 0)
(-0.134939 -0.0153235 0)
(0.0848765 0.0698811 0)
(-0.0498706 0.0721841 0)
(-0.292256 0.0232818 0)
(-0.308419 0.030028 0)
(-0.392508 0.0270451 0)
(-0.27991 0.00646128 0)
(-0.256383 0.0248779 0)
(-0.293599 0.0479488 0)
(-0.305177 0.0437913 0)
(-0.379128 0.0239415 0)
(-0.501777 -0.0047745 0)
(-0.493518 -0.0128854 0)
(-0.390641 -0.0177432 0)
(-0.327413 -0.0173638 0)
(-0.232362 -0.0406251 0)
(-0.173656 -0.0441167 0)
(0.0366146 0.0581797 0)
(-0.244292 0.0238915 0)
(-0.110746 0.020877 0)
(-0.262356 0.0357169 0)
(-0.383774 0.0188316 0)
(-0.449379 -0.00490683 0)
(-0.443499 -0.0343224 0)
(-0.325059 -0.0485579 0)
(-0.234168 -0.0338827 0)
(-0.167525 0.00637009 0)
(-0.112311 0.0364457 0)
(-0.0510639 0.0177778 0)
(-0.0357095 -0.0122707 0)
(-0.0270715 0.0139923 0)
(-0.0316813 0.0529394 0)
(-0.070795 0.0314783 0)
(-0.0656426 0.00329779 0)
(-0.0844229 0.0323065 0)
(-0.181866 0.0138839 0)
(-0.120936 -0.0167837 0)
(-0.120259 -0.013984 0)
(0.0495334 -0.026181 0)
(0.218499 0.0197842 0)
(0.275755 0.0599632 0)
(0.265465 0.0661973 0)
(0.229224 0.0582214 0)
(0.172356 0.0434523 0)
(0.164656 0.0340515 0)
(0.190241 0.0324292 0)
(0.163396 0.0276852 0)
(0.156145 0.0362469 0)
(0.220451 0.0796897 0)
(-0.114043 0.0727258 0)
(-0.273209 0.0164188 0)
(0.0606947 0.0130936 0)
(-0.129156 0.0144326 0)
(0.102133 0.0692772 0)
(-0.0764939 0.023505 0)
(-0.00740485 0.00326623 0)
(-0.0451112 -0.0202273 0)
(-0.135958 -0.00253986 0)
(-0.156676 0.0320893 0)
(-0.138783 0.0204937 0)
(-0.231656 0.0283771 0)
(-0.303096 0.0202523 0)
(-0.273801 0.00751045 0)
(-0.267529 0.0192795 0)
(-0.323566 0.0127483 0)
(-0.367798 -0.0160878 0)
(-0.330165 -0.0649684 0)
(-0.232111 -0.053337 0)
(-0.141555 -0.0294963 0)
(-0.0765186 -0.00409167 0)
(-0.0623189 -0.0108831 0)
(-0.01426 0.0184464 0)
(-0.122459 0.0197407 0)
(-0.0767143 0.017493 0)
(-0.127975 0.0102326 0)
(-0.126779 0.00278866 0)
(-0.130425 0.0128178 0)
(-0.877269 -0.227566 0)
(-0.650008 -0.0695459 0)
(-0.78738 -0.140316 0)
(-0.893548 -0.189894 0)
(-0.710393 -0.153729 0)
(-0.790234 -0.172337 0)
(-0.807998 -0.171511 0)
(-0.693554 -0.198387 0)
(-0.454536 -0.174917 0)
(-0.30754 -0.0969352 0)
(-0.439342 0.0179584 0)
(-0.683552 -0.043264 0)
(-0.584662 -0.150535 0)
(-0.520134 -0.199539 0)
(-0.418829 -0.144063 0)
(-0.413778 -0.1215 0)
(-0.342973 -0.110915 0)
(-0.604635 -0.159397 0)
(-0.4316 -0.0792881 0)
(-0.563083 -0.0131764 0)
(-0.567494 -0.113573 0)
(-0.352951 -0.166809 0)
(-0.0369659 -0.180731 0)
(0.286803 -0.030281 0)
(-0.0468209 0.0766289 0)
(-0.0578846 0.00152071 0)
(-0.169993 -0.0377041 0)
(-0.0285711 -0.105512 0)
(0.0780792 -0.0600653 0)
(-0.0382548 0.0793514 0)
(-0.309146 0.0307803 0)
(-0.290737 -0.0351455 0)
(-0.37688 -0.0818296 0)
(-0.258644 -0.117023 0)
(-0.245501 -0.101132 0)
(-0.288075 -0.0854551 0)
(-0.285795 -0.0532327 0)
(-0.364447 -0.00371995 0)
(-0.506107 -0.0340581 0)
(-0.490563 -0.128967 0)
(-0.370686 -0.121158 0)
(-0.254783 -0.125989 0)
(-0.250678 -0.111004 0)
(-0.169681 -0.0941754 0)
(0.0446731 0.0498477 0)
(-0.143178 0.0322902 0)
(-0.113738 -0.0452195 0)
(-0.256188 0.0124508 0)
(-0.371546 -0.0144247 0)
(-0.439558 -0.0539818 0)
(-0.438269 -0.0694146 0)
(-0.328855 -0.0842275 0)
(-0.259505 -0.0783632 0)
(-0.176476 -0.0727367 0)
(-0.0482441 -0.0647023 0)
(-0.0237093 -0.0569517 0)
(-0.0301534 -0.0358489 0)
(-0.0338264 -0.0242953 0)
(-0.0538932 -0.0115747 0)
(-0.0615137 -0.0436975 0)
(-0.0422792 -0.0468224 0)
(-0.074972 0.0275413 0)
(-0.183749 -0.0152657 0)
(-0.113887 -0.0591717 0)
(-0.115449 -0.0886127 0)
(0.0574749 -0.0772503 0)
(0.158426 -0.0356854 0)
(0.403054 0.00448702 0)
(0.39647 0.0115977 0)
(0.34195 0.0207577 0)
(0.230814 0.00638691 0)
(0.161743 -0.00417135 0)
(0.188124 0.00196293 0)
(0.184737 0.0102665 0)
(0.169081 0.0262209 0)
(0.232467 0.080433 0)
(-0.109456 0.0671487 0)
(-0.134705 -0.0360181 0)
(0.0801326 -0.0566233 0)
(-0.118243 -0.0639159 0)
(0.194999 0.0207045 0)
(-0.0794018 0.0192345 0)
(-0.0350816 -0.0190448 0)
(-0.014512 -0.0353163 0)
(-0.120381 -0.0416851 0)
(-0.132778 -0.0335132 0)
(-0.132607 -0.030476 0)
(-0.237952 -0.0322345 0)
(-0.304351 -0.0759467 0)
(-0.265135 -0.0783549 0)
(-0.271503 -0.019674 0)
(-0.325443 -0.00961339 0)
(-0.359729 -0.0601473 0)
(-0.324949 -0.0780597 0)
(-0.221915 -0.0654471 0)
(-0.130345 -0.037296 0)
(-0.0520062 -0.0267045 0)
(-0.0512623 -0.0308911 0)
(-0.0329859 -0.0235154 0)
(-0.11444 -0.0240492 0)
(-0.0711135 -0.0107287 0)
(-0.129758 -0.00716005 0)
(-0.10952 -0.0146059 0)
(-0.117257 0.0111288 0)
(-0.878329 -0.127277 0)
(-0.66354 0.0171403 0)
(-0.844879 -0.014317 0)
(-0.665116 -0.0726788 0)
(-0.612651 0.0435946 0)
(-0.844456 0.018308 0)
(-0.767715 -0.132604 0)
(-0.656288 -0.116028 0)
(-0.41785 -0.0794441 0)
(-0.353233 0.0922993 0)
(-0.438634 0.0480359 0)
(-0.671333 -0.00683294 0)
(-0.571997 -0.0572014 0)
(-0.557833 -0.0550602 0)
(-0.433845 -0.0105615 0)
(-0.410352 0.0455671 0)
(-0.377353 0.0742275 0)
(-0.617946 0.0179101 0)
(-0.565778 0.00739947 0)
(-0.590079 -0.00686552 0)
(-0.583323 -0.0580449 0)
(-0.314293 -0.13728 0)
(-0.0664749 -0.200619 0)
(0.33111 0.0721324 0)
(0.0392612 0.0945679 0)
(-0.110396 0.013903 0)
(-0.168361 0.0323905 0)
(-0.0841804 -0.0216666 0)
(0.112452 0.0472176 0)
(-0.0441058 0.0953236 0)
(-0.29637 0.04473 0)
(-0.275968 0.01463 0)
(-0.352996 0.0157616 0)
(-0.286583 -0.00843603 0)
(-0.282231 0.0108864 0)
(-0.315576 0.0335657 0)
(-0.320754 0.037069 0)
(-0.360145 0.0315548 0)
(-0.504776 -0.00497529 0)
(-0.476514 -0.0296921 0)
(-0.366874 -0.0430488 0)
(-0.288433 -0.0384602 0)
(-0.274972 -0.0715854 0)
(-0.193894 -0.07337 0)
(0.0417593 0.0590203 0)
(-0.0588956 0.0345332 0)
(-0.118052 0.0182733 0)
(-0.254331 0.0415032 0)
(-0.355499 0.0241619 0)
(-0.422895 -0.00621603 0)
(-0.443271 -0.0445999 0)
(-0.339965 -0.063373 0)
(-0.260653 -0.0516403 0)
(-0.207747 -0.0107995 0)
(-0.134242 0.0225867 0)
(0.0566765 0.0145292 0)
(-0.0449845 -0.0173326 0)
(-0.0463655 0.00770864 0)
(-0.0790231 0.040918 0)