/*--------------------------------*- C++ -*----------------------------------*\
| =========                 |                                                 |
| \\      /  F ield         | OpenFOAM: The Open Source CFD Toolbox           |
|  \\    /   O peration     | Version:  v1912                                 |
|   \\  /    A nd           | Website:  www.openfoam.com                      |
|    \\/     M anipulation  |                                                 |
\*---------------------------------------------------------------------------*/
FoamFile
{
    version     2.0;
    format      ascii;
    class       volScalarField;
    location    "50";
    object      omega;
}
// * * * * * * * * * * * * * * * * * * * * * * * * * * * * * * * * * * * * * //

dimensions      [0 0 -1 0 0 0 0];


internalField   nonuniform List<scalar> 
14268
(
2.99068
2.99067
2.99066
2.99065
2.99064
2.99063
2.99062
2.99062
0.984119
0.998182
1.00666
1.00599
1.00306
1.01909
1.05119
1.02838
0.404598
0.413286
0.422496
0.429224
0.436911
0.46026
0.489307
0.474362
0.284696
0.288814
0.293764
0.298644
0.304882
0.321386
0.341098
0.334148
0.258202
0.259999
0.26234
0.265054
0.268926
0.27902
0.29089
0.285847
0.252319
0.253257
0.254527
0.256029
0.258486
0.265236
0.273459
0.270618
0.251017
0.251655
0.252568
0.25376
0.255696
0.260758
0.26653
0.263134
0.250745
0.251315
0.252091
0.253092
0.25479
0.259169
0.264148
0.261373
0.250746
0.251261
0.25198
0.252927
0.254542
0.258685
0.263156
0.260326
0.250579
0.25114
0.251928
0.252925
0.25454
0.258583
0.262845
0.260036
0.250916
0.251428
0.252123
0.253017
0.254538
0.258489
0.262859
0.260142
0.250536
0.25107
0.251774
0.252707
0.254324
0.258349
0.262633
0.259879
0.250697
0.251255
0.251979
0.252926
0.254547
0.25857
0.262809
0.260105
0.251748
0.252207
0.252724
0.253411
0.254838
0.258904
0.263383
0.2609
0.25107
0.251786
0.252605
0.253586
0.255299
0.258746
0.262675
0.260969
0.2505
0.251045
0.251954
0.253159
0.25536
0.259467
0.263206
0.260468
0.250856
0.251424
0.252155
0.253144
0.255214
0.259822
0.264409
0.260355
0.2506
0.251135
0.251956
0.252948
0.254824
0.259605
0.265034
0.260741
0.250627
0.2511
0.251734
0.252593
0.254228
0.258812
0.264338
0.260935
0.251142
0.251741
0.252452
0.253312
0.25484
0.259057
0.264358
0.261436
0.250621
0.251106
0.251816
0.252653
0.254102
0.25805
0.263194
0.260954
0.251022
0.251522
0.25224
0.253099
0.254423
0.258033
0.262721
0.26109
0.268372
0.268509
0.267555
0.265087
0.262241
0.26257
0.264749
0.260384
0.530896
0.50324
0.461875
0.442471
0.429757
0.406336
0.362439
0.305641
0.620681
0.664015
0.703355
0.746199
0.809452
0.876551
0.938087
1.00832
1.9496
2.18712
2.46868
2.76883
3.07838
3.41649
3.71052
3.87165
5.52317
6.14014
7.04428
8.28455
10.4553
14.8102
24.173
34.188
6.6022
7.78156
9.18244
10.6964
10.6985
10.5041
10.0834
9.39018
5.01842
4.91051
5.25336
6.20615
6.84749
7.07819
7.02094
6.72933
3.4323
3.51145
3.74467
4.08175
4.32404
4.42569
4.40936
4.30916
3.01403
3.10212
3.21825
3.3503
3.44469
3.4728
3.43114
3.31108
2.49262
2.53255
2.58293
2.64245
2.68353
2.68902
2.64772
2.55163
2.10393
2.11815
2.138
2.16472
2.17952
2.17614
2.14366
2.07779
1.75536
1.76216
1.77577
1.79538
1.80665
1.80598
1.7849
1.74451
1.47867
1.48846
1.50158
1.51926
1.53071
1.53431
1.52648
1.5071
1.24886
1.26443
1.28234
1.30417
1.32018
1.33132
1.33219
1.325
1.06432
1.08519
1.1066
1.13125
1.15015
1.166
1.17421
1.17478
0.906669
0.931915
0.956841
0.984935
1.00684
1.02606
1.039
1.04329
0.772954
0.800387
0.826488
0.855477
0.877922
0.898471
0.913963
0.921316
0.653279
0.681794
0.708329
0.73786
0.760427
0.781194
0.797715
0.80585
0.54725
0.574965
0.599508
0.627486
0.648092
0.667757
0.684195
0.692212
0.448545
0.475308
0.497648
0.524417
0.542775
0.561137
0.576598
0.58355
0.35699
0.380319
0.399194
0.424341
0.440148
0.458349
0.472551
0.478313
0.28801
0.303902
0.317569
0.337681
0.349835
0.365096
0.37654
0.382244
0.255629
0.25948
0.263607
0.271184
0.276371
0.284375
0.292379
0.298828
0.252286
0.252365
0.252443
0.253096
0.254026
0.255939
0.258048
0.260281
0.251102
0.251489
0.251909
0.252548
0.252986
0.25362
0.253754
0.25373
0.250694
0.251087
0.251312
0.251858
0.252157
0.25268
0.252969
0.253258
0.25033
0.25054
0.250664
0.251073
0.251333
0.25188
0.252218
0.252536
0.250085
0.250332
0.250391
0.250724
0.250873
0.251271
0.251504
0.251796
0.249921
0.250035
0.250024
0.25024
0.250339
0.25071
0.250936
0.251229
0.249766
0.249896
0.249861
0.250045
0.250068
0.250348
0.250473
0.250778
0.249669
0.249776
0.249707
0.24982
0.249799
0.250022
0.250101
0.250383
0.249598
0.24968
0.249608
0.24971
0.249657
0.249848
0.24989
0.25015
0.249556
0.249577
0.249533
0.249621
0.249545
0.249692
0.249664
0.249864
0.249527
0.249488
0.24946
0.249534
0.249437
0.249551
0.24953
0.249701
0.249448
0.249429
0.249387
0.24946
0.249359
0.249463
0.249375
0.249508
0.249288
0.24939
0.24931
0.249388
0.249284
0.249366
0.249282
0.249414
0.249207
0.249327
0.249252
0.24932
0.249231
0.249317
0.249192
0.249319
0.249166
0.249231
0.249205
0.249253
0.249172
0.249243
0.249126
0.249274
0.249116
0.249149
0.249161
0.249183
0.249129
0.249194
0.249073
0.24922
0.249054
0.249089
0.249105
0.249126
0.249087
0.249154
0.249047
0.249186
0.249007
0.249008
0.249048
0.24906
0.249031
0.249086
0.248985
0.249106
0.248975
0.248957
0.248992
0.249023
0.248992
0.24906
0.248973
0.249107
0.248901
0.248928
0.248906
0.24896
0.248921
0.248985
0.248892
0.249001
0.248858
0.248891
0.248854
0.248937
0.248891
0.24897
0.248901
0.249015
0.248817
0.248839
0.248807
0.248866
0.248821
0.248883
0.248804
0.248903
0.248785
0.248801
0.248803
0.248825
0.24881
0.248897
0.248811
0.248931
0.248751
0.248753
0.248749
0.248761
0.248746
0.248797
0.24873
0.248851
0.248726
0.248736
0.248731
0.248754
0.248766
0.248791
0.248767
0.248854
0.248674
0.248685
0.248681
0.248696
0.248707
0.248708
0.248714
0.248729
0.248631
0.248654
0.248666
0.248691
0.248718
0.248747
0.248741
0.248777
0.248563
0.248587
0.248598
0.248626
0.24865
0.248678
0.248677
0.248701
0.248532
0.248568
0.248594
0.248631
0.248675
0.248711
0.248718
0.248744
0.248473
0.248499
0.248525
0.248557
0.248584
0.248615
0.248626
0.248664
0.248454
0.248474
0.248509
0.248555
0.248594
0.248621
0.248633
0.248663
0.248454
0.24846
0.248477
0.248493
0.248499
0.248493
0.248492
0.248524
0.248546
0.248557
0.24858
0.248597
0.248598
0.248589
0.248575
0.248568
0.248402
0.248404
0.248404
0.248399
0.248405
0.248414
0.248424
0.248442
0.248402
0.248429
0.248455
0.248473
0.248486
0.248488
0.248481
0.248474
0.248321
0.248321
0.248322
0.248322
0.248326
0.248331
0.248337
0.248345
0.248341
0.248359
0.248373
0.248384
0.24839
0.248392
0.248386
0.248379
0.248488
0.248436
0.248394
0.248361
0.248338
0.248323
0.248313
0.248309
0.250601
0.250155
0.249771
0.249446
0.249172
0.248947
0.248764
0.248619
0.267812
0.264936
0.262275
0.259847
0.257667
0.255741
0.254072
0.252652
0.377029
0.365787
0.354496
0.343249
0.332167
0.321348
0.310921
0.300978
0.879809
0.861512
0.841424
0.819405
0.795353
0.769111
0.740586
0.709596
2.9832
2.98323
2.98324
2.98326
2.98327
2.98328
2.98329
2.98331
2.98332
2.98332
2.98332
2.98333
2.98333
2.98332
2.98332
2.98332
2.98332
2.98332
2.98332
2.98332
2.98332
2.98332
2.98332
2.98332
2.98332
2.98332
2.98332
2.98332
2.98333
2.98333
2.98334
2.98334
2.98334
2.98332
2.98332
2.98331
2.98331
2.98331
2.98331
2.98331
2.98331
2.98331
2.98331
2.98331
2.98331
2.98331
2.98331
2.9833
2.9833
2.9833
2.9833
2.9833
2.9833
2.9833
2.9833
2.98329
2.98329
2.98329
2.98329
2.98329
2.98329
2.98329
2.98329
2.98329
2.98329
2.98329
2.98328
2.98328
2.98328
2.98328
2.98329
2.9833
2.98331
2.98331
2.98332
2.98333
2.98333
2.98333
2.98333
2.98332
2.98332
2.98332
2.98332
2.98332
2.98331
2.98331
2.98331
2.9833
2.9833
2.9833
2.98331
2.98331
2.98331
2.98331
2.9833
2.9833
2.9833
2.98329
2.98329
2.98328
2.98328
2.98328
2.98328
2.98328
2.98328
2.98329
2.98329
2.98329
2.98329
2.98329
2.98329
2.9833
2.98331
2.98331
2.98332
2.98332
2.98331
2.9833
2.98329
2.98328
2.98329
2.9833
2.98331
2.98332
2.98333
2.98334
2.98334
2.98334
2.98334
2.98333
2.98333
2.98334
2.98336
2.98336
2.98334
2.98332
2.98332
2.98332
2.98332
2.9833
2.9833
2.9833
2.98332
2.98332
2.98331
2.9833
2.98329
2.98329
2.98329
2.98329
2.98328
2.98328
2.98328
2.98328
2.98328
2.98328
0.870681
0.766951
0.710912
0.670843
0.62374
0.591031
0.567079
0.551078
0.542385
0.538595
0.537254
0.536961
0.536905
0.536939
0.537026
0.537151
0.53733
0.537523
0.537826
0.538228
0.53851
0.538613
0.538496
0.538121
0.537772
0.537797
0.537897
0.537008
0.534975
0.532574
0.530594
0.530002
0.532862
0.539423
0.544608
0.547056
0.54848
0.549442
0.549579
0.549191
0.549051
0.548773
0.548066
0.547298
0.546695
0.546172
0.545834
0.546341
0.547874
0.548682
0.548371
0.547972
0.548995
0.550364
0.552097
0.554906
0.559467
0.565397
0.572269
0.579869
0.587179
0.593196
0.59756
0.601511
0.606123
0.610844
0.614684
0.615907
0.615989
0.615965
0.614876
0.61175
0.606893
0.600948
0.595151
0.590632
0.587926
0.586647
0.586264
0.588056
0.592535
0.599305
0.607845
0.617099
0.625343
0.63116
0.633411
0.631358
0.627092
0.622557
0.6188
0.616379
0.615428
0.616067
0.621472
0.633237
0.651929
0.676758
0.705032
0.731795
0.751145
0.758776
0.754981
0.745861
0.734951
0.723979
0.714212
0.706797
0.702108
0.697763
0.69072
0.680548
0.669408
0.659287
0.651728
0.648149
0.648246
0.650558
0.652955
0.653243
0.649063
0.639234
0.629791
0.623193
0.617751
0.609926
0.601224
0.596771
0.596183
0.595619
0.593142
0.584457
0.570473
0.572677
0.589262
0.602235
0.601089
0.594262
0.59446
0.601797
0.610121
0.609642
0.59886
0.603307
0.61851
0.630129
0.634544
0.636184
0.638209
0.641871
0.645379
0.651165
0.653894
0.647138
0.637964
0.638447
0.381667
0.342064
0.323228
0.310434
0.298506
0.290813
0.285886
0.283042
0.281628
0.281004
0.280757
0.280673
0.280636
0.28062
0.280622
0.280644
0.280676
0.280713
0.28079
0.280906
0.280995
0.281046
0.281059
0.281035
0.281025
0.281113
0.281207
0.28114
0.280827
0.280465
0.280197
0.280212
0.280946
0.28238
0.283468
0.283975
0.284272
0.284488
0.284526
0.284446
0.28441
0.284331
0.284151
0.283962
0.283813
0.283684
0.283583
0.283691
0.284042
0.284157
0.283995
0.283813
0.284033
0.28433
0.28465
0.285095
0.285771
0.286612
0.287569
0.288618
0.289584
0.290302
0.290736
0.291182
0.291939
0.292872
0.293865
0.294543
0.295002
0.295368
0.29546
0.295107
0.294372
0.293402
0.292495
0.291833
0.291503
0.291432
0.291534
0.291919
0.292607
0.293562
0.294764
0.296172
0.297601
0.298771
0.29941
0.299378
0.29899
0.298548
0.298254
0.298209
0.298427
0.298892
0.299979
0.302049
0.30536
0.309953
0.315522
0.321252
0.325905
0.328414
0.328627
0.327653
0.326136
0.324439
0.322908
0.321991
0.321878
0.321809
0.320675
0.318293
0.315511
0.313133
0.311638
0.311329
0.312729
0.315897
0.318906
0.320251
0.319547
0.315531
0.312011
0.310093
0.308756
0.306546
0.304065
0.303054
0.303271
0.303125
0.301714
0.297815
0.292719
0.292968
0.298323
0.303762
0.304267
0.302341
0.302596
0.305156
0.306362
0.304335
0.29908
0.299024
0.302822
0.307214
0.308822
0.308908
0.308716
0.309177
0.309851
0.310847
0.311151
0.309819
0.308622
0.309931
0.281931
0.266954
0.260713
0.25711
0.254481
0.252987
0.252067
0.251587
0.251399
0.251329
0.251296
0.251278
0.251265
0.251251
0.251238
0.251231
0.251224
0.251217
0.251212
0.251211
0.251214
0.251207
0.2512
0.2512
0.251204
0.251215
0.251227
0.251219
0.251183
0.251149
0.251136
0.251145
0.251227
0.251419
0.251564
0.251633
0.251669
0.2517
0.251705
0.251694
0.251687
0.25167
0.251638
0.251605
0.251583
0.251569
0.251547
0.251563
0.251622
0.251638
0.251607
0.251573
0.251613
0.251667
0.25171
0.251786
0.251908
0.252055
0.252228
0.25242
0.252593
0.252728
0.252805
0.252884
0.253023
0.253185
0.253358
0.253476
0.253559
0.253628
0.253647
0.25359
0.253463
0.253293
0.253148
0.253048
0.253004
0.252998
0.253014
0.253087
0.253224
0.25341
0.253644
0.253916
0.254197
0.25443
0.254555
0.254551
0.254478
0.254395
0.254341
0.254345
0.254396
0.254494
0.254723
0.255159
0.255857
0.256848
0.258086
0.259398
0.260495
0.26111
0.26119
0.26099
0.260678
0.260323
0.259991
0.25981
0.259828
0.259849
0.259585
0.259002
0.258397
0.257918
0.257634
0.257588
0.258008
0.259076
0.260162
0.260643
0.260427
0.259141
0.258194
0.257773
0.25753
0.257094
0.256569
0.256366
0.256382
0.256331
0.256074
0.255308
0.254446
0.254446
0.25543
0.25659
0.256743
0.256334
0.256409
0.257034
0.25731
0.256781
0.255583
0.255567
0.2564
0.257472
0.257922
0.257946
0.257896
0.25797
0.258028
0.258229
0.258376
0.258072
0.257725
0.258069
0.257928
0.252551
0.250402
0.24937
0.248751
0.248453
0.248315
0.248273
0.248313
0.248327
0.248329
0.24831
0.248292
0.248272
0.248254
0.248242
0.248225
0.248204
0.248182
0.248159
0.248142
0.248119
0.248101
0.248095
0.248094
0.248088
0.248076
0.248067
0.248059
0.24807
0.248089
0.24809
0.248058
0.248038
0.248026
0.248021
0.248015
0.248015
0.248015
0.248018
0.248017
0.248013
0.248009
0.248005
0.248004
0.248009
0.248005
0.248008
0.248008
0.248009
0.248005
0.248002
0.248002
0.248012
0.24801
0.24802
0.248036
0.248058
0.248088
0.248122
0.248151
0.248183
0.248202
0.24823
0.248257
0.248277
0.248294
0.248306
0.248311
0.248321
0.248327
0.248324
0.248309
0.248286
0.24827
0.248264
0.248266
0.248269
0.24827
0.248286
0.248317
0.248355
0.248404
0.24846
0.248515
0.248557
0.248576
0.248576
0.248561
0.248539
0.248524
0.248526
0.248538
0.248558
0.248601
0.248682
0.248811
0.24901
0.249285
0.249599
0.249878
0.250047
0.250078
0.250045
0.250005
0.249957
0.249905
0.249882
0.24991
0.249926
0.249863
0.249733
0.249635
0.249584
0.249549
0.249535
0.24963
0.249973
0.250379
0.250537
0.250416
0.249968
0.249727
0.249685
0.249689
0.24965
0.249527
0.249447
0.24936
0.249336
0.249376
0.249384
0.2495
0.249462
0.249441
0.249504
0.249516
0.249427
0.249399
0.249507
0.249602
0.249501
0.249322
0.249324
0.249454
0.249634
0.249754
0.249766
0.249779
0.249776
0.249693
0.249734
0.249861
0.249807
0.249591
0.249668
0.253142
0.249645
0.248602
0.248218
0.248038
0.248055
0.247958
0.24791
0.247962
0.247988
0.247994
0.247982
0.247972
0.24796
0.247943
0.24793
0.24791
0.247893
0.24787
0.247847
0.247829
0.247807
0.247791
0.247788
0.247788
0.247782
0.247771
0.247764
0.247765
0.247776
0.247802
0.247804
0.247763
0.247721
0.247684
0.247668
0.247656
0.24765
0.247648
0.24765
0.247649
0.247647
0.247645
0.247643
0.247645
0.247654
0.24765
0.247647
0.247647
0.247644
0.24764
0.247637
0.247639
0.247643
0.247629
0.247631
0.247638
0.247641
0.247649
0.247659
0.247667
0.247682
0.247688
0.247699
0.247709
0.247708
0.247702
0.247695
0.247692
0.247692
0.247693
0.247699
0.247702
0.2477
0.247706
0.247714
0.247723
0.247726
0.247725
0.247732
0.247745
0.247758
0.247774
0.24779
0.247806
0.247816
0.247816
0.247817
0.247815
0.247804
0.247797
0.2478
0.247805
0.24781
0.247817
0.247832
0.247852
0.247898
0.247978
0.248083
0.248189
0.24826
0.248285
0.248286
0.248299
0.248312
0.248314
0.24832
0.248347
0.248358
0.248336
0.24831
0.248323
0.248373
0.248389
0.248362
0.248376
0.248529
0.248766
0.248855
0.248752
0.248539
0.248454
0.248519
0.248577
0.248599
0.248549
0.248488
0.248385
0.248363
0.248458
0.248614
0.248891
0.248847
0.248664
0.248526
0.248496
0.248464
0.248403
0.248417
0.248475
0.248454
0.248476
0.248483
0.248464
0.24846
0.248508
0.248512
0.248526
0.248514
0.248405
0.248405
0.24853
0.248521
0.248346
0.248381
0.252504
0.249442
0.248522
0.248222
0.248025
0.247962
0.247943
0.247953
0.248013
0.248042
0.248046
0.248026
0.248009
0.247984
0.247965
0.247953
0.247939
0.247913
0.247887
0.247858
0.247838
0.247812
0.247794
0.247788
0.247786
0.24778
0.247766
0.247757
0.247752
0.247765
0.247786
0.247786
0.247744
0.247698
0.24766
0.247643
0.247627
0.247623
0.247621
0.247624
0.247623
0.247622
0.247621
0.247619
0.247622
0.247631
0.247628
0.24763
0.247622
0.247619
0.247619
0.247621
0.247615
0.247618
0.24761
0.247609
0.247606
0.247607
0.247613
0.247621
0.247624
0.247637
0.247643
0.247658
0.247664
0.247659
0.247647
0.247638
0.24763
0.247629
0.247631
0.247637
0.247643
0.247646
0.247653
0.247662
0.247671
0.247674
0.247672
0.247677
0.247688
0.247699
0.247713
0.247729
0.247743
0.247748
0.247747
0.247746
0.247743
0.247732
0.24772
0.247719
0.247717
0.247717
0.24772
0.247725
0.247727
0.247745
0.24779
0.247857
0.247929
0.247983
0.248004
0.248012
0.248034
0.24806
0.248075
0.248091
0.24812
0.248133
0.248124
0.248112
0.248145
0.248206
0.248227
0.248207
0.248223
0.248338
0.248538
0.248613
0.248536
0.248349
0.248282
0.24836
0.248422
0.248451
0.248416
0.248359
0.248251
0.248229
0.248338
0.248514
0.248798
0.248756
0.248559
0.248395
0.248359
0.248333
0.248273
0.24827
0.248326
0.248322
0.248367
0.248381
0.24835
0.248327
0.248344
0.248355
0.248372
0.248351
0.248242
0.248239
0.248351
0.24836
0.24817
0.248178
0.252296
0.249181
0.248409
0.248166
0.248031
0.248064
0.247965
0.247903
0.247942
0.247967
0.247974
0.247964
0.247953
0.247945
0.247925
0.247909
0.247889
0.247873
0.24785
0.247826
0.247807
0.247784
0.247767
0.247763
0.247762
0.247753
0.247743
0.247737
0.247737
0.247749
0.247776
0.247777
0.247734
0.247692
0.247652
0.247633
0.247623
0.247617
0.247616
0.247618
0.247617
0.247614
0.247612
0.24761
0.247612
0.247622
0.24762
0.247617
0.247615
0.247612
0.247608
0.247606
0.247609
0.247612
0.247598
0.247598
0.247604
0.247605
0.247611
0.247619
0.247623
0.247635
0.247641
0.247652
0.24766
0.247656
0.247645
0.247634
0.247627
0.247625
0.247626
0.247632
0.247637
0.24764
0.247649
0.247658
0.247667
0.247671
0.247669
0.247675
0.247684
0.247694
0.247705
0.247718
0.247729
0.247734
0.247732
0.247732
0.247729
0.247719
0.24771
0.247709
0.247709
0.247711
0.247712
0.247714
0.247713
0.247728
0.247766
0.247824
0.247888
0.247936
0.247958
0.247964
0.247993
0.248021
0.248038
0.248055
0.248085
0.248099
0.24809
0.24808
0.248117
0.248179
0.248202
0.248183
0.248192
0.248309
0.248514
0.24858
0.248484
0.24831
0.248251
0.248334
0.248407
0.248439
0.248406
0.248345
0.248237
0.248216
0.248325
0.248506
0.248797
0.248749
0.248544
0.248385
0.248352
0.248326
0.248256
0.248271
0.248313
0.248303
0.248349
0.248364
0.248312
0.248275
0.248304
0.2483
0.248328
0.248309
0.248195
0.248177
0.2483
0.248309
0.248137
0.248163
0.252387
0.249422
0.248602
0.248321
0.248082
0.248016
0.247987
0.247973
0.248018
0.24805
0.248052
0.24803
0.248011
0.247984
0.247967
0.247958
0.247937
0.247908
0.24788
0.247854
0.247837
0.24781
0.247794
0.247787
0.247786
0.247783
0.247768
0.24776
0.247755
0.247768
0.247791
0.247791
0.247747
0.247697
0.24766
0.247642
0.247628
0.247625
0.247623
0.247626
0.247624
0.247623
0.247622
0.247621
0.247624
0.247633
0.247632
0.24763
0.247623
0.24762
0.24762
0.247622
0.247616
0.247618
0.247613
0.247611
0.247608
0.247609
0.247614
0.247622
0.247625
0.247637
0.247642
0.247657
0.247662
0.247656
0.247646
0.247635
0.247627
0.247627
0.247629
0.247635
0.247641
0.247644
0.247652
0.247661
0.24767
0.247674
0.247672
0.247677
0.247687
0.247696
0.247709
0.247721
0.247733
0.247736
0.247733
0.247733
0.24773
0.247719
0.24771
0.247709
0.247708
0.24771
0.247713
0.247713
0.247713
0.247727
0.247765
0.247821
0.247885
0.24793
0.247949
0.24796
0.247987
0.248014
0.248032
0.248048
0.248079
0.248092
0.248083
0.248076
0.248113
0.248175
0.248197
0.248178
0.24819
0.248306
0.248499
0.248567
0.248482
0.248317
0.248257
0.248348
0.248408
0.248433
0.248399
0.24834
0.248235
0.248215
0.248326
0.248507
0.2488
0.248755
0.248544
0.248375
0.248334
0.248304
0.248237
0.248241
0.248302
0.248299
0.248353
0.248366
0.24833
0.248304
0.248313
0.248342
0.248346
0.248326
0.248212
0.248217
0.248324
0.248333
0.248156
0.248167
0.252302
0.249301
0.248561
0.248329
0.248137
0.248142
0.24802
0.247935
0.247948
0.247967
0.247973
0.247959
0.247948
0.247941
0.247918
0.247901
0.247888
0.247875
0.247856
0.247829
0.247807
0.247787
0.247773
0.247767
0.247764
0.247756
0.24775
0.247745
0.247746
0.247759
0.247784
0.247786
0.247744
0.2477
0.24766
0.247642
0.247629
0.247625
0.247623
0.247625
0.247624
0.247621
0.247618
0.247617
0.247618
0.247629
0.247627
0.247624
0.247623
0.247618
0.247615
0.247613
0.247617
0.24762
0.247607
0.247606
0.247612
0.247613
0.247618
0.247628
0.247632
0.247643
0.247648
0.247659
0.247668
0.247664
0.247655
0.247642
0.247633
0.247632
0.247634
0.24764
0.247645
0.247648
0.247657
0.247666
0.247675
0.247679
0.247678
0.247683
0.247692
0.247701
0.247712
0.247723
0.247735
0.247739
0.247736
0.247735
0.247733
0.247722
0.247712
0.24771
0.247711
0.24771
0.247712
0.247712
0.247711
0.247726
0.247763
0.24782
0.247882
0.247928
0.247947
0.247958
0.247984
0.248012
0.248028
0.248047
0.248077
0.248091
0.248081
0.248073
0.248109
0.248174
0.248197
0.248176
0.248192
0.248308
0.248506
0.248575
0.248483
0.248296
0.24825
0.248342
0.24841
0.248446
0.248418
0.248354
0.248246
0.248222
0.248324
0.248506
0.248798
0.248755
0.248546
0.248387
0.248356
0.248338
0.248289
0.248317
0.248331
0.24831
0.248352
0.248362
0.248306
0.248276
0.248314
0.248307
0.248309
0.248302
0.248205
0.248171
0.248292
0.248313
0.24815
0.248183
0.252484
0.249608
0.248813
0.248507
0.2482
0.248105
0.248062
0.248027
0.248031
0.248077
0.248078
0.248054
0.248032
0.248007
0.247992
0.247984
0.247957
0.247927
0.247897
0.247871
0.247855
0.24783
0.247813
0.247805
0.247801
0.247795
0.247776
0.247769
0.247766
0.247775
0.247798
0.2478
0.247755
0.247706
0.247667
0.247648
0.247635
0.247632
0.247631
0.247634
0.247633
0.247631
0.247631
0.24763
0.247631
0.247641
0.247642
0.247638
0.24763
0.247628
0.247628
0.24763
0.247624
0.247626
0.247623
0.247622
0.247617
0.247618
0.247623
0.247631
0.247634
0.247645
0.247652
0.247666
0.247671
0.247664
0.247655
0.247645
0.247637
0.247637
0.247638
0.247645
0.247651
0.247654
0.247663
0.247673
0.247681
0.247685
0.247684
0.247688
0.247697
0.247706
0.247718
0.247729
0.247739
0.247745
0.247741
0.247739
0.247737
0.247726
0.247716
0.247714
0.247712
0.247714
0.247714
0.247714
0.247712
0.247727
0.247764
0.24782
0.247882
0.247928
0.247949
0.247955
0.247984
0.248013
0.24803
0.248045
0.248076
0.248091
0.248085
0.248075
0.248109
0.248173
0.248199
0.248179
0.248186
0.248306
0.248508
0.248578
0.248506
0.248355
0.248286
0.248374
0.248428
0.248454
0.248417
0.248351
0.248242
0.24822
0.248328
0.248506
0.248805
0.248761
0.248556
0.248388
0.248349
0.248314
0.248254
0.248286
0.248342
0.24831
0.248356
0.248371
0.248346
0.24832
0.248325
0.24836
0.248377
0.248352
0.248239
0.248252
0.248362
0.248353
0.248192
0.248226
0.252301
0.249559
0.248826
0.248555
0.2483
0.248244
0.248104
0.247992
0.247957
0.247967
0.247973
0.247954
0.247937
0.247925
0.247903
0.247886
0.24787
0.247854
0.247835
0.24781
0.247793
0.247779
0.247771
0.247759
0.247753
0.247756
0.247757
0.247751
0.247746
0.247764
0.247793
0.247794
0.247752
0.24771
0.247668
0.247649
0.247638
0.247635
0.247633
0.247636
0.247635
0.247632
0.247629
0.247628
0.247629
0.24764
0.247638
0.247634
0.247634
0.24763
0.247625
0.247623
0.247631
0.247634
0.247621
0.24762
0.247626
0.247627
0.247631
0.24764
0.247644
0.247655
0.24766
0.24767
0.24768
0.247678
0.24767
0.247655
0.247646
0.247647
0.247649
0.247655
0.24766
0.247662
0.247672
0.24768
0.247689
0.247693
0.247692
0.247697
0.247705
0.247714
0.247725
0.247736
0.247748
0.247752
0.247749
0.247747
0.247743
0.247734
0.247722
0.247718
0.247716
0.247716
0.247716
0.247714
0.247714
0.247728
0.247765
0.247821
0.247884
0.247928
0.247948
0.24796
0.247985
0.248014
0.248033
0.24805
0.248077
0.248093
0.248085
0.248074
0.248111
0.248174
0.248196
0.248178
0.248196
0.24832
0.248527
0.24858
0.248465
0.248304
0.248275
0.248378
0.248438
0.248477
0.248453
0.248394
0.248292
0.24826
0.248337
0.248508
0.248804
0.248761
0.248554
0.248435
0.248416
0.248384
0.248348
0.248382
0.248393
0.24834
0.248361
0.248371
0.24832
0.248298
0.248327
0.248336
0.248324
0.248322
0.248246
0.248214
0.248316
0.24834
0.248196
0.248241
0.252666
0.249952
0.249155
0.248791
0.248404
0.248235
0.248158
0.248089
0.24806
0.24811
0.248113
0.24808
0.248053
0.24803
0.24802
0.248016
0.247988
0.247959
0.247929
0.247906
0.247892
0.247871
0.247855
0.247845
0.247836
0.247822
0.247795
0.247789
0.247798
0.247795
0.247809
0.24781
0.247767
0.247718
0.247678
0.247659
0.247645
0.247643
0.247642
0.247646
0.247646
0.247646
0.247645
0.247645
0.247646
0.247655
0.247658
0.247654
0.247647
0.247645
0.247646
0.247647
0.247643
0.247645
0.247643
0.24764
0.247634
0.247636
0.24764
0.247648
0.24765
0.247658
0.247666
0.247679
0.247684
0.247678
0.247673
0.247664
0.247658
0.247658
0.247655
0.247659
0.247663
0.247666
0.247675
0.247684
0.247693
0.247698
0.247698
0.247701
0.247708
0.247716
0.247727
0.247737
0.247749
0.247752
0.247748
0.247746
0.247745
0.247735
0.247724
0.24772
0.24772
0.247717
0.247719
0.247718
0.247717
0.24773
0.247766
0.247822
0.247884
0.247931
0.247951
0.24796
0.247986
0.248012
0.248025
0.248043
0.248077
0.248091
0.248081
0.24807
0.248105
0.24817
0.248195
0.248173
0.248185
0.248317
0.248532
0.248625
0.24858
0.248424
0.248353
0.248427
0.248477
0.248501
0.248469
0.248409
0.2483
0.248263
0.248345
0.248536
0.248836
0.248816
0.24861
0.248488
0.248428
0.248364
0.248338
0.248407
0.248453
0.248364
0.248378
0.248389
0.248395
0.248375
0.24837
0.248418
0.248443
0.248423
0.248318
0.248329
0.248436
0.24841
0.248282
0.24833
0.252578
0.249859
0.249131
0.248838
0.248531
0.248359
0.248181
0.248022
0.247935
0.247942
0.247945
0.247925
0.24791
0.247894
0.247868
0.247851
0.247835
0.247814
0.247791
0.24777
0.247763
0.247761
0.247754
0.247739
0.247733
0.24775
0.247757
0.247751
0.247734
0.247734
0.247768
0.247777
0.247738
0.2477
0.247662
0.247647
0.247633
0.247631
0.24763
0.247633
0.24763
0.247626
0.247622
0.24762
0.24762
0.247632
0.24763
0.247624
0.247629
0.247627
0.24762
0.247617
0.247627
0.247631
0.247619
0.247621
0.247627
0.247627
0.247631
0.247638
0.247644
0.247655
0.247664
0.247674
0.247688
0.247689
0.247684
0.247669
0.247657
0.247652
0.247654
0.247659
0.247664
0.247665
0.247671
0.247678
0.247685
0.247688
0.247687
0.247693
0.247701
0.24771
0.247723
0.247736
0.247751
0.247757
0.247754
0.247751
0.24775
0.247738
0.247728
0.247724
0.247723
0.247724
0.247723
0.247724
0.24772
0.247735
0.247771
0.247825
0.247882
0.247924
0.247941
0.247948
0.247978
0.248005
0.248023
0.248042
0.24808
0.248092
0.248075
0.24807
0.248106
0.248173
0.248202
0.248177
0.248173
0.248275
0.248474
0.248541
0.248461
0.248332
0.248337
0.248444
0.248512
0.248547
0.248528
0.248473
0.248372
0.248336
0.248387
0.248541
0.248807
0.248778
0.24862
0.248542
0.248515
0.248472
0.248464
0.248525
0.24852
0.248412
0.2484
0.248401
0.248376
0.248399
0.248415
0.248412
0.248388
0.248389
0.248337
0.248317
0.248395
0.248414
0.248299
0.248363
0.252817
0.250056
0.249124
0.248649
0.248275
0.248109
0.24808
0.248077
0.248078
0.248113
0.248123
0.248092
0.248063
0.248042
0.248032
0.248026
0.247997
0.24797
0.247939
0.247914
0.247897
0.247874
0.247855
0.247846
0.247835
0.247812
0.247783
0.247777
0.247798
0.247809
0.247819
0.247809
0.24776
0.247704
0.247661
0.24764
0.24763
0.247623
0.247619
0.247625
0.247624
0.247624
0.247626
0.247627
0.24763
0.247639
0.247641
0.247641
0.247632
0.247631
0.247632
0.247635
0.247627
0.24763
0.247626
0.247623
0.247618
0.247619
0.247625
0.247636
0.24764
0.24765
0.247653
0.247669
0.247676
0.247671
0.247662
0.247652
0.247644
0.247641
0.247641
0.247646
0.247652
0.247653
0.247661
0.24767
0.247679
0.247684
0.247683
0.247688
0.247697
0.247707
0.24772
0.247733
0.247746
0.24775
0.247746
0.247744
0.247738
0.24773
0.24772
0.247716
0.247714
0.247714
0.247719
0.247722
0.247721
0.247734
0.24777
0.247826
0.247886
0.247928
0.247946
0.247956
0.247984
0.248013
0.248031
0.248052
0.248092
0.24812
0.248119
0.248105
0.248121
0.248178
0.248204
0.248204
0.24824
0.24838
0.248604
0.248684
0.248631
0.248461
0.248364
0.248415
0.248469
0.248504
0.248467
0.248407
0.248308
0.248286
0.248369
0.248537
0.248838
0.248817
0.248614
0.248505
0.248444
0.248398
0.248347
0.248383
0.248426
0.248376
0.248388
0.248399
0.248413
0.248404
0.248393
0.248422
0.248458
0.248443
0.248318
0.248343
0.248452
0.248418
0.248274
0.24832
0.252659
0.249688
0.248919
0.248633
0.248328
0.248224
0.248076
0.247978
0.247927
0.247962
0.247956
0.247938
0.24793
0.24791
0.247884
0.247869
0.247853
0.247828
0.247806
0.247785
0.247776
0.247765
0.247753
0.247743
0.247744
0.247758
0.247758
0.24775
0.247734
0.247726
0.247751
0.247765
0.247727
0.247692
0.24765
0.247638
0.247625
0.24762
0.247621
0.247625
0.247626
0.247625
0.247622
0.247618
0.247619
0.247627
0.247623
0.24762
0.247622
0.247619
0.247613
0.247608
0.247616
0.247622
0.247606
0.247607
0.247613
0.247611
0.24761
0.247615
0.247617
0.24763
0.24764
0.247652
0.247666
0.247665
0.247657
0.247643
0.247634
0.247631
0.247631
0.247636
0.24764
0.247644
0.247656
0.247667
0.247678
0.247684
0.247685
0.247688
0.247697
0.247702
0.247713
0.247725
0.247737
0.247742
0.247737
0.247734
0.24774
0.247735
0.247729
0.247731
0.247736
0.247742
0.247744
0.247741
0.247744
0.247759
0.247796
0.247849
0.247907
0.24795
0.247971
0.247981
0.248004
0.248026
0.248036
0.248046
0.248075
0.248085
0.248078
0.248078
0.248121
0.248201
0.248237
0.248223
0.248184
0.248273
0.248475
0.248547
0.248486
0.248353
0.24834
0.248426
0.248496
0.248548
0.248544
0.248499
0.248409
0.248385
0.248425
0.248587
0.248866
0.248851
0.248665
0.248599
0.248561
0.248517
0.248522
0.248544
0.248532
0.248445
0.248455
0.248448
0.24843
0.248468
0.248483
0.248453
0.248434
0.248429
0.248362
0.24834
0.248437
0.248452
0.248296
0.248345
0.25263
0.249983
0.249158
0.248783
0.248436
0.248249
0.2482
0.248193
0.248159
0.248141
0.248163
0.24813
0.248104
0.248095
0.248093
0.248092
0.248067
0.248042
0.248006
0.247982
0.247965
0.247946
0.247934
0.247934
0.247919
0.247888
0.247856
0.247853
0.247895
0.247909
0.247908
0.247857
0.247783
0.247716
0.247662
0.247636
0.247624
0.247623
0.247621
0.247622
0.24762
0.247616
0.247612
0.247613
0.247618
0.247633
0.247638
0.247637
0.247628
0.247625
0.247629
0.247634
0.247631
0.247635
0.247627
0.247621
0.247614
0.247617
0.247627
0.247636
0.247638
0.247649
0.24765
0.247664
0.247678
0.247678
0.247665
0.24765
0.247638
0.247634
0.247637
0.247648
0.24766
0.247665
0.24767
0.247676
0.247681
0.247683
0.247683
0.24769
0.247699
0.247712
0.247729
0.247747
0.247763
0.247768
0.247766
0.247772
0.247767
0.24776
0.247753
0.247748
0.247747
0.247752
0.247762
0.247765
0.247769
0.247779
0.247813
0.24787
0.247931
0.247974
0.247992
0.248002
0.248038
0.248074
0.248096
0.248124
0.248186
0.248226
0.24822
0.248197
0.2482
0.248254
0.248282
0.248297
0.248347
0.248501